/*--------------------------------*- C++ -*----------------------------------*\
| =========                 |                                                 |
| \\      /  F ield         | OpenFOAM: The Open Source CFD Toolbox           |
|  \\    /   O peration     | Version:  v2012                                 |
|   \\  /    A nd           | Website:  www.openfoam.com                      |
|    \\/     M anipulation  |                                                 |
\*---------------------------------------------------------------------------*/
FoamFile
{
    version     2.0;
    format      ascii;
    class       volScalarField;
    location    "550";
    object      k_0;
}
// * * * * * * * * * * * * * * * * * * * * * * * * * * * * * * * * * * * * * //

dimensions      [0 2 -2 0 0 0 0];


internalField   nonuniform List<scalar> 
10042
(
0.000147431
0.000148175
0.00014811
0.000159003
0.061376
0.000148321
0.0621329
0.000500546
0.000147275
0.000147885
0.0280569
0.000158878
0.000144667
0.000144385
0.000151334
0.000148048
0.000147992
0.000149698
0.000147447
0.000171396
0.000147161
0.000213714
0.000145586
0.000145325
0.000148224
0.000158293
0.000148774
0.000149926
0.000147165
0.000149216
0.000148006
0.00688073
0.000147962
0.000148962
0.000154968
0.000145414
0.000157485
0.000162132
0.00014541
0.000157382
0.000172168
0.000150741
0.0663437
0.000148183
0.0605128
0.000174908
0.000149158
0.000186471
0.000156428
0.000171879
0.000149028
0.000150604
0.000150786
0.000152113
0.000157492
0.000148268
0.000147185
0.000149076
0.000148919
0.000150488
0.000148152
0.000147878
0.000155161
0.000148013
0.000149003
0.000148946
0.000148406
0.000165806
0.0576283
0.000147619
0.000152053
0.0001738
0.000148205
0.000157462
0.000148313
0.000145325
0.0701416
0.000147483
0.000156626
0.0698199
0.000155794
0.0358675
0.000148104
0.000150129
0.000148422
0.000149374
0.000147373
0.00018204
0.000147989
0.00014736
0.000148798
0.0369634
0.000150079
0.000150331
0.00014911
0.000147547
0.000147459
0.000147466
0.000156701
0.00014729
0.000149933
0.000177301
0.000606905
0.00014929
0.000149684
0.000164867
0.0001475
0.000147428
0.000147216
0.000144599
0.000145954
0.000147177
0.000154157
0.052111
0.000148973
0.000147225
0.00014763
0.000147467
0.000147507
0.0387865
0.000147956
3.81851e-05
0.000148273
0.000147795
0.000177347
0.00014811
0.000324968
0.000156895
0.00016456
0.000147327
0.000157098
0.000148281
0.0352418
0.000198789
0.00014728
0.000168191
0.025507
0.000148857
0.000187438
0.000184163
0.000149939
0.000147624
0.000149451
0.000185896
0.00014895
0.000147166
0.000169187
0.000145986
0.000147544
0.000153513
0.000147495
0.000149676
0.0693421
0.0405959
0.000149164
0.000144618
0.000149807
0.000147829
0.000168118
0.0145279
0.0247801
0.000187003
0.000147799
0.000147461
0.000148328
0.000148213
0.000165266
0.0170082
0.00669683
0.0463006
0.000151017
0.000146879
0.00742109
0.000173868
0.000160004
0.0716149
0.0340376
0.000148233
0.000167182
0.000159322
0.000150076
0.00993636
0.000148609
0.000156748
0.000150555
0.041807
0.000201321
0.000148398
0.0322583
0.000152186
0.000321691
0.000149473
0.0693157
0.000789803
0.000183918
0.00100132
0.000154577
0.000147516
0.000144637
0.000151208
0.000159484
0.000148483
0.000147138
0.000174758
0.000148541
0.000146115
0.000387404
0.000148953
0.000149711
0.000149586
0.000230526
0.000148558
0.000164442
0.000188812
0.000149745
0.000203461
0.000148093
0.000147763
0.000172036
0.000146517
0.000154303
0.000150042
0.000199002
0.000162904
0.000153416
0.000159157
0.000231208
0.000147196
0.000191471
0.000152644
0.00014731
0.000172391
0.000146923
0.000152604
0.000148245
0.000153734
0.000146292
0.000144358
0.000151574
0.000156942
0.000147846
0.000148303
0.00014818
0.000154226
0.000147189
0.000148053
0.000145413
0.000149834
0.000151526
0.000149772
0.000144662
0.000147558
0.000152263
0.000209569
0.000187091
0.0265538
0.000160173
0.000159951
0.000151555
0.000177107
0.050006
0.000151144
0.000147503
0.000144528
0.000151091
0.000146247
0.000210794
0.000152264
0.00014735
0.000149642
0.000160032
0.000151703
0.00018669
0.000160059
0.000187316
0.000152301
0.000156975
0.000146217
0.000154711
0.00014904
0.000159956
0.000147804
0.000158319
0.0402956
0.000146089
0.000147761
0.0473089
0.000175332
0.000148256
0.000148148
0.000151921
0.0739149
0.00017154
0.000186875
0.000149137
0.000144618
0.000147213
0.000147346
0.000234384
0.00014753
0.000148111
0.000146908
0.00014809
0.000163103
0.000151618
0.000170027
0.072508
0.000150152
0.00669702
0.000147145
0.000154402
0.000148714
0.0157338
0.000178009
0.000283609
0.0293974
0.000145251
0.00015236
0.000147652
0.000151864
0.000159172
0.000149577
0.000159744
0.000145904
0.000144638
0.000148257
0.000171143
0.000149884
0.000151711
0.000148135
0.000151402
0.042809
0.000147185
0.000149095
0.000147733
0.000147878
0.000163798
0.000184134
0.000159921
5.38486e-05
0.000163292
0.000155908
0.000148201
0.000144243
0.000149104
0.000149767
0.000213881
0.000147814
0.000148966
0.000191013
0.000147159
0.000152703
0.000150333
0.000192128
0.000148394
0.000153196
0.000163907
0.000159479
0.000151133
0.000147555
0.000774099
0.000169451
0.000149739
0.000163517
0.000147502
0.000146935
0.000147488
0.000152641
0.000315632
0.000154458
0.000149632
0.000150093
0.000149944
0.00014979
0.000171422
0.000147531
0.000145937
0.0289995
0.000146771
0.00693543
0.000211752
0.000157752
0.0815875
0.0242155
0.000155699
0.000172771
0.000148966
0.000172545
0.000149938
0.000148938
0.00016332
0.000148285
0.000152205
0.000814152
0.000149541
0.000147174
0.000162407
0.000285983
0.000148797
0.000145816
0.00763357
0.000177975
0.000146869
0.000165832
0.0113861
0.000146519
0.00014974
0.000145821
0.000147267
0.000144406
0.000146012
0.00231774
0.00155062
0.000149034
0.0587192
0.000144408
0.000147508
0.000240873
0.000148869
0.00837975
0.00017284
0.000150141
0.000145815
0.000145658
0.000175581
0.000151277
0.000155814
0.000149214
0.0314936
0.000149507
9.657e-05
0.000151012
0.000147394
0.000147238
0.0002351
0.000147497
0.000153685
0.000147501
0.000148278
0.0115324
0.000154647
0.000147605
0.000146595
0.0115393
0.000147296
0.000154971
0.000151025
0.000146258
0.035389
0.0798138
0.00014705
0.000148813
0.00015468
0.000144649
0.000147894
0.000147735
0.0154244
0.000147862
0.000147165
0.000156077
0.000433804
0.000170855
0.000149771
0.000159032
0.0151005
0.000164461
0.000147631
0.000147567
0.000197991
0.000149495
0.000147433
0.000156188
0.000147509
0.000146001
0.000150306
0.000145042
0.00016039
0.000147504
0.000147527
0.0226615
0.000146257
0.000150837
0.000148299
0.000149055
0.000159845
0.000147072
0.000147751
0.000267239
0.000149489
0.0739416
0.000151021
0.000149868
0.000149831
0.000180324
0.000147758
0.000147632
0.000147912
0.000150022
0.000155357
0.0625341
0.000147321
0.000160328
0.000394098
0.000164388
0.000149718
0.000147679
0.000149209
0.000149296
0.000147182
0.0349252
0.0214911
0.000148353
0.000156934
0.000158809
0.000158383
0.000148346
0.000145607
0.000156426
0.000175259
0.000331915
0.000145686
0.000149357
0.000148702
0.000146808
0.0591606
0.000161084
0.00014999
0.00014748
0.000146983
0.000148213
0.000108006
0.000154692
0.000148829
0.0113133
0.000235844
0.00019445
0.000165364
0.000147943
0.0001473
0.000175242
0.000168081
0.0517792
0.0272847
0.000152704
0.000153947
0.000149349
0.000151603
0.000148818
0.000149271
0.0264122
0.000145342
0.000147148
0.000174157
0.000149349
0.000176176
0.000150681
0.000191612
0.000156933
0.0001496
0.000151891
0.000155031
0.000166797
0.000165434
0.000168423
0.000149872
0.000171941
0.000150373
0.000147516
0.000148678
0.000149186
0.000148107
0.00015298
0.000170928
0.000160455
0.000148855
0.000149648
0.00014788
0.000147601
0.000171727
0.000147333
0.000150949
0.000208501
0.000145042
0.000168126
0.000181801
0.000148128
0.0372961
0.000166736
0.000149346
0.000204208
0.000148529
0.000149772
0.000148093
0.000147774
0.000149945
0.000152222
0.000148244
0.000217893
0.000149932
0.0001477
0.0001488
0.000160045
0.000161284
0.000147767
0.000153705
0.000147289
0.000161458
0.00014792
0.000157054
0.000146057
0.000150467
0.000145507
0.000147401
0.0652385
0.000145853
0.000170492
0.000147714
0.000150944
0.000146142
0.000161469
0.000148359
0.000167563
0.000148243
0.000200067
0.000149727
0.0542354
0.000145971
0.000151179
0.000149794
0.000148173
0.000147573
0.000152153
0.000148102
0.000170833
0.0135112
0.000167277
0.000152658
0.000159706
0.000147103
0.000160687
0.000174955
0.000147908
0.000155976
0.000168727
0.0545078
0.000181952
0.00164414
0.000155779
0.000148529
0.000149502
0.000154261
0.000152275
0.000164874
0.000145252
0.000151177
0.00018479
0.000149742
0.000147598
0.000154172
0.0798815
0.00015095
0.00015818
0.000175226
0.000149649
0.071918
0.000145386
0.000146832
0.000149257
0.000147537
0.0180454
0.000177945
0.0741955
0.000148228
0.000525466
0.0319684
0.000217641
0.000164679
0.000177371
0.000191375
0.000161718
0.000148132
0.000147535
0.000156618
0.0164069
0.000147069
0.00015655
0.0763386
0.00014751
0.000147254
0.00014758
0.00015024
0.000147524
0.000148686
0.000179613
0.00472343
0.00014853
0.00014783
0.0334156
0.0663856
0.000147135
0.000147629
0.000148944
0.000147292
0.000247828
0.00017794
0.000184766
0.000149704
0.000147225
0.000147429
0.000150135
0.00014821
0.000161307
0.000149778
0.080486
0.000147884
0.000148361
0.000162625
0.00014701
0.00016284
0.000165316
0.000151484
0.00744354
0.0662979
0.000148555
0.000147177
0.0273483
0.022079
0.000159841
0.000148422
0.000268135
0.000175858
0.00015359
0.000148058
0.000147783
0.000147292
0.00019186
0.000152583
0.000168691
0.000149772
0.045558
0.000304054
0.000147688
0.000147792
0.0001702
0.000148903
0.000146125
0.000153144
0.0526298
0.0534845
0.0519938
0.000150469
0.000174237
0.00016129
0.000145492
0.000147822
0.000149224
0.000190295
0.000149317
0.000147674
0.000174203
0.000148304
0.000171457
0.000148628
0.000148593
0.00014587
0.000148914
0.000196162
0.000149265
0.00014752
0.000166139
0.000164346
0.000189263
0.000149347
0.000178272
0.0633029
0.0738711
0.000150345
0.0169293
0.0140039
0.000147503
0.000144748
0.000149793
0.000150918
0.0467527
0.00015114
0.000148707
0.000149318
0.0657428
0.000160377
0.000150282
0.00014885
0.000147637
0.000164108
0.000146215
0.000146871
0.000160695
0.000150092
0.000149302
0.000147167
0.000238015
0.000147735
0.000149963
0.000148067
0.000149143
0.000185425
0.000149294
0.000150467
0.000148349
0.000154005
0.000206675
0.000149941
0.000187645
0.000154291
0.0487533
0.000146338
0.000151229
0.000160382
0.000178035
0.000162486
0.000149756
0.00138111
0.0208288
0.000149572
0.000147383
0.000223312
0.000148408
0.000149646
0.000146284
0.000149578
0.000169942
0.000149948
0.00014995
0.000165245
0.000156374
0.000157743
0.000157391
0.000150047
0.0622419
0.000151504
0.000212562
0.000147266
0.000174046
0.000160344
0.0719938
0.000152765
0.0538338
0.000149779
0.000155741
0.000148123
0.000148387
0.000147805
0.000190796
0.000160378
0.000171035
0.0193823
0.000148683
0.000184386
0.000156192
0.000147036
0.000157138
0.000158675
0.0636183
0.000147761
0.000155533
0.000163521
0.000151054
0.0001606
0.000149882
0.000144974
0.000149879
0.000186844
0.000148784
0.000147853
0.000146295
0.000146102
0.000147431
0.000147766
0.000148979
0.000147028
0.000148911
0.000149506
0.000153395
0.000157144
0.000147831
0.0521068
0.000148021
0.000479822
0.000159568
0.0477533
0.00016267
0.000155417
0.00865756
0.000161599
0.000189173
0.0646975
0.000163818
0.000149267
0.000146925
0.000150249
0.000186093
0.000147569
0.0525726
0.000147537
0.00742866
0.0601287
0.000174108
0.00015058
0.0350676
0.0442173
0.000150784
0.000147769
0.000149739
0.00015358
0.000144902
0.000145808
0.000167441
7.0827e-05
0.000148398
0.000147539
0.00014928
0.000235918
0.000176383
0.000148949
0.000153564
0.000179611
0.000149362
0.000148018
0.0471022
0.000149003
0.000147524
0.000577559
0.000151841
0.000148008
0.00513377
0.0810345
0.0466235
0.000147603
0.00015068
0.000240225
0.000146312
0.00014754
0.000149888
0.000159574
0.000148144
0.000148625
0.0001532
0.000161585
0.000176658
0.000146594
0.000147939
0.00014841
0.000147369
0.00014959
0.000145145
0.00018815
0.0001564
0.00014803
0.000147781
0.00014647
0.000147652
0.000149366
0.0557235
0.000158032
0.000145811
0.000147534
0.000160491
0.0668773
0.000148155
0.0001477
0.000148066
0.00014566
0.000332529
0.000170888
0.000147062
0.000148302
0.000158015
0.000171508
0.000149046
0.000149876
0.000152931
0.000148251
0.000155465
0.000149214
0.0372046
0.000161281
0.000148328
0.000154541
0.013477
0.000155741
0.000195105
0.00015338
0.000242066
0.000149789
0.000149612
0.000153867
0.000177072
0.000147662
0.000148216
0.000149592
0.00015075
0.00016963
0.000173521
0.00637858
0.000150258
0.000147765
0.00015598
0.000148078
0.000148073
0.0279697
0.000151467
0.000148066
0.000147794
0.000184292
0.000232195
0.000147754
0.000148354
0.000181781
0.000147573
0.00014858
0.000147634
0.000181537
0.000150779
0.000155469
0.0059745
0.000148923
0.000149037
0.0640494
0.000147203
0.000175607
0.000147168
0.000151213
0.000162291
0.000148206
0.000148464
0.000149978
0.000151586
0.00378831
0.000147506
0.000148798
0.000178505
0.000153615
0.000215967
0.0657725
0.000164019
0.000149362
0.000215694
0.000148044
0.00877344
0.000149033
0.000148146
0.000146911
0.0110888
0.000149363
0.000149163
0.000148978
0.000161628
0.0615368
0.000156116
0.000167319
0.000147787
0.000148799
0.000163387
0.000157061
0.00014682
0.000153766
0.000147525
0.073334
0.041476
0.000148822
0.000150375
0.000149441
0.00883145
0.000148954
0.008741
0.000147766
0.000147586
0.000147065
0.000149419
0.000152211
0.000149792
0.000147814
0.000148242
0.000146949
0.000185407
0.000147502
0.000153214
0.000153124
0.000161782
0.000147733
0.000153785
0.000150285
0.000148104
0.000150826
0.000160429
0.000149855
0.000147242
0.000154605
0.000147065
0.000184171
0.000150685
0.00017683
0.000148622
0.000148107
0.00014834
0.000179482
0.000162118
0.000146466
0.000153352
0.000177371
0.000149377
0.000146513
0.00015407
0.000149448
0.011898
0.000180599
0.000153136
0.0188984
0.00015067
0.000162173
0.000179923
0.000160798
0.000162422
0.00905248
0.00016002
0.000190754
0.000148319
0.000150568
0.000147425
0.000147989
0.000155402
0.000146856
0.000176657
0.000148092
0.000148237
0.000169062
0.000147592
0.000172548
0.000156244
0.000153583
0.000147551
0.000161148
0.0001788
0.000143877
0.000160057
0.0597504
0.000160701
0.000147391
0.000159852
0.000147779
0.000147003
0.00152693
0.000146872
0.000146399
0.000169746
0.000148002
0.000156751
0.000146987
0.00014785
0.0747525
0.00014749
0.000145901
0.000152991
0.000147617
0.000145858
0.000149649
0.000223415
0.000148719
0.000148429
0.00014558
0.000181696
0.000149388
0.000152692
0.000147648
0.000159391
0.000149811
0.000147697
0.00015025
0.000148545
0.000146382
0.000172718
0.000164094
0.000156938
0.000151206
0.000165936
0.000177647
0.000155032
0.000155493
0.000150321
0.075539
0.000147919
0.000148035
0.000147293
0.000149549
0.000159403
0.000147115
0.0272417
0.0320167
0.0010255
0.000148424
0.000153065
0.000161656
0.000145085
0.000167965
0.000163723
0.000259559
0.000177044
0.0525508
0.000177541
0.000196256
0.0437433
0.000156192
0.000151124
0.000153554
0.000146925
0.058263
0.000149762
0.000156204
0.000146728
0.000153224
0.000148148
0.0380067
0.0657408
0.000149298
0.0152258
0.000241397
0.000211159
0.000167945
0.000172164
0.000145908
0.0591956
0.000148057
0.0171467
0.0278479
0.000149304
0.000147778
0.000147835
0.000151017
0.000154413
0.000162
0.00019701
0.000148724
0.00014811
0.000153661
0.00014943
0.000148077
0.000154274
0.000146902
0.000148254
0.00019408
0.000172257
0.000148122
0.0545629
0.000151268
0.000149798
0.000151171
0.000205287
0.00014763
0.000146253
0.000183616
0.000186235
0.000147427
0.000153597
0.000282258
0.000170845
0.0430307
0.000146591
0.000197332
0.0621787
0.0733941
0.000148413
0.000147856
0.000175565
0.000154215
0.000162804
0.000149126
0.0721956
0.000169405
0.000194984
0.000148343
0.000147657
0.0155594
0.000209679
0.000148901
0.000149799
0.0516576
0.000147593
0.000145968
0.00014828
0.000151671
0.000149249
0.000156438
0.00014862
0.000152619
0.00014546
0.000161099
0.018026
0.000167627
0.000161414
0.0352677
0.000176111
0.000145804
0.00014698
0.000147559
0.000149877
0.000182696
0.000156471
0.000149466
0.000148099
0.000147737
0.00014519
0.000158053
0.000145356
0.000162693
0.000153057
0.000148713
0.0704547
0.0332427
0.000148555
0.0737764
0.000158945
0.000160444
0.00014974
0.000145651
0.0222973
0.00017574
0.000147303
0.000146311
0.000147637
0.000155151
0.000149727
0.000196194
0.000144673
0.000148259
0.00014818
0.053869
0.0567053
0.000145356
0.000148258
0.000178445
0.00019875
0.000152587
0.073158
0.0748103
0.000148159
0.000148848
0.000148702
0.000150512
0.0468479
0.000148103
0.000149886
0.000187137
0.000179247
0.000149359
0.000147637
0.000165748
0.000149881
0.000148363
0.000178678
0.000179584
0.0453651
0.000147703
0.000180567
0.000160817
0.000173206
0.000150678
0.000155469
0.000147494
0.000149712
0.000171393
0.000153944
0.000147842
0.000153118
0.0280209
0.000145009
0.000146993
0.000145013
0.000169372
0.000147521
0.000148443
0.000143989
0.000147531
0.000257751
0.0802893
0.000148931
0.000287214
0.0555949
0.0448767
0.000147527
0.000147995
0.000146833
0.000147475
0.00014866
0.000148901
0.000145409
0.000148416
0.0001464
0.000152286
0.0330703
0.00016028
0.000149415
0.00015945
0.000148045
0.000150737
0.000159153
0.000148817
0.000147037
0.000162206
0.000158829
0.000233662
0.000166813
0.000145184
0.0209928
0.000149952
0.000144624
0.000147543
0.000231775
0.000167316
0.00015013
0.000154129
0.000148363
0.000148494
0.000157886
0.000166221
0.000158801
0.0131189
0.000148418
0.000148038
0.000240796
0.00016113
0.000153351
0.000188445
0.000151091
0.000167255
0.000206384
0.000173282
0.0104233
0.00014735
0.000148052
0.000147429
0.000148193
0.000148518
0.000150787
0.000165479
0.000172494
0.0471926
0.000148348
0.0591248
0.00478481
0.000154627
0.000367563
0.000148898
0.000179728
0.022806
0.000147233
0.000182187
0.000146182
0.000258587
0.000149254
0.000199645
0.000147209
0.000194208
0.000165742
0.030063
0.0001469
0.000194432
0.000147095
0.000151146
0.000214025
0.000146853
0.0108123
0.0616153
0.000123211
0.00647926
0.000183405
0.0511231
0.000163267
0.000147984
0.00016321
0.000168379
0.049678
0.000148371
0.000147945
0.000150017
0.000166647
0.000148031
0.000148941
0.000148857
0.040564
0.0595119
0.000147821
0.0221919
0.000165479
0.000146093
0.000161838
0.000155282
0.0660639
0.000157607
0.00014692
0.000199331
0.000148356
0.000147407
0.000148467
0.000182823
0.000174419
0.0001474
0.00015459
0.00014863
0.000149714
0.000146459
0.0601344
0.000149896
0.00014655
0.00315554
0.000202969
0.000152638
0.00014734
0.0432148
0.000155886
0.000150908
0.000147967
0.000163529
0.00015113
0.000157065
0.000152968
0.00884332
0.000163348
0.000173929
0.000145044
0.000162075
0.000170058
0.000157723
0.000149306
0.072635
0.000149651
0.000197582
0.000147307
0.000149223
0.000161577
0.000197743
0.000151708
0.000154079
0.000148641
0.000160198
0.000175759
0.000184455
0.000155946
0.000149945
0.000147572
0.000155491
0.000183631
0.000147483
0.000167536
0.000147934
0.000147539
0.0348657
0.000147501
0.0647043
0.000147928
0.000154839
0.000178844
0.000147916
0.000157785
0.000188467
0.000182379
0.000147935
0.000182378
0.000150156
0.000149736
0.000147729
0.028171
0.0704114
0.000147427
0.00014764
0.000146937
0.000147118
0.000182147
0.0731737
0.000147884
0.000235505
0.000146239
0.000146487
0.000147211
5.10264e-05
0.000150151
0.00015172
0.000147608
0.000148008
0.000147856
0.000149685
0.000149706
0.000160074
0.00504264
0.00014651
0.000147844
0.00016066
0.00017437
0.000146664
0.0124326
0.000169416
0.00014693
0.000145842
0.000149891
0.00018785
0.00014679
0.000181531
0.000156951
0.000153157
0.000146876
0.000168259
0.000144708
0.000173185
0.000155673
0.000149305
0.00610461
0.000156856
0.000143944
0.000147238
0.0167329
0.000185496
0.00017915
0.000154387
0.000181345
0.000145987
0.0677451
0.000177713
0.000148197
0.0350693
0.0828044
0.000150832
0.000165745
0.000171118
0.000146865
0.070044
0.000148808
0.000156291
0.000157982
0.000148964
0.000148174
0.000163874
0.000147108
0.000147062
0.000147082
0.00136605
0.000147391
0.000147384
0.000146785
0.000147202
0.000147457
0.000149495
0.00017263
0.000161506
0.000152486
0.000149638
0.000363439
0.000148979
0.000146805
0.000147389
0.000146824
0.000148435
0.000147619
0.00015809
0.000182914
0.000149447
0.000159179
0.000162972
0.000146886
0.000155606
0.0556276
0.000149966
0.00014494
0.000148393
0.000167104
0.000149294
0.000149293
0.000152472
0.000153074
0.00138838
0.0131559
0.00014668
0.000146882
0.00014748
0.000166178
0.000159539
0.000146967
0.000155756
0.000168148
0.000148769
0.000154914
0.000148782
0.000179959
0.000214422
0.000150981
0.000174082
0.00015423
0.0421209
0.000149308
0.000147232
0.0716652
0.000171243
0.000152646
0.000200952
0.000168199
0.0195471
0.000162313
0.000200883
0.000154847
0.000154795
0.0187455
0.000154847
0.000195937
0.00016002
0.000182065
0.0362304
0.000149952
0.000148667
0.000147713
0.000195629
0.000144048
0.012135
0.000163884
0.0233919
0.000150493
0.000170689
0.000195483
0.000147447
0.000148824
0.000166727
0.000157565
0.000148472
0.000155713
0.000167475
0.000178124
0.000175841
0.000187211
0.0201255
0.000180048
0.000148652
0.000149281
0.0735424
0.000166555
0.000149863
0.000160839
0.0525424
0.000149018
0.000153006
0.000147488
0.000156439
0.000148102
0.00014858
0.000159925
0.000148613
0.000156715
0.0273365
0.0151662
0.000146008
0.000153879
0.00015625
0.000186683
0.000162245
0.000149513
0.000147331
0.000169688
0.00904555
0.000147506
0.000153314
0.00014841
0.0456773
0.000147119
0.000158142
0.000173386
0.00019641
0.0001498
0.000173353
0.000173923
0.00017261
0.000153819
0.000147969
0.079002
0.000146993
0.00015621
0.000148958
0.000158579
0.000145966
0.000146533
0.00014855
0.000174266
0.000147093
0.000147665
0.000147149
0.000149166
0.000147107
0.000148238
0.000179364
0.00644528
0.0586308
0.000154626
0.000148249
0.000157674
0.000152098
0.0538312
0.000149892
0.000175824
0.000145664
0.000147862
0.000149866
0.000161782
0.0731735
0.000147678
0.031926
0.000149176
0.000144749
0.00015079
0.0504425
0.000151105
0.000161475
0.0667034
0.00014989
0.00014883
0.0135133
0.000147504
0.00982265
0.00014847
0.000160609
0.0293805
0.000150828
0.000148514
0.000146844
0.0168647
0.000156091
0.000147241
0.000207115
0.000147603
0.000150644
0.000177682
0.0520364
0.000179041
0.0593178
0.00295099
0.000167215
0.000151311
0.00017687
0.000200592
0.000147939
0.000147467
0.000150281
0.00015726
0.000166971
0.000147795
0.000153513
0.000147221
0.000147595
0.0548691
0.000149458
0.0289724
0.000145451
0.000161846
0.000176941
0.000146631
0.000144705
0.0519231
0.065337
0.000171628
0.000148397
0.000153413
0.000173406
0.000146424
0.000162838
0.000181676
0.000165582
0.000160391
0.0271976
0.0424903
0.000144778
0.000148784
0.000145528
0.000149231
0.000151278
0.00015791
0.0120503
0.00014869
0.000147692
0.000169279
0.0330772
0.000145553
0.000260008
0.000146288
0.000187734
0.000173105
0.0799456
0.000178931
0.000163826
0.000164106
0.000145329
0.000144603
0.000200667
0.000153965
0.000148445
0.00030765
0.000147066
0.000148427
0.000145479
0.000169519
0.000181479
0.000238807
0.000173084
0.000157916
0.000157403
0.000149123
0.0448933
0.000208483
0.00015068
0.000147728
0.000147024
0.000185898
0.0815347
0.000159893
0.0682301
0.000150408
0.000146863
0.0379105
0.000147948
0.0632068
0.0327331
0.000146641
0.000157784
0.000173972
0.000152291
0.000159699
0.00014726
0.0491186
0.000155955
0.000175875
0.0118513
0.00875677
0.00015759
0.000158636
0.0001488
0.000183521
0.0572152
0.000151658
0.000152635
0.0483157
0.000162957
0.000166064
0.00014974
0.0149276
0.0151123
0.000168683
0.000148026
0.000156171
0.000147156
0.000307186
0.000177642
0.000161214
0.0241014
0.0389112
0.000145466
0.000190085
0.000148543
0.00166774
0.000168845
0.000156963
0.000155086
0.000309508
0.000143734
0.000177017
0.0143897
0.0603293
0.000150613
0.000148043
0.000146488
0.000169604
0.00031906
0.000190377
0.0578151
0.000186956
0.000164379
0.000147495
0.0472434
0.000179531
0.000156346
0.000178115
0.00653036
0.032798
0.0224992
0.0342317
0.0393285
0.0223909
0.000148371
0.00015619
0.000160506
0.000149011
0.0386236
0.000296781
0.000147961
0.0518569
0.000148753
0.000147833
0.000146342
0.00015967
0.000147078
0.0412102
0.000164433
0.000196607
0.000147824
0.000237772
0.000162731
0.000246575
0.0187771
0.000151066
0.000157269
0.000161244
0.000165332
0.000147071
0.000146551
0.000147135
0.035872
0.0001465
0.00014703
0.000193565
0.00015205
0.0545996
0.000148148
0.0617568
0.000147648
0.000148252
0.000147991
0.000148116
0.000157136
0.000152824
0.061833
0.000157549
0.00016503
0.0772945
0.000147209
0.0765914
0.000146708
0.0697059
0.0192711
0.0611583
0.000175832
0.000148057
0.0001498
0.0766049
0.000149258
0.000156203
0.000148621
0.000159397
0.0692964
0.000147028
0.000146952
0.000147463
0.000149746
0.011678
0.0491788
0.000147306
0.000144023
0.0454346
0.0775763
0.000147083
0.0621959
0.000149741
0.0819378
0.0614117
0.000178692
0.000195679
0.000218077
0.000167857
0.0323932
0.000182557
0.000148154
0.000145071
0.000146468
0.0779401
0.0627565
0.000150565
0.000155767
0.0336851
0.000147157
0.0260467
0.000147972
0.000148832
0.000145941
0.00137671
0.000180423
0.00014687
0.0425015
0.000149657
0.00960893
0.0745723
0.000146726
0.000148625
0.000186063
0.000147655
0.000149158
0.000146703
0.0706816
0.00015801
0.000148044
0.000148761
0.0801164
0.000147975
0.000162221
0.000147761
0.0549192
0.00014855
0.000172483
0.000161734
0.0431404
0.0450075
0.000158927
0.000183439
0.000172799
0.00014836
0.000169931
0.0551808
0.00014698
0.000179899
0.000146425
0.000235453
0.000147324
0.0631119
0.0848558
0.000170401
0.0321448
0.0439306
0.000160532
0.000150653
0.000265492
0.000147341
0.0623431
0.00015353
0.000319795
0.00014752
0.000158493
0.000166276
0.000157128
0.000148608
0.000147933
0.000149239
0.0131889
0.000176058
0.0359407
0.0507843
0.000155291
0.00014561
0.000164661
0.0235274
0.000158779
0.000147151
0.000148394
0.00128805
0.00107666
0.0165148
0.0259073
0.000162823
0.000149053
0.000146497
0.000170852
0.000168375
0.000286745
0.000147846
0.000148322
0.0108653
0.000174011
0.000149894
0.00017634
0.000300452
0.000183621
0.000146621
0.000163064
0.00023628
0.000325071
0.0601669
0.000201276
0.000147489
0.000149777
0.000150426
0.000149891
0.000148075
0.000148474
0.000158944
0.000178962
0.000161496
0.000157726
0.000156708
0.000149179
0.000154235
0.00015074
0.000159828
0.000158511
0.000147235
0.000156607
0.000147679
0.000146749
0.000149524
0.000148697
0.000206387
0.000145718
0.000167443
0.000275382
0.000189076
0.0669033
0.0351412
0.000154024
0.000149533
0.000147249
0.0787788
0.000148872
0.000144409
0.000149081
0.0735698
0.000157599
0.000161494
0.000245399
0.000151145
0.000148079
0.000157795
0.000147115
0.000163168
0.000149894
0.000159397
0.000146962
0.000147897
0.000150431
0.000151323
0.000154931
0.000275649
0.00016492
0.000174014
0.00017249
0.000190683
0.000165353
0.000174203
0.000148644
0.0296681
0.000152608
0.000154685
0.000147929
0.000150839
0.000175477
0.000147794
0.000167406
0.00600389
0.000156292
0.000185936
0.000178681
0.000164643
0.000168939
0.00016625
0.000147579
0.000157048
0.00014847
0.000171611
0.000166825
0.0768513
0.000146446
0.000166446
0.000154376
0.0561857
4.06364e-05
0.000168403
0.00014852
0.000168686
0.000145034
0.00017609
0.000150112
0.0671065
0.000145849
0.000153909
0.000147949
0.000160644
0.000192603
0.000158432
0.0045248
0.000148128
0.000160837
0.000166298
0.000147945
0.00649192
0.080807
0.000192441
0.000173979
0.000167648
0.000147829
0.000147208
0.0139376
0.000176587
0.000146946
0.000150414
0.000153099
0.000147718
0.000211511
0.000146945
0.0750166
0.000186347
0.000191278
0.000161634
0.000149188
0.000145818
0.000147556
0.000182114
0.000167441
0.000154569
0.0287421
0.000149078
0.000150747
0.000155076
0.0726592
0.000145302
0.000229809
0.000143723
0.0653168
0.000147246
0.000147354
0.000159688
0.000147711
0.000148914
0.00018782
0.000148512
0.000149094
0.000147219
0.00016557
0.000153985
0.0442651
0.000147832
0.000148565
0.000146784
0.000188388
0.00014669
0.000155949
0.000166989
0.0755721
0.0299982
0.000546642
0.000210309
0.000214653
0.000164638
0.000165712
0.000155015
0.000149647
0.000148697
0.0741328
0.000164721
0.000144768
0.000147628
0.000147512
0.000157158
0.000172516
0.000149648
0.000156795
0.000186074
0.000195012
0.000174078
0.000147626
0.00014955
0.0607502
0.000152553
0.0001461
0.073631
0.0352206
0.00014624
0.000144222
0.000154941
0.000148222
0.000159746
0.000149627
0.0193558
0.000149801
0.0446483
0.000148022
0.0124907
0.000157998
0.000147973
0.000176469
0.000145608
0.000148904
0.000149744
0.000160434
0.000230592
0.000147445
0.000193261
0.000149896
0.000149268
0.000170459
0.000147372
0.000148747
0.000148557
0.00014437
0.000148028
0.00014509
0.000149023
0.00157339
0.000146989
0.000147128
0.000165488
0.0001458
0.000147539
0.00014903
0.000148789
0.0691797
0.000188248
0.000148235
0.000151409
0.000148335
0.000149895
0.000207859
0.000148216
0.000147707
0.00936912
0.000147598
0.000168006
0.000174849
0.000160717
0.000148041
0.000199204
0.000147791
0.000227772
0.000165414
0.000148133
0.0239493
0.0371295
0.000155659
0.00017215
0.000147329
0.000147453
0.000162366
0.000200974
0.00014711
0.00014685
0.000148886
0.000164413
0.000148561
0.000160704
0.000148616
0.000167469
0.000113176
0.000161317
0.000204122
0.000147368
0.000155377
0.000157502
0.000162052
0.000146015
0.000147719
0.000150351
0.000160898
0.000166719
0.000149233
0.000187065
0.000148515
0.0705913
0.000144798
0.000146463
0.000174981
0.000149795
0.000179325
0.000184522
0.000161531
0.000148786
0.000150354
0.000148422
0.000161815
0.000148523
0.000163724
0.000155306
0.000148712
0.00014622
0.000155379
0.0714232
0.000159197
0.000164068
0.0747303
0.0103815
0.000161747
0.000145029
0.0670225
0.000147956
0.000152082
0.000149414
0.00018551
0.000148018
0.000160231
0.000155496
0.000151399
0.000148699
0.000153805
0.00014927
0.00017427
0.000147459
0.000149166
0.000147997
0.000156773
0.000343432
0.000148128
0.0171215
0.000167521
0.000144327
0.0663274
0.000190449
0.000148003
0.000151569
0.000184661
0.000146869
0.00014762
0.0643547
0.000148014
0.0648667
0.00015362