/*--------------------------------*- C++ -*----------------------------------*\
| =========                 |                                                 |
| \\      /  F ield         | OpenFOAM: The Open Source CFD Toolbox           |
|  \\    /   O peration     | Version:  v2012                                 |
|   \\  /    A nd           | Website:  www.openfoam.com                      |
|    \\/     M anipulation  |                                                 |
\*---------------------------------------------------------------------------*/
FoamFile
{
    version     2.0;
    format      ascii;
    class       volScalarField;
    location    "550";
    object      p;
}
// * * * * * * * * * * * * * * * * * * * * * * * * * * * * * * * * * * * * * //

dimensions      [0 2 -2 0 0 0 0];


internalField   nonuniform List<scalar> 
10042
(
0.0238079
0.0228533
-0.0251087
-0.00549785
-0.462124
0.0214032
-0.32686
-0.302137
-0.0184354
0.0129758
-0.475563
-0.00582138
-0.00561027
-0.00585979
0.0548327
0.0194787
0.0195463
0.0134814
0.0236974
0.225189
0.00874004
-0.225268
-0.00498844
-0.00379079
0.022847
-0.0839402
0.0252407
0.0174433
-0.00899278
0.0100173
0.0270741
-0.518076
0.0129027
-0.00879322
-0.0633332
-0.00337792
-0.0801107
-0.0892402
-0.00313936
-0.007493
0.247808
0.0461564
-0.326883
0.023952
-0.468081
-0.13551
0.0410151
-0.135731
-0.0750608
-0.0777142
0.0118534
-0.027848
0.0580206
-0.0355464
-0.080503
0.0211415
-0.00997935
0.0406134
-0.00932432
0.0556327
0.0252805
0.0249864
-0.0647497
-0.0241446
0.0567811
-0.0122274
0.0495466
0.218634
-0.401306
0.0154386
-0.0345218
0.254263
0.0253348
0.143134
0.0493397
-0.0040599
-0.459378
0.024195
0.103293
-0.340067
-0.0721818
-0.4519
0.00646861
0.0446588
0.0500943
0.0169227
0.0224171
-0.239766
0.0340479
0.0218513
-0.022266
-0.469244
0.0159195
-0.0272583
0.0115766
-0.00262447
0.0192166
0.00410216
-0.00715976
-0.0147346
0.0132366
-0.22341
-0.299716
0.0167175
0.0250695
-0.0774635
0.0274611
0.0190015
0.00879975
-0.0107656
0.000455015
0.0111195
-0.0350282
-0.399703
0.0560074
0.0147905
0.0329626
0.0242731
-0.00325665
-0.52247
0.034134
-0.294523
0.0194881
0.0308087
-0.219355
0.007226
-0.298266
-0.0783288
-0.0677737
0.0208632
0.104308
0.0415033
-0.5024
-0.258186
-0.0137581
-0.138337
-0.526259
-0.0225932
-0.143402
-0.253302
0.0315473
0.0335036
0.0315943
-0.264055
-0.0243726
0.011514
-0.154522
-0.0147899
0.00405461
-0.00763968
-0.0206511
0.0124433
-0.355969
-0.523009
0.023845
-0.00555757
0.0707412
0.0253798
-0.138577
-0.525248
-0.452108
-0.23411
0.0278568
-0.0202308
0.00175182
0.0409056
0.00659449
-0.512403
-0.519795
-0.519483
-0.034463
0.00952044
-0.455647
0.203221
0.0790626
-0.272853
-0.377904
0.0218448
0.22465
-0.0679224
0.0729395
-0.518675
0.0500613
-0.0758678
0.0467348
-0.52357
-0.278348
-0.00913696
-0.435751
-0.0478395
-0.117422
0.0337562
-0.359709
-0.446712
-0.200735
-0.389899
-0.0644358
0.0266116
-0.00530048
-0.0221165
0.104778
-0.0104759
0.00937221
0.175009
0.0507098
-0.00645251
-0.173908
0.0238897
0.0141746
0.0219057
-0.380668
-0.00591713
0.015159
-0.176193
0.0685201
-0.28414
0.0460798
0.0175163
-0.178647
0.00342034
-0.0386618
0.0697897
-0.268768
-0.0916127
0.0674521
-0.0866209
-0.284371
0.0131352
-0.259536
-0.0353544
-0.0191624
0.0800896
0.0100671
-0.034495
-0.0257596
-0.0111641
-0.00445073
-0.00621542
-0.0466005
-0.0460445
0.0281275
0.0210617
0.00212179
-0.0346268
0.0143901
0.0266793
-0.0030147
0.0240008
-0.0347202
0.013331
-0.00517431
0.0148911
0.0156276
-0.288603
-0.235709
-0.434026
0.0853924
0.0638559
0.0548119
-0.146524
-0.282992
-0.0445993
0.0274402
-0.00606437
-0.0196098
-0.00412465
-0.23008
-0.0440593
0.0215834
0.0217225
0.113698
-0.0357411
-0.180729
0.0693126
-0.269979
-0.0486923
-0.0446753
-0.00305072
-0.0596562
-0.0252354
-0.0719153
0.0288613
-0.0839079
-0.504515
-0.0059882
-0.0216274
-0.290298
-0.1414
-0.00891199
0.0259757
0.0152989
-0.258831
-0.158483
-0.270766
0.0118996
-0.00530712
0.0126935
-0.0186481
-0.281788
0.0245418
0.0250366
0.0101851
0.0464423
-0.0845547
0.0447101
-0.145967
-0.386442
0.0547444
-0.331384
0.0146364
-0.0578797
0.0254127
-0.520228
-0.223702
-0.41767
-0.372104
-0.00482655
-0.0444436
0.0147678
0.0324293
-0.0871904
0.0166974
-0.0608999
6.4642e-05
-0.00637242
0.0233498
-0.15373
0.0202151
-0.0453247
0.0410677
0.0427412
-0.392551
0.0149981
0.0239394
0.00938377
-0.0234503
-0.0924191
-0.202385
0.0538023
-0.322203
-0.0869648
-0.0718861
0.0417467
-0.00604308
-0.0271246
0.013663
-0.308881
0.0282129
-0.011496
-0.107412
0.0100795
0.0269203
0.044417
-0.112646
-0.0265701
0.0664448
-0.0646857
-0.0556443
-0.0245409
0.028252
-0.32839
-0.160828
-0.0349168
-0.0917709
0.0156113
0.0100052
0.0152024
0.0296085
-0.400223
-0.0451239
0.0159037
0.0525707
0.0138623
0.0201719
0.206414
0.0270714
-0.0121432
-0.525877
0.00669726
-0.309358
-0.310711
0.140667
-0.250999
-0.427767
-0.00572605
0.100071
0.0243832
-0.0823272
0.0211392
0.0419976
-0.129404
0.0170864
0.0345139
-0.2154
-0.0050958
0.00903398
0.204632
-0.0853702
-0.0115216
-0.0143615
-0.518269
-0.228459
0.0095882
0.226515
-0.41171
0.00283836
0.0159484
-0.00846115
0.0188068
-0.00633278
-0.00592133
-0.331182
-0.303452
0.0424075
-0.396804
-0.00566162
0.0245959
-0.369246
-0.0297154
-0.316885
-0.164536
0.0469939
-0.0128831
-0.0139261
-0.14572
-0.0353965
-0.00128514
0.0183675
-0.472279
0.0665888
-0.435316
0.0518646
0.0120647
0.014253
-0.348045
0.0128372
0.107665
0.0202323
-0.0257106
-0.523032
-0.0653471
0.0327496
-0.000252372
-0.524532
0.0198803
-0.0671145
-0.0150368
-0.00341455
-0.38869
-0.258417
0.00844372
0.0539913
-0.0468371
-0.0050885
0.0190697
0.0322658
-0.524902
0.0308446
-0.00579062
0.0298371
-0.291847
-0.167595
0.0140079
-0.0678938
-0.401136
-0.0865224
0.0356119
0.0279876
-0.260584
-0.0338071
0.012012
0.107388
-0.019823
-0.00555468
0.0715124
-0.00704678
0.0277197
0.0279444
0.0132447
-0.473881
0.00250881
-0.0330489
0.0162797
0.0174307
-0.0632954
0.00865886
-0.0224195
-0.415971
0.0131163
-0.353331
-0.0435665
0.013365
0.0130779
-0.24151
0.0307561
0.0330463
0.0100347
-0.0359242
0.0566198
-0.335258
0.0206295
0.0358067
-0.0276495
-0.0846256
0.0149822
0.0314261
-0.0290861
0.0172603
0.0163811
-0.350054
-0.525644
0.0171261
-0.0777476
-0.0679716
-0.0660446
0.0506868
-0.0017167
-0.273916
-0.151334
-0.0564467
-0.0123595
-0.0302371
-0.0287505
0.00702262
-0.443371
-0.0821444
-0.0359818
-0.00918074
0.00168701
0.0489609
-0.283869
-0.0663404
0.0253615
-0.524775
-0.049733
-0.164494
-0.0860243
0.019089
-0.0136776
-0.0685866
-0.145834
-0.360027
-0.511083
0.0690195
0.111579
0.0157224
-0.0444946
0.0527399
0.0158794
-0.458883
-0.00330114
0.0151255
-0.124708
0.0174891
-0.207674
-0.0416298
-0.211743
-0.0215602
0.0221393
-0.0448227
-0.0655392
-0.0559938
-0.0884232
-0.0114808
0.0214282
-0.0738019
-0.022281
-0.00115816
0.0138445
-0.0273007
0.0289867
0.0698097
-0.166821
0.148332
0.0257621
0.0140688
0.00987054
0.0321071
0.121043
0.00926385
-0.010518
-0.21627
-0.00670517
-0.146554
-0.0699382
0.0264111
-0.524847
-0.11909
0.0186614
-0.291929
-0.0276285
0.0143835
0.0434222
0.0301522
0.0193385
-0.0466794
0.0501262
-0.0511365
0.0289975
0.0308247
-0.0147564
-0.0682177
-0.0997984
0.0312908
-0.0526188
-0.0129678
-0.0856391
0.0432587
-0.0183904
-0.0127839
0.0778671
-0.0133306
0.0144708
-0.356755
-0.00799056
0.126273
0.032276
-0.0401853
0.00179022
-0.0961807
0.0164084
-0.123127
-0.0101699
-0.285845
0.020448
-0.314993
-0.0146917
0.0442462
0.0231468
0.0470256
0.0159474
-0.0451077
0.0286166
0.265579
-0.500845
-0.199424
-0.0537853
0.0498551
0.0076743
0.00687211
-0.134043
0.0125485
0.101105
-0.0120082
-0.357461
-0.0642897
-0.459494
-0.0692732
0.0164984
0.0166589
-0.056232
-0.0479501
-0.0563786
-0.00454125
-0.0282332
-0.231049
0.0123791
0.0324261
-0.0542033
-0.357485
0.0421915
-0.0642475
-0.0637397
0.0222778
-0.339606
-0.00432762
0.0089739
0.00820869
-0.0200192
-0.521045
-0.135523
-0.36037
0.0103441
-0.436966
-0.517808
-0.303136
-0.0578369
-0.147481
-0.254305
-0.0250191
0.041753
0.0207225
0.109017
-0.511601
0.00580443
0.0310847
-0.35283
0.0278756
0.013246
-0.000574477
0.024132
0.0163279
-0.0276475
-0.233348
-0.401174
-0.0267327
0.0172464
-0.499951
-0.358455
0.00835842
0.0349722
0.0119098
0.0195934
-0.380133
-0.131977
-0.1502
0.0275593
0.0133676
-0.0205213
0.0752194
0.0250795
-0.0917435
0.0508375
-0.399067
0.0199368
0.0132504
-0.0657433
0.00597479
-0.0681674
0.072138
-0.0432047
-0.512747
-0.355015
0.0182549
0.0159938
-0.335326
-0.48819
0.000981063
-0.0266838
-0.306972
0.128279
0.102305
0.0410264
0.0094829
0.00921983
-0.205494
-0.0525151
0.153244
0.0147917
-0.391091
-0.388166
0.0315373
0.0237856
0.261057
0.0237645
0.00139251
0.00599974
-0.479257
-0.355199
-0.358263
-0.0322886
-0.147711
-0.0228583
-0.00268014
0.00206288
0.024055
-0.210859
0.0147797
0.0306341
-0.14489
0.0489901
-0.173089
0.0114139
0.0253336
-0.000202089
0.0255947
-0.251149
0.0149476
0.0156445
-0.123043
0.030176
0.0117676
0.0180658
-0.213963
-0.354483
-0.355581
0.0494283
-0.526001
-0.522003
0.0276051
-0.00538568
0.03245
0.0720215
-0.353114
-0.0175002
0.0136826
0.0152384
-0.357343
0.0076841
-0.0310295
0.0136769
0.0349827
-0.0994962
0.00209188
0.00392362
-0.0831961
0.0253842
0.0239746
-0.015487
0.00772813
-0.0208797
0.0201738
0.0292977
0.013863
-0.262138
0.0178106
0.0379092
0.0270234
-0.0619453
0.119619
0.0146173
0.0122414
-0.0400182
-0.355706
-0.00470696
-0.0239966
-0.0799715
-0.21359
0.200332
0.051504
-0.467969
-0.29327
0.0599437
-0.000627961
-0.303384
0.0274446
0.0164375
-0.000936776
0.0161378
-0.150162
0.0122598
0.0199343
0.084607
-0.0195426
-0.00495687
0.0777995
0.0703704
-0.38234
-0.0459633
-0.02176
0.0184864
-0.127802
0.000314507
-0.357475
-0.0545441
-0.449218
0.0152278
-0.0478199
0.0111936
0.0159118
0.0317942
-0.204894
0.131002
-0.0663898
-0.44812
0.0143395
-0.392808
-0.0455738
-0.00980155
0.138478
-0.0884746
-0.356725
0.0242349
0.0606676
0.0375678
-0.0131228
0.156479
0.0140286
-0.00443457
0.0136848
-0.115352
0.0233384
0.0132682
8.08768e-05
0.000733595
0.0148751
0.0179232
-0.0155653
0.0129058
0.0242078
0.0665205
0.00279626
0.0725046
0.0308751
-0.355316
0.0124613
-0.425415
0.0963456
-0.368816
-0.103541
-0.0467441
-0.520668
-0.102855
-0.142392
-0.350403
-0.0995847
0.0154059
0.0101899
0.00633297
-0.268789
0.000488746
-0.505242
0.0108466
-0.482638
-0.307968
-0.0602454
-0.0406464
-0.525918
-0.384842
0.0804577
0.0307718
0.0229563
-0.0527996
-0.00462228
-0.00143381
-0.128924
-0.121186
0.0270699
0.00161553
0.0645896
-0.351448
-0.0723561
0.0220372
-0.0377397
-0.20697
0.0170332
0.0178913
-0.508133
0.0300727
0.0238319
-0.282639
0.0121938
0.0454174
-0.517725
-0.287846
-0.52555
0.0313713
0.0370127
-0.300726
-0.000244077
-0.00868857
0.0196186
-0.0551292
0.0245853
0.0113151
-0.035066
0.197074
-0.0118782
0.00466048
0.040764
0.0277845
-0.00817382
0.0309487
-0.00358757
-0.246405
-0.00154294
0.0247094
0.0269744
0.0029449
0.0112612
-0.0234908
-0.481621
-0.0804172
-0.0143602
0.0278003
0.139662
-0.357442
0.02832
0.0112331
0.0289617
-0.0138504
-0.454486
-0.070354
-0.00393465
0.0105462
-0.0854666
-0.0797601
0.0255443
0.0208116
0.0127559
-0.0222972
-0.0627725
0.0330903
-0.30599
-0.0823068
0.0257015
-0.0563108
-0.463191
0.0516845
-0.213102
-0.0265359
-0.300324
0.0157206
-0.0297054
-0.0607882
-0.125762
0.0302479
-0.0224351
0.0184017
-0.0387823
0.14895
-0.113422
-0.154083
-0.0388182
0.0095893
0.0137295
0.0232099
0.0258799
-0.313903
0.0119066
-0.00921224
0.03026
-0.0876496
-0.382034
0.00910511
0.00311738
-0.193236
-0.0215335
0.0269969
0.0356292
-0.18632
-0.0356069
-0.0634141
-0.507497
0.0186254
0.0242594
-0.352706
0.0100663
-0.0120608
0.00604293
-0.0276391
-0.0346266
0.0384332
0.0142074
-0.0302284
-0.0455433
-0.467955
0.0267942
0.0134064
0.0106071
0.06483
-0.268293
-0.445966
-0.0716302
0.0163514
-0.353044
-0.0245328
-0.386305
0.0237442
0.000949473
-0.00616932
-0.524526
0.0163327
0.0343566
0.0256946
-0.0956047
-0.34722
-0.0106145
-0.13806
0.0250548
0.0138193
-0.106429
-0.061152
0.00839772
-0.0508863
0.0254116
-0.359633
-0.507261
0.0230885
0.0737078
0.0186718
-0.174209
0.021422
-0.504512
0.0318103
-0.0196701
-0.00421422
-0.022897
-0.0507901
0.0126144
0.0268916
0.0503774
-0.306346
-0.192173
-0.00551742
-0.0570055
-0.0511653
-0.0185689
-0.0212695
0.10634
-0.019804
0.0429014
0.0806324
-0.0657603
0.0126943
0.0100204
0.0475193
-0.0144862
-0.257132
-0.0237252
-0.178216
0.0425793
0.0257862
-0.023264
-0.0759572
-0.0577288
0.00321071
-0.0582481
-0.170952
0.0344505
0.00351603
-0.05385
0.0121993
-0.526344
-0.106615
-0.013658
-0.51269
0.0742368
-0.0946562
-0.212855
-0.0146694
-0.065501
-0.519796
-0.0575556
-0.196298
-0.0224152
-0.0340375
0.00293654
0.0441916
-0.0699781
-0.00408187
0.139454
0.0114909
0.0393691
-0.113143
0.0283764
-0.127014
-0.0472559
-0.00407415
0.00988333
0.0885361
-0.0994379
-0.00729621
-0.0894603
-0.507239
0.177904
-0.020067
-0.0592816
0.011906
-0.00493831
-0.431815
0.00954279
0.00352047
-0.144475
0.0188691
-0.0645966
-0.00996311
0.0194962
-0.326816
-0.00726257
-0.00554918
-0.039473
0.0321361
-0.0141812
0.0124504
-0.445382
0.0399266
0.0134272
-0.0120735
-0.159278
0.0588137
-0.021101
0.035621
0.00776183
0.021422
0.0311551
-0.0107715
0.0256532
0.00337267
-0.0982411
-0.105463
-0.0568112
0.0736364
-0.124687
-0.177141
0.101573
0.0996588
0.0515993
-0.350255
0.0433874
-0.0040503
0.00891616
0.012289
0.0295081
0.00640107
-0.396403
-0.495237
-0.324245
0.0142955
-0.0415142
-0.0440841
-0.010427
0.13829
-0.0500028
-0.367476
-0.121666
-0.48935
-0.17749
-0.219233
-0.354015
-0.0226934
-0.0442581
-0.0275487
-0.000957519
-0.352115
-0.0264356
0.0864351
0.00644352
0.00974573
0.0237169
-0.443184
-0.352218
0.0139457
-0.524023
-0.3774
-0.178133
-0.136221
-0.175339
-0.00521832
-0.491822
0.0217499
-0.336925
-0.4947
0.0143301
0.025631
0.0122656
0.0485237
-0.0563134
-0.101557
-0.250064
0.0141518
0.0240338
-0.0490678
-0.0312043
0.010957
-0.00069527
0.0106436
0.0253078
-0.110073
-0.174663
0.0232675
-0.344618
-0.0416051
0.0236318
0.0832033
-0.298111
0.0338135
-0.000271448
-0.223803
-0.26333
-0.0178264
-0.0387784
-0.370466
-0.156467
-0.480892
0.00407594
-0.192293
-0.393386
-0.421854
0.0181449
0.0301647
-0.127518
0.0402211
-0.0694924
0.0313682
-0.466574
-0.143293
-0.26784
0.0185636
0.0109035
-0.524774
-0.122182
0.0217199
0.024083
-0.516269
0.0321108
-0.0131817
-0.0222401
-0.0470616
0.0140845
0.0913811
0.0383418
-0.0508875
-0.00540999
-0.0918945
-0.497317
-0.129142
-0.0996516
-0.39835
-0.196168
-0.00734858
-0.00423339
-0.00486172
0.0122368
-0.251387
0.0967821
-0.0285643
0.0195457
0.0305523
-0.00336662
0.0523824
-0.00473511
0.0568792
-0.0526594
0.0164725
-0.352317
-0.441394
0.0160413
-0.347139
0.0287212
-0.077223
0.0234334
-0.00769452
-0.519304
-0.190985
0.0108537
-0.00127706
0.034983
-0.0630822
0.0154493
-0.183229
-0.00700775
0.0259148
-0.00457674
-0.351526
-0.513075
-0.0129001
0.0506443
-0.200085
-0.156297
0.0723087
-0.331014
-0.453046
-0.0214002
0.0132932
0.0442412
0.0408717
-0.354828
0.024392
0.0148181
-0.274348
-0.216943
0.024165
0.0349487
0.243181
0.0144047
0.0253126
-0.231403
-0.181426
-0.518256
0.0108816
-0.0755336
0.0815512
-0.132168
0.0747554
0.00798629
0.0208554
-0.00579982
0.074676
0.00281704
0.0245847
-0.0227067
-0.509172
-0.00928289
0.00852805
-0.00998207
-0.111343
0.0189224
0.0130324
-0.00646566
0.0209096
-0.381686
-0.422967
0.0436885
-0.320569
-0.4228
-0.501433
0.0246129
0.0413972
0.00894338
0.025567
0.0251702
0.0223059
-0.00395332
0.0128657
0.00351493
0.0711606
-0.405801
-0.0133567
-0.183289
-0.0778907
0.0175671
0.0430546
-0.0469055
0.0433266
0.0131667
-0.0524479
-0.0378311
-0.372432
-0.11819
-0.0124819
-0.423817
0.00662561
-0.00909793
-0.00684948
-0.27947
-0.127431
0.0731156
-0.0315507
0.0277708
0.0188581
0.0772693
-0.113645
-0.0545018
-0.330218
0.0188477
0.00981905
-0.371519
-0.0408002
-0.00068071
-0.231869
-0.0415992
-0.0829742
-0.272849
-0.181762
-0.527471
0.0030808
-0.0203142
0.0125097
0.0279769
0.0272295
-0.0227749
-0.119046
-0.0657862
-0.519797
0.0154532
-0.341219
-0.366005
-0.0442169
-0.406983
0.0305618
-0.220757
-0.523757
0.010463
-0.201999
-0.0154464
0.0301284
0.0144867
-0.254489
0.0172008
-0.318399
-0.0838267
-0.449779
0.00945677
-0.242369
-0.0184133
-0.0432661
-0.258299
0.00890742
-0.523191
-0.423853
-0.195912
-0.372243
-0.187836
-0.503233
-0.0990579
0.0273929
-0.0474055
-0.140286
-0.287264
0.0178159
0.00958127
-0.0280226
-0.132056
0.0426353
0.0363886
0.0217412
-0.520535
-0.35563
0.030528
-0.380164
-0.0363088
0.000653204
-0.06494
0.0265676
-0.343157
-0.0462528
-0.00246144
0.16368
0.0274282
0.0116053
0.0137666
-0.245765
-0.167401
-0.0172152
0.0423657
0.0270254
0.0145583
0.0039818
-0.520457
0.021995
0.00435754
-0.272223
-0.26069
-0.0531927
-0.00827067
-0.352127
0.0510021
0.0388321
0.0174098
0.050662
-0.0421087
-0.0664734
-0.010068
-0.32937
-0.0652962
-0.161634
-0.0120653
-0.0539928
-0.0776538
-0.0653584
0.0378028
-0.365201
0.0123072
-0.196072
0.0203985
0.0235389
-0.0516485
-0.246669
-0.0464026
-0.0626351
0.0163896
0.0234181
-0.165975
-0.134414
0.00864727
0.0154985
0.00925013
0.103603
-0.122131
0.0198543
-0.12586
0.0178147
0.0240309
-0.451929
0.0262536
-0.513841
0.0444173
0.0963289
-0.141369
0.0215432
-0.0775818
-0.10873
-0.223544
0.0119864
-0.1155
-0.0380294
0.0187081
0.0279835
-0.524609
-0.355593
0.0232975
0.0349931
-0.017792
0.0065488
-0.200312
-0.357042
0.016768
0.0578188
6.78469e-05
0.0041479
0.0153839
-0.278672
-0.0082263
0.0180123
0.0281291
0.00125593
0.0313946
0.0131741
0.0138131
-0.0957424
-0.430898
-0.015995
0.0208357
0.181647
-0.187234
0.00595659
-0.332943
-0.155234
0.00353746
-0.0142979
-0.0305773
-0.192017
-0.00753342
-0.126337
-0.043181
-0.042489
0.00375513
-0.137766
-0.00688322
0.00941248
0.0230353
0.0363772
-0.281164
-0.308842
-0.00745202
0.0176493
-0.524434
-0.234541
-0.175138
-0.0424334
-0.131196
-0.0149112
-0.451782
-0.08103
-0.0211601
-0.350181
-0.275647
0.0325545
-0.12341
-0.153825
-0.00269275
-0.404413
0.0347831
-0.0739855
-0.0650564
0.0278267
0.0107541
0.0103133
0.0142549
0.00780109
0.013338
-0.325175
0.00724239
0.00787369
-0.00345648
0.0156442
0.00721953
0.0183851
-0.124724
0.200397
-0.0492879
0.018692
-0.396176
0.0207461
0.00430619
0.0227477
-0.0173708
0.0251439
0.00949446
-0.0804167
-0.18126
0.0240857
-0.0910068
0.0900574
-0.0091496
0.0178411
-0.3549
-0.0184895
-0.00583922
0.022007
0.206188
0.0183952
0.0135807
-0.00916419
0.0161176
-0.324424
-0.522574
0.00592068
0.00621167
0.0169433
0.0593299
-0.00586997
0.00519941
0.0862942
-0.0788726
0.0329756
0.0552088
0.0256759
-0.235029
-0.193341
-0.0428628
-0.129918
-0.0269869
-0.43904
0.0234689
0.0162627
-0.439556
0.0524435
-0.0229448
-0.175091
0.172349
-0.500325
0.0508161
0.208996
-0.067156
-0.0552478
-0.524214
0.0250534
-0.13168
-0.0633393
-0.250282
-0.431862
0.0216955
0.0315707
0.022484
-0.239074
-0.00654788
-0.516026
-0.101361
-0.50858
0.0543153
0.187558
-0.287445
0.00817788
0.0266754
0.190235
-0.0360074
0.0275233
-0.0409807
0.0196124
-0.187301
-0.200778
-0.184396
-0.514977
-0.225361
0.0126638
0.0132559
-0.355634
0.159272
-0.00740826
-0.00758999
-0.37813
-0.0182581
-0.0511387
0.0187951
0.014354
0.0126342
0.0137142
0.175268
0.0412213
-0.00321552
-0.486099
-0.498623
0.00115069
0.0556985
-0.0728827
-0.268869
-0.00966209
-0.0316005
0.0112506
0.0861631
-0.457423
0.0247243
0.104204
-0.0066686
-0.326057
0.011796
-0.0580618
-0.27256
-0.261697
0.0220059
0.0351452
-0.197983
-0.160391
0.0423095
0.0103988
-0.446165
0.00926079
-0.0645699
0.0383447
-0.076417
-0.0129996
-0.0164787
-0.0189423
-0.183791
0.00940278
0.0105604
-0.0120807
-0.0277407
0.0145117
-0.00614804
-0.211858
-0.379261
-0.356042
-0.0654529
0.0276875
0.11488
-0.0494038
-0.520141
0.0190279
0.0990968
-0.00425419
0.0299304
-0.0363242
-0.0963335
-0.356778
0.0321022
-0.460038
-0.0295283
-0.00789041
-0.0263761
-0.341046
0.0339965
0.185567
-0.503308
0.0231005
0.0400037
-0.524105
0.0254498
-0.410048
0.0271784
-0.0929756
-0.396234
-0.0387099
0.0215705
0.00609292
-0.513906
-0.0717255
0.0183401
0.087755
0.021481
-0.0411335
-0.203153
-0.518191
-0.0839152
-0.408331
-0.390862
0.0030443
0.0175679
0.0129204
-0.292261
-0.0238263
0.0152101
0.00841104
-0.0591158
0.174239
0.0229223
0.0526928
0.0127465
0.018661
-0.354294
0.0169432
-0.523419
-0.0120207
-0.056367
-0.0835138
0.0047144
-0.00808475
-0.435444
-0.487576
-0.176773
0.0213051
-0.0339551
-0.0693336
0.00299109
-0.0984405
-0.221059
-0.11545
-0.00617584
-0.524423
-0.515904
-0.00498176
0.0130523
-0.00239034
0.013367
-0.0397118
-0.0553031
-0.482816
0.0125746
0.0321708
-0.0738651
-0.514674
-0.0123806
-0.37067
-0.015673
-0.241457
-0.161239
-0.348593
-0.08141
0.0719547
0.0776797
-0.0129536
-0.00730557
-0.296634
-0.0254646
0.0216272
-0.393441
0.011621
0.024572
-0.00581083
-0.146056
-0.123432
-0.376864
0.161057
-0.0775395
-0.038541
-0.0279427
-0.523077
-0.170847
-0.0143059
0.0277267
-0.013669
-0.116465
-0.437193
0.0231794
-0.425914
0.0753931
-0.000567705
-0.511335
0.0195941
-0.430495
-0.410983
-0.00357106
-0.0530714
-0.142016
0.0182828
0.0409526
0.00435996
-0.495385
-0.0697224
-0.036499
-0.52218
-0.396014
-0.07483
-0.0561588
0.0192487
-0.253967
-0.523382
-0.0408924
-0.053385
-0.51042
0.0780463
0.0294961
0.0122527
-0.27681
-0.523002
0.188828
0.0374068
-0.0721248
0.0117274
-0.418545
-0.182401
-0.100081
-0.358559
-0.448633
-0.0133705
-0.257474
0.0192025
-0.386043
0.0792929
-0.0568307
-0.0572868
-0.392575
-0.0071962
-0.0963896
-0.527226
-0.386526
-0.00973011
0.0127231
0.0041439
-0.0589451
-0.40205
-0.275438
-0.437188
-0.102526
-0.10636
-0.00324634
-0.440837
-0.182584
0.00408763
-0.0602245
-0.51836
-0.523631
-0.525237
-0.524279
-0.422015
-0.523998
0.0143225
0.0809777
-0.0869835
-0.0241401
-0.522726
-0.382708
0.0124738
-0.33948
0.0195597
0.0298669
0.00304116
-0.0944819
0.0135695
-0.433115
0.20646
-0.182094
-0.0197975
-0.368081
0.0704301
-0.306577
-0.524809
-0.0382943
-0.077408
-0.0297941
0.173799
-0.0128805
-0.0162557
0.0118159
-0.457459
0.00405514
-0.0102563
-0.0910603
-0.0475643
-0.519594
0.0108599
-0.508521
0.0316199
0.011782
0.0149842
0.0211038
-0.0600575
-0.0313594
-0.517367
0.056216
-0.0801681
-0.345499
0.00348524
-0.457654
0.00581493
-0.432885
-0.137151
-0.493781
-0.172955
0.0140843
0.0248646
-0.351245
-0.0289998
-0.0637717
0.0192202
-0.078636
-0.478707
0.00646662
0.0115869
0.0227178
0.0250414
-0.403368
-0.415911
-0.000959399
-0.00716728
-0.427903
-0.434739
0.0140807
-0.271888
0.0239045
-0.445862
-0.460017
-0.123384
-0.243798
0.109338
0.118681
-0.507846
-0.109896
0.0392014
-0.00973101
0.00395571
-0.440788
-0.413311
-0.0116743
0.0910672
-0.513107
0.0127232
-0.515724
-0.0243006
-0.0270544
-0.0117065
-0.37988
-0.119712
-0.00821933
-0.491546
0.0122497
-0.327116
-0.347464
-0.00775539
0.0267106
-0.226293
0.0310204
-0.00623574
0.00606342
-0.353506
0.0454164
0.0123106
0.0162235
-0.290097
0.0370094
-0.0413957
0.0224861
-0.5117
0.0138907
-0.120415
-0.0062195
-0.512455
-0.338581
-0.0621547
-0.12759
-0.156311
0.0247196
-0.128394
-0.49762
-0.0119626
-0.192524
0.00276603
-0.365942
0.020603
-0.484508
-0.256816
0.0453764
-0.487129
-0.49749
0.167014
-0.0373053
-0.41346
0.00898321
-0.521656
0.0613279
-0.401758
0.0136
0.0337536
-0.127005
0.0658323
0.0367829
0.0444612
0.0137086
-0.517987
-0.192775
-0.485109
-0.355133
0.0901443
-0.00820541
-0.0123162
-0.452563
0.0433982
-0.0113606
0.0157159
-0.421455
-0.36802
-0.442836
-0.482417
-0.101714
0.0362767
0.00387254
-0.150117
-0.148793
-0.375913
0.0229026
0.0251159
-0.522192
-0.181738
0.0157344
-0.133453
-0.387875
-0.221492
-0.0169215
0.0321076
-0.375648
-0.40775
-0.338357
-0.259065
0.0219056
0.020769
-0.00643334
0.0152558
0.0387322
0.0247796
0.0214302
0.0368004
-0.0917963
-0.0668634
-0.0124647
0.0255114
0.0543232
-0.0371453
-0.00594585
0.041046
0.00242853
-0.027838
0.0279842
0.00589433
0.0105668
0.0268075
-0.305533
-0.0120249
0.0357436
-0.359539
-0.361711
-0.514476
-0.426561
-0.000505993
0.0121492
0.015708
-0.348386
-0.0231646
-0.00878934
0.0210678
-0.353097
0.0635312
-0.102238
-0.305072
0.0373443
0.0271721
-0.0438542
0.0137498
0.0191966
0.0240511
0.0157248
0.000710513
0.0241761
-0.0025745
0.0324131
-0.0578558
-0.359099
-0.110979
-0.146541
-0.174899
-0.193621
-0.118454
-0.187126
-0.0237217
-0.480401
0.0974839
0.0568283
0.025023
-0.0401339
-0.164516
0.031327
-0.0927799
-0.520288
0.121355
0.231536
-0.226917
-0.0238102
-0.132453
-0.0693909
0.0310657
-0.055859
0.0242059
-0.176381
-0.128585
-0.35032
0.00191835
-0.127703
0.0973068
-0.372844
-0.276288
-0.141757
0.0222352
-0.152092
-0.00605678
-0.178236
-0.00203675
-0.352837
-0.00696958
0.097346
0.0199552
-0.032958
-0.179793
-0.046895
-0.35888
0.0269259
-0.0581722
-0.0594878
0.0208056
-0.323038
-0.432421
-0.244635
-0.0836829
-0.141159
-0.0233203
-0.0164617
-0.355664
-0.218393
-0.0179628
-0.0374206
0.100053
0.0306186
-0.335241
-0.00188192
-0.424252
-0.260595
-0.236425
-0.0573509
0.0396287
-0.00499096
-0.0189426
-0.239379
0.107189
0.10223
-0.512166
0.022282
0.0628833
0.0851119
-0.345973
-0.0128612
-0.264042
-0.00704599
-0.408798
0.0126305
0.0213767
0.151266
0.0105565
0.0326095
-0.249564
0.0353535
0.0268302
-0.0153176
-0.119597
-0.0189317
-0.352059
0.0303848
0.0319308
0.00602602
-0.231203
0.00657011
0.0963066
-0.124566
-0.352549
-0.373933
-0.342003
0.0397958
-0.342456
-0.111612
0.0271094
0.104625
0.0181242
0.0264988
-0.47047
0.0499859
-0.00628968
0.0210299
0.0123597
-0.0768708
-0.187534
0.0250755
0.120905
-0.227398
-0.240594
-0.138965
0.0183088
0.0121844
-0.3607
-0.0514993
-0.0150462
-0.349987
-0.337973
-0.00625952
-0.00947313
0.034962
0.0257332
0.165421
0.0121134
-0.156483
0.0244934
-0.352678
-0.00996511
-0.519317
-0.0514097
0.0209934
-0.0984658
-0.0114254
-0.028067
0.0243172
-0.0930001
-0.357652
0.0133443
-0.250026
0.0162316
0.0129581
0.166809
-0.0203211
0.0146509
0.0134329
-0.0064888
0.0165539
-0.0120155
0.0201769
-0.316696
0.0114251
-0.0161225
-0.0474081
-0.0095265
0.0257428
0.0220077
-0.0172163
-0.375426
0.173024
-0.0124711
-0.041545
-0.0265685
0.0248452
-0.208193
0.011666
0.0116159
-0.522275
0.0195775
-0.138106
-0.0886282
0.0149151
-0.0247398
-0.256062
0.0213499
-0.273231
0.201299
-0.025463
-0.334388
-0.355083
0.112793
0.00644591
0.00418806
0.0214131
0.0389341
-0.250774
-0.0138252
0.00659647
-0.0203425
-0.11086
0.0212092
-0.0273671
0.0185574
-0.138398
-0.310124
-0.00974376
-0.19631
0.00830752
-0.0437021
-0.00382697
-0.00640024
-0.00401876
0.0269163
0.00401752
-0.00605917
0.00252428
0.0279898
-0.0952919
-0.0262274
-0.400488
-0.0062344
0.00360646
-0.194667
0.0184332
-0.229014
-0.109746
-0.053624
-0.0271139
0.00185764
-0.0273648
-0.0675872
0.0382707
0.13413
-0.0672283
0.0273588
-0.00893077
0.0418898
-0.344704
-0.0436436
-0.00269304
-0.35295
-0.130459
-0.0383637
-0.00571869
-0.415951
0.00942315
-0.0497644
0.0530592
-0.19023
-0.0209074
-0.0196383
0.0813048
0.0240329
0.0129136
-0.018323
0.0126997
-0.161317
0.0202888
0.0210463
0.00652552
-0.0450747
-0.316822
0.00377212
-0.516982
0.24031
-0.00928192
-0.352808
-0.259002
-0.0240667
-0.0461211
-0.103349
0.00460989
0.0304409
-0.36179
0.0103045
-0.380485
0.100917
-0.0164022
0.0672231
-0.0360974
0.0174889
-0.0236659
0.197439
0.0658167
0.0122899
0.0195117
-0.0305801
-0.517456
-0.0456221
0.00471949
0.111809
-0.237282
0.160275
0.0152973
-0.0166123
0.0415601
-0.0325569
0.0679401
0.0642972
-0.0749658
-0.325224
-0.0229777
-0.0425064
-0.284572
-0.00369211
-0.0703742
-0.26516
0.0168684
0.0190039
-0.128931
-0.185577
-0.0810899
-0.523168
-0.350866
-0.244661
-0.32498
-0.0219509
-0.0472995
-0.000722643
0.022218
-0.347967
0.0483937
-0.156272
-0.0712419
-0.051484
0.0580442
-0.350805
0.0214816
0.0182579
-0.0218552
0.0235076
0.0286846
-0.0178366
-0.0282493
-0.170152
0.0309319
0.0414632
-0.000246785
0.0919471
0.0124153
-0.352239
0.031014
-0.0411316
0.00474896
0.0247498
-0.00397953
2.69637e-05
-0.0753563
0.0684196
0.0259236
-0.0305982
-0.0118758
0.0181403
0.0171915
0.112389
-0.0324515
0.027722
0.0270682
0.0264539
-0.0801127
0.028402
0.0291433
-0.180925
0.025863
0.015292
-0.0528445
-0.345306
-0.150812
-0.0361163
-0.0975605
-0.442383
-0.185044
-0.248538
0.02863
-0.0124393
-0.0724312
-0.121398
-0.0173301
-0.188242
-0.0326652
0.00759992
-0.0380834
0.019488
-0.186806
-0.194391
-0.178552
-0.0071174
0.00268012
-0.0512512
0.0319451
0.0751189
-0.0325507
-0.0418001
0.074215
0.142609
-0.114662
0.0105079
-0.0413959
-0.350441
0.0687106
0.0184451
-0.525442
-0.367736
0.00529277
-0.0348593
-0.0415916
-0.194828
-0.524729
0.0273197
-0.294711
-0.336882
0.161709
-0.169631
-0.0194788
-0.0460315
-0.0407113
-0.176688
0.0246569
0.118262
-0.0494433
-0.255578
0.0249304
0.027344
-0.347056
-0.0506442
0.0711975
-0.0130008
0.0249655
-0.077832
-0.450525
-0.0145138
0.0286737
-0.347669
-0.0808426
-0.0319953
0.023444
0.0110979
-0.0116826
-0.0211164
-0.209634
0.0186717
-0.0278137
0.0536559
-0.12371
0.0280966
-0.00349133
0.00310186
-0.0174892
0.00214578
-0.130015
-0.0246373
-0.0431138
-0.0035831
0.0162172
-0.500209
-0.0824764
-0.0326395
-0.509134
-0.0397739
0.0337942
-0.430437
-0.118622
-0.473718
0.0189108
-0.0464107
0.0186418
-0.0372287
-0.0160688
-0.513927
-0.0380299
-0.178718
-0.0181735
-0.0290268
-0.0417124
-0.014097
0.12059
-0.415447
-0.362232
0.0214374
0.000197467
-0.291085
0.0682446
-0.0179541
0.0329557
-0.0747945
-0.342468
-0.187106
-0.0232513
-0.350564
-0.0901389
0.0272536
-0.0168562
-0.0281429
0.0763719
-0.493037
0.0225226
-0.0654292
-0.042169
0.0253299
-0.0145765
-0.0312814
-0.523175
0.09288
-0.0118303
0.0217657
0.0268708
0.0966421
-0.0100914
-0.042092
-0.00761587
-0.0442276
-0.348776
0.0169095
0.0231758
-0.180128
-0.0119033
-0.0139804
-0.344853
0.0155611
-0.515521
-0.518196
-0.523786
0.0201828
0.0350373
-0.00859605
0.0123456
-0.00901612
0.00329649
-0.186893
-0.130735
-0.341188
-0.201627
-0.00585418
-0.0153229
-0.0451286
-0.00899006
0.0251724
0.0297826
-0.0135467
-0.0271576
-0.0290708
-0.502147
0.0152173
0.000277913
0.0164715
-0.0210359
-0.343873
-0.0346237
0.118505
-0.00898181
-0.137432
-0.046082
0.0229396
-0.0977172
-0.00707637
-0.0477938
-0.51739
0.0267509
0.0289202
0.0288433
-0.381231
-0.525668
-0.0181747
-0.0127502
-0.0448593
0.0336337
-0.0187135
0.00398393
0.0115333
0.0228366
0.00936467
0.00732867
-0.0406252
-0.429339
0.145484
0.0268421
0.0313422
-0.0331796
-0.0252512
0.0256345
0.0354338
0.110056
-0.523533
-0.0642732
0.0246239
-0.0333009
0.0229436
-0.190348
-0.0112693
0.0180834
0.0654484
-0.0497792
0.0880281
-0.460069
0.00324961
-0.0606056
0.00891812
-0.00513629
0.0266582
-0.0172575
-0.045577
-0.194641