/*--------------------------------*- C++ -*----------------------------------*\
| =========                 |                                                 |
| \\      /  F ield         | OpenFOAM: The Open Source CFD Toolbox           |
|  \\    /   O peration     | Version:  v2012                                 |
|   \\  /    A nd           | Website:  www.openfoam.com                      |
|    \\/     M anipulation  |                                                 |
\*---------------------------------------------------------------------------*/
FoamFile
{
    version     2.0;
    format      ascii;
    class       volScalarField;
    location    "100";
    object      k_0;
}
// * * * * * * * * * * * * * * * * * * * * * * * * * * * * * * * * * * * * * //

dimensions      [0 2 -2 0 0 0 0];


internalField   nonuniform List<scalar> 
9793
(
0.000149096
0.0169469
0.000147567
0.0288352
0.000149704
0.000196208
0.000170592
0.0505964
0.000148588
0.00430786
0.000149243
0.000149176
0.000147315
0.0471863
0.000147009
0.000157827
0.000170386
0.000147522
0.036364
0.000144887
0.00014581
0.000149939
0.0265178
0.0517043
0.0484634
0.000154169
0.000148534
0.000149722
0.000144946
0.000173401
0.0186728
0.000215316
0.000147956
0.00014757
0.000146973
0.000158804
0.0001548
0.000152691
0.0430525
0.000159809
0.000171225
0.0347836
0.0502729
0.000149793
0.000147656
0.000148144
0.0279757
0.000149886
0.000147136
0.000147571
0.000158649
0.000146827
0.000165058
0.000149771
0.000157879
0.0309167
0.000147359
0.000183094
0.000147138
0.000149937
0.000154382
0.000167884
0.000147634
0.000165263
0.000147555
0.000148315
0.00882756
0.00015321
0.000155673
0.0525253
0.00014792
0.000167746
0.0461199
0.118653
0.0638103
0.000149725
0.000161084
0.0572442
0.000147784
0.000149785
0.000161742
0.0372931
0.000170042
0.000151732
0.000155683
0.000193353
0.000149716
0.000179145
0.0435918
0.000167515
0.0306848
0.000324352
0.000396101
0.000163933
0.0497136
0.000147364
0.0660499
0.000168739
0.000153507
0.00014977
0.0392948
0.000163807
0.0657348
0.000147683
0.0670687
0.0755586
0.11345
0.000147003
0.000147808
0.000149879
0.000149514
0.0283975
0.000425525
0.01468
0.000147831
0.000148634
0.000154881
0.000148202
0.0337219
0.000148047
0.065268
0.000180426
0.0744154
0.000168115
0.000154837
0.000148085
0.000171694
0.0226994
0.000196101
0.000189156
0.000153072
0.000146567
0.000148861
0.000151895
0.000157567
0.000180823
0.000285485
0.000154947
0.000149808
0.00017273
0.039454
0.000157969
0.000147682
0.00017502
0.0290344
0.000210627
0.000148088
0.0639901
0.000146558
0.000148047
0.000148329
0.0468494
0.000152851
0.000148488
0.000147589
0.00023697
0.000171257
0.000147606
0.000251957
0.000147613
0.00017773
0.000153291
0.000145867
0.000182605
0.000148846
0.0315578
0.064523
0.000149473
0.000147005
0.000149396
0.000147747
0.0121208
0.0316402
0.0546209
0.000147275
0.000194319
0.000172953
0.000197024
0.000147702
0.000153185
0.0702695
0.0239997
0.000182535
0.000148097
0.000148357
0.000146964
0.0749128
0.0425428
0.0191389
0.0732529
0.000147984
0.0142662
0.000188343
0.000153145
0.0001475
0.000150771
0.000306585
0.000145085
0.000147516
0.000149297
0.000148009
0.000146026
0.000159832
0.000155391
0.0380635
0.000147684
0.000157511
0.000149509
0.000148941
0.000187359
0.00017207
0.0409632
0.000145302
0.0491345
0.000151743
0.000171893
0.000147077
0.00018067
0.000148696
0.00016149
0.000169539
0.000146021
0.000246005
0.0597762
0.000163347
0.000147301
0.00017182
0.0641402
0.000161717
0.000161864
0.0381084
0.000198736
0.000170563
0.000165774
0.000186187
0.000146087
0.0270058
0.0172096
0.000145104
0.000149431
0.0248542
0.000147503
0.0001495
0.000187841
0.000189562
0.000148249
0.000153285
0.000158437
0.000160135
0.00015358
0.000147738
0.000163567
0.0310134
0.000145932
0.0561749
0.000149722
0.000149049
0.00014559
0.0319649
0.000147729
0.000759161
0.0528332
0.000148564
0.000148767
0.00127347
0.000147863
0.000149559
0.000147709
0.0502187
0.000178701
0.000152701
0.000188771
0.000181373
0.0645668
0.0235954
0.000149544
0.0224649
0.000149738
0.0656967
0.000612474
0.0455861
0.0647023
0.000196676
0.000153217
0.000168735
0.000154742
0.00014773
0.000149935
0.000188432
0.000154307
0.000148829
0.000149881
0.000145285
0.000146617
0.000145942
0.0271851
0.00014695
0.000146876
0.000148489
0.000147318
0.0257429
0.000213104
0.00016368
0.000150096
0.000174996
0.00014953
0.0702697
0.0385284
0.000147704
0.0556854
0.000163764
0.000147635
0.0108058
0.0921608
0.000148004
0.000163954
0.000739664
0.000148414
0.000157729
0.000146889
0.000148692
0.0717822
0.00016061
0.000147623
0.000148012
0.000149876
0.000176501
0.000428782
0.000147587
0.000146965
0.000147083
0.0101846
0.0326317
0.0397939
0.000145915
0.000161236
0.000157986
0.000271959
0.000176757
0.000146177
0.000146682
0.000147076
0.000168296
0.00014812
0.0551291
0.000148461
0.000146406
0.0786839
0.0277777
0.0464245
0.000147284
0.0389823
0.000152728
0.00040572
0.0557635
0.0376413
0.000151334
0.000160529
0.000340452
0.0310859
0.0292413
0.000153994
0.000149732
0.000153076
0.000146929
0.000146839
0.000148031
0.000148408
0.000149941
0.0606518
0.000149317
0.000171247
0.000159565
0.0404457
0.000146159
0.000151894
0.0228371
0.000193625
0.0518304
0.000176199
0.000146412
0.000151477
0.000147585
0.000207609
0.000144788
0.0464952
0.000173768
0.000170338
0.035128
0.0728276
0.000148812
0.000147274
0.000561078
0.000208025
0.000147671
0.0495246
0.000148767
0.00014909
0.000503149
0.000145288
0.000183096
0.000146136
0.0675803
0.0001485
0.000148903
0.0783426
0.000167177
0.000175149
0.000153205
0.000148358
0.000146916
0.072193
0.000168149
0.000145411
0.000149229
0.00015842
0.000157994
0.000175071
0.0252137
0.000149235
0.000147558
0.000185647
0.000148406
0.0326035
0.00019681
0.0001483
0.000147987
0.000149795
0.000148659
0.000147008
0.0402774
0.00016188
0.00280775
0.000155666
0.000152684
0.000168026
0.000152421
0.0342208
0.000153863
0.000149764
0.000153281
0.000206917
0.000147765
0.000147639
0.00014793
0.000144812
0.000147788
0.000146939
0.000148157
0.00014896
0.000150035
0.000154634
0.000187772
0.00014927
0.000254296
0.000153415
0.000177532
0.0223536
0.000147735
0.0845906
0.000170569
0.000147516
0.000144821
0.000147699
0.0762599
0.000181319
0.000144795
0.000148694
0.000149247
0.000164121
0.000173812
0.0638898
0.000147648
0.000147598
0.000156902
0.0244524
0.0444355
0.000151258
0.000152208
0.0582753
0.0219669
0.000214628
0.000148513
0.000146485
0.0389485
0.000147416
0.000173003
0.0469253
0.000145303
0.000176851
0.000156408
0.0365873
0.000146896
0.0371573
0.000202937
0.00015711
0.000829441
0.000147381
0.000263858
0.00014851
0.000147233
0.000149438
0.000147605
0.05936
0.000147331
0.000146971
0.000149997
0.000145966
0.000146495
0.000163589
0.000149914
0.000164614
0.000148066
0.000148097
0.0258226
0.000165123
0.000151183
0.056394
0.00015398
0.000148521
0.000147751
0.000147016
0.0479256
0.000146952
0.000148313
0.019818
0.0267919
0.0001604
0.000147361
0.000149884
0.000148802
0.000149567
0.0545994
0.000148552
0.0929188
0.000154101
0.000276413
0.000149723
0.0103263
0.000151747
0.000180876
0.000147457
0.000185264
0.0267584
0.00014857
0.0644306
0.000147447
0.000149404
0.000145695
0.0748498
0.0374524
0.000147741
0.000157207
0.00014694
0.0579067
0.00014811
0.000163898
0.038143
0.000153002
0.000148008
0.000161078
0.000149599
0.000148988
0.000147148
0.000186436
0.000147513
0.062512
0.000148194
0.000148182
0.000168028
0.000165596
0.00204063
0.00014675
0.0119264
0.000147237
0.000177746
0.000147569
0.000149371
0.000147376
0.000148179
0.000149767
0.000178203
0.00017031
0.0671996
0.00018051
0.000158253
0.000158422
0.000395004
0.000152402
0.0531307
0.0406572
0.000182966
0.017854
0.0251983
0.000176684
0.000149012
0.000485724
0.000168034
0.000149032
0.00019018
0.000149642
0.000188242
0.000159489
0.000200452
0.000154767
0.0291131
0.0419822
0.000166708
0.00019829
0.000149384
0.000204925
0.000150157
0.00014747
0.000148069
0.000153423
0.000167252
0.0389287
0.000180976
0.0387446
0.00015184
0.000150923
0.0366891
0.000184106
0.000151635
0.000174511
0.000149003
0.000470099
0.0821034
0.000148257
0.000163723
0.000178573
0.0408203
0.000147518
0.000153521
0.0747132
0.000159292
0.0732599
0.00018659
0.0371379
0.000153506
0.000152615
0.0001477
0.000147577
9.8773e-05
0.000149885
0.000251652
0.000184892
0.000169405
0.000149706
0.000149443
0.000153317
0.000149281
0.000146683
0.000147518
0.000178798
0.0797699
0.0482513
0.00014985
0.000194611
0.000147522
0.0377291
0.00017112
0.000161133
0.000157822
0.000200495
0.000146086
0.000148267
0.000160445
0.000147421
0.00014862
0.000173237
0.0391504
0.000146025
0.000163425
0.0461314
0.000153805
0.0678416
0.0472842
0.00014707
0.00017026
0.000158583
0.000147937
0.0001456
0.000167693
0.0465145
0.0467797
0.000147824
0.000147973
0.00014586
0.000155728
0.000149939
0.000151471
0.000193181
0.000171177
0.000148914
0.00869675
0.000159884
0.000157693
0.000148452
0.0064414
0.000152934
0.000147245
0.000169821
0.000317832
0.000145571
0.000148198
0.00014761
0.00015641
0.000146056
0.000166889
0.000274931
0.000148434
0.000186702
0.000151162
0.000148245
0.00381947
0.037404
0.000249981
0.000148366
0.000145767
0.0721251
0.000153452
0.0139909
0.000145343
0.000147472
0.0173017
0.081938
0.000158844
0.000185098
0.000163701
0.000147272
0.000149793
0.000147723
0.0452494
0.000148228
0.000149947
0.0322014
0.000154664
0.000200073
0.000157279
0.000147422
0.0365773
0.000149766
0.000147518
0.000147668
0.000156832
0.026496
0.000148989
0.000147691
0.00014741
0.000147315
0.000147467
0.000147796
0.0240864
0.000157296
0.000149839
0.000148612
0.000157306
0.000171989
0.000157826
0.000155267
0.000149883
0.000145806
0.000150957
0.0349988
0.0709604
0.000152395
0.0441795
0.000149379
0.000153066
0.000267004
0.00032911
0.000146977
0.000149125
0.000184417
0.000171863
0.000147169
0.000149624
0.063451
0.000149767
0.000170811
0.000147957
0.000201171
0.000149615
0.000152112
0.00014874
0.000158849
0.000149075
0.000152237
0.000153749
0.000173029
0.000146917
0.000147856
0.000149633
0.000147192
0.00014892
0.000148454
0.000159824
0.000148628
0.000173072
0.0543819
0.000167092
0.000173639
0.000149282
0.000147161
0.0158009
0.106072
0.000145505
0.0645648
0.0191168
0.000145839
0.000147671
0.000147093
0.000173102
0.000173805
0.000324983
0.00014687
0.000153526
0.000146866
0.000148802
0.000151811
0.000169651
0.000148841
0.000193633
0.000148493
0.000164163
0.000147119
0.000150398
0.000147554
0.00016889
0.000163394
0.0225738
0.0968087
0.0625358
0.000170386
0.000147481
0.000304277
0.000437871
0.00017637
0.000148538
0.000148433
0.000289573
0.000147045
0.0270331
0.000146272
0.000160669
0.000149159
0.000149779
0.000147014
0.0432671
0.046984
0.0272951
0.000164889
0.0207223
0.000147632
0.0724213
0.0767067
0.000149785
0.000148096
0.000145966
0.0134597
0.00014518
0.0524275
0.000157224
0.000188719
0.000148727
0.000234989
0.0256982
0.000281918
0.000156262
0.000161013
0.000148109
0.0469109
0.000145151
0.00019819
0.000197938
0.000164701
0.0715138
0.0544766
0.000152927
0.000151108
0.000147467
0.000191683
0.052299
0.0163473
0.000146064
0.000412186
0.000157292
0.000189532
0.000169736
0.0403216
0.0413575
0.000146692
0.000153716
0.00016105
0.000154068
0.000153931
0.0740734
0.000149245
0.0707712
0.000147463
0.000146448
0.000170883
0.000186844
0.00881114
0.000150177
0.0190081
0.0170334
0.000210123
0.000154244
0.000149509
0.000150164
0.000149466
0.000147588
0.000230059
0.0107186
0.000148671
0.000147587
0.000162365
0.000274557
0.000154289
0.000147551
0.000188832
0.000147577
0.000149816
0.000145264
0.00017641
0.00014806
0.000155313
0.0220538
0.000171524
0.00015216
0.000477206
0.000170216
0.000147555
0.000151788
0.000162434
0.000149724
0.000147622
0.000146587
0.0447096
0.0343
0.000148525
0.00016351
0.000158475
0.000206018
0.000147769
0.0692272
0.000146895
0.00014612
0.000201873
0.000203447
0.000175495
0.000147977
0.000147207
0.0295627
0.0420222
0.000189594
0.000320195
0.00014856
0.000153788
0.000147977
0.0135324
0.000151897
0.0107496
0.000149783
0.000147712
0.000153193
0.000146276
0.000146979
0.000164985
0.000146376
0.0728267
0.000147679
0.000148544
0.000145494
0.000155287
0.0502626
0.0273984
0.000173744
0.0250961
0.000147727
0.000159528
0.000152248
0.0630528
0.000147911
0.000146519
0.0831349
0.000158549
0.000157398
0.000148623
0.000203639
0.0374386
0.0502754
0.000148349
0.000157983
0.000212515
0.000162538
0.000240659
0.000184049
0.000170955
0.000146935
0.000149547
0.000176542
0.000165859
0.000147771
0.000190621
0.000146021
0.000149143
0.000148668
0.000146615
0.000147499
0.000147795
0.000205262
0.000154267
0.000150775
0.000163543
0.000146208
0.000147551
0.000162112
0.0550738
0.000166056
0.000169204
0.0620216
0.000149517
0.0629035
0.000156629
0.0153174
0.000164968
0.000149282
0.00014873
0.000152223
0.0518048
0.000281284
0.000164782
0.000173854
0.000145721
0.000147446
0.00014962
0.000149276
0.0190426
0.000155101
0.000148143
0.000190237
0.000180605
0.0776215
0.000150322
0.0742075
0.000162556
0.000166697
0.000162975
0.000188055
0.000184217
0.000148642
0.0426638
0.000209315
0.000159306
0.0494246
0.000169379
0.000149182
0.000149735
0.000147537
0.000150387
0.000154473
0.0245359
0.000171939
0.000146957
0.000206847
0.000147863
0.0283823
0.000446687
0.000147569
0.0275136
0.000147561
0.000146797
0.000148715
0.0403911
0.0331133
0.000171828
0.000156708
0.000147128
0.000212936
0.000149497
0.000158734
0.000148473
0.00014848
0.000147901
0.0803663
0.000149845
0.000160058
0.000156433
0.000149353
0.000183473
0.000179275
0.000164538
0.000153251
0.000152752
0.0388414
0.0774
0.000148206
0.000146631
0.000148199
0.000149459
0.0363099
0.0456242
0.000189801
0.000153574
0.000146432
0.077547
0.067033
0.000148534
0.0370657
0.000145924
0.000175662
0.0123923
0.000146122
0.0295577
0.0573452
0.000178883
0.0224278
0.0791478
0.000147038
0.000149617
0.000296711
0.0390909
0.00014936
0.029969
0.00015374
0.000147495
0.000149808
0.000151825
0.000166708
0.000154312
0.000181085
0.0223104
0.000177403
0.000157902
0.000148386
0.000166811
0.00031573
0.000146526
0.000449464
0.000165595
0.000149414
0.000152475
0.000149572
0.000148526
0.000156909
0.000310035
0.000150209
0.000146413
0.028906
0.0423937
0.000178844
0.000149718
0.000169976
0.000147562
0.000147332
0.0828207
0.0103807
0.000147273
0.000144337
0.0689585
0.0274452
0.000165937
0.0001487
0.076568
0.000150681
0.000147349
0.000154224
0.000147349
0.000145671
0.00014522
0.0713036
1.23117e-05
0.000153852
0.000249825
0.000169992
0.0410004
0.0755467
0.0488891
0.000194058
0.000147731
0.000149552
0.000149539
0.000147769
0.000165603
0.000147039
0.000168378
0.000158551
0.00793584
0.000148177
0.032448
0.000158517
0.044982
0.000147292
0.000269178
0.00016108
0.000196165
0.000200274
0.000159099
0.000145192
0.0774994
0.000171901
0.000270582
0.000145424
0.0812339
0.000148047
0.0435266
0.000207589
0.000160488
0.00014753
0.00014847
0.0531141
0.0256012
0.000162247
0.000145924
0.00359727
0.000169756
0.000168728
0.0859783
0.000166019
0.000147519
0.109124
0.000147555
0.00016344
0.000146198
0.017619
0.000146206
0.000153436
0.000209418
0.000444095
0.000149428
0.000171241
0.000154238
0.000166161
0.000147021
0.0001887
0.000150987
0.000165126
0.000147639
0.000147719
0.0358603
0.000159241
0.0466497
0.108532
0.0236244
0.000149783
0.000146292
0.00014669
0.000155012
0.000164717
0.000160654
0.0195711
0.000152003
0.00290887
0.000161033
0.000149861
0.000147641
0.000178721
0.00022405
0.0146028
0.00014751
0.035356
0.000146889
0.075639
0.000255167
0.000170369
0.000147841
0.000146603
0.000165837
0.000402832
0.000152645
0.000149771
0.000153753
0.000168895
0.000151544
0.000242026
0.0363578
0.000473777
0.000148951
0.000155851
0.0745388
0.00014917
0.000163358
0.000147055
0.000203714
0.000159532
0.00014761
0.000161335
0.000173865
0.000148373
0.0662019
0.000147517
0.000188511
0.000179239
0.000243569
0.000183148
0.000149022
0.00014863
0.0221626
0.000148364
0.000160692
0.000181414
0.000151959
0.000145081
0.0618675
0.000152668
0.000189325
0.000153051
0.000164425
0.000149333
0.000186087
0.000152998
0.000153561
0.0712248
0.000218049
0.000148462
0.000149803
0.000173801
0.0509745
0.000290261
0.000203702
0.000160623
0.000147561
0.000146641
0.0488701
0.000148821
0.0787561
0.000173118
0.0763506
0.000148592
0.00014596
0.000146442
0.000166871
0.000172595
0.000406002
0.0435512
0.000250523
0.000201419
0.000145061
0.000336309
0.000150394
0.000177882
0.000151117
0.000165683
0.000163142
0.000147557
0.000144963
0.000177571
0.00014547
0.000162758
0.000164384
0.0319901
0.0716291
0.000168019
0.0468899
0.000146729
0.000146258
0.000148352
0.000174574
0.00016379
0.000166727
0.000176029
0.00170699
0.000160216
0.000173075
0.000147094
0.000150755
0.0410796
0.000147875
0.000181026
0.000144251
0.000147121
0.0559315
0.000182128
0.00014712
0.000173683
0.000193205
0.056536
0.0689356
0.000153417
0.000179271
0.00017239
0.00296821
0.000148072
0.077279
0.0348959
0.000151331
0.000157286
0.000145402
0.000188641
0.000147302
0.000147762
0.0414884
0.000148616
0.000145161
0.000187939
0.000176558
0.0424091
0.0417898
0.000410772
0.0298005
0.00014645
0.000147514
0.000147147
0.000149305
0.0389118
0.000148179
0.0333706
0.000150364
0.0439004
0.000152206
0.000148412
0.000145609
0.000148714
0.000156766
0.000148455
0.000144967
0.000214718
0.000146707
0.000173701
0.000149197
0.0198642
0.000152286
0.000148397
0.000148395
0.000171292
0.000147198
0.000146176
0.00014846
0.000149375
0.000155371
0.000147077
0.000151109
0.0001568
0.106625
0.0457211
0.0384664
0.0337868
0.000146295
0.000147855
0.000147576
0.00014397
0.000147566
0.000146082
0.00024585
0.00014709
0.000149647
0.000148313
0.000148149
0.000147765
0.0547823
0.00015457
0.000147668
0.044889
0.000169558
0.000145821
0.0464703
0.0225777
0.000147974
0.000194591
0.000203306
0.000148019
0.000160945
0.00015162
0.000144784
0.000155291
0.000150145
0.000169129
0.000147908
0.000149615
0.000146166
0.00902733
0.000160283
0.000161122
0.00014805
0.000149747
0.0471318
0.00015349
0.000148086
0.000151999
0.000152694
0.000149651
0.000176258
0.0272475
0.000256376
0.038613
0.000176196
0.000159537
0.000149708
0.0162531
0.00018312
0.000149891
0.000173351
0.00014995
0.000147425
0.000149608
0.0799163
0.000161962
0.00014784
0.000148141
0.00019452
0.000146036
0.000188732
0.000147716
0.000263864
0.000198174
0.0191437
0.000148403
0.000150597
0.000156993
0.000159048
0.000148738
0.000159825
0.000166381
0.018738
0.00014943
0.000189504
0.0771712
0.000145247
0.0480853
0.000160739
0.000182292
0.000176082
0.000147531
0.000155771
0.000167555
0.000145633
0.000154296
0.000144712
0.0501489
0.000202361
0.000157822
0.000146639
0.00018272
0.000165117
0.000334857
0.000181188
0.000151042
0.000158924
0.000147604
0.000147587
0.000167365
0.000162335
0.0391636
0.00014667
0.000188176
0.000154388
0.0622146
0.000186609
0.066782
0.000145035
0.000150172
0.000307451
0.000277028
0.000160459
0.0299091
0.000151534
0.000176486
0.000147241
0.000147079
0.0305418
0.000754978
0.00015579
0.0001485
0.000165648
0.000296525
0.000174017
0.000164529
0.000146331
0.000147944
0.000145856
0.000322451
0.0393007
0.000146568
0.000170106
0.0529079
0.000173549
0.000185358
0.0336921
0.0164763
0.0661625
0.000146734
0.000151298
0.0394231
0.000147182
0.00016183
0.000251943
0.0515521
0.000150909
0.000156308
0.0230171
0.000203922
0.000280724
0.0552736
0.0454678
0.0407076
0.000148618
0.000145453
0.000147803
0.000150475
0.0112038
0.000162465
0.000185314
0.000186048
0.000163119
0.00014792
0.00212715
0.000146667
0.000161049
0.000147311
0.000160041
0.0166571
0.000608742
0.000148329
0.00014533
0.000168616
0.0794006
0.000184546
0.0468839
0.000160809
0.000148076
0.000165782
0.000144261
0.000167259
0.000157008
0.000147538
0.086094
0.000173028
0.000209773
0.000166558
0.000148673
0.000145573
0.0019495
0.00015295
0.000145364
0.000148871
0.000149677
0.000145599
0.00936189
0.0303556
0.0367428
0.000263493
0.0392911
0.000154123
0.000147554
0.0796456
0.000153908
0.000187592
0.0725714
0.000146908
0.0554156
0.0327657
0.000169515
0.00015778
0.000204179
0.000150499
0.000289448
0.000161451
0.0287696
0.000146736
0.000150052
0.000160778
0.00042141
0.000181712
0.000164647
0.0294231
0.0654039
0.000164744
0.000191759
0.00040713
0.000152812
0.000185698
0.0123668
0.000159852
0.000163888
0.0758513
0.000162921
0.000159578
0.000148564
0.00016516
0.000166801
0.000166642
0.000148456
0.0681817
0.000172412
0.029661
0.0245898
0.0356424
0.000160283
0.000265658
0.0697505
0.000146774
0.0190479
0.102191
0.0312459
0.000155732
0.000151986
0.0401862
0.0176988
0.000145473
0.000177042
0.000146117
0.000147248
0.000455457
0.000153143
0.0320206
0.0428325
0.038645
0.0505175
0.000145192
0.000164091
0.000148023
0.000146752
0.000169102
0.000172763
0.000156537
0.000374547
0.0345519
0.000149804
0.000156291
0.00024366
0.000152343
0.000186704
0.000161247
0.0398573
0.0406428
0.000217906
0.0741562
0.0181639
0.0316058
0.0415332
0.0385634
0.000164191
0.000152879
0.000170603
0.000170462
0.0515897
0.0471557
0.000148771
0.000155069
0.0403012
0.029134
0.000154836
0.0323881
0.000147666
0.000214728
0.0792802
0.101714
0.000147313
0.0306036
0.000259306
0.000154955
0.000158869
0.0556304
0.0524435
0.0357645
0.0460397
0.000147815
0.0050121
0.0361177
0.000159836
0.00018103
0.000168183
0.00014598
0.000156052
0.0268604
0.0528485
0.00015345
0.000149068
0.0378477
0.00016642
0.0377848
0.000170743
0.000272547
0.0427272
0.000147815
0.0579758
0.000149891
0.000161837
0.000148124
0.00014808
0.000145745
0.00016162
0.000180876
0.000144371
0.00630581
0.000181012
0.00861229
0.0513369
0.0310069
0.000147209
0.0768261
0.000266014
0.0338032
0.000158895
0.000147551
0.00111561
0.000206459
0.0514126
0.000162461
0.000151014
0.000145625
0.0017984
0.0174626
0.00015833
0.00499558
0.000156619
0.000148436
0.0390339
0.000162201
0.0208719
0.000147738
0.00016207
0.0328088
0.0353525
0.0397268
0.000203181
0.0404989
0.0357918
0.0053882
0.000148182
0.0210154
0.000162478
0.000146924
0.000145078
0.000147607
0.0195065
0.000161524
0.0413301
0.0394143
0.000167196
0.000172033
0.000184316
0.0333695
0.000178743
0.0555643
0.0321071
0.000248225
0.000167252
0.000145918
0.00109933
0.000163051
0.000194973
0.038612
0.0549028
0.000274467
0.000148511
0.000152799
0.000161563
0.000148249
0.000147941
0.000156591
0.0424044
0.000160998
0.000156679
0.0362156
0.000181174
0.000208888
0.00109161
0.0441485
0.000206388
0.0502743
0.0312875
0.0350512
0.000163921
0.000160712
0.00014834
0.000250907
0.000175807
0.000198087
0.000163593
0.000163193
0.000144018
0.000192141
0.0739149
0.000158215
0.000144965
0.000151669
0.00167139
0.000147025
0.00014804
0.000168737
0.0370446
0.000160374
0.000162511
0.000174544
0.000156397
0.00017562
0.000147158
0.000147777
0.000163729
0.000200344
0.000148633
0.000159073
0.000178759
0.0691812
0.000148404
0.0736586
0.000147877
0.0437457
0.000150692
0.000150839
0.000144775
0.000186516
0.000165263
0.014167
0.055956
0.00016421
0.000148992
0.00014831
0.0704015
0.000990671
0.000147702
0.000184353
0.0391219
0.000167842
0.000165186
0.000143972
0.000149645
0.000147528
0.0401224
0.00016556
0.000148189
0.0584013
0.000148899
0.000162979
0.000203695
0.000145992
0.000167862
0.000169233
0.0515196
0.000149141
0.000153809
0.000150907
0.000167878
0.000143759
0.00014734
0.0767766
0.000199066
0.000173367
0.000148957
0.0475722
0.000148954
0.000148922
0.00014752
0.000213596
0.058174
0.000152103
0.0769078
0.000363093
0.000168787
0.0283672
0.00313156
0.0374326
0.0127784
0.000173723
0.000177785
0.000191585
0.000166587
0.000147472
0.000156133
0.000160334
0.0609609
0.000148394
0.0584651
0.000147738
0.000189288
0.000173472
0.00015008
0.000157569
0.00592697
0.0253882
0.0201516
0.0330235
0.000146552
0.000179487
0.0402864
0.000156084
0.0391624
0.000159844
0.000168134
0.0446983
0.000166732
0.000147788
0.000179152
0.000182785
0.000147577
0.0371586
0.000227793
0.000145825
0.000149557
0.000148698
0.000147905
0.0468009
0.000148544
0.000166554
0.000148011
0.000149823
0.000157075
0.000147537
0.0407746
0.000175839
0.000148339
0.00014542
0.000181331
0.000151725
0.000162434
0.0130465
0.0322806
0.000165264
0.000180178
0.000159853
0.000145089
0.00018676
0.0647181
0.000160883
0.0386265
0.0553533
0.000165043
0.00016191
0.000160385
0.000171436
0.000159644
0.0558729
0.000148638
0.000148432
0.000147697
0.0525167
0.0251081
0.000159088
0.000191911
0.000147642
0.000158233
0.000188754
0.000200959
0.000147525
0.00016649
0.0457087
0.000166485
0.000147819
0.000147649
0.0388834
0.0233071
0.000147568
0.000211774
0.000161853
0.000194835
0.000242559
0.000146951
0.0254591
0.000159944
0.000147997
0.0779565
0.000194197
0.00014751
0.000148995
0.000202934
0.000146556
0.000148138
0.000206069
0.000160094
0.00016095
0.0253097
0.000154355
0.000170011
0.0453071
0.000147448
0.0614872
0.044423
0.000154224
0.000176541
0.000194755
0.000147925
0.00019029
0.000144175
0.0698624
0.000257427
0.000147877
0.0228505
0.074496
0.000147714
0.000147733
0.000196808
0.00016777
0.0313059
0.0318543
0.000148515
0.000165334
0.0284037
0.000150649
0.000171435
0.000179354
0.000158337
0.080426
0.00019927
0.000152697
0.000195803
0.00528143
0.000160655
0.110637
0.000147236
0.000144732
0.000149762
0.000160074
0.0829801
0.00014829
0.000164409
0.00913513
0.0340354
0.000149397
0.000157648
0.00028266
0.04405
0.000149448
0.0652197
0.000162119
0.000173152
0.000163251
0.000150502
0.000155183
0.000147835
0.000147675
0.0719906
0.000147353
0.00016186
0.000147789
0.0583244
0.000152684
0.000154176
0.000145075
0.000152488
0.000147764
0.000165607
0.0189384
0.00298496
0.000162195
0.000160109
0.000147593
0.000156869
0.00017029
0.0669579
0.0371343
0.000146665
0.000245203
0.000148029
0.000344163
0.0370875
0.0256421
0.00014666
0.000170215
0.000177658
0.0547678
0.000176609
0.000147035
0.0769276
0.00018159
0.00015889
0.0330461
0.00014905
0.000148042
0.000159824
0.0797751
0.000147637
0.0607793
0.000157818
0.000468967
0.000166408
0.000153236
0.0679471
0.000156024
0.000148242
0.000205049
0.000147645
0.000331856
0.0621153
0.000194234
0.00015473
0.000171696
0.000147695
0.000175849
0.000165652
0.0492573
0.000148092
0.000145936
0.000154897
0.000157521
0.000168818
0.0551468
0.124295
0.000158342
0.000176275
0.000146679
0.119203
0.0162124
0.000178833
0.000147599
0.000149709
0.000152361
0.0786084
0.000148247
0.000156292
0.0743816
0.000181381
0.000147948
0.000178286
0.000179487
0.000147819
0.00015343
0.000178907
0.000279473
0.000168287
0.00016426
0.0498436
0.0419367
0.000394181
0.000154614
0.000148425
0.000152574
0.000152401
0.000182209
0.0001717
0.00015796
0.000179317
0.0598188
0.000151763
0.000147846
0.0300023
0.000181875
0.0308875
0.000197801
0.000153818
0.000151313
0.00015116
0.000146509
0.000147357
0.000168688
0.000145089
0.000150155
0.000148891
0.000150157
0.000151122
0.000147607
0.000159303
0.000166641
0.000148605
0.000147574
0.000148679
0.000149835
0.00014903
0.000178635
0.000148247
0.000150899
0.00024933
0.000146542
0.000150633
0.000148808
0.000157325
0.0293456
0.0608393
0.0312579
0.0754233
0.0917803
0.000197691
0.000147107
0.000169502
0.000147843
0.000299733
0.000152111
0.000156236
0.000148604
0.000171528
0.000147646
0.000160268
0.0001464
0.0751678
0.000185774
0.000148387
0.0569386
0.0847075
0.000148963
0.000187011
0.000147628
0.000145276
0.0104014
0.000148728
0.000171307
0.00018945
0.000148586
0.000145015
0.000173327
0.0391186
0.000152742
0.000152029
0.0322955
0.000147568
0.0326629
0.000170054
0.0101197
0.000145636
0.0355364
0.000147577
0.000148353
0.000200621
0.000173014
0.0377203
0.0377509
0.0179261
0.079329
0.000197792
0.000179083
0.000148152
0.000199125
0.000148567
0.000146616
0.000166892
0.000147358
0.000147779
0.000145288
0.00014513
0.000175067
0.100984
0.0348044
0.000197117
0.0527648
0.000152164
0.000156263
0.00015094
0.000149764
0.000178031
0.000147944
0.000147285
0.000146632
0.000152365
0.000150511
0.00017403
0.000183147
0.00016697
0.000148608
0.000162358
0.000162546
0.0383803
0.0289826
0.000153516
0.000166324
0.000148467
0.0418361
0.0411033
0.000147509
0.000147373
0.000152762
0.000149364
0.00116222
0.000205808
0.0375639
0.000148391
0.12172
0.000148148
0.0317216
0.000169784
0.000146525
0.000156426
0.0229194
0.000154309
0.000156448
0.000160402
0.000175549
0.0822714
0.00014749
0.00014725
0.000155291
0.000112053
0.000147161
0.03655
0.124765
0.000147836
0.000143906
0.0132912
0.00017802
0.000147605
0.000195466
0.00777905
0.0707809
0.123823
0.000158215
0.000280587
0.000148335
0.0334872
0.0804392
0.000204513
0.000177973
0.000151895
0.0296635
0.000153055
0.000146983
0.00014401
0.00804703
0.000145396
0.0106665
0.000150828
0.000148324
0.000152726
0.0385066
0.00015199
0.000149975
0.000148348
0.0669983
0.0239151
0.0383129
0.0452779
0.000169431
0.000147648
0.00015179
0.000100701
0.00016856
0.000147814
0.000172301
0.000160755
0.0598826
0.000147961
0.0246231
0.0328504
0.000167322
0.000148271
0.000152029
0.00014763
0.000146827
0.000147585
0.000148081
0.000149463
0.000167265
0.00014851
0.000193625
0.000149539
0.000149641
0.0234915
0.000179426
0.000153043
0.000149892
0.0334564
0.000145231
0.000156012
0.000154278
0.000146557
0.00676528
0.000161594
0.000149786
0.000160444
0.00014769
0.000156896
0.000147916
0.000190864
0.00014666
0.00014749
0.06887
0.000153004
0.000197059
0.000161965
0.0001513
0.000182543
0.000143767
0.000148459
0.000149515
0.0524539
0.000153038
0.000147576
0.00028975
0.000147765
0.000145348
0.000147028
0.000227581
0.000157173
0.000196575
0.000157509
0.000156443
0.000161487
0.000151938
0.000155221
0.000161194
0.0345815
0.000148604
0.000156318
0.000146917
0.000179831
0.00019686
0.000147153
0.000160832
0.0793062
0.000156015
0.000145013
0.0601136
0.000154044
0.000166435
0.0283992
0.000158918
0.000147404
0.000157641
0.000147573
0.000154596
0.000147198
0.000150813
0.000154093
0.000147608
0.000148307
0.000156874
0.000148386
0.000177895
0.000147673
0.000151271
0.000147658
0.000161485
0.0347209
0.000148129
0.000148158
0.000167113
0.000152111
0.000147623
0.000174031
0.0609424
0.026094
0.00014823
0.000152689
0.000165092
0.000149595
0.000148721
0.000162808
0.000174526
0.000144613
0.000162328
0.000147912
0.000147166
0.000146989
0.000144619
0.000150991
0.000165929
0.000162742
0.000157028
0.0392905
0.000152744
0.000155757
0.000146518
0.0595327
0.0851789
0.0770728
0.000148121
0.000168549
0.000156639
0.000147927
0.000148687
0.000160033