/*--------------------------------*- C++ -*----------------------------------*\
| =========                 |                                                 |
| \\      /  F ield         | OpenFOAM: The Open Source CFD Toolbox           |
|  \\    /   O peration     | Version:  v2012                                 |
|   \\  /    A nd           | Website:  www.openfoam.com                      |
|    \\/     M anipulation  |                                                 |
\*---------------------------------------------------------------------------*/
FoamFile
{
    version     2.0;
    format      ascii;
    class       volVectorField;
    location    "750";
    object      cellDisplacement;
}
// * * * * * * * * * * * * * * * * * * * * * * * * * * * * * * * * * * * * * //

dimensions      [0 1 0 0 0 0 0];


internalField   nonuniform List<vector> 
9793
(
(0 0.000846447 0)
(0 6.48757e-05 0)
(0 0.000863262 0)
(0 0.00033305 0)
(0 0.000658091 0)
(0 0.00135903 0)
(0 0.000146246 0)
(0 0.000955458 0)
(0 0.000841675 0)
(0 0.000667994 0)
(0 0.000493435 0)
(0 0.00145467 0)
(0 0.000302282 0)
(0 0.000697064 0)
(0 2.63551e-05 0)
(0 0.000662374 0)
(0 0.00126169 0)
(0 0.00128145 0)
(0 0.000978484 0)
(0 0.000684778 0)
(0 0.00127612 0)
(0 0.00104995 0)
(0 0.00126767 0)
(0 9.44015e-06 0)
(0 0.00149791 0)
(0 0.000246806 0)
(0 0.000646818 0)
(0 0.00120637 0)
(0 0.000679391 0)
(0 0.000847062 0)
(0 0.00144832 0)
(0 0.00125508 0)
(0 0.00165051 0)
(0 7.25003e-05 0)
(0 0.000693138 0)
(0 0.00124905 0)
(0 0.000103444 0)
(0 0.0010644 0)
(0 0.00114768 0)
(0 0.00017552 0)
(0 0.00145645 0)
(0 4.94911e-05 0)
(0 0.000156436 0)
(0 0.000146273 0)
(0 0.000123946 0)
(0 0.000211858 0)
(0 0.000673452 0)
(0 0.00104774 0)
(0 0.00158696 0)
(0 0.000376665 0)
(0 0.00068642 0)
(0 0.000523088 0)
(0 0.00132435 0)
(0 0.000950465 0)
(0 0.000586261 0)
(0 0.00135126 0)
(0 0.000728482 0)
(0 0.000368868 0)
(0 0.00161508 0)
(0 0.00111719 0)
(0 0.000116633 0)
(0 0.00128039 0)
(0 0.00160189 0)
(0 0.000133589 0)
(0 0.00059143 0)
(0 0.00163829 0)
(0 0.00160865 0)
(0 0.00160938 0)
(0 0.00146153 0)
(0 0.000512362 0)
(0 0.000604052 0)
(0 5.48032e-06 0)
(0 0.0010369 0)
(0 0.000104133 0)
(0 0.000696971 0)
(0 0.00162268 0)
(0 0.000754303 0)
(0 3.89159e-05 0)
(0 0.00138956 0)
(0 0.00126416 0)
(0 0.00164706 0)
(0 0.00140275 0)
(0 5.18441e-05 0)
(0 0.00108605 0)
(0 0.00144776 0)
(0 0.00106265 0)
(0 0.00128569 0)
(0 0.000779361 0)
(0 0.00127511 0)
(0 0.00143164 0)
(0 8.98955e-05 0)
(0 0.00056015 0)
(0 0.000885478 0)
(0 0.0012371 0)
(0 0.00127099 0)
(0 0.00110174 0)
(0 0.00134277 0)
(0 6.52428e-05 0)
(0 0.000865571 0)
(0 0.000738369 0)
(0 0.000726272 0)
(0 0.00142765 0)
(0 0.000880004 0)
(0 0.000854858 0)
(0 4.80809e-05 0)
(0 0.00145391 0)
(0 0.00126333 0)
(0 0.000125499 0)
(0 0.00131448 0)
(0 0.00101676 0)
(0 5.74111e-06 0)
(0 0.00135441 0)
(0 0.000660483 0)
(0 0.0012979 0)
(0 0.000539822 0)
(0 0.000747272 0)
(0 0.00162276 0)
(0 0.000714761 0)
(0 0.00142278 0)
(0 0.00122277 0)
(0 0.00103391 0)
(0 2.13932e-06 0)
(0 0.000829336 0)
(0 0.00137088 0)
(0 0.000935514 0)
(0 0.00129588 0)
(0 0.000450521 0)
(0 0.0010776 0)
(0 0.00140929 0)
(0 0.00088966 0)
(0 1.09981e-05 0)
(0 0.000773262 0)
(0 0.000914887 0)
(0 0.00146058 0)
(0 0.000841603 0)
(0 0.00080328 0)
(0 0.000109557 0)
(0 0.000149177 0)
(0 0.000643086 0)
(0 0.00013626 0)
(0 0.000814981 0)
(0 0.00148894 0)
(0 0.00023014 0)
(0 0.000741076 0)
(0 0.000720343 0)
(0 0.000752917 0)
(0 2.57178e-05 0)
(0 0.000753224 0)
(0 0.000858624 0)
(0 0.000537603 0)
(0 0.00081761 0)
(0 1.21952e-05 0)
(0 0.000805237 0)
(0 0.000693161 0)
(0 0.000837411 0)
(0 4.00694e-06 0)
(0 6.41067e-05 0)
(0 0.00147549 0)
(0 0.000735111 0)
(0 0.000229371 0)
(0 0.000991764 0)
(0 0.00119824 0)
(0 0.000581772 0)
(0 0.00101938 0)
(0 6.91258e-05 0)
(0 0.00125887 0)
(0 0.0010626 0)
(0 0.000881066 0)
(0 0.00062506 0)
(0 0.00135968 0)
(0 0.00129795 0)
(0 0.00174979 0)
(0 6.32651e-05 0)
(0 0.0017509 0)
(0 0.000920139 0)
(0 0.00099322 0)
(0 0.000796112 0)
(0 3.44685e-05 0)
(0 0.000981514 0)
(0 0.000702054 0)
(0 0.000246849 0)
(0 0.000768872 0)
(0 0.000746126 0)
(0 0.00148428 0)
(0 0.00164739 0)
(0 0.00101343 0)
(0 0.000365262 0)
(0 0.00098305 0)
(0 0.00085188 0)
(0 0.000593684 0)
(0 0.000907613 0)
(0 0.000407939 0)
(0 0.00159933 0)
(0 0.00133503 0)
(0 0.00160262 0)
(0 0.000708661 0)
(0 0.000859503 0)
(0 0.0013245 0)
(0 0.000711101 0)
(0 0.000120821 0)
(0 0.000846086 0)
(0 0.00105935 0)
(0 0.00133681 0)
(0 0.00085187 0)
(0 0.000818973 0)
(0 3.69862e-05 0)
(0 0.00126397 0)
(0 0.000687919 0)
(0 0.00144375 0)
(0 0.000885773 0)
(0 0.000736068 0)
(0 0.00160267 0)
(0 0.00158118 0)
(0 0.000945757 0)
(0 0.000857129 0)
(0 6.33583e-05 0)
(0 0.00138794 0)
(0 0.00165385 0)
(0 4.61874e-05 0)
(0 0.00154273 0)
(0 0.000757566 0)
(0 0.000794101 0)
(0 0.000922597 0)
(0 0.000377117 0)
(0 0.00108914 0)
(0 0.00103264 0)
(0 0.00134443 0)
(0 0.000822897 0)
(0 0.000738726 0)
(0 0.000550548 0)
(0 1.68438e-05 0)
(0 1.61066e-05 0)
(0 0.000755921 0)
(0 9.98688e-05 0)
(0 0.000465174 0)
(0 0.00155012 0)
(0 0.000629006 0)
(0 0.00123813 0)
(0 0.00135588 0)
(0 0.00139688 0)
(0 0.00144871 0)
(0 0.00072406 0)
(0 0.00122588 0)
(0 0.00165023 0)
(0 0.00118621 0)
(0 0.000851643 0)
(0 0.000918751 0)
(0 0.00147712 0)
(0 0.000872331 0)
(0 8.87224e-05 0)
(0 0.00108033 0)
(0 0.000806537 0)
(0 0.000559579 0)
(0 0.000456607 0)
(0 0.0011484 0)
(0 0.00110347 0)
(0 0.00126352 0)
(0 0.000803606 0)
(0 0.00142191 0)
(0 0.000686728 0)
(0 0.00110388 0)
(0 0.00120876 0)
(0 0.000576949 0)
(0 6.66792e-05 0)
(0 0.000865513 0)
(0 2.71789e-05 0)
(0 3.55886e-05 0)
(0 0.000750535 0)
(0 0.00107438 0)
(0 0.00126374 0)
(0 0.000699312 0)
(0 0.00049406 0)
(0 0.00101708 0)
(0 0.000793186 0)
(0 9.9425e-05 0)
(0 8.18417e-05 0)
(0 0.000878578 0)
(0 0.0013214 0)
(0 0.000212673 0)
(0 0.000443061 0)
(0 0.00146198 0)
(0 3.67763e-05 0)
(0 9.26445e-05 0)
(0 0.000177991 0)
(0 0.000441821 0)
(0 0.000804184 0)
(0 0.00109032 0)
(0 0.000848003 0)
(0 0.000226172 0)
(0 0.000826673 0)
(0 0.000648019 0)
(0 0.00163169 0)
(0 0.00130706 0)
(0 0.000102527 0)
(0 1.52973e-05 0)
(0 0.0014596 0)
(0 0.000967468 0)
(0 0.000840381 0)
(0 0.000287197 0)
(0 0.00106215 0)
(0 0.000844621 0)
(0 0.00171483 0)
(0 0.00162858 0)
(0 9.34151e-05 0)
(0 0.000127723 0)
(0 0.000729631 0)
(0 0.00101564 0)
(0 0.00094316 0)
(0 0.00144686 0)
(0 0.00171041 0)
(0 0.000129379 0)
(0 0.000712824 0)
(0 0.000949901 0)
(0 0.00113405 0)
(0 0.00102909 0)
(0 0.00141256 0)
(0 0.00107354 0)
(0 0.00129357 0)
(0 0.000999163 0)
(0 0.000871523 0)
(0 0.0011929 0)
(0 9.60943e-05 0)
(0 0.000912768 0)
(0 8.84727e-05 0)
(0 4.21364e-05 0)
(0 0.000254897 0)
(0 0.000984122 0)
(0 0.00160256 0)
(0 0.000718999 0)
(0 0.000529256 0)
(0 0.000670671 0)
(0 0.000736205 0)
(0 0.00140697 0)
(0 0.00143807 0)
(0 0.000491096 0)
(0 0.000875451 0)
(0 0.000140794 0)
(0 0.000842024 0)
(0 0.000111531 0)
(0 0.00123322 0)
(0 0.000837801 0)
(0 0.00100957 0)
(0 0.00116419 0)
(0 0.00107839 0)
(0 0.00139918 0)
(0 0.000649978 0)
(0 2.94943e-05 0)
(0 0.00104729 0)
(0 0.000916694 0)
(0 0.000834664 0)
(0 0.000951289 0)
(0 0.000908953 0)
(0 0.00112669 0)
(0 0.00142417 0)
(0 0.00173836 0)
(0 0.000942943 0)
(0 0.00120951 0)
(0 3.08791e-05 0)
(0 0.000633053 0)
(0 0.000608406 0)
(0 0.000382095 0)
(0 0.000624197 0)
(0 0.00105894 0)
(0 0.00150281 0)
(0 0.000873813 0)
(0 0.000115876 0)
(0 0.00111224 0)
(0 0.00138864 0)
(0 9.13485e-05 0)
(0 0.00162052 0)
(0 0.00144136 0)
(0 0.000907709 0)
(0 0.000897936 0)
(0 0.000459607 0)
(0 0.00122823 0)
(0 0.00151288 0)
(0 0.000958747 0)
(0 0.00164162 0)
(0 0.000689751 0)
(0 5.13632e-05 0)
(0 0.00108774 0)
(0 0.000923866 0)
(0 0.00167667 0)
(0 0.000248615 0)
(0 0.00100148 0)
(0 4.30008e-05 0)
(0 0.000141079 0)
(0 0.000659575 0)
(0 0.000930123 0)
(0 0.00108361 0)
(0 0.00174197 0)
(0 0.000910757 0)
(0 0.000381922 0)
(0 0.00119065 0)
(0 0.000895303 0)
(0 0.00053549 0)
(0 6.04286e-05 0)
(0 0.000158674 0)
(0 0.000834249 0)
(0 0.000733769 0)
(0 0.00117619 0)
(0 0.000737593 0)
(0 0.000808851 0)
(0 0.00114455 0)
(0 0.000484324 0)
(0 0.0012739 0)
(0 0.00125673 0)
(0 0.00106831 0)
(0 0.000462306 0)
(0 0.000763459 0)
(0 0.00100782 0)
(0 0.000684769 0)
(0 0.00130108 0)
(0 0.000700009 0)
(0 0.00128339 0)
(0 0.00159641 0)
(0 0.000952858 0)
(0 0.00159363 0)
(0 0.00136865 0)
(0 0.00125797 0)
(0 0.000766678 0)
(0 0.00105704 0)
(0 0.000216765 0)
(0 0.00103762 0)
(0 0.000505448 0)
(0 0.000904336 0)
(0 0.00143264 0)
(0 0.000969093 0)
(0 0.000560376 0)
(0 0.000708501 0)
(0 0.00022054 0)
(0 0.00105064 0)
(0 0.00040147 0)
(0 0.00136027 0)
(0 0.000730061 0)
(0 0.00137327 0)
(0 0.00136175 0)
(0 0.00163242 0)
(0 9.90309e-05 0)
(0 0.0013818 0)
(0 0.00010002 0)
(0 0.000919998 0)
(0 0.00163338 0)
(0 0.00132038 0)
(0 0.000627887 0)
(0 0.000615487 0)
(0 0.00131915 0)
(0 0.000985847 0)
(0 0.00116242 0)
(0 0.00145076 0)
(0 0.000549925 0)
(0 0.0016133 0)
(0 0.0013397 0)
(0 0.000589063 0)
(0 0.00121196 0)
(0 0.000723587 0)
(0 0.000782104 0)
(0 5.16381e-05 0)
(0 0.00149806 0)
(0 0.000133877 0)
(0 0.00156686 0)
(0 0.000473977 0)
(0 0.000850044 0)
(0 0.0014285 0)
(0 0.000844073 0)
(0 0.000875534 0)
(0 8.53526e-05 0)
(0 0.00132854 0)
(0 0.000698715 0)
(0 0.00166361 0)
(0 0.00089916 0)
(0 0.00103405 0)
(0 2.57242e-05 0)
(0 8.77398e-05 0)
(0 2.73626e-05 0)
(0 0.00140504 0)
(0 0.00122812 0)
(0 0.00138714 0)
(0 0.00155111 0)
(0 0.000454823 0)
(0 0.000185123 0)
(0 0.00145469 0)
(0 0.00103991 0)
(0 0.000223091 0)
(0 0.000561856 0)
(0 0.00163793 0)
(0 0.00143045 0)
(0 0.000937529 0)
(0 0.00160217 0)
(0 0.00162187 0)
(0 5.24752e-05 0)
(0 4.87987e-05 0)
(0 0.00100346 0)
(0 0.00144431 0)
(0 0.00105717 0)
(0 0.000113428 0)
(0 0.000127344 0)
(0 0.00134881 0)
(0 0.00128661 0)
(0 0.00117214 0)
(0 1.26533e-05 0)
(0 0.000574242 0)
(0 6.73333e-05 0)
(0 0.00163675 0)
(0 0.000945755 0)
(0 0.000799328 0)
(0 0.001292 0)
(0 0.001394 0)
(0 0.00136651 0)
(0 0.00146376 0)
(0 0.00140697 0)
(0 0.000550474 0)
(0 0.00122075 0)
(0 0.000546071 0)
(0 0.000835548 0)
(0 0.00060792 0)
(0 0.00161011 0)
(0 0.00099839 0)
(0 0.000790321 0)
(0 0.000363195 0)
(0 0.0014326 0)
(0 0.000939863 0)
(0 0.00134559 0)
(0 0.000378909 0)
(0 0.00116379 0)
(0 0.000906207 0)
(0 0.000309458 0)
(0 0.00113768 0)
(0 0.00163897 0)
(0 0.000450482 0)
(0 0.000954259 0)
(0 0.00131815 0)
(0 0.00132706 0)
(0 0.0012453 0)
(0 0.000918653 0)
(0 1.97997e-05 0)
(0 0.000269256 0)
(0 0.00137181 0)
(0 0.000380358 0)
(0 0.000516249 0)
(0 0.00154178 0)
(0 0.000715867 0)
(0 0.00113928 0)
(0 0.000938881 0)
(0 0.00119405 0)
(0 1.79913e-05 0)
(0 0.000485849 0)
(0 0.0016668 0)
(0 0.000802779 0)
(0 0.000260005 0)
(0 4.99548e-05 0)
(0 0.00131191 0)
(0 0.000838151 0)
(0 0.00168449 0)
(0 0.000983767 0)
(0 0.00120137 0)
(0 0.00126342 0)
(0 0.000127587 0)
(0 0.00151702 0)
(0 0.00160875 0)
(0 0.00165684 0)
(0 0.00055674 0)
(0 0.000601276 0)
(0 0.00142334 0)
(0 0.000798538 0)
(0 4.62027e-05 0)
(0 0.000590723 0)
(0 0.00152714 0)
(0 0.00105949 0)
(0 0.000980038 0)
(0 0.00164937 0)
(0 0.000365129 0)
(0 0.000931997 0)
(0 0.000114196 0)
(0 0.000771124 0)
(0 0.00121866 0)
(0 0.000274456 0)
(0 0.000404825 0)
(0 8.88286e-05 0)
(0 0.000806022 0)
(0 0.000892802 0)
(0 0.000693087 0)
(0 0.00103619 0)
(0 0.00078073 0)
(0 0.00111842 0)
(0 0.00110888 0)
(0 0.00095447 0)
(0 0.000428737 0)
(0 0.00150893 0)
(0 0.0012283 0)
(0 0.000394594 0)
(0 0.000125867 0)
(0 0.00102954 0)
(0 0.000818347 0)
(0 0.000822073 0)
(0 0.00111193 0)
(0 0.00150571 0)
(0 0.000822013 0)
(0 0.000746272 0)
(0 0.000878796 0)
(0 0.000769948 0)
(0 0.001418 0)
(0 0.00105539 0)
(0 0.00081857 0)
(0 0.00113613 0)
(0 0.00104641 0)
(0 0.00174302 0)
(0 0.00106035 0)
(0 0.00103766 0)
(0 0.000679694 0)
(0 0.000147957 0)
(0 0.000800263 0)
(0 0.000940798 0)
(0 0.00149728 0)
(0 0.00151781 0)
(0 0.00119112 0)
(0 0.0010501 0)
(0 6.10854e-06 0)
(0 0.00126814 0)
(0 0.00104473 0)
(0 0.000428105 0)
(0 0.00113103 0)
(0 0.00016045 0)
(0 0.000780193 0)
(0 7.11899e-05 0)
(0 0.000911413 0)
(0 0.00114166 0)
(0 0.000739815 0)
(0 0.000585565 0)
(0 9.0111e-05 0)
(0 0.00107888 0)
(0 0.000793765 0)
(0 0.00084334 0)
(0 0.000360904 0)
(0 5.43928e-05 0)
(0 0.000378638 0)
(0 0.00113642 0)
(0 0.00105324 0)
(0 0.000394743 0)
(0 0.000715167 0)
(0 0.0001585 0)
(0 9.63943e-05 0)
(0 0.000827432 0)
(0 0.00165106 0)
(0 0.000600442 0)
(0 0.000452765 0)
(0 0.000479342 0)
(0 5.95479e-05 0)
(0 0.00137705 0)
(0 0.000273203 0)
(0 0.00149457 0)
(0 0.000111158 0)
(0 2.69532e-05 0)
(0 0.00035676 0)
(0 0.00094286 0)
(0 0.000468646 0)
(0 0.000579024 0)
(0 0.00159733 0)
(0 0.00162924 0)
(0 0.00136132 0)
(0 0.000857112 0)
(0 0.00149905 0)
(0 0.00121646 0)
(0 0.00042237 0)
(0 4.95201e-05 0)
(0 0.00163983 0)
(0 0.000677676 0)
(0 0.000811939 0)
(0 0.000374438 0)
(0 0.0008455 0)
(0 0.000818294 0)
(0 0.00130669 0)
(0 0.000431286 0)
(0 0.0017086 0)
(0 0.00102691 0)
(0 0.000591879 0)
(0 0.00105276 0)
(0 0.000933278 0)
(0 0.00106511 0)
(0 0.000259273 0)
(0 0.00149534 0)
(0 0.0012835 0)
(0 0.00102171 0)
(0 0.000584944 0)
(0 0.00110701 0)
(0 0.0014213 0)
(0 0.000483924 0)
(0 0.00030984 0)
(0 0.000963282 0)
(0 0.000923092 0)
(0 0.00122387 0)
(0 0.00158051 0)
(0 0.000903474 0)
(0 0.00163197 0)
(0 0.000859848 0)
(0 0.00129742 0)
(0 0.00137562 0)
(0 0.00172163 0)
(0 0.000637465 0)
(0 0.000467869 0)
(0 8.5259e-05 0)
(0 0.00137268 0)
(0 0.000394376 0)
(0 0.00134346 0)
(0 0.000392456 0)
(0 0.0014924 0)
(0 0.000686325 0)
(0 0.00111151 0)
(0 0.000526122 0)
(0 0.000917991 0)
(0 0.000547036 0)
(0 0.00175465 0)
(0 0.000946062 0)
(0 0.00168267 0)
(0 0.00136676 0)
(0 0.000365357 0)
(0 0.000404009 0)
(0 5.66646e-05 0)
(0 0.00106458 0)
(0 0.00120325 0)
(0 0.00148709 0)
(0 0.000268494 0)
(0 0.00087105 0)
(0 0.000941775 0)
(0 0.0010477 0)
(0 0.00104659 0)
(0 0.00129457 0)
(0 0.000310242 0)
(0 0.000175903 0)
(0 0.000792566 0)
(0 0.00062496 0)
(0 0.00125289 0)
(0 0.00122999 0)
(0 0.000340429 0)
(0 0.000967693 0)
(0 0.000464662 0)
(0 0.00160799 0)
(0 0.00110755 0)
(0 8.662e-05 0)
(0 0.00135747 0)
(0 0.000958006 0)
(0 0.000433975 0)
(0 0.000788321 0)
(0 0.00147991 0)
(0 0.00171021 0)
(0 0.00155072 0)
(0 0.00123092 0)
(0 0.000122347 0)
(0 0.0010637 0)
(0 0.00164024 0)
(0 0.000694323 0)
(0 0.000789564 0)
(0 0.000875763 0)
(0 0.000319631 0)
(0 0.0016594 0)
(0 0.000468577 0)
(0 0.00167899 0)
(0 0.00066692 0)
(0 0.0014884 0)
(0 0.00101093 0)
(0 0.000873546 0)
(0 0.00105113 0)
(0 0.000906382 0)
(0 0.000782572 0)
(0 0.000820401 0)
(0 0.000812853 0)
(0 0.000337886 0)
(0 0.000388096 0)
(0 0.00151162 0)
(0 0.000869778 0)
(0 0.00175379 0)
(0 0.00104057 0)
(0 0.00172565 0)
(0 0.000853539 0)
(0 0.000992503 0)
(0 0.00115729 0)
(0 0.00143029 0)
(0 0.00105604 0)
(0 0.00035311 0)
(0 0.00083217 0)
(0 0.00155531 0)
(0 0.00172491 0)
(0 0.00114201 0)
(0 0.000796912 0)
(0 0.00116279 0)
(0 0.00105445 0)
(0 0.000927366 0)
(0 0.000269908 0)
(0 5.14366e-05 0)
(0 0.000378767 0)
(0 0.00101574 0)
(0 0.000567777 0)
(0 0.00124693 0)
(0 0.000147221 0)
(0 8.64935e-05 0)
(0 0.000321087 0)
(0 0.000566088 0)
(0 0.000513081 0)
(0 0.000990689 0)
(0 0.000109261 0)
(0 1.01299e-05 0)
(0 0.000375064 0)
(0 0.000792996 0)
(0 8.1326e-05 0)
(0 0.000754891 0)
(0 0.00108195 0)
(0 0.000821973 0)
(0 0.000871173 0)
(0 0.000555737 0)
(0 0.00130984 0)
(0 0.00089572 0)
(0 0.000887521 0)
(0 0.000127169 0)
(0 0.00170314 0)
(0 7.16542e-05 0)
(0 0.00143878 0)
(0 0.00111458 0)
(0 0.00121214 0)
(0 0.000366316 0)
(0 0.000792442 0)
(0 0.000890426 0)
(0 0.00173242 0)
(0 0.000457675 0)
(0 0.00167472 0)
(0 0.00121278 0)
(0 0.000798676 0)
(0 0.000137454 0)
(0 0.000400749 0)
(0 0.00105574 0)
(0 0.00107705 0)
(0 0.000812636 0)
(0 0.000604873 0)
(0 0.0010206 0)
(0 0.00084552 0)
(0 0.00147577 0)
(0 0.00140677 0)
(0 0.000102767 0)
(0 0.000989104 0)
(0 0.000987579 0)
(0 0.000864964 0)
(0 0.00103586 0)
(0 5.24682e-05 0)
(0 0.0011144 0)
(0 0.00037673 0)
(0 0.0015232 0)
(0 0.000493699 0)
(0 5.23875e-05 0)
(0 0.000348676 0)
(0 0.000806802 0)
(0 0.000874633 0)
(0 0.000608728 0)
(0 0.00129468 0)
(0 0.00159024 0)
(0 0.000367413 0)
(0 0.000390912 0)
(0 0.00094904 0)
(0 0.00114211 0)
(0 0.00046319 0)
(0 0.00010578 0)
(0 0.000803595 0)
(0 0.000980762 0)
(0 0.000389128 0)
(0 0.00162221 0)
(0 0.000373646 0)
(0 0.00101913 0)
(0 0.000838818 0)
(0 0.00081912 0)
(0 0.00133023 0)
(0 0.0017424 0)
(0 0.000569486 0)
(0 0.0013595 0)
(0 0.00149258 0)
(0 0.000281294 0)
(0 0.000105016 0)
(0 0.00160198 0)
(0 0.00112556 0)
(0 0.000981012 0)
(0 0.000976152 0)
(0 8.11007e-05 0)
(0 0.00118221 0)
(0 0.000319982 0)
(0 0.00133 0)
(0 0.00163146 0)
(0 0.000367454 0)
(0 0.000991929 0)
(0 0.00112135 0)
(0 0.000475514 0)
(0 0.00142344 0)
(0 0.00141251 0)
(0 0.000649253 0)
(0 0.000382655 0)
(0 0.000384621 0)
(0 0.00062579 0)
(0 0.0012589 0)
(0 0.000738609 0)
(0 0.00131204 0)
(0 0.000548742 0)
(0 0.000848015 0)
(0 0.0012367 0)
(0 0.000352276 0)
(0 1.29278e-05 0)
(0 1.13084e-05 0)
(0 0.000607205 0)
(0 0.00140378 0)
(0 0.000945624 0)
(0 0.00060749 0)
(0 0.00150689 0)
(0 0.000748068 0)
(0 0.00108784 0)
(0 0.00139274 0)
(0 0.00119465 0)
(0 0.00135909 0)
(0 0.000793066 0)
(0 0.000623388 0)
(0 0.00104927 0)
(0 0.00111778 0)
(0 0.00123744 0)
(0 0.000697631 0)
(0 0.000281545 0)
(0 0.000973826 0)
(0 0.00158812 0)
(0 0.000991159 0)
(0 5.4143e-05 0)
(0 0.000489536 0)
(0 0.000677588 0)
(0 0.000923224 0)
(0 0.000186011 0)
(0 0.000697834 0)
(0 0.000921499 0)
(0 0.00150546 0)
(0 0.0010005 0)
(0 0.00081971 0)
(0 0.00113866 0)
(0 0.000805687 0)
(0 0.00101803 0)
(0 0.000439212 0)
(0 0.00116218 0)
(0 0.000583639 0)
(0 0.00169858 0)
(0 0.000508006 0)
(0 0.00114496 0)
(0 0.000814597 0)
(0 0.00113799 0)
(0 0.00166336 0)
(0 0.00112201 0)
(0 0.000396546 0)
(0 0.000973035 0)
(0 0.00082158 0)
(0 0.00143127 0)
(0 0.000128105 0)
(0 0.00166628 0)
(0 0.00087742 0)
(0 0.000665364 0)
(0 0.00172333 0)
(0 0.000890797 0)
(0 0.00160691 0)
(0 0.000982634 0)
(0 0.000857684 0)
(0 0.000785446 0)
(0 0.000811988 0)
(0 0.000395212 0)
(0 0.000924507 0)
(0 0.00125771 0)
(0 0.00149908 0)
(0 0.000414693 0)
(0 0.000906794 0)
(0 0.0001915 0)
(0 0.000323364 0)
(0 0.00173702 0)
(0 0.000920419 0)
(0 0.00101357 0)
(0 0.000851869 0)
(0 2.13831e-05 0)
(0 0.0002976 0)
(0 0.000937767 0)
(0 0.00137125 0)
(0 0.000602332 0)
(0 0.000337416 0)
(0 0.00173701 0)
(0 0.000927269 0)
(0 0.00120122 0)
(0 0.000353529 0)
(0 0.00109974 0)
(0 0.00111402 0)
(0 0.000671501 0)
(0 0.00115494 0)
(0 0.00108676 0)
(0 0.00146549 0)
(0 0.00174302 0)
(0 0.000866573 0)
(0 7.07299e-06 0)
(0 0.00112405 0)
(0 0.00167575 0)
(0 0.00092758 0)
(0 0.00154192 0)
(0 0.00110861 0)
(0 0.000959154 0)
(0 0.000518399 0)
(0 0.000976454 0)
(0 0.000986278 0)
(0 0.00107913 0)
(0 0.00104058 0)
(0 0.00164629 0)
(0 0.00147636 0)
(0 0.00109596 0)
(0 0.00154246 0)
(0 0.0008062 0)
(0 0.000682265 0)
(0 0.00149313 0)
(0 0.00107392 0)
(0 0.0011499 0)
(0 0.000852138 0)
(0 0.00141825 0)
(0 0.000122523 0)
(0 0.000931362 0)
(0 0.00147565 0)
(0 0.000368683 0)
(0 0.000600232 0)
(0 0.000743975 0)
(0 0.000448029 0)
(0 0.000972838 0)
(0 0.000594367 0)
(0 0.00169286 0)
(0 0.000994274 0)
(0 0.00174269 0)
(0 0.0015086 0)
(0 0.000270441 0)
(0 0.00172487 0)
(0 0.00152126 0)
(0 0.000598698 0)
(0 0.00138296 0)
(0 0.000667069 0)
(0 0.00170812 0)
(0 0.000989665 0)
(0 0.000635418 0)
(0 0.00111778 0)
(0 0.00160725 0)
(0 0.000696189 0)
(0 0.000928913 0)
(0 0.000970437 0)
(0 0.000874803 0)
(0 0.000349421 0)
(0 0.00108459 0)
(0 0.00139418 0)
(0 0.000130258 0)
(0 0.00150743 0)
(0 0.000834885 0)
(0 0.00111887 0)
(0 0.00010396 0)
(0 0.000802583 0)
(0 0.000391889 0)
(0 0.00160922 0)
(0 0.00115219 0)
(0 0.000117224 0)
(0 0.000475713 0)
(0 0.00137885 0)
(0 0.00173186 0)
(0 0.000855122 0)
(0 0.000499447 0)
(0 0.000927144 0)
(0 0.000762485 0)
(0 0.000409513 0)
(0 0.00115721 0)
(0 0.000191907 0)
(0 0.00116214 0)
(0 0.00100967 0)
(0 0.000433413 0)
(0 0.000699422 0)
(0 0.000281648 0)
(0 0.000384447 0)
(0 0.000831701 0)
(0 3.19541e-05 0)
(0 0.00140827 0)
(0 0.000691572 0)
(0 0.00117249 0)
(0 0.000986444 0)
(0 0.00127241 0)
(0 0.000923197 0)
(0 0.00118059 0)
(0 0.00162129 0)
(0 0.00147636 0)
(0 0.00142031 0)
(0 0.00129433 0)
(0 0.000914393 0)
(0 0.000281439 0)
(0 0.000860123 0)
(0 0.000284432 0)
(0 0.000280054 0)
(0 0.000415341 0)
(0 0.00103218 0)
(0 0.0014779 0)
(0 0.000993076 0)
(0 0.000276832 0)
(0 0.000962155 0)
(0 0.00157782 0)
(0 2.94337e-05 0)
(0 0.000851416 0)
(0 0.000424707 0)
(0 0.00128862 0)
(0 0.00172998 0)
(0 0.000288183 0)
(0 0.000866797 0)
(0 0.00106878 0)
(0 0.00143788 0)
(0 0.000879052 0)
(0 0.00143804 0)
(0 0.00101925 0)
(0 0.000871569 0)
(0 0.00082656 0)
(0 0.000828634 0)
(0 0.00036921 0)
(0 1.57145e-05 0)
(0 0.000643423 0)
(0 0.00157858 0)
(0 0.000290721 0)
(0 0.000741048 0)
(0 0.000290344 0)
(0 0.000624678 0)
(0 0.000782818 0)
(0 0.00110725 0)
(0 0.000201171 0)
(0 0.000671271 0)
(0 0.00163192 0)
(0 0.000815074 0)
(0 0.000582265 0)
(0 0.000802671 0)
(0 0.000847425 0)
(0 0.000792797 0)
(0 0.00156727 0)
(0 9.70614e-05 0)
(0 0.000127506 0)
(0 0.00076305 0)
(0 0.00148869 0)
(0 0.000883581 0)
(0 0.000387339 0)
(0 0.00129021 0)
(0 0.00173952 0)
(0 5.32384e-05 0)
(0 0.000816044 0)
(0 0.000996889 0)
(0 0.000961688 0)
(0 0.00103336 0)
(0 0.00133216 0)
(0 0.0017061 0)
(0 0.000787773 0)
(0 0.00137347 0)
(0 0.000465108 0)
(0 0.000798858 0)
(0 0.000810143 0)
(0 0.000299718 0)
(0 0.000581343 0)
(0 0.000270078 0)
(0 0.000243956 0)
(0 5.52062e-05 0)
(0 0.00101482 0)
(0 0.000275698 0)
(0 0.000728265 0)
(0 0.000716254 0)
(0 0.000583599 0)
(0 0.000862705 0)
(0 0.000270024 0)
(0 0.000516546 0)
(0 0.000775055 0)
(0 0.00027947 0)
(0 0.0015822 0)
(0 0.00118545 0)
(0 9.26231e-05 0)
(0 0.000626448 0)
(0 0.000685339 0)
(0 0.000282208 0)
(0 0.000341072 0)
(0 0.000560862 0)
(0 0.000790121 0)
(0 0.00033069 0)
(0 0.000905461 0)
(0 0.000634368 0)
(0 0.000947028 0)
(0 0.00102209 0)
(0 0.0016342 0)
(0 0.000627107 0)
(0 0.00143479 0)
(0 0.000605577 0)
(0 0.000311401 0)
(0 0.000351484 0)
(0 0.000599685 0)
(0 0.000289354 0)
(0 0.000954805 0)
(0 0.00037353 0)
(0 0.00171457 0)
(0 0.00147306 0)
(0 0.00107481 0)
(0 0.00113586 0)
(0 0.000675017 0)
(0 0.000525902 0)
(0 0.000137625 0)
(0 5.68303e-05 0)
(0 0.00116661 0)
(0 0.00118116 0)
(0 6.09311e-05 0)
(0 0.00143995 0)
(0 0.00121406 0)
(0 0.000836595 0)
(0 0.000316255 0)
(0 0.00113557 0)
(0 0.00123425 0)
(0 0.000251878 0)
(0 0.00103145 0)
(0 0.0017406 0)
(0 0.00140022 0)
(0 0.000286202 0)
(0 0.0002864 0)
(0 0.00027369 0)
(0 0.00170242 0)
(0 0.000792517 0)
(0 0.00107412 0)
(0 0.000299974 0)
(0 0.000922605 0)
(0 0.000755774 0)
(0 0.000981364 0)
(0 0.000775008 0)
(0 0.000934454 0)
(0 0.000900447 0)
(0 0.000666126 0)
(0 0.00066381 0)
(0 0.000713388 0)
(0 0.000367665 0)
(0 0.000904063 0)
(0 1.9007e-05 0)
(0 0.000856866 0)
(0 0.000262445 0)
(0 0.0011863 0)
(0 0.000907754 0)
(0 0.00111509 0)
(0 0.00061179 0)
(0 0.00149767 0)
(0 2.732e-05 0)
(0 0.000903489 0)
(0 0.000982455 0)
(0 0.000589652 0)
(0 0.000889215 0)
(0 0.00052973 0)
(0 0.00169681 0)
(0 0.000763786 0)
(0 0.000735103 0)
(0 0.00143555 0)
(0 0.000625106 0)
(0 0.000248609 0)
(0 0.000652275 0)
(0 0.00103928 0)
(0 0.000605875 0)
(0 0.000889514 0)
(0 0.000431013 0)
(0 0.00128097 0)
(0 0.000726843 0)
(0 0.00144654 0)
(0 0.000104076 0)
(0 0.00078887 0)
(0 0.000598682 0)
(0 0.00110657 0)
(0 0.00169536 0)
(0 0.000354387 0)
(0 0.00160081 0)
(0 0.000302649 0)
(0 0.00168294 0)
(0 0.000885173 0)
(0 0.00080142 0)
(0 0.00145536 0)
(0 0.000693418 0)
(0 0.00134884 0)
(0 0.000321699 0)
(0 0.000396553 0)
(0 0.000280413 0)
(0 0.000774507 0)
(0 0.00083296 0)
(0 0.000450644 0)
(0 0.000316434 0)
(0 0.000622149 0)
(0 0.000286193 0)
(0 0.000831595 0)
(0 0.000110054 0)
(0 0.00079383 0)
(0 0.00117875 0)
(0 0.000507118 0)
(0 0.00145322 0)
(0 0.000387202 0)
(0 0.00052581 0)
(0 0.000281226 0)
(0 0.000257983 0)
(0 0.00167286 0)
(0 0.000886568 0)
(0 0.000690255 0)
(0 0.000860003 0)
(0 0.000334961 0)
(0 0.00109434 0)
(0 0.000880548 0)
(0 0.00172088 0)
(0 0.000907969 0)
(0 0.00127993 0)
(0 0.00149774 0)
(0 5.43231e-05 0)
(0 0.000796079 0)
(0 0.000871177 0)
(0 0.00162644 0)
(0 0.000798128 0)
(0 0.00160107 0)
(0 0.000651271 0)
(0 0.00094029 0)
(0 0.000907985 0)
(0 0.00148513 0)
(0 0.00112477 0)
(0 0.000358868 0)
(0 0.00144061 0)
(0 5.16167e-05 0)
(0 0.000997275 0)
(0 0.000590556 0)
(0 0.000697939 0)
(0 0.00103335 0)
(0 0.000774224 0)
(0 0.000811664 0)
(0 0.000756595 0)
(0 0.000621612 0)
(0 0.000756496 0)
(0 5.90379e-05 0)
(0 0.000873786 0)
(0 0.00144782 0)
(0 0.000881845 0)
(0 0.000812419 0)
(0 0.00050901 0)
(0 0.000934405 0)
(0 0.000620649 0)
(0 0.0006633 0)
(0 0.000651286 0)
(0 0.000835707 0)
(0 0.00085046 0)
(0 0.000445801 0)
(0 0.000922469 0)
(0 0.000838745 0)
(0 0.000667196 0)
(0 0.000375619 0)
(0 0.000327506 0)
(0 0.000691082 0)
(0 5.45697e-05 0)
(0 0.000800519 0)
(0 0.000786975 0)
(0 0.000984875 0)
(0 0.00156841 0)
(0 5.1776e-05 0)
(0 0.000811795 0)
(0 0.000951567 0)
(0 0.0013286 0)
(0 0.000859108 0)
(0 0.000884344 0)
(0 0.000768237 0)
(0 0.000314547 0)
(0 0.00064406 0)
(0 0.000624905 0)
(0 0.00150298 0)
(0 0.000811325 0)
(0 0.000700778 0)
(0 0.00065506 0)
(0 0.000667048 0)
(0 0.0012048 0)
(0 0.000240757 0)
(0 0.000680601 0)
(0 0.000886348 0)
(0 0.000892717 0)
(0 0.000738885 0)
(0 0.000818927 0)
(0 0.00117874 0)
(0 0.000989938 0)
(0 0.000951307 0)
(0 0.000888214 0)
(0 0.00109893 0)
(0 2.60374e-05 0)
(0 0.000480774 0)
(0 0.000267185 0)
(0 0.000484404 0)
(0 5.95217e-05 0)
(0 0.000714185 0)
(0 0.000664062 0)
(0 0.000705776 0)
(0 0.000782365 0)
(0 0.000772062 0)
(0 0.000752763 0)
(0 0.000876459 0)
(0 0.000979783 0)
(0 0.000885406 0)
(0 0.00117243 0)
(0 0.000623199 0)
(0 0.000588245 0)
(0 0.00089494 0)
(0 7.84656e-05 0)
(0 0.00116455 0)
(0 2.7613e-05 0)
(0 0.0011198 0)
(0 0.000976147 0)
(0 0.000859548 0)
(0 0.000327522 0)
(0 0.000697587 0)
(0 0.00100001 0)
(0 0.00107354 0)
(0 0.000471967 0)
(0 0.000847445 0)
(0 0.000347952 0)
(0 0.000809425 0)
(0 0.00093902 0)
(0 2.23187e-05 0)
(0 0.00036954 0)
(0 0.000812503 0)
(0 0.000637128 0)
(0 0.000392195 0)
(0 0.00105981 0)
(0 0.00085643 0)
(0 0.000877288 0)
(0 0.000775234 0)
(0 0.000675804 0)
(0 0.000107201 0)
(0 0.00071148 0)
(0 0.00162029 0)
(0 0.000874026 0)
(0 0.000980264 0)
(0 0.000666421 0)
(0 0.000810189 0)
(0 0.000466195 0)
(0 0.00106613 0)
(0 0.000701491 0)
(0 0.00105955 0)
(0 0.000767485 0)
(0 0.000649629 0)
(0 0.000733437 0)
(0 6.29675e-05 0)
(0 0.000483348 0)
(0 0.000943238 0)
(0 0.00175085 0)
(0 0.00148437 0)
(0 0.000611757 0)
(0 0.00104701 0)
(0 0.000730585 0)
(0 0.00100878 0)
(0 0.000136052 0)
(0 0.000780778 0)
(0 0.000901852 0)
(0 0.000983554 0)
(0 0.000113562 0)
(0 0.00097938 0)
(0 0.000957473 0)
(0 0.000406637 0)
(0 0.000993868 0)
(0 0.00095259 0)
(0 0.00109499 0)
(0 0.000306088 0)
(0 0.0017192 0)
(0 0.000469215 0)
(0 0.00056152 0)
(0 0.000904752 0)
(0 0.00079375 0)
(0 0.00119099 0)
(0 0.00119886 0)
(0 0.000723825 0)
(0 0.00067961 0)
(0 0.00171728 0)
(0 0.00096024 0)
(0 0.000513163 0)
(0 0.0010769 0)
(0 0.00102194 0)
(0 0.00102571 0)
(0 0.000630934 0)
(0 0.000975342 0)
(0 0.000784654 0)
(0 0.000847997 0)
(0 0.000731799 0)
(0 0.00158347 0)
(0 0.00137192 0)
(0 0.000785471 0)
(0 0.000628921 0)
(0 0.000335507 0)
(0 0.000824961 0)
(0 0.000718457 0)
(0 0.000893681 0)
(0 0.000964051 0)
(0 0.00069089 0)
(0 0.00126089 0)
(0 0.0016685 0)
(0 0.000998985 0)
(0 0.00101754 0)
(0 0.000881188 0)
(0 5.58438e-05 0)
(0 0.000743318 0)
(0 0.000866423 0)
(0 0.000717338 0)
(0 0.000620898 0)
(0 0.000258416 0)
(0 0.000996702 0)
(0 0.00150954 0)
(0 0.000900312 0)
(0 0.000846353 0)
(0 0.000916792 0)
(0 0.000937081 0)
(0 0.000333093 0)
(0 0.000617254 0)
(0 0.000764068 0)
(0 0.000942901 0)
(0 0.00165948 0)
(0 0.000685224 0)
(0 0.000891693 0)
(0 0.00122825 0)
(0 0.000817486 0)
(0 0.000722558 0)
(0 0.001079 0)
(0 0.000645434 0)
(0 0.000949571 0)
(0 0.00101514 0)
(0 0.000914036 0)
(0 0.00117373 0)
(0 0.001383 0)
(0 0.000947445 0)
(0 0.000641407 0)
(0 0.000869021 0)
(0 0.000183518 0)
(0 0.00076272 0)
(0 0.00106853 0)
(0 0.000315031 0)
(0 0.00117285 0)
(0 0.000847086 0)
(0 0.000817417 0)
(0 0.00112502 0)
(0 0.00111891 0)
(0 0.000809295 0)
(0 0.00107872 0)
(0 0.00123865 0)
(0 0.00097913 0)
(0 0.00149858 0)
(0 0.00087716 0)
(0 0.000905814 0)
(0 0.000687253 0)
(0 0.00139864 0)
(0 0.000851893 0)
(0 0.0012583 0)
(0 0.000961599 0)
(0 0.00111294 0)
(0 0.00162521 0)
(0 0.000979556 0)
(0 0.00038267 0)
(0 0.000606403 0)
(0 0.00120399 0)
(0 0.000438498 0)
(0 0.000994889 0)
(0 0.00144336 0)
(0 0.00127958 0)
(0 0.000300232 0)
(0 0.00103199 0)
(0 0.000638265 0)
(0 0.00168443 0)
(0 2.98659e-05 0)
(0 0.000977958 0)
(0 0.00126957 0)
(0 0.00110411 0)
(0 0.000270654 0)
(0 0.00162247 0)
(0 0.000915737 0)
(0 0.000417252 0)
(0 0.000889359 0)
(0 0.0007432 0)
(0 0.000981679 0)
(0 0.000284 0)
(0 0.0010082 0)
(0 0.00045014 0)
(0 0.000889167 0)
(0 0.000629318 0)
(0 0.000772267 0)
(0 0.00114927 0)
(0 0.000738718 0)
(0 0.00169026 0)
(0 0.00171491 0)
(0 0.00167722 0)
(0 0.00100617 0)
(0 0.00061228 0)
(0 0.000710069 0)
(0 0.000837065 0)
(0 0.000886649 0)
(0 0.000286925 0)
(0 0.000530205 0)
(0 0.00133183 0)
(0 0.000493425 0)
(0 0.00171016 0)
(0 0.00093111 0)
(0 0.00172351 0)
(0 0.00159776 0)
(0 0.00108943 0)
(0 0.000693245 0)
(0 0.000470155 0)
(0 0.0016031 0)
(0 0.00175286 0)
(0 0.00129164 0)
(0 0.000803808 0)
(0 0.00149892 0)
(0 0.000314212 0)
(0 0.000493244 0)
(0 0.00169582 0)
(0 0.000881034 0)
(0 5.17988e-05 0)
(0 3.77339e-05 0)
(0 0.000359431 0)
(0 0.000881571 0)
(0 0.00138127 0)
(0 0.00156887 0)
(0 0.00121581 0)
(0 0.000748145 0)
(0 0.00166852 0)
(0 0.000951387 0)
(0 0.00106509 0)
(0 6.09784e-05 0)
(0 0.000824132 0)
(0 5.72291e-05 0)
(0 0.00152647 0)
(0 0.000852919 0)
(0 0.000797772 0)
(0 0.00100311 0)
(0 0.000880776 0)
(0 0.000431171 0)
(0 0.00121082 0)
(0 0.000881236 0)
(0 0.000740067 0)
(0 0.00103132 0)
(0 2.56528e-05 0)
(0 0.000458097 0)
(0 0.000476521 0)
(0 0.000871345 0)
(0 0.000906265 0)
(0 0.000653354 0)
(0 0.000799906 0)
(0 0.000776684 0)
(0 0.000859659 0)
(0 0.0004039 0)
(0 0.000729333 0)
(0 0.000962264 0)
(0 0.0015273 0)
(0 0.000668233 0)
(0 0.000872948 0)
(0 0.000888617 0)
(0 0.00122396 0)
(0 0.000647803 0)
(0 0.000304128 0)
(0 0.000478816 0)
(0 0.00104566 0)
(0 0.000812636 0)
(0 0.000968132 0)
(0 0.00121811 0)
(0 0.000590698 0)
(0 0.000604972 0)
(0 0.000787894 0)
(0 0.000896152 0)
(0 0.00135471 0)
(0 0.000720689 0)
(0 0.000820842 0)
(0 0.000539768 0)
(0 0.000934068 0)
(0 0.00137937 0)
(0 0.0015466 0)
(0 0.000784208 0)
(0 0.000859037 0)
(0 0.00167884 0)
(0 0.000493898 0)