/*--------------------------------*- C++ -*----------------------------------*\
| =========                 |                                                 |
| \\      /  F ield         | OpenFOAM: The Open Source CFD Toolbox           |
|  \\    /   O peration     | Version:  v2012                                 |
|   \\  /    A nd           | Website:  www.openfoam.com                      |
|    \\/     M anipulation  |                                                 |
\*---------------------------------------------------------------------------*/
FoamFile
{
    version     2.0;
    format      ascii;
    class       volVectorField;
    location    "750";
    object      ddt0(U);
}
// * * * * * * * * * * * * * * * * * * * * * * * * * * * * * * * * * * * * * //

dimensions      [0 1 -2 0 0 0 0];


internalField   nonuniform List<vector> 
9793
(
(0.00711076 -0.0445254 -1.25017e-19)
(-0.0166138 -0.0797247 -3.84318e-20)
(0.00454855 -0.0472 1.1383e-18)
(0.00168878 -1.15302e-05 -2.47903e-20)
(0.0426285 -0.0579515 1.07925e-19)
(-0.000365247 0.00580282 3.91817e-19)
(0.000390809 6.76853e-06 1.10303e-18)
(0.000653429 5.99581e-05 -1.16468e-18)
(0.00279047 -0.000204547 5.39342e-19)
(0.044675 -0.0600774 2.97397e-19)
(0.027245 -0.00225709 3.41907e-19)
(0.0412323 0.0821395 1.50165e-18)
(0.00254511 -5.91417e-06 -7.96861e-20)
(0.000966974 -0.00203854 -2.30752e-19)
(-0.000564217 1.73352e-06 -2.7329e-20)
(0.000260052 -0.00186373 8.17868e-19)
(0.000600956 -0.00604394 1.2052e-18)
(-0.000364111 -0.00697396 2.33607e-19)
(0.0464969 -0.113434 -2.08538e-18)
(0.000547922 -0.00214313 -1.15336e-18)
(-0.103118 0.041054 4.95274e-20)
(-0.00116914 -0.00651204 2.69467e-19)
(-0.0261896 0.0606391 1.56126e-18)
(-0.000992781 0.00025486 1.87776e-21)
(0.00143602 -0.0046423 -1.16116e-18)
(0.00268319 -1.41243e-05 -6.63341e-20)
(-0.000845002 -0.00207036 -6.65856e-19)
(0.00226025 -0.00303124 7.23365e-20)
(0.0181279 -0.0160866 -5.55129e-18)
(0.00310843 -0.000258312 -6.39104e-19)
(0.0101393 0.021414 -7.90972e-19)
(-0.0231425 0.0573752 4.12592e-19)
(0.0378088 -0.00900249 -8.89676e-19)
(0.000290093 8.26825e-06 -4.51729e-19)
(0.0193608 -0.0193117 -2.44403e-18)
(-0.0976196 0.00610397 4.10028e-20)
(0.00104679 3.38469e-06 2.50973e-19)
(-0.0017602 -0.00619339 8.31984e-20)
(-0.000623263 0.000123238 -4.69743e-20)
(0.00116845 -3.70159e-05 8.9344e-21)
(0.0116753 0.0192393 6.15871e-19)
(-0.000491108 3.50192e-07 8.06576e-19)
(0.00240495 -6.03989e-06 1.15912e-19)
(0.000798417 7.41731e-06 1.05182e-18)
(0.00266031 -4.91024e-06 2.91351e-19)
(0.00273006 -1.2568e-05 2.69779e-19)
(0.020514 -0.0169106 4.47118e-18)
(0.0339946 -0.0110004 -8.20475e-19)
(0.0417431 -0.00632532 -9.46796e-20)
(0.0010218 -7.34732e-06 -2.75354e-20)
(0.0202121 -0.0204394 2.72196e-18)
(0.029445 -0.00635586 -8.62954e-19)
(-0.00241823 0.00548845 -4.7371e-19)
(0.00136711 -0.00156117 3.10412e-18)
(0.0429693 -0.0305114 -1.79067e-18)
(-0.119406 0.11288 1.3393e-18)
(0.00131458 5.16444e-05 -1.36775e-19)
(0.0372358 0.00901302 -1.1046e-17)
(0.0347684 -0.0186521 -8.56408e-19)
(0.000548106 0.00014063 4.24542e-19)
(0.000657879 -1.85147e-05 -3.30711e-19)
(-0.00431204 0.0035012 4.06954e-19)
(0.0552109 -0.0171435 9.80225e-20)
(0.00186055 -2.97899e-05 -8.91405e-20)
(0.0438399 -0.0714253 1.6574e-18)
(0.0423373 -0.0153709 -1.24399e-18)
(0.052745 -0.0167792 -2.87182e-20)
(0.0493619 -0.0146036 -1.27512e-19)
(0.0600918 0.0558016 8.72433e-20)
(0.0267835 -0.00343958 -1.64558e-18)
(0.0413237 -0.0325414 2.75881e-19)
(-0.000156177 2.80496e-05 1.07685e-20)
(0.00256023 0.000191956 -2.39472e-19)
(-0.0138354 -0.0493781 9.04182e-19)
(0.0203042 -0.0229556 -2.80259e-18)
(0.0406491 -0.0174326 6.05078e-19)
(0.00183285 -2.21041e-05 -1.19427e-19)
(-0.00413142 -0.00127004 7.81259e-20)
(0.00713908 0.00124772 1.07006e-18)
(0.00384037 -0.0026988 -1.33335e-19)
(0.0433077 -0.0169563 -1.43017e-19)
(0.00532134 0.00347808 -1.00947e-18)
(-0.00472774 -0.0680886 9.14594e-19)
(0.0239205 0.0101556 2.00491e-19)
(0.00892126 0.0170266 -4.62278e-19)
(0.0323081 -0.00341439 -1.8736e-19)
(0.00433755 -0.00323953 7.07355e-19)
(0.00208857 -0.00010363 -9.58044e-19)
(-0.00352158 0.00276426 1.64627e-19)
(0.00365304 0.00547015 -1.59605e-19)
(-0.0157748 -0.0969537 -2.40238e-18)
(0.0585366 -0.0462133 3.5631e-18)
(-0.000665722 0.00144293 -3.77871e-19)
(-0.0149111 0.064129 1.08526e-19)
(-0.00389961 0.00284385 -4.66102e-19)
(0.0215977 0.0152468 2.24405e-19)
(-0.12815 0.105482 -7.78323e-19)
(-0.00852544 -0.0798779 -4.4837e-20)
(-0.000758084 0.00119124 5.22376e-20)
(0.000514832 0.000950494 1.15916e-18)
(0.000587445 0.000876838 -8.2154e-19)
(-0.000241257 0.00503061 -1.44047e-19)
(-0.000859172 -0.000642888 3.21595e-19)
(-0.000661292 -0.000599759 -2.86773e-19)
(-0.00367221 -0.00136489 -1.27523e-19)
(0.00984182 0.0149384 7.21959e-19)
(-0.00261048 0.00221049 -1.61188e-19)
(0.0008587 -2.06192e-05 9.65786e-20)
(-0.00270185 0.00459548 -3.93376e-19)
(0.03249 -0.0242849 -9.9366e-20)
(-0.00013701 1.36662e-05 -3.1926e-21)
(-0.109373 0.108067 -7.31144e-20)
(-0.00112178 5.94836e-05 -2.36585e-19)
(-0.0441417 0.0112334 4.78034e-20)
(0.0292174 -0.00840822 2.43267e-18)
(0.00171031 2.3982e-05 -1.0756e-19)
(0.0491943 -0.00104852 1.87235e-18)
(0.0186684 -0.0240245 6.87691e-18)
(0.00627685 0.00381177 1.34682e-18)
(-0.0130215 0.0610368 -1.36764e-19)
(0.0340687 -0.0262184 -4.88721e-19)
(-0.000107141 -3.90635e-06 7.82427e-20)
(0.000555566 -0.000436846 2.1009e-19)
(0.000156116 0.00665039 1.20865e-19)
(0.00215438 -0.00274942 -5.2017e-18)
(-0.111764 0.0584127 5.31826e-20)
(0.0169181 0.00558081 -4.56845e-18)
(0.0328173 0.00132365 3.89995e-19)
(0.00804094 0.00114975 -2.25542e-19)
(0.00204021 -0.000132396 2.60684e-19)
(-0.000165881 3.0097e-06 -3.6421e-20)
(0.00210553 -5.56359e-05 -4.87621e-19)
(0.0020642 -0.000119762 -1.87594e-20)
(-0.00313088 0.00349593 3.54965e-19)
(0.00242545 -0.00019177 1.65272e-19)
(0.00192664 -0.000203933 -1.31229e-18)
(0.00238758 -2.28796e-05 5.68434e-20)
(0.000847343 6.33989e-06 -2.2269e-19)
(-0.000369359 5.45991e-05 -4.45792e-19)
(0.000139152 -6.44612e-05 -3.03661e-19)
(0.0010246 -0.000411722 -1.23897e-19)
(0.000393089 -0.00441853 5.73014e-19)
(0.00111284 -2.46844e-06 -3.07632e-20)
(0.00146759 0.000797198 -9.08061e-19)
(0.00126543 -0.00232102 -1.33817e-19)
(0.00144785 -0.00328851 4.60363e-19)
(-0.0354698 -0.0333329 4.93317e-19)
(0.00139411 0.000931186 5.89698e-19)
(-0.00104225 0.000644088 -5.3399e-19)
(0.0619493 -0.0435362 -7.22079e-18)
(0.125508 -0.0389668 -1.39366e-18)
(-0.000165661 2.06928e-06 8.0591e-20)
(0.143819 -0.0112102 3.72747e-19)
(0.0397427 -0.0659504 -4.31561e-19)
(-0.000927511 0.000501404 6.59461e-19)
(-0.000123978 5.67945e-06 -6.63545e-20)
(7.13086e-06 -3.16791e-05 4.57549e-19)
(0.000183338 -0.00400191 -4.20584e-19)
(0.00096962 0.000882514 -5.49044e-19)
(0.00114096 -5.84857e-06 1.55889e-20)
(0.00115157 9.45582e-05 2.48175e-19)
(0.00184066 -0.00327504 -1.43468e-18)
(-0.000635972 -0.00110669 6.4759e-19)
(0.0120691 -0.113684 7.35326e-18)
(-0.0273023 -0.0512882 -9.85085e-20)
(-0.110686 0.0259434 -1.55693e-20)
(0.0361573 -0.00655898 -3.72198e-20)
(0.00387803 -0.0117342 -1.38906e-18)
(-0.000816625 -0.00170774 3.70113e-19)
(0.000258323 0.00321254 3.12094e-19)
(0.000801879 8.94985e-05 -2.3648e-19)
(-0.0341382 0.116122 -6.43321e-18)
(-0.0301328 -0.0555253 5.81374e-19)
(-0.0429374 0.0780574 7.57238e-18)
(0.0026994 -0.00224914 8.01651e-19)
(0.0403538 -0.101839 3.43746e-19)
(0.00195885 -0.000152799 1.04301e-18)
(-0.000773183 7.22339e-06 -7.80819e-21)
(0.00114436 -3.09757e-05 2.13602e-20)
(0.0118776 -0.00638295 7.98497e-18)
(-0.083559 0.0853724 -2.18783e-17)
(0.00484553 -0.000684311 2.25224e-18)
(0.00087048 0.000990848 9.8484e-19)
(0.00115306 -0.00421749 5.76473e-19)
(0.0463434 0.0155668 2.11844e-18)
(0.00203157 0.000162754 3.40061e-20)
(0.0394859 0.00949409 1.09648e-17)
(0.00116164 2.42912e-06 -1.93963e-19)
(0.000259368 -0.000495529 6.63407e-19)
(-0.000403212 -0.00123566 -7.3405e-19)
(0.0028436 -0.00211339 -1.34946e-19)
(0.0024372 -2.49795e-05 -1.03336e-20)
(0.0411132 -0.0102714 -3.21556e-19)
(-0.112424 0.0890491 -2.18479e-19)
(0.0523355 -0.0141309 -7.33386e-20)
(0.0115395 -0.00600218 -5.31259e-18)
(0.0110766 -0.0604585 3.09774e-19)
(0.00195309 0.00284091 -6.42369e-19)
(0.0623895 -0.0435797 1.91289e-19)
(7.59411e-05 -6.06087e-05 5.6354e-19)
(0.00231307 -0.000226658 4.77164e-19)
(-0.0127015 -0.0959857 -3.1895e-18)
(-0.0972173 0.0820952 -1.55718e-18)
(0.00183369 -0.000179603 -3.23479e-20)
(0.00171668 -0.000261961 5.70391e-19)
(-0.00322821 -0.000784963 -4.85668e-20)
(-0.111102 0.0233711 4.06176e-19)
(0.0015153 -0.000703057 1.24069e-18)
(0.00788286 0.0131943 -2.06313e-18)
(0.0049425 -0.00389261 2.48917e-18)
(0.0118962 -0.0113932 7.43671e-18)
(0.0376275 -0.0114057 4.41046e-19)
(0.0453178 -0.00487086 -5.97419e-20)
(0.00189011 -0.00163912 -4.30217e-18)
(0.0052558 -0.0686383 -9.3915e-19)
(-1.39198e-06 -3.57809e-05 -3.89693e-19)
(-0.000867716 0.00302352 3.48997e-19)
(0.0563091 0.0150423 -2.1624e-18)
(-0.0028053 -0.000876603 6.62366e-20)
(0.093905 -0.0346684 3.10309e-18)
(0.0164809 -0.033292 5.09147e-19)
(0.00205636 -0.00029767 -8.55873e-19)
(0.00236541 -0.00259289 -1.01545e-18)
(0.00248808 -1.86684e-05 1.3439e-19)
(0.0279539 0.0095105 -4.16421e-19)
(0.00683772 -0.101328 -1.00545e-17)
(-0.00120503 0.0055738 -4.40021e-19)
(-0.000735474 0.000218858 5.79865e-19)
(0.0182001 -0.0312547 -5.75578e-19)
(0.0239477 -0.0056851 5.12334e-18)
(-0.00109669 9.17429e-05 1.21689e-20)
(-0.000935572 0.000118858 1.96949e-20)
(0.00537683 -0.000553957 -9.58053e-19)
(1.02601e-05 -5.0839e-05 4.29501e-20)
(0.0214405 0.00327253 1.03167e-17)
(0.0844851 -0.0294312 -2.64727e-18)
(0.00057237 1.0695e-05 4.53349e-20)
(0.000711493 -4.70491e-05 1.12971e-19)
(-0.140065 0.125815 1.80302e-18)
(0.00165007 0.00445962 5.46479e-19)
(0.00870782 0.0115752 1.38577e-18)
(0.001655 -0.00166703 1.35958e-18)
(0.000623638 -0.000366001 3.52455e-19)
(0.0404855 -0.0147357 -1.1077e-19)
(0.00124285 -4.80097e-05 3.15404e-19)
(-0.000955751 0.000832071 1.29884e-19)
(0.000885049 7.6108e-05 9.99223e-19)
(-0.000642137 -0.00400994 4.42288e-20)
(-0.000924535 0.00102256 -2.6256e-19)
(0.000341165 7.30014e-06 8.51461e-19)
(-0.000486511 -0.00218446 -5.7057e-19)
(0.00658813 -0.0057761 1.36324e-18)
(0.0274002 -0.00932321 3.53686e-18)
(0.0194983 0.004608 6.37339e-18)
(-1.65349e-05 -0.000286775 -4.83146e-19)
(-0.00515917 -0.00619315 -9.05308e-20)
(0.00120915 0.000290365 8.32326e-19)
(0.00707148 -0.00629085 1.58498e-18)
(0.00402443 0.00526341 -5.39589e-19)
(0.00157421 -0.000313245 1.29154e-19)
(0.0430683 -0.0262796 -3.64371e-18)
(0.00153863 1.00209e-05 3.59757e-20)
(0.0271069 -0.0112129 6.08202e-18)
(0.000388974 -3.17169e-06 -7.60133e-19)
(0.00465073 -0.012247 -3.87096e-19)
(-0.00194182 -0.00017378 -1.92288e-20)
(-0.00167128 -0.000267446 3.28454e-20)
(0.011387 -0.0124502 -9.31057e-19)
(-0.0337348 -0.0969549 4.42952e-18)
(-0.00302357 0.00205836 -7.19149e-19)
(0.00166968 -0.000151071 -2.35215e-19)
(-0.00022231 -0.000485003 -1.18625e-20)
(-0.0054982 -0.0132794 1.59769e-19)
(0.00233197 -0.000254192 1.44588e-19)
(-0.01822 -0.0955711 -5.33602e-19)
(-0.0233734 -0.0850226 4.2225e-19)
(0.00269422 -0.000173004 -8.31666e-20)
(-0.132107 0.0815965 -7.3908e-19)
(0.00308418 -2.71781e-05 -8.29119e-20)
(0.0187579 0.00581865 -1.56194e-17)
(-0.000999791 -0.00354553 -4.23539e-19)
(-0.00124615 -0.00014075 5.03216e-20)
(0.000615831 -6.52494e-06 2.18716e-19)
(0.00109253 -3.8545e-05 4.13859e-19)
(0.0160921 0.00642875 5.90087e-18)
(0.0021633 -0.000338484 -1.51882e-19)
(-0.000690941 -0.00204497 1.29114e-18)
(0.00561693 -0.0100557 -8.82142e-19)
(0.000522274 6.25881e-06 -1.15234e-19)
(0.00171238 -0.000316552 1.14145e-18)
(-0.000267988 2.31402e-05 -2.45989e-19)
(0.0455651 -0.00133375 3.95798e-19)
(-0.00283385 0.00355273 3.13372e-19)
(0.00105176 5.90404e-06 1.21233e-19)
(-0.000184737 -7.82097e-06 -2.24712e-19)
(-0.00268603 0.00416056 -7.6922e-19)
(0.00179755 -0.00374162 -1.32374e-20)
(0.00637449 -0.0106197 4.50624e-18)
(0.00316285 -7.65565e-05 7.7747e-20)
(-0.102276 -0.0747699 1.12295e-18)
(-0.000990326 0.000310273 -4.15168e-19)
(0.0292801 0.0848187 5.60605e-18)
(0.0179715 0.00348878 6.98483e-19)
(0.00084243 -1.42097e-05 -4.504e-19)
(0.000753626 3.59259e-07 -7.21387e-20)
(0.00174355 0.000429375 -1.43729e-18)
(-0.00613223 -0.014365 -4.59954e-20)
(0.00149153 -0.0098211 1.66638e-19)
(-0.00169594 -0.00296182 3.14318e-20)
(0.0258269 0.0447435 -4.4956e-18)
(0.00389845 -8.94055e-06 -9.1329e-20)
(0.00167026 0.000279894 4.66787e-19)
(0.00107094 -0.0103515 -5.30716e-19)
(-0.00150504 -0.00173256 -1.84282e-19)
(0.000578981 -0.00159236 1.04162e-18)
(0.00300914 0.00482437 1.00933e-18)
(0.0288636 0.00387088 -8.41001e-19)
(0.00103916 -0.00117514 -4.2141e-19)
(-0.00310968 -0.0123972 -4.62858e-19)
(0.00506964 -0.00393279 -9.5195e-20)
(0.00107073 -0.000680909 -4.60001e-19)
(-0.0186634 -0.0564254 -2.94209e-19)
(0.0315447 -0.0548612 -2.24019e-18)
(-0.0172892 -0.0422773 4.6152e-19)
(-0.00231003 -0.000627757 -3.18595e-20)
(0.0198786 0.0532287 -5.4271e-18)
(0.00153709 -0.00424495 -1.57235e-18)
(0.0343807 -0.0283647 1.41856e-19)
(0.0191824 -0.0267419 -3.71053e-18)
(-0.000446385 -0.000666473 2.30962e-19)
(0.00698047 0.000684826 1.16176e-19)
(0.0178406 -0.0283658 7.75451e-19)
(1.02371e-05 0.00424917 1.18972e-18)
(0.00690812 0.0102502 -1.49697e-18)
(0.0307519 -0.00363983 -2.71924e-18)
(0.00106686 0.000125082 2.33129e-19)
(0.00262563 -1.13997e-05 2.36085e-19)
(0.00087447 -0.000204227 3.81827e-19)
(0.000236295 2.20101e-05 5.98723e-19)
(0.00286597 -0.00323936 2.10074e-20)
(0.00997012 -0.0533735 -2.64576e-19)
(0.00181043 5.92929e-05 -4.85462e-20)
(0.00077282 -0.000561801 9.9922e-19)
(-0.0516898 0.0128967 -8.03181e-20)
(0.000921061 0.00448676 -6.12118e-19)
(-8.35487e-05 -0.00183801 1.89734e-19)
(-0.00233035 -0.000331409 2.06004e-20)
(0.000106879 -0.00478661 1.79861e-21)
(0.000906686 0.000129224 -1.55702e-19)
(0.0151515 -0.0543398 2.93339e-18)
(0.00179757 -0.00325772 5.25361e-19)
(0.0012968 -0.000739502 -2.60143e-19)
(-0.000923985 -0.00126368 -4.49303e-20)
(0.000519172 0.00517596 -2.50884e-20)
(-0.0327692 0.145662 3.40457e-18)
(0.00174751 -0.00139689 -1.7909e-18)
(-0.0237334 0.000729197 1.54239e-19)
(-0.000903312 6.6849e-06 1.6233e-20)
(0.0168835 -0.00855342 -2.81199e-18)
(0.043043 -0.0363784 -2.1665e-18)
(0.0405604 0.00655039 1.04758e-17)
(0.0176876 -0.00871054 -9.32451e-18)
(-0.000498118 -0.0043635 -2.67939e-19)
(-0.00512301 0.00441012 2.52332e-18)
(0.00594184 -0.0775744 3.04238e-18)
(0.000674376 -1.65357e-05 -4.40963e-19)
(0.0444418 -0.0210187 1.1241e-19)
(0.00336599 0.00401826 -5.59759e-19)
(-6.59836e-06 -4.70576e-05 -3.07252e-20)
(0.029001 -0.00426982 -9.60607e-20)
(0.00723287 0.0089782 1.55018e-18)
(0.0719079 -0.043785 -2.16461e-18)
(0.00154102 -0.000689449 3.1073e-20)
(0.0224924 0.00329972 5.41902e-18)
(-0.0875758 -0.00810185 4.09492e-19)
(0.00729295 -0.00289715 -6.36298e-19)
(0.0020898 9.40519e-05 -6.16656e-19)
(0.0414569 -0.00124998 -1.64432e-18)
(0.00985101 -0.00320762 -6.34586e-18)
(-0.0306237 -0.0418846 5.57454e-20)
(-0.00449064 -0.00676209 1.19677e-19)
(0.00245766 -0.00113817 9.98829e-20)
(0.0588165 -0.00564963 -8.02291e-18)
(0.00412988 -6.31623e-05 -2.45908e-19)
(0.00135966 -0.00473902 -1.33455e-18)
(0.000167489 -6.41692e-06 3.00003e-19)
(0.00128879 -2.55029e-05 -2.93341e-19)
(-0.000461956 -0.00219232 -6.6096e-20)
(0.00211776 -0.00127831 1.01233e-18)
(-0.00327046 -0.00630233 -2.77732e-19)
(-0.036695 0.149354 -4.91764e-18)
(0.00307995 -0.00171618 6.07724e-19)
(0.00925182 0.0421899 7.42704e-18)
(0.0130337 0.0763172 -7.52205e-19)
(0.00107956 -0.074743 8.32074e-19)
(0.0239065 -0.00397438 3.25291e-18)
(-0.0203634 -0.0273118 -4.50011e-19)
(0.000251758 -1.26091e-05 -2.37422e-20)
(0.000995311 -0.000132065 -2.5151e-19)
(0.0338851 -0.053102 -2.48615e-20)
(0.0199677 0.0699102 1.56982e-18)
(0.00197102 -0.00146373 -2.28102e-19)
(0.00274903 -0.000287919 2.52768e-18)
(-0.0262011 0.0406218 -1.7189e-19)
(-0.000304487 -0.000447385 1.09668e-20)
(-0.0199901 -0.014982 -1.3051e-18)
(0.000556934 2.42936e-05 -5.27431e-19)
(-0.00249927 -0.0067083 -7.14039e-19)
(-0.000306391 -0.000375699 -4.73884e-19)
(0.0107242 -0.0147997 -3.63062e-18)
(0.00203763 8.45681e-05 2.47068e-19)
(0.0110409 -0.00356584 4.27563e-18)
(-0.123039 0.0600073 -4.07598e-19)
(0.00166163 -0.000538738 3.17026e-19)
(-0.0337995 0.0545743 -1.10841e-18)
(-0.00765088 -0.00826569 -1.49802e-19)
(0.0021492 -0.00360685 -6.07355e-19)
(-0.00628958 -0.00924094 -3.99902e-19)
(0.00263342 0.00358364 6.41496e-19)
(-0.00283701 0.00195932 3.26214e-19)
(0.00205261 -0.00302708 9.9132e-19)
(-0.0155855 -0.0523024 2.58105e-18)
(0.00319048 -3.56716e-05 3.23382e-20)
(0.000701339 -0.00170344 -1.49393e-18)
(0.030863 -0.00547877 8.17375e-18)
(0.0028886 -0.000888359 1.1382e-18)
(0.0048341 0.00471497 4.76824e-19)
(0.0019795 -0.00414251 -1.12393e-18)
(-0.000669024 -0.000897362 -5.87645e-19)
(0.0120143 -0.00739104 -1.49474e-18)
(0.00086921 -4.31241e-06 2.06445e-20)
(0.000490539 -0.00169142 1.31003e-18)
(-0.000115242 -0.00018611 9.16721e-19)
(-0.0571923 0.0130539 6.90996e-20)
(0.00107919 -0.00289638 6.00142e-19)
(-0.0573021 0.00741127 -1.54275e-18)
(-0.00021712 0.00306554 3.63388e-19)
(0.0390657 -0.0217606 -2.58863e-19)
(0.00193489 -7.83158e-06 -1.85877e-19)
(0.000344131 0.00380417 -1.41291e-18)
(0.000739904 5.83784e-06 -2.08513e-19)
(0.00310983 -0.00173017 7.38533e-19)
(0.0454729 -0.00805451 -3.89876e-18)
(0.00240177 0.00265665 3.84514e-19)
(0.0413601 -0.0389163 -2.43602e-18)
(-0.000425228 -0.00147395 4.16499e-19)
(0.00214453 5.63683e-05 3.36735e-20)
(0.00188526 -0.0046898 2.88386e-18)
(-0.00188593 0.0464815 -2.70491e-19)
(0.0130112 0.0237425 -5.2953e-19)
(0.0485885 -0.0279453 3.9014e-19)
(0.0368788 -0.014989 -1.70163e-19)
(-0.00142934 0.00609454 3.66996e-19)
(0.000523554 -0.000178616 2.7177e-20)
(-0.0312599 0.00257631 -3.08737e-18)
(0.011636 -0.00827744 -4.02664e-18)
(0.00915186 -0.0144838 1.06683e-18)
(-0.0129702 -0.069005 3.92655e-19)
(-0.0309778 -0.126293 -7.07192e-18)
(0.00387824 -1.4576e-05 -3.1753e-20)
(-0.00581157 -0.0068303 -8.67288e-20)
(0.0231457 0.00177321 1.2634e-17)
(0.00066688 -0.000508354 1.75356e-20)
(0.00455258 0.00500819 2.08509e-19)
(0.000278684 -0.000486059 -2.83173e-19)
(-0.000962445 -0.000498549 4.92163e-19)
(0.000549301 -1.20402e-05 6.14229e-19)
(-0.0541125 0.0455639 -6.22016e-18)
(0.0110316 -0.00445597 -2.18463e-18)
(0.0633019 0.0136632 5.05353e-19)
(-0.00127016 -0.000505268 -3.70131e-19)
(-0.00820947 -0.0142958 2.11898e-19)
(-0.000701071 6.7644e-05 -3.15681e-20)
(0.000296981 1.42777e-05 -3.76951e-19)
(1.2666e-05 -1.44918e-05 -2.75235e-19)
(0.00471417 0.00405795 -1.17274e-19)
(-0.0304775 0.00547882 -2.94118e-19)
(-0.000380181 0.00334485 1.84693e-19)
(-0.00482817 -0.00608751 3.24149e-19)
(-0.000472343 -0.000263297 4.68505e-20)
(0.00204215 -4.71872e-05 -2.16482e-19)
(0.00673337 0.00436105 -2.0315e-19)
(0.0334631 -0.0244935 1.27998e-19)
(0.000502522 7.21319e-06 4.81253e-20)
(0.000156543 -0.000162519 -1.59722e-19)
(0.0180373 0.0136431 5.77778e-19)
(0.0050427 0.00794236 8.79081e-19)
(0.00208669 -0.00310727 2.23468e-18)
(0.0543454 -0.0196847 -3.34752e-19)
(0.0399157 -0.0173418 2.57502e-19)
(0.000277191 -9.45234e-06 -1.09965e-18)
(0.000364279 -1.98559e-06 7.47711e-19)
(0.00161265 -0.00521542 1.73307e-19)
(0.00603918 0.00516074 7.49653e-19)
(0.000111716 -0.00178205 2.15501e-19)
(0.00138993 -7.35751e-06 2.39878e-19)
(0.00402162 -3.42644e-05 2.26374e-19)
(0.00175698 0.00326995 6.39416e-19)
(0.000836681 0.000324053 1.96945e-19)
(0.000380708 -0.000277366 3.20296e-19)
(-0.0369458 -0.0206527 -1.20858e-19)
(0.0282811 -0.0125204 -2.62335e-18)
(4.5355e-05 -3.46817e-05 6.07943e-19)
(0.0414804 0.00457869 3.4565e-18)
(-0.00353993 -0.0225168 3.11345e-19)
(-6.67199e-05 0.00109168 -8.24534e-19)
(-0.00335543 0.00313849 -4.26104e-19)
(0.0067807 0.00205177 -1.95053e-18)
(-0.0708524 0.100148 5.79806e-19)
(-0.00160402 -0.00341747 -7.27637e-19)
(-0.12882 0.219864 1.20738e-17)
(-0.000383656 -0.000809087 -2.09669e-19)
(0.000670114 -0.000237681 -7.03586e-21)
(0.0260599 -0.00643998 -1.45363e-17)
(0.00072946 -0.000461855 -7.60985e-20)
(0.0160827 -0.00441559 5.98945e-18)
(0.026692 -0.030743 2.16645e-18)
(-0.00395798 -0.0133621 7.11012e-21)
(8.24856e-05 0.00112203 5.72905e-19)
(-0.0317857 0.0810445 4.23199e-18)
(0.00516283 0.00693521 -5.1986e-19)
(0.00119176 -0.000365504 -2.39157e-19)
(0.00209378 -0.00104744 -8.01489e-19)
(0.0230822 0.00981199 5.91768e-18)
(-1.35786e-05 -0.00049965 -1.78242e-19)
(0.000968984 -0.000381833 3.16697e-19)
(0.0024372 -6.62084e-05 2.61296e-19)
(-0.000314374 -0.000451687 2.68229e-19)
(0.0418827 -0.0128678 2.65719e-18)
(0.0207275 0.00468403 -5.26325e-18)
(-0.0041558 -0.0213367 1.63691e-20)
(-0.00265676 0.00430215 5.34311e-19)
(0.0021015 -0.00103531 7.3236e-19)
(0.000883965 -0.000901948 5.97061e-19)
(0.00226536 -0.000934547 9.61328e-19)
(-0.000203145 -4.77497e-06 2.06837e-20)
(0.00302606 -5.96292e-05 2.81967e-20)
(-0.00984092 0.0670055 -4.37101e-20)
(0.0431986 0.0064989 -2.89564e-17)
(-0.000255639 -0.000570646 4.18513e-19)
(-0.00767813 0.00108222 5.41959e-19)
(0.0372331 -0.0527598 -3.05582e-19)
(0.000971673 0.000197303 -2.13032e-19)
(0.0126789 -0.0121925 8.37381e-19)
(-0.0259336 -0.00129863 2.44329e-19)
(-0.000201523 -1.58015e-06 -1.45216e-19)
(0.0293157 -0.00253885 5.91359e-18)
(0.0567464 0.0168677 -3.5007e-18)
(0.00237265 -0.000300577 3.50648e-19)
(0.0396372 0.0248266 1.88332e-17)
(-0.00121736 -0.000299418 2.03454e-19)
(-0.0776517 0.0401418 3.23365e-20)
(0.00624927 -0.00883618 2.05623e-18)
(0.0844809 -0.0316145 -1.69934e-18)
(0.00234704 0.000116385 5.24001e-19)
(0.000258906 -0.000375302 -1.51448e-19)
(0.0014364 -0.0056368 -9.0333e-19)
(-0.00984446 -0.119326 5.7631e-19)
(-0.00573459 0.00414325 -3.26789e-18)
(0.0521739 -0.0199394 -1.94342e-20)
(0.0443921 -0.0219652 2.88383e-18)
(0.0604744 -0.0575204 9.21264e-19)
(0.0170362 -0.00477997 -9.33584e-19)
(-0.12256 0.246941 -1.06543e-18)
(0.0082121 -0.0155323 4.5896e-18)
(-0.000279902 -4.63718e-06 -5.97234e-19)
(0.0141274 -0.0013799 3.55213e-18)
(-0.00674267 0.00164096 -1.29471e-18)
(0.0479083 -0.0288333 7.62245e-19)
(0.000791343 -0.00165038 -1.77989e-18)
(0.0409604 -0.0303537 5.70971e-19)
(-9.65959e-06 9.21918e-05 -2.07643e-18)
(0.0172839 -0.0233019 2.92821e-19)
(0.000668414 -8.76847e-06 5.70552e-19)
(0.00398959 7.71102e-05 -3.13686e-18)
(0.000470561 -0.00074841 -1.68635e-19)
(0.0418099 0.0237657 4.37714e-18)
(-0.000272619 3.36704e-06 7.54642e-19)
(0.000390837 -1.61157e-05 -1.4893e-19)
(0.00484763 -0.00170899 6.37165e-18)
(0.00470599 -0.0049982 -4.41067e-18)
(0.0119339 -0.00483803 5.72257e-18)
(0.00246318 0.000176525 2.65942e-19)
(0.00202949 -0.000369722 1.95051e-19)
(0.00139253 7.44544e-05 -1.19841e-20)
(0.00175161 9.55521e-05 1.72793e-19)
(0.0708743 -0.0906792 -8.36664e-19)
(0.00143288 -1.45142e-05 -2.15792e-19)
(-0.0201097 -0.148256 1.60135e-18)
(0.0146172 -0.0183778 2.78387e-19)
(0.00104908 -1.28771e-05 2.81486e-19)
(0.000858935 -1.60099e-05 5.07405e-19)
(-0.00841437 -0.0153308 -1.98628e-20)
(0.00269272 -0.000486279 -1.36255e-18)
(0.000986274 -0.00043225 1.53707e-19)
(-0.00116511 -0.00194522 -2.09027e-19)
(0.00766725 -0.00198124 -3.20859e-19)
(0.00657854 -0.00855355 4.24656e-19)
(0.00510845 -1.84439e-05 -7.60057e-19)
(0.00498041 -0.00487342 2.95666e-18)
(0.000446972 -0.000232721 -4.36425e-19)
(0.00685671 0.00295095 2.49338e-19)
(-0.000675371 -0.00393492 -2.93434e-19)
(0.00657518 -0.00716848 -2.51408e-19)
(-0.00120735 -0.00148212 7.04076e-20)
(4.03567e-05 -0.0051721 -1.13918e-18)
(-0.0692372 -0.0686232 1.16351e-18)
(0.000455916 -0.000435925 -2.29921e-20)
(0.00198738 -0.0582242 -2.29188e-18)
(0.00933746 -0.00206971 -1.98117e-18)
(0.000359966 4.54357e-06 -6.19445e-20)
(0.00190288 -0.000396867 -1.90944e-19)
(0.00106655 0.00035446 5.85694e-19)
(-0.00317225 0.0069907 7.45763e-19)
(-0.00467248 0.00752365 -1.60218e-18)
(0.00122713 -0.000154287 4.92623e-19)
(-0.00327638 0.002465 -9.33333e-19)
(-0.000608306 0.00022344 1.44627e-20)
(0.00110048 -0.000981067 -1.88829e-19)
(-0.00309168 0.00293449 -4.85263e-20)
(0.00125597 -0.000126973 4.15118e-20)
(-0.00554273 -0.00466914 -9.17339e-20)
(0.000147388 -8.13351e-05 1.32363e-18)
(0.00406199 -0.000146728 8.28742e-19)
(-0.000230312 3.28221e-06 -1.55232e-18)
(0.00244667 -0.00101096 1.06377e-19)
(-0.00549119 -0.0039129 2.17461e-20)
(0.00552643 -1.31312e-05 -2.571e-18)
(0.0147526 -0.00164907 -3.53561e-18)
(0.000663575 -1.73039e-06 2.37812e-19)
(0.00148792 -9.37593e-05 3.93898e-19)
(0.00194397 -0.000392974 -4.0475e-19)
(0.000667312 -0.00014713 1.07018e-18)
(0.000442086 0.000578572 -1.50404e-19)
(0.000150782 -2.61859e-05 -7.29486e-19)
(0.000360653 0.000752268 2.73831e-19)
(0.00128698 -0.00050672 -2.5413e-19)
(0.000577516 -0.000513625 1.56795e-19)
(-0.0002383 6.52129e-05 -7.23739e-20)
(0.0136451 -0.0126549 -5.83217e-18)
(0.000250149 -1.41709e-05 3.18843e-20)
(0.00048876 -4.14793e-06 -2.17e-19)
(0.00107064 -0.000428915 -2.70271e-19)
(0.0352478 -0.0327208 -4.94267e-19)
(0.00216485 -3.43091e-05 -1.15256e-19)
(-0.000345011 -0.000326757 5.15129e-19)
(0.0265578 -0.000233508 -8.28973e-18)
(-0.00105227 -0.000341159 5.229e-21)
(0.00266788 0.00162241 7.35209e-19)
(0.0427747 0.0247003 3.277e-17)
(0.00200578 -0.00435226 -3.43174e-19)
(0.00123175 -1.40598e-06 -4.95432e-20)
(-6.48332e-06 -1.79318e-05 -3.69596e-20)
(0.0359336 0.0110733 -1.0551e-18)
(0.00100677 0.000315283 -5.46873e-19)
(0.0243499 0.00172403 -1.54279e-17)
(0.0536279 -0.0598634 -1.3918e-18)
(0.0077858 -0.0896939 3.12157e-18)
(0.0405577 -0.0124441 8.03962e-19)
(0.00243843 0.0015135 -3.40311e-19)
(0.00141963 -0.000518579 -5.32463e-19)
(-0.0241036 -0.116642 2.10048e-18)
(-0.00539796 -0.00457565 -6.23032e-19)
(-0.000330083 -0.000221378 -2.96828e-19)
(-0.0262111 -0.0307004 2.73304e-19)
(0.0411312 -0.025095 -3.33651e-19)
(0.0410031 -0.0508924 -8.41626e-20)
(0.00161426 -0.000420216 4.75667e-19)
(0.0245376 0.0101216 4.92899e-18)
(0.00142558 -0.00047578 1.53165e-19)
(0.000615009 -0.000407699 4.28174e-19)
(-0.0334292 0.0075811 -5.1121e-19)
(0.00132798 -0.000130714 3.60977e-20)
(-0.0411946 0.000162124 1.59367e-20)
(0.00285128 0.00719844 3.15544e-21)
(0.0279409 -0.0145976 -8.23134e-18)
(0.00129065 -0.000108116 -2.80198e-19)
(0.00249878 -0.00755976 -4.26701e-18)
(-0.00105524 -0.00358313 1.0971e-18)
(0.0391282 0.0261835 -3.1864e-18)
(-0.0345129 0.257173 7.03039e-18)
(0.000323787 -4.34114e-05 4.85261e-19)
(0.00193598 0.00662041 6.91968e-20)
(0.0107654 0.00113155 4.8009e-18)
(0.0012085 -0.000417463 -1.75682e-19)
(0.00354353 0.00613603 5.4454e-20)
(0.0247801 5.82208e-05 9.28049e-18)
(0.0876036 0.0164808 -2.18284e-17)
(0.00213591 0.000104881 -3.76132e-20)
(0.00977428 -0.0150153 2.72956e-19)
(-0.0048801 -0.00515395 -2.8695e-19)
(0.0318303 -0.104907 -1.86001e-18)
(0.00754739 -0.0138746 -4.30503e-19)
(0.0410397 0.00607507 -2.75274e-18)
(-0.0124186 -0.0479249 1.69807e-18)
(0.00479534 -0.00143161 -5.32953e-19)
(-0.00330174 0.0157493 9.04824e-19)
(0.0213985 0.130233 4.95916e-18)
(0.00020242 -2.42187e-05 -1.71418e-19)
(0.00200972 -0.000136913 -2.25494e-20)
(0.000736704 -1.27184e-05 -2.6498e-19)
(0.00735186 -0.00126381 7.57218e-19)
(-0.000173029 -5.64696e-05 -2.4877e-19)
(-0.0841703 0.0850332 4.62642e-18)
(-0.000118394 -0.000142262 2.15395e-19)
(-0.0207684 -0.114297 -4.16077e-18)
(0.00708548 0.000383516 3.39945e-19)
(0.0326547 0.0165855 2.86881e-19)
(0.0274371 -0.00530198 5.74039e-18)
(0.00234881 -0.000968119 -7.30751e-19)
(0.0470754 -0.0251355 8.16796e-19)
(-0.0389317 -0.0267011 -3.77224e-18)
(0.00206349 -0.00256727 3.27268e-18)
(0.0713314 -0.0246419 5.09881e-18)
(-0.00418571 0.0141207 2.03658e-19)
(0.0296567 0.0105344 2.0188e-17)
(-0.000186982 -0.000111537 1.14731e-19)
(-0.000967342 -0.000273872 7.35766e-20)
(0.0401069 -0.0261855 -5.36143e-19)
(0.000400293 0.000878778 -3.2456e-19)
(-0.0405344 0.289468 -8.40998e-18)
(0.00152953 -1.25028e-06 -8.46689e-19)
(-0.0204434 -0.0711158 1.66132e-19)
(0.000280607 -0.00110162 -1.19606e-19)
(0.0348463 -0.0161104 6.44507e-19)
(0.0398104 -0.0342106 -1.81476e-18)
(0.00465836 -0.00195184 2.63675e-19)
(-0.155062 0.164197 -4.15302e-17)
(0.00280038 -1.89897e-05 6.25037e-20)
(0.00533901 -0.00163703 -3.82402e-18)
(0.0168125 -0.00685614 6.49786e-18)
(0.0234682 -0.0441592 -4.31771e-19)
(0.0211722 -0.0307965 3.72165e-19)
(0.000967902 0.000507233 6.22484e-19)
(0.000191093 -0.0012739 -7.81832e-19)
(-0.000439577 -0.000340821 -2.6482e-19)
(0.0129553 -0.0482166 -5.71687e-18)
(-0.0319857 0.0462597 6.85873e-19)
(0.00321457 -1.75984e-05 -2.44274e-19)
(-0.00139621 0.00951104 -1.76799e-19)
(0.0151774 -0.0125204 -5.92776e-19)
(-0.0004046 -0.000208911 4.12918e-19)
(0.000574293 1.97809e-05 1.99501e-19)
(-0.0039696 0.00350739 -5.05765e-19)
(-0.0374846 -0.00438346 -1.72796e-19)
(0.00966341 -0.0058575 -3.93298e-19)
(-0.000186689 0.00118562 -4.92917e-19)
(0.000247825 2.71745e-05 -6.08541e-19)
(0.000849285 0.00017055 -7.23439e-19)
(0.043835 -0.0134778 -9.7198e-19)
(0.0376717 -0.0511582 3.35354e-19)
(-0.00707641 -0.0143729 -1.59729e-18)
(0.000910724 -0.00020544 -6.80791e-19)
(0.0018782 -6.94507e-06 -6.77689e-19)
(0.0355012 -0.0356622 -6.12503e-20)
(0.00236424 -0.00014303 1.46696e-19)
(0.0783298 -0.0143698 -4.46965e-18)
(0.0184335 -0.013907 -2.85068e-18)
(-0.0140246 -0.104985 -7.30429e-18)
(0.0358118 -0.0238697 9.63791e-19)
(-0.0142707 -0.0643688 4.58072e-19)
(0.000691071 -0.000267582 2.45015e-19)
(0.00243642 -0.000869346 -1.14769e-18)
(0.00654245 -0.00358746 -2.90189e-19)
(0.00399503 -0.00153947 -3.92121e-18)
(0.00662704 -0.00759958 1.55202e-18)
(0.00334035 -9.59386e-05 -1.16195e-19)
(0.0254008 0.00875651 -3.84548e-18)
(-0.0141739 -0.13466 -2.88393e-18)
(-0.00031345 -0.000815381 -3.49081e-19)
(-0.0405793 -0.0136611 -4.63086e-18)
(0.00102349 0.000197907 5.29608e-19)
(-0.0549946 0.0194722 1.60345e-19)
(0.003045 -0.000511265 6.01921e-19)
(0.0375629 -0.0321108 -1.1766e-20)
(-0.00893938 -0.00405699 5.69547e-19)
(0.00990972 -0.00580353 -1.66241e-19)
(0.00171408 0.00021262 -2.34329e-19)
(0.00356228 0.000871888 -1.31612e-18)
(-0.000147287 -0.0127225 -9.83528e-20)
(0.00334937 -0.180503 3.59617e-18)
(0.0211933 0.159708 -9.35023e-18)
(0.000484899 -1.8841e-05 -8.93745e-20)
(0.00898174 -0.0171074 -1.05393e-18)
(-0.00357242 -0.00325137 -8.34941e-19)
(-0.000440385 -0.00539723 1.54996e-18)