/*--------------------------------*- C++ -*----------------------------------*\
| =========                 |                                                 |
| \\      /  F ield         | OpenFOAM: The Open Source CFD Toolbox           |
|  \\    /   O peration     | Version:  v2012                                 |
|   \\  /    A nd           | Website:  www.openfoam.com                      |
|    \\/     M anipulation  |                                                 |
\*---------------------------------------------------------------------------*/
FoamFile
{
    version     2.0;
    format      ascii;
    class       volScalarField;
    location    "750";
    object      p;
}
// * * * * * * * * * * * * * * * * * * * * * * * * * * * * * * * * * * * * * //

dimensions      [0 2 -2 0 0 0 0];


internalField   nonuniform List<scalar> 
9793
(
0.00687975
-0.00572167
0.0101458
0.00309017
-0.00141157
0.00523099
0.0049446
0.00511996
-0.00851598
-0.00046214
-0.0601184
-0.0149586
0.00316742
0.00480308
0.00506846
0.00472563
0.00619131
0.00612084
0.0119806
0.00484376
0.00752555
-0.00298449
-0.00638472
0.000161635
0.00708327
0.00313527
0.00477209
0.00571188
-0.0270138
-0.00806392
0.00665706
-0.00490382
-0.0120378
0.00459626
-0.0231831
0.00150263
0.00479219
-0.00212337
0.00538002
0.00491461
0.00644297
0.00491209
0.00303726
0.0046211
0.00311153
0.00315123
-0.0266446
0.0023176
0.00317889
0.00311138
-0.0232475
-0.0535727
0.00525883
-0.00702538
-0.0258008
-0.0230628
-0.00226977
-0.0986091
-0.0188515
0.00536284
0.00500317
0.00473868
-0.00583709
0.00140672
-0.00720783
-0.00497814
-0.00289036
0.000246834
-0.00947677
-0.0556852
-0.0223982
0.00013803
0.002886
0.00580601
-0.0184414
-0.0159965
-0.00268416
0.000828079
0.00515838
0.00561556
-0.00446249
0.00497783
-0.00697462
0.00263276
0.00635274
0.00223759
0.00567637
-0.00309716
0.00409562
0.00501071
-0.00654951
-0.0232456
0.00495381
-0.00735195
0.00432042
0.00204213
-0.0164428
-0.00759362
0.00494457
0.00481415
0.00477469
0.00530058
0.00525434
0.00525304
0.000878943
0.00640316
0.00373497
0.00513504
0.00489923
0.00463611
0.000229295
-0.00427468
-0.000964286
-0.013813
-0.0502781
-0.00265293
-0.0104794
-0.0155077
0.00499513
-0.00490017
0.00421822
0.000366735
-0.00173778
0.00566163
-0.010113
0.00556197
-0.0665617
0.00171084
0.0051905
0.00157628
0.000698591
-0.00309599
0.0015901
0.00580221
-0.00752506
-0.00339302
0.00142711
0.00491427
-0.000781785
0.00331182
-0.001479
0.00704734
0.00408887
0.0047217
0.00491934
0.00506698
0.00191374
0.00475079
0.00503512
-0.0283958
-0.00936349
0.000647875
-0.00302633
0.00335855
0.00505157
0.000382124
0.0027505
0.00681305
0.00473198
0.00420004
0.00516933
0.00588977
0.00451801
0.0162721
0.00448288
0.0095171
0.00146943
-0.0109395
0.00464413
0.00536376
0.00493105
-0.0475834
0.00346744
-0.0441812
-0.0104307
0.0142757
-0.00345985
0.000464327
0.00183386
-0.0297217
-0.206497
-0.0200925
0.00476884
0.00684516
-0.0197234
0.002894
-0.100641
0.00199562
-0.00124904
0.00452062
-0.0109494
0.000521939
0.00360205
-0.00256431
-0.00205506
-0.0290488
0.0133093
0.00533426
0.00408167
0.00326934
-0.00714004
0.0241812
-0.0209157
0.0013576
-0.00374878
0.000613416
0.00600949
0.00469661
0.00634387
-0.0138682
-0.0237307
0.00522111
0.00190622
-0.00746305
0.0144098
0.00274483
0.00559661
-0.0171492
0.000784101
-0.0221289
-0.00651379
-0.00225843
-0.0107947
0.00064276
0.00180973
0.0166289
0.00525285
0.0050858
-0.0095158
-0.049573
0.000155669
0.000159996
-0.021018
0.00317543
-0.065728
-0.0177438
-0.000678672
0.00471875
-0.0163627
0.00513848
0.00645354
0.00485002
0.00492475
-0.0115229
0.0045257
0.00499568
0.0050871
0.00691098
0.00499775
0.00467859
-0.00261327
-0.0200041
-0.0460718
-0.0667857
0.00470375
0.00101367
0.00459139
-0.0200621
0.00592954
0.00471703
-0.0112757
0.00454689
-0.0422439
0.00408256
-0.0116768
0.000462669
0.000445843
-0.0215473
0.0236924
0.00346846
0.00473261
0.00423856
0.00037291
-0.00261836
-0.00641247
-0.00368324
0.001381
-0.00198904
0.000873315
-0.0684237
0.00671459
0.000460616
0.00504645
0.00502565
-0.0667567
-0.00224385
-0.0021511
-0.0151984
0.00475811
-0.00367681
-0.000893521
-0.00935132
0.00441411
0.00480717
0.00119501
0.00561222
-0.0088303
-0.0154786
0.000905506
-0.0129883
0.00508142
-0.0410888
-0.0244642
0.00497784
0.0051419
0.00477477
0.00114779
-0.00741273
0.00661039
-0.0374692
0.0010065
0.00475984
-0.00667357
-0.000468509
-0.00335532
0.00501365
0.00198479
0.00557502
-0.00199842
-0.0149454
0.00517019
0.00517322
0.0187864
0.00440193
0.000494012
-0.194924
-0.00793715
-0.0200807
-0.0147007
0.00430919
-0.0290774
-0.012043
0.00535944
0.0062908
-0.0597466
0.00507698
0.00336654
-0.00673323
0.00445046
0.00564456
0.0109875
0.00212528
0.005059
-0.0124925
0.00529674
0.00476269
0.000283612
-0.00431966
0.00510546
0.0108741
-0.0095431
-0.0027456
-0.000501532
0.00521155
-0.0369676
-0.00682362
0.0108937
0.000356684
-0.0369143
-0.021711
-0.0955208
-0.0378169
-0.00375025
0.00562604
0.016217
0.00491633
-0.0104204
0.00515165
0.00311496
-0.0240854
0.00634413
0.0185212
-0.0027708
-0.0672506
0.00547912
0.00705858
0.00280286
-0.0117161
-0.0311578
0.0018449
0.000195259
-0.00696256
-0.0299978
0.00095593
-0.00690452
0.00356936
0.00496982
0.00476149
-0.00721701
-0.000628689
-0.0363153
-0.010061
-0.122743
-0.0112131
0.0184588
-0.0520881
0.00436321
0.00487058
-0.00648968
0.00245308
-0.0110961
0.00480822
-0.014409
7.64998e-06
0.00420749
-0.0116288
0.00475101
-0.00148143
0.00412767
-0.0190082
0.00226457
-0.0316952
-0.000857086
0.00470728
-0.00876566
0.00820726
-0.00962801
0.00811914
0.00512687
0.0034873
0.00499188
0.0250366
0.00085678
-0.00337531
-0.0564237
-0.00696294
0.00586409
-0.00878432
0.0044113
-0.0277021
0.00437784
-0.00291522
0.00389618
-0.00990789
0.00493798
-0.00997089
0.00551101
0.00588371
0.00324849
0.00543224
0.00496197
-0.00947834
-0.015757
0.00523636
-0.0169643
0.00463948
0.0050275
-0.00782922
-0.00498071
0.00483302
-0.0362965
0.00577781
0.00541634
5.19418e-05
0.0120855
-0.0257712
-0.017552
-0.00616553
-0.0285343
0.000936298
0.00765868
-0.0644957
-0.00189312
0.00495609
-0.00143638
0.00524851
0.00485563
-0.0256687
-0.0302277
-0.0201506
0.00524907
0.00254997
0.000337821
0.00447759
0.0019358
0.00517215
0.0113985
0.00550479
0.0076346
0.00405729
0.00139476
0.00614952
0.00244246
0.00464118
0.000159359
-0.0219844
0.00612514
-0.010247
-0.00792644
0.00527672
0.00342953
0.00392587
-0.00668842
0.00609671
-0.00298934
0.00279079
0.00109337
0.00529103
0.00475193
0.00472913
0.00292788
-0.0420164
0.00305996
-0.0182228
0.00150242
0.00486529
0.00424062
0.00518012
-0.00435304
0.00679907
-0.0400738
0.00440554
0.00481282
-0.0498543
-0.00100763
-0.040983
-0.0275182
-0.00105371
0.00483846
-0.144923
0.00617394
0.00531728
0.00565074
-0.0854686
0.00535389
0.00530592
0.000770795
0.00527851
-0.00858513
-0.0684417
0.00132585
0.00474296
0.00557202
0.00535891
-0.00561865
0.00105081
0.000819751
0.00230406
-0.0976695
0.00430999
0.00650476
0.00101432
0.00174059
0.00540762
0.0119087
0.000916409
-0.0624467
-0.0251346
-0.00258013
-0.145716
0.000660371
-0.0136359
-0.0158025
-0.0176204
0.00276766
0.00486877
0.00607039
-0.0110943
0.00592033
-0.00831726
-0.00803873
-0.0167048
-0.0418426
-0.0453092
-0.015259
0.00518069
-0.0434753
0.00636833
-0.00708384
-0.00553747
0.00561365
0.00361717
0.00642807
0.0049338
-0.0171625
0.00525387
-0.143352
0.00381406
0.00376298
-0.0183485
-0.0133377
-0.030861
0.00271453
-0.000357621
0.00155027
0.00165546
0.0114712
0.0029728
-0.0343414
-0.0031924
0.00298041
0.0050147
0.00335987
-0.0142979
-0.00133336
-0.00136882
0.00691661
-0.0173841
-0.0205883
-0.0143628
0.00522574
0.00497315
-0.00409764
-0.0185426
-0.00034453
-0.00411366
-0.0291694
0.000305453
0.0249423
-0.0319368
0.0047701
-0.000562316
0.00518995
0.00540732
0.00537033
0.00465558
0.00485252
0.000110559
0.0054458
0.00473007
0.00109332
0.00175653
0.00318974
-0.0170835
0.00471426
-0.00726912
0.00166041
-0.0215924
-0.0441853
0.00503656
0.0043208
-0.000714929
0.00525127
0.0035227
0.00299317
0.0035745
0.00499932
0.000101619
0.00375734
-0.0246688
0.00478072
0.00500565
-0.00201275
0.00673241
0.00259674
0.00409
-0.0637663
0.000856727
0.00524147
-0.147781
0.00699321
0.0037782
0.00198645
-0.100847
0.00518142
-0.0656736
-0.0103927
-0.0364971
-0.00166584
0.00507218
-0.00237541
-0.0135179
0.00609948
0.00397268
0.00338245
0.00488757
-0.00373801
-0.000932216
-0.0878398
-0.00233398
-0.00175903
-0.0205508
0.00101676
0.00020726
0.00404344
-0.0383532
0.00431179
-0.0102825
-0.00367175
-0.149231
-0.0653719
0.00499405
0.0039692
-0.0423634
0.00489608
0.00587067
-0.0625868
-0.154283
0.00296726
0.00579018
0.00599144
-0.0306967
0.00568339
-0.0162794
0.00458012
0.00557648
0.0070258
-0.0524668
0.00263999
0.00120166
0.00502489
0.00537749
0.00379719
-0.0275116
0.00384187
-0.0357725
-0.0275648
-9.74257e-05
-0.0530906
-0.00611032
-0.0393444
-0.0216599
-0.00938279
-0.0280728
0.00652711
-0.0942932
0.00385311
0.000819277
-0.0149843
0.00298403
-0.0716682
0.00429659
-0.00179935
0.00539275
0.000952297
-0.0159127
0.00563716
-0.192146
0.000970698
-0.0194741
-0.036975
-0.0142975
-0.0110693
0.00341681
0.0053955
0.00409855
-0.0316916
0.00140426
0.00139275
0.00618379
0.00541937
0.00398328
0.00343282
0.00592113
0.000687128
0.00766185
0.00317961
0.00438591
0.00528027
-0.0055265
-0.00256517
0.00646054
0.00527388
0.00383883
0.0075776
0.00110893
-0.0215848
-0.0289503
-0.0369907
0.00274161
0.00142487
0.00510393
-0.00637691
-0.0219763
-0.0169512
-0.018921
0.000930175
-0.0851427
-0.0172403
0.00530232
-0.0237916
0.00525138
-0.008474
-0.0104319
0.00415154
0.00404154
0.00559523
0.00336678
0.00373752
0.00576927
-0.0434888
-0.0560401
0.00128883
-0.0143588
0.00597376
-0.00352213
-0.0104703
-0.183348
0.00222679
-0.0910557
0.00502145
-0.0446587
0.00459352
0.00320502
0.00463023
0.00375651
-0.0206677
0.00131768
-0.00705472
0.00482814
0.00106988
0.0036883
-0.00614467
0.0043719
-0.0188168
0.00515877
0.00340978
-0.0141258
0.00240834
0.00379342
0.00531561
0.0061195
0.0045106
0.00205447
0.0037196
-0.0138912
-0.000745004
0.00295425
0.00396146
-0.0193032
-0.0146945
-0.00891924
-0.0685822
0.00693397
0.00320128
-0.0205478
-0.00920208
0.00372837
-0.0083903
-0.00919343
-0.00334259
-0.0278286
-0.0053869
-0.0169363
0.0063427
-0.0138708
-0.00865034
-0.00731372
-0.00562353
-0.0180987
-0.0148913
0.000960491
0.000882479
0.000886315
0.00703642
-0.0580686
0.00288625
0.00343688
-0.0179291
0.00654349
-0.0395137
0.00494187
-0.031706
0.00389324
0.00365442
0.00608852
0.0173395
-0.0623644
0.000966261
0.00646054
0.00540172
0.00365275
-0.013942
0.00363944
-0.00574385
-0.0200125
-0.0186155
0.00546571
-0.0130431
-0.0301557
0.00223684
-0.000706257
-0.17439
0.00222337
0.0013451
-0.000661087
0.00497706
-0.00123396
0.00429976
0.00596887
-0.175798
0.00571494
-0.0183273
0.00367123
0.00862472
-0.00101902
-0.0612572
0.00539636
0.00561476
-0.0319446
0.00374524
0.00361051
-0.0281182
0.00621942
-0.0243265
0.00561107
0.00441222
-0.00395414
-0.00313917
0.00401672
0.000152507
0.000144398
0.00465251
0.00517665
0.018242
-0.0323734
-0.00246517
-0.0210461
-0.0134356
0.00564512
0.00816519
0.00633764
-0.021227
-0.0230954
0.00319549
0.00456947
0.00868926
-0.0269113
-0.190662
0.00328514
-0.0369077
-0.0191912
0.00140179
-0.060299
-0.0295506
0.0185169
0.00468907
-0.0299376
0.00267284
0.00483202
0.00325799
0.00617422
-2.71841e-05
0.00524672
0.00419284
-0.0770781
0.000716786
-0.0409988
-0.00595062
-0.0568942
0.00436881
-0.011988
0.000265987
-0.00964287
-0.000306145
0.00368937
-0.00495596
-0.0164246
0.00526005
0.00483429
0.00718941
0.00455606
-0.0302202
-0.0103229
0.00604944
-0.000980099
-0.00504777
0.00252336
-0.000205092
-0.0204343
-0.0856633
0.00524248
-0.0165947
-0.0229414
0.0040873
-0.00538319
0.00439735
-0.140664
-0.0124931
-0.00674191
0.0118801
0.0061102
0.00123078
-0.175712
0.00536486
0.00530052
-0.000410599
-0.157781
-0.000313978
0.00268915
0.00322688
0.00349878
-0.00189327
-0.000545361
-0.0323153
0.0158692
0.00149525
0.00635888
-0.0042556
-0.0107157
0.000576875
0.00269531
0.00873129
-0.00634112
0.00558138
-0.000221341
-0.00873047
0.00430018
-0.00812765
0.00463995
-0.0024789
-0.0189168
-0.00678359
0.00671622
0.000203161
0.00745747
0.00627312
-0.00106888
0.00514528
-0.00280812
0.000258969
-0.000820079
0.00521245
0.00486323
-0.00552164
0.00654084
0.00379136
-0.0389514
0.00030624
-0.072356
-0.00449715
0.00246312
-0.0224983
0.00309274
-0.016418
0.00655795
0.00438507
-0.000794518
0.00572163
-0.0424502
-0.0281088
0.00478889
-0.00667282
0.00418825
-0.000762196
0.00671759
-0.0151068
0.00479956
-0.00533457
0.00524291
-0.0100518
-0.0992824
-0.00257019
0.00562848
0.00499057
0.00684576
-0.015384
0.00191483
0.00330047
0.00377555
0.00102167
-0.000140621
0.00330552
0.00317845
-0.0626084
0.00532145
0.00156549
0.0062037
-0.0565619
-0.00485682
-2.09674e-05
-0.08212
0.00242045
0.00434559
0.000812063
-0.017639
-0.0792672
-0.00130343
0.00323663
-0.0870107
-0.00257371
0.000329752
-0.0105999
-0.0263764
0.001834
-0.00745243
0.00598449
-0.00794123
0.00882508
-0.0015816
0.00634832
-0.00136507
0.00640809
0.00544726
0.00317352
-0.00214647
0.00343532
0.00330155
-0.0861524
0.00339658
5.72751e-05
0.0101447
0.00336759
-0.00883531
0.00799268
0.00239814
-0.0109479
0.000763564
0.00435055
-0.0381197
0.00337255
-0.00608964
-0.0110258
0.0059716
-0.00901982
0.0054224
0.00304807
-0.00963298
0.000819842
-0.00541766
0.00404249
0.00145802
-0.0208906
0.00377853
0.00325083
-0.00231336
0.00331141
-0.026855
0.00318962
0.00183643
0.00184092
0.00468
0.00853753
0.00525145
-0.0442551
-0.00297448
0.00529077
0.00616055
-0.0413631
0.00164559
0.00135945
0.00368253
0.00265332
0.0105346
0.000958648
-0.0137284
-0.01085
0.00412452
0.0061186
-0.0270231
-0.00752078
-0.0129536
0.00909143
0.00148391
0.000632022
0.00746779
-0.0671231
0.00520246
0.00592391
-0.182219
-0.000238151
-0.208881
-0.221884
0.00433927
-0.013614
0.00305622
-0.026636
-0.0193154
0.000265637
-0.00637633
0.00300529
-0.0556715
-0.00587843
0.00311282
0.00520172
0.00145134
0.00142395
-0.0382814
-0.0297241
-0.162945
-0.162738
0.00442688
-0.0214632
-0.153882
0.005144
-0.0351034
0.00498529
-0.0204589
0.00673425
0.00476071
0.00616451
-0.0377834
-0.162528
-0.143549
-0.0418619
0.00319265
0.0046146
-0.129349
-0.00955354
0.00342623
-0.00206937
0.00102931
-0.0326004
0.00433448
0.00433383
0.0027674
0.00228323
0.00541728
0.00309277
-0.0229448
0.0149618
0.00376307
-0.13255
0.00250772
0.0158563
-0.21326
0.0111924
-0.0230308
-0.0339831
0.00313768
-0.128296
-0.135289
-0.0323987
0.00538761
0.00159559
-0.126831
-0.0192978
-0.0152469
-0.00402504
0.00545295
0.00546437
0.00275027
-0.0330918
-0.0323897
0.000318966
-0.0922803
-0.000463763
0.00214841
0.00518564
0.00296004
0.00150065
-0.00218296
-0.000327005
-0.0381651
-0.00713595
0.00152565
-0.01884
0.00502505
-0.0412972
-0.00778763
-0.0336008
-0.0174122
0.00077953
-0.0161295
0.00562993
0.00481278
0.000841446
0.00466212
0.00353804
-0.0299177
-0.0088108
0.00143199
0.00580768
0.00370002
-0.0273085
0.00176113
-0.0147253
0.00147846
0.00199611
-0.00745275
-0.0948314
-0.0270254
-0.141205
0.00840843
-0.00685461
-0.0131286
0.00634088
-0.0296703
0.00809941
-0.109114
-0.108479
0.00425876
-0.012282
-0.0163741
0.00130754
-0.168788
-0.0358492
-0.194365
0.00413419
0.00436121
-0.0108642
0.0053726
-0.0577478
0.0061879
-0.0909487
-0.0539699
0.00308731
-0.217471
-0.0122563
-0.00989086
-0.0266028
-0.0135248
-0.12871
0.0053843
-0.0110393
-0.0291832
0.00491974
-0.0209928
0.00651111
0.000742247
-0.0179342
-0.012212
0.00795209
0.00143942
0.000133358
-0.0332297
-0.000677993
0.00513806
0.00201395
-0.000200397
-0.146993
0.00596258
0.00172349
-0.00363498
-0.0376295
-0.0270773
-4.78401e-05
0.00453182
-0.0117174
0.00522746
0.00362857
0.00448186
0.00236584
0.00527805
0.00604343
0.0154654
-0.0016749
0.00121509
0.00536135
0.00466939
-0.0165573
0.00472105
-0.0149164
0.00200571
-0.0737703
0.00407652
0.00500229
-0.00106622
-0.0925491
-0.17572
0.00509213
0.00110363
-0.0138307
-0.017738
-0.0244435
0.00766729
0.00369733
-0.0123385
0.00344821
0.00392987
-0.0113632
-0.0120369
0.000139427
-0.124466
0.0047799
0.00464747
0.00556299
-0.0162961
-0.0239909
-0.000860189
0.00477331
-0.00908156
-0.219219
-0.0305373
-0.00631747
-0.00719844
-0.0191366
0.00517834
0.00302464
0.00513802
-0.00519446
-0.000251065
-0.00184046
0.000982129
0.00422984
-0.203047
-0.0613724
0.00394174
-0.0272833
0.00498685
-0.0272805
0.00901272
-0.00199828
-0.000316072
-0.00598157
0.00342705
-0.00531158
0.00540365
-0.0219025
-0.0345265
-0.00815408
0.00150214
0.00305874
0.00425986
0.000200376
0.0123573
-0.0147038
-0.150075
-0.000711009
-0.00678193
0.00539672
-0.0644444
-0.0058772
-0.140065
-0.0050051
-0.00604192
0.000311689
-0.127462
-0.0195212
0.00428397
-0.110721
-0.00391618
-0.005737
0.00192284
-0.00266319
0.00509373
0.00110606
-0.0287603
-0.00834103
-0.00860252
0.0164197
-0.0105874
-0.0197314
-0.0680701
-0.00197454
-0.028094
0.00442569
0.00515283
0.00481801
-0.00149945
0.00417299
-0.0628113
0.00490468
-0.0267699
-0.00131592
0.000137299
0.0220295
0.00510507
0.0066556
0.00269565
0.00306337
0.0138552
-0.00412255
0.00424658
-0.00600803
0.0129458
-0.0836408
-0.00733701
0.00407767
-0.00165495
-0.190263
-0.00557881
-0.0628177
-0.0444943
-0.00490324
-0.00299414
-0.00895202
0.00187716
-0.0260649
0.00501878
-0.032356
-0.00439533
-0.0557217
-0.00129738
-0.00558656
0.00624222
-0.0380907
0.00258277
-0.0183948
-0.0139738
-0.0265729
0.0014477
0.0058947
0.00524153
-0.0360945
-0.105036
-0.0185719
-0.0207252
-0.00917902
-0.00796244
-0.00106093
0.00593994
0.00941128
0.0157453
-0.00296604
0.0134764
0.00421006
-0.0248296
-0.00658314
-0.00125858
-0.000622383
0.00309388
0.0141654
0.00508088
-0.0129844
-0.0152962
-0.00195624
-0.00457287
-0.126591
-0.000482953
-0.0023426
-0.00922482
0.0100687
-0.00855154
-0.00466244
0.0042725
-0.00502997
0.00387143
-0.00290292
-0.0159333
-0.00472593
0.0134549
-0.0046611
0.00121525
0.00657352
-0.00825391
-0.0361813
-0.0113481
0.000826722
0.00514123
-0.00274365
-0.129097
0.00102163
-0.0148911
0.000783832
-0.000106693
-0.000666225
-0.0168649
-0.00216086
0.00397346
-0.00811507
-0.00152569
0.00502938
0.00487006
0.00361653
0.00304931
-0.0155798
-0.0458853
-0.00533796
-0.00120145
0.00717093
0.00212455
-0.0117186
-0.0392245
0.0101913
-0.0175416
-0.00417984
-0.0203995
0.00382541
-0.12447
0.00441193
0.00378689
-0.00582659
0.000411356
-0.00637772
0.00623865
-0.00144947
0.00309368
-0.00135152
0.00452815
-0.0156958
-0.010297
-0.00206735
-0.00743111
0.00316878
-0.00622632
-0.0727351
-0.00207703
0.00138185
0.001552
0.000550725
-0.00178547
-0.00337169
-0.00127962
-0.0145101
-0.00377518
0.0046614
-0.0279673
-0.00549194
-0.00159383
-0.125689
-0.053321
0.00487461
0.000176372
-0.00501803
-0.0106513
-0.00202499
-0.000309868
-0.00129474
0.0050515
0.00038328
0.00889583
-0.026592
0.00405878
0.000301663
0.00152834
-0.12204
-0.0601098
-0.00621973
-0.00110696
0.00109842
0.0015299
0.00351825
-0.0113982
0.00300971
-0.034842
0.01288
-0.000451346
0.0100823
-0.00847616
-0.00170383
0.00241952
-0.0153124
0.0029131
0.00606181
0.000138153
-0.00461526
-0.000542263
0.00450865
0.00401685
0.00427758
-0.0114299
0.00412969
0.00336192
0.000376292
0.00415639
0.000378723
-0.0126365
-0.00166618
0.00436806
-0.0166849
-0.0178533
-0.0139492
-0.0128301
-0.000134216
-0.00772167
-0.00501987
-0.000573813
-0.000670529
-0.0231148
0.00397873
-0.000844917
0.00102744
-0.0581705
0.00386949
-0.00819104
-0.00803416
0.010863
0.0045243
0.00463367
0.00523922
-4.00027e-05
0.00806914
-0.000380831
-0.0109798
-0.0514077
-0.00200901
-0.00264095
0.00556042
-0.0181544
-0.0121499
-0.00256356
-0.0561911
-0.003366
0.00144624
0.00169492
-0.00798883
-0.00141585
0.000632858
0.00321693
0.00820516
0.00114301
0.00446562
-0.00895686
0.00301482
-0.00773845
-0.089274
-0.000934936
-0.00409395
0.00149305
0.000880533
-8.12377e-05
-0.00982037
0.00502516
-0.00142492
0.000679123
0.00165857
-0.0147688
-0.00552395
0.00325381
-0.0134734
0.00488924
0.000460999
0.00046452
-0.00196687
0.00523888
0.000355503
0.00071995
-0.000334067
-0.000249258
-0.00672259
-0.00376209
0.00601288
0.00138646
0.00838083
0.00086574
0.0031116
0.00799446
0.0035498
0.00551097
-0.000689556
0.00315171
-0.051712
0.00145847
0.00170123
0.00171539
-0.0102037
-0.00190466
0.00453225
-0.00615463
0.0037048
-0.0616499
-0.00560096
-0.0029076
-0.00444286
0.00594409
0.0192403
-0.0402082
0.00333958
0.00217286
0.0034809
-0.00237805
0.00111277
0.000508877
-0.00272061
-0.026967
0.00087838
-0.11345
0.00290371
0.00389124
0.00519351
0.00765496
0.00443332
-6.3575e-05
0.00358322
0.00361763
0.000961623
0.000941912
0.00187436
0.00147911
0.00118652
0.0107385
0.0036724
0.00262552
0.00123405
-0.157171
0.00240478
0.00283782
-0.0619825
0.00946506
0.00580399
0.00368896
0.00311893
0.000312065
-0.0562499
-0.000434858
-0.00727003
0.00298037
0.00602519
0.0151848
0.00304303
-0.012939
0.00766017
-0.0865072
0.000531659
0.00879329
0.00217821
-0.000661687
-0.000843737
-0.00302719
-0.00236352
0.00396215
-0.0013925
0.00551975
-0.014923
0.000152523
0.00377629
0.00511087
0.00894907
-0.0164571
-0.0126521
0.00271453
0.00413012
-0.0547999
0.00852918
0.00586085
0.0016613
0.00153667
0.00218349
0.000771706
0.00507018
0.00419282
0.001969
0.000150825
0.00361531
-0.139507
0.000942482
0.00379456
0.00316443
-0.00848765
0.00418216
0.00127597
0.00508735
0.00664872
0.0252571
0.00865496
0.00100326
-0.0063418
-0.00976671
0.00811942
0.00316458
0.000306202
0.00441612
0.00638689
-0.00144027
0.000118576
-0.0516992
0.00395805
0.00372569
0.00429811
0.00382884
0.00719035
0.00313199
-0.00586606
0.0019314
-0.00197129
0.00183883
0.00193095
0.00223318
0.00110228
0.00249357
-0.00260702
0.000327601
0.00491476
0.00759084
0.0151931
0.00846064
-0.0927463
0.00385531
-0.00324462
0.000465009
0.00922153
0.00240748
0.0056625
0.0041099
0.000214219
0.00461647
0.00635756
0.00163598
0.000647508
0.0232502
0.00288118
0.00459997
0.00324932
0.0014137
-0.0246997
0.00451614
-0.00209076
-0.00484054
0.00392341
0.00703956
0.0034285
-0.0579142
0.00293035
0.00531468
0.000764253
-0.0229395
0.00750794
0.00421717
0.00555713
0.0168242
-0.0422777
0.00532135
0.00225453
-0.000340302
0.00288327
-0.0671094
0.0068759
0.00328568
0.00748508
0.00536866
0.00382928
-0.0199741
0.00537868
0.000829118
-0.00205982
0.00517154
0.00135758
0.00277218
0.00333354
0.00342951
0.00438654
0.00353261
0.0235076
0.00363115
0.0043792
0.024295
-0.00594351
-0.00143818
-0.000539281
0.00171225
0.00271204
0.00410612
-0.00879559
-0.000293454
0.0113498
0.00517011
0.00565502
0.00223902
0.000548425
0.00464599
-0.0107528
0.00131326
0.00255034
-0.143394
-0.00664419
0.00343863
0.00752656
0.00192868
0.00109045
0.00361918
0.00465815
0.00389367
0.00546494
0.00802818
0.00380577
0.00362073
0.0031592
0.00267473
0.00394909
0.00380028
0.00760932
0.00439746
0.00512264
0.00376525
0.00363167
-0.00501949
-0.000172573
0.00432792
0.000193402
0.00479721
0.00484284
0.00278053
-0.0170429
-0.0109439
0.0196632
-0.0838465
0.00537423
-0.00159512
0.0101004
-0.0778218
0.00569994
-0.00662837
-0.00207715
-0.00547997
-0.029196
-0.00147109
-0.000723551
0.00843553
-0.00601001
0.00375064
0.00955754
-0.0186818
-0.0026065
0.00481507
0.0106443
0.00341849
0.00401764
0.00179117
-0.0219661
-0.00179265
-0.00269814
0.00514677
-0.0106821
0.00424235
0.00408672
0.000178082
0.00321928
0.00360131
0.00894173
-0.0137633
0.0039735
0.00384857
0.00981834
0.0104772
0.00516767
0.00122474
0.0039643
-0.00115596
0.000457909
0.00373857
0.00151128
0.00030481
0.00267824
-0.019866
0.00150092
0.00423875
0.00504923
0.00080559
-0.00279506
0.0101284
0.00522611
0.00468801
0.00577814
-0.0139241
0.0102853
0.00075571
0.00254096
0.00946067
0.00226305
0.00258168
0.00380759
0.00461628
0.00290254
-4.95711e-05
-0.00126434
-0.0177123
0.00359523
0.00204778
0.0024964
0.00262468
0.00918757
0.0126697
-0.00353574
0.00177593
0.00109902
0.00596422
0.00499025
-0.00668661
0.00290963
0.00520643
0.011024
0.0025315
-0.000867793
0.00336603
0.000557745
-0.0020346
-0.0015242
0.00438167
0.00515957
0.0051799
0.00395141
0.00369163
-5.43373e-05
0.0011292
0.00243255
0.00355547
0.0105653
0.00392806
0.0037017
0.00282518
0.00278566
0.000859429
0.00628748
-0.00504244
-0.0537331
0.00429319
0.00726228
-0.00131073
0.00202187
0.0041039
0.00225191
0.00673895
-0.00181824
0.00234468
-0.00481306
0.0041146
0.00342866
0.00381164
0.00153205
0.00456502
0.00636659
0.00209972
0.00308248
-0.0373885
0.00227616
0.00419564
-0.00305986
0.0244262
0.00302935
0.00449193
0.00563999
0.00442137
0.00386281
-0.0141993
0.00381793
-0.0374353
0.00326371
-0.0154642
0.00395212
0.00387637
0.003373
0.0104711
0.00272529
0.00665191
0.00649712
0.000970674
0.00370084
0.00173634
0.00439611
0.00413353
0.00428675
0.00427959
0.00437436
0.00460702
0.00200608
-0.0281345
0.00129773
-0.0221007
0.00210548
-0.0798738
-0.000879546
0.00276977
-0.000568945
-0.0251481
0.00231451
0.00107652
-0.00396583
0.00561282
0.00427072
0.00427293
-0.0147541
0.00455681
0.00336381
-0.00104583
0.00319555
-0.019114
-0.00437779
0.00399463
0.0192841
-0.0017944
0.00520787
0.00500556
0.0126384
0.00413029
-0.0130153
0.00472461
0.0047736
0.00473798
-0.00139971
0.00454841
0.0029402
0.00796008
0.00454476
-0.0170663
-0.002057
0.00100827
0.0050239
0.00938095
0.0046276
0.00469071
-0.0658688
0.0209513
-0.00101657
0.00630684
0.00457226
0.0059704
-0.00582071
0.00547547
-0.116509
0.00169608
0.00104315
0.000672435
-0.000450768
0.00260965
-0.00509844
0.00509128
0.00516022
0.0090616
0.00305246
0.00446106
0.0012148
5.69127e-05
0.00520253
0.006153
0.00582514
0.0108553
-0.0124361
0.00396801
-0.00476427
-0.0487986
0.00524699
0.0041758
-0.00588555
-0.0109357
0.00326333
0.00654307
0.00435371
0.00477883
0.00173426
-0.0462604
0.00281459
0.00541073
-0.000196302
0.00536107
0.00542584
0.00960419
0.00671898
0.00528634
0.00484983
0.00957786
0.0027209
-0.000517203
0.00484702
0.00479273
0.00436965
0.00012902
0.00383795
-0.0734676
0.00316947
0.00477344
0.00617979
0.00525858
-0.0334239
0.00420287
0.00395155
-0.000944522
0.00137313
0.00862004
-6.98849e-05
-0.0493274
0.00450925
0.0041205
-0.0114902
0.00102994
0.00312208
0.00523226
0.00293107
-0.0440749
0.00165801
0.00605805
0.00705885
0.00524227
-0.00276509
0.00767402
-0.0907085
0.00465102
0.00502715
0.00512155
-0.00684396
0.00264964
0.0103909
-0.0400713
0.00885161
0.00412964
0.00520674
0.00463443
0.0100836
0.00775195
0.00542825
0.00458545
0.00631925
0.0087721
0.00494566
0.00582112
0.00879934
0.00482342
0.00271381
0.00248016
0.00525806
0.00173918
0.0245806
0.00471064
0.00408347
0.00525477
0.0025101
0.0013484
-0.0305268
-0.114481
0.00910247
0.010931
0.00994972
0.0108197
9.28726e-05
-0.0231291
-0.00761699
0.00423367
-0.025561
0.00402356
0.00523385
0.00440505
0.00786502
0.00381118
0.00396815
-0.00940294
0.00287677
0.00513713
0.0076033
-0.00162907
0.00426015
0.00479523
-0.00413502
0.00264261
0.00795436
-0.00996246
0.00414369
0.00932929
0.00332217
0.00589915
0.00997289
0.0251171
-0.0305911
0.00611212
0.00630352
0.00359779
-0.132802
0.0052081
0.00284129
0.0046833
0.00223168
0.00372407
0.00494227
-0.0151605
0.00317479
0.0062858
0.00401125
-0.017964
0.000397959
0.00287057
0.00781588
0.003927
0.00537055
0.00591465
0.0032164
0.00238044
0.00803905
0.00146082
0.00256059
0.0042535
0.00857381
-0.00260357
0.00609055
-0.0106341
0.00493192
0.0015495
0.00444526
0.00612362
-0.00278809
-0.00454912
0.00446179
0.00442519
0.000612493
0.00223535
-0.00104185
0.00234627
0.00271729
0.00801248
0.0131199
0.00426804
0.0042495
-0.00906409
0.00735644
-0.00979474
-0.0145295
0.0053024
0.00256846
-0.0389171
-0.0109325
0.00520772
0.00479759
0.00133883
0.00499625
0.0050526
0.00300501
0.00604596
-0.0289744
-0.0250029
0.00471202
0.00482748
0.00516235
-0.00736773
0.00474377
0.00485785
0.00384794
-0.013747
0.00520458
-0.0167696
0.00616916
0.00636623
0.00411764
0.00118365
0.00308312
0.00381432
0.00428495
0.0057912
-0.0174384
0.00508258
-0.00819329
0.000461566
-0.0307285
-0.0262997
0.00599837
-0.0211052
0.00518531
0.00244114
0.00518273
0.00467687
0.00525068
0.00528539
0.00284035
0.010363
0.00440228
0.00395904
-0.0180373
0.00500452
0.00645006
0.00518664
-0.0314051
0.00531732
0.00102341
0.00245103
0.00242374
0.00380372
0.00292224
-0.00169327
0.00327801
-0.00940181
-0.0263011
0.00647446
-0.00765373
0.00646157
-0.00160564
-0.00211095
0.00465346
0.0051547
0.00476678
0.00848179
-0.0257147
0.000763968
0.00235086
0.00487045
-0.0122262
0.00764374
-0.00512382
0.00419126
-0.0139234
0.00522309
-0.0237414
0.00420806
0.00022331
0.00426387
0.00522585
0.0052162
0.00511893
0.0040752
0.00495224
0.00539296
8.89193e-07
0.00730795
0.00515552
-0.0279649
-0.0332708
0.00523415
0.00502594
-0.0103807
0.00521558
0.00445322
0.00520301
0.00609671
0.00519862
0.00414953
-0.0232526
-0.00121888
0.00231012
-0.0102427
-0.0168238
-0.00553886
0.0046669
-0.0277404
-0.00218519
-0.0292036
-0.0151958
0.00622992
-0.0195846
0.0051145
0.00501838
-0.000279721
0.00421524
-0.0127938
-0.00577825
-0.0123906
0.00407125
0.00364469
0.00591795
0.00519812
0.00510141
0.00515153
-0.011066
-0.00697711
0.00456492
-0.0178456
0.00784269
0.00247806
0.00519675
0.00020571
-0.000417569
0.00401223
0.00815477
0.00719741
-0.0153612
0.00229911
-0.0184378
-0.00371826
-0.000936754
-0.0248116
0.00320131
-0.0154584
0.002757
0.00236813
6.05046e-06
0.00296964
-0.0795364
-0.039457
0.00227343
0.00130351
-0.00467376
0.00519334
0.00512456
0.00921248
-0.000184659
0.00507819
0.00516433
0.00590859
0.00224615
0.00658552
0.00499127
0.00955453
0.00501817
-0.0133775
-0.0037102
0.00600465
0.00957306
-0.00779325
0.00107796
0.0056467
-0.029631
0.002667
-0.0309077
0.00673352
0.0039136
-0.0413053
0.00652599
0.00024258
0.000917378
0.00979443
0.00365874
0.00536182
0.00487076
0.00070164
0.00532916
0.00636978
-0.0539527
0.00517501
0.005174
0.00828365
0.00414686
0.00506367
0.00517178
-0.0206615
0.00299126
-0.119821
-0.0010526
-0.0148008
0.005196
0.0029247
0.00371531
0.00407221
0.00188699
0.00833438
0.0051164
0.00192711
0.0047282
0.00308702
0.00525827
0.00507769
0.00522881
-0.0131403
0.00434267
-0.0016486
0.014727
0.00283836
0.00897575
0.00357151
0.00540606
0.00490499
0.00397748
0.00829481
0.00140598
0.00462416
0.000215925
0.00110041
0.00579547
0.00654813
0.00705772
0.00521449
0.00525612
6.28552e-06
-0.0224999
0.0036306
-0.00165636
0.000723421
0.0104696
0.00369
-0.0225517
0.00328761
0.00735426
0.00123776
0.0012683
0.00422556
0.00477761
-0.015311
0.00711309
0.0076736
0.000539401
0.00382724
-0.0276751
0.000884041
0.00430143