/*--------------------------------*- C++ -*----------------------------------*\
| =========                 |                                                 |
| \\      /  F ield         | OpenFOAM: The Open Source CFD Toolbox           |
|  \\    /   O peration     | Version:  v2012                                 |
|   \\  /    A nd           | Website:  www.openfoam.com                      |
|    \\/     M anipulation  |                                                 |
\*---------------------------------------------------------------------------*/
FoamFile
{
    version     2.0;
    format      ascii;
    class       volVectorField;
    location    "600";
    object      U_0;
}
// * * * * * * * * * * * * * * * * * * * * * * * * * * * * * * * * * * * * * //

dimensions      [0 1 -1 0 0 0 0];


internalField   nonuniform List<vector> 
9793
(
(0.95847 0.077957 -1.3474e-20)
(0.966837 -0.0599013 -2.65079e-21)
(0.968731 0.0916533 -8.29312e-21)
(1.0135 -0.000791831 5.13524e-22)
(0.528929 -0.039268 7.99114e-21)
(1.01411 -0.0135367 2.12434e-21)
(1.00984 -0.000232935 2.10094e-21)
(1.01265 -0.00108032 2.88068e-22)
(1.02695 -0.00226496 3.07405e-22)
(0.533369 -0.0302662 4.35538e-21)
(1.00905 -0.10083 -9.05352e-21)
(0.918158 -0.10592 -1.60023e-21)
(1.01341 -0.000733947 0)
(1.01367 0.00228472 2.44454e-22)
(1.00287 -1.7871e-05 1.97024e-21)
(1.01426 0.00269199 1.7915e-21)
(1.01397 -0.00355848 2.14367e-21)
(1.01363 -0.004289 -2.05543e-21)
(0.891625 0.266399 0)
(1.01401 0.00277156 7.14941e-22)
(1.07949 -0.113881 -1.34307e-22)
(1.02392 -0.0058274 2.09016e-22)
(1.05611 0.0637485 -1.40424e-22)
(1.0181 0.00232143 0)
(1.0177 0.00111619 -9.0243e-22)
(1.01336 -0.000609516 0)
(1.0154 0.00380026 3.54752e-21)
(1.01514 -0.00170547 -3.07049e-21)
(0.978727 -0.0392614 -1.003e-22)
(1.02644 -0.00229928 0)
(0.989535 -0.0302997 0)
(1.05935 0.0501969 -6.13434e-22)
(1.08315 -0.0059965 -1.53388e-20)
(1.00766 5.0496e-05 1.8004e-21)
(0.967647 -0.0327674 -5.33595e-23)
(1.1258 -0.172227 1.7058e-21)
(1.00793 2.85103e-05 0)
(1.02431 -0.00587421 1.13987e-22)
(1.01324 -0.00146879 3.91267e-21)
(1.01045 -4.13045e-05 0)
(0.988559 -0.0256225 -9.9407e-22)
(1.00481 -3.93022e-05 -1.87446e-21)
(1.01204 -0.000432261 6.8851e-22)
(1.00956 -0.000167826 0)
(1.01142 -0.000389466 -1.44773e-21)
(1.01295 -0.00047427 2.44057e-22)
(0.97205 -0.0411644 6.06579e-23)
(1.00067 -0.0524971 3.42677e-22)
(0.928773 0.0622224 0)
(1.01344 -0.000864439 -2.27618e-21)
(0.961384 -0.0333691 0)
(0.988775 -0.0977161 0)
(1.01788 -0.0152344 0)
(1.02439 -0.00507474 -1.26663e-21)
(0.848943 -0.0915317 0)
(0.983121 -0.225214 0)
(1.02099 0.000268969 0)
(1.0385 -0.167958 0)
(0.824511 0.322155 -1.04568e-21)
(1.01311 -0.00136591 -4.53752e-21)
(1.00901 -5.10106e-05 -1.25186e-22)
(1.02149 -0.014249 -5.70705e-22)
(0.819941 0.14895 -2.1367e-22)
(1.01464 -0.000413577 0)
(0.542701 -0.234367 -1.53288e-20)
(1.09814 0.0103381 6.57618e-21)
(0.845261 0.14742 0)
(0.886599 0.115597 1.66703e-21)
(0.921754 -0.090038 2.29141e-21)
(1.00508 -0.0939394 1.35151e-20)
(0.843561 -0.0753899 0)
(1.01365 0.000298936 -4.25549e-23)
(1.01518 -0.00368028 -2.27797e-21)
(1.05904 0.00757059 -1.13404e-22)
(0.952993 -0.0274876 -1.51433e-21)
(0.83469 0.30005 0)
(1.02128 -0.00016065 2.01643e-22)
(1.02148 0.00307994 3.51235e-26)
(1.01839 0.0027598 0)
(1.01654 -0.00144391 2.04976e-21)
(1.09388 0.0453482 2.47799e-21)
(1.01603 0.00379331 0)
(0.924337 -0.0908871 0)
(1.03311 -0.0258626 1.20899e-21)
(0.994468 -0.0235111 -8.16913e-22)
(1.01535 -0.0457682 -1.55317e-21)
(1.01703 -0.00185392 0)
(1.02154 -0.0006131 3.49182e-22)
(1.02025 -0.0124584 0)
(1.01385 0.00419764 1.37389e-21)
(0.969675 -0.0226819 4.24866e-21)
(0.704098 -0.168207 -1.788e-22)
(1.01475 0.00127614 -1.24569e-21)
(1.07044 0.0282305 -3.58961e-22)
(1.02131 -0.0131948 0)
(1.03895 -0.0230789 3.99416e-23)
(1.00355 -0.206136 0)
(0.935859 -0.0665665 0)
(1.01446 0.00117053 1.29518e-21)
(1.01412 0.000378755 3.34871e-21)
(1.01407 0.0003216 -4.01032e-21)
(1.01168 0.000849085 0)
(1.01292 0.000325777 0)
(1.01283 0.000263905 2.51418e-21)
(1.02116 0.00335979 -1.6843e-23)
(0.994452 -0.019746 0)
(1.0204 -0.0116681 -5.41412e-22)
(1.00913 -9.58678e-05 1.07022e-21)
(1.01806 -0.0139486 0)
(0.952517 -0.0582883 0)
(1.01273 0.000183176 1.54519e-23)
(1.01275 -0.133503 8.80102e-22)
(1.01954 0.000421701 0)
(1.0328 -0.293373 7.01236e-21)
(0.981257 -0.092848 0)
(1.02136 7.12023e-05 2.16744e-22)
(1.07471 -0.110237 -1.52963e-20)
(0.953382 -0.0197298 2.21121e-21)
(1.01678 0.00468013 0)
(1.06969 0.0163441 -6.97002e-22)
(0.960724 -0.0686241 0)
(1.00645 8.32762e-05 -1.62705e-22)
(1.01968 -0.00219315 3.04363e-22)
(1.01308 -0.0143596 -2.44908e-21)
(1.02566 -0.00748992 -2.19179e-21)
(1.06303 -0.121087 1.34435e-22)
(1.05779 -0.0694975 -1.5022e-20)
(1.02411 -0.0462314 -1.34382e-21)
(1.01959 0.00319926 2.84199e-21)
(1.01615 -0.00326073 4.60911e-22)
(1.01178 0.000175124 1.02242e-22)
(1.02166 -0.00039469 0)
(1.0162 -0.00338283 0)
(1.01172 -0.00264865 1.57109e-21)
(1.02602 -0.00177566 5.26529e-22)
(1.02173 -0.00107127 0)
(1.01394 -0.00030685 0)
(1.00976 -0.000151597 1.0321e-21)
(1.01923 0.000357199 -4.8398e-22)
(1.01343 0.000423313 -1.28798e-21)
(1.01936 -0.00213291 -4.24682e-22)
(1.01802 -9.57343e-05 4.46746e-22)
(1.01217 -0.000469735 -2.5952e-22)
(1.01429 -7.92793e-06 -4.43334e-21)
(1.01337 0.00223166 0)
(1.0126 0.00273895 -4.14427e-21)
(1.04803 -0.043538 0)
(1.01437 2.0545e-05 1.95833e-21)
(1.01386 0.00112198 3.33065e-21)
(0.728762 -0.179532 2.93402e-21)
(0.795321 0.368845 -3.72451e-21)
(1.01132 0.000144755 0)
(0.777649 0.3754 -2.17219e-22)
(0.540559 0.033707 0)
(1.01366 0.001008 0)
(1.00954 0.000214957 2.51874e-23)
(1.0121 0.000191353 0)
(1.01765 -0.000561892 0)
(1.01422 0.000163755 0)
(1.01218 -0.000456882 3.02377e-22)
(1.01272 -0.00110472 0)
(1.01484 -0.00182207 -1.48055e-22)
(1.01561 0.00281186 1.07374e-21)
(0.949948 0.232345 0)
(1.05489 -0.0219638 0)
(1.1 -0.12489 0)
(1.01018 -0.0562195 0)
(1.01418 -0.00890105 -2.90504e-22)
(1.01553 0.00345767 -1.77904e-21)
(1.01262 0.000190069 -2.12002e-21)
(1.01376 -0.00250068 -1.41807e-21)
(0.795485 0.00326119 -1.48005e-20)
(1.04942 -0.0301268 9.65794e-22)
(0.785672 -0.0564266 0)
(1.0262 -0.00707 0)
(0.918426 0.245993 0)
(1.02187 -0.000848903 -3.62747e-22)
(1.01738 0.00221846 0)
(1.01626 -0.00390376 5.4223e-22)
(1.01924 -0.0314801 3.27073e-21)
(1.09513 -0.418532 5.71143e-20)
(1.0339 -0.010403 -5.78622e-22)
(1.01428 0.000211669 1.92141e-21)
(1.01749 0.000470754 -2.37069e-21)
(0.891461 0.313332 0)
(1.01504 -0.00344019 2.05318e-21)
(1.03343 -0.18005 0)
(1.01606 -0.00384639 -5.62048e-22)
(1.0192 -0.00267903 0)
(1.01522 0.0027508 1.59707e-21)
(1.02668 -0.00716166 2.90742e-21)
(1.01705 -0.000213848 0)
(0.936038 0.0758503 0)
(1.02944 -0.132006 1.01676e-23)
(0.862309 0.117032 -2.26966e-21)
(1.02098 -0.0303476 2.57907e-21)
(0.894957 0.138144 -9.64146e-21)
(1.01359 0.00137413 2.66069e-21)
(0.573016 0.124485 0)
(1.01329 0.000396834 2.50831e-21)
(1.02559 -0.00180548 0)
(1.03308 0.159056 0)
(0.9896 -0.248586 -4.86743e-21)
(1.01628 -0.00306265 -4.71003e-22)
(1.02204 -0.00133157 -6.19653e-23)
(1.02052 0.00309023 -3.81702e-22)
(1.10019 -0.151703 0)
(1.01372 0.000752228 0)
(0.99906 -0.018596 0)
(1.02587 -0.0107017 0)
(1.00433 -0.027928 -2.9199e-21)
(0.956724 0.0731653 0)
(0.908198 0.0593604 0)
(1.02473 -0.00535336 -7.9947e-22)
(0.855446 0.146689 3.93548e-21)
(1.01233 0.000209046 9.86895e-22)
(1.01233 -0.00105189 -3.18382e-21)
(0.906409 0.294158 0)
(1.02017 0.00326436 4.11959e-22)
(0.73612 -0.0255968 7.92004e-21)
(0.93408 0.0146974 8.82521e-22)
(1.02032 -0.00146779 -6.10801e-23)
(1.02606 -0.00760453 1.3532e-21)
(1.01695 -0.000154023 0)
(1.03387 -0.0348538 -1.42677e-21)
(0.985387 0.204324 0)
(1.01539 -0.0139544 1.99427e-21)
(1.01333 0.000866843 3.46459e-21)
(0.932255 0.00266089 5.80091e-21)
(1.00323 -0.0781234 1.77911e-21)
(1.01818 0.00249717 -4.40688e-23)
(1.01781 0.00227551 0)
(1.03471 -0.0110502 0)
(1.01301 0.000324491 0)
(1.04329 -0.082834 -6.48063e-22)
(0.750833 0.00291364 0)
(1.01892 7.63595e-05 -8.71866e-24)
(1.01397 -0.00233551 0)
(0.99512 -0.186483 -2.10625e-21)
(1.01301 0.0021317 0)
(0.999226 -0.0156637 0)
(1.01338 0.0013154 2.41585e-22)
(1.01405 -0.00185678 0)
(1.09297 0.0117291 1.45733e-20)
(1.01401 -0.00230697 1.41898e-21)
(1.01404 0.00111066 -2.48433e-21)
(1.01254 -0.000997114 -1.08007e-21)
(1.01789 -0.00118364 1.73044e-21)
(1.01428 0.00123041 -1.18899e-21)
(1.00865 5.10986e-05 -2.1892e-21)
(1.02248 -0.00649235 0)
(1.02335 -0.0175838 4.47542e-21)
(0.982144 -0.0835701 0)
(1.05158 -0.0765712 2.8495e-20)
(1.01395 -0.00181566 3.78965e-22)
(1.02675 -0.00548742 -8.04344e-22)
(1.01391 -0.00300543 0)
(1.02201 -0.0181336 0)
(1.0083 -0.00878232 -2.2902e-21)
(1.01378 0.000441961 1.86371e-21)
(0.934851 -0.203485 2.35846e-22)
(1.01402 -0.00244657 0)
(0.975274 -0.0781157 -2.78538e-21)
(1.0091 4.66628e-05 8.77061e-22)
(1.01227 -0.00970771 3.01207e-22)
(1.01914 0.0028918 0)
(1.0189 0.00293406 4.73707e-23)
(1.0024 -0.0246893 2.90791e-22)
(1.04563 0.146545 -4.82907e-21)
(1.01929 -0.0108085 0)
(1.01382 0.000259832 -1.17445e-21)
(1.0144 0.00164093 -1.73851e-21)
(1.02384 0.0021613 0)
(1.02077 -0.00126497 0)
(1.00127 -0.00340966 -3.20393e-21)
(1.0078 -0.027364 1.02835e-21)
(1.01633 -0.00321393 -5.76414e-22)
(1.04009 -0.146939 -1.73437e-21)
(1.01651 -0.000335551 0)
(1.05717 -0.0751175 0)
(1.01744 -0.00152887 0)
(1.01834 0.00274144 -1.56695e-22)
(1.00764 -4.89862e-05 2.1366e-21)
(1.01059 -4.25677e-05 0)
(1.06192 -0.0672732 2.65928e-20)
(1.02026 -0.00159775 0)
(1.02232 -0.00659482 7.57334e-22)
(1.01573 -0.0133492 -1.68882e-22)
(1.01139 -0.000317247 0)
(1.0219 -0.00154113 1.60909e-22)
(1.01922 0.000150821 2.00077e-22)
(1.08486 -0.0743205 0)
(1.01742 -0.0119197 4.96274e-22)
(1.00795 -0.000120273 0)
(1.01114 0.000133461 0)
(1.01135 -0.00192703 1.64039e-21)
(1.02451 -0.00779763 -1.1732e-21)
(1.01402 -0.0134258 -1.34344e-21)
(1.0162 -0.000594564 0)
(0.931612 0.272423 5.37179e-20)
(1.0135 0.000974157 0)
(0.930725 0.290253 0)
(0.973835 -0.213284 3.40383e-21)
(1.0076 2.93856e-05 0)
(1.00912 -0.000139321 0)
(1.01409 -5.7453e-05 2.52348e-21)
(1.02425 0.0040471 0)
(1.01913 -0.00666879 3.95439e-23)
(1.01696 -0.00223276 -1.90176e-21)
(0.94093 0.288492 -6.00053e-21)
(1.01606 -0.000312708 -1.11574e-21)
(1.01398 3.45676e-05 0)
(1.019 -0.00563008 -2.39342e-22)
(1.02236 -0.00745498 5.72462e-23)
(1.02212 -0.00539694 3.25248e-23)
(1.01369 0.0032999 0)
(1.02664 -0.0360537 -1.0265e-22)
(1.01462 -0.00133301 0)
(1.02161 -0.000266331 0)
(1.0262 -0.0113518 6.15254e-22)
(1.01412 -0.00152972 0)
(1.05827 0.00167937 0)
(0.858398 0.203985 6.47718e-21)
(1.05925 -0.00276773 1.50591e-23)
(1.01964 0.00315669 0)
(1.07631 -0.392656 0)
(1.02402 -0.00769086 6.71131e-22)
(0.801574 0.302992 -3.62084e-20)
(0.943162 -0.0144114 -7.48556e-21)
(1.0152 0.00215974 4.49852e-22)
(1.04139 -0.0158601 -3.83087e-22)
(0.943934 -0.00506778 -8.98396e-22)
(1.01206 0.000383578 3.04225e-21)
(1.00271 -0.0149294 -5.72345e-21)
(0.995935 -0.11072 -1.01987e-20)
(1.01238 -0.000834744 -2.41442e-21)
(1.01193 -0.000427525 4.86219e-24)
(1.02513 -0.00153836 0)
(1.01014 7.0919e-05 3.84427e-21)
(1.01562 -0.00187648 2.50777e-21)
(0.932094 0.110988 -4.88289e-21)
(1.01602 -0.00401887 -1.1833e-21)
(1.014 -0.0015565 1.92902e-22)
(0.934738 0.234069 -2.08233e-20)
(1.01256 0.00160196 2.74635e-21)
(1.01464 0.00297417 1.89143e-21)
(1.01957 0.00300554 4.8876e-23)
(1.02368 -0.00684941 -1.27863e-22)
(1.01249 -0.000915302 -5.72013e-24)
(0.896511 0.119824 4.7097e-21)
(1.02508 -0.00773878 2.1406e-21)
(1.02085 -0.00314266 -9.7638e-23)
(1.02144 -0.00699788 -8.25208e-22)
(1.01202 0.00156234 0)
(0.79063 0.0834484 0)
(1.02432 -0.00473473 1.0862e-22)
(1.04865 -0.018917 1.14313e-21)
(1.01765 0.00234378 -1.71482e-22)
(1.0037 -0.0514868 0)
(0.819532 -0.0740142 -7.28545e-21)
(1.019 -0.178954 1.69632e-20)
(1.00067 -0.0534449 0)
(1.02368 -0.00685931 3.73704e-23)
(1.01082 -0.00370864 4.41417e-21)
(0.843133 0.172435 0)
(1.00874 -5.66033e-05 1.36322e-21)
(0.949309 -0.19665 0)
(1.01415 0.00293426 0)
(1.01287 0.000330999 -3.60959e-22)
(0.988896 -0.226794 -2.48047e-21)
(1.00303 -0.0126758 4.24217e-21)
(0.835476 0.219239 0)
(1.0209 -0.00304315 1.36653e-22)
(1.04109 -0.0884717 -7.57314e-21)
(1.15068 -0.162922 -2.20146e-21)
(1.012 0.00478846 2.50738e-21)
(1.01492 -0.00309797 1.00176e-21)
(1.07886 -0.0533997 -2.0256e-20)
(1.02951 -0.0287901 0)
(1.05332 -0.0302272 0)
(1.02609 -0.00499278 7.36248e-22)
(1.02452 -0.00420391 0)
(0.936842 0.320437 -1.34538e-20)
(1.01611 -0.000535359 5.84551e-22)
(1.02366 -0.00745231 0)
(1.00815 6.75769e-05 -5.43625e-23)
(1.00968 -5.83188e-05 -2.88914e-22)
(1.01486 0.00358196 2.74878e-23)
(1.02467 -0.00462618 0)
(1.02533 -0.00556712 -1.56389e-21)
(0.783994 0.0824943 -1.08052e-20)
(1.02646 -0.0062405 -8.47507e-22)
(0.753813 -0.385876 1.07122e-20)
(1.07817 -0.0416394 4.65636e-21)
(0.863176 0.177699 -3.35921e-21)
(1.00967 -0.0807439 -1.8301e-21)
(1.05414 -0.0127393 1.11889e-22)
(1.01053 2.25207e-05 -2.26652e-22)
(1.02504 -0.00130023 0)
(0.735631 0.0508934 0)
(1.07244 -0.0602052 0)
(1.01332 0.000860211 -2.40768e-21)
(1.03132 -0.00528043 0)
(1.05897 0.00269669 0)
(1.01458 0.00168214 1.68706e-21)
(1.0651 -0.310728 -7.67085e-21)
(1.01393 -0.00247756 -1.65315e-21)
(1.02481 -0.00531019 -1.27402e-21)
(1.01451 0.001586 -1.2579e-21)
(0.996773 -0.0206757 -1.20925e-22)
(1.01583 -0.00392976 7.03967e-22)
(1.02816 -0.0304909 0)
(1.05888 -0.143197 0)
(1.01373 0.000505934 2.17261e-21)
(1.04305 0.0858044 8.08699e-22)
(1.02444 -0.00785866 0)
(1.02484 -0.00802963 -2.09151e-21)
(1.02556 -0.00610643 0)
(1.01393 0.00229162 0)
(1.01997 -0.0111 5.07506e-22)
(1.01234 0.00189008 -4.32575e-21)
(1.10019 0.0990285 0)
(1.01652 -0.000353942 -6.20147e-22)
(1.02222 -0.00556573 2.47875e-24)
(0.988344 -0.106749 0)
(1.02468 -0.00363885 1.59952e-21)
(1.00761 -0.00727955 2.38854e-21)
(1.02425 -0.00796523 9.35632e-22)
(1.01559 0.00257894 -1.95008e-21)
(1.01578 -0.0317303 0)
(1.01185 -0.000362347 0)
(1.02205 -0.00574504 1.33882e-22)
(1.01457 0.00137928 1.90836e-22)
(0.942717 0.142921 0)
(1.01315 0.0028302 1.86746e-21)
(0.927838 0.139054 0)
(1.01251 -0.000268206 -7.45186e-22)
(0.968842 0.101337 -1.49212e-21)
(1.0098 -0.000117972 -2.18469e-21)
(1.01245 0.000578367 -7.79129e-22)
(1.00784 -8.50471e-05 0)
(1.02601 -0.00610849 -1.87706e-21)
(0.859362 0.298755 1.16843e-20)
(1.01396 0.00157073 3.71061e-22)
(0.813121 -0.0522104 0)
(1.01517 0.00296052 -1.58195e-21)
(1.01366 -0.00239277 -1.95007e-21)
(1.02378 -0.0077528 -1.40126e-21)
(1.06557 -0.0784538 2.59366e-20)
(0.985058 -0.0335062 0)
(0.847081 -0.124829 0)
(0.967023 0.080593 2.30536e-21)
(1.01633 -0.0152931 -2.10568e-21)
(1.01733 -0.00114476 1.61381e-22)
(1.05809 -0.0253664 1.78054e-21)
(1.01388 -0.0294263 8.10819e-21)
(0.999862 -0.0178599 -1.439e-23)
(0.950403 -0.0864243 0)
(0.837831 -0.114001 -3.18366e-21)
(1.01629 -0.000310771 0)
(1.02234 -0.00504825 -1.45555e-21)
(1.03379 -0.0885889 6.74592e-21)
(1.01985 -0.00246448 -2.18958e-22)
(1.01481 0.00449045 -1.48113e-21)
(1.01937 -0.00253516 -2.52262e-22)
(1.01298 0.000473966 0)
(1.00744 5.0826e-05 -1.00158e-21)
(0.975628 -0.293252 5.08811e-23)
(1.02562 -0.0296887 -3.92541e-21)
(0.92504 0.298451 0)
(1.01308 0.000568779 -1.22867e-21)
(1.0273 0.00485628 -4.76412e-21)
(1.01733 0.00209453 -5.53621e-24)
(1.00875 4.12364e-05 0)
(1.01011 8.62808e-05 -1.34388e-21)
(1.01523 0.00383385 1.47901e-21)
(1.05594 -0.0293948 1.62213e-21)
(1.0123 -0.00054076 0)
(1.02127 -0.00401684 2.49791e-21)
(1.01507 0.00166134 -1.61698e-21)
(1.0152 -0.000552575 0)
(1.00574 -0.00521897 0)
(0.974879 -0.0637848 8.66105e-22)
(1.01131 -0.000327839 0)
(1.01717 -0.00109714 -7.57819e-22)
(0.983264 -0.165895 -3.45925e-21)
(1.00575 -0.0122136 1.4021e-21)
(1.02547 -0.00791662 2.65117e-21)
(0.796738 0.16942 0)
(0.955991 0.0964737 -2.18328e-21)
(1.00934 8.3538e-05 -2.62018e-21)
(1.00756 0.000119234 -1.30158e-21)
(1.02346 -0.00736436 0)
(1.00598 -0.00701969 0)
(1.02218 -0.00589049 8.89888e-24)
(1.01168 -0.000318072 0)
(1.01493 -0.000436807 -2.48909e-21)
(1.01339 0.00146743 -3.1824e-21)
(1.01375 -0.00293099 1.68319e-21)
(1.01399 -0.00188808 3.85354e-22)
(1.04052 -0.0448493 -3.79398e-22)
(0.96635 -0.0820037 1.4395e-23)
(1.01196 0.000173138 7.00516e-22)
(0.874188 0.31787 -1.17287e-20)
(1.01429 0.0167316 4.03752e-21)
(1.01425 0.000795237 -1.24938e-21)
(1.01842 -0.0119097 -2.33199e-21)
(1.0177 0.0033065 0)
(1.00473 -0.120195 -2.01373e-22)
(1.01745 -0.00206861 3.9863e-21)
(0.920182 -0.207737 -1.97653e-21)
(1.01523 0.00231383 0)
(1.01401 -0.00201802 0)
(0.996462 -0.0836224 0)
(1.0189 -0.0025934 0)
(1.01984 -0.051518 0)
(0.972826 -0.25478 2.47428e-21)
(1.02161 0.0014167 0)
(1.01429 0.000700837 1.2089e-21)
(0.777515 -0.409163 -1.61883e-20)
(1.006 -0.0104694 0)
(1.01317 -0.000184913 0)
(1.01428 -0.00112674 0)
(1.06987 -0.10125 -2.14049e-20)
(1.01379 -0.00161851 2.82678e-21)
(1.01302 -0.000207036 6.33609e-22)
(1.01641 -0.000530949 9.54783e-22)
(1.0137 -0.00158544 -6.0775e-24)
(1.09776 -0.0128578 -1.02082e-20)
(1.05007 -0.0821793 -3.1707e-20)
(1.01662 0.014643 -3.559e-21)
(1.01717 -0.0129485 0)
(1.01436 -0.00120289 0)
(1.01436 -0.00146595 3.25045e-21)
(1.0235 -0.00357526 0)
(1.01267 0.000228038 0)
(1.01641 -0.000469097 3.18461e-22)
(1.00562 -0.0963984 9.78863e-22)
(1.01138 -0.191258 -2.00012e-20)
(1.01445 0.00172714 2.69498e-21)
(1.01357 -0.00743636 0)
(0.699467 0.0298975 0)
(1.01782 -0.00613212 0)
(0.99345 -0.00858044 1.29088e-21)
(1.05205 -0.0166336 -8.18975e-22)
(1.01308 0.000307816 0)
(1.00503 -0.10634 -1.28309e-20)
(0.924992 0.317236 -1.49763e-20)
(1.02069 -0.00144489 7.97527e-23)
(1.11627 -0.214407 0)
(1.01828 0.00284322 -1.6857e-22)
(1.02147 -0.258177 -8.59586e-21)
(1.01695 -0.0152178 -2.3159e-22)
(0.990409 0.266924 -1.02554e-20)
(1.01508 -0.00333268 -2.57902e-21)
(1.01404 -0.00180183 -1.88092e-22)
(1.01475 -0.0035616 0)
(0.954148 0.0428414 6.39877e-21)
(1.01098 -0.00461329 -5.42964e-21)
(0.802446 0.201574 -3.04126e-21)
(1.08902 0.0692428 1.45422e-21)
(0.595249 -0.259108 -2.57948e-21)
(1.01728 -0.0537346 0)
(0.898862 -0.203831 -3.21418e-21)
(0.99923 -0.0139528 1.37149e-23)
(1.00456 -1.884e-05 -2.47712e-21)
(1.03302 -0.0466157 0)
(1.01305 -0.00647695 0)
(0.90146 -0.154867 5.05386e-21)
(1.0234 -0.00510743 0)
(0.977149 0.1196 -2.61053e-22)
(1.01513 0.0011857 -1.46994e-21)
(0.951716 0.000681452 0)
(1.00852 -4.59803e-05 -3.0758e-21)
(1.03394 -0.00601115 3.70612e-21)
(1.01422 -0.00151548 -3.09952e-21)
(1.09521 -0.235761 -1.24209e-20)
(1.01523 0.00135965 -1.64232e-21)
(1.01116 0.000125816 1.5643e-21)
(1.031 -0.0111611 4.72537e-21)
(1.02425 -0.0112561 4.32993e-21)
(1.024 -0.0314868 4.0641e-21)
(1.01539 -0.00380946 1.44723e-21)
(1.01806 -0.0023446 0)
(1.01784 -0.00581791 0)
(1.01754 -0.00557823 -1.14578e-21)
(0.872164 0.265337 0)
(1.01354 -0.0010134 2.82296e-21)
(0.84378 -0.147711 0)
(1.09702 -0.286461 0)
(1.01355 -0.000953426 3.03787e-22)
(1.00889 -9.80586e-05 3.75092e-21)
(1.02745 0.0066244 1.2648e-21)
(1.03086 -0.00567194 -3.10382e-21)
(1.01922 -0.00228275 2.58442e-22)
(1.02231 -0.00697893 0)
(1.01063 0.00412139 0)
(1.01754 -0.0166224 -1.7347e-21)
(1.03574 -0.0091583 0)
(1.0248 -0.0117569 -3.30807e-21)
(1.01244 -0.000174454 3.02965e-22)
(1.01778 0.00429537 0)
(1.02359 -0.00689345 1.65561e-23)
(1.02058 -0.016899 1.42539e-21)
(1.02198 -0.00739321 0)
(1.02366 -0.00663618 0)
(1.0342 -0.229772 0)
(1.01887 -0.00526802 0)
(1.05518 0.132832 -3.07704e-21)
(1.0332 -0.0273124 -1.88642e-21)
(1.00967 -0.000204932 0)
(1.01833 -0.00241741 4.59591e-22)
(1.01244 -0.000570927 -1.38814e-21)
(1.0095 -0.000495177 -1.78408e-21)
(1.00867 -0.00128718 -1.81471e-21)
(1.014 -0.00212792 -3.01444e-21)
(1.01568 0.00336749 -1.47829e-21)
(1.01745 0.00191743 0)
(1.01445 -0.00141614 -4.08364e-22)
(1.0162 0.00336932 0)
(1.0158 -0.00113837 0)
(1.02699 -0.00693178 0)
(1.01372 0.000561018 -3.29335e-22)
(1.03341 -0.00658113 5.77693e-22)
(1.00726 -6.9832e-06 -1.0733e-21)
(1.02485 -0.00400965 0)
(1.02654 -0.00758027 0)
(1.03622 -0.00985922 0)
(1.03102 -0.0497452 -8.54544e-21)
(1.00746 5.73436e-05 0)
(1.01389 -0.00200966 1.40373e-21)
(1.01848 -0.0022892 -6.95877e-24)
(1.01268 -0.000120938 -4.43103e-21)
(1.0155 0.000925257 0)
(1.01106 0.000232899 1.13645e-23)
(1.01567 0.000772207 -3.75971e-22)
(1.01389 -0.0015423 0)
(1.01905 -0.00519712 0)
(1.01527 0.00129137 1.9253e-23)
(0.997203 -0.0319072 2.52347e-21)
(1.01038 1.59997e-05 2.5167e-22)
(1.00786 -1.18218e-05 -3.19697e-21)
(1.02003 -0.00207652 -2.70106e-22)
(0.996881 0.105562 -8.07672e-22)
(1.01419 -0.00162773 1.08109e-21)
(1.01466 0.00158791 -4.21772e-22)
(1.01937 -0.0994288 -1.53261e-20)
(1.01799 0.00281528 3.90523e-22)
(1.01224 -0.00444675 0)
(1.09298 -0.249203 5.5874e-20)
(1.0171 0.00154437 1.17724e-21)
(1.01015 -0.000243499 0)
(1.01053 0.000124811 -1.85488e-22)
(1.05017 -0.16613 0)
(1.01245 -0.000658043 2.86176e-21)
(1.03078 -0.0948288 1.39001e-20)
(0.569392 -0.240641 2.32519e-20)
(0.934067 -0.290955 -7.20763e-21)
(1.08638 0.0294074 -5.49404e-21)
(1.01267 -0.0045993 0)
(1.02034 -0.00240591 0)
(0.884582 -0.104418 -1.26995e-21)
(1.01089 8.13337e-05 1.68269e-21)
(1.01468 0.00146962 0)
(1.05413 -0.0212556 -1.20351e-22)
(0.961635 0.117758 0)
(0.688622 -0.0216872 -4.71323e-21)
(1.01876 -0.00235957 0)
(1.06865 -0.109588 -2.84782e-21)
(1.02033 -0.00228309 1.9928e-23)
(1.01975 -0.00203886 3.09692e-22)
(1.00203 -0.310208 -5.27398e-23)
(1.01592 -0.00111046 0)
(0.977969 -0.0525204 0)
(1.02187 -0.00104728 -3.05771e-22)
(0.959883 -0.0748922 3.01408e-21)
(1.01381 -0.00190185 -3.16804e-21)
(1.02151 -0.00896803 -6.85688e-22)
(1.02348 -0.00686399 0)
(1.11356 -0.229392 6.82008e-20)
(0.794998 -0.240433 8.23673e-21)
(1.01385 -0.00230945 1.76666e-21)
(1.02114 -0.000309538 0)
(1.04453 -0.034885 -8.44369e-21)
(1.01379 -0.00155106 0)
(1.0079 -0.0101561 0)
(1.02291 -0.0937 1.20611e-20)
(0.996435 -0.347667 -3.99915e-20)
(1.01475 -0.00298838 2.48994e-21)
(0.991764 -0.00269818 0)
(1.01098 -0.000724878 0)
(0.955354 -0.246147 -1.20056e-21)
(0.994682 0.000779872 0)
(1.05177 -0.12493 7.2356e-21)
(0.948073 0.112528 -9.37047e-22)
(1.01727 -0.000247724 1.33858e-21)
(1.01338 -0.0294058 -4.61116e-21)
(0.907957 0.308383 9.86014e-21)
(1.01421 -0.00173672 2.16019e-21)
(1.01569 -0.00131691 6.85844e-22)
(1.00733 -3.61649e-05 -2.21013e-21)
(1.01969 0.000551454 -1.48636e-21)
(1.01499 0.00134558 1.53614e-21)
(0.968896 -0.263944 4.89748e-21)
(1.01467 0.00134815 -1.77814e-21)
(0.833687 -0.0868866 -2.15331e-20)
(1.03996 -0.0148842 -8.609e-21)
(1.04113 -0.0514282 1.90823e-22)
(0.996753 -0.0919259 0)
(1.02392 -0.00371236 6.31999e-22)
(0.866606 -0.122233 1.12148e-21)
(0.839893 -0.21461 0)
(1.02535 -0.00703301 6.72627e-23)
(0.961021 0.306145 0)
(1.01521 -0.0276116 4.72993e-21)
(1.06122 -0.13532 2.65117e-20)
(1.01492 0.00139888 3.10121e-21)
(1.01781 0.00272044 0)
(0.885585 -0.191492 -1.96977e-21)
(1.0163 -0.00626592 1.53309e-21)
(0.791351 -0.2591 0)
(1.01223 -0.000461721 0)
(0.929333 0.16668 0)
(1.01311 -0.000382944 -1.40075e-21)
(0.994548 -0.059501 1.70427e-21)
(0.875779 -0.161151 0)
(1.01728 -0.000714337 -1.50378e-21)
(0.868356 -0.49476 5.83478e-20)
(1.01643 -0.000297071 -3.55981e-22)
(1.03167 -0.0118411 -5.176e-21)
(1.00889 -0.0519565 4.95514e-21)
(1.01325 -0.37714 0)
(1.02989 -0.34818 -4.64463e-20)
(1.01522 0.00119184 1.82276e-21)
(1.01321 -0.00043404 4.04288e-21)
(1.01492 0.00170127 0)
(0.94945 -0.278234 2.02877e-20)
(0.978999 0.129352 0)
(1.01376 -0.00030697 1.42378e-21)
(1.01543 -0.0205008 2.78869e-21)
(0.991778 -0.0136014 0)
(1.01495 0.00154625 -4.04126e-22)
(1.01377 -0.00180602 1.34946e-21)
(1.01165 -0.00331598 9.30846e-22)
(0.984871 -0.0585595 0)
(1.01336 0.0107542 -2.67645e-21)
(1.01638 -0.00696569 1.70725e-21)
(1.01062 5.7031e-05 -1.82127e-21)
(1.01291 -0.00119811 -3.60983e-21)
(1.08152 0.0492796 3.97108e-21)
(0.718796 0.00448308 0)
(1.01333 0.0322505 -4.61979e-21)
(1.01284 -0.000136097 1.92362e-21)
(1.01282 -0.000616507 2.42192e-21)
(1.0127 0.103598 -7.74164e-23)
(1.01581 -0.00128782 6.98055e-22)
(0.966292 0.286517 0)
(0.983296 -0.044709 -7.58391e-22)
(0.840549 -0.0642135 1.29366e-20)
(0.934723 -0.0617487 2.37043e-22)
(0.92958 0.14232 7.10346e-22)
(1.01329 -0.00144132 2.77751e-21)
(1.02419 -0.00351769 -2.75759e-21)
(1.02833 -0.0173783 -1.01231e-20)
(1.0306 -0.00972243 -3.81288e-21)
(1.01938 -0.0173958 1.39827e-21)
(1.01607 -0.000768569 -1.17251e-21)
(1.06094 -0.111145 -1.90746e-20)
(0.887252 -0.129552 1.69382e-21)
(1.01279 -6.11645e-05 -6.41596e-22)
(0.819942 -0.193925 0)
(1.01282 -0.00111498 4.04038e-21)
(0.900424 -0.055182 0)
(1.02788 -0.00382998 0)
(0.898232 -0.0521186 0)
(1.03006 -0.00799054 -1.24578e-21)
(1.02481 -0.00384952 -2.2174e-21)
(1.01464 -0.00323843 -1.48318e-21)
(1.01307 0.00165495 -1.65591e-21)
(1.00388 0.0131534 -2.47776e-21)
(0.895105 -0.24941 1.21266e-20)
(0.89557 0.300929 -1.21851e-20)
(1.01874 -0.00654478 1.19907e-21)
(0.995005 -0.0121177 -9.53384e-22)
(1.0122 0.000234193 0)
(1.02379 -0.00644738 -2.83018e-22)
(1.02082 -0.00886006 -1.52679e-21)
(1.05399 -0.375246 0)
(1.00919 -0.000185821 8.5786e-22)
(1.05172 -0.136747 0)
(1.0132 -0.00138871 0)
(1.04653 -0.0368279 -1.10499e-20)
(1.01395 -0.00277554 -2.52366e-23)
(1.01366 0.00049875 0)
(1.00814 2.35566e-05 2.46867e-21)
(1.01288 -0.000639195 1.98832e-21)
(0.655632 -0.195888 -3.14495e-22)
(1.01559 -0.00150455 0)
(1.02297 -0.00743422 3.93443e-22)
(1.0081 -3.00951e-05 -1.06548e-21)
(1.00923 0.000253534 -1.38972e-23)
(1.0151 0.00123145 1.53635e-21)
(0.963199 0.01212 5.9632e-21)
(1.00912 -1.95038e-05 -9.19035e-22)
(1.03512 -0.00712723 0)
(1.01344 -0.00149693 -2.99729e-21)
(1.01388 -0.00193989 -2.55844e-21)
(0.912552 0.232733 0)
(1.01432 -0.00155245 2.18484e-21)
(1.04992 -0.110707 7.70592e-23)
(1.01288 -5.17501e-05 0)
(0.99493 0.00620991 -2.64158e-21)
(1.01065 5.93745e-05 -2.37742e-21)
(0.994421 -0.0518609 2.25146e-21)
(1.0103 0.000167466 -1.06517e-22)
(0.932989 -0.115992 -2.22979e-21)
(1.02129 -0.00669228 2.00015e-23)
(1.01655 -0.0066531 -1.60117e-21)
(1.01268 -0.000662424 2.16538e-21)
(0.914722 0.19778 -1.20056e-20)
(0.901773 0.215136 0)
(0.893282 -0.0758274 -6.97382e-22)
(0.862359 -0.218857 0)
(1.02962 0.113373 -1.48504e-21)
(1.01592 -0.0060968 0)
(1.0278 -0.016143 4.8983e-21)
(0.967396 0.0570263 -6.27523e-21)
(1.01572 0.00111008 -1.64554e-21)
(0.888779 -0.161554 -2.20733e-21)
(0.920756 -0.169497 2.26422e-21)
(0.966438 0.0215453 5.34497e-21)
(0.887299 -0.0743078 -5.91721e-22)
(1.02335 -0.00689219 1.48176e-22)
(0.92021 0.247449 -1.15331e-20)
(1.00409 -0.00240317 0)
(0.874982 0.160143 -1.18262e-21)
(0.953013 -0.00118223 0)
(1.02328 -0.00761727 -2.82619e-22)
(1.02346 -0.00538484 -2.21586e-22)
(0.91315 0.247717 2.17131e-21)
(0.893025 0.327665 2.00725e-20)
(1.0123 -0.000173783 9.56621e-22)
(1.02648 -0.00625096 1.80916e-21)
(1.01608 -0.000836572 -7.17388e-22)
(1.01782 -0.00558336 -2.2844e-21)
(1.05123 -0.0582722 3.16394e-21)
(1.01111 0.000142051 6.96322e-22)
(1.01539 0.00104821 -1.41638e-21)
(1.03126 -0.0103225 -5.01297e-21)
(0.991078 0.0155508 0)
(1.01207 -0.0547731 -1.51212e-20)
(1.02034 -0.0146556 5.49917e-22)
(0.956316 -0.262247 8.8919e-21)
(1.01275 -0.000677291 -4.45067e-21)
(1.01583 0.000733241 -1.16854e-21)
(0.944386 -0.00920252 0)
(1.16595 -0.0251755 8.65843e-21)
(1.05903 -0.0597659 0)
(1.01499 -0.000267118 1.97679e-21)
(1.00983 0.0240975 -3.06473e-21)
(1.0134 -0.000486347 -2.76808e-21)
(1.01567 0.00104837 1.86775e-22)
(1.05859 -0.138914 6.48199e-21)
(1.01532 0.00115713 3.11655e-21)
(1.02349 -0.00708456 3.05265e-22)
(0.916822 0.251425 9.64215e-21)
(0.920356 0.234369 -1.08998e-20)
(1.01776 0.000704046 -3.9389e-21)
(0.861634 -0.113691 0)
(0.834794 -0.108875 2.9122e-21)
(1.01279 -0.10622 -8.39523e-22)
(0.945569 -0.0704894 0)
(1.02952 -0.376568 0)
(1.01242 -0.000364335 0)
(0.89995 0.0948307 -6.91325e-22)
(1.02178 -0.00709378 0)
(1.01306 -0.0013326 -3.3699e-22)
(1.0198 -0.00420447 0)
(1.00886 -2.93068e-05 0)
(1.0119 0.000162308 -3.44068e-21)
(0.896856 -0.430755 2.9622e-20)
(1.01851 -0.00234849 -6.84392e-22)
(1.02806 -0.156962 0)
(1.014 0.000741117 0)
(1.0286 0.0291215 -9.07519e-22)
(1.02251 -0.00722227 -5.84803e-23)
(1.05453 -0.0612641 0)
(1.02372 -0.00088224 0)
(1.01216 -0.00145773 3.24127e-21)
(0.985021 -0.0494022 4.06708e-21)
(1.01436 9.77152e-05 -1.67651e-21)
(1.01573 0.000898036 1.45467e-21)
(0.924505 -0.0601972 1.38318e-21)
(1.00806 0.00167726 -1.91978e-21)
(1.00872 -0.0276023 3.47853e-21)
(1.01783 -0.00168139 1.56248e-21)
(1.01429 0.00171146 0)
(0.946584 0.199955 0)
(1.11923 -0.287596 3.26274e-20)
(1.00994 0.00307693 0)
(1.01747 0.00205994 5.6648e-24)
(1.01717 0.00183136 0)
(1.0172 0.00388935 -4.77514e-22)
(1.02019 0.00229352 -1.43008e-21)
(0.871559 0.24332 4.00541e-22)
(0.931201 -0.0709583 6.78567e-22)
(0.946336 -0.0888903 0)
(0.997773 -0.0246128 1.91506e-21)
(0.921069 -0.190045 -6.39187e-21)
(1.0125 -0.00239162 -4.57334e-23)
(1.03855 -0.0127712 4.14273e-22)
(1.01586 -0.02249 -1.44677e-21)
(1.02602 -0.0177584 0)
(0.878403 -0.059239 -1.45216e-21)
(1.01481 -0.00339364 1.41165e-21)
(1.01389 -0.00186529 -2.86798e-21)
(1.11757 -0.113018 8.54867e-22)
(0.996013 -0.0355108 -3.3606e-21)
(1.01539 -0.408332 -9.73312e-21)
(1.01444 -0.00275528 0)
(0.936076 -0.280909 8.9867e-21)
(0.866468 -0.019053 1.08442e-20)
(1.01097 -0.000138941 -1.25579e-21)
(1.04155 -0.073033 -1.18216e-20)
(1.03986 -0.0181544 -9.0463e-21)
(0.851112 0.240895 -7.50344e-22)
(1.0107 -0.000202067 0)
(1.03196 -0.0255479 9.09163e-21)
(0.887337 0.0811749 7.15231e-23)
(1.00916 0.00305176 3.5206e-21)
(1.01456 -0.00295138 0)
(1.00533 0.0212826 -2.06831e-21)
(1.0212 -0.00721786 1.04746e-21)
(1.01256 -0.000166027 8.95397e-22)
(1.01378 -0.00190552 3.05236e-21)
(0.880164 -0.231033 -7.09858e-21)
(1.02112 -0.00781319 -1.23473e-21)
(1.04794 -0.0285631 0)
(0.934004 -0.00644676 -2.53955e-21)
(1.03837 -0.068694 1.19726e-20)
(1.03092 -0.00686901 0)
(0.995264 -0.00752574 -1.6086e-21)
(1.05151 -0.0193128 -7.72832e-22)
(1.0767 0.103193 -1.99452e-21)
(1.04703 -0.0259252 8.51189e-22)
(1.01584 0.000922916 0)
(1.02295 -0.00466314 5.43482e-22)
(1.03072 -0.00892552 3.57342e-21)
(1.0237 0.000766786 1.36786e-21)
(1.0097 5.24995e-05 0)
(1.01069 0.11994 0)
(0.933168 0.0958449 -8.48287e-22)
(1.04134 -0.0177184 9.92873e-21)
(0.886403 -0.036772 -3.85204e-21)
(0.990102 0.00930661 -2.89421e-21)
(1.08867 -0.0154127 -4.48779e-22)