/*--------------------------------*- C++ -*----------------------------------*\
| =========                 |                                                 |
| \\      /  F ield         | OpenFOAM: The Open Source CFD Toolbox           |
|  \\    /   O peration     | Version:  v2012                                 |
|   \\  /    A nd           | Website:  www.openfoam.com                      |
|    \\/     M anipulation  |                                                 |
\*---------------------------------------------------------------------------*/
FoamFile
{
    version     2.0;
    format      ascii;
    class       volScalarField;
    location    "700";
    object      nut;
}
// * * * * * * * * * * * * * * * * * * * * * * * * * * * * * * * * * * * * * //

dimensions      [0 2 -1 0 0 0 0];


internalField   nonuniform List<scalar> 
9793
(
0.00175318
0.000920779
0.0067212
0.00609901
0.00672553
0.000338255
0.000114841
0.00998836
0.00258139
0.000292767
0.0067239
0.00672371
0.00671794
0.0129783
0.00654374
0.00123517
0.000312063
0.00672063
0.00687749
0.00671247
0.00672037
0.00672625
0.00939775
0.00956083
0.0119842
0.000510373
0.0067221
0.00672549
0.00671248
0.000189196
0.00329996
0.000726016
0.00671923
0.00672006
0.00671802
0.000752321
0.00159847
0.00065178
0.0111121
0.000561587
0.000188405
0.000835216
0.000933632
0.00672575
0.00672106
0.00672064
0.00667672
0.00672608
0.00673792
0.0067207
0.00076544
0.0067169
0.000548118
0.00672575
0.000241811
0.0074529
0.006718
0.000229865
0.00673897
0.00672625
0.000444378
5.07606e-05
0.00672104
0.000593749
0.00671801
0.00307635
0.000525742
0.0012071
0.00152706
0.00308274
0.00346224
5.19066e-05
0.0101847
0.000944048
0.00748422
0.0067256
0.000120339
0.000717353
0.00672006
0.00672578
0.000116112
0.00677965
0.000334373
0.000882073
0.00150262
0.000141656
0.00672559
0.000279482
0.0113165
5.15771e-05
0.0116176
0.000195795
0.00024545
0.000290594
0.00103735
0.00671892
0.00799124
0.0002948
0.000908103
0.00672573
0.0129978
0.000466968
0.000838257
0.00672085
0.0077103
0.0031882
0.000980294
0.00671632
0.00671988
0.00672603
0.00672478
0.0111345
4.94595e-05
0.00228044
0.00449339
0.00672273
0.00209318
0.00672052
0.00686378
0.00672065
0.00714378
0.000266991
0.00937291
0.000430566
0.00159063
0.00672082
0.000287141
0.00464244
0.00035499
0.000347329
0.0016121
0.00671707
0.00189257
0.00145606
0.000806649
9.36775e-05
0.000171127
0.00183867
0.00672582
0.000306172
0.00447827
0.000778317
0.00401836
0.000340039
0.00620967
7.79242e-05
0.00672098
0.00730045
0.00671762
0.0067208
0.00672072
0.00258702
0.00101918
0.00672203
0.00669768
0.000221689
0.000288985
0.00672095
0.00062763
0.0053146
0.000297007
0.00151561
0.00672063
2.64841e-05
0.00412331
0.000463655
0.00079571
0.00324419
0.00671632
0.00672451
0.00373703
0.00192335
0.00185759
0.0094172
0.0067177
0.000307559
5.83032e-05
1.97027e-05
0.00672041
0.00123506
0.00822605
0.0052704
0.000266419
0.00672059
0.00672092
0.00671613
0.00835349
0.00998342
0.00134436
0.000829285
0.00336158
0.000730984
3.33978e-05
0.000596995
0.00674337
0.00111469
4.54881e-05
0.00671234
0.00672024
0.0067241
0.00341368
0.00672331
0.000716393
0.00134433
0.00739914
0.00502856
0.000640724
0.00335111
0.00188492
2.47739e-05
0.000304064
0.0038678
0.00671225
0.00318484
0.000846909
0.000546938
0.00564759
9.85705e-05
0.00672278
0.000106509
0.000279957
0.00672365
2.18354e-05
0.00539625
0.000296285
0.00671924
0.000383184
0.0023544
0.000115185
0.000101265
0.00698644
0.00026524
0.00058319
0.000544108
3.43057e-05
0.00672577
0.00263161
0.0030131
0.006712
0.00672459
0.000550871
0.00589955
0.00672485
0.000223961
0.00019944
0.00321297
0.00124246
0.000605812
0.000206989
0.00128198
0.00672041
0.000255381
0.00647649
0.00672198
0.00791736
0.00672561
0.00672321
0.00671604
0.00661084
0.00672031
0.000339499
0.00381525
0.00672187
0.00672295
0.000334349
0.00674074
0.00672512
0.00674109
0.00362897
3.109e-05
0.000635636
3.20184e-05
0.000239813
0.000796866
0.0068563
0.00285513
0.000329213
0.00672565
0.00202339
1.53674e-05
0.0122792
0.00702421
0.000283634
0.00159118
0.000348017
0.00130108
0.00674736
0.00338032
2.90185e-05
0.000478004
0.00672298
0.00672603
0.00671238
0.00675584
0.00672198
0.00969207
0.00671608
0.0067353
0.00678664
0.00671792
0.00443664
6.17187e-05
8.23049e-05
0.00130137
0.00034016
0.00680391
0.000851363
0.00373161
0.00672055
0.00452894
0.00062232
0.00672125
0.00029953
0.000894503
0.00671919
0.000201444
1.43615e-05
0.00232227
0.000230386
0.00673623
0.00215591
0.0037189
0.000170622
0.00672003
0.00672027
0.00126366
5.67036e-05
4.41234e-05
0.00672139
0.0067162
0.00673563
0.00146618
0.00111406
0.00453317
0.00672436
0.000143328
0.000211263
3.96023e-05
0.000289379
0.00672787
0.00673186
0.00673507
0.000366504
0.00257015
0.00553223
0.00672155
0.00671627
0.000707589
0.00983845
0.00386765
0.00676444
0.0126807
0.000735594
1.78634e-05
0.00622534
0.00651128
0.00102287
0.000493242
0.000214504
0.01224
0.00941818
0.00045007
0.00672555
0.000585419
0.00673438
0.00671574
0.00285364
0.00672135
0.00672625
0.00461316
0.00672421
0.000277915
0.000583903
0.00065643
0.00672765
0.000860166
0.00514089
3.25903e-05
0.0133774
0.000285562
0.00671642
0.000985752
0.00672128
9.35824e-05
0.00671028
0.00389003
4.93505e-05
0.000112292
0.00590258
0.00298401
0.00672251
0.00671857
0.000204846
7.92209e-05
0.0053612
0.00628688
0.00672247
0.00672332
1.37109e-05
0.00671223
0.000232914
0.00672644
0.000708776
0.00672197
0.00451637
0.00101629
5.24361e-05
0.000416875
0.000578719
0.00672103
0.00672211
0.00930124
0.000293628
0.00671987
0.00672374
0.000236138
0.000213009
0.000445252
0.00482229
0.00672379
0.00672013
2.74208e-05
0.0067212
0.00665534
2.21418e-05
0.00672076
0.0067192
0.00356898
0.00672213
0.00673409
0.0127069
9.71993e-05
0.00032264
0.000432294
0.00239037
0.000432099
0.000668724
0.00717871
0.000539896
0.0067257
0.00118183
7.21076e-05
0.00396618
0.004718
0.00366012
0.00671065
0.00671877
0.0060449
0.00672052
0.00672291
0.00124137
0.00130958
0.000209114
0.00678488
3.60895e-05
0.000598114
4.08374e-05
0.0052397
0.00674843
0.000680121
0.000126391
0.0067445
0.00671039
0.00387747
0.00670783
0.00024468
0.00671032
0.00672279
0.00672382
8.32318e-05
5.29586e-05
0.00164828
0.0067183
0.00672852
0.000268329
0.00593054
0.0121912
0.00086592
0.00202536
0.00651532
0.000359302
0.000208698
0.00222778
0.00671657
0.0076451
0.00671965
6.02832e-05
0.00108376
0.00671871
3.22969e-05
0.000740572
0.0132037
0.00672129
0.00781651
0.000274253
0.00130057
0.00035972
0.00671931
4.79504e-05
0.00672201
0.00671789
0.00672468
0.00672073
0.00542461
0.00671882
0.00673651
0.00121811
0.00672483
0.00671695
0.000183865
0.00127486
0.000578641
0.00671972
0.00671983
0.00525391
6.3921e-05
0.000908923
0.00759084
0.00140291
0.00222733
0.00672032
0.00673446
0.00524844
0.00673544
0.00672057
0.00373276
0.000610427
0.000199097
0.00671814
0.00672606
0.00291585
0.0067251
0.010377
0.00213199
0.000877189
0.00163147
2.45542e-05
0.00672563
0.000995027
0.00680454
5.52058e-05
0.00671987
0.000321494
0.00597184
0.00672224
0.00438215
0.00672263
0.0067244
0.00671947
0.00814709
0.00630426
0.00385514
0.00070092
0.00673537
0.00651496
0.00676536
0.000226883
0.00777331
0.000616953
0.00671964
0.000124992
0.00672505
0.00312309
0.00673668
0.000244786
0.00671794
0.00475595
0.00672022
0.0025418
0.000517441
6.72016e-05
0.00028475
0.00673234
0.00123647
0.00671833
5.27537e-05
0.00672576
0.0036977
0.00671897
0.00672016
0.00672572
4.45849e-05
0.000580501
0.00555616
0.000219954
0.000211572
0.000240737
3.42149e-05
0.00132863
0.0121571
0.000950326
4.95486e-05
0.000794526
0.000644841
5.45199e-05
0.0031004
5.35442e-05
0.000512611
0.00359624
4.79343e-05
0.00672521
2.88284e-05
0.000212848
0.000173648
0.000379598
0.0106071
0.00043636
0.000542677
0.000171842
0.00672438
4.2922e-05
0.00121835
0.00671992
0.00280829
0.00245321
0.000307545
0.0070104
3.44248e-05
0.00437547
0.00144378
0.000961702
0.0134498
3.2407e-05
0.00216297
0.00030786
0.0018044
1.97311e-05
0.000816751
0.00672062
8.41561e-05
3.10626e-05
0.000414088
0.00671787
0.000546252
0.00823721
0.000773617
0.00705566
0.000296097
0.000596857
0.000590395
0.00124363
0.00429669
0.00672674
0.000469213
0.00672609
0.000453072
0.00026605
9.96677e-05
0.00672549
0.00672453
0.00221919
0.00587112
0.00671606
0.00579229
0.000223476
0.00505443
0.0154183
0.00672588
6.71684e-05
0.0067186
0.000876341
0.000390986
0.000133247
0.000218082
0.000330067
0.00671327
0.00672041
0.000134744
0.00671983
0.00343201
0.000318026
0.015056
0.00672387
0.000366203
0.0114643
0.00119497
0.00379723
0.00918923
0.00561074
0.000287022
0.00113412
0.00309405
0.0067186
5.55501e-05
0.0114933
0.00803163
0.00368677
0.00672018
0.00671909
0.00191942
0.00138265
0.000898467
2.40766e-05
0.000416798
0.0067228
0.000343068
0.000716993
0.000226896
0.00357235
0.000449642
0.00173269
0.00671704
0.000100171
4.79895e-05
0.00672107
0.00672064
0.00672109
0.00139001
0.00671316
0.000487053
0.000262295
0.00232528
0.000211928
0.00228193
0.00378702
0.000259927
0.00303644
0.000322382
0.00672111
0.00672309
0.000715125
0.000528782
0.00058022
0.00671939
0.00672431
0.00290081
0.000902446
0.000580949
0.000219193
9.67043e-05
0.00671902
0.00672572
0.00321915
0.00118349
0.00672036
0.00672625
0.0125434
0.000409301
0.000146831
0.000241143
0.00671834
0.00527381
0.00672572
0.00672332
0.00374071
0.000310048
0.00546331
0.00672314
0.00672056
0.00671992
0.00671889
0.0067185
0.0039676
0.000879993
0.000289698
0.0013404
0.00672236
0.000288974
0.00029952
0.00124639
0.000406193
0.00672606
0.00671841
0.00120562
0.00663451
0.0110767
0.00248501
0.00573927
0.00672434
0.000629632
0.000200486
4.17452e-05
0.00619852
0.00672351
3.04359e-05
0.000347218
0.00671679
0.00672531
0.0050387
0.00672564
0.000185594
0.00671899
2.8694e-05
0.00672528
0.00680153
0.00672286
0.000487958
0.00660881
0.000688573
0.000533233
4.37796e-05
0.00671612
0.00671866
0.00672517
0.0067177
0.00320791
0.00583813
0.000548713
0.00672258
0.000364375
0.0134985
0.000384349
0.000294118
0.006724
0.00673748
0.00259054
0.000769185
0.00671766
0.00520636
0.00357915
0.00672315
0.00672062
0.00671666
0.00012001
0.000318193
4.08551e-05
0.00671583
0.000782968
0.00671574
0.0019237
0.0067866
9.31809e-05
0.00328556
0.000123486
0.00672198
0.000104523
0.00671684
0.00107405
0.0067258
0.000595409
8.40126e-05
0.00460965
0.00105333
0.00473885
0.000370607
0.00672575
2.48604e-05
5.67319e-05
0.000294349
0.003791
0.0067216
3.88264e-05
0.00671659
0.00672125
0.00672791
0.000804979
0.00311527
0.00672571
0.00619871
0.00214164
0.00142793
0.00688378
7.05218e-05
0.0041486
0.00672088
0.00671889
0.00363677
0.0067257
0.0027964
0.00671326
0.000309898
0.00671794
0.00962364
0.000245276
0.000284527
0.00208939
0.000179518
0.000785095
3.86736e-05
0.000356759
0.000542835
0.00671993
0.00323503
0.00671863
2.76528e-05
0.000358625
7.59254e-05
0.00357045
0.00384342
0.00138474
0.00112236
0.00671785
0.000342775
0.0103052
0.00322218
0.00671342
2.14013e-05
0.00132858
0.000198165
4.85128e-05
0.0151438
0.0148573
0.0067315
0.000523819
0.000689007
0.00173579
0.00216274
0.0109288
0.00672389
0.00114361
0.00675287
0.0067299
0.000140497
0.000208529
0.000387494
0.00207085
0.00161392
0.00118603
0.000123215
0.000449809
0.00672469
0.00210208
0.00672456
0.00617679
0.000141174
0.000533952
0.00252969
0.00669002
0.000655408
3.74842e-05
0.000685196
0.00672592
3.72004e-05
0.00672098
0.00672585
0.00671992
0.000331522
0.00672036
0.00139394
0.00660458
0.000278123
0.00677463
2.68105e-05
5.44506e-05
0.00672075
0.00268356
0.000507768
0.00672544
0.0067187
0.00672846
0.000976751
0.000746086
0.00217091
0.000484852
0.000211966
5.08314e-05
0.00401576
0.00746809
0.00671591
0.00671361
2.74158e-05
0.00017433
0.000288231
0.00294807
0.00671729
0.00451521
0.0119842
6.74773e-05
2.23931e-05
0.00672222
0.00241985
0.00671955
0.0019816
0.000749611
0.00041855
0.00133712
0.00367653
0.00225205
0.00672707
0.00671618
8.86567e-05
0.00671606
0.00692064
0.00674231
0.00219976
0.00672085
0.00141176
0.0138774
0.00886956
0.000354438
0.00503783
0.00671867
0.000227225
0.00199357
0.00399443
0.0067512
0.00672938
0.000791545
0.000236854
0.000238115
0.00672249
0.000231101
0.00139201
0.00569036
0.00244058
0.000217373
2.47239e-05
0.000709149
0.00018517
0.000281704
0.000130145
0.00673477
0.00143219
0.000302184
7.19221e-05
0.0067186
0.000345145
0.00671333
0.00672345
0.0019553
0.00672678
0.00672513
0.00672019
2.30409e-05
0.000754938
0.00170288
0.000194254
0.00671618
0.00672327
0.000320811
0.00491703
5.92873e-05
0.000199185
0.0128038
0.0067248
0.00473549
0.000401669
0.00303137
0.000110312
0.00672398
0.00366394
0.00158555
0.00460644
3.34593e-05
0.000168673
5.34652e-05
0.00671771
0.0044576
0.00672532
0.00672397
0.00359574
0.000893081
0.00412318
0.000296799
3.36911e-05
0.00585652
0.00185518
0.000784338
9.48988e-05
0.000438683
0.000648914
2.98748e-05
6.36224e-05
0.00221741
0.0154018
0.000191679
0.0001858
0.00510481
0.000394366
0.00331865
0.0067255
0.0067246
0.00114373
0.000436394
0.00120397
0.000356011
0.00671704
0.000844568
0.00671886
0.00517846
5.06245e-05
0.00671872
0.00146076
0.00673848
0.00673194
0.00545712
0.0152835
0.00209797
0.000385478
0.000284617
0.00673796
0.000114845
0.00672462
0.000472872
0.00672174
0.00262149
0.0043649
0.00242651
0.0013019
0.000162243
0.000378139
0.00672426
2.41494e-05
0.000109812
0.000619907
0.000657233
0.00149129
0.0081782
0.000746114
0.00675778
0.0067284
0.00675736
0.00161281
0.000500454
0.0011224
0.000142994
0.000697242
0.00671678
0.00526276
0.000718185
0.00249032
0.00235067
0.00671544
0.000231887
0.000987919
0.00671518
0.00102664
0.00551636
0.00012582
0.00456646
0.00282977
0.00631178
0.00138805
2.65827e-05
0.00781063
0.00153007
0.00628743
0.00087869
0.00672439
0.00672583
0.00200072
0.000435866
0.000902858
3.28407e-05
0.00451441
3.53517e-05
0.000232974
0.00672087
0.000148217
4.33984e-05
0.00672466
3.73522e-05
0.000275259
0.00672449
0.000788426
0.00672495
0.00215926
0.000261655
3.30278e-05
0.00284306
0.00671512
0.00567796
0.0132749
0.000272971
0.00672562
0.000272645
0.00672268
0.00671727
0.00279287
0.00043627
0.00671722
0.00671108
0.00665758
0.00533226
0.000254137
0.00199431
0.00439028
0.00242481
0.00671786
0.00258532
0.00671749
0.00671705
0.00671234
0.00368428
0.000450108
0.000578853
2.03417e-05
0.000405728
0.012125
0.00827321
0.00650067
0.000195419
0.0046289
0.00672504
0.00300022
0.00671867
7.36054e-05
0.00671657
5.26724e-05
0.000631839
0.000287468
0.00671997
0.0127128
0.000200181
0.00785858
0.00671734
2.88187e-05
0.000739894
0.000185347
0.000615106
0.00046267
0.00671224
0.00631046
0.000327156
0.000252191
0.00671705
0.00188098
0.00671926
0.00976335
7.38799e-05
0.000134529
0.00672224
0.00672139
0.0113851
0.00239986
0.000655708
0.00672623
0.000439561
9.37131e-05
0.000402642
0.000995369
6.48585e-05
0.0042028
0.000773593
0.00672441
0.000628711
0.00672591
0.000437528
0.00672645
0.00265025
0.000812788
4.4812e-05
0.00672454
0.00022379
0.00144496
6.96052e-05
0.00671641
5.65892e-05
0.000941771
9.83927e-05
0.00391148
0.00671853
0.00654695
0.000776038
0.00979109
0.000776388
0.00507338
0.00137184
0.00672644
0.00673129
0.000899981
0.000489314
0.000597053
0.00526
0.00134793
0.000552381
0.0001597
0.00672597
0.00359204
0.000268234
0.00019578
0.00218974
0.00672414
0.00774473
0.00671585
0.00804252
3.7858e-05
0.00036917
0.00672016
0.00672795
0.000320571
0.0002849
0.000968875
0.00672573
0.002306
0.000382981
0.00299728
5.27586e-05
0.00741519
3.16825e-05
0.00672298
0.000836886
0.00210394
0.00672361
7.61461e-05
0.00560359
0.00012207
0.000215087
0.00672148
0.000146391
3.40974e-05
0.00673737
0.000768834
0.00672266
0.000266928
3.90316e-05
0.000243015
2.55447e-05
0.00672321
0.00224479
0.00185931
0.00234622
0.000173912
0.00024286
0.00136735
0.00671909
0.00114148
0.000681957
3.72659e-05
0.00288931
7.23556e-05
0.00152193
2.73958e-05
0.000611298
0.000974707
0.00072422
2.46887e-05
0.00672166
0.00672584
4.35822e-05
0.00674165
3.51628e-05
2.79796e-05
0.00081614
0.00672696
0.00671986
0.00881857
0.00672298
0.00402381
0.000107912
0.00290774
0.00672165
0.00671547
0.00671529
0.000382916
0.000518204
2.65232e-05
0.0128686
0.000158306
0.000183138
0.00671134
3.94537e-05
0.00126798
0.000311335
0.00227068
0.000403558
8.96768e-05
0.00672339
0.00671251
0.000294912
0.00671516
0.000258228
8.11071e-05
0.00541023
0.00832824
0.000577934
0.00921019
0.00673043
0.0067259
0.00672092
3.50737e-05
8.42105e-05
0.000308566
0.000114274
0.000336523
0.000185713
4.88979e-05
0.00543068
0.00681989
0.00286477
0.00439679
3.21777e-05
0.00671234
0.00672405
0.0141752
3.50948e-05
0.00554562
0.000203671
2.83281e-05
0.00470165
0.000694096
0.000770416
0.000295262
0.000390486
0.000342761
0.00292684
0.00694255
0.00601704
0.000879149
0.00138918
0.00671604
2.29928e-05
0.00674052
0.00672029
0.0148726
0.00203739
0.00671712
0.000116526
0.000335603
0.0122806
0.0128279
3.30461e-05
0.011276
0.0067295
0.00627862
0.00527062
0.00672415
0.00145742
0.00270849
0.0080388
0.00130097
0.00854367
0.000704466
0.00238978
0.00671243
0.00198604
0.000320441
0.00379452
0.00671786
0.000206095
0.00671861
0.000363049
0.00165297
0.00365312
0.00069737
0.00672107
0.0067628
0.000339713
0.00671716
0.00671372
0.00672176
0.00672434
0.00207511
0.0061099
0.00115877
0.000268238
0.00074318
0.00756683
0.00712755
0.00805282
0.00671563
0.00671896
0.00645626
0.00671092
0.00672226
0.00671548
0.000432715
0.00672266
0.00672529
0.00672074
0.00671975
0.00352542
0.0062887
0.00230911
0.00671871
0.00264707
0.000443718
0.00671266
0.00579886
0.0048026
0.00671916
5.48894e-05
3.5452e-05
0.00290142
0.000121073
0.000823894
0.00671126
0.000511672
0.00679326
0.000547819
0.00671915
0.00672529
0.00671582
0.000597713
0.000970611
0.0001241
0.00671968
0.00672565
0.00435173
0.000572418
0.00671964
0.0010488
0.00103068
0.00672535
3.26908e-05
0.00141177
0.000183445
0.0144699
3.27574e-05
0.000188162
0.00672555
0.000665165
0.000101354
0.00139702
0.000312899
0.00672627
0.00672266
0.00672521
0.00470789
0.000136512
0.00671868
0.00671972
0.000276985
0.00671526
3.22024e-05
0.00364639
2.24567e-05
0.000480491
0.000351594
0.00672112
0.000971965
0.000267826
0.000233275
0.00218622
0.000173934
6.04563e-05
0.00055953
0.00677007
2.5084e-05
0.00459361
0.00671766
0.00803611
0.00013699
2.99588e-05
0.000132972
0.00672286
0.000503313
0.000443609
0.00671243
0.000967941
0.00671144
0.000641464
0.000264809
0.000261858
0.00671507
0.000124333
6.97853e-05
3.35596e-05
3.44285e-05
0.00112951
0.000841168
0.0067218
0.00417567
0.000463797
0.000103258
0.00248633
0.00671853
2.93092e-05
0.00683643
0.00221143
0.00014092
0.00493767
0.00671128
0.00113952
3.90966e-05
3.13841e-05
0.000137667
0.00910306
0.00302853
3.27931e-05
0.00671734
0.00672507
0.0063802
0.000345792
0.00195688
0.00672197
7.04703e-05
2.98198e-05
3.71548e-05
7.63766e-05
0.00671589
0.00671889
0.00671276
2.9582e-05
0.00118554
0.00672742
0.000416804
0.012233
0.00023342
5.64758e-05
0.00855544
0.00306969
0.00103743
0.00673071
0.00327361
0.00816822
0.00671708
0.000116504
2.59426e-05
0.00474771
0.000916468
0.000295377
0.00478972
3.09321e-05
2.67739e-05
0.00526315
0.0102164
0.0132112
0.00672232
0.00671874
0.00672013
0.00275582
0.00100995
0.000100513
2.91875e-05
2.20705e-05
9.27259e-05
0.00397588
0.000523251
0.00672838
0.000683204
0.00671775
0.000153269
0.00251518
0.000329805
0.00672072
0.00671534
0.000587576
0.000768275
0.000100608
0.00610861
0.000132147
0.00266724
6.48082e-05
0.00671304
5.62036e-05
0.000254494
0.0064734
0.000778478
3.73801e-05
0.000106994
0.000159535
0.00217908
0.00672125
0.000552228
0.000585646
0.00671458
0.0067229
0.00672544
0.00671182
0.00148259
0.000538965
0.00887349
3.61758e-05
0.00540962
0.00245903
0.00672179
0.00379214
0.0013973
0.000365012
0.00138408
0.00671595
0.00808855
0.00691791
0.000225003
0.000218642
2.24599e-05
0.00111822
3.76804e-05
0.000276147
0.0112839
0.00671952
0.00133105
0.000187525
5.8941e-05
0.000221108
7.47752e-05
0.0060175
0.000876024
7.47218e-05
0.000260866
3.40886e-05
0.00108327
3.46137e-05
0.0016561
0.000249998
8.42817e-05
0.00556974
0.000639501
0.000204462
0.00672217
0.000541262
0.000472312
0.000176651
0.00672163
0.00578276
3.81564e-05
0.0115379
0.00496959
0.00842249
0.000182357
3.3901e-05
0.00672936
0.00671549
0.000689997
0.000890476
0.000976374
0.00053595
0.00074411
0.0145106
0.000386774
0.00671657
3.63827e-05
0.0067137
0.0067175
4.42397e-05
0.000543988
0.00593605
0.0147066
0.00738035
0.00297536
0.00671192
0.000529667
0.0034031
0.00671539
5.34473e-05
0.0003206
0.000874725
4.10756e-05
0.00630489
0.00672584
0.000953257
2.81007e-05
0.00187209
3.64299e-05
0.00012001
0.0101074
0.0114861
0.000608438
0.00678325
0.00308159
0.00902602
0.0116349
0.0092797
0.000935023
0.000612642
5.82934e-05
5.66634e-05
0.0126053
0.00204403
0.00672255
0.00684627
0.00668638
0.00745849
0.0015614
0.00656645
0.00498644
2.71693e-05
0.00520712
0.000772288
0.00671773
0.0119232
3.87447e-05
0.00055144
0.000248774
0.00993124
0.00663323
0.00497452
0.000975291
0.00312755
0.000372145
0.00714804
0.00014907
5.39793e-05
5.02765e-05
0.00671295
0.00078912
0.00567344
0.00592584
0.00103301
0.00672339
0.0140102
6.17963e-05
0.00897158
0.00015201
3.64706e-05
0.011905
0.00672015
0.00102787
0.00672603
0.000756879
0.00276457
0.00676085
0.00671198
0.000287816
3.48953e-05
0.00671119
0.000997851
0.000324599
0.000390598
0.00484657
0.00848821
0.00671717
0.00712895
3.78371e-05
0.00636452
0.00025681
0.00672379
0.00038066
9.67639e-05
0.00673077
9.68481e-05
0.000955129
0.00671173
0.000365747
0.00340276
0.000259575
0.000717364
0.00027279
0.00256695
0.014192
9.96796e-05
0.00210194
0.00432608
0.00101776
0.0104208
0.00729857
0.00823939
0.000217795
0.00996112
0.00670936
0.000327271
0.00671991
0.00324785
0.00012133
0.00672334
0.00671634
0.00441537
0.00386739
0.000107032
0.011505
0.00770526
0.000617097
4.1147e-05
0.000370573
0.00805848
3.22525e-05
0.00847289
0.00644548
3.39342e-05
5.82271e-05
0.00672031
0.000326815
9.04847e-05
0.000384274
0.0137453
0.00505257
3.2182e-05
0.0067217
0.00111621
0.000128175
0.00672045
0.00389797
0.000602702
0.0117208
0.00109086
0.00184809
0.0140114
0.000307392
0.000183076
0.000656396
0.0121998
0.000105389
0.00799104
0.00658453
0.00887302
8.07236e-05
0.000589042
0.00254863
3.55459e-05
0.000126818
0.000457017
7.83226e-05
8.36998e-05
0.0067097
0.000341866
0.000778709
0.00131959
0.00671251
0.00215166
0.000356885
0.00671635
0.00671968
0.000181308
0.00758809
0.00101586
9.20557e-05
3.9126e-05
0.000293259
0.000313746
0.00539647
0.00671919
0.000287749
0.000196362
0.0020916
0.00041992
3.30357e-05
0.00184469
0.00236589
0.00177457
0.00673957
0.0120821
0.00102707
0.000912679
0.00671158
0.000137575
0.000638206
0.00255444
0.00399317
7.61476e-05
0.00672304
0.00553134
0.00905181
0.000359063
0.00674892
5.99215e-05
0.0069502
0.00025653
6.42097e-05
0.00671153
0.00144511
0.00672189
0.0140686
0.000344978
0.00672007
0.00583087
0.00187973
0.000100666
0.000217448
0.00671303
5.28794e-05
0.000222704
0.00352311
0.00169433
0.000474339
0.000989068
0.000237459
0.00671009
0.00671832
0.000354092
8.17212e-05
0.00021286
0.00679074
0.00739777
0.00176898
0.00190388
0.00671791
0.000107997
0.00607123
0.00115177
0.00416539
0.000288753
0.000164218
0.00592253
0.000340199
0.00685701
0.000411758
0.000341337
0.000306619
0.000152434
0.00025669
0.00671778
0.000302612
0.000729152
0.00424251
0.00672131
0.00519038
0.00672035
3.29978e-05
0.000132272
0.00146739
0.00689484
0.000511878
0.00233405
0.00506399
0.0111724
0.00671523
0.000332751
0.00972244
0.00102446
0.000628382
0.000150303
5.24228e-05
0.00855202
0.000794188
0.00671865
0.000135371
0.000140521
0.00638508
0.00836348
0.000163309
0.00671314
0.00672509
0.00672207
0.00671892
0.0063086
0.00606854
0.000275514
0.00671929
0.00351337
0.000254418
0.00672201
0.0145286
0.00023343
0.00243994
0.00671511
0.000272153
0.00158149
9.55214e-05
0.00201184
0.00668433
0.000156084
3.83554e-05
0.000149578
0.00671268
0.000298192
0.00484163
0.000245052
0.00850353
0.000436577
6.49986e-05
0.000272333
0.00124534
0.000225536
0.000187444
0.00973681
0.00672268
0.00255812
0.00674777
0.00578318
0.000424891
0.000223241
0.000384114
0.00474515
0.00131183
0.000237349
0.000469654
0.00454632
0.00014404
0.00668868
6.64845e-05
0.00672006
0.00440725
0.0028753
0.00466966
0.00672191
0.000126787
0.000754688
0.000358791
0.000297835
0.00671629
0.00919817
0.000786954
0.00671948
0.00860379
0.000390908
0.00672138
0.00672303
0.000606765
0.00672276
0.00671965
0.000320206
0.000148692
0.000124041
0.00590487
0.000913523
0.000501607
0.00760251
0.00673383
0.00321687
0.0100719
0.000962641
0.00033599
0.000210541
0.00375449
0.000309424
0.00671067
0.00148509
3.19659e-05
0.0067187
0.00102734
0.00936225
0.00435396
0.00441666
3.19985e-05
0.00056898
0.0120448
0.0125144
0.00672179
0.000317143
0.00618133
0.00282454
0.000361352
0.000300505
0.000249115
0.00771788
0.000176532
0.00273589
0.000371558
0.000337562
0.000122499
0.00101954
0.00671738
0.00671103
0.0067257
0.000136476
0.00141163
0.00672058
0.000693342
0.00127174
0.00619491
0.00672445
0.000449338
3.28653e-05
0.0123868
0.00672469
0.00442904
0.000506363
0.000147031
0.000528594
0.00128234
0.000858729
0.00401436
0.00672113
0.000690317
0.0067174
9.99393e-05
0.00671994
0.00331731
0.00272535
0.00257794
0.0067127
0.00133074
0.00671888
0.000372238
0.00372517
0.000444884
0.000326032
0.00013455
0.00671818
0.000262789
0.000334286
0.000722057
0.00663008
0.00671517
0.000168028
0.00671997
3.96849e-05
0.0141587
0.00519346
0.00671533
6.40611e-05
0.000263589
0.00777911
3.78721e-05
0.00672522
0.000703128
2.97316e-05
0.000170282
0.000737586
0.00327052
0.00320061
0.000174954
0.0041968
0.00568747
0.000895708
0.000212438
0.000334569
5.54881e-05
0.00682127
0.000656411
0.000550337
0.0025882
0.000186781
0.00387653
2.81635e-05
0.000940633
0.000188131
0.000438134
4.00398e-05
0.00500531
0.000145228
0.000299494
0.000752896
0.00311846
0.00672354
0.000584502
0.000532251
0.000429006
0.0108323
0.000996332
0.000197175
3.60779e-05
0.00672052
0.00100636
0.000820893
6.24305e-05
0.00628329
0.00672557
0.0030811
0.00235689
0.00283902
0.000947115
0.0011853
0.000241921
0.00343717
3.20501e-05
0.00025214
0.00671966
0.000798328
0.000149647
3.81887e-05
0.000137252
0.000279905
0.00760572
0.0142453
0.000412777
0.000608479
0.00253796
0.000946129
0.000703986
0.000154171
0.00032693
0.000905838
0.000254297
0.00480747
0.000793135
0.00672007
0.00621274
3.22192e-05
0.0115097
0.000201626
0.000668308
0.000884071
0.000911926
0.00672353
0.00536676
0.000433188
0.00671707
0.00120544
0.00674815
0.00132698
0.00101984
0.0067215
0.000163887
0.000610694
0.00346902
0.00672224
0.00672226
0.00135929
0.00185922
3.62508e-05
0.00672083
0.0009872
3.34052e-05
0.00672741
0.00115523
0.00206161
0.000905055
0.00630915
0.00514172
0.00604044
0.00498277
0.000747875
0.000199939
0.00671739
0.000243181
0.00323891
0.000326562
0.00293827
0.000370639
0.00228447
0.000336656
0.00671987
0.000626312
0.00671592
0.00835384
0.000153751
0.00672115
0.00338361
0.000700235
0.00379427
0.000334787
0.00672066
0.00671564
0.00145971
0.00327765
0.000244492
0.000170575
0.00672218
0.00671569
0.000241469
0.00930568
0.000698994
0.00170048
0.0126257
0.00672025
0.003485
0.000357769
0.00047216
0.00671523
0.00825992
0.00495336
0.00224391
0.000219396
0.000322048
0.00605188
0.00742273
0.00320776
0.00722677
0.000369549
0.000108486
0.00672006
0.000334757
0.00519684
0.00671531
5.62007e-05
0.00671864
0.00672019
0.00671488
0.00671172
0.000349326
0.000804002
0.0106411
7.55291e-05
0.00418462
0.00155304
0.000305418
0.0024533
0.00131514
0.000260147
0.00293564
0.00673945
0.00671743
0.00145113
0.00107875
3.96155e-05
0.000325667
0.000331891
0.00672257
9.62006e-05
9.59218e-05
0.00696871
0.0068361
0.00102318
0.000485423
0.00672144
0.00065238
0.0149114
0.00672163
0.00671771
0.000937636
0.00672428
0.000452485
0.000250177
0.00920881
0.00243411
0.000961423
0.00265423
0.00615623
0.000355107
0.00671478
0.000573648
0.000617422
0.000438344
0.000623503
0.000731715
0.000239386
0.0034955
0.00674343
0.0067173
0.000434226
0.000489254
0.00566638
0.00907285
0.00111497
0.00421011
0.00671077
0.00219049
0.000330276
0.00611827
0.000250927
0.000950407
0.00128143
0.00114666
0.00083863
2.85499e-05
0.00672087
0.00857163
0.0061794
2.9391e-05
0.000337646
0.00108569
0.00577925
0.000770026
0.0067163
0.00670979
0.000661033
0.00671405
0.000590573
0.00349429
0.00241606
0.000644123
0.00759303
0.00114825
0.00152976
0.00672079
0.00362965
0.00659806
0.000543622
0.0125378
0.000483167
0.00536283
0.000782989
0.000384372
5.21721e-05
0.00671969
0.000386984
0.000572178
0.000744274
0.00412675
0.00462264
0.00812545
0.000560396
0.00672051
0.00119461
0.0067214
0.00673078
0.00672184
0.00671964
0.00614943
5.48975e-05
0.00672213
0.000283196
0.00149899
0.00151208
0.00481841
0.000337601
0.00298539
0.00155971
0.0061082
0.00671903
0.00686256
0.000633112
0.00671486
0.000482282
0.000696432
0.00151641
0.000135893
0.00341479
0.00079293
0.00674952
0.000196764
0.0067165
0.00484979
0.00110706
0.00242281
0.000186136
0.000543267
0.000887652
0.000248734
0.00670981
0.00672161
0.0015842
0.0104891
0.00175646
0.00672644
3.93429e-05
0.00335918
0.00671417
0.00671639
0.000139978
0.000254014
0.000270625
0.000238798
0.000288006
0.000109078
0.00111505
0.000594999
0.000111101
0.00751894
0.00210224
0.000521888
0.00617968
3.65826e-05
0.00023172
0.00671687
0.00110432
0.0100228
0.000322821
0.00671647
0.00492877
0.000674826
7.98011e-05
0.00900026
0.000850968
0.00496465
0.000553655
0.00672533
0.00237723
0.0067173
0.00107814
0.000635414
0.00671816
0.00672063
0.000261606
0.00232896
0.000258675
0.00431756
0.000890563
0.00462468
0.000985369
0.00946332
0.00279811
0.00387838
5.42739e-05
0.00281078
0.0036311
0.000309208
0.00692413
0.00779742
0.00270994
0.00090873
0.000636983
0.00672517
0.00672289
0.000541709
3.59975e-05
0.00671068
0.000101495
0.00361012
0.00671695
0.00673375
0.00671202
0.00240688
0.000347912
0.000576596
0.000948028
0.0092887
0.00111011
0.000468959
0.00672677
0.0124918
0.000858002
0.00242845
0.00294392
0.00036837
0.000572629
0.00311523
0.00672283
0.000150389
0.00782394
0.00677513
0.00642281
0.000899685
0.00748435
0.0013005
0.000343711
0.000458424
0.00931769
0.000800529
0.0034057
0.000419181
0.000420399
0.00051558
0.00041209
0.00244162
0.00838862
0.00197637
0.00672324
0.00466434
0.000275392
0.00417615
0.00671597
0.000500727
0.00482615
0.00475156
0.0067162
0.000110183
0.00395925
0.00671441
0.00671957
0.00590895