/*--------------------------------*- C++ -*----------------------------------*\
| =========                 |                                                 |
| \\      /  F ield         | OpenFOAM: The Open Source CFD Toolbox           |
|  \\    /   O peration     | Version:  v2012                                 |
|   \\  /    A nd           | Website:  www.openfoam.com                      |
|    \\/     M anipulation  |                                                 |
\*---------------------------------------------------------------------------*/
FoamFile
{
    version     2.0;
    format      ascii;
    class       surfaceScalarField;
    location    "700";
    object      phi;
}
// * * * * * * * * * * * * * * * * * * * * * * * * * * * * * * * * * * * * * //

dimensions      [0 3 -1 0 0 0 0];
oriented        oriented;


internalField   nonuniform List<scalar> 
14470
(
-0.114005
0.255602
-0.141616
-0.00160121
0.00390318
-0.200875
-0.20523
0.405805
-0.0127454
0.00551192
0.00723345
-0.362355
-0.217064
0.578965
0.0965392
0.052275
-0.148821
-0.177292
0.0871788
0.0901031
-0.00464496
-0.000862356
0.0055073
-0.197074
0.354541
-0.157519
0.703331
-0.371846
-0.332079
0.318755
0.384069
0.651694
-0.410853
-0.240693
-0.0630978
0.0569901
0.00611255
-0.0316634
-0.341206
0.372011
-0.226555
-0.0541307
0.280353
0.0953438
0.123618
-0.219016
-0.240411
0.46893
-0.228113
0.0408681
-0.0340865
-0.00678163
-0.527149
0.0765652
0.449842
-0.519824
0.35847
0.161038
0.321691
0.275324
-0.0123314
0.0172057
-0.00487439
-0.00873467
0.00408971
-0.0300727
-0.0330201
0.215393
-0.0842944
-0.131112
-0.0760267
0.47754
-0.40172
-0.566215
-0.0368619
0.603236
-0.467271
-0.060507
-0.0698389
0.165786
-0.0959573
-0.0305643
0.0326166
-0.00205229
0.0690029
0.0741988
-0.143202
-0.256533
-0.187682
0.443508
-0.526127
0.345884
0.179969
0.572506
-0.587368
0.0135423
0.27342
-0.201205
-0.0723183
0.185731
-0.336027
0.150228
-0.228899
0.154972
0.0738869
-0.0600667
0.00861691
0.0514507
-0.035142
-0.177328
0.212408
-0.179745
0.109899
0.116272
-0.119018
0.0027432
-0.0247151
0.0176163
0.00709862
-0.612767
0.0462302
-0.459419
0.321381
0.138158
0.543068
-0.28672
-0.256049
-0.0146903
0.0215796
-0.00688929
0.597264
-0.354554
-0.243013
-0.48735
0.196585
0.290868
-0.455775
0.215666
0.181849
0.0914208
0.160027
0.411448
-0.110809
-0.0938044
0.204553
0.346019
0.250898
-0.0466688
-0.122597
0.169253
-0.000976686
-0.0117687
0.39308
-0.573794
0.180947
-0.194342
0.131515
0.0628181
-0.296252
-0.191037
0.242461
-0.0838953
0.177933
-0.0940608
-0.135886
0.0969282
0.0389569
0.272174
0.158384
-0.430742
0.0960137
-0.237019
0.140925
-0.651253
0.330826
0.320684
-0.372208
0.175092
0.0209692
-0.0209692
0.310014
-0.183016
-0.127167
-0.326349
0.214092
0.112169
-0.0484338
0.0472645
0.0011686
-0.0472518
0.255119
-0.207925
-0.0671651
0.0411823
0.0259839
0.0104607
-0.00802013
-0.00244051
0.0575189
0.0945998
-0.152163
-0.0498155
-0.0274787
0.0772948
-0.511434
-0.0201847
0.531152
0.0698292
0.065867
-0.135703
-0.00239031
0.0896044
-0.087215
-0.202811
0.421396
-0.218705
0.289986
0.288711
-0.578723
0.100027
-0.0301996
0.0290603
0.0118077
-0.106137
0.201439
-0.139818
0.29944
-0.159708
-0.140708
0.0937935
-0.158568
0.0647694
-0.27348
0.56317
-0.0665443
-0.147481
0.213877
-0.00767065
-0.0523949
-0.097726
-0.0381603
-0.00668091
0.0151215
-0.00844062
-0.15014
0.091136
0.059003
-0.0547929
-0.095349
-0.187972
-0.0252156
0.213149
-0.0335234
0.00880809
-0.24059
0.486014
-0.245416
-0.0722869
0.0224712
0.103591
-0.193994
0.0903671
-0.126951
0.267568
-0.140744
-0.633959
0.271121
0.0664538
-0.0432741
-0.0231789
-0.205595
0.0947049
-0.15378
0.0209806
0.132767
-0.241455
-0.217855
0.0383898
0.0320061
-0.0704008
0.00276884
-0.0666616
0.0638922
-0.117461
0.174939
0.191925
0.322221
-0.514686
0.208222
-0.411121
-0.312694
-0.244431
-0.278573
0.522559
-0.0142051
0.00187374
-0.00469598
0.0129009
-0.00820486
0.0289183
-0.0297955
0.000877209
-0.271704
0.224394
-0.63949
0.22488
0.413993
-0.388692
0.173579
0.214838
0.277007
-0.502398
0.225884
0.0162034
-0.0210979
0.0048945
-0.415996
0.0280586
0.38806
-0.0841816
0.0750542
0.00912367
0.145961
-0.212629
0.0393145
0.0260954
-0.0654121
-0.235094
0.146142
0.0888993
-0.211171
-0.124933
0.0447715
-0.460512
-0.0600862
0.18942
-0.12937
-0.0273953
-0.00316906
0.18438
-0.0592358
-0.125154
0.0608091
0.123558
-0.14124
0.275002
-0.133743
-0.0810861
0.412244
-0.331581
-0.248653
0.134641
0.188989
-0.302985
0.113809
0.0871943
0.168429
-0.255719
0.164664
-0.130687
-0.0339837
-0.168352
0.112694
0.0556566
-0.12312
-0.265785
0.115385
-0.627045
-0.0678702
0.150272
-0.0824252
0.0405063
-0.0338428
-0.00666385
-0.114116
-0.0687132
0.314624
-0.245647
-0.218683
0.141684
0.0768791
0.0183685
-0.00854447
-0.00982402
0.13382
-0.0862824
-0.0475392
0.357246
-0.464781
-0.0376112
-0.0346756
-0.36245
0.28112
0.402239
0.606661
-0.311193
-0.296009
-0.00685342
0.0159096
-0.00905632
-0.294143
0.167077
-0.41359
0.337352
-0.120885
-0.213853
0.334683
0.0907942
0.0389502
-0.129746
0.175042
-0.0514619
-0.184484
0.456697
0.121816
-0.0528129
0.246138
-0.386055
0.139808
0.0717908
-0.219399
0.143994
-0.285314
-0.145093
-0.374944
-0.0604107
0.05862
0.00179048
0.376256
-0.172032
-0.204211
0.105222
-0.107614
-0.154895
-0.00113136
0.155996
0.348424
-0.192752
-0.155664
0.328262
0.187498
-0.515851
0.67174
-0.346419
-0.325438
-0.277547
0.208924
0.0208517
0.00252076
-0.0233724
0.0195094
-0.0202911
0.000781676
0.00731866
-0.0112799
0.00395685
0.271456
0.380371
-0.0772166
0.173744
-0.0547362
0.135007
-0.0802738
0.0338484
0.0219694
-0.055818
-0.223898
-0.223703
0.447475
0.31648
-0.184378
-0.132253
-0.0706052
0.10899
0.0036782
0.213418
-0.0675656
0.211196
0.332171
0.511
-0.255954
-0.254689
0.519871
-0.0767017
0.116013
0.00458331
0.00587737
0.063788
-0.0442787
-0.0195121
-0.134302
0.171654
-0.383954
0.212235
-0.00315798
-0.0194938
0.0226518
-0.0336353
0.0289723
0.00466317
0.078752
0.104955
-0.183728
0.261458
-0.422353
0.160834
0.261054
-0.128842
-0.132248
-0.00827457
0.0115886
-0.00331405
-0.114021
0.433073
-0.319111
0.332496
0.136735
0.254447
0.303482
-0.557705
-0.353484
0.235763
0.117723
-0.457434
0.382114
0.0750933
0.11348
-0.277546
0.163923
-0.143464
-0.123282
0.266647
-0.00890454
-0.0249426
0.0338472
-0.151248
0.313077
-0.1617
0.138983
0.0826944
-0.221751
0.176708
0.171705
0.305054
-0.175959
-0.129149
0.0479155
-0.0864418
0.0385259
0.107134
0.0334883
0.00701777
0.178285
0.256761
-0.435499
-0.0187702
-0.0296642
-0.2755
0.135591
-0.181785
-0.0582238
0.239889
-0.306472
0.274271
0.104368
0.0602897
-0.374802
-0.265164
0.0846641
-0.114663
0.0300026
0.177538
-0.073985
-0.362604
-0.0951237
-0.00745138
-0.0292278
0.0366794
-0.0245739
-0.0329041
0.0574561
-0.157577
-0.0304215
0.255358
-0.483491
0.2282
0.226759
-0.132474
-0.0943445
0.146038
-0.0944083
-0.0516338
0.109361
0.00481051
-0.114168
0.0856424
0.0237208
0.0439595
-0.0202887
-0.0236706
-0.207214
0.155097
0.0521005
-0.27596
0.0940053
0.216665
-0.120738
-0.0351209
0.00148573
-0.447766
0.274597
0.173279
-0.0178346
0.00253829
0.02638
-0.408074
0.294129
0.278888
0.27661
-0.555456
0.110002
0.00626747
-0.148609
-0.220967
0.369537
-0.505788
0.261002
0.228396
-0.106564
-0.121848
0.214431
-0.146752
-0.0677007
-0.200599
0.227971
0.0883839
-0.0733439
0.212273
0.12985
-0.171524
0.0416437
-0.0994306
-0.164129
0.263476
0.197386
-0.0491888
0.175614
-0.126447
-0.0308732
0.00485928
0.0260139
-0.551042
0.18818
0.0159035
-0.0108414
-0.00507388
0.528967
-0.183308
0.391069
-0.635714
0.245267
-0.0162248
-0.388517
0.403632
0.0152268
-0.229041
0.410413
-0.181259
0.124946
-0.0341527
-0.0450208
0.0226325
0.0223871
-0.338177
-0.254959
0.592211
-0.588174
0.213176
-0.0315383
0.131087
-0.0995497
-0.490325
0.473617
-0.285797
-0.271739
0.556922
0.563164
-0.564325
0.000963631
-0.0313454
-0.0136756
-0.0199652
-0.0404459
0.12287
-0.215724
0.0928801
-0.0604409
-0.043386
0.103827
0.13954
-0.193786
0.0542356
-0.133945
0.0216934
-0.0141438
-0.00754957
-0.377791
0.184952
0.0124388
-0.0234837
0.0110448
-0.203575
0.563959
-0.359567
0.0369735
0.109069
-0.00844041
-0.0420794
0.0505198
0.0262796
0.0413991
-0.0676765
-0.0521779
-0.0647389
-0.142492
0.140582
0.134439
0.0935719
-0.199751
-0.255463
0.111914
-0.447088
0.30165
0.145149
-0.289902
0.0325995
0.257264
0.0944358
-0.0465204
0.162833
0.0525507
-0.189795
-0.398493
0.625864
-0.34747
-0.278364
0.400436
-0.222241
-0.632839
0.37513
0.256753
-0.192873
0.0151087
-0.0038725
-0.0112362
-0.0804383
0.476232
-0.395915
0.459673
-0.269515
-0.190971
0.561823
-0.461408
-0.101408
-0.0986225
0.491793
0.0298857
-0.0327333
0.00284761
0.0743242
0.0594946
0.0201098
-0.0756163
0.0555091
-0.291723
0.196349
0.095312
-0.0498008
-0.168995
-0.0319441
-0.0359625
-0.124774
0.160698
-0.00678025
-7.32741e-05
0.177646
-0.418998
0.064128
-0.0414957
0.148848
-0.248133
0.0992028
-0.0477214
0.369106
-0.00160121
-0.153457
0.186901
-0.444178
-0.166949
0.117735
0.00424476
-0.0563096
0.181762
0.112226
-0.294073
0.0841342
-0.135518
0.0513993
0.117622
0.32021
-0.196582
-0.123697
0.0884846
-0.0958926
0.00741705
0.189868
-0.0658362
-0.124041
-0.289304
-0.237096
0.254681
-0.472876
0.218365
-0.177626
-0.114171
0.0827026
-0.131134
0.0484292
-0.00819151
-0.00717213
0.0153636
0.190315
-0.391379
0.497932
-0.176482
-0.479248
0.278581
0.200694
-0.00175014
0.0226018
-0.0251875
0.0376263
-0.0118448
0.00682532
0.00501943
0.260407
-0.462817
0.202507
0.136452
0.0534079
-0.0459047
0.130058
0.065496
-0.0832258
0.0177296
-0.0849409
0.175411
-0.0904807
0.476666
-0.221514
-0.254913
0.43627
-0.261068
-0.174972
-0.246944
-0.232278
-0.108982
0.202524
-0.375987
0.187757
0.188263
-0.0124071
0.00848141
0.00392549
-0.513096
0.0477254
0.464684
-0.290947
-0.156913
0.447654
0.00639319
-0.111685
0.105274
0.00354197
0.0115668
0.0134132
-0.0321837
-0.405626
-0.228371
0.0402648
0.0261892
0.177425
-0.284754
0.107306
0.0482474
-0.027667
-0.0205804
0.00810722
-0.0147122
0.00660483
0.0111467
0.0328129
0.291035
-0.136335
-0.154848
-0.171838
0.136659
-0.0810904
-0.0872633
-0.0153481
0.00866708
0.000916273
-0.163335
0.138036
0.0252991
-0.580699
0.0557481
0.52547
0.203527
-0.0806452
-0.435204
0.251722
0.183584
-0.196922
-0.309265
0.505139
-0.16095
-0.215017
-0.176239
-0.32903
0.505527
0.311373
0.285642
-0.0129247
0.000517346
0.299771
0.210468
-0.121488
-0.0890063
-0.096555
-0.124465
0.220959
0.180395
-0.135009
-0.0453914
0.25637
0.220504
0.152256
0.147107
0.00688015
0.00332944
-0.0102096
0.00570721
-0.0283936
0.0226863
-0.081789
0.0395748
0.0422249
-0.187087
0.102126
0.186061
-0.47689
0.141774
0.149126
-0.439634
0.234214
0.146568
-0.0960446
-0.0505245
-0.592852
0.059326
0.533288
0.0444602
-0.0310473
0.0445489
0.0732312
-0.117781
-0.0371401
-0.140159
-0.0145066
0.00266172
0.105551
-0.0170583
0.350297
-0.56111
0.209133
0.291392
0.135808
-0.42732
-0.0288039
0.141497
0.0565066
0.0900603
0.178447
-0.329416
0.00802309
8.40788e-05
0.558448
-0.210065
-0.196178
-0.340201
0.537008
0.0429978
-0.0514382
0.443756
-0.187072
-0.054811
-0.187252
0.128655
-0.12982
-0.0225488
-0.490955
0.134574
0.241701
0.0813441
0.0620307
-0.143385
-0.0388056
-0.0283584
0.237626
-0.0673533
-0.170319
-0.106667
0.185399
-0.050997
-0.3747
0.425648
-0.20476
0.347964
-0.143053
0.0629224
-0.0368285
-0.10523
-0.0887998
0.272376
0.178523
-0.450651
-0.262234
-0.268326
0.530388
-0.137106
0.0904227
-0.0917043
0.140046
-0.0483291
0.139275
0.0983033
-0.0151307
0.00658619
-0.285
0.539985
-0.0123727
0.357932
-0.0390177
-0.0307287
0.0697461
0.390174
-0.441244
-0.00820463
-0.0226686
-0.0278908
0.0617388
0.285508
0.225832
0.273156
-0.475882
0.202014
-0.289811
-0.000126939
0.218155
0.463874
-0.185151
0.0301353
-0.0734092
0.089477
-0.117142
0.0856025
-0.043326
0.135187
0.166538
-0.301956
-0.14313
-0.0920129
-0.118057
-0.110878
-0.0197403
-0.00135748
-0.170412
0.0864805
0.428415
-0.645657
0.125492
0.127797
-0.0534742
0.35801
-0.153161
-0.204835
-0.0170086
0.263106
-0.0983739
-0.0768963
-0.516122
-0.247493
0.485045
-0.237474
0.223676
-0.416185
0.192235
-0.201923
0.479316
0.368566
0.206254
-0.575945
-0.300223
0.176258
0.123936
-0.132241
-0.123293
0.122227
0.106156
-0.52183
-0.0114332
0.533784
0.00767836
-0.0159529
0.222808
-0.1309
-0.0919084
-0.0654519
0.109999
0.0199456
0.00174784
-0.185897
0.116959
-0.110609
0.163475
-0.0763105
-0.170019
-0.252376
0.465565
0.0119926
-0.478436
-0.123929
-0.208548
0.332772
0.106448
0.0142616
-0.120716
-0.128715
-0.0650817
0.523999
-0.256702
0.539486
-0.283654
0.534102
-0.229928
-0.0474587
-0.00517675
0.0526366
0.084742
-0.13948
0.0923723
-0.439058
-0.211884
-0.298799
0.177951
0.151955
-0.0693618
-0.0826005
0.00540773
0.0161719
-0.0384065
0.0646876
-0.228166
0.176402
0.0517714
0.298456
-0.150024
-0.148703
0.0323535
-0.0164609
0.0170779
0.0881427
0.169666
-0.179406
0.00971991
-0.185729
-0.130717
0.316509
-0.160858
0.420822
-0.260418
-0.0409281
0.0320236
0.279032
0.160715
-0.439395
0.0721236
0.0628799
0.0250205
-0.139911
0.114886
-0.253701
0.526059
-0.0724319
0.052466
0.14904
0.0954947
-0.244628
-0.0424543
0.0234906
0.0189639
0.174921
-0.37952
0.0184139
0.019681
-0.0380949
0.154463
-0.0298332
-0.124633
0.0777911
-0.304654
0.11729
0.0137963
0.195854
-0.436217
-0.0228138
0.0883095
-0.621487
0.243829
0.377346
0.12455
0.330553
-0.455124
-0.592053
0.244698
-0.251886
-0.203598
0.0366481
0.298174
0.187895
0.483014
-0.14513
-0.337874
-0.275699
0.188722
0.086929
-0.225924
-0.236794
0.250869
0.0562937
0.111288
-0.167604
0.106368
-0.287461
0.180956
-0.0882348
-0.594404
0.41269
0.181006
-0.404434
-0.190607
-0.00611717
0.0129973
-0.056774
0.00253624
0.0542394
-0.136428
-0.0917314
-0.00352809
-0.26586
0.133546
0.35609
-0.204559
-0.151568
-0.399497
0.336885
0.127058
0.00777297
-0.000947836
0.186794
0.586718
-0.646876
0.0604659
0.0253273
-0.0241692
-0.00115808
-0.0714927
-0.0475264
-0.0393554
0.169189
-0.508767
0.582313
-0.307184
0.297134
-0.141385
-0.155811
-0.27873
-0.260621
0.5393
0.00753422
-0.0126174
-0.106861
0.288605
0.169274
-0.0548928
-0.114433
0.328872
-0.176602
-0.152286
0.0181047
-0.025556
0.563509
-0.275068
0.000587274
0.020382
-0.571208
0.0649169
0.505934
-0.0484572
0.131158
-0.442726
0.280079
0.162859
-0.234676
0.175303
0.0592629
-0.0190529
0.0239122
-0.334425
-0.287478
-0.0932343
0.0205507
0.0726818
0.221944
0.174562
-0.396922
-0.395572
-0.223709
0.619133
-0.274978
0.435803
-0.100696
-0.00895682
0.109655
0.0132966
-0.0382392
0.190869
0.231648
-0.238548
0.00776393
-0.438451
-0.0825591
0.152356
0.0232477
-0.0241312
0.0425451
0.160108
-0.00516129
-0.531829
-0.0087681
0.541489
-0.0601458
0.126007
-0.520422
0.531728
-0.01137
0.332363
-0.0352602
0.442778
-0.265611
-0.177159
0.213672
-0.0914666
0.328739
-0.562466
0.23423
-0.0791733
0.0462572
0.0122612
-0.416822
-0.391385
0.247522
0.143822
0.261277
-0.179747
-0.0816386
0.0799038
0.0153486
-0.0952566
-0.161367
0.150194
0.0111679
0.172024
-0.442368
-0.0155615
0.415853
-0.0473997
0.132139
0.378338
-0.165019
-0.213498
-0.202476
0.379216
0.475072
-0.402399
0.41484
0.308675
-0.0959481
0.0485467
-0.141184
-0.134948
-0.0774106
-0.0158257
-0.0682458
0.146905
-0.0786663
-0.0963095
0.124862
-0.0285615
-0.0928058
-0.0816429
0.174426
-0.0174308
0.0604285
-0.109596
0.298417
0.0317053
-0.0241785
-0.0368528
0.0270631
0.00978969
0.0758498
-0.124309
-0.0851523
0.122303
-0.0371516
0.150287
-0.125271
-0.0590128
0.107924
0.224369
-0.0124558
0.0042643
0.108957
0.152181
-0.374414
0.11011
-0.0342611
-0.0198003
-0.500803
0.0339946
0.161589
-0.200968
0.0801859
0.0834211
-0.163621
-0.160114
0.132402
0.0277207
-0.00827949
0.0118215
-0.026169
0.0146847
0.0114842
-0.263144
0.0832897
-0.0933338
0.173497
0.549683
-0.270562
0.0922198
-0.0968213
0.00460103
0.111159
-0.198203
-0.244276
-0.355603
0.194757
-0.14685
0.319681
-0.17307
-0.200222
0.0949622
-0.0471321
0.0268435
0.056799
-0.100185
-0.0154711
0.0183906
-0.00291946
-0.117216
-0.185948
0.201563
0.0594647
-0.030583
-0.0118711
0.0305218
0.00308234
-0.0336036
-0.171279
-0.133624
0.304485
0.106355
-0.19239
0.0860083
0.225735
0.0792646
0.0374234
0.010824
0.147281
-0.0659588
-0.216421
-0.0385998
0.0587113
-0.0871027
0.0480845
-0.00660347
-0.0195656
-0.170205
0.500946
0.119246
0.0209177
-0.0485508
0.0276324
0.267073
-0.15373
0.0240438
-0.100749
-0.046299
-0.188485
-0.000273085
0.180661
-0.22082
0.103311
0.117489
-0.292766
-0.0855405
-0.264829
0.350249
-0.39757
0.183568
0.0615763
-0.156776
0.0952013
0.574754
-0.332451
-0.0897127
0.151288
0.0750087
0.0920959
-0.167111
0.173781
-0.0792869
-0.094499
-0.337573
0.59862
-0.261138
-0.643512
0.363658
0.280204
0.146895
-0.294055
0.146985
0.18902
-0.329509
0.140304
-0.353443
0.512297
0.210867
-0.359408
0.073687
-0.141944
-0.0406636
0.147106
0.00455294
-0.0379299
-0.542606
0.0226186
-0.118664
0.617084
-0.302238
-0.314039
-0.0278746
-0.00897822
0.270393
-0.13482
-0.135713
-0.0571301
-0.0678439
0.124973
-0.137593
0.0525141
0.101947
0.0695242
-0.386956
0.316839
0.209295
0.396938
-0.130831
0.0706743
0.440987
0.218796
-0.360198
-0.072682
-0.128889
0.201533
-0.0292997
0.0445747
-0.0152731
0.244441
0.137472
-0.095963
0.0346953
-0.0593573
0.0246641
0.145174
-0.244708
-0.0589087
-0.00310618
0.0378044
0.411596
-0.188074
0.117406
-0.244222
0.18983
-0.131409
-0.2526
0.191412
-0.466601
-0.0220076
0.0701204
-0.0481116
-0.017956
-0.00297466
-0.0122578
0.0152324
0.201288
0.156723
0.419589
-0.164756
0.257941
-0.445448
0.186883
0.137234
-0.329454
0.191967
-0.181948
0.288173
-0.129634
-0.145954
0.0190478
-0.0474173
0.0283697
0.179832
0.0904097
-0.194258
0.108137
-0.0910614
-0.0958249
0.0630134
-0.159337
-0.20172
0.420372
0.000162859
-0.0250347
0.0248718
0.304517
-0.163934
0.562577
-0.287139
-0.274785
0.086009
0.087768
0.00708585
0.00450275
0.458542
-0.279892
-0.488163
-0.281414
0.291726
0.380091
-0.311243
-0.046574
0.0653189
-0.138994
0.0736723
0.364198
-0.220403
-0.143907
0.149299
0.0643523
-0.309156
0.137429
0.163244
-0.365006
-0.0200723
-0.141297
-0.0332985
-0.00975159
0.04305
0.122832
0.068984
-0.191826
-0.4994
0.187621
-0.353651
-0.0777599
0.431363
0.122053
0.0527951
-0.174864
-0.0654916
0.0964573
-0.149782
0.0533146
0.448367
-0.121091
-0.327487
0.382374
-0.160563
-0.0251931
-0.00460244
0.149719
-0.250725
-0.0503629
0.181871
-0.086447
0.0368427
0.0496053
0.391088
0.288337
-0.401772
0.281468
0.120261
0.017957
0.013064
-0.031021
0.509421
0.0777137
0.249544
-0.0122844
-0.00306385
-0.105903
-0.0542044
-0.0388407
0.132631
-0.083886
-0.0516148
-0.28818
-0.285409
0.00478261
-0.0380813
0.24449
-0.447118
0.157855
-0.40463
0.24671
-0.226691
-0.175134
0.103861
0.0950219
-0.198919
-0.000538386
-0.0044553
0.00499368
0.519691
-0.128065
0.230702
0.179826
0.335463
0.105647
-0.185274
0.329695
-0.282358
0.196671
-0.0919579
0.00680503
-0.0694173
0.173241
-0.136413
-0.163827
0.366056
0.18346
-0.549228
-0.192037
0.143738
0.0456554
0.111583
0.168489
0.0890845
0.560699
-0.15785
0.41528
0.261758
-0.0565325
-0.205422
-0.0347374
0.0265328
-0.0407501
-0.00398612
0.0447433
-0.170677
0.305684
-0.0184458
0.537987
-0.261277
-0.121811
-0.0990241
0.0408614
-0.134819
0.0939561
-0.0104971
-0.00761234
0.0181095
-0.146071
0.38546
-0.239744
-0.316453
-0.0234085
-0.00638262
0.0297915
0.138098
0.0886164
0.306846
0.256382
0.277439
-0.0495652
-0.0296189
0.302849
-0.582411
0.279404
-0.0861671
-0.0935853
0.459451
0.0193358
-0.0136286
-0.558436
0.28626
-0.72477
0.437103
0.288239
-0.534923
0.277783
-0.101407
-0.1195
0.220889
0.32728
-0.138324
-0.127008
-0.0886902
-0.107917
-0.0554197
-0.049857
0.0420306
0.007827
-0.332248
0.251972
-0.469352
0.221991
0.400216
0.198357
-0.00703483
0.337623
0.296733
-0.319875
0.0230893
0.185628
0.165136
-0.350773
0.11581
0.204241
0.209165
-0.084631
-0.12461
-0.0593917
-0.0223861
-0.202075
0.093072
0.105927
-0.17864
0.264891
0.195841
0.00308731
-0.0287265
0.0256392
0.146047
-0.171851
0.0257736
-0.26048
0.451983
-0.0587891
0.0661559
-0.00735537
-0.028828
0.00143272
-0.345103
-0.00866046
0.408555
0.481902
-0.262225
-0.220101
-0.0698821
-0.093564
0.163435
-0.0139797
0.223046
-0.0151931
0.279301
0.18371
-0.292607
0.108684
-0.173519
-0.335425
0.508903
0.144194
-0.284952
-0.439289
0.169328
-0.112285
-0.0570449
0.0692185
0.227491
-0.0810522
-0.0775198
0.272885
0.242212
-0.515224
0.148183
-0.0499566
-0.0982309
0.280562
-0.523407
0.242785
0.138715
-0.267589
-0.391138
0.244291
0.146708
-0.252623
0.111297
-0.0820366
0.0345792
0.0022966
0.0230307
-0.0138959
-0.136439
0.00389739
-0.0626901
0.0882427
-0.220776
0.161266
0.0455195
-0.0629504
0.000445046
0.208545
-0.16268
-0.0459751
0.277523
-0.430534
0.152904
0.301333
-0.0014914
-0.0104518
0.0119432
0.294992
0.186503
0.00497351
-0.160683
0.435412
-0.123942
0.26328
-0.139428
-0.391831
0.248864
0.142955
-0.521051
0.41635
0.105043
0.225343
0.126195
-0.105647
0.0287933
-0.0108365
0.00330687
0.0039266
-0.0619025
0.00513043
-0.0221042
0.0251915
-0.436407
-0.0868299
0.0161083
0.0707156
-0.000732566
-0.0659296
0.254662
0.32468
-0.579496
-0.203686
-0.5476
0.256587
0.29001
0.164984
-0.165263
-0.45446
0.200716
-0.00785778
-0.00440012
0.0793038
0.0726423
-0.0873023
0.177809
-0.0905232
-0.11524
-0.197508
0.312688
0.15566
-0.0861582
-0.0695033
-0.00514472
0.00715266
-0.00200795
0.0089002
0.00130568
-0.0102059
0.0999801
0.103521
-0.203554
0.112889
0.105433
-0.218388
-0.454172
-0.0769203
0.0371897
-0.0212803
-0.205438
0.45343
-0.248455
-0.0374105
0.0310617
0.00634903
0.127544
-0.0752715
0.0324837
-0.111198
0.0787088
0.0909712
-0.0715044
-0.0194678
0.013475
0.0337887
0.117091
-0.281317
-0.112533
-0.168589
0.28097
0.5626
-0.233295
-0.227498
0.0756553
0.151746
-0.00816082
0.000140646
0.0170594
-0.0145386
-0.529854
0.337199
0.191788
-0.0203543
-0.013556
0.0339103
0.293466
-0.182088
0.107847
-0.0508901
0.00103425
-0.0578753
0.0285778
-0.0202176
-0.0376564
0.228514
0.207963
0.0916954
0.145914
-0.249703
0.10366
0.117684
-0.125767
0.27243
0.00259415
0.603304
-0.328246
-0.27464
0.079638
-0.0759052
-0.00373312
0.381011
-0.616453
0.236609
0.469771
-0.241015
-0.0935806
-0.0750709
0.168641
-0.197134
0.170368
-0.00539039
-0.330085
0.171149
0.158768
0.0405978
0.0231901
0.0751085
0.020385
-0.0954942
-0.131507
0.035931
0.0955741
0.0321351
0.378316
-0.540064
0.16186
-0.194218
-0.136048
-0.108018
0.486353
-0.199968
-0.186235
-0.0906473
-0.0817789
0.178223
0.259153
0.0953662
0.219133
0.159042
-0.244744
0.144285
0.100359
-0.0195597
0.0119474
-0.128962
-0.142158
0.270946
0.341749
-0.112543
-0.229063
0.0245389
0.0059831
0.286543
0.170192
0.0113268
-0.532253
0.242716
0.213357
-0.261504
0.315371
-0.248876
-0.066612
-0.0120713
0.016775
-0.00470376
0.0810748
-0.572201
-0.0266152
0.00626098
-0.00945019
0.0506338
0.502396
0.137931
-0.308816
0.105503
-0.207385
0.101813
0.557321
0.587232
-0.275761
-0.310742
0.266663
-0.437983
0.170838
-0.113008
0.092907
0.0201007
0.0418112
-0.166609
0.214893
0.149208
-0.100157
0.0443233
0.085752
0.11225
-0.0200309
-0.0931205
-0.178643
0.0833974
-0.00834683
0.187872
-0.203153
-0.327665
-0.00924434
-0.0123027
0.0215471
0.0758412
-0.154729
0.0788809
-0.0807479
-0.200691
-0.154819
0.26642
0.182846
-0.449589
-0.00017184
-0.0149588
0.046566
-0.0805035
0.0339375
-0.100799
0.123417
0.00174627
-0.0294132
-0.154943
0.521489
-0.296182
0.148964
-0.393901
0.205669
-0.0311165
0.0059234
-0.22741
0.100411
-0.17894
0.171129
0.00781823
-0.244572
0.0668885
0.400548
-0.191842
-0.20872
-0.127682
0.374654
0.203982
-0.578639
0.485757
-0.297994
0.134369
0.0138089
0.461251
-0.275302
-0.0725705
0.432962
0.130099
-0.303535
-0.380866
0.259809
0.190286
-0.0185618
0.0581439
-0.00591103
0.00921785
0.230147
-0.15338
-0.00440497
0.0251384
-0.0207334
-0.31802
0.546795
-0.22852
0.0319911
0.129591
0.141315
0.156898
-0.107586
0.131626
0.363438
-0.0620722
-0.421718
0.154672
-0.133308
-0.0214135
0.0764309
-0.152209
0.0792266
0.0729633
-0.556742
0.0324182
0.137229
0.125268
-0.015268
-0.0109149
0.0343678
-0.0234524
-0.317056
0.131368
-0.151867
0.0854992
0.0663679
-0.00543948
-0.0237882
-0.132856
-0.120427
0.253228
0.137811
-0.0988625
-0.0886585
0.163657
-0.242316
-0.15414
0.396422
-0.0916783
-0.152958
0.158631
0.112385
-0.531625
0.214247
-0.0522868
-0.211482
0.338677
0.107115
0.24894
0.440634
-0.25351
-0.187719
-0.23632
-0.0344567
0.270835
-0.187761
-0.0237543
0.0428024
0.233332
-0.0497749
-0.162751
0.309519
-0.146984
-0.110685
0.195382
-0.45639
0.260529
0.167021
0.18222
-0.349441
0.0813522
-0.186501
0.105122
0.0292169
0.0275353
-0.0567539
-0.0770768
0.0550701
0.0940597
-0.180232
0.0605119
-0.280857
-0.362343
0.0160723
0.00134761
-0.0174202
-0.231638
0.176226
0.0554043
0.0128379
-0.0122231
-0.000614714
-0.0301899
-0.110989
0.141171
-0.532021
0.269733
0.346831
0.162743
0.121768
-0.284638
-0.00389297
-0.000930111
0.00482288
0.0151279
-0.0166192
-0.062093
0.173359
-0.0662514
0.294589
-0.452827
0.196596
0.180854
-0.37764
0.249923
0.269764
0.0262109
0.000782605
-0.0269935
-0.248278
0.136977
0.1112
-0.22437
0.387421
-0.164533
0.0158095
-0.0392177
0.00303505
-0.129124
0.126091
0.14912
-0.312084
0.0203349
-0.0511044
-0.0353422
0.243313
-0.0554706
-0.187884
0.104924
-0.237821
-0.0183539
-0.0190563
-0.144158
0.0433568
0.299063
-0.0521729
-0.247016
0.0363594
-0.0565746
-0.0948488
0.178257
0.0256846
-0.0950529
0.0693764
0.019641
-0.0305559
0.234311
-0.164375
-0.217518
0.541986
-0.233442
0.314934
0.0579001
0.120018
-0.00224522
0.00438485
-0.00213963
0.00439589
0.133646
-0.478346
-0.110218
-0.151746
0.0591266
0.0926199
0.537077
-0.279625
-0.258053
0.00316932
0.0267163
0.0133404
-0.00578402
-0.00755639
0.285675
-0.014217
-0.00607405
-0.122065
-0.442828
0.151173
-0.393342
-0.157978
0.343558
0.00171183
-0.0309581
0.0292481
-0.0170157
0.0921235
-0.219556
0.0816802
-0.151041
0.426943
-0.175025
-0.0977174
0.133646
0.116597
-0.512215
0.212265
-0.0870999
-0.125193
0.192913
-0.323533
0.0765403
0.247026
-0.380481
0.155917
-0.169038
0.142885
0.0261526
-0.296882
0.160424
0.0835599
-0.0578672
-0.17666
-0.0549898
-0.27542
-0.262147
0.537494
0.0769758
-0.162963
0.0859787
0.245805
-0.0565046
0.233945
0.279734
-0.0395796
0.0154484
0.0355804
0.378838
-0.163581
-0.215676
0.174639
0.265374
0.243916
0.134622
-0.0668789
0.217348
-0.150616
0.00402816
-0.011917
0.00788884
-0.0063811
-0.106628
-0.0841055
0.148871
0.189959
-0.246457
0.26352
0.036021
0.00600045
-0.0420222
-0.0387296
0.160772
0.368072
-0.153341
0.0275785
0.0101245
-0.0377032
-0.554939
0.278728
0.276218
-0.0852531
0.152613
-0.0673712
-0.00770752
0.00546231
0.469901
-0.264628
-0.205501
0.0103673
-0.015512
0.00314737
-0.0779176
0.154887
-0.0249118
-0.00391619
-0.144002
-0.0250347
0.31481
-0.414607
0.0995736
-0.171575
-0.12534
-0.0417811
0.0435274
-0.0239724
-0.0231595
-0.315882
0.144276
0.0185859
-0.0229909
0.210402
0.0570683
-0.396976
-0.473808
0.485237
0.160323
-0.294169
0.100138
-0.158791
0.263908
-0.105239
0.0250146
-0.0500309
0.0250168
0.0274269
-0.00121605
-0.0331967
-0.0286014
0.0617978
-0.072563
-0.200422
-0.446229
0.0803186
-0.158806
0.0784721
0.00779351
0.00110669
-0.448966
0.194908
0.0222687
0.00428043
-0.0265491
0.178108
-0.136971
-0.0411506
0.260484
-0.536321
-0.132526
-0.559315
-0.305069
0.174399
-0.0714793
-0.0807479
-0.0233083
0.0238009
-0.000492589
0.235944
-0.203493
-0.169915
-0.298121
0.467957
0.00801446
-0.0192788
0.0112643
-0.0429497
0.0773935
-0.0344441
0.21253
-0.071964
-0.140653
-0.261092
-0.297785
-0.195497
0.210779
-0.414147
0.203092
0.370186
-0.582814
0.212389
-0.160935
0.120259
-0.103276
0.00755
0.0957249
-0.549817
0.309642
0.240324
-0.463543
0.384837
0.0782637
-0.0556075
0.0717131
-0.0136997
-0.0190336
0.0200478
0.158043
0.159437
0.0530464
-0.0633169
0.0102697
0.168666
0.13783
-0.306894
0.296872
0.21689
-0.514112
-0.320212
-0.221715
-0.327931
-0.174881
0.469121
0.477987
-0.0775405
0.0489456
0.0420248
0.0553232
0.13508
-0.19042
0.172872
0.0170853
0.0196583
0.0170212
0.199698
-0.114346
-0.0854349
0.0767019
0.071185
-0.0502685
0.0276052
-0.0340663
0.0064628
-0.0780561
0.175637
-0.0976147
-0.258572
0.165384
-0.282619
-0.310302
-0.12899
0.333138
-0.562573
0.229693
0.0236212
0.0869393
-0.110565
-0.214642
0.495358
-0.0613639
0.0426438
0.0187213
0.0877531
-0.0152725
0.165463
0.221975
0.25127
-0.473728
0.00317476
-0.0154593
0.0634413
0.076615
0.00665031
0.0013727
-0.0760894
0.445706
0.00729188
0.0248841
-0.032176
-0.244437
-0.171412
0.0775469
0.0657554
-0.143304
0.110837
0.0699617
0.020369
0.0219933
-0.042363
0.0874129
-0.216344
-0.103689
-0.0311313
-0.458181
0.19788
-0.0323852
0.175267
-0.23559
-0.240962
-0.011493
0.00905251
0.0394048
0.088392
0.0706829
-0.127821
0.410031
-0.197826
-0.212265
0.459554
-0.217566
-0.241196
-0.0213065
0.0100259
0.0101955
-0.098924
-0.172671
-0.0672355
-0.111699
0.090037
0.227634
-0.0883827
-0.139292
-0.151522
0.137591
0.0695944
-0.0542475
-0.177477
0.373968
-0.149317
0.151767
-0.00249576
-0.398509
-0.10391
-0.491549
0.265549
0.00143463
-0.104711
-0.167488
-0.324144
0.144984
0.174479
-0.00885216
0.000647303
0.235949
0.28365
-0.519185
-0.0933149
0.203203
0.0383926
-0.215012
-0.0741059
-0.572458
0.0566342
0.188908
-0.0746752
-0.114251
0.104171
0.214424
-0.362191
0.147966
-0.222509
0.555875
-0.0214408
0.114524
0.152411
-0.00149625
-0.00999675
-0.0112753
0.15728
0.00256364
-0.0216166
-0.14116
-0.134588
0.321601
0.133747
-0.455688
0.438278
-0.145015
-0.103368
0.230405
-0.107823
-0.122666
0.231143
-0.118348
0.00296495
-0.0150362
-0.301167
0.183805
0.0414401
0.143212
-0.184669
-0.0070735
-0.108954
0.116019
0.062739
-0.536521
0.392524
-0.204223
-0.1883
0.0608858
0.15155
-0.152141
0.0710478
0.0245004
-0.0243376
0.286056
0.14003
-0.42609
0.00853833
-0.0282786
0.312308
-0.0976594
-0.00585551
0.0135338
-0.165085
0.16941
0.189824
0.214891
-0.40469
0.248672
0.169936
-0.418562
0.103431
0.097653
-0.201114
-0.0975218
-0.0322254
-0.156455
0.272893
-0.116533
0.313531
-0.123865
-0.172694
0.13558
0.310551
-0.172705
-0.0339641
-0.0616426
0.0956064
-0.0144055
0.0141998
-0.019858
0.00565819
0.537272
-0.271959
-0.266201
0.242599
-0.10572
-0.0043786
0.0840164
0.263493
-0.0879095
0.0122952
0.460893
-0.25291
-0.208584
0.0519696
-0.101799
-0.0697532
0.342747
-0.258381
-0.0844165
0.129376
-0.0393521
-0.0330808
0.355686
-0.162757
-0.193249
-0.12429
-0.0141089
0.138393
-0.217155
-0.187555
0.103212
0.0745807
-0.0539687
0.110767
-0.0868253
0.0667787
-0.019746
-0.0470328
0.41972
0.117725
0.132128
0.0978034
-0.229967
-0.0428791
0.0704574
0.142649
-0.347154
-0.0768832
0.118513
0.196521
-0.133717
-0.162492