/*--------------------------------*- C++ -*----------------------------------*\
| =========                 |                                                 |
| \\      /  F ield         | OpenFOAM: The Open Source CFD Toolbox           |
|  \\    /   O peration     | Version:  v2012                                 |
|   \\  /    A nd           | Website:  www.openfoam.com                      |
|    \\/     M anipulation  |                                                 |
\*---------------------------------------------------------------------------*/
FoamFile
{
    version     2.0;
    format      ascii;
    class       pointVectorField;
    location    "700";
    object      pointDisplacement;
}
// * * * * * * * * * * * * * * * * * * * * * * * * * * * * * * * * * * * * * //

dimensions      [0 1 0 0 0 0 0];


internalField   nonuniform List<vector> 
10232
(
(0 0 0)
(0 7.71372e-05 0)
(0 7.71372e-05 0)
(0 7.71372e-05 0)
(0 7.71372e-05 0)
(0 0 0)
(0 7.71372e-05 0)
(0 7.71372e-05 0)
(0 7.71372e-05 0)
(0 7.71372e-05 0)
(0 0 0)
(0 0 0)
(0 0 0)
(0 0 0)
(0 0 0)
(0 0 0)
(0 0 0)
(0 0 0)
(0 0 0)
(0 0 0)
(0 0 0)
(0 0 0)
(0 0 0)
(0 0 0)
(0 0 0)
(0 0 0)
(0 0 0)
(0 0 0)
(0 0 0)
(0 0 0)
(0 0 0)
(0 0 0)
(0 0 0)
(0 0 0)
(0 0 0)
(0 0 0)
(0 0 0)
(0 0 0)
(0 0 0)
(0 0 0)
(0 0 0)
(0 0 0)
(0 0 0)
(0 0 0)
(0 0 0)
(0 0 0)
(0 0 0)
(0 0 0)
(0 0 0)
(0 0 0)
(0 0 0)
(0 0 0)
(0 0 0)
(0 0 0)
(0 0 0)
(0 0 0)
(0 0 0)
(0 0 0)
(0 0 0)
(0 0 0)
(0 0 0)
(0 0 0)
(0 0 0)
(0 0 0)
(0 0 0)
(0 0 0)
(0 0 0)
(0 0 0)
(0 0 0)
(0 0 0)
(0 0 0)
(0 0 0)
(0 0 0)
(0 0 0)
(0 0 0)
(0 0 0)
(0 0 0)
(0 0 0)
(0 0 0)
(0 0 0)
(0 0 0)
(0 0 0)
(0 0 0)
(0 0 0)
(0 7.71372e-05 0)
(0 7.71372e-05 0)
(0 7.71372e-05 0)
(0 7.71372e-05 0)
(0 7.71372e-05 0)
(0 7.71372e-05 0)
(0 7.71372e-05 0)
(0 7.71372e-05 0)
(0 7.71372e-05 0)
(0 7.71372e-05 0)
(0 7.71372e-05 0)
(0 7.71372e-05 0)
(0 7.71372e-05 0)
(0 7.71372e-05 0)
(0 7.71372e-05 0)
(0 7.71372e-05 0)
(0 7.71372e-05 0)
(0 7.71372e-05 0)
(0 7.71372e-05 0)
(0 7.71372e-05 0)
(0 7.71372e-05 0)
(0 7.71372e-05 0)
(0 7.71372e-05 0)
(0 7.71372e-05 0)
(0 7.71372e-05 0)
(0 7.71372e-05 0)
(0 7.71372e-05 0)
(0 7.71372e-05 0)
(0 7.71372e-05 0)
(0 7.71372e-05 0)
(0 7.71372e-05 0)
(0 7.71372e-05 0)
(0 7.71372e-05 0)
(0 7.71372e-05 0)
(0 7.71372e-05 0)
(0 7.71372e-05 0)
(0 7.71372e-05 0)
(0 7.71372e-05 0)
(0 7.71372e-05 0)
(0 7.71372e-05 0)
(0 7.71372e-05 0)
(0 7.71372e-05 0)
(0 7.71372e-05 0)
(0 7.71372e-05 0)
(0 7.71372e-05 0)
(0 7.71372e-05 0)
(0 7.71372e-05 0)
(0 7.71372e-05 0)
(0 7.71372e-05 0)
(0 7.71372e-05 0)
(0 7.71372e-05 0)
(0 7.71372e-05 0)
(0 7.71372e-05 0)
(0 7.71372e-05 0)
(0 7.71372e-05 0)
(0 7.71372e-05 0)
(0 7.71372e-05 0)
(0 7.71372e-05 0)
(0 7.71372e-05 0)
(0 7.71372e-05 0)
(0 7.71372e-05 0)
(0 7.71372e-05 0)
(0 7.71372e-05 0)
(0 7.71372e-05 0)
(0 7.71372e-05 0)
(0 7.71372e-05 0)
(0 7.71372e-05 0)
(0 7.71372e-05 0)
(0 7.71372e-05 0)
(0 7.71372e-05 0)
(0 7.71372e-05 0)
(0 7.71372e-05 0)
(0 7.71372e-05 0)
(0 7.71372e-05 0)
(0 7.71372e-05 0)
(0 7.71372e-05 0)
(0 7.71372e-05 0)
(0 7.71372e-05 0)
(0 7.71372e-05 0)
(0 7.71372e-05 0)
(0 7.71372e-05 0)
(0 7.71372e-05 0)
(0 7.71372e-05 0)
(0 7.71372e-05 0)
(0 7.71372e-05 0)
(0 7.71372e-05 0)
(0 7.71372e-05 0)
(0 7.71372e-05 0)
(0 7.71372e-05 0)
(0 7.71372e-05 0)
(0 7.71372e-05 0)
(0 7.71372e-05 0)
(0 7.71372e-05 0)
(0 7.71372e-05 0)
(0 7.71372e-05 0)
(0 7.71372e-05 0)
(0 7.71372e-05 0)
(0 7.71372e-05 0)
(0 7.71372e-05 0)
(0 7.71372e-05 0)
(0 7.71372e-05 0)
(0 7.71372e-05 0)
(0 7.71372e-05 0)
(0 7.71372e-05 0)
(0 7.71372e-05 0)
(0 7.71372e-05 0)
(0 7.71372e-05 0)
(0 7.71372e-05 0)
(0 7.71372e-05 0)
(0 7.71372e-05 0)
(0 7.71372e-05 0)
(0 7.71372e-05 0)
(0 7.71372e-05 0)
(0 7.71372e-05 0)
(0 7.71372e-05 0)
(0 7.71372e-05 0)
(0 0 0)
(0 0 0)
(0 0 0)
(0 0 0)
(0 0 0)
(0 0 0)
(0 0 0)
(0 0 0)
(0 0 0)
(0 0 0)
(0 0 0)
(0 0 0)
(0 0 0)
(0 0 0)
(0 0 0)
(0 0 0)
(0 0 0)
(0 0 0)
(0 0 0)
(0 0 0)
(0 0 0)
(0 0 0)
(0 0 0)
(0 0 0)
(0 0 0)
(0 0 0)
(0 0 0)
(0 0 0)
(0 0 0)
(0 0 0)
(0 0 0)
(0 0 0)
(0 0 0)
(0 0 0)
(0 0 0)
(0 0 0)
(0 0 0)
(0 0 0)
(0 0 0)
(0 0 0)
(0 0 0)
(0 0 0)
(0 0 0)
(0 0 0)
(0 0 0)
(0 0 0)
(0 0 0)
(0 0 0)
(0 0 0)
(0 0 0)
(0 0 0)
(0 0 0)
(0 0 0)
(0 0 0)
(0 0 0)
(0 0 0)
(0 0 0)
(0 0 0)
(0 0 0)
(0 0 0)
(0 0 0)
(0 0 0)
(0 0 0)
(0 0 0)
(0 0 0)
(0 0 0)
(0 0 0)
(0 0 0)
(0 0 0)
(0 0 0)
(0 0 0)
(0 0 0)
(0 0 0)
(0 0 0)
(0 7.71372e-05 0)
(0 7.71372e-05 0)
(0 7.71372e-05 0)
(0 7.71372e-05 0)
(0 7.71372e-05 0)
(0 7.71372e-05 0)
(0 7.71372e-05 0)
(0 7.71372e-05 0)
(0 7.71372e-05 0)
(0 7.71372e-05 0)
(0 7.71372e-05 0)
(0 7.71372e-05 0)
(0 7.71372e-05 0)
(0 7.71372e-05 0)
(0 7.71372e-05 0)
(0 7.71372e-05 0)
(0 7.71372e-05 0)
(0 7.71372e-05 0)
(0 7.71372e-05 0)
(0 7.71372e-05 0)
(0 7.71372e-05 0)
(0 7.71372e-05 0)
(0 7.71372e-05 0)
(0 7.71372e-05 0)
(0 7.71372e-05 0)
(0 7.71372e-05 0)
(0 7.71372e-05 0)
(0 7.71372e-05 0)
(0 7.71372e-05 0)
(0 7.71372e-05 0)
(0 7.71372e-05 0)
(0 7.71372e-05 0)
(0 7.71372e-05 0)
(0 7.71372e-05 0)
(0 7.71372e-05 0)
(0 7.71372e-05 0)
(0 7.71372e-05 0)
(0 7.71372e-05 0)
(0 7.71372e-05 0)
(0 7.71372e-05 0)
(0 7.71372e-05 0)
(0 7.71372e-05 0)
(0 7.71372e-05 0)
(0 7.71372e-05 0)
(0 7.71372e-05 0)
(0 7.71372e-05 0)
(0 7.71372e-05 0)
(0 7.71372e-05 0)
(0 7.71372e-05 0)
(0 7.71372e-05 0)
(0 7.71372e-05 0)
(0 7.71372e-05 0)
(0 7.71372e-05 0)
(0 7.71372e-05 0)
(0 7.71372e-05 0)
(0 7.71372e-05 0)
(0 7.71372e-05 0)
(0 7.71372e-05 0)
(0 7.71372e-05 0)
(0 7.71372e-05 0)
(0 7.71372e-05 0)
(0 7.71372e-05 0)
(0 7.71372e-05 0)
(0 7.71372e-05 0)
(0 7.71372e-05 0)
(0 7.71372e-05 0)
(0 7.71372e-05 0)
(0 7.71372e-05 0)
(0 7.71372e-05 0)
(0 7.71372e-05 0)
(0 7.71372e-05 0)
(0 7.71372e-05 0)
(0 7.71372e-05 0)
(0 7.71372e-05 0)
(0 7.71372e-05 0)
(0 7.71372e-05 0)
(0 7.71372e-05 0)
(0 7.71372e-05 0)
(0 7.71372e-05 0)
(0 7.71372e-05 0)
(0 7.71372e-05 0)
(0 7.71372e-05 0)
(0 7.71372e-05 0)
(0 7.71372e-05 0)
(0 7.71372e-05 0)
(0 7.71372e-05 0)
(0 7.71372e-05 0)
(0 7.71372e-05 0)
(0 7.71372e-05 0)
(0 7.71372e-05 0)
(0 7.71372e-05 0)
(0 7.71372e-05 0)
(0 7.71372e-05 0)
(0 7.71372e-05 0)
(0 7.71372e-05 0)
(0 7.71372e-05 0)
(0 7.71372e-05 0)
(0 7.71372e-05 0)
(0 7.71372e-05 0)
(0 7.71372e-05 0)
(0 7.71372e-05 0)
(0 7.71372e-05 0)
(0 7.71372e-05 0)
(0 7.71372e-05 0)
(0 7.71372e-05 0)
(0 7.71372e-05 0)
(0 7.71372e-05 0)
(0 7.71372e-05 0)
(0 7.71372e-05 0)
(0 7.71372e-05 0)
(0 7.71372e-05 0)
(0 7.71372e-05 0)
(0 7.71372e-05 0)
(0 7.71372e-05 0)
(0 7.71372e-05 0)
(0 7.71372e-05 0)
(0 7.71149e-05 0)
(0 7.71231e-05 0)
(0 7.71249e-05 0)
(0 7.70734e-05 0)
(0 7.71271e-05 0)
(0 7.71424e-05 0)
(0 7.71338e-05 0)
(0 7.71245e-05 0)
(0 7.71356e-05 0)
(0 7.71313e-05 0)
(0 7.71193e-05 0)
(0 7.71457e-05 0)
(0 7.70945e-05 0)
(0 7.71139e-05 0)
(0 -4.05044e-05 0)
(0 -9.68049e-05 0)
(0 -2.70162e-05 0)
(0 -0.000143451 0)
(0 -7.47221e-05 0)
(0 -0.000183609 0)
(0 7.71202e-05 0)
(0 7.71272e-05 0)
(0 -7.0126e-05 0)
(0 7.71161e-05 0)
(0 7.71198e-05 0)
(0 -3.8787e-05 0)
(0 -7.03184e-05 0)
(0 -5.65694e-05 0)
(0 -2.81936e-05 0)
(0 7.71232e-05 0)
(0 7.71306e-05 0)
(0 7.71352e-05 0)
(0 7.71318e-05 0)
(0 7.71283e-05 0)
(0 7.71312e-05 0)
(0 -3.03461e-05 0)
(0 -1.72238e-05 0)
(0 -0.000171233 0)
(0 -0.000137377 0)
(0 -0.000101469 0)
(0 -5.06453e-05 0)
(0 -2.35333e-05 0)
(0 7.7115e-05 0)
(0 7.71053e-05 0)
(0 7.71192e-05 0)
(0 7.71225e-05 0)
(0 7.71424e-05 0)
(0 7.713e-05 0)
(0 -1.58524e-05 0)
(0 -1.38913e-05 0)
(0 -0.000180195 0)
(0 -0.000102631 0)
(0 -4.10009e-05 0)
(0 -7.93503e-05 0)
(0 -6.96536e-05 0)
(0 -3.94789e-05 0)
(0 -2.332e-05 0)
(0 -3.32384e-05 0)
(0 -6.05158e-06 0)
(0 -0.00132979 0)
(0 -0.00135829 0)
(0 -0.00127525 0)
(0 -0.00130225 0)
(0 -0.00122146 0)
(0 -0.00124834 0)
(0 -0.0011712 0)
(0 -0.00119802 0)
(0 -0.0011246 0)
(0 -0.0011516 0)
(0 -0.0010814 0)
(0 -0.00110965 0)
(0 -0.00104265 0)
(0 -0.00107138 0)
(0 -0.00100797 0)
(0 -0.000977156 0)
(0 -0.000946648 0)
(0 -0.000977365 0)
(0 -0.000918829 0)
(0 -0.000949923 0)
(0 -0.000895546 0)
(0 -0.000913029 0)
(0 -0.00127087 0)
(0 -0.000924711 0)
(0 -0.000872979 0)
(0 -0.000902509 0)
(0 -0.000852132 0)
(0 -0.000883236 0)
(0 -0.000836389 0)
(0 -0.000802725 0)
(0 -0.000791648 0)
(0 -0.000756272 0)
(0 -0.000748934 0)
(0 -0.000783558 0)
(0 -0.000744968 0)
(0 -0.000712737 0)
(0 -0.000931658 0)
(0 -0.000779206 0)
(0 -0.000745248 0)
(0 -0.000777748 0)
(0 -0.000746542 0)
(0 -0.00077691 0)
(0 -0.00074872 0)
(0 -0.000775997 0)
(0 -0.000752207 0)
(0 -0.000723552 0)
(0 -0.000732726 0)
(0 -0.000703526 0)
(0 -0.000716542 0)
(0 -0.000686364 0)
(0 -0.000702149 0)
(0 -0.000669965 0)
(0 -0.000689774 0)
(0 -0.000650914 0)
(0 -0.000680168 0)
(0 -0.000645838 0)
(0 -0.000674402 0)
(0 -0.000635966 0)
(0 -0.000672961 0)
(0 -0.000640086 0)
(0 -0.000678141 0)
(0 -0.000646538 0)
(0 -0.000689687 0)
(0 -0.0007183 0)
(0 -0.000735811 0)
(0 -0.000761457 0)
(0 -0.000783707 0)
(0 -0.000741936 0)
(0 -0.000806431 0)
(0 -0.000831712 0)
(0 -0.000850184 0)
(0 -0.00087735 0)
(0 -0.000890959 0)
(0 -0.000659064 0)
(0 -0.000918575 0)
(0 -0.000928329 0)
(0 -0.000954461 0)
(0 -0.000961091 0)
(0 -0.000984711 0)
(0 -0.000986858 0)
(0 -0.000910827 0)
(0 -0.000614316 0)
(0 -0.00100857 0)
(0 -0.00100718 0)
(0 -0.000988934 0)
(0 -0.00100684 0)
(0 -0.00102811 0)
(0 -0.00099021 0)
(0 -0.00100483 0)
(0 -0.000986434 0)
(0 -0.000998059 0)
(0 -0.000977525 0)
(0 -0.000986354 0)
(0 -0.00178242 0)
(0 -0.0017755 0)
(0 -0.00175318 0)
(0 -0.00174535 0)
(0 -0.0017237 0)
(0 -0.00171448 0)
(0 -0.000963469 0)
(0 -0.000969386 0)
(0 -0.00099322 0)
(0 -0.000973978 0)
(0 -0.000996013 0)
(0 -0.0016921 0)
(0 -0.00167939 0)
(0 -0.00124326 0)
(0 -0.00165491 0)
(0 -0.000974619 0)
(0 -0.000993804 0)
(0 -0.00103296 0)
(0 -0.00105305 0)
(0 -0.00094368 0)
(0 -0.000968038 0)
(0 -0.000983845 0)
(0 -0.000952405 0)
(0 -0.000963238 0)
(0 -0.00163994 0)
(0 -0.00161463 0)
(0 -0.00165699 0)
(0 -0.000927639 0)
(0 -0.000933527 0)
(0 -0.00161732 0)
(0 -0.00162687 0)
(0 -0.000894853 0)
(0 -0.000935832 0)
(0 -0.00158746 0)
(0 -0.00159016 0)
(0 -0.000899211 0)
(0 -0.000856603 0)
(0 -0.000802116 0)
(0 -0.000935084 0)
(0 -0.00155037 0)
(0 -0.00154676 0)
(0 -0.000901895 0)
(0 -0.000936019 0)
(0 -0.00150991 0)
(0 -0.00149962 0)
(0 -0.00151087 0)
(0 -0.000902693 0)
(0 -0.000936172 0)
(0 -0.00146718 0)
(0 -0.00145024 0)
(0 -0.00161842 0)
(0 -0.00157927 0)
(0 -0.000902242 0)
(0 -0.000936162 0)
(0 -0.000938124 0)
(0 -0.000917467 0)
(0 -0.000912357 0)
(0 -0.000892898 0)
(0 -0.000888249 0)
(0 -0.000869655 0)
(0 -0.000865214 0)
(0 -0.000846839 0)
(0 -0.000843783 0)
(0 -0.000824326 0)
(0 -0.000824318 0)
(0 -0.00080294 0)
(0 -0.000807038 0)
(0 -0.000796378 0)
(0 -0.000782576 0)
(0 -0.000789442 0)
(0 -0.000760651 0)
(0 -0.000768236 0)
(0 -0.0014208 0)
(0 -0.00139683 0)
(0 -0.00142958 0)
(0 -0.00136963 0)
(0 -0.00140265 0)
(0 -0.00133854 0)
(0 -0.0013699 0)
(0 -0.00130456 0)
(0 -0.00133414 0)
(0 -0.00126637 0)
(0 -0.00129353 0)
(0 -0.00122418 0)
(0 -0.00125023 0)
(0 -0.00117897 0)
(0 -0.00115311 0)
(0 -0.00110843 0)
(0 -0.00113219 0)
(0 -0.00106094 0)
(0 -0.00108289 0)
(0 -0.00101225 0)
(0 -0.00103369 0)
(0 -0.000964866 0)
(0 -0.000985642 0)
(0 -0.000916603 0)
(0 -0.000936461 0)
(0 -0.000867635 0)
(0 -0.000887523 0)
(0 -0.000818816 0)
(0 -0.000839146 0)
(0 -0.000770929 0)
(0 -0.000792653 0)
(0 -0.000724536 0)
(0 -0.000704772 0)
(0 -0.000659637 0)
(0 -0.000680115 0)
(0 -0.000616684 0)
(0 -0.000637756 0)
(0 -0.000575457 0)
(0 -0.000556425 0)
(0 -0.000516323 0)
(0 -0.000498989 0)
(0 -0.00053493 0)
(0 -0.000477403 0)
(0 -0.000495361 0)
(0 -0.000439948 0)
(0 -0.000457824 0)
(0 -0.000404097 0)
(0 -0.000421958 0)
(0 -0.000370795 0)
(0 -0.000338553 0)
(0 -0.000324855 0)
(0 -0.000897112 0)
(0 -0.000396623 0)
(0 -0.000330572 0)
(0 -0.000374619 0)
(0 -0.000445109 0)
(0 -0.00042333 0)
(0 -0.000354753 0)
(0 -0.000404346 0)
(0 -0.000337916 0)
(0 -0.000388728 0)
(0 -0.000323368 0)
(0 -0.000376288 0)
(0 -0.000312811 0)
(0 -0.000367394 0)
(0 -0.000306437 0)
(0 -0.000359633 0)
(0 -0.000302938 0)
(0 -0.000438439 0)
(0 -0.000353874 0)
(0 -0.000301032 0)
(0 -0.000351683 0)
(0 -0.000298399 0)
(0 -0.00035269 0)
(0 -0.000300282 0)
(0 -0.000357164 0)
(0 -0.00030649 0)
(0 -0.000415132 0)
(0 -0.00036408 0)
(0 -0.000313849 0)
(0 -0.000373836 0)
(0 -0.000324999 0)
(0 -0.000387042 0)
(0 -0.000339643 0)
(0 -0.000402914 0)
(0 -0.000356982 0)
(0 -0.000296253 0)
(0 -0.000315935 0)
(0 -0.000259326 0)
(0 -0.000278799 0)
(0 -0.000221364 0)
(0 -0.000247964 0)
(0 -0.000202196 0)
(0 -0.000226785 0)
(0 -0.000183066 0)
(0 -0.000206657 0)
(0 -0.000158027 0)
(0 -0.000186189 0)
(0 -0.000145551 0)
(0 -0.00017024 0)
(0 -0.000133279 0)
(0 -0.000157567 0)
(0 -0.000122136 0)
(0 -0.000146592 0)
(0 -0.000108835 0)
(0 -0.000137358 0)
(0 -0.000106665 0)
(0 -0.000133633 0)
(0 -0.000103965 0)
(0 -0.000131104 0)
(0 -0.000101953 0)
(0 -0.000127934 0)
(0 -0.000100597 0)
(0 -0.000125721 0)
(0 -0.000100134 0)
(0 -0.000124697 0)
(0 -0.00010077 0)
(0 -0.00012549 0)
(0 -0.000102494 0)
(0 -0.000159741 0)
(0 -0.000127229 0)
(0 -0.000105224 0)
(0 -0.000235528 0)
(0 -0.000130202 0)
(0 -0.000108999 0)
(0 -8.53957e-05 0)
(0 -9.0076e-05 0)
(0 -0.000134119 0)
(0 -6.76654e-05 0)
(0 -7.35177e-05 0)
(0 -0.000498195 0)
(0 -5.20536e-05 0)
(0 -5.87563e-05 0)
(0 -0.000374906 0)
(0 -0.000454063 0)
(0 -0.000150267 0)
(0 -7.68007e-05 0)
(0 -3.80135e-05 0)
(0 -4.36179e-05 0)
(0 -0.000259517 0)
(0 -6.77466e-05 0)
(0 -5.64111e-05 0)
(0 -7.88407e-05 0)
(0 -6.74675e-05 0)
(0 -4.62551e-05 0)
(0 -5.74963e-05 0)
(0 -3.69056e-05 0)
(0 -4.94335e-05 0)
(0 -0.00024405 0)
(0 -2.95838e-05 0)
(0 -4.35254e-05 0)
(0 -2.398e-05 0)
(0 -3.89368e-05 0)
(0 -1.79529e-05 0)
(0 -3.5478e-05 0)
(0 -1.78697e-05 0)
(0 -3.51518e-05 0)
(0 -1.88395e-05 0)
(0 -3.80617e-05 0)
(0 -1.79018e-05 0)
(0 -4.2283e-05 0)
(0 -5.69088e-05 0)
(0 -0.000164721 0)
(0 -7.9761e-05 0)
(0 -2.50946e-05 0)
(0 -4.87717e-05 0)
(0 -6.72164e-05 0)
(0 -7.53082e-05 0)
(0 -9.41036e-05 0)
(0 -0.000104664 0)
(0 -0.00107926 0)
(0 -8.99489e-05 0)
(0 -0.000123044 0)
(0 -0.000136878 0)
(0 -0.000862796 0)
(0 -1.03933e-05 0)
(0 -3.28596e-05 0)
(0 -0.000157467 0)
(0 -0.000172591 0)
(0 -0.00130786 0)
(0 -0.00105378 0)
(0 -0.000196947 0)
(0 -0.000212065 0)
(0 -0.000734157 0)
(0 -0.000739013 0)
(0 -0.000900573 0)
(0 -0.000936174 0)
(0 -0.00086111 0)
(0 -0.000238414 0)
(0 -0.000226414 0)
(0 -0.000255129 0)
(0 -0.00157008 0)
(0 -0.00153136 0)
(0 -0.000150361 0)
(0 -0.000704227 0)
(0 -0.000711142 0)
(0 -0.000693606 0)
(0 -2.81228e-06 0)
(0 -0.000282603 0)
(0 -0.000300929 0)
(0 -0.000672662 0)
(0 -0.000682387 0)
(0 -0.000897414 0)
(0 -0.000936239 0)
(0 -0.00106218 0)
(0 -1.12209e-05 0)
(0 -1.93407e-05 0)
(0 -0.00150998 0)
(0 -0.00147305 0)
(0 -0.00108267 0)
(0 8.95175e-07 0)
(0 -7.26845e-06 0)
(0 1.12767e-05 0)
(0 3.25806e-06 0)
(0 1.94192e-05 0)
(0 1.14651e-05 0)
(0 2.63415e-05 0)
(0 1.80232e-05 0)
(0 1.83267e-06 0)
(0 7.67401e-06 0)
(0 -1.00644e-05 0)
(0 -4.74159e-06 0)
(0 1.25003e-05 0)
(0 -2.438e-05 0)
(0 -3.03721e-07 0)
(0 1.59556e-05 0)
(0 3.25457e-06 0)
(0 1.7949e-05 0)
(0 3.30839e-05 0)
(0 5.77375e-06 0)
(0 1.94587e-05 0)
(0 7.0982e-06 0)
(0 2.03797e-05 0)
(0 5.49144e-06 0)
(0 2.09042e-05 0)
(0 -0.000328046 0)
(0 -0.000349875 0)
(0 -0.000640296 0)
(0 -0.00065551 0)
(0 -0.000695837 0)
(0 -0.000675468 0)
(0 -0.000895381 0)
(0 -0.000937482 0)
(0 -0.00109592 0)
(0 -0.00111651 0)
(0 3.23465e-05 0)
(0 3.25049e-05 0)
(0 2.11368e-05 0)
(0 3.20947e-05 0)
(0 -0.000633768 0)
(0 -0.000658307 0)
(0 -0.00070114 0)
(0 -0.000689158 0)
(0 -0.000734832 0)
(0 -0.000738128 0)
(0 -0.000779339 0)
(0 -0.000790967 0)
(0 -0.000747237 0)
(0 -0.000804639 0)
(0 -0.000852219 0)
(0 -0.000869156 0)
(0 -0.000915057 0)
(0 -0.000935361 0)
(0 -0.000887392 0)
(0 -0.000954924 0)
(0 -0.00100076 0)
(0 -0.00101977 0)
(0 -0.00106303 0)
(0 -0.00108123 0)
(0 -0.00112408 0)
(0 -0.00114181 0)
(0 -0.00118553 0)
(0 -0.00120315 0)
(0 -0.00115334 0)
(0 -0.00121515 0)
(0 -0.00126652 0)
(0 -0.00128217 0)
(0 -0.00133447 0)
(0 -0.0013571 0)
(0 -0.00140944 0)
(0 -0.000905031 0)
(0 -0.00137734 0)
(0 -0.000375525 0)
(0 -0.000402024 0)
(0 -0.000826333 0)
(0 3.01187e-05 0)
(0 -0.00144063 0)
(0 -0.00140748 0)
(0 -0.00143874 0)
(0 -0.00137539 0)
(0 -0.00140463 0)
(0 -0.00134228 0)
(0 -0.00137131 0)
(0 -0.00130796 0)
(0 -0.00133683 0)
(0 -0.00127294 0)
(0 -0.00131995 0)
(0 -0.000617391 0)
(0 -6.96447e-06 0)
(0 -0.000425675 0)
(0 -0.000456195 0)
(0 2.01723e-05 0)
(0 3.10654e-05 0)
(0 -0.00047877 0)
(0 -0.00051198 0)
(0 -0.000533749 0)
(0 4.23788e-05 0)
(0 -0.000569014 0)
(0 -0.000590142 0)
(0 -0.000893207 0)
(0 -0.000847871 0)
(0 -0.00080738 0)
(0 -0.000792768 0)
(0 -0.000752044 0)
(0 -0.000732261 0)
(0 -0.000691345 0)
(0 -0.000667682 0)
(0 -0.000627049 0)
(0 -0.000650005 0)
(0 -0.000587425 0)
(0 -0.000609807 0)
(0 -0.000546784 0)
(0 -0.000566634 0)
(0 -0.000601473 0)
(0 -0.000639543 0)
(0 -0.00113348 0)
(0 -0.00115306 0)
(0 -0.00115988 0)
(0 -0.00129875 0)
(0 -0.00123596 0)
(0 -0.000845471 0)
(0 -0.000796689 0)
(0 -0.000358923 0)
(0 -3.21578e-05 0)
(0 -0.000627057 0)
(0 -0.00109976 0)
(0 -0.000500869 0)
(0 -0.00051381 0)
(0 -0.000651521 0)
(0 -0.0013643 0)
(0 -0.00126726 0)
(0 -0.00113652 0)
(0 -0.000271659 0)
(0 -0.000433393 0)
(0 1.84457e-05 0)
(0 2.91739e-05 0)
(0 4.10727e-05 0)
(0 3.78722e-05 0)
(0 2.69203e-05 0)
(0 -0.000157051 0)
(0 -0.000160329 0)
(0 -0.000185414 0)
(0 -0.000187988 0)
(0 -0.000215037 0)
(0 -0.00021767 0)
(0 -0.000246403 0)
(0 -0.000249072 0)
(0 -0.00027952 0)
(0 -0.00028246 0)
(0 -0.000314131 0)
(0 -0.000312956 0)
(0 -0.000318372 0)
(0 -0.000288202 0)
(0 -0.000348379 0)
(0 -0.000349676 0)
(0 -0.000327398 0)
(0 -0.00029746 0)
(0 -0.000385818 0)
(0 -0.000390027 0)
(0 -0.000337622 0)
(0 -0.00030874 0)
(0 -0.000819832 0)
(0 -0.000809622 0)
(0 6.26557e-06 0)
(0 -0.000647917 0)
(0 -0.00068568 0)
(0 -0.000574014 0)
(0 -0.000608712 0)
(0 -0.00117286 0)
(0 -0.00114494 0)
(0 -0.00119052 0)
(0 -0.00085593 0)
(0 -0.000447609 0)
(0 -0.000453803 0)
(0 -0.00083769 0)
(0 -0.000786792 0)
(0 -0.00139499 0)
(0 -0.000426793 0)
(0 -0.00043303 0)
(0 -0.000705399 0)
(0 -0.000744396 0)
(0 -0.000347794 0)
(0 -0.000322352 0)
(0 -0.00054595 0)
(0 -0.000576961 0)
(0 -0.000389579 0)
(0 -0.000393589 0)
(0 -0.00125873 0)
(0 -0.00131386 0)
(0 -0.00119733 0)
(0 -0.00116531 0)
(0 -0.00130745 0)
(0 -0.00121168 0)
(0 -0.000613636 0)
(0 -0.00112625 0)
(0 -0.00127166 0)
(0 -0.000761575 0)
(0 -0.000802826 0)
(0 -0.000806175 0)
(0 4.69811e-05 0)
(0 3.61841e-05 0)
(0 4.33082e-05 0)
(0 3.09599e-05 0)
(0 3.85967e-05 0)
(0 2.21143e-05 0)
(0 3.28606e-05 0)
(0 1.76726e-05 0)
(0 2.69084e-05 0)
(0 4.01152e-05 0)
(0 3.40294e-05 0)
(0 1.98112e-05 0)
(0 2.71001e-05 0)
(0 3.99827e-05 0)
(0 3.3458e-05 0)
(0 4.52497e-05 0)
(0 3.90692e-05 0)
(0 2.59253e-05 0)
(0 3.14968e-05 0)
(0 4.37903e-05 0)
(0 3.62721e-05 0)
(0 2.27727e-05 0)
(0 2.7848e-05 0)
(0 4.03416e-05 0)
(0 3.21714e-05 0)
(0 4.3588e-05 0)
(0 3.56985e-05 0)
(0 4.60528e-05 0)
(0 3.80677e-05 0)
(0 4.78084e-05 0)
(0 3.93807e-05 0)
(0 4.88755e-05 0)
(0 3.99174e-05 0)
(0 4.91128e-05 0)
(0 3.98959e-05 0)
(0 4.98469e-05 0)
(0 3.90521e-05 0)
(0 4.71386e-05 0)
(0 2.90785e-05 0)
(0 3.69024e-05 0)
(0 4.44496e-05 0)
(0 3.38777e-05 0)
(0 4.12228e-05 0)
(0 1.28085e-05 0)
(0 2.82058e-05 0)
(0 1.6706e-05 0)
(0 5.05196e-05 0)
(0 4.72033e-05 0)
(0 5.52853e-05 0)
(0 5.1875e-05 0)
(0 5.89789e-05 0)
(0 5.57481e-05 0)
(0 6.19165e-05 0)
(0 5.87696e-05 0)
(0 6.46017e-05 0)
(0 6.094e-05 0)
(0 6.53391e-05 0)
(0 6.23902e-05 0)
(0 6.6365e-05 0)
(0 6.34528e-05 0)
(0 6.7196e-05 0)
(0 6.42879e-05 0)
(0 6.78415e-05 0)
(0 6.49557e-05 0)
(0 6.83411e-05 0)
(0 6.55944e-05 0)
(0 6.8746e-05 0)
(0 6.5989e-05 0)
(0 6.89668e-05 0)
(0 6.62552e-05 0)
(0 6.90069e-05 0)
(0 6.63704e-05 0)
(0 6.9047e-05 0)
(0 6.6432e-05 0)
(0 6.95461e-05 0)
(0 6.66111e-05 0)
(0 6.91631e-05 0)
(0 6.32041e-05 0)
(0 6.64661e-05 0)
(0 6.88729e-05 0)
(0 6.60006e-05 0)
(0 6.85577e-05 0)
(0 6.00671e-05 0)
(0 6.55263e-05 0)
(0 6.81296e-05 0)
(0 5.46663e-05 0)
(0 6.49586e-05 0)
(0 6.75226e-05 0)
(0 6.28544e-05 0)
(0 6.4278e-05 0)
(0 6.68889e-05 0)
(0 4.28903e-05 0)
(0 6.10261e-05 0)
(0 6.33398e-05 0)
(0 6.60731e-05 0)
(0 7.01521e-05 0)
(0 -0.000817687 0)
(0 -0.000862077 0)
(0 -0.000829416 0)
(0 -0.000815488 0)
(0 5.28779e-05 0)
(0 6.20736e-05 0)
(0 6.48891e-05 0)
(0 -0.000516872 0)
(0 -0.000543528 0)
(0 -0.000333491 0)
(0 -0.00108234 0)
(0 -0.00104188 0)
(0 7.14943e-05 0)
(0 -0.000431531 0)
(0 -0.000484891 0)
(0 6.84021e-05 0)
(0 6.73208e-05 0)
(0 5.25564e-05 0)
(0 7.1246e-05 0)
(0 -0.000773469 0)
(0 -0.000723639 0)
(0 -0.000975292 0)
(0 -0.00158471 0)
(0 -0.000470501 0)
(0 -0.000478239 0)
(0 -0.000440344 0)
(0 -0.000487606 0)
(0 -0.000449102 0)
(0 -0.000498537 0)
(0 -0.000459963 0)
(0 -0.000512065 0)
(0 -0.000473885 0)
(0 -0.000529045 0)
(0 -0.000490804 0)
(0 -0.000548456 0)
(0 -0.000586728 0)
(0 -0.000607166 0)
(0 -0.000571425 0)
(0 -0.000639844 0)
(0 -0.000597884 0)
(0 -0.000663026 0)
(0 -0.000627358 0)
(0 -0.00069639 0)
(0 -0.000661685 0)
(0 -0.000733253 0)
(0 -0.000700588 0)
(0 -0.00077752 0)
(0 -0.000743593 0)
(0 -0.000826821 0)
(0 -0.00079206 0)
(0 -0.000881913 0)
(0 -0.000850379 0)
(0 -0.000943906 0)
(0 -0.000911605 0)
(0 -0.000646334 0)
(0 -0.000853649 0)
(0 -0.000361692 0)
(0 -0.000339067 0)
(0 -0.000710383 0)
(0 -0.00133508 0)
(0 -0.000340037 0)
(0 -0.000394434 0)
(0 -0.000870436 0)
(0 -0.000874477 0)
(0 -0.000920512 0)
(0 -0.000606832 0)
(0 -0.000463802 0)
(0 -0.00113007 0)
(0 -0.000286722 0)
(0 -0.00123758 0)
(0 -0.000379524 0)
(0 5.62785e-05 0)
(0 7.06321e-05 0)
(0 -0.000734991 0)
(0 -1.97942e-05 0)
(0 -1.40206e-05 0)
(0 -0.000483655 0)
(0 -0.000506253 0)
(0 6.33821e-05 0)
(0 6.59372e-05 0)
(0 -0.000290553 0)
(0 -0.000538291 0)
(0 -0.000987497 0)
(0 -0.000948528 0)
(0 -0.00131846 0)
(0 -0.00127624 0)
(0 7.02838e-05 0)
(0 6.44973e-05 0)
(0 -0.000832839 0)
(0 -0.000816858 0)
(0 -0.000804142 0)
(0 -0.000853169 0)
(0 -0.000300136 0)
(0 -0.000319607 0)
(0 -0.000358197 0)
(0 -0.000340872 0)
(0 -0.000303473 0)
(0 -0.000327459 0)
(0 -0.000291511 0)
(0 -0.000318613 0)
(0 6.88078e-05 0)
(0 -0.000497805 0)
(0 -0.000508953 0)
(0 -0.000343123 0)
(0 -0.000392246 0)
(0 -0.000560275 0)
(0 -0.000704728 0)
(0 -0.00065788 0)
(0 -3.00811e-05 0)
(0 -4.66654e-05 0)
(0 -0.000283897 0)
(0 -0.000314019 0)
(0 -0.00109361 0)
(0 -0.00066312 0)
(0 -0.000445856 0)
(0 -0.000466902 0)
(0 -0.000971785 0)
(0 -0.00126242 0)
(0 -0.000528246 0)
(0 -0.000488792 0)
(0 -0.000425416 0)
(0 -0.000448713 0)
(0 6.13782e-05 0)
(0 6.39875e-05 0)
(0 -0.00115788 0)
(0 -0.00113547 0)
(0 -0.000855727 0)
(0 -0.000883046 0)
(0 -0.000804949 0)
(0 -0.000795442 0)
(0 -0.000275378 0)
(0 -0.000931116 0)
(0 -0.000977426 0)
(0 -0.00088736 0)
(0 -0.00085394 0)
(0 -0.00091857 0)
(0 -0.000501784 0)
(0 -0.000967441 0)
(0 -0.000236225 0)
(0 -3.71745e-06 0)
(0 1.95603e-06 0)
(0 -0.000779806 0)
(0 -0.000675846 0)
(0 -0.000612114 0)
(0 -0.000380307 0)
(0 -0.000421619 0)
(0 -0.00171932 0)
(0 -0.00058186 0)
(0 -0.000788535 0)
(0 -0.000828692 0)
(0 -0.000548502 0)
(0 -0.000348895 0)
(0 -0.000346747 0)
(0 -0.00097108 0)
(0 -0.0010273 0)
(0 -0.00131524 0)
(0 -0.00127398 0)
(0 -0.000190509 0)
(0 -0.00176002 0)
(0 -0.00123417 0)
(0 -0.00123306 0)
(0 -0.000381147 0)
(0 -0.000409294 0)
(0 -0.000342197 0)
(0 -0.000885275 0)
(0 -0.000916724 0)
(0 -0.00058857 0)
(0 -0.000546369 0)
(0 -9.13831e-06 0)
(0 6.44792e-06 0)
(0 -0.00100866 0)
(0 -0.000627839 0)
(0 -0.00135504 0)
(0 5.88268e-05 0)
(0 5.5514e-05 0)
(0 6.14849e-05 0)
(0 6.62166e-05 0)
(0 -0.00118146 0)
(0 -0.000479327 0)
(0 -0.000443464 0)
(0 -0.00037119 0)
(0 -0.00040877 0)
(0 -0.000279837 0)
(0 -0.00134381 0)
(0 6.36059e-05 0)
(0 6.78511e-05 0)
(0 5.84591e-05 0)
(0 -0.00100278 0)
(0 -5.30273e-05 0)
(0 -7.17594e-05 0)
(0 -0.00104984 0)
(0 -0.00102642 0)
(0 -6.59443e-05 0)
(0 -9.30284e-05 0)
(0 -8.80816e-05 0)
(0 -0.000117184 0)
(0 -0.000122835 0)
(0 -0.000149225 0)
(0 -0.000155044 0)
(0 -0.000184204 0)
(0 -0.000112919 0)
(0 -0.000189397 0)
(0 -0.000221624 0)
(0 -0.000226582 0)
(0 -0.000261437 0)
(0 -0.000266988 0)
(0 -0.000302427 0)
(0 -0.000310501 0)
(0 -0.00035131 0)
(0 -0.00128954 0)
(0 -0.000334804 0)
(0 -0.000376018 0)
(0 6.47035e-05 0)
(0 6.9048e-05 0)
(0 7.10705e-05 0)
(0 7.19336e-05 0)
(0 6.99978e-05 0)
(0 7.25297e-05 0)
(0 7.04232e-05 0)
(0 7.27738e-05 0)
(0 7.04751e-05 0)
(0 7.27043e-05 0)
(0 7.02145e-05 0)
(0 7.23078e-05 0)
(0 6.96022e-05 0)
(0 7.16004e-05 0)
(0 6.86247e-05 0)
(0 7.06581e-05 0)
(0 7.33513e-05 0)
(0 -0.000217538 0)
(0 -0.000787212 0)
(0 -0.000760772 0)
(0 -0.000222314 0)
(0 -0.000774101 0)
(0 -0.000987047 0)
(0 -0.00035691 0)
(0 -0.00040048 0)
(0 1.09349e-05 0)
(0 -0.000841359 0)
(0 -0.000382083 0)
(0 -0.000382017 0)
(0 -0.00054129 0)
(0 -0.000590556 0)
(0 -0.000796739 0)
(0 -0.000791483 0)
(0 -0.000250007 0)
(0 -5.5311e-06 0)
(0 9.85787e-06 0)
(0 -0.000639929 0)
(0 -0.000189515 0)
(0 -0.000203305 0)
(0 -0.000728629 0)
(0 -0.000754927 0)
(0 -0.000110617 0)
(0 -0.000406294 0)
(0 -0.000452039 0)
(0 -0.000459349 0)
(0 -0.000507346 0)
(0 -0.000245846 0)
(0 -0.000821883 0)
(0 -0.00102513 0)
(0 -0.0010806 0)
(0 6.73671e-05 0)
(0 6.94851e-05 0)
(0 7.22541e-05 0)
(0 7.1122e-05 0)
(0 7.34357e-05 0)
(0 7.23515e-05 0)
(0 6.47069e-05 0)
(0 7.4375e-05 0)
(0 7.33036e-05 0)
(0 -0.00149987 0)
(0 -0.000519483 0)
(0 -0.000480475 0)
(0 -0.000917426 0)
(0 -0.000951687 0)
(0 -0.000630371 0)
(0 -0.000943881 0)
(0 -0.000519534 0)
(0 -0.000978655 0)
(0 -0.00137894 0)
(0 -0.0013601 0)
(0 -1.84379e-06 0)
(0 1.23913e-05 0)
(0 7.1205e-05 0)
(0 7.2276e-05 0)
(0 7.40306e-05 0)
(0 7.31588e-05 0)
(0 7.10877e-05 0)
(0 7.19978e-05 0)
(0 7.40994e-05 0)
(0 7.28854e-05 0)
(0 -0.00143533 0)
(0 -0.000640808 0)
(0 -0.000673671 0)
(0 -0.000783871 0)
(0 -0.00070928 0)
(0 -0.000596558 0)
(0 -0.000634402 0)
(0 7.04212e-05 0)
(0 7.13884e-05 0)
(0 7.36026e-05 0)
(0 7.22646e-05 0)
(0 -0.00091116 0)
(0 -0.000957458 0)
(0 1.88143e-06 0)
(0 1.46625e-05 0)
(0 4.46401e-06 0)
(0 1.68784e-05 0)
(0 6.42215e-06 0)
(0 1.88168e-05 0)
(0 7.77309e-06 0)
(0 1.98759e-05 0)
(0 8.36415e-06 0)
(0 2.33117e-05 0)
(0 -0.000515135 0)
(0 -0.000566107 0)
(0 -0.000935786 0)
(0 -0.00090998 0)
(0 -0.000161265 0)
(0 -0.000173267 0)
(0 -0.00162094 0)
(0 6.54876e-05 0)
(0 6.95046e-05 0)
(0 7.05218e-05 0)
(0 7.30179e-05 0)
(0 7.14014e-05 0)
(0 7.35983e-05 0)
(0 7.20651e-05 0)
(0 -0.000809924 0)
(0 -0.000216143 0)
(0 7.43976e-05 0)
(0 -0.000135511 0)
(0 -0.000997294 0)
(0 -0.000804297 0)
(0 -0.000795608 0)
(0 -0.00149925 0)
(0 -0.00143611 0)
(0 -0.000300641 0)
(0 -0.000344361 0)
(0 -0.000415866 0)
(0 -0.000385957 0)
(0 6.74837e-05 0)
(0 -0.000600132 0)
(0 -0.00122722 0)
(0 -0.000572329 0)
(0 -0.00143226 0)
(0 -0.0013713 0)
(0 -0.0013747 0)
(0 -0.00131379 0)
(0 -0.0013182 0)
(0 -0.00125989 0)
(0 -0.00126499 0)
(0 -0.00120975 0)
(0 -0.00120212 0)
(0 -0.00121481 0)
(0 -0.00116454 0)
(0 -0.000211858 0)
(0 -0.00024398 0)
(0 -0.000213486 0)
(0 7.39562e-05 0)
(0 -0.00163845 0)
(0 -0.00031063 0)
(0 -0.000352001 0)
(0 -0.000763951 0)
(0 -0.000145032 0)
(0 2.0543e-05 0)
(0 8.44645e-06 0)
(0 -0.000175144 0)
(0 -0.000208543 0)
(0 -0.000520423 0)
(0 -0.000558106 0)
(0 -0.000420099 0)
(0 -0.000386502 0)
(0 -0.000417688 0)
(0 -0.000419851 0)
(0 -0.000385086 0)
(0 -0.000425706 0)
(0 -0.000419425 0)
(0 -0.00116939 0)
(0 -0.000625852 0)
(0 -0.000628804 0)
(0 2.10804e-05 0)
(0 -0.00068903 0)
(0 -0.000668894 0)
(0 -0.00169228 0)
(0 -0.000231356 0)
(0 -0.00139269 0)
(0 -0.00136765 0)
(0 -0.000235738 0)
(0 -0.000947693 0)
(0 -0.00038895 0)
(0 7.44289e-05 0)
(0 7.09364e-05 0)
(0 -0.000583472 0)
(0 -0.000636247 0)
(0 -0.000536619 0)
(0 -0.000315503 0)
(0 -0.000348485 0)
(0 -0.000260831 0)
(0 1.84462e-05 0)
(0 -0.000885912 0)
(0 -0.000740507 0)
(0 -0.00065155 0)
(0 -0.00120699 0)
(0 -0.00131977 0)
(0 -0.00098609 0)
(0 5.58257e-05 0)
(0 -0.000641401 0)
(0 -0.00041373 0)
(0 -0.000375739 0)
(0 -0.000310105 0)
(0 -0.000338794 0)
(0 5.04224e-05 0)
(0 -0.000223354 0)
(0 -0.000110469 0)
(0 -0.000256388 0)
(0 -0.000401311 0)
(0 -0.000814037 0)
(0 -0.000838001 0)
(0 -0.000784073 0)
(0 -0.000879364 0)
(0 -0.000752247 0)
(0 7.45672e-05 0)
(0 -0.000690702 0)
(0 -0.00101709 0)
(0 -0.00102166 0)
(0 -0.00142468 0)
(0 -0.0013672 0)
(0 -0.00139194 0)
(0 -0.00134062 0)
(0 -0.000293074 0)
(0 -0.00144185 0)
(0 2.88931e-05 0)
(0 -5.17218e-06 0)
(0 -5.83001e-06 0)
(0 7.78522e-06 0)
(0 -7.21264e-06 0)
(0 -0.00044618 0)
(0 -0.000483978 0)
(0 -0.000593686 0)
(0 -0.000518777 0)
(0 -0.00061759 0)
(0 -0.000544811 0)
(0 -0.000451038 0)
(0 -0.000478253 0)
(0 -0.000391463 0)
(0 -0.000561435 0)
(0 -0.00068454 0)
(0 -0.000685743 0)
(0 3.0136e-05 0)
(0 2.14299e-05 0)
(0 1.68486e-05 0)
(0 6.41927e-06 0)
(0 1.04266e-06 0)
(0 -1.11641e-05 0)
(0 -1.66149e-05 0)
(0 -6.2578e-06 0)
(0 -2.58855e-05 0)
(0 -2.1557e-05 0)
(0 -4.29237e-05 0)
(0 -4.03474e-05 0)
(0 -6.72204e-05 0)
(0 -6.24408e-05 0)
(0 -0.000261772 0)
(0 -3.8463e-05 0)
(0 -6.17897e-05 0)
(0 6.26828e-06 0)
(0 -9.51262e-06 0)
(0 -0.00139483 0)
(0 7.48968e-05 0)
(0 -0.000800509 0)
(0 -0.000956874 0)
(0 -0.00106993 0)
(0 -0.0008811 0)
(0 -4.27047e-05 0)
(0 -0.000902475 0)
(0 -0.00116021 0)
(0 -3.85292e-05 0)
(0 -6.28366e-05 0)
(0 -0.00123629 0)
(0 -0.000387932 0)
(0 -0.00033714 0)
(0 -0.000444348 0)
(0 -0.000548394 0)
(0 -0.000585531 0)
(0 -0.000611642 0)
(0 3.61453e-06 0)
(0 1.85706e-05 0)
(0 -0.000111536 0)
(0 5.44008e-05 0)
(0 5.8537e-05 0)
(0 6.12454e-05 0)
(0 6.45731e-05 0)
(0 6.65034e-05 0)
(0 6.89161e-05 0)
(0 7.03851e-05 0)
(0 7.21242e-05 0)
(0 7.06677e-05 0)
(0 7.30984e-05 0)
(0 7.15578e-05 0)
(0 7.38685e-05 0)
(0 7.25091e-05 0)
(0 7.4476e-05 0)
(0 7.32379e-05 0)
(0 7.35241e-05 0)
(0 7.26988e-05 0)
(0 6.28544e-05 0)
(0 7.50281e-05 0)
(0 7.49417e-05 0)
(0 7.37951e-05 0)
(0 1.1611e-05 0)
(0 -0.00081759 0)
(0 -0.000889676 0)
(0 -0.000677758 0)
(0 -0.000648189 0)
(0 -0.0007009 0)
(0 7.24144e-05 0)
(0 7.42395e-05 0)
(0 6.31988e-05 0)
(0 -0.000740484 0)
(0 -0.00029706 0)
(0 -0.000706511 0)
(0 -0.000558424 0)
(0 -0.000484691 0)
(0 -0.00052189 0)
(0 -0.000554541 0)
(0 -0.000875933 0)
(0 -0.000276975 0)
(0 -0.000668852 0)
(0 -0.000713184 0)
(0 -0.00104347 0)
(0 -0.000470567 0)
(0 -0.00052587 0)
(0 -0.000542796 0)
(0 -0.000601557 0)
(0 -0.00058628 0)
(0 -0.000665187 0)
(0 -0.000652027 0)
(0 -0.000619447 0)
(0 -0.000733279 0)
(0 -0.000722074 0)
(0 3.88021e-06 0)
(0 -9.91285e-06 0)
(0 -1.28356e-05 0)
(0 -2.81106e-05 0)