/*--------------------------------*- C++ -*----------------------------------*\
| =========                 |                                                 |
| \\      /  F ield         | OpenFOAM: The Open Source CFD Toolbox           |
|  \\    /   O peration     | Version:  v2012                                 |
|   \\  /    A nd           | Website:  www.openfoam.com                      |
|    \\/     M anipulation  |                                                 |
\*---------------------------------------------------------------------------*/
FoamFile
{
    version     2.0;
    format      ascii;
    class       surfaceVectorField;
    location    "700";
    object      Uf;
}
// * * * * * * * * * * * * * * * * * * * * * * * * * * * * * * * * * * * * * //

dimensions      [0 1 -1 0 0 0 0];


internalField   nonuniform List<vector> 
14470
(
(0.970924 -0.0175821 0)
(0.969281 -0.0175923 -8.71645e-21)
(0.970196 -0.0158822 -1.73465e-21)
(-0.0623885 0.00761769 0)
(-0.073306 0.0179682 0)
(0.994626 -0.00752064 4.17984e-21)
(0.994963 -0.00781396 4.69787e-21)
(0.994489 -0.00809271 1.01716e-20)
(-0.194771 0.0678024 -3.65419e-20)
(-0.166325 0.0820256 -1.03135e-19)
(-0.171419 0.114537 6.18868e-20)
(0.999965 -0.000550238 3.59879e-21)
(0.999958 -0.000536236 -1.72742e-22)
(0.999935 -0.000822597 3.23439e-21)
(1.25515 0.0254479 1.97488e-21)
(1.26032 0.0241524 3.24387e-20)
(1.25578 0.020444 -2.238e-20)
(1.18026 -0.209722 -3.21201e-21)
(1.18376 -0.196066 -2.60434e-20)
(1.19815 -0.204242 -1.27127e-21)
(0.0400822 0.14799 -2.44534e-20)
(0.0644488 0.153406 4.80368e-20)
(-0.0461677 0.147717 -4.21508e-21)
(1.0237 -0.024562 -1.44467e-22)
(1.02512 -0.0250058 -1.30535e-21)
(1.02394 -0.0261197 -1.15354e-22)
(1.00011 -0.00224514 0)
(1.00008 -0.00210007 0)
(1.0001 -0.00207735 -5.38702e-22)
(1.0001 -0.00239957 0)
(1.00014 -0.00239661 0)
(1.00311 -0.00784059 0)
(1.00297 -0.0075041 0)
(1.00283 -0.00779389 -7.40421e-22)
(-0.235267 -0.467444 -1.04856e-20)
(-0.335929 -0.465005 -7.66631e-21)
(-0.352495 -0.48 6.30651e-20)
(1.01835 -0.0136526 3.30143e-21)
(1.01769 -0.0130638 -1.16347e-21)
(1.0186 -0.0128683 1.81912e-21)
(1.03255 0.0308357 -5.56191e-22)
(1.03292 0.0334103 -2.45648e-21)
(1.03013 0.0321254 -5.75122e-21)
(1.1589 -0.0108311 2.04958e-20)
(1.16654 -0.0118413 -1.4716e-20)
(1.16258 -0.018541 2.0454e-20)
(0.996723 -0.00906773 5.10971e-21)
(0.996768 -0.00942383 3.80813e-21)
(0.997097 -0.0091275 -2.16798e-21)
(0.021104 -0.549151 -5.87787e-21)
(-2.76281e-05 -0.556823 1.27884e-20)
(0.00513746 -0.562979 -4.82909e-21)
(1.01206 -0.00241618 2.43754e-22)
(1.01195 -0.00223492 0)
(1.0122 -0.00229474 6.10072e-22)
(1.01611 -0.00389917 -3.33575e-23)
(1.01639 -0.00360433 2.36001e-24)
(1.01587 -0.00361114 -6.26538e-22)
(0.999988 -0.00014816 -7.36444e-21)
(0.999993 -0.000157536 3.73271e-22)
(-0.12711 0.265807 -9.07913e-20)
(-0.103201 0.310334 -4.25377e-20)
(-0.109406 0.283549 -3.71941e-20)
(0.103776 0.144908 -2.61233e-20)
(-0.0122361 0.143994 -8.06449e-20)
(-0.120927 -0.452488 3.52741e-20)
(-0.144034 -0.469709 -6.32109e-20)
(0.93622 -0.0628473 3.35398e-21)
(0.94075 -0.0610835 -3.05771e-20)
(0.936384 -0.0572424 -1.94465e-20)
(1.0003 -0.00450708 -2.89346e-21)
(1.00041 -0.00473082 -2.74276e-21)
(1.00036 -0.00434325 0)
(1.00002 -0.000379941 8.38984e-22)
(1.00002 -0.000443077 -4.89201e-21)
(1.00005 -0.000570091 -8.7639e-21)
(1.01194 -0.00250971 2.13521e-22)
(1.01217 -0.00257526 2.46508e-21)
(1.20396 -0.0858993 3.00725e-21)
(1.2118 -0.0818639 -1.19554e-20)
(1.21241 -0.0922913 4.33263e-21)
(-0.584028 0.0689668 6.88285e-20)
(-0.597459 0.0660189 9.34036e-20)
(-0.677945 0.0604986 2.07262e-19)
(1.26617 0.0125002 1.01738e-20)
(1.2658 0.0105975 2.51638e-20)
(1.2679 0.0107637 3.88722e-20)
(0.997839 -0.00537306 3.106e-21)
(0.997681 -0.00519485 5.8535e-22)
(0.997592 -0.00538781 3.39784e-21)
(0.999089 -0.00859376 6.26283e-21)
(0.998968 -0.00900464 1.45666e-21)
(0.999284 -0.00894779 1.56944e-21)
(1.00474 -0.000436349 1.96319e-21)
(1.00455 -0.000442488 3.35542e-21)
(1.00446 -0.00025277 1.72017e-21)
(1.07714 0.013368 8.13576e-21)
(1.07705 0.0100487 -6.2537e-22)
(1.08017 0.0127585 5.77272e-21)
(1.03414 0.0225279 7.05999e-21)
(1.03523 0.0206927 3.25076e-21)
(1.03318 0.0203595 -3.53041e-22)
(0.927861 -0.00398167 -1.47875e-20)
(0.924607 -0.00274491 -9.05055e-21)
(0.925292 -0.00720855 3.0974e-20)
(-0.408305 -0.457431 4.95085e-20)
(-0.43049 -0.466364 6.71403e-20)
(-0.347372 -0.465187 1.47522e-20)
(1.0966 -0.0384363 0)
(1.09164 -0.0374454 1.72709e-21)
(1.09487 -0.0332038 7.01064e-22)
(1.19494 -0.0918998 -2.54362e-20)
(1.19426 -0.0814832 2.12216e-20)
(1.28992 -0.05134 -2.52263e-20)
(1.27636 -0.0469203 2.91064e-21)
(1.20446 -0.0548069 4.21553e-20)
(-0.23776 -0.253491 -4.18747e-20)
(-0.219647 -0.133147 -1.88246e-20)
(-0.297124 -0.114836 -6.67152e-21)
(1 -0.000229765 1.92452e-21)
(1.00002 -0.000355625 5.40999e-21)
(0.994141 -0.00275544 4.68579e-21)
(0.99381 -0.00302492 -3.16362e-21)
(0.993784 -0.00256226 7.39023e-21)
(0.997244 -0.00318993 -4.54506e-21)
(0.997472 -0.00338721 1.50683e-21)
(0.997403 -0.00311911 -2.05523e-21)
(-0.323789 0.153126 -2.64574e-20)
(-0.340852 0.137287 8.84764e-21)
(-0.287792 0.164652 3.12278e-20)
(0.999999 -0.000424099 0)
(1.00001 -0.000192474 0)
(1.00001 -0.000181148 0)
(1.01934 -0.000808644 1.61499e-22)
(1.01885 -0.00073052 8.89888e-23)
(1.01937 -0.000400742 -1.58175e-23)
(0.996689 -0.00855346 -4.56561e-21)
(0.996312 -0.00891085 5.16767e-22)
(1.07736 0.0177599 3.79718e-21)
(1.07371 0.0149439 -3.60382e-21)
(1.0049 -0.000593929 -2.51729e-21)
(1.00495 -0.000394463 -1.95961e-21)
(1.11318 0.00259739 1.9596e-21)
(1.1181 0.000936843 -1.94963e-20)
(1.11528 0.00627537 5.77777e-21)
(1.00001 -0.00067452 -1.21767e-21)
(0.999995 -0.000703833 0)
(0.92238 -0.123064 -3.09162e-20)
(0.931522 -0.12036 5.97554e-21)
(0.930006 -0.130984 -1.63991e-20)
(-0.235408 0.0138316 0)
(-0.237094 0.0486498 0)
(1.00313 -0.00708023 1.5102e-22)
(1.00298 -0.00676431 -2.48977e-21)
(1.00323 -0.00685545 0)
(1.18054 0.109112 0)
(1.17886 0.119279 -1.13979e-21)
(1.17062 0.113196 -1.71317e-21)
(1.01927 -0.0011231 9.14394e-23)
(1.0198 -0.000827692 4.46819e-23)
(1 -0.000197952 -4.95106e-22)
(0.915631 -0.0253751 -9.40167e-21)
(0.91056 -0.0244921 -7.32732e-21)
(0.914515 -0.0200814 2.91213e-21)
(0.867319 -0.347576 6.89172e-21)
(0.887496 -0.356479 4.98741e-21)
(0.861086 -0.380457 2.46259e-21)
(0.996103 -0.00763172 4.31278e-21)
(0.995814 -0.00740379 -1.30911e-22)
(0.996213 -0.00716282 -1.02418e-21)
(1.06899 0.0592811 7.20461e-21)
(1.07094 0.0540477 2.9221e-21)
(1.06516 0.0560694 -7.42579e-21)
(1.00266 -0.00100483 1.35486e-21)
(1.0028 -0.000927497 3.45406e-21)
(1.00283 -0.00111852 -3.33228e-21)
(1.02234 -0.0241479 1.13815e-21)
(1.02327 -0.0232617 1.00322e-21)
(-0.414518 0.0797556 -4.32351e-20)
(-0.381821 0.0831893 0)
(1.05656 -0.0178205 -2.20824e-21)
(1.05458 -0.0191736 -2.19205e-21)
(1.05711 -0.0205626 7.15046e-22)
(1.03299 0.0241121 3.74627e-21)
(1.03147 0.0257442 1.50056e-21)
(1.03073 0.0233928 -3.82679e-22)
(0.364102 -0.321263 2.62278e-21)
(0.42819 -0.281493 1.1833e-19)
(0.407348 -0.276279 -4.18161e-20)
(0.984269 -0.0111549 -6.37214e-21)
(0.983189 -0.0109638 -3.43645e-21)
(0.984025 -0.0102277 -9.41143e-21)
(0.615003 0.00829565 9.7073e-22)
(0.594974 0.0214968 -2.94357e-20)
(0.59376 -0.00688127 -2.96943e-21)
(-0.108829 0.165109 1.97539e-20)
(-0.0245832 0.169357 -2.43171e-21)
(-0.11236 0.182385 2.32347e-20)
(0.874776 0.351065 -9.85158e-22)
(0.865752 0.364044 1.76253e-20)
(0.887444 0.364512 -5.88805e-21)
(0.729943 -0.10561 -1.69307e-20)
(0.662265 -0.125651 0)
(0.756996 -0.0699439 1.86356e-20)
(0.999999 -0.000628793 1.63717e-21)
(0.999994 -0.000691426 8.96077e-21)
(1.00002 -0.000914444 6.74016e-21)
(0.816973 -0.148542 2.98603e-20)
(0.832466 -0.154713 -2.43158e-20)
(0.828773 -0.138425 2.39037e-20)
(1.244 0.0458886 3.03857e-20)
(1.18552 0.0493851 3.12688e-20)
(1.20058 0.0643775 -1.13292e-20)
(0.996224 -0.00487299 9.01261e-21)
(0.996093 -0.00517836 4.37563e-21)
(0.996428 -0.00506458 -7.39806e-21)
(0.999981 -0.000599724 7.62983e-22)
(0.999981 -0.000597426 -4.52423e-21)
(0.999988 -0.000363124 3.97428e-21)
(0.806918 -0.155569 2.66699e-20)
(0.80444 -0.13832 8.40839e-20)
(0.0367711 -0.531134 6.56188e-20)
(0.0454044 -0.528806 -2.23633e-20)
(1.15215 -0.0108309 0)
(1.15575 -0.00451661 1.1984e-20)
(0.994142 -0.0641461 2.00146e-21)
(0.997447 -0.0649525 7.54923e-21)
(0.997024 -0.0614539 3.82535e-21)
(1.03531 0.0248124 1.75228e-22)
(1.31155 -0.0525418 -6.52195e-20)
(1.31106 -0.0657266 4.1592e-20)
(1.30069 -0.0576306 3.69995e-20)
(0.999976 -0.000616191 1.06602e-21)
(0.999962 -0.00087987 -8.63196e-23)
(1.09837 0.140472 -1.38667e-20)
(1.09403 0.130695 6.52112e-21)
(1.08716 0.138653 -6.52861e-21)
(-0.373792 -0.436945 -1.32637e-20)
(-0.471799 -0.457549 4.01581e-20)
(0.861784 -0.324927 0)
(0.836982 -0.348235 0)
(-0.20074 0.13795 2.20964e-20)
(-0.184319 0.172942 -2.51868e-21)
(-0.223851 0.120114 9.1264e-20)
(1.41409 -0.0292905 3.08782e-20)
(1.39219 -0.0210237 -7.26341e-20)
(1.42224 -0.00427067 7.85116e-20)
(1.44771 -0.0386373 -5.91387e-20)
(1.41038 -0.0496189 1.31063e-20)
(1.1174 -0.0871021 1.20199e-20)
(1.12554 -0.0914947 -5.66346e-21)
(1.1236 -0.0823054 -7.47744e-21)
(-0.199328 -0.380096 8.42001e-20)
(-0.118717 -0.284775 -1.29386e-20)
(0.998393 -0.0113782 -1.84549e-21)
(0.998624 -0.0117084 -4.19264e-21)
(0.99883 -0.0113023 -1.83752e-21)
(0.70133 -0.124707 1.03296e-19)
(0.816253 -0.0730748 -3.45622e-20)
(1.16259 -0.0387128 -2.4934e-20)
(1.15771 -0.0438754 1.3635e-20)
(1.15556 -0.0363163 1.31261e-20)
(1.05182 -0.0429672 -6.03831e-21)
(1.05491 -0.0431607 -6.4165e-21)
(1.05309 -0.0461143 -2.92992e-21)
(0.999984 -0.000329365 -3.7599e-21)
(0.999966 -0.000596782 0)
(-0.608366 -0.366107 -1.45048e-20)
(-0.624227 -0.390226 0)
(-0.568981 -0.350955 -6.26935e-20)
(1.11089 -0.00208358 9.09225e-21)
(1.10802 0.00392722 1.61523e-20)
(0.796769 0.428888 -6.84905e-21)
(0.787759 0.430561 -7.06356e-21)
(0.791567 0.426571 -1.05878e-20)
(0.994443 -0.00242825 -2.78114e-21)
(0.994517 -0.00285725 3.44558e-21)
(0.7987 0.128653 -3.52036e-20)
(0.699512 0.099877 -1.18286e-19)
(0.713361 0.0644363 -1.14573e-20)
(1.06358 0.0587883 -4.52009e-20)
(0.952548 0.0869014 -1.8517e-20)
(0.920615 0.0766013 6.16576e-21)
(0.885615 0.333296 1.34059e-21)
(0.86183 0.334453 -3.83005e-21)
(1.00465 -0.0052784 2.52565e-22)
(1.00466 -0.00551706 1.73155e-21)
(1.00444 -0.00535439 1.7618e-21)
(0.996001 -0.00466735 -4.24231e-21)
(0.996348 -0.00460905 9.09645e-21)
(0.999986 -0.000121622 5.42969e-21)
(1.00008 -0.00096561 5.98998e-21)
(1.0001 -0.000939706 4.65995e-23)
(1.00012 -0.0011364 7.83513e-21)
(-0.157507 0.21901 -4.60258e-20)
(-0.133988 0.235902 5.07306e-20)
(0.120418 -0.143254 2.46993e-20)
(0.0827537 -0.152908 -7.48128e-20)
(0.0900255 -0.110703 -3.3816e-19)
(-0.608731 0.0214105 -8.20563e-20)
(-0.619734 0.0244879 -2.02765e-19)
(-0.680746 0.0290506 -2.06401e-19)
(0.985252 -0.0111378 6.08664e-21)
(0.984627 -0.0118317 -1.74368e-21)
(0.999511 -0.00392881 4.97389e-21)
(0.999518 -0.00424017 2.41627e-21)
(0.9994 -0.00424608 -6.60649e-21)
(1.01961 0.0202888 -1.15053e-21)
(1.01834 0.0190129 -1.19712e-21)
(1.0178 0.0212761 1.76535e-22)
(0.997622 -0.00382039 -2.80988e-22)
(0.997819 -0.00391793 -3.00145e-22)
(0.997695 -0.00403318 -6.10103e-22)
(-0.278624 -0.0430346 -7.59185e-20)
(-0.318574 -0.0657142 -8.36686e-21)
(-0.313961 -0.0995812 -7.5886e-20)
(0.996911 -0.00258956 -1.20609e-21)
(0.996875 -0.00276744 -3.31016e-21)
(0.996705 -0.00248808 -1.45653e-20)
(0.643673 0.105767 2.29022e-20)
(0.689254 0.175993 1.56201e-20)
(0.562856 0.0991856 5.0172e-20)
(1.10308 0.14971 -4.59147e-21)
(1.11063 0.140519 -1.27025e-20)
(0.99932 -0.0308348 4.85477e-20)
(0.89745 -0.0612105 -9.53135e-20)
(0.896253 -0.066059 -4.25841e-20)
(1.12141 0.0328143 -7.2277e-21)
(1.12148 0.0390547 -3.2902e-21)
(1.11624 0.0361556 7.59051e-21)
(1.03642 0.0188142 -1.741e-21)
(1.03781 0.0208784 -3.91654e-21)
(0.996898 -0.00235037 1.75118e-20)
(0.997131 -0.00268705 1.20562e-20)
(1.1722 -0.0280668 2.53339e-21)
(1.17844 -0.0242173 -1.21162e-20)
(1.17945 -0.0325405 -1.33908e-20)
(-0.57608 0.0693098 -5.53578e-20)
(-0.511123 0.0784685 -1.21964e-19)
(1.08632 0.270756 1.4455e-20)
(1.09262 0.257974 2.69246e-20)
(1.10261 0.270809 2.28361e-20)
(1.07745 0.284671 5.73034e-21)
(1.06783 0.270874 -1.3126e-20)
(1.04745 0.00528658 4.76391e-21)
(1.04591 0.00669709 0)
(1.04555 0.00471709 0)
(1.00725 -0.0104052 0)
(1.0076 -0.0102777 -2.44665e-21)
(1.00719 -0.0100223 0)
(0.972653 -0.0171881 0)
(0.971892 -0.0188101 9.64451e-21)
(1.04995 -0.0169359 0)
(1.04831 -0.018356 1.35288e-21)
(1.04779 -0.0160133 3.81138e-21)
(1.07561 0.00758965 -4.15925e-21)
(1.07189 0.00734319 4.89203e-21)
(1.07401 0.00393165 1.09471e-20)
(1.27858 -0.172893 -2.8003e-20)
(1.26889 -0.185512 0)
(1.28873 -0.189186 -4.27001e-20)
(1.31367 0.0336138 -2.24837e-20)
(1.32564 0.0386736 -2.1454e-20)
(1.31314 0.0489745 6.65332e-21)
(1.02057 0.0219643 2.54296e-21)
(1.0211 0.0196828 0)
(1.00001 -0.0005979 -6.02517e-21)
(0.999994 -0.000371718 -2.926e-21)
(1.17353 0.00173286 -2.47392e-20)
(1.17704 0.00539183 -1.06413e-20)
(1.17922 -0.00124292 6.41443e-21)
(0.0759102 -0.487662 -8.5056e-20)
(0.0535523 -0.511682 3.78584e-20)
(0.0891212 -0.493519 -9.871e-20)
(1.07886 0.00664301 -6.01295e-21)
(0.989538 -0.0174535 -5.56136e-21)
(0.990022 -0.018512 0)
(0.990598 -0.0174355 0)
(1.0931 0.107249 1.36734e-20)
(1.08787 0.113868 -6.55976e-21)
(1.08496 0.106264 0)
(-0.29312 0.175441 0)
(-0.269083 0.201772 0)
(-0.261304 0.213356 9.50624e-22)
(1.25816 -0.473592 4.84349e-20)
(1.23582 -0.479094 -3.18174e-20)
(1.24625 -0.50354 4.87301e-20)
(0.996887 -0.00212815 -7.0019e-23)
(0.997098 -0.00220862 -9.38082e-21)
(0.701345 -0.129683 1.13616e-19)
(0.644587 -0.163657 8.74841e-20)
(1.00696 -0.0105395 -3.04003e-21)
(1.00739 -0.0108001 -1.75259e-21)
(0.996667 -0.0020421 1.42625e-20)
(0.999803 -0.00568289 0)
(0.999861 -0.00549861 1.40327e-21)
(0.999748 -0.00543486 0)
(0.0278521 -0.0982584 4.86148e-20)
(0.263182 -0.139784 5.35499e-20)
(0.0958092 -0.106301 -7.5192e-20)
(1.04843 -0.0429273 2.1274e-22)
(1.05002 -0.0402407 2.1159e-21)
(1.00023 -0.0043624 -2.54979e-21)
(1.00027 -0.00469739 1.11073e-21)
(0.988557 -0.00461147 6.46764e-21)
(0.988866 -0.00518353 -3.34617e-21)
(0.988183 -0.00507182 -5.09461e-21)
(1.47597 -0.0753948 1.65396e-20)
(1.43996 -0.0867504 -1.43469e-20)
(1.47084 -0.104329 2.23407e-21)
(1.16955 -0.00446864 -4.251e-20)
(1.17399 -0.0132769 2.49803e-21)
(0.9964 -0.00787688 4.41251e-21)
(0.995995 -0.00815429 -4.16285e-21)
(1.26506 0.0114658 -3.08139e-20)
(1.2639 0.0129817 9.40011e-21)
(0.988453 -0.0112773 1.98437e-22)
(0.989136 -0.0109984 0)
(0.989176 -0.0117609 -2.38049e-21)
(1.09118 0.121652 -2.18921e-22)
(1.10062 0.122822 6.14488e-21)
(1.04946 0.00599479 -1.30049e-21)
(1.04896 0.00382635 7.10248e-21)
(1.01637 -0.00410137 4.37109e-22)
(1.01591 -0.00413089 1.01685e-21)
(0.609171 -0.448404 -4.70167e-20)
(0.620971 -0.480888 2.2233e-20)
(0.579425 -0.47187 0)
(1.02793 -0.00144049 -6.79096e-22)
(1.02871 -0.00199844 -2.44997e-22)
(1.02763 -0.00238326 -5.37375e-22)
(1.26495 0.0328492 -3.81445e-20)
(1.27184 0.0446777 -5.67417e-21)
(0.778936 0.429182 -6.36464e-22)
(0.769356 0.426436 -8.15492e-22)
(0.777592 0.425779 1.95686e-23)
(1.03191 -0.00249601 -2.05409e-21)
(1.03253 -0.00343592 -9.97603e-22)
(1.03121 -0.00355294 -1.56508e-21)
(1.00463 -0.0050344 -3.1488e-21)
(1.00458 -0.00480552 -3.46307e-21)
(1.00439 -0.00489223 -1.57248e-21)
(1.00005 -0.0019197 0)
(1.00003 -0.00169911 0)
(1.00003 -0.00170587 0)
(0.989053 -0.016809 -2.17624e-21)
(0.988492 -0.0176791 -4.36443e-21)
(-0.406908 -0.00681813 -2.19971e-23)
(-0.358883 -0.0231172 -7.54938e-20)
(-0.43434 -0.00327994 0)
(0.445025 -0.257215 1.54012e-19)
(0.212121 -0.173193 -2.38154e-20)
(0.103981 -0.135317 0)
(0.0438733 0.00953253 -1.73446e-20)
(-0.0754536 -0.0878798 3.5584e-20)
(0.0261611 -0.0350482 9.4615e-20)
(1.00318 -0.00824799 0)
(1.00339 -0.00793934 0)
(1.24869 0.0266128 2.10304e-21)
(1.25339 0.0317827 1.52862e-22)
(1.08823 -0.3922 6.15004e-23)
(1.10753 -0.37423 -1.87925e-20)
(1.08272 -0.367661 1.29051e-20)
(0.594194 -0.56618 1.7599e-20)
(0.552489 -0.603178 3.35039e-20)
(0.552458 -0.536083 -5.93848e-20)
(0.995949 -0.00553969 2.15875e-21)
(0.996206 -0.00573464 -4.86446e-21)
(0.995813 -0.00591426 -2.76831e-23)
(1.05586 -0.0128141 4.12578e-21)
(1.05622 -0.0154349 -2.31006e-21)
(1.05365 -0.0138489 1.23641e-21)
(0.900608 0.162163 -8.15813e-20)
(0.902618 0.218365 5.83015e-20)
(-0.332995 0.133187 0)
(1.09617 0.157509 1.71469e-20)
(1.1091 0.159072 2.71552e-20)
(0.997119 -0.00329248 -5.52172e-21)
(0.997021 -0.00299907 1.0798e-21)
(0.998051 -0.00365079 4.45306e-22)
(0.998164 -0.00347315 3.91898e-21)
(0.998216 -0.00365503 -7.14734e-21)
(1.00487 -0.00516107 -3.41141e-21)
(1.13468 -0.000399434 -1.15935e-20)
(1.1315 0.0209255 -3.36709e-21)
(-0.117021 0.153402 4.96589e-21)
(-0.184507 0.158034 -4.37931e-21)
(0.77626 -0.38867 5.66104e-20)
(0.944941 -0.488523 8.89956e-20)
(0.803463 0.425204 1.62172e-20)
(0.803049 0.434742 -5.72079e-21)
(1.02113 -0.023695 -4.7507e-22)
(1.0199 -0.02305 6.11624e-22)
(1.02089 -0.0222696 -3.98929e-22)
(-0.151866 0.508088 4.8729e-20)
(-0.0693711 0.536987 1.56471e-19)
(-0.177856 0.557954 1.61919e-19)
(0.41318 -0.166416 0)
(0.390364 -0.182835 6.74833e-20)
(0.42301 -0.193319 0)
(0.926172 -0.0282006 2.37524e-20)
(0.924114 -0.0249609 -5.66546e-21)
(0.928264 -0.0245614 1.46052e-20)
(1.01896 0.00106273 -5.59825e-23)
(1.01912 0.000685267 4.92302e-22)
(1.01862 0.00066315 1.78589e-22)
(0.974457 -0.0498626 -7.54077e-21)
(0.975963 -0.0476376 -1.48524e-21)
(0.973133 -0.0470836 -8.39984e-21)
(0.200171 0.087647 -2.30982e-20)
(0.163607 0.0791216 0)
(0.18957 0.0463454 -1.81154e-19)
(1.01073 -0.00272981 -1.81941e-21)
(1.01097 -0.00274755 -1.26529e-21)
(1.01089 -0.00289397 -1.33879e-21)
(0.996579 -0.00978642 -3.2303e-21)
(0.996936 -0.00976143 4.72642e-21)
(0.999817 -0.00203026 4.82185e-21)
(0.999849 -0.00204741 -1.81922e-21)
(0.999865 -0.0018442 4.68978e-21)
(0.982259 -0.0112478 -2.7587e-21)
(0.9812 -0.0116355 -4.53613e-21)
(0.982184 -0.0123272 4.04822e-21)
(1.01687 -0.00286619 -2.27049e-22)
(1.01697 -0.00269152 4.4302e-22)
(1.0166 -0.0027031 1.2486e-21)
(1.074 0.022757 9.07276e-21)
(1.07756 0.0212189 1.23781e-20)
(1.07767 0.0252844 6.10285e-22)
(1.04986 0.0148521 -4.62661e-21)
(1.0522 0.0157027 2.51546e-21)
(1.04966 0.016951 1.11696e-20)
(-0.276829 -0.473801 2.03101e-21)
(-0.273874 -0.444973 4.70994e-20)
(-0.234813 -0.473879 -6.2525e-20)
(0.985796 -0.00359746 1.3898e-20)
(0.985205 -0.00403922 -1.04912e-20)
(0.986045 -0.00428848 3.18256e-21)
(1.08423 -0.0335686 -5.29018e-22)
(1.08077 -0.0317279 1.56044e-21)
(1.08098 -0.0360934 3.10242e-21)
(1.03123 -0.001646 0)
(1.03241 -0.00143776 0)
(0.977859 -0.0281422 -6.66196e-21)
(0.97779 -0.0261948 1.22986e-20)
(0.979459 -0.0274136 -7.9974e-21)
(0.858167 -0.595797 -7.25962e-21)
(0.814507 -0.600724 4.35194e-21)
(0.848061 -0.646465 -2.0844e-21)
(1.16674 0.00211105 -1.56266e-20)
(0.106651 -0.453798 -4.10919e-20)
(0.0574405 -0.483276 -3.00325e-20)
(1.00994 -0.00274668 1.26391e-22)
(1.00981 -0.00261817 1.35079e-22)
(1.00971 -0.00271672 -1.38529e-21)
(0.324506 -0.348052 -5.18596e-20)
(0.316003 -0.348175 -3.40822e-20)
(0.991022 -0.0628397 -4.31255e-21)
(0.991169 -0.0665374 -1.93116e-21)
(0.993108 0.0734003 2.40545e-21)
(0.988738 0.0784175 2.4219e-21)
(0.986626 0.0718556 -4.65422e-21)
(1.01825 -0.0142316 -1.69037e-21)
(1.01909 -0.0140115 7.40462e-22)
(1.28884 -0.159158 4.86696e-20)
(1.27226 -0.158561 -1.89526e-20)
(0.999576 -0.00364471 -6.44814e-22)
(0.999518 -0.00367684 7.56019e-21)
(0.759706 -0.0783413 3.96907e-20)
(0.769402 -0.0667475 -6.23014e-20)
(0.74986 -0.0634956 -4.9173e-20)
(1.16645 -0.0334777 -3.16139e-20)
(1.1691 -0.0413997 -3.77259e-20)
(1.0168 -0.00310699 -6.7217e-22)
(1.01728 -0.00300776 -6.28961e-22)
(0.346777 0.440661 -5.03761e-20)
(0.39629 0.419357 0)
(0.392671 0.474874 0)
(0.279992 0.244725 2.6475e-20)
(0.410814 0.357847 4.77345e-20)
(0.350973 0.307553 -1.10126e-20)
(1.11377 -0.092306 3.38693e-20)
(1.1118 -0.0844524 1.77669e-20)
(0.998542 -0.012852 -1.87518e-21)
(0.998261 -0.0124744 4.59264e-21)
(0.997967 -0.0129613 -4.21229e-22)
(1.13512 0.0512297 -1.95286e-20)
(1.13443 0.0452059 -9.32017e-21)
(1.14145 0.0468178 2.94091e-21)
(0.655608 0.485762 -1.65099e-20)
(0.612245 0.468757 1.45201e-20)
(0.706832 0.54147 3.55224e-21)
(0.776125 -0.104178 -3.13861e-20)
(0.766649 -0.090893 9.0926e-20)
(0.784937 -0.0938893 3.87314e-20)
(0.764259 -0.113977 -8.5724e-20)
(0.781867 -0.115323 -6.02501e-20)
(-0.398148 -0.339366 6.75583e-20)
(-0.437123 -0.359389 -1.05417e-19)
(-0.424144 -0.307119 7.39393e-20)
(1.10942 0.221829 7.29052e-21)
(1.0958 0.225063 -1.10226e-20)
(1.10676 0.236171 -1.08111e-20)
(0.998982 0.0734221 -2.83971e-21)
(0.996356 0.0679272 3.22155e-21)
(1.0675 0.0637082 1.78635e-20)
(1.07347 0.0615354 -1.30413e-21)
(0.431992 -0.146703 -8.32597e-21)
(0.399213 -0.138525 -4.73637e-20)
(1.01631 -0.000858748 -3.88867e-22)
(1.01627 -0.000648666 1.46855e-22)
(1.01601 -0.000820231 -1.92657e-22)
(-0.116154 0.407657 -2.18789e-21)
(-0.544245 0.0142153 8.66506e-20)
(-0.601427 0.0189022 9.12304e-20)
(1.01052 -0.00271655 1.35981e-21)
(1.01063 -0.00259156 1.93792e-21)
(0.999864 -0.00158975 -4.00902e-21)
(0.999848 -0.00155933 4.82756e-21)
(0.999891 -0.00133836 0)
(1.30311 -0.0549536 -5.60576e-20)
(1.31565 -0.0427688 -6.82955e-20)
(0.991953 -0.0129022 -1.39857e-21)
(0.992724 -0.0132091 -4.23761e-21)
(0.992014 -0.0137617 5.66928e-22)
(1.00006 -0.000852722 4.65346e-21)
(1.00008 -0.0010402 5.70196e-21)
(1.17495 0.150079 -3.10716e-20)
(1.18653 0.146613 -2.11514e-20)
(1.17492 0.139255 -3.79519e-21)
(1.19762 0.142349 0)
(1.1982 0.130542 0)
(1.21086 0.136784 0)
(1.02131 -0.0249469 0)
(1.0557 -0.010474 1.71211e-21)
(1.05792 -0.0119505 4.61043e-21)
(1.08777 -0.0353366 -2.49197e-21)
(1.08716 -0.0307549 -2.67624e-22)
(0.988658 -0.172806 -1.42398e-21)
(0.978722 -0.166576 -2.43793e-20)
(0.979245 -0.178557 9.60672e-21)
(1.05621 -0.00475607 -5.93982e-21)
(1.05382 -0.00482728 -1.28347e-21)
(1.05482 -0.00284379 5.80475e-21)
(0.995672 -0.00534434 1.8669e-21)
(1.10935 -0.144245 4.88542e-22)
(1.11147 -0.137383 -8.61377e-21)
(1.10275 -0.138853 3.89139e-22)
(-0.149632 -0.408254 1.73262e-20)
(-0.11209 -0.413154 -8.11483e-20)
(-0.129485 -0.445961 -6.45371e-20)
(1.01658 -0.0033803 -4.69909e-22)
(1.0163 -0.00312888 2.77141e-22)
(0.153183 0.119027 3.77794e-20)
(0.0871844 0.0589802 -5.78243e-20)
(0.00613448 0.0109016 6.80036e-20)
(0.999995 -0.000925942 -3.75239e-23)
(1.00001 -0.000633591 -1.11212e-21)
(1.00015 -0.00274716 9.60435e-22)
(1.00011 -0.00257078 5.3876e-21)
(1.0001 -0.00279316 -1.84584e-21)
(1.0085 -0.000397538 -4.40918e-21)
(1.00843 -0.000504434 -1.10031e-21)
(1.00862 -0.000516852 -7.14299e-22)
(-0.232168 -0.025654 0)
(0.994942 -0.00132194 -4.3562e-21)
(0.994653 -0.00150325 -5.08671e-21)
(0.994976 -0.00165967 3.21985e-22)
(1.47849 -0.0510648 5.30491e-20)
(1.52165 -0.0638041 -6.68782e-20)
(0.430756 -0.256182 3.72281e-20)
(0.499738 -0.224579 0)
(0.4694 -0.225375 0)
(1.00075 -0.00297985 4.6109e-21)
(1.00072 -0.0030499 -7.68281e-23)
(1.00084 -0.00321634 1.83251e-21)
(0.999654 -0.00337525 -2.45799e-21)
(0.999642 -0.00363422 1.04711e-22)
(1.35102 0.0599194 -5.10279e-20)
(1.32379 0.0485285 -5.28267e-20)
(1.33523 0.0405224 -5.16974e-20)
(1.00818 -0.000215973 -2.7953e-21)
(1.00843 -0.000216576 2.0048e-21)
(0.999957 -0.00115376 8.40748e-21)
(0.999962 -0.00117232 -4.49717e-21)
(0.999942 -0.00143782 -1.96694e-23)
(1.00895 -0.000285569 -1.06475e-21)
(1.00883 -0.000298033 0)
(1.00808 -0.000167854 1.76095e-21)
(0.389711 -0.294499 4.90224e-20)
(0.373356 -0.288814 -1.17681e-21)
(0.625797 -0.420016 -2.33721e-20)
(0.588034 -0.409809 -5.226e-20)
(0.94731 -0.055052 0)
(0.950349 -0.0521458 0)
(0.951453 -0.0565775 0)
(0.940552 -0.581282 2.33486e-21)
(0.951749 -0.542076 -6.45185e-22)
(0.982065 -0.569101 2.0517e-21)
(1.18115 0.0999517 4.09411e-21)
(1.18204 0.0908803 -1.17892e-21)
(1.17296 0.0948847 4.34294e-21)
(0.780948 0.435423 -4.3169e-23)
(-0.0703696 0.409303 7.47191e-20)
(-0.0625656 0.401591 -1.43188e-19)
(-0.077633 0.371478 -4.82457e-20)
(1.03325 -0.00444152 1.98255e-21)
(1.03401 -0.00316478 1.01952e-21)
(0.0198899 -0.631067 2.46677e-20)
(0.00401777 -0.492887 4.32156e-20)
(0.0580226 -0.453106 0)
(1.00002 -0.000605105 -2.94626e-21)
(1 -0.000896326 0)
(1 -0.0005722 0)
(0.593419 0.428163 -6.13011e-21)
(0.69699 0.492237 -7.28491e-21)
(0.453483 -1.10932 1.55458e-20)
(0.212689 -1.04029 -2.03594e-20)
(0.433607 -1.177 -1.40433e-22)
(-0.545617 -0.428515 1.45557e-19)
(-0.456357 -0.393203 -6.58891e-22)
(-0.527021 -0.409872 -1.2741e-19)
(0.592101 0.0481648 2.42989e-20)
(1.11288 0.209615 2.64712e-20)
(1.12192 0.219341 -2.50787e-20)
(1.04421 0.0079598 0)
(1.04602 0.00874539 2.57198e-21)
(1.1458 -0.0103519 1.2724e-21)
(1.14864 -0.016602 0)
(1.05002 0.0125131 -7.50917e-21)
(1.04773 0.0140924 -4.7953e-22)
(1.01882 0.00142577 -2.53588e-22)
(1.01856 0.00179841 -2.99771e-23)
(1.01827 0.00132148 7.1736e-23)
(1.03045 0.00202645 -7.27532e-22)
(1.03116 0.00266622 0)
(1.02999 0.00305066 0)
(0.903752 -0.587508 -2.30387e-21)
(0.870655 -0.55681 -1.19347e-22)
(0.935634 -0.0679403 1.64978e-20)
(0.931952 -0.063642 1.49909e-20)
(0.999653 -0.00318573 3.59666e-21)
(0.999691 -0.00314576 -2.139e-21)
(1.00001 -0.000145831 -4.08274e-21)
(1 -6.58628e-05 3.00656e-21)
(1 -7.11156e-05 -4.57077e-22)
(1.01016 -0.0027929 0)
(1.01005 -0.00290722 0)
(1.01109 -6.01523e-05 1.23775e-21)
(1.01089 -0.000131712 -5.67804e-22)
(1.01139 -0.000152783 2.51085e-22)
(1.01688 -0.00356808 5.1657e-22)
(-0.0746574 0.32464 9.5689e-20)
(-0.0780393 0.342102 8.05193e-20)
(-0.0835794 0.312354 4.96757e-20)
(1.00477 -0.00628739 -5.8543e-22)
(1.00498 -0.00617657 1.38127e-21)
(1.00472 -0.00603815 3.25849e-22)
(1.01701 -0.0130754 -2.10972e-21)
(1.01628 -0.0129532 3.64728e-23)
(1.01662 -0.0136716 -1.52881e-22)
(1.01085 -0.000151164 5.47698e-22)
(1.01077 -0.000154876 -1.11943e-21)
(1.01131 -0.000139993 0)
(1.00303 -0.00729554 1.42106e-22)
(1.00331 -0.007379 -1.76446e-23)
(-0.0488197 -0.543466 -3.33843e-20)
(-0.0567967 -0.523309 8.3793e-21)
(-0.0303146 -0.546934 -2.82145e-20)
(1.27013 -0.446073 2.83414e-20)
(1.28848 -0.478543 -8.93636e-20)
(0.703338 0.058743 4.85992e-20)
(0.70743 0.0436997 0)
(0.688156 0.0465444 3.33041e-20)
(0.957806 -0.0164016 6.13424e-21)
(0.956633 -0.0182343 0)
(0.955452 -0.0155775 -1.07111e-20)
(1.10133 0.108346 1.07844e-20)
(1.09735 0.101432 7.39302e-21)
(1.00928 -3.47606e-05 4.50532e-22)
(0.894613 0.319167 4.84723e-21)
(0.9038 0.304151 7.23928e-21)
(0.884269 0.303759 0)
(-0.0981782 -0.0672419 9.92389e-20)
(-0.0138998 -0.0833015 7.63471e-20)
(0.994403 -0.0020542 -1.10284e-20)
(0.994739 -0.00218827 -1.05848e-20)
(0.578842 -0.174048 0)
(0.538745 -0.207736 0)
(1.07301 0.0496248 1.11245e-20)
(1.07482 0.0450003 0)
(1.06939 0.0466126 -1.55335e-21)
(0.993786 -0.00340872 -1.62814e-21)
(0.993442 -0.00327863 -3.61866e-21)
(-0.0246617 0.0159533 9.45366e-23)
(0.906077 0.334022 -1.00048e-20)
(0.997981 -0.005525 -6.80869e-22)
(0.998047 -0.00539523 7.61639e-23)
(1.10526 -0.153055 -8.0321e-23)
(1.11648 -0.151577 1.05786e-20)
(0.389514 0.551992 -2.97636e-20)
(0.391966 1.13585 4.90795e-20)
(0.98183 -0.0249487 -7.02459e-21)
(0.983374 -0.0253012 2.44546e-23)
(0.982863 -0.0237674 -1.02492e-20)
(0.844609 0.0101887 1.19737e-20)
(0.851876 0.00643695 -9.61694e-23)
(0.845187 0.00174844 -4.01266e-20)
(1.01727 -0.0123711 -1.64689e-21)
(0.977702 -0.0245083 2.6347e-20)
(0.978928 -0.0236464 3.48831e-21)
(0.977383 -0.022818 4.68117e-21)
(0.57563 0.373972 -1.27964e-20)
(0.528941 0.356286 -3.16475e-22)
(0.444622 0.270734 0)
(0.931468 -0.188318 1.03943e-20)
(0.936146 -0.177136 1.08624e-20)
(0.922084 -0.179742 -9.02702e-21)
(0.999244 -0.00819128 -2.97682e-21)
(0.998945 -0.00823344 4.74315e-21)
(0.99673 -0.00318372 1.60113e-21)
(0.99697 -0.00336929 4.34572e-21)
(0.996815 -0.0034403 8.84814e-21)
(0.959091 -0.0143586 7.90651e-21)
(0.960107 -0.0169654 -6.7892e-22)
(1.18507 -0.382927 -3.19305e-21)
(1.15989 -0.383086 4.32494e-20)
(1.17191 -0.361008 5.03826e-20)
(0.0793257 -0.21138 3.31389e-20)
(0.113711 -0.228317 3.28348e-20)
(0.0835687 -0.259433 -1.62124e-20)
(0.9943 -0.00729402 -6.75507e-21)
(0.994777 -0.00706757 -2.18151e-21)
(1.0049 -0.00564047 0)
(1.0047 -0.00575169 -3.23036e-21)
(1.02086 -0.00538296 -1.27149e-22)
(1.02066 -0.00487075 -3.27752e-22)
(1.02133 -0.00509626 -7.40727e-24)
(-0.443365 0.0125865 -1.25318e-19)
(-0.389543 -0.00673201 6.91219e-20)
(0.00739885 -0.632192 -1.63709e-20)
(-0.000165149 -0.650212 2.73443e-20)
(-0.175814 -0.0435756 -6.15592e-20)
(-0.0293859 -0.0541481 6.4519e-20)
(-0.111692 -0.0575792 -6.20671e-20)
(1.01629 -0.00105387 5.80481e-23)
(1.01627 -0.00124702 -2.49598e-23)
(1.016 -0.00118816 2.79478e-22)
(0.942194 -0.196786 -3.63079e-21)
(0.925781 -0.201571 -1.06543e-20)
(0.845503 0.0192268 2.26224e-20)
(0.837212 0.0155378 1.15617e-20)
(0.902642 -0.780684 1.37869e-21)
(0.848307 -0.803556 1.39429e-20)
(0.910487 -0.844249 2.15734e-20)
(1.16615 0.0678776 6.47214e-21)
(1.16813 0.0731205 1.63839e-20)
(1.17391 0.0671791 1.42016e-20)
(1.01554 -0.000112966 -2.65375e-22)
(1.01583 -5.98271e-05 -2.89802e-22)
(1.01559 -0.000274358 -3.06982e-22)
(1.01674 -5.94093e-06 1.38862e-24)
(1.01682 -0.000243017 -8.2627e-24)
(1.01711 2.30849e-06 -8.02978e-24)
(1.0211 -0.0059562 -2.4423e-22)
(1.02034 -0.0056661 4.13516e-22)
(1.13959 -0.00998984 -1.10345e-21)
(1.14284 -0.00452677 -2.08892e-20)
(0.997031 -0.0293841 -1.06422e-22)
(0.998367 -0.0301064 5.17005e-21)
(0.997004 -0.0310357 1.80165e-21)
(0.170526 0.120039 -4.56676e-20)
(0.121537 0.135501 8.02159e-20)
(-0.00191849 0.13016 -9.81228e-20)
(0.998938 -0.00439807 -1.52823e-21)
(0.998833 -0.00438419 -2.04881e-21)
(0.998873 -0.0046549 0)
(1.00845 -0.00937405 1.24761e-21)
(1.00854 -0.00978789 4.34107e-22)
(1.00891 -0.0095715 3.13652e-21)
(0.838418 0.539803 9.09911e-21)
(0.844158 0.569683 1.48866e-20)
(0.823102 0.547423 2.55029e-20)
(-0.0691297 0.29941 1.6211e-20)
(-0.0728516 0.340094 1.28214e-21)
(0.307282 -0.364774 1.25904e-20)
(0.26764 -0.389907 2.28858e-20)
(1.01077 1.22057e-05 0)
(1.01121 -0.000196799 3.44973e-22)
(-0.619233 -0.373073 7.91784e-21)
(-0.581017 -0.333745 9.80063e-21)
(0.999547 -0.0759089 4.3947e-21)