/*--------------------------------*- C++ -*----------------------------------*\
| =========                 |                                                 |
| \\      /  F ield         | OpenFOAM: The Open Source CFD Toolbox           |
|  \\    /   O peration     | Version:  v2012                                 |
|   \\  /    A nd           | Website:  www.openfoam.com                      |
|    \\/     M anipulation  |                                                 |
\*---------------------------------------------------------------------------*/
FoamFile
{
    version     2.0;
    format      ascii;
    class       volScalarField;
    location    "1000";
    object      ddt0(k);
}
// * * * * * * * * * * * * * * * * * * * * * * * * * * * * * * * * * * * * * //

dimensions      [0 2 -3 0 0 0 0];


internalField   nonuniform List<scalar> 
10042
(
0.000470371
-0.0103007
4.12317e-07
-1.13356e-07
1.68605e-07
-0.00811772
-0.024312
-0.00125325
1.24722e-07
-1.64814e-06
0.000566468
-0.00643896
1.20063e-06
1.98916e-07
-2.21241e-07
1.74522e-07
-0.0069361
0.000962519
2.21404e-07
-3.99579e-07
1.20884e-06
0.000495236
1.61928e-08
0.00421551
9.47447e-08
-3.82344e-08
-2.39496e-06
4.17043e-08
-0.00874131
0.00458342
-1.06088e-07
1.1079e-06
1.37205e-07
1.58387e-07
-0.0013534
-0.0020724
1.82237e-07
-6.38909e-08
9.71259e-09
1.18372e-06
0.0043204
1.39829e-07
-2.8844e-05
-6.77153e-05
2.58371e-08
-3.45946e-08
-3.68574e-08
-2.82316e-07
2.09232e-05
-0.0499255
5.72145e-06
9.47639e-10
-0.00729487
1.37229e-07
-0.0245015
-0.0109678
1.076e-06
0.000260075
-2.70973e-07
-4.8974e-09
2.28539e-05
-0.0218182
-7.60858e-06
-0.000257358
-3.64835e-05
2.65167e-07
-1.81895e-07
-0.000594574
-2.8538e-08
-0.000617864
0.00024876
-8.43125e-07
-1.5225e-07
-2.61877e-07
2.53062e-07
3.40807e-05
1.75066e-06
-3.5978e-08
3.01183e-06
2.52869e-07
3.23717e-05
0.0049343
-2.47273e-07
-7.61857e-08
-3.01583e-07
-0.00240702
-3.18097e-08
-5.18551e-06
-3.38995e-07
4.59778e-06
7.08768e-07
-1.84957e-07
-2.17235e-05
-0.00790945
0.000196218
-3.77223e-08
0.001705
-1.89333e-07
0.000549691
-2.98658e-07
6.99766e-07
0.000343198
-2.81094e-07
1.02794e-06
2.68386e-07
-3.23864e-07
-0.00219173
1.93284e-07
-0.0172342
-2.67588e-07
-3.55302e-07
-0.0185167
0.00021123
-0.000279307
-3.29969e-05
-3.92002e-08
-4.74618e-05
-5.15277e-08
0.000129411
-2.00309e-08
-5.42092e-09
-0.0113709
-0.0128125
-6.22395e-08
-1.58013e-06
-3.55435e-07
-2.87806e-07
-0.0242455
-3.29371e-07
-4.94189e-05
2.60529e-08
-9.16979e-08
-6.92411e-07
1.10436e-07
-0.0147879
-0.00363348
1.80977e-07
0.0536024
-7.0847e-08
0.00157958
-1.37216e-06
7.03715e-08
0.00261267
4.06333e-08
-7.79116e-07
-7.79404e-08
-1.57519e-06
-2.26662e-08
-2.30789e-07
-0.00553246
-1.26854e-09
8.99976e-08
-2.27644e-07
1.26189e-06
0.000131042
-1.17687e-06
2.72713e-06
-0.0113704
-6.57712e-07
-4.37337e-08
7.46439e-08
1.02755e-07
0.00233154
-2.69691e-07
-1.68429e-07
-0.00522464
-1.44885e-07
1.11111e-06
-0.00195799
1.36193e-07
-0.000537244
0.00352703
-0.0135747
1.58351e-07
1.27287e-07
-0.0138917
8.72678e-08
-7.31414e-08
-8.66073e-08
-1.83145e-08
-1.32603e-07
3.40633e-07
-2.5552e-07
-4.79347e-08
-0.00012273
7.36801e-07
-8.84563e-07
3.17666e-09
-0.00450397
4.40247e-08
-0.00363324
1.06775e-06
5.4509e-08
2.65236e-07
-0.0124703
-1.82587e-07
1.21552e-05
-0.00203537
0.00502549
-6.15057e-08
-3.45117e-06
4.65355e-06
-0.000864546
-6.54539e-08
0.000911174
-5.50633e-07
0.000290883
1.3433e-06
-4.38586e-07
1.76944e-07
1.18483e-06
-5.50198e-08
-0.000226826
-0.00293515
1.21608e-07
-0.000231145
-5.60612e-08
-0.0101046
-1.57217e-07
-3.97864e-07
-0.000165346
-0.000536114
-0.000565348
-0.000232469
-1.37896e-07
8.08551e-06
-2.04089e-07
3.03519e-07
1.16995e-07
-3.454e-07
-4.57549e-08
-4.10135e-07
7.85833e-07
-1.65713e-07
1.18338e-07
-0.00168313
4.87382e-07
0.00263398
-8.82346e-07
0.00309444
-0.00311985
0.00172934
-9.29407e-09
-1.24842e-06
-0.0143559
1.67953e-07
0.00205368
-1.14659e-06
-2.91842e-07
1.32297e-07
2.26933e-07
6.17204e-08
-0.00129004
-0.0206737
-1.02913e-07
4.34451e-07
4.24961e-08
3.93653e-08
-0.000609
-1.28007e-07
-1.47331e-06
-3.8351e-08
-1.39837e-09
-3.84718e-08
1.24365e-06
-0.0219987
-5.9454e-06
0.00128401
-3.97558e-07
-4.84711e-07
-2.55367e-07
-0.0360685
3.41431e-07
0.000433806
2.31652e-09
-8.06853e-06
-1.54705e-07
1.18918e-07
-4.02678e-07
-0.0149401
6.85583e-08
-0.000132563
1.36283e-05
-4.28575e-09
6.81481e-07
-0.00550303
-5.81225e-05
-3.65529e-08
0.00049636
1.15632e-07
1.05147e-06
-6.95584e-06
1.28603e-07
0.000227415
-3.36894e-05
-3.26864e-08
0.000148987
3.12195e-07
-2.38177e-07
-5.38755e-08
-2.38899e-07
-0.0014273
1.68413e-09
-0.0062427
-5.18731e-05
-0.0234909
4.20197e-07
-4.93533e-06
0.000164429
-0.00019669
4.1351e-08
-2.6487e-08
2.25361e-08
-1.34128e-08
-2.15286e-06
0.000405213
-3.24459e-08
-0.000290874
0.00214501
-3.80629e-08
1.31856e-07
0.000240946
1.44209e-07
0.000296216
6.02904e-05
1.1233e-07
-4.88943e-05
-1.37515e-07
4.06113e-07
9.51078e-07
-5.51193e-07
-2.85678e-07
0.000289051
-6.1003e-08
0.000919211
0.000646926
0.00423741
0.000238616
1.17903e-07
-0.00447407
-1.25786e-07
1.1441e-06
-1.05257e-08
2.48535e-05
-2.98051e-08
-3.8162e-08
2.09136e-07
3.09546e-08
1.45192e-07
0.00458188
-2.41501e-07
0.000163955
2.92818e-08
-7.68858e-08
-0.0212749
-0.000112469
-2.07295e-07
-2.82712e-07
4.45386e-06
1.45896e-07
-3.38953e-07
2.1922e-07
-1.89267e-07
0.00217174
-0.00394404
-1.17022e-07
-5.87564e-08
-6.92129e-07
-5.78246e-07
0.000378612
-7.10984e-10
-2.47612e-07
3.72327e-07
-1.82881e-07
-0.000423218
4.13998e-07
4.08308e-05
0.00402548
-0.015502
-0.00272025
-2.43032e-07
0.0014431
-1.44087e-07
-1.03351e-07
1.36591e-06
-2.06173e-08
5.59124e-08
-4.60417e-08
-5.34662e-07
-4.0197e-08
9.3097e-08
-0.0317905
-2.67944e-07
-0.000156242
-0.00562838
-0.0218558
-5.07967e-08
-0.000871971
7.42583e-07
1.17848e-06
-2.95179e-08
-0.00376957
2.15425e-07
-0.0231967
-0.00350116
1.49917e-08
2.23476e-06
2.76419e-07
-0.00363885
5.35073e-08
0.00937526
1.39866e-07
0.00167663
-3.73768e-07
0.000766396
5.42685e-07
-1.05046e-06
-0.00711432
-2.72932e-08
6.50836e-07
3.4392e-08
-0.00625228
1.50246e-08
-4.01362e-08
-1.0846e-06
1.13571e-06
1.5807e-06
0.0106933
-1.31369e-07
1.16575e-06
1.30743e-06
-2.78567e-08
5.57547e-08
-0.00200777
-6.19567e-07
-3.10972e-07
0.0250854
7.62012e-05
1.13705e-07
-0.0131258
3.78648e-08
2.39944e-06
5.13786e-07
-0.00414889
-0.0096845
-1.59499e-06
0.000738196
-0.00232859
-0.000513681
-2.20182e-08
-4.7766e-05
1.97738e-05
1.17907e-05
1.43776e-06
1.01817e-07
2.24443e-07
-9.84323e-06
-0.0212461
-5.64134e-08
8.89788e-08
1.07254e-07
2.11998e-08
1.00907e-06
1.46391e-06
-5.1463e-07
-3.50369e-08
0.000677023
-6.93741e-09
5.27054e-07
-0.000355939
-0.00397344
8.24011e-08
-0.00564393
0.0196143
-0.00657686
-8.94142e-08
5.37707e-07
1.42503e-07
-0.0232313
-2.28167e-07
-0.00112451
-3.971e-07
0.000818747
7.54881e-08
2.47063e-07
7.95273e-08
-2.90697e-05
0.00528081
6.71913e-08
-9.44259e-08
8.15409e-08
-3.48435e-05
-3.36975e-08
-0.000343946
5.94543e-06
4.00978e-06
3.57256e-08
-0.000401046
-0.000144932
-0.00466335
-3.0852e-07
-4.67771e-08
0.00178766
-5.06266e-06
2.01825e-06
-0.00531028
3.72261e-08
-0.000295246
-1.41269e-06
-1.58654e-06
-1.09554e-06
0.000188938
5.01708e-08
5.24942e-08
-3.67134e-07
-0.000832656
-2.355e-07
-0.00132775
-2.46707e-07
-2.45564e-07
9.08539e-08
-1.15852e-06
-0.00527997
-3.09906e-07
-3.22866e-07
-0.00234549
-0.00162353
1.41061e-08
-3.24906e-07
9.04029e-08
-0.000334108
-0.0131599
-3.0423e-07
-1.5849e-08
2.59228e-06
-8.00338e-08
-2.13586e-09
5.88327e-05
2.61626e-08
-0.0163519
-6.21913e-08
2.38032e-06
-4.91991e-06
-0.00145914
-2.54843e-07
5.76851e-07
-2.4393e-07
-1.25058e-07
-0.00501174
-1.08519e-08
0.00470492
2.07778e-06
1.06678e-07
-1.3057e-05
0.00614694
-0.0116771
0.000111492
-5.93563e-09
-3.06788e-08
-3.19744e-08
1.34177e-06
-2.75852e-05
-2.79324e-07
2.36556e-06
5.55935e-08
4.63787e-10
0.00117717
3.18489e-07
-3.28937e-05
1.50769e-07
4.80724e-08
0.000458835
0.00190127
-9.0161e-06
-0.00131191
-2.17467e-07
6.08465e-07
-7.61332e-08
1.07391e-07
1.43265e-07
-2.12447e-08
-3.6202e-07
2.18369e-08
-0.00524756
-4.50873e-07
0.000887305
-2.06853e-08
-2.52729e-06
-3.30321e-08
3.33599e-07
-0.00624274
8.07951e-08
8.26972e-08
1.38456e-05
-0.000553281
-2.7276e-08
-0.0166677
-8.10844e-08
0.000432133
-6.93609e-08
3.74426e-08
-6.87431e-08
-3.09716e-06
-2.85485e-08
1.12334e-08
4.33348e-07
-0.0134161
-2.1753e-07
3.27192e-08
-6.59324e-08
-3.74551e-06
2.60465e-08
1.28922e-07
6.33765e-08
8.9208e-08
-9.64168e-07
1.01373e-07
-3.22542e-06
-1.26845e-07
-0.00287288
3.98303e-05
0.00332766
1.41837e-07
2.77071e-07
-1.62724e-07
3.63679e-06
5.04148e-07
0.00295995
-0.000732993
0.00294494
0.000345637
0.00195122
-2.58476e-07
-2.53844e-07
-0.00152565
-7.12999e-06
-3.68838e-05
1.7476e-06
-3.75689e-07
0.00161336
-1.64312e-07
-3.73165e-07
6.62513e-08
-5.2504e-08
4.39405e-09
-0.00184575
-3.47712e-08
-3.55434e-08
-0.0403056
2.1207e-07
1.15571e-05
1.15297e-06
6.2376e-08
2.57614e-05
7.80711e-09
0.00131224
-3.77447e-07
8.32e-08
9.29789e-05
-2.85727e-07
7.25478e-09
-1.01386e-07
-2.22488e-07
-1.1732e-07
0.00176455
0.000203535
2.59124e-05
-2.35896e-07
-2.21405e-07
-2.14598e-07
0.00175125
-7.39626e-07
1.57245e-07
-7.88842e-08
5.17697e-08
0.00204573
-0.0628505
-7.29028e-06
-9.47713e-08
-1.55301e-07
-0.00397563
5.94494e-07
1.36372e-06
1.41431e-07
-0.00129554
-0.0228182
0.00201546
-1.66166e-07
-5.86794e-08
-3.76283e-07
0.000635133
-2.70764e-08
3.48845e-07
-6.73769e-07
-1.42282e-08
2.2902e-05
-9.68405e-07
-2.62119e-05
-4.57331e-06
-4.13952e-08
4.01384e-08
-1.89663e-08
2.031e-05
-4.51148e-08
0.000604583
-8.72026e-07
-0.0188111
-1.43857e-07
-1.01275e-07
7.79501e-08
3.59487e-08
-1.6105e-07
-1.45007e-07
-2.34266e-07
-3.56368e-07
-0.000172813
2.77347e-07
0.00337399
-2.09192e-07
2.66197e-06
-0.00023838
6.10166e-07
-0.0124102
1.17636e-09
2.86681e-07
-5.00923e-07
4.08405e-08
-0.00339689
-6.1046e-07
1.51602e-07
9.06587e-08
-0.0275054
-1.77882e-07
0.000669299
1.54442e-06
-2.40156e-07
0.00104926
-2.03444e-05
9.13636e-07
-2.17773e-07
1.77302e-06
-2.30762e-07
0.00512225
-7.66079e-05
4.60549e-06
-0.000136666
-2.39494e-07
-3.69564e-07
3.21209e-07
-1.23506e-06
-1.08991e-05
-3.66142e-05
-0.0202068
-2.15167e-08
-6.32885e-08
7.68006e-07
1.28906e-06
-2.183e-07
-0.00160726
-2.29812e-07
-3.78198e-07
-0.000557177
-1.73649e-07
1.30855e-06
-1.46747e-06
-1.45345e-07
0.000694929
-1.57314e-06
-2.05004e-07
-9.56598e-07
-1.2296e-06
4.24128e-07
-0.0220006
-3.85296e-07
-2.47283e-06
3.79407e-07
2.00515e-05
-7.81065e-07
-1.65641e-06
8.22399e-06
-2.81554e-07
1.18116e-06
4.50334e-08
-1.53643e-06
1.19889e-07
-3.14243e-07
-6.48707e-08
-1.45504e-07
-1.12805e-07
2.71009e-06
-5.12373e-08
-2.59398e-07
-0.000287599
7.44686e-09
-1.7288e-07
-8.06251e-08
-3.0237e-08
4.59069e-06
1.77975e-06
1.61693e-08
6.59945e-05
-0.000378639
-1.49854e-07
5.84519e-05
0.00568808
5.96765e-08
-3.49055e-07
-1.34932e-08
-0.00619953
-0.00035044
2.09577e-07
-6.61227e-08
-4.01758e-08
-0.0223162
-0.048711
-9.89991e-07
-0.00568879
-0.00510107
0.00384029
1.47788e-06
-1.86699e-07
-1.0344e-06
0.00117915
6.5566e-06
-4.36349e-07
-0.0206478
2.01369e-05
0.00059906
-0.00310249
2.46524e-07
-4.29161e-06
0.0049386
2.61071e-06
-0.0191672
-1.26926e-06
-0.0151465
1.10774e-07
0.00234271
-2.81401e-07
4.34463e-05
-5.76267e-08
8.45095e-06
9.13792e-09
-4.16416e-07
7.44026e-08
-0.00543101
-4.72001e-07
-3.26956e-08
0.000428306
-1.77158e-07
6.26624e-07
-1.00559e-06
-1.97766e-05
-1.92883e-08
-4.33374e-07
3.51955e-07
-5.34583e-07
1.91688e-07
4.33665e-07
-4.00511e-08
0.0247473
8.70564e-06
1.01873e-07
-5.64012e-07
1.69091e-05
-8.54838e-08
2.00104e-06
0.000108369
-7.74756e-06
8.9669e-08
-3.55939e-08
-5.10422e-07
7.79387e-08
-0.01202
6.85495e-07
-2.2023e-07
7.52417e-05
1.10023e-07
-4.70133e-08
0.00196567
-1.36531e-08
-7.18747e-08
-0.000431679
-7.25716e-08
4.911e-06
-5.56193e-08
-7.98735e-07
5.86879e-07
5.8952e-07
-1.98645e-05
-6.52945e-09
-0.00469569
-0.00441023
8.33582e-08
-1.27612e-06
-7.48595e-06
0.0317154
-0.0123071
-3.76782e-08
-8.70197e-08
-1.57619e-06
-3.46499e-07
2.31798e-06
0.00133636
2.77148e-07
-4.94825e-08
1.06842e-06
-0.00614564
-0.000289717
-3.64105e-08
-1.046e-08
-4.54867e-08
-3.33946e-07
-0.00782802
0.00172136
2.29247e-07
4.30737e-07
2.35081e-05
4.33735e-07
-1.74869e-07
-0.0229205
-7.52627e-07
-2.21994e-05
-1.37298e-06
3.58219e-08
-2.75375e-07
5.42243e-07
1.8728e-06
5.18299e-06
2.27515e-07
0.00329378
-0.0110535
1.71862e-05
9.34858e-08
-8.88211e-07
-0.0150649
1.15954e-06
-0.00248168
9.12241e-07
-2.35139e-07
-1.8292e-07
-5.66312e-05
-0.00942233
7.39149e-07
4.01e-07
1.10453e-06
1.06348e-07
-2.40721e-06
8.92916e-07
-2.54167e-07
9.45894e-08
1.06824e-06
-1.22881e-07
9.99628e-08
0.00172776
2.80803e-07
-9.51425e-08
1.48765e-06
4.54722e-07
0.00177272
-5.47797e-08
2.70732e-07
-5.1462e-05
1.05841e-07
-5.48096e-08
4.98502e-07
0.00152141
4.8223e-08
1.19515e-07
4.91716e-07
3.23202e-06
-3.22766e-07
-9.91606e-07
-2.01184e-07
8.24124e-07
-4.39663e-08
-0.0246828
3.85506e-07
-0.000581212
-3.00971e-07
-3.92894e-08
-4.01244e-07
-2.64866e-07
1.97944e-05
0.00349169
-0.0320897
8.13937e-08
1.18275e-06
0.000175372
0.0002731
8.15476e-06
6.1132e-08
0.00162718
1.05747e-07
-1.41628e-05
9.09912e-06
1.90093e-06
-1.98347e-07
1.21876e-08
-2.13413e-05
0.00231872
6.95721e-05
-2.34069e-07
-7.5561e-07
4.83805e-07
0.000175328
1.0086e-07
-2.06932e-07
1.38566e-06
1.33268e-08
7.69919e-08
0.000359558
-7.91012e-07
-0.0118527
1.49169e-07
-1.66904e-07
-3.8573e-08
7.48061e-09
-9.25933e-07
-5.93725e-07
0.0141156
5.63569e-08
4.98533e-07
0.00159077
-3.85016e-07
-2.23171e-05
1.34186e-07
4.6538e-06
0.0020167
9.01612e-07
-0.00593629
-4.12757e-07
-3.23996e-07
-1.00812e-05
7.80916e-08
-2.96158e-07
-2.27249e-08
8.98675e-08
-1.96138e-07
4.40659e-05
-3.58819e-07
-0.000786413
-0.00280709
0.00148659
1.77349e-06
0.00216852
1.37277e-07
4.76617e-05
1.18514e-07
7.01282e-07
-2.34916e-07
9.56475e-08
-4.79275e-07
-0.00950099
-0.000463929
6.33967e-08
0.00246271
-1.47785e-07
-0.0117994
-5.95585e-08
-9.44375e-07
-7.93028e-06
0.000112784
0.00198143
-1.81254e-07
-4.2808e-08
-0.0490856
1.62981e-06
-2.25269e-05
-1.49778e-05
0.00220377
-7.00079e-07
-0.00205401
-0.00789269
4.05211e-08
4.91517e-08
-1.85708e-07
-1.28941e-06
-8.78938e-09
-4.40127e-07
-1.3653e-07
5.54409e-07
-7.0214e-07
3.1451e-07
1.12938e-07
-0.000110457
0.00292482
-1.8408e-08
0.00735441
-1.57574e-07
1.14072e-06
1.18001e-06
1.96511e-06
-9.13838e-08
1.36328e-06
6.11612e-07
-7.87409e-08
2.80137e-06
0.00157945
-1.76946e-07
6.62724e-08
-5.51086e-08
0.00259109
-0.00249258
2.0312e-07
-0.00232941
9.95856e-08
-3.33475e-07
-0.0388233
1.86794e-07
-1.79553e-07
-1.02011e-07
-3.22266e-08
2.18087e-06
-0.000113868
-1.71229e-07
8.7223e-08
9.051e-08
1.74085e-07
-1.08674e-07
-0.00111044
-3.21506e-08
7.87921e-08
-0.0225775
0.000892954
1.86109e-07
0.00207126
-1.07341e-07
0.00445119
3.81692e-07
-3.48643e-06
1.17606e-08
0.00501672
0.00382941
0.00611849
-2.32378e-07
0.000106342
0.000864408
0.000752267
-9.8715e-07
0.000648328
1.00632e-08
0.000135309
0.00180074
3.32977e-07
-2.74596e-06
4.3721e-05
-0.00379531
-0.00857066
0.000526129
0.00100862
-2.48813e-08
-9.0029e-08
0.000792021
3.50944e-06
8.2234e-08
-0.00190805
1.14676e-07
-2.77574e-08
4.35585e-07
5.88415e-05
2.95981e-06
3.18682e-09
-3.43678e-06
-1.25946e-06
0.000552682
-1.22406e-07
7.09224e-08
2.0367e-09
-0.00410993
0.000369492
-1.34497e-06
-0.000194078
-3.34383e-07
-1.4718e-08
8.43232e-07
0.00166719
-1.66912e-07
1.20038e-08
3.00258e-05
0.000483471
1.06875e-06
-2.93362e-05
-2.81982e-08
1.07952e-06
3.37847e-07
4.31984e-08
0.000467932
0.00119938
-5.448e-08
-8.94338e-08
4.47771e-08
-0.00239774
1.19313e-07
9.12057e-05
-0.000731451
4.0338e-08
-2.18177e-07
8.80079e-09
3.68026e-07
-6.9381e-08
-2.08295e-05
-2.27536e-06
1.23736e-05
0.000170379
-6.71292e-07
6.70334e-07
0.000399134
7.74872e-07
-1.71384e-06
6.59866e-08
-2.38196e-07
-0.054758
9.76315e-05
-1.77882e-07
-1.12178e-06
-3.99254e-06
0.000343887
3.06231e-07
-2.05895e-07
1.34787e-07
1.44974e-07
-2.17667e-08
2.75267e-05
-5.7579e-07
1.27707e-07
0.000339103
1.88093e-06
-1.27988e-06
-0.000200659
-0.00249094
0.000772007
6.22101e-08
-2.84339e-08
-0.00175744
-4.6269e-08
0.0254733
0.00159548
-5.4381e-05
-0.000825614
-5.06004e-07
-9.60872e-08
-0.0226377
0.00111757
-8.16596e-08
-0.00595806
-1.96343e-07
-1.74179e-08
1.35602e-06
-7.01598e-08
2.52712e-07
1.37867e-06
-1.31472e-06
-1.12923e-07
-1.05357e-07
-2.56842e-07
1.06615e-07
0.00121172
8.95052e-07
0.00014839
1.31054e-09
5.60681e-07
-1.27671e-07
-1.71776e-07
0.000513381
-1.70393e-07
0.000473587
0.000468999
-5.99952e-07
-0.00564794
9.28769e-07
-0.00121126
-2.56186e-08
0.000239836
1.285e-06
2.04507e-06
-9.7481e-07
-7.64845e-08
1.03762e-07
0.00333866
-1.3766e-06
0.000432556
1.11316e-06
1.39197e-07
-0.00466815
8.24666e-10
0.00554867
-1.92687e-07
0.000686522
-2.95992e-07
1.89349e-08
1.30236e-07
-0.00315928
-1.0813e-07
-2.00969e-08
6.18811e-09
-3.1694e-07
-3.03457e-07
-4.98299e-06
-0.0049105
-4.75568e-07
4.44287e-07
-1.9326e-07
-1.84188e-07
5.83667e-08
-0.00214872
-0.0315766
4.24122e-07
-1.0017e-07
2.15861e-09
-5.92905e-09
-1.43295e-06
3.95969e-07
1.33228e-07
-0.00156984
-0.00166413
-0.000261783
-4.95534e-07
-3.38835e-07
8.57497e-08
-1.28366e-07
-9.51542e-09
-6.06736e-07
-2.68484e-07
8.19046e-08
-3.55402e-06
1.12813e-06
1.35575e-05
-0.00714012
-0.00315182
1.683e-06
-2.1626e-07
2.35212e-07
-0.00439767
-7.14856e-07
7.24312e-07
-3.11226e-07
-1.46057e-07
-5.09718e-08
6.91646e-08
-0.0102141
3.82867e-07
-0.00655082
0.000306659
1.4284e-06
3.14576e-09
4.34322e-07
0.00176126
5.37713e-08
1.15124e-06
1.79837e-07
1.12514e-06
-6.44613e-08
4.80711e-07
-0.0112237
2.66365e-06
-4.63451e-08
-1.78506e-07
-0.0235572
2.97169e-07
1.37465e-06
-7.16719e-08
0.00109382
-4.69988e-08
4.52707e-07
-0.000916214
-0.023122
3.04785e-06
-4.49788e-07
4.1155e-07
1.78281e-08
-2.77113e-07
1.19175e-06
-0.00113221
0.000106543
3.94158e-08
-0.00114837
-1.37427e-07
0.000611906
0.000150483
1.25055e-07
-0.00425734
2.07018e-06
1.35102e-08
-3.65331e-08
8.03387e-07
1.25646e-07
-0.000130958
-1.07315e-07
-0.0362007
-3.06242e-06
-0.0190176
-0.0466945
1.44969e-06
-6.56154e-08
4.32212e-07
-6.2472e-07
-2.15105e-07
1.03867e-07
-1.0485e-07
-0.00373455
4.17722e-08
3.59227e-07
0.00113926
-0.00467672
3.0159e-07
7.51279e-06
3.70957e-07
-0.0613734
1.17593e-08
0.000403633
-7.55163e-06
-0.00535993
1.44564e-06
-0.000104135
0.000465813
1.16868e-08
1.62316e-07
1.28958e-07
-3.34171e-05
1.02108e-07
-1.79156e-05
2.96074e-07
-0.00143673
5.24774e-07
-2.89531e-08
-3.23652e-07
-2.70635e-07
1.37875e-07
0.000833578
9.22089e-05
0.00150455
-5.38992e-08
-1.1547e-07
-1.0572e-07
1.10092e-06
-5.64924e-06
-1.63058e-07
-0.00122912
-0.00216601
-6.42394e-07
3.92324e-07
0.000639625
5.19575e-07
2.7828e-05
-0.000102761
-1.83556e-08
-0.000984591
1.11282e-07
0.00293011
-1.34358e-07
1.24655e-05
1.34463e-07
0.000880699
-4.22361e-06
-0.0124826
-0.000201582
-0.00143246
-5.94072e-07
-1.29476e-05
-1.08466e-06
6.35307e-07
-0.00260889
0.00144955
-1.92879e-05
5.69903e-07
4.71372e-05
-0.000456052
0.00210707
1.09796e-06
-0.00443991
7.55471e-07
1.12913e-06
-1.73076e-05
-6.14276e-07
7.80882e-07
-1.72048e-07
1.81657e-08
-3.77905e-08
3.37559e-08
2.6809e-07
-0.00386156
1.58187e-07
0.00118476
-2.20596e-05
-1.51046e-06
0.00115441
-0.00158891
-2.62881e-07
-3.22493e-07
0.000408903
2.59305e-05
-7.53858e-07
-0.00232603
-0.0457083
-0.002484
-2.55229e-08
1.01831e-06
-1.44147e-06
-1.12555e-05
1.87222e-06
0.00229393
-0.000216472
1.57014e-06
6.57397e-08
-1.12622e-07
-0.00552762
0.000241841
1.52848e-06
-0.00264649
-2.26876e-07
-4.21371e-07
-1.0624e-07
-0.00873806
-8.93574e-08
-1.49477e-08
3.75888e-08
-2.26609e-07
0.000132439
-0.000224584
-3.36971e-07
3.39906e-06
-0.00353598
6.55956e-07
-0.00434436
-2.39694e-07
3.2884e-07
-4.96304e-07
-7.82299e-09
-0.0317378
1.94125e-07
-9.71257e-09
-5.76162e-08
-0.0229699
6.54346e-06
1.27071e-06
3.42022e-08
-2.60958e-07
-4.03079e-07
0.000297435
-3.23869e-07
-1.47013e-07
-4.04621e-07
0.000668945
2.3197e-07
0.000167353
-6.80504e-07
5.23518e-07
1.84635e-08
4.57012e-05
-0.000780964
1.37171e-06
0.00903433
-3.04959e-07
2.61815e-07
-0.000945118
7.08288e-08
0.00283062
-0.052791
-3.32137e-07
-6.15159e-08
-0.0220486
-1.91768e-07
0.0131043
-2.91395e-07
-0.00906023
-0.00218825
-0.000835986
-3.57264e-07
-2.93401e-08
-1.96497e-07
9.9667e-09
1.31601e-07
-1.64805e-08
-6.78378e-08
-2.79128e-07
1.56583e-09
-3.80221e-07
1.33172e-07
-6.91498e-07
-2.3426e-07
-0.0536021
-1.08491e-07
0.0183979
5.6226e-08
-6.51269e-08
0.00222864
1.98005e-07
0.0264361
0.00256142
1.67748e-07
-4.98267e-07
1.09857e-06
0.00134077
-2.37312e-07
0.0115825
8.55601e-07
-5.59406e-07
-0.0218387
-8.69643e-09
-7.13041e-05
-2.91666e-07
0.000598696
3.39471e-08
-0.0112574
-0.0367823
0.00420784
-2.52771e-07
-6.889e-07
-1.08239e-07
1.10509e-07
2.89911e-06
-5.16561e-08
-2.51374e-07
1.36359e-06
-2.27944e-07
-2.96765e-05
-0.000959957
6.36386e-08
-3.49291e-07
-1.5319e-08
5.84958e-07
-1.61582e-07
-1.12184e-07
-1.72196e-08
-0.0149376
-0.029525
2.93827e-06
-4.97468e-07
-2.95049e-07
-1.78041e-07
-1.13831e-06
-0.00588712
1.20836e-05
0.015446
0.000886247
-2.3599e-07
-9.87703e-08
2.69143e-06
2.64337e-08
-2.11322e-07
2.89695e-06
-1.52816e-07
0.000550919
-7.63125e-08
-0.00180074
1.49822e-06
-5.52886e-07
2.34837e-06
-7.07412e-08
2.20448e-07
-2.59508e-07
-1.33079e-06
-0.0029283
-6.09053e-07
-1.26978e-06
-1.13401e-07
0.00363328
-0.00256374
-1.68309e-07
-1.98948e-07
9.25743e-08
1.28105e-07
6.69326e-08
3.88559e-05
3.93558e-08
-2.54008e-07
-2.35101e-07
6.21358e-06
8.01929e-07
5.69746e-08
0.0106534
-7.86872e-09
-4.94941e-07
0.00209808
-4.60033e-07
-2.12734e-07
0.000357434
-6.02202e-07
-0.0111845
-1.67154e-08
5.88589e-08
2.94464e-08
3.79658e-06
-6.8155e-08
0.000172882
-2.79781e-07
1.36135e-07
0.00975829
-5.24868e-06
-0.014559
0.00156649
0.00191422
-1.50794e-06
2.67948e-08
-6.40398e-07
0.00199061
6.79346e-07
0.00533411
-6.29147e-07
1.00945e-06
-4.47887e-05
-0.000157696
2.29567e-09
-0.000900655
0.000238298
-1.07226e-07
-1.53146e-06
-5.87659e-07
-1.351e-07
-0.00364823
4.61735e-06
-1.44046e-07
9.9211e-08
8.68427e-08
-0.00110599
-3.88304e-07
-0.00378331
1.21038e-06
-3.99109e-07
-1.39891e-07
1.60113e-07
0.0596582
-0.000275734
5.58853e-08
0.0233808
1.42916e-05
-5.3289e-07
-0.00106152
-3.23046e-07
-8.86919e-09
1.01356e-07
-4.11545e-07
1.64851e-07
1.43524e-07
-5.1382e-07
-7.50909e-07
-4.12743e-07
2.01376e-06
-6.91621e-07
0.00113178
9.74811e-07
-3.70152e-08
-0.0101156
-3.79413e-09
1.15429e-06
6.82211e-06
-1.47003e-07
-0.00692735
-1.09301e-07
-7.88556e-06
0.000301073
2.95177e-08
0.00685416
0.00245606
-3.51289e-07
8.28867e-08
2.43436e-07
0.00198402
-2.82937e-07
0.000185797
-0.00176382
-4.68742e-08
6.12305e-07
1.15526e-06
1.79478e-05
-3.04175e-08
-0.000249933
-4.17396e-07
-0.00195217
-0.00695928
1.43537e-06
0.00187039
2.06887e-07
-8.59826e-06
-0.000126139
5.47105e-05
-1.52001e-07
1.55585e-06
-5.60207e-07
1.42875e-06
-1.36257e-07
-2.16969e-07
-0.00647961
5.456e-07
7.58089e-05
-0.00278093
-1.33932e-07
0.00116833
1.73322e-07
2.10245e-05
-2.71597e-07
4.5778e-07
-2.81574e-06
-0.00278552
-0.000258401
1.17155e-06
4.17995e-07
-0.0148513
-9.75306e-08
-2.81217e-07
2.81794e-08
-6.58572e-07
1.00967e-06
3.94327e-07
4.55454e-08
-0.0232252
5.04332e-07
3.91341e-07
5.10769e-08
1.13158e-07
-1.40688e-07
-0.00537008
6.5858e-08
-2.31205e-06
7.43042e-07
-0.0101064
-1.7968e-06
-2.3516e-07
-6.80319e-09
2.02771e-06
-3.74953e-09
-1.35628e-05
-0.00537856
-0.000113383
-1.52062e-06
7.80048e-08
1.89525e-07
-1.27152e-07
1.24669e-08
-0.00390171
-4.64869e-07
-5.90775e-07
0.0275253
-2.59789e-07
-5.99875e-07
-2.61524e-05
-0.0118363
-0.0214238
9.34141e-08
-0.00970571
0.00915596
7.17147e-08
4.48543e-10
8.41534e-08
0.00732681
6.69624e-05
-0.00337981
-0.00522154
-2.01904e-08
5.83388e-08
3.37377e-05
-1.54395e-06
-5.90103e-07
3.2187e-07
-5.09191e-07
-1.05276e-07
0.00360437
0.00208663
-3.24632e-06
4.9251e-07
9.43633e-07
-1.00352e-05
1.48889e-06
-2.01784e-07
-1.27401e-07
-2.08862e-07
4.94122e-05
3.5151e-08
3.41311e-07
-1.38333e-06
-0.000115189
-1.34541e-07
-7.70024e-08
-3.05502e-09
-4.23416e-07
-1.00567e-08
-6.90906e-07
-0.00738409
-1.01515e-07
-0.0498095
-0.00255871
-0.000129714
-5.6456e-07
-6.42246e-07
-3.53425e-07
-3.15147e-07
9.17144e-08
2.68449e-09
-3.10129e-07
0.000292542
4.06664e-05
-3.42748e-07
9.28351e-08
-2.86686e-07
2.64573e-08
-0.0212948
-6.70793e-07
1.26074e-05
-0.0006801
-0.000926372
4.35203e-06
3.10295e-07
-8.49437e-08
9.60405e-08
-1.88916e-07
-0.00519362
9.20209e-09
2.61562e-07
-0.00654169
3.26308e-05
-7.87613e-05
-0.00511778
-0.0354358
-0.0020389
-2.73361e-07
-6.63747e-07
-0.0191595
0.0199662
-2.35635e-07
-1.76804e-06
-7.41746e-07
-1.82309e-07
-3.2357e-07
-0.01396
4.15223e-08
-2.67194e-07
0.00563828
2.49165e-07
-0.0209264
-5.29351e-08
4.58357e-08
-5.47736e-07
-0.00551337
6.92634e-06
-0.00255754
-3.59502e-07
-0.0137793
1.24225e-06
-1.01312e-07
1.0287e-05
-6.68585e-08
2.21277e-07
-3.84724e-07
6.19265e-08
0.000856733
0.0330617
7.96274e-05
-0.00073338
-0.000810218
-0.000669831
0.00442068
-6.51406e-09
-2.87138e-07
0.000950942
-1.05638e-07
-4.86768e-07
-1.06722e-06
-1.16014e-07
-0.00323011
-3.22891e-07
8.22767e-06
-1.11055e-05
1.28109e-07
-0.0113696
-6.25754e-07
-2.09214e-07
6.02642e-07
-6.70913e-07
2.74776e-07
-3.52125e-08
-5.77985e-07
-0.00347426
-3.43189e-07
-1.20199e-07
-4.14667e-07
1.03471e-06
-0.00107951
-4.12576e-08
-2.36806e-08
-0.00029475
0.00165672
5.24975e-08
-1.27343e-07
-9.63804e-08
-4.23222e-07
1.21198e-08
-3.41952e-07
0.0316883
-0.0126486
-1.64666e-07
-7.55943e-08
-7.84398e-08
-5.10606e-07
5.22634e-06
-2.5489e-07
1.32354e-06
0.0386646
-2.44822e-07
-4.82296e-07
-0.00244355
-0.00592069
-8.02343e-07
5.87206e-08
5.93802e-08
0.000241197
1.43379e-06
-0.00972809
-2.36927e-07
0.0410699
-3.2772e-06
3.12598e-07
-0.00100046
-0.000504624
-0.000796927
2.14669e-06
-6.32489e-05
0.0065109
6.98637e-07
-7.417e-05
-8.94981e-08
0.00680564
-9.70156e-08
-5.77969e-07
-2.78394e-07
0.0306478
0.00268454
1.68785e-07
-1.15827e-07
8.30408e-07
0.0429714
0.0354965
-1.3851e-07
3.7301e-07
4.47962e-08
-1.44771e-06
-6.07361e-07
1.14414e-06
2.28274e-06
-0.000116724
-1.48194e-06
1.31609e-08
-2.63252e-05
-4.74202e-07
-1.98916e-07
0.00315229
2.86019e-07
-4.51793e-07
6.51888e-08
-0.00475812
3.63209e-06
0.000221247
-5.76697e-07
2.73308e-06
0.0185304
1.0105e-06
0.00115227
-0.0390664
0.00582122
1.04147e-05
5.54719e-08
-3.65262e-07
6.82082e-06
-2.78406e-07
2.4323e-07
-6.54576e-08
-3.07965e-07
-3.16302e-07
-2.74888e-06
-1.63676e-07
0.000237076
-1.15536e-06
0.00089267
-7.52347e-08
0.000150754
0.0375515
1.49337e-07
0.00635972
0.000103023
1.69342e-06
0.00112058
-0.0155711
-6.29754e-07
-3.1744e-07
-1.36206e-07
-3.20434e-07
-0.00681657
-2.1677e-07
7.90666e-08
-0.00748124
8.84867e-08
6.7949e-08
4.75752e-08
4.75477e-07
-0.000337959
-3.51932e-07
1.18237e-06
-3.68843e-07
-0.00906624
5.27121e-08
-0.00991592
-0.000634066
-0.00478878
0.00032047
-1.89178e-08
-1.80749e-07
-2.9682e-07
5.68994e-09
-0.000299874
5.86188e-07
-0.00877101
-0.000434766
2.41334e-08
-6.62272e-07
-1.41707e-06
-3.02374e-07
-0.00138634
-5.38984e-09
9.57822e-07
-0.0101262
-0.000868422
-0.000446499
8.68414e-08
-2.9715e-07
0.000456821
1.68433e-07
-0.000385576
0.00443748
0.0292246
-0.0160188
-6.22175e-08
3.73573e-07
1.77516e-08
-1.06203e-07
0.000163468
-2.41467e-07
-0.0004793
-1.50925e-07
-4.28428e-07
0.00164701
1.08054e-07
0.00261603
2.90531e-07
-3.23775e-07
-2.89221e-07
0.0301891
-9.38033e-08
-6.43363e-07
-4.29638e-05
-2.20684e-07
-3.6836e-07
1.23833e-06
-0.00253557
-1.98386e-07
8.16033e-07
-9.86457e-08
0.0387181
0.00194668
0.000163579
7.02094e-08
-3.19946e-08
4.07331e-08
-1.82673e-07
0.000114736
-4.75957e-06
-0.00347655
-0.00792398
-1.32393e-08
2.56072e-05
7.53293e-08
0.00646487
-2.72353e-07
0.00975798
0.00100616
-8.93445e-08
0.0133384
-7.33343e-08
-0.0269514
1.16008e-06
-8.1588e-08
2.46048e-05
-4.84201e-08
-2.60467e-08
-4.91154e-08
-3.49603e-08
1.92961e-06
-0.00169254
2.47002e-07
1.82082e-07
1.96907e-06
8.11879e-08
-4.29978e-08
-1.51106e-07
-3.91777e-07
-3.00326e-07
-3.40205e-05
6.29976e-07
-7.04384e-08
-2.17498e-07
-5.19684e-07
-6.72814e-08
-0.0109198
3.80752e-06
-1.22889e-07
2.28189e-08
-1.87167e-07
-1.88958e-05
1.39981e-07
-4.77558e-07
-7.24953e-07
-1.28992e-05
-3.1023e-08
-1.13527e-06
0.00178008
2.95199e-07
-4.27789e-06
5.63413e-08
-1.67217e-07
4.38775e-09
-2.13324e-07
1.04273e-07
4.6724e-08
-0.021245
0.000146144
4.57672e-08
-1.33356e-06
-9.60679e-08
4.38082e-05
-2.58322e-09
2.62535e-06
9.83171e-08
-4.32778e-07
1.09721e-05
8.97608e-09
-0.000561319
1.71518e-05
-5.68054e-08
2.45671e-07
-0.00618979
5.2227e-08
-4.02812e-05
-0.0024432
1.07682e-07
-6.5972e-07
-0.00229866
0.00247082
-9.63673e-06
5.05261e-05
-5.71524e-08
-7.57144e-08
-5.94974e-05
6.69966e-09
6.9019e-07
4.4601e-07
-3.00871e-07
-2.36509e-07
0.0258564
-1.5101e-07
1.95875e-05
0.00553742
-1.88694e-07
-6.42933e-08
-0.0125392
-2.28409e-07
3.66663e-05
-5.92343e-08
-9.06173e-06
0.00148025
-0.000830087
-2.28322e-07
-1.08086e-07
-1.5917e-07
-0.00282838
0.00415846
-0.000285675
0.00068603
3.13565e-06
2.95904e-08
8.38495e-05
0.0157888
-1.54748e-07
5.78043e-07
-2.00561e-07
5.26342e-08
-0.077847
3.38263e-07
2.34911e-09
0.000787807
-5.07855e-08
-1.1959e-08
-3.24396e-08
3.96798e-08
3.08879e-07
0.00225003
-8.70467e-08
0.00073953
2.97176e-07
-4.09272e-07
-3.05068e-07
1.8785e-08
-2.21591e-07
4.93216e-08
8.38069e-05
7.58931e-08
4.46231e-06
-0.0036325
8.59842e-05
-4.2855e-07
0.000159077
4.23801e-06
1.59682e-09
7.11684e-08
1.039e-07
7.79672e-08
0.0156067
0.000360925
1.17025e-07
-7.7443e-07
0.0279495
-7.00247e-07
-0.00173198
-4.31135e-07
1.14564e-07
2.04508e-07
-0.000577707
-0.000937662
-0.00788155
-0.0113356
-9.09614e-08
0.000193305
-0.000533895
3.22655e-07
-6.89183e-08
-8.27053e-08
3.60044e-07
9.49451e-08
0.0324323
-0.0121901
-2.19976e-07
-5.96383e-09
-2.69812e-06
-3.95005e-07
-0.000587791
2.19181e-07
-0.000783833
6.87258e-08
-0.00114143
9.9866e-07
-1.43322e-08
-1.11005e-07
-0.00213555
1.04126e-07
-1.07125e-05
1.82555e-07
6.79095e-08
-7.45478e-08
2.20489e-08
0.00123576
1.18648e-08
-3.44908e-07
-1.6756e-07
7.46378e-09
-0.0084357
0.00416292
-2.33141e-06
3.75757e-07
-1.70557e-08
0.000674742
1.0754e-05
8.8446e-08
1.05381e-07
-0.00843816
2.87525e-07
3.9763e-08
0.00270043
-4.66906e-07
-0.00039638
0.00173572
-0.000229858
-5.08134e-07
-1.18748e-07
4.18296e-07
8.27953e-07
1.113e-07
-4.54089e-08
0.00339008
-0.00900921
1.60069e-06
-9.97132e-08
-1.63771e-07
-3.03086e-07