/*--------------------------------*- C++ -*----------------------------------*\
| =========                 |                                                 |
| \\      /  F ield         | OpenFOAM: The Open Source CFD Toolbox           |
|  \\    /   O peration     | Version:  v2012                                 |
|   \\  /    A nd           | Website:  www.openfoam.com                      |
|    \\/     M anipulation  |                                                 |
\*---------------------------------------------------------------------------*/
FoamFile
{
    version     2.0;
    format      ascii;
    class       volScalarField;
    location    "1000";
    object      k_0;
}
// * * * * * * * * * * * * * * * * * * * * * * * * * * * * * * * * * * * * * //

dimensions      [0 2 -2 0 0 0 0];


internalField   nonuniform List<scalar> 
10042
(
0.00199947
0.00286369
0.000199219
0.000141833
0.000142168
0.010666
0.0473387
0.00697345
0.000134748
0.000191468
0.000768738
0.00198764
0.000164848
0.000142998
0.000146108
0.000142903
0.013916
0.000945035
0.000152055
0.000163678
0.00016473
0.00171686
0.000141719
0.00367108
0.000141196
0.000150895
0.000188307
0.000133949
0.0113888
0.00676734
0.000157726
0.000170807
0.000134432
0.000134366
0.00640367
0.0058917
0.000149947
0.000135724
0.000150032
0.000149502
0.00542422
0.000134592
0.000239209
0.000363389
0.000141512
0.000141201
0.000132735
0.000145823
0.000197089
0.00956072
0.000244709
0.000140825
0.0134719
0.000151601
0.011143
0.0694359
0.00016327
0.000424214
0.000146881
0.000130698
0.000197476
0.00461014
0.000218288
0.00630445
0.000265531
0.000144612
0.000162261
0.00308247
0.00013258
0.00312023
0.000249821
0.000152211
0.000137594
0.00014666
0.000144187
0.000262399
0.000225153
0.000132715
0.000225425
0.00015213
0.000381555
0.00489167
0.000169554
0.000140147
0.000176459
0.00682231
0.000160969
0.000200087
0.000141997
0.000226605
0.000158194
0.000146137
0.000216748
0.0179493
0.000187547
0.000144423
0.0704615
0.000162432
0.000265649
0.00014638
0.000157515
0.000505774
0.000148402
0.000165848
0.000153673
0.000146806
0.0701719
0.000143737
0.0528062
0.000147164
0.000146422
0.0446594
0.000377001
0.00595927
0.000257853
0.000132602
0.000162054
0.000155579
0.000330135
0.000132474
0.00013068
0.00424679
0.00329699
0.000141622
0.000229396
0.000143007
0.000143341
0.00505177
0.000217294
0.000135907
0.000135918
0.000142928
0.000145959
0.000143108
0.0475195
0.00161366
0.000162741
0.0566791
0.000149704
0.000506551
0.000194012
0.000138333
0.0674371
0.000134004
0.000155672
0.000135802
0.000173543
0.000132482
0.00015202
0.00174452
0.000143252
0.000145139
0.000150381
0.000169206
0.00021403
0.000156219
0.000215244
0.074579
0.000146012
0.000152792
0.000153117
0.00015476
0.000368621
0.000142406
0.00014889
0.00335611
0.000137562
0.000167131
0.00624019
0.00013409
0.000230783
0.00710953
0.00712106
0.000134201
0.000151564
0.00451348
0.000141539
0.0001357
0.000142449
0.000132578
0.000149524
0.000153826
0.000146621
0.000132284
0.00231777
0.000158477
0.000152129
0.000131203
0.00162045
0.000146239
0.000452202
0.000163203
0.000136132
0.000153356
0.00168002
0.000146101
0.000266744
0.00180036
0.0660581
0.000140301
0.000231415
0.000205392
0.00997104
0.000136894
0.000494234
0.000145264
0.00144255
0.000168608
0.000146152
0.000143353
0.00016909
0.000135728
0.0101535
0.00781953
0.000151076
0.00241804
0.000136443
0.00963101
0.000144034
0.000228716
0.000818024
0.000322002
0.00100647
0.00265821
0.000141819
0.000205525
0.000149983
0.000161359
0.000178058
0.00014852
0.000135814
0.000144047
0.000158564
0.000162452
0.000141502
0.00685755
0.000159576
0.0698887
0.000154683
0.00255184
0.0123599
0.00605972
0.000130615
0.000160923
0.0244615
0.000142925
0.00554663
0.000154514
0.000150609
0.000146705
0.000153083
0.000136356
0.012084
0.0252599
0.000151444
0.000158506
0.000149945
0.000152127
0.0690889
0.000141851
0.00023516
0.000136192
0.000140703
0.000132825
0.000166099
0.0290976
0.00023283
0.0114861
0.000163589
0.00014431
0.000143635
0.00802025
0.000140952
0.000223176
0.000151409
0.000260171
0.000148848
0.000141296
0.000164347
0.00139523
0.000133927
0.00727951
0.000277341
0.000148621
0.00016163
0.0243205
0.000177189
0.000133134
0.00123321
0.000148728
0.000161887
0.000184595
0.000164423
0.00775899
0.000254316
0.000142793
0.00029222
0.000161137
0.000143719
0.000136978
0.000150186
0.00953851
0.000131234
0.0113619
0.00019768
0.00983499
0.000142396
0.000175082
0.000308255
0.00766026
0.00015525
0.000142488
0.000144174
0.000142702
0.00018653
0.00103754
0.000132848
0.00233823
0.0021898
0.000132508
0.000153132
0.000165872
0.000244074
0.00347657
0.00237933
0.000154174
0.000195803
0.000142334
0.000159861
0.000160665
0.000145243
0.00014473
0.00152674
0.000147002
0.0015304
0.0018284
0.0606666
0.00330364
0.000136587
0.00379449
0.000195463
0.000164967
0.000130648
0.000171232
0.000158029
0.00013569
0.000139795
0.000143581
0.000166932
0.0710881
0.000147435
0.000253631
0.000166553
0.000138998
0.00504956
0.000200537
0.000150007
0.000168653
0.000259503
0.000156248
0.000146405
0.000151034
0.00014887
0.00344245
0.00475666
0.0001491
0.000141255
0.000162057
0.000162467
0.000374379
0.000130827
0.000171272
0.000141518
0.000150558
0.00219699
0.000144299
0.000267263
0.0112364
0.0333272
9.13333e-05
0.000145345
0.0119434
0.000177081
0.000142026
0.000176385
0.000132582
0.000145506
0.00013235
0.000144818
0.000133108
0.000151365
0.0572164
0.000147405
0.000373331
0.0054962
0.0250984
0.000142308
0.00641552
0.000150864
0.000171013
0.000140938
0.00602897
0.000153177
0.0103824
0.0670671
0.000139168
0.000191389
0.000149487
0.0116219
0.000150653
0.0130049
0.000156822
0.00670314
0.000147162
0.00498646
0.000150208
0.000158635
0.000471708
0.00013311
0.000148549
0.00014472
0.00642814
0.000135849
0.000132173
0.000196575
0.000157282
0.000180644
0.0124959
0.000141695
0.000165052
0.00015712
0.000132723
0.000156911
0.00613125
0.000145346
0.000148618
0.0345335
0.000294244
0.000153134
0.0668259
0.00013419
0.00018397
0.000179175
0.000261956
0.001883
0.00261283
0.00469765
0.000647059
0.00653449
0.00013208
0.000253369
0.000262896
0.000261255
0.00017477
0.000141699
0.000140173
0.000264945
0.0625965
0.00013232
0.00013742
0.000159813
0.000142125
0.000150324
0.000152645
0.000144417
0.000164524
0.00214151
0.000148587
0.000184481
0.000228179
0.000354951
0.000134735
0.00633712
0.0458237
0.00332938
0.000145226
0.000155534
0.000152745
0.0282756
0.000143802
0.00124444
0.000147149
0.000193396
0.000139991
0.000153164
0.000137392
0.000232623
0.0035895
0.000151577
0.000139734
0.000142746
0.000435125
0.00013611
0.000353336
0.000205865
0.000191362
0.000137567
0.00032112
0.00800003
0.061205
0.000145499
0.000158353
0.00686119
0.000446257
0.000171508
0.0102973
0.000147757
0.00207448
0.000167863
0.000162017
0.000153024
0.00137553
0.000137184
0.00014159
0.000147488
0.00797137
0.000141675
0.0120305
0.000142112
0.000144976
0.00013507
0.000158509
0.00908501
0.000148151
0.000148605
0.00106243
0.00119044
0.0001808
0.000147977
0.000143494
0.00216994
0.0608048
0.000145685
0.000133711
0.000199669
0.000144753
0.000144135
0.000244193
0.000135732
0.0237955
0.000141035
0.000182872
0.000200814
0.00387035
0.000141767
0.00015632
0.000145227
0.000137048
0.00255217
0.000130617
0.0057842
0.000171416
0.000134774
0.000183115
0.060847
0.00492592
0.000167194
0.000146794
0.000133708
0.000132395
0.000142555
0.000221866
0.000147162
0.000290656
0.000143967
0.000135386
0.000990338
0.000153697
0.000245122
0.000155264
0.000139345
0.00103971
0.00276109
0.000184591
0.00166341
0.000143552
0.000157247
0.000134572
0.00013487
0.000143164
0.000142512
0.000146058
0.000146612
0.018132
0.00014691
0.000578783
0.000140959
0.000175964
0.000132917
0.000185142
0.0117535
0.000134864
0.000141178
0.00228973
0.000315543
0.00013303
0.0307598
0.000141564
0.00114908
0.000135811
0.00015215
0.000136871
0.00026638
0.000132957
0.000142834
0.000145334
0.0263759
0.000153909
0.000142989
0.000146904
0.000217261
0.000142306
0.000141961
0.000137707
0.000142034
0.000153273
0.000141681
0.000165871
0.000134736
0.0672757
0.000333662
0.00219272
0.000150527
0.000152784
0.000143591
0.000221434
0.000150393
0.00294392
0.00993694
0.00144483
0.000923066
0.00483493
0.000143531
0.000145046
0.0101889
0.000213782
0.00017501
0.000191665
0.000146409
0.00246733
0.000140116
0.000145787
0.000134854
0.000136002
0.000152704
0.00972199
0.000148586
0.00014972
0.0468724
0.000143332
0.000223372
0.000146278
0.000148412
0.000148602
0.000146112
0.00176183
0.000142965
0.00014218
0.000231546
0.000145237
0.000133117
0.000158975
0.000140735
0.000139394
0.00138081
0.000293336
0.000316415
0.0001456
0.000141567
0.000140567
0.00294619
0.000152975
0.000143987
0.000138604
0.000139349
0.00480581
0.0311857
0.000642494
0.000150746
0.000161184
0.0695616
0.000157061
0.000172134
0.000180376
0.002846
0.0154469
0.00417347
0.000140028
0.000146518
0.000143249
0.00558952
0.00013988
0.000153903
0.000145089
0.000130691
0.000156148
0.000149637
0.000299843
0.000392608
0.000133092
0.00014141
0.000132045
0.00248204
0.000135911
0.016036
0.00015942
0.00125037
0.000141237
0.00014182
0.000134922
0.000141513
0.000144461
0.000132633
0.000143892
0.000147365
0.000439847
0.000152626
0.00217699
0.000143527
0.000202976
0.00263522
0.000153509
0.0817473
0.000140672
0.000144742
0.000157136
0.00014897
0.0021689
0.000144903
0.0001498
0.000135248
0.00787053
0.000141015
0.00526571
0.000167482
0.000141583
0.00106574
0.00576444
0.000144359
0.000137814
0.00019141
0.000171115
0.00685772
0.000291373
0.000222103
0.000248425
0.000145379
0.000145774
0.000144488
0.000166221
0.000168608
0.00338093
0.0136045
0.000130717
0.000143319
0.000149262
0.000179004
0.00017127
0.0158037
0.000146523
0.000146063
0.00986552
0.00014095
0.000188609
0.000162652
0.000162607
0.00446558
0.000163422
0.00014245
0.000151688
0.000174134
0.000143133
0.0175063
0.00014713
0.000173459
0.000154369
0.000333405
0.00015023
0.000159819
0.000171876
0.000147595
0.000166163
0.000134123
0.000169039
0.000143385
0.000146969
0.000142714
0.00014411
0.000150031
0.000172828
0.000154817
0.000145961
0.00266939
0.000134283
0.00014126
0.000141024
0.000132189
0.000870502
0.000163577
0.000153806
0.000307667
0.00297225
0.000144371
0.000283762
0.00800448
0.000139105
0.000144407
0.000132049
0.00629617
0.00254121
0.000153176
0.000140421
0.000178375
0.0533514
0.0310433
0.000153597
0.00505435
0.00133656
0.00271842
0.000161569
0.000133045
0.000146697
0.000806478
0.000213218
0.000146926
0.0129528
0.000235053
0.00421486
0.00318366
0.000145956
0.000221227
0.00728974
0.000230744
0.0286924
0.000165836
0.0209076
0.000153033
0.00409736
0.000145197
0.000260214
0.000155894
0.000190638
0.000131314
0.000146163
0.000141348
0.0393888
0.000144367
0.000130825
0.000649969
0.000144451
0.000156662
0.000155182
0.00321276
0.000144488
0.000148937
0.000147141
0.0001464
0.000143163
0.000155045
0.000139513
0.0171603
0.000232434
0.000205755
0.000144691
0.000303774
0.000139162
0.000188697
0.00250861
0.000184857
0.000143555
0.000132568
0.000146371
0.000150835
0.00574516
0.00018654
0.000140784
0.000305472
0.000143261
0.000146025
0.00191407
0.000132294
0.000146106
0.000407009
0.00014
0.000231439
0.000149713
0.000202126
0.000156872
0.000182799
0.000176796
0.00014434
0.0838497
0.0784844
0.000141074
0.000167697
0.000281525
0.024867
0.0479395
0.00015415
0.00013901
0.000177247
0.000146414
0.000155177
0.00332616
0.000152761
0.000132383
0.000164415
0.00372699
0.00261864
0.000132499
0.000132052
0.000151052
0.000146649
0.0117628
0.00115936
0.00013648
0.000154484
0.000309289
0.00014477
0.00015691
0.00571508
0.000154374
0.00457925
0.000148542
0.000146246
0.000145763
0.000157358
0.000212422
0.000223152
0.000143829
0.00208316
0.00866376
0.000288049
0.000152558
0.000153648
0.0070175
0.000167298
0.00468236
0.000161775
0.000144987
0.000142285
0.000328801
0.00794457
0.000148641
0.000153906
0.000170907
0.000144282
0.000195608
0.000148755
0.000143724
0.00015205
0.000165828
0.000142341
0.000141399
0.0351108
0.000140384
0.000138725
0.000180634
0.000155171
0.000786728
0.000156319
0.000149583
0.000301637
0.000177629
0.000157115
0.000164395
0.00256607
0.000140934
0.000134705
0.000155154
0.000213964
0.000140295
0.000149525
0.000142261
0.000142544
0.000142491
0.00641697
0.000144913
0.0105939
0.00014546
0.000177452
0.000137605
0.000146823
0.000189082
0.00930431
0.024164
0.000143726
0.000154661
0.000354004
0.00073376
0.000183158
0.000148416
0.00271345
0.000141103
0.000215383
0.000197645
0.000144283
0.000150425
0.000141001
0.000209327
0.0615442
0.0107008
0.000141838
0.000150841
0.000155847
0.000533438
0.000139467
0.000137566
0.000171849
0.000131464
0.000138704
0.00425236
0.000150114
0.0385324
0.000136092
0.000137819
0.000134938
0.000174727
0.000151812
0.000149033
0.0514822
0.00013892
0.000147824
0.0420953
0.000144449
0.000201051
0.000158081
0.000230711
0.000874452
0.00015647
0.00373482
0.000163813
0.000145705
0.000280593
0.000148144
0.00014296
0.000132689
0.000140797
0.000171267
0.000328895
0.000179359
0.00690591
0.00387118
0.00253747
0.000199829
0.00134583
0.000152072
0.00425822
0.000133984
0.000157953
0.000145719
0.000147613
0.000149841
0.086423
0.00714263
0.000143824
0.00151602
0.000138404
0.0325074
0.00014549
0.000152113
0.000166436
0.000403188
0.00121583
0.000142396
0.000133167
0.0439635
0.000204365
0.000231977
0.000196641
0.0015948
0.000152118
0.00402011
0.00849404
0.000139224
0.000138362
0.00014099
0.000154536
0.000143952
0.000148927
0.000151853
0.000145806
0.00015227
0.000148845
0.000143092
0.00429781
0.0055182
0.000133527
0.00368415
0.000150399
0.000171083
0.000186434
0.000206889
0.000139285
0.000176751
0.000190846
0.00013608
0.000173796
0.00114075
0.000146441
0.000138547
0.000152953
0.00470026
0.0049593
0.000136071
0.00653502
0.000146348
0.000146599
0.0531399
0.00014086
0.00014054
0.000138612
0.000142429
0.0001532
0.00238155
0.000170711
0.000144307
0.000143124
0.000145643
0.000141722
0.00665208
0.000133032
0.00017202
0.0261986
0.000743659
0.000137896
0.00965048
0.000138692
0.00221111
0.000150655
0.000204297
0.000133929
0.00330511
0.0639018
0.0584722
0.000144668
0.000331285
0.00115584
0.00168201
0.000150926
0.00135362
0.000143605
0.00145827
0.00402278
0.000177122
0.000252354
0.00342735
0.00512237
0.00843746
0.000185749
0.00365075
0.00013821
0.000154438
0.00158608
0.000195941
0.000143036
0.000583885
0.000148363
0.00013978
0.000138873
0.000268254
0.000197061
0.000174535
0.000230623
0.000160376
0.00157258
0.000148918
0.000141244
0.000147827
0.00515244
0.00378534
0.000160325
0.00651013
0.000148864
0.000152168
0.000162301
0.0031022
0.000175051
0.000139988
0.00023491
0.00025063
0.000151096
0.000208728
0.00013667
0.000164412
0.000220359
0.000140208
0.000486838
0.003366
0.000142916
0.000148823
0.000140392
0.0029589
0.000156854
0.000187531
0.00371026
0.000140821
0.000144435
0.000133668
0.000164313
0.000138531
0.000208887
0.000180291
0.000186877
0.00483852
0.000150417
0.000157355
0.00345701
0.000151966
0.000186794
0.000152455
0.000144737
0.0212526
0.00705648
0.000150605
0.00025055
0.000164729
0.00358121
0.000140633
0.000140946
0.000185165
0.000155746
0.000180473
0.00453629
0.000154449
0.000156124
0.00303084
0.000184074
0.000152804
0.00721627
0.000234255
0.00141897
0.000140515
0.000132792
0.000365978
0.000139961
0.0373735
0.00304003
0.000162637
0.00361409
0.000149418
0.000142224
0.00980465
0.00447057
0.000143
0.000507425
0.000170368
0.000142588
0.000192747
0.000148854
0.000147451
0.000173153
0.00015308
0.00013875
0.000151184
0.000140908
0.000154952
0.00205137
0.000161748
0.00140032
0.000144038
0.000156791
0.000140449
0.000143013
0.00683293
0.000145267
0.000137167
0.000782978
0.000149069
0.00292767
0.00016432
0.0047477
0.000132162
0.000143398
0.000206533
0.000205819
0.000151891
0.000152321
0.000139673
0.00133454
0.00015289
0.00424413
0.000165658
0.000136882
0.00280429
0.000131876
0.0635908
0.000140856
0.000605695
0.000145462
0.000137751
0.00013485
0.00236837
0.000139536
0.000136095
0.000134196
0.000140369
0.000143494
0.000196647
0.00315534
0.000138547
0.000155087
0.000146154
0.000140731
0.000138932
0.000482003
0.0311492
0.000154498
0.000145035
0.000139053
0.000134778
0.000154217
0.000153903
0.000134496
0.00267479
0.000276296
0.00423553
0.000137603
0.000140508
0.000143129
0.00015075
0.000138353
0.000148849
0.000143502
0.000139784
0.00020368
0.000151955
0.000215641
0.0255015
0.0678144
0.000149091
0.00014072
0.000144034
0.00318679
0.000148343
0.000158277
0.000170154
0.00013737
0.000144549
0.000141453
0.00216917
0.000144334
0.00208723
0.00472038
0.000179084
0.000143819
0.000154477
0.00640322
0.000151861
0.00016594
0.000157896
0.000167368
0.000137329
0.00015511
0.0203326
0.00341959
0.000139092
0.000145208
0.0363851
0.000153334
0.00017675
0.000171405
0.00180442
0.000143436
0.000154525
0.00435901
0.0332144
0.00018765
0.000138529
0.000143227
0.00013916
0.000145996
0.000200948
0.00421351
0.000324461
0.000138215
0.00117223
0.000156684
0.000748138
0.00149559
0.000141387
0.0257073
0.00020711
0.000139243
0.000197027
0.000162163
0.000148385
0.00142103
0.000139627
0.0426668
0.000166684
0.0647751
0.0433989
0.000173414
0.000144929
0.000155042
0.000148859
0.000140287
0.000135887
0.000135442
0.0604629
0.000147902
0.000167055
0.00188709
0.0718508
0.00016696
0.00019548
0.000137986
0.0383728
0.000132718
0.00141477
0.00027085
0.0675461
0.000243725
0.00539523
0.00066527
0.000134081
0.000147711
0.000134921
0.000149735
0.000153692
0.000318917
0.000153337
0.00149157
0.000155972
0.00013652
0.000137484
0.000145482
0.000134058
0.00148814
0.000277402
0.0637978
0.000139588
0.000171313
0.000151804
0.000153417
0.000209778
0.000144268
0.0045049
0.00314805
0.000148624
0.000150289
0.0015671
0.000155965
0.00121212
0.00739638
0.000147908
0.00383811
0.000154798
0.0459415
0.000140593
0.00023291
0.000143767
0.0021975
0.000213633
0.0317337
0.00651259
0.00189705
0.000212561
0.000228951
0.00014657
0.00014687
0.00575044
0.00258617
0.00022061
0.000156628
0.00290802
0.00417469
0.0065554
0.000169137
0.000383913
0.000161741
0.000163499
0.00026372
0.000154653
0.000160055
0.000170361
0.000133251
0.000137162
0.000140685
0.00014372
0.0649619
0.000148128
0.00217596
0.000215553
0.000239112
0.00107526
0.0018125
0.000136728
0.000147385
0.00151365
0.000288418
0.000167064
0.00466521
0.0525591
0.00205103
0.00013996
0.000161952
0.000153984
0.000208173
0.000199451
0.00578922
0.00666462
0.000181708
0.000147316
0.000152152
0.0537938
0.000256092
0.00017757
0.00282843
0.000140634
0.000170393
0.000150371
0.00974208
0.000151134
0.000136437
0.000140179
0.000150083
0.0488168
0.00297871
0.000146957
0.000193117
0.00134014
0.00015174
0.00137552
0.000170806
0.000160851
0.000168555
0.000162784
0.00997858
0.000141577
0.000140074
0.000151786
0.0212328
0.000204091
0.000163585
0.000148559
0.000150176
0.000146695
0.000334277
0.000165277
0.000151055
0.000146455
0.000683125
0.000158077
0.00722691
0.000149929
0.000159275
0.000141229
0.000243089
0.00125487
0.000179121
0.0553577
0.000140124
0.000165567
0.00482986
0.000158924
0.0054772
0.0183715
0.000146178
0.000150034
0.0629471
0.000143309
0.0470993
0.000146375
0.0332413
0.00369062
0.0040735
0.000150529
0.000140857
0.000141986
0.000143614
0.000152832
0.000132527
0.000148668
0.000140622
0.000139031
0.000151291
0.000152642
0.000153282
0.000151306
0.0206438
0.000145192
0.0598223
0.000147918
0.000145073
0.0608679
0.000141503
0.071431
0.00122689
0.00014671
0.000148688
0.000168954
0.00290918
0.000170992
0.0580167
0.000158408
0.000157203
0.0405176
0.000138751
0.0165799
0.000145894
0.000706931
0.000134153
0.0682614
0.0127713
0.00297492
0.000147231
0.000151458
0.000139302
0.000151075
0.000213942
0.000141831
0.000143415
0.000173131
0.000168022
0.00031238
0.00435859
0.000148142
0.000169875
0.000144368
0.00015666
0.000149086
0.000143393
0.00014831
0.0654465
0.0603272
0.000212463
0.000150929
0.000148325
0.000149731
0.00021235
0.0663118
0.000191342
0.00599019
0.00422744
0.000150084
0.00015155
0.00020143
0.000139639
0.000151338
0.000181743
0.000149744
0.000795576
0.000150028
0.00272803
0.000142025
0.000148471
0.000201561
0.000150376
0.000151703
0.00015525
0.000156188
0.00379373
0.000157479
0.000151889
0.000148057
0.061941
0.00451559
0.000152312
0.000149383
0.000138745
0.000153055
0.000143784
0.000249273
0.000140291
0.000144834
0.000145319
0.000186067
0.000160655
0.000147907
0.0568407
0.000147707
0.000148692
0.0015705
0.000150952
0.000152271
0.000515931
0.000148254
0.0075103
0.000139866
0.000138838
0.000148323
0.000181939
0.000137024
0.00426841
0.000148335
0.000141434
0.0037183
0.00680436
0.0661103
0.00398748
0.00366276
0.000155851
0.00013791
0.000150656
0.0063235
0.000157387
0.00537178
0.000149289
0.000162863
0.000262367
0.000148827
0.000138589
0.000913796
0.000394863
0.000140639
0.000155895
0.00014801
0.0001487
0.000642135
0.00021975
0.000145441
0.00013968
0.000133921
0.000163069
0.000146719
0.00355623
0.000165809
0.000146466
0.000140466
0.000141495
0.0279095
0.000113105
0.000139992
0.0174302
0.000263885
0.000148463
0.0068547
0.000146197
0.000138035
0.0001386
0.000146401
0.00013651
0.000144287
0.000147778
0.000149941
0.000147088
0.000195876
0.000150648
0.000804543
0.000160653
0.000143333
0.0320805
0.000133914
0.000143154
0.000193567
0.000140437
0.0135669
0.000141266
0.000213633
0.00122821
0.000138231
0.0534729
0.00485012
0.000145766
0.000148219
0.000143617
0.000699338
0.000145924
0.00138373
0.00326298
0.000150988
0.000156569
0.000171513
0.000222708
0.000145443
0.00468725
0.000146669
0.00120118
0.0586306
0.00018981
0.0033641
0.000147656
0.000214992
0.0056834
0.000242702
0.000145389
0.000181637
0.000150196
0.000177097
0.000137182
0.00015696
0.0272011
0.000155848
0.000291683
0.00200825
0.000171262
0.000990939
0.000137671
0.000244967
0.000145533
0.000155112
0.000227664
0.000705003
0.000710008
0.000165834
0.000154444
0.0227223
0.000171091
0.00014074
0.00013921
0.000148648
0.000152296
0.000153912
0.000141635
0.0371755
0.000155732
0.000144083
0.000135897
0.000143038
0.000142681
0.0471206
0.000139643
0.000245549
0.000153062
0.0465022
0.000155035
0.000145351
0.000132025
0.000193685
0.00015016
0.000267104
0.0311164
0.00405802
0.000155594
0.000148347
0.00014376
0.000140361
0.000140902
0.00552837
0.000149856
0.000148234
0.0117559
0.000145101
0.000149289
0.000332556
0.0105636
0.0177876
0.000148642
0.0265752
0.00334439
0.000141138
0.000139234
0.000171764
0.0468217
7.58681e-05
0.00493419
0.00117138
0.000144344
0.000139196
0.000375396
0.000159204
0.000147995
0.000195125
0.000147721
0.000150773
0.00601799
0.000842434
0.000193131
0.000155889
0.00015991
0.000192196
0.000275494
0.000145635
0.000140249
0.000144191
0.000364998
0.000139984
0.000153295
0.000262592
0.000369168
0.000137424
0.000141322
0.000132302
0.000146423
0.000145542
0.00017526
0.00713109
0.000148816
0.0213951
0.00489363
0.00052901
0.000169181
0.000150835
0.000146032
0.00014221
0.000139502
0.000135164
0.000146773
0.000367719
0.000291444
0.000140243
0.000137768
0.000149276
0.000148532
0.0429599
0.000175706
0.000273677
0.00150216
0.00118641
0.000191691
0.000142885
0.000142524
0.000142533
0.000148177
0.0368663
0.000144012
0.000152753
0.0497811
0.000246905
0.00726716
0.0516997
0.0524303
0.00393681
0.000143383
0.000172599
0.0413032
0.0182957
0.000145602
0.000153903
0.000143691
0.000145905
0.00014635
0.0483587
0.000141835
0.00014267
0.00448746
0.000152295
0.0192084
0.000142835
0.000138259
0.000172765
0.0442243
0.000219225
0.00704509
0.000159321
0.0471732
0.000166697
0.000140739
0.000233025
0.000141567
0.000151806
0.000146717
0.000138177
0.00753097
0.0408576
0.000573404
8.29955e-05
0.00162999
0.00565559
0.00408395
0.000140083
0.000148793
0.00326978
0.000143308
0.000147421
0.000151912
0.000145135
0.0467884
0.000146136
0.00023092
0.000226818
0.00013395
0.00880008
0.000150502
0.000141968
0.000164099
0.000163314
0.000165778
0.000168759
0.000170019
0.0136379
0.00014825
0.000142869
0.000140659
0.000169883
0.00146262
0.00014021
0.000150742
0.000301344
0.0438956
0.000141238
0.000171186
0.000171524
0.000137458
0.000144413
0.000143719
0.0414302
0.0645478
0.000171449
0.000149397
0.000143599
0.000170569
0.000221561
0.000147607
0.000222736
0.0197517
0.000145678
0.000170697
0.025661
0.0276431
0.000168411
0.000134931
0.000139542
0.000309098
0.000193996
0.0245489
0.000155054
0.0297656
0.000200256
0.000251656
0.00557669
0.000615513
0.00099848
0.000275217
0.00683766
0.0336205
0.000148012
0.00708552
0.000149311
0.00246304
0.000150031
0.000149067
0.000171136
0.0392347
0.0045848
0.000152523
0.000146941
0.000215157
0.0288066
0.021039
0.000139119
0.000142952
0.000143829
0.000155633
0.000150389
0.000168068
0.000262427
0.00522588
0.000154282
0.000142459
0.000226376
0.000147387
0.000144539
0.00641786
0.000144118
0.000151831
0.000135646
0.0149539
0.00018756
0.00712796
0.000152327
0.00021651
0.00750732
0.000162967
0.00416333
0.057947
0.0020766
0.000287013
0.000141084
0.000146057
0.000199569
0.000145165
0.000148149
0.000142257
0.000149276
0.000168499
0.000185721
0.000140894
0.000376214
0.000145706
0.0030785
0.000151517
0.000328814
0.0310904
0.000196
0.0624327
0.00038611
0.00020587
0.000580644
0.065993
0.000148386
0.000146136
0.000198155
0.000168305
0.0126053
0.000140815
0.000147004
0.0112867
0.000143228
0.000139344
0.000149928
0.000136023
0.00971253
0.000146746
0.000162053
0.000147445
0.0662585
0.000142702
0.0695897
0.00487991
0.0125239
0.000242652
0.000134463
0.000170701
0.000148806
0.000144207
0.0312392
0.00020807
0.00665011
0.00502163
0.000134549
0.000152981
0.000154059
0.000145418
0.00375781
0.000140598
0.000159321
0.0275431
0.00543512
0.00023192
0.00014274
0.000149362
0.000271066
0.000188608
0.000759208
0.00869948
0.0350744
0.0214196
0.000151918
0.000142261
0.000140479
0.000149305
0.000435399
0.000152185
0.000868227
0.000144183
0.0001483
0.00812951
0.000137218
0.00402552
0.000166617
0.00014772
0.000171076
0.0162879
0.000138817
0.000158064
0.000396703
0.000145951
0.000146423
0.000170957
0.00363203
0.000152902
0.000205345
0.000137241
0.0353507
0.00349494
0.000342398
0.000146142
0.000138828
0.000172725
0.000147084
0.000316931
0.000244365
0.00444646
0.0111165
0.000143406
0.000270446
0.000140998
0.00505764
0.000145657
0.00819711
0.00384747
0.000145423
0.0179313
0.000143258
0.0641362
0.000167314
0.000136937
0.000254713
0.000140301
0.000140357
0.000138422
0.000132829
0.000177048
0.000233875
0.000146473
0.000138003
0.000203954
0.000134558
0.000149994
0.000148804
0.000142064
0.000144808
0.000276291
0.000180561
0.000133989
0.000149753
0.000149545
0.000144737
0.00843046
0.000249665
0.000145188
0.000140847
0.000146795
0.000234854
0.000146024
0.000150327
0.000149699
0.000171445
0.000134338
0.000151348
0.00415028
0.000146813
0.000236098
0.000142783
0.000144804
0.000141096
0.000141919
0.000138697
0.000144119
0.016375
0.00458764
0.000138177
0.000156057
0.000156508
0.0068948
0.000170037
0.000188045
0.000143643
0.000148376
0.000215411
0.000153842
0.00567585
0.000207251
0.00014148
0.000146047
0.0899564
0.000148108
0.000368982
0.03179
0.00014136
0.000244196
0.000265067
0.00565061
0.00025211
0.000267271
0.000169795
0.000140925
0.000348837
0.000146359
0.000158344
0.000175954
0.000135415
0.000143435
0.0104233
0.000139053
0.000245399
0.0357975
0.000148072
0.000145466
0.0818279
0.000142578
0.000238419
0.000136679
0.000233709
0.000794855
0.00497268
0.000142721
0.00014015
0.000148558
0.000677623
0.00478389
0.00484149
0.000488494
0.000195955
0.000143951
0.000236502
0.0524841
0.000143632
0.000136541
0.000170678
0.000141178
0.0309243
0.000201217
0.000137959
0.000364342
0.000140026
0.000140033
0.000136555
0.000143718
0.00014322
0.00227702
0.000142266
0.000142185
0.00014069
0.000148094
0.000149371
0.000149214
0.000142004
0.000143608
0.000233083
0.000138555
0.000209509
0.00797445
0.000219688
0.000169021
0.000205601
0.00018011
0.000142961
0.000134384
0.000142765
0.000134856
0.0498622
0.00290822
0.000154087
0.000150398
0.0130075
0.000151559
0.00415461
0.000150639
0.000141163
0.000147075
0.000277575
0.00698403
0.0483953
0.0756742
0.000171463
0.000163419
0.000184508
0.000143938
0.000141547
0.000139069
0.000159153
0.000160617
0.0524533
0.0672398
0.000162561
0.00014026
0.000181128
0.000142137
0.00020933
0.000145049
0.00122451
0.000148584
0.00526689
0.000164047
0.000147888
0.000171397
0.0017573
0.000169501
0.000270905
0.000141248
0.000139093
0.000144859
0.000143899
0.000543428
0.00013806
0.000148809
0.000166537
0.000134173
0.0105281
0.00147064
0.000192642
0.000144735
0.000147483
0.00903142
0.00150425
0.000141375
0.000142871
0.050419
0.000142991
0.000144202
0.00575645
0.000169631
0.00528646
0.00431334
0.00341271
0.000165052
0.000141293
0.000144958
0.000158045
0.000141266
0.000140903
0.0035805
0.0496573
0.000145246
0.000142138
0.000140351
0.000149196
0.0749368
0.000141953
0.000149096
0.000145389
0.000136797
0.000141096
0.00171496
0.000161554
0.000140589
0.000136653
0.000147686
0.000138804
0.000173075
0.00393579
0.000212126
0.000140197
0.000142632
0.000144579
0.000141604
0.00658454
0.000143683
0.00492669
0.00459422
0.000141334
0.00013869
0.00627214
0.000138698
0.000140748
0.000140573
0.000323628
0.000169998
0.000190171
0.00014082
0.000133725
0.000144938
0.00516646
0.000141853
0.000148052
0.000170207
0.0065255
0.0001534
0.000133422
0.00131287
0.000130956
0.00534964
0.000140535
0.000135935
0.00013887
0.000145798
0.000143241
0.000905827
0.000208007
0.00491841
0.000184738
0.000174696
0.0456893
0.000144301
0.000273903
0.000327827
0.000154808
0.00166073
0.000196438
0.000226719
0.000142441
0.00321795
0.000146148
0.00013929
0.000150566
0.000232396
0.00184099
0.0001539
0.0014282
0.0674254
0.00379954
0.000143149
0.000152088
0.00017122
0.000486015
0.00723705
0.000171505
0.000145854
0.000167158
0.00528793
0.000140193
0.000338281
0.000150009
0.0110727
0.000138378
0.000137317
0.000159838
0.000157878
0.0662225
0.00232783
0.00490308
0.000140454
0.000143474
0.00497255
0.00961783
0.0203032
0.000139591
0.00015313
0.000138892
0.000140851
0.000141102
0.00578228
0.00384062
0.00757316
0.00491829
0.0136677
0.000210393
0.000140357
0.000146085
0.00014293
0.000138638
0.000169304
0.000141707
0.000144681
0.000144088
0.000140207
0.00015972
0.0103513
0.000169933
0.000140234
0.000141024
0.000443597
0.000186465
0.000151537
0.000173731
0.00210916
0.00450397
0.000141897