/*--------------------------------*- C++ -*----------------------------------*\
| =========                 |                                                 |
| \\      /  F ield         | OpenFOAM: The Open Source CFD Toolbox           |
|  \\    /   O peration     | Version:  v2012                                 |
|   \\  /    A nd           | Website:  www.openfoam.com                      |
|    \\/     M anipulation  |                                                 |
\*---------------------------------------------------------------------------*/
FoamFile
{
    version     2.0;
    format      ascii;
    class       volVectorField;
    location    "450";
    object      cellDisplacement;
}
// * * * * * * * * * * * * * * * * * * * * * * * * * * * * * * * * * * * * * //

dimensions      [0 1 0 0 0 0 0];


internalField   nonuniform List<vector> 
9793
(
(0 0.00325273 0)
(0 0.000191106 0)
(0 0.00331544 0)
(0 0.00122744 0)
(0 0.00255553 0)
(0 0.00508042 0)
(0 0.000516541 0)
(0 0.00338158 0)
(0 0.00312538 0)
(0 0.0025936 0)
(0 0.00190255 0)
(0 0.00541165 0)
(0 0.00111232 0)
(0 0.00213268 0)
(0 8.91987e-05 0)
(0 0.00202284 0)
(0 0.00412844 0)
(0 0.00418969 0)
(0 0.00374452 0)
(0 0.00209253 0)
(0 0.00481617 0)
(0 0.00396678 0)
(0 0.00399019 0)
(0 2.79658e-05 0)
(0 0.00542731 0)
(0 0.000906371 0)
(0 0.00196975 0)
(0 0.00398281 0)
(0 0.00261258 0)
(0 0.00314547 0)
(0 0.00539092 0)
(0 0.00394879 0)
(0 0.00547615 0)
(0 0.000229895 0)
(0 0.00266737 0)
(0 0.00472019 0)
(0 0.000364498 0)
(0 0.00402131 0)
(0 0.00405844 0)
(0 0.000576168 0)
(0 0.00541558 0)
(0 0.000167807 0)
(0 0.000570091 0)
(0 0.000512614 0)
(0 0.000453286 0)
(0 0.000775658 0)
(0 0.00259174 0)
(0 0.00323649 0)
(0 0.00581376 0)
(0 0.00138829 0)
(0 0.00264409 0)
(0 0.00201796 0)
(0 0.0049651 0)
(0 0.00354999 0)
(0 0.00227656 0)
(0 0.00507188 0)
(0 0.00269343 0)
(0 0.00142395 0)
(0 0.00589694 0)
(0 0.00394848 0)
(0 0.000378355 0)
(0 0.00480948 0)
(0 0.00586356 0)
(0 0.000501516 0)
(0 0.00230205 0)
(0 0.00544127 0)
(0 0.00588137 0)
(0 0.0058816 0)
(0 0.00543303 0)
(0 0.00197487 0)
(0 0.00234518 0)
(0 1.62176e-05 0)
(0 0.00385554 0)
(0 0.000306375 0)
(0 0.00268597 0)
(0 0.00591845 0)
(0 0.00279065 0)
(0 0.000115035 0)
(0 0.0046785 0)
(0 0.00419536 0)
(0 0.00548308 0)
(0 0.00475873 0)
(0 0.000153067 0)
(0 0.00338254 0)
(0 0.00538688 0)
(0 0.00328825 0)
(0 0.00426232 0)
(0 0.00288522 0)
(0 0.00478547 0)
(0 0.00488762 0)
(0 0.000264648 0)
(0 0.00218158 0)
(0 0.00279708 0)
(0 0.00388508 0)
(0 0.00477327 0)
(0 0.00343516 0)
(0 0.00504371 0)
(0 0.000192406 0)
(0 0.00273589 0)
(0 0.0023105 0)
(0 0.00226977 0)
(0 0.00492945 0)
(0 0.00283836 0)
(0 0.00275932 0)
(0 0.000142103 0)
(0 0.00540481 0)
(0 0.0047408 0)
(0 0.000417891 0)
(0 0.00492742 0)
(0 0.00312828 0)
(0 1.70149e-05 0)
(0 0.00508493 0)
(0 0.00243583 0)
(0 0.00488647 0)
(0 0.0020828 0)
(0 0.0027643 0)
(0 0.00535211 0)
(0 0.00275394 0)
(0 0.00482175 0)
(0 0.00383786 0)
(0 0.0031847 0)
(0 6.35768e-06 0)
(0 0.00307143 0)
(0 0.00512352 0)
(0 0.00350414 0)
(0 0.00488492 0)
(0 0.00171854 0)
(0 0.00333779 0)
(0 0.00474007 0)
(0 0.00330901 0)
(0 3.27806e-05 0)
(0 0.0028619 0)
(0 0.00340272 0)
(0 0.0051008 0)
(0 0.00312316 0)
(0 0.00297578 0)
(0 0.000410503 0)
(0 0.000521574 0)
(0 0.00236968 0)
(0 0.000414608 0)
(0 0.00301744 0)
(0 0.00537531 0)
(0 0.000844546 0)
(0 0.00230475 0)
(0 0.00220524 0)
(0 0.00230477 0)
(0 7.55932e-05 0)
(0 0.00234572 0)
(0 0.0027256 0)
(0 0.00209459 0)
(0 0.00315304 0)
(0 3.6439e-05 0)
(0 0.0031074 0)
(0 0.00268909 0)
(0 0.00265984 0)
(0 1.18996e-05 0)
(0 0.000194236 0)
(0 0.0053208 0)
(0 0.00229182 0)
(0 0.000839935 0)
(0 0.00350691 0)
(0 0.00394638 0)
(0 0.00176884 0)
(0 0.00389305 0)
(0 0.000203254 0)
(0 0.00475541 0)
(0 0.00328666 0)
(0 0.00334619 0)
(0 0.00190249 0)
(0 0.00469836 0)
(0 0.00478342 0)
(0 0.00601286 0)
(0 0.000186178 0)
(0 0.00602769 0)
(0 0.0034416 0)
(0 0.00379778 0)
(0 0.00294822 0)
(0 0.000102141 0)
(0 0.00365099 0)
(0 0.00267369 0)
(0 0.000967231 0)
(0 0.00286629 0)
(0 0.00232953 0)
(0 0.00537313 0)
(0 0.00598005 0)
(0 0.00376764 0)
(0 0.00141132 0)
(0 0.00365672 0)
(0 0.0031591 0)
(0 0.00180706 0)
(0 0.00339206 0)
(0 0.00149736 0)
(0 0.00584858 0)
(0 0.00501953 0)
(0 0.00586353 0)
(0 0.00269527 0)
(0 0.00330483 0)
(0 0.0045347 0)
(0 0.00275593 0)
(0 0.000367673 0)
(0 0.00314013 0)
(0 0.00403796 0)
(0 0.00502162 0)
(0 0.00316918 0)
(0 0.00303507 0)
(0 0.000109313 0)
(0 0.00477296 0)
(0 0.0021142 0)
(0 0.00537134 0)
(0 0.00332936 0)
(0 0.00281191 0)
(0 0.00585514 0)
(0 0.00579817 0)
(0 0.00353303 0)
(0 0.00329698 0)
(0 0.000191726 0)
(0 0.004829 0)
(0 0.00599684 0)
(0 0.000136487 0)
(0 0.00568838 0)
(0 0.00291894 0)
(0 0.00294279 0)
(0 0.0034527 0)
(0 0.001386 0)
(0 0.00338497 0)
(0 0.00394094 0)
(0 0.00503127 0)
(0 0.00262122 0)
(0 0.00284726 0)
(0 0.00212028 0)
(0 4.98743e-05 0)
(0 4.77022e-05 0)
(0 0.00281861 0)
(0 0.00030376 0)
(0 0.00178371 0)
(0 0.00571056 0)
(0 0.00231635 0)
(0 0.00455926 0)
(0 0.0050888 0)
(0 0.00479143 0)
(0 0.00538526 0)
(0 0.00222089 0)
(0 0.004492 0)
(0 0.0054795 0)
(0 0.00436784 0)
(0 0.00269812 0)
(0 0.00324793 0)
(0 0.0053186 0)
(0 0.00276235 0)
(0 0.00028188 0)
(0 0.00405646 0)
(0 0.00304798 0)
(0 0.00215893 0)
(0 0.00174645 0)
(0 0.00420404 0)
(0 0.00417037 0)
(0 0.0046657 0)
(0 0.00304036 0)
(0 0.0052831 0)
(0 0.00211535 0)
(0 0.00340984 0)
(0 0.00445407 0)
(0 0.00222602 0)
(0 0.00020642 0)
(0 0.00328941 0)
(0 8.03667e-05 0)
(0 0.000105298 0)
(0 0.00286662 0)
(0 0.00409198 0)
(0 0.00473656 0)
(0 0.002157 0)
(0 0.00150355 0)
(0 0.00385862 0)
(0 0.00293925 0)
(0 0.000292653 0)
(0 0.000240955 0)
(0 0.00326845 0)
(0 0.00497258 0)
(0 0.000778919 0)
(0 0.00169224 0)
(0 0.0052562 0)
(0 0.000108902 0)
(0 0.000310169 0)
(0 0.000582305 0)
(0 0.00168318 0)
(0 0.00297975 0)
(0 0.00409316 0)
(0 0.00321762 0)
(0 0.000803894 0)
(0 0.00306454 0)
(0 0.00238841 0)
(0 0.00539271 0)
(0 0.00489494 0)
(0 0.00035973 0)
(0 4.59028e-05 0)
(0 0.00508751 0)
(0 0.00363462 0)
(0 0.00319194 0)
(0 0.00105516 0)
(0 0.00404342 0)
(0 0.002689 0)
(0 0.00577472 0)
(0 0.00535896 0)
(0 0.000311545 0)
(0 0.000438452 0)
(0 0.0022603 0)
(0 0.00385502 0)
(0 0.00357161 0)
(0 0.00518904 0)
(0 0.00575071 0)
(0 0.000473918 0)
(0 0.00220674 0)
(0 0.00359842 0)
(0 0.00425926 0)
(0 0.00384952 0)
(0 0.0048275 0)
(0 0.00333412 0)
(0 0.00470065 0)
(0 0.00378896 0)
(0 0.00327662 0)
(0 0.00433945 0)
(0 0.000282755 0)
(0 0.00350282 0)
(0 0.000260273 0)
(0 0.000124537 0)
(0 0.000997523 0)
(0 0.00370279 0)
(0 0.0058621 0)
(0 0.00277071 0)
(0 0.00160834 0)
(0 0.00250429 0)
(0 0.00283682 0)
(0 0.00486361 0)
(0 0.00534989 0)
(0 0.00189564 0)
(0 0.00308644 0)
(0 0.000511637 0)
(0 0.00312314 0)
(0 0.000349877 0)
(0 0.00407575 0)
(0 0.00322252 0)
(0 0.00375585 0)
(0 0.00423871 0)
(0 0.00410072 0)
(0 0.00481146 0)
(0 0.00198277 0)
(0 8.7186e-05 0)
(0 0.0039498 0)
(0 0.00323519 0)
(0 0.00321218 0)
(0 0.00356778 0)
(0 0.00337643 0)
(0 0.00422307 0)
(0 0.00490514 0)
(0 0.00595435 0)
(0 0.00351961 0)
(0 0.0045715 0)
(0 9.1499e-05 0)
(0 0.00243063 0)
(0 0.0023624 0)
(0 0.00147727 0)
(0 0.00239858 0)
(0 0.00399226 0)
(0 0.0052497 0)
(0 0.00335915 0)
(0 0.000377969 0)
(0 0.00343884 0)
(0 0.00473874 0)
(0 0.000277675 0)
(0 0.00532625 0)
(0 0.00535774 0)
(0 0.00348484 0)
(0 0.00333388 0)
(0 0.00176425 0)
(0 0.00464622 0)
(0 0.00553732 0)
(0 0.00356465 0)
(0 0.0054336 0)
(0 0.00261121 0)
(0 0.000151004 0)
(0 0.00411212 0)
(0 0.00344463 0)
(0 0.00604891 0)
(0 0.000914875 0)
(0 0.0037728 0)
(0 0.000132011 0)
(0 0.000465302 0)
(0 0.00201089 0)
(0 0.00346986 0)
(0 0.00409478 0)
(0 0.00596942 0)
(0 0.00340007 0)
(0 0.00149319 0)
(0 0.00371851 0)
(0 0.00343793 0)
(0 0.0020618 0)
(0 0.000177681 0)
(0 0.000511465 0)
(0 0.00309236 0)
(0 0.00283969 0)
(0 0.0036678 0)
(0 0.00226539 0)
(0 0.00301064 0)
(0 0.00433895 0)
(0 0.00147231 0)
(0 0.00480218 0)
(0 0.00463083 0)
(0 0.00403769 0)
(0 0.00140453 0)
(0 0.00292142 0)
(0 0.00374897 0)
(0 0.00259639 0)
(0 0.0049026 0)
(0 0.0021543 0)
(0 0.00404566 0)
(0 0.00569689 0)
(0 0.00357737 0)
(0 0.00569953 0)
(0 0.00467572 0)
(0 0.00471842 0)
(0 0.00235 0)
(0 0.0040287 0)
(0 0.000793723 0)
(0 0.00388384 0)
(0 0.00195069 0)
(0 0.00336839 0)
(0 0.00531568 0)
(0 0.00364404 0)
(0 0.00170296 0)
(0 0.00270104 0)
(0 0.000801346 0)
(0 0.00393463 0)
(0 0.00121564 0)
(0 0.00431902 0)
(0 0.00223355 0)
(0 0.00436595 0)
(0 0.00471853 0)
(0 0.00593735 0)
(0 0.000359464 0)
(0 0.00476946 0)
(0 0.0003452 0)
(0 0.00343568 0)
(0 0.00594607 0)
(0 0.00450981 0)
(0 0.0024375 0)
(0 0.00187446 0)
(0 0.00486009 0)
(0 0.00371208 0)
(0 0.00440237 0)
(0 0.00539928 0)
(0 0.0021371 0)
(0 0.00588377 0)
(0 0.00501805 0)
(0 0.00217643 0)
(0 0.00458299 0)
(0 0.00275862 0)
(0 0.00298948 0)
(0 0.000152232 0)
(0 0.00482865 0)
(0 0.000490121 0)
(0 0.00560286 0)
(0 0.00182155 0)
(0 0.00314992 0)
(0 0.00486487 0)
(0 0.00312816 0)
(0 0.00281717 0)
(0 0.000276849 0)
(0 0.00499062 0)
(0 0.00265149 0)
(0 0.00602002 0)
(0 0.00289114 0)
(0 0.00392396 0)
(0 7.62478e-05 0)
(0 0.000277544 0)
(0 8.25985e-05 0)
(0 0.00477826 0)
(0 0.0046407 0)
(0 0.0048137 0)
(0 0.00555086 0)
(0 0.00137822 0)
(0 0.000694243 0)
(0 0.00538659 0)
(0 0.00320598 0)
(0 0.000794982 0)
(0 0.00207375 0)
(0 0.00540172 0)
(0 0.00532094 0)
(0 0.00351337 0)
(0 0.00586478 0)
(0 0.00590975 0)
(0 0.000160694 0)
(0 0.000150975 0)
(0 0.00378258 0)
(0 0.00535583 0)
(0 0.00396172 0)
(0 0.000418434 0)
(0 0.000472732 0)
(0 0.00462424 0)
(0 0.00474869 0)
(0 0.00429544 0)
(0 3.71738e-05 0)
(0 0.00221717 0)
(0 0.000204479 0)
(0 0.00595323 0)
(0 0.00360577 0)
(0 0.00251671 0)
(0 0.00484183 0)
(0 0.0047051 0)
(0 0.00512532 0)
(0 0.00525635 0)
(0 0.0052578 0)
(0 0.00167378 0)
(0 0.00448231 0)
(0 0.00210424 0)
(0 0.00309791 0)
(0 0.0023282 0)
(0 0.00528033 0)
(0 0.00378856 0)
(0 0.00248457 0)
(0 0.00141986 0)
(0 0.00532431 0)
(0 0.00314732 0)
(0 0.00492077 0)
(0 0.00145065 0)
(0 0.00417403 0)
(0 0.00303044 0)
(0 0.00113434 0)
(0 0.00408237 0)
(0 0.00543588 0)
(0 0.00172506 0)
(0 0.00363528 0)
(0 0.00493735 0)
(0 0.00484824 0)
(0 0.00452835 0)
(0 0.00342168 0)
(0 5.93211e-05 0)
(0 0.00098642 0)
(0 0.00514273 0)
(0 0.00147153 0)
(0 0.00157207 0)
(0 0.00543325 0)
(0 0.00277324 0)
(0 0.00424611 0)
(0 0.00288577 0)
(0 0.00451653 0)
(0 5.38004e-05 0)
(0 0.00187438 0)
(0 0.00602617 0)
(0 0.00297516 0)
(0 0.00100955 0)
(0 0.000147928 0)
(0 0.0049359 0)
(0 0.00317848 0)
(0 0.00607004 0)
(0 0.00365797 0)
(0 0.00439945 0)
(0 0.00414421 0)
(0 0.000375777 0)
(0 0.00530755 0)
(0 0.00588289 0)
(0 0.00552049 0)
(0 0.00216993 0)
(0 0.00230529 0)
(0 0.0053111 0)
(0 0.00305087 0)
(0 0.000157376 0)
(0 0.00225179 0)
(0 0.00537472 0)
(0 0.0032619 0)
(0 0.00366357 0)
(0 0.00598187 0)
(0 0.00109953 0)
(0 0.00285402 0)
(0 0.000381094 0)
(0 0.00286889 0)
(0 0.00443717 0)
(0 0.00106631 0)
(0 0.00122202 0)
(0 0.000273452 0)
(0 0.00300965 0)
(0 0.00336216 0)
(0 0.00263393 0)
(0 0.0038533 0)
(0 0.00289518 0)
(0 0.00416724 0)
(0 0.00412988 0)
(0 0.00365681 0)
(0 0.00158066 0)
(0 0.00486963 0)
(0 0.00464085 0)
(0 0.00145413 0)
(0 0.00041845 0)
(0 0.00390888 0)
(0 0.00304644 0)
(0 0.00304505 0)
(0 0.00417602 0)
(0 0.00551985 0)
(0 0.00311762 0)
(0 0.00277789 0)
(0 0.00330892 0)
(0 0.00257492 0)
(0 0.00479304 0)
(0 0.00397612 0)
(0 0.00309846 0)
(0 0.00426418 0)
(0 0.0039486 0)
(0 0.00617036 0)
(0 0.00395468 0)
(0 0.00395831 0)
(0 0.00256621 0)
(0 0.000522925 0)
(0 0.00296723 0)
(0 0.00327954 0)
(0 0.00519142 0)
(0 0.00526927 0)
(0 0.00437508 0)
(0 0.0033345 0)
(0 1.81104e-05 0)
(0 0.0046145 0)
(0 0.00331279 0)
(0 0.0015858 0)
(0 0.0042705 0)
(0 0.000486853 0)
(0 0.00290333 0)
(0 0.000228166 0)
(0 0.00339634 0)
(0 0.00430788 0)
(0 0.00275471 0)
(0 0.00223548 0)
(0 0.000309166 0)
(0 0.00396304 0)
(0 0.00294128 0)
(0 0.00283606 0)
(0 0.00108091 0)
(0 0.000165092 0)
(0 0.00113444 0)
(0 0.00413374 0)
(0 0.00392856 0)
(0 0.00119042 0)
(0 0.00273917 0)
(0 0.000511505 0)
(0 0.000326919 0)
(0 0.00306506 0)
(0 0.00598252 0)
(0 0.00222725 0)
(0 0.00137407 0)
(0 0.00184688 0)
(0 0.00017638 0)
(0 0.00509595 0)
(0 0.00106244 0)
(0 0.00542538 0)
(0 0.000410219 0)
(0 8.14135e-05 0)
(0 0.00137622 0)
(0 0.00329215 0)
(0 0.0018027 0)
(0 0.00225491 0)
(0 0.00522238 0)
(0 0.00542471 0)
(0 0.00503929 0)
(0 0.00317683 0)
(0 0.00484521 0)
(0 0.00393086 0)
(0 0.00127967 0)
(0 0.000145542 0)
(0 0.00595855 0)
(0 0.00262967 0)
(0 0.00300868 0)
(0 0.00143517 0)
(0 0.00313278 0)
(0 0.00303005 0)
(0 0.00491512 0)
(0 0.0015997 0)
(0 0.00596686 0)
(0 0.00321452 0)
(0 0.00228512 0)
(0 0.00386382 0)
(0 0.00352703 0)
(0 0.00401075 0)
(0 0.00100775 0)
(0 0.00553893 0)
(0 0.00472531 0)
(0 0.00320054 0)
(0 0.00221085 0)
(0 0.00402887 0)
(0 0.00528545 0)
(0 0.001863 0)
(0 0.00120715 0)
(0 0.00358007 0)
(0 0.00283324 0)
(0 0.00396147 0)
(0 0.00515925 0)
(0 0.002771 0)
(0 0.00538618 0)
(0 0.00261497 0)
(0 0.00433203 0)
(0 0.00515062 0)
(0 0.00580939 0)
(0 0.00236415 0)
(0 0.0017396 0)
(0 0.000286137 0)
(0 0.00458912 0)
(0 0.00119114 0)
(0 0.0050428 0)
(0 0.0011872 0)
(0 0.00480244 0)
(0 0.00256082 0)
(0 0.00345298 0)
(0 0.00202834 0)
(0 0.00342011 0)
(0 0.00212448 0)
(0 0.00609095 0)
(0 0.00354285 0)
(0 0.00606409 0)
(0 0.00512032 0)
(0 0.00140501 0)
(0 0.00122152 0)
(0 0.00016787 0)
(0 0.00327679 0)
(0 0.00447728 0)
(0 0.0055134 0)
(0 0.000979452 0)
(0 0.00264851 0)
(0 0.00309232 0)
(0 0.00323516 0)
(0 0.0032172 0)
(0 0.00431318 0)
(0 0.0012136 0)
(0 0.000644837 0)
(0 0.0029606 0)
(0 0.00239769 0)
(0 0.0047229 0)
(0 0.00464143 0)
(0 0.00101765 0)
(0 0.00317413 0)
(0 0.00140957 0)
(0 0.00526852 0)
(0 0.00420553 0)
(0 0.000321641 0)
(0 0.00508537 0)
(0 0.00294696 0)
(0 0.00131423 0)
(0 0.00291737 0)
(0 0.00517746 0)
(0 0.00598333 0)
(0 0.00566025 0)
(0 0.0045839 0)
(0 0.000383183 0)
(0 0.00375538 0)
(0 0.00546989 0)
(0 0.00269173 0)
(0 0.00240058 0)
(0 0.00294065 0)
(0 0.00117932 0)
(0 0.00600143 0)
(0 0.00174054 0)
(0 0.00605671 0)
(0 0.00256424 0)
(0 0.00478568 0)
(0 0.0031074 0)
(0 0.00265727 0)
(0 0.00376715 0)
(0 0.00337499 0)
(0 0.00294576 0)
(0 0.00306061 0)
(0 0.00308025 0)
(0 0.00124395 0)
(0 0.00148903 0)
(0 0.00489191 0)
(0 0.00282966 0)
(0 0.00607595 0)
(0 0.0036726 0)
(0 0.00597722 0)
(0 0.00317544 0)
(0 0.00304432 0)
(0 0.00437054 0)
(0 0.00474816 0)
(0 0.0039201 0)
(0 0.00105321 0)
(0 0.00254183 0)
(0 0.0050516 0)
(0 0.00583141 0)
(0 0.00426274 0)
(0 0.00304729 0)
(0 0.00375766 0)
(0 0.00398018 0)
(0 0.00350667 0)
(0 0.00105482 0)
(0 0.000190976 0)
(0 0.00145788 0)
(0 0.00364581 0)
(0 0.00214756 0)
(0 0.00460064 0)
(0 0.000447171 0)
(0 0.000276781 0)
(0 0.0011855 0)
(0 0.00220499 0)
(0 0.00190725 0)
(0 0.0037377 0)
(0 0.000381177 0)
(0 3.03795e-05 0)
(0 0.00113065 0)
(0 0.00304745 0)
(0 0.000253394 0)
(0 0.00280825 0)
(0 0.00388117 0)
(0 0.00304398 0)
(0 0.00264676 0)
(0 0.00206183 0)
(0 0.00493315 0)
(0 0.00291174 0)
(0 0.00271838 0)
(0 0.000399457 0)
(0 0.00596778 0)
(0 0.000220527 0)
(0 0.00536078 0)
(0 0.00417549 0)
(0 0.00451344 0)
(0 0.00134803 0)
(0 0.00239787 0)
(0 0.00270835 0)
(0 0.00600707 0)
(0 0.00177984 0)
(0 0.00603957 0)
(0 0.00451001 0)
(0 0.00300546 0)
(0 0.000404808 0)
(0 0.00120584 0)
(0 0.00324858 0)
(0 0.00332075 0)
(0 0.00312111 0)
(0 0.00234419 0)
(0 0.0038509 0)
(0 0.00256512 0)
(0 0.00545246 0)
(0 0.004482 0)
(0 0.000302748 0)
(0 0.00372935 0)
(0 0.00369457 0)
(0 0.00262692 0)
(0 0.00394892 0)
(0 0.000191888 0)
(0 0.0042091 0)
(0 0.00138788 0)
(0 0.00541947 0)
(0 0.00188068 0)
(0 0.000158793 0)
(0 0.00104348 0)
(0 0.00301029 0)
(0 0.00267375 0)
(0 0.00233582 0)
(0 0.0048602 0)
(0 0.00519738 0)
(0 0.00135257 0)
(0 0.00117231 0)
(0 0.00290822 0)
(0 0.00433715 0)
(0 0.00176244 0)
(0 0.000387889 0)
(0 0.00244731 0)
(0 0.00324223 0)
(0 0.00116965 0)
(0 0.0053473 0)
(0 0.00112452 0)
(0 0.00384317 0)
(0 0.00254395 0)
(0 0.00248179 0)
(0 0.00445701 0)
(0 0.0060395 0)
(0 0.00221316 0)
(0 0.00510178 0)
(0 0.00483729 0)
(0 0.00109866 0)
(0 0.000391068 0)
(0 0.00585958 0)
(0 0.00422215 0)
(0 0.00351814 0)
(0 0.00363803 0)
(0 0.000253026 0)
(0 0.00382143 0)
(0 0.00124985 0)
(0 0.00441015 0)
(0 0.00537948 0)
(0 0.00109719 0)
(0 0.00377968 0)
(0 0.00421272 0)
(0 0.00181169 0)
(0 0.00474235 0)
(0 0.00492231 0)
(0 0.00249746 0)
(0 0.00114326 0)
(0 0.00115417 0)
(0 0.00242057 0)
(0 0.00405803 0)
(0 0.00281772 0)
(0 0.00435678 0)
(0 0.00167394 0)
(0 0.00257435 0)
(0 0.00467168 0)
(0 0.0010497 0)
(0 3.83126e-05 0)
(0 3.35354e-05 0)
(0 0.00184299 0)
(0 0.00471018 0)
(0 0.00362395 0)
(0 0.00234988 0)
(0 0.00488953 0)
(0 0.00286309 0)
(0 0.00335614 0)
(0 0.00513491 0)
(0 0.0045137 0)
(0 0.00509235 0)
(0 0.00299169 0)
(0 0.00241586 0)
(0 0.00389762 0)
(0 0.00409522 0)
(0 0.00467954 0)
(0 0.00267479 0)
(0 0.00109961 0)
(0 0.00361419 0)
(0 0.00518586 0)
(0 0.0030346 0)
(0 0.000203032 0)
(0 0.00187496 0)
(0 0.00253465 0)
(0 0.00354205 0)
(0 0.00065999 0)
(0 0.00263328 0)
(0 0.00281097 0)
(0 0.0051878 0)
(0 0.00371441 0)
(0 0.00249932 0)
(0 0.00426727 0)
(0 0.00269838 0)
(0 0.00373981 0)
(0 0.00170746 0)
(0 0.00435646 0)
(0 0.00219716 0)
(0 0.00586397 0)
(0 0.0019454 0)
(0 0.00432695 0)
(0 0.00311369 0)
(0 0.00355468 0)
(0 0.00555443 0)
(0 0.00349978 0)
(0 0.00119117 0)
(0 0.00363309 0)
(0 0.00306421 0)
(0 0.00478017 0)
(0 0.000412682 0)
(0 0.00602059 0)
(0 0.00267129 0)
(0 0.00248752 0)
(0 0.00595491 0)
(0 0.00272678 0)
(0 0.00532978 0)
(0 0.00367167 0)
(0 0.00260731 0)
(0 0.00291438 0)
(0 0.00245947 0)
(0 0.00152111 0)
(0 0.00316235 0)
(0 0.00473845 0)
(0 0.00483593 0)
(0 0.00152106 0)
(0 0.00337493 0)
(0 0.000693698 0)
(0 0.0012583 0)
(0 0.00601518 0)
(0 0.00349509 0)
(0 0.00386084 0)
(0 0.00260383 0)
(0 6.30064e-05 0)
(0 0.0011614 0)
(0 0.00286721 0)
(0 0.00469645 0)
(0 0.00221571 0)
(0 0.0013175 0)
(0 0.00612855 0)
(0 0.00344796 0)
(0 0.00446505 0)
(0 0.00105757 0)
(0 0.00413232 0)
(0 0.00417076 0)
(0 0.00252846 0)
(0 0.00438379 0)
(0 0.00404692 0)
(0 0.00542282 0)
(0 0.00615056 0)
(0 0.00322693 0)
(0 2.1058e-05 0)
(0 0.00424827 0)
(0 0.00603786 0)
(0 0.0034579 0)
(0 0.0053738 0)
(0 0.00344902 0)
(0 0.00359426 0)
(0 0.00157611 0)
(0 0.00366442 0)
(0 0.00358547 0)
(0 0.00407113 0)
(0 0.00319728 0)
(0 0.00548928 0)
(0 0.00536522 0)
(0 0.00339932 0)
(0 0.0056399 0)
(0 0.00245401 0)
(0 0.00252243 0)
(0 0.0051644 0)
(0 0.00404908 0)
(0 0.00431091 0)
(0 0.00258816 0)
(0 0.0048601 0)
(0 0.000422328 0)
(0 0.00353766 0)
(0 0.00541077 0)
(0 0.00110052 0)
(0 0.00225781 0)
(0 0.00276398 0)
(0 0.00173425 0)
(0 0.00363132 0)
(0 0.00220398 0)
(0 0.00608831 0)
(0 0.00369389 0)
(0 0.00616889 0)
(0 0.00556009 0)
(0 0.000981933 0)
(0 0.00603139 0)
(0 0.00529539 0)
(0 0.00228768 0)
(0 0.00517912 0)
(0 0.00209402 0)
(0 0.00590354 0)
(0 0.0036326 0)
(0 0.00234172 0)
(0 0.00424292 0)
(0 0.00587762 0)
(0 0.0021871 0)
(0 0.00346071 0)
(0 0.00335257 0)
(0 0.00325714 0)
(0 0.00134433 0)
(0 0.00408693 0)
(0 0.00514451 0)
(0 0.000447888 0)
(0 0.00535788 0)
(0 0.00311327 0)
(0 0.00416566 0)
(0 0.000316867 0)
(0 0.002956 0)
(0 0.00144972 0)
(0 0.00535627 0)
(0 0.00435007 0)
(0 0.00035644 0)
(0 0.00181962 0)
(0 0.0046207 0)
(0 0.00611797 0)
(0 0.00261229 0)
(0 0.00189993 0)
(0 0.00345251 0)
(0 0.00282986 0)
(0 0.00157773 0)
(0 0.00436468 0)
(0 0.000699458 0)
(0 0.0043536 0)
(0 0.00309548 0)
(0 0.00168053 0)
(0 0.00258655 0)
(0 0.000846518 0)
(0 0.00147665 0)
(0 0.00319116 0)
(0 9.46352e-05 0)
(0 0.00449009 0)
(0 0.00265467 0)
(0 0.00437688 0)
(0 0.00370148 0)
(0 0.00408494 0)
(0 0.00344374 0)
(0 0.00446366 0)
(0 0.00538531 0)
(0 0.0052119 0)
(0 0.00530106 0)
(0 0.00415984 0)
(0 0.00281019 0)
(0 0.000844453 0)
(0 0.00318848 0)
(0 0.000859041 0)
(0 0.000843309 0)
(0 0.0016101 0)
(0 0.00382982 0)
(0 0.00548344 0)
(0 0.00378513 0)
(0 0.000835254 0)
(0 0.00360827 0)
(0 0.00575671 0)
(0 8.88269e-05 0)
(0 0.00316829 0)
(0 0.00156115 0)
(0 0.00483303 0)
(0 0.00590687 0)
(0 0.000868668 0)
(0 0.00321998 0)
(0 0.00329148 0)
(0 0.00531807 0)
(0 0.00327127 0)
(0 0.00478547 0)
(0 0.00378732 0)
(0 0.00324363 0)
(0 0.00307575 0)
(0 0.00306999 0)
(0 0.00110077 0)
(0 4.75161e-05 0)
(0 0.00249109 0)
(0 0.0057873 0)
(0 0.00087313 0)
(0 0.002741 0)
(0 0.000873521 0)
(0 0.00241803 0)
(0 0.00290315 0)
(0 0.00418619 0)
(0 0.000752855 0)
(0 0.00208721 0)
(0 0.00581857 0)
(0 0.0026564 0)
(0 0.00221373 0)
(0 0.00297446 0)
(0 0.00276725 0)
(0 0.00240569 0)
(0 0.00510098 0)
(0 0.000356637 0)
(0 0.000463437 0)
(0 0.00281205 0)
(0 0.00482942 0)
(0 0.00339034 0)
(0 0.00142429 0)
(0 0.00406646 0)
(0 0.0061645 0)
(0 0.000165411 0)
(0 0.00248959 0)
(0 0.00305369 0)
(0 0.00363833 0)
(0 0.00317378 0)
(0 0.00500781 0)
(0 0.00598777 0)
(0 0.00293083 0)
(0 0.00514577 0)
(0 0.00180122 0)
(0 0.002576 0)
(0 0.00246138 0)
(0 0.00117064 0)
(0 0.00213739 0)
(0 0.00105741 0)
(0 0.000957229 0)
(0 0.000200526 0)
(0 0.00311266 0)
(0 0.000824805 0)
(0 0.00276772 0)
(0 0.00275332 0)
(0 0.00215857 0)
(0 0.00262065 0)
(0 0.000806946 0)
(0 0.00198279 0)
(0 0.00298366 0)
(0 0.00083723 0)
(0 0.00579527 0)
(0 0.00444472 0)
(0 0.00033665 0)
(0 0.00239765 0)
(0 0.00256903 0)
(0 0.00110034 0)
(0 0.00133267 0)
(0 0.00170997 0)
(0 0.00298419 0)
(0 0.00128928 0)
(0 0.00316947 0)
(0 0.00238242 0)
(0 0.00338566 0)
(0 0.00313639 0)
(0 0.00593747 0)
(0 0.00189993 0)
(0 0.00506593 0)
(0 0.00227429 0)
(0 0.00121351 0)
(0 0.00137119 0)
(0 0.0022785 0)
(0 0.000867628 0)
(0 0.00346795 0)
(0 0.00145832 0)
(0 0.00591806 0)
(0 0.0047732 0)
(0 0.00405857 0)
(0 0.00428487 0)
(0 0.00255289 0)
(0 0.00160335 0)
(0 0.000501557 0)
(0 0.000209628 0)
(0 0.00439712 0)
(0 0.00420394 0)
(0 0.000222354 0)
(0 0.00460157 0)
(0 0.00459623 0)
(0 0.00308344 0)
(0 0.00122839 0)
(0 0.00428895 0)
(0 0.00466793 0)
(0 0.000986917 0)
(0 0.00392549 0)
(0 0.00616826 0)
(0 0.00523592 0)
(0 0.000856913 0)
(0 0.00110709 0)
(0 0.00105967 0)
(0 0.00571352 0)
(0 0.00240428 0)
(0 0.00399863 0)
(0 0.00116094 0)
(0 0.00281155 0)
(0 0.00290115 0)
(0 0.00371946 0)
(0 0.00234846 0)
(0 0.00285836 0)
(0 0.00334766 0)
(0 0.00251244 0)
(0 0.00249331 0)
(0 0.0026497 0)
(0 0.00141236 0)
(0 0.0033638 0)
(0 5.74101e-05 0)
(0 0.00294652 0)
(0 0.000783586 0)
(0 0.00444488 0)
(0 0.00337232 0)
(0 0.00420672 0)
(0 0.00230305 0)
(0 0.00484505 0)
(0 0.00010286 0)
(0 0.00275009 0)
(0 0.0035156 0)
(0 0.00222513 0)
(0 0.00330952 0)
(0 0.00206339 0)
(0 0.00609656 0)
(0 0.00284237 0)
(0 0.00282504 0)
(0 0.0049964 0)
(0 0.00196995 0)
(0 0.00091053 0)
(0 0.00202979 0)
(0 0.00385175 0)
(0 0.00234679 0)
(0 0.00331201 0)
(0 0.00128356 0)
(0 0.00423559 0)
(0 0.00267644 0)
(0 0.00462435 0)
(0 0.000391995 0)
(0 0.00293555 0)
(0 0.00222465 0)
(0 0.00411839 0)
(0 0.00583838 0)
(0 0.00136018 0)
(0 0.00524352 0)
(0 0.00117707 0)
(0 0.00605254 0)
(0 0.00329285 0)
(0 0.002981 0)
(0 0.00514492 0)
(0 0.00260558 0)
(0 0.00506459 0)
(0 0.00123683 0)
(0 0.00154949 0)
(0 0.0010245 0)
(0 0.00297212 0)
(0 0.00311099 0)
(0 0.001343 0)
(0 0.00123519 0)
(0 0.00233485 0)
(0 0.00111937 0)
(0 0.00320599 0)
(0 0.000399787 0)
(0 0.00304298 0)
(0 0.00422059 0)
(0 0.00195068 0)
(0 0.00537661 0)
(0 0.00149468 0)
(0 0.00202196 0)
(0 0.000840961 0)
(0 0.00101123 0)
(0 0.00559236 0)
(0 0.00330257 0)
(0 0.00257214 0)
(0 0.00320699 0)
(0 0.00130123 0)
(0 0.00348109 0)
(0 0.00328148 0)
(0 0.00587516 0)
(0 0.00325052 0)
(0 0.00481671 0)
(0 0.00552894 0)
(0 0.000198605 0)
(0 0.00296717 0)
(0 0.00324746 0)
(0 0.00590977 0)
(0 0.00296871 0)
(0 0.0053167 0)
(0 0.00244426 0)
(0 0.00350172 0)
(0 0.0031873 0)
(0 0.00550602 0)
(0 0.00424053 0)
(0 0.00140208 0)
(0 0.00533296 0)
(0 0.00019404 0)
(0 0.00377776 0)
(0 0.00228286 0)
(0 0.00260625 0)
(0 0.00385338 0)
(0 0.00234491 0)
(0 0.00301684 0)
(0 0.00247825 0)
(0 0.00186997 0)
(0 0.00228866 0)
(0 0.000218954 0)
(0 0.00292601 0)
(0 0.00534687 0)
(0 0.00338706 0)
(0 0.00312386 0)
(0 0.00189331 0)
(0 0.00287399 0)
(0 0.00188587 0)
(0 0.00256751 0)
(0 0.00196578 0)
(0 0.0031148 0)
(0 0.00316268 0)
(0 0.001725 0)
(0 0.00338703 0)
(0 0.00296986 0)
(0 0.00246325 0)
(0 0.00144724 0)
(0 0.0012807 0)
(0 0.00209592 0)
(0 0.000203443 0)
(0 0.00297892 0)
(0 0.0029301 0)
(0 0.00301418 0)
(0 0.00573234 0)
(0 0.000159176 0)
(0 0.00301908 0)
(0 0.00352637 0)
(0 0.00499736 0)
(0 0.00330719 0)
(0 0.00340001 0)
(0 0.00285331 0)
(0 0.00121892 0)
(0 0.00202388 0)
(0 0.00194329 0)
(0 0.00523877 0)
(0 0.00302238 0)
(0 0.00269241 0)
(0 0.00241911 0)
(0 0.00201577 0)
(0 0.00377146 0)
(0 0.00094454 0)
(0 0.00255506 0)
(0 0.00329698 0)
(0 0.00332284 0)
(0 0.00283523 0)
(0 0.00281376 0)
(0 0.00438199 0)
(0 0.00376942 0)
(0 0.00354799 0)
(0 0.00330386 0)
(0 0.00414058 0)
(0 9.5017e-05 0)
(0 0.00146392 0)
(0 0.00104546 0)
(0 0.00185761 0)
(0 0.000219657 0)
(0 0.00267841 0)
(0 0.00200792 0)
(0 0.00264089 0)
(0 0.00302363 0)
(0 0.00286014 0)
(0 0.00279024 0)
(0 0.00325792 0)
(0 0.0036322 0)
(0 0.00329206 0)
(0 0.00416593 0)
(0 0.00241668 0)
(0 0.0022781 0)
(0 0.00333254 0)
(0 0.00028714 0)
(0 0.00432801 0)
(0 0.000100528 0)
(0 0.00422568 0)
(0 0.00372567 0)
(0 0.00321201 0)
(0 0.00127598 0)
(0 0.00258016 0)
(0 0.0037546 0)
(0 0.00341458 0)
(0 0.00182444 0)
(0 0.00314375 0)
(0 0.00135637 0)
(0 0.00299575 0)
(0 0.00350208 0)
(0 6.61911e-05 0)
(0 0.00144161 0)
(0 0.00306037 0)
(0 0.00191979 0)
(0 0.00153132 0)
(0 0.00398803 0)
(0 0.00317908 0)
(0 0.00326254 0)
(0 0.00287077 0)
(0 0.00204713 0)
(0 0.000391808 0)
(0 0.00268759 0)
(0 0.00591372 0)
(0 0.00325109 0)
(0 0.0037433 0)
(0 0.00258354 0)
(0 0.00305518 0)
(0 0.00180618 0)
(0 0.00399014 0)
(0 0.00262841 0)
(0 0.00388157 0)
(0 0.00247148 0)
(0 0.00204496 0)
(0 0.0027151 0)
(0 0.000185154 0)
(0 0.00187207 0)
(0 0.0033867 0)
(0 0.0061653 0)
(0 0.00550362 0)
(0 0.00226315 0)
(0 0.00398953 0)
(0 0.00234492 0)
(0 0.00383942 0)
(0 0.000502409 0)
(0 0.00289775 0)
(0 0.00345796 0)
(0 0.00367293 0)
(0 0.000416536 0)
(0 0.00370771 0)
(0 0.00365822 0)
(0 0.00156811 0)
(0 0.00373539 0)
(0 0.00350035 0)
(0 0.00413037 0)
(0 0.00119686 0)
(0 0.00596281 0)
(0 0.00179007 0)
(0 0.00211907 0)
(0 0.00336568 0)
(0 0.00294039 0)
(0 0.00372302 0)
(0 0.00449089 0)
(0 0.00276098 0)
(0 0.00205744 0)
(0 0.00584874 0)
(0 0.00358115 0)
(0 0.00196238 0)
(0 0.00402743 0)
(0 0.00383769 0)
(0 0.00390014 0)
(0 0.00241099 0)
(0 0.00371291 0)
(0 0.00292291 0)
(0 0.00316071 0)
(0 0.00277716 0)
(0 0.00523387 0)
(0 0.00514267 0)
(0 0.00256247 0)
(0 0.00236571 0)
(0 0.00129279 0)
(0 0.00311329 0)
(0 0.00275962 0)
(0 0.00332925 0)
(0 0.00360955 0)
(0 0.00255499 0)
(0 0.00403954 0)
(0 0.00601745 0)
(0 0.00381097 0)
(0 0.00380372 0)
(0 0.00338192 0)
(0 0.000204762 0)
(0 0.00282617 0)
(0 0.00321885 0)
(0 0.00265415 0)
(0 0.00228857 0)
(0 0.000769972 0)
(0 0.00380135 0)
(0 0.00521496 0)
(0 0.00338509 0)
(0 0.00316092 0)
(0 0.00340812 0)
(0 0.00349055 0)
(0 0.00129322 0)
(0 0.00227216 0)
(0 0.00282916 0)
(0 0.00352837 0)
(0 0.00598068 0)
(0 0.00265385 0)
(0 0.00331431 0)
(0 0.0045434 0)
(0 0.00302694 0)
(0 0.0021821 0)
(0 0.00406333 0)
(0 0.00250327 0)
(0 0.00354003 0)
(0 0.00386801 0)
(0 0.00340081 0)
(0 0.0043957 0)
(0 0.00517942 0)
(0 0.00354256 0)
(0 0.00245599 0)
(0 0.00323725 0)
(0 0.000671493 0)
(0 0.00245092 0)
(0 0.00403303 0)
(0 0.00122282 0)
(0 0.00439864 0)
(0 0.00316059 0)
(0 0.00247823 0)
(0 0.00421136 0)
(0 0.00421678 0)
(0 0.00301653 0)
(0 0.00404312 0)
(0 0.00459429 0)
(0 0.0036777 0)
(0 0.00554746 0)
(0 0.00310871 0)
(0 0.00324998 0)
(0 0.0025312 0)
(0 0.00448187 0)
(0 0.00322231 0)
(0 0.0039419 0)
(0 0.0035887 0)
(0 0.00417574 0)
(0 0.00591064 0)
(0 0.00300095 0)
(0 0.00113704 0)
(0 0.00228643 0)
(0 0.00455027 0)
(0 0.00130545 0)
(0 0.00371854 0)
(0 0.00461627 0)
(0 0.00479377 0)
(0 0.00116067 0)
(0 0.00377702 0)
(0 0.00192214 0)
(0 0.00579428 0)
(0 8.85535e-05 0)
(0 0.00370001 0)
(0 0.004101 0)
(0 0.00416196 0)
(0 0.000807187 0)
(0 0.00540765 0)
(0 0.00333067 0)
(0 0.0012414 0)
(0 0.00331452 0)
(0 0.00275013 0)
(0 0.00368071 0)
(0 0.000847446 0)
(0 0.00378437 0)
(0 0.00174492 0)
(0 0.00330034 0)
(0 0.00233943 0)
(0 0.00287152 0)
(0 0.00430329 0)
(0 0.00273457 0)
(0 0.00584315 0)
(0 0.00612672 0)
(0 0.00561554 0)
(0 0.0037615 0)
(0 0.00186153 0)
(0 0.00266691 0)
(0 0.00310312 0)
(0 0.00329225 0)
(0 0.00110798 0)
(0 0.00203669 0)
(0 0.00498374 0)
(0 0.00181368 0)
(0 0.00592522 0)
(0 0.00351085 0)
(0 0.0060149 0)
(0 0.00528741 0)
(0 0.00411311 0)
(0 0.00221858 0)
(0 0.00172769 0)
(0 0.00578207 0)
(0 0.00615247 0)
(0 0.00480411 0)
(0 0.00298845 0)
(0 0.00554833 0)
(0 0.00121588 0)
(0 0.00189565 0)
(0 0.00609301 0)
(0 0.00327276 0)
(0 0.000189167 0)
(0 0.000137288 0)
(0 0.00107886 0)
(0 0.00328666 0)
(0 0.00442159 0)
(0 0.0051107 0)
(0 0.00460228 0)
(0 0.00277184 0)
(0 0.00601232 0)
(0 0.00355982 0)
(0 0.00398355 0)
(0 0.000225818 0)
(0 0.00307029 0)
(0 0.000210218 0)
(0 0.00562433 0)
(0 0.00317189 0)
(0 0.00295153 0)
(0 0.00373942 0)
(0 0.00320202 0)
(0 0.00130777 0)
(0 0.00447618 0)
(0 0.00334039 0)
(0 0.00223752 0)
(0 0.00320808 0)
(0 7.61386e-05 0)
(0 0.00139404 0)
(0 0.00175204 0)
(0 0.00324957 0)
(0 0.00336832 0)
(0 0.001971 0)
(0 0.0029786 0)
(0 0.0028908 0)
(0 0.0032077 0)
(0 0.00120105 0)
(0 0.00270417 0)
(0 0.00363631 0)
(0 0.00563801 0)
(0 0.00247067 0)
(0 0.00324378 0)
(0 0.00341515 0)
(0 0.00453835 0)
(0 0.00239058 0)
(0 0.00112162 0)
(0 0.00186383 0)
(0 0.00325769 0)
(0 0.00311409 0)
(0 0.00362752 0)
(0 0.00461071 0)
(0 0.00179499 0)
(0 0.00188282 0)
(0 0.00257812 0)
(0 0.00333444 0)
(0 0.00508423 0)
(0 0.0026693 0)
(0 0.00305049 0)
(0 0.00207657 0)
(0 0.00347508 0)
(0 0.00439474 0)
(0 0.00540294 0)
(0 0.0029919 0)
(0 0.00319998 0)
(0 0.00579713 0)
(0 0.00187421 0)
(0 0.00375782 0)
(0 0.00208333 0)
(0 0.000489918 0)
(0 0.00326773 0)
(0 0.00340211 0)
(0 0.00444042 0)
(0 0.00195362 0)
(0 0.00508237 0)
(0 0.00302535 0)
(0 0.00492563 0)
(0 0.00248724 0)
(0 0.00347925 0)
(0 0.00467996 0)
(0 0.00150116 0)
(0 0.00338728 0)
(0 0.00547809 0)
(0 0.003088 0)
(0 0.00049584 0)
(0 0.00259481 0)
(0 0.00347831 0)
(0 0.00295896 0)
(0 0.00348256 0)
(0 0.00394317 0)
(0 0.00427694 0)
(0 0.00256999 0)
(0 0.00350377 0)
(0 0.00180267 0)
(0 0.00316108 0)
(0 0.0031144 0)
(0 0.00278776 0)
(0 0.00290341 0)
(0 0.00266292 0)
(0 0.00271178 0)
(0 0.00166901 0)
(0 0.0038158 0)
(0 0.00215914 0)
(0 0.00321026 0)
(0 0.00377323 0)
(0 0.00440565 0)
(0 0.00490396 0)
(0 0.000490035 0)
(0 0.00584874 0)
(0 0.00216017 0)
(0 0.000728193 0)
(0 0.00576202 0)
(0 0.00292603 0)
(0 0.00442917 0)
(0 0.00333281 0)
(0 0.00461114 0)