/*--------------------------------*- C++ -*----------------------------------*\
| =========                 |                                                 |
| \\      /  F ield         | OpenFOAM: The Open Source CFD Toolbox           |
|  \\    /   O peration     | Version:  v2012                                 |
|   \\  /    A nd           | Website:  www.openfoam.com                      |
|    \\/     M anipulation  |                                                 |
\*---------------------------------------------------------------------------*/
FoamFile
{
    version     2.0;
    format      ascii;
    class       surfaceScalarField;
    location    "450";
    object      meshPhi;
}
// * * * * * * * * * * * * * * * * * * * * * * * * * * * * * * * * * * * * * //

dimensions      [0 3 -1 0 0 0 0];
oriented        oriented;


internalField   nonuniform List<scalar> 
14516
(
0.00359605
0.0107492
-0.0143496
4.14302e-06
0.000160707
-0.000159229
-0.0121286
0.0157198
-0.00594901
0.00810525
-0.00136906
-0.0204481
0.0142608
0.00614592
0.0205256
-0.00255701
-0.0178057
-0.00176889
0.000151529
0.00230775
0.0129642
-0.0114191
-0.00114583
-0.0166434
-0.00164654
0.0184161
-0.00852003
-0.011969
-0.0116838
0.0145501
-0.00288968
-0.0173493
0.0012867
0.016083
-0.00600092
0.000987835
0.000167779
0.00259069
-0.00270362
0.000482984
0.000336929
0.00250567
5.3784e-05
-0.00249607
0.0116636
-0.00396052
-0.00757131
0.00403884
0.00777352
-0.0188529
0.00188304
0.0169664
0.00272996
0.00154393
0.0175326
-0.0190556
-0.00191775
0.0159821
-0.0140231
-0.00713851
0.00243051
0.00474195
5.27469e-05
-5.27469e-05
-0.0183466
0.00248364
0.016059
-0.00384349
-0.00116767
-0.0023102
-1.99244e-05
0.0023886
0.000263551
0.00839724
-0.00851537
0.0176142
-0.005887
-0.011736
-0.0178385
0.00133043
-0.0175958
0.0209979
-0.00332818
-0.00138355
-0.00568696
-0.0127131
0.00267783
0.0100654
0.0002845
0.000273303
-0.000368864
-0.00650502
0.020025
-0.0135269
-0.0200814
0.00222815
0.0178545
-2.50959e-05
-0.00116628
0.0144449
-0.0163191
-0.0150782
0.0115621
0.00387552
0.000295945
-0.00148579
0.00149346
-0.0225517
0.00504657
0.00163614
-0.000341166
-0.00238799
0.00409625
-0.000760535
0.000208074
-0.00178674
0.00224998
-0.00241865
0.00120892
0.0010265
0.0111022
-0.000408171
0.00435875
-0.00391364
0.00265678
0.0175053
-0.0201405
0.00219726
0.00661749
0.00921144
0.0108106
-0.000226081
0.0118556
-0.0116504
-0.0205348
0.0049334
0.0157194
0.0202532
-0.0208975
0.000809871
-0.00173938
0.0108705
-0.00913308
-0.0192587
0.0198492
-0.000589787
0.0138052
-0.0145683
0.0128976
-0.00329351
-0.00962053
-0.0176364
-0.00062286
0.0182736
-0.00995925
-0.00483662
-2.6575e-05
-0.000759598
0.00107386
-0.0193857
0.00309581
0.0163973
-0.0166235
0.0189696
-0.00232506
-0.00234107
0.0057919
-0.0020815
-0.0111326
-0.00594511
0.00156436
0.0115428
-0.0130683
-0.0207851
0.00419398
0.0180583
-0.020109
0.00207793
-0.00234019
-0.0149821
0.000937777
-0.0126457
0.0109435
-0.0126846
-1.62864e-05
-1.48383e-20
1.81493e-05
-0.0188145
0.00344061
0.0156942
0.000290803
-0.000248391
-3.96053e-05
-0.00422454
0.0134369
0.000382943
-0.0179993
0.00194989
0.0146516
-0.0162834
-0.000133994
7.9294e-09
0.000135624
0.0109881
-0.00267906
-0.00818951
0.0129879
-0.00403954
-0.00877428
0.0107902
-0.00918883
0.0125394
-0.00289877
-0.00948072
-0.000181421
-1.59153e-06
0.000184437
5.48909e-05
0.0044764
-0.00447079
-0.0207557
-0.00169904
-0.000322072
0.00429296
-0.00392743
0.00915458
0.00399286
-3.58683e-05
0.0157273
-0.0154051
0.0175281
-0.0181801
0.00080113
-0.0137607
0.00313799
0.0107995
0.000234507
-0.000225338
0.00148537
0.0127353
-0.0142353
-0.00463721
0.00377979
0.000954936
-0.0070786
0.00575688
-0.00174987
0.00467436
-0.00455916
-0.0196837
0.000420955
-0.000165376
-1.08962e-05
-0.0013273
-0.00320883
-0.000661135
0.00294796
-0.00218979
0.00247633
-0.00303001
-0.0137932
0.00251073
0.0114842
-0.00580904
0.00122887
0.0047307
-0.00441634
-0.00123894
-0.000120258
-6.76673e-06
-0.0221803
0.00151884
-0.0209602
0.00289893
-0.00117662
2.05605e-05
0.00159775
-0.0170385
-0.00334743
0.000726196
0.00331224
-0.00401764
-6.83911e-08
-1.13905e-05
-0.000713482
-0.0181431
0.0188699
-0.0185969
0.0154566
0.00454287
-0.0226132
0.0180571
-0.0115348
0.0112885
0.0160643
-0.00179163
0.0111116
-0.00927818
0.00908911
-0.0133134
0.00220484
0.0104981
-0.00586406
-0.00113432
-0.00288658
0.00363111
8.87972e-06
-1.88772e-06
-2.27468e-06
-0.0158501
0.0168019
-0.000527223
0.000712238
0.0199439
0.000813456
0.0151191
-0.0158517
0.019004
-0.0174397
0.0121195
-0.00287459
-0.00925983
-0.00435272
0.00407367
0.00176733
0.00934823
0.0195703
-0.00482009
-0.0143386
-4.24111e-06
-1.99295e-05
3.65387e-05
0.0148864
0.00972581
0.010143
0.00140063
0.0123498
-0.0135817
-0.0139754
-0.0037146
-0.000663869
0.0162836
-0.0153455
-0.00273042
0.0017083
-0.00159228
0.00245488
-0.00189852
-0.0160653
-0.000525166
0.000576963
8.34085e-06
-9.43257e-05
-0.0153619
-0.018758
0.00183995
0.0171121
-0.000193153
0.00421805
-0.00326435
0.000613342
-0.00270945
0.00217151
0.00275089
-0.000107707
-0.00020633
-0.00268065
0.00294058
-2.72047e-06
-4.42021e-05
5.18326e-05
-0.00263286
0.00333493
-0.00572247
0.00163305
0.00421224
-0.0112009
0.0126723
-0.0127843
-0.00294572
0.0157073
4.37587e-05
-3.48034e-05
-0.0165736
0.0037626
0.00630503
-0.0148614
-0.00153427
-0.00405662
7.19019e-06
5.00133e-06
2.30406e-05
-0.000212723
0.000249133
-0.00254283
-0.0160226
0.000706022
-0.00322493
0.00340609
-0.00295357
0.00960109
0.00370316
-0.00716868
0.0075628
-0.000159646
-0.00208966
0.00230504
0.00361127
-0.0221221
0.0185051
0.000218431
-6.92605e-05
-0.000147298
0.0208845
-0.00332614
0.00391983
0.0176387
-0.0161906
-0.00142289
-0.00241898
0.000161232
-0.00215515
0.0135213
-0.0111755
0.0242315
-0.00695308
-0.0170059
-0.00806435
0.0159573
-0.00789673
0.000158072
6.81866e-05
0.00629746
-0.0143413
0.0016806
0.0134705
-0.015071
-0.0152469
0.0153319
0.000111674
-8.82683e-05
-1.6426e-05
-0.00318767
0.0152847
-0.0117787
-0.0187229
0.00859187
0.0101442
-0.0114145
0.00859806
0.00281421
0.016298
-0.0151398
-0.0011278
0.0032905
-0.0163233
-0.0175562
-0.000371723
0.0179409
-0.0184239
-1.16178e-05
0.00284045
0.0100383
0.0112749
-0.014157
0.000385574
-0.0163154
0.0163391
0.00216331
-0.0022689
0.0156729
-0.0139076
-0.0107596
0.000162863
0.0112076
-0.0177428
0.0204212
0.0178268
-0.0185267
-0.00271258
-0.00455352
-0.014157
0.0218494
-0.00547338
-0.0163758
0.00120123
0.0108033
-0.0118277
0.0163021
-0.0100343
-3.71908e-05
-0.000437454
-0.0165071
0.0026548
0.00686224
0.0127489
-0.019613
3.34705e-05
0.0198134
0.0166696
-0.0126479
-0.00365286
0.00113621
0.015398
-0.00011537
-2.14345e-06
0.000811976
-9.06613e-05
-0.00237255
0.00252364
-0.0199714
-0.00212124
0.0157288
0.000376004
-0.0160596
-0.000805729
-0.0124855
0.0132983
0.00128242
-0.0189995
-0.00198536
0.0195188
0.0150723
0.0052819
0.00978887
0.0120635
-0.000180878
0.000264912
0.00169899
0.0114732
-0.0130001
0.00103031
-0.018574
-0.000119458
7.53989e-06
-0.018979
0.0179714
0.00102244
0.000904372
-0.0142479
0.0133484
0.00653478
0.0127709
-0.018944
0.0143569
-3.79716e-05
-0.00990477
0.000176437
0.00434693
-0.0152663
0.0184757
-0.0208643
0.00536122
-0.00388454
-0.00134865
-0.0116899
0.0125981
-0.00124908
0.0120146
-0.0107837
2.65053e-05
3.07407e-05
-1.884e-05
-3.16018e-05
0.0042139
0.0121094
-0.000213874
0.000454028
-0.000184205
0.0128926
-0.00248335
-0.0104233
-0.0173477
-0.00161874
0.0152664
-0.0145721
-0.000154742
-0.017632
0.017497
0.000422058
-0.000611871
-0.0190681
-0.0030461
-0.0102956
0.013551
-0.021485
0.00159818
-0.000160512
0.00271511
-0.00249761
-0.000105963
-0.015967
0.0163556
-0.011689
-0.000996857
0.0166362
3.4136e-05
-0.0163809
0.00513056
-0.00338717
-2.60868e-05
-0.010984
-0.0189809
0.0166451
0.00391546
0.000680358
-0.000237814
-0.00213374
-0.0132102
0.0154596
0.0172156
-0.00199865
-0.0151933
0.00101384
-0.0125644
-0.00190065
0.0119057
-0.0100199
0.0149231
-0.016111
0.00152217
0.00075758
-0.016921
0.0162167
0.0222182
-0.0184075
-0.00353307
0.0047636
0.0124781
0.00134152
0.0179148
-0.0190876
0.000440567
0.00239968
-0.00277578
-0.00299362
-0.000968019
0.00396969
-0.000715413
0.0120941
-0.0110957
-0.000276964
0.000358425
1.85894e-05
0.00395509
0.0137091
-7.41102e-05
8.45443e-05
-9.0007e-06
1.07117e-05
-8.39407e-05
0.0117333
-0.0125323
-0.00651154
0.0192551
0.0174111
0.00374623
-0.020956
0.00234437
-0.00185186
0.000228951
0.00176022
-0.00192355
0.0208155
-0.005692
-0.015092
0.00225961
0.0145964
-0.0165416
-0.000150659
-0.000101375
0.000253827
6.29781e-05
-0.000212041
0.0121635
-0.000816681
0.018652
0.000322965
-0.00484116
0.00549406
0.0102024
-0.00145214
-0.0173217
3.54737e-05
-0.000110413
7.7956e-05
0.00094541
-0.00109311
0.000661815
0.0016789
-0.00109471
-0.00802261
0.0148416
0.0142379
-0.0162468
0.0209135
-0.00882492
-0.012064
-0.000136945
-0.00278055
0.00359535
-0.0150729
0.0164588
0.0138935
0.00798255
-0.00974248
-0.00266332
0.0202974
-0.0174447
-0.00122171
5.6524e-05
-4.06993e-05
3.64509e-06
-0.0117899
0.0133579
-0.00111181
0.016911
-0.0157254
0.00981422
0.0111225
-0.00639045
0.00749438
-0.000255151
0.0125592
0.00628824
-0.018859
0.00394131
0.00622184
0.00767069
-0.0139255
-0.00983868
-0.000718853
0.0105347
-0.000944199
0.000170365
-0.00159235
7.14493e-05
0.00210132
-0.000843282
-0.0017082
0.00260503
0.00675959
0.0140841
0.00939445
0.00526066
-0.0146346
0.015452
-0.0150541
-0.000224333
-0.00502709
0.0112284
7.76838e-05
-0.00307757
0.00418646
0.00171138
-0.00250159
-0.00471534
0.0141309
-0.0177913
0.000856446
0.017055
0.019799
-0.015848
-0.00381741
-0.0115095
-0.00203876
-0.0041293
-0.0170349
0.0157935
0.0015036
0.0188384
-0.016077
-0.00273263
0.0174436
-0.00167488
-0.0150456
0.0141994
0.00112087
0.000222257
0.0228603
-0.0102728
-0.012592
6.70838e-06
-0.000251596
-6.79133e-05
-4.79668e-05
-0.00446149
-0.00695412
-0.0016988
0.0174608
-0.015697
0.0174183
-0.0180273
-0.00301828
0.0121108
0.00186432
-0.00207433
0.000268238
-0.013304
0.0115765
-0.0147026
-0.0122238
-0.0013687
-0.0196866
-0.00170328
-0.00195837
-0.00704531
0.00898846
0.0115568
-0.00953936
-0.00164951
-0.00261281
0.00263829
-0.0114009
-0.00494391
0.000278663
0.000360195
-0.000499538
0.00955476
-0.000991746
0.0194746
-0.0119689
-0.00750863
-0.00476756
0.0163366
-0.0138516
-0.000900434
-0.00739579
0.0103629
-0.0132065
0.00232847
-0.00221486
1.92146e-05
-0.0157159
0.0181486
-0.00237782
0.0119662
0.0140031
0.0162107
-0.000533716
-0.0155934
-0.0133181
0.0170755
-0.00352954
-0.018177
0.0181534
0.000172949
0.0130664
0.0174558
-0.00361391
-0.0138315
-0.00462755
-0.0161054
0.0181479
-0.0191157
0.00101115
9.53676e-05
0.0163135
-0.00705059
-0.00926676
-0.00133422
0.012271
0.0119943
-0.00917039
0.00762501
0.00868262
-0.0186087
0.00297093
0.0104199
-0.0139588
0.00372136
-0.00675132
0.0165396
-0.000645048
0.000853379
0.00123618
-0.00421906
-0.0132108
0.00189662
-0.000299832
0.000138414
0.000756583
-0.0106239
-0.020973
0.00138938
0.0106956
0.0121599
-0.0159483
0.0028538
0.00325626
0.00962453
-0.0128047
0.0150345
-0.000822813
0.0174176
-0.0164476
0.0154258
0.00100099
-0.0160715
0.0106865
0.014635
-0.00193313
-0.0126889
-0.000144941
-0.014512
0.0153172
0.0202441
-0.00372692
-0.0163793
-0.000950738
-0.0173134
0.000881052
-0.0064097
-0.00196488
0.0179105
-0.0158915
0.000141978
0.000115794
-0.00016477
-0.00114366
-8.50994e-05
0.00236461
0.0157797
0.00199655
-0.0164607
0.00734075
0.010134
-0.00964846
0.0155441
-0.00582987
-0.000772519
-0.0108769
-0.000162303
-0.00466764
0.00486318
-0.0170243
-0.0116118
0.0103453
0.000134976
-0.000124454
-1.14339e-05
-5.8209e-05
-0.00110541
0.00140808
-0.0145565
0.00328732
0.0136102
-0.0142718
0.000663318
0.00444785
-0.00457752
-0.00267896
0.00257368
0.00199699
-0.0145367
0.0125783
0.00951009
0.0076819
-0.017217
-0.00163657
0.00193135
0.0199365
-0.0154082
0.017686
0.00010319
0.0164874
0.000173105
-0.00174375
-0.0129772
-0.000670528
0.0136529
0.00883157
-0.0133524
0.00391111
0.0107382
0.0181967
0.00236539
0.00521513
-0.00274844
-0.00126215
-0.0147301
0.0161396
0.01517
0.0156683
-0.0167787
-0.00228964
-0.0107139
-0.00341457
0.00272344
-0.00287872
0.0157784
-0.0183375
0.00256372
-0.0039081
0.00509274
0.00650492
0.013414
0.00987727
0.0192808
-0.0175299
-0.00161447
0.0190154
-0.0175076
0.0152747
-0.00221638
0.000183628
-0.00370919
0.012313
-0.00225885
0.0049245
-0.00191615
0.0218978
-0.0152514
0.00135853
0.000119051
-0.00142477
0.00326212
-0.00667238
0.0034536
0.000120796
-0.00311149
0.00640995
0.0107836
-0.012761
-0.00105691
0.018426
-0.017335
-0.000164008
-0.00166272
0.00150887
0.00105698
-0.00123376
0.00081171
0.00500623
-0.0145877
0.0176885
-0.0172857
-0.0105274
0.0119078
-0.0131977
0.0118567
-0.00019614
0.0141805
0.0102522
0.0155483
0.0218238
-0.0123485
0.0147818
0.00626594
-0.0133712
0.00139822
0.0119719
0.0186635
-0.0173553
0.0235487
-0.0162816
0.00876898
0.00809832
-0.0110238
0.0191782
-0.00811886
0.0110071
-0.014703
0.000524999
-0.0134895
-4.37987e-07
0.00792921
-0.00920945
0.00131557
-0.00270341
0.00385803
-0.0160757
0.014633
0.00160257
0.0129545
-0.0097109
0.0181493
-0.000934798
-0.00909864
0.0123907
-0.0159091
0.0167046
0.00632474
-0.00492647
-0.000668088
0.000184483
-4.30099e-05
-0.018605
0.0186415
0.015848
-0.0119237
0.0183567
-0.0173143
0.00480694
0.00166893
0.0207742
-0.0139853
1.58387e-06
-8.56133e-05
0.000757879
-0.000297094
1.54829e-05
-9.31981e-05
0.000113769
-0.0118525
-0.0194465
0.00845522
0.0126481
-0.00148009
-0.014428
-0.000157098
-0.00146996
0.00168923
0.00472826
0.00216744
-0.00196061
0.0185823
-0.0164785
-0.00439696
0.001526
0.00321922
-0.00272807
-0.006958
-0.00865764
0.0100041
-0.0107455
-0.0189296
-0.00191053
0.0146641
0.0156038
0.00338557
0.0176402
-0.000113491
0.000341873
4.44469e-05
-0.000225265
0.0155475
0.00240634
0.0172031
0.0109091
0.0111107
-0.00222214
0.00171248
0.00163594
-0.00320855
0.00358535
0.000664524
0.0123899
-0.00138973
0.0154891
0.0163452
-0.00110565
-4.42021e-05
0.00101099
0.011068
-0.000231711
5.60702e-05
0.000227883
0.0173295
-0.020777
0.0109222
0.0098739
0.000996645
-0.00371623
0.0028123
0.0189027
-0.0213668
0.00962861
-0.0121734
-0.0190181
0.000891354
0.0141746
-3.15439e-05
-0.0166367
0.0166615
-0.000294341
-0.0157673
0.0159355
0.0107345
0.00126339
-0.0156028
-0.000307491
0.0146887
-0.0122447
-0.00244279
0.0102309
-0.00950225
0.0131752
-0.00264833
0.0037415
-0.011074
-0.0203237
0.00154033
-0.00662713
-0.00140451
0.00821843
-0.0162945
-0.000477236
0.0169554
0.00982366
-0.00910843
-0.0159548
0.00659913
0.00961599
-0.00775766
0.00131161
-0.00835617
0.00263845
0.00643862
-0.00337554
-0.0122407
-0.000101929
0.00940917
-0.0086128
-0.0121428
0.00343203
-0.0161119
2.03889e-06
-0.0161955
0.0153956
0.00108442
0.0170882
-0.0176849
0.000754658
3.84901e-06
6.70259e-05
-0.00457343
-0.00298715
0.0181949
0.00157478
-0.019738
0.0100793
0.00189425
-0.000169028
0.00199619
-0.0135318
0.0140271
-0.000366114
-0.000675299
0.0142851
-0.0184986
0.0181518
0.000547222
0.00053469
0.00344511
-0.0039364
-0.00302849
0.0212213
6.34167e-05
0.00748955
0.0174031
0.0153145
0.0107893
-0.00984826
-9.26728e-05
0.000130493
-0.0225824
0.00731265
-0.0161115
0.01713
0.00132498
-0.0184578
-0.00261791
0.000685862
0.00473891
-0.00859456
-0.00035332
3.29257e-05
0.000325393
0.0146812
-0.00412508
-0.00211624
0.0177499
-0.000954675
0.0117495
-0.00211991
-0.0122904
0.0143825
0.00623919
0.0084489
-0.0164138
0.0163756
0.0142098
-0.0136713
0.00125774
-0.000280403
0.0123466
-0.0110961
-0.00124795
-0.0145411
0.00113368
0.00406667
-0.000201435
-0.0038591
0.0175944
-0.0157472
-0.00170805
-0.016982
-0.00137667
0.0183922
-0.000157249
0.00126112
-0.00106621
0.00337944
-0.00397678
0.000624611
-0.00051773
0.00188687
0.00124192
-0.00170497
0.0108437
-0.00194624
-0.0089003
0.000131997
-0.00131846
0.00123002
-0.000379129
0.00045461
1.198e-05
0.0138263
-0.013514
-0.000272885
0.0100235
0.00731915
-0.0173041
0.0113062
0.0143877
-0.0107034
0.0155834
-0.000227921
-0.0149552
-0.0171638
-0.0011423
-0.0178864
0.000924661
-0.01427
0.0161506
-0.00909025
0.00532376
0.00431829
0.009297
-0.00134307
-0.020948
0.0128433
0.00808045
-0.00626212
-0.00103784
0.00143185
0.0118247
0.00897279
-0.01263
0.0146669
-0.0156054
0.0166117
0.00240981
-0.0188777
0.0164487
-0.0171273
-0.00780437
0.0151405
0.0175698
-0.0129948
0.0161742
-0.00611649
0.0064119
-0.00680576
0.000618273
0.0119914
-0.0168796
-0.00163985
0.0184137
-0.0136243
-0.0172461
-0.000420171
0.0108805
0.00729215
-0.0180018
0.00248175
0.0155362
0.00158736
-0.015406
0.0140123
0.018118
-0.00233923
-0.0122745
0.014556
-0.00226777
-0.00128129
0.00196675
-0.000122625
0.0161087
5.06195e-05
0.00928132
-0.00905765
0.0121824
0.00113113
-0.0131226
-0.00156864
0.0139536
-0.0154557
0.00307211
0.00220564
-0.00520274
2.5922e-05
-2.5922e-05
-0.00137516
0.00582839
-0.00267613
0.00172574
0.00774687
-0.00874501
-0.0177637
-0.000196928
0.0180237
-0.000619625
9.52366e-05
0.000570508
0.0136417
-0.0123862
0.000443164
-0.000451276
0.000222318
0.0156902
0.000711623
-0.0184024
0.00827043
0.00931555
0.00206996
0.010283
-0.00115537
9.44756e-05
-0.0139033
-0.00182936
0.0160303
0.0154375
-0.0151699
0.00785023
-0.00675189
-0.000865765
0.00104866
0.000123705
-0.00114478
-8.86053e-07
-0.000185081
-0.000125847
0.00120398
-0.0145588
0.000991983
-0.0106525
0.0123907
-0.00113247
0.00130879
0.0119578
-0.0128321
0.000873933
0.00120882
-0.00104768
0.00157926
0.000645575
0.0153301
-0.0144636
-0.000596984
0.00151207
-0.0184504
0.0118628
-0.00284822
-0.00848397
0.00169896
-0.00146211
-0.0130114
0.0101048
-0.000203754
0.00011583
-0.0198554
0.0163071
0.00369966
0.00293892
0.00789903
-0.0116564
0.0142914
-0.00209549
0.00160789
0.00146788
0.000131468
-8.03333e-05
0.00524677
-0.00855121
-0.00880495
0.00911889
0.0029859
0.00995387
-0.0132777
-0.000850589
-0.00906595
0.00966058
0.00261311
-0.012222
-0.0165885
-0.00310642
-0.010846
-0.00371611
0.0148371
0.00825183
-0.00925768
0.00104807
-0.00163102
0.00663208
-0.00492213
0.00157887
-0.000158647
0.000134893
1.2156e-06
0.0170827
-0.0137657
0.0130716
0.000688904
0.000222965
0.000634695
0.009173
0.0047667
-0.0146125
0.0180079
-0.00758739
0.010102
0.000821305
-0.0133474
0.0125842
-0.00421414
0.000338394
0.00392547
0.0125175
-0.0115221
-0.0152532
0.00167556
0.0203346
-0.0088512
-0.0114469
-0.0181651
0.00138561
-0.0124233
-0.00410686
0.000989743
-0.00438778
0.000224383
0.010695
-0.0110793
0.000389762
-0.00114337
-0.0131297
-0.00224636
-0.010043
-0.00847512
0.00922631
-0.000751662
0.0162597
-0.0149061
-0.00332664
0.00390518
0.00378546
-0.00535309
0.00927797
0.000689497
-0.00997167
0.000405182
-0.00368798
-0.00969582
0.0105704
-0.000848398
-0.000247003
0.00310452
-0.00283953
0.00326241
0.00679212
-0.00992825
-0.0157007
0.0166872
-0.000933067
-0.00713189
0.014778
0.0108501
0.00160669
0.00126973
0.00900557
-0.00956126
0.00052895
-0.000671513
0.00047903
-0.00208328
0.00970503
-0.00751004
-0.000109622
-0.00116108
0.0012066
0.00136044
-0.00119065
0.00882071
-0.000990818
-0.00780238
-0.0133279
4.71703e-05
-0.00486962
0.000518565
0.00439184
-0.000153719
0.0173882
8.76159e-05
-0.0134636
-0.000524212
0.0133386
-0.0127899
0.000330149
-0.0160922
-0.0186206
0.00130171
0.00125151
-0.0168796
0.000345166
0.00933335
-0.00969019
0.00129934
-6.49452e-05
-0.000132421
0.00047894
-0.00416347
0.00368777
0.0169909
0.00122364
-0.0180009
0.00374968
-0.0161831
0.00151984
0.00295971
-0.00390376
-0.00320153
0.000407175
0.00280389
0.00694793
-0.00522429
-0.00158685
0.0035414
0.000836395
0.0042273
-0.00374378
-0.00530513
0.00866929
0.000255661
-0.0108186
4.50057e-05
-0.00400837
0.0135314
0.000336224
0.00648652
-0.0135389
-0.00142618
0.0184414
-0.017033
0.0169676
-0.0184111
-0.000138368
0.00108543
-0.000921203
0.00103932
0.00605342
0.0016038
-0.0232537
0.0158393
-4.19189e-05
-0.00218935
0.0223336
-0.0103301
-0.0119244
-0.000511079
0.00400642
0.000167238
0.0128052
0.000453766
-0.0127812
-0.00144699
-0.0105588
0.0114291
-0.00125476
-0.0167593
0.0181323
-0.0181476
0.0165551
0.00178498
0.000808722
-0.00038617
-0.00682218
-0.00253355
0.00954829
0.0129897
-0.00327814
-0.0144412
-0.000362667
0.00298005
-0.00258381
0.000870352
0.00718566
0.000179405
0.00538587
-0.00493776
0.0186252
-0.0170687
0.00966611
-0.00148576
0.00571414
-0.0116076
0.00763743
0.00121044
0.0045694
-0.00123639
-0.00266132
-0.000526169
-0.011418
0.0111103
0.00062484
-0.0175351
-0.0130548
-0.00154999
0.0146281
0.0142213
-0.0154881
0.00131359
0.0106314
0.0103121
-0.00756478
-0.00186635
0.00997876
-0.00935988
0.00979299
-0.00150658
0.00610244
-0.00107388
-0.00486517
0.012528
-0.0130282
-0.0087144
0.0020641
0.013831
0.00154452
-0.0153468
0.0192292
-0.0110685
-0.00808424
0.00212011
0.00190018
-0.00400426
0.0166393
-0.0176958
0.00111393
-0.00091602
-0.00909483
0.0101174
-0.000732106
-0.015237
0.0162657
-0.000134574
0.00110663
-0.000953398
0.00302207
0.000255571
-0.00323495
-0.000782848
-0.00842173
0.0092145
0.00393782
-0.0110896
0.00102725
0.0168489
-0.0177013
0.00095635
0.0132647
0.00832776
-0.00290498
-0.00533101
-0.00429423
0.0152121
0.0104652
0.0098956
0.00369201
-0.00815269
0.00212977
-0.000467452
-0.000598686
-0.00948789
0.00982139
-0.0112812
0.000180034
0.0111633
-0.000468012
-0.0180064
-5.93329e-05
-0.000509864
-0.000192661
0.00081118
0.00587738
-0.00503457
-0.000102768
0.012816
0.000167694
-0.00973393
0.0102739
-0.0181718
0.0155837
0.00262924
-0.00148718
0.000510907
7.10926e-07
-2.86857e-05
-0.00125289
0.00127465
-0.0152001
0.0139367
-3.82469e-05
-0.000289311
0.000451859
0.000827501
0.013008
-0.00156876
-0.000617451
0.0138498
-0.000343914
0.00322722
-0.00287786
0.0129035
-0.0104004
-0.00181602
0.00111038
-0.0185244
0.00484859
0.00139447
0.00356896
-0.00312036
-0.000264063
0.000740084
0.00544991
-0.0159385
1.07574e-05
-0.0003186
0.0176504
-0.0163437
-0.0174111
-0.000606582
-0.000946269
0.000317929
-0.00587901
0.00620581
-0.000359149
-0.00254318
0.0029575
-0.0032965
0.0145724
-0.000703924
-0.000617464
-0.0110814
0.0116898
-0.00168183
-0.016807
0.0185352
-0.0167457
0.0181844
0.00174177
-0.0147736
-4.40263e-05
-0.000305944
0.000105354
-0.00131762
0.00124722
0.00356104
0.000509631
0.00425103
-0.00444656
-0.0139329
0.0152185
0.0015698
-0.0131602
0.0115831
-0.0189297
0.0135971
0.00536676
-0.000383288
0.00312479
-0.00273674
-0.00165035
0.0183137
-0.0165402
-0.00729315
0.00118689
0.00615054
0.000272728
-0.00258542
0.0154542
0.00226897
0.00284794
-0.013829
0.00314384
-0.000708172
-0.000867619
-0.0170583
0.00513604
0.00584672
-0.0141317
0.0141869
9.16244e-05
0.0102713
-0.0114397
0.00115722
-0.000166859
0.00110002
-0.000948601
0.000739333
-0.000417827
-0.00301454
0.00347518
0.0127224
0.0198718
-0.0166634
0.0102548
-0.000999138
0.00632021
-0.00123408
0.00113714
-0.000453292
0.00385907
-0.0203157
0.0195744
0.00073204
0.000506729
0.00169968
0.00267174
-0.000340048
0.00302498
-0.00264653
-0.00747579
0.00620418
0.00141418
0.00124782
-0.00110822
0.00143843
0.00116054
0.000134637
-0.0164766
0.000379173
0.00274935
0.00301381
-0.00263111
0.00230921
-0.0101514
0.00797122
-0.0130493
0.0146868
-0.00160763
0.0122677
-0.000794113
0.00832595
-0.00934012
0.00105751
0.0105462
-0.00685238
0.00184664
0.00137265
-0.0183601
-0.00172361
0.00104998
0.000995818
-0.0119607
0.0101065
-0.0183419
0.00842952
-0.000291256
0.000362724
0.00533032
0.00308649
0.000527463
-0.0104075
0.00987584
-0.0103007
0.00850299
0.00193517
0.00081301
0.00974804
-0.000128003
0.00114809
-0.000996804
0.0168244
-0.0149711
-0.00183201
0.0175859
0.0107619
-0.000900808
0.0101483
-0.00913419
0.0132649
-0.00163225
0.0142753
-0.00856787
0.00108696
-0.00119156
-0.000108875
-0.00109337
-0.00148482
0.0134919
-0.012012
-0.000827172
-0.006322
0.00724392
0.000794077
-0.0132674
-0.000962618
0.00218638
-0.00186456
-0.000261205
-0.00326735
0.00289143
0.000382919
-0.00527221
-0.0156925
-0.000137381
0.00110653
-0.00095182
3.16018e-05
-1.9856e-06
-2.18819e-05
-0.000252984
-0.0019674
0.00226423
-0.00877809
0.0106737
0.00417575
-0.0184511
-0.0129292
0.01144
0.00966748
-0.00129831
0.0110671
0.00328795
0.010141
0.00680689
-0.0167961
0.0164846
0.00214258
-0.0185799
0.0151313
0.00727838
0.016414
-0.0136822
-0.00270832
-0.0124544
0.0140163
-0.0163916
0.0159619
-0.0146768
-0.00109267
-0.0191862
0.015883
0.0129781
-0.00102411
0.00113355
0.00941436
0.015116
0.00060942
-0.0154151
0.00117887
-0.000563235
0.0040081
-0.00343201
-0.000678129
-0.000687053
-0.0103848
-0.00142907
0.0117998
5.92194e-06
0.0120552
-0.0120478
0.0148671
-0.00255419
0.000341395
0.00165549
-0.0139152
0.00169169
0.00131287
-0.0029993
-0.00125739
-0.0120562
0.0134987
-0.000524092
0.0159638
-0.00303105
0.00272801
0.0178442
-0.0175253
-0.00037892
0.00702898
-0.0135427
-0.00138969
-0.0111108
0.0104846
-0.000596998
-0.0169754
0.0177024
-0.0110581
0.0107107
0.0139437
0.00151292
-0.0154247
-0.0114231
0.00102947
0.0177111
-0.00102166
0.0148005
-0.0138321
0.000312944
0.00462385
-0.00489239
0.00796937
-0.00892074
0.00503452
0.00117007
0.0180192
-0.0167454
-0.00112131
-0.0143872
-0.00106973
0.00958288
-0.0103698
-0.0011574
0.000308129
0.0169882
-0.00305424
0.00282422
0.0115953
-0.0139182
0.0154923
0.00319287
0.010837
-0.0119705
0.00117231
0.0024146
0.000458933
-0.0152636
0.0154376
0.000736271
-0.0102418
0.00868092
-0.00909914
0.000649737
0.00115298
-0.00765248
-0.00152218
-0.0064987
-4.32374e-05
0.00717671
-0.0164637
-0.00104461
0.00141838
-0.00293616
-0.00877878
0.000300059
0.00155922
0.00807582
0.00588234
-0.0139336
-0.00168308
-0.0155228
0.01722
0.00347255
-0.000406196
-1.42181e-06
-3.71323e-05
3.85681e-05
0.0100172
-0.00888201
-0.0042285
0.00185822
0.00237901
-0.014188
0.000199019
0.0106795
-0.0101561
-0.0166376
0.0156795
0.00100493
-0.0145367
-0.00117075
-0.0176989
0.00115563
0.000986658
0.0167759
0.00138966
-0.0186413
0.013142
-0.00138946
-0.0117385
-0.00621726
-0.0141039
-0.0165422
-0.00112679
0.0170568
-0.0175728
0.00317919
0.0144087
-0.0172931
0.0157132
0.00166653
-1.86623e-05
6.66519e-06
-8.82658e-05
-0.017184
0.0173286
0.0017937
-0.0185454
0.00115629
-0.014702
0.000526249
0.0144033
-0.000481956
0.0163994
-0.0159785
-0.00178222
-0.000228649
-0.01613
-0.00089442
0.017116
-0.0118796
-0.00164917
0.0138462
-0.020568
0.000880023
0.0197634
0.000492848
0.00373811
0.00386238
0.00624726
-0.0177467
0.00463207
0.0168739
-0.0180126
0.00269526
0.0145587
-0.0149966
0.00088615
0.0134264
-0.0120999
-0.0175119
0.0173787
-0.00285027
0.0117235
-0.000623402
0.00219015
0.0173828
-0.00927956
0.0184398
-0.00367353
-0.0146324
0.00103203
-0.0118329
0.000786725
-0.0147136
0.0144717
0.000673099
-0.000157156
-0.00921374
0.00935068
0.00107936
-0.017659
0.0106694
-0.0168459
0.0181677
0.0160699
-0.0177117
0.0161409
0.00159469
-0.00155135
-0.017066
0.0187073
0.00182835
0.00365633
0.000308561
0.0128139
-0.0130871
-0.0160356
0.0132075
-0.0111312
-0.00058152
-0.017039
0.0176212
0.0028859
-0.00328356
0.00049315
0.0153803
-0.00141123
-0.0144837
0.00128859
-0.014084
0.0144413
-0.0155961
0.00076573
-0.0175494
0.0168012
-0.000478012
0.00346166
-0.0166556
0.0175674
-0.00930699
0.00931753
0.000203077
-0.0179829
0.000783021
0.00986735
-0.000543002
0.001102
-0.0185165
0.0159869
-0.00570479
-0.00123684
0.00179728
-0.0146044
0.000607031
-0.0152193
0.000868929
-0.0166526
0.0177792
8.45334e-05
-0.000363947
0.000337088
-0.0126809
0.0122598
0.000832481
0.00240034
-0.00917846
0.00171762
0.0103448
-0.0120077
-0.000904968
-0.0167268
0.000469794
-0.0114629
-0.0107388
-0.000744989
-0.0158322
0.000497239
-0.00150771
-0.00994228
0.000949548
-0.0174292
0.000302832
-0.0151328
0.0104296
-0.009711
-0.0171254
0.017908
-0.00325765
0.00202911
0.00145939
-0.0182904
-0.00408145
0.00353147
-0.000447726
-0.0104272
0.0108571
0.0157399
-0.000761536
0.000939804
-7.90936e-05
-0.00082513
0.00923611
0.000727688
0.00137187
-0.0152905
-7.94644e-05
-0.000825831
-0.0064157
0.00355706
0.0094166
-0.0171978
0.000504457
0.016865
0.000929006
-0.0169734
0.00649735
0.000803993
-0.00723107
-0.00272517
0.0186117
0.0186508
-0.00212194
0.0135111
-0.0148637
0.00145513
0.0135529
0.0020313
-0.0167474
0.0147433
-0.000790383
0.00736041
0.00339904
-0.00379051
0.000435086
-8.40909e-05
0.000921886
-0.00080399
0.0147282
8.39367e-05
0.000931774
-0.000976955
-7.86307e-05
0.000950417
-0.000834788
0.0102361
-0.0107014
0.00103636
-0.0167843
0.0180865
-0.00125843
0.0151552
0.000962177
-0.000839551
-0.0012762
-0.0170912
0.0184629
-8.92907e-05
0.000120804
3.38666e-06
0.00912516
0.0101796
-0.0112208
0.0113354
0.000402167
0.0198684
0.0146257
-0.0137898
-0.000840273
0.00092039
0.000799627
-0.017207
0.0165756
-0.000601463
0.0167994
0.00214838
-0.0187799
0.0151588
0.000887466
-0.015958
0.00933842
-0.00272862
-0.00178065
-0.0135616
0.0156971
-0.0170009
0.00195369
0.0152695
-0.0011545
0.00103427
-5.50617e-05
4.56703e-05
3.76395e-05
0.00138684
-0.0138425
-0.0178724
-0.00222894
0.000889476
-0.0157287
-0.000197675
0.000906698
0.0120419
0.00144729
-9.00666e-05
-0.0127378
0.0133001
0.0161812
-0.00504532
0.00526366
0.000721688
-0.00301674
0.000333495
0.00276726
-0.0171318
0.00214132
0.0150976
0.00493396
-0.00576289
0.000992632
-0.0109491
0.0121948
-0.00124586
-0.00126787
0.0161558
-0.000872513
0.00597886
-0.000353549
0.00296743
-0.00258924
-0.00917189
0.00839688
-0.00254904
0.00617447
-0.00473669
0.0055579
0.000152721
-0.0115335
-0.000654338
-0.00807441
-0.00120852
0.00299814
-0.0151264
-0.0104741
0.0035994
0.00165779
-0.00203424
-0.0156555
-0.000239835
0.000200841
0.000154602
-0.00273397
-0.00353197
-0.000432809
0.0013912
-0.0174793
0.0161304
0.000537971
-0.00427108
0.00270735
0.0154889
-0.0181493
-0.00719838
0.0127042
-0.01401
-0.000959221
0.0153675
0.00865798
0.00809761
0.0106496
-0.0108299
-0.00443448
0.00547275
-0.000875924
0.00273882
-0.00306764
0.000518652
0.00949765
0.000190126
-0.0137666
0.000548679
0.00912439
-0.00967747
-7.74556e-05
-0.00771634
0.00778594
0.00171158
-0.000459379
-0.000397404
-0.00353369
-8.48619e-05
0.000881171
-0.000764804
-0.0151759
0.00103225
0.00153914
-0.0150713
0.0140379
-0.0138613
0.000577087
-0.000322661
0.00321637
-8.89663e-05
0.000872916
-0.000754248
0.000997808
-0.0114355
0.0104286
-5.14268e-05
-0.0141946
-8.46945e-05
0.000899368
-0.000782047
0.00134265
-0.0191745
-0.0170257
-0.00110934
0.0182576
-0.00209562
-0.00155852
-0.0133422
0.00110192
0.0128089
-0.0124978
-0.000297401
-0.00149622
-0.00636346
0.00785427
0.000538982
0.0101335
0.00190923
0.000333736