/*--------------------------------*- C++ -*----------------------------------*\
| =========                 |                                                 |
| \\      /  F ield         | OpenFOAM: The Open Source CFD Toolbox           |
|  \\    /   O peration     | Version:  v2012                                 |
|   \\  /    A nd           | Website:  www.openfoam.com                      |
|    \\/     M anipulation  |                                                 |
\*---------------------------------------------------------------------------*/
FoamFile
{
    version     2.0;
    format      ascii;
    class       volScalarField;
    location    "450";
    object      omega;
}
// * * * * * * * * * * * * * * * * * * * * * * * * * * * * * * * * * * * * * //

dimensions      [0 0 -1 0 0 0 0];


internalField   nonuniform List<scalar> 
9793
(
0.0593669
0.258203
0.0617228
0.0209839
2.1966
0.0220354
0.0214751
0.0207339
0.021468
2.15174
0.0433886
0.0439192
0.0210163
0.0206219
0.0228416
0.0205221
0.0208898
0.0210362
1.78002
0.0206081
0.262366
0.0220994
0.414574
0.0195308
0.02175
0.0210885
0.020744
0.0206358
0.0336906
0.0214593
0.0310727
0.367412
0.389747
0.021943
0.0370614
1.26144
0.0221417
0.0220737
0.0207981
0.0208759
0.0306176
0.0228546
0.0217852
0.0216621
0.0217958
0.0212191
0.0359774
0.297707
0.147873
0.0209608
0.0379983
0.0472227
0.0221393
0.0214337
0.228957
0.179567
0.0213925
0.0859504
0.756801
0.0207841
0.0214296
0.0220718
0.678675
0.0216209
2.12571
0.361256
0.662838
0.573117
0.0558689
0.0423913
0.170417
0.0210997
0.0210586
0.08006
0.0416347
0.780401
0.0213815
0.0200855
0.0212491
0.0207675
0.425865
0.0213245
0.266767
0.0941152
0.0275999
0.253584
0.0208162
0.0213714
0.0217931
0.0216172
0.253521
2.05708
0.0203789
0.3984
0.0219157
0.109865
0.270281
0.264798
0.020347
0.0202417
0.0202239
0.0215531
0.0203646
0.0203545
0.0201117
0.0273101
0.0217101
0.0214136
0.0219324
0.295116
0.0213555
0.0841341
0.0213818
1.02595
0.0467975
0.021391
0.359981
0.0402109
0.0215331
0.363622
0.336141
0.0234295
0.0212763
0.0222351
0.0216
0.179174
0.0312533
0.269416
0.0214279
0.0211022
0.0219354
0.0213805
0.0210985
0.0218646
0.0214454
0.0213621
0.0218446
0.0214824
0.0213765
0.0199225
0.0212688
0.0216722
0.0210721
0.0202585
0.0207266
0.021217
0.06907
0.020268
0.0203351
1.992
1.55154
0.0219114
1.34735
1.519
0.0203166
0.0227751
0.0206229
0.0215989
0.020238
0.0210334
0.0207316
0.020631
0.0203421
1.69983
0.0793329
0.537377
0.312613
0.0237111
0.0206447
0.0211003
0.0210725
0.61678
0.125008
0.592802
0.0215719
1.7616
0.0213704
0.0195569
0.0211049
0.0245641
2.46142
0.0218691
0.0202548
0.0216816
0.877486
0.0210472
0.102181
0.0210968
0.021247
0.0203497
0.0215825
0.02131
0.135388
0.103473
0.636096
0.0243806
0.106984
0.0209604
1.19177
0.0199823
0.0214388
1.67466
0.335353
0.0211141
0.0213625
0.0198933
0.729198
0.0202955
0.0252896
0.0219058
0.0265172
0.0913776
0.219073
0.0214491
0.0649895
0.0204944
0.0212745
0.865352
0.0199026
0.693447
0.0494326
0.0213148
0.0216106
0.0213136
0.196754
1.68541
0.0220407
0.0203118
0.0499806
0.0365408
0.0195727
0.0195467
0.0219194
0.0201061
0.0348439
0.690792
0.0213582
0.0210163
0.154111
0.0212752
0.0250765
0.0205804
0.0209829
0.393383
0.020992
0.0203287
0.0207221
0.0215858
0.0203508
0.0217107
0.0214343
0.0227749
0.0432684
0.0330663
0.0209511
0.0223426
0.0210585
0.0229419
0.0222023
0.0202328
0.401658
0.0210032
0.042903
0.0215004
0.0239955
0.0196753
0.0196838
0.0264731
1.63811
0.0215804
0.0202533
0.0200173
0.0236466
0.0213335
0.230258
0.231458
0.0211138
0.182174
0.0213282
0.0331358
0.0215201
0.0196254
0.021864
0.0207658
0.0312736
0.0213125
0.0214263
0.0235143
0.0209413
0.0213538
0.0213635
0.339092
0.0216821
0.0221486
0.0220011
0.0218237
0.0216715
0.0237789
0.0212254
1.41808
0.0203253
0.613137
0.547169
0.0219812
0.0215343
0.0202568
0.0239678
0.0228559
0.0214345
0.615133
0.0216008
0.0202399
0.0228988
0.021478
0.0213545
0.0214062
0.175074
0.0210001
0.0233174
0.0219508
0.0209289
0.0813289
1.23722
0.0674561
0.0197892
1.97862
0.0217204
0.688121
0.0446063
0.0201344
0.0223559
0.0435019
0.0213634
0.0239593
0.051382
0.0206983
0.0216934
0.021427
0.0209892
0.0206818
0.0852569
0.0210939
0.0209184
1.40548
0.0213221
0.0205032
0.0197481
0.0217807
0.02071
0.0981454
0.0216337
0.0212925
0.0213865
0.0214905
0.63663
0.0214209
0.0268551
0.019564
0.0297553
0.421016
0.103511
0.0308834
0.0217298
0.0226707
0.39486
0.0215985
0.397456
0.0212481
0.0201467
0.544492
0.0237632
1.47512
0.0212972
0.0369895
1.39743
0.0224116
0.0210376
0.389741
0.0236148
0.0695798
0.0223586
0.0214125
0.895262
0.0212413
0.0217761
0.0219617
0.0210845
0.02075
0.021428
0.0221896
0.651521
0.0215225
0.564019
0.443235
0.674285
0.036709
0.0483821
0.0208206
0.021429
0.159168
0.439498
0.0205978
0.0216163
1.41219
0.0200094
1.45335
0.0210299
0.0222126
0.0199863
0.0274214
0.0210867
0.0239091
0.265002
0.0203077
0.389462
0.0272215
0.0216804
0.027289
0.0211245
0.0216121
0.0212351
1.49238
0.02131
0.0213641
0.0507273
0.0214099
0.022174
0.0217275
0.0202882
0.025062
0.0210271
0.0213604
0.019931
0.316538
0.0210309
0.293234
0.0211447
0.150118
0.0224213
0.0212233
0.0219443
0.0215177
0.813192
0.0209295
0.307211
0.0204191
0.0210826
0.0217825
1.4163
0.0330699
0.456154
0.0763933
0.0221698
0.0212331
0.0311069
0.0249365
0.0267124
0.263854
0.423019
0.0215269
0.0244874
0.037044
0.0212762
0.0215488
0.0212578
0.0203551
0.0220575
0.591066
0.0239465
0.870004
0.0203694
0.0240742
0.0195395
0.0217145
0.0220264
0.0213784
0.0313167
0.0212433
0.0229022
0.0199992
0.0213036
0.0225076
0.334943
0.0210279
0.0212338
0.539222
0.0229665
0.021643
0.682168
0.186612
0.0215365
0.0221292
0.0218443
0.0225335
0.021369
0.0219545
0.0217835
0.0210317
0.0210721
0.0209618
0.0656788
0.0477096
0.0205681
0.854744
0.0269713
0.0202912
0.0216893
0.021293
0.0677189
0.0215057
0.387747
0.0201698
0.0209924
0.0399608
0.0212395
0.0276678
0.545167
0.0236389
0.0202869
0.559139
0.0228347
0.0204867
0.0210922
0.0437292
0.0208538
0.0204737
0.0212485
0.0208484
0.333786
0.0349048
0.0264422
0.0218302
0.0210624
0.0209584
0.0213773
0.021186
0.0212607
0.0552845
0.121103
0.020043
0.0238542
0.236206
0.0211975
0.0441708
0.0269287
0.0209573
0.0464151
0.881223
0.0213285
0.151418
0.0196504
0.608088
0.02334
0.862788
0.0210464
0.0209712
0.020865
0.249994
0.0229177
0.696686
0.478946
2.05044
0.0282519
0.597969
0.0266679
0.0228036
0.0260423
0.023283
0.399533
0.0214001
0.19604
0.0199394
0.075908
0.0217635
0.0217014
0.0209429
0.173648
0.0199755
0.0206302
0.0218683
0.0220635
0.0242649
0.0210676
0.0212158
0.0211865
0.0211715
1.81006
0.0209599
0.44308
1.5267
0.0209709
0.0215783
0.0243965
0.0216115
0.0212579
0.0214469
0.0224365
0.0233628
0.021849
0.0220754
0.0204515
0.0214663
0.0216566
0.0230091
0.0214462
0.0218412
0.781886
0.0212133
1.58276
0.023355
0.0216427
0.0212217
0.0206653
0.0226637
0.0231896
0.0209819
0.0207513
0.019507
0.0209773
0.0207458
0.0211538
0.022225
0.0198389
0.0217003
0.0220939
0.0214214
0.0221466
0.0218857
0.0267106
0.0220626
0.020951
0.0212335
0.0204836
0.0202802
0.0209886
0.0203542
0.0209054
0.0212215
0.0199698
0.028294
0.0209239
0.0219297
0.0212921
0.106541
0.0210104
0.0199782
0.0424254
0.0196438
0.0213319
0.18899
0.0217629
0.0220082
0.0218238
0.0861652
0.0206765
0.0396308
2.10439
0.534177
0.318234
0.0212839
0.0212927
0.389957
0.0210342
0.0199494
0.0487289
0.236175
0.58292
0.0212398
0.0476016
0.0212965
0.0212863
0.907985
0.0211676
0.762072
0.0225388
0.0473684
0.0209405
0.0223845
0.0216124
0.167433
0.915593
0.0210533
0.021842
0.0242735
0.0209003
0.0223621
0.0397845
2.14247
0.0210266
0.0395649
0.0210337
0.52201
0.0336086
0.465225
0.077007
0.0208612
0.0255575
0.627017
0.0210102
0.0211389
0.0220071
0.0211744
0.0199424
0.252085
0.0199237
0.426317
0.0222746
0.346495
0.0420903
0.0213885
0.179584
0.644267
0.021567
0.908951
0.0249604
0.0612031
0.0199474
0.0196253
0.382377
0.0211762
0.896821
0.020895
0.204915
0.020421
0.319369
0.372709
0.0208441
0.875099
0.0213641
0.0219215
0.0289634
1.46306
1.49783
0.0204182
0.020431
0.0200064
0.54374
1.39024
0.022221
0.0230876
0.0569332
0.019975
0.0209575
0.0220701
0.786512
0.0236397
0.0212198
0.0207837
0.0207586
0.385857
0.318973
0.0287868
0.0204841
0.0208953
0.1879
0.0211512
0.844053
0.0333462
0.427679
0.272132
0.170148
0.0208117
0.021398
0.0224261
0.0217729
0.0231609
0.0211997
0.0470759
0.425545
0.0203782
0.567169
0.0207489
0.521765
0.0214997
0.239718
0.0226919
0.0217058
0.0210274
0.0212212
0.026845
0.499204
0.619869
0.021242
0.0277213
0.0207456
0.0218971
0.0225057
1.81384
0.0231565
0.0607953
0.0208062
0.0245358
0.0210393
0.0198578
0.0219148
0.0209186
2.07826
0.0211239
0.0219992
0.0220196
0.0225297
0.0199452
0.0394248
0.0214993
0.0217692
0.0208255
0.0209651
0.285305
0.0210247
0.099783
0.0203861
0.0314224
0.0207718
0.767781
0.0210019
0.0485658
0.0213592
0.0211961
0.020859
0.380593
0.302165
0.648235
1.79017
0.559593
0.0211638
0.0223375
0.243456
0.0201162
0.386392
0.409204
0.0393645
0.0934602
0.0219132
0.307621
0.0229153
0.369579
0.256687
0.0219201
0.0214154
0.307348
1.44925
0.0230413
0.0222345
0.0211846
0.0223742
0.0283021
0.0209554
0.0202601
0.0218148
0.0341881
0.0290849
0.0220655
0.534851
0.0208748
0.020378
0.100586
1.61685
0.0290338
0.0217382
0.0293198
0.0204534
0.0201118
0.431862
0.0199855
0.0218453
0.339508
0.350462
0.0209731
0.726043
0.371892
0.0605078
0.229885
2.34755
0.0219312
0.440233
0.021414
0.0207958
0.0212473
0.0216347
0.0207928
1.89883
0.020985
0.50889
0.0222607
0.0302464
0.0214804
0.0289328
0.0216311
0.0214006
0.0334644
0.0221293
0.0202366
0.0581194
0.0215621
0.0255911
0.0209081
0.020081
0.21419
1.5736
0.0510851
0.0195284
0.0195183
0.0208463
0.0213694
1.7305
0.0591759
0.286348
0.0274656
0.404018
0.0212984
0.0242405
0.0235159
0.0225872
0.0884881
0.0210372
0.020945
0.739975
0.028779
2.78376
0.0210075
0.530462
0.351965
0.0230518
0.0316791
0.0224805
1.66154
0.0212259
0.0231928
0.160735
0.0229255
0.021016
0.0294147
0.0213829
0.0204611
0.0209387
1.63325
0.0214136
0.0236242
0.183338
0.0306614
0.0228094
0.0277046
0.183787
0.520546
0.189737
0.0202399
0.0213718
0.0217333
0.0216929
0.0211577
0.377357
0.0704121
0.022493
0.39107
0.0357916
0.196798
0.0213845
0.134741
0.0212042
0.37245
0.0564962
0.0205756
1.45159
0.423255
0.0208324
0.0213698
0.0211855
1.55333
0.623714
0.0238794
0.031398
0.0282385
0.0269528
2.80415
0.0924432
0.0211634
0.0213611
1.49328
0.715759
0.0210375
0.0211463
0.02047
0.0214524
0.0213383
0.0231298
1.60476
0.0211636
0.0229494
0.691407
0.0215144
0.0223422
0.0225475
0.633289
0.0213996
0.023998
0.297052
0.0215595
0.0200726
0.0215889
0.0208711
0.0217935
0.367832
0.418652
0.0215317
0.357735
0.0237579
0.0297121
0.0213151
0.0225222
0.0217263
0.0214155
0.20572
0.021493
0.0218044
0.0238919
0.0217904
0.0210509
0.0234625
0.0211808
0.0877959
0.0213579
0.0210241
0.969277
0.0210267
0.740213
0.0246769
0.0208866
0.826758
0.0233261
0.0267642
0.0643553
0.0201963
0.286407
0.0209292
0.0213462
1.39177
0.705001
0.0202121
0.021368
0.0206362
0.0214966
0.0655074
0.0216681
0.021299
0.0216511
0.022231
0.0216967
0.0211592
0.0201793
0.0209251
0.0211694
0.197938
0.0224356
0.0199584
0.0317535
0.0212241
0.743082
0.0314102
0.0274504
0.0213573
0.0211982
0.0562552
0.0221394
0.0211986
0.0213827
0.351997
0.165365
0.0213221
0.0198416
0.0518153
0.0370606
0.019588
0.332035
0.0307333
0.0212486
0.0215558
0.0226152
0.0214436
0.0244019
0.274678
0.0219083
0.0615951
0.0231953
0.0287705
0.0198566
0.0212833
0.0198386
0.0198316
0.172878
0.0210169
0.0538746
0.0320981
0.0198293
0.0215966
0.0270916
0.0219954
0.0215058
0.0213634
0.021776
0.652332
0.019841
0.0214011
0.392859
0.0218565
0.0214664
0.0218576
0.0210361
0.0214828
0.0211453
0.0214132
0.0593017
0.0223772
0.0790039
0.0541704
0.0198638
0.0213738
0.0198499
0.0698384
0.0209784
0.0225607
0.0212165
0.0201753
0.0238138
0.0203721
0.0254477
0.0213449
0.0203824
0.0322385
0.510148
0.0216175
0.0215157
0.0209264
0.141776
0.0607934
0.0213667
0.446095
0.742476
0.0219471
0.0271783
0.357029
0.0224928
0.354948
0.0367122
0.797397
0.0211569
0.027059
0.0845219
0.0203361
0.0320574
2.85833
0.0213551
3.096
3.32716
0.0231749
0.350518
0.0199186
0.0241711
0.0351285
0.0212176
0.243292
0.019978
0.0322782
0.0466251
0.0198774
0.0461195
0.0214482
0.021734
0.0272358
0.0226194
0.607464
0.845502
0.0201196
0.0227633
2.61039
0.020675
0.0230772
0.0207744
0.362762
0.0832204
0.0222906
0.0215149
0.0232231
2.63025
1.78295
0.0251356
0.019885
0.02086
0.849412
0.261208
0.114472
0.021966
0.0219854
0.0236154
0.0200506
0.0218596
0.0231662
0.0220644
0.0208338
0.0231557
0.389757
0.512681
0.0209331
0.239094
0.0224431
0.365057
2.8603
0.0303379
0.772378
0.0740546
0.0199247
0.113202
0.123654
0.584217
0.0393521
0.0211503
0.128747
0.329297
0.0332345
0.023076
0.0345154
0.0852095
0.0210305
0.0233552
0.0229396
0.0211829
0.0561931
0.0212092
0.0227554
0.0205852
0.020039
0.0214142
0.0212756
0.0218717
0.0234537
0.364018
0.0231292
0.32124
0.0207851
0.0239283
0.0214315
1.98747
1.01635
0.0211503
0.0350193
0.0216252
0.02019
0.0212686
0.0201552
0.0210069
0.0790085
0.0214591
0.366922
0.0208009
0.020919
0.417288
0.0219329
0.0216181
0.0211053
0.0211455
0.128923
0.0562329
0.537788
0.236026
0.75132
0.0214109
0.0215773
0.021641
0.0227917
0.0366084
0.0691735
0.62713
0.0209005
0.0331044
0.0217712
0.37106
2.6802
0.0230829
2.94148
1.46669
0.0220829
0.0316211
0.0208549
0.0356364
0.0222891
0.0780652
0.0342545
0.0199822
3.22782
0.539208
0.0214903
0.0221754
0.0216238
0.522933
0.020859
0.0215273
0.604705
0.0207731
1.21026
0.0247145
0.0229205
0.0217754
0.0215708
0.0443492
0.0211065
0.162707
0.0229393
0.0212186
0.0206856
0.0493527
0.021815
0.707002
0.0219888
0.0231373
0.0228701
0.0524715
0.0222698
0.0212143
0.0427042
0.0215438
0.0203772
0.159948
0.0577898
0.0230764
0.0204717
0.0218407
0.0930072
0.0434143
0.0211357
0.0320547
0.0208676
0.077049
0.030662
0.0216603
0.021073
0.0785898
0.0209204
0.0207104
0.0213338
0.068514
0.725585
0.0249452
0.0230181
0.0215963
0.0217386
0.353038
0.0267787
0.0216121
0.0215573
0.0209885
0.0807992
1.84025
1.93193
0.0211869
0.152625
0.0201861
0.0201384
0.0226015
0.0216988
0.0323909
0.0213162
0.0302574
0.417039
3.11526
0.0227964
0.0213985
0.0214197
0.0310501
0.0205739
0.0211314
0.0268815
0.0213685
0.0212004
0.0216659
0.0230982
0.0199926
2.92076
0.0334726
0.0230927
0.0225011
0.0265745
0.0223762
0.112077
0.0213178
0.0212171
0.0213919
0.0209967
0.021373
0.0208334
0.12917
0.0792333
0.0214434
0.0218295
0.0211167
0.0231967
0.0219913
0.0403215
0.0217294
2.62717
0.0212682
0.0215491
0.0207775
0.0640549
0.0214059
2.47952
0.0214201
0.0213904
0.0195306
1.46991
0.0223352
0.0264757
0.735365
0.0215673
0.0213963
0.0210817
0.0213534
0.0247708
0.0217404
0.0231974
0.723052
0.0214532
0.056638
0.161019
0.0224845
0.10323
0.0213354
0.022508
0.020931
0.0203253
0.0201985
0.0213109
0.0549806
0.0741419
0.020795
0.761336
0.0523461
0.0212223
0.43449
0.0203041
0.0267028
0.021731
0.0209893
0.0823626
0.0213474
0.0220518
0.0226648
0.0443398
0.0626153
0.0216215
0.020929
0.0217877
1.59582
0.536331
0.0302732
0.0241821
0.0213594
0.0213519
0.425912
0.021408
0.0256301
0.025531
0.629073
0.0213467
0.0292685
0.0213086
0.021512
0.0260911
0.0263947
0.026028
0.0217785
0.0216308
0.0237629
0.117379
0.0415749
0.0203688
0.0232902
0.0807448
0.022485
0.0322227
0.0214715
0.0215047
0.0213041
0.0227371
0.456221
0.0514699
0.0213245
0.087689
0.0231528
0.0241657
0.0214132
0.0213029
0.0213292
0.0207131
0.0430146
0.0231385
0.021904
0.0217333
0.0212662
0.021348
0.217299
0.0213802
0.021345
0.0215353
0.282759
0.122575
0.0213545
0.0210528
0.0214102
0.151408
0.0216055
0.202401
0.0213564
0.0387996
0.0213505
0.0213768
0.0391401
0.0214893
0.0272755
0.0215328
0.0213705
0.020315
0.02187
0.210219
0.0214506
0.0216919
0.167469
0.0213309
0.0217314
0.0217369
0.0213739
0.0211099
0.0216299
0.044104
0.0207206
0.0207837
0.0209201
0.131822
0.0228772
0.379346
0.0213808
0.0214181
0.0516849
0.199566
0.313888
0.0237287
0.0253396
0.403205
0.0213602
0.37833
0.0215738
0.111601
0.0209212
0.0662772
0.083775
0.0195426
0.0224837
0.021597
0.0217341
0.0203427
0.273267
0.0208597
0.374866
0.0215041
0.0213464
0.0215247
0.0203906
0.0215196
0.144499
0.0212752
0.021111
0.021099
0.0213506
0.0213288
0.172466
1.01054
0.562243
0.0213504
0.0206425
0.022661
0.0214044
0.021256
0.100679
0.032183
0.0218203
0.0212962
0.378841
0.0220745
0.827741
0.164772
0.0219473
0.0202821
0.0212622
0.028576
0.755787
0.0212715
0.0211748
0.0467103
0.127084
0.035531
0.966745
0.0212371
0.0229637
0.0228963
0.020064
0.0215475
0.100776
0.51341
1.36806
0.0212284
0.516451
0.0215115
0.0213171
0.0231432
0.0216664
0.0231774
0.0289103
0.021182
0.0214192
0.0212243
0.0208495
0.019956
0.0210361
0.0233497
0.0626324
0.0216967
0.0195328
0.0199735
0.02125
0.0215983
0.0212561
0.0133497
0.0217042
0.0217408
0.0216573
0.344452
0.021211
0.0223114
0.358608
0.0212688
0.0212184
2.0044
0.0210923
0.0213275
0.0212037
2.00738
0.0214438
0.0314681
0.0215316
1.11415
0.0205455
0.0201254
0.0203788
0.0211907
0.0322131
0.0212304
0.0215259
0.0341805
0.0212666
0.222588
0.0242021
0.0258072
0.0215547
0.102974
0.0267128
0.0213357
0.0211084
0.021648
0.0214409
0.021247
0.194694
0.0209487
0.0403106
0.0211259
0.0213521
1.43549
0.0210189
1.5315
0.0678206
0.0212279
0.0504069
0.0211056
0.0216477
0.021214
0.0215419
0.0206982
0.0212475
0.0211919
0.0212129
0.0951922
0.021378
0.0209451
0.0216018
0.0207625
0.0211696
0.0211684
0.0213763
0.0204731
0.0212855
0.0211753
0.0213433
0.0212002
0.0215848
1.4047
0.0212423
0.021631
0.0287266
0.287745
0.0211777
0.0216152
0.0209462
0.0209499
0.0212186
0.0212462
1.10412
0.251983
0.0210877
0.0219184
0.289458
0.021353
0.348377
0.720121
0.0200222
0.934547
0.0213787
0.05837
0.0226446
0.0289411
1.68019
0.656484
0.0209597
0.0210624
0.0210043
0.0228582
0.0435397
0.0218115
0.0638167
0.609161
0.021322
1.66081
0.042756
0.0236058
0.0203674
0.026063
0.0259278
0.0212044
0.0209775
0.0223968
0.0230582
0.0230469
0.0232063
0.023045
0.0231067
0.482973
0.0210083
0.0211313
0.0211199
0.669746
0.0231399
0.0232154
1.32441
0.00877327
0.0285614
0.0209871
0.0231247
0.0211742
0.0282453
0.0213236
0.0216704
0.0440438
0.0229526
0.0627158
0.0200454
0.298673
0.0305784
0.0767416
0.169854
0.233386
0.0210664
0.0213101
0.0212977
0.124097
0.0213643
0.0208614
0.0212913
0.0246419
1.43721
0.1914
0.0231415
0.0236048
0.0260348
0.030869
0.278694
0.0447677
0.0408386
0.0305774
0.0371206
0.333445
0.0210903
0.0211037
0.0210765
0.0460298
0.0237894
0.0404481
0.0210462
0.0211821
0.0211062
0.613275
0.0211385
0.0210785
0.0210078
0.0286369
0.0209101
0.0211184
0.0202936
0.023124
1.28767
0.0242635
0.0229374
0.0214166
0.468173
0.024801
0.020814
0.0213015
0.347762
0.0670797
0.0213438
0.0213573
1.77629
0.0210509
0.0209585
0.0209196
0.0212345
0.0316236
0.0209733
0.0213962
0.0210751
0.0213972
0.0211388
0.0210862
0.0210398
0.021154
0.0211885
0.0478525
0.0212188
0.0206431
0.0299823
0.0401811
0.0275788
0.0512247
0.0209397
0.0816226
0.0212663
0.0293411
0.0210444
0.0414259
0.021027
0.0211963
0.0201104
0.0374376
0.0231564
0.0211563
0.588302
0.0211061
0.0201098
0.0211053
0.021766
0.024609
0.0209113
0.711163
0.0213631
0.00997425
0.0347325
0.0211872
0.0274785
0.02098
0.0205536
0.0211518
0.938116
0.0240903
0.112133
0.0363675
0.0768517
0.0239452
0.0375811
0.0232102
0.0212133
0.0198749
2.01594
0.0347331
0.0209535
0.0305953
0.020851
0.0209675
0.502311
0.0204463
0.0211802
0.0580453
0.0384598
0.524413
0.021159
0.0209892
0.0229409
0.0209005
0.0215495
0.554243
0.0210901
0.25061
1.03767
1.39553
0.02128
0.0216799
0.0210877
0.0202378
0.0155202
0.0214629
0.021373
0.0268522
0.0206428
0.0252315
0.021201
0.0217576
0.0231161
0.921614
0.023075
0.0214024
0.209898
0.224665
0.0211182
0.0328645
0.0213715
0.0211691
0.0211754
0.0209252
0.0231498
0.0233932
0.0336093
0.0210625
0.0231732
0.0214486
0.0197894
0.0209782
0.0211408
0.0232798
0.0207895
0.0210478
0.0215144
0.0212418
0.754174
0.0213379
0.0216017
0.0366675
0.0217202
0.0201959
0.229955
0.706401
0.752459
0.0972343
0.0515885
0.0204847
0.0216158
0.270775
1.088
0.0630592
0.408132
0.322039
0.0213817
0.331699
0.672621
0.0213172
0.0317532
0.0215777
0.496664
0.011609
1.17598
0.0215662
0.0209421
0.0339193
0.021134
0.0211932
0.363454
0.103798
0.0212657
0.0213625
0.0210194
1.47356
0.0210055
0.0209909
0.0211934
0.0209711
0.0209695
0.0343709
0.0216082
0.0209208
0.0212045
0.0252445
0.465722
0.708176
0.0211752
0.0210374
0.0218777
0.0211858
0.0209506
0.0211061
1.66896
0.0211171
0.0295599
0.0211013
0.0212653
0.0202785
0.0212001
0.687439
0.0266235
0.0204955
0.0214148
0.315772
0.747211
0.32668
0.520599
0.0211712
0.0252267
0.0210604
0.0197775
0.0210212
0.0201258
0.0210194
0.0211926
0.0213656
0.112854
0.0200647
0.0894332
0.64093
0.0201928
0.140511
0.0298873
0.0215324
0.0210859
0.0211872
0.021236
0.0209621
0.221749
0.0199277
0.0209928
0.618692
0.0210488
0.0212287
0.0209524
0.0395965
0.0213278
0.0213204
0.816803
0.0206309
0.020562
0.0210112
0.0223314
0.0211924
0.0196168
0.0210491
0.0201704
0.675279
0.0247158
0.0209774
0.306657
0.0198434
0.0211646
0.0222706
0.408961
0.802084
0.0199831
0.0228954
0.0212471
0.0210857
0.0210152
0.0210548
0.313374
0.182759
0.0211576
0.0215367
0.0129284
0.0209343
0.0209984
0.0230822
0.0237875
0.852461
0.02117
0.0223378
0.64881
0.021067
0.0231632
0.142406
1.55963
0.0206165
0.0209013
0.0207823
0.0210265
0.0209317
0.269551
0.020988
0.650638
0.0520387
0.0216453
0.0231193
0.320896
0.0219452
0.564577
0.101346
0.0314098
0.023135
0.0211379
0.0219098
0.356811
0.0207923
0.17612
0.0209104
0.0199958
0.0200444
0.0201018
0.0210793
0.772533
0.0213469
0.523233
0.391152
0.0621793
0.650312
0.0198114
0.0213407
0.02211
0.074061
0.0211314
0.449824
0.022322
0.0199813
0.0208909
0.259655
0.0208811
0.025392
0.305721
0.0210004
0.408917
0.0215059
0.0403757
0.078382
0.0213385
0.020551
0.0347899
0.0610438
0.021081
0.0221223
0.0201522
0.022078
0.0208267
0.224005
0.0209348
0.0207813
0.0287965
0.0200814
0.405766
0.0213562
0.0211515
0.0210257
0.0384152
0.020915
0.020849
1.02257
0.07699
0.100945
0.0212898
0.0200971
0.0292399
0.592266
0.0349936
0.219704
0.0229377
0.0230723
0.0213259
0.0212104
0.0231983
0.0214841
0.0210007
0.0203477
0.156532
0.0232254
0.0208807
0.0196085
0.0213106
0.0205402
0.0213273
0.0218993
0.682816
0.496311
0.024545
0.110987
0.387923
0.0205886
0.0209014
0.0216196
0.0287473
0.0201279
0.021347
0.0208707
0.0209321
0.0210932
0.0396545
0.0211433
0.75416
0.0212239
0.0208043
0.0457221
0.0281361
0.0214083
0.0208258
0.0208055
0.781222
0.384512
0.0212991
0.0202019
0.0226472
0.020891
0.021186
0.0209582
0.12421
0.0209665
0.0208047
0.0345631
0.020428
0.0519095
0.0231878
0.0209681
0.0212283
0.361752
0.791315
0.251807
0.851773
0.0231563
0.0218222
0.0215297
0.0212156
0.0271436
0.020777
0.303408
1.07321
0.0218576
0.0343951
0.284926
0.0208004
0.17302
0.0262633
0.785473
0.0230706
0.0207426
0.020757
0.021499
0.0210316
0.683079
0.486591
0.429158
0.0210633
0.0208539
0.0208159
0.582498
0.0263239
0.0518015
0.0208379
0.0212318
0.421506
0.0209524
0.0802157
0.748924
0.0208281
0.021208
0.0197576
0.0210702
0.169111
1.45871
0.0208158
0.0209802
0.0206152
0.316578
0.0211127
0.0226276
0.195555
0.0345171
0.807452
0.0131244
0.768352
0.0212064
0.0245738
0.0214312
0.0209947
0.0221922
0.0102364
0.0204176
0.0210132
0.641009
0.0211223
0.0207765
0.263234
0.0203928
0.0209784
0.648706
0.0209664
0.0200022
0.0201766
0.0341097
0.0776953
0.0349677
0.782745
0.0267891
0.851648
0.020948
0.0263311
0.190304
1.20721
0.635258
0.0220521
0.914292
0.146137
1.93293
0.0205625
0.0209894
0.0202097
0.0211337
0.0240813
0.0207313
0.0378778
0.0212873
0.0219186
0.0211662
0.396628
0.0212947
0.0414811
0.0232483
0.0248384
0.0251377
0.0249652
0.0973487
0.0197258
0.0285139
0.0211457
0.113292
0.0212292
0.0280136
0.0490017
0.0223055
0.691454
0.0207521
0.110496
0.0231927
0.0221001
0.0212926
0.624464
0.0213102
0.0208497
0.021163
0.343847
0.0212917
0.0277125
0.228343
0.0243195
0.129039
0.0208081
0.0199838
0.699016
0.0334685
0.27224
0.456109
0.0208077
0.391456
0.442378
0.0359153
0.0206329
0.537563
0.223953
0.020732
0.0226438
0.0198007
0.0321527
0.467211
0.329573
0.59368
0.0207621
0.0206195
0.021482
0.0201519
0.0214997
0.0231811
0.0216905
0.0203428
0.205975
0.0223029
0.0212281
0.0277324
0.197517
0.263934
0.0237763
0.0230569
0.021754
0.821969
0.0207443
0.426086
0.0212779
0.029358
1.96815
0.02173
0.728185
0.0203671
0.0200865
0.0207586
0.0207941
0.0206009
0.0207849
0.0197765
0.845126
0.0232038
0.0209481
0.180192
0.0208278
0.0213548
0.0205967
1.09803
0.0209133
0.0219227
0.314986
0.0978793
0.0208773
0.0197903
0.872067
0.0210899
0.354479
1.99857
0.0213449
0.0214685
0.0277341
0.0359405
0.674497
0.0201616
0.020596
0.0219963
0.0267452
0.0222878
0.47774
0.134003
0.0212943
0.0215527
0.0260681
0.0216132
0.0973195
0.293825
0.0205073
0.508447
0.132801
0.0212518
0.0208819
0.0208307
0.020808
0.0206074
0.0209485
0.0207098
0.0221316
0.0474346
0.0226455
0.0210479
0.0223812
0.0231332
0.0205407
0.0206759
0.090214
0.0218873
0.0232513
0.0205287
0.0217423
0.0205068
0.0199566
0.545443
0.0212927
0.0210377
0.0950075
0.600585
0.0350824
0.0208381
0.60395
0.0213124
0.0926967
0.134605
0.0216062
0.474278
0.0206423
0.0202677
0.673322
0.0208103
0.0377619
1.43388
0.0520087
0.0231866
0.0449945
0.0213694
0.0207842
0.0217793
0.020608
0.0456399
0.0579149
0.0208277
0.299303
0.882112
0.0197404
0.0206202
0.0582545
0.0305057
0.0378324
0.0247556
0.279282
0.467434
0.0211202
0.71446
0.221975
0.0413407
0.496812
0.0239375
0.130546
0.0197587
0.0396246
0.0212361
0.0198822
1.07926
0.629806
0.0416068
0.0196199
0.0494924
0.0203574
0.0206301
0.117075
0.958374
0.020642
0.0211367
0.0278427
0.0199217
0.0222016
0.0207534
0.530439
0.0324833
0.0217295
0.0213347
0.0659398
0.238919
0.686939
0.0258816
0.0206186
0.335585
0.0210017
0.351964
0.024073
0.0206349
0.645744
0.0213562
0.0332404
0.0212997
0.40937
0.021019
0.021165
0.0202043
0.0212133
0.0204304
0.0214545
1.40834
0.342325
0.0205518
1.19112
0.0584288
0.0202876
0.0205182
0.526393
0.326976
0.547268
0.142196
0.696509
0.0205187
0.0210915
0.054601
0.0237826
0.0971897
0.0265383
0.0205851
0.0211259
0.020757
0.0198157
0.0205422
0.0276657
0.0205293
0.314629
0.0208614
0.0213001
0.0582764
0.0197676
0.0271695
0.98656
0.020775
0.0207418
0.0209127
0.0259243
0.0196218
0.020142
0.0237505
0.152158
0.0222592
0.0215295
0.0254411
0.0204854
0.0209269
0.0212001
0.736687
0.0307367
0.33543
0.129543
0.0266154
0.0379702
0.0690396
0.0209761
0.0254333
0.0196234
0.0196382
0.0228572
0.0207729
0.46313
0.247601
0.0229703
0.603935
0.027794
0.619825
0.0285985
0.0199933
0.028114
0.0224007
0.0434733
0.0212372
0.0204073
0.0200885
0.0269551
0.625712
0.277671
0.409457
0.0209333
1.8306
0.0205397
0.120127
0.179383
0.020418
0.0212589
0.0208846
1.02539
0.206938
0.0215152
0.0196198
0.44572
0.0214338
0.0426814
0.0213106
0.0207458
0.432936
0.341419
0.0204622
0.0239403
0.0206446
0.0231316
0.0213028
0.173612
0.0206724
0.0220401
0.0662813
0.0212985
0.0208059
0.40608
0.0285252
0.0213354
0.0212393
0.0215208
0.0205513
0.0204396
0.0361417
0.38908
0.0208094
0.0256644
0.0207831
0.0213259
0.0213118
0.0210574
0.183428
0.325719
0.0249723
0.143131
0.0207221
0.0239732
0.0208079
0.0211843
0.842411
0.0215607
0.0355257
0.0206881
0.0635941
0.0212542
0.0925479
0.209378
0.0203658
0.0207985
0.0375468
0.0298332
0.20603
0.322094
0.0321319
0.294137
0.0231343
0.0211559
0.34039
0.0207213
0.277467
0.0199121
0.173558
0.0242732
0.0207781
0.0208423
0.0208182
0.225164
0.335161
0.0209623
0.0286345
0.0226329
0.0419504
0.0204299
0.0228383
0.0282761
0.0203974
0.0559048
0.0276262
0.0201646
0.442895
0.103542
0.822206
0.020418
0.353325
0.0206083
0.0201976
0.31635
0.0204076
0.695322
0.019942
0.0207641
0.0204414
0.0231529
0.0793782
0.0207118
0.360223
0.0198249
0.0240287
0.0344266
0.0207307
0.310523
0.0295022
0.029576
0.101705
0.0210317
0.0204974
0.587235
0.0204194
0.0203287
0.0205894
2.12883
0.309043
0.659935
1.63281
0.0200713
0.0209818
0.0210366
0.299016
0.0206198
0.370789
0.363798
0.0212035
0.0881869
0.497863
0.420683
0.0203418
0.0202971
0.0217099
0.0212198
0.115231
0.419864
0.0202891
0.0233883
0.0206544
0.389795
0.0311302
0.0206856
0.0509963
0.0209385
0.0211535
0.0198672
0.0220063
0.0725523
0.0609613
0.0203977
0.0855178
0.168596
0.0199784
0.390206
0.0205519
0.0208582
0.154514
0.020234
0.219725
0.0198356
0.0232927
0.764054
0.0197569
0.0200531
0.0209454
1.92736
0.0235863
0.638645
0.0428076
0.0221839
0.0230535
0.0947432
0.0204708
0.912084
0.061766
0.020598
0.2421
0.0464203
0.0294558
1.74089
0.0381703
0.0203312
0.382762
0.129341
0.210822
0.327568
0.0204311
0.0202865
0.0207063
0.618732
0.0202664
0.0201138
0.0417525
0.0233487
0.0211933
0.0203185
0.0207887
0.020249
0.0204546
0.0331094
0.0207906
0.372219
0.0540174
0.0250214
0.0229313
0.02059
0.0203464
0.0724995
0.129013
0.602981
0.510819
0.0204648
0.0206358
0.0302171
1.59903
0.311373
0.0203621
0.459318
0.111604
0.0198987
0.0326946
0.0508497
0.020108
0.0208299
0.0207557
0.0207763
0.0200575
0.0325864
0.621559
0.0206135
0.329659
0.0211984
0.0286743
0.0208758
0.0212815
0.0460839
0.024751
0.0240339
0.020298
0.0198247
0.0202543
0.0202507
0.364799
0.264566
0.173359
0.0569623
0.352696
0.0242202
0.0202738
0.00538903
0.0291258
0.021134
0.141084
0.0217819
0.0197538
0.0275914
0.70073
0.021186
0.0231079
0.0250215
0.647446
0.0774736
0.0202374
0.0232107
0.0206703
0.408934
0.0206106
0.110857
0.268648
0.0380607
0.0716263
0.0363225
0.0233394
0.0389767
0.0208639
0.0203011
0.0206297
0.0206748
0.284927
0.0205733
0.0205741
0.0217171
0.0208343
0.0201553
0.0433919
0.412108
0.427222
0.0201839
0.780222
0.331275
0.026417
0.0207264
0.0203255
0.0213852
0.0201329
0.162672
0.0260527
0.0202434
0.068087
0.0205307
0.426115
0.0406747
0.0205641
0.857643
0.127092
0.0203177
0.223118
0.443075
0.035484
0.0206683
0.0617426
0.269579
0.0196221
0.0204712
0.366136
0.0230706
0.020752
0.352651
0.021037
0.0203323
0.0204506
0.0203002
0.413215
0.0201404
0.0203099
0.260598
0.335072
0.0204284
0.020709
0.368548
0.0608309
0.0212629
0.0249317
0.0203475
0.920448
0.19
0.0214403
0.020184
0.696259
0.550524
0.0214082
0.0200685
0.443644
0.0217234
0.0201668
0.898306
0.0208708
0.0814707
0.0204366
0.478885
0.200515
0.0682605
0.0669949
0.0203779
0.0492455
0.0206886
0.0227334
0.306094
0.0201197
0.0230092
0.0203642
0.473392
0.0206536
0.0203082
0.0199255
0.0204095
0.0202003
0.0200767
0.0417947
0.021337
0.0521392
0.0221443
0.0197856
0.0224683
0.116381
0.0205104
0.2755
0.0202355
0.0210006
0.537489
0.0229337
0.387691
0.0231774
0.0296374