/*--------------------------------*- C++ -*----------------------------------*\
| =========                 |                                                 |
| \\      /  F ield         | OpenFOAM: The Open Source CFD Toolbox           |
|  \\    /   O peration     | Version:  v2012                                 |
|   \\  /    A nd           | Website:  www.openfoam.com                      |
|    \\/     M anipulation  |                                                 |
\*---------------------------------------------------------------------------*/
FoamFile
{
    version     2.0;
    format      ascii;
    class       surfaceScalarField;
    location    "450";
    object      phi;
}
// * * * * * * * * * * * * * * * * * * * * * * * * * * * * * * * * * * * * * //

dimensions      [0 3 -1 0 0 0 0];
oriented        oriented;


internalField   nonuniform List<scalar> 
14516
(
0.347634
-0.26476
-0.0831038
-0.710837
0.38589
0.324926
0.241324
0.106058
0.441635
-0.00275257
-0.440438
0.0297929
0.29699
-0.326738
0.244343
-0.519478
0.274809
0.392701
-0.6468
0.252448
0.125822
0.434434
-0.560719
0.405251
-0.372958
-0.032094
0.299735
-0.269937
0.25676
-0.0217707
-0.234975
0.207133
-0.370735
0.163588
-0.155093
0.59537
0.614401
-0.375038
-0.23938
0.61334
-0.616012
-0.404183
0.654799
-0.250684
0.127622
-0.524027
0.39648
0.550885
-0.423585
0.302496
-0.321492
0.0189957
0.210199
0.46054
-0.277572
-0.182928
0.405408
-0.214138
-0.190882
0.320869
-0.552821
0.231891
-0.305446
-0.306069
0.365672
-0.55518
0.189209
0.464366
-0.620834
0.407563
-0.659329
0.251685
0.6745
-0.453511
-0.22096
0.0529409
-0.220657
0.167613
-0.00907717
0.414708
0.373987
-0.0269479
-0.347321
0.623699
-0.302982
-0.314431
0.571557
-0.25735
-0.594562
0.60075
-0.00650217
-0.253085
0.0549897
0.198086
0.242584
-0.505202
0.262617
0.56953
-0.177917
0.222459
0.183342
0.242289
0.313577
-0.556837
0.686414
-0.358306
-0.328345
-0.030919
0.404682
0.0758817
0.534809
-0.556176
0.0298698
0.524818
0.676321
-0.364712
-0.312967
0.0387439
-0.596616
0.493249
-0.200121
-0.711828
0.366589
0.345197
0.431712
-0.319689
-0.111787
-0.409206
0.404845
0.253975
-0.199022
0.277181
-0.177488
-0.099604
-0.180913
0.450676
-0.269816
-0.228079
-0.161328
0.389287
0.411623
-0.204713
-0.206843
-0.232482
-0.160916
0.393313
0.285643
0.219777
0.0692152
-0.202039
0.132847
0.350654
-0.437859
0.0869092
-0.26267
0.504597
-0.669503
0.445291
0.223778
-0.23483
0.460564
-0.225721
0.453142
-0.07705
-0.376099
-0.566416
0.0809851
0.482454
-0.24966
0.340459
-0.590058
0.303574
0.286439
-0.0287997
0.481814
-0.347874
-0.0753588
0.423274
0.367505
-0.160407
0.288226
-0.0313554
0.209783
0.201926
-0.497823
0.607831
-0.110003
0.320275
-0.538423
0.218595
0.263943
0.326527
-0.590455
0.385749
-0.131866
0.506853
-0.156508
-0.580918
0.272962
0.307741
-0.521229
0.61352
-0.0923104
0.222175
-0.590878
0.368756
0.206929
-0.568121
0.361156
-0.286714
-0.303412
0.239668
-0.602065
0.362176
-0.384431
0.478442
-0.094018
-0.773567
0.374905
0.398566
0.392956
-0.424
-0.722588
0.379916
0.342575
-0.371873
0.578863
-0.528226
0.268011
0.260076
-0.193698
-0.306647
0.500071
-0.2704
0.615467
-0.345442
-0.307146
-0.40371
-0.37207
0.17088
0.201261
-0.185555
-0.352189
0.537585
0.406645
0.216926
-0.428506
-0.368229
-0.405434
0.178506
-0.410904
0.15089
-0.535346
-0.53206
0.346293
0.727133
-0.293506
-0.433787
0.400595
0.326353
-0.273685
0.61586
-0.342504
-0.18937
0.534346
-0.345299
0.347718
-0.537381
0.137373
-0.658646
-0.0451446
0.438117
0.0518548
-0.358478
0.438127
-0.643138
0.204144
0.289782
-0.471019
-0.696228
0.506803
0.18946
-0.542075
0.0442527
-0.445534
0.256184
0.189553
0.267517
0.19171
-0.423016
0.0791617
0.343762
0.157448
0.11982
-0.295542
-0.526759
0.249111
0.277408
0.216406
0.169244
0.576945
-0.337539
-0.223875
0.630246
-0.547457
-0.148737
0.0427163
0.441726
-0.484435
0.305712
0.203378
-0.510083
0.432665
-0.188537
-0.448908
0.21648
0.232465
0.200681
0.259902
0.0717247
-0.222321
0.150566
-0.352622
-0.370063
0.573493
-0.351348
0.0632525
-0.41735
0.353967
-0.70567
0.486414
0.219243
-0.255394
0.371797
-0.308501
0.60428
-0.446789
-0.15755
0.368977
-0.377984
-0.518545
0.213336
0.305004
0.00501015
-0.573982
0.445151
0.229864
0.521939
-0.256468
0.392064
0.227742
-0.619872
0.481718
-0.176741
0.336006
-0.514302
0.178119
0.682824
-0.311255
-0.373083
-0.703119
0.294026
0.409073
0.276904
-0.651943
-0.606617
0.359721
0.246838
-0.651771
0.323198
0.328545
-0.383904
-0.319248
-0.164368
0.517507
-0.353404
-0.202641
-0.169361
-0.323811
0.247918
0.0758707
-0.354851
-0.350834
-0.093929
-0.229939
0.471609
-0.171885
-0.504971
0.340328
-0.375887
0.418608
0.681728
-0.323715
-0.358102
0.511185
-0.175349
-0.756643
0.372587
0.28009
0.40146
-0.370757
0.496252
0.32179
0.352735
-0.610864
0.405981
0.204851
-0.347144
0.336392
0.0109023
0.217964
-0.59112
0.373121
0.26654
-0.544291
-0.331954
-0.1917
-0.131093
0.322836
-0.22141
0.628922
-0.608915
0.272261
0.336517
0.0535697
-0.45611
0.401602
-0.455463
0.195579
0.259827
-0.387705
0.605607
-0.304057
-0.15161
-0.48332
0.238492
0.244976
-0.0445228
-0.250737
0.21688
0.364848
-0.58175
0.585523
-0.282007
-0.303711
-0.0403832
0.227299
-0.186838
0.067008
0.0856609
-0.152641
-0.18324
-0.125232
0.308632
-0.35619
-0.148785
0.322688
-0.511459
0.188471
-0.215295
0.535749
0.216119
-0.146922
0.327273
0.258071
-0.497748
0.302786
0.193967
-0.389083
-0.221812
-0.236101
-0.247085
-0.403413
0.479968
-0.0773067
0.319675
0.112291
-0.253968
-0.191379
-0.376534
-0.246196
0.20599
0.070713
-0.287758
0.217041
0.557015
-0.343009
-0.214233
0.261424
0.210158
0.538917
-0.146924
0.0230905
0.345944
-0.405289
0.337251
0.0680664
-0.392718
0.231631
0.173038
0.290447
-0.463687
0.459952
-0.246954
-0.482418
0.619777
0.509236
-0.642038
0.333548
0.3085
0.383685
-0.428646
-0.259813
0.360046
-0.0997769
0.331139
-0.122005
-0.20916
0.485402
-0.165408
-0.43448
0.114913
0.181823
-0.409664
0.266423
-0.195718
0.437419
0.244219
0.584265
-0.374713
-0.209532
0.500797
-0.178344
0.0690806
-0.551507
0.279533
0.0633838
-0.343012
-0.341194
0.205529
0.135338
0.497606
-0.345316
-0.152576
-0.210387
-0.584389
0.179924
0.703352
-0.328529
-0.0688201
-0.332624
-0.187194
0.212333
0.328456
-0.540997
-0.171567
-0.169915
-0.250114
0.0930337
0.157179
-0.682311
0.376868
-0.624781
0.318697
-0.314914
0.131942
0.611601
-0.161737
-0.44996
0.0838129
-0.223708
0.13995
-0.0807039
0.360204
-0.304024
-0.202759
0.505498
-0.177761
-0.357787
0.534702
0.400656
-0.222103
-0.647359
0.422187
0.224737
-0.0506863
0.434651
-0.622821
0.31215
0.310646
-0.552029
0.353065
0.198193
0.210316
-0.524757
-0.337509
0.540328
-0.203295
0.183199
0.334056
0.644258
-0.210271
0.324969
0.185987
-0.349088
-0.149679
-0.445133
0.417085
-0.210573
-0.206538
0.0965891
-0.280697
0.184198
0.291558
-0.134021
-0.233093
0.0944145
0.138735
-0.328659
-0.181574
0.509249
-0.428537
0.245634
0.183187
0.177656
0.310985
-0.489288
0.272586
-0.175928
0.517773
-0.351845
-0.166298
-0.668474
0.324101
0.344414
-0.590306
0.50573
0.0845929
-0.515658
0.113571
0.178077
0.427189
0.176855
-0.604145
-0.338216
0.146557
-0.485912
-0.0345247
0.52044
-0.704187
0.218295
0.142945
0.188169
0.403329
-0.0660422
-0.403057
0.479741
-0.0772626
-0.255976
-0.412467
0.597775
-0.382828
-0.215097
0.102265
-0.317631
0.21528
0.499607
-0.317848
-0.181896
0.592692
-0.512895
-0.0797834
0.534328
0.058374
-0.244204
-0.483292
0.229535
0.618715
-0.345401
-0.274412
-0.161314
0.50266
-0.177985
-0.600174
0.195208
0.404975
0.553771
0.014444
-0.569426
0.244165
0.442013
0.356619
0.140769
0.197606
0.219436
-0.0306579
-0.226023
0.256726
-0.675645
0.442459
0.231665
0.273466
0.186163
0.216265
-0.309685
-0.217272
-0.461745
0.182895
0.278094
0.203708
0.275913
0.345451
-0.6214
0.387554
0.21665
-0.38216
0.165405
0.216909
0.210698
-0.241223
0.341477
0.232511
-0.574728
0.271191
-0.401427
0.129993
-0.292872
0.393402
-0.295474
-0.0976179
0.229075
-0.411625
0.182823
-0.101512
0.538867
0.38622
-0.628826
0.241345
0.612095
-0.488978
-0.123085
0.295989
-0.193759
0.347163
-0.311662
-0.0354258
-0.311379
-0.190239
0.501327
0.347198
0.0464134
0.634594
-0.357451
-0.278466
0.481938
0.130189
0.349148
-0.00190975
0.257412
-0.406369
0.14904
0.131525
0.235314
-0.366839
0.277706
-0.548567
0.350647
-0.245615
-0.276759
0.522064
0.126568
0.199257
-0.325825
0.0359925
-0.295452
-0.251775
-0.282708
0.534219
-0.327206
-0.000935308
-0.233598
0.234565
0.620937
-0.294405
0.652179
-0.583094
0.138536
-0.0715261
-0.379306
0.160606
0.218934
-0.35913
-0.0790174
0.367887
-0.151664
-0.38507
-0.187259
0.572241
0.183912
0.156878
0.19609
0.293254
-0.567076
0.384997
-0.4354
0.286604
-0.158365
-0.128248
-0.339107
-0.248873
0.587664
0.276782
0.246929
-0.364069
0.386749
0.597392
-0.571929
-0.0256984
0.082923
-0.53647
0.0827837
0.209837
-0.292724
0.538905
-0.21154
0.268245
-0.520449
0.3735
-0.398101
-0.249678
0.2876
0.367135
0.617657
0.298269
0.0633379
-0.361212
0.304674
-0.204974
0.189845
-0.414031
0.224198
-0.37021
0.0207198
0.349168
-0.146259
-0.267809
0.414051
0.217416
-0.0658008
0.329791
-0.263784
-0.400336
0.23898
-0.29127
-0.12734
0.418632
-0.407915
-0.0198522
-0.185944
0.205644
0.384424
-0.174595
0.082874
0.133244
0.178505
-0.198521
-0.137923
0.436507
-0.496182
-0.0710234
0.56688
0.365815
-0.0993935
-0.370616
-0.299239
-0.506881
-0.0834308
-0.265765
0.543129
0.0754914
0.536017
0.431146
-0.201769
-0.0646455
0.44985
0.205512
-0.206405
0.00820241
-0.378672
0.213055
-0.129231
-0.364185
-0.141042
-0.499218
0.225277
0.273936
-0.332741
0.528683
-0.195812
0.261663
0.0953521
-0.263912
0.168576
-0.278679
-0.220141
-0.208136
0.130825
-0.388079
0.257543
-0.510412
0.267249
0.524063
-0.182892
-0.370468
0.15417
0.216643
0.573304
-0.598041
0.0246053
0.164613
-0.523041
-0.371806
-0.26947
-0.447705
0.227933
-0.290225
0.224324
0.408019
-0.0812836
-0.326427
-0.218018
0.206265
0.659712
-0.208646
-0.451151
0.132203
-0.0853784
-0.164631
0.262711
0.328095
-0.590775
-0.68758
0.459991
0.227144
-0.0170227
-0.347359
-0.170629
-0.140895
0.311557
0.25048
0.409149
-0.28292
-0.339924
0.346427
-0.121035
-0.225316
0.450216
-0.372166
-0.0779834
0.385475
0.212151
0.00740565
-0.430488
0.12312
-0.481852
-0.224847
0.61369
-0.228371
0.190469
-0.329581
0.139004
0.374102
0.164962
0.251235
-0.155794
-0.282409
-0.317927
-0.0439793
-0.508919
-0.537243
0.296879
0.24011
-0.192171
-0.315374
-0.222136
-0.604952
0.338767
-0.351399
-0.351821
-0.254849
-0.276013
-0.0626435
0.338634
0.379289
0.238498
0.326113
-0.194549
0.109119
0.147109
0.250372
-0.397072
0.205262
0.312158
-0.21366
-0.194422
0.600332
0.349408
-0.122085
0.555261
-0.0499592
-0.506871
0.0201925
0.305977
-0.397196
0.633098
-0.235961
-0.584158
0.188648
0.395383
0.636598
-0.410555
-0.173653
-0.382987
-0.226047
-0.51262
0.201187
0.311557
0.472624
-0.197239
0.565251
0.553432
0.0226356
-0.577464
0.33971
0.0686326
0.160425
0.346121
0.342461
0.214319
0.204999
0.179466
-0.61055
-0.299218
0.352595
-0.209513
0.171445
0.278903
0.250259
-0.277349
-0.148163
0.320741
-0.172533
0.180475
0.305238
0.118023
0.0563932
-0.384491
0.326672
0.456934
-0.136222
-0.320699
0.164065
0.185374
0.322165
-0.131883
0.536768
-0.348142
-0.141488
0.489521
0.400165
0.233213
-0.215866
-0.306239
0.521575
0.0663537
0.146723
-0.307407
0.509869
0.399714
0.215465
-0.18952
-0.309236
0.161101
0.372882
-0.109003
0.55382
-0.430575
0.136144
0.294151
0.0775877
0.173777
0.23787
0.262696
-0.353892
0.514619
0.0270514
0.26886
0.627832
-0.262996
0.0859663
0.514479
0.64425
-0.317335
-0.326933
-0.202544
0.145491
0.311557
0.201315
-0.502429
0.286011
-0.624832
0.391213
0.233478
-0.416852
0.495698
-0.47865
0.19116
0.287268
-0.145155
-0.402272
-0.323891
-0.353171
-0.323653
0.378193
-0.200803
-0.210555
0.375591
-0.440398
-0.197544
0.261305
-0.338548
-0.332013
0.496494
0.0767305
0.522886
-0.0957963
-0.210618
0.365226
-0.273635
0.283288
-0.263149
0.00286305
-0.537548
0.532012
-0.284469
-0.292685
0.576121
0.183182
-0.526506
-0.279184
0.178445
-0.507895
-0.275616
0.274404
-0.160859
0.323842
-0.596576
0.272657
-0.351326
0.0371824
0.225161
-0.262291
0.610659
-0.315826
-0.29498
-0.288033
-0.174495
-0.345202
-0.245653
-0.15221
0.408586
0.191033
0.336824
-0.197746
-0.138967
-0.579546
-0.223914
-0.328864
-0.188715
0.281857
-0.19383
0.495816
0.0361305
0.191999
-0.228169
0.145005
0.286436
-0.19113
0.345923
0.264576
-0.0271643
-0.0768103
0.452142
0.368086
-0.557492
0.189164
0.280259
-0.478855
0.198476
0.099556
0.131938
-0.0686169
0.386843
-0.318691
-0.195762
0.563566
-0.0581917
0.420291
-0.363122
-0.419788
0.350383
0.513769
-0.129251
0.249264
-0.212104
0.472033
-0.2016
0.481796
-0.245568
-0.25191
0.497101
-0.254697
-0.160021
0.414922
0.62462
-0.348735
-0.448488
0.389395
-0.245034
0.391187
-0.146168
-0.120701
0.203553
-0.594169
0.21118
0.30747
0.163366
-0.471002
-0.312362
0.141767
-0.165658
-0.293399
0.459364
0.585317
-0.357638
-0.227791
-0.362631
0.0712114
0.269737
-0.180126
-0.272591
0.154196
0.0724449
0.0935847
-0.41812
-0.182046
-0.313751
-0.356202
0.130251
-0.26722
0.46117
-0.193803
-0.547714
0.530601
-0.532763
0.00873415
-0.272064
0.563319
-0.291285
-0.0887757
-0.407601
0.495193
-0.234166
-0.567469
0.280867
0.428639
-0.15216
-0.276363
0.195277
-0.159181
0.153302
0.183633
0.132219
0.189749
-0.186849
-0.431142
0.0810185
0.155725
-0.236758
-0.123716
0.431079
0.327364
-0.581602
0.254312
0.147974
0.24134
-0.389458
0.293999
-0.488991
0.195069
-0.626997
0.269914
0.357073
-0.325723
-0.22359
0.549298
0.473226
0.0795734
0.321021
-0.528867
0.0497232
-0.155449
0.105699
0.623453
-0.276272
-0.347241
0.377268
0.241431
-0.618771
-0.169428
-0.128266
0.297811
-0.373532
0.237456
0.136458
-0.16844
-0.21267
-0.325433
-0.30073
0.495824
-0.195322
0.286945
-0.452124
-0.178494
0.465973
-0.106505
-0.214996
0.0596663
0.263914
-0.32474
0.127825
-0.476013
-0.0321184
0.342825
-0.310585
-0.350953
-0.381274
-0.262599
0.250465
-0.223412
0.216469
0.130019
0.291456
0.164342
-0.427651
0.263275
-0.2543
-0.244928
-0.234531
-0.121641
0.00482122
0.257846
-0.124771
-0.248445
-0.376703
-0.189657
0.565894
0.231501
0.242818
-0.380599
0.0395367
0.233112
-0.161619
0.419118
0.311608
-0.247929
-0.00182485
0.34562
-0.343868
-0.49775
0.3072
0.19054
0.0392814
-0.315286
0.164436
0.10287
-0.267292
-0.373485
-0.274599
-0.481876
0.18084
-0.597748
0.205141
0.392412
-0.33866
0.569673
-0.231572
-0.570648
0.231265
0.315958
0.564775
-0.414061
-0.150809
-0.335286
-0.27564
-0.497854
0.216932
0.347687
-0.604048
0.313168
0.289385
0.25683
-0.411884
0.155294
-0.275576
0.613852
-0.338305
0.088355
0.232907
0.50842
0.00864334
-0.517634
-0.240753
0.408754
-0.151772
0.199332
-0.194233
0.236036
-0.155085
-0.150774
0.535768
0.324097
-0.517167
0.192861
-0.294209
-0.187963
0.205106
0.347779
-0.553369
-0.38408
0.627698
-0.243648
0.494431
-0.170626
-0.624613
0.240486
-0.270645
0.53873
-0.241052
-0.25668
0.371925
0.251463
-0.229706
-0.0901987
0.319827
-0.334698
-0.353283
-0.460055
0.53447
-0.00134019
0.413337
-0.412487
0.473437
-0.179441
0.186611
-0.514682
0.327446
0.242592
0.370952
-0.0789568
-0.155985
0.0368828
-0.455005
-0.155336
-0.231447
0.386466
0.14452
-0.0948048
-0.270631
-0.284778
0.0116334
0.545826
-0.559697
0.212215
0.432015
-0.177115
-0.0249054
-0.252213
-0.345724
0.206093
-0.139732
0.179081
-0.413141
0.307447
-0.394726
0.561639
-0.167021
0.251989
-0.40752
-0.429829
0.396199
0.0332285
-0.370631
-0.160253
0.530797
-0.545556
0.263519
0.281822
0.211806
-0.60914
-0.342262
0.604975
-0.287734
0.174558
0.151564
-0.326053
-0.488466
0.221008
-0.121413
-0.431511
-0.0976218
-0.0870827
-0.302957
-0.302703
-0.658512
0.344975
0.313587
-0.405172
0.58931
-0.184178
0.112596
0.161789
-0.200497
0.524232
-0.0690944
-0.198077
0.267334
-0.144971
0.387798
-0.22182
0.315663
0.523575
0.0784024
-0.483609
-0.145046
-0.10425
0.249277
-0.524419
0.253555
-0.429202
0.127144
0.126903
0.0569175
-0.183818
0.204426
0.324399
0.354224
0.23099
-0.355036
-0.190702
-0.327728
0.464464
-0.136656
0.605102
-0.250992
0.229357
0.230642
-0.460092
-0.580677
0.273266
0.307384
0.61283
-0.394953
-0.217947
-0.328683
-0.0490033
0.377651
-0.33799
0.0426689
-0.318696
0.503904
-0.614268
0.291755
0.321435
-0.548703
0.0165919
0.531677
-0.580937
0.237226
0.343745
-0.646205
0.369879
0.36749
0.271678
0.361363
0.142869
-0.463982
0.321081
-0.115903
0.300052
-0.300155
0.679028
-0.378949
-0.40514
0.150642
-0.266412
0.118393
0.425376
-0.14133
-0.284164
0.402408
-0.169883
-0.191289
0.458596
-0.44737
0.11858
0.205482
-0.123658
-0.081856
-0.374581
0.422917
-0.38604
0.541694
-0.325245
-0.216385
-0.283012
0.467917
-0.185079
-0.23291
0.0111184
-0.577096
0.504208
0.0719521
-0.287773
0.571891
-0.284105
0.189541
0.33595
-0.52567
-0.211314
0.577924
0.307138
0.234615
0.411125
0.201675
0.223762
-0.00595713
-0.484073
0.137373
0.126466
-0.295727
-0.295082
0.109021
-0.399137
0.353677
0.0453111
-0.0677328
-0.331545
-0.620079
0.265848
0.354194
0.53175
-0.342408
-0.382382
0.192746
0.180669
-0.471715
0.185782
-0.033091
-0.361398
0.394883
-0.595544
0.237745
0.60289
-0.319539
0.548568
-0.22975
-0.517935
-0.355632
-0.302832
-0.473782
0.277168
0.196638
-0.168713
-0.280457
0.448858
0.150086
0.447063
0.493377
-0.529759
0.0362629
-0.0220711
-0.372882
-0.13777
-0.580914
0.255878
0.324959
0.547489
-0.342735
-0.625233
0.318874
0.305497
0.166647
0.306793
-0.301917
-0.458551
-0.251082
0.0303507
-0.310101
0.452873
-0.0315122
0.538356
0.299774
-0.587558
-0.233702
-0.330227
0.563533
-0.154568
0.184186
-0.297358
0.113304
-0.184579
-0.124096
0.308747
-0.194974
0.0964404
0.376321
-0.473546
0.0973349
0.123709
0.128961
-0.49966
0.227478
-0.551008
0.323236
0.292128
0.133133
0.0102051
0.483084
-0.24147
0.526656
-0.28508
-0.0457459
0.287978
-0.242053
0.562143
-0.532382
-0.0297462
-0.230246
-0.163322
0.393646
-0.568454
0.338608
0.229648
-0.526418
0.322428
0.203946
-0.616151
0.247537
0.368599
-0.361675
0.60913
-0.247559
-0.447904
0.349192
0.0986274
-0.339106
0.00124387
-0.46516
0.187939
0.277505
0.317468
-0.185355
-0.0693579
0.4085
-0.339267
0.438362
-0.126327
-0.260419
0.191437
0.158422
-0.0198894
-0.030286
0.486673
-0.458555
0.129062
0.0763899
0.334494
-0.568413
0.10094
-0.246016
-0.171833
-0.567534
0.291918
0.437856
0.0701296
-0.337562
-0.288568
0.38007
-0.209105
-0.591043
0.359349
0.230406
-0.156003
-0.207785
0.364162
-0.107085
0.551123
0.5205
-0.175065
-0.255081
0.312017
-0.117682
-0.19458
-0.619529
0.414914
0.204491
0.295124
0.200087
-0.531013
-0.538318
0.218545
-0.546319
0.274468
0.271903
0.216867
0.318031
-0.535994
0.447259
-0.187358
-0.314948
0.542196
0.261294
0.343705
-0.435003
-0.137136
-0.610142
0.25457
0.50627
-0.129077
-0.199291
-0.171449
0.281481
-0.427904
-0.452034
-0.635708
0.340227
0.294514
-0.52625
0.286945
-0.272911
-0.273356
0.29703
-0.538527
-0.243737
0.191856
0.0519037
-0.473868
0.301131
0.172642
0.292755
0.174987
0.299104
-0.114721
-0.520446
0.248371
0.648715
-0.289151
-0.35959
-0.230392
0.557814
-0.189159
-0.392361
0.198981
0.112792
0.301657
-0.0723049
-0.229252
-0.142723
-0.221149
0.364268
-0.545982
0.263576
0.282445
-0.461817
0.190135
0.27164
-0.25375
0.514313
-0.26075
0.25614
-0.366155
-0.229754
0.377673
-0.271469
-0.00616475
-0.0201444
-0.51733
0.534394
-0.166022
0.410375
-0.314987
0.291138
0.16846
-0.460085
-0.143191
-0.091371
0.234529
0.170677
0.256277
0.37139
-0.312777
-0.601775
0.352273
0.249378
-0.099894
0.20097
0.259596
0.100293
-0.427811
-0.31775
-0.264826
-0.359834
-0.543798
0.218095
0.198858
0.201923
-0.400685
0.235304
-0.513151
0.492
-0.610844
0.270548
0.340198
-0.197072
-0.333785
0.530637
0.282238
0.36645
0.478349
-0.323078
0.592989
0.222956
0.527562
-0.263967
0.25254
0.275045
0.635915
-0.277716
-0.358176
0.198306
0.30527
-0.503818
0.116063
-0.39724
-0.364214
-0.177566
0.541743
0.0381812
0.120214
0.489354
-0.521802
0.34847
-0.423683
-0.429477
0.558417
-0.224005
-0.435183
0.145063
0.290267
-0.376481
-0.243155
0.315065
-0.384602
0.210281
-0.0281983
-0.182073
-0.179855
-0.34298
0.522697
0.448091
-0.217302
-0.617653
0.252774
0.364842
0.148376
0.216057
-0.364615
-0.241952
0.0920607
-0.559243
0.24784
0.311206
0.203226
-0.577842
-0.114015
-0.137165
-0.372942
-0.244749
-0.637548
0.372687
-0.283257
0.106318
0.176771
-0.55222
0.315974
0.236001
-0.309772
0.187782
-0.551931
0.227651
0.358292
-0.58601
-0.277816
-0.276673
0.554519
0.314552
-0.346634
-0.619283
0.251639
0.367624
0.292534
-0.603876
0.328235
-0.602144
0.360031
0.242055
0.332293
0.241162
-0.312019
0.205572
-0.101535
-0.181886
0.156886
-0.521156
-0.186726
0.316607
-0.471922
0.400071
0.0718107
-0.239109
0.382626
-0.143522
0.352538
-0.385411
0.102746
0.188215
-0.290828
0.188544
0.113199
-0.213771
-0.31271
0.33724
-0.519584
-0.17506
-0.369364
0.0274305
-0.25721
0.169808
-0.131634
-0.320381
0.529874
-0.209244
0.407791
-0.531332
0.27888
0.252399
0.520599
-0.518807
0.146479
-0.234694
0.0882562
-0.308704
0.141267
0.167688
-0.106465
-0.0843643
0.525344
0.272266
-0.107779
-0.479937
0.548671
-0.068683
-0.561817
0.328303
0.232927
-0.526633
0.206339
-0.275026
-0.335909
0.142327
0.271708
-0.593655
0.216381
0.32703
-0.52771
-0.0753908
-0.168322
-0.42335
0.268307
0.155146
0.161003
0.104342
-0.286732
0.527799
-0.240778
-0.0906483
0.237203
0.159727
-0.389879
0.135692
0.181662
0.63218
-0.373921
-0.258289
-0.22247
-0.34492
0.263916
-0.355347
0.150295
0.251236
-0.401591
0.2031
-0.327042
-0.321133
-0.238313
-0.0976579
0.557032
-0.307293
-0.264743
-0.315959
-0.151583
0.259596
0.267168
-0.340601
-0.3223
-0.203336
0.525742
0.391532
0.572999
0.291122
0.204467
0.223613
-0.0945611
-0.340615
-0.214919
0.555116
0.37718
0.35117
-0.492761
0.348638
-0.614804
0.265246
0.251667
-0.411627
0.588979
-0.0354192
-0.0680628
0.194974
0.495158
0.321824
-0.297785
-0.0241483
-0.356901
0.219399
0.137413
0.221464
-0.583265
-0.604609
0.325027
0.279588
0.0412299
0.128569
-0.119157
0.481452
-0.362211
0.309129
-0.513489
0.0256821
0.18461
-0.233373
-0.321468
0.554859
0.31877
-0.51454
-0.191784
0.484643
-0.363836
-0.230098
0.437425
-0.155924
0.108512
-0.268591
0.160071
0.366124
-0.167203
0.292367
-0.47052
-0.270703
-0.15329
0.499963
-0.346525
0.243565
0.151408
-0.395014
-0.0649343
0.55135
-0.400082
0.240235
0.159996
0.457788
-0.156815
0.408275
0.375989
-0.628217
0.251436
-0.62874
0.17443
0.228041
0.404867
-0.592239
0.223174
-0.39867
0.175547
0.30855
-0.528197
0.219415
-0.188848
0.399408
-0.210198
0.528913
-0.221733
-0.325731
-0.502653
0.231889
0.308887
-0.272589
-0.201167
-0.310441
-0.290394
-0.202057
0.491555
0.229839
0.339273
0.248002
-0.280922
0.294097
-0.324322
0.458583
0.0937642
0.10619
0.215535
0.217228
-0.456813
0.239615
-0.363393
-0.0991698
0.260125
-0.210695
-0.294312
0.504663
0.267335
-0.159996
-0.107446
0.412083
-0.160919
-0.298702
0.27498
0.186338
-0.322135
-0.0272125
-0.36045
0.387707
-0.44562
0.255398
0.190347
-0.448267
0.397373
0.612508
-0.288203
-0.323998
-0.195502
0.0741454
0.161825
0.381546
-0.221325
-0.160167
-0.331619
-0.233663
0.565204
0.25183
-0.538139
-0.206049
0.532722
0.299247
0.205033
-0.179412
0.453483
-0.145682
-0.308077
-0.585263
0.253578
0.256379
0.158725
-0.227202
-0.32912
0.556072
-0.128868
0.372629
0.0807426
-0.204427
0.394213
-0.146199
-0.1208
-0.351151
-0.390597
-0.239304
-0.162338
0.453116
-0.132656
0.335918
0.28845
0.17804
0.613167
-0.258627
-0.354628
-0.223611
-0.323409
0.546625
-0.563936
0.259621
0.52629
-0.33127
-0.195088
-0.395606
0.232354
0.377102
-0.0959239
-0.2486
-0.571219
0.337693
0.573626
-0.234908
0.143537
0.421138
-0.164692
0.50334
-0.212714
0.0907279
0.132881
0.243122
0.165775
0.00488997
-0.513279
0.436345
-0.167945
-0.28736
-0.244036
-0.221564
0.131269
0.0903299
0.195248
-0.486273
0.278538
-0.639685
0.36111
-0.125552
0.222897
0.321966
-0.123133
-0.487104
-0.49376
0.239805
0.289706
-0.26236
0.309678
-0.472557
0.16303
0.380902
-0.157498
-0.339772
0.570832
-0.231155
-0.378605
0.109397
0.136756
-0.375934
0.239218
-0.148849
0.482497
-0.333836
0.390722
-0.16733
-0.223454
-0.55809
0.218185
-0.356062
-0.241108
0.597083
-0.63866
0.274015
0.364605
0.0884099
0.635269
-0.35817
-0.27711
-0.641127
0.281062
0.360041
-0.130415
-0.091114
0.528549
0.246451
0.167337
-0.413932
-0.208616
0.282993
0.352264
-0.473601
0.291523
0.18206
0.329586
0.242754
-0.572319
0.205907
-0.251622
-0.226098
-0.297162
0.524221
0.211734
-0.18422
-0.167623
0.352043
-0.358158
0.411627
-0.165298
-0.246353
-0.555567
-0.305477
0.478266
-0.172991
-0.243045
0.378173
-0.134746
-0.320828
-0.371535
-0.49414
0.297139
0.196883
-0.170624
0.464952
-0.295013
-0.243763
-0.37554
0.0296146
0.55789
-0.587555
0.305395
-0.116957
0.315663
-0.427376
-0.360163
-0.214328
0.521612
-0.358661
-0.190922
0.297107
-0.549172
0.322273
0.226218
-0.216756
0.295941
0.261766
-0.558991
-0.23337
0.595542
-0.36221
-0.205806
0.522394
-0.316631
-0.331805
-0.226719
0.55826
0.151126
0.0897725
-0.240823
-0.51374
0.19573
-0.578445
0.246325
-0.568166
0.264253
0.303881
-0.137855
-0.310121
0.501948
-0.0461162
-0.174387
-0.263863
0.436203
0.326382
-0.550738
0.355777
-0.533497
0.344931
-0.103851
0.307647
-0.522906
0.478808
-0.390548
0.363386
0.0290972
0.537195
-0.56639
0.333999
0.225858
-0.493099
0.377836
-0.114848
-0.262748
0.551605
-0.317007
0.386365
-0.229614
-0.156992
-0.438039
-0.172045
0.29661
-0.5013
0.204353
-0.431301
0.382029
0.126018
0.141196
0.337811
0.200387
-0.538486
-0.309845
-0.258354
0.187007
-0.145768
0.514273
-0.206936
0.170611
-0.12851
-0.0420913
0.160897
-0.0491884
-0.111691
2.68346e-05
-0.516137
0.51387
0.264239
-0.633914
0.267557
0.366298
-0.0889059
0.294954
0.31087
-0.112757
-0.315575
-0.20365
0.517666
-0.547109
0.270525
-0.627139
0.253721
0.373362
0.238628
-0.0881402
-0.150388
0.319571
-0.114403
-0.634436
0.271767
0.36262
0.470698
-0.154877
0.26431
-0.405211
0.14095
-0.536136
0.359323
-0.0780607
0.270053
0.121925
0.169649
-0.291347
0.186959
-0.0812982
-0.10564
0.21923
-0.193567
-0.349656
0.577253
-0.177856
-0.158818
-0.0418452
0.200651
-0.612492
0.360068
-0.270191
0.158317
0.111981
-0.339944
-0.221828
0.561659
0.284923
-0.169758
0.481387
-0.580073
0.333702
0.246358
-0.352329
-0.189418
0.541504
0.156876
0.185484
-0.0374762
0.222073
0.238913
-0.0876586
-0.360469
-0.21631
0.524491
-0.192047
-0.0385148
0.230521
0.511506
-0.187461
0.543018
-0.228697
0.412502
-0.395027
0.243629
-0.161036
-0.236027
0.518265
-0.515105
0.508685
-0.508427
-0.15968
0.402865
0.538773
-0.1775
-0.362023
0.54775
-0.511478
-0.253321
-0.244607
0.497879
0.449648
-0.155878
-0.293957
0.219198
-0.543165
-0.120513
0.194785
-0.0742099
0.274364
-0.0880378
0.173712
0.362361
-0.143089
-0.362202
0.183853
-0.362203
-0.0978849
0.178988
-0.0810678
0.063212
0.105914
0.241585
0.57954
-0.31533
0.477961
-0.185048
-0.0835271
0.19273
-0.109166
0.525153
-0.262466
-0.26273
-0.180831
0.303303
-0.122446
0.216173
0.133466
-0.349603
0.260767
0.318733
0.411957
-0.531035
0.52036
-0.201792
-0.158771
-0.276781
0.165809
0.111071
-0.50713
0.296343
-0.207422
0.270862
-0.467809
0.196189
-0.4973
0.179969
0.344298
-0.575478
0.230958
-0.612695
0.365759
0.246901
0.431949
-0.16777
0.463953
-0.182772
-0.28152
0.238424
0.151658
-0.38968
0.155922
0.104147
0.355238
-0.515491
0.517277
0.252195
0.218398
0.153955
-0.258257
0.239508
0.152576
-0.391654
-0.231336
0.0287604
-0.16763
0.44291
0.50405
-0.207851
0.130071
0.590794
0.23458
-0.587228
0.35257
0.0133155
-0.462444
0.353758
-0.587324
0.21358
0.314771
-0.26324
0.230965
0.147591
-0.570145
0.134022
0.436129
0.445937
0.132992
-0.224444
0.550096
-0.224739
0.481634
-0.256933
-0.0280859
-0.502971
0.528051
0.211989
0.130281
-0.298996
-0.236349
0.534156
-0.189531
0.47861
0.291216
0.23687
-0.0887097
-0.118725
-0.141166
0.0745031
-0.194968
0.13688
0.320737
0.247426
0.157213
-0.404257
0.140932
0.212426
-0.501475
-0.287857
0.168666
0.119316
0.143598
0.242505
0.00206188
0.150092
-0.0376994
0.243868
-0.297836
0.181155
0.122174
0.204845
0.103973
-0.443156
-0.126982
-0.113208
0.0248525
0.327225
-0.16166
-0.165676
0.516391
0.30999
-0.128715
0.566555
-0.180196
0.156013
-0.224667
0.0686886
-0.191245
0.478165
-0.0868689
0.2197
-0.0892715
0.245379
-0.359636
0.0324085
-0.410065
0.18788
0.227206
0.145594
0.178694
-0.348929
0.209182
0.139957
-0.0709519
-0.129912
0.200899
0.0438268
-0.416329
0.372406
-0.365267
0.219445
0.14579
0.423181
-0.191335
-0.231903
-0.562594
0.340432
0.0418208
-0.254717
-0.190776
0.507638
-0.579201
0.0702854
-0.319048
0.196491
0.122688
0.21387
0.144705
-0.358568
-0.306219
0.462832
-0.156414
0.298452
0.207301
-0.506596
0.322876
-0.118367
-0.440642
0.185032
0.255418
-0.330683
-0.281994
0.415616
-0.169131
-0.157552
0.396165
-0.497017
0.478053
-0.5094
-0.144578
0.360972
0.271032
-0.158544
0.174349
0.125929
-0.456255
0.215377
0.560792
-0.300073
0.138303
0.221903
0.229918
0.350894
-0.581282
-0.558609
0.343586
0.214957
0.303974
0.25677
0.55789
-0.484634
-0.0754741
0.351361
0.297474
0.180601
-0.103174
0.320087
0.314071
-0.20169
-0.300469
-0.583935
-0.24117
-0.361033
0.120838
0.184443
-0.585912
0.24362
0.342241
0.207868
-0.340217
-0.308269
0.513381
-0.205563
0.0332902
-0.193307
-0.327083
0.541114
-0.214478
-0.357937
0.585073
-0.227414
0.290185
-0.509104
0.218175
0.219277
-0.142897
0.593833
-0.341274
-0.252599
0.521977
-0.52482
-0.000583505
0.352975
0.116176
0.198193
-0.314144
0.504648
-0.284116
-0.189501
-0.197374
-0.400741
0.350729
-0.319581
0.527439
-0.207492
0.255894
0.284887
-0.198533
-0.0864121
0.113948
0.170887
0.208544
-0.0851613
0.190829
-0.105617
-0.586975
0.353236
-0.235387
0.588989
0.370962
0.130398
0.200915
-0.331035
0.288295
-0.120694
-0.501673
0.298451
-0.254516
-0.331446
0.672457
-0.376018
-0.296637
-0.137188
-0.159613
0.407247
-0.175526
0.298603
-0.123092
0.568179
-0.224336
0.293343
-0.485281
0.354024
-0.137399
-0.216902
0.250347
0.160959
-0.4112
0.467037
-0.196753
0.154449
0.239795
-0.519676
0.370191
-0.585488
0.228248
0.582996
-0.513332
-0.0724952
-0.291652
0.119571
0.172349
-0.59175
0.337196
0.121735
0.172501
-0.293923
-0.15101
0.292307
-0.141285
-0.488812
0.336178
-0.488897
0.293868
0.251993
0.210548
0.15867
0.258752
-0.417658
0.186767
0.351444
0.315141
-0.189889
-0.0733611
0.383859
-0.0382149
-0.192272
0.485803
-0.518731
-0.242996
-0.212079
0.350421
-0.138317
-0.33526
0.196175
0.139183
0.143637
-0.189431
-0.30233
0.492053
0.229873
0.151263
-0.370372
-0.211599
-0.053196
0.264764
0.416028
-0.212205
-0.204234
0.163164
0.42371
-0.207082
-0.21706
0.252346
0.155997
-0.349264
-0.254613
0.183547
0.104662
0.194646
0.23313
-0.574745
0.341555
0.192781
0.239849
-0.384732
0.250348