/*--------------------------------*- C++ -*----------------------------------*\
| =========                 |                                                 |
| \\      /  F ield         | OpenFOAM: The Open Source CFD Toolbox           |
|  \\    /   O peration     | Version:  v2012                                 |
|   \\  /    A nd           | Website:  www.openfoam.com                      |
|    \\/     M anipulation  |                                                 |
\*---------------------------------------------------------------------------*/
FoamFile
{
    version     2.0;
    format      ascii;
    class       volVectorField;
    location    "450";
    object      U;
}
// * * * * * * * * * * * * * * * * * * * * * * * * * * * * * * * * * * * * * //

dimensions      [0 1 -1 0 0 0 0];


internalField   nonuniform List<vector> 
9793
(
(1.00405 -0.034195 0)
(0.89728 -0.0192006 2.23801e-22)
(0.99598 -0.0326887 -5.92213e-21)
(1.0136 0.00033736 0)
(1.24825 -0.309658 -1.20321e-20)
(1.00887 -0.00584854 3.41334e-21)
(1.01371 -0.000175088 -3.85885e-21)
(1.01768 0.000608986 -2.21231e-21)
(1.0192 -0.00079424 -3.07264e-21)
(1.2287 -0.293636 1.3717e-20)
(1.00749 -0.00127169 0)
(0.906069 -0.0720538 -3.30214e-21)
(1.01364 0.000276888 0)
(1.01043 -0.0085633 0)
(1.0051 -3.75012e-05 0)
(1.00879 -0.00671228 -3.31264e-23)
(1.01151 0.00290671 -1.63362e-21)
(1.01092 0.00342318 -5.11248e-22)
(0.889439 0.260018 -8.95353e-22)
(1.009 -0.00806469 -5.19823e-22)
(1.09786 -0.0859061 -5.20768e-22)
(1.01862 -0.00467054 6.77208e-22)
(1.04165 0.0649457 -1.08925e-21)
(1.02431 -0.000821631 0)
(1.01502 0.0150915 -9.67641e-22)
(1.0135 0.0001688 2.49316e-21)
(1.00496 -0.00546686 -1.18506e-21)
(1.01281 -8.43232e-06 1.14475e-21)
(1.02429 -0.00606184 0)
(1.01889 -0.000857629 2.69065e-21)
(0.98895 -0.0189844 -1.05701e-20)
(1.04759 0.0569581 -1.23356e-21)
(0.880376 -0.0844288 -8.55078e-22)
(1.0101 -9.23363e-05 -3.01972e-23)
(1.02691 -0.00724719 2.71225e-21)
(1.18731 -0.137779 0)
(1.01177 8.47204e-05 3.06952e-21)
(1.01852 -0.00460376 -3.27434e-21)
(1.01992 0.00108929 2.43345e-21)
(1.01401 -0.000120916 0)
(0.988327 -0.0153917 1.10585e-20)
(1.00815 -9.29871e-05 0)
(1.01231 1.41261e-05 3.06206e-21)
(1.01345 -0.00018443 1.77527e-21)
(1.01157 -3.13256e-05 -2.21297e-21)
(1.01322 0.000198042 -3.39164e-21)
(1.02581 -0.00547819 3.14252e-21)
(1.08241 -0.0559205 -6.07478e-22)
(0.973608 0.0314712 0)
(1.01358 0.000398871 -3.4903e-21)
(1.02823 -0.00690558 6.07443e-21)
(1.01248 0.00473022 -4.35783e-21)
(1.01165 -0.0076199 -4.34858e-21)
(1.01803 -0.00233251 -4.21333e-21)
(1.08877 0.0226532 1.70703e-21)
(0.963856 -0.272495 0)
(1.01528 0.00058678 0)
(0.964944 -0.000697852 4.35771e-21)
(0.971632 0.225542 0)
(1.01955 0.00090641 -1.41882e-21)
(1.01255 -0.000152757 5.83602e-22)
(1.0143 -0.0073461 0)
(0.954637 0.100304 7.58421e-22)
(1.01201 -8.51305e-05 2.48663e-21)
(1.31803 -0.0392439 5.42044e-20)
(0.955995 -0.0584201 -1.16741e-22)
(0.971998 0.0820452 -1.06108e-21)
(0.980564 0.0514126 -1.60003e-21)
(0.916391 -0.0574689 0)
(1.01039 -0.00153681 0)
(1.09027 0.00969772 -8.26205e-22)
(1.01828 2.73334e-05 0)
(1.01281 0.000742902 0)
(0.997601 -0.0450352 1.27891e-22)
(1.03055 -0.00907773 -2.99571e-21)
(0.997229 0.179291 0)
(1.01549 0.00030427 1.46113e-21)
(1.0284 -0.00597919 -1.14066e-22)
(1.01335 -0.00787888 -9.54566e-22)
(1.0123 -0.00151156 0)
(0.963957 -0.0548944 0)
(1.01634 -0.00969543 -1.85008e-21)
(0.856195 -0.0217558 -4.46614e-24)
(1.05841 -0.0101878 -8.78303e-22)
(0.992901 -0.0138544 -1.14952e-21)
(1.07949 -0.0362652 3.75185e-22)
(1.01167 -0.00147071 1.22689e-21)
(1.01568 4.05398e-05 0)
(1.01364 -0.00600827 0)
(1.01938 -0.0116542 1.85276e-21)
(0.896782 -0.0258614 3.92635e-22)
(1.218 0.0931529 -1.63495e-20)
(1.01973 0.000489812 -2.17827e-22)
(1.06401 0.0584413 1.76494e-21)
(1.01427 -0.00662784 5.58539e-22)
(1.05904 -0.00423445 -1.32088e-21)
(1.00275 -0.24064 0)
(0.867359 -0.0222843 4.78364e-23)
(1.01924 0.000397983 -9.66187e-22)
(1.01824 -0.00202256 1.50547e-23)
(1.01805 -0.00225312 1.21796e-21)
(1.0253 -0.00931109 -1.50381e-21)
(1.01608 0.00134666 6.11466e-22)
(1.01596 0.0011357 6.38648e-22)
(1.0289 -0.00527537 9.96162e-23)
(0.992899 -0.0109535 -2.10852e-21)
(1.01386 -0.00547899 0)
(1.01276 -0.000166822 -1.44143e-21)
(1.01189 -0.00671792 0)
(1.05747 -0.100421 1.88765e-21)
(1.01712 -4.34605e-05 0)
(1.01379 -0.124786 -6.1585e-21)
(1.01432 0.000637535 0)
(1.04893 -0.394262 3.54402e-21)
(1.01594 0.00545181 4.58851e-21)
(1.01553 0.000459874 -1.43604e-21)
(0.884061 -0.0419008 6.13803e-22)
(1.02955 -0.011191 0)
(1.01552 -0.010623 4.2222e-24)
(1.06707 0.0486036 -2.65064e-21)
(1.06928 -0.103593 -2.87481e-22)
(1.00845 5.46609e-05 1.45809e-23)
(1.01462 -0.000576632 3.67491e-21)
(1.00796 -0.0063854 4.0769e-21)
(1.01939 -0.00366629 2.75244e-21)
(1.07871 -0.100439 5.42542e-21)
(1.01625 -0.0217416 0)
(1.08432 -0.0279436 -1.47631e-21)
(1.01241 -0.00842251 -9.5547e-22)
(1.01318 -6.19158e-05 -1.06152e-21)
(1.01614 6.27245e-05 -4.76782e-23)
(1.01575 0.000167406 -1.61784e-21)
(1.01318 -8.279e-05 1.24901e-21)
(1.031 -0.00469774 0)
(1.01859 -0.000525215 -3.81459e-22)
(1.01583 -0.000201819 -3.31363e-21)
(1.01127 -6.48543e-05 -2.53218e-21)
(1.01371 -0.000172947 9.03037e-22)
(1.01413 0.000569239 0)
(1.01574 0.00138325 -8.76324e-22)
(1.01444 -0.000527368 3.44254e-23)
(1.01773 0.014477 3.19558e-21)
(1.01448 0.000113592 -5.00438e-21)
(1.01827 -0.00381111 -4.31079e-22)
(1.01087 -0.00997974 -5.6727e-23)
(1.01058 -0.0130508 -9.473e-22)
(0.996746 -0.0206142 -3.74093e-23)
(1.01856 -0.00355143 3.76637e-22)
(1.01827 0.000894257 4.54025e-22)
(1.18626 0.139867 9.6918e-21)
(0.874278 -0.362813 0)
(1.0156 6.53141e-05 1.30947e-22)
(0.894904 -0.368187 7.07993e-22)
(1.17649 -0.294991 2.63971e-21)
(1.01792 0.000769686 4.80974e-22)
(1.01276 0.000186093 -5.91184e-23)
(1.01549 0.000713434 7.24827e-22)
(1.01855 0.0134253 -1.90755e-21)
(1.01822 -0.00298649 7.21135e-22)
(1.0146 0.000109499 0)
(1.01803 0.000572754 0)
(1.01286 0.000510438 -1.23863e-21)
(1.0063 -0.00105289 -1.22902e-21)
(0.981826 0.329866 0)
(0.989028 -0.0312875 6.24262e-23)
(1.13155 -0.0892172 6.66109e-22)
(1.09084 -0.0473856 4.86671e-22)
(1.01978 -0.00680551 0)
(1.0053 -0.00388536 0)
(1.02345 -0.00616268 2.54823e-21)
(1.01179 0.004135 -1.97804e-21)
(0.764608 -0.219772 0)
(0.981434 -0.0277346 0)
(0.771738 -0.244293 0)
(1.01952 -0.00337316 0)
(0.910888 0.259343 0)
(1.01591 -9.0575e-05 1.61058e-21)
(1.02415 -9.56729e-05 1.00632e-22)
(1.01314 -0.000169813 1.14506e-21)
(1.02121 -0.00847489 0)
(0.734137 0.0403297 -1.21875e-20)
(1.02333 -0.00449386 -5.21406e-23)
(1.01846 -0.00271001 -7.7121e-22)
(1.01603 0.0140641 -1.54607e-21)
(1.02785 0.0437682 0)
(1.01287 0.000865516 0)
(0.957983 0.00546304 0)
(1.01308 -6.70945e-05 -3.57794e-21)
(1.01439 -0.000663753 -1.99742e-21)
(1.00712 -0.00227286 -1.20197e-21)
(1.01976 -0.00335909 0)
(1.01279 0.000120922 5.34582e-23)
(0.979018 0.0314611 3.36541e-21)
(1.03628 -0.122474 -2.32403e-21)
(0.970057 0.0628894 1.33036e-21)
(1.02146 -0.00853403 -2.52095e-21)
(0.967743 -0.0607358 -3.61975e-23)
(1.01986 -0.00663639 0)
(1.13245 -0.328258 0)
(1.01576 0.00127471 9.24411e-22)
(1.01833 -0.000589932 0)
(1.07719 0.295554 0)
(0.976049 -0.32 0)
(1.01321 -9.11943e-05 0)
(1.01605 -0.000339548 2.11383e-21)
(1.02795 -0.00437732 3.22514e-24)
(1.14611 -0.127607 -6.68612e-22)
(1.01429 -0.0061647 0)
(0.996471 -0.00990395 -5.22015e-21)
(1.02051 -0.00496457 -1.60396e-21)
(1.02135 -0.00784331 -5.24698e-22)
(0.98062 0.0285744 -3.17985e-21)
(0.968454 0.0353152 0)
(1.01828 -0.00249653 2.38113e-21)
(0.95814 -0.0716249 2.37308e-21)
(1.01596 0.000749298 -1.37231e-21)
(1.02616 -0.00488142 1.7474e-21)
(1.04106 0.000412644 0)
(1.02819 -0.00378789 -2.95657e-23)
(0.810201 0.120835 -1.16594e-21)
(1.0302 -0.0241867 -7.72222e-22)
(1.01497 -0.000324888 -1.69031e-21)
(1.01962 -0.00365672 1.12716e-21)
(1.01271 0.000123332 -2.16773e-23)
(1.07209 -0.0134588 -9.18386e-23)
(1.01085 0.307433 0)
(1.00987 -0.0063444 3.40876e-21)
(1.01736 0.00087656 5.13472e-22)
(1.03331 -0.0209346 8.62852e-22)
(1.01492 -0.00358671 3.19951e-21)
(1.02491 -0.000927737 -9.97387e-23)
(1.02434 -0.000532697 0)
(1.02365 -0.00475161 -7.58524e-23)
(1.0158 0.00108371 0)
(1.01032 -0.0164146 0)
(0.840519 0.11071 4.7768e-22)
(1.01395 0.00037638 1.54346e-21)
(1.01275 0.00380046 1.24075e-22)
(0.987372 -0.204922 2.94593e-21)
(1.02153 -0.00925589 -1.81876e-21)
(0.996565 -0.00759633 8.50918e-21)
(1.013 -0.00901507 1.80448e-21)
(1.01372 0.00436984 -3.8158e-21)
(0.910999 -0.0740209 9.79417e-23)
(1.01316 0.00337986 -5.99576e-21)
(1.01856 0.000602812 4.7904e-22)
(1.01747 0.000449186 3.10545e-21)
(1.02027 0.0134344 0)
(1.01896 0.000728507 -4.54973e-22)
(1.01137 -0.000130897 -5.91793e-22)
(1.01668 -0.00307301 3.97213e-23)
(1.02131 -0.00691013 -4.48907e-21)
(1.01815 0.0029017 -1.18044e-20)
(1.01312 -0.0196263 2.10781e-21)
(1.01424 0.00365745 -3.4767e-21)
(1.01889 -0.00454885 0)
(1.01186 0.00325416 1.02676e-21)
(1.0212 -0.0070267 2.48183e-21)
(1.00407 -0.00149557 -6.76931e-21)
(1.01519 -0.0053948 0)
(0.956741 -0.177242 -4.46479e-22)
(1.01288 0.00341047 4.09871e-21)
(1.02116 0.00275884 -4.26394e-21)
(1.01064 -3.75168e-05 1.61574e-21)
(1.01988 -0.00710725 0)
(1.02643 -0.00223568 0)
(1.02651 -0.00185792 0)
(1.02133 -0.00794043 5.53636e-22)
(1.13259 0.323893 -4.55288e-21)
(1.01331 -0.00474354 -8.15291e-21)
(1.01584 -0.00540571 0)
(1.01064 0.000378415 0)
(1.01866 -0.00435764 0)
(1.01523 -0.000264056 4.48174e-22)
(0.925811 -0.0312217 4.76646e-22)
(0.93109 -0.0262175 -6.02722e-22)
(1.01323 -0.000124917 -2.63173e-21)
(1.05544 -0.142033 3.2271e-21)
(1.01257 -7.73388e-05 0)
(1.01395 -0.022067 2.46071e-22)
(1.02083 0.0122142 -1.71288e-21)
(1.02578 -0.00104835 -5.70102e-23)
(1.01119 -0.000102863 -3.01719e-21)
(1.01417 -0.00012627 0)
(1.01791 -0.0234722 0)
(1.01492 -0.000368385 -1.15716e-21)
(1.01651 -0.00303965 0)
(1.02038 -0.00695302 -3.93445e-22)
(1.01496 -9.7074e-05 0)
(1.01597 -0.000431268 -2.15357e-21)
(1.01414 0.00043299 -1.64845e-21)
(0.891831 -0.0602391 1.13689e-21)
(1.01168 -0.00515621 0)
(1.01183 -0.000127333 6.35568e-23)
(1.0155 9.29101e-05 -3.31852e-22)
(1.03034 -0.00634182 0)
(1.01906 -0.00410535 1.34204e-21)
(1.02037 -0.00702269 -2.97572e-21)
(1.01266 -7.29537e-05 1.62177e-21)
(1.02554 0.549095 -5.51417e-20)
(1.01763 0.00100873 -5.41975e-22)
(0.812405 0.10364 0)
(0.75509 -0.040877 1.76849e-21)
(1.01109 -3.46239e-06 1.82235e-21)
(1.01293 -0.000224133 -1.09049e-22)
(1.01746 -0.00476611 0)
(1.01842 -0.00413735 0)
(1.01933 -0.00581902 3.49817e-21)
(1.02261 0.0107018 0)
(0.81811 0.0898885 -1.45593e-21)
(1.01206 -0.000150909 2.70472e-21)
(1.01696 -0.00475614 7.60102e-22)
(1.01915 -0.00578341 -3.167e-21)
(1.01623 -0.00339151 0)
(1.01643 -0.00234789 -3.23545e-21)
(1.01992 -0.0104518 -2.02115e-21)
(1.06995 -0.0208279 4.86374e-22)
(1.01595 0.00620274 1.85772e-21)
(1.01873 -0.00499211 0)
(1.02076 -0.00513206 0)
(1.01599 0.00442119 0)
(0.988964 -0.0419393 -2.74137e-22)
(0.881426 -0.049562 -3.35392e-21)
(1.0029 -0.0384915 -2.91388e-22)
(1.02755 -0.00306284 -3.05151e-23)
(0.762014 0.043468 3.04465e-20)
(1.0189 -0.00428039 1.90892e-21)
(0.940613 0.261203 0)
(1.03229 -0.0139674 3.51201e-21)
(1.0084 0.000832435 0)
(1.02611 -0.00672182 6.30637e-22)
(1.03068 -0.0165848 0)
(1.02499 -0.00786203 0)
(0.999271 -0.00687236 5.15649e-22)
(1.00609 0.00570377 -3.23646e-21)
(1.01722 8.35354e-05 5.58174e-22)
(1.01236 -1.3161e-05 4.82031e-21)
(1.01799 -0.000411885 0)
(1.01256 -0.000207855 0)
(1.01248 -0.000287646 -1.9714e-21)
(0.993687 -0.0532972 0)
(1.01303 -2.79461e-05 4.83768e-21)
(1.01576 0.00404915 1.83948e-21)
(1.0039 0.470883 4.32285e-20)
(1.02268 -0.00893536 -1.92719e-21)
(1.00763 -0.00588052 3.50591e-23)
(1.02693 -0.00284401 1.205e-22)
(1.01827 -0.00434502 5.63386e-21)
(1.01751 0.00019507 0)
(0.988263 -0.0657214 8.51144e-21)
(1.01922 -0.00390105 1.80698e-22)
(1.0154 -0.00107089 -7.21401e-22)
(1.01568 -0.00283005 -3.48448e-21)
(1.02398 -0.00989257 1.56108e-21)
(0.797513 -0.132498 0)
(1.01791 -0.00214671 4.41986e-21)
(1.03034 -0.00777738 -3.0528e-21)
(1.02448 -0.000324717 1.1829e-22)
(1.02004 -0.00668393 0)
(1.11519 0.00496581 7.41671e-21)
(0.964038 0.0152911 -1.05208e-20)
(1.01986 -0.00603606 6.71008e-21)
(1.01805 -0.0042115 -3.72899e-21)
(1.03477 -0.00610002 -3.62719e-21)
(0.925305 -0.0827191 -4.47374e-21)
(1.01223 -0.000158217 0)
(0.981418 -0.159266 9.37376e-21)
(1.01909 -0.00931057 -5.03024e-22)
(1.01578 0.00105482 2.53612e-22)
(0.771729 -0.0142417 -6.23674e-23)
(0.999506 -0.00503879 0)
(0.857033 -0.0619426 5.34347e-22)
(1.01545 -0.0010443 -6.78582e-22)
(1.008 -0.0154824 0)
(1.21509 -0.0994867 0)
(1.00429 0.0127296 2.52778e-23)
(1.01298 0.000871557 -1.9958e-21)
(0.870459 -0.0760271 -1.80794e-21)
(1.02246 -0.00911485 -2.1449e-21)
(0.995841 -0.0268411 0)
(1.01883 -0.00451837 8.48175e-21)
(1.01794 -0.00185521 0)
(0.991793 -0.160114 -6.86623e-22)
(1.01264 -7.3666e-05 7.44091e-22)
(1.01875 -0.0044258 2.08263e-21)
(1.00952 0.000127852 0)
(1.01324 -0.000138222 -5.34333e-22)
(1.00623 -0.00661752 0)
(1.01811 -0.00209426 0)
(1.01863 -0.00457423 -5.16726e-21)
(0.778286 -0.142767 0)
(1.01944 -0.00289334 6.34227e-22)
(0.946386 0.30551 1.32838e-22)
(1.11581 0.055377 0)
(0.911439 -0.0655182 0)
(1.01337 -0.00497337 9.93231e-22)
(1.01112 -0.0294186 0)
(1.01402 -0.000155299 1.26292e-22)
(1.01794 -0.000283905 -5.21254e-22)
(1.0654 -0.112662 -4.30803e-21)
(1.12677 0.0388589 0)
(1.01421 -0.00915717 1.18184e-22)
(1.02186 -0.00225119 0)
(1.20905 0.10661 -1.89564e-19)
(1.0104 0.00116397 -5.8923e-22)
(1.10349 -0.403332 1.09049e-20)
(1.01242 0.00380563 -2.29699e-21)
(1.01867 -0.00460098 -5.04493e-21)
(1.01079 0.0016585 -1.1324e-21)
(1.02161 -0.008265 -4.47382e-21)
(1.01298 9.767e-05 1.39616e-21)
(1.02213 -0.00921875 1.1715e-21)
(1.08223 -0.133695 0)
(1.01504 -0.00622587 9.5081e-22)
(1.02835 0.0620278 0)
(1.03601 0.0268221 -1.47581e-21)
(1.01927 -0.00411262 4.3822e-22)
(1.03187 0.0284243 0)
(1.01951 -0.00836191 1.38526e-21)
(1.01372 -0.00503702 9.67102e-21)
(1.01245 -0.0132272 -8.79875e-22)
(1.00961 0.137699 -9.26785e-21)
(1.01261 -7.59209e-05 0)
(1.01651 -0.0024654 3.85481e-21)
(1.00944 0.00712484 2.53626e-21)
(1.01794 -0.00156972 0)
(1.00335 -0.000233547 -3.39162e-21)
(1.0191 -0.00429571 -1.80236e-21)
(1.00682 4.10446e-05 1.23621e-21)
(1.02106 -0.00830675 3.45299e-21)
(1.01468 0.000110772 -2.34168e-21)
(1.01637 -0.00248701 4.906e-21)
(1.01187 0.00372523 -1.11146e-21)
(0.990987 0.0271669 0)
(1.00989 -0.0113532 -6.22828e-23)
(0.990693 0.0216999 0)
(1.02425 -0.00556547 -5.44496e-22)
(0.986731 0.0255062 0)
(1.01046 0.000158583 -4.81397e-21)
(1.02366 -0.00731349 0)
(1.01168 -0.000123303 -1.88443e-21)
(1.0192 -0.0028724 1.42872e-21)
(1.02141 0.12835 -7.16089e-21)
(1.019 -0.00666796 0)
(1.11413 -0.0135776 -1.2945e-21)
(1.00679 -0.00348406 1.19519e-21)
(1.01156 0.00441272 -2.67014e-21)
(1.01894 -0.00445622 -1.96884e-21)
(1.19485 -0.0413942 1.04898e-19)
(0.985279 -0.0214973 0)
(1.0912 0.0510873 0)
(0.982554 0.0277729 -2.62716e-21)
(1.01046 -0.00747666 -3.59827e-21)
(1.01321 -0.000107901 -1.94157e-21)
(1.03768 -0.00839611 -7.09099e-21)
(1.02101 -0.00816504 -1.2962e-21)
(1.02123 -0.00822135 4.59952e-21)
(0.882965 -0.0165237 -2.92823e-22)
(0.95166 0.0755397 -4.54164e-21)
(1.01228 -0.000142562 0)
(1.03038 0.0217677 -4.1206e-22)
(1.00836 -0.0124493 0)
(1.01475 -0.000694809 -1.77667e-21)
(1.01803 -0.0114184 -9.82453e-22)
(1.01447 -0.000657536 0)
(1.01635 0.00140032 -5.51606e-22)
(1.01071 -5.15828e-06 1.07199e-23)
(0.940139 -0.404749 1.11968e-20)
(1.02188 -0.00885809 -2.27885e-21)
(1.03437 -0.064211 0)
(1.01653 0.00163605 -1.68551e-21)
(1.01876 -0.00336419 0)
(1.02379 -9.51348e-05 -1.03006e-22)
(1.01134 -0.000153789 9.05762e-22)
(1.01392 0.000252047 1.26031e-22)
(1.01742 -0.0100845 0)
(1.03758 -0.012102 7.08688e-21)
(1.02547 -0.0058079 5.90911e-22)
(1.02811 0.0194373 -4.58364e-22)
(1.01016 0.00370105 1.20198e-21)
(1.01255 -7.14051e-05 0)
(1.00136 0.00129501 -9.46031e-22)
(1.07853 -0.090151 0)
(1.01483 -7.76926e-05 -2.13961e-21)
(1.01311 -0.000107619 1.98008e-21)
(0.767375 -0.0755809 0)
(1.00176 -0.00451723 0)
(1.01945 -0.00390266 -3.12943e-21)
(0.949761 0.123335 5.30177e-22)
(0.986801 0.0286724 4.9273e-21)
(1.01103 0.000201229 2.10962e-22)
(1.00879 8.32483e-05 -7.94082e-22)
(1.01879 -0.00456873 -1.02724e-21)
(1.0018 -0.000175545 8.46691e-21)
(1.01646 -0.00258559 0)
(1.01116 1.16678e-05 -2.38239e-23)
(1.01175 -0.000165163 -2.98654e-21)
(1.02059 -0.00726385 2.83424e-22)
(1.01158 0.00349448 -2.39426e-21)
(1.01399 0.00378795 6.08905e-21)
(1.00295 -0.0165291 4.03754e-23)
(1.02306 0.00591079 1.05885e-20)
(1.015 0.000653019 4.80656e-22)
(1.01723 0.117918 -2.39475e-21)
(1.01564 -0.00586542 -4.89534e-21)
(1.01879 -0.000651828 -4.82629e-22)
(1.01245 -0.00533844 -3.46195e-21)
(1.01422 -0.00856428 0)
(1.00256 -0.108124 6.54455e-21)
(1.02243 0.0119333 0)
(0.849251 -0.220471 -4.64153e-22)
(1.00798 -3.11187e-05 0)
(1.01338 0.00407207 -3.13823e-23)
(1.01482 -0.000701747 -3.68902e-21)
(1.01422 -0.000591132 1.99962e-21)
(1.01929 -0.00938896 1.06535e-21)
(0.767006 0.0248574 6.21284e-23)
(1.01854 -0.0048962 0)
(1.01882 -0.000985729 -5.70778e-24)
(0.928957 0.294923 0)
(1.00199 -0.00305161 -4.74374e-22)
(1.01511 -0.000786544 4.141e-22)
(1.01325 0.00681231 0)
(1.00178 -0.0295858 -2.64574e-21)
(1.01838 0.00310577 -1.95799e-21)
(1.01508 -0.000612469 0)
(1.01264 -6.2639e-05 0)
(1.01806 0.00292718 0)
(0.931441 -0.0668353 -9.11009e-22)
(1.01066 -0.0192985 -1.66751e-21)
(1.01638 -0.00549047 -4.91088e-21)
(1.01136 -0.00585718 0)
(1.01379 0.00656804 0)
(1.01601 0.00525341 -3.83128e-21)
(1.01717 -0.00149975 -1.37922e-22)
(1.01762 0.000151266 3.35987e-22)
(1.01264 -6.30225e-05 5.14309e-21)
(1.00321 -0.0801719 0)
(0.958642 0.0248938 2.25883e-20)
(1.01039 -0.000225669 0)
(1.04044 0.00271239 1.50707e-21)
(1.08959 -0.120834 4.70099e-21)
(1.01341 -0.00146905 0)
(1.02485 -0.0404368 1.64328e-22)
(1.03141 -0.00563754 5.09144e-21)
(1.01812 0.000212425 0)
(1.00548 0.00147589 0)
(1.01431 -0.114096 6.96477e-22)
(1.01519 -0.000336808 -4.89618e-22)
(0.908424 -0.0501717 -3.08991e-21)
(1.02618 -0.000901482 0)
(1.0348 -0.339472 -4.90634e-21)
(1.02049 -0.0070398 -2.89444e-21)
(0.993578 -0.101475 0)
(1.01293 0.000758288 0)
(1.01403 0.00420793 1.97394e-21)
(1.01133 0.00192543 1.36746e-21)
(0.883943 -0.0351753 6.39836e-23)
(1.03644 -0.00520437 3.04629e-21)
(0.964302 0.138361 -8.25434e-22)
(0.945964 -0.0548962 -2.43903e-22)
(1.29311 0.156929 2.8625e-20)
(1.01876 -0.00885122 -1.31002e-21)
(0.816232 -0.200177 0)
(1.02093 -0.00842388 -4.40253e-21)
(1.0078 -6.00588e-05 -1.89756e-21)
(1.02064 -0.0118683 -2.61299e-22)
(1.03859 0.00104066 -1.5797e-21)
(0.982757 -0.18379 -2.94916e-21)
(1.01737 -0.00236005 1.45122e-21)
(0.988724 0.0170745 -1.12489e-22)
(1.01368 0.00764289 2.40363e-21)
(1.013 -0.0650444 -1.03305e-22)
(1.01214 -0.000116741 1.2818e-21)
(1.02317 -0.00250449 0)
(1.01576 0.00480461 3.19328e-21)
(0.895489 -0.024391 9.63637e-21)
(1.01168 0.00645697 -2.61554e-21)
(1.01291 0.000193231 6.64473e-25)
(1.02225 -0.00483979 -3.43916e-23)
(1.02029 -0.00544692 2.10845e-21)
(1.02162 -0.00895439 3.85216e-21)
(1.01283 0.000519175 0)
(1.01376 -0.000371741 1.97261e-21)
(1.0135 -0.00131205 0)
(1.01338 -0.00112468 0)
(0.844912 0.147101 3.59605e-21)
(1.01341 0.000458714 -2.56836e-21)
(0.923934 0.0950867 7.11137e-21)
(1.18126 -0.338656 1.62778e-20)
(1.01346 0.000413751 3.87416e-21)
(1.01248 -0.00017972 -1.64518e-21)
(1.01835 -0.0031087 4.69488e-21)
(1.02164 -0.00247056 6.22949e-22)
(1.01437 -0.00055406 -3.11991e-23)
(1.01637 -0.00318874 0)
(1.00344 0.01127 0)
(1.02071 -0.00707224 -1.51956e-21)
(1.0241 -0.00390113 0)
(1.02053 -0.005465 -9.80195e-22)
(1.01511 -0.000378602 1.62229e-21)
(1.01439 -0.00992461 0)
(1.01794 -0.00404448 0)
(1.02099 -0.00687914 0)
(1.01597 -0.00321583 0)
(1.01836 -0.00441748 6.06404e-21)
(0.746882 0.310221 1.64548e-20)
(1.01419 -0.00128348 -2.98262e-21)
(0.984047 0.150773 7.80636e-21)
(1.0232 -0.00918135 -1.1701e-21)
(1.01349 -0.00013997 0)
(1.0139 -0.000432947 3.10557e-23)
(1.01767 -0.000781733 -1.17344e-21)
(1.03095 -0.0120244 1.17483e-21)
(1.03341 -0.0127782 -8.1104e-22)
(1.01342 0.00365093 0)
(1.02151 0.00419915 -7.30764e-22)
(1.02331 -0.000272828 0)
(1.01569 0.00566303 4.87055e-22)
(1.02217 0.00396722 1.03412e-21)
(1.01276 -9.79e-06 -8.4258e-22)
(1.01867 -0.00470171 2.62171e-21)
(1.01618 0.00206283 1.86923e-21)
(1.02293 -0.00280083 1.3562e-22)
(1.01009 -0.000133666 1.18565e-21)
(1.01811 -0.00176596 0)
(1.01835 -0.00473964 -2.40123e-21)
(1.0243 -0.00419946 0)
(1.01987 -0.0116762 0)
(1.01118 2.2277e-05 0)
(1.01388 0.00282432 0)
(1.01396 -0.000448911 1.99532e-21)
(1.01527 -0.000721792 0)
(1.01752 0.0142304 -1.33673e-21)
(1.01399 0.000627452 0)
(1.01642 0.0154048 1.69362e-21)
(1.0159 0.00371018 -1.77162e-21)
(1.0143 -0.0012986 -1.84982e-21)
(1.01222 0.00719977 0)
(1.02186 -0.00757571 -4.87774e-21)
(1.01389 -0.000141579 -1.4031e-22)
(1.01152 -6.66482e-05 -7.93549e-22)
(1.01483 -0.000563369 0)
(0.982631 0.0181206 1.62645e-21)
(1.01311 0.000533778 3.8372e-21)
(1.01073 0.0024315 0)
(1.00548 -0.00562012 0)
(1.02607 -0.000493251 2.1963e-22)
(1.00856 0.00251332 -3.66e-21)
(0.883199 -0.0180582 1.19203e-20)
(1.01373 0.0145271 1.26458e-21)
(1.01172 5.488e-05 2.60623e-21)
(1.01459 0.000286813 -1.28627e-22)
(0.963661 -0.00993414 -3.38554e-21)
(1.01773 -0.000589316 -2.49698e-21)
(1.00625 -0.0108221 0)
(1.3226 0.0677606 0)
(0.739647 0.0855167 5.21776e-21)
(0.990733 -0.0400681 1.1462e-21)
(1.00909 0.00229684 0)
(1.01502 -0.000715394 -3.94947e-21)
(0.982185 0.0601816 -6.02688e-22)
(1.01461 0.00689695 0)
(1.01133 0.0035268 0)
(1.00599 -0.0274942 -1.36667e-22)
(0.992208 0.0227329 0)
(1.14152 -0.103816 7.1414e-22)
(1.01412 -0.000510111 -2.02666e-21)
(0.997113 -0.0289086 2.74663e-21)
(1.01503 -0.00067328 1.17616e-21)
(1.01467 -0.000531226 0)
(0.989042 -0.432528 -2.62353e-20)
(1.01275 -1.92868e-05 -7.83558e-22)
(1.1653 -0.117778 -3.74685e-21)
(1.03096 -0.00113337 1.66485e-22)
(1.02627 0.00457435 -1.13464e-21)
(1.01406 0.00273069 -4.75087e-22)
(1.01974 -0.00558441 3.04831e-21)
(1.0177 -0.00388964 5.06626e-22)
(0.895124 -0.0438679 1.69345e-20)
(0.71094 0.11371 0)
(1.01222 0.0042626 2.14406e-21)
(1.02954 -0.00078575 -1.54205e-22)
(1.02461 -0.012378 0)
(1.01566 0.00340929 -4.57608e-22)
(1.00365 -0.002701 7.80859e-21)
(1.00737 -0.00784954 4.2968e-21)
(0.827525 0.108838 -2.03787e-20)
(1.013 0.00106463 2.02396e-21)
(1.02009 -0.042258 0)
(1.014 0.00647689 0)
(0.827709 0.0863509 -1.0479e-21)
(1.01689 -0.0392808 0)
(0.832768 -0.0586637 0)
(0.984679 -0.0715291 -1.70287e-22)
(1.01265 -0.00343274 8.60452e-22)
(1.00795 -0.0182707 0)
(0.789276 0.121162 -2.70185e-21)
(1.01314 0.000606607 -1.88395e-21)
(1.0128 1.24808e-05 -4.0525e-21)
(1.01073 -8.51927e-05 0)
(1.0113 -0.0055066 4.92321e-22)
(1.01208 0.00568644 -1.17343e-22)
(0.931031 -0.346571 -1.20306e-20)
(1.01211 0.00437217 0)
(0.908154 0.0714137 0)
(1.02568 -0.00624944 -6.66058e-22)
(1.10116 -0.0124007 0)
(1.01231 0.000614267 4.31787e-21)
(1.01746 -0.00159004 0)
(1.07203 0.0449101 0)
(0.790935 -0.336247 0)
(1.01912 -0.00343614 0)
(0.985386 -0.152472 2.23164e-21)
(1.00934 -0.0168119 0)
(0.981844 -0.022261 6.45113e-21)
(1.0117 0.00498938 1.48513e-22)
(1.02562 -0.000344006 -2.24737e-22)
(0.890248 -0.187802 6.36449e-21)
(1.01231 -0.000881765 3.17651e-22)
(0.687352 0.0459607 0)
(1.01484 0.000175985 -1.84079e-21)
(0.973132 -0.0803076 0)
(1.01495 0.000457969 0)
(1.08711 -0.069424 2.68883e-21)
(0.890749 -0.174358 0)
(1.01232 -0.00289714 0)
(0.912312 0.292004 -4.78188e-22)
(1.01248 -8.95399e-05 -9.03203e-22)
(1.02257 -0.00506725 -9.50815e-22)
(1.01939 -0.00777408 -7.37117e-21)
(0.985042 -0.521212 6.30559e-20)
(1.02184 -0.475685 8.98264e-20)
(1.02183 0.0160004 0)
(1.0149 0.000621727 3.6812e-22)
(1.01011 0.00279999 0)
(0.74126 0.0422843 0)
(1.064 0.302617 1.68099e-19)
(1.0107 -0.000134501 3.35842e-21)
(1.0095 -0.0113835 0)
(1.02935 -0.0431023 -1.0149e-22)
(1.01078 0.00402845 -1.23115e-21)
(1.01358 0.00131576 5.44398e-21)
(1.03263 -0.0043464 0)
(1.18398 -0.0979352 0)
(1.00081 0.0177206 2.82439e-21)
(1.01213 -0.00135327 4.05556e-21)
(1.01303 -0.000248191 0)
(1.01888 0.000544043 0)
(0.990195 -0.0400417 -9.06931e-22)
(1.11094 -0.100981 -2.35973e-22)
(0.984279 -0.0368035 2.29804e-21)
(1.01523 -0.000744041 -4.2849e-22)
(1.01436 0.000380389 0)
(0.975983 0.0147885 1.26048e-21)
(1.0128 5.25246e-06 8.64269e-22)
(1.00737 -0.116459 -2.66815e-21)
(1.0234 -0.00550018 4.15448e-21)
(0.882708 0.0661047 0)
(1.04589 -0.110669 -1.0406e-21)
(0.981656 -0.0775698 0)
(1.01749 0.00208795 -1.94468e-22)
(1.01761 -0.00149984 0)
(1.02213 -0.00677426 2.65819e-23)
(1.02194 -0.00429825 1.23715e-22)
(1.0209 -0.00699689 0)
(1.01268 -6.21103e-05 3.70084e-21)
(0.996261 -0.0243711 4.31288e-21)
(0.96603 0.0718604 1.4483e-22)
(1.01541 0.000799279 3.39301e-22)
(0.790343 -0.323119 1.28849e-22)
(1.01869 0.000357528 -9.26129e-22)
(1.01383 -0.218731 0)
(1.0199 -0.00163607 9.79794e-22)
(1.01621 -0.11651 -9.18695e-22)
(1.01967 -0.00510437 0)
(1.0063 -0.00428568 1.47957e-21)
(1.01283 0.00145918 0)
(1.03446 0.0279345 1.25321e-21)
(1.0037 -0.0331974 -3.12072e-22)
(0.827609 0.141819 0)
(0.779979 0.111662 5.43782e-21)
(1.01391 -0.00190121 -3.28561e-22)
(1.02119 -0.0088907 -4.88423e-21)
(1.0154 0.00527426 0)
(1.01835 -0.00448294 -2.38274e-21)
(1.01971 -0.00564127 -3.13981e-21)
(0.779537 0.0577403 -3.11723e-20)
(1.00803 -5.14389e-05 -3.18912e-21)
(0.982493 -0.0161373 -1.0936e-21)
(1.01712 0.00195036 0)
(1.02469 -0.0131809 0)
(1.01223 0.00337021 0)
(1.01614 0.00177337 -1.10713e-21)
(1.01109 -0.000137042 -6.63878e-22)
(1.01425 0.000381589 0)
(1.2579 0.099171 3.21119e-20)
(1.01285 3.05965e-05 0)
(1.01903 -0.00487777 -2.26323e-21)
(1.01202 -2.2534e-05 9.16146e-22)
(1.01274 0.000287584 3.76011e-22)
(1.01302 0.00703858 0)
(1.02272 -0.0173645 -5.92324e-21)
(1.01113 -0.000215724 -1.8462e-21)
(1.02378 -0.0030412 2.83263e-24)
(1.01762 0.00239333 7.88803e-22)
(1.01351 0.0013681 -1.82769e-21)
(0.907846 -0.0864024 0)
(1.01303 0.000387409 -3.14934e-21)
(1.05727 -0.0910532 -4.94027e-21)
(1.01546 0.000983196 -6.64755e-24)
(1.01246 -0.0400355 8.15891e-23)
(1.01319 -0.000261783 0)
(1.18099 -0.0578721 0)
(1.01196 0.00023919 -1.55649e-21)
(0.918124 -0.0885372 -1.0944e-21)
(1.01564 -0.00263788 -1.53512e-22)
(1.01235 -0.00122973 3.06906e-21)
(1.01447 0.000450396 -2.76265e-21)
(0.901737 -0.0434384 -6.14799e-22)
(0.908993 -0.0849327 -6.05683e-22)
(1.00616 -0.258034 5.90868e-21)
(1.04137 0.13391 1.39903e-20)
(0.968039 0.0097894 6.81991e-22)
(1.01207 -0.000557364 -3.62277e-22)
(1.02189 -0.00645961 1.17112e-21)
(0.893852 -0.0389017 -2.36639e-24)
(1.01239 0.0101464 2.57125e-21)
(0.947895 -0.186472 -3.35118e-21)
(0.993585 -0.183427 1.2995e-21)
(1.01985 -0.0184797 0)
(1.06118 0.0102898 4.31232e-21)
(1.01868 -0.00463451 0)
(0.888272 -0.083593 8.98717e-23)
(0.999365 0.00332199 -9.76748e-22)
(0.961646 -0.00375977 0)
(0.882249 -0.0295353 -3.15159e-22)
(1.01901 -0.0047439 0)
(1.01747 -0.00254131 1.52111e-21)
(0.884428 -0.0843262 -4.43664e-22)
(0.965225 0.624741 -5.19608e-21)
(1.00915 -7.82217e-05 -2.43054e-21)
(1.01865 -0.0045599 -8.1721e-23)
(1.0127 -4.89075e-05 0)
(1.03236 0.012169 1.85102e-21)
(1.01977 -0.0180835 6.15674e-23)
(1.01424 0.000511875 -9.49536e-22)
(1.01913 0.0144159 0)
(1.02227 -0.00452545 0)
(1.00562 -0.0448329 0)
(1.01895 -0.00784569 5.16914e-21)
(1.01346 -0.00750079 4.30806e-21)
(0.795614 0.0790921 2.64587e-23)
(1.01438 0.000464613 0)
(1.01475 0.0148177 1.11243e-21)
(1.01754 -0.0720194 3.07513e-22)
(1.23478 0.131979 3.40075e-21)
(1.02051 -0.0210694 -5.56541e-22)
(1.01149 -0.000102717 -2.53611e-21)
(0.992377 -0.0348996 7.64089e-22)
(1.01472 6.63219e-06 0)
(1.01343 0.0108844 -1.27848e-21)
(0.854926 -0.0391506 0)
(1.01355 0.0086011 -1.28735e-21)
(1.01863 -0.00452586 -1.04618e-21)
(0.873959 -0.07363 1.69155e-22)
(0.885803 -0.0689132 0)
(1.0129 -0.00494333 -8.57802e-22)
(0.935198 -0.305076 -7.62462e-21)
(1.10286 0.0361479 0)
(1.01168 -0.0906092 4.22519e-22)
(0.994534 0.0406332 4.24717e-22)
(0.782558 0.0823992 1.28043e-20)
(1.0109 -8.5198e-05 0)
(0.978607 0.0432653 1.57397e-21)
(1.01592 -0.00301211 -4.4201e-22)
(1.01701 0.00170313 -1.44076e-21)
(1.0148 -0.00122271 -1.47891e-21)
(1.01089 -0.000225978 2.97967e-22)
(1.01514 0.00557877 6.55877e-22)
(0.912618 0.27489 1.33399e-20)
(1.01048 -0.00206588 4.14967e-22)
(0.804866 -0.0548859 0)
(1.02781 0.0268449 0)
(1.01248 -0.000641001 4.48832e-21)
(1.01643 -0.0033623 0)
(1.01916 -0.0196298 -5.24524e-22)
(1.00808 -0.00569899 9.08719e-22)
(1.02757 -0.00488531 -2.36883e-21)
(1.02283 -0.00483979 -1.1681e-20)
(1.02434 0.0276914 1.60024e-21)
(1.01462 0.0130695 -1.30692e-21)
(1.04157 0.00212983 0)
(1.01487 0.00991385 -1.0206e-21)
(1.02109 -0.00795094 -4.92611e-22)
(1.01131 -0.00224346 -1.54316e-21)
(1.01062 -0.00160697 0)
(0.95834 -0.0873098 -7.72243e-23)
(1.20536 -0.325247 -4.12387e-21)
(1.05397 0.034171 -1.36267e-21)
(1.02369 -0.000245751 3.89028e-24)
(1.02316 -7.03096e-05 0)
(1.00143 -0.000892881 1.14552e-21)
(1.01163 -0.00752247 9.48746e-22)
(0.839698 0.0609948 -3.85499e-21)
(1.03824 0.0066792 -9.3961e-21)
(0.984461 0.0453877 -2.83119e-22)
(1.02169 -0.00799685 5.1942e-21)
(0.961701 -0.186429 -1.25231e-20)
(1.00911 0.00485371 2.44174e-21)
(1.02369 -0.00655024 3.28024e-21)
(1.00978 -0.0128962 0)
(1.02172 -0.00686014 -1.9228e-21)
(1.06581 0.000928215 -7.67004e-21)
(1.0128 0.00122994 0)
(1.01419 0.00331038 4.25602e-21)
(1.14526 -0.0623477 -8.61851e-22)
(1.02187 -0.00726502 6.66578e-21)
(0.756263 0.102184 2.51485e-20)
(1.01309 0.00142823 0)
(0.767949 0.101755 -2.33469e-21)
(0.888734 -0.12171 0)
(1.00869 -2.14621e-05 2.78132e-21)
(1.01396 -0.0158103 0)
(1.02543 -0.00740293 -3.18455e-22)
(0.832187 -0.0181973 0)
(1.01435 -4.04578e-05 -5.74468e-22)
(1.02304 -0.00874224 6.01391e-22)
(0.983043 -0.0815512 0)
(1.02696 -0.0162804 1.09687e-21)
(1.013 0.0013862 0)
(0.996776 -0.0361133 2.50321e-22)
(1.01546 -0.0028662 0)
(1.01515 -0.000474608 -1.79153e-21)
(1.01401 0.00248038 3.72243e-21)
(1.01557 0.13634 9.18076e-21)
(1.01526 -0.00317285 -3.79711e-21)
(1.02659 -0.0114335 -6.0092e-23)
(1.01705 -0.117353 1.42589e-22)
(1.01528 -0.0146258 -1.61943e-21)
(1.02005 -0.00480661 0)
(1.02065 -0.00914392 9.56501e-21)
(1.06363 0.00746189 1.83423e-21)
(0.94855 -0.0394204 2.0509e-21)