/*--------------------------------*- C++ -*----------------------------------*\
| =========                 |                                                 |
| \\      /  F ield         | OpenFOAM: The Open Source CFD Toolbox           |
|  \\    /   O peration     | Version:  v2012                                 |
|   \\  /    A nd           | Website:  www.openfoam.com                      |
|    \\/     M anipulation  |                                                 |
\*---------------------------------------------------------------------------*/
FoamFile
{
    version     2.0;
    format      ascii;
    class       volScalarField;
    location    "50";
    object      ddt0(k);
}
// * * * * * * * * * * * * * * * * * * * * * * * * * * * * * * * * * * * * * //

dimensions      [0 2 -3 0 0 0 0];


internalField   nonuniform List<scalar> 
10042
(
2.7037e-06
-0.00183383
4.14677e-06
5.48304e-08
-1.53912e-07
0.00858638
-0.00829584
0.000259817
-6.1257e-07
5.22848e-06
4.39011e-05
-0.00518307
-3.04147e-06
-1.33723e-06
-1.59349e-07
-1.0097e-06
-0.00210214
4.97053e-05
-1.3135e-06
1.19534e-06
-2.91904e-06
2.56059e-06
-5.82096e-08
-0.00347535
-3.60255e-08
1.28783e-07
4.34828e-06
-1.17164e-06
0.0076553
0.000171842
3.86692e-08
6.69179e-08
-6.96633e-07
-7.57839e-07
0.000305369
5.87457e-05
-1.749e-07
-3.30729e-07
2.00861e-09
-4.34723e-07
-2.22054e-05
-6.47186e-07
-0.0278145
0.000198854
1.86664e-08
5.40922e-08
5.33133e-07
-6.56359e-08
-2.1678e-05
-0.0121707
-0.0232112
-9.40927e-09
0.00411738
-1.15149e-06
0.0146578
0.0515086
-2.76807e-06
8.38737e-06
-1.86885e-07
-1.08421e-06
-2.07064e-05
0.0473543
-0.0156871
0.000432506
1.0687e-06
1.57459e-09
1.10486e-06
6.19297e-06
4.75233e-07
5.52785e-06
-0.0118557
5.7201e-07
4.3673e-08
-1.67891e-07
-7.40121e-08
-0.0199273
3.70589e-06
6.13453e-07
4.01805e-06
-1.40992e-06
3.0101e-05
-0.00294689
4.72556e-08
4.77085e-08
3.38971e-06
0.0150733
1.01894e-06
3.81547e-08
1.37978e-07
7.71998e-06
-2.3266e-06
-1.85548e-07
-0.0153399
0.0152328
-1.21273e-05
4.12985e-07
0.00528246
1.12922e-06
0.00118058
-1.1201e-07
-2.27082e-06
1.32295e-05
6.55052e-08
-3.52362e-07
-1.49655e-06
2.28799e-07
0.000196663
-5.08582e-08
-0.00836903
1.18669e-07
-1.32275e-08
0.025326
9.55551e-06
0.000531032
8.29401e-07
3.4278e-07
2.52785e-05
-3.3979e-08
5.04879e-06
1.47385e-07
-1.21595e-06
-0.00762407
-0.00882363
1.10706e-07
6.47405e-06
5.7073e-08
-1.07574e-07
0.0145122
-0.000575688
1.66052e-05
-1.99762e-07
-1.19708e-07
1.34359e-07
6.67939e-08
0.0272559
-0.0114726
9.76857e-07
-0.000222095
-6.46389e-07
0.00109417
-9.71097e-05
7.57325e-07
0.00011363
-1.07149e-06
-5.70618e-07
-3.24836e-07
2.985e-06
3.80685e-07
4.76509e-07
-0.0034649
-3.88595e-08
3.78831e-07
-6.11094e-07
-3.07652e-06
-6.76561e-06
-5.49763e-07
-0.00663189
0.0520583
5.9069e-08
1.62094e-07
2.28081e-08
-4.15148e-07
-0.0142073
-1.98932e-08
-4.77124e-07
-0.00138237
9.38799e-08
-3.18681e-07
0.000137865
-1.05281e-06
-1.01569e-05
0.000176118
-0.00776328
-9.53303e-07
-1.10709e-06
-0.00939232
2.72619e-08
-3.33996e-07
-1.81122e-07
5.21074e-07
-6.35803e-07
-1.35764e-06
-1.86782e-07
9.25056e-08
-5.51516e-07
-2.28408e-06
4.93343e-07
-1.10567e-06
0.0188735
-2.27769e-06
-0.00263651
-2.62639e-06
-1.7482e-07
-1.26089e-06
0.00911731
-1.76501e-07
-0.0732945
1.9613e-05
-0.00831808
4.42414e-08
-0.0169893
-0.000559075
-0.000193851
-1.64197e-07
0.00148448
2.20949e-07
-0.00206296
-3.15588e-06
9.50291e-08
1.13761e-07
-2.41162e-07
-1.88952e-07
-0.000765487
0.000210932
-3.06675e-07
3.70886e-06
-7.25357e-08
-0.0016571
5.8486e-08
-0.0089489
-0.0713977
-8.50966e-06
-0.046924
3.776e-06
9.2179e-08
-0.00291981
5.3575e-07
8.74539e-07
2.93179e-06
5.04356e-08
-3.42403e-07
-7.03126e-08
-2.30137e-06
1.1481e-07
-9.13743e-09
0.000132705
7.65996e-07
0.00571482
-5.60549e-07
-0.00294805
0.00580466
3.38335e-05
-9.31345e-07
-2.85955e-07
0.00104832
-1.45209e-07
-0.000121208
-3.54468e-07
-5.79066e-07
-1.38503e-07
-1.40819e-06
-9.72747e-08
0.00366207
0.00503546
4.13777e-07
7.64008e-07
-3.08902e-06
5.67402e-07
0.00363898
8.07342e-08
7.15215e-06
-7.82819e-08
-9.4486e-09
4.84388e-07
-3.01686e-06
0.00239411
6.01215e-06
0.0023588
3.76155e-07
4.83749e-08
1.22458e-07
-0.0137319
-2.28677e-06
-0.00461894
5.914e-07
1.91267e-06
-4.58547e-07
-4.39724e-08
4.07819e-07
0.00657194
-1.15769e-06
2.55026e-05
-0.0326495
-5.18975e-07
-4.19422e-07
0.0191162
2.27044e-05
-1.00899e-07
2.42719e-06
4.78129e-07
-2.39974e-06
2.99211e-06
-2.76822e-07
0.000392159
3.19604e-06
9.46427e-07
1.26322e-06
8.0083e-07
1.06098e-07
2.44414e-08
-6.10679e-07
0.000176046
-1.038e-06
0.00116322
3.00604e-05
0.0440219
-2.38503e-06
-3.93437e-07
1.29568e-06
0.000388264
-6.43751e-08
5.40361e-08
2.75174e-07
5.89283e-07
2.83407e-06
2.26851e-06
2.43534e-07
-5.93387e-07
-0.000812311
2.65108e-07
1.037e-06
0.00380457
1.58291e-06
2.93344e-05
-4.25859e-07
-2.51188e-07
-5.99306e-07
-1.80871e-07
7.54383e-07
-2.18669e-06
3.02573e-07
2.5394e-07
2.17925e-06
6.48159e-07
-0.00229437
2.99045e-06
0.000127682
2.06081e-05
-4.59569e-08
-0.000619447
-4.39275e-06
-2.44158e-06
-1.01282e-06
-3.49847e-06
1.55946e-07
-3.04732e-07
-2.51052e-06
2.84264e-08
1.0911e-06
-0.00144456
-2.05796e-07
-1.69941e-06
1.06487e-06
-9.8029e-08
0.0341624
8.62523e-07
4.84721e-07
5.91241e-08
-0.0695196
1.10387e-06
2.77937e-07
-1.89701e-07
-4.62514e-07
0.000650954
0.00593672
-5.27316e-07
6.82928e-08
7.72236e-07
7.58157e-07
0.0197247
-1.2206e-06
3.38014e-07
-2.2354e-06
-2.97338e-07
0.00201376
-2.05043e-06
3.09669e-06
0.00427056
0.000131587
0.00194677
2.62436e-07
0.00543349
2.97012e-06
-1.74823e-07
-1.28415e-06
2.34725e-07
1.55698e-08
1.50745e-07
-4.06159e-07
-1.97428e-07
6.23137e-07
0.0336289
-1.96645e-07
2.77506e-06
0.00923615
0.00850979
-2.48817e-08
0.00050755
-4.73458e-07
4.25277e-07
1.04424e-08
-0.00958434
1.53583e-07
0.0217477
0.00346385
-1.65407e-07
-1.65653e-05
-2.18872e-07
0.00476982
7.2619e-07
-0.0041681
-1.14133e-06
0.000131185
-1.06577e-07
0.000274902
-4.40575e-09
-4.34304e-07
0.0229284
-2.10622e-07
-1.04063e-07
-3.35441e-07
0.00932906
-2.5425e-07
6.17538e-08
-0.000144591
1.22582e-06
3.52617e-06
-0.00491629
8.53094e-08
-2.82678e-06
1.09093e-06
5.06459e-07
-1.07942e-06
8.5623e-05
-2.91222e-07
-3.24079e-07
-0.0241213
3.49943e-06
8.82964e-07
0.0556489
-8.30794e-07
3.67038e-06
-4.72931e-06
0.0132585
-0.008786
-2.98127e-07
0.000211597
-0.0115679
0.0004372
-3.97916e-08
1.75675e-07
-6.31281e-06
-1.77524e-06
-2.0976e-06
-1.41801e-07
-2.23774e-06
4.66591e-07
0.0358568
1.97223e-07
-5.19865e-07
-1.69859e-07
-7.11594e-08
-5.19362e-07
-6.18396e-07
-3.86135e-07
-1.1889e-07
3.1639e-06
-5.17792e-07
3.82173e-06
-1.58819e-05
-0.011219
-1.99468e-07
0.0335165
-0.0281242
0.000674701
4.87131e-07
-1.63594e-06
9.94582e-07
0.0083615
8.18904e-08
1.22735e-05
-1.03583e-07
0.000978329
5.99721e-07
-1.48613e-06
-5.8923e-07
3.07269e-07
0.000938081
7.90289e-07
3.40898e-08
6.78401e-08
-0.00205115
-1.42941e-07
-1.96002e-07
-2.15223e-05
-7.85783e-05
9.58131e-09
2.24102e-06
0.000636324
-0.03631
7.13723e-08
1.49899e-07
-0.000105669
-0.00396565
-3.159e-08
0.00558732
-1.56251e-06
-7.36339e-07
1.71216e-06
6.20068e-07
-3.12213e-07
-0.00144731
-4.9115e-09
-9.70111e-08
5.17629e-08
0.000695541
2.45983e-07
0.00448102
1.94293e-07
5.92734e-08
-2.73251e-07
-5.21777e-07
0.00324278
1.09926e-08
-3.18521e-07
-0.0059039
8.60656e-06
3.29828e-06
3.36408e-08
-1.76581e-07
-7.369e-07
-0.0339522
2.96748e-07
-3.86609e-07
-1.89867e-05
4.77245e-07
2.29346e-08
5.74537e-06
-2.62313e-07
0.00232389
6.74957e-08
3.2591e-06
1.29508e-06
-0.0269174
2.62549e-07
-1.97474e-06
1.37926e-07
1.14406e-08
-0.00565751
-8.11701e-07
0.00148148
-5.90348e-07
-6.76023e-07
2.85515e-07
5.91944e-05
-0.00199291
-1.51481e-05
3.00246e-08
-3.51709e-07
1.98636e-07
3.61563e-07
-4.26025e-07
5.36538e-08
-4.49541e-05
1.55477e-07
-7.53987e-07
-0.00174783
-1.43299e-06
-2.60762e-07
1.15419e-06
-9.36538e-08
-0.00827633
0.000697633
1.12031e-06
-0.00107977
1.01286e-07
-2.23338e-06
-2.19467e-07
-6.35229e-07
3.52083e-08
4.27954e-08
2.23104e-07
-8.4987e-07
0.00370068
-5.49361e-08
8.50587e-06
6.66409e-08
4.51252e-07
-1.98092e-07
3.70408e-06
-0.00026047
-6.68098e-07
-1.84545e-08
-5.77171e-07
-1.85323e-06
-2.02978e-07
0.000158731
9.99043e-08
2.11918e-06
-2.84927e-07
5.57268e-08
-2.53542e-08
-0.0906188
-1.87377e-07
9.74111e-08
-2.09805e-06
0.000441736
-2.90832e-07
2.01096e-08
1.39791e-06
-2.36808e-06
-6.22398e-08
1.71098e-08
7.16754e-07
7.14784e-08
-4.76096e-07
3.57101e-08
4.6274e-07
-1.41202e-07
0.00243765
0.000213916
0.00160891
8.3514e-07
-1.50266e-06
6.81652e-08
3.20028e-06
-2.96951e-07
-0.000944417
-0.00214017
0.00149009
2.04724e-06
-0.000100318
1.46822e-07
2.16523e-07
0.00029265
-1.3531e-05
1.42102e-07
-3.28687e-06
-8.02301e-08
2.52952e-06
-2.40909e-08
1.46038e-07
-1.37908e-07
-1.93399e-07
1.32245e-07
0.000434243
-4.90752e-07
1.21579e-07
0.0255751
4.74567e-09
3.23682e-06
-5.10382e-07
-5.61442e-07
-6.24873e-06
-1.47131e-06
-0.00117273
-2.38139e-07
-7.84918e-08
7.60394e-06
6.07941e-08
-8.98394e-07
1.41253e-07
-4.37899e-08
3.07629e-08
0.000124275
6.33523e-06
0.000221682
-7.6105e-08
1.3146e-08
-3.38529e-08
2.52914e-05
6.45929e-07
-1.69877e-07
1.12496e-07
-2.29127e-06
6.11629e-05
-0.0192236
-7.74309e-07
5.12009e-07
2.48965e-07
0.000933815
-1.94394e-06
1.6068e-06
3.56916e-06
7.81945e-08
0.0257579
4.15031e-05
-1.76931e-08
6.2773e-08
-2.88241e-07
0.000381025
-1.25175e-07
-1.64891e-06
-2.8185e-07
-7.68743e-07
-3.69737e-06
-1.34377e-07
-0.0427891
-0.116774
1.325e-07
2.58509e-09
-6.50517e-08
-3.69827e-07
-2.48849e-07
-0.00610983
5.2398e-07
0.00440728
-9.6182e-08
1.12912e-06
-6.44076e-07
-7.54849e-08
1.40551e-07
-7.36383e-07
8.38403e-08
-1.37464e-07
4.11512e-07
-1.39537e-06
-0.000373495
1.21207e-07
8.56398e-06
-2.33423e-07
-4.32935e-07
0.0187219
2.09946e-08
-3.09259e-07
1.72353e-07
-3.71047e-07
-0.000929111
-2.98941e-07
8.86275e-07
-2.06364e-07
0.00467792
8.57086e-07
0.000313151
-2.73922e-06
-5.60517e-08
1.8009e-05
0.000460137
-5.09838e-07
1.08477e-07
-8.43239e-06
3.77957e-07
0.00344499
2.58685e-06
3.48819e-06
-4.83532e-07
-3.60803e-08
8.36889e-08
6.58132e-08
1.69311e-06
5.6958e-08
1.90845e-05
0.0278935
-5.78663e-07
4.00929e-07
-5.9888e-07
-2.89207e-06
4.37573e-07
-0.00741462
-1.85297e-07
3.4753e-07
-0.00217377
-8.37955e-08
-4.44747e-06
4.46054e-07
2.23745e-07
0.000181487
-3.23652e-08
2.75716e-07
2.03131e-07
2.65605e-06
-2.37269e-06
0.0196235
-1.35724e-07
2.87419e-06
-1.54555e-06
-0.0068486
1.74181e-07
1.77423e-07
-2.02643e-07
-2.19651e-07
-1.69744e-06
-9.76169e-07
2.11497e-06
3.08691e-07
-1.3288e-07
1.21223e-06
1.15307e-07
-6.24051e-07
-2.8792e-06
-4.24436e-08
-1.22316e-07
-2.22963e-07
-6.93666e-07
-1.19399e-07
1.12763e-07
2.99238e-08
-6.90009e-07
1.23675e-07
6.99888e-07
1.07594e-06
-1.24059e-07
1.64335e-07
3.60658e-06
0.00503241
-2.66285e-06
3.57665e-07
-8.59489e-08
-0.00238051
7.07856e-09
-1.26328e-06
7.84363e-09
3.98027e-06
-0.0234313
0.0281983
9.71837e-08
-0.00404148
-0.00493704
0.00142253
7.03116e-08
-7.12031e-07
3.88136e-07
-0.000729536
4.98217e-06
-5.25883e-08
0.0370086
1.1276e-05
0.000128898
-0.00100283
-8.49855e-07
5.07251e-06
0.00252444
0.000106646
0.00108678
1.65618e-06
0.0279258
6.66802e-07
0.000350049
9.46527e-08
8.63003e-07
-2.18047e-08
-1.62433e-06
-1.3108e-06
1.40918e-07
-1.17653e-08
5.03921e-05
-1.59364e-07
-3.89282e-07
0.00590909
6.05377e-08
-1.9577e-06
2.32016e-07
1.44825e-05
-2.21145e-07
-2.91654e-07
8.69091e-07
2.83593e-07
-3.06437e-08
-1.6887e-06
-4.42326e-08
-0.016297
9.06934e-06
-2.45452e-05
-1.80049e-07
-4.24354e-05
-9.68172e-09
-1.41427e-05
-3.95996e-07
4.25762e-08
1.14273e-07
3.35395e-07
3.45421e-07
-2.37095e-07
-0.0027707
2.70828e-06
-5.50939e-08
-0.00744691
3.58994e-07
6.65053e-08
-0.00273049
-7.3071e-08
-9.73452e-08
-0.00698789
3.59058e-08
2.52659e-06
-6.74005e-07
6.05242e-06
-2.10291e-06
2.64576e-06
1.99272e-06
2.81617e-07
0.021128
0.0144013
-2.56862e-08
1.96424e-06
-0.0263885
-0.0248552
0.051245
1.98976e-07
2.15377e-07
-1.19575e-07
2.08707e-07
-1.1624e-07
-0.000640779
-1.50429e-06
1.60471e-07
-1.73797e-06
0.000493671
-2.432e-07
3.23986e-07
-1.13417e-07
5.60805e-08
-1.40826e-07
-0.000150318
-0.000331722
-1.3024e-07
-1.9142e-06
-7.54504e-05
1.31373e-07
2.52998e-07
0.0410265
6.30155e-07
-0.000199201
-7.13413e-09
-8.87857e-07
-7.21138e-08
9.27959e-08
4.36261e-06
7.88451e-05
-2.22907e-09
0.00055503
-0.00338674
0.000127915
-1.16682e-06
6.62324e-07
0.0446778
-1.09898e-06
-0.0011357
-1.16064e-06
2.55437e-07
-2.17595e-07
-0.00149831
-0.000955939
1.52414e-08
-1.87348e-06
-3.99677e-07
4.49944e-07
8.9819e-07
1.10781e-07
2.81231e-07
8.07173e-07
-1.09533e-06
1.81099e-07
-1.91925e-08
-0.0523697
-2.3129e-06
1.0336e-07
3.46042e-06
-1.86748e-06
-0.000472262
-5.52491e-09
9.6934e-07
0.000380342
4.06418e-06
1.93885e-07
-1.04405e-06
-0.000192335
-8.06487e-08
-5.39094e-07
-2.05758e-06
2.80826e-06
9.42692e-08
1.74875e-08
-2.31746e-07
-5.36505e-07
1.26946e-06
0.00989843
1.01044e-07
0.00287624
1.13128e-07
2.35444e-06
-5.89496e-07
-1.76245e-07
-1.13419e-05
6.52617e-05
0.00401666
1.18525e-07
1.0029e-06
3.61789e-05
1.87861e-06
-1.01344e-07
-5.593e-07
-0.000118222
-1.22666e-07
1.76173e-06
-1.25532e-05
4.25181e-07
-6.42159e-07
1.74108e-08
0.000149141
-0.000237959
0.00257253
-3.45182e-07
3.88534e-07
-2.003e-06
1.63842e-06
-2.45826e-06
2.17364e-07
-2.97676e-06
-1.31306e-06
-2.95488e-06
-0.000807966
2.63159e-07
1.01161e-06
-4.27695e-07
2.34367e-07
-2.70879e-08
2.02202e-06
8.64802e-08
-1.54859e-07
-0.0330069
-2.80668e-06
8.36735e-07
3.86936e-07
3.43388e-07
0.00010389
8.27622e-08
1.76511e-06
-0.000559054
1.08211e-06
0.00184741
1.29659e-06
2.35916e-07
-0.0755796
-5.56389e-07
3.1056e-07
4.92683e-07
-4.66688e-08
4.18981e-07
-0.00438698
3.05847e-06
2.45826e-05
-0.00130848
3.43676e-06
2.52566e-06
-0.000330932
-1.22275e-06
-0.00046019
-1.17189e-06
-2.21107e-06
-1.04807e-07
-1.21324e-07
2.24969e-07
0.0686749
1.83629e-05
2.09276e-07
-0.00159124
-3.66261e-08
0.0638722
9.33221e-07
-4.41082e-07
3.38062e-06
1.35286e-06
-0.000597827
1.52426e-07
-2.43737e-07
-0.034283
0.000135974
5.46234e-07
1.65111e-06
0.000135487
4.19132e-07
0.000126614
0.00833398
-8.37249e-08
-2.79357e-06
-1.03205e-07
-3.42497e-07
-2.63097e-07
-2.92825e-07
1.73529e-07
3.63625e-07
3.40132e-07
9.3739e-07
3.22527e-07
-0.000588164
0.00054866
6.4396e-08
1.13005e-05
-6.37644e-07
-5.87671e-07
3.88745e-06
5.62282e-07
-7.95845e-09
8.67482e-07
4.14751e-06
5.63161e-07
4.73584e-06
0.000103777
-2.12474e-07
-2.85383e-06
1.83001e-07
0.000493916
-0.000708835
-1.98869e-07
0.000138255
-1.36448e-07
-2.38027e-08
-0.038833
-7.09202e-07
8.55664e-08
6.43019e-08
1.74758e-07
-7.16669e-08
-4.31559e-07
4.05762e-07
-9.09929e-07
-1.56066e-07
-8.25477e-07
1.58353e-07
3.52314e-05
1.28168e-07
1.79531e-06
0.0149135
7.53673e-05
-3.0741e-07
0.000116073
4.76397e-07
1.0372e-05
-9.79301e-08
4.28503e-05
-9.03662e-07
-0.000802843
-0.0307943
0.00214913
9.63664e-08
5.7104e-06
1.57436e-06
0.000502593
-8.75118e-08
1.98698e-06
2.86667e-07
-0.000640977
0.000504931
2.54703e-06
-0.079706
0.000326895
0.000191542
0.0221767
0.0187759
0.000441442
-1.86103e-06
7.69496e-08
2.39083e-06
-0.000141892
-1.52948e-07
0.0017077
-5.82446e-07
-1.10591e-07
3.44248e-07
3.03727e-06
0.00246439
2.13699e-06
-3.61819e-05
-1.11265e-07
0.000227625
-4.96646e-07
-1.53467e-09
-6.99948e-07
0.00030199
5.62808e-05
-1.63558e-07
4.86396e-06
1.0359e-07
5.18281e-07
-1.56858e-06
-0.000518275
2.11216e-06
-9.97447e-09
5.32041e-06
-0.00711026
1.06915e-06
0.000113768
-2.30516e-07
-2.21232e-06
3.87339e-06
-3.45459e-07
5.22418e-05
4.47908e-06
-2.96305e-08
-4.64385e-07
-5.09348e-08
-0.000758561
-1.53392e-07
-0.0101851
-6.86585e-05
-8.76049e-08
-2.64576e-07
-7.16399e-07
-1.00873e-06
7.74643e-08
1.79542e-06
4.08061e-06
-9.51375e-08
-0.000201186
2.82052e-07
-2.10097e-06
0.000386903
1.11779e-06
-7.22823e-06
9.18764e-08
7.36081e-08
0.0332332
5.86598e-06
3.82913e-07
-0.0635678
4.15272e-07
3.80228e-05
-2.39554e-06
1.6665e-07
4.16861e-06
-2.40831e-07
2.87975e-06
-0.000228327
5.86708e-07
1.78941e-07
-2.50218e-07
-6.14212e-08
-1.81661e-07
1.09583e-05
0.0018576
1.92527e-06
-5.32085e-08
3.94369e-07
3.79563e-06
-3.77935e-07
4.59037e-05
4.03346e-06
6.53928e-06
0.000222011
1.98111e-07
-1.74276e-07
-0.02182
6.01308e-06
1.10358e-07
-0.00492711
1.76946e-08
-3.64652e-08
-4.88266e-06
-4.8596e-07
9.01546e-07
-3.04051e-06
-3.02741e-07
-5.70899e-08
-8.66866e-07
2.66169e-07
-2.84181e-07
0.000286651
-1.36032e-06
-0.00154545
5.81322e-08
-2.05564e-06
-8.21757e-08
7.07811e-08
-2.70476e-06
-8.3023e-08
-0.000288553
5.6137e-05
-1.55805e-07
0.00242015
-7.56503e-07
-0.000134733
-3.08211e-08
-0.000137029
0.000125432
3.59602e-06
-3.134e-07
-7.77215e-08
-2.40835e-06
-0.0043004
-1.7903e-07
-0.000581053
-6.8607e-07
-1.21489e-07
4.53263e-05
-2.49265e-07
-0.0216108
1.90647e-07
-0.00688407
3.09364e-07
-1.73799e-06
-5.21403e-07
1.72134e-05
2.14148e-08
3.69772e-08
-7.03445e-07
8.82165e-08
1.96038e-07
-8.54261e-06
0.000104359
-6.94974e-07
-1.8675e-06
-1.33877e-07
1.80661e-07
-1.15228e-07
-3.07227e-05
0.0314174
-1.94117e-06
4.84784e-07
-8.32934e-08
-6.48935e-08
-1.4257e-07
-1.74454e-06
-6.34082e-07
-0.000606204
0.0137654
-0.000302028
-5.99916e-07
9.30176e-08
-1.54515e-07
-7.84515e-07
-2.27026e-06
-8.24407e-08
1.39502e-07
-8.3946e-08
2.18219e-06
1.15009e-06
6.6663e-07
0.00100522
6.34254e-05
2.40725e-07
2.25191e-07
2.75475e-07
0.0252614
4.10779e-07
-1.83498e-06
4.68218e-07
4.0588e-07
4.92671e-07
-3.23446e-09
-0.00506934
9.92025e-08
0.00152181
3.12891e-07
9.63611e-07
5.06085e-08
-1.80593e-06
-6.4814e-06
-8.51313e-07
-1.66665e-06
2.03089e-08
-5.19811e-07
6.43789e-09
-1.96389e-06
0.030073
0.000257795
4.32707e-07
-6.83862e-08
0.00354285
-1.67515e-06
8.30385e-07
4.02736e-07
2.80458e-06
6.81774e-08
-1.88551e-06
-7.08896e-05
0.0149766
1.25333e-05
-3.89795e-07
-2.25291e-06
1.16952e-07
-1.08556e-07
8.64e-07
8.05319e-05
-8.14889e-05
-2.57141e-06
0.0265474
9.93456e-09
-0.0084642
-0.0010188
-2.81409e-08
0.000933398
1.68909e-06
2.33248e-07
4.79698e-06
-1.52315e-06
9.33868e-07
9.82459e-05
1.83649e-08
0.0218369
3.6412e-07
0.0570188
-0.0330772
-3.14443e-06
5.46969e-07
-1.77439e-06
-7.38097e-08
2.57731e-08
-4.40551e-07
-2.9734e-08
-0.0310681
-4.70214e-07
-6.99762e-08
0.00079165
0.0066075
2.49213e-07
4.64953e-07
2.28156e-07
0.0305144
-1.07928e-06
0.000194234
-0.0366536
0.00412819
-0.0629231
3.77023e-07
0.0126552
-7.84294e-07
8.68301e-07
-5.81957e-07
-1.23489e-05
-1.38211e-07
-0.00739498
-1.67894e-06
-0.0106939
-1.97546e-06
3.58924e-08
-5.2343e-07
-3.35676e-08
-1.15124e-06
2.38734e-06
-0.00631557
0.0108596
7.527e-07
4.3012e-07
-8.09686e-07
1.14488e-06
0.0043493
2.83791e-08
9.60546e-05
-0.000631018
1.43492e-08
2.82723e-07
0.000320407
-1.90735e-06
-8.80566e-07
0.00022078
-3.96512e-08
9.0118e-05
-1.68632e-07
-0.0320442
1.32496e-07
3.11813e-07
4.68814e-07
3.33958e-06
3.12193e-06
0.000200337
8.26258e-06
0.0367578
-0.0041068
7.24299e-05
3.63306e-07
3.48886e-07
-0.000591743
3.52269e-06
-0.00183418
-2.11157e-06
-0.105493
-0.000120356
0.000322034
-1.71792e-06
-0.0111156
1.88345e-07
-2.43587e-06
-7.65037e-05
6.4895e-07
4.44293e-07
3.48253e-10
-1.07164e-06
1.18634e-06
-8.65722e-08
1.106e-07
-0.0392244
-5.90593e-07
2.97372e-06
0.00200433
-0.0129847
1.66039e-06
-0.000642867
-4.29793e-07
-1.60131e-07
0.000516951
-2.99939e-06
1.68001e-06
-0.000473592
0.04062
-0.000801578
-9.81945e-08
-2.46292e-06
-1.1002e-08
-0.0011122
1.81546e-06
0.000407312
-5.62817e-07
1.31182e-06
7.96127e-07
-2.83382e-08
0.0683729
-3.43333e-06
-1.23962e-07
7.5387e-06
2.28552e-07
5.35002e-07
-7.45639e-07
0.00702931
-8.25192e-07
-4.77563e-07
-5.78745e-08
-5.79159e-07
4.33907e-05
-3.27914e-08
-1.23291e-07
-0.000255433
-2.10741e-05
-2.23855e-07
-1.81348e-05
4.27297e-07
-1.27037e-06
4.17454e-07
-8.62362e-07
-0.0209844
-1.90713e-07
3.38822e-07
7.18551e-08
0.0516839
0.0003467
-1.77748e-06
-5.55146e-07
-6.05971e-07
-7.10729e-08
2.60668e-06
1.00937e-07
-6.72395e-07
-6.78862e-08
1.44427e-05
-9.40082e-09
2.98354e-06
-2.66767e-07
-1.44204e-06
3.00828e-09
-0.0115305
5.20037e-06
1.02679e-06
-0.00264398
-1.0722e-07
-4.18383e-07
8.47089e-05
-3.61156e-08
-4.30313e-06
-0.0246236
-9.20143e-08
-7.61044e-07
-0.0399183
8.02151e-08
3.38208e-05
-1.25473e-07
0.00028986
0.000168952
-6.12063e-05
-5.67763e-07
6.91257e-08
1.4452e-07
2.14743e-08
-1.01302e-06
-1.35108e-07
7.49118e-07
2.7271e-07
1.49716e-07
-7.01687e-07
2.40795e-08
-1.10648e-07
2.12767e-07
-0.022859
-1.19473e-07
0.00104457
-4.85002e-07
-1.21585e-07
-0.0381708
-1.87072e-07
6.55902e-05
-0.000840174
6.69021e-07
-1.89463e-07
-2.14071e-06
3.93209e-06
1.4452e-07
-0.0324106
-1.52353e-06
5.26365e-07
0.00168352
8.12152e-07
-0.0724634
-8.11023e-08
1.61665e-05
-1.04331e-06
0.0560615
0.0384973
-7.97965e-05
-1.86391e-07
-5.26133e-07
2.40937e-08
-1.04265e-06
5.65421e-07
2.0478e-07
1.25783e-07
-1.20917e-06
1.06579e-07
0.000554913
-0.000146434
-5.30991e-07
-3.86683e-09
-9.70702e-08
-2.18929e-06
-4.49678e-07
1.22861e-08
-5.05002e-07
-0.0414656
0.0426022
7.40056e-06
-5.93461e-07
-2.76439e-07
-5.40434e-07
-0.00280872
0.00776875
-2.41113e-06
5.58188e-07
5.79787e-06
-6.00631e-07
-9.32187e-07
0.0001966
-1.1869e-07
-6.8718e-07
-1.3312e-06
-5.56355e-07
1.45104e-06
-7.05979e-07
-0.000602897
4.23998e-08
-9.75687e-08
-7.47406e-05
-8.24236e-07
-1.29513e-06
2.61301e-07
-3.31793e-07
-5.52228e-06
5.9136e-07
1.09589e-07
8.12181e-07
0.00127097
3.13517e-05
-7.96044e-07
6.20599e-07
-1.07951e-07
9.81015e-07
-2.84215e-07
3.80996e-07
-5.33986e-08
3.28966e-08
-3.46009e-08
4.05861e-06
-9.14907e-07
8.2939e-07
-0.00437488
-3.9042e-07
-1.9028e-07
0.00313543
-5.9747e-07
-7.43752e-07
1.36855e-05
-6.59609e-09
5.60315e-05
-3.4079e-08
-1.03589e-07
-5.20365e-07
1.48278e-06
1.05679e-06
4.04271e-07
-2.90513e-07
-8.79579e-08
1.61601e-06
-5.70377e-07
0.057749
5.0869e-06
-0.000186418
-1.05803e-07
-2.05753e-06
-4.31929e-07
-4.20905e-06
-1.67925e-06
0.000512588
-2.07317e-07
-1.74309e-06
-2.56893e-07
-2.11559e-05
-9.54843e-09
0.00243121
4.23767e-07
1.2379e-07
-9.38411e-08
6.02937e-08
-4.51737e-07
3.29619e-05
9.94355e-06
-1.43611e-07
-1.00863e-07
-1.14992e-06
-9.1451e-05
-7.2398e-08
-9.72289e-06
-2.76662e-06
-6.40677e-08
1.31106e-07
-1.15006e-07
-0.00674041
-2.0834e-05
-9.05503e-08
-0.0170994
-0.0016851
-1.04879e-07
2.99322e-05
-1.13522e-07
-1.6965e-06
-7.10628e-08
1.54738e-07
-3.70399e-07
-3.01517e-07
1.05369e-07
-2.5296e-07
7.59985e-08
1.12613e-05
-4.19024e-07
-0.000349732
-1.95835e-06
7.64363e-08
0.0699251
-3.50643e-07
1.41438e-07
5.14335e-06
1.40789e-07
0.00665153
7.9018e-08
0.00236568
-0.0775578
-4.11125e-08
-0.0359621
-6.90612e-06
1.87369e-07
-2.68961e-07
5.80687e-09
0.00219722
-9.99391e-08
0.000188501
-0.000614298
4.37911e-08
-1.78963e-06
-2.00541e-06
5.54516e-06
2.43501e-07
-6.57601e-05
-8.8998e-08
5.78749e-06
-0.0144009
1.91637e-06
-0.000282258
-6.42048e-07
-0.00341014
0.000135044
-0.00774876
-1.23424e-07
1.37703e-06
-4.29988e-07
5.4397e-08
4.26509e-07
1.36921e-07
0.000516084
-1.82306e-06
1.60314e-07
1.93935e-05
4.56937e-07
1.43945e-06
-1.48996e-06
-1.82618e-06
-3.58656e-08
-1.77234e-06
-0.0441862
-5.49631e-05
-0.0298308
-2.29232e-06
-1.72522e-06
0.00168412
3.91075e-07
2.79437e-07
-2.87541e-08
2.17217e-08
1.14248e-06
-1.70127e-06
8.80273e-08
0.000685421
-2.04872e-06
-2.50781e-06
-3.27393e-07
-1.74567e-07
3.79843e-08
0.0354376
-7.57934e-07
-0.0488532
1.06073e-06
8.7673e-05
2.65005e-06
2.04068e-07
-9.90196e-08
-1.58597e-06
2.10451e-06
-0.0233556
0.000266892
5.57824e-07
5.89646e-08
-5.58864e-07
-2.19945e-07
1.15024e-07
3.6102e-07
-0.000306972
2.50242e-07
-1.43963e-08
1.61763e-05
1.64686e-07
-2.11992e-07
0.00448108
0.03745
0.00540489
9.46745e-08
0.000436852
1.63978e-05
-2.33715e-08
-3.62462e-07
1.48802e-06
2.56173e-05
-0.0109189
-0.000517124
-0.00613819
4.66002e-07
-4.85091e-08
3.65914e-07
4.05343e-07
4.71561e-08
5.5539e-06
4.47788e-08
-8.60764e-07
0.00046678
1.44316e-05
2.836e-06
-1.97739e-06
3.36385e-07
1.18523e-05
-3.6915e-05
-1.20094e-07
1.04872e-07
5.76026e-08
2.73933e-07
-7.10917e-08
-1.61914e-06
-6.75211e-05
-0.00804964
5.5523e-07
2.84865e-07
-1.39174e-07
1.17542e-07
-1.05672e-07
3.00471e-06
0.000898572
-4.85194e-07
-0.0220177
-7.1834e-05
0.0104648
5.55088e-07
4.15912e-07
4.10226e-07
2.03222e-07
-1.00585e-07
2.07436e-07
2.97509e-07
5.30468e-06
1.02477e-05
-6.37987e-07
-1.17648e-06
2.33667e-07
8.34392e-07
0.00553719
2.78053e-06
6.45365e-05
4.31882e-05
6.3521e-06
2.00692e-06
-3.70602e-07
-9.53635e-09
-1.62928e-07
7.16302e-07
0.000135089
3.88497e-07
-1.56675e-06
0.0705265
3.578e-06
7.97391e-06
0.0430851
-0.037261
-0.000493432
1.62522e-07
2.4311e-06
0.000297214
-0.00407998
4.0565e-07
2.51701e-06
-3.17185e-08
4.35529e-07
4.71528e-07
0.00134943
-7.57744e-08
-3.04564e-07
-0.00804598
-1.45518e-06
0.0028008
-2.81695e-08
-5.84918e-08
2.40087e-06
0.0652777
2.54905e-06
0.000194513
8.30112e-07
0.000355364
-3.14015e-06
1.26203e-07
1.12965e-06
7.95106e-08
-1.30189e-06
3.37257e-08
1.03711e-06
-0.094864
-2.5673e-05
0.034624
0.0256626
5.92996e-05
-8.65708e-05
-0.00505075
1.43882e-09
3.97496e-07
0.00514814
7.46864e-09
4.45114e-08
-3.09206e-07
3.51057e-07
5.23692e-05
-8.02402e-08
2.94262e-07
1.6607e-06
-1.13219e-06
-0.00380491
4.43382e-07
1.55609e-07
-4.21255e-07
5.89841e-07
-4.34563e-07
-8.4316e-08
6.10844e-07
0.00482969
6.72106e-07
3.06553e-08
-1.28592e-07
2.61581e-07
-3.29076e-06
2.19585e-08
5.43897e-07
1.8364e-06
-4.57351e-05
-1.78153e-09
3.75248e-07
3.88377e-07
-6.9769e-07
1.76477e-07
-3.45748e-07
-5.48438e-06
-0.0389277
4.34247e-07
-5.78212e-07
2.44305e-08
1.70117e-06
9.73532e-07
7.89102e-07
-5.38083e-06
-5.68519e-06
-9.76811e-08
2.07098e-06
-0.00255549
0.000387188
7.94965e-07
-3.35641e-07
-4.23801e-07
3.89678e-06
1.93394e-06
0.00114005
-7.8674e-07
1.58467e-05
2.63494e-05
-4.84527e-05
0.000173228
-0.00924988
-2.11674e-06
-5.82524e-05
3.53927e-06
0.000249681
-5.28971e-07
1.00765e-05
2.25305e-06
-1.43669e-06
-6.49819e-07
-1.65294e-07
2.59664e-07
1.99919e-05
-5.01495e-06
-3.15299e-08
8.06887e-07
-7.33064e-06
-9.08021e-07
5.43067e-05
5.47108e-08
-3.11078e-07
8.80227e-08
7.24918e-08
5.54225e-07
-4.09616e-07
-5.81229e-05
4.95559e-07
-1.17832e-07
1.70194e-07
-0.0124165
1.98572e-08
1.37086e-07
0.000271379
1.98e-07
-6.33444e-07
-8.06235e-08
0.00457069
-6.92777e-06
1.96763e-06
2.68256e-06
-1.16564e-06
4.18235e-05
-1.45371e-06
-0.00100679
0.0384231
3.16989e-05
4.07782e-07
-3.81362e-08
1.65566e-07
-0.013645
1.2901e-07
9.53958e-07
-6.59843e-08
1.85908e-07
1.57093e-06
2.21655e-06
1.67785e-07
6.52296e-05
1.84876e-07
4.3592e-06
4.59395e-07
5.95034e-06
1.35833e-05
-1.35824e-07
-0.0385128
-0.0069589
6.24381e-06
1.51309e-05
0.0432974
8.57732e-08
-8.70352e-08
4.59621e-06
1.50755e-06
0.0112582
2.3117e-07
-4.24809e-07
0.012417
-1.51959e-07
-6.96952e-08
7.29935e-07
-1.56788e-07
0.000775286
8.86308e-08
-2.23262e-06
3.65641e-08
0.00488309
-1.32606e-07
0.0320857
6.09195e-05
0.00618064
-0.00753522
-2.87392e-07
4.22845e-08
3.37279e-07
3.77699e-07
0.000307459
-3.33992e-06
0.00118887
5.41658e-05
2.2292e-07
6.83776e-07
-3.16142e-09
1.79576e-07
0.000158486
-2.85844e-08
-1.79828e-06
0.000516374
7.0818e-05
-0.00394967
-1.58256e-07
5.15159e-07
-0.00720663
4.3133e-06
2.45799e-06
0.0012171
0.000107709
0.00278513
1.07151e-07
-1.17739e-06
-6.13853e-08
7.2175e-07
4.15082e-07
1.28922e-07
-8.20087e-07
1.86307e-08
5.84049e-07
0.000383443
-2.3659e-07
0.000138094
-4.5545e-07
6.99783e-07
3.01772e-07
1.05636e-05
3.61758e-08
-2.76004e-06
-0.000797972
3.96118e-07
4.06665e-07
-2.32555e-06
0.00159964
-7.70128e-07
3.10677e-07
7.65818e-07
2.07253e-05
-6.61641e-05
9.51718e-05
6.78403e-07
-1.74122e-08
1.03089e-06
7.47651e-07
2.92277e-05
5.87824e-06
-0.000423682
-0.00140557
1.02147e-07
2.43013e-05
-4.07448e-08
2.16501e-05
3.67058e-07
-0.00388998
-7.09553e-06
3.80368e-07
-0.00779468
-2.4656e-08
0.0076597
-2.53524e-06
8.78796e-07
-6.97603e-07
-8.2867e-08
1.58361e-08
7.3115e-07
2.61169e-07
4.3007e-07
-0.00683495
6.87839e-07
-2.79695e-07
0.000118065
-6.71468e-07
6.36596e-07
-4.641e-07
2.90812e-07
2.23052e-07
-0.000258702
1.53013e-06
2.14711e-07
-5.58775e-07
-3.31637e-07
2.99976e-07
-0.00188193
-2.36125e-05
3.14945e-07
-1.14459e-07
-4.57802e-07
1.40936e-06
-8.42e-08
3.33253e-07
-1.78487e-07
9.89449e-07
2.23272e-07
1.50414e-07
-7.16803e-06
7.62779e-07
6.34295e-05
-1.38839e-07
-1.69756e-08
2.71252e-08
1.27978e-07
-2.3216e-06
1.30099e-07
0.00879073
4.80708e-07
-1.61695e-07
-5.32412e-07
3.14828e-07
0.00246909
5.80225e-07
5.1542e-06
1.83476e-07
-1.8853e-07
9.1868e-06
6.83755e-07
4.44183e-07
3.95151e-07
7.17582e-08
-9.22485e-07
0.0433416
-5.22157e-07
-0.000977306
0.0128271
-9.4547e-08
0.000113818
-0.00672918
-6.78419e-06
-0.000873979
1.46256e-06
1.37615e-06
1.02831e-07
-0.0288407
6.64522e-07
7.3257e-07
6.27321e-07
-4.23677e-07
1.13278e-07
-0.0401129
6.61766e-08
-0.0177338
0.000183843
-3.33285e-07
4.14864e-07
0.0113384
1.06102e-07
-0.00120828
7.94e-07
0.000237904
8.82664e-06
1.99122e-05
1.05401e-07
-4.11426e-08
-4.22788e-07
-0.00581891
0.00103421
3.76588e-05
-0.0110551
-2.63864e-06
7.86788e-08
-0.00305068
-0.037837
8.93445e-08
-7.76441e-08
6.80872e-08
-3.88214e-08
0.0299493
-8.72761e-06
4.19431e-07
0.000615292
-8.92545e-08
-8.44461e-08
6.1294e-07
3.00695e-07
-3.49778e-07
-0.0130026
7.4259e-08
-0.00588558
-2.08013e-06
-1.61044e-07
4.52194e-07
8.26052e-07
1.28607e-07
7.8116e-08
-1.31217e-06
-7.63666e-07
3.69912e-06
-0.000162928
-0.0015466
3.33171e-07
-0.0024681
-1.70517e-05
3.06897e-08
-7.70435e-07
-1.78385e-07
-3.09339e-07
-0.0320671
-1.93817e-07
-8.25699e-08
-2.6359e-07
-6.80531e-06
4.91175e-07
0.000144439
2.95365e-07
-1.09969e-07
7.94804e-07
-0.00217239
0.000401389
0.000170676
0.068216
3.97887e-07
-0.00176528
-0.00298362
4.87267e-08
6.72512e-08
-4.94203e-09
-1.34229e-06
-1.11225e-06
-0.00950547
0.0373449
-1.04881e-06
-4.64793e-09
2.78879e-06
2.87186e-07
-0.00190182
1.84891e-07
-1.94255e-06
-5.70753e-07
-6.96857e-05
-9.79257e-07
-4.38771e-07
3.82845e-07
-0.000524343
1.14105e-06
0.000590297
-1.78867e-07
-5.85075e-08
2.28374e-07
3.19471e-07
0.000876098
1.08215e-06
6.3007e-07
1.38703e-06
2.28812e-07
0.00273487
2.33201e-06
-1.39553e-05
3.38217e-07
7.39229e-07
0.00230056
-8.29217e-07
-6.77594e-08
-1.7979e-07
0.00190903
-3.50815e-07
8.43713e-08
0.000211814
5.40147e-07
6.0802e-05
-7.00198e-06
0.000249523
1.81418e-07
-8.4944e-08
3.98382e-07
-1.46769e-06
-1.12127e-07
-1.0449e-07
-3.18497e-05
0.000599885
1.75207e-07
-8.25788e-08
1.48345e-07
-4.51543e-07
0.0205901
-8.74071e-08
-5.51902e-07
-1.57488e-07
6.91149e-07
4.93718e-10
0.000227451
-3.23799e-06
-1.73524e-07