/*--------------------------------*- C++ -*----------------------------------*\
| =========                 |                                                 |
| \\      /  F ield         | OpenFOAM: The Open Source CFD Toolbox           |
|  \\    /   O peration     | Version:  v2012                                 |
|   \\  /    A nd           | Website:  www.openfoam.com                      |
|    \\/     M anipulation  |                                                 |
\*---------------------------------------------------------------------------*/
FoamFile
{
    version     2.0;
    format      ascii;
    class       volScalarField;
    location    "50";
    object      nut;
}
// * * * * * * * * * * * * * * * * * * * * * * * * * * * * * * * * * * * * * //

dimensions      [0 2 -1 0 0 0 0];


internalField   nonuniform List<scalar> 
10042
(
0.00653081
0.0193172
0.00349373
0.0067096
0.00673822
0.012766
0.0382028
0.00519539
0.00669571
0.00160125
0.00618969
0.0191231
0.00116741
0.00684069
0.00679197
0.00684251
0.0078203
0.00592052
0.00588688
0.00280145
0.00110329
0.00652667
0.00670872
0.00675957
0.00671856
0.00671572
0.00173452
0.00669698
0.0109858
0.00509336
0.006977
0.00088755
0.0066856
0.00668323
0.00543462
0.00570773
0.00680488
0.00670779
0.00687115
0.00659264
0.00387054
0.00669504
0.0219721
0.00383312
0.0067126
0.00672008
0.00655637
0.00678399
0.00136122
0.0214881
0.0283431
0.00670545
0.00779087
0.00560407
0.00687687
0.00733561
0.00122296
0.00611958
0.00682137
0.00669722
0.00133996
0.0142789
0.00968469
0.00454054
0.00668633
0.00680013
0.00308243
0.00656123
0.00655509
0.00655452
0.0385611
0.00401541
0.00671787
0.00681978
0.00679244
0.0361408
0.00671229
0.00655761
0.00671371
0.00653862
0.00370659
0.00381322
0.00707771
0.00670337
0.00195353
0.00726661
0.00331814
0.0033145
0.00676794
0.0068077
0.00206137
0.00678853
0.00988688
0.00683612
0.0065434
0.00677474
0.0361637
0.00300711
0.00987297
0.00681312
0.00230697
0.00190663
0.00653054
0.00129237
0.00352905
0.00683677
0.00170363
0.00678387
0.0378981
0.00684344
0.00681977
0.0329129
0.00204012
0.00471767
0.00674446
0.00655634
0.00524904
0.0069341
0.00633163
0.00658877
0.00670161
0.0188513
0.0170541
0.00671498
0.00671999
0.00679034
0.0067992
0.00742889
3.06571e-05
0.00537045
0.00671314
0.0067743
0.00685005
0.00676496
0.0326614
0.0378074
0.00344372
0.00201653
0.00468558
0.00970281
0.000814006
0.00673808
0.0015981
0.00669173
0.00186723
0.00670401
0.00194635
0.00656639
0.00533715
0.0227614
0.00677666
0.00680353
0.00448115
0.000855991
0.006616
0.00171
0.00120704
0.00801608
0.00684722
0.0067257
0.00687105
0.00659886
0.038609
0.0067778
0.00542514
0.0231136
0.0067059
0.00124424
0.00558926
0.0066793
0.00688814
0.0055833
0.0164473
0.00668211
0.00518804
0.0157477
0.00672066
0.00670658
0.00676212
0.00655445
0.00499939
0.00278644
0.00681669
0.00660783
0.00636387
0.00318517
0.00383671
0.00670022
0.0214643
0.00689077
0.0192417
0.00118291
0.00670987
0.00299045
0.00668266
0.00678839
0.00622053
0.00676095
0.0352088
0.00670526
0.0072601
0.00329053
0.00961038
0.00667006
0.0110603
0.00683244
0.00835204
0.00095382
0.0068139
0.00676805
0.00102168
0.00664561
0.00893108
0.00966686
0.00683687
0.00654385
0.0066254
0.0128192
0.00675085
0.0045249
0.0285513
0.00687215
0.0338218
0.00654007
0.00671019
0.00354086
0.00681944
0.00364495
0.00164064
0.00591625
0.00670483
0.00681247
0.00332846
0.00702087
0.00672067
0.005286
0.00410083
0.0359121
0.00190437
0.00607808
0.0104904
0.00588822
0.00669606
0.00659855
0.00319289
0.00674752
0.0057139
0.00213197
0.00421864
0.00680178
0.00378224
0.00671212
0.00888302
0.0045497
0.00541345
0.00460245
0.00693627
0.00583064
0.0363502
0.00671711
0.00662931
0.00671018
0.00670407
0.00653784
0.00100977
0.00371477
0.00674639
0.00732355
0.00701359
0.00681883
0.0067273
0.0269949
0.00682976
0.0396303
0.00630037
0.00656614
0.00676021
0.00671313
0.00701917
0.00568428
0.00668864
0.00584662
0.00319361
0.00676863
0.00686216
0.0362587
0.00601336
0.00649859
0.00648457
0.0068524
0.00124664
0.00675118
0.00688854
0.00644724
0.00662207
0.00684295
0.00404798
0.00370007
0.00672829
0.00663082
0.00440017
0.0094225
0.00669836
0.0120103
0.00589314
0.0113121
0.00683768
0.00660383
0.00394994
0.00659463
0.006853
0.00675238
0.00676857
0.00684225
0.006821
0.00645593
0.00654196
0.00639482
0.00449404
0.00656545
0.00685723
0.0368248
0.00664413
0.00618716
0.00633069
0.0068628
0.00694868
0.00676294
0.00407908
0.00134565
0.00683257
0.00677837
0.00652448
0.00689043
0.00724668
0.00650571
0.00174669
0.00637781
0.00670929
0.0225274
0.000422312
0.00101733
0.00669965
0.0068708
0.00693746
0.00670917
0.00674764
0.00675033
0.00689093
0.0355828
0.00679703
0.00647477
0.00689579
0.00671049
0.0105744
0.00699492
0.00663304
0.00706744
0.0277873
0.00687157
0.00682906
0.00681329
0.0052217
0.00562723
0.0215574
0.00522255
0.006717
0.0069067
0.00690108
0.00970411
0.00670081
0.00708781
0.00684263
0.00671129
0.00328464
0.00684805
0.00650722
0.00731613
0.00300583
0.00370653
0.00679819
0.00812706
0.00170433
0.00675457
0.000647086
0.00658061
0.00677867
0.00658855
0.00682415
0.00650029
0.00658012
0.0187758
0.00679829
0.00706662
0.0180615
0.00547637
0.006715
0.00542818
0.00682289
0.00086789
0.00670688
0.0380978
0.00651812
0.00857724
0.0350602
0.00671235
0.00065744
0.00675334
0.00980565
0.00689342
0.011912
0.00168597
0.00603813
0.00680079
0.00433235
0.00685458
0.00152291
0.00951966
0.00651073
0.00683997
0.00681429
0.0165229
0.0067092
0.00661112
0.000634277
0.00691229
0.00183947
0.00884494
0.00671504
0.00106249
0.00690595
0.00652723
0.00155701
0.00588513
0.00673456
0.00549267
0.0256561
0.0063785
0.00682498
0.0132863
0.00669756
0.00684811
0.00333103
0.0323136
0.0361449
0.00632991
0.0043147
0.0381911
0.0048558
0.00661275
0.00669556
0.00410826
0.00421078
0.000693983
0.00670844
0.00676639
0.00676473
0.0204329
0.00658468
0.00660278
0.00697835
0.00671436
0.00665049
0.0066859
0.00681726
0.00379677
0.00652054
0.0067676
0.00685491
0.00669377
0.0384764
0.00667889
0.0337512
0.0252579
0.00800769
0.00687193
0.00626337
0.00684714
0.00533681
0.0067353
0.00672485
0.00680283
0.00845892
0.00674747
0.0042035
0.00660452
0.00673391
0.0122578
0.00679749
0.00671418
0.00675511
0.00242936
0.00670802
0.00693452
0.00453866
0.000443568
0.00669726
0.00696244
0.00645482
0.0353041
0.00679713
0.00694462
0.0058872
0.00194737
0.00111747
0.0145644
0.00686657
0.00645311
0.00169885
0.0016027
0.00251704
0.0105997
0.00669594
0.00670783
0.0068407
0.00647747
0.00671448
0.00869533
0.00671369
0.00677806
0.00669377
0.00156887
0.015739
0.00642432
0.00541929
0.0155086
0.00668961
0.00230328
0.00684421
0.00678306
0.006432
0.0368331
0.00680829
0.00656463
0.00422949
0.00678344
0.00676289
0.00336741
0.00671249
0.00356659
0.00671287
0.00165355
0.00665854
0.0361464
0.00671511
0.00600142
0.00677017
0.00668599
0.0164666
0.00669717
0.00472646
0.00100928
0.0067055
0.00689912
0.00217065
0.011492
0.00671495
0.00686564
0.00655235
0.00660618
0.00648211
0.00676695
0.00683814
0.00394212
0.00676314
0.00669925
0.019723
0.00309868
0.00676064
0.00686709
0.00670144
0.0213652
0.00558578
0.00664774
0.0111504
0.00672293
0.00451194
0.00666729
0.00670285
0.00676814
0.00675377
0.00681833
0.00692311
0.03804
0.00680574
0.00267285
0.00670833
0.00668141
0.00651401
0.00229159
0.0126906
0.00671365
0.00671108
0.00635851
0.00699149
0.00650677
0.00292703
0.00672286
0.0065238
0.00670867
0.00685481
0.00668436
0.0225225
0.00652527
0.00678127
0.00684987
0.00310831
0.00671346
0.0067663
0.00692813
0.00401346
0.00671572
0.00672485
0.00673391
0.00672513
0.00226632
0.00672252
0.00668894
0.00666692
0.0358028
0.00449861
0.0122059
0.00690174
0.00649855
0.0067447
0.00363432
0.00680855
0.00381242
0.0112358
0.0112955
0.00650276
0.00567985
0.00672139
0.00678815
0.00614295
0.00400003
0.00704767
0.000545314
0.0068081
0.00558189
0.00672061
0.00680732
0.00667882
0.0067076
0.00686287
0.00629038
0.00676988
0.00671903
0.0191459
0.00674791
0.00348283
0.00659435
0.00677366
0.00688043
0.00683946
0.00463955
0.00678691
0.00674596
0.00239648
0.00678696
0.00670011
0.0069755
0.00673384
0.00670142
0.0060704
0.0035299
0.00564985
0.00677791
0.00675798
0.00672755
0.0056159
0.00381766
0.006792
0.00663597
0.00672843
0.00566888
0.00876784
0.00660494
0.00629981
0.00684887
0.0368816
0.00453673
0.00688042
0.00193596
0.0063465
0.00857487
0.00565118
0.0067201
0.00688612
0.00679375
0.00432325
0.00671808
0.00639762
0.00683502
0.00669723
0.00686345
0.00688126
0.0348382
0.0151096
0.00650365
0.00671227
0.00663087
0.00632694
0.00670755
0.0113349
0.00690644
0.0176982
0.00674919
0.006826
0.00671513
0.00670759
0.00677055
0.00667283
0.00673655
0.00680392
0.00700486
0.00480234
0.00989463
0.00671756
0.0036051
0.00631542
0.0068331
0.00391401
0.0067064
0.00681418
0.00650961
0.00687347
0.0124367
0.00682842
0.00689291
0.00669369
0.00510561
0.00681504
0.0041308
0.00105535
0.00675792
0.0020779
0.00432124
0.00660049
0.00673116
0.000529256
0.00708453
0.00628745
0.00702854
0.00669777
0.00693566
0.00677115
0.00680528
0.00679638
0.00217811
0.00651872
0.00661466
0.0292286
0.00669567
0.00648982
0.00679882
0.00340151
0.00707944
0.00937552
0.00679462
0.00681928
0.0107729
0.00674097
0.000535867
0.00149922
0.00686676
0.0045691
0.00659415
0.00677222
0.00690494
0.00169974
0.00684375
0.00765091
0.00680598
0.00175969
0.00637427
0.00582639
0.00689353
0.00163778
0.00656518
0.00680164
0.00109665
0.00669447
0.00160239
0.00679096
0.00679792
0.00683147
0.00675277
0.00486821
0.00116576
0.00693319
0.00679416
0.00635851
0.00670523
0.00674873
0.00670775
0.00660641
0.00659861
0.00676043
0.00482916
0.00652612
0.00640792
0.00676904
0.00658001
0.00721148
0.00672989
0.00681086
0.00662579
0.0178859
0.00632662
0.00302566
0.00672528
0.001284
0.039017
0.0177662
0.00689921
0.0169086
0.0363952
0.0119234
0.0065736
0.00666427
0.00648999
0.00539261
0.0029856
0.00680346
0.0274467
0.00665389
0.00471711
0.0128898
0.00683747
0.00682664
0.00578923
0.00129759
0.00307161
0.00203955
0.0345734
0.00536479
0.00564654
0.00678769
0.006534
0.00693614
0.00652423
0.00670395
0.00681672
0.00671253
0.0030117
0.00682219
0.00668908
0.0174175
0.00676421
0.00238163
0.00690681
0.00659395
0.00670682
0.00504326
0.0068368
0.00685055
0.00674323
0.00629129
0.00670329
0.0257003
0.00663221
0.00406918
0.00682854
0.00383402
0.00670117
0.000571864
0.00631923
0.00651231
0.00675328
0.00654864
0.00685011
0.00682982
0.0117161
0.00255042
0.00673304
0.00606431
0.00680072
0.00678063
0.00795722
0.00665058
0.0067737
0.00834767
0.00670188
0.0046283
0.0049354
0.00233536
0.00290252
0.00257698
0.00700866
0.00677255
0.0331512
0.0353116
0.00671048
0.00173546
0.0377199
0.0239901
0.0257367
0.0067383
0.00677398
0.00656091
0.00682693
0.00655307
0.00469792
0.00650411
0.00660061
0.0015052
0.00690481
0.00632176
0.00659532
0.00664265
0.00673069
0.00681043
0.00954333
0.00393647
0.00671555
0.00633502
0.00414445
0.00679801
0.00691068
0.0169902
0.0033433
0.00395783
0.00651103
0.00691772
0.00678592
0.00675676
0.00307343
0.00231542
0.0067838
0.00946707
0.0132513
0.00576989
0.00331524
0.00348146
0.0233476
0.00122033
0.0149622
0.00254444
0.00678725
0.00676454
0.00361643
0.0113145
0.00684011
0.00637135
0.000843786
0.00680005
0.0034566
0.00684029
0.00679635
0.0068203
0.00131845
0.00676998
0.00671386
0.0268135
0.00679172
0.00676784
0.00184413
0.00391949
0.00748291
0.00694737
0.00689158
0.00296254
0.00125763
0.00691228
0.00111235
0.0053613
0.00671902
0.00668808
0.00624721
0.00344197
0.00672355
0.00688737
0.0067665
0.00660169
0.00683307
0.00633608
0.00680183
0.00794652
0.00679805
0.00247742
0.00667148
0.00679813
0.00543014
0.00623629
0.0365201
0.00675715
0.00690163
0.00534022
0.00644262
0.00653783
0.00677422
0.00550975
0.00672196
0.00671278
0.00446727
0.00648183
0.00566091
0.00670722
0.00254642
0.00200111
0.00770386
0.00667008
0.00460567
0.00352522
0.0064774
0.00674048
0.0067353
0.000815052
0.00670451
0.00671269
0.00372587
0.00689632
0.00292085
0.00670844
0.00674865
0.00667408
0.00253115
0.00689841
0.00651944
0.029091
0.00672767
0.00685207
0.00303226
0.00681432
0.00325062
0.00692558
0.00454771
0.00523616
0.00691081
0.0107446
0.00277684
0.00680797
0.0270148
0.00678183
0.00678133
0.00652937
0.00670854
0.00708184
0.00313155
0.00207305
0.00086007
0.0142401
0.00626226
0.00302536
0.00372152
0.00488826
0.00360643
0.0066861
0.00314637
0.00678767
0.00682304
0.0052923
0.0194957
0.000849541
0.00676008
0.00553477
0.00675385
0.0147323
0.0069139
0.00266473
0.00683808
0.0064801
0.0081795
0.00672653
0.00650744
0.0181236
0.000665752
0.00677141
0.00667201
0.00532007
0.00690688
0.00653918
0.0138931
0.00670024
0.006699
0.00674016
0.00210876
0.00670668
0.00494504
0.00685136
0.00674246
0.00690768
0.00687586
0.00672485
0.00369815
0.00530513
0.00665987
0.00295253
0.00525819
0.000809954
0.00205068
0.00336202
0.006703
0.00066293
0.00216253
0.00664413
0.00109481
0.00473639
0.00679337
0.00670972
0.00674071
0.00448533
0.0135847
0.00671475
0.00514611
0.00680793
0.00682322
0.0200482
0.0068265
0.00670482
0.00675923
0.0067157
0.00653836
0.00634771
0.00701757
0.00678819
0.00671304
0.00671454
0.00671575
0.000915849
0.0064924
0.00268664
0.00650716
0.00622034
0.00669474
0.00601536
0.00665531
0.00309468
0.00685606
0.00428084
0.00668714
0.00990676
0.00260902
0.00193629
0.00677077
0.00649509
0.00609524
0.00504066
0.00689047
0.00616138
0.00679429
0.00536784
0.00516206
0.00688084
0.0203295
0.00411535
0.00477537
0.0364593
0.0239382
0.00432017
0.00671322
0.00672575
0.00617346
0.00124244
0.00671341
0.0113904
0.00677715
0.00671727
0.00670013
0.0066134
0.00226451
0.00262956
0.0047244
0.00145461
0.00527061
0.00675601
0.00671758
0.00669488
0.0046503
0.00560811
0.00151347
0.00187403
0.00625383
0.00554322
0.00118532
0.00502656
0.00132355
0.00672261
0.00361332
0.00854018
0.00689189
0.00333857
0.00667561
0.0013975
0.00680581
0.00680942
0.00506379
0.00640672
0.00672207
0.0065761
0.00670478
0.00694478
0.00693731
0.039205
0.00421054
0.0067179
0.00680193
0.00664166
0.00117516
0.00664962
0.00674687
0.00684228
0.00651549
0.00266742
0.00488009
0.00223102
0.00491465
0.00691359
0.00423512
0.00685945
0.00677088
0.0131129
0.000965524
0.00572336
0.0262934
0.00648553
0.0059418
0.00679143
0.00672512
0.00688144
0.00687648
0.00229621
0.0030915
0.00693348
0.00695132
0.00633593
0.00450584
0.00261499
0.000828044
0.0322156
0.00609471
0.0067069
0.00651706
0.00488687
0.00669456
0.0031123
0.00627125
0.00183873
0.00396585
0.00554476
0.00669985
0.0338704
0.00619846
0.00678235
0.03813
0.00708551
0.00675766
0.00069002
0.00675995
0.00684591
0.000739691
0.00240968
0.00671106
0.0052822
0.0067054
0.0068759
0.00554946
0.00208598
0.00762708
0.00676115
0.00311316
0.00672226
0.00672383
0.00131269
0.00677405
0.00389581
0.00573108
0.00472127
0.0123323
0.00172318
0.00358921
0.00663077
0.00401527
0.000653414
0.00312809
0.00285878
0.00672023
0.00674768
0.0263573
0.00259319
0.00335873
0.00132719
0.00671471
0.00439572
0.00665347
0.0328223
0.00670432
0.0171434
0.00683076
0.00670079
0.00669582
0.00416957
0.00670212
0.00668494
0.00668677
0.00672388
0.00671965
0.00335301
0.00434223
0.00657467
0.00334261
0.00678329
0.00670352
0.00670034
0.00455374
0.0257559
0.00632827
0.00679078
0.00670218
0.00667561
0.00222138
0.00625435
0.0066845
0.00526901
0.00787098
0.00390997
0.00656955
0.00672955
0.00671346
0.00558397
0.00670718
0.00504571
0.0067275
0.00671889
0.00688886
0.00689805
0.00657856
0.00299727
0.0365964
0.0065165
0.00670523
0.00679765
0.0360457
0.00678507
0.00156424
0.00700136
0.00673529
0.00677848
0.00671316
0.0193675
0.00679068
0.0105889
0.00622053
0.000617438
0.00675584
0.00464202
0.00152056
0.00350658
0.00107739
0.00692118
0.00126986
0.00669164
0.00501482
0.0310743
0.0046438
0.00677968
0.00677487
0.00395146
0.00644194
0.00066564
0.00704964
0.00627567
0.0067451
0.00530561
0.00405308
0.00684282
0.000712198
0.00667791
0.00684678
0.00670313
0.00679168
0.00325673
0.00587354
0.00416158
0.00670089
0.0352497
0.00690755
0.0154279
0.0052445
0.00671877
0.00221315
0.00334983
0.00670663
0.00221947
0.00113555
0.00686811
0.00489829
0.00670217
0.0226806
0.00649794
0.0123765
0.0283382
0.000755633
0.00678768
0.00629828
0.00499698
0.00671968
0.0067158
0.00667448
0.0371832
0.00678836
0.00117288
0.0052911
0.0359516
0.00118396
0.00657348
0.00670001
0.0141578
0.00670237
0.00521921
0.0350267
0.0346194
0.0218802
0.00608526
0.0182946
0.00669171
0.00685359
0.00670414
0.00157274
0.00690893
0.005082
0.00643821
0.038898
0.00263592
0.00668728
0.00654295
0.00678072
0.00668337
0.00624716
0.00355759
0.0358522
0.00678801
0.0070659
0.00321503
0.00690958
0.00605986
0.00673602
0.00449964
0.00653997
0.00537116
0.00650439
0.00536298
0.00293157
0.0065856
0.00637201
0.0068383
0.00555832
0.00690765
0.0314223
0.00670283
0.00639899
0.00680928
0.00647038
0.00683879
0.00279539
0.00168534
0.0321585
0.00359687
0.00349919
0.00650062
0.00675041
0.0134728
0.00612833
0.00616897
0.00486341
0.0116768
0.00355441
0.00577234
0.000925203
0.0137275
0.00439153
0.00113846
0.00187278
0.00692663
0.00484858
0.00708379
0.00670341
0.00674452
0.00671595
0.00677605
0.00890201
0.00678185
0.0061392
0.00405429
0.0233349
0.00590678
0.00526629
0.00654759
0.00680211
0.00502853
0.00633301
0.00235262
0.00611593
0.0131727
0.00717931
0.00672245
0.00128402
0.00242385
0.00403936
0.00313919
0.00595105
0.00175008
0.00057001
0.00684601
0.00685506
0.0192321
0.00636223
0.000605577
0.00511648
0.00670364
0.00576862
0.00654027
0.0181736
0.00504626
0.0066928
0.00670247
0.00595378
0.0028322
0.00638211
0.0068005
0.00106434
0.00445681
0.00686763
0.0052
0.00620852
0.00124928
0.00695997
0.00124939
0.0376745
0.006709
0.00680759
0.00672016
0.0276951
0.00120369
0.00106351
0.00645503
0.00413361
0.00680198
0.00390013
0.00121881
0.00457613
0.00680293
0.00584853
0.00692415
0.00087457
0.00398933
0.00138805
0.00672109
0.0370115
0.00689056
0.000591312
0.00136113
0.00669915
0.00690777
0.00444159
0.00695593
0.00226131
0.0347401
0.00680163
0.00669655
0.0163385
0.00672536
0.00289725
0.00681003
0.00275136
0.00645862
0.00428813
0.00399844
0.00670794
0.00671175
0.00674912
0.00276084
0.00665801
0.00687625
0.00670324
0.00670396
0.00327521
0.00686095
0.00682515
0.00684621
0.02731
0.00676464
0.0012047
0.00678635
0.00675773
0.0302062
0.00670864
0.00171138
0.00646598
0.00683148
0.00514965
0.00093139
0.00638929
0.00709129
0.00388885
0.00152359
0.00693775
0.00336092
0.00676764
0.0236222
0.00679856
0.00588142
0.00670355
0.0194473
0.0212
0.00933386
0.00679705
0.00295128
0.00670162
0.00629441
0.0035566
0.00676081
0.00672649
0.000750437
0.00694672
0.00382954
0.00372425
0.00678359
0.00127505
0.00673818
0.00382524
0.00600433
0.00672163
0.0064334
0.00865817
0.0151726
0.00679468
0.00330016
0.00589928
0.00556251
0.00181664
0.00274203
0.0013867
0.00340269
0.00639336
0.00624249
0.00445429
0.000362
0.00671503
0.00334432
0.00678238
0.00576231
0.0059476
0.00670107
0.00523232
0.00656045
0.00541009
0.000617595
0.00667303
0.00658082
0.00689279
0.00168187
0.00510387
0.0069451
0.00653149
0.00686614
0.0363801
0.00539479
0.00288849
0.00687973
0.00669868
0.00683869
0.00679121
0.00638823
0.00670453
0.0065634
0.00677227
0.00682346
0.00270155
0.00685976
0.000276082
0.00678891
0.00522054
0.0279412
0.00347387
0.0027936
0.00615558
0.00571392
0.0187713
0.00672078
0.00670013
0.00656237
0.00681914
0.00673881
0.00622065
0.00612603
0.00672522
0.0034444
0.00133647
0.0183499
0.00621827
0.00556756
0.0019702
0.00670245
0.00349687
0.00195482
0.0017453
0.0037857
0.00450783
0.00171127
0.0065987
0.00636713
0.00669758
0.0395395
0.00622339
0.00670564
0.00191632
0.00616068
0.00676535
0.00447484
0.0067534
0.0067826
0.00671691
0.00668821
0.00370535
0.00679987
0.00491958
0.00117236
0.00680005
0.00670207
0.00672749
0.00355866
0.00660675
0.00670112
0.0272982
0.000510443
0.00546861
0.00101118
0.00679878
0.00671195
0.00669778
0.00682551
0.00653546
0.00679961
0.0068345
0.00389039
0.00683614
0.000692592
0.00341288
0.00308677
0.00127368
0.00674311
0.0252057
0.00662958
0.00655022
0.00141118
0.00670351
0.0108707
0.00670944
0.0024492
0.00373981
0.00669571
0.0354804
0.00179327
0.00680827
0.00680443
0.00677831
0.0234384
0.00679594
0.00497712
0.0054688
0.00672098
0.00197504
0.00116971
0.00308968
0.00685672
0.00408921
0.00680522
0.00654053
0.0381321
0.00310252
0.00545196
0.00665448
0.00828284
0.00342095
0.0272304
0.00678387
0.000545558
0.00376221
0.000672835
0.00673161
0.00691105
0.00238819
0.00231598
0.00627861
0.00656103
0.00707093
0.00604279
0.00670021
0.00688104
0.0067792
0.002886
0.00846945
0.00404848
0.036727
0.00122366
0.00369729
0.00373381
0.00703384
0.00670385
0.00670363
0.00531197
0.0069052
0.00461553
0.00672067
0.0029508
0.0062018
0.00683156
0.00655442
0.00671406
0.00671174
0.0102129
0.00679338
0.0279498
0.00691844
0.00277982
0.00682412
0.00677107
0.00667102
0.000721797
0.0068326
0.0376073
0.00229474
0.00617663
0.00210751
0.00677873
0.00671777
0.00670212
0.00674489
0.00547941
0.00541999
0.00576094
0.0032752
0.00678851
0.00460036
0.0397423
0.0297527
0.00460675
0.00654033
0.00302315
0.00336951
0.00671006
0.00678076
0.00273896
0.00289991
0.0374974
0.00601963
0.0369515
0.00677314
0.00670733
0.0063154
0.00175781
0.00613768
0.00684986
0.00679535
0.00654129
0.00372596
0.00352935
0.00694678
0.00406327
0.00497485
0.00482239
0.00402234
0.0067913
0.00670183
0.0067388
0.00631332
0.00670086
0.00623028
0.00409928
0.0397647
0.00674324
0.00675181
0.00667128
0.00682258
0.00684315
0.00219634
0.00997047
0.00612786
0.0386124
0.00506368
0.0125751
0.00697431
0.00470216
0.00681916
0.00671227
0.00671359
0.00656548
0.00683819
0.00381436
0.0041222
0.00665368
0.00670271
0.00623706
0.00687474
0.0047309
0.00225084
0.00538388
0.0050365
0.00681083
0.000538916
0.00671249
0.00675919
0.00671605
0.00686789
0.00282713
0.00676584
0.00648503
0.0186109
0.00419501
0.000850575
0.0116636
0.0300556
0.00622568
0.00672084
0.00233618
0.00281229
0.00446515
0.00680664
0.00681876
0.00657172
0.00681493
0.00682765
0.00329713
0.00673894
0.00678065
0.00796627
0.00653823
0.00414948
0.00672129
0.0066966
0.0021551
0.0259798
0.00682279
0.0134527
0.00690179
0.00283479
0.000975585
0.00670568
0.00398275
0.00671219
0.00658369
0.00682934
0.00676092
0.0166999
0.00301533
0.0308701
0.0237228
0.00515269
0.00404407
0.00437354
0.0067253
0.00686984
0.0298532
0.00672177
0.00683251
0.00279886
0.00679355
0.00280752
0.00680632
0.00391693
0.0067748
0.0066788
0.0189668
0.00689457
0.00671188
0.00295316
0.00335127
0.00377674
0.0040974
0.00531297
0.00982982
0.00686982
0.00672
0.00658805
0.000890762
0.00674926
0.00670123
0.00669208
0.00697429
0.00297782
0.00671046
0.00666535
0.00705848
0.00663487
0.00677362
0.00680629
0.00296187
0.0196445
0.00707298
0.00565567
0.00671651
0.00247686
0.00377622
0.00685759
0.00419904
0.00320377
0.00678981
0.00237244
0.00305485
0.00194981
0.00131005
0.00671619
0.00671068
0.00391576
0.00311816
0.00317253
0.00189667
0.00316846
0.00395512
0.00421715
0.00464932
0.0395002
0.0067886
0.00389498
0.00119428
0.00239908
0.00678345
0.000892712
0.00683111
0.00349936
0.00521507
0.00480651
0.00709032
0.00292034
0.00226617
0.00685914
0.00683845
0.00382666
0.00307811
0.00321729
0.00670054
0.00678581
0.00675806
0.00208911
0.00689697
0.00103002
0.00411243
0.00602929
0.00223542
0.00670903
0.0104734
0.00682703
0.00677067
0.00480108
0.00678276
0.00301163
0.00655183
0.0086192
0.000599796
0.000946551
0.00682984
0.00425115
0.00331202
0.00170015
0.00376253
0.0101652
0.00345188
0.004064
0.00670689
0.00681651
0.00456597
0.00678889
0.0068614
0.00675402
0.00603757
0.00259752
0.0069581
0.00670484
0.00622458
0.0065009
0.00648745
0.0057927
0.00403752
0.00301471
0.00689164
0.0135481
0.00665819
0.0068479
0.0037066
0.00873096
0.0057509
0.00680317
0.00687984
0.00261871
0.0107096
0.00670549
0.00683229
0.013551
0.00671266
0.00671025
0.00689258
0.00662065
0.0073721
0.00683074
0.00116398
0.00683543
0.00230383
0.00671805
0.0055777
0.00487927
0.0105933
0.00879147
0.00663536
0.00708914
0.00686043
0.00676963
0.00207422
0.00383132
0.0104637
0.00486646
0.00657755
0.00390775
0.0024205
0.00679815
0.00445752
0.00671291
0.00138993
0.00277104
0.00231173
0.00675813
0.00671971
0.00687559
0.00839637
0.00686805
0.00691048
0.00669905
0.00295173
0.00396044
0.00673878
0.00677568
0.00671139
0.00688573
0.00624529
0.00685671
0.00682495
0.00673535
0.00686574
0.00470147
0.00661365
0.00503903
0.00391026
0.00685932
0.00708777
0.00314342
0.00669823
0.00687867
0.00174124
0.00681661
0.00682927
0.000828209
0.0390101
0.00251067
0.00688242
0.00674464
0.0030135
0.00561757
0.0018155
0.00681645
0.00669873
0.0036848
0.00684365
0.00543258
0.00464109
0.0055363
0.0186917
0.00674669
0.00637251
0.00671535
0.00233425
0.00680821
0.00836221
0.00212457
0.00680101
0.00512529
0.00672302
0.00278906
0.00102439
0.00673506
0.00683142
0.00673341
0.00670398
0.00676125
0.0065155
0.00646957
0.0101723
0.00682339
0.00669481
0.000509208
0.00670159
0.00688579
0.00589126
0.00671086
0.00677943
0.000110966
0.00348748
0.0065875
0.00661584
0.0044512
0.00678309
0.0195175
0.0046038
0.00679505
0.00672108
0.00683468
0.00676109
0.00678062
0.00518859
0.00416575
0.00149352
0.00658171
0.00351362
0.00188416
0.00683029
0.00491007
0.00671834
0.00676987
0.00670752
0.00670955
0.00671186
0.00676677
0.00551101
0.00618088
0.00669783
0.00682854
0.00688864
0.00752206
0.00385059
0.00136955
0.00675619
0.00570699
0.00674323
0.00478043
0.00587392
0.00643573
0.0067119
0.00676563
0.0272866
0.00678629
0.0010983
0.00645316
0.00670915
0.00427095
0.0105248
0.00152377
0.00186469
0.0067697
0.00385481
0.00670762
0.0373431
0.00682406
0.00512392
0.00286961
0.00658253
0.0067245
0.0204204
0.00669976
0.0315884
0.00287277
0.00659119
0.00680175
0.00320527
0.00671186
0.00314356
0.00672959
0.00273483
0.00291887
0.00552467
0.00671322
0.00671553
0.00588726
0.00995706
0.0042391
0.00519862
0.0143569
0.00689179
0.00676082
0.00161402
0.0095151
0.006713
0.00661691
0.00708703
0.00670738
0.0093964
0.00343915
0.00669651
0.00731196
0.00671394
0.00673023
0.00672858
0.00675852
0.00671251
0.0264857
0.00672549
0.00972472
0.00681917
0.00618413
0.00673636
0.00688479
0.00671011
0.00675294
0.0068779
0.0067012
0.00415998
0.00575542
0.00422177
0.0045453
0.00226707
0.00447315
0.00676739
0.00669599
0.00671191
0.00671161
0.00355884
0.00633472
0.00688866
0.00361672
0.00330958
0.00450484
0.00168471
0.00689684
0.00670673
0.00683878
0.00648745
0.00935127
0.00279242
0.0106926
0.00706154
0.00280649
0.00819205
0.00678209
0.00671151
0.00670134
0.00135432
0.00127892
0.000813487
0.0239977
0.00122662
0.00670217
0.00341347
0.00671114
0.00675352
0.00681035
0.00679955
0.00663566
0.00412196
0.00145773
0.00679016
0.00704748
0.00820688
0.00284253
0.00242623
0.00670674
0.00670639
0.00678507
0.00676265
0.0084618
0.00676505
0.00687311
0.00272161
0.00658209
0.0186315
0.00353625
0.00346599
0.00679263
0.00685176
0.00734001
0.00656899
0.00670988
0.00671223
0.00359098
0.00671233
0.0067668
0.00474913
0.00698738
0.00415233
0.00169939
0.00282228
0.00124431
0.00673421
0.00679363
0.00152617
0.00670729
0.00672489
0.00372474
0.00296605
0.00653664
0.00675289
0.00670184
0.00480597
0.0324857
0.0067459
0.00560646
0.00677887
0.00673062
0.00671767
0.00807439
0.00690584
0.0067178
0.00661339
0.00679259
0.00669786
0.00293548
0.00163762
0.00685129
0.00679475
0.00675973
0.00678675
0.00673946
0.00529794
0.00671639
0.0052218
0.00612215
0.00670688
0.00670503
0.0140372
0.00669812
0.00673905
0.00670606
0.00627523
0.00707912
0.00646563
0.00671538
0.00658169
0.00678769
0.0025307
0.00673611
0.00684891
0.00122423
0.00504261
0.00589105
0.00654971
0.00597335
0.0066885
0.00629108
0.00670367
0.00658101
0.00670652
0.00677747
0.0067622
0.00358465
0.00259005
0.00625368
0.000556703
0.00561952
0.0014576
0.00675567
0.0184291
0.00623157
0.00692406
0.00517031
0.00350739
0.00388919
0.00671431
0.00443278
0.00677704
0.0067048
0.00657951
0.0186446
0.00545743
0.00640066
0.0199434
0.0333657
0.00835388
0.00671316
0.00274543
0.000827082
0.00626784
0.00668349
0.00688506
0.00679957
0.00110363
0.0184434
0.00671893
0.0100228
0.00402677
0.00731958
0.00670359
0.00675235
0.0016453
0.00169195
0.00248283
0.0114284
0.00621737
0.00670386
0.00680203
0.00603217
0.00734584
0.00316381
0.00669973
0.00687689
0.00669957
0.00670402
0.00670557
0.0051151
0.00764958
0.00894947
0.007053
0.00848793
0.0081068
0.00671255
0.00680723
0.00673825
0.00677391
0.002911
0.00671929
0.00679491
0.00675842
0.00670092
0.00211132
0.0126512
0.00633299
0.00672755
0.00671594
0.0036927
0.00554823
0.00365669
0.0059552
0.00412264
0.00429425
0.00675912
0.00167118
0.0059128
0.00671622
0.0106414
0.00681307
0.00678924
0.00675854
0.0182735
0.00670158
0.00669951
0.00680817
0.00687802
0.00676727
0.00673973
0.0107778
0.0180163
0.0198464
0.00605663
0.00675691
0.0127941
0.00672407
0.00676873
0.00670081
0.00635524
0.00671216
0.00376333
0.00669773
0.00672955
0.00249891
0.00565704
0.00672526
0.0036801
0.00450317
0.0202172
0.00671269
0.00665221
0.00669934
0.0154576
0.00681135
0.00492817
0.00298474
0.00674696
0.00673196
0.00534568
0.00682579
0.00308558
0.00672215
0.00676284
0.00671471
0.00306471
0.0059582
0.00675492
0.00671898
0.00673752
0.00626719
0.000526429
0.00629371
0.0068924
0.00616886
0.00669785
0.00673016
0.00808746
0.0178669
0.00671222
0.0067828
0.00627356
0.00238372
0.0067008
0.0067472
0.00669992
0.00677051
0.00672212
0.00668616
0.00691515
0.00708813
0.00160382
0.00541382
0.00678188
0.0067123
0.00687152
0.00584
0.00705184
0.00416211
0.00672015
0.0056114
0.0067139
0.00646671
0.00441531
0.00676772
0.00906518
0.00548139
0.00680642
0.00686573
0.0061971
0.00501061
0.00382439
0.00671546
0.00670617
0.00352381
0.00671579
0.00669932
0.00688389
0.00228991
0.0067026
0.004791
0.00790987
0.00670055
0.00689999
0.00686801
0.00674737
0.00673393
0.00670146
0.00671335
0.00227174
0.00434546
0.00689013
0.00669854
0.00660671
0.0067217
0.00672733
0.00673122
0.00411594
0.00572131
0.00622769
0.00679523
0.0067106
0.00177381
0.00670036
0.0065736
0.00687729
0.0114176
0.00671318
0.00593351
0.00693885
0.00622362
0.0066995
0.00714149
0.00973381
0.00464632
0.00658457
0.00673461
0.00634906
0.00676863
0.00222683
0.00670957
0.00692244
0.00693652
0.00674004
0.00626841
0.00610006
0.00613212
0.00263151
0.00689042
0.00669982
0.00669962
0.00433883
0.00393735
0.00670268
0.00672679
0.00667093
0.00675937
0.00673297
0.00912939
0.0067103
0.00668799
0.00681508
0.00691904
0.00679679
0.00163924
0.00691692
0.00669893
0.0066924