/*--------------------------------*- C++ -*----------------------------------*\
| =========                 |                                                 |
| \\      /  F ield         | OpenFOAM: The Open Source CFD Toolbox           |
|  \\    /   O peration     | Version:  v2012                                 |
|   \\  /    A nd           | Website:  www.openfoam.com                      |
|    \\/     M anipulation  |                                                 |
\*---------------------------------------------------------------------------*/
FoamFile
{
    version     2.0;
    format      ascii;
    class       pointVectorField;
    location    "50";
    object      pointDisplacement;
}
// * * * * * * * * * * * * * * * * * * * * * * * * * * * * * * * * * * * * * //

dimensions      [0 1 0 0 0 0 0];


internalField   nonuniform List<vector> 
10400
(
(0 0 0)
(0 0 0)
(0 0 0)
(0 0 0)
(0 0 0)
(0 0 0)
(0 0 0)
(0 0 0)
(0 0 0)
(0 0 0)
(0 0 0)
(0 0 0)
(0 0 0)
(0 0 0)
(0 0 0)
(0 0 0)
(0 0 0)
(0 0 0)
(0 0 0)
(0 0 0)
(0 0 0)
(0 0 0)
(0 0 0)
(0 0 0)
(0 0 0)
(0 0 0)
(0 0 0)
(0 0 0)
(0 0 0)
(0 0 0)
(0 0 0)
(0 0 0)
(0 0 0)
(0 0 0)
(0 0 0)
(0 0 0)
(0 0 0)
(0 0 0)
(0 0 0)
(0 0 0)
(0 0 0)
(0 0 0)
(0 0 0)
(0 0 0)
(0 0 0)
(0 0 0)
(0 0 0)
(0 0 0)
(0 0 0)
(0 0 0)
(0 0 0)
(0 0 0)
(0 0 0)
(0 0 0)
(0 0 0)
(0 0 0)
(0 0 0)
(0 0 0)
(0 0 0)
(0 0 0)
(0 0 0)
(0 0 0)
(0 0 0)
(0 0 0)
(0 0 0)
(0 0 0)
(0 0 0)
(0 0 0)
(0 0 0)
(0 0 0)
(0 0 0)
(0 0 0)
(0 0 0)
(0 0 0)
(0 0 0)
(0 0 0)
(0 0 0)
(0 0 0)
(0 0 0)
(0 0 0)
(0 0 0)
(0 0 0)
(0 0 0)
(0 0 0)
(0 0 0)
(0 0 0)
(0 0 0)
(0 0 0)
(0 0 0)
(0 0 0)
(0 0 0)
(0 0 0)
(0 0 0)
(0 0 0)
(0 0 0)
(0 0 0)
(0 0 0)
(0 0 0)
(0 0 0)
(0 0 0)
(0 0 0)
(0 0 0)
(0 0 0)
(0 0 0)
(0 0 0)
(0 0 0)
(0 0 0)
(0 0 0)
(0 0 0)
(0 0 0)
(0 0 0)
(0 0 0)
(0 0 0)
(0 0 0)
(0 0 0)
(0 0 0)
(0 0 0)
(0 0 0)
(0 0 0)
(0 0 0)
(0 0 0)
(0 0 0)
(0 0 0)
(0 0 0)
(0 0 0)
(0 0 0)
(0 0 0)
(0 0 0)
(0 0 0)
(0 0 0)
(0 0 0)
(0 0 0)
(0 0 0)
(0 0 0)
(0 0 0)
(0 0 0)
(0 0 0)
(0 0 0)
(0 0 0)
(0 0 0)
(0 0 0)
(0 0 0)
(0 0 0)
(0 0 0)
(0 0 0)
(0 0 0)
(0 0 0)
(0 0 0)
(0 0 0)
(0 0 0)
(0 0 0)
(0 0 0)
(0 0 0)
(0 0 0)
(0 0 0)
(0 0 0)
(0 0 0)
(0 0 0)
(0 0 0)
(0 0 0)
(0 0 0)
(0 0 0)
(0 0 0)
(0 0 0)
(0 0 0)
(0 0 0)
(0 0 0)
(0 0 0)
(0 0 0)
(0 0 0)
(0 0 0)
(0 0 0)
(0 0 0)
(0 0 0)
(0 0 0)
(0 0 0)
(0 0 0)
(0 0 0)
(0 0 0)
(0 0 0)
(0 0 0)
(0 0 0)
(0 0 0)
(0 0 0)
(0 0 0)
(0 0 0)
(0 0 0)
(0 0 0)
(0 0 0)
(0 0 0)
(0 0 0)
(0 0 0)
(0 0 0)
(0 0 0)
(0 0 0)
(0 0 0)
(0 0 0)
(0 0 0)
(0 0 0)
(0 0 0)
(0 0 0)
(0 0 0)
(0 0 0)
(0 0 0)
(0 0 0)
(0 0 0)
(0 0 0)
(0 0 0)
(0 0 0)
(0 0 0)
(0 0 0)
(0 0 0)
(0 0 0)
(0 0 0)
(0 0 0)
(0 0 0)
(0 0 0)
(0 0 0)
(0 0 0)
(0 0 0)
(0 0 0)
(0 0 0)
(0 0 0)
(0 0 0)
(0 0 0)
(0 0 0)
(0 0 0)
(0 0 0)
(0 0 0)
(0 0 0)
(0 0 0)
(0 0 0)
(0 0 0)
(0 0 0)
(0 0 0)
(0 0 0)
(0 0 0)
(0 0 0)
(0 0 0)
(0 0 0)
(0 0 0)
(0 0 0)
(0 0 0)
(0 0 0)
(0 0 0)
(0 0 0)
(0 0 0)
(0 0 0)
(0 0 0)
(0 0 0)
(0 0 0)
(0 0 0)
(0 0 0)
(0 0 0)
(0 0 0)
(0 0 0)
(0 0 0)
(0 0 0)
(0 6.41163e-05 0)
(0 6.29495e-05 0)
(0 5.27724e-05 0)
(0 4.34945e-05 0)
(0 5.49869e-05 0)
(0 3.10971e-05 0)
(0 5.13144e-05 0)
(0 5.67844e-05 0)
(0 3.75208e-05 0)
(0 4.27049e-05 0)
(0 3.42034e-05 0)
(0 2.53838e-05 0)
(0 2.92564e-05 0)
(0 2.72479e-05 0)
(0 2.05292e-05 0)
(0 1.89006e-05 0)
(0 1.59608e-05 0)
(0 1.51544e-05 0)
(0 5.47222e-05 0)
(0 4.97462e-05 0)
(0 9.66029e-06 0)
(0 1.05124e-05 0)
(0 4.55764e-05 0)
(0 3.12135e-05 0)
(0 5.8042e-05 0)
(0 6.25196e-05 0)
(0 6.16025e-05 0)
(0 5.56624e-05 0)
(0 3.21923e-05 0)
(0 4.09462e-05 0)
(0 2.66896e-05 0)
(0 3.24734e-05 0)
(0 2.58168e-05 0)
(0 4.94241e-06 0)
(0 5.3204e-06 0)
(0 6.0687e-05 0)
(0 6.29457e-05 0)
(0 6.74134e-05 0)
(0 5.31983e-05 0)
(0 5.30664e-05 0)
(0 5.46592e-05 0)
(0 5.18239e-05 0)
(0 4.76031e-05 0)
(0 1.15421e-05 0)
(0 2.67983e-05 0)
(0 4.07314e-05 0)
(0 3.16123e-05 0)
(0 1.27935e-05 0)
(0 1.70834e-05 0)
(0 1.85864e-05 0)
(0 3.48978e-05 0)
(0 2.13592e-06 0)
(0 0.000757095 0)
(0 0.000782599 0)
(0 0.00074499 0)
(0 0.000770314 0)
(0 0.000733294 0)
(0 0.000759266 0)
(0 0.000721655 0)
(0 0.000746613 0)
(0 0.000709732 0)
(0 0.000734218 0)
(0 0.000698644 0)
(0 0.000723558 0)
(0 0.000688777 0)
(0 0.000713354 0)
(0 0.000679796 0)
(0 0.000704518 0)
(0 0.000671285 0)
(0 0.000696643 0)
(0 0.000663635 0)
(0 0.000693877 0)
(0 0.000655736 0)
(0 0.000682144 0)
(0 0.000647851 0)
(0 0.00133647 0)
(0 0.00135075 0)
(0 0.00137103 0)
(0 0.00136407 0)
(0 0.00138387 0)
(0 0.00140124 0)
(0 0.0013951 0)
(0 0.00141227 0)
(0 0.00142806 0)
(0 0.00142252 0)
(0 0.00143802 0)
(0 0.00144251 0)
(0 0.0014522 0)
(0 0.00144647 0)
(0 0.00145997 0)
(0 0.00146457 0)
(0 0.00147183 0)
(0 0.00148192 0)
(0 0.00147757 0)
(0 0.00148732 0)
(0 0.00149023 0)
(0 0.0014951 0)
(0 0.00149073 0)
(0 0.00149779 0)
(0 0.00150128 0)
(0 0.00150362 0)
(0 0.00149913 0)
(0 0.00150445 0)
(0 0.00150783 0)
(0 0.00150831 0)
(0 0.00151061 0)
(0 0.00150773 0)
(0 0.00150999 0)
(0 0.00151142 0)
(0 0.00151065 0)
(0 0.00150855 0)
(0 0.00150872 0)
(0 0.00150939 0)
(0 0.0015077 0)
(0 0.00150613 0)
(0 0.0015049 0)
(0 0.00150571 0)
(0 0.00150267 0)
(0 0.000673656 0)
(0 0.000641641 0)
(0 0.00149854 0)
(0 0.0014976 0)
(0 0.00149309 0)
(0 0.0014865 0)
(0 0.00148644 0)
(0 0.00147965 0)
(0 0.00147823 0)
(0 0.00147113 0)
(0 0.00147082 0)
(0 0.00146187 0)
(0 0.00146058 0)
(0 0.00145121 0)
(0 0.00143924 0)
(0 0.00143954 0)
(0 0.00142866 0)
(0 0.00141634 0)
(0 0.0014162 0)
(0 0.00140447 0)
(0 0.00140245 0)
(0 0.00139089 0)
(0 0.00139143 0)
(0 0.00137702 0)
(0 0.00137474 0)
(0 0.00136053 0)
(0 0.000667841 0)
(0 0.000636238 0)
(0 0.00136104 0)
(0 0.00134455 0)
(0 0.00134286 0)
(0 0.00132701 0)
(0 0.00130855 0)
(0 0.00130985 0)
(0 0.00129192 0)
(0 0.00128941 0)
(0 0.00127331 0)
(0 0.00127449 0)
(0 0.00125624 0)
(0 0.00125383 0)
(0 0.00123702 0)
(0 0.00123798 0)
(0 0.0012188 0)
(0 0.00121688 0)
(0 0.00119869 0)
(0 0.00117771 0)
(0 0.00117979 0)
(0 0.00115894 0)
(0 0.00113729 0)
(0 0.00113921 0)
(0 0.0011176 0)
(0 0.00111503 0)
(0 0.000664141 0)
(0 0.000631398 0)
(0 0.00111853 0)
(0 0.0010969 0)
(0 0.00109663 0)
(0 0.00107533 0)
(0 0.000658611 0)
(0 0.000626355 0)
(0 0.00059963 0)
(0 0.000595507 0)
(0 0.000569178 0)
(0 0.00056636 0)
(0 0.000540002 0)
(0 0.000539001 0)
(0 0.000512395 0)
(0 0.000513711 0)
(0 0.000486685 0)
(0 0.00048629 0)
(0 0.000462527 0)
(0 0.00046329 0)
(0 0.000440177 0)
(0 0.000441286 0)
(0 0.000419009 0)
(0 0.000421337 0)
(0 0.000398637 0)
(0 0.000403115 0)
(0 0.00037949 0)
(0 0.000384708 0)
(0 0.000361683 0)
(0 0.000366337 0)
(0 0.000345038 0)
(0 0.00035013 0)
(0 0.000330116 0)
(0 0.00107391 0)
(0 0.000335162 0)
(0 0.000316495 0)
(0 0.00105305 0)
(0 0.000321858 0)
(0 0.000303935 0)
(0 0.000309856 0)
(0 0.00029187 0)
(0 0.00105043 0)
(0 0.000652581 0)
(0 0.000438573 0)
(0 0.000484879 0)
(0 0.00102988 0)
(0 0.00102609 0)
(0 0.00100561 0)
(0 0.00100092 0)
(0 0.0010204 0)
(0 0.000371121 0)
(0 0.000994195 0)
(0 0.00101267 0)
(0 0.000975101 0)
(0 0.000967712 0)
(0 0.000948895 0)
(0 0.000339767 0)
(0 0.000940948 0)
(0 0.000922146 0)
(0 0.000913804 0)
(0 0.00100835 0)
(0 0.000894932 0)
(0 0.000886099 0)
(0 0.000685825 0)
(0 0.000679045 0)
(0 0.00071307 0)
(0 0.000705816 0)
(0 0.000739621 0)
(0 0.000731991 0)
(0 0.000764529 0)
(0 0.00075785 0)
(0 0.000794006 0)
(0 0.000782403 0)
(0 0.000815381 0)
(0 0.00080449 0)
(0 0.000836184 0)
(0 0.000825929 0)
(0 0.000860892 0)
(0 0.000867049 0)
(0 0.000857464 0)
(0 0.000874716 0)
(0 0.000846079 0)
(0 0.000878375 0)
(0 0.000815306 0)
(0 0.000845438 0)
(0 0.000861235 0)
(0 0.000828617 0)
(0 0.000863361 0)
(0 0.000895202 0)
(0 0.000815976 0)
(0 0.000799358 0)
(0 0.000786109 0)
(0 0.000878947 0)
(0 0.000910332 0)
(0 0.00076964 0)
(0 0.000755899 0)
(0 0.00089234 0)
(0 0.000923705 0)
(0 0.000739705 0)
(0 0.000725646 0)
(0 0.000904149 0)
(0 0.000935496 0)
(0 0.000709565 0)
(0 0.000722261 0)
(0 0.000695147 0)
(0 0.000709739 0)
(0 0.000656204 0)
(0 0.000914262 0)
(0 0.000945462 0)
(0 0.000882261 0)
(0 0.000678834 0)
(0 0.000691961 0)
(0 0.000664616 0)
(0 0.000922598 0)
(0 0.000953503 0)
(0 0.000647995 0)
(0 0.000634026 0)
(0 0.000928689 0)
(0 0.00095957 0)
(0 0.00061736 0)
(0 0.000932643 0)
(0 0.000963714 0)
(0 0.000603518 0)
(0 0.000727124 0)
(0 0.000586971 0)
(0 0.000934702 0)
(0 0.000965912 0)
(0 0.000573317 0)
(0 0.000556672 0)
(0 0.00099382 0)
(0 0.000996448 0)
(0 0.000965894 0)
(0 0.000996637 0)
(0 0.00102606 0)
(0 0.00102628 0)
(0 0.000994661 0)
(0 0.00102387 0)
(0 0.00105556 0)
(0 0.00105241 0)
(0 0.00101895 0)
(0 0.0010463 0)
(0 0.0010802 0)
(0 0.00107332 0)
(0 0.00131444 0)
(0 0.000543134 0)
(0 0.000526449 0)
(0 0.000538741 0)
(0 0.0010359 0)
(0 0.00106288 0)
(0 0.00110389 0)
(0 0.00108803 0)
(0 0.00104958 0)
(0 0.00107464 0)
(0 0.00111104 0)
(0 0.00109856 0)
(0 0.00105996 0)
(0 0.00108305 0)
(0 0.00112112 0)
(0 0.0011049 0)
(0 0.000285138 0)
(0 0.00114272 0)
(0 0.0011265 0)
(0 0.00108781 0)
(0 0.00110884 0)
(0 0.000848188 0)
(0 0.000508375 0)
(0 0.000519387 0)
(0 0.000496496 0)
(0 0.00114743 0)
(0 0.00112892 0)
(0 0.00108535 0)
(0 0.00111003 0)
(0 0.00114852 0)
(0 0.00112806 0)
(0 0.00108898 0)
(0 0.00110412 0)
(0 0.00114565 0)
(0 0.00112265 0)
(0 0.000966649 0)
(0 0.00107932 0)
(0 0.00109955 0)
(0 0.00114016 0)
(0 0.0011174 0)
(0 0.00107617 0)
(0 0.00109354 0)
(0 0.00113415 0)
(0 0.00110986 0)
(0 0.000873076 0)
(0 0.000903979 0)
(0 0.000558332 0)
(0 0.00106845 0)
(0 0.00108423 0)
(0 0.0011251 0)
(0 0.00109903 0)
(0 0.00113888 0)
(0 0.0011123 0)
(0 0.00107321 0)
(0 0.0010859 0)
(0 0.00112404 0)
(0 0.00109685 0)
(0 0.00105975 0)
(0 0.00106919 0)
(0 0.000478397 0)
(0 0.000466808 0)
(0 0.00110604 0)
(0 0.00107696 0)
(0 0.00103653 0)
(0 0.00104773 0)
(0 0.00108427 0)
(0 0.00105381 0)
(0 0.0010116 0)
(0 0.00102145 0)
(0 0.00106 0)
(0 0.00102743 0)
(0 0.00098231 0)
(0 0.000994074 0)
(0 0.00103318 0)
(0 0.000999786 0)
(0 0.000956102 0)
(0 0.000966811 0)
(0 0.00100446 0)
(0 0.000971449 0)
(0 0.000934631 0)
(0 0.00093911 0)
(0 0.000448893 0)
(0 0.00100731 0)
(0 0.000437554 0)
(0 0.000901409 0)
(0 0.000906816 0)
(0 0.000419893 0)
(0 0.000868123 0)
(0 0.000873607 0)
(0 0.000408881 0)
(0 0.000391318 0)
(0 0.000401178 0)
(0 0.000833823 0)
(0 0.000839615 0)
(0 0.000877795 0)
(0 0.000844615 0)
(0 0.000827922 0)
(0 0.000805615 0)
(0 0.000811309 0)
(0 0.000380538 0)
(0 0.000397686 0)
(0 0.000363147 0)
(0 0.000771478 0)
(0 0.000777244 0)
(0 0.000848642 0)
(0 0.000352486 0)
(0 0.000335526 0)
(0 0.000736365 0)
(0 0.00074228 0)
(0 0.000700648 0)
(0 0.000706736 0)
(0 0.000324979 0)
(0 0.000308517 0)
(0 0.000664843 0)
(0 0.000671195 0)
(0 0.000711516 0)
(0 0.000676485 0)
(0 0.000636386 0)
(0 0.000641843 0)
(0 0.000657311 0)
(0 0.000298153 0)
(0 0.000282186 0)
(0 0.000291183 0)
(0 0.000680554 0)
(0 0.000646159 0)
(0 0.000607734 0)
(0 0.000612371 0)
(0 0.000265371 0)
(0 0.000273006 0)
(0 0.00076519 0)
(0 0.000725298 0)
(0 0.000574313 0)
(0 0.000579315 0)
(0 0.000462539 0)
(0 0.000491562 0)
(0 0.000466294 0)
(0 0.000494669 0)
(0 0.000468809 0)
(0 0.00049666 0)
(0 0.00047022 0)
(0 0.000272008 0)
(0 0.000286584 0)
(0 0.000683063 0)
(0 0.000617249 0)
(0 0.000442426 0)
(0 0.000443375 0)
(0 0.000541558 0)
(0 0.000546732 0)
(0 0.000497633 0)
(0 0.000696976 0)
(0 0.000247818 0)
(0 0.000254128 0)
(0 0.000524177 0)
(0 0.00050938 0)
(0 0.00051448 0)
(0 0.000415687 0)
(0 0.00041631 0)
(0 0.000260679 0)
(0 0.000273914 0)
(0 0.000524702 0)
(0 0.000551256 0)
(0 0.0005032 0)
(0 0.000306145 0)
(0 0.000318729 0)
(0 0.000325178 0)
(0 0.000311323 0)
(0 0.000331133 0)
(0 0.00034487 0)
(0 0.000351092 0)
(0 0.000365103 0)
(0 0.000371598 0)
(0 0.00038553 0)
(0 0.000393172 0)
(0 0.000377532 0)
(0 0.000400571 0)
(0 0.000416239 0)
(0 0.00042564 0)
(0 0.00040845 0)
(0 0.00043546 0)
(0 0.000440868 0)
(0 0.000416497 0)
(0 0.00044433 0)
(0 0.000422999 0)
(0 0.000450668 0)
(0 0.000426399 0)
(0 0.000453969 0)
(0 0.000479501 0)
(0 0.000483325 0)
(0 0.000509446 0)
(0 0.000514282 0)
(0 0.000486435 0)
(0 0.000518054 0)
(0 0.000400365 0)
(0 0.000488489 0)
(0 0.000520135 0)
(0 0.000540329 0)
(0 0.000488524 0)
(0 0.000519295 0)
(0 0.000485306 0)
(0 0.0005151 0)
(0 0.000455442 0)
(0 0.000549432 0)
(0 0.000545171 0)
(0 0.00050849 0)
(0 0.000538488 0)
(0 0.000550645 0)
(0 0.000518414 0)
(0 0.000482471 0)
(0 0.000486371 0)
(0 0.000229679 0)
(0 0.000234702 0)
(0 0.000450152 0)
(0 0.000454232 0)
(0 0.000388665 0)
(0 0.000389118 0)
(0 0.000499843 0)
(0 0.000530085 0)
(0 0.000912839 0)
(0 0.00111732 0)
(0 0.000248271 0)
(0 0.000260228 0)
(0 0.000710228 0)
(0 0.000521216 0)
(0 0.000418092 0)
(0 0.000422399 0)
(0 0.000551244 0)
(0 0.000577865 0)
(0 0.000427978 0)
(0 0.000326718 0)
(0 0.000580419 0)
(0 0.000489908 0)
(0 0.00052038 0)
(0 0.000210832 0)
(0 0.000206327 0)
(0 0.000214154 0)
(0 0.000238754 0)
(0 0.000361352 0)
(0 0.000361687 0)
(0 0.00038882 0)
(0 0.000361314 0)
(0 0.000387753 0)
(0 0.00036018 0)
(0 0.000385801 0)
(0 0.000358125 0)
(0 0.000382853 0)
(0 0.000355165 0)
(0 0.000386853 0)
(0 0.000391312 0)
(0 0.000560617 0)
(0 0.00055096 0)
(0 0.00050974 0)
(0 0.000541186 0)
(0 0.0003304 0)
(0 0.000327531 0)
(0 0.000234745 0)
(0 0.000245496 0)
(0 0.000382863 0)
(0 0.000513049 0)
(0 0.000316481 0)
(0 0.000333956 0)
(0 0.000582048 0)
(0 0.000574231 0)
(0 0.000527724 0)
(0 0.000561852 0)
(0 0.000612629 0)
(0 0.000595306 0)
(0 0.000545065 0)
(0 0.000579628 0)
(0 0.000631195 0)
(0 0.000613629 0)
(0 0.000561317 0)
(0 0.000596271 0)
(0 0.000217089 0)
(0 0.000241927 0)
(0 0.000188438 0)
(0 0.000184218 0)
(0 0.000653692 0)
(0 0.000628104 0)
(0 0.000573711 0)
(0 0.000605326 0)
(0 0.00057718 0)
(0 0.000603952 0)
(0 0.000355963 0)
(0 0.000360726 0)
(0 0.000378998 0)
(0 0.000659641 0)
(0 0.000637493 0)
(0 0.000579851 0)
(0 0.00061135 0)
(0 0.000425371 0)
(0 0.000669468 0)
(0 0.000643009 0)
(0 0.000584094 0)
(0 0.000615907 0)
(0 0.000302643 0)
(0 0.000299972 0)
(0 0.000219852 0)
(0 0.000555734 0)
(0 0.000587238 0)
(0 0.000647246 0)
(0 0.000619006 0)
(0 0.000678615 0)
(0 0.000651812 0)
(0 0.000591113 0)
(0 0.000625275 0)
(0 0.000685364 0)
(0 0.000659657 0)
(0 0.000597996 0)
(0 0.000632173 0)
(0 0.000692698 0)
(0 0.000664581 0)
(0 0.000602812 0)
(0 0.000634727 0)
(0 0.000271537 0)
(0 0.000772392 0)
(0 0.000695844 0)
(0 0.000665023 0)
(0 0.000603324 0)
(0 0.000633012 0)
(0 0.000325893 0)
(0 0.000220167 0)
(0 0.000210031 0)
(0 0.000229753 0)
(0 0.000167388 0)
(0 0.000163204 0)
(0 0.000694068 0)
(0 0.000661708 0)
(0 0.000599736 0)
(0 0.00062835 0)
(0 0.000565263 0)
(0 0.000593557 0)
(0 0.000656393 0)
(0 0.00062197 0)
(0 0.000203658 0)
(0 0.000196507 0)
(0 0.000217142 0)
(0 0.000209626 0)
(0 0.000229898 0)
(0 0.000222731 0)
(0 0.000242554 0)
(0 0.000236657 0)
(0 0.000256704 0)
(0 0.000252054 0)
(0 0.000275736 0)
(0 0.000269282 0)
(0 0.000291866 0)
(0 0.000287512 0)
(0 0.000310359 0)
(0 0.000307008 0)
(0 0.000284236 0)
(0 0.000304186 0)
(0 0.000281615 0)
(0 0.000301816 0)
(0 0.000279863 0)
(0 0.000300713 0)
(0 0.000278538 0)
(0 0.000300759 0)
(0 0.000278271 0)
(0 0.000301351 0)
(0 0.000279502 0)
(0 0.000303108 0)
(0 0.000281609 0)
(0 0.000305984 0)
(0 0.000284669 0)
(0 0.000310022 0)
(0 0.000331789 0)
(0 0.000336421 0)
(0 0.000314891 0)
(0 0.00032389 0)
(0 0.000358792 0)
(0 0.000341819 0)
(0 0.000320388 0)
(0 0.00032811 0)
(0 0.000347965 0)
(0 0.000326273 0)
(0 0.000355125 0)
(0 0.000334317 0)
(0 0.000375915 0)
(0 0.000298036 0)
(0 0.000363347 0)
(0 0.000343206 0)
(0 0.000262684 0)
(0 0.000684016 0)
(0 0.000650681 0)
(0 0.000588215 0)
(0 0.000617979 0)
(0 0.000679438 0)
(0 0.00064699 0)
(0 0.000584555 0)
(0 0.000612579 0)
(0 0.000674178 0)
(0 0.000639002 0)
(0 0.000576662 0)
(0 0.000602892 0)
(0 0.000376903 0)
(0 0.00066407 0)
(0 0.000628235 0)
(0 0.000566625 0)
(0 0.000592579 0)
(0 0.000530095 0)
(0 0.000556642 0)
(0 0.000617767 0)
(0 0.000582211 0)
(0 0.000244096 0)
(0 0.000217882 0)
(0 0.000520613 0)
(0 0.000546675 0)
(0 0.000606542 0)
(0 0.000571574 0)
(0 0.000406861 0)
(0 0.00040214 0)
(0 0.000430319 0)
(0 0.000260625 0)
(0 0.000511977 0)
(0 0.000537611 0)
(0 0.000602537 0)
(0 0.000629457 0)
(0 0.000630319 0)
(0 0.000655953 0)
(0 0.000656151 0)
(0 0.000682055 0)
(0 0.000681641 0)
(0 0.000707765 0)
(0 0.000706701 0)
(0 0.000733122 0)
(0 0.000731251 0)
(0 0.000757991 0)
(0 0.00075537 0)
(0 0.000782197 0)
(0 0.000778787 0)
(0 0.00080571 0)
(0 0.000828433 0)
(0 0.000460752 0)
(0 0.000147222 0)
(0 0.00014313 0)
(0 0.000371828 0)
(0 0.000195778 0)
(0 0.00027496 0)
(0 0.000424632 0)
(0 0.000453081 0)
(0 0.000253579 0)
(0 0.000272414 0)
(0 0.000195586 0)
(0 0.000186134 0)
(0 0.000232174 0)
(0 0.00047788 0)
(0 0.000503678 0)
(0 0.000314431 0)
(0 0.000563816 0)
(0 0.00073348 0)
(0 0.000330826 0)
(0 0.000296626 0)
(0 0.000290565 0)
(0 0.000128085 0)
(0 0.000124098 0)
(0 0.000396521 0)
(0 0.000262022 0)
(0 0.000130648 0)
(0 0.000629557 0)
(0 0.00062742 0)
(0 0.000855082 0)
(0 0.000443547 0)
(0 0.000469056 0)
(0 0.000527893 0)
(0 0.000493226 0)
(0 0.000434334 0)
(0 0.000458348 0)
(0 0.000515346 0)
(0 0.000480484 0)
(0 0.000423928 0)
(0 0.000445933 0)
(0 0.000171777 0)
(0 0.000163126 0)
(0 0.000247262 0)
(0 0.000248864 0)
(0 0.000244854 0)
(0 0.000446345 0)
(0 0.00047505 0)
(0 0.000191323 0)
(0 0.000109968 0)
(0 0.000106233 0)
(0 0.000268448 0)
(0 0.000532573 0)
(0 0.000562237 0)
(0 0.000551457 0)
(0 0.000580274 0)
(0 0.000566969 0)
(0 0.000595891 0)
(0 0.00058071 0)
(0 0.000609429 0)
(0 0.000592718 0)
(0 0.000626282 0)
(0 0.000619658 0)
(0 0.000601462 0)
(0 0.000575468 0)
(0 0.000582821 0)
(0 0.000557256 0)
(0 0.000563177 0)
(0 0.000538068 0)
(0 0.000543018 0)
(0 0.000518649 0)
(0 0.00060787 0)
(0 0.000522791 0)
(0 0.000499282 0)
(0 0.000546922 0)
(0 0.000390433 0)
(0 0.000412821 0)
(0 0.000416864 0)
(0 0.000254649 0)
(0 0.000268906 0)
(0 0.00024169 0)
(0 0.000217498 0)
(0 0.000214726 0)
(0 0.000235197 0)
(0 0.000148789 0)
(0 0.000141054 0)
(0 0.000156196 0)
(0 0.000526005 0)
(0 0.000549994 0)
(0 0.000401609 0)
(0 0.00037733 0)
(0 0.000377041 0)
(0 0.000354001 0)
(0 0.000351337 0)
(0 0.000328332 0)
(0 0.000322684 0)
(0 0.000298466 0)
(0 0.000304133 0)
(0 0.000274044 0)
(0 0.000280433 0)
(0 0.000289646 0)
(0 0.00025087 0)
(0 0.000258415 0)
(0 0.000229003 0)
(0 0.00023789 0)
(0 0.000206555 0)
(0 0.000211068 0)
(0 0.000495233 0)
(0 0.000476789 0)
(0 9.30576e-05 0)
(0 8.95339e-05 0)
(0 0.000267238 0)
(0 0.000270449 0)
(0 0.000535627 0)
(0 0.000101376 0)
(0 8.48864e-05 0)
(0 0.000473164 0)
(0 0.000455775 0)
(0 0.000458238 0)
(0 0.000438159 0)
(0 0.000357983 0)
(0 0.000380813 0)
(0 0.000183108 0)
(0 0.000186814 0)
(0 0.000211888 0)
(0 0.000189385 0)
(0 7.4063e-05 0)
(0 0.000436517 0)
(0 0.00041967 0)
(0 0.00024152 0)
(0 0.000218494 0)
(0 0.000163079 0)
(0 0.000293391 0)
(0 0.000297139 0)
(0 0.000320145 0)
(0 0.000467387 0)
(0 0.000496461 0)
(0 0.000232615 0)
(0 9.54138e-05 0)
(0 7.90644e-05 0)
(0 8.82231e-05 0)
(0 0.000420554 0)
(0 0.000403058 0)
(0 0.000402123 0)
(0 0.000386393 0)
(0 0.000385604 0)
(0 0.000370377 0)
(0 0.000369828 0)
(0 0.000355182 0)
(0 0.000354912 0)
(0 0.000340872 0)
(0 0.000655163 0)
(0 0.000209361 0)
(0 0.00043559 0)
(0 0.000402853 0)
(0 0.000348609 0)
(0 0.000369458 0)
(0 0.000422232 0)
(0 0.000388768 0)
(0 0.000337419 0)
(0 0.000356831 0)
(0 0.000406179 0)
(0 0.00037481 0)
(0 0.000325362 0)
(0 0.00034382 0)
(0 0.000323793 0)
(0 0.000347637 0)
(0 0.000190327 0)
(0 0.000187705 0)
(0 0.000216122 0)
(0 0.000599985 0)
(0 0.000624116 0)
(0 0.000294545 0)
(0 0.000313334 0)
(0 0.000314737 0)
(0 0.000278257 0)
(0 0.000304993 0)
(0 0.000265933 0)
(0 0.000294559 0)
(0 0.000254569 0)
(0 0.000284556 0)
(0 0.000226549 0)
(0 0.000524187 0)
(0 0.000350699 0)
(0 0.000375996 0)
(0 0.000387293 0)
(0 0.00033415 0)
(0 0.000178614 0)
(0 0.000264605 0)
(0 0.000215951 0)
(0 0.000126624 0)
(0 0.000284332 0)
(0 0.000340742 0)
(0 0.000528293 0)
(0 0.00055245 0)
(0 0.000574772 0)
(0 0.000577668 0)
(0 0.00060054 0)
(0 0.000184505 0)
(0 0.000191234 0)
(0 0.000378397 0)
(0 0.00040522 0)
(0 0.00024439 0)
(0 0.00027444 0)
(0 0.000370268 0)
(0 0.000204683 0)
(0 0.000236983 0)
(0 0.000208775 0)
(0 0.000481795 0)
(0 0.00023044 0)
(0 0.000209947 0)
(0 0.000240522 0)
(0 0.000212163 0)
(0 0.000154114 0)
(0 0.000264502 0)
(0 0.00028313 0)
(0 0.000604123 0)
(0 0.000627479 0)
(0 0.000375683 0)
(0 0.000572507 0)
(0 0.000310341 0)
(0 0.000161104 0)
(0 0.000168443 0)
(0 0.000260004 0)
(0 0.000223649 0)
(0 0.000203029 0)
(0 0.00021746 0)
(0 0.000195852 0)
(0 0.000211965 0)
(0 0.000190498 0)
(0 0.000178715 0)
(0 7.19189e-05 0)
(0 7.95563e-05 0)
(0 0.000716641 0)
(0 0.000549682 0)
(0 0.000674425 0)
(0 0.0004294 0)
(0 0.000402933 0)
(0 0.000420205 0)
(0 0.000582168 0)
(0 0.000613486 0)
(0 0.000705546 0)
(0 0.000330433 0)
(0 0.000300047 0)
(0 0.000253444 0)
(0 0.000270409 0)
(0 0.000638419 0)
(0 0.000717473 0)
(0 0.000596179 0)
(0 0.000619447 0)
(0 0.000647465 0)
(0 0.000642118 0)
(0 0.000670275 0)
(0 0.000613522 0)
(0 0.000635796 0)
(0 0.000592152 0)
(0 0.000452772 0)
(0 0.000808267 0)
(0 0.000435036 0)
(0 0.00066474 0)
(0 0.000685843 0)
(0 0.000720967 0)
(0 0.000740271 0)
(0 0.000705371 0)
(0 0.000774973 0)
(0 0.000757554 0)
(0 0.000723379 0)
(0 0.000755158 0)
(0 0.00080787 0)
(0 0.000788058 0)
(0 0.00051994 0)
(0 0.00116456 0)
(0 0.00104007 0)
(0 0.00104098 0)
(0 0.0010728 0)
(0 0.00107231 0)
(0 0.00110334 0)
(0 0.00110195 0)
(0 0.00113218 0)
(0 0.0011302 0)
(0 0.00115976 0)
(0 0.00115704 0)
(0 0.00112762 0)
(0 0.0011537 0)
(0 0.00112464 0)
(0 0.00118595 0)
(0 0.00114986 0)
(0 0.0011212 0)
(0 0.0011886 0)
(0 0.00121409 0)
(0 0.00121687 0)
(0 0.0011453 0)
(0 0.00111717 0)
(0 0.00124132 0)
(0 0.00124397 0)
(0 0.00126744 0)
(0 0.00126947 0)
(0 0.00126369 0)
(0 0.00113988 0)
(0 0.00111238 0)
(0 0.00129256 0)
(0 0.00129408 0)
(0 0.00131631 0)
(0 0.00131764 0)
(0 0.00116718 0)
(0 0.00116026 0)
(0 0.00133893 0)
(0 0.0013402 0)
(0 0.00131816 0)
(0 0.00134069 0)
(0 0.00118674 0)
(0 0.00108906 0)
(0 0.00108443 0)
(0 0.00136194 0)
(0 0.00136224 0)
(0 0.00134037 0)
(0 0.00136157 0)
(0 0.00138253 0)
(0 0.0013815 0)
(0 0.00117834 0)
(0 0.00135968 0)
(0 0.0013792 0)
(0 0.00139983 0)
(0 0.00139693 0)
(0 0.00137599 0)
(0 0.0013933 0)
(0 0.00137239 0)
(0 0.00138897 0)
(0 0.00140976 0)
(0 0.00140505 0)
(0 0.0013841 0)
(0 0.0013992 0)
(0 0.00141929 0)
(0 0.00141209 0)
(0 0.00138978 0)
(0 0.00140353 0)
(0 0.0014233 0)
(0 0.00141344 0)
(0 0.00139 0)
(0 0.00140185 0)
(0 0.00142243 0)
(0 0.00141082 0)
(0 0.00138951 0)
(0 0.00139798 0)
(0 0.00137616 0)
(0 0.00138388 0)
(0 0.00140464 0)
(0 0.0013906 0)
(0 0.00136838 0)
(0 0.00137457 0)
(0 0.00139776 0)
(0 0.00137875 0)
(0 0.0013575 0)
(0 0.00136038 0)
(0 0.00137952 0)
(0 0.00136079 0)
(0 0.00134144 0)
(0 0.00134034 0)
(0 0.00135876 0)
(0 0.00133749 0)
(0 0.0013186 0)
(0 0.00131472 0)
(0 0.00133235 0)
(0 0.00130899 0)
(0 0.00129035 0)
(0 0.00128425 0)
(0 0.00130151 0)
(0 0.00127644 0)
(0 0.00125794 0)
(0 0.00124904 0)
(0 0.00126674 0)
(0 0.00123876 0)
(0 0.00125609 0)
(0 0.00122799 0)
(0 0.00124503 0)
(0 0.00121635 0)
(0 0.00119921 0)
(0 0.00118705 0)
(0 0.001203 0)
(0 0.00117324 0)
(0 0.00118781 0)
(0 0.00115386 0)
(0 0.00117188 0)
(0 0.0011409 0)
(0 0.00115586 0)
(0 0.00112372 0)
(0 0.00113682 0)
(0 0.00109995 0)
(0 0.00111562 0)
(0 0.00108292 0)
(0 0.0010946 0)
(0 0.00106161 0)
(0 0.00105108 0)
(0 0.00123031 0)
(0 0.00110827 0)
(0 0.00115794 0)
(0 0.00107264 0)
(0 0.00103857 0)
(0 0.00106014 0)
(0 0.00105516 0)
(0 0.00107841 0)
(0 0.00104884 0)
(0 0.0010248 0)
(0 0.00101831 0)
(0 0.000993728 0)
(0 0.000986552 0)
(0 0.000962121 0)
(0 0.000954127 0)
(0 0.00127251 0)
(0 0.00133619 0)
(0 0.00120303 0)
(0 0.00104978 0)
(0 0.000929843 0)
(0 0.000921551 0)
(0 0.00101488 0)
(0 0.0010837 0)
(0 0.00120392 0)
(0 0.00107079 0)
(0 0.00114886 0)
(0 0.000943252 0)
(0 0.000896993 0)
(0 0.000889028 0)
(0 0.00102621 0)
(0 0.00119402 0)
(0 0.00124501 0)
(0 0.000864122 0)
(0 0.000856443 0)
(0 0.000990597 0)
(0 0.000978729 0)
(0 0.000831299 0)
(0 0.000823981 0)
(0 0.000798599 0)
(0 0.000791818 0)
(0 0.000766304 0)
(0 0.000759742 0)
(0 0.000871012 0)
(0 0.000734325 0)
(0 0.000727903 0)
(0 0.00104103 0)
(0 0.0010024 0)
(0 0.000968315 0)
(0 0.00121878 0)
(0 0.000750286 0)
(0 0.000953995 0)
(0 0.000942067 0)
(0 0.00122866 0)
(0 0.000702522 0)
(0 0.000696171 0)
(0 0.00120753 0)
(0 0.0011829 0)
(0 0.00124266 0)
(0 0.00125277 0)
(0 0.000846304 0)
(0 0.00119499 0)
(0 0.00117054 0)
(0 0.00067072 0)
(0 0.00066461 0)
(0 0.000917049 0)
(0 0.000905725 0)
(0 0.000930625 0)
(0 0.000895016 0)
(0 0.000919953 0)
(0 0.000884763 0)
(0 0.000909552 0)
(0 0.000874843 0)
(0 0.000899673 0)
(0 0.000638947 0)
(0 0.000633348 0)
(0 0.000607322 0)
(0 0.000602151 0)
(0 0.000575926 0)
(0 0.000570866 0)
(0 0.000544708 0)
(0 0.00126592 0)
(0 0.00127651 0)
(0 0.000594286 0)
(0 0.000538317 0)
(0 0.00118112 0)
(0 0.00115696 0)
(0 0.000675443 0)
(0 0.00128858 0)
(0 0.00129955 0)
(0 0.000928748 0)
(0 0.00110352 0)
(0 0.00143006 0)
(0 0.00119388 0)
(0 0.00141663 0)
(0 0.00135814 0)
(0 0.00135384 0)
(0 0.00137493 0)
(0 0.00136939 0)
(0 0.00138973 0)
(0 0.00139453 0)
(0 0.00140829 0)
(0 0.00141296 0)
(0 0.00125411 0)
(0 0.00141831 0)
(0 0.00143391 0)
(0 0.00143438 0)
(0 0.00144883 0)
(0 0.00144803 0)
(0 0.00144816 0)
(0 0.00146169 0)
(0 0.00146123 0)
(0 0.000717299 0)
(0 0.00115751 0)
(0 0.000487807 0)
(0 0.000458804 0)
(0 0.0005171 0)
(0 0.00144049 0)
(0 0.00144728 0)
(0 0.00145646 0)
(0 0.00146239 0)
(0 0.00147059 0)
(0 0.00147492 0)
(0 0.00146617 0)
(0 0.000162937 0)
(0 0.000159457 0)
(0 0.000164691 0)
(0 0.00103762 0)
(0 0.00101414 0)
(0 0.00104926 0)
(0 0.000743826 0)
(0 0.000776608 0)
(0 0.000801498 0)
(0 0.000833384 0)
(0 0.000857258 0)
(0 0.000887717 0)
(0 0.000863497 0)
(0 0.000735703 0)
(0 0.000760944 0)
(0 0.000789484 0)
(0 0.000812775 0)
(0 0.000840088 0)
(0 0.000861663 0)
(0 0.00083363 0)
(0 0.000881057 0)
(0 0.000852396 0)
(0 0.000316352 0)
(0 0.000529595 0)
(0 0.000500996 0)
(0 0.000464725 0)
(0 0.0004355 0)
(0 0.000398939 0)
(0 0.000369096 0)
(0 0.000405336 0)
(0 0.000332356 0)
(0 0.000362892 0)
(0 0.000781429 0)
(0 9.53482e-05 0)
(0 0.000340742 0)
(0 0.000723138 0)
(0 0.00089068 0)
(0 7.94628e-05 0)
(0 8.03191e-05 0)
(0 6.39273e-05 0)
(0 0.000526545 0)
(0 0.000494708 0)
(0 0.000465793 0)
(0 0.00043341 0)
(0 0.000405177 0)
(0 0.000372598 0)
(0 0.000400893 0)
(0 0.000345028 0)
(0 0.000376609 0)
(0 0.000339865 0)
(0 0.00036988 0)
(0 0.000308057 0)
(0 0.000340406 0)
(0 0.000454685 0)
(0 0.00107007 0)
(0 0.00027463 0)
(0 0.000568601 0)
(0 0.000459138 0)
(0 0.00117692 0)
(0 0.00120159 0)
(0 0.0012124 0)
(0 0.00123605 0)
(0 0.00124544 0)
(0 0.00122405 0)
(0 0.00125766 0)
(0 0.00124475 0)
(0 0.000825941 0)
(0 0.00101206 0)
(0 0.00107482 0)
(0 0.000447369 0)
(0 0.000810152 0)
(0 0.000801507 0)
(0 0.000954148 0)
(0 0.000301891 0)
(0 0.000817007 0)
(0 0.000865975 0)
(0 0.000844098 0)
(0 0.000892769 0)
(0 0.000871654 0)
(0 0.00117876 0)
(0 0.00119208 0)
(0 0.00121276 0)
(0 0.00122472 0)
(0 0.00124457 0)
(0 0.00125482 0)
(0 0.00123531 0)
(0 0.000880312 0)
(0 0.000849996 0)
(0 0.000502934 0)
(0 0.000958497 0)
(0 0.000621535 0)
(0 0.000612443 0)
(0 0.000648568 0)
(0 0.000382563 0)
(0 0.000355026 0)
(0 0.000321037 0)
(0 0.000465791 0)
(0 0.000437893 0)
(0 0.000400784 0)
(0 0.000372143 0)
(0 0.000335565 0)
(0 0.000793312 0)
(0 0.0013423 0)
(0 0.000942195 0)
(0 0.000235626 0)
(0 0.000876017 0)
(0 0.00090565 0)
(0 0.000983674 0)
(0 0.00106412 0)
(0 0.000408351 0)
(0 0.00136683 0)
(0 0.000390701 0)
(0 0.00122106 0)
(0 0.00125281 0)
(0 0.00122798 0)
(0 0.000410074 0)
(0 0.000343279 0)
(0 0.000772463 0)
(0 0.00123879 0)
(0 0.00121117 0)
(0 0.001219 0)
(0 0.00119126 0)
(0 0.00119838 0)
(0 0.00117044 0)
(0 0.00116234 0)
(0 0.00117679 0)
(0 0.00120419 0)
(0 0.00114177 0)
(0 0.0011332 0)
(0 0.00118111 0)
(0 0.00120758 0)
(0 0.00123289 0)
(0 0.000450192 0)
(0 0.000849232 0)
(0 0.000903983 0)
(0 0.000873895 0)
(0 0.000871871 0)
(0 0.000842434 0)
(0 0.000838809 0)
(0 0.000844662 0)
(0 0.000813693 0)
(0 0.000816009 0)
(0 0.000785671 0)
(0 0.000788017 0)
(0 0.000758776 0)
(0 0.000760511 0)
(0 0.000754493 0)
(0 0.000728471 0)
(0 0.000787192 0)
(0 0.000759008 0)
(0 0.00078305 0)
(0 0.000754566 0)
(0 0.000776673 0)
(0 0.000748316 0)
(0 0.000768468 0)
(0 0.000728335 0)
(0 0.000137835 0)
(0 0.000152369 0)
(0 0.000149647 0)
(0 0.000166945 0)
(0 0.000164573 0)
(0 0.00145321 0)
(0 0.00143895 0)
(0 0.00144459 0)
(0 0.00142937 0)
(0 0.00143432 0)
(0 0.00141818 0)
(0 0.00142277 0)
(0 0.00143868 0)
(0 0.00140544 0)
(0 0.00140058 0)
(0 0.0014269 0)
(0 0.00144196 0)
(0 0.00146452 0)
(0 0.00147782 0)
(0 0.000243345 0)
(0 0.00021484 0)
(0 0.000136586 0)
(0 0.00135522 0)
(0 0.00133232 0)
(0 0.00134538 0)
(0 0.00132179 0)
(0 0.00133382 0)
(0 0.00130411 0)
(0 0.000700623 0)
(0 0.000333946 0)
(0 0.000337026 0)
(0 0.000357883 0)
(0 0.000359854 0)
(0 0.000382146 0)
(0 0.000337428 0)
(0 0.000384106 0)
(0 0.000406852 0)
(0 0.000405208 0)
(0 0.000430426 0)
(0 0.000429792 0)
(0 0.000455708 0)
(0 0.000455805 0)
(0 0.000429605 0)
(0 0.000456268 0)
(0 0.000429698 0)
(0 0.000457327 0)
(0 0.000484057 0)
(0 0.000485951 0)
(0 0.000458833 0)
(0 0.000488019 0)
(0 0.00046105 0)
(0 0.00048995 0)
(0 0.000464395 0)
(0 0.00049358 0)
(0 0.000469098 0)
(0 0.000499246 0)
(0 0.000474831 0)
(0 0.000505592 0)
(0 0.000481358 0)
(0 0.000512732 0)
(0 0.000488178 0)
(0 0.000520876 0)
(0 0.000497213 0)
(0 0.00053004 0)
(0 0.000507689 0)
(0 0.00048227 0)
(0 0.000539619 0)
(0 0.000514841 0)
(0 0.000563732 0)
(0 0.000857547 0)
(0 0.000672947 0)
(0 0.00150209 0)
(0 0.000400747 0)
(0 0.000868855 0)
(0 0.000834626 0)
(0 0.000865585 0)
(0 0.000829913 0)
(0 0.000860812 0)
(0 0.000799949 0)
(0 0.000823159 0)
(0 0.000739441 0)
(0 0.000757576 0)
(0 0.000174837 0)
(0 0.000224751 0)
(0 0.000241486 0)
(0 0.00138254 0)
(0 0.00135339 0)
(0 0.00134328 0)
(0 0.000545353 0)
(0 0.000381575 0)
(0 0.000530112 0)
(0 0.00074615 0)
(0 0.00032611 0)
(0 0.000338871 0)
(0 0.00037444 0)
(0 0.000169675 0)
(0 0.000422374 0)
(0 0.000410124 0)
(0 0.000224038 0)
(0 0.000840106 0)
(0 0.000820967 0)
(0 0.000798699 0)
(0 0.00138686 0)
(0 0.000902753 0)
(0 0.000873106 0)
(0 0.00111316 0)
(0 0.0011043 0)
(0 0.00112323 0)
(0 0.00109483 0)
(0 0.000617809 0)
(0 0.000292878 0)
(0 0.000804403 0)
(0 0.000865884 0)
(0 0.000890007 0)
(0 0.000924348 0)
(0 0.000912954 0)
(0 0.000947934 0)
(0 0.000935267 0)
(0 0.000970274 0)
(0 0.00095681 0)
(0 0.000991446 0)
(0 0.000977271 0)