/*--------------------------------*- C++ -*----------------------------------*\
| =========                 |                                                 |
| \\      /  F ield         | OpenFOAM: The Open Source CFD Toolbox           |
|  \\    /   O peration     | Version:  v2012                                 |
|   \\  /    A nd           | Website:  www.openfoam.com                      |
|    \\/     M anipulation  |                                                 |
\*---------------------------------------------------------------------------*/
FoamFile
{
    version     2.0;
    format      ascii;
    class       volVectorField;
    location    "50";
    object      U;
}
// * * * * * * * * * * * * * * * * * * * * * * * * * * * * * * * * * * * * * //

dimensions      [0 1 -1 0 0 0 0];


internalField   nonuniform List<vector> 
10042
(
(0.999553 0.0124501 1.51403e-22)
(0.928966 0.0297771 -1.89506e-21)
(0.957513 0.0432623 0)
(1.01725 0.0022408 0)
(1.01205 0.000473181 0)
(0.994745 0.210148 -3.61803e-21)
(0.937025 -0.243776 -1.15182e-20)
(0.917 0.0627888 1.146e-21)
(1.01044 0.00258181 0)
(1.09943 0.0870553 2.70084e-22)
(1.02917 -0.00273972 -1.08205e-22)
(0.916671 0.0472825 -1.01616e-21)
(1.05148 -0.0316205 0)
(1.01032 -0.000442367 3.22843e-22)
(1.03037 -0.00190167 0)
(1.01032 -0.000714508 3.22391e-22)
(0.907615 0.204846 2.60197e-21)
(1.02785 -0.00325931 2.42413e-22)
(1.0454 -0.0074962 -1.02509e-20)
(1.01151 0.0454399 -1.44162e-21)
(1.05571 -0.0321497 -2.46752e-21)
(0.999408 0.0116449 0)
(1.01699 0.00217157 1.41939e-21)
(1.06333 -0.146555 3.55382e-21)
(1.01262 0.00319532 0)
(1.00318 0.000180447 -2.87129e-23)
(1.09108 0.0827313 2.9371e-21)
(1.00896 0.00202584 -6.88246e-23)
(0.961897 0.225276 5.17482e-21)
(1.02621 -0.113493 -3.96535e-21)
(1.00872 0.000133889 4.447e-22)
(1.02217 -0.00741558 3.184e-21)
(1.00999 0.00257429 -3.54041e-25)
(1.00983 0.00248204 1.72041e-22)
(0.944348 0.0444233 1.4736e-21)
(0.834134 -0.0186031 8.13527e-21)
(1.01866 0.000396578 -1.59708e-21)
(1.01189 0.000230575 2.00633e-22)
(1.01009 0.000268792 -3.30066e-22)
(1.0007 0.00168555 1.94347e-23)
(1.04091 -0.11787 0)
(1.01023 0.00245294 1.73065e-22)
(0.804988 -0.135811 9.76715e-22)
(0.903486 0.0991605 -2.29678e-21)
(1.01532 0.00385881 -1.76355e-21)
(1.01253 0.00316253 0)
(1.00546 0.00209745 -2.36255e-22)
(1.02976 -0.00167219 1.1179e-21)
(1.16212 0.0115784 3.68608e-21)
(0.561251 -0.307806 1.01388e-21)
(0.747094 -0.139449 -4.17365e-21)
(1.01392 0.00162314 2.30535e-21)
(0.93955 0.19923 0)
(1.04514 -0.00669759 -1.33297e-21)
(0.825603 0.446145 -1.95231e-20)
(0.91189 -0.473827 8.21731e-20)
(1.0577 -0.0284291 0)
(1.02626 0.000227766 0)
(1.0322 0.00512421 -3.38001e-21)
(1.00174 0.000564941 0)
(1.16106 0.0258974 0)
(0.9028 0.363252 -9.48887e-21)
(0.915788 -0.151738 -2.39223e-20)
(1.01357 0.0915144 -2.94968e-21)
(0.99972 0.00944228 2.51825e-22)
(1.01116 -0.000349035 5.49263e-22)
(1.00771 0.0406582 0)
(0.998896 0.0172107 4.10071e-23)
(1.00487 0.00234124 -8.92298e-23)
(0.998853 0.016077 -2.53753e-23)
(0.59283 -0.133366 0)
(1.02937 0.0245996 -2.60081e-21)
(1.01219 -0.000767612 0)
(1.03157 0.00457014 0)
(1.01154 -0.000109866 -3.15659e-22)
(0.637159 -0.115428 4.26272e-21)
(1.0082 0.017474 0)
(1.00529 0.002217 2.40835e-22)
(1.00908 0.0192225 -9.08594e-22)
(1.04492 -0.00792357 0)
(0.901554 0.10336 -6.40882e-22)
(1.04502 -0.139635 -7.40272e-22)
(1.00562 0.000109656 -4.79824e-22)
(1.01247 0.000957845 1.04098e-21)
(1.04531 0.0753973 1.92939e-21)
(1.2661 0.0578511 2.81111e-20)
(1.0079 0.0377573 0)
(0.954012 0.0378068 0)
(1.01384 0.00159511 1.79323e-23)
(1.0046 0.0130515 0)
(1.0503 -0.0172827 -2.79487e-22)
(1.03052 -0.00246787 0)
(0.949013 -0.158695 2.07821e-20)
(1.27389 0.0805887 -3.08413e-20)
(0.998663 0.00469066 0)
(1.01875 0.0093804 -3.4643e-21)
(0.0945222 0.373574 7.98328e-21)
(1.01116 0.0423489 1.60732e-21)
(0.851253 0.000114033 -5.57787e-22)
(1.03117 0.00347488 -4.41194e-21)
(1.05127 -0.0157484 -5.29126e-21)
(1.12595 0.124203 -1.15036e-20)
(1.02781 0.0147709 1.26329e-21)
(1.03189 -0.00749206 8.05047e-21)
(1.05073 -0.00805368 9.37647e-21)
(1.02659 0.0109075 5.29773e-24)
(0.802794 -0.417772 -2.45789e-20)
(1.01133 0.00073881 6.56173e-22)
(0.966202 -0.222824 1.98774e-22)
(1.0276 0.0112205 6.79132e-22)
(1.03031 0.00569111 -5.98817e-21)
(1.06689 -0.14542 1.59156e-20)
(1.1109 0.119474 8.03342e-21)
(1.03632 0.0738916 0)
(1.00097 0.00834643 -6.85522e-22)
(1.00461 0.00251415 1.6942e-24)
(1.04432 -0.0276867 1.44761e-22)
(1.00938 0.000195267 -4.74075e-22)
(1.02549 0.000752142 -1.92405e-22)
(1.00419 0.00242657 8.95459e-23)
(1.00177 0.000672354 2.24175e-25)
(0.920702 0.0687812 5.65452e-21)
(0.915355 0.0786261 -9.1532e-21)
(1.01544 0.00417877 0)
(1.00499 0.0146162 0)
(1.01444 0.00183259 -8.75687e-23)
(1.01478 0.00179284 -4.94817e-23)
(0.762149 0.426891 -1.72726e-20)
(0.887305 -0.045048 1.89175e-20)
(1.04696 -0.024159 -2.98394e-22)
(1.01211 0.00101248 1.97956e-22)
(1.01268 0.000317628 6.33033e-22)
(1.0155 0.00309332 3.32517e-22)
(1.01116 0.00294117 -1.327e-21)
(1.09594 -0.109465 -2.09923e-20)
(0.648766 -0.236018 8.90259e-21)
(0.999205 0.0343624 0)
(0.803495 -0.352453 1.23973e-20)
(1.0437 -0.000241436 5.01553e-21)
(0.869271 0.0111958 -9.25462e-22)
(1.02149 -0.106024 0)
(1.01024 0.000493848 3.95401e-23)
(0.787276 -0.404133 1.20868e-20)
(1.00907 0.00185879 0)
(1.06586 0.0117467 0)
(1.01199 0.000230542 4.07199e-24)
(1.04527 0.0710888 1.73241e-21)
(1.0047 0.00217661 1.0739e-22)
(1.02025 0.0238391 0)
(1.06579 0.128941 3.49783e-20)
(1.01173 0.000883839 -4.84155e-22)
(1.00979 0.000270832 1.67664e-25)
(1.04584 -0.00107111 1.90298e-21)
(1.04507 -0.0418699 -4.34102e-22)
(0.999985 0.00377708 7.69289e-22)
(1.06725 0.0141526 0)
(0.901937 -0.0538243 -1.65463e-20)
(0.97131 -0.461838 3.65048e-20)
(1.01587 0.00278136 0)
(1.00259 5.13917e-05 -2.94762e-23)
(1.01124 0.000401744 0)
(1.00062 0.00165903 -2.14392e-23)
(0.672172 -0.256937 5.24245e-21)
(1.01415 0.00157741 9.8344e-23)
(1.04074 0.000650069 0)
(1.04309 0.182558 -2.46765e-20)
(1.01231 -0.000686992 0)
(1.02899 -0.00886563 5.46051e-21)
(0.863784 0.00191683 -4.88001e-21)
(1.00947 0.0024265 1.02217e-22)
(0.998115 -0.000221356 5.8088e-22)
(1.02133 -0.102875 7.28992e-21)
(0.914416 0.0683624 1.79432e-21)
(1.00959 0.00254251 -4.42014e-22)
(1.04582 -0.00617373 -3.97689e-21)
(0.913936 0.0773596 0)
(1.01324 0.00424201 0)
(1.01198 0.000317675 1.81032e-22)
(1.0127 0.00053384 -2.06649e-22)
(1.00499 0.00231873 7.49895e-23)
(1.043 0.000431288 0)
(1.05509 -0.00526222 -4.80622e-21)
(1.03185 0.00387403 0)
(1.00407 0.00189582 0)
(0.999179 0.00151306 5.6217e-24)
(1.04421 -0.0148341 -1.26185e-20)
(1.03137 0.0241646 5.82408e-22)
(1.00183 0.00043924 6.15235e-24)
(0.430385 -0.212651 -6.82317e-21)
(1.00961 2.77011e-05 0)
(0.913901 0.028094 4.07437e-21)
(1.06192 -0.0280437 0)
(1.01226 0.000913527 -2.08709e-22)
(1.05379 -0.00464948 3.99689e-21)
(0.692538 0.382187 -2.31999e-21)
(1.03012 -0.00278251 -3.46503e-21)
(0.735971 0.134233 4.69921e-21)
(0.998179 -0.00555871 -3.87619e-22)
(0.163459 0.411781 4.4849e-21)
(1.01262 0.000903175 0)
(0.835141 -0.0258881 -2.03084e-20)
(1.00765 -0.135677 -1.91845e-20)
(1.01143 -0.122108 -4.55686e-23)
(1.0074 0.000832884 -1.62089e-22)
(0.823365 -0.00596457 5.50141e-22)
(1.015 0.00291961 3.77978e-23)
(1.11955 -0.110319 -7.66985e-22)
(1.04928 -0.0400416 1.52048e-21)
(1.02939 0.00582134 8.98679e-21)
(1.01093 0.00328619 1.52498e-21)
(1.02595 -0.00644076 0)
(1.00735 0.000975405 1.67076e-22)
(1.01661 -0.131886 9.22475e-22)
(0.988861 -0.114958 0)
(1.01781 0.000418095 7.12262e-22)
(1.00095 0.0157549 -8.27363e-23)
(1.00648 0.000851979 0)
(0.85931 0.00745391 -3.0383e-21)
(1.01611 0.00114189 0)
(0.851655 -0.0459866 1.57409e-20)
(0.482741 0.244936 5.95051e-23)
(0.999431 -0.00109 -5.84251e-22)
(0.409296 0.26529 0)
(1.00006 0.0154575 2.67273e-23)
(1.01733 0.00241898 0)
(0.991013 -0.139411 2.46563e-20)
(1.01824 0.019019 0)
(1.00008 0.0318915 0)
(1.08292 0.0681255 -1.06697e-21)
(1.02903 0.0145351 -3.63767e-21)
(1.01206 0.000359742 -1.93393e-22)
(1.01509 0.00194659 4.89025e-23)
(1.04491 -0.0148751 1.29842e-20)
(1.0077 0.000179925 7.7173e-23)
(1.01304 0.00409109 -9.28694e-22)
(0.874702 0.0392133 0)
(0.997458 0.0238991 0)
(0.11499 0.386035 -2.22831e-20)
(1.06237 0.0118039 0)
(1.07577 -0.132556 -2.02533e-21)
(0.878281 -0.116506 0)
(0.988963 -0.0248786 0)
(1.00173 0.000680452 4.16593e-25)
(1.00055 0.00172477 -6.47475e-24)
(0.85592 0.308629 0)
(1.01205 0.000504755 0)
(0.991224 -0.017533 0)
(1.0601 0.0133124 5.04632e-22)
(1.04696 -0.00121292 -1.02304e-20)
(1.01143 0.000319041 0)
(1.04938 -0.00728613 -4.27979e-21)
(1.01237 0.00109145 2.20235e-22)
(1.098 0.0524626 0)
(0.943874 0.37609 -2.64554e-20)
(1.01934 0.0223323 0)
(0.99867 0.0221742 -4.6051e-22)
(1.00878 6.70343e-05 8.17908e-25)
(1.01431 0.0222222 0)
(0.115719 0.34714 -8.94191e-21)
(1.01548 0.00147789 0)
(1.00248 0.0128894 8.42955e-22)
(1.01185 -0.000178233 -2.55686e-23)
(1.01373 0.0015582 1.04573e-22)
(1.00566 0.00218911 2.40603e-22)
(1.04875 -0.0342728 -1.13532e-21)
(0.933681 0.330816 9.36667e-21)
(1.00199 0.0113618 7.87594e-22)
(1.09311 0.047579 0)
(1.00469 -0.000112797 0)
(1.0151 0.00224827 -6.98783e-23)
(1.02259 0.000297982 0)
(0.591236 -0.296235 0)
(1.01103 0.000954705 -5.80509e-22)
(0.510121 -0.120034 0)
(1.01421 0.0206138 6.58729e-22)
(1.02477 0.00385267 5.58491e-22)
(1.0389 -0.0050953 4.81543e-21)
(1.01407 0.00384972 1.96033e-21)
(1.00466 -3.58875e-05 1.39908e-22)
(0.689451 0.360693 1.20205e-20)
(1.00908 0.0021812 2.89459e-22)
(0.963982 -0.00105058 0)
(0.793694 0.116002 -5.23233e-21)
(1.0383 -0.00466386 -1.07969e-20)
(1.01524 6.35811e-05 -8.48592e-22)
(0.219597 0.323475 0)
(1.04931 -0.00594341 4.0582e-22)
(1.00605 0.0030293 0)
(0.999107 0.0101618 0)
(1.00917 0.000190444 1.90484e-22)
(1.06672 -0.0230288 7.81256e-22)
(1.03675 -0.00318302 0)
(1.01434 0.000207518 0)
(0.957444 -0.0266314 -8.23344e-22)
(1.00009 0.0110129 -1.37867e-21)
(1.0107 -0.00185224 -6.39383e-22)
(0.96068 0.116983 -3.08462e-21)
(0.997948 0.0289248 0)
(1.02269 5.30944e-05 0)
(1.00664 0.00086236 0)
(1.04529 -0.000102036 -3.60205e-21)
(0.992742 -0.1295 2.32934e-22)
(1.00177 0.00036749 -9.11695e-24)
(0.862264 -0.0642814 0)
(1.04848 -0.0103018 0)
(0.965523 0.408631 0)
(1.01075 0.00091215 0)
(1.00045 0.00169459 5.00211e-24)
(0.952886 0.117973 3.23574e-21)
(0.948825 -0.0173024 1.18798e-21)
(1.01726 0.000144097 3.69054e-21)
(1.01165 0.00255734 -1.13282e-22)
(1.01913 0.00885885 2.99959e-21)
(1.01061 -0.00155133 2.34406e-22)
(1.03643 -0.000333163 0)
(0.999004 0.00950714 0)
(1.00584 0.00202896 -3.21726e-22)
(0.999273 0.00153371 8.36312e-24)
(1.07626 -0.0995303 -4.73455e-22)
(1.00446 0.00239242 0)
(1.00552 0.0001461 0)
(0.486194 -0.1556 0)
(1.02374 0.00424293 -4.43394e-22)
(1.0005 0.0323924 7.67646e-23)
(0.998945 0.00158318 3.64499e-24)
(1.01694 0.000272367 0)
(1.00594 -0.00721746 -4.7321e-22)
(1.01297 0.000399577 -4.2891e-22)
(0.99911 0.0268232 0)
(1.06667 -0.0194062 -4.34352e-21)
(1.01468 0.0031504 -3.29436e-22)
(1.0249 0.00643835 -2.54108e-21)
(1.00052 0.0126979 -1.80469e-22)
(1.00996 0.000173066 -1.69606e-22)
(1.10322 -0.117491 7.51179e-22)
(0.998482 0.010614 -1.57893e-22)
(0.755954 -0.427896 0)
(1.00127 0.0295696 6.76901e-23)
(1.01251 0.000971814 -4.535e-22)
(1.0546 0.187082 1.52422e-20)
(1.03501 -0.112237 0)
(1.07032 -0.0308449 -1.83081e-21)
(1.00176 0.000765858 1.64544e-24)
(1.00422 -0.00490623 -4.5753e-22)
(1.0106 0.000380331 3.95196e-23)
(1.01202 0.00053316 1.85908e-22)
(1.01101 0.00119425 -2.32359e-22)
(1.01266 0.000660202 -9.06975e-23)
(1.02608 0.00296213 0)
(0.124646 0.408457 2.27633e-20)
(1.03474 -0.00295781 7.60602e-21)
(0.998911 0.00627146 0)
(1.0253 0.00450133 0)
(1.00849 0.00716878 0)
(0.857734 0.414841 3.85972e-22)
(1.00451 -0.00759654 3.0423e-22)
(1.0197 0.019277 0)
(1.0033 8.17071e-05 1.06035e-21)
(0.582442 0.0928618 7.83597e-21)
(1.00318 8.93304e-05 0)
(1.02646 0.00993673 -5.07695e-24)
(1.01855 0.000368372 1.82334e-21)
(1.04086 0.00165265 0)
(1.04729 -0.0650062 -1.4791e-21)
(1.02904 0.222559 -1.04263e-20)
(1.04159 1.20949e-05 -4.36678e-22)
(1.01298 0.000919913 0)
(1.02271 0.00558454 8.17512e-22)
(1.02357 0.00442969 2.62559e-22)
(0.676146 0.325657 -7.0581e-20)
(1.00181 0.000533554 0)
(1.00691 0.000207113 -3.95824e-23)
(1.01096 0.00107862 3.11595e-22)
(1.00154 -1.85275e-05 1.14321e-24)
(1.23395 0.0610312 -8.27905e-21)
(1.01062 0.00176067 3.92836e-22)
(1.02476 0.00247275 0)
(0.941375 -0.225188 0)
(0.882257 0.248284 -1.01177e-20)
(1.2259 0.0379378 0)
(1.02469 0.00837662 2.36045e-21)
(0.921193 -0.204087 0)
(1.07581 0.0723789 1.0539e-21)
(1.01297 0.000529973 3.99779e-22)
(1.02076 -0.0465266 -1.14424e-21)
(1.00436 0.00249059 0)
(1.01222 0.000561042 1.18362e-21)
(1.00411 0.00223443 -1.15372e-22)
(1.01631 -0.000164676 1.22713e-22)
(1.00622 0.00284751 0)
(1.01264 0.0197325 -1.78583e-21)
(0.529527 -0.140636 -8.51202e-20)
(1.03481 -0.00236232 0)
(1.0077 -0.00961569 -3.68685e-22)
(1.0388 0.212105 1.05401e-20)
(0.974049 0.401451 1.79775e-20)
(1.01884 0.00241436 0)
(0.984042 0.061124 0)
(1.01785 4.26257e-05 3.45794e-21)
(1.02087 -0.0114776 -4.06657e-21)
(1.01413 0.00148589 -2.06793e-21)
(0.286291 0.314541 0)
(1.00105 0.00418329 5.62698e-24)
(0.862212 0.453645 -3.87657e-22)
(0.197104 0.299993 -3.48173e-20)
(1.00883 0.00742648 0)
(1.04685 -0.101819 0)
(1.00923 0.00898233 0)
(0.868898 -0.11671 0)
(1.01271 0.0182599 -5.74451e-22)
(0.897956 0.0989711 -1.07075e-22)
(1.06958 0.00174836 -5.99893e-21)
(0.976034 -0.0186551 4.67074e-22)
(1.03404 -0.0019372 -8.31357e-22)
(1.02668 0.0737573 9.94343e-22)
(1.01503 -0.00604033 1.99092e-22)
(1.07453 0.0161165 -3.95821e-21)
(0.741652 0.38536 -3.67582e-20)
(1.00657 0.00208197 2.29919e-22)
(1.01423 -0.00522524 -8.57967e-23)
(1.01025 6.97253e-05 1.42923e-22)
(1.01533 0.23075 8.56201e-21)
(1.0121 0.000630114 0)
(1.00389 0.00184278 -8.71359e-23)
(1.0072 -0.111756 0)
(1.00686 -0.00891237 0)
(1.05913 0.0784465 2.14637e-22)
(0.922302 0.0892852 1.92773e-21)
(1.01528 0.00146456 -1.24567e-21)
(1.06534 -0.0323838 -2.14691e-21)
(1.00826 -0.0086857 -1.23407e-22)
(1.0053 0.00249368 1.3836e-22)
(1.07092 0.00389418 3.28928e-21)
(0.823881 -0.0111519 -8.63734e-21)
(1.00958 0.00854989 0)
(1.03977 0.0021747 0)
(0.732112 -0.425335 -6.09355e-22)
(1.02571 0.00198695 2e-22)
(1.00507 0.000171252 0)
(0.779262 -0.370001 -1.4928e-19)
(1.00941 0.001582 0)
(1.03333 0.0010606 0)
(0.976207 0.0331571 -6.30491e-23)
(0.425966 -0.152884 1.20562e-20)
(0.593824 -0.243262 0)
(0.998958 0.00127956 -6.51334e-24)
(1.02378 0.0643382 0)
(0.743183 -0.240925 -5.52432e-21)
(0.988022 0.0864815 2.15807e-21)
(1.00363 0.00196449 0)
(1.02351 0.00565132 3.99734e-22)
(0.943695 0.101372 7.29254e-22)
(0.941926 0.0956933 -1.1597e-21)
(1.02587 -0.0445415 -3.15727e-21)
(1.01696 0.00194285 -1.92613e-21)
(1.01111 0.00133919 2.38815e-22)
(1.00061 0.00683486 -2.1769e-22)
(0.578268 -0.137044 1.21235e-19)
(1.0042 0.00210003 9.31709e-23)
(1.0009 0.00157591 -8.36131e-24)
(1.00932 0.000279263 6.7296e-22)
(1.01834 0.00269832 1.85578e-21)
(1.0166 0.00232529 -2.80246e-22)
(1.01706 0.00209978 3.28702e-22)
(1.01596 0.000103968 0)
(1.00925 0.000106013 0)
(0.998516 0.0113483 -8.28221e-23)
(1.03774 -0.00579653 5.28057e-21)
(1.03301 0.00342343 0)
(0.998222 0.0014685 0)
(0.768799 -0.252873 -2.34992e-21)
(1.00874 0.00446495 -3.03208e-22)
(0.242362 0.213452 -1.29247e-20)
(0.735739 -0.416168 -2.2668e-20)
(0.899493 0.000273625 -1.50081e-21)
(1.01043 0.000203633 2.09247e-22)
(1.0437 -0.00951493 1.21375e-20)
(1.00637 0.000217725 0)
(1.00684 0.388773 1.71639e-20)
(1.02372 0.000977689 -3.36231e-21)
(0.999507 -0.006224 6.52954e-22)
(1.0341 -0.00134254 -5.62861e-21)
(0.899538 0.0123229 9.34489e-22)
(1.01007 0.000408039 0)
(1.04834 -0.00808887 0)
(1.00088 0.00151809 1.21186e-23)
(1.02245 0.00589714 -3.84882e-22)
(0.856591 0.0485273 -5.42928e-22)
(1.00568 0.000274718 0)
(1.01161 0.00039359 0)
(1.01144 0.00300415 9.27178e-22)
(0.894031 0.101796 -7.32839e-21)
(1.01191 -5.84209e-05 2.65606e-23)
(1.00192 -0.00555783 0)
(0.946328 0.0192361 -1.87035e-22)
(1.0609 -0.10397 4.31602e-21)
(1.00844 0.00666193 2.04136e-22)
(1.00082 -0.00502877 -2.02029e-22)
(0.956095 -0.0446515 1.82696e-22)
(0.813534 -0.345345 -1.51006e-20)
(1.02796 0.00511708 3.20996e-21)
(1.01022 0.00034092 0)
(0.971439 -0.00544077 -8.06637e-23)
(0.892568 0.102636 6.9881e-21)
(1.11339 -0.00749148 -1.39446e-21)
(1.11535 0.0507975 2.26658e-21)
(1.00954 0.000289578 4.68944e-23)
(0.99944 0.00156464 -7.47308e-25)
(1.06262 0.0572618 -9.27038e-22)
(1.06957 0.0378426 1.04238e-21)
(1.0547 0.0125658 2.6432e-22)
(1.12789 -0.118724 1.09148e-21)
(1.00867 0.00646569 -1.90295e-22)
(1.01657 0.0019167 0)
(1.02962 0.010832 3.20422e-21)
(0.945718 -0.0511229 -1.10506e-23)
(1.01591 0.00399263 1.43739e-21)
(0.887587 -0.156412 3.06776e-21)
(1.01817 0.0025703 -1.83474e-21)
(1.0273 0.00345386 3.37138e-21)
(1.00974 0.00420929 -1.10294e-22)
(1.07305 0.0201461 -3.91846e-21)
(1.12035 0.0241343 -2.03404e-21)
(1.0295 0.0134774 -1.12817e-22)
(1.03967 0.00316595 0)
(1.14726 -0.0611258 -8.98922e-23)
(0.997997 -0.00374001 0)
(1.02164 0.0758682 2.66645e-21)
(1.02921 0.0126623 2.56636e-21)
(1.01231 -0.000151721 -3.65999e-23)
(0.999384 0.00156646 0)
(0.816241 -0.327442 1.86725e-20)
(1.02549 0.00867727 -2.76521e-21)
(1.007 0.00374964 -1.72787e-22)
(0.952413 0.0146953 -8.46761e-23)
(1.01902 0.00996532 -2.25074e-21)
(1.02304 0.00633088 2.4009e-21)
(0.991944 0.114547 1.97904e-22)
(1.01203 0.000855631 2.09955e-22)
(0.87836 0.336248 9.24548e-21)
(1.01312 0.00101308 0)
(1.09122 0.0718454 0)
(1.01694 0.00971333 3.19804e-22)
(0.337354 0.313902 -1.31151e-21)
(1.01621 0.00403998 -2.85874e-21)
(1.04376 -0.0106086 -1.17005e-20)
(1.01607 0.000962229 6.20266e-22)
(1.01207 -0.00050972 2.84122e-22)
(1.13449 -0.0561141 -5.22188e-21)
(1.00174 0.000745628 -9.61929e-24)
(1.03747 -0.289894 -2.09886e-21)
(1.11221 -0.0146069 3.86376e-21)
(1.01065 0.0021493 1.50618e-22)
(1.01006 -0.00713053 4.30664e-22)
(0.738914 -0.428371 0)
(0.841256 0.0125273 0)
(0.999844 0.0022048 0)
(1.00986 7.65748e-05 1.54495e-22)
(1.00681 0.00377581 0)
(1.0044 0.00179245 0)
(1.00243 0.00486169 1.06376e-22)
(1.02098 0.00729725 2.26687e-22)
(1.02851 0.0105896 -3.71613e-21)
(0.917082 0.0893694 -2.3665e-21)
(1.02008 0.00811853 -3.57777e-21)
(1.00184 0.000193904 7.87818e-24)
(0.64647 -0.237636 9.40439e-20)
(1.05188 -0.00720854 -4.3424e-21)
(1.02199 0.00717515 1.28786e-22)
(1.00497 0.000103336 -3.12366e-22)
(1.01182 0.000490171 0)
(0.697804 -0.181212 -5.71035e-20)
(1.0475 -0.057484 1.21234e-21)
(1.01615 0.00944388 6.49801e-23)
(1.14015 -0.0989439 6.9141e-21)
(1.02177 -0.000237786 0)
(1.04408 -0.0124148 -6.78349e-21)
(1.00755 0.00477461 0)
(1.01076 0.00228484 2.61544e-22)
(1.01122 0.00217665 2.23101e-22)
(1.01165 0.00216035 -3.34141e-24)
(1.02703 0.00838954 2.68445e-21)
(1.00948 -0.000361355 0)
(0.243136 0.339635 -2.61396e-21)
(1.03336 -0.000346518 -5.56933e-21)
(1.04902 0.138594 7.99515e-22)
(1.01368 0.00314678 3.70136e-21)
(1.01396 0.0100272 -2.52551e-23)
(1.006 0.00209536 1.44904e-22)
(1.02323 0.0820829 0)
(0.874545 -0.0508571 2.90379e-21)
(1.01077 0.00191742 -2.23108e-22)
(1.01399 0.00356964 -2.01838e-21)
(0.999083 0.0015976 1.32075e-23)
(0.99946 -0.00272507 0)
(1.00638 0.00206551 -1.6068e-22)
(0.881717 0.266448 -1.40569e-20)
(1.01276 0.000756965 -6.12307e-22)
(1.00002 0.0110599 0)
(1.01187 0.000185985 0)
(1.01384 0.00062916 1.90812e-21)
(1.01204 -0.000405526 -2.51778e-22)
(0.618578 0.10137 6.69801e-22)
(1.00618 0.00192126 -1.50109e-22)
(1.01265 0.0026789 0)
(1.01033 0.00173127 -4.59541e-22)
(0.859821 0.277517 1.24269e-20)
(1.00138 3.40982e-06 1.30163e-24)
(1.01144 0.00193605 3.40558e-24)
(1.01019 -0.00029657 0)
(0.944056 0.0552794 -1.06481e-21)
(1.01892 0.00265183 1.90713e-21)
(1.01448 0.00530674 6.76166e-22)
(1.01016 0.000500125 -1.95535e-22)
(1.01472 0.00551911 0)
(1.05696 0.0115521 0)
(1.01336 0.00455678 0)
(1.01338 0.00965909 -2.20595e-22)
(1.00757 0.00492748 1.97767e-22)
(0.167475 0.306652 0)
(0.907298 0.101342 3.0217e-21)
(0.825419 0.0300278 8.98408e-22)
(1.01141 0.0172986 5.90599e-22)
(1.04371 -0.00891421 9.80522e-21)
(1.01597 0.00115095 1.38686e-21)
(0.97866 0.0975678 -2.12221e-21)
(1.0182 -0.000191046 2.52502e-23)
(1.06908 -0.111031 -4.16641e-22)
(1.06552 -0.0787518 2.37208e-21)
(0.831231 0.0189205 3.88405e-22)
(0.999822 0.0103906 0)
(1.0011 -0.0223484 2.90183e-23)
(1.02145 -0.000206261 0)
(1.02513 0.00713169 -3.9594e-23)
(0.970229 -0.0947996 -3.34086e-21)
(0.946184 0.0498092 1.19246e-21)
(1.00681 -0.00772665 -3.49145e-22)
(0.963283 -0.0266477 0)
(1.03166 0.00148722 7.30933e-23)
(1.02826 -0.0377573 1.34667e-22)
(1.01265 0.000850695 3.81087e-22)
(1.02796 0.00642981 -2.6032e-21)
(1.00861 0.00474377 2.05398e-22)
(1.01188 4.86149e-05 -2.65472e-23)
(1.01157 0.000446425 0)
(0.961904 -0.0877929 2.13567e-21)
(1.03852 -0.00403477 2.21368e-21)
(1.00327 0.000200693 -3.22313e-23)
(0.406572 -0.0231764 0)
(1.01859 0.00723766 0)
(0.984985 0.102033 0)
(1.00074 0.00161994 1.77408e-23)
(1.03718 -0.00532584 0)
(1.00303 -0.00458058 0)
(1.00998 0.000313943 3.80014e-23)
(1.09232 -0.100869 4.74075e-22)
(1.01457 4.29171e-05 0)
(1.01188 0.00253271 8.38043e-22)
(1.0573 0.129297 9.02938e-22)
(1.02779 0.0039634 -3.46935e-21)
(1.00186 0.000257786 -1.06113e-23)
(1.0075 9.13653e-06 -3.3826e-22)
(1.01312 0.000812792 -2.41828e-22)
(1.012 0.000786623 7.30781e-23)
(1.00189 0.0447621 -2.15915e-21)
(0.99195 0.123527 0)
(0.909634 0.0955704 0)
(1.02907 -0.00191771 0)
(1.01364 0.00142134 -2.33823e-23)
(1.0129 0.00079363 3.49043e-22)
(1.03345 -0.0429419 0)
(1.02901 0.0267328 0)
(1.01208 -0.000383366 0)
(1.0062 0.000671339 -2.77015e-23)
(1.01122 0.00115762 -1.66992e-22)
(1.01222 -0.0381279 1.6556e-22)
(0.601009 -0.359829 -3.03837e-21)
(0.999777 0.00176488 -1.26674e-23)
(1.01712 0.0202076 0)
(1.01389 -5.22741e-05 -2.07947e-21)
(0.251886 0.242454 1.07233e-20)
(1.04336 -0.0113121 8.75967e-21)
(1.0281 0.0026258 -7.57939e-22)
(1.04001 0.0793822 0)
(0.998494 0.000575064 1.23627e-24)
(0.989783 0.44366 -8.19745e-21)
(1.0241 -0.043979 0)
(1.01263 0.000888501 -7.08878e-24)
(1.01028 5.68704e-06 1.35946e-22)
(1.01478 -0.000189238 5.63263e-24)
(1.03821 0.0820825 9.63654e-22)
(1.0125 0.000885556 -6.18889e-22)
(1.04402 -0.0092677 0)
(1.01624 0.00140246 -1.14397e-22)
(1.00177 0.000832808 1.00888e-23)
(1.00465 -0.00580579 0)
(1.01813 0.00316129 -3.85742e-22)
(0.487886 0.116379 -7.56527e-21)
(0.650123 0.191063 0)
(1.00565 0.00314256 -1.62774e-23)
(1.015 0.00377094 -2.86428e-21)
(1.0036 0.00164322 -9.06366e-23)
(0.998992 0.00138565 4.41696e-24)
(1.01193 0.000124226 -1.79761e-22)
(0.889817 0.12633 6.61434e-22)
(1.02129 0.00540436 -1.09202e-21)
(0.482644 -0.274633 9.74596e-21)
(1.01352 0.00113674 -1.21489e-22)
(1.01175 -0.00268199 0)
(1.01093 0.00191647 3.80803e-22)
(1.01647 0.00207076 3.94836e-21)
(1.02418 0.00622482 1.96658e-21)
(1.00119 0.00130588 0)
(1.02386 0.000690342 3.70749e-21)
(1.03499 -0.00041036 0)
(1.00646 -0.00903807 3.91655e-22)
(1.04719 -0.00752806 0)
(0.925779 0.0318926 6.72489e-23)
(1.02055 -0.000563131 6.42662e-22)
(0.954586 0.0486344 0)
(0.998181 0.000338681 -1.68198e-24)
(1.01737 -0.000121502 -5.60415e-22)
(1.03075 -0.505138 3.74062e-21)
(1.01309 0.00265094 1.79899e-21)
(1.01133 0.00276827 -6.34513e-24)
(1.00086 0.00435235 0)
(1.00943 -2.29723e-05 0)
(1.13906 -0.0904473 1.31348e-20)
(1.0162 0.00105638 1.29965e-22)
(1.01164 0.0159934 1.17288e-21)
(1.00964 0.00452734 -1.14114e-22)
(0.721298 0.333994 7.83543e-21)
(1.01178 -0.00253495 -3.77825e-22)
(1.03836 0.0746071 -9.37263e-22)
(1.09708 -0.0184512 -3.31623e-21)
(1.01374 0.00124816 0)
(1.12955 0.138835 -6.15122e-21)
(1.04675 0.0741271 2.83083e-21)
(1.00071 0.0015337 -4.43611e-24)
(1.01222 -0.000894978 0)
(0.966931 -0.037848 -1.63489e-21)
(1.0042 0.000119466 -1.35659e-21)
(1.00933 -0.284721 -9.15883e-21)
(1.00893 -0.00884404 5.05189e-23)
(1.01103 0.0193172 7.7134e-22)
(1.00375 -0.00681635 1.03217e-22)
(1.02842 -0.00158744 0)
(1.02877 0.00507511 -6.8276e-21)
(1.01051 0.00094757 4.71555e-24)
(1.03695 0.0564365 -1.59378e-21)
(1.00059 0.00403133 -6.99236e-23)
(0.995758 0.024542 -5.62307e-23)
(1.08203 -0.151154 -1.11904e-20)
(1.00174 0.000809242 0)
(1.00202 0.00466997 7.05096e-24)
(1.01848 -9.16652e-05 1.30743e-21)
(0.974114 0.0289789 5.03597e-22)
(1.00447 0.000111044 -1.46053e-21)
(0.904463 0.143513 -1.96792e-22)
(1.03183 -0.00257697 0)
(1.02561 0.0095939 2.83225e-21)
(1.05574 -0.0939686 -1.67802e-21)
(1.01333 0.000932017 8.69193e-24)
(0.978597 -0.0404942 -3.6132e-22)
(1.075 0.0383905 -2.02978e-21)
(1.01457 0.000172281 0)
(1.01466 0.0601461 1.86072e-22)
(1.00271 0.00769579 1.47243e-22)
(1.0132 0.00240897 6.3372e-24)
(1.01725 0.00502271 0)
(1.06877 0.0681931 -9.53752e-22)
(1.0106 0.00109383 0)
(0.965862 0.445962 0)
(1.03417 -2.68769e-05 0)
(1.06113 0.0704673 4.08799e-21)
(1.044 -0.00937276 0)
(0.885731 0.0884566 3.54145e-21)
(1.01649 0.00467652 0)
(1.06744 0.0329365 3.94141e-21)
(1.00034 0.00255778 0)
(1.03585 -0.000132891 0)
(1.09535 -0.0128159 3.03319e-21)
(1.0093 0.00182477 0)
(1.06861 0.0600307 0)
(1.01227 0.00282814 -3.19319e-23)
(1.03321 -0.00275439 3.38305e-21)
(1.01145 -0.00275168 -1.90204e-22)
(1.01509 0.00107111 4.88717e-22)
(1.04404 -0.00202986 -2.7021e-22)
(1.12026 0.00191706 -2.29606e-21)
(1.00963 0.000193156 0)
(1.0304 -0.000314399 6.08067e-21)
(0.999045 0.00120545 -4.23981e-25)
(1.00934 0.00145339 2.13482e-23)
(1.01356 0.000991667 2.4256e-22)
(1.01407 0.00315931 1.9698e-21)
(1.00381 0.00200081 0)
(0.999661 0.00178473 1.513e-23)
(1.0105 0.010156 -1.09336e-22)
(1.01277 0.0251636 -7.04211e-22)
(1.00097 0.00895834 0)
(0.999068 0.00105633 0)
(1.02365 0.00660047 -1.84597e-21)
(1.02363 0.00102081 0)
(0.984777 -0.268231 0)
(1.01114 0.000986068 -1.30295e-22)
(1.01388 0.00311224 0)
(1.00351 0.00179119 0)
(1.12907 0.00652498 4.54808e-21)
(0.998405 0.000611806 3.26537e-24)
(1.05193 -0.00564486 4.81872e-21)
(1.01162 0.000348807 2.33283e-22)
(1.12615 0.0242467 5.72368e-21)
(0.860185 -0.295553 0)
(0.363551 -0.0213192 0)
(1.01954 0.00413203 0)
(1.13148 -0.0272944 1.03212e-20)
(0.850956 -0.232466 1.30324e-21)
(0.857249 0.0373166 -2.87762e-22)
(1.00246 0.00740148 0)
(1.00113 0.00139281 5.73322e-24)
(1.00175 0.00467583 -3.20759e-24)
(0.979338 0.0255639 2.38768e-21)
(0.999609 0.101909 -6.53128e-22)
(1.03337 -0.000965046 5.99781e-21)
(0.249223 0.169659 -2.4501e-20)
(1.01343 0.0230672 0)
(1.01296 0.0518833 -2.40977e-22)
(1.14203 -0.0548408 -1.32863e-20)
(1.01109 0.00287755 -2.37738e-22)
(1.00656 0.0149006 -8.79513e-22)
(1.03387 -0.295469 2.0735e-21)
(0.939762 -0.021848 1.59192e-22)
(0.904957 0.308329 -5.45137e-21)
(1.04031 0.0572941 0)
(0.223298 0.285049 -6.11799e-21)
(1.01258 0.0231847 0)
(1.03464 -0.0596176 -2.42984e-22)
(1.02745 0.00452546 5.17921e-23)
(1.00123 0.00853539 1.18261e-22)
(1.0096 0.000172185 4.55263e-24)
(1.0266 -0.024994 6.66708e-22)
(1.00198 0.000542531 2.56015e-23)
(1.02892 0.00651617 2.69398e-21)
(1.01452 0.00384665 0)
(0.901128 0.22397 6.83842e-21)
(1.01545 0.00172402 1.91656e-22)
(1.00175 0.000910852 0)
(0.606407 -0.19895 -4.71185e-20)
(1.02558 0.00393079 3.20509e-21)
(1.05392 -0.0136631 2.37919e-21)
(1.02065 0.00420256 3.45618e-22)
(0.996972 0.0227925 2.18266e-22)
(1.00259 0.000336665 0)
(1.04082 0.0037567 5.16369e-21)
(1.01158 0.0117462 0)
(1.01477 0.00365238 0)
(1.01879 0.00675736 1.69632e-21)
(1.04392 -0.00959354 0)
(1.01208 0.000828286 5.85345e-22)
(0.711481 -0.431772 -2.97038e-20)
(1.01171 0.0222077 -8.85758e-22)
(0.948187 0.0262638 0)
(1.01583 0.00173339 0)
(0.915037 0.0955307 2.50185e-21)
(1.0119 0.000727498 -5.18328e-22)
(0.982186 -0.0516881 1.67461e-21)
(0.998891 0.00147196 5.77149e-24)
(1.00038 0.00393599 -2.53033e-24)
(1.01899 0.0077086 -3.40106e-21)
(1.00468 0.00245558 5.68228e-23)
(1.01434 0.00380281 0)
(1.01803 0.000357927 0)
(0.845199 0.0282935 -6.33703e-22)
(1.00497 0.0762502 0)
(1.01309 0.00076186 -3.61954e-23)
(0.884434 0.0795317 -3.5951e-21)
(1.0086 0.000478229 -1.85457e-22)
(1.01462 0.00092076 -2.0267e-21)
(1.09536 -0.132834 -8.26978e-21)
(1.00394 0.00124746 -9.43719e-23)
(1.01838 0.000574847 -1.03684e-21)
(0.872234 0.0788964 0)
(1.01237 0.000886597 0)
(0.947617 0.0755854 0)
(1.04316 -0.00130364 -1.93862e-21)
(1.03759 0.106797 0)
(1.04992 -0.0141007 -1.48005e-21)
(1.00443 0.0702531 0)
(1.00903 -0.00764156 2.70286e-23)
(1.01986 0.00884279 3.08396e-21)
(0.519101 0.0781922 0)
(0.419591 0.137019 0)
(1.01375 0.00340847 -2.93391e-23)
(1.05734 0.0594192 -2.90737e-21)
(0.462067 0.0827214 -4.99164e-21)
(0.71361 -0.429251 0)
(1.17036 -0.0287463 0)
(1.00336 0.000119665 -3.05928e-23)
(1.01206 -0.00161676 1.9124e-22)
(1.00022 0.0024611 0)
(1.02724 0.00933224 2.65004e-21)
(1.00269 0.00701093 2.22708e-24)
(0.990886 -0.0129251 0)
(1.04398 -0.00889793 9.25205e-21)
(1.00432 0.00187939 -1.06898e-22)
(1.03554 -0.0178 -7.7555e-21)
(0.922056 0.0060748 4.52244e-22)
(0.998199 0.000398907 1.08962e-24)
(1.0046 0.00192585 4.65238e-23)
(1.00352 0.00149039 7.47759e-23)
(1.00366 0.000167168 1.5423e-23)
(1.0324 0.00185008 -5.26628e-21)
(0.895774 0.240476 -2.76772e-21)
(0.988066 0.0354756 2.19762e-21)
(1.01052 0.00528819 1.17405e-22)
(1.04495 -0.0101496 0)
(0.996865 0.0188846 8.59306e-22)
(1.01008 0.00137977 5.03995e-23)
(1.01353 0.000524609 -6.74532e-23)
(0.308427 -0.0400509 0)
(1.03047 0.0301627 -3.08816e-21)
(0.991638 -0.00648845 -1.87115e-22)
(1.0025 0.00606526 -1.32225e-22)
(1.00996 -0.000470642 0)
(1.02974 -0.00115414 -1.28424e-21)
(1.01015 0.00965102 1.11051e-22)
(0.992681 0.0981708 6.45164e-22)
(0.949295 -0.0240593 -7.00858e-22)
(1.01089 0.00126108 -6.56125e-22)
(0.953746 -0.0386625 -1.00061e-21)
(0.871883 0.0278685 0)
(0.912344 0.0839952 0)
(1.05078 -0.00503432 -6.60532e-21)
(1.03087 0.0282714 3.07946e-21)
(0.270366 0.0611554 0)
(1.03072 -0.0201958 0)
(1.11548 0.0239405 1.55242e-20)
(1.03811 -0.00996358 1.52556e-20)
(1.02452 0.00757389 3.96532e-23)
(1.01347 0.000208778 1.79438e-22)
(0.901045 0.0813265 0)
(0.842242 -0.0251322 0)
(1.0131 -0.00481305 -1.19847e-22)
(1.04518 -0.00968635 -2.0813e-21)
(1.02346 -0.0212693 0)
(1.01214 0.00305059 3.49265e-22)
(0.958103 0.0328043 0)
(1.01239 -0.00512007 -3.29522e-23)
(1.01353 0.00290077 0)
(1.00568 0.000227051 2.4951e-22)
(1.0329 -0.0172931 1.12304e-20)
(1.01295 0.00244297 -4.41035e-22)
(1.01433 0.00401119 0)
(0.352122 0.397897 2.54422e-20)