/*--------------------------------*- C++ -*----------------------------------*\
| =========                 |                                                 |
| \\      /  F ield         | OpenFOAM: The Open Source CFD Toolbox           |
|  \\    /   O peration     | Version:  v2012                                 |
|   \\  /    A nd           | Website:  www.openfoam.com                      |
|    \\/     M anipulation  |                                                 |
\*---------------------------------------------------------------------------*/
FoamFile
{
    version     2.0;
    format      ascii;
    class       volVectorField;
    location    "300";
    object      cellDisplacement;
}
// * * * * * * * * * * * * * * * * * * * * * * * * * * * * * * * * * * * * * //

dimensions      [0 1 0 0 0 0 0];


internalField   nonuniform List<vector> 
10042
(
(0 -0.00228229 0)
(0 -0.00206499 0)
(0 -0.00239535 0)
(0 -0.000108285 0)
(0 2.54757e-05 0)
(0 -0.00194223 0)
(0 -0.000192579 0)
(0 -0.000133315 0)
(0 -0.00250495 0)
(0 -0.00188888 0)
(0 3.29915e-05 0)
(0 -0.000206597 0)
(0 -0.00153922 0)
(0 -0.000957297 0)
(0 -0.000656018 0)
(0 -0.00209994 0)
(0 -0.00214264 0)
(0 -0.000227412 0)
(0 -0.00229369 0)
(0 1.9451e-05 0)
(0 -0.00183888 0)
(0 -0.000353988 0)
(0 -0.000505392 0)
(0 -0.00185072 0)
(0 -0.00201692 0)
(0 -0.00113563 0)
(0 -0.00151675 0)
(0 -0.000989167 0)
(0 -0.00220822 0)
(0 -0.0011853 0)
(0 -0.00207475 0)
(0 3.30262e-05 0)
(0 -0.00183183 0)
(0 -0.00139569 0)
(0 -0.000918007 0)
(0 -0.0018209 0)
(0 -0.00114918 0)
(0 -0.00120753 0)
(0 -0.00173151 0)
(0 -0.000328442 0)
(0 2.1066e-05 0)
(0 -0.000746904 0)
(0 -0.000209468 0)
(0 -0.00153845 0)
(0 2.58999e-05 0)
(0 -0.000711646 0)
(0 -0.00109796 0)
(0 -0.000760463 0)
(0 -0.00108597 0)
(0 -0.001378 0)
(0 -0.000275563 0)
(0 -0.00302385 0)
(0 -0.000750671 0)
(0 -0.00264611 0)
(0 -0.00112226 0)
(0 -0.00197778 0)
(0 -0.00220513 0)
(0 -0.00113544 0)
(0 -0.00143371 0)
(0 -0.000775569 0)
(0 -0.00205615 0)
(0 -0.00223057 0)
(0 -0.000868218 0)
(0 -0.00240265 0)
(0 -0.00105803 0)
(0 -0.00147221 0)
(0 -0.00130078 0)
(0 3.66859e-06 0)
(0 3.11856e-05 0)
(0 -0.00187319 0)
(0 -0.00269191 0)
(0 2.33299e-05 0)
(0 -0.00151985 0)
(0 -0.000146311 0)
(0 -0.00133349 0)
(0 -0.00193251 0)
(0 2.65977e-05 0)
(0 -0.00229589 0)
(0 -0.000208574 0)
(0 -0.000152413 0)
(0 -0.00112604 0)
(0 2.41837e-05 0)
(0 -0.00161669 0)
(0 -0.000859345 0)
(0 -0.0012949 0)
(0 -0.000833046 0)
(0 -0.00226794 0)
(0 -1.19164e-05 0)
(0 -0.00167589 0)
(0 -0.00227668 0)
(0 -0.00173764 0)
(0 2.4512e-05 0)
(0 -0.00095722 0)
(0 -0.00304176 0)
(0 -0.0012182 0)
(0 -0.00191645 0)
(0 -0.00238022 0)
(0 -0.00193077 0)
(0 -0.000353748 0)
(0 -0.00228626 0)
(0 -4.24193e-05 0)
(0 -5.20512e-05 0)
(0 -0.000161368 0)
(0 -0.000890537 0)
(0 -0.00101716 0)
(0 -9.04526e-05 0)
(0 -0.00218075 0)
(0 -0.00238399 0)
(0 -0.00177568 0)
(0 -0.00298837 0)
(0 -0.000567864 0)
(0 -0.00212658 0)
(0 -0.000678711 0)
(0 3.17915e-05 0)
(0 -0.00108429 0)
(0 -0.002148 0)
(0 -0.00201588 0)
(0 -0.0022852 0)
(0 -0.0019452 0)
(0 3.2454e-05 0)
(0 -0.00170238 0)
(0 -0.000148234 0)
(0 -0.00149977 0)
(0 -0.00203338 0)
(0 -6.09526e-05 0)
(0 -0.0015888 0)
(0 -0.000127829 0)
(0 -0.000860449 0)
(0 -9.78618e-05 0)
(0 -0.00226542 0)
(0 -0.000191175 0)
(0 -0.00145976 0)
(0 3.28369e-05 0)
(0 -0.000155872 0)
(0 -0.00228349 0)
(0 -0.000126773 0)
(0 3.28599e-05 0)
(0 -0.00169344 0)
(0 -0.000713075 0)
(0 -6.04661e-06 0)
(0 -0.000932647 0)
(0 -0.00199505 0)
(0 -0.00105651 0)
(0 -5.30828e-05 0)
(0 -0.00309759 0)
(0 -0.00214443 0)
(0 -0.000175862 0)
(0 -0.00322311 0)
(0 -0.00189056 0)
(0 -0.000592388 0)
(0 -0.00253932 0)
(0 -9.69123e-05 0)
(0 -6.84459e-05 0)
(0 3.25074e-05 0)
(0 -0.0011122 0)
(0 -0.00143065 0)
(0 -0.000794809 0)
(0 -0.00223425 0)
(0 -0.000112504 0)
(0 3.29054e-05 0)
(0 3.30207e-05 0)
(0 -0.000188838 0)
(0 -0.00214345 0)
(0 -0.00250888 0)
(0 -0.00153925 0)
(0 -0.00150022 0)
(0 -3.06594e-05 0)
(0 3.27627e-05 0)
(0 3.30384e-05 0)
(0 3.22977e-05 0)
(0 -0.00264102 0)
(0 -0.00232009 0)
(0 2.3216e-05 0)
(0 2.30277e-05 0)
(0 -0.00010588 0)
(0 -0.000359636 0)
(0 3.26743e-05 0)
(0 -0.00151592 0)
(0 8.52443e-06 0)
(0 -0.000423866 0)
(0 -0.000754689 0)
(0 3.29824e-05 0)
(0 -0.0012593 0)
(0 -0.000858702 0)
(0 -0.000778121 0)
(0 3.23464e-05 0)
(0 -9.07171e-05 0)
(0 -0.00161324 0)
(0 3.29336e-05 0)
(0 -0.00127271 0)
(0 3.24374e-05 0)
(0 -0.00103672 0)
(0 -7.93181e-05 0)
(0 2.12166e-05 0)
(0 -0.000334416 0)
(0 1.21648e-05 0)
(0 -0.00134021 0)
(0 -0.0022312 0)
(0 -0.0012949 0)
(0 -0.000984223 0)
(0 -0.000107513 0)
(0 -0.00159262 0)
(0 -0.00214805 0)
(0 2.33045e-05 0)
(0 -0.00125147 0)
(0 -0.0024928 0)
(0 3.25689e-05 0)
(0 -0.00139028 0)
(0 -0.000266253 0)
(0 -0.000616962 0)
(0 8.43866e-06 0)
(0 -0.000403443 0)
(0 -3.75724e-05 0)
(0 2.15904e-05 0)
(0 -0.000828875 0)
(0 -7.87776e-05 0)
(0 -0.00145765 0)
(0 -0.00222822 0)
(0 -0.000180977 0)
(0 -0.00232832 0)
(0 -0.000670074 0)
(0 -0.000778449 0)
(0 1.94571e-05 0)
(0 -0.00117567 0)
(0 -0.000438719 0)
(0 -0.00113086 0)
(0 -0.000125382 0)
(0 -0.00214672 0)
(0 -0.000114047 0)
(0 -0.00268889 0)
(0 -0.00252846 0)
(0 1.87963e-05 0)
(0 -0.00231831 0)
(0 -0.00272986 0)
(0 -0.00235365 0)
(0 -0.000574474 0)
(0 -0.00242288 0)
(0 -0.000835034 0)
(0 -0.00175376 0)
(0 -0.00229027 0)
(0 -0.00212647 0)
(0 -0.00147846 0)
(0 -0.00159098 0)
(0 -0.00064248 0)
(0 -0.00217667 0)
(0 -0.00207568 0)
(0 -0.000576216 0)
(0 -0.000981523 0)
(0 -0.00266264 0)
(0 -0.000174756 0)
(0 -0.000935668 0)
(0 -0.00191632 0)
(0 -0.000635828 0)
(0 2.17872e-05 0)
(0 -0.000179175 0)
(0 3.30088e-05 0)
(0 -9.30307e-05 0)
(0 -0.000120022 0)
(0 -0.000624851 0)
(0 -0.000633515 0)
(0 -0.00029965 0)
(0 -0.00179608 0)
(0 -0.00219025 0)
(0 -0.000807141 0)
(0 -0.000999535 0)
(0 -0.00241869 0)
(0 -0.000349364 0)
(0 -0.00222734 0)
(0 -0.0022566 0)
(0 -0.00053299 0)
(0 -9.59366e-05 0)
(0 -0.00263149 0)
(0 1.98466e-05 0)
(0 -0.000107036 0)
(0 -1.52286e-05 0)
(0 -0.00122308 0)
(0 -0.00233382 0)
(0 -0.00239531 0)
(0 -0.00173501 0)
(0 -0.00304481 0)
(0 -0.000399059 0)
(0 -0.00181319 0)
(0 -0.00110729 0)
(0 3.26776e-05 0)
(0 -0.00248069 0)
(0 -0.00232628 0)
(0 -0.00028313 0)
(0 -0.000665643 0)
(0 -0.00166046 0)
(0 -0.00203846 0)
(0 -0.000676709 0)
(0 -0.000387573 0)
(0 -0.000388012 0)
(0 -5.01731e-05 0)
(0 -0.000233302 0)
(0 -0.00118352 0)
(0 -0.00212944 0)
(0 -0.00246377 0)
(0 -0.000135215 0)
(0 -0.00204844 0)
(0 -0.00208301 0)
(0 -0.00233732 0)
(0 -0.00144885 0)
(0 -0.00131469 0)
(0 -0.000634655 0)
(0 -4.82432e-05 0)
(0 1.9854e-05 0)
(0 -0.00082225 0)
(0 -1.66231e-05 0)
(0 -0.00221866 0)
(0 -0.00177023 0)
(0 -0.0016016 0)
(0 3.30298e-05 0)
(0 -7.05847e-05 0)
(0 1.8334e-05 0)
(0 3.27843e-05 0)
(0 -0.00204349 0)
(0 -0.00223479 0)
(0 -0.0018432 0)
(0 -0.000638653 0)
(0 -0.00110037 0)
(0 -0.000532168 0)
(0 -0.000342616 0)
(0 -0.000589838 0)
(0 -0.000675824 0)
(0 -0.00149595 0)
(0 -4.01358e-05 0)
(0 -0.000160977 0)
(0 -0.00131553 0)
(0 -0.00154107 0)
(0 -0.000668282 0)
(0 3.23619e-05 0)
(0 -0.00219186 0)
(0 -0.00121895 0)
(0 -0.000730648 0)
(0 -0.00245517 0)
(0 -0.000203352 0)
(0 -0.000336431 0)
(0 -0.000121685 0)
(0 -2.82769e-05 0)
(0 -0.00127032 0)
(0 -0.000899595 0)
(0 -0.0015005 0)
(0 -0.000970048 0)
(0 -0.00175121 0)
(0 -0.000188876 0)
(0 -5.25934e-05 0)
(0 -0.00180142 0)
(0 -0.00143461 0)
(0 -0.000936586 0)
(0 -0.00212662 0)
(0 -0.000590761 0)
(0 -0.000823593 0)
(0 -0.000889857 0)
(0 -0.00269593 0)
(0 -0.000464991 0)
(0 -0.000112953 0)
(0 -0.000347952 0)
(0 -0.00105052 0)
(0 -0.00218246 0)
(0 -2.25927e-05 0)
(0 -0.000171256 0)
(0 -0.00229847 0)
(0 -0.000221701 0)
(0 -0.00231312 0)
(0 -0.00230596 0)
(0 -0.00230165 0)
(0 -0.000569016 0)
(0 1.49676e-05 0)
(0 -0.00231419 0)
(0 -0.000454129 0)
(0 -0.000850672 0)
(0 -4.88703e-05 0)
(0 -0.000309372 0)
(0 2.02252e-05 0)
(0 -0.00221966 0)
(0 -0.00272589 0)
(0 3.27703e-05 0)
(0 -0.00203651 0)
(0 -0.000172457 0)
(0 -5.50293e-05 0)
(0 -0.000140349 0)
(0 -0.000421659 0)
(0 3.30207e-05 0)
(0 -0.000417556 0)
(0 1.98406e-05 0)
(0 -0.00135688 0)
(0 -0.001311 0)
(0 -9.69289e-05 0)
(0 -0.00117324 0)
(0 -0.000745918 0)
(0 -0.00187323 0)
(0 -0.00060188 0)
(0 3.29706e-05 0)
(0 -0.000365903 0)
(0 -0.00188621 0)
(0 -2.87839e-05 0)
(0 3.20008e-05 0)
(0 -0.00151743 0)
(0 -0.00314724 0)
(0 3.30246e-05 0)
(0 -6.07089e-05 0)
(0 -0.0023272 0)
(0 1.73188e-06 0)
(0 3.29346e-05 0)
(0 -0.00233254 0)
(0 -0.000325269 0)
(0 -0.00258416 0)
(0 -0.00223455 0)
(0 -0.000783348 0)
(0 -0.00248401 0)
(0 -2.23369e-05 0)
(0 -0.000148651 0)
(0 -0.00113629 0)
(0 1.82224e-05 0)
(0 -0.000808631 0)
(0 -0.00207701 0)
(0 1.30555e-05 0)
(0 -0.00243912 0)
(0 -0.000157572 0)
(0 -0.000366609 0)
(0 -0.000850108 0)
(0 -0.00284425 0)
(0 -0.00311052 0)
(0 4.99889e-06 0)
(0 -0.00261764 0)
(0 -0.000399531 0)
(0 -0.00115416 0)
(0 3.29431e-05 0)
(0 -0.000869894 0)
(0 2.06822e-05 0)
(0 -0.000693821 0)
(0 -0.00214862 0)
(0 -0.00213104 0)
(0 2.11326e-05 0)
(0 -0.00214454 0)
(0 -0.000359115 0)
(0 -0.00201324 0)
(0 -0.00271124 0)
(0 3.29562e-05 0)
(0 -0.0012588 0)
(0 -0.00202438 0)
(0 -0.000386763 0)
(0 3.30284e-05 0)
(0 -0.00225015 0)
(0 -0.0012076 0)
(0 -0.000971415 0)
(0 -0.0024044 0)
(0 1.53117e-05 0)
(0 -0.000390071 0)
(0 -0.00200314 0)
(0 -0.00113985 0)
(0 -0.00225136 0)
(0 -0.00104889 0)
(0 -0.00220118 0)
(0 -0.00197397 0)
(0 3.30115e-05 0)
(0 -0.00198465 0)
(0 -0.000485838 0)
(0 -0.000323457 0)
(0 -0.000179601 0)
(0 -0.000218735 0)
(0 -0.000205212 0)
(0 -0.000455607 0)
(0 3.28046e-05 0)
(0 -0.00129158 0)
(0 -0.00188707 0)
(0 -0.00219619 0)
(0 -0.000145667 0)
(0 -0.00233464 0)
(0 -0.00211277 0)
(0 -0.000227622 0)
(0 -0.00243859 0)
(0 -0.00247019 0)
(0 -0.000743539 0)
(0 -0.00230082 0)
(0 -0.000124335 0)
(0 -0.00215655 0)
(0 -0.00215641 0)
(0 3.30324e-05 0)
(0 -0.00165246 0)
(0 -0.00270507 0)
(0 -0.00183106 0)
(0 -0.00120568 0)
(0 -0.0003678 0)
(0 -0.0019806 0)
(0 -0.00246992 0)
(0 1.78862e-05 0)
(0 -0.00110304 0)
(0 -6.50205e-05 0)
(0 -0.00177401 0)
(0 -8.93775e-05 0)
(0 -6.79417e-05 0)
(0 -3.51501e-05 0)
(0 -0.00187053 0)
(0 -0.00201261 0)
(0 -0.000870166 0)
(0 -0.00232529 0)
(0 -0.000336063 0)
(0 -0.000158046 0)
(0 -0.00224304 0)
(0 -0.000123885 0)
(0 3.28495e-05 0)
(0 -0.00133016 0)
(0 -0.000306999 0)
(0 -0.00206163 0)
(0 -0.00272314 0)
(0 -0.000903056 0)
(0 -0.00224872 0)
(0 3.11267e-05 0)
(0 3.29555e-05 0)
(0 -0.00180723 0)
(0 -0.000892879 0)
(0 -0.00165446 0)
(0 -0.00169556 0)
(0 -0.001289 0)
(0 -0.000612747 0)
(0 -0.00020318 0)
(0 2.13231e-06 0)
(0 3.25985e-05 0)
(0 -0.00281609 0)
(0 -0.00266875 0)
(0 -0.00245407 0)
(0 -0.00207107 0)
(0 3.14223e-05 0)
(0 -0.000379781 0)
(0 -0.00229155 0)
(0 -0.00203343 0)
(0 -0.000315484 0)
(0 -0.00136168 0)
(0 -0.00018222 0)
(0 -0.00128345 0)
(0 -0.00146044 0)
(0 3.3041e-05 0)
(0 3.16343e-05 0)
(0 2.47395e-05 0)
(0 -9.26183e-05 0)
(0 -0.00216272 0)
(0 -0.00223976 0)
(0 -0.00144176 0)
(0 -0.000212186 0)
(0 2.87569e-05 0)
(0 3.26059e-05 0)
(0 -0.000494248 0)
(0 -0.00033827 0)
(0 -0.000795084 0)
(0 -0.00137158 0)
(0 -0.00116561 0)
(0 -0.0008631 0)
(0 3.30103e-05 0)
(0 -0.000660811 0)
(0 -0.00223522 0)
(0 -0.000825137 0)
(0 -0.000841435 0)
(0 -0.000451041 0)
(0 -0.00181602 0)
(0 -0.000344781 0)
(0 -0.000383082 0)
(0 -0.000604786 0)
(0 -0.00211691 0)
(0 -0.000930534 0)
(0 -0.00181294 0)
(0 -0.000103111 0)
(0 -6.05431e-06 0)
(0 -0.000182508 0)
(0 -0.00142434 0)
(0 -0.00118577 0)
(0 -0.00192098 0)
(0 -0.00127009 0)
(0 -0.00170381 0)
(0 -0.00194524 0)
(0 -0.000467206 0)
(0 -0.000232352 0)
(0 -6.84154e-05 0)
(0 -0.00141641 0)
(0 -0.00105278 0)
(0 -0.000796639 0)
(0 -0.00203505 0)
(0 1.87896e-05 0)
(0 -0.00169062 0)
(0 -0.000946973 0)
(0 -0.000379104 0)
(0 -0.00223587 0)
(0 -0.000193373 0)
(0 -0.00130411 0)
(0 -0.00204341 0)
(0 3.24613e-05 0)
(0 -0.000763932 0)
(0 -0.000864845 0)
(0 -6.30816e-05 0)
(0 -0.00233067 0)
(0 -0.000222505 0)
(0 -0.00152623 0)
(0 -0.00207876 0)
(0 -7.89277e-05 0)
(0 -0.00116299 0)
(0 -0.00131851 0)
(0 3.10131e-05 0)
(0 -0.000948267 0)
(0 -0.00208279 0)
(0 -0.00155304 0)
(0 -0.000358547 0)
(0 -0.000865453 0)
(0 -0.00201466 0)
(0 -0.00195543 0)
(0 -0.0022366 0)
(0 -0.00127258 0)
(0 -0.00157354 0)
(0 -0.000361875 0)
(0 -0.00273623 0)
(0 -0.000676988 0)
(0 -0.00303116 0)
(0 -0.00230608 0)
(0 1.24996e-05 0)
(0 -0.00256602 0)
(0 1.5783e-05 0)
(0 -0.00198689 0)
(0 -0.0022443 0)
(0 -0.00162828 0)
(0 -0.00100877 0)
(0 -0.00177238 0)
(0 -0.000717216 0)
(0 -0.00170005 0)
(0 -7.07676e-05 0)
(0 -0.000387494 0)
(0 -0.000235203 0)
(0 -0.00325851 0)
(0 -0.000692359 0)
(0 -0.000309222 0)
(0 -0.00141859 0)
(0 -0.00229384 0)
(0 -0.00114902 0)
(0 -0.00197065 0)
(0 1.99086e-05 0)
(0 3.2762e-05 0)
(0 -0.000481578 0)
(0 -0.00167151 0)
(0 -0.00013655 0)
(0 -0.00214984 0)
(0 -0.000133371 0)
(0 -0.000737966 0)
(0 -0.00180741 0)
(0 -0.000247291 0)
(0 -6.17388e-07 0)
(0 2.71895e-05 0)
(0 -0.00136004 0)
(0 2.47238e-05 0)
(0 -0.000889846 0)
(0 -0.00139748 0)
(0 -0.000651903 0)
(0 -0.00182462 0)
(0 -0.00120208 0)
(0 -0.00184059 0)
(0 -0.00196193 0)
(0 -0.00109599 0)
(0 -0.000186768 0)
(0 -8.14316e-05 0)
(0 -0.00202741 0)
(0 -0.0019243 0)
(0 2.02899e-05 0)
(0 -0.000730341 0)
(0 -0.000484182 0)
(0 -0.00149462 0)
(0 -0.000515515 0)
(0 -0.000168248 0)
(0 -0.00205657 0)
(0 -0.00233141 0)
(0 -0.0012019 0)
(0 -0.00239816 0)
(0 3.30236e-05 0)
(0 -0.000742201 0)
(0 2.26126e-05 0)
(0 -0.000342078 0)
(0 2.72173e-05 0)
(0 3.25568e-05 0)
(0 -6.751e-05 0)
(0 -0.00182893 0)
(0 -0.000640946 0)
(0 -0.00012764 0)
(0 -0.000136582 0)
(0 -0.00153611 0)
(0 -0.00198136 0)
(0 -0.000209845 0)
(0 3.30436e-05 0)
(0 -0.00215349 0)
(0 -0.000298793 0)
(0 -1.66631e-05 0)
(0 -0.00213274 0)
(0 -0.00230916 0)
(0 -0.00188734 0)
(0 -0.000896844 0)
(0 -0.00230403 0)
(0 -0.00270013 0)
(0 -3.57418e-05 0)
(0 1.37405e-05 0)
(0 -0.00272538 0)
(0 -0.00219535 0)
(0 3.28872e-05 0)
(0 -8.84757e-05 0)
(0 -0.00213196 0)
(0 -0.00191001 0)
(0 -0.000325466 0)
(0 -0.00222741 0)
(0 1.581e-05 0)
(0 -0.000777056 0)
(0 2.11497e-05 0)
(0 -0.00100052 0)
(0 -0.00232094 0)
(0 -0.00262046 0)
(0 -0.000723803 0)
(0 -0.00201237 0)
(0 -0.00111961 0)
(0 -0.000899482 0)
(0 2.21665e-05 0)
(0 -0.00220555 0)
(0 -0.00149697 0)
(0 -0.000171345 0)
(0 -0.00218291 0)
(0 -0.00164719 0)
(0 -1.27639e-05 0)
(0 -0.0021495 0)
(0 3.28763e-05 0)
(0 2.36008e-05 0)
(0 -0.0013757 0)
(0 -0.00222795 0)
(0 -1.87303e-05 0)
(0 3.303e-05 0)
(0 -0.000177902 0)
(0 -0.00236355 0)
(0 -0.000109811 0)
(0 2.33867e-05 0)
(0 -0.000376929 0)
(0 -0.00157556 0)
(0 -0.000646883 0)
(0 -0.00176261 0)
(0 2.08937e-05 0)
(0 -0.00167688 0)
(0 1.15616e-05 0)
(0 -0.000240318 0)
(0 3.21999e-05 0)
(0 1.21616e-05 0)
(0 -0.00204852 0)
(0 -0.00227374 0)
(0 1.74045e-05 0)
(0 -0.00145366 0)
(0 -0.00165856 0)
(0 -0.00057846 0)
(0 3.20704e-05 0)
(0 2.2968e-05 0)
(0 9.79766e-06 0)
(0 -0.00272247 0)
(0 -0.000587492 0)
(0 -0.000153336 0)
(0 -0.00169664 0)
(0 -0.000214397 0)
(0 -0.0010408 0)
(0 1.92e-05 0)
(0 -0.000728665 0)
(0 -0.00209539 0)
(0 -0.000612688 0)
(0 -0.00133879 0)
(0 -0.000182276 0)
(0 -0.000423625 0)
(0 -0.00172125 0)
(0 -0.000519409 0)
(0 -0.0013301 0)
(0 -0.000175898 0)
(0 -0.000796804 0)
(0 -0.00194204 0)
(0 -0.000664376 0)
(0 -3.60766e-05 0)
(0 2.86608e-05 0)
(0 -0.000854855 0)
(0 -0.000163472 0)
(0 -8.57467e-05 0)
(0 -7.62678e-05 0)
(0 -0.000804504 0)
(0 3.30285e-05 0)
(0 3.29314e-05 0)
(0 -0.00215294 0)
(0 -0.00154365 0)
(0 -0.000967554 0)
(0 -0.0006614 0)
(0 1.19237e-05 0)
(0 -0.000957108 0)
(0 -0.00120406 0)
(0 -0.00076295 0)
(0 -7.62256e-05 0)
(0 -0.000150056 0)
(0 -0.00278462 0)
(0 -0.00105905 0)
(0 -0.00192799 0)
(0 -0.000223049 0)
(0 -0.00167698 0)
(0 -0.000246425 0)
(0 -0.00130618 0)
(0 -0.000928184 0)
(0 -0.00092313 0)
(0 -0.00239973 0)
(0 3.1575e-05 0)
(0 -0.00230832 0)
(0 -0.000967652 0)
(0 -0.00194451 0)
(0 -0.0011934 0)
(0 -4.63494e-05 0)
(0 -0.000910463 0)
(0 -0.00081798 0)
(0 -0.00186112 0)
(0 -0.00137707 0)
(0 3.11494e-05 0)
(0 -5.94692e-05 0)
(0 2.73893e-05 0)
(0 -0.000704707 0)
(0 1.75164e-05 0)
(0 -0.000507921 0)
(0 -0.00100606 0)
(0 -0.00137129 0)
(0 -0.0001563 0)
(0 -2.56121e-05 0)
(0 -0.000917528 0)
(0 2.51255e-05 0)
(0 -0.000268323 0)
(0 -0.00091972 0)
(0 -0.000307121 0)
(0 -7.16657e-05 0)
(0 -0.00178293 0)
(0 -0.000464824 0)
(0 -0.00235322 0)
(0 -0.000523314 0)
(0 -0.000401419 0)
(0 -8.06227e-06 0)
(0 -7.84264e-05 0)
(0 -1.05319e-05 0)
(0 -0.000413828 0)
(0 -0.000187072 0)
(0 -0.000200483 0)
(0 -0.000781118 0)
(0 1.77602e-05 0)
(0 -0.00185763 0)
(0 3.04029e-05 0)
(0 -0.00221063 0)
(0 -0.000791997 0)
(0 -0.000158963 0)
(0 -1.78014e-05 0)
(0 -0.00141244 0)
(0 3.18811e-05 0)
(0 -0.000251364 0)
(0 -0.00223704 0)
(0 -0.00115759 0)
(0 -0.00145268 0)
(0 -0.00183546 0)
(0 -0.000370701 0)
(0 -7.68819e-05 0)
(0 -0.00154862 0)
(0 3.30436e-05 0)
(0 -0.00132232 0)
(0 3.27533e-05 0)
(0 -0.00230257 0)
(0 -0.0022963 0)
(0 -0.000164485 0)
(0 -0.000854318 0)
(0 2.25073e-05 0)
(0 -0.00227804 0)
(0 -0.000324156 0)
(0 -4.39359e-05 0)
(0 -0.000933206 0)
(0 -5.92085e-05 0)
(0 -0.000104395 0)
(0 -0.00146923 0)
(0 -9.59848e-05 0)
(0 2.4104e-05 0)
(0 -0.00156645 0)
(0 -0.00191104 0)
(0 -0.00232404 0)
(0 -0.000460864 0)
(0 -0.00231384 0)
(0 -0.00222666 0)
(0 -0.00150525 0)
(0 -0.00232607 0)
(0 -0.00141552 0)
(0 -0.000875054 0)
(0 -0.000560017 0)
(0 -0.000219768 0)
(0 -0.00200119 0)
(0 1.35087e-05 0)
(0 -0.00163113 0)
(0 2.5981e-05 0)
(0 -0.000105949 0)
(0 3.09296e-05 0)
(0 -0.000466313 0)
(0 -0.00226674 0)
(0 3.30305e-05 0)
(0 -0.000821464 0)
(0 2.30162e-05 0)
(0 -6.65213e-05 0)
(0 -0.000242877 0)
(0 -0.000832854 0)
(0 -0.0023335 0)
(0 -0.000970036 0)
(0 -4.47269e-05 0)
(0 -0.00187918 0)
(0 3.21196e-05 0)
(0 -0.00190407 0)
(0 3.25189e-05 0)
(0 -0.000252337 0)
(0 -0.00156687 0)
(0 -0.00179233 0)
(0 3.25499e-05 0)
(0 3.21865e-05 0)
(0 -0.000639822 0)
(0 -0.00204761 0)
(0 -0.000400258 0)
(0 -0.00192088 0)
(0 -0.00144437 0)
(0 -0.000497633 0)
(0 -0.000111811 0)
(0 -0.000786913 0)
(0 -0.00181827 0)
(0 -0.00189935 0)
(0 -0.000916562 0)
(0 2.02285e-05 0)
(0 -0.0013745 0)
(0 -0.00139338 0)
(0 -0.000751644 0)
(0 -0.000227327 0)
(0 -0.00112056 0)
(0 -0.00209082 0)
(0 3.23772e-05 0)
(0 -0.00118869 0)
(0 -0.00204737 0)
(0 3.27887e-05 0)
(0 -0.000700182 0)
(0 -0.00148786 0)
(0 3.30338e-05 0)
(0 -0.000328029 0)
(0 3.21428e-05 0)
(0 -0.00204684 0)
(0 -0.000786272 0)
(0 -6.0338e-05 0)
(0 -0.00234178 0)
(0 -0.0019946 0)
(0 -0.000158207 0)
(0 -0.00199004 0)
(0 -0.00207146 0)
(0 -0.000390721 0)
(0 -0.00272448 0)
(0 -3.78594e-05 0)
(0 2.13576e-05 0)
(0 -0.00232521 0)
(0 -0.0016409 0)
(0 -0.00174346 0)
(0 -0.00206884 0)
(0 -0.00101939 0)
(0 -0.00144439 0)
(0 -0.000143204 0)
(0 -0.000367929 0)
(0 -0.00163919 0)
(0 -0.00220921 0)
(0 -0.00231508 0)
(0 -0.00181974 0)
(0 -0.00152991 0)
(0 3.19134e-05 0)
(0 -0.0012007 0)
(0 -0.0031901 0)
(0 -0.0021922 0)
(0 -6.75182e-05 0)
(0 -1.45067e-05 0)
(0 -0.00194203 0)
(0 -0.00176129 0)
(0 -0.00197054 0)
(0 -0.00307015 0)
(0 2.37907e-05 0)
(0 -0.00149754 0)
(0 -0.000372885 0)
(0 -0.000327986 0)
(0 -0.000885807 0)
(0 1.50119e-06 0)
(0 -0.0011726 0)
(0 -0.000178718 0)
(0 -0.000577577 0)
(0 -0.00201282 0)
(0 -0.00167309 0)
(0 -0.00111331 0)
(0 -0.000242112 0)
(0 -0.000354213 0)
(0 -0.00192783 0)
(0 -0.000842216 0)
(0 2.42189e-05 0)
(0 -0.000326402 0)
(0 -0.000355036 0)
(0 -0.000693337 0)
(0 -6.1899e-05 0)
(0 -0.000257632 0)
(0 -0.00277973 0)
(0 -0.00135499 0)
(0 -0.000828344 0)
(0 -0.00195888 0)
(0 -0.00311292 0)
(0 -0.000548358 0)
(0 -0.0023056 0)
(0 1.5211e-05 0)
(0 2.16359e-06 0)
(0 -0.000643416 0)
(0 -0.00182984 0)
(0 -0.000807002 0)
(0 -0.000357438 0)
(0 -0.00159765 0)
(0 -0.00160102 0)
(0 -0.000184707 0)
(0 -0.000742706 0)
(0 -0.00174977 0)
(0 -0.00206313 0)
(0 2.39109e-05 0)
(0 7.77923e-06 0)
(0 -0.000364087 0)
(0 -0.00150926 0)
(0 -0.000355617 0)
(0 -0.00260696 0)
(0 -0.00161475 0)
(0 -0.00189498 0)
(0 -0.000384737 0)
(0 -0.00130839 0)
(0 -0.00163836 0)
(0 3.30137e-05 0)
(0 -0.00123803 0)
(0 -0.00125501 0)
(0 -9.89538e-05 0)
(0 -0.00207095 0)
(0 1.89363e-05 0)
(0 -0.000219321 0)
(0 -0.00105377 0)
(0 -0.000130864 0)
(0 -0.0015333 0)
(0 -0.00152036 0)
(0 -0.00280175 0)
(0 -0.00144031 0)
(0 2.45353e-05 0)
(0 -0.0022177 0)
(0 -0.0010579 0)
(0 2.39083e-05 0)
(0 -0.000430795 0)
(0 -0.000208525 0)
(0 3.07567e-05 0)
(0 -0.000122981 0)
(0 -0.00070466 0)
(0 9.46038e-06 0)
(0 -0.00269035 0)
(0 1.19748e-05 0)
(0 -0.00128838 0)
(0 -0.00162086 0)
(0 -0.000499246 0)
(0 3.30346e-05 0)
(0 -0.000791208 0)
(0 -0.00111863 0)
(0 -0.0012653 0)
(0 -0.00103479 0)
(0 -9.75384e-05 0)
(0 -0.000403756 0)
(0 -0.000231706 0)
(0 -0.00180992 0)
(0 -0.00112777 0)
(0 -0.000438279 0)
(0 -0.000549998 0)
(0 -0.00228284 0)
(0 -0.000897206 0)
(0 -0.00207035 0)
(0 -6.8173e-05 0)
(0 3.26248e-05 0)
(0 -0.00151792 0)
(0 -0.000710811 0)
(0 -0.000742308 0)
(0 -0.000598162 0)
(0 -0.001379 0)
(0 3.30167e-05 0)
(0 -0.00198007 0)
(0 -0.00233774 0)
(0 -0.000458423 0)
(0 -0.00148894 0)
(0 -0.0014335 0)
(0 -9.86449e-05 0)
(0 -0.00219921 0)
(0 -0.00131036 0)
(0 -0.000102091 0)
(0 -0.000396662 0)
(0 -0.00196419 0)
(0 -0.00137251 0)
(0 -0.00195345 0)
(0 -0.000125848 0)
(0 -0.00237061 0)
(0 -0.000354534 0)
(0 -0.00118805 0)
(0 -0.00153006 0)
(0 -0.000631367 0)
(0 -0.00171557 0)
(0 -7.52052e-05 0)
(0 -0.00202902 0)
(0 -0.000390355 0)
(0 -0.00242453 0)
(0 -2.10777e-05 0)
(0 -0.00114137 0)
(0 8.43286e-07 0)
(0 -0.00129582 0)
(0 -0.00206672 0)
(0 -0.00306795 0)
(0 -0.00129237 0)
(0 -0.000179351 0)
(0 -0.0022981 0)
(0 -0.00139354 0)
(0 -0.000437193 0)
(0 -0.00106144 0)
(0 -0.00231846 0)
(0 -0.00087839 0)
(0 -0.000150704 0)
(0 3.30461e-05 0)
(0 2.02783e-05 0)
(0 -0.000652651 0)
(0 3.3033e-05 0)
(0 -0.000677569 0)
(0 -0.00108654 0)
(0 -0.000205484 0)
(0 -0.000160493 0)
(0 -0.00170826 0)
(0 3.30192e-05 0)
(0 -0.00191974 0)
(0 -0.000414846 0)
(0 -0.00196612 0)
(0 -0.00135066 0)
(0 -0.00195564 0)
(0 -0.00153374 0)
(0 -0.00112767 0)
(0 -0.00228485 0)
(0 2.50508e-05 0)
(0 -0.00159606 0)
(0 -0.00149049 0)
(0 -3.69738e-05 0)
(0 -0.0021849 0)
(0 -0.000783509 0)
(0 -0.0022497 0)
(0 -0.000565409 0)
(0 -0.00190457 0)
(0 -7.02153e-05 0)
(0 -0.000886969 0)
(0 -0.00172466 0)
(0 -0.00110042 0)
(0 3.17024e-05 0)
(0 -5.46996e-05 0)
(0 -0.00258615 0)
(0 -0.0018767 0)
(0 -0.00182063 0)
(0 -0.00221841 0)
(0 1.93028e-05 0)
(0 -0.00233295 0)
(0 -0.0017327 0)
(0 -0.000486928 0)
(0 -0.00164272 0)
(0 -0.00168851 0)
(0 -0.00233164 0)
(0 -0.00221958 0)
(0 -0.000218975 0)
(0 -0.00199494 0)
(0 -0.00247227 0)
(0 -0.000874015 0)
(0 -0.00201545 0)
(0 -0.00327243 0)
(0 -0.00013536 0)
(0 2.25127e-05 0)
(0 -0.00126282 0)
(0 -0.00144347 0)
(0 -0.00281627 0)
(0 -0.000582129 0)
(0 -0.000958123 0)
(0 -0.000742885 0)
(0 -0.00191102 0)
(0 -0.000188349 0)
(0 -0.00100005 0)
(0 -0.0019257 0)
(0 -0.00108033 0)
(0 -0.00174562 0)
(0 -0.00179264 0)
(0 4.16364e-06 0)
(0 -0.000265129 0)
(0 -0.000550393 0)
(0 -0.000626339 0)
(0 -0.000248376 0)
(0 -0.000405823 0)
(0 -0.000290895 0)
(0 -0.000268047 0)
(0 -0.000802942 0)
(0 -2.5764e-05 0)
(0 -0.00156862 0)
(0 -0.00169979 0)
(0 -0.00163393 0)
(0 -0.000138768 0)
(0 -0.000162537 0)
(0 -0.000256117 0)
(0 1.52284e-05 0)
(0 3.29258e-05 0)
(0 -4.36417e-05 0)
(0 -0.00157779 0)
(0 -0.000889848 0)
(0 -0.000171492 0)
(0 -0.00272235 0)
(0 7.96183e-06 0)
(0 -9.71555e-05 0)
(0 2.32022e-05 0)
(0 -0.000867674 0)
(0 3.21243e-05 0)
(0 -0.000392489 0)
(0 -0.000342644 0)
(0 1.57546e-05 0)
(0 -0.000436999 0)
(0 -0.00188989 0)
(0 -0.000660476 0)
(0 -0.00222282 0)
(0 1.97799e-05 0)
(0 -0.00144463 0)
(0 -0.000251559 0)
(0 -0.00231891 0)
(0 -0.000557371 0)
(0 -0.00207858 0)
(0 3.27913e-05 0)
(0 1.78669e-05 0)
(0 -0.000649613 0)
(0 3.29792e-05 0)
(0 1.70997e-05 0)
(0 -0.000558039 0)
(0 -0.000490423 0)
(0 -0.000197218 0)
(0 -0.00245161 0)
(0 3.16894e-05 0)
(0 -0.00161119 0)
(0 -2.73807e-05 0)
(0 3.29856e-05 0)
(0 -0.000691392 0)
(0 -0.00182362 0)
(0 -0.00184253 0)
(0 -0.000703344 0)
(0 -0.00185505 0)
(0 -0.000535338 0)
(0 -0.000186852 0)
(0 -0.00125846 0)
(0 -0.00210556 0)
(0 -0.000880178 0)
(0 -0.00177887 0)
(0 -0.00114175 0)
(0 -0.000503315 0)
(0 -0.00233792 0)
(0 -0.00198505 0)
(0 -0.000842394 0)
(0 -0.000245552 0)
(0 -0.00209324 0)
(0 -8.04186e-05 0)
(0 -0.00221375 0)
(0 -0.000285958 0)
(0 -0.000596575 0)
(0 -5.10043e-05 0)
(0 -0.00197863 0)
(0 -0.00231516 0)
(0 -0.000203018 0)
(0 -1.03676e-05 0)
(0 -0.00234655 0)
(0 -0.0007813 0)
(0 3.60095e-06 0)
(0 -0.000379257 0)
(0 3.25958e-05 0)
(0 -0.00232764 0)
(0 -0.000473716 0)
(0 3.04216e-05 0)
(0 2.29221e-05 0)
(0 -0.00179265 0)
(0 -0.00178718 0)
(0 -0.000806241 0)
(0 -0.000427327 0)
(0 -0.000180407 0)
(0 -0.00113874 0)
(0 3.04214e-05 0)
(0 -0.000476007 0)
(0 -0.000101186 0)
(0 -0.00146474 0)
(0 -0.00172347 0)
(0 3.3003e-05 0)
(0 -0.000800676 0)
(0 -0.00142866 0)
(0 -0.00027287 0)
(0 3.21114e-05 0)
(0 -0.0020468 0)
(0 -0.00283991 0)
(0 -0.00315868 0)
(0 -0.00145631 0)
(0 -0.000718319 0)
(0 -0.000230349 0)
(0 -0.00131043 0)
(0 -0.00186973 0)
(0 -0.00229528 0)
(0 -0.00109451 0)
(0 3.22873e-05 0)
(0 -0.000100203 0)
(0 -0.00056516 0)
(0 3.26827e-05 0)
(0 -0.000221228 0)
(0 -0.00254244 0)
(0 -0.00223142 0)
(0 -0.00193255 0)
(0 -1.02367e-05 0)
(0 -6.44215e-05 0)
(0 -0.000227968 0)
(0 -0.00283814 0)
(0 -0.00158987 0)
(0 -0.0020752 0)
(0 -0.00134223 0)
(0 -0.000199201 0)
(0 -0.00208344 0)
(0 -5.10274e-05 0)
(0 -0.00183608 0)
(0 -0.00144705 0)
(0 1.39287e-05 0)
(0 3.29188e-05 0)
(0 -0.00155486 0)
(0 -1.65259e-05 0)
(0 -0.000183837 0)
(0 -0.000404077 0)
(0 -0.00036717 0)
(0 -0.00254132 0)
(0 3.26823e-05 0)
(0 -0.000243263 0)
(0 -0.00208324 0)
(0 -0.00236587 0)
(0 -0.00193287 0)
(0 -0.000852798 0)
(0 -0.000319593 0)
(0 -0.00050962 0)
(0 -0.00207612 0)
(0 -0.00196923 0)
(0 -0.00165111 0)
(0 -4.14354e-05 0)
(0 3.18819e-05 0)
(0 -0.00302764 0)
(0 -0.00129678 0)
(0 -5.51895e-07 0)
(0 2.5904e-05 0)
(0 -0.000495495 0)
(0 -0.000201477 0)
(0 2.98255e-05 0)
(0 -0.00320174 0)
(0 -0.000984418 0)
(0 -0.00124992 0)
(0 -0.000803644 0)
(0 8.25716e-06 0)
(0 -0.00210156 0)
(0 -0.000122305 0)
(0 -1.04856e-05 0)
(0 -0.000171462 0)
(0 -0.000849412 0)
(0 -0.00189903 0)
(0 4.38878e-06 0)
(0 -0.000114458 0)
(0 -0.00191047 0)
(0 -6.90372e-05 0)
(0 -0.000403103 0)
(0 3.23675e-05 0)
(0 -0.00165835 0)
(0 -0.00127237 0)
(0 -8.09067e-05 0)
(0 -0.000735435 0)
(0 -0.000679161 0)
(0 -0.000400048 0)
(0 -0.00236691 0)
(0 -0.000385561 0)
(0 1.56121e-05 0)
(0 -0.000520475 0)
(0 -0.00224561 0)
(0 -0.000702067 0)
(0 3.29607e-05 0)
(0 -0.00259145 0)
(0 -0.00221887 0)
(0 -0.00267198 0)
(0 -3.12566e-05 0)
(0 -0.00236294 0)
(0 -0.0012823 0)
(0 -0.00123427 0)
(0 -0.00236113 0)
(0 1.63875e-05 0)
(0 2.49058e-05 0)
(0 -0.00117421 0)
(0 -4.80684e-05 0)
(0 3.16335e-05 0)
(0 3.25021e-05 0)
(0 -0.00229494 0)
(0 -0.0016066 0)
(0 -0.00232609 0)
(0 -0.00214688 0)
(0 -0.0016468 0)
(0 -0.00144894 0)
(0 -0.00198035 0)
(0 -0.00124538 0)
(0 -0.0018883 0)
(0 -0.00052317 0)
(0 3.27925e-05 0)
(0 -0.000179463 0)
(0 -0.000549982 0)
(0 -0.00140246 0)
(0 -0.00205893 0)
(0 -0.000758616 0)
(0 -0.000330372 0)
(0 -0.00121279 0)
(0 -0.00231342 0)
(0 -0.000165354 0)
(0 -0.00031565 0)
(0 8.47394e-06 0)
(0 -0.000791785 0)
(0 -0.00305614 0)
(0 1.90303e-05 0)
(0 -0.00101888 0)
(0 -0.0025404 0)
(0 -0.00196217 0)
(0 -0.000128134 0)
(0 -0.000637339 0)
(0 -0.000746153 0)
(0 -0.000640657 0)
(0 -0.00178882 0)
(0 -0.00173344 0)
(0 -0.000182978 0)
(0 -0.000840386 0)
(0 -0.00201447 0)
(0 -4.67582e-05 0)
(0 -0.00180536 0)
(0 -0.000238307 0)
(0 1.71815e-05 0)
(0 -0.000190891 0)
(0 -0.000582552 0)
(0 -0.00020932 0)
(0 -0.00146934 0)
(0 -4.18516e-05 0)
(0 -0.000138985 0)
(0 -0.000226545 0)
(0 3.3046e-05 0)
(0 -0.00199404 0)
(0 -0.00329156 0)
(0 -0.00216328 0)
(0 -0.00193973 0)
(0 -0.00167833 0)
(0 -0.00109253 0)
(0 -0.000706687 0)
(0 -0.00152921 0)
(0 3.22846e-05 0)
(0 -0.00165306 0)
(0 -1.7362e-05 0)
(0 4.0344e-06 0)
(0 -0.00235461 0)
(0 2.45249e-05 0)
(0 -0.00122419 0)
(0 -0.000168418 0)
(0 3.27233e-05 0)
(0 -0.00209647 0)
(0 -0.000306124 0)
(0 -0.00316757 0)
(0 3.2339e-05 0)
(0 -0.00075997 0)
(0 -0.000189227 0)
(0 -0.00224407 0)
(0 -3.37982e-05 0)
(0 -0.00134322 0)
(0 3.29737e-05 0)
(0 -0.00229474 0)
(0 -0.000208506 0)
(0 -0.00313927 0)
(0 -0.0014822 0)
(0 -0.000232948 0)
(0 -0.00229572 0)
(0 3.3047e-05 0)
(0 3.09972e-05 0)
(0 -0.000513313 0)
(0 8.22092e-06 0)
(0 -0.000408333 0)
(0 3.21912e-05 0)
(0 -0.000286258 0)
(0 -0.00209124 0)
(0 -0.000110694 0)
(0 -0.000456616 0)
(0 -0.000328777 0)
(0 -0.0018198 0)
(0 -0.000241042 0)
(0 -0.00140125 0)
(0 -0.000229298 0)
(0 -0.00156301 0)
(0 -0.00119378 0)
(0 -0.00125278 0)
(0 3.24363e-05 0)
(0 -7.19215e-05 0)
(0 -0.00181156 0)
(0 1.18206e-05 0)
(0 -4.29227e-05 0)
(0 -0.00198599 0)
(0 -0.000213689 0)
(0 -0.000377647 0)
(0 -0.00012887 0)
(0 -0.000435181 0)
(0 -0.00223616 0)
(0 3.06679e-05 0)
(0 -0.00182518 0)
(0 -0.00209223 0)
(0 -0.00145628 0)
(0 -7.53229e-05 0)
(0 -0.000414698 0)
(0 -0.00232816 0)
(0 -0.000397331 0)
(0 -0.00155696 0)
(0 -0.000291246 0)
(0 -0.00172127 0)
(0 3.16711e-05 0)
(0 -0.000165208 0)
(0 -0.00077675 0)
(0 -0.000299622 0)
(0 -0.000180939 0)
(0 -0.00139231 0)
(0 -0.00210421 0)
(0 1.84129e-05 0)
(0 -0.000305823 0)
(0 -0.000743709 0)
(0 -0.00165798 0)
(0 -4.25311e-05 0)
(0 -0.00141506 0)
(0 -0.0016455 0)
(0 -0.000662904 0)
(0 -5.86669e-05 0)
(0 -0.000140893 0)
(0 -0.00044654 0)
(0 -0.0030027 0)
(0 -0.00196895 0)
(0 -0.00140363 0)
(0 -0.00169221 0)
(0 -0.00106954 0)
(0 1.22164e-05 0)
(0 -0.000100731 0)
(0 -0.000447735 0)
(0 -0.00229164 0)
(0 -0.00106329 0)
(0 -0.00203947 0)
(0 -0.000211088 0)
(0 -0.00138321 0)
(0 -0.00121721 0)
(0 -0.00152495 0)
(0 -0.000134438 0)
(0 -0.000455649 0)
(0 -0.000770415 0)
(0 -0.000370006 0)
(0 -6.54489e-05 0)
(0 -0.00115901 0)
(0 -0.000268741 0)
(0 -0.00086263 0)
(0 -0.00237542 0)
(0 -0.000686926 0)
(0 -0.00213973 0)
(0 -0.00231084 0)
(0 3.28817e-05 0)
(0 -0.00211431 0)
(0 3.14038e-05 0)
(0 -0.0015256 0)
(0 -0.000312876 0)
(0 -0.000697913 0)
(0 -0.00170182 0)
(0 -0.00129065 0)
(0 -0.000940407 0)
(0 -0.00019085 0)
(0 -0.00168096 0)
(0 -0.000916023 0)
(0 -0.00188918 0)
(0 -0.000362325 0)
(0 -0.00188389 0)
(0 3.28191e-05 0)
(0 -0.000104416 0)
(0 -0.00228041 0)
(0 -0.00193769 0)
(0 -0.00316394 0)
(0 -0.00213438 0)
(0 -0.000319127 0)
(0 -9.52282e-05 0)
(0 -0.00170568 0)
(0 3.1919e-05 0)
(0 -0.0022904 0)
(0 -0.0016569 0)
(0 -0.00236304 0)
(0 -0.000217469 0)
(0 -0.00109139 0)
(0 -0.000699344 0)
(0 -0.00219536 0)
(0 -0.00167123 0)
(0 -0.0017948 0)
(0 -0.000211504 0)
(0 -0.000248977 0)
(0 -0.000693155 0)
(0 3.23035e-05 0)