/*--------------------------------*- C++ -*----------------------------------*\
| =========                 |                                                 |
| \\      /  F ield         | OpenFOAM: The Open Source CFD Toolbox           |
|  \\    /   O peration     | Version:  v2012                                 |
|   \\  /    A nd           | Website:  www.openfoam.com                      |
|    \\/     M anipulation  |                                                 |
\*---------------------------------------------------------------------------*/
FoamFile
{
    version     2.0;
    format      ascii;
    class       volVectorField;
    location    "300";
    object      ddt0(U);
}
// * * * * * * * * * * * * * * * * * * * * * * * * * * * * * * * * * * * * * //

dimensions      [0 1 -2 0 0 0 0];


internalField   nonuniform List<vector> 
10042
(
(-0.000563528 0.000541673 -1.71056e-19)
(8.39042e-05 0.000403331 8.93045e-19)
(-0.00748462 -0.00238179 -3.18164e-19)
(-0.00276257 -8.48124e-06 -3.42855e-19)
(0.016565 0.128936 -8.71585e-18)
(-0.0011575 0.000755308 -4.52351e-18)
(-0.0530814 0.0408888 5.6699e-18)
(-0.0501157 -0.112739 -2.86254e-17)
(-0.00165731 -0.00188493 1.38884e-18)
(-0.00176392 -5.11419e-06 2.478e-18)
(0.325143 0.0539042 1.34448e-17)
(-0.00171539 -1.73595e-05 3.90208e-20)
(-0.00148051 -0.000173875 2.45921e-20)
(-0.00399731 -3.98817e-05 2.3652e-20)
(0.00274731 0.00342601 6.17216e-18)
(0.00243694 0.000151049 2.06291e-18)
(0.00204085 0.000120302 2.22415e-18)
(-0.000837517 0.000189799 2.61192e-18)
(-0.000338126 0.000678458 7.95852e-19)
(0.0313048 0.0374766 1.3072e-17)
(0.00509068 3.04429e-05 7.12004e-19)
(-0.0223907 -0.0626356 -1.77017e-17)
(-0.00344123 -6.09449e-05 -1.34973e-19)
(-0.00607435 -0.00024396 4.7472e-19)
(-0.000156847 0.00053755 1.36721e-18)
(-0.00363929 -0.00978059 3.17477e-18)
(0.00108956 0.00124972 1.86279e-19)
(0.00129146 0.000511647 -1.42591e-18)
(-0.000853923 -0.00103051 3.19135e-19)
(-0.000445231 -0.000177319 -2.45519e-18)
(-0.000265582 0.000323325 2.2303e-19)
(-0.0626551 0.0627398 4.76965e-18)
(-0.00350335 -2.09234e-05 -1.92412e-18)
(-0.00103682 -0.00133082 -7.51874e-19)
(-0.00192532 -0.00686254 -1.3423e-18)
(-0.00638822 -0.000221272 -2.69704e-19)
(-0.00296817 -0.00908405 -1.8454e-17)
(-0.00653848 -0.0114877 -8.68353e-19)
(-0.00138721 -0.000173578 -3.90705e-19)
(0.00602637 -0.00243539 -2.82649e-19)
(0.0291448 0.038736 -3.81456e-17)
(0.00213318 0.00256641 1.16676e-19)
(-0.0222059 0.0357964 -1.34472e-17)
(-0.00231813 9.6789e-05 2.66025e-18)
(0.0415219 0.101081 -1.59292e-16)
(-0.01051 -0.0253424 1.12883e-17)
(-0.00115553 0.0012664 -1.54111e-18)
(-0.0349487 -0.0335053 -8.99832e-19)
(-0.00279109 -0.00816912 -4.11689e-18)
(-0.0209846 -0.00554806 -3.26484e-18)
(0.000130635 5.39134e-05 9.17387e-19)
(-0.00880749 -0.00091146 1.21967e-19)
(-0.00021716 0.0032301 7.94741e-18)
(-0.00879424 -0.00229181 1.63092e-18)
(-0.00262228 -0.00903347 -2.10545e-18)
(0.000415084 0.000611905 4.21619e-18)
(-0.000649201 -0.00115682 4.26789e-19)
(-0.00155862 0.00124221 -4.64082e-18)
(-0.00184554 -0.00143851 9.14095e-19)
(-0.000757166 0.00305641 -3.21161e-18)
(-0.000140193 0.00040689 5.46302e-18)
(0.00155755 0.000469529 3.98498e-18)
(-0.00158016 -0.00691502 -7.68131e-18)
(-0.00767093 -0.00235944 -3.39356e-19)
(0.000325382 0.00248644 -4.96064e-18)
(-0.00223954 -0.00170707 -1.19395e-18)
(-0.00090453 0.00221071 -2.99389e-18)
(0.0225655 0.0288937 3.56703e-17)
(0.0830093 0.3454 -9.7405e-17)
(0.000320096 -0.000315528 5.50136e-19)
(-0.00856023 -0.00206377 -3.82219e-18)
(0.0302943 0.0420962 2.71537e-17)
(-0.00266041 0.000191216 -2.93528e-19)
(0.00625574 0.0134732 -8.9615e-18)
(-0.00343812 0.00203235 5.45454e-18)
(-0.00962994 -0.000335311 -2.16419e-19)
(0.0231644 0.134295 3.14013e-18)
(-4.10647e-05 0.000903151 3.58213e-18)
(0.00761176 0.00872154 -8.23733e-18)
(-0.0794041 0.0744358 -3.05587e-20)
(-0.00224727 -0.00796172 -8.29645e-18)
(0.0419887 0.120127 1.5658e-16)
(-0.00323089 -0.000736103 -5.4059e-20)
(0.00273789 0.00201887 1.10562e-18)
(-0.00184284 0.00222015 -1.71905e-18)
(-0.000321976 0.0003377 -3.74467e-19)
(-0.00271677 0.000210227 6.20892e-18)
(-0.00803193 -0.0348814 -4.827e-17)
(-0.003271 0.00113251 -4.4549e-18)
(-0.00112473 0.000179681 -3.12474e-18)
(-0.00264788 -0.00291079 5.2904e-18)
(0.0648763 0.0957352 1.37757e-16)
(0.00144551 0.000474537 -1.81659e-18)
(-0.0084649 -0.000937757 3.92041e-19)
(-0.000646472 -0.000130907 -1.49584e-18)
(-0.00137061 -0.000888184 2.38139e-19)
(-0.000123308 0.000771706 -3.14639e-18)
(-0.000708973 -0.000967298 1.12341e-18)
(0.0059698 -0.00211365 2.75645e-20)
(-0.000776557 -0.00172922 -7.2862e-19)
(-4.09701e-06 4.80436e-05 -3.98553e-18)
(-0.0103428 -0.00766398 1.24436e-18)
(-0.0559154 -0.0780806 8.8944e-18)
(-0.00225241 0.000301912 1.52913e-19)
(0.00145884 0.00082256 -2.06708e-18)
(0.0139352 -0.0107664 -7.01801e-18)
(-0.00305603 0.000699857 -3.69991e-18)
(-0.000463104 0.000693199 2.4604e-18)
(0.00399792 6.76615e-05 2.34083e-19)
(-0.0023465 0.000113387 -5.55094e-20)
(-1.35884e-05 -0.000102604 -4.60642e-19)
(0.00131929 -0.000394764 -1.16764e-18)
(0.001851 -0.00413811 1.34478e-18)
(0.0188226 0.309305 -6.9495e-18)
(-2.94385e-05 0.00246142 1.9341e-17)
(0.00107224 4.18071e-06 -7.13277e-18)
(-0.000440117 0.00147768 -1.59963e-18)
(-1.73193e-05 0.000817155 -2.42909e-18)
(-0.00120628 -0.000896352 1.54365e-20)
(0.128279 -0.181372 4.05157e-17)
(-0.00398201 0.00112974 2.16314e-20)
(-0.0530314 -0.100722 -7.51392e-17)
(-0.000913759 -0.00019528 -2.5334e-18)
(0.000267065 0.00106093 -6.6854e-18)
(-0.00792832 -0.00545303 1.36324e-17)
(-0.00173927 -0.000767449 7.32946e-19)
(-0.0387596 -0.12091 4.21211e-17)
(-0.00212258 -0.0081567 -1.33949e-17)
(0.0140669 -0.0101741 -4.29726e-18)
(0.000402521 7.10539e-05 8.04592e-19)
(0.00843614 0.0091969 8.07153e-18)
(0.000244479 0.00159501 2.76402e-18)
(0.355915 -0.0216628 -2.3644e-17)
(0.0356979 -0.0755561 7.76056e-17)
(-0.00112329 -0.0016107 3.02669e-19)
(0.00364136 -0.0103133 1.28762e-18)
(0.0799093 -0.143197 1.92844e-16)
(-0.00448622 -0.00294057 -5.19458e-18)
(-0.0345538 -0.0364256 1.0017e-18)
(-0.00992622 -0.0401328 3.39255e-17)
(0.00044072 0.00125378 -4.7827e-18)
(-0.000501074 0.00143086 -3.46262e-19)
(-0.000632346 0.000927056 -6.21799e-18)
(-0.00594114 0.0207877 1.76052e-17)
(-0.00838316 -0.000969649 -2.33692e-19)
(0.000607812 -0.00030765 6.54444e-19)
(0.00311344 -0.00671446 -1.47401e-17)
(-0.00207471 -0.000185032 -7.27778e-19)
(0.000557846 -0.000903181 -8.05663e-19)
(0.00432608 -0.00157004 4.33044e-19)
(-0.00362333 -0.00188248 1.10172e-19)
(-0.000871305 7.43188e-05 1.26741e-18)
(0.459739 -0.0272692 -8.84977e-18)
(0.180461 -0.157235 -1.41118e-17)
(0.00481034 0.000498945 8.06067e-18)
(-0.0034639 -0.000147422 -1.71394e-20)
(-0.000557274 0.00336696 1.0347e-17)
(0.00207136 0.000589618 -3.26381e-18)
(0.00470294 -0.0112134 4.00316e-17)
(0.0127037 0.0476145 9.66262e-17)
(0.19437 0.0849826 7.12185e-17)
(0.0359286 -0.0397217 1.3078e-17)
(-0.000333516 0.000735372 -1.76821e-18)
(-0.0034997 -0.00194909 -1.03619e-18)
(-0.00409311 -0.00081873 -2.15807e-19)
(0.000131189 0.00157193 4.05156e-18)
(0.0272617 -0.00230641 5.38745e-19)
(0.231067 0.0821598 -9.12065e-18)
(-0.0729439 -0.00811606 8.25193e-18)
(0.195178 -0.169298 -7.06587e-18)
(-0.00878815 -0.00237771 -2.9789e-18)
(-0.00557804 -0.000383671 -2.18203e-18)
(0.0754576 0.118017 -1.27642e-16)
(0.0386965 0.0386949 7.05571e-17)
(0.0149403 0.00693165 3.91502e-19)
(0.099886 -0.163225 7.02238e-18)
(-0.396266 0.109812 -8.57888e-17)
(-0.00206911 -7.56868e-05 1.44523e-18)
(0.0241639 0.0305364 -2.04629e-17)
(0.004141 -0.00640241 6.37442e-19)
(-0.000412528 0.00348721 -1.46181e-17)
(-0.0489779 0.0505232 -1.13198e-16)
(-0.00298817 0.00216727 -5.05188e-18)
(-0.00199144 -0.00796841 -4.26233e-18)
(0.00184806 0.00254001 4.19434e-18)
(0.153886 -0.170514 7.33293e-17)
(0.0851403 -0.0451275 -1.795e-17)
(-0.00205745 -0.00138047 1.16715e-18)
(0.0797368 0.156854 -8.77356e-17)
(-0.00096627 -0.00553085 3.31347e-18)
(0.102768 0.0741392 4.79313e-19)
(-0.00106391 0.00111802 2.04947e-18)
(0.516523 0.0215132 4.89759e-17)
(-0.0172 0.12287 8.03929e-18)
(0.00786962 -0.0431592 3.56766e-17)
(-0.0198643 0.2648 9.72112e-17)
(-0.00260954 -0.00698248 4.09269e-19)
(-0.00243917 0.000995499 -2.05865e-18)
(-0.00321516 -0.000148662 1.08832e-19)
(0.0010181 -0.00283251 -2.81769e-18)
(0.0130231 0.0100688 -3.27844e-18)
(-0.00157706 -0.00144212 5.41408e-19)
(-0.00135867 -0.000573175 1.54011e-18)
(0.0422463 0.0369453 -5.44222e-17)
(-0.000967735 0.00224513 6.28985e-18)
(-0.000775378 -0.00061867 -1.30235e-19)
(0.125798 0.0723338 -4.52681e-18)
(0.00561408 0.000782821 3.7906e-18)
(-0.00164083 0.000234116 2.92095e-18)
(-0.00806398 0.000680219 -2.73298e-18)
(-0.0398523 0.230809 1.74919e-17)
(0.000215645 -2.3748e-05 -7.21979e-20)
(0.0258551 -0.000793592 3.93848e-19)
(0.0671761 -0.0296537 5.15808e-17)
(-0.000517026 0.00330117 -2.46611e-18)
(0.096844 -0.040817 1.92421e-17)
(-0.00357657 0.00175468 4.15785e-19)
(-0.00344695 0.000232957 3.50773e-18)
(0.00726054 -0.00357848 2.76948e-19)
(-0.00207365 -0.000722507 6.99557e-19)
(0.00162288 -0.0045444 -2.97269e-18)
(-0.000164672 0.00372028 1.56562e-17)
(0.0447468 -0.0629624 -7.48982e-18)
(-0.00609944 -0.0121148 -2.41479e-18)
(0.00237396 0.00480302 -7.87775e-18)
(-0.00441593 -0.0104077 -9.37208e-18)
(0.0139443 -0.115967 -4.03538e-17)
(0.00144549 -0.000128165 -4.0784e-19)
(0.0605082 -0.0211668 -1.00437e-17)
(-0.00877463 -0.00206753 4.24809e-18)
(-0.00183533 -0.00184597 -5.26143e-20)
(0.0485884 0.01938 -2.97044e-18)
(-0.00562738 -0.000392796 -8.90053e-19)
(-0.00899905 -0.00183233 2.44832e-18)
(-0.01003 -0.00251258 2.22706e-19)
(0.00449029 -0.00198644 -2.15891e-18)
(0.000883542 -0.000570981 2.55427e-19)
(-0.00251437 -1.2471e-05 2.96705e-19)
(-0.00321064 -0.00479043 6.12427e-18)
(-0.00751607 -0.00305988 2.77434e-18)
(0.000264974 0.000684973 2.7238e-18)
(-0.0016887 -0.000123989 1.22343e-18)
(-0.00304768 -0.000790623 -8.0578e-20)
(0.00104443 -0.0040647 -8.99322e-19)
(0.00364859 2.83826e-05 5.7892e-18)
(-0.00131885 0.000321214 1.44365e-18)
(-0.00373323 -6.71151e-05 6.33758e-19)
(0.00155675 0.000835796 2.19842e-18)
(-0.00970099 -0.00231431 -6.93815e-19)
(-0.000545545 0.000150289 -4.21181e-19)
(0.00138627 -8.53962e-05 -2.47999e-19)
(0.000596663 -0.000288079 -3.12776e-18)
(0.00141642 0.00044631 -9.65598e-19)
(0.0474251 -0.0711899 1.17806e-17)
(0.0382387 -0.0353561 -6.75632e-18)
(0.0319575 0.11367 -6.60969e-17)
(0.0161558 0.00764208 1.40389e-17)
(0.0145329 0.00485011 -2.34843e-18)
(0.00321118 0.00358215 1.8648e-19)
(-0.00980598 -0.0291821 7.16381e-18)
(0.0129104 -0.0744377 8.64806e-18)
(-0.00361526 -0.00457872 -1.04356e-17)
(-0.00285773 0.00086838 -2.09544e-19)
(-0.00253585 -1.24126e-05 2.26647e-19)
(0.000850094 -0.00268955 6.51647e-18)
(0.000134065 -0.000580694 -2.71919e-19)
(-0.0231881 -0.0630617 2.27405e-17)
(-0.00919666 -0.00386307 2.41449e-18)
(-0.00129324 9.27458e-05 -1.31044e-18)
(-0.0082287 0.00068886 1.94912e-18)
(0.0137496 0.0109172 2.28706e-19)
(-0.00786747 -0.00237465 -1.73511e-18)
(0.0615001 -0.0331785 -2.11939e-17)
(0.0158237 0.00575736 -4.90438e-19)
(-0.0265522 -0.0203691 5.3023e-17)
(1.77342e-05 -0.00557794 -2.92647e-18)
(-0.00778687 -0.00276001 -7.55654e-19)
(-0.000159782 -0.000596698 -2.56287e-19)
(-0.0154645 -0.00620148 -3.1724e-18)
(-0.00794525 -0.00113265 4.96493e-19)
(0.00343748 -0.0067149 2.82545e-18)
(-0.00315353 0.000774384 -2.00075e-18)
(-0.00316988 -0.00972117 1.5509e-17)
(0.334559 -0.0336044 1.7344e-16)
(-0.00320438 -0.000570418 1.62125e-19)
(-0.00578341 -0.0024213 4.36704e-18)
(-0.000114901 -0.0541617 -7.65331e-18)
(-0.00970426 -0.0267361 -1.10046e-17)
(-0.00421068 -0.0013712 2.48333e-19)
(-0.00195433 0.000427595 1.81451e-18)
(0.00173909 0.000617805 -7.78453e-19)
(0.103434 -0.195652 -2.57668e-18)
(0.00603905 -0.0154556 -2.50568e-17)
(-0.00397427 0.0257135 4.83718e-17)
(-0.00049178 3.86335e-05 -2.21309e-18)
(-0.00284254 -0.000117009 -2.61336e-19)
(0.00121883 -0.00019919 -1.59323e-18)
(-0.00234253 -0.00200258 1.21267e-19)
(0.00319235 -0.111854 -8.1294e-17)
(-0.000360719 0.000353424 -9.36997e-18)
(0.00246429 0.000333319 6.94605e-19)
(-0.00203673 -0.000317668 7.89744e-19)
(-0.00299851 0.00173481 -1.43911e-18)
(-0.00910614 -0.0105514 -1.05984e-17)
(0.00310741 0.00286811 7.37662e-18)
(0.00978196 -0.0197821 9.06043e-18)
(-0.0707583 0.411834 9.6186e-17)
(-0.00171948 0.00264303 1.37589e-18)
(0.262637 -0.258528 7.58907e-17)
(0.00580014 3.14333e-05 1.98054e-18)
(-0.00760937 -0.00592772 -1.65447e-18)
(0.000957982 0.00136961 1.69031e-18)
(0.274049 -0.0365133 4.33184e-17)
(-0.00565503 4.37688e-05 -3.74853e-17)
(-0.215166 0.0464298 -2.8296e-17)
(-0.486545 0.0977013 1.44512e-16)
(-0.00797399 -0.000402933 2.9077e-19)
(-0.00915188 -0.00380616 -2.5703e-18)
(0.000404311 -0.000416967 2.56977e-18)
(0.00265768 0.00197856 4.50249e-18)
(-0.00380256 -0.0103544 -2.25276e-18)
(-2.18299e-05 0.000429166 2.02828e-18)
(0.00547988 -0.00603912 -9.56103e-18)
(0.000687383 -9.69495e-05 2.82643e-20)
(-0.00408284 -1.15494e-05 5.32351e-20)
(-0.00203017 1.3229e-05 5.51155e-19)
(0.00998184 -0.0220791 -3.65192e-17)
(0.00146236 0.000272132 -3.51781e-18)
(-0.00339772 -0.00529091 -1.90413e-18)
(-0.00173934 0.00157276 6.86e-18)
(0.00196718 0.0025775 -2.27905e-19)
(-0.162404 0.222929 4.35435e-17)
(0.00362083 4.45924e-05 -9.7333e-19)
(0.00483601 0.000549282 4.60418e-18)
(-0.00400547 -4.1626e-07 6.35735e-19)
(-0.00754337 -0.00219296 -1.15276e-18)
(0.00590462 -0.00840476 5.4397e-18)
(0.00586637 -0.045072 -5.29195e-17)
(0.0153272 0.0039144 9.98319e-18)
(0.192873 -0.143915 -7.51568e-17)
(-0.00793617 -0.0111345 3.32021e-18)
(-0.00209235 -0.0076799 -1.33777e-17)
(-0.0016566 0.00162974 -2.92338e-18)
(-0.0037524 -2.58918e-05 -2.59835e-19)
(-0.00193003 -0.00339686 -2.69042e-18)
(-0.00103071 0.00017026 -2.67064e-18)
(0.129585 -0.119214 -4.47142e-17)
(-0.00245086 0.000791538 2.6534e-18)
(-0.0011961 -0.00155677 -4.32976e-19)
(-0.0564813 -0.0198387 1.64578e-18)
(-0.00118086 -0.000535251 -6.77474e-19)
(0.00273008 0.00167349 -5.21503e-18)
(0.00291736 0.00221796 -6.67545e-19)
(-0.0581914 -0.0254779 -3.75921e-19)
(-0.00769177 -0.00179738 -1.31685e-18)
(0.00199105 0.00473881 1.63524e-18)
(0.0132533 -0.00944896 -8.05206e-18)
(0.00539137 -0.00581814 6.15335e-18)
(-0.000959606 -0.00340192 -4.23385e-18)
(-0.0016025 0.00113833 5.45521e-18)
(0.240755 -0.175096 3.22735e-18)
(0.00275139 -0.00596394 -1.65687e-17)
(-0.00632703 -0.00297724 -1.95227e-18)
(0.0056479 -0.00822154 9.51356e-18)
(-0.00604746 0.000508289 1.1978e-18)
(-0.00308487 -0.000357114 1.21699e-18)
(-0.00453281 0.000490324 -4.06665e-18)
(0.00351303 0.00171065 8.51031e-18)
(-0.145056 0.0252269 1.0649e-16)
(-0.00919861 -0.00354204 -2.12978e-18)
(-0.00107205 0.000370958 4.88621e-18)
(0.000163175 0.00264371 7.48099e-18)
(7.60352e-08 5.21898e-05 8.73657e-19)
(0.0015166 0.000453551 -2.05084e-20)
(0.0353656 0.0358556 -1.44168e-17)
(-0.00201797 0.00107127 2.74928e-18)
(0.000891044 -0.0009582 3.48772e-19)
(0.0947472 -0.159943 -2.53775e-16)
(-0.00214795 -0.000321892 -6.51557e-19)
(-0.0364358 -0.0487486 2.9335e-18)
(0.115506 -0.137838 7.57031e-18)
(0.00712844 0.013577 2.02899e-17)
(0.0952904 -0.302395 2.69448e-17)
(-0.0286989 0.107824 -7.3955e-17)
(0.00499987 -0.00173247 -1.23778e-18)
(0.0476589 0.0234283 -3.16066e-18)
(0.0042447 0.000778526 6.19169e-18)
(-0.0214857 -0.00682544 3.72326e-18)
(-3.00087e-06 0.00017404 3.98676e-18)
(-0.00130734 0.00132514 -4.49887e-18)
(-0.0983079 -0.0671036 9.33797e-18)
(-0.000232737 0.000456326 -1.07418e-19)
(0.00347022 0.00214846 6.08263e-19)
(0.107919 0.113199 1.6654e-17)
(-0.00241719 -4.70137e-05 2.14681e-19)
(0.00796875 8.56873e-05 -2.53907e-18)
(0.0120587 0.0228245 2.35485e-17)
(0.102317 0.0539115 6.48665e-18)
(-0.000312143 -0.00157583 9.6698e-20)
(-0.00356285 -0.000287841 7.00895e-19)
(-0.0728214 -0.000661484 -3.5645e-17)
(-0.00881864 -0.00153972 2.70378e-17)
(-0.00789008 -0.000388483 2.88034e-18)
(0.0198264 0.029829 -1.02405e-17)
(-0.397336 -0.0383179 -4.91044e-17)
(-0.00100943 -0.000823123 -4.87218e-19)
(-0.0012225 0.000328531 1.3272e-18)
(-0.00160668 -0.000866693 9.04584e-20)
(0.00318132 1.98739e-05 2.65722e-18)
(-0.00208142 -1.72349e-05 -2.97663e-20)
(-0.0041058 -0.000569506 -2.55269e-19)
(0.215703 -0.226814 -9.33991e-17)
(-0.0589649 -0.0907456 4.03982e-17)
(-0.00118716 0.00136216 -8.11426e-19)
(-0.0663956 0.416167 6.26671e-17)
(0.000154112 -3.87089e-05 -6.16646e-20)
(-0.000277216 0.00030989 -5.74525e-18)
(-0.0875866 -0.0442114 -6.45606e-18)
(-0.00992645 -0.00246055 -2.04266e-18)
(-0.0526826 -0.0601966 3.26566e-17)
(0.00734537 -0.0159408 -1.11854e-17)
(0.00249419 0.00237805 7.15152e-19)
(-0.00635873 -0.000698977 7.42383e-19)
(-0.00447785 -0.000261871 -1.34304e-18)
(0.0364088 -0.0311631 -1.38993e-18)
(-0.00935724 -0.00244373 3.25585e-18)
(0.00514746 -0.0014601 1.48173e-18)
(-0.000176316 0.000232458 -1.60082e-18)
(0.31927 0.0779419 -3.64843e-17)
(-0.000771222 0.00297649 -5.94712e-19)
(-0.081981 0.0864902 1.02777e-17)
(0.00209992 0.00307974 -5.73283e-18)
(-0.00253779 0.00030926 8.22042e-19)
(0.00109528 -3.53211e-05 2.32523e-18)
(0.0103597 -0.0975483 -6.88314e-17)
(-0.00199551 0.000326696 1.89639e-18)
(0.00166174 0.00870931 -1.54565e-17)
(0.00038379 0.000295174 2.43669e-19)
(-0.00518516 -0.00174927 -5.31964e-19)
(0.0584325 0.128913 -1.25856e-16)
(-0.000407703 -0.00710677 -8.66515e-18)
(0.00141041 0.00136286 -5.38544e-18)
(-0.00126424 -6.22286e-05 4.80258e-19)
(-0.0389486 -0.0231312 -4.46485e-17)
(0.00271137 2.79261e-05 -3.31559e-19)
(-0.00085076 -0.00730137 1.81589e-18)
(0.00241768 -0.00209686 6.1392e-20)
(0.000257832 -0.000592735 5.87661e-19)
(0.000584064 0.370774 -4.66422e-17)
(0.167375 -0.248936 1.10428e-17)
(0.00254075 -0.000163351 3.42029e-20)
(-0.000120438 0.00230966 4.47525e-18)
(-0.00890495 -0.00379247 7.46624e-19)
(0.00176041 -0.00010526 2.38913e-19)
(0.00346602 0.000174898 1.37314e-18)
(-3.72538e-05 0.00137487 7.11972e-18)
(0.0200848 -0.0616609 8.58013e-18)
(-0.000480495 0.000798871 3.08586e-18)
(0.000136301 -3.53744e-05 -7.30727e-20)
(0.00882132 0.00167594 9.60235e-19)
(-0.0475503 -0.073121 5.24417e-18)
(0.00692225 -0.00546569 1.93704e-17)
(-0.00135835 0.000189796 -3.12438e-18)
(0.00324185 -0.00647054 -2.70416e-18)
(-0.365403 0.0695886 6.46548e-17)
(-0.00934364 -0.0109519 -4.27506e-19)
(0.000533882 0.0014198 3.09115e-19)
(-0.00167701 0.00122521 -4.23896e-18)
(0.0422464 -0.0716789 3.34962e-18)
(-0.00690228 -0.00292025 7.80354e-18)
(-0.000545786 0.000308236 1.80124e-19)
(0.00563337 0.00939683 2.01501e-18)
(-0.00351009 -0.00210461 -7.77691e-19)
(-0.00514732 -0.000529938 2.13061e-19)
(8.5488e-05 0.00390593 9.18771e-19)
(-0.00624428 -0.000466263 3.45743e-20)
(0.0146862 0.00150017 -4.77377e-18)
(-0.00308428 0.000657268 4.17548e-18)
(-0.00212348 0.000325829 -1.75324e-18)
(0.311378 0.0387185 -7.20749e-17)
(-0.00398239 -0.000291997 5.41711e-21)
(-0.0100539 -0.00219223 8.53847e-19)
(-0.00181596 0.00042817 -3.418e-18)
(-0.00164094 5.64104e-05 3.27972e-19)
(0.00533608 -0.00618993 1.1354e-17)
(0.00312934 -7.50777e-05 -1.17577e-18)
(-0.00542393 -0.00210866 2.04794e-18)
(-0.219647 0.00303599 -2.61242e-17)
(0.000286848 0.000106498 1.94389e-21)
(-0.233411 -0.142445 3.80347e-17)
(-0.00377478 -0.00450856 -1.11498e-18)
(-0.00042984 9.37304e-05 5.33724e-18)
(0.000325152 7.83698e-05 -1.62321e-18)
(-0.0153877 -0.0109708 7.17395e-17)
(-0.0058826 0.000721441 4.17435e-18)
(4.47528e-05 0.00138392 -1.40009e-19)
(0.00191715 -1.29501e-05 -5.22388e-20)
(-0.00453003 -0.00297655 -3.78336e-18)
(0.00686034 0.00445065 -1.50682e-19)
(-0.177632 0.0235649 2.27785e-18)
(0.0004532 4.40264e-05 -3.89355e-18)
(0.0147792 0.00138799 2.19755e-18)
(0.0973936 0.0898282 -3.24854e-18)
(-0.0100831 -0.0102878 1.2276e-17)
(-0.00150924 0.00028317 -1.47031e-18)
(0.000632759 0.00149527 -1.62802e-18)
(-0.00971791 -0.00197916 2.91677e-19)
(-0.000436273 0.000315933 9.82497e-19)
(0.00470825 -1.8764e-05 5.44541e-18)
(-0.14012 0.00060312 2.0316e-17)
(0.0928908 -0.120163 -9.3236e-17)
(-0.000234313 0.000615045 4.96066e-19)
(-0.00225043 -0.00822274 1.96918e-17)
(-0.0083855 -0.00712498 4.34023e-19)
(-0.00618715 -0.00699002 2.93919e-18)
(-0.00205197 0.00209808 4.18965e-18)
(-0.0014797 -6.34012e-05 -1.31479e-18)
(-0.0316307 -0.0812579 6.24765e-18)
(0.0321723 -0.0318445 -5.95569e-18)
(0.0940403 0.0824183 -3.57001e-18)
(-0.00401841 -0.000658057 -7.50429e-19)
(-0.00932917 -0.00212949 -1.02161e-18)
(-0.0108315 -0.00237383 2.50381e-18)
(-0.00386464 -0.000347419 -7.93639e-20)
(0.217284 0.285881 -4.94967e-17)
(0.00328669 -0.00718839 -8.80482e-18)
(-0.00461374 -0.00303687 -5.73629e-18)
(-0.000538095 -0.00111187 -5.25438e-19)
(-0.000654283 -4.80234e-05 1.63217e-18)
(-0.00330739 0.00197489 1.45734e-17)
(-0.038925 -0.0825036 -1.85318e-17)
(-0.00105898 -0.00719393 1.17658e-17)
(-0.00216623 0.00116953 7.55396e-19)
(0.0104365 -0.0438821 -9.69599e-18)
(0.0936513 0.0523315 -1.38656e-18)
(0.0775197 -0.020281 -1.38872e-17)
(0.0122891 -0.011858 -4.92762e-18)
(0.00350527 0.000118212 2.66268e-18)
(-0.00143866 -0.0016781 -2.23175e-18)
(-0.0249197 0.00154353 -5.01603e-19)
(0.00356439 -0.00701195 9.91841e-19)
(-0.189607 0.0119638 6.15248e-17)
(0.340062 0.105761 -1.01285e-17)
(0.00211553 0.00505158 -9.81528e-18)
(0.0015942 0.00873625 1.33552e-17)
(-0.00127326 0.000271109 -1.72587e-18)
(-0.00252822 -0.00516788 -4.49974e-19)
(-0.00167341 0.00231617 8.78752e-18)
(-0.00227805 0.000261231 -7.7332e-20)
(0.229457 0.0852931 1.27503e-16)
(-0.00442615 -8.71821e-05 -5.09804e-19)
(0.00566582 1.31598e-05 -2.09798e-18)
(-0.0147359 -0.0224646 5.95463e-18)
(0.00117114 0.000375764 1.27629e-18)
(-0.0274857 -0.0701264 3.86475e-19)
(-0.0040877 -0.00433561 3.60006e-18)
(-0.00973981 -0.0583022 -5.81359e-18)
(0.00578167 -0.00321037 1.14939e-18)
(-0.000422061 0.000704409 -9.84792e-19)
(-0.00633918 -0.0040457 7.69464e-19)
(-0.00215439 -0.00709042 -5.14719e-19)
(-0.0104134 -0.000181273 -6.79473e-19)
(0.0103519 -0.0118185 3.41783e-18)
(0.035858 -0.0044443 1.20015e-17)
(-0.00440224 0.000320163 1.12056e-18)
(-0.0212383 -0.0035461 2.91789e-18)
(-0.00244461 -0.00295103 9.3226e-19)
(-0.00190486 -0.000919568 1.32767e-19)
(-0.00257143 0.000508414 3.20765e-18)
(-0.00312345 -0.00347436 1.95454e-18)
(0.0003597 0.000347214 1.01976e-18)
(0.00241735 0.00514766 -2.8799e-18)
(0.00825794 -0.00581703 1.75845e-17)
(0.0129751 0.0151811 -3.03574e-17)
(-0.00239832 0.00108286 -5.58842e-18)
(0.000428726 0.000156909 1.03113e-18)
(-0.000795867 -1.05794e-05 -2.58729e-18)
(-0.00139632 0.000873812 1.17885e-17)
(0.0444779 0.0243337 1.27923e-17)
(0.00198349 0.000132297 1.13788e-18)
(0.00273598 -0.00159496 1.04212e-18)
(-0.0231938 -0.0611573 -2.46107e-17)
(-0.00596623 -0.000448506 -1.24267e-19)
(0.00304947 -0.00702807 3.02862e-17)
(-0.0369841 0.00666573 -7.11716e-19)
(-0.000981303 0.000352339 -7.71161e-19)
(0.152039 -0.131402 -3.51995e-17)
(-0.00406618 -0.0166815 -1.33032e-17)
(0.00205734 0.000410602 -6.28182e-19)
(0.104433 -0.00542151 9.27408e-18)
(-0.00844613 -0.00264938 2.56295e-18)
(-0.00169866 0.000209577 7.02339e-19)
(-0.00110513 0.0016552 2.74965e-18)
(0.00155179 0.0011222 6.39567e-19)
(-5.03506e-06 0.000124099 -3.15663e-18)
(-0.000906357 -0.00530539 6.63759e-19)
(-0.00308434 0.00211203 -1.94943e-17)
(0.0925941 0.0360355 1.15194e-17)
(0.00094221 0.00112861 -1.5678e-18)
(0.00189259 0.00143509 -5.53209e-19)
(-0.000534209 -0.00188566 -9.18264e-19)
(0.00478033 -0.00638416 -6.06407e-18)
(-0.00294181 -0.0117168 -2.22556e-18)
(0.00104017 0.00117445 1.33509e-17)
(-0.0051988 -0.00503008 -2.05664e-18)
(-0.00140604 -0.00161302 -1.00346e-18)
(-0.00562396 -0.0107321 -4.70902e-19)
(-0.000964737 0.0013688 -4.37245e-18)
(0.00506992 -0.00303763 6.29099e-19)
(0.00122816 -0.00098645 -7.30777e-20)
(-0.000219967 0.0042464 -4.40695e-19)
(-0.0050535 -0.000319725 6.9161e-19)
(-0.00386307 0.000428171 -1.18188e-18)
(0.226315 0.0611309 3.83224e-17)
(-0.00135401 -0.000809094 -1.2927e-20)
(0.0408375 0.0226867 1.57484e-17)
(-0.000134094 0.00142256 -2.8927e-18)
(-0.00448181 -0.00343569 -1.8444e-18)
(-0.0016534 -0.000325674 1.85146e-19)
(-0.00445398 -0.0121375 -4.24841e-18)
(-0.00176526 0.000578427 -7.55313e-20)
(-0.00360523 -0.0173931 2.50611e-17)
(-0.00328539 -0.0013716 2.65955e-19)
(0.0908303 -0.00394351 1.03154e-17)
(3.07718e-05 0.000553925 -2.27809e-18)
(-0.0208214 -0.00452493 1.6426e-17)
(-0.00186286 -0.000102571 3.53767e-19)
(0.00171165 0.00263924 -2.08064e-19)
(0.0032938 0.000539282 -6.91764e-19)
(-0.00345914 0.00185426 -8.92911e-19)
(-0.00523114 0.0004836 -5.60111e-19)
(-0.000914669 -0.00529427 1.53085e-20)
(-3.09213e-05 0.000359762 2.49316e-18)
(0.0265004 0.039394 -4.95803e-18)
(0.259659 0.0856172 -2.5663e-17)
(-0.0352819 -0.0731836 1.07007e-19)
(-0.00277249 -0.00541435 3.20969e-18)
(0.0136288 0.00332335 -3.85111e-18)
(-0.00277455 -0.000765223 7.29759e-19)
(0.0148248 -0.00166574 1.02464e-18)
(-0.0123451 -0.0249907 1.25085e-18)
(-0.00108407 -2.01668e-05 9.31153e-19)
(0.00585441 0.00880354 -1.24995e-17)
(0.0389843 -0.00437352 1.21751e-18)
(-0.139717 -0.0452976 -1.89303e-17)
(-0.0355555 0.00950728 6.19921e-19)
(-0.0465442 -0.0832936 -9.04177e-17)
(-0.00189225 -0.0073618 7.59938e-19)
(-8.54988e-05 -0.000197329 1.36166e-18)
(0.000101541 0.000411785 -1.09567e-18)
(-0.00771749 -0.00566972 -2.41375e-18)
(-0.000664057 -0.00547131 -4.21899e-18)
(-0.00721635 -0.00149416 -2.90586e-18)
(-0.00895525 -0.000377476 -6.15943e-19)
(-0.00209993 -0.00384386 -3.1679e-18)
(0.035908 -0.0303717 2.09411e-17)
(-0.00101608 6.53381e-05 -1.02872e-18)
(-0.000532335 0.000951889 -5.99006e-18)
(-0.00568618 -0.00523129 1.33813e-18)
(0.0274822 -0.0382716 -8.94318e-17)
(0.00128884 0.00237575 -2.35634e-18)
(0.00401391 -0.00623965 2.13217e-18)
(-0.0241487 0.0044219 4.59323e-19)
(-0.00246063 0.000713353 -1.25285e-18)
(-0.0340533 0.0834862 -9.71597e-18)
(-0.00521441 -0.00031549 9.36776e-20)
(-0.00480561 -0.000344608 -3.26609e-19)
(0.000780313 -0.000121808 2.42469e-18)
(-0.00333665 -0.00219414 -5.55952e-19)
(0.257133 -0.0576282 -6.12913e-17)
(-0.0174594 -0.0275454 -2.94182e-18)
(0.00477304 -0.00783351 5.71976e-17)
(0.00166619 3.20937e-05 -1.7897e-18)
(-0.0362344 -0.169261 1.26613e-17)
(0.322168 0.0450117 5.73091e-17)
(0.0945191 -0.132324 -2.55212e-17)
(-0.00603014 -0.00223629 1.99446e-18)
(-0.0119459 -0.0298319 -5.59776e-18)
(0.0561283 -0.0269263 -1.96182e-17)
(0.0142668 -0.00511153 -3.26615e-18)
(-0.00303622 0.00158997 -1.46636e-17)
(0.00205029 0.000364494 3.60988e-19)
(0.0062478 0.00966515 1.29047e-17)
(0.359418 -0.0173177 -2.597e-17)
(-0.00306978 -0.000913742 -3.94251e-19)
(0.00861585 0.00173125 1.70359e-19)
(-0.127534 -0.536118 1.2614e-17)
(-0.00362227 0.000441315 -4.45871e-18)
(-0.0032468 0.000170157 -2.23499e-18)
(-0.00173278 -0.000945397 -2.31007e-19)
(0.000939127 0.000960705 -1.25823e-18)
(-0.00492661 0.000492226 2.54799e-21)
(-0.00803536 -0.00191017 1.1312e-18)
(-0.0123763 -0.0144284 -5.10602e-17)
(-0.0252668 0.28762 4.97971e-17)
(-0.00711168 -0.00181425 7.0192e-19)
(-0.00396631 0.000150713 -2.53792e-19)
(0.364593 -0.000114726 -9.57923e-19)
(0.687182 0.0724096 3.66651e-17)
(-0.00219276 -0.000697728 -1.11884e-18)
(0.00059622 0.00151284 -1.33188e-20)
(-0.000156951 6.75848e-05 8.20753e-19)
(0.00284583 4.11502e-05 -7.14891e-19)
(-0.0911054 -0.0570966 6.09565e-17)
(-0.0195658 -0.0264964 -3.75672e-18)
(0.0664242 -0.0230145 -1.89126e-17)
(0.000612193 0.000926057 4.34536e-18)
(-0.00490188 9.1328e-05 3.98299e-18)
(-0.00166434 -0.00165664 2.92463e-18)
(-0.000282527 0.00383062 1.75403e-18)
(-0.000298663 0.000565266 3.07986e-18)
(-0.00542107 -0.0116759 -1.92049e-17)
(3.55337e-05 0.00228281 1.84604e-19)
(-0.0757705 0.42812 -1.27995e-16)
(0.00132559 0.000193969 -2.59817e-18)
(-0.00428166 0.000331724 9.31793e-19)
(0.0102109 -0.007809 -1.10089e-17)
(0.000607693 -0.00079197 -4.02475e-19)
(-0.010367 -0.00591052 3.72768e-18)
(0.0303221 0.00982452 7.41891e-19)
(-0.00616522 -0.0038734 1.88645e-18)
(0.200406 0.105225 -7.3182e-18)
(-0.0235264 -0.069108 -1.05026e-16)
(-0.000791031 -0.000151929 1.71011e-18)
(0.0047945 1.93016e-05 -9.33811e-19)
(0.194242 -0.334119 9.15538e-17)
(0.367666 0.018282 -5.32828e-17)
(0.0131219 -0.00184588 7.4088e-19)
(-0.0096158 -0.00261361 1.81689e-18)
(-0.0414593 -0.139864 8.74603e-18)
(0.0476662 0.0306145 1.75568e-18)
(0.00164328 0.00810904 -2.27571e-17)
(-0.00310477 0.00151593 -3.48716e-18)
(-0.00230368 -1.25234e-05 -1.79595e-18)
(0.00399067 0.000144242 -7.84937e-19)
(0.0625518 -0.0413374 -3.20201e-17)
(-0.00239502 -0.0053692 -3.85247e-18)
(0.0344602 0.0240005 1.80309e-18)
(-0.00103177 0.000231639 -6.29635e-20)
(-0.119987 0.253546 -5.35489e-17)
(-0.122549 0.0434176 -8.20462e-17)
(0.0015534 0.00146971 8.79124e-18)
(-0.000885477 0.000600832 1.8092e-18)
(0.0249124 0.0380135 2.21878e-17)
(0.00516463 0.000910815 -1.12387e-18)
(-0.00175897 -0.000348348 -1.82985e-19)
(0.00338845 -0.000449856 -1.38551e-19)
(0.312841 0.122085 -1.15809e-16)
(-0.137765 -0.302303 -3.46856e-18)
(0.302536 0.0399265 1.05222e-17)
(-0.00978349 -0.00211314 1.53245e-18)
(-0.00498205 -0.0261526 9.87222e-18)
(0.0138752 -0.00453808 -5.17327e-18)
(-0.00132613 -0.000147754 3.92667e-20)
(0.00151124 -2.26532e-05 -8.55733e-19)
(0.00238636 0.000514006 1.20562e-18)
(0.0558511 -0.0440979 1.31294e-17)
(-0.000683802 0.000227215 2.14753e-18)
(0.000852294 0.00146028 6.13071e-19)
(-0.0058737 -0.0259016 -1.51944e-17)
(-0.00194782 0.00201849 -5.49515e-18)
(0.00637604 -0.00429649 4.20509e-19)
(0.00176789 0.000149357 -1.57898e-18)
(0.00510936 0.00144438 -4.15862e-18)
(2.18165e-05 -7.77215e-05 -1.13544e-18)
(-0.0025607 0.000900961 7.05821e-19)
(0.0291087 -0.0695859 -4.59054e-17)
(0.000989034 0.00021878 -1.24396e-18)
(0.000563128 -0.000167362 -1.80332e-18)
(-0.00176358 -0.0152585 1.1303e-17)
(0.026116 0.00135212 2.59346e-18)
(0.0747575 0.0288148 -3.78567e-19)
(0.00254763 0.000394446 -3.33609e-18)
(0.021651 -0.00136104 2.0964e-18)
(0.770969 0.0865237 2.06352e-18)
(-0.28269 -0.0873922 -8.57409e-17)
(0.00155261 0.00274741 1.96776e-18)
(0.141663 -0.0759345 5.77016e-17)
(-0.0323346 0.132379 7.15249e-17)
(-0.00404771 0.000559949 2.14363e-18)
(-0.00117644 -0.000201335 1.9317e-19)
(0.00040379 0.00120995 2.20404e-18)
(0.00132559 0.00423157 3.75798e-18)
(0.152825 -0.364277 -1.50796e-16)
(0.00250618 -0.00234436 -2.20091e-18)
(-0.00122506 0.000460795 -3.91023e-18)