/*--------------------------------*- C++ -*----------------------------------*\
| =========                 |                                                 |
| \\      /  F ield         | OpenFOAM: The Open Source CFD Toolbox           |
|  \\    /   O peration     | Version:  v2012                                 |
|   \\  /    A nd           | Website:  www.openfoam.com                      |
|    \\/     M anipulation  |                                                 |
\*---------------------------------------------------------------------------*/
FoamFile
{
    version     2.0;
    format      ascii;
    class       volScalarField;
    location    "300";
    object      p;
}
// * * * * * * * * * * * * * * * * * * * * * * * * * * * * * * * * * * * * * //

dimensions      [0 2 -2 0 0 0 0];


internalField   nonuniform List<scalar> 
10042
(
0.0227756
0.0226171
-0.0160807
-0.000590852
-0.764422
0.0213869
-0.100687
-0.245988
-0.0111046
0.0140368
-0.796288
-0.000828711
-0.000649218
-0.000858545
0.0467442
0.0195907
0.0196309
0.0145817
0.0227257
0.215288
0.0104623
-0.0804375
-0.000175269
0.000646565
0.0226472
-0.0630474
0.0251301
0.0126188
-0.00538041
0.00677355
0.0264358
-0.581792
0.0139912
-0.00878261
-0.0588414
0.00094699
-0.0614555
-0.0553312
0.00113628
-0.0186007
0.239081
0.0388281
-0.068132
0.0209212
-0.745593
-0.0798558
0.0355308
-0.0297612
-0.0623955
-0.0214084
0.0131867
-0.01168
0.0505391
-0.0164562
-0.0626835
0.0211389
-0.00616274
0.0353021
-0.00903888
0.048332
0.0248344
0.02437
-0.0609531
-0.0154206
0.0509009
-0.0113841
0.0448144
0.20741
-0.822878
0.0141325
-0.0154613
0.246196
0.0221516
0.130844
0.0448448
0.000444298
-0.775068
0.0232534
0.091128
-0.1726
-0.0597711
-0.711885
0.0053622
0.037958
0.0453749
0.017575
0.0214414
-0.277346
0.0307204
0.020943
-0.0179353
-0.704326
0.0110276
-0.0116162
0.00835428
-0.00128988
0.0190335
0.00441144
-0.0177189
-0.00950395
0.0143689
-0.266324
-0.202287
0.0173918
0.0199588
-0.0980515
0.025977
0.0188056
0.0105259
-0.00385939
0.0039528
0.0110452
-0.0390697
-0.80114
0.0503073
0.0143512
0.0312614
0.0232529
-0.00170568
-0.524355
0.0308819
-0.227196
0.0166845
0.0297125
-0.261792
0.00598098
-0.256604
-0.0712018
-0.0875093
0.020018
0.0919137
0.0372821
-0.681069
-0.25167
-0.00878476
-0.162144
-0.532968
-0.0184022
-0.0323731
-0.291323
0.0257052
0.031728
0.0263546
-0.329373
-0.0111639
0.0114588
-0.177425
-0.00619169
0.00426073
-0.0144784
-0.0124586
0.0136887
-0.389707
-0.561663
0.02389
-0.000607286
0.0636368
0.0247048
-0.16294
-0.593648
-0.834663
-0.237019
0.0269716
-0.0123166
0.000978848
0.036838
-0.0126491
-0.582568
-0.567132
-0.561578
-0.0174216
0.0106888
-0.661063
0.193007
0.0645229
0.113946
-0.680529
0.0188982
0.213824
-0.075487
0.0655626
-0.588994
0.0451091
-0.069612
0.0395649
-0.520656
-0.33158
-0.00802864
-0.840952
-0.0412154
-0.146022
0.0283215
-0.362584
-0.6446
-0.15934
-0.650029
-0.0501486
0.0253695
-0.000417798
-0.0236412
0.0910421
-0.00923212
0.0095946
0.163076
0.0457612
-0.00203825
-0.21381
0.0238737
0.0151778
0.0220747
-0.609396
-0.000951877
-0.0035192
-0.201276
0.0615752
-0.348264
0.0421027
0.0178021
-0.203145
0.00551638
-0.0425188
0.0624297
-0.293164
-0.0560372
0.0575532
-0.0632639
-0.26828
0.0128895
-0.302835
-0.0153008
-0.0115025
0.0627448
0.0111696
-0.0144979
-0.0167114
-0.0180381
-0.000716435
-0.00115407
-0.034139
-0.0181532
0.0272408
0.018064
0.00151098
-0.0390028
0.0140874
0.026084
0.00129496
0.0187642
-0.0167677
0.0144528
-0.000332738
0.0137701
0.00836666
-0.311942
-0.244752
-0.83134
0.0706904
0.0492901
0.0464395
-0.0867315
0.0314428
-0.0325252
0.0260195
-0.00103552
-0.0212857
-0.00040059
-0.0723389
-0.025458
0.0206503
0.0218951
0.0998962
-0.0171533
-0.206025
0.054558
-0.320226
-0.04249
-0.0167844
0.000480009
-0.0382671
-0.0117969
-0.080187
0.0261768
-0.0644476
-0.679864
-0.00164009
-0.0141278
0.00767978
-0.0860738
-0.00758843
0.0254854
0.00843013
0.131107
-0.154687
-0.340742
0.0132287
-0.000424127
0.0124435
-0.0114504
-0.253753
0.022824
0.0245911
0.0111394
0.0424982
-0.0454307
0.0366681
-0.172997
-0.797652
0.047719
-0.473238
0.0144227
-0.0371529
0.0252554
-0.580603
-0.268039
-0.571124
-0.660986
-0.000135054
-0.0252648
0.0134564
0.0246842
-0.0651547
0.0173774
-0.0713073
0.00365053
-0.00131806
0.0202245
-0.181741
0.0205387
-0.0388654
0.0371437
0.0349783
-0.72924
0.0146651
0.0239604
0.0111051
-0.0147039
-0.108724
-0.155938
0.0389695
-0.44661
-0.0483884
-0.0656312
0.0376662
-0.00100351
-0.0214355
0.0147374
-0.389384
0.0255533
-0.0109685
0.00343357
0.01016
0.0189888
0.0375283
0.00536384
-0.0151403
0.0568199
-0.0835888
-0.0659653
-0.0250532
0.0268533
-0.462328
-0.184493
-0.0221962
-0.107249
0.0160656
0.0111545
0.0157233
0.0213768
-0.519856
-0.0216516
0.0166809
0.0457322
0.0149092
0.0204996
0.195518
0.0258037
-0.00564121
-0.530476
0.00867264
-0.178465
-0.382157
0.128324
0.148169
-0.820455
-0.0151554
0.0837887
0.0243556
-0.02302
0.0213909
0.0367747
0.0535779
0.0175846
0.0263931
-0.231842
-0.000277962
0.0107019
0.192587
-0.107005
-0.0105718
-0.00609702
-0.571188
-0.273869
0.0106991
0.215743
-0.765584
0.00501792
0.0167226
-0.00318294
0.0181096
-0.00127023
-0.00153373
-0.454605
-0.222248
0.0370165
-0.80114
-0.000701397
0.0229502
-0.439466
-0.0185594
-0.201105
-0.160954
0.0401653
-0.00585554
-0.00586543
-0.171641
-0.0177206
-0.0110885
0.0143192
-0.807892
0.0598835
-0.598799
0.0441057
0.0131524
0.0138279
-0.371706
0.0138113
0.0973113
0.0188017
-0.0146201
-0.595865
-0.0525538
0.0309499
0.00341249
-0.548394
0.0191025
-0.054731
-0.0173871
0.000143736
-0.755924
0.143931
0.0101567
0.0485509
-0.0228366
-0.000262123
0.0191625
0.0310209
-0.542936
0.029895
-0.000828807
0.0185687
-0.183681
-0.186668
0.0150341
-0.0748425
-0.732722
-0.0449762
0.0337162
0.0266727
-0.263425
-0.0213546
0.0131205
0.0955288
-0.0123564
-0.00121318
0.063915
-0.00171668
0.0123139
0.0263521
0.0141517
-0.797756
0.00543076
-0.0163479
0.0168887
0.0136891
-0.072974
0.0103494
-0.0139482
-0.548755
0.00921242
-0.372797
-0.0321888
0.0144802
0.0142314
-0.288186
0.028179
0.0312535
0.0116474
-0.0222518
0.0456763
-0.174817
0.019756
0.0205523
-0.0442171
-0.0423207
0.0158778
0.0300244
-0.0158124
0.0178649
0.0160243
-0.606628
-0.537121
0.0176326
-0.0697812
-0.0368752
-0.0360226
0.0460382
0.00227511
-0.174859
-0.177568
-0.0757667
-0.0055015
-0.016687
-0.017979
0.00892338
-0.899678
-0.0909366
-0.0226267
-0.00618696
0.00491531
0.0446482
-0.190645
-0.052321
0.0252756
-0.545007
-0.0706352
-0.189325
-0.106914
0.0192036
-0.00887576
-0.00918257
-0.164508
-0.632214
-0.579735
0.0596117
0.1011
0.0165088
-0.0375629
0.0473528
0.0166427
-0.833858
0.0010778
0.0148978
-0.0649711
0.0180726
-0.00151997
-0.0305961
-0.12939
-0.0313965
0.0223415
-0.0278187
-0.0602523
-0.0128236
-0.108956
-0.0322988
0.0216608
-0.0175114
-0.0219487
-4.92542e-05
0.0148611
-0.0219311
0.028392
0.0601688
-0.184204
0.134979
0.0256947
0.00981057
0.0115114
0.0301224
0.105439
0.0109284
-0.0135037
-0.0775725
-0.00146748
-0.166981
0.00108321
0.0258802
-0.521949
-0.0899329
0.0191151
-0.375777
-0.0180221
0.015359
0.0395288
0.0290367
0.0197415
-0.0418518
0.0456836
-0.0728297
0.0233506
0.029495
-0.013018
-0.078104
-0.0814517
0.0301478
-0.0319732
-0.0083558
-0.0519942
0.0397989
-0.0286569
-0.00611174
0.0699965
-0.00560746
0.0150735
-0.659474
-0.00287011
0.110909
0.0309827
-0.0246819
0.00487452
-0.0704797
0.0170133
-0.0946983
-0.00843031
-0.363092
0.020752
-0.0437779
-0.00607403
0.0365922
0.0233
0.0428657
0.0163836
-0.0408495
0.0280048
0.257514
-0.541254
0.00674398
-0.038746
0.0352874
0.00812958
-0.00878567
-0.0747854
0.0136885
0.0894271
-0.0329495
-0.622974
0.00228426
-0.520324
-0.063963
0.0135989
0.0173401
-0.0353346
-0.0422592
-0.0149
8.69859e-05
-0.0277856
-0.242981
0.0136328
0.0304485
-0.0326378
-0.646985
0.0348334
-0.0703933
-0.00600184
0.022481
-0.138479
0.000197482
0.0101175
0.00521773
-0.0126914
-0.572503
-0.0643557
-0.648721
0.0119188
-0.445013
-0.550265
-0.358929
-0.0168263
-0.0829616
-0.287987
-0.0415587
0.0378263
0.019161
0.0969318
-0.634461
0.00660429
0.0194093
-0.470811
0.0261988
0.0139861
0.000314606
0.0184202
0.0167047
-0.0155474
-0.277002
-0.689844
-0.014944
0.0175864
-0.69741
-0.34475
0.00869187
0.0331975
0.0132342
0.0187915
-0.445979
-0.0580102
-0.175003
0.022241
0.0140576
-0.0120186
0.0676863
0.0246858
-0.0625608
0.0442656
-0.831581
0.0199213
0.0143354
-0.0823746
0.00684422
-0.0282278
0.0550585
-0.0268953
-0.56985
-0.627437
0.0151322
0.0156328
-0.454641
-0.746834
-0.01356
-0.0172238
-0.279126
0.113489
0.0920372
0.0372614
0.0111893
0.0108834
-0.230731
-0.0381062
0.139066
0.0157121
-0.743473
-0.515917
0.0301729
0.0232413
0.251819
0.0237367
0.00455617
-0.00149278
-0.816729
-0.584729
-0.642543
-0.0161801
-0.104887
-0.0387696
0.00147699
0.00519694
0.0241079
-0.235857
0.015692
0.0292835
-0.0993727
0.0444697
-0.196814
0.0128177
0.0251303
0.00344399
0.025558
-0.239619
0.0158363
0.0145093
-0.103217
0.0120274
-0.00802655
0.0185857
-0.243066
-0.357123
-0.342979
0.0423487
-0.547713
-0.604967
0.0259938
-0.000483008
0.0267418
0.0638354
-0.603238
-0.0197512
0.014727
0.0160903
-0.386459
-0.00743747
-0.0152755
0.0147295
0.033079
-0.115371
0.00509886
0.00670521
-0.0512494
0.0197946
0.0240484
-0.00952655
-0.00932408
-0.01372
0.0150727
0.0286914
0.0103443
-0.32415
0.018354
0.0312158
0.0266486
-0.0482549
0.109154
0.0155623
-0.00786792
-0.043086
-0.587124
1.81102e-05
-0.0250592
-0.0483367
-0.244538
0.188158
0.0449996
-0.542654
-0.0392541
0.0533667
0.00311808
-0.349413
0.0271285
0.0171497
0.00212994
0.0168854
-0.1475
0.0135309
0.0202836
0.067766
-0.0287808
-0.000197691
0.0650499
0.0630947
-0.779009
-0.0323581
-0.0418817
0.0177702
-0.0705962
-0.0147816
-0.485409
-0.04356
-0.891948
0.0160931
-0.0214859
0.0126121
0.0132574
0.0290379
-0.120219
0.117337
-0.0141154
-0.827997
0.0152804
-0.421881
-0.0187776
-0.00573932
0.126292
-0.0777584
-0.603054
0.0236238
0.0495281
0.0199764
-0.0159797
0.143204
0.0150526
0.000204282
0.0147565
-0.139509
0.0232947
0.0142739
0.00298814
0.0041729
0.0154211
0.0181513
-0.0139728
0.0132899
0.0241703
0.0598827
-0.00482924
0.0600231
0.029868
-0.576909
0.0107344
-0.435147
0.0823472
-0.658526
-0.106794
-0.021372
-0.560507
-0.0853431
-0.167297
-0.357436
-0.11434
0.0162326
0.0111884
0.00216109
-0.335147
0.00120231
-0.667465
0.0101997
-0.499906
-0.0144533
-0.00598347
-0.0302431
-0.523784
-0.706581
0.0723069
0.0296292
0.0231125
-0.0328704
7.42382e-05
0.00249705
-0.152507
0.0611158
0.0267294
0.00222372
0.0582085
-0.376861
-0.00898165
0.0221278
-0.0403137
-0.216259
0.0129252
0.0182053
-0.655105
0.0254369
0.0221705
-0.32139
0.00564125
0.0416582
-0.581956
0.140431
-0.517119
0.0293815
0.030153
-0.377234
0.002679
-0.00594499
0.0199958
-0.0221119
0.024187
0.0127315
-0.0142399
0.184823
-0.0332116
0.00650208
0.0373127
0.0274914
-0.00526192
0.0255458
0.000839973
-0.275242
-0.0118584
0.0219016
0.0260815
0.005224
0.012593
-0.0202783
-0.8008
-0.0595248
-0.00594211
0.0264223
0.1261
-0.507122
0.0277744
0.0125799
0.0283232
-0.00589883
-0.544547
-0.0171972
0.000598401
0.0120863
-0.0748705
-0.103273
0.0255681
0.0210882
0.0050723
-0.0162511
-0.0398484
0.0280209
-0.0578339
-0.091941
0.0253411
-0.0548982
-0.627046
0.0404499
-0.112702
-0.0310461
-0.373169
0.016522
-0.0153028
-0.0480757
-0.0546677
0.0279357
-0.0105356
0.0188903
-0.0234441
0.13468
-0.138139
0.0912876
-0.0287573
0.0112731
0.00307966
0.0203888
0.0228542
-0.14705
0.00572289
-0.00741961
0.0291744
-0.110885
-0.592971
0.0108851
0.00204151
-0.155279
-0.0127293
0.0268126
0.0336691
-0.144174
-0.0316543
-0.0411428
-0.572018
0.0149309
0.0242611
-0.30656
0.0114877
-0.0333485
0.00839595
-0.0277295
-0.0516288
0.0344897
0.0151492
-0.0150437
-0.0374303
-0.568246
0.0254739
0.0144995
-0.0092825
0.0549216
-0.175843
-0.906591
-0.0904413
0.0170669
-0.4195
-0.0141271
-0.70656
0.0237551
0.000614778
-0.00115537
-0.546667
0.0170464
0.0292808
0.0256903
-0.0682322
-0.310437
-0.0202081
-0.15497
0.0226811
0.0148482
-0.110836
-0.0656543
0.00983334
-0.0492975
0.0236991
-0.369289
-0.659269
0.0230726
0.0659517
0.0191278
0.0889686
0.0215618
-0.564214
0.0306552
-0.0127571
0.000385962
-0.0200869
-0.0409372
0.013835
0.0260414
0.0460582
-0.293324
-0.127027
-0.00346925
-0.0456706
-0.0320062
-0.0352637
-0.0136604
0.0959081
-0.0197887
0.0389964
0.0724145
-0.0307173
0.013905
0.0114668
0.0371747
-0.00871061
-0.304753
-0.023557
-0.205252
0.0377709
0.0252773
-0.011116
-0.00557129
-0.0738151
0.00548484
-0.0459929
-0.137142
0.0290693
0.00564651
-0.0522374
0.013481
-0.549282
-0.131185
-0.019461
-0.623357
0.0662518
-0.0639881
-0.228057
-0.0301162
-0.0267874
-0.563497
-0.0234339
-0.102671
-0.0166108
-0.0300239
0.00351703
0.04056
-0.0582916
-0.00116069
0.125402
0.00976124
0.0352661
-0.137499
0.0270529
-0.0765506
-0.0202938
-0.0113908
0.00935767
0.0734158
0.0524166
-0.00189503
-0.0648639
-0.661748
0.165248
-0.0118629
-0.0255038
0.0131395
-0.00210459
-0.643842
0.0105785
0.00620571
-0.131546
0.0165581
-0.0386336
-0.00569296
0.0195209
-0.0251215
-0.00478374
-0.00115746
-0.0399149
0.0300364
-0.0057372
0.0136941
-0.601144
0.0350982
0.0144916
-0.0052441
-0.0814824
0.0524208
-0.0253067
0.0335111
-0.00638576
0.0164277
0.02871
-0.0126889
0.0254218
0.0060679
-0.122287
-0.119368
-0.0616441
0.0652087
-0.140095
-0.145972
0.0904068
0.0882125
0.0444755
-0.451111
0.0399822
-0.00333758
0.010651
0.0135578
0.0152652
0.00868075
-0.763962
-0.731031
-0.399342
0.0152133
-0.0415825
-0.0599895
-0.00396977
0.123435
-0.0688556
-0.385333
-0.0485857
-0.764363
-0.151504
-0.113624
-0.626436
-0.0313981
-0.0311212
-0.0324493
0.00117172
-0.569703
-0.0232616
0.0746144
0.00785835
0.0018972
0.0233965
-0.858075
-0.56813
0.0149739
-0.549616
-0.425136
-0.00805541
-0.128141
-0.197377
-0.000879589
-0.76412
0.0190828
-0.434411
-0.728262
0.0153052
0.0232481
0.013438
0.040887
-0.0344813
-0.101295
-0.229014
0.0151256
0.0236595
-0.0481138
-0.0241238
0.0124151
-0.00892418
0.0114869
0.0249221
0.051306
-0.189707
0.0229737
-0.326623
-0.0254276
0.0237809
0.0747519
-0.397316
0.0320485
0.0027566
-0.231838
-0.308469
-0.0114216
-0.0407897
-0.556882
-0.154337
-0.797951
0.00599648
-0.0532606
-0.809332
-0.861624
0.0185306
0.0273279
-0.0635515
0.0303361
-0.0858034
0.0264698
-0.876792
-0.132887
-0.319982
0.0157265
0.0123072
-0.543207
0.038134
0.0218274
0.0242301
-0.58377
0.0302403
-0.006121
-0.0101817
-0.0382294
0.0150928
0.0794058
0.0337373
-0.033863
-0.000678448
-0.064393
-0.535409
-0.153004
-0.0984031
-0.737135
-0.213191
-0.0023747
-0.00147741
-0.00307008
0.0135104
-0.309434
0.0848625
-0.0144613
0.0170205
0.0293458
0.00100946
0.0392161
-9.23286e-05
0.0401558
-0.0349181
0.0171196
-0.558539
-0.847243
0.0167294
-0.463981
0.0147543
-0.0851375
0.0235831
-0.00248956
-0.56415
-0.203634
0.0121502
0.00180806
0.0330364
-0.0600453
0.0162842
-0.0493128
-0.00163355
0.0255001
-0.00399088
-0.51156
-0.609337
-0.00530159
0.0462284
-0.228851
-0.181008
0.0628754
-0.0623963
-0.897567
-0.00962009
0.0144036
0.039228
0.0340044
-0.6161
0.0239869
0.0157357
-0.323348
-0.245328
0.0242483
0.0332382
0.233018
0.015378
0.0249896
-0.278803
-0.142272
-0.578942
0.0122993
-0.00248031
0.066482
-0.0808938
0.0668253
-0.00191037
0.0204445
-0.000813896
0.0570322
-0.0052811
0.0239913
-0.027337
-0.641655
-0.00323514
0.00913429
-0.0036754
-0.136258
0.0188427
0.014162
-0.00130121
0.0205336
-0.440322
-0.883464
0.0383926
-0.388346
-0.875733
-0.693558
0.0236859
0.0378048
0.0101367
0.0240345
0.0250047
0.0223643
0.000476312
0.0140169
0.00614256
0.061972
-0.758941
-0.0281514
0.0291778
-0.0477583
0.0179383
0.0358638
-0.0577758
0.0381922
0.0134637
-0.0688296
-0.0491413
-0.48792
-0.0865594
-0.00495343
-0.768564
0.00274719
-0.00300696
-0.00457987
-0.274463
-0.106643
0.0656528
-0.0362534
0.0274355
0.0191672
0.0641581
-0.0817513
-0.0227104
-0.389712
0.0191429
0.0114845
-0.414647
-0.0559072
-0.0078962
-0.223077
-0.0343428
-0.105559
-0.264811
-0.199834
-0.546818
0.00377553
-0.00874175
0.0135176
0.0274552
0.0269999
-0.0231656
-0.0978678
-0.0117091
-0.539551
0.0162028
-0.459889
-0.623607
-0.0203285
-0.420035
0.0260561
-0.248869
-0.564154
0.0118101
-0.176126
-0.0067389
0.0172068
0.0154394
-0.218855
0.0167249
-0.436459
-0.0384584
-0.842708
0.0107084
-0.213348
-0.00859556
-0.0353758
-0.158237
0.0102375
-0.547646
-0.892127
0.0330286
-0.663899
-0.128296
-0.689091
-0.111781
0.0266865
-0.0656211
-0.134543
0.0442959
0.0182312
0.0112922
-0.0248516
-0.148953
0.0389022
0.0314626
0.0178815
-0.56042
-0.412955
0.0277455
-0.71395
-0.0567152
0.00386128
-0.0799528
0.0161495
-0.19553
-0.0543731
-3.76949e-05
0.155462
0.0270699
0.012787
0.0147723
-0.301103
-0.148238
-0.0110904
0.0321511
0.0268843
0.0155114
0.00657789
-0.517283
0.0221935
0.00701459
-0.0420206
-0.221273
-0.0430351
-0.00519128
-0.618063
0.0394501
0.0316582
0.0152777
0.0334487
-0.0353533
-0.0396781
-0.0159191
-0.366196
-0.0831114
-0.139864
-0.00473105
-0.0172232
-0.0238729
-0.0365867
0.0323705
-0.640693
0.0135718
-0.0668062
0.0196677
0.0236018
-0.0161008
-0.203792
-0.038762
-0.0519917
0.0170388
0.00806629
-0.134415
-0.0351361
-0.00175692
0.0163295
0.0109774
0.092209
-0.0258024
0.019583
-0.0993865
0.0181142
0.0231931
-0.849995
0.0245912
-0.600967
0.0409741
0.0853496
-0.067909
0.0191537
-0.0550489
-0.00238838
-0.238802
0.010482
-0.0250755
-0.0276933
0.0191721
0.0255362
-0.534051
-0.293102
0.0223138
0.0329495
-0.00816503
0.00717898
-0.169335
-0.323842
0.014842
0.0439827
0.00306909
0.00672784
0.0156208
-0.145017
-0.0103095
0.0112506
0.0268853
0.00106999
0.0285414
0.0143174
0.0148664
-0.0894386
-0.453749
-0.00798751
0.0186342
0.169103
-0.203372
0.0075983
-0.40151
-0.16894
0.00490553
-0.00573808
-0.0156331
-0.106157
-0.00365487
-0.0374227
-0.0506944
-0.0214974
0.00517777
-0.127557
-0.00155907
-0.0110501
0.0123852
0.0310029
-0.0538956
-0.363516
-0.00198012
0.0170495
-0.552256
-0.252579
-0.133271
-0.0191182
-0.0443988
-0.0064749
-0.900954
-0.0119446
-0.00925625
-0.614492
0.15185
0.0257527
-0.137222
-0.145643
-0.00013078
-0.832332
0.0301146
-0.0561771
-0.0700363
0.0233883
0.0122474
-0.00807961
0.0145486
0.00971246
0.0138196
-0.360365
0.00726049
0.00987562
-0.00057312
0.0158046
0.00712499
0.018873
-0.0713683
0.188266
-0.032245
0.0191544
-0.410413
0.0168183
0.0070068
0.0217622
-0.00819538
0.0248674
0.0111762
-0.0581206
-0.120255
0.0241881
-0.0788418
0.0742618
-0.00498342
0.00740478
-0.596176
-0.0182843
-0.000851631
0.0219538
0.194386
0.0188729
0.0146607
-0.014599
0.0081055
-0.421638
-0.581979
0.00804792
0.00847451
0.017153
0.0412143
-0.000898691
0.00626053
0.0747011
-0.101703
0.0284335
0.0444654
0.0255759
-0.284213
-0.0255435
-0.0296256
-0.155116
-0.0326234
-0.864214
0.0235524
0.0163334
-0.912627
0.0336986
-0.0265799
-0.0178636
0.159065
-0.547362
0.0342433
0.203502
-0.0553998
-0.0321038
-0.544626
0.0150656
0.043806
-0.0292389
-0.306472
-0.84236
0.02192
0.0272806
0.0220385
-0.263862
-0.00135156
-0.578148
-0.0689422
-0.577656
0.0469286
0.175163
-0.375812
0.0101231
0.0224937
0.177587
-0.0454402
0.0272799
-0.0156734
0.000136719
-0.172242
-0.226197
-0.0979977
-0.570074
-0.260581
0.013862
0.0143823
-0.490752
0.145375
-0.00923219
-0.0231898
-0.715082
-0.0159402
-0.0326991
0.0186968
0.00323929
0.0137914
0.0147425
0.162694
0.0364684
0.00114708
-0.757166
-0.560763
0.00447735
0.0457221
-0.0563741
-0.312327
-0.0269541
-0.0248286
0.0124722
0.0691136
-0.484349
0.0237385
0.0941033
-0.00604355
-0.14056
0.0118582
-0.0652734
-0.151587
-0.135974
0.0222032
0.0157211
-0.233979
-0.148625
0.0326595
0.0119451
-0.902867
0.00980121
-0.0403197
0.0333267
-0.048863
-0.00610806
-0.00825884
-0.0153459
-0.194761
0.00977252
0.0120354
-0.00751659
-0.0141381
0.0147238
-0.00538594
-0.230632
-0.669669
-0.454023
-0.0545556
0.0272284
0.102239
-0.0402952
-0.551055
0.0194611
0.0832633
0.000359479
0.0289725
-0.0263286
-0.101412
-0.279568
0.0306757
-0.835717
-0.0226549
-0.00224184
-0.0258076
-0.469737
0.0268811
0.173009
-0.674855
0.0232552
0.0350331
-0.546661
0.0237999
-0.729969
0.0269128
-0.0686138
-0.729733
-0.022931
0.0215924
0.00836886
-0.577106
-0.0535844
0.0177652
0.0742964
0.021087
-0.0283942
-0.221863
-0.556337
-0.107484
-0.851676
-0.680876
-0.017069
0.0111491
-0.00736877
-0.383497
-0.0134648
0.0142309
0.00394203
-0.0302673
0.160943
0.0224782
0.0430379
0.0135675
0.018674
-0.514547
0.0175943
-0.546836
-0.00509875
-0.0195311
-0.016027
0.00730047
-0.0023647
-0.884618
-0.781146
-0.202848
0.0213182
-0.0368304
-0.0120265
0.00538729
-0.0677742
-0.238976
-0.0879079
-0.00115635
-0.537679
-0.564812
-0.000183392
0.0141964
0.0016802
0.0144772
-0.0228599
-0.0250231
-0.510013
0.0137896
0.0307849
-0.0226091
-0.566745
-0.00538857
-0.590684
-0.00736869
-0.263315
-0.146696
-0.563731
-0.00954109
0.055298
0.061102
-0.00526289
-0.00182346
-0.395831
-0.0307749
0.0216212
-0.537156
0.0117864
0.0243238
-0.000988103
-0.140438
-0.148431
-0.455809
0.147735
-0.0537181
-0.0473533
-0.0146011
-0.526199
0.0147494
-0.0163036
0.0266934
-0.0081613
-0.0143828
-0.887519
0.0084739
-0.854326
0.0676655
0.0015966
-0.631307
0.0173144
-0.901885
-0.791773
0.000875238
-0.0603955
0.0574701
0.0107426
0.0261992
0.00502394
-0.728278
-0.0501625
-0.0586955
-0.554898
-0.708505
-0.0509447
-0.0246717
0.0195685
-0.303234
-0.512545
-0.0233482
-0.0418671
-0.635545
0.0617661
0.010741
0.0135251
0.000584407
-0.553144
0.176405
0.0338572
-0.0527845
0.0127252
-0.524939
-0.164113
-0.096392
-0.637213
-0.859621
-0.00538816
-0.303034
0.019479
-0.650987
0.0616639
-0.0286342
-0.033851
-0.497446
-0.00186753
-0.023767
-0.544654
-0.774641
-0.0123935
0.0138561
0.0065337
-0.0812596
-0.587005
-0.351691
-0.898685
-0.00348505
-0.121356
0.00111935
-0.878645
-0.148701
-0.00654859
-0.0834474
-0.585603
-0.532257
-0.537438
-0.534475
-0.827116
-0.543512
0.0118846
0.0690435
-0.0918518
-0.0107095
-0.53994
-0.529093
0.0136373
-0.427292
0.0198397
0.0288687
0.00575991
-0.0821469
0.0139727
-0.855928
0.194484
0.0167508
-0.00858809
-0.453907
0.0540951
-0.397952
-0.542339
-0.021685
-0.0574972
-0.0454789
0.160521
-0.00780044
-0.00800976
0.0127691
-0.84661
0.00622352
-0.00620577
0.0438559
-0.0311921
-0.546055
0.0123347
-0.63975
0.0301067
0.0131057
0.0130428
0.0183835
-0.0319537
-0.0339237
-0.556517
0.043328
-0.0365421
-0.581971
0.00436095
-0.885241
0.00731345
-0.910745
0.0971626
-0.741569
-0.152667
0.0121331
0.0250455
-0.480626
-0.015422
-0.0388893
0.0195117
-0.0497347
-0.820207
0.0087314
0.0123235
0.0212701
0.0252346
-0.740128
-0.815567
0.000506284
-0.00178041
-0.857394
-0.867391
0.0143188
0.0923397
0.0240414
-0.892133
-0.894821
-0.0455
-0.26865
0.0990683
0.102875
-0.651881
-0.0194711
0.0353449
-0.00353975
0.00635095
-0.910439
-0.837041
-0.0138679
0.0795154
-0.622955
0.0126264
-0.607779
-0.0142151
-0.0142043
-0.00539028
-0.652574
-0.0354102
-0.00428373
-0.751997
0.0135224
-0.354957
-0.299157
-0.00370965
0.0265365
-0.218219
0.0295769
-0.00120832
0.00818635
-0.243964
0.0322278
0.0135178
0.0169091
0.127053
0.0335943
-0.0582832
0.0220773
-0.628812
0.0148902
-0.145465
-0.00121163
-0.625543
-0.393481
-0.0699034
-0.0329609
-0.135663
0.0244265
-0.153663
-0.726168
-0.00700607
-0.171116
0.00516076
-0.468708
0.0199007
-0.804263
0.129444
0.0261852
-0.75333
-0.712197
0.154171
-0.0217515
-0.599731
0.010716
-0.513926
0.0515091
-0.497854
0.0126772
0.0201915
-0.145115
0.0532965
0.0322707
0.0409447
0.0147701
-0.566361
-0.202813
-0.767988
-0.582019
0.0788448
-0.0028284
-0.0317844
-0.73583
0.0294878
-0.00704965
0.0164335
-0.653504
-0.616472
-0.73252
-0.771578
-0.107686
0.0312188
0.00603142
-0.136735
-0.165671
-0.538352
0.0225
0.0247815
-0.596636
-0.194467
0.0165352
-0.0673019
-0.550747
-0.21862
-0.00801706
0.0146921
-0.472742
-0.4842
-0.310395
-0.207542
0.0204359
0.0210446
-0.00143756
0.0161177
0.0350162
0.0245396
0.00752167
0.0180714
-0.0973987
-0.0385804
-0.02259
0.0255911
0.0441458
-0.021176
-0.0203339
0.0274786
0.00343453
-0.0366077
0.0256775
0.00814948
0.0069756
0.0267114
-0.334243
-0.00534166
0.0165791
-0.552021
-0.57327
-0.582005
-0.830183
0.00321443
0.0134355
0.0159337
-0.570373
-0.010091
-0.0027877
0.0212556
-0.379881
0.050624
-0.099797
-0.399512
0.0300478
0.0265596
-0.0526548
0.0142038
0.00139768
0.0242032
0.0013783
0.0024861
0.0216341
-0.00591192
0.0251641
-0.0351467
-0.538235
-0.0831664
-0.172731
-0.185836
-0.0907258
-0.133762
-0.205496
-0.0109733
-0.783941
0.0878265
0.0463922
0.0222989
-0.0251185
-0.191423
0.0302247
-0.115602
-0.55869
0.109527
0.225474
-0.272817
-0.0435159
-0.158172
-0.0911247
0.0293863
-0.0615513
0.0239952
-0.207729
-0.149682
-0.551297
0.00432708
-0.147069
0.0866046
-0.703279
-0.123351
-0.140372
0.0221993
-0.171143
-0.00100134
-0.160888
-0.00508677
-0.541022
-0.00212821
0.0869254
0.0199693
-0.0476669
-0.0561182
-0.0563766
-0.6164
0.0263767
-0.0227157
-0.0809251
0.0207042
-0.317391
-0.907416
-0.233466
-0.0209073
-0.156212
-0.0135702
-0.0101571
-0.597405
-0.259413
-0.00855701
-0.022702
0.0901108
0.028109
-0.383947
0.000390821
-0.907869
-0.325197
-0.209597
-0.072016
0.0341863
-0.000594261
-0.0123296
-0.279814
0.0908846
0.091342
-0.628342
0.0223807
0.0550272
0.0740324
-0.576469
-0.0050816
-0.108147
-0.00176985
-0.869536
0.0134987
0.0205796
0.138314
0.0120406
0.0279447
-0.288795
0.0310616
0.0223218
-0.00959142
-0.136178
-0.0253744
-0.638594
0.029383
0.0277483
0.00827047
-0.214381
0.00812409
0.0845707
-0.100246
-0.44175
-0.699684
-0.377986
0.0235881
-0.42668
-0.125563
0.0084021
0.0935126
0.0186449
0.026372
-0.855006
0.0322216
-0.00113437
0.0207148
0.0134318
-0.0582119
-0.221179
0.0252587
0.108798
-0.225578
-0.201573
-0.164736
0.0183881
0.0134657
-0.467296
-0.0360773
-0.0069875
-0.192416
-0.402842
-0.00200922
-0.00315285
0.024589
0.0253029
0.152714
0.0134042
0.0995045
0.0246529
-0.644471
-0.00786164
-0.563374
-0.0594627
0.0185469
-0.0276307
-0.00492143
-0.0153234
0.0244649
-0.0940693
-0.489859
0.0125637
-0.254578
0.016973
0.0141277
0.153439
-0.0104418
0.0155527
0.0145045
-0.00142167
0.0144059
-0.00475402
0.0204367
-0.353053
0.012234
-0.00975224
-0.0681154
-0.00388509
0.0246785
0.0221187
-0.0148054
-0.736597
0.163588
-0.010151
-0.024824
-0.0163894
0.0250297
-0.0520311
0.0130058
0.0128859
-0.58471
0.0194499
-0.134286
-0.0233318
-0.000876031
-0.014928
-0.232464
0.0191897
-0.226314
0.189111
-0.0156295
-0.469481
-0.603932
0.101291
-0.0142775
0.00476038
0.0200656
0.0220096
-0.192185
-0.00844178
0.00871378
-0.0171611
-0.123459
0.021278
-0.0423451
0.0189267
-0.15143
-0.351611
-0.0258979
-0.0453838
0.00822677
-0.0185142
0.000686163
-0.0014139
-3.76264e-05
0.0245885
-0.000131383
-0.00105938
-0.0175639
0.0232002
0.000977633
-0.0140914
-0.859754
-0.00119285
0.0058936
-0.218135
0.0189244
-0.275583
-0.0143836
-0.0687434
-0.0145549
-0.00192272
-0.0171776
-0.0820367
0.0338023
0.11952
-0.0485344
0.0232676
-0.00389972
0.0310865
-0.476026
-0.0551039
-0.0214286
-0.228788
0.0855964
-0.0545221
-0.000751835
-0.889564
0.00818048
-0.0394398
0.0468286
-0.118144
-0.0148058
-0.0342133
0.0699206
0.0170632
0.0140733
-0.024331
0.0139068
-0.135788
0.0199372
0.0212485
0.00566271
-0.0518793
-0.364429
0.00301207
-0.561261
0.230369
-0.00306755
-0.604093
-0.115821
-0.0133889
-0.0368553
-0.00874097
0.00591761
0.0282931
-0.494127
0.0118781
-0.764756
0.0905957
-0.02166
0.0600544
-0.0215691
0.0155855
-0.0142029
0.185077
0.0589824
0.013387
0.0174656
-0.0145998
-0.571427
-0.0603593
0.00733548
0.100025
-0.21884
0.146408
0.0154697
-0.0130305
0.0378085
-0.0360872
0.0605214
0.0577703
-0.0534769
-0.17422
-0.0135379
-0.0341794
0.127893
-0.0100103
0.0147814
-0.333172
0.0155576
0.0194379
0.0766381
-0.136632
0.0452569
-0.55517
-0.590186
-0.191098
-0.330524
-0.0128375
-0.0315899
0.00300216
0.0223375
-0.250225
0.0440732
-0.139207
-0.00562327
-0.0171174
0.0485631
-0.529961
0.020736
0.0186686
-0.0273083
0.0227128
0.0282055
-0.0109736
-0.013946
-0.131335
0.0293636
0.0365679
0.00167465
0.0765439
0.0136584
-0.593018
0.0291351
-0.022059
0.0072293
0.0249046
-0.00662526
0.000133173
-0.0901449
0.0607542
0.0247861
-0.0388067
-0.00989584
0.0186634
0.0148266
0.0999318
-0.0248819
0.0270988
0.0265428
0.0260189
-0.0550594
0.0276769
0.0283055
-0.0873465
0.0255212
0.0135659
-0.0343798
-0.140637
-0.134518
-0.0211626
-0.0349339
-0.814049
-0.0835751
-0.177487
0.0210821
-0.0138745
-0.0496451
0.0678447
-0.0140821
0.00424588
-0.0147898
0.00956959
-0.0456709
0.0196431
-0.192081
-0.197797
-0.185258
-0.00992019
0.00237034
-0.0571465
0.0213187
0.0673213
-0.0344381
-0.0204579
0.0583163
0.127938
-0.0293388
0.00923872
-0.0178387
-0.61208
0.0607919
0.0189373
-0.535144
-0.42026
0.00462359
-0.0262336
-0.021369
-0.213308
-0.515167
0.0262323
-0.344103
-0.368091
0.148886
-0.176879
-0.00871197
-0.0408356
-0.0293849
-0.12015
0.0247806
0.106347
-0.0317165
-0.140646
0.0249915
0.0269103
-0.432899
-0.0344095
0.0633216
-0.011534
0.0250705
-0.0918754
-0.870428
-0.0236503
0.0281557
-0.194228
0.00754854
-0.024132
0.0207432
0.0112088
-0.0166387
-0.0109054
-0.0658651
0.0175213
-0.0306622
0.0442463
-0.057239
0.0183371
-0.0016334
-0.00649099
-0.0218325
0.00307711
-0.0216819
-0.010796
-0.0373259
0.000337109
0.0169595
-0.531717
-0.0724611
-0.0240032
-0.647297
-0.0312942
0.0321906
-0.552395
-0.0393086
-0.80916
0.0168277
-0.0320679
0.0180828
-0.0286515
-0.0175553
-0.621604
-0.0268889
-0.111077
-0.0113954
-0.0142108
-0.0192689
-0.0108296
0.107001
-0.430017
-0.480551
0.0210081
0.00350333
-0.381845
0.0612369
-0.0151123
0.0229979
-0.0545301
-0.413205
-0.220386
-0.0223739
-0.263704
-0.000791934
0.022339
-0.010193
-0.0217494
0.0646859
-0.749221
0.0227046
-0.00225582
-0.0282106
0.0250672
-0.00662599
-0.0147278
-0.519328
0.0818592
-0.00717596
0.014685
0.026613
0.0865044
-0.00349306
-0.0222531
-0.00605964
-0.0290882
-0.402177
0.0142841
0.0232779
-0.100304
-0.0053932
-0.00626816
-0.409163
0.0156547
-0.601466
-0.581368
-0.517619
0.0104118
0.0304962
-0.0026926
0.0136005
-0.00293462
-0.00220957
-0.00871893
-0.0862436
-0.400446
-0.201946
-0.0113235
-0.00734153
-0.0306818
-0.0103958
0.0253866
0.0256324
-0.00593483
-0.0482728
-0.0246455
-0.518989
0.0117414
-0.00284435
0.0171821
-0.0164257
-0.551818
-0.0568177
0.106875
-0.00294466
-0.0958399
-0.0297015
0.0224172
-0.00973889
-0.00171023
-0.0301338
-0.574193
0.0257476
0.0265522
0.0265339
-0.392314
-0.536251
-0.00800045
-0.0135089
-0.0200385
0.0293248
-0.00821526
0.00338183
0.0129054
0.0206208
0.00907394
0.00938941
-0.0161584
-0.875829
0.132299
0.0256537
0.0296753
-0.0248104
-0.0194451
0.025689
0.0257004
0.0987729
-0.510866
-0.0581269
0.0206367
-0.0147979