/*--------------------------------*- C++ -*----------------------------------*\
| =========                 |                                                 |
| \\      /  F ield         | OpenFOAM: The Open Source CFD Toolbox           |
|  \\    /   O peration     | Version:  v2012                                 |
|   \\  /    A nd           | Website:  www.openfoam.com                      |
|    \\/     M anipulation  |                                                 |
\*---------------------------------------------------------------------------*/
FoamFile
{
    version     2.0;
    format      ascii;
    class       volVectorField;
    location    "300";
    object      U_0;
}
// * * * * * * * * * * * * * * * * * * * * * * * * * * * * * * * * * * * * * //

dimensions      [0 1 -1 0 0 0 0];


internalField   nonuniform List<vector> 
10042
(
(0.996506 0.00726822 -5.46081e-21)
(0.998622 0.00207903 0)
(1.02402 0.0126746 1.72142e-23)
(1.00669 8.23608e-05 0)
(1.04963 0.137186 2.08853e-19)
(0.99918 0.00197437 -9.84962e-21)
(0.912417 -0.37511 0)
(1.06905 -0.269538 -3.89852e-21)
(1.0203 0.0122789 -4.83589e-21)
(1.00099 0.00311757 4.91498e-21)
(-0.35342 0.0782524 1.11878e-19)
(1.01049 0.000133468 -5.51027e-23)
(1.01233 0.00241558 3.75242e-22)
(1.01291 0.00111661 2.59822e-23)
(0.967318 0.0458414 1.44415e-20)
(0.999441 0.00317393 -2.72192e-21)
(0.999367 0.00349665 7.60673e-21)
(1.00004 0.000330488 4.73535e-21)
(0.996627 0.0069727 -4.50978e-21)
(0.714426 0.29257 -1.50968e-21)
(1.00266 0.00371676 -3.9618e-21)
(0.977289 -0.157759 2.89036e-20)
(1.0118 0.000534545 3.08467e-23)
(1.01067 0.00406882 1.97421e-22)
(0.998708 0.00183198 -1.27759e-20)
(1.05216 0.00149244 2.11851e-20)
(0.999078 0.000477188 1.25877e-21)
(0.996992 0.0442835 0)
(1.01475 0.0172424 7.37842e-22)
(1.00261 0.038658 -1.42509e-21)
(0.997125 0.00100487 -4.31993e-21)
(-0.145406 0.0471394 1.90602e-19)
(1.00098 0.00287005 -5.6688e-21)
(1.01542 0.0330114 0)
(1.05187 0.0318071 1.92271e-20)
(1.01033 0.00415557 -6.95526e-22)
(1.05182 0.0052464 0)
(1.04342 -0.0122319 0)
(1.01012 0.00388935 -6.47684e-23)
(1.01493 0.0979236 0)
(0.684701 0.286532 3.31278e-20)
(0.974647 0.0448723 8.96092e-21)
(0.879902 -0.372062 1.30391e-20)
(0.99378 0.025266 -6.59161e-21)
(1.02894 0.150479 1.01053e-19)
(1.04533 -0.0480604 -1.03443e-21)
(0.980779 0.0295948 -1.97838e-20)
(0.992324 -0.0522765 1.28586e-21)
(1.05346 0.0143524 0)
(1.01867 -0.0176702 0)
(1.00033 0.00036196 2.16461e-21)
(1.02612 0.00451215 -4.12842e-21)
(0.965892 0.0357593 0)
(1.02757 0.0041221 -2.60238e-21)
(1.05283 0.00672193 0)
(0.999217 0.00211468 1.17704e-20)
(1.01534 0.0171885 -7.74549e-22)
(0.981198 0.0285 2.3654e-22)
(1.01575 0.0318492 -1.73384e-21)
(0.968098 0.0358295 7.30033e-21)
(0.997924 0.00123493 6.14628e-21)
(0.997401 0.00310947 7.77325e-21)
(1.05345 0.0337635 -9.99374e-21)
(1.02346 0.0128379 0)
(0.97127 0.0124152 1.25372e-20)
(1.01771 0.0308923 -4.01396e-21)
(0.978062 0.00840474 -1.84899e-20)
(0.759915 0.199987 1.44564e-20)
(0.0165795 -0.111848 7.51964e-20)
(0.999766 0.0207203 -4.15532e-21)
(1.02722 0.00405971 5.28492e-21)
(0.668642 0.299293 1.37341e-19)
(0.992787 0.025111 0)
(0.879769 0.0637842 0)
(0.97899 0.00541426 0)
(1.0109 0.00429546 0)
(0.949996 0.126508 -2.41209e-19)
(0.996566 0.00627845 -3.00913e-22)
(0.917373 0.0817802 0)
(0.977609 -0.406538 0)
(1.05148 0.0145972 3.26111e-20)
(1.20009 0.158582 1.17442e-19)
(1.00534 0.0281996 -2.0379e-21)
(0.976629 0.0389145 0)
(0.9779 0.00748709 -2.44215e-20)
(1.00008 0.00105763 0)
(0.996859 0.00895168 -5.71993e-21)
(1.2065 0.226556 4.15168e-20)
(0.988237 0.0155897 -1.19413e-20)
(0.997193 0.00901295 -4.13617e-21)
(1.0234 0.0232055 -1.12466e-20)
(1.19519 0.173937 2.30062e-19)
(0.998013 0.045806 2.85157e-21)
(1.02599 0.00460474 0)
(1.00154 0.0375664 -3.41334e-21)
(1.01108 0.0226828 0)
(0.999007 0.00627436 6.13395e-21)
(1.00684 0.0220209 0)
(1.01431 0.0946419 0)
(1.01818 0.0156113 0)
(0.999993 8.01496e-05 8.6127e-21)
(1.21471 0.143246 1.8261e-20)
(1.02875 -0.280686 0)
(1.0001 0.00115557 3.91798e-22)
(0.991495 0.0412501 4.83715e-21)
(1.06998 0.174357 -1.74511e-20)
(0.994623 0.00646682 6.92179e-21)
(0.99905 0.00653353 -6.34907e-21)
(1.00258 0.00349887 5.75275e-21)
(1.01776 0.00278896 0)
(1.00723 0.00102743 1.35433e-21)
(1.00256 0.0161998 0)
(1.03592 0.0579608 -1.2775e-20)
(-0.120019 -0.090046 2.46601e-19)
(0.972118 0.0115983 1.13415e-20)
(1.0005 0.0147332 -3.10565e-21)
(0.992876 0.00117412 -3.6507e-21)
(0.996421 0.00658085 5.82539e-21)
(1.01148 0.0220483 0)
(0.128375 0.0831537 -2.20287e-19)
(0.988357 0.0148198 0)
(1.05606 -0.266302 -3.40661e-21)
(0.99662 0.0280151 -8.27285e-21)
(0.995116 0.000149558 0)
(1.2121 0.131666 5.66236e-20)
(1.00476 0.0288318 2.34628e-21)
(1.08167 -0.264081 3.16577e-20)
(1.06043 0.0247783 -2.36572e-20)
(1.06136 0.171276 1.60043e-20)
(0.997605 0.00987564 -8.56094e-21)
(0.915257 0.0874208 5.38173e-20)
(0.982948 0.0149131 1.16343e-20)
(-0.12262 0.128594 1.49009e-19)
(1.13929 -0.17085 0)
(1.01762 0.0157475 4.26623e-21)
(1.12983 0.130431 -1.31153e-20)
(-0.0287066 0.0601366 2.49264e-19)
(1.02365 0.0241983 3.5615e-21)
(0.990174 -0.0581197 -8.58334e-21)
(1.21516 0.236091 0)
(0.986467 0.0423872 0)
(0.992459 0.00106552 0)
(0.986945 0.037158 -6.12052e-21)
(1.27128 0.0731207 0)
(1.02477 0.00523678 -3.03969e-21)
(1.00231 0.0157445 2.57956e-21)
(1.14452 0.0864326 7.15366e-20)
(1.0201 0.00434175 -1.05803e-21)
(1.00687 0.022848 0)
(1.01532 0.0678438 0)
(1.02162 0.0116821 -3.26969e-21)
(1.00003 0.000132857 0)
(0.949805 -0.43694 4.70505e-20)
(0.103711 0.129963 2.35623e-19)
(0.99964 0.000720666 0)
(1.01234 0.00215309 -4.45205e-22)
(0.960364 0.00768688 -1.01195e-21)
(0.997151 0.00319582 -9.9485e-21)
(1.12978 0.13858 -6.80836e-20)
(-0.0674771 0.0804726 -8.63303e-20)
(-0.430357 0.046443 -2.15165e-19)
(1.15623 -0.109598 2.32997e-20)
(0.996287 0.00202029 1.71192e-20)
(1.02135 0.0120844 -3.36597e-21)
(1.00839 0.0301141 -3.89708e-22)
(0.983566 0.0140268 1.10886e-20)
(0.98135 0.234738 0)
(0.485948 0.288765 1.17584e-19)
(-0.115619 0.0290518 -1.7173e-19)
(0.160813 0.134757 -4.22849e-19)
(1.02768 0.00525462 0)
(1.00313 0.00873211 0)
(1.34608 0.197186 1.82263e-19)
(0.721315 0.346774 1.74271e-20)
(0.929786 0.146321 0)
(0.658854 -0.191174 -3.93824e-20)
(-0.243667 0.105795 -9.95522e-20)
(0.995105 0.0267534 0)
(0.746367 0.220223 -1.60695e-20)
(1.06331 0.0727681 0)
(0.958197 0.00834891 -1.57728e-20)
(-0.14266 0.0285839 -2.19446e-19)
(0.977073 0.0107035 -7.84115e-21)
(1.05937 0.0264226 5.26455e-20)
(0.974481 0.0424504 1.44551e-20)
(0.154591 0.0704765 2.90648e-19)
(1.22045 -0.15696 0)
(1.01547 0.0278019 1.28269e-21)
(-0.391931 0.000212876 -2.20752e-19)
(1.03961 0.0254907 2.83456e-21)
(0.823947 0.782041 -4.08898e-20)
(0.985301 0.0368518 7.26081e-21)
(0.917986 -0.459301 1.21666e-19)
(1.47949 0.211985 9.75805e-21)
(1.08996 -0.0996926 6.21897e-20)
(1.59468 -0.00151324 1.7138e-19)
(1.04525 0.0122203 -1.43363e-20)
(0.995385 0.00566401 -5.50434e-21)
(1.01208 0.00196118 -3.5982e-23)
(1.0253 0.0443032 6.57571e-21)
(0.907089 0.131394 3.00386e-20)
(1.01634 0.0280214 4.59791e-21)
(1.0036 0.0163903 1.96244e-21)
(0.747324 0.368707 0)
(0.976818 0.00958102 8.42184e-21)
(1.01278 0.0103891 1.58186e-22)
(0.917247 0.813016 4.98016e-21)
(0.999429 0.00100733 -5.3264e-21)
(1.00003 0.000388634 5.10389e-21)
(0.999909 0.00060314 -1.50226e-20)
(1.52532 -0.00416196 0)
(1.01254 0.000402102 0)
(0.975082 0.224382 -1.82393e-21)
(1.0894 0.408707 1.40614e-19)
(0.962 0.00924645 0)
(1.23404 -0.160974 7.34125e-21)
(0.981852 0.00444417 1.38593e-20)
(0.999867 0.00450849 -4.87731e-21)
(1.16554 0.0542186 -3.45815e-20)
(1.00659 0.0109866 -1.75502e-21)
(1.03866 0.0573122 0)
(0.95968 0.0151276 1.55986e-20)
(1.17657 0.35876 -5.83351e-20)
(1.04315 -0.0143201 -1.29313e-20)
(0.954338 0.0599163 -2.12177e-20)
(1.05154 -0.00212449 -2.42606e-20)
(1.11645 -0.227139 0)
(1.0014 0.0152655 0)
(1.21633 -0.107752 -9.76876e-21)
(1.02721 0.00367801 0)
(1.02073 0.0119564 2.90305e-21)
(0.862231 0.369032 1.79515e-20)
(1.00284 0.00835322 -3.50962e-21)
(1.02702 0.0036779 1.02832e-20)
(1.02436 0.0130782 6.58612e-21)
(1.01801 0.0690013 0)
(1.01156 0.0117564 -8.80493e-23)
(1.01345 0.000799309 1.08542e-24)
(1.03538 0.0137376 0)
(1.02683 -0.000460668 5.06019e-21)
(0.996236 0.00175403 0)
(0.995543 0.0279787 7.03465e-21)
(1.00814 0.0290161 -7.41115e-22)
(1.03572 0.0609095 2.13681e-20)
(1.00075 0.0142547 2.00087e-22)
(0.997313 0.00111224 0)
(1.01004 0.000933123 0)
(0.992187 0.0430289 -4.57521e-21)
(1.02762 0.00466268 0)
(1.00002 0.000257848 -5.01504e-22)
(1.0121 0.00127647 0)
(1.00016 0.0200162 0)
(0.997278 0.0631076 7.0546e-22)
(1.18932 0.36796 0)
(1.16524 -0.104099 -2.76137e-20)
(-0.419379 0.00441464 0)
(0.922865 0.150955 0)
(0.945017 0.145762 -2.62803e-20)
(0.967023 0.0483659 1.56664e-20)
(1.04649 -0.0578668 0)
(0.781098 -0.265311 0)
(1.03432 0.0140383 -9.52639e-21)
(0.994745 0.00611039 -5.81516e-21)
(1.01324 0.000799368 5.79438e-22)
(1.02347 0.0440975 1.47855e-20)
(1.0113 0.0113505 -7.61741e-23)
(0.96331 -0.166426 -4.932e-20)
(1.03105 0.0054273 -7.16897e-21)
(0.997222 0.00971524 4.81078e-21)
(0.999962 0.000597064 1.77125e-20)
(0.897526 0.132944 -1.95243e-20)
(1.02786 0.00443633 0)
(1.09933 0.39237 -9.65502e-20)
(0.938664 0.150831 1.76158e-20)
(1.2511 0.191302 1.00534e-19)
(1.04056 0.0265913 -7.96968e-21)
(1.02626 -0.000241303 8.01291e-21)
(1.01057 0.0110261 9.13354e-23)
(1.03757 0.00324868 -9.25973e-21)
(1.02504 0.00538503 2.81527e-21)
(1.06719 0.0744194 0)
(0.99171 0.0160671 -4.61478e-21)
(1.05335 0.00300035 0)
(-0.047046 0.144376 3.92731e-19)
(1.01242 0.0101887 0)
(1.02214 0.0141583 -1.78729e-20)
(0.811326 -0.278372 0)
(1.04859 -0.0516321 0)
(1.01523 0.0270231 -2.57559e-21)
(0.997735 0.000930954 -1.39397e-20)
(0.997669 0.060515 -3.47081e-21)
(0.641685 -0.145426 -2.61358e-21)
(1.11677 -0.0141257 4.11198e-20)
(1.28038 0.0653601 0)
(1.00028 0.000297262 -6.56011e-21)
(1.01216 0.00171078 1.40395e-22)
(1.00168 0.0157627 -3.08808e-21)
(1.02045 0.0127103 3.07402e-21)
(1.10249 -0.228609 -1.12608e-19)
(0.995012 0.0129646 -1.1786e-20)
(0.997921 0.00152826 3.96756e-21)
(1.0029 0.00969844 -2.84799e-21)
(0.981857 0.00341286 0)
(1.03619 -0.0144432 0)
(0.974631 0.0538341 0)
(1.12735 0.200298 0)
(1.21962 -0.295925 -4.0646e-19)
(0.969227 0.0333827 -8.26158e-21)
(1.23174 -0.333836 0)
(1.00066 0.0131664 6.6896e-21)
(1.03691 0.00375039 -4.37939e-21)
(0.998926 0.000355844 -1.34652e-21)
(-0.146186 0.0888566 2.01932e-19)
(1.21883 0.110693 3.36868e-20)
(1.47126 0.218359 1.90259e-19)
(-0.199657 0.180037 0)
(1.01151 0.00449229 4.00832e-23)
(1.03096 0.0051614 0)
(1.00014 0.0215007 8.67415e-21)
(0.984146 0.0590217 -8.85489e-22)
(1.0531 -0.00066591 -2.54702e-20)
(1.00003 0.000695556 1.25242e-20)
(1.05907 0.0887813 1.949e-20)
(1.00753 0.00108884 -1.31251e-21)
(1.01382 0.000587475 3.90393e-22)
(0.994059 0.0266437 0)
(1.13368 0.208364 0)
(0.999993 0.000282108 2.21613e-22)
(1.03783 0.025658 -2.20721e-21)
(0.98385 0.0121467 -1.32025e-20)
(0.976502 0.0522496 0)
(-0.238711 -0.0445479 -3.39525e-19)
(1.00044 0.0136819 -6.83196e-21)
(0.999557 0.000805641 5.54904e-21)
(1.00165 0.00110983 0)
(1.02313 0.012272 0)
(1.08781 0.113974 7.05e-20)
(1.08457 -0.102567 -1.01579e-19)
(0.953881 0.149007 0)
(1.24533 -0.28083 -1.50798e-19)
(1.03807 -0.0147127 0)
(1.05649 0.026698 0)
(0.983154 0.0128581 -6.8963e-21)
(1.01314 0.0010946 -3.46884e-22)
(1.02605 0.0218835 0)
(1.00002 0.000287743 -4.9252e-21)
(1.22352 -0.243005 0)
(0.992037 0.0166148 0)
(1.01721 0.0319082 2.00985e-21)
(0.980076 -0.0188991 1.68673e-22)
(1.00313 0.0166558 0)
(0.988247 0.0649248 1.393e-21)
(0.976548 0.0412094 -1.08578e-20)
(0.972999 -0.0216032 8.27197e-22)
(1.02484 0.00871527 0)
(0.955543 0.0575297 4.6887e-22)
(1.05966 0.163275 -7.91079e-21)
(1.05454 0.0891649 -1.47652e-20)
(1.02679 0.0413001 -3.03559e-21)
(0.994667 0.00488643 0)
(1.24839 -0.300132 -1.01962e-19)
(1.15042 0.083238 -1.29656e-19)
(1.02871 0.0102316 5.2746e-21)
(1.08718 0.107274 -1.66857e-20)
(1.00045 0.00555405 -1.11943e-20)
(1.00283 0.00797529 3.01375e-21)
(1.00061 0.00551557 0)
(0.98566 0.0653136 1.9582e-20)
(1.41322 0.212655 5.14226e-20)
(1.02917 0.00178093 5.7805e-21)
(1.00003 0.000611427 -3.65264e-22)
(0.971165 0.0335739 -1.45789e-20)
(1 8.65272e-05 0)
(0.999997 0.000465806 1.51833e-20)
(0.734244 0.310214 -1.89323e-20)
(0.99523 0.00534142 0)
(1.01669 0.00832849 2.22647e-21)
(0.0106857 0.0693724 -2.54646e-19)
(1.00399 0.00567961 4.18077e-21)
(0.99396 -0.300305 0)
(1.20892 -0.251977 1.21689e-19)
(0.88031 0.0709889 5.22789e-21)
(0.535914 -0.0791715 0)
(-0.412383 -0.00382848 -1.57708e-19)
(1.01345 0.0856748 2.60578e-21)
(0.839167 0.367363 -1.94846e-20)
(0.999393 0.000806183 5.41869e-21)
(1.01831 -0.0192855 0)
(0.999997 0.000172273 -6.43765e-21)
(0.980591 0.0256476 2.10268e-21)
(0.897559 0.0146486 0)
(1.0001 0.00244294 7.38137e-21)
(0.982265 0.060835 9.19698e-21)
(0.677375 1.00795 2.12622e-20)
(1.0113 0.000475789 -3.45128e-23)
(1.00258 0.00387362 0)
(0.799121 0.119295 5.13877e-20)
(0.858682 0.701746 0)
(1.01718 0.0297826 2.22359e-21)
(1.0196 0.00463719 -1.00249e-21)
(-0.119839 0.0181516 0)
(1.22288 0.122449 0)
(1.00315 0.00914287 4.19382e-22)
(0.753417 0.184971 -1.70016e-20)
(-0.237816 0.0151322 -2.34963e-19)
(1.00697 0.011223 2.1847e-21)
(1.00002 0.000473357 3.62886e-22)
(1.01409 0.00853072 2.47051e-21)
(0.998521 0.0115567 0)
(1.01375 0.000694506 -4.0931e-22)
(1.0124 0.00964168 0)
(1.22118 -0.315074 -8.15391e-20)
(1.04445 -0.280877 -7.98771e-20)
(0.98009 0.0269027 -2.18709e-21)
(1.33305 -0.242428 8.24761e-20)
(1.01276 0.000948738 2.45817e-22)
(0.9951 0.0122317 0)
(1.33494 0.24565 1.35026e-19)
(1.02634 0.0106796 0)
(1.01491 -0.299878 5.71154e-20)
(1.1214 -0.0182529 -5.2189e-20)
(0.974853 0.0379343 0)
(1.01753 0.00713951 2.21212e-21)
(1.01925 0.00459713 0)
(1.09761 0.313475 0)
(1.02786 0.00500019 3.54153e-21)
(1.0098 0.0876551 -2.52603e-21)
(0.996672 0.0382602 -4.23852e-22)
(-0.329108 0.0813534 -1.06665e-19)
(0.963874 0.0084071 -1.39931e-20)
(1.5063 0.23672 -7.79915e-20)
(0.969959 0.0451195 1.21812e-20)
(1.00162 0.00476592 -3.51099e-21)
(1.0008 0.0152632 0)
(1.24371 0.330653 5.66866e-20)
(1.00132 0.00462505 -3.95464e-21)
(0.923279 0.0227969 -3.69431e-20)
(0.997222 0.0159599 1.15056e-20)
(1.02444 0.00879981 1.165e-21)
(-0.0814418 0.0878036 1.41056e-19)
(1.04693 0.0146444 1.57214e-20)
(0.992524 0.0022775 9.31726e-21)
(1.00769 0.000654671 0)
(-0.0821189 0.0137 -7.85356e-20)
(0.998031 0.0107307 -8.29695e-21)
(1.04852 0.0150265 0)
(1.02035 0.045934 4.73052e-21)
(1.01084 0.0113956 0)
(1.4644 -0.238822 -2.47481e-19)
(0.547356 -0.136526 0)
(1.00301 0.00463846 4.9547e-21)
(0.973678 0.0117094 -2.08788e-20)
(1.0296 0.00146715 -7.98299e-21)
(1.01197 0.00147593 -4.38099e-23)
(0.999444 0.00404888 1.44204e-21)
(0.994368 -0.000795119 1.93846e-22)
(-0.0781338 0.0165058 0)
(0.995531 -0.000817062 -1.07248e-20)
(1.01284 0.00050862 1.38275e-22)
(0.983094 0.0952018 0)
(1.02078 -0.264287 4.51093e-20)
(1.1517 0.0455894 1.12964e-21)
(1.00002 0.000314579 -1.01516e-20)
(1.06331 0.0677987 0)
(-0.17355 0.00183736 0)
(1.03508 -0.0162921 0)
(0.991582 -0.000956745 9.98609e-22)
(0.994954 0.00457318 1.17282e-20)
(1.15172 -0.16735 0)
(1.02808 0.0102382 9.3531e-21)
(1.0016 0.00454952 3.47478e-21)
(0.915208 0.0709676 -2.16356e-20)
(1.02112 0.0129826 3.13521e-21)
(1.0121 0.00949364 5.04208e-24)
(0.957928 0.0165842 0)
(1.01331 0.00477973 -4.85875e-22)
(0.97727 0.154493 -7.48459e-21)
(0.994232 0.00676044 -3.72359e-21)
(1.00119 0.00466569 0)
(-0.405304 0.0674858 0)
(1.00608 0.00437482 -3.42954e-22)
(1.02724 0.00518731 0)
(1.00025 0.0024243 0)
(0.997441 0.0368247 0)
(1.06059 0.0828703 -1.60002e-20)
(1.00286 0.00448946 -6.27356e-21)
(1.02255 0.012318 0)
(1.43949 0.230379 -1.22703e-19)
(1.00028 0.0411665 2.72968e-22)
(1.12633 -0.369354 0)
(1.03407 0.0152089 -1.9342e-20)
(1 0.000149379 -3.3405e-21)
(1.00001 0.000129798 -4.66192e-21)
(1.22923 0.161846 3.89871e-20)
(0.991017 0.0131273 6.29406e-21)
(0.992482 0.00198363 -7.7476e-21)
(1.00138 0.00122038 0)
(1.02892 0.00937045 4.21838e-21)
(0.960869 0.0843195 -3.10062e-21)
(0.976753 -0.372208 0)
(0.997636 0.0105513 4.23206e-21)
(0.970036 0.151819 6.00362e-21)
(0.722417 0.808439 -5.49724e-21)
(1.0335 -0.0158928 1.57179e-20)
(1.00002 0.000447175 -6.6134e-22)
(0.994079 0.00122203 -6.47218e-21)
(1.02598 0.00723859 5.58479e-21)
(1.00008 0.00116798 -6.50581e-21)
(0.999782 0.0119822 0)
(0.131167 0.101902 -3.65237e-19)
(-0.0674594 0.0638769 2.24892e-20)
(1.00011 0.00229578 0)
(1.05934 0.0226377 1.72094e-20)
(1.03471 -0.00533228 0)
(1.03449 -0.00482278 -1.19449e-20)
(0.977984 0.00489815 0)
(1.00899 0.00105981 -1.92565e-21)
(1.02574 -0.234049 -1.06788e-21)
(1.10605 0.303454 -4.69797e-22)
(0.756222 0.781092 1.68496e-20)
(1.01708 0.00709424 -1.61463e-21)
(1.02641 0.00740375 5.6266e-21)
(1.02584 0.0109246 2.54043e-21)
(1.00386 0.00581947 -2.83399e-21)
(0.099128 0.0244414 0)
(1.07564 0.0729636 0)
(1.02901 0.00989569 -1.15835e-20)
(1.01503 0.0199341 4.62306e-22)
(1.00614 0.000444918 -1.60828e-21)
(0.979874 0.00330315 0)
(1.03295 -0.249289 -1.87987e-20)
(1.04673 0.0128835 3.4003e-20)
(0.999129 0.000416157 0)
(-0.0591354 0.0216625 -2.03537e-19)
(0.835961 0.661035 -3.6253e-21)
(1.06502 0.449831 0)
(1.07859 0.171036 -1.20584e-21)
(0.999474 0.00372286 -1.43544e-21)
(1.01759 0.0164871 -3.10762e-21)
(1.01355 -0.013741 3.74686e-21)
(1.13457 0.0758811 0)
(0.235443 -0.162745 0)
(0.680324 0.327216 -1.14234e-19)
(0.954213 0.0513083 -2.18549e-20)
(0.919477 0.0208792 4.05524e-20)
(1.0001 0.00101224 -6.20191e-21)
(1.03704 0.0243176 1.22451e-21)
(0.974647 0.0121807 0)
(1.0001 0.00113106 6.42775e-21)
(-0.419228 0.0534793 -2.07534e-19)
(1.01032 0.00101684 -1.39731e-22)
(1.00042 0.0126295 2.68185e-21)
(1.036 -0.041447 1.39863e-20)
(1.00006 0.00107243 1.00671e-20)
(0.902157 -0.123752 3.00268e-21)
(1.03304 0.0152529 1.45136e-20)
(1.04377 -0.132941 3.35202e-21)
(1.02648 0.0895707 0)
(0.999976 0.000546583 9.27237e-21)
(1.03218 0.00713528 -7.18766e-21)
(1.05281 0.0295523 -2.04785e-20)
(1.01989 -0.00917526 3.01947e-21)
(1.08156 0.165331 5.61657e-20)
(0.985293 0.285159 1.94065e-20)
(0.999982 0.000296666 6.86804e-21)
(1.01738 -0.0161364 3.59033e-22)
(1.0248 0.037166 -3.09048e-22)
(1.01017 0.0225356 0)
(1.00047 0.00163391 -1.10313e-20)
(1.02631 0.0226853 0)
(0.996923 -0.00114626 -4.58869e-21)
(0.953035 0.0541725 1.24711e-20)
(1.14969 0.0405057 -1.79445e-20)
(0.862519 0.126455 -5.87418e-20)
(0.999103 0.000187684 1.22447e-20)
(0.999541 0.0425764 1.82345e-21)
(1.00142 0.00114501 0)
(0.992122 0.00476091 -8.31882e-21)
(0.823136 0.349031 -7.11578e-21)
(1.00228 0.0031463 1.46743e-22)
(1.01718 0.0473601 5.04309e-22)
(0.979172 -0.150277 2.06822e-20)
(1.01304 0.00459674 9.57539e-22)
(1.13641 0.0831805 0)
(1.00713 -0.00958166 -7.06577e-22)
(0.997546 0.000824994 -8.50128e-23)
(0.121957 0.0471458 -1.22015e-19)
(1.06507 -0.0199799 -1.81098e-20)
(1 0.00108924 -7.68472e-21)
(1.27081 -0.137056 1.71122e-20)
(1.02543 0.0125636 3.90398e-21)
(1.00002 0.000338406 0)
(0.983019 0.0080538 0)
(0.995194 0.00102197 -1.54286e-21)
(0.999994 0.00014741 -6.62635e-21)
(1.03988 0.0305003 -7.44614e-21)
(0.978899 0.00303486 4.7778e-21)
(0.882744 0.605203 2.80029e-20)
(0.98837 0.0426961 -4.51801e-21)
(0.994418 0.00152143 1.26407e-20)
(1.01908 0.0284822 1.38737e-21)
(1.06491 0.0823869 -9.41895e-21)
(1.06436 0.000604321 0)
(0.994864 -0.000140392 1.21119e-20)
(1.03419 0.00403648 0)
(1.01713 0.0165863 3.74401e-22)
(1.04173 -0.011005 0)
(0.984472 0.00302297 -1.51673e-20)
(1.02367 0.0931286 0)
(1.01711 0.00853688 -2.65409e-21)
(0.953561 0.00990285 1.87199e-20)
(1.01866 0.00484122 0)
(1.00088 0.00575588 -7.09648e-23)
(1.33701 -0.420942 0)
(1.01375 0.00865242 -2.70261e-22)
(0.824993 0.330074 0)
(0.994203 -0.000469878 0)
(1.03041 0.00806864 -5.62207e-21)
(1.00653 0.00424574 0)
(1.05504 -0.00711968 -1.72804e-20)
(1.00023 0.00229286 0)
(1.06821 -0.0216335 2.38826e-20)
(1.01595 0.0262336 0)
(1.26466 -0.122262 0)
(0.999991 0.000542903 -8.03905e-21)
(0.858996 -0.332051 5.42326e-21)
(1.02024 0.0041546 1.36061e-21)
(0.975587 0.049821 6.81598e-21)
(0.99998 0.000347698 3.88457e-21)
(0.980939 0.00509595 0)
(1.00035 0.005286 -3.65495e-23)
(1.03902 0.0311933 0)
(0.99696 -0.000701181 2.09383e-20)
(0.676626 0.2516 -1.28689e-19)
(0.900212 0.579896 -2.73618e-20)
(0.896692 -0.107843 0)
(1.03819 0.0112488 0)
(0.958502 0.14294 0)
(1.00463 0.0167173 -8.31843e-22)
(0.996407 0.153348 9.82491e-22)
(1.04112 -0.0474524 -1.52072e-20)
(1.00107 0.0028765 6.27025e-21)
(0.92131 0.071287 7.45814e-22)
(0.980725 0.300547 -1.97907e-21)
(0.36811 -0.2179 9.3281e-20)
(1.00853 -0.00946005 -5.43748e-22)
(1.40728 0.329451 -2.19276e-19)
(1.05547 0.0294028 -4.63113e-20)
(0.998432 0.031572 0)
(1.00005 0.000817269 -8.12241e-22)
(1.03589 0.003714 4.8617e-21)
(1.04026 0.0279964 0)
(1.0212 -0.00789671 4.43584e-21)
(1.01128 0.00424346 8.88093e-23)
(1.0291 0.0388396 0)
(1.1674 -0.0914762 0)
(1.00003 0.000116853 -4.63135e-21)
(0.992045 0.00427495 9.34377e-21)
(1.03441 0.00321578 0)
(0.92706 -0.403826 -1.72445e-19)
(0.977458 0.0483571 1.43728e-21)
(1.05977 0.0656825 0)
(1.01333 -0.0124217 -2.99855e-22)
(0.99997 0.00052741 -6.32418e-21)
(0.94782 -0.411438 0)
(1.01108 0.00488969 0)
(1.00352 0.00993436 0)
(1.00396 0.0386238 3.57784e-22)
(1.02125 0.0134107 -8.1013e-21)
(-0.134818 0.0927852 -3.43123e-19)
(1.02883 -0.0524504 0)
(0.778296 -0.362656 0)
(1.00104 0.000395626 4.42543e-21)
(1.29421 0.35175 -6.82478e-20)
(0.21146 0.0459002 0)
(1.19356 -0.241158 -1.10432e-19)
(1.02226 -0.00828316 -5.80035e-21)
(1.04193 -0.0586033 0)
(1.2023 -0.109721 -6.75426e-20)
(1.02546 0.153663 1.5295e-20)
(0.983552 0.0111239 -1.41469e-20)
(0.996859 0.0164688 -6.18022e-21)
(0.912653 0.0763132 -3.46218e-21)
(-0.229493 0.0812352 0)
(1.00569 0.0169514 3.92515e-22)
(0.981427 0.0995034 6.42857e-21)
(1.1669 -0.365673 0)
(0.994022 0.00769522 -1.23873e-20)
(1.00136 0.00630685 -4.56653e-21)
(1.00984 0.0231008 -2.37192e-23)
(0.991802 0.0466314 0)
(1.00022 0.00534637 -6.05074e-21)
(1.02542 0.00812366 0)
(1.21813 0.169109 -4.12755e-20)
(1.57634 -0.015661 0)
(1.02495 0.00818496 4.8859e-21)
(0.999973 0.00427192 -5.2552e-22)
(-0.161489 0.122311 1.70111e-19)
(0.717402 -0.517941 0)
(1.00417 0.0170025 -2.26951e-21)
(0.992113 -0.00098804 1.46117e-20)
(1.00034 0.000434545 4.55328e-24)
(0.998112 0.0113858 0)
(1.33474 0.262158 -5.84591e-20)
(1.02468 -0.0497557 0)
(1.06754 0.407504 0)
(0.989648 0.0410941 6.76573e-21)
(1.00132 0.00658496 4.70164e-21)
(1.02161 0.0108065 6.4338e-21)
(0.956563 0.00658574 0)
(0.998117 0.00101511 8.15885e-21)
(1.04915 -0.00905691 -3.22755e-21)
(0.972683 0.0311901 0)
(1.07456 -0.260255 4.03542e-19)
(0.999169 0.0039722 0)
(1.00069 0.00184764 3.17083e-21)
(1.0631 0.133789 0)
(1.00555 0.0162302 4.54314e-22)
(1.02773 -0.0101926 -3.28381e-22)
(0.910732 0.255065 -1.97979e-20)
(1.03162 0.00760364 -1.47732e-21)
(0.948891 0.703176 3.36324e-20)
(0.66251 -0.328949 -2.42986e-19)
(0.997217 0.0316363 3.35699e-21)
(0.99996 0.0125643 3.54035e-21)
(1.19668 -0.345116 1.96878e-20)
(-0.343917 0.08569 -1.88662e-19)
(1.00414 0.135426 4.35513e-21)
(1.02481 0.0125013 -7.56219e-21)
(1.09181 -0.275389 3.75086e-20)
(0.794636 0.399598 6.11962e-21)
(0.927235 0.0291291 4.24612e-20)
(0.984286 0.0103834 -1.30913e-20)
(1.00156 0.000949103 4.99433e-22)
(1.00237 0.00339161 -4.26466e-21)
(1.11888 0.393158 -9.60004e-20)
(1.03774 0.0117901 0)
(0.809305 0.290152 0)
(1.00002 0.000366578 0)
(-0.223455 -0.0594489 5.12766e-19)
(1.41377 0.189868 5.36535e-20)
(0.994157 0.000894721 6.74277e-21)
(0.997669 0.00396371 -6.20518e-21)
(0.689492 0.238267 5.94904e-20)
(0.999415 0.00106326 1.88188e-20)
(1.0068 0.00433476 -1.42911e-21)
(1.00453 0.0685952 -3.51847e-22)
(0.0375823 0.132355 -3.50741e-19)
(0.532853 -0.251533 0)
(1.3897 -0.405644 0)
(1.02706 0.00555097 0)
(1.0658 -0.049508 0)
(1.02441 0.145729 -1.33327e-20)
(1.00976 0.00393985 1.14296e-21)
(1.0057 0.000257332 2.27918e-21)
(0.999666 0.000583281 0)
(1.128 0.377638 7.55026e-20)
(1.00012 0.000923453 -2.02568e-21)
(0.99438 0.00186849 0)
(1.06113 -0.0493296 -2.84354e-20)
(0.978982 0.00647032 0)
(1.16063 0.0615085 3.74432e-20)
(1.00061 0.000543928 0)
(0.998757 0.00034868 7.88396e-21)
(1.00778 0.000901838 1.5318e-21)
(0.999229 0.000282516 -5.89025e-21)
(1.13102 -0.160219 5.39407e-20)
(1.00012 0.00103086 0)
(0.999742 0.019131 -4.33375e-21)
(1.0774 -0.0112875 0)
(0.961125 0.2246 3.60615e-21)
(0.870965 0.512717 0)
(1.00004 0.00108561 0)
(1.19288 -0.00180955 0)
(0.544038 -0.549414 0)
(1.11788 -0.373353 -1.10994e-19)
(0.972816 0.0387734 -1.26142e-20)
(-0.0879243 0.0946492 0)
(-0.0833489 0.0473049 3.64925e-19)
(0.994284 0.00741901 1.49946e-20)
(1.01208 0.00246668 -1.68832e-22)
(0.985983 0.0404107 4.74962e-22)
(0.955552 0.0276223 2.51401e-20)
(0.607182 -0.235762 -2.6096e-19)
(1.0222 0.0461947 -6.11619e-21)
(1.00046 0.0015578 5.97635e-21)
(1.0001 0.000974732 0)
(0.772522 -0.49201 -9.85262e-20)
(0.99694 0.145634 0)
(1.0267 0.00548595 -6.42182e-22)
(1.00037 0.00140778 -5.53856e-21)
(0.99175 -9.02239e-05 8.85294e-21)
(1.09403 0.103502 5.4293e-20)
(1.00637 0.00448902 1.80526e-21)
(1.00452 0.000399733 -2.40055e-21)
(1.04193 -0.00926288 0)
(0.990953 0.0448394 5.6461e-21)
(0.99974 0.000490057 -9.82876e-23)
(1.01854 0.0139414 -2.19162e-21)
(0.775995 0.649791 0)
(1.02172 0.0144957 3.35131e-21)
(0.994958 0.0446304 -2.65285e-22)
(0.99676 -0.00126568 -5.07085e-21)
(0.999917 0.0379477 -3.00876e-22)
(1.26608 0.0987886 -1.02371e-19)
(1.00006 0.00117863 -3.61496e-21)
(0.98122 0.0451688 7.29167e-21)
(0.997987 -0.000625477 1.68807e-20)
(1.04407 0.0132013 -3.73043e-21)
(0.688382 0.573756 0)
(0.999999 0.000105712 0)
(0.881492 0.48971 6.97677e-21)
(1.03931 0.0548275 0)
(0.604816 -0.231518 1.34962e-19)
(1.0114 0.000523666 -7.94546e-23)
(1.02661 0.0428877 -3.36136e-21)
(1.04043 -0.00837226 2.19539e-21)
(1.19535 0.00422709 -6.79098e-20)
(0.801395 0.13234 -5.39813e-20)
(0.972393 0.0299097 6.84363e-21)
(1.38666 0.321298 1.72893e-19)
(0.862902 -0.274087 -2.26315e-21)
(0.967357 0.0187119 1.39764e-20)
(1.00762 0.000496249 0)
(1.17924 -0.24743 4.54858e-20)
(0.998043 -0.00112835 -1.51422e-20)
(1.00003 0.000626596 -6.01706e-21)
(1.0092 0.0109289 8.44637e-22)
(1.00004 0.000679712 7.31408e-22)
(1.1137 -0.00209895 -3.90925e-20)
(1 1.56392e-05 0)
(0.999992 0.000144002 -6.91117e-21)
(0.897693 0.251277 8.37033e-21)
(1.0249 0.0852617 -6.54339e-21)
(1.00972 0.000121456 6.04211e-24)
(0.938145 0.104659 0)
(0.95962 0.01288 4.30472e-22)
(1.32543 -0.281974 1.84799e-19)
(1.0344 0.0118379 0)
(0.865868 0.576927 -2.26198e-20)
(0.998639 0.0121952 4.294e-21)
(1.03993 -0.0427539 3.32021e-20)
(1.00378 0.142991 -4.58235e-21)
(1.12297 -0.35628 1.2181e-19)
(1.04124 0.0174655 -5.39071e-22)
(-0.0120427 0.0456646 1.00627e-19)
(1.00001 0.00038248 -1.68621e-22)
(1.02871 0.000264668 3.63065e-21)
(1.00106 0.00149603 1.18261e-21)
(0.998925 0.0303232 0)
(0.990302 0.0131806 -9.44191e-21)
(1.0394 -0.125565 0)
(0.879543 0.134325 1.36048e-20)
(1.01768 -0.0131594 0)
(-0.448726 0.0418282 0)
(1.00042 0.0017224 -5.7891e-21)
(1.08638 0.949388 0)
(1.02731 3.43092e-05 4.7805e-21)
(1.01514 0.0158715 0)
(0.885636 0.0599298 0)
(1.06403 0.015294 2.82888e-20)
(0.662765 -0.326783 4.08081e-20)
(0.997434 0.00401784 4.39152e-21)
(0.956795 0.0844407 3.53173e-21)
(0.956576 0.212315 -1.11425e-20)
(1.0191 0.047693 -5.51273e-22)
(0.852803 0.129195 7.718e-20)
(1.00001 0.000176916 1.55525e-22)
(1.01121 0.00257576 1.37699e-22)
(1.00001 0.000160809 1.49309e-22)
(1.02164 0.447849 -1.51448e-20)
(0.999294 0.00128634 -3.18687e-21)
(1.00093 0.0031747 0)
(1.0085 0.0103723 -1.11261e-21)
(1.00703 0.000815325 -1.95349e-21)
(1.00073 0.00577117 1.04089e-20)
(0.999748 0.00444867 6.41371e-21)
(1.01973 0.0295948 0)
(1.00161 0.0104852 -5.29173e-21)
(0.999368 0.000920004 -6.05054e-21)
(0.96426 0.00637942 -1.47431e-20)
(1.0071 0.070359 -2.29709e-21)
(0.943553 0.102402 0)
(0.995371 -0.000508392 0)
(0.702878 -0.268843 2.84243e-20)
(1.00139 0.0269345 0)
(1.2851 0.345945 1.89676e-19)
(0.914472 0.136577 -2.97472e-20)
(0.029715 -0.0858262 -7.5219e-20)
(1.08773 0.0428731 0)
(1.0288 0.000562919 2.5888e-21)
(-0.101573 0.0301545 0)
(1.06713 0.000594032 0)
(1.05453 0.430778 0)
(1.09882 -0.345415 4.69921e-20)
(1.09338 0.0973104 -3.45526e-20)
(1.0001 0.00107216 0)
(1.00287 0.00924514 -9.01401e-22)
(1.005 0.0464947 -8.16023e-22)
(1.2759 0.0904964 0)
(1.00912 0.0231865 0)
(0.139785 0.166198 0)
(1.00255 0.0213515 -2.34545e-22)
(1.13112 0.724833 2.07827e-19)
(0.826895 -0.322169 -4.64069e-21)
(1.01454 -0.0117166 -1.7325e-22)
(1.03272 0.0162401 7.18884e-21)
(0.083039 0.0579288 0)
(-0.18286 -0.0300516 0)
(0.951041 0.0104846 3.45813e-22)
(0.995005 0.000458585 1.24963e-20)
(0.999996 0.000409588 -9.95435e-21)
(1.03468 0.00470284 9.64595e-21)
(1.01139 0.00250089 -3.41622e-23)
(1.00876 0.000840839 1.15596e-21)
(1.12055 0.144511 -5.48428e-20)
(0.903083 0.0342406 0)
(0.998077 -0.000757788 -2.18002e-20)
(1.00838 0.022835 0)
(0.966115 0.00576474 -1.10227e-22)
(1.25093 0.32555 4.48235e-20)
(1.01166 -0.0147889 0)
(0.999625 0.0014781 -4.82681e-21)
(1.03727 0.0522875 -1.49508e-20)
(1.159 -0.0497935 0)
(0.997565 0.0396687 4.13439e-22)
(0.999834 0.00338124 -3.80846e-21)
(0.0771729 0.157466 0)
(0.988623 0.0330271 -2.63437e-21)
(0.995355 0.0134192 1.60705e-20)
(0.953731 0.981773 0)
(1.00016 0.059431 1.88165e-22)
(0.982815 0.00284111 0)
(-0.116063 0.0848797 -3.67045e-19)
(0.499194 -0.24626 4.42788e-20)
(0.245464 0.06078 1.14013e-19)
(0.992306 0.00587852 8.87892e-21)
(0.981718 0.0475024 1.07975e-20)
(1.2349 -0.21117 0)
(1.00875 0.0108281 0)
(1.01481 0.0207478 -2.08691e-21)
(0.999996 0.00028523 6.98176e-21)
(1.02707 -0.00433557 -1.59603e-21)
(0.998109 0.00158083 -1.95614e-20)
(1.00064 0.000504996 -3.00165e-21)
(1.02693 0.00335682 -5.57448e-21)
(0.810322 0.110255 0)
(0.94047 0.412219 -5.32732e-21)
(1.00589 0.010999 -2.30677e-21)
(0.985296 0.00716659 0)
(0.998018 -0.00150316 7.70916e-21)
(1.01437 0.0194245 0)
(0.987292 0.0389523 1.3605e-20)
(1.0105 0.00272376 0)
(1.19415 -0.0973459 -7.06549e-20)
(1.00967 0.0923566 1.83118e-21)
(0.993558 0.0226301 5.53846e-21)
(0.996355 0.00303313 -1.17583e-20)
(1.00678 0.0104079 0)
(1.00153 0.00323148 8.30218e-21)
(1.02455 0.0274888 0)
(0.0891941 0.143191 3.25645e-19)
(1.04989 0.00174926 0)
(1.01974 0.00431922 2.13797e-21)
(0.994809 0.00524041 0)