/*--------------------------------*- C++ -*----------------------------------*\
| =========                 |                                                 |
| \\      /  F ield         | OpenFOAM: The Open Source CFD Toolbox           |
|  \\    /   O peration     | Version:  v2012                                 |
|   \\  /    A nd           | Website:  www.openfoam.com                      |
|    \\/     M anipulation  |                                                 |
\*---------------------------------------------------------------------------*/
FoamFile
{
    version     2.0;
    format      ascii;
    class       volScalarField;
    location    "950";
    object      omega_0;
}
// * * * * * * * * * * * * * * * * * * * * * * * * * * * * * * * * * * * * * //

dimensions      [0 0 -1 0 0 0 0];


internalField   nonuniform List<scalar> 
10042
(
0.0331069
0.91387
0.0740754
0.0211152
0.0210239
0.44722
0.153543
0.330882
0.0200831
0.0475384
0.265735
0.906708
0.0339498
0.0207027
0.0215273
0.0206946
0.5291
0.227738
0.0233599
0.0242484
0.0338177
0.0304
0.0211003
0.369591
0.0209602
0.0214729
0.0442861
0.0200183
0.473371
0.403681
0.0222609
0.0388781
0.0200608
0.0200568
0.325294
0.328252
0.0219222
0.020241
0.0216119
0.0204339
0.381694
0.0200788
0.45846
0.704122
0.0210413
0.0209548
0.0198398
0.0215052
0.0571479
2.58266
0.764138
0.0209676
0.508402
0.0231367
0.915401
0.961627
0.0324711
0.0281579
0.0215013
0.0195515
0.0570434
0.291961
0.134354
0.34336
0.0375087
0.0211851
0.0236191
0.0676998
0.0198132
0.0568526
2.20628
0.0219088
0.0203737
0.0214824
0.0211483
1.98491
0.0384026
0.0198356
0.0416827
0.0234049
0.63747
0.371595
0.0234918
0.0208728
0.033104
0.0881886
0.0232284
0.0593382
0.020826
0.0312945
0.0275332
0.0215413
0.122716
0.090262
0.0264291
0.0212161
2.67497
0.0237443
0.329834
0.0214734
0.0271163
0.06563
0.0214929
0.0336111
0.0243259
0.02139
1.79423
0.0211117
0.142477
0.0214154
0.0214411
0.123463
0.0619779
0.334897
0.0348696
0.0198012
0.0317015
0.0221266
0.0338283
0.0197759
0.0195509
0.929678
0.924771
0.0210488
0.0334615
0.0208693
0.020889
0.864991
0.213564
0.0299965
0.0202021
0.0210155
0.0210011
0.0210762
0.120208
1.53593
0.0235438
1.81299
0.0222819
0.383735
0.0718108
0.020387
1.82162
0.0200239
0.0253908
0.0202426
0.0317662
0.0197992
0.0217339
0.521216
0.0210627
0.0209233
0.0225739
0.0383691
0.0289575
0.0256573
0.167983
0.622729
0.0210162
0.0218327
0.022019
0.0206373
1.10763
0.0208447
0.0219966
0.439568
0.0203628
0.0350863
0.324365
0.0200288
0.0664192
0.422324
0.947104
0.0200412
0.0231074
0.935316
0.021003
0.0202276
0.0209871
0.0198143
0.0222012
0.0243903
0.0214918
0.0197681
0.261985
0.0275782
0.021965
0.0195938
2.55197
0.0211934
0.889347
0.032398
0.0202168
0.0241711
0.904019
0.0215376
3.3675
0.179615
2.41038
0.0208878
1.50207
0.0867061
0.0386858
0.0202025
0.366398
0.0209563
0.413604
0.0379726
0.0214199
0.0210967
0.0371318
0.0201126
0.220265
0.0478112
0.022001
0.0541423
0.0201495
0.666902
0.0212886
1.1834
2.98228
0.0627088
2.81157
0.0506176
0.0211098
0.0880238
0.0215084
0.0232224
0.0374271
0.0215239
0.0202285
0.0209192
0.0277015
0.022714
0.0209971
0.327915
0.0228076
2.55152
0.0246667
0.36784
0.236371
0.463424
0.0195409
0.0211396
1.18667
0.0210937
0.448511
0.0243029
0.0226524
0.0214162
0.0239823
0.0202194
0.505816
1.00579
0.0216631
0.0226198
0.0215042
0.0216883
2.937
0.0210849
0.0334345
0.0202956
0.0209547
0.0198532
0.0350262
1.08775
0.0319905
0.515208
0.0228984
0.0209284
0.0213357
2.46506
0.0206616
2.72383
0.0216209
0.0314223
0.0220332
0.0210009
0.022975
0.962344
0.0200168
0.478816
3.42275
0.0219688
0.0232399
2.37893
0.0234465
0.0198852
0.0655615
0.0212047
0.0311822
0.0263576
0.023533
0.502392
0.0374952
0.020658
0.966369
0.0231402
0.0213462
0.0201968
0.0224714
0.0261905
0.0195939
0.320397
0.0277148
0.307933
0.0207163
0.0212979
0.941641
0.497892
0.0224768
0.0210283
0.0212122
0.0206595
0.02626
0.0827748
0.0198578
0.251357
0.366929
0.0197881
0.0218978
2.67586
0.0305436
0.307135
0.259856
0.0223118
0.0263777
0.020965
0.0228807
0.0300848
0.0209458
0.0213029
0.0331819
0.0211539
0.396466
0.086225
1.8951
0.27658
0.0202332
0.382226
0.0709912
0.0343905
0.0195445
0.0241827
0.0224281
0.020213
0.0206218
0.0211709
0.0229529
2.40265
0.0217005
0.029549
0.0228555
0.0202355
0.569507
0.0291189
0.021529
0.0234192
3.0698
0.0224648
0.0213674
0.0220416
0.0219728
0.380451
0.361734
0.0220715
0.0209772
0.0222237
0.0223033
0.636708
0.019565
0.0237014
0.0206861
0.0213855
0.0776343
0.0208105
0.0335848
0.0479718
1.29769
0.0753269
0.0213121
0.0880776
0.0370722
0.0209462
0.0463045
0.0197884
0.021328
0.0197703
0.0210435
0.0198859
0.0216081
2.18627
0.021685
0.0365843
0.360832
0.896258
0.0211721
0.3269
0.0219751
0.0393236
0.0209809
2.50705
0.02053
0.788577
3.16195
0.0202545
0.0658143
0.0205358
0.134373
0.0215488
0.57127
0.0267334
0.480567
0.0216474
0.352445
0.0216272
0.0274102
0.700103
0.0198981
0.0215132
0.0209155
0.371638
0.0202142
0.0197532
0.0770322
0.0223668
0.0367623
0.566646
0.0210693
0.0344767
0.0223373
0.0198339
0.0267905
0.327361
0.0204479
0.0218941
1.05718
0.0334104
0.0218568
1.48214
0.0200452
0.025733
0.0289928
2.65431
2.32056
0.293536
0.353775
0.529513
0.338007
0.0197382
0.0278197
0.913604
0.912095
0.0444246
0.0210995
0.0206418
0.0339008
2.08448
0.0197697
0.019757
0.0225238
0.0211434
0.0206461
0.02072
0.0210128
0.0235698
0.0672777
0.0219697
0.025693
0.0568636
0.368616
0.0200465
2.30278
1.12823
0.3702
0.0210162
0.0252917
0.0216936
0.829185
0.0213336
0.134233
0.0216327
0.298727
0.0205127
0.0240125
0.0197507
0.0264693
0.587368
0.0215974
0.0207692
0.0210566
0.743597
0.0202844
0.0442795
0.0480169
0.0654022
0.0201755
0.0498373
0.511708
0.283004
0.0213785
0.0224458
0.477402
0.772602
0.0405091
0.420282
0.0213427
0.200726
0.0300706
0.0277573
0.0234491
0.42911
0.0201608
0.0210836
0.021465
0.512054
0.0210622
0.111804
0.0211447
0.0213667
0.0200805
0.0270841
0.439221
0.0215017
0.0218675
0.499353
0.148041
0.0347185
0.021486
0.0210727
0.219065
0.29925
0.0213311
0.0199377
0.0396255
0.0212285
0.021262
0.546556
0.0202007
1.13366
0.0209633
0.0403157
0.0218346
2.65129
0.0210735
0.0258962
0.0213928
0.020339
0.479058
0.0195381
0.457162
0.040508
0.0200971
0.023076
1.98548
0.4506
0.0268308
0.0211124
0.0199331
0.019788
0.0201605
0.0240646
0.0214339
0.858788
0.021215
0.0199004
0.321141
0.0243632
0.0247797
0.0221976
0.0207635
0.275145
0.381775
0.0216127
0.439901
0.0213391
0.0266036
0.0200048
0.0200971
0.0210738
0.021028
0.0213649
0.0212085
2.42007
0.0215862
0.0654895
0.0209703
0.0211322
0.0198682
0.0397255
0.523186
0.0201104
0.0209918
0.249645
0.0627883
0.0198876
1.2678
0.0209964
0.0333706
0.0202558
0.021988
0.0203268
3.13119
0.0198756
0.0207995
0.0208542
1.24587
0.021801
0.0210594
0.0212027
0.354458
0.0211669
0.0210523
0.0203352
0.0210613
0.0237299
0.0210149
0.020982
0.0200141
3.11338
0.702157
0.584522
0.0215356
0.0237166
0.0212463
0.586999
0.0219612
0.36677
0.462609
0.521784
0.0325442
0.434606
0.0213411
0.0213132
0.512665
0.245538
0.0250343
0.0694838
0.0215049
0.398646
0.0207863
0.0213795
0.0200504
0.0202757
0.0219941
0.513561
0.0219498
0.0214004
2.34523
0.0211744
0.467957
0.0201888
0.0219165
0.0237557
0.0212076
0.380731
0.0209505
0.0210041
0.0635268
0.021378
0.01973
0.0223816
0.0208181
0.0207654
0.541383
0.744533
0.773709
0.021492
0.0208108
0.0208243
0.396119
0.0220276
0.0211226
0.0203157
0.0206159
0.422316
2.52047
0.0264275
0.0215742
0.0232266
3.36132
0.0263917
0.0238789
0.035648
0.291497
0.486155
0.407408
0.0207744
0.0211476
0.0209749
0.346304
0.0207628
0.0243311
0.0210034
0.0195445
0.0232534
0.0212327
2.96333
3.26547
0.0198677
0.0210274
0.0197383
0.286029
0.020263
0.566828
0.0219372
2.56797
0.0208111
0.0205932
0.0201151
0.021071
0.0212882
0.0196138
0.021344
0.0216549
0.0404274
0.0236894
0.574057
0.0213551
0.105752
0.297167
0.0222969
0.443585
0.0209348
0.0208481
0.0207109
0.0212724
0.451043
0.0210019
0.0214824
0.020087
1.04908
0.0205597
0.350716
0.0370112
0.0208234
0.069129
0.340458
0.02012
0.0203872
0.0673989
0.0237095
0.200969
0.030492
0.041588
0.0322539
0.0214746
0.0213977
0.0211788
0.0269139
0.0213784
0.204567
0.113569
0.0195416
0.0202344
0.0218468
0.0289108
0.0237303
0.554381
0.021577
0.0213482
0.422404
0.0208133
0.063428
0.0288313
0.0233548
0.35138
0.0212759
0.0208054
0.021322
0.034477
0.020751
0.693064
0.0216185
0.0339916
0.0245644
0.91693
0.02123
0.0266759
0.0214985
0.0216973
0.0354989
0.020039
0.0315577
0.0208109
0.0216304
0.020635
0.0212724
0.0224175
0.0416892
0.0220348
0.0214928
0.29352
0.0200511
0.0208237
0.0209846
0.0197529
0.0274654
0.0207973
0.0218811
0.0220734
0.291691
0.0212755
0.0270494
0.0698682
0.0206007
0.0208914
0.0197364
0.434698
0.303904
0.024015
0.0208288
0.0433658
0.190459
2.19971
0.0214731
0.467562
0.19962
0.585445
0.0213113
0.0196395
0.0203499
0.494764
0.169686
0.0216023
2.26691
0.0689456
0.347037
0.455588
0.0209004
0.0315575
0.331678
0.0420788
1.16168
0.0268819
2.35102
0.021787
0.391127
0.0213642
0.0222767
0.022169
0.0270435
0.0196118
0.0214051
0.0210139
1.24529
0.0209493
0.0195511
0.302903
0.0213252
0.0265206
0.0215898
0.169742
0.020751
0.0219509
0.021321
0.0210014
0.0211728
0.0250163
0.0207732
1.08031
0.0597025
0.0558045
0.0209687
0.801854
0.0207311
0.0629221
0.278849
0.0236714
0.0211875
0.0198012
0.0209892
0.0219887
0.660258
0.0383145
0.0208304
0.937557
0.020741
0.0214291
0.384412
0.019771
0.0215266
0.952804
0.0208576
0.799977
0.0222913
0.0523015
0.0266445
0.0358421
0.0235807
0.0212239
3.50297
3.55545
0.0209787
0.0295952
2.92444
1.50466
0.113043
0.0219188
0.0204645
0.0219757
0.0213832
0.0209268
0.400735
0.0237022
0.0197842
0.0326542
0.37254
0.302706
0.0198021
0.019739
0.0215444
0.0215293
0.51205
0.550912
0.0201499
0.0246995
0.160033
0.0212073
0.022437
2.13892
0.0223117
0.354131
0.0205983
0.0211854
0.0214906
0.0206918
0.171197
0.0382316
0.0211243
0.411243
0.860517
0.88346
0.0236556
0.0221683
2.19182
0.0356358
0.459832
0.0300057
0.0213005
0.0209449
0.896314
0.316282
0.0215211
0.0243893
0.0392335
0.0208496
0.0454155
0.0215384
0.0208601
0.0216891
0.0338843
0.0207902
0.0210135
2.76956
0.0206409
0.0204511
0.0365973
0.0252591
0.396685
0.0221791
0.0214678
0.869897
0.0428156
0.0224425
0.0334179
0.407911
0.0209204
0.0200723
0.0251724
0.367125
0.0207987
0.0212165
0.0209306
0.0199961
0.0206296
0.945738
0.0212156
0.5191
0.0213648
0.0329994
0.0200788
0.0216057
0.0289273
0.469013
0.125621
0.0212007
0.0221041
0.250774
0.0685597
0.0224566
0.0219105
0.410399
0.0209339
0.0223234
0.0370831
0.0202861
0.0225755
0.020985
0.0356634
1.91054
0.519734
0.0202408
0.021764
0.0256931
0.029489
0.0206111
0.0204024
0.0413785
0.0196258
0.0205723
0.382394
0.0212109
1.28294
0.0201746
0.0204203
0.0200392
0.0299024
0.0213393
0.020631
0.592704
0.0205864
0.0213626
1.1616
0.0209048
0.0332264
0.0224882
0.81924
0.383436
0.0222803
0.397362
0.0243811
0.0213447
3.11565
0.0218489
0.0208281
0.0198291
0.0209433
0.0237151
0.893798
0.0336939
0.350143
0.460453
0.309675
0.0679268
0.373719
0.0234011
0.362336
0.0200175
0.0270548
0.0214751
0.0214651
0.0216343
1.2059
0.352926
0.0211936
0.570648
0.020427
0.104874
0.0211047
0.0231289
0.021451
0.0277751
0.569079
0.0211243
0.0199009
2.46129
0.0923255
0.0231431
0.0220699
0.550464
0.0213063
0.36582
0.400722
0.0207508
0.0205464
0.0208262
0.0242118
0.0207137
0.0219188
0.0219742
0.0203771
0.0213343
0.0214202
0.0203058
0.367078
0.37953
0.0198768
0.127441
0.0225557
0.0396727
0.0397702
0.187585
0.0207393
0.0457263
0.0436055
0.0201004
0.0436879
0.5398
0.0215675
0.0205594
0.0217847
0.371132
0.452
0.0201348
0.448725
0.0213516
0.0214526
2.3102
0.0206138
0.0202142
0.0204366
0.0202661
0.020935
0.276364
0.0238286
0.0204797
0.0213111
0.0205071
0.0210613
0.343204
0.0198682
0.0276643
0.555428
0.46705
0.0205599
0.485931
0.0202993
0.245119
0.0216418
0.0427413
0.0200133
0.583081
2.36026
2.02502
0.0213387
0.0268829
0.31076
0.394491
0.0213177
0.310231
0.0208312
0.416579
0.363428
0.0244046
2.90712
0.333908
0.397694
2.35424
0.114264
0.352883
0.020525
0.0220311
0.309671
0.0737184
0.0212963
0.350572
0.0218941
0.0207506
0.0202329
0.0239611
0.0739084
0.0295159
0.643206
0.0281612
0.405086
0.0220672
0.0209707
0.0205896
0.404304
0.333519
0.0277777
0.340968
0.0215312
0.0217116
0.0316756
0.409477
0.0401274
0.0207342
0.697871
0.940101
0.021701
0.0403207
0.0200989
0.0326085
0.0289348
0.0205853
0.367201
0.261952
0.0212412
0.0220128
0.0208999
0.435766
0.0222806
2.01894
0.245761
0.0209082
0.0205365
0.0199797
0.0332384
0.0203191
0.0227481
0.0220452
0.0237689
0.38293
0.0217184
0.0270545
0.346842
0.0217421
0.0308733
0.0219821
0.0213515
2.05421
0.351861
0.0215816
2.9515
0.0210208
0.32652
0.0206582
0.0202802
0.0255137
0.0224713
0.0360205
0.365222
0.0214361
0.0220583
0.147722
0.0291474
0.0230959
0.35451
0.134771
0.312598
0.0209082
0.0198454
0.141364
0.0203768
1.00837
0.302232
0.0560636
0.310088
0.0215967
0.0202698
1.64456
0.307277
0.0208165
2.29397
0.0235829
0.0210164
0.0717949
0.0220301
0.0213365
0.0430246
0.0233669
0.0202174
0.022924
0.020979
0.0223771
0.398469
0.0299776
0.421815
0.0212501
0.026467
0.0208322
0.0212496
0.322832
0.0214443
0.379133
0.309176
0.0218617
0.389787
0.0321307
0.291392
0.0197533
0.371515
0.0940732
0.0960921
0.0228812
0.0217345
0.0206256
0.222353
0.0230137
0.380017
0.0337689
0.0202377
0.303095
0.0197159
2.49162
0.0209759
0.674253
0.0209414
0.0204969
0.0200853
0.370797
0.0207857
0.020107
0.0200272
0.0208109
0.0213426
0.0405297
0.323838
0.0200672
0.0251837
0.0215581
0.0209594
0.0206967
0.351135
2.37349
0.0247127
0.0212481
0.0207048
0.0200412
0.0237731
0.0243841
0.0200616
0.4229
0.782666
0.338568
0.0200321
0.0208039
0.0213098
0.0227096
0.0205373
0.0217902
0.0213145
0.020721
0.0257075
0.0217978
0.0226939
1.30764
3.26947
0.0203388
0.0209492
0.0208289
2.37075
0.0207542
0.0279288
0.0238208
0.0203975
0.0212131
0.021027
0.931732
0.0211694
0.358597
0.294247
0.0489321
0.0212376
0.0247709
0.308444
0.0233137
0.0354158
0.0224995
0.0353113
0.0203481
0.0251313
0.150658
0.325906
0.020535
0.0214313
0.857585
0.0240292
0.0455685
0.023819
0.29242
0.021223
0.0247986
0.226893
0.355604
0.0608508
0.0201137
0.0207622
0.0202387
0.0215077
0.113451
0.270237
0.201073
0.0205338
2.44609
0.0224832
0.554728
0.40795
0.0209874
1.33623
0.216076
0.0206311
0.0494592
0.0314877
0.0213873
0.414079
0.0207988
2.50006
0.0211684
1.76763
1.51335
0.0433317
0.0212296
0.0249981
0.0217603
0.0208192
0.020171
0.0200609
0.226341
0.021792
0.0353395
0.388682
3.43379
0.0350389
0.0222563
0.0202074
2.07221
0.0197045
0.40826
2.92937
3.31142
2.37107
0.303849
0.379362
0.0200229
0.021347
0.020098
0.0627975
0.0219701
0.922694
0.0240362
2.58741
0.0259543
0.0201272
0.0200095
0.0214606
0.0200274
0.299409
0.723357
2.52469
0.02055
0.0237645
0.0232918
0.021958
0.0884832
0.0214048
0.270858
0.432147
0.0217001
0.0204023
0.40428
0.0259231
0.045779
0.486252
0.0214537
0.293009
0.0221221
2.58829
0.0209412
0.0418895
0.0208149
0.165987
0.0272561
1.32066
0.353514
2.32285
0.107708
0.0454167
0.0202894
0.0204336
0.446999
0.319529
0.093296
0.0261949
3.30522
0.311798
0.377562
0.0377037
0.902619
0.023281
0.0329529
0.400181
0.0214712
0.022949
0.0236012
0.0197482
0.0204111
0.020896
0.0211235
2.4282
0.021846
0.320387
0.0878966
0.242153
0.307016
0.424059
0.0199811
0.0216722
0.403741
0.0351561
0.0261979
0.425308
2.04294
0.432845
0.0207535
0.0312611
0.023344
0.081388
0.0543333
0.377049
0.327653
0.0528009
0.0213297
0.0220577
0.121678
0.0276812
0.0475136
0.394382
0.0209436
0.0238485
0.022562
0.942879
0.0228872
0.0202758
0.0208791
0.022433
1.09299
0.297854
0.0216157
0.0677525
0.37435
0.0216739
0.230572
0.0238457
0.0301923
0.0237911
0.0315697
0.583173
0.0210748
0.0205731
0.0216095
0.109742
0.0887481
0.0330752
0.0219303
0.0224578
0.0215722
0.979766
0.0331281
0.0228692
0.0215355
0.0884142
0.0225019
0.345759
0.0222377
0.0288613
0.0209552
1.10718
0.0933687
0.0487184
2.17128
0.020184
0.0236138
0.272578
0.0224835
0.290394
1.18369
0.0214973
0.0224378
2.34735
0.0212937
1.14047
0.0214866
1.32187
0.374862
0.246529
0.0226071
0.0209566
0.0211318
0.021234
0.0238688
0.0197887
0.0214087
0.0209434
0.020617
0.02298
0.0220097
0.021082
0.0219349
2.43791
0.0214643
2.03163
0.0218038
0.021467
0.638714
0.0210633
1.8039
0.391276
0.0213007
0.0218139
0.0375902
0.280604
0.0236538
2.32689
0.0281107
0.0215889
0.994081
0.0205176
2.91007
0.021462
0.0308182
0.0198148
1.3093
2.18503
0.405057
0.0216656
0.0229073
0.0207519
0.0228695
0.371045
0.0207687
0.0213032
0.042376
0.0237791
0.817359
0.292272
0.0218388
0.0372435
0.0214148
0.0262459
0.0220887
0.0213206
0.021853
2.45803
2.06062
0.0347918
0.0227131
0.0218187
0.0223055
0.0813084
1.80456
0.0520322
0.811714
0.284263
0.0224444
0.0231117
0.0889596
0.0207391
0.0230309
0.0223735
0.0223152
0.305476
0.0224291
0.427477
0.0200712
0.0217233
0.0869504
0.0225697
0.0231805
0.0222998
0.0253189
0.394789
0.0216364
0.0204531
0.0213732
2.41532
0.362821
0.0235746
0.021465
0.0206763
0.0217307
0.0210834
0.0472094
0.0208864
0.0201693
0.0214619
0.0223908
0.0289953
0.0213606
2.20092
0.0217612
0.0218432
0.207219
0.0227667
0.0235429
0.0283365
0.0216433
0.942558
0.0207418
0.0206827
0.0218695
0.0225673
0.0203985
0.292468
0.0218413
0.0209694
0.66969
0.335307
1.38113
0.315769
0.418208
0.0247485
0.0205091
0.0225405
0.299649
0.0272242
0.548328
0.0219779
0.030971
0.0242704
0.0414877
0.0206569
2.53589
0.249635
0.0209351
0.0245362
0.0215733
0.0220018
0.186907
0.0421139
0.0214432
0.0207088
0.0200131
0.372741
0.0215874
0.325916
0.0343349
0.0215496
0.0209248
0.0209702
1.98623
0.0616742
0.020859
0.647517
0.288317
0.0217503
0.343103
0.0215126
0.0205121
0.0206569
0.0214013
0.0199618
0.021136
0.021518
0.0221977
0.0214503
0.0786076
0.0224882
0.488798
0.0301627
0.0212121
0.138712
0.0199876
0.0201112
0.0515102
0.0209137
0.471057
0.0210228
0.081178
3.56035
0.0206042
0.224192
0.287972
0.0213654
0.0217141
0.0211101
0.19936
0.0214775
0.412357
0.422185
0.0215737
0.0265327
0.0400447
0.222537
0.0210114
0.210661
0.0215587
0.164388
0.157151
0.0362115
0.415533
0.0205689
0.0968282
0.412185
0.170482
0.0214295
0.0526257
0.0223688
0.0469432
0.0203838
0.0224915
1.34068
0.0259259
0.186027
0.218735
0.0237324
0.310302
0.0205238
0.0288082
0.0214737
0.0253308
0.540269
0.363874
2.76599
0.034264
0.0247977
1.19401
0.0238254
0.0209594
0.0202144
0.0216731
0.0218245
0.0244353
0.0210176
1.11262
0.0255229
0.0207737
0.0199387
0.0212936
0.0212475
0.10101
0.0205686
2.53661
0.021867
1.17825
0.021043
0.0213817
0.019647
0.070787
0.0209416
2.88481
1.34
0.291537
0.0241122
0.0218801
0.0213889
0.0209086
0.0207316
0.418614
0.0216069
0.0216688
0.686174
0.0213326
0.0220122
2.72
0.170609
1.07147
0.0203248
1.28449
0.531557
0.0209923
0.0205489
0.0271668
1.18537
0.755766
0.423845
0.160797
0.0211992
0.020682
0.159895
0.0258931
0.0215969
0.0249528
0.0215351
0.0227317
0.384782
0.514344
0.0242372
0.0257348
0.0229174
0.0274646
0.870478
0.0214433
0.0208933
0.0213843
0.15103
0.0208589
0.0240506
0.898945
2.75117
0.0204091
0.0207502
0.0196537
0.02142
0.0210076
0.0306797
0.0605525
0.0220069
0.407227
0.383991
0.228987
0.02381
0.0217174
0.0213337
0.0211681
0.0206962
0.0199004
0.0213731
0.660334
0.805213
0.0201752
0.0205304
0.0215163
0.0213939
0.618576
0.0317351
0.902366
0.40838
0.0997104
0.0674523
0.0212768
0.0210136
0.021205
0.021388
1.27185
0.0211836
0.0237248
0.124448
0.899902
0.352363
0.111003
1.1064
0.42549
0.0213219
0.0286058
1.16615
0.759321
0.0213019
0.02099
0.0201243
0.0213038
0.0213366
0.633736
0.020978
0.0209184
0.62869
0.0234678
1.15542
0.0212298
0.0206062
0.0292722
0.134712
0.027766
0.431354
0.0223382
1.01377
0.0360925
0.0209489
0.766748
0.0210548
0.023217
0.0214415
0.0204918
3.14791
1.14212
2.41499
0.106964
0.402302
0.244901
0.61392
0.0207465
0.0214537
0.183493
0.0213062
0.0215042
0.0228227
0.0212722
1.19456
0.0214674
0.819102
0.132153
0.0200127
0.942346
0.0212132
0.0211282
0.0236108
0.0235013
0.0236719
0.0238824
0.0238597
0.427559
0.0214025
0.0212418
0.020018
0.0379112
0.203566
0.0208903
0.0215613
0.0396774
1.16901
0.0210056
0.0238442
0.0238193
0.0200544
0.0212434
0.0209351
1.16575
2.05052
0.0237651
0.0221928
0.0213695
0.0269433
0.613322
0.0213564
0.683287
0.954675
0.0214607
0.0274424
1.3621
1.34279
0.0349704
0.020125
0.0206307
0.940197
0.0376591
1.25199
0.025184
0.919946
0.0288109
0.891411
0.402835
2.66647
0.15683
0.886751
0.349523
1.08174
0.0217307
0.356297
0.0208976
0.971235
0.0224166
0.0218939
0.023677
0.93141
0.283919
0.0220102
0.0213161
0.449279
1.15
0.748514
0.0207306
0.0207734
0.0212199
0.0239589
0.0211906
0.0362451
0.907079
0.304893
0.0236745
0.0205134
0.101806
0.0215213
0.0213076
0.150843
0.0211562
0.0232658
0.0199214
0.498742
0.0606127
0.343587
0.0210255
0.441384
0.539388
0.0311231
0.39505
1.94962
0.435177
0.827893
0.0210002
0.0213794
0.0809475
0.0213462
0.0213732
0.0209881
0.0215411
0.0260264
0.0235178
0.020979
0.289797
0.0203835
0.220431
0.0216493
0.693327
1.0239
0.024492
2.41241
0.872478
0.0287572
0.504987
1.8409
0.0216223
0.0214814
0.0264907
0.0256216
0.905535
0.0209636
0.0213341
0.924316
0.0213281
0.020694
0.0214888
0.0198416
0.296324
0.0214228
0.0315084
0.0214816
1.81889
0.0212231
1.2841
0.258587
0.412503
0.927942
0.0200294
0.0236196
0.0214748
0.0212024
1.23087
0.241383
0.0791605
0.282299
0.0198674
0.0219673
0.0232476
0.0213446
0.30038
0.0208952
0.028892
1.31412
0.311397
0.049475
0.0212218
0.0214783
0.900946
0.0243256
0.0617172
0.509057
1.01131
1.14275
0.0216516
0.0207437
0.020884
0.0214471
0.23101
0.0220459
0.101326
0.0213942
0.0214199
0.202555
0.0198837
0.096362
0.0237386
0.0213723
0.0236911
0.970665
0.0206916
0.0214877
0.759073
0.0213135
0.0213525
0.0399442
2.4719
0.023868
0.025552
0.0204039
1.1153
0.403329
0.0667278
0.0212745
0.0206918
0.0262318
0.0213302
0.188862
0.755953
0.419001
0.939538
0.0212038
0.0386731
0.020944
0.0756519
0.0213121
0.569336
0.282856
0.021276
0.906447
0.0212932
1.93065
0.0359388
0.0203865
0.0296852
0.0207227
0.0208999
0.0205066
0.0198525
0.0211984
0.944148
0.0212867
0.0205738
0.0943061
0.0200848
0.0215011
0.0219926
0.0211497
0.0213163
0.657785
0.0291978
0.0198651
0.0223308
0.0221521
0.0212511
0.943304
0.902709
0.0212791
0.0208998
0.0212905
0.0911461
0.0214192
0.02165
0.0220847
0.0570647
0.0198717
0.0221218
0.282955
0.0213019
0.407313
0.021235
0.0213712
0.0209995
0.021131
0.0205814
0.0212276
1.01692
0.293772
0.0205915
0.0211908
0.0220789
0.291158
0.0253103
0.0473666
0.0211801
0.0218017
0.0356125
0.0219108
0.323133
0.0243122
0.0210422
0.0205333
2.61283
0.0218265
0.813635
0.0931763
0.0210364
0.690048
0.960107
0.296569
0.149823
0.0850607
0.0251813
0.0209706
2.85181
0.0212895
0.0226062
0.0301525
0.0199378
0.0213144
1.90941
0.0207263
0.491125
1.15214
0.0217966
0.0212741
0.497932
0.0212321
0.0666333
0.0203729
0.29274
0.153728
0.310604
0.021249
0.0208171
0.0219019
0.842315
0.475762
0.274648
0.72329
0.0241455
0.0212318
0.10888
2.34806
0.0213862
0.0198659
0.0236369
0.0210145
2.00306
0.091778
0.0203362
0.248294
0.0208054
0.0207073
0.020363
0.021174
0.0213274
0.224004
0.0211052
0.60901
0.0206432
0.0217625
0.0214973
0.0214402
0.0211434
0.0212068
0.0268527
0.0205787
0.215153
0.405747
0.0470548
0.0238582
0.0569462
0.0273524
0.0210519
0.0200677
0.0212602
0.0201187
2.23263
0.132431
0.0220903
0.0223401
0.795705
0.0218058
0.30255
0.0211871
0.0210146
0.021316
0.0426025
0.0807077
1.10095
0.776068
0.0237967
0.0457109
0.0461642
0.0211397
0.0210562
0.0207173
0.0286458
0.0298217
2.11769
1.7249
0.0311646
0.0208935
0.028981
0.0211608
0.0409515
0.0208736
0.1397
0.0219464
0.265255
0.0318523
0.0217867
0.0238328
0.0457359
0.0260202
0.916241
0.0210293
0.0206702
0.0212722
0.0211871
0.35836
0.0204795
0.0214388
0.0249858
0.0198588
0.942869
0.734499
0.0338517
0.0211984
0.0213431
0.508393
0.0481763
0.0210346
0.0212754
0.276317
0.0212936
0.0212455
0.136544
0.0238113
0.390206
0.287049
0.319511
0.0326821
0.0209128
0.0212131
0.0277924
0.0210298
0.020892
0.562442
0.843515
0.0201912
0.0209744
0.0209085
0.0220365
3.2195
0.0209726
0.0220762
0.0213117
0.0203741
0.0209504
0.0466062
0.021698
0.0208744
0.0198737
0.0217523
0.020691
0.0278009
0.305895
0.0265199
0.0206198
0.0210258
0.021187
0.0209418
0.420193
0.021382
0.297955
0.454876
0.0210436
0.0206012
0.445575
0.0206734
0.0207166
0.0209214
0.200417
0.023562
0.0213237
0.0209178
0.0198512
0.0212817
0.294133
0.0209913
0.0214594
0.0375953
0.399509
0.0316811
0.0199351
0.312338
0.0195494
0.491827
0.0209283
0.0199594
0.020614
0.0215236
0.0210955
0.725369
0.0872582
0.279971
0.0573501
0.0250477
1.99056
0.0212794
0.517992
0.242113
0.0214368
0.402318
0.0511576
0.152302
0.0211976
0.632467
0.0215169
0.0206231
0.0202785
0.125199
0.40133
0.0243246
0.423329
3.26631
0.038649
0.0213137
0.0231741
0.0410477
0.210371
0.38593
0.0230932
0.0214454
0.035575
0.386994
0.0208075
0.894618
0.0220225
0.0451985
0.0205659
0.0204158
0.0269294
0.0261911
1.98321
0.951439
0.151887
0.0209137
0.0209468
0.282746
0.321923
1.07019
0.0208074
0.0218176
0.0206963
0.0209766
0.0210108
0.386748
0.0290597
0.152669
0.0923495
0.463888
0.25107
0.0208611
0.0214479
0.0203457
0.0205046
0.025666
0.0210413
0.0211986
0.0212096
0.0208911
0.0245766
0.385201
0.0293475
0.0207406
0.0209471
0.814478
0.0262434
0.0231505
0.0249047
0.367072
0.179047
0.0208985
0.0260389
0.372226
0.020784
0.458178
0.0209089
0.0208571
0.0207527
0.578742
0.0209072
0.0207106
0.0212348
0.0214224
0.0208125
0.0207189
0.356116
0.948977
0.461338
0.0215434
0.020781
0.377471
0.0211918
0.0204887
0.0207653
0.434488
0.0213112
0.821599
0.0200742
0.0206941
0.0385057
0.0387422
0.0207277
0.0415922
0.905634
0.39698
0.0208276
0.0197277
0.0207921
0.382722
0.0212828
0.023856
0.848396
0.0209513
0.0203964
0.0216218
0.0206773
1.12882
0.0208779
0.0212815
0.020933
0.024897
0.301337
0.0212643
0.0206748
0.0214443
0.208808
0.0817693
0.261213
0.0227248
0.457227
0.0203798
0.0208974
0.654084
0.93927
0.021261
0.0209044
0.513991
0.0324821
0.0208742
0.02075
0.0207449
0.0208993
0.0209122
0.313522
0.0212826
0.0236638
0.32871
0.349713
0.021049
0.0246414
0.0253207
0.335953
0.0233376
0.0244883
0.0212739
0.161917
0.0211865
0.0287868
0.329822
0.0205318
0.0890326
0.291964
0.0209247
0.0216576
0.492362
0.342403
0.0220033
0.0207178
0.0204735
0.571322
0.0208621
0.0207262
0.0241115
0.023612
0.0209428
0.352551
0.431036
0.0206043
0.0225337
0.0216007
0.0207317
0.020352
0.0209096
0.0203255
1.35854
0.0219196
0.0219747
0.0207091
0.0199245
0.0207008
0.020837
0.0209053
0.0252992
0.0223893
0.501335
0.0209115
0.0208723
0.0252981
0.0207454
0.0199439
0.0217558
0.396834
0.0207943
0.406363
0.0235087
0.469645
0.0201135
0.499102
0.424742
0.350212
0.0200517
0.0209253
0.416252
0.0209138
0.30798
0.0210491
0.0236363
0.0218518
0.0209557
0.269504
0.470569
0.265866
0.282716
0.023384
0.0207109
0.0208072
0.888622
0.328584
0.0208649
0.0214175
0.0199864
0.0214501
0.020429
0.34488
0.0206594
0.0202334
0.0214502
0.0213148
0.0436373
0.0270773
0.0217421
0.0207079
0.0205047
0.853095
0.0235511
0.0196649
0.865912
0.0289274
0.0235444
0.0234121
0.026192
0.0203537
0.0203369
0.312876
0.306353
0.0999455
0.0209308
0.0205688
0.486965
0.302271
0.0229176
0.0207
0.0230065
0.0206034
0.0217262
0.0208855
0.0224453
0.0198462
0.0206491
0.0204063
0.0207166
0.0206029
0.0218124
0.0206244
0.0745142
0.520813
0.0205878
0.0207655
0.0198877
0.0209236
0.0213737
0.0208817
0.395918
0.58875
0.0208326
0.0216864
0.367582
0.0211237
0.0850344
0.345157
0.308919
0.0205701
0.245147
0.0250252
0.143219
0.0232145
0.0206795
0.451546
0.42553
0.327705
0.0218143
0.0203503
0.295896
0.304555
0.020589
0.0206748
0.0207024
0.0225228
0.0233929
0.0214468
0.0206943
0.0205436
0.576877
0.0633019
0.0306964
0.0203283
3.09617
0.219181
0.020485
0.183634
0.0209929
0.0207256
0.0207953
0.109092
0.0207954
0.0356011
0.0207159
0.0206617
0.0207194
0.0204676
0.0209944
0.0241972
0.019885
0.020591
0.0296402
0.0205393
0.0214047
0.0205387
0.0202066
0.189956
0.186125
0.0207845
0.376078
0.0208744
0.0205877
0.0276473
0.0221326
0.204746
0.0198972
0.0205235
0.0213949
0.0205785
0.0241577
0.0204853
0.0207641
0.0274422
0.019629
0.0210202
0.0209246
0.0206576
0.0226524
0.0210273
0.0505195
0.33493
0.171018
0.969748
0.0198344
0.020511
0.058233
0.020733
0.482986
0.0199064
0.454069
0.463237
0.0200726
0.0205047
0.0211676
0.461601
0.0208198
0.0208725
0.315111
0.0256234
0.436862
0.0211711
0.153302
0.0196433
0.358272
0.512558
0.37346
0.346397
0.245152
0.302095
0.0205436
0.0207335
0.0258479
0.286846
0.0211771
0.0206874
0.0205973
0.398503
0.0200031
0.0200905
0.343527
0.0205112
0.300926
0.0207374
0.412633
0.0796815
0.0225215
0.0212161
0.0207792
0.0208419
0.0289297
0.151618
0.319576
0.0317029
0.372424
0.400215
0.0210684
0.0226412
0.44904
0.0214543
0.020554
0.368849
0.28831
0.510123
0.383215
0.407392
0.0262675
0.0208914
0.0209588
0.250768
0.257002
0.419904
0.49944
0.0196779
0.0212474
0.0215629
0.176454
0.388057
0.020606
0.0226285
0.538435
0.0213395
0.0220406
2.03257
0.442726
0.0771011
0.0217641
0.0207603
0.291518
0.0208942
0.0196523
0.369489
0.0213065
0.0201919
0.418738
0.0201381
0.0205207
0.373837
0.805278
0.305889
0.0202209
0.395853
0.0204523
0.442142
0.394487
0.104713
0.0209252
0.414999
0.023475
0.379216
0.0200647
0.0203064
0.260908
0.161994
0.345747
0.0206222
0.0206676
0.0203533
0.0205829
0.0314391
0.0207518
0.226651
0.0219582
0.418538
0.0201658
0.387883
0.0210799
0.0203716
0.0206197
0.389238
0.38919
0.0196296
0.0198146
0.0203929
0.0201513
0.0890808
0.0205217
0.177673
0.0231793
0.0362397
0.400032
0.449071
0.913028
0.411477
0.0298028
0.0292102
2.53323
0.253415
0.190285
0.116906
0.386529
0.0205195
0.0298804
0.437155
0.0204768
0.485549
0.451654
0.591608
0.340864
0.0204719
0.43035
0.10502
0.541162
0.0212889
0.0205848
0.267785
0.0575252
0.412212
0.0207422
0.34292
0.0209293
0.412
0.508764
0.445097
0.0207252
0.022114
0.441143
0.350903
0.0203846
0.94342
0.126447
0.43304
0.0209885
0.170687
0.0204551
0.455614
0.342865
0.418288
0.132114
0.4069
0.0229627
0.153439
0.0223768
0.0713209
0.021293
0.121933
0.0212517
0.0205678
0.0265113
2.59125
0.0213133
0.400484
0.429372
0.103567
0.129164
0.29612
0.0201371
0.174244
0.0242527
0.397946
0.0206371
0.0212724
0.0214133
0.372819
0.0203839
0.375364
0.364764
0.0256388
0.0215957
0.0219844
0.0197514
0.0655709
0.423001
0.0199776
0.0597552
0.914379
0.464935
0.363812
0.0205553
0.0206005
0.0205559
0.023081
0.0211925
0.0205528
0.0327012
0.022386
0.0212995
0.0197791
0.0205359
0.0221232
0.305325
0.0212601
0.333406
0.0206064
0.0205897
0.022261
0.0234138
0.0214163
0.0207096
0.0204621
0.0728949
0.342648
0.0205834