/*--------------------------------*- C++ -*----------------------------------*\
| =========                 |                                                 |
| \\      /  F ield         | OpenFOAM: The Open Source CFD Toolbox           |
|  \\    /   O peration     | Version:  v2012                                 |
|   \\  /    A nd           | Website:  www.openfoam.com                      |
|    \\/     M anipulation  |                                                 |
\*---------------------------------------------------------------------------*/
FoamFile
{
    version     2.0;
    format      ascii;
    class       volScalarField;
    location    "950";
    object      p;
}
// * * * * * * * * * * * * * * * * * * * * * * * * * * * * * * * * * * * * * //

dimensions      [0 2 -2 0 0 0 0];


internalField   nonuniform List<scalar> 
10042
(
0.00579439
-0.0826172
0.00619217
-0.000916208
0.00306834
-0.0287663
-0.0238732
-0.0278275
0.00420113
0.00788693
0.00734123
-0.0947045
-0.0170449
0.00509792
-0.010308
0.00513921
-0.0489663
0.006455
-0.0204049
0.007471
-0.0159058
0.00606166
-0.00076608
-0.0380048
0.00277758
0.00189922
0.00865718
0.00392837
-0.0355854
-0.0448306
0.00404963
-0.0352615
0.00414002
0.00411965
-0.0262032
-0.0310534
-0.00305199
0.00449048
0.00400715
0.000765574
-0.0397088
0.00417696
-0.00856751
-0.0325466
0.000774321
0.00287374
0.00306959
-0.0098683
-0.00123825
-0.0647159
-0.0140222
0.00143264
-0.0423186
-0.0195119
-0.0469889
-0.0261296
-0.0155484
0.0062419
-0.0061298
0.000247625
0.000246985
-0.0299959
-0.00133779
-0.0247659
0.0065509
0.00467346
0.00678568
0.00416118
0.0029264
0.00479395
-0.016175
0.00160637
0.00470276
-0.00622012
0.00453922
-0.00998094
0.00510678
0.00305451
0.0049063
-0.0217844
-0.0354424
-0.0385937
0.00314964
0.00259574
0.0103137
-0.00360047
0.00638503
0.00414509
0.00466731
0.00583627
-0.0192161
-0.0108463
-0.00607997
-0.00424786
0.00773878
0.000313934
-0.191551
0.00689717
-0.0280246
-0.00678296
-0.0189663
0.00808918
-0.000871092
-0.0379248
-0.0166861
-0.00181361
-0.0648905
0.00438277
-0.024689
-0.00198112
-0.00521403
-0.0188369
0.0105172
-0.0201109
0.00618012
0.00287951
0.00910169
0.00349407
0.00610903
0.0027016
0.000330987
-0.0907852
-0.0992488
0.000767573
0.00546544
0.00478168
0.0048384
-0.0478543
0.0168659
0.00928322
0.00447459
0.00435325
0.00500974
0.00381671
-0.0153405
-0.048506
0.00655677
-0.0647805
-0.0122097
-0.0256631
-0.00952632
0.00407493
-0.0778251
0.00393412
-0.00397155
0.00450274
0.010029
0.00285602
0.00277783
-0.0535344
0.00428356
0.00411981
-0.0126934
-0.0164397
0.00711721
-0.00288923
0.0117397
-0.0266225
0.0050051
0.00180637
0.0024586
0.000590651
-0.0496546
0.00470621
-0.0111694
-0.0459501
0.00467916
-0.0358043
-0.028591
0.0040519
0.00830079
-0.0448964
-0.0837343
0.00406406
-0.0184448
-0.0825504
0.00225311
0.00448645
0.00425679
0.0029816
-0.0115769
-0.0130274
-0.00672812
0.00259011
0.00403305
-0.0260676
0.00122666
0.000283291
-0.0237898
0.00431221
-0.0680423
-0.0142436
0.00450429
-0.0131585
-0.0495771
-0.0108829
0.0661575
0.00747513
-0.112732
0.00250328
0.0232851
-0.00817202
0.00921779
0.00347698
-0.0345569
0.00497944
-0.0405393
-0.0161929
-0.00479391
0.00378987
-0.0371648
0.00342342
0.0082886
0.00820727
-0.00213698
0.00549735
0.00318924
-0.0329964
-0.000132949
0.0138832
0.0502115
0.00739759
0.0418507
0.00510214
-0.000906801
-0.00669187
0.00229921
0.00628403
0.00729353
-0.00120236
0.00449514
0.00485616
-0.0246067
0.00360026
0.0024042
-0.0288226
0.00576285
-0.16668
-0.00456998
-0.0367743
-0.0144198
-0.0192544
0.000264112
0.000819859
-0.0804677
0.00292787
-0.0136685
-0.00382042
-0.0127819
0.00302364
-0.0171871
0.0045136
0.00469437
-0.0337602
0.00258407
0.00558567
0.0043884
0.0035265
-0.221815
0.000408786
0.00542886
0.00456463
0.00156583
0.00315638
-0.0174992
-0.0405285
0.00588776
0.0058477
0.00399197
0.00488067
-0.00517444
-0.0710149
0.00498497
-0.0101469
0.00328135
0.00645585
-0.0174257
0.00161162
0.00433077
-0.0547685
0.0039622
-0.011578
0.0620164
-0.0167047
-0.00361668
-0.0243404
0.00814225
0.00342452
0.00598825
0.00420304
-0.0126224
0.00678066
-0.00274146
-0.0247143
0.00582207
0.005054
0.0085715
0.00609186
-0.0053744
0.0032035
-0.0118008
0.0083603
0.00018011
-0.0182645
0.00767474
-0.0264468
0.0050749
0.000630695
0.00567736
-0.016639
-0.00309215
0.00371862
7.4721e-05
0.00502467
0.00671271
0.00635613
0.00317968
0.00340379
-0.0306707
0.00280214
0.00367823
-0.0197514
0.00600477
-0.00562012
0.00565684
-0.00222145
0.00567989
0.0043205
0.00591304
-0.0121727
0.00493087
-0.00295612
0.00546402
0.00445273
-0.0375118
0.00666325
-0.0822209
-0.0024148
0.00454235
-0.0379691
-0.0114782
-0.0120717
0.000330656
0.00607333
0.00212665
0.00447883
0.00484843
0.00236445
0.00586475
-0.142212
-0.0132794
0.00686963
0.00567507
0.00421851
-0.0334786
0.00577566
0.00201085
0.00319265
0.043647
0.00352508
-0.0021094
-0.00331961
-0.0104217
-0.0201614
-0.0379798
-0.0118887
0.00220483
0.00540551
0.00558466
-0.0389495
0.000337482
0.00211278
0.00503693
-7.66526e-05
-0.000345437
0.00513876
0.00608616
-0.00559078
-0.0938413
-0.000848776
-0.00212054
-0.00982456
0.00869931
0.00423781
-0.0165297
0.0027852
0.00246497
0.00263742
0.00506753
0.00343973
0.00346062
-0.0143672
-0.0127194
0.00479323
-0.0304878
-0.0304403
-0.00189308
-0.0241126
-0.00364019
-0.0321519
0.00132131
0.00994943
0.00313289
-0.0393473
-0.218483
0.00425173
-0.0109475
0.00425628
-0.00953983
0.0032782
-0.0469082
-0.00652562
-0.0217399
-0.012015
-0.0216347
0.00574089
-0.0019976
-0.0397524
0.00341984
0.00567422
0.00438149
-0.03308
0.00448745
0.00249735
-0.00818098
0.00602253
0.0104017
-0.0455068
0.000565909
-0.0131189
0.00600733
0.00310207
-0.00576696
-0.0284317
0.00424007
-0.00988574
-0.0925969
0.00676017
0.00350178
-0.0249798
0.00398627
0.00640704
0.00682518
-0.0114765
-0.0529637
0.00349801
-0.0166469
-0.0410089
-0.0266102
0.00238244
0.00615082
-0.00213139
-0.00209114
-0.0172719
-0.000821348
0.00488245
0.00702003
-0.0294607
0.00265696
0.000562006
0.00316438
-0.00144541
0.00492637
0.00503023
0.00498453
-0.00267242
0.00600958
-0.0181714
0.00625226
0.00761722
-0.0418036
0.00401397
0.00933839
-0.098829
-0.0168552
0.004465
-0.0327127
0.00375131
-0.0238782
-0.00527378
0.00681772
-0.011495
-0.0193975
0.00412525
-0.0186587
0.000419602
0.00579648
-0.0496976
0.00332765
0.00384991
0.00367923
-0.0570794
0.00455712
0.00643308
0.00350919
-0.0114
0.00410222
0.00708691
-0.0416354
-0.0485812
-0.00468083
0.00236462
-0.0107846
-0.0622374
-0.00302803
-0.00143801
0.00424398
0.00149785
0.00653356
0.00250085
-0.00453581
-0.0442249
0.0041233
-0.000486558
-0.00268009
-0.0451261
0.000434095
-0.0053203
-0.00144569
-0.00534162
0.0041274
-0.00120934
-0.000563166
-0.00170725
-0.00912605
-0.0132054
0.00726124
0.0118429
-0.0019098
0.00456055
0.00238336
-0.0490925
-0.00226293
0.00366784
0.00497834
0.000345627
-0.00229221
0.0159276
0.00447015
-0.0649222
0.00210209
0.00823358
0.0046941
0.0197993
0.000268013
-0.0305338
-0.00018258
0.00464871
-0.00355536
0.000258612
-0.0281235
-0.00387971
0.00425181
0.005016
-0.0925133
-0.016749
0.00768934
0.00437658
0.00363077
0.00272826
0.00347161
0.00553246
-0.00247749
-0.0141849
-0.000501524
0.000290754
-0.0367688
-0.015404
0.00570991
0.00353346
0.00347251
-0.0356891
-0.0140161
0.00470952
-0.0482802
-0.00513136
-0.0281289
0.00388584
0.00426196
0.00399296
0.00386379
-0.00286923
0.00444712
-0.0145846
-0.0103329
0.0162213
0.0017804
0.00439064
0.00325075
0.0132184
-0.032388
0.00425906
0.00161831
0.00374979
0.0077934
0.00336223
-0.0861705
0.00238378
0.00554406
0.00450437
0.000702613
0.00463275
0.0454387
0.00325915
0.00486948
0.00518206
-0.0917104
-1.19475e-05
0.00401493
0.00450193
0.0037622
-0.00181086
0.0015401
0.00408538
0.0014621
-0.00480055
0.00218086
0.00446413
0.00391213
-0.238869
-0.0226662
-0.0441043
0.00343591
-0.0283188
2.90368e-05
0.0134988
-0.00384329
-0.0347266
0.00834737
-0.0398863
0.00591518
-0.0120799
-0.00500676
-0.00274677
-0.0584294
0.00369612
0.00531983
-0.0100573
-0.00826747
-0.00652793
0.00410978
-0.00406303
0.00402308
0.00453812
0.00225038
-0.0556294
-0.0159667
0.0018995
-0.0135263
-0.000139279
0.013783
0.000543569
-0.0171376
0.0066462
0.00425545
-0.0331337
0.00471129
0.0035982
0.0157448
-0.00523654
0.000270503
0.00396848
0.00427233
0.00365039
-0.00801678
0.0171931
-0.0225152
-0.00971342
0.00460099
0.00413323
-0.00887857
0.00211798
0.00465152
0.00312698
0.00475013
-0.0183731
-0.0679417
0.00155022
0.00268583
-0.0036002
-0.274497
-0.0301873
0.00584926
0.0108236
-0.0026777
-0.0248198
-0.0163277
0.00416038
0.00446407
0.00479852
-0.02099
0.00412827
-0.0298252
0.00502092
0.000330801
0.0060253
0.00522602
0.0397165
0.0463536
0.0033299
0.000959917
0.00235044
0.00546915
0.00452262
-0.0563452
0.00540417
-0.0505274
0.00450845
0.00496924
0.00428569
-0.000438701
-0.00278322
0.000275261
-0.00550691
-0.0109739
0.00528823
-0.0190476
-0.0275482
-0.00476539
0.00474022
-0.0111248
-0.00341898
-0.0307406
0.00220948
0.00507148
0.00314308
0.00432012
-0.0502552
0.00496198
0.00328101
0.00413778
-0.0652852
0.0049473
-0.0181005
-0.00644574
0.00457481
0.00922436
-0.0174088
0.000333281
0.004729
-0.00931776
0.0020289
-0.0161372
0.00497001
0.0039405
0.00600963
-0.00915496
-0.00500112
0.00447506
0.00733907
0.00300396
-0.000131239
-0.0188339
0.000265049
0.00335217
-0.00348454
0.00623805
0.00179306
-0.0527779
-0.0116221
-0.00199101
0.00735494
0.00439863
-0.0117422
0.00274361
-0.00258277
-0.0183443
0.00438623
0.00480052
0.00513495
0.00791521
0.00511111
-0.0300797
-0.0103414
0.00913553
-0.0313492
-0.04354
0.00514626
0.0015819
0.00242692
-0.0109586
-0.00577556
0.00398315
0.00700604
0.0049351
-0.0123771
0.00493678
0.000582569
-0.0139541
-0.00362872
0.00375941
-0.00910208
0.00321047
0.00395463
0.00447345
0.00148148
0.00247756
0.0023453
0.00422168
0.00416878
0.00523528
0.00244997
-0.00241767
0.00589341
-0.0127299
0.00472145
0.00490671
0.00232604
-0.000869912
-0.0045909
-0.0145733
0.00382737
0.000938786
-0.0376944
0.00155569
0.00532653
-0.00312993
-0.0309404
-0.0438604
0.00443023
0.00037101
0.00338812
-0.0142409
0.0154117
-0.0108603
0.00394495
0.00316888
-0.0150862
-0.0530719
0.00512456
0.00432704
-0.0277561
0.00399009
-0.0568998
0.00715615
-0.0153977
0.00391675
-0.021581
-0.00480937
0.00489322
0.00323905
0.00773301
0.000467773
-0.0042872
0.00129674
-0.0797949
0.00496314
0.000328861
-0.0339267
-0.00440016
-0.01712
0.00538333
0.00105819
0.00120073
-0.00884362
0.00302027
0.00500065
-0.00034105
-0.0311991
0.00366823
-0.0965976
0.00284079
0.00471894
0.00502045
-0.0157711
0.00384037
-0.0104355
0.00517943
0.00306007
-0.000175018
0.00289824
0.00498186
-0.00235576
-0.0304284
0.0125047
0.00422166
-0.0345372
0.00391592
0.000705131
-0.0382295
0.00244349
-0.00216084
-0.0376042
0.00270432
0.000709527
-0.0131743
0.0152172
-0.0200061
0.0113495
0.00496567
-0.000242091
-0.267163
-0.27704
0.00177555
0.00757751
0.0282181
-0.112443
-0.0150586
0.00242684
0.004805
0.00245159
-0.00258987
0.00419251
0.00333638
-0.0270279
0.00270548
-0.028321
-0.0116048
-0.00619864
0.00281163
0.00228271
0.00231907
-0.00825655
-0.0497919
-0.012678
0.00425916
-0.0265575
-7.91172e-05
0.00442245
0.000264663
0.00340169
0.00280233
0.00651668
0.00394345
0.00438863
-0.00942599
0.00428313
0.0153048
0.00487059
0.00432993
-0.0212613
-0.04129
-0.0179809
-0.0148691
0.00233056
0.0140881
-0.0274742
-0.0544514
-0.0353736
-0.00234411
0.00442055
-0.0291326
-0.0148444
0.00547757
-0.0252648
-0.0270095
0.00498929
0.00579574
0.00548464
0.00488981
0.00362329
-0.029185
0.00480471
0.00145556
-0.0458084
0.00494477
0.00479374
0.0110047
-0.0213862
-0.00635371
0.0035742
0.00341136
-0.0240855
0.00159788
0.000586989
-0.00445942
-0.000261233
0.00324886
0.00415976
-0.0261978
0.012295
0.00414723
0.0051537
0.00446695
0.000247667
0.00491668
-0.053447
0.00462169
0.00438873
-0.00424295
0.0109197
0.0039181
-0.0122964
0.00761626
-0.0481828
-0.0240407
-0.000452281
0.00566511
-0.0017309
0.00566197
0.0026943
-0.0165508
-0.00180728
0.00329794
0.00495063
0.00440331
0.00348869
-0.0167312
0.00134207
0.00493245
-0.0960538
0.00408452
0.0041293
0.000587217
-0.0224252
0.00574461
0.00481278
0.00472367
-0.0162618
0.000555341
0.00470954
0.00454936
0.00507429
-0.0799777
0.00443382
0.0047409
0.00398569
0.00995695
0.00521677
0.00398943
-0.0714244
0.00473755
0.00328918
-0.0605834
0.0049065
0.00573184
0.00142987
0.00137992
-0.00156586
0.00583739
-0.0360237
0.00715041
-0.00269899
0.0490494
-0.0156573
0.00482585
0.00306446
0.00221105
0.00187716
-0.0371302
0.0111165
-0.0241985
-0.0525139
0.0056999
0.0123563
0.00228884
-0.0181129
0.00425409
0.00397802
-0.0280226
-0.00861339
0.00333095
1.58704e-05
-0.108862
-0.0277093
6.15395e-05
-0.022876
0.00475219
-0.0122049
0.00450079
-0.00518118
0.00551555
0.00517022
-0.0251843
0.000613638
0.00350375
-0.0945893
0.00200819
0.00529522
0.00495276
-0.0105431
0.00507047
-0.0380749
-0.0268089
0.00352621
0.00469403
0.00435331
-0.00288674
0.00107598
-0.00807572
0.00046309
0.00422873
0.00513072
0.00328048
0.00417748
0.00336025
-0.0384759
0.00255457
0.0163637
-0.015767
-0.0246347
0.0132013
0.00980293
0.00385513
-0.0392853
0.0137043
0.00299441
-0.00334389
-0.0114415
-0.0115614
0.00472414
0.00251446
-0.0383468
-0.055013
0.00424642
-0.00404387
0.00340328
-0.00517405
-0.0980549
0.00504503
0.00411355
0.00476287
0.00418949
0.00418866
0.00297267
0.000250824
0.00484432
-0.00394775
0.00488747
0.000604978
-0.0236426
0.00334831
0.00895688
-0.017878
-0.0037185
0.00430217
-0.0503018
0.00300713
0.0180188
0.00583958
0.00422834
0.00386371
-0.0315819
-0.130256
-0.106056
-0.00465134
0.00657177
0.00112278
-0.0152085
0.00527959
0.0035482
0.0049268
-0.0308894
-0.0372505
0.00611
0.0375273
-0.0296549
0.00203413
0.00817966
-0.0206721
-0.0354609
0.00474853
0.00142907
0.00412197
-0.012398
-0.00385168
-0.0357758
-0.0150898
0.00417242
0.00438106
0.00626497
-0.01121
0.00979076
-0.00357766
-0.000448597
-0.00514362
-0.0182438
0.00262733
0.00491099
-0.000413206
-0.0096957
0.000513013
-0.0139978
-0.000476474
0.00334331
-0.00642025
0.0029908
0.00207084
0.00438566
0.0154829
-0.0274933
0.00488436
0.00409219
0.00257298
-0.0262076
0.00518815
0.00497119
-0.0053333
0.00581417
-0.00321669
-0.0152333
0.0025806
-0.0447499
0.00291855
-0.0350936
0.00438508
0.00334308
0.00482619
0.00372251
-0.00306174
0.00325945
0.0052016
0.00549962
0.00275082
0.00738274
0.000193332
-0.0176808
-0.0325174
0.00468653
0.00563598
0.00154982
-0.00503623
0.000716455
-0.024875
0.00216693
0.0263131
0.00399175
-0.00695596
0.00492489
0.00414107
0.00626998
-0.00267176
0.0118052
0.00670463
0.00507841
0.00426401
0.00413778
0.00600273
-0.0033395
-0.0283474
-0.0262382
0.00239426
0.00258666
0.00317006
0.00725635
0.00249261
-0.0552711
0.0052236
0.00984086
-0.0218993
-0.000350975
0.00412564
-0.0645875
0.00477574
0.00486499
-0.0509009
0.00292295
0.00376529
-0.00754576
-0.0160477
0.00288007
-0.0133422
-0.00354777
0.00410779
-0.0174335
0.00137235
-0.00198021
-0.00774732
-0.0330432
-0.0396886
-0.0019488
-0.0215379
0.00398226
-0.00339813
-0.0230651
-0.00807479
0.00340704
0.00574614
-0.00586284
-0.0403066
-0.0376229
0.00213323
0.00244438
0.00336495
0.00611926
0.0134822
-0.00482835
0.00120498
0.00479664
-0.030992
-0.00246832
0.00511249
-0.0318594
0.00455166
0.00565986
0.00203137
-0.0929753
0.00128996
-0.0490467
0.00497346
0.00466317
0.00420086
0.0017289
0.00351197
0.00408032
0.00376236
0.00409266
-0.00487805
0.00477632
0.00445387
0.00387818
-0.0200097
-0.01173
0.00144139
0.00400126
0.00427203
-0.0160903
-0.0281203
0.000236319
0.00401494
0.00397958
-0.00279403
-0.0238077
0.00412421
-0.0281365
-0.0411276
0.0034638
0.0037699
0.00423126
-0.00397529
-0.0176547
0.00473848
-0.00553388
-0.00475178
0.00435722
0.00535014
0.00514467
0.00488308
-0.117322
-0.251116
0.00308826
0.00180964
0.00500096
0.0236329
0.0047977
-0.011459
-6.99597e-05
0.00470569
0.000790826
0.00112595
-0.104713
0.00425114
-0.0333721
-0.014398
-0.0319455
-0.00182892
-0.021888
-0.0215982
-0.0121421
-0.00471734
0.000869668
-0.0326601
0.00466541
-0.0245947
-0.0199741
-0.0253219
0.00490222
-0.0077168
-0.0138939
-0.0255351
-0.0350518
0.000862957
0.00521506
-0.00189295
-0.023386
0.00288614
-0.0148092
-0.0108355
0.00400914
0.00508807
0.00148343
-0.00953554
0.00975331
-0.00969529
-0.00158887
0.00470552
0.0249566
-0.00101737
-0.0437499
-0.0339455
0.00242603
-0.126345
0.0107146
0.00462193
0.0148077
-0.00545555
0.00282877
-0.0152491
0.00343665
-0.016386
0.00414265
-0.0185103
-0.0804868
-0.0145724
0.000840342
-0.0295532
-0.00487273
0.00394343
0.00442773
0.0040112
-0.0393698
-0.0154586
-0.0020929
-0.012842
-0.273837
-0.000934947
0.00458753
0.00436377
-0.00938121
0.000377207
-0.00781616
0.0238142
-0.222025
0.0131654
-0.02265
-0.0330146
0.00383954
0.00253149
0.00423668
0.00242659
0.00342599
-0.02306
-0.0269799
0.0310193
-0.0179263
0.0040799
0.00372736
-0.00854393
0.00400803
0.00525801
-0.0137764
-0.120991
0.0049245
0.00142514
-0.0111462
0.00534418
-0.0128891
-0.00679835
-0.0102614
-0.0396716
-0.004602
0.00326648
-0.00715327
-0.0193981
0.00220965
-0.0184104
0.00374733
-0.0127659
0.00291433
-0.0629345
0.00173467
0.00398257
0.00387909
0.00621443
0.00544084
-0.11144
-0.015221
0.0189683
0.00591233
0.00373506
0.00322914
0.0042278
-0.0538405
0.00416297
-0.0146836
-0.0266462
0.0157503
0.00449394
-0.0380315
-0.0233257
-0.0917449
0.00562663
-0.0115632
-0.00507601
0.00513137
0.00561141
0.00286397
0.000489395
0.00468915
0.00330903
0.00391969
-0.130675
-0.0168774
0.00415555
-0.0152425
-0.0184445
-0.00350355
-0.0351344
0.00362501
-0.0115514
-0.0120374
0.00637754
0.00780982
-0.0338872
-0.00941454
-0.0411115
0.00424836
-0.0137539
-0.0017739
-0.0131166
0.0116886
-0.0395465
-0.0172535
-0.0248455
0.00204416
-0.000809964
-0.00837541
0.00732973
-0.0178702
-0.00501214
0.00182552
-0.000173303
-0.0187707
-0.102427
-0.0163484
0.00430365
0.00269208
-0.0168675
-0.00508251
0.00229358
-0.0117989
-0.0109239
0.00172579
0.00599118
0.00812478
0.000100655
-0.0049941
-0.00101546
-0.00278018
-0.0515185
-0.000195295
0.00496055
0.00158241
-0.017505
-0.0133322
-0.00696139
-0.0136938
-0.0109773
-0.010767
0.0108143
-0.000723004
-0.0144505
-0.0096961
0.00704885
0.00116825
-0.0302408
-0.00775289
-0.00678394
0.00300318
-0.0317455
0.00594059
-0.0281657
-0.12791
0.00410889
-0.00228021
-0.00797199
0.00256043
-0.0173197
-0.0684574
-0.00871855
-0.0205092
-0.110036
-0.0043079
-0.00439089
-0.00728906
-0.112443
-0.0400678
0.00377609
-0.0105654
0.00193137
-0.00122096
-0.00201026
-0.0110284
0.00238646
0.00224289
0.00170595
0.00459877
-0.00964121
0.00129093
0.0054022
4.65998e-05
-0.0801101
-0.00896701
-0.108431
-0.0159931
-0.00898129
-0.0696726
-2.6051e-05
-0.0571912
-0.00280326
0.00195774
-0.00693118
-0.0216907
0.00656541
0.00254357
-0.135269
-0.00898001
0.00511458
-0.019457
0.00486229
-0.0185664
-0.00777538
0.00724639
0.000710508
-0.0445226
0.00212262
-0.0152184
-0.0131402
-0.00670675
0.00371682
-0.0196349
0.0116285
0.00478102
-0.00453664
-0.0198149
-0.00126171
-0.0270906
0.00299433
-0.0149961
0.00120956
-0.00715613
-0.0251408
-0.0144119
-0.00466965
-0.0122424
-0.122359
-0.015719
0.00418659
-0.00814898
-0.0100874
-0.0151019
0.00323349
-0.0424708
0.000741863
-0.00138873
0.00633496
-0.0177964
-0.0161005
-0.00233228
0.00414457
-0.0105409
0.00505079
-0.0160061
-0.0056142
-0.0197051
-0.0343631
0.00266833
-0.00588388
-0.00143275
-0.0197429
-0.0222899
-6.89799e-05
-0.00248579
-0.007377
0.0051364
0.0029448
0.00192175
-0.101427
0.00795554
-0.0106205
0.00213375
0.00403844
0.00348607
0.00471692
0.00432192
0.00269661
0.00269837
-0.00879029
0.00528266
-0.0363326
0.00234085
-0.134141
-0.0157054
-0.00764944
-0.0277553
-0.00915303
-0.00958318
0.00589902
-0.00494286
-0.0984263
0.00428511
0.00404835
-0.0129586
0.00525711
0.00466807
-0.0102991
-0.0107834
0.00308866
-0.00261768
-0.020769
-0.0296323
0.00560859
-0.00413347
-0.00232711
0.00468899
-0.0076743
-0.0182162
-0.0109785
-0.033403
-0.00695007
-0.0296926
0.00207982
0.00767393
0.00402491
0.0298083
0.00199592
0.00207928
-0.00118064
-0.00410604
-0.0186812
0.00681947
0.0034912
-0.00774898
0.00438734
0.00394269
0.0043161
-0.0111478
0.00677351
-0.0227931
-0.010172
0.00187362
0.00322038
-0.0715216
0.00850605
0.00280389
-0.0714849
-0.00570887
-0.00656007
-0.0276959
-0.00916591
0.00471834
0.00407776
-0.00356051
0.00356767
0.00484683
-0.00338371
-0.00693329
-0.00348014
-0.0047548
-0.0068241
-0.0131305
-0.00842561
-0.00160091
-0.0154054
0.00356285
0.00281464
0.00185789
0.00221904
-0.0259108
0.000813973
-0.013701
0.0218985
0.00422777
-0.0470101
-0.0211998
-0.00358259
-0.00149361
0.00414266
-0.0318427
-0.00822346
-0.0121337
-0.029998
0.00151455
-0.012986
0.000185617
0.0172611
0.00441906
0.00217517
-0.00973819
0.00773651
-0.0353371
0.00953051
-0.00189346
0.00493762
-0.013515
0.0069597
-0.0206646
-0.00734901
-0.0216654
-0.00815596
-0.0203427
0.00468522
-0.000654307
-0.127393
-0.0149956
0.00163365
0.00836593
0.00166275
-1.70583e-05
0.00448434
0.00664847
-0.00891024
-0.0169897
0.0123475
0.00457425
0.0343899
-0.0247445
-0.0189476
-0.0934523
0.000586026
0.00155999
0.00138419
-0.00400918
0.00508783
-0.0209367
0.00201994
-0.032244
-0.0290921
0.00516178
0.00347077
-0.00387016
-0.00300693
-0.00330835
0.00495027
0.0179608
0.00490311
-0.0262192
0.00524145
0.000468322
0.00117328
-0.0073916
0.00528276
0.0188244
-0.120656
-0.0100927
-0.00112435
-0.0143836
-0.00498847
0.00223136
0.0046962
-0.0168509
0.000351316
-0.00557291
-0.0180323
-0.00356166
-0.00772541
0.0180797
-0.0224549
-0.0674674
0.00292009
-0.108852
-0.00858063
0.00146785
0.00490561
0.00880395
-0.0160649
-0.0309118
-0.0263581
-0.031253
0.00103581
0.00428166
0.00374821
0.00149968
-0.00468212
0.00486011
-0.00389586
-0.0186828
-0.0342272
-0.00534969
0.00527306
-0.0240731
0.00551375
0.00690669
-0.00440063
-0.00733079
0.0023562
-0.00652872
0.00316652
0.00270401
-0.0226895
-0.00840064
0.0278672
0.00471721
0.00472219
0.00111715
-0.00406129
0.00430749
0.0112137
0.00180961
-0.01365
-0.048737
-0.00408927
-0.0280077
-0.000652598
0.000896024
-0.00156771
-0.00185371
0.00436306
0.00331063
-0.00137982
-0.0049835
-0.00578628
0.00402191
0.00450042
0.000643712
0.00245318
-0.00777464
0.0107043
-0.0149671
-0.0112732
0.00622675
-0.0112056
-0.00356471
0.00410813
-0.00252886
0.0016707
-0.0955751
0.00101576
-0.0243037
-0.00990569
0.0113936
-0.0308278
-0.00497904
-0.0776225
-0.0340157
-0.00461545
0.00996068
-0.037165
-0.0819237
-0.00110771
0.00517175
0.00255474
-0.000521712
-0.000904168
-0.00276574
0.00369472
0.00466496
-0.0495957
-0.0256664
-0.0824962
-0.00299238
0.00423269
0.0100846
-0.0136848
0.00552313
-0.0481212
0.0064109
-0.0124959
-0.0145849
0.00193927
0.0107118
0.000444904
-0.0268306
-0.0042345
0.00480487
-0.00523456
-0.0274138
0.0150978
-0.021437
-0.00797991
0.000927776
-0.0359902
0.0043561
0.000920644
-0.0269232
-0.00450234
-0.00416783
-0.00395409
-0.000707948
-0.0260337
-0.00730766
0.0095847
0.00429917
0.00397316
-0.104594
0.00509509
-0.0010386
-0.00371343
-0.00333654
-0.00252215
-0.00141089
-0.000487194
-0.00496161
0.00114842
-0.0032654
0.00233806
-0.0305567
0.00213536
0.0023717
0.00288996
0.00648821
-0.041947
0.00130589
0.000423847
0.00100246
0.00389629
-0.000881334
0.00485674
-0.0125327
-0.112097
0.00154289
-0.0142941
-0.00472779
0.00947258
0.00973094
0.00133604
0.00891202
-0.0113269
-0.00820282
0.00937813
-0.123314
-0.128515
0.00140886
0.00430213
0.00473067
0.0134436
0.00997426
-0.106689
-0.00581656
-0.0366638
0.00695638
-0.00725607
0.00586175
0.0365681
0.00305966
-0.00890804
-0.0219212
-0.0948555
-0.00373386
-0.0254534
0.00523956
0.00735812
-0.014952
-0.00658022
0.00235168
0.00671012
-0.0186384
0.00103606
0.00151108
0.00743803
-0.00518882
-0.0312816
0.00376862
0.00499459
-0.00102586
-0.000171292
0.00506052
-0.0306634
-0.0103349
-0.0232047
-0.00185489
0.00161425
-0.0177112
-0.00471691
-0.00352174
0.00166537
0.00387768
-0.0090677
0.00340083
-0.0299614
-0.0110995
-0.0274583
0.00538737
0.00622548
-0.0172755
-0.0319906
0.00556772
-0.0174301
-0.011096
-0.00741034
0.00104121
-0.00334811
-0.0120392
-0.00397717
0.00298588
0.00404489
0.000261214
0.00844532
0.0054165
0.00124827
-0.0014444
0.00378792
0.00697285
0.00290571
-0.00763526
0.00797555
0.00565825
-0.136103
-0.0516507
0.0041741
-0.00854208
-0.0205934
-0.00379265
-0.00776297
0.00463252
0.00857912
-0.0872628
0.00166106
0.00541786
-0.0925666
-0.00401497
0.00430179
0.00291539
0.00200272
-0.0134072
-0.00329569
-0.00900541
-0.00318811
-0.0502044
-0.00288028
-0.0258513
-0.0048182
-0.00278946
-0.0532731
0.00352658
0.00276819
0.000559203
0.000544791
-0.110316
0.00755291
-0.0021084
-0.00354627
0.00314467
0.00248651
-0.000903431
-0.00336811
-0.0172795
0.0031866
-0.0093158
-0.117743
-0.00892733
0.00375981
-0.00282051
0.00162279
-0.0601497
0.00498636
0.00565394
0.00153612
-0.0682355
-0.0798701
0.00238892
0.00496381
0.00316064
0.0023732
0.00228193
-0.000487903
0.00329797
-0.00661528
0.000835364
-0.000135825
0.00198444
0.00301075
-0.00213242
0.00105863
0.00223883
0.011237
0.00387264
0.00551888
-0.0405159
-0.000851795
-0.00128999
-0.0200245
0.0148284
-0.00894229
0.00568752
0.00469832
0.0014436
-0.00860064
0.00172462
0.00167261
0.00393158
0.00579954
0.00125178
-0.00122495
-0.00478701
-0.0234638
-0.097262
-0.00113858
0.00676403
0.00276279
0.0112667
-0.0014757
-0.0438338
-0.020735
-0.000455897
-0.0890849
-0.00431048
-0.050518
-0.0212736
0.00466013
0.00717245
0.0045614
0.00246321
0.00483879
0.00320385
0.00404178
-0.0588727
0.00215443
0.00428108
0.00187587
0.00418426
0.00272372
-0.012855
-0.00155015
-0.00335432
-0.0113427
0.00607701
0.00322857
-0.0187051
-0.00896754
-0.000655341
-0.108407
-0.00862339
-0.00104685
0.00355753
0.00545513
0.00444283
0.00103624
0.000783943
-0.00655489
0.00251686
0.00322558
-0.0013403
-0.0209067
0.00260425
-0.00230882
-0.00309133
-0.00582172
0.00116977
-0.00122451
0.00465412
-0.000811191
-0.0568199
-0.0143125
0.00430697
0.00553625
0.00613948
0.0084182
0.00599981
0.00248775
0.000314287
-0.00863193
0.00436326
0.00401802
-0.0248762
0.00420222
0.000617942
0.00486546
-0.204175
-0.0136406
-0.0354859
-0.000834638
0.000522239
-0.0066982
-0.0429956
-0.022459
-0.00127252
0.00532898
0.00576358
0.00164182
0.0409313
0.00144161
0.00537773
0.00868345
0.00352898
-0.00474121
-0.0993063
0.00376125
-0.0205089
-0.0882653
-0.0115792
-0.000132762
-0.0265485
-0.00273396
0.00149489
0.00462495
-0.00361658
0.0175536
0.00184091
-0.00287135
0.00385175
-0.0113882
-0.0281012
-0.02059
-0.00133746
-0.0546273
0.00591133
-0.00132891
-0.00111155
-0.143857
-0.00398985
0.0021324
0.00264896
0.000871356
-0.0106137
0.00875856
0.00467305
-0.0115552
0.00382057
0.00453463
0.00460713
0.000784199
-0.0038726
-0.0341968
0.000922748
-0.0161515
0.00500396
-0.00954012
0.00130073
0.00277278
-0.0014353
-0.000947728
0.0070538
0.00461421
0.00630227
-0.0152223
0.00355835
-0.00118392
0.00202484
0.00587145
0.00413413
0.00411806
-0.00327864
0.00426854
-0.139162
0.00388547
0.00269807
-0.00647758
-0.00888318
0.00135718
-0.0241882
0.00512609
0.000746841
0.00243286
0.00556975
0.010329
-0.0136156
-0.0401314
0.0011582
0.00418509
0.00482151
0.00409913
0.000303125
0.00389689
-0.00555506
-0.003839
-0.120423
-0.0586337
-0.00154917
0.00246579
0.00556354
-0.00174212
0.00638648
0.00505098
0.00248099
-0.014419
0.00163869
-0.0333632
-0.0141904
0.000746524
0.00780443
0.00818034
-0.018308
0.000446862
0.00431539
-0.00128104
0.000541848
-0.0174154
0.00479981
0.00149788
0.00796982
0.00314683
-0.103732
0.00228571
0.00493384
0.00375712
0.00182291
0.00573138
0.00301871
0.000656901
-0.00341122
0.0017189
-0.00354393
-0.00141729
0.00179185
-0.000324344
0.00674817
-0.0228431
-0.0280467
0.000415093
0.00393035
0.00365891
-0.00788907
0.000573882
0.00375785
-0.0212272
-0.00490627
0.00287265
0.00414267
0.00212021
-0.00932279
-0.21538
0.00389033
-0.0127383
0.00267678
0.00464156
0.00262302
0.00878409
0.00562527
0.00360101
0.00185528
-0.0146143
0.00387465
0.00817325
-0.0263545
0.00572436
0.00494953
0.00402676
0.00345382
0.00391421
-0.0158128
-0.00478844
-0.000494475
0.0044708
0.000162193
0.00453253
-0.051148
0.00397944
0.00471088
0.00233698
0.00229059
0.00301588
0.00413991
0.003111
0.00315015
-0.00162208
-0.00994995
0.00340573
-0.000891716
8.00445e-05
-0.00787141
0.0080892
0.00365843
-0.00129688
0.000263713
0.00266567
0.00208465
0.0036199
0.0045534
-0.0108025
0.00350492
-0.000904365
0.00085817
-0.014972
-0.0181892
0.0066786
-0.0869802
0.000907074
-0.0326614
0.00105767
0.00516464
-0.00529006
0.00731419
0.000253551
-0.0023874
-0.0284562
-0.00145519
0.0046862
0.00245925
-0.0159941
-0.00503073
-0.0283191
-0.0219295
-0.20015
0.00914244
-0.00365767
-0.00613879
-0.0136159
0.0040603
0.00936098
0.00685262
-0.00684484
-0.0251906
-0.0113944
0.00400444
-0.076312
-0.00437485
-0.00210399
0.00459124
0.00470823
0.000307804
-0.00159644
-0.0658737
-0.0412228
0.00950459
0.00233774
0.00484405
0.00828203
-0.018482
-0.000962818
0.00310584
0.00595315
0.00393894
0.00116898
0.000674368
-0.00562099
0.0102497
0.0120371
0.00985772
-0.00361242
-0.00667354
0.00345681
-0.0063325
0.00421627
0.00485406
0.00790554
0.00145791
0.00419061
0.00259934
0.00226662
0.00423414
-0.00997214
0.00768643
0.00445254
0.00252066
0.00224509
0.0070524
-0.0126255
0.00691305
0.00247572
0.002267
0.00443716
-0.000467221
0.00630135
0.00402562
-0.0153151
0.00492854
0.00478629
0.00479132
-0.0464213
0.00214269
0.00382066
0.0050653
0.00177952
0.00468374
0.00463835
-0.0319616
-0.0957525
-0.0300082
0.00142275
0.00466511
-0.0412396
-0.000904307
0.00482149
0.00356907
-6.73447e-05
-0.00378415
-0.00131002
0.00414609
0.00455582
0.0124495
0.00696476
0.00447769
0.00509897
-0.00419939
-0.0188296
0.00368767
0.00212919
0.00320055
-0.0136365
0.00517086
-0.000813698
-0.0575858
0.00404516
0.00461636
0.00119247
0.00504989
0.00435676
0.00371212
-0.00296919
0.00287888
0.00743103
-0.00978008
0.00117387
0.00447623
-0.00764321
0.0034801
-0.00519718
-0.0109828
0.00646877
0.00203879
0.00475538
0.00387286
-0.044184
-0.0974086
-0.00313998
0.00469067
-0.00195808
0.0105896
0.00248974
0.00464952
0.00363169
0.0045723
0.00346834
-0.0117545
0.00510275
0.00247391
-0.0120555
-0.00702796
0.00460584
0.00436093
0.00727024
0.0083101
0.00353986
0.00591291
-0.00261665
-0.00116086
-0.00218576
0.00797891
-0.00101534
0.00426089
-0.0148368
0.000902414
0.00485773
0.00578735
-0.000536188
-0.0152628
-0.0013222
0.00429076
0.00464735
-0.0144876
0.00356461
0.00369364
0.00470313
-0.000195509
0.00161727
0.00376171
-0.0439981