/*--------------------------------*- C++ -*----------------------------------*\
| =========                 |                                                 |
| \\      /  F ield         | OpenFOAM: The Open Source CFD Toolbox           |
|  \\    /   O peration     | Version:  v2012                                 |
|   \\  /    A nd           | Website:  www.openfoam.com                      |
|    \\/     M anipulation  |                                                 |
\*---------------------------------------------------------------------------*/
FoamFile
{
    version     2.0;
    format      ascii;
    class       volVectorField;
    location    "900";
    object      cellDisplacement;
}
// * * * * * * * * * * * * * * * * * * * * * * * * * * * * * * * * * * * * * //

dimensions      [0 1 0 0 0 0 0];


internalField   nonuniform List<vector> 
9793
(
(0 -0.0009134 0)
(0 -6.24549e-05 0)
(0 -0.000930963 0)
(0 -0.000359685 0)
(0 -0.000719586 0)
(0 -0.00142956 0)
(0 -0.000153391 0)
(0 -0.000976516 0)
(0 -0.000907288 0)
(0 -0.000730139 0)
(0 -0.00053875 0)
(0 -0.00152767 0)
(0 -0.000325728 0)
(0 -0.000673928 0)
(0 -2.87446e-05 0)
(0 -0.000640415 0)
(0 -0.00124157 0)
(0 -0.00126043 0)
(0 -0.0010517 0)
(0 -0.000662029 0)
(0 -0.00135314 0)
(0 -0.00112251 0)
(0 -0.00123164 0)
(0 -9.10092e-06 0)
(0 -0.00154402 0)
(0 -0.000266378 0)
(0 -0.000625361 0)
(0 -0.00119284 0)
(0 -0.000736754 0)
(0 -0.000913292 0)
(0 -0.00151977 0)
(0 -0.00121918 0)
(0 -0.00163419 0)
(0 -7.14811e-05 0)
(0 -0.000751513 0)
(0 -0.00132629 0)
(0 -0.000108832 0)
(0 -0.00113737 0)
(0 -0.00117156 0)
(0 -0.000175665 0)
(0 -0.00152727 0)
(0 -5.33677e-05 0)
(0 -0.00016848 0)
(0 -0.000153475 0)
(0 -0.000134321 0)
(0 -0.000228159 0)
(0 -0.000730604 0)
(0 -0.00101555 0)
(0 -0.00165037 0)
(0 -0.000406197 0)
(0 -0.000744739 0)
(0 -0.000570321 0)
(0 -0.00139694 0)
(0 -0.00102192 0)
(0 -0.000641427 0)
(0 -0.00142734 0)
(0 -0.000795001 0)
(0 -0.000401487 0)
(0 -0.00167702 0)
(0 -0.00114003 0)
(0 -0.000116375 0)
(0 -0.00135409 0)
(0 -0.00166476 0)
(0 -0.000153176 0)
(0 -0.000649364 0)
(0 -0.0016228 0)
(0 -0.00167066 0)
(0 -0.00167095 0)
(0 -0.00153412 0)
(0 -0.000558909 0)
(0 -0.000660429 0)
(0 -5.25608e-06 0)
(0 -0.00110343 0)
(0 -0.000100008 0)
(0 -0.000756182 0)
(0 -0.00168376 0)
(0 -0.000821792 0)
(0 -3.75574e-05 0)
(0 -0.0013835 0)
(0 -0.0012522 0)
(0 -0.0016333 0)
(0 -0.0014018 0)
(0 -5.0084e-05 0)
(0 -0.0010531 0)
(0 -0.00151849 0)
(0 -0.00103029 0)
(0 -0.00127268 0)
(0 -0.000847769 0)
(0 -0.00134832 0)
(0 -0.00143551 0)
(0 -8.64489e-05 0)
(0 -0.000615743 0)
(0 -0.000861321 0)
(0 -0.00120133 0)
(0 -0.00134464 0)
(0 -0.00106844 0)
(0 -0.00141907 0)
(0 -6.2914e-05 0)
(0 -0.00084215 0)
(0 -0.000716565 0)
(0 -0.00070468 0)
(0 -0.00143803 0)
(0 -0.000863979 0)
(0 -0.000839718 0)
(0 -4.63896e-05 0)
(0 -0.00152405 0)
(0 -0.0013366 0)
(0 -0.00012854 0)
(0 -0.0013869 0)
(0 -0.00098476 0)
(0 -5.5149e-06 0)
(0 -0.00143053 0)
(0 -0.000722199 0)
(0 -0.00137472 0)
(0 -0.000588171 0)
(0 -0.000814445 0)
(0 -0.00160332 0)
(0 -0.000775167 0)
(0 -0.00142103 0)
(0 -0.00118717 0)
(0 -0.00100154 0)
(0 -2.06114e-06 0)
(0 -0.000896889 0)
(0 -0.00144135 0)
(0 -0.00100471 0)
(0 -0.00137278 0)
(0 -0.00048731 0)
(0 -0.0010449 0)
(0 -0.00140241 0)
(0 -0.000953667 0)
(0 -1.0607e-05 0)
(0 -0.000841148 0)
(0 -0.000979636 0)
(0 -0.00147724 0)
(0 -0.000907793 0)
(0 -0.000872634 0)
(0 -0.000125629 0)
(0 -0.000156298 0)
(0 -0.000703525 0)
(0 -0.000132198 0)
(0 -0.000881602 0)
(0 -0.00153176 0)
(0 -0.000248428 0)
(0 -0.000718134 0)
(0 -0.000696339 0)
(0 -0.000727676 0)
(0 -2.46902e-05 0)
(0 -0.000730183 0)
(0 -0.000836682 0)
(0 -0.000591605 0)
(0 -0.000885862 0)
(0 -1.17906e-05 0)
(0 -0.000873012 0)
(0 -0.000756558 0)
(0 -0.000816243 0)
(0 -3.85624e-06 0)
(0 -6.21652e-05 0)
(0 -0.00151711 0)
(0 -0.000712864 0)
(0 -0.000247149 0)
(0 -0.00101285 0)
(0 -0.00118377 0)
(0 -0.000562547 0)
(0 -0.00109342 0)
(0 -6.63646e-05 0)
(0 -0.00133599 0)
(0 -0.00103014 0)
(0 -0.000946813 0)
(0 -0.000604323 0)
(0 -0.00137028 0)
(0 -0.00135564 0)
(0 -0.00176312 0)
(0 -6.0798e-05 0)
(0 -0.00176561 0)
(0 -0.000988451 0)
(0 -0.00106648 0)
(0 -0.000864883 0)
(0 -3.32983e-05 0)
(0 -0.00104858 0)
(0 -0.000759112 0)
(0 -0.000273177 0)
(0 -0.000825361 0)
(0 -0.000723781 0)
(0 -0.00152961 0)
(0 -0.00170526 0)
(0 -0.00107934 0)
(0 -0.000397816 0)
(0 -0.00104975 0)
(0 -0.000921205 0)
(0 -0.000574002 0)
(0 -0.000975192 0)
(0 -0.000452721 0)
(0 -0.00166136 0)
(0 -0.00141152 0)
(0 -0.00166506 0)
(0 -0.00076585 0)
(0 -0.000927713 0)
(0 -0.00132952 0)
(0 -0.000775284 0)
(0 -0.000117288 0)
(0 -0.00091297 0)
(0 -0.00113397 0)
(0 -0.00141312 0)
(0 -0.000916172 0)
(0 -0.00088868 0)
(0 -3.56836e-05 0)
(0 -0.00134116 0)
(0 -0.000665114 0)
(0 -0.00151385 0)
(0 -0.00095165 0)
(0 -0.000796355 0)
(0 -0.001664 0)
(0 -0.00164537 0)
(0 -0.00101668 0)
(0 -0.000925564 0)
(0 -6.14165e-05 0)
(0 -0.0014029 0)
(0 -0.00171081 0)
(0 -4.45486e-05 0)
(0 -0.0016109 0)
(0 -0.000820769 0)
(0 -0.000862571 0)
(0 -0.000991065 0)
(0 -0.000421156 0)
(0 -0.00105617 0)
(0 -0.00110668 0)
(0 -0.00141568 0)
(0 -0.000803282 0)
(0 -0.000800846 0)
(0 -0.000599852 0)
(0 -1.62328e-05 0)
(0 -1.55488e-05 0)
(0 -0.000811397 0)
(0 -9.69894e-05 0)
(0 -0.000505357 0)
(0 -0.00161765 0)
(0 -0.00068888 0)
(0 -0.00129419 0)
(0 -0.00143199 0)
(0 -0.00140331 0)
(0 -0.00151826 0)
(0 -0.000699909 0)
(0 -0.00127896 0)
(0 -0.00163452 0)
(0 -0.00124189 0)
(0 -0.000829297 0)
(0 -0.000939506 0)
(0 -0.0015169 0)
(0 -0.00084926 0)
(0 -8.74679e-05 0)
(0 -0.001155 0)
(0 -0.000868571 0)
(0 -0.000609375 0)
(0 -0.000494756 0)
(0 -0.00119949 0)
(0 -0.00117697 0)
(0 -0.00132271 0)
(0 -0.000865728 0)
(0 -0.00148894 0)
(0 -0.000664184 0)
(0 -0.00106977 0)
(0 -0.00126519 0)
(0 -0.000627929 0)
(0 -6.5081e-05 0)
(0 -0.000930745 0)
(0 -2.62111e-05 0)
(0 -3.43605e-05 0)
(0 -0.00081144 0)
(0 -0.00114929 0)
(0 -0.00133612 0)
(0 -0.000676492 0)
(0 -0.000477464 0)
(0 -0.00108817 0)
(0 -0.00086233 0)
(0 -9.557e-05 0)
(0 -7.87019e-05 0)
(0 -0.000943327 0)
(0 -0.00139812 0)
(0 -0.000237306 0)
(0 -0.000479586 0)
(0 -0.00150042 0)
(0 -3.55127e-05 0)
(0 -9.70172e-05 0)
(0 -0.000177879 0)
(0 -0.000477505 0)
(0 -0.000872611 0)
(0 -0.00116493 0)
(0 -0.000912398 0)
(0 -0.000237391 0)
(0 -0.000896777 0)
(0 -0.000709209 0)
(0 -0.00161317 0)
(0 -0.00137848 0)
(0 -0.000107855 0)
(0 -1.48481e-05 0)
(0 -0.00147528 0)
(0 -0.00103818 0)
(0 -0.000904597 0)
(0 -0.000315991 0)
(0 -0.00113732 0)
(0 -0.000824198 0)
(0 -0.00170944 0)
(0 -0.00160714 0)
(0 -9.57738e-05 0)
(0 -0.000134578 0)
(0 -0.000706376 0)
(0 -0.00108668 0)
(0 -0.00101137 0)
(0 -0.00148315 0)
(0 -0.00170368 0)
(0 -0.000146327 0)
(0 -0.000690062 0)
(0 -0.00101834 0)
(0 -0.00120866 0)
(0 -0.0011039 0)
(0 -0.00141698 0)
(0 -0.00104092 0)
(0 -0.00133966 0)
(0 -0.00106959 0)
(0 -0.000936596 0)
(0 -0.00123811 0)
(0 -9.23033e-05 0)
(0 -0.000983361 0)
(0 -8.49798e-05 0)
(0 -4.06475e-05 0)
(0 -0.000281622 0)
(0 -0.00105549 0)
(0 -0.00166583 0)
(0 -0.000779886 0)
(0 -0.000511719 0)
(0 -0.000720332 0)
(0 -0.000798209 0)
(0 -0.00141798 0)
(0 -0.00150756 0)
(0 -0.000536135 0)
(0 -0.00089491 0)
(0 -0.000151366 0)
(0 -0.000909097 0)
(0 -0.000109091 0)
(0 -0.00121955 0)
(0 -0.000904558 0)
(0 -0.00107687 0)
(0 -0.00121005 0)
(0 -0.00115371 0)
(0 -0.0014069 0)
(0 -0.000628418 0)
(0 -2.84498e-05 0)
(0 -0.00112066 0)
(0 -0.000936598 0)
(0 -0.000901765 0)
(0 -0.00102122 0)
(0 -0.000981776 0)
(0 -0.00120105 0)
(0 -0.00143322 0)
(0 -0.001748 0)
(0 -0.00101443 0)
(0 -0.00128449 0)
(0 -2.98316e-05 0)
(0 -0.000687938 0)
(0 -0.000665306 0)
(0 -0.000416316 0)
(0 -0.000678444 0)
(0 -0.00113274 0)
(0 -0.00151948 0)
(0 -0.00094302 0)
(0 -0.000115713 0)
(0 -0.00107811 0)
(0 -0.00139182 0)
(0 -8.87122e-05 0)
(0 -0.00159853 0)
(0 -0.00151034 0)
(0 -0.000978368 0)
(0 -0.000970139 0)
(0 -0.000499741 0)
(0 -0.00130527 0)
(0 -0.00156962 0)
(0 -0.0010232 0)
(0 -0.00162411 0)
(0 -0.000744145 0)
(0 -4.93115e-05 0)
(0 -0.00116098 0)
(0 -0.000994988 0)
(0 -0.00172972 0)
(0 -0.000274833 0)
(0 -0.0010733 0)
(0 -4.19456e-05 0)
(0 -0.000141992 0)
(0 -0.000637685 0)
(0 -0.00100107 0)
(0 -0.00115683 0)
(0 -0.00175206 0)
(0 -0.000978801 0)
(0 -0.00042249 0)
(0 -0.00115567 0)
(0 -0.000965115 0)
(0 -0.000583818 0)
(0 -5.80342e-05 0)
(0 -0.000157849 0)
(0 -0.000900838 0)
(0 -0.000798159 0)
(0 -0.00114142 0)
(0 -0.000712952 0)
(0 -0.000870703 0)
(0 -0.00122042 0)
(0 -0.000468073 0)
(0 -0.00135081 0)
(0 -0.00131364 0)
(0 -0.00114121 0)
(0 -0.000446683 0)
(0 -0.000825071 0)
(0 -0.00107469 0)
(0 -0.000739219 0)
(0 -0.00137802 0)
(0 -0.000676854 0)
(0 -0.00124737 0)
(0 -0.00163158 0)
(0 -0.00102281 0)
(0 -0.00163034 0)
(0 -0.00137248 0)
(0 -0.00133094 0)
(0 -0.000740971 0)
(0 -0.00113095 0)
(0 -0.000240876 0)
(0 -0.00111241 0)
(0 -0.000551383 0)
(0 -0.000974852 0)
(0 -0.00149912 0)
(0 -0.00103975 0)
(0 -0.000541891 0)
(0 -0.000766359 0)
(0 -0.000236411 0)
(0 -0.00112542 0)
(0 -0.000387566 0)
(0 -0.00132525 0)
(0 -0.000705664 0)
(0 -0.00133832 0)
(0 -0.00137416 0)
(0 -0.00169031 0)
(0 -0.000106906 0)
(0 -0.00139163 0)
(0 -0.000105609 0)
(0 -0.00098873 0)
(0 -0.00169314 0)
(0 -0.00132431 0)
(0 -0.000686069 0)
(0 -0.00059505 0)
(0 -0.00137676 0)
(0 -0.00105705 0)
(0 -0.00123846 0)
(0 -0.00152243 0)
(0 -0.000602642 0)
(0 -0.00167331 0)
(0 -0.0014117 0)
(0 -0.000642485 0)
(0 -0.00128731 0)
(0 -0.00078243 0)
(0 -0.000844501 0)
(0 -4.9767e-05 0)
(0 -0.0014678 0)
(0 -0.000150645 0)
(0 -0.00160249 0)
(0 -0.000516201 0)
(0 -0.000919113 0)
(0 -0.00143054 0)
(0 -0.000912702 0)
(0 -0.000858614 0)
(0 -8.53848e-05 0)
(0 -0.00140482 0)
(0 -0.000754448 0)
(0 -0.00171904 0)
(0 -0.000881466 0)
(0 -0.00110568 0)
(0 -2.48529e-05 0)
(0 -8.62848e-05 0)
(0 -2.66141e-05 0)
(0 -0.00140586 0)
(0 -0.00130358 0)
(0 -0.00140052 0)
(0 -0.00158706 0)
(0 -0.000439421 0)
(0 -0.000209817 0)
(0 -0.00152074 0)
(0 -0.00100756 0)
(0 -0.000234551 0)
(0 -0.000612839 0)
(0 -0.00161798 0)
(0 -0.00149924 0)
(0 -0.00100674 0)
(0 -0.00166519 0)
(0 -0.00168111 0)
(0 -5.10434e-05 0)
(0 -4.76779e-05 0)
(0 -0.00107505 0)
(0 -0.00151104 0)
(0 -0.00113188 0)
(0 -0.000125584 0)
(0 -0.00014388 0)
(0 -0.00135459 0)
(0 -0.0013455 0)
(0 -0.00122438 0)
(0 -1.21412e-05 0)
(0 -0.000625109 0)
(0 -6.53559e-05 0)
(0 -0.00169599 0)
(0 -0.00101498 0)
(0 -0.000776761 0)
(0 -0.001364 0)
(0 -0.00138946 0)
(0 -0.00144228 0)
(0 -0.00150099 0)
(0 -0.00148177 0)
(0 -0.00053223 0)
(0 -0.00127485 0)
(0 -0.000594973 0)
(0 -0.000904168 0)
(0 -0.000660393 0)
(0 -0.00158683 0)
(0 -0.00106882 0)
(0 -0.000767822 0)
(0 -0.000401523 0)
(0 -0.00150072 0)
(0 -0.000941008 0)
(0 -0.00139848 0)
(0 -0.000410554 0)
(0 -0.0011965 0)
(0 -0.000907196 0)
(0 -0.000340465 0)
(0 -0.00117011 0)
(0 -0.00162253 0)
(0 -0.000488642 0)
(0 -0.00102359 0)
(0 -0.0013898 0)
(0 -0.00137897 0)
(0 -0.00129143 0)
(0 -0.000990687 0)
(0 -1.91945e-05 0)
(0 -0.000297307 0)
(0 -0.00144725 0)
(0 -0.000414568 0)
(0 -0.00049897 0)
(0 -0.00156544 0)
(0 -0.000779815 0)
(0 -0.00120966 0)
(0 -0.000908726 0)
(0 -0.00126895 0)
(0 -1.74107e-05 0)
(0 -0.000530388 0)
(0 -0.00172154 0)
(0 -0.0008719 0)
(0 -0.000285696 0)
(0 -4.82666e-05 0)
(0 -0.00138857 0)
(0 -0.000902073 0)
(0 -0.00173632 0)
(0 -0.00104893 0)
(0 -0.00125352 0)
(0 -0.00124453 0)
(0 -0.00012272 0)
(0 -0.00153487 0)
(0 -0.00167116 0)
(0 -0.00164418 0)
(0 -0.000612781 0)
(0 -0.000653511 0)
(0 -0.0014976 0)
(0 -0.000861643 0)
(0 -4.97167e-05 0)
(0 -0.000640089 0)
(0 -0.00154965 0)
(0 -0.00102607 0)
(0 -0.00105319 0)
(0 -0.00170515 0)
(0 -0.00035241 0)
(0 -0.00090185 0)
(0 -0.000118398 0)
(0 -0.000829429 0)
(0 -0.00126534 0)
(0 -0.000301448 0)
(0 -0.000390754 0)
(0 -8.66039e-05 0)
(0 -0.000865501 0)
(0 -0.00095931 0)
(0 -0.000748917 0)
(0 -0.00110269 0)
(0 -0.000847357 0)
(0 -0.00118915 0)
(0 -0.00117895 0)
(0 -0.00102695 0)
(0 -0.000463491 0)
(0 -0.00147926 0)
(0 -0.00130494 0)
(0 -0.00042661 0)
(0 -0.000129124 0)
(0 -0.0011011 0)
(0 -0.000880572 0)
(0 -0.000889234 0)
(0 -0.00118654 0)
(0 -0.00156363 0)
(0 -0.000885273 0)
(0 -0.000801559 0)
(0 -0.000944634 0)
(0 -0.000773544 0)
(0 -0.0014145 0)
(0 -0.00112922 0)
(0 -0.000881576 0)
(0 -0.00121067 0)
(0 -0.00111921 0)
(0 -0.00177931 0)
(0 -0.00113327 0)
(0 -0.00111122 0)
(0 -0.000732747 0)
(0 -0.000155122 0)
(0 -0.000867547 0)
(0 -0.000958155 0)
(0 -0.00151039 0)
(0 -0.00153195 0)
(0 -0.00124539 0)
(0 -0.00102269 0)
(0 -5.9031e-06 0)
(0 -0.00131571 0)
(0 -0.00101698 0)
(0 -0.000468706 0)
(0 -0.00120505 0)
(0 -0.00015567 0)
(0 -0.000838902 0)
(0 -7.0944e-05 0)
(0 -0.00098185 0)
(0 -0.00121592 0)
(0 -0.000794399 0)
(0 -0.000634971 0)
(0 -9.58419e-05 0)
(0 -0.00113213 0)
(0 -0.0008603 0)
(0 -0.000848412 0)
(0 -0.000348304 0)
(0 -5.27823e-05 0)
(0 -0.000365375 0)
(0 -0.00118043 0)
(0 -0.00112639 0)
(0 -0.000381014 0)
(0 -0.00077459 0)
(0 -0.000157694 0)
(0 -0.00010296 0)
(0 -0.000895555 0)
(0 -0.0017062 0)
(0 -0.000648709 0)
(0 -0.00043743 0)
(0 -0.000523099 0)
(0 -5.7548e-05 0)
(0 -0.00143901 0)
(0 -0.000300146 0)
(0 -0.00154251 0)
(0 -0.000123098 0)
(0 -2.62649e-05 0)
(0 -0.000388138 0)
(0 -0.000960273 0)
(0 -0.000510685 0)
(0 -0.000636299 0)
(0 -0.00157199 0)
(0 -0.00161563 0)
(0 -0.00142347 0)
(0 -0.000927049 0)
(0 -0.00146951 0)
(0 -0.00119175 0)
(0 -0.000407862 0)
(0 -4.75326e-05 0)
(0 -0.00169699 0)
(0 -0.000740039 0)
(0 -0.000879055 0)
(0 -0.000405905 0)
(0 -0.000914967 0)
(0 -0.000885775 0)
(0 -0.00138323 0)
(0 -0.000472409 0)
(0 -0.00173038 0)
(0 -0.00099609 0)
(0 -0.000643946 0)
(0 -0.00110459 0)
(0 -0.00100144 0)
(0 -0.00113925 0)
(0 -0.000285034 0)
(0 -0.00156646 0)
(0 -0.00134029 0)
(0 -0.00099121 0)
(0 -0.000631389 0)
(0 -0.00115122 0)
(0 -0.00148911 0)
(0 -0.000527822 0)
(0 -0.000340443 0)
(0 -0.00102787 0)
(0 -0.000893298 0)
(0 -0.00119949 0)
(0 -0.00155515 0)
(0 -0.000874136 0)
(0 -0.00161285 0)
(0 -0.000831172 0)
(0 -0.00128838 0)
(0 -0.00144833 0)
(0 -0.00171787 0)
(0 -0.000687622 0)
(0 -0.000513375 0)
(0 -8.70433e-05 0)
(0 -0.00136305 0)
(0 -0.000380662 0)
(0 -0.00141951 0)
(0 -0.00037883 0)
(0 -0.00146191 0)
(0 -0.000737075 0)
(0 -0.00107805 0)
(0 -0.000573643 0)
(0 -0.000989696 0)
(0 -0.000598716 0)
(0 -0.00177556 0)
(0 -0.001016 0)
(0 -0.00173472 0)
(0 -0.0014396 0)
(0 -0.000396765 0)
(0 -0.000390022 0)
(0 -5.47485e-05 0)
(0 -0.00103091 0)
(0 -0.00127086 0)
(0 -0.00155858 0)
(0 -0.000288199 0)
(0 -0.000842006 0)
(0 -0.00093284 0)
(0 -0.00101544 0)
(0 -0.00101335 0)
(0 -0.00128445 0)
(0 -0.000342989 0)
(0 -0.000197157 0)
(0 -0.000851148 0)
(0 -0.000679223 0)
(0 -0.00132955 0)
(0 -0.00130665 0)
(0 -0.000328747 0)
(0 -0.000957642 0)
(0 -0.000448999 0)
(0 -0.00158384 0)
(0 -0.00118322 0)
(0 -9.92329e-05 0)
(0 -0.00142995 0)
(0 -0.000927426 0)
(0 -0.000419145 0)
(0 -0.000844772 0)
(0 -0.00149754 0)
(0 -0.00173296 0)
(0 -0.00160722 0)
(0 -0.001299 0)
(0 -0.000119497 0)
(0 -0.00108488 0)
(0 -0.00162781 0)
(0 -0.000757085 0)
(0 -0.000763325 0)
(0 -0.000879551 0)
(0 -0.000346058 0)
(0 -0.00171309 0)
(0 -0.000513852 0)
(0 -0.0017318 0)
(0 -0.00072355 0)
(0 -0.00145785 0)
(0 -0.000978864 0)
(0 -0.000844411 0)
(0 -0.00107982 0)
(0 -0.000977515 0)
(0 -0.000841713 0)
(0 -0.000880974 0)
(0 -0.000875611 0)
(0 -0.000369496 0)
(0 -0.000420909 0)
(0 -0.00148263 0)
(0 -0.000857896 0)
(0 -0.0017732 0)
(0 -0.00106133 0)
(0 -0.00174261 0)
(0 -0.000919671 0)
(0 -0.000960565 0)
(0 -0.00123149 0)
(0 -0.00141613 0)
(0 -0.0011212 0)
(0 -0.000341181 0)
(0 -0.000804553 0)
(0 -0.00152772 0)
(0 -0.00172278 0)
(0 -0.00121406 0)
(0 -0.000859939 0)
(0 -0.00113952 0)
(0 -0.00112745 0)
(0 -0.000995149 0)
(0 -0.000297784 0)
(0 -5.77805e-05 0)
(0 -0.000411521 0)
(0 -0.00104487 0)
(0 -0.00061311 0)
(0 -0.00130512 0)
(0 -0.000142883 0)
(0 -8.59373e-05 0)
(0 -0.00034748 0)
(0 -0.000622354 0)
(0 -0.000561168 0)
(0 -0.00106132 0)
(0 -0.000114746 0)
(0 -9.82857e-06 0)
(0 -0.000362011 0)
(0 -0.000857719 0)
(0 -7.92304e-05 0)
(0 -0.000811309 0)
(0 -0.00111229 0)
(0 -0.000880198 0)
(0 -0.000842048 0)
(0 -0.000602326 0)
(0 -0.00138651 0)
(0 -0.000882817 0)
(0 -0.000858509 0)
(0 -0.000124443 0)
(0 -0.00172654 0)
(0 -6.99499e-05 0)
(0 -0.00151239 0)
(0 -0.00118888 0)
(0 -0.00128025 0)
(0 -0.000395094 0)
(0 -0.000766344 0)
(0 -0.000860661 0)
(0 -0.00175035 0)
(0 -0.000502949 0)
(0 -0.00172633 0)
(0 -0.00127999 0)
(0 -0.000858882 0)
(0 -0.000132166 0)
(0 -0.000386774 0)
(0 -0.00102231 0)
(0 -0.00104335 0)
(0 -0.000878352 0)
(0 -0.000659455 0)
(0 -0.00109247 0)
(0 -0.000817362 0)
(0 -0.001541 0)
(0 -0.00137249 0)
(0 -9.89073e-05 0)
(0 -0.00105992 0)
(0 -0.00106078 0)
(0 -0.000836107 0)
(0 -0.00111073 0)
(0 -6.04538e-05 0)
(0 -0.00118821 0)
(0 -0.000410978 0)
(0 -0.00155375 0)
(0 -0.000534258 0)
(0 -5.08023e-05 0)
(0 -0.000336586 0)
(0 -0.000866278 0)
(0 -0.000845841 0)
(0 -0.000661849 0)
(0 -0.00136808 0)
(0 -0.00156529 0)
(0 -0.000396453 0)
(0 -0.000377207 0)
(0 -0.000918503 0)
(0 -0.001218 0)
(0 -0.000500767 0)
(0 -0.000119683 0)
(0 -0.000776854 0)
(0 -0.000974434 0)
(0 -0.000375559 0)
(0 -0.00160236 0)
(0 -0.000360625 0)
(0 -0.00109125 0)
(0 -0.000810982 0)
(0 -0.000792037 0)
(0 -0.00132243 0)
(0 -0.00176091 0)
(0 -0.000623818 0)
(0 -0.00143532 0)
(0 -0.00146439 0)
(0 -0.000310121 0)
(0 -0.000116936 0)
(0 -0.00166417 0)
(0 -0.00120002 0)
(0 -0.00100906 0)
(0 -0.00105041 0)
(0 -7.90428e-05 0)
(0 -0.00115848 0)
(0 -0.000353086 0)
(0 -0.00131646 0)
(0 -0.00161164 0)
(0 -0.000354909 0)
(0 -0.00106279 0)
(0 -0.00119599 0)
(0 -0.000514424 0)
(0 -0.00141125 0)
(0 -0.00142834 0)
(0 -0.000704879 0)
(0 -0.000369439 0)
(0 -0.000371179 0)
(0 -0.000681081 0)
(0 -0.0012322 0)
(0 -0.000798617 0)
(0 -0.00129955 0)
(0 -0.000530456 0)
(0 -0.000819747 0)
(0 -0.00131349 0)
(0 -0.000340404 0)
(0 -1.24903e-05 0)
(0 -1.09245e-05 0)
(0 -0.000587129 0)
(0 -0.00139555 0)
(0 -0.00101751 0)
(0 -0.000661208 0)
(0 -0.00147916 0)
(0 -0.000809037 0)
(0 -0.00105396 0)
(0 -0.0014514 0)
(0 -0.00126924 0)
(0 -0.00143173 0)
(0 -0.000853576 0)
(0 -0.000679688 0)
(0 -0.00111509 0)
(0 -0.00116891 0)
(0 -0.00131445 0)
(0 -0.000756178 0)
(0 -0.000310548 0)
(0 -0.00103742 0)
(0 -0.00156251 0)
(0 -0.00095923 0)
(0 -6.22805e-05 0)
(0 -0.00053158 0)
(0 -0.000728337 0)
(0 -0.000994494 0)
(0 -0.000195369 0)
(0 -0.000752081 0)
(0 -0.000890732 0)
(0 -0.00151598 0)
(0 -0.00106483 0)
(0 -0.000792447 0)
(0 -0.00121292 0)
(0 -0.000809236 0)
(0 -0.00107058 0)
(0 -0.000482397 0)
(0 -0.0012364 0)
(0 -0.000629417 0)
(0 -0.00171295 0)
(0 -0.000551779 0)
(0 -0.00121898 0)
(0 -0.000878433 0)
(0 -0.0011039 0)
(0 -0.00165242 0)
(0 -0.0010883 0)
(0 -0.000382678 0)
(0 -0.00104645 0)
(0 -0.00088235 0)
(0 -0.0014201 0)
(0 -0.000127691 0)
(0 -0.00171935 0)
(0 -0.000848112 0)
(0 -0.000715134 0)
(0 -0.00173861 0)
(0 -0.000861665 0)
(0 -0.00159084 0)
(0 -0.00105613 0)
(0 -0.000829087 0)
(0 -0.00085298 0)
(0 -0.000785207 0)
(0 -0.000429529 0)
(0 -0.000937377 0)
(0 -0.0013345 0)
(0 -0.00146902 0)
(0 -0.000445357 0)
(0 -0.000978634 0)
(0 -0.000205077 0)
(0 -0.000354697 0)
(0 -0.00175434 0)
(0 -0.000987635 0)
(0 -0.00108499 0)
(0 -0.000823705 0)
(0 -2.05937e-05 0)
(0 -0.000327888 0)
(0 -0.00090695 0)
(0 -0.00137657 0)
(0 -0.000659991 0)
(0 -0.000372136 0)
(0 -0.00176796 0)
(0 -0.000991061 0)
(0 -0.00126808 0)
(0 -0.000341286 0)
(0 -0.0011744 0)
(0 -0.00118818 0)
(0 -0.000723303 0)
(0 -0.00123099 0)
(0 -0.00115719 0)
(0 -0.0015316 0)
(0 -0.00177487 0)
(0 -0.000932873 0)
(0 -6.81584e-06 0)
(0 -0.00119783 0)
(0 -0.00172642 0)
(0 -0.000999176 0)
(0 -0.00155831 0)
(0 -0.00107523 0)
(0 -0.00102977 0)
(0 -0.000501127 0)
(0 -0.00104777 0)
(0 -0.00102719 0)
(0 -0.00115313 0)
(0 -0.00100752 0)
(0 -0.00163395 0)
(0 -0.00152482 0)
(0 -0.00106286 0)
(0 -0.00160039 0)
(0 -0.000779395 0)
(0 -0.000746549 0)
(0 -0.00150511 0)
(0 -0.00114798 0)
(0 -0.00122423 0)
(0 -0.000823743 0)
(0 -0.00142433 0)
(0 -0.000128781 0)
(0 -0.000998998 0)
(0 -0.00153233 0)
(0 -0.000356111 0)
(0 -0.000647133 0)
(0 -0.000810538 0)
(0 -0.000489517 0)
(0 -0.0010465 0)
(0 -0.000642487 0)
(0 -0.00174301 0)
(0 -0.00105925 0)
(0 -0.00177817 0)
(0 -0.00157352 0)
(0 -0.000289044 0)
(0 -0.00174791 0)
(0 -0.00153667 0)
(0 -0.00064956 0)
(0 -0.0014584 0)
(0 -0.000648014 0)
(0 -0.0017234 0)
(0 -0.00104073 0)
(0 -0.000696146 0)
(0 -0.00119344 0)
(0 -0.00166997 0)
(0 -0.000676364 0)
(0 -0.00100125 0)
(0 -0.000985509 0)
(0 -0.000941705 0)
(0 -0.000379599 0)
(0 -0.00115898 0)
(0 -0.00145359 0)
(0 -0.000136739 0)
(0 -0.00153707 0)
(0 -0.00089677 0)
(0 -0.00118826 0)
(0 -0.000100933 0)
(0 -0.000854372 0)
(0 -0.000428492 0)
(0 -0.00159526 0)
(0 -0.00122638 0)
(0 -0.000113819 0)
(0 -0.000515807 0)
(0 -0.00137025 0)
(0 -0.00176349 0)
(0 -0.000826867 0)
(0 -0.000540292 0)
(0 -0.000999659 0)
(0 -0.000829428 0)
(0 -0.000445609 0)
(0 -0.00123157 0)
(0 -0.000206519 0)
(0 -0.00123612 0)
(0 -0.000977324 0)
(0 -0.000473664 0)
(0 -0.000764828 0)
(0 -0.000272144 0)
(0 -0.000417193 0)
(0 -0.000898166 0)
(0 -3.0846e-05 0)
(0 -0.00137388 0)
(0 -0.000749577 0)
(0 -0.0012435 0)
(0 -0.00105837 0)
(0 -0.00124369 0)
(0 -0.000993399 0)
(0 -0.00125506 0)
(0 -0.00160602 0)
(0 -0.00150095 0)
(0 -0.00149432 0)
(0 -0.00126552 0)
(0 -0.000884949 0)
(0 -0.000271926 0)
(0 -0.000930018 0)
(0 -0.000274985 0)
(0 -0.000270672 0)
(0 -0.00045383 0)
(0 -0.00109636 0)
(0 -0.00154921 0)
(0 -0.00106396 0)
(0 -0.000267656 0)
(0 -0.00103279 0)
(0 -0.00163619 0)
(0 -2.85698e-05 0)
(0 -0.000917205 0)
(0 -0.0004739 0)
(0 -0.00136134 0)
(0 -0.00173652 0)
(0 -0.0002785 0)
(0 -0.000936412 0)
(0 -0.00103511 0)
(0 -0.00150131 0)
(0 -0.000946732 0)
(0 -0.00142496 0)
(0 -0.00108479 0)
(0 -0.000938637 0)
(0 -0.000893974 0)
(0 -0.000895922 0)
(0 -0.000356662 0)
(0 -1.53763e-05 0)
(0 -0.000700749 0)
(0 -0.00164256 0)
(0 -0.000280841 0)
(0 -0.000808264 0)
(0 -0.000280505 0)
(0 -0.000680269 0)
(0 -0.000840885 0)
(0 -0.00118076 0)
(0 -0.000226899 0)
(0 -0.000650663 0)
(0 -0.00166786 0)
(0 -0.00080528 0)
(0 -0.000630094 0)
(0 -0.000872182 0)
(0 -0.000837853 0)
(0 -0.000766413 0)
(0 -0.00154041 0)
(0 -0.000118134 0)
(0 -0.000149471 0)
(0 -0.000814303 0)
(0 -0.00146101 0)
(0 -0.000952314 0)
(0 -0.00043537 0)
(0 -0.0012542 0)
(0 -0.00177564 0)
(0 -5.21131e-05 0)
(0 -0.00078893 0)
(0 -0.000965005 0)
(0 -0.00103087 0)
(0 -0.00100039 0)
(0 -0.00140769 0)
(0 -0.00173046 0)
(0 -0.000855425 0)
(0 -0.00144694 0)
(0 -0.000508094 0)
(0 -0.000784608 0)
(0 -0.000783198 0)
(0 -0.000330647 0)
(0 -0.000637421 0)
(0 -0.000298995 0)
(0 -0.000270797 0)
(0 -5.97576e-05 0)
(0 -0.000982286 0)
(0 -0.000266459 0)
(0 -0.000786544 0)
(0 -0.000775772 0)
(0 -0.000637606 0)
(0 -0.000833888 0)
(0 -0.000261099 0)
(0 -0.00056231 0)
(0 -0.000839108 0)
(0 -0.000270043 0)
(0 -0.00164545 0)
(0 -0.00125951 0)
(0 -0.000110615 0)
(0 -0.000680202 0)
(0 -0.000737215 0)
(0 -0.000310496 0)
(0 -0.000376566 0)
(0 -0.000542158 0)
(0 -0.000850768 0)
(0 -0.000363787 0)
(0 -0.000923563 0)
(0 -0.000683149 0)
(0 -0.00097303 0)
(0 -0.000989511 0)
(0 -0.00169134 0)
(0 -0.000606317 0)
(0 -0.00145977 0)
(0 -0.000652425 0)
(0 -0.000342357 0)
(0 -0.000387239 0)
(0 -0.000648623 0)
(0 -0.000279535 0)
(0 -0.00099428 0)
(0 -0.000412268 0)
(0 -0.00172898 0)
(0 -0.00144489 0)
(0 -0.00114824 0)
(0 -0.00121019 0)
(0 -0.00072806 0)
(0 -0.000508344 0)
(0 -0.000148677 0)
(0 -6.29267e-05 0)
(0 -0.0012411 0)
(0 -0.0012093 0)
(0 -6.63565e-05 0)
(0 -0.00140706 0)
(0 -0.00129077 0)
(0 -0.000890107 0)
(0 -0.000346282 0)
(0 -0.00120956 0)
(0 -0.00131109 0)
(0 -0.000278974 0)
(0 -0.00110331 0)
(0 -0.00177746 0)
(0 -0.00147523 0)
(0 -0.000276533 0)
(0 -0.000312947 0)
(0 -0.000299584 0)
(0 -0.0016944 0)
(0 -0.000766114 0)
(0 -0.00114401 0)
(0 -0.000327827 0)
(0 -0.000891956 0)
(0 -0.000817382 0)
(0 -0.00105106 0)
(0 -0.000749153 0)
(0 -0.000903901 0)
(0 -0.000963334 0)
(0 -0.000717929 0)
(0 -0.000714598 0)
(0 -0.000778651 0)
(0 -0.000399039 0)
(0 -0.000976646 0)
(0 -1.85029e-05 0)
(0 -0.000872275 0)
(0 -0.000253921 0)
(0 -0.00126002 0)
(0 -0.000980495 0)
(0 -0.00118942 0)
(0 -0.000659474 0)
(0 -0.00146851 0)
(0 -3.14902e-05 0)
(0 -0.000873394 0)
(0 -0.00100929 0)
(0 -0.000636263 0)
(0 -0.000958263 0)
(0 -0.00058273 0)
(0 -0.00174608 0)
(0 -0.00083024 0)
(0 -0.0007958 0)
(0 -0.00145057 0)
(0 -0.000608329 0)
(0 -0.000275021 0)
(0 -0.000632346 0)
(0 -0.00110211 0)
(0 -0.00066029 0)
(0 -0.000957793 0)
(0 -0.000416141 0)
(0 -0.00126653 0)
(0 -0.000776255 0)
(0 -0.00141422 0)
(0 -0.000119042 0)
(0 -0.00085005 0)
(0 -0.000650919 0)
(0 -0.00117545 0)
(0 -0.00170805 0)
(0 -0.000384425 0)
(0 -0.00157713 0)
(0 -0.000331954 0)
(0 -0.00173208 0)
(0 -0.000954831 0)
(0 -0.000863938 0)
(0 -0.00148116 0)
(0 -0.000746476 0)
(0 -0.00142408 0)
(0 -0.000349527 0)
(0 -0.000438542 0)
(0 -0.000301049 0)
(0 -0.000837221 0)
(0 -0.00089461 0)
(0 -0.000435049 0)
(0 -0.000348781 0)
(0 -0.00067 0)
(0 -0.000316346 0)
(0 -0.000900492 0)
(0 -0.000118737 0)
(0 -0.000857375 0)
(0 -0.00121058 0)
(0 -0.000553024 0)
(0 -0.0015181 0)
(0 -0.000421607 0)
(0 -0.000573169 0)
(0 -0.000271813 0)
(0 -0.000285998 0)
(0 -0.0016628 0)
(0 -0.000953998 0)
(0 -0.00074093 0)
(0 -0.000924064 0)
(0 -0.000366624 0)
(0 -0.00106691 0)
(0 -0.000947019 0)
(0 -0.00172732 0)
(0 -0.000934643 0)
(0 -0.00135661 0)
(0 -0.0015637 0)
(0 -6.12182e-05 0)
(0 -0.000854885 0)
(0 -0.000936449 0)
(0 -0.00168344 0)
(0 -0.000860048 0)
(0 -0.0015857 0)
(0 -0.00070102 0)
(0 -0.00101374 0)
(0 -0.000926731 0)
(0 -0.00155593 0)
(0 -0.00119933 0)
(0 -0.000396354 0)
(0 -0.00150521 0)
(0 -5.94537e-05 0)
(0 -0.0010677 0)
(0 -0.000642696 0)
(0 -0.000749673 0)
(0 -0.0011066 0)
(0 -0.000748359 0)
(0 -0.000874826 0)
(0 -0.000750683 0)
(0 -0.000600213 0)
(0 -0.000731158 0)
(0 -6.49954e-05 0)
(0 -0.000876127 0)
(0 -0.00151016 0)
(0 -0.000950903 0)
(0 -0.000878489 0)
(0 -0.000557812 0)
(0 -0.000904419 0)
(0 -0.000600072 0)
(0 -0.000722043 0)
(0 -0.00062919 0)
(0 -0.000897887 0)
(0 -0.000912196 0)
(0 -0.000487102 0)
(0 -0.000972653 0)
(0 -0.000859775 0)
(0 -0.000730815 0)
(0 -0.000408369 0)
(0 -0.000361925 0)
(0 -0.000668098 0)
(0 -6.26026e-05 0)
(0 -0.00086268 0)
(0 -0.000845532 0)
(0 -0.000953166 0)
(0 -0.00162815 0)
(0 -5.05484e-05 0)
(0 -0.000875016 0)
(0 -0.00101312 0)
(0 -0.00140504 0)
(0 -0.000929065 0)
(0 -0.000955342 0)
(0 -0.000835561 0)
(0 -0.000343728 0)
(0 -0.000626 0)
(0 -0.00060581 0)
(0 -0.00151883 0)
(0 -0.000871706 0)
(0 -0.000759325 0)
(0 -0.000717774 0)
(0 -0.000644528 0)
(0 -0.00116944 0)
(0 -0.000266976 0)
(0 -0.0007325 0)
(0 -0.000956694 0)
(0 -0.000962428 0)
(0 -0.000799354 0)
(0 -0.000834346 0)
(0 -0.00124579 0)
(0 -0.00106073 0)
(0 -0.00102408 0)
(0 -0.000960068 0)
(0 -0.00117349 0)
(0 -3.00031e-05 0)
(0 -0.000464587 0)
(0 -0.000295437 0)
(0 -0.000526484 0)
(0 -6.52905e-05 0)
(0 -0.000768168 0)
(0 -0.000641735 0)
(0 -0.000758582 0)
(0 -0.00084979 0)
(0 -0.000839776 0)
(0 -0.000818287 0)
(0 -0.000946667 0)
(0 -0.00104214 0)
(0 -0.000956537 0)
(0 -0.00119928 0)
(0 -0.000680119 0)
(0 -0.000640863 0)
(0 -0.000963962 0)
(0 -9.48936e-05 0)
(0 -0.00123137 0)
(0 -3.01309e-05 0)
(0 -0.00119397 0)
(0 -0.00104687 0)
(0 -0.000923372 0)
(0 -0.000359892 0)
(0 -0.000759465 0)
(0 -0.00107251 0)
(0 -0.00104651 0)
(0 -0.000515582 0)
(0 -0.000916013 0)
(0 -0.000382838 0)
(0 -0.000875488 0)
(0 -0.00101102 0)
(0 -2.15586e-05 0)
(0 -0.000407305 0)
(0 -0.00087394 0)
(0 -0.000615339 0)
(0 -0.000433146 0)
(0 -0.00113395 0)
(0 -0.0009258 0)
(0 -0.000940008 0)
(0 -0.000843858 0)
(0 -0.000653264 0)
(0 -0.000120816 0)
(0 -0.000766945 0)
(0 -0.0016814 0)
(0 -0.000941735 0)
(0 -0.00105141 0)
(0 -0.000726482 0)
(0 -0.000871759 0)
(0 -0.000509128 0)
(0 -0.00114066 0)
(0 -0.000754365 0)
(0 -0.00110952 0)
(0 -0.000753482 0)
(0 -0.000631811 0)
(0 -0.000799524 0)
(0 -6.04598e-05 0)
(0 -0.000528065 0)
(0 -0.000971703 0)
(0 -0.00178343 0)
(0 -0.00155551 0)
(0 -0.000667796 0)
(0 -0.00112007 0)
(0 -0.000716398 0)
(0 -0.00108014 0)
(0 -0.000150275 0)
(0 -0.000839052 0)
(0 -0.000970923 0)
(0 -0.00105759 0)
(0 -0.000123436 0)
(0 -0.00104913 0)
(0 -0.00102788 0)
(0 -0.000442772 0)
(0 -0.00106589 0)
(0 -0.00100443 0)
(0 -0.00116927 0)
(0 -0.00033824 0)
(0 -0.00173698 0)
(0 -0.000507848 0)
(0 -0.000606065 0)
(0 -0.000976622 0)
(0 -0.000862942 0)
(0 -0.00115592 0)
(0 -0.00127213 0)
(0 -0.000782926 0)
(0 -0.000656851 0)
(0 -0.00172161 0)
(0 -0.00103376 0)
(0 -0.000556765 0)
(0 -0.0011511 0)
(0 -0.00109542 0)
(0 -0.0010974 0)
(0 -0.000684395 0)
(0 -0.00104547 0)
(0 -0.000842716 0)
(0 -0.000911272 0)
(0 -0.000790042 0)
(0 -0.00156558 0)
(0 -0.00144692 0)
(0 -0.000776825 0)
(0 -0.000677623 0)
(0 -0.000364981 0)
(0 -0.000887715 0)
(0 -0.000777941 0)
(0 -0.000961848 0)
(0 -0.00103521 0)
(0 -0.000754924 0)
(0 -0.00123173 0)
(0 -0.00171974 0)
(0 -0.00107043 0)
(0 -0.00109226 0)
(0 -0.000949367 0)
(0 -6.07458e-05 0)
(0 -0.000802753 0)
(0 -0.000935228 0)
(0 -0.000782188 0)
(0 -0.000681067 0)
(0 -0.000250108 0)
(0 -0.00106794 0)
(0 -0.00152131 0)
(0 -0.000967092 0)
(0 -0.000909165 0)
(0 -0.000990041 0)
(0 -0.00101001 0)
(0 -0.0003643 0)
(0 -0.000675568 0)
(0 -0.000832294 0)
(0 -0.00101276 0)
(0 -0.00170934 0)
(0 -0.000746089 0)
(0 -0.000963223 0)
(0 -0.0012895 0)
(0 -0.000884451 0)
(0 -0.000698206 0)
(0 -0.00115336 0)
(0 -0.000704243 0)
(0 -0.00102264 0)
(0 -0.00108674 0)
(0 -0.000986294 0)
(0 -0.0012474 0)
(0 -0.00145755 0)
(0 -0.00101792 0)
(0 -0.00069636 0)
(0 -0.000934968 0)
(0 -0.000204525 0)
(0 -0.000748076 0)
(0 -0.00114198 0)
(0 -0.000344776 0)
(0 -0.00124708 0)
(0 -0.000909838 0)
(0 -0.000790198 0)
(0 -0.00119915 0)
(0 -0.00119354 0)
(0 -0.00086925 0)
(0 -0.00115326 0)
(0 -0.00130365 0)
(0 -0.00105049 0)
(0 -0.00156895 0)
(0 -0.000898243 0)
(0 -0.000933659 0)
(0 -0.000735303 0)
(0 -0.00136588 0)
(0 -0.000916371 0)
(0 -0.00122373 0)
(0 -0.00103455 0)
(0 -0.00118744 0)
(0 -0.00168311 0)
(0 -0.000947749 0)
(0 -0.000369621 0)
(0 -0.000653955 0)
(0 -0.00127882 0)
(0 -0.000423665 0)
(0 -0.00106908 0)
(0 -0.00141046 0)
(0 -0.00135136 0)
(0 -0.000327885 0)
(0 -0.00108056 0)
(0 -0.000616364 0)
(0 -0.00169619 0)
(0 -2.88501e-05 0)
(0 -0.00104771 0)
(0 -0.00124337 0)
(0 -0.00117859 0)
(0 -0.000261891 0)
(0 -0.00160944 0)
(0 -0.000956254 0)
(0 -0.000403149 0)
(0 -0.000956586 0)
(0 -0.000810723 0)
(0 -0.00105353 0)
(0 -0.000274697 0)
(0 -0.00108119 0)
(0 -0.000491844 0)
(0 -0.000960805 0)
(0 -0.000684586 0)
(0 -0.000832252 0)
(0 -0.00122326 0)
(0 -0.000805916 0)
(0 -0.00170557 0)
(0 -0.00175842 0)
(0 -0.00166832 0)
(0 -0.00108068 0)
(0 -0.000591991 0)