/*--------------------------------*- C++ -*----------------------------------*\
| =========                 |                                                 |
| \\      /  F ield         | OpenFOAM: The Open Source CFD Toolbox           |
|  \\    /   O peration     | Version:  v2012                                 |
|   \\  /    A nd           | Website:  www.openfoam.com                      |
|    \\/     M anipulation  |                                                 |
\*---------------------------------------------------------------------------*/
FoamFile
{
    version     2.0;
    format      ascii;
    class       surfaceScalarField;
    location    "900";
    object      meshPhi;
}
// * * * * * * * * * * * * * * * * * * * * * * * * * * * * * * * * * * * * * //

dimensions      [0 3 -1 0 0 0 0];
oriented        oriented;


internalField   nonuniform List<scalar> 
14516
(
-0.000561635
-0.00168483
0.00223917
-1.07328e-06
-4.12921e-05
4.16021e-05
0.001887
-0.00245667
0.000723309
-0.000989023
0.000165578
0.00335393
-0.00234502
-0.00101293
-0.00292145
0.000363881
0.00253065
0.000218128
-1.9427e-05
-0.000292462
-0.00183516
0.00161301
0.000161456
0.00255329
0.000253632
-0.00283156
0.00139075
0.0019582
0.00195572
-0.00244613
0.000486172
0.00251687
-0.000186987
-0.00233664
0.000722758
-0.000120283
-3.52715e-05
-0.000543539
0.000567727
-4.95637e-05
-3.45756e-05
-0.000528284
-1.1385e-05
0.000527294
-0.00188703
0.000637051
0.00122522
-0.000657159
-0.00125715
0.00291864
-0.000292528
-0.00263175
-0.000575002
-0.000227046
-0.00258405
0.00280351
0.000282673
-0.00236032
0.00206881
0.00134725
-0.000456879
-0.000896761
-1.50523e-05
1.50523e-05
0.00261152
-0.000354159
-0.00228962
0.000459363
0.000139487
0.000492301
4.23346e-06
-0.000508603
-4.16231e-05
-0.0013223
0.00133705
-0.00281994
0.000942801
0.00187068
0.00273065
-0.000203284
0.00251394
-0.00300459
0.000475968
0.000262626
0.00107281
0.00201044
-0.000424937
-0.00159272
-4.62553e-05
-4.43323e-05
5.94867e-05
0.00104024
-0.00319866
0.00215298
0.00297368
-0.000331046
-0.00264954
3.03065e-06
0.000141518
-0.0021269
0.0024003
0.00212106
-0.00162779
-0.000544934
-3.82439e-05
0.000192803
-0.000194058
0.00321624
-0.000720121
-0.000167289
3.47285e-05
0.000279195
-0.00048236
8.84845e-05
-2.50279e-05
0.000214285
-0.000275591
0.000279325
-0.000142143
-0.000122389
-0.00178375
8.12918e-05
-0.00087237
0.000784663
-0.000380661
-0.00250928
0.00288304
-0.000267527
-0.000809376
-0.00147039
-0.00173378
3.75794e-05
-0.00198039
0.00193908
0.00292681
-0.000703186
-0.00224206
-0.00300798
0.00309687
-0.000119759
0.000285874
-0.00179422
0.00150532
0.00283852
-0.0029329
8.69304e-05
-0.00205304
0.00216112
-0.00228158
0.000583991
0.00169486
0.00255915
9.0532e-05
-0.00265574
0.00140302
0.000682265
3.48229e-06
0.000100354
-0.000143264
0.00276682
-0.000441777
-0.00234277
0.00239653
-0.00273734
0.000335337
0.000289773
-0.000720925
0.00025681
0.00185215
0.000987048
-0.000245838
-0.00182307
0.00206034
0.00299285
-0.000604199
-0.00259773
0.00289033
-0.000298736
0.000338866
0.00217004
-0.000156193
0.00210781
-0.00179412
0.00207662
4.2053e-06
1.66336e-13
-4.85714e-06
0.0025664
-0.000470257
-0.00214211
-7.80895e-05
6.70986e-05
1.05828e-05
0.000672791
-0.00214857
-5.54828e-05
0.00260817
-0.000289235
-0.00216906
0.00240454
3.72046e-05
-2.17747e-09
-3.73681e-05
-0.00167216
0.000406539
0.00124736
-0.00202456
0.000626769
0.00136816
-0.00169065
0.00143725
-0.00187835
0.000432407
0.0014208
4.57134e-05
4.00296e-07
-4.61995e-05
-1.07071e-05
-0.000875028
0.000875867
0.00295606
0.000242283
6.35978e-05
-0.000851382
0.00078001
-0.0014254
-0.000624803
5.29864e-06
-0.00231995
0.00226708
-0.00249829
0.00258796
-0.000114056
0.00202931
-0.000464243
-0.00159237
-6.05027e-05
5.87499e-05
-0.000247459
-0.00211542
0.00236065
0.000834715
-0.000679918
-0.000173222
0.00134923
-0.00109775
0.000249718
-0.000908989
0.000888433
0.00289465
-6.20587e-05
4.21876e-05
2.76092e-06
0.000237112
0.000578081
0.000127376
-0.000564903
0.000419391
-0.000480456
0.000587798
0.0020097
-0.000366146
-0.00167295
0.000923562
-0.000197212
-0.000754164
0.00069951
0.000194969
3.34047e-05
1.87839e-06
0.00315548
-0.000216101
0.00298229
-0.000412942
0.000134899
-2.29005e-06
-0.000181801
0.00242584
0.000476912
-0.000147826
-0.000677131
0.000820837
1.74546e-08
2.76428e-06
0.000104435
0.00265052
-0.00276074
0.00272349
-0.00227224
-0.000677217
0.00336032
-0.00269144
0.00190832
-0.00187435
-0.00239466
0.000285413
-0.00177482
0.001482
-0.00144356
0.00211084
-0.000331604
-0.00157156
0.00111747
0.000217182
0.000584824
-0.00073611
-2.03627e-06
4.21292e-07
5.29191e-07
0.00225421
-0.00239228
7.52857e-05
-0.000101451
-0.00284433
-0.000122643
-0.00227382
0.00238093
-0.00279403
0.00255943
-0.00210074
0.000499218
0.00159741
0.000856846
-0.000800877
-0.000269777
-0.00142166
-0.00268319
0.000660665
0.0019635
1.05277e-06
4.86127e-06
-9.18415e-06
-0.00220873
-0.00133364
-0.00139206
-0.000203431
-0.00179397
0.00197099
0.00213196
0.000568985
9.77786e-05
-0.00239544
0.00225233
0.00033492
-0.000212346
0.000185423
-0.000294359
0.000276278
0.00234204
0.000105841
-0.000117609
-1.6726e-06
1.33607e-05
0.00218243
0.00265961
-0.000261231
-0.00243224
2.32937e-05
-0.000505749
0.00038737
-0.000121294
0.000538545
-0.000431395
-0.000577243
2.2577e-05
4.32529e-05
0.000562585
-0.00061706
7.44847e-07
1.21157e-05
-1.41776e-05
0.000517032
-0.000654764
0.000994417
-0.000286552
-0.000732595
0.00187189
-0.00212133
0.00205331
0.000471467
-0.00252786
-1.09152e-05
8.46988e-06
0.00265578
-0.000606249
-0.00102552
0.0024111
0.00026399
0.00070415
-1.71365e-06
-1.18523e-06
-4.63329e-06
4.19273e-05
-5.03982e-05
0.000360214
0.00226719
-0.000137822
0.000634079
-0.00041671
0.000359319
-0.00135731
-0.000524773
0.00113335
-0.00119905
3.41591e-05
0.000447804
-0.000493061
-0.000557326
0.00340153
-0.00284997
-5.92252e-05
1.8784e-05
4.01985e-05
-0.00308656
0.000491792
-0.000776145
-0.00269676
0.00247042
0.000216917
0.000515486
-3.44368e-05
0.000313023
-0.0019687
0.00162479
-0.00338587
0.000968325
0.00237007
0.00119959
-0.00237956
0.0011781
-4.27984e-05
-1.85761e-05
-0.00093493
0.00213001
-0.000254585
-0.00203622
0.00227417
0.0023566
-0.00226653
-3.16629e-05
2.50509e-05
4.6515e-06
0.000437896
-0.00210261
0.00161826
0.00297464
-0.00136239
-0.00161703
0.0020809
-0.00156715
-0.000514882
-0.00262822
0.00243757
0.000181059
-0.00063793
0.00231794
0.00254039
5.38603e-05
-0.00260007
0.00250858
1.57963e-06
-0.000501325
-0.00178322
-0.00154829
0.00194148
-5.42897e-05
0.00228857
-0.00229572
-0.000462112
0.000485503
-0.00238458
0.00211241
0.00144499
-2.20002e-05
-0.00151213
0.0025411
-0.00292877
-0.0026144
0.00271313
0.000390493
0.000725456
0.0022436
-0.00343423
0.000861104
0.0025669
-0.000176495
-0.00158505
0.00173201
-0.00265464
0.00162401
7.55212e-06
8.70989e-05
0.00251088
-0.000403575
-0.00105205
-0.00194858
0.00299514
-4.95916e-06
-0.00293579
-0.00228393
0.00172873
0.000499727
-0.000166966
-0.0022704
3.19963e-05
5.94417e-07
-0.000119857
1.89271e-05
0.000496232
-0.000528026
0.00283929
0.000301873
-0.00240601
-5.72411e-05
0.00245321
0.00012628
0.00195878
-0.002092
-0.00018354
0.00271657
0.000284763
-0.0028022
-0.00224267
-0.000787596
-0.00153726
-0.00190142
3.60386e-05
-5.40966e-05
-0.000246617
-0.00166452
0.00188368
-0.000148923
0.00268417
3.30041e-05
-2.08778e-06
0.00275369
-0.00261182
-0.000148585
-0.000143184
0.00224666
-0.00211291
-0.000946397
-0.0018552
0.00274704
-0.00217292
5.05075e-06
0.00131793
-3.46123e-05
-0.000849051
0.00234536
-0.00263226
0.00296835
-0.00091352
0.000661059
0.000227698
0.00185126
-0.00200274
0.000206416
-0.00198426
0.00177455
-7.52977e-06
-8.68411e-06
5.37021e-06
8.99413e-06
-0.000681993
-0.00195422
4.32414e-05
-9.22078e-05
3.6734e-05
-0.00220462
0.000426398
0.00177504
0.00251356
0.000234552
-0.00221083
0.00210001
2.23038e-05
0.00242945
-0.00242122
-5.82869e-05
8.97811e-05
0.00279861
0.00044599
0.00151146
-0.00198854
0.00305298
-0.000227025
3.36256e-05
-0.000568863
0.000523367
1.45171e-05
0.00217991
-0.00224551
0.00184685
0.000157071
-0.00228597
-4.67223e-06
0.00224065
-0.000908614
0.000599713
3.71272e-06
0.00155589
0.00268866
-0.00236262
-0.000693221
-0.000109977
3.82422e-05
0.000308735
0.0019128
-0.00223847
-0.002671
0.000310958
0.00235186
-0.000166974
0.00207153
0.000328586
-0.00205115
0.0017193
-0.00202224
0.00217533
-0.000205825
-0.000111161
0.00247641
-0.00237639
-0.00308751
0.00255039
0.00048977
-0.000737187
-0.00194084
-0.000189918
-0.00253862
0.00270248
-9.14438e-05
-0.000499804
0.00057717
0.000600645
0.000194982
-0.000797361
9.85145e-05
-0.00198958
0.00181906
4.57904e-05
-6.02762e-05
-3.13356e-06
-0.000606192
-0.00209931
2.03766e-05
-2.32227e-05
2.49201e-06
-2.93409e-06
2.30775e-05
-0.00183784
0.0019576
0.000992304
-0.00294587
-0.00247454
-0.000531929
0.00297422
-0.00048603
0.000383269
-4.92446e-05
-0.000378212
0.000412474
-0.00310533
0.000849791
0.00224532
-0.000329076
-0.00213051
0.0024116
3.97348e-05
2.67129e-05
-6.66046e-05
-1.66226e-05
5.62278e-05
-0.00166855
0.000120024
-0.00273993
-4.34918e-05
0.000646379
-0.000742424
-0.00177561
0.000205513
0.00244646
-9.8003e-06
3.08862e-05
-2.15834e-05
-9.9479e-05
0.000113425
-6.9099e-05
-0.000218357
0.000142217
0.00115883
-0.00214785
-0.00205904
0.00234957
-0.00321027
0.00135535
0.00184703
1.80074e-05
0.000366297
-0.000477226
0.00220736
-0.0024161
-0.00202174
-0.00126877
0.00154848
0.000378436
-0.00288557
0.00247606
0.00014214
-1.38889e-05
9.87802e-06
-8.87035e-07
0.00171316
-0.00194288
0.000166274
-0.00252486
0.00234308
-0.00150533
-0.0017113
0.00083639
-0.00099285
3.36555e-05
-0.00194205
-0.000975287
0.0029123
-0.000672706
-0.000958554
-0.001178
0.00213788
0.0015952
0.000116073
-0.00170964
0.000109785
-2.02357e-05
0.000162668
-7.48562e-06
-0.000221151
0.000171488
0.000344578
-0.000527486
-0.00100755
-0.00210661
-0.0014149
-0.000794331
0.00220234
-0.00218484
0.00212275
3.16997e-05
0.00077654
-0.00173496
-9.97113e-06
0.000382075
-0.000528888
-0.000350368
0.000510214
0.000708368
-0.00212998
0.00255962
-0.000123429
-0.00245539
-0.00285629
0.00228174
0.000551292
0.00169832
0.000299835
0.000813598
0.0023649
-0.00219214
-0.000208798
-0.00281492
0.00239615
0.000408744
-0.00266992
0.000257231
0.00207727
-0.00196703
-0.00015551
-5.95006e-05
-0.00357191
0.00160625
0.00196176
-1.83018e-06
6.80008e-05
1.86739e-05
1.31976e-05
0.00081094
0.0012688
0.000253211
-0.00259883
0.00233156
-0.00253574
0.00262037
0.000478591
-0.00192891
-0.000401205
0.000447289
-5.7776e-05
0.00219086
-0.00190947
0.00232178
0.00178049
0.000199147
0.00279686
0.00024218
0.000328646
0.00118393
-0.00151547
-0.0016524
0.00136686
0.000236709
0.000300215
-0.000307083
0.00173014
0.000747579
-4.67336e-05
-6.02829e-05
8.23727e-05
-0.0015049
0.000155338
-0.00306767
0.00187777
0.00118269
0.000654053
-0.00224489
0.00190835
0.000123883
0.00114004
-0.00151415
0.00193025
-0.00049345
0.000470393
-5.31509e-06
0.00230899
-0.00267249
0.000350215
-0.00170557
-0.00221179
-0.00242795
8.00911e-05
0.00233179
0.00190225
-0.00243954
0.000502355
0.00260259
-0.00260346
-2.47436e-05
-0.00190869
-0.00260802
0.000540887
0.00206372
0.000686688
0.00237938
-0.00265714
0.00279373
-0.000147721
-2.70772e-05
-0.00263079
0.00113681
0.0014882
0.000218337
-0.00201594
-0.00211154
0.00160767
-0.00123012
-0.00140631
0.00272801
-0.000435455
-0.0015168
0.00203067
-0.000541375
0.00105798
-0.00259916
8.29801e-05
-0.000111694
-0.000246972
0.00084513
0.00195027
-0.0002808
5.98309e-05
-2.82006e-05
-0.000123074
0.0017193
0.00297854
-0.000197196
-0.00167019
-0.00190572
0.002277
-0.000408984
-0.000554712
-0.00165311
0.00190531
-0.00224181
0.000116063
-0.00245777
0.00231987
-0.00209684
-0.000135568
0.00218027
-0.00169957
-0.00235366
0.000311848
0.00203559
3.95778e-05
0.00213184
-0.00225298
-0.00300976
0.000555295
0.00242838
0.000137508
0.00250206
-0.00011481
0.000829657
0.000291995
-0.00265789
0.00235372
-2.58954e-05
-2.08459e-05
2.87225e-05
0.000148867
1.11435e-05
-0.000500788
-0.00235305
-0.000293681
0.00241539
-0.00109533
-0.00151678
0.00145869
-0.0023574
0.000883944
0.000136195
0.00190506
3.13416e-05
0.000899242
-0.000936613
0.00266009
0.00192106
-0.00171774
-3.69359e-05
3.4257e-05
3.13585e-06
8.57791e-06
0.00016314
-0.000210712
0.00220419
-0.000500744
-0.00218183
0.00228528
-0.000106022
-0.000861074
0.000886502
0.000560599
-0.000538509
-0.000314308
0.00228695
-0.00198823
-0.00145
-0.00117481
0.00262128
0.000352359
-0.000416628
-0.0029836
0.00229899
-0.0024547
-1.42907e-05
-0.00243034
-3.73298e-05
0.000374845
0.00202541
0.000105034
-0.00213812
-0.00121118
0.00182985
-0.000627041
-0.00173116
-0.00267971
-0.000492886
-0.000976713
0.000513738
0.000182826
0.00213504
-0.00233888
-0.00227662
-0.00226633
0.00242739
0.000336974
0.00158208
0.000485626
-0.00057048
0.000603058
-0.00240873
0.00279271
-0.000390027
0.000518266
-0.000684462
-0.000938625
-0.00194136
-0.00165539
-0.00287947
0.00261173
0.000241764
-0.00269135
0.00247575
-0.00228512
0.000475753
-3.94045e-05
0.000586561
-0.00195362
0.000284155
-0.00062036
0.000239354
-0.00316104
0.0021945
-0.000294416
-2.58752e-05
0.000308367
-0.000586597
0.00120506
-0.000624518
-2.53749e-05
0.00055696
-0.00114878
-0.0015659
0.00185033
0.000151486
-0.00264302
0.0024824
1.87497e-05
0.000189001
-0.000220007
-0.000114984
0.000129771
-8.89681e-05
-0.000755113
0.00219975
-0.00256274
0.00250082
0.00155064
-0.00175723
0.00215077
-0.00193627
4.18008e-05
-0.00198264
-0.0014345
-0.00231858
-0.00332893
0.00187515
-0.00211605
-0.00089785
0.00222502
-0.00023186
-0.00199579
-0.0026731
0.00248155
-0.00335742
0.00228053
-0.00123365
-0.00113398
0.0016149
-0.00281547
0.00119081
-0.00173476
0.00231582
-8.1668e-05
0.00209891
1.12266e-07
-0.00134138
0.00156068
-0.000223955
0.000350542
-0.000502703
0.00232113
-0.00211672
-0.000231759
-0.0021988
0.00164094
-0.00258578
0.000132659
0.00135154
-0.00184001
0.00224632
-0.00236218
-0.00102522
0.000796816
8.70701e-05
-2.47129e-05
6.41294e-06
0.00276533
-0.00278062
-0.00253277
0.00190093
-0.0026541
0.00250007
-0.000780538
-0.000273141
-0.00309605
0.00207881
-4.50576e-07
2.42856e-05
-0.000123851
4.8358e-05
-3.345e-06
1.96295e-05
-2.44053e-05
0.0017611
0.00284355
-0.0012375
-0.00183893
0.000213478
0.00208035
3.40503e-05
0.000319329
-0.000366997
-0.000593761
-0.00027173
0.000277354
-0.00262724
0.00232833
0.000888753
-0.000307239
-0.000421092
0.000352888
0.000976252
0.00120858
-0.00160954
0.00172726
0.00268704
0.000271463
-0.00220879
-0.00225397
-0.000489249
-0.00253068
2.06577e-05
-6.30393e-05
-7.21788e-06
3.63139e-05
-0.0023117
-0.000356606
-0.00243631
-0.00157558
-0.00160912
0.000260634
-0.000201783
-0.000192138
0.000401819
-0.000452952
-8.36891e-05
-0.00181918
0.000203394
-0.00215805
-0.00222241
0.000150127
1.21157e-05
-0.000166172
-0.00182752
4.54729e-05
-1.11029e-05
-4.56586e-05
-0.00251454
0.00315193
-0.00165622
-0.00150249
-0.000184408
0.000682878
-0.000515907
-0.00268893
0.00303465
-0.00145453
0.0018403
0.00277461
-0.000129978
-0.00201022
4.62912e-06
0.00244106
-0.00244986
6.32481e-05
0.00215805
-0.00219308
-0.0017791
-0.000208508
0.00218457
4.29611e-05
-0.0023858
0.00198293
0.000397839
-0.00167331
0.00155114
-0.00197405
0.000494009
-0.000696366
0.00195921
0.00288305
-0.000218397
0.000965882
0.000204439
-0.00120477
0.00226371
6.643e-05
-0.00236291
-0.00173978
0.00160751
0.00220581
-0.000913442
-0.00132994
0.00112193
-0.000191125
0.00111238
-0.000352626
-0.000865709
0.000466096
0.00169157
1.61591e-05
-0.00162775
0.00130222
0.0018424
-0.000488117
0.00223081
-2.82633e-07
0.00224746
-0.00213429
-0.00015078
-0.00252074
0.00260339
-0.000110817
-9.65363e-07
-1.67301e-05
0.000605304
0.000392334
-0.00265053
-0.000228968
0.00287089
-0.00178178
-0.00033261
3.63102e-05
-0.000430029
0.00197054
-0.00204271
5.33156e-05
0.000108587
-0.00229288
0.00258296
-0.00253871
-7.63572e-05
-0.000110824
-0.000710663
0.000812623
0.000444534
-0.00311375
-1.60618e-05
-0.00126502
-0.00251962
-0.00222749
-0.00195901
0.00178661
2.55324e-05
-3.56973e-05
0.00334648
-0.00112553
0.00247338
-0.00247043
-0.000191032
0.00265985
0.000357037
-9.34649e-05
-0.000759196
0.00137689
9.12231e-05
-8.46168e-06
-8.33161e-05
-0.00213748
0.000600577
0.000305713
-0.00256786
0.000149038
-0.00184267
0.000353202
0.00205123
-0.0024063
-0.0010118
-0.00137791
0.00240439
-0.00240389
-0.00220963
0.00211935
-0.000127749
2.80503e-05
-0.00202891
0.00181882
0.000205714
0.00211742
-0.000165082
-0.000828362
4.08811e-05
0.000786185
-0.00257895
0.00230115
0.000250627
0.002435
0.000197531
-0.00264042
3.51949e-05
-0.000284304
0.000240402
-0.00070298
0.000827855
-0.000130453
5.50343e-05
-0.000200251
-0.00019878
0.000235499
-0.00196344
0.000352879
0.0016088
-2.91763e-05
0.000290046
-0.00027061
6.47258e-05
-7.96268e-05
-2.01747e-06
-0.00219036
0.00213763
4.29547e-05
-0.00152709
-0.00111179
0.00263019
-0.0018114
-0.00196914
0.00146407
-0.00216078
3.14545e-05
0.00206888
0.00239299
0.000159637
0.00249015
-0.000128617
0.00222001
-0.00251749
0.00111079
-0.000651803
-0.000529347
-0.00157136
0.00022602
0.00314566
-0.0019308
-0.00121781
0.000763547
0.000112748
-0.000156628
-0.00176247
-0.00134108
0.00197828
-0.0023083
0.00220062
-0.00239648
-0.000348277
0.00272367
-0.00232064
0.00241533
0.00120456
-0.00233782
-0.0028515
0.00210228
-0.00246761
0.000933757
-0.000900075
0.000942039
-8.63298e-05
-0.00181001
0.00247022
0.000240558
-0.00284487
0.00209959
0.00247763
6.02999e-05
-0.0016022
-0.00107644
0.00261528
-0.000360864
-0.00225722
-0.000223221
0.00216236
-0.00197135
-0.00277242
0.000358326
0.00198088
-0.00235499
0.000367963
0.00016435
-0.000256056
1.70723e-05
-0.00223735
-7.04841e-06
-0.00128615
0.00125337
-0.00177341
-0.000164677
0.00190989
0.000228399
-0.00203229
0.00210546
-0.000551543
-0.00039309
0.000930044
-7.37029e-06
7.37029e-06
0.000190554
-0.00105054
0.00048402
-0.000230388
-0.0010373
0.0011667
0.00258647
2.87444e-05
-0.00262787
0.000129155
-2.00402e-05
-0.000119607
-0.00218338
0.00197462
-6.88319e-05
6.84978e-05
-3.40853e-05
-0.00234958
-0.000103347
0.00267555
-0.0013415
-0.00151634
-0.000339148
-0.00169428
0.000115782
-9.6516e-06
0.00186368
0.000245929
-0.00215811
-0.00215855
0.00211796
-0.00111782
0.00095376
0.000122322
-0.000247097
-2.93117e-05
0.000269285
1.7356e-07
3.55383e-05
2.95361e-05
-0.000284482
0.0020013
-0.000136863
0.00149694
-0.00174523
0.000251907
-0.000291024
-0.0018925
0.00202372
-0.00013783
-0.000177513
0.000151052
-0.000163223
-6.65712e-05
-0.00219876
0.00207249
8.5835e-05
-0.000216662
0.00264233
-0.00153964
0.000371379
0.00109503
-0.000367509
0.000315823
0.00219498
-0.0017121
5.62852e-05
-3.17511e-05
0.00278344
-0.00228914
-0.000519183
-0.000531685
-0.00143341
0.00166033
-0.00203889
0.000241247
-0.000186406
-0.000170359
-2.88432e-05
1.74834e-05
-0.000934458
0.00151671
0.00123493
-0.00128022
-0.000504992
-0.00169712
0.0022036
0.000139803
0.00149476
-0.00150965
-0.000409687
0.00190875
0.00232148
0.000434883
0.00155522
0.000530947
-0.00212648
-0.00138878
0.00156007
-0.00017742
0.000272508
-0.00111355
0.000825405
-0.000342816
3.43144e-05
-3.68823e-05
-3.33635e-07
-0.00245327
0.0022214
-0.00211246
-0.000111589
-3.13044e-05
-0.00011218
-0.00162997
-0.000685767
0.00209183
-0.00269357
0.00100841
-0.00134804
-0.000120257
0.00195538
-0.00184352
0.000808982
-6.52491e-05
-0.000754528
-0.00205454
0.00188417
0.00203693
-0.000224093
-0.00306762
0.0013356
0.00172229
0.00265303
-0.000202238
0.00182603
0.000602959
-0.000137845
0.000841408
-4.28988e-05
-0.00178384
0.00184397
-6.47314e-05
0.000156615
0.00180081
0.000318691
0.00168661
0.00152215
-0.00165896
0.00013543
-0.00219858
0.00201124
0.000692268
-0.000811927
-0.000630167
0.000889895
-0.00152348
-0.000113573
0.00163417
-8.46208e-05
0.000767695
0.00155155
-0.00169466
0.000135406
5.23674e-05
-0.000659357
0.00060271
-0.000502591
-0.00104376
0.00152521
0.00224391
-0.00238808
0.000133249
0.00109225
-0.00227097
-0.00141767
-0.000207974
-0.000170018
-0.00119971
0.00127258
-7.02352e-05
8.99637e-05
-6.36339e-05
0.000319636
-0.00149163
0.00115456
2.40107e-05
0.000255497
-0.000178851
-0.000296968
0.00025963
-0.00150171
0.000168104
0.00133048
0.00219173
-7.73324e-06
0.000950606
-0.000101524
-0.000856382
2.27865e-05
-0.00257121
-1.4639e-05
0.00223761
7.71604e-05
-0.00196107
0.0018793
-4.93957e-05
0.00241369
0.00268814
-0.000188025
-0.000178974
0.0024088
-6.10632e-05
-0.00165979
0.00171846
-0.000283643
1.81571e-05
3.67164e-05
-9.77628e-05
0.000847158
-0.000749688
-0.0023647
-0.000169878
0.00250001
-0.000551896
0.00237614
-0.000188405
-0.00036923
0.000485322
0.000680084
-8.66247e-05
-0.000595792
-0.00107252
0.000802574
0.000243473
-0.000707715
-0.000168281
-0.000865413
0.00076716
0.000820004
-0.00134026
-4.58538e-05
0.00194443
-5.99029e-06
0.00052978
-0.00214387
-5.35295e-05
-0.00104892
0.00218026
0.000215598
-0.00278757
0.0025658
-0.00257475
0.00278421
3.31542e-05
-0.000261253
0.000221504
-0.0001614
-0.000938592
-0.000347013
0.00357077
-0.00243524
5.23646e-06
0.000271119
-0.00318117
0.0014729
0.00169726
0.000104862
-0.000825151
-3.64061e-05
-0.00166074
-5.83728e-05
0.00164559
0.000210332
0.00154521
-0.00167254
0.000177297
0.00236812
-0.00256348
0.00253137
-0.00231464
-0.000248927
-0.000136583
6.45259e-05
0.000965312
0.000358239
-0.00134988
-0.00202874
0.000510066
0.00232752
7.69673e-05
-0.000634456
0.000551033
-0.000124966
-0.00103132
-2.14397e-05
-0.000645023
0.000587615
-0.00267076
0.00244452
-0.00129489
0.000214379
-0.000917598
0.00185589
-0.00129784
-0.00020675
-0.000935213
0.000254028
0.000565284
0.000111631
0.00158005
-0.00153663
-8.66408e-05
0.00260641
0.00204582
0.000244304
-0.00229799
-0.00224524
0.00244139
-0.000206123
-0.00164777
-0.00137177
0.000997287
0.000247951
-0.00175925
0.00164465
-0.00164582
0.0002521
-0.000946144
0.000165204
0.000749484
-0.0018475
0.0019201
0.00123449
-0.000292344
-0.00203261
-0.000227241
0.00225389
-0.00295257
0.00169492
0.00124232
-0.000438788
-0.000391597
0.000827149
-0.00242631
0.00257615
-0.000162061
0.00014201
0.00141272
-0.00157378
9.9445e-05
0.00206469
-0.0022107
3.27999e-05
-0.000270449
0.000233006
-0.000634702
-5.37488e-05
0.000679209
0.000129976
0.0014008
-0.00153523
-0.000601784
0.00169356
-0.000144679
-0.00237047
0.00248717
-0.000148616
-0.00206843
-0.00138702
0.000484742
0.000883198
0.000631542
-0.00224269
-0.00158282
-0.00149237
-0.000669302
0.00147916
-0.00025733
5.62898e-05
7.25752e-05
0.00166883
-0.0017323
0.0015592
-2.4819e-05
-0.00186705
7.8442e-05
0.0024874
1.22533e-05
0.000105617
3.03947e-05
-0.00012769
-0.000707854
0.000602956
1.70362e-05
-0.00213436
-2.22754e-05
0.00128582
-0.00136163
0.00270603
-0.00232406
-0.000390979
0.000168886
-5.86214e-05
-1.72728e-07
6.82189e-06
0.000278607
-0.000198729
0.00237263
-0.00218194
6.40672e-06
4.80236e-05
-7.56274e-05
-0.000133445
-0.00179887
0.000216527
8.0599e-05
-0.00180627
7.31259e-05
-0.000686828
0.000613063
-0.00168553
0.00135014
0.000237474
-0.000162658
0.00271423
-0.000755608
-0.000217716
-0.000746921
0.000653302
4.40351e-05
-0.000124877
-0.000796993
0.00233213
-1.87955e-06
5.27404e-05
-0.00256905
0.00237537
0.00248757
8.68772e-05
0.000132042
-3.80084e-05
0.000704029
-0.000744323
7.71004e-05
0.000547614
-0.000627504
0.000700068
-0.0021429
0.000103332
0.000105904
0.00188909
-0.00199733
0.000241275
0.00241067
-0.00266108
0.002319
-0.00252367
-0.000271372
0.00230945
1.13928e-05
7.95612e-05
-2.39441e-05
0.000297043
-0.000281497
-0.000725052
-0.000104172
-0.000858887
0.000898487
0.00216329
-0.00237001
-0.000256905
0.00215863
-0.00190536
0.00280256
-0.00201666
-0.000793656
8.16575e-05
-0.000666538
0.000584292
0.000233184
-0.00258703
0.00233521
0.0012897
-0.000210482
-0.00108514
-6.9574e-05
0.000385531
-0.00227107
-0.000332089
-0.000605585
0.00214861
-0.000393052
8.88111e-05
0.000108163
0.00249321
-0.00068312
-0.000782649
0.00204461
-0.00205467
-1.32396e-05
-0.00175683
0.00194912
-0.000196785
3.21242e-05
-0.000262113
0.000225704
-0.000117476
8.76171e-05
0.000633184
-0.000729472
-0.00206571
-0.00283647
0.00237598
-0.00168785
0.000163629
-0.000758085
0.000287049
-0.000265293
9.38809e-05
-0.000801697
0.00306054
-0.00295463
-0.000110739
-8.72113e-05
-0.000215109
-0.000337309
7.17912e-05
-0.000640541
0.000560844
0.00113344
-0.000945668
-0.000216067
-0.000285532
0.000253391
-0.000230814
-0.000261613
-3.05779e-05
0.00243459
-8.10172e-05
-0.000586173
-0.000645257
0.00056361
-0.000354142
0.0015529
-0.00122026
0.0019206
-0.00216334
0.000236325
-0.00202852
0.000115896
-0.00138909
0.00155848
-0.000177354
-0.00190883
0.00123799
-0.000222706
-0.000165909
0.00263578
0.000247595
-0.00015096
-0.000137957
0.00165039
-0.00142936
0.00258874
-0.00119079
4.82525e-05
-6.06312e-05
-0.000891744
-0.000512747
-9.42993e-05
0.0018653
-0.00177221
0.00160254
-0.00132123
-0.000302038
-0.000130928
-0.00156552
3.10327e-05
-0.000279032
0.000242303
-0.00254879
0.00226152
0.000277458
-0.00253873
-0.00184856
0.000138884
-0.00156852
0.00141043
-0.00192623
0.000236617
-0.00230114
0.00137885
-0.000262853
0.000288159
2.51304e-05
0.000253793
0.000242386
-0.0021981
0.00195016
0.000140036
0.00107454
-0.00123272
-0.000124847
0.00207814
0.000149218
-0.000470232
0.000400707
5.60648e-05
0.0006961
-0.000616102
-8.16879e-05
0.00078848
0.00235281
3.36072e-05
-0.000271156
0.000233515
-8.99413e-06
5.61134e-07
6.14103e-06
5.43135e-05
0.000423588
-0.000487874
0.00134371
-0.00163262
-0.000650961
0.00286664
0.00211481
-0.00187776
-0.00161231
0.000215471
-0.00173937
-0.000665077
-0.00142427
-0.000956277
0.00235716
-0.00240647
-0.000312031
0.00270731
-0.00215612
-0.00103893
-0.00256213
0.00213044
0.000424054
0.00202863
-0.00228956
0.00222641
-0.00217437
0.00197372
0.000147283
0.00283749
-0.00235538
-0.00206081
0.000162615
-0.00020467
-0.00170564
-0.00203472
-8.16993e-05
0.00206815
-0.000194911
0.000116498
-0.000831277
0.000712704
8.26571e-05
8.48086e-05
0.00175504
0.000243407
-0.00200202
-9.7354e-07
-0.00197558
0.00197168
-0.00232469
0.000332575
-4.5067e-05
-0.000265808
0.00224072
-0.000356398
-0.000277412
0.000632835
0.000183251
0.00175895
-0.00196961
7.07918e-05
-0.00215468
0.000638971
-0.000574698
-0.00255054
0.00250076
5.33757e-05
-0.000998036
0.00179945
0.000185111
0.00191332
-0.00180961
8.52479e-05
0.00241767
-0.0025254
0.00184303
-0.0017891
-0.0020531
-0.000223001
0.00227007
0.00192466
-0.000172783
-0.00258731
0.000149343
-0.00229812
0.00214175
-6.06992e-05
-0.000894079
0.000947492
-0.00124046
0.00138726
-0.000977402
-0.000268383
-0.00262659
0.0024339
0.000163568
0.00226053
0.000169113
-0.00147468
0.0015942
0.000167992
-4.57319e-05
-0.0024383
0.000646421
-0.000598103
-0.00191514
0.00205105
-0.00228453
-0.000667838
-0.00170463
0.00188166
-0.000185012
-0.000351598
-9.7598e-05
0.00209687
-0.0021261
-0.000128654
0.00179497
-0.00120392
0.00125358
-9.00335e-05
-0.000174202
0.00129931
0.000256857
0.000785436
5.19138e-06
-0.000866314
0.00241889
0.000154185
-0.000178482
0.000365347
0.00157448
-5.37064e-05
-0.000229756
-0.0012252
-0.000894506
0.00211123
0.000254982
0.00234479
-0.00260794
-0.000729541
8.52029e-05
3.95683e-07
1.02638e-05
-1.08046e-05
-0.00180473
0.00159865
0.000885176
-0.000389975
-0.000497187
0.0020313
-2.86409e-05
-0.00190278
0.00180727
0.00242388
-0.00228329
-0.000146399
0.00196693
0.000159014
0.00244601
-0.000159654
-0.000235382
-0.00242578
-0.000198177
0.0026592
-0.00213788
0.000226631
0.00190493
0.000933637
0.00212266
0.00229874
0.000156953
-0.00241284
0.00255859
-0.00046307
-0.00209849
0.00264321
-0.00240864
-0.000255723
4.39949e-06
-1.62747e-06
1.2922e-05
0.00250946
-0.00253476
-0.000257298
0.00265822
-0.000170607
0.00214094
-7.66456e-05
-0.00209852
9.37638e-05
-0.00244859
0.00238234
0.000384369
4.92655e-05
0.00239536
0.000133287
-0.00254574
0.00159938
0.000221507
-0.00187443
0.00301325
-0.000128791
-0.0029001
-0.000101172
-0.000764329
-0.000601537
-0.000887776
0.00252057
-0.000909541
-0.00238486
0.00254447
-0.000569841
-0.0020982
0.00215235
-0.000127345
-0.00195577
0.00176221
0.00255985
-0.00248801
0.000607064
-0.00171956
6.6135e-05
-0.000239558
-0.00263691
0.0014026
-0.00260123
0.000517912
0.00206309
-0.000250848
0.00196797
-0.000130576
0.00199469
-0.00196874
-9.11896e-05
2.68434e-05
0.00157736
-0.00160814
-0.000156482
0.00256198
-0.00140035
0.00242888
-0.00262155
-0.00217852
0.00257416
-0.0023449
-0.000231963
0.000219348
0.00241229
-0.002646
-0.000229924
-0.000462288
-4.51728e-05
-0.00187468
0.00191491
0.00233397
-0.00215714
0.00181319
8.53175e-05
0.00249998
-0.00259061
-0.000540989
0.00061482
-9.33432e-05
-0.0022647
0.000207486
0.00191495
-0.000170826
0.00202129
-0.00208298
0.00239142
-0.000110956
0.00254281
-0.0024381
8.87108e-05
-0.000648978
0.00243539
-0.00257422
0.00128084
-0.0012905
-2.80229e-05
0.00274166
-0.000119256
-0.00175921
9.70457e-05
-0.000160698
0.00270147
-0.00224643
0.000800797
0.00012948
-0.000192529
0.00211111
-8.7954e-05
0.00238439
-0.000135736
0.00231142
-0.0024715
-1.65226e-05
6.99535e-05
-6.57635e-05
0.00161123
-0.0015712
-0.000106156
-0.00031807
0.00121647
-0.000269005
-0.00161504
0.00187373
0.000131833
0.00243111
-9.64123e-05
0.00195919
0.00164415
0.000108509
0.00230691
-0.000104578
0.000257439
0.00168776
-0.000138282
0.00254362
-4.13763e-05
0.00207187
-0.00181584
0.00168469
0.00248115
-0.00259841
0.000403176
-0.000252293
-0.000207452
0.00260251
0.00084199
-0.000727669
7.76486e-05
0.00179716
-0.001877
-0.00227604
0.000109996
-0.00021671
1.80833e-05
0.000189097
-0.00163365
-0.000127958
-0.00021223
0.00236814
2.23293e-05
0.000145677
0.00113755
-0.000565075
-0.00150084
0.00241332
-7.09205e-05
-0.00237054
-0.000137494
0.00251696
-0.00111979
-0.000139136
0.00124414
0.00040838
-0.00278378
-0.00272818
0.000310556
-0.00212646
0.00215232
-0.000211146
-0.00196587
-0.000294282
0.00242611
-0.00213969
0.000135668
-0.00127047
-0.000702181
0.00078332
-9.02924e-05
1.95352e-05
-0.000215637
0.000187247
-0.00209756
-1.85314e-05
-0.000205474
0.000214089
1.76516e-05
-0.000215302
0.000187813
-0.00178699
0.00186248
-0.000139966
0.00240867
-0.0026004
0.000180951
-0.00230188
-0.000214043
0.000185613
0.000180858
0.00242109
-0.00261775
1.8495e-05
-2.53335e-05
-7.0242e-07
-0.00140069
-0.00156802
0.00155192
-0.00157836
-5.54374e-05
-0.00282993
-0.00219286
0.00206551
0.000126265
-0.000206192
-0.000119549
0.0025753
-0.00248853
0.000121975
-0.00237074
-0.000302917