/*--------------------------------*- C++ -*----------------------------------*\
| =========                 |                                                 |
| \\      /  F ield         | OpenFOAM: The Open Source CFD Toolbox           |
|  \\    /   O peration     | Version:  v2012                                 |
|   \\  /    A nd           | Website:  www.openfoam.com                      |
|    \\/     M anipulation  |                                                 |
\*---------------------------------------------------------------------------*/
FoamFile
{
    version     2.0;
    format      ascii;
    class       surfaceVectorField;
    location    "900";
    object      Uf;
}
// * * * * * * * * * * * * * * * * * * * * * * * * * * * * * * * * * * * * * //

dimensions      [0 1 -1 0 0 0 0];


internalField   nonuniform List<vector> 
14516
(
(1.13715 0.00950696 1.977e-21)
(1.13657 0.0201392 2.54857e-22)
(1.12494 0.0127715 1.21429e-21)
(1.00694 -0.0514006 3.90415e-21)
(0.995552 -0.079896 1.11799e-21)
(1.01468 -0.0756913 1.28919e-21)
(1.13542 -0.00100164 -2.06708e-22)
(1.15255 0.00600134 -2.0006e-22)
(1.0155 -0.00117015 0)
(1.01553 -0.00127831 -3.09941e-22)
(1.01565 -0.00118621 -6.95996e-22)
(0.549135 0.287026 4.23157e-21)
(0.58691 0.309154 -1.49133e-21)
(0.547283 0.297318 8.55038e-22)
(1.00831 -0.0184366 -2.69109e-23)
(1.00997 -0.0188467 1.26946e-22)
(1.00962 -0.0169726 -5.41047e-23)
(1.00969 -0.000113269 0)
(1.01059 -0.000296456 0)
(1.01131 -0.000415466 -5.04686e-22)
(1.0137 -0.00193804 -4.24279e-22)
(1.0136 -0.00180649 -1.02026e-22)
(1.01376 -0.00187614 1.01318e-22)
(1.03211 0.00191751 -5.89969e-22)
(1.03209 0.00234632 5.3194e-21)
(1.03273 0.00196273 3.8572e-21)
(0.560944 0.276517 -4.53182e-21)
(0.529047 0.262927 -1.57738e-20)
(1.02651 0.00226807 1.63398e-21)
(1.02297 0.00176727 1.33516e-21)
(1.02633 -0.00154659 -6.37488e-22)
(0.888823 -0.0556174 8.73062e-22)
(0.889529 -0.0671682 8.98651e-22)
(0.873678 -0.0641251 1.00068e-21)
(1.01541 -0.00101988 2.9952e-22)
(1.01533 -0.00112061 0)
(1.01773 0.00567844 0)
(1.0174 0.00635689 0)
(1.01676 0.00565377 -1.0551e-22)
(1.00403 -6.46263e-05 1.08023e-21)
(1.00406 1.40678e-06 6.35602e-22)
(1.01792 0.00506719 7.91886e-22)
(1.01801 0.00444694 2.52426e-21)
(1.01716 0.004576 -3.10434e-22)
(1.0309 0.00401958 6.91398e-22)
(1.02878 0.00478695 6.00005e-22)
(1.02908 0.00275536 1.06589e-21)
(1.03303 0.00285574 -8.46049e-22)
(1.03267 0.00561409 0)
(1.17594 -0.170344 0)
(1.14839 -0.121914 9.45892e-21)
(1.14454 -0.159056 0)
(1.01877 0.0056458 0)
(0.985372 -0.123804 1.44442e-22)
(0.993415 -0.130826 -3.58278e-22)
(0.995031 -0.120126 7.5826e-23)
(1.04309 -0.0163741 1.32929e-21)
(1.04425 -0.015842 5.18326e-22)
(1.04291 -0.0150523 1.32515e-21)
(0.941625 -0.0860253 -9.40694e-21)
(0.946966 -0.0947652 5.53409e-21)
(0.931861 -0.094831 -2.11799e-22)
(1.01773 0.00108764 2.28855e-23)
(1.01748 0.00114343 -2.25691e-23)
(1.0223 0.00178566 3.73246e-22)
(1.02193 0.0027235 0)
(1.0235 0.00273505 -7.11886e-23)
(1.01519 -0.00078968 1.59951e-22)
(1.01545 -0.000883673 6.92185e-22)
(1.01932 0.00319952 -8.07166e-22)
(1.01958 0.00387355 -8.57349e-22)
(1.02036 0.00337217 4.06022e-22)
(1.02162 0.00470721 2.96457e-22)
(1.02115 0.00572947 -5.86371e-22)
(1.02033 0.0047251 1.12483e-21)
(1.05146 0.0200308 -3.42085e-21)
(1.04979 0.0177204 -2.23472e-21)
(1.05305 0.0183724 -2.53009e-21)
(1.03146 0.00185153 -1.01228e-21)
(1.03208 0.0014759 0)
(0.972594 -0.0205942 -7.91392e-21)
(0.969308 -0.0230452 -5.16178e-21)
(0.974746 -0.0252663 -8.75385e-22)
(0.936965 -0.0748968 -9.95658e-23)
(0.951989 -0.0762496 8.86406e-22)
(0.897572 0.21067 -3.23665e-22)
(0.911415 0.222539 -4.41884e-21)
(0.892976 0.232425 -2.96079e-21)
(1.00751 -1.07514e-05 -2.49429e-23)
(1.00746 -2.9762e-05 5.61054e-22)
(1.0053 2.15735e-06 6.81515e-22)
(1.05365 0.0233875 9.37067e-22)
(1.0568 0.0263658 1.54825e-22)
(1.05865 0.0232914 1.32567e-21)
(0.988069 -0.156594 3.59657e-22)
(0.997397 -0.166307 0)
(0.983339 -0.169686 -9.53385e-22)
(1.00866 -8.96773e-05 -2.39709e-22)
(1.00683 2.00418e-05 -4.88138e-22)
(1.04308 -0.0177045 -2.08979e-21)
(1.04175 -0.0168401 -2.90932e-22)
(1.01428 -0.00277589 -6.30452e-22)
(1.01437 -0.00303091 -2.84402e-22)
(1.01459 -0.00293033 6.45873e-22)
(1.0109 -0.000156645 0)
(1.01046 -0.000158847 1.06779e-22)
(1.01136 -0.000142851 0)
(0.976895 -0.0178897 2.44502e-21)
(0.97174 -0.0141423 2.05743e-21)
(1.00675 -2.30353e-06 8.17829e-22)
(1.00369 -6.8259e-05 2.47504e-22)
(1.01396 -0.000640213 2.59826e-22)
(1.01457 -0.000617979 -3.03607e-22)
(1.01394 -0.000609333 -2.23409e-22)
(1.01036 -0.00021848 4.56673e-22)
(1.00953 -0.000255917 -2.55079e-22)
(1.01127 -0.000208953 -5.2261e-22)
(1.01165 -0.000367548 6.53714e-22)
(1.0141 -0.000555352 -3.87634e-22)
(1.01495 -0.000734373 -4.73698e-22)
(1.049 0.0229573 2.05097e-22)
(0.933823 0.0610724 -7.1709e-22)
(0.934303 0.0731031 -5.36094e-21)
(0.946726 0.0643641 -1.32843e-21)
(0.92073 0.0824681 0)
(0.908577 0.0758603 0)
(0.931918 0.0725427 -1.69954e-21)
(1.01556 -0.00140768 -2.98296e-22)
(1.01543 -0.00135729 -3.87864e-23)
(1.05957 0.0302695 -4.41309e-23)
(1.0533 0.0297679 -2.87706e-22)
(1.02337 0.0135109 0)
(1.02025 0.0106543 -1.07545e-21)
(1.02498 0.00908405 4.44649e-21)
(1.01384 -0.0222176 1.14546e-22)
(1.01223 -0.0224417 1.12292e-22)
(1.01345 -0.0241165 5.97551e-23)
(1.03347 -0.00303915 4.14278e-21)
(1.03278 -0.00294953 -3.66049e-22)
(1.03302 -0.00349769 -3.82403e-21)
(0.968282 0.0951824 7.0446e-21)
(0.924209 0.0906993 7.8781e-21)
(1.00625 0.0908418 4.57282e-21)
(0.913304 -0.157829 2.42583e-22)
(0.905895 -0.169834 -4.33128e-22)
(0.89788 -0.158601 -1.16604e-22)
(1.02469 0.0019663 -2.20619e-21)
(1.02422 0.00189026 0)
(0.996062 -0.0318156 0)
(1.00303 -0.0340813 -1.16328e-20)
(1.00128 -0.0266361 6.11212e-21)
(0.868075 0.23574 0)
(0.859735 0.253884 0)
(0.872689 0.248577 0)
(1.01421 -0.00261643 -4.87035e-23)
(1.01405 -0.00263555 -1.87409e-22)
(1.00898 -0.000148843 -4.681e-22)
(1.00835 -4.21116e-05 0)
(1.00985 -0.000207589 -8.98589e-22)
(1.01947 -0.0240914 -1.45591e-22)
(1.01804 -0.0246194 -7.79557e-23)
(1.01951 -0.0259976 -2.79578e-23)
(0.844329 0.146067 0)
(0.83776 0.160541 0)
(0.828543 0.13434 -3.74995e-22)
(1.01731 -0.000425005 0)
(1.0179 -0.000564641 5.59741e-22)
(1.01699 -0.000421158 3.75517e-23)
(0.475959 0.277095 0)
(0.533964 0.305832 1.77921e-21)
(0.89328 0.155704 -1.16055e-21)
(0.907442 0.171428 1.04348e-20)
(0.913744 0.150225 -1.299e-21)
(0.851461 0.128406 5.09851e-22)
(0.861861 0.149178 0)
(0.858619 0.11703 -3.59059e-21)
(0.872379 0.107588 -2.57094e-21)
(0.872569 0.122181 -4.14034e-22)
(0.88827 -0.0445927 9.99318e-22)
(0.899861 -0.0501287 0)
(1.02708 0.00560231 4.69146e-21)
(1.02998 0.00244458 -5.08587e-21)
(0.923877 0.0979341 0)
(1.01058 0.104318 -5.9624e-22)
(1.0124 0.000195089 0)
(1.01282 0.000251292 9.12567e-24)
(1.01363 0.000390924 0)
(1.01744 -0.00528195 3.67335e-22)
(1.01769 -0.00553629 4.46099e-22)
(1.0174 -0.00557112 7.59121e-22)
(1.07085 -0.00879959 3.25995e-22)
(1.06795 -0.010059 0)
(1.06933 0.00258514 1.57038e-22)
(1.06401 0.032114 0)
(1.06026 0.0371393 -6.89141e-22)
(0.877425 0.21999 0)
(0.865959 0.22195 0)
(1.02501 0.00174826 -2.17403e-22)
(1.02534 0.00151162 -2.03848e-22)
(1.02476 0.00147033 4.07318e-21)
(1.02326 -0.000876665 1.99652e-23)
(1.02289 -0.00156109 -2.38534e-23)
(1.02408 -0.00138727 -3.05489e-23)
(1.00857 0.0112089 2.85109e-22)
(1.00807 0.00947443 1.01917e-21)
(1.00968 0.00992504 0)
(1.01986 0.00846241 0)
(1.01832 0.00796377 0)
(1.01949 0.00717721 1.25661e-22)
(0.875703 0.16242 0)
(0.883235 0.140786 -6.13166e-23)
(1.00489 0.00592475 6.54839e-22)
(1.00514 0.00436389 -4.28709e-22)
(1.00642 0.00546325 -2.11497e-21)
(0.962118 -0.0811109 4.4881e-21)
(0.956103 -0.106405 -3.87671e-22)
(0.944306 -0.0833841 -1.43157e-20)
(0.959483 0.009551 -1.23971e-22)
(0.953566 0.0161763 1.04507e-21)
(0.965933 0.0153789 -5.15782e-21)
(0.981411 -0.016243 2.88195e-22)
(0.982253 -0.0209004 3.36557e-22)
(0.938552 0.0410069 0)
(0.935851 0.0510615 1.36892e-22)
(0.949682 0.0456598 0)
(1.02003 0.0101187 0)
(1.02157 0.00895748 9.68375e-22)
(1.0256 0.00128874 -4.16569e-21)
(1.02586 0.00104022 -2.04394e-21)
(1.02532 0.00101442 -3.88443e-21)
(1.01957 -0.02244 2.26158e-22)
(1.01979 -0.0207292 9.17077e-23)
(1.01846 -0.0210271 3.0383e-23)
(1.00404 0.000358307 -2.79123e-22)
(1.0032 0.00176601 0)
(1.00235 4.18646e-05 -6.23321e-22)
(0.995455 -0.0257019 6.5247e-21)
(1.01647 -0.0251958 7.50762e-21)
(0.426185 0.0873823 1.56912e-20)
(0.417601 0.125284 7.26668e-21)
(0.468433 0.104585 1.03075e-20)
(1.01177 -0.00413913 -7.52405e-23)
(1.01178 -0.00467183 5.49448e-22)
(1.01134 -0.0041761 2.61147e-21)
(0.931399 -0.0643184 -2.28147e-22)
(0.919901 -0.0737373 -2.75193e-21)
(1.02095 -0.0235533 -1.11767e-22)
(0.953474 0.0029059 -9.54361e-22)
(0.965385 0.00335911 -7.85946e-21)
(0.920319 -0.146921 -2.52096e-23)
(0.927714 -0.156651 -4.30758e-22)
(0.978411 -0.0815019 2.60191e-21)
(0.967935 -0.0505811 -1.90996e-21)
(1.01218 -0.00401276 -1.55481e-21)
(1.01179 -0.0036608 3.35879e-22)
(1.01062 -0.000709046 6.77068e-22)
(1.01051 -0.000971864 -3.01078e-22)
(1.01075 -0.000969108 -7.44815e-22)
(1.0105 -0.000396245 3.81218e-22)
(1.01071 -0.000426026 1.50514e-21)
(1.00764 -0.00566723 0)
(1.00656 -0.00523734 1.03151e-21)
(1.00683 -0.00669744 2.73139e-22)
(1.01561 -0.00184528 -4.4508e-22)
(1.0157 -0.00217188 -3.89611e-22)
(1.01606 -0.00199443 4.48232e-22)
(1.01521 -0.00171851 -4.51344e-22)
(1.01552 -0.0015628 -4.34144e-23)
(1.02247 -0.00047233 -8.29903e-24)
(1.02347 -0.000147641 1.52036e-22)
(0.985128 -0.0149376 0)
(0.980981 -0.011388 0)
(1.02037 -0.0196685 -6.93673e-22)
(1.02115 -0.0207513 -7.20488e-22)
(1.00881 -9.55486e-06 0)
(1.00941 -0.000128398 8.36243e-22)
(1.01028 -0.000168229 0)
(1.01437 -0.020487 7.90381e-24)
(1.0155 -0.0218602 1.74779e-22)
(0.947409 0.111846 2.87923e-23)
(0.958176 0.119374 1.40664e-20)
(0.960515 0.102699 7.61469e-21)
(1.01215 0.000206237 1.18062e-22)
(1.011 7.33732e-05 1.30257e-22)
(0.951021 -0.113543 3.66705e-23)
(0.94526 -0.105157 -3.70257e-23)
(0.939296 -0.115011 -5.92288e-23)
(1.02255 0.00167453 2.37117e-21)
(1.02291 0.00167027 -1.9541e-21)
(0.931579 -0.202583 1.23598e-21)
(0.923246 -0.190721 -2.13551e-21)
(0.916801 -0.201916 1.26684e-21)
(1.02691 0.0161147 -2.9342e-21)
(1.02235 0.0179302 0)
(1.02526 0.00201718 -2.31348e-21)
(0.940718 0.207199 -2.67723e-21)
(0.950742 0.218566 -2.83101e-21)
(0.957967 0.200971 3.33252e-21)
(1.06852 0.0350344 0)
(1.06717 0.028156 4.43183e-22)
(1.00471 0.00777489 -5.52471e-23)
(1.00315 0.00656618 1.37721e-21)
(0.942751 -0.0560747 0)
(0.926664 -0.0529702 5.30734e-22)
(0.940111 0.103844 -1.71411e-22)
(0.932907 0.119661 -2.47087e-22)
(1.00756 0.000128009 6.34905e-23)
(1.00466 4.26548e-05 3.4181e-23)
(1.0048 3.81315e-05 1.69541e-23)
(1.02397 -0.00186787 1.3175e-21)
(1.02436 -0.00199902 1.52161e-21)
(1.02426 -0.00170909 -1.31698e-21)
(1.00659 -0.0175157 2.31669e-23)
(1.00686 -0.0196769 -5.72141e-22)
(1.03833 -0.00367006 9.63057e-22)
(1.03866 -0.00425916 -3.23121e-21)
(1.03775 -0.00408061 -1.19585e-21)
(0.974921 -0.127388 -5.40298e-24)
(0.978409 -0.117077 2.13106e-22)
(1.04502 -0.0121401 -1.18234e-20)
(1.04704 -0.0119203 -6.85918e-21)
(1.0458 -0.0103243 -2.01928e-21)
(0.943391 0.0318475 0)
(0.928443 0.0354737 0)
(1.00914 0.0131117 1.42059e-21)
(1.00717 0.0127554 -5.86063e-22)
(1.01931 -0.00459746 -7.7111e-22)
(1.01943 -0.00439139 0)
(1.01911 -0.00438817 -2.17592e-22)
(1.01083 0.000130404 4.15609e-22)
(1.01035 0.000147727 -2.24662e-22)
(1.01204 0.000199994 3.5809e-22)
(1.02588 0.00155437 -1.95903e-21)
(1.01922 -0.00475016 -6.80651e-22)
(1.01952 -0.00478445 4.07755e-22)
(1.01126 -0.00997948 -4.56126e-22)
(1.01228 -0.0108649 -4.28613e-22)
(1.01236 -0.00947794 3.62897e-23)
(1.03092 0.00182531 2.29883e-22)
(1.03102 0.00219526 -1.97226e-21)
(1.02611 0.000792706 -6.64762e-23)
(1.02639 0.000513835 0)
(1.02584 0.000527825 0)
(1.01529 -0.000234447 -1.21708e-21)
(1.01749 -0.000381079 0)
(1.00971 -0.000101098 -7.12594e-22)
(1.01119 -0.000288717 4.14408e-22)
(1.02241 0.00140376 -1.0145e-21)
(1.02213 0.00160962 4.38006e-22)
(1.01295 0.000530216 5.57266e-22)
(1.01311 0.000593232 -5.58343e-22)
(1.01295 0.000558102 -5.61117e-22)
(1.02369 -0.00200036 -2.53071e-23)
(1.0236 -0.00171949 -3.0673e-21)
(1.02278 2.18641e-05 -3.45941e-22)
(1.02267 0.000916161 1.21696e-22)
(1.02398 0.000583855 -1.80059e-22)
(1.01349 -0.000671518 0)
(1.01371 -0.00069293 0)
(1.01337 -0.00065542 0)
(1.01024 0.000856463 1.08427e-21)
(1.01048 0.00105563 9.5875e-22)
(1.01032 0.00140609 -2.0247e-22)
(1.01815 0.00722796 -5.46727e-23)
(1.01704 0.00706061 -8.21562e-24)
(1.01829 0.00913204 1.95968e-21)
(1.01886 0.00819645 -5.31283e-23)
(1.01977 0.00931476 1.15499e-21)
(1.06203 -0.0436065 0)
(1.05542 -0.0513165 -1.36612e-22)
(1.05541 -0.0590546 0)
(1.01029 0.000403066 0)
(1.00996 0.000615553 -1.03546e-21)
(1.0132 -0.00353274 7.6366e-23)
(1.01289 -0.00371412 -4.01695e-23)
(1.01343 -0.00396414 4.64724e-22)
(0.438624 0.0581287 9.25104e-21)
(0.382018 0.0691612 5.12999e-21)
(0.680645 0.29247 -2.3177e-21)
(0.696354 0.282339 -4.24353e-21)
(0.675011 0.307322 2.81949e-21)
(1.01171 0.000243847 6.86102e-22)
(1.00961 3.50723e-05 1.28133e-22)
(0.692982 0.279042 0)
(0.66349 0.300111 1.8208e-21)
(0.584415 0.277118 -8.41713e-22)
(0.581579 0.251642 -2.46127e-21)
(1.01351 -0.00333623 -5.40969e-23)
(1.01304 -0.00317597 -2.31277e-22)
(1.00963 0.000179807 -1.134e-22)
(1.0095 0.000184684 -8.42297e-23)
(1.01178 0.000260027 -4.54958e-22)
(1.01112 0.000198141 -3.76558e-22)
(1.01217 0.00033815 0)
(1.02281 -0.000795641 -4.34681e-22)
(1.02185 -0.000312483 0)
(1.01036 -4.29623e-05 -8.56024e-22)
(1.01054 0.00023935 -9.05235e-22)
(1.01357 -0.000700414 0)
(1.01328 -0.000549585 1.80017e-23)
(1.01382 -0.00207302 1.48866e-22)
(1.01365 -0.00200019 0)
(1.02156 0.00368607 -4.6034e-23)
(1.02263 0.00446061 -3.75637e-22)
(1.01748 0.00250564 -8.45538e-22)
(1.01725 0.00211949 1.00372e-22)
(1.01794 0.0021479 0)
(1.18784 -0.195488 8.80176e-21)
(1.17198 -0.207952 4.72457e-22)
(1.17127 -0.226587 -7.64481e-21)
(1.06805 -0.034565 3.5407e-21)
(1.07067 -0.0206437 -7.14185e-22)
(1.06593 -0.0347951 -1.72125e-22)
(0.990955 -0.143941 -3.06419e-21)
(1.00209 -0.138899 4.54566e-22)
(0.92139 0.0574765 -6.24184e-22)
(1.05585 -0.00470284 3.31854e-21)
(1.0545 -0.00524871 2.90735e-21)
(1.05589 -0.00613508 2.99214e-21)
(1.01843 0.0030775 3.82851e-22)
(1.01907 0.00262341 -1.20376e-21)
(1.00985 -0.00452419 9.78554e-22)
(1.00909 -0.00427262 -8.06409e-22)
(1.00972 -0.003646 6.45937e-22)
(1.01508 -0.00339858 -1.04219e-22)
(1.01506 -0.00385765 1.41434e-22)
(1.01528 -0.0034035 -2.88968e-22)
(0.920695 -0.221216 1.29734e-21)
(0.919189 -0.231151 1.67914e-21)
(0.909517 -0.222579 0)
(1.06907 -0.0323109 1.60631e-21)
(1.06412 -0.0482704 7.15582e-22)
(0.929117 -0.217869 -2.35871e-21)
(0.923836 -0.210514 -1.51646e-21)
(1.03766 -0.00267881 -3.25321e-23)
(1.03802 -0.00323153 -1.94842e-22)
(1.0371 -0.00303985 -5.64167e-21)
(1.19742 -0.168794 0)
(1.02641 0.00106292 3.04901e-21)
(1.01727 0.00126022 1.19554e-23)
(1.01703 0.00124728 -6.04376e-23)
(1.01711 0.00128687 -7.06786e-23)
(1.01911 -0.00551602 5.36778e-22)
(1.0194 -0.00572565 0)
(1.01931 -0.00535001 -2.35806e-22)
(1.04909 0.00143325 6.49693e-21)
(1.04932 0.00201657 5.51541e-21)
(1.04858 0.00168288 2.55902e-23)
(0.71233 -0.190951 6.51453e-21)
(0.587105 -0.222025 1.0107e-20)
(0.656915 -0.215428 0)
(1.04274 0.00167036 -3.24641e-21)
(1.0421 0.00172181 -5.51602e-22)
(1.04243 0.00123441 -4.81151e-21)
(1.01018 -0.000304004 -7.37095e-22)
(1.02145 0.00111197 -4.27313e-22)
(0.900739 0.210565 2.49937e-21)
(0.894955 0.217609 0)
(0.901439 0.218377 2.05057e-22)
(1.01743 -0.0050481 -6.04148e-22)
(1.01721 -0.00503757 -2.11382e-22)
(0.989637 -0.0275062 0)
(0.990357 -0.0363868 3.85944e-22)
(1.01888 -0.00564796 2.5689e-23)
(1.01886 -0.00526784 4.0767e-22)
(1.02383 -0.00262662 1.30593e-21)
(1.02351 -0.00274939 -2.23744e-23)
(1.02387 -0.00295216 1.27141e-21)
(1.01764 0.00290738 8.00579e-22)
(1.01698 0.00278289 -8.24263e-22)
(1.03821 -0.00232972 1.0682e-21)
(1.03734 -0.00216837 3.30178e-21)
(1.01992 0.00020204 1.33356e-23)
(1.01998 0.000118094 -1.41196e-21)
(1.02011 0.000238108 0)
(0.934884 0.0876669 -1.29776e-21)
(0.911614 0.0930158 1.75656e-21)
(0.957089 -0.122013 -1.60985e-22)
(0.961839 -0.111988 3.83246e-23)
(0.842838 0.107315 9.41171e-22)
(1.04853 0.00099253 -7.3979e-21)
(1.04915 0.00102166 1.93565e-21)
(1.19046 0.00671979 -4.16617e-22)
(1.1882 0.017707 -3.99808e-21)
(1.19645 -0.00358555 -6.83708e-21)
(1.00885 -0.000106848 0)
(1.0086 -0.000914172 0)
(1.00927 -0.000807324 1.15044e-22)
(0.598416 0.298156 4.80816e-21)
(0.60864 0.269809 4.0873e-22)
(1.01294 0.000499459 7.75622e-22)
(1.01268 0.000460924 7.44923e-22)
(1.03045 0.00175728 1.1043e-21)
(1.03093 0.00144383 -2.54205e-21)
(1.15067 -0.202766 -1.80784e-20)
(1.1289 -0.207913 -8.21783e-21)
(1.13203 -0.185242 -6.3537e-21)
(0.914188 -0.17964 -2.62681e-21)
(0.900069 -0.180403 1.28858e-21)
(1.01955 -0.00422962 -3.41179e-22)
(1.01935 -0.00400629 -3.75921e-22)
(1.01966 -0.00404808 -7.76617e-22)
(1.02664 0.000246308 0)
(1.02693 0.000518981 0)
(1.02166 -0.00010893 0)
(1.02152 -0.000645213 0)
(0.978677 -0.14731 1.55357e-22)
(1.01321 0.00429256 1.90014e-21)
(1.01353 0.00409153 -7.9169e-22)
(1.01378 0.00467785 9.69279e-22)
(0.988764 -0.01369 3.14499e-22)
(0.989122 -0.0175348 0)
(1.04316 -0.00333876 8.05812e-22)
(1.04293 -0.00392676 -2.4882e-21)
(1.0424 -0.00336492 4.25549e-22)
(1.05368 0.00522372 1.95788e-22)
(1.05232 0.00445005 4.89561e-22)
(1.05261 0.00604425 1.87864e-21)
(0.950562 0.090029 -2.25659e-21)
(0.958755 0.0809384 -6.27014e-21)
(0.896359 0.0673713 1.7048e-21)
(0.884961 0.0791214 0)
(1.03407 -0.00340065 1.64166e-21)
(1.03397 -0.00275231 1.29434e-21)
(1.1795 0.00578625 2.39968e-21)
(1.14935 0.0324043 -6.10098e-21)
(1.0115 0.000270125 -8.08882e-23)
(1.01238 0.000314602 -4.32781e-22)
(1.01056 -0.0061463 -9.58684e-22)
(1.0111 -0.0069526 -2.37636e-22)
(1.01135 -0.00608903 -7.74905e-23)
(0.907882 0.208665 5.49972e-21)
(0.901439 0.202449 3.45258e-21)
(1.02109 0.000176253 -1.6703e-22)
(1.02186 0.000394555 2.42997e-22)
(0.750448 0.042969 1.6398e-21)
(0.742088 0.0557172 8.44859e-21)
(0.737645 0.00836474 1.58572e-21)
(1.08508 0.0412483 -3.36121e-22)
(1.08968 0.035441 7.2687e-24)
(1.09458 0.0439649 -1.35374e-21)
(1.02468 -0.000636389 -4.89146e-21)
(1.0249 -0.00041336 2.81617e-21)
(1.02443 -0.000434822 1.12905e-22)
(1.03883 -0.00332177 2.90889e-21)
(1.01983 0.000286306 -1.46672e-24)
(1.01973 0.000162203 -7.08529e-23)
(0.94798 0.0235369 0)
(0.939899 0.016921 0)
(1.16941 -0.185919 -1.50094e-20)
(1.01092 -0.0207399 5.42322e-23)
(1.01174 -0.0189861 1.76809e-22)
(1.01371 -0.00313915 3.06205e-24)
(1.01348 -0.00281832 -6.93107e-22)
(1.01391 -0.0029136 0)
(1.07936 0.039651 0)
(1.08047 0.0471398 0)
(1.03356 0.0050476 9.48488e-22)
(1.03239 0.00767151 -6.13726e-21)
(1.03533 0.00729589 -4.20966e-21)
(1.01797 0.0010966 6.29177e-23)
(1.01801 0.000964855 -1.44524e-22)
(1.01743 0.00120844 7.32732e-23)
(1.01728 0.00118298 -1.67929e-23)
(1.0431 0.00195726 1.41161e-21)
(1.04327 0.00143081 3.84459e-21)
(1.01254 0.000416595 3.25593e-22)
(1.0128 0.000445138 -3.39423e-23)
(1.0124 0.00040174 2.97657e-22)
(1.03718 -0.0100632 -6.63798e-21)
(1.0393 -0.0108833 9.61797e-23)
(1.03878 -0.00854346 6.56584e-21)
(0.763846 0.0325959 3.81096e-23)
(0.762458 0.0699041 8.41992e-23)
(1.02229 0.00119105 -1.68845e-21)
(1.02193 0.00114989 1.54661e-21)
(1.02217 0.000984249 3.03435e-21)
(1.01566 -0.00364121 6.35278e-23)
(1.01555 -0.00358678 2.75007e-22)
(1.01565 -0.00334451 1.02463e-22)
(0.913148 -0.136106 2.67354e-22)
(0.926832 -0.136057 7.393e-22)
(1.00656 -0.00264937 -1.83839e-21)
(1.00683 -0.00142488 6.24644e-22)
(1.00559 -0.00192535 6.20871e-22)
(0.991742 -0.0127669 1.79994e-21)
(0.988624 -0.00987295 1.4978e-21)
(1.01512 0.00649831 -1.8509e-21)
(1.01604 0.00683176 -2.11727e-21)
(1.01552 0.00599657 -1.06914e-21)
(1.01584 -0.00299614 -5.81982e-25)
(1.01592 -0.00284893 2.26419e-24)
(1.01596 -0.00274143 2.76428e-22)
(0.902453 0.190337 1.33645e-21)
(0.881446 0.199421 -7.69298e-23)
(1.01573 -0.00365308 -5.18219e-23)
(1.01576 -0.00345192 6.33971e-23)
(1.01578 -0.00366361 4.74471e-23)
(1.01255 -0.00388193 -4.30173e-22)
(1.01246 -0.00345794 -5.24891e-25)
(1.01344 -0.00170445 4.49e-22)
(1.0135 -0.00166192 4.0556e-22)
(1.02266 -0.00166898 -4.49616e-22)
(1.02382 -0.00142939 -1.18693e-21)
(1.01269 -0.00438544 -4.63142e-22)
(1.00864 -0.000135744 -8.56998e-22)
(1.00731 1.84075e-05 3.37656e-23)
(1.03137 -0.0104744 0)
(1.03145 -0.00981227 1.2853e-21)
(1.0321 -0.0103974 1.22011e-21)
(1.04841 -0.00175131 6.01597e-21)
(1.0478 -0.0015792 4.3126e-21)
(1.04792 -0.0020715 -3.98157e-21)
(1.03062 0.0182528 -3.86531e-21)
(1.03095 0.014233 1.08348e-21)
(1.04324 -0.0118726 3.45232e-22)
(1.04133 -0.0115771 3.67187e-21)
(1.04258 -0.0100625 3.75172e-21)
(1.01583 -0.0029541 -8.64272e-24)
(1.01578 -0.0029684 -2.21489e-22)
(1.01584 -0.00283568 -3.75898e-22)
(1.04333 -0.0224781 4.85777e-21)
(1.0416 -0.0230021 1.25351e-21)
(1.04316 -0.0243791 1.06454e-21)
(1.01513 -0.00426374 -7.16929e-25)
(1.01536 -0.004201 2.9542e-22)
(1.01525 -0.00465397 -1.70568e-22)
(1.04901 -0.00179279 4.61452e-21)
(1.04878 -0.00129823 5.72311e-21)
(1.00399 -0.00774559 -6.49648e-22)
(1.00354 -0.00959722 1.63603e-22)
(1.00533 -0.00920759 -5.221e-22)
(1.01231 0.00347718 -7.43647e-22)
(1.01277 0.00394789 2.15221e-22)
(1.01265 0.00338518 -3.50889e-22)
(0.892439 0.184054 -1.03721e-21)
(0.90273 0.199613 6.78528e-21)
(0.902564 0.201087 4.7908e-21)
(1.01568 -0.00391504 -9.2679e-23)
(1.03045 0.0226387 3.81899e-22)
(1.03434 0.0202022 -5.39604e-22)
(1.00756 0.000148703 -3.42087e-23)
(1.00904 8.87046e-05 -6.11574e-22)
(1.00805 7.18259e-05 -8.57384e-22)
(1.05573 -0.00337039 -2.29061e-21)
(1.05732 -0.00404159 1.27864e-21)
(1.01941 0.00066714 -1.41907e-23)
(1.01979 0.00048301 5.98842e-23)
(1.01927 0.000506374 -2.25168e-23)
(1.0194 0.000932645 0)
(1.01901 0.000853924 9.55905e-23)
(1.05509 0.00621109 3.31361e-21)
(1.05467 0.00449398 -2.07543e-21)
(1.10584 -0.209914 9.94368e-21)
(1.12047 -0.230423 6.78491e-22)
(1.02001 -0.0186564 2.24117e-22)
(1.01879 -0.0179708 3.55143e-22)
(1.01987 -0.0172392 6.47723e-22)
(1.01202 0.00365636 1.23501e-21)
(1.012 0.00311918 1.91648e-22)
(1.01482 0.00196669 1.59868e-21)
(1.01485 0.00211321 -7.45657e-23)
(1.01455 0.00200859 7.25538e-22)
(1.05873 -0.0222804 -9.72378e-22)
(1.05778 -0.0200536 4.31382e-22)
(1.05614 -0.022368 -9.76619e-22)
(1.0251 -0.000192331 4.18104e-21)
(1.02534 3.25128e-05 1.99819e-21)
(1.02486 4.33642e-05 0)
(1.04236 -0.0306585 -1.00508e-21)
(1.0429 -0.00580461 -2.10696e-21)
(1.03135 -0.0201539 -7.39714e-21)
(1.04287 -0.0548935 7.81056e-21)
(1.052 -0.0409273 4.06916e-21)
(1.01974 -0.0044332 0)
(0.963357 -0.130578 -2.78347e-22)
(0.951679 -0.133148 5.2597e-22)
(1.01941 -0.00022276 -1.99564e-22)
(1.01937 -0.000195527 7.9573e-22)
(1.0194 -0.000161093 -3.01814e-22)
(1.04427 -0.0136957 -3.14598e-21)
(1.02246 -0.00245187 5.3757e-22)
(1.02173 -0.00179113 -5.11466e-23)
(1.01858 0.00117965 -1.25456e-23)
(1.01827 0.00111577 -1.19299e-22)
(1.01862 0.000999562 -1.07452e-22)
(1.0086 -0.000101153 -8.13065e-22)
(1.00627 -5.55601e-05 -8.97851e-23)
(1.00858 -5.1473e-05 1.01295e-21)
(1.01135 -0.000235499 -1.96357e-22)
(1.01051 -0.000116901 -2.25583e-22)
(1.02451 -0.000893234 -1.61571e-21)
(1.02489 -0.000843464 -4.56282e-21)
(1.0312 -0.0111743 -1.89078e-21)
(1.03063 -0.0105351 -1.79383e-21)
(1.05347 -0.0028461 -2.5767e-21)
(1.05207 -0.00294796 -1.51993e-22)
(1.05295 -0.00362915 -3.19546e-21)
(1.01237 -0.000439213 -1.71923e-22)
(1.01206 -0.000335469 -4.44484e-23)
(1.01259 -0.000488883 -2.31333e-22)
(1.02637 -8.83144e-06 -1.88316e-21)
(1.02689 -3.56319e-05 -2.52167e-21)
(1.02267 0.00123478 -3.01287e-21)
(0.926088 0.213749 -3.84445e-21)
(0.931872 0.195149 -3.23263e-23)
(1.01618 -0.0186674 1.00443e-22)
(1.0148 -0.018901 -3.93557e-23)
(1.0153 -0.0175635 4.98784e-23)
(1.00689 -0.0001902 -1.24239e-21)
(1.01139 9.64797e-05 0)
(1.00958 0.000172401 -1.09758e-22)
(1.01045 0.000117609 3.42354e-22)
(1.01039 -0.00911189 0)
(1.00998 -0.0104986 -9.19675e-22)
(1.03954 -0.00599514 4.27615e-21)
(1.03985 -0.00663124 -9.39863e-22)
(1.03896 -0.00648815 -9.0609e-22)
(1.05474 -0.00270865 -1.36538e-21)
(1.05363 -0.00182993 0)
(1.01913 -0.00053353 0)
(1.01918 -0.000622243 -1.16956e-21)
(1.01923 -0.000525707 2.39565e-21)
(1.04028 -0.343465 -9.59713e-22)
(1.034 -0.311007 5.18522e-21)
(1.06658 -0.332851 1.89064e-20)
(1.01399 -0.0034765 1.13468e-21)
(0.822008 0.0793978 4.40893e-21)
(0.827122 0.0257506 1.41922e-20)
(0.806105 0.0467361 2.35581e-21)
(0.941055 0.269409 2.5012e-22)
(0.932958 0.271255 6.83465e-21)
(0.932837 0.27448 1.12701e-20)
(1.00642 7.9784e-06 -5.98016e-22)
(1.00833 9.03068e-06 -6.09191e-22)
(1.00881 -5.06535e-05 0)
(1.0096 -0.000167771 -3.63652e-22)
(1.01039 -0.000261412 -8.65485e-23)
(1.01106 0.00239096 -8.69901e-22)
(1.01088 0.00200664 9.53734e-23)
(1.01066 0.00245208 -1.01916e-21)
(1.05956 -0.0245115 3.94618e-22)
(1.06113 -0.0219021 -1.05166e-21)
(1.05206 -0.0101169 4.36468e-22)
(1.05213 -0.00902801 -4.67877e-21)
(1.05074 -0.00987897 2.69949e-21)
(1.02206 -0.00309931 2.94222e-22)
(1.02119 -0.00305543 -4.84633e-22)
(1.02165 -0.00368673 -1.45029e-21)
(0.824029 0.123639 1.0754e-20)
(0.84013 0.106719 6.9996e-21)
(1.01902 -0.000228491 -3.15383e-21)
(1.0186 -0.000298401 6.71054e-22)
(1.01911 -4.15228e-05 -3.68462e-22)
(1.01129 0.00276197 6.33267e-22)
(1.01133 0.00231995 4.78717e-23)
(1.05208 -0.0112872 1.57803e-21)
(1.05348 -0.0104403 2.71464e-21)
(1.02958 -0.0137288 9.78975e-23)
(1.03049 -0.0136391 -9.04388e-24)
(1.03011 -0.0145351 9.24398e-24)
(1.03022 -0.00703466 0)
(1.0296 -0.00680431 -2.02686e-21)
(1.03019 -0.00650642 -2.58963e-21)
(1.00545 0.000610008 -1.06385e-21)
(1.00475 -0.000805157 1.32394e-21)
(0.956686 0.0290735 0)
(1.01691 -0.00206505 4.37014e-22)
(1.01714 -0.00188771 -5.82308e-22)
(1.01718 -0.00202744 3.76557e-22)
(1.05683 -0.018232 2.30867e-21)
(1.05456 -0.018316 -1.39301e-22)
(1.05575 -0.016458 1.07186e-21)
(1.04379 -0.00320607 -1.53699e-21)
(1.04318 -0.0028147 1.59007e-21)
(1.0161 -0.0024278 5.60032e-23)
(1.01628 -0.00238086 2.77753e-24)
(1.01623 -0.00239849 4.76633e-22)
(1.0727 -0.00577781 1.82521e-21)
(1.17333 -0.040986 -3.41357e-21)
(1.19554 -0.0344773 -1.93832e-20)
(1.20967 -0.061986 -1.92073e-21)
(1.0658 -0.020208 0)
(1.06496 -0.00949867 5.59995e-23)
(1.02036 0.000311065 -3.32311e-22)
(1.02052 0.000646787 -1.24573e-22)
(0.758422 -0.17358 2.93968e-21)
(0.824556 -0.171035 -1.04986e-20)
(1.04018 -0.00731224 -3.40286e-21)
(1.0405 -0.0080302 7.50065e-22)
(1.03953 -0.00787355 -2.93755e-21)
(0.849941 0.270506 -7.06718e-22)
(0.842924 0.254264 -5.05819e-22)
(1.0735 0.0373497 0)
(1.07001 0.0425703 0)
(1.0162 0.00205591 -2.12125e-22)
(1.01579 0.00202099 -1.73593e-23)
(1.01607 0.00184026 5.43104e-23)
(1.0463 0.00230216 -5.00133e-22)
(1.04686 0.00203801 5.95196e-21)
(1.07764 0.0326679 0)
(1.00844 -0.00487038 -9.40781e-22)
(1.00867 -0.00600154 0)
(0.994729 -0.0119073 -1.32304e-21)
(0.994845 -0.0149853 1.10029e-21)
(1.01753 0.00729044 -2.29248e-21)
(1.0191 0.00380909 -1.65846e-21)
(1.01495 0.00484938 5.00588e-21)
(1.01329 -0.00158742 0)
(1.01323 -0.00148211 5.24898e-22)
(1.01315 -0.00148875 0)
(1.01291 -0.000320077 -9.33332e-22)
(1.01425 -0.000675541 9.34684e-23)
(1.02993 0.00184943 -6.07937e-22)
(1.02995 0.00147455 -4.02388e-21)
(1.00949 9.73921e-06 3.71652e-22)
(1.00955 2.81386e-06 -1.63903e-22)
(1.00838 1.9912e-05 -1.72246e-21)
(1.02191 0.00669858 -1.70345e-21)
(1.02035 0.00641625 -9.98219e-22)
(1.17954 0.0225526 -1.09047e-21)
(1.17017 0.0123007 0)
(1.16754 0.0276563 -1.4736e-22)
(1.01866 -0.00574607 -1.6925e-22)
(1.01893 -0.00596461 -2.99506e-23)
(1.01592 -0.00245658 3.47837e-22)
(1.01599 -0.00249059 3.45967e-22)
(1.02835 -0.343984 -3.46458e-20)
(1.0065 -0.00397772 -1.63117e-22)
(1.00749 -0.00324006 -1.90872e-21)
(1.01878 0.00424615 1.29376e-21)
(1.01789 0.0038751 1.96686e-21)
(1.02018 9.00162e-05 3.80549e-22)
(1.03914 -0.0126999 -4.78776e-22)
(1.04028 -0.0129739 9.11207e-22)
(1.03975 -0.0120171 3.31143e-21)
(1.01334 -0.00172299 -5.86509e-22)
(1.17093 0.0413263 9.83933e-21)
(1.03925 -0.00538822 1.36152e-21)
(1.03894 -0.00479055 -3.62795e-21)
(1.03837 -0.00523207 -3.47858e-21)
(1.02639 -0.00281211 0)
(1.02662 -0.00302498 0)
(1.02619 -0.00310001 0)
(1.02801 -0.0115273 -6.72878e-23)
(1.02852 -0.0122025 -1.6041e-22)
(1.02768 -0.0122391 -1.24663e-21)
(1.00535 -0.00482166 1.27054e-21)
(0.878841 -0.189641 1.75051e-21)
(0.864099 -0.177639 1.65968e-21)
(0.883713 -0.175448 -1.89218e-22)
(1.03259 -0.0025003 2.41872e-22)
(1.03212 -0.00287928 -1.98262e-21)
(1.03637 -0.0597616 -1.00839e-21)
(1.03468 -0.0552843 -3.25022e-22)
(1.03181 -0.059061 -3.90135e-22)
(1.01753 0.00126578 -1.3716e-23)
(1.04462 0.00837557 -2.62349e-21)
(1.04464 0.00663574 -5.68437e-21)
(1.0461 0.00804904 -1.24334e-21)
(0.873518 0.102883 0)
(0.807717 0.0948769 0)
(0.983798 -0.0239696 0)
(0.990381 -0.0199732 -4.73752e-21)
(1.04419 0.0102969 -2.44081e-21)
(1.04248 0.00869025 6.48289e-22)
(1.03796 -0.01218 -4.66577e-22)
(1.0382 -0.0133122 -1.83731e-21)
(1.0125 -0.0139649 1.18162e-21)
(1.01226 -0.0122013 -1.0337e-21)
(1.01113 -0.013188 -1.88852e-22)
(1.18549 -0.00964324 4.56667e-21)
(1.1301 0.0270563 -5.90728e-21)
(1.00829 -0.000187685 2.34819e-22)
(1.00971 -8.89667e-05 -6.98664e-22)
(0.881421 0.164298 -3.76734e-21)
(0.883133 0.165077 -3.69787e-21)
(1.00659 0.000642703 -4.38148e-22)
(1.00619 0.00184941 -2.14887e-21)
(1.01201 0.000375689 6.48561e-22)
(1.01266 0.000435618 6.767e-22)
(0.951563 0.266623 -6.72585e-21)
(0.949455 0.261583 -1.21059e-20)
(0.997259 -0.0112435 -1.75612e-21)
(0.994784 -0.00887058 -2.65367e-21)
(1.14177 -0.0400355 -5.29014e-21)
(1.10323 0.000590404 1.05404e-21)
(1.02608 -0.0026324 -2.32377e-21)
(1.02654 -0.002588 -2.37214e-21)
(1.0351 -0.00878962 -6.8556e-21)
(1.03558 -0.011844 -8.592e-21)
(1.00709 -0.164546 0)
(1.00313 -0.177512 0)
(1.01313 0.00817104 -7.32418e-22)
(1.01453 0.00977048 8.1654e-23)
(1.01486 0.00785163 6.05843e-22)
(1.0174 -0.00475692 -1.35794e-22)
(1.01717 -0.00455789 4.94889e-22)
(1.01736 -0.00451251 -6.42723e-22)
(0.920594 0.2333 1.21445e-20)
(1.04803 0.000139713 -2.9941e-21)
(1.04794 1.72794e-05 -6.68402e-21)
(1.04803 5.28365e-05 -3.21807e-21)