/*--------------------------------*- C++ -*----------------------------------*\
| =========                 |                                                 |
| \\      /  F ield         | OpenFOAM: The Open Source CFD Toolbox           |
|  \\    /   O peration     | Version:  v2012                                 |
|   \\  /    A nd           | Website:  www.openfoam.com                      |
|    \\/     M anipulation  |                                                 |
\*---------------------------------------------------------------------------*/
FoamFile
{
    version     2.0;
    format      ascii;
    class       surfaceVectorField;
    location    "900";
    object      Uf_0;
}
// * * * * * * * * * * * * * * * * * * * * * * * * * * * * * * * * * * * * * //

dimensions      [0 1 -1 0 0 0 0];


internalField   nonuniform List<vector> 
14516
(
(1.13742 0.00834101 0)
(1.13693 0.018972 0)
(1.12531 0.0117173 -3.6889e-22)
(1.00699 -0.0530577 3.67678e-21)
(0.995549 -0.0814503 1.21412e-21)
(1.0146 -0.0771289 1.55195e-21)
(1.13559 -0.00215487 0)
(1.15267 0.00470505 9.53011e-22)
(1.0155 -0.00117028 0)
(1.01553 -0.00127847 -1.21782e-22)
(1.01565 -0.00118644 -3.44764e-22)
(0.549141 0.287488 -1.26123e-20)
(0.586065 0.30934 -3.52652e-21)
(0.547047 0.297704 -1.39949e-21)
(1.00824 -0.0183555 5.8858e-22)
(1.0099 -0.0187787 -5.56853e-22)
(1.00956 -0.0169008 7.58316e-22)
(1.00969 -0.000113272 -6.40594e-23)
(1.01059 -0.000296466 1.22049e-22)
(1.01131 -0.00041545 -4.81006e-23)
(1.01369 -0.00193989 3.24155e-22)
(1.01359 -0.00180807 2.08136e-22)
(1.01376 -0.00187831 5.40265e-22)
(1.03214 0.00192356 -5.89769e-22)
(1.03212 0.00235404 5.31754e-21)
(1.03277 0.0019693 -4.46932e-21)
(0.561377 0.27682 9.434e-21)
(0.529703 0.263497 6.15913e-22)
(1.02702 0.00259134 0)
(1.02348 0.0021272 -4.61444e-21)
(1.0268 -0.00119965 -4.801e-21)
(0.88827 -0.0548087 -8.91817e-22)
(0.888924 -0.0663786 -9.17956e-22)
(0.87292 -0.0633646 -9.79847e-22)
(1.01542 -0.00102004 0)
(1.01534 -0.00112066 -5.5731e-24)
(1.01776 0.00565012 1.69948e-21)
(1.01744 0.00633049 -6.87305e-23)
(1.0168 0.0056323 8.97934e-22)
(1.00403 -6.46559e-05 0)
(1.00407 1.38541e-06 -3.79481e-22)
(1.01794 0.00503713 1.84382e-22)
(1.01803 0.00441722 -7.72686e-22)
(1.01719 0.00455185 7.80982e-23)
(1.03094 0.0039111 0)
(1.02883 0.0046923 1.492e-23)
(1.0291 0.00265684 2.13428e-22)
(1.03306 0.00273124 0)
(1.03272 0.00549198 1.8134e-22)
(1.17692 -0.173806 -1.39476e-20)
(1.15099 -0.126523 1.09947e-20)
(1.14673 -0.16368 1.51178e-20)
(1.0188 0.00560977 7.47566e-22)
(0.984618 -0.123578 -1.02755e-22)
(0.992617 -0.130633 1.10229e-24)
(0.994291 -0.119955 -1.85751e-23)
(1.04309 -0.0165051 0)
(1.04426 -0.0159795 0)
(1.04292 -0.0151772 2.42511e-22)
(0.940973 -0.0857042 -1.83377e-22)
(0.946285 -0.0944668 -1.23808e-24)
(0.931143 -0.0945032 -1.02265e-22)
(1.01771 0.00108488 -5.05226e-23)
(1.01746 0.00114125 2.64211e-23)
(1.02235 0.00173129 -2.07427e-22)
(1.022 0.00267351 -2.69784e-22)
(1.02356 0.00267084 -3.80776e-22)
(1.01519 -0.000789861 4.9989e-23)
(1.01545 -0.000883905 -3.93126e-22)
(1.01932 0.00316102 -1.60694e-21)
(1.0196 0.00383286 -1.56309e-21)
(1.02037 0.00332564 -1.23347e-21)
(1.02167 0.0046645 -2.36292e-21)
(1.0212 0.00569 2.96265e-22)
(1.02038 0.0046914 -1.84643e-21)
(1.05205 0.01994 -2.6062e-21)
(1.05034 0.0176567 -2.54729e-21)
(1.0536 0.0182599 -8.14941e-22)
(1.03149 0.00185689 -3.95741e-21)
(1.03211 0.00148006 0)
(0.972491 -0.0202439 7.95919e-21)
(0.96919 -0.0226774 1.43731e-21)
(0.97462 -0.0249286 2.67596e-21)
(0.936345 -0.0745258 2.8236e-22)
(0.951423 -0.0759235 -1.84992e-22)
(0.898675 0.210738 -3.2282e-22)
(0.912439 0.222518 -4.4238e-21)
(0.894018 0.232441 7.03898e-22)
(1.00751 -1.05523e-05 0)
(1.00746 -2.95341e-05 0)
(1.0053 2.24614e-06 0)
(1.05428 0.0232578 -5.32301e-22)
(1.05746 0.0261896 -2.14309e-22)
(1.05926 0.0230986 0)
(0.987155 -0.156344 8.30462e-22)
(0.996424 -0.166072 2.6182e-21)
(0.982385 -0.169384 7.85438e-22)
(1.00866 -8.9678e-05 -8.59794e-24)
(1.00684 2.00457e-05 4.64103e-22)
(1.04306 -0.0178412 0)
(1.04174 -0.0169639 0)
(1.01427 -0.00277972 3.60138e-22)
(1.01436 -0.00303509 4.42116e-23)
(1.01459 -0.00293587 0)
(1.0109 -0.000157347 4.3239e-22)
(1.01046 -0.000159429 -2.82051e-22)
(1.01136 -0.000143675 -4.89522e-22)
(0.976816 -0.017573 -2.47028e-21)
(0.97168 -0.0137834 1.14113e-21)
(1.00676 -2.36316e-06 -6.37281e-22)
(1.0037 -6.83022e-05 -6.89792e-22)
(1.01396 -0.000640325 5.7262e-22)
(1.01457 -0.000618131 -3.93735e-22)
(1.01394 -0.000609465 7.05141e-22)
(1.01037 -0.000218494 -2.32295e-22)
(1.00953 -0.000255939 1.48638e-23)
(1.01127 -0.000208948 0)
(1.01165 -0.000367679 3.2681e-22)
(1.01411 -0.000555502 6.46986e-22)
(1.01495 -0.000734489 2.16622e-22)
(1.04964 0.0228907 7.98072e-22)
(0.934267 0.0615457 -2.71248e-22)
(0.934824 0.0735278 5.86525e-21)
(0.947185 0.0647198 -3.00966e-21)
(0.921171 0.0830375 -1.65537e-21)
(0.908937 0.0765276 -2.02664e-21)
(0.932324 0.0731292 -1.72014e-21)
(1.01556 -0.00140788 -1.7022e-22)
(1.01543 -0.00135744 -1.31569e-22)
(1.06028 0.0300586 -2.1193e-22)
(1.05401 0.0296286 -3.75655e-23)
(1.024 0.0137944 -5.57189e-21)
(1.02087 0.010982 9.76777e-22)
(1.02556 0.00937524 -6.94391e-21)
(1.01375 -0.022176 4.70278e-24)
(1.01213 -0.022388 0)
(1.01335 -0.0240717 0)
(1.0335 -0.00305894 2.30885e-22)
(1.03281 -0.00296773 5.64453e-21)
(1.03305 -0.00351902 5.80311e-21)
(0.969494 0.0953035 -1.28195e-20)
(0.925092 0.0910142 -1.11273e-20)
(1.00755 0.0909678 -7.41753e-21)
(0.912415 -0.15734 -2.53717e-22)
(0.904981 -0.169344 4.32985e-22)
(0.896976 -0.15807 -3.19078e-22)
(1.02471 0.00197022 0)
(1.02423 0.00189399 1.60518e-23)
(0.996455 -0.0311116 0)
(1.00337 -0.0334084 -2.86085e-21)
(1.00168 -0.0259775 -5.4378e-21)
(0.868914 0.234892 2.48627e-21)
(0.8607 0.25306 3.18301e-21)
(0.873443 0.247537 2.33994e-22)
(1.01421 -0.00262021 4.45459e-22)
(1.01404 -0.00263846 3.01441e-22)
(1.00898 -0.000149185 -4.64647e-22)
(1.00835 -4.2391e-05 -3.56081e-22)
(1.00985 -0.000208015 -8.98886e-22)
(1.01937 -0.0240889 -6.03184e-23)
(1.01794 -0.0246068 -1.24611e-22)
(1.01939 -0.0259955 -1.57646e-22)
(0.845434 0.146795 0)
(0.839002 0.161281 -8.91461e-23)
(0.829677 0.135425 0)
(1.01731 -0.000425475 0)
(1.01791 -0.000565334 0)
(1.017 -0.000421634 -1.20119e-21)
(0.476519 0.278328 2.59905e-20)
(0.533975 0.306492 -1.47873e-21)
(0.894371 0.155986 1.16482e-21)
(0.908533 0.171586 -1.03914e-20)
(0.914776 0.15043 1.30377e-21)
(0.852374 0.129152 0)
(0.862866 0.149625 -3.94024e-23)
(0.859374 0.117746 1.22095e-22)
(0.873008 0.108282 1.26574e-22)
(0.873296 0.122765 1.46334e-22)
(0.887764 -0.0437506 0)
(0.899426 -0.0493187 7.34758e-23)
(1.02762 0.00589071 -2.55666e-21)
(1.03047 0.00272533 0)
(0.925162 0.0981582 1.09152e-20)
(1.01203 0.104295 -5.94765e-21)
(1.0124 0.000195206 5.95386e-25)
(1.01282 0.000251531 -1.19598e-23)
(1.01362 0.000391096 0)
(1.01744 -0.00527974 -5.95571e-22)
(1.01769 -0.0055344 -8.83645e-22)
(1.0174 -0.00556795 -2.22815e-22)
(1.07081 -0.00955999 -1.91849e-22)
(1.0679 -0.0107359 -1.77091e-24)
(1.06937 0.00187868 1.89598e-22)
(1.06473 0.0318357 1.4229e-22)
(1.06104 0.0368968 6.58645e-22)
(0.878148 0.219333 -4.39754e-22)
(0.866829 0.221277 4.86009e-21)
(1.02502 0.00175174 0)
(1.02535 0.00151459 0)
(1.02478 0.00147318 0)
(1.02322 -0.00091558 9.31725e-23)
(1.02285 -0.00159738 1.60533e-22)
(1.02404 -0.00143331 -1.37224e-22)
(1.00867 0.0112776 1.71734e-21)
(1.00815 0.00954279 2.51305e-21)
(1.00977 0.00998154 -1.36037e-21)
(1.01993 0.00843678 -7.54929e-24)
(1.01839 0.00794753 2.43606e-21)
(1.01956 0.00715089 -1.54782e-21)
(0.876841 0.16282 2.70315e-21)
(0.884278 0.141205 6.15178e-23)
(1.00494 0.00601545 0)
(1.00518 0.00444893 -5.60435e-22)
(1.00646 0.00554004 -1.03162e-21)
(0.962225 -0.0828159 2.47117e-21)
(0.956177 -0.107944 -3.06893e-21)
(0.94446 -0.0851296 7.5207e-21)
(0.959502 0.00996187 1.83112e-22)
(0.953639 0.0166379 4.60758e-21)
(0.966008 0.015755 -1.70361e-21)
(0.98135 -0.0159547 -2.91472e-22)
(0.982159 -0.0206216 1.04268e-21)
(0.938833 0.0415178 1.10094e-21)
(0.936212 0.0515664 -3.56652e-21)
(0.949999 0.0460776 2.42141e-21)
(1.02012 0.0100939 0)
(1.02165 0.00892016 0)
(1.02562 0.00129114 0)
(1.02588 0.00104196 2.21988e-21)
(1.02533 0.00101614 0)
(1.01948 -0.0224374 2.12896e-22)
(1.01971 -0.0207279 -1.57472e-22)
(1.01838 -0.0210166 7.04233e-23)
(1.00404 0.000448685 0)
(1.00322 0.00186508 0)
(1.00235 0.000147493 3.17016e-22)
(0.995594 -0.0275243 2.06556e-21)
(1.01657 -0.0268971 7.19008e-21)
(0.426487 0.0894675 -1.25855e-20)
(0.418149 0.127337 -5.26344e-21)
(0.468965 0.106366 -2.22734e-21)
(1.01175 -0.00412452 -9.99884e-22)
(1.01175 -0.00465563 -3.3835e-23)
(1.01131 -0.00415738 -1.00838e-21)
(0.930835 -0.0638882 -7.44524e-22)
(0.91926 -0.0732666 -2.54911e-21)
(1.02085 -0.0235596 1.9471e-22)
(0.953422 0.00335666 9.5295e-22)
(0.965369 0.00373115 7.43544e-21)
(0.919461 -0.146445 1.73631e-23)
(0.926832 -0.156206 2.47631e-22)
(0.978463 -0.083136 2.2636e-21)
(0.968081 -0.0524232 5.43366e-21)
(1.01215 -0.00400149 0)
(1.01177 -0.00364717 -4.81849e-22)
(1.01062 -0.000690045 -2.59042e-23)
(1.01051 -0.000950936 -4.42217e-22)
(1.01075 -0.000951564 7.14297e-22)
(1.0105 -0.000375464 -1.32653e-21)
(1.01071 -0.000408639 1.5817e-21)
(1.0076 -0.00561276 0)
(1.00652 -0.00517287 0)
(1.00678 -0.00663503 8.36448e-22)
(1.0156 -0.00186044 4.55114e-22)
(1.01568 -0.00218707 -5.42211e-24)
(1.01605 -0.00201175 4.5505e-22)
(1.0152 -0.00173176 4.32591e-22)
(1.01552 -0.00157756 9.09724e-22)
(1.02244 -0.000504183 -1.76634e-22)
(1.02343 -0.000187948 2.23434e-22)
(0.98508 -0.0146789 0)
(0.980953 -0.0110988 3.10695e-21)
(1.0203 -0.0196685 6.9272e-22)
(1.02107 -0.0207581 -6.52267e-23)
(1.00881 -9.82865e-06 -1.7406e-22)
(1.00941 -0.000128701 8.37649e-22)
(1.01028 -0.000168638 0)
(1.01429 -0.0204486 -3.64228e-23)
(1.01541 -0.0218295 -1.24585e-22)
(0.948167 0.112045 -9.75597e-22)
(0.95896 0.119453 1.39503e-20)
(0.961239 0.102791 7.42858e-21)
(1.01215 0.000206271 4.29193e-24)
(1.011 7.34351e-05 -4.93603e-23)
(0.950319 -0.113144 3.3437e-22)
(0.944591 -0.104722 -6.133e-22)
(0.938571 -0.114563 -3.8723e-23)
(1.02256 0.00167762 0)
(1.02292 0.0016734 0)
(0.930657 -0.202135 -1.22347e-21)
(0.922321 -0.190287 2.14428e-21)
(0.915897 -0.201476 -3.50437e-21)
(1.02755 0.0163537 -2.80205e-22)
(1.02304 0.0182092 1.95363e-22)
(1.02527 0.00202131 0)
(0.941698 0.20728 0)
(0.951678 0.218659 0)
(0.958951 0.201093 8.12357e-22)
(1.06927 0.034687 1.31853e-22)
(1.06784 0.0278402 -1.38401e-21)
(1.00477 0.0078689 0)
(1.0032 0.00667262 -6.22193e-22)
(0.942256 -0.0556844 -3.44868e-21)
(0.926156 -0.0524968 -6.18991e-22)
(0.94083 0.104147 -1.04493e-20)
(0.933699 0.119971 3.15051e-22)
(1.00756 0.000128002 1.02898e-22)
(1.00466 4.26204e-05 1.22249e-22)
(1.0048 3.81063e-05 8.17961e-23)
(1.02398 -0.00187374 -1.66512e-21)
(1.02437 -0.00200556 -9.15773e-23)
(1.02427 -0.00171461 3.63914e-23)
(1.00653 -0.017423 3.27612e-22)
(1.00679 -0.019586 2.88849e-22)
(1.03838 -0.00370098 -3.4951e-21)
(1.03871 -0.00429562 -3.45559e-21)
(1.0378 -0.00411364 7.14906e-22)
(0.974157 -0.127108 -5.18891e-23)
(0.977695 -0.116818 -1.79547e-22)
(1.04525 -0.011856 6.54638e-21)
(1.04725 -0.0116436 3.09484e-21)
(1.04602 -0.0100587 -4.20479e-21)
(0.943596 0.0323579 1.25344e-21)
(0.928669 0.0360833 0)
(1.00925 0.0131771 1.15646e-21)
(1.00728 0.0128373 6.64704e-22)
(1.01931 -0.00460163 1.81349e-21)
(1.01943 -0.00439594 2.21326e-21)
(1.01911 -0.00439209 1.0551e-21)
(1.01083 0.000130351 1.89811e-22)
(1.01035 0.000147703 9.79915e-23)
(1.01203 0.000199929 1.53788e-22)
(1.02589 0.00155744 0)
(1.01922 -0.00475411 6.95608e-22)
(1.01952 -0.00478902 2.25467e-22)
(1.01119 -0.00995514 4.86556e-22)
(1.0122 -0.0108489 0)
(1.01229 -0.00946322 0)
(1.03095 0.00183009 -5.4361e-24)
(1.03105 0.00220159 -3.70011e-21)
(1.02613 0.000793735 -1.82871e-21)
(1.02641 0.000514032 -1.59481e-21)
(1.02585 0.000528131 -2.10388e-22)
(1.0153 -0.000234718 1.21355e-21)
(1.0175 -0.000381538 0)
(1.00972 -0.000101101 -4.58161e-22)
(1.01119 -0.000288698 2.47473e-22)
(1.02242 0.00140641 -1.67719e-21)
(1.02214 0.00161254 -7.7873e-23)
(1.01295 0.000529259 -2.22898e-22)
(1.01311 0.000592108 -5.57102e-22)
(1.01295 0.000557124 -9.26093e-22)
(1.0237 -0.00200639 -2.92741e-21)
(1.02361 -0.00172474 1.16921e-22)
(1.02281 -3.83226e-05 -2.37293e-22)
(1.02272 0.000859044 5.03808e-22)
(1.02402 0.000514544 1.56806e-23)
(1.01349 -0.000671542 -8.44847e-23)
(1.01371 -0.000692996 0)
(1.01337 -0.000655461 0)
(1.01025 0.000880869 8.96579e-22)
(1.01049 0.0010771 4.71933e-22)
(1.01033 0.00143038 4.26557e-22)
(1.0182 0.00719588 -8.3413e-22)
(1.01709 0.0070373 -1.73556e-21)
(1.01836 0.00909782 -8.84294e-22)
(1.01892 0.00815759 -9.18399e-22)
(1.01983 0.00926884 -1.27916e-21)
(1.06176 -0.0442394 8.24966e-24)
(1.05509 -0.0518184 -4.75858e-21)
(1.05506 -0.0596386 -1.10954e-22)
(1.0103 0.000426663 -1.68627e-22)
(1.00997 0.000642888 3.09871e-22)
(1.01318 -0.00353067 8.71099e-22)
(1.01287 -0.00370904 -1.5897e-22)
(1.01341 -0.00396244 -3.57531e-23)
(0.438629 0.0601863 -1.13098e-20)
(0.382164 0.0715444 -5.92096e-22)
(0.681488 0.291236 -9.35549e-22)
(0.69751 0.280589 -6.21026e-22)
(0.675257 0.306357 -5.45083e-21)
(1.01171 0.000243705 8.64271e-22)
(1.00961 3.50085e-05 1.3492e-22)
(0.694353 0.277651 -6.62262e-21)
(0.664042 0.299286 5.56865e-21)
(0.585002 0.277267 8.97565e-21)
(0.58261 0.25188 1.24778e-21)
(1.01349 -0.00333661 -4.58921e-23)
(1.01302 -0.00317355 1.90632e-22)
(1.00963 0.000179816 3.79821e-23)
(1.0095 0.000184725 2.12186e-22)
(1.01178 0.000259486 0)
(1.01112 0.000197701 -3.75686e-22)
(1.01217 0.000337525 0)
(1.02284 -0.000856169 -7.41653e-22)
(1.02188 -0.000364224 -2.2537e-22)
(1.01037 -2.06747e-05 -2.49911e-21)
(1.01054 0.000259297 -7.05716e-22)
(1.01358 -0.000700446 5.30534e-23)
(1.01328 -0.000549626 3.36803e-23)
(1.01382 -0.00207529 2.91948e-22)
(1.01364 -0.00200171 -2.47613e-22)
(1.02159 0.0036414 -4.66128e-22)
(1.02268 0.00440892 -8.65774e-22)
(1.01748 0.00248072 -7.86427e-22)
(1.01725 0.00209635 -4.32546e-22)
(1.01793 0.00212041 -7.84055e-22)
(1.18727 -0.197701 -1.67052e-20)
(1.1704 -0.209042 0)
(1.17021 -0.228219 1.54095e-20)
(1.06785 -0.0353793 3.40123e-21)
(1.07056 -0.0214364 -1.41176e-21)
(1.06572 -0.0355137 5.92436e-21)
(0.9901 -0.143722 0)
(1.00124 -0.138746 8.06742e-22)
(0.921797 0.0580772 -4.28556e-21)
(1.05603 -0.00488555 -1.93725e-21)
(1.05467 -0.00541749 5.72225e-22)
(1.05605 -0.00632427 0)
(1.01843 0.00304558 1.11677e-21)
(1.01907 0.00258808 4.01371e-22)
(1.00982 -0.00448885 0)
(1.00906 -0.00423019 0)
(1.0097 -0.00360882 0)
(1.0151 -0.00338326 -1.607e-22)
(1.01508 -0.00384211 -1.42672e-22)
(1.0153 -0.0033906 -2.92749e-23)
(0.920038 -0.221484 2.89331e-21)
(0.918611 -0.231454 3.38194e-21)
(0.908752 -0.222794 0)
(1.06889 -0.0332396 1.35164e-21)
(1.06385 -0.0490992 7.20963e-22)
(0.92852 -0.218118 -4.21082e-21)
(0.923124 -0.210725 3.28225e-21)
(1.03772 -0.00270112 0)
(1.03807 -0.00325836 0)
(1.03715 -0.00306404 0)
(1.19713 -0.171256 -1.46867e-20)
(1.02643 0.00106469 -1.11284e-21)
(1.01726 0.0012569 -8.25932e-23)
(1.01702 0.00124484 -8.49276e-23)
(1.0171 0.00128339 -7.64278e-23)
(1.01911 -0.00551904 -6.97275e-24)
(1.0194 -0.00572918 -4.02473e-24)
(1.01931 -0.00535377 -4.66211e-22)
(1.04934 0.00143433 5.07135e-22)
(1.04959 0.00201115 2.61762e-21)
(1.04886 0.00169728 2.0753e-23)
(0.707428 -0.190986 4.04637e-21)
(0.58205 -0.221966 -6.49241e-21)
(0.651837 -0.215499 -6.19586e-21)
(1.04283 0.00169428 -4.23954e-21)
(1.04218 0.00174403 4.26735e-22)
(1.04251 0.00125321 5.47306e-21)
(1.01019 -0.000279404 -9.57362e-22)
(1.0215 0.00106564 -3.14456e-22)
(0.901203 0.210528 3.50392e-22)
(0.895446 0.217285 6.04749e-21)
(0.901812 0.218248 -2.05003e-22)
(1.01743 -0.00504652 1.2798e-21)
(1.01721 -0.00503507 9.01153e-22)
(0.990078 -0.0267677 0)
(0.990737 -0.0356276 0)
(1.01888 -0.00565014 1.02014e-21)
(1.01886 -0.00527037 4.06758e-22)
(1.02384 -0.0026344 1.37723e-21)
(1.02351 -0.00275718 0)
(1.02388 -0.00296077 0)
(1.01764 0.00288061 5.18658e-22)
(1.01698 0.0027605 0)
(1.03826 -0.00234992 -2.72427e-21)
(1.03739 -0.00218626 0)
(1.01992 0.000202526 5.11341e-24)
(1.01998 0.000118395 -2.17962e-21)
(1.02012 0.000238603 -2.06795e-21)
(0.935396 0.0881393 -1.3741e-22)
(0.912121 0.0935703 0)
(0.95635 -0.121649 3.41485e-22)
(0.961151 -0.111643 4.14313e-22)
(0.843627 0.10825 -6.17516e-22)
(1.04878 0.00100615 1.40088e-21)
(1.04939 0.00101549 -2.25299e-21)
(1.19193 0.00451303 -3.38258e-21)
(1.18931 0.0157712 -2.66548e-22)
(1.19694 -0.00550912 -9.47909e-22)
(1.00886 -5.97327e-05 6.11737e-23)
(1.0086 -0.000864957 6.75835e-22)
(1.00927 -0.00076459 1.28472e-22)
(0.598433 0.29826 2.12025e-22)
(0.60972 0.269728 1.81737e-22)
(1.01295 0.000498532 3.7046e-22)
(1.01268 0.000460115 7.33563e-22)
(1.03048 0.00176149 1.59092e-21)
(1.03095 0.00144721 1.70114e-21)
(1.14861 -0.203381 6.74793e-21)
(1.12685 -0.208186 4.54775e-21)
(1.13017 -0.185622 6.27786e-21)
(0.913265 -0.17918 2.59879e-21)
(0.899146 -0.179907 -2.94853e-21)
(1.01955 -0.00423445 1.22373e-21)
(1.01935 -0.00401081 3.74436e-22)
(1.01966 -0.0040531 1.55828e-21)
(1.02666 0.000245616 5.21379e-24)
(1.02694 0.000519081 4.72587e-21)
(1.02162 -0.000135745 -4.03269e-24)
(1.02148 -0.000669703 -2.44511e-23)
(0.97782 -0.147035 0)
(1.01324 0.00429582 6.43375e-24)
(1.01356 0.00409176 8.53976e-22)
(1.01381 0.00467743 8.81436e-22)
(0.988728 -0.0134565 4.48044e-22)
(0.989056 -0.0173074 0)
(1.04325 -0.00337855 2.07324e-21)
(1.04302 -0.00397215 -2.86148e-21)
(1.04249 -0.0034025 -4.84609e-21)
(1.05402 0.0051208 -1.41279e-21)
(1.05265 0.0043711 6.47781e-22)
(1.05297 0.00596394 3.01892e-21)
(0.951148 0.090401 5.79294e-22)
(0.959309 0.0813356 1.35329e-21)
(0.896633 0.0681332 2.64698e-21)
(0.885341 0.0798992 -3.92682e-22)
(1.03411 -0.00342298 -3.24648e-21)
(1.034 -0.00277088 2.12472e-22)
(1.18161 0.00328653 -1.00448e-20)
(1.15207 0.0300693 4.70476e-22)
(1.0115 0.000269633 2.52948e-22)
(1.01239 0.000313928 0)
(1.01051 -0.0061168 -1.45259e-21)
(1.01105 -0.00692725 -5.11751e-24)
(1.01131 -0.00606657 -9.61818e-22)
(0.908303 0.208887 4.64552e-22)
(0.901958 0.202503 6.26877e-22)
(1.02106 0.000153197 1.02419e-22)
(1.02183 0.000366018 1.25504e-22)
(0.750967 0.0457985 -1.41882e-21)
(0.742816 0.0590702 -1.44028e-20)
(0.737787 0.0112834 7.99796e-22)
(1.0859 0.0406558 -1.02077e-23)
(1.09042 0.0347979 -1.09074e-22)
(1.09539 0.0432588 -1.02568e-22)
(1.02469 -0.000639214 6.03102e-21)
(1.02492 -0.000415554 -2.81345e-21)
(1.02445 -0.000436868 2.52246e-22)
(1.03889 -0.00335105 0)
(1.01984 0.000286976 2.8088e-21)
(1.01974 0.00016264 9.9243e-22)
(0.948114 0.0240242 2.46356e-21)
(0.939966 0.0174736 1.32136e-21)
(1.16754 -0.1868 0)
(1.01084 -0.0206774 0)
(1.01167 -0.018931 1.75723e-22)
(1.01369 -0.00314163 -1.34877e-21)
(1.01346 -0.00282009 -9.49521e-22)
(1.01389 -0.00291775 -8.33499e-22)
(1.08016 0.0391431 1.2818e-22)
(1.08136 0.0465929 2.06958e-21)
(1.03404 0.00526991 4.95091e-23)
(1.03291 0.00788962 5.55695e-21)
(1.03582 0.00748544 7.99905e-22)
(1.01796 0.00109138 1.27414e-22)
(1.01799 0.000961292 -2.42624e-23)
(1.01742 0.00120535 8.89019e-23)
(1.01727 0.00118187 2.35349e-23)
(1.04318 0.00198599 0)
(1.04336 0.00145599 -6.26787e-21)
(1.01254 0.000415846 -5.17251e-22)
(1.0128 0.000444261 0)
(1.0124 0.00040106 -4.0197e-23)
(1.0375 -0.00974851 1.05695e-20)
(1.03959 -0.0105751 5.08016e-22)
(1.03909 -0.00825262 -1.63495e-20)
(0.764145 0.0349528 -7.85116e-22)
(0.763323 0.0724447 -1.61788e-21)
(1.0223 0.00119328 -1.25563e-22)
(1.02194 0.00115203 1.45514e-21)
(1.02218 0.000986085 1.48775e-21)
(1.01567 -0.0036331 9.85616e-24)
(1.01557 -0.00357736 1.76876e-22)
(1.01566 -0.00333725 0)
(0.912316 -0.13558 -1.54057e-22)
(0.926016 -0.135592 -7.18831e-22)
(1.00654 -0.00258395 2.82505e-22)
(1.00682 -0.00135993 -1.19037e-21)
(1.00558 -0.00184981 -4.20263e-22)
(0.991714 -0.0125583 2.86806e-22)
(0.988614 -0.00964066 -9.62098e-22)
(1.01517 0.00648946 9.15399e-22)
(1.01608 0.0068162 -2.84607e-23)
(1.01556 0.00598414 -7.84926e-22)
(1.01586 -0.00299258 5.78636e-25)
(1.01594 -0.00284712 -2.32008e-24)
(1.01597 -0.00273921 2.20341e-22)
(0.903571 0.190456 -1.91986e-21)
(0.882612 0.199665 -2.86803e-21)
(1.01574 -0.00364617 7.73623e-23)
(1.01577 -0.00344653 6.68551e-23)
(1.01579 -0.00365766 5.15625e-23)
(1.01252 -0.00387416 -5.03217e-22)
(1.01244 -0.00345034 5.59385e-22)
(1.01344 -0.00170546 2.201e-22)
(1.0135 -0.00166333 4.17925e-22)
(1.02267 -0.00172974 -3.65859e-22)
(1.02384 -0.00149933 -6.34744e-22)
(1.01266 -0.00437718 4.90609e-22)
(1.00864 -0.000135441 5.8044e-23)
(1.00731 1.85596e-05 0)
(1.03137 -0.0105207 1.20313e-21)
(1.03145 -0.009857 4.96e-24)
(1.0321 -0.0104463 1.14538e-21)
(1.04858 -0.00179998 -3.50427e-21)
(1.04797 -0.00161615 -3.58212e-21)
(1.04808 -0.00212067 3.57614e-21)
(1.03127 0.0184396 1.1594e-22)
(1.03155 0.0144341 -7.98892e-22)
(1.04349 -0.0115778 1.46516e-20)
(1.0416 -0.0112754 7.29557e-21)
(1.04284 -0.00978196 3.42384e-21)
(1.01585 -0.00295277 -1.78125e-22)
(1.01579 -0.00296724 1.268e-22)
(1.01585 -0.00283554 -1.20396e-22)
(1.04328 -0.02263 3.15471e-22)
(1.04154 -0.0231427 -8.11432e-22)
(1.0431 -0.024535 2.27288e-22)
(1.01514 -0.00424811 -1.80851e-22)
(1.01537 -0.00418765 -2.10623e-24)
(1.01526 -0.00463861 0)
(1.04919 -0.00185342 0)
(1.04897 -0.00134438 0)
(1.004 -0.0076343 2.38618e-22)
(1.00353 -0.00948012 -3.97387e-22)
(1.00533 -0.00910621 1.76182e-22)
(1.01234 0.00348659 0)
(1.0128 0.00395427 6.54643e-23)
(1.01268 0.0033915 7.49683e-22)
(0.893082 0.18517 2.18887e-21)
(0.90338 0.200446 -3.13751e-21)
(0.903131 0.202139 3.14789e-21)
(1.01569 -0.00390665 -1.49069e-22)
(1.03115 0.0228114 1.72504e-22)
(1.035 0.0203391 2.98361e-22)
(1.00757 0.000148794 -2.1663e-22)
(1.00904 8.88361e-05 -6.39289e-22)
(1.00805 7.19416e-05 -8.55933e-22)
(1.05593 -0.00354458 -6.22739e-21)
(1.05752 -0.0042428 7.76409e-22)
(1.01939 0.000654663 0)
(1.01976 0.000468946 -1.21601e-22)
(1.01924 0.000495751 1.73195e-23)
(1.01938 0.000919177 0)
(1.01899 0.000843813 -9.52195e-23)
(1.05545 0.00608399 2.79886e-21)
(1.055 0.00437167 8.55497e-23)
(1.10395 -0.209999 -3.11033e-21)
(1.11837 -0.230498 -6.99276e-21)
(1.01995 -0.0186556 6.40955e-23)
(1.01873 -0.0179619 -6.85348e-22)
(1.01981 -0.0172381 -4.5832e-22)
(1.01205 0.00366844 3.06887e-22)
(1.01203 0.00313098 -1.91258e-22)
(1.01483 0.00195772 0)
(1.01485 0.00210373 -1.05567e-22)
(1.01456 0.00200071 2.0717e-22)
(1.05872 -0.0225622 1.12105e-21)
(1.05779 -0.0203204 -8.88334e-22)
(1.05613 -0.0226283 -9.10131e-22)
(1.02512 -0.000193964 -4.1771e-21)
(1.02535 3.14873e-05 1.99654e-21)
(1.02487 4.25152e-05 0)
(1.04235 -0.0321347 -4.38894e-22)
(1.043 -0.00733819 -1.19049e-21)
(1.03143 -0.0217729 -2.79109e-21)
(1.04276 -0.0562456 3.9158e-22)
(1.0519 -0.0422308 -1.92383e-21)
(1.01974 -0.00443834 -8.71789e-22)
(0.962581 -0.130244 -3.76821e-23)
(0.950892 -0.132764 2.38367e-23)
(1.01941 -0.000222956 1.02861e-21)
(1.01937 -0.000195609 -6.236e-22)
(1.01941 -0.000161198 0)
(1.0445 -0.0133898 2.68991e-21)
(1.02246 -0.0025111 2.27992e-22)
(1.02175 -0.00184389 8.56169e-22)
(1.01856 0.00117049 -2.54897e-23)
(1.01826 0.00110868 1.41081e-22)
(1.0186 0.00099104 6.34913e-23)
(1.0086 -0.000101333 -6.14661e-22)
(1.00627 -5.56559e-05 6.25568e-22)
(1.00858 -5.16239e-05 5.67877e-22)
(1.01135 -0.000236332 -2.42934e-22)
(1.01051 -0.000117509 1.12356e-21)
(1.02452 -0.000896656 -2.39676e-22)
(1.02491 -0.000846982 4.04553e-21)
(1.03119 -0.0112221 2.34164e-21)
(1.03063 -0.0105788 1.57576e-21)
(1.05366 -0.00298355 2.57854e-21)
(1.05226 -0.00306968 -2.97499e-21)
(1.05313 -0.00376763 -6.93797e-22)
(1.01237 -0.000439299 1.85151e-22)
(1.01206 -0.000335531 -5.23409e-23)
(1.01259 -0.000488978 1.58594e-22)
(1.02638 -1.0267e-05 -4.24262e-21)
(1.0269 -3.72912e-05 -2.0759e-21)
(1.02268 0.00123711 -1.48687e-21)
(0.927095 0.21377 -3.84876e-21)
(0.932902 0.195231 -1.96814e-21)
(1.01612 -0.0186422 -3.61166e-23)
(1.01473 -0.0188666 -1.29717e-22)
(1.01524 -0.0175323 4.60245e-23)
(1.00689 -0.000190209 5.73884e-22)
(1.01139 9.62683e-05 2.11113e-22)
(1.00958 0.000172277 1.39343e-23)
(1.01045 0.000117432 5.33053e-22)
(1.01033 -0.00908035 -2.34678e-22)
(1.00991 -0.0104639 2.04532e-21)
(1.03959 -0.00604777 1.77241e-21)
(1.0399 -0.00668993 -1.60714e-21)
(1.03901 -0.00654249 1.97071e-21)
(1.05494 -0.00286277 -1.55974e-21)
(1.05384 -0.0019647 2.27703e-21)
(1.01914 -0.000534425 7.34977e-22)
(1.01919 -0.000623301 -5.11224e-22)
(1.01924 -0.00052658 -5.61013e-22)
(1.03979 -0.345043 -8.49873e-22)
(1.03459 -0.314834 3.39029e-20)
(1.06591 -0.334218 2.42648e-20)
(1.01397 -0.00347988 -1.00505e-21)
(0.822138 0.0827426 -3.19121e-21)
(0.827102 0.0292885 -6.5736e-21)
(0.806139 0.0500531 -9.3264e-21)
(0.941443 0.269486 0)
(0.933255 0.271273 6.59731e-21)
(0.933013 0.274547 6.52309e-21)
(1.00642 7.82619e-06 -5.735e-22)
(1.00833 8.78984e-06 -1.37535e-22)
(1.00881 -5.0693e-05 -4.18554e-22)
(1.00961 -0.000167808 -1.83408e-22)
(1.0104 -0.000261443 5.67153e-22)
(1.01108 0.00241007 -9.2986e-22)
(1.01089 0.00202737 -4.11506e-22)
(1.01068 0.00247438 -1.52074e-21)
(1.05952 -0.0248072 2.14778e-21)
(1.06113 -0.0222074 6.11653e-22)
(1.05216 -0.0102885 -9.63336e-22)
(1.05224 -0.00919208 -2.18828e-21)
(1.05084 -0.0100364 -5.0469e-21)
(1.02207 -0.00315665 -5.38137e-22)
(1.02119 -0.00310553 -2.82492e-23)
(1.02165 -0.00374101 8.18458e-24)
(0.824282 0.126644 1.28219e-20)
(0.840276 0.110032 -5.14443e-21)
(1.01902 -0.000228472 -1.52948e-21)
(1.01861 -0.000298326 2.24892e-21)
(1.01912 -4.14433e-05 -1.58887e-21)
(1.01131 0.00277875 7.31857e-22)
(1.01135 0.00233573 -4.29535e-22)
(1.05216 -0.0114682 1.11485e-22)
(1.05358 -0.01063 -6.87885e-23)
(1.02955 -0.0137755 0)
(1.03047 -0.0136897 0)
(1.03008 -0.0145861 0)
(1.03023 -0.00706584 4.29138e-21)
(1.02961 -0.00683331 -2.15319e-21)
(1.0302 -0.00653573 -1.3579e-21)
(1.00545 0.000689261 -1.06857e-21)
(1.00475 -0.000721952 0)
(0.956869 0.0294985 -4.4966e-21)
(1.01693 -0.00207529 -2.79235e-22)
(1.01716 -0.00189952 7.60086e-23)
(1.01719 -0.00204059 4.18458e-23)
(1.05686 -0.0184847 -1.09616e-21)
(1.05458 -0.0185499 1.41544e-22)
(1.05579 -0.0166961 -2.60625e-21)
(1.04389 -0.00324728 3.2121e-21)
(1.04327 -0.00284794 5.77516e-21)
(1.01611 -0.0024337 1.38529e-22)
(1.0163 -0.00238777 -3.67256e-22)
(1.01624 -0.00240599 -9.19894e-22)
(1.07268 -0.00663615 -3.38851e-22)
(1.17581 -0.044507 -8.46681e-24)
(1.1974 -0.0375221 3.41015e-23)
(1.2107 -0.0649756 1.54099e-21)
(1.06568 -0.0208283 -1.82841e-22)
(1.06492 -0.0100944 6.63181e-24)
(1.02033 0.000292517 2.11492e-22)
(1.0205 0.000625924 9.95712e-23)
(0.753825 -0.173601 0)
(0.82039 -0.170878 5.76721e-21)
(1.04023 -0.00737717 -5.56753e-21)
(1.04055 -0.00810176 1.77937e-22)
(1.03957 -0.00793979 -1.73298e-21)
(0.851011 0.269939 2.66741e-21)
(0.844075 0.253859 5.45681e-21)
(1.07427 0.036933 0)
(1.07084 0.0421889 -1.82019e-21)
(1.0162 0.00203929 6.24005e-22)
(1.01579 0.00200683 -9.20692e-22)
(1.01607 0.00182517 -4.25878e-22)
(1.0464 0.00235925 6.98678e-21)
(1.04697 0.00210058 -8.24181e-21)
(1.07835 0.0322039 8.23215e-24)
(1.0084 -0.00482183 0)
(1.00862 -0.00595585 -5.53344e-22)
(0.994709 -0.0117201 -8.25306e-22)
(0.994801 -0.0148011 -4.11967e-22)
(1.01813 0.00766061 2.23925e-21)
(1.01965 0.00418417 -5.20016e-21)
(1.01553 0.00526898 9.06539e-22)
(1.01329 -0.00158787 -1.5028e-24)
(1.01322 -0.00148268 -8.23154e-24)
(1.01315 -0.00148888 0)
(1.01291 -0.000320195 1.25774e-21)
(1.01425 -0.000675616 4.62432e-22)
(1.02995 0.00185389 -1.69895e-21)
(1.02997 0.00147761 5.3958e-22)
(1.00949 1.03258e-05 -8.21411e-22)
(1.00955 3.41114e-06 1.47513e-21)
(1.00838 2.0292e-05 -4.987e-22)
(1.02197 0.00665532 7.58263e-22)
(1.0204 0.00638275 7.07341e-23)
(1.18031 0.0209297 -4.38877e-21)
(1.17034 0.0107822 -5.65424e-22)
(1.16804 0.0261812 -1.00226e-20)
(1.01866 -0.00574737 4.57628e-22)
(1.01893 -0.00596632 2.92712e-23)
(1.01593 -0.00246169 4.64057e-22)
(1.016 -0.00249504 2.41299e-22)
(1.02742 -0.343988 -8.4554e-21)
(1.00647 -0.00391186 4.53148e-22)
(1.00747 -0.00318333 -5.69207e-22)
(1.0188 0.00421079 2.6677e-23)
(1.01791 0.003846 -8.3826e-23)
(1.02015 7.49512e-05 1.93286e-22)
(1.03915 -0.0127905 1.18025e-21)
(1.0403 -0.0130719 -2.98089e-21)
(1.03977 -0.0121081 1.13319e-22)
(1.01334 -0.00172347 -1.53447e-24)
(1.17265 0.0394367 5.81203e-22)
(1.0393 -0.00543526 -5.26763e-22)
(1.039 -0.00483182 0)
(1.03842 -0.00527527 0)
(1.0264 -0.00282266 -4.97442e-22)
(1.02663 -0.00303658 -2.28966e-21)
(1.0262 -0.00311145 -2.74747e-21)
(1.02799 -0.0115632 -8.73856e-23)
(1.0285 -0.0122415 -1.80034e-22)
(1.02766 -0.0122746 1.24352e-21)
(1.00531 -0.0047461 -8.65158e-22)
(0.877758 -0.189482 0)
(0.862942 -0.177241 -3.22385e-21)
(0.882589 -0.175306 -1.12357e-21)
(1.03262 -0.00251589 2.82376e-21)
(1.03214 -0.0028964 -6.56232e-22)
(1.03602 -0.0598977 1.1075e-22)
(1.03436 -0.0554074 5.1732e-23)
(1.03146 -0.0591612 -1.41796e-22)
(1.01752 0.00126118 4.55414e-23)
(1.04506 0.00843431 5.33049e-21)
(1.04505 0.00670104 9.20893e-21)
(1.04653 0.00808976 2.64922e-21)
(0.874916 0.103192 7.19107e-21)
(0.808749 0.0954379 6.30631e-21)
(0.98427 -0.0232068 -5.19825e-21)
(0.990875 -0.0192592 0)
(1.04467 0.0103501 2.40963e-21)
(1.04294 0.00877221 -6.45881e-22)
(1.03797 -0.0122617 4.66464e-22)
(1.0382 -0.0133998 1.8823e-22)
(1.01239 -0.0139501 1.05991e-21)
(1.01217 -0.0121849 -1.56135e-21)
(1.01103 -0.01316 -1.55635e-21)
(1.18757 -0.0123939 -6.94166e-22)
(1.13326 0.0239956 1.53236e-20)
(1.00829 -0.000187949 -4.17008e-22)
(1.0097 -8.94355e-05 -1.05732e-22)
(0.882042 0.165709 -5.06018e-21)
(0.883821 0.166254 -1.64877e-21)
(1.0066 0.000711754 -7.19486e-22)
(1.0062 0.00192324 -4.04849e-22)
(1.01201 0.000375081 -2.58747e-22)
(1.01266 0.000434826 -1.46051e-22)
(0.952042 0.266567 7.13922e-21)
(0.950026 0.261645 -4.91941e-21)
(0.997244 -0.0110773 -2.55916e-22)
(0.994784 -0.00868658 -1.5063e-21)
(1.14494 -0.0439716 -3.34744e-23)
(1.10691 -0.00312426 -3.22365e-23)
(1.02609 -0.00264195 4.61968e-21)
(1.02655 -0.00259779 -3.21184e-23)
(1.03544 -0.00846896 1.37573e-20)
(1.03589 -0.0115034 -8.04604e-22)
(1.0061 -0.164365 -1.36643e-22)
(1.0021 -0.177277 1.25685e-21)
(1.01325 0.00820503 -1.45683e-21)
(1.01467 0.00979382 -1.35397e-21)
(1.01498 0.00786942 -5.26406e-22)
(1.0174 -0.00475584 1.79469e-22)
(1.01717 -0.00455656 -1.46368e-22)
(1.01736 -0.00451189 -3.87733e-22)
(0.921526 0.233241 1.20716e-20)
(1.04824 0.000177253 -2.18853e-21)
(1.04813 6.14507e-05 3.12859e-21)