/*--------------------------------*- C++ -*----------------------------------*\
| =========                 |                                                 |
| \\      /  F ield         | OpenFOAM: The Open Source CFD Toolbox           |
|  \\    /   O peration     | Version:  v2012                                 |
|   \\  /    A nd           | Website:  www.openfoam.com                      |
|    \\/     M anipulation  |                                                 |
\*---------------------------------------------------------------------------*/
FoamFile
{
    version     2.0;
    format      ascii;
    class       volVectorField;
    location    "150";
    object      cellDisplacement;
}
// * * * * * * * * * * * * * * * * * * * * * * * * * * * * * * * * * * * * * //

dimensions      [0 1 0 0 0 0 0];


internalField   nonuniform List<vector> 
10042
(
(0 0.00065109 0)
(0 0.00138486 0)
(0 0.00120492 0)
(0 0.000323998 0)
(0 0.000191533 0)
(0 0.00161437 0)
(0 0.000581377 0)
(0 0.0010464 0)
(0 0.000458499 0)
(0 0.000777611 0)
(0 0.0011251 0)
(0 0.00138059 0)
(0 0.000387099 0)
(0 0.00106597 0)
(0 0.00040299 0)
(0 0.00106613 0)
(0 0.00162496 0)
(0 0.00114014 0)
(0 0.000383561 0)
(0 0.000988445 0)
(0 0.000402891 0)
(0 0.000632479 0)
(0 0.000308729 0)
(0 0.00148667 0)
(0 0.000745619 0)
(0 2.58112e-05 0)
(0 0.000781628 0)
(0 0.000293096 0)
(0 0.00161885 0)
(0 0.0015122 0)
(0 0.000102528 0)
(0 0.000245606 0)
(0 0.000423938 0)
(0 0.00040139 0)
(0 0.00105594 0)
(0 0.00108421 0)
(0 5.52237e-05 0)
(0 0.000462893 0)
(0 0.000141318 0)
(0 4.85603e-05 0)
(0 0.00150215 0)
(0 0.000434469 0)
(0 0.000357371 0)
(0 0.00127877 0)
(0 0.000518705 0)
(0 0.00077408 0)
(0 0.000192639 0)
(0 0.000403551 0)
(0 0.000624002 0)
(0 0.000422556 0)
(0 0.000368833 0)
(0 0.00029885 0)
(0 0.00162071 0)
(0 0.000392585 0)
(0 0.000892651 0)
(0 0.000347818 0)
(0 0.000412159 0)
(0 0.00109356 0)
(0 0.000557519 0)
(0 1.40454e-05 0)
(0 0.000643451 0)
(0 0.000830635 0)
(0 0.000357565 0)
(0 0.00101761 0)
(0 0.00145595 0)
(0 0.00109932 0)
(0 0.0010067 0)
(0 0.000728026 0)
(0 0.000205461 0)
(0 0.000712731 0)
(0 0.000370092 0)
(0 0.000812995 0)
(0 0.000739952 0)
(0 0.00054738 0)
(0 0.00108114 0)
(0 0.000359217 0)
(0 0.00146107 0)
(0 0.000199998 0)
(0 0.00146955 0)
(0 0.000370737 0)
(0 0.0012742 0)
(0 0.00149729 0)
(0 4.77669e-05 0)
(0 0.000298681 0)
(0 0.000877206 0)
(0 0.000661753 0)
(0 0.00100411 0)
(0 0.00122081 0)
(0 0.00101577 0)
(0 0.00144932 0)
(0 0.000386666 0)
(0 0.000393464 0)
(0 0.000369108 0)
(0 0.000675555 0)
(0 0.00143499 0)
(0 0.000742646 0)
(0 0.00017144 0)
(0 0.000986967 0)
(0 0.00160018 0)
(0 0.00052279 0)
(0 0.000394017 0)
(0 0.000782522 0)
(0 0.000741556 0)
(0 0.000248574 0)
(0 0.000428198 0)
(0 0.000691336 0)
(0 0.000483023 0)
(0 0.0010532 0)
(0 0.000602002 0)
(0 0.00069082 0)
(0 0.000571579 0)
(0 0.000613336 0)
(0 0.000794214 0)
(0 0.00102548 0)
(0 0.00143937 0)
(0 0.000224297 0)
(0 0.00143397 0)
(0 0.000114341 0)
(0 0.0010756 0)
(0 0.000212293 0)
(0 1.88813e-05 0)
(0 0.00139161 0)
(0 0.00138892 0)
(0 0.000543092 0)
(0 0.00145689 0)
(0 0.00106841 0)
(0 0.00108939 0)
(0 0.000886132 0)
(0 0.000263282 0)
(0 0.00144137 0)
(0 0.00053364 0)
(0 0.00102882 0)
(0 0.00116769 0)
(0 0.000977004 0)
(0 0.000632523 0)
(0 0.000429673 0)
(0 0.00105993 0)
(0 0.000537295 0)
(0 0.000479015 0)
(0 0.00159777 0)
(0 0.000373579 0)
(0 0.000167516 0)
(0 0.00049905 0)
(0 0.000276916 0)
(0 0.000605802 0)
(0 0.000488032 0)
(0 0.000870859 0)
(0 0.000194842 0)
(0 0.000884204 0)
(0 0.00161243 0)
(0 0.00103425 0)
(0 0.000122878 0)
(0 0.000475962 0)
(0 0.00037037 0)
(0 0.00141798 0)
(0 0.000618246 0)
(0 0.000271268 0)
(0 0.000343785 0)
(0 0.00117117 0)
(0 1.74467e-05 0)
(0 0.000111654 0)
(0 3.8305e-05 0)
(0 0.000449686 0)
(0 0.00103921 0)
(0 0.00048512 0)
(0 0.00161535 0)
(0 0.000734792 0)
(0 0.000253648 0)
(0 0.00107515 0)
(0 0.00036845 0)
(0 0.0014104 0)
(0 0.00151797 0)
(0 0.00140306 0)
(0 0.000389988 0)
(0 0.000406374 0)
(0 0.00139593 0)
(0 0.000722965 0)
(0 0.000481524 0)
(0 0.00100765 0)
(0 0.00020401 0)
(0 0.000486472 0)
(0 0.000474568 0)
(0 0.000532304 0)
(0 0.000176483 0)
(0 6.30129e-05 0)
(0 0.000330834 0)
(0 0.000796705 0)
(0 1.32802e-05 0)
(0 0.00037339 0)
(0 0.000157636 0)
(0 0.00137443 0)
(0 0.000428124 0)
(0 0.000560659 0)
(0 0.000472892 0)
(0 0.000899178 0)
(0 0.000384541 0)
(0 0.000208223 0)
(0 0.00138388 0)
(0 0.00017451 0)
(0 0.000266949 0)
(0 0.000259409 0)
(0 0.000371319 0)
(0 0.00147876 0)
(0 0.000117825 0)
(0 0.00160594 0)
(0 0.00114313 0)
(0 0.00144802 0)
(0 0.000381741 0)
(0 0.000576167 0)
(0 0.000981707 0)
(0 0.000243231 0)
(0 0.000130395 0)
(0 0.00148967 0)
(0 0.0014571 0)
(0 8.22813e-05 0)
(0 0.00071101 0)
(0 0.000110479 0)
(0 0.00141542 0)
(0 0.000163133 0)
(0 0.000268714 0)
(0 0.000219288 0)
(0 0.00139315 0)
(0 0.000227298 0)
(0 0.000704736 0)
(0 0.000350229 0)
(0 0.000360756 0)
(0 0.000878386 0)
(0 0.0010571 0)
(0 0.000771986 0)
(0 0.00072908 0)
(0 0.000504326 0)
(0 0.00111568 0)
(0 0.000342176 0)
(0 7.87659e-05 0)
(0 0.000739194 0)
(0 0.00105614 0)
(0 0.0010885 0)
(0 0.000176832 0)
(0 0.00060385 0)
(0 0.00147948 0)
(0 0.00144103 0)
(0 0.00152758 0)
(0 1.61612e-05 0)
(0 4.97892e-05 0)
(0 0.000963726 0)
(0 0.000196511 0)
(0 0.00151738 0)
(0 0.000615083 0)
(0 0.000477962 0)
(0 0.000156163 0)
(0 0.000423039 0)
(0 0.000580305 0)
(0 0.00155719 0)
(0 0.000908296 0)
(0 0.000884158 0)
(0 0.00108332 0)
(0 0.000128179 0)
(0 0.000936928 0)
(0 0.000175573 0)
(0 0.000225663 0)
(0 0.00145928 0)
(0 0.000538051 0)
(0 0.000299799 0)
(0 0.000205524 0)
(0 0.000376981 0)
(0 0.00092862 0)
(0 0.00145227 0)
(0 0.0015483 0)
(0 4.93956e-05 0)
(0 0.00112772 0)
(0 0.000347659 0)
(0 0.000432765 0)
(0 0.00100859 0)
(0 0.000360568 0)
(0 0.000931881 0)
(0 0.00102186 0)
(0 0.000383253 0)
(0 0.000599894 0)
(0 4.83541e-05 0)
(0 0.000916242 0)
(0 0.000317937 0)
(0 0.00154189 0)
(0 0.000198515 0)
(0 0.000389257 0)
(0 1.89707e-05 0)
(0 0.000233356 0)
(0 0.00145154 0)
(0 0.000290911 0)
(0 0.000595402 0)
(0 9.98476e-05 0)
(0 0.000453607 0)
(0 0.00141361 0)
(0 3.08101e-05 0)
(0 0.00155338 0)
(0 0.00146242 0)
(0 0.00103791 0)
(0 0.00110906 0)
(0 0.0010751 0)
(0 0.000340578 0)
(0 0.000113172 0)
(0 0.000486352 0)
(0 0.00146869 0)
(0 9.04344e-06 0)
(0 0.0014288 0)
(0 0.00144513 0)
(0 0.00083147 0)
(0 0.00105965 0)
(0 3.8996e-05 0)
(0 0.0011246 0)
(0 0.00155604 0)
(0 3.90064e-05 0)
(0 0.000948228 0)
(0 0.000720249 0)
(0 0.00103566 0)
(0 0.00141746 0)
(0 0.000577119 0)
(0 0.000198658 0)
(0 5.76313e-05 0)
(0 0.00147452 0)
(0 0.000214777 0)
(0 4.52023e-05 0)
(0 0.000371433 0)
(0 0.00100473 0)
(0 0.000848044 0)
(0 9.84339e-05 0)
(0 6.43798e-05 0)
(0 0.00127924 0)
(0 0.00100677 0)
(0 0.00107115 0)
(0 0.000462409 0)
(0 0.00114282 0)
(0 0.000601416 0)
(0 0.000657285 0)
(0 0.000125828 0)
(0 0.0014599 0)
(0 0.000609915 0)
(0 0.000480624 0)
(0 0.000835415 0)
(0 0.000607616 0)
(0 0.00161273 0)
(0 0.000390848 0)
(0 0.000452118 0)
(0 2.12856e-05 0)
(0 0.00130986 0)
(0 9.024e-05 0)
(0 0.000497004 0)
(0 0.000933368 0)
(0 0.000174039 0)
(0 0.00135893 0)
(0 0.000169058 0)
(0 0.000406247 0)
(0 0.00144234 0)
(0 0.00135893 0)
(0 0.000578633 0)
(0 0.000848537 0)
(0 0.00129945 0)
(0 0.000863882 0)
(0 2.49293e-05 0)
(0 0.000261579 0)
(0 2.0224e-05 0)
(0 0.000674745 0)
(0 5.55804e-05 0)
(0 0.000499901 0)
(0 0.00148848 0)
(0 0.00161521 0)
(0 0.000477984 0)
(0 0.000216728 0)
(0 0.00134071 0)
(0 0.00134062 0)
(0 0.000854729 0)
(0 1.61741e-05 0)
(0 4.53003e-05 0)
(0 0.00103569 0)
(0 8.43935e-07 0)
(0 0.000664628 0)
(0 0.00111018 0)
(0 0.0010396 0)
(0 0.00147233 0)
(0 0.00101298 0)
(0 0.00064967 0)
(0 0.000653066 0)
(0 0.00146227 0)
(0 0.000795288 0)
(0 0.000984127 0)
(0 0.00032596 0)
(0 0.000221537 0)
(0 0.000154676 0)
(0 0.000197681 0)
(0 0.0011554 0)
(0 0.000283416 0)
(0 0.000947205 0)
(0 0.000311455 0)
(0 0.000417429 0)
(0 0.00126711 0)
(0 0.00161232 0)
(0 0.000886999 0)
(0 0.000362409 0)
(0 0.00104601 0)
(0 3.64926e-05 0)
(0 0.000256731 0)
(0 0.000268609 0)
(0 0.000229842 0)
(0 0.000318508 0)
(0 0.000873273 0)
(0 0.000196955 0)
(0 0.000595515 0)
(0 0.000400127 0)
(0 0.000648812 0)
(0 0.00143736 0)
(0 0.000941333 0)
(0 0.00161893 0)
(0 0.00055477 0)
(0 0.00153606 0)
(0 0.000422187 0)
(0 0.000967107 0)
(0 0.00124407 0)
(0 0.00062569 0)
(0 0.00086011 0)
(0 0.00023233 0)
(0 0.0012265 0)
(0 0.000130209 0)
(0 0.00161457 0)
(0 0.000519142 0)
(0 0.000168977 0)
(0 0.000363498 0)
(0 0.00125447 0)
(0 0.000842393 0)
(0 0.00161405 0)
(0 0.000227134 0)
(0 0.00043513 0)
(0 0.00125288 0)
(0 0.000218773 0)
(0 0.000567772 0)
(0 0.00107884 0)
(0 0.000645807 0)
(0 0.000505694 0)
(0 0.00060399 0)
(0 0.00105669 0)
(0 4.25802e-05 0)
(0 0.000334269 0)
(0 0.000265646 0)
(0 0.00140477 0)
(0 0.00116422 0)
(0 0.00036251 0)
(0 0.000420263 0)
(0 5.09055e-05 0)
(0 0.000955762 0)
(0 0.000457933 0)
(0 0.00102756 0)
(0 0.000167216 0)
(0 0.000987081 0)
(0 0.00117051 0)
(0 0.00117947 0)
(0 0.000332049 0)
(0 0.000281774 0)
(0 0.000962512 0)
(0 0.00143243 0)
(0 0.000304802 0)
(0 0.000191199 0)
(0 4.72078e-05 0)
(0 9.03771e-05 0)
(0 0.000387234 0)
(0 0.000871143 0)
(0 0.000894393 0)
(0 0.00113672 0)
(0 1.49856e-05 0)
(0 0.00062838 0)
(0 0.000364469 0)
(0 0.0014108 0)
(0 0.00141882 0)
(0 0.000478281 0)
(0 0.000473034 0)
(0 0.000268469 0)
(0 0.000589086 0)
(0 0.00158255 0)
(0 0.000142713 0)
(0 0.000291855 0)
(0 5.65106e-05 0)
(0 0.00087922 0)
(0 0.000394017 0)
(0 0.00136604 0)
(0 0.000433521 0)
(0 0.00159045 0)
(0 0.000145585 0)
(0 0.000406712 0)
(0 3.37445e-05 0)
(0 0.000969837 0)
(0 0.001613 0)
(0 5.33834e-05 0)
(0 0.000262294 0)
(0 0.000953098 0)
(0 0.0013111 0)
(0 0.000533871 0)
(0 0.00133875 0)
(0 0.00126501 0)
(0 0.000417805 0)
(0 0.000561433 0)
(0 0.00135706 0)
(0 0.00155784 0)
(0 0.00058641 0)
(0 0.000562507 0)
(0 8.9569e-05 0)
(0 0.00153393 0)
(0 0.00132191 0)
(0 0.000574798 0)
(0 0.00157426 0)
(0 0.000138523 0)
(0 3.72956e-05 0)
(0 0.000792067 0)
(0 0.000718211 0)
(0 0.00061489 0)
(0 0.00144348 0)
(0 0.00055964 0)
(0 0.000275545 0)
(0 0.000670731 0)
(0 0.00156464 0)
(0 0.000509986 0)
(0 0.00144786 0)
(0 0.000366251 0)
(0 0.000515513 0)
(0 0.00050665 0)
(0 0.000643489 0)
(0 0.00157052 0)
(0 0.00071198 0)
(0 0.000520666 0)
(0 0.00157497 0)
(0 0.00139279 0)
(0 0.000956888 0)
(0 0.000701112 0)
(0 0.00106599 0)
(0 4.62387e-05 0)
(0 0.000571487 0)
(0 0.000655872 0)
(0 0.000358756 0)
(0 0.00126144 0)
(0 0.000754885 0)
(0 0.00060138 0)
(0 0.00103468 0)
(0 0.000512409 0)
(0 0.000945161 0)
(0 0.000233988 0)
(0 0.000764744 0)
(0 0.000849622 0)
(0 0.000221008 0)
(0 0.000507844 0)
(0 0.000306274 0)
(0 0.000134174 0)
(0 0.000679727 0)
(0 0.00156921 0)
(0 1.76968e-05 0)
(0 0.00152387 0)
(0 0.00055938 0)
(0 0.000445543 0)
(0 0.00121623 0)
(0 0.000478902 0)
(0 0.00139969 0)
(0 0.00140973 0)
(0 0.000120449 0)
(0 0.000356404 0)
(0 0.000169254 0)
(0 0.00036892 0)
(0 0.000934996 0)
(0 0.00067252 0)
(0 0.00125192 0)
(0 0.000684074 0)
(0 8.59665e-06 0)
(0 0.000747221 0)
(0 0.000443475 0)
(0 0.000952913 0)
(0 3.94071e-05 0)
(0 0.000304297 0)
(0 0.000751846 0)
(0 0.00147776 0)
(0 0.000830623 0)
(0 0.00143062 0)
(0 0.000305715 0)
(0 0.000320847 0)
(0 0.000442602 0)
(0 0.000465347 0)
(0 0.000999045 0)
(0 0.000966047 0)
(0 0.000641214 0)
(0 0.000138578 0)
(0 0.0002242 0)
(0 0.000449977 0)
(0 0.000904168 0)
(0 0.000551063 0)
(0 0.000780009 0)
(0 0.000210324 0)
(0 0.000953734 0)
(0 0.0014293 0)
(0 0.000439389 0)
(0 0.000573285 0)
(0 8.83187e-05 0)
(0 0.00138409 0)
(0 0.000225386 0)
(0 0.00099044 0)
(0 0.000210253 0)
(0 0.000616892 0)
(0 0.000467705 0)
(0 0.000106293 0)
(0 0.000651724 0)
(0 0.000247549 0)
(0 0.000200664 0)
(0 0.00106436 0)
(0 0.00112895 0)
(0 0.000986027 0)
(0 1.06858e-06 0)
(0 0.000993541 0)
(0 0.000134772 0)
(0 0.00122126 0)
(0 0.000386878 0)
(0 0.000685309 0)
(0 0.000165965 0)
(0 0.000687953 0)
(0 0.000605483 0)
(0 0.000730496 0)
(0 0.000761226 0)
(0 0.000457961 0)
(0 0.000185024 0)
(0 0.00126093 0)
(0 0.00161214 0)
(0 0.000955939 0)
(0 0.000315383 0)
(0 0.000164768 0)
(0 0.0010831 0)
(0 4.23833e-05 0)
(0 0.00148276 0)
(0 0.00150952 0)
(0 0.00160819 0)
(0 0.000598234 0)
(0 0.00150819 0)
(0 0.00029475 0)
(0 0.000619621 0)
(0 0.00155273 0)
(0 0.00122291 0)
(0 0.00126833 0)
(0 0.000259966 0)
(0 0.000480654 0)
(0 0.00146475 0)
(0 0.000814175 0)
(0 0.000594458 0)
(0 0.000483743 0)
(0 0.000502957 0)
(0 0.000111764 0)
(0 0.00155792 0)
(0 0.000401587 0)
(0 2.86563e-05 0)
(0 0.000299898 0)
(0 0.000669442 0)
(0 0.00106167 0)
(0 3.99944e-05 0)
(0 0.000371913 0)
(0 0.00132899 0)
(0 0.000158392 0)
(0 0.00146269 0)
(0 0.00106833 0)
(0 0.000925826 0)
(0 0.00088811 0)
(0 0.000531443 0)
(0 1.00465e-05 0)
(0 8.21586e-05 0)
(0 0.000894928 0)
(0 0.000579289 0)
(0 0.00155873 0)
(0 0.001029 0)
(0 0.00126619 0)
(0 0.000392855 0)
(0 0.000988801 0)
(0 0.00086334 0)
(0 0.00147653 0)
(0 0.000826864 0)
(0 0.00108495 0)
(0 9.53008e-05 0)
(0 0.000884011 0)
(0 0.00150845 0)
(0 0.000430821 0)
(0 6.85947e-05 0)
(0 0.000896987 0)
(0 2.0036e-05 0)
(0 0.000185086 0)
(0 0.000308026 0)
(0 0.00137589 0)
(0 0.000898153 0)
(0 5.63227e-05 0)
(0 0.000849027 0)
(0 0.00149885 0)
(0 0.000814726 0)
(0 0.000130896 0)
(0 0.00108926 0)
(0 0.000997155 0)
(0 0.000784965 0)
(0 0.000308211 0)
(0 0.00115715 0)
(0 2.32244e-05 0)
(0 0.00129978 0)
(0 0.00124173 0)
(0 0.000269972 0)
(0 0.000208726 0)
(0 0.000285181 0)
(0 0.000524688 0)
(0 0.00014829 0)
(0 6.18837e-05 0)
(0 0.000498965 0)
(0 0.00162253 0)
(0 0.00132177 0)
(0 0.000392043 0)
(0 0.000958149 0)
(0 0.000986969 0)
(0 0.000453377 0)
(0 0.000301909 0)
(0 0.000595427 0)
(0 2.49907e-05 0)
(0 0.000384821 0)
(0 0.000452931 0)
(0 0.00127785 0)
(0 0.000401636 0)
(0 0.00159982 0)
(0 0.000245349 0)
(0 0.00120374 0)
(0 9.17966e-05 0)
(0 3.48217e-05 0)
(0 0.000358825 0)
(0 0.000560104 0)
(0 0.00112163 0)
(0 0.000331883 0)
(0 0.000105056 0)
(0 0.0014253 0)
(0 0.00114743 0)
(0 0.00094828 0)
(0 0.000517926 0)
(0 0.000941421 0)
(0 0.000964721 0)
(0 0.000986144 0)
(0 0.000533201 0)
(0 0.00098479 0)
(0 0.000789691 0)
(0 0.00101499 0)
(0 2.04101e-05 0)
(0 0.000765204 0)
(0 0.000272427 0)
(0 2.28775e-05 0)
(0 0.00150086 0)
(0 0.00124672 0)
(0 0.00146571 0)
(0 0.00130984 0)
(0 0.000392704 0)
(0 0.000561091 0)
(0 0.00107074 0)
(0 0.000878495 0)
(0 0.000311027 0)
(0 0.000792176 0)
(0 0.000579809 0)
(0 1.93073e-05 0)
(0 0.000353625 0)
(0 4.58433e-05 0)
(0 0.00117938 0)
(0 2.295e-05 0)
(0 0.00162229 0)
(0 0.000400626 0)
(0 0.000673644 0)
(0 0.00150791 0)
(0 0.000926561 0)
(0 0.000279832 0)
(0 0.000710915 0)
(0 1.98733e-05 0)
(0 0.000937563 0)
(0 0.000508096 0)
(0 0.00104385 0)
(0 0.00125946 0)
(0 0.000801589 0)
(0 0.00108389 0)
(0 0.00086945 0)
(0 0.000457815 0)
(0 0.000826001 0)
(0 0.000299073 0)
(0 0.00133795 0)
(0 0.0012373 0)
(0 0.000704327 0)
(0 0.000186393 0)
(0 0.000460426 0)
(0 0.000543213 0)
(0 0.000286105 0)
(0 0.000785124 0)
(0 0.00108477 0)
(0 0.000404738 0)
(0 0.00100945 0)
(0 0.000166772 0)
(0 0.000455696 0)
(0 0.000595968 0)
(0 0.000119594 0)
(0 0.00043652 0)
(0 2.5312e-05 0)
(0 0.000240734 0)
(0 0.000953827 0)
(0 0.000513396 0)
(0 0.000175378 0)
(0 7.83834e-05 0)
(0 0.000700848 0)
(0 0.000960629 0)
(0 0.000553513 0)
(0 1.31263e-05 0)
(0 0.000608746 0)
(0 0.00105307 0)
(0 0.00148819 0)
(0 0.000852626 0)
(0 0.001119 0)
(0 0.000154044 0)
(0 0.00157462 0)
(0 7.75012e-05 0)
(0 0.000456082 0)
(0 0.000230583 0)
(0 0.000642775 0)
(0 0.000569015 0)
(0 0.000305791 0)
(0 0.00128306 0)
(0 0.00156919 0)
(0 0.000487084 0)
(0 0.0016096 0)
(0 0.000493589 0)
(0 3.19138e-05 0)
(0 0.000353397 0)
(0 0.00157671 0)
(0 0.00102209 0)
(0 0.000437868 0)
(0 0.00027813 0)
(0 0.00148074 0)
(0 0.000926692 0)
(0 0.00141229 0)
(0 0.00114187 0)
(0 0.00145212 0)
(0 0.00151439 0)
(0 0.00133865 0)
(0 0.00094915 0)
(0 0.000865672 0)
(0 0.000247548 0)
(0 0.000956835 0)
(0 0.00149862 0)
(0 0.000546384 0)
(0 0.000538769 0)
(0 0.000108496 0)
(0 0.00138842 0)
(0 2.16548e-05 0)
(0 0.000593521 0)
(0 0.000562285 0)
(0 0.00103944 0)
(0 0.0011259 0)
(0 2.52108e-05 0)
(0 0.000763442 0)
(0 0.000522279 0)
(0 0.000418307 0)
(0 0.00130247 0)
(0 0.000780362 0)
(0 2.31049e-05 0)
(0 0.000530024 0)
(0 0.000932925 0)
(0 0.0011665 0)
(0 0.000644937 0)
(0 0.000301198 0)
(0 0.000612599 0)
(0 0.000634111 0)
(0 0.00147977 0)
(0 0.00125049 0)
(0 0.00114632 0)
(0 0.00124939 0)
(0 0.000583751 0)
(0 0.000294562 0)
(0 8.62784e-05 0)
(0 0.000306594 0)
(0 0.000683354 0)
(0 0.000217417 0)
(0 0.00116573 0)
(0 7.43748e-05 0)
(0 0.00140029 0)
(0 0.00101469 0)
(0 0.000891524 0)
(0 0.00133731 0)
(0 0.000102857 0)
(0 0.000146804 0)
(0 0.00146761 0)
(0 0.000127183 0)
(0 0.000110719 0)
(0 0.00135327 0)
(0 0.000301952 0)
(0 0.00118962 0)
(0 0.000463284 0)
(0 0.000921807 0)
(0 0.000386816 0)
(0 0.00101731 0)
(0 0.001237 0)
(0 0.000707861 0)
(0 0.000206211 0)
(0 0.000197023 0)
(0 0.000578635 0)
(0 0.000813631 0)
(0 0.000285466 0)
(0 0.000612762 0)
(0 0.000648253 0)
(0 2.57283e-05 0)
(0 0.000867971 0)
(0 0.000179406 0)
(0 0.000657609 0)
(0 0.000476795 0)
(0 0.00143253 0)
(0 0.00032662 0)
(0 0.000177154 0)
(0 0.000300955 0)
(0 0.00157455 0)
(0 9.48812e-05 0)
(0 0.000177929 0)
(0 0.000135327 0)
(0 3.30197e-05 0)
(0 0.000489972 0)
(0 0.00162683 0)
(0 0.00157251 0)
(0 0.000585293 0)
(0 0.000334355 0)
(0 0.00153867 0)
(0 0.001069 0)
(0 8.20994e-05 0)
(0 0.00031823 0)
(0 0.00083529 0)
(0 0.00141653 0)
(0 0.000431724 0)
(0 0.000155339 0)
(0 0.000414588 0)
(0 0.00068318 0)
(0 0.00104334 0)
(0 0.00133552 0)
(0 0.00104709 0)
(0 0.00119027 0)
(0 0.00141121 0)
(0 0.00126977 0)
(0 0.000454933 0)
(0 0.000823459 0)
(0 0.000301164 0)
(0 0.000295123 0)
(0 0.0013935 0)
(0 0.000271184 0)
(0 0.000634046 0)
(0 0.00101243 0)
(0 0.00130439 0)
(0 0.00141306 0)
(0 0.00121324 0)
(0 0.000343696 0)
(0 0.000286637 0)
(0 0.0011069 0)
(0 0.0012181 0)
(0 0.00121575 0)
(0 0.0010942 0)
(0 5.10068e-05 0)
(0 0.000291378 0)
(0 0.00104187 0)
(0 0.000593906 0)
(0 0.00016492 0)
(0 0.000983867 0)
(0 0.000844488 0)
(0 0.000863752 0)
(0 0.00037765 0)
(0 0.00115466 0)
(0 0.000108316 0)
(0 0.00096154 0)
(0 0.00128694 0)
(0 0.000665618 0)
(0 8.41845e-05 0)
(0 0.000572946 0)
(0 0.00144981 0)
(0 0.000785264 0)
(0 0.000461468 0)
(0 0.000337303 0)
(0 0.00108575 0)
(0 0.00084099 0)
(0 0.00124067 0)
(0 0.00101411 0)
(0 1.83648e-05 0)
(0 0.00100832 0)
(0 0.00090539 0)
(0 0.0010965 0)
(0 0.00153831 0)
(0 0.00057799 0)
(0 0.000999685 0)
(0 0.000469751 0)
(0 0.000398192 0)
(0 0.00139915 0)
(0 0.00152718 0)
(0 0.000570234 0)
(0 0.000672527 0)
(0 0.00122292 0)
(0 0.00153926 0)
(0 0.000562669 0)
(0 0.000239173 0)
(0 0.000383587 0)
(0 0.00146276 0)
(0 0.000812362 0)
(0 0.000884654 0)
(0 0.00127508 0)
(0 0.000368978 0)
(0 0.000419311 0)
(0 0.000481237 0)
(0 0.00131796 0)
(0 0.00050019 0)
(0 0.00153889 0)
(0 0.000510208 0)
(0 0.000784432 0)
(0 0.00036753 0)
(0 0.000565687 0)
(0 0.000907458 0)
(0 0.000758162 0)
(0 0.000369292 0)
(0 2.44534e-05 0)
(0 0.000816562 0)
(0 0.00140203 0)
(0 0.00123512 0)
(0 0.00101667 0)
(0 0.000563102 0)
(0 0.000787517 0)
(0 0.000481654 0)
(0 0.00100205 0)
(0 0.00126102 0)
(0 0.000446014 0)
(0 0.000594914 0)
(0 0.00084917 0)
(0 0.000954551 0)
(0 0.00104364 0)
(0 0.00111875 0)
(0 0.00131515 0)
(0 8.99804e-05 0)
(0 0.00117965 0)
(0 0.00114556 0)
(0 0.00123963 0)
(0 0.00160296 0)
(0 0.000970416 0)
(0 0.000639673 0)
(0 0.000241021 0)
(0 0.000390179 0)
(0 0.00106956 0)
(0 0.000219686 0)
(0 0.000589799 0)
(0 4.61069e-05 0)
(0 0.00132114 0)
(0 0.000916007 0)
(0 0.000727533 0)
(0 0.00140621 0)
(0 0.000571072 0)
(0 0.00107055 0)
(0 0.00114926 0)
(0 0.000411166 0)
(0 0.00138565 0)
(0 0.000369023 0)
(0 0.000320712 0)
(0 0.000436391 0)
(0 0.00015179 0)
(0 0.000772582 0)
(0 0.000278234 0)
(0 0.000717017 0)
(0 0.000706383 0)
(0 0.00158646 0)
(0 0.000806951 0)
(0 0.000648615 0)
(0 0.000151475 0)
(0 0.00060482 0)
(0 0.00119955 0)
(0 0.000551161 0)
(0 0.00159174 0)
(0 0.000202452 0)
(0 0.000284007 0)
(0 0.00046798 0)
(0 0.000273976 0)
(0 0.000918564 0)
(0 0.000865516 0)
(0 0.00156704 0)
(0 0.00125315 0)
(0 0.00112394 0)
(0 0.00161179 0)
(0 0.00034017 0)
(0 0.000779142 0)
(0 0.000922734 0)
(0 0.000635092 0)
(0 2.39569e-05 0)
(0 0.00054563 0)
(0 0.000103442 0)
(0 0.000587521 0)
(0 0.00125521 0)
(0 0.000952502 0)
(0 0.000568363 0)
(0 0.00137445 0)
(0 0.000938387 0)
(0 0.000101638 0)
(0 0.000914841 0)
(0 0.00043282 0)
(0 0.000293831 0)
(0 0.00089785 0)
(0 0.00112857 0)
(0 0.000617554 0)
(0 0.000215143 0)
(0 0.000912581 0)
(0 0.000103236 0)
(0 0.000599573 0)
(0 0.00156465 0)
(0 0.000393605 0)
(0 0.000812222 0)
(0 2.76788e-05 0)
(0 0.000920447 0)
(0 0.00138686 0)
(0 0.000575072 0)
(0 0.00154501 0)
(0 0.00014997 0)
(0 0.000581152 0)
(0 0.00048819 0)
(0 0.00100347 0)
(0 0.000534764 0)
(0 0.000831513 0)
(0 0.000553572 0)
(0 0.000462539 0)
(0 4.81231e-05 0)
(0 4.16198e-05 0)
(0 0.000862148 0)
(0 0.000194942 0)
(0 0.000861259 0)
(0 0.000540172 0)
(0 0.000746102 0)
(0 0.000278689 0)
(0 0.00102396 0)
(0 0.000852775 0)
(0 0.00154795 0)
(0 0.000383747 0)
(0 0.0015334 0)
(0 8.91178e-05 0)
(0 0.000936568 0)
(0 0.00125433 0)
(0 0.00129299 0)
(0 0.000243759 0)
(0 0.00160328 0)
(0 0.000502584 0)
(0 0.000519458 0)
(0 0.000527155 0)
(0 0.0010737 0)
(0 0.000489402 0)
(0 0.00144375 0)
(0 0.00126265 0)
(0 0.000514925 0)
(0 0.00108774 0)
(0 0.00143117 0)
(0 0.000911836 0)
(0 0.00139191 0)
(0 0.00026761 0)
(0 0.000866849 0)
(0 0.00152936 0)
(0 0.00025313 0)
(0 0.000485141 0)
(0 0.000893874 0)
(0 0.000798476 0)
(0 1.18904e-05 0)
(0 0.000533631 0)
(0 0.000444884 0)
(0 0.000218145 0)
(0 0.00160725 0)
(0 0.000407626 0)
(0 0.000784527 0)
(0 0.000652709 0)
(0 0.00103766 0)
(0 0.000426177 0)
(0 0.00102163 0)
(0 0.00123681 0)
(0 0.000656281 0)
(0 0.00141691 0)
(0 0.000373133 0)
(0 0.000735605 0)
(0 0.000872803 0)
(0 0.00154054 0)
(0 0.000879125 0)
(0 0.000675772 0)
(0 0.000644196 0)
(0 0.000757944 0)
(0 0.000920441 0)
(0 0.000542116 0)
(0 0.00144649 0)
(0 0.0006736 0)
(0 0.000846574 0)
(0 0.00105691 0)
(0 0.00135312 0)
(0 0.00113012 0)
(0 0.00130666 0)
(0 7.82329e-05 0)
(0 0.000314338 0)
(0 0.00143164 0)
(0 0.000974724 0)
(0 0.00155102 0)
(0 0.00061389 0)
(0 0.000379519 0)
(0 0.000419085 0)
(0 0.000563217 0)
(0 0.00140392 0)
(0 9.47677e-05 0)
(0 0.000389975 0)
(0 0.00133344 0)
(0 0.000787027 0)
(0 0.000897329 0)
(0 0.000226058 0)
(0 0.000593282 0)
(0 0.000100212 0)
(0 0.00090018 0)
(0 0.00121247 0)
(0 0.000233716 0)
(0 0.00143204 0)
(0 0.000771639 0)
(0 0.000410044 0)
(0 0.000884771 0)
(0 0.0010939 0)
(0 0.00129726 0)
(0 0.000111681 0)
(0 0.000512943 0)
(0 0.000329211 0)
(0 0.000671587 0)
(0 0.000865813 0)
(0 0.000283283 0)
(0 0.000428602 0)
(0 0.000866721 0)
(0 0.000987451 0)
(0 0.000577738 0)
(0 0.00140495 0)
(0 5.70455e-05 0)
(0 0.000976756 0)
(0 0.00140645 0)
(0 0.00127114 0)
(0 6.10721e-05 0)
(0 0.00021833 0)
(0 0.00129398 0)
(0 0.00064262 0)
(0 0.000698438 0)
(0 0.000475724 0)
(0 0.000508298 0)
(0 0.000594503 0)
(0 0.000230511 0)
(0 0.00148992 0)
(0 6.60134e-05 0)
(0 0.00106577 0)
(0 0.000589614 0)
(0 0.000783827 0)
(0 0.000839303 0)
(0 0.000758457 0)
(0 0.000524495 0)
(0 0.000461927 0)
(0 0.000620751 0)
(0 0.00106664 0)
(0 0.000399908 0)
(0 4.57614e-05 0)
(0 0.000194416 0)
(0 0.000300007 0)
(0 0.00040687 0)
(0 0.000922512 0)
(0 0.000395688 0)
(0 0.000634193 0)
(0 0.000570202 0)
(0 0.000415378 0)
(0 0.000454192 0)
(0 6.61586e-05 0)
(0 0.00145385 0)
(0 0.000282495 0)
(0 0.00143878 0)
(0 0.000614259 0)
(0 0.000371803 0)
(0 0.000831334 0)
(0 0.000391511 0)
(0 0.000633563 0)
(0 0.000423896 0)
(0 0.0011022 0)
(0 0.00112347 0)
(0 0.000593942 0)
(0 0.00160717 0)
(0 0.000253979 0)
(0 0.00131717 0)
(0 0.000154983 0)
(0 0.00108823 0)
(0 0.000265326 0)
(0 0.00106755 0)
(0 0.000613563 0)
(0 1.6482e-05 0)
(0 0.000910894 0)
(0 0.000761007 0)
(0 0.00066139 0)
(0 0.00141231 0)
(0 0.000277437 0)
(0 0.000626517 0)
(0 0.0015109 0)
(0 0.000109471 0)
(0 0.00016661 0)
(0 0.000395083 0)
(0 0.00132194 0)
(0 0.00114181 0)
(0 0.000703227 0)
(0 0.000471906 0)
(0 0.00105356 0)
(0 0.000573788 0)
(0 0.00053317 0)
(0 0.00019639 0)
(0 0.000837534 0)
(0 0.000260324 0)
(0 0.00123271 0)
(0 0.0015236 0)
(0 0.000447072 0)
(0 0.000391891 0)
(0 0.000363895 0)
(0 0.000397981 0)
(0 0.000582932 0)
(0 0.00102688 0)
(0 0.000272195 0)
(0 0.000322208 0)
(0 0.00075292 0)
(0 0.000617726 0)
(0 0.000471821 0)
(0 0.000644952 0)
(0 0.000356139 0)
(0 0.0004369 0)
(0 0.0013838 0)
(0 0.000873711 0)
(0 0.00135751 0)
(0 0.000429665 0)
(0 0.000869818 0)
(0 0.000215262 0)
(0 0.000410615 0)
(0 0.000802751 0)
(0 0.000599783 0)
(0 0.000363606 0)
(0 0.000814791 0)
(0 0.00140053 0)
(0 0.00116148 0)
(0 0.000539969 0)
(0 0.00101758 0)
(0 0.000181152 0)
(0 0.000320777 0)
(0 0.00049371 0)
(0 0.00110376 0)
(0 0.000274864 0)
(0 0.00100054 0)
(0 0.000480308 0)
(0 4.02597e-05 0)
(0 0.000735392 0)
(0 0.000770836 0)
(0 0.000556081 0)
(0 0.00139055 0)
(0 0.00104368 0)
(0 0.00160243 0)
(0 0.000340457 0)
(0 0.000229271 0)
(0 0.000604496 0)
(0 0.000373286 0)
(0 0.000614423 0)
(0 0.000488237 0)
(0 0.000564276 0)
(0 8.58267e-05 0)
(0 0.000267673 0)
(0 0.000703603 0)
(0 0.000350294 0)
(0 0.000736075 0)
(0 0.000857327 0)
(0 0.000918334 0)
(0 0.000434675 0)
(0 0.000890598 0)
(0 0.000340761 0)
(0 0.00022649 0)
(0 4.30984e-05 0)
(0 0.000558221 0)
(0 0.000571594 0)
(0 0.000359688 0)
(0 0.00129934 0)
(0 0.000845389 0)
(0 0.000427232 0)
(0 0.00048784 0)
(0 0.00108603 0)
(0 3.82325e-05 0)
(0 0.00042509 0)
(0 0.00113006 0)
(0 0.000808126 0)
(0 0.001543 0)
(0 0.0007742 0)
(0 0.000297504 0)
(0 7.05069e-05 0)
(0 0.00130299 0)
(0 0.00144123 0)
(0 0.000728876 0)
(0 0.00103969 0)
(0 0.00110851 0)
(0 0.000829626 0)
(0 0.000906604 0)
(0 0.000561561 0)
(0 0.000920109 0)
(0 0.00139503 0)
(0 0.000572529 0)
(0 0.000282899 0)
(0 0.000444866 0)
(0 0.000341123 0)
(0 0.0004951 0)
(0 0.000378782 0)
(0 0.000781774 0)
(0 0.000312718 0)
(0 0.000616307 0)
(0 0.000804341 0)
(0 0.000546818 0)
(0 0.000488805 0)
(0 0.000606497 0)
(0 0.000384695 0)
(0 0.000605311 0)
(0 0.00145483 0)
(0 0.000196425 0)
(0 0.000625917 0)
(0 0.000524958 0)
(0 0.000643457 0)
(0 0.000323234 0)
(0 1.46134e-05 0)
(0 0.00140503 0)
(0 0.000292625 0)
(0 0.000208518 0)
(0 0.000291301 0)
(0 0.000369327 0)
(0 0.000755066 0)
(0 0.00022242 0)
(0 0.000900414 0)
(0 0.00047121 0)
(0 0.000677699 0)
(0 0.000114081 0)
(0 0.00133668 0)
(0 0.000328859 0)
(0 0.000250442 0)
(0 0.000411938 0)
(0 0.000538745 0)
(0 0.000416183 0)
(0 0.000424907 0)
(0 0.000354609 0)
(0 0.000539532 0)
(0 0.00133608 0)
(0 0.00019646 0)
(0 0.000940483 0)
(0 4.55811e-05 0)
(0 0.000503361 0)
(0 0.00118074 0)
(0 0.000425955 0)
(0 0.000331892 0)
(0 0.000800588 0)
(0 0.00139358 0)
(0 0.00062184 0)
(0 0.000336458 0)
(0 0.00143008 0)
(0 0.000396544 0)
(0 6.90173e-05 0)
(0 0.00155068 0)
(0 0.000160793 0)
(0 0.000826397 0)
(0 0.000114145 0)
(0 0.000171788 0)
(0 0.000401323 0)
(0 0.000430527 0)
(0 0.000105232 0)
(0 0.000605556 0)
(0 0.0014194 0)
(0 0.00103066 0)
(0 0.000663152 0)
(0 0.000290836 0)
(0 0.00029452 0)
(0 0.00132423 0)
(0 0.000337869 0)
(0 0.000602607 0)
(0 0.00137394 0)
(0 0.000564788 0)
(0 0.00041649 0)
(0 0.000331462 0)
(0 0.000169121 0)
(0 0.00135119 0)
(0 0.000965283 0)
(0 0.00031322 0)
(0 0.00137487 0)
(0 0.00115985 0)
(0 0.000461068 0)
(0 0.00131912 0)
(0 0.00127293 0)
(0 0.00115527 0)
(0 2.29001e-05 0)
(0 1.73148e-05 0)
(0 0.000696418 0)
(0 0.000758229 0)
(0 0.00100332 0)
(0 0.000508334 0)
(0 0.00036743 0)
(0 0.000545943 0)
(0 0.000444741 0)
(0 0.000397519 0)
(0 0.000485649 0)
(0 0.00141868 0)
(0 0.000399036 0)
(0 0.000440565 0)
(0 0.00143127 0)
(0 0.00146533 0)
(0 0.000935035 0)
(0 0.00135753 0)
(0 0.000335109 0)
(0 0.0014164 0)
(0 0.000816295 0)
(0 0.000437185 0)
(0 0.000672573 0)
(0 0.000454179 0)
(0 0.00109029 0)
(0 0.000947493 0)
(0 0.000634567 0)
(0 0.000244567 0)
(0 0.000869129 0)
(0 8.70532e-05 0)
(0 0.00071601 0)
(0 0.00145821 0)
(0 0.000310376 0)
(0 0.00136466 0)
(0 0.000463364 0)
(0 1.97841e-05 0)
(0 0.00039358 0)
(0 0.00142868 0)
(0 0.00042891 0)
(0 0.000211341 0)
(0 0.00053094 0)
(0 0.000414272 0)
(0 0.000949093 0)
(0 2.53075e-05 0)
(0 0.000415173 0)
(0 0.000454228 0)
(0 0.00106967 0)
(0 0.00127011 0)
(0 0.00148239 0)
(0 2.07046e-05 0)
(0 0.000570847 0)
(0 3.58188e-05 0)
(0 0.000601647 0)
(0 0.000490289 0)
(0 0.000372556 0)
(0 0.000968236 0)
(0 1.93719e-05 0)
(0 0.000602041 0)
(0 0.000389602 0)
(0 0.00053225 0)
(0 0.000437805 0)
(0 0.00050238 0)
(0 0.000430159 0)
(0 0.00108584 0)
(0 0.000633955 0)
(0 0.000454865 0)
(0 0.000444742 0)
(0 0.00112561 0)
(0 8.80788e-05 0)
(0 0.000668948 0)
(0 0.00055832 0)
(0 0.000542221 0)
(0 0.000787817 0)
(0 0.000398858 0)
(0 0.00132858 0)
(0 0.000241292 0)
(0 0.000522866 0)
(0 0.000520225 0)
(0 3.21019e-05 0)
(0 0.000782091 0)
(0 8.98563e-05 0)
(0 0.000586368 0)
(0 0.000482109 0)
(0 0.00045857 0)
(0 0.000367235 0)
(0 0.000501249 0)
(0 0.00036408 0)
(0 0.000971695 0)
(0 0.000508054 0)
(0 0.00105265 0)
(0 0.00113238 0)
(0 0.00132215 0)
(0 0.00051012 0)
(0 0.000555412 0)
(0 0.000355133 0)
(0 0.00058211 0)
(0 0.000501287 0)
(0 0.000114299 0)
(0 0.000882766 0)
(0 0.000431613 0)
(0 0.000798268 0)
(0 0.000527897 0)
(0 0.00011062 0)
(0 0.00117175 0)
(0 0.00010369 0)
(0 0.000454307 0)
(0 0.000380987 0)
(0 0.000536256 0)
(0 0.000373641 0)
(0 0.000359274 0)
(0 0.00058056 0)
(0 0.000374554 0)
(0 0.000517276 0)
(0 0.00115806 0)
(0 0.000860604 0)
(0 0.000567293 0)
(0 0.000327354 0)
(0 0.000595244 0)
(0 4.53485e-05 0)
(0 0.000515766 0)
(0 0.000514621 0)
(0 0.00128835 0)
(0 0.00091384 0)
(0 0.000888697 0)
(0 0.000170225 0)
(0 0.000472776 0)
(0 0.00112662 0)
(0 2.37645e-05 0)
(0 0.00030773 0)
(0 0.000294644 0)
(0 0.00119525 0)
(0 0.000400043 0)
(0 0.00057815 0)
(0 0.000580772 0)
(0 0.000388881 0)
(0 0.00110608 0)
(0 0.00101401 0)
(0 0.00037232 0)
(0 0.00032424 0)
(0 3.39658e-05 0)
(0 0.00128543 0)
(0 0.00132867 0)
(0 0.000401597 0)
(0 0.000659995 0)
(0 0.000335246 0)
(0 0.000343996 0)
(0 0.000437029 0)
(0 0.000312948 0)
(0 0.000456446 0)
(0 0.000495064 0)
(0 0.000328972 0)
(0 0.00145188 0)
(0 0.00055242 0)
(0 0.000496939 0)
(0 0.000435457 0)
(0 0.000309854 0)
(0 0.000412934 0)
(0 0.000650726 0)
(0 0.00108325 0)
(0 0.000626655 0)
(0 0.000401439 0)
(0 0.000434094 0)
(0 0.000311919 0)
(0 0.000751674 0)
(0 0.00051164 0)
(0 0.00120582 0)
(0 0.000422146 0)
(0 0.00046636 0)
(0 0.00037787 0)
(0 0.00139516 0)
(0 0.000263316 0)
(0 0.000588968 0)
(0 0.000296798 0)
(0 0.000381591 0)
(0 0.000365895 0)
(0 8.23696e-05 0)
(0 0.00063752 0)
(0 0.00135248 0)
(0 0.00129031 0)