/*--------------------------------*- C++ -*----------------------------------*\
| =========                 |                                                 |
| \\      /  F ield         | OpenFOAM: The Open Source CFD Toolbox           |
|  \\    /   O peration     | Version:  v2012                                 |
|   \\  /    A nd           | Website:  www.openfoam.com                      |
|    \\/     M anipulation  |                                                 |
\*---------------------------------------------------------------------------*/
FoamFile
{
    version     2.0;
    format      ascii;
    class       surfaceScalarField;
    location    "150";
    object      phi;
}
// * * * * * * * * * * * * * * * * * * * * * * * * * * * * * * * * * * * * * //

dimensions      [0 3 -1 0 0 0 0];
oriented        oriented;


internalField   nonuniform List<scalar> 
14885
(
0.750069
-0.48646
-0.263606
0.193819
-0.393264
0.199498
0.515203
-0.320943
-0.19419
0.416814
0.0581351
-0.474889
-0.677583
0.376079
0.301769
0.219442
-0.432099
0.212663
0.41646
-0.210551
-0.205825
-0.368875
-0.180975
0.549874
0.259568
0.345705
-0.605226
0.125649
-0.301705
0.176099
-0.613407
0.382915
0.230481
0.385931
-0.192076
0.37686
-0.181365
-0.195458
0.735667
-0.265927
-0.469671
0.15889
-0.428858
0.269961
0.237959
0.49777
-0.153296
-0.269253
0.422548
-0.364712
-0.24871
0.188236
-0.443063
0.254878
0.196722
-0.447813
0.251131
0.144426
0.232469
0.427664
0.322414
-0.0746325
0.491598
-0.510708
0.10815
0.402543
0.233479
-0.587004
0.353638
0.308732
-0.647295
0.338583
-0.219862
0.345599
-0.447967
-0.177251
0.625242
0.408877
-0.189431
0.501528
-0.531903
0.0303848
-0.104702
0.522769
-0.417972
-0.205585
0.318838
-0.113237
0.255866
-0.555332
0.29955
0.541435
-0.285462
0.200585
-0.569448
0.329981
0.183909
-0.513892
0.370436
-0.676001
0.305852
0.305791
-0.612064
0.306298
0.378188
-0.482754
0.441765
0.168269
-0.610037
0.426651
0.0748885
-0.295683
0.357243
-0.068173
-0.289047
-0.35912
-0.0668523
0.426062
-0.266665
0.566012
-0.299242
0.466764
-0.233262
0.566251
-0.639563
0.0733156
-0.321825
0.480674
0.372809
-0.153481
-0.219272
0.138331
0.194552
-0.332834
0.0229528
0.334326
0.660865
-0.419387
-0.241338
0.255583
0.391128
-0.202854
0.0054271
-0.24089
0.235509
-0.105471
0.0374951
0.0680162
0.359136
-0.214682
0.210007
-0.594459
0.384545
-0.226405
-0.192747
0.419193
-0.333879
-0.358119
0.691998
0.162883
0.20999
-0.0257462
0.28053
-0.25471
0.238343
-0.306488
-0.401016
-0.167141
0.568173
0.302305
-0.639985
0.337725
0.268607
-0.563966
0.295439
0.165516
-0.420305
0.254821
0.478267
0.0275282
-0.505771
0.611808
-0.546845
-0.0649576
-0.0381226
0.516415
-0.323514
0.0183163
0.30524
-0.53778
0.329178
0.208582
0.695286
-0.406197
-0.289059
-0.441642
0.215279
-0.275238
0.543972
-0.30053
-0.591121
0.123234
0.467937
-0.0606265
0.626881
-0.490407
-0.100665
-0.304135
-0.138878
0.0345394
-0.393607
-0.0840684
0.571757
-0.0520372
-0.519553
-0.370111
0.64249
-0.272308
-0.107357
0.341821
-0.234396
0.32527
-0.0265945
-0.29862
-0.264001
0.429562
0.260492
0.254781
-0.286707
-0.249382
0.536043
-0.618865
0.390566
0.228326
0.0905419
0.204813
-0.295318
-0.421035
-0.00781962
-0.078841
0.317218
0.324169
0.001154
0.268886
-0.627861
0.358977
-0.37849
-0.11427
0.492757
0.0412238
-0.0509437
-0.223548
-0.205446
-0.318801
0.524269
0.247059
-0.44959
0.202554
-0.225491
0.316077
0.244812
0.0603578
-0.30509
-0.456123
0.346383
0.109875
0.263164
0.0144127
-0.251988
0.399103
-0.147065
-0.226534
-0.242321
0.468852
0.165116
-0.00584789
-0.159234
0.31575
-0.590863
0.175224
0.241312
-0.45917
0.232687
0.309096
0.158672
-0.467757
0.391513
-0.216213
-0.131108
0.375992
0.17331
-0.574313
0.639277
-0.336945
0.665493
-0.410391
-0.255114
0.628724
-0.265441
-0.363225
-0.321564
0.650788
-0.329074
0.561458
-0.351323
-0.669136
0.323923
0.3452
0.26477
-0.598648
0.171378
-0.347658
0.176329
-0.143356
0.314774
-0.583268
0.316638
-0.469804
-0.149039
-0.369893
-0.256948
0.626857
0.0867015
-0.456487
-0.23378
0.239249
0.160977
0.0985906
-0.259553
0.233978
0.394806
-0.310089
-0.274335
0.584451
0.17303
0.303301
-0.476304
-0.664927
0.33098
0.333954
-0.437223
0.00189158
0.435367
0.195122
0.196453
0.354055
-0.133461
-0.220537
0.174562
-0.431673
0.257147
-0.150325
0.0550567
0.254289
0.143656
-0.397886
0.332448
-0.537875
0.360349
-0.182366
-0.177946
-0.361739
0.658434
-0.296652
-0.013768
0.178929
-0.653184
0.205243
0.381517
-0.0796847
-0.301794
0.601399
-0.2956
-0.343504
0.236216
0.200158
0.411657
0.273927
-0.433218
0.159384
0.502997
-0.289036
-0.213936
-0.243978
0.559755
-0.311304
-0.309483
0.620799
0.0972151
0.24967
-0.346896
0.220184
0.0515864
-0.271743
0.633046
-0.364156
0.361702
0.0198571
-0.137966
0.298961
-0.0277595
-0.0776761
-0.20621
-0.458707
0.486121
-0.177376
0.0217273
-0.534101
0.512527
-0.153513
0.59527
0.0991749
0.254937
-0.543607
0.447716
-0.237824
-0.209821
0.145569
0.357464
0.399726
0.295596
-0.0914603
0.354646
0.6096
-0.279601
-0.164056
0.478525
-0.314385
0.265731
-0.633672
0.367938
-0.212742
-0.319157
-0.419132
0.364375
0.0548143
0.377488
0.230874
0.160286
-0.100079
-0.318993
0.571736
-0.479024
-0.0926178
0.321806
0.279599
0.525907
-0.352805
-0.342585
-0.20425
-0.161731
0.416098
-0.102983
0.29751
-0.194484
-0.194547
0.669844
-0.325953
-0.343924
0.0896121
-0.528751
0.439157
0.354331
-0.299745
-0.0545568
-0.360514
-0.177286
0.587836
-0.168434
-0.419404
-0.298685
0.349591
-0.0508743
-0.305393
-0.287597
0.593055
-0.367598
0.201887
0.157277
0.272196
-0.582223
-0.317756
0.214807
0.237324
0.00256556
-0.239846
-0.0855932
-0.335444
-0.232221
0.0556635
0.176573
0.284853
-0.620629
0.33581
-0.0411284
0.0324048
0.00872993
0.138069
-0.50812
0.225476
0.0292921
-0.254747
-0.221207
-0.11049
0.331735
0.278547
-0.459591
0.181074
0.324844
0.190805
-0.51568
0.200011
-0.518783
0.582087
-0.251117
-0.516943
0.409611
0.107299
-0.119097
0.339319
-0.214751
0.523805
-0.00675451
-0.430435
-0.297026
-0.189595
0.514416
-0.147639
0.426198
0.312414
0.147997
-0.460357
-0.569937
0.0598432
0.51047
0.522216
-0.55925
0.0370598
-0.648497
0.413713
0.23478
0.56708
-0.232113
-0.334898
-0.413713
0.622818
-0.209027
0.324088
0.153187
-0.145298
-0.00787801
0.616758
-0.351006
-0.0391605
0.192362
0.484108
-0.348283
0.406436
-0.300012
-0.492979
0.281094
0.211941
0.419511
-0.244887
0.416595
-0.19136
-0.225112
-0.378336
-0.0776915
0.590101
-0.268284
0.504314
-0.417539
0.0701006
0.284264
-0.484016
0.162549
0.448726
0.123123
0.428645
0.137484
-0.396785
0.259392
0.0496111
-0.00837819
0.254287
-0.333941
-0.419454
0.52758
-0.572199
0.207822
0.364435
0.210341
-0.587752
0.377461
-0.348841
0.613612
0.397611
-0.551124
-0.222915
0.280251
-0.0572841
-0.474033
-0.203286
0.614469
-0.404059
-0.198232
0.452547
-0.202201
0.2994
-0.152599
0.528883
-0.382158
0.130223
-0.302756
0.575003
-0.0400055
0.326424
-0.286353
0.226196
-0.24389
0.0177528
-0.264384
0.538456
0.407196
-0.269649
-0.479235
0.173871
0.194457
0.27249
-0.466834
-0.034697
-0.0162386
0.631556
-0.240966
-0.39053
0.6526
-0.262003
0.636165
-0.328576
-0.307529
0.279222
0.381769
-0.518594
-0.120965
-0.300422
0.209472
0.0168103
0.385332
0.267298
-0.330896
0.290936
0.741589
-0.444199
-0.297442
0.494823
0.00952454
-0.510886
0.176725
0.334122
-0.179554
0.317951
-0.307553
-0.259854
0.567483
0.320583
-0.302225
0.490087
-0.295541
0.249589
-0.57846
0.328984
0.130467
-0.395682
0.265194
0.260421
-0.552948
0.292661
0.292073
0.449468
0.275278
0.339811
-0.517024
0.643828
-0.368285
-0.275473
-0.0688321
-0.163376
0.408138
-0.27764
-0.0735242
0.564102
-0.489844
-0.00904087
0.0690134
-0.0599652
-0.539488
0.314411
0.22513
-0.367224
0.539346
-0.172104
0.637625
-0.271398
-0.36621
-0.488229
0.176924
0.143513
0.206534
-0.350012
0.564144
-0.268985
-0.295063
-0.574496
0.0427002
0.532183
-0.613963
0.0922698
0.521731
-0.254612
-0.588069
0.165523
0.422553
0.132614
-0.314684
0.182164
0.135032
0.284556
-0.307764
-0.20315
-0.423867
-0.224634
0.39335
-0.147144
0.0929236
0.49491
-0.245969
-0.326175
-0.375745
-0.163697
0.181816
-0.207503
-0.235557
-0.34956
0.585196
0.595407
-0.197798
-0.175282
0.307959
-0.111279
-0.502665
-0.140977
0.511558
-0.453077
0.509729
-0.0566552
-0.565959
0.187516
-0.459147
-0.128915
0.287191
0.277047
0.315253
0.322388
-0.483582
-0.0350063
-0.353354
0.442972
-0.152143
0.532848
-0.380691
0.394457
0.271022
-0.543202
0.572521
-0.0293219
0.00138585
0.319245
0.560092
-0.310385
0.152713
-0.487201
0.334489
0.168176
0.38491
-0.553078
-0.554357
-0.0152208
-0.248793
0.577744
-0.328877
0.232561
0.293393
-0.261667
0.338814
-0.195265
0.292303
0.28977
0.265202
0.229372
-0.494622
-0.526372
0.0399215
-0.562554
1.04813e-05
0.562614
-0.389707
-0.12727
-0.62927
0.357899
-0.108471
0.234427
-0.12589
-0.330678
0.483394
0.292812
-0.595482
0.501994
-0.356367
0.128993
0.231391
-0.35366
0.143283
0.210403
0.260981
-0.609822
-0.288917
0.605981
-0.317012
-0.0119559
0.547926
-0.535881
0.294623
0.295486
-0.293383
-0.263386
0.556791
0.477565
0.0416499
-0.519083
0.529196
-0.260172
-0.268951
0.433556
-0.262378
-0.171214
-0.335495
-0.292362
0.257943
0.271324
-0.527372
-0.0281925
0.555595
0.288288
-0.00769308
-0.602387
0.353645
-0.210748
-0.282168
0.571883
-0.294576
0.215848
0.0787508
0.015022
-0.488098
0.473076
0.242512
-0.484847
-0.262342
-0.413391
0.186702
0.261078
0.168639
-0.560766
0.392164
0.197563
0.30448
-0.3995
-0.514515
-0.0167609
0.531345
-0.546575
0.27192
0.27468
-0.288609
-0.00854457
0.245411
-0.23683
-0.526553
-0.543272
0.531376
-0.543036
-0.378819
-0.224873
-0.347335
0.32082
0.253185
0.26664
-0.519797
-0.237626
-0.34072
-0.52019
0.119408
0.40086
-0.273745
0.144533
0.129304
-0.0839019
-0.263375
-0.255742
-0.25404
0.509779
-0.395641
-0.124475
0.164617
0.252104
-0.297988
0.530618
0.0297719
-0.219976
0.190229
-0.274688
0.499434
-0.314234
0.638124
0.213202
0.267352
-0.480531
0.174368
-0.541583
0.218552
0.271631
-0.0879914
0.0132817
0.0747303
0.173904
0.259616
-0.586242
0.266101
0.320199
0.464836
-0.267254
-0.135001
-0.108835
0.319475
-0.531403
0.212031
0.56815
-0.367542
-0.424436
0.351479
0.197882
0.120969
0.0993346
-0.518613
-0.0617537
-0.0499014
0.111669
-0.260483
-0.317244
0.577736
0.0474626
-0.0165471
-0.0535626
0.0701269
-0.527979
0.000641008
0.333749
-0.204712
-0.423818
0.579465
-0.155657
0.58595
-0.378079
0.495755
-0.277145
0.0616604
-0.33857
0.276922
0.413666
-0.100955
-0.312663
-0.393845
-0.193859
0.449336
-0.275495
0.13419
-0.544788
0.410603
-0.153175
0.401181
-0.247949
0.461326
-0.127954
-0.333307
-0.242283
0.596918
-0.364234
-0.232674
-0.400267
0.247124
0.320535
0.275529
-0.595999
0.233405
0.231453
0.570749
-0.276097
0.346926
0.322887
-0.292823
0.475838
-0.434012
-0.0417471
-0.286904
0.448831
-0.161833
0.332097
-0.270404
0.350655
0.280949
-0.15175
0.459079
0.0168176
0.512844
-0.57346
0.279125
0.134587
0.439238
-0.255319
-0.549245
0.125427
0.435495
-0.248756
-0.250795
0.279831
-0.029019
0.323949
0.555816
-0.611363
0.05557
0.0885211
-0.0509896
0.307697
0.290642
-0.598323
0.516925
-0.229603
0.50422
-0.257252
-0.2469
-0.297263
-0.312955
-0.405032
0.567249
-0.162215
0.517091
-0.382888
0.3231
-0.223876
0.401029
-0.651455
0.311171
0.34026
0.230962
0.329237
0.383944
-0.0774265
-0.306463
0.347211
0.0367765
-0.221992
0.251792
-0.394931
0.32046
0.266912
-0.560288
0.303807
-0.0470356
-0.0409349
-0.640227
0.593468
-0.307697
-0.28576
-0.453791
0.40198
-0.0818749
0.427848
-0.345857
-0.322374
-0.257881
0.580249
-0.594828
0.272461
0.448297
-0.235067
-0.574245
-0.201577
0.241802
0.140307
0.381887
0.135142
-0.358703
-0.274973
0.0969086
0.226242
0.29088
0.25208
-0.542944
0.0384478
-0.120726
0.0822912
0.0216462
-0.272418
0.321444
-0.530795
0.209382
-0.451076
-0.111424
0.135275
0.189001
-0.438612
-0.104591
-0.223635
0.0886909
-0.507559
0.19514
0.312394
-0.275665
0.560573
0.209346
0.239928
-0.193734
0.526212
0.156211
-0.517922
-0.274006
-0.108104
0.306964
0.286514
0.551747
-0.32068
0.566198
-0.323611
-0.24257
0.511433
0.0444116
-0.313142
-0.238286
0.551446
-0.451149
0.466266
-0.300228
-0.166013
0.361787
0.274434
-0.32188
-0.262178
0.584107
0.224201
-0.518687
0.294557
0.215397
0.118397
-0.536471
0.508319
-0.597492
-0.391984
0.484271
-0.305036
0.326994
-0.0219094
-0.249475
-0.248678
0.498137
-0.530675
-0.00334622
0.250051
0.296344
0.169958
-0.329215
0.282085
0.0472
-0.492455
0.29564
0.196826
0.537541
-0.58908
0.051586
-0.318046
0.576572
-0.258522
-0.157014
0.39103
-0.233931
-0.152069
-0.240164
0.392288
-0.212208
-0.209324
0.421571
0.519418
-0.10987
0.0701991
-0.606628
0.152977
0.329164
-0.481964
0.219565
-0.470414
0.250895
-0.562832
0.170858
-0.589802
0.352274
0.237467
0.190359
0.36284
-0.444774
0.264305
0.217336
-0.481655
0.307105
0.242036
-0.54913
0.293898
0.167495
-0.21383
-0.278615
-0.168682
-0.209551
0.251137
0.184394
-0.102734
0.367135
-0.264292
-0.36292
-0.257676
-0.179115
0.434836
-0.255592
-0.459156
0.290577
-0.23284
0.527356
-0.294417
0.148965
-0.46701
-0.0696781
-0.235313
0.239048
-0.494812
0.632348
-0.440274
-0.192028
0.524095
-0.299857
-0.416575
0.302288
-0.236206
0.504416
-0.268114
-0.205413
0.383948
-0.178444
0.296442
0.0306842
-0.253544
-0.416616
-0.0978381
-0.411105
0.215789
-0.544456
0.328721
-0.100903
-0.336439
-0.253436
0.188668
0.123307
-0.311944
0.132578
-0.546297
0.343236
0.207851
-0.55106
0.275802
-0.378464
-0.362435
0.623416
-0.475196
0.401805
0.0734642
-0.0286043
-0.300545
0.0573057
-0.460309
0.403051
-0.252833
-0.291764
0.544661
0.0986841
-0.207132
-0.253668
0.5646
-0.31085
0.274346
-0.564957
0.563076
0.00196742
0.450389
0.182
0.362521
-0.643237
0.28071
0.36377
-0.608683
0.244918
-0.233421
0.569994
-0.336465
-0.239555
-0.249192
0.423604
-0.174348
0.294482
0.215791
-0.51018
-0.00535577
0.540822
-0.535463
0.0687608
0.171587
-0.240309
0.211359
0.187793
0.318426
0.427081
-0.412052
0.297012
0.282036
-0.578928
0.261049
-0.192239
-0.363996
0.532662
0.549819
-0.334014
0.394205
0.125152
-0.113037
0.41467
-0.301659
-0.315468
0.137758
0.177736
-0.0662061
0.45243
-0.386188
0.450951
-0.393612
0.494479
-0.0590517
0.00386628
0.505863
0.24422
0.237493
-0.481734
0.554382
0.00455765
-0.55887
-0.0589323
0.267898
-0.461085
0.193109
-0.224415
-0.132111
0.356607
-0.269595
0.553153
-0.283518
0.219736
-0.535244
0.315515
-0.343083
-0.140491
0.236988
-0.415994
0.321182
-0.600451
0.140174
0.551908
-0.291377
-0.360559
0.25386
0.258878
0.338049
-0.109114
-0.164544
0.38816
-0.346469
0.657216
-0.334793
-0.314245
-0.297794
0.018077
-0.532441
0.51458
0.585521
-0.242219
-0.111929
-0.182629
-0.550248
0.207174
0.300433
-0.57466
0.274253
-0.238399
0.491593
0.171189
0.161284
-0.540103
0.498363
-0.553804
0.0173011
0.53655
0.333386
0.0794994
-0.412817
0.560912
-0.241316
-0.46709
0.0774602
0.389717
0.411872
0.2466
-0.06575
-0.401265
-0.410405
-0.359701
-0.119241
0.528379
-0.308627
0.354895
-0.421085
-0.0512334
0.260314
-0.327064
0.532221
-0.249159
-0.283046
0.209032
0.286777
0.346496
0.38491
0.237973
-0.430793
0.229588
0.2013
0.17455
-0.571583
-0.421877
0.0235023
0.398396
0.337016
0.195219
0.291012
0.450403
0.164133
-0.397215
0.284131
0.496599
-0.231407
-0.50057
0.204859
0.295689
-0.190054
0.523504
0.322997
0.254822
0.322641
-0.0538101
-0.268823
0.244858
0.211485
-0.456379
-0.190042
-0.350793
0.540864
0.569575
-0.283812
-0.285743
-0.217918
-0.269625
0.487511
0.532525
-0.241628
0.629655
-0.267824
0.0173393
-0.157793
-0.342792
0.168282
0.239879
-0.21227
-0.435006
0.0879485
-0.0746584
-0.34082
-0.175204
0.516201
-0.198571
-0.232127
0.498189
-0.329914
0.456712
-0.214853
-0.551051
0.0888525
0.448714
0.143152
-0.247655
0.506071
-0.258396
-0.355317
0.298729
-0.34629
0.121948
0.486409
-0.222124
-0.524169
0.518814
0.558955
-0.0361084
-0.545529
0.257745
0.287794
-0.274271
0.578503
-0.30423
0.197651
0.259351
-0.456945
-0.363411
0.158097
-0.120257
0.380675
0.200525
-0.522375
-0.518135
0.268776
0.274366
0.274051
-0.548418
-0.553998
-0.117256
0.44642
0.311243
-0.116198
0.529909
0.320581
0.253414
-0.574038
0.597363
-0.146909
0.306937
-0.112349
-0.281586
0.586945
-0.305359
0.48942
-0.20823
0.699755
-0.437412
-0.262313
0.0662043
-0.0167797
-0.0494062
-0.126776
0.300918
-0.560944
0.395807
-0.0539228
-0.565731
0.411206
0.154525
0.284348
-0.102478
0.437889
0.159526
0.299165
0.270427
0.558787
-0.000826537
-0.557875
-0.496171
0.248525
0.153968
-0.549296
0.395334
0.581975
-0.28271
-0.15252
0.340496
-0.543856
0.40353
0.140346
0.239072
-0.601512
0.353084
0.252945
0.549539
-0.260367
-0.289151
0.304826
-0.0889531
-0.0893317
0.145008
-0.392999
-0.174789
0.567807
0.306781
0.259343
0.28418
0.317674
-0.60187
-0.547247
0.142223
0.315456
-0.414564
0.0760053
-0.249423
0.521368
0.108895
0.240728
0.243246
-0.51166
0.268488
0.033919
-0.433667
0.399743
-0.471246
-0.129178
0.389762
-0.236661
0.500271
-0.270883
-0.322372
0.606943
-0.284569
-0.202296
-0.305289
0.177618
0.250117
-0.427775
-0.26319
0.137295
-0.411245
0.295678
-0.508355
0.212727
0.223487
0.285589
-0.509116
-0.510932
-0.220334
-0.27246
0.492798
-0.487222
0.55251
-0.0648014
0.0664933
-0.257778
-0.303762
0.561609
0.276184
-0.534912
0.258771
0.3309
-0.591374
-0.170656
0.491227
0.515454
-0.121305
-0.133786
-0.410047
0.487882
-0.278817
0.531795
-0.22468
0.0927566
-0.372346
0.406289
-0.390813
0.189421
-0.334699
0.145351
-0.274869
0.265259
-0.204827
-0.375976
0.140023
0.358176
0.00851996
-0.414707
0.119453
0.203198
-0.543216
-0.407291
0.502269
-0.0948554
-0.292922
0.559087
-0.296121
-0.194226
-0.24925
-0.269867
0.47036
-0.464247
-0.549659
0.168021
0.381704
-0.383459
0.0476059
0.335915
0.33018
0.243919
-0.574079
0.14694
0.322526
-0.469453
-0.119354
0.338692
-0.219284
-0.343813
0.582882
0.334197
-0.593358
0.259162
-0.448099
-0.0385868
0.253371
0.250917
0.545422
-0.545379
-0.137931
-0.276615
-0.0494586
-0.3821
0.43154
0.481516
-0.415828
-0.00601523
0.241859
-0.533464
0.291658
0.307751
-0.188288
-0.394181
0.242185
0.439417
0.260377
0.111789
0.405312
0.657229
-0.331884
-0.325317
0.569313
-0.29087
-0.278463
0.253871
-0.552705
0.298875
0.41511
-0.250381
-0.509704
0.160182
0.175571
0.445478
0.128339
0.178136
0.253528
-0.449104
0.195663
0.567957
-0.31404
0.158391
-0.398512
0.329164
0.196362
-0.5255
0.434739
-0.18463
0.377231
-0.18773
-0.345465
-0.407292
0.291006
-0.555909
0.264946
-0.322096
0.476254
-0.154213
-0.601006
0.167348
0.482161
0.103119
-0.585203
0.181041
-0.370444
0.189406
0.0757342
0.206425
0.216796
0.434125
0.215827
-0.478197
0.262358
0.356234
0.211014
-0.3006
0.591232
-0.269736
-0.284041
-0.274247
0.558304
-0.304554
0.265873
-0.54746
0.204167
0.306276
-0.510443
0.208722
-0.48033
0.27168
0.307412
0.29965
-0.60707
-0.187417
0.26408
-0.310684
0.609384
-0.298623
0.101356
-0.50853
0.59158
-0.271016
0.305798
-0.570932
0.265117
0.595337
-0.488446
0.274664
-0.397528
-0.168202
-0.106362
-0.541303
0.228201
0.355242
-0.212889
-0.142264
-0.280176
0.111597
-0.0236355
-0.270245
-0.272614
0.542888
-0.212596
-0.219062
0.316011
0.317056
0.330347
0.326909
0.270254
-0.592616
0.586522
-0.252324
-0.343936
-0.163102
0.507112
0.424359
-0.217038
-0.207219
-0.251814
-0.0732892
0.111745
0.520942
-0.204665
-0.316223
0.52049
-0.408687
0.394616
0.120783
-0.24933
0.525545
-0.131525
-0.338265
-0.413584
-0.0615395
0.215009
-0.519803
0.304829
0.240243
-0.342075
-0.0413325
0.0692505
-0.000229937
0.48129
-0.12284
0.237711
-0.279988
0.58739
0.636137
-0.269087
-0.366918
0.0219896
-0.358073
0.336161
-0.579224
0.16877
0.410454
0.305844
0.303622
-0.562971
0.259466
-0.280416
0.186927
0.0935711
-0.0909302
-0.326527
0.278815
-0.62264
-0.100575
0.272193
-0.223627
-0.265469
0.489098
-0.115546
-0.218874
0.33447
-0.519646
0.478077
-0.331122
0.565706
-0.519532
-0.046177
0.428261
-0.177098
0.294521
-0.500937
0.206424
0.588261
-0.295959
-0.526049
0.185391
0.313432
-0.571318
0.297107
-0.26542
0.0296698
0.235779
0.224875
-0.276477
-0.242147
0.312645
-0.369364
-0.275664
-0.299409
0.575108
0.187001
0.12076
-0.162328
0.567263
-0.237067
-0.503579
0.328487
-0.613719
0.203325
0.285436
0.302821
-0.440295
-0.113826
-0.485684
0.196043
-0.428193
0.2323
-0.271154
0.464136
-0.210524
-0.618251
0.276192
0.342077
0.500381
0.400283
0.304202
-0.577475
0.273277
0.401515
-0.34155
0.249663
0.214559
0.27454
0.368016
-0.404793
0.0827801
0.32207
-0.216794
-0.270052
0.389006
-0.118869
-0.371235
0.145772
-0.240432
0.436621
-0.545665
-0.271423
0.010914
0.0688426
0.0664982
-0.0555696
0.282424
0.128096
0.263015
0.101861
0.202991
-0.250969
-0.014421
-0.0227315
0.217909
0.371102
-0.424176
0.053093
0.144247
0.27622
-0.420342
0.533215
-0.204032
-0.24064
0.653635
-0.323269
-0.201031
-0.347868
0.548917
0.2109
0.135617
0.608204
-0.245705
-0.124683
0.316785
-0.192071
0.545347
-0.223847
-0.473634
0.253313
-0.443084
-0.298485
0.616151
0.566869
-0.195746
0.447266
-0.202416
0.151022
-0.420266
-0.179134
0.462128
-0.282928
-0.324713
0.54909
-0.224357
0.134457
0.201113
-0.335538
-0.538654
0.314185
0.224531
-0.344032
-0.205551
0.533544
-0.00818784
-0.525266
-0.177425
0.0971545
0.0802857
-0.263076
0.39755
-0.134475
-0.220353
0.568424
-0.348051
-0.63582
0.287368
0.348464
0.442618
0.11183
0.281081
0.199565
0.514588
-0.310435
0.225891
-0.287179
0.502208
-0.422757
-0.233385
0.51423
-0.280836
0.0103003
-0.345139
0.192404
0.231267
-0.252537
0.146185
-0.380357
-0.0892911
-0.0881182
-0.166318
0.315791
-0.149451
-0.494245
0.136408
0.357789
0.309345
-0.164833
-0.144486
0.24255
0.510999
-0.265319
-0.245641
-0.446176
0.201619
0.244642
0.2385
-0.46138
0.0611593
0.346542
-0.212045
0.317165
-0.0872923
-0.229859
0.545898
-0.254851
0.519743
-0.259181
-0.0768522
-0.384482
-0.271912
0.577721
-0.184265
-0.290981
0.285697
0.283596
-0.24921
-0.0107078
0.0456754
-0.55994
0.300133
0.44666
-0.302294
0.214511
-0.137788
0.349799
-0.211977
-0.322952
0.583339
-0.260401
0.28527
0.351001
0.199755
0.288163
-0.25369
0.140685
0.214638
-0.530068
-0.00223266
0.346219
-0.130775
-0.215379
-0.183802
-0.354047
0.53787
-0.262678
0.5571
-0.294342
-0.60299
0.28227
0.320752
0.344793
-0.143643
-0.223839
0.453525
-0.551705
0.267821
0.296902
0.252659
0.248568
0.262471
0.467913
-0.327889
-0.165791
-0.43521
0.241855
-0.182207
0.450916
-0.288828
-0.16207
0.228496
0.197094
-0.437415
-0.267687
0.596192
-0.328494
-0.371586
0.317173
-0.29511
-0.5022
0.289451
-0.325124
-0.287678
0.209731
0.247719
-0.457376
-0.281801
0.508663
-0.226807
-0.26808
0.583336
0.32892
0.214159
-0.543055
0.179129
-0.534557
0.29374
-0.556311
0.220843
-0.554283
0.333536
0.311624
0.212509
-0.229587
0.373047
-0.15497
-0.218108
0.276422
-0.560368
0.21022
-0.497373
0.220711
0.12005
-0.611043
0.280539
0.330507
-0.35233
0.403457
-0.051111
0.198958
-0.33672
0.31661
-0.58469
-0.543005
0.279586
-0.288098
-0.282044
0.570138
0.278451
-0.226836
-0.0678936
-0.511329
-0.296639
0.582569
-0.285919
0.215223
-0.560026
0.344823
0.314836
0.253162
-0.135802
-0.312776
0.557073
-0.244268
-0.576748
0.288684
-0.256682
-0.226116
0.482816
0.440886
-0.243712
-0.25576
-0.30708
-0.328729
-0.266712
0.288373
0.294925
-0.205758
0.500348
0.295867
-0.108887
-0.28118
-0.288823
0.499057
0.50857
0.0124006
-0.520776
-0.335278
-0.0694623
-0.341242
-0.183433
0.52465
-0.22421
-0.325889
-0.181211
0.507113
-0.177117
-0.270668
-0.257338
0.165499
-0.277412
-0.228646
0.407842
-0.56282
0.17027
-0.554462
0.2968
0.00225729
-0.247402
0.134619
0.261263
0.273035
-0.51146
0.238421
-0.0996748
-0.569951
0.264886
0.305111
-0.222582
0.449193
-0.226492
-0.558037
0.216762
0.368198
0.550865
-0.335624
-0.247088
0.582122
-0.334941
-0.161957
-0.254543
0.470366
0.594227
-0.309446
-0.284609
-0.106473
-0.360222
0.466758
-0.0802291
0.0962926
0.539268
-0.266225
0.516085
0.188476
-0.532321
-0.145811
0.43695
-0.291067
-0.25243
0.229732
-0.11361
-0.440153
0.193061
-0.402347
0.299082
0.252548
-0.551612
0.616255
0.484219
0.453796
0.227542
-0.573619
0.346078
0.304048
-0.248332
-0.055664
-0.129354
0.290636
-0.161261
0.231761
0.338331
-0.323559
0.456107
-0.258412
-0.555596
0.311801
0.24383
-0.219928
0.519681
-0.198697
0.57459
-0.277456
-0.291812
0.589214
-0.297394
-0.275671
0.182591
0.269986
0.129517
0.436186
0.174327
0.253962
0.00358162
0.246326
-0.584715
0.338393
-0.240723
-0.293074
0.49287
0.599313
-0.35297
0.219549
0.331334
0.523492
-0.430828
-0.0926835
0.316795
-0.603039
0.286263
0.346137
-0.11856
-0.227505
0.14766
0.225356
0.256498
0.0606783
0.294069
-0.347929
0.22848
-0.468542
0.240183
-0.571438
0.295802
0.28001
-0.121044
-0.0876475
0.381806
0.0668007
0.377814
-0.444623
-0.189553
0.265368
0.277018
-0.389919
0.290767
0.515587
0.0137046
-0.529276
0.102018
0.421454
0.47966
-0.343296
-0.551215
0.226516
-0.240843
0.566305
-0.325392
0.325316
0.383522
-0.224844
0.068162
0.235937
0.275135
-0.591967
0.316906
-0.254185
0.595827
-0.341627
0.300965
0.345142
0.346574
0.581392
-0.530434
0.522406
0.318227
0.252338
-0.570544
0.303679
0.244724
-0.548248
0.291119
-0.55926
0.26814
-0.230994
-0.204983
-0.30648
0.146365
-0.200288
0.450297
-0.249948
-0.0740093
-0.149572
-0.214857
0.474236
-0.591588
0.280849
0.310931
-0.223819
-0.278391
-0.385154
0.451945
0.138881
0.207329
0.0918
0.309435
0.520446
-0.208776
0.237909
0.292583
-0.530492
-0.314073
-0.194239
0.0495791
0.248861
-0.298407
-0.013521
0.234282
-0.479801
0.256157
-0.661888
-0.6056
0.333022
0.272592
-0.525329
0.165259
0.360098
-0.53296
-0.60023
0.320461
0.279792
-0.255432
-0.139638
0.492885
-0.353209
0.537461
-0.435452
-0.105159
0.406206
0.341806
-0.263028
-0.51767
0.112092
0.405578
-0.307718
-0.270382
0.578149
-0.0514643
-0.0991785
0.313511
-0.214299
0.0987104
0.438741
-0.593883
0.303486
0.290356
0.287229
-0.474025
0.186798
-0.323961
-0.276242
-0.335478
0.217998
0.11753
-0.541536
0.290836
0.250847
0.518112
-0.318071
-0.23502
0.403375
0.309551
0.272515
-0.324993
0.550008
-0.224996
0.26874
-0.120034
0.240681
-0.389238
0.468784
0.41601
-0.122049
0.527531
-0.183966
-0.343538
-0.310028
-0.0856661
-0.203745
-0.383193
0.543146
-0.252049
-0.548508
0.128834
0.366093
-0.494914
0.168605
0.247475
-0.512647
0.219757
0.292876
-0.116601
0.463098
-0.330368
-0.136339
0.352468
-0.147969
-0.204432
-0.555052
-0.228596
0.369378
0.277555
-0.571748
0.294292
0.151918
-0.239306
0.489045
0.272753
0.18343
-0.456094
0.315378
0.205113
0.311364
0.261769
-0.573105
0.196732
0.120085
-0.371392
0.599735
0.560438
-0.285308
0.204882
-0.486647
0.565445
-0.235499
-0.329886
-0.244713
0.532049
-0.287267
-0.400679
0.169689
0.230999
-0.263103
0.55986
-0.296663
0.137239
-0.475701
0.338459
-0.000378651
0.606175
-0.605528
0.217512
0.0877674
-0.230677
0.559099
-0.328422
0.265978
0.291207
0.305571
0.257756
-0.563308
0.238442
0.299907
-0.53834
0.210215
0.136066
0.138872
-0.562749
-0.322428
0.552809
-0.253699
-0.21475
0.543695
-0.57768
0.357348
-0.458777
0.20057
-0.418958
0.275214
0.180394
-0.455549
0.207298
-0.496091
-0.0147936
0.523522
-0.262482
-0.0746759
0.171851
0.300797
-0.526418
0.225626
-0.475026
0.214054
0.127783
-0.597595
0.366566
0.231046
-0.358367
-0.292981
-0.294566
-0.308528
0.603116
0.276836
-0.397312
0.234782
0.200189
0.34621
0.222235
-0.561106
0.307351
0.253768
-0.00281505
0.548122
-0.54529
-0.430386
0.591565
-0.161189
-0.287416
0.494772
-0.188654
0.413839
-0.22514
0.261976
0.277298
-0.318206
-0.285124
0.294405
-0.557397
-0.442388
-0.131057
0.583511
-0.278254
-0.305185
0.541401
-0.230014
0.206796
0.0891242
-0.313676
-0.256229
0.164982
-0.296042
-0.500381
0.119669
0.380713
-0.476745
-0.352836
-0.258203
0.324677
-0.0696805
-0.305597
0.553341
-0.247699
-0.288938
-0.0953883
-0.519606
0.519395
0.296235
-0.564417
0.268261
-0.120233
0.307249
-0.16079
-0.204742
-0.296195
-0.333691
0.123541
0.210191
0.232955
0.261055
-0.223513
0.383788
-0.288396
0.564733
-0.0528607
0.563687
0.364349
0.176541
0.186249
0.123121
-0.378325
0.485608
0.23553
0.268973
-0.172247
0.26853
0.282741
-0.55123
-0.522157
0.277444
0.543599
-0.215526
-0.328059
0.46911
-0.206829
-0.262271
0.286274
0.298878
-0.585156
0.584763
-0.201855
0.187083
-0.428838
0.241773
0.168221
-0.494103
0.22096
0.227995
-0.548172
0.32018
-0.278999
0.592991
-0.306699
-0.267304
-0.446314
0.412028
-0.218919
0.536604
-0.249375
-0.28962
0.0611996
0.205791
-0.266939
0.230142
0.183742
-0.213798
-0.124153
-0.166803
-0.276085
0.568979
-0.292789
-0.292005
0.584863
-0.607019
0.273962
0.333055
0.040991
0.575608
-0.268631
-0.307003
-0.389147
0.258242
0.550578
-0.291794
0.580188
-0.288384
-0.257253
-0.609699
0.288041
0.321666
-0.570832
0.27071
0.300139
0.399974
-0.577987
0.17803
-0.285433
-0.260373
0.545803
-0.277724
0.408436
-0.18501
0.243339
-0.563108
0.259233
-0.595444
0.33621
0.210178
0.139655
0.317418
0.121555
0.305766
0.26982
-0.278224
0.574089
-0.295729
-0.274862
0.597777
-0.322901
-0.00500098
-0.0682845
-0.132921
-0.202585
-0.509871
0.0932881
0.293849
-0.571971
0.275863
0.415571
0.205388
0.141195
0.581884
-0.153797
0.474202
-0.320382
-0.328372
0.547932
0.597326
-0.338075
0.555542
-0.237711
-0.378491
-0.306987
-0.286935
0.431677
-0.244577
0.52169
-0.289518
-0.232224
0.572805
-0.295108
-0.273097
-0.318313
0.591433
0.241921
-0.460113
0.21826
0.30622
-0.586189
0.337072
-0.148663
-0.188368
0.0149818
-0.591769
0.274524
0.266503
0.304128
-0.570705
0.282402
0.263537
0.172662
-0.0903567
0.308771
0.254718
-0.563459
0.137537
0.204402
-0.341893
-0.531276
0.5303
0.00106177
0.297317
-0.579347
-0.204802
0.507759
-0.302983
-0.256076
0.0363438
0.349611
0.136114
-0.480072
0.336935
-0.410926
0.617262
-0.206331
-0.161772
0.28565
-0.123861
-0.282005
0.517621
-0.345849
0.133914
0.333794
0.209821
0.375431
-0.213058
-0.162372
0.246533
-0.00469708
0.51955
0.230514
0.607639
0.140418
0.204411
0.0680911
0.227264
-0.295315
-0.388287
0.281876
0.290024
-0.571899
0.260498
0.208623
0.288153
-0.199394
-0.348856
0.136837
0.11825
0.516149
-0.520689
0.588232
-0.323304
-0.234248
0.516941
-0.282635
0.545898
-0.317895
0.118527
-0.192498
0.327035
-0.208594
0.311517
-0.579198
-0.24303
0.603429
-0.356179
-0.247249
-0.19714
-0.234177
0.462766
0.348459
-0.500137
0.151694
-0.248568
-0.290024
0.282234
-0.0833863
0.232633
-0.149227
0.464137
0.0157208
-0.47972
-0.130978
-0.517936
0.1047
0.344108
0.222483
0.114633
-0.235694
-0.23273
0.283483
0.285775
-0.569269
-0.357601
0.137158
-0.28348
0.497807
-0.214323
-0.509425
0.177962
0.331494
-0.298053
-0.272763
-0.0796513
-0.231328
-0.36625
0.00908907
0.0794619
-0.237052
0.305268
-0.0552037
0.300452
-0.505285
0.180531
0.193409
0.238284
-0.283488
0.551992
-0.541902
0.229142
-0.471105
0.532868
-0.061748
0.255119
0.0719268
-0.399853
0.171255
0.355643
-0.145367
-0.16095
0.0497402
0.133759