/*--------------------------------*- C++ -*----------------------------------*\
| =========                 |                                                 |
| \\      /  F ield         | OpenFOAM: The Open Source CFD Toolbox           |
|  \\    /   O peration     | Version:  v2012                                 |
|   \\  /    A nd           | Website:  www.openfoam.com                      |
|    \\/     M anipulation  |                                                 |
\*---------------------------------------------------------------------------*/
FoamFile
{
    version     2.0;
    format      ascii;
    class       pointVectorField;
    location    "150";
    object      pointDisplacement;
}
// * * * * * * * * * * * * * * * * * * * * * * * * * * * * * * * * * * * * * //

dimensions      [0 1 0 0 0 0 0];


internalField   nonuniform List<vector> 
10400
(
(0 0 0)
(0 0 0)
(0 0 0)
(0 0 0)
(0 0 0)
(0 0 0)
(0 0 0)
(0 0 0)
(0 0 0)
(0 0 0)
(0 0 0)
(0 0 0)
(0 0 0)
(0 0 0)
(0 0 0)
(0 0 0)
(0 0 0)
(0 0 0)
(0 0 0)
(0 0 0)
(0 0 0)
(0 0 0)
(0 0 0)
(0 0 0)
(0 0 0)
(0 0 0)
(0 0 0)
(0 0 0)
(0 0 0)
(0 0 0)
(0 0 0)
(0 0 0)
(0 0 0)
(0 0 0)
(0 0 0)
(0 0 0)
(0 0 0)
(0 0 0)
(0 0 0)
(0 0 0)
(0 0 0)
(0 0 0)
(0 0 0)
(0 0 0)
(0 0 0)
(0 0 0)
(0 0 0)
(0 0 0)
(0 0 0)
(0 0 0)
(0 0 0)
(0 0 0)
(0 0 0)
(0 0 0)
(0 0 0)
(0 0 0)
(0 0 0)
(0 0 0)
(0 0 0)
(0 0 0)
(0 0 0)
(0 0 0)
(0 0 0)
(0 0 0)
(0 0 0)
(0 0 0)
(0 0 0)
(0 0 0)
(0 0 0)
(0 0 0)
(0 0 0)
(0 0 0)
(0 0 0)
(0 0 0)
(0 0 0)
(0 0 0)
(0 0 0)
(0 0 0)
(0 0 0)
(0 0 0)
(0 0 0)
(0 0 0)
(0 0 0)
(0 0 0)
(0 0 0)
(0 0 0)
(0 0 0)
(0 0 0)
(0 0 0)
(0 0 0)
(0 0 0)
(0 0 0)
(0 0 0)
(0 0 0)
(0 0 0)
(0 0 0)
(0 0 0)
(0 0 0)
(0 0 0)
(0 0 0)
(0 0 0)
(0 0 0)
(0 0 0)
(0 0 0)
(0 0 0)
(0 0 0)
(0 0 0)
(0 0 0)
(0 0 0)
(0 0 0)
(0 0 0)
(0 0 0)
(0 0 0)
(0 0 0)
(0 0 0)
(0 0 0)
(0 0 0)
(0 0 0)
(0 0 0)
(0 0 0)
(0 0 0)
(0 0 0)
(0 0 0)
(0 0 0)
(0 0 0)
(0 0 0)
(0 0 0)
(0 0 0)
(0 0 0)
(0 0 0)
(0 0 0)
(0 0 0)
(0 0 0)
(0 0 0)
(0 0 0)
(0 0 0)
(0 0 0)
(0 0 0)
(0 0 0)
(0 0 0)
(0 0 0)
(0 0 0)
(0 0 0)
(0 0 0)
(0 0 0)
(0 0 0)
(0 0 0)
(0 0 0)
(0 0 0)
(0 0 0)
(0 0 0)
(0 0 0)
(0 0 0)
(0 0 0)
(0 0 0)
(0 0 0)
(0 0 0)
(0 0 0)
(0 0 0)
(0 0 0)
(0 0 0)
(0 0 0)
(0 0 0)
(0 0 0)
(0 0 0)
(0 0 0)
(0 0 0)
(0 0 0)
(0 0 0)
(0 0 0)
(0 0 0)
(0 0 0)
(0 0 0)
(0 0 0)
(0 0 0)
(0 0 0)
(0 0 0)
(0 0 0)
(0 0 0)
(0 0 0)
(0 0 0)
(0 0 0)
(0 0 0)
(0 0 0)
(0 0 0)
(0 0 0)
(0 0 0)
(0 0 0)
(0 0 0)
(0 0 0)
(0 0 0)
(0 0 0)
(0 0 0)
(0 0 0)
(0 0 0)
(0 0 0)
(0 0 0)
(0 0 0)
(0 0 0)
(0 0 0)
(0 0 0)
(0 0 0)
(0 0 0)
(0 0 0)
(0 0 0)
(0 0 0)
(0 0 0)
(0 0 0)
(0 0 0)
(0 0 0)
(0 0 0)
(0 0 0)
(0 0 0)
(0 0 0)
(0 0 0)
(0 0 0)
(0 0 0)
(0 0 0)
(0 0 0)
(0 0 0)
(0 0 0)
(0 0 0)
(0 0 0)
(0 0 0)
(0 0 0)
(0 0 0)
(0 0 0)
(0 0 0)
(0 0 0)
(0 0 0)
(0 0 0)
(0 0 0)
(0 0 0)
(0 0 0)
(0 0 0)
(0 0 0)
(0 0 0)
(0 0 0)
(0 0 0)
(0 0 0)
(0 0 0)
(0 0 0)
(0 0 0)
(0 0 0)
(0 0 0)
(0 0 0)
(0 0 0)
(0 0 0)
(0 0 0)
(0 0 0)
(0 0 0)
(0 0 0)
(0 0 0)
(0 0 0)
(0 0 0)
(0 0 0)
(0 0 0)
(0 0 0)
(0 6.92309e-05 0)
(0 6.78441e-05 0)
(0 5.71729e-05 0)
(0 4.7061e-05 0)
(0 5.93179e-05 0)
(0 3.36308e-05 0)
(0 5.5081e-05 0)
(0 6.13158e-05 0)
(0 4.05069e-05 0)
(0 4.58613e-05 0)
(0 3.6995e-05 0)
(0 2.72657e-05 0)
(0 3.15578e-05 0)
(0 2.94607e-05 0)
(0 2.21738e-05 0)
(0 2.04244e-05 0)
(0 1.72417e-05 0)
(0 1.63583e-05 0)
(0 5.91438e-05 0)
(0 5.3898e-05 0)
(0 1.04288e-05 0)
(0 1.13479e-05 0)
(0 4.90021e-05 0)
(0 3.34537e-05 0)
(0 6.24444e-05 0)
(0 6.73915e-05 0)
(0 6.65432e-05 0)
(0 6.00286e-05 0)
(0 3.4724e-05 0)
(0 4.4257e-05 0)
(0 2.88628e-05 0)
(0 3.51158e-05 0)
(0 2.7867e-05 0)
(0 5.33504e-06 0)
(0 5.74188e-06 0)
(0 6.53988e-05 0)
(0 6.79213e-05 0)
(0 7.27903e-05 0)
(0 5.73643e-05 0)
(0 5.72808e-05 0)
(0 5.91612e-05 0)
(0 5.61637e-05 0)
(0 5.15426e-05 0)
(0 1.24644e-05 0)
(0 2.89701e-05 0)
(0 4.39964e-05 0)
(0 3.41836e-05 0)
(0 1.381e-05 0)
(0 1.84459e-05 0)
(0 2.00787e-05 0)
(0 3.76551e-05 0)
(0 2.3045e-06 0)
(0 0.000822286 0)
(0 0.000849851 0)
(0 0.000808928 0)
(0 0.000836292 0)
(0 0.000795999 0)
(0 0.000824071 0)
(0 0.000783108 0)
(0 0.000810005 0)
(0 0.000769867 0)
(0 0.00079624 0)
(0 0.000757533 0)
(0 0.000784375 0)
(0 0.000746528 0)
(0 0.000773008 0)
(0 0.00073649 0)
(0 0.000763115 0)
(0 0.000726954 0)
(0 0.000754266 0)
(0 0.000718314 0)
(0 0.000750919 0)
(0 0.000709351 0)
(0 0.00073781 0)
(0 0.000700429 0)
(0 0.00144977 0)
(0 0.00146508 0)
(0 0.00148707 0)
(0 0.00147934 0)
(0 0.00150082 0)
(0 0.00151965 0)
(0 0.00151282 0)
(0 0.00153144 0)
(0 0.00154855 0)
(0 0.00154239 0)
(0 0.00155918 0)
(0 0.00156417 0)
(0 0.00157452 0)
(0 0.00156817 0)
(0 0.00158276 0)
(0 0.00158784 0)
(0 0.00159552 0)
(0 0.00160636 0)
(0 0.00160156 0)
(0 0.00161202 0)
(0 0.00161523 0)
(0 0.00162034 0)
(0 0.00161554 0)
(0 0.00162308 0)
(0 0.00162693 0)
(0 0.00162929 0)
(0 0.00162432 0)
(0 0.00163 0)
(0 0.00163376 0)
(0 0.00163412 0)
(0 0.00163657 0)
(0 0.00163334 0)
(0 0.00163577 0)
(0 0.0016374 0)
(0 0.00163646 0)
(0 0.0016341 0)
(0 0.00163429 0)
(0 0.0016351 0)
(0 0.0016332 0)
(0 0.00163143 0)
(0 0.00163014 0)
(0 0.00163108 0)
(0 0.00162778 0)
(0 0.000728239 0)
(0 0.000693329 0)
(0 0.00162337 0)
(0 0.00162228 0)
(0 0.00161747 0)
(0 0.00161038 0)
(0 0.00161026 0)
(0 0.00160295 0)
(0 0.00160146 0)
(0 0.00159374 0)
(0 0.00159337 0)
(0 0.00158368 0)
(0 0.0015823 0)
(0 0.00157214 0)
(0 0.00155917 0)
(0 0.00155948 0)
(0 0.00154771 0)
(0 0.00153437 0)
(0 0.0015342 0)
(0 0.0015215 0)
(0 0.00151933 0)
(0 0.00150679 0)
(0 0.00150736 0)
(0 0.00149174 0)
(0 0.00148929 0)
(0 0.00147386 0)
(0 0.000721578 0)
(0 0.000687101 0)
(0 0.00147439 0)
(0 0.00145651 0)
(0 0.00145469 0)
(0 0.00143747 0)
(0 0.00141743 0)
(0 0.00141884 0)
(0 0.00139937 0)
(0 0.00139666 0)
(0 0.00137917 0)
(0 0.00138045 0)
(0 0.00136065 0)
(0 0.00135804 0)
(0 0.00133979 0)
(0 0.00134084 0)
(0 0.00132001 0)
(0 0.00131791 0)
(0 0.00129816 0)
(0 0.00127536 0)
(0 0.00127763 0)
(0 0.00125496 0)
(0 0.00123142 0)
(0 0.00123352 0)
(0 0.00121002 0)
(0 0.00120723 0)
(0 0.000717194 0)
(0 0.000681473 0)
(0 0.00121104 0)
(0 0.00118752 0)
(0 0.00118724 0)
(0 0.00116407 0)
(0 0.000710808 0)
(0 0.000675628 0)
(0 0.000646825 0)
(0 0.000641994 0)
(0 0.000613608 0)
(0 0.000610215 0)
(0 0.00058178 0)
(0 0.000580382 0)
(0 0.000551662 0)
(0 0.000552758 0)
(0 0.000523625 0)
(0 0.000522927 0)
(0 0.000497307 0)
(0 0.000497881 0)
(0 0.000472953 0)
(0 0.000473919 0)
(0 0.000449881 0)
(0 0.000452176 0)
(0 0.000427667 0)
(0 0.000432287 0)
(0 0.000406778 0)
(0 0.000412201 0)
(0 0.000387344 0)
(0 0.000392173 0)
(0 0.000369183 0)
(0 0.000374496 0)
(0 0.000352906 0)
(0 0.00116255 0)
(0 0.000358193 0)
(0 0.000338062 0)
(0 0.00113987 0)
(0 0.000343717 0)
(0 0.000324383 0)
(0 0.000330655 0)
(0 0.000311261 0)
(0 0.00113704 0)
(0 0.000703899 0)
(0 0.000471476 0)
(0 0.000521168 0)
(0 0.00111471 0)
(0 0.0011106 0)
(0 0.00108836 0)
(0 0.00108327 0)
(0 0.00110443 0)
(0 0.000397154 0)
(0 0.00107597 0)
(0 0.00109605 0)
(0 0.00105525 0)
(0 0.00104723 0)
(0 0.00102681 0)
(0 0.000363691 0)
(0 0.00101819 0)
(0 0.0009978 0)
(0 0.000988742 0)
(0 0.00109135 0)
(0 0.000968286 0)
(0 0.000958693 0)
(0 0.00074015 0)
(0 0.000732445 0)
(0 0.000769539 0)
(0 0.000761355 0)
(0 0.000798205 0)
(0 0.00078965 0)
(0 0.00082512 0)
(0 0.000817623 0)
(0 0.00085704 0)
(0 0.000844187 0)
(0 0.000880093 0)
(0 0.000868075 0)
(0 0.00090257 0)
(0 0.000891281 0)
(0 0.000929334 0)
(0 0.000938053 0)
(0 0.000927643 0)
(0 0.000946333 0)
(0 0.000913097 0)
(0 0.000948247 0)
(0 0.000879634 0)
(0 0.000914585 0)
(0 0.000931697 0)
(0 0.000896369 0)
(0 0.000931819 0)
(0 0.000966494 0)
(0 0.000882643 0)
(0 0.000864655 0)
(0 0.000850265 0)
(0 0.000948726 0)
(0 0.00098292 0)
(0 0.000832444 0)
(0 0.000817516 0)
(0 0.000963262 0)
(0 0.000997447 0)
(0 0.000799996 0)
(0 0.00078472 0)
(0 0.000976089 0)
(0 0.00101027 0)
(0 0.000767328 0)
(0 0.000781125 0)
(0 0.000751659 0)
(0 0.000767437 0)
(0 0.00071107 0)
(0 0.000987097 0)
(0 0.00102112 0)
(0 0.000952213 0)
(0 0.000733932 0)
(0 0.000748126 0)
(0 0.000718564 0)
(0 0.000996186 0)
(0 0.00102989 0)
(0 0.000700503 0)
(0 0.000685411 0)
(0 0.00100284 0)
(0 0.00103652 0)
(0 0.000667312 0)
(0 0.00100718 0)
(0 0.00104104 0)
(0 0.000652353 0)
(0 0.000787444 0)
(0 0.000634368 0)
(0 0.00100944 0)
(0 0.00104343 0)
(0 0.00061963 0)
(0 0.000601559 0)
(0 0.00107384 0)
(0 0.00107668 0)
(0 0.0010434 0)
(0 0.00107685 0)
(0 0.00110891 0)
(0 0.0011091 0)
(0 0.00107469 0)
(0 0.00110645 0)
(0 0.00114095 0)
(0 0.00113749 0)
(0 0.00110109 0)
(0 0.00113081 0)
(0 0.00116771 0)
(0 0.00116019 0)
(0 0.00142589 0)
(0 0.000586946 0)
(0 0.00056885 0)
(0 0.000582128 0)
(0 0.00111948 0)
(0 0.00114882 0)
(0 0.0011934 0)
(0 0.0011761 0)
(0 0.00113434 0)
(0 0.00116151 0)
(0 0.00120104 0)
(0 0.00118746 0)
(0 0.00114557 0)
(0 0.00117063 0)
(0 0.00121193 0)
(0 0.00119434 0)
(0 0.000304119 0)
(0 0.00123537 0)
(0 0.00121778 0)
(0 0.00117582 0)
(0 0.00119867 0)
(0 0.000915826 0)
(0 0.000549275 0)
(0 0.000561177 0)
(0 0.000536449 0)
(0 0.00124052 0)
(0 0.0012205 0)
(0 0.00117329 0)
(0 0.00120009 0)
(0 0.00124179 0)
(0 0.00121968 0)
(0 0.00117736 0)
(0 0.00119383 0)
(0 0.00123879 0)
(0 0.00121397 0)
(0 0.00104427 0)
(0 0.00116706 0)
(0 0.00118906 0)
(0 0.00123303 0)
(0 0.0012085 0)
(0 0.00116388 0)
(0 0.00118279 0)
(0 0.00122675 0)
(0 0.00120055 0)
(0 0.000944604 0)
(0 0.000975995 0)
(0 0.00060345 0)
(0 0.00115574 0)
(0 0.00117292 0)
(0 0.00121716 0)
(0 0.00118903 0)
(0 0.00123216 0)
(0 0.00120348 0)
(0 0.00116119 0)
(0 0.001175 0)
(0 0.00121628 0)
(0 0.00118693 0)
(0 0.00114678 0)
(0 0.00115707 0)
(0 0.000516854 0)
(0 0.00050435 0)
(0 0.00119694 0)
(0 0.00116555 0)
(0 0.0011218 0)
(0 0.00113398 0)
(0 0.00117351 0)
(0 0.00114061 0)
(0 0.00109494 0)
(0 0.00110564 0)
(0 0.00114735 0)
(0 0.00111216 0)
(0 0.00106334 0)
(0 0.00107612 0)
(0 0.00111844 0)
(0 0.00108235 0)
(0 0.00103508 0)
(0 0.00104672 0)
(0 0.00108746 0)
(0 0.00105179 0)
(0 0.00101195 0)
(0 0.00101683 0)
(0 0.000484957 0)
(0 0.00109059 0)
(0 0.000472724 0)
(0 0.000976025 0)
(0 0.000981896 0)
(0 0.000453607 0)
(0 0.000939997 0)
(0 0.000945927 0)
(0 0.000441726 0)
(0 0.000422719 0)
(0 0.000433358 0)
(0 0.000902822 0)
(0 0.000909076 0)
(0 0.000950425 0)
(0 0.000914449 0)
(0 0.000896438 0)
(0 0.000872206 0)
(0 0.000878332 0)
(0 0.000411087 0)
(0 0.000429646 0)
(0 0.000392269 0)
(0 0.000835189 0)
(0 0.000841387 0)
(0 0.000918746 0)
(0 0.000380765 0)
(0 0.000362414 0)
(0 0.000797108 0)
(0 0.000803461 0)
(0 0.000758364 0)
(0 0.000764899 0)
(0 0.000351033 0)
(0 0.000333221 0)
(0 0.000719512 0)
(0 0.000726324 0)
(0 0.000770001 0)
(0 0.00073198 0)
(0 0.000688534 0)
(0 0.000694373 0)
(0 0.00071141 0)
(0 0.000322038 0)
(0 0.000304761 0)
(0 0.000314465 0)
(0 0.000736311 0)
(0 0.000698976 0)
(0 0.000657347 0)
(0 0.000662303 0)
(0 0.000286565 0)
(0 0.000294796 0)
(0 0.000829933 0)
(0 0.000782165 0)
(0 0.000621079 0)
(0 0.000626437 0)
(0 0.000500311 0)
(0 0.000531707 0)
(0 0.000504354 0)
(0 0.000535043 0)
(0 0.000507048 0)
(0 0.000537169 0)
(0 0.000508545 0)
(0 0.00029378 0)
(0 0.000309553 0)
(0 0.000738947 0)
(0 0.000667416 0)
(0 0.000478488 0)
(0 0.000479485 0)
(0 0.000585553 0)
(0 0.000591107 0)
(0 0.000538195 0)
(0 0.000756443 0)
(0 0.000267575 0)
(0 0.000274374 0)
(0 0.000566928 0)
(0 0.000550677 0)
(0 0.000556156 0)
(0 0.000449544 0)
(0 0.00045019 0)
(0 0.000281557 0)
(0 0.00029588 0)
(0 0.000567477 0)
(0 0.000596222 0)
(0 0.000544035 0)
(0 0.000326872 0)
(0 0.000340366 0)
(0 0.000347528 0)
(0 0.000332685 0)
(0 0.000354177 0)
(0 0.000368899 0)
(0 0.00037582 0)
(0 0.000390844 0)
(0 0.000398037 0)
(0 0.000412971 0)
(0 0.00042139 0)
(0 0.000404619 0)
(0 0.000429542 0)
(0 0.000446346 0)
(0 0.000456663 0)
(0 0.000438229 0)
(0 0.000467445 0)
(0 0.000472998 0)
(0 0.000447103 0)
(0 0.000477204 0)
(0 0.00045429 0)
(0 0.000484201 0)
(0 0.000458073 0)
(0 0.000487867 0)
(0 0.000515405 0)
(0 0.000519644 0)
(0 0.00054784 0)
(0 0.000553188 0)
(0 0.000523082 0)
(0 0.000557352 0)
(0 0.000429986 0)
(0 0.000525357 0)
(0 0.000559658 0)
(0 0.000581311 0)
(0 0.000525431 0)
(0 0.000558781 0)
(0 0.000521972 0)
(0 0.000554252 0)
(0 0.00048963 0)
(0 0.000591452 0)
(0 0.00058686 0)
(0 0.0005471 0)
(0 0.000579649 0)
(0 0.000595305 0)
(0 0.00056038 0)
(0 0.00052148 0)
(0 0.000525668 0)
(0 0.000247957 0)
(0 0.000253368 0)
(0 0.000486473 0)
(0 0.000490855 0)
(0 0.000420299 0)
(0 0.000420764 0)
(0 0.000537764 0)
(0 0.000570604 0)
(0 0.00098579 0)
(0 0.00120975 0)
(0 0.00026817 0)
(0 0.00028111 0)
(0 0.000768079 0)
(0 0.000563379 0)
(0 0.000451742 0)
(0 0.00045637 0)
(0 0.000596198 0)
(0 0.000625016 0)
(0 0.000459176 0)
(0 0.000348853 0)
(0 0.000625079 0)
(0 0.0005271 0)
(0 0.00056021 0)
(0 0.000227587 0)
(0 0.000222736 0)
(0 0.000231164 0)
(0 0.000257735 0)
(0 0.000390745 0)
(0 0.000391086 0)
(0 0.00042042 0)
(0 0.000390663 0)
(0 0.000419247 0)
(0 0.000389421 0)
(0 0.000417119 0)
(0 0.000387185 0)
(0 0.000413913 0)
(0 0.00038397 0)
(0 0.000417894 0)
(0 0.000422687 0)
(0 0.000603814 0)
(0 0.000593473 0)
(0 0.00054887 0)
(0 0.000583058 0)
(0 0.000357208 0)
(0 0.000354095 0)
(0 0.000253575 0)
(0 0.000265212 0)
(0 0.000413616 0)
(0 0.000552699 0)
(0 0.00033851 0)
(0 0.000361087 0)
(0 0.000627283 0)
(0 0.000618948 0)
(0 0.000568621 0)
(0 0.000605643 0)
(0 0.000660654 0)
(0 0.00064197 0)
(0 0.000587561 0)
(0 0.000625004 0)
(0 0.000680791 0)
(0 0.000661763 0)
(0 0.000605193 0)
(0 0.000642948 0)
(0 0.000234326 0)
(0 0.000261152 0)
(0 0.000203414 0)
(0 0.000198873 0)
(0 0.000705156 0)
(0 0.000677427 0)
(0 0.000618504 0)
(0 0.000652803 0)
(0 0.000624269 0)
(0 0.000653251 0)
(0 0.00038442 0)
(0 0.000389544 0)
(0 0.000409722 0)
(0 0.000711635 0)
(0 0.000687685 0)
(0 0.000625297 0)
(0 0.000659448 0)
(0 0.000459556 0)
(0 0.000722374 0)
(0 0.000693782 0)
(0 0.000630036 0)
(0 0.000664504 0)
(0 0.000327202 0)
(0 0.000324306 0)
(0 0.000237301 0)
(0 0.000599444 0)
(0 0.000633542 0)
(0 0.00069845 0)
(0 0.000667934 0)
(0 0.000732428 0)
(0 0.000703464 0)
(0 0.000637835 0)
(0 0.000674831 0)
(0 0.000739834 0)
(0 0.000712128 0)
(0 0.000645467 0)
(0 0.000682601 0)
(0 0.000748033 0)
(0 0.000717829 0)
(0 0.000651075 0)
(0 0.00068569 0)
(0 0.000293352 0)
(0 0.000833931 0)
(0 0.000751784 0)
(0 0.000718579 0)
(0 0.000651822 0)
(0 0.00068409 0)
(0 0.000351845 0)
(0 0.000237842 0)
(0 0.000226872 0)
(0 0.000248222 0)
(0 0.000180705 0)
(0 0.0001762 0)
(0 0.000750176 0)
(0 0.000715301 0)
(0 0.00064821 0)
(0 0.000679321 0)
(0 0.000611007 0)
(0 0.000641764 0)
(0 0.000709819 0)
(0 0.000672665 0)
(0 0.000217598 0)
(0 0.000209999 0)
(0 0.000232307 0)
(0 0.000224315 0)
(0 0.000246239 0)
(0 0.000238623 0)
(0 0.00026006 0)
(0 0.000253822 0)
(0 0.000275495 0)
(0 0.000270619 0)
(0 0.000296218 0)
(0 0.000289413 0)
(0 0.000313851 0)
(0 0.000309302 0)
(0 0.000334018 0)
(0 0.000330572 0)
(0 0.000305929 0)
(0 0.000327699 0)
(0 0.000303266 0)
(0 0.000325317 0)
(0 0.000301549 0)
(0 0.000324318 0)
(0 0.000300293 0)
(0 0.000324555 0)
(0 0.000300174 0)
(0 0.000325378 0)
(0 0.000301688 0)
(0 0.000327469 0)
(0 0.000304157 0)
(0 0.000330779 0)
(0 0.000307659 0)
(0 0.000335354 0)
(0 0.000358968 0)
(0 0.000364196 0)
(0 0.00034083 0)
(0 0.000349613 0)
(0 0.000388465 0)
(0 0.000370253 0)
(0 0.000346981 0)
(0 0.000353612 0)
(0 0.000377113 0)
(0 0.000353548 0)
(0 0.000385067 0)
(0 0.000362459 0)
(0 0.00040764 0)
(0 0.000322684 0)
(0 0.000394165 0)
(0 0.000372275 0)
(0 0.000281808 0)
(0 0.000739857 0)
(0 0.000703891 0)
(0 0.00063624 0)
(0 0.000668612 0)
(0 0.00073515 0)
(0 0.000700148 0)
(0 0.000632533 0)
(0 0.000662994 0)
(0 0.000729681 0)
(0 0.000691701 0)
(0 0.000624176 0)
(0 0.000652671 0)
(0 0.000403465 0)
(0 0.000718917 0)
(0 0.00068019 0)
(0 0.000613429 0)
(0 0.000641623 0)
(0 0.000573852 0)
(0 0.000602692 0)
(0 0.000668956 0)
(0 0.000630431 0)
(0 0.000263482 0)
(0 0.00023516 0)
(0 0.000563615 0)
(0 0.000591883 0)
(0 0.000656776 0)
(0 0.000618848 0)
(0 0.000439858 0)
(0 0.000434725 0)
(0 0.000465208 0)
(0 0.000281399 0)
(0 0.000554248 0)
(0 0.000582016 0)
(0 0.000651714 0)
(0 0.000680856 0)
(0 0.000681795 0)
(0 0.00070954 0)
(0 0.000709763 0)
(0 0.000737804 0)
(0 0.00073737 0)
(0 0.000765654 0)
(0 0.000764522 0)
(0 0.000793131 0)
(0 0.000791129 0)
(0 0.000820086 0)
(0 0.000817276 0)
(0 0.000846324 0)
(0 0.000842661 0)
(0 0.00087181 0)
(0 0.00089644 0)
(0 0.000495479 0)
(0 0.000158955 0)
(0 0.000154544 0)
(0 0.000403532 0)
(0 0.000211312 0)
(0 0.000297279 0)
(0 0.000459022 0)
(0 0.000489804 0)
(0 0.000273222 0)
(0 0.000294519 0)
(0 0.000211283 0)
(0 0.000201054 0)
(0 0.000249105 0)
(0 0.000517284 0)
(0 0.000545229 0)
(0 0.000338248 0)
(0 0.000607176 0)
(0 0.000793498 0)
(0 0.000357159 0)
(0 0.000320163 0)
(0 0.000313634 0)
(0 0.000138312 0)
(0 0.000134008 0)
(0 0.000428617 0)
(0 0.000282754 0)
(0 0.000141075 0)
(0 0.00068166 0)
(0 0.000678643 0)
(0 0.00092529 0)
(0 0.000480082 0)
(0 0.000507717 0)
(0 0.000571437 0)
(0 0.000533887 0)
(0 0.000470127 0)
(0 0.000496135 0)
(0 0.000557829 0)
(0 0.000520096 0)
(0 0.0004589 0)
(0 0.000482709 0)
(0 0.000185559 0)
(0 0.000176199 0)
(0 0.000267339 0)
(0 0.000269075 0)
(0 0.000264727 0)
(0 0.000482476 0)
(0 0.000513541 0)
(0 0.000204521 0)
(0 0.000118765 0)
(0 0.000114726 0)
(0 0.000289683 0)
(0 0.000572757 0)
(0 0.000604913 0)
(0 0.000593053 0)
(0 0.000624313 0)
(0 0.000609736 0)
(0 0.000641124 0)
(0 0.000624545 0)
(0 0.000655717 0)
(0 0.000637487 0)
(0 0.000674114 0)
(0 0.00066675 0)
(0 0.000646929 0)
(0 0.000618681 0)
(0 0.000626636 0)
(0 0.000598858 0)
(0 0.00060527 0)
(0 0.00057799 0)
(0 0.000583364 0)
(0 0.000556885 0)
(0 0.000653887 0)
(0 0.000561402 0)
(0 0.000535849 0)
(0 0.000587645 0)
(0 0.000422675 0)
(0 0.00044688 0)
(0 0.000451155 0)
(0 0.000274817 0)
(0 0.00029071 0)
(0 0.000261288 0)
(0 0.000235152 0)
(0 0.000232138 0)
(0 0.000253756 0)
(0 0.000160723 0)
(0 0.000152355 0)
(0 0.00016874 0)
(0 0.000564949 0)
(0 0.000591057 0)
(0 0.000431408 0)
(0 0.000405294 0)
(0 0.00040504 0)
(0 0.000380333 0)
(0 0.000377495 0)
(0 0.000352859 0)
(0 0.000346776 0)
(0 0.000320819 0)
(0 0.0003269 0)
(0 0.000294623 0)
(0 0.000301466 0)
(0 0.00031129 0)
(0 0.00026977 0)
(0 0.000277824 0)
(0 0.000246291 0)
(0 0.000255678 0)
(0 0.000222097 0)
(0 0.000226707 0)
(0 0.000531448 0)
(0 0.0005114 0)
(0 0.000100508 0)
(0 9.66939e-05 0)
(0 0.000288495 0)
(0 0.000291946 0)
(0 0.000579769 0)
(0 0.000109474 0)
(0 9.16666e-05 0)
(0 0.000507472 0)
(0 0.000488563 0)
(0 0.000491257 0)
(0 0.000469429 0)
(0 0.000387573 0)
(0 0.000412235 0)
(0 0.000196742 0)
(0 0.000200409 0)
(0 0.000227258 0)
(0 0.000202825 0)
(0 7.99821e-05 0)
(0 0.000467638 0)
(0 0.000449332 0)
(0 0.00026058 0)
(0 0.000235021 0)
(0 0.000174611 0)
(0 0.000316752 0)
(0 0.000320781 0)
(0 0.000345664 0)
(0 0.000505205 0)
(0 0.000536676 0)
(0 0.00025158 0)
(0 0.00010303 0)
(0 8.53735e-05 0)
(0 9.52614e-05 0)
(0 0.000450327 0)
(0 0.0004313 0)
(0 0.000430265 0)
(0 0.000413176 0)
(0 0.000412315 0)
(0 0.00039576 0)
(0 0.000395172 0)
(0 0.000379242 0)
(0 0.000378974 0)
(0 0.000363701 0)
(0 0.000708709 0)
(0 0.000225849 0)
(0 0.000471476 0)
(0 0.000436027 0)
(0 0.000377364 0)
(0 0.000399855 0)
(0 0.000456932 0)
(0 0.000420674 0)
(0 0.000365137 0)
(0 0.00038606 0)
(0 0.000439431 0)
(0 0.000405428 0)
(0 0.000351947 0)
(0 0.000371834 0)
(0 0.000349588 0)
(0 0.000375382 0)
(0 0.000205777 0)
(0 0.000202925 0)
(0 0.000233657 0)
(0 0.000648937 0)
(0 0.000675047 0)
(0 0.00031854 0)
(0 0.00033879 0)
(0 0.000338169 0)
(0 0.000298967 0)
(0 0.000327585 0)
(0 0.000285616 0)
(0 0.000316267 0)
(0 0.000273326 0)
(0 0.000305472 0)
(0 0.000243347 0)
(0 0.000566906 0)
(0 0.000378676 0)
(0 0.000406047 0)
(0 0.00041884 0)
(0 0.000361803 0)
(0 0.000192839 0)
(0 0.000286036 0)
(0 0.000232972 0)
(0 0.000136775 0)
(0 0.0003055 0)
(0 0.000363603 0)
(0 0.000567521 0)
(0 0.000593823 0)
(0 0.000618034 0)
(0 0.000621284 0)
(0 0.000646096 0)
(0 0.000199021 0)
(0 0.000206299 0)
(0 0.000408632 0)
(0 0.000437655 0)
(0 0.000262353 0)
(0 0.00029462 0)
(0 0.000395674 0)
(0 0.000221367 0)
(0 0.000256295 0)
(0 0.000225782 0)
(0 0.000520886 0)
(0 0.000249259 0)
(0 0.000226862 0)
(0 0.000260113 0)
(0 0.000229436 0)
(0 0.00016645 0)
(0 0.000285981 0)
(0 0.000306061 0)
(0 0.000650096 0)
(0 0.000675437 0)
(0 0.000402895 0)
(0 0.000617577 0)
(0 0.000331581 0)
(0 0.000173781 0)
(0 0.000181718 0)
(0 0.000279861 0)
(0 0.000241777 0)
(0 0.000219263 0)
(0 0.000234946 0)
(0 0.000211352 0)
(0 0.000228858 0)
(0 0.000205415 0)
(0 0.000192766 0)
(0 7.76528e-05 0)
(0 8.5899e-05 0)
(0 0.00077827 0)
(0 0.000590867 0)
(0 0.000731422 0)
(0 0.000460442 0)
(0 0.000431216 0)
(0 0.000450007 0)
(0 0.000626916 0)
(0 0.000660902 0)
(0 0.00076157 0)
(0 0.000357212 0)
(0 0.000324289 0)
(0 0.000273904 0)
(0 0.000292184 0)
(0 0.000691198 0)
(0 0.000775955 0)
(0 0.000644789 0)
(0 0.000669957 0)
(0 0.000700305 0)
(0 0.000694475 0)
(0 0.000724977 0)
(0 0.00066349 0)
(0 0.000687576 0)
(0 0.000637345 0)
(0 0.000485737 0)
(0 0.000874547 0)
(0 0.000470343 0)
(0 0.000719798 0)
(0 0.000742599 0)
(0 0.000780647 0)
(0 0.00080151 0)
(0 0.000763692 0)
(0 0.00083907 0)
(0 0.00082019 0)
(0 0.000783156 0)
(0 0.000817631 0)
(0 0.000874621 0)
(0 0.000853166 0)
(0 0.000562402 0)
(0 0.00125987 0)
(0 0.00112601 0)
(0 0.00112704 0)
(0 0.00116145 0)
(0 0.00116097 0)
(0 0.00119455 0)
(0 0.0011931 0)
(0 0.00122582 0)
(0 0.00122375 0)
(0 0.00125575 0)
(0 0.00125287 0)
(0 0.001221 0)
(0 0.00124931 0)
(0 0.0012178 0)
(0 0.00128417 0)
(0 0.00124519 0)
(0 0.0012141 0)
(0 0.00128695 0)
(0 0.00131462 0)
(0 0.00131753 0)
(0 0.00124026 0)
(0 0.00120974 0)
(0 0.00134407 0)
(0 0.00134683 0)
(0 0.00137232 0)
(0 0.0013744 0)
(0 0.00136836 0)
(0 0.0012344 0)
(0 0.00120455 0)
(0 0.00139949 0)
(0 0.00140101 0)
(0 0.00142519 0)
(0 0.0014265 0)
(0 0.00126404 0)
(0 0.00125654 0)
(0 0.00144966 0)
(0 0.00145091 0)
(0 0.00142694 0)
(0 0.00145132 0)
(0 0.00128528 0)
(0 0.00117923 0)
(0 0.00117421 0)
(0 0.00147446 0)
(0 0.00147464 0)
(0 0.00145082 0)
(0 0.00147378 0)
(0 0.00149666 0)
(0 0.00149541 0)
(0 0.00127618 0)
(0 0.00147161 0)
(0 0.00149279 0)
(0 0.00151533 0)
(0 0.00151205 0)
(0 0.00148919 0)
(0 0.00150801 0)
(0 0.0014852 0)
(0 0.00150323 0)
(0 0.00152593 0)
(0 0.00152073 0)
(0 0.00149787 0)
(0 0.00151431 0)
(0 0.00153625 0)
(0 0.00152837 0)
(0 0.00150402 0)
(0 0.00151902 0)
(0 0.00154061 0)
(0 0.00152988 0)
(0 0.0015043 0)
(0 0.0015173 0)
(0 0.00153976 0)
(0 0.00152718 0)
(0 0.00150393 0)
(0 0.00151328 0)
(0 0.00148948 0)
(0 0.00149802 0)
(0 0.00152069 0)
(0 0.0015055 0)
(0 0.00148124 0)
(0 0.00148814 0)
(0 0.00151345 0)
(0 0.00149284 0)
(0 0.00146965 0)
(0 0.00147293 0)
(0 0.00149381 0)
(0 0.00147351 0)
(0 0.00145239 0)
(0 0.00145133 0)
(0 0.00147144 0)
(0 0.00144837 0)
(0 0.00142774 0)
(0 0.00142365 0)
(0 0.00144292 0)
(0 0.00141756 0)
(0 0.0013972 0)
(0 0.0013907 0)
(0 0.00140957 0)
(0 0.00138234 0)
(0 0.00136212 0)
(0 0.00135256 0)
(0 0.00137191 0)
(0 0.0013415 0)
(0 0.00136046 0)
(0 0.0013299 0)
(0 0.00134856 0)
(0 0.00131737 0)
(0 0.00129857 0)
(0 0.00128548 0)
(0 0.00130302 0)
(0 0.00127061 0)
(0 0.0012867 0)
(0 0.00124976 0)
(0 0.00126961 0)
(0 0.00123591 0)
(0 0.00125242 0)
(0 0.00121744 0)
(0 0.00123195 0)
(0 0.0011918 0)
(0 0.00120913 0)
(0 0.00117356 0)
(0 0.00118652 0)
(0 0.00115064 0)
(0 0.00113894 0)
(0 0.00133208 0)
(0 0.00120035 0)
(0 0.00125376 0)
(0 0.00116288 0)
(0 0.00112582 0)
(0 0.00114783 0)
(0 0.00114242 0)
(0 0.00116769 0)
(0 0.00113555 0)
(0 0.00110942 0)
(0 0.00110236 0)
(0 0.00107565 0)
(0 0.00106782 0)
(0 0.00104131 0)
(0 0.00103259 0)
(0 0.00137845 0)
(0 0.00144682 0)
(0 0.00130347 0)
(0 0.00113827 0)
(0 0.00100626 0)
(0 0.000997233 0)
(0 0.0011003 0)
(0 0.00117516 0)
(0 0.00130392 0)
(0 0.00115941 0)
(0 0.0012453 0)
(0 0.00102077 0)
(0 0.000970603 0)
(0 0.000961941 0)
(0 0.00111288 0)
(0 0.00129321 0)
(0 0.00134784 0)
(0 0.000934932 0)
(0 0.000926573 0)
(0 0.00107414 0)
(0 0.00106096 0)
(0 0.000899317 0)
(0 0.00089134 0)
(0 0.000863842 0)
(0 0.000856444 0)
(0 0.000828814 0)
(0 0.000821651 0)
(0 0.000942452 0)
(0 0.000794137 0)
(0 0.000787127 0)
(0 0.00112712 0)
(0 0.00108724 0)
(0 0.00104808 0)
(0 0.00132006 0)
(0 0.000811358 0)
(0 0.00103432 0)
(0 0.00102106 0)
(0 0.00133073 0)
(0 0.000759659 0)
(0 0.000752726 0)
(0 0.00130787 0)
(0 0.00128114 0)
(0 0.00134593 0)
(0 0.00135686 0)
(0 0.000915542 0)
(0 0.00129426 0)
(0 0.00126772 0)
(0 0.000725186 0)
(0 0.000718514 0)
(0 0.000994116 0)
(0 0.000981499 0)
(0 0.00100831 0)
(0 0.000969531 0)
(0 0.000996374 0)
(0 0.000958037 0)
(0 0.000984719 0)
(0 0.000946893 0)
(0 0.000973622 0)
(0 0.000690748 0)
(0 0.000684636 0)
(0 0.000656479 0)
(0 0.000650839 0)
(0 0.000622467 0)
(0 0.000616954 0)
(0 0.000588654 0)
(0 0.00137114 0)
(0 0.00138258 0)
(0 0.000642293 0)
(0 0.000581703 0)
(0 0.00127919 0)
(0 0.00125296 0)
(0 0.000730358 0)
(0 0.00139571 0)
(0 0.00140755 0)
(0 0.00100713 0)
(0 0.00119466 0)
(0 0.0015482 0)
(0 0.00129298 0)
(0 0.0015336 0)
(0 0.0014706 0)
(0 0.00146605 0)
(0 0.00148893 0)
(0 0.00148303 0)
(0 0.00150513 0)
(0 0.00151021 0)
(0 0.00152529 0)
(0 0.00153025 0)
(0 0.00135838 0)
(0 0.00153554 0)
(0 0.00155252 0)
(0 0.00155315 0)
(0 0.00156887 0)
(0 0.00156813 0)
(0 0.00156803 0)
(0 0.00158287 0)
(0 0.00158226 0)
(0 0.000776096 0)
(0 0.00125146 0)
(0 0.000527265 0)
(0 0.00049588 0)
(0 0.000558973 0)
(0 0.00155952 0)
(0 0.00156704 0)
(0 0.001577 0)
(0 0.00158358 0)
(0 0.00159249 0)
(0 0.00159732 0)
(0 0.00158784 0)
(0 0.000176162 0)
(0 0.000172383 0)
(0 0.000178072 0)
(0 0.00112554 0)
(0 0.00110026 0)
(0 0.00113843 0)
(0 0.000804596 0)
(0 0.000839963 0)
(0 0.00086699 0)
(0 0.000901387 0)
(0 0.000927298 0)
(0 0.000960135 0)
(0 0.000933828 0)
(0 0.000794245 0)
(0 0.00082157 0)
(0 0.000852493 0)
(0 0.000877707 0)
(0 0.000907301 0)
(0 0.000930656 0)
(0 0.000900273 0)
(0 0.000951632 0)
(0 0.000920572 0)
(0 0.000341587 0)
(0 0.000572496 0)
(0 0.000541435 0)
(0 0.000502268 0)
(0 0.000470568 0)
(0 0.000431083 0)
(0 0.000398762 0)
(0 0.000437895 0)
(0 0.000359067 0)
(0 0.00039214 0)
(0 0.000845849 0)
(0 0.000102989 0)
(0 0.000368089 0)
(0 0.000781927 0)
(0 0.000963633 0)
(0 8.58326e-05 0)
(0 8.67628e-05 0)
(0 6.90241e-05 0)
(0 0.000567961 0)
(0 0.000533537 0)
(0 0.000502395 0)
(0 0.000467386 0)
(0 0.000437011 0)
(0 0.0004018 0)
(0 0.000432238 0)
(0 0.00037209 0)
(0 0.000406338 0)
(0 0.000366507 0)
(0 0.00039871 0)
(0 0.000332077 0)
(0 0.000366895 0)
(0 0.000491284 0)
(0 0.00115839 0)
(0 0.000297074 0)
(0 0.000614957 0)
(0 0.000496014 0)
(0 0.00127334 0)
(0 0.00129996 0)
(0 0.00131175 0)
(0 0.00133729 0)
(0 0.00134754 0)
(0 0.0013242 0)
(0 0.00136062 0)
(0 0.00134654 0)
(0 0.000893511 0)
(0 0.00109554 0)
(0 0.00116351 0)
(0 0.0004835 0)
(0 0.00087638 0)
(0 0.000866931 0)
(0 0.00103252 0)
(0 0.000326911 0)
(0 0.000882316 0)
(0 0.000935363 0)
(0 0.000911684 0)
(0 0.000964419 0)
(0 0.000941579 0)
(0 0.00127453 0)
(0 0.00128906 0)
(0 0.00131153 0)
(0 0.00132463 0)
(0 0.00134619 0)
(0 0.00135747 0)
(0 0.00133629 0)
(0 0.0009523 0)
(0 0.000919599 0)
(0 0.000544339 0)
(0 0.00103722 0)
(0 0.000672585 0)
(0 0.000662794 0)
(0 0.000701978 0)
(0 0.000414021 0)
(0 0.000384152 0)
(0 0.000347404 0)
(0 0.000504049 0)
(0 0.000473741 0)
(0 0.000433477 0)
(0 0.000402387 0)
(0 0.000362729 0)
(0 0.000858908 0)
(0 0.00145573 0)
(0 0.00101766 0)
(0 0.000254486 0)
(0 0.000947714 0)
(0 0.00097986 0)
(0 0.00106282 0)
(0 0.00115216 0)
(0 0.000441041 0)
(0 0.0014792 0)
(0 0.000419223 0)
(0 0.00132122 0)
(0 0.0013556 0)
(0 0.00132878 0)
(0 0.000443547 0)
(0 0.000371089 0)
(0 0.000833221 0)
(0 0.00134118 0)
(0 0.00131115 0)
(0 0.00131955 0)
(0 0.00128937 0)
(0 0.00129699 0)
(0 0.00126658 0)
(0 0.00125787 0)
(0 0.00127337 0)
(0 0.00130318 0)
(0 0.00123533 0)
(0 0.0012261 0)
(0 0.00127794 0)
(0 0.00130673 0)
(0 0.00133341 0)
(0 0.000484196 0)
(0 0.000916384 0)
(0 0.00097603 0)
(0 0.000943318 0)
(0 0.000941159 0)
(0 0.000909202 0)
(0 0.000905319 0)
(0 0.000911557 0)
(0 0.000878015 0)
(0 0.000880442 0)
(0 0.000847616 0)
(0 0.000850056 0)
(0 0.000818448 0)
(0 0.000820215 0)
(0 0.000813905 0)
(0 0.000785701 0)
(0 0.000849042 0)
(0 0.000818461 0)
(0 0.000844435 0)
(0 0.000813526 0)
(0 0.000837431 0)
(0 0.00080666 0)
(0 0.000828488 0)
(0 0.00078506 0)
(0 0.00014883 0)
(0 0.000163026 0)
(0 0.000160179 0)
(0 0.000178923 0)
(0 0.000176459 0)
(0 0.00157528 0)
(0 0.00155984 0)
(0 0.00156575 0)
(0 0.00154924 0)
(0 0.00155441 0)
(0 0.0015369 0)
(0 0.00154168 0)
(0 0.00155894 0)
(0 0.00152287 0)
(0 0.00151779 0)
(0 0.00154597 0)
(0 0.00156232 0)
(0 0.00158577 0)
(0 0.00160035 0)
(0 0.000263154 0)
(0 0.000232319 0)
(0 0.000146217 0)
(0 0.00146955 0)
(0 0.00144469 0)
(0 0.00145865 0)
(0 0.00143301 0)
(0 0.00144588 0)
(0 0.00141405 0)
(0 0.00075703 0)
(0 0.000359528 0)
(0 0.000362659 0)
(0 0.000385404 0)
(0 0.000387303 0)
(0 0.000411621 0)
(0 0.000362882 0)
(0 0.000413492 0)
(0 0.00043831 0)
(0 0.000436792 0)
(0 0.000464039 0)
(0 0.000463634 0)
(0 0.000491639 0)
(0 0.000492041 0)
(0 0.000463718 0)
(0 0.000492838 0)
(0 0.000464101 0)
(0 0.000494272 0)
(0 0.000523185 0)
(0 0.000525525 0)
(0 0.000496177 0)
(0 0.000528038 0)
(0 0.000498842 0)
(0 0.000530391 0)
(0 0.000502739 0)
(0 0.000534591 0)
(0 0.000508122 0)
(0 0.000541006 0)
(0 0.000514617 0)
(0 0.000548146 0)
(0 0.000521936 0)
(0 0.00055613 0)
(0 0.000529573 0)
(0 0.000565195 0)
(0 0.00053961 0)
(0 0.000575354 0)
(0 0.000551162 0)
(0 0.000520643 0)
(0 0.000585956 0)
(0 0.000559128 0)
(0 0.000612054 0)
(0 0.000931383 0)
(0 0.000725535 0)
(0 0.00162702 0)
(0 0.0004288 0)
(0 0.000937926 0)
(0 0.000900842 0)
(0 0.000934439 0)
(0 0.000895813 0)
(0 0.000929349 0)
(0 0.000863321 0)
(0 0.000888587 0)
(0 0.000796996 0)
(0 0.000816684 0)
(0 0.000188067 0)
(0 0.000242834 0)
(0 0.000260867 0)
(0 0.00149741 0)
(0 0.00146463 0)
(0 0.00145352 0)
(0 0.000591667 0)
(0 0.000412633 0)
(0 0.000574641 0)
(0 0.000808711 0)
(0 0.000352406 0)
(0 0.000366063 0)
(0 0.000404468 0)
(0 0.000181767 0)
(0 0.000454067 0)
(0 0.000440991 0)
(0 0.000239613 0)
(0 0.000909424 0)
(0 0.000888683 0)
(0 0.000866958 0)
(0 0.0015027 0)
(0 0.000976634 0)
(0 0.00094466 0)
(0 0.00120415 0)
(0 0.00119457 0)
(0 0.00121532 0)
(0 0.00118433 0)
(0 0.00066788 0)
(0 0.000316855 0)
(0 0.000870187 0)
(0 0.00093679 0)
(0 0.000962753 0)
(0 0.0010002 0)
(0 0.000987459 0)
(0 0.0010256 0)
(0 0.00101148 0)
(0 0.00104966 0)
(0 0.00103469 0)
(0 0.00107247 0)
(0 0.00105676 0)
(0 0.00109405 0)
(0 0.00107768 0)
(0 0.00111427 0)
(0 0.00109692 0)