/*--------------------------------*- C++ -*----------------------------------*\
| =========                 |                                                 |
| \\      /  F ield         | OpenFOAM: The Open Source CFD Toolbox           |
|  \\    /   O peration     | Version:  v2012                                 |
|   \\  /    A nd           | Website:  www.openfoam.com                      |
|    \\/     M anipulation  |                                                 |
\*---------------------------------------------------------------------------*/
FoamFile
{
    version     2.0;
    format      ascii;
    class       volScalarField::Internal;
    location    "150";
    object      V0;
}
// * * * * * * * * * * * * * * * * * * * * * * * * * * * * * * * * * * * * * //

dimensions      [0 3 0 0 0 0 0];


value           nonuniform List<scalar> 
10042
(
0.191
0.0799062
0.0870439
0.136365
0.171495
0.145106
0.0585229
0.158395
0.188587
0.0524354
0.142012
0.078762
0.0492061
0.152545
0.0844513
0.154044
0.116598
0.131665
0.0657687
0.0996989
0.0484015
0.199827
0.144127
0.132385
0.165145
0.17587
0.0678328
0.195876
0.143296
0.110294
0.15341
0.0346583
0.175919
0.16572
0.156097
0.142101
0.172355
0.154374
0.14547
0.20503
0.14137
0.176499
0.0387052
0.107934
0.139039
0.122685
0.169361
0.103143
0.0509109
0.0442442
0.0403848
0.164739
0.111528
0.0607527
0.0643325
0.033884
0.0467215
0.167122
0.0838437
0.192611
0.0577326
0.0628617
0.0390488
0.149883
0.138226
0.151203
0.0877268
0.142429
0.126598
0.140218
0.0367715
0.105129
0.160858
0.0860051
0.150824
0.0349388
0.116964
0.160608
0.111262
0.0598549
0.0987058
0.126655
0.187086
0.165398
0.0729445
0.0498989
0.0927677
0.0875586
0.139991
0.13885
0.0454066
0.0779247
0.0380832
0.05888
0.133025
0.113318
0.0148288
0.089301
0.115795
0.0856259
0.0502282
0.0596744
0.0982507
0.0351019
0.0595772
0.0995143
0.033081
0.159742
0.0547405
0.101772
0.114285
0.0543198
0.0744191
0.148578
0.137935
0.165464
0.109706
0.172777
0.158809
0.171934
0.170873
0.0648358
0.0652235
0.137456
0.107655
0.158177
0.119493
0.0621078
0.023932
0.117403
0.171157
0.128176
0.15394
0.13434
0.0466473
0.0427305
0.0899853
0.0339928
0.0749952
0.123864
0.0429982
0.166666
0.0394105
0.198276
0.0615618
0.145335
0.0716502
0.164435
0.0929145
0.084721
0.143479
0.164505
0.0636459
0.0356742
0.1347
0.0604494
0.0280176
0.0326025
0.146166
0.130738
0.166018
0.185487
0.0427409
0.140951
0.0790478
0.116021
0.188993
0.042348
0.168781
0.13548
0.138407
0.105795
0.0813697
0.160294
0.0578461
0.075449
0.11407
0.172932
0.143576
0.116747
0.0788401
0.050189
0.0801168
0.173342
0.180201
0.0423208
0.0955406
0.141106
0.0355598
0.15471
0.0695291
0.0477878
0.164743
0.0578569
0.0620214
0.0720305
0.0206094
0.145238
0.0180598
0.141996
0.0235599
0.0411292
0.0937697
0.128516
0.117522
0.135707
0.132307
0.0439811
0.113445
0.0981204
0.0371611
0.133183
0.0927486
0.0991812
0.176364
0.147072
0.153047
0.0994153
0.146996
0.0280817
0.0220837
0.137617
0.0271905
0.132855
0.11158
0.0362111
0.101216
0.084822
0.07705
0.0715376
0.167778
0.120523
0.0426825
0.131941
0.110187
0.182535
0.0903505
0.0207468
0.0605066
0.136743
0.0967235
0.133338
0.177522
0.162626
0.0664753
0.171209
0.139173
0.0778996
0.0491717
0.144885
0.0648672
0.158384
0.10519
0.0526424
0.111441
0.0955103
0.128741
0.101906
0.0102115
0.150291
0.131229
0.151908
0.152021
0.173804
0.0406993
0.0696221
0.13705
0.102501
0.154712
0.108591
0.100901
0.0421828
0.145274
0.0348544
0.106394
0.161634
0.0669056
0.130163
0.147457
0.057125
0.140241
0.143301
0.0187622
0.0744315
0.175192
0.022798
0.108533
0.154721
0.164736
0.13638
0.0472784
0.111533
0.173857
0.132739
0.1294
0.12048
0.0694121
0.10101
0.0957246
0.151958
0.0685033
0.0928004
0.127244
0.0911666
0.0930668
0.0480648
0.156571
0.164343
0.0660175
0.12326
0.142063
0.130388
0.130944
0.112079
0.109705
0.164895
0.113926
0.143148
0.137667
0.160507
0.147907
0.0354595
0.155417
0.12822
0.177385
0.168881
0.135703
0.128588
0.0919464
0.046029
0.135459
0.111005
0.161076
0.157316
0.135263
0.163466
0.0331787
0.126856
0.155304
0.11838
0.0415676
0.0480893
0.172186
0.144248
0.162746
0.172202
0.144353
0.156825
0.125493
0.0170918
0.0720628
0.135216
0.120721
0.145019
0.0708269
0.140127
0.101977
0.169903
0.0261262
0.166982
0.10611
0.158615
0.0765673
0.141242
0.107132
0.0730883
0.144609
0.127874
0.125579
0.0603923
0.145123
0.162511
0.140258
0.164122
0.0545609
0.130765
0.155965
0.0950122
0.0651168
0.0462898
0.113723
0.092171
0.0780509
0.138238
0.0285262
0.165445
0.154882
0.165536
0.105358
0.148232
0.111609
0.0265886
0.0730211
0.143217
0.106166
0.0525941
0.136257
0.153916
0.129831
0.0266174
0.144789
0.0235455
0.148576
0.0707182
0.0238674
0.135216
0.0398714
0.147843
0.100202
0.112935
0.109262
0.0542288
0.134572
0.0766063
0.149995
0.101144
0.0740805
0.0609692
0.143876
0.0909825
0.152538
0.0952104
0.163393
0.166378
0.0360647
0.101236
0.0852621
0.108478
0.126873
0.0470561
0.100197
0.139941
0.0536006
0.0990317
0.137494
0.0751396
0.0416424
0.152587
0.156945
0.0326342
0.163581
0.114492
0.0894151
0.0319231
0.0380439
0.173402
0.141422
0.040319
0.147989
0.169477
0.153912
0.0658721
0.0724864
0.033692
0.109539
0.140297
0.140239
0.0261983
0.165006
0.137086
0.14803
0.119644
0.158995
0.158895
0.0985134
0.169461
0.159974
0.0648233
0.0911553
0.138291
0.0409915
0.135028
0.0267667
0.0402363
0.12349
0.126599
0.0405771
0.129586
0.0515664
0.100266
0.137481
0.0779833
0.122644
0.140773
0.057169
0.121766
0.152558
0.120583
0.159456
0.137156
0.139398
0.0800583
0.146032
0.147208
0.0936016
0.0402283
0.136003
0.148072
0.115315
0.0467007
0.104453
0.157046
0.141412
0.0840902
0.0524727
0.111793
0.158435
0.140205
0.0717966
0.0694754
0.0774189
0.136718
0.14569
0.133023
0.0948129
0.122034
0.120035
0.0990453
0.123466
0.10249
0.129782
0.0718981
0.100133
0.0776491
0.0752155
0.106211
0.139524
0.0775564
0.106537
0.13636
0.114821
0.0376952
0.109546
0.141534
0.093372
0.0842893
0.111212
0.0716241
0.153943
0.0661443
0.122669
0.0773721
0.137677
0.022582
0.122624
0.0436479
0.153664
0.132234
0.10896
0.173168
0.092261
0.0501855
0.148524
0.134049
0.0269592
0.102333
0.137851
0.164848
0.138411
0.160963
0.161042
0.158451
0.0955258
0.0870343
0.118561
0.173277
0.0434674
0.0577288
0.146013
0.145143
0.133681
0.0474112
0.138206
0.137762
0.137112
0.0947953
0.044176
0.140428
0.144969
0.141231
0.115871
0.106148
0.163076
0.0209128
0.0836263
0.0649848
0.133243
0.145388
0.119835
0.0761627
0.104235
0.144612
0.130004
0.162999
0.136561
0.133056
0.0629315
0.116086
0.183298
0.152181
0.160028
0.140381
0.0223694
0.131889
0.137246
0.118842
0.0654368
0.125932
0.113705
0.152318
0.0710016
0.127921
0.0989198
0.166624
0.0970458
0.074553
0.10314
0.139483
0.129387
0.0158929
0.0816747
0.109522
0.10973
0.046364
0.126963
0.0795985
0.123059
0.146674
0.0914887
0.124541
0.16735
0.131519
0.0898233
0.108663
0.0977484
0.0886571
0.137755
0.0278344
0.0814102
0.135158
0.136812
0.108258
0.133037
0.144608
0.163046
0.0978537
0.0654411
0.168499
0.0267721
0.121817
0.0796184
0.150525
0.0762846
0.134795
0.125719
0.137449
0.106076
0.0893678
0.0632813
0.101027
0.167939
0.133876
0.135285
0.137953
0.119543
0.0694914
0.0834484
0.105687
0.129506
0.135039
0.136759
0.0814156
0.12973
0.155179
0.154636
0.132044
0.032083
0.146589
0.104087
0.138553
0.0181583
0.0390219
0.135551
0.0660691
0.138969
0.0487415
0.13497
0.141766
0.160295
0.103638
0.141067
0.144628
0.0454131
0.113786
0.165038
0.139266
0.126781
0.0270167
0.0157034
0.15948
0.132907
0.157881
0.156367
0.152618
0.0940817
0.123847
0.0346923
0.129489
0.133613
0.125783
0.0989689
0.108449
0.139197
0.094558
0.0762201
0.14106
0.061577
0.117154
0.128331
0.0875087
0.139957
0.126452
0.0274434
0.131355
0.12925
0.151396
0.132056
0.136515
0.0995863
0.109622
0.126995
0.0619543
0.124944
0.145182
0.0574597
0.132724
0.0464527
0.141281
0.158505
0.110582
0.0306871
0.161203
0.0938095
0.139333
0.103334
0.139902
0.092877
0.0985578
0.108227
0.0682901
0.156315
0.131389
0.0500275
0.155622
0.148982
0.112688
0.0866809
0.161793
0.121306
0.0762633
0.106125
0.0866665
0.138394
0.0326104
0.0696052
0.142776
0.133396
0.1586
0.134232
0.125907
0.0775146
0.141808
0.0526279
0.0804056
0.0895534
0.043447
0.0903098
0.128453
0.0701654
0.143376
0.0751173
0.0626669
0.176029
0.0752459
0.132325
0.0795565
0.131353
0.163477
0.0639714
0.0515642
0.163306
0.0916899
0.164818
0.156544
0.127371
0.135097
0.166118
0.141102
0.130288
0.100219
0.152307
0.166962
0.107422
0.150945
0.0927558
0.153128
0.134387
0.159618
0.109456
0.131457
0.0524379
0.129816
0.0657007
0.0399916
0.0263043
0.126621
0.0974605
0.0410256
0.113805
0.153525
0.136633
0.151767
0.128191
0.0784615
0.0810535
0.0254211
0.0931835
0.138352
0.137886
0.123699
0.088917
0.0933868
0.101789
0.0636002
0.0612238
0.022206
0.101132
0.130414
0.102246
0.147688
0.165209
0.0943635
0.135667
0.119139
0.132208
0.0664205
0.117845
0.160223
0.0470238
0.100271
0.0503625
0.123104
0.132794
0.131098
0.0735067
0.106082
0.135136
0.119959
0.0396762
0.136702
0.0415022
0.0957993
0.0866947
0.111731
0.0823942
0.139073
0.0304375
0.156349
0.147407
0.117954
0.15125
0.136338
0.130314
0.0945254
0.0802204
0.131124
0.0890355
0.142172
0.150353
0.13618
0.149719
0.120997
0.0906496
0.146443
0.0661649
0.0659159
0.0726264
0.0511395
0.0808087
0.13302
0.137795
0.0164812
0.0151195
0.131506
0.0677771
0.0282296
0.0421675
0.0410039
0.121544
0.110767
0.138686
0.107778
0.152121
0.130631
0.0457637
0.151847
0.03626
0.120875
0.127899
0.183546
0.157835
0.119043
0.0797085
0.109458
0.119463
0.126519
0.0446453
0.121092
0.119271
0.158932
0.0292215
0.0695375
0.129163
0.149196
0.127543
0.0892551
0.128182
0.0794718
0.10165
0.122222
0.123826
0.0687909
0.0857923
0.0380573
0.069884
0.0286402
0.0347853
0.129981
0.0336006
0.108495
0.106805
0.0900979
0.0923806
0.102199
0.0460023
0.0263516
0.128273
0.0883046
0.0811205
0.135668
0.147333
0.0325666
0.133074
0.128041
0.0183364
0.143251
0.122409
0.0700228
0.0472467
0.137279
0.168771
0.103109
0.0894064
0.0591004
0.154651
0.0561618
0.130299
0.121841
0.160257
0.0462319
0.0821955
0.135312
0.126367
0.107732
0.135108
0.119337
0.06255
0.110824
0.0942356
0.106018
0.0824142
0.151914
0.0650483
0.083564
0.0919782
0.0484046
0.113295
0.104176
0.119767
0.150466
0.136446
0.07842
0.127306
0.122697
0.142805
0.0958158
0.152802
0.0569703
0.135017
0.0993632
0.0406432
0.092307
0.155142
0.0755978
0.0454422
0.151111
0.136038
0.143597
0.0324792
0.129838
0.143253
0.132434
0.129092
0.0648444
0.131038
0.146672
0.126404
0.0829243
0.126825
0.14785
0.0428345
0.142652
0.106033
0.0673895
0.137716
0.0998977
0.149157
0.0636928
0.120868
0.0871228
0.119867
0.0703664
0.108386
0.0255521
0.0683058
0.131526
0.109723
0.129969
0.160744
0.0880517
0.077888
0.146701
0.130131
0.150194
0.0823334
0.126563
0.0550141
0.131944
0.172197
0.0380397
0.0930592
0.145738
0.0855873
0.0233363
0.150186
0.120142
0.140929
0.118527
0.046471
0.12961
0.0712673
0.130679
0.154266
0.128644
0.12749
0.142069
0.0394252
0.0264995
0.140547
0.144723
0.113404
0.125168
0.134279
0.103023
0.135095
0.143973
0.131245
0.0853422
0.13076
0.0744912
0.156586
0.151274
0.124912
0.107705
0.15339
0.131953
0.142119
0.152703
0.066225
0.0566884
0.026783
0.0619866
0.0858423
0.138036
0.0257474
0.0690277
0.115086
0.0475721
0.118205
0.0710649
0.142929
0.143512
0.141725
0.12917
0.126728
0.121251
0.15041
0.0826812
0.0373432
0.149366
0.151451
0.121231
0.150956
0.152516
0.163613
0.1591
0.151217
0.127702
0.147142
0.121167
0.147253
0.152444
0.0867485
0.0513713
0.114932
0.142636
0.0877243
0.108673
0.0649322
0.100282
0.0947666
0.141926
0.0933043
0.0347047
0.0396778
0.0987836
0.165688
0.153026
0.130985
0.123843
0.153384
0.132954
0.131478
0.147454
0.109375
0.0292056
0.145704
0.124608
0.0245364
0.0404962
0.148633
0.144977
0.125449
0.152739
0.0419311
0.124753
0.116286
0.0657495
0.137048
0.130343
0.145307
0.0406517
0.0852871
0.0762757
0.0652497
0.132525
0.0457971
0.103051
0.137839
0.118198
0.133738
0.0735318
0.147472
0.0842024
0.110676
0.0537203
0.129634
0.0622698
0.135008
0.0760287
0.0904431
0.102324
0.0957884
0.14151
0.0366747
0.144539
0.139349
0.116765
0.150696
0.117712
0.0625534
0.132015
0.130752
0.181778
0.0343605
0.134379
0.128494
0.136752
0.139232
0.0548725
0.161
0.138317
0.129934
0.13259
0.128458
0.0849615
0.0447159
0.145665
0.0929677
0.0983049
0.146841
0.100956
0.0286981
0.14832
0.0981741
0.0331563
0.147773
0.136959
0.140652
0.164385
0.095056
0.132945
0.0822375
0.131119
0.128537
0.161914
0.153186
0.0987369
0.0734093
0.148737
0.0401867
0.151745
0.132684
0.165667
0.124106
0.129192
0.06816
0.149701
0.0511178
0.144757
0.0870319
0.153185
0.0408164
0.150095
0.133822
0.0342771
0.156829
0.130839
0.0293496
0.0627652
0.108225
0.0464678
0.0746079
0.128779
0.0577713
0.137986
0.154315
0.131649
0.0348001
0.127026
0.107715
0.052283
0.13276
0.110914
0.150387
0.0916074
0.136454
0.132941
0.0765012
0.117496
0.0273843
0.133761
0.154718
0.133829
0.0243755
0.0829126
0.0715252
0.128392
0.138458
0.0478426
0.0726558
0.13256
0.0378751
0.144135
0.125015
0.152589
0.017682
0.137761
0.0797907
0.130059
0.142363
0.160098
0.14165
0.134149
0.119456
0.150865
0.133827
0.0901287
0.0887431
0.122433
0.151216
0.048758
0.0586613
0.138956
0.138006
0.140595
0.0241571
0.0431572
0.08676
0.138661
0.15772
0.0745446
0.0468104
0.159799
0.131765
0.0569575
0.132612
0.151329
0.13429
0.124241
0.0571707
0.143472
0.0775757
0.108851
0.135078
0.13284
0.098203
0.146226
0.0601277
0.0141083
0.152291
0.1349
0.131936
0.0259014
0.136002
0.0485511
0.156914
0.144579
0.111806
0.131022
0.0656296
0.112474
0.12407
0.150523
0.0270827
0.11082
0.0476764
0.149449
0.0539758
0.0603824
0.153638
0.0438662
0.146466
0.0461129
0.0501726
0.143928
0.139376
0.0917116
0.0612563
0.0465495
0.0268889
0.154994
0.15114
0.112461
0.0465383
0.13405
0.0386454
0.0399872
0.147757
0.125188
0.155255
0.090178
0.0846733
0.145034
0.122148
0.143497
0.0270393
0.138509
0.0766132
0.134685
0.0857009
0.0607402
0.0845907
0.137678
0.0670198
0.0555584
0.106251
0.131116
0.131408
0.0254159
0.148203
0.0284745
0.0389322
0.0408837
0.107563
0.0402506
0.076331
0.131816
0.123671
0.120623
0.0493189
0.0657438
0.0565395
0.132418
0.0176563
0.0579645
0.141203
0.129218
0.0267055
0.151815
0.131071
0.0284828
0.0200374
0.0326531
0.149314
0.0367116
0.149406
0.104723
0.135427
0.0698889
0.162038
0.089187
0.0463298
0.0242047
0.0504294
0.113235
0.150838
0.0903728
0.106467
0.151963
0.0905728
0.0194765
0.140388
0.153386
0.0588607
0.0999798
0.0380578
0.0988085
0.145038
0.130717
0.0793535
0.153222
0.131346
0.0502242
0.140047
0.110816
0.125708
0.144675
0.147983
0.0186248
0.136649
0.149515
0.122163
0.156495
0.147738
0.0665316
0.146867
0.0270947
0.0290748
0.0958544
0.149633
0.147362
0.130087
0.152294
0.0373192
0.0418062
0.01889
0.133323
0.141868
0.0351732
0.0668061
0.0951894
0.0477341
0.0901474
0.126416
0.0957942
0.154339
0.170572
0.147134
0.130333
0.0793151
0.034336
0.0643662
0.152803
0.0396269
0.0383529
0.153523
0.130739
0.150813
0.0740918
0.130154
0.133681
0.0638758
0.131587
0.0282735
0.129755
0.134592
0.0470471
0.0731364
0.0406246
0.0824929
0.142151
0.149365
0.0275138
0.104241
0.133348
0.0472438
0.135637
0.0307782
0.132382
0.136427
0.157224
0.0517886
0.0823344
0.0533048
0.150408
0.137208
0.0582444
0.0639994
0.160396
0.0824393
0.0413913
0.139702
0.0717515
0.124182
0.157019
0.0583121
0.149325
0.060322
0.0410944
0.119248
0.135057
0.1614
0.0545218
0.0371872
0.0520751
0.0658779
0.0689736
0.0799769
0.0682883
0.0613077
0.0479467
0.0813772
0.114834
0.150175
0.149459
0.0702603
0.0663713
0.0987066
0.0383026
0.135903
0.0275777
0.0416031
0.1503
0.158799
0.145186
0.157836
0.151653
0.0411196
0.0862224
0.0435755
0.0364917
0.115112
0.0649402
0.0853126
0.068322
0.134297
0.133451
0.0771043
0.13285
0.109996
0.111162
0.0619123
0.150526
0.102439
0.137499
0.138057
0.063841
0.149124
0.130199
0.169442
0.0388405
0.0921488
0.0327715
0.0654497
0.0872588
0.0411467
0.115203
0.0321593
0.12573
0.105274
0.0770916
0.0331457
0.150501
0.160656
0.0350374
0.0525797
0.125204
0.0717299
0.141764
0.0189669
0.0902573
0.102638
0.136108
0.0268656
0.025712
0.120824
0.0693617
0.0662234
0.140969
0.0580471
0.0839535
0.133161
0.113724
0.0336911
0.143418
0.0829523
0.132568
0.066544
0.0612599
0.0966767
0.043001
0.0633408
0.125866
0.0675538
0.0354496
0.0279581
0.118844
0.0671155
0.0742306
0.0617237
0.0295748
0.0284067
0.0555569
0.0699612
0.148413
0.0570421
0.0533405
0.030695
0.135202
0.0628121
0.134044
0.059692
0.153387
0.0470696
0.131261
0.151244
0.079761
0.0285439
0.0506178
0.0434751
0.177073
0.0689947
0.131756
0.124218
0.152724
0.103185
0.0183001
0.126184
0.058849
0.102023
0.144376
0.141975
0.118016
0.149247
0.135964
0.152344
0.0912241
0.130272
0.0319397
0.103463
0.0395589
0.0643812
0.0754115
0.0491941
0.0655511
0.0591646
0.108601
0.0823619
0.0862884
0.137202
0.141418
0.0667409
0.133078
0.147025
0.150178
0.0750292
0.0920005
0.0707081
0.150133
0.0304178
0.149739
0.128689
0.081927
0.140323
0.0688043
0.151409
0.0516681
0.0938586
0.0743361
0.0358905
0.135154
0.134847
0.142791
0.0249264
0.151102
0.135184
0.069771
0.0827656
0.0427287
0.123143
0.102282
0.0922974
0.136374
0.121332
0.139085
0.0785745
0.126844
0.0368529
0.0807381
0.137109
0.105794
0.0382246
0.137142
0.138252
0.0432572
0.090613
0.0781467
0.148097
0.083104
0.143171
0.142517
0.0973235
0.15203
0.117322
0.0863568
0.0712793
0.0943601
0.0282137
0.0699578
0.117185
0.0521117
0.111098
0.0481552
0.145365
0.151888
0.0605377
0.134976
0.118229
0.121641
0.04148
0.0182277
0.143616
0.0439764
0.149209
0.102155
0.128677
0.13965
0.0497624
0.0876862
0.130393
0.131033
0.166613
0.04811
0.0603784
0.0756075
0.136523
0.133414
0.0807612
0.135837
0.0488719
0.0852737
0.12497
0.139661
0.0368797
0.125057
0.0361619
0.0919073
0.0277415
0.0683032
0.0289275
0.144369
0.136382
0.0640307
0.0484896
0.151301
0.137911
0.157302
0.148874
0.143545
0.131679
0.0880437
0.0524436
0.0288263
0.138251
0.0266612
0.0365228
0.0533511
0.0614505
0.152798
0.138763
0.170529
0.0754884
0.0994521
0.0476456
0.0999433
0.0753293
0.0411139
0.116332
0.15155
0.122867
0.125081
0.0485321
0.139908
0.0285833
0.0928781
0.0630655
0.132374
0.171617
0.154163
0.0318581
0.133425
0.0285334
0.0654494
0.150568
0.0705499
0.0652386
0.113362
0.135934
0.133741
0.132238
0.0896286
0.0816709
0.0700393
0.1046
0.073259
0.027929
0.0524033
0.0614853
0.155481
0.0655847
0.0720116
0.133768
0.139092
0.0853596
0.0652555
0.0383076
0.131806
0.0418265
0.110379
0.138223
0.149506
0.0703212
0.0846396
0.119523
0.0865111
0.0548745
0.141856
0.0730807
0.131545
0.0437525
0.0990575
0.101277
0.0917371
0.0906395
0.136583
0.0965623
0.149935
0.138395
0.0498075
0.0800175
0.0273294
0.14584
0.134172
0.15299
0.112757
0.141976
0.0758604
0.0903335
0.0647118
0.0401785
0.13178
0.0570866
0.15148
0.0778235
0.100502
0.126248
0.136908
0.152188
0.0974358
0.0722807
0.0821088
0.150363
0.142853
0.0932717
0.101785
0.0588571
0.0891321
0.0861611
0.130624
0.13528
0.0423733
0.124822
0.129774
0.115566
0.101165
0.0666673
0.112763
0.0486601
0.0488794
0.0730368
0.147395
0.0481951
0.038932
0.130645
0.125039
0.0881788
0.0634463
0.0684926
0.102649
0.133027
0.151707
0.0941394
0.0945627
0.0577721
0.127558
0.11636
0.0930238
0.0457116
0.062739
0.111748
0.142798
0.0851571
0.0477286
0.130093
0.127957
0.114264
0.0619739
0.0474581
0.138102
0.0756954
0.123679
0.0461354
0.096145
0.141279
0.01829
0.067331
0.0275661
0.0414388
0.131457
0.133928
0.0959079
0.134302
0.0957413
0.0486032
0.116004
0.0899948
0.0722293
0.105522
0.0635924
0.0912816
0.0750481
0.141455
0.126678
0.0833235
0.124079
0.116831
0.147823
0.161878
0.157187
0.136793
0.153575
0.110652
0.0982517
0.121084
0.15269
0.0233258
0.142581
0.13756
0.100453
0.136063
0.0665151
0.133982
0.154758
0.153017
0.151177
0.110783
0.120673
0.0662892
0.0384502
0.157845
0.0629737
0.117685
0.0801301
0.0778604
0.100959
0.0880394
0.0684967
0.0913553
0.0838449
0.0623341
0.06504
0.0633015
0.163239
0.139363
0.0725943
0.084647
0.0606826
0.0522563
0.0683994
0.100521
0.0892645
0.124823
0.0261666
0.14283
0.0820502
0.148419
0.0673066
0.122316
0.147172
0.132534
0.0670792
0.0573164
0.0757768
0.157288
0.0633833
0.149493
0.151956
0.104025
0.0925993
0.0669831
0.0694377
0.142896
0.129804
0.112289
0.0709335
0.126096
0.0285722
0.0826832
0.148556
0.0727882
0.154699
0.0365679
0.083547
0.105433
0.1344
0.0933578
0.0629221
0.151769
0.114907
0.0411666
0.149849
0.132147
0.0866466
0.0709333
0.0350817
0.130267
0.0281196
0.0719902
0.0920024
0.134701
0.0999675
0.0402927
0.102658
0.107606
0.141956
0.0897148
0.0783277
0.125437
0.134165
0.118314
0.146991
0.152793
0.117262
0.0750528
0.0635843
0.127049
0.0379036
0.0789185
0.120375
0.0736139
0.0282067
0.0782824
0.0857309
0.120837
0.0898736
0.0843381
0.137972
0.116143
0.0846824
0.129844
0.13771
0.103014
0.152571
0.131584
0.0969582
0.0501851
0.0892476
0.0300148
0.119251
0.0289929
0.145055
0.102182
0.0814223
0.151366
0.153261
0.0944108
0.107854
0.0665373
0.0833154
0.0978161
0.145124
0.152177
0.0818687
0.073108
0.103929
0.145088
0.130936
0.0516347
0.0666838
0.144965
0.0936955
0.114869
0.100685
0.0779853
0.115121
0.140008
0.120041
0.0680083
0.0601481
0.113769
0.130806
0.131273
0.103504
0.151229
0.127548
0.142803
0.100575
0.0970925
0.134248
0.152971
0.13543
0.153039
0.0997114
0.157747
0.0654991
0.141891
0.127735
0.0928481
0.0953151
0.0980071
0.0310325
0.0230839
0.0599412
0.131951
0.143832
0.0656856
0.129743
0.0647935
0.105693
0.141836
0.0907734
0.102447
0.117521
0.0956559
0.131734
0.101647
0.112368
0.107123
0.155339
0.0619782
0.103011
0.101258
0.149235
0.0966528
0.0673003
0.115471
0.0309129
0.0346235
0.145718
0.137044
0.133469
0.133378
0.141018
0.14525
0.148146
0.0863807
0.106703
0.141044
0.0272968
0.146696
0.102181
0.0663724
0.121816
0.104095
0.0891585
0.0797775
0.151162
0.0539533
0.070294
0.108485
0.0798257
0.0971243
0.103809
0.126109
0.116457
0.141457
0.145151
0.0903007
0.0728455
0.058655
0.151323
0.0754975
0.147893
0.107802
0.0860878
0.122221
0.0976914
0.13856
0.143835
0.142926
0.111195
0.0597262
0.150199
0.139585
0.13171
0.114438
0.0938617
0.0894022
0.0605252
0.115252
0.0761285
0.0957105
0.0888098
0.150361
0.150945
0.136241
0.143788
0.0186206
0.0663129
0.0850613
0.0520573
0.131268
0.0864717
0.089609
0.148227
0.0918989
0.136652
0.0971308
0.133417
0.0261653
0.104719
0.0918976
0.0853189
0.150982
0.112189
0.0410573
0.143678
0.0393299
0.0683237
0.0701441
0.097149
0.0274556
0.133143
0.0934106
0.146344
0.0900227
0.0672068
0.14557
0.130391
0.131863
0.0710423
0.0914681
0.0964382
0.145272
0.0798343
0.126554
0.108035
0.09277
0.0377419
0.124451
0.152407
0.154114
0.132404
0.0285802
0.0839223
0.142979
0.117272
0.132673
0.13387
0.14649
0.112749
0.130152
0.0450515
0.130379
0.0934222
0.138987
0.0740606
0.0977532
0.103733
0.11926
0.112377
0.12899
0.14058
0.081608
0.131754
0.0969195
0.147158
0.0958069
0.0985032
0.0989591
0.150499
0.128698
0.17449
0.0380137
0.15195
0.152644
0.0704946
0.0694084
0.0914567
0.143341
0.126289
0.133409
0.106968
0.0944007
0.119161
0.0629297
0.0234372
0.151324
0.0975453
0.0950224
0.10718
0.121292
0.140236
0.065404
0.0578205
0.0368169
0.0212093
0.0608846
0.136228
0.0903786
0.118877
0.0966628
0.130685
0.142528
0.0639197
0.133317
0.0348445
0.0690806
0.154254
0.100521
0.0861444
0.0879547
0.133705
0.137395
0.104858
0.113865
0.118743
0.141303
0.0999192
0.0902977
0.152043
0.0792235
0.0685945
0.0939315
0.125852
0.103908
0.0934813
0.140359
0.137658
0.127702
0.0566929
0.132359
0.106413
0.134558
0.15225
0.125385
0.148537
0.144099
0.0629231
0.124408
0.109965
0.056501
0.132452
0.126877
0.0981451
0.0610211
0.151317
0.139479
0.136994
0.0735998
0.0184665
0.121856
0.0656759
0.14317
0.146161
0.15402
0.102601
0.127185
0.128775
0.153059
0.0682916
0.143188
0.0861616
0.143918
0.126557
0.141041
0.0922087
0.110704
0.122949
0.132157
0.114816
0.145773
0.111006
0.128083
0.139847
0.129073
0.143672
0.133528
0.134403
0.150585
0.154361
0.148853
0.126927
0.151525
0.104973
0.145084
0.0970341
0.10354
0.0595938
0.132188
0.105662
0.142334
0.149628
0.151572
0.111633
0.137372
0.150533
0.139355
0.0655222
0.126824
0.070314
0.0304303
0.152698
0.0290129
0.103048
0.0410951
0.140916
0.0885538
0.150632
0.125792
0.130447
0.0859722
0.0906725
0.120882
0.0956929
0.130846
0.13866
0.152115
0.0371309
0.13132
0.0448175
0.100196
0.0191436
0.100782
0.133551
0.0661303
0.049471
0.149253
0.107736
0.112124
0.0884815
0.0361425
0.101482
0.13348
0.0827133
0.0737037
0.0940605
0.141375
0.143573
0.0729794
0.0668384
0.0305177
0.0894064
0.102526
0.136768
0.0998684
0.120001
0.130711
0.0677464
0.132009
0.125248
0.139092
0.128654
0.136192
0.131934
0.102699
0.114386
0.103258
0.110633
0.0918862
0.130067
0.0875079
0.172894
0.140737
0.0872698
0.155175
0.0842466
0.142141
0.13813
0.0726181
0.104303
0.113033
0.133317
0.128306
0.0678799
0.103136
0.0408221
0.103616
0.13946
0.133888
0.115517
0.0686144
0.107815
0.132856
0.0932963
0.124421
0.168129
0.136355
0.0854931
0.137904
0.140617
0.135645
0.100937
0.135222
0.133847
0.0518369
0.102811
0.0994535
0.0936329
0.130352
0.113238
0.136092
0.140709
0.139679
0.111731
0.132048
0.0653669
0.144744
0.134734
0.0783829
0.0985391
0.134176
0.0976964
0.0834962
0.100788
0.132203
0.152758
0.13287
0.102351
0.135605
0.151835
0.0688271
0.125207
0.145984
0.0922232
0.132578
0.0664677
0.128009
0.105266
0.153629
0.086373
0.149344
0.142623
0.136227
0.0921251
0.149795
0.0314165
0.151852
0.112927
0.115228
0.142794
0.125428
0.0948401
0.0885922
0.130602
0.121965
0.112119
0.0828955
0.137561
0.132217
0.136818
0.114742
0.124685
0.132714
0.127133
0.156836
0.144713
0.0915757
0.118436
0.135906
0.107609
0.117945
0.154438
0.0979096
0.128631
0.0935411
0.128337
0.110812
0.145678
0.144816
0.0413465
0.1453
0.111315
0.129162
0.111962
0.135839
0.0781991
0.13679
0.144257
0.0950586
0.129193
0.140676
0.118506
0.0719229
0.141575
0.139581
0.129337
0.139672
0.113461
0.115234
0.132723
0.141797
0.138055
0.143962
0.0645921
0.0738235
0.114237
0.138186
0.150438
0.135355
0.131631
0.146434
0.0980987
0.0935497
0.112779
0.117673
0.130346
0.068408
0.143639
0.143186
0.0993483
0.107744
0.132891
0.110459
0.121368
0.114093
0.142792
0.131334
0.10969
0.149482
0.152367
0.123655
0.108485
0.115918
0.144762
0.122742
0.120983
0.124663
0.12254
0.151817
0.111303
0.151764
0.149275
0.124961
0.141798
0.135459
0.0788908
0.131606
0.135203
0.0974248
0.14749
0.0900639
0.144242
0.130194
0.137817
0.150019
0.0911912
0.127601
0.101256
0.0532125
0.180088
0.141827
0.145463
0.0797122
0.121338
0.152176
0.0678179
0.117018
0.119044
0.119554
0.103548
0.142868
0.154654
0.140101
0.113328
0.107825
0.147627
0.142596
0.112591
0.149742
0.123004
0.14048
0.122238
0.137947
0.0650056
0.135744
0.124539
0.15117
0.130091
0.145546
0.131677
0.137068
0.124999
0.13897
0.0421031
0.109634
0.142028
0.134439
0.150875
0.116558
0.0969507
0.160164
0.116969
0.103303
0.141512
0.0896967
0.132268
0.142128
0.12134
0.145936
0.145299
0.137932
0.110636
0.12572
0.120196
0.163355
0.135643
0.133102
0.13161
0.132659
0.0777059
0.146403
0.148926
0.116128
0.140182
0.143771
0.134517
0.124004
0.136192
0.0918542
0.139743
0.142725
0.104062
0.121162
0.133688
0.15172
0.0191997
0.106086
0.141724
0.141157
0.132838
0.130211
0.136284
0.115526
0.134154
0.0981808
0.132746
0.136963
0.131328
0.142454
0.133845
0.0825777
0.150718
0.139982
0.13308
0.139037
0.103708
0.142617
0.153169
0.049979
0.150614
0.134299
0.128323
0.137292
0.140874
0.0903133
0.124741
0.116834
0.146547
0.145409
0.0981099
0.144282
0.124125
0.142981
0.131218
0.110317
0.153538
0.134657
0.137475
0.138501
0.141082
0.134607
0.122743
0.149268
0.126274
0.0678324
0.153102
0.140477
0.112535
0.133195
0.122243
0.150617
0.132966
0.13528
0.151181
0.145616
0.111534
0.123317
0.1299
0.129932
0.127063
0.125472
0.118023
0.144922
0.133215
0.153311
0.142979
0.1173
0.142877
0.138745
0.126975
0.149393
0.130502
0.131946
0.120709
0.132888
0.125619
0.136121
0.134723
0.112207
0.152307
0.151322
0.128438
0.147677
0.116609
0.131635
0.132951
0.139178
0.153398
0.12255
0.138035
0.132823
0.130596
0.0542824
0.135242
0.14043
0.163039
0.131016
0.138142
0.10078
0.111695
0.0884813
0.140975
0.133641
0.134777
0.111839
0.130376
0.129662
0.0992956
0.134952
0.146381
0.130223
0.133254
0.130025
0.120371
0.151492
0.116651
0.126048
0.132523
0.147312
0.144529
0.0891167
0.121843
0.116045
0.125252
0.0383394
0.128195
0.150093
0.0955976
0.139858
0.131689
0.147046
0.152668
0.133467
0.116785
0.153538
0.130764
0.150362
0.146142
0.133522
0.0936794
0.111094
0.161202
0.12917
0.143644
0.13238
0.13182
0.136474
0.137359
0.129949
0.110459
0.0388873
0.151423
0.144018
0.135064
0.0552914
0.13965
0.137182
0.136321
0.141837
0.137642
0.0923238
0.124216
0.132169
0.110689
0.130298
0.14521
0.130864
0.127263
0.140627
0.14776
0.130872
0.132006
0.153823
0.153074
0.143946
0.152993
0.134825
0.14641
0.131929
0.142813
0.0364091
0.131436
0.131846
0.0848083
0.130899
0.0891074
0.0669364
0.0184716
0.0865006
0.113829
0.134575
0.12975
0.140036
0.127966
0.128509
0.136532
0.110655
0.110209
0.0912939
0.145869
0.142155
0.12902
0.120414
0.130944
0.107778
0.137537
0.0702617
0.0924741
0.13097
0.138018
0.137939
0.129143
0.131684
0.111158
0.131994
0.139688
0.0709919
0.128974
0.132567
0.146457
0.0868474
0.0420308
0.128829
0.124999
0.0524907
0.143061
0.109657
0.14277
0.129931
0.117523
0.131077
0.119881
0.114445
0.0869605
0.136368
0.104986
0.141227
0.106642
0.139081
0.127276
0.0189159
0.107565
0.131474
0.129121
0.141942
0.0918255
0.132947
0.139243
0.1487
0.111523
0.126697
0.137052
0.106836
0.0930948
0.131502
0.146256
0.131505
0.132338
0.135627
0.156111
0.14389
0.153479
0.142953
0.124647
0.15216
0.119066
0.0879889
0.0948705
0.125237
0.139969
0.140127
0.143614
0.118589
0.113344
0.138509
0.150313
0.146969
0.105265
0.153657
0.138823
0.137942
0.0291588
0.106848
0.145903
0.14301
0.146462
0.149584
0.125491
0.0935164
0.139217
0.143613
0.0948163
0.132947
0.138901
0.12614
0.128653
0.097646
0.114394
0.0709828
0.132215
0.132911
0.141597
0.0419816
0.124492
0.130458
0.0971067
0.151001
0.151316
0.141085
0.141785
0.102653
0.146482
0.151798
0.141072
0.126362
0.144527
0.114919
0.130208
0.129792
0.144887
0.13727
0.137777
0.0696441
0.151444
0.123644
0.134515
0.14753
0.134412
0.144055
0.147
0.141283
0.101843
0.142768
0.0750898
0.145838
0.1344
0.15364
0.151834
0.103635
0.115734
0.153286
0.131612
0.126407
0.125789
0.13927
0.141384
0.113134
0.144864
0.113792
0.0655079
0.133926
0.135564
0.135211
0.139746
0.117532
0.129434
0.12943
0.145872
0.135763
0.108038
0.131929
0.139228
0.0960182
0.0910538
0.141767
0.0926156
0.151143