/*--------------------------------*- C++ -*----------------------------------*\
| =========                 |                                                 |
| \\      /  F ield         | OpenFOAM: The Open Source CFD Toolbox           |
|  \\    /   O peration     | Version:  v2012                                 |
|   \\  /    A nd           | Website:  www.openfoam.com                      |
|    \\/     M anipulation  |                                                 |
\*---------------------------------------------------------------------------*/
FoamFile
{
    version     2.0;
    format      ascii;
    class       surfaceScalarField;
    location    "700";
    object      phi;
}
// * * * * * * * * * * * * * * * * * * * * * * * * * * * * * * * * * * * * * //

dimensions      [0 3 -1 0 0 0 0];
oriented        oriented;


internalField   nonuniform List<scalar> 
14516
(
0.330495
-0.258882
-0.0714495
-0.767675
0.444243
0.323449
0.246797
0.0838775
0.431055
0.0126895
-0.443507
0.0296813
0.100007
-0.129578
0.280288
-0.526644
0.246472
0.387644
-0.644533
0.257357
0.155539
0.405451
-0.560987
0.378887
-0.378768
-0.000138883
0.148255
-0.118442
0.22165
0.024129
-0.245712
0.170156
-0.374219
0.204104
-0.166237
0.59748
0.616926
-0.378229
-0.238721
0.613956
-0.613418
-0.407814
0.658992
-0.251177
0.152028
-0.533921
0.381842
0.560811
-0.408681
0.274698
-0.327201
0.0525953
0.20909
0.456385
-0.236825
-0.219516
0.405051
-0.195559
-0.209587
0.310719
-0.558268
0.247565
-0.305485
-0.302336
0.325024
-0.551466
0.226553
0.457487
-0.623613
0.412542
-0.665688
0.253163
0.676765
-0.439148
-0.237632
0.0809769
-0.222031
0.141153
-0.0413267
0.420145
0.343834
0.00989689
-0.353615
0.624949
-0.314184
-0.356287
0.704595
-0.348187
-0.592713
0.600102
-0.00734489
-0.249924
0.0828902
0.167098
0.190995
-0.473658
0.282744
0.567776
-0.179876
0.242131
0.162825
0.208034
0.337196
-0.545007
0.684758
-0.358989
-0.325918
-0.0694438
0.413376
0.0820346
0.532448
-0.561338
0.0377747
0.52366
0.674755
-0.367474
-0.306952
0.0332629
-0.594549
0.495376
-0.168902
-0.659849
0.344072
0.315781
0.41382
-0.286366
-0.127506
-0.405052
0.41798
0.249944
-0.166981
0.2686
-0.136037
-0.132532
-0.216242
0.461731
-0.245464
-0.198695
-0.194148
0.392929
0.315311
-0.121163
-0.194115
-0.248382
-0.157669
0.406161
0.314621
0.192274
0.136896
-0.234499
0.097633
0.322632
-0.371165
0.0486628
-0.283038
0.491038
-0.667639
0.442665
0.22498
-0.266422
0.468658
-0.202217
0.391331
-0.0657252
-0.325593
-0.574545
0.0969508
0.478056
-0.165996
0.115694
-0.676222
0.342186
0.334052
-0.0248362
0.416222
-0.310955
-0.071645
0.382583
0.363846
-0.193633
0.288081
-0.0663998
0.186274
0.129071
-0.495458
0.605121
-0.109662
0.283219
-0.533331
0.249923
0.248433
0.37183
-0.620278
0.351271
-0.101225
0.423777
-0.101029
-0.580732
0.301526
0.279244
-0.512857
0.609677
-0.0968149
0.23924
-0.597573
0.358262
0.231597
-0.578092
0.346526
-0.357421
-0.318778
0.257031
-0.605651
0.348661
-0.445761
0.515467
-0.0696926
-0.75698
0.380652
0.376348
0.358521
-0.427886
-0.68236
0.368409
0.31398
-0.35786
0.589424
-0.53151
0.297623
0.233896
-0.167808
-0.336649
0.504576
-0.28875
0.617447
-0.328593
-0.341559
-0.426101
-0.216082
0.161024
0.0551037
-0.191591
-0.344912
0.53653
0.376839
0.248151
-0.434209
-0.342443
-0.414518
0.159672
-0.40801
0.132908
-0.578644
-0.531736
0.340208
0.723522
-0.288072
-0.435413
0.402696
0.320872
-0.292053
0.612224
-0.320083
-0.19795
0.534845
-0.336782
0.340104
-0.537939
0.140406
-0.653232
-0.0827987
0.441338
0.0197921
-0.356434
0.434254
-0.641247
0.207018
0.263361
-0.479477
-0.628044
0.446319
0.18169
-0.539676
0.0442196
-0.445558
0.224714
0.220823
0.236028
0.221683
-0.414157
0.0811397
0.333168
0.118684
0.149946
-0.266049
-0.64769
0.366323
0.281476
0.209548
0.141823
0.581498
-0.324425
-0.245749
0.622682
-0.492276
-0.135802
0.0425693
0.441076
-0.483651
0.283819
0.230095
-0.513645
0.436074
-0.155702
-0.450525
0.239024
0.211531
0.231825
0.224603
0.102993
-0.238277
0.135357
-0.352113
-0.330218
0.580758
-0.341564
0.100318
-0.427984
0.327637
-0.702721
0.484558
0.218171
-0.229975
0.391224
-0.290972
0.595701
-0.41576
-0.179945
0.346261
-0.387561
-0.522896
0.243455
0.279468
-0.00255762
-0.571664
0.440324
0.234741
0.521583
-0.284934
0.390248
0.228424
-0.618653
0.48411
-0.200117
0.292891
-0.510738
0.217924
0.681276
-0.299678
-0.381299
-0.699798
0.289765
0.410008
0.274795
-0.653054
-0.607002
0.364519
0.242483
-0.688273
0.324764
0.36353
-0.385976
-0.313847
-0.172129
0.517821
-0.345603
-0.195131
-0.0209109
-0.138073
0.260654
-0.12248
-0.353197
-0.349516
0.0989481
-0.236896
0.204113
-0.0557216
-0.505363
0.33333
-0.374613
0.417178
0.679531
-0.322772
-0.356703
0.504714
-0.211761
-0.752882
0.366929
0.289483
0.392041
-0.347321
0.502757
0.308614
0.368137
-0.616364
0.408038
0.208311
-0.334521
0.259524
0.0750449
0.228213
-0.626508
0.398322
0.30084
-0.537524
-0.291434
-0.171732
-0.147768
0.319533
-0.223433
0.635981
-0.606199
0.292054
0.314165
0.104124
-0.471257
0.36745
-0.433526
0.123173
0.310399
-0.422025
0.650286
-0.332369
-0.10107
-0.484146
0.258735
0.225404
-0.059785
-0.225246
0.214302
0.363428
-0.577715
0.581623
-0.255011
-0.326583
-0.0685421
0.239336
-0.170786
-0.0275643
0.233216
-0.205624
-0.159074
-0.150801
0.309872
-0.350165
-0.185646
0.364881
-0.439516
0.0747497
-0.253974
0.537116
0.245598
-0.108651
0.349461
0.232191
-0.499755
0.279253
0.220787
-0.391896
-0.224482
-0.21566
-0.268485
-0.420383
0.482503
-0.062139
0.298419
0.115342
-0.22154
-0.224035
-0.335837
-0.253389
0.18483
0.0105895
-0.251315
0.240813
0.556173
-0.323343
-0.232774
0.0482858
0.155974
0.537606
-0.147326
-0.00693969
0.353235
-0.366696
0.365946
0.000824725
-0.394366
0.236846
0.206234
0.266485
-0.472699
0.464796
-0.221286
-0.475208
0.615626
0.491866
-0.641639
0.332951
0.308664
0.350729
-0.433578
-0.240836
0.362281
-0.121567
0.324083
-0.137767
-0.186243
0.475748
-0.177418
-0.410292
0.123919
0.205588
-0.404318
0.21205
-0.201395
0.435979
0.243608
0.579878
-0.348688
-0.231228
0.435329
-0.0703634
0.071973
-0.547171
0.178303
0.136583
-0.314815
-0.30773
0.18185
0.12608
0.511894
-0.324399
-0.187469
-0.191762
-0.58733
0.166916
0.677335
-0.296667
-0.107121
-0.303262
-0.223262
0.219546
0.321674
-0.541169
-0.165124
-0.142428
-0.251557
0.123391
0.128187
-0.678253
0.372765
-0.620379
0.318054
-0.311601
0.152482
0.609626
-0.160417
-0.449157
0.120465
-0.238177
0.117747
-0.133095
0.311438
-0.280195
-0.227402
0.507972
-0.211939
-0.324149
0.536375
0.40649
-0.24677
-0.646347
0.403223
0.243244
-0.0879458
0.438581
-0.622742
0.310736
0.311993
-0.552792
0.320037
0.233023
0.265823
-0.622077
-0.306085
0.54107
-0.234843
0.189988
0.327926
0.641493
-0.236124
0.280757
0.22405
-0.341684
-0.147958
-0.444729
0.416154
-0.232476
-0.183647
0.118148
-0.283883
0.165756
0.282676
-0.16397
-0.247139
0.127651
0.119522
-0.298815
-0.21324
0.512405
-0.430621
0.225817
0.20475
0.221943
0.275651
-0.497407
0.278422
-0.16026
0.522431
-0.32216
-0.200125
-0.667267
0.32465
0.342574
-0.591854
0.485461
0.106358
-0.517936
0.140925
0.14177
0.426462
0.176979
-0.603442
-0.331246
0.159559
-0.480351
-0.036939
0.517286
-0.699001
0.218637
0.155635
0.168516
0.343656
0.0223571
-0.378713
0.488331
-0.109396
-0.254288
-0.413012
0.600563
-0.382509
-0.217985
0.122252
-0.32408
0.20191
0.506568
-0.293465
-0.213117
0.647333
-0.544859
-0.102488
0.582568
0.0647556
-0.221853
-0.476277
0.254719
0.622056
-0.353436
-0.268643
-0.14411
0.497501
-0.216625
-0.596092
0.195517
0.400561
0.554918
0.0109504
-0.56575
0.245362
0.439273
0.344748
0.167156
0.220725
0.195467
-0.00712587
-0.235034
0.242192
-0.67425
0.433014
0.241643
0.248488
0.216359
0.241883
-0.368968
-0.278631
-0.468696
0.216827
0.252153
0.200562
0.27476
0.344052
-0.618789
0.360798
0.234907
-0.385732
0.189876
0.195842
0.219853
-0.226975
0.334665
0.242822
-0.577569
0.316075
-0.331474
0.0155726
-0.285738
0.422459
-0.370462
-0.0520472
0.190054
-0.534836
0.344687
-0.103452
0.537734
0.381044
-0.626799
0.245935
0.609621
-0.489196
-0.12046
0.30415
-0.181832
0.356964
-0.305661
-0.0512878
-0.275557
-0.222265
0.497926
0.425378
-0.00295441
0.637636
-0.360502
-0.277258
0.482086
0.127502
0.34422
0.012756
0.231806
-0.407523
0.175727
0.164267
0.210925
-0.375157
0.259241
-0.54787
0.325238
-0.281907
-0.242683
0.524655
0.144827
0.184155
-0.328936
0.0583216
-0.299242
-0.283252
-0.252455
0.535767
-0.378051
-0.0813265
-0.189499
0.270885
0.6557
-0.283874
0.649399
-0.577426
0.143926
-0.171455
-0.383485
0.185172
0.198271
-0.305727
-0.0653117
0.333226
-0.123542
-0.38574
-0.191003
0.576762
0.166089
0.176902
0.168272
0.270009
-0.562043
0.351961
-0.440005
0.276262
-0.180631
-0.0955722
-0.308225
-0.27285
0.580981
0.271285
0.252405
-0.387294
0.380551
0.596489
-0.570349
-0.0260971
0.101147
-0.540283
0.0413949
0.219076
-0.260345
0.531883
-0.182491
0.238731
-0.521864
0.311908
-0.378142
-0.268088
0.288734
0.37026
0.61246
0.277835
0.0882932
-0.366241
0.333183
-0.209845
0.213925
-0.41714
0.203256
-0.393011
0.047436
0.345659
-0.175391
-0.241276
0.416712
0.234178
-0.151998
0.349175
-0.197265
-0.410033
0.215947
-0.269477
-0.157725
0.427248
-0.406066
0.0126879
-0.197214
0.184636
0.278651
-0.0923293
0.152277
0.0933599
0.189826
-0.177022
-0.165406
0.443167
-0.465438
-0.0947596
0.5603
0.361185
-0.149072
-0.370458
-0.297178
-0.48684
-0.105037
-0.284811
0.544117
0.0748478
0.534829
0.560831
-0.370878
-0.102046
0.453943
0.166842
-0.248115
-0.0165695
-0.376388
0.228143
-0.107629
-0.383322
-0.090265
-0.504613
0.261738
0.242898
-0.300573
0.532147
-0.231643
0.335736
0.119067
-0.269015
0.149981
-0.28993
-0.239931
-0.19074
0.163528
-0.396714
0.233132
-0.464983
0.412827
0.527506
-0.193081
-0.374798
0.178658
0.196055
0.572776
-0.597156
0.0244344
0.162527
-0.52164
-0.376937
-0.246472
-0.447829
0.207812
-0.326265
0.174297
0.396792
-0.0596399
-0.337225
-0.189312
0.0247468
0.6312
-0.24681
-0.384369
0.171756
-0.114633
-0.136908
0.267317
0.348193
-0.615535
-0.685768
0.455216
0.230615
-0.043301
-0.343848
-0.129921
-0.0846217
0.214577
0.289557
0.341663
-0.282067
-0.340687
0.352915
-0.147031
-0.205852
0.420118
-0.303266
-0.116789
0.384839
0.215791
0.0019043
-0.415928
0.158812
-0.482657
-0.205795
0.616434
-0.231524
0.170036
-0.32251
0.152583
0.391768
0.140029
0.258573
-0.139503
-0.244466
-0.317011
-0.0465166
-0.511731
-0.536507
0.250169
0.286401
-0.171819
-0.267612
-0.268829
-0.605013
0.320304
-0.358832
-0.355343
-0.251661
-0.262538
-0.10877
0.371393
0.376027
0.245984
0.338443
-0.174153
0.140295
0.180052
0.222373
-0.402518
0.240478
0.282093
-0.193655
-0.198128
0.606172
0.341827
-0.102459
0.547132
-0.0347229
-0.512039
0.055164
0.283294
-0.396103
0.635125
-0.239012
-0.57246
0.218062
0.354429
0.639299
-0.362622
-0.209834
-0.359326
-0.246859
-0.499294
0.190562
0.308692
0.472314
-0.200927
0.562124
0.554139
0.0199083
-0.57378
0.349131
0.0475804
0.0832782
0.340615
0.323223
0.233011
0.131681
0.147024
-0.615332
-0.270851
0.375022
-0.189714
0.191995
0.228182
0.276329
-0.266352
-0.172346
0.251518
-0.0791358
0.181353
0.294307
0.158484
0.0288885
-0.37101
0.342465
0.447306
-0.107307
-0.339953
0.178604
0.163259
0.315826
-0.145656
0.577166
-0.206211
-0.234829
0.441067
0.400112
0.237418
-0.257044
-0.263926
0.521147
0.103959
0.12423
-0.280836
0.51118
0.386143
0.231384
-0.213887
-0.285578
0.170943
0.364031
-0.110045
0.552744
-0.442653
0.151249
0.291612
0.102432
0.156132
0.0833024
0.352111
-0.34475
0.515836
0.0465586
0.257677
0.623916
-0.260479
0.0872024
0.512942
0.641892
-0.316427
-0.325452
-0.219475
0.116213
0.331104
0.22051
-0.503823
0.246966
-0.628273
0.390254
0.238078
-0.406114
0.503353
-0.484341
0.226039
0.258394
-0.130447
-0.361852
-0.31439
-0.35948
-0.336461
0.365795
-0.216475
-0.318454
0.343634
-0.445612
-0.178077
0.21553
-0.281171
-0.317983
0.49583
0.0769706
0.52242
-0.0959607
-0.191466
0.369997
-0.243761
0.302208
-0.246993
-0.00322308
-0.533801
0.537392
-0.293044
-0.286811
0.579753
0.201685
-0.524945
-0.249078
0.211896
-0.510443
-0.296361
0.260754
-0.119753
0.322801
-0.59491
0.272153
-0.356126
0.0215956
0.232506
-0.254063
0.609565
-0.319737
-0.289799
-0.259799
-0.208601
-0.333249
-0.264388
-0.187604
0.4123
0.222046
0.368868
-0.2314
-0.137447
-0.58387
-0.255236
-0.297295
-0.155581
0.278988
-0.218336
0.497819
0.0648043
0.168881
-0.233611
0.356007
0.204725
-0.179186
0.340817
0.26878
-0.176586
-0.113042
0.456781
0.35391
-0.559665
0.205821
0.244731
-0.480694
0.235975
0.134599
0.115307
-0.102922
0.399523
-0.296495
-0.211427
0.565429
-0.0671413
0.425065
-0.357823
-0.425631
0.322913
0.608055
-0.110491
0.242877
-0.221217
0.480427
-0.237464
0.482198
-0.279847
-0.218787
0.498711
-0.22847
-0.190323
0.418752
0.621605
-0.346827
-0.455225
0.388032
-0.21153
0.39565
-0.184066
-0.0705949
0.222929
-0.596713
0.214282
0.269846
0.190435
-0.460244
-0.201153
0.0712692
-0.194407
-0.267951
0.462281
0.566679
-0.35309
-0.213549
-0.374426
0.10506
0.268428
-0.156446
-0.381648
0.182143
0.14155
0.0681348
-0.414075
-0.182028
-0.313057
-0.346433
0.111421
-0.384631
0.462761
-0.078184
-0.554682
0.532255
-0.525694
-0.00825035
-0.244608
0.605387
-0.360758
-0.0594721
-0.405907
0.414502
-0.198851
-0.643656
0.286207
0.177561
-0.158412
-0.019107
0.206858
-0.142
0.141372
0.227517
0.145147
0.170821
-0.18179
-0.43125
0.105041
0.137321
-0.242319
-0.152923
0.422788
0.304187
-0.537184
0.232933
0.176335
0.218199
-0.39445
0.302589
-0.476993
0.174374
-0.628749
0.275099
0.353629
-0.325906
-0.186134
0.512023
0.47052
0.0844792
0.326415
-0.532129
0.124661
-0.202438
0.0778069
0.626
-0.280531
-0.345463
0.376444
0.241475
-0.617922
-0.14974
-0.150066
0.299804
-0.362722
0.247084
0.115543
-0.150982
-0.186267
-0.3472
-0.276496
0.497779
-0.221275
0.261522
-0.456063
-0.208102
0.46945
-0.0909025
-0.236217
0.0403004
0.275531
-0.315652
0.257372
-0.463572
-0.0488587
0.32834
-0.27944
-0.364533
-0.382686
-0.258538
0.263682
-0.217076
0.197248
0.155706
0.270398
0.190634
-0.426467
0.235878
-0.224525
-0.280066
-0.243254
-0.103145
0.0336802
0.239203
-0.105706
-0.257087
-0.363139
-0.202643
0.565996
0.248285
0.21954
-0.384956
0.0616988
0.216749
-0.189161
0.420978
0.327812
-0.239611
-0.347259
0.529811
-0.182535
-0.497441
0.281349
0.216106
0.0814591
-0.34392
0.147013
0.126674
-0.273652
-0.375784
-0.268385
-0.484439
0.207979
-0.594947
0.223726
0.371156
-0.312917
0.560144
-0.24705
-0.55917
0.246503
0.285969
0.56699
-0.4079
-0.159055
-0.334368
-0.273059
-0.500619
0.225861
0.341192
-0.603115
0.330791
0.272607
0.235559
-0.415298
0.179698
-0.276436
0.612667
-0.336233
0.112134
0.214246
0.508796
0.00698406
-0.515613
-0.216693
0.41297
-0.177424
0.214939
-0.181321
0.242123
-0.137015
-0.153298
0.534488
0.29781
-0.521054
0.223281
-0.272357
-0.212048
0.221571
0.332759
-0.554177
-0.376001
0.626913
-0.250909
0.493061
-0.170239
-0.625723
0.249735
-0.301232
0.539971
-0.260625
-0.236817
0.369459
0.25655
-0.205448
-0.107321
0.31286
-0.330526
-0.355185
-0.453019
0.535236
0.0233093
0.392531
-0.415725
0.484529
-0.181944
0.214813
-0.522745
0.308035
0.246455
0.370044
-0.117975
-0.127692
0.0379342
-0.452016
-0.1908
-0.203707
0.394609
0.196393
-0.0717078
-0.297255
-0.254127
0.00409484
0.550746
-0.554402
0.211668
0.43024
-0.170803
-0.063678
-0.271363
-0.323646
0.218781
-0.114771
0.0116054
-0.542945
0.183919
-0.446665
0.619116
-0.172407
0.223763
-0.414486
-0.449523
0.392571
0.057047
-0.242331
-0.239341
0.481687
-0.547384
0.276965
0.270504
0.215528
-0.61157
-0.365765
0.633081
-0.28646
0.110501
0.088345
-0.198815
-0.490622
0.238161
-0.103537
-0.426137
-0.120878
-0.109284
-0.31591
-0.28691
-0.54951
0.286876
0.26259
-0.408703
0.584644
-0.175935
0.138202
0.122628
-0.229616
0.527521
-0.0459339
-0.208669
0.254594
-0.172468
0.392043
-0.358782
0.307327
0.526669
0.0708378
-0.47953
-0.129726
-0.124739
0.254515
-0.526297
0.225102
-0.434996
0.100861
0.0600966
0.174883
-0.23494
0.240011
0.292063
0.3578
0.208911
-0.345993
-0.201319
-0.206837
0.540914
-0.334104
0.591443
-0.233604
0.235249
0.348274
-0.583461
-0.546958
0.170084
0.376859
0.621856
-0.385164
-0.236666
-0.356166
-0.0219332
0.378137
-0.358979
-0.0114672
-0.293175
0.50845
-0.613635
0.312627
0.301151
-0.546189
0.0152079
0.531038
-0.589142
0.254977
0.334118
-0.648557
0.368027
0.388287
0.275297
0.359837
0.222654
-0.441904
0.219251
-0.13808
0.304122
-0.312162
0.642162
-0.329981
-0.408042
0.179539
-0.217637
0.0452849
0.446962
-0.177837
-0.269084
0.405267
-0.193699
-0.0339744
0.44679
-0.448149
0.0920505
0.222471
-0.100478
-0.121939
-0.373259
0.420315
-0.382385
0.536303
-0.328487
-0.207882
-0.260042
0.471659
-0.211559
-0.247017
-0.111744
-0.571647
0.512147
0.0596354
-0.16168
0.535583
-0.373914
0.20275
0.32546
-0.528158
-0.185723
0.529774
0.307779
0.22846
0.403613
0.218262
0.212604
-0.182393
-0.48632
0.132984
0.148114
-0.297872
-0.279845
0.0827297
-0.405537
0.336623
0.0690786
-0.0911769
-0.314198
-0.617895
0.273641
0.344263
0.533069
-0.330253
-0.38176
0.0855085
0.22653
-0.473669
0.180692
0.00304626
-0.380601
0.377427
-0.572822
0.219789
0.605832
-0.29013
0.550028
-0.259576
-0.510483
-0.312249
-0.237299
-0.481839
0.247155
0.234687
-0.195511
-0.257819
0.453449
0.150504
0.44603
0.475246
-0.532733
0.0574006
-0.0496068
-0.396977
-0.0906137
-0.590682
0.228962
0.361718
0.548399
-0.326717
-0.624396
0.332515
0.291948
0.16156
0.322963
-0.282784
-0.418587
-0.230651
0.00869205
-0.216639
0.439318
-0.0405003
0.486782
0.372793
-0.534481
-0.256791
-0.30598
0.562797
-0.1857
0.167704
-0.301394
0.133697
-0.164353
-0.148843
0.313217
-0.181523
0.108603
0.369207
-0.477846
0.135204
0.102982
0.246246
-0.488567
0.237193
-0.551738
0.314682
0.28135
0.165654
-0.0101429
0.485292
-0.250438
0.467589
-0.217208
-0.0151515
0.272376
-0.257257
0.48477
-0.478155
-0.00664159
-0.211173
-0.187895
0.399079
-0.580888
0.327635
0.253299
-0.52921
0.291654
0.237544
-0.606427
0.257842
0.34858
-0.379166
0.609737
-0.230538
-0.512787
0.185205
0.327623
-0.40542
0.0464471
-0.465888
0.214395
0.251429
0.310279
-0.165032
-0.0526078
0.401499
-0.348833
0.434836
-0.107144
-0.248605
0.202677
0.253228
-0.109268
-0.0253388
0.48659
-0.461004
0.102729
0.119797
0.309483
-0.5663
0.122602
-0.252267
-0.206695
-0.566482
0.29005
0.436201
0.0727183
-0.32321
-0.30112
0.192029
-0.0309602
-0.592742
0.340223
0.252773
-0.179268
-0.189586
0.368758
-0.110011
0.550552
0.518733
-0.174673
-0.259311
0.294958
-0.120371
-0.174423
-0.61856
0.414317
0.204236
0.299677
0.226725
-0.532549
-0.540407
0.250388
-0.529215
0.112396
0.416794
0.250311
0.291873
-0.541936
0.447043
-0.222387
-0.306032
0.543322
0.236977
0.3545
-0.434501
-0.135802
-0.500049
0.18775
0.505585
-0.129131
-0.166524
-0.207658
0.255975
-0.431273
-0.455432
-0.634342
0.32438
0.309994
-0.52273
0.396321
-0.404638
-0.124601
0.223916
-0.474373
-0.211791
0.0811954
0.130642
-0.495247
0.326695
0.168572
0.269633
0.202085
0.302925
-0.135238
-0.555764
0.31116
0.651108
-0.295459
-0.35566
-0.21684
0.520976
-0.168326
-0.368927
0.184655
0.110466
0.254312
-0.0963465
-0.157932
-0.167816
-0.205047
0.37276
-0.54424
0.104575
0.439653
-0.466969
0.224263
0.242734
-0.170499
0.462543
-0.29198
0.263851
-0.37087
-0.207092
0.383484
-0.43186
-0.085058
-0.0130398
-0.520496
0.533955
-0.18952
0.417954
-0.309226
0.252218
0.202022
-0.454084
-0.12616
-0.117552
0.243778
0.170312
0.263894
0.363022
-0.314395
-0.588455
0.371126
0.21737
-0.0729004
0.234233
0.234447
0.333507
-0.540409
-0.301797
-0.273093
-0.352615
-0.502632
0.176692
0.108919
0.265806
-0.374676
0.244921
-0.512569
0.499311
-0.615778
0.247084
0.368715
-0.211986
-0.321004
0.533066
0.289395
0.361703
0.601643
-0.319361
0.594436
0.202051
0.530853
-0.426276
0.111277
0.419577
0.643415
-0.296475
-0.346955
0.220452
0.239691
-0.460089
0.13039
-0.399084
-0.278556
-0.239019
0.517582
0.174725
0.0785542
0.49469
-0.519793
0.318458
-0.390132
-0.430373
0.55871
-0.249306
-0.419809
0.113268
0.306481
-0.375798
-0.242768
0.324892
-0.377438
0.208966
-0.182481
-0.0264427
-0.199672
-0.330856
0.530546
0.578084
-0.229853
-0.612238
0.265093
0.347154
0.161704
0.208477
-0.370041
-0.216876
0.118842
-0.569503
0.269021
0.300509
0.223563
-0.572318
-0.081246
-0.149324
-0.354355
-0.257874
-0.639453
0.366361
-0.256421
0.124537
0.132019
-0.550841
0.299495
0.251434
-0.305095
0.167378
-0.55747
0.23037
0.357958
-0.588307
-0.130245
-0.405013
0.535244
0.291631
-0.340422
-0.597155
0.257989
0.339163
0.289557
-0.600251
0.327194
-0.611346
0.364212
0.247151
0.322023
0.25869
-0.332256
0.24141
-0.124872
-0.131421
0.242242
-0.520787
-0.166782
0.317092
-0.454386
0.414816
0.0395696
-0.220143
0.391006
-0.170821
0.379214
-0.376211
0.124392
0.171358
-0.295739
0.131467
0.122888
-0.24808
-0.281136
0.308929
-0.521909
-0.216909
-0.320495
0.0475068
-0.252869
0.235858
-0.0610896
-0.288818
0.532155
-0.243447
0.51742
-0.511647
0.224754
0.286897
0.520093
-0.522133
0.12589
-0.245142
0.119294
-0.313119
0.161297
0.151772
-0.165364
-0.0914711
0.524909
0.276892
-0.129854
-0.465423
0.46641
-0.00102454
-0.553154
0.307585
0.24575
-0.528929
0.240054
-0.255323
-0.360439
0.171058
0.245697
-0.593271
0.230348
0.301111
-0.530702
-0.15034
-0.0614081
-0.426772
0.243457
0.183311
0.146884
0.123603
-0.280916
0.486054
-0.20526
-0.118486
0.244394
0.183935
-0.395098
0.146933
0.16345
0.624115
-0.349006
-0.275115
-0.286766
-0.356908
0.281667
-0.350056
0.179419
0.226411
-0.405765
0.182698
-0.331547
-0.312321
-0.257153
-0.101086
0.556459
-0.333675
-0.18279
-0.364183
-0.136266
0.263938
0.203594
-0.351437
-0.351177
-0.236681
0.587818
0.397689
0.542877
0.265377
0.232412
0.238517
-0.135737
-0.320259
-0.234587
0.554947
0.401423
0.224947
-0.459749
0.331462
-0.614231
0.282759
0.225756
-0.416068
0.591903
-0.0443288
-0.164104
0.224232
0.444414
0.328422
-0.290211
-0.0381252
-0.366827
0.213017
0.153917
0.196905
-0.576021
-0.611644
0.332487
0.279154
0.186945
0.0489559
-0.0659126
0.415264
-0.349413
0.289023
-0.515947
0.178883
0.0301247
-0.374528
-0.1328
0.507296
0.286771
-0.51846
-0.218677
0.488255
-0.353994
-0.205694
0.442085
-0.186089
0.130081
-0.274085
0.14405
0.330905
-0.221944
0.266297
-0.474522
-0.240901
-0.364403
0.538736
-0.17439
0.218539
0.177013
-0.395483
-0.0647112
0.549267
-0.403591
0.220572
0.183015
0.504143
-0.177413
0.412676
0.341668
-0.608932
0.267543
-0.608823
0.19889
0.206412
0.404784
-0.595746
0.20131
-0.402186
0.200915
0.281817
-0.531251
0.249512
-0.219623
0.403042
-0.183506
0.529674
-0.221952
-0.368302
-0.490696
0.193489
0.311964
-0.244
-0.237839
-0.343601
-0.264061
-0.231555
0.495883
0.244205
0.316115
0.223464
-0.255716
0.405324
-0.304493
0.455911
0.0984151
0.122691
0.20582
0.255532
-0.466633
0.211082
-0.341339
-0.119156
0.266108
-0.23899
-0.269078
0.508104
0.261418
-0.200517
-0.0607995
0.41626
-0.189799
-0.272242
0.374119
0.0885877
-0.288969
-0.35521
-0.164697
0.519869
-0.450232
0.226833
0.223368
-0.441924
0.407366
0.507806
-0.230625
-0.277282
-0.217211
0.099944
0.142247
0.398743
-0.248714
-0.149986
-0.326304
-0.237823
0.564127
0.20031
-0.481394
-0.233991
0.535205
0.276704
0.231623
-0.217663
0.372908
-0.113249
-0.259543
-0.583926
0.257612
0.231631
0.187088
-0.245188
-0.308997
0.5542
-0.15808
0.37659
0.125978
-0.226403
0.398189
-0.17469
-0.0912795
-0.363112
-0.391922
-0.234718
-0.195476
0.447799
-0.157226
0.339908
0.264333
0.20495
0.611962
-0.258416
-0.353506
-0.249113
-0.299102
0.548346
-0.563245
0.247494
0.573967
-0.359908
-0.214035
-0.40029
0.212416
0.377224
-0.125578
-0.267173
-0.530443
0.155928
0.568068
-0.245377
0.127875
0.425221
-0.193593
0.506168
-0.240691
0.134768
0.103799
0.22209
0.190869
-0.00584225
-0.505831
0.441119
-0.197667
-0.25481
-0.256828
-0.218311
0.063642
0.154694
0.226504
-0.490388
0.281966
-0.638926
0.356977
-0.104295
0.239538
0.30967
-0.124897
-0.482739
-0.429396
0.258955
0.285457
-0.237871
0.286615
-0.474218
0.18758
0.384375
-0.183107
-0.321102
0.566477
-0.245333
-0.385468
0.138946
0.164603
-0.384683
0.267991
-0.180546
0.477346
-0.296737
0.396739
-0.200557
-0.196119
-0.553374
0.232323
-0.354188
-0.229515
0.583727
-0.637493
0.277648
0.359861
0.111821
0.635007
-0.355335
-0.279674
-0.640657
0.284162
0.356504
-0.062292
-0.155993
0.531761
0.213128
0.20151
-0.414541
-0.205015
0.285779
0.349226
-0.483102
0.266482
0.216649
0.328503
0.24195
-0.570466
0.221991
-0.23712
-0.249834
-0.278305
0.527604
0.244908
-0.257272
-0.107056
0.364234
-0.354869
0.415846
-0.197685
-0.218091
-0.545391
-0.276243
0.484425
-0.208097
-0.220543
0.382325
-0.161881
-0.311815
-0.378719
-0.499749
0.270416
0.229292
-0.201034
0.471532
-0.27025
-0.256469
-0.340687
0.0293074
0.555902
-0.585175
0.257592
-0.126017
0.290221
-0.417722
-0.35551
-0.244959
0.524323
-0.354746
-0.135114
0.259775
-0.550159
0.291775
0.258687
-0.198845
0.282337
0.276403
-0.558707
-0.236967
0.594453
-0.357506
-0.260569
0.521086
-0.260531
-0.322815
-0.2357
0.558625
0.133825
0.11347
-0.247282
-0.519068
0.225612
-0.5789
0.25624
-0.576926
0.21755
0.359358
-0.350299
-0.162453
0.495651
-0.0263764
-0.187544
-0.25084
0.438579
0.3035
-0.552324
0.290223
-0.529178
0.341457
-0.0944862
0.286735
-0.536512
0.490025
-0.507844
0.152595
0.0287575
0.536803
-0.565589
0.35445
0.278692
-0.506626
0.379947
-0.134774
-0.2452
0.520477
-0.292034
0.39355
-0.202216
-0.191212
-0.390022
-0.110071
0.269457
-0.505287
0.235869
-0.41937
0.397567
0.171676
0.089858
0.330489
0.207967
-0.538362
-0.361125
-0.21582
0.218604
-0.0316214
0.517285
-0.227701
0.222272
-0.024654
-0.197589
0.221547
-0.190787
-0.0307394
0.00580432
-0.517095
0.511894
0.265645
-0.631387
0.271344
0.360073
-0.110762
0.295627
0.295777
-0.128633
-0.29214
-0.228539
0.52101
-0.516759
0.111704
-0.623715
0.257558
0.366184
0.244163
-0.116394
-0.127761
0.295126
-0.113054
-0.632684
0.275491
0.357215
0.465604
-0.175411
0.239831
-0.40935
0.169538
-0.54495
0.357672
-0.102114
0.27106
0.142479
0.153144
-0.29566
0.220754
-0.159217
-0.0615181
0.201876
-0.0229415
-0.350076
0.580455
-0.159475
-0.0361619
-0.178495
0.214713
-0.608776
0.337347
-0.275677
0.143239
0.132438
-0.315449
-0.246317
0.561695
0.272787
-0.178785
0.487456
-0.594261
0.340792
0.253461
-0.316972
-0.219665
0.536732
0.142411
0.223884
-0.17899
0.209167
0.243708
-0.109895
-0.355015
-0.244964
0.526896
-0.0253404
-0.177268
0.202665
0.464204
-0.234034
0.524355
-0.251181
0.413874
-0.399082
0.221567
-0.142302
-0.238681
0.512963
-0.518378
0.507502
-0.510366
-0.18554
0.407639
0.523001
-0.147632
-0.375172
0.54674
-0.513244
-0.183797
-0.270054
0.453848
0.453977
-0.200166
-0.253689
0.246309
-0.545189
-0.0655836
0.22583
-0.16025
0.237207
-0.0254043
0.258648
0.374228
-0.161096
-0.511996
0.167384
-0.355869
-0.078079
0.207263
-0.129186
0.11475
0.198548
0.226763
0.601466
-0.383928
0.481822
-0.21574
-0.139385
0.223095
-0.0837098
0.508332
-0.134988
-0.373325
-0.156187
0.290012
-0.133788
0.201916
0.150003
-0.351889
0.212913
0.38854
0.413922
-0.479893
0.523683
-0.236852
-0.143537
-0.282006
0.14997
0.132045
-0.510311
0.271245
-0.226191
0.244372
-0.472809
0.228678
-0.495927
0.179499
0.32536
-0.575697
0.250329
-0.608307
0.357923
0.250397
0.437114
-0.19721
0.467619
-0.211953
-0.255575
0.216018
0.178101
-0.394225
0.140959
0.125222
0.255564
-0.49492
0.520635
0.103714
0.243177
0.138329
-0.262994
0.213995
0.181745
-0.395845
-0.143368
-0.0517473
-0.116526
0.490534
0.508583
-0.239067
0.139633
0.58433
0.238852
-0.586006
0.347126
0.00730641
-0.462681
0.349294
-0.586193
0.245857
0.285948
-0.231381
0.207298
0.174929
-0.576228
0.250946
0.32526
0.437417
0.151981
-0.248204
0.551926
-0.161678
0.459874
-0.298193
-0.0359927
-0.497795
0.534313
0.189286
0.157972
-0.277102
-0.259147
0.536505
-0.218046
0.48215
0.289185
0.196748
-0.125437
-0.100713
-0.335749
0.159764
-0.225342
0.180123
0.324058
0.220141
0.1886
-0.408793
0.169648
0.188174
-0.497414
-0.29245
0.152073
0.140378
0.180069
0.213615
0.0459821
0.13916
-0.172419
0.197248
-0.282072
0.160694
0.129356
0.184985
0.128253
-0.320464
-0.255788
-0.133267
0.19068
0.267888
0.00340359
-0.271146
0.519272
0.298893
-0.138198
0.551879
-0.152248
0.131275
-0.23362
0.102387
-0.225831
0.484366
-0.136662
0.234349
-0.118084
0.24937
-0.352345
0.196917
-0.446102
0.15926
0.204905
0.171662
0.161531
-0.352915
0.188606
0.164283
-0.16289
-0.0601091
0.223005
0.0302479
-0.409781
0.379565
-0.369245
0.199116
0.17019
0.414068
-0.135832
-0.278244
-0.562892
0.316622
0.0798855
-0.225714
-0.224552
0.508575
-0.581595
0.0728274
-0.322444
0.176296
0.146153
0.194119
0.16864
-0.362703
-0.301402
0.480722
-0.179373
0.272838
0.238254
-0.510873
0.337315
-0.13876
-0.443703
0.216485
0.227263
-0.308456
-0.30038
0.414037
-0.200883
-0.184696
0.40068
-0.501951
0.477316
-0.512718
-0.161484
0.36336
0.252073
-0.113758
0.157135
0.146943
-0.44483
0.184133
0.597463
-0.38456
0.167512
0.197519
0.239321
0.342124
-0.581192
-0.618033
0.362371
0.255685
0.385675
0.211778
0.557653
-0.486773
-0.0707059
0.337091
0.269393
0.215113
-0.0702122
0.311169
0.29682
-0.186108
-0.279883
-0.567716
-0.244518
-0.36681
0.118641
0.139063
-0.624244
0.262062
0.3622
0.187068
-0.344355
-0.279513
0.516819
-0.237191
-0.0094954
-0.190969
-0.302353
0.54311
-0.240606
-0.331062
0.582566
-0.251536
0.265078
-0.511842
0.246962
0.2375
-0.117658
0.615488
-0.361559
-0.253912
0.521632
-0.528512
0.00738707
0.358969
0.140359
0.177664
-0.318051
0.503475
-0.259608
-0.223466
-0.196657
-0.400484
0.35573
-0.289678
0.530097
-0.240587
0.223056
0.270703
-0.0316521
-0.238927
0.0308907
0.239923
0.237187
-0.149695
0.216847
-0.06715
-0.585736
0.347894
-0.238787
0.588132
0.343229
0.155256
0.180587
-0.33589
0.279477
-0.13827
-0.505174
0.273968
-0.265318
-0.358907
0.657952
-0.337693
-0.320192
-0.216186
-0.191272
0.411398
-0.150901
0.28773
-0.136779
0.56859
-0.243132
0.270091
-0.488716
0.359048
-0.152018
-0.206866
0.226311
0.188896
-0.415207
0.472203
-0.227667
0.182254
0.215962
-0.520205
0.369632
-0.587515
0.237079
0.581028
-0.514943
-0.0655075
-0.295961
0.140423
0.155482
-0.621187
0.355885
0.142871
0.155695
-0.298641
-0.044413
0.19477
-0.150301
-0.494782
0.307266
-0.490735
0.269248
0.224642
0.242364
0.190378
0.232231
-0.422493
0.164421
0.358735
0.252022
-0.130086
-0.101222
0.388973
-0.0486347
-0.219349
0.489361
-0.516388
-0.221072
-0.214326
0.362467
-0.148078
-0.339501
0.176955
0.162545
0.0454397
-0.216611
-0.280674
0.497049
0.207569
0.176761
-0.377603
-0.179961
-0.0895182
0.269546
0.420568
-0.246217
-0.17419
0.035779
0.428057
-0.239901
-0.188016
0.228127
0.184562
-0.347823
-0.252425
0.0319519
0.124994
0.177916
0.261991
-0.62244
0.360467
0.0303043
0.216355
-0.388818
0.223036
0.268777