/*--------------------------------*- C++ -*----------------------------------*\
| =========                 |                                                 |
| \\      /  F ield         | OpenFOAM: The Open Source CFD Toolbox           |
|  \\    /   O peration     | Version:  v2012                                 |
|   \\  /    A nd           | Website:  www.openfoam.com                      |
|    \\/     M anipulation  |                                                 |
\*---------------------------------------------------------------------------*/
FoamFile
{
    version     2.0;
    format      ascii;
    class       surfaceVectorField;
    location    "550";
    object      ddtCorrDdt0(Uf);
}
// * * * * * * * * * * * * * * * * * * * * * * * * * * * * * * * * * * * * * //

dimensions      [0 1 -2 0 0 0 0];


internalField   nonuniform List<vector> 
14907
(
(-0.000392062 -0.000116086 2.71762e-18)
(-0.000407061 -0.000130281 1.74643e-19)
(-0.000400901 -0.000146482 3.603e-18)
(-0.000194213 -0.000379244 1.76696e-18)
(-0.000199961 -0.000351812 -6.10253e-19)
(-0.000205296 -0.000345407 2.52662e-19)
(0.000750491 0.00129923 -2.64994e-19)
(0.000768293 0.00135816 -2.16291e-19)
(0.000832973 0.00127742 -1.11608e-19)
(0.000144695 7.88947e-06 1.9819e-19)
(0.000136296 8.33334e-06 6.73424e-19)
(-0.011415 0.00306578 -1.39277e-17)
(-0.0113505 0.00193715 -1.77694e-18)
(-0.0150414 0.00395335 -7.51603e-18)
(-0.000186084 -0.000388317 -1.71368e-18)
(-0.000173173 -0.000422535 4.12861e-18)
(-0.000177766 -0.000405511 1.85386e-18)
(-0.171624 0.0552326 1.87755e-17)
(-0.160449 0.046428 -6.68262e-18)
(-0.175161 0.0561801 -2.19016e-17)
(-0.0354524 0.0453193 -2.08419e-17)
(-0.0333531 0.0419445 -9.39798e-18)
(-0.0726515 0.0423217 8.47662e-18)
(0.000482254 0.000995533 -5.05447e-19)
(0.000432084 0.00104471 -3.18574e-19)
(0.000419543 0.000975095 -2.3983e-19)
(-0.000181078 -2.92787e-05 1.59772e-18)
(-0.000184872 -2.6096e-05 2.65832e-18)
(-0.000182993 -6.23999e-06 4.24474e-19)
(0.0230078 -4.36105e-05 -1.28808e-17)
(0.0237201 8.499e-05 2.6293e-17)
(0.0228306 -0.000385808 1.87009e-17)
(0.000167531 1.02609e-05 -2.57368e-19)
(0.000151091 5.16611e-06 -3.52024e-19)
(0.000148618 9.02839e-05 7.70608e-20)
(0.000139945 9.80069e-05 -1.2683e-18)
(0.000149108 9.96671e-05 4.59954e-21)
(0.000171435 2.70676e-05 8.02475e-19)
(0.000164754 2.97905e-05 7.90491e-20)
(0.000168595 3.65891e-05 8.74369e-20)
(-0.00212879 -0.00183628 -8.54158e-18)
(-0.00206365 -0.00177481 -5.94029e-18)
(-0.0020151 -0.0018892 -9.21418e-19)
(-0.000240502 -0.000202084 1.73686e-18)
(-0.000228082 -0.000239066 -5.41982e-19)
(-0.000234183 -0.000216559 1.16872e-18)
(-0.0002451 -0.000158335 -7.80474e-19)
(-0.000247724 -0.00017472 -3.90415e-18)
(-3.05803e-06 -3.06545e-05 5.97091e-19)
(-3.29485e-06 -3.21035e-05 5.73464e-19)
(-5.3093e-06 -4.4065e-05 5.97561e-19)
(-0.000378405 -0.000109037 -3.64714e-18)
(-0.000383026 -9.68401e-05 -7.3993e-19)
(-0.00336758 -0.00942134 -5.76518e-18)
(-0.00360855 -0.00935923 1.51047e-17)
(-0.00347255 -0.0092405 2.33301e-18)
(-0.000134555 9.99077e-05 1.14321e-19)
(-0.000142467 0.000103969 -1.48949e-18)
(-0.000133207 0.00010173 2.66539e-18)
(-0.00335323 0.0537984 -2.0018e-18)
(-0.00123989 0.0511978 -7.68192e-18)
(-0.00504868 0.0509282 1.16349e-17)
(0.000129019 1.84591e-05 5.2955e-20)
(0.000118607 2.23237e-05 1.13907e-19)
(0.000129144 2.93779e-05 2.50608e-19)
(4.38253e-05 0.000161092 9.78681e-20)
(5.4767e-05 0.00017238 -8.41657e-19)
(5.77589e-05 0.000161635 1.59563e-19)
(-0.000187708 -0.000402332 -9.80768e-19)
(-0.000185221 -0.000409786 1.64619e-18)
(0.00203759 0.00793422 -5.32799e-18)
(0.00236178 0.00822061 -2.92974e-18)
(0.00243106 0.00770583 -2.17364e-19)
(-6.08502e-05 -0.000650586 3.49055e-18)
(-5.14237e-05 -0.000651943 3.19644e-19)
(-5.76055e-05 -0.000641783 1.75629e-18)
(-0.00228779 -0.000220822 3.89134e-18)
(-0.00224136 -0.000323286 5.37832e-19)
(-0.00219129 -0.000227861 -1.29524e-18)
(-0.00033738 0.000891908 7.07903e-19)
(-0.000385909 0.000864202 2.60145e-19)
(-0.000343557 0.000832158 3.27769e-19)
(-0.00188533 7.073e-05 -8.64608e-19)
(-0.00191675 0.000183184 -4.34779e-19)
(-0.00199817 9.95382e-05 1.43522e-18)
(-0.000151364 -0.000365233 5.80208e-19)
(-0.00014924 -0.000343006 2.45846e-18)
(-0.000137279 -0.000380436 1.91208e-18)
(-0.000529034 -0.00124597 -5.23547e-17)
(-0.000436375 -0.000249575 3.83559e-17)
(0.000423812 -0.00104144 -7.11207e-17)
(-0.000177004 -2.91845e-05 -1.50732e-18)
(-0.000176679 -5.40782e-05 -1.27333e-19)
(-0.00148307 0.00118793 -1.92879e-19)
(-0.00159052 0.00123168 -2.27619e-19)
(-0.00153143 0.00109041 3.23346e-19)
(-0.00225737 0.00505363 3.43754e-18)
(-0.00200316 0.00516785 -1.47482e-18)
(-0.00203828 0.00490385 1.05745e-18)
(3.43103e-05 0.000149789 3.289e-19)
(3.05046e-05 0.000159096 -8.97186e-19)
(0.00149857 0.00732868 -3.36366e-18)
(0.00177144 0.00766827 8.60629e-20)
(0.0018778 0.00712554 1.02584e-19)
(0.00701601 0.00983521 3.70183e-18)
(0.00690369 0.00920188 1.53281e-18)
(0.0064126 0.00954079 5.77789e-18)
(2.43917e-05 0.000136869 1.37795e-19)
(3.6649e-05 0.000139706 4.62967e-19)
(-0.0052912 -0.000139275 1.55676e-19)
(-0.00550523 -0.000105069 -6.82818e-19)
(-0.00538034 -0.000349054 -3.04239e-18)
(-0.00338191 -0.00962076 -1.7571e-17)
(-0.00323399 -0.00942583 -3.25426e-17)
(-0.00203224 -0.0014983 5.94896e-19)
(-0.00210426 -0.00154599 6.55108e-18)
(-0.0021247 -0.00144301 8.52369e-19)
(-0.180165 0.0624725 1.68804e-17)
(-0.165072 0.053859 1.45247e-18)
(-0.00126655 -0.000661859 -1.44827e-18)
(-0.00125344 -0.000636279 6.23667e-19)
(-0.00125253 -0.00067152 -1.5307e-18)
(-0.0114492 0.00419898 3.78363e-18)
(-0.00778898 0.00203582 1.28468e-17)
(0.00640732 0.0216281 -3.96663e-18)
(0.00747646 0.0212149 -3.7573e-18)
(0.00670542 0.0202963 -5.05083e-18)
(-0.00140646 -0.00128623 -5.71782e-19)
(-0.00145839 -0.00126775 -7.06712e-19)
(-0.00143115 -0.00134744 -1.22233e-18)
(0.0211212 0.0343404 -2.432e-18)
(0.0210306 0.0319576 1.9188e-18)
(0.023299 0.0329334 1.22688e-17)
(0.00012608 0.00632721 -5.15777e-18)
(-0.000183924 0.00654369 2.01644e-18)
(0.000201355 0.00660668 -7.98651e-19)
(0.0218665 0.00987886 5.46938e-18)
(0.0224494 0.00824963 -7.73963e-18)
(0.0207296 0.00850605 -2.18706e-17)
(-3.51319e-05 -3.92348e-05 2.57254e-20)
(-3.99924e-05 -4.57779e-05 4.71792e-19)
(-4.29449e-05 -3.9898e-05 8.66676e-19)
(0.00205914 -0.00135907 1.38517e-18)
(0.00223434 -0.00137506 1.28249e-18)
(-0.00160861 -0.00188668 1.09204e-18)
(-0.00162805 -0.00194289 2.172e-18)
(-0.00152997 -0.00193641 2.32538e-18)
(0.00350119 -0.000892374 -1.45905e-18)
(0.00343757 -0.000641496 5.47813e-19)
(0.00372818 -0.000763993 -3.32519e-18)
(0.00116929 0.00757888 -1.51379e-18)
(0.00126591 0.00706814 2.51195e-18)
(-0.000205179 -0.000354041 -7.21383e-18)
(-0.000194598 -0.000366212 -7.69567e-18)
(-0.000294142 0.000927708 -3.66753e-20)
(-0.000341947 0.000968488 8.08082e-20)
(-0.00134896 -0.00131746 4.38541e-18)
(-0.00138055 -0.00125168 -1.36908e-18)
(-0.00143485 0.00128955 -1.89253e-19)
(-0.00138355 0.00115814 7.43103e-19)
(-0.0015775 -0.00181165 4.34351e-18)
(-0.0016838 -0.0018265 3.66944e-19)
(-0.000166359 -0.000395965 1.54345e-18)
(-0.000155972 -0.000439566 -3.22575e-19)
(-0.000162187 -0.000404298 -2.10297e-18)
(-0.000230083 -0.00019245 -6.48145e-19)
(-0.000233135 -0.000189647 2.25836e-18)
(-0.000223076 -0.00022388 -1.6926e-18)
(-0.00249926 0.00496777 7.48525e-19)
(-0.00248738 0.00523643 8.56901e-19)
(0.000724512 0.00122522 -4.81017e-19)
(0.00066208 0.00131141 -4.28915e-19)
(-0.000656604 -0.00180185 -8.13747e-18)
(-0.000674296 -0.00185687 2.05011e-18)
(-0.000721588 -0.00179171 -4.56191e-18)
(-0.00139571 0.00137347 2.95379e-19)
(-0.00130102 0.00135198 -2.40206e-19)
(-0.00131999 0.0014778 7.58505e-19)
(-0.000486843 -0.00150537 -2.82117e-18)
(-0.000530083 -0.00152365 4.7732e-18)
(-0.000493931 -0.00145176 -2.95572e-18)
(-0.00338025 -0.00836814 -7.34503e-18)
(-0.00313987 -0.00813703 -5.23778e-18)
(-0.00349975 -0.00800185 1.37987e-17)
(0.0263631 -0.00387982 -4.52706e-18)
(0.0217526 -0.00347829 -6.18716e-18)
(0.0232555 -0.00232154 1.72718e-18)
(-0.000933176 -0.000267498 1.40273e-19)
(-0.000975394 -0.000265897 2.48428e-19)
(-0.000958726 -0.00030897 -1.11226e-18)
(0.00365394 -0.00117697 1.57551e-18)
(0.00331592 -0.00110167 -6.68292e-19)
(-0.00352713 -0.00996038 -3.76812e-17)
(-0.00127976 -0.000719198 -1.80304e-18)
(-0.0012209 -0.000681764 -2.41915e-18)
(-0.00212022 -0.00469746 -4.70514e-18)
(-0.00198024 -0.00458634 -2.34186e-18)
(-0.00190127 -0.00480412 1.00215e-17)
(-0.000336279 -0.00146821 -3.86558e-18)
(-0.00038428 -0.00144257 -1.04434e-18)
(-0.000334649 -0.00141492 -4.97305e-18)
(6.63207e-05 0.000182942 -3.8433e-19)
(5.083e-05 0.000182312 -1.68322e-19)
(-0.00900305 0.000816047 3.92091e-18)
(-0.0122806 0.00148663 -1.66068e-17)
(-0.000366521 -0.000102314 -4.4394e-18)
(-0.000353342 -9.66037e-05 -4.20368e-19)
(-0.000356181 -8.23029e-05 -2.95305e-18)
(-0.00295102 -0.00382286 -4.98319e-18)
(-0.00276972 -0.00382259 -6.60101e-18)
(-0.00291025 -0.00367468 -9.23039e-18)
(-0.153789 0.0397057 4.08658e-18)
(-0.148956 0.0384448 2.61853e-17)
(-0.138547 0.0312279 2.12642e-17)
(1.2713e-06 0.00606933 -6.55974e-18)
(0.000345475 0.00616253 4.0071e-18)
(-0.0113484 0.00529597 2.82757e-17)
(-0.0149953 0.0068186 2.70926e-17)
(-0.00130631 0.000173374 1.32925e-18)
(-0.00125138 0.000198573 1.80053e-18)
(-0.00131359 0.00025197 1.0049e-18)
(-0.00187972 -0.00143671 -2.52584e-18)
(-0.0018072 -0.00149211 6.57955e-18)
(-0.00181158 -0.00140484 -2.22676e-18)
(-0.000440485 -0.0014646 -1.33703e-19)
(-0.000447814 -0.00153383 -7.76563e-19)
(-3.28582e-05 -0.000215959 1.48039e-19)
(-3.37082e-05 -0.000226248 -1.48124e-19)
(-2.36411e-05 -0.000188643 1.94709e-18)
(-0.00044945 -0.000161484 -1.58587e-18)
(-0.000434554 -0.000159953 1.73238e-18)
(-0.000460108 -0.00019054 2.06526e-18)
(-0.0185964 -0.00262692 -1.85533e-17)
(-0.0178202 -0.002493 1.41793e-17)
(-0.0184128 -0.00191609 3.5997e-18)
(-0.000791662 -0.000933388 -1.60375e-18)
(-0.000819953 -0.000926783 -9.4942e-18)
(-0.000812517 -0.00097327 3.19309e-20)
(-0.000469926 -0.000171862 -5.68815e-19)
(-0.000446238 -0.00013439 -3.32356e-18)
(-0.000577643 0.00193534 -6.27911e-21)
(-0.000488261 0.00196761 -9.5487e-20)
(-0.000523981 0.00186757 -3.31653e-19)
(-0.0119179 0.0060989 8.288e-17)
(-0.00832974 0.00418457 -4.11669e-17)
(-0.00232705 -0.000137763 -2.44179e-18)
(-0.00238572 -0.000229419 2.83796e-18)
(0.00200822 -0.001166 -1.2081e-20)
(-0.00186379 -3.45244e-05 -2.91189e-18)
(-0.0018048 3.61123e-05 -3.16958e-19)
(-0.000800525 0.000650666 -3.3884e-19)
(-0.000827871 0.000593155 6.66079e-19)
(-0.000847085 0.000674023 1.19374e-18)
(-0.000321291 2.21946e-05 1.55201e-18)
(-0.000318777 1.86827e-05 2.46017e-18)
(-0.000317324 2.29739e-05 3.73367e-18)
(-0.000916023 0.000246269 -3.39858e-19)
(-0.000877382 0.00026142 -2.56484e-18)
(-0.000889229 0.00020842 4.32948e-20)
(-0.00505108 -0.000175889 -3.11686e-18)
(-0.00518254 8.37467e-05 -7.1848e-19)
(-6.89953e-05 0.00110325 -1.24445e-19)
(-5.66565e-05 0.00117179 -1.30915e-20)
(-1.61742e-05 0.00111297 -1.43529e-20)
(-1.19893e-08 -7.72376e-06 -2.57083e-19)
(-2.46888e-08 -7.70978e-06 -5.52439e-18)
(-0.0177021 0.00337626 -5.65056e-18)
(-0.0175203 0.00270608 1.36325e-19)
(-0.0183246 0.00304302 -8.13204e-18)
(-0.071694 0.0498423 -1.44107e-17)
(-0.0975772 0.0534047 -2.14087e-17)
(-0.055775 0.0541779 -3.9414e-17)
(-4.0696e-05 -0.000239361 3.88116e-19)
(-3.27127e-05 -0.000209159 1.20604e-18)
(-0.00207918 -0.000597447 1.44119e-18)
(-0.00202528 -0.000683927 -2.73327e-18)
(-0.00199157 -0.000600112 1.81577e-18)
(-0.00985363 -0.00146924 -1.47751e-18)
(-0.0102397 -0.00123262 1.25168e-18)
(-0.0102017 -0.00182635 -1.09017e-18)
(-0.000371206 -0.000224924 3.19181e-18)
(-0.000381805 -0.000261773 6.25169e-19)
(-0.000387739 -0.000233449 -6.90789e-18)
(-0.000325573 3.28025e-05 -4.47742e-18)
(-0.000331378 2.27373e-05 -4.79733e-18)
(-0.000136177 9.68291e-05 6.9101e-19)
(-0.000129251 9.54442e-05 -5.63943e-19)
(0.000287639 -0.000157324 6.66091e-20)
(0.000274334 -0.000145603 -1.22095e-20)
(-1.54744e-05 1.80044e-05 -9.63634e-19)
(-1.59551e-05 1.58614e-05 1.91763e-19)
(-1.91763e-05 1.80255e-05 -2.30618e-18)
(-0.000666295 -0.000132014 2.0741e-19)
(-0.000671563 -0.000108792 2.30617e-19)
(-0.000697292 -0.000137881 2.73327e-18)
(-0.00381138 0.00252715 -1.0869e-19)
(-0.00386151 0.00231499 2.25617e-19)
(-0.00365475 0.00235017 7.22719e-19)
(0.0292501 -0.00587954 1.42962e-17)
(0.0302164 -0.00197523 -8.87405e-18)
(-0.000629874 -0.00175269 -5.84592e-19)
(-0.000596837 -0.00181676 4.61809e-18)
(-0.000627271 -0.000191509 3.01501e-20)
(-0.000653997 -0.000201333 -1.28276e-18)
(-0.00064883 -0.000218445 -2.12648e-18)
(-0.000159753 -0.000287835 -5.05456e-19)
(-0.00016972 -0.000263657 -1.65528e-18)
(-0.000181471 -0.000286543 -1.3684e-18)
(-0.000376193 -0.000125078 -2.53438e-18)
(-0.000767797 0.000723526 -2.11288e-18)
(-0.000754395 0.000637107 -2.0608e-19)
(0.00699044 -0.00542739 -6.66198e-18)
(0.00613307 -0.00555672 -2.09941e-18)
(0.00747157 -0.0062446 -5.1118e-17)
(-0.000757327 -0.000937687 -1.01453e-18)
(-0.000760592 -0.000885771 2.07578e-18)
(-0.0526687 0.047895 1.69643e-17)
(-0.0215401 0.0492895 -1.94451e-17)
(-0.00136073 -0.000456836 -4.58009e-18)
(-0.00138775 -0.000400562 -1.14875e-17)
(-0.00133025 -0.000406895 -5.55812e-18)
(-8.84497e-05 -0.000242922 -1.81335e-18)
(-0.000102112 -0.000239051 -3.1228e-18)
(-9.13477e-05 -0.000253036 9.75596e-19)
(-0.0178311 0.00421818 -8.23748e-18)
(-0.0170218 0.00384405 -3.28265e-18)
(-0.00130486 0.000103597 -5.69874e-19)
(-0.00137641 0.000161847 5.46025e-19)
(-0.0368674 0.0397772 7.25211e-18)
(-0.0190582 0.0408867 4.47515e-18)
(-0.00197599 0.00635219 -2.942e-19)
(-0.00177115 0.00651071 1.1675e-18)
(-0.00205079 0.00667217 2.96594e-18)
(-0.00952154 -0.0013416 8.40313e-19)
(-0.00952948 -0.00176839 1.11493e-19)
(-0.000472618 -0.000184125 5.85104e-18)
(-0.000497774 -0.000190089 6.28018e-18)
(-0.000463905 -0.000145596 2.36469e-18)
(-0.00294329 -0.00401235 -1.59304e-17)
(-0.00312796 -0.00385441 5.21934e-18)
(-0.000764597 -0.00121848 -7.85826e-18)
(-0.000812043 -0.00122918 2.60204e-19)
(-0.000775924 -0.00128123 1.46374e-18)
(0.015712 -0.00360916 -2.08247e-17)
(0.0171589 -0.00302793 -3.48905e-17)
(0.0166812 -0.00317746 -1.31664e-17)
(-0.0177335 0.0299193 -2.81714e-17)
(-0.0166597 0.0304639 -5.19546e-18)
(-0.0176065 0.0315828 -1.86823e-17)
(-0.000135839 0.00110208 8.1062e-20)
(-9.48219e-05 0.00103814 -5.65849e-20)
(-0.0123266 0.00214887 -1.00529e-17)
(-0.0118578 0.0024538 -1.0451e-18)
(-0.0123991 0.00268111 -1.09725e-18)
(0.00443824 -0.00368984 -4.29571e-18)
(0.00474374 -0.00298788 -8.64989e-18)
(0.0038556 -0.00300929 4.26432e-17)
(-0.000651791 0.00202865 6.12745e-19)
(-0.000666174 0.00189968 2.07442e-19)
(0.0211237 0.0365899 5.47823e-18)
(0.0187537 0.0351594 1.23421e-17)
(-0.0192928 -0.00283954 -1.95349e-17)
(-0.018671 -0.0034315 3.17158e-18)
(-0.00207153 -0.0008793 2.7823e-18)
(-0.00202848 -0.000932789 4.43638e-18)
(-0.00209253 -0.000942915 -7.97894e-18)
(-0.000152962 -0.000298495 -1.62682e-18)
(-0.000164518 -0.000318949 1.34884e-18)
(-0.00178437 -0.000984515 -3.79879e-19)
(-0.00186808 -0.000895645 -2.59502e-18)
(-0.00175852 -0.000881065 -2.92797e-18)
(-0.0210625 0.00850897 -1.99628e-17)
(-0.0210242 0.00759891 -1.68549e-17)
(-0.0202887 0.00827591 6.6136e-19)
(0.0014967 -0.000615716 4.11745e-19)
(0.00144286 -0.000740547 9.86702e-20)
(0.00138484 -0.000617568 -2.54033e-19)
(-0.00066684 -0.000148329 6.65911e-19)
(-0.000641017 -0.000125505 4.74094e-19)
(-0.0122438 0.00591325 2.94501e-18)
(-0.0117335 0.00576357 1.4051e-17)
(-0.0122158 0.00530347 4.30887e-18)
(0.000488379 -0.000255157 6.7459e-19)
(0.000475432 -0.000217538 1.15432e-19)
(0.000515475 -0.000212855 6.59174e-19)
(-0.000943309 0.000287074 1.10457e-18)
(-0.000952951 0.000228142 8.51274e-19)
(-0.00392093 0.000749414 2.1787e-18)
(-0.00388125 0.000585544 1.42917e-18)
(-0.0037679 0.000732537 1.26591e-18)
(0.000599012 0.00101963 2.41121e-19)
(0.000636474 0.000957322 -1.92043e-19)
(0.000661208 0.00101845 2.04199e-19)
(-2.33701e-06 -1.11892e-05 5.36785e-18)
(-3.46268e-06 -1.59209e-05 6.26918e-20)
(-1.70927e-06 -1.05918e-05 2.30559e-18)
(-0.0944235 0.000834246 5.24676e-18)
(-0.0957286 0.00222377 -2.9341e-17)
(-0.0856192 -0.00562094 5.53853e-18)
(0.0095663 -0.00666609 2.41225e-17)
(0.00959137 -0.00575351 -2.21368e-18)
(0.00868515 -0.00637683 -6.1665e-18)
(-4.0358e-05 -0.000514944 -4.3341e-18)
(-3.22282e-05 -0.000485973 -2.7067e-18)
(-3.28233e-05 -0.000476751 -2.33014e-18)
(0.000143207 8.22049e-05 1.66454e-19)
(0.000155883 7.66434e-05 1.5393e-19)
(-0.000454846 -0.00228785 3.95982e-18)
(-0.000475131 -0.0022201 3.64204e-18)
(-0.000395499 -0.0022447 -1.0101e-18)
(-0.000224471 -0.000193064 -3.34521e-18)
(-0.000232737 -0.000172663 -2.26233e-18)
(-0.0122107 0.00159938 -5.62793e-19)
(-0.0127529 0.00186071 2.06057e-19)
(0.00684401 0.00728257 -1.21334e-17)
(-0.0003231 0.00394546 -3.29926e-17)
(0.000578065 0.00585478 -2.6639e-17)
(0.0242123 0.00210123 1.92127e-17)
(0.0232127 0.00224112 -2.1369e-17)
(0.0241963 0.00285404 3.30769e-17)
(-0.0147087 0.0238526 -1.53794e-17)
(-0.0137407 0.0243574 -1.38532e-17)
(-0.0147233 0.0251819 4.07397e-18)
(-0.000172585 -0.000238613 -3.24538e-19)
(-0.000180862 -0.000239188 1.34776e-18)
(-0.000185715 -0.000216075 2.37065e-18)
(0.0005446 0.00101788 3.31366e-19)
(0.000556854 0.00107859 2.77251e-19)
(-0.00134432 0.000506978 1.65271e-18)
(-0.00138427 0.0004713 2.43997e-20)
(-0.0013929 0.000543128 6.42549e-19)
(-0.000716008 -0.0012134 2.91387e-18)
(-0.000751921 -0.00116552 -1.58473e-18)
(-0.00788777 -0.00534155 -2.26713e-18)
(-0.00797712 -0.00573324 -8.04646e-19)
(-0.00826163 -0.00537206 1.58278e-18)
(0.0264106 0.010262 2.90885e-18)
(0.0246904 0.00917715 9.24232e-18)
(0.00227866 -0.00140085 4.02578e-17)
(0.00289376 -0.000721406 -1.68698e-17)
(0.0101758 -0.00662639 -3.04579e-17)
(0.0104277 -0.0069924 3.69202e-17)
(0.00302995 -0.000124984 -4.89424e-19)
(0.00282221 -0.000289211 1.93673e-18)
(0.00277708 -6.54937e-06 -1.44412e-18)
(-0.000285362 3.50919e-05 -1.57217e-18)
(-0.000294629 2.31453e-05 2.34619e-18)
(-0.00028239 2.95746e-05 -7.42197e-19)
(-0.0153483 0.00752247 7.03619e-17)
(-0.0103143 0.00690086 2.3625e-18)
(-0.00440206 -0.00991337 -2.27533e-17)
(-0.00363862 -0.00992821 -5.16941e-17)
(-0.00397236 -0.0105137 3.6322e-17)
(-0.00491493 -0.00443885 1.47452e-17)
(-0.00506801 -0.00424209 4.96262e-18)
(-0.00479658 -0.0042149 3.90067e-18)
(-0.203493 0.12006 -2.01136e-17)
(-0.206799 0.113644 -1.35458e-17)
(-0.194215 0.106449 1.01949e-17)
(0.0370645 -0.0549535 4.66382e-18)
(0.0442394 -0.0381153 -1.91123e-17)
(0.0371839 -0.0429697 1.52776e-18)
(-0.00133519 -0.000512459 2.06214e-18)
(-0.00127333 -0.000573994 -4.26034e-19)
(-0.00124681 -0.000493195 -3.06682e-18)
(-0.00357395 -0.00849174 1.58862e-18)
(-0.00331985 -0.0085739 -2.69047e-17)
(-0.00614398 0.00352576 -1.45914e-18)
(-0.0058416 0.00363678 1.23773e-18)
(-0.00594873 0.00328902 4.48819e-19)
(-0.000427529 -0.00235382 1.0751e-18)
(-0.000514668 -0.0023308 -1.65566e-18)
(-0.000706643 -0.00141276 1.86976e-17)
(0.000907857 -0.00327672 1.38279e-17)
(-0.000571001 -0.00156569 2.92769e-19)
(-0.000608694 -0.00151524 -5.5062e-18)
(-0.000632621 -0.00158894 -3.75606e-18)
(-0.00196339 0.00606654 3.56513e-18)
(-0.0022706 0.00620622 -1.33541e-18)
(-0.00195206 -0.00146451 -6.28597e-18)
(-0.00194008 -0.00157094 -7.4555e-18)
(0.00584901 -0.00475915 3.9338e-17)
(0.00988346 -0.00516361 1.30684e-17)
(-0.0221282 0.02427 -9.53437e-18)
(-0.0215914 0.0252477 9.09489e-18)
(-0.0211039 0.0241579 -4.43435e-17)
(-0.00114526 0.00119381 -5.84661e-19)
(-0.0011107 0.00114129 5.71591e-20)
(-0.00118423 0.00110546 1.71815e-19)
(0.0232203 0.0066764 -2.54968e-17)
(0.0248297 0.00578232 -3.91435e-17)
(0.0258339 0.00652166 -5.96508e-18)
(-0.000854323 0.00392322 -2.5196e-18)
(-0.000724397 0.00377124 1.5215e-18)
(-0.000644329 0.00394193 -8.50366e-19)
(-0.00494896 -0.0153346 5.66054e-18)
(-0.00541892 -0.0150845 -1.41959e-18)
(-0.0047926 -0.0149462 -1.38015e-18)
(-0.00174529 -0.00104726 -6.59106e-18)
(-0.00181403 -0.00104397 2.95376e-18)
(-0.0928885 -0.000293214 1.12055e-18)
(-0.10088 0.00591994 -2.86758e-17)
(-0.0202793 0.00870916 1.3082e-17)
(-0.0214845 0.00840385 2.47588e-17)
(-0.00591663 0.0282041 1.12244e-17)
(-0.00557755 0.0271494 -2.02409e-17)
(-0.00673333 0.0274034 -4.1971e-17)
(-0.033523 0.0110868 2.24538e-17)
(-0.0324204 0.0107975 -3.94161e-18)
(-0.0316726 0.0104995 5.0991e-17)
(0.00101896 0.00548087 -4.14244e-18)
(0.00111553 0.00519542 -3.66862e-20)
(0.0013519 0.0054027 -4.12555e-18)
(-0.000337774 -0.000158572 1.26471e-18)
(-0.000351811 -0.00016785 -1.20501e-18)
(-0.000343392 -0.000142902 -4.19454e-18)
(0.000142333 7.29493e-05 -1.21722e-19)
(0.000132824 8.04734e-05 1.38227e-19)
(-0.00244497 0.00185376 -2.10047e-19)
(-0.00246596 0.00203577 -3.00053e-19)
(-0.00258371 0.001879 2.28785e-19)
(-0.00404317 -0.00477927 3.53465e-18)
(-0.00425201 -0.00460709 3.86727e-18)
(-0.00399656 -0.00452875 2.31416e-17)
(-0.00113451 0.00127558 6.19719e-20)
(-0.00120912 0.00122776 -4.1209e-19)
(-0.000661624 -7.71504e-05 -7.13096e-19)
(-0.000658366 -5.54114e-05 -8.15233e-20)
(-0.000632035 -6.70306e-05 -1.26728e-19)
(-0.00472608 -0.0099632 2.56678e-17)
(-0.00445485 -0.0102713 4.06286e-17)
(-0.00054068 -0.00160608 7.60505e-18)
(-4.31982e-05 0.000456014 -8.77697e-21)
(-1.85653e-05 0.000486278 -7.39791e-20)
(-4.84409e-05 0.000489055 -3.84506e-19)
(-0.00397 -0.0167714 5.20256e-18)
(-0.00694572 -0.0167639 1.11502e-17)
(-6.73059e-05 -0.000585745 2.55905e-18)
(-5.56222e-05 -0.00059374 -5.13372e-18)
(-5.35739e-05 -0.000563464 -1.95493e-18)
(-3.0759e-06 -3.74804e-05 -1.01807e-18)
(-3.17543e-06 -3.93792e-05 2.5035e-18)
(-5.51746e-06 -5.39412e-05 -1.27623e-18)
(-4.8241e-06 -0.000187931 1.98251e-19)
(-9.21796e-06 -0.000199994 -8.72546e-19)
(-1.17281e-05 -0.000235559 -6.44874e-19)
(-0.0344852 0.00964489 1.22164e-17)
(-0.0342744 0.0116912 3.60886e-17)
(0.000166476 1.24982e-05 1.90338e-19)
(0.000169794 9.62057e-06 2.7935e-19)
(0.000178778 7.31914e-06 5.22984e-19)
(-0.0074828 -0.00536138 3.22537e-18)
(-0.00770495 -0.00499591 -2.61306e-19)
(-0.0125285 -0.010706 2.45447e-20)
(-0.0118118 -0.0108634 8.71687e-18)
(-0.0123682 -0.0115067 1.7862e-17)
(-0.000493746 -0.00215563 2.42641e-18)
(-0.00055688 -0.00218806 -2.18855e-18)
(-0.0233192 0.0246584 -1.92159e-17)
(-0.0226853 0.0235353 -1.03156e-17)
(-0.000292052 -0.00123491 -2.32372e-18)
(-0.000327639 -0.00127135 -7.1823e-19)
(-0.000323128 -0.00120529 -3.36902e-18)
(-0.000251277 -4.09778e-05 -1.50393e-18)
(-0.000255298 -4.45423e-05 4.87361e-19)
(-0.000257883 -1.9324e-05 -1.7256e-18)
(-0.0128357 0.00825402 9.04917e-18)
(-0.0127114 0.00892488 8.26567e-18)
(-0.0134743 0.00865774 -1.72929e-19)
(-0.000307011 8.49508e-05 2.02438e-19)
(-0.000292594 8.00217e-05 -1.34027e-18)
(-0.000309201 6.75778e-05 1.38059e-19)
(-0.00376149 0.00273619 -1.92152e-19)
(-0.00398853 0.00269881 -7.34152e-19)
(-0.00079345 -0.00227825 -7.41369e-18)
(-0.000708998 -0.00226605 1.64871e-19)
(-0.000784619 -0.00220735 -6.81845e-18)
(-0.0166648 -0.00987436 -2.19855e-19)
(-0.0160227 -0.00951835 -6.24416e-18)
(-0.0166011 -0.0091527 7.94315e-18)
(0.00699957 0.0104554 3.89609e-18)
(0.00755061 0.0100287 -3.92891e-18)
(-0.00249734 -0.00232432 -5.33293e-18)
(-0.00260862 -0.00230573 -7.65921e-18)
(-0.00252143 -0.00244764 -7.05662e-18)
(0.0026933 0.008455 -5.30809e-20)
(0.00308318 0.00871857 -6.44075e-19)
(0.00312815 0.0082237 -2.03048e-18)
(-0.0227453 0.0362488 -4.65573e-17)
(-0.0230566 0.0353341 -1.70243e-19)
(-0.0215535 0.0347782 -1.72099e-17)
(-0.000662275 -0.000166064 2.39901e-19)
(-0.000659392 -0.00018745 -2.2789e-18)
(-0.000635101 -0.000160887 8.57803e-19)
(-0.0187737 0.0217682 3.09528e-19)
(-0.0198106 0.0216649 -3.6857e-18)
(-0.019053 0.0207593 -6.44932e-18)
(0.00377014 -0.00142247 7.17061e-18)
(0.00400292 -0.00125921 -3.66975e-19)
(0.000520553 0.000950955 -7.71781e-20)
(-0.00618368 -0.00975631 -2.07262e-17)
(-0.00646191 -0.00954775 -2.28027e-18)
(-0.00655495 -0.00992814 -6.21214e-19)
(-0.000276906 4.64363e-05 -2.23301e-18)
(-0.000288904 4.10661e-05 4.81517e-19)
(0.00389717 -0.00169532 1.62607e-18)
(0.00356725 -0.00162122 3.44924e-18)
(0.000828907 0.00138835 -1.19425e-18)
(0.000753116 0.00141307 2.45637e-20)
(-0.00394051 0.000909058 2.32713e-20)
(-0.00410921 0.000781573 -2.7618e-18)
(-0.000154442 0.000405268 1.51046e-19)
(-0.000173684 0.00042033 -2.07671e-19)
(-0.000147549 0.000441645 2.54852e-19)
(0.000171625 1.31278e-05 -4.36659e-19)
(0.000172949 9.59678e-06 1.28267e-19)
(0.000173953 1.22549e-05 -6.96428e-20)
(0.00125644 0.00318695 3.31081e-18)
(0.00139568 0.00327821 -1.21774e-18)
(0.00118676 0.00336705 2.6221e-18)
(0.00790665 -0.00144655 -5.73875e-18)
(0.00759167 -0.00104868 -2.78618e-18)
(0.00817338 -0.00101517 1.91617e-19)
(-0.000162939 -0.000239011 -1.28319e-18)
(-0.000159717 -0.000263129 -2.21703e-18)
(-0.00139663 -0.000506721 6.65992e-18)
(-0.00125847 0.000508629 -9.19762e-19)
(-0.00129492 0.000416014 3.30053e-18)
(-0.00392195 0.00212982 -2.92783e-19)
(-0.00411274 0.00229713 -4.69922e-19)
(-0.000599999 -0.000181561 5.55392e-18)
(-0.000602792 -0.000168843 1.42604e-18)
(-0.000151734 -0.000389469 -1.7717e-19)
(-0.000161985 -0.000352253 -1.46491e-18)
(5.93003e-05 3.91179e-05 -2.38413e-19)
(5.52277e-05 2.93693e-05 -1.57678e-19)
(4.83132e-05 3.77787e-05 -9.26991e-20)
(-0.00217246 -0.000607784 -1.0123e-18)
(-0.00213698 -0.000515547 1.53482e-18)
(0.0032894 -0.000507506 2.41233e-18)
(0.00307005 -0.000310826 -5.61351e-19)
(0.00308622 -0.000671677 -2.17015e-19)
(-1.20209e-06 -1.83067e-05 2.18286e-18)
(-3.35035e-06 -2.91616e-05 -1.17874e-19)
(0.000140114 5.40598e-05 -1.14378e-19)
(0.000138382 4.52255e-05 -5.14014e-19)
(0.000147878 4.68565e-05 -5.45872e-19)
(-0.000888375 -0.000272625 -1.61734e-18)
(-0.000901103 -0.000233778 -8.12168e-19)
(-0.0032004 -0.00029581 -1.63298e-18)
(-0.00327524 -0.000398124 -8.24984e-18)
(-0.00332345 -0.000249933 -2.22621e-18)
(-0.0169915 -0.0102907 -1.73904e-18)
(-0.0172531 -0.00998146 1.33753e-18)
(-0.0145731 0.0228158 -1.65731e-17)
(-0.0155109 0.023498 1.27021e-17)
(0.0213985 0.00662732 -1.701e-17)
(0.021503 0.00601955 -5.40932e-20)
(-0.00506598 -0.0046737 1.78755e-17)
(-0.00478115 -0.00464996 -4.26475e-18)
(-0.00525856 -0.00406869 -3.25608e-19)
(-0.00543367 -0.00370091 7.59333e-18)
(-0.0049532 -0.00380391 7.85467e-18)
(-0.00217803 -0.00191759 -2.47178e-18)
(-0.00221827 -0.00180012 3.56111e-18)
(0.00584533 0.0227252 -4.35728e-18)
(0.00630287 0.0240878 -9.0393e-18)
(0.00489822 0.0238101 1.39579e-17)
(-0.198569 0.0900453 4.65095e-17)
(-0.201719 0.0978163 2.80754e-17)
(-0.196018 0.0897805 6.11126e-17)
(0.00109671 0.00307328 1.93442e-18)
(0.00129538 0.00299441 -2.37606e-18)
(-0.00036172 -0.000194108 1.48676e-18)
(-0.000357193 -0.000214685 -1.50237e-18)
(0.000173505 2.00359e-05 -8.68546e-20)
(0.000165734 1.66939e-05 -3.01634e-19)
(-0.00249346 0.00171071 -8.45425e-19)
(-0.00235671 0.00178092 3.56197e-20)
(-0.000161902 0.000373839 -3.06157e-19)
(-0.000138114 0.000393573 -3.33136e-19)
(-0.00304417 0.0560967 -2.28185e-17)
(-0.00130799 0.0565582 -1.70764e-17)
(0.00357693 0.00145782 3.465e-18)
(0.00336941 0.00141689 -3.38331e-19)
(0.00347203 0.00167905 -2.25136e-18)
(-0.00048451 -0.000198504 4.72391e-19)
(-1.06097e-06 -0.000142382 -3.97991e-18)
(-9.02441e-06 -0.000179132 2.93868e-18)
(-0.00383493 -0.00490407 1.19428e-17)
(-0.00406669 -0.00498042 1.92882e-19)
(0.00349809 -0.000392293 -2.06413e-18)
(-0.0132396 -0.0105245 -5.81868e-18)
(-0.0127176 -0.0100385 -1.30298e-18)
(-0.00536898 -0.00429772 -5.36717e-18)
(-0.0203899 0.000536666 2.73681e-17)
(-0.0208875 -0.000131978 5.77502e-19)
(-0.0213405 0.000808779 8.62409e-18)
(-0.00102288 0.00391875 -1.58122e-18)
(-0.000980748 0.00409097 -3.94566e-19)
(0.00768565 -0.00191578 3.65648e-19)
(0.0083296 -0.00191787 -1.82609e-18)
(-0.000166922 0.000342869 -8.88822e-19)
(-0.000150602 0.00033101 -1.02727e-19)
(-0.000172246 0.000310689 -8.28934e-19)
(0.00396715 0.00392341 -1.35748e-18)
(0.00417671 0.00403453 -3.69867e-18)
(0.00393158 0.00417196 3.80023e-18)
(0.00159829 -0.000648552 -1.84177e-18)
(0.00156374 -0.00051072 1.86718e-18)
(-0.00633393 0.00382184 -6.23307e-18)
(-0.00648426 0.00344913 -2.77684e-18)
(-0.000827605 -0.000733423 1.11685e-18)
(-0.000815089 -0.000759282 -2.369e-18)
(-0.000793396 -0.00071658 -3.0506e-18)
(0.00163218 0.00816252 4.46528e-19)
(0.0142374 -0.00411544 -8.06844e-18)
(0.0144213 -0.00390151 1.81274e-17)
(-4.52898e-05 0.000422363 5.65847e-19)
(-7.22142e-05 0.000437511 9.39232e-19)
(0.000383669 0.00132252 -3.05408e-19)
(0.000450296 0.00129885 4.472e-19)
(0.000440431 0.00137929 -1.27775e-18)
(-0.193438 0.0788917 -5.95261e-17)
(-0.190061 0.090083 2.5623e-17)
(0.00500729 0.0215679 8.57104e-18)
(-0.00103898 0.00114877 -1.03868e-19)
(-0.00107618 0.00106792 1.35784e-18)
(-0.00015283 -0.000413601 1.23777e-18)
(-0.000159624 -0.000406476 -5.81161e-19)
(-0.000150822 -0.000442672 -5.51339e-19)
(-0.00312006 -0.000176868 6.47117e-19)
(-0.00307024 -0.000333724 9.95512e-19)
(-0.20005 0.12684 -9.08984e-18)
(-0.21141 0.130691 3.1108e-17)
(-0.00706533 0.0147684 -1.72731e-17)
(-0.00703398 0.0139552 1.38919e-18)
(-0.00630829 0.0145391 6.00295e-19)
(-0.0211207 0.0092542 -1.40684e-17)
(-0.0217951 0.0085958 -1.07897e-17)
(-3.25646e-05 -3.15244e-05 1.80445e-19)
(-2.87093e-05 -3.60214e-05 -2.17502e-18)
(0.000141757 6.34407e-05 4.85683e-19)
(0.00015225 6.44881e-05 -1.54068e-19)
(-0.000690124 -0.000178167 2.749e-18)
(0.000437697 0.00110312 2.38362e-20)
(0.000376246 0.00107051 2.70753e-19)
(-0.0229262 0.0372222 -1.21928e-17)
(-0.0182109 0.0402684 1.22029e-17)
(-0.000635334 -0.000420063 -5.10838e-18)
(-0.000659594 -0.000443741 2.54216e-18)
(-0.000659085 -0.000471908 -1.66961e-18)
(-0.000172916 -0.000384208 1.70301e-18)
(-0.000180118 -0.000354985 2.1784e-18)
(-0.000324037 4.77373e-06 -1.72241e-19)
(-0.000333542 -4.58204e-06 2.97129e-18)
(-0.000340878 -3.89551e-06 2.22506e-18)
(-0.000251435 -0.0012011 1.4886e-18)
(-0.000261428 -0.00126747 2.94548e-18)
(0.00922867 0.00924466 -6.70569e-18)
(0.0101084 0.00924999 4.99625e-20)
(0.00957239 0.00849055 3.70853e-18)
(-0.00247497 -0.00148118 -4.05722e-18)
(-0.00251711 -0.00149417 -1.05918e-17)
(-0.0024534 -0.00153577 5.22527e-18)
(-0.0136217 -0.00184928 -1.95024e-18)