/*--------------------------------*- C++ -*----------------------------------*\
| =========                 |                                                 |
| \\      /  F ield         | OpenFOAM: The Open Source CFD Toolbox           |
|  \\    /   O peration     | Version:  v2012                                 |
|   \\  /    A nd           | Website:  www.openfoam.com                      |
|    \\/     M anipulation  |                                                 |
\*---------------------------------------------------------------------------*/
FoamFile
{
    version     2.0;
    format      ascii;
    class       volVectorField;
    location    "700";
    object      cellDisplacement;
}
// * * * * * * * * * * * * * * * * * * * * * * * * * * * * * * * * * * * * * //

dimensions      [0 1 0 0 0 0 0];


internalField   nonuniform List<vector> 
10042
(
(0 -0.000701162 0)
(0 -0.0016643 0)
(0 -0.00146575 0)
(0 -0.000424069 0)
(0 -0.000234524 0)
(0 -0.00186046 0)
(0 -0.000742236 0)
(0 -0.00112956 0)
(0 -0.000500343 0)
(0 -0.0009807 0)
(0 -0.00122167 0)
(0 -0.00165943 0)
(0 -0.000496968 0)
(0 -0.0011977 0)
(0 -0.000534481 0)
(0 -0.00119664 0)
(0 -0.0018666 0)
(0 -0.00123834 0)
(0 -0.000497457 0)
(0 -0.00122616 0)
(0 -0.000517191 0)
(0 -0.00068126 0)
(0 -0.000404583 0)
(0 -0.00164092 0)
(0 -0.000911548 0)
(0 -2.84224e-05 0)
(0 -0.000985783 0)
(0 -0.000321834 0)
(0 -0.00186449 0)
(0 -0.0016736 0)
(0 -0.00012414 0)
(0 -0.000312167 0)
(0 -0.000462794 0)
(0 -0.000438587 0)
(0 -0.00114048 0)
(0 -0.00117152 0)
(0 -8.53434e-05 0)
(0 -0.000513243 0)
(0 -0.000170632 0)
(0 -5.19072e-05 0)
(0 -0.00166105 0)
(0 -0.000474389 0)
(0 -0.000462578 0)
(0 -0.00154842 0)
(0 -0.000658078 0)
(0 -0.000944808 0)
(0 -0.000210161 0)
(0 -0.000535655 0)
(0 -0.000795775 0)
(0 -0.000546341 0)
(0 -0.000477104 0)
(0 -0.000375506 0)
(0 -0.00186275 0)
(0 -0.000509799 0)
(0 -0.00111113 0)
(0 -0.000446427 0)
(0 -0.00052906 0)
(0 -0.0011888 0)
(0 -0.000725974 0)
(0 -1.54968e-05 0)
(0 -0.000819501 0)
(0 -0.00103834 0)
(0 -0.00046247 0)
(0 -0.00109826 0)
(0 -0.00164655 0)
(0 -0.00131772 0)
(0 -0.00124633 0)
(0 -0.000783803 0)
(0 -0.000223992 0)
(0 -0.00076737 0)
(0 -0.000479335 0)
(0 -0.00102619 0)
(0 -0.000820258 0)
(0 -0.000713895 0)
(0 -0.00129618 0)
(0 -0.000465408 0)
(0 -0.00166812 0)
(0 -0.000218146 0)
(0 -0.00167933 0)
(0 -0.000480919 0)
(0 -0.00154347 0)
(0 -0.00165423 0)
(0 -5.90277e-05 0)
(0 -0.000370732 0)
(0 -0.00109871 0)
(0 -0.000839764 0)
(0 -0.00124323 0)
(0 -0.00148249 0)
(0 -0.00118653 0)
(0 -0.00164739 0)
(0 -0.000496475 0)
(0 -0.000522385 0)
(0 -0.000476809 0)
(0 -0.000856161 0)
(0 -0.00161587 0)
(0 -0.000933459 0)
(0 -0.000216692 0)
(0 -0.00122433 0)
(0 -0.00180568 0)
(0 -0.000684145 0)
(0 -0.000505976 0)
(0 -0.000985078 0)
(0 -0.000942757 0)
(0 -0.000316784 0)
(0 -0.000551554 0)
(0 -0.000884634 0)
(0 -0.000619921 0)
(0 -0.00126488 0)
(0 -0.000767231 0)
(0 -0.000884392 0)
(0 -0.000742873 0)
(0 -0.000780879 0)
(0 -0.000999123 0)
(0 -0.00110725 0)
(0 -0.00162714 0)
(0 -0.000244893 0)
(0 -0.00168312 0)
(0 -0.000138798 0)
(0 -0.00116986 0)
(0 -0.000231978 0)
(0 -2.07742e-05 0)
(0 -0.00167028 0)
(0 -0.00166717 0)
(0 -0.000688152 0)
(0 -0.00165797 0)
(0 -0.0012472 0)
(0 -0.00127256 0)
(0 -0.00110345 0)
(0 -0.000340078 0)
(0 -0.00168972 0)
(0 -0.000587794 0)
(0 -0.00123061 0)
(0 -0.00135792 0)
(0 -0.00118275 0)
(0 -0.000803927 0)
(0 -0.000554718 0)
(0 -0.00130485 0)
(0 -0.000685821 0)
(0 -0.000622657 0)
(0 -0.00180524 0)
(0 -0.000481013 0)
(0 -0.000184773 0)
(0 -0.000639738 0)
(0 -0.000304292 0)
(0 -0.00077452 0)
(0 -0.000540981 0)
(0 -0.00109147 0)
(0 -0.000212389 0)
(0 -0.00110743 0)
(0 -0.00187107 0)
(0 -0.00124213 0)
(0 -0.000136325 0)
(0 -0.000617426 0)
(0 -0.000475779 0)
(0 -0.00159603 0)
(0 -0.000790033 0)
(0 -0.000350404 0)
(0 -0.000440804 0)
(0 -0.00136397 0)
(0 -1.92503e-05 0)
(0 -0.000140361 0)
(0 -4.09789e-05 0)
(0 -0.00057974 0)
(0 -0.00121492 0)
(0 -0.000631938 0)
(0 -0.00187256 0)
(0 -0.00081372 0)
(0 -0.000323043 0)
(0 -0.00116155 0)
(0 -0.000403218 0)
(0 -0.0015816 0)
(0 -0.00168155 0)
(0 -0.0016812 0)
(0 -0.000426254 0)
(0 -0.000527169 0)
(0 -0.00167403 0)
(0 -0.000889873 0)
(0 -0.00053298 0)
(0 -0.00120507 0)
(0 -0.000222446 0)
(0 -0.000632497 0)
(0 -0.00060955 0)
(0 -0.000695437 0)
(0 -0.000192442 0)
(0 -6.67512e-05 0)
(0 -0.000424886 0)
(0 -0.00100758 0)
(0 -1.46799e-05 0)
(0 -0.000483482 0)
(0 -0.0001869 0)
(0 -0.00165337 0)
(0 -0.000549499 0)
(0 -0.000617915 0)
(0 -0.000608158 0)
(0 -0.00111862 0)
(0 -0.000511517 0)
(0 -0.000266524 0)
(0 -0.00154547 0)
(0 -0.000221116 0)
(0 -0.000332264 0)
(0 -0.000335254 0)
(0 -0.000479116 0)
(0 -0.00174217 0)
(0 -0.000130249 0)
(0 -0.00181283 0)
(0 -0.00132837 0)
(0 -0.00159456 0)
(0 -0.000490236 0)
(0 -0.00074782 0)
(0 -0.00118997 0)
(0 -0.000309379 0)
(0 -0.000143892 0)
(0 -0.00175355 0)
(0 -0.00172107 0)
(0 -0.00011081 0)
(0 -0.000765847 0)
(0 -0.000120771 0)
(0 -0.0016914 0)
(0 -0.000214634 0)
(0 -0.000347446 0)
(0 -0.000281914 0)
(0 -0.00156159 0)
(0 -0.000292423 0)
(0 -0.000758937 0)
(0 -0.000457032 0)
(0 -0.000465878 0)
(0 -0.0011 0)
(0 -0.00130121 0)
(0 -0.000975228 0)
(0 -0.000928648 0)
(0 -0.000558027 0)
(0 -0.0013021 0)
(0 -0.000439593 0)
(0 -9.6362e-05 0)
(0 -0.000907776 0)
(0 -0.00114017 0)
(0 -0.0013333 0)
(0 -0.00022383 0)
(0 -0.000772392 0)
(0 -0.00163267 0)
(0 -0.00171567 0)
(0 -0.00170045 0)
(0 -1.77618e-05 0)
(0 -5.32394e-05 0)
(0 -0.00119344 0)
(0 -0.000240529 0)
(0 -0.00168877 0)
(0 -0.000786915 0)
(0 -0.000618992 0)
(0 -0.000191448 0)
(0 -0.000545928 0)
(0 -0.000638979 0)
(0 -0.0018054 0)
(0 -0.00112966 0)
(0 -0.00110718 0)
(0 -0.0013269 0)
(0 -0.00015275 0)
(0 -0.0011664 0)
(0 -0.000222003 0)
(0 -0.000291663 0)
(0 -0.00165672 0)
(0 -0.000598566 0)
(0 -0.000376238 0)
(0 -0.000224365 0)
(0 -0.000483982 0)
(0 -0.001153 0)
(0 -0.00164659 0)
(0 -0.00179586 0)
(0 -6.07717e-05 0)
(0 -0.00131443 0)
(0 -0.000466303 0)
(0 -0.000559 0)
(0 -0.00114237 0)
(0 -0.000467572 0)
(0 -0.00116023 0)
(0 -0.00111066 0)
(0 -0.000502069 0)
(0 -0.000747895 0)
(0 -5.94737e-05 0)
(0 -0.00113844 0)
(0 -0.000348741 0)
(0 -0.00172348 0)
(0 -0.000253265 0)
(0 -0.000510361 0)
(0 -2.78781e-05 0)
(0 -0.000299178 0)
(0 -0.00169521 0)
(0 -0.000317908 0)
(0 -0.000641563 0)
(0 -0.000111027 0)
(0 -0.000581964 0)
(0 -0.00165127 0)
(0 -4.30824e-05 0)
(0 -0.00173379 0)
(0 -0.00165614 0)
(0 -0.00116082 0)
(0 -0.00136187 0)
(0 -0.00132033 0)
(0 -0.000457948 0)
(0 -0.000123945 0)
(0 -0.000630928 0)
(0 -0.00173314 0)
(0 -1.00002e-05 0)
(0 -0.00170377 0)
(0 -0.00168957 0)
(0 -0.00104011 0)
(0 -0.00119887 0)
(0 -4.17444e-05 0)
(0 -0.00137908 0)
(0 -0.00173868 0)
(0 -6.05391e-05 0)
(0 -0.00114605 0)
(0 -0.000907564 0)
(0 -0.00115928 0)
(0 -0.00165382 0)
(0 -0.000621968 0)
(0 -0.000216941 0)
(0 -6.11031e-05 0)
(0 -0.00162818 0)
(0 -0.000234573 0)
(0 -5.04881e-05 0)
(0 -0.000481244 0)
(0 -0.00109235 0)
(0 -0.000913515 0)
(0 -0.000104442 0)
(0 -8.75862e-05 0)
(0 -0.00142518 0)
(0 -0.00120281 0)
(0 -0.00131532 0)
(0 -0.000593051 0)
(0 -0.00132645 0)
(0 -0.000775051 0)
(0 -0.000707944 0)
(0 -0.000141555 0)
(0 -0.00160914 0)
(0 -0.000656936 0)
(0 -0.000616938 0)
(0 -0.000899973 0)
(0 -0.00066896 0)
(0 -0.0018685 0)
(0 -0.000503214 0)
(0 -0.000580472 0)
(0 -2.33667e-05 0)
(0 -0.0014645 0)
(0 -0.000114757 0)
(0 -0.000548959 0)
(0 -0.00106149 0)
(0 -0.000219264 0)
(0 -0.00158386 0)
(0 -0.000213774 0)
(0 -0.000535198 0)
(0 -0.00162641 0)
(0 -0.00158278 0)
(0 -0.000627251 0)
(0 -0.00105939 0)
(0 -0.00144801 0)
(0 -0.00108343 0)
(0 -3.08922e-05 0)
(0 -0.000338378 0)
(0 -2.25936e-05 0)
(0 -0.000864752 0)
(0 -8.57849e-05 0)
(0 -0.000650467 0)
(0 -0.00164839 0)
(0 -0.00186947 0)
(0 -0.000622422 0)
(0 -0.000273948 0)
(0 -0.00155969 0)
(0 -0.00156145 0)
(0 -0.00106649 0)
(0 -1.78471e-05 0)
(0 -5.77878e-05 0)
(0 -0.00117344 0)
(0 -9.42341e-07 0)
(0 -0.000844601 0)
(0 -0.00125949 0)
(0 -0.00113052 0)
(0 -0.00174498 0)
(0 -0.00125004 0)
(0 -0.000826486 0)
(0 -0.000836848 0)
(0 -0.00173567 0)
(0 -0.00100274 0)
(0 -0.00117586 0)
(0 -0.000418206 0)
(0 -0.000242011 0)
(0 -0.000193348 0)
(0 -0.000215896 0)
(0 -0.00136215 0)
(0 -0.000309943 0)
(0 -0.0011768 0)
(0 -0.000399954 0)
(0 -0.000549319 0)
(0 -0.00140698 0)
(0 -0.00186485 0)
(0 -0.00110494 0)
(0 -0.000479619 0)
(0 -0.00112965 0)
(0 -5.26336e-05 0)
(0 -0.000326648 0)
(0 -0.000338199 0)
(0 -0.00029528 0)
(0 -0.000343747 0)
(0 -0.0010886 0)
(0 -0.000249972 0)
(0 -0.000645457 0)
(0 -0.000514729 0)
(0 -0.000702925 0)
(0 -0.00171076 0)
(0 -0.00116949 0)
(0 -0.0018499 0)
(0 -0.000710174 0)
(0 -0.00171231 0)
(0 -0.000556002 0)
(0 -0.00104297 0)
(0 -0.00147508 0)
(0 -0.000798586 0)
(0 -0.00107283 0)
(0 -0.000254763 0)
(0 -0.00145578 0)
(0 -0.000145243 0)
(0 -0.0018653 0)
(0 -0.000573049 0)
(0 -0.000184252 0)
(0 -0.000468461 0)
(0 -0.00149607 0)
(0 -0.00105802 0)
(0 -0.00184448 0)
(0 -0.000291982 0)
(0 -0.000558704 0)
(0 -0.00149293 0)
(0 -0.000238739 0)
(0 -0.000726391 0)
(0 -0.00116528 0)
(0 -0.000699832 0)
(0 -0.000658278 0)
(0 -0.000768381 0)
(0 -0.00114871 0)
(0 -4.72332e-05 0)
(0 -0.000428942 0)
(0 -0.000292039 0)
(0 -0.00163846 0)
(0 -0.00141984 0)
(0 -0.000469828 0)
(0 -0.000543109 0)
(0 -5.38682e-05 0)
(0 -0.00103071 0)
(0 -0.000589624 0)
(0 -0.00110908 0)
(0 -0.000182449 0)
(0 -0.00107252 0)
(0 -0.00143 0)
(0 -0.00143984 0)
(0 -0.000426134 0)
(0 -0.000370615 0)
(0 -0.00109512 0)
(0 -0.00161694 0)
(0 -0.000390738 0)
(0 -0.000208671 0)
(0 -5.07227e-05 0)
(0 -0.000111015 0)
(0 -0.000507102 0)
(0 -0.000950078 0)
(0 -0.000975648 0)
(0 -0.00133952 0)
(0 -2.15702e-05 0)
(0 -0.000676686 0)
(0 -0.000478206 0)
(0 -0.00164336 0)
(0 -0.00159319 0)
(0 -0.00061505 0)
(0 -0.000514108 0)
(0 -0.000345792 0)
(0 -0.000750778 0)
(0 -0.00177964 0)
(0 -0.000160489 0)
(0 -0.000374685 0)
(0 -6.30201e-05 0)
(0 -0.00109585 0)
(0 -0.000526708 0)
(0 -0.00152523 0)
(0 -0.000570331 0)
(0 -0.00179641 0)
(0 -0.000160896 0)
(0 -0.000525325 0)
(0 -3.62494e-05 0)
(0 -0.00105406 0)
(0 -0.00183283 0)
(0 -5.89761e-05 0)
(0 -0.000314067 0)
(0 -0.00115447 0)
(0 -0.00158372 0)
(0 -0.00059364 0)
(0 -0.00149593 0)
(0 -0.00152858 0)
(0 -0.000537213 0)
(0 -0.000608873 0)
(0 -0.00151672 0)
(0 -0.00173799 0)
(0 -0.000748662 0)
(0 -0.000731077 0)
(0 -0.000113326 0)
(0 -0.00171222 0)
(0 -0.00159527 0)
(0 -0.000735865 0)
(0 -0.00182666 0)
(0 -0.000168516 0)
(0 -3.96261e-05 0)
(0 -0.000999906 0)
(0 -0.000912006 0)
(0 -0.000787779 0)
(0 -0.00158866 0)
(0 -0.000607165 0)
(0 -0.000361856 0)
(0 -0.000861537 0)
(0 -0.00174661 0)
(0 -0.000650487 0)
(0 -0.00172067 0)
(0 -0.000480525 0)
(0 -0.000674751 0)
(0 -0.000550693 0)
(0 -0.000820698 0)
(0 -0.00182458 0)
(0 -0.000909226 0)
(0 -0.000676962 0)
(0 -0.00183504 0)
(0 -0.00155754 0)
(0 -0.0011901 0)
(0 -0.000896718 0)
(0 -0.00127559 0)
(0 -4.90943e-05 0)
(0 -0.000730461 0)
(0 -0.00084113 0)
(0 -0.000391571 0)
(0 -0.00152366 0)
(0 -0.000948905 0)
(0 -0.000773133 0)
(0 -0.00127802 0)
(0 -0.000564738 0)
(0 -0.00117219 0)
(0 -0.000295658 0)
(0 -0.000966073 0)
(0 -0.000922053 0)
(0 -0.000283921 0)
(0 -0.000649449 0)
(0 -0.000393788 0)
(0 -0.000177843 0)
(0 -0.000753787 0)
(0 -0.00182862 0)
(0 -1.9426e-05 0)
(0 -0.00179832 0)
(0 -0.000716798 0)
(0 -0.000486862 0)
(0 -0.0013513 0)
(0 -0.00061507 0)
(0 -0.00167401 0)
(0 -0.00158455 0)
(0 -0.000135059 0)
(0 -0.000388885 0)
(0 -0.000184313 0)
(0 -0.000399006 0)
(0 -0.00101584 0)
(0 -0.000863172 0)
(0 -0.00151918 0)
(0 -0.000867008 0)
(0 -9.50238e-06 0)
(0 -0.000938779 0)
(0 -0.000570673 0)
(0 -0.00103502 0)
(0 -4.38831e-05 0)
(0 -0.000368171 0)
(0 -0.000944384 0)
(0 -0.00163624 0)
(0 -0.000901535 0)
(0 -0.00157337 0)
(0 -0.000411362 0)
(0 -0.000412534 0)
(0 -0.000481424 0)
(0 -0.000508335 0)
(0 -0.00120631 0)
(0 -0.00116543 0)
(0 -0.000824946 0)
(0 -0.00016235 0)
(0 -0.000287559 0)
(0 -0.00059172 0)
(0 -0.00112687 0)
(0 -0.00068765 0)
(0 -0.000846054 0)
(0 -0.000229857 0)
(0 -0.00118623 0)
(0 -0.00170522 0)
(0 -0.000480388 0)
(0 -0.000715822 0)
(0 -9.37376e-05 0)
(0 -0.0015494 0)
(0 -0.000246899 0)
(0 -0.00122414 0)
(0 -0.000263726 0)
(0 -0.000664683 0)
(0 -0.000519208 0)
(0 -0.000135829 0)
(0 -0.000723139 0)
(0 -0.000319735 0)
(0 -0.000219461 0)
(0 -0.00122548 0)
(0 -0.00127954 0)
(0 -0.00121904 0)
(0 -1.20041e-06 0)
(0 -0.00119786 0)
(0 -0.000154807 0)
(0 -0.00148466 0)
(0 -0.000509627 0)
(0 -0.000853962 0)
(0 -0.000183004 0)
(0 -0.000858633 0)
(0 -0.000775387 0)
(0 -0.000900615 0)
(0 -0.00082581 0)
(0 -0.000497864 0)
(0 -0.000234463 0)
(0 -0.00152899 0)
(0 -0.00182707 0)
(0 -0.00118511 0)
(0 -0.000407731 0)
(0 -0.000216737 0)
(0 -0.00133338 0)
(0 -6.30729e-05 0)
(0 -0.00163765 0)
(0 -0.00176847 0)
(0 -0.00182024 0)
(0 -0.000644742 0)
(0 -0.00167657 0)
(0 -0.000396651 0)
(0 -0.000797077 0)
(0 -0.00172773 0)
(0 -0.0014863 0)
(0 -0.00141143 0)
(0 -0.000334476 0)
(0 -0.000631771 0)
(0 -0.00162408 0)
(0 -0.000964154 0)
(0 -0.000769217 0)
(0 -0.000525563 0)
(0 -0.000559175 0)
(0 -0.000141714 0)
(0 -0.00173508 0)
(0 -0.000526227 0)
(0 -3.14932e-05 0)
(0 -0.000385312 0)
(0 -0.000846453 0)
(0 -0.00130902 0)
(0 -4.27833e-05 0)
(0 -0.00048852 0)
(0 -0.00148634 0)
(0 -0.000191413 0)
(0 -0.00161352 0)
(0 -0.00126485 0)
(0 -0.00111938 0)
(0 -0.00110875 0)
(0 -0.000693785 0)
(0 -1.11013e-05 0)
(0 -9.98602e-05 0)
(0 -0.00106127 0)
(0 -0.000697528 0)
(0 -0.00178369 0)
(0 -0.00127125 0)
(0 -0.00153466 0)
(0 -0.000522727 0)
(0 -0.00115756 0)
(0 -0.00102814 0)
(0 -0.00163727 0)
(0 -0.00104234 0)
(0 -0.00129804 0)
(0 -0.000104068 0)
(0 -0.0010093 0)
(0 -0.0016756 0)
(0 -0.000556551 0)
(0 -7.33229e-05 0)
(0 -0.00112122 0)
(0 -3.25764e-05 0)
(0 -0.000234493 0)
(0 -0.000395739 0)
(0 -0.00160348 0)
(0 -0.00112282 0)
(0 -6.00527e-05 0)
(0 -0.00106068 0)
(0 -0.00166308 0)
(0 -0.000963364 0)
(0 -0.000148938 0)
(0 -0.00128934 0)
(0 -0.00107601 0)
(0 -0.000927592 0)
(0 -0.000397273 0)
(0 -0.00135495 0)
(0 -2.54541e-05 0)
(0 -0.00145159 0)
(0 -0.00144792 0)
(0 -0.000349346 0)
(0 -0.000267498 0)
(0 -0.000311331 0)
(0 -0.000662635 0)
(0 -0.000161642 0)
(0 -6.55189e-05 0)
(0 -0.000554312 0)
(0 -0.0018562 0)
(0 -0.00153761 0)
(0 -0.000507337 0)
(0 -0.00112681 0)
(0 -0.00109865 0)
(0 -0.000495799 0)
(0 -0.000394488 0)
(0 -0.000767181 0)
(0 -2.70816e-05 0)
(0 -0.000515815 0)
(0 -0.000594353 0)
(0 -0.00142058 0)
(0 -0.000519629 0)
(0 -0.00181749 0)
(0 -0.000333348 0)
(0 -0.00146511 0)
(0 -9.79222e-05 0)
(0 -5.32556e-05 0)
(0 -0.000460327 0)
(0 -0.000695329 0)
(0 -0.00127978 0)
(0 -0.000358157 0)
(0 -0.000117308 0)
(0 -0.00156673 0)
(0 -0.00134578 0)
(0 -0.00117566 0)
(0 -0.000562702 0)
(0 -0.00116767 0)
(0 -0.00107373 0)
(0 -0.00106406 0)
(0 -0.000684113 0)
(0 -0.00115526 0)
(0 -0.000992924 0)
(0 -0.00109586 0)
(0 -2.1818e-05 0)
(0 -0.000848513 0)
(0 -0.000350514 0)
(0 -2.93112e-05 0)
(0 -0.00177526 0)
(0 -0.00138412 0)
(0 -0.00167708 0)
(0 -0.00146137 0)
(0 -0.000523155 0)
(0 -0.000729377 0)
(0 -0.0012886 0)
(0 -0.00110091 0)
(0 -0.000335183 0)
(0 -0.000852909 0)
(0 -0.000739821 0)
(0 -2.11782e-05 0)
(0 -0.000382368 0)
(0 -6.74645e-05 0)
(0 -0.0014357 0)
(0 -2.94502e-05 0)
(0 -0.00185849 0)
(0 -0.000530625 0)
(0 -0.00086252 0)
(0 -0.00176823 0)
(0 -0.00109398 0)
(0 -0.000359707 0)
(0 -0.000902926 0)
(0 -3.22956e-05 0)
(0 -0.0010107 0)
(0 -0.000548897 0)
(0 -0.00120706 0)
(0 -0.00146263 0)
(0 -0.00101054 0)
(0 -0.00122699 0)
(0 -0.00108452 0)
(0 -0.000601102 0)
(0 -0.00103915 0)
(0 -0.000384801 0)
(0 -0.0016117 0)
(0 -0.00143643 0)
(0 -0.000895362 0)
(0 -0.000199747 0)
(0 -0.000603326 0)
(0 -0.000696527 0)
(0 -0.000314195 0)
(0 -0.00099138 0)
(0 -0.00124524 0)
(0 -0.000534649 0)
(0 -0.00112516 0)
(0 -0.000214112 0)
(0 -0.000592811 0)
(0 -0.000761904 0)
(0 -0.000144674 0)
(0 -0.000577026 0)
(0 -2.67759e-05 0)
(0 -0.000264969 0)
(0 -0.00112368 0)
(0 -0.000643953 0)
(0 -0.000191377 0)
(0 -8.37107e-05 0)
(0 -0.000759524 0)
(0 -0.00119331 0)
(0 -0.000597183 0)
(0 -1.38899e-05 0)
(0 -0.000782565 0)
(0 -0.00114626 0)
(0 -0.00176239 0)
(0 -0.000973079 0)
(0 -0.00129493 0)
(0 -0.000168004 0)
(0 -0.00183072 0)
(0 -8.25894e-05 0)
(0 -0.000587227 0)
(0 -0.000276672 0)
(0 -0.000819193 0)
(0 -0.000727192 0)
(0 -0.000393471 0)
(0 -0.00149442 0)
(0 -0.00182662 0)
(0 -0.000625548 0)
(0 -0.0018269 0)
(0 -0.00053328 0)
(0 -3.45251e-05 0)
(0 -0.000382025 0)
(0 -0.00179219 0)
(0 -0.00126373 0)
(0 -0.00057641 0)
(0 -0.000357961 0)
(0 -0.00169765 0)
(0 -0.000998995 0)
(0 -0.00155132 0)
(0 -0.00130134 0)
(0 -0.0016544 0)
(0 -0.00178983 0)
(0 -0.00160401 0)
(0 -0.00117666 0)
(0 -0.00108602 0)
(0 -0.000317844 0)
(0 -0.00118868 0)
(0 -0.0016615 0)
(0 -0.000711507 0)
(0 -0.000581465 0)
(0 -0.000134056 0)
(0 -0.00163615 0)
(0 -2.38984e-05 0)
(0 -0.000768416 0)
(0 -0.000705476 0)
(0 -0.00128052 0)
(0 -0.00131631 0)
(0 -2.76061e-05 0)
(0 -0.000958173 0)
(0 -0.00068196 0)
(0 -0.000536934 0)
(0 -0.00151714 0)
(0 -0.000840269 0)
(0 -2.56657e-05 0)
(0 -0.000688141 0)
(0 -0.0011547 0)
(0 -0.00135222 0)
(0 -0.000818666 0)
(0 -0.000387346 0)
(0 -0.000737642 0)
(0 -0.000803912 0)
(0 -0.00169455 0)
(0 -0.00151354 0)
(0 -0.00134008 0)
(0 -0.00151632 0)
(0 -0.000696707 0)
(0 -0.000378722 0)
(0 -9.14965e-05 0)
(0 -0.00033013 0)
(0 -0.000863763 0)
(0 -0.000237255 0)
(0 -0.00134863 0)
(0 -0.000102377 0)
(0 -0.00167532 0)
(0 -0.00125585 0)
(0 -0.00105979 0)
(0 -0.00161069 0)
(0 -0.000114239 0)
(0 -0.000187 0)
(0 -0.00161806 0)
(0 -0.00013844 0)
(0 -0.000148381 0)
(0 -0.00162734 0)
(0 -0.000374861 0)
(0 -0.00145082 0)
(0 -0.000602888 0)
(0 -0.00114852 0)
(0 -0.000497211 0)
(0 -0.00125896 0)
(0 -0.00137468 0)
(0 -0.00089455 0)
(0 -0.00026206 0)
(0 -0.000250172 0)
(0 -0.000720474 0)
(0 -0.00102516 0)
(0 -0.000369658 0)
(0 -0.000778133 0)
(0 -0.000822838 0)
(0 -2.81183e-05 0)
(0 -0.000963425 0)
(0 -0.000192136 0)
(0 -0.000844794 0)
(0 -0.000515246 0)
(0 -0.00159082 0)
(0 -0.000422467 0)
(0 -0.000193041 0)
(0 -0.000384947 0)
(0 -0.00177037 0)
(0 -0.000101167 0)
(0 -0.000193812 0)
(0 -0.000147478 0)
(0 -3.60869e-05 0)
(0 -0.000642948 0)
(0 -0.00187064 0)
(0 -0.00179237 0)
(0 -0.0006354 0)
(0 -0.000431397 0)
(0 -0.00174582 0)
(0 -0.00128804 0)
(0 -0.000107299 0)
(0 -0.000410586 0)
(0 -0.00105227 0)
(0 -0.00157833 0)
(0 -0.000466741 0)
(0 -0.000181122 0)
(0 -0.000549718 0)
(0 -0.00074039 0)
(0 -0.00128807 0)
(0 -0.00159926 0)
(0 -0.00126114 0)
(0 -0.00129175 0)
(0 -0.00168765 0)
(0 -0.00153846 0)
(0 -0.000586552 0)
(0 -0.0010386 0)
(0 -0.00038839 0)
(0 -0.000377104 0)
(0 -0.00152867 0)
(0 -0.000346622 0)
(0 -0.00081381 0)
(0 -0.00120614 0)
(0 -0.0015758 0)
(0 -0.00168718 0)
(0 -0.00144242 0)
(0 -0.000443949 0)
(0 -0.000365818 0)
(0 -0.00126927 0)
(0 -0.00147889 0)
(0 -0.00144665 0)
(0 -0.00126519 0)
(0 -5.66475e-05 0)
(0 -0.000372314 0)
(0 -0.00120282 0)
(0 -0.000742359 0)
(0 -0.000208664 0)
(0 -0.00111597 0)
(0 -0.000937571 0)
(0 -0.00108285 0)
(0 -0.000486608 0)
(0 -0.00125242 0)
(0 -0.000133024 0)
(0 -0.00118966 0)
(0 -0.00155707 0)
(0 -0.000846842 0)
(0 -0.000108567 0)
(0 -0.000733446 0)
(0 -0.0016085 0)
(0 -0.000952544 0)
(0 -0.000503099 0)
(0 -0.000434944 0)
(0 -0.00133634 0)
(0 -0.000997212 0)
(0 -0.00144465 0)
(0 -0.00120646 0)
(0 -1.96385e-05 0)
(0 -0.00112448 0)
(0 -0.00112577 0)
(0 -0.00131674 0)
(0 -0.00178836 0)
(0 -0.000749249 0)
(0 -0.00123903 0)
(0 -0.00050934 0)
(0 -0.000526836 0)
(0 -0.00164823 0)
(0 -0.00169315 0)
(0 -0.000728164 0)
(0 -0.000852565 0)
(0 -0.00146228 0)
(0 -0.00175344 0)
(0 -0.000606619 0)
(0 -0.000256737 0)
(0 -0.000503601 0)
(0 -0.0016229 0)
(0 -0.000984506 0)
(0 -0.000960233 0)
(0 -0.00153749 0)
(0 -0.000399012 0)
(0 -0.000545922 0)
(0 -0.000605446 0)
(0 -0.00158024 0)
(0 -0.000640567 0)
(0 -0.00178759 0)
(0 -0.00055251 0)
(0 -0.000993207 0)
(0 -0.000473272 0)
(0 -0.000609988 0)
(0 -0.00103319 0)
(0 -0.000842801 0)
(0 -0.000474555 0)
(0 -2.69959e-05 0)
(0 -0.00093019 0)
(0 -0.00155657 0)
(0 -0.00143154 0)
(0 -0.00125427 0)
(0 -0.000616973 0)
(0 -0.000875669 0)
(0 -0.000523256 0)
(0 -0.00124182 0)
(0 -0.00146651 0)
(0 -0.00048211 0)
(0 -0.000758353 0)
(0 -0.000967576 0)
(0 -0.00117909 0)
(0 -0.00128544 0)
(0 -0.00129721 0)
(0 -0.00157578 0)
(0 -0.00011313 0)
(0 -0.00144001 0)
(0 -0.0012427 0)
(0 -0.00148077 0)
(0 -0.00180199 0)
(0 -0.00120587 0)
(0 -0.000822276 0)
(0 -0.000310868 0)
(0 -0.000512752 0)
(0 -0.00123784 0)
(0 -0.000239672 0)
(0 -0.000730857 0)
(0 -5.87578e-05 0)
(0 -0.00159374 0)
(0 -0.00114328 0)
(0 -0.000781385 0)
(0 -0.00154387 0)
(0 -0.000614122 0)
(0 -0.00131915 0)
(0 -0.00124706 0)
(0 -0.000532448 0)
(0 -0.00153822 0)
(0 -0.000403777 0)
(0 -0.000412 0)
(0 -0.000577498 0)
(0 -0.000186704 0)
(0 -0.000978961 0)
(0 -0.000354972 0)
(0 -0.000769936 0)
(0 -0.0008902 0)
(0 -0.00180393 0)
(0 -0.000895132 0)
(0 -0.000823629 0)
(0 -0.000174196 0)
(0 -0.000775752 0)
(0 -0.00134217 0)
(0 -0.00059451 0)
(0 -0.00180785 0)
(0 -0.000259305 0)
(0 -0.000311029 0)
(0 -0.000603136 0)
(0 -0.000353363 0)
(0 -0.000997521 0)
(0 -0.000939702 0)
(0 -0.00179098 0)
(0 -0.00144776 0)
(0 -0.00121663 0)
(0 -0.00186047 0)
(0 -0.000410757 0)
(0 -0.000886 0)
(0 -0.00109218 0)
(0 -0.000811948 0)
(0 -2.66202e-05 0)
(0 -0.000707487 0)
(0 -0.000134214 0)
(0 -0.00063615 0)
(0 -0.00145287 0)
(0 -0.00117862 0)
(0 -0.000615644 0)
(0 -0.0015241 0)
(0 -0.00101017 0)
(0 -0.000110604 0)
(0 -0.00113817 0)
(0 -0.000563098 0)
(0 -0.000375443 0)
(0 -0.00112198 0)
(0 -0.00138379 0)
(0 -0.000737128 0)
(0 -0.000272715 0)
(0 -0.00113859 0)
(0 -0.000112485 0)
(0 -0.000766113 0)
(0 -0.00178556 0)
(0 -0.000522186 0)
(0 -0.000923835 0)
(0 -3.02629e-05 0)
(0 -0.00099059 0)
(0 -0.00152068 0)
(0 -0.00062452 0)
(0 -0.00173143 0)
(0 -0.000184268 0)
(0 -0.000754379 0)
(0 -0.000628319 0)
(0 -0.00112636 0)
(0 -0.000579471 0)
(0 -0.000922051 0)
(0 -0.000599607 0)
(0 -0.000499898 0)
(0 -5.09635e-05 0)
(0 -5.43917e-05 0)
(0 -0.000941711 0)
(0 -0.000266681 0)
(0 -0.000939845 0)
(0 -0.000687018 0)
(0 -0.000801408 0)
(0 -0.000304424 0)
(0 -0.00126662 0)
(0 -0.00106499 0)
(0 -0.00177097 0)
(0 -0.000450247 0)
(0 -0.00170161 0)
(0 -9.70731e-05 0)
(0 -0.00116341 0)
(0 -0.00148482 0)
(0 -0.00155692 0)
(0 -0.000268319 0)
(0 -0.00182366 0)
(0 -0.000645181 0)
(0 -0.00066426 0)
(0 -0.00068804 0)
(0 -0.00116832 0)
(0 -0.000526358 0)
(0 -0.00159519 0)
(0 -0.00147246 0)
(0 -0.000553964 0)
(0 -0.00125101 0)
(0 -0.00157671 0)
(0 -0.000981327 0)
(0 -0.00162012 0)
(0 -0.000346398 0)
(0 -0.000932448 0)
(0 -0.00171616 0)
(0 -0.000325659 0)
(0 -0.000622505 0)
(0 -0.000961748 0)
(0 -0.000903627 0)
(0 -1.32005e-05 0)
(0 -0.000574024 0)
(0 -0.000571487 0)
(0 -0.000298097 0)
(0 -0.00181201 0)
(0 -0.000534461 0)
(0 -0.000925786 0)
(0 -0.000708595 0)
(0 -0.00112892 0)
(0 -0.000548102 0)
(0 -0.00126403 0)
(0 -0.00150186 0)
(0 -0.00083637 0)
(0 -0.00156676 0)
(0 -0.000488768 0)
(0 -0.000900726 0)
(0 -0.000952344 0)
(0 -0.00172876 0)
(0 -0.000947175 0)
(0 -0.000860253 0)
(0 -0.00069165 0)
(0 -0.000961588 0)
(0 -0.00114819 0)
(0 -0.000694822 0)
(0 -0.00160652 0)
(0 -0.000856684 0)
(0 -0.000989904 0)
(0 -0.00130347 0)
(0 -0.00162665 0)
(0 -0.00136566 0)
(0 -0.00157059 0)
(0 -8.52597e-05 0)
(0 -0.000402346 0)
(0 -0.00162673 0)
(0 -0.00109356 0)
(0 -0.00176703 0)
(0 -0.000660403 0)
(0 -0.000506274 0)
(0 -0.000548021 0)
(0 -0.000696973 0)
(0 -0.00154269 0)
(0 -0.000116748 0)
(0 -0.000504556 0)
(0 -0.00147972 0)
(0 -0.000953376 0)
(0 -0.000982848 0)
(0 -0.000249371 0)
(0 -0.000758606 0)
(0 -0.000109889 0)
(0 -0.000977712 0)
(0 -0.00135553 0)
(0 -0.000250664 0)
(0 -0.00159592 0)
(0 -0.000978217 0)
(0 -0.000526334 0)
(0 -0.000951963 0)
(0 -0.00133026 0)
(0 -0.00155642 0)
(0 -0.000140836 0)
(0 -0.000671368 0)
(0 -0.000424489 0)
(0 -0.000720945 0)
(0 -0.00108591 0)
(0 -0.000366879 0)
(0 -0.000463206 0)
(0 -0.000933866 0)
(0 -0.00112197 0)
(0 -0.000626031 0)
(0 -0.00163521 0)
(0 -7.97901e-05 0)
(0 -0.00121271 0)
(0 -0.00156516 0)
(0 -0.00146336 0)
(0 -6.83248e-05 0)
(0 -0.000233466 0)
(0 -0.0015514 0)
(0 -0.000822957 0)
(0 -0.000749859 0)
(0 -0.000611105 0)
(0 -0.000546653 0)
(0 -0.000734162 0)
(0 -0.000251688 0)
(0 -0.00167667 0)
(0 -7.20302e-05 0)
(0 -0.00131101 0)
(0 -0.000634011 0)
(0 -0.000987349 0)
(0 -0.000902615 0)
(0 -0.000962567 0)
(0 -0.000568042 0)
(0 -0.000595327 0)
(0 -0.000667232 0)
(0 -0.00123025 0)
(0 -0.000517321 0)
(0 -5.65486e-05 0)
(0 -0.000234289 0)
(0 -0.000386125 0)
(0 -0.000532455 0)
(0 -0.00114361 0)
(0 -0.000508405 0)
(0 -0.000811899 0)
(0 -0.000618078 0)
(0 -0.000539382 0)
(0 -0.000571455 0)
(0 -8.82273e-05 0)
(0 -0.00160999 0)
(0 -0.000361241 0)
(0 -0.00158413 0)
(0 -0.00078791 0)
(0 -0.000478209 0)
(0 -0.00099415 0)
(0 -0.000521661 0)
(0 -0.00067991 0)
(0 -0.000562855 0)
(0 -0.00119482 0)
(0 -0.00121932 0)
(0 -0.000767649 0)
(0 -0.0018077 0)
(0 -0.00032393 0)
(0 -0.00145689 0)
(0 -0.000168891 0)
(0 -0.00117963 0)
(0 -0.000342227 0)
(0 -0.00131569 0)
(0 -0.000787307 0)
(0 -1.82958e-05 0)
(0 -0.00103886 0)
(0 -0.000955452 0)
(0 -0.000846173 0)
(0 -0.00156992 0)
(0 -0.000354147 0)
(0 -0.000688861 0)
(0 -0.00169779 0)
(0 -0.000119444 0)
(0 -0.000210796 0)
(0 -0.000497861 0)
(0 -0.00159685 0)
(0 -0.00131998 0)
(0 -0.00079685 0)
(0 -0.000514603 0)
(0 -0.00114056 0)
(0 -0.000696884 0)
(0 -0.000578753 0)
(0 -0.000216993 0)
(0 -0.000996446 0)
(0 -0.000352494 0)
(0 -0.00149405 0)
(0 -0.00171206 0)
(0 -0.000484253 0)
(0 -0.000504571 0)
(0 -0.000485158 0)
(0 -0.000499905 0)
(0 -0.000691092 0)
(0 -0.00111211 0)
(0 -0.000349677 0)
(0 -0.000415405 0)
(0 -0.000947783 0)
(0 -0.000731901 0)
(0 -0.000512735 0)
(0 -0.000824694 0)
(0 -0.000460181 0)
(0 -0.000476651 0)
(0 -0.001521 0)
(0 -0.00108882 0)
(0 -0.00150514 0)
(0 -0.000465556 0)
(0 -0.00103014 0)
(0 -0.000293126 0)
(0 -0.000534146 0)
(0 -0.000910096 0)
(0 -0.000775557 0)
(0 -0.000485504 0)
(0 -0.000952733 0)
(0 -0.00159209 0)
(0 -0.00139828 0)
(0 -0.000582952 0)
(0 -0.0012553 0)
(0 -0.00022931 0)
(0 -0.000346407 0)
(0 -0.000616967 0)
(0 -0.00126327 0)
(0 -0.000354581 0)
(0 -0.00110357 0)
(0 -0.000615615 0)
(0 -5.35062e-05 0)
(0 -0.000818007 0)
(0 -0.000965972 0)
(0 -0.000699644 0)
(0 -0.00166973 0)
(0 -0.00126039 0)
(0 -0.00180365 0)
(0 -0.000364692 0)
(0 -0.000291625 0)
(0 -0.000775802 0)
(0 -0.00048167 0)
(0 -0.000659266 0)
(0 -0.000629658 0)
(0 -0.000722736 0)
(0 -0.000109297 0)
(0 -0.000341282 0)
(0 -0.000779472 0)
(0 -0.000451702 0)
(0 -0.000926805 0)
(0 -0.000922224 0)
(0 -0.0010291 0)
(0 -0.000576714 0)
(0 -0.0011087 0)
(0 -0.000440496 0)
(0 -0.00028758 0)
(0 -5.51546e-05 0)
(0 -0.000600628 0)
(0 -0.000736138 0)
(0 -0.000464229 0)
(0 -0.00143681 0)
(0 -0.0010564 0)
(0 -0.000548978 0)
(0 -0.000528749 0)
(0 -0.00123126 0)
(0 -4.23206e-05 0)
(0 -0.00056261 0)
(0 -0.00138519 0)
(0 -0.000869298 0)
(0 -0.00175308 0)
(0 -0.000878959 0)
(0 -0.000384598 0)
(0 -9.44246e-05 0)
(0 -0.00157626 0)
(0 -0.00158806 0)
(0 -0.000894404 0)
(0 -0.00128075 0)
(0 -0.00136172 0)
(0 -0.000954517 0)
(0 -0.00113141 0)
(0 -0.000719129 0)
(0 -0.00114278 0)
(0 -0.00153776 0)
(0 -0.000697027 0)
(0 -0.000363024 0)
(0 -0.00048076 0)
(0 -0.000438235 0)
(0 -0.000636719 0)
(0 -0.00048676 0)
(0 -0.000980063 0)
(0 -0.000402687 0)
(0 -0.000795905 0)
(0 -0.000961352 0)
(0 -0.000599526 0)
(0 -0.00053098 0)
(0 -0.000772926 0)
(0 -0.00050636 0)
(0 -0.000773447 0)
(0 -0.00160921 0)
(0 -0.000249116 0)
(0 -0.000798746 0)
(0 -0.000566955 0)
(0 -0.000698704 0)
(0 -0.000416158 0)
(0 -1.61511e-05 0)
(0 -0.001552 0)
(0 -0.000379179 0)
(0 -0.000264699 0)
(0 -0.00037742 0)
(0 -0.000395502 0)
(0 -0.000947968 0)
(0 -0.000245158 0)
(0 -0.0011201 0)
(0 -0.000514433 0)
(0 -0.000860695 0)
(0 -0.000140431 0)
(0 -0.0016091 0)
(0 -0.000424873 0)
(0 -0.00032286 0)
(0 -0.00052928 0)
(0 -0.00058469 0)
(0 -0.000450893 0)
(0 -0.000563457 0)
(0 -0.00038832 0)
(0 -0.000580619 0)
(0 -0.00160784 0)
(0 -0.00024987 0)
(0 -0.00105302 0)
(0 -5.74728e-05 0)
(0 -0.000648525 0)
(0 -0.00141918 0)
(0 -0.000548324 0)
(0 -0.000450972 0)
(0 -0.000860949 0)
(0 -0.00153094 0)
(0 -0.000803157 0)
(0 -0.00036349 0)
(0 -0.00158156 0)
(0 -0.000509932 0)
(0 -7.36362e-05 0)
(0 -0.00173394 0)
(0 -0.000193776 0)
(0 -0.00088911 0)
(0 -0.000140214 0)
(0 -0.000217805 0)
(0 -0.000502383 0)
(0 -0.000464456 0)
(0 -0.000116792 0)
(0 -0.000652003 0)
(0 -0.00161452 0)
(0 -0.00127036 0)
(0 -0.000712087 0)
(0 -0.000375408 0)
(0 -0.000380728 0)
(0 -0.00158963 0)
(0 -0.000365144 0)
(0 -0.000652547 0)
(0 -0.0015051 0)
(0 -0.000607177 0)
(0 -0.000536643 0)
(0 -0.0004266 0)
(0 -0.000214219 0)
(0 -0.00149964 0)
(0 -0.00103978 0)
(0 -0.000400893 0)
(0 -0.00165212 0)
(0 -0.00140777 0)
(0 -0.000591785 0)
(0 -0.0015889 0)
(0 -0.00146836 0)
(0 -0.0014015 0)
(0 -2.84329e-05 0)
(0 -1.91523e-05 0)
(0 -0.00077866 0)
(0 -0.000919692 0)
(0 -0.00121501 0)
(0 -0.000652487 0)
(0 -0.000483363 0)
(0 -0.00058702 0)
(0 -0.000571661 0)
(0 -0.000513104 0)
(0 -0.000521843 0)
(0 -0.00156148 0)
(0 -0.000432545 0)
(0 -0.000578654 0)
(0 -0.0015813 0)
(0 -0.00165521 0)
(0 -0.00116581 0)
(0 -0.00148785 0)
(0 -0.000431156 0)
(0 -0.00155785 0)
(0 -0.000960953 0)
(0 -0.000560974 0)
(0 -0.000859315 0)
(0 -0.000583234 0)
(0 -0.00134129 0)
(0 -0.0010203 0)
(0 -0.000681208 0)
(0 -0.000312486 0)
(0 -0.00108497 0)
(0 -0.000116961 0)
(0 -0.000903996 0)
(0 -0.00164488 0)
(0 -0.000397894 0)
(0 -0.00150531 0)
(0 -0.000579384 0)
(0 -2.65763e-05 0)
(0 -0.000513096 0)
(0 -0.00170989 0)
(0 -0.000556542 0)
(0 -0.000234479 0)
(0 -0.000657805 0)
(0 -0.000540064 0)
(0 -0.00117579 0)
(0 -2.68137e-05 0)
(0 -0.000547771 0)
(0 -0.000583155 0)
(0 -0.00115859 0)
(0 -0.00150219 0)
(0 -0.00166593 0)
(0 -2.72983e-05 0)
(0 -0.000730473 0)
(0 -4.8301e-05 0)
(0 -0.000768862 0)
(0 -0.00063023 0)
(0 -0.000481487 0)
(0 -0.00108468 0)
(0 -2.14655e-05 0)
(0 -0.000766988 0)
(0 -0.00050245 0)
(0 -0.000682557 0)
(0 -0.000572294 0)
(0 -0.000650841 0)
(0 -0.000567252 0)
(0 -0.00133585 0)
(0 -0.000808685 0)
(0 -0.000589476 0)
(0 -0.000586239 0)
(0 -0.00122281 0)
(0 -0.000111035 0)
(0 -0.000717851 0)
(0 -0.000721241 0)
(0 -0.000694566 0)
(0 -0.000959474 0)
(0 -0.000515434 0)
(0 -0.00147914 0)
(0 -0.000307521 0)
(0 -0.000668812 0)
(0 -0.00056369 0)
(0 -4.37212e-05 0)
(0 -0.000840952 0)
(0 -0.000112396 0)
(0 -0.000629159 0)
(0 -0.000620324 0)
(0 -0.000604412 0)
(0 -0.000479396 0)
(0 -0.000644275 0)
(0 -0.000484963 0)
(0 -0.00120215 0)
(0 -0.000666001 0)
(0 -0.00129572 0)
(0 -0.00122635 0)
(0 -0.00146549 0)
(0 -0.000659571 0)
(0 -0.00069096 0)
(0 -0.000464883 0)
(0 -0.000749249 0)