/*--------------------------------*- C++ -*----------------------------------*\
| =========                 |                                                 |
| \\      /  F ield         | OpenFOAM: The Open Source CFD Toolbox           |
|  \\    /   O peration     | Version:  v2012                                 |
|   \\  /    A nd           | Website:  www.openfoam.com                      |
|    \\/     M anipulation  |                                                 |
\*---------------------------------------------------------------------------*/
FoamFile
{
    version     2.0;
    format      ascii;
    class       volScalarField;
    location    "700";
    object      k;
}
// * * * * * * * * * * * * * * * * * * * * * * * * * * * * * * * * * * * * * //

dimensions      [0 2 -2 0 0 0 0];


internalField   nonuniform List<scalar> 
10042
(
0.000698629
0.019911
0.000204844
0.000141831
0.000142179
0.00999264
0.0614001
0.00461126
0.000134618
0.000191469
0.000132256
0.019063
0.000163751
0.000142724
0.000146449
0.000142672
0.00514421
0.000165743
0.000152749
0.000163556
0.000163591
0.000590672
0.000141713
0.00513181
0.000141163
0.000151484
0.000188574
0.000133913
0.00865347
0.0021696
0.000157998
0.000169402
0.000134347
0.000134291
0.00490289
0.00748334
0.000149875
0.000135777
0.000150157
0.000153003
0.0031886
0.000134485
2.49837e-05
0.0064804
0.00014145
0.000141208
0.000132753
0.000146126
0.000195833
0.0856935
0.00244597
0.000140798
0.00607866
0.000152387
0.0415353
0.0759757
0.000162588
0.000309488
0.000147423
0.000130772
0.000197893
0.0463859
0.000132044
0.00311998
0.000143477
0.000144719
0.000161843
0.00241953
0.000132579
0.00211685
0.021138
0.000152664
0.000137903
0.000147142
0.000144398
0.0068271
0.000226613
0.00013273
0.000225344
0.000152772
0.00443052
0.00416433
0.000170667
0.000140147
0.000176957
0.00177807
0.000160426
0.000209097
0.000142352
0.000248832
0.000158193
0.000146468
0.000175115
0.00304914
0.00159455
0.000144077
0.0781428
0.000162061
0.00797323
0.000146816
0.00015766
0.000217367
0.000148849
0.000164886
0.000154562
0.000147022
0.00817436
0.000143859
0.0639763
0.000147462
0.00014683
0.0465936
0.000214723
0.00340442
0.000236558
0.000132564
0.000246389
0.00015596
0.000293396
0.000132416
0.000130759
0.0172141
0.0165437
0.000141555
0.000245893
0.000143534
0.000144016
0.0367151
0.000223639
0.000232593
0.000135831
0.000143393
0.00014706
0.000143081
0.0469759
0.0506257
0.000161979
0.00100583
0.000150853
0.0073693
0.000189902
0.000138208
0.00554449
0.000133963
0.000158806
0.000135841
0.000175031
0.000132473
0.000151928
0.012682
0.000143522
0.000144785
0.000151639
0.000167569
0.00103352
0.000159362
0.000223988
0.0793926
0.000147218
0.000153441
0.000153127
0.000160543
0.0599662
0.000142859
0.000149901
0.014405
0.000137847
0.000165996
0.00667005
0.000134045
0.00325712
0.00194255
0.0125826
0.000134141
0.00015238
0.0137607
0.000141445
0.000135731
0.000142896
0.000132579
0.000150708
0.000155156
0.000147113
0.000132256
0.00336737
0.00015834
0.000152733
0.000131254
0.0878956
0.000146143
0.0191573
0.000162522
0.000136052
0.000154789
0.0317661
0.000146416
0.00129974
0.00401258
0.0861959
0.000140295
0.000202882
0.000198722
0.0132159
0.000136912
0.00774496
0.000145969
0.00709547
0.000166973
0.000146498
0.000143227
0.00016779
0.000135751
0.0134367
0.0119598
0.000151177
0.00135257
0.000136491
0.00820834
0.000144082
0.000180481
0.0346445
0.0020842
0.0513722
0.00134016
0.000141812
0.000201292
0.000149743
0.000160562
0.000179448
0.000149068
0.000135817
0.000144837
0.000158406
0.000163044
0.000141417
0.00573074
0.000158485
0.0805045
0.000157601
0.005363
0.00556023
0.00248719
0.000130702
0.000172325
0.0248543
0.000142939
0.00221385
0.000157293
0.00015192
0.0001468
0.000154002
0.000136259
0.00419675
0.0378632
0.000151309
0.000157423
0.000149785
0.000151636
0.0763517
0.000141848
0.00023257
0.000136299
0.000140677
0.000132849
0.000164803
0.0252746
0.000184441
0.00240148
0.000164216
0.000145117
0.000143677
0.0829205
0.000140488
0.0472769
0.000150926
0.000250435
0.000149361
0.000141226
0.00016498
0.0307582
0.000133891
0.0039954
0.00125866
0.000149141
0.000161492
0.0895146
0.000219439
0.000133167
0.000407445
0.000148213
0.00016177
0.000190117
0.000164622
0.00452491
0.000182061
0.000142741
0.000252628
0.000160233
0.000143762
0.000137028
0.000151485
0.0125984
0.000131283
0.00733274
0.000225521
0.0528698
0.00014173
0.000196407
0.000261642
0.00516631
0.000155246
0.000142582
0.000143908
0.000142624
0.000189652
0.000383006
0.000132873
0.00331063
0.00502078
0.000132472
0.000152328
0.0650191
0.000251326
0.00290006
0.00308463
0.000154282
0.000319448
0.000142848
0.000158917
0.000161191
0.000145827
0.000144763
0.000564333
0.000146957
0.00631175
0.000541355
0.0171176
0.00315772
0.0001365
0.0167572
0.000192189
0.0001644
0.000130739
0.000239213
0.000158084
0.000135681
0.000139445
0.000143546
0.00016879
0.0840004
0.0001479
0.00109174
0.00016855
0.000138661
0.0435319
0.000442765
0.00014991
0.00016979
0.00491756
0.000155092
0.000146556
0.000150971
0.000149891
0.00300981
0.0172992
0.000150094
0.000141227
0.000164367
0.000164711
0.0326082
0.000130889
0.00017183
0.000140958
0.000152181
0.000263615
0.000143337
0.000268944
0.00366138
0.00646164
0.000152904
0.000145362
0.00441238
0.000179247
0.000142482
0.000173724
0.000132519
0.000145489
0.000132306
0.000146255
0.000133144
0.000150722
0.0704883
0.000147896
0.000515847
0.0176289
0.0408003
0.000142324
0.00412079
0.00015065
0.000169478
0.000140915
0.0838925
0.000163029
0.0451158
0.076138
0.000138743
0.000185937
0.000145441
0.00799476
0.000149959
0.000891241
0.00015955
0.0029706
0.000147649
0.00271923
0.000151009
0.000162014
0.0353669
0.000133144
0.000149231
0.000144574
0.0168938
0.000135806
0.000132143
0.00019546
0.000155967
0.000180432
0.00074512
0.000141689
0.000164321
0.000156085
0.000132735
0.000159818
0.00740894
0.000143437
0.000149608
0.025055
0.000266784
0.000152479
0.0732921
0.000134136
0.000185897
0.000180194
0.0813724
0.0691026
0.0037013
0.00261596
0.03788
0.00353144
0.000132047
0.000230982
0.00025857
0.000259265
0.000172303
0.000141696
0.000139771
0.000215597
0.0713192
0.000132286
0.000138626
0.000160153
0.000142127
0.000148626
0.000150965
0.000145707
0.000164701
0.000642534
0.000149017
0.000185896
0.00268512
0.0454809
0.000134753
0.0917386
0.0364152
0.00778897
0.000145287
0.000155633
0.000151976
0.0380293
0.000143862
0.00328564
0.000147657
0.00752807
0.000139816
0.000153946
0.000138529
0.000229001
0.00133835
0.000151207
0.000139779
0.000142755
0.0133669
0.000136205
0.00100101
0.000220546
0.000188563
0.000137349
0.00144713
0.00541349
0.0681836
0.000145732
0.00015847
0.00339917
0.0157478
0.000172518
0.0142375
0.000147624
0.00225052
0.000170244
0.000165027
0.000155534
0.00759359
0.000137053
0.000141581
0.000147971
0.00649918
0.00014162
0.00735206
0.000142118
0.000145149
0.000134962
0.000161947
0.0155973
0.000148677
0.000149604
0.0151629
0.00358846
0.000180301
0.00014847
0.000143887
0.00267062
0.0722749
0.000145736
0.000133798
0.000208446
0.000144382
0.000144119
0.000223353
0.000135675
0.0303011
0.000141007
0.000182197
0.000185083
0.0740509
0.000141711
0.000156385
0.000145298
0.000137272
0.0168373
0.000130715
0.000654658
0.000172303
0.000134658
0.000209807
0.017571
0.0125878
0.00109895
0.000146665
0.000133798
0.000132384
0.000141796
0.000208803
0.000147521
7.10729e-05
0.000143796
0.000135556
0.0201382
0.000154728
0.000212202
0.000154276
0.00013938
0.0254223
0.00338737
0.000177821
0.00833291
0.000143583
0.000157225
0.000134701
0.000134734
0.000143181
0.000142636
0.000146235
0.000146576
0.0886981
0.000147415
0.000223894
0.000140912
0.00016656
0.000132947
0.000184436
0.00575694
0.000134752
0.000141117
0.00327254
0.00249651
0.000133064
0.0105162
0.000141538
0.000421222
0.000135869
0.000152104
0.000137071
0.00640393
0.000132989
0.000142484
0.000144436
0.0170282
0.000155948
0.000143125
0.00014693
0.00023232
0.000142314
0.000141823
0.000137595
0.000141889
0.000155914
0.000141573
0.000160581
0.00013488
0.0755992
0.00144824
0.00482176
0.000149611
0.000153177
0.000143632
0.000216016
0.000150223
0.00476012
0.0128684
0.00621277
0.000363006
0.0020924
0.000143557
0.000145099
0.00454121
0.000229228
0.000279978
0.000187213
0.000146854
0.00301502
0.000140319
0.000146036
0.000134932
0.00013608
0.000152657
0.00594277
0.000149132
0.000150183
0.0757122
0.000143154
0.000216405
0.000148621
0.000148845
0.000271865
0.000145992
0.00578223
0.00014385
0.000142308
0.000215185
0.000145452
0.000133187
0.000159237
0.000141042
0.000139469
0.000287614
0.000230978
0.00135006
0.000145865
0.000141862
0.000140852
0.00293905
0.000153407
0.000144379
0.00013869
0.000139081
0.00199169
0.0840133
0.000769315
0.000150458
0.000161079
0.0802127
0.00015703
0.000173336
0.000180514
0.00535229
0.0534999
0.00207681
0.000140213
0.000146584
0.000144233
0.00292929
0.000140041
0.000154189
0.000146458
0.000130797
0.000207974
0.000151531
0.0218816
0.00476324
0.000133109
0.000141349
0.00013202
0.00348918
0.000135978
0.00156699
0.000161583
0.0883352
0.00014155
0.000142249
0.000134806
0.000141497
0.000144486
0.00013335
0.000143957
0.000147952
0.000622577
0.000153416
0.000829038
0.000143542
0.000208584
0.00515416
0.000153362
0.0690826
0.000140649
0.000143952
0.00017185
0.000148567
0.00859695
0.000146209
0.000148831
0.000135139
0.0269739
0.000141567
0.00277056
0.000168542
0.00014197
0.000220218
0.00311666
0.000145928
0.000138164
0.000186386
0.000171645
0.00115479
0.000373193
0.000220059
0.000544999
0.000145609
0.000146056
0.000144399
0.000167683
0.000175839
0.00410908
0.0236011
0.000130854
0.000142413
0.000149114
0.000179658
0.000171637
0.00201751
0.000146897
0.000146157
0.0134388
0.000141263
0.000184038
0.000166036
0.000162524
0.0025992
0.000156076
0.000142424
0.000153398
0.000176263
0.000142359
0.0522275
0.000147691
0.000175959
0.000154566
0.0157249
0.000151681
0.000162951
0.000180109
0.00014824
0.000168148
0.000134071
0.000171873
0.000142872
0.000147395
0.00014303
0.000144113
0.000151077
0.000174451
0.000155101
0.000146312
0.00394726
0.00013423
0.000141639
0.000140974
0.000132152
0.00101765
0.000153568
0.000153197
0.00021953
0.00415223
0.000144356
0.000271259
0.00142451
0.000138871
0.000144577
0.00013202
0.0176321
0.0050719
0.000154342
0.000140475
0.000179673
0.0709489
0.0800139
0.00015573
0.0171227
0.0268236
0.00293348
0.000155668
0.000133921
0.000145311
8.83292e-05
0.000208692
0.000147416
0.0895205
0.0002271
0.00249317
0.0091081
0.000145073
0.000234081
0.000925824
4.66245e-05
0.0216505
0.000167293
0.0902601
0.000152427
0.00212571
0.000145379
0.00020216
0.00015628
0.000183089
0.000131356
0.000146465
0.000141282
0.00176098
0.000145399
0.000130989
0.0192167
0.000144557
0.000157138
0.000157673
0.00405928
0.000145036
0.00015006
0.000145959
0.000147087
0.000143029
0.000155228
0.000139599
0.00877317
0.000229859
0.000216473
0.000145845
0.000563112
0.000139228
0.000183696
0.00320744
0.00017772
0.000143374
0.000132548
0.000146854
0.000150901
0.0113444
0.000185326
0.000141112
0.0151131
0.000143069
0.000146011
0.00608822
0.000132283
0.000146179
0.0158347
0.000140006
0.000237489
0.000150781
0.000200412
0.000157
0.000182012
0.000225729
0.000144087
0.0965445
0.091584
0.00014102
0.000169999
0.027696
0.00616658
0.0357354
0.000154431
0.0001395
0.000220253
0.000146641
0.000151468
0.00345558
0.000153199
0.000132366
0.000163451
0.00738712
0.00505741
0.000132495
0.000132027
0.000151352
0.000147148
0.00831888
0.000294494
0.000136225
0.000154808
0.000302488
0.000144517
0.000156885
0.0896162
0.000154927
0.00454367
0.000147665
0.000146206
0.000146072
0.000150378
0.000208553
0.000119
0.00014388
0.00493315
0.00814879
0.000514875
0.000153883
0.000154193
0.0909138
0.000166018
0.00915838
0.000161131
0.000144984
0.000142886
0.00929693
0.0109828
0.000149069
0.00015435
0.000169344
0.000143768
0.000199941
0.000148966
0.000143801
0.00015151
0.000164751
0.000142161
0.000141323
0.0780949
0.000140009
0.00013919
0.000180974
0.000155616
0.00485665
0.000156639
0.000148386
0.00529553
0.000179226
0.000157051
0.000167185
0.00245374
0.000141014
0.000134598
0.000155471
0.000209785
0.000140531
0.000151411
0.000142885
0.000144019
0.0001428
0.0343133
0.000144813
0.00363485
0.000145648
0.00017699
0.000137466
0.000147214
0.000177896
0.00183331
0.0421324
0.000143557
0.000153291
0.000300258
0.000321712
0.000174984
0.000148866
0.00235726
0.000141183
0.000192349
0.000211973
0.000143569
0.00015123
0.000140955
0.000110369
0.00768529
0.00307065
0.00014046
0.000151408
0.000156133
0.00027026
0.000139161
0.000137883
0.000169682
0.0001315
0.000138523
0.00569476
0.000151447
0.00283828
0.000135812
0.000138172
0.000135063
0.000174304
0.000153574
0.000147805
0.0483778
0.000138708
0.000146524
0.000802948
0.000144812
0.000147689
0.000157987
0.000230963
0.0039854
0.000155078
0.00936626
0.000163712
0.000145827
0.0100716
0.000148621
0.000142991
0.000132697
0.000140765
0.000171626
0.0139282
0.000179406
0.00712195
0.00901901
0.000644636
0.000197203
0.00316605
0.000152949
0.00603829
0.000133958
0.000157837
0.000146033
0.000147722
0.000150351
0.0964226
0.00679085
0.000143575
0.000176371
0.000138838
0.0169008
0.00014554
0.00015442
0.000172606
0.000241699
0.00114206
0.000142385
0.000133204
0.079212
0.000202837
0.000200336
0.000187379
0.000321148
0.000153222
0.00773324
0.0132523
0.000139265
0.000138229
0.000141346
0.00015734
0.000144457
0.000150056
0.000151841
0.000143173
0.000153573
0.000147642
0.000141543
0.00669373
0.00309923
0.000133543
0.000246056
0.000151304
0.000169421
0.000186086
0.0002081
0.000139362
0.000174586
0.000189569
0.000136133
0.000175872
0.000343461
0.000146795
0.000138389
0.000153148
0.00374109
0.00959832
0.000135822
0.00491865
0.000146438
0.000147018
0.0777504
0.000140757
0.000139956
0.000139066
0.000141234
0.000151345
0.00350374
0.000170872
0.000143846
0.000143149
0.00014457
0.000141653
0.00718152
0.000133063
0.000171555
0.048506
0.000273631
0.00013787
0.00217743
0.000138779
0.000241937
0.000151783
0.00014057
0.000133897
0.000246561
0.0328257
0.005591
0.000144792
0.000285505
0.00154071
0.004828
0.000153138
0.000260913
0.000143251
0.00683705
0.00396123
0.000178355
0.00260877
0.00509333
0.00508721
0.0910228
0.00318164
0.00450227
0.000138125
0.000155651
0.000304028
0.000192853
0.000143066
0.00819747
0.000148936
0.000139921
0.000138094
0.00027297
0.000194314
0.000174096
0.000239926
0.000163805
0.00525514
0.000149411
0.000141203
0.00014644
0.0052459
0.00254679
0.000163675
0.00333764
0.000149329
0.000151821
0.000164615
0.00236537
0.000177892
0.000140073
0.000222834
0.0152517
0.000149199
9.30429e-05
0.000136695
0.000163431
0.000237032
0.000140201
0.000303797
0.00101938
0.000142947
0.000149473
0.000140398
0.00909346
0.000157108
0.0298842
0.00466301
0.000140913
0.000144519
0.000133664
0.000167371
0.000138589
0.000196086
0.000177657
0.000204034
0.00428736
0.000151015
0.000157603
0.00467027
0.000150179
0.000201216
0.000152376
0.000144885
0.0817582
0.00478526
0.000150572
0.00154295
0.000157089
0.00256009
0.00014018
0.000140125
0.000186171
0.000155819
0.000179952
0.00514114
0.000155242
0.000155091
0.00230357
0.000195534
0.000155036
0.0060117
0.00504933
0.00095683
0.000140516
0.000132811
0.005314
0.00014006
0.000587824
0.000894767
0.000204415
0.0054185
0.000150006
0.000140872
0.0755085
0.00146139
0.000142819
0.0567303
0.000171451
0.000142668
0.000187664
0.000149484
0.000146325
0.000170616
0.00015553
0.000138564
0.000152064
0.000140865
0.000155107
0.00360197
0.000161098
0.00734818
0.000143988
0.000156943
0.000140697
0.000143047
0.00370765
0.000145505
0.00424981
0.000729284
0.000150218
0.00926162
0.000163399
0.00553171
0.000132136
0.00381299
0.000211779
0.000202342
0.000154027
0.00015339
0.000139339
0.0342396
0.000155032
0.00484475
0.000164609
0.000136754
0.00565502
0.000131859
0.0863213
0.000140819
0.0136998
0.000145737
0.000137709
0.000134717
0.00386604
0.000139608
0.000136083
0.000134165
0.000140618
0.000143513
0.000202874
0.00575294
0.000138209
0.000155605
0.000146433
0.000140696
0.000138978
0.00318672
0.0853517
0.000154808
0.000144699
0.000139108
0.000134898
0.000156717
0.000154364
0.000134414
0.00954767
0.0326727
0.00658954
0.000137378
0.000140778
0.000143154
0.000151528
0.000138243
0.000149892
0.000143545
0.000139862
0.000211491
0.000150062
0.000184056
0.0132342
0.0766116
0.000153788
0.000140684
0.000143394
0.0903235
0.000148783
0.00015926
0.000170353
0.000137639
0.000144136
0.000141382
0.019507
0.000144102
0.00847104
0.0035342
0.000176584
0.000143774
0.000154976
0.0039928
0.000153423
0.000168278
0.000157804
0.000166191
0.000137583
0.000155449
0.0599268
0.0051304
0.000139177
0.000145442
0.0221472
0.000153791
0.000174575
0.00017155
0.000533509
0.000143408
0.000154987
0.00396365
0.0391371
0.000182517
0.000138183
0.000142401
0.000139303
0.000146344
0.000202176
0.0048962
4.96031e-05
0.000138108
0.0877278
0.000156839
0.0113801
0.0067101
0.000141315
0.00853835
0.000205857
0.000139055
0.000195043
0.000164688
0.000147388
0.0075195
0.000139702
0.078642
0.00016019
0.0678701
0.0782258
0.000170968
0.000144486
0.000155228
0.000149891
0.000140497
0.000135672
0.000135514
0.0682939
0.00014833
0.000170248
0.00424784
0.0838698
0.000170342
0.000174135
0.000137449
0.0763923
0.000132771
0.00625116
0.0152893
0.0780894
0.00185161
0.00427885
0.0130795
0.000134047
0.000146735
0.000134769
0.000193377
0.000153854
0.0127352
0.000153742
0.0767575
0.000156397
0.000136474
0.000137245
0.000145757
0.000134014
0.000378456
0.0110761
0.083643
0.000139738
0.000171563
0.000153513
0.00015155
0.000127811
0.000144326
0.00538302
0.00953687
0.00014955
0.000152661
0.0043576
0.000156358
0.00136185
0.00470888
0.000148061
0.00464095
0.000155039
0.0844301
0.000140564
0.000243261
0.00014346
0.000646191
0.000220569
0.00463215
0.00411407
0.0919019
0.000207142
0.000237443
0.000144694
0.000143692
0.00940446
0.000501076
7.64654e-05
0.000156729
0.0268663
0.00599189
0.00253057
0.000167676
0.0162408
0.000160918
0.000163587
0.00275322
0.000155755
0.000159002
0.000171442
0.000133306
0.000137312
0.000140776
0.000143547
0.0428044
0.000148508
0.000325581
0.000144612
0.000968611
0.00350895
0.00760074
0.000136533
0.000147947
0.00480632
0.00104977
0.000167464
0.0103206
0.0688401
0.00838163
0.000140114
0.000161818
0.000156144
0.000179418
0.000197285
0.00274097
0.00324897
0.00017876
0.000146515
0.000152285
0.0481228
0.00174372
0.00017467
0.00880665
0.0001406
0.000170632
0.00015107
0.0226032
0.000152062
0.000136452
0.000140194
0.000150861
0.00128047
0.00420141
0.000147402
0.000189078
0.00410354
0.000152701
0.00525577
0.000171016
0.000163745
0.000168886
0.000166071
0.0655666
0.000141556
0.000140182
0.000152662
0.0208475
0.000208283
0.000165268
0.000149271
0.000151559
0.000147138
0.000251153
0.000168856
0.000152188
0.000146886
0.000254168
0.000157976
0.00451635
0.000151447
0.00016173
0.000141246
0.0152857
0.00195245
0.000176582
0.00628031
0.000139578
0.000165842
0.00568662
0.000159113
0.00461519
0.0770948
0.000146577
0.000150604
0.0670408
0.000143349
0.000820932
0.000146815
0.00297908
0.0074151
0.00446847
0.000152092
0.000140816
0.000141988
0.000143582
0.000154641
0.000132522
0.000148078
0.00014059
0.000138861
0.000153096
0.000152562
0.000155482
0.000151334
0.0822696
0.000145387
0.00262144
0.000148324
0.000145234
0.0596162
0.000141475
0.00171954
0.00432804
0.000145933
0.000149739
0.0001675
0.000884649
0.000171842
0.0168665
0.000160269
0.000157718
0.0151238
0.000138858
0.0653251
0.000146251
0.000348299
0.000134184
0.0795964
0.0877958
0.00433967
0.000147657
0.00015354
0.000139373
0.000151745
0.000212008
0.000141639
0.000143457
0.000170911
0.000168372
0.00576352
0.00575615
0.000148639
0.000173618
0.000144433
0.000156752
0.000149881
0.000143425
0.000149056
0.0585011
0.0678006
0.000212535
0.000152755
0.000149194
0.000150605
0.00019534
0.0493581
0.000192495
0.000313955
0.00137126
0.000150782
0.000152566
0.000202706
0.000139759
0.000153104
0.000186483
0.000150521
0.00371022
0.000150651
0.00878868
0.000144896
0.000149435
0.000199613
0.000151028
0.000152321
0.00015528
0.000159322
0.00931693
0.000158296
0.000164107
0.00014745
0.0866785
0.00460573
0.000154232
0.000149057
0.000138783
0.000152337
0.000144407
0.00024952
0.000140305
0.000151257
0.000145552
0.000180684
0.000160161
0.00014709
0.0123336
0.000148063
0.00014974
0.0415588
0.000152758
0.00015434
0.000329564
0.000149113
0.0226389
0.00013999
0.000138878
0.000149047
0.000188358
0.000137158
0.00333408
0.000149198
0.00014145
0.000312092
0.0036851
0.0739188
0.00117547
0.00207721
0.000158654
0.000137852
0.000152433
0.00401602
0.000158885
0.000527047
0.000150546
0.000162064
0.00037869
0.0032922
0.000138613
0.0820303
0.00122064
0.00014061
0.000158594
0.000148759
0.000149166
0.00568954
0.000218779
0.000145716
0.000139722
0.000133889
0.00391311
0.000147143
0.00494436
0.000164602
0.000146888
0.000140442
0.000141521
0.000583034
0.00388931
0.000140008
0.0208051
0.00529484
0.00014943
0.00732837
0.000146597
0.000137976
0.000138624
0.000146701
0.000136288
0.000144934
0.000148409
0.000151462
0.000147546
0.000189833
0.000152434
0.000152369
0.000162395
0.000143287
0.0620375
0.000133912
0.000145094
0.000195119
0.00014042
0.00567346
0.000141248
0.000166871
0.00995267
0.000138222
0.0606602
0.00496383
0.000145955
0.000148344
0.000143582
0.0328533
0.000146285
0.00649147
0.0100715
0.000151707
0.000157671
0.000174594
0.000214217
0.000145399
0.00310683
0.000147145
0.00408319
0.0675552
0.000189123
0.00203259
0.000146001
0.000126048
0.0031511
0.000175224
0.000145656
0.000178729
0.000151805
0.000174404
0.000137418
0.000157073
0.00530165
0.000156713
0.00144038
0.00435259
0.00017142
0.00241571
0.000137621
0.000227873
0.000145804
0.000155838
0.000158147
0.00352524
0.0591968
0.000164668
0.0001551
0.026665
0.000171234
0.000140704
0.000139336
0.00014956
0.000150391
0.000154515
0.000141526
0.0120407
0.000155897
0.000143494
0.000135701
0.000143069
0.000142715
0.0143965
0.000139623
0.00122792
0.000151366
0.00308859
0.000156742
0.000145363
0.000132369
0.000186653
0.000150876
0.0184412
0.00215384
0.00333447
0.000158005
0.000148946
0.000143763
0.000140344
0.000140743
0.00964251
0.000150317
0.000149106
0.000356058
0.000145203
0.000150547
0.0674783
0.0551109
0.0374825
0.000156826
0.0122987
0.000327552
0.000141082
0.000139248
0.000171359
0.000768852
0.0186869
0.010317
0.0291745
0.000143909
0.000139214
0.00026669
0.000162014
0.000148763
0.000195033
0.000148397
0.000151532
0.00336298
0.000309609
0.00019626
0.000156153
0.000158915
0.000181481
0.000289462
0.000145947
0.000140242
0.000144263
0.000257811
0.000139998
0.000153871
0.000245933
0.0567872
0.000137672
0.000141152
0.000132683
0.000146786
0.000145437
0.000175563
0.0130408
0.000149627
0.0691166
0.0090619
0.0257475
0.000169475
0.000151277
0.000146039
0.000142231
0.000139533
0.000134952
0.000146886
0.000309433
0.00030499
0.00013941
0.000137713
0.000149533
0.000147747
0.020043
0.000176076
0.00074591
0.00852874
0.00216929
0.000190485
0.000142918
0.000142814
0.00014256
0.000147753
0.00135748
0.000143623
0.000153286
0.0551242
0.000234459
0.00514573
0.0274517
0.0770809
0.0103057
0.00014341
0.000172933
0.00717797
0.000718688
0.000145496
0.000156045
0.000151292
0.000145723
0.000146296
0.00904016
0.000141991
0.000143466
0.000467992
0.000152786
0.0259819
0.000142863
0.000138249
0.000173049
0.0630813
0.000238482
0.00722822
0.000161458
0.00572141
0.000165419
0.000140705
0.000228035
0.000141516
0.000152263
0.00014714
0.000138279
0.0488517
0.000508752
0.0905336
0.00218373
0.00822041
0.00335607
0.000416157
0.000140214
0.000148818
0.0463427
0.000143342
0.000148026
0.000154027
0.000144954
0.00192042
0.000146532
0.00022804
0.000762581
0.000133921
0.0155602
0.000151412
0.000141968
0.000163983
0.000163328
0.000166026
0.000169115
0.000170299
0.00552434
0.000148032
0.000142901
0.000146198
0.000168562
0.0020831
0.000140202
0.000150319
0.00086382
0.000963859
0.000141178
0.000171386
0.000171775
0.000137273
0.000144252
0.000144672
0.000542748
0.0637669
0.000171683
0.00015029
0.000143608
0.000170562
0.000220966
0.000147165
0.00022196
0.000345847
0.000145993
0.000170723
0.00594291
0.00338601
0.000172109
0.000134845
0.000139259
0.0002389
0.000193964
0.0191913
0.000157926
0.000421182
0.000175931
0.000264659
0.0037023
0.0664994
0.00154219
0.000275374
0.00418268
0.000772776
0.000147865
0.00570409
0.000150117
0.000282478
0.000150942
0.00015022
0.000171844
0.000512256
0.005121
0.000152453
0.000146304
0.000215586
0.000363747
0.000388726
0.000139178
0.000142276
0.000143707
0.000157979
0.000151057
0.000166826
0.00021971
0.00435239
0.000156744
0.000142749
4.88087e-05
0.000148014
0.000144603
0.00114501
0.000143806
0.000153928
0.000135417
0.00368251
0.00018452
0.00419794
0.000154557
0.000212168
0.000343464
0.000162172
0.00412411
0.065081
0.000321996
0.000316137
0.000141039
0.000146301
0.000202432
0.000145314
0.000146993
0.000142549
0.000149628
0.000168242
0.000187413
0.000140854
0.000274257
0.000144844
0.000899142
0.000151286
0.000334017
0.000398322
0.000210059
0.0394847
0.0164804
0.000206422
0.000312809
0.0652782
0.000149196
0.000146538
0.000199618
0.000167956
0.0202691
0.000140774
0.000148342
0.0241947
0.000143246
0.000139382
0.000149235
0.000136993
0.0016877
0.000147102
0.000163121
0.00014798
0.0480615
0.00014273
0.0700832
0.00569448
0.00764298
0.016565
0.000134457
0.000171675
0.000148971
0.000143856
0.00139183
0.000206054
0.0128539
0.00594066
0.000134328
0.000153282
0.000156161
0.000145558
0.0052627
0.000140661
0.000160695
0.00780995
0.00634632
0.00661931
0.000142766
0.000149267
0.0167085
0.000189132
0.00118253
0.00115246
0.000547207
0.0319476
0.000152189
0.000141629
0.000140547
0.000148786
0.000569807
0.000152294
0.00105683
0.000144241
0.000148247
0.00178429
0.000139734
0.000739084
0.000166899
0.00014744
0.00017178
0.000297456
0.000138858
0.000157468
0.011304
0.000145837
0.000146474
0.000169126
0.0869207
0.000155136
0.00021888
0.000137447
0.000415872
0.00213747
0.000198908
0.000145442
0.000138872
0.000172598
0.0001466
0.000198037
0.000331535
0.0102748
0.0134867
0.000143322
0.000220631
0.000140993
0.000243966
0.000145614
0.000452263
0.00518027
0.000145167
0.000978964
0.000143296
0.0529524
0.000165981
0.000137089
0.000215532
0.000140265
0.000140351
0.000138527
0.000132852
0.000169
0.0157829
0.000145616
0.000137979
0.000206247
0.000134473
0.000149492
0.000149647
0.000142078
0.000144887
0.00487975
0.000181977
0.000133866
0.00015037
0.000150889
0.000144543
0.0186569
0.00024696
0.000145041
0.000141004
0.000148208
0.000515091
0.000145988
0.000150718
0.000151104
0.000196749
0.000134185
0.000152621
0.00524135
0.000145791
0.000279439
0.000142814
0.000144972
0.000141047
0.000141927
0.000138527
0.000143968
0.040531
0.00362093
0.000138154
0.000161258
0.00015856
0.00378891
0.000169702
0.000188218
0.000143389
0.000149321
0.000205647
0.000153395
0.00565866
0.00020614
0.000141429
0.000145337
0.101162
0.000148723
0.0113939
0.00500149
0.000141319
9.00819e-05
0.0157815
0.00450208
0.00298137
0.000330515
0.000168866
0.000140879
0.0411719
0.000145743
0.000156993
0.000175579
0.000135307
0.000143475
0.000574498
0.000139107
0.00114658
0.000930897
0.000148819
0.000145171
0.0594774
0.00014261
0.00277308
0.000136792
0.000180574
0.000231347
0.00451471
0.000142751
0.000140317
0.000149423
0.0153442
0.000573363
0.00584744
0.0144789
0.000215563
0.000143858
0.00468598
0.0123857
0.000143624
0.000137267
0.000171641
0.000141135
0.0780027
0.000203095
0.000138156
0.00659875
0.000140174
0.000139992
0.00013666
0.000143396
0.000143236
0.0315501
0.000142246
0.0146989
0.000140306
0.000148935
0.000149413
0.000148447
0.000142019
0.000143496
0.000179182
0.000138416
0.00020765
0.0061155
0.00231412
0.000169366
0.0035594
0.00019079
0.000143135
0.000134311
0.000142799
0.000134774
0.00416857
0.00226052
0.000154184
0.000152074
0.000333907
0.000151954
0.00648341
0.000150831
0.000141122
0.000146124
0.00458751
0.00774358
0.00354361
0.0842662
0.000171687
0.00217215
0.00783268
0.000143802
0.000141504
0.000139129
0.000161788
0.000163654
0.00193549
0.0791935
0.000165936
0.000140252
0.000181318
0.000142156
0.00445564
0.000144387
0.0015187
0.000149266
0.00424128
0.000163147
0.000148409
0.000171611
0.00572399
0.000169009
0.00232171
0.000141213
0.000139093
0.000144742
0.000143583
0.00651759
0.000138224
0.000148631
0.000166144
0.000134003
0.020256
0.000298184
0.000202175
0.000144156
0.000146839
0.00307722
0.00174287
0.000141327
0.000142903
0.00798117
0.000143019
0.000144099
0.00115205
0.000169878
0.00365014
0.00500962
0.00558805
0.000168768
0.000141592
0.000144257
0.000160191
0.000141229
0.000141127
0.00022664
0.00564327
0.000149461
0.00014249
0.000140334
0.000150378
0.0900784
0.000142217
0.000150036
0.00014539
0.000136932
0.000141081
0.00516838
0.000160737
0.00014074
0.000139457
0.000148127
0.000138843
0.000172657
0.00646581
0.000230115
0.000139893
0.000142842
0.000143975
0.000141895
0.00807777
0.000143686
0.00584698
0.000630442
0.000141306
0.000138571
0.00829097
0.000138731
0.000140513
0.000140558
0.00114255
0.000171162
0.000181302
0.000140868
0.000133621
0.000144874
0.00613992
0.000141895
0.000148405
0.000173709
0.00805192
0.000191682
0.000133464
0.00279131
0.000131172
0.000604146
0.000140507
0.000135815
0.000138741
0.000146055
0.000143052
0.000295085
0.000196367
0.00320031
0.000181195
0.000180871
0.000895082
0.000144283
0.0131635
0.00156971
0.000155202
0.00728847
0.000196261
0.000391465
0.000142469
0.000203018
0.000146251
0.000139057
0.000155543
7.51281e-05
0.00359862
0.000154212
0.017039
0.0785217
0.0053259
0.000143167
0.000154391
0.000169054
0.000267567
0.00276773
0.000170339
0.000146204
0.000165866
0.0178298
0.000140406
0.016146
0.000151339
0.00717814
0.000138256
0.000137501
0.000162967
0.000161043
0.0464213
0.0136546
0.00236131
0.000140443
0.000144523
0.00151178
0.00244856
0.000334732
0.000139629
0.00015482
0.000138941
0.000140816
0.000141068
0.00883112
0.00410427
0.00611704
0.00327876
0.0031228
0.0126327
0.000140462
0.000146462
0.00014156
0.000138807
0.000168723
0.000141676
0.000144313
0.000144064
0.000140199
0.000161345
0.0118666
0.000191286
0.000140321
0.000141006
0.000287473
0.000182615
0.000152955
0.000182274
0.00361962
0.00208889
0.000142467
0.000161128
0.00063073
0.000140133
0.0146538
0.000144789
0.000143416
0.000141371