/*--------------------------------*- C++ -*----------------------------------*\
| =========                 |                                                 |
| \\      /  F ield         | OpenFOAM: The Open Source CFD Toolbox           |
|  \\    /   O peration     | Version:  v2012                                 |
|   \\  /    A nd           | Website:  www.openfoam.com                      |
|    \\/     M anipulation  |                                                 |
\*---------------------------------------------------------------------------*/
FoamFile
{
    version     2.0;
    format      ascii;
    class       volScalarField;
    location    "600";
    object      k_0;
}
// * * * * * * * * * * * * * * * * * * * * * * * * * * * * * * * * * * * * * //

dimensions      [0 2 -2 0 0 0 0];


internalField   nonuniform List<scalar> 
9793
(
0.000149203
0.0132846
0.000147545
0.029334
0.000149706
0.000198206
0.000170842
0.0543309
0.000148737
0.00460832
0.000149247
0.00014918
0.000147288
0.0492266
0.000147115
0.000157387
0.000170533
0.000147488
0.0357492
0.000144925
0.000145871
0.000149939
0.0273323
0.0552855
0.0500344
0.000154355
0.000148538
0.000149723
0.000144984
0.00017354
0.0193107
0.000217313
0.000147947
0.000147532
0.000146974
0.000158778
0.000154515
0.000152798
0.0431829
0.000159997
0.000171327
0.0380693
0.0552345
0.000149794
0.00014766
0.000148148
0.0305715
0.000149886
0.000147158
0.000147535
0.000158591
0.000146822
0.000165258
0.000149772
0.000158042
0.0315569
0.000147338
0.000183848
0.00014716
0.000149938
0.000154521
0.000168243
0.000147607
0.000165164
0.000147558
0.000148462
0.0101516
0.00015326
0.000155337
0.0528
0.000147989
0.000168077
0.0498575
0.0878419
0.0637656
0.000149727
0.000161246
0.0650683
0.000147772
0.000149786
0.000161962
0.0368537
0.000170248
0.000151965
0.000155349
0.000195464
0.000149717
0.000179828
0.0438356
0.000167839
0.0319293
0.000390747
0.000589848
0.000163975
0.0543174
0.000147327
0.0672375
0.000168696
0.000153663
0.000149771
0.0413532
0.000163997
0.0848749
0.000147686
0.0646083
0.082048
0.0710646
0.000146989
0.000147797
0.000149879
0.000149516
0.0294221
0.000427252
0.0149147
0.000147886
0.000148636
0.000154495
0.000148204
0.034443
0.000148052
0.0624399
0.000181051
0.077717
0.000168392
0.000154554
0.00014809
0.000171795
0.0235695
0.000205442
0.000207516
0.000152959
0.000146572
0.000148967
0.000151929
0.000157555
0.000181499
0.000308509
0.000154555
0.000149808
0.000172984
0.0396184
0.000157922
0.000147753
0.000175572
0.0317689
0.000219804
0.000148095
0.0651918
0.000146572
0.000148052
0.00014833
0.0463153
0.000153009
0.000148492
0.000147618
0.000255175
0.000171434
0.000147575
0.000261312
0.000147645
0.000178449
0.000153185
0.000145928
0.000183191
0.00014882
0.0382217
0.07045
0.000149449
0.000146994
0.000149398
0.000147818
0.0124524
0.0346782
0.0560708
0.000147248
0.000196176
0.000173338
0.000198888
0.000147681
0.000153218
0.0681121
0.0264102
0.000183243
0.0001481
0.000148359
0.000146949
0.0771746
0.0459084
0.021205
0.0939099
0.000148139
0.0150387
0.000189049
0.000153292
0.000147506
0.000150968
0.000304033
0.00014512
0.000147477
0.000149299
0.000148081
0.000146087
0.000159764
0.000155208
0.0375896
0.000147725
0.000157666
0.000149472
0.000149078
0.0001898
0.00017231
0.0416052
0.000145326
0.0488885
0.000151981
0.000170563
0.000147195
0.000181296
0.000148698
0.000161702
0.00016954
0.000146082
0.000244513
0.0629117
0.000163355
0.00014728
0.000172222
0.0673819
0.000161883
0.000162108
0.0385788
0.000197806
0.000169459
0.000165661
0.000185582
0.000146153
0.0278238
0.0176418
0.000145136
0.000149433
0.0260793
0.000147523
0.000149501
0.000188674
0.000190525
0.000148405
0.000153296
0.000158624
0.000160297
0.000153539
0.000147722
0.000163624
0.0304387
0.000145992
0.0582875
0.000149724
0.000149053
0.000145592
0.0325499
0.000147737
0.0010568
0.051076
0.000148568
0.000148769
0.00173384
0.000147816
0.000149561
0.00014767
0.0483966
0.000179308
0.000152907
0.000190618
0.000182105
0.0773066
0.02401
0.000149523
0.0201182
0.00014974
0.0666729
0.000604651
0.0465526
0.0619292
0.000195992
0.000153084
0.000168899
0.000154584
0.000147726
0.000149851
0.000190523
0.000154491
0.00014883
0.000149882
0.000145313
0.000146664
0.000146003
0.0279909
0.000146932
0.000146983
0.000148552
0.000147296
0.0245215
0.000224386
0.000163871
0.000150203
0.000175531
0.000149575
0.0184664
0.0369482
0.000147709
0.054451
0.000163663
0.000147637
0.00846967
0.0336121
0.000147996
0.000164043
0.000737343
0.000148534
0.000157868
0.000146996
0.000148814
0.0682816
0.000160738
0.000147587
0.000148013
0.000149976
0.000177169
0.000430655
0.000147565
0.00014695
0.000147133
0.0104391
0.0346014
0.0409572
0.000145986
0.000161375
0.000158151
0.000273411
0.000177341
0.000146248
0.000146734
0.000147129
0.000168509
0.000148273
0.057572
0.000148461
0.00014642
0.0872499
0.028717
0.0455672
0.000147343
0.040901
0.000152973
0.000412489
0.0586638
0.0379093
0.000151565
0.000160775
0.000361382
0.0325327
0.0302988
0.0001541
0.000149733
0.000153268
0.000146961
0.000146824
0.000148178
0.000148411
0.000149941
0.0632357
0.00014932
0.000171273
0.00015977
0.0307226
0.000146234
0.000152131
0.0229694
0.000194175
0.0534135
0.000176758
0.000146421
0.000151708
0.000147559
0.000209608
0.000144814
0.0451774
0.00017437
0.000170612
0.0364764
0.0693444
0.000148815
0.000147244
0.000513402
0.000212803
0.000147714
0.0521993
0.000148771
0.000149092
0.000505153
0.000145312
0.000183856
0.000146198
0.0687236
0.000148501
0.000148873
0.0825462
0.000167453
0.000175275
0.000153348
0.000148362
0.000146946
0.0753241
0.000168078
0.000145467
0.00014923
0.000158572
0.000158143
0.00017509
0.0276215
0.000149237
0.000147517
0.000186358
0.000148409
0.0321434
0.000199062
0.000148302
0.000147977
0.000149726
0.000148662
0.000147056
0.0422888
0.000162072
0.00421566
0.000155782
0.000152448
0.000168316
0.000152528
0.0351865
0.000154002
0.000149765
0.00015332
0.000212893
0.000147826
0.000147674
0.000147996
0.000144836
0.000147769
0.000147054
0.000148159
0.000148962
0.000150229
0.000154494
0.000188615
0.00014936
0.000256658
0.000153595
0.000178532
0.0228642
0.000147728
0.0921825
0.000170793
0.000147521
0.000144845
0.00014778
0.072972
0.000182061
0.000144822
0.000148694
0.000149249
0.000164419
0.000174461
0.0714084
0.000147652
0.00014763
0.000157056
0.0269053
0.0455125
0.000151406
0.000152072
0.0605357
0.0289658
0.000212507
0.000148655
0.000146496
0.0385448
0.000147381
0.000173373
0.03657
0.000145356
0.000177549
0.000156517
0.0385319
0.000146921
0.0362329
0.000206781
0.000156748
0.00119655
0.000147343
0.000269523
0.00014851
0.000147203
0.000149441
0.000147568
0.0582774
0.000147297
0.000147002
0.000150128
0.000146031
0.000146507
0.000163706
0.000150122
0.000164548
0.000148069
0.000148099
0.025732
0.000165347
0.000151332
0.0579742
0.000153851
0.000148692
0.000147761
0.000147061
0.0488085
0.000146984
0.000148316
0.0213317
0.0297675
0.00016055
0.000147338
0.000149884
0.000148855
0.00014957
0.0568791
0.000148671
0.110099
0.000153866
0.000274101
0.000149724
0.0115044
0.00015184
0.000182144
0.000147421
0.000186829
0.026333
0.00014857
0.0665785
0.000147449
0.000149404
0.000145754
0.0743595
0.0371167
0.000147822
0.00015735
0.000146972
0.06076
0.000148176
0.000163964
0.0371918
0.000153109
0.000148011
0.000161256
0.000149599
0.000149038
0.000147208
0.000187398
0.000147513
0.0654445
0.000148197
0.000148345
0.000167964
0.000165972
0.00106757
0.000146854
0.0133514
0.000147211
0.000178727
0.00014758
0.000149332
0.000147341
0.000148181
0.000149768
0.000179298
0.000169483
0.0705802
0.000181139
0.000158417
0.000158594
0.000405911
0.00015244
0.0553351
0.0430585
0.000184374
0.0250773
0.0172174
0.000177397
0.000149052
0.000480963
0.000167913
0.000149008
0.000192259
0.000149642
0.000190299
0.000159645
0.00020315
0.000154878
0.0301992
0.0459467
0.000166565
0.000200655
0.000149386
0.000206702
0.000150212
0.000147432
0.000148214
0.000153107
0.000167191
0.03942
0.000182079
0.0422223
0.000151891
0.000151124
0.0387758
0.000185036
0.000151525
0.00017499
0.000149142
0.000479207
0.0864603
0.000148259
0.000163928
0.00017868
0.044088
0.000147521
0.000153716
0.0812945
0.000159184
0.0751024
0.000187412
0.0242082
0.000153731
0.000152666
0.000147834
0.000147601
0.000218404
0.000149886
8.07494e-05
0.000185793
0.000169667
0.000149706
0.000149444
0.000153038
0.000149199
0.000146676
0.000147538
0.000179315
0.0762198
0.0495781
0.00014985
0.000201256
0.000147503
0.0395483
0.000171461
0.000161308
0.000157978
0.000204056
0.00014608
0.000148267
0.000160611
0.000147391
0.00014868
0.000173585
0.0414832
0.000146086
0.000206902
0.0463504
0.000153793
0.0664609
0.0470134
0.000147191
0.000170319
0.000158164
0.000148096
0.000145658
0.000168029
0.0470702
0.0511854
0.000147891
0.000147975
0.000145923
0.000155272
0.000150153
0.000151702
0.00019327
0.000171466
0.000148917
0.0115341
0.000159826
0.000157861
0.000148511
0.00641146
0.000152793
0.000147243
0.000170047
0.000317789
0.000145632
0.000148201
0.000147586
0.000156021
0.00014605
0.000166854
0.000297848
0.000148618
0.000187452
0.000151068
0.000148307
0.00199691
0.0384114
0.000233941
0.000148368
0.000145833
0.0515158
0.000153587
0.0044056
0.000145399
0.000147476
0.0176783
0.103937
0.000159022
0.000185859
0.000163897
0.000147251
0.000149793
0.000147885
0.0482483
0.000148231
0.000149947
0.0338231
0.000154776
0.000201878
0.000157429
0.000147403
0.0369566
0.000149768
0.000147518
0.00014783
0.000157016
0.0268014
0.000148993
0.0001477
0.000147378
0.000147285
0.000147447
0.000147929
0.0335008
0.000157471
0.000150023
0.000148616
0.000157476
0.000172115
0.00015738
0.000155387
0.000149883
0.000145867
0.000151177
0.0345308
0.0677861
0.000152163
0.048392
0.000149381
0.000153297
0.000248815
0.000329464
0.000147077
0.000149129
0.000184401
0.000172278
0.000147167
0.000149626
0.0655763
0.000149768
0.000170932
0.000147945
0.000202768
0.000149618
0.000152068
0.000148739
0.000159
0.000149004
0.000152439
0.000153854
0.000173131
0.000146899
0.000147841
0.000149634
0.000147165
0.00014895
0.00014842
0.000160004
0.000148628
0.000173526
0.0551796
0.000167278
0.000173979
0.000149284
0.000147218
0.0161942
0.0869225
0.000145561
0.0642938
0.019811
0.000145906
0.000147678
0.000147062
0.000173354
0.000174279
0.000328906
0.000146853
0.000153739
0.000146854
0.000148928
0.000151777
0.000169903
0.000148868
0.000195953
0.000148496
0.000164258
0.000147103
0.000150594
0.000147567
0.000168108
0.000163588
0.0240503
0.1203
0.0642404
0.000170738
0.000147495
0.000309074
0.000439859
0.00017698
0.000148564
0.000148437
0.000291582
0.000147017
0.0273848
0.000146336
0.000160374
0.000149159
0.000149779
0.000147115
0.0437625
0.0498244
0.0278394
0.000165079
0.0214909
0.0001476
0.0698103
0.0831894
0.000149785
0.000148256
0.000145966
0.0068338
0.00014523
0.0574284
0.000157381
0.000189998
0.000148922
0.00022124
0.027243
0.000281933
0.000156453
0.000161168
0.000148113
0.0517689
0.000145204
0.000198001
0.000200023
0.000164881
0.07764
0.0546639
0.000152897
0.000151319
0.000147466
0.000188933
0.0564796
0.0169128
0.000146061
0.000413887
0.000156826
0.00019052
0.000169927
0.04265
0.0436505
0.000146747
0.000153893
0.000160957
0.00015383
0.000153608
0.0711023
0.000149248
0.0780837
0.000147507
0.000146513
0.000171062
0.000187703
0.00424942
0.000150226
0.0241659
0.0257404
0.000214283
0.000154358
0.00014951
0.000150222
0.000149466
0.000147612
0.000246004
0.00320342
0.000148817
0.000147603
0.000162271
0.000274557
0.000154536
0.000147579
0.000190178
0.000147545
0.000149817
0.00014532
0.000177031
0.000148062
0.000155056
0.0225529
0.000171584
0.000152262
0.000477234
0.000170421
0.000147518
0.000151593
0.000162606
0.000149724
0.000147606
0.000146681
0.0557479
0.00268186
0.000148714
0.000163689
0.000158632
0.000208256
0.000147814
0.0663505
0.000146881
0.000146115
0.000203194
0.000206776
0.00017601
0.000148114
0.000147172
0.0321714
0.0437764
0.000192371
0.000324751
0.000148564
0.000153461
0.000147971
0.0136589
0.000152091
0.00427583
0.000149881
0.000147857
0.000152924
0.000146269
0.000146967
0.000165123
0.000146386
0.069955
0.000147639
0.000148662
0.000145554
0.000155031
0.0520873
0.0279978
0.000174186
0.0259867
0.000147713
0.000159684
0.000152099
0.060853
0.000147899
0.000146576
0.100129
0.000158717
0.000157567
0.000148628
0.000206372
0.0392357
0.0480304
0.000148484
0.000158141
0.000211711
0.000162277
0.000254452
0.000184918
0.00017115
0.000147025
0.000149637
0.000177163
0.000166199
0.000147761
0.000190094
0.00014602
0.000149146
0.000148843
0.000146709
0.00014751
0.000147804
0.000206014
0.000154491
0.000150861
0.000163652
0.000146235
0.000147556
0.000162167
0.0528019
0.000166295
0.000169281
0.0602869
0.000149518
0.0653605
0.000156808
0.0158605
0.000165159
0.000149283
0.000148747
0.000152184
0.0535828
0.000285156
0.000164905
0.000174549
0.000145779
0.000147533
0.000149622
0.000149277
0.0199988
0.000155158
0.0001482
0.00019167
0.000180654
0.0777149
0.000150413
0.0933563
0.000162739
0.000166949
0.000162798
0.000188186
0.000184988
0.000148836
0.044953
0.000215245
0.000159476
0.0472002
0.000169694
0.000149186
0.000149735
0.000147542
0.000150588
0.000154612
0.0223687
0.000172361
0.000146955
0.000209286
0.00014786
0.0270678
0.000444867
0.000147551
0.0288865
0.000147514
0.00014689
0.000148668
0.0424658
0.0431712
0.000172204
0.000156851
0.00014715
0.000213543
0.000149497
0.000158895
0.000148477
0.000148562
0.000147967
0.0784488
0.000150034
0.000160233
0.000156616
0.000149355
0.000184392
0.000179811
0.000164399
0.000153518
0.000152714
0.0378086
0.0847278
0.000148178
0.000146729
0.000148172
0.000149657
0.0391281
0.0553842
0.000191338
0.000153829
0.000146449
0.084594
0.0454841
0.000148723
0.0420526
0.000145953
0.000175943
0.0127762
0.000146143
0.0317178
0.059736
0.000179384
0.0233673
0.0775675
0.000147099
0.000149793
0.000300442
0.0398243
0.000149535
0.0312148
0.000153896
0.000147499
0.000149809
0.00015172
0.000166945
0.000154429
0.000181908
0.0233435
0.000178035
0.00015806
0.000148388
0.000167014
0.000312978
0.000146614
0.000457591
0.00016562
0.000149416
0.000152725
0.000149573
0.000148664
0.000157077
0.00031306
0.000150114
0.000146407
0.030066
0.0445699
0.000179532
0.000149719
0.000169981
0.000147559
0.000147334
0.0790528
0.0143227
0.00014727
0.000144349
0.0670849
0.0264728
0.000165958
0.000148832
0.082952
0.000150615
0.000147336
0.000153851
0.000147346
0.000145728
0.00014525
0.0771672
0.000211282
0.0001541
0.000248029
0.000170306
0.0428033
0.0812318
0.0471397
0.000195486
0.000147775
0.000149554
0.000149524
0.000147771
0.000165861
0.000147021
0.000168566
0.000158701
0.00399372
0.000148175
0.0342369
0.000158668
0.047384
0.000147294
0.000271106
0.000160841
0.000198062
0.000202347
0.000159268
0.000145222
0.0850267
0.000172188
0.000307981
0.000145479
0.0783433
0.00014804
0.0472181
0.000212791
0.000160685
0.000147523
0.000148469
0.0547674
0.0277017
0.000162185
0.000146006
0.00125728
0.000170006
0.000169029
0.112634
0.000166298
0.00014762
0.101701
0.00014756
0.00016338
0.000146261
0.0234424
0.000146261
0.000153121
0.000211849
0.000434353
0.000149429
0.00017134
0.000154022
0.000166435
0.000147006
0.000190812
0.000151071
0.000165291
0.000147723
0.00014772
0.0355151
0.000159115
0.0507473
0.0865369
0.0236162
0.00014991
0.000146351
0.000146788
0.000155097
0.000164908
0.00016084
0.0200054
0.000152066
0.000217576
0.00016119
0.000149862
0.000147798
0.000179454
0.000233176
0.0147998
0.000147519
0.0364434
0.000146877
0.075857
0.00025829
0.000170721
0.000147845
0.000146691
0.000165755
0.00056345
0.00015284
0.000149772
0.000153432
0.000169203
0.000151352
0.000250858
0.0355493
0.000472597
0.00014895
0.000155917
0.0814094
0.000149173
0.000163539
0.000147173
0.000202488
0.000159691
0.00014761
0.000161479
0.000174353
0.000148337
0.0722211
0.000147512
0.000189767
0.000179929
0.000256493
0.000183669
0.000149024
0.00014873
0.026868
0.000148525
0.00016086
0.00018212
0.000152043
0.000145132
0.0701991
0.000152766
0.000189321
0.000152751
0.000164711
0.000149535
0.0001867
0.000153185
0.000153677
0.0824455
0.000220775
0.000148465
0.000149804
0.000174451
0.0490177
0.000291387
0.000205292
0.000160324
0.000147592
0.000146689
0.0484784
0.000148821
0.0778578
0.000173361
0.0729446
0.000148594
0.000145984
0.000146435
0.000167053
0.000172003
0.000408333
0.0456765
0.000241951
0.000204483
0.000145085
0.000342402
0.000150615
0.000178618
0.000151034
0.000165848
0.000163412
0.000147559
0.000145001
0.000178239
0.000145518
0.000162806
0.000164752
0.0309949
0.0703433
0.000167578
0.0463015
0.000146817
0.000146317
0.000148355
0.000175104
0.000164049
0.000166688
0.000176441
0.00274394
0.000160379
0.000173635
0.000147211
0.000150835
0.0419979
0.00014795
0.000181348
0.000144261
0.00014715
0.0559759
0.000183012
0.000147219
0.000173839
0.000194974
0.0559308
0.0685175
0.000153646
0.000180033
0.000172763
0.00423805
0.000148247
0.0764108
0.036406
0.000151417
0.000156815
0.000145456
0.000190816
0.000147317
0.000147769
0.043631
0.00014881
0.000145211
0.000189707
0.000177203
0.0443228
0.0438805
0.000411436
0.0309908
0.000146519
0.000147523
0.000147235
0.000149308
0.0372219
0.000148353
0.0344352
0.000150589
0.0478827
0.000152321
0.000148503
0.000145619
0.000148815
0.000156953
0.000148494
0.000145015
0.000221112
0.000146719
0.000174136
0.000149362
0.0205068
0.000152374
0.000148398
0.000148356
0.000171592
0.000147185
0.000146169
0.000148462
0.000149376
0.000154927
0.000147143
0.000151324
0.000156938
0.0991129
0.0480178
0.0419218
0.0327462
0.000146306
0.000147857
0.000147605
0.000143961
0.000147558
0.000146106
0.000208743
0.000147113
0.000149649
0.000148316
0.000148146
0.00014791
0.0572774
0.00015419
0.000147652
0.0475472
0.000169804
0.000145823
0.0480938
0.0247506
0.000147972
0.000195939
0.000205498
0.00014819
0.000161081
0.00015174
0.000144815
0.000155506
0.000150234
0.000168854
0.000147911
0.000149617
0.000146195
0.0101853
0.000159738
0.000161293
0.000148053
0.000149748
0.051821
0.00015362
0.000148086
0.000152198
0.000152851
0.000149651
0.000177361
0.0247558
0.000254747
0.0404594
0.000177015
0.000159691
0.000149709
0.0236597
0.000183681
0.000150107
0.000173734
0.00014995
0.000147422
0.00014961
0.0807394
0.000162119
0.000147831
0.000148138
0.000196275
0.000146059
0.000190487
0.000147808
0.000266642
0.000200212
0.00968654
0.000148403
0.000150734
0.000157135
0.000159215
0.000148928
0.000159991
0.000166665
0.010789
0.000149428
0.000189838
0.083775
0.000145298
0.0470148
0.000160893
0.000182627
0.000176446
0.000147527
0.00015599
0.000167782
0.000145641
0.000154366
0.000144742
0.0235587
0.000248941
0.000157998
0.000146628
0.000183399
0.000165384
0.000336393
0.000180806
0.000151262
0.000158757
0.000147605
0.000147662
0.00016761
0.000162484
0.0406901
0.000146684
0.000188455
0.000154425
0.067309
0.0001879
0.0681655
0.000145061
0.000150303
0.000310584
0.000277962
0.000160673
0.0311436
0.00015134
0.000176925
0.00014723
0.000147123
0.0306158
0.000388827
0.000155331
0.000148501
0.000165871
0.000299206
0.000175014
0.000164699
0.000146343
0.000147938
0.000145856
0.000323342
0.0427861
0.000146661
0.00017041
0.0544891
0.000173713
0.000188385
0.0349975
0.0167909
0.073322
0.000146834
0.000151112
0.0392531
0.000147147
0.000162021
0.00025421
0.0529533
0.000151007
0.000156455
0.0232175
0.000203828
0.000283546
0.0609477
0.0450511
0.0428481
0.000148622
0.000145465
0.000147809
0.000150369
0.0163452
0.000162665
0.000185426
0.000188135
0.000163302
0.000148022
0.000232696
0.00014673
0.000160976
0.000147296
0.000160192
0.0159016
0.000893678
0.000148332
0.000145383
0.000167996
0.0448718
0.000185619
0.0486769
0.000160981
0.000148251
0.000165941
0.000144271
0.000167316
0.000157149
0.000147553
0.0469395
0.000173292
0.000211882
0.000166741
0.000148866
0.000145633
0.00352698
0.000153044
0.00014541
0.00014887
0.000149679
0.000145606
0.00961748
0.0367717
0.0358249
0.000262444
0.040842
0.000153778
0.000147568
0.0817568
0.000153798
0.000185992
0.068486
0.000146898
0.0609148
0.0316399
0.000169562
0.000157952
0.000203883
0.000150717
0.000289941
0.000161537
0.0298546
0.000146754
0.000150269
0.000160939
0.000425529
0.000182313
0.000164895
0.0306418
0.0706662
0.000164897
0.000193272
0.000414451
0.000152951
0.00018546
0.0138002
0.000159982
0.00016413
0.0732506
0.000162769
0.000159743
0.000148568
0.000165309
0.00016699
0.000166784
0.000148459
0.0704026
0.000172822
0.0309193
0.0254637
0.0346366
0.000160448
0.000266361
0.0729972
0.000146763
0.00173945
0.115187
0.0309991
0.000155937
0.000152072
0.0418058
0.0238988
0.000145528
0.000177989
0.000146112
0.000147224
0.000453516
0.000153241
0.0322909
0.0451173
0.0377948
0.0498268
0.000145218
0.000164238
0.000148078
0.00014674
0.000168982
0.000173138
0.000156523
0.000372208
0.0351555
0.000149805
0.000156237
0.00024544
0.000152229
0.000188078
0.00016144
0.0408248
0.0418034
0.000221357
0.079573
0.01858
0.0328181
0.0428853
0.0377645
0.000163032
0.000153032
0.000171069
0.000170912
0.053326
0.0443915
0.000148775
0.000155124
0.0420281
0.0299362
0.000154616
0.0337684
0.000147703
0.000215414
0.0773232
0.0807702
0.0001473
0.032089
0.000260409
0.000155228
0.000159031
0.0607591
0.0577266
0.0389556
0.0498576
0.000147974
0.00707513
0.0370709
0.000160017
0.000181733
0.00016852
0.000145975
0.000156147
0.0270524
0.0505282
0.000153547
0.000149069
0.0396035
0.00016652
0.0368893
0.000170942
0.000279202
0.0442206
0.000147818
0.0666011
0.000149891
0.000161461
0.000148243
0.000148129
0.000145745
0.000161687
0.000181818
0.000144386
0.00938716
0.000181891
0.0108564
0.0531351
0.0319571
0.000147198
0.0752778
0.000265703
0.0341726
0.000159051
0.000147559
0.00159498
0.000212891
0.0496754
0.00016267
0.000151112
0.000145629
0.00307049
0.0180675
0.000158502
0.00838778
0.000156753
0.000148609
0.0413118
0.000162424
0.0283622
0.000147839
0.000161148
0.0341869
0.0385137
0.0404793
0.000205441
0.0414558
0.0365038
0.00718497
0.00014818
0.0213373
0.000162617
0.000146965
0.000145127
0.000147669
0.0200882
0.000161708
0.0424702
0.0396875
0.000166644
0.000171999
0.000184178
0.0323547
0.000178991
0.0597934
0.0334711
0.000252225
0.000167578
0.000145981
0.000522846
0.000163228
0.000196536
0.0408147
0.0524459
0.000275463
0.000148511
0.0001529
0.000161692
0.000148252
0.000148054
0.000156816
0.0437007
0.000160204
0.000156137
0.0384603
0.00018209
0.000214599
0.00161654
0.0457658
0.000211994
0.0493629
0.0326301
0.0341792
0.000164138
0.000160839
0.000148439
0.000251682
0.000176205
0.000200086
0.000163875
0.000163473
0.000144004
0.000193847
0.0697329
0.000157656
0.000144987
0.000151548
0.00242825
0.000147
0.000148035
0.000168854
0.0380833
0.000159785
0.000162862
0.000175174
0.000156562
0.000176191
0.000147257
0.000147753
0.000163769
0.000202322
0.000148783
0.000159213
0.000179283
0.0636511
0.000148492
0.0805773
0.000147851
0.0451606
0.000150794
0.000150975
0.000144807
0.000187778
0.000164912
0.0144542
0.0563143
0.000164347
0.000148992
0.000148291
0.0728477
0.00155101
0.000147698
0.000185582
0.0391438
0.000167833
0.000165487
0.000143963
0.00014986
0.000147513
0.0423775
0.000165537
0.00014819
0.0619128
0.000149091
0.000163177
0.000205865
0.000145988
0.000168099
0.000169304
0.0565146
0.000149248
0.000153937
0.000150994
0.000167903
0.000143733
0.000147299
0.0718274
0.000204426
0.000173492
0.000149057
0.0462476
0.000149111
0.000149112
0.000147521
0.000210791
0.0619554
0.000152229
0.0833353
0.00045217
0.000168917
0.0286424
0.00437906
0.03909
0.0160665
0.000174196
0.00017846
0.000192946
0.000166568
0.000147473
0.000156269
0.000160199
0.0636431
0.000148396
0.0567004
0.000147742
0.000189253
0.000173772
0.000150277
0.000157711
0.00881191
0.0219003
0.0206279
0.0346132
0.000146541
0.000180337
0.0432734
0.000155999
0.0459155
0.000160021
0.000168391
0.0446924
0.000165339
0.000147785
0.000179644
0.000183461
0.000147593
0.0384237
0.000231471
0.000145833
0.000149559
0.0001487
0.000147902
0.0486667
0.000148502
0.000166541
0.00014801
0.000149735
0.000157215
0.000147556
0.043078
0.000176129
0.000148519
0.000145468
0.000181986
0.000151747
0.000162594
0.0129361
0.0336735
0.000165384
0.000178149
0.000160036
0.000145128
0.000187824
0.0669926
0.000160985
0.0397885
0.0427247
0.000165291
0.000161982
0.000159596
0.000171518
0.00015979
0.0605541
0.00014864
0.000148618
0.000147694
0.0501259
0.0317781
0.000159256
0.000191514
0.000147723
0.000157677
0.000189607
0.000203249
0.000147589
0.000166617
0.0442329
0.000166722
0.000147818
0.000147697
0.0459071
0.024092
0.000147557
0.000214228
0.000161501
0.000196744
0.000225958
0.000146927
0.0261263
0.000159749
0.000148
0.0754655
0.000195877
0.000147492
0.000148995
0.000205566
0.000146638
0.000148134
0.000204468
0.000160287
0.000161084
0.0275518
0.000154458
0.000169838
0.0440987
0.000147423
0.0643076
0.0477688
0.000154318
0.000177196
0.00019646
0.00014798
0.000191756
0.000144175
0.0683078
0.00025894
0.000147869
0.0191585
0.0796725
0.000147768
0.000147778
0.000199077
0.000167465
0.0328818
0.03361
0.000148514
0.000165339
0.0296236
0.000150539
0.000171821
0.000180042
0.000158512
0.0817119
0.000200821
0.00015243
0.00019808
0.00734519
0.000160821
0.12424
0.000147223
0.000144762
0.000149763
0.000160251
0.0796376
0.000148293
0.00016398
0.0123419
0.033227
0.000149399
0.000157828
0.000285541
0.0460387
0.000149451
0.0692863
0.000162308
0.000173443
0.000163399
0.000150722
0.000155289
0.000147889
0.000147667
0.065987
0.000147352
0.000162102
0.000147774
0.063669
0.000152416
0.000153807
0.000145115
0.000152512
0.000147745
0.000165683
0.0194918
0.00100435
0.000162233
0.000160266
0.000147593
0.000157036
0.000170514
0.0768805
0.0387366
0.000146653
0.000238042
0.000148026
0.000335746
0.0393601
0.026702
0.000146646
0.000170424
0.000178294
0.0582122
0.00017778
0.000147089
0.0892494
0.00018206
0.000159057
0.00680553
0.000149049
0.000148096
0.000159972
0.0762717
0.000147668
0.0519844
0.000157966
0.000723547
0.000166691
0.000153178
0.0695714
0.000156245
0.000148371
0.00020882
0.000147799
0.000335047
0.0689682
0.000195677
0.000154873
0.000172016
0.000147735
0.000176164
0.000165612
0.0544646
0.000148156
0.000146003
0.000155116
0.000157724
0.000169081
0.057609
0.109047
0.000158497
0.000176698
0.000146722
0.124469
0.0141076
0.000179645
0.000147621
0.000149711
0.000152104
0.0784382
0.000148314
0.000156246
0.0710786
0.000182044
0.000148006
0.000178682
0.000180169
0.000147805
0.000153651
0.000179321
0.00027485
0.00016852
0.000164289
0.0486008
0.0442024
0.000275973
0.000154859
0.000148493
0.000152786
0.000152483
0.000182887
0.000171963
0.000157823
0.000180011
0.06589
0.000151838
0.000147847
0.0312586
0.000182445
0.0321907
0.00019916
0.000154035
0.000151387
0.000151366
0.000146596
0.000147414
0.000168961
0.000145138
0.000150233
0.000149127
0.00015038
0.000151349
0.000147599
0.000159483
0.000166243
0.000148652
0.000147569
0.000148683
0.000149904
0.000149094
0.000178589
0.000148251
0.000150974
0.000252002
0.000146605
0.000150851
0.000148873
0.00015726
0.0305963
0.062732
0.0312656
0.0733376
0.0994002
0.000199959
0.000147082
0.000169504
0.000148012
0.000330577
0.00015188
0.000156425
0.000148671
0.000171855
0.000147613
0.000160419
0.000146405
0.0714205
0.000186728
0.00014839
0.0610855
0.0937991
0.000148947
0.000186822
0.000147592
0.000145327
0.0106194
0.00014877
0.000171389
0.000190742
0.000148585
0.000145062
0.00017348
0.0385942
0.000152826
0.000151984
0.0341492
0.000147529
0.032534
0.000170321
0.01458
0.000145669
0.0368583
0.00014763
0.000148531
0.000203033
0.000173423
0.0378329
0.0375767
0.0182847
0.0774608
0.000208489
0.000179637
0.000148155
0.000198916
0.000148536
0.000146604
0.000167116
0.000147316
0.000147777
0.000145338
0.000145155
0.000175611
0.0656048
0.036449
0.000202126
0.0505096
0.000152146
0.000156412
0.000150843
0.000149965
0.000178661
0.000148108
0.000147302
0.000146636
0.000152354
0.000150587
0.000175067
0.000184235
0.000166988
0.000148609
0.000162524
0.000162737
0.0377738
0.0308289
0.000153649
0.000166521
0.000148467
0.0515952
0.0428403
0.000147493
0.000147366
0.000152954
0.000149364
0.000216867
0.00020985
0.0402118
0.000148474
0.118233
0.000148318
0.031278
0.000170049
0.000146514
0.000156642
0.00936583
0.000154458
0.00015667
0.000160274
0.000175839
0.079103
0.000147497
0.000147241
0.000155495
0.000189603
0.000147236
0.0356991
0.115729
0.000147888
0.000143891
0.0136341
0.000178778
0.000147631
0.00165043
0.0097952
0.0692115
0.101147
0.000158112
0.000284337
0.000148338
0.0362804
0.0832336
0.000206694
0.000178748
0.000152096
0.0308938
0.000153307
0.000146958
0.000143995
0.000279145
0.000145437
0.00992063
0.00015067
0.000148489
0.000152937
0.0394348
0.000152155
0.000150177
0.000148351
0.0720518
0.0242861
0.0479857
0.0468321
0.000169388
0.000147685
0.000151877
0.000216747
0.000168938
0.000147802
0.000172644
0.000129172
0.021652
0.00014804
0.0260212
0.0350602
0.000167084
0.000148274
0.000152169
0.00014762
0.000146901
0.000147578
0.000148077
0.000149373
0.000167472
0.000148513
0.000193465
0.000149608
0.000149858
0.0244186
0.000180185
0.000152742
0.000150107
0.0335161
0.000145284
0.000156129
0.000154535
0.000146546
0.00200273
0.00016143
0.000150002
0.000160619
0.000147855
0.00015695
0.000147916
0.000192318
0.000146653
0.000147549
0.0630964
0.000152733
0.000198505
0.000162098
0.000151416
0.000183299
0.00014374
0.00014846
0.000149725
0.0570578
0.00015288
0.000147591
0.000290479
0.00014792
0.000145391
0.000147019
0.000237074
0.000157341
0.000195647
0.000157649
0.000156608
0.000161668
0.000152124
0.000155471
0.00016132
0.0338357
0.000148762
0.000156527
0.000147031
0.000180996
0.000198885
0.000147153
0.000160081
0.0775854
0.000156169
0.000145062
0.0630307
0.000154286
0.000166693
0.0292358
0.000158745
0.00014747
0.000157849
0.000147584
0.000154206
0.000147183
0.00015104
0.000154355
0.00014761
0.00014831
0.000157011
0.000148509
0.000178338
0.000147785
0.000151369
0.000147714
0.000160741
0.036155
0.000148304
0.000148232
0.000167346
0.000151883
0.000147778
0.000203292
0.067206
0.0268073
0.000148304
0.000152893
0.000164805
0.000149596
0.000148724
0.000162891
0.000175322
0.000144637
0.000162517
0.000147967
0.000147131
0.000147057
0.000144647
0.000150886
0.000165906
0.000162886
0.000156924
0.0384826
0.000152845
0.000155952
0.000146603
0.0588358
0.0230015
0.0740123
0.000148201
0.000168779
0.000156897
0.000148032
0.000148688