/*--------------------------------*- C++ -*----------------------------------*\
| =========                 |                                                 |
| \\      /  F ield         | OpenFOAM: The Open Source CFD Toolbox           |
|  \\    /   O peration     | Version:  v2012                                 |
|   \\  /    A nd           | Website:  www.openfoam.com                      |
|    \\/     M anipulation  |                                                 |
\*---------------------------------------------------------------------------*/
FoamFile
{
    version     2.0;
    format      ascii;
    class       surfaceScalarField;
    location    "600";
    object      meshPhi;
}
// * * * * * * * * * * * * * * * * * * * * * * * * * * * * * * * * * * * * * //

dimensions      [0 3 -1 0 0 0 0];
oriented        oriented;


internalField   nonuniform List<scalar> 
14885
(
-0.000237726
-0.000676762
0.000926441
-0.00644229
0.00345525
0.00297963
-0.000547623
0.00523219
-0.00466982
-0.00245845
0.00354634
-0.000855069
8.95158e-05
-0.000759457
0.000840517
0.00542863
-0.00117941
-0.0042468
0.00106159
0.00412537
-0.00519064
-0.00148922
0.00175884
-0.000268206
-0.000970982
0.000664592
0.000344261
-0.00645053
0.00254336
0.00391703
0.00030801
0.00132704
-0.00161912
-0.00312952
-0.00331944
-0.000833419
0.00537339
-0.00452898
0.000910625
-0.00222617
0.00135856
-0.0064468
0.00201929
0.0045151
0.0022357
-0.00128001
-0.00416969
0.00385186
0.000323832
-0.00125022
0.00157387
-0.00592185
0.00125282
0.00469442
-0.00738107
0.00199158
0.00543276
-0.00518164
0.00435939
0.000708061
-0.000934047
-0.00317689
0.000933312
0.000266412
-0.00264616
0.00238035
0.00470383
-0.00102678
-0.00352072
-3.27871e-05
8.1286e-06
3.84043e-05
-0.00559737
-0.000844097
-0.00056661
0.000608021
-5.0671e-06
0.000750527
0.0046835
-0.000704412
-0.00158989
0.00229284
0.000555192
-0.000230096
-0.000185068
-0.00495292
0.000795061
0.00416465
-0.000887586
0.000254623
0.000665275
-0.000283404
-0.000576866
-0.00172217
0.000235728
-0.00172465
0.00154501
0.000182756
-0.000999643
0.000227584
0.00111481
0.000929686
-0.000100544
-0.000773466
0.000430646
0.000249406
5.93609e-05
-6.06329e-05
2.42011e-06
0.00232291
-0.00302944
-0.000682321
0.00447122
-0.00536622
0.000897125
0.0068502
-0.006155
-0.000699116
0.00388922
-0.000568154
-0.00314772
0.00139907
0.0034201
0.000274636
1.80458e-05
-0.000272496
-0.00562983
-0.00070536
-0.000576874
0.00480293
-0.00422184
-0.00527775
0.00554298
-0.000267798
0.00490582
-0.000433195
6.31997e-05
-0.00169159
0.00183342
-0.00341662
-0.000632508
-0.00526133
0.00595259
-0.00555425
-0.000405948
0.00489631
-0.00455172
-0.000351959
-0.000741633
-0.00442657
-0.00207796
0.000674302
0.00140932
-0.00620608
0.00548972
0.000792237
2.59986e-05
-2.33993e-05
-1.03905e-06
-0.00538814
0.00481594
-0.00607739
0.00562786
0.000440666
-0.0047873
-0.000576564
-0.00137022
0.00159661
-0.000222908
-0.0033315
0.000479156
0.00287689
-0.00583932
0.00168147
0.00423733
-0.00694749
0.00238782
0.00459959
-0.000816212
0.00102575
-0.000202347
-7.70633e-05
-0.000160896
0.000252873
-0.000961325
0.000152125
-0.00479037
0.00496654
-0.000176308
0.000488685
0.00541168
-0.00583964
0.000219829
0.00117777
-0.00135222
-0.00111817
-0.00500405
-0.0045256
-0.00122629
0.000116075
0.00151735
-0.00332564
0.00182602
0.000301516
-6.77916e-06
-0.00164375
0.00317981
-0.00406465
0.00534003
0.00608436
0.000768992
0.00258982
-0.000124783
0.000425379
-8.87958e-05
-0.00157451
0.000214183
0.00155151
-0.00744379
0.00293237
0.00452515
0.00515268
-0.0053486
0.000197986
-0.00511606
-0.00179428
-0.00510222
0.00456898
0.00332875
-0.00337052
0.000132493
0.00114898
0.00260273
-0.00372343
-0.00642106
0.00435195
0.002083
-0.00335949
0.00545381
-0.00486614
8.20434e-05
-0.000575819
0.00573024
-0.00306006
0.000348546
0.00273947
-0.00470621
0.00543339
-0.000620294
-0.00339966
0.00332176
-0.00495319
-0.00297829
0.00348189
-0.000504157
0.00583728
-0.000653209
-0.00509692
-0.00471229
-0.00169252
-0.00561206
0.0060726
-0.000457502
0.00185711
0.00461622
-0.00641652
0.00381183
-0.00518262
-0.0057706
0.000605549
0.00518692
0.00577372
-0.00570203
-3.1886e-07
-0.00152621
0.00409952
-0.00258136
-0.00552665
0.00108688
-0.00388808
0.00494626
-0.000530635
0.00636836
-0.00602476
0.00728245
-0.00115175
0.00136741
-0.00525837
-0.00620084
0.000597965
-0.00161734
0.000251709
-0.000441204
-0.00286207
-3.19141e-05
-0.000288223
0.000339146
0.00157269
-0.00409747
0.00254972
-0.000404712
9.05342e-05
0.0004663
-0.000525063
-0.00154503
4.52623e-05
-0.000322617
0.000296056
2.80884e-05
2.59019e-07
-0.00600729
0.00316263
0.00283952
-0.00425812
-0.00175151
0.000959714
0.00309817
-0.00174013
0.00291138
0.00325036
-0.00349565
0.000328373
0.00370953
-0.000409826
0.000408256
0.00553519
-0.0042244
0.00393169
0.000294289
0.00424563
-0.00264713
0.00106352
-0.00107361
5.53082e-05
-0.00507186
0.00366263
0.00149514
0.000389878
-0.00342975
0.00310494
0.00346069
-0.00569458
0.00232662
-0.00316561
0.00453161
-0.000345787
0.00480304
-0.00445896
-0.00644283
0.00153085
0.00494775
-0.00252672
-0.00301474
-0.00678879
0.00608124
0.000745792
-0.00371637
0.00074384
-0.000600011
0.00502445
-0.00441876
-0.000269821
3.19297e-05
0.000280048
-0.00500296
0.00346628
-2.04301e-05
-0.000503762
0.00414995
-0.00630455
0.00217943
0.000174013
0.000806022
-0.00320214
-0.00422942
-0.000299528
0.000241936
-0.00611136
0.000201062
0.00595152
0.000923147
-0.00344662
0.00252065
-0.00399974
-0.00144165
-0.00022446
0.000235033
3.918e-05
0.00656145
-0.00550416
-0.00101734
-0.00473084
0.00517425
-0.00043598
-0.000390285
-0.00263947
-0.00140003
0.0055768
-0.00391335
-0.000309106
0.00387831
0.00101102
0.00334181
-0.0028912
-4.65138e-06
-1.85158e-05
0.000873664
-0.000365278
-0.000301845
5.60467e-05
2.8806e-06
-0.0047481
0.0044004
-9.15488e-05
-0.00066336
0.00617596
-0.00547274
-0.00366997
0.00458926
-0.00131632
0.00158875
0.00517144
-0.00135166
-0.000150427
-0.00157436
0.000755666
-0.000317126
-0.000419434
-0.00294241
0.000378124
0.00259294
0.00151201
-0.00310295
0.004508
0.00099183
-0.00550296
0.000497562
0.0049466
-0.00555201
0.00547471
-0.000965209
0.00130184
0.00212271
-0.00331595
0.00111433
-0.000879707
-0.00138307
-0.0035906
0.000144477
-0.000292602
-0.00600043
-0.000750964
-0.00695794
0.00281892
0.00415679
0.00479761
-2.38793e-05
0.000276379
-0.000231468
-8.15594e-05
2.475e-05
5.75892e-05
-0.00336772
-0.00173055
0.00510934
-0.00487873
0.00542273
-8.41488e-06
2.21592e-05
-1.23119e-05
-0.00447322
0.000180155
0.0042901
-0.000477895
0.000477161
9.54813e-05
-0.000981796
0.00455249
-0.00528017
0.00109203
1.23142e-05
-0.00153108
-0.00540227
0.00563284
-0.00594594
0.000302602
-0.00566827
0.00237327
-0.00236212
0.00413334
-0.00177161
-0.00289476
0.000356627
0.00255939
0.00355741
-0.00331973
-0.000238478
-0.00141305
5.56112e-06
-0.00360105
0.0041879
-0.000587986
0.00502798
-0.00491357
-0.00011137
0.00505361
-0.000881973
-0.00416133
0.000185131
-0.000167159
1.07198e-05
0.00296228
0.000517534
-0.000277704
-0.00308433
0.000190459
0.00223676
-0.00242105
-0.00510266
0.00038107
-0.005869
-4.07936e-05
0.00437742
-0.000847941
0.000225062
0.000234766
-2.26367e-05
0.00458613
0.000482009
0.00515726
-0.00481522
-0.000328851
-0.000430622
0.00128112
-0.000515902
0.00074764
0.00020715
-0.000947002
1.07095e-05
-0.000128741
0.000143925
0.000823855
-0.00526099
0.00443178
-0.00122828
4.45181e-05
0.00143431
0.000330642
0.00362484
0.000279962
-0.00390471
-0.000334136
-0.00258208
0.00389652
-0.000272447
-0.000207694
0.0018097
0.00189058
0.00016458
0.00053117
0.00525277
-0.00572267
-0.00184535
-0.00456412
-0.000823719
0.00623839
-0.00540704
-0.00287109
0.00477281
0.000193545
0.000973712
0.00231349
0.00144759
-0.00526892
0.00191141
-4.05463e-05
-0.000235625
-0.00199929
0.00340861
0.0016079
-0.00693186
0.00241635
0.00455286
-0.00361211
0.000210769
-0.00555008
-0.000731204
-0.00240978
-0.000232378
0.000452533
-0.0048391
0.00438868
-0.0030442
0.000378801
0.00266317
3.02046e-05
-7.6306e-07
4.973e-05
8.93972e-06
-0.00498
-0.000317025
0.00528751
-0.000700285
0.000960172
-0.000435444
-0.00260724
-0.00591836
0.000398989
0.00367618
0.00291671
-0.000636748
1.84319e-05
0.000565493
-0.00631111
0.00107904
4.87445e-05
-0.00549616
0.00263803
0.00286737
-0.00159612
-0.00319836
0.00478783
-0.00542221
-0.000638781
-0.00189343
-0.0049959
-4.96959e-05
-0.000343639
-0.00641891
0.00516856
0.00129988
0.00197041
0.00135005
-5.6184e-05
0.00175855
-0.00146717
-0.000654219
0.00328452
7.19287e-05
0.000971969
-0.000994286
0.0017017
-0.0014486
-0.000293937
0.000332624
0.000278951
0.00482016
-0.0064264
0.00269396
-0.00331956
-0.00233939
-0.00314627
-1.47253e-05
-8.1696e-05
0.00024276
-0.000732756
0.00310122
0.000885355
-0.0041461
0.00341326
-0.00493387
-0.000347793
0.00244995
-0.002386
-1.3383e-05
0.00471231
0.000252434
-0.00139317
-0.0049677
-0.0019637
0.000527806
0.0014458
-0.00645297
0.0021219
0.00437959
-0.00349476
0.000425738
0.0032086
0.000221212
-9.70662e-05
0.000571316
0.000380635
0.000252414
-0.00034783
0.00327699
-0.00292821
-0.00384588
0.00148359
-0.000814483
-0.00559012
0.000702208
-0.000173275
-0.000177815
-0.00351916
-9.69173e-05
0.00361486
-0.00157171
-0.00279217
0.00437927
-0.000446738
-3.78277e-05
0.000504188
-0.000106386
0.000838095
-0.000723527
-1.07198e-05
-0.000168549
-0.00523771
0.00455504
0.000695944
0.00019586
-0.00368702
0.0035131
-0.000198873
0.000694395
-0.000149735
-0.0022146
0.0031839
-0.000973959
0.00319649
-0.00106638
0.00208135
-0.000974247
0.00551854
0.00031537
-0.00583126
-0.00718157
0.0053729
-0.00318321
0.00421329
-0.000127032
0.000163415
0.000616533
0.00428534
-1.19637e-05
4.63653e-06
0.00467006
-0.00421509
0.00213113
-0.00368904
-0.00242525
-0.00365651
-0.00252811
0.00277885
-0.000196758
-1.05905e-06
5.18939e-05
0.00528146
0.000238225
-0.00315071
0.000931912
-0.000669971
-3.11034e-05
0.00198073
0.00288664
-0.0047709
0.000766992
-0.00535011
0.000822914
-0.00185369
-0.00336793
0.00358529
-0.000799417
0.000701331
-2.50598e-05
-0.000253917
-5.29093e-05
-2.92321e-05
0.00268537
-0.000224925
-0.00245888
0.000282896
-0.000296254
5.91597e-05
3.13011e-05
-5.86016e-05
0.00466779
4.19501e-05
-0.00051255
-0.00143973
-0.00118233
0.000142773
0.00104578
-0.000122824
0.000109138
1.37299e-05
0.000477831
-0.000585228
0.00253406
-0.000267943
-0.00224609
-0.0045404
0.00324294
-0.00472602
-0.000686207
-0.00453836
0.0030277
-0.00323797
0.00540175
-0.00557868
0.000300234
0.000360348
-0.00102659
0.000185464
-0.000236608
0.000112879
-0.00236654
0.00256356
0.000133822
0.000711261
-0.00550946
0.00361683
0.00187856
-0.00100087
-0.000174404
0.00104325
6.53006e-05
0.000537745
-0.00421359
-0.00475719
0.00416288
0.000671779
-0.00528959
0.00463164
2.97614e-05
3.2523e-06
0.00279846
-0.000302315
-0.00247048
-0.000472499
0.000404105
0.000289701
0.0011406
-0.000892498
0.00228599
-0.00238237
0.000159326
-0.000545776
0.00129762
-0.000558538
-0.000502245
0.00435679
-0.00381961
-0.000492686
-0.00499072
0.00554831
-0.00285751
0.00323436
-0.00406977
0.00360086
0.000677199
-0.000831084
0.000171005
-2.3885e-05
0.00564267
0.000309048
0.00224727
0.00591751
-0.00532567
6.38071e-05
0.000476657
0.00358669
-0.00406508
6.93961e-05
-1.7262e-05
-1.73134e-05
-0.00597135
0.000362802
0.00129333
-0.000752689
-0.00584305
0.00521863
-0.00290668
0.00037678
0.00253294
-0.00321554
0.00374815
0.000214651
0.000886649
-0.00121313
0.00051543
0.000409652
-0.004005
0.00363925
-0.00361683
-0.00589467
0.00521391
0.0006725
9.70221e-07
-0.00013382
-0.000103044
-2.90502e-05
-2.45967e-06
2.45967e-06
-0.00382006
-0.00152581
0.00273533
-0.00257909
-0.000107758
0.00196173
-0.00142404
0.000592382
-0.00483418
0.00424066
0.000463655
-0.00531229
0.00483497
-0.0052546
0.00143721
0.00581806
-0.00544137
-0.000264147
-0.00418675
0.00477866
-0.00617846
0.00536248
-0.00369014
-0.00076385
-0.00547668
0.00206705
0.00341412
0.000345784
0.000515958
-0.000269724
-3.2532e-05
-0.00377848
0.00323054
0.000598954
-0.000432096
6.67235e-06
-0.00658565
0.00525213
0.0039359
-0.00393979
7.60864e-07
-0.00552053
0.00509331
0.000270019
-0.00244068
0.00219166
0.00060982
-0.00382531
-0.00649228
0.00328919
0.00400402
-0.000232299
-0.00356857
-0.000263348
-0.00145583
0.000401851
0.00054063
-0.0029041
0.00370428
-0.00168774
0.000195375
-0.00361571
0.00385445
-0.000240469
0.000437648
-0.000409862
-2.08554e-05
-0.00558718
0.00094244
0.00317989
-0.00412507
-0.000153763
0.000847344
-0.00032831
-0.00442396
-0.000826719
-0.00011645
0.000963039
-0.000509732
-0.00432481
-0.0013561
-0.00516175
-0.00504236
0.00241381
0.00263262
0.00268175
-0.00519609
0.00253141
-0.00275447
0.00313182
-0.000361389
-0.00508641
-0.00153979
0.000205958
0.00133841
-0.00510065
0.000625373
0.00451673
-0.00139004
0.00582758
-0.00441537
-0.00549568
-1.30538e-05
-0.000313323
0.000347848
-0.00185243
-0.00320817
-0.000227783
0.000244543
3.37569e-05
-0.00277836
0.00338704
0.000225936
0.000958816
0.000222441
-0.000226172
0.000115843
-0.0035168
-0.00136211
0.00491589
-0.00616861
0.000477929
0.00570463
-0.00218752
-0.00285164
-0.00123711
0.00137983
0.00523797
0.00109712
-0.00457495
0.000167682
0.000151444
-0.00266923
0.00536916
0.000603999
0.000939399
9.19836e-05
-0.000900246
-0.000553111
-0.0052451
-0.00438244
-0.00023159
0.00461106
0.0014437
4.44381e-05
3.16407e-05
-4.89643e-05
-0.00410002
-0.000458378
0.000481338
-0.000438778
-4.8737e-06
0.00103659
-0.00438215
-0.000357447
-0.00478532
0.00516143
0.000191372
-0.000134195
-6.19172e-05
1.98638e-06
5.92624e-05
-0.000332275
-0.00120231
-0.000215474
-0.00453272
0.00133583
3.48895e-05
-0.000240635
0.000224518
-0.00185432
0.00135354
-0.0041087
0.00529362
-0.00118327
0.00126447
-0.00536962
-0.00398898
-0.00148191
-0.00150667
-0.00151188
0.00236248
-1.23213e-05
-0.00327004
0.00420721
-0.000274994
2.88824e-05
-4.80619e-06
5.3919e-05
-4.93501e-05
0.000245878
0.000331015
-0.00442231
0.00240447
0.00219076
0.00152126
-0.00148665
-2.473e-06
7.79235e-05
0.00147496
-0.000514551
-0.00321701
0.000159849
0.000848718
-0.0058273
0.00575671
-0.00231108
0.00336578
-0.00265333
0.00306051
-0.004801
0.00458533
0.000705701
-0.000615338
-6.85265e-05
0.00386189
-3.02329e-05
-0.00383326
-0.00474668
0.000360961
-0.00363276
0.000591984
0.00304023
-9.1097e-05
0.000327457
-0.00502889
0.00450683
-3.35248e-05
0.000121115
-0.00188959
-0.0046103
0.000545839
-0.00444093
0.00403364
-0.0027367
-0.000141085
-0.00553536
0.00524812
-0.00321464
-0.000497353
-0.000234527
2.42062e-06
-0.00502255
0.00560974
-2.9439e-05
2.44322e-05
-0.000470262
-0.00137093
-0.000617589
0.00346939
-0.00284768
-3.58446e-05
0.000106769
-0.000863627
0.000927162
5.61549e-05
-0.00361472
-0.00395954
-0.00170324
0.00566292
-0.00086578
0.000985178
0.00299139
-0.00272854
-0.000239381
-0.00520268
0.000466588
0.00474976
0.00443741
-0.00476063
-0.000601531
-0.000215558
0.000278204
0.00274893
0.000434442
-0.00412129
-0.000583642
0.00470158
0.00556933
-0.00553274
6.56779e-05
0.000280177
-0.000438655
-0.00310072
0.00191798
-0.00587893
0.00387005
0.00220914
-0.00607328
-0.000251529
0.00385785
-0.00359214
0.000360197
0.000213989
-0.000461636
4.47032e-05
-4.31617e-06
-3.88268e-05
0.00610304
-0.000693773
-0.00539563
0.00604517
-0.00533802
-0.000686497
0.00624613
-0.00594164
-0.000270866
-0.000226471
0.00247314
-0.000753828
0.000169189
0.00292465
-0.00216495
-0.000562971
-0.00553135
-0.000174059
0.00577223
-5.02554e-05
0.00280064
0.000845803
0.00256548
-0.00325213
-0.00469222
-0.00173655
-0.00249792
0.00543145
-0.0055387
0.000216096
0.00071095
-0.000647114
-4.05297e-05
0.00434561
-0.00571428
0.00327487
-0.0035141
-0.00706031
0.00423939
0.00524189
-0.00574988
-0.00609459
0.00317563
0.00291357
-0.00249969
0.00287699
0.0058287
-0.000992577
-0.00483133
-0.0014103
-0.00557773
0.00482894
-0.000345624
-0.00441617
3.98863e-05
5.66632e-06
-0.00508191
0.000958083
0.00558548
0.000343188
0.000262046
0.000288721
-0.000534276
-0.000704981
-0.00447655
0.00290069
0.00261506
0.00536654
-0.000405415
-0.00485283
0.00551106
-0.00016957
-0.00534044
-0.00080569
-0.00544722
0.000458737
-0.000499571
0.00154835
0.000650061
-0.00129914
0.000146255
0.00116587
0.000279415
-0.00259574
0.0036089
0.00516449
-0.00551084
0.000358867
-0.00121724
0.000260747
-0.00121413
0.00121856
4.07053e-05
-0.00275674
-0.00333706
3.20313e-05
-9.67408e-07
0.000482263
0.00417277
-0.00466177
0.00567853
-0.00180264
0.00094585
-0.000347745
-0.000566213
0.00233722
-0.0022413
-7.40343e-05
-0.00273127
-0.00278371
0.0055145
-0.000707179
-0.00480344
-0.00301277
0.000141125
0.000139987
-0.000224179
-0.000254643
0.000533036
0.000224904
1.92181e-05
-0.000224495
0.000509776
2.99364e-06
-0.000501185
0.00170944
-0.00029783
-0.00140102
-0.00600205
0.00559143
-0.000614057
-0.00497707
0.00510401
-0.00525453
0.000259727
1.71754e-05
-6.86046e-06
-8.18261e-06
-0.00493869
0.00456135
0.000370748
-0.0048693
0.0054961
0.00125173
4.54704e-05
5.22545e-05
0.00118324
-0.000961723
-9.73527e-05
-0.000514706
-0.00443206
-0.00270705
-0.000196583
-0.000178203
-0.00110387
0.00219591
-0.0024128
-0.00467559
0.00219903
0.00262761
-0.000682315
0.0056761
-0.004981
0.000836444
-0.000331275
-0.000488027
0.000372268
0.000604108
-0.00334364
0.00576533
0.0040963
-0.00112456
0.00575994
-0.00592313
0.000265093
0.00026253
-0.000377077
0.000204456
0.000333958
0.0054287
0.000233888
-0.00558076
-0.00498697
0.00547408
-0.000485931
0.00329682
-0.000300842
-0.0028444
-0.00125127
0.000129255
0.00114004
-0.000307833
0.000298339
0.00503209
0.000801398
0.0054889
0.000418704
-0.000733121
-0.000393386
-0.00295772
-9.73481e-05
-0.00280808
-0.000282328
0.000289141
0.00518
-0.00472933
0.000644636
0.000808355
-9.41335e-05
-0.000828548
0.000845953
-0.000891389
0.00102421
-0.000423904
-0.000354154
-4.29407e-05
-0.0011305
0.00355795
-0.00308271
-4.36996e-05
-0.000244671
0.00281063
-6.52209e-05
-0.00268063
0.00248259
0.000295776
0.00485353
-7.56423e-07
-6.99639e-07
0.000832379
0.000219484
-0.000293304
0.000151727
-0.00536345
0.0049937
0.000379809
0.00101219
0.00316359
0.00284667
-0.00401949
0.00126855
-0.000223573
0.000298062
0.00408735
-0.00114968
0.000359896
-0.00190868
0.0041188
-0.000208089
-0.00102517
0.000472388
0.00038291
0.00291107
-0.0055689
-0.0005984
-0.000819009
-0.00260682
0.00343034
-0.00619595
0.0049057
-0.000625878
-0.000959149
0.0012202
0.00054865
-0.00566211
0.00511583
0.000941909
0.000275775
0.00271883
-0.0044998
0.00179163
-0.00383558
0.00302109
-0.000807168
0.00235233
-0.00278687
-0.00216311
-0.00236095
-3.72762e-05
0.00555179
-0.00167618
0.00290006
-0.0012208
-0.00480264
-0.000543263
0.00221822
-0.00246599
-0.0016231
0.00390852
-0.00228092
0.00534453
-0.00504709
-0.000214857
0.00284789
-0.00265307
-0.00018654
-0.000172827
0.00294164
-0.00266957
0.00613045
-0.00565153
-0.000369356
6.13595e-05
0.000665004
6.65504e-05
-0.000882721
0.000900565
-0.0028382
0.00116336
-0.00569897
0.00492785
4.98712e-05
-2.84023e-05
-0.00410078
0.000159957
-0.00456039
0.00517008
-0.000509048
-0.00521065
0.00576166
-1.36338e-05
-4.45497e-05
-0.000323983
-0.00545633
9.40526e-05
0.000623358
-0.00017484
-0.00258975
0.00349699
-0.000348408
-0.00308908
-0.00245409
-0.00224817
0.000530931
-0.00551413
3.07069e-05
0.00550627
1.08519e-05
8.60891e-06
8.76251e-05
-0.000203177
-0.000189647
0.00335466
-0.00306797
0.00232011
-0.000161942
-0.00203698
0.00380874
-0.003935
0.000137502
0.000280572
0.00522937
-0.00533756
-0.000241244
-0.00571156
0.000201334
-0.00042993
-0.00286739
0.00325895
-0.00311878
-3.45798e-05
0.000144688
0.00534653
0.000118
0.00367577
-0.000132599
2.75486e-05
-0.00227933
0.0024131
-5.06262e-05
-0.000420724
0.00277597
0.00223107
0.00330877
8.22728e-05
-7.66462e-06
-7.24816e-05
-0.000872624
0.00618247
-3.72593e-05
-0.00018726
0.000553332
-0.00384908
0.00201027
0.00183558
0.00449346
0.00396575
0.000414845
-0.00251183
0.00545619
-7.2663e-07
5.28911e-05
-5.19446e-05
0.00256219
-0.00499244
0.00235801
-0.00277611
-0.0028502
0.00278057
0.000184704
-0.000270504
0.000156371
0.000379419
0.00317535
-0.00155386
0.000321494
0.00123858
-0.000172689
-0.00258562
0.0053662
-0.000710522
-0.00172293
-0.00183962
0.00361976
3.20109e-05
2.80009e-06
0.00230794
-0.00258517
-0.000306306
0.00376343
-0.00340409
-0.000370778
0.00395482
0.00294324
0.00119009
-0.000421408
0.000474819
-3.46887e-05
0.00304453
-0.00344642
0.000209403
-0.00019752
5.34166e-06
-8.55118e-06
-5.64551e-05
0.000964959
-0.000972499
0.00339044
-0.00372596
-0.000235548
-0.0041342
0.00431131
0.00350447
-0.000515869
-0.00291503
-0.00240689
0.000973045
0.0014736
-0.000258631
0.000708141
0.00106858
0.00202
-0.000699217
-0.00476378
3.44644e-05
-6.93768e-07
-3.33134e-05
0.00440458
-0.00372725
-0.00567952
0.00542578
0.000322434
0.00250927
-0.00563722
0.000636536
-0.00410028
0.00139119
0.00271369
0.00416243
-0.00354153
-0.000397063
0.000446381
-0.000136315
9.43408e-05
4.26437e-05
0.000578343
0.00013679
-0.000476048
-0.000144076
0.00302313
-0.00265459
-0.000236822
0.00275865
-3.74134e-05
-0.00267171
0.000418637
2.62307e-05
-0.0001761
-8.29792e-06
-0.000217851
0.00242194
-0.00316438
0.00148928
-0.00109431
-0.00503193
2.66177e-05
0.000706801
-0.00537419
-0.00144999
-0.000919148
-0.00134309
-0.00631635
0.000389779
0.00593652
0.00315038
0.00365777
0.00241383
-0.00128939
-2.4424e-05
1.3462e-05
0.00156304
-0.000347363
-0.00460874
0.00299071
0.000103442
-0.00423908
-0.00045214
0.00467862
-0.00224843
-0.000171854
0.00229626
-0.00392287
0.00263905
-0.00509955
-0.000504844
-0.000205735
0.00167675
-0.00427807
0.00265214
0.00387818
-0.00593983
0.00207904
0.00039724
-0.000434532
4.33909e-05
-0.00113771
0.000937112
0.000206489
0.00503479
-0.000182376
-0.00484822
3.31907e-05
3.30313e-08
0.000473426
-1.73059e-05
-0.000446365
-0.000155998
0.000927246
0.00457079
-0.0049104
0.000137415
0.000108155
-0.00451032
0.00354244
0.00544618
-0.00494184
-0.000437447
-0.000276469
-0.00153412
0.00426493
0.00349461
-0.000239168
-0.0031699
-0.000528475
-0.00407362
0.000754718
0.00530778
-0.000258067
0.000557108
-0.00139354
0.00106627
-4.46768e-06
-0.000640362
0.00065386
5.0317e-05
0.00281432
-0.00279179
-0.00352611
0.000297994
0.00327484
-0.000762162
-0.00540611
1.86607e-05
0.00281448
0.0058456
-0.000177435
-0.00691925
0.00457647
-0.00537474
0.000560901
0.00480669
-0.00032699
-0.00315055
-0.00601338
0.000699914
0.000223387
-0.000238807
1.67005e-05
-2.67876e-05
0.00551157
-0.000937182
-0.00536833
0.000498546
0.000708878
0.00276719
-4.86832e-05
-0.00266081
-0.00481763
-0.000523021
0.00541284
-0.00104451
0.00205707
-0.000702823
0.00158578
-0.000615742
-0.0059537
0.000172944
0.00581987
0.00688125
-0.00466796
0.000530986
-0.000294533
-0.00580424
0.000844866
0.00505176
1.9025e-05
-1.7595e-05
-0.000378971
-2.22387e-05
0.0030521
-0.00281588
0.00322846
-0.000251234
0.000275813
7.91941e-05
4.4067e-06
-0.00102772
0.000955768
8.88539e-05
-0.00616567
0.00108386
0.00512797
-0.000760882
0.000661891
0.000111334
1.9025e-05
0.00478208
0.00174379
-0.000192077
-0.00154065
-0.00477943
0.000530339
-0.000112983
-0.00208703
-0.00299226
3.25861e-05
0.00302844
-1.5114e-05
-0.00128132
0.00455952
-8.34497e-05
8.29341e-05
-0.0063788
-9.77565e-05
-0.000649458
-0.000709563
-0.00573803
0.00645495
-0.000958494
-0.000198001
-0.00390424
0.0038929
-0.00353955
-0.000306028
-0.00403433
-0.00458665
-0.000211963
-0.00322042
-0.000592681
0.000596939
3.33611e-05
9.01144e-07
-9.66539e-06
0.000493081
0.00381161
-0.00369821
-0.00010853
-0.000580222
0.00579614
-0.00521214
-0.00522198
0.00394427
-8.32822e-05
0.000966742
-0.00319482
0.00223634
-0.000235347
-0.0011545
0.00216283
-0.00237253
0.00264111
0.000161902
-0.00333747
0.00161393
-0.00431341
0.00478912
-0.00542737
0.000695021
0.00475358
-0.000638637
-0.00147192
0.00536718
-0.00352215
0.00342405
-0.000947637
0.00273767
-0.00539526
-0.000658653
-9.02812e-05
1.51322e-06
0.000561648
-0.000399655
0.00556899
-0.00297973
-0.00257013
-1.70088e-05
3.47022e-05
-1.50615e-05
0.00621035
0.00310966
0.000516374
-0.00347857
0.000481544
-0.00540404
0.00491131
0.00441955
-0.00292188
3.38717e-05
2.9592e-06
0.004271
0.000282645
0.00524273
-0.00472975
-0.000401622
0.00585906
-0.00493574
-0.000908496
0.000212948
-0.000220278
-0.000911232
2.13332e-05
1.53477e-05
-2.87582e-05
-0.000467597
0.00575334
0.00466731
0.000542107
-0.00513432
-0.000203454
0.00329243
0.000267715
-0.00472449
-0.000438344
0.000158223
0.00227041
0.000184526
-0.00463495
0.00444443
0.00327477
-0.00445286
0.00493253
0.00262999
0.000250597
0.00215877
-0.00194838
-9.87938e-05
0.0037841
-0.00430637
9.74425e-05
-8.18269e-06
0.000409616
0.000624329
0.00465585
2.4979e-05
-0.00029573
-0.00314851
0.00300693
-0.000320752
0.00105725
0.0002534
-0.00588141
0.000692235
0.00519008
0.00316343
-0.000464452
-0.00491337
-1.29818e-05
0.000179972
-0.000134106
0.000554985
0.00233524
-0.000167577
1.45022e-05
0.000169067
0.000707368
0.000828727
-0.00540324
0.00493564
0.00146824
-0.00108546
0.00391281
-0.00558163
0.00167255
-0.00517458
-0.00547109
-0.0001551
0.00563355
0.000730967
-0.00542589
-0.00519108
-0.000687247
0.000106403
0.00599997
-0.00268893
-0.000347263
-0.00324364
0.000551726
0.00304799
-0.00564496
0.00496398
-0.00413857
0.00376504
-0.00455111
0.00472948
-0.00629496
0.00312885
3.2236e-05
1.02314e-05
-3.06018e-05
-0.00189034
0.00138492
0.000532444
3.14083e-06
0.000220456
0.00621782
-5.60378e-06
-0.000577575
0.00273262
-0.00256244
-0.000158787
0.00454862
-0.00515552
-1.73424e-05
0.000261885
0.00470224
-0.000489078
-0.00420621
-0.000737079
-0.0028952
-6.76147e-05
-6.94988e-05
-0.000258059
-0.000169292
-1.28738e-05
3.36554e-06
3.97864e-05
0.00022627
0.00519638
0.00399967
-0.000146996
-0.0038672
7.75749e-05
0.00379571
-0.000760379
-7.20143e-06
0.00078828
-0.00520476
0.00471283
0.000506749
0.000186782
-0.00334578
0.00316872
-0.0032067
0.00493853
0.000459137
-0.000565375
0.000384738
0.000112337
0.00394
-0.00405448
-0.0056072
0.000617937
0.00503676
0.00273162
-0.000142489
-0.00257539
6.88534e-06
-0.000522471
0.000525781
-0.000142915
0.000472965
0.0048874
-0.00549715
-0.000145039
-0.000862944
-0.0057868
-0.00497359
-0.000429946
-0.0031242
-0.00162478
-0.000101493
0.00173084
0.00532437
-0.000899412
0.00479436
-0.00540868
-0.00242151
-0.00393613
-0.000207769
-0.0038782
0.00398842
-0.00410422
-0.000506159
0.00461818
0.000187395
-0.00228943
0.0021078
-0.00053984
-0.00400153
0.00454896
-0.00536602
-0.000432524
-0.00306151
0.00355849
0.000663548
0.00474125
-0.00540976
-0.00491876
0.00283852
-0.00464668
-0.000614944
-0.00457421
0.00190761
-0.00386561
0.00196348
0.000105592
0.00271333
-0.000579968
-0.00450914
0.00396881
-0.00108917
-0.00288761
-3.80982e-05
0.000103056
0.000604996
0.00276187
-0.0026393
0.00367303
0.00335697
-0.00347798
6.79873e-06
-0.00233568
-0.000334708
-0.00152701
0.00501477
0.00518233
-0.000384765
-0.00478172
-0.00164353
2.64825e-05
0.00162444
0.000550721
-0.000382194
-0.00564796
0.00461891
0.00545341
-0.00577181
0.00506883
0.000342719
-0.000514917
-0.000738634
0.00591148
-0.00515974
0.00277178
-0.00260165
-0.000159201
0.00333281
-0.000228134
-0.00301084
0.000116735
-0.000748373
0.000661575
-0.000575791
0.00530247
-0.00517898
-0.000480541
5.83546e-05
0.0029959
0.003348
-0.00360184
-0.00344357
0.00307526
-7.76393e-06
-1.65696e-05
-0.00186571
0.000856741
-0.000419475
0.00439173
-0.00157704
-0.00264408
0.00423882
-0.00548194
-0.00599421
0.000813452
0.000693887
-7.52497e-05
-0.000602081
0.000694838
0.00278186
0.00280555
-0.00109483
0.00260796
-0.000153271
-0.0045242
0.00502408
-0.00483393
-0.000148275
0.00364592
-0.000215837
-0.00341784
-0.000714074
-7.638e-05
0.000269527
-0.000288745
2.16384e-05
-0.00586564
0.000126437
0.00324123
0.000178503
-0.0014373
0.000252548
0.0011944
0.00453007
-0.00521325
0.000502533
-0.000374089
0.00552188
-0.00510845
-0.00287751
0.000223229
-0.00527644
0.00032616
-0.00139832
-0.00390462
8.33788e-05
-0.000723117
0.000656639
-0.00506166
-0.000400472
0.00550497
0.00488482
0.000312601
-0.000784399
8.07724e-05
-0.000318121
-0.00199545
0.00148357
-0.00145384
2.18617e-05
0.00343724
0.0017434
-3.07206e-05
1.65026e-05
0.00198604
-3.30356e-05
-0.00188266
-0.00261714
0.000158935
0.00247161
0.00311659
-0.00339441
-0.00484176
-0.000844963
-4.53075e-06
0.00087885
-5.45637e-05
0.0015858
-0.000822545
0.000614251
0.000228586
-0.000702928
-0.00527561
0.00369302
0.000555768
-0.000538766
-0.00443132
-0.000316096
0.00194663
0.00527812
-0.000547628
-0.000434865
-0.00497493
-0.00313491
-0.00482343
-0.000425308
0.000361327
-0.000473374
0.00032179
-0.00132076
0.00524026
-0.00137962
0.00168815
-0.000295603
0.00369317
0.00340094
-0.00309168
-0.000310828
0.00549047
-0.00346566
-0.00547105
0.00361727
-5.97343e-05
-0.00518731
-0.0006357
1.80735e-06
0.00032478
0.000233678
0.00291724
0.000480689
0.00529576
-0.0067978
0.00430005
0.000849235
0.000115397
-0.000963673
0.00235581
9.77085e-05
-0.000745461
0.000648777
0.00574313
-0.00053979
-0.0052012
0.000231388
-0.00159777
-0.000664874
-0.000161792
-0.0024405
-0.000637551
-1.93902e-05
0.000680801
0.00395552
-0.00525153
-0.000457047
-3.16686e-05
-0.000534117
0.000704471
0.00539919
-0.00476388
-0.000588282
0.000282675
-0.00403111
-0.000122041
0.000970628
-0.000585691
0.00378832
2.68123e-05
0.00178815
-0.000315289
-0.00144528
-0.00448729
-0.00180509
0.000420985
-0.0001352
-0.00580285
-0.000106554
0.00234949
-0.00240348
8.95089e-05
-0.000111222
-0.000309173
0.000550747
-0.000403043
1.49072e-05
0.000411132
-0.000455369
-0.00442366
0.00487491
0.00396741
-0.000167893
-0.00379775
-0.00146361
0.00117505
-0.00127706
0.000206579
0.00360948
0.00026366
0.00306137
-0.00327999
-0.00150977
-0.000157973
-0.00395807
6.42979e-05
0.00123711
0.00185302
-4.70025e-05
-0.00173569
0.00319659
-0.00608263
0.00651539
4.35973e-05
-1.50728e-05
-0.00573079
0.00530721
0.00106695
-0.000852516
9.98248e-05
0.000771189
0.00342493
-0.00494022
-0.000641088
-0.000115136
-0.000720174
-0.00252495
0.00237787
-0.000153887
-0.00114579
0.00130396
-0.000130281
1.53136e-05
0.000130927
-0.000522665
0.005568
-0.00504445
-0.00540261
0.00506765
-0.00183905
0.00375251
0.0049727
0.000493048
-0.00567822
0.000569827
0.00510905
0.000111211
0.00216057
-0.000379963
0.00400741
0.00563547
-0.000654968
-0.000125171
0.000123275
1.99829e-05
0.00416315
0.00272167
-0.00365277
0.000568898
0.00189023
3.01515e-05
-2.96865e-05
1.56787e-05
-0.0012562
0.00110653
-0.00017246
-0.00210989
4.43413e-06