/*--------------------------------*- C++ -*----------------------------------*\
| =========                 |                                                 |
| \\      /  F ield         | OpenFOAM: The Open Source CFD Toolbox           |
|  \\    /   O peration     | Version:  v2012                                 |
|   \\  /    A nd           | Website:  www.openfoam.com                      |
|    \\/     M anipulation  |                                                 |
\*---------------------------------------------------------------------------*/
FoamFile
{
    version     2.0;
    format      ascii;
    class       pointVectorField;
    location    "600";
    object      pointDisplacement;
}
// * * * * * * * * * * * * * * * * * * * * * * * * * * * * * * * * * * * * * //

dimensions      [0 1 0 0 0 0 0];


internalField   nonuniform List<vector> 
10400
(
(0 0 0)
(0 0 0)
(0 0 0)
(0 0 0)
(0 0 0)
(0 0 0)
(0 0 0)
(0 0 0)
(0 0 0)
(0 0 0)
(0 0 0)
(0 0 0)
(0 0 0)
(0 0 0)
(0 0 0)
(0 0 0)
(0 0 0)
(0 0 0)
(0 0 0)
(0 0 0)
(0 0 0)
(0 0 0)
(0 0 0)
(0 0 0)
(0 0 0)
(0 0 0)
(0 0 0)
(0 0 0)
(0 0 0)
(0 0 0)
(0 0 0)
(0 0 0)
(0 0 0)
(0 0 0)
(0 0 0)
(0 0 0)
(0 0 0)
(0 0 0)
(0 0 0)
(0 0 0)
(0 0 0)
(0 0 0)
(0 0 0)
(0 0 0)
(0 0 0)
(0 0 0)
(0 0 0)
(0 0 0)
(0 0 0)
(0 0 0)
(0 0 0)
(0 0 0)
(0 0 0)
(0 0 0)
(0 0 0)
(0 0 0)
(0 0 0)
(0 0 0)
(0 0 0)
(0 0 0)
(0 0 0)
(0 0 0)
(0 0 0)
(0 0 0)
(0 0 0)
(0 0 0)
(0 0 0)
(0 0 0)
(0 0 0)
(0 0 0)
(0 0 0)
(0 0 0)
(0 0 0)
(0 0 0)
(0 0 0)
(0 0 0)
(0 0 0)
(0 0 0)
(0 0 0)
(0 0 0)
(0 0 0)
(0 0 0)
(0 0 0)
(0 0 0)
(0 0 0)
(0 0 0)
(0 0 0)
(0 0 0)
(0 0 0)
(0 0 0)
(0 0 0)
(0 0 0)
(0 0 0)
(0 0 0)
(0 0 0)
(0 0 0)
(0 0 0)
(0 0 0)
(0 0 0)
(0 0 0)
(0 0 0)
(0 0 0)
(0 0 0)
(0 0 0)
(0 0 0)
(0 0 0)
(0 0 0)
(0 0 0)
(0 0 0)
(0 0 0)
(0 0 0)
(0 0 0)
(0 0 0)
(0 0 0)
(0 0 0)
(0 0 0)
(0 0 0)
(0 0 0)
(0 0 0)
(0 0 0)
(0 0 0)
(0 0 0)
(0 0 0)
(0 0 0)
(0 0 0)
(0 0 0)
(0 0 0)
(0 0 0)
(0 0 0)
(0 0 0)
(0 0 0)
(0 0 0)
(0 0 0)
(0 0 0)
(0 0 0)
(0 0 0)
(0 0 0)
(0 0 0)
(0 0 0)
(0 0 0)
(0 0 0)
(0 0 0)
(0 0 0)
(0 0 0)
(0 0 0)
(0 0 0)
(0 0 0)
(0 0 0)
(0 0 0)
(0 0 0)
(0 0 0)
(0 0 0)
(0 0 0)
(0 0 0)
(0 0 0)
(0 0 0)
(0 0 0)
(0 0 0)
(0 0 0)
(0 0 0)
(0 0 0)
(0 0 0)
(0 0 0)
(0 0 0)
(0 0 0)
(0 0 0)
(0 0 0)
(0 0 0)
(0 0 0)
(0 0 0)
(0 0 0)
(0 0 0)
(0 0 0)
(0 0 0)
(0 0 0)
(0 0 0)
(0 0 0)
(0 0 0)
(0 0 0)
(0 0 0)
(0 0 0)
(0 0 0)
(0 0 0)
(0 0 0)
(0 0 0)
(0 0 0)
(0 0 0)
(0 0 0)
(0 0 0)
(0 0 0)
(0 0 0)
(0 0 0)
(0 0 0)
(0 0 0)
(0 0 0)
(0 0 0)
(0 0 0)
(0 0 0)
(0 0 0)
(0 0 0)
(0 0 0)
(0 0 0)
(0 0 0)
(0 0 0)
(0 0 0)
(0 0 0)
(0 0 0)
(0 0 0)
(0 0 0)
(0 0 0)
(0 0 0)
(0 0 0)
(0 0 0)
(0 0 0)
(0 0 0)
(0 0 0)
(0 0 0)
(0 0 0)
(0 0 0)
(0 0 0)
(0 0 0)
(0 0 0)
(0 0 0)
(0 0 0)
(0 0 0)
(0 0 0)
(0 0 0)
(0 0 0)
(0 0 0)
(0 0 0)
(0 0 0)
(0 0 0)
(0 0 0)
(0 0 0)
(0 0 0)
(0 0 0)
(0 0 0)
(0 0 0)
(0 0 0)
(0 0 0)
(0 0 0)
(0 0 0)
(0 0 0)
(0 0 0)
(0 0 0)
(0 0 0)
(0 0 0)
(0 0 0)
(0 0 0)
(0 0 0)
(0 0 0)
(0 0 0)
(0 0 0)
(0 0 0)
(0 0 0)
(0 0 0)
(0 0 0)
(0 0 0)
(0 -0.000143024 0)
(0 -0.000143533 0)
(0 -0.000109496 0)
(0 -8.78784e-05 0)
(0 -0.000121077 0)
(0 -5.99512e-05 0)
(0 -0.000122987 0)
(0 -0.00012485 0)
(0 -7.50842e-05 0)
(0 -0.000103031 0)
(0 -6.51428e-05 0)
(0 -6.26401e-05 0)
(0 -5.82055e-05 0)
(0 -5.24192e-05 0)
(0 -4.02535e-05 0)
(0 -3.64185e-05 0)
(0 -3.14443e-05 0)
(0 -2.9686e-05 0)
(0 -0.000116751 0)
(0 -0.000101352 0)
(0 -1.92157e-05 0)
(0 -2.07292e-05 0)
(0 -0.000107062 0)
(0 -8.23212e-05 0)
(0 -0.000135157 0)
(0 -0.000143144 0)
(0 -0.000137629 0)
(0 -0.000124305 0)
(0 -6.46299e-05 0)
(0 -8.214e-05 0)
(0 -5.10853e-05 0)
(0 -6.21334e-05 0)
(0 -5.07814e-05 0)
(0 -9.93082e-06 0)
(0 -1.05248e-05 0)
(0 -0.000138582 0)
(0 -0.000141623 0)
(0 -0.000148386 0)
(0 -0.000118629 0)
(0 -0.000114702 0)
(0 -0.000114574 0)
(0 -0.000106372 0)
(0 -9.65985e-05 0)
(0 -2.28868e-05 0)
(0 -5.1499e-05 0)
(0 -8.1325e-05 0)
(0 -6.06997e-05 0)
(0 -2.51378e-05 0)
(0 -3.32291e-05 0)
(0 -3.64245e-05 0)
(0 -6.99456e-05 0)
(0 -4.28679e-06 0)
(0 -0.00173047 0)
(0 -0.00178514 0)
(0 -0.00170431 0)
(0 -0.0017587 0)
(0 -0.00167905 0)
(0 -0.00173503 0)
(0 -0.00165392 0)
(0 -0.00170801 0)
(0 -0.00162828 0)
(0 -0.00168126 0)
(0 -0.0016047 0)
(0 -0.0016582 0)
(0 -0.00158376 0)
(0 -0.00163607 0)
(0 -0.00156442 0)
(0 -0.00161704 0)
(0 -0.00154596 0)
(0 -0.00160036 0)
(0 -0.00152967 0)
(0 -0.00159475 0)
(0 -0.00151278 0)
(0 -0.00156973 0)
(0 -0.00149548 0)
(0 -0.00291867 0)
(0 -0.00294389 0)
(0 -0.00298031 0)
(0 -0.00296662 0)
(0 -0.00300175 0)
(0 -0.0030315 0)
(0 -0.00301961 0)
(0 -0.00304846 0)
(0 -0.00307399 0)
(0 -0.00306341 0)
(0 -0.00308807 0)
(0 -0.0030965 0)
(0 -0.00310998 0)
(0 -0.0030993 0)
(0 -0.00311984 0)
(0 -0.00312827 0)
(0 -0.00313708 0)
(0 -0.00315079 0)
(0 -0.00314294 0)
(0 -0.0031559 0)
(0 -0.00316079 0)
(0 -0.00316476 0)
(0 -0.00315722 0)
(0 -0.00316445 0)
(0 -0.00317004 0)
(0 -0.00316891 0)
(0 -0.00316142 0)
(0 -0.00316486 0)
(0 -0.00316987 0)
(0 -0.00316495 0)
(0 -0.0031617 0)
(0 -0.00315753 0)
(0 -0.00315401 0)
(0 -0.00315553 0)
(0 -0.00314725 0)
(0 -0.00314413 0)
(0 -0.0031362 0)
(0 -0.00313596 0)
(0 -0.00312536 0)
(0 -0.0031235 0)
(0 -0.0031121 0)
(0 -0.00311233 0)
(0 -0.00309838 0)
(0 -0.00155132 0)
(0 -0.00148141 0)
(0 -0.00308104 0)
(0 -0.0030806 0)
(0 -0.00306254 0)
(0 -0.00304057 0)
(0 -0.00304211 0)
(0 -0.00302022 0)
(0 -0.00301611 0)
(0 -0.00299576 0)
(0 -0.00299631 0)
(0 -0.0029714 0)
(0 -0.00296807 0)
(0 -0.00294342 0)
(0 -0.0029131 0)
(0 -0.00291364 0)
(0 -0.00288583 0)
(0 -0.00285495 0)
(0 -0.00285468 0)
(0 -0.00282522 0)
(0 -0.00282116 0)
(0 -0.0027926 0)
(0 -0.0027947 0)
(0 -0.00276069 0)
(0 -0.00275542 0)
(0 -0.00272316 0)
(0 -0.00153835 0)
(0 -0.00146877 0)
(0 -0.00272508 0)
(0 -0.00268777 0)
(0 -0.00268381 0)
(0 -0.0026489 0)
(0 -0.00260828 0)
(0 -0.00261161 0)
(0 -0.00257199 0)
(0 -0.00256591 0)
(0 -0.00253066 0)
(0 -0.0025338 0)
(0 -0.00249336 0)
(0 -0.00248767 0)
(0 -0.00245129 0)
(0 -0.00245367 0)
(0 -0.00241204 0)
(0 -0.00240782 0)
(0 -0.00236888 0)
(0 -0.00232422 0)
(0 -0.00232846 0)
(0 -0.0022843 0)
(0 -0.00223883 0)
(0 -0.00224261 0)
(0 -0.00219759 0)
(0 -0.00219234 0)
(0 -0.00152966 0)
(0 -0.00145693 0)
(0 -0.00219929 0)
(0 -0.00215456 0)
(0 -0.00215393 0)
(0 -0.00210993 0)
(0 -0.00151653 0)
(0 -0.00144413 0)
(0 -0.00138537 0)
(0 -0.00137406 0)
(0 -0.00131593 0)
(0 -0.00130709 0)
(0 -0.00124853 0)
(0 -0.00124347 0)
(0 -0.00118395 0)
(0 -0.00118392 0)
(0 -0.00112323 0)
(0 -0.00111983 0)
(0 -0.00106573 0)
(0 -0.00106544 0)
(0 -0.00101243 0)
(0 -0.00101355 0)
(0 -0.000962553 0)
(0 -0.00096712 0)
(0 -0.000915215 0)
(0 -0.00092537 0)
(0 -0.000871327 0)
(0 -0.000883609 0)
(0 -0.000830558 0)
(0 -0.000841648 0)
(0 -0.000791979 0)
(0 -0.000804162 0)
(0 -0.000756705 0)
(0 -0.00210711 0)
(0 -0.000769027 0)
(0 -0.000724204 0)
(0 -0.00206393 0)
(0 -0.00073755 0)
(0 -0.000694345 0)
(0 -0.000708862 0)
(0 -0.000665477 0)
(0 -0.00205891 0)
(0 -0.00150183 0)
(0 -0.00101119 0)
(0 -0.00111503 0)
(0 -0.00201633 0)
(0 -0.00200921 0)
(0 -0.00196679 0)
(0 -0.00195805 0)
(0 -0.00199848 0)
(0 -0.00085341 0)
(0 -0.00194545 0)
(0 -0.00198391 0)
(0 -0.00190576 0)
(0 -0.00189185 0)
(0 -0.0018528 0)
(0 -0.000779789 0)
(0 -0.00183775 0)
(0 -0.00179891 0)
(0 -0.00178306 0)
(0 -0.00197175 0)
(0 -0.00174435 0)
(0 -0.00172758 0)
(0 -0.00157603 0)
(0 -0.00156001 0)
(0 -0.00163538 0)
(0 -0.00161881 0)
(0 -0.00169296 0)
(0 -0.00167608 0)
(0 -0.00174675 0)
(0 -0.00173232 0)
(0 -0.00180999 0)
(0 -0.00178514 0)
(0 -0.00185529 0)
(0 -0.001832 0)
(0 -0.00189888 0)
(0 -0.0018771 0)
(0 -0.00195036 0)
(0 -0.00168888 0)
(0 -0.00167068 0)
(0 -0.00170604 0)
(0 -0.00191922 0)
(0 -0.00198663 0)
(0 -0.00185472 0)
(0 -0.0016479 0)
(0 -0.00168066 0)
(0 -0.00161347 0)
(0 -0.00195511 0)
(0 -0.00202137 0)
(0 -0.00158949 0)
(0 -0.00155563 0)
(0 -0.00153056 0)
(0 -0.0019872 0)
(0 -0.00205214 0)
(0 -0.00149719 0)
(0 -0.00147124 0)
(0 -0.00201423 0)
(0 -0.00207859 0)
(0 -0.0014385 0)
(0 -0.0014119 0)
(0 -0.00203726 0)
(0 -0.00210092 0)
(0 -0.00137948 0)
(0 -0.00140369 0)
(0 -0.00135217 0)
(0 -0.001382 0)
(0 -0.00151415 0)
(0 -0.00205603 0)
(0 -0.00211876 0)
(0 -0.00199105 0)
(0 -0.00132153 0)
(0 -0.00134868 0)
(0 -0.00129239 0)
(0 -0.00207057 0)
(0 -0.00213207 0)
(0 -0.00126128 0)
(0 -0.00123254 0)
(0 -0.00208009 0)
(0 -0.00214106 0)
(0 -0.00120152 0)
(0 -0.00208497 0)
(0 -0.00214589 0)
(0 -0.00117305 0)
(0 -0.00166532 0)
(0 -0.00114215 0)
(0 -0.00208565 0)
(0 -0.00214651 0)
(0 -0.00111435 0)
(0 -0.00108294 0)
(0 -0.00220425 0)
(0 -0.00220562 0)
(0 -0.00214236 0)
(0 -0.00220184 0)
(0 -0.00226292 0)
(0 -0.00225914 0)
(0 -0.00219308 0)
(0 -0.00224961 0)
(0 -0.00231574 0)
(0 -0.0023047 0)
(0 -0.00223458 0)
(0 -0.00228725 0)
(0 -0.00235799 0)
(0 -0.00233919 0)
(0 -0.00287781 0)
(0 -0.00105573 0)
(0 -0.00102398 0)
(0 -0.00104871 0)
(0 -0.00226095 0)
(0 -0.00231215 0)
(0 -0.00239729 0)
(0 -0.0023594 0)
(0 -0.00227936 0)
(0 -0.00232715 0)
(0 -0.00240289 0)
(0 -0.00237236 0)
(0 -0.00229163 0)
(0 -0.0023349 0)
(0 -0.00241438 0)
(0 -0.00237552 0)
(0 -0.000649084 0)
(0 -0.00245397 0)
(0 -0.0024149 0)
(0 -0.00233483 0)
(0 -0.00237249 0)
(0 -0.00192456 0)
(0 -0.000989459 0)
(0 -0.00101166 0)
(0 -0.000965569 0)
(0 -0.00245188 0)
(0 -0.00240752 0)
(0 -0.00231715 0)
(0 -0.00236179 0)
(0 -0.00244171 0)
(0 -0.00239338 0)
(0 -0.00231152 0)
(0 -0.0023377 0)
(0 -0.00242402 0)
(0 -0.00237018 0)
(0 -0.00216315 0)
(0 -0.00228009 0)
(0 -0.0023156 0)
(0 -0.00239938 0)
(0 -0.002345 0)
(0 -0.00226011 0)
(0 -0.00228876 0)
(0 -0.00237159 0)
(0 -0.00231486 0)
(0 -0.0017001 0)
(0 -0.00202482 0)
(0 -0.00108447 0)
(0 -0.00223063 0)
(0 -0.00225617 0)
(0 -0.0023388 0)
(0 -0.00227957 0)
(0 -0.00235985 0)
(0 -0.00229988 0)
(0 -0.00222058 0)
(0 -0.00224005 0)
(0 -0.00231718 0)
(0 -0.00225616 0)
(0 -0.00218072 0)
(0 -0.00219446 0)
(0 -0.000930953 0)
(0 -0.000907663 0)
(0 -0.002269 0)
(0 -0.00220483 0)
(0 -0.00212302 0)
(0 -0.00214051 0)
(0 -0.00221439 0)
(0 -0.00214799 0)
(0 -0.00206305 0)
(0 -0.00207838 0)
(0 -0.00215573 0)
(0 -0.00208608 0)
(0 -0.00199546 0)
(0 -0.00201511 0)
(0 -0.00209313 0)
(0 -0.00202231 0)
(0 -0.00193476 0)
(0 -0.00195228 0)
(0 -0.00202723 0)
(0 -0.0019572 0)
(0 -0.00188336 0)
(0 -0.00188788 0)
(0 -0.000873349 0)
(0 -0.00202863 0)
(0 -0.000850634 0)
(0 -0.001812 0)
(0 -0.00181844 0)
(0 -0.000816713 0)
(0 -0.00174105 0)
(0 -0.00174796 0)
(0 -0.000794739 0)
(0 -0.000761015 0)
(0 -0.000780902 0)
(0 -0.00166918 0)
(0 -0.00167668 0)
(0 -0.00175241 0)
(0 -0.00168253 0)
(0 -0.00166133 0)
(0 -0.00160549 0)
(0 -0.00161265 0)
(0 -0.000739606 0)
(0 -0.000772779 0)
(0 -0.000706267 0)
(0 -0.00153439 0)
(0 -0.00154219 0)
(0 -0.0016867 0)
(0 -0.000685151 0)
(0 -0.000652682 0)
(0 -0.00146258 0)
(0 -0.00147109 0)
(0 -0.00139058 0)
(0 -0.00139971 0)
(0 -0.000631794 0)
(0 -0.000600377 0)
(0 -0.00131908 0)
(0 -0.00132896 0)
(0 -0.00140667 0)
(0 -0.00133691 0)
(0 -0.00125989 0)
(0 -0.00126818 0)
(0 -0.00130713 0)
(0 -0.000579868 0)
(0 -0.000549471 0)
(0 -0.00056739 0)
(0 -0.00134274 0)
(0 -0.00127453 0)
(0 -0.00120045 0)
(0 -0.00120746 0)
(0 -0.000517485 0)
(0 -0.000532792 0)
(0 -0.00174792 0)
(0 -0.00166154 0)
(0 -0.00113378 0)
(0 -0.00114158 0)
(0 -0.000893247 0)
(0 -0.000949653 0)
(0 -0.00090056 0)
(0 -0.000955941 0)
(0 -0.000905752 0)
(0 -0.000960198 0)
(0 -0.00090895 0)
(0 -0.000529351 0)
(0 -0.000557103 0)
(0 -0.00134593 0)
(0 -0.00142924 0)
(0 -0.000854666 0)
(0 -0.000857009 0)
(0 -0.00106814 0)
(0 -0.00107639 0)
(0 -0.000962424 0)
(0 -0.0016006 0)
(0 -0.000484055 0)
(0 -0.000496755 0)
(0 -0.00101394 0)
(0 -0.00100357 0)
(0 -0.0010119 0)
(0 -0.000802894 0)
(0 -0.00080456 0)
(0 -0.000507019 0)
(0 -0.000532191 0)
(0 -0.0010151 0)
(0 -0.00106678 0)
(0 -0.000993011 0)
(0 -0.000713511 0)
(0 -0.000740547 0)
(0 -0.000756883 0)
(0 -0.000726655 0)
(0 -0.000771912 0)
(0 -0.000801826 0)
(0 -0.000817766 0)
(0 -0.000848303 0)
(0 -0.000865304 0)
(0 -0.000895962 0)
(0 -0.000915773 0)
(0 -0.000881306 0)
(0 -0.000934991 0)
(0 -0.000969882 0)
(0 -0.000993126 0)
(0 -0.000954657 0)
(0 -0.00101651 0)
(0 -0.00102717 0)
(0 -0.000973689 0)
(0 -0.00103686 0)
(0 -0.000988585 0)
(0 -0.00105119 0)
(0 -0.000996823 0)
(0 -0.001059 0)
(0 -0.00111587 0)
(0 -0.00112427 0)
(0 -0.00118267 0)
(0 -0.00119269 0)
(0 -0.00113085 0)
(0 -0.00120029 0)
(0 -0.00093711 0)
(0 -0.00113485 0)
(0 -0.00120416 0)
(0 -0.00125147 0)
(0 -0.00113419 0)
(0 -0.00120163 0)
(0 -0.00112649 0)
(0 -0.00119201 0)
(0 -0.00106113 0)
(0 -0.00126787 0)
(0 -0.00125777 0)
(0 -0.00117749 0)
(0 -0.00124259 0)
(0 -0.00108219 0)
(0 -0.00101793 0)
(0 -0.000948146 0)
(0 -0.000954353 0)
(0 -0.00044935 0)
(0 -0.000459368 0)
(0 -0.000884227 0)
(0 -0.000891111 0)
(0 -0.0007505 0)
(0 -0.000751711 0)
(0 -0.00115837 0)
(0 -0.00122342 0)
(0 -0.00205836 0)
(0 -0.00219677 0)
(0 -0.000482563 0)
(0 -0.000505266 0)
(0 -0.0016303 0)
(0 -0.00102191 0)
(0 -0.000821316 0)
(0 -0.000828876 0)
(0 -0.00106678 0)
(0 -0.00111875 0)
(0 -0.000982669 0)
(0 -0.000749421 0)
(0 -0.00133485 0)
(0 -0.0011351 0)
(0 -0.00120034 0)
(0 -0.000412868 0)
(0 -0.000403833 0)
(0 -0.000419338 0)
(0 -0.000467296 0)
(0 -0.000697491 0)
(0 -0.000698361 0)
(0 -0.000751386 0)
(0 -0.000697811 0)
(0 -0.000749504 0)
(0 -0.000695719 0)
(0 -0.000745879 0)
(0 -0.000691853 0)
(0 -0.000740399 0)
(0 -0.000686314 0)
(0 -0.00076044 0)
(0 -0.000768394 0)
(0 -0.00128756 0)
(0 -0.00126452 0)
(0 -0.00117375 0)
(0 -0.00124004 0)
(0 -0.00063777 0)
(0 -0.000632353 0)
(0 -0.000455929 0)
(0 -0.000476262 0)
(0 -0.000753253 0)
(0 -0.00118862 0)
(0 -0.000739488 0)
(0 -0.000644493 0)
(0 -0.00132925 0)
(0 -0.00130862 0)
(0 -0.00120686 0)
(0 -0.00127725 0)
(0 -0.00138838 0)
(0 -0.00134637 0)
(0 -0.00123622 0)
(0 -0.0013081 0)
(0 -0.00141999 0)
(0 -0.00137734 0)
(0 -0.00126453 0)
(0 -0.00133591 0)
(0 -0.000424931 0)
(0 -0.000473589 0)
(0 -0.000368903 0)
(0 -0.000360424 0)
(0 -0.00145963 0)
(0 -0.00140169 0)
(0 -0.00128527 0)
(0 -0.00135146 0)
(0 -0.00111737 0)
(0 -0.00116973 0)
(0 -0.000700505 0)
(0 -0.000709169 0)
(0 -0.000733188 0)
(0 -0.00146771 0)
(0 -0.0014179 0)
(0 -0.00129501 0)
(0 -0.00135965 0)
(0 -0.000833857 0)
(0 -0.00148272 0)
(0 -0.0014238 0)
(0 -0.00129913 0)
(0 -0.00136375 0)
(0 -0.000583678 0)
(0 -0.000578557 0)
(0 -0.000430366 0)
(0 -0.00123628 0)
(0 -0.00130069 0)
(0 -0.00142723 0)
(0 -0.00136493 0)
(0 -0.00149015 0)
(0 -0.00143002 0)
(0 -0.00130205 0)
(0 -0.00136914 0)
(0 -0.00149517 0)
(0 -0.00143515 0)
(0 -0.00130559 0)
(0 -0.00137163 0)
(0 -0.00149865 0)
(0 -0.00143479 0)
(0 -0.00130549 0)
(0 -0.00136798 0)
(0 -0.000526759 0)
(0 -0.00176392 0)
(0 -0.00149567 0)
(0 -0.00142685 0)
(0 -0.00129793 0)
(0 -0.00135598 0)
(0 -0.000642142 0)
(0 -0.000427192 0)
(0 -0.000408075 0)
(0 -0.000445208 0)
(0 -0.000327402 0)
(0 -0.000319078 0)
(0 -0.00148292 0)
(0 -0.00141183 0)
(0 -0.00128323 0)
(0 -0.00133931 0)
(0 -0.00120883 0)
(0 -0.00126458 0)
(0 -0.00139364 0)
(0 -0.00131943 0)
(0 -0.00046415 0)
(0 -0.000448042 0)
(0 -0.000496397 0)
(0 -0.000479741 0)
(0 -0.000527281 0)
(0 -0.000512267 0)
(0 -0.000558706 0)
(0 -0.000547486 0)
(0 -0.000594141 0)
(0 -0.000586234 0)
(0 -0.000640911 0)
(0 -0.000628761 0)
(0 -0.000680751 0)
(0 -0.000673252 0)
(0 -0.000725662 0)
(0 -0.000720914 0)
(0 -0.000668617 0)
(0 -0.000717619 0)
(0 -0.000665448 0)
(0 -0.000715018 0)
(0 -0.000663894 0)
(0 -0.000714798 0)
(0 -0.000662682 0)
(0 -0.000716629 0)
(0 -0.000663243 0)
(0 -0.00071908 0)
(0 -0.00066663 0)
(0 -0.000723353 0)
(0 -0.000671272 0)
(0 -0.000729315 0)
(0 -0.0006775 0)
(0 -0.000737559 0)
(0 -0.000790149 0)
(0 -0.000799823 0)
(0 -0.000747793 0)
(0 -0.000770182 0)
(0 -0.000853487 0)
(0 -0.000811662 0)
(0 -0.000759755 0)
(0 -0.000772823 0)
(0 -0.000825586 0)
(0 -0.000772872 0)
(0 -0.000841962 0)
(0 -0.000791274 0)
(0 -0.000892082 0)
(0 -0.000705367 0)
(0 -0.00086071 0)
(0 -0.000811391 0)
(0 -0.00060583 0)
(0 -0.00144646 0)
(0 -0.00137376 0)
(0 -0.00124589 0)
(0 -0.00130172 0)
(0 -0.00142731 0)
(0 -0.00135566 0)
(0 -0.00122867 0)
(0 -0.00128133 0)
(0 -0.00140635 0)
(0 -0.001331 0)
(0 -0.00120495 0)
(0 -0.00125438 0)
(0 -0.000874328 0)
(0 -0.00137789 0)
(0 -0.00130161 0)
(0 -0.00117781 0)
(0 -0.00122594 0)
(0 -0.00110139 0)
(0 -0.00115051 0)
(0 -0.00127241 0)
(0 -0.00119777 0)
(0 -0.000478133 0)
(0 -0.000426756 0)
(0 -0.00107551 0)
(0 -0.00112365 0)
(0 -0.00124285 0)
(0 -0.00116963 0)
(0 -0.000787553 0)
(0 -0.000778688 0)
(0 -0.000833513 0)
(0 -0.000620208 0)
(0 -0.00105083 0)
(0 -0.00109786 0)
(0 -0.00116693 0)
(0 -0.00121965 0)
(0 -0.00122134 0)
(0 -0.00127157 0)
(0 -0.0012719 0)
(0 -0.00132268 0)
(0 -0.00132178 0)
(0 -0.00137296 0)
(0 -0.00137073 0)
(0 -0.00142247 0)
(0 -0.00141858 0)
(0 -0.00147102 0)
(0 -0.00146556 0)
(0 -0.00151839 0)
(0 -0.00151134 0)
(0 -0.00156457 0)
(0 -0.00160939 0)
(0 -0.00107122 0)
(0 -0.00028776 0)
(0 -0.000279712 0)
(0 -0.000879435 0)
(0 -0.000382893 0)
(0 -0.000529767 0)
(0 -0.00082289 0)
(0 -0.000878125 0)
(0 -0.000602914 0)
(0 -0.000524906 0)
(0 -0.000379569 0)
(0 -0.000361729 0)
(0 -0.000539945 0)
(0 -0.000978867 0)
(0 -0.00102622 0)
(0 -0.000732843 0)
(0 -0.00129923 0)
(0 -0.00142336 0)
(0 -0.000651322 0)
(0 -0.000585285 0)
(0 -0.000573693 0)
(0 -0.00025033 0)
(0 -0.000242534 0)
(0 -0.00076813 0)
(0 -0.000518136 0)
(0 -0.000255227 0)
(0 -0.00128536 0)
(0 -0.00121566 0)
(0 -0.00166241 0)
(0 -0.000906851 0)
(0 -0.000954092 0)
(0 -0.00107059 0)
(0 -0.000998708 0)
(0 -0.000882483 0)
(0 -0.000927234 0)
(0 -0.00103982 0)
(0 -0.000968869 0)
(0 -0.000856851 0)
(0 -0.000898596 0)
(0 -0.000333367 0)
(0 -0.000316944 0)
(0 -0.000475957 0)
(0 -0.000479121 0)
(0 -0.00047144 0)
(0 -0.000865598 0)
(0 -0.000921244 0)
(0 -0.000436898 0)
(0 -0.000214993 0)
(0 -0.000207714 0)
(0 -0.000530483 0)
(0 -0.00123519 0)
(0 -0.00130178 0)
(0 -0.00127877 0)
(0 -0.00134378 0)
(0 -0.00131487 0)
(0 -0.00138012 0)
(0 -0.00134666 0)
(0 -0.00141117 0)
(0 -0.00137403 0)
(0 -0.00144777 0)
(0 -0.00143411 0)
(0 -0.00139344 0)
(0 -0.00133485 0)
(0 -0.00135093 0)
(0 -0.00129257 0)
(0 -0.00130512 0)
(0 -0.0012472 0)
(0 -0.00125729 0)
(0 -0.00120092 0)
(0 -0.00140711 0)
(0 -0.00120929 0)
(0 -0.00115507 0)
(0 -0.0012647 0)
(0 -0.000788033 0)
(0 -0.000830754 0)
(0 -0.000857197 0)
(0 -0.000503771 0)
(0 -0.000518435 0)
(0 -0.000465588 0)
(0 -0.000418451 0)
(0 -0.000413318 0)
(0 -0.000465817 0)
(0 -0.000288667 0)
(0 -0.000273926 0)
(0 -0.000302635 0)
(0 -0.00121536 0)
(0 -0.00127017 0)
(0 -0.000941069 0)
(0 -0.000884047 0)
(0 -0.000884859 0)
(0 -0.000829459 0)
(0 -0.000825183 0)
(0 -0.000769489 0)
(0 -0.000758947 0)
(0 -0.000701084 0)
(0 -0.000711719 0)
(0 -0.000643063 0)
(0 -0.000655266 0)
(0 -0.000684082 0)
(0 -0.000587513 0)
(0 -0.000602807 0)
(0 -0.000535027 0)
(0 -0.000554691 0)
(0 -0.000482504 0)
(0 -0.000493858 0)
(0 -0.00114668 0)
(0 -0.00110292 0)
(0 -0.000182105 0)
(0 -0.000175272 0)
(0 -0.000523098 0)
(0 -0.000529917 0)
(0 -0.00107816 0)
(0 -0.00019818 0)
(0 -0.000166145 0)
(0 -0.00109548 0)
(0 -0.00105407 0)
(0 -0.0010593 0)
(0 -0.00101239 0)
(0 -0.000721051 0)
(0 -0.000764842 0)
(0 -0.000429339 0)
(0 -0.00044047 0)
(0 -0.000497694 0)
(0 -0.000448515 0)
(0 -0.000145293 0)
(0 -0.00100909 0)
(0 -0.000968978 0)
(0 -0.000477811 0)
(0 -0.000513969 0)
(0 -0.000389042 0)
(0 -0.000574271 0)
(0 -0.000582254 0)
(0 -0.000626636 0)
(0 -0.000906912 0)
(0 -0.000963169 0)
(0 -0.000447235 0)
(0 -0.000186364 0)
(0 -0.000154618 0)
(0 -0.000172088 0)
(0 -0.000970814 0)
(0 -0.000929679 0)
(0 -0.000927869 0)
(0 -0.000890629 0)
(0 -0.000889333 0)
(0 -0.000853086 0)
(0 -0.000852566 0)
(0 -0.000817277 0)
(0 -0.000817526 0)
(0 -0.000783198 0)
(0 -0.00126987 0)
(0 -0.000415066 0)
(0 -0.000874783 0)
(0 -0.000807361 0)
(0 -0.000698795 0)
(0 -0.000738799 0)
(0 -0.000844494 0)
(0 -0.000775578 0)
(0 -0.000673463 0)
(0 -0.000710529 0)
(0 -0.000808475 0)
(0 -0.000744703 0)
(0 -0.000647215 0)
(0 -0.000682277 0)
(0 -0.000634437 0)
(0 -0.000680404 0)
(0 -0.000365955 0)
(0 -0.000361104 0)
(0 -0.000507882 0)
(0 -0.001162 0)
(0 -0.00120931 0)
(0 -0.000585562 0)
(0 -0.000621208 0)
(0 -0.000743647 0)
(0 -0.000661664 0)
(0 -0.00072419 0)
(0 -0.000636065 0)
(0 -0.000701629 0)
(0 -0.000609707 0)
(0 -0.000677094 0)
(0 -0.00054591 0)
(0 -0.0010142 0)
(0 -0.000686992 0)
(0 -0.00073571 0)
(0 -0.000747572 0)
(0 -0.000675521 0)
(0 -0.000349108 0)
(0 -0.000510488 0)
(0 -0.000427217 0)
(0 -0.000245626 0)
(0 -0.00066327 0)
(0 -0.000783848 0)
(0 -0.00121918 0)
(0 -0.00127444 0)
(0 -0.00132683 0)
(0 -0.00133229 0)
(0 -0.00138579 0)
(0 -0.000365738 0)
(0 -0.000377951 0)
(0 -0.000740916 0)
(0 -0.000792605 0)
(0 -0.000582754 0)
(0 -0.000649798 0)
(0 -0.000852477 0)
(0 -0.000393188 0)
(0 -0.000455501 0)
(0 -0.000400991 0)
(0 -0.000933678 0)
(0 -0.00054164 0)
(0 -0.000492736 0)
(0 -0.000462409 0)
(0 -0.000407609 0)
(0 -0.000299638 0)
(0 -0.000525575 0)
(0 -0.000561096 0)
(0 -0.0013929 0)
(0 -0.00144699 0)
(0 -0.00086308 0)
(0 -0.00132573 0)
(0 -0.000709562 0)
(0 -0.000318857 0)
(0 -0.00033219 0)
(0 -0.000614795 0)
(0 -0.000525236 0)
(0 -0.000475768 0)
(0 -0.000510387 0)
(0 -0.000458874 0)
(0 -0.00049783 0)
(0 -0.000446676 0)
(0 -0.000355108 0)
(0 -0.000140493 0)
(0 -0.000155041 0)
(0 -0.00164323 0)
(0 -0.00127622 0)
(0 -0.0015524 0)
(0 -0.000999196 0)
(0 -0.000929358 0)
(0 -0.000970064 0)
(0 -0.00134035 0)
(0 -0.00140758 0)
(0 -0.00154932 0)
(0 -0.000653623 0)
(0 -0.00059347 0)
(0 -0.000502225 0)
(0 -0.00053491 0)
(0 -0.00147531 0)
(0 -0.00151892 0)
(0 -0.0011548 0)
(0 -0.00120052 0)
(0 -0.00125532 0)
(0 -0.0012452 0)
(0 -0.00130033 0)
(0 -0.00118947 0)
(0 -0.00123325 0)
(0 -0.00136887 0)
(0 -0.00105381 0)
(0 -0.00157004 0)
(0 -0.00084232 0)
(0 -0.00135901 0)
(0 -0.00139775 0)
(0 -0.00147142 0)
(0 -0.0015064 0)
(0 -0.00143327 0)
(0 -0.00157959 0)
(0 -0.0015375 0)
(0 -0.00146556 0)
(0 -0.00154432 0)
(0 -0.00165076 0)
(0 -0.00161587 0)
(0 -0.00100512 0)
(0 -0.00241831 0)
(0 -0.00209784 0)
(0 -0.00209572 0)
(0 -0.00216315 0)
(0 -0.00215822 0)
(0 -0.00222404 0)
(0 -0.00221686 0)
(0 -0.00228085 0)
(0 -0.00227198 0)
(0 -0.00233456 0)
(0 -0.00232388 0)
(0 -0.00226181 0)
(0 -0.00231186 0)
(0 -0.00225062 0)
(0 -0.00238521 0)
(0 -0.00229865 0)
(0 -0.00223825 0)
(0 -0.00239592 0)
(0 -0.00244523 0)
(0 -0.00245632 0)
(0 -0.00228389 0)
(0 -0.0022244 0)
(0 -0.00250358 0)
(0 -0.00251475 0)
(0 -0.00255999 0)
(0 -0.00257044 0)
(0 -0.00254651 0)
(0 -0.00226728 0)
(0 -0.00220888 0)
(0 -0.00261471 0)
(0 -0.00262469 0)
(0 -0.00266718 0)
(0 -0.00267727 0)
(0 -0.00232516 0)
(0 -0.00230567 0)
(0 -0.00271772 0)
(0 -0.00272801 0)
(0 -0.00268565 0)
(0 -0.00273661 0)
(0 -0.00236213 0)
(0 -0.00216452 0)
(0 -0.0021495 0)
(0 -0.00277704 0)
(0 -0.00278549 0)
(0 -0.00274332 0)
(0 -0.00279176 0)
(0 -0.00283154 0)
(0 -0.00283735 0)
(0 -0.00233987 0)
(0 -0.00279555 0)
(0 -0.00284069 0)
(0 -0.00287979 0)
(0 -0.00288225 0)
(0 -0.00284201 0)
(0 -0.00288287 0)
(0 -0.002842 0)
(0 -0.00288179 0)
(0 -0.00292172 0)
(0 -0.00292032 0)
(0 -0.00287941 0)
(0 -0.0029163 0)
(0 -0.00295523 0)
(0 -0.00294884 0)
(0 -0.00290464 0)
(0 -0.00293919 0)
(0 -0.00297818 0)
(0 -0.00296619 0)
(0 -0.00291923 0)
(0 -0.00295039 0)
(0 -0.00299091 0)
(0 -0.0029748 0)
(0 -0.00293259 0)
(0 -0.00295569 0)
(0 -0.00291223 0)
(0 -0.00293362 0)
(0 -0.00297468 0)
(0 -0.00295253 0)
(0 -0.00290831 0)
(0 -0.00292635 0)
(0 -0.0029723 0)
(0 -0.00294039 0)
(0 -0.00289768 0)
(0 -0.0029094 0)
(0 -0.0029481 0)
(0 -0.00291659 0)
(0 -0.00287746 0)
(0 -0.0028812 0)
(0 -0.00291847 0)
(0 -0.00288114 0)
(0 -0.00284277 0)
(0 -0.00284056 0)
(0 -0.00287634 0)
(0 -0.00283431 0)
(0 -0.00279621 0)
(0 -0.00278898 0)
(0 -0.0028243 0)
(0 -0.00277825 0)
(0 -0.00273988 0)
(0 -0.00272693 0)
(0 -0.00276382 0)
(0 -0.00271097 0)
(0 -0.00274715 0)
(0 -0.00269359 0)
(0 -0.0027292 0)
(0 -0.00267413 0)
(0 -0.00263808 0)
(0 -0.00261733 0)
(0 -0.00265078 0)
(0 -0.00259278 0)
(0 -0.00262321 0)
(0 -0.00255658 0)
(0 -0.00259343 0)
(0 -0.00253199 0)
(0 -0.00256246 0)
(0 -0.00249802 0)
(0 -0.00252457 0)
(0 -0.00245034 0)
(0 -0.00248199 0)
(0 -0.00241597 0)
(0 -0.00243952 0)
(0 -0.00237239 0)
(0 -0.00235137 0)
(0 -0.00268734 0)
(0 -0.0024664 0)
(0 -0.00256038 0)
(0 -0.00239465 0)
(0 -0.00232457 0)
(0 -0.00210322 0)
(0 -0.00208819 0)
(0 -0.0021322 0)
(0 -0.00207106 0)
(0 -0.00202555 0)
(0 -0.00200878 0)
(0 -0.00196203 0)
(0 -0.00194453 0)
(0 -0.00189775 0)
(0 -0.0018793 0)
(0 -0.00278123 0)
(0 -0.00270477 0)
(0 -0.00265457 0)
(0 -0.00234734 0)
(0 -0.00183255 0)
(0 -0.00181396 0)
(0 -0.00227485 0)
(0 -0.00241741 0)
(0 -0.00239465 0)
(0 -0.00211269 0)
(0 -0.00254899 0)
(0 -0.00185556 0)
(0 -0.00176674 0)
(0 -0.0017489 0)
(0 -0.00229817 0)
(0 -0.00236964 0)
(0 -0.00252295 0)
(0 -0.00170106 0)
(0 -0.00168388 0)
(0 -0.00222349 0)
(0 -0.00219892 0)
(0 -0.00163549 0)
(0 -0.00161915 0)
(0 -0.00157014 0)
(0 -0.00155484 0)
(0 -0.00150542 0)
(0 -0.00149063 0)
(0 -0.00171647 0)
(0 -0.0014412 0)
(0 -0.00142693 0)
(0 -0.00209189 0)
(0 -0.0022483 0)
(0 -0.00191309 0)
(0 -0.00242278 0)
(0 -0.00147021 0)
(0 -0.0021458 0)
(0 -0.00212082 0)
(0 -0.00244803 0)
(0 -0.00137741 0)
(0 -0.00136368 0)
(0 -0.00239529 0)
(0 -0.00234274 0)
(0 -0.00247431 0)
(0 -0.00250006 0)
(0 -0.00166187 0)
(0 -0.00236583 0)
(0 -0.00231395 0)
(0 -0.00131399 0)
(0 -0.00130108 0)
(0 -0.00206658 0)
(0 -0.00204272 0)
(0 -0.00209722 0)
(0 -0.00202083 0)
(0 -0.00207542 0)
(0 -0.0020002 0)
(0 -0.00205395 0)
(0 -0.0019802 0)
(0 -0.0020334 0)
(0 -0.00125091 0)
(0 -0.0012391 0)
(0 -0.00118818 0)
(0 -0.00117719 0)
(0 -0.00112608 0)
(0 -0.00111538 0)
(0 -0.00106469 0)
(0 -0.00252448 0)
(0 -0.00255111 0)
(0 -0.00116087 0)
(0 -0.00105144 0)
(0 -0.00233425 0)
(0 -0.0022832 0)
(0 -0.00132437 0)
(0 -0.00257328 0)
(0 -0.00260062 0)
(0 -0.00209176 0)
(0 -0.00222883 0)
(0 -0.00301253 0)
(0 -0.00238217 0)
(0 -0.00291929 0)
(0 -0.00275365 0)
(0 -0.0027377 0)
(0 -0.00278464 0)
(0 -0.00276615 0)
(0 -0.00281097 0)
(0 -0.00282871 0)
(0 -0.00285285 0)
(0 -0.00287053 0)
(0 -0.00249573 0)
(0 -0.00291422 0)
(0 -0.00295145 0)
(0 -0.00294384 0)
(0 -0.00297893 0)
(0 -0.00296836 0)
(0 -0.00298617 0)
(0 -0.00301114 0)
(0 -0.00301879 0)
(0 -0.0014141 0)
(0 -0.00248953 0)
(0 -0.000946822 0)
(0 -0.000890616 0)
(0 -0.00100347 0)
(0 -0.00302595 0)
(0 -0.00304582 0)
(0 -0.00305656 0)
(0 -0.00307479 0)
(0 -0.0030835 0)
(0 -0.00309908 0)
(0 -0.00308902 0)
(0 -0.000313168 0)
(0 -0.000306645 0)
(0 -0.000316348 0)
(0 -0.00232213 0)
(0 -0.0022732 0)
(0 -0.00234673 0)
(0 -0.00156904 0)
(0 -0.00164009 0)
(0 -0.00168721 0)
(0 -0.00175657 0)
(0 -0.00180133 0)
(0 -0.00186829 0)
(0 -0.00182328 0)
(0 -0.00160959 0)
(0 -0.00166536 0)
(0 -0.00172241 0)
(0 -0.0017744 0)
(0 -0.00182888 0)
(0 -0.00187747 0)
(0 -0.00182205 0)
(0 -0.00192265 0)
(0 -0.00186594 0)
(0 -0.000618584 0)
(0 -0.00113267 0)
(0 -0.0010753 0)
(0 -0.000997873 0)
(0 -0.000938224 0)
(0 -0.000859962 0)
(0 -0.000797901 0)
(0 -0.000875871 0)
(0 -0.000719207 0)
(0 -0.000782383 0)
(0 -0.00154746 0)
(0 -0.000186491 0)
(0 -0.000662097 0)
(0 -0.00140979 0)
(0 -0.00173936 0)
(0 -0.000155696 0)
(0 -0.000157261 0)
(0 -0.000125258 0)
(0 -0.00117128 0)
(0 -0.00110568 0)
(0 -0.00103971 0)
(0 -0.000972279 0)
(0 -0.000906448 0)
(0 -0.000837564 0)
(0 -0.000903541 0)
(0 -0.00077237 0)
(0 -0.000838717 0)
(0 -0.000767067 0)
(0 -0.000836186 0)
(0 -0.000697956 0)
(0 -0.000770987 0)
(0 -0.00088369 0)
(0 -0.00209964 0)
(0 -0.000547358 0)
(0 -0.00112471 0)
(0 -0.000894123 0)
(0 -0.00243633 0)
(0 -0.002493 0)
(0 -0.00250768 0)
(0 -0.00256237 0)
(0 -0.00257423 0)
(0 -0.00254593 0)
(0 -0.00261345 0)
(0 -0.0025956 0)
(0 -0.00173289 0)
(0 -0.00199294 0)
(0 -0.00210891 0)
(0 -0.000879961 0)
(0 -0.00157628 0)
(0 -0.0015622 0)
(0 -0.00186254 0)
(0 -0.000609008 0)
(0 -0.00177737 0)
(0 -0.00188077 0)
(0 -0.00183082 0)
(0 -0.00193332 0)
(0 -0.00188423 0)
(0 -0.00252783 0)
(0 -0.00256019 0)
(0 -0.00259674 0)
(0 -0.00262635 0)
(0 -0.00266095 0)
(0 -0.00268715 0)
(0 -0.00265263 0)
(0 -0.001844 0)
(0 -0.00177699 0)
(0 -0.00105051 0)
(0 -0.00187443 0)
(0 -0.00123589 0)
(0 -0.00122081 0)
(0 -0.00129308 0)
(0 -0.000785368 0)
(0 -0.000733331 0)
(0 -0.000662004 0)
(0 -0.000973673 0)
(0 -0.000920468 0)
(0 -0.000843798 0)
(0 -0.000788061 0)
(0 -0.000711973 0)
(0 -0.00158946 0)
(0 -0.00292704 0)
(0 -0.00211752 0)
(0 -0.0004585 0)
(0 -0.00171177 0)
(0 -0.00177107 0)
(0 -0.00219104 0)
(0 -0.00211657 0)
(0 -0.000799134 0)
(0 -0.0028873 0)
(0 -0.000914443 0)
(0 -0.00251853 0)
(0 -0.00258251 0)
(0 -0.00252625 0)
(0 -0.000865872 0)
(0 -0.000730484 0)
(0 -0.00176403 0)
(0 -0.00269965 0)
(0 -0.00264665 0)
(0 -0.00265786 0)
(0 -0.00260441 0)
(0 -0.00261441 0)
(0 -0.00256058 0)
(0 -0.00254855 0)
(0 -0.00256911 0)
(0 -0.00262165 0)
(0 -0.00250531 0)
(0 -0.00249228 0)
(0 -0.00257351 0)
(0 -0.00262408 0)
(0 -0.00263134 0)
(0 -0.001045 0)
(0 -0.0019253 0)
(0 -0.00202144 0)
(0 -0.001961 0)
(0 -0.0019536 0)
(0 -0.0018935 0)
(0 -0.00188273 0)
(0 -0.00190105 0)
(0 -0.00183412 0)
(0 -0.00184179 0)
(0 -0.00177576 0)
(0 -0.00178346 0)
(0 -0.0017189 0)
(0 -0.00172525 0)
(0 -0.00170757 0)
(0 -0.00165164 0)
(0 -0.00178468 0)
(0 -0.0017248 0)
(0 -0.00177845 0)
(0 -0.00171754 0)
(0 -0.00176688 0)
(0 -0.00170634 0)
(0 -0.00175133 0)
(0 -0.00166189 0)
(0 -0.000269231 0)
(0 -0.000352609 0)
(0 -0.000345826 0)
(0 -0.00038759 0)
(0 -0.000381682 0)
(0 -0.00310725 0)
(0 -0.00308526 0)
(0 -0.00309107 0)
(0 -0.00306714 0)
(0 -0.0030714 0)
(0 -0.00304538 0)
(0 -0.00304878 0)
(0 -0.00307429 0)
(0 -0.00302001 0)
(0 -0.0030159 0)
(0 -0.00305114 0)
(0 -0.00307517 0)
(0 -0.00306474 0)
(0 -0.00308986 0)
(0 -0.000468067 0)
(0 -0.000412991 0)
(0 -0.000327691 0)
(0 -0.00294896 0)
(0 -0.0029069 0)
(0 -0.00292939 0)
(0 -0.00288577 0)
(0 -0.00290664 0)
(0 -0.00285394 0)
(0 -0.00160963 0)
(0 -0.000780038 0)
(0 -0.000785233 0)
(0 -0.000835335 0)
(0 -0.000838066 0)
(0 -0.000891068 0)
(0 -0.000784812 0)
(0 -0.00089373 0)
(0 -0.000947754 0)
(0 -0.0009458 0)
(0 -0.00100375 0)
(0 -0.00100374 0)
(0 -0.00106334 0)
(0 -0.00106459 0)
(0 -0.00100511 0)
(0 -0.00106712 0)
(0 -0.00100767 0)
(0 -0.00107172 0)
(0 -0.00113129 0)
(0 -0.00113759 0)
(0 -0.0010777 0)
(0 -0.00114459 0)
(0 -0.00108528 0)
(0 -0.00115116 0)
(0 -0.001095 0)
(0 -0.00116082 0)
(0 -0.00110693 0)
(0 -0.00117385 0)
(0 -0.00111968 0)
(0 -0.00118714 0)
(0 -0.00113336 0)
(0 -0.00120166 0)
(0 -0.00114724 0)
(0 -0.00121837 0)
(0 -0.00116604 0)
(0 -0.00123748 0)
(0 -0.00118852 0)
(0 -0.00112515 0)
(0 -0.00125803 0)
(0 -0.00120417 0)
(0 -0.00131067 0)
(0 -0.00194441 0)