/*--------------------------------*- C++ -*----------------------------------*\
| =========                 |                                                 |
| \\      /  F ield         | OpenFOAM: The Open Source CFD Toolbox           |
|  \\    /   O peration     | Version:  v2012                                 |
|   \\  /    A nd           | Website:  www.openfoam.com                      |
|    \\/     M anipulation  |                                                 |
\*---------------------------------------------------------------------------*/
FoamFile
{
    version     2.0;
    format      ascii;
    class       surfaceVectorField;
    location    "600";
    object      Uf_0;
}
// * * * * * * * * * * * * * * * * * * * * * * * * * * * * * * * * * * * * * //

dimensions      [0 1 -1 0 0 0 0];


internalField   nonuniform List<vector> 
14885
(
(0.990157 0.00786967 -1.13938e-21)
(0.994002 0.011923 1.26041e-21)
(0.988347 0.0134995 -3.51478e-21)
(0.850483 -0.221819 -3.46487e-20)
(0.827031 -0.246237 9.19974e-21)
(0.813381 -0.186535 -1.85094e-20)
(1.06562 -0.0160081 8.57348e-22)
(1.06612 -0.0234306 0)
(1.05674 -0.0198764 1.23247e-21)
(1.01529 0.00137646 -1.61245e-22)
(1.0154 0.00147606 -2.60431e-23)
(1.01543 0.00138782 -5.47982e-22)
(1.01218 0.000421547 -5.3292e-22)
(1.01189 0.000306282 0)
(1.01228 0.000454335 0)
(0.962048 -0.271119 1.64777e-21)
(0.946078 -0.265425 1.15781e-20)
(0.97744 -0.245954 7.41863e-21)
(1.08336 0.234854 -1.1028e-20)
(1.10848 0.243141 2.8127e-21)
(1.09488 0.212568 -1.24992e-20)
(0.912054 -0.269636 -2.87273e-21)
(0.909813 -0.27243 -4.26108e-21)
(0.916113 -0.258815 2.76499e-21)
(1.01288 -0.000731839 -7.28114e-22)
(1.01304 -0.000789278 -1.32637e-21)
(1.01291 -0.000756361 -5.90328e-22)
(0.96951 0.0593507 -1.55477e-21)
(0.971474 0.0655021 -3.32334e-21)
(0.963202 0.0626319 -2.23851e-21)
(0.943437 0.0205561 1.78863e-22)
(0.933957 0.0132613 8.25666e-21)
(0.94968 0.00929455 -4.51326e-21)
(0.881447 -0.184356 8.43334e-21)
(0.884421 -0.24906 -1.55367e-21)
(1.06778 0.0310124 2.75187e-21)
(1.0696 0.0291079 4.26162e-21)
(1.06673 0.0280803 -2.89238e-22)
(1.01328 -0.00103066 1.05789e-21)
(1.01322 -0.000757022 1.00193e-21)
(1.01313 -0.000860575 -1.42777e-21)
(1.02686 0.00217446 2.10699e-21)
(1.02741 0.00199888 1.83908e-21)
(1.02735 0.00257353 -2.74585e-22)
(1.01343 -0.00136409 1.49285e-21)
(1.01346 -0.00117502 0)
(0.982429 -0.262283 -3.18701e-21)
(0.960484 -0.280039 0)
(0.985597 -0.243366 1.7327e-20)
(0.954873 0.025023 7.24146e-22)
(0.939432 0.031933 4.29084e-21)
(1.04539 0.0118232 -5.77115e-21)
(1.04678 0.0112882 -1.01531e-20)
(1.0468 0.0128981 -2.51171e-21)
(1.00981 -0.00528039 -1.78978e-21)
(1.00743 -0.00512425 -1.22203e-21)
(1.00917 -0.00773747 -2.02962e-21)
(1.06534 0.0326754 -2.69608e-21)
(1.06835 0.0340759 -2.44079e-21)
(0.986174 0.00329247 7.67459e-22)
(0.992524 0.00262622 -3.55743e-22)
(1.01519 0.00126218 1.64257e-22)
(1.01514 0.00135969 1.67831e-22)
(0.904156 -0.314421 -6.05096e-21)
(0.904455 -0.313386 2.86268e-22)
(0.903055 -0.312653 5.61184e-21)
(1.01379 0.00239878 8.79838e-22)
(1.01385 0.00238581 4.04437e-22)
(1.0137 0.002257 4.12891e-22)
(1.00937 -0.000182788 -2.83229e-22)
(1.01042 -0.00011429 -3.25005e-22)
(1.01127 -0.000133155 5.51061e-22)
(0.975308 0.0553418 9.46619e-22)
(0.968035 0.0517196 1.65823e-21)
(1.01251 -0.000454557 -3.05728e-22)
(1.01258 -0.000496577 -1.04951e-21)
(1.01258 -0.0004628 -1.98577e-21)
(0.977939 -0.267988 -1.40226e-20)
(0.946947 -0.294036 -8.60081e-21)
(0.895325 -0.294231 4.0555e-21)
(0.891035 -0.274633 -2.55718e-21)
(0.904073 -0.283996 3.01062e-21)
(1.00967 0.000188357 8.87603e-23)
(1.0083 3.75663e-05 -3.86494e-22)
(1.00817 7.26575e-05 -1.42786e-21)
(1.0726 0.0103268 -4.25099e-21)
(1.07314 0.0103536 3.44604e-21)
(1.07286 0.00977774 8.85799e-21)
(1.01282 -0.000683015 -8.29806e-23)
(1.01285 -0.000713389 7.51043e-22)
(1.01297 -0.00072747 -1.00606e-21)
(1.0128 -0.000664801 -6.85408e-22)
(1.0127 -0.000641346 2.03076e-22)
(0.917473 -0.263478 0)
(0.90782 -0.267788 5.8954e-21)
(0.908337 -0.272324 4.64203e-22)
(0.913059 -0.271504 -5.4175e-21)
(0.912409 -0.260175 6.38963e-21)
(1.01569 0.000272417 -4.58259e-22)
(1.01632 0.000450947 8.32096e-22)
(1.01665 0.00050961 -6.6712e-23)
(1.01203 -3.87383e-05 9.79985e-23)
(1.01198 -2.951e-05 -9.08985e-22)
(1.01193 -3.82372e-05 -4.64247e-23)
(1.01072 0.00027588 6.95133e-23)
(1.01057 0.000193074 1.0982e-21)
(1.01631 -0.00649701 9.25915e-24)
(1.01671 -0.00599193 5.36584e-23)
(1.01589 -0.00552178 0)
(0.900147 -0.309117 -5.00459e-21)
(0.894751 -0.302915 7.7242e-21)
(1.01273 -0.000686874 9.1798e-22)
(1.19895 -0.00870641 6.31599e-22)
(1.18003 -0.00322655 -2.0702e-21)
(1.19062 -0.0240608 -4.36871e-23)
(0.962369 -0.271195 2.65968e-21)
(0.97088 -0.247011 5.03462e-21)
(0.990811 -0.249714 1.30628e-21)
(1.01476 0.00212295 0)
(1.01462 0.00204621 0)
(1.0147 0.00200119 -1.4655e-23)
(1.01375 0.00238909 -1.60803e-22)
(1.01388 0.00249148 3.6143e-22)
(1.01336 -0.000761735 -8.43779e-24)
(1.01331 -0.00071767 2.28735e-21)
(1.01334 -0.000700801 8.38316e-22)
(1.02623 0.00189431 0)
(1.02623 0.0024429 -3.49255e-21)
(1.0226 0.101134 -2.98533e-22)
(1.02942 0.105736 -2.59062e-22)
(1.02891 0.0961574 -2.0523e-21)
(1.05228 -0.028402 6.83955e-21)
(0.958028 -0.0821883 -3.33076e-20)
(0.970538 -0.0874419 -8.63972e-21)
(1.18516 -0.0236509 1.40172e-21)
(1.21248 0.00920693 5.68899e-22)
(1.01355 0.00100229 -5.84205e-22)
(1.01368 0.000968675 1.29151e-23)
(1.01361 0.00109438 -2.37116e-22)
(1.00374 -0.24121 5.95326e-21)
(1.04418 0.0124175 4.62138e-23)
(1.04412 0.011052 2.60263e-21)
(0.818918 0.346321 1.56979e-21)
(0.814345 0.334036 1.42046e-20)
(0.804398 0.344332 2.87127e-20)
(0.710019 -0.418602 -4.9313e-21)
(0.686835 -0.42979 -5.4838e-22)
(0.68747 -0.400682 -5.12414e-21)
(1.06298 0.0340607 -4.53525e-22)
(1.06271 0.0311778 6.56504e-22)
(0.988584 0.00319315 8.20036e-23)
(0.985832 0.00895882 -4.10379e-22)
(0.982148 0.00266379 1.44364e-21)
(1.02362 0.00764406 -7.12794e-24)
(1.02395 0.00812492 1.13112e-21)
(1.02328 0.00798381 -2.2114e-22)
(1.01638 -0.00120735 -6.0809e-23)
(1.01635 -0.00106957 3.54118e-23)
(1.01648 -0.00115623 3.00431e-23)
(1.0157 0.0963952 0)
(1.01396 0.106338 0)
(0.841156 0.295429 1.18063e-20)
(0.838327 0.308815 -1.38748e-20)
(0.853348 0.307078 7.50856e-21)
(1.1629 0.00566179 -2.68741e-21)
(1.15535 -0.00802406 -1.07639e-21)
(0.955125 -0.220872 -1.39284e-21)
(0.945779 -0.230384 4.63175e-21)
(0.964062 -0.202469 -1.14796e-21)
(0.996091 0.0262653 -4.0398e-22)
(0.997609 0.0322713 -2.16174e-21)
(0.990905 0.0312465 4.46644e-21)
(1.01357 0.00357623 -9.94069e-22)
(1.01373 0.00396611 -1.60139e-21)
(1.01338 0.00374438 -1.98792e-22)
(1.01366 -0.00470872 1.32127e-21)
(1.01194 -0.00504669 -1.14555e-21)
(1.01371 -0.00676997 4.27717e-23)
(0.9965 0.0391185 -1.21287e-21)
(0.996282 0.0466669 2.09698e-21)
(1.00345 0.0438469 1.19275e-21)
(1.01365 -0.00101129 -4.76357e-22)
(1.01358 -0.000965746 -6.34008e-24)
(1.01366 -0.00105921 -9.89984e-22)
(0.996293 0.0321463 -1.28385e-21)
(0.990642 0.0329033 -2.8926e-21)
(1.15387 -0.0412755 4.3118e-22)
(1.06901 -0.0706148 -2.69353e-21)
(1.17156 -0.023913 -1.23967e-20)
(1.01406 0.00932566 0)
(1.01351 0.00855368 0)
(1.01435 0.00833679 -1.93866e-22)
(1.01325 1.35106e-05 9.42315e-22)
(1.01335 -3.042e-05 -9.45142e-22)
(1.01314 -3.70618e-05 6.26436e-22)
(1.02391 0.00725572 -2.48845e-21)
(1.02327 0.00716669 -1.90155e-22)
(1.01368 0.00343937 -4.15855e-22)
(1.01341 0.00322371 -1.19512e-21)
(1.13868 -0.0537521 1.39102e-21)
(1.03468 0.0228882 2.87799e-22)
(1.03025 0.0207278 -3.39326e-21)
(1.03183 0.026078 4.51602e-21)
(1.01342 -0.000847334 -1.89767e-21)
(1.01344 -0.000819192 -8.91628e-22)
(1.0371 0.0193789 -2.01279e-21)
(1.04078 0.0249582 4.08021e-22)
(1.04684 0.00991038 4.42462e-21)
(1.04821 0.0109373 -7.73568e-21)
(0.95517 -0.290009 1.87082e-20)
(0.94009 -0.278184 -7.10294e-21)
(0.909068 -0.310221 -2.02624e-20)
(1.00442 9.01714e-05 -6.2193e-22)
(1.00775 0.000156366 -1.17287e-21)
(1.00419 6.49887e-05 -4.15684e-22)
(1.01271 0.000709158 -9.10296e-22)
(1.01261 0.000716455 -4.65676e-24)
(1.01266 0.000803312 6.84569e-22)
(0.978712 0.0137599 -2.0947e-21)
(0.974418 0.0105838 0)
(0.973536 0.0166482 3.00924e-22)
(1.00483 0.159508 0)
(1.00772 0.147551 0)
(1.0168 0.158215 1.13424e-21)
(1.01378 -0.00309082 2.09493e-21)
(1.01529 -0.00415354 2.0902e-21)
(1.06231 -0.00847634 4.80992e-21)
(1.07358 -0.0108483 8.44425e-22)
(1.01396 0.000431506 1.05479e-21)
(1.01379 0.000487169 0)
(1.01394 0.000508342 2.21895e-21)
(1.01951 0.0283046 0)
(1.0145 0.0303658 0)
(1.01578 0.0247711 0)
(1.05658 0.0229005 -1.34063e-21)
(1.05811 0.0243627 0)
(1.05844 0.0219788 1.55164e-21)
(1.02754 0.00145271 1.19235e-21)
(1.0281 0.00182334 -2.65354e-21)
(1.14932 0.0120701 1.55823e-21)
(1.16728 0.0206095 4.88393e-21)
(0.989954 0.160317 0)
(0.999357 0.174339 1.02412e-21)
(0.985937 0.00884451 4.15223e-21)
(0.984186 0.0147573 -1.77561e-21)
(0.979446 0.0105523 -2.24288e-21)
(1.01665 0.00400729 -1.94162e-22)
(1.01665 0.00411224 -4.03318e-23)
(1.01654 0.00393439 -2.16471e-22)
(0.0502088 -0.00573714 -3.02502e-20)
(0.112838 -0.0287302 -6.30215e-20)
(1.0105 -0.00327025 -1.77314e-21)
(0.968966 0.264356 1.62387e-21)
(0.953467 0.283059 9.92961e-21)
(0.946197 0.26873 -1.63655e-21)
(1.02413 0.00691139 -2.55913e-21)
(1.02436 0.00651687 -2.57835e-21)
(1.02374 0.0064835 -2.33999e-24)
(1.05527 0.0217651 1.51226e-21)
(1.05501 0.0238472 2.23953e-22)
(0.946386 0.0861048 -3.17928e-22)
(0.942642 0.0945121 1.47758e-21)
(0.954763 0.093803 -9.11612e-22)
(1.01788 0.0082395 7.42107e-23)
(1.01743 0.00794606 0)
(1.01768 0.00765772 -6.50772e-24)
(1.0709 0.0105158 -2.79283e-21)
(1.07011 0.0104081 0)
(1.04586 0.0188931 -3.47869e-21)
(1.04556 0.0203887 4.19987e-21)
(1.04733 0.0198355 4.72111e-21)
(1.01871 0.0070519 1.62151e-25)
(1.01873 0.00670411 -3.13534e-22)
(1.01839 0.0066669 -9.4653e-23)
(0.561189 -0.332967 -4.04914e-20)
(0.567082 -0.343872 1.81924e-20)
(0.56386 -0.357512 -4.977e-21)
(1.01375 0.00327864 5.78163e-22)
(1.01392 0.00358862 2.39974e-22)
(1.06378 0.225784 0)
(1.06757 0.254083 6.30825e-21)
(1.01909 0.00746298 2.88146e-22)
(1.01867 0.00746631 1.70513e-22)
(1.02203 0.0069967 0)
(1.02235 0.00745709 1.19243e-21)
(1.02266 0.00705906 1.10839e-21)
(1.04512 0.214977 0)
(1.05804 0.201614 0)
(0.952172 0.0760419 1.67681e-21)
(0.939729 0.0747874 0)
(0.964925 -0.209842 2.51306e-21)
(0.945696 -0.229099 3.54051e-21)
(0.994592 0.0207943 1.4373e-21)
(0.999939 0.0222461 4.75196e-21)
(1.01406 -0.00135183 -5.51952e-22)
(1.01394 -0.00127241 -3.12328e-22)
(1.01405 -0.00137829 6.11185e-22)
(0.987254 -0.00605282 -1.09067e-21)
(0.989537 -0.00277665 0)
(0.984984 -0.00190293 0)
(1.00859 0.000201884 0)
(1.00959 0.000160517 -3.71093e-22)
(1.01045 0.000129351 0)
(0.990805 -0.00114546 1.2417e-21)
(0.992837 0.0040334 3.98124e-21)
(1.01433 -0.00151583 -1.45229e-23)
(1.01435 -0.00148333 1.3272e-22)
(1.01449 -0.00160237 -3.48625e-23)
(1.01641 -0.00132532 -1.07316e-23)
(1.01628 -0.00123729 4.76637e-23)
(0.969864 -0.0890562 2.13406e-20)
(0.937858 -0.129713 -1.12899e-20)
(0.940527 -0.0575349 -3.35359e-21)
(0.994509 -0.108022 2.42797e-21)
(0.994434 -0.030749 2.65302e-20)
(1.01489 0.00221106 0)
(1.0148 0.00224764 0)
(1.02289 0.0267858 7.12936e-22)
(1.02282 0.0322182 -8.95262e-23)
(1.01434 0.000246214 -7.08756e-22)
(1.01414 0.000351644 4.00708e-22)
(1.01434 0.000378609 -9.68519e-22)
(1.01451 0.00014087 1.89689e-21)
(1.01426 0.000165942 0)
(0.831148 0.343532 -7.24586e-21)
(0.827531 0.354067 -1.22735e-20)
(1.09695 -0.0558208 4.75866e-21)
(1.09566 -0.0676456 -8.56921e-21)
(1.08485 -0.0579903 -2.30429e-21)
(0.985276 -0.0107701 -1.10801e-21)
(0.990559 -0.010053 1.51089e-21)
(1.01244 -0.000216223 4.96062e-23)
(1.01235 -0.000207395 -3.03487e-22)
(1.01241 -0.000266881 1.52819e-22)
(1.01334 0.00223218 5.61852e-22)
(1.01328 0.00223227 1.12902e-21)
(1.0134 0.00248376 -8.88028e-22)
(1.01555 -6.31954e-05 4.47723e-22)
(1.01543 0.000209713 1.72213e-21)
(1.01588 8.58332e-05 6.36738e-23)
(1.01448 0.00362557 4.30603e-22)
(1.01431 0.00342173 4.66127e-22)
(1.01427 0.00348888 2.85391e-22)
(1.03083 0.207633 0)
(1.03411 0.22953 0)
(1.23791 0.0951091 6.58483e-21)
(1.2057 0.0498172 1.80381e-20)
(1.23716 0.0706937 -2.0198e-20)
(1.01981 -0.00449866 5.61186e-22)
(1.01871 -0.00569141 0)
(1.0208 -0.00610776 -9.2659e-22)
(0.546498 -0.26895 -4.11507e-21)
(0.542851 -0.226186 0)
(1.03379 0.0134115 -1.44069e-21)
(1.03451 0.0143595 6.96227e-22)
(1.03491 0.0130528 -3.49119e-21)
(0.982614 0.243342 -1.9464e-21)
(0.992162 0.251752 1.19275e-21)
(1.11826 0.033069 1.5569e-21)
(1.11921 0.0250039 5.90816e-22)
(1.11097 0.0270765 1.43719e-21)
(1.01147 -9.31151e-05 -1.58046e-23)
(1.01171 -0.000134227 -1.54325e-21)
(1.01186 -0.000167263 -1.20171e-22)
(0.579922 -0.302903 -3.23919e-20)
(0.558637 -0.297438 5.3965e-22)
(1.01246 -0.000439495 8.98251e-22)
(1.01248 -0.000404218 1.24259e-21)
(1.02496 0.0340925 -2.79549e-22)
(1.02617 0.0321054 -2.45592e-22)
(1.02735 0.0344105 -2.50216e-22)
(1.01209 -5.09535e-05 1.05862e-21)
(1.01215 -3.30568e-05 9.67853e-22)
(0.982324 0.0161127 7.98574e-22)
(0.983109 0.0112972 -1.96688e-21)
(1.01369 -0.000981114 -5.77614e-22)
(1.01375 -0.00108411 2.41673e-22)
(1.01503 0.0045693 2.92612e-23)
(1.01469 0.0050579 -1.39702e-23)
(1.01463 0.00436042 4.89837e-22)
(0.850153 -0.31223 1.56941e-20)
(0.834127 -0.288982 -1.94591e-21)
(0.848976 -0.29585 1.93342e-20)
(1.01379 0.00315156 -1.01063e-21)
(1.0136 0.00305633 6.54823e-22)
(1.00998 -9.51692e-06 7.26353e-22)
(1.01089 -9.80111e-05 3.00086e-22)
(1.01051 -5.80556e-05 1.79531e-21)
(1.03634 0.0159675 -7.17568e-22)
(1.03539 0.01526 2.22848e-21)
(1.03659 0.0146366 -1.31996e-21)
(1.07554 0.0295975 -8.33542e-22)
(1.07817 0.0292045 1.49522e-22)
(1.07561 0.0268027 -2.20171e-21)
(0.987722 0.00398675 1.75851e-21)
(0.991068 0.00804675 1.36243e-21)
(1.02277 0.0339609 -1.22479e-23)
(1.02437 0.0364239 -2.15755e-23)
(1.09127 -0.0427253 4.66019e-21)
(1.1063 -0.0487897 2.69752e-21)
(0.728124 -0.397569 4.80166e-21)
(0.733508 -0.437634 8.44196e-21)
(1.01568 -0.000379745 -1.13823e-21)
(1.01527 -0.000171926 -1.97628e-22)
(1.00845 -0.000177826 0)
(1.00696 -0.000227276 0)
(1.01176 0.000372482 0)
(1.01067 0.00028124 0)
(1.0105 0.000261983 0)
(1.0157 -0.00707049 5.67242e-23)
(1.01682 -0.0073778 -8.61039e-23)
(1.23868 0.120888 7.24882e-22)
(1.23681 0.123218 8.78513e-21)
(1.01397 0.000361073 1.02725e-21)
(1.03141 0.0116542 2.24351e-21)
(1.03242 0.0115888 4.6196e-22)
(1.03171 0.0107111 5.21471e-21)
(0.860688 -0.317192 -1.87778e-21)
(0.869645 -0.333303 1.26833e-20)
(1.01314 4.92161e-05 1.71351e-22)
(1.01334 7.60018e-05 2.4437e-22)
(1.07173 0.0105651 -1.13476e-20)
(1.07131 0.0114338 -4.17354e-22)
(0.9072 -0.276047 1.19979e-21)
(0.903441 -0.270456 -7.39699e-21)
(1.01276 -0.000622344 -1.01378e-21)
(1.01272 -0.000603139 -1.47084e-22)
(1.01264 -0.000594938 -8.68793e-22)
(0.986739 -0.0115308 2.13915e-21)
(0.981899 -0.00687221 0)
(0.97947 -0.0134324 1.9432e-21)
(0.888739 -0.248389 -9.89794e-22)
(0.878719 -0.256459 -4.8714e-21)
(1.03519 0.0371947 -1.2303e-21)
(1.04661 0.114012 2.91457e-20)
(1.05756 0.0604473 0)
(1.0129 -0.00066503 8.2603e-22)
(1.04407 0.0138261 -4.31093e-23)
(1.0429 0.0129575 8.88643e-22)
(1.01211 0.0149865 2.72225e-20)
(1.02499 -0.0373863 -1.12522e-21)
(1.01424 0.00257384 -5.88628e-22)
(1.01435 0.00262811 4.00088e-22)
(1.01426 0.00248898 -1.27594e-21)
(1.01214 -6.93149e-05 0)
(1.01203 -7.35256e-05 0)
(1.01328 0.00201254 0)
(1.01337 0.00222479 0)
(1.01353 -0.000956484 3.83623e-22)
(1.01351 -0.000901403 1.9608e-22)
(1.03309 0.0124221 -2.86875e-22)
(1.03263 0.0135559 2.19167e-21)
(1.04185 0.0236577 2.04226e-21)
(1.04161 0.0251001 -9.18771e-22)
(1.04345 0.0242329 1.73853e-21)
(1.02455 0.00735059 1.01859e-22)
(1.01416 -0.00123297 -1.6449e-23)
(1.01412 -0.00126668 -1.88735e-22)
(1.01403 -0.00115961 3.62493e-22)
(0.956789 -0.0244436 -1.01327e-21)
(0.948637 -0.0139217 0)
(0.94826 -0.0294943 -4.13648e-22)
(1.06073 0.0163627 1.63331e-21)
(1.06075 0.0146827 1.22051e-20)
(1.0622 0.0161382 1.25758e-20)
(1.01466 0.00993797 -3.38947e-23)
(1.01379 0.0103155 0)
(1.01633 -0.000917361 -8.74657e-23)
(1.0163 -0.000979929 -8.07708e-23)
(1.01622 -0.000862029 -6.32621e-23)
(0.789124 -0.183526 1.65888e-21)
(0.798907 -0.185908 2.54293e-20)
(0.701172 -0.234081 -5.76924e-21)
(1.00995 0.000112853 8.42362e-23)
(1.01086 6.3461e-05 1.10293e-21)
(1.01044 7.61889e-05 -3.39061e-22)
(0.826929 -0.28551 -3.29142e-21)
(1.06312 0.037304 5.72288e-22)
(1.06043 0.035489 -5.1645e-22)
(1.01254 -0.000222728 8.46318e-22)
(1.01248 -0.000165627 8.16706e-22)
(1.04216 0.0218745 -2.29263e-21)
(1.04038 0.0228626 0)
(0.849118 0.35736 0)
(0.836359 0.357556 0)
(0.842648 0.350584 0)
(1.02717 0.00112307 2.11119e-21)
(1.0278 0.0009761 9.2602e-22)
(0.688224 -0.0206271 -8.82434e-21)
(0.600215 -0.0179253 2.11028e-20)
(0.69516 -0.0434348 1.04716e-20)
(0.998442 -0.0286958 8.16516e-22)
(0.991534 -0.0268387 0)
(0.992427 -0.0340835 2.06104e-22)
(-0.00480776 0.048775 -1.56703e-20)
(0.00440816 0.0696237 2.73451e-21)
(0.0164062 0.0139868 1.75213e-20)
(1.01275 0.000646583 -4.91006e-22)
(1.01279 0.000715242 -8.33225e-22)
(1.08159 -0.0870868 4.98999e-21)
(1.03073 -0.0965303 9.14326e-21)
(1.071 -0.0829052 1.57686e-21)
(1.13609 0.0172755 -7.25011e-22)
(1.12781 0.0219584 -1.88653e-21)
(1.13881 0.0285748 -3.62542e-21)
(0.930484 0.0517032 -7.34276e-22)
(0.943853 0.0551662 1.90067e-21)
(0.94227 0.0422563 -7.27323e-22)
(1.01251 -0.000207026 4.44935e-23)
(1.01211 -0.000195885 3.59607e-22)
(1.01235 -0.000212242 -1.17082e-21)
(0.939588 0.299407 -6.95109e-21)
(0.958716 0.290797 5.16417e-21)
(1.01536 0.000426004 -5.98432e-22)
(1.01508 0.000288789 6.83589e-24)
(0.930682 -0.27211 8.05472e-21)
(0.931142 -0.253198 -1.18496e-21)
(0.94899 -0.245178 -1.14209e-21)
(1.07254 0.0295655 -7.75883e-23)
(1.07444 0.0328029 8.54871e-22)
(1.02173 0.00648057 0)
(1.02147 0.00680988 1.08091e-21)
(1.0146 0.00380396 -8.85494e-22)
(1.01466 0.00369825 3.7079e-23)
(1.07202 0.00999356 4.8586e-21)
(1.01272 -0.000262393 -6.47083e-22)
(1.01264 -0.000238598 3.22855e-23)
(0.919353 0.0623696 9.82736e-22)
(0.915301 0.0458943 1.68676e-21)
(0.95472 0.0593102 2.14449e-21)
(0.962364 0.0512328 -1.78651e-22)
(0.965622 0.0628545 8.07686e-23)
(1.01513 0.000337767 9.55046e-23)
(1.01593 0.000491011 -6.76361e-22)
(1.01484 0.000333887 2.96555e-22)
(1.00116 0.0284334 1.22969e-22)
(1.00616 0.0303191 5.19772e-22)
(1.00452 0.0235775 -9.36445e-22)
(1.01258 -0.000251621 -6.47325e-22)
(1.01247 -0.000267547 -2.4474e-22)
(1.01283 -0.000294219 -5.92355e-22)
(1.08863 0.227206 0)
(1.10536 0.195368 3.9841e-21)
(1.10004 0.20886 2.85694e-21)
(1.01474 0.000711002 0)
(1.01474 0.000735384 0)
(1.01488 0.000772564 5.00028e-23)
(1.10005 -0.0830611 -1.31793e-21)
(0.376427 -0.0622536 -1.73813e-20)
(0.368219 -0.0324796 1.66988e-20)
(0.460234 -0.0543156 1.3533e-20)
(0.991152 -0.0144255 2.74343e-21)
(0.991911 -0.00897703 2.27433e-21)
(0.287505 -0.0766886 -1.20023e-20)
(0.370246 -0.0977817 -6.57956e-21)
(0.996869 0.0253112 6.54669e-22)
(1.01551 0.0015522 -3.82442e-23)
(1.01539 0.00154025 3.58917e-23)
(1.13204 0.00733874 1.57357e-21)
(1.01589 0.00466757 3.78893e-22)
(1.01593 0.00425469 -2.40077e-22)
(1.01607 0.00440887 3.78975e-22)
(1.02071 -0.00332128 1.26451e-21)
(1.01907 -0.00335527 -5.5466e-22)
(0.980011 0.0439442 3.22124e-21)
(0.98142 0.0503292 2.09091e-21)
(0.98638 0.0462166 1.53448e-21)
(1.01824 0.00850061 6.67493e-23)
(1.01792 0.00878498 -3.27415e-23)
(1.01218 -9.65314e-05 0)
(1.01224 -6.34671e-05 -9.65961e-22)
(1.01475 6.03697e-05 3.50408e-22)
(1.01464 -5.92381e-05 2.40167e-21)
(1.05922 0.0165256 -8.38114e-21)
(1.06057 0.0182709 -7.3927e-21)
(1.00785 0.000104598 -3.84609e-22)
(1.00618 0.000156158 0)
(1.01413 0.00251945 -7.4784e-22)
(1.01424 0.0026561 0)
(0.906186 -0.272354 1.75165e-22)
(1.02203 0.000350782 4.37357e-22)
(1.02182 -0.000805026 0)
(1.02324 -0.000145699 0)
(0.0101533 0.0259676 2.23501e-20)
(0.0680208 -0.0497065 4.92773e-20)
(1.02552 0.030271 3.85795e-22)
(1.02775 0.0305568 2.49202e-22)
(0.904685 -0.30924 -2.66271e-21)
(0.908306 -0.306088 -4.30297e-21)
(1.04998 0.212598 1.29722e-22)
(1.0316 0.193838 -1.98302e-22)
(1.02578 0.222063 -2.49731e-21)
(0.813514 -0.0562739 7.02729e-22)
(0.806055 -0.021504 6.89766e-21)
(0.811342 -0.069317 4.01873e-21)
(1.01646 -0.00144606 6.17583e-23)
(1.01656 -0.00141481 7.03569e-23)
(1.0151 -0.00774874 1.26892e-22)
(1.01468 -0.00650003 -1.74501e-22)
(0.762098 0.303633 4.23835e-21)
(0.765978 0.262538 5.01912e-20)
(0.786813 0.307969 -1.91186e-20)
(1.01213 0.000431417 -1.87848e-22)
(1.01234 0.000446832 -1.24257e-21)
(0.823323 -0.0832214 -2.32362e-21)
(0.8209 -0.0435984 2.62717e-22)
(1.02512 0.0278707 8.30935e-23)
(1.02347 0.0289898 9.60468e-23)
(1.03743 0.0163324 -2.7309e-21)
(1.03627 0.0168691 -1.79769e-21)
(1.01103 0.00022333 6.36235e-22)
(1.01155 0.000253414 0)
(1.04627 0.0172699 -8.43449e-21)
(1.04444 0.0178182 -3.58634e-21)
(1.01264 -0.00022741 0)
(1.0126 -0.000288133 -9.39792e-22)
(0.958981 -0.0955804 -1.14273e-21)
(0.955275 -0.107248 -5.61206e-22)
(0.938642 -0.10404 1.97911e-21)
(0.75222 0.280782 1.34482e-20)
(0.770704 0.280932 0)
(0.770254 0.304177 1.63342e-20)
(1.01542 0.00481832 0)
(1.01538 0.00427393 0)
(1.0221 0.00138522 7.97988e-22)
(1.02106 0.000683098 1.61876e-21)
(1.00954 4.71043e-05 -1.17479e-22)
(1.00874 0.000101174 -2.05869e-21)
(1.01615 0.00316203 0)
(1.01614 0.00272941 3.05046e-22)
(1.01579 0.00321854 0)
(0.194642 -0.0869962 1.91504e-20)
(0.148029 -0.0324226 1.10914e-20)
(1.01443 0.000888097 4.8639e-23)
(1.01448 0.000963379 1.90218e-23)
(1.01455 0.000845032 -4.5475e-23)
(1.00957 0.0314987 1.32061e-21)
(1.01282 0.0362248 -7.82719e-23)
(1.01221 -2.20575e-05 0)
(1.01227 -2.85909e-05 0)
(1.01214 -2.99602e-05 0)
(1.01345 0.00105239 7.3387e-23)
(1.01349 0.000937088 3.22451e-22)
(1.01324 -0.000670985 -8.80587e-22)
(1.01328 -0.000747351 2.25426e-21)
(1.07088 0.0268617 5.79725e-21)
(0.731039 0.27423 1.63421e-20)
(0.728749 0.255187 1.05528e-20)
(1.00386 0.032463 -2.16574e-21)
(1.00711 0.0267216 1.09894e-24)
(0.96228 -0.0859469 1.1889e-22)
(0.975378 -0.089391 8.69814e-21)
(1.00477 -7.20106e-05 9.41579e-22)
(1.00343 -8.23484e-05 0)
(1.00677 -7.9322e-05 0)
(1.01485 0.000175264 -2.07772e-21)
(1.01501 -2.73337e-05 -1.12405e-21)
(1.01983 0.00135501 -1.36218e-22)
(1.01955 0.00141211 8.18998e-22)
(1.01982 0.0015715 8.41252e-22)
(1.1467 0.0220412 1.0572e-20)
(1.13285 0.0434053 0)
(1.01301 0.000464071 5.6013e-22)
(1.01298 0.000435581 0)
(1.01297 0.000282765 0)
(0.980639 -0.102024 8.39321e-22)
(0.96055 -0.110838 0)
(1.01646 0.00319772 4.56435e-22)
(1.01621 0.00351011 2.1963e-22)
(0.999853 -0.0107923 4.57929e-21)
(0.996599 -0.00803787 4.69626e-23)
(0.996859 -0.0135253 -4.3548e-21)
(1.0371 0.00456805 8.08488e-22)
(1.03811 0.00418013 0)
(1.03802 0.0053338 2.6829e-21)
(1.01419 0.0021197 3.44376e-23)
(1.01433 0.00219645 5.76117e-22)
(1.01426 0.00223148 -4.96113e-22)
(1.00646 8.62774e-05 8.58878e-22)
(1.00355 -5.48079e-05 -1.20032e-21)
(0.859888 0.351289 8.35812e-21)
(1.01266 -0.000529702 1.66954e-21)
(1.0126 -0.000523817 -6.35057e-22)
(0.81342 0.0564037 -2.60161e-21)
(0.817891 0.0934594 -6.88825e-22)
(0.830806 0.0847331 8.26129e-21)
(0.783442 -0.0304613 -1.63743e-20)
(0.685854 0.00556818 2.38717e-21)
(1.03616 0.00508777 -2.32025e-22)
(1.03615 0.00414689 1.28264e-21)
(1.01498 7.48845e-05 0)
(1.01122 1.87584e-05 0)
(1.01068 8.41354e-05 -4.25489e-22)
(0.156474 -0.15772 -3.2131e-21)
(0.186016 -0.215189 -5.57131e-21)
(0.154519 -0.195066 -1.43413e-20)
(0.997402 -0.0198818 -1.72988e-21)
(1.00208 -0.0209948 -1.00238e-21)
(0.999033 -0.0247322 2.38682e-21)
(1.01337 -0.000795278 2.6108e-22)
(1.01344 -0.000862976 -3.44081e-22)
(1.01345 -0.000842243 -1.29324e-22)
(0.99069 -0.0106284 -8.32088e-22)
(0.986732 -0.00680283 -1.85537e-21)
(0.992735 -0.00574094 -5.68484e-22)
(1.00953 -4.86611e-05 -4.7375e-22)
(1.00882 1.33027e-05 0)
(1.05522 0.0375101 0)
(1.05743 0.0396436 -1.89601e-21)
(1.05794 0.0365453 -2.29309e-21)
(1.00878 -0.0143034 -5.74656e-23)
(1.00765 -0.0119264 -1.14973e-22)
(1.00617 -0.0147249 -1.04924e-22)
(1.01003 0.000181127 -3.58896e-22)
(1.0138 0.00023435 7.34461e-22)
(1.00968 0.000194894 5.30819e-22)
(0.8075 0.0976933 -1.07184e-20)
(0.810625 0.0810407 1.43075e-21)
(0.808635 0.0488346 -1.28267e-20)
(0.99996 0.038572 -1.01195e-21)
(1.01405 -0.00151884 3.81327e-22)
(1.01433 -0.00177598 3.95453e-23)
(1.01425 -0.00151682 -1.80257e-22)
(0.899781 -0.138897 -1.64188e-21)
(0.893268 -0.124567 -1.79326e-21)
(0.916277 -0.125693 -1.6225e-21)
(1.02135 -0.00193463 4.55002e-22)
(1.0226 -0.00297143 4.71221e-22)
(1.0198 0.0011361 -1.37828e-21)
(1.0201 0.00129931 -4.78608e-23)
(1.01238 -0.000200654 0)
(1.01276 -0.000299924 3.24345e-24)
(1.03417 0.0155412 2.86173e-21)
(0.948274 0.0695992 1.6707e-21)
(1.01628 -0.000840415 -6.42202e-24)
(1.01643 -0.000947636 -6.43719e-23)
(1.06807 0.226333 -7.33469e-22)
(1.07042 0.199148 1.28023e-21)
(0.994126 -0.0177293 1.19857e-21)
(0.9979 -0.0154991 -1.06658e-21)
(0.833108 0.285082 1.4301e-21)
(0.849764 0.283774 3.31018e-22)
(1.01301 0.000512617 -8.6492e-23)
(1.01301 0.000544074 -5.97058e-22)
(1.01296 0.00030013 1.93076e-21)
(1.01558 -0.00899607 6.20791e-23)
(1.01423 -0.00860894 2.61872e-22)
(0.884897 -0.152228 8.75389e-22)
(0.90696 -0.149741 1.43881e-21)
(0.812765 0.104916 -4.92361e-21)
(0.811626 0.1398 -1.24765e-20)
(1.01352 0.000159041 3.9913e-23)
(1.01496 0.000279999 2.53333e-22)
(1.01414 0.00319605 -1.13172e-22)
(1.01398 0.00305122 -1.03059e-22)
(1.014 0.0029723 1.08871e-22)
(1.01677 0.00405961 -5.96508e-23)
(1.01661 0.00385799 8.55578e-24)
(1.0139 -0.00149138 8.89159e-22)
(1.01388 -0.00129912 1.35284e-21)
(1.01134 -0.013965 1.21729e-22)
(1.01027 -0.0169679 -1.02675e-21)
(0.995016 -0.0142771 2.82651e-22)
(0.988638 -0.0160194 2.85953e-22)
(1.01319 -0.000641198 -1.66112e-21)
(1.01322 -0.000630025 -1.63385e-21)
(0.964786 -0.018477 -5.11774e-21)
(0.964346 -0.0287789 -6.95021e-22)
(0.908857 -0.299703 8.47965e-21)
(0.921782 -0.288759 -8.98288e-21)
(0.91158 -0.285912 6.7215e-21)
(1.01419 -0.00143245 -6.80686e-22)
(1.01407 -0.00132088 1.92831e-22)
(1.00818 -0.000118946 0)
(1.0081 -8.19205e-05 0)
(1.00589 -6.70589e-05 0)
(0.879516 -0.1428 -6.67125e-22)
(0.997273 -0.0925733 8.21516e-22)
(1.00294 -0.0121828 2.52399e-21)
(1.0019 -0.00812477 2.64815e-21)
(1.05569 0.0649142 1.00016e-21)
(1.06286 0.0576853 1.92441e-21)
(1.05417 0.0745017 -4.23874e-21)
(0.943428 -0.00336794 2.31862e-22)
(0.932708 -0.00276155 5.13479e-22)
(0.939195 0.0117095 -1.84434e-21)
(1.01531 0.000304743 -1.79399e-22)
(1.01306 0.000207769 0)
(1.01721 -0.0162653 1.61214e-22)
(1.01912 -0.0144921 -1.33956e-21)
(1.01649 -0.0135455 1.57518e-22)
(1.01324 0.00181643 -1.14806e-21)
(1.01322 0.00180287 0)
(1.0204 -0.00133119 0)
(1.05261 0.0381682 0)
(1.05323 0.035431 5.84649e-22)
(1.01559 0.000594251 -1.42503e-21)
(1.01521 0.00063184 -3.86555e-22)
(1.01914 0.00524 3.99383e-22)
(1.01903 0.00493417 6.89871e-24)
(1.01938 0.00513056 9.34225e-22)
(0.997028 0.0156504 -4.37324e-21)
(0.99839 0.0108098 5.57848e-22)
(1.01021 -1.45123e-05 -7.78709e-25)
(1.00901 -4.72696e-06 2.34313e-25)
(1.01022 8.00202e-06 -1.13675e-21)
(0.926892 -0.28475 -6.15791e-21)
(0.917697 -0.293269 9.43527e-21)
(0.982504 -0.00155628 -7.4107e-23)
(0.978502 -0.00677466 4.29849e-21)
(0.613085 -0.299363 7.82151e-21)
(0.598631 -0.29805 1.70171e-20)
(0.57895 -0.34304 -1.38012e-21)
(1.05551 0.0561212 0)
(1.04803 0.0673881 4.2538e-22)
(1.01274 -0.000232827 -4.03119e-24)
(1.01269 -0.000169331 0)
(0.873979 -0.311741 -6.045e-21)
(0.855921 -0.2954 -5.26755e-21)
(1.11435 0.0407403 2.7386e-22)
(1.1241 0.0398631 0)
(1.06319 0.0407135 -1.76328e-22)
(1.05999 0.0420782 -1.11153e-21)
(1.06285 0.044434 -6.17224e-22)
(1.01653 -0.00157593 5.0042e-24)
(1.01637 -0.00147612 -1.401e-24)
(1.00747 -0.0133827 -1.54654e-21)
(1.01007 -0.0132523 -1.36246e-21)
(1.00871 -0.0108529 1.42135e-22)
(1.00852 0.000202691 0)
(1.01097 0.000299084 0)
(1.01114 0.000318227 0)
(1.01224 -0.000127486 -1.34109e-21)
(1.01214 -0.000131647 9.30828e-22)
(1.01292 0.00059975 -2.30159e-21)
(1.01283 0.00055165 2.40166e-21)
(1.01284 0.000469271 2.12885e-24)
(1.01247 0.00045982 4.58795e-22)
(1.01276 0.000548234 2.67794e-23)
(1.01259 0.00048084 -7.67505e-23)
(1.01691 -0.00732228 -2.59195e-23)
(1.01571 -0.00822396 9.24162e-22)
(1.0155 -0.00676565 -9.4317e-22)
(1.03132 0.00403637 4.1637e-21)
(1.03129 0.00333219 -9.73863e-23)
(1.03206 0.00372374 2.77531e-21)
(0.989462 0.0184986 0)
(0.98395 0.0212264 3.98428e-22)
(1.01772 -0.00640975 -2.37564e-22)
(1.01864 -0.00788853 -7.30819e-22)
(1.01564 0.000166405 -5.3724e-23)
(1.01534 -2.24674e-05 2.95774e-23)
(1.01543 0.000198061 4.79806e-22)
(0.825365 0.320413 -1.11776e-20)
(0.836334 0.323319 -1.9992e-20)
(1.01501 -0.0178179 1.40049e-21)
(1.01843 -0.0199017 0)
(1.01569 0.00494776 0)
(1.01596 0.0050329 0)
(1.00433 0.000103901 -4.29895e-22)
(0.739561 -0.0970777 4.40686e-21)
(0.70447 -0.116737 -7.73647e-21)
(0.82612 -0.103693 -7.81244e-21)
(1.00589 -2.72205e-05 2.45353e-22)
(1.00341 3.49402e-05 -6.51292e-22)
(1.00337 -3.30547e-05 1.16721e-21)
(1.01876 0.00634999 0)
(1.01909 0.00668701 3.99058e-22)
(1.01678 0.000342209 7.10876e-22)
(1.01587 0.000468307 -3.84016e-23)
(1.03038 0.0116358 -2.71936e-21)
(1.03094 0.0125725 -5.63237e-22)
(0.887729 -0.234142 -4.95395e-21)
(0.869548 -0.228357 -9.52561e-21)
(0.884905 -0.256537 -8.66418e-22)
(0.889018 -0.300955 -6.26087e-21)
(0.886333 -0.322766 1.16308e-20)
(1.03348 0.0112882 9.21963e-22)
(1.01305 0.000690481 1.48081e-22)
(1.01294 0.000595576 -4.58829e-22)
(1.01296 0.000665541 -1.26231e-22)
(1.01843 -0.00537918 2.6761e-21)
(1.01887 -0.00436689 1.24619e-21)
(1.0199 -0.0054423 1.73445e-21)
(1.01717 -0.00526062 6.93845e-22)
(0.838019 0.338781 6.73729e-21)
(0.841694 0.341986 3.89359e-21)
(0.842568 0.335088 5.05047e-22)
(1.01624 -0.00102745 -1.21416e-22)
(1.00528 0.000127379 0)
(1.00511 0.000119677 0)
(1.01306 0.000665134 1.71631e-21)
(1.01117 -0.000204147 0)
(1.01312 -0.000385517 7.84657e-24)
(1.01056 0.135612 0)
(0.999667 0.135402 0)
(1.01312 0.00120658 -7.34491e-23)
(1.01316 0.00105919 -8.56825e-23)
(1.01328 0.00133181 1.55575e-23)
(0.993694 -0.00534884 0)
(0.997034 -0.00327888 1.36036e-21)
(0.97399 0.179873 -1.04751e-21)
(0.963855 0.160842 -1.18284e-21)
(0.953544 0.180362 3.2928e-22)
(0.724593 0.139879 -7.99869e-21)
(0.707028 0.0656276 0)