/*--------------------------------*- C++ -*----------------------------------*\
| =========                 |                                                 |
| \\      /  F ield         | OpenFOAM: The Open Source CFD Toolbox           |
|  \\    /   O peration     | Version:  v2012                                 |
|   \\  /    A nd           | Website:  www.openfoam.com                      |
|    \\/     M anipulation  |                                                 |
\*---------------------------------------------------------------------------*/
FoamFile
{
    version     2.0;
    format      ascii;
    class       volScalarField;
    location    "500";
    object      k_0;
}
// * * * * * * * * * * * * * * * * * * * * * * * * * * * * * * * * * * * * * //

dimensions      [0 2 -2 0 0 0 0];


internalField   nonuniform List<scalar> 
9793
(
0.000149437
0.0161704
0.000147585
0.0264419
0.000149704
0.000205886
0.000172651
0.0448535
0.00014913
0.00836459
0.000149246
0.00014918
0.000147327
0.0476319
0.000147373
0.00016027
0.0001724
0.00014752
0.0318082
0.00014503
0.000146193
0.000149939
0.024816
0.0459361
0.0498615
0.000154818
0.000148562
0.000149722
0.000145085
0.000176323
0.0177368
0.000250868
0.000147995
0.000147571
0.000147072
0.000161446
0.000156549
0.000153165
0.0379334
0.000161733
0.000173761
0.0887235
0.0372842
0.000149793
0.000147702
0.000148173
0.0214961
0.000149885
0.000147606
0.000147568
0.000161284
0.000146895
0.0001678
0.000149769
0.000158631
0.0283466
0.000147379
0.000189238
0.000147604
0.000149937
0.000154925
0.000169252
0.000147645
0.000169648
0.000147579
0.000148836
0.00757825
0.00015448
0.000157612
0.0388867
0.00014811
0.000168751
0.0396661
0.106372
0.0465684
0.000149724
0.000161868
0.0800027
0.000147816
0.000149783
0.000162653
0.0322169
0.000172287
0.000152429
0.000157628
0.00020386
0.000149714
0.000186537
0.0382996
0.000168818
0.0287455
0.000792531
0.00122232
0.00016536
0.036757
0.000147358
0.0480492
0.000170483
0.000154649
0.000149769
0.0364282
0.000166483
0.0738537
0.000147725
0.0499501
0.0753527
0.103746
0.000147032
0.000147841
0.000149878
0.000149514
0.0267011
0.000400468
0.0135357
0.000148006
0.000148656
0.000156421
0.000148233
0.0308206
0.000148078
0.0493705
0.000187437
0.0584475
0.000171306
0.000156601
0.000148111
0.000173883
0.0215349
0.00138474
0.00242532
0.000154467
0.000146665
0.00014919
0.000152946
0.000159804
0.0001843
0.0118326
0.000156486
0.000149806
0.000175237
0.0327485
0.000160396
0.00014787
0.000180945
0.019741
0.000213913
0.000148111
0.0462005
0.000146673
0.000148074
0.000148372
0.0383994
0.000153938
0.000148517
0.000147702
0.000324684
0.00017366
0.00014761
0.00106421
0.000147736
0.000184176
0.000154718
0.000146232
0.000184847
0.000149491
0.077599
0.0696759
0.000150217
0.000147037
0.000149396
0.000147953
0.0112894
0.0277506
0.0463415
0.000147287
0.000203849
0.000175114
0.000200945
0.000147732
0.000154476
0.0526106
0.017036
0.000191187
0.000148128
0.000148377
0.000146993
0.0649485
0.0367845
0.0173836
0.0766781
0.000148464
0.0144256
0.000191318
0.000153668
0.000148021
0.000151382
0.00031365
0.000145203
0.000147511
0.000149298
0.000148226
0.000146454
0.000162852
0.000157313
0.0342456
0.000147842
0.000159444
0.000150258
0.000149336
0.00019216
0.000174382
0.0331149
0.000145389
0.0373203
0.000152468
0.000179274
0.000147437
0.000183931
0.000148714
0.000162322
0.000171539
0.000146442
0.000255396
0.0519676
0.000164653
0.000147322
0.000175307
0.0596232
0.000162542
0.00016273
0.0345066
0.000177303
0.000177335
0.000170315
0.000187708
0.000146581
0.0281187
0.015982
0.000145205
0.000149432
0.0883495
0.000147599
0.0001495
0.000198975
0.000201402
0.000148754
0.000154607
0.000160269
0.00016103
0.000155007
0.000147766
0.000164842
0.0277642
0.000146339
0.0483715
0.00014972
0.000149056
0.000145677
0.0292024
0.000147772
0.00372141
0.0403709
0.00014858
0.000148782
0.0171806
0.000148251
0.000149558
0.000148003
0.0391548
0.000181083
0.00015334
0.000192755
0.000186958
0.0703131
0.0223397
0.000150285
0.0200959
0.000149737
0.0616155
0.000595462
0.0400315
0.0487664
0.000184943
0.000154644
0.000170722
0.000156525
0.000148278
0.000150768
0.00019284
0.000154958
0.000148841
0.000149881
0.000145381
0.000146928
0.000146338
0.0263755
0.00014698
0.000147222
0.000148988
0.000147333
0.0229422
0.000217955
0.000164608
0.000150492
0.000180851
0.000150119
0.0802257
0.0308215
0.000147748
0.0415747
0.000167822
0.000147683
0.0124318
0.0975438
0.000148048
0.000165241
0.000749605
0.000148736
0.000158312
0.000147242
0.000149038
0.06648
0.000161496
0.000147626
0.000148048
0.000150262
0.000179114
0.000407937
0.000147609
0.000146994
0.000147487
0.00946548
0.0272415
0.0349006
0.000146404
0.000162185
0.000158576
0.000270906
0.000180943
0.000146698
0.000147165
0.00014748
0.000170486
0.000148502
0.0466518
0.000148487
0.000146533
0.0651165
0.0273338
0.0365238
0.000147639
0.0359879
0.000153562
0.000411079
0.0477485
0.0340122
0.000152096
0.000162636
0.0148185
0.0294033
0.0273169
0.000154473
0.000149732
0.000153713
0.00014739
0.000146872
0.00014839
0.000148441
0.000149941
0.0498864
0.000149318
0.000173403
0.000161601
0.0878072
0.000146697
0.000152667
0.0207321
0.000198559
0.0519399
0.000180027
0.000146526
0.000152266
0.000147601
0.000213597
0.00014486
0.0368046
0.000175761
0.000172354
0.0317989
0.0672072
0.000148821
0.000147285
0.0304899
0.000214782
0.000147824
0.0434447
0.000148778
0.000149095
0.000501197
0.000145374
0.00018938
0.000146605
0.069007
0.000148525
0.000149558
0.0615709
0.00016818
0.000185309
0.000153748
0.00014838
0.000147059
0.0541936
0.000170023
0.000145754
0.00014923
0.000159207
0.000158586
0.000185336
0.0151553
0.000149236
0.000147551
0.00018835
0.000148425
0.0292591
0.0002003
0.000148323
0.000148029
0.000150605
0.000148672
0.000147413
0.0371638
0.000162638
0.0341377
0.000156179
0.000153953
0.000171185
0.000152892
0.0314039
0.000154393
0.000149764
0.000154577
0.000211939
0.000147944
0.000147765
0.000148133
0.00014488
0.00014782
0.000147281
0.000148187
0.000148965
0.000150572
0.000156385
0.000199949
0.000149733
0.000265704
0.000154034
0.000180054
0.0213195
0.000148281
0.0684981
0.00017263
0.000148034
0.000144896
0.000147911
0.0573299
0.000186795
0.00014487
0.000148705
0.000149249
0.000164849
0.000175976
0.0795247
0.000147672
0.000147712
0.000157518
0.0194508
0.0393175
0.000151768
0.000153449
0.0496158
0.0786932
0.00353013
0.000148874
0.0001466
0.0350582
0.000147412
0.000175174
0.0876211
0.000145623
0.000178765
0.000158162
0.0341652
0.000147035
0.0329458
0.000199701
0.000159432
0.0121241
0.00014738
0.000262693
0.000148529
0.000147243
0.000149438
0.000147603
0.0437149
0.000147334
0.000147411
0.00015043
0.00014643
0.000146615
0.000164851
0.000150517
0.000168761
0.000148091
0.00014812
0.0233951
0.000166052
0.000151686
0.0474675
0.000155575
0.000148949
0.000147795
0.000147426
0.0403484
0.000147396
0.000148321
0.0194657
0.0875331
0.000161315
0.000147376
0.000149883
0.000149389
0.000149566
0.0485801
0.000148894
0.0866828
0.000155716
0.000284214
0.000149721
0.0103993
0.000153078
0.000184496
0.000147459
0.000204227
0.0239689
0.000148588
0.0832685
0.000147509
0.000149404
0.000146037
0.0572914
0.0337091
0.000147951
0.000158972
0.000147398
0.0507815
0.00014847
0.000165183
0.0335936
0.000153474
0.000148021
0.000161903
0.000149599
0.000149612
0.00014755
0.000198275
0.000147541
0.0523712
0.000148215
0.000148594
0.000173326
0.000166507
0.0736659
0.000147081
0.0109932
0.000147255
0.000180405
0.00014765
0.000150099
0.00014738
0.000148201
0.000149766
0.000180953
0.00017736
0.0808832
0.000183906
0.000158923
0.000159204
0.000394564
0.000153554
0.0477099
0.0305411
0.000186837
0.047217
0.0888394
0.000179331
0.000149651
0.000480037
0.00017326
0.000149696
0.000194773
0.000149641
0.000192828
0.000160393
0.000448658
0.000155269
0.0291185
0.0298176
0.000171449
0.000168357
0.000149384
0.000207633
0.000150475
0.000147469
0.000148424
0.000154614
0.000168871
0.0352436
0.000183619
0.0272129
0.000152891
0.00015154
0.034446
0.000184648
0.000152765
0.00017788
0.000149404
0.000470694
0.0641679
0.000148285
0.000164671
0.000179786
0.0292321
0.000147544
0.000154167
0.0593974
0.000162162
0.0714454
0.000203147
0.0883091
0.000154254
0.000153778
0.000148141
0.000147685
0.0184882
0.000149884
0.0387986
0.000188376
0.000171199
0.000149706
0.000149443
0.00015467
0.000149964
0.000146729
0.000147619
0.000181894
0.0603218
0.0501353
0.000149849
0.000200972
0.000147543
0.0286558
0.000176014
0.000161838
0.00015841
0.000196417
0.000146135
0.000148311
0.000161228
0.000147432
0.000149184
0.000176142
0.0379675
0.000146454
0.0129887
0.0398605
0.000155266
0.0634066
0.040286
0.00014743
0.00017218
0.000161347
0.00014841
0.000145903
0.000168826
0.0403215
0.0371114
0.000148018
0.000148008
0.000146158
0.00015732
0.000150542
0.000152139
0.000196574
0.000176036
0.000148921
0.0633589
0.000162846
0.000158345
0.00014901
0.00622621
0.00015432
0.000147276
0.00017169
0.000320076
0.000145966
0.000148225
0.000147627
0.000158492
0.000146104
0.000171667
0.00566622
0.000148889
0.00019877
0.000152182
0.000148768
0.0735283
0.0306227
0.0283131
0.000148406
0.000146211
0.0939507
0.000153985
0.0901273
0.0001457
0.000147534
0.0160883
0.0832583
0.000160861
0.000192654
0.000164574
0.000147303
0.000149793
0.000148161
0.0338813
0.000148237
0.000149947
0.0304848
0.000155155
0.000205812
0.000157842
0.000147442
0.0308515
0.000149765
0.000147582
0.000148096
0.000157582
0.0241822
0.000148998
0.000147738
0.000147422
0.000147328
0.000147488
0.000148234
0.0563076
0.000158047
0.00015035
0.000148636
0.00015805
0.000174242
0.000160256
0.000155765
0.000149883
0.000146093
0.000151722
0.0314425
0.0685105
0.000153581
0.0334737
0.000149379
0.000153808
0.000105565
0.000321976
0.000147346
0.00014913
0.000187182
0.000175492
0.000147201
0.000149623
0.0516344
0.000149767
0.000173285
0.000147999
0.000199159
0.000149614
0.000152947
0.000148749
0.000160203
0.000149744
0.000152865
0.000154224
0.000174667
0.000146946
0.000147891
0.000149633
0.000147205
0.000149547
0.000149068
0.00016199
0.000148641
0.000177918
0.0551962
0.000169122
0.000176432
0.000149283
0.000147559
0.0147188
0.0935243
0.00014579
0.0608764
0.0183669
0.000146287
0.000147718
0.000147102
0.000175567
0.000179034
0.000317317
0.000146903
0.000154583
0.0001469
0.000149163
0.000152599
0.000171433
0.000149461
0.000201512
0.000148526
0.000165207
0.000147146
0.000150952
0.000147637
0.000175096
0.000164183
0.0220205
0.102612
0.0589935
0.000173613
0.000147561
0.000303818
0.000413788
0.000182067
0.000149108
0.000148466
0.00029752
0.000147062
0.0247265
0.000146756
0.000164098
0.000149839
0.000149779
0.000147381
0.0891087
0.035188
0.0250854
0.000165821
0.0194492
0.000147637
0.054161
0.0723504
0.000149785
0.000148488
0.000146034
0.0860058
0.000145471
0.0429104
0.000157851
0.000195862
0.000149265
0.000220071
0.0120032
0.000288909
0.00015703
0.000163474
0.000148121
0.0445155
0.000145482
0.000203137
0.00016469
0.000165694
0.0798924
0.0400092
0.000154225
0.000151889
0.000147496
0.000205984
0.0456987
0.0151448
0.000146124
0.000416784
0.000159515
0.000202238
0.000171148
0.0389921
0.0405992
0.000147172
0.000154344
0.000164373
0.000155681
0.000155341
0.0707013
0.000149247
0.07504
0.00014776
0.000146956
0.000173046
0.000194954
0.0856975
0.000150971
0.0197705
0.0416008
0.000184424
0.000154735
0.000149509
0.00015095
0.000149466
0.000147694
0.000184343
0.0789382
0.000149225
0.00014768
0.000166024
0.000280123
0.000155406
0.000147661
0.000189762
0.00014758
0.000149817
0.000145621
0.000183113
0.000148094
0.000157223
0.0205483
0.000173692
0.000153423
0.000482714
0.000171206
0.000147552
0.000152906
0.000165
0.000149724
0.000147649
0.0001469
0.0692971
0.0629822
0.000149
0.000166035
0.00015909
0.000209796
0.000147929
0.0519389
0.000146926
0.000146178
0.000203032
1.35856e-05
0.000179258
0.000148306
0.000147209
0.0176154
0.0381907
0.000194357
0.000322015
0.000148587
0.000155068
0.000148016
0.0124772
0.000152507
0.083311
0.000150156
0.000148145
0.000154535
0.000146443
0.00014701
0.000166208
0.000146488
0.0544718
0.000147964
0.00014887
0.000145895
0.000157192
0.05027
0.0252251
0.000179915
0.0234891
0.000147758
0.000160447
0.000153474
0.0800245
0.000148477
0.000146989
0.0767893
0.000159332
0.000158073
0.000148648
0.00157922
0.0894813
0.0397315
0.000148707
0.000158631
0.00021939
0.000166467
0.000353853
0.000187859
0.000173096
0.000147299
0.000149898
0.000182264
0.000167115
0.000147805
0.000200811
0.000146088
0.000149146
0.000149114
0.000146928
0.000147581
0.000147834
0.000209759
0.000155342
0.000151648
0.000164807
0.00014637
0.000147622
0.00016332
0.0420516
0.000167166
0.000171315
0.0628893
0.000149517
0.0511056
0.000157523
0.0142725
0.000166194
0.000149283
0.000149343
0.000153381
0.0432671
0.000283421
0.000166166
0.000176006
0.000145981
0.000147674
0.000149619
0.000149277
0.0187434
0.000156669
0.000148654
0.000198364
0.000183356
0.0644387
0.000151118
0.073917
0.000163383
0.000169669
0.000167021
0.000191204
0.000187887
0.000149162
0.0417028
0.00157245
0.00015996
0.0397229
0.000172813
0.000149862
0.000149735
0.000147607
0.000150955
0.00015502
0.0194417
0.000175704
0.000147033
0.000162054
0.000147894
0.0253937
0.00045832
0.000147593
0.0228173
0.000147862
0.000147136
0.000149364
0.0408035
0.0518619
0.000176473
0.000157317
0.000147607
0.000205038
0.000149497
0.000160019
0.000148504
0.000148756
0.000148375
0.0681519
0.000150353
0.000160749
0.000157314
0.000149354
0.000186296
0.000182416
0.000168907
0.000154109
0.000154044
0.0342935
0.0633559
0.000148803
0.000146944
0.000148795
0.00015003
0.0234408
0.0675397
0.000198297
0.000154409
0.000146561
0.0708932
0.0959736
0.000149023
0.035047
0.000146077
0.000178669
0.0114218
0.000146259
0.0158127
0.0476873
0.000181933
0.0215206
0.0704134
0.000147224
0.000150109
0.000298104
0.0354526
0.000149823
0.0278224
0.000154934
0.000147553
0.000149808
0.000152959
0.000169651
0.000155659
0.000182768
0.0216344
0.00017917
0.000158546
0.000148392
0.000168444
0.000330965
0.000146824
0.000441709
0.000167082
0.000149415
0.000153242
0.000149571
0.000148886
0.000157566
0.000315933
0.000151102
0.000146477
0.026754
0.0395562
0.000185131
0.000149716
0.000171934
0.00014762
0.000147362
0.0644935
0.0632191
0.000147303
0.000144454
0.0520694
0.024452
0.000167447
0.000149052
0.0753846
0.000151612
0.000147375
0.000155436
0.000147379
0.000145919
0.000145318
0.0798106
0.00796324
0.000154696
0.000260225
0.000174092
0.0374411
0.0668191
0.0402503
0.000204498
0.000147882
0.00014955
0.000150274
0.000147793
0.000166701
0.000147064
0.000169485
0.000160662
0.0820082
0.00014822
0.0310256
0.000159092
0.040242
0.000147327
0.000271408
0.000164643
0.000206454
0.000200066
0.000160403
0.000145293
0.0670669
0.000174362
0.000350057
0.000145688
0.0725212
0.000148093
0.0363333
0.000211794
0.000161252
0.000147578
0.000148477
0.0460221
0.0128731
0.000165736
0.000146472
0.0782377
0.000171565
0.000171587
0.0960701
0.000167283
0.000147767
0.0876929
0.000147626
0.000167241
0.000146667
0.0625454
0.00014666
0.000154599
0.000239449
0.000486251
0.000149429
0.000173726
0.000155898
0.000167282
0.000147049
0.000193598
0.000151394
0.000166387
0.000147857
0.000147745
0.0322571
0.000162109
0.0387713
0.0969551
0.0212377
0.000150197
0.000146719
0.000147023
0.000156555
0.000167617
0.000163008
0.0181163
0.000153045
0.0539959
0.000161948
0.000149861
0.000148053
0.00018505
0.00152945
0.013722
0.000147586
0.0324556
0.000146923
0.0588373
0.000261895
0.000174117
0.00014788
0.000146932
0.000167348
0.000826339
0.000153629
0.000149769
0.000155076
0.000171791
0.000152597
0.000245956
0.0321664
0.000482659
0.000148954
0.000157568
0.0732848
0.000149174
0.000164247
0.000147414
0.00019668
0.000160395
0.000147653
0.000162245
0.000175736
0.000148985
0.0630925
0.000147573
0.000195365
0.000181664
0.00298558
0.000185359
0.000149028
0.000148941
0.0217136
0.000148761
0.00016161
0.000187566
0.000152998
0.000145412
0.0773404
0.000153118
0.000191185
0.000154125
0.000165475
0.000149866
0.000188232
0.000153619
0.000154798
0.0644246
0.000221628
0.000148499
0.000149802
0.000175769
0.0413222
0.000295271
0.000207238
0.000164043
0.000147682
0.000146841
0.0411679
0.000148828
0.0661011
0.00017561
0.07041
0.000148596
0.000146106
0.000146506
0.000168894
0.000181102
0.000408042
0.0404694
0.000165769
7.30455e-05
0.000145139
0.000335805
0.000151093
0.000185565
0.000152139
0.000167592
0.000163848
0.000147622
0.000145101
0.000184042
0.000145658
0.000164003
0.000165044
0.0284438
0.0534992
0.000173861
0.0398775
0.000147073
0.000146698
0.000148371
0.000176602
0.000164797
0.000168463
0.000179063
0.0269503
0.000161085
0.000174907
0.000147459
0.000151425
0.0359224
0.000148348
0.000183022
0.000144404
0.000147241
0.0575635
0.000183913
0.000147378
0.000176605
0.000196983
0.0415315
0.0700955
0.000154442
0.000188049
0.00017785
0.0370797
0.00014852
0.0607119
0.0318184
0.000151746
0.000159491
0.000145638
0.000192924
0.000147806
0.000147804
0.0416298
0.000149114
0.000145425
0.000193094
0.000184529
0.0387625
0.0386547
0.000416291
0.0297867
0.000146966
0.000147591
0.000147382
0.000149306
0.0896261
0.000148653
0.030756
0.000151058
0.0349695
0.000152684
0.000148697
0.00014568
0.000149027
0.000157539
0.000149025
0.000145279
0.000965325
0.00014681
0.000179811
0.000149638
0.0188235
0.00015272
0.000148408
0.000149006
0.000174013
0.000147225
0.000146224
0.000148494
0.000149376
0.000156796
0.000147273
0.000151892
0.000157417
0.0846135
0.0407299
0.0287985
0.0302248
0.000146415
0.000147878
0.000147685
0.000144118
0.000147614
0.000146226
0.00472237
0.000147201
0.000149647
0.000148334
0.000148193
0.000148205
0.0465899
0.000155974
0.000147696
0.0402339
0.00017399
0.000145882
0.0399518
0.0197307
0.000148008
0.00019928
0.00020721
0.000148447
0.000161698
0.000152092
0.000144892
0.000156183
0.000150661
0.000175728
0.000147929
0.000149614
0.000146327
0.00399169
0.000163436
0.000161921
0.000148067
0.000149745
0.0358478
0.000154008
0.00014812
0.000152917
0.000153732
0.00014965
0.000179053
0.0223616
0.000411197
0.039758
0.000177887
0.000160366
0.000149708
0.0523417
0.000186392
0.000150539
0.000176204
0.000149949
0.000147479
0.000149606
0.0747765
0.000162917
0.000147875
0.000148187
0.000204633
0.000146178
0.000193052
0.00014795
0.000264951
0.000199825
0.088102
0.000148417
0.00015106
0.000157608
0.000159869
0.000149275
0.000160663
0.000167173
0.0889553
0.000149803
0.000191919
0.0715375
0.000145534
0.040302
0.000161641
0.000184908
0.000179046
0.000147587
0.00015672
0.000171037
0.0001457
0.000155694
0.00014483
0.097535
0.000642188
0.000158597
0.000146678
0.00018599
0.000166013
0.000337579
0.000182369
0.000151804
0.000161735
0.000147651
0.000147784
0.00017081
0.000163271
0.0344741
0.00014678
0.000191174
0.000155032
0.0855607
0.000190406
0.0526958
0.000145116
0.000150601
0.000306106
0.000280691
0.00016125
0.0308977
0.000152584
0.000178385
0.000147269
0.000147229
0.0276955
0.0415866
0.000157387
0.000148527
0.00016682
0.000301073
0.000175631
0.000165608
0.000146453
0.000147983
0.000145913
0.000324132
0.0269182
0.000146887
0.000174269
0.0516989
0.000176333
0.000190645
0.0312221
0.0151999
0.0606465
0.000147061
0.00015228
0.0355063
0.000147184
0.000162752
0.00025318
0.0431525
0.000151331
0.000156905
0.0209557
0.000205451
0.000281997
0.042857
0.0391265
0.0378285
0.000148639
0.000145564
0.000147843
0.000151389
0.0117766
0.000163239
0.000187289
0.00019005
0.000164026
0.000148391
0.0319532
0.000147027
0.000164247
0.000147335
0.000160878
0.0142085
0.00267763
0.000148341
0.000145557
0.000174988
0.0998907
0.000188535
0.0403834
0.000161621
0.000148519
0.00016668
0.000144429
0.000168232
0.000157592
0.000147624
0.101316
0.000174658
0.000203569
0.000168191
0.000149194
0.000145972
0.00774594
0.0001534
0.000145546
0.000148876
0.000149677
0.000145654
0.00873178
0.0834774
0.0329202
0.000260276
0.0349524
0.0001555
0.000147626
0.0747323
0.000155476
0.00020554
0.0761294
0.000146942
0.0448312
0.0293111
0.000171637
0.000158457
0.000209256
0.000151177
0.000294298
0.000162571
0.0277255
0.00014686
0.000150685
0.00016169
0.000446591
0.000185045
0.000165696
0.0272876
0.0617233
0.00016557
0.000201269
0.000414161
0.000153909
0.000188461
0.00772713
0.000160826
0.000164854
0.0565435
0.000166808
0.00016042
0.00014859
0.000168204
0.000170441
0.000168313
0.000148492
0.0790149
0.000174411
0.0290757
0.0229657
0.0319127
0.000161158
0.000269754
0.0766218
0.00014681
0.0401048
0.0924826
0.0899949
0.000156653
0.000152412
0.0420816
0.0727593
0.000145731
0.0001786
0.000146169
0.000147263
0.000467165
0.0001536
0.0290842
0.0410788
0.0335719
0.0869902
0.000145278
0.000167212
0.000148232
0.000146788
0.000170364
0.000175858
0.000158519
0.00038382
0.0314768
0.000149803
0.000158282
0.000245828
0.000153608
0.000190397
0.00016195
0.0361196
0.0367424
0.000338559
0.0757924
0.016999
0.0294212
0.0374626
0.0345715
0.0001677
0.000153434
0.000172435
0.00017206
0.0505406
0.0882846
0.000148783
0.000155814
0.0359859
0.0269221
0.000156636
0.0298389
0.000147799
0.000217395
0.062891
0.0954878
0.000147338
0.0300159
0.000260422
0.000155955
0.000159729
0.0468451
0.041087
0.0245771
0.0340256
0.000148215
0.0328042
0.0330226
0.000160579
0.000184325
0.00016932
0.00014603
0.000157712
0.0244271
0.0420192
0.000154695
0.000149068
0.0393135
0.000167522
0.0338432
0.000173046
0.000271386
0.0384428
0.000147855
0.0777348
0.000149891
0.000165685
0.000148437
0.000148423
0.000145792
0.00016278
0.000183398
0.000144489
0.00823629
0.00019098
0.0739414
0.0430739
0.0286733
0.000147237
0.0594264
0.000272278
0.0307086
0.000159764
0.000147627
0.00391607
0.000209069
0.041804
0.000163189
0.000151437
0.000145676
0.0122391
0.0162639
0.000159153
0.00597602
0.000157158
0.000148865
0.0369003
0.00016293
0.024718
0.000148186
0.000165219
0.0305791
0.0263948
0.035968
0.000999179
0.0365801
0.0326188
0.0637127
0.000148227
0.0193274
0.000163476
0.000147086
0.000145327
0.000147775
0.0179853
0.000162279
0.0372122
0.0355962
0.000172921
0.000173728
0.000200516
0.0298463
0.000181027
0.0487737
0.0295542
0.000250733
0.000168468
0.000146278
0.0478554
0.000163879
0.00019089
0.036214
0.0424238
0.000277081
0.000148518
0.000153931
0.000162333
0.00014828
0.00014841
0.000158141
0.0380467
0.000163949
0.000158306
0.0346241
0.000191649
0.000273092
0.00198891
0.0396904
0.000203975
0.0416816
0.0291207
0.0313771
0.000164845
0.000163313
0.000148617
0.000252875
0.000178777
0.000202521
0.000164449
0.000163997
0.000144099
0.000200608
0.0775286
0.000160574
0.000145041
0.000152783
0.033864
0.000147044
0.000148078
0.000170751
0.0338564
0.000163474
0.000163476
0.000176432
0.000157008
0.000180945
0.000147407
0.000147804
0.000165053
0.000166019
0.00014903
0.000160219
0.000179887
0.0787128
0.000148682
0.0728684
0.000148274
0.0391311
0.000151096
0.000151322
0.000144895
0.000190873
0.000170108
0.0130328
0.0452347
0.000164993
0.000148996
0.00014889
0.0528656
0.0197186
0.000148236
0.000188397
0.0352894
0.000169581
0.0001662
0.000144133
0.000150241
0.000147567
0.0377721
0.00016719
0.000148225
0.0502127
0.000149391
0.000163742
0.000147956
0.000146044
0.000169044
0.000171352
0.0481351
0.000149488
0.000154345
0.00015131
0.000169705
0.000143894
0.000147329
0.0790398
0.000207801
0.000176123
0.000149442
0.0398142
0.000149378
0.000149411
0.000147547
0.000206555
0.0506677
0.000153095
0.0725541
0.00336871
0.000170808
0.0258459
0.049824
0.0339423
0.0736187
0.000178933
0.000185429
0.000198845
0.000168199
0.0001475
0.000156708
0.00016356
0.0502168
0.000148432
0.0436451
0.000147779
0.000191872
0.000176141
0.000150772
0.000158727
0.0344998
0.0194405
0.0188602
0.0310043
0.000146601
0.000189943
0.0355931
0.000158075
0.0822989
0.000160609
0.000169225
0.0388688
0.000171093
0.00014782
0.000182178
0.000185931
0.000147671
0.0340747
0.000192467
0.000145905
0.000149556
0.0001487
0.00014794
0.0404923
0.000149177
0.000168259
0.000148046
0.000150624
0.00015764
0.000147619
0.0387703
0.000178997
0.000148811
0.000145608
0.000184915
0.000152766
0.000163311
0.0117353
0.0298397
0.000166671
0.000182901
0.000160614
0.000145228
0.000192598
0.0520791
0.000161925
0.0352292
0.0872117
0.000166087
0.000163074
0.000163032
0.000173868
0.000160488
0.0484394
0.000148661
0.000148939
0.000148232
0.0414949
0.0717001
0.0001599
0.000202215
0.000148077
0.000160607
0.00020306
0.000207255
0.000147701
0.000167976
0.0385127
0.000167488
0.000147856
0.000147807
0.0402995
0.021787
0.000147605
0.000159858
0.000165668
0.00020149
0.0157355
0.000146976
0.0239162
0.000163089
0.000148016
0.0733514
0.000201001
0.00014754
0.000148998
0.000191202
0.000146842
0.000148184
0.000123726
0.000160852
0.000161701
0.0225534
0.000155727
0.000176669
0.0385332
0.000147807
0.0860456
0.0390495
0.000155613
0.000184523
0.000205457
0.000148126
0.000197943
0.000144285
0.0650929
0.000260403
0.000147914
0.0890929
0.0638771
0.000147879
0.000147896
0.000197928
0.00017369
0.0312191
0.0308177
0.000148525
0.000166935
0.0266718
0.000151588
0.000175902
0.000186633
0.000159152
0.075249
0.000167283
0.00015386
0.000199907
0.0502333
0.000161398
0.106165
0.000147263
0.000144837
0.000149761
0.000160815
0.0706225
0.000148302
0.000169052
0.0106849
0.0301458
0.000149397
0.000158772
0.000283757
0.0403886
0.000149449
0.0836241
0.000164486
0.000175876
0.000165964
0.000151207
0.000156695
0.000148016
0.000147706
0.0815764
0.000147382
0.000162602
0.000147818
0.0428675
0.000153849
0.000155425
0.000145213
0.000153664
0.000147791
0.000167327
0.0173706
0.0608646
0.000163417
0.000160834
0.00014762
0.000157505
0.000172495
0.0638471
0.0336192
0.000146703
0.000131361
0.000148067
0.000362439
0.0353255
0.0238962
0.0001467
0.000171952
0.000182297
0.047955
0.000177732
0.000147204
0.0676553
0.000182915
0.000159516
0.093556
0.00014972
0.000148254
0.000160662
0.0596708
0.00014776
0.0842584
0.00015844
0.000985794
0.000167461
0.000153971
0.064749
0.000157019
0.000148566
0.000258336
0.000148076
0.000330781
0.0823857
0.000206967
0.00015529
0.000173313
0.000147842
0.000178796
0.000167168
0.0880423
0.000148315
0.000146386
0.000155835
0.00015875
0.000172655
0.0502638
0.106483
0.000158966
0.000177856
0.000146875
0.108106
0.0867308
0.000182244
0.0001477
0.000149708
0.000153424
0.0735443
0.000148483
0.000158254
0.0688525
0.000187483
0.00014815
0.000180143
0.000184801
0.000147851
0.000154429
0.000181866
0.000276656
0.000170052
0.000165618
0.0412211
0.039707
0.0432707
0.000155529
0.000148678
0.000153526
0.000152833
0.000185314
0.00017425
0.000160468
0.000184653
0.0452123
0.000152169
0.000147883
0.0277913
0.000184119
0.0315781
0.000178239
0.000154688
0.000151706
0.00015183
0.00014681
0.00014752
0.00017244
0.000145362
0.000150516
0.000149907
0.00015081
0.000151836
0.000147648
0.000160045
0.000171944
0.00014918
0.000147623
0.000148692
0.00015017
0.000149316
0.000181412
0.000148262
0.000151285
0.000251239
0.000146916
0.000151329
0.000149083
0.000159583
0.0273732
0.0489442
0.0282937
0.0562939
0.0748222
0.00018295
0.000147129
0.000171482
0.000148271
0.00650237
0.000153216
0.000157019
0.000148869
0.000174225
0.000147658
0.00016275
0.000146497
0.0705537
0.000189323
0.000148413
0.0413643
0.0700271
0.000149625
0.000203199
0.00014763
0.000145501
0.00958303
0.000149321
0.000173579
0.000195503
0.000148593
0.000145244
0.000175909
0.035157
0.000153179
0.000153185
0.0316402
0.000147567
0.0280728
0.000172469
0.0406936
0.000145785
0.032764
0.000147726
0.000148789
0.00017488
0.000176053
0.0318829
0.0339803
0.0166544
0.0741132
0.000950388
0.000182351
0.000148171
0.000170005
0.000149191
0.000146661
0.000168031
0.000147346
0.000147816
0.00014549
0.000145216
0.000182029
0.100862
0.0324448
0.000203089
0.0407411
0.000153331
0.000156864
0.000151928
0.000150342
0.000182584
0.000148338
0.000147796
0.000146723
0.000153537
0.000150884
0.000175278
0.000198741
0.000168751
0.000148629
0.000163134
0.000163405
0.0330349
0.0273601
0.000154728
0.000169549
0.000148479
0.0726359
0.0426509
0.000147551
0.000147402
0.00015378
0.000149364
0.0552221
0.000246061
0.0338543
0.000148654
0.106496
0.000148563
0.02855
0.000172214
0.000146566
0.000157618
0.0925968
0.000154862
0.000157759
0.000163622
0.000178426
0.0655351
0.000148019
0.00014728
0.000156059
0.000927325
0.000147371
0.0327571
0.107182
0.000148015
0.000144044
0.0122884
0.00018712
0.000147719
0.000535444
0.00757043
0.0660387
0.0987876
0.000160748
0.000278481
0.000148364
0.0284529
0.0753141
0.000208358
0.00018708
0.000152788
0.0275105
0.000153982
0.000147005
0.000144097
0.00517878
0.000145545
0.0824838
0.000151759
0.000148725
0.000153381
0.0350363
0.000152937
0.00015065
0.000148358
0.084083
0.0219531
0.074551
0.040484
0.00017534
0.000147782
0.000152213
0.0107957
0.000169555
0.000147849
0.000177776
0.00239845
0.0990644
0.000148443
0.0242047
0.0303389
0.000172652
0.000148285
0.000152998
0.000147666
0.000147185
0.000147629
0.000148125
0.000150144
0.00016841
0.000148543
0.000202554
0.00014986
0.000150236
0.0220362
0.000189647
0.000154105
0.000150542
0.0302859
0.000145551
0.000156882
0.00015536
0.000146597
0.084653
0.000165238
0.000150421
0.000161158
0.000148117
0.000158884
0.000148485
0.000203408
0.000146722
0.000147652
0.0805123
0.000154264
0.000188465
0.00016471
0.000151739
0.000191307
0.000143894
0.00014849
0.000150086
0.0446512
0.000154426
0.000147666
0.000302209
0.00014815
0.000145511
0.00014706
0.000176277
0.000157878
0.000201194
0.000158147
0.000157071
0.000162285
0.000152859
0.000156272
0.000161983
0.0309811
0.000149007
0.000157348
0.000147251
0.00018249
0.000203528
0.00014719
0.000163834
0.0745055
0.000156613
0.000145267
0.0502322
0.000155007
0.000167633
0.0263433
0.00016172
0.000147584
0.000159057
0.000147656
0.000155972
0.000147222
0.000151528
0.00015513
0.000147634
0.000148318
0.000157458
0.000148714
0.000181099
0.000148113
0.000151705
0.000147833
0.000164715
0.0321814
0.000148589
0.000148665
0.000168221
0.000153221
0.000148022
0.0135645
0.0481958
0.0241597
0.000148472
0.000153669
0.000169885
0.000149595
0.000148742
0.000165928
0.000176604
0.000144714
0.000163283
0.000148113
0.000147168
0.000147371
0.000144754
0.000151987
0.000167453
0.000165629
0.000159269
0.0351255
0.000153861
0.000156632
0.000146859
0.0601177
0.080096
0.0710043
0.000148356
0.000170745
0.000158077
0.0001482
0.000148705
0.000160847
0.0360774
0.0281726
0.000148865
0.000160447
0.0613188
0.000150242
0.000199465