/*--------------------------------*- C++ -*----------------------------------*\
| =========                 |                                                 |
| \\      /  F ield         | OpenFOAM: The Open Source CFD Toolbox           |
|  \\    /   O peration     | Version:  v2012                                 |
|   \\  /    A nd           | Website:  www.openfoam.com                      |
|    \\/     M anipulation  |                                                 |
\*---------------------------------------------------------------------------*/
FoamFile
{
    version     2.0;
    format      ascii;
    class       surfaceScalarField;
    location    "500";
    object      meshPhiCN_0;
}
// * * * * * * * * * * * * * * * * * * * * * * * * * * * * * * * * * * * * * //

dimensions      [0 3 -1 0 0 0 0];
oriented        oriented;


internalField   nonuniform List<scalar> 
14470
(
-0.00352292
0.00109409
0.00242846
-0.000357693
-0.000235619
0.00595779
-0.00598455
-1.82604e-05
-0.000175378
-0.000234179
0.000409557
-0.000634729
0.000542451
-2.84736e-05
-0.00112163
0.00112308
-3.07215e-06
0.000788622
-0.00156082
0.000770196
-0.000155299
-0.000421521
0.000576806
-0.00394137
0.000668259
0.00327342
0.00018611
0.00173942
-0.00199958
0.00200416
-0.00188222
-4.10169e-05
-0.00494078
0.00508744
0.00113845
-0.000523896
-0.000613952
0.00587678
-0.00431903
-0.00167828
-0.00311219
0.00373208
-0.000676006
-0.0017677
0.00175228
3.44938e-06
0.00588795
-0.00185847
-0.0039146
-0.000632316
0.000532013
0.000100286
0.00203619
-0.00449922
0.00248111
0.00257173
0.00296451
-0.00551212
0.000305786
-0.000305786
-9.99271e-05
0.000495688
-0.000395767
-0.000504752
0.000349444
0.000736253
0.000402907
0.000554334
-0.00223362
0.00167861
0.00677535
-0.00216968
-0.00459493
-0.000105459
0.000291611
-8.50971e-05
-0.00153648
0.0035837
-0.00136231
0.000339878
0.00102022
-0.000320653
-0.000132595
0.000453247
0.00108552
-0.00097991
-0.000106117
-0.00537548
0.00516534
6.80173e-05
0.00101793
0.00415427
-0.00518991
0.000301318
0.000209783
-0.000486933
-0.00127528
-0.000997358
0.00225147
0.00297274
0.000398522
-0.00337411
0.000284865
0.00153018
-0.00182059
0.000327308
0.000426871
-0.000754042
0.00244207
-0.00171662
-0.000737498
-1.36081e-05
-0.00135065
-0.000549539
-0.000300363
0.000849533
0.000195966
-0.000516342
0.000320333
8.6826e-07
-0.000142048
-0.000611005
-0.00387721
0.00451482
-0.000647875
-0.00364368
0.00433434
0.000282048
0.000234133
-0.000516182
-8.03753e-05
0.00043065
-0.000422005
0.00129577
-0.00485551
0.00364859
0.000328234
0.00565465
0.00167147
-0.00297685
0.00084086
-0.000453309
-0.00253588
0.0017532
0.000770042
-0.00141901
0.00126313
0.00200856
-0.00137378
-0.00063707
-0.000624511
0.000449127
0.00496092
0.000114471
-0.00493497
0.000116712
0.0013757
-0.00149609
-0.00300651
0.00437448
0.00043065
-0.00205378
0.000376693
0.00167403
0.000539241
-0.00103687
0.000497486
-0.00573676
0.00575448
-4.36078e-05
0.00315294
-0.000557568
-0.00261262
0.00022947
-0.00105397
0.00115005
-0.000111621
-0.00382314
-0.000233959
-0.000237276
3.75713e-05
-0.00257737
0.00250954
0.000267433
0.00310998
-0.00338934
0.000826515
-0.0002474
-0.000579292
-0.00505125
0.00219972
0.00284365
0.000102598
0.000686287
-0.000788674
0.000345412
-0.000618925
0.000273506
-0.00199417
0.00190994
7.21748e-05
-0.000664986
0.00102167
-0.000356801
-0.000846427
0.000984437
-0.000201169
0.00119448
-0.0014499
0.000254559
-0.000929324
0.000374969
0.000554129
0.00542633
-0.00142028
-0.00403687
0.000930894
-0.00101353
3.0523e-05
7.97034e-05
0.00111445
-0.000490455
-0.00014189
-0.00157742
-0.000199899
0.0024662
-0.000546784
-0.00193503
0.00322776
0.000871652
8.63402e-05
-0.000959108
0.000912988
-0.00013359
0.00211304
-0.00178295
-0.000358455
-0.000410856
0.000738328
-0.000311136
0.000850173
0.000433587
0.000138503
-0.000572103
3.47841e-05
-0.000620612
0.000585554
0.000783878
-0.00074945
-0.00102534
0.00172389
-0.00070669
0.000603938
-0.00040803
0.00545391
-0.00104484
-0.00437587
0.000284224
-0.00094937
0.00154102
-3.97068e-05
-0.00150931
-0.0027027
0.000470862
0.00221069
-5.50309e-05
-0.000673224
-0.000403519
-0.000371612
0.000775248
-0.000521889
-0.00203076
-0.0015813
0.00176272
-0.000191349
0.00432342
-0.00490942
-0.00121596
0.000944157
0.00027099
-0.000743833
0.000351389
0.000392293
-0.00186077
-0.000145547
-0.00499852
0.00462139
0.000396865
0.00446321
0.00094779
0.000171474
0.00144597
-0.00150453
2.57162e-05
-0.000519569
0.000419631
-0.000154367
-0.000405593
0.000559963
-0.000368577
-9.7196e-05
0.000465772
-0.00127246
-0.00377766
0.00119407
-0.00401545
0.00263621
0.00155457
-0.0044468
0.00284839
0.00363161
-6.4351e-05
-0.00346178
0.000167979
0.000413399
-0.000581376
0.00362875
-0.00428253
0.000676862
-0.000449001
-0.00057893
0.00102729
0.00202467
6.35326e-05
-0.00100087
0.0009212
7.92334e-05
0.000217761
0.00167072
-0.00189982
-0.0034513
0.00384693
0.00422386
-0.000551713
-0.00175303
0.00060293
0.00114242
0.000250869
-0.000571524
0.00116454
-0.00165981
0.000491625
0.00179861
-0.000638565
0.00316543
6.78711e-06
-0.00316351
0.00653773
-0.00216329
-0.00440027
-0.000278194
-0.00324112
0.00279827
0.000214641
-0.0030458
0.00293446
-0.00257866
-0.000375006
-0.000479488
-0.000494537
0.000972859
-2.58523e-05
0.000964323
-0.000939391
0.00346586
-0.00194631
-0.000917333
4.93267e-05
-0.00165831
0.000622009
0.00103047
-0.000740818
0.000539545
0.000201193
0.00191588
0.00498985
-0.00149659
-0.00343308
0.000258975
0.00180284
-0.00208513
0.000220061
0.00031484
-0.000534902
-0.000285101
-0.000444469
0.000729261
-0.00441752
0.000168983
-0.000237889
0.000522068
0.003248
0.00329266
-0.000161715
0.00156966
-0.00662921
0.00498219
0.000551719
-0.000722779
0.000171033
0.000101725
-0.0028237
0.00314228
0.00363953
0.0043661
-0.00411153
-0.000264205
0.000605688
-0.000875243
0.000269251
7.43931e-05
0.00166888
-0.00558808
-0.000127313
0.00022687
0.000858407
0.00342598
0.000779602
-0.00421226
-0.00199423
0.000186729
0.00280585
0.000350564
0.00425236
-0.00165434
0.000108537
-0.000545296
0.000436709
-0.00111783
0.00477922
-0.00363326
-0.000404457
-0.000525166
-0.00167984
0.00147733
0.000192575
-0.000487986
0.00433733
-0.00383496
0.00468385
-0.00520285
0.000661466
0.000142273
-0.00156133
0.00146811
0.00271581
0.00229855
0.000390462
-0.000608128
0.000217666
-0.000670686
0.000419831
0.00025085
-0.000380848
0.00107563
-0.000695812
0.0045805
-0.00452599
-0.00106969
-5.44278e-05
0.00110153
-0.000485558
-0.000616722
-0.000777821
0.000183953
0.000593821
0.00627019
-0.00470583
-0.00157538
0.000666712
0.00218357
-0.00287694
-0.000843309
-0.000373663
0.000502108
0.000397475
0.0016058
-0.00386556
0.00326447
1.71127e-05
0.00297386
-0.00292658
-0.000237979
-0.00070587
-0.000295672
-0.000227047
0.000572454
-0.000340538
-0.00033017
-0.00168002
9.03706e-05
0.00388906
-0.00082878
-0.00305749
0.000107061
-0.000396615
0.000289559
0.000657905
-0.000109535
-0.000548336
-0.00215355
0.00208828
6.37535e-05
0.00429918
0.000716668
-0.00498564
0.000217342
-0.00263926
0.00241459
0.000491904
5.8274e-05
-0.000550181
-0.00397703
0.0017472
0.00239505
0.00249484
-0.00426693
0.00265102
-0.00279461
0.000177924
0.00165462
0.00242646
-0.00407732
0.00156838
0.00221109
-0.0037727
-0.00244313
0.000517832
0.00189698
-0.00351004
0.00270272
0.000789185
-0.000212741
0.000636946
-0.000424204
0.00464162
-0.000997045
-0.00361615
0.00197714
-0.00221533
0.000225191
-0.00407455
0.00359612
0.000798909
0.00272251
-0.00352532
-0.000881655
0.000652504
0.000229059
-0.0015926
-0.000559969
-0.000180914
0.00284276
-0.0029035
0.000152428
0.000641025
0.000185337
0.000524129
0.00192631
-0.0026216
0.00295611
-0.000358829
0.00290704
0.00289678
0.000649317
-0.00113003
-0.00264007
0.00368084
-0.00132171
0.000260102
0.0010624
0.000216816
0.00131605
-0.00310859
0.00468567
-0.000498476
-3.61064e-05
0.00053463
0.000532217
-0.00129223
0.000756783
0.000589503
-0.0016205
-0.00562865
0.00135381
0.00431349
0.000324747
-0.00193819
0.0016006
0.0013633
3.35865e-06
-0.00136778
-0.0011082
0.00114159
-3.26271e-05
-1.01116e-05
-0.00109763
-0.000396954
-0.000246958
0.000643934
-0.00104004
-0.000525809
0.0015603
0.000245833
-0.0029015
0.00117864
0.00195767
0.000125623
0.000532318
0.000313101
0.00443468
-0.00466387
-0.00035418
-0.000582668
0.000214089
-0.00114548
-0.00261611
-0.00198795
0.0019284
2.7334e-05
0.000465924
-0.0010159
0.00559986
-0.00493195
-0.00065509
0.000391895
0.00100267
0.00028355
0.00113131
-0.00141908
0.000102245
-0.00139471
0.0012875
0.00378334
-0.00163853
0.00228337
0.00207035
-0.000102594
-0.00160026
-3.11976e-05
0.00162568
0.00276465
-0.00240566
-0.000370868
0.00482261
0.001775
-0.00102124
-0.000758208
0.000485703
4.68069e-05
-0.000532511
0.00162297
-0.00470562
-0.000578708
-0.000708788
0.00128522
-0.000362262
-0.00116112
-0.00328968
0.000281114
0.00320605
-0.00218812
0.00118497
0.00107823
-0.000456523
0.00457346
-8.80494e-05
-0.00447127
-0.000141988
0.000747408
0.000607481
-0.000918813
0.000311014
-0.00425399
0.00333415
0.000833905
0.000992307
-0.00368166
0.000898907
-0.000388892
-0.000510272
-0.000982123
-0.000871631
0.00155237
-0.00168339
6.99329e-06
0.000564506
0.000706489
-0.000882507
1.62428e-05
0.000591118
-0.000597371
0.00070583
0.00210983
0.000145302
-0.00224777
0.000860205
-0.000468121
-0.000392151
0.00127391
0.000176198
-0.00145423
7.40714e-05
0.000495445
-0.000417921
-7.75206e-05
0.00104541
0.00328902
-0.000154429
0.000408105
-0.000253683
-0.00124024
0.00014781
0.0013259
0.00144078
-7.76464e-05
-0.000146344
0.00039397
-0.000247627
0.000468441
-0.00103885
0.000570686
0.000494714
-0.00157753
0.000532689
-0.00319265
0.00320814
-0.001692
0.000105034
-0.000347264
-0.00317195
0.000453273
0.00463302
-0.00510433
-0.00283217
0.00445767
-0.00161286
-0.000458834
-0.000422876
-0.00107612
0.00163024
0.00289845
-0.00192512
3.00152e-07
1.44365e-05
1.77828e-05
0.000801405
0.00218145
0.000109642
-0.000773852
0.000784699
0.00460213
0.000567519
-0.000224262
-0.000343251
0.00578406
-0.00152284
-0.00415192
-0.000278759
-0.00414349
0.0043057
-0.000191614
-0.000191829
0.000437345
0.00521085
-0.000146858
-0.000498486
0.000519343
-2.08565e-05
-0.000716225
0.000430846
0.00115062
-0.000650662
-0.000499375
-0.000399137
-0.0019237
0.00231613
0.00187666
-0.00163953
-0.00023902
0.00188789
-0.0016939
-0.000205557
0.000612854
-6.11598e-05
0.00436535
-2.06624e-05
-0.00048412
-0.000434866
0.00286237
-0.000189916
-0.00268795
-0.00515054
0.00127724
0.000113543
1.68375e-05
-0.00523862
-0.000292567
0.000719052
0.00105107
-0.000235621
-0.000398617
0.00336974
-0.0038638
0.000485919
0.00117949
0.000205019
-0.00138077
-0.00471887
-0.000143358
-0.0030311
0.00316996
-0.000143509
-0.00111836
0.00126215
0.000122478
-0.0013683
0.0012437
-0.00470153
0.00570457
0.00383279
2.96765e-05
-0.00383755
0.00218487
-0.00259238
0.000564682
0.000446763
-0.00101191
0.000425313
-7.37157e-06
-0.000417941
0.00446616
0.0014668
-0.000296719
0.00488526
-0.000578797
-0.00307481
0.00368912
0.00047867
-8.82084e-05
0.000354172
-0.000508611
0.000556671
-0.000694818
0.000138128
0.00432802
0.000181368
-0.00442127
-0.0011003
0.00122087
0.0014337
-0.000250144
-0.000758114
0.00043443
0.000323633
-0.00177678
0.000747463
0.00102512
0.000378607
0.00421327
-0.00449479
-0.000204593
-0.00439189
0.00471051
0.00349177
-0.00403013
-0.0015959
-0.000103157
0.000532298
-0.00357552
0.00306245
-0.000509937
6.75536e-05
0.000442344
-0.00261882
0.00344912
-0.000959893
-0.0056536
0.00692798
-0.00123423
-0.00130224
0.000350142
0.000948591
0.000270767
0.000296761
0.000304718
0.000336202
-0.000462171
0.000688534
-0.000769351
0.000365896
0.0017996
0.000569232
-0.00237382
-0.000487868
0.000165785
0.000322081
0.000680473
-0.000397999
-0.000282502
0.000232805
-0.000629749
-0.000142058
-0.00225519
0.00237075
0.00121944
0.00121469
-0.000924327
0.000897588
-0.000172288
0.000605861
-0.000381072
-0.000295817
-0.00107256
0.00136778
-0.000266838
0.00101184
-0.000595444
0.000153927
0.00196033
0.000868848
0.00399456
-0.00477196
0.00535748
-0.00490803
-0.000541752
0.00354544
-0.00299688
0.00681468
-0.00570628
-0.000952729
1.38825e-05
-1.38825e-05
0.000156066
-0.000666065
0.00192181
2.20677e-05
-0.00134922
0.00132152
0.00229516
-0.00206812
-0.00023795
-0.000324157
-0.000888477
0.00121145
-0.00353008
0.00399194
0.00166573
-0.00222662
-0.000497894
-1.53133e-05
0.000513207
0.000753942
-0.000278227
-0.0004757
0.000871079
0.000135848
-0.00100574
-0.000215416
-0.00156819
-0.00595962
0.000422287
-0.00220057
0.00203431
-0.000692333
-0.00531788
-0.000575143
-0.000344141
0.000919084
-0.00190987
0.00299708
-0.000790116
-0.000400185
0.000704777
0.000752565
-0.00115325
0.000400362
0.00105965
-0.000272594
9.24549e-05
0.000464202
0.00117625
-0.00131956
0.00348101
-0.000350047
-0.00340118
-0.00553391
0.00516794
0.000367292
0.0010197
-5.61197e-05
-0.000969036
0.000393629
0.00394698
0.000749038
0.000391098
0.00028936
0.000320118
0.00283902
0.00320062
-0.00227198
-0.00074082
-0.00051462
0.000368269
-0.000718098
-0.00200336
0.00138706
0.00472315
0.00143196
3.74008e-05
-0.00362674
0.000942172
-0.00406014
0.00296709
-0.000708384
0.00112189
-0.00041587
0.000768464
-0.000665667
-0.000536372
0.00226479
-0.00173802
-0.00174546
-0.000410252
-0.00601423
0.00292761
0.00318135
-0.00453611
0.000121219
0.00447383
0.000374065
0.000546749
-0.00152641
0.00147879
-0.00524843
0.00542435
-9.67635e-06
0.00271472
-0.00278434
-2.36791e-05
0.0010737
0.00093193
-0.00128103
-2.07664e-05
0.00130486
0.00200055
-0.0025465
-0.000147912
0.000462751
0.00288256
-0.00013955
0.00531447
-0.001203
-0.000469984
0.000846109
-0.000376187
-0.00288026
-0.00305658
-5.79775e-05
0.000543683
-0.000300702
-0.000477184
-0.0030731
0.00315129
0.00548572
-0.000261984
-0.00535866
0.00130566
-0.00412842
-0.00428874
0.00168457
-0.00468994
-0.000907211
0.000535659
-0.000179487
0.000201818
0.000696855
-0.00188909
-0.00416317
0.00419229
-5.54418e-05
-0.00153097
0.00173846
-0.00152603
0.00180589
-0.000208155
0.000621563
-0.000240973
-0.00181773
0.000351768
0.000130697
0.0021953
2.16879e-05
-0.000738144
-0.000481561
-0.0033926
0.00389111
0.0045111
-0.0010842
0.00385678
-0.00236158
0.000765338
-0.00602561
0.00144217
0.00464475
0.00353974
0.000170724
-0.00373409
0.00370464
1.20193e-06
0.00320169
-0.00337289
2.14753e-05
0.000332516
0.00239038
-0.00272496
-0.0030823
0.00272746
-0.000943782
0.00122378
0.000816743
-0.000633209
0.000327429
0.000633619
-0.000141714
-9.57237e-05
-0.00185078
0.00194832
0.000873259
-0.000121041
0.000534639
-3.91914e-05
0.00473611
-0.000129787
-0.00118025
-0.000469573
-0.00109407
0.00479102
-0.00404002
-0.00248444
0.00300263
-0.000428792
0.00412962
-0.00308375
-0.000974454
-0.000485338
0.00125636
-0.000772279
-0.00111406
0.00128631
0.000622625
-0.00373619
0.000216318
0.00334301
-0.000315734
-0.00230347
0.000742003
-0.0010819
0.000340343
0.000561042
0.000539942
-0.000369068
-0.00107493
0.00164062
0.00199163
0.00238362
-0.000235956
0.00154394
-0.00130901
0.000478745
-0.000244613
0.000857708
-0.000389099
-0.000550631
-0.00113831
0.00169235
-0.000119515
-0.00299626
0.00307626
0.000663311
-0.00124409
-0.00091033
0.000505576
-0.000559393
-0.000687935
0.00124273
-0.0027859
0.0038434
-0.00104097
0.00660395
-0.00230252
-0.00433093
0.000423641
-0.000636382
-0.00542854
0.00525059
0.000283649
0.000611397
-0.00109761
-0.0010892
0.000330426
0.000757947
-0.00440464
-0.000727914
0.000306693
-0.000904208
0.00202286
-0.00225213
0.000212505
0.000409096
0.000211007
-0.000620065
-0.00455507
8.15079e-05
-0.000301836
-0.000294474
0.000596298
-0.000484121
0.000924941
-0.000441684
-0.00345266
0.000285714
0.000506311
-0.000895475
0.00490581
0.000625729
-0.000354808
-0.000403375
-0.000543615
0.0032649
-0.00275746
0.00491835
-0.00458917
-0.000289475
9.12709e-06
-0.0017302
0.00541442
-0.00499655
0.000537248
0.00377336
-0.00477925
-0.00175577
0.00472079
-0.00289102
0.000417421
0.00212997
-0.00255178
0.00480097
-0.00452691
0.00439028
-0.00167626
0.00101853
0.00065314
-0.00374902
0.00148465
0.00224129
0.00229149
-0.00171689
-0.0022824
0.00393908
0.00288118
-0.00462454
-0.000103406
-0.000394486
0.000759077
-0.000997126
0.000238431
0.00173775
-0.00228429
-0.00109087
5.18403e-05
-0.00314089
0.000110998
-0.00335308
0.00324431
0.000306577
-0.0023477
0.00408418
-0.000270404
-0.000424454
-0.00468715
0.000543455
0.00048156
-0.000730112
-0.000285476
-0.00018576
0.000471235
0.000426161
-0.000726794
-0.00164102
3.74742e-05
0.000503989
-3.86262e-05
-0.000370191
0.00124065
-0.00444327
0.00320339
0.00220054
-0.00219447
2.26563e-05
0.000619992
0.000663475
0.00338027
-5.88067e-06
0.0014448
-0.00185894
0.000404177
0.000137881
0.00291615
-0.00304655
3.95857e-06
-0.000502416
-3.38936e-05
-0.00106471
-0.000471702
0.000237743
-0.0001382
0.000758103
-0.000233539
0.000969361
-0.000405017
-0.00113897
-0.00337873
0.00458719
0.000790487
0.00135347
-0.00216623
0.00047981
-0.000433003
0.00308499
-0.00369009
0.000425065
-0.000912422
0.000487002
0.00484995
-0.00483142
-8.51154e-05
-0.000204914
0.000255573
1.067e-05
-0.00456823
-0.000893937
-0.000747395
0.00118269
-0.000435525
2.78101e-05
0.000609139
0.00267403
-0.000207513
-0.0039012
0.00119291
-0.00043267
0.00176422
0.000299976
-0.00132362
0.000382057
-0.000683916
-0.000342199
0.00186879
0.00105468
-0.00116278
0.000543767
-0.00116237
-0.00028846
0.000477547
0.000116174
-0.00056787
-0.00206124
0.00330637
-3.86101e-05
-0.00392774
0.00400709
0.000612708
-0.00156211
0.00406764
0.000175598
-0.00394322
-0.000881921
-0.000412103
0.00617234
-0.00319698
0.000483731
0.00291492
-0.00339821
-0.00063403
-0.00152027
0.00213301
-0.00102315
0.000989206
3.32675e-05
0.000435767
0.000759239
-0.00119608
-0.00459183
0.000325943
0.000241469
-0.000608101
0.0010806
-0.000520096
0.00027397
-0.00446494
0.00416414
-0.00422905
0.00017983
-0.000455642
0.00291252
0.00341976
0.000781417
0.00068305
0.000397186
-0.0027136
0.00292478
-0.000458718
0.000883433
-0.0011726
9.45349e-05
0.00107661
-0.00129272
-0.000325408
0.00161681
0.00187922
-0.00165256
-0.000231126
-0.000179225
-0.000335409
0.00281655
-4.82192e-05
-0.000391325
0.00101004
0.000554612
-0.000344004
-0.000210632
0.000604347
0.000364608
0.000537586
5.08652e-06
-0.00054283
-0.000350056
-0.000739996
0.0010576
-0.0039921
0.00192825
0.000501019
-7.57049e-05
-0.002533
0.0018721
0.000589139
-0.00015702
0.000761079
0.000553648
-9.12811e-05
0.000401283
-0.00152962
-0.000115712
-0.00112048
0.00104303
7.46702e-05
0.000890473
0.000577164
-0.00146522
-0.000198464
0.000469249
0.000390055
-0.000679335
0.000289254
0.00110345
-0.00264443
-0.0011616
3.67092e-05
-0.000198388
-0.00180365
-0.000908747
0.000262528
0.000646087
-0.00220647
-0.00432649
0.00326328
0.000555739
0.00302669
0.00449071
-0.000587779
-0.00394069
5.81685e-05
-0.00159142
0.000426567
-0.000673509
-0.000890599
0.000422393
-0.000554924
0.000190222
0.000364696
0.00284233
-0.00265928
-0.00166172
0.00187373
-0.000225771
0.000634924
-0.000480079
0.000849125
-0.000368952
-0.00328112
0.00322113
-8.35701e-06
0.0015013
-1.04246e-05
-0.00149851
-0.00173531
0.00252894
-0.00049182
3.95298e-06
0.000827132
-0.00154027
-0.00303674
0.000828275
0.000322767
0.00042258
-0.000892671
-0.000140565
0.00053059
-0.000795941
-6.48444e-05
-0.00207467
-0.000836727
0.000416826
0.00041971
-0.000412482
-0.00205776
-0.000981943
0.0002754
0.00184915
-0.00108049
-0.00120387
0.000878376
0.000546064
0.00162349
-0.00217365
0.000211982
0.0045758
-0.00330659
-0.00127211
0.000118375
-0.00425982
0.00175686
-0.000375748
-0.00138265
6.44507e-05
0.000378617
0.000982408
0.000771821
-0.00128807
0.000848058
0.000438375
-0.000234228
0.00102143
-0.000788319
5.32436e-05
2.068e-05
-4.58834e-05
0.000186245
0.00153878
-0.00158826
0.00448476
-0.0007578
-0.00374635
-0.00442276
0.000219236
0.00418794
0.00060783
0.000240301
0.00359635
0.00203454
-0.00129522
0.000120281
-0.00124974
0.00076327
6.10288e-05
-0.000275854
6.64434e-05
-0.0011313
0.00078694
3.81049e-05
0.00449692
-0.0042661
0.000370027
0.000184568
-5.76302e-05
0.00191232
-0.0018826
-0.00125156
0.00126858
-1.70892e-05
0.000156183
-0.00104362
0.000558754
-0.00669373
0.00197585
0.00477063
0.00496493
-0.00345391
0.00022153
-0.00138542
0.00194124
-0.00423653
-0.000189359
0.00178431
-0.00156257
-0.000231562
-0.000167164
-0.000572382
0.000739844
-0.00176535
0.00398107
0.00142137
-0.000967203
0.000669699
0.000297727
0.00214309
0.00060362
0.000323097
-0.000341133
-0.00062575
-0.0001207
0.0036603
-0.00154599
0.00140909
0.00227834
-0.003029
0.00220132
-0.00484552
0.000333093
-0.000859965
-1.07913e-05
0.000871014
-0.000368948
0.000368345
-0.000630224
0.000261868
0.00322145
-0.00368937
-0.000102021
0.00395846
-0.0050773
0.000457587
0.00454799
-0.00410912
0.000777899
0.00329193
-0.0027286
-0.00104517
0.00249203
-0.00198341
-0.000356139
-0.000288089
0.000644318
0.00201408
-0.0021015
0.00257455
-0.000383578
-0.000527172
0.00216363
-0.00150233
0.000207647
-0.00394612
-0.000294332
-0.000551503
0.000241011
0.000310492
-0.000204566
-0.00298113
-8.85962e-05
-0.00192251
0.00236158
0.000630237
-0.000865389
0.000451098
-0.000392824
0.00137954
0.00417483
0.000147807
0.0050422
-0.000367901
-0.00232715
-0.0043407
0.00226306
-0.000960289
-3.81948e-05
0.000997797
-5.49086e-05
-0.003026
0.00306368
-0.00070398
0.00131135
0.00014726
-0.00350428
-0.00414234
0.000213535
0.00113437
-0.00069949
0.000524038
0.000138602
-0.000662671
0.00137521
-0.00122237
-0.000155905
-0.000899452
-0.00580511
0.00346877
-0.00421108
0.000801472
-0.000860246
0.00132098
-0.000464648
0.00184243
-0.00103395
-0.000265708
0.00129713
-0.00100081
0.00545842
-0.00440287
0.000194958
0.00464702
0.000448711
-0.000545909
-0.000244528
0.000344003
0.00141831
-4.56534e-05
0.000177337
-0.00118151
0.00100443
-0.000453655
8.76354e-05
-0.000814079
-0.00216088
0.00298021
-0.000409837
-0.000119306
0.000529111
-0.000497511
0.00137243
1.44365e-05
0.000443477
-0.000615791
-0.00075775
0.00164992
0.000996362
-0.000125488
-0.00124888
0.00145797
0.00410239
-0.00386782
-4.9054e-05
0.000573053
-0.000739133
-0.000223195
0.00451101
-0.000203533
-0.00429594
0.00303289
-0.00383922
0.00163222
-0.00185526
0.00021639
0.000483716
-0.000448388
-3.53275e-05
0.000123838
-0.00321695
-0.00445909
0.00438616
-0.00264347
0.00463447
0.00515636
0.0044037
0.00225626
0.00230371
-8.75479e-05
0.000625003
0.00180769
-0.00018227
0.00276497
-0.00243209
0.00524366
-0.00500972
-7.9488e-05
0.000430119
-0.00062125
0.00121836
-0.00343707
0.00271356
-0.00130913
-1.64309e-08
-0.00487224
-0.000246002
-0.00112444
0.00336664
-0.00227819
0.000490131
-0.000548108
0.000722937
0.000422671
-0.00114507
-0.00362435
-0.000561856
-0.00018659
0.000129455
0.00178554
-0.00161427
0.00215729
-0.000847156
0.0004239
0.000422943
0.000570121
-0.000142071
-0.000428045
0.00540054
-0.000739057
-0.00468097
0.00244495
0.000381257
-0.000575398
0.000194212
-0.00111641
0.00143163
0.00236972
-0.00210865
0.00143408
-0.00139235
0.000508987
-0.000116374
5.28102e-07
0.000104091
-0.00128059
0.00126516
0.00012004
0.000119697
0.000634249
-0.000181176
-0.00155247
-6.49538e-05
-0.000344621
0.000957434
-0.000109052
-0.00372178
0.00209637
-0.00182599
-0.000274708
-0.000169356
-0.00424488
-0.0020548
0.00220739
0.00110956
-0.00140624
0.000428637
0.000387153
-0.000815653
0.00286561
0.00305196
-0.000658335
-0.00528305
-0.000206333
0.000261775
-0.00510929
0.000562522
-0.0024557
-0.000352442
0.00280829
0.00394197
-0.00392758
2.18068e-06
0.00154852
0.00313468
0.00100261
-0.00189421
0.000875671
0.00117908
-0.000306945
0.000116563
-0.00171767
0.00119816
0.000577862
0.00266967
0.00348814
-0.000500506
0.000298762
0.000201743
-0.000505126
-0.000840279
0.00133791
-0.00433122
-0.000394794
-0.00155845
0.000682136
0.000877237
-0.000236187
0.000487054
-0.000756306
0.00426028
-5.48049e-05
-0.000252025
-0.00426585
0.00448507
-0.000878615
0.00118031
-0.000303621
0.0015673
-0.000585016
0.000415752
0.0039564
0.00201865
0.000518772
-0.00257767
0.00552295
-0.00415781
-0.00119859
0.00257576
0.000828294
-0.000370829
-0.000471975
-0.000609798
0.00108105
-0.00399278
0.00154356
-0.000767651
0.000852997
0.00636189
-0.00607979
-0.000250736
6.64271e-05
-0.00115821
0.00109046
0.00518995
0.00037289
-0.00544525
-0.0029765
0.000332079
-0.000237737
-0.00393127
0.00416118
-0.000107094
-0.00263562
3.87637e-05
0.000703671
-0.000555539
0.000270062
0.00175425
-0.00169732
-0.000950151
-0.000609156
-0.00209066
0.000139505
-0.0047469
-0.000562072
0.000382826
9.54248e-05
-0.000213365
-0.0015773
0.00176916
0.00339289
0.000773214
-0.00416336
0.00470785
0.000374121
-0.000555377
0.000181255
0.00423727
-0.00452046
0.000249532
0.00469605
-0.000177367
0.00269829
-0.000277789
-0.0024336
0.00174361
0.00248763
-0.00421805
-0.000208703
-0.000196263
0.000455234
0.00364465
-0.000411634
-0.000501302
-0.00066214
0.000252251
0.000547343
-0.000137784
-0.000105196
0.000864702
-0.000237589
-0.000262921
-0.000160937
-0.000842873
0.00122759
-0.0003859
0.000677676
-0.00032641
9.82119e-05
-0.000117621
4.98943e-06
-0.00309449
0.00130451
-0.0051574
0.00378365
-0.000462904
-0.000742165
0.000352662
-0.00466127
-0.000272142
-0.000358112
0.00128157
-0.00151882
0.00122397
-0.000157682
-0.00106944
0.00404495
-0.00345065
-0.000596099
-0.000411692
0.000849732
-0.000438324
-0.000369076
0.00045803
-8.89573e-05
0.000173697
-0.000587647
0.000413947
0.00163527
-0.00194776
0.000302994
-0.00214528
0.00198607
0.000146858
-0.00046004
0.00187012
-0.000299617
-0.000423209
0.00499408
-0.00067733
-0.00432128
-0.000141745
0.000570942
-0.000429128
0.000459968
0.000662203
0.000933621
8.56993e-05
-0.00102027
-3.94351e-05
-0.000594781
0.000634008
0.00059136
-0.000838968
-0.00305466
0.000634412
0.00340424
-0.00275111
-0.000679374
-0.00024532
0.00463071
0.000535696
-0.00222612
0.00167008
-0.000296882
-0.000322063
-0.000347344
-0.000260788
0.00152716
0.00368465
-0.00525921
-0.000461071
1.38366e-05
0.000447242
-0.000419085
-0.00305028
0.00122908
-0.0003954
0.000824286
0.00068065
-0.000847469
-0.000303043
0.000983966
-0.00428352
0.00418355
0.00158443
0.00208585
0.000291076
-0.002402
-0.00330472
0.0033932
0.00105627
-0.000265533
-0.000163627
0.00228793
-0.0019771
0.000461469
0.000238292
-0.000699867
-0.00161378
0.000263924
0.00197012
9.83376e-05
-0.00427894
0.00135046
-0.000985193
-0.000367357
1.90779e-05
0.00079449
-0.00125864
-3.05862e-06
0.00260472
-0.00262984
-0.000666
0.000325442
0.000517304
-0.000775718
0.000258251
0.00041445
-0.00097358
0.000558718
-0.00182992
-0.000451684
-4.12291e-05
0.000562293
-0.00281818
0.00278471
-0.000416862
1.67946e-05
0.00477568
-0.00401016
-0.000433054
-0.00118974
0.000152734
-0.00187053
0.0025412
-0.00400464
0.00425486
0.000146284
0.0022494
-0.0024141
0.00040417
-0.000546242
-0.00244429
0.00212207
0.000288603
0.00037738
-0.00391279
0.00356221
0.00024072
-0.000720765
-0.00590764
0.00580171
-0.000255664
6.19905e-05
0.00403494
-0.000214061
-0.00381003
-0.0010347
-0.00212867
0.00314677
-0.000419073
0.000420479
-1.40524e-06
0.00115962
0.000116124
-0.000468935
7.86437e-06
0.000931679
-0.000245182
-0.000186847
-0.00398169
0.00032897
0.00223044
-0.000306626
-0.00193727
-1.90718e-05
-0.000301728
0.00509568
-0.00454754
0.00438715
0.00044076
-0.00487095
0.000376177
0.000324282
-0.000700598
-0.00190073
0.000197701
-0.00263196
0.0025622
0.00169522
-0.00132864
0.00108225
-0.000338022
-0.000570987
-0.00477975
0.00350595
0.00064162
-0.00122118
-0.00523731
0.00471297
-0.00326813
0.000627098
-0.000702959
7.58698e-05
-0.00119963
3.24297e-05
0.00116531
0.00128038
-0.0029224
0.0035127
0.00429918
-0.00426938
-4.20783e-05
0.000402967
-0.000550881
0.000279364
0.000559185
-0.000838558
-0.000661229
-0.000470347
-0.000269755
0.000435539
0.00538573
6.261e-05
0.000800819
0.00362784
0.00111837
0.00393153
3.04421e-05
0.000418268
0.00021094
-0.00226126
-0.000885938
-0.000415704
0.00130085
-0.000179481
0.00235804
0.000855199
-0.00403301
0.00319286
0.00341615
-0.000886609
0.00126258
1.86727e-05
-0.00135972
-0.00363321
-0.00104562
0.00111078
-0.000911476
-0.00498738
0.000412952
-0.000287121
0.00116756
0.000341593
0.00273529
0.00280148
0.0027894
0.000763738
-0.000627088
0.000284546
0.000262793
-0.0002858
-0.00182083
-0.00054812
0.000240416
0.000307702
-0.00484348
-0.000434001
0.00540966
-0.00180592
0.000274966
0.00271025
-0.00286507
-0.00063737
-0.000345337
-0.000628276
0.00523569
0.000367874
0.00155226
0.000127609
-0.00168968
0.00123925
0.000234996
0.00128555
-0.00152304
0.000836714
-0.00139099
0.00082728
-0.000430298
0.000895785
0.000820798
-0.00070652
-0.000114357
0.00078973
-0.00356254
6.36595e-05
-0.000815545
0.000751846
0.000491456
-0.000527516
0.00282788
-0.00255434
-0.000283185
-0.000249776
-0.000625783
-0.00108898
-0.000201348
-0.00419358
0.00489452
-0.000659955
-0.00250748
0.0023207
0.00164098
-9.00358e-05
0.000600587
-0.00522102
0.00187036
0.00489391
0.00307855
0.00291356
-0.00280092
-0.000378418
-0.00395312
0.00425453
-0.00476376
0.00371625
0.00106884
-0.00425325
-0.000646365
0.000290308
-0.000414244
0.00240407
-0.00279357
-4.74688e-05
0.00280399
-0.000962832
-0.00564114
0.00107386
0.004533
-0.00459891
0.0044484
0.000109539
0.00161639
0.000135343
-0.00175709
0.000553458
-0.000949696
0.000395785
0.000119865
-0.00097959
-0.00131953
3.73686e-05
-0.00112048
0.00121929
-0.000909795
0.000414758
-0.000635901
0.000221079
0.00134058
0.000743236
-0.00208647
-0.000330607
-0.00023362
0.000564226
0.00149947
-0.000733243
-0.000768025
0.00021274
0.00244742
-0.000562511
0.00271777
-0.00305557
0.000319164
0.000313359
0.000329694
-0.000643094
0.000520289
-0.000146159
0.00145015
-0.000435872
-0.000613867
-0.00530785
0.000432008
0.00335066
-0.00352243
0.000149916
0.00175387
-0.00266719
-0.000310069
0.000471235
-0.000161168
0.000347723
0.00202115
-0.00238769
-0.00390631
-0.000245359
0.0001515
0.000730723
-0.000349398
0.00109211
-0.000672415
-0.000419616
-0.00293458
0.000104632
0.00163431
-0.000900259
0.00107775
-0.000416329
0.00171724
-0.00130974
0.00244314
0.000375497
0.000452595
-0.000594272
0.000352416
-0.00101394
-0.0013001
0.00420621
-0.00292174
-0.000924195
0.000621554
0.00097745
6.28839e-05
0.00145078
-0.000495293
-0.00095384
0.000258597
0.000562063
-0.000435631
0.00329013
-0.000107732
-1.98448e-05
0.00426333
-0.000590648
0.00128657
-0.000911901
0.000625426
-0.000448709
-0.000176716
-0.00212435
0.000996354
-0.000183508
0.000431016