/*--------------------------------*- C++ -*----------------------------------*\
| =========                 |                                                 |
| \\      /  F ield         | OpenFOAM: The Open Source CFD Toolbox           |
|  \\    /   O peration     | Version:  v2012                                 |
|   \\  /    A nd           | Website:  www.openfoam.com                      |
|    \\/     M anipulation  |                                                 |
\*---------------------------------------------------------------------------*/
FoamFile
{
    version     2.0;
    format      ascii;
    class       surfaceScalarField;
    location    "500";
    object      meshPhi;
}
// * * * * * * * * * * * * * * * * * * * * * * * * * * * * * * * * * * * * * //

dimensions      [0 3 -1 0 0 0 0];
oriented        oriented;


internalField   nonuniform List<scalar> 
14470
(
-0.00260952
0.00082074
0.00179035
-0.000357694
-0.000235619
0.00314029
-0.00311945
-9.5899e-06
-0.00017536
-0.000234165
0.000409525
-0.000610663
0.000660525
-3.1722e-05
-0.00110767
0.00111098
-3.03875e-06
0.000777176
-0.00153672
0.000759881
-0.000155291
-0.000421497
0.000576792
-0.002911
0.000493821
0.00242942
8.85163e-05
0.000892443
-0.000960188
0.00096285
-0.000856475
-2.05267e-05
-0.00244773
0.00250619
0.00112794
-0.000519213
-0.000608779
0.00400451
-0.00287444
-0.00109432
-0.0020938
0.00255831
-0.000455212
-0.00165682
0.00165516
3.24954e-06
0.00308872
-0.000985983
-0.00209678
-0.00063218
0.000531911
0.000100271
0.00116891
-0.00245298
0.00136894
0.00155986
0.00175375
-0.00326544
0.000196341
-0.000196341
-9.99216e-05
0.000495675
-0.000395754
-0.000504726
0.000349438
0.000728829
0.000399051
0.000508032
-0.0020354
0.00152824
0.00226244
-0.000695643
-0.00154401
-0.000252547
0.000354699
-8.4406e-05
-0.000914678
0.00215379
-0.00132972
0.0003322
0.000997949
-0.000320653
-0.000132596
0.000453249
0.00107946
-0.00097383
-0.0001055
-0.00276179
0.00274763
3.56282e-05
0.00053474
0.00222605
-0.00273965
0.000227974
0.000208748
-0.000276016
-0.00102749
-0.000805022
0.00183643
0.0019506
0.000263618
-0.00220612
0.000252628
0.00136937
-0.00162172
0.000326235
0.000425665
-0.000751905
0.0022117
-0.00154611
-0.000662799
-1.32687e-05
-0.00131593
-0.000547512
-0.000299349
0.000846922
0.0001959
-0.000516158
0.000320264
7.34128e-06
-0.000243725
-0.000350581
-0.00225597
0.00260652
-0.000376634
-0.0021541
0.00253023
0.000282049
0.000234133
-0.000516182
-2.96274e-05
0.000174301
-0.000141398
0.000724516
-0.00270608
0.00200577
0.000171372
0.00292582
0.00134069
-0.00236312
0.000591713
-0.000213714
-0.00226847
0.00158109
0.000689696
-0.000484455
0.0004593
0.001926
-0.00131313
-0.000612309
-0.000624397
0.000449037
0.00255114
6.05643e-05
-0.00256861
0.000109427
0.00129144
-0.00140007
-0.00171795
0.00246437
0.000174301
-0.00187021
0.000345393
0.00152511
0.00053642
-0.00103178
0.000495424
-0.00295843
0.00299257
-2.27542e-05
0.00243782
-0.00043122
-0.00200285
0.000129986
-0.000713344
0.00068132
-8.25462e-05
-0.00281504
-0.00023396
-0.000237278
3.00435e-05
-0.00205093
0.0020276
0.000174698
0.00202921
-0.00219585
0.000825167
-0.00024694
-0.000578203
-0.00329957
0.00144943
0.00185302
0.000101822
0.000681588
-0.000783423
0.000345404
-0.0006189
0.000273498
-0.00182907
0.00176352
6.66167e-05
-0.000662062
0.00101692
-0.00035482
-0.000360779
0.000457693
-8.21988e-05
0.00117392
-0.00142351
0.000249767
-0.000927926
0.000374465
0.000553494
0.00301862
-0.000778858
-0.00223687
0.000465306
-0.000472995
1.2913e-05
7.84058e-05
0.00109561
-0.00049033
-0.000141847
-0.00146876
-0.000186621
0.00218372
-0.000483758
-0.00169635
0.00213307
0.000865321
8.56177e-05
-0.000950778
0.000551843
-8.05717e-05
0.00188537
-0.00156743
-0.000315016
-0.000409287
0.000735514
-0.000309288
0.000845773
0.000433445
0.000138476
-0.000571921
3.46685e-05
-0.000618475
0.000583851
0.000781506
-0.00074678
-0.000973609
0.00164614
-0.000671103
0.000603758
-0.00040785
0.00308738
-0.000588674
-0.00248408
0.000283255
-0.000945278
0.00146414
-3.77153e-05
-0.00142526
-0.00223795
0.000393719
0.00184939
-4.31403e-05
-0.000547865
-0.000402294
-0.000370249
0.000772533
-0.000465734
-0.00179994
-0.00152753
0.00171256
-0.000184356
0.00242363
-0.00277382
-0.00120364
0.000935165
0.000268561
-0.000743032
0.000351109
0.000391944
-0.00169525
-0.000132648
-0.00237898
0.00225074
0.000192847
0.00248968
0.000534517
0.000173009
0.000508269
-0.000488545
8.44892e-06
-0.0005195
0.000419578
-0.000154362
-0.000405589
0.000559951
-0.000368578
-9.71963e-05
0.000465774
-0.000823461
-0.00247202
0.000610694
-0.00191133
0.00132077
0.000950161
-0.00265802
0.001719
0.00224664
-4.15217e-05
-0.00220544
0.000167939
0.000413246
-0.000581185
0.0020887
-0.00248177
0.000393028
-0.000444684
-0.000572845
0.0010176
0.0018305
5.74601e-05
-0.00099631
0.000917419
7.89433e-05
0.000194714
0.00149181
-0.00168445
-0.0023033
0.00257644
0.00240137
-0.000312918
-0.00167154
0.000576163
0.00109642
0.000250869
-0.000571522
0.00110312
-0.00157056
0.000468083
0.00170576
-0.000601869
0.00229265
4.88163e-06
-0.0022913
0.00366338
-0.00118091
-0.00244141
-0.000202912
-0.00240528
0.00216693
0.000165644
-0.00232428
0.00236289
-0.0020561
-0.000301962
-0.00047509
-0.000490096
0.000965367
-2.56041e-05
0.000954673
-0.000928897
0.00216128
-0.00120195
-0.000375335
2.5037e-05
-0.00157299
0.000591329
0.000982457
-0.000740451
0.000539369
0.000201089
0.00156179
0.00342301
-0.00104804
-0.00237154
0.000222006
0.00154365
-0.00176312
0.000220062
0.00031484
-0.000534902
-0.000284496
-0.000443525
0.000728062
-0.00248959
9.40229e-05
-0.000237166
0.000520437
0.00185052
0.00184503
-9.24722e-05
0.000604121
-0.00242221
0.00185193
0.000551668
-0.000722681
0.000171018
8.34562e-05
-0.00231548
0.00108742
0.0011993
0.0027573
-0.00258638
-0.000168057
0.000603901
-0.000872279
0.000268424
7.03377e-05
0.00158603
-0.0028842
-6.5504e-05
0.000225606
0.000853951
0.00213632
0.000478786
-0.00261009
-0.00172921
0.000164363
0.00204223
0.000256958
0.00261971
-0.00102135
0.000108372
-0.000544578
0.000436214
-0.000702844
0.00303284
-0.00231375
-0.000403653
-0.000524226
-0.00164055
0.00145311
0.000187929
-0.000311204
0.00277069
-0.00244601
0.00220308
-0.00245104
0.000314513
7.43002e-05
-0.00087671
0.000821765
0.00184468
0.00158252
0.000390465
-0.000608132
0.000217667
-0.000670668
0.000419824
0.000250846
-0.000378875
0.00106989
-0.000690946
0.00230934
-0.00229556
-0.0010537
-5.36195e-05
0.00109748
-0.000483392
-0.00061396
-0.000777258
0.000183861
0.000593403
0.00340125
-0.00254538
-0.000846456
0.000521494
0.00172671
-0.0022414
-0.000834136
-0.000369391
0.000502111
0.000359649
0.00147301
-0.00227951
0.00190191
1.15647e-05
0.00204294
-0.00205263
-0.000112272
-0.000702212
-0.000294009
-0.000227043
0.000572449
-0.000340515
-0.000330147
-0.00161459
8.75778e-05
0.00286081
-0.000606136
-0.00224112
0.000107059
-0.000396616
0.000289556
0.000656874
-0.000109396
-0.00054748
-0.00192694
0.00187061
5.66996e-05
0.00226946
0.000383404
-0.00262737
0.00018947
-0.00227837
0.00209166
0.000491796
5.82675e-05
-0.000550063
-0.00261332
0.00110796
0.00157611
0.00131505
-0.00229598
0.00123198
-0.00131535
9.02424e-05
0.00109543
0.00161591
-0.00270908
0.000898773
0.00126148
-0.0021294
-0.00192839
0.000414899
0.00151791
-0.00249415
0.00194022
0.000560363
-0.000212655
0.000636733
-0.000424078
0.0029334
-0.000630984
-0.00230288
0.00175992
-0.00195729
0.000200485
-0.00257272
0.00227422
0.000600056
0.00202116
-0.00261761
-0.000880786
0.000651908
0.000228895
-0.00150149
-0.000559613
-0.000180832
0.00222346
-0.0022593
0.000119204
0.000640116
0.00018507
0.000464423
0.0017227
-0.00194849
0.00221889
-0.00026615
0.00204044
0.00199029
0.000643412
-0.00111831
-0.00132044
0.00194798
-0.0012976
0.000255056
0.00104251
0.000206207
0.00125902
-0.00179067
0.00272776
-0.000498261
-3.60828e-05
0.00053434
0.000535211
-0.00129862
0.000763603
0.000560916
-0.00153345
-0.00324934
0.000771991
0.00248953
0.000295223
-0.00175882
0.00146548
0.00138581
3.41337e-06
-0.00138919
-0.00108916
0.00112121
-3.20316e-05
-9.94606e-06
-0.00107922
-0.00039675
-0.000246789
0.000643537
-0.000983185
-0.000495126
0.00147917
0.000182219
-0.0021254
0.000912262
0.00152873
0.000125389
0.000531483
0.000175302
0.00248968
-0.00263174
-0.000354168
-0.000582667
0.00021409
-0.000794435
-0.0017422
-0.0011385
0.00113001
1.96788e-05
0.000464041
-0.00101148
0.00346116
-0.00304465
-0.00040825
0.000148553
0.000374799
0.000267527
0.0010686
-0.00133541
9.67442e-05
-0.00131781
0.00122179
0.00279162
-0.00127208
0.00179922
0.00185376
-9.11604e-05
-0.00154403
-3.00483e-05
0.00157493
0.00213174
-0.00184198
-0.000284236
0.00262608
0.00171546
-0.00098407
-0.000730558
0.000485679
4.68061e-05
-0.000532485
0.000944007
-0.00269345
-0.000578058
-0.000706036
0.00128424
-0.000118467
-0.00036933
-0.00140078
0.000120321
0.00128128
-0.00068847
0.000435539
0.000397164
-0.000456459
0.00249899
-4.78828e-05
-0.0024531
-0.000141586
0.000745527
0.000606008
-0.000915978
0.000310004
-0.00160691
0.00136296
0.000299994
0.000505817
-0.00181321
0.000896793
-0.000387886
-0.000508855
-0.000268413
-0.000239586
0.000766832
-0.000755748
3.44583e-06
0.000262465
0.000239877
-0.000328926
1.62096e-05
0.000589815
-0.000596247
0.000704632
0.00190325
0.000130354
-0.00203299
0.0008593
-0.000467554
-0.00039172
0.00119449
0.000165172
-0.00135887
7.25311e-05
0.000495441
-0.000417921
-7.75196e-05
0.0006715
0.00211232
-0.000154424
0.000408103
-0.000253679
-0.000478292
5.19052e-05
0.000428131
0.00146463
-7.88822e-05
-0.000146343
0.000393971
-0.000247626
0.000465196
-0.00103127
0.000566061
0.000490537
-0.00148838
0.000505986
-0.00228047
0.00229157
-0.00156484
9.75215e-05
-0.000247912
-0.00223981
0.000239109
0.00243529
-0.00264513
-0.00172586
0.00270637
-0.000969925
-0.000458385
-0.000422378
-0.000990518
0.00149917
0.00149289
-0.000975398
7.45314e-06
-5.49439e-05
5.51823e-05
0.000612566
0.00167556
7.26698e-05
-0.00043366
0.000516842
0.00273882
0.000567486
-0.000224256
-0.00034323
0.00293238
-0.000782918
-0.00209337
-0.000186697
-0.00277018
0.0029925
-0.000321883
-0.000105104
0.00055826
0.00267106
-7.4139e-05
-0.000498481
0.000519338
-2.08566e-05
-0.000714434
0.000429975
0.00113344
-0.000640803
-0.000492686
-0.000324696
-0.00157649
0.00190193
0.00163331
-0.00140894
-0.000325084
0.00170965
-0.00152369
-0.000184839
0.000612825
-6.11538e-05
0.002434
-1.13421e-05
-0.000482329
-0.000433614
0.00222343
-0.000148266
-0.00207141
-0.00300443
0.000749514
0.000113544
1.5345e-05
-0.00259167
-0.000146793
0.000697154
0.00101913
-0.000235618
-0.000398605
0.00244785
-0.00279088
0.000347465
0.00113195
0.000196466
-0.00132867
-0.00302426
-0.000105542
-0.00221238
0.00232086
-0.000145754
-0.00113612
0.0012818
0.000119435
-0.00133069
0.0012117
-0.00240088
0.00295791
0.00227076
1.7631e-05
-0.0022861
0.00175825
-0.00208204
0.000562457
0.000444895
-0.00100726
0.00042531
-7.37143e-06
-0.000417938
0.00237371
0.000773793
-0.000146644
0.00246382
-0.000359273
-0.0018886
0.00226797
0.000478674
-8.82089e-05
0.000354153
-0.000508577
0.000556626
-0.000694738
0.000138115
0.0024187
0.000101276
-0.00248607
-0.00107389
0.00119373
0.00137206
-0.000240382
-0.000757848
0.000434297
0.000323559
-0.00165592
0.000696695
0.000960042
0.000203705
0.00229316
-0.00246859
-0.00011261
-0.00244555
0.00258381
0.00219563
-0.00253237
-0.00146828
-9.51755e-05
0.000410604
-0.0027725
0.00236803
-0.000509783
6.75355e-05
0.000442252
-0.00152739
0.00211498
-0.000570919
-0.00280366
0.00344898
-0.000602044
-0.00131095
0.000353578
0.000957625
0.000270742
0.000296743
0.000304312
0.000335817
-0.000420183
0.0006692
-0.000767262
0.000364963
0.00161773
0.000509224
-0.00212422
-0.000487852
0.000165778
0.000322075
0.0006804
-0.000397934
-0.000282461
0.000232717
-0.000629467
-0.000122231
-0.00192149
0.00204849
0.00111019
0.00110344
-0.000915577
0.000890138
-0.000172207
0.000605652
-0.000381024
-0.000270765
-0.000983979
0.00125464
-0.000149859
0.000402493
-0.000248981
0.000139666
0.00176431
0.000481335
0.00219318
-0.00264939
0.00282981
-0.00247443
-0.0002821
0.00273483
-0.00231817
0.00216845
-0.00183734
-0.000303043
4.67353e-05
-4.67353e-05
0.00015601
-0.000665786
0.000984655
2.12361e-05
-0.00129715
0.00127676
0.00205377
-0.00183912
-0.000211848
-0.000319408
-0.00087614
0.00119574
-0.00187435
0.00210187
0.00148598
-0.00196653
-0.000497889
-1.53134e-05
0.000513203
0.000752875
-0.000277771
-0.000475104
0.000866019
0.000134958
-0.00100107
-0.000200686
-0.00145406
-0.00297983
0.000215689
-0.00188713
0.00176928
-0.00035903
-0.00274819
-0.000573252
-0.000343001
0.000916304
-0.000770481
0.00120848
-0.000293687
-0.000399586
0.000703914
0.000750927
-0.00115032
0.00039947
0.00104596
-0.000268514
9.24484e-05
0.00046418
0.0011935
-0.00133932
0.00126343
-0.000124768
-0.0010779
-0.0031551
0.0029673
0.000207996
0.00101033
-5.55162e-05
-0.000965506
0.000392309
0.00245984
0.000469676
0.000391063
0.000289339
0.000119901
0.00120849
0.00156706
-0.00118961
-0.000378035
-0.000514598
0.000368256
-0.000574755
-0.00160415
0.00130467
0.00262659
0.00141649
3.70247e-05
-0.00206765
0.000553485
-0.002537
0.0018478
-0.000714956
0.00113397
-0.000418834
0.00076202
-0.000660211
-0.000414743
0.00176626
-0.00134918
-0.00155791
-0.000368814
-0.00199296
0.000980664
0.00105517
-0.00278029
7.3769e-05
0.00272128
0.000372509
0.000544963
-0.0014497
0.00141314
-0.00297745
0.00302984
-5.46372e-06
0.00132817
-0.0013026
-1.0476e-05
0.00102871
0.00089782
-0.00122289
-1.98493e-05
0.00124247
0.00154374
-0.001956
-0.000147912
0.000462753
0.00129907
-5.96587e-05
0.00290307
-0.000660228
-0.000469237
0.000844981
-0.00037573
-0.000941974
-0.00100909
-5.79723e-05
0.000543651
-0.000300418
-0.00047683
-0.00201442
0.00202773
0.00263032
-0.000122349
-0.00248593
0.000804538
-0.00251957
-0.00141462
0.00102971
-0.00289469
-0.000903434
0.000533179
-0.000176405
0.000201375
0.000695458
-0.00175018
-0.00260649
0.0026531
-3.52523e-05
-0.00136905
0.00156568
-0.00133906
0.00159192
-0.000208045
0.00062129
-0.000217606
-0.00165198
0.000499383
0.000165207
0.0017625
2.16275e-05
-0.000736016
-0.000321084
-0.00224285
0.00256686
0.00282415
-0.000684832
0.00254719
-0.000969839
0.000341509
-0.00296494
0.000716141
0.0022725
0.00268663
0.00012871
-0.00279135
0.00224612
7.21072e-07
0.00108987
-0.00104878
7.42582e-06
0.000281958
0.00204463
-0.00232311
-0.00221227
0.00197001
-0.000889205
0.00115735
0.000309013
-0.000313059
0.000151801
0.00063346
-0.000141664
-8.66265e-05
-0.00166331
0.00175042
0.00087179
-0.000120799
0.000534632
-3.91914e-05
0.00253581
-0.000129794
-0.00118066
-0.000461723
-0.00107456
0.00257934
-0.00217172
-0.00109071
0.00142167
-0.000202556
0.0029266
-0.00221929
-0.00070461
-0.000479015
0.00124115
-0.000762006
-0.00104577
0.00121166
0.000254998
-0.00179262
0.000114486
0.00169638
-0.000147638
-0.00116903
0.000729381
-0.00106447
0.000335048
0.000559316
0.00053827
-0.000368538
-0.000535049
0.000761826
0.00124779
0.00151011
-0.000227533
0.00148321
-0.00125551
0.000478748
-0.000244614
0.000852022
-0.000386833
-0.000471203
-0.000981102
0.00145259
-8.32968e-05
-0.00209545
0.00218856
0.000664509
-0.00124242
-0.000908078
0.000504469
-0.000541863
-0.000667342
0.00120973
-0.00206776
0.00285297
-0.000781961
0.00347669
-0.0011741
-0.00226475
0.000423419
-0.000636073
-0.00301585
0.0028687
0.000155636
0.0006088
-0.00109207
-0.00107664
0.000327055
0.000749709
-0.00251201
-0.000410463
0.00030595
-0.000902176
0.00177217
-0.00195452
0.000186012
0.000408257
0.000210635
-0.000618896
-0.00281478
5.03444e-05
-0.00030175
-0.000294414
0.000596166
-0.000480495
0.000919045
-0.000438406
-0.00227687
0.000191759
0.000505071
-0.000892901
0.00274726
0.000353018
-0.000354632
-0.000403205
-0.000330162
0.00208539
-0.00174364
0.00279023
-0.00260973
-0.000163142
4.8627e-06
-0.000858771
0.00278922
-0.00261031
0.000534638
0.00213609
-0.00271301
-0.00102593
0.00278721
-0.00173355
0.000337407
0.00174383
-0.00208
0.00266453
-0.00252754
0.00233467
-0.00163279
0.000994738
0.000638773
-0.00317101
0.00126217
0.00191496
0.00179541
-0.000552308
-0.000727443
0.0013275
0.000971798
-0.0014702
-0.000103404
-0.000394485
0.000750426
-0.000986544
0.000236093
0.00147155
-0.00194232
-0.00108482
3.74661e-05
-0.00224353
8.63162e-05
-0.00258228
0.00250223
0.000169939
-0.00143749
0.00248891
-0.000270357
-0.000424375
-0.00271811
0.000196274
0.000147262
-0.000272347
-0.000285477
-0.00018576
0.000471238
0.000424915
-0.00072422
-0.00157959
3.62818e-05
0.000254101
-2.09633e-05
-0.000172209
0.000846488
-0.00302534
0.00219088
0.000723031
-0.000718151
7.72924e-06
0.000619531
0.000664824
0.00245573
-4.31578e-06
0.00138096
-0.00176794
0.000387721
9.30694e-05
0.00198467
-0.00207115
3.95747e-06
-0.00050222
-1.62128e-05
-0.000447963
-0.000471705
0.000237744
-0.000101315
0.000347491
-7.3486e-05
0.000965966
-0.000403432
-0.000604961
-0.00182036
0.00243288
0.000681921
0.0011587
-0.00183833
0.000479806
-0.000433
0.00170846
-0.00202437
0.000423622
-0.000908828
0.000485261
0.00294051
-0.00287667
-5.07149e-05
-6.874e-05
9.82842e-05
3.78917e-06
-0.00269931
-0.000515208
-0.000739095
0.00116944
-0.000430266
2.78035e-05
0.00060893
0.00188153
-0.000181767
-0.00219919
0.00119988
-0.000124717
0.000552158
0.000289335
-0.00127281
0.0003819
-0.000683647
-0.000308676
0.00167823
0.000366434
-0.000494414
0.000196345
-0.00113997
-0.000283365
0.000241343
5.56287e-05
-0.000283038
-0.00140185
0.00225868
-2.45504e-05
-0.00252104
0.00256865
0.000575523
-0.00146388
0.00133564
5.42355e-05
-0.00133246
-0.000884049
-0.000414484
0.00209372
-0.00107348
0.000374504
0.00227659
-0.00264351
-0.00049406
-0.00117937
0.0016765
-0.00101519
0.000982298
3.29889e-05
0.000429535
0.000747654
-0.00117698
-0.00295292
0.000217389
0.000241471
-0.000349784
0.00107791
-0.0005185
0.000169203
-0.00271977
0.00255643
-0.00267133
0.000112646
-0.00025399
0.000981496
0.00115725
0.000534156
0.000681614
0.000396354
-0.00200267
0.00219025
-0.000457246
0.00088092
-0.00115204
9.29416e-05
0.00105939
-0.00125644
-0.000317182
0.00157382
0.00180755
-0.00158429
-0.000222454
-0.000179209
-0.000335388
0.00221215
-3.74453e-05
-0.000390111
0.00100971
0.000554546
-0.000343951
-0.000210592
0.000602533
0.000363503
0.000536737
5.07796e-06
-0.000541794
-0.000345542
-0.000730945
0.0010538
-0.00269284
0.00130235
0.000501015
-7.57052e-05
-0.00195202
0.00146163
0.000376893
-0.000156543
0.000759127
0.000309635
-5.65877e-05
0.000400936
-0.00146796
-0.000110669
-0.0010948
0.001022
7.31538e-05
0.000821837
0.000534113
-0.00135625
-0.000198431
0.000469171
0.000390009
-0.000679243
0.000289237
0.000854464
-0.00203035
-0.00113003
3.57169e-05
-9.91832e-05
-0.00103317
-0.000907912
0.00026231
0.000645629
-0.00179292
-0.00232369
0.00172497
0.000425997
0.00231381
0.00260207
-0.000333844
-0.0022556
5.52982e-05
-0.0015038
0.00042618
-0.000672969
-0.000889332
0.000421811
-0.000554905
0.000190219
0.000364687
0.00222197
-0.00204843
-0.0014557
0.00164717
-0.000225232
0.000633484
-0.000479077
0.000847
-0.00036793
-0.00226711
0.00228509
-5.81072e-06
0.00139905
-9.70939e-06
-0.00138817
-0.00131886
0.00192166
-0.000491804
3.95297e-06
0.000835362
-0.00154999
-0.0020562
0.000815182
0.000318231
0.000421698
-0.000890912
-0.000140545
0.000530558
-0.000580357
-4.88726e-05
-0.00189497
-0.000834767
0.000416001
0.000418795
-0.000320885
-0.00160286
-0.000976218
0.000274088
0.00162521
-0.000941185
-0.00118354
0.00086435
0.000497828
0.0014814
-0.00197745
0.000168207
0.00329363
-0.00237241
-0.000903636
7.32817e-05
-0.00265635
0.00165716
-0.000355335
-0.00130138
2.65084e-05
0.000158332
0.000930247
0.0007274
-0.0012663
0.000835066
0.000431539
-0.000231421
0.0010107
-0.000779058
0.000134827
2.99904e-05
-0.000148504
6.15133e-05
0.000476031
-0.000525999
0.00280864
-0.000477251
-0.00232166
-0.00239764
0.00012143
0.00229189
0.000573189
0.000157458
0.00222132
0.00124482
-0.00126968
0.000118012
-0.0012326
0.000753718
6.03856e-05
-0.000194866
4.88881e-05
-0.00112732
0.000784382
1.94731e-05
0.00218522
-0.00217366
0.00036999
0.000184557
-4.81686e-05
0.00162416
-0.00157281
-0.00122869
0.00124557
-1.67866e-05
0.000148896
-0.00103516
0.000554809
-0.00214995
0.000666254
0.00156551
0.00199715
-0.00136599
0.000216794
-0.00135654
0.00105874
-0.0028806
-0.000129064
0.00168898
-0.00146965
-0.000217959
-0.000166157
-0.000569529
0.000735662
-0.000996728
0.00228174
0.0013509
-0.000961309
0.000665226
0.00029608
0.00166762
0.00046926
0.000328422
-0.000338917
-0.000622403
-9.15534e-05
0.00279999
-0.00146406
0.000979799
0.00158573
-0.0022
0.00160459
-0.00285075
0.000201624
-0.00085489
-1.07381e-05
0.000865625
-0.000366049
0.000368325
-0.000630179
0.000261857
0.00215248
-0.00247055
-6.02809e-05
0.00233245
-0.00286635
0.000255719
0.00265791
-0.00241112
0.000465015
0.00195596
-0.00228512
-0.000879668
0.00220744
-0.00173962
-0.000355614
-0.000287544
0.000643148
0.00168546
-0.00173022
0.00102592
-0.000382383
-0.000525637
0.00175961
-0.00145731
0.000201154
-0.00266314
-0.00019844
-0.000551506
0.000241013
0.000310494
-0.000145073
-0.00212876
-4.00523e-05
-0.000928443
0.00103301
0.000622638
-0.000853878
0.000451065
-0.000392797
0.000765689
0.00230717
9.00947e-05
0.00264548
-0.000240615
-0.000709922
-0.00135919
0.0017699
-0.000952495
-3.79192e-05
0.00099055
-4.35547e-05
-0.00237669
0.00242816
-0.000660303
0.00123664
0.000100925
-0.00235492
-0.00279183
0.000145153
0.00111961
-0.00068989
0.000523933
0.000138585
-0.000662515
0.0013351
-0.00118336
-0.000151258
-0.000310235
-0.00207669
0.00191518
-0.00232885
0.000445513
-0.000829311
0.00127872
-0.000449012
0.00165363
-0.000983742
-0.000253243
0.00123733
-0.000555602
0.00305564
-0.00244986
0.000118731
0.0028325
0.000448712
-0.000545908
-0.000232983
0.000310392
0.00133508
-4.28936e-05
0.00017441
-0.00116449
0.000990062
-0.000263637
0.000149048
-0.000595933
-0.00157382
0.00218087
-0.000409677
-0.000119269
0.00052895
-0.000213439
0.000484908
-5.49439e-05
0.000443171
-0.000615377
-0.000698087
0.00151966
0.000990105
-0.00012466
-0.001194
0.00139019
0.00217276
-0.00207586
-4.90423e-05
0.000572979
-0.000363367
-0.000113262
0.00273657
-0.000123333
-0.00260738
0.00223824
-0.00281985
0.0015461
-0.00174869
0.000203679
0.00048369
-0.000448364
-3.53268e-05
5.16536e-05
-0.00144042
-0.00246119
0.00241134
-0.00146486
0.0025326
0.0029187
0.00222251
0.00164504
0.00166275
-8.74103e-05
0.000624163
0.00172087
-0.000173757
0.00231395
-0.00202868
0.00180199
-0.00174397
-2.85562e-05
0.000408513
-0.000592374
0.00116931
-0.00228541
0.00183824
-0.00121643
2.00681e-06
-0.00267839
-0.000141485
-0.000915156
0.00277164
-0.00184999
0.000490051
-0.000548024
0.000729582
0.000426187
-0.00115585
-0.00224777
-0.000346846
-0.000186578
6.66159e-05
0.00108194
-0.00146749
0.00196706
-0.000844778
0.000422876
0.000421944
0.000570075
-0.000142055
-0.000428021
0.00344643
-0.000466637
-0.00295061
0.00108324
0.000380295
-0.000574118
0.000193819
-0.00100964
0.00130627
0.00101227
-0.000987948
0.000759791
-0.00139264
0.000508677
-0.000113145
1.1253e-06
0.000122356
-0.00124803
0.00123524
5.89261e-05
0.000119566
0.000633309
-7.54015e-05
-0.000663754
-1.79852e-05
-8.69855e-05
0.00025558
-4.85069e-05
-0.00173097
0.00193317
-0.00167775
-0.000253405
-9.03806e-05
-0.00229238
-0.00183136
0.00196229
0.00101225
-0.00128309
0.000426165
0.000385186
-0.000811361
0.00142367
0.00154533
-0.000321263
-0.00261776
-0.000183904
0.000228913
-0.00292084
0.000323671
-0.00161365
-0.000234516
0.00185783
0.00230551
-0.00229175
1.27983e-06
0.00139331
0.00184002
0.00086584
-0.00163006
0.000766002
0.00117147
-0.000305548
0.000107068
-0.001574
0.00114048
0.000549617
0.00120605
0.00219097
-0.000500505
0.000298762
0.000201743
-0.000484929
-0.000807608
0.00129315
-0.00257706
-0.000229264
-0.00158439
0.000693246
0.000891089
-0.000236187
0.000487056
-0.000416525
0.00235822
-3.08847e-05
-0.000144408
-0.00245082
0.0026244
-0.000865123
0.00116471
-0.000299294
0.00137167
-0.000503675
0.000415713
0.00209919
0.00176205
0.000447829
-0.00220426
0.00254328
-0.0019419
-0.000530217
0.00191812
0.000225181
-9.79703e-05
-0.000467582
-0.000603956
0.00107173
-0.00260559
0.00100163
-0.000760472
0.000846232
0.00214957
-0.00204242
-8.42955e-05
6.57181e-05
-0.0011432
0.00107774
0.00255731
0.000182095
-0.00268382
-0.00255884
0.000283692
-0.000145068
-0.00238885
0.00253925
-7.8789e-05
-0.00191949
3.80594e-05
0.000691271
-0.00055554
0.000270063
0.0016387
-0.00157751
-0.000965624
-0.000618773
-0.00188326
0.000126557
-0.00291502
-0.000561971
0.000382765
9.54252e-05
-0.00018861
-0.00139682
0.0015876
0.00222786
0.000508147
-0.0027183
0.00149143
0.000374075
-0.000555318
0.000181244
0.00242752
-0.00254372
0.000249526
0.00262042
-9.97306e-05
0.00202507
-0.000206668
-0.00181396
0.00112316
0.00159549
-0.00270655
-0.000259996
-0.000212706
0.00046262
0.00238018
-0.000409708
-0.000499047
-0.00066179
0.00025212
0.000547304
-0.000137779
-0.000103838
0.000854233
-0.000237587
-0.000262918
-8.3102e-05
-0.000833151
0.00121512
-0.000381866
0.00067729
-0.000326164
8.20966e-05
-7.83527e-05
4.94222e-06
-0.00238995
0.000552614
-0.00221474
0.00174199
-0.000454174
-0.000729144
0.000202957
-0.0026662
-0.000272105
-0.000358069
0.00124087
-0.00146822
0.00120253
-0.00015449
-0.00104761
0.00311703
-0.00264928
-0.000458131
-0.000410647
0.000847835
-0.000437143
-0.000369074
0.000458032
-8.8957e-05
0.000173682
-0.000587555
0.000413873
0.00153051
-0.00181106
0.000281938
-0.00190062
0.00177207
0.000131191
-0.000158354
0.000579043
-0.000299552
-0.000423122
0.00273296
-0.000361014
-0.00232143
-0.000141525
0.000570181
-0.000428661
0.000455021
0.000656123
0.0009257
8.48105e-05
-0.00101038
-3.93651e-05
-0.000593752
0.000633147
0.000590198
-0.000837109
-0.00232048
0.000484859
0.00274409
-0.00219371
-0.000543887
-8.52048e-05
0.00147802
0.000455314
-0.00186482
0.00141174
-0.00029686
-0.000322036
-0.000347344
-0.000260787
0.000594884
0.001485
-0.0020079
-0.000461044
1.3835e-05
0.000447208
-0.000276564
-0.00200116
0.001166
-0.000392733
0.000818878
0.000675756
-0.00084194
-0.000300511
0.000976236
-0.00235679
0.00226791
0.00144203
0.00165926
0.00023229
-0.00188747
-0.00220296
0.0021579
0.000660965
-0.000268103
-8.69444e-05
0.00118479
-0.00109555
0.000461174
0.000238134
-0.000699291
-0.000363009
5.10781e-05
0.00043555
5.3944e-05
-0.00238443
0.0013265
-0.000965584
-0.000360542
1.80107e-05
0.000778421
-0.00123235
-2.19446e-06
0.00187567
-0.00186474
-0.000665932
0.000325422
0.000516752
-0.000774711
0.000257979
0.000413103
-0.000969965
0.00055692
-0.00168221
-0.000237188
-2.53045e-05
0.000274697
-0.00201562
0.00202285
-0.000229827
7.66634e-06
0.00292683
-0.00244213
-0.000431624
-0.0011283
0.00014497
-0.00137393
0.0018756
-0.00246857
0.00264326
0.000115655
0.00176827
-0.00188027
0.000404083
-0.000546138
-0.00216943
0.00191549
0.000258647
0.000231217
-0.00238796
0.00215504
0.000240333
-0.000719412
-0.00303014
0.00297343
-0.000340255
7.81931e-05
0.00222202
-0.000183062
-0.00225954
-0.00070408
-0.00145658
0.00216832
-0.000419074
0.00042048
-1.40524e-06
0.00111838
8.51306e-05
-0.000468908
7.86424e-06
0.000925298
-0.000243724
-9.62948e-05
-0.0024399
0.000204448
0.00198984
-0.000273656
-0.00171362
-1.44566e-05
-0.000140549
0.00226297
-0.00209389
0.00277586
0.000276962
-0.00301937
0.00037568
0.000323876
-0.000699537
-0.00170082
0.000178158
-0.00208505
0.00204826
0.00152644
-0.00128175
0.00104112
-0.000337624
-0.000570248
-0.00306005
0.00224059
0.000634337
-0.0012071
-0.00255134
0.00192851
-0.00126649
0.00062621
-0.000702009
7.5798e-05
-0.00117839
3.19086e-05
0.00114678
0.00119932
-0.00225429
0.00268527
0.00253777
-0.00248478
-2.46312e-05
0.000402967
-0.000550879
0.000278033
0.000555905
-0.000833938
-0.000658712
-0.000468527
-0.000269735
0.000435513
0.00181375
2.05361e-05
0.00047611
0.00213979
0.000602105
0.00215784
3.04422e-05
0.00041827
0.000186437
-0.00201688
-0.000856473
-0.000400811
0.00125758
-0.000142928
0.00190191
0.000622529
-0.00292895
0.00232141
0.00218497
-0.000435694
0.0005795
1.23262e-05
-0.000647518
-0.0017505
-0.00103534
0.00110131
-0.00044294
-0.00249574
0.000408076
-0.000194888
0.000593409
0.000246794
0.00152885
0.00156232
0.00188116
0.000757996
-0.000623101
0.000284521
0.000262783
-0.0002386
-0.00152189
-0.000548112
0.000240413
0.000307699
-0.0020621
-0.000188515
0.00228232
-0.00173289
0.000265547
0.0018904
-0.00196486
-0.000633191
-0.000342928
-0.000328745
0.00278846
0.000204529
0.00151013
0.000124527
-0.00163404
0.0011958
0.000226665
0.00124411
-0.00147046
0.000295307
-0.00134262
0.000801285
-0.000428478
0.000892586
0.000818434
-0.000704334
-0.000114086
0.00057891
-0.00264266
6.18037e-05
-0.000792955
0.000731183
0.000491023
-0.00052711
0.00214392
-0.00192676
-0.000213201
-0.000248846
-0.000623376
-0.00106832
-0.000197584
-0.00263924
0.00308325
-0.000419571
-0.00196219
0.00182008
0.00144697
-8.93973e-05
0.000255607
-0.00229102
0.00161602
0.00211276
0.00141742
0.00229312
-0.00220125
-0.000254762
-0.00266118
0.00294908
-0.00291461
0.00226516
0.000651931
-0.00238245
-0.000645615
0.000289994
-0.000363475
0.00212982
-0.00211825
-3.61678e-05
0.00216337
-0.0009348
-0.00274397
0.000519513
0.00226586
-0.0026886
0.00262889
6.3957e-05
0.00154227
0.000128643
-0.00166968
0.000550879
-0.000945129
0.000394299
0.000119019
-0.000973904
-0.00128392
3.64082e-05
-0.00111803
0.000399452
-0.000327337
0.000414603
-0.00063559
0.000220994
0.0012457
0.000695772
-0.00193997
-0.000330607
-0.000233621
0.000564229
0.00148333
-0.000723865
-0.000759132
0.000114881
0.00121961
-0.000364716
0.00204951
-0.0022816
0.000239622
0.000313297
0.000329626
-0.000642919
0.000520204
-0.000146129
0.00142068
-0.000425295
-0.000611935
-0.00285829
0.000228553
0.0026129
-0.0027163
0.000114737
0.00060184
-0.00121867
-0.00031007
0.000471238
-0.000161168
0.000293292
0.00170697
-0.00199591
-0.00260988
-0.000162767
0.00014921
0.000728604
-0.000348316
0.00108026
-0.000665424
-0.000414778
-0.00218785
7.89789e-05
0.00159821
-0.000884019
0.00105841
-0.000372742
0.00154874
-0.00117415
0.00186098
0.000286576
0.000451661
-0.000593191
0.000351063
-0.00100969
-0.00100751
0.00328059
-0.00226365
-0.000916535
0.00061599
0.000960694
6.16407e-05
0.00141266
-0.000482071
-0.000930692
0.000257773
0.000560679
-0.000389096
0.00213388
-5.21672e-05
-1.05739e-05
0.0025974
-0.000510526
0.00118538
-0.000839793