/*--------------------------------*- C++ -*----------------------------------*\
| =========                 |                                                 |
| \\      /  F ield         | OpenFOAM: The Open Source CFD Toolbox           |
|  \\    /   O peration     | Version:  v2012                                 |
|   \\  /    A nd           | Website:  www.openfoam.com                      |
|    \\/     M anipulation  |                                                 |
\*---------------------------------------------------------------------------*/
FoamFile
{
    version     2.0;
    format      ascii;
    class       volScalarField;
    location    "500";
    object      omega;
}
// * * * * * * * * * * * * * * * * * * * * * * * * * * * * * * * * * * * * * //

dimensions      [0 0 -1 0 0 0 0];


internalField   nonuniform List<scalar> 
9793
(
0.0224429
19.9458
0.0219394
2.57776
0.0222596
0.251127
0.0852256
3.93557
0.0222687
19.8431
0.0221966
0.0221873
0.0219202
2.255
0.0218244
0.0289454
0.0585863
0.0219342
1.79216
0.0215641
0.0216455
0.0222916
2.676
3.99279
2.51643
0.026969
0.0221007
0.0222619
0.0215744
0.0865346
7.1054
0.817854
0.0220147
0.0219483
0.0218735
0.0313982
0.0259216
0.025157
1.31501
0.0332738
0.0741517
7.66888
2.66759
0.0222716
0.0219635
0.0220438
4.87732
0.0222842
0.0217752
0.0219415
0.0310974
0.0218552
0.0423593
0.0222684
0.0337569
2.13119
0.0219292
0.116191
0.0217824
0.0222914
0.0273207
0.0972259
0.0219545
0.0420545
0.0219644
0.0221778
22.2873
0.0250958
0.0266436
1.81827
0.02199
0.104196
3.77592
3.61404
2.28579
0.0222622
0.0466432
7.93616
0.021985
0.0222704
0.0506415
1.68772
0.0570324
0.0242675
0.0266864
0.249939
0.022261
0.0894607
1.32652
0.0932328
1.83015
2.77648
2.74541
0.04369
2.47829
0.0219072
2.54314
0.05464
0.0255172
0.0222684
1.40747
0.0397766
1.9756
0.0219687
1.95608
6.47039
3.85214
0.0218809
0.0219891
0.0222833
0.0222334
2.18984
3.16206
6.88143
0.021967
0.0221137
0.0255117
0.0220522
1.78925
0.0220295
1.76911
0.0955249
3.6056
0.0487196
0.0259694
0.0220349
0.0665722
5.47963
1.32786
1.68766
0.0247571
0.0218075
0.0223326
0.0240177
0.0296805
0.163019
5.52477
0.0255854
0.0222735
0.0683416
1.65758
0.0301307
0.0219489
0.071002
4.95945
0.571662
0.0220353
2.43042
0.021804
0.0220296
0.0220725
12.392
0.0249555
0.0220938
0.0219266
1.96728
0.0629515
0.0219494
1.84121
0.0219238
0.0823765
0.0249084
0.0216525
0.343746
0.0222581
8.74444
2.03975
0.0225307
0.0218821
0.0222172
0.0219667
5.59714
24.3759
1.5719
0.0219136
0.230756
0.136544
0.718869
0.0219705
0.0250423
2.17075
5.79529
0.109444
0.0220367
0.0220741
0.0218755
4.07316
3.77849
19.3576
2.01807
0.0220788
22.7294
0.432498
0.0256437
0.0218318
0.0235239
2.02555
0.0215998
0.0219323
0.0222039
0.0220154
0.0216512
0.0328191
0.0267768
1.5866
0.0219371
0.0299921
0.0225286
0.0224129
0.468396
0.064674
1.70486
0.0216367
1.66235
0.0242728
0.0548817
0.0218351
0.159267
0.0221223
0.0515207
0.0586332
0.0216535
1.54278
1.74395
0.041598
0.0218933
0.0603131
2.02914
0.0506444
0.0515566
1.47289
0.210411
0.0515293
0.0430411
0.377819
0.021623
4.98012
5.8475
0.0216052
0.0222222
7.77734
0.0219092
0.0222312
0.149452
0.163193
0.0221618
0.0251134
0.031382
0.0391492
0.0252835
0.0219762
0.0460644
2.85858
0.0216494
1.64988
0.0222618
0.0221702
0.0216646
2.05784
0.0219796
4.69062
1.62756
0.0221041
0.0221319
7.40921
0.0218789
0.0222395
0.0218368
1.54157
0.270471
0.0252329
0.425338
0.106003
1.97398
4.02951
0.0225582
13.8035
0.0222641
2.16321
7.79219
1.40812
1.7912
0.189782
0.0248139
0.0522117
0.0261799
0.0218757
0.0226818
0.45535
0.0271443
0.0221402
0.0222838
0.0216342
0.0216834
0.0216522
2.5969
0.0218717
0.0218079
0.0218948
0.0219221
4.88719
0.553377
0.0658503
0.0229812
0.0710235
0.0220176
4.28338
8.93831
0.021974
1.79236
0.0392727
0.0219584
30.1121
4.18473
0.0220228
0.0482767
14.3387
0.0221795
0.0344149
0.0218099
0.0222775
2.56082
0.0420578
0.0219577
0.0220238
0.0228391
0.170903
3.18316
0.0219437
0.0218749
0.0217998
6.25257
4.37126
5.50802
0.0216154
0.0445103
0.0352109
1.93844
0.0816255
0.0216219
0.0216888
0.0218003
0.0510063
0.0221119
4.66584
0.0220898
0.0217844
1.88194
2.53092
1.53
0.0217625
1.37821
0.0251121
4.07846
4.36052
1.54651
0.0239329
0.0342703
5.19528
1.7132
2.09951
0.0267258
0.0222633
0.0256598
0.0217355
0.021856
0.0220838
0.0220833
0.022292
5.1835
0.0222064
0.0665936
0.0330474
5.34681
0.0216154
0.0243811
5.57503
0.51162
2.3745
0.0786612
0.0217874
0.0240368
0.0219432
0.436837
0.0215682
1.49598
0.156334
0.0854726
4.72046
2.56481
0.0221377
0.0218928
6.4544
0.390357
0.0219352
4.07227
0.0221318
0.0221758
6.33577
0.021635
0.117293
0.0216339
2.17672
0.022095
0.0222758
1.84031
0.0975777
0.0711384
0.0256576
0.0220758
0.0218402
3.23308
0.0544008
0.0215883
0.0221946
0.035166
0.0350925
0.0705295
5.86636
0.0221955
0.0219449
0.39216
0.0220822
2.46613
0.683915
0.022066
0.0220198
0.022636
0.022117
0.0217835
1.421
0.0519611
10.0051
0.0292559
0.024121
0.0489604
0.0248575
1.66252
0.0265338
0.0222677
0.025136
0.482361
0.0219561
0.0219281
0.0219935
0.021571
0.0219901
0.0218255
0.0220457
0.0221578
0.0230142
0.0261078
0.148881
0.0219869
1.56183
0.0259628
0.206274
4.95936
0.021886
1.95443
0.0838605
0.0218435
0.0215719
0.0219572
2.0814
0.106825
0.0215683
0.0221212
0.0221972
0.0687007
0.151371
7.28466
0.0219776
0.0219277
0.0320705
5.42516
1.39252
0.0238705
0.0240123
1.66464
8.74018
2.22333
0.0222267
0.021796
1.47046
0.0219119
0.13474
5.50528
0.0215761
0.236148
0.0285925
1.38835
0.0218409
1.61612
0.360168
0.0281472
7.5245
0.0219101
1.70838
0.0220958
0.0218892
0.0222228
0.0219494
1.94545
0.021902
0.0217583
0.0229392
0.0216248
0.0217965
0.0480449
0.0229593
0.0409237
0.0220353
0.0220395
4.17397
0.0765518
0.0238135
1.59528
0.0254839
0.0222556
0.0219839
0.0217824
6.83276
0.0217477
0.0220694
6.85509
8.03702
0.0400825
0.0219278
0.022284
0.0222892
0.0222407
1.72205
0.0222391
2.29008
0.0253884
1.95621
0.0222618
14.9566
0.0223236
0.221485
0.0219187
0.130567
4.20561
0.0221043
5.99125
0.0219045
0.0222182
0.0216343
2.70342
1.65707
0.0219645
0.0297005
0.0217432
1.73529
0.0218619
0.0468517
1.49538
0.0254427
0.022027
0.0464494
0.0222451
0.0223667
0.0218188
0.140789
0.0219577
1.69932
0.022053
0.0221369
0.0480506
0.0769772
6.43102
0.0217917
13.2156
0.0218872
0.195728
0.0219221
0.0224661
0.0219073
0.0220508
0.022268
0.209944
0.0518202
5.80107
0.118678
0.0358398
0.0349581
5.00676
0.0244248
1.7226
2.78187
0.254724
12.0185
5.93762
0.17583
0.0223794
3.24802
0.0477139
0.0223281
0.343208
0.0222509
0.448507
0.0368172
0.44772
0.0278961
2.24778
3.46574
0.0447508
0.357998
0.0222159
0.602411
0.0229516
0.021922
0.0220892
0.0243323
0.0501624
1.40639
0.275059
4.21709
0.0240252
0.0236381
1.39774
0.335936
0.0236522
0.0713046
0.0224386
4.73362
1.89296
0.0220603
0.0659503
0.248471
3.48558
0.0219594
0.0261315
3.79317
0.0319007
4.60769
0.130691
5.33099
0.0260766
0.024557
0.0219871
0.021926
4.24872
0.0222841
4.7791
0.14651
0.0829444
0.0222595
0.0222237
0.0244962
0.0222935
0.0218366
0.021912
0.108699
2.18068
2.6631
0.0222796
0.327302
0.0219532
3.38538
0.0570142
0.0479654
0.0347472
0.330974
0.0217513
0.0220633
0.0438689
0.0219113
0.0222279
0.0681685
1.62312
0.0216503
3.38674
1.37144
0.0255499
2.35321
1.37449
0.0218484
0.0595145
0.0300601
0.0220676
0.0216286
0.103161
1.39592
3.63053
0.0219743
0.022018
0.0216754
0.0260858
0.0229929
0.0240786
0.609767
0.0567335
0.0221517
8.83905
0.0329309
0.0340636
0.0221749
17.2162
0.0245844
0.0219202
0.0853145
2.13281
0.0215964
0.0220514
0.0219499
0.0273262
0.0217469
0.0456071
4.60362
0.0222411
0.140292
0.0233629
0.0221043
6.54403
2.27407
5.20502
0.0220774
0.0216128
3.88213
0.0261213
4.84764
0.0215723
0.0219058
6.0861
2.16212
0.0319637
0.130624
0.0644036
0.0218903
0.0222717
0.0220034
2.22418
0.0220575
0.0222928
1.58626
0.0277503
0.317113
0.0332312
0.0219384
2.07353
0.0222679
0.0219156
0.0219892
0.0312007
3.46188
0.0221622
0.0219731
0.0219093
0.0218975
0.0219448
0.0219993
12.3681
0.0322665
0.0229219
0.0221111
0.0322382
0.0670822
0.0288211
0.0288061
0.0222839
0.0216684
0.0236288
2.03462
3.15139
0.0238847
3.68166
0.0222152
0.0256181
1.31637
2.10413
0.0218165
0.0221804
0.368499
0.0602399
0.0219094
0.0222484
1.66227
0.0222681
0.0737433
0.0220151
0.598527
0.0222473
0.0223571
0.0221274
0.0323918
0.0222291
0.0247683
0.0263114
0.172124
0.0218663
0.0220009
0.0222498
0.021884
0.0223339
0.0220984
0.0332665
0.022112
0.0639811
2.6409
0.0472365
0.0709851
0.0222018
0.0218185
6.08627
3.12194
0.0216182
2.2746
6.74102
0.0216196
0.0219688
0.0218802
0.0991909
0.0667273
2.16211
0.02186
0.0257539
0.0218625
0.0223299
0.0223403
0.0875655
0.0223013
0.257858
0.022095
0.0587513
0.0218966
0.0232659
0.021917
0.0480644
0.0617981
5.79103
2.69263
2.12657
0.0552696
0.0219055
2.74973
3.46
0.0770645
0.0221806
0.0220867
2.07954
0.0218728
3.12044
0.0216419
0.0335156
0.0224093
0.0222698
0.0218232
6.80783
2.07344
2.88482
0.0742856
4.82324
0.0219542
1.82754
6.25353
0.0222705
0.0221152
0.0217315
5.84078
0.0215689
3.57423
0.0328802
0.169038
0.02237
0.966742
7.06382
1.77418
0.030047
0.0349442
0.0220412
16.2398
0.0215516
0.665903
0.281988
0.0695038
6.34051
1.88001
0.0247382
0.0237218
0.021951
0.140297
3.89212
4.72297
0.0217462
3.89431
0.0280746
0.162398
0.130548
1.65844
1.79106
0.0216815
0.0263471
0.0346452
0.0253606
0.0248723
3.36389
0.0221968
7.90756
0.021794
0.0216562
0.0821409
0.146121
5.83159
0.0229328
20.4115
13.5712
0.667576
0.0270656
0.0222329
0.0229338
0.0222269
0.0219198
0.875598
4.8421
0.0222995
0.0219228
0.0368202
1.69245
0.0265879
0.0219287
0.436593
0.021942
0.0222749
0.021562
0.0769698
0.0220314
0.0265207
4.41112
0.0665465
0.0223789
4.21639
0.13169
0.0219374
0.0235565
0.0372579
0.0222624
0.0219682
0.0217685
10.7184
4.36905
0.0222755
0.0394099
0.0367768
0.599555
0.0219562
1.88482
0.0218647
0.0217541
0.717356
0.771863
0.0761192
0.0220576
0.0218974
5.2586
1.41713
0.279216
2.74131
0.0221042
0.0246242
0.0220181
7.66109
0.0244504
5.23139
0.0227894
0.0219888
0.0244359
0.021686
0.0218786
0.0649717
0.0217824
1.90082
0.0218371
0.0222221
0.0215837
0.0264643
2.30832
2.7609
0.0661166
4.92711
0.0219838
0.0368613
0.0240004
5.26963
0.0219179
0.021665
2.06092
0.0353572
0.0333041
0.0221128
1.69206
7.28068
1.48843
0.0221706
0.0349924
0.994916
0.0367365
1.39607
0.137016
0.0841006
0.0218026
0.0226346
0.0768371
0.0782222
0.0219909
0.141094
0.0217394
0.0221829
0.022326
0.0217806
0.0219102
0.0219911
0.798296
0.0265147
0.023338
0.0477588
0.021754
0.0219305
0.0399513
1.65097
0.0858543
0.0652286
3.253
0.0222339
5.8913
0.0300276
4.79014
0.0628457
0.0222018
0.0222508
0.0241518
5.98042
1.74132
0.0527169
0.153978
0.0216633
0.0219126
0.0222478
0.022201
6.87542
0.0269268
0.0220744
0.184016
0.318251
3.40512
0.0230637
1.98435
0.0570167
0.0458387
0.0376829
0.465285
0.240805
0.0223347
1.82591
1.70683
0.0395061
1.44551
0.0526476
0.0224211
0.0222638
0.0219166
0.0232898
0.0274528
17.6529
0.0603453
0.021874
0.494012
0.0220061
3.75579
3.40517
0.0219598
25.3964
0.0218332
0.0217809
0.022176
1.95373
13.3239
0.0594468
0.0316878
0.0217699
0.578635
0.0222313
0.0323786
0.0220924
0.0221709
0.0219994
3.09303
0.0229092
0.0427043
0.0297328
0.0222114
0.364805
0.137105
0.0407649
0.0257703
0.0246033
1.4303
1.85516
0.0219949
0.0217796
0.021991
0.0226985
4.94867
10.7444
0.216691
0.0260391
0.0217871
5.07586
4.01377
0.0222782
20.092
0.0217148
0.0922856
11.0436
0.0217451
5.95418
5.10208
0.129432
5.59985
3.40193
0.0218516
0.022769
2.36484
1.37553
0.0226295
4.28415
0.0257508
0.0219092
0.0222738
0.0237712
0.0455538
0.0262548
0.310244
5.69778
0.241399
0.034778
0.0220791
0.0625966
2.26629
0.0217721
3.49092
0.0504424
0.0222197
0.024969
0.0222414
0.0222319
0.032008
2.27877
0.0228233
0.021793
4.44479
1.56322
0.0890762
0.0222611
0.0607365
0.0219313
0.0219331
2.44591
9.51171
0.0219233
0.0214927
1.72128
4.08355
0.0511609
0.0222954
6.06299
0.0231072
0.0219304
0.0247447
0.0219342
0.0216571
0.0216231
6.2588
3.2984
0.0263509
1.74489
0.0539659
1.3979
4.41992
1.39845
0.209367
0.0219439
0.0222384
0.0225605
0.0219939
0.0759271
0.0218842
0.111617
0.0313927
6.20645
0.0220495
1.54072
0.0366724
3.94792
0.0219268
1.7148
0.0343207
0.228322
0.344629
0.0325776
0.0216199
4.54186
0.0626835
1.80062
0.0216133
3.24434
0.02203
3.7567
0.472056
0.0440102
0.0219249
0.022089
1.59952
6.30367
0.036713
0.0215919
5.48836
0.0872177
0.0511458
2.44408
0.0816036
0.0219335
2.63093
0.0219208
0.0387657
0.0216446
9.63632
0.0216523
0.024311
0.617493
3.88241
0.0222218
0.0725157
0.0255751
0.0789781
0.0218825
0.330837
0.0235511
0.0649186
0.0219481
0.0219869
1.88183
0.0317715
3.72318
3.21949
5.54506
0.0228209
0.0216691
0.0217805
0.0269258
0.0417477
0.0345168
5.58487
0.0241171
4.74073
0.0429103
0.022281
0.0219853
0.088319
2.65971
8.18679
0.0219117
1.54262
0.0218656
2.96612
1.52233
0.0553185
0.0219974
0.021755
0.04619
2.54433
0.0248845
0.0222685
0.0246468
0.0509602
0.0233826
1.35128
1.75212
3.87203
0.0221563
0.0278532
7.20525
0.0221866
0.0635249
0.0218385
0.781165
0.0373227
0.0219515
0.0443781
0.186441
0.0220553
2.01109
0.0219181
0.166241
0.246103
2.76991
0.334903
0.0221665
0.0222363
17.5418
0.0222002
0.0409286
0.105602
0.0241191
0.0215417
7.60898
0.025046
0.414945
0.0240221
0.0672249
0.0226458
0.432395
0.0255288
0.0255252
1.87901
1.09203
0.0220911
0.0222729
0.163049
1.43838
1.90864
0.72357
0.0334163
0.0219271
0.0218068
1.39839
0.0221387
3.24128
0.10159
2.80975
0.022107
0.021721
0.0217964
0.04728
0.0591223
3.66175
1.58997
1.25127
0.546158
0.021605
2.38999
0.0232655
0.0832041
0.0233641
0.0440494
0.0618682
0.0219286
0.0215766
0.082451
0.0216406
0.0411211
0.0715451
2.90752
2.38761
0.0468935
1.36123
0.0217684
0.021662
0.0220748
0.19996
0.062215
0.05007
0.11653
8.27699
0.0403406
0.151883
0.021846
0.0221595
13.0406
0.0220012
0.284302
0.0214724
0.0218631
2.94935
0.327194
0.0218656
0.0867888
0.518685
1.90595
2.34531
0.0256894
0.0896868
0.0612342
8.8403
0.0221153
2.82768
4.56256
0.0238602
0.0280332
0.021618
0.490438
0.0217953
0.0219848
1.94673
0.0223129
0.0215735
0.209743
0.0777852
1.46225
1.49553
3.38515
2.00432
0.0216484
0.0219119
0.0218693
0.022205
6.88602
0.0221467
1.6888
0.0232405
3.72536
0.0246769
0.0221489
0.0216824
0.0222702
0.0309214
0.0221688
0.0215305
1.64737
0.0218223
0.0657243
0.0225395
6.42444
0.0246891
0.022079
0.0220545
0.0602046
0.0219091
0.0217635
0.0220905
0.0222146
0.0256361
0.0218568
0.0237216
0.0320673
2.56728
3.98874
4.04665
2.28713
0.0217702
0.022006
0.0219275
0.0214354
0.0219346
0.0217378
1.90507
0.0218609
0.0222516
0.0220695
0.0220455
0.0220043
4.57717
0.025152
0.0219746
17.3727
0.0523802
0.0217129
5.70978
6.13575
0.0220218
0.436014
0.656936
0.0220956
0.0469168
0.0241275
0.0215593
0.0280741
0.0220857
0.0505095
0.0220134
0.0222471
0.0217489
17.673
0.0320497
0.0462848
0.0220331
0.0222651
3.45005
0.0260318
0.0220379
0.0243226
0.0248394
0.0222518
0.242073
10.4327
1.55235
2.0114
0.227218
0.0383088
0.0222597
11.9066
0.16691
0.0229422
0.0677316
0.0222931
0.0219008
0.0222461
3.35088
0.0473826
0.0220014
0.0220446
0.224392
0.0217327
0.420778
0.0219665
1.76664
0.291889
5.46828
0.0220801
0.0233433
0.0323187
0.0363592
0.0223705
0.0398687
0.0876836
5.87662
0.0220374
0.541943
5.49284
0.0215783
1.37624
0.0444497
0.369158
0.11049
0.021922
0.0285702
0.0471383
0.0216858
0.0261383
0.021546
4.30141
2.21749
0.0333099
0.02183
0.156382
0.0762831
2.7895
0.275055
0.0236703
0.031231
0.0219499
0.0219335
0.0472812
0.0532412
17.73
0.0218182
0.487745
0.0227022
7.0053
0.188342
1.67096
0.0216011
0.0230525
1.99805
1.74904
0.0440158
2.40365
0.0233694
0.219293
0.0219158
0.0218571
2.56196
5.06715
0.0261572
0.0220952
0.0762095
2.13413
0.192564
0.0672414
0.0217751
0.0220168
0.0217178
2.36063
4.28225
0.0217705
0.0539322
2.20861
0.0813629
0.275072
1.59264
5.12611
1.91108
0.021791
0.0232062
1.4163
0.021893
0.050064
1.51173
6.94061
0.0235255
0.0306899
5.0768
0.667851
1.96385
3.16367
1.34019
1.47385
0.0221118
0.0216223
0.0219918
0.0229319
22.0377
0.0558828
0.375513
0.445497
0.057444
0.0220325
4.06736
0.0217357
0.0347118
0.0219242
0.0415235
6.34576
4.68301
0.0220716
0.0216097
0.048151
3.90365
0.190038
5.10296
0.0457126
0.0221147
0.0835898
0.0214708
0.0978147
0.0324684
0.0219146
3.89032
0.178499
0.553513
0.0603405
0.0223405
0.0215966
9.11319
0.0254818
0.021626
0.0221453
0.0222558
0.0216836
5.06684
8.27764
1.74597
1.38525
4.77998
0.0249295
0.0219454
3.34243
0.0254844
0.126492
4.14621
0.021869
3.48982
2.53169
0.0644397
0.034331
0.862243
0.0233309
1.8268
0.0392597
2.06765
0.0218239
0.0230551
0.0418689
3.33915
0.124013
0.0694218
4.28997
2.00464
0.0734809
0.196648
3.22749
0.0249123
0.397505
11.2712
0.0370455
0.0636603
1.89447
0.0377109
0.0376834
0.0221047
0.0419059
0.0458825
0.0590641
0.0220903
5.42764
0.165956
1.91732
4.67747
1.92081
0.0406141
1.56765
5.27357
0.0218491
3.99424
2.48571
7.37493
0.0285598
0.0243917
2.28736
9.09979
0.0216214
0.235959
0.0217543
0.0219116
4.27078
0.0256104
2.20405
1.72245
1.47667
6.265
0.0216217
0.0404491
0.0220063
0.0218462
0.118761
0.0654381
0.0284142
2.72964
1.7498
0.0222729
0.0280322
1.32321
0.0241673
0.381788
0.0486951
1.33598
1.33268
0.892878
5.35315
6.51581
1.77444
1.35573
1.49115
0.0359675
0.0254627
0.117455
0.119451
2.19205
6.35959
0.0221323
0.022765
4.30188
2.29245
0.0261237
4.20025
0.0219338
0.863815
2.70817
3.31703
0.0219254
1.74675
1.43633
0.0274829
0.0356045
3.75156
3.31601
4.38755
2.46022
0.0220303
9.72133
1.52485
0.0413389
0.219716
0.109074
0.0217361
0.0281503
3.49775
1.49395
0.0254041
0.0221715
2.04177
0.0901544
1.57812
0.0788391
1.99283
1.3969
0.0219927
8.05174
0.0222852
0.0351406
0.0220883
0.0218623
0.0217049
0.0389558
0.276772
0.0214969
14.5721
0.0977805
8.45476
5.2838
1.93699
0.0219114
2.59128
1.57002
1.9087
0.0353069
0.0219283
5.45841
0.382211
1.43607
0.0562783
0.0235737
0.0216878
7.76832
4.80467
0.0341717
13.604
0.0313872
0.0222357
1.48957
0.0551279
18.1243
0.021977
0.0334432
1.6229
4.18282
1.34507
1.23584
1.32646
1.60373
8.72143
0.0220505
6.9786
0.0487971
0.0218401
0.0215636
0.0219298
4.66219
0.0503394
1.33676
1.39222
0.0450291
0.163312
0.112815
2.37396
0.286446
4.07512
4.22912
1.30153
0.0875225
0.0216644
5.49518
0.0574334
0.147095
1.43703
1.60288
1.67319
0.0220949
0.0248186
0.0486148
0.022061
0.0220443
0.0290795
1.36784
0.0320893
0.0267393
1.45342
0.100081
1.42219
4.26649
1.45301
0.431304
1.41204
4.18765
2.05754
0.0638669
0.034469
0.0221299
1.3218
0.111042
0.274308
0.0642105
0.061692
0.0214548
0.205936
3.93106
0.0288818
0.021586
0.023641
8.90368
0.0218773
0.022028
0.0664034
1.44991
0.0320143
0.0558324
0.173966
0.0308986
0.0736847
0.0218697
0.0219858
0.0435242
0.345291
0.0222843
0.0326091
0.275702
4.45828
0.0221467
7.66882
0.0219084
1.41281
0.0233546
0.0235476
0.0215547
0.188316
0.041483
5.07339
8.82943
0.0687372
0.0221621
0.0220652
3.03116
8.37625
0.0218861
0.240447
1.43385
0.0563102
0.0784719
0.021434
0.0228085
0.0219263
1.51311
0.0455446
0.0220525
4.40274
0.0224372
0.0586741
0.532266
0.0217377
0.09871
0.0644078
16.0042
0.0224623
0.0264705
0.0235209
0.0580304
0.0214102
0.0219074
3.71241
0.318187
0.0816656
0.0219257
1.36929
0.0224255
0.0224404
0.0219592
0.514792
4.36001
0.0243061
5.89945
4.85414
0.0677987
2.9484
8.92599
4.15959
8.55149
0.0661271
0.0829417
0.225457
0.0513143
0.0219523
0.0304943
0.0333931
4.89388
0.0220812
1.82922
0.0219799
0.424086
0.0953901
0.023029
0.0231529
11.0614
10.2706
5.51136
1.55301
0.0218142
0.0911658
3.79355
0.0277598
8.25216
0.0416121
0.110016
1.33768
0.0404229
0.0219953
0.128343
0.153932
0.0219205
1.41316
0.99674
0.0217107
0.0222391
0.0221213
0.0220119
4.69782
0.0221165
0.0510112
0.0220272
0.0226084
0.0327267
0.0219421
1.58934
0.092244
0.0222114
0.0216322
0.119025
0.02389
0.056726
5.66275
4.15736
0.055278
0.288359
0.0411146
0.0215958
0.156076
6.79233
0.039107
1.36403
4.59971
0.0765933
0.0403969
0.0309935
0.0721329
0.0387095
3.95132
0.0221145
0.0222397
0.0218799
1.50764
9.18943
0.036619
0.137623
0.0219371
0.0289406
0.152862
0.367163
0.0219201
0.0619343
1.34574
0.0898854
0.0219928
0.0219347
17.6634
5.07094
0.0219367
0.633314
0.0352867
0.240039
3.84408
0.0218631
2.99693
0.0326567
0.0220258
3.329
0.230568
0.0219237
0.0221624
0.407136
0.0217831
0.0220442
0.258188
0.0426541
0.0465372
5.23919
0.026264
0.0527382
1.33435
0.0218662
6.5163
3.79513
0.0261237
0.0777708
0.22304
0.0219829
0.186671
0.0214719
2.34652
1.47942
0.0220066
6.94367
4.16205
0.0219463
0.0219456
0.558246
0.0470457
1.71992
1.58363
0.0220957
0.0460816
4.40038
0.0230228
0.0583967
0.0893584
0.0344469
3.64043
0.328143
0.0239636
0.2587
8.98667
0.0463022
2.9394
0.0219143
0.021552
0.0222673
0.0429221
2.96826
0.0220661
0.0397335
13.4605
2.29812
0.0222175
0.0308899
1.89745
1.543
0.0222245
6.29457
0.0369777
0.0918445
0.0386409
0.0233064
0.027142
0.021968
0.0219642
4.07172
0.0219355
0.0528225
0.0219854
2.5531
0.023951
0.0247565
0.0215926
0.0244514
0.0219862
0.0446582
4.69445
5.17115
0.0397124
0.0430757
0.0219691
0.0319735
0.0568125
1.9224
4.26741
0.0218335
1.58058
0.0220255
2.52419
1.45848
4.4605
0.0218303
0.106676
0.0854324
4.20708
0.229875
0.0218511
1.90779
0.326728
0.0382605
4.53638
0.0223662
0.0220103
0.0400747
2.06407
0.0219292
4.94177
0.0344687
3.04631
0.0907299
0.0225076
2.16763
0.0288121
0.022125
0.871467
0.0219807
2.74951
7.50333
0.2015
0.027809
0.158013
0.021938
0.106272
0.0470129
7.68839
0.0220316
0.0216399
0.0274734
0.0307127
0.0504351
1.82201
3.52822
0.0362535
0.236033
0.0218113
3.25507
7.37198
0.180549
0.0219247
0.02226
0.0236916
3.07843
0.0220759
0.0280636
2.57218
0.104786
0.0219951
0.266043
0.0952781
0.0219909
0.0256916
0.122656
1.5551
0.0713285
0.045309
1.40476
1.61785
5.17446
0.0271828
0.022134
0.024853
0.02479
0.143462
0.0627203
0.0299634
0.093976
2.92541
0.0241845
0.0219975
4.26239
0.295026
1.95402
0.250392
0.0262184
0.0238103
0.0238232
0.0217744
0.0218912
0.0504995
0.0215583
0.0229896
0.0220733
0.023105
0.0237719
0.0219503
0.0391597
0.0441034
0.0222155
0.0219379
0.0221197
0.0227875
0.022367
0.27806
0.022058
0.0235103
1.35332
0.0217205
0.0234193
0.0222745
0.0293248
4.28336
6.57227
2.4984
1.83743
2.09354
0.292644
0.0218752
0.0623663
0.0220425
4.05815
0.0236509
0.0298714
0.022196
0.060091
0.0219627
0.0339321
0.0217868
3.04426
0.171498
0.02208
2.28023
1.96952
0.0223189
0.125871
0.0219537
0.0216016
6.62581
0.0222619
0.0693396
0.20374
0.0221055
0.0215613
0.0777452
1.44886
0.0251618
0.0240311
1.57161
0.0219464
3.34525
0.0550375
11.015
0.021674
1.48278
0.0219242
0.0222111
0.401746
0.0654637
1.7828
1.60699
6.15602
3.33051
0.4951
0.13936
0.0220472
0.206488
0.0221488
0.0218236
0.095843
0.0219111
0.0219857
0.0216091
0.0216131
0.0713307
3.58863
1.45979
0.37517
1.58513
0.0241629
0.0306319
0.0232345
0.0228553
0.0881847
0.0220663
0.0217848
0.0218152
0.0243251
0.0232321
0.19045
0.113273
0.0493294
0.0221101
0.055105
0.0565757
1.54747
4.44124
0.025516
0.0444196
0.0220891
9.57502
2.24666
0.0219224
0.0219361
0.0249593
0.0222129
4.87128
0.677373
3.82921
0.0221351
3.19481
0.0221351
2.59462
0.0552814
0.0218137
0.029053
4.73629
0.0271561
0.0289446
0.0335414
0.0878243
2.62579
0.0218261
0.0219179
0.0283576
0.665185
0.0218681
1.7973
3.5422
0.0219664
0.0214284
5.60616
0.0842117
0.0219256
4.25199
13.4565
2.35066
3.83928
0.0303706
1.9188
0.0220729
4.0408
3.62527
0.747653
0.0840136
0.0242621
4.41424
0.0254231
0.0218703
0.0214534
1.8028
0.0216373
7.72433
0.022993
0.0221879
0.0252312
1.38749
0.0242915
0.0229753
0.022074
6.5719
4.05754
9.2384
1.47226
0.0512344
0.0219307
0.0242304
3.11099
0.113209
0.0219905
0.0607055
1.17001
4.24638
0.0220262
4.48023
4.02231
0.0458722
0.0220636
0.0242723
0.0219546
0.0217702
0.0219421
0.0220349
0.0223352
0.0995768
0.0220973
0.162295
0.0226236
0.0228117
4.54992
0.0898043
0.0239943
0.0229385
2.08221
0.0215673
0.0229202
0.0266459
0.0218181
5.17679
0.0353577
0.0228918
0.0448553
0.0219984
0.0289528
0.0218905
0.179674
0.0218237
0.0219123
4.32921
0.0242202
0.278205
0.0364038
0.0238414
0.109198
0.0214137
0.02209
0.0227451
3.76126
0.0246223
0.0219238
2.00443
0.0220153
0.0216263
0.0218867
0.775204
0.0324704
0.165192
0.0338518
0.0310271
0.0504293
0.0242579
0.027749
0.0480611
2.13514
0.0222779
0.0291404
0.0218245
0.243382
0.261475
0.021907
0.0321032
3.61487
0.0301182
0.0215549
4.65505
0.0263874
0.0817956
2.35196
0.0311684
0.0219024
0.0305367
0.0219239
0.0251314
0.0219078
0.0235349
0.0264592
0.0219717
0.0220686
0.0321387
0.0221696
0.0995882
0.021972
0.0238153
0.0219403
0.0330828
1.50096
0.0221321
0.0220875
0.0992195
0.0236622
0.0219827
4.32477
3.32108
3.00429
0.0220735
0.0249326
0.0415074
0.0222446
0.0221262
0.0376896
0.179866
0.021536
0.0534553
0.0219809
0.0218921
0.0217938
0.0215288
0.0232393
0.0456843
0.037821
0.028852
1.41096
0.0247968
0.0285669
0.0217435
2.90341
4.23773
2.80873
0.0220483
0.0508871
0.0292175
0.0220239
0.022121
0.0418443
1.35166
2.32874
0.022042
0.0299791
4.00953
0.0228115
0.206749
7.90727
1.38366
0.0325599
0.0220016
0.0412986
0.051995
0.471731
8.73137
5.85708
1.36412
0.0230025
0.0221738
0.0219345
0.113021
0.0219806
0.0216903
0.0431017
0.0219162
0.0219395
0.0218804
0.052538
0.0220413
0.0217799
0.0219757
2.29898
0.0215547
0.0220394
0.0221081
0.0229413
0.0219409
0.0731957
0.0890193
6.47425
0.0216046
0.0288981
0.153804
4.69636
2.08684
0.022271
0.0222751
0.0532576
0.0985029
0.0262837
0.397068
0.0219339
4.07838
0.022278
1.36726
0.0229849
0.0219255
0.0551929
0.0219525
0.0221159
0.0228821
0.639727
0.0248882
0.0224867
0.0221782
0.021972
0.045873
0.022073
0.0219201
0.027128
0.101506
0.0249321
0.0219525
1.34402
3.74881
0.0220157
5.08957
0.0221437
0.0336155
0.0787915
0.279716
0.0237464
0.023142
0.0220846
0.263289
0.0293457
0.0223626
0.0219064
0.0234233
0.854429
0.0222348
0.0409665
0.0243224
0.035216
0.0510141
0.0430877
0.0883276
3.65852
0.0254081
0.0220414
6.16564
0.999045
0.0219334
0.0214923
0.0220637
0.0219811
0.0219192
0.0242901
0.0216764
0.0220789
8.56256
1.48353
0.0373007
0.0219482
1.8155
0.0243431
0.0217011
5.08634
0.0245736
0.0216621
0.0220945
0.0220394
0.0441535
0.0220962
0.0555026
0.0219265
0.021784
0.0219614
0.0357508
0.0403961
0.0218962
0.0716231
1.42545
0.0232305
0.0218948
0.0620138
0.0217326
0.0220445
0.0218642
0.0343899
0.0220542
3.93119
0.0223631
0.26108
3.10807
0.0582448
0.0239738
0.0224629
0.0220717
0.0219414
0.0304443
0.19327
0.127137
0.0218129
0.0239119
4.06677
0.0216062
0.166142
0.0219684
0.023709
0.0323157
0.06203
0.0219594
0.039728
0.0284809
0.0590479
1.53234
3.62739
0.0219702
0.0219294
0.032873
0.0231933
0.0227491
0.0534224
0.0231132
0.138841
0.0217849
0.0711082
0.0221062
0.0806334
0.0590004
1.37448
4.56132
0.0219246
0.0432699
0.815858
0.235818
0.0216037
0.0218488
0.144631
0.0219454
0.02202
0.0217469
0.021519
0.0713552
0.0984854
18.0761
0.0220222
0.0552966
0.0222549
0.0215939
0.023307
1.76387
0.473061
0.0219251
0.022138
0.021843
5.83952
0.0220325
0.0219466
0.0224973
0.0219621
0.0436195
0.0218368
1.65531
0.0219894
0.0229482
0.0225721
0.0219118
0.0217591
0.0220108
10.0706
0.0217848
0.0219553
0.278971
0.0219588
0.0220437
0.022113
0.0221561
0.0583232
0.0219142
0.0219779
2.40047
0.024337
0.0220393
0.0222818
0.0215406
1.3118
0.0230386
0.0222338
0.02191
0.0277166
0.0219722
7.99597
0.0217976
0.0220143
3.67626
0.0219784
0.0650368
0.0222031
0.021418
0.0215207
0.0308508
0.0383807
0.0218565
0.022286
0.025017
0.0219101
0.0221107
0.0221096
0.0219754
0.0218165
0.0219011
4.66097
0.0219618
0.0218414
1.41802
0.0219528
0.0285132
0.134862
1.56615
0.0218207
0.0220806
0.0219622
0.0216405
0.0230065
0.0416218
0.024063
0.0449445
0.0217817
0.0272529
0.0220304
0.0214789
0.0309226
0.0605193
0.0237162
0.0322227
0.0220281
0.0219617
0.0221202
1.47694
0.024239
0.0220149
2.80276
0.0234252
2.32918
0.022064
0.021935
0.0217504
1.75393
0.0219845
0.0254935
0.023461
0.0220727
0.0219686
0.0220884
0.022123
0.0253621
0.021909
0.0391738
0.0222476
0.0444737
0.0215155
0.0216358
0.0248591
4.81365
0.0221488
0.0220495
0.0226361
0.0219356
0.0251203
3.01196
0.0227944
0.0274523
1.98068
5.51291
0.0227526
0.0231361
0.339105
0.123126
0.0237675
0.0221159
0.0219871
3.83053
0.0230004
4.2577
0.0217274
0.0215415
0.0221046
0.0220153
0.0232622
0.021587
0.0219888
0.022265
0.0782398
0.0238646
0.0228876
0.0216379
0.353987
0.0840837
0.0215191
0.0221041
0.0235227
0.022239
0.0220595
0.0215997
1.68413
0.0216156
0.021945
0.0675904
0.0215874
1.39594
0.0218251
0.0544053
0.0298619
0.0219713
0.0215495
0.0219255
0.022342
0.0220438
0.0218441
0.0216262
6.16446
1.68239
1.70538
0.0216172
8.25594
0.0220001
0.0723452
0.0219244
0.0219276
0.0221101
3.83163
0.0219504
0.0219106
0.0221268
0.0219977
4.64636
0.0219402
1.44739
0.0214541
0.0228138
1.55115
4.0048
0.0219839
0.0219599
0.0287152
0.0220199
0.143757
0.0217548
2.34236
0.021778
0.036946
0.0221395
0.0218198
0.0219456
0.0219854
0.0232458
0.0218875
0.0354745
0.042264
0.11822
0.0217981
8.71168
0.0218977
9.84734
0.0219143
5.64166
2.8382
0.0217518
0.0219126
0.0216101
0.02189
0.0220443
0.0221629
0.0215957
0.0228202
0.0214474
0.0918166
0.0221105
1.47997
0.0215855
0.0215452
0.0219292
0.0219266
0.0230671
8.27878
0.023569
2.63375
0.021567
0.0221197
0.042284
0.0215859
0.174679
0.0237651
0.021933
0.0423067
0.0215097
0.021973
0.0226009
0.0217608
0.0291927
0.0425521
0.0216469
0.0221125
0.0220463
3.99051
0.0235288
0.0216113
4.07304
0.0668247
0.0216345
0.02192
0.1736
0.0232886
0.0214464
4.07155
0.220341
0.0233011
0.0214533
0.0222396
0.0369522
0.0215712
0.19308
0.0216246
0.0217124
0.0488627
0.0563745
0.0216172
0.0216303
0.0215264
0.0217565
0.0217683
0.041657
0.0219731
0.0217818
0.0221114
0.0218601
1.69051
0.0222722
8.09174
0.0283538
0.030472
0.0221421
1.41754
0.0219836
2.40342
0.0215542
0.021962
0.465813
0.0219748
0.0230635
0.0216609
0.0252328
0.0217383
0.0294327
0.0215936
2.21241
0.0222035
0.0215995
0.0215456
0.0215776
0.105922
0.0217915
2.21951
0.0219184
0.0252789
0.0215038
0.0220204
2.08764
0.0220025
0.107879
0.0218199
0.0233226
0.0221731
0.0221336
0.0226067
0.0219291
0.0219857
0.24691
0.0215749
0.0219495
0.0226006
0.0220591
0.022056
0.0364599
0.0219598
0.0219192
0.0218551
0.0216358
0.0217658
0.0219998
10.7271
0.187381
5.47437
0.0214426
0.0244389
0.0221267
0.0282534
0.121764
0.245984
0.0357797
0.021577
0.0219807
0.0220785
0.0221443
0.0221157
0.0219135
7.58908
0.0528842
0.0219309
1.39564
0.0221375
5.21152
0.0219654
0.0218935
0.0218073
0.0215894
0.0214873
0.0219298
0.0216644
0.0218138
0.0424379
0.0230719
0.0219239
1.37778
0.0215686
0.0231461
0.0219901
0.0216308
0.0219367
0.291383
0.0218036
4.25347
0.0219201
0.0216143
0.0367272
0.0218972
0.0299156
0.104732
0.0217028