/*--------------------------------*- C++ -*----------------------------------*\
| =========                 |                                                 |
| \\      /  F ield         | OpenFOAM: The Open Source CFD Toolbox           |
|  \\    /   O peration     | Version:  v2012                                 |
|   \\  /    A nd           | Website:  www.openfoam.com                      |
|    \\/     M anipulation  |                                                 |
\*---------------------------------------------------------------------------*/
FoamFile
{
    version     2.0;
    format      ascii;
    class       surfaceVectorField;
    location    "500";
    object      Uf_0;
}
// * * * * * * * * * * * * * * * * * * * * * * * * * * * * * * * * * * * * * //

dimensions      [0 1 -1 0 0 0 0];


internalField   nonuniform List<vector> 
14470
(
(0.958911 -0.0130176 7.7538e-21)
(0.95699 -0.0126158 -5.36253e-21)
(0.958527 -0.0109057 9.07237e-21)
(-0.259233 -0.0104907 0)
(-0.269545 -0.00904284 0)
(0.991105 -0.00674031 -1.08282e-20)
(0.991401 -0.00720668 -7.86467e-21)
(0.990761 -0.00743345 -2.58238e-20)
(-0.0338961 0.165911 -5.7105e-20)
(-0.0292148 0.169981 -3.50342e-21)
(-0.0304418 0.174366 7.90192e-21)
(0.999945 3.17088e-05 4.49416e-21)
(0.99994 6.9706e-05 -8.1078e-21)
(0.999902 5.99312e-05 -1.16751e-22)
(1.20523 -0.150104 -2.69441e-20)
(1.21112 -0.152848 1.85171e-20)
(1.20467 -0.15516 -4.72531e-20)
(1.05089 -0.258994 -1.01764e-21)
(1.05797 -0.251709 -3.92645e-21)
(1.06345 -0.262103 6.40105e-21)
(-0.106523 0.0477641 0)
(-0.102051 0.0480412 -4.43498e-20)
(-0.124765 0.0477441 0)
(1.01969 -0.0451181 8.64811e-22)
(1.02109 -0.0464011 -3.51207e-21)
(1.01894 -0.0469818 -1.73166e-21)
(0.999887 -0.00129374 0)
(0.999893 -0.00114407 -4.96525e-21)
(0.999911 -0.00117771 -6.69368e-22)
(0.999845 -0.00140317 -6.16181e-21)
(0.999878 -0.00146123 0)
(1.00187 -0.0109653 1.04525e-20)
(1.00176 -0.0104427 -1.67346e-21)
(1.00149 -0.010755 4.22563e-21)
(0.0415343 0.0482968 -5.27999e-20)
(0.00993225 0.0573134 -5.49783e-20)
(0.0154794 0.0504936 5.12046e-20)
(1.02125 -0.0282734 -2.23983e-21)
(1.02077 -0.0271139 2.39895e-22)
(1.02227 -0.0274435 0)
(1.09614 -0.00970055 0)
(1.09962 -0.00944523 0)
(1.09716 -0.00650441 -1.09797e-20)
(1.12828 -0.129238 -7.40859e-23)
(1.13246 -0.134162 -2.11635e-21)
(1.12619 -0.135761 -1.13026e-20)
(0.993187 -0.00950663 5.50723e-21)
(0.993088 -0.0100273 -7.39626e-21)
(0.993617 -0.00975862 1.29202e-20)
(-0.0767822 -0.00864561 -5.97728e-21)
(-0.0735444 -0.00385663 3.99163e-20)
(-0.0716436 -0.011384 2.89975e-20)
(1.02036 -0.00605392 1.08538e-21)
(1.02028 -0.0055721 0)
(1.02076 -0.00582653 -1.63264e-24)
(1.02705 -0.0121772 8.86737e-22)
(1.02795 -0.0119411 -5.1139e-22)
(1.02698 -0.0113908 -5.23535e-22)
(0.999992 -3.6126e-06 0)
(0.999991 -1.21579e-05 -4.72962e-21)
(-0.0352033 0.198277 -2.24616e-20)
(-0.0337792 0.209935 -3.12898e-21)
(-0.0295664 0.205573 4.08454e-20)
(-0.0902896 0.0445714 0)
(-0.117041 0.0463605 0)
(0.0710823 0.0440245 0)
(0.0788908 0.0374764 1.19814e-19)
(0.908056 -0.0508543 -3.38862e-20)
(0.913369 -0.0502271 -8.662e-21)
(0.909735 -0.0450976 -8.00687e-21)
(0.999553 -0.00329267 0)
(0.999606 -0.00357389 -3.42451e-21)
(0.99964 -0.00319434 0)
(1.00001 -0.000295822 -3.92292e-21)
(1.00001 -0.000336937 8.72145e-21)
(1.00003 -0.000424765 6.40915e-21)
(1.02003 -0.00620003 -6.83594e-24)
(1.02048 -0.00647633 2.94406e-21)
(1.1146 -0.196046 2.58695e-20)
(1.12173 -0.197064 -9.85414e-21)
(1.11686 -0.203723 -3.33474e-21)
(-0.217713 0.0112745 0)
(-0.219205 0.0110987 -3.85112e-20)
(-0.237851 0.0111804 -6.78155e-20)
(1.25116 -0.183674 1.95596e-20)
(1.23477 -0.178775 -3.22976e-20)
(1.23903 -0.187702 -1.0025e-21)
(0.995935 -0.00383019 -1.79124e-22)
(0.995804 -0.00351835 -8.70702e-21)
(0.995565 -0.00405794 4.18547e-21)
(0.996275 -0.00991878 0)
(0.996011 -0.0104134 0)
(0.996423 -0.0104815 5.42e-21)
(1.00628 -0.000749526 -8.60247e-23)
(1.00595 -0.000741858 -8.92349e-23)
(1.00572 -0.000427319 -3.4089e-21)
(1.09845 -0.0615539 9.27294e-21)
(1.0958 -0.0634481 -1.04853e-21)
(1.09912 -0.064681 7.30624e-21)
(1.08638 -0.0143286 7.47554e-21)
(1.08446 -0.0163842 -8.41019e-22)
(1.08311 -0.013966 -1.69408e-21)
(0.914257 0.0135194 3.71634e-20)
(0.910954 0.0157452 -2.29758e-20)
(0.910708 0.0106869 3.30783e-21)
(-0.139761 0.0597342 2.80266e-20)
(-0.133546 0.0630702 -3.17709e-20)
(-0.137296 0.054928 8.3917e-21)
(1.07331 -0.108646 1.00431e-20)
(1.07039 -0.105155 5.12682e-22)
(1.07529 -0.104436 -7.16145e-22)
(1.10652 -0.195284 -5.76204e-23)
(1.11118 -0.189257 1.61852e-20)
(0.462094 -0.0179981 -2.58994e-20)
(0.463699 -0.0212284 -1.77103e-20)
(0.340047 -0.00402721 -2.14205e-20)
(-0.0925722 -0.00366648 -1.18191e-22)
(-0.0907265 0.00273468 -2.89654e-20)
(-0.100476 -0.00130033 2.71181e-20)
(1 -0.000190513 -7.29174e-21)
(1.00001 -0.000281097 -4.9059e-21)
(0.991993 -0.000348531 -9.52293e-21)
(0.991504 -0.000617444 5.32752e-21)
(0.991596 -4.20771e-06 -5.05953e-21)
(0.996097 0.000343201 0)
(0.996395 0.00028332 0)
(0.996386 0.000649652 4.21953e-21)
(-0.146006 0.0322656 7.47519e-21)
(-0.151369 0.0334775 -1.50406e-21)
(-0.151698 0.0382072 1.29243e-21)
(0.999987 -0.000182015 -4.60937e-21)
(0.999998 -8.94137e-05 3.75916e-21)
(1 -9.39338e-05 3.20762e-22)
(1.03827 -0.00999053 -1.0328e-21)
(1.03772 -0.00902257 -7.1206e-22)
(1.03916 -0.00926326 -1.50566e-21)
(0.993311 -0.00882752 1.10316e-22)
(0.992732 -0.00916138 3.95833e-21)
(1.10237 -0.0594976 -1.01109e-20)
(1.09828 -0.0578574 0)
(1.00658 -0.00104099 0)
(1.00664 -0.000699825 0)
(1.11033 -0.0933167 0)
(1.11215 -0.0978649 0)
(1.11492 -0.0924702 -1.56841e-20)
(0.999971 -0.000273624 -4.46226e-21)
(0.999963 -0.000262135 5.16306e-21)
(0.877807 -0.105183 -4.24402e-20)
(0.887175 -0.104838 -2.53525e-20)
(0.883212 -0.114342 -2.79107e-20)
(-0.0398472 0.156071 0)
(-0.0405252 0.160866 0)
(1.00212 -0.00999822 -8.91696e-22)
(1.00199 -0.00951545 -1.34706e-20)
(1.00234 -0.00975102 -3.57599e-21)
(1.19778 -0.0854741 7.56979e-22)
(1.20166 -0.0818435 -2.37485e-20)
(1.19644 -0.0800247 2.27207e-20)
(1.03745 -0.0105043 -2.34449e-22)
(1.03876 -0.0108216 8.35101e-22)
(0.999997 -8.70317e-05 4.16461e-21)
(0.896379 -0.00628451 5.45128e-21)
(0.891207 -0.00441089 1.88393e-20)
(0.896251 -0.000543833 5.2408e-20)
(0.785835 -0.28939 -1.02543e-20)
(0.801811 -0.29969 9.22411e-21)
(0.777156 -0.317117 1.1704e-20)
(0.992874 -0.00739814 -8.53924e-23)
(0.992587 -0.00698268 6.96524e-21)
(0.993171 -0.00681776 6.40477e-21)
(1.1342 -0.0359338 2.35084e-20)
(1.13029 -0.0391174 2.44609e-20)
(1.13011 -0.0338671 7.53689e-21)
(1.00291 -0.00148429 7.82819e-23)
(1.00312 -0.00139407 -2.06179e-21)
(1.00315 -0.00168485 -4.9662e-22)
(1.01833 -0.0437601 -1.90124e-21)
(1.02018 -0.0434163 -2.72661e-21)
(-0.125045 0.0225315 5.43867e-20)
(-0.112608 0.0224566 1.30921e-20)
(1.05769 -0.0651591 -5.30997e-21)
(1.05486 -0.0645152 -2.10335e-21)
(1.05588 -0.0677166 -2.90311e-21)
(1.08826 -0.0122128 8.30569e-21)
(1.08966 -0.00969273 -1.98153e-21)
(1.08643 -0.00951838 6.88895e-21)
(-0.0723299 -0.00421317 2.49028e-20)
(-0.0664047 -0.00393568 -2.00041e-20)
(-0.0593378 -0.0053211 -1.58195e-20)
(0.976723 -0.00959687 0)
(0.975493 -0.009124 0)
(0.976735 -0.0084726 -2.62106e-21)
(0.597055 0.069784 -6.94896e-20)
(0.578366 0.0845675 2.9286e-20)
(0.574955 0.0567754 8.82079e-21)
(-0.135417 0.04709 0)
(-0.119597 0.0481138 4.88795e-20)
(-0.133357 0.045531 0)
(0.366209 -0.0213146 5.72456e-22)
(0.254477 -0.0417073 -5.84796e-20)
(0.318719 -0.0278547 -2.97263e-20)
(-0.0352665 -0.00559788 8.91251e-21)
(-0.0603328 -0.00392862 -2.6618e-20)
(-0.0404574 -0.00520218 -1.42701e-20)
(0.999984 -0.000384043 0)
(0.999979 -0.000408133 -4.54705e-21)
(0.999987 -0.000530914 0)
(0.774243 -0.106591 -5.9854e-20)
(0.787473 -0.114751 1.66931e-20)
(0.786885 -0.0991827 6.65469e-20)
(0.435303 -0.022177 -3.30184e-20)
(0.298623 -0.00323474 1.49927e-20)
(0.317284 -0.00695644 -3.81311e-20)
(0.993931 -0.00357212 0)
(0.993662 -0.0040167 0)
(0.99412 -0.00387546 -5.91595e-21)
(0.999954 -9.7467e-05 -4.7762e-21)
(0.999958 -0.000122754 1.70813e-22)
(0.999981 -7.62064e-05 -5.07524e-21)
(0.763249 -0.111936 2.52212e-20)
(0.763128 -0.0953417 -2.82421e-20)
(-0.0801224 -0.0134104 8.30394e-21)
(-0.0814603 -0.00748147 2.11028e-20)
(1.12462 -0.125482 0)
(1.1302 -0.123896 0)
(0.966969 -0.0719466 7.0124e-21)
(0.969938 -0.074138 -7.14537e-22)
(0.970966 -0.0704751 3.16187e-21)
(1.08969 -0.0147528 1.54693e-21)
(1.17856 -0.237288 1.4556e-20)
(1.17272 -0.240964 4.8475e-20)
(1.17418 -0.232477 2.26816e-20)
(0.99995 -6.89987e-05 4.52996e-21)
(0.99992 -0.000113716 5.27861e-21)
(1.19358 -0.0382985 -4.68272e-20)
(1.18767 -0.0380186 1.32489e-20)
(1.19116 -0.0328326 -2.2058e-20)
(-0.145739 0.0569187 2.61466e-20)
(-0.140745 0.0643928 -2.16695e-20)
(0.783683 -0.269936 4.8478e-20)
(0.760907 -0.286219 5.92859e-20)
(-0.0420737 0.171376 -1.39268e-20)
(-0.0391171 0.178809 -3.45511e-20)
(-0.0428255 0.169445 3.26986e-20)
(1.23865 -0.280756 1.20237e-19)
(1.24996 -0.273587 -2.21906e-20)
(1.20998 -0.264297 8.86386e-20)
(1.23312 -0.28969 -2.36002e-21)
(1.23632 -0.285666 -2.89619e-21)
(1.05977 -0.153863 5.02638e-21)
(1.06364 -0.161232 -6.307e-23)
(1.06691 -0.153934 1.1194e-20)
(-0.0929517 -0.0110695 -1.75092e-20)
(-0.0845482 -0.00622046 2.63992e-20)
(0.994461 -0.0135022 -5.01203e-21)
(0.994602 -0.0141451 1.33178e-21)
(0.995033 -0.0135775 -4.91931e-21)
(-0.0297216 -0.00327605 -3.55682e-20)
(-0.00226487 -0.00599311 2.92503e-20)
(1.11496 -0.147182 -1.37918e-20)
(1.10927 -0.147662 1.2581e-20)
(1.11201 -0.142215 2.25734e-20)
(1.03507 -0.082491 5.48823e-22)
(1.03775 -0.0845207 4.49304e-22)
(1.03429 -0.0859007 3.19947e-22)
(0.999979 8.78862e-06 4.13745e-21)
(0.999945 -3.96267e-06 3.92747e-21)
(-0.0902884 0.101244 8.12906e-20)
(-0.0912534 0.0974885 1.03205e-19)
(-0.0810158 0.102463 6.34831e-20)
(1.10596 -0.0944962 -1.35371e-20)
(1.10795 -0.0897683 0)
(-0.143415 -0.148506 1.4757e-20)
(-0.146655 -0.163211 4.48122e-20)
(-0.131266 -0.165708 3.96036e-20)
(0.99246 7.16182e-06 -7.05487e-21)
(0.992435 -0.000559063 -3.53638e-22)
(-0.101143 -0.00369201 -2.11052e-20)
(-0.124419 -0.00304131 -3.6507e-20)
(-0.109177 -0.00277586 -2.59869e-21)
(0.203632 0.0146152 1.19574e-19)
(0.13721 0.0241888 -1.35783e-20)
(0.121778 0.025753 2.90193e-20)
(0.512587 -0.00502249 2.28798e-20)
(0.432312 -0.0129556 6.28541e-21)
(1.005 -0.00836703 5.6419e-22)
(1.00493 -0.00871539 -6.57475e-23)
(1.00464 -0.00834522 4.58427e-21)
(0.99372 -0.00325693 7.89913e-22)
(0.994198 -0.0031276 0)
(0.999994 1.0915e-05 0)
(1.00004 -0.000665831 3.11466e-21)
(1.00005 -0.000655635 -1.47357e-22)
(1.00006 -0.000796701 -2.6048e-21)
(-0.0370528 0.187306 -1.04406e-19)
(-0.0381383 0.189155 9.92113e-21)
(0.116247 -0.059877 1.45372e-21)
(0.0823412 -0.0660431 -9.13494e-20)
(0.0826588 -0.0273805 1.11158e-19)
(-0.213831 0.00569705 7.64051e-21)
(-0.215936 0.00578382 5.29942e-20)
(-0.234148 0.00671001 3.26972e-20)
(0.977911 -0.00986978 7.9646e-21)
(0.976861 -0.0105322 -6.8155e-21)
(0.998764 -0.00165274 6.79251e-21)
(0.998715 -0.00195619 8.77367e-21)
(0.998598 -0.00184279 -4.91718e-21)
(1.0789 0.00455871 -4.377e-21)
(1.07677 0.00602708 -7.11161e-21)
(1.07983 0.00765954 5.99535e-21)
(0.996456 -0.000343855 3.22331e-22)
(0.996711 -0.00034059 3.38428e-22)
(0.996476 -0.000662694 -3.90921e-21)
(-0.046224 0.146942 -5.8307e-20)
(-0.0520357 0.143015 -1.96024e-20)
(-0.0520024 0.138133 -1.11046e-19)
(0.995867 0.00089667 -3.93161e-22)
(0.995726 0.000565059 2.99086e-21)
(0.995536 0.000794858 4.48346e-21)
(-0.140911 0.000276015 -2.27301e-20)
(-0.144105 -0.00206001 -3.86873e-22)
(-0.159237 0.00355539 4.50504e-20)
(1.20001 -0.0395694 7.30787e-21)
(1.19586 -0.0449797 -3.80822e-20)
(0.0852179 -0.00416909 -3.63508e-20)
(0.045137 -0.00721772 -9.43791e-23)
(0.0583 -0.00450878 -9.77712e-20)
(1.1349 -0.0839574 1.71228e-20)
(1.13889 -0.0813682 1.8443e-21)
(1.13458 -0.0789319 3.90116e-20)
(1.08245 -0.0188898 -5.05557e-21)
(1.08602 -0.0194165 9.33966e-21)
(0.995905 0.00123998 2.43984e-22)
(0.996156 0.00104338 -5.70056e-21)
(1.12617 -0.146045 -3.09987e-21)
(1.13256 -0.146463 -3.0523e-22)
(1.1287 -0.152601 1.88759e-20)
(-0.218122 0.0120987 0)
(-0.198331 0.0121018 3.43428e-20)
(1.27137 -0.0273704 2.26378e-20)
(1.27085 -0.0287991 -3.20579e-20)
(1.26991 -0.0360232 3.53522e-20)
(1.23786 -0.0203401 -2.91014e-20)
(1.27176 -0.0149434 -1.40614e-20)
(1.0725 -0.0393576 -2.66768e-21)
(1.07301 -0.0366438 6.00446e-21)
(1.07046 -0.0377798 9.13038e-22)
(1.00674 -0.0173884 6.63245e-22)
(1.00736 -0.0173773 5.36649e-21)
(1.00684 -0.0167961 9.52367e-22)
(0.961096 -0.0130227 -2.70594e-20)
(0.95966 -0.014743 1.00799e-20)
(1.0527 -0.0589168 0)
(1.05008 -0.058645 0)
(1.0516 -0.0564074 -7.91759e-22)
(1.09242 -0.0636396 -1.04908e-20)
(1.09001 -0.0609585 0)
(1.08847 -0.0644002 8.0329e-21)
(1.11752 -0.271976 2.53007e-20)
(1.10844 -0.274897 -2.11251e-20)
(1.11747 -0.283419 -5.05053e-20)
(1.15914 -0.124181 0)
(1.11011 -0.105514 0)
(1.19842 -0.130588 2.73202e-20)
(1.08145 0.00353756 -8.55302e-21)
(1.07816 0.00190827 3.16238e-21)
(0.999993 -0.00037813 -5.35773e-21)
(0.999992 -0.000245935 0)
(1.14347 -0.129666 1.18299e-21)
(1.14804 -0.129253 -1.0909e-20)
(1.1456 -0.134236 7.92803e-21)
(-0.0827977 -0.0150636 2.05479e-20)
(-0.0816266 -0.015214 7.08001e-21)
(-0.0833916 -0.0112302 -2.14793e-20)
(1.09387 -0.0666198 -8.63965e-21)
(0.980921 -0.0190901 -5.12358e-21)
(0.981146 -0.0204982 3.07928e-21)
(0.982202 -0.0194083 -6.00771e-21)
(1.17359 -0.0411336 -2.36745e-20)
(1.17677 -0.0368027 -7.62584e-22)
(1.17137 -0.0363215 5.48345e-21)
(-0.141393 0.0303617 4.32219e-20)
(-0.136135 0.0274696 0)
(-0.143832 0.0333157 -3.55683e-20)
(1.0453 -0.430572 4.14726e-20)
(1.03242 -0.431763 -1.53478e-20)
(1.0351 -0.446804 8.73225e-21)
(0.995973 0.00154553 1.41588e-21)
(0.996256 0.00168713 -9.88081e-21)
(-0.0233364 -0.0014162 -1.81442e-21)
(-0.0402341 -0.00229671 -2.00016e-20)
(1.0062 -0.0174677 -3.79918e-22)
(1.00671 -0.0179997 1.6159e-21)
(0.995651 0.00143876 7.85185e-21)
(0.998567 -0.00396685 4.97044e-21)
(0.998723 -0.00373816 5.23153e-21)
(0.998615 -0.00351247 4.5909e-22)
(0.0466369 -0.036154 -1.30815e-20)
(0.230312 -0.0809711 -8.53059e-20)
(0.112643 -0.0480824 -2.62337e-20)
(1.03213 -0.0801737 -3.07489e-22)
(1.03541 -0.0789966 -3.11917e-22)
(0.999519 -0.00311001 5.44688e-21)
(0.999467 -0.00341778 4.45298e-21)
(0.984283 -0.00192215 0)
(0.984467 -0.00268411 -2.58998e-22)
(0.983634 -0.00248878 -6.39559e-21)
(1.23203 -0.301346 3.26624e-20)
(1.23386 -0.30672 8.24915e-20)
(1.2342 -0.313517 5.45399e-20)
(1.13805 -0.13132 1.5412e-20)
(1.13639 -0.138416 -1.36453e-20)
(0.993168 -0.0078351 3.5041e-22)
(0.992588 -0.00804445 -5.28091e-21)
(1.25251 -0.180594 1.76362e-20)
(1.25142 -0.185815 8.8896e-20)
(0.981798 -0.0109089 6.9809e-21)
(0.982749 -0.0106752 1.09839e-20)
(0.982542 -0.0117167 -7.95633e-21)
(1.18218 -0.0375559 2.84384e-20)
(1.18463 -0.042932 2.15136e-20)
(1.07472 -0.0409778 2.2174e-22)
(1.07202 -0.0419565 -6.48977e-21)
(1.02723 -0.0128543 1.10254e-21)
(1.02639 -0.012403 1.52119e-21)
(0.554925 -0.353351 0)
(0.563733 -0.382296 0)
(0.528063 -0.372248 4.04424e-20)
(1.04761 -0.0229621 -2.04279e-21)
(1.04749 -0.0244728 -1.90887e-21)
(1.04592 -0.0236125 -1.33773e-21)
(0.559285 -0.0441929 -3.06511e-20)
(0.588645 -0.0544207 -1.91271e-20)
(-0.139005 -0.180088 -6.53107e-20)
(-0.115196 -0.192749 1.2161e-20)
(-0.116826 -0.199409 -5.06799e-20)
(1.05029 -0.0286073 -5.29354e-21)
(1.04965 -0.030359 -1.72078e-21)
(1.04812 -0.0289973 -1.71134e-21)
(1.00505 -0.00800624 -3.31138e-22)
(1.00506 -0.00765605 6.43201e-21)
(1.00473 -0.00766646 4.06146e-21)
(0.9999 -0.000996069 -8.43609e-22)
(0.999923 -0.000876366 4.25604e-21)
(0.999914 -0.000840123 -1.09984e-21)
(0.980624 -0.018187 3.99267e-21)
(0.979619 -0.0190466 0)
(-0.180076 -0.00162876 -2.62137e-20)
(-0.16001 -0.00414951 8.47771e-20)
(-0.186245 0.000116158 3.95854e-21)
(0.503759 -0.263955 8.70553e-20)
(0.320425 -0.1823 4.26274e-20)
(0.205266 -0.132788 -1.44665e-20)
(-0.200837 0.0218781 0)
(-0.192192 0.0286012 -3.12206e-20)
(-0.200244 0.0253277 2.26321e-20)
(1.00185 -0.0115807 4.83193e-21)
(1.00223 -0.011251 -1.23906e-20)
(1.20161 -0.148313 4.42369e-20)
(1.20522 -0.144987 -1.92999e-22)
(0.948222 -0.357751 2.43244e-21)
(0.964356 -0.34852 1.99735e-21)
(0.948328 -0.339843 -4.68408e-21)
(0.538688 -0.455755 -1.17572e-19)
(0.501324 -0.488138 -6.32748e-20)
(0.502745 -0.428232 8.06508e-21)
(0.993359 -0.00450939 0)
(0.993603 -0.00486104 3.77005e-22)
(0.993046 -0.00501425 0)
(1.06126 -0.0604648 4.35381e-21)
(1.05935 -0.062866 -2.17633e-21)
(1.05847 -0.0595031 1.21055e-21)
(-0.0699177 -0.00584199 0)
(-0.0871133 -0.00633355 5.8882e-20)
(-0.123618 0.0257457 4.01892e-20)
(1.20371 -0.0359185 2.4068e-20)
(1.20596 -0.0420126 2.49037e-20)
(0.995868 -3.95123e-06 7.90444e-23)
(0.99584 0.000342123 2.56944e-21)
(0.997128 0.000189752 -8.6802e-21)
(0.997331 0.000441973 2.14588e-22)
(0.997347 0.000167021 -8.6989e-21)
(1.00537 -0.00835005 -6.56878e-21)
(0.143006 -0.00427501 -2.23359e-21)
(0.125165 -0.00452738 -3.52765e-20)
(-0.138107 0.0474985 0)
(-0.147189 0.0454507 -3.83825e-20)
(0.757244 -0.365412 -2.67474e-20)
(0.888414 -0.44405 4.54992e-20)
(-0.125698 -0.131143 -4.87663e-20)
(-0.154073 -0.132311 4.46225e-21)
(1.01724 -0.0424163 -1.84358e-21)
(1.01617 -0.0410029 0)
(1.01793 -0.0407393 -7.73958e-23)
(-0.148955 0.314844 -9.44131e-20)
(-0.062424 0.354756 5.10177e-20)
(-0.192775 0.359215 4.58207e-20)
(0.391543 -0.0854024 -3.93332e-20)
(0.36899 -0.0989822 -3.9418e-20)
(0.397609 -0.111142 -5.19987e-20)
(0.906781 -0.0120504 -1.12839e-20)
(0.90544 -0.0080665 -6.60471e-21)
(0.910093 -0.00867855 1.14205e-20)
(1.04195 -0.00606065 -7.92186e-23)
(1.04129 -0.00692679 -1.95456e-21)
(1.0406 -0.00599297 -2.01307e-21)
(0.951768 -0.049939 1.29039e-20)
(0.954341 -0.0481752 1.29726e-20)
(0.951365 -0.0464798 0)
(0.196673 0.166243 0)
(0.162364 0.160367 0)
(0.187279 0.127546 0)
(1.01739 -0.00601992 1.06307e-21)
(1.01786 -0.00614668 -1.34935e-21)
(1.01757 -0.00638401 1.30897e-22)
(0.992738 -0.010439 -1.07297e-20)
(0.993205 -0.0105817 -6.32278e-21)
(0.99961 -0.000309862 -6.79636e-21)
(0.999635 -0.000385598 2.28716e-21)
(0.9997 -0.000284829 4.33877e-23)
(0.974245 -0.0091633 -7.67053e-21)
(0.972868 -0.00928674 4.18251e-24)
(0.973803 -0.0104554 -7.58926e-21)
(1.02999 -0.0110859 1.74959e-22)
(1.03049 -0.0106873 3.29286e-22)
(1.02971 -0.0103046 1.64649e-22)
(1.10472 -0.054047 0)
(1.10522 -0.0578766 -9.54993e-21)
(1.1087 -0.0559194 0)
(1.08461 -0.035592 -1.46684e-21)
(1.0869 -0.0376762 -6.4911e-21)
(1.08712 -0.0344148 -4.39479e-21)
(-0.0783605 0.0670573 8.21268e-21)
(-0.0703521 0.0748624 1.38068e-20)
(-0.0695888 0.0647432 8.87605e-20)
(0.980985 -0.000394007 -1.08071e-21)
(0.980093 -0.000908232 1.33464e-20)
(0.981102 -0.00132019 8.63723e-21)
(1.06724 -0.0971724 3.38816e-21)
(1.06592 -0.0937035 -4.41689e-22)
(1.06327 -0.0967128 2.24319e-21)
(1.05073 -0.0270134 2.30359e-21)
(1.05217 -0.0282741 -4.50538e-21)
(0.963373 -0.0275045 -1.69512e-20)
(0.963942 -0.0251783 -1.35474e-20)
(0.96554 -0.0271296 0)
(0.756765 -0.48892 -1.18458e-20)
(0.721448 -0.491086 8.22836e-22)
(0.7465 -0.529467 8.98057e-21)
(1.13995 -0.126412 7.52182e-21)
(-0.082189 -0.0138724 1.68889e-20)
(-0.0828881 -0.0173772 -5.1309e-20)
(1.01575 -0.00588945 1.02113e-21)
(1.01556 -0.00559751 2.29036e-21)
(1.01529 -0.00581409 -2.52592e-23)
(-0.0816517 -0.00343948 1.35489e-22)
(-0.0753251 -0.00565082 1.15369e-20)
(0.964289 -0.0694363 1.45162e-20)
(0.962878 -0.0730837 3.74353e-21)
(1.1411 0.0307791 9.18781e-21)
(1.146 0.033111 -1.4475e-20)
(1.14079 0.0359895 3.36478e-22)
(1.02044 -0.0290244 -1.93513e-21)
(1.02191 -0.0292083 1.42512e-21)
(1.12711 -0.269837 -1.69532e-20)
(1.1198 -0.262782 2.01784e-20)
(0.998905 -0.00151737 3.96816e-21)
(0.998833 -0.00141299 -2.83831e-21)
(0.729691 -0.0299919 6.42728e-20)
(0.740666 -0.0204178 -2.38522e-20)
(0.722684 -0.0144201 -6.13799e-20)
(1.12003 -0.146333 -3.71387e-20)
(1.11743 -0.152146 -5.40576e-20)
(1.02942 -0.0114376 3.13761e-23)
(1.03034 -0.0117867 3.42556e-22)
(0.343472 0.512521 3.29356e-20)
(0.394237 0.492146 1.2602e-21)
(0.390076 0.54795 -5.18668e-20)
(-0.204034 -0.00345467 -3.8684e-20)
(-0.215412 -0.00942499 2.97954e-20)
(-0.202101 -0.012686 -2.00726e-20)
(1.05508 -0.155447 -1.02938e-21)
(1.05678 -0.149764 9.28584e-21)
(0.993971 -0.0159786 -7.66093e-21)
(0.9938 -0.0152368 -5.06867e-21)
(0.993208 -0.0159069 -2.13833e-22)
(1.15307 -0.0844322 -1.25671e-20)
(1.14865 -0.0862303 -5.78897e-21)
(1.15294 -0.0899344 -5.00102e-21)
(-0.156949 -0.0739067 -4.74488e-20)
(-0.170366 -0.0597812 1.9957e-20)
(-0.188429 -0.0662895 6.26315e-20)
(0.742089 -0.057317 2.3618e-20)
(0.735077 -0.043218 2.84463e-20)
(0.752075 -0.0488933 -1.26662e-20)
(0.729346 -0.065305 5.99458e-20)
(0.745706 -0.0694536 8.14488e-20)
(-0.0751337 0.100474 -3.59936e-20)
(-0.082351 0.0974519 -2.79204e-20)
(-0.0757631 0.106783 -1.81354e-20)
(1.23401 -0.0366188 -5.81198e-21)
(1.23457 -0.0304165 -5.67733e-21)
(1.24996 -0.037069 -3.30351e-20)
(1.14061 0.0254398 -8.7807e-21)
(1.13628 0.0288007 -1.69979e-20)
(1.13769 -0.0340063 1.156e-20)
(1.13769 -0.0388411 2.34241e-21)
(0.41079 -0.0679258 -1.19427e-19)
(0.380997 -0.0582194 1.36685e-20)
(1.03345 -0.00478289 2.64721e-21)
(1.03389 -0.00415326 1.41413e-22)
(1.03296 -0.00408921 1.35743e-21)
(-0.112545 0.233066 -5.57337e-20)
(-0.193024 0.00477244 -4.69993e-20)
(-0.212988 0.00569404 -5.79026e-20)
(1.01698 -0.00591012 1.13468e-21)
(1.01727 -0.0057138 6.66085e-23)
(0.999736 -5.333e-05 1.05472e-20)
(0.999724 1.90249e-05 1.73975e-23)
(0.999802 7.32591e-07 1.05032e-20)
(0.448471 -0.0138432 3.143e-21)
(0.592581 -0.0303971 0)
(0.985567 -0.0140404 -4.45887e-21)
(0.986422 -0.0146148 6.38272e-21)
(0.985361 -0.0152345 1.9338e-20)
(1.00003 -0.000589465 2.38445e-22)
(1.00003 -0.000709111 -7.28778e-22)
(1.21288 -0.0725254 8.48229e-22)
(1.21338 -0.0777833 -2.96983e-20)
(1.20902 -0.0745853 2.57725e-20)
(1.21388 -0.0826209 -4.56236e-21)
(1.21119 -0.085662 2.7222e-20)
(1.21424 -0.0880304 -7.72737e-21)
(1.01653 -0.0439921 3.61854e-21)
(1.06289 -0.0585848 1.3674e-21)
(1.06368 -0.0619643 4.78766e-21)
(1.06872 -0.100716 7.92538e-21)
(1.07131 -0.0970477 6.07055e-21)
(0.923829 -0.168945 -1.1962e-20)
(0.916639 -0.160436 1.25364e-20)
(0.913627 -0.171394 2.37686e-20)
(1.06874 -0.0548586 2.08104e-21)
(1.06691 -0.0528796 -5.22231e-21)
(1.06952 -0.052177 -3.84351e-21)
(0.993091 -0.00418657 0)
(1.02849 -0.190634 -2.94588e-21)
(1.03344 -0.186691 1.07864e-21)
(1.02654 -0.183818 -1.0549e-22)
(-0.0363211 0.0794983 4.12842e-21)
(-0.0278891 0.0782667 9.19775e-20)
(-0.0359632 0.0699669 7.89362e-20)
(1.02866 -0.0117387 -9.64738e-23)
(1.02848 -0.0109124 -3.85641e-22)
(-0.20451 0.0112846 1.62163e-20)
(-0.202771 0.0171721 0)
(-0.190031 0.0179397 0)
(0.999955 -0.000363705 1.38663e-22)
(0.999973 -0.00027023 -4.08791e-21)
(0.999801 -0.00174568 -2.4788e-22)
(0.999815 -0.00154026 -1.5658e-21)
(0.999749 -0.00172043 1.10575e-20)
(1.01362 -0.000986611 8.86747e-22)
(1.0134 -0.00121887 -2.08317e-21)
(1.0138 -0.00122234 7.11999e-22)
(-0.039205 0.150345 1.61644e-20)
(0.993427 0.00142676 3.37914e-21)
(0.993001 0.00120187 6.55871e-22)
(0.993368 0.000983826 -5.84163e-21)
(1.21981 -0.293952 -4.41728e-20)
(1.18917 -0.296078 -9.62872e-20)
(-0.100209 0.00442618 -6.61595e-21)
(-0.0905764 0.00168674 -4.52224e-21)
(-0.103181 0.00457802 2.4004e-20)
(1.00039 -0.00261393 -5.17883e-22)
(1.00034 -0.00264597 -4.03355e-21)
(1.00044 -0.00284538 -1.35269e-21)
(0.999058 -0.00138614 5.96201e-21)
(0.998986 -0.0016324 1.27223e-20)
(1.05015 -0.191591 0)
(1.13474 -0.202488 0)
(1.1872 -0.217966 0)
(1.01311 -0.000604621 -1.45037e-21)
(1.01364 -0.000612233 1.0249e-21)
(0.999895 -0.0002526 3.73677e-22)
(0.999899 -0.00029823 1.96638e-21)
(0.999852 -0.000342715 -4.83322e-21)
(1.01473 -0.00072129 -1.55649e-21)
(1.01444 -0.000746591 -1.5245e-21)
(1.01342 -0.000453597 -3.39938e-21)
(-0.10029 0.00468879 6.41274e-20)
(-0.107945 0.00675132 9.59483e-21)
(0.57148 -0.329496 -2.73191e-20)
(0.538597 -0.317978 0)
(0.921773 -0.0461545 5.1643e-21)
(0.925802 -0.0440289 7.1934e-21)
(0.92563 -0.0488433 1.85281e-20)
(0.821502 -0.481704 1.94742e-20)
(0.832497 -0.452534 9.9012e-22)
(0.853782 -0.474862 0)
(1.1941 -0.0887409 -1.02872e-20)
(1.19042 -0.0921357 2.82788e-20)
(1.18892 -0.0868551 3.28483e-20)
(-0.158544 -0.16026 -7.30892e-20)
(-0.0504961 0.251617 0)
(-0.0379462 0.250831 -6.27828e-20)
(-0.0488397 0.230129 -3.93363e-20)
(1.04924 -0.0322206 6.81954e-22)
(1.05151 -0.0317515 1.57323e-21)
(-0.0723411 -0.0613166 -2.86626e-20)
(-0.0366375 -0.0748052 1.24185e-19)
(-0.103687 -0.0676152 6.68513e-22)
(0.999988 -0.000294007 4.07167e-21)
(0.999961 -0.000395867 -4.24364e-21)
(0.999976 -0.00026676 -3.40853e-21)
(-0.110617 -0.0790921 6.29452e-22)
(-0.141969 -0.0889625 -1.8482e-20)
(0.427805 -0.921505 1.9485e-21)
(0.1925 -0.896432 -1.45279e-21)
(0.423572 -1.03061 2.96379e-21)
(-0.149658 0.0638764 -2.63664e-20)
(-0.15813 0.0580409 2.09365e-20)
(-0.154103 0.0609857 -1.13123e-20)
(-0.142611 0.00316547 -2.73824e-21)
(1.22679 -0.0365708 -4.21643e-20)
(1.23373 -0.0417903 1.7165e-20)
(1.07326 -0.0341153 0)
(1.07546 -0.0355129 0)
(1.12115 -0.121534 -2.10888e-20)
(1.11926 -0.126636 0)
(1.08212 -0.0372515 1.21774e-20)
(1.08231 -0.0339414 8.7007e-21)
(1.04265 -0.0051658 3.89929e-21)
(1.04311 -0.00409748 -6.98934e-22)
(1.04171 -0.00416932 2.13945e-21)
(1.05514 -0.0224187 -9.27083e-22)
(1.05699 -0.0227708 -2.74037e-21)
(1.05613 -0.0206613 -4.85203e-21)
(0.792822 -0.485041 5.80644e-21)
(0.768844 -0.459326 -1.77611e-20)
(0.906204 -0.0558087 -7.90032e-21)
(0.903439 -0.0501305 -3.82332e-20)
(0.999099 -0.00117677 -4.36079e-21)
(0.999166 -0.00125676 0)
(1.00001 -0.000125916 -3.52028e-21)
(1 -6.07611e-05 -4.2551e-21)
(1 -6.55612e-05 -4.14969e-21)
(1.01617 -0.00601756 1.45006e-21)
(1.01588 -0.00623305 -6.63079e-22)
(1.01906 -0.000144043 0)
(1.01889 -0.000222318 0)
(1.01935 -0.000257459 1.33177e-22)
(1.02885 -0.0124435 3.90894e-23)
(-0.0508332 0.206658 1.00031e-19)
(-0.0504539 0.213933 2.1052e-20)
(-0.0462674 0.203851 3.32748e-20)
(1.00482 -0.00989882 -8.18853e-22)
(1.00519 -0.00988067 4.42832e-21)
(1.00483 -0.00949041 4.2686e-22)
(1.01966 -0.0266756 2.09122e-21)
(1.01868 -0.026102 -1.97816e-22)
(1.01861 -0.0273426 1.7713e-21)
(1.0188 -0.000222747 6.93832e-23)
(1.01874 -0.00024614 2.6047e-22)
(1.01928 -0.000194626 -1.07737e-21)
(1.00193 -0.0102222 -8.76213e-23)
(1.00229 -0.0104733 -4.24709e-22)
(-0.0263022 0.0332877 1.58885e-20)
(-0.0241648 0.0434059 3.61589e-20)
(-0.0146619 0.0413513 3.60049e-20)
(1.05499 -0.415687 2.10611e-20)
(1.06146 -0.434961 3.95071e-20)
(0.690528 0.1129 1.97056e-20)
(0.69299 0.0971791 2.14621e-20)
(0.673414 0.101947 2.73167e-20)
(0.944258 -0.00796457 -2.34514e-20)
(0.942413 -0.00957891 4.92214e-21)
(0.941907 -0.00633781 1.81225e-20)
(1.17609 -0.0461698 -5.05601e-22)
(1.17075 -0.0451665 -1.03921e-20)
(1.0168 -7.48731e-05 1.13864e-22)
(0.654731 0.0122395 0)
(0.811111 0.0238441 0)
(0.741371 0.0225114 0)
(-0.0348492 -0.0107363 9.65177e-20)
(0.0148132 -0.0219639 1.14561e-19)
(0.992518 0.000504257 1.36483e-22)
(0.992903 0.00028868 -1.26014e-20)
(-0.0764782 -0.001904 -4.00145e-20)
(-0.0745077 -0.00086487 -4.31585e-20)
(1.1276 -0.0420818 1.22305e-20)
(1.12422 -0.0451124 -3.07232e-20)
(1.12337 -0.0401987 -1.83778e-20)
(0.991321 -0.00112089 6.80501e-21)
(0.990961 -0.00081689 6.89905e-21)
(-0.23891 -0.0116751 0)
(0.575227 0.000116064 2.21801e-20)
(0.996059 -0.00411051 5.24598e-23)
(0.996249 -0.00361753 6.33242e-22)
(1.022 -0.195076 8.63682e-22)
(1.0306 -0.198243 -5.10447e-21)
(0.287982 0.455102 -1.95902e-19)
(0.36277 1.19256 6.96264e-20)
(0.969115 -0.025163 1.19658e-21)
(0.970788 -0.026052 8.84477e-21)
(0.970748 -0.0241128 5.61166e-21)
(0.828988 0.0452064 2.97532e-20)
(0.835804 0.0401387 2.58519e-20)
(0.828089 0.0365188 6.51473e-20)
(1.02062 -0.0258198 -4.362e-23)
(0.964415 -0.0231582 -1.36463e-20)
(0.966177 -0.0226253 -5.20118e-21)
(0.964659 -0.0211047 -9.91895e-21)
(-0.0298582 -0.105025 -7.42038e-20)
(-0.0568588 -0.0888129 -2.31239e-21)
(0.0102766 -0.0973428 -4.07895e-21)
(0.869467 -0.166887 -1.65222e-20)
(0.876488 -0.158292 -1.72663e-20)
(0.863307 -0.156691 4.35027e-20)
(0.996588 -0.00946126 -5.6846e-21)
(0.996219 -0.00936596 4.22995e-21)
(0.995321 -0.000315449 3.01451e-22)
(0.995612 -0.000342847 -4.80864e-24)
(0.995335 -0.000676141 5.48329e-21)
(0.946237 -0.00602971 -4.83594e-21)
(0.946736 -0.00924629 -1.98213e-20)
(1.01365 -0.366904 -8.91784e-23)
(0.997518 -0.36295 -1.09076e-21)
(1.00885 -0.350933 2.16287e-21)
(0.0782156 -0.121571 2.70023e-20)
(0.110019 -0.137111 0)
(0.0831904 -0.165516 1.08742e-19)
(0.990779 -0.00630953 1.56159e-20)
(0.991458 -0.00617918 2.74771e-21)
(1.00524 -0.00905653 -4.91979e-21)
(1.00489 -0.00906301 -8.96318e-21)
(1.03296 -0.0193149 3.48324e-22)
(1.03326 -0.0183464 5.53003e-22)
(1.03404 -0.0195409 -1.09852e-21)
(-0.198695 0.00172376 -9.51428e-20)
(-0.17679 -0.00333435 6.44407e-20)
(-0.066323 -0.0340177 -3.08554e-20)
(-0.0778018 -0.0393033 -3.16576e-20)
(-0.0610125 -0.00677443 -4.38505e-20)
(-0.0132167 -0.00979451 -1.49488e-22)
(-0.0399137 -0.00850306 0)
(1.03292 -0.00535025 1.00998e-21)
(1.03239 -0.00584345 3.4288e-22)
(1.032 -0.00519144 -8.02256e-23)
(0.876965 -0.176724 0)
(0.861659 -0.176909 1.34001e-20)
(0.83123 0.0544408 4.31298e-20)
(0.822081 0.052019 -2.26856e-20)
(0.789106 -0.635083 1.3987e-21)
(0.746501 -0.653727 -2.85552e-21)
(0.796156 -0.685361 1.40308e-21)
(1.17412 -0.0935865 9.408e-21)
(1.17818 -0.0926521 2.08215e-20)
(1.17741 -0.0976013 1.80481e-20)
(1.03401 -0.0010577 -5.34302e-22)
(1.03463 -0.00160859 -2.24608e-21)
(1.03361 -0.00165061 -3.89374e-22)
(1.03636 -0.00354037 8.71231e-24)
(1.03587 -0.00424416 -7.49967e-23)
(1.03695 -0.00429633 -7.28824e-23)
(1.03261 -0.020296 -8.20735e-23)
(1.03186 -0.019116 6.69532e-23)
(1.1178 -0.117715 -1.79379e-21)
(1.12289 -0.116448 -8.58736e-21)
(0.984977 -0.0364026 9.0479e-23)
(0.986195 -0.0378202 -2.95216e-21)
(0.984223 -0.0382427 -2.75153e-21)
(-0.00830277 -0.00470343 -1.04352e-20)
(-0.0230743 -0.000432849 -1.90083e-20)
(-0.0488552 0.00205345 -8.35988e-20)
(0.998004 -0.00137272 0)
(0.997868 -0.00124775 -2.47084e-21)
(0.997843 -0.00160977 0)
(1.00912 -0.0164967 2.12137e-23)
(1.00904 -0.0171543 -4.71642e-21)
(1.00974 -0.0170587 -7.62717e-21)
(-0.209864 -0.0672921 -2.20973e-20)
(-0.217763 -0.0646878 -8.6894e-20)