/*--------------------------------*- C++ -*----------------------------------*\
| =========                 |                                                 |
| \\      /  F ield         | OpenFOAM: The Open Source CFD Toolbox           |
|  \\    /   O peration     | Version:  v2012                                 |
|   \\  /    A nd           | Website:  www.openfoam.com                      |
|    \\/     M anipulation  |                                                 |
\*---------------------------------------------------------------------------*/
FoamFile
{
    version     2.0;
    format      ascii;
    class       volVectorField;
    location    "250";
    object      U;
}
// * * * * * * * * * * * * * * * * * * * * * * * * * * * * * * * * * * * * * //

dimensions      [0 1 -1 0 0 0 0];


internalField   nonuniform List<vector> 
9793
(
(0.956702 0.0684381 -4.87719e-21)
(0.98867 -0.0529599 0)
(0.966288 0.0819774 8.8585e-21)
(1.01321 -0.00086484 0)
(0.521695 -0.0739867 -2.27605e-20)
(1.01368 -0.0136743 -1.45369e-21)
(1.00944 -0.000211135 1.72297e-21)
(1.01201 -0.00105858 -2.16681e-21)
(1.02756 -0.00238389 0)
(0.531119 -0.060013 7.50975e-21)
(1.01641 -0.102954 0)
(0.916684 -0.0989264 -3.59787e-22)
(1.01311 -0.000797117 7.70935e-22)
(1.01641 0.00127942 -1.40895e-21)
(1.00278 -8.46614e-06 0)
(1.01676 0.00143168 -3.15412e-23)
(1.01397 -0.00252032 -2.06325e-21)
(1.01362 -0.00329126 0)
(0.889798 0.262827 0)
(1.0167 0.00154605 -1.7234e-21)
(1.07386 -0.111518 0)
(1.02387 -0.0075231 -2.45069e-22)
(1.05131 0.0807945 1.73368e-21)
(1.01587 0.00228377 0)
(1.01703 -3.37893e-05 8.42455e-22)
(1.01307 -0.00066058 -7.51165e-22)
(1.01784 0.00194861 -2.83675e-21)
(1.01512 -0.000626378 0)
(0.982884 -0.0437345 7.38702e-22)
(1.02703 -0.00243535 0)
(0.989582 -0.0284676 -6.83039e-21)
(1.05625 0.0657698 3.50993e-22)
(1.09198 0.0121353 8.66733e-21)
(1.00836 6.80791e-05 -1.50706e-21)
(0.971635 -0.0379424 1.09149e-22)
(1.11827 -0.168858 0)
(1.00757 3.98298e-05 0)
(1.02416 -0.00753429 -7.86886e-22)
(1.0124 -0.00146634 3.68783e-21)
(1.01081 7.28332e-05 0)
(0.988826 -0.0239498 6.30546e-21)
(1.0047 -2.06105e-05 -4.38372e-22)
(1.01175 -0.00045904 -1.04152e-21)
(1.00919 -0.000139748 -1.83985e-21)
(1.01114 -0.000410537 -1.66921e-22)
(1.01265 -0.000516237 2.23923e-22)
(0.976408 -0.0458928 -4.47197e-22)
(1.00611 -0.0520699 9.34075e-22)
(0.937293 0.0639458 0)
(1.01315 -0.000949083 5.10817e-22)
(0.965459 -0.0388334 1.25315e-21)
(0.996043 -0.101012 -1.89968e-20)
(1.01722 -0.0154864 -2.11711e-21)
(1.02488 -0.00560613 -1.44839e-21)
(0.856981 -0.100337 -5.32568e-21)
(0.977551 -0.218858 7.02372e-21)
(1.0213 0.00022288 0)
(1.04995 -0.168643 0)
(0.841739 0.318634 9.47066e-22)
(1.01231 -0.00134982 -1.43784e-21)
(1.00947 1.11695e-05 1.1453e-22)
(1.02072 -0.0147514 0)
(0.834169 0.152756 3.09593e-21)
(1.0146 -0.000449914 -1.02094e-21)
(0.549769 -0.247183 -1.89497e-21)
(1.10011 0.0234016 -1.45084e-20)
(0.859122 0.148963 -2.53177e-21)
(0.897819 0.116448 -1.43151e-21)
(0.920987 -0.0834884 0)
(1.01205 -0.0962797 0)
(0.851306 -0.0845958 -6.25034e-21)
(1.01238 0.000280876 0)
(1.01494 -0.0040453 -2.05812e-21)
(1.05507 0.00501451 -4.06466e-22)
(0.956906 -0.0335577 -1.49842e-21)
(0.852425 0.293719 0)
(1.02159 -0.000234191 -2.41448e-22)
(1.01774 0.00267272 4.9864e-23)
(1.01803 0.00419412 -1.37372e-21)
(1.01648 -0.000297806 1.96604e-21)
(1.09428 0.0578729 -3.78301e-21)
(1.01537 0.00516186 0)
(0.950617 -0.0812116 0)
(1.03947 -0.0235618 0)
(0.994576 -0.0222165 0)
(1.02174 -0.0446786 0)
(1.01701 -0.00068136 0)
(1.02186 -0.000717154 0)
(1.01963 -0.0129857 2.21249e-22)
(1.0129 0.00553038 -1.32185e-21)
(0.990436 -0.0159646 4.41872e-21)
(0.720692 -0.170205 -3.47598e-21)
(1.01591 0.00243034 -1.13598e-21)
(1.06937 0.0424912 -8.41731e-22)
(1.0206 -0.0137461 0)
(1.04518 -0.0200892 4.11384e-22)
(0.997984 -0.200358 0)
(0.961 -0.0572812 1.64679e-21)
(1.01557 0.00224117 -1.70606e-23)
(1.01563 0.00101844 6.67186e-24)
(1.01563 0.000902625 8.8329e-22)
(1.01037 0.00174099 2.81778e-21)
(1.01333 0.00121398 -3.54824e-21)
(1.01324 0.00110795 0)
(1.01755 0.0028566 1.50053e-23)
(0.994724 -0.0186236 -1.37375e-21)
(1.01982 -0.0122408 0)
(1.00923 -2.82612e-05 -9.94158e-22)
(1.01745 -0.014274 1.0212e-21)
(0.957892 -0.0539026 2.66006e-21)
(1.01153 0.000166835 0)
(1.00859 -0.129269 5.89265e-23)
(1.0198 0.000385451 0)
(1.02524 -0.28599 0)
(0.988301 -0.0965776 5.06511e-21)
(1.02168 1.40025e-05 6.0298e-23)
(1.08514 -0.0970001 1.23681e-20)
(0.956877 -0.0259066 -6.33017e-22)
(1.01617 0.0061663 0)
(1.06999 0.0289302 1.48887e-21)
(0.964976 -0.065707 1.70531e-21)
(1.00577 7.45021e-05 -9.915e-23)
(1.01987 -0.00245764 -4.3588e-24)
(1.01267 -0.0144102 2.21791e-21)
(1.02638 -0.00826962 2.5514e-21)
(1.0578 -0.118255 0)
(1.06322 -0.0687364 -7.24381e-21)
(1.0306 -0.0449517 -8.72867e-22)
(1.01929 0.00472887 4.1162e-21)
(1.01602 -0.00359958 0)
(1.01067 0.000144454 -8.57562e-23)
(1.022 -0.000480855 4.40899e-22)
(1.01607 -0.00373326 9.79883e-22)
(1.01007 -0.0022012 3.80976e-22)
(1.02657 -0.00189173 -5.34861e-22)
(1.02206 -0.00121159 5.34029e-23)
(1.01391 -0.000333844 1.02255e-21)
(1.0094 -0.000120086 -1.92262e-21)
(1.01947 0.000318095 0)
(1.01358 1.70518e-07 0)
(1.01954 -0.0023911 2.62369e-24)
(1.01715 -0.0011557 1.24913e-21)
(1.01176 -0.000487481 2.41112e-22)
(1.01619 0.000475348 -9.62878e-22)
(1.0163 0.00129031 1.64044e-21)
(1.01595 0.00171632 1.68433e-21)
(1.04571 -0.041109 0)
(1.01624 0.000579972 8.41964e-22)
(1.01475 0.00212473 -2.03102e-21)
(0.74254 -0.184578 2.17528e-21)
(0.781634 0.373703 0)
(1.01026 0.000112133 -2.14049e-22)
(0.758413 0.371352 0)
(0.536061 0.00334796 -4.04336e-21)
(1.01452 0.00194728 0)
(1.00859 0.000194986 6.43899e-23)
(1.01187 -1.36743e-05 0)
(1.01674 -0.00153125 0)
(1.01594 0.000708461 7.88947e-22)
(1.01177 -0.000472711 -2.80944e-22)
(1.01205 -0.00107371 2.60604e-21)
(1.01484 -0.00074824 -2.25225e-21)
(1.01746 0.00101059 0)
(0.951231 0.226464 1.03412e-20)
(1.05381 -0.0216478 -9.54575e-22)
(1.09343 -0.122359 0)
(1.01592 -0.0555943 7.86509e-22)
(1.01529 -0.0115841 5.91039e-22)
(1.01777 0.00161851 1.42633e-21)
(1.01149 0.000873267 0)
(1.01345 -0.0029485 1.30115e-21)
(0.80039 0.017257 0)
(1.05112 -0.0288379 6.71255e-22)
(0.78882 -0.0435128 -1.37086e-20)
(1.02696 -0.0077282 0)
(0.918719 0.241183 0)
(1.02221 -0.000968368 -5.45902e-23)
(1.01536 0.00197583 0)
(1.0161 -0.00429044 0)
(1.02223 -0.033324 -4.26421e-21)
(1.12931 -0.424104 3.341e-20)
(1.03527 -0.010639 -9.60906e-21)
(1.01595 0.000827377 -8.33854e-22)
(1.01676 -0.000583675 -1.32943e-21)
(0.905231 0.304247 0)
(1.01479 -0.00378904 1.85486e-21)
(1.04552 -0.181123 9.12145e-21)
(1.01588 -0.00422648 2.05424e-21)
(1.01934 -0.00299306 3.22402e-23)
(1.01718 0.0011205 -1.47256e-21)
(1.02747 -0.00777955 0)
(1.0172 -0.000267406 0)
(0.945308 0.0763834 -2.66763e-21)
(1.02494 -0.128226 -5.0529e-22)
(0.874054 0.119337 2.15083e-21)
(1.02385 -0.0320793 3.0247e-21)
(0.903142 0.130161 0)
(1.01273 0.00226083 0)
(0.557432 0.0837865 0)
(1.0134 1.55046e-05 0)
(1.02613 -0.00193208 0)
(1.03671 0.151271 1.35397e-20)
(0.983482 -0.241804 -1.19919e-20)
(1.01618 -0.0033867 0)
(1.02239 -0.0014903 0)
(1.01713 0.00274435 0)
(1.09338 -0.148339 -2.24981e-22)
(1.01604 0.00039997 0)
(0.999176 -0.0177482 2.09888e-21)
(1.02695 -0.0117177 6.7755e-21)
(1.00725 -0.0309216 -2.936e-21)
(0.965418 0.0726622 0)
(0.916869 0.0624072 -8.94408e-22)
(1.02526 -0.00589663 1.63455e-21)
(0.863238 0.137805 0)
(1.01203 -2.11337e-06 8.24913e-22)
(1.01102 -0.000542445 -7.86322e-22)
(0.920442 0.28712 9.41728e-21)
(1.01691 0.00282928 0)
(0.740774 -0.00500601 4.02902e-21)
(0.936609 0.0066304 5.91256e-21)
(1.02058 -0.0016551 7.15752e-23)
(1.02684 -0.00834006 -1.81111e-22)
(1.0171 -0.000198778 7.06806e-24)
(1.04036 -0.0328624 0)
(0.988368 0.197557 -1.12084e-20)
(1.01489 -0.0141425 -2.25607e-21)
(1.01409 0.00175047 0)
(0.935347 -0.00514563 9.27508e-22)
(1.00935 -0.0806903 0)
(1.01586 0.00234635 0)
(1.01566 0.00214067 4.0178e-23)
(1.03615 -0.0112578 2.5581e-21)
(1.01303 7.93182e-06 -6.02843e-22)
(1.04957 -0.0829788 2.64686e-20)
(0.757184 0.0205842 3.31878e-21)
(1.01915 2.16873e-05 2.27842e-22)
(1.01361 -0.00273903 1.31966e-21)
(0.990125 -0.180934 2.00712e-21)
(1.01196 0.00316699 -1.27123e-21)
(0.999456 -0.014962 1.34563e-21)
(1.01616 0.000698973 3.61696e-21)
(1.01362 -0.00225274 0)
(1.09916 0.0280255 -5.8275e-21)
(1.01364 -0.00267477 2.6512e-21)
(1.01502 0.00211239 1.12479e-21)
(1.01192 -0.000961398 2.02845e-21)
(1.01685 -0.00212754 0)
(1.01529 0.00230619 -6.44027e-24)
(1.00941 7.54803e-05 0)
(1.02254 -0.00736212 1.84362e-23)
(1.02515 -0.0190788 3.6672e-21)
(0.988662 -0.0872931 0)
(1.05745 -0.076227 0)
(1.0135 -0.00214613 -1.41575e-21)
(1.02616 -0.00720269 7.42451e-22)
(1.01361 -0.00342153 0)
(1.02387 -0.0197532 -1.8869e-21)
(1.0083 -0.00885055 0)
(1.01595 0.000289772 -1.57423e-21)
(0.919824 -0.199956 2.30509e-22)
(1.01366 -0.00282994 -4.08406e-21)
(0.981536 -0.0822403 -3.17391e-21)
(1.00976 -1.05247e-05 5.73464e-22)
(1.01354 -0.0125184 -5.34943e-22)
(1.01634 0.00265178 0)
(1.0162 0.00262254 0)
(1.00514 -0.0278646 -3.54969e-22)
(1.04871 0.138601 -1.79691e-20)
(1.0188 -0.0113528 6.90894e-22)
(1.01599 0.000224754 -9.88812e-22)
(1.01576 0.000455735 7.20429e-22)
(1.02333 -0.000603902 0)
(1.02106 -0.00142982 -4.54323e-23)
(1.01619 0.000477032 -2.86898e-21)
(1.02241 -0.0231555 2.86781e-21)
(1.01622 -0.0035508 0)
(1.035 -0.143006 2.19268e-21)
(1.01662 -0.000369161 0)
(1.06296 -0.0743959 -1.47036e-20)
(1.01638 -0.00237527 0)
(1.0159 0.00244463 -6.86474e-23)
(1.00762 -8.30915e-06 -1.98741e-21)
(1.01099 7.26407e-05 -1.7942e-21)
(1.06718 -0.0662245 1.02991e-20)
(1.02051 -0.00180225 6.28203e-23)
(1.02233 -0.00745852 0)
(1.01722 -0.0157723 0)
(1.01097 -0.000296723 -9.33701e-22)
(1.02224 -0.00172201 9.87862e-23)
(1.01946 9.95306e-05 -2.27796e-22)
(1.09413 -0.0592039 0)
(1.01693 -0.0123062 4.92838e-22)
(1.0076 -0.000103887 2.04914e-21)
(1.01013 8.90528e-05 -3.26242e-22)
(1.00973 -0.00135674 -3.89537e-22)
(1.02513 -0.00883419 -1.02143e-21)
(1.01559 -0.0159638 -4.33197e-22)
(1.01626 -0.000661741 -5.13653e-22)
(0.925292 0.264838 4.36887e-20)
(1.01428 0.00191262 0)
(0.937126 0.291346 -1.73484e-22)
(0.988077 -0.200888 3.5882e-21)
(1.0077 7.44787e-05 0)
(1.0089 -9.36842e-05 -1.29635e-22)
(1.01615 0.000238447 0)
(1.02361 0.00112859 0)
(1.01975 -0.00892472 -1.01179e-22)
(1.0158 -0.00294492 -1.79308e-21)
(0.947782 0.29123 -4.52871e-21)
(1.0162 -0.000328935 0)
(1.01604 0.000238452 0)
(1.01953 -0.00798268 -2.95215e-23)
(1.02218 -0.00836503 4.32855e-23)
(1.02231 -0.0060605 -1.97861e-22)
(1.01273 0.00451593 0)
(1.03319 -0.0345194 -1.17794e-22)
(1.01402 -0.00179833 0)
(1.02146 -0.00292086 -9.72677e-22)
(1.02737 -0.0123901 -5.20235e-21)
(1.01354 -0.00186538 1.07916e-21)
(1.05623 0.000200962 7.67917e-22)
(0.860435 0.19639 -7.08447e-21)
(1.0543 -0.00439423 2.48514e-24)
(1.01661 0.00276793 -1.54053e-22)
(1.10735 -0.398564 3.52429e-20)
(1.02455 -0.00885548 -1.01355e-21)
(0.818571 0.307929 -1.59235e-20)
(0.946762 -0.0212532 1.58569e-21)
(1.01668 0.000560615 -7.4593e-22)
(1.0433 -0.0157714 8.08607e-21)
(0.947098 -0.0121162 0)
(1.01079 0.00116906 -6.24191e-21)
(1.0028 -0.0144357 -1.3502e-21)
(1.00388 -0.113595 -4.7294e-21)
(1.01179 -0.000759733 2.83762e-21)
(1.01162 -0.00045018 1.99084e-21)
(1.02563 -0.00166554 0)
(1.01101 7.78222e-05 -1.67068e-21)
(1.0156 -0.000773235 -6.01732e-22)
(0.935012 0.101791 4.94694e-21)
(1.01584 -0.00440866 -2.09607e-21)
(1.01344 -0.0018691 0)
(0.927924 0.225318 -2.06578e-20)
(1.01143 0.00255711 1.36611e-21)
(1.01706 0.00152859 4.79126e-23)
(1.01658 0.00273429 1.98063e-22)
(1.02382 -0.00820586 -1.39716e-22)
(1.01187 -0.000849408 -1.90482e-21)
(0.904063 0.111678 -1.4147e-20)
(1.02577 -0.00864892 0)
(1.02108 -0.003513 -3.3929e-23)
(1.02131 -0.00778807 -6.23286e-22)
(1.01079 0.00254499 -2.89166e-21)
(0.789101 0.0938584 -5.14609e-21)
(1.02481 -0.00522368 -1.31936e-21)
(1.046 -0.019928 0)
(1.01553 0.00211157 9.98821e-23)
(1.00814 -0.0542523 -4.59809e-21)
(0.827111 -0.0845466 6.93777e-21)
(1.03087 -0.180883 -1.0022e-20)
(1.00534 -0.0563353 4.82169e-21)
(1.02377 -0.00814609 3.27616e-23)
(1.00892 -0.0031929 -5.07185e-21)
(0.847918 0.163255 4.78662e-21)
(1.00916 3.49212e-06 -2.36703e-21)
(0.935357 -0.194354 -3.17756e-21)
(1.01328 0.00410373 -3.58985e-21)
(1.01284 3.52248e-05 9.08463e-22)
(1.00368 -0.216899 0)
(1.00319 -0.0123052 -1.57478e-21)
(0.833352 0.211404 0)
(1.02114 -0.00339406 1.12632e-23)
(1.04772 -0.0887381 -1.45818e-20)
(1.14343 -0.160745 0)
(1.01226 0.00373738 -2.31607e-21)
(1.01468 -0.00341999 -3.18848e-21)
(1.08934 -0.0363818 -1.00097e-20)
(1.03225 -0.0297884 -1.05931e-20)
(1.0507 -0.0290896 0)
(1.02561 -0.00677958 1.46112e-21)
(1.02502 -0.00461341 -1.44415e-21)
(0.950614 0.311258 0)
(1.01616 -0.000594017 1.30226e-21)
(1.02408 -0.00873997 -5.41848e-22)
(1.00847 4.97829e-06 0)
(1.01001 2.7025e-05 1.33488e-21)
(1.0174 0.00193493 0)
(1.02519 -0.00507347 0)
(1.02496 -0.00727275 -1.2571e-21)
(0.783936 0.0936158 9.31348e-21)
(1.02717 -0.00676913 1.71845e-21)
(0.763098 -0.404305 -1.60922e-21)
(1.07862 -0.0322908 0)
(0.867971 0.169386 3.68168e-21)
(1.01588 -0.082919 1.68966e-20)
(1.04717 -0.0126402 8.86367e-23)
(1.01116 0.000114346 0)
(1.02553 -0.00140516 0)
(0.749364 0.0418262 -1.22303e-20)
(1.07324 -0.0527466 0)
(1.01612 0.000425517 1.53553e-21)
(1.03227 -0.00541156 0)
(1.05605 -0.00791222 -3.32372e-20)
(1.01585 0.000386564 0)
(1.05718 -0.304487 -1.61128e-20)
(1.01359 -0.00289391 1.51986e-21)
(1.02455 -0.00706941 1.75254e-21)
(1.01567 0.000311443 1.36589e-21)
(0.99937 -0.0243666 -6.88486e-22)
(1.01563 -0.00430975 -6.30217e-22)
(1.03103 -0.0316055 9.54713e-21)
(1.05339 -0.139681 8.17077e-23)
(1.01605 0.000288095 3.62605e-21)
(1.03645 0.103546 -2.40578e-21)
(1.02207 -0.00933171 -4.42603e-22)
(1.02554 -0.00902431 0)
(1.02338 -0.00777457 4.28869e-22)
(1.01305 0.00336019 5.81485e-21)
(1.01944 -0.0116744 -4.46559e-22)
(1.01571 0.00112492 -1.75184e-21)
(1.10368 0.0926551 0)
(1.01663 -0.000390962 0)
(1.0224 -0.00626123 2.98458e-22)
(0.996114 -0.110041 1.70763e-20)
(1.02519 -0.00397204 2.04347e-22)
(1.0077 -0.00738846 0)
(1.02487 -0.00909062 1.27743e-21)
(1.01728 0.000797466 -1.72705e-22)
(1.01879 -0.0337941 -6.30841e-21)
(1.01142 -0.000370223 2.21252e-21)
(1.02218 -0.00645969 -1.01992e-22)
(1.01534 1.10466e-05 -1.112e-21)
(0.929779 0.153237 0)
(1.01626 0.00173157 0)
(0.914996 0.146176 0)
(1.01132 0.000336583 0)
(0.979042 0.098047 5.73417e-22)
(1.00951 -0.000134002 9.66544e-22)
(1.01128 0.00135494 2.89598e-21)
(1.00756 -5.91997e-05 1.87232e-21)
(1.0267 -0.00664986 0)
(0.876154 0.289838 1.09691e-20)
(1.01317 0.0025148 0)
(0.820579 -0.0634093 -8.43964e-21)
(1.0173 0.00132502 1.46435e-21)
(1.01335 -0.00285448 -1.79309e-21)
(1.0243 -0.00901086 8.1181e-22)
(1.06209 -0.0885668 4.69801e-20)
(0.985163 -0.0313839 0)
(0.856001 -0.133578 0)
(0.976295 0.0789194 -2.05806e-21)
(1.01574 -0.0154621 1.89893e-21)
(1.01743 -0.00129167 -1.0946e-22)
(1.05482 -0.0261609 1.60641e-21)
(1.01673 -0.0316517 0)
(1.0022 -0.0213966 0)
(0.974545 -0.0786196 -1.69644e-21)
(0.845575 -0.13768 5.8503e-21)
(1.01642 -0.00032857 0)
(1.02044 -0.00636277 -2.29328e-21)
(1.04042 -0.0892853 2.58551e-20)
(1.02004 -0.00275523 8.99632e-24)
(1.01397 0.00588209 1.42506e-21)
(1.01952 -0.00283417 -1.72832e-22)
(1.01346 0.00137715 3.17025e-21)
(1.00786 9.34987e-05 -9.21888e-22)
(0.969309 -0.285317 -1.21281e-20)
(1.02843 -0.0310184 -1.95721e-22)
(0.938983 0.291807 0)
(1.01356 0.00152233 0)
(1.02637 0.00197576 0)
(1.01537 0.00191185 -1.14169e-22)
(1.00954 5.80614e-05 1.51548e-21)
(1.00947 8.07151e-06 -1.51147e-22)
(1.01447 0.00516236 0)
(1.05273 -0.0299435 -1.45413e-21)
(1.01102 5.86365e-05 -7.71627e-22)
(1.01957 -0.00523554 0)
(1.01605 6.55144e-05 -1.32024e-21)
(1.01515 -0.000605163 -1.1084e-21)
(1.00603 -0.00533877 0)
(0.979182 -0.0625983 -3.58669e-21)
(1.01089 -0.000311577 0)
(1.01728 -0.00123623 -4.00738e-22)
(0.996987 -0.149762 -3.64756e-21)
(1.00578 -0.0119961 1.28182e-21)
(1.02621 -0.00878163 0)
(0.81299 0.174097 0)
(0.96587 0.0945001 3.44747e-21)
(1.00965 -7.24148e-06 0)
(1.00811 8.79016e-05 7.16089e-22)
(1.02386 -0.00874594 5.55585e-22)
(1.00618 -0.00706459 0)
(1.0223 -0.0066348 -2.30018e-23)
(1.01145 -0.000344127 0)
(1.01495 -0.000466542 -1.4275e-21)
(1.01245 0.00237486 0)
(1.01346 -0.00335822 -1.54453e-21)
(1.01355 -0.00223848 2.85342e-21)
(1.03668 -0.041646 2.59978e-22)
(0.972888 -0.0865843 7.33092e-24)
(1.01187 -2.45906e-05 5.87042e-22)
(0.888791 0.307131 1.86451e-21)
(1.01368 0.0124908 -3.89649e-22)
(1.01551 0.0016683 -1.01796e-23)
(1.0179 -0.0123533 -4.19701e-22)
(1.01725 0.00473082 -2.57385e-21)
(1.00111 -0.116066 -9.27361e-23)
(1.01628 -0.00287216 -1.36554e-23)
(0.915018 -0.20073 -1.87957e-21)
(1.01686 0.000705261 1.46318e-21)
(1.0136 -0.00240977 0)
(1.00291 -0.0865337 1.3496e-21)
(1.01902 -0.00289656 -2.4246e-22)
(1.02418 -0.0532341 -2.97295e-21)
(0.988027 -0.249395 0)
(1.02134 -0.00139419 -1.36942e-21)
(1.01563 0.00154154 1.06848e-21)
(0.789664 -0.429033 1.68298e-21)
(1.00608 -0.0103479 3.13325e-22)
(1.01302 0.00054203 1.21587e-21)
(1.01385 -0.00168194 -1.78931e-21)
(1.07726 -0.0997796 2.88335e-21)
(1.01305 -0.00182098 8.77541e-22)
(1.0129 0.000498711 -1.19601e-21)
(1.0165 -0.000595288 0)
(1.01299 -0.00177763 -7.78106e-22)
(1.10263 0.00200907 1.58969e-20)
(1.05629 -0.0819217 0)
(1.01604 0.0105966 4.08355e-22)
(1.01664 -0.0132728 -1.83722e-21)
(1.01389 -0.00173165 0)
(1.01377 -0.00186177 0)
(1.02392 -0.00394255 0)
(1.01155 0.000157486 0)
(1.01649 -0.000523821 -5.88141e-22)
(1.00268 -0.0929353 1.20452e-21)
(1.02385 -0.193774 0)
(1.01592 0.000534406 -7.34918e-22)
(1.01133 -0.00745026 0)
(0.713665 0.0206146 0)
(1.01762 -0.00665569 1.58449e-23)
(0.999019 -0.00820467 -1.69219e-21)
(1.04922 -0.017831 0)
(1.0119 0.00023888 5.31541e-22)
(1.01271 -0.108753 0)
(0.937904 0.311153 0)
(1.02097 -0.00162868 -9.56811e-23)
(1.13147 -0.210475 6.29402e-21)
(1.01582 0.00243906 1.44838e-22)
(1.0146 -0.251392 8.08871e-21)
(1.01857 -0.0173796 -4.42774e-21)
(1.00513 0.252965 0)
(1.01484 -0.00367231 1.41275e-21)
(1.01359 -0.00217605 -1.73946e-22)
(1.01479 -0.00250616 0)
(0.9745 0.0494979 5.411e-21)
(1.00898 -0.0041619 4.1735e-21)
(0.819976 0.204008 2.7963e-21)
(1.09063 0.0826203 0)
(0.610308 -0.260268 -7.83533e-21)
(1.02183 -0.0555919 3.64417e-21)
(0.893516 -0.19667 1.70722e-23)
(1.0013 -0.0176539 0)
(1.00443 -3.85828e-06 0)
(1.03702 -0.0473983 2.12778e-21)
(1.01092 -0.00639976 0)
(0.892558 -0.145519 0)
(1.02377 -0.00570012 -1.00383e-21)
(0.987785 0.114443 2.37429e-22)
(1.01533 -0.000579139 -1.20373e-21)
(0.96243 0.00447187 0)
(1.00853 9.82282e-06 1.71758e-21)
(1.03504 -0.00604121 2.90459e-22)
(1.01365 -0.00188339 -1.42527e-21)
(1.11166 -0.233724 1.28223e-20)
(1.01577 -0.000399352 -2.67225e-21)
(1.01172 -1.14498e-05 -7.84098e-23)
(1.03233 -0.011662 -4.64762e-21)
(1.02534 -0.012515 2.53836e-21)
(1.02695 -0.0329308 -4.1918e-21)
(1.01516 -0.00418233 0)
(1.01814 -0.00261822 -3.8673e-22)
(1.01766 -0.00633433 1.45027e-23)
(1.01736 -0.00607499 1.05274e-23)
(0.869081 0.262551 0)
(1.01326 -0.00111525 1.48417e-21)
(0.854131 -0.171133 0)
(1.09141 -0.287787 0)
(1.01327 -0.00104849 -5.63126e-22)
(1.00895 -3.46662e-05 2.32733e-21)
(1.02642 0.00360937 2.42583e-21)
(1.03181 -0.00585614 3.13074e-21)
(1.01938 -0.00255668 1.771e-22)
(1.02224 -0.00787208 4.79638e-22)
(1.01096 0.00320101 0)
(1.01929 -0.0187342 2.47121e-21)
(1.03708 -0.00921972 0)
(1.02596 -0.0129885 -4.88188e-21)
(1.01236 0.000403412 -8.54939e-22)
(1.01728 0.00580314 0)
(1.02373 -0.00808994 1.23827e-22)
(1.02232 -0.0186994 1.67101e-21)
(1.02181 -0.00825489 0)
(1.02377 -0.0080756 0)
(1.03636 -0.249387 0)
(1.0188 -0.0057985 -9.95956e-22)
(1.06022 0.126046 0)
(1.03585 -0.0280155 -2.46264e-21)
(1.00927 -0.000185787 3.14736e-22)
(1.01842 -0.0027007 2.61812e-23)
(1.01183 -0.000369008 2.00754e-23)
(1.00778 0.000455461 3.91894e-21)
(1.00679 -0.000325816 -3.43513e-21)
(1.01361 -0.00249677 0)
(1.01646 0.00520836 0)
(1.01554 0.00189534 0)
(1.01387 -0.00184683 -3.79452e-22)
(1.01711 0.00526491 1.25071e-21)
(1.01579 -0.00126531 -6.19202e-22)
(1.02632 -0.00843747 -8.08168e-22)
(1.01374 -2.01591e-05 0)
(1.03452 -0.00667158 -2.92232e-21)
(1.00786 1.61899e-05 1.01157e-21)
(1.02538 -0.00437743 0)
(1.02589 -0.00897122 6.9987e-22)
(1.03762 -0.00993033 -7.37503e-21)
(1.03522 -0.0506591 0)
(1.00727 8.61244e-05 -2.80388e-22)
(1.01348 -0.00230639 0)
(1.01859 -0.00256001 0)
(1.01251 0.000482992 -1.78363e-21)
(1.01509 -0.00143718 0)
(1.01094 7.75652e-05 -9.51031e-24)
(1.01533 -0.0017207 0)
(1.01332 -0.00182647 -2.731e-21)
(1.01899 -0.00573097 6.93817e-22)
(1.01569 -0.000518541 0)
(1.00051 -0.0353118 -2.89651e-22)
(1.01098 0.000108186 -1.83656e-21)
(1.00774 2.69427e-05 2.48573e-21)
(1.02025 -0.0023254 -3.72889e-24)
(1.00742 0.0993801 -4.97944e-22)
(1.01396 -0.00180206 2.00407e-21)
(1.01573 0.00022036 -1.37863e-21)
(1.02671 -0.100982 0)
(1.01564 0.00235134 -3.67547e-22)
(1.0121 -0.00484695 0)
(1.11042 -0.247486 5.80142e-20)
(1.01655 0.000418133 -3.32105e-21)
(1.00979 -0.000254888 0)
(1.00982 4.30438e-05 -1.58688e-22)
(1.06148 -0.165958 -7.68921e-21)
(1.01182 -0.000487668 -2.69953e-21)
(1.03778 -0.0956826 -1.36259e-20)
(0.58332 -0.245316 -2.29784e-21)
(0.948704 -0.292564 -2.1852e-20)
(1.08386 0.0389638 1.63676e-21)
(1.0125 -0.00500168 -2.61978e-21)
(1.02056 -0.0026911 -3.36407e-23)
(0.889721 -0.119204 0)
(1.01065 0.00133436 -4.9005e-21)
(1.01555 5.50208e-05 0)
(1.04821 -0.0203777 8.67925e-23)
(0.972054 0.114085 9.41956e-22)
(0.704874 -0.0287539 3.79275e-21)
(1.01889 -0.00263877 0)
(1.07653 -0.108201 2.89256e-21)
(1.02057 -0.0025507 2.50634e-24)
(1.01996 -0.00228497 4.73096e-23)
(0.995154 -0.302031 -1.64813e-20)
(1.01592 -0.00123585 0)
(0.972263 -0.05009 -2.22239e-21)
(1.02443 0.00135356 -2.6089e-22)
(0.966146 -0.0798676 0)
(1.0134 -0.00217998 1.60884e-21)
(1.0223 -0.01079 -1.362e-21)
(1.02358 -0.00799951 -9.29307e-23)
(1.12983 -0.225817 -7.02176e-20)
(0.791772 -0.214053 -2.40362e-20)
(1.01351 -0.00275022 -1.25655e-21)
(1.0235 0.00199601 0)
(1.04774 -0.0348618 0)
(1.01324 -0.001817 2.81984e-21)
(1.00788 -0.0101426 0)
(1.02989 -0.0950514 0)
(1.01754 -0.355125 4.10491e-20)
(1.01449 -0.00330415 -1.9983e-21)
(0.99742 -0.00274477 -6.01527e-22)
(1.01075 0.000448813 2.00942e-21)
(0.97036 -0.251513 0)
(1.00034 0.000418329 0)
(1.06495 -0.109632 1.34761e-20)
(0.96292 0.108428 1.29319e-23)
(1.01711 0.000961302 0)
(1.01238 -0.0287362 3.71155e-21)
(0.915572 0.309305 1.94154e-20)
(1.01397 -0.0019225 1.48197e-21)
(1.01566 -0.00146314 9.2475e-22)
(1.00753 6.99257e-06 -1.91072e-21)
(1.01958 0.00195825 -7.15029e-22)
(1.01554 -0.000276622 2.53396e-21)
(0.963013 -0.256714 4.62826e-21)
(1.01533 -8.36963e-05 -1.45251e-21)
(0.841656 -0.116528 8.59581e-21)
(1.04179 -0.0148671 -8.54251e-21)
(1.04719 -0.0489921 -4.28639e-22)
(1.00367 -0.0947507 6.19496e-21)
(1.02437 -0.00408206 7.00515e-22)
(0.875349 -0.130696 0)
(0.836257 -0.212514 0)
(1.02601 -0.00778717 -2.56542e-21)
(0.975767 0.293809 0)
(1.01418 -0.0271026 -1.56365e-21)
(1.07067 -0.134449 -2.45209e-20)
(1.01557 -0.000166209 1.27764e-21)
(1.01554 0.00228403 3.95488e-23)
(0.867532 -0.178083 0)
(1.01604 -0.0067273 2.71116e-21)
(0.786306 -0.238687 0)
(1.01182 -0.000477751 -2.9579e-22)
(0.937928 0.162058 0)
(1.01324 0.000477347 8.68885e-25)
(0.99905 -0.059458 -1.57296e-21)
(0.858251 -0.144749 6.83155e-21)
(1.01716 0.000489188 0)
(0.890498 -0.520267 1.66948e-21)
(1.01655 -0.000323708 0)
(1.03308 -0.0123229 0)
(1.01331 -0.0542927 4.33648e-21)
(1.00649 -0.373326 4.77394e-20)
(1.02348 -0.349048 0)
(1.01443 -0.00129109 0)
(1.01333 0.000462068 3.80861e-21)
(1.01601 0.000197817 2.70335e-21)
(0.96388 -0.27499 -1.69294e-20)
(0.973556 0.119245 -4.82891e-20)
(1.0138 -0.000324693 1.29367e-21)
(1.01469 -0.0203792 -2.52262e-21)
(0.997268 -0.0129174 2.74708e-21)
(1.01582 -2.49862e-06 3.30968e-22)
(1.01344 -0.00201028 2.04311e-21)
(1.0099 -0.00290102 0)
(0.979055 -0.0564101 2.5344e-21)
(1.01398 0.0091699 0)
(1.0161 -0.00743337 1.88499e-21)
(1.01152 5.54453e-05 8.05141e-22)
(1.01216 -0.00115385 8.49666e-22)
(1.07867 0.0588879 -1.01713e-21)
(0.734132 -0.00280424 0)
(1.02181 0.0274677 1.64592e-21)
(1.01267 0.000508232 -6.04089e-22)
(1.01245 -0.000661306 -1.30545e-22)
(1.02341 0.0954734 0)
(1.0158 -0.00143248 3.10045e-22)
(0.981044 0.27553 0)
(0.987631 -0.0487888 0)
(0.84817 -0.0966567 -8.72745e-21)
(0.940017 -0.0551196 -1.21621e-21)
(0.941 0.13913 -1.61043e-22)
(1.01264 -0.00157194 1.73264e-22)
(1.02467 -0.00385268 -2.1411e-23)
(1.03014 -0.0183571 -5.10577e-21)
(1.03181 -0.0101815 0)
(1.02119 -0.0193076 0)
(1.01611 -0.00085528 -7.71595e-22)
(1.06893 -0.110239 -2.42253e-20)
(0.895041 -0.144242 0)
(1.01307 0.000759647 2.99666e-21)
(0.816816 -0.189604 -7.56466e-21)
(1.0121 -0.00105328 5.90954e-23)
(0.892553 -0.0512723 0)
(1.02859 -0.00402801 2.75325e-22)
(0.903259 -0.0418485 0)
(1.02899 -0.00946288 -1.2258e-21)
(1.02509 -0.00232989 -2.46279e-21)
(1.01435 -0.00358266 -1.05343e-21)
(1.01174 -0.00164559 0)
(1.00943 0.0111685 2.22589e-21)
(0.910364 -0.26237 -9.67929e-21)
(0.902644 0.302191 -6.18401e-21)
(1.01855 -0.00712277 -9.11454e-22)
(0.997079 -0.0161627 -4.27559e-22)
(1.01217 0.0014988 0)
(1.02382 -0.00794144 9.40423e-23)
(1.02164 -0.0107625 0)
(1.08185 -0.381208 -3.51282e-20)
(1.00909 -0.000198619 -7.81219e-22)
(1.06127 -0.136479 -6.18019e-22)
(1.01257 -0.00151401 8.21676e-23)
(1.04988 -0.036691 0)
(1.01363 -0.00318297 2.31661e-23)
(1.0137 -1.14977e-05 0)
(1.00881 5.36621e-05 -1.10602e-21)
(1.01251 -0.000687426 1.23712e-22)
(0.673371 -0.196055 0)
(1.01553 -0.00167107 0)
(1.02342 -0.008991 -5.36372e-22)
(1.00777 -1.02993e-05 2.99511e-21)
(1.00835 0.000214675 4.15396e-22)
(1.01543 -0.000494883 0)
(0.964922 0.00550458 -4.10687e-21)
(1.00993 -4.21347e-05 1.61699e-21)
(1.03632 -0.00713558 6.2285e-22)
(1.01277 -0.00165192 -7.02259e-22)
(1.01356 -0.00216027 -2.34407e-21)
(0.904788 0.224273 -8.34456e-21)
(1.01411 -0.00171795 -1.59414e-21)
(1.04531 -0.107971 0)
(1.01315 0.000807482 -6.26024e-21)
(1.0008 0.00542225 -2.1595e-21)
(1.01154 7.12791e-05 0)
(0.988572 -0.0504903 -7.09254e-23)
(1.0108 5.93005e-05 0)
(0.931012 -0.109253 1.77102e-21)
(1.0212 -0.00745315 6.50826e-22)
(1.01628 -0.00712654 -3.06476e-21)
(1.0123 -0.000709397 0)
(0.89738 0.172778 -2.5156e-20)
(0.894205 0.212574 8.36308e-21)
(0.884923 -0.0724176 0)
(0.873742 -0.228178 4.86699e-21)
(1.04022 0.101663 0)
(1.01566 -0.00654514 -1.41717e-21)
(1.02949 -0.0171386 5.03593e-21)
(0.985537 0.0617046 -7.43486e-22)
(1.01594 -0.00102605 -2.39813e-21)
(0.876936 -0.149474 4.78679e-21)
(0.91089 -0.163436 -4.89412e-21)
(0.967613 0.0147395 -6.41855e-21)
(0.894247 -0.0824436 -3.56339e-21)
(1.02361 -0.00838903 0)
(0.907683 0.231489 0)
(1.00462 -0.00259016 0)
(0.864791 0.157758 0)
(0.975104 0.00647414 -5.13085e-21)
(1.02375 -0.00906525 0)
(1.02384 -0.006023 0)
(0.900669 0.236961 0)
(0.885449 0.322198 1.97187e-20)
(1.0124 -0.000183608 -8.6865e-22)
(1.02591 -0.00783462 -2.41478e-23)
(1.01612 -0.000933881 1.28472e-21)
(1.01597 -0.00624868 -3.33643e-23)
(1.05596 -0.0579026 1.68197e-20)
(1.01091 -8.20568e-06 6.03899e-22)
(1.01483 -0.00131274 -1.16556e-21)
(1.03254 -0.0107562 4.50962e-21)
(0.998777 0.0148108 0)
(1.01664 -0.0569379 5.64923e-21)
(1.0196 -0.0150719 0)
(0.971767 -0.264815 7.60693e-21)
(1.01237 -0.000728004 -2.06214e-21)
(1.01565 -0.00174842 0)
(0.954554 -0.00426337 0)
(1.16708 -0.0317468 1.20277e-20)
(1.06383 -0.0589097 0)
(1.01506 -0.000286299 8.9673e-22)
(1.0165 0.0205976 0)
(1.01342 0.000375561 -2.61545e-21)
(1.01575 -0.00111542 1.21477e-21)
(1.07087 -0.125737 9.68186e-21)
(1.01549 -0.000735956 -1.25833e-23)
(1.02379 -0.00848413 5.63724e-22)
(0.900529 0.233947 0)
(0.904531 0.212924 1.14444e-20)
(1.01753 0.00198202 0)
(0.853136 -0.110257 -2.02201e-21)
(0.843514 -0.117793 3.23388e-21)
(1.00934 -0.10267 0)
(0.948232 -0.0785827 1.82231e-21)
(1.05589 -0.384172 -5.12288e-21)
(1.01228 -0.000390465 -1.45384e-21)
(0.910105 0.0961712 4.61058e-21)
(1.02166 -0.00792542 -7.06993e-23)
(1.01245 -0.00143782 -3.15508e-22)
(1.01988 -0.00467419 1.93931e-22)
(1.00966 -4.69657e-05 -1.87094e-21)
(1.01182 0.00143016 0)
(0.918974 -0.449902 -3.14456e-20)
(1.01855 -0.00110864 -2.61206e-21)
(1.04212 -0.142211 -2.32224e-20)
(1.01293 -0.00242815 0)
(1.02667 0.0246856 0)
(1.02238 -0.00815272 -4.42188e-23)
(1.05945 -0.0606964 -1.4045e-20)
(1.02382 0.000684988 -3.27762e-22)
(1.01074 -0.00096537 2.3236e-21)
(0.98959 -0.053318 -2.57756e-21)
(1.01346 -0.00308763 0)
(1.01562 -0.00143572 0)
(0.930499 -0.0670033 1.49242e-21)
(1.00734 0.00297936 1.12537e-21)
(1.01154 -0.0302847 -3.81967e-21)
(1.01781 -0.000457743 -3.03666e-22)
(1.01595 0.000638482 7.7034e-22)
(0.950954 0.188018 4.80407e-21)
(1.11291 -0.286819 0)
(1.00843 -0.000713632 -4.03302e-22)
(1.01548 0.00195306 0)
(1.01533 0.00174241 0)
(1.01921 0.00144409 0)
(1.01999 0.00380837 -2.74134e-21)
(0.868805 0.238332 0)
(0.937561 -0.0773344 -1.31051e-22)
(0.950907 -0.0974576 0)
(1.0006 -0.0281205 0)
(0.907621 -0.184258 6.04061e-21)
(1.01235 -0.00289141 0)
(1.03666 -0.0140227 1.82195e-21)
(1.015 -0.022276 2.72643e-21)
(1.02784 -0.0189719 0)
(0.884952 -0.0678749 -3.38321e-21)
(1.01454 -0.00374325 -1.27984e-21)
(1.01346 -0.0021762 1.30868e-21)
(1.11061 -0.111014 -3.83592e-21)
(0.999587 -0.0389705 0)
(1.04389 -0.419409 4.47388e-20)
(1.01415 -0.00305742 0)
(0.951322 -0.285502 9.58918e-21)
(0.849972 -0.000303967 -9.25573e-21)
(1.01097 -0.000151907 1.13586e-21)
(1.0472 -0.0732925 -8.80612e-21)
(1.04191 -0.0182224 -1.85605e-20)
(0.846888 0.235169 6.31851e-22)
(1.01028 -0.000183581 2.80123e-21)
(1.03445 -0.0263246 0)
(0.896412 0.0877488 0)
(1.00762 0.00439627 -1.6661e-21)
(1.01427 -0.00326985 0)
(1.01193 0.018544 -2.15457e-21)
(1.02103 -0.00799115 8.34938e-22)
(1.01246 0.000434132 1.12357e-21)
(1.01338 -0.00216939 -3.76734e-21)
(0.892245 -0.239988 0)
(1.02087 -0.00858391 6.14103e-23)
(1.05078 -0.0282665 -5.47951e-22)
(0.928423 -0.00244299 5.7317e-22)
(1.04376 -0.0691409 1.21999e-20)
(1.02979 -0.00848382 2.33585e-21)
(0.99703 -0.0117139 1.37938e-21)
(1.05685 -0.0143338 0)
(1.07704 0.114873 0)
(1.05304 -0.0220513 -6.41847e-22)
(1.01587 -0.00139236 1.27058e-23)
(1.0233 -0.00519741 7.68593e-22)
(1.03187 -0.00933134 -3.44857e-21)
(1.02372 0.00240128 3.25345e-22)
(1.01033 0.000123331 8.40397e-22)
(1.02158 0.110904 0)