/*--------------------------------*- C++ -*----------------------------------*\
| =========                 |                                                 |
| \\      /  F ield         | OpenFOAM: The Open Source CFD Toolbox           |
|  \\    /   O peration     | Version:  v2012                                 |
|   \\  /    A nd           | Website:  www.openfoam.com                      |
|    \\/     M anipulation  |                                                 |
\*---------------------------------------------------------------------------*/
FoamFile
{
    version     2.0;
    format      ascii;
    class       surfaceVectorField;
    location    "250";
    object      Uf;
}
// * * * * * * * * * * * * * * * * * * * * * * * * * * * * * * * * * * * * * //

dimensions      [0 1 -1 0 0 0 0];


internalField   nonuniform List<vector> 
14516
(
(0.960138 0.075152 1.71069e-21)
(0.949231 0.0692515 4.35833e-21)
(0.960997 0.0602907 -7.29718e-21)
(0.990038 -0.0334935 2.32437e-21)
(0.98004 -0.0667731 -9.63503e-22)
(0.995878 -0.0622762 0)
(0.974253 0.0795425 8.26431e-21)
(0.962858 0.0911284 -5.39117e-21)
(1.01317 -0.00083165 3.4292e-22)
(1.01318 -0.000910292 2.6531e-22)
(1.01327 -0.000858221 0)
(0.527041 -0.0646051 -7.57648e-21)
(0.530767 -0.0341298 -8.5306e-21)
(0.523891 -0.122149 -7.49176e-21)
(1.01317 -0.0141182 9.14644e-22)
(1.01425 -0.0139028 -1.88463e-21)
(1.01352 -0.012896 -9.64838e-22)
(1.00848 -4.78294e-05 8.22193e-22)
(1.00928 -0.000200786 1.01334e-21)
(1.00999 -0.00028608 -1.04789e-21)
(1.01203 -0.00106973 4.28801e-22)
(1.01196 -0.00101122 -1.31988e-22)
(1.01204 -0.0011038 -2.32326e-21)
(1.02734 -0.00238152 0)
(1.02762 -0.00204232 7.65922e-22)
(1.02788 -0.00263537 -1.38961e-21)
(0.534821 -0.0279146 9.48985e-21)
(0.548694 -0.08274 -1.33506e-20)
(1.01429 -0.0996385 0)
(1.01423 -0.106645 0)
(1.02196 -0.101838 0)
(0.918972 -0.0908884 -1.75385e-22)
(0.923724 -0.104078 8.07682e-22)
(0.905861 -0.103263 -1.87258e-22)
(1.01309 -0.00074344 1.00477e-22)
(1.01307 -0.000787143 3.91663e-22)
(1.01653 0.00141207 -1.53389e-21)
(1.01637 0.00130103 -1.42644e-22)
(1.01637 0.00112238 -7.14617e-22)
(1.00376 -3.26392e-05 -2.17494e-22)
(1.00377 2.38463e-05 0)
(1.01674 0.00150706 -6.59538e-22)
(1.0169 0.00148175 5.50252e-24)
(1.01664 0.00125843 1.33754e-21)
(1.0138 -0.00285859 -1.05834e-21)
(1.0145 -0.00254647 -9.18443e-22)
(1.01369 -0.00215989 1.11157e-21)
(1.013 -0.00315926 0)
(1.01406 -0.00386321 0)
(0.905043 0.251248 0)
(0.878644 0.26268 0)
(0.889026 0.272703 0)
(1.01679 0.00175942 -9.66513e-22)
(1.06588 -0.114893 0)
(1.08275 -0.116606 0)
(1.07263 -0.101384 0)
(1.02402 -0.00752797 -5.03676e-22)
(1.02374 -0.00740226 -1.21335e-22)
(1.02383 -0.00773248 -8.952e-23)
(1.05384 0.0747788 -7.21716e-21)
(1.04257 0.0928723 4.04079e-21)
(1.05587 0.0816008 4.88844e-21)
(1.01586 0.00229891 0)
(1.01575 0.00222617 2.09299e-23)
(1.01687 -0.000346708 -2.77108e-22)
(1.01677 0.000224753 -1.49632e-21)
(1.01762 8.85986e-05 -1.56232e-21)
(1.01285 -0.000573296 -2.17338e-22)
(1.01306 -0.00065624 1.15931e-21)
(1.0178 0.00178418 -6.84079e-22)
(1.0176 0.0019417 -1.3883e-21)
(1.01813 0.00219819 -5.06841e-22)
(1.01498 -0.000690807 -1.18799e-21)
(1.01536 -0.000722315 -3.24502e-22)
(1.01499 -0.000394366 -1.30481e-21)
(0.979921 -0.0450065 8.93773e-22)
(0.985869 -0.0467435 3.20496e-22)
(0.98376 -0.0408398 3.80538e-22)
(1.02679 -0.00214092 -2.80201e-22)
(1.02705 -0.00264729 0)
(0.989 -0.0266867 -5.61309e-21)
(0.987091 -0.0299354 -2.97422e-21)
(0.992344 -0.0299828 -3.4449e-21)
(1.06349 0.0543576 -4.54873e-21)
(1.05089 0.0662145 1.75689e-22)
(1.09558 0.0204398 1.22288e-21)
(1.09128 -0.0140885 2.48578e-21)
(1.08143 0.0340109 -1.79597e-21)
(1.00897 8.63847e-05 -6.77468e-22)
(1.00896 5.3281e-05 2.21155e-22)
(1.00656 4.74889e-05 -7.4256e-22)
(0.97403 -0.0421136 -7.18044e-22)
(0.968526 -0.0385487 3.31837e-22)
(0.973133 -0.0346655 5.33545e-23)
(1.10731 -0.158441 -1.04132e-22)
(1.13437 -0.164067 0)
(1.11455 -0.187396 0)
(1.00757 -3.14506e-05 1.01363e-21)
(1.00592 5.77478e-05 1.18768e-21)
(1.02434 -0.00731148 4.04601e-22)
(1.02417 -0.00765332 -4.03493e-22)
(1.01236 -0.0014032 9.23764e-22)
(1.01239 -0.00147043 1.774e-21)
(1.01248 -0.00155158 -1.6044e-22)
(1.01084 8.16501e-05 -9.20321e-22)
(1.01037 3.26587e-05 7.38222e-22)
(1.01121 0.000120356 2.76901e-22)
(0.991622 -0.0230384 3.23032e-21)
(0.986582 -0.0214286 4.95166e-21)
(1.00631 4.3371e-05 1.00478e-21)
(1.00348 -4.11072e-05 9.11191e-22)
(1.01156 -0.000502454 -6.5015e-22)
(1.01222 -0.000439963 -4.52507e-22)
(1.01158 -0.000483297 -9.15062e-23)
(1.00918 -0.000120316 -1.8817e-21)
(1.00838 -0.000169575 -4.05521e-22)
(1.01 -9.49842e-05 -8.5205e-22)
(1.00929 -0.00028603 4.74962e-23)
(1.01164 -0.00042365 -6.88397e-23)
(1.01266 -0.000508984 1.05793e-22)
(0.975553 -0.0499533 -4.99795e-22)
(1.01083 -0.0538539 8.58471e-22)
(1.00235 -0.0567218 -6.45644e-21)
(1.00451 -0.0464143 1.24435e-21)
(0.940626 0.0701613 -1.31605e-21)
(0.927455 0.0637151 -4.49348e-22)
(0.94498 0.057227 0)
(1.0132 -0.00100566 -1.03918e-22)
(1.0131 -0.000963978 2.86632e-22)
(0.961259 -0.0362458 -4.93921e-22)
(0.963346 -0.0449258 1.5453e-22)
(0.991988 -0.0987621 -6.7769e-21)
(0.996336 -0.105301 2.2664e-21)
(0.99999 -0.0981834 -5.29036e-21)
(1.01732 -0.0148707 -3.34413e-22)
(1.01658 -0.0154829 -2.92426e-22)
(1.01777 -0.0160636 -1.02617e-21)
(1.02511 -0.00569914 7.1399e-22)
(1.02485 -0.0054293 -1.38228e-21)
(1.02469 -0.00568188 2.97014e-23)
(0.855001 -0.0930429 -5.75096e-21)
(0.849812 -0.109615 3.35747e-22)
(0.869449 -0.100707 -1.38365e-21)
(0.988151 -0.209729 3.43068e-21)
(0.980811 -0.230306 -5.67146e-21)
(0.965115 -0.215721 4.86746e-21)
(1.02147 0.000131107 2.77227e-23)
(1.02107 0.000184448 0)
(1.04779 -0.174429 4.34405e-21)
(1.05757 -0.167309 -4.53125e-21)
(1.04535 -0.164075 -1.24854e-21)
(0.846568 0.306196 4.91858e-22)
(0.830324 0.313203 -7.74733e-21)
(0.85277 0.328761 3.15322e-23)
(1.01232 -0.00136415 -1.41433e-21)
(1.01225 -0.00128979 -6.47867e-22)
(1.00924 8.42887e-06 -1.29154e-21)
(1.00869 9.22052e-05 -4.09135e-22)
(1.01015 1.88239e-05 -1.1067e-21)
(1.02064 -0.0142084 0)
(1.0202 -0.0149123 0)
(1.02133 -0.0151167 0)
(0.84492 0.151078 -6.8965e-23)
(0.82274 0.165564 1.42201e-21)
(0.828996 0.136104 1.47871e-21)
(1.01427 -0.000405336 1.05457e-23)
(1.01489 -0.000535441 -1.06699e-21)
(1.01397 -0.000407283 4.60249e-23)
(0.567465 -0.246952 -2.09918e-21)
(0.538681 -0.221185 -1.27391e-20)
(1.09659 0.0427213 -8.4891e-21)
(1.10118 0.0122867 8.52668e-21)
(1.09896 0.0119607 5.50525e-21)
(0.867631 0.131466 -3.8954e-21)
(0.867382 0.156484 -1.71133e-21)
(0.886301 0.118793 -7.26542e-21)
(0.90404 0.105942 1.56311e-21)
(0.904677 0.12268 -7.20169e-22)
(0.914659 -0.0783815 -2.14939e-21)
(0.92879 -0.0812889 -7.0519e-23)
(1.00775 -0.0954823 3.25716e-21)
(1.01577 -0.0912146 -6.03442e-21)
(0.838827 -0.0848098 2.73036e-21)
(0.858873 -0.0749585 -1.19661e-21)
(1.01192 0.00023339 0)
(1.01233 0.000298439 -2.40958e-23)
(1.01306 0.000442605 -3.75482e-23)
(1.01488 -0.00391486 -8.27701e-23)
(1.01509 -0.00412027 -8.84379e-22)
(1.01491 -0.00411372 -1.59001e-21)
(1.05559 0.00273324 2.465e-21)
(1.05446 -5.5924e-05 -2.01737e-22)
(1.05371 0.014549 6.96488e-22)
(0.95692 -0.0296334 -1.05523e-21)
(0.951931 -0.0362305 -1.92509e-21)
(0.865193 0.291759 5.49734e-21)
(0.843934 0.280104 3.07938e-22)
(1.02164 -0.000107518 -8.51049e-23)
(1.02181 -0.000368008 1.2655e-22)
(1.02135 -0.00026073 -5.15853e-23)
(1.01764 0.00277153 3.27691e-23)
(1.01763 0.00255557 6.25597e-23)
(1.01803 0.0026923 9.80865e-23)
(1.01865 0.00449122 1.15761e-21)
(1.01768 0.00444732 -1.94799e-21)
(1.01785 0.00374052 -1.3523e-21)
(1.01673 -0.000450413 9.93302e-22)
(1.01659 -2.67464e-06 8.06319e-22)
(1.0161 -0.00037015 5.41059e-22)
(1.09228 0.0693161 -1.97756e-21)
(1.08846 0.0636511 2.20281e-21)
(1.01577 0.00567274 0)
(1.01489 0.00516639 0)
(1.01549 0.00477395 6.60696e-22)
(0.955963 -0.0699449 8.01368e-22)
(0.94939 -0.100413 0)
(0.943092 -0.0739428 7.61669e-22)
(1.04247 -0.0218218 2.05997e-22)
(1.03993 -0.0284989 0)
(1.03627 -0.0216855 -2.9742e-22)
(0.994662 -0.0204301 -6.77349e-22)
(0.996829 -0.023848 -1.86143e-21)
(1.02622 -0.0448175 -4.38434e-22)
(1.0189 -0.0503999 3.9986e-22)
(1.01938 -0.0401848 0)
(1.01744 -0.000584862 -1.6957e-22)
(1.01683 -0.00102309 0)
(1.02193 -0.000595707 2.26606e-22)
(1.02204 -0.000844736 -2.78324e-23)
(1.02161 -0.000728773 -7.46422e-24)
(1.02013 -0.0134305 1.03458e-22)
(1.01971 -0.0125522 1.00748e-22)
(1.0192 -0.0130412 7.83769e-22)
(1.01283 0.00496511 -6.32517e-22)
(1.01343 0.00571894 -5.5764e-23)
(1.01247 0.00588442 -2.2805e-22)
(0.98162 -0.00472046 1.06221e-20)
(0.99737 -0.00381376 2.24372e-21)
(0.734106 -0.177577 -5.082e-22)
(0.69601 -0.183573 -1.66722e-21)
(0.727436 -0.155504 -5.00181e-21)
(1.01573 0.00233534 -5.74808e-22)
(1.01592 0.00256051 5.98506e-22)
(1.01604 0.00235744 -5.61323e-22)
(1.06944 0.0353083 5.28893e-21)
(1.07298 0.0393523 -3.85254e-22)
(1.02114 -0.0135866 0)
(1.04918 -0.0215124 -5.39e-21)
(1.04365 -0.0157153 2.54593e-22)
(0.994276 -0.190485 9.91519e-22)
(1.00975 -0.202065 0)
(0.967501 -0.0691889 -7.07868e-21)
(0.961575 -0.0342056 3.32398e-21)
(1.01544 0.00227203 -1.08731e-23)
(1.01554 0.00213138 -5.34123e-22)
(1.01563 0.000963803 4.32406e-22)
(1.01578 0.00107056 -6.20536e-22)
(1.01549 0.00104789 3.04578e-24)
(1.01578 0.000868718 4.38089e-23)
(1.01549 0.00085406 6.65628e-22)
(1.0106 0.00142058 -1.44923e-21)
(1.01055 0.00215532 -8.79401e-23)
(1.01002 0.00162652 1.34801e-21)
(1.01329 0.00115634 -1.77948e-21)
(1.01339 0.0012924 -4.01139e-22)
(1.01334 0.00119763 -1.27355e-21)
(1.01323 0.00111929 -5.60408e-22)
(1.01319 0.0010444 1.20973e-21)
(1.01733 0.00279495 7.22765e-24)
(1.01761 0.0029809 1.11547e-24)
(0.996994 -0.018239 1.6352e-22)
(0.993034 -0.0164796 -4.46926e-21)
(1.01963 -0.0119985 -2.20582e-22)
(1.02034 -0.0122624 -7.10384e-22)
(1.00848 6.75978e-05 -4.86271e-22)
(1.00901 -3.25442e-05 8.06312e-22)
(1.00987 -3.49677e-05 2.45803e-22)
(1.01703 -0.0137948 -4.0232e-22)
(1.01806 -0.0142461 -5.97834e-23)
(0.961966 -0.06018 2.89339e-21)
(0.949117 -0.0549867 -7.03019e-21)
(0.961737 -0.044309 2.57014e-21)
(1.01166 0.000237108 0)
(1.0106 0.000101759 -4.30645e-23)
(1.01678 -0.128738 -2.73838e-22)
(1.00478 -0.122488 -1.86703e-23)
(1.00298 -0.13784 6.97296e-22)
(1.01966 0.000374337 0)
(1.01996 0.000294994 0)
(1.04337 -0.295395 -8.44412e-21)
(1.02065 -0.267625 3.97517e-21)
(1.01012 -0.29485 -8.48833e-21)
(0.988429 -0.0922392 2.66256e-21)
(0.983842 -0.0995016 2.31683e-21)
(1.02194 3.0664e-05 2.78697e-23)
(1.09043 -0.0767708 5.7282e-21)
(1.07761 -0.111233 1.09975e-20)
(1.08346 -0.103769 -1.08496e-20)
(0.951599 -0.0234901 8.28119e-22)
(0.960816 -0.0232336 -3.08658e-21)
(1.01674 0.00598118 0)
(1.01598 0.00671951 0)
(1.06505 0.0323236 2.4664e-22)
(1.07326 0.0186192 6.36247e-22)
(0.972819 -0.0639682 -1.57307e-21)
(0.962925 -0.0757721 1.80583e-21)
(1.0073 0.000131053 -2.31964e-23)
(1.0045 4.4532e-05 -6.18118e-23)
(1.00464 4.00201e-05 -5.04056e-23)
(1.0197 -0.00243042 -7.27536e-25)
(1.01995 -0.00259434 2.20524e-24)
(1.01995 -0.00236735 1.0616e-23)
(1.01194 -0.0139421 1.11131e-21)
(1.01279 -0.0152497 -8.03475e-22)
(1.02665 -0.00830571 1.10162e-21)
(1.02632 -0.00858293 1.19609e-21)
(1.02619 -0.00801623 -5.47933e-23)
(1.05559 -0.12832 3.91623e-23)
(1.05143 -0.113243 0)
(1.06306 -0.0713403 -1.12282e-20)
(1.06595 -0.0674195 3.6871e-21)
(1.06095 -0.0673155 2.85228e-21)
(1.03186 -0.0396844 2.87669e-22)
(1.03378 -0.0493578 -4.57347e-22)
(1.01969 0.00425773 6.51799e-22)
(1.01944 0.00531661 -3.77095e-22)
(1.01605 -0.00368829 5.30201e-22)
(1.01613 -0.00357069 0)
(1.01589 -0.00352625 0)
(1.01037 0.000138091 -1.48085e-22)
(1.00994 0.000158182 3.07946e-22)
(1.01151 0.000218444 -3.18022e-22)
(1.02225 -0.000474556 -2.94172e-23)
(1.016 -0.00378086 4.68001e-22)
(1.01621 -0.00383312 -1.34991e-22)
(1.00987 -0.00177119 4.28262e-23)
(1.00998 -0.00257794 1.76931e-22)
(1.01044 -0.00218863 3.89017e-22)
(1.02632 -0.00192274 -2.49475e-22)
(1.02663 -0.00166851 1.20072e-21)
(1.02213 -0.00108845 2.13561e-24)
(1.02224 -0.00136251 2.48937e-23)
(1.02183 -0.00120966 1.55785e-22)
(1.01237 -0.00023422 1.08173e-21)
(1.01444 -0.000369504 8.30594e-23)
(1.00861 -2.56859e-05 1.14056e-21)
(1.00998 -0.000157164 -2.42875e-21)
(1.01947 0.000199267 -1.24122e-22)
(1.01931 0.000399011 7.88054e-24)
(1.01348 3.21894e-06 0)
(1.01364 -1.40039e-05 0)
(1.01356 9.61343e-06 0)
(1.01946 -0.00247344 8.95118e-23)
(1.01945 -0.00227119 6.42462e-24)
(1.01692 -0.00138341 6.12734e-22)
(1.01699 -0.000857377 -1.45773e-22)
(1.01763 -0.00119343 1.75779e-23)
(1.01173 -0.00048074 3.2702e-24)
(1.01194 -0.000476138 -9.65527e-22)
(1.01156 -0.00047344 1.05301e-22)
(1.01621 0.000523353 -1.00969e-22)
(1.01605 0.000477012 -4.55572e-22)
(1.01626 0.00039566 -4.11769e-22)
(1.01629 0.00148976 8.10357e-22)
(1.01618 0.0011104 -9.06047e-22)
(1.01579 0.0014172 -6.81729e-23)
(1.01613 0.00175549 8.56115e-22)
(1.01586 0.001994 3.02121e-22)
(1.04844 -0.0351794 0)
(1.04125 -0.0409313 1.36854e-22)
(1.04038 -0.0499297 0)
(1.01609 0.000644308 8.165e-22)
(1.01642 0.000579581 4.16723e-22)
(1.01464 0.00202783 -1.00597e-21)
(1.01489 0.00211973 -3.56277e-22)
(1.01473 0.00220125 5.97432e-22)
(0.757465 -0.183805 1.82616e-21)
(0.733655 -0.203211 5.9309e-21)
(0.7686 0.373581 0)
(0.785691 0.360489 -3.20703e-21)
(0.78492 0.387826 7.99324e-21)
(1.01118 0.000244453 -6.66983e-22)
(1.00922 3.55456e-05 -8.72653e-23)
(0.7523 0.351236 -5.71424e-23)
(0.744153 0.37396 0)
(0.543206 0.0435897 -2.071e-21)
(0.555514 -0.0016829 -2.8685e-21)
(1.01439 0.00193098 0)
(1.01452 0.00188588 0)
(1.00928 0.000190159 -1.92219e-23)
(1.00917 0.000196178 2.05527e-22)
(1.0119 -4.14071e-06 4.07537e-22)
(1.01133 -2.38417e-05 3.42295e-22)
(1.01233 2.92311e-05 0)
(1.01682 -0.00181791 0)
(1.01639 -0.00144363 -2.91046e-23)
(1.01595 0.000770232 -2.7006e-23)
(1.0158 0.000675325 3.20581e-22)
(1.01184 -0.000497089 -1.3985e-22)
(1.01153 -0.000383084 -7.57106e-22)
(1.0121 -0.00113586 2.28695e-22)
(1.01204 -0.00103789 1.04493e-21)
(1.01464 -0.000610696 -1.02323e-21)
(1.01482 -0.000959888 -1.40138e-21)
(1.01732 0.00106636 -7.46879e-22)
(1.01736 0.000898938 -8.65898e-23)
(1.01773 0.00109403 -6.49253e-22)
(0.933473 0.234557 4.66659e-21)
(0.97064 0.211316 -1.18125e-21)
(0.949734 0.234162 -3.26333e-21)
(1.05234 -0.024848 3.90415e-21)
(1.05536 -0.00992288 1.4286e-21)
(1.05177 -0.0261003 -4.57896e-22)
(1.09347 -0.135468 -1.1257e-22)
(1.10331 -0.116615 -1.98594e-21)
(1.01823 -0.0617345 3.82601e-21)
(1.01444 -0.0119822 -3.9691e-22)
(1.0162 -0.0122657 6.88644e-22)
(1.01538 -0.0106181 1.26038e-22)
(1.01753 0.00146672 1.4457e-21)
(1.01797 0.00155043 1.40966e-21)
(1.01137 0.000601133 0)
(1.0114 0.00109328 1.48845e-21)
(1.01166 0.000966913 3.74353e-22)
(1.0134 -0.00291312 -4.66919e-22)
(1.01345 -0.00316887 -2.99276e-22)
(1.01349 -0.00283477 -5.58584e-23)
(0.794913 -0.0143799 -7.08464e-21)
(0.817168 0.0235838 8.5121e-21)
(0.79651 0.045699 0)
(1.05084 -0.020595 5.04959e-22)
(1.04772 -0.0395267 2.83136e-22)
(0.794307 -0.0761187 3.43447e-21)
(0.785273 -0.0439 -8.11012e-21)
(1.02723 -0.00775145 0)
(1.02696 -0.00812104 -9.51772e-23)
(1.02675 -0.00748584 8.80443e-23)
(0.923015 0.229033 -1.43646e-21)
(1.02247 -0.000973735 -3.69727e-22)
(1.01545 0.00203795 4.91047e-23)
(1.01537 0.00194389 -5.67262e-23)
(1.01529 0.00194439 -1.28517e-22)
(1.016 -0.00425711 1.04651e-21)
(1.01621 -0.00442215 5.3165e-22)
(1.01612 -0.004174 0)
(1.023 -0.0328017 -6.93416e-22)
(1.02039 -0.0334898 -6.06725e-21)
(1.02293 -0.0353066 6.79507e-21)
(1.11784 -0.40591 3.44507e-20)
(1.1179 -0.442394 -1.88772e-20)
(1.1539 -0.426952 -2.88754e-20)
(1.03577 -0.0108838 -2.77584e-21)
(1.03526 -0.0100931 -2.52058e-21)
(1.03476 -0.0108508 -4.59452e-21)
(1.01613 0.000856465 -3.99655e-22)
(1.01636 -0.000630204 2.60835e-21)
(0.912474 0.29504 4.74296e-21)
(0.897801 0.305694 9.45278e-22)
(0.907779 0.311129 -7.3633e-21)
(1.01482 -0.00374153 1.62981e-21)
(1.01468 -0.00371037 1.45055e-21)
(1.03782 -0.180997 -9.43043e-22)
(1.05106 -0.186606 1.60132e-20)
(1.01586 -0.0043188 -3.61495e-23)
(1.0158 -0.00407127 -2.92976e-22)
(1.01943 -0.00291362 -7.03023e-23)
(1.01918 -0.00294484 -1.04768e-22)
(1.0194 -0.00312935 1.15832e-22)
(1.01725 0.00122726 -7.47924e-23)
(1.01699 0.00102865 2.29431e-23)
(1.02772 -0.00808734 1.05658e-21)
(1.02753 -0.00746689 0)
(1.01716 -0.000234453 3.16882e-24)
(1.01716 -0.000316242 0)
(1.01731 -0.00024788 -6.60299e-22)
(0.955518 0.075141 -1.36994e-21)
(0.939168 0.0837222 1.91003e-21)
(1.02997 -0.135338 2.12225e-21)
(1.02821 -0.119786 4.55137e-22)
(0.866376 0.108422 -1.56821e-21)
(1.02548 -0.0325221 -9.75423e-22)
(1.02333 -0.030832 1.50608e-21)
(0.881967 0.135106 0)
(0.903464 0.120347 -7.5563e-21)
(0.923269 0.130399 -4.42808e-21)
(1.01293 0.00238841 0)
(1.0126 0.00233591 0)
(1.01267 0.00201326 1.35919e-21)
(0.569205 0.114961 0)
(0.571392 0.103671 0)
(1.01341 -1.10736e-06 5.79395e-22)
(1.01323 3.70007e-06 0)
(1.02589 -0.00176864 0)
(1.02612 -0.00215824 -6.92515e-22)
(1.01355 0.176472 5.18014e-22)
(1.04061 0.146121 -2.37956e-20)
(1.05266 0.132706 8.91598e-21)
(0.99704 -0.246304 -2.56958e-21)
(0.973332 -0.249604 -5.12669e-21)
(1.0162 -0.0034783 0)
(1.01606 -0.00330768 0)
(1.01628 -0.00337293 6.14752e-24)
(1.02231 -0.00160617 4.93937e-23)
(1.02264 -0.00149506 0)
(1.017 0.00280411 0)
(1.01707 0.00268626 3.42443e-23)
(1.08061 -0.151749 2.02608e-22)
(1.01603 0.0003424 1.87285e-21)
(1.01598 0.000435597 0)
(1.01607 0.000419068 8.56573e-22)
(0.999355 -0.016307 1.72133e-21)
(1.00076 -0.0190449 -1.19541e-21)
(1.02719 -0.0120508 1.30216e-22)
(1.0266 -0.0115645 2.44241e-21)
(1.02723 -0.0113428 1.83535e-21)
(1.00607 -0.0293531 -1.66616e-21)
(1.00948 -0.030624 -3.39223e-21)
(1.00641 -0.0325872 7.46879e-22)
(0.970278 0.0758361 -1.03278e-21)
(0.971193 0.0653073 0)
(0.913772 0.0540812 1.50423e-21)
(0.908645 0.0703346 -4.40177e-22)
(1.02529 -0.00614557 1.39712e-22)
(1.02558 -0.0058268 6.58922e-22)
(0.857386 0.14909 2.30913e-21)
(0.836505 0.135631 -2.65366e-21)
(1.01157 3.72572e-05 1.72936e-22)
(1.01241 3.08118e-07 -2.68548e-22)
(1.01099 -0.000236048 -7.01216e-22)
(1.01089 -0.000736091 4.56027e-22)
(1.01121 -0.000643911 -2.10089e-21)
(0.930075 0.289446 4.70857e-21)
(0.917892 0.276797 3.56742e-21)
(1.01677 0.00279137 -7.31093e-23)
(1.01695 0.00292266 2.08875e-22)
(0.75015 0.00960623 -9.67888e-21)
(0.733513 0.0113281 9.54715e-21)
(0.744054 -0.0341397 2.86171e-21)
(0.935804 0.0003857 3.362e-21)
(0.942404 0.00860115 -2.41381e-21)
(0.930309 0.011254 -1.91041e-21)
(1.02054 -0.00174096 6.65627e-23)
(1.02079 -0.00164286 4.4717e-24)
(1.02043 -0.00155295 2.97864e-23)
(1.02704 -0.00867468 -8.20857e-23)
(1.01713 -0.000151092 4.87092e-25)
(1.01702 -0.000222114 7.13906e-22)
(1.03692 -0.033696 -5.89511e-23)
(1.04423 -0.0354714 0)
(0.99163 0.186905 -4.91474e-21)
(1.01531 -0.0148444 1.02946e-22)
(1.01521 -0.013527 -5.21187e-23)
(1.01419 0.0018287 0)
(1.01409 0.00170288 1.10501e-21)
(1.01399 0.00171991 1.24156e-21)
(0.940773 -0.00836013 4.98649e-22)
(0.929252 -0.00700709 -4.12389e-21)
(1.01275 -0.0818299 8.57882e-21)
(1.00636 -0.083512 6.33664e-22)
(1.00876 -0.0775932 0)
(1.01581 0.00232968 -4.18535e-23)
(1.01597 0.00242839 -1.4422e-23)
(1.01559 0.0021264 4.96538e-23)
(1.01568 0.00211427 1.86436e-23)
(1.03679 -0.011034 7.31227e-21)
(1.03608 -0.0119612 4.7192e-21)
(1.01292 1.737e-05 1.70344e-22)
(1.01321 -1.38904e-05 2.89785e-22)
(1.01286 2.22135e-05 1.91854e-23)
(1.04861 -0.0859625 5.16538e-21)
(1.05306 -0.0824233 1.26354e-20)
(1.0472 -0.0808815 7.33788e-21)
(0.770491 0.00658834 2.20749e-21)
(0.757685 0.0466141 3.55504e-21)
(1.0193 5.80125e-05 -3.01098e-23)
(1.01901 9.30806e-05 1.10057e-22)
(1.01914 -7.50834e-05 -5.24092e-24)
(1.01364 -0.00279143 -1.39636e-21)
(1.0136 -0.00281586 1.42596e-21)
(1.0136 -0.00262248 6.38557e-22)
(0.979276 -0.178611 1.1895e-21)
(0.997768 -0.172257 -2.17177e-21)
(1.01165 0.00286312 2.85656e-22)
(1.01225 0.00311107 -9.61798e-22)
(1.01194 0.00363259 -5.89041e-22)
(1.00114 -0.0147363 1.4183e-22)
(0.998282 -0.0133178 -1.10975e-21)
(1.01612 0.000561578 2.5348e-21)
(1.01615 0.00079336 -3.54634e-23)
(1.01618 0.000746456 7.79395e-22)
(1.01361 -0.00233243 0)
(1.01361 -0.00221189 -8.76595e-23)
(1.01364 -0.00219867 0)
(1.10061 0.0138673 1.02721e-20)
(1.0946 0.055179 -2.75246e-21)
(1.01365 -0.00274774 -6.69605e-22)
(1.01362 -0.00258387 1.2975e-21)
(1.01366 -0.00270614 1.29534e-21)
(1.01516 0.00220383 5.56944e-22)
(1.01501 0.00202766 -3.61398e-23)
(1.01189 -0.000907158 1.23289e-22)
(1.01189 -0.000952998 2.09312e-21)
(1.0166 -0.00227982 0)
(1.01723 -0.00229633 6.93367e-24)
(1.01529 0.00241479 5.60085e-22)
(1.01013 -2.85762e-06 0)
(1.0087 0.00011202 0)
(1.02245 -0.00740825 9.5126e-24)
(1.02251 -0.00723383 -5.3088e-23)
(1.02268 -0.00743789 3.28185e-23)
(1.02448 -0.0194302 7.63415e-22)
(1.02592 -0.0195465 1.78879e-21)
(1.02503 -0.0183527 3.56128e-22)
(0.984959 -0.0847176 -1.61462e-21)
(0.992531 -0.0848936 -6.70209e-22)
(1.06023 -0.0753436 -7.20412e-21)
(1.05681 -0.0790659 0)
(1.05507 -0.0744734 -1.68028e-21)
(1.01353 -0.00219056 7.06155e-22)
(1.01348 -0.00216288 -6.02943e-23)
(1.01349 -0.00209744 -2.1126e-21)
(1.02588 -0.00697953 1.11253e-21)
(1.02603 -0.00753116 3.57896e-22)
(1.02666 -0.00696195 -5.58939e-22)
(1.01353 -0.00339609 -8.26121e-22)
(1.01362 -0.00328498 1.2352e-23)
(1.01365 -0.00362582 1.71184e-21)
(1.02314 -0.0192587 -2.07652e-22)
(1.02402 -0.0207198 1.5618e-21)
(1.00794 -0.00811208 0)
(1.00809 -0.00952525 0)
(1.00904 -0.00880991 1.49166e-21)
(1.01597 0.000253291 -1.24846e-21)
(1.016 0.000284716 1.27535e-21)
(1.01587 0.000322218 -8.16127e-22)
(0.927381 -0.197195 -1.43579e-21)
(0.915105 -0.191735 3.16686e-21)
(0.912339 -0.211628 -5.5922e-21)
(1.01368 -0.00295033 -6.03096e-22)
(0.977118 -0.0845805 -1.16564e-21)
(0.982226 -0.0777397 2.82672e-21)
(1.00899 8.75996e-05 6.4361e-22)
(1.01052 -3.25003e-05 -4.47293e-22)
(1.00954 -1.20954e-05 1.45156e-21)
(1.01362 -0.0136774 -1.06604e-21)
(1.01244 -0.0116354 -2.61683e-22)
(1.01627 0.00264515 0)
(1.01644 0.00269243 8.92165e-23)
(1.01633 0.00264826 0)
(1.01617 0.00263536 0)
(1.01613 0.00256405 1.31332e-23)
(1.00282 -0.0280275 -1.72222e-22)
(1.00637 -0.0262569 -1.51529e-22)
(1.06979 0.105222 2.59071e-21)
(1.03272 0.156034 -2.46432e-20)
(1.01916 -0.0115405 4.38031e-23)
(1.01846 -0.0114519 3.41823e-22)
(1.01876 -0.0108504 -3.91676e-22)
(1.0161 0.000191759 7.63576e-23)
(1.01594 0.00023851 -6.1277e-22)
(1.01581 0.000421063 3.61068e-22)
(1.01584 0.000495552 -2.04719e-23)
(1.01562 0.000437959 7.29044e-22)
(1.02349 0.000244763 0)
(1.0222 -0.00100276 -7.30635e-22)
(1.02402 -0.00110249 -1.87043e-22)
(1.02101 -0.0015338 -7.0953e-23)
(1.02127 -0.00143461 -2.25415e-23)
(1.0209 -0.00131337 -3.07965e-23)
(1.01936 -0.0113035 -6.41481e-22)
(1.01883 0.0166883 -1.31675e-21)
(1.00943 0.0012055 -1.01867e-21)
(1.02112 -0.0394726 1.34085e-21)
(1.02951 -0.0243629 1.17967e-21)
(1.01636 -0.00363251 4.92496e-22)
(1.04421 -0.141359 1.18454e-21)
(1.03007 -0.153559 2.31214e-21)
(1.01661 -0.000380174 0)
(1.01658 -0.000343558 0)
(1.01665 -0.000339089 0)
(1.06552 -0.0758134 -6.85371e-21)
(1.01635 -0.00264349 -7.436e-24)
(1.01611 -0.00221176 0)
(1.01585 0.00244026 5.19592e-23)
(1.01585 0.0023902 -4.73699e-23)
(1.01598 0.00248873 -1.99506e-23)
(1.00815 -2.44452e-05 5.17563e-22)
(1.00597 -1.48776e-05 -9.58188e-22)
(1.0081 1.91709e-05 -1.76195e-22)
(1.01132 6.519e-05 -8.48891e-22)
(1.01053 0.000104693 5.63385e-22)
(1.02036 -0.00187474 2.88334e-23)
(1.02065 -0.00193501 -4.5099e-24)
(1.02238 -0.00758118 -1.65614e-22)
(1.0222 -0.0073688 -1.17363e-22)
(1.01638 -0.0159871 -2.23103e-22)
(1.01792 -0.0166032 -2.2583e-21)
(1.01736 -0.0150328 0)
(1.01089 -0.000302933 -4.49054e-22)
(1.01062 -0.000212464 1.41136e-21)
(1.01113 -0.00032856 1.46902e-23)
(1.02202 -0.00171127 2.80857e-22)
(1.02238 -0.00186193 -2.27052e-22)
(1.01962 1.6794e-05 -1.67131e-22)
(1.09135 -0.049036 -4.68437e-21)
(1.09815 -0.0492214 0)
(1.01742 -0.0123312 8.32835e-23)
(1.01677 -0.0127643 -4.79548e-22)
(1.01662 -0.0119254 7.56519e-23)
(1.006 -0.000134529 9.86741e-22)
(1.01088 8.69003e-05 -1.58419e-22)
(1.00919 0.000162001 1.47434e-22)
(1.01 0.000100052 -2.41219e-22)
(1.00997 -0.00103696 1.92761e-22)
(1.00932 -0.0013 -1.66515e-21)
(1.02532 -0.00893037 -4.99523e-22)
(1.025 -0.00897582 7.79156e-23)
(1.02504 -0.00861122 -5.20619e-22)
(1.01455 -0.0152352 -1.06438e-21)
(1.01519 -0.0172329 1.04285e-21)
(1.01621 -0.0006189 5.26363e-22)
(1.01624 -0.000719617 -4.10761e-22)
(1.01631 -0.000637808 -2.17734e-22)
(0.923697 0.246997 -1.31004e-20)
(0.905308 0.296344 3.07515e-20)
(0.93801 0.249473 1.41159e-20)
(1.01426 0.00196376 6.54806e-22)
(0.943409 0.291031 1.33105e-21)
(0.925772 0.29994 4.12011e-21)
(0.937659 0.282592 -9.13156e-23)
(0.995227 -0.209453 1.83258e-21)
(0.993375 -0.175148 -1.35373e-21)
(0.975174 -0.215257 2.58778e-21)
(1.00624 5.50381e-05 1.76706e-21)
(1.00807 8.22827e-05 8.84995e-22)
(1.00806 1.6378e-05 -2.0837e-22)
(1.00876 -7.4393e-05 6.33427e-23)
(1.00954 -0.000133746 -2.11617e-22)
(1.01609 0.000236774 0)
(1.0161 0.000293158 -3.54783e-22)
(1.01633 0.000196764 0)
(1.02489 0.00155232 0)
(1.02256 0.00181358 -1.27669e-21)
(1.01972 -0.00850063 -6.59647e-23)
(1.01945 -0.00943053 7.02499e-22)
(1.02033 -0.00902629 3.68222e-22)
(1.01604 -0.00292855 -7.22181e-22)
(1.01562 -0.00277211 -9.45349e-22)
(1.01572 -0.00313889 -8.79996e-22)
(0.958643 0.277771 -2.33509e-21)
(0.943045 0.2994 -2.07311e-21)
(1.01625 -0.0003277 0)
(1.01588 -0.000371411 0)
(1.01642 -0.000184876 0)
(1.01607 0.00021037 0)
(1.01592 0.000286288 1.24392e-21)
(1.02009 -0.00757084 2.43902e-22)
(1.0189 -0.00774149 2.43204e-23)
(1.02199 -0.00831593 2.21564e-23)
(1.02228 -0.00825757 4.83894e-25)
(1.02227 -0.00852195 2.14075e-23)
(1.02236 -0.0061817 7.3542e-23)
(1.02213 -0.0059983 -2.14407e-23)
(1.02244 -0.00598456 3.84351e-23)
(1.01302 0.00432828 -1.80319e-21)
(1.01228 0.00430759 0)
(1.03026 -0.0314551 7.30122e-22)
(1.01394 -0.00182109 -1.93896e-22)
(1.01406 -0.00177008 0)
(1.01404 -0.00182129 0)
(1.02143 -0.00219816 -1.18048e-21)
(1.02209 -0.00320622 -1.38073e-22)
(1.02066 -0.00340685 -9.41046e-22)
(1.02713 -0.0126285 -2.32372e-21)
(1.0278 -0.0124056 -4.28077e-21)
(1.01349 -0.00186581 5.34564e-22)
(1.01359 -0.00187549 -1.76089e-22)
(1.01353 -0.00186363 7.22469e-22)
(1.05491 0.00797549 3.64638e-22)
(0.846575 0.203236 -3.45845e-21)
(0.861807 0.184565 1.44644e-20)
(0.884504 0.193159 1.04002e-20)
(1.05373 -0.0112055 -3.53157e-22)
(1.05273 -0.000459367 2.10368e-23)
(1.01657 0.00274106 -1.62308e-22)
(1.01652 0.00279104 -3.89724e-22)
(1.09249 -0.39064 -5.44309e-21)
(1.11992 -0.383088 3.59962e-20)
(1.0247 -0.0089737 1.34134e-22)
(1.02443 -0.00895032 -1.68885e-22)
(1.0245 -0.00866377 -5.13117e-22)
(0.819545 0.31005 -6.54453e-21)
(0.806672 0.290064 1.87776e-21)
(0.946835 -0.0171155 8.6543e-22)
(0.941149 -0.0229799 -2.49174e-21)
(1.01677 0.000630051 3.8535e-22)
(1.01651 0.00053853 -7.29597e-22)
(1.01675 0.000483904 -3.72516e-22)
(1.04255 -0.0152675 -1.62336e-22)
(1.04334 -0.0168044 3.71115e-21)
(0.951783 -0.00960257 0)
(1.01105 0.00128688 -1.31505e-21)
(1.01065 0.000785593 -4.3946e-21)
(1.00302 -0.0133522 -1.46135e-21)
(1.00394 -0.0154987 -6.20109e-22)
(1.00121 -0.111962 3.64578e-21)
(1.0078 -0.11095 -2.43277e-21)
(1.00389 -0.119389 -8.99408e-22)
(1.01182 -0.000795694 7.36662e-22)
(1.01177 -0.000772654 1.3698e-21)
(1.01176 -0.000706475 -5.75867e-22)
(1.01059 -0.000223407 1.47773e-21)
(1.01195 -0.000526128 1.03929e-22)
(1.02555 -0.00150291 0)
(1.02539 -0.00181476 -9.19086e-22)
(1.01126 6.44948e-05 -3.91984e-22)
(1.01131 7.98497e-05 -7.47017e-22)
(1.01009 6.72926e-05 -1.83138e-21)
(1.01578 -0.000986481 -2.69843e-23)
(1.01573 -0.000576372 -9.21278e-22)
(0.92011 0.105341 -7.60165e-21)
(0.948504 0.102276 -2.68835e-21)
(0.931847 0.0920568 2.10548e-21)
(1.01572 -0.00435625 -1.30556e-21)
(1.01594 -0.00453006 -5.76277e-22)
(1.01338 -0.00184924 -1.33976e-21)
(1.01345 -0.00188631 0)
(0.948221 0.171061 -3.44871e-20)
(1.01112 0.00257588 -4.09711e-22)
(1.01156 0.00221046 3.77263e-22)
(1.01724 0.00172202 2.41459e-23)
(1.01703 0.00143062 2.36144e-23)
(1.01662 0.00270784 4.38279e-24)
(1.02381 -0.00816253 -2.48991e-22)
(1.0238 -0.00815188 -6.10123e-23)
(1.02379 -0.00824848 -3.53363e-22)
(1.01188 -0.000835625 -2.07218e-21)
(0.88496 0.109161 -3.45953e-22)
(1.02565 -0.00885748 0)
(1.02599 -0.00871742 0)
(1.02563 -0.00839408 0)
(1.02112 -0.00346196 -1.15876e-23)
(1.02121 -0.00364314 -1.73334e-22)
(1.02093 -0.00360802 4.27528e-23)
(1.02125 -0.00762281 4.63002e-24)
(1.02148 -0.00785696 -3.46081e-22)
(1.02117 -0.00789075 1.13374e-22)
(1.01061 0.00295773 -1.80294e-21)
(0.786156 0.0929956 -2.04727e-21)
(0.799073 0.120695 5.24739e-22)
(0.788023 0.0743239 -3.94516e-21)
(1.02501 -0.00515089 -6.56739e-22)
(1.02456 -0.00512949 1.27762e-22)
(1.04758 -0.0189451 0)
(1.04389 -0.0184793 1.92797e-22)
(1.04573 -0.0223408 0)
(1.01551 0.00213358 -6.58513e-23)
(1.00671 -0.0553048 1.92827e-22)
(1.01086 -0.0543977 6.17031e-22)
(1.00724 -0.052077 -2.21719e-21)
(0.823462 -0.0743364 -5.15466e-22)
(0.817584 -0.0936054 3.13525e-21)
(1.02737 -0.187553 -4.93701e-21)
(1.02647 -0.175487 -3.54392e-21)
(1.00198 -0.0564284 4.46293e-21)
(1.00649 -0.0593692 -1.68514e-21)
(1.02375 -0.00811888 9.31141e-23)
(1.02376 -0.00814177 -9.98233e-23)
(1.00891 -0.00376293 7.15751e-22)
(1.00942 -0.00302544 -2.44968e-21)
(1.00861 -0.00265658 -6.29556e-22)
(0.858443 0.166475 4.23742e-21)
(0.818983 0.172886 7.93099e-21)
(1.00851 -7.31162e-05 -4.96039e-22)
(1.00988 0.00010921 -1.12252e-21)
(0.939938 -0.19994 -5.48121e-21)
(0.945112 -0.182525 -1.46835e-21)
(1.01318 0.00373782 7.12014e-22)
(1.01368 0.0041936 -1.36034e-21)
(1.0124 4.43074e-05 5.13472e-22)
(1.01298 3.04155e-05 9.31244e-23)
(0.996196 -0.233138 0)
(1.01647 -0.200574 0)
(1.00451 -0.0121918 -2.95334e-22)
(1.00233 -0.0110305 -6.63762e-22)
(0.841391 0.223408 3.36644e-22)
(0.814498 0.215131 6.50178e-22)
(1.02097 -0.00329159 -6.7375e-23)
(1.02128 -0.00336157 1.51669e-22)
(1.04415 -0.089022 5.42184e-21)
(1.05036 -0.0912498 -6.95378e-21)
(1.14574 -0.146365 0)
(1.15476 -0.169799 3.15512e-21)
(1.01158 0.00346687 -1.14423e-21)
(1.01245 0.00455641 2.99406e-22)
(1.01269 0.00335328 -1.44015e-21)
(1.01476 -0.00353315 -1.10703e-21)
(1.01458 -0.00336168 -2.59535e-21)
(1.01469 -0.00335443 -1.05769e-21)
(1.07886 -0.0480423 1.86897e-21)