/*--------------------------------*- C++ -*----------------------------------*\
| =========                 |                                                 |
| \\      /  F ield         | OpenFOAM: The Open Source CFD Toolbox           |
|  \\    /   O peration     | Version:  v2012                                 |
|   \\  /    A nd           | Website:  www.openfoam.com                      |
|    \\/     M anipulation  |                                                 |
\*---------------------------------------------------------------------------*/
FoamFile
{
    version     2.0;
    format      ascii;
    class       surfaceVectorField;
    location    "950";
    object      Uf_0;
}
// * * * * * * * * * * * * * * * * * * * * * * * * * * * * * * * * * * * * * //

dimensions      [0 1 -1 0 0 0 0];


internalField   nonuniform List<vector> 
14516
(
(0.96216 0.0844677 4.28904e-21)
(0.950707 0.0787783 0)
(0.961994 0.0688798 -4.47814e-21)
(0.968643 -0.0400978 1.44909e-21)
(0.9567 -0.0740592 -1.04267e-20)
(0.975045 -0.0684092 1.00607e-21)
(0.976891 0.0885024 4.4125e-21)
(0.963812 0.100256 -5.36729e-21)
(1.01346 -0.00076354 0)
(1.01347 -0.000832841 -2.89402e-22)
(1.01355 -0.000786282 -3.95529e-25)
(0.531323 -0.0344683 1.79485e-21)
(0.545995 0.00779248 3.8038e-21)
(0.524765 -0.0946638 1.08064e-20)
(1.01358 -0.0139955 7.25215e-22)
(1.01471 -0.0137107 1.07199e-21)
(1.01391 -0.0127082 6.63938e-22)
(1.00885 -6.30944e-05 -5.407e-22)
(1.00967 -0.000221661 -9.08844e-22)
(1.01037 -0.000315015 -1.43938e-22)
(1.01268 -0.00111127 -7.53792e-22)
(1.01259 -0.00105345 0)
(1.01267 -0.00112392 0)
(1.02674 -0.0022593 -1.59907e-22)
(1.02702 -0.00195122 2.33748e-23)
(1.02726 -0.00250812 -2.83703e-21)
(0.539343 0.00166312 -2.47817e-21)
(0.542973 -0.0607604 1.22629e-20)
(1.00727 -0.0974217 4.82037e-22)
(1.00681 -0.104324 -2.9689e-22)
(1.01472 -0.100058 1.22604e-20)
(0.920086 -0.0976033 -9.71034e-22)
(0.925477 -0.110863 -7.19597e-22)
(0.907617 -0.110424 -1.24985e-21)
(1.01338 -0.000686892 0)
(1.01337 -0.000725711 -8.17911e-22)
(1.01376 0.0024374 9.3216e-22)
(1.01349 0.00218076 0)
(1.01367 0.00196974 0)
(1.00386 -4.77143e-05 -9.93646e-22)
(1.00388 1.17644e-05 3.55934e-22)
(1.01409 0.00267264 -2.02974e-22)
(1.01438 0.00276338 9.59029e-23)
(1.01417 0.00235567 -1.7133e-21)
(1.01379 -0.00373367 -1.01221e-21)
(1.01446 -0.00345392 5.53086e-22)
(1.01369 -0.00306648 -8.30852e-22)
(1.01304 -0.00398608 8.05505e-22)
(1.01402 -0.00468483 -1.27268e-21)
(0.905275 0.255306 -1.31647e-21)
(0.88049 0.265522 -1.30932e-21)
(0.890942 0.275845 0)
(1.01396 0.00298132 9.59638e-22)
(1.07121 -0.117303 4.31671e-22)
(1.08866 -0.11885 1.56671e-21)
(1.07791 -0.103233 -6.87037e-23)
(1.0241 -0.00587787 -1.65263e-22)
(1.02375 -0.00568232 -1.60734e-22)
(1.02381 -0.00611867 4.14858e-23)
(1.05878 0.0581476 -4.06361e-22)
(1.04937 0.0754124 -4.10262e-21)
(1.0619 0.0636834 -3.32805e-22)
(1.01814 0.0024448 -5.54345e-23)
(1.01794 0.0023679 -1.7624e-22)
(1.01762 0.000742416 6.31237e-22)
(1.01741 0.0013528 7.77349e-22)
(1.01838 0.00130775 -4.22839e-25)
(1.01314 -0.000528721 1.33597e-22)
(1.01334 -0.000605592 0)
(1.01539 0.00357015 -8.91396e-22)
(1.01503 0.00361861 -1.8291e-21)
(1.01555 0.00410765 2.54167e-22)
(1.01495 -0.00167342 -2.24151e-21)
(1.01534 -0.00171929 5.20155e-22)
(1.01498 -0.00137658 -1.04056e-21)
(0.975769 -0.0405354 3.29848e-22)
(0.981687 -0.0425732 1.11739e-21)
(0.979909 -0.0364612 0)
(1.02623 -0.00202256 0)
(1.02647 -0.00249659 0)
(0.988853 -0.0283579 0)
(0.987008 -0.0318347 0)
(0.992476 -0.0316271 2.63177e-21)
(1.06642 0.0390945 0)
(1.05504 0.0511567 -7.79018e-24)
(1.08797 0.00474375 9.24058e-21)
(1.08178 -0.0300716 2.42897e-20)
(1.0723 0.0166299 8.06204e-21)
(1.00824 6.30496e-05 -6.02674e-22)
(1.00822 3.50762e-05 0)
(1.00598 3.67991e-05 0)
(0.969937 -0.0372775 1.12899e-22)
(0.964586 -0.0333139 1.36611e-21)
(0.969496 -0.0296119 -5.49058e-22)
(1.11435 -0.161563 7.36978e-21)
(1.14165 -0.166446 2.40203e-21)
(1.12198 -0.190687 -6.62821e-22)
(1.00792 -4.5593e-05 1.71757e-21)
(1.00623 4.98119e-05 1.0631e-21)
(1.02452 -0.00563146 6.04964e-22)
(1.02429 -0.00608015 0)
(1.01316 -0.00143653 8.10714e-22)
(1.01324 -0.00151188 8.2671e-22)
(1.0133 -0.00155212 0)
(1.01048 -2.98794e-05 -1.00252e-21)
(1.01004 -6.05967e-05 -1.59991e-22)
(1.01087 -1.09215e-05 3.00494e-22)
(0.991433 -0.0244264 0)
(0.986132 -0.0230266 0)
(1.00641 1.65185e-05 5.62534e-22)
(1.00356 -5.5265e-05 0)
(1.01185 -0.000479039 -4.16291e-23)
(1.01251 -0.000404853 -5.25302e-23)
(1.01188 -0.000459468 4.76143e-22)
(1.00953 -0.000150094 1.03833e-21)
(1.00874 -0.000193441 6.35561e-22)
(1.01037 -0.000126606 0)
(1.00955 -0.000272852 -4.77367e-23)
(1.01192 -0.00039845 7.49634e-23)
(1.01296 -0.000467639 1.10498e-22)
(0.971062 -0.0453177 -1.61418e-21)
(1.00516 -0.0547915 -1.41149e-21)
(0.997273 -0.0572589 4.67837e-21)
(0.998955 -0.0474084 1.18071e-21)
(0.931768 0.069121 1.44888e-21)
(0.918934 0.0614912 4.85288e-22)
(0.93712 0.0557477 0)
(1.01348 -0.000916878 -4.92299e-23)
(1.0134 -0.000879709 -9.03147e-22)
(0.957407 -0.0306271 7.68844e-22)
(0.959 -0.0395334 6.14733e-22)
(0.984956 -0.0952969 -2.36102e-21)
(0.988937 -0.102057 -3.22299e-21)
(0.993028 -0.0951822 0)
(1.01793 -0.0145547 -1.24875e-21)
(1.01719 -0.0152402 -1.31068e-21)
(1.01845 -0.0157825 4.75487e-22)
(1.0246 -0.00517291 0)
(1.02436 -0.00492949 0)
(1.02422 -0.00514038 -6.87942e-22)
(0.847365 -0.0840807 -2.73549e-21)
(0.841748 -0.100673 1.95322e-21)
(0.861892 -0.0921041 -3.04424e-21)
(0.99379 -0.215626 1.53466e-21)
(0.9868 -0.236625 -1.1547e-21)
(0.970596 -0.222074 1.11526e-21)
(1.02116 0.00018031 0)
(1.02077 0.000230981 0)
(1.03622 -0.173653 0)
(1.04636 -0.16714 -1.41486e-20)
(1.03447 -0.163157 8.93512e-21)
(0.82871 0.311219 0)
(0.812512 0.312431 -1.89001e-20)
(0.83633 0.334287 -8.98008e-21)
(1.01308 -0.00138936 6.63621e-22)
(1.01304 -0.00134161 9.27004e-22)
(1.00881 -5.11297e-05 0)
(1.00826 4.00264e-05 1.01834e-21)
(1.00968 -6.08367e-05 1.26895e-21)
(1.02135 -0.0136608 0)
(1.02093 -0.0144317 -1.11837e-21)
(1.02212 -0.014578 0)
(0.830487 0.148235 -7.12946e-22)
(0.807064 0.161549 -7.58646e-22)
(0.815434 0.130617 1.52751e-21)
(1.01431 -0.000373435 0)
(1.01494 -0.000490712 0)
(1.01402 -0.000375732 0)
(0.556794 -0.238095 1.05449e-20)
(0.53356 -0.205058 -8.49993e-21)
(1.09485 0.0308786 3.69553e-21)
(1.09724 -0.000669994 -7.31917e-21)
(1.09687 0.00056321 4.1364e-21)
(0.854741 0.129444 -1.37385e-21)
(0.852962 0.15623 -1.26572e-21)
(0.874773 0.117336 2.6251e-22)
(0.893305 0.104811 4.65347e-21)
(0.893202 0.122677 -2.14947e-22)
(0.915164 -0.0850003 0)
(0.929511 -0.0874304 7.52228e-23)
(1.0009 -0.0929268 0)
(1.00917 -0.0891028 3.2276e-21)
(0.831425 -0.0748799 -3.1045e-21)
(0.851866 -0.0658268 2.57391e-21)
(1.01316 0.000256804 0)
(1.0136 0.000317239 -2.07514e-23)
(1.01438 0.000482652 0)
(1.01512 -0.00355637 5.02206e-22)
(1.01532 -0.00374916 3.44681e-22)
(1.01515 -0.00374301 -1.87904e-21)
(1.05838 0.00499065 -3.15087e-22)
(1.05874 0.00230778 0)
(1.05768 0.0183766 -3.27321e-22)
(0.953317 -0.0236432 1.82341e-21)
(0.947838 -0.0300094 -1.58783e-23)
(0.847471 0.29945 1.06107e-20)
(0.825508 0.284645 0)
(1.02132 -4.47659e-05 -7.43575e-23)
(1.02149 -0.000290434 -2.88918e-22)
(1.02104 -0.000188767 2.99777e-23)
(1.02129 0.00331502 -1.85799e-22)
(1.02133 0.00295216 1.89821e-22)
(1.02185 0.00326016 1.7535e-23)
(1.01883 0.00305002 4.99752e-22)
(1.01794 0.00304712 -5.29974e-22)
(1.01806 0.00238486 6.8919e-22)
(1.0167 -0.00151839 1.37006e-21)
(1.01661 -0.00107335 1.70594e-21)
(1.0161 -0.00140676 9.0434e-22)
(1.0906 0.057201 -6.78997e-21)
(1.08867 0.0531471 -1.31135e-21)
(1.01628 0.00423935 0)
(1.01547 0.00380587 1.537e-21)
(1.01599 0.00343792 0)
(0.930078 -0.079378 -6.11642e-22)
(0.922417 -0.109383 -3.70978e-22)
(0.916843 -0.0843631 1.00479e-20)
(1.03635 -0.0248619 -4.03142e-23)
(1.03363 -0.0310721 -5.91676e-22)
(1.03025 -0.0242274 -1.84723e-23)
(0.994469 -0.0215726 1.97228e-22)
(0.9969 -0.0250182 -2.07638e-21)
(1.01977 -0.0464388 -6.69152e-22)
(1.01278 -0.0516675 0)
(1.01307 -0.0417817 -2.48642e-22)
(1.01738 -0.00168496 -2.46945e-21)
(1.01676 -0.00207575 1.40127e-21)
(1.0216 -0.000503568 -3.85965e-23)
(1.02171 -0.000735838 2.2406e-22)
(1.0213 -0.000625556 1.72411e-22)
(1.02077 -0.0128753 -7.66593e-22)
(1.02028 -0.011982 3.34232e-22)
(1.01979 -0.0125289 -1.07865e-22)
(1.01367 0.00365364 -1.83658e-21)
(1.01419 0.00431849 -8.00386e-22)
(1.01334 0.00446335 -1.06859e-21)
(0.959958 -0.0118142 3.213e-21)
(0.978043 -0.00924965 -3.48745e-22)
(0.719751 -0.173386 1.54383e-21)
(0.67959 -0.182043 6.95689e-22)
(0.712243 -0.151959 2.82239e-21)
(1.01467 0.0012198 1.22694e-21)
(1.01488 0.00135992 2.63131e-22)
(1.01492 0.0011997 1.23736e-21)
(1.07061 0.0214019 2.76289e-22)
(1.07516 0.0242254 0)
(1.02183 -0.0129797 1.12961e-21)
(1.04332 -0.0253923 7.27822e-23)
(1.03782 -0.0191718 1.54622e-22)
(0.999605 -0.195962 -1.7979e-21)
(1.01559 -0.20751 2.61365e-21)
(0.942692 -0.0775552 -1.6211e-21)
(0.936941 -0.0434526 -5.62085e-21)
(1.01444 0.00119786 0)
(1.01447 0.00109181 -2.13317e-24)
(1.01414 0.000315233 0)
(1.01429 0.000344596 -8.49718e-22)
(1.01406 0.000388128 0)
(1.01421 0.000228547 0)
(1.01399 0.000281537 2.68163e-22)
(1.01182 0.000519448 1.55718e-21)
(1.01175 0.00115039 -1.53414e-21)
(1.01133 0.000647989 0)
(1.0129 0.000328422 6.24861e-22)
(1.01298 0.000434705 -1.07924e-21)
(1.01298 0.000334155 -6.35794e-22)
(1.01282 0.000327025 -6.23238e-22)
(1.01283 0.000242223 1.29057e-21)
(1.02081 0.00329811 -3.7573e-22)
(1.02119 0.00367953 -1.6906e-22)
(0.996805 -0.0191466 -2.86545e-21)
(0.992606 -0.0175151 1.00378e-22)
(1.02016 -0.0114167 5.7654e-22)
(1.02092 -0.0116404 1.54024e-22)
(1.00839 1.32866e-05 -8.92998e-22)
(1.00894 -9.57285e-05 -1.58757e-21)
(1.00976 -0.000120526 1.24795e-21)
(1.01758 -0.0134481 0)
(1.01867 -0.0138618 -1.08424e-21)
(0.957155 -0.0639486 -4.29563e-22)
(0.943708 -0.0607176 7.85546e-21)
(0.955822 -0.0486757 -1.30277e-21)
(1.01288 0.000267798 1.2053e-22)
(1.01172 0.000113483 -5.13126e-23)
(1.02106 -0.132574 -4.76313e-23)
(1.00863 -0.126504 4.73057e-22)
(1.00721 -0.142206 5.82742e-24)
(1.01941 0.000410757 9.1174e-23)
(1.01971 0.000334408 -5.43651e-23)
(1.05127 -0.301821 1.53478e-20)
(1.02799 -0.274394 1.10412e-20)
(1.01751 -0.302349 5.16067e-21)
(0.981763 -0.0885629 -2.05594e-22)
(0.976773 -0.0955967 -4.28298e-21)
(1.02161 8.26225e-05 -1.92773e-25)
(1.08074 -0.0895933 -1.45489e-20)
(1.06656 -0.123049 4.63512e-21)
(1.07386 -0.114538 -9.01611e-21)
(0.948131 -0.0170932 3.16631e-21)
(0.957601 -0.0173283 2.07688e-22)
(1.01715 0.00448743 0)
(1.01648 0.00518048 -7.66081e-22)
(1.06577 0.0197075 1.16034e-20)
(1.07281 0.00629478 2.37738e-22)
(0.968282 -0.0661225 -1.06791e-21)
(0.95953 -0.0791468 2.66018e-21)
(1.00813 0.000146361 9.92812e-23)
(1.00504 5.11127e-05 3.26619e-23)
(1.00519 4.58098e-05 1.08746e-23)
(1.01951 -0.00217082 -1.20263e-22)
(1.01976 -0.00231947 4.39711e-24)
(1.01975 -0.00211466 5.25271e-23)
(1.0123 -0.0138704 0)
(1.01324 -0.0151959 9.81264e-22)
(1.0259 -0.00756563 4.95457e-23)
(1.02559 -0.00776953 -8.59486e-22)
(1.02551 -0.00726281 1.26279e-21)
(1.06086 -0.131282 -9.69077e-22)
(1.05626 -0.115853 -1.51518e-21)
(1.05755 -0.072102 4.11575e-21)
(1.06069 -0.0683369 -3.33593e-21)
(1.05572 -0.0679382 5.7109e-21)
(1.02538 -0.0415352 1.49105e-21)
(1.02743 -0.0512853 -6.4853e-22)
(1.01979 0.00278688 1.42017e-21)
(1.01961 0.00378184 1.75934e-21)
(1.01618 -0.00334237 1.34868e-21)
(1.01625 -0.00323264 1.06094e-21)
(1.01603 -0.00319413 5.50941e-22)
(1.01146 0.000172968 1.87782e-22)
(1.01099 0.000188135 -1.34366e-22)
(1.01269 0.000266657 -5.35107e-23)
(1.02191 -0.000393565 -1.05021e-23)
(1.01614 -0.00342723 2.61805e-22)
(1.01634 -0.00347471 3.1432e-22)
(1.01147 -0.00236532 -8.28996e-22)
(1.01166 -0.00309691 0)
(1.01201 -0.00266564 1.91562e-21)
(1.02579 -0.00180348 -2.95831e-22)
(1.02609 -0.0015751 0)
(1.0218 -0.000961748 5.56195e-23)
(1.0219 -0.00121584 -3.31534e-23)
(1.02151 -0.00107102 -1.50552e-23)
(1.01239 -0.000215587 -6.5559e-22)
(1.01447 -0.000338656 0)
(1.00895 -5.02805e-05 -1.121e-22)
(1.01033 -0.000197006 -5.04526e-23)
(1.01923 0.000243524 1.08626e-22)
(1.01908 0.000432233 -8.62782e-24)
(1.01333 0.000401495 -2.37305e-22)
(1.01348 0.000446842 -5.05011e-22)
(1.01334 0.00042073 -1.00267e-21)
(1.01929 -0.0022092 -2.48545e-22)
(1.01927 -0.00202657 1.03348e-23)
(1.01786 -0.000388181 -1.8932e-22)
(1.01783 0.000184448 -8.19268e-22)
(1.0186 -8.89235e-05 4.7658e-25)
(1.01214 -0.000465685 -1.30941e-21)
(1.01234 -0.000456029 0)
(1.01197 -0.000459244 7.58211e-22)
(1.01436 -5.45713e-05 -9.10912e-22)
(1.01422 -1.05937e-05 0)
(1.01434 -0.000132751 0)
(1.01322 0.00240294 0)
(1.01319 0.00183984 1.20601e-23)
(1.01237 0.00218511 0)
(1.01284 0.00270465 0)
(1.01234 0.00296843 -2.69658e-22)
(1.05073 -0.0366861 -1.84323e-22)
(1.04425 -0.0434349 -6.37701e-21)
(1.04128 -0.0527936 -1.7504e-22)
(1.01433 3.80282e-05 -1.14152e-22)
(1.01456 -8.81044e-05 -9.69734e-22)
(1.01382 0.00106991 -5.72724e-22)
(1.01402 0.0011238 0)
(1.01393 0.00118058 0)
(0.746955 -0.175299 -1.14322e-21)
(0.720117 -0.198897 -1.28737e-21)
(0.785343 0.372789 -1.25649e-21)
(0.797285 0.35515 4.12394e-21)
(0.799344 0.380976 -4.52768e-21)
(1.01231 0.000305673 5.10834e-23)
(1.01019 5.60939e-05 3.16844e-23)
(0.771553 0.35771 -9.08022e-22)
(0.766327 0.383324 9.78742e-23)
(0.552284 0.0776475 -2.8059e-21)
(0.554194 0.0213584 -1.77489e-21)
(1.01362 0.0010056 -5.08609e-22)
(1.01368 0.000983605 -2.53546e-22)
(1.01029 0.000213562 9.68882e-23)
(1.01017 0.000217126 2.87963e-22)
(1.01215 0.000205072 0)
(1.01153 0.000148179 -6.32107e-24)
(1.01253 0.000272354 -6.24377e-22)
(1.01784 -0.000883569 -2.57492e-21)
(1.0173 -0.000540996 -1.53489e-21)
(1.01429 0.000141126 8.79472e-22)
(1.01414 0.000134588 -1.70631e-22)
(1.01225 -0.00048096 5.1486e-23)
(1.01194 -0.000371104 3.60246e-22)
(1.01278 -0.00117096 -1.04519e-21)
(1.0127 -0.00109733 5.60754e-22)
(1.01461 -0.00157987 -9.86602e-22)
(1.01479 -0.00193541 -5.53182e-22)
(1.01534 0.00273475 6.12762e-23)
(1.01553 0.00265371 -5.69795e-24)
(1.01577 0.00295427 -7.43037e-22)
(0.93208 0.239609 -4.4408e-22)
(0.967906 0.217532 9.85001e-22)
(0.948502 0.239968 1.00381e-21)
(1.05182 -0.0253075 -5.00552e-21)
(1.05672 -0.00895963 -7.37261e-22)
(1.05347 -0.0265807 7.76747e-22)
(1.10001 -0.138155 -1.51442e-21)
(1.10991 -0.118654 3.09939e-21)
(1.01268 -0.0627708 5.62022e-22)
(1.01326 -0.00930112 -4.10826e-22)
(1.01507 -0.00974648 -3.9792e-23)
(1.01438 -0.0079757 1.23356e-22)
(1.01527 0.00314123 -8.08569e-22)
(1.01571 0.00343244 0)
(1.01248 -9.17512e-05 -1.18914e-22)
(1.01248 0.000313287 -1.21048e-21)
(1.01269 0.000240924 3.37693e-22)
(1.01372 -0.00245165 -1.11415e-21)
(1.01376 -0.00272767 0)
(1.01383 -0.00238673 -8.31182e-22)
(0.790972 -0.0298788 -8.99695e-22)
(0.810449 0.00710686 -1.55218e-20)
(0.792546 0.0299655 2.53804e-21)
(1.04796 -0.021292 -3.70943e-21)
(1.04488 -0.0412222 -1.28316e-21)
(0.790783 -0.0904116 -9.35906e-21)
(0.784163 -0.0578637 -5.66335e-21)
(1.02647 -0.00712757 -1.13931e-23)
(1.0262 -0.00743378 1.61915e-22)
(1.02603 -0.00684908 1.61598e-22)
(0.921615 0.234069 -1.19932e-21)
(1.02212 -0.000859251 -2.15364e-22)
(1.01752 0.00231632 -6.68862e-23)
(1.01736 0.00219369 1.09351e-23)
(1.01729 0.0022708 2.25058e-22)
(1.01616 -0.00387263 -4.47417e-23)
(1.01637 -0.00402518 -3.39572e-22)
(1.01627 -0.00379296 2.29436e-22)
(1.02012 -0.0310928 1.2356e-21)
(1.01747 -0.0315992 5.21734e-21)
(1.01983 -0.0336005 -1.73228e-21)
(1.0858 -0.40044 -1.49316e-20)
(1.0851 -0.436203 3.22634e-20)
(1.12167 -0.424908 7.14005e-20)
(1.03438 -0.0106746 6.68164e-22)
(1.03394 -0.00989563 -2.44491e-21)
(1.03341 -0.0105802 2.03845e-22)
(1.01447 0.00014678 -1.02809e-21)
(1.01711 0.000350991 -1.87953e-22)
(0.898097 0.303103 -5.60686e-21)
(0.883365 0.31579 1.049e-21)
(0.894794 0.320078 -4.43593e-22)
(1.01507 -0.00339613 2.06153e-21)
(1.01494 -0.0033645 1.58666e-21)
(1.026 -0.179499 -9.57592e-21)
(1.03875 -0.185788 0)
(1.01604 -0.00393248 -2.84498e-22)
(1.01598 -0.0037016 -1.14766e-21)
(1.01928 -0.00260888 2.31829e-22)
(1.01905 -0.00263762 0)
(1.01927 -0.00280422 0)
(1.01514 0.0028104 1.25329e-22)
(1.01501 0.0025216 -1.3275e-22)
(1.0269 -0.00747418 8.70493e-22)
(1.02676 -0.00689999 -4.41755e-22)
(1.017 -0.000185996 -9.89088e-24)
(1.01701 -0.000260122 1.67968e-24)
(1.01715 -0.000192965 1.7142e-22)
(0.946601 0.075196 1.50821e-21)
(0.929638 0.0833593 -6.47518e-21)
(1.03471 -0.139009 -7.99818e-22)
(1.03254 -0.123099 3.47632e-23)
(0.854884 0.10497 7.49332e-22)
(1.02263 -0.0309941 -1.28161e-21)
(1.02059 -0.0291416 -1.54771e-21)
(0.874051 0.142997 5.81075e-21)
(0.895727 0.128111 -1.5692e-21)
(0.916179 0.137895 -1.65952e-21)
(1.01368 0.00145215 1.43497e-21)
(1.01342 0.00140886 2.14755e-23)
(1.01346 0.00114561 -1.6149e-21)
(0.591005 0.159492 -1.37717e-20)
(0.584736 0.139206 -1.45582e-21)
(1.01331 0.000380456 1.09322e-21)
(1.01308 0.000347527 1.13197e-21)
(1.02537 -0.00164886 5.87455e-22)
(1.02559 -0.00201896 5.73334e-22)
(1.00956 0.183535 -1.52569e-21)
(1.03691 0.153808 -1.54738e-21)
(1.04826 0.13981 -4.50319e-21)
(1.00358 -0.252842 2.45837e-21)
(0.979509 -0.256417 -7.94103e-21)
(1.01631 -0.00314715 4.53805e-22)
(1.01617 -0.00299109 4.93923e-23)
(1.01638 -0.00304912 9.50253e-22)
(1.02197 -0.0014398 2.58109e-22)
(1.02228 -0.00134139 -3.0187e-23)
(1.0203 0.00328544 6.8022e-22)
(1.02043 0.00302611 -1.91245e-22)
(1.08702 -0.155082 -5.30661e-21)
(1.01371 0.000545828 -9.73709e-22)
(1.01372 0.000747802 1.15904e-22)
(1.01366 0.000724922 -1.00285e-21)
(0.999183 -0.0170221 7.01019e-22)
(1.00078 -0.0197989 -2.73631e-21)
(1.02608 -0.0110463 8.86559e-22)
(1.02557 -0.0105306 -2.18074e-21)
(1.02618 -0.0104097 -2.19919e-21)
(1.0033 -0.0263372 0)
(1.00667 -0.0278622 1.80388e-21)
(1.00342 -0.0296189 1.2408e-22)
(0.961367 0.0769879 1.15562e-21)
(0.963251 0.0659166 0)
(0.905602 0.0506246 -1.57148e-21)
(0.899551 0.0673782 4.75384e-22)
(1.02476 -0.00557953 -5.60406e-22)
(1.02503 -0.00531052 4.13936e-22)
(0.850946 0.157683 -3.15558e-21)
(0.828897 0.14452 -1.44089e-21)
(1.01188 0.000223969 0)
(1.01272 0.000256173 5.99112e-22)
(1.01225 -0.000850827 -1.52077e-21)
(1.01222 -0.00130329 1.63162e-22)
(1.01245 -0.00117051 -1.58736e-21)
(0.915978 0.296456 -5.40085e-21)
(0.902933 0.284189 -5.07781e-21)
(1.0199 0.00326204 3.04446e-22)
(1.02021 0.00354047 4.2792e-22)
(0.744417 -0.00937602 -3.73097e-21)
(0.727689 -0.0110265 -5.29192e-21)
(0.741262 -0.0538719 -3.45154e-21)
(0.933079 0.00811215 0)
(0.940217 0.0162276 0)
(0.927812 0.0194231 4.91519e-21)
(1.02029 -0.00154661 -4.86275e-24)
(1.02052 -0.0014602 8.90784e-23)
(1.02018 -0.00137702 2.57676e-24)
(1.02624 -0.00793831 0)
(1.01697 -0.000109578 0)
(1.01687 -0.000178682 0)
(1.03047 -0.0358948 9.74501e-22)
(1.03795 -0.0382937 3.24105e-21)
(0.987751 0.193613 -1.51569e-22)
(1.01584 -0.0146389 2.46795e-22)
(1.01568 -0.0132641 -8.82136e-22)
(1.01347 0.000934389 -5.57464e-22)
(1.01335 0.000861028 -8.72312e-22)
(1.01332 0.000855127 1.52067e-22)
(0.937757 -0.00108802 -1.09651e-21)
(0.926049 0.000837178 -2.48885e-22)
(1.00668 -0.0795031 -1.16733e-22)
(1.00021 -0.0808424 9.45566e-22)
(1.00295 -0.0750255 8.94763e-22)
(1.01813 0.00258364 -6.23136e-23)
(1.01836 0.00255841 1.01031e-22)
(1.01773 0.00235413 -8.4785e-23)
(1.01778 0.00222807 1.45556e-22)
(1.03537 -0.0108813 4.31908e-21)
(1.03462 -0.0117307 2.50875e-21)
(1.01291 0.000323536 1.85011e-22)
(1.01316 0.000337038 7.08441e-22)
(1.01279 0.000308949 0)
(1.04226 -0.0857705 6.09444e-21)
(1.04691 -0.082495 6.04422e-21)
(1.04117 -0.0806151 -8.7525e-22)
(0.764833 -0.00955348 -1.3675e-22)
(0.74935 0.0297756 8.78709e-22)
(1.01907 0.000109737 -5.21546e-23)
(1.01879 0.000142167 2.96392e-23)
(1.01892 -1.51772e-05 -4.45112e-22)
(1.01401 -0.00239837 -1.52307e-21)
(1.01396 -0.00240344 1.18394e-21)
(1.01398 -0.00221536 -1.4132e-21)
(0.984124 -0.184268 2.85634e-21)
(1.00273 -0.177359 -2.3833e-22)
(1.01265 0.00181926 5.40871e-21)
(1.01316 0.00204905 2.52864e-22)
(1.01289 0.00248446 8.23089e-22)
(1.00098 -0.0152698 3.02129e-21)
(0.997934 -0.0139382 4.72495e-21)
(1.01329 0.000985963 2.09648e-21)
(1.01325 0.0013583 1.69017e-21)
(1.01346 0.00130421 7.00428e-22)
(1.01403 -0.00194105 0)
(1.01405 -0.00183011 -9.47637e-23)
(1.01408 -0.00179149 0)
(1.09481 -0.000418389 -5.12679e-21)
(1.08903 0.0403255 3.05922e-21)
(1.01403 -0.00237169 -9.26604e-23)
(1.01401 -0.00221682 1.53886e-21)
(1.01404 -0.00234893 0)
(1.01422 0.00117112 0)
(1.01406 0.00106046 -6.49134e-22)
(1.0125 -0.00096979 0)
(1.01249 -0.000993358 0)
(1.01769 -0.00141139 -1.762e-21)
(1.01837 -0.00133346 -2.1782e-21)
(1.01438 0.00130735 6.19816e-22)
(1.00935 -3.04524e-05 2.59541e-22)
(1.008 8.77692e-05 -5.42908e-22)
(1.0224 -0.00654941 0)
(1.02242 -0.00639455 6.45776e-23)
(1.02261 -0.00655431 -8.59221e-23)
(1.02267 -0.017909 0)
(1.0241 -0.0181668 0)
(1.02334 -0.0168915 1.95873e-22)
(0.978693 -0.0808516 2.06925e-21)
(0.986266 -0.0814444 2.06219e-21)
(1.0545 -0.0758729 0)
(1.05086 -0.0793738 0)
(1.04943 -0.0746982 0)
(1.01398 -0.00185398 3.82106e-22)
(1.01393 -0.00184707 1.64174e-23)
(1.01396 -0.00177297 -1.51184e-21)
(1.02638 -0.00525227 5.00155e-22)
(1.02657 -0.00590569 3.98946e-23)
(1.02729 -0.00523136 5.20868e-23)
(1.01384 -0.00296976 0)
(1.01395 -0.00286939 0)
(1.01396 -0.00320957 0)
(1.02136 -0.0175958 6.03868e-22)
(1.0221 -0.0191478 0)
(1.0079 -0.00798744 -4.60546e-23)
(1.0081 -0.00946578 -1.38055e-22)
(1.00908 -0.00866666 1.869e-22)
(1.0138 0.000266798 6.54905e-22)
(1.01375 0.000394931 0)
(1.01375 0.000437556 -8.34972e-22)
(0.940916 -0.200294 -9.63073e-22)
(0.928276 -0.196523 -8.29709e-22)
(0.928327 -0.215531 -6.97743e-21)
(1.01404 -0.0025681 1.28595e-23)
(0.970841 -0.0802896 1.54264e-21)
(0.976318 -0.0736867 -1.53034e-21)
(1.00838 0.000127177 -2.46549e-22)
(1.00984 4.32294e-05 -7.19113e-22)
(1.00888 3.9149e-05 -4.07627e-22)
(1.01224 -0.0109685 -3.77464e-22)
(1.01121 -0.00873987 -1.9438e-22)
(1.01902 0.0029796 -5.33868e-23)
(1.01933 0.00302161 2.83907e-23)
(1.0191 0.00289073 7.18581e-23)
(1.01886 0.00307101 -6.78359e-23)
(1.01875 0.00288872 -6.28572e-23)
(1.00009 -0.0247596 7.61493e-22)
(1.00382 -0.0232005 0)
(1.06614 0.113444 4.6405e-21)
(1.02974 0.164087 0)
(1.01965 -0.0109649 -4.74481e-22)
(1.01893 -0.010923 -3.86648e-22)
(1.01921 -0.010275 4.2529e-22)
(1.01386 0.000120459 2.66517e-22)
(1.01384 0.000169356 7.27688e-22)
(1.01445 0.00163197 0)
(1.01438 0.00165226 -4.59744e-22)
(1.01425 0.00153192 0)
(1.02403 0.00303096 6.99208e-22)
(1.02254 0.00172769 1.90167e-22)
(1.02453 0.00151212 1.4741e-22)
(1.02073 -0.00136177 8.51767e-23)
(1.02098 -0.00127344 1.56117e-22)
(1.02063 -0.00116005 0)
(1.0044 -0.0150376 1.56047e-21)
(1.00501 0.014008 -1.53617e-21)
(0.99273 -0.00297445 -4.09091e-22)
(1.00528 -0.0437778 7.96987e-21)
(1.01657 -0.0276358 2.99044e-21)
(1.01646 -0.00328811 0)
(1.04944 -0.144882 -1.1716e-21)
(1.03524 -0.157619 -3.34964e-22)
(1.0165 -0.000345039 -3.28906e-22)
(1.01647 -0.00031454 0)
(1.01653 -0.000302855 0)
(1.05972 -0.0766657 5.01146e-22)
(1.01751 -0.00184988 1.54945e-21)
(1.01715 -0.00142437 8.75243e-23)
(1.0183 0.00285053 2.00568e-22)
(1.01823 0.00271606 2.93035e-23)
(1.01848 0.0028103 0)
(1.00815 -7.26055e-05 3.30035e-22)
(1.006 -3.95243e-05 1.18811e-21)
(1.00813 -2.65628e-05 7.57083e-22)
(1.01092 -6.60851e-05 -6.40027e-22)
(1.01014 5.84914e-06 -5.01249e-23)
(1.02013 -0.00166822 -1.58983e-23)
(1.02039 -0.00172406 -1.82734e-23)
(1.02238 -0.00670473 -2.75018e-22)
(1.02217 -0.00653563 0)
(1.01486 -0.0135709 1.40906e-21)
(1.01637 -0.0143565 1.6493e-21)
(1.01598 -0.0126777 6.50227e-22)
(1.0113 -0.00032258 -6.25655e-22)
(1.01102 -0.000232659 1.37274e-22)
(1.01153 -0.000354049 -1.56728e-21)
(1.02169 -0.00153282 1.21632e-22)
(1.02204 -0.00167455 5.04305e-24)
(1.01938 7.19842e-05 -4.69043e-23)
(1.08164 -0.0635467 1.11836e-21)
(1.09025 -0.0624564 -1.37571e-21)
(1.01791 -0.0118981 1.03805e-21)
(1.01727 -0.0123848 1.01341e-21)
(1.01708 -0.0115231 1.78083e-22)
(1.0063 -0.000148583 -9.00715e-22)
(1.01195 0.000145544 1.91252e-22)
(1.01013 0.000205026 -1.45653e-22)
(1.01099 0.000151056 1.97717e-22)
(1.01148 -0.00169998 -4.14411e-22)
(1.01095 -0.00201826 2.03242e-21)
(1.02467 -0.00793523 8.48129e-24)
(1.02439 -0.00791626 2.39838e-23)
(1.02445 -0.00761347 -5.86222e-22)
(1.01305 -0.0126556 -2.29126e-22)
(1.01351 -0.0147521 2.97313e-22)
(1.01616 -0.000556279 2.95545e-22)
(1.01619 -0.000645521 6.36363e-22)
(1.01625 -0.000572661 -4.20493e-22)
(0.92968 0.255292 -2.72387e-20)
(0.911714 0.302578 2.6989e-20)
(0.942677 0.257193 1.42506e-20)
(1.01357 0.00101756 -4.2737e-23)
(0.936625 0.288745 0)
(0.918804 0.298509 5.25231e-21)
(0.931923 0.281086 1.49304e-21)
(0.981658 -0.219418 -2.05331e-20)
(0.980439 -0.187986 1.19433e-20)
(0.962518 -0.225663 -4.47704e-22)
(1.00617 2.38334e-05 -2.11539e-21)
(1.00795 3.42594e-05 -2.60461e-21)
(1.00826 -1.86731e-05 -1.05861e-21)
(1.00899 -0.000117806 3.07712e-22)
(1.00975 -0.000193011 1.05223e-21)
(1.01405 -8.22944e-05 2.49392e-21)
(1.01411 -9.48228e-05 -5.73399e-22)
(1.01423 -0.000205571 1.14062e-21)
(1.02562 0.00439102 0)
(1.02311 0.00478411 1.17636e-21)
(1.01913 -0.00624878 -4.05083e-22)
(1.01875 -0.00719859 -8.50061e-24)
(1.0197 -0.00691429 -1.92192e-22)
(1.01723 -0.00220296 7.94419e-22)
(1.01676 -0.00211516 -7.30502e-22)
(1.01695 -0.00248823 9.2562e-22)
(0.952042 0.273546 0)
(0.935393 0.296152 0)
(1.01613 -0.00031085 -5.72011e-22)
(1.01574 -0.000359191 0)
(1.01629 -0.000166024 0)
(1.01399 -2.66268e-05 -7.3095e-22)
(1.01393 5.8765e-05 1.15604e-21)
(1.01962 -0.00528098 7.32327e-23)
(1.01836 -0.0053352 -1.54603e-22)
(1.02216 -0.00743466 -1.27227e-22)
(1.02243 -0.00734297 -5.01325e-22)
(1.02247 -0.00760154 -4.90057e-22)
(1.02218 -0.00550759 -9.65428e-23)
(1.02195 -0.00535167 -7.76641e-23)
(1.02223 -0.00533709 -1.52366e-22)
(1.01382 0.00310103 -1.72869e-21)
(1.01318 0.00307549 -2.17884e-21)
(1.02396 -0.0333786 1.13707e-21)
(1.01455 -0.00138462 -7.79627e-22)
(1.01468 -0.00129401 -7.28148e-22)
(1.01469 -0.001372 -1.62911e-21)
(1.02161 0.000474753 -9.09215e-22)
(1.02225 -0.00069121 1.21541e-22)
(1.02068 -0.00079705 -5.58653e-22)
(1.02596 -0.0115785 4.08654e-21)
(1.02662 -0.0114423 5.73528e-22)
(1.01407 -0.00155253 7.65517e-22)
(1.01418 -0.00153431 -1.85243e-22)
(1.01414 -0.00154541 1.44932e-23)
(1.05605 0.0101659 -1.3864e-21)
(0.846167 0.210679 8.61146e-22)
(0.858055 0.192145 0)
(0.881144 0.200041 -8.63035e-22)
(1.05843 -0.0101821 0)
(1.05808 0.00192151 -9.27525e-24)
(1.01958 0.00314127 2.19417e-22)
(1.01948 0.00332442 -9.15302e-23)
(1.06329 -0.385031 -1.78395e-20)
(1.08977 -0.3797 4.76475e-22)
(1.02412 -0.0078508 -3.20614e-22)
(1.0239 -0.00776162 3.95642e-22)
(1.024 -0.00754427 6.72498e-23)
(0.803501 0.30182 -7.32667e-21)
(0.789073 0.283357 -4.78473e-21)
(0.943543 -0.0103388 6.40278e-22)
(0.937417 -0.0160456 5.1833e-21)
(1.01516 0.00220274 4.34176e-23)
(1.015 0.00203136 9.33286e-22)
(1.01526 0.00211818 9.13485e-22)
(1.04071 -0.0153264 5.20289e-21)
(1.04139 -0.0168769 -4.83779e-22)
(0.948951 -0.00291529 -3.48468e-21)
(1.0122 0.000446589 -3.27494e-22)
(1.01189 -1.7973e-05 1.45678e-21)
(1.0029 -0.013735 0)
(1.00397 -0.0159231 1.79846e-21)
(0.993473 -0.108949 -2.72017e-21)
(1.00012 -0.108336 -6.49233e-22)
(0.995798 -0.1165 0)
(1.01242 -0.00087901 0)
(1.01234 -0.00084744 -2.06413e-23)
(1.01234 -0.000804993 -7.87026e-22)
(1.0109 -0.000202991 -8.6169e-22)
(1.01227 -0.000499673 2.03463e-21)
(1.02506 -0.00139377 4.624e-23)
(1.0249 -0.00168007 8.81699e-22)
(1.01038 5.83909e-05 -1.41767e-21)
(1.01043 6.66023e-05 5.17131e-22)
(1.00927 6.06686e-05 1.19569e-21)
(1.01574 -0.00199677 -1.53668e-22)
(1.01572 -0.00159119 1.23812e-21)
(0.915055 0.113714 5.14645e-21)
(0.94698 0.111195 -2.63742e-22)
(0.930288 0.101621 -6.08809e-21)
(1.01592 -0.00397002 -3.86607e-22)
(1.01612 -0.0041301 5.4774e-22)
(1.01395 -0.00156058 0)
(1.01401 -0.00157848 0)
(0.95376 0.180971 -1.03215e-20)
(1.01222 0.00154688 1.51197e-21)
(1.01259 0.0012606 1.32868e-21)
(1.01468 0.00319174 -1.60185e-22)
(1.01464 0.00281671 -1.89456e-22)
(1.01965 0.00297654 -2.50788e-22)
(1.02368 -0.00685641 -2.0584e-22)
(1.02366 -0.0067705 1.11056e-22)
(1.02359 -0.00692711 1.1678e-22)
(1.0125 -0.000924086 0)
(0.876741 0.117296 1.26033e-21)
(1.02497 -0.00792242 -2.10699e-22)
(1.02528 -0.00784873 -1.36523e-21)
(1.02498 -0.00751864 -7.20338e-23)
(1.02089 -0.00310555 1.02325e-22)
(1.02098 -0.00326774 -2.21613e-23)
(1.02072 -0.00323356 -5.72332e-23)
(1.02135 -0.00684931 -2.111e-23)
(1.0216 -0.00705058 4.76394e-23)
(1.02131 -0.00711151 -5.29216e-22)
(1.01177 0.00184203 -2.73676e-21)
(0.786716 0.0802976 -6.8349e-22)
(0.799836 0.109533 1.0159e-20)
(0.790522 0.0622565 2.45405e-21)
(1.02451 -0.00469132 0)
(1.0241 -0.00465101 -4.86042e-22)
(1.05021 -0.0178231 7.31424e-22)
(1.04628 -0.0173936 -2.56228e-21)
(1.04829 -0.021459 7.47166e-22)
(1.01766 0.00245538 -8.92084e-23)
(1.00225 -0.0525514 2.13865e-21)
(1.00649 -0.051882 -5.35029e-22)
(1.00303 -0.0493191 2.09861e-21)
(0.816378 -0.0636512 -3.73719e-21)
(0.809893 -0.0829329 -1.48486e-21)
(1.01538 -0.185415 1.00789e-20)
(1.01518 -0.173426 1.00619e-21)
(0.997398 -0.0534197 -2.01206e-21)
(1.00172 -0.0566185 1.54561e-21)
(1.02362 -0.00690001 -4.82067e-23)
(1.0237 -0.00687578 -8.00991e-23)
(1.01085 -0.00434562 -8.55144e-22)
(1.01123 -0.00358075 1.69492e-21)
(1.01048 -0.00335482 2.94857e-22)
(0.853589 0.174842 -2.59549e-21)
(0.815822 0.182168 -5.83153e-21)
(1.00813 -0.000116007 3.15606e-22)
(1.00946 2.82714e-05 3.57417e-22)
(0.953868 -0.202313 0)
(0.956036 -0.185065 0)
(1.01395 0.00258851 6.62725e-22)
(1.01439 0.00297644 -2.37314e-21)
(1.01241 0.000296325 2.67389e-22)
(1.01301 0.000344329 1.79598e-22)
(0.982104 -0.239822 -2.18961e-20)
(1.00249 -0.209915 -2.62604e-20)
(1.00442 -0.0124325 -3.43371e-22)
(1.00208 -0.0113266 0)
(0.844074 0.229741 -6.15617e-21)
(0.817509 0.223198 -7.87561e-23)
(1.02075 -0.00295385 7.22726e-23)
(1.02103 -0.00302064 -6.75319e-23)
(1.03763 -0.0885549 0)
(1.04369 -0.091144 0)
(1.15266 -0.147937 0)
(1.16113 -0.170716 -3.25862e-21)
(1.01132 0.0044744 -3.78886e-21)
(1.01218 0.00569599 -1.02649e-21)
(1.01255 0.00442601 -2.35299e-21)
(1.015 -0.00320258 3.57391e-22)
(1.01483 -0.00304248 -1.16229e-21)
(1.01493 -0.00303774 -9.16284e-22)
(1.06792 -0.0639807 -1.2648e-20)
(1.02884 -0.0297038 2.39669e-21)
(1.0308 -0.0290543 -2.56633e-21)
(1.02905 -0.0278074 2.91648e-21)
(1.05482 -0.0230087 0)