/*--------------------------------*- C++ -*----------------------------------*\
| =========                 |                                                 |
| \\      /  F ield         | OpenFOAM: The Open Source CFD Toolbox           |
|  \\    /   O peration     | Version:  v2012                                 |
|   \\  /    A nd           | Website:  www.openfoam.com                      |
|    \\/     M anipulation  |                                                 |
\*---------------------------------------------------------------------------*/
FoamFile
{
    version     2.0;
    format      ascii;
    class       surfaceScalarField;
    location    "750";
    object      meshPhi;
}
// * * * * * * * * * * * * * * * * * * * * * * * * * * * * * * * * * * * * * //

dimensions      [0 3 -1 0 0 0 0];
oriented        oriented;


internalField   nonuniform List<scalar> 
14470
(
0.00291174
-0.000912087
-0.00200188
0.000357695
0.000235619
-0.00409601
0.00407099
1.24462e-05
0.000175366
0.00023417
-0.000409536
0.000892152
-0.000947323
4.58507e-05
0.00111221
-0.00111501
3.05003e-06
-0.000779818
0.00154225
-0.000762237
0.000155297
0.000421513
-0.000576806
0.00317453
-0.000537162
-0.00264169
-0.000132192
-0.0013269
0.00143327
-0.00143456
0.00128042
2.70526e-05
0.00324519
-0.00331983
-0.00113564
0.000522408
0.000613066
-0.00453361
0.00326856
0.00124413
0.0023029
-0.00280465
0.000501608
0.00168181
-0.00167765
-3.29472e-06
-0.00401988
0.00127725
0.00272832
0.000632241
-0.000531959
-0.000100277
-0.00144689
0.0030551
-0.00169826
-0.00185311
-0.00208607
0.00389691
-0.000297708
0.000297708
9.99258e-05
-0.000495691
0.000395763
0.000504746
-0.000349446
-0.00073373
-0.000402089
-0.000525262
0.00210912
-0.00158439
-0.00343537
0.00105973
0.00234644
0.000357408
-0.000510091
0.000122777
0.00113041
-0.00265223
0.00133732
-0.00033401
-0.00100304
0.000320654
0.000132596
-0.000453249
-0.00108129
0.00097577
0.000105688
0.00379
-0.00375603
-4.85997e-05
-0.00070502
-0.00291563
0.00359649
-0.00030089
-0.000270681
0.000372439
0.00107811
0.000844317
-0.00192194
-0.00215357
-0.000290679
0.00244261
-0.00026675
-0.00144188
0.00170785
-0.000326725
-0.000426194
0.000752916
-0.00226657
0.00158676
0.000680303
1.33484e-05
0.00132429
0.00054804
0.000299608
-0.00084759
-0.000195918
0.00051621
-0.000320283
-1.02316e-05
0.000348551
0.000467616
0.00299188
-0.0034667
0.000521256
0.00298479
-0.00351581
-0.000282049
-0.000234134
0.000516184
4.75324e-05
-0.000277488
0.000228806
-0.000858452
0.00321869
-0.00238178
-0.000224306
-0.00381226
-0.00140761
0.00248642
-0.000785171
0.000294083
0.00233192
-0.00162236
-0.000708817
0.000781253
-0.000736549
-0.00195427
0.00133356
0.000620719
0.00062443
-0.000449065
-0.00338031
-8.04137e-05
0.0034041
-0.000111344
-0.00131468
0.00142688
0.00203089
-0.00290865
-0.000277488
0.00194694
-0.00035873
-0.00158892
-0.000537263
0.00103339
-0.000496053
0.00389665
-0.00393971
3.00866e-05
-0.00257763
0.000455608
0.00212237
-0.000185515
0.000996371
-0.000962319
9.02463e-05
0.00307877
0.00023396
0.000237278
-3.16524e-05
0.00216322
-0.00213183
-0.0001931
-0.00224567
0.00243727
-0.00082583
0.000247181
0.000578691
0.00391034
-0.0017123
-0.00220316
-0.000102031
-0.000682804
0.000784816
-0.000345411
0.000618918
-0.000273504
0.00192547
-0.00185546
-6.98639e-05
0.000663697
-0.00101946
0.000355849
0.000550448
-0.000690841
0.000125837
-0.00118135
0.00143292
-0.0002516
0.000928299
-0.000374595
-0.000553674
-0.00404668
0.00104159
0.00300011
-0.000728886
0.000746727
-2.06583e-05
-7.88423e-05
-0.0011025
0.00049038
0.000141866
0.00149302
0.000189645
-0.00228478
0.000505811
0.00177921
-0.00234811
-0.000866823
-8.5776e-05
0.00095272
-0.000846157
0.000123548
-0.00195193
0.00162595
0.000327177
0.000410011
-0.000736742
0.000309837
-0.00084703
-0.000433502
-0.000138487
0.000571987
-3.46921e-05
0.000618926
-0.0005842
-0.000781966
0.000747318
0.000986257
-0.00166543
0.000679739
-0.000603807
0.000407899
-0.00391153
0.000743155
0.00315087
-0.000283845
0.000947628
-0.00148205
3.81845e-05
0.00144446
0.00233564
-0.000410097
-0.00192575
6.40166e-05
0.000812316
0.000402834
0.000370861
-0.00077374
0.00047888
0.00185367
0.00160914
-0.00180467
0.000194939
-0.00325487
0.00371425
0.00121032
-0.000940339
-0.000269872
0.000743242
-0.000351188
-0.000392037
0.00178524
0.00014014
0.00316937
-0.00298325
-0.000256835
-0.00333713
-0.000718571
-0.000251078
-0.000798112
0.000778753
-1.34185e-05
0.000519534
-0.000419609
0.000154363
0.000405591
-0.000559954
0.000368578
9.71963e-05
-0.000465774
0.00098032
0.00292403
-0.000886882
0.00278302
-0.00191106
-0.0010817
0.00304338
-0.00196341
-0.00309203
5.71334e-05
0.00302495
-0.000167951
-0.000413291
0.000581241
-0.00289345
0.00342877
-0.000542081
0.000447253
0.000576591
-0.00102382
-0.00189124
-5.92942e-05
0.000998745
-0.000919568
-7.91036e-05
-0.000200221
-0.00153458
0.00173569
0.00253574
-0.00282842
-0.00333722
0.000435677
0.00169088
-0.000582578
-0.00110771
-0.000250869
0.000571523
-0.00113438
0.0016153
-0.000480241
-0.00175405
0.000620422
-0.00247293
-5.27999e-06
0.0024769
-0.00450654
0.00145407
0.0030154
0.000227595
0.0026813
-0.00229991
-0.000175986
0.00247497
-0.00247926
0.00216259
0.000316914
0.000476052
0.000491105
-0.000967049
2.56851e-05
-0.000957834
0.00093238
-0.00244787
0.00136463
0.00057606
-3.76067e-05
0.00159358
-0.000598866
-0.000994174
0.000740573
-0.000539432
-0.000201127
-0.00163448
-0.00398256
0.00121264
0.00276239
-0.000230936
-0.00160755
0.00183952
-0.000220062
-0.000314841
0.000534904
0.000284634
0.000443753
-0.000728356
0.00346743
-0.000131592
0.000237623
-0.000521431
-0.00227484
-0.00226132
0.000128154
-0.000880775
0.00357171
-0.00272521
-0.000551684
0.000722711
-0.000171024
-8.72821e-05
0.00242235
-0.00164781
-0.00182193
-0.00345131
0.00323616
0.000209148
-0.000604235
0.000872844
-0.000268577
-7.12886e-05
-0.0016056
0.00379727
8.58725e-05
-0.000225978
-0.000855186
-0.00257868
-0.000581264
0.00315222
0.00179746
-0.000170307
-0.00219762
-0.000276356
-0.00309812
0.00121168
-0.000108409
0.000544742
-0.000436324
0.000793215
-0.0034121
0.00260914
0.000403857
0.000524479
0.00172923
-0.00153166
-0.000198784
0.000347145
-0.00308333
0.00272999
-0.0029469
0.00329178
-0.000422812
-0.000110683
0.00129665
-0.00121938
-0.00215349
-0.00183516
-0.000390465
0.000608133
-0.000217668
0.000670687
-0.000419833
-0.000250851
0.000382527
-0.00107955
0.000696841
-0.0030282
0.00301221
0.00105865
5.38671e-05
-0.00109884
0.000484065
0.000614881
0.000777385
-0.000183882
-0.000593498
-0.00453201
0.00339554
0.00112463
-0.000551685
-0.00182277
0.00237403
0.000838741
0.000371669
-0.000502111
-0.00037191
-0.00151826
0.00313677
-0.00262431
-1.59827e-05
-0.00283179
0.0028371
0.000149426
0.000704013
0.000294855
0.000227047
-0.000572455
0.00034053
0.000330162
0.0017003
-9.19109e-05
-0.00313821
0.000666995
0.00246501
-0.000107061
0.000396617
-0.000289558
-0.000657095
0.000109424
0.000547667
0.00201658
-0.00195808
-5.95181e-05
-0.00271499
-0.000457615
0.00315283
-0.000200144
0.00241541
-0.00221547
-0.000491818
-5.82689e-05
0.000550087
0.00321852
-0.00136668
-0.00193688
-0.00169757
0.00296305
-0.00190489
0.00203235
-0.000138929
-0.00128811
-0.00189008
0.00317311
-0.00107227
-0.00150663
0.00255291
0.00203084
-0.000435709
-0.00159449
0.0026909
-0.00208677
-0.000604711
0.000212689
-0.000636814
0.000424126
-0.00360865
0.000772498
0.00283078
-0.00181218
0.00201894
-0.000206503
0.00287897
-0.00253747
-0.000660705
-0.00223628
0.00289434
0.000881035
-0.000652074
-0.00022894
0.00152302
0.000559725
0.000180856
-0.00271709
0.0027709
-0.000146163
-0.000640606
-0.000185187
-0.000486296
-0.00179824
0.00213543
-0.00242813
0.000292637
-0.00230269
-0.00224571
-0.000644655
0.00112082
0.00193464
-0.00283456
0.00130562
-0.000256809
-0.00104886
-0.000208681
-0.00127282
0.00213435
-0.0032393
0.0004983
3.60872e-05
-0.000534393
-0.000543303
0.0013194
-0.000776287
-0.000568057
0.00155474
0.00403482
-0.000963438
-0.00308711
-0.000302659
0.00180309
-0.00149928
-0.00142241
-3.49652e-06
0.00142552
0.00109594
-0.00112821
3.22541e-05
1.00007e-05
0.00108591
0.000396824
0.000246852
-0.00064368
0.00100997
0.000509608
-0.00151869
-0.000199254
0.00233521
-0.00096489
-0.00161217
-0.00012544
-0.000531656
-0.000213413
-0.00303383
0.00321391
0.000354176
0.000582668
-0.00021409
0.000976617
0.00215022
0.00172575
-0.00170234
-2.92872e-05
-0.000464553
0.00101268
-0.00419098
0.00368879
0.000491462
-0.000230912
-0.00058282
-0.000272612
-0.00108723
0.00136054
-9.82946e-05
0.00133848
-0.00123947
-0.00305343
0.00134768
-0.00189976
-0.00190577
9.38523e-05
0.00155919
3.03595e-05
-0.00158919
-0.00226333
0.00196017
0.000302458
-0.00349763
-0.00173001
0.000992921
0.000737414
-0.000485689
-4.68065e-05
0.000532496
-0.00112391
0.00322198
0.000585167
0.000713739
-0.00129905
0.000191393
0.000598497
0.00210368
-0.000181307
-0.0019425
0.000969518
-0.000600964
-0.000545636
0.000456478
-0.00340464
6.49834e-05
0.0033347
0.000141662
-0.000745868
-0.00060698
0.000917663
-0.000310614
0.00243475
-0.00203944
-0.000455185
-0.000744481
0.00266224
-0.000897303
0.000388144
0.000509207
0.000387737
0.000343563
-0.00119494
0.00118639
-5.34663e-06
-0.000347897
-0.00033067
0.000448406
-1.62322e-05
-0.000590713
0.00059651
-0.000704909
-0.00198249
-0.000136159
0.00211785
-0.000859593
0.000467758
0.000391868
-0.00121488
-0.000167913
0.00138361
-7.6164e-05
-0.000495448
0.000417925
7.75213e-05
-0.000745172
-0.00234282
0.000154425
-0.000408104
0.00025368
0.000747838
-8.23307e-05
-0.00068956
-0.00150406
8.11474e-05
0.000146344
-0.000393972
0.000247627
-0.000466577
0.00103465
-0.000568093
-0.000493043
0.00152947
-0.000518674
0.00247367
-0.00248026
0.00159292
-9.91621e-05
0.000267255
0.00242268
-0.000286354
-0.00292194
0.00318747
0.00194328
-0.00304327
0.00109515
0.000458528
0.000422535
0.00102218
-0.00154788
-0.00220459
0.00144393
-1.03624e-05
7.52336e-05
-7.78035e-05
-0.000747812
-0.00204518
-9.52512e-05
0.000567492
-0.000671027
-0.00324642
-0.000567518
0.000224263
0.000343251
-0.00384
0.00102222
0.00275218
0.000212657
0.0031645
-0.00339814
0.000394664
0.000136668
-0.000690651
-0.00353414
9.79187e-05
0.000498485
-0.000519341
2.08566e-05
0.000714826
-0.000430164
-0.00113826
0.000643643
0.000494546
0.000353069
0.00170769
-0.00206286
-0.00169381
0.00146384
0.000400949
-0.00180142
0.00160628
0.000195449
-0.000612836
6.11555e-05
-0.00327569
1.53263e-05
0.000483359
0.000434382
-0.00234691
0.000156333
0.00219104
0.00397317
-0.000988463
-0.000113544
-1.61106e-05
0.00357228
0.000202812
-0.000702741
-0.00102691
0.000235619
0.000398608
-0.00273316
0.00311886
-0.000390048
-0.00115172
-0.000200171
0.00135152
0.00345955
0.000117246
0.00246868
-0.0025892
0.000150094
0.00116761
-0.00131802
-0.00012033
0.00134204
-0.0012214
0.0031903
-0.00392089
-0.0031027
-2.41442e-05
0.0031175
-0.00192073
0.00227152
-0.000563067
-0.000445421
0.00100856
-0.000425311
7.37148e-06
0.00041794
-0.00309246
-0.00101374
0.000193289
-0.00324672
0.000414198
0.00218335
-0.00261389
-0.000478674
8.8209e-05
-0.000354158
0.000508585
-0.000556638
0.000694759
-0.000138118
-0.00294276
-0.000123147
0.00303139
0.0010815
-0.00120156
-0.00139631
0.000244234
0.000757917
-0.000434331
-0.000323577
0.00168637
-0.00070945
-0.000976104
-0.00025213
-0.00282456
0.00304563
0.000136913
0.0029667
-0.00313018
-0.0025237
0.00291965
0.0014967
9.69886e-05
-0.000454676
0.00306283
-0.00261217
0.000509812
-6.75391e-05
-0.000442269
0.00215473
-0.00296651
0.000800026
0.00347897
-0.00426484
0.000744857
0.00134944
-0.000363342
-0.000986197
-0.000270763
-0.000296758
-0.000304552
-0.000336026
0.000545638
-0.000864146
0.000768174
-0.000365364
-0.00167816
-0.000529563
0.00220824
0.000487856
-0.00016578
-0.000322076
-0.000680423
0.000397953
0.000282475
-0.000232748
0.000629572
0.000128298
0.00202294
-0.00215135
-0.00113644
-0.00112966
0.000918438
-0.000892529
0.00017224
-0.000605749
0.000381044
0.000282921
0.00102599
-0.00130951
0.000224472
-0.000623313
0.00038396
-0.000145107
-0.00183794
-0.000574835
-0.00262361
0.00317536
-0.00368184
0.00324424
0.000367115
-0.00303562
0.00257695
-0.00329584
0.00279211
0.000459148
-6.64959e-05
6.64959e-05
-0.00015602
0.000665837
-0.00146784
-2.14412e-05
0.00130998
-0.00128802
-0.00211066
0.00189304
0.000218019
0.000321775
0.000882149
-0.0012037
0.00233132
-0.00260977
-0.00154927
0.00205529
0.000497893
1.53134e-05
-0.000513206
-0.000753087
0.000277863
0.000475222
-0.00087502
-0.000136213
0.00101105
0.000204365
0.00148301
0.00370374
-0.000267937
0.00198007
-0.00185187
0.000470907
0.00358617
0.00057368
0.000343267
-0.00091691
0.00104049
-0.00162591
0.000401655
0.000399966
-0.000704484
-0.000751533
0.00115147
-0.000399846
-0.00104914
0.000269465
-9.24502e-05
-0.000464187
-0.00123193
0.00138172
-0.00194709
0.000193932
0.00170338
0.00393228
-0.00369115
-0.000260453
-0.00101334
5.5714e-05
0.000966307
-0.000392589
-0.00303269
-0.000581421
-0.000391073
-0.000289347
-0.000183167
-0.00181702
-0.00238286
0.00179621
0.000569229
0.000514604
-0.00036826
0.00070378
0.00197141
-0.00132542
-0.00318892
-0.00149349
-3.89003e-05
0.00292592
-0.000784135
0.00287243
-0.00208721
0.000731686
-0.00115977
0.000427934
-0.000763804
0.000661753
0.000449124
-0.00190621
0.001457
0.00163051
0.000384917
0.00304767
-0.00149849
-0.00160554
0.00333262
-8.80836e-05
-0.00325926
-0.000373414
-0.000546061
0.00146803
-0.00142926
0.0036287
-0.00368735
6.64111e-06
-0.0020156
0.00199139
1.60662e-05
-0.00104433
-0.00090982
0.00124499
2.0183e-05
-0.00126565
-0.00167641
0.00212544
0.000147913
-0.000462753
-0.00201219
9.26681e-05
-0.00379149
0.000858676
0.000469415
-0.00084524
0.000375841
0.00144137
0.00155132
5.79743e-05
-0.000543664
0.000300483
0.000476912
0.00277889
-0.00280494
-0.00363954
0.000170544
0.00345433
-0.000903823
0.00284215
0.00219269
-0.0011935
0.00335627
0.000905099
-0.000534279
0.000177368
-0.000201477
-0.000695791
0.00181025
0.00294361
-0.00298645
3.96167e-05
0.00140756
-0.00160698
0.00141794
-0.00168544
0.000208078
-0.000621372
0.000227163
0.00171919
-0.00070968
-0.000236109
-0.00185466
-2.16409e-05
0.000736505
0.000377193
0.00264732
-0.00303064
-0.00340584
0.000821626
-0.00300492
0.00131177
-0.000454329
0.00404885
-0.000973135
-0.00310809
-0.00302172
-0.000145192
0.00315133
-0.00310069
-9.9224e-07
-0.0017113
0.00167782
-1.16652e-05
-0.000301115
-0.00217538
0.00247568
0.00238363
-0.00211719
0.000907394
-0.00117941
-0.000430506
0.000425057
-0.000206224
-0.000633493
0.000141674
9.00116e-05
0.00173273
-0.00182351
-0.000872357
0.000120885
-0.000534641
3.91916e-05
-0.00302079
0.000133904
0.00121541
0.000463479
0.00107897
-0.00306561
0.00258891
0.0014458
-0.00186206
0.000265982
-0.00337193
0.00255794
0.000807794
0.0004838
-0.00125258
0.0007688
0.00106271
-0.00122991
-0.000341375
0.0026332
-0.000165562
-0.00247709
0.000227174
0.00179073
-0.000732869
0.00106923
-0.000336447
-0.000559876
-0.000538868
0.000368671
0.00077985
-0.00111628
-0.00156829
-0.00188772
0.000232035
-0.00151504
0.00128285
-0.000478748
0.000244615
-0.000854399
0.000387793
0.000501426
0.00104118
-0.0015438
9.11856e-05
0.00229336
-0.00238623
-0.000673619
0.00125869
0.000908628
-0.000504734
0.000548682
0.000675217
-0.00122337
0.00229533
-0.00316213
0.00086368
-0.00428863
0.00145053
0.00280429
-0.000423514
0.000636206
0.00381873
-0.00363656
-0.000198299
-0.00060957
0.00109373
0.00108267
-0.000328689
-0.000753826
0.0030685
0.000502012
-0.00030613
0.000902661
-0.00183137
0.00202388
-0.000192318
-0.000408579
-0.000210771
0.000619334
0.00337638
-6.0576e-05
0.000301793
0.000294444
-0.000596234
0.000481514
-0.000920706
0.000439335
0.00251323
-0.00021058
-0.000505403
0.000893599
-0.00348023
-0.000449342
0.000354678
0.00040325
0.000466244
-0.00292094
0.00244241
-0.00348336
0.00325866
0.000204736
-7.23287e-06
0.00128276
-0.00367219
0.00343276
-0.000536009
-0.00268155
0.00340951
0.00121005
-0.00327374
0.00203934
-0.000366513
-0.00188665
0.0022509
-0.00323164
0.00307211
-0.00286846
0.00164493
-0.00100138
-0.000643217
0.00337834
-0.00134545
-0.00203341
-0.00189097
0.000839362
0.00110453
-0.00199318
-0.00147026
0.00225126
0.000103405
0.000394487
-0.000752918
0.00098964
-0.000236756
-0.00157195
0.00207181
0.00109611
-4.03391e-05
0.00242304
-9.44747e-05
0.0028388
-0.00274723
-0.000232197
0.00166843
-0.00288032
0.000270369
0.000424394
0.0032185
-0.000316613
-0.000245433
0.000438931
0.000285477
0.000185761
-0.000471238
-0.000425224
0.000724874
0.00159617
-3.66154e-05
-0.000337984
3.24423e-05
0.000272311
-0.000933538
0.00334164
-0.00241307
-0.00116159
0.00115005
-1.23072e-05
-0.000626286
-0.000672995
-0.00274139
4.79628e-06
-0.00145348
0.00185976
-0.000406545
-0.000102292
-0.00217395
0.00227494
-3.95765e-06
0.000502256
2.54579e-05
0.00071447
0.000471705
-0.000237744
0.000133861
-0.000475516
0.000104786
-0.00096685
0.000403847
0.000773349
0.00231388
-0.00309919
-0.000715669
-0.00121932
0.00193633
-0.000479809
0.000433002
-0.00244699
0.00289963
-0.000424061
0.000909963
-0.000485832
-0.00360414
0.00353089
6.25701e-05
0.000117321
-0.00016403
-6.42102e-06
0.00323312
0.000617866
0.000743133
-0.00117587
0.000432888
-2.78059e-05
-0.00060901
-0.0021654
0.000187779
0.00262059
-0.00121706
0.00018153
-0.000789708
-0.000291859
0.00128506
-0.000381981
0.000683782
0.000324046
-0.00176646
-0.000581491
0.000761482
-0.000307449
0.00114791
0.000285051
-0.000370712
-8.59038e-05
0.000435353
0.00154607
-0.00248401
2.81396e-05
0.00289013
-0.00293644
-0.000588402
0.00149655
-0.00199361
-8.22722e-05
0.00198558
0.000897553
0.000421433
-0.00316536
0.00163508
-0.000412958
-0.00250009
0.00290878
0.000523863
0.00124981
-0.00177289
0.00101755
-0.000984423
-3.30746e-05
-0.000432374
-0.000753037
0.00118569
0.00339274
-0.000248981
-0.000241471
0.000433803
-0.00107879
0.00051899
-0.000209633
0.00338596
-0.00318455
0.00299818
-0.000126458
0.000320144
-0.00148658
-0.00174184
-0.000807724
-0.000682111
-0.000396621
0.00218564
-0.00238434
0.00045767
-0.000881673
0.00115782
-9.33949e-05
-0.00106421
0.00127552
0.000321491
-0.00159714
-0.0018312
0.00160636
0.000225213
0.000179213
0.000335393
-0.00234033
3.97039e-05
0.000393959
-0.00102045
-0.000554563
0.000343965
0.000210602
-0.000602993
-0.000363802
-0.000536888
-5.07954e-06
0.000541983
0.000347704
0.000735157
-0.00105491
0.00297755
-0.00143601
-0.000501016
7.57052e-05
0.00207596
-0.00155115
-0.000422664
0.000156657
-0.000759608
-0.000471366
8.54156e-05
-0.000401038
0.00148461
0.000111994
0.00110318
-0.00102918
-7.36543e-05
-0.000852919
-0.000553214
0.00140549
0.000198456
-0.000469228
-0.000390022
0.000679269
-0.000289242
-0.000904605
0.00215525
0.00113959
-3.60257e-05
0.000152253
0.00157232
0.000908221
-0.000262393
-0.000645799
0.00196376
0.00297614
-0.00221414
-0.00047422
-0.00256578
-0.00300056
0.000387222
0.00260963
-5.60068e-05
0.00152463
-0.00042633
0.000673182
0.000889831
-0.000422032
0.000554915
-0.000190221
-0.000364692
-0.00235543
0.00217854
0.0015346
-0.00173489
0.000225451
-0.000634059
0.000479274
-0.000847419
0.000368134
0.00248385
-0.00249216
6.3629e-06
-0.0014246
9.88598e-06
0.00141563
0.00144679
-0.00210944
0.000491809
-3.95298e-06
-0.000856897
0.00158836
0.00282646
-0.000818856
-0.000319456
-0.00042191
0.00089135
0.00014055
-0.000530567
0.000806645
6.72971e-05
0.00196341
0.000835399
-0.000416257
-0.000419098
0.000338908
0.00169241
0.000978817
-0.0002747
-0.00169995
0.000985392
0.00119344
-0.000871404
-0.00051559
-0.00153054
0.00204633
-0.00017759
-0.0036477
0.00263572
0.00100262
-9.21615e-05
0.00332128
-0.00170879
0.000365855
0.00134349
-4.22451e-05
-0.000252589
-0.000957458
-0.000750675
0.00127238
-0.000838681
-0.000433449
0.000232152
-0.00101366
0.000781646
-0.000191319
-4.33091e-05
0.000210324
-9.8213e-05
-0.000767378
0.000841559
-0.00317234
0.000538032
0.00263121
0.00285043
-0.000143555
-0.00271635
-0.0007462
-0.000210146
-0.00268565
-0.00151473
0.00127668
-0.000118625
0.00124601
-0.000762142
-6.07642e-05
0.000287271
-7.16984e-05
0.00112832
-0.000785005
-2.61177e-05
-0.00295584
0.0029305
-0.000369999
-0.00018456
5.02071e-05
-0.00168798
0.00163888
0.00123848
-0.00125542
1.6904e-05
-0.000151802
0.0010376
-0.000555943
0.00299341
-0.000920117
-0.00216358
-0.002884
0.00197621
-0.00021852
0.00136644
-0.00133754
0.00319122
0.000142795
-0.00171246
0.00149215
0.000221296
0.000166586
0.000570745
-0.000737419
0.00119417
-0.00272054
-0.00138754
0.000964068
-0.000667233
-0.000296823
-0.00176653
-0.000497118
-0.000336767
0.000339995
0.000624066
0.000102711
-0.00313878
0.00148285
-0.00106999
-0.00173493
0.00242874
-0.00176665
0.00342705
-0.000241165
0.000856561
1.07556e-05
-0.000867316
0.000367381
-0.000368335
0.000630202
-0.000261864
-0.00251778
0.00288894
8.21724e-05
-0.00319262
0.00342445
-0.000305376
-0.00315472
0.00277769
-0.000532667
-0.00224691
0.0024412
0.000936102
-0.00231356
0.0018275
0.000355715
0.000287654
-0.000643386
-0.001758
0.0018094
-0.00156732
0.000382662
0.000526009
-0.00184276
0.00147994
-0.000204527
0.00296175
0.000220317
0.000551506
-0.000241013
-0.000310494
0.000157842
0.00231455
5.62525e-05
0.00130096
-0.00146269
-0.00062449
0.000856759
-0.000451072
0.000392803
-0.000932145
-0.00280147
-0.000124876
-0.00348299
0.000266696
0.000997648
0.00190906
-0.00186885
0.000954972
3.80039e-05
-0.000992807
4.74725e-05
0.00260023
-0.00265093
0.000675927
-0.00126359
-0.000110651
0.00259237
0.00311427
-0.000161561
-0.00112623
0.000694105
-0.000523964
-0.000138589
0.00066256
-0.00135562
0.00120269
0.000153485
0.000463705
0.00307266
-0.00232401
0.00283295
-0.000541415
0.000848001
-0.00130605
0.000458211
-0.00173152
0.00101073
0.000259713
-0.00127032
0.000682113
-0.00373442
0.003003
-0.000144743
-0.00347062
-0.000448713
0.000545909
0.000246141
-0.000318603
-0.00135751
4.36844e-05
-0.000175285
0.00116956
-0.000994338
0.000325864
-0.000213483
0.000658963
0.0017398
-0.00240457
0.00040972
0.000119279
-0.000528991
0.000332788
-0.000779939
7.52336e-05
-0.000443292
0.000615527
0.000725973
-0.00157953
-0.000991584
0.00012487
0.0012184
-0.00141897
-0.002894
0.00276572
4.90462e-05
-0.000573005
0.000551506
0.000171813
-0.00339916
0.000153829
0.00323522
-0.00247551
0.003127
-0.00157324
0.00178123
-0.000207647
-0.000483699
0.000448371
3.53271e-05
-7.75319e-05
0.00214811
0.00332163
-0.00326143
0.00184042
-0.00319047
-0.00365868
-0.00297037
-0.00181852
-0.00183573
8.74345e-05
-0.000624311
-0.0017493
0.000176475
-0.00247802
0.00217606
-0.0027324
0.00263996
4.31692e-05
-0.000415649
0.000599231
-0.00118135
0.00252936
-0.00202782
0.00125634
-2.79674e-06
0.00321863
0.000168959
0.000965527
-0.00292319
0.00195653
-0.000490081
0.000548055
-0.000745065
-0.000434628
0.00117931
0.00254649
0.000393583
0.000186583
-0.00010126
-0.00161896
0.00152373
-0.00203915
0.00084524
-0.000423077
-0.000422136
-0.000570085
0.000142058
0.000428026
-0.00392885
0.000532969
0.00337595
-0.00163149
-0.000380476
0.000574362
-0.000193892
0.00103662
-0.00133842
-0.0014261
0.00137716
-0.00117692
0.00141288
-0.000515677
0.000168721
-1.62447e-06
-0.000180048
0.00125581
-0.00124217
-8.09875e-05
-0.000119591
-0.000633496
0.000119712
0.00104489
2.61577e-05
0.000128175
-0.000373594
7.23079e-05
0.0025522
-0.00197474
0.00171631
0.000258952
0.000107996
0.00273224
0.00191838
-0.00205531
-0.00106013
0.00134246
-0.000426733
-0.000385617
0.000812335
-0.00187067
-0.00201691
0.000441433
0.00357284
0.000272253
-0.00033867
0.00364579
-0.000401924
0.00179216
0.000260087
-0.00205672
-0.00266114
0.00265285
-1.47621e-06
-0.00142984
-0.00262123
-0.000897541
0.00169035
-0.000792049
-0.00118439
0.000309125
-0.000109165
0.00160656
-0.00115505
-0.000556639
-0.0018617
-0.00251123
0.000500506
-0.000298762
-0.000201744
0.000500516
0.000831901
-0.0013324
0.00310308
0.000276437
0.00162018
-0.000709804
-0.000910563
0.000236187
-0.000487056
0.00050455
-0.00285394
4.14296e-05
0.000181689
0.00309617
-0.00330496
0.000868156
-0.00116827
0.000300272
-0.00141928
0.00052266
-0.000415721
-0.00272123
-0.00182555
-0.000465029
0.0022907
-0.00340808
0.00260886
0.000712909
-0.00212186
-0.000328673
0.000143811
0.000468847
0.0006057
-0.00107442
0.00290091
-0.00111314
0.000761971
-0.00084764
-0.00323935
0.00308118
0.000127789
-6.59516e-05
0.0011479
-0.00108172
-0.00338666
-0.000242753
0.00356207
0.00271681
-0.000302021
0.000179443
0.00294128
-0.00312956
8.58258e-05
0.00210031
-3.82605e-05
-0.000694718
0.000555541
-0.000270064
-0.00175152
0.00168583
0.000987983
0.000631844
0.00193396
-0.000129694
0.00353276
0.000561996
-0.00038278
-9.54253e-05
0.000194989
0.00144272
-0.00163666
-0.002486
-0.000567417
0.00304426
-0.00226504
-0.000374086
0.000555332
-0.000181246
-0.00304134
0.00319676
-0.000249528
-0.00318691
0.000121663
-0.00216251
0.000221349
0.00194119
-0.00124765
-0.00177186
0.0030144
0.000369877
0.000304485
-0.000664851
-0.00270139
0.000410323
0.000499727
0.000661888
-0.000252156
-0.000547318
0.000137781
0.000104233
-0.000857199
0.000237588
0.000262919
0.000109938
0.000841083
-0.00122712
0.000385928
-0.000677407
0.000326235
-0.000124395
0.000121153
-7.43359e-06
0.00264549
-0.000722982
0.00289347
-0.00224789
0.000458381
0.00073535
-0.000247535
0.00326365
0.00027212
0.000358088
-0.00126313
0.00149503
-0.00120887
0.000155396
0.0010538
-0.00337661
0.00287637
0.000495832
0.000410862
-0.00084822
0.00043739
0.000369076
-0.000458032
8.89573e-05
-0.000173686
0.000587574
-0.000413888
-0.00156081
0.00184927
-0.000288093
0.00195824
-0.00182278
-0.000134951
0.00025411
-0.000938421
0.000299569
0.000423147
-0.00337193
0.000448035
0.00287566
0.000141566
-0.000570323
0.000428749
-0.000456629
-0.000658189
-0.000928042
-8.50659e-05
0.00101319
3.9382e-05
0.000594
-0.000633357
-0.000590891
0.000838128
0.0024755
-0.000516087
-0.00289576
0.00232058
0.000573882
0.000125258
-0.00220884
-0.000480326
0.0019749
-0.00149336
0.000296873
0.00032205
0.000347345
0.000260788
-0.000793024
-0.00196328
0.00268441
0.000461048
-1.38353e-05
-0.000447214
0.00030734
0.00222141
-0.0011849
0.000393365
-0.000820129
-0.000677853
0.000844339
0.000301646
-0.000979663
0.00287735
-0.0027649
-0.00149505
-0.00174473
-0.000244115
0.00198945
0.002432
-0.00242699
-0.00074731
0.000274148
0.00013168
-0.00180818
0.00165768
-0.000461273
-0.000238185
0.000699474
0.000550343
-7.93525e-05
-0.000660164
-6.61344e-05
0.00291524
-0.00133182
0.00096995
0.000362065
-1.82853e-05
-0.000786315
0.00124503
2.37219e-06
-0.00202437
0.00202045
0.00066597
-0.000325435
-0.000516853
0.000774897
-0.000258031
-0.000413365
0.000970664
-0.000557262
0.00175136
0.000365496
3.8379e-05
-0.000425675
0.00218226
-0.00218156
0.000353295
-1.20068e-05
-0.00357087
0.00298121
0.000431906
0.00116013
-0.00014922
0.00149509
-0.00203509
0.00304307
-0.00326044
-0.000121711
-0.00186261
0.00198488
-0.000404101
0.00054616
0.00224582
-0.00197818
-0.000267117
-0.000293687
0.00304172
-0.00275266
-0.000240407
0.000719679
0.00395269
-0.00388044
0.000482666
-0.000111297
-0.00273306
0.000190855
0.003103
0.000769768
0.00159003
-0.00236102
0.000419078
-0.000420483
1.40526e-06
-0.0011287
-0.000112478
0.000468912
-7.86426e-06
-0.000926903
0.00024408
0.000124914
0.00277364
-0.000231299
-0.00204628
0.00028144
0.00176536
2.19511e-05
0.000191647
-0.00311321
0.00287337
-0.00320252
-0.00032049
0.00349916
-0.000375777
-0.000323958
0.000699751
0.00179422
-0.000187279
0.0022694
-0.00222468
-0.00156686
0.00130043
-0.00105651
0.000337756
0.000570501
0.00365914
-0.00268438
-0.000639097
0.00121575
0.00336387
-0.00255174
0.00169466
-0.000626383
0.000702194
-7.58122e-05
0.00118553
-3.20798e-05
-0.00115312
-0.0012194
0.00251857
-0.0029971
-0.00321844
0.00315828
3.14012e-05
-0.000402968
0.000550881
-0.000278607
-0.000557294
0.000835866
0.000659384
0.000468996
0.00026974
-0.00043552
-0.00275651
-3.12458e-05
-0.000545479
-0.00245776
-0.000825035
-0.00293904
-3.04422e-05
-0.00041827
-0.000195904
0.00211348
0.000871464
0.000408403
-0.00127948
0.000156783
-0.00207933
-0.000688607
0.0032492
-0.00256873
-0.00245122
0.000585119
-0.000781313
-1.59333e-05
0.000866083
0.00235352
0.00103884
-0.00110457
0.000551433
0.00311062
-0.000411523
0.000249723
-0.000779123
-0.000276678
-0.00186405
-0.0019078
-0.00205991
-0.000764682
0.000628333
-0.00028453
-0.000262787
0.000249679
0.00159077
0.000548114
-0.000240414
-0.0003077
0.00287657
0.000261004
-0.00318265
0.00175321
-0.000268269
-0.00206935
0.00215902
0.000634945
0.000343993
0.000395546
-0.00333458
-0.000247839
-0.00157942
-0.000129812
0.00170868
-0.0012104
-0.000230616
-0.00126382
0.00149421
-0.000447219
0.00136124
-0.000811975
0.000428999
-0.000893477
-0.000819972
0.000705735
0.00011427
-0.000645787
0.00293764
-6.28193e-05
0.00080526
-0.00074254
-0.000491107
0.000527188
-0.00228062
0.00205351
0.000227428
0.000249031
0.000623853
0.00107405
0.000198623
0.00302674
-0.00352628
0.000480045
0.00216059
-0.0020057
-0.00149772
8.95846e-05
-0.000358411
0.00318845
-0.00169862
-0.00275756
-0.00217132
-0.00249898
0.00240194
0.000293111
0.00307125
-0.00338603
0.00357053
-0.00277992
-0.000795942
0.00325989
0.000645759
-0.000290054
0.000375954
-0.00220125
0.00226574
3.86214e-05
-0.00230564
0.000942549
0.00338269
-0.000641138
-0.00277689
0.00343026
-0.00335477
-8.20103e-05
-0.00156071
-0.000130293
0.0016915
-0.00055233
0.000947596
-0.000395177
-0.000119297
0.000975859
0.00129279
-3.66453e-05
0.00113328
-0.000637253
0.000517026
-0.00041463
0.000635645
-0.000221009
-0.0012727
-0.000709608
0.0019831
0.000330609
0.000233622
-0.00056423
-0.0014887
0.0007269
0.000762042
-0.000172854
-0.00184388
0.000407232
-0.00219189
0.00244715
-0.000256425
-0.00031331
-0.00032964
0.000642953
-0.000520222
0.000146136
-0.00142909
0.000428014
0.000612696
0.00345295
-0.000276213
-0.0029713
0.00309538
-0.000131205
-0.000964274
0.00187369
0.00031007
-0.000471238
0.000161168
-0.000305543
-0.00177725
0.00208301
0.00292184
0.000182069
-0.000149918
-0.000729018
0.00034853
-0.00108615
0.00066902
0.000417271
0.00234888
-8.46258e-05
-0.00167209
0.000889082
-0.00106444
0.000383123
-0.00158899
0.00120657
-0.00197597
-0.000304012
-0.000451834
0.000593392
-0.000351442
0.0010109
0.00109207
-0.00355879
0.0024619
0.000920258
-0.000618743
-0.000966755
-6.20798e-05
-0.00142908
0.000488051
0.000940937
-0.000258305
-0.00056163
0.0004004
-0.00236465
8.37017e-05
1.67072e-05
-0.00322946
0.000540896