/*--------------------------------*- C++ -*----------------------------------*\
| =========                 |                                                 |
| \\      /  F ield         | OpenFOAM: The Open Source CFD Toolbox           |
|  \\    /   O peration     | Version:  v2012                                 |
|   \\  /    A nd           | Website:  www.openfoam.com                      |
|    \\/     M anipulation  |                                                 |
\*---------------------------------------------------------------------------*/
FoamFile
{
    version     2.0;
    format      ascii;
    class       volScalarField;
    location    "750";
    object      omega;
}
// * * * * * * * * * * * * * * * * * * * * * * * * * * * * * * * * * * * * * //

dimensions      [0 0 -1 0 0 0 0];


internalField   nonuniform List<scalar> 
9793
(
0.0224403
12.82
0.0219412
2.54398
0.0222597
0.181467
0.0799227
5.46598
0.0221504
12.6311
0.0221966
0.0221874
0.0219187
1.47865
0.0217979
0.0264543
0.0513166
0.0219356
2.219
0.0215665
0.021643
0.0222917
2.52881
5.73701
1.53843
0.0267256
0.022099
0.022262
0.021577
0.0756251
7.21762
0.318028
0.0220114
0.021947
0.021869
0.0281577
0.0245894
0.0251698
1.48361
0.0302238
0.0658454
7.2278
4.3637
0.0222717
0.0219633
0.0220431
5.56458
0.0222844
0.0217612
0.0219426
0.027907
0.0218523
0.0364099
0.0222686
0.0332428
2.12321
0.0219269
0.0841661
0.0217651
0.0222914
0.0273019
0.0966079
0.0219542
0.0343048
0.0219629
0.0220776
23.8445
0.0241593
0.0250634
3.41009
0.0220028
0.104083
4.82247
3.88165
4.37213
0.0222625
0.0463259
10.4503
0.0219827
0.0222706
0.0496522
2.18558
0.0494985
0.0239688
0.0250814
0.2192
0.0222612
0.0653312
1.48852
0.093048
1.73878
0.896332
1.01233
0.0403462
4.16823
0.0219129
4.98539
0.0488195
0.0246397
0.0222685
1.29355
0.0346601
2.12708
0.0219682
3.39702
10.8207
3.81714
0.0218796
0.0219868
0.0222835
0.0222336
2.06436
3.27982
6.97353
0.0219777
0.0221124
0.0244917
0.022051
1.78897
0.0220289
2.89043
0.0694281
6.97578
0.0408096
0.0246212
0.0220349
0.0582587
5.71009
0.174153
0.180706
0.0238361
0.0218121
0.0223317
0.0234037
0.0271299
0.148952
0.44516
0.0245351
0.0222737
0.0582715
2.38928
0.0273729
0.0219628
0.0536138
5.37379
0.559307
0.0220357
4.80332
0.0218092
0.0220296
0.0220693
17.8552
0.0241977
0.0220918
0.02193
0.884957
0.0545346
0.0219496
0.422352
0.021934
0.061499
0.0239344
0.0216491
0.356752
0.0221299
7.71091
1.91859
0.0223267
0.0218805
0.0222173
0.0219785
5.98167
27.8028
1.75919
0.0219127
0.165181
0.131692
0.731284
0.0219681
0.0241012
3.79672
6.76398
0.0759507
0.0220359
0.0220735
0.0218741
7.33636
4.59989
19.6906
2.28578
0.0220062
23.9918
0.416562
0.0256093
0.0218222
0.0233741
1.99409
0.0216032
0.021934
0.022204
0.022025
0.0216481
0.0289015
0.0251173
1.66769
0.0219391
0.0277934
0.022327
0.0223913
0.426836
0.0560177
2.59787
0.0216409
2.93894
0.0239973
0.0424969
0.0218094
0.143537
0.0221213
0.0514914
0.0520266
0.0216498
1.45192
1.84723
0.0387169
0.0219021
0.0491011
1.81531
0.0504918
0.0512259
1.50497
0.129107
0.0401559
0.0349543
0.388485
0.0216312
4.14405
5.97747
0.0216089
0.0222223
6.55987
0.0219211
0.0222313
0.101307
0.111333
0.0220694
0.0241426
0.0287761
0.0380449
0.0242121
0.0219741
0.0433877
2.80235
0.0216464
1.76578
0.0222621
0.02217
0.0216694
2.05106
0.0219792
1.74176
2.81507
0.0221033
0.022131
1.94198
0.0218647
0.0222397
0.0218388
2.53346
0.272777
0.0250614
0.417286
0.0789056
2.00474
3.73385
0.0223395
17.8491
0.0222643
1.78329
8.45412
1.48801
3.0072
0.125845
0.0238675
0.0459431
0.0247284
0.0218655
0.0224527
0.437503
0.0269027
0.0221396
0.0222838
0.0216385
0.0216962
0.0216481
2.31429
0.0218709
0.0217894
0.0219121
0.0219202
5.19814
0.53209
0.0657734
0.0229657
0.0540347
0.0220358
3.03558
13.6956
0.0219734
3.29236
0.0325944
0.0219579
20.7302
3.74591
0.0220192
0.0455662
13.595
0.0221809
0.0345098
0.02179
0.0222716
1.83285
0.0411414
0.0219555
0.0220224
0.0228333
0.164295
3.35201
0.0219446
0.0218738
0.0217704
6.5858
5.50636
8.74085
0.0216201
0.0434257
0.0354146
2.05831
0.0646826
0.021638
0.0216946
0.021771
0.0444421
0.0220947
8.58424
0.0220882
0.0217883
2.39802
2.18879
2.52505
0.0217782
1.29803
0.0246878
4.22765
7.5541
1.58132
0.0236241
0.0312738
0.49455
1.59576
1.99632
0.0268163
0.0222634
0.0254718
0.0217284
0.0218557
0.0220766
0.0220812
0.022292
10.0599
0.0222065
0.0585677
0.0298698
5.47746
0.0216344
0.0240488
5.13341
0.513639
1.56745
0.0630389
0.021791
0.0236988
0.0219443
0.402491
0.0215712
2.40795
0.153085
0.0803557
6.79156
1.8516
0.0221374
0.0219002
0.667224
0.359802
0.0219376
6.25114
0.0221313
0.0221756
6.883
0.0216393
0.0854846
0.0216393
1.89119
0.0220935
0.0221441
2.45198
0.0971311
0.0521559
0.0256152
0.0220745
0.0218505
6.41415
0.0485997
0.0215903
0.0221946
0.0345331
0.0355384
0.051866
6.51241
0.0221956
0.0219442
0.384866
0.0220811
2.42983
0.6961
0.0220653
0.0220162
0.0224108
0.0221164
0.0217574
1.30766
0.0518983
3.02668
0.0294071
0.0234803
0.0409972
0.0248738
1.64265
0.0265053
0.0222678
0.0241757
0.458432
0.0219673
0.0219382
0.0220015
0.0215742
0.0219861
0.0218092
0.0220446
0.0221577
0.0229168
0.0246978
0.100651
0.0220116
1.46166
0.025801
0.201935
4.74584
0.0218695
2.57292
0.0779297
0.0218274
0.0215748
0.0219694
3.39851
0.0801601
0.021571
0.0221206
0.0221972
0.0691937
0.147924
10.4396
0.0219762
0.021931
0.0319673
6.17813
1.44815
0.023817
0.0233641
1.84261
7.10797
0.219974
0.0222266
0.0218002
1.57788
0.0219174
0.129524
6.51278
0.0215792
0.241923
0.0267709
1.29699
0.0218508
1.91646
0.254949
0.0259839
1.52945
0.021915
1.82261
0.0220948
0.0218962
0.0222231
0.0219492
3.63651
0.0219083
0.0217415
0.0229155
0.0216278
0.0218012
0.0454727
0.022824
0.0336827
0.0220337
0.022038
3.96259
0.0764032
0.0237649
1.8196
0.0242941
0.0222219
0.0219837
0.0217569
11.2564
0.0217342
0.0220692
7.53177
6.69105
0.0388791
0.021926
0.0222842
0.0221471
0.022241
1.66965
0.022232
2.68833
0.0242504
1.88062
0.0222621
17.1575
0.0222453
0.210493
0.0219234
0.0839043
3.93687
0.0221033
8.61215
0.0219146
0.0222182
0.0216327
4.80646
1.70845
0.021978
0.0275112
0.0217331
1.78355
0.021882
0.0440099
1.8377
0.0254913
0.0220264
0.0459146
0.0222451
0.0222012
0.0217865
0.0947836
0.0219558
1.9758
0.0220517
0.02211
0.0380734
0.0770774
1.0674
0.0217775
16.4418
0.0218959
0.190557
0.0219283
0.0222862
0.0219132
0.0220495
0.0222682
0.204534
0.0403165
8.80839
0.10199
0.035616
0.0343536
5.41717
0.0236798
1.61675
3.94146
0.243253
8.50625
4.31736
0.16882
0.022209
3.3973
0.037749
0.0221823
0.325828
0.022251
0.430209
0.0357018
0.190078
0.0280303
1.85476
4.38951
0.0359098
0.173909
0.022216
0.627022
0.0229771
0.0219258
0.0220833
0.0237591
0.0451736
1.45238
0.265329
4.42491
0.0234048
0.0234881
1.28063
0.349899
0.0231188
0.0583373
0.0224161
4.95755
2.55441
0.0220592
0.0660437
0.28907
4.47542
0.0219578
0.0259331
8.38979
0.028309
7.77351
0.0870437
5.51195
0.0257331
0.0237814
0.0219288
0.0219292
0.231842
0.0222843
0.273133
0.119717
0.0785839
0.0222596
0.0222239
0.0237599
0.0222311
0.0218345
0.0219224
0.0935175
3.5173
1.56347
0.0222797
0.301927
0.0219501
4.53982
0.0448029
0.0475803
0.0347196
0.239244
0.0217532
0.0220601
0.0434754
0.0219171
0.022099
0.0572734
1.28484
0.0216473
0.209774
1.56564
0.0243948
1.77908
1.64709
0.0218255
0.0526386
0.0270731
0.0219996
0.0216277
0.103926
1.54701
4.64033
0.0219851
0.0220168
0.021673
0.0249058
0.022852
0.0238425
0.595945
0.0445333
0.0221515
4.04903
0.0290057
0.0338773
0.0220565
17.7371
0.0237236
0.0219181
0.0808097
2.11135
0.0215999
0.0220507
0.0219501
0.0254869
0.021749
0.0366096
0.444223
0.0221945
0.0943988
0.0229175
0.0220066
1.52154
3.1689
0.310607
0.0220747
0.0216148
5.04295
0.0261196
2.23402
0.0215773
0.0219175
6.19927
2.47467
0.0293445
0.0919386
0.0643372
0.0218991
0.0222717
0.0219571
3.59877
0.0220572
0.0222928
1.47058
0.0278256
0.259813
0.0333755
0.0219359
2.77401
0.0222681
0.0219227
0.0219467
0.0306298
3.34648
0.0221618
0.0219727
0.0219158
0.0219052
0.0219421
0.0219408
10.9154
0.0317008
0.0228491
0.0221098
0.0317837
0.0584405
0.0264123
0.0288942
0.0222839
0.0216663
0.0233066
2.04794
2.01178
0.0233371
4.43901
0.0222153
0.0252983
0.986845
2.21617
0.0217899
0.0221804
0.363477
0.0489969
0.0219073
0.0222487
2.05294
0.0222682
0.0657889
0.0220111
0.623213
0.0222475
0.0223044
0.0221269
0.0304968
0.0221814
0.0246213
0.026423
0.172875
0.0218656
0.0219968
0.0222498
0.0218916
0.0221756
0.0220194
0.0301471
0.0221114
0.0497243
1.65114
0.0415322
0.0600836
0.0222019
0.021786
6.2979
4.2085
0.0216179
1.73477
6.8765
0.0216209
0.0219684
0.0218837
0.0915083
0.0515657
2.44302
0.0218597
0.0249888
0.0218612
0.02232
0.0222879
0.0832234
0.0221507
0.222872
0.0220929
0.0573448
0.0218951
0.0231671
0.0219248
0.0378424
0.0621353
6.40306
2.71604
1.7402
0.0458533
0.0219184
2.93914
3.77269
0.0586809
0.0220643
0.0220847
1.96768
0.0218769
3.05933
0.0216503
0.0290565
0.0222324
0.0222698
0.0217959
7.4286
3.57213
2.81733
0.0741894
5.06059
0.0219537
2.85774
11.0137
0.0222705
0.0220959
0.0217343
2.81083
0.0215714
5.20996
0.0327409
0.127568
0.0222701
0.819183
7.07363
1.73721
0.0294637
0.0311721
0.0220407
19.691
0.0215575
0.640926
0.193974
0.0684251
10.1111
3.55376
0.0238555
0.0233673
0.0219489
0.0916583
5.55358
5.25744
0.0217485
3.86706
0.025992
0.11016
0.128111
1.30321
1.32953
0.0216916
0.0261686
0.0299226
0.0242272
0.024056
2.13779
0.0221969
11.778
0.02181
0.0216677
0.0750706
0.100617
2.42057
0.0226171
20.9591
11.2971
0.548214
0.0272032
0.022233
0.0226188
0.022227
0.0219294
0.675669
1.77837
0.0221739
0.0219298
0.0311649
1.72581
0.0257357
0.0219295
0.434726
0.0219432
0.0222749
0.0215677
0.0574344
0.0220301
0.0249456
4.22029
0.0584817
0.022301
4.12619
0.132617
0.0219395
0.0230864
0.0328683
0.0222624
0.0219648
0.021759
12.0134
2.07448
0.0222212
0.0344052
0.0368244
0.610905
0.0219651
3.12538
0.0218639
0.0217562
0.736187
0.225618
0.0615112
0.0220559
0.0218991
5.34161
1.35044
0.260741
2.84524
0.0221025
0.0239459
0.0220154
7.72362
0.0243053
2.09859
0.0227757
0.021937
0.0237222
0.0216952
0.021877
0.063577
0.0217859
3.05281
0.0218398
0.0222209
0.0215892
0.0249078
1.53572
2.70303
0.0502114
5.17621
0.0219802
0.0357939
0.0233602
7.6942
0.021905
0.0216727
2.48225
0.0347237
0.033024
0.0221114
0.197884
7.16601
2.33115
0.022159
0.0348149
0.958371
0.0308743
0.726147
0.112076
0.0777801
0.0217764
0.0226344
0.058442
0.0763127
0.0219873
0.09459
0.021742
0.0221829
0.0222815
0.0217742
0.0219199
0.021991
0.784507
0.0255775
0.022926
0.0452148
0.0217564
0.0219331
0.0375548
2.79359
0.0863667
0.0589688
1.93054
0.022234
11.2613
0.029209
5.45575
0.0608348
0.0222018
0.0221193
0.0234537
10.4608
1.72418
0.0495791
0.150133
0.0216627
0.0219233
0.022248
0.022201
7.15575
0.0254616
0.0219841
0.140014
0.306057
5.91764
0.022725
2.2979
0.0569553
0.0389234
0.031468
0.451395
0.228096
0.0222504
1.35336
0.236518
0.0393314
2.17724
0.0433704
0.0222386
0.0222638
0.0219242
0.0231878
0.0274317
22.3437
0.0483408
0.0218712
0.268859
0.0220033
4.11989
3.32457
0.0219567
28.4659
0.0218301
0.0217615
0.022089
1.33229
13.069
0.0466805
0.0316221
0.0217603
0.473957
0.0222313
0.0305447
0.0220904
0.0221721
0.0219263
5.14987
0.0228366
0.0427493
0.0288847
0.0222115
0.356485
0.12433
0.0333952
0.0253114
0.0237494
1.74061
2.37692
0.0219652
0.021771
0.0219635
0.0225929
4.87712
11.8984
0.187653
0.0256023
0.0217913
9.85198
4.92097
0.0222139
23.1109
0.0217174
0.0791363
13.2056
0.0217478
5.75813
9.63439
0.117455
5.86641
5.57434
0.0218618
0.0227103
2.47462
1.41097
0.0225836
4.82327
0.0248021
0.0219202
0.0222739
0.0231945
0.0386496
0.0250709
0.312942
6.02511
0.242403
0.034613
0.0220789
0.058588
2.18731
0.0217671
3.63082
0.0465032
0.0222199
0.0245881
0.0222416
0.0222244
0.0317732
2.30446
0.022538
0.021795
5.53638
1.33544
0.066424
0.0222614
0.0540083
0.0219346
0.0219313
3.96276
5.3668
0.0219212
0.0214936
2.61006
4.19349
0.04715
0.02229
10.4946
0.0227357
0.021928
0.0241152
0.0219321
0.0216565
0.0216272
9.91257
0.184896
0.0258785
1.64073
0.0434488
1.32915
8.74913
1.93019
0.142006
0.0219534
0.0222387
0.0223397
0.0219923
0.0741371
0.0218831
0.111702
0.0287289
2.27298
0.0220465
1.39743
0.0370241
5.60218
0.0219248
1.74583
0.0295256
0.157708
0.224368
0.0306492
0.021624
9.48465
0.0536434
1.17701
0.0216136
5.21478
0.0220261
4.5685
0.448289
0.0436563
0.021929
0.0220892
1.67646
6.51474
0.0311894
0.0216122
1.2001
0.0828381
0.0431904
2.55299
0.0790462
0.021943
3.48194
0.0219268
0.0324171
0.0216473
6.34528
0.021652
0.0237445
0.278206
3.61551
0.0222219
0.0643483
0.0243471
0.0779466
0.0218813
0.306916
0.023564
0.0632326
0.0219595
0.0219851
1.90143
0.0282259
4.7498
4.15144
4.93173
0.0227976
0.0216655
0.0217682
0.0254769
0.035672
0.0306409
5.43943
0.0234804
0.617926
0.0418457
0.0222811
0.0219499
0.0657324
0.3157
8.24233
0.0219209
1.51857
0.0218642
5.27684
1.44169
0.0449053
0.0219967
0.0217408
0.0419733
1.17689
0.0242372
0.0222687
0.0239459
0.0430918
0.0229922
1.43094
2.08691
3.79958
0.0221561
0.0260937
11.6169
0.0221866
0.0635373
0.0218152
0.691225
0.0363555
0.0219521
0.0433251
0.187296
0.0220049
1.9013
0.0219241
0.1247
0.238479
0.360892
0.313162
0.0221662
0.0222358
17.4251
0.0221783
0.0397151
0.0772695
0.0234867
0.0215484
10.8143
0.0251149
0.420327
0.0235699
0.0665864
0.0225588
0.425189
0.0253773
0.0245432
2.15605
1.16482
0.0220886
0.022273
0.159453
2.04626
1.94296
0.770972
0.0289997
0.0219279
0.0218127
1.7114
0.0221382
5.51816
0.0943763
1.96371
0.022107
0.0217236
0.0217985
0.0416739
0.0451917
3.64251
1.35842
0.770685
0.20235
0.0216089
2.51978
0.0230235
0.0608271
0.0229147
0.0391382
0.062344
0.021932
0.0215792
0.0615007
0.0216426
0.0386094
0.0722464
3.32826
4.24577
0.0369433
1.67167
0.0217509
0.0216606
0.0220738
0.202368
0.0612998
0.0452033
0.106403
2.14441
0.039471
0.149002
0.0218205
0.0221844
18.3399
0.0219287
0.294146
0.0214743
0.0218754
1.7526
0.330716
0.0218695
0.0756823
0.511898
3.60462
1.92567
0.0249769
0.0644684
0.0474347
2.67038
0.0220707
4.89993
6.40513
0.023869
0.0259645
0.0216189
0.442346
0.0217883
0.0219843
1.34928
0.0222425
0.0215754
0.183338
0.056939
1.34877
1.32869
3.27787
1.65433
0.0216638
0.0219214
0.0218765
0.0222051
7.38279
0.0220853
1.65827
0.0230026
4.49444
0.0246738
0.0221503
0.0216864
0.0222756
0.0304236
0.0220549
0.0215374
0.271418
0.0218295
0.0497114
0.0225062
6.54867
0.0247451
0.0220792
0.0220049
0.0509107
0.0219071
0.0217649
0.0220882
0.0222146
0.024709
0.0218665
0.0233738
0.0320357
3.4988
5.93591
4.39348
2.41704
0.0217734
0.0220045
0.0219303
0.0214372
0.0219373
0.0217404
0.173082
0.0218734
0.0222518
0.0220683
0.0220422
0.0219484
8.21391
0.0243336
0.0219711
21.3201
0.0419486
0.0217162
9.55771
7.13264
0.022019
0.42649
0.685975
0.022059
0.0468353
0.0241173
0.0215618
0.0273803
0.0221118
0.0392341
0.0220122
0.0222474
0.0217514
26.1688
0.0282871
0.045858
0.0220321
0.0222653
4.54306
0.0259895
0.0220352
0.0237935
0.0241336
0.0222519
0.222362
15.1238
0.923396
1.31385
0.229533
0.0375876
0.0222598
9.41101
0.149137
0.0227577
0.0570753
0.0222932
0.0219123
0.0222464
2.29551
0.0463017
0.0219976
0.022041
0.164446
0.0217354
0.411742
0.0219772
1.86968
0.20462
3.32999
0.0220798
0.0233042
0.0322645
0.0355902
0.022274
0.0390207
0.0885101
4.24586
0.0220462
0.524248
10.2445
0.0215803
1.77042
0.0437011
0.354648
0.100231
0.0219271
0.0277356
0.0392728
0.0216896
0.0249362
0.0215481
4.13575
1.17491
0.0326774
0.0218294
0.139578
0.0761516
2.73418
0.307293
0.0233418
0.027849
0.0219504
0.0219469
0.0393269
0.0520328
21.8105
0.0218249
0.474649
0.0227015
9.49279
0.162674
2.20031
0.021605
0.0230381
2.04441
1.79144
0.0431818
1.85283
0.022982
0.256752
0.0219137
0.0218685
2.54583
0.462005
0.0249518
0.0220936
0.0748746
2.16897
0.194469
0.0661864
0.0217784
0.0220131
0.0217208
2.35235
4.50675
0.021763
0.0433788
1.55373
0.0710193
0.257583
1.5398
6.38107
1.96168
0.0217795
0.022895
1.51538
0.0218956
0.0493149
1.55952
11.604
0.0235208
0.0306565
4.81896
0.652405
2.02011
5.24734
1.60689
1.30872
0.0221106
0.0216286
0.0219912
0.0226237
21.6066
0.0558607
0.370698
0.369173
0.0568903
0.0219539
0.420357
0.0217199
0.030007
0.021922
0.0409347
9.11122
1.6585
0.022071
0.021611
0.0378775
4.51005
0.172353
8.6194
0.0452397
0.0220718
0.0837066
0.021473
0.0978526
0.0325008
0.0219233
4.45493
0.175749
0.499843
0.0561413
0.0222554
0.0215996
3.79502
0.0254811
0.0216282
0.0221451
0.0222559
0.0216875
5.50562
7.7728
1.88603
1.43025
7.35939
0.0241383
0.0219453
2.32913
0.0243013
0.0816097
6.42269
0.0218675
5.50523
2.77581
0.0578794
0.0340317
0.83919
0.0231331
1.81895
0.0371745
1.85214
0.0218313
0.0228848
0.0408207
3.2259
0.106067
0.0684962
4.93609
1.87545
0.073437
0.143809
3.2888
0.0241334
0.386181
17.1023
0.0357162
0.0626852
2.94667
0.0315417
0.0368071
0.0221031
0.0357351
0.0379102
0.0547536
0.0220879
8.36779
0.165186
1.6585
4.94689
2.07652
0.039716
1.60122
8.57856
0.0218481
1.25108
2.88311
6.99533
0.0277743
0.0244383
1.3612
6.72974
0.0216215
0.238245
0.0217561
0.0219103
4.15693
0.0256685
2.20329
1.34672
1.9071
7.68356
0.0216257
0.034275
0.0220055
0.0218452
0.117576
0.0544864
0.0263102
2.75801
1.757
0.0222731
0.0259988
1.34361
0.0234565
0.373492
0.0486859
1.37018
1.3587
0.329051
9.33815
6.59642
1.71072
1.36258
1.65813
0.0310062
0.0253348
0.114173
0.11651
1.53054
7.61696
0.0221318
0.0227674
6.16729
2.23974
0.0246947
4.92754
0.0219436
0.851319
4.56766
4.50013
0.021923
1.50482
1.51874
0.026712
0.0346262
5.76816
5.00294
4.48819
3.88834
0.0220049
3.94943
1.5129
0.0409573
0.209468
0.109625
0.0217387
0.0263794
3.38103
2.24245
0.0244483
0.0221716
1.30933
0.0889348
1.75183
0.0710032
2.12883
1.37975
0.0219918
10.8165
0.0222852
0.0299183
0.0220871
0.0218799
0.0217082
0.0367508
0.269542
0.021498
11.7631
0.0689411
4.00581
9.44015
1.90432
0.0219093
4.4526
1.54322
1.92286
0.0343519
0.0219309
2.40636
0.355537
1.99541
0.0566593
0.0235885
0.0216915
2.85915
5.50519
0.0333718
12.2676
0.031547
0.0222042
1.28023
0.055379
18.0468
0.0219147
0.0293719
1.55206
4.48121
1.39241
0.195981
1.37173
1.6072
3.13481
0.0220472
9.40932
0.0473887
0.02185
0.021566
0.021945
5.15736
0.050281
1.37085
1.45994
0.0358602
0.150197
0.0754793
2.47519
0.277848
6.2059
5.02589
1.29337
0.0866589
0.0216608
0.596372
0.0571073
0.107258
1.27902
2.62095
1.69421
0.022095
0.0240305
0.0493719
0.0220588
0.021966
0.0274686
1.38434
0.0285419
0.0254164
1.26164
0.0698111
0.258046
2.73324
1.40388
0.386905
1.81827
4.73289
2.1315
0.0631035
0.0305681
0.0221365
1.32692
0.100943
0.201241
0.0641792
0.0618087
0.0214542
0.159385
6.04749
0.0265382
0.0215902
0.0231135
1.98667
0.0218782
0.0220252
0.0603271
1.43937
0.0282937
0.0544518
0.173229
0.0307567
0.0565033
0.0218755
0.0219816
0.0403433
0.196179
0.0222644
0.0308873
0.280627
6.70687
0.0221505
11.9759
0.0218918
1.40809
0.0233481
0.0235027
0.0215571
0.163714
0.0336069
5.91406
14.1458
0.0688924
0.0221619
0.0219856
5.87325
1.57637
0.0218625
0.226083
1.5093
0.0509838
0.0785044
0.0214364
0.0226702
0.0219301
1.29593
0.0413063
0.0220497
7.52948
0.0223761
0.0590484
0.222378
0.02174
0.0968586
0.0579108
19.3816
0.0224579
0.0264319
0.0235246
0.0526881
0.0214114
0.0219116
5.71774
0.295801
0.0712963
0.0219491
1.79988
0.0223951
0.0223777
0.0219574
0.417792
7.18456
0.023685
10.6316
0.935089
0.0617593
2.89042
2.46379
5.45021
4.53684
0.0507573
0.0607386
0.194788
0.0467932
0.0219504
0.0304741
0.0291124
9.55757
0.0220786
3.29655
0.0219792
0.426954
0.0864552
0.0227862
0.0231875
4.68061
15.9138
5.33446
1.46061
0.0218152
0.0647169
4.55578
0.0257939
8.4158
0.0410454
0.110492
1.54248
0.0336531
0.0219925
0.116206
0.137246
0.0219281
1.38963
0.641847
0.0217141
0.0222394
0.0221212
0.0220089
7.83342
0.0220472
0.0462643
0.0220244
0.0224106
0.0328762
0.0219419
1.30641
0.0787179
0.0221556
0.021634
0.101697
0.0232923
0.0566202
7.32946
4.80976
0.0519594
0.268909
0.0407687
0.0215989
0.123257
12.4024
0.0374801
1.36486
5.75771
0.0766478
0.0381466
0.0279871
0.063982
0.0379282
6.0127
0.0221131
0.0221615
0.0218601
2.32584
7.14477
0.0359023
0.0948525
0.0218802
0.02657
0.0999995
0.230033
0.0219336
0.0584334
1.78663
0.0897559
0.0219915
0.0219462
20.0592
5.23559
0.0219389
0.457524
0.0300169
0.176788
0.258664
0.0218665
2.81596
0.0286402
0.0220246
2.18285
0.179817
0.0219281
0.0221623
0.231868
0.0217824
0.0220405
0.142165
0.0424295
0.0461866
6.02971
0.0250636
0.0406273
1.71725
0.0218524
8.82708
4.76507
0.0249408
0.0566984
0.156938
0.0219823
0.141876
0.0214724
1.81644
1.50007
0.0220029
4.83778
8.12665
0.0219572
0.0219488
0.563909
0.0370601
1.41819
1.40199
0.0220955
0.0420005
4.79764
0.0226769
0.0462268
0.0654188
0.0336535
2.45586
0.175889
0.0234436
0.197264
3.31163
0.0462314
2.96247
0.0219123
0.0215544
0.0222675
0.0428398
4.81619
0.0220656
0.0325608
12.6397
2.6849
0.0222177
0.0294799
1.90779
1.37578
0.0222247
9.06181
0.0327073
0.0821601
0.0334666
0.0230558
0.0256862
0.0219769
0.0219637
5.94997
0.0219335
0.0528607
0.021983
5.21768
0.0234268
0.0241188
0.0215957
0.0236941
0.0219824
0.0402374
5.3095
0.905266
0.0372176
0.0430129
0.0219672
0.0317807
0.0492495
2.00658
5.71717
0.0218328
0.614491
0.022023
2.39459
1.26297
5.18465
0.0218306
0.103263
0.0662376
6.65975
0.231254
0.0218617
2.32662
0.330707
0.0382528
3.19072
0.0222067
0.0220086
0.0393945
3.26273
0.0219353
6.70676
0.0344103
1.55458
0.0905503
0.0224675
1.84491
0.0278585
0.0221321
0.230254
0.0219345
2.72326
10.294
0.140763
0.0277595
0.157494
0.0219437
0.09543
0.0428877
8.86735
0.0220349
0.0216376
0.0266625
0.0291342
0.0413003
1.64851
3.53098
0.0362699
0.234281
0.0218177
3.14555
4.29275
0.169712
0.0219309
0.0222603
0.0232836
2.15714
0.0220791
0.0260401
1.89523
0.0766692
0.0219985
0.26427
0.0721271
0.0219883
0.0249501
0.110224
1.59507
0.066623
0.0420473
1.85465
1.3267
0.375671
0.0264896
0.0221363
0.024258
0.0248593
0.127172
0.0536019
0.0271177
0.0709685
5.69056
0.0242364
0.0219965
4.87275
0.290139
1.52591
0.161595
0.0255616
0.0238446
0.0236192
0.0217716
0.021905
0.0413343
0.0215614
0.0229977
0.0220276
0.0229091
0.0235064
0.0219503
0.0386856
0.035228
0.0220911
0.0219396
0.022119
0.0227925
0.0223692
0.262903
0.0220583
0.0235275
1.38405
0.0217072
0.0231842
0.022276
0.0268244
4.75003
11.9713
2.46812
2.78279
2.72461
0.177442
0.0218821
0.055864
0.022007
0.475415
0.0232
0.0292971
0.0221979
0.0508121
0.02196
0.0300585
0.0217901
2.0097
0.14764
0.0220784
4.81298
2.52909
0.0221724
0.0835115
0.0219528
0.0216031
6.90375
0.0221247
0.0614428
0.172828
0.0221054
0.0215637
0.0677553
1.57782
0.0252109
0.0233696
1.34468
0.0219455
4.03436
0.0472697
6.26731
0.0216768
1.4422
0.0219388
0.0221782
0.199752
0.0545637
2.43214
1.65325
6.20364
2.22402
0.153857
0.12631
0.022046
0.123461
0.0220562
0.0218243
0.0956902
0.0219147
0.0219845
0.0216107
0.0216171
0.0529611
4.356
1.38485
0.3437
2.61888
0.0234631
0.0305584
0.0228233
0.0227395
0.0684368
0.0220453
0.0217836
0.0218208
0.023594
0.0232429
0.192724
0.076091
0.0442646
0.0221088
0.0551044
0.0566099
2.04592
4.97621
0.0245492
0.0374592
0.022089
10.549
1.3739
0.0219269
0.0219337
0.0242777
0.0222129
0.578622
0.23864
4.52585
0.0221428
3.35354
0.022107
2.5685
0.0474759
0.0218135
0.0276918
3.40686
0.0270741
0.0274226
0.0292126
0.0751172
4.30059
0.0218214
0.0219157
0.0278535
0.140249
0.0218789
1.90185
3.40762
0.0219728
0.0214299
5.93679
0.0607163
0.0219311
4.05646
13.6849
1.83659
3.49639
0.0274155
1.93699
0.0220709
4.55727
2.49228
0.79267
0.0604807
0.0237606
5.51292
0.0248423
0.0218715
0.0214528
0.493496
0.0216406
3.72542
0.02273
0.0221699
0.025048
1.40112
0.0237194
0.0227506
0.0220736
9.52388
3.95188
9.89566
1.43568
0.0398933
0.0219361
0.024264
0.214977
0.113722
0.0219878
0.0467849
0.191899
3.78111
0.0219488
3.86195
4.61763
0.0364214
0.0220629
0.0236712
0.0219544
0.0217478
0.0219433
0.0220316
0.0222884
0.0992805
0.0220953
0.111434
0.0226273
0.0226686
4.92633
0.0643402
0.0235484
0.0227453
2.08628
0.0215707
0.0229368
0.0258274
0.0218178
1.68951
0.0301916
0.0227217
0.0447838
0.0219584
0.0268002
0.0219045
0.125033
0.0218275
0.0219269
6.24411
0.0235833
0.160048
0.0318977
0.0238488
0.0758007
0.0214144
0.022088
0.0226243
5.3988
0.02375
0.0219289
1.90472
0.0219947
0.0216292
0.0218849
0.531424
0.0321676
0.123166
0.0337956
0.0308734
0.0504383
0.0237269
0.026845
0.0480127
2.1776
0.0222666
0.028079
0.0218096
0.235264
0.176584
0.0219049
0.0284876
2.36475
0.0300239
0.0215576
8.73992
0.0256399
0.0804179
2.27606
0.0278177
0.0219165
0.0286901
0.0219295
0.0243338
0.0219059
0.0232793
0.025708
0.02197
0.0220681
0.0321057
0.0221716
0.0832724
0.0219095
0.0238041
0.0219511
0.0290396
1.44459
0.0220807
0.0219922
0.0980531
0.0232071
0.0219551
0.230223
6.14878
2.86793
0.0220801
0.0242983
0.0336533
0.0222447
0.022125
0.032358
0.176844
0.0215379
0.0526104
0.0219795
0.0218941
0.0217661
0.0215304
0.0228204
0.0413264
0.0325262
0.0264618
1.6069
0.0240293
0.0278493
0.0217317
1.78858
3.34846
1.99042
0.0220582
0.0443474
0.0277048
0.022031
0.02212
0.0412444
1.43496
2.31463
0.0219808
0.0271283
9.03679
0.0228154
0.158959
3.48832
1.53734
0.0285808
0.0220052
0.0370504
0.0416854
0.130337
10.2935
7.66227
1.48242
0.0226732
0.0221738
0.0219458
0.09371
0.0219198
0.021693
0.0360162
0.0219314
0.0218825
0.0218786
0.0529116
0.0219624
0.0217816
0.0219722
2.291
0.0215588
0.0220427
0.0221065
0.0226649
0.0219389
0.0731638
0.0642711
5.40015
0.0216129
0.0279929
0.101916
5.7591
2.33181
0.0222338
0.0222753
0.0523862
0.0982242
0.0256428
0.382028
0.0219358
3.5954
0.0222781
1.33619
0.0227717
0.0219368
0.0422863
0.0219581
0.0220467
0.022717
0.668113
0.0242914
0.022489
0.0221783
0.0219763
0.0378838
0.0220588
0.0219196
0.0256599
0.10073
0.0241402
0.0219515
1.3529
6.37918
0.0219981
0.813614
0.022143
0.0295445
0.0706178
0.182203
0.0233585
0.0229477
0.022087
0.264393
0.0280388
0.0222054
0.0219163
0.0232006
0.153984
0.0221922
0.0334602
0.0237599
0.0352957
0.051449
0.036053
0.0868325
3.5502
0.0248344
0.0220384
6.45772
0.279204
0.0219308
0.0214931
0.0220644
0.0219813
0.021931
0.023804
0.0216797
0.0220795
2.98262
1.37371
0.0311164
0.0219552
2.92496
0.0237432
0.0217047
6.60118
0.0237577
0.0216591
0.022095
0.0220372
0.0352714
0.0220648
0.0537806
0.0219296
0.0217859
0.0219607
0.0311927
0.0341879
0.0218974
0.053426
1.38538
0.0232352
0.0219007
0.0616432
0.0217234
0.0220126
0.0218718
0.0295805
0.0220517
4.51026
0.0223457
0.252179
3.10426
0.0533647
0.0233627
0.0222703
0.0220527
0.0219428
0.0290865
0.141546
0.103257
0.0218169
0.0239525
5.19763
0.0216092
0.162503
0.0219649
0.0232986
0.0301622
0.0609163
0.0219565
0.0325415
0.0280157
0.057847
1.27321
8.23773
0.0219206
0.021927
0.0328874
0.0228868
0.0226421
0.0474505
0.022744
0.0920004
0.0217861
0.0700875
0.022106
0.0807566
0.0543575
1.35479
5.30755
0.0219234
0.0370371
0.882239
0.180068
0.0216047
0.0218569
0.113606
0.0219459
0.021943
0.0217498
0.0215219
0.0695594
0.0684866
19.7892
0.0220196
0.0423739
0.022255
0.0215956
0.0230138
1.6126
0.154447
0.0219392
0.0221401
0.0218511
7.63905
0.0220113
0.0219455
0.0224998
0.0219608
0.0431597
0.0218359
1.75954
0.0219852
0.0226673
0.0223516
0.021922
0.0217509
0.0220065
10.1247
0.0217864
0.021959
0.207848
0.0218987
0.0220435
0.0221115
0.0221559
0.0510901
0.0219293
0.0219757
2.45614
0.0236157
0.0220379
0.0222834
0.0215555
1.44398
0.0230374
0.0222335
0.0219248
0.0257603
0.0219688
3.16667
0.0217978
0.0220101
6.50495
0.0219769
0.0589799
0.0222047
0.0214194
0.021528
0.0309009
0.0368648
0.0218653
0.0222862
0.0240436
0.021919
0.0221111
0.0221199
0.0219247
0.0218182
0.0219073
5.67044
0.0219594
0.0218502
1.90366
0.0219575
0.0264551
0.110561
1.40265
0.0218282
0.0220877
0.0219607
0.0216432
0.0230149
0.037707
0.0239577
0.0358132
0.0217786
0.025446
0.0220043
0.02148
0.0279602
0.0560942
0.023551
0.0288598
0.0220257
0.0219597
0.0221202
2.11561
0.0236065
0.0220109
4.00329
0.0230732
2.49043
0.0220642
0.0219361
0.0217445
1.36923
0.0219596
0.0248548
0.0229916
0.0220734
0.0219674
0.022089
0.0220233
0.0242112
0.0219229
0.0390308
0.0222479
0.0374818
0.0215284
0.0216385
0.0239166
8.24046
0.0221482
0.0220493
0.0226406
0.0219392
0.0240653
1.74561
0.0227982
0.0271756
1.82271
0.60047
0.0227427
0.0228094
0.13722
0.0845524
0.0232215
0.0221146
0.021944
3.72141
0.0227331
6.76274
0.0217126
0.0215437
0.0221051
0.0220113
0.0232716
0.02159
0.0219877
0.0222652
0.0566645
0.0239069
0.0225782
0.0216375
0.345013
0.0602981
0.0215222
0.0221049
0.0235536
0.0222391
0.0220585
0.0216004
1.28374
0.0216153
0.0219562
0.0663434
0.0215889
2.0557
0.0218254
0.0422356
0.0271917
0.0219702
0.0215529
0.0219303
0.0223004
0.0220442
0.0218614
0.0216269
1.6072
1.49652
1.78078
0.0216191
2.79728
0.0219938
0.0531258
0.0219296
0.0219315
0.0221092
5.67615
0.0219507
0.021919
0.022126
0.0219885
1.63293
0.0219443
1.69895
0.021456
0.0225878
2.40751
5.00856
0.0219827
0.0219594
0.0265673
0.0220158
0.130724
0.021757
0.426532
0.021778
0.0349197
0.0221391
0.0218233
0.0219465
0.0219837
0.023261
0.021901
0.0302769
0.0341197
0.115323
0.0218168
2.39318
0.0219041
12.2729
0.0219219
5.27182
0.901591
0.0217541
0.02192
0.0216101
0.0218841
0.0220438
0.0221395
0.0215968
0.0225909
0.0214486
0.0817049
0.0221112
1.38685
0.0215874
0.0215498
0.0219325
0.0219292
0.0227347
2.22739
0.0230981
2.87214
0.0215799
0.0221189
0.0341166
0.0215893
0.127077
0.0231919
0.0219354
0.0386818
0.021511
0.0219717
0.0224173
0.0217553
0.0287114
0.0390764
0.021646
0.0221124
0.0220458
6.87386
0.0235144
0.0216231
4.53423
0.04991
0.0216347
0.0219227
0.137637
0.0228904
0.0214481
3.57269
0.219286
0.0229012
0.0214554
0.0222399
0.0347507
0.021574
0.16992
0.021626
0.0217006
0.0397707
0.0509133
0.0216193
0.0216292
0.021541
0.021744
0.0217553
0.0413383
0.0219702
0.0217635
0.0221115
0.0218507
2.8553
0.0222722
1.74035
0.0261216
0.0274917
0.0221421
1.60217
0.0219224
1.61146
0.0215701
0.0219611
0.456841
0.0219738
0.0227887
0.0216638
0.0247125
0.0217219
0.0267575
0.0216042
2.44861
0.0222053
0.0216052
0.0215484
0.0215803
0.095399
0.0217927
3.70291
0.021922
0.0247759
0.0215049
0.0220164
0.193098
0.0219998
0.104761
0.0218239
0.0230408
0.0221738
0.0221329
0.0224285
0.0219402
0.0219821
0.259082
0.0215781
0.0219486
0.0225922
0.0220567
0.0220538
0.0319704
0.0219524
0.0219228
0.0218665
0.0216346
0.0217677
0.0219955
7.28161
0.177163
3.01305
0.0214436
0.0236431
0.0221258
0.0262105
0.109509
0.235975
0.0312383
0.0215793
0.0219795
0.0220588
0.0221438
0.0221144
0.0219171
1.44149
0.0495916
0.0219286
0.437714
0.0221369
5.53998
0.0219632
0.0218991
0.0218091
0.0215969
0.0214878
0.0218941
0.0216674
0.0218074
0.0422649
0.0230944
0.0219307
1.73419
0.0215716
0.0228151
0.0219861
0.0216428
0.0219353
0.273695