/*--------------------------------*- C++ -*----------------------------------*\
| =========                 |                                                 |
| \\      /  F ield         | OpenFOAM: The Open Source CFD Toolbox           |
|  \\    /   O peration     | Version:  v2012                                 |
|   \\  /    A nd           | Website:  www.openfoam.com                      |
|    \\/     M anipulation  |                                                 |
\*---------------------------------------------------------------------------*/
FoamFile
{
    version     2.0;
    format      ascii;
    class       volVectorField;
    location    "750";
    object      U_0;
}
// * * * * * * * * * * * * * * * * * * * * * * * * * * * * * * * * * * * * * //

dimensions      [0 1 -1 0 0 0 0];


internalField   nonuniform List<vector> 
9793
(
(0.959654 -0.0164468 -4.01036e-20)
(-0.067319 -0.0480429 -1.16714e-19)
(0.991512 -0.0057486 -1.80771e-22)
(-0.0442881 0.0898343 -8.46203e-20)
(0.999948 -0.000678123 4.48539e-22)
(1.21052 -0.039741 -5.39437e-22)
(1.11366 -0.228276 3.17136e-20)
(-0.031573 0.0290207 -8.59833e-20)
(1.02018 -0.0414635 -9.76915e-21)
(-0.0482619 -0.0255367 0)
(1.00006 -0.00211079 -6.04918e-21)
(1.00005 -0.00226682 0)
(1.0019 -0.00924128 2.54769e-21)
(-0.142936 0.132582 7.83568e-20)
(1.01997 -0.0255986 -5.43248e-21)
(1.06694 -0.0119872 6.36415e-21)
(1.13041 -0.0763649 0)
(0.993812 -0.00827522 8.9357e-21)
(-0.0297634 -0.0593991 -3.59734e-20)
(1.01962 -0.00604712 1.33377e-21)
(1.02526 -0.0118438 1.38967e-20)
(0.999993 -0.00016942 7.28675e-21)
(-0.0569766 0.151057 5.58797e-20)
(-0.0218202 0.027773 1.04113e-19)
(-0.127927 0.132925 6.02141e-20)
(0.918133 -0.0590493 -4.66212e-20)
(0.999989 -0.0037493 0)
(1.00003 -0.000563908 -6.5467e-21)
(1.01942 -0.00637395 -3.12861e-21)
(1.15315 -0.141332 0)
(-0.266165 -0.00724366 2.08491e-20)
(1.24212 -0.053609 9.01105e-20)
(0.996109 -0.00301502 0)
(0.996751 -0.00864849 1.24805e-20)
(1.0057 -0.000583304 -2.99372e-23)
(1.07896 -0.0392257 -1.56284e-20)
(1.06203 -0.0157335 -5.71384e-21)
(0.910955 0.00275588 -6.92576e-20)
(-0.12486 0.046959 6.37575e-20)
(1.07471 -0.0777451 1.3895e-20)
(1.14376 -0.139114 6.05269e-20)
(1.13348 0.0148135 0)
(-0.0241364 0.0181109 -8.23805e-20)
(1.00002 -0.000406365 8.08445e-21)
(0.99165 0.000991621 -3.5177e-20)
(0.996324 0.000609329 3.63392e-21)
(-0.181993 0.0121558 -2.34772e-19)
(1.00002 -0.000373612 1.34248e-20)
(1.0345 -0.0108918 0)
(0.993574 -0.00770813 0)
(1.07902 -0.0366762 2.35348e-20)
(1.00612 -0.000725727 -8.38854e-22)
(1.10017 -0.0541181 4.75448e-20)
(1.00001 -0.000729432 6.65584e-21)
(0.90035 -0.12081 -3.70683e-20)
(-0.0527462 0.0865191 2.73013e-20)
(1.0023 -0.0083936 2.48779e-21)
(1.14645 0.00209743 0)
(1.0342 -0.011588 0)
(1.00001 -0.000201201 -6.41581e-21)
(0.896115 -0.0171365 0)
(0.838276 -0.333183 0)
(0.993308 -0.00564735 0)
(1.08739 -0.0139084 0)
(1.00308 -0.00130746 0)
(1.01945 -0.0398637 6.68072e-21)
(-0.18376 -0.00484979 1.55958e-19)
(1.05154 -0.0511911 1.24461e-20)
(1.06336 -0.0137219 -1.41725e-20)
(0.107347 0.00948156 -1.03552e-23)
(0.977042 -0.0105388 0)
(0.57882 0.0206037 1.87277e-19)
(-0.0731024 0.0305958 9.53542e-20)
(0.555498 0.211808 -5.68891e-20)
(0.225475 0.0400927 0)
(0.999984 -0.00087422 0)
(0.799153 -0.135046 -6.31258e-20)
(0.992813 0.00240257 5.89005e-21)
(0.994174 -0.00259733 4.93861e-21)
(0.99998 -0.000628692 8.03837e-21)
(0.783298 -0.137757 7.09358e-20)
(-0.0259988 -0.0540714 1.259e-19)
(1.12578 -0.0713321 0)
(0.978366 -0.0721749 -7.42419e-21)
(1.0635 -0.0149507 -2.21445e-20)
(1.23783 -0.151283 8.82684e-20)
(0.999965 -0.000773613 -9.92604e-21)
(1.10907 0.0179368 0)
(-0.131521 0.0535637 -1.27219e-19)
(0.823062 -0.315013 0)
(-0.0736404 0.127252 4.93465e-20)
(1.31904 -0.170464 1.08349e-20)
(1.31795 -0.180978 -2.23457e-19)
(1.08396 -0.123349 3.82603e-22)
(-0.018297 0.00668701 0)
(0.99532 -0.0122197 0)
(0.27951 0.0429381 3.30455e-20)
(1.12254 -0.0947891 2.63343e-21)
(1.03925 -0.07012 -3.2038e-20)
(0.999966 -0.000569867 0)
(-0.145977 0.0985825 2.92109e-20)
(1.09644 -0.0545897 -2.3022e-20)
(-0.0854698 0.260139 -7.38254e-20)
(0.992237 0.000952507 1.06345e-20)
(0.115228 0.0686815 -5.58175e-20)
(0.673574 0.0290492 -1.08977e-19)
(0.650036 0.189214 2.15277e-20)
(1.00466 -0.00750711 1.84585e-21)
(0.994181 -0.00218131 0)
(0.999986 -0.000307341 -7.25764e-21)
(1.00011 -0.00112105 -1.64674e-22)
(-0.0656486 0.144672 0)
(0.091586 -0.129365 0)
(-0.267865 -0.0153356 9.73535e-20)
(0.977992 -0.0111474 6.15938e-21)
(0.99902 -0.00263696 0)
(1.05904 -0.00748163 0)
(0.996671 -0.000380796 0)
(-0.0663782 0.0727728 0)
(0.995707 0.00130691 -3.84096e-21)
(0.0293845 0.0805802 7.92729e-20)
(1.11475 0.0196727 3.92161e-21)
(0.507042 0.0511786 7.8708e-20)
(1.1096 -0.0358495 -8.30986e-20)
(1.06218 -0.0172143 -1.46195e-20)
(0.995926 0.00140522 -2.23544e-21)
(1.13833 -0.0885614 0)
(-0.244491 -0.00582129 0)
(1.11808 0.0756965 -3.23307e-20)
(1.11187 0.0787075 1.40187e-20)
(1.05754 -0.029329 0)
(1.00672 -0.0162144 -5.11211e-22)
(0.961501 -0.0175405 2.46936e-20)
(1.04663 -0.0462357 -9.63561e-21)
(1.0743 -0.0409546 0)
(1.18568 -0.227461 6.54379e-20)
(1.21902 0.000315191 0)
(1.05938 -0.00846248 0)
(1.00001 -0.000654808 0)
(1.14268 -0.0651014 -3.6692e-20)
(-0.0125493 -0.0444423 -6.48142e-20)
(1.07734 -0.0407152 0)
(0.983012 -0.0201988 1.73309e-20)
(1.10445 0.00552519 -1.41551e-20)
(-0.16734 0.014896 1.20037e-19)
(1.14251 -0.441494 1.12034e-19)
(0.99597 0.00206522 2.32061e-20)
(0.25655 0.0444734 6.21292e-20)
(1.00638 -0.0165934 -8.75966e-22)
(0.995775 0.00190746 -2.04626e-20)
(0.999051 -0.00389805 -8.148e-21)
(0.219215 -0.0934957 -2.25597e-19)
(1.0372 -0.0675 1.65092e-20)
(0.999907 -0.00374828 0)
(0.984234 -0.00194946 -1.11566e-20)
(1.3198 -0.213645 0)
(1.13637 -0.0740012 1.87297e-20)
(0.993323 -0.00627494 -8.34827e-21)
(1.24737 -0.0482583 -5.59009e-20)
(0.983165 -0.0110753 -9.45631e-21)
(1.10914 0.011596 0)
(1.05865 -0.0310054 -2.10021e-20)
(1.02486 -0.0123539 -1.20063e-20)
(0.589356 -0.433619 -9.27467e-20)
(1.04009 -0.0215299 4.30806e-21)
(1.18104 -0.0177369 -5.15872e-21)
(-0.114053 0.242148 7.86573e-20)
(1.04184 -0.0254838 -2.13123e-20)
(1.00474 -0.00688436 0)
(1.00001 -0.00175588 1.2001e-20)
(0.981978 -0.0196135 -1.11328e-20)
(-0.203513 -0.0272004 0)
(0.473325 -0.249778 1.5038e-19)
(-0.191971 0.125824 7.79677e-20)
(1.00216 -0.00971747 2.66521e-21)
(1.2033 -0.0382973 0)
(1.02302 -0.358392 5.00676e-20)
(0.558343 -0.533969 3.81039e-20)
(0.99365 -0.00348438 -1.69064e-20)
(1.05315 -0.0467941 1.26682e-20)
(0.178746 0.0772476 0)
(-0.190935 0.00892364 1.40403e-21)
(1.11507 0.0248004 -3.6884e-20)
(0.995981 0.00062019 4.24818e-21)
(0.997354 -0.00013543 7.68513e-21)
(1.00491 -0.00733051 1.19121e-21)
(0.637244 0.0540808 6.00911e-20)
(-0.101961 0.0257591 -1.69023e-19)
(0.931029 -0.439278 -2.20644e-20)
(-0.0608586 0.266878 8.99339e-20)
(1.01747 -0.0378389 1.20958e-21)
(-0.112295 0.329029 -2.04843e-19)
(0.396827 -0.163303 9.14741e-20)
(0.909513 -0.0210353 4.02608e-20)
(1.03714 -0.0090414 -8.85913e-21)
(0.958845 -0.05222 0)
(0.176047 0.0795064 9.19314e-20)
(1.01686 -0.00621015 -4.68611e-21)
(0.993553 -0.00872419 -1.14545e-20)
(0.999753 -0.00162183 0)
(0.974459 -0.0110827 1.38704e-20)
(1.02772 -0.0111241 -1.28873e-20)
(1.0818 -0.0325611 -2.87572e-20)
(1.06573 -0.0258557 -3.23736e-20)
(-0.0664289 -0.000449911 -1.50514e-19)
(0.980737 -0.00100868 1.22885e-20)
(1.06592 -0.0720677 1.45418e-20)
(1.04309 -0.0245343 1.2097e-20)
(0.967341 -0.0297733 9.82984e-21)
(0.811405 -0.562519 -9.99862e-21)
(1.13715 -0.0662639 5.65624e-20)
(-0.00821241 -0.0409222 -1.94464e-19)
(1.01487 -0.00585955 2.10276e-22)
(0.0721458 -0.000189564 1.05441e-19)
(0.973932 -0.0722599 1.2505e-20)
(1.06718 0.00194548 4.18743e-21)
(1.01988 -0.0266157 5.30613e-21)
(1.18891 -0.215641 -6.6693e-20)
(0.999123 -0.0025191 9.43303e-21)
(0.737006 -0.056182 2.78311e-21)
(1.12863 -0.0949427 -2.67594e-20)
(1.02753 -0.0116308 6.9474e-21)
(0.354582 0.431885 -7.81024e-20)
(-0.203774 0.170355 5.94265e-20)
(1.07723 -0.122566 -2.743e-20)
(0.994424 -0.014372 3.74492e-21)
(1.12163 -0.0307752 -6.54771e-20)
(-0.199787 0.210892 0)
(0.752822 -0.0839205 3.11217e-20)
(0.750556 -0.0945627 0)
(-0.0872241 0.0393188 -8.72758e-20)
(1.12058 0.0551221 0)
(1.06845 0.00140901 1.99918e-20)
(1.0897 -0.012347 0)
(0.402386 -0.138869 0)
(1.03145 -0.00635233 3.70245e-21)
(-0.153035 0.223784 2.51974e-21)
(-0.247958 -0.0171614 0)
(1.01651 -0.00602083 2.36586e-21)
(0.999815 -0.00121782 8.27838e-21)
(1.19626 0.0105182 7.8048e-21)
(0.986808 -0.014227 -3.22614e-21)
(1.00009 -0.00104626 0)
(1.1476 0.0166147 0)
(1.15829 0.0126835 -5.84771e-20)
(1.01774 -0.0396326 -2.52236e-21)
(1.05515 -0.0460136 2.51977e-22)
(1.06944 -0.0729024 -3.03485e-20)
(0.94605 -0.173145 -1.89954e-20)
(1.05772 -0.0399391 0)
(0.993647 -0.00298127 1.37781e-20)
(1.06153 -0.165104 0)
(-0.0326796 -0.0218875 1.403e-19)
(1.0266 -0.0115746 1.10539e-20)
(-0.202266 0.143421 -9.32196e-20)
(1.00003 -0.000876766 5.9117e-21)
(1.00001 -0.00259464 0)
(1.01313 -0.00112872 4.31185e-21)
(-0.0552365 0.0751918 8.12225e-20)
(0.993138 0.00242876 -1.20698e-20)
(1.34838 -0.209159 5.13962e-20)
(0.0688302 0.0259877 1.12214e-19)
(1.00069 -0.00298585 -2.27454e-21)
(0.999261 -0.00255348 0)
(1.34093 -0.108383 -1.49285e-19)
(1.01304 -0.000714435 -1.86874e-21)
(0.999934 -0.00121434 -7.91847e-21)
(1.01383 -0.000668306 8.69931e-24)
(0.0433655 0.018473 -1.05956e-19)
(0.591055 -0.397142 0)
(0.931393 -0.0545123 0)
(0.90925 -0.515415 0)
(1.1474 -0.00714246 -4.54124e-20)
(-0.112453 0.254101 -8.81677e-20)
(-0.0666141 0.197992 -1.13351e-19)
(1.04253 -0.0270929 5.30681e-21)
(-0.0627781 -0.16503 -8.58795e-22)
(1.00001 -0.000826568 0)
(-0.19304 0.208728 -9.02719e-21)
(0.396991 -1.1987 1.26555e-19)
(-0.166586 0.0822771 2.62196e-20)
(0.0492044 0.0735987 7.59435e-22)
(1.12391 0.0513041 -5.65872e-20)
(1.05841 -0.0275116 0)
(1.12017 -0.0730412 4.77506e-21)
(1.06386 -0.0262765 2.77603e-20)
(1.03831 -0.00804164 0)
(1.04644 -0.020369 1.4395e-20)
(0.8391 -0.530999 -1.70208e-21)
(0.914543 -0.0620353 2.03084e-20)
(0.999339 -0.00242522 -8.40701e-23)
(1 -0.000132038 3.73323e-21)
(1.01525 -0.0060736 -2.28117e-21)
(1.01909 -0.000236393 4.36567e-21)
(1.02624 -0.0120686 -1.13169e-20)
(-0.0805622 0.178665 -8.84535e-20)
(1.00472 -0.00868908 2.19189e-21)
(1.01791 -0.0251218 -4.4901e-22)
(1.01896 -0.00031384 1.32838e-21)
(1.00223 -0.00881541 -5.70877e-21)
(-0.0170132 -0.0666832 8.41796e-22)
(1.15789 -0.428723 -4.92821e-21)
(0.678495 0.0645995 0)
(0.9442 -0.0142581 2.80397e-20)
(1.10786 0.00320221 1.50102e-20)
(1.01824 -0.000208829 0)
(0.909109 0.130149 0)
(0.0902034 -0.053117 2.35105e-19)
(0.99256 0.00155613 -1.25951e-20)
(0.116034 0.0280924 -1.45954e-19)
(1.08696 -0.0192032 6.17596e-20)
(0.991284 0.000524591 2.85799e-20)
(0.0224033 -0.0444309 6.8867e-20)
(0.823947 0.155415 2.73119e-20)
(0.996449 -0.00315941 -9.28559e-22)
(1.06199 -0.172416 2.34749e-20)
(0.333794 0.966796 0)
(0.972803 -0.0274259 7.26392e-21)
(0.827111 0.0184779 0)
(1.01908 -0.0248805 1.00998e-20)
(0.967622 -0.0252726 0)
(-0.157091 0.193979 2.07229e-20)
(0.896703 -0.175248 0)
(0.996864 -0.00806142 0)
(0.995514 0.000149117 0)
(0.946996 -0.0136034 4.07017e-20)
(1.08641 -0.359188 4.82643e-20)
(0.0930106 -0.216636 -7.93619e-20)
(0.991466 -0.00503435 -2.37355e-22)
(1.0048 -0.00794765 -3.15885e-21)
(1.02994 -0.0180695 3.41895e-22)
(-0.21199 -0.0257309 -8.48611e-20)
(-0.0581195 -0.0991141 9.67102e-20)
(-0.00342528 -0.0407189 -1.21272e-19)
(1.03039 -0.00703476 7.47531e-21)
(0.898338 -0.187613 4.99207e-20)
(0.821986 0.0275303 0)
(0.860795 -0.735018 3.27321e-20)
(1.14251 -0.0207326 -1.2551e-19)
(1.03263 -0.00430519 -7.60066e-21)
(1.03386 -0.0066322 1.34816e-20)
(1.02916 -0.0184156 0)
(1.11646 -0.0688328 -4.59851e-21)
(0.988284 -0.0374654 3.54916e-21)
(0.0690217 -0.00457699 -3.33084e-20)
(0.998133 -0.00199806 0)
(1.00883 -0.0161391 -1.13932e-21)
(-0.103115 0.240715 -4.66774e-20)
(-0.0912984 0.181137 1.47028e-19)
(0.0404074 -0.00189206 -1.04162e-19)
(1.01877 -0.000227264 0)
(-0.140336 0.0920623 -6.66089e-20)
(0.97984 -0.0824675 1.32438e-20)
(0.239701 -0.67927 4.10159e-20)
(0.0455501 0.00479061 0)
(-0.0789802 0.0310851 7.33422e-20)
(0.990608 -0.0705728 -3.8713e-21)
(1.07679 -0.0807165 -4.22259e-20)
(1.22319 -0.00331229 8.39278e-20)
(-0.0825324 0.132769 7.29617e-20)
(-0.0649362 0.131574 5.68129e-20)
(0.896797 0.020292 -1.89253e-20)
(1.00004 -0.000636891 0)
(0.926566 -0.0541933 -3.81318e-21)
(1.034 -0.00944341 5.26367e-21)
(1.00539 -0.00875199 -2.83323e-22)
(0.987817 -0.0355474 3.47392e-21)
(1.00011 -0.00408533 1.75617e-21)
(1 -5.23939e-05 -3.59192e-21)
(0.148749 -0.0134019 0)
(1.00003 -0.0019917 -6.61531e-21)
(1.13897 -0.101877 4.70721e-20)
(1.07584 -0.0702145 -3.14317e-20)
(1.09547 0.0634595 0)
(1.03271 -0.00382313 0)
(0.980165 -0.0753475 0)
(-0.0206482 0.0288162 -9.87423e-20)
(0.355835 -0.0386935 1.55183e-19)
(-0.156384 0.140405 0)
(1.13846 -0.0229754 4.98481e-20)
(1.00852 -0.0153182 5.43767e-22)
(0.992707 -0.0729497 2.38975e-21)
(0.992121 -0.00593465 -7.29213e-21)
(1.21885 -0.319132 0)
(1.01589 -0.00189365 -1.47772e-21)
(0.033985 0.00124948 1.08968e-20)
(0.970617 -0.403845 -9.08139e-21)
(1.10395 -0.236054 0)
(-0.0696889 -0.0315719 0)
(-0.150855 0.198491 5.85397e-20)
(1.00056 -0.00248279 0)
(0.995663 -0.0144452 0)
(1.22729 0.00431609 0)
(1.22728 -0.304537 -3.29165e-20)
(0.981137 -6.40614e-05 1.15837e-20)
(-0.0306022 0.00463356 0)
(1.00058 -0.00262265 0)
(0.999664 -0.00206049 -4.55357e-21)
(0.538143 -0.876863 -1.58465e-20)
(1.01492 -0.0055925 1.01707e-21)
(1.15007 -0.00229846 0)
(1.03125 -0.00699837 -7.59764e-21)
(-0.115764 0.231557 0)
(0.998362 -0.00206054 3.15527e-21)
(1.04077 -0.020653 4.89178e-21)
(-0.0970672 0.216336 -9.89886e-20)
(0.603118 0.0213516 -3.49926e-20)
(1.06749 0.0102431 -2.77632e-20)
(0.909271 -0.0254914 4.06512e-20)
(1.00088 -0.00330163 -1.2677e-21)
(1.00058 -0.02104 -2.94524e-21)
(0.42608 0.048636 -2.8536e-19)
(1.11928 -0.101362 -4.51425e-20)
(1.02666 -0.00787698 0)
(0.999603 -0.00132767 1.53662e-22)
(0.890933 -0.119357 -4.03648e-20)
(0.825976 0.0464163 1.95267e-21)
(1.06525 0.00853162 2.3197e-20)
(-0.175408 0.0113458 4.36624e-21)
(0.999681 -0.00164191 -9.23378e-21)
(0.996325 -0.00895086 -1.27262e-20)
(0.664618 -0.476174 4.91484e-20)
(1.00094 -0.00324644 6.05919e-21)
(-0.039311 -0.0120465 -1.4018e-19)
(0.605214 -0.527915 5.49503e-20)
(0.997077 -9.91991e-05 -8.17341e-21)
(0.996725 -0.00369831 -7.76725e-21)
(1.04523 -0.0208564 -1.47078e-20)
(1.00068 -0.00283083 -2.23014e-21)
(1.02976 -0.016806 1.72198e-20)
(-0.152466 0.0977998 5.34694e-20)
(0.735118 -0.0711322 -6.29584e-20)
(1.35907 -0.105731 -1.78026e-19)
(0.878998 0.033708 -3.80126e-20)
(1.05566 -0.0133517 1.6451e-20)
(1.10994 -0.039571 5.79364e-20)
(0.915077 0.00354741 2.88903e-20)
(-0.0758138 0.0817436 -2.64739e-20)
(0.900124 -0.0210006 1.20097e-20)
(0.999979 -0.000554813 0)
(1.05344 -0.0499941 0)
(1.16196 -0.397876 -5.50263e-20)
(0.979323 -0.0138671 -1.155e-20)
(0.982074 -0.0111556 -6.85486e-21)
(0.975518 -0.0101471 7.17441e-21)
(1.01558 -0.00182576 8.46629e-22)
(0.998684 -0.00651029 9.94955e-21)
(1.01539 -0.0270142 -4.29038e-21)
(0.996457 -8.8271e-05 0)
(1.00044 -0.00216841 2.21808e-21)
(0.968875 -0.0509482 -8.47183e-21)
(1.06324 -0.0285533 4.32886e-21)
(1.14476 0.0203234 0)
(1.01721 -0.000432139 1.22543e-22)
(0.211935 0.102963 0)
(0.919169 -0.0481907 3.49334e-20)
(0.982394 -0.430102 8.38775e-21)
(-0.0713155 0.218068 1.65025e-19)
(1.03825 -0.00883731 1.1528e-20)
(-0.0612325 0.246117 4.52872e-20)
(1.11132 -0.215811 -5.33621e-20)
(1.03693 -0.00984914 8.83667e-21)
(1.01577 -0.00255736 -3.73468e-21)
(0.983647 -0.022641 4.8078e-21)
(0.107001 0.120528 -7.83768e-20)
(1.15053 -0.0115332 8.58181e-20)
(1.01598 -0.00240389 3.32534e-21)
(0.998629 -0.00131126 -6.92538e-21)
(0.999756 -0.00174463 1.13577e-21)
(0.698328 0.121187 0)
(1.01512 -0.38396 0)
(0.87906 0.0132849 -1.36188e-20)
(1.00284 -0.00127068 2.32628e-21)
(0.984406 -0.00110048 1.83395e-22)
(0.856329 -0.0415995 0)
(-0.201595 0.00733835 1.33938e-19)
(-0.162941 0.0807449 3.00159e-20)
(0.933785 -0.0269858 0)
(1.05433 -0.0249265 2.40141e-20)
(-0.198374 0.151961 -1.27402e-19)
(1.2295 -0.016894 4.22167e-20)
(1.1772 0.0403733 9.78599e-20)
(0.975246 -0.0326199 -6.65279e-21)
(1.00775 -0.0162366 3.1672e-21)
(-0.073236 0.00268881 9.55991e-20)
(0.993761 -0.0114935 0)
(1.04587 -0.352517 -6.64727e-20)
(1.08222 0.050147 -5.33272e-20)
(1.02626 -0.00735172 2.28301e-21)
(0.623526 -0.384112 0)
(1.06211 -0.0672027 0)
(-0.12152 0.0999031 -8.55518e-20)
(1.0009 -0.0203856 5.57239e-21)
(-0.0366278 -0.0468539 0)
(1.24244 -0.0894478 0)
(1.06597 -0.0131145 1.25859e-20)
(1.33505 -0.0992703 1.64269e-20)
(0.994839 -0.0117724 1.00524e-20)
(0.889535 -0.68643 0)
(0.998154 -0.00154708 8.5992e-21)
(0.996815 -0.0144515 0)
(1.00002 -0.00164689 -6.55977e-21)
(0.994019 -0.00697671 0)
(0.151913 0.0339267 1.33436e-19)
(0.995177 -0.0130377 0)
(1.03286 -0.0122049 0)
(0.947102 -0.0206112 8.50355e-21)
(1.03013 -0.00761799 -2.5203e-22)
(1.0074 -0.016635 -9.61276e-22)
(1.04966 -0.186182 2.08264e-20)
(0.981756 -0.0567435 1.02748e-20)
(1.08891 -0.0174506 -1.00221e-19)
(1.00165 -0.00366024 0)
(1.00153 -0.00354749 -4.67573e-21)
(-0.0261636 0.0224889 4.4055e-20)
(0.640392 0.0280643 0)
(0.936508 -0.0263368 0)
(-0.190754 0.133424 7.0037e-20)
(1.06136 -0.0288165 0)
(0.98276 -0.0396392 8.10172e-21)
(0.993419 0.00282839 4.77998e-21)
(1.03051 -0.0165492 -1.32327e-22)
(0.113452 -0.0478456 1.33018e-22)
(1.03309 -0.0115135 0)
(1.00149 -0.000543687 -3.62077e-21)
(-0.246694 -0.000502982 1.55131e-19)
(1.18342 0.00640994 8.83463e-20)
(0.958003 -0.174844 2.73505e-20)
(1.00194 -0.00885082 7.36562e-22)
(0.99999 -0.000329546 0)
(1.03398 -0.0320879 5.05837e-21)
(0.99998 -0.00129482 0)
(-0.209992 0.14536 -3.27007e-20)
(0.970811 -0.0274995 0)
(0.0379157 0.269834 -2.18039e-20)
(1.06027 -0.0193901 -1.4777e-21)
(0.298137 0.41879 0)
(0.999971 -0.000785576 7.47858e-21)
(-0.255374 7.15734e-05 -1.65354e-19)
(1.00897 -0.000375035 0)
(1.10568 -0.370716 -2.02142e-21)
(0.99278 -0.010456 -5.91842e-21)
(1.08075 0.0387387 0)
(-0.0227722 -0.0270549 -8.63178e-20)
(0.998362 -0.00153449 -2.73591e-21)
(0.891667 0.0382207 0)
(0.989244 -0.0130036 -5.99289e-21)
(1.00018 -0.000139948 0)
(1.02477 -0.011057 -2.50973e-21)
(0.34416 0.0792962 0)
(-0.0646822 0.00449008 1.65304e-19)
(0.982635 -0.0218408 0)
(1.06532 -0.0683898 1.27993e-20)
(1.03366 -0.0101262 0)
(-0.208106 0.161559 1.9893e-19)
(1.01771 -0.000537412 0)
(1.06774 -0.162327 0)
(-0.035438 -0.0389157 0)
(0.908279 0.00619257 1.30673e-19)
(1.00196 -0.000941352 9.21884e-23)
(0.810517 -0.148367 0)
(1.00012 -0.000660785 0)
(1.03544 -0.0321503 -5.58607e-21)
(1.0286 -0.0200646 4.46531e-21)
(1.13843 0.0206431 -5.66748e-20)
(1.00312 -0.00358702 -1.34424e-21)
(-0.187886 0.172267 -1.29807e-19)
(1.00137 -0.00352567 1.98621e-22)
(0.99104 -0.0397208 0)
(1.08764 -0.00513104 1.92601e-20)
(0.773684 -0.253306 5.84211e-20)
(1.22502 0.0377422 -1.44785e-19)
(1.0173 -0.0240087 0)
(-0.239082 -0.00212019 -1.84737e-21)
(0.996157 -0.0149421 0)
(1.03459 -0.402594 -8.57326e-21)
(0.985835 -0.00671493 8.18752e-21)
(1.04258 -0.0230869 1.89501e-20)
(0.994115 -0.0120408 -5.61896e-21)
(1.0013 -0.00355874 -3.68751e-22)
(0.99997 -0.00063296 0)
(1.03085 -0.422814 9.78738e-20)
(1.06997 0.00215636 -4.14046e-21)
(0.832154 0.0384979 -1.0013e-20)
(1.18605 -0.104399 1.17047e-19)
(0.833551 -0.063151 0)
(0.91184 -0.135694 -2.03893e-20)
(0.600737 -0.841969 -4.16948e-23)
(1.04881 -0.0472442 0)
(-0.209792 0.140436 -8.58325e-20)
(-0.0628207 -0.0399736 -1.11559e-19)
(1.1054 -0.393363 2.11239e-21)
(1.28432 -0.168788 -7.23339e-20)
(1.17261 0.0441378 0)
(1.06411 -0.369292 -2.10425e-21)
(1.03628 -0.0315178 5.48671e-21)
(0.0620692 -0.189111 -4.94314e-20)
(1.08579 -0.00380452 -3.13833e-20)
(1.04089 -0.0227975 -1.33314e-20)
(1.12524 -0.403677 0)
(1.00007 -0.000594992 -3.08681e-22)
(0.883792 -0.541537 -1.29966e-20)
(0.96354 -0.161619 -1.48225e-20)
(1.19287 0.00706071 -6.45279e-20)
(0.88372 0.024471 8.39755e-20)
(-0.0983886 0.172793 -6.68733e-20)
(-0.0883733 0.00797263 0)
(1.08681 -0.00820658 -3.13483e-20)
(1.18755 0.00696697 0)
(0.999789 -0.00134991 -1.05078e-22)
(1.06256 -0.515058 5.07152e-20)
(0.944107 0.0112436 -2.45372e-20)
(0.99311 -0.00994351 -1.19474e-20)
(0.985954 -0.0349364 0)
(1.05592 -0.00736929 -1.4229e-20)
(1.11279 -0.100553 3.6375e-20)
(-0.0943351 0.0394205 0)
(0.899436 -0.475249 -4.08528e-22)
(-0.113462 0.0290345 7.73325e-20)
(1.04474 -0.0478854 -9.81965e-21)
(0.957976 -0.0547801 1.66046e-20)
(-0.126218 0.10448 3.8416e-20)
(0.41247 0.0957873 2.92886e-20)
(1.05196 -0.0264129 1.97971e-20)
(1.13551 -0.031923 -4.98966e-20)
(0.965937 -0.0309948 4.15858e-22)
(0.260902 -0.791673 -6.84843e-22)
(-0.0755686 0.224361 1.33866e-19)
(0.996984 -0.000362429 8.24691e-21)
(0.682002 0.0778527 0)
(0.687043 -0.435628 1.01952e-21)
(-0.0876338 -0.00949161 -4.3668e-20)
(1.00318 -0.00116492 1.00297e-21)
(0.924174 -0.0602288 3.15088e-20)
(0.427589 0.0490805 5.92688e-22)
(1.07902 -0.0311644 2.65972e-20)
(0.7478 0.0532891 0)
(1.08622 0.0402485 0)
(1.1181 0.067104 -3.33241e-20)
(0.949949 -0.079751 0)
(1.04915 -0.0500623 0)
(1.01987 -0.0333238 -3.20185e-21)
(0.984924 -0.00247081 1.72346e-20)
(1.10615 0.0980411 -1.44305e-20)
(1.00001 -0.000371763 0)
(1.11865 0.104343 1.62558e-20)
(1.1974 -0.0804694 5.6145e-20)
(1.07669 -0.253908 -5.12818e-20)
(1.00004 -0.000292297 -2.97463e-21)
(1.00017 -0.00118424 0)
(1.05697 -0.0115919 1.73568e-20)
(1.04464 -0.00741822 -1.14976e-20)
(1.0062 -0.00109966 0)
(0.986297 -0.0132445 -7.6786e-21)
(1.17833 -0.106159 -5.49936e-20)
(0.13261 0.132616 7.64404e-20)
(-0.115927 0.132465 0)
(1.00002 -0.000392737 0)
(1.19851 -0.326418 0)
(1.00163 -0.00758591 0)
(-0.0734968 -0.0577114 5.54049e-20)
(1.10373 -0.00895607 4.16964e-20)
(0.782478 -0.101421 -5.45509e-21)
(0.829238 0.0368807 0)
(1.23875 -0.0821581 -8.90538e-20)
(1.00969 -0.00606059 0)
(0.998968 -0.00409216 -5.29882e-21)
(0.825465 -0.144898 2.85173e-20)
(0.99304 -0.0113989 0)
(1.0327 -0.0314255 -1.35498e-20)
(1.13854 -0.0536637 0)
(-0.138701 0.120386 -3.00331e-20)
(1.02831 -0.0110012 -1.87915e-22)
(1.11393 0.089886 -1.41815e-20)
(-0.147304 0.0667992 1.03152e-19)
(1.05881 -0.0419646 -2.83375e-20)
(-0.18111 0.199187 4.19107e-20)
(-0.135882 0.0618573 1.77424e-19)
(1.01582 -0.0281868 1.48193e-21)
(1.13129 -0.0876996 0)
(1.06838 -0.0119062 0)
(1.01611 -0.0374924 -1.52871e-21)
(1.02394 -0.0109608 -4.62405e-21)
(0.621805 -0.14075 -1.14251e-19)
(-0.159678 0.0766535 -7.68654e-20)
(-0.0664808 0.0382047 0)
(0.978257 -0.0149936 0)
(0.995254 0.000478147 -6.66261e-22)
(1.02094 -0.0141815 -4.14942e-21)
(1.06018 -0.00567626 -7.76414e-21)
(0.984801 -0.0565418 -4.02078e-21)
(0.972593 -0.0684357 -1.39591e-20)
(0.494812 0.407946 1.41195e-20)
(1.10145 -0.00651589 -3.77226e-20)
(1.00047 -0.00230503 2.63512e-21)
(1.28995 -0.0270485 -1.19898e-19)
(1.08188 -0.0351527 0)
(0.843818 -0.0650443 0)
(1.03295 -0.0299979 1.23313e-20)
(-0.315275 -0.00965402 7.88621e-21)
(1.05726 -0.0261538 0)
(1.00404 -0.00277099 -1.99835e-23)
(1.08764 -0.251082 3.56399e-20)
(0.148218 0.0887142 3.83388e-20)
(1.02754 -0.00805226 -5.80468e-21)
(0.996564 0.00023347 0)
(0.992743 -0.0054037 -2.36351e-21)
(1.06449 -0.0127032 -1.3164e-20)
(1.00977 -0.00573559 -1.30281e-22)
(1.08891 -0.00957304 -1.84476e-20)
(1.22854 -0.0129067 -9.51602e-20)
(0.993365 -0.0433277 -1.06021e-20)
(1.13638 0.0238252 6.32492e-20)
(1.05031 -0.0263746 -1.11257e-21)
(1.03155 -0.028877 8.04458e-22)
(1.22474 0.0333063 -1.15315e-19)
(-0.0384032 -0.0657734 -1.02356e-19)
(1.16972 0.0717997 2.15444e-20)
(0.999205 -0.00395099 2.49818e-21)
(1.02882 -0.0080941 0)
(0.816276 0.168365 -6.11364e-21)
(0.905467 -0.0181947 -3.52131e-20)
(1.10431 0.128876 -1.17342e-20)
(1.0274 -0.00674751 -1.29357e-22)
(0.988363 -0.0130066 -8.30572e-22)
(-0.254922 -0.0157818 -8.45972e-20)
(-0.00622431 0.268577 -1.81228e-20)
(1.07051 -0.0778655 -3.57274e-20)
(1.14865 0.00721201 4.11433e-21)
(0.686522 0.0174334 1.53624e-19)
(0.994966 -0.0149516 1.02856e-21)
(1.00003 -0.000250985 4.08888e-21)
(1.01268 -0.0365966 1.52215e-21)
(-0.025547 -0.0195671 4.55685e-20)
(1.00161 -0.000663343 5.75604e-21)
(0.999996 -6.33648e-05 0)
(-0.0902313 0.126532 -7.01239e-20)
(0.888942 0.0248285 -1.19343e-19)
(1.2472 -0.14469 -1.54661e-19)
(0.836829 0.019108 0)
(1.00209 -0.00798246 0)
(-0.0328044 -0.0671246 1.81372e-19)
(1.00003 -0.000718464 4.3316e-21)
(0.987464 -0.00865527 0)
(1.0115 -0.0359928 4.36261e-22)
(0.923059 -0.113618 1.00424e-20)
(-0.0319058 0.0740218 0)
(1.00009 -0.00272511 3.98125e-21)
(0.9926 0.00249036 2.57817e-20)
(0.992656 -0.0118714 -5.79914e-21)
(0.994512 -0.013418 4.20836e-21)
(1.00181 -0.00796415 0)
(1.01953 -0.0343877 0)
(1.22929 -0.166607 -6.58536e-20)
(0.916241 -0.118539 -3.79054e-20)
(0.968775 -0.0477873 0)
(1.00019 -0.00356104 -6.70185e-21)
(0.907584 -0.113915 4.16079e-20)
(1.14196 -0.0844673 0)
(1.06634 -0.0108177 -2.23003e-20)
(0.879137 0.0290627 6.18266e-22)
(1.00001 -0.000115505 3.86683e-21)
(1.02098 -0.0135395 1.33111e-22)
(1.00313 -0.0675484 3.6807e-22)
(-0.0484079 -0.00909315 -9.77298e-20)
(-0.0992793 0.153576 -1.58215e-20)
(1.05447 -0.0125422 4.02651e-21)
(-0.0830618 0.0351148 -7.39372e-20)
(0.99976 -0.00123539 0)
(0.949543 -0.074614 -2.15122e-20)
(1.29502 -0.292922 8.77155e-20)
(0.154676 -0.181512 0)
(1.02153 -0.024235 0)
(1.00001 -0.00239233 -7.44785e-21)
(0.421552 0.192029 -1.2443e-20)
(1.12097 -0.0278002 4.3479e-20)
(1.00429 -0.00286026 -2.44405e-21)
(0.999946 -0.0010507 1.64928e-20)
(-0.173842 0.163108 1.2846e-19)
(1.00003 -0.000182857 -1.42341e-22)
(1.13738 -0.14765 6.00318e-20)
(0.996408 -0.00356966 -4.55187e-22)
(0.346184 -0.00149152 -2.46597e-19)
(0.999957 -0.00111687 8.13185e-21)
(1.01003 -0.000252349 1.73174e-21)
(0.998771 -0.00147918 6.11175e-21)
(1.05211 -0.101276 1.14448e-20)
(1.04382 -0.006826 -9.62628e-21)
(0.933482 -0.0491099 -2.48659e-20)
(0.900714 0.0177551 -7.36724e-20)
(0.531004 0.0885863 -1.92404e-19)
(1.00457 -0.00890362 -1.19126e-21)
(0.998941 -0.00641215 -8.44377e-21)
(1.00008 -0.000398913 -1.04972e-21)
(0.997211 -0.0149405 -2.11101e-23)
(1.03714 -0.0293056 -3.45056e-21)
(1.04031 -0.0146736 -9.82154e-21)
(1.07724 -0.0741539 5.44566e-20)
(0.998437 -0.00129119 8.27181e-22)
(1.11156 -0.00674477 4.06418e-20)
(-0.140562 0.141476 0)
(1.11137 -0.0699579 8.55156e-21)
(1.1438 -0.0559827 -5.69326e-20)
(0.999704 -0.0015014 1.86364e-20)
(1.02938 -0.019633 5.41527e-21)
(-0.245762 -0.0181312 -1.18583e-20)
(0.439278 0.225607 7.13621e-20)
(1.02369 -0.0102225 1.70422e-22)
(-0.194834 0.189698 -1.02477e-19)
(-0.264301 -0.0067263 1.6936e-19)
(1.029 -0.00849451 0)
(0.992301 0.00205005 1.51257e-22)
(1.00101 -0.0133569 -4.8119e-21)
(1.13599 -0.213777 8.57957e-20)
(1.11095 -0.00359784 9.14968e-21)
(0.134533 -0.140629 0)
(1.00515 -0.0089925 -1.02196e-22)
(1.01984 -0.0841598 0)
(1.00549 -0.00667042 1.53524e-21)
(0.966486 -0.0268668 -2.06395e-20)
(1.00915 -0.000337745 -3.45501e-22)
(1.06079 -0.276087 -2.26512e-20)
(1.0376 -0.0282173 -6.23212e-21)
(1.23566 -0.161529 0)
(0.999454 -0.00362914 9.27676e-21)
(0.92562 -0.253377 6.97897e-21)
(1.00392 -0.00802776 -1.59158e-21)
(0.962345 -0.0512272 -2.03518e-20)
(0.985777 -0.00887139 8.64942e-21)
(1.071 0.000390241 0)
(0.713152 0.12253 -6.81288e-21)
(-0.23512 -0.000361019 -1.38368e-19)
(0.13569 0.243441 9.3685e-20)
(-0.205126 0.193177 -1.56361e-21)
(1.11772 -0.0336512 5.89265e-20)
(0.987916 -0.0141419 8.17429e-22)
(0.603792 -0.791113 3.67248e-23)
(0.074003 -0.152276 0)
(1.11689 0.00208164 0)
(1.0354 -0.0266228 -7.56064e-21)
(1.00001 -0.00401601 4.1662e-21)
(0.164446 0.204801 -1.52104e-19)
(1.00126 -0.0139802 -3.82922e-21)
(-0.036364 0.0829386 0)
(1.03226 -0.00621499 0)
(1.0772 -0.0171169 -4.21127e-20)
(1.04007 -0.0278513 2.06574e-20)
(0.999945 -0.000401017 1.21122e-20)
(1.02131 -0.0253289 -2.69251e-21)
(1.07107 0.0266988 -1.3018e-19)
(-0.00326829 -0.0151781 -9.52143e-21)
(-0.0405417 0.0984803 9.37877e-20)
(0.65712 0.035534 0)
(-0.208837 -0.0221707 -1.56865e-19)
(0.993899 -0.00642895 8.92204e-21)
(-0.00656411 0.124704 6.05235e-22)
(0.59638 0.0287026 1.58205e-19)
(1.00003 -0.000128958 3.90905e-21)
(0.990325 -0.0379153 0)
(1.01113 -0.00802826 -6.29847e-22)
(1.19481 0.0600934 3.40751e-20)
(1.02546 -0.0072883 6.43071e-22)
(-0.0201278 0.0432416 8.44662e-20)
(0.848761 -0.0476765 0)
(1.19131 -0.0432424 -7.83406e-20)
(1.00519 -0.0472305 1.60595e-21)
(1.25715 -0.330985 1.47212e-19)
(-0.14809 0.0108058 -3.57128e-20)
(0.165735 0.00503316 1.34475e-19)
(0.937626 -0.111423 2.64724e-20)
(1.08516 -0.0632526 0)
(1.0018 -0.000977757 -1.79755e-21)
(0.594376 -0.192577 2.36331e-20)
(1.02708 -0.00575751 5.55888e-21)
(0.38966 0.283019 1.63843e-19)
(1.21581 -0.0361296 0)
(0.814943 -0.253029 4.1184e-20)
(0.757165 0.0378297 0)
(0.125422 0.0175927 -1.56481e-19)
(1.05542 -0.0399093 -1.34006e-20)
(1.0089 -0.0671941 -1.93006e-21)
(1.00323 -0.00389265 0)
(1.07134 0.0426165 6.11306e-20)
(-0.0162787 0.0345362 0)
(-0.16688 -0.0323979 0)
(1.01031 -0.00755405 0)
(0.200217 0.571512 1.01556e-19)
(1.06488 -0.0105504 -3.81376e-20)
(1.15435 0.017383 -8.82277e-21)
(0.556595 0.0932143 9.08486e-20)
(-0.143892 0.120606 2.63756e-20)
(-0.141067 0.124373 4.81449e-20)
(1.03402 -0.00598639 0)
(0.916155 -0.0518252 3.2107e-20)
(1.08401 -0.0282679 0)
(1.06064 -0.0180078 2.32029e-20)
(1.05822 -0.0110477 -9.42978e-21)
(-0.0725029 0.149361 0)
(0.999795 -0.00184146 8.35296e-21)
(0.838286 0.00107079 -1.42789e-19)
(1.01751 -0.000447523 3.09353e-21)
(1.03327 -0.00545644 -2.60586e-22)
(1.12085 -0.198703 6.25007e-20)
(1.15517 0.00764639 2.05619e-21)
(1.21007 0.065236 0)
(1.03903 -0.0398471 0)
(0.990594 -0.435341 -1.844e-19)
(1.25783 -0.231816 0)
(1.27087 -0.261213 7.1194e-20)
(0.892596 0.0183986 3.97786e-20)
(1.00014 -0.000592009 8.47426e-21)
(1.03767 -0.0407608 0)
(1.00017 -0.000604683 -4.58396e-21)
(0.983969 -0.0102056 8.36362e-21)
(1.27104 -0.278466 -8.05877e-20)
(1.10602 0.123139 1.80438e-20)
(1.02187 -0.0417823 3.19534e-21)
(0.984935 -0.007318 0)
(1.08575 -0.0238123 0)
(0.194612 -0.186177 -2.68402e-19)
(1.01228 -0.0905517 -1.00092e-21)
(0.986043 0.000917942 -2.74398e-21)
(0.378152 0.085945 -8.16802e-20)
(0.992738 -0.00688549 8.55079e-21)
(0.999987 -0.000331379 -1.1624e-20)
(1.0276 -0.00620174 3.04516e-21)
(1.10481 0.00987776 0)