/*--------------------------------*- C++ -*----------------------------------*\
| =========                 |                                                 |
| \\      /  F ield         | OpenFOAM: The Open Source CFD Toolbox           |
|  \\    /   O peration     | Version:  v2012                                 |
|   \\  /    A nd           | Website:  www.openfoam.com                      |
|    \\/     M anipulation  |                                                 |
\*---------------------------------------------------------------------------*/
FoamFile
{
    version     2.0;
    format      ascii;
    class       volScalarField;
    location    "150";
    object      ddt0(omega);
}
// * * * * * * * * * * * * * * * * * * * * * * * * * * * * * * * * * * * * * //

dimensions      [0 0 -2 0 0 0 0];


internalField   nonuniform List<scalar> 
10042
(
-0.00769301
0.0482249
-0.381859
-0.000189872
-2.66169e-05
0.0558383
-0.0331794
-0.0527367
-1.47162e-05
-0.0026329
0.0492431
-0.115141
-0.00124001
-1.1447e-05
-0.000138879
-1.76471e-05
0.11298
0.0582679
2.26237e-05
-0.000285374
-0.00125926
-0.00861194
-0.000116638
-0.0190819
-6.00249e-05
5.61812e-05
-0.000671821
-1.12355e-05
0.13661
-0.000178479
-8.3382e-05
-6.39189e-06
3.35945e-07
1.1327e-05
-0.060114
-0.0112631
-0.00010909
-3.6434e-05
-5.99461e-05
7.79646e-06
-0.00505949
-2.45365e-06
0.216272
0.344855
-0.000109197
-0.000121518
-9.24559e-06
-0.000166682
-0.00336229
3.41618
0.372826
-0.000116891
0.161655
-1.79391e-06
0.0735904
0.130342
-0.00106993
0.0127758
-6.40044e-05
6.00171e-07
-0.00108129
0.411845
0.0188316
-0.0737554
0.000201447
2.27223e-05
-0.000392695
-0.00553816
-7.0006e-06
-0.00647517
2.02772
-0.000152239
-2.19028e-05
-7.41706e-05
2.97044e-05
1.59427
0.000861551
-9.2336e-06
0.00114732
2.28554e-05
0.102406
-0.0137865
-8.96415e-06
-0.000150167
0.00031357
0.0109678
-0.000345813
-0.320175
-0.000116251
-0.00119134
-0.000311065
-0.000117119
0.00455424
0.0175751
-0.00127809
-0.000143486
-0.509899
-0.000369285
0.0412845
-9.54018e-05
-0.00022864
0.00573952
4.21941e-05
-0.000269971
-2.68418e-05
-9.98638e-05
2.14014
1.48041e-05
0.00191675
-4.04535e-05
-0.000110841
-0.0025854
0.00415117
-0.0796128
3.93376e-05
-9.33949e-06
0.00281031
-3.56464e-05
0.00506537
-5.71914e-06
7.34472e-07
-0.11762
-0.0731155
-0.000139058
-0.000739736
-6.81737e-05
1.16547e-05
0.163011
0.0453847
0.00446677
-3.15251e-05
-5.64681e-05
-4.4225e-05
-6.49334e-05
0.0174273
0.478652
-0.000460322
-0.204606
4.8743e-05
0.0418021
-0.00741674
-2.64988e-05
3.02824
-1.36384e-05
-3.97584e-05
-3.93588e-05
0.00029718
-6.70877e-06
-1.66743e-05
-0.131106
-4.29845e-05
-6.35774e-05
-7.45894e-05
-0.00193868
-0.000647255
-1.28481e-05
0.0408012
-0.0376791
-4.02423e-05
5.31653e-05
-5.66608e-05
-7.42899e-06
0.247906
-4.33e-05
5.12709e-05
-0.0997644
-2.0171e-05
-0.000432198
-0.0210072
1.5362e-05
-0.00195178
0.00164657
-0.00974704
1.58551e-05
-1.3952e-06
-0.0248118
-6.11759e-05
-4.23562e-05
-4.47061e-05
-3.84114e-06
8.47542e-05
-1.54678e-05
-7.75748e-05
-1.69369e-05
0.00194408
-0.000323595
-0.000152192
-2.93457e-07
-0.053851
-5.54577e-05
0.28197
-0.00107435
-1.39572e-05
-4.0815e-05
0.218792
-0.000117488
-0.389149
-0.00109561
-0.180444
-0.000138507
0.266868
-0.00571361
0.194739
-3.39229e-05
0.0574364
-6.67724e-05
0.0153945
-0.0019341
-0.000166654
-6.90731e-05
-1.03073e-05
-2.69428e-05
0.0843917
0.0954855
-8.06391e-05
-0.0189713
-1.58446e-05
-0.0415907
-0.000192277
0.429846
0.112377
-0.000886833
0.0482116
-0.0146079
-0.000177003
-0.00185691
-6.60031e-05
-0.000392904
0.000893891
2.18461e-05
-3.68234e-05
-1.05857e-05
-0.000295085
-4.56352e-05
-5.15354e-05
-0.0384846
-0.000272052
-0.623472
-4.81817e-05
-0.0215592
-0.132977
-0.00551383
1.21378e-06
2.20822e-05
-0.865199
-2.4383e-05
-0.00774918
-3.96883e-05
-0.000107624
-2.47667e-05
-2.9721e-06
-1.77866e-05
0.0176515
-0.0818303
1.81999e-05
-0.00025859
-6.91241e-05
-1.73883e-05
-0.66415
-0.000182999
-0.000630267
-1.56692e-05
-0.000118996
-8.98611e-06
-0.00129762
-0.533918
-0.000219087
0.00539066
-0.000135814
-4.68254e-05
-0.000238887
1.95454
-9.95538e-06
2.65438
-4.59166e-05
0.00136376
-0.000110553
-5.26877e-05
-0.000132412
0.148939
-3.43807e-06
-0.0443478
-0.616646
-1.74238e-05
0.000134561
0.236423
0.00681553
-7.49175e-06
0.0601789
-8.38248e-05
-0.000862889
0.0017102
-0.000142025
-0.0290366
-0.000276076
-4.91547e-05
0.117463
-0.00035574
-0.00023151
-1.56234e-05
-1.0351e-05
0.170133
-2.53613e-07
-0.171659
0.00757334
0.323572
-9.22536e-06
5.24939e-05
-0.197923
-0.0444089
-0.000212712
-8.43065e-05
-0.000102885
-4.5853e-05
0.00137815
0.102057
-8.91236e-06
0.00810769
-0.027057
-8.61639e-06
-8.75588e-05
2.84448
0.000276087
-0.0168267
0.00539613
-9.51928e-05
0.000176268
-5.82646e-05
-0.000298688
-0.000635505
-6.92863e-05
-0.000190871
-0.011972
-4.14881e-05
-0.0249431
-0.00573428
3.76485
-0.0233552
3.34018e-06
-0.0633824
-0.00794836
-0.00142009
3.42238e-07
3.2823e-05
-0.00010096
-3.906e-05
-4.56941e-05
-9.83714e-05
0.000220345
-0.427518
-0.00014038
-0.00152334
0.000173928
-0.000155083
0.333227
0.000214338
-5.44532e-05
-2.20648e-05
-0.210237
-0.000102599
-0.000126557
-0.000101766
4.16846e-05
0.00250943
-0.0269474
3.80266e-05
-0.00015291
5.62705e-05
8.73114e-05
0.862798
-3.34408e-07
-0.000148598
-1.11043e-05
6.58997e-05
-0.0202636
-3.1183e-05
0.000770961
0.38179
-0.353253
-0.0200214
-0.0001406
-0.00392321
0.000819689
-3.79889e-05
-0.00222868
-5.592e-06
-8.06596e-05
-1.55903e-05
-2.83596e-05
-9.35005e-06
-3.84909e-05
-0.184703
-0.000137058
-0.00053923
0.0106338
0.0313507
-0.000126088
-0.0718258
0.000206939
-0.000321603
-0.000141574
0.0955657
0.000435042
0.150217
-1.50507
-0.000250824
-0.00816366
0.000383937
-0.0905969
-6.90457e-05
0.00172951
-9.17469e-05
-0.0139382
-0.000194322
-0.0624411
0.000106386
-3.52545e-06
0.477389
-1.18361e-05
8.01487e-05
-3.88044e-05
0.0658232
-2.82767e-05
-1.67709e-05
-0.00492275
0.000210278
0.00053864
0.118885
-0.000186117
-0.00141599
0.00023761
-7.70108e-06
-7.92267e-05
-0.00870377
0.00021059
-1.60373e-05
-1.84448
0.00294047
-4.72594e-05
-0.0633183
-1.82838e-05
0.00104149
0.00426164
0.257722
1.4345
0.00630257
-0.0715585
0.0156806
-0.0663708
-1.27326e-05
0.00141563
-1.02159
-0.813745
-0.00206002
-6.68155e-05
-5.612e-05
0.000276961
-0.230712
-1.93744e-05
6.1365e-06
2.23874e-05
-9.89607e-05
-5.77545e-05
-5.28994e-05
-2.17388e-05
-0.000233994
-0.013828
-2.69731e-05
0.00106466
-0.00270336
-0.019884
-2.75838e-05
-0.314732
-2.29614
-0.0564031
-3.8931e-05
-9.57309e-05
-7.35234e-05
-0.00534652
-0.00020849
-0.000552119
-0.000192666
0.0206781
-3.5864e-05
-1.10367e-05
3.77868e-06
0.000417416
0.0172673
-3.8794e-05
-0.000115502
-6.33267e-05
0.590522
-1.50969e-05
2.92104e-05
-0.0484716
-0.00827099
-0.000145651
-1.33423e-05
-0.0241505
-0.0448268
-0.000152502
-9.29713e-05
-0.0305671
0.461545
-0.00149733
0.041056
-6.94176e-05
0.00273445
0.000338312
0.000133862
5.55294e-06
0.0546489
-0.000105288
-9.49739e-05
-5.11757e-05
-0.0406446
-0.00022025
-0.0185698
-0.000246266
-0.000143124
-2.97645e-05
5.64399e-05
0.0521717
2.05294e-05
-2.10185e-05
0.0637574
-0.00129717
0.000780094
-1.66051e-06
2.43101e-05
0.00464608
-0.0022975
-0.000152934
4.73503e-06
-0.0386807
-0.000156565
-3.85905e-05
-0.00840504
-2.93219e-05
-0.914978
-0.00015196
0.00095709
-0.000390876
0.276668
-0.0002346
-0.00015954
-0.00023168
-2.24213e-05
0.0294216
9.34066e-07
0.35596
-0.00155758
-1.33308e-05
-0.000111192
3.39753
-0.0979955
-0.000512231
-3.57467e-05
3.73574e-06
-1.09119e-05
0.00030871
0.00121204
-3.83853e-05
-0.0780716
-5.71527e-05
8.29002e-06
0.671011
-1.4676e-05
0.00167535
-8.12766e-05
-7.95481e-05
0.745354
-0.00763225
-5.29703e-05
0.154945
-0.000243403
-0.000240743
-1.02871e-06
-1.88894e-05
-4.00436e-05
-7.9318e-05
-0.000139059
-4.63573e-05
0.401606
-0.000222597
-0.0118098
-0.00012511
-0.00253175
-8.28969e-06
0.00142547
-0.10435
-2.01162e-05
-7.34758e-05
0.00106542
-0.000429531
-1.21608e-05
-0.505987
-0.000160455
0.00899616
-3.54882e-05
-8.4582e-05
2.60634e-06
-0.191416
-1.00751e-05
-5.78738e-05
-3.49723e-05
-0.633685
7.99836e-05
-6.15317e-05
-5.87143e-05
-0.437743
-9.03107e-05
-3.62671e-05
-2.61912e-05
-5.31873e-05
-9.35994e-06
-5.00608e-05
-0.00201483
-7.4372e-06
-1.45141
0.0122153
0.075814
-6.75187e-05
-5.79362e-05
-0.00019612
-0.000127813
8.56102e-05
-0.0159952
-0.684912
0.0818681
0.0522051
0.00201274
-0.00028626
-0.000151554
0.0125017
-0.417201
-5.58712e-05
0.00925627
-0.000174718
-0.00240113
-9.82231e-05
-0.000167328
-2.80174e-05
-2.38652e-05
-0.000104873
-0.0158359
-2.37787e-05
4.76072e-05
-0.238251
2.65094e-05
-0.0333463
-4.20503e-06
2.08109e-05
8.25665e-05
-7.73616e-05
-0.0261231
-4.73006e-05
-1.8716e-05
-0.00671635
-0.000152571
1.98304e-06
-6.69301e-05
-9.89365e-05
-0.000118847
0.214633
0.0242993
0.0710293
-0.00015755
-6.42819e-05
-0.00010781
-0.00496849
-0.000171155
2.44066e-05
-1.24097e-05
-8.83089e-05
0.013874
3.32346
0.00097811
-3.10659e-05
-0.000337518
-1.25278
-0.000217134
0.000322163
0.000561005
-0.00184535
0.26107
0.0114537
-9.88199e-05
-3.44327e-05
-4.93444e-05
-0.0802063
-3.77054e-05
-9.37327e-05
-4.59639e-05
-4.97819e-07
9.62722e-05
-1.83376e-05
-0.195458
-0.0943753
-4.39345e-06
-0.000101319
-1.2418e-05
0.00569251
-2.39785e-05
0.0299381
2.22449e-05
1.21281
-4.03817e-05
-5.1506e-05
-2.22925e-05
-0.000120729
-0.000123987
4.46326e-07
-0.000211606
-0.000151151
-0.000506875
2.70584e-05
-0.0545009
-0.000288241
-0.543614
0.0120088
0.000123527
0.0354058
-0.000102298
-3.161e-05
0.000663043
-5.94216e-05
0.101482
-3.26157e-05
-8.03779e-05
-3.57835e-05
-0.355603
-3.13127e-05
-0.0832766
-0.00130306
-6.51576e-05
-0.000232417
-0.0900274
-4.6409e-06
-3.67272e-05
0.00667565
-0.000165282
0.899831
-0.000165181
0.0019547
0.000161075
-0.000166836
-0.000152163
1.5106e-05
0.000109382
0.000661644
0.0179519
-0.0717738
1.5733e-07
0.000326413
0.000240836
0.00262862
-0.00018728
0.0751677
-0.000128247
-0.000178751
-0.775356
-6.60979e-05
0.00330563
0.00018851
-0.000333584
-0.0505806
0.00721815
-9.21982e-05
-7.12901e-06
0.000695816
-3.03558e-05
0.198342
-0.000167376
0.000564237
-0.000125297
0.113023
-7.27745e-06
5.88748e-05
-2.7003e-05
-8.435e-05
-0.000833493
-1.54827e-05
0.000599184
-4.34299e-05
-0.000177377
-4.48667e-05
-0.000186534
-4.96537e-05
-0.00124317
-5.00166e-05
-0.000134229
0.00638326
-2.74325e-05
-4.65748e-05
-0.000155581
-1.30445e-05
0.00148935
0.00175836
-7.46919e-05
0.0806581
0.00711613
-0.000124512
2.68478e-06
0.3376
-7.42279e-05
-7.73372e-05
-9.66912e-06
0.0672131
-0.000588034
-3.06409e-05
-0.000104777
-0.00105018
-0.0370792
-0.208903
1.08305e-05
0.0538082
-0.0407205
0.0477825
0.00591068
3.45558e-06
0.000390023
-0.0144467
0.00605703
-0.00022401
-0.402136
0.00629742
-0.0592296
0.0209028
-2.5097e-05
-0.000506194
0.710304
0.390601
-0.867647
0.000103656
-0.14457
-6.39572e-05
0.0123349
-0.000152454
0.064222
-3.95158e-05
0.0011753
-4.74348e-07
-0.000166481
-7.91159e-05
-0.236679
-6.46541e-06
-2.60913e-06
0.844644
-0.000140277
-0.000161228
1.96497e-05
0.00938111
3.03533e-05
-3.05828e-05
-9.02713e-05
-5.45276e-05
1.65438e-05
-0.000130247
-7.81379e-05
-0.41352
0.00482216
-0.102984
-2.40425e-05
-0.074787
-9.72206e-05
0.000588009
0.00518779
0.000700959
-3.90791e-05
-7.33184e-06
-5.4828e-05
-0.000127467
-0.0491411
-5.36319e-05
-9.9911e-05
0.0813091
-3.80607e-05
-0.000129808
-0.0129468
-7.04727e-06
-0.000191865
0.0313469
-0.000147719
-0.713563
4.8368e-05
0.00145594
-0.000247542
-0.000414503
-0.000186094
-9.81178e-05
-1.04457
-1.57062
-7.06743e-05
0.000430268
-0.237429
-1.05304
0.0558901
5.64538e-05
3.66515e-05
-0.000319634
-0.000126647
0.00312935
0.0515596
-5.6684e-05
-1.58693e-05
-0.00056069
-0.0751253
0.00758291
-1.0366e-05
-9.20451e-06
4.74667e-05
-0.000134793
0.121146
0.134574
-5.21057e-05
-7.57151e-05
-0.0235677
1.06193e-05
-0.000185408
-0.275446
-0.000154353
0.00153215
0.00126211
-3.75029e-05
-0.000158786
0.00118679
-0.0133414
0.288282
8.43961e-06
0.0579163
-0.0270462
0.132204
-2.85014e-05
-0.000189405
-0.164975
-0.000923093
-0.0186069
-0.000333961
-0.000151464
-3.27882e-05
0.332717
-0.185005
0.000105263
-3.86711e-05
-0.00079916
-3.94585e-05
-0.14212
9.68706e-05
-6.86711e-05
-5.22454e-05
-0.000656991
-9.24368e-05
-6.03711e-05
0.873972
-3.00893e-05
3.03438e-05
0.000454358
-0.0001098
0.0230856
-4.78089e-05
-6.97083e-05
0.457808
-0.00054332
-0.00013122
-0.000578163
0.0234243
-5.31599e-05
-1.63496e-05
-9.29071e-05
-0.00535605
-0.00016909
-2.096e-05
-3.20775e-05
-6.30014e-06
-4.48796e-05
0.108688
2.5173e-05
-0.0586712
-0.00015278
-0.00166519
6.29999e-05
-0.000153925
0.000403878
0.00799821
-0.08401
-3.72526e-05
5.91227e-05
0.0322668
0.12365
0.000294092
1.98513e-05
0.00679043
-1.67603e-05
0.00142723
-2.40933e-05
0.000399895
-0.000146562
-0.000116138
0.108965
3.62694
-0.0222018
0.000124816
-0.00011267
-0.000161832
0.106629
-8.0335e-05
-4.70106e-05
-0.00253382
-1.709e-07
-5.75207e-05
0.0501962
-1.25111e-05
-0.294217
-2.53963e-05
-2.67975e-05
-2.57072e-05
-0.00150996
-3.665e-06
0.00148259
-1.29751
-7.30006e-05
-2.87657e-05
-0.236249
-7.7745e-05
0.0665283
-5.19158e-05
-0.889119
0.00493153
0.000112949
-0.0147447
-0.000244027
-0.000149515
-0.18893
4.53081e-05
-0.000108263
-4.72783e-06
-6.02348e-05
-0.000167569
0.204962
-0.000111588
-0.00600828
-0.0102786
0.0988561
-0.02447
0.00395723
-7.94811e-06
0.0399514
1.32264e-05
-0.000257196
-0.000123735
-3.43971e-05
-1.36429e-05
-4.25812
0.00153373
-6.10926e-05
-0.0517385
8.85174e-06
-0.00710817
-5.64878e-05
6.15702e-06
-9.22411e-05
0.102473
-0.104026
-0.000212164
-1.18604e-05
0.889117
0.0206893
0.00168365
0.00103797
0.20808
-2.1427e-05
-0.013389
0.038155
-7.26391e-05
-5.86595e-05
-6.72715e-05
-2.67734e-05
2.91042e-05
-2.69575e-05
-0.000170156
-5.81291e-07
-1.40028e-05
-6.34375e-05
-4.26325e-05
0.0317042
0.00455527
-1.89723e-06
0.0142096
-0.000142165
-0.00104714
0.000758279
0.0568167
-9.77149e-05
0.00201113
0.00111909
-1.60492e-05
-0.00192141
0.162231
-9.26003e-05
-5.7957e-05
4.33665e-05
-0.00113454
-0.0453424
-5.48297e-05
-0.0758653
-3.75358e-05
-0.000106455
0.367381
-1.59804e-05
-5.2826e-05
2.92903e-05
-4.24207e-05
0.0025777
0.0111804
-0.00021547
-3.84095e-05
-9.08774e-05
-6.5473e-05
-0.000161779
-0.0121193
-6.05137e-06
-0.000563707
0.270882
0.134217
1.92741e-05
0.0103923
-1.5065e-05
0.0451656
0.000117311
0.0558343
-2.22475e-05
-0.0599035
1.69188
1.19314
-0.000162215
0.00277887
0.0160535
0.0388947
-2.69482e-06
0.126514
-4.21594e-05
0.278257
0.00385085
0.00059822
0.112906
0.00548729
-0.0739888
-0.265285
-0.0286912
0.0023863
-8.24807e-05
6.03059e-05
0.157335
-0.0100989
-8.32901e-05
0.0447284
7.27416e-05
-3.89901e-05
-7.43859e-05
-0.00117079
-0.0100671
-0.000621079
-0.290398
6.54948e-05
0.185291
-0.00010099
-7.14479e-05
-8.06208e-05
-0.0893472
-0.0298232
9.70087e-05
0.0111894
4.3533e-05
-8.22433e-06
-0.000465101
0.0452523
-7.68037e-05
-1.92434e-05
-0.0405634
0.0254932
-5.55053e-05
0.178929
6.85009e-06
-0.000665443
-0.000663895
-5.74514e-05
0.0668089
-0.0139683
-0.000132851
-4.67423e-05
-7.34502e-05
0.0982018
1.06678e-05
1.30572
0.0052128
-5.36881e-05
-4.26046e-05
-1.33987e-05
-0.000422673
-1.86742e-05
0.00142081
-8.29114e-05
1.52419e-05
0.00104724
-6.75329e-05
-0.000228581
0.005973
-0.000101394
0.00546663
-8.96862e-05
-0.000161871
-0.217001
0.00971055
7.02335e-07
0.249921
0.00380087
-0.0329904
-3.01593e-05
-1.87493e-05
0.0010737
-0.000108545
-0.000310645
-0.00372249
-4.06251e-05
-0.000113523
-0.0183522
0.00300893
1.77647e-05
0.00507815
-0.0255838
0.0648343
-6.32148e-05
-8.38985e-06
-0.0285991
1.57626e-05
-0.256958
0.0186122
0.00330696
0.00474918
-2.78602e-05
-3.3927e-05
0.216748
-0.0116809
-5.71938e-05
2.03475
-2.31076e-06
-8.00779e-05
0.0047649
-4.74174e-05
-9.83502e-05
-0.00296861
1.0341e-05
-0.000140214
-0.000111341
-0.000246845
-7.74852e-05
-0.00793428
-0.000376514
0.178587
-4.42514e-05
-0.000240307
-8.10268e-05
-0.000195924
0.0221099
-0.000105174
-0.0083912
0.0301444
-5.42236e-05
0.0297182
-0.000398709
-0.000564052
-1.19149e-05
-0.0338625
0.0273529
-0.0294343
1.74855e-05
5.59071e-05
-7.63355e-05
0.669693
1.80108e-05
0.00477785
-0.000622947
1.48261e-06
-0.0517708
-7.85666e-06
0.458659
-0.00021274
0.311703
-4.5938e-05
-4.8594e-05
-1.67167e-05
0.00269968
-0.000117057
-3.30841e-05
-1.96117e-05
-0.0001691
-0.000341581
-0.120726
-0.0454244
0.000120472
-0.000100421
-0.000150278
-0.000209438
-2.32302e-05
-0.0410505
-0.372234
-7.94141e-05
-0.000145154
-4.88133e-05
-2.76708e-05
-2.5553e-05
-3.31838e-05
-1.51284e-06
-0.0150836
0.580592
0.0188247
9.37704e-05
-0.000164369
-8.32688e-05
-0.000101468
-8.21535e-05
-6.28657e-05
-0.000258243
1.2567e-05
-0.000166944
-4.89617e-05
0.0415367
-0.561211
-1.193
0.00030879
-0.000219227
-4.11727e-05
-0.345395
-2.65881e-05
-0.000263322
-0.000285116
-4.12293e-05
-0.000158546
-8.01303e-05
-0.166197
-3.90881e-06
0.0126731
-0.0149233
0.00248335
-5.32114e-05
-5.04622e-05
0.0220097
-7.99388e-05
-0.000699886
-1.91521e-05
-0.000498045
1.1927e-06
-8.8577e-05
0.218954
0.0072834
-5.26955e-05
-0.000105663
0.00665938
-6.19163e-05
0.00161484
-0.000165581
0.14656
-8.53788e-05
-5.66124e-05
-0.000951102
0.349779
-0.00755908
0.000149151
-3.02925e-05
9.54052e-06
-0.000149197
0.0277181
0.00111343
-0.0147621
-5.92984e-05
-0.356109
-0.000179885
0.0725119
0.0823608
-4.49478e-05
-0.365484
0.0638997
-7.85248e-05
0.0023537
-0.00044088
-0.000105148
0.212974
-0.000116876
-0.426277
0.00531891
-0.0397017
0.0570778
-0.00303491
-0.000162088
-0.000131215
-6.42064e-05
-0.000136527
-3.30097e-05
-2.58732e-05
-0.116551
7.43039e-06
-0.000583548
-0.0233556
-1.7478
-0.000333173
0.0281211
-7.25866e-05
-0.127767
9.68729e-07
0.202913
0.169427
-1.07233
0.746681
-0.0129153
0.434365
-2.01457e-05
-8.92527e-05
-1.75244e-05
-0.0133183
-1.26501e-05
0.0767956
-6.9518e-05
-0.212284
-0.000140216
-6.06474e-05
9.03446e-05
-0.000154421
1.60861e-05
0.154618
0.0319148
0.32501
-6.05899e-05
-0.000165326
-8.00369e-05
-2.36976e-05
-0.00935598
-0.000171736
-0.00395884
0.00441516
-8.63605e-05
0.00036661
0.183454
-0.000153309
0.00122536
-0.0461048
-6.67145e-05
0.00672446
3.63247e-06
0.899882
-0.000184832
0.0166459
-4.36089e-05
-0.0101199
-0.000246609
-0.276548
-0.00389265
-0.360949
0.0182477
0.203377
0.000305287
3.37679e-05
-0.0644254
0.17211
-0.0065296
-0.00023147
-0.131838
0.00972489
0.0189987
-0.00109135
-0.0894506
-0.000620963
-0.00107867
0.0296829
-4.56253e-05
-0.000353523
-5.63852e-06
2.39698e-06
-2.82446e-05
-5.41601e-05
-3.79788e-05
0.472113
6.31246e-05
0.147307
-0.0182223
0.0416262
0.00133784
0.237139
6.56208e-05
-0.000151943
0.242315
-0.00358364
-6.97343e-05
-0.145629
-0.100002
0.205884
-3.1889e-05
-0.000851136
-2.17377e-06
-0.0138702
-0.0097944
0.0174734
0.0275421
0.00310748
-0.000101855
-0.000169011
-1.15283
-0.00306247
-0.00149273
0.0992456
-0.00022951
-0.000335526
-9.07137e-05
-0.0390839
-0.000102078
-2.8296e-05
-7.57197e-05
-0.000160365
-0.25846
0.000784003
-0.000179289
-0.0096159
-0.0103863
0.000161942
-0.0258664
-0.000244955
-0.000315256
-0.000386492
-0.000286064
0.015838
-1.88357e-06
-5.61684e-05
5.72617e-05
-0.0366196
-0.00975798
-0.000683251
6.37054e-05
-1.04808e-05
-0.000211653
0.327705
-0.000131186
-0.000130239
-0.000213043
0.0397414
3.87574e-06
0.00506182
-6.16795e-05
-0.000296865
-9.06495e-05
0.415979
-0.000576835
0.00174247
1.04346
-1.24569e-05
-4.21366e-05
-0.0118148
-1.9751e-05
0.0279546
0.10226
-0.000167697
-8.00112e-05
0.137483
-0.00021367
-0.419504
-9.12588e-05
-0.229026
-0.0129337
0.00475936
-8.27151e-06
-0.000127072
-0.000210963
-4.54185e-05
-6.0073e-05
-6.41871e-06
-9.23088e-05
-0.000257285
-8.56394e-05
-5.71279e-05
-4.99515e-05
-2.56595e-05
-0.000217584
1.1655
-0.000102634
-0.827653
4.53779e-06
-8.97857e-05
0.0549725
-1.37655e-06
0.778897
0.0170789
-6.4929e-05
-6.09796e-05
-0.00166762
0.00789798
-7.04532e-05
1.01763
-0.000261792
-3.35952e-05
-0.156297
-3.01893e-05
0.853404
-0.000138924
0.0352494
3.51054e-06
-0.198595
-0.31012
0.0321806
-0.000161428
-5.80671e-06
-0.000115101
-4.19705e-06
0.0942029
-6.58063e-05
-0.000247335
-0.00173995
-0.000255361
0.407552
0.00411328
4.74298e-05
4.10084e-05
-8.93775e-05
-0.000212691
-7.10074e-05
-0.000184167
7.77474e-05
1.16916
-0.116539
0.000846288
2.39311e-06
-5.24566e-05
-0.000105009
-0.00420185
-0.221482
-0.00145111
0.0768458
-0.0127476
-0.000161255
-0.000111499
0.0200341
-1.91533e-05
-5.79164e-05
-9.33544e-05
-0.000110372
-0.000231287
-8.21372e-05
0.0749668
0.00013821
-7.15482e-05
0.0165991
-8.49101e-05
2.25137e-05
-0.000226837
7.72857e-06
0.08112
-4.80482e-05
0.000388381
-0.000131813
0.761946
-0.0261552
-0.000103589
-9.04221e-05
-7.41578e-06
-6.61576e-05
1.7255e-05
0.0233389
-7.38056e-05
0.000179856
-0.000160257
-2.60991e-05
-0.000231933
-9.6159e-05
3.405
-4.00624e-05
-6.67772e-05
0.709027
3.81164e-06
-9.06065e-05
0.0174436
-9.97442e-05
-0.109671
-3.18675e-05
-2.30549e-05
7.68428e-05
-8.24556e-05
-3.79939e-05
-0.0128351
-4.61478e-05
-1.73527e-05
0.749942
0.0244963
-0.137648
0.00496239
0.00132202
-1.46474e-05
-5.51433e-05
5.56197e-07
0.0298847
-0.000157565
0.0777077
-6.84231e-05
-0.000495555
0.000513656
-0.00570299
-5.61567e-05
-0.294262
-0.000469993
-0.000164956
-4.12732e-06
-0.000119672
-0.000104027
-0.0324981
0.00154537
-7.03462e-05
1.36927e-05
3.77617e-06
-0.0333596
-0.000213905
-0.0322342
-0.00101192
-0.000216612
-0.000187288
5.97691e-06
-1.26041
-0.00499496
-6.777e-05
-0.517283
0.028914
-7.28752e-05
0.0069733
-0.000165887
-6.74141e-05
-5.86243e-06
-0.000143856
3.40371e-05
3.43793e-05
-0.000104631
-6.1409e-05
-9.58858e-05
0.00792754
5.12715e-07
0.0811862
-0.000461549
-8.5805e-05
0.0898908
-1.56192e-05
0.00015921
-6.56841e-05
-0.000185516
0.0178123
-0.000175425
-0.013184
-0.628721
-4.76968e-05
-1.53063
0.0108593
-0.000163533
-7.19267e-05
-2.85061e-06
0.853979
-0.000137875
0.242166
-0.242105
5.12799e-05
-0.000111173
-0.000360155
0.013964
-3.25954e-05
-0.00335991
-0.000205124
-0.00421932
-0.0876075
0.00679456
0.00637275
-8.20765e-05
-0.00663537
-0.021064
-0.00420413
-7.1618e-05
0.00213855
-8.97398e-06
-0.00123014
-4.16894e-05
-0.000216387
-0.263916
-9.09783e-05
-0.0244943
-0.0027083
-0.000177223
-0.00535708
1.9043e-05
-2.28635e-05
-0.000162181
-6.92882e-05
0.323358
-0.0251082
-0.0923983
-0.000999276
-5.06398e-05
-0.94633
-0.000179483
-0.000258313
7.52831e-06
-8.82718e-05
-5.70459e-05
-2.19973e-05
-6.63079e-05
-0.662151
-0.000162579
-2.52921e-05
1.09406e-05
-6.51877e-05
-0.000212597
-0.215638
-3.82251e-05
1.76324
-0.00010149
-0.537549
-2.58817e-05
-0.000226191
7.27854e-06
0.00268926
-1.83353e-05
0.164059
-0.186951
-0.00844629
5.39946e-06
7.47201e-05
-7.78023e-05
-0.00017323
-4.50435e-05
-0.186384
-7.57948e-06
-9.76613e-05
-0.201985
-0.000155042
-7.10151e-05
-0.228451
0.623774
-0.990969
0.000271016
-0.501767
0.760409
-8.19141e-05
-5.30256e-05
0.000525211
-0.411483
0.206985
-0.13823
-0.0129132
-0.00015306
-1.42202e-05
0.0261022
7.38883e-05
-0.00011482
-0.000394722
-0.000104289
-0.000102095
-0.0136196
0.0306399
-9.8005e-05
-0.000175042
-0.000348325
0.0029505
-0.39964
-8.3334e-05
-0.00017195
-0.000194428
0.0187451
-8.1506e-05
-4.6828e-06
-0.186683
-0.274728
-4.03991e-05
-8.58235e-05
9.72608e-06
-0.000147868
-3.51297e-05
0.000225417
0.784284
-2.61318e-06
0.0139449
0.0442395
1.36546
-0.000416744
-0.000110705
-0.000180494
-0.000286133
9.27121e-06
4.71742e-05
-9.99087e-05
-1.08191
-0.727083
0.000155306
-1.76264e-05
3.65535e-05
-8.96316e-05
0.152516
6.62279e-05
0.128225
0.159703
-1.61044e-05
-0.0104172
5.33908e-05
-7.90893e-05
-4.38193e-05
-0.000128379
-0.20441
-0.000118324
-2.4489e-05
-0.572233
0.157364
0.00636743
-0.745791
-0.0552296
-0.187799
-0.000292124
0.000270073
-0.597929
-0.0874761
-0.000159638
-2.14131e-05
0.000161112
-0.000122692
-0.000168083
0.0749537
-2.66545e-05
-1.1106e-06
-0.286805
-2.87596e-05
-1.2024
-0.00013197
-3.72168e-05
1.23728e-05
-0.29551
-0.000723723
-0.104859
0.000397806
-0.0372835
-0.00169446
-0.000162634
0.123115
-0.000145172
-2.1286e-05
-0.00011809
-9.96786e-06
0.0558345
-0.303266
-0.366943
-0.0399217
0.145827
0.0100081
-0.289901
-2.06238e-05
-4.32502e-05
0.672946
-0.000178648
-0.000112663
1.89594e-05
-0.000113018
-0.477264
-0.000129244
-0.0562655
-0.000163712
1.70532e-05
-0.0270483
-4.98064e-05
-0.000214161
8.08084e-05
-0.000596261
-4.30719e-05
-0.000157749
-0.000415019
0.00179844
-0.000163046
-0.000174366
0.000103532
-0.000390174
-0.0221114
-0.000126131
-3.68128e-05
0.000126543
-0.309399
-8.7743e-05
-0.000186831
-0.000161919
8.11809e-05
-5.86823e-05
2.80731e-05
-0.357793
-0.0102798
-0.000178124
-1.27686e-05
-0.000229259
-0.000807383
0.0469437
-0.000181124
-0.646559
-0.337765
-0.000124407
0.000145415
-0.305686
-0.19991
0.000156591
-2.07007e-05
-8.78725e-05
0.124291
0.0104734
-0.684551
-8.29432e-05
-0.323406
0.00508556
-0.0917484
-0.0383161
-0.336535
-0.0239405
-0.218841
0.00883066
-0.254898
0.000208938
0.000489208
-2.67212e-05
0.552082
-5.43996e-05
-5.62273e-05
-0.000122234
-0.0778467
0.019019
-2.26506e-05
-0.000163947
-0.338594
-0.320475
-0.335954
-0.000133249
-1.63155e-05
-5.07754e-05
-1.38248e-07
-5.18767e-05
-0.000477297
-0.0691196
-0.0170389
-1.74812e-05
2.01895e-05
-0.00675171
-0.000108651
-0.000148339
-0.0662523
-7.46887e-05
-6.41863e-05
-8.67076e-06
0.0975426
-0.00735825
0.0105723
-3.21803e-05
-0.96078
0.0505916
-0.000403982
0.00819341
-0.0824492
0.479234
-0.51285
-8.5617e-05
-0.000138933
-0.00930268
-0.000158221
-9.45702e-05
-6.36403e-05
3.39656e-05
-0.000628968
-8.69365e-05
-0.000204521
0.0475337
0.000845045
-0.0115644
5.03596e-06
-0.815924
-0.159193
-9.46189e-05
0.437291
0.058535
-1.84302e-05
-0.641248
0.00575874
-0.000114945
-0.000127372
-0.000124032
-0.00133142
0.0593199
-0.000220354
7.10506e-05
-0.0152286
-9.59767e-05
-6.53775e-06
-5.40409e-05
4.4012e-05
-0.0299095
-8.8384e-05
-0.00077459
-4.90285e-05
-0.304688
-7.20554e-05
0.148062
-0.0130876
0.0104922
0.0447201
-2.07878e-05
-1.94566e-05
-4.1374e-05
-0.000131386
-0.207966
-0.43544
-0.0667436
-0.0156036
4.87293e-05
-0.000173694
-6.94698e-06
-0.00014952
0.00154593
-8.39911e-05
-0.000406358
-0.321763
-0.0163253
0.583642
-4.88915e-05
-7.55142e-05
0.0394669
-0.000185325
-0.000544019
0.0163915
-0.296726
-1.069
4.11111e-05
-9.56483e-06
-6.17292e-05
-9.28628e-05
0.0255547
-0.000232871
-0.0868919
-0.000163956
-0.000159081
-0.0754747
4.84625e-05
-0.0538395
-2.29907e-05
-0.000178235
-0.000147601
-0.101846
-0.000108708
-2.24776e-05
0.402235
-0.000121224
-0.000168126
-0.00180627
-0.105184
-8.59164e-05
-0.000139661
-3.36446e-05
-0.274257
0.00494781
-0.00713828
-0.000119275
-7.02313e-05
-6.83257e-05
-0.000161084
0.0260843
-0.0287549
-0.189771
-0.00109122
-8.23291e-05
-0.00548314
-6.81833e-05
-0.0913312
-0.000159442
0.0777404
-0.0122463
-0.000102665
-0.0728482
-0.000150566
-0.302705
-0.00135357
-3.85715e-05
8.959e-05
-6.13862e-05
-0.000114103
-5.0699e-05
-1.2338e-05
0.00473139
0.025405
-5.99035e-05
1.84521e-05
0.0259984
-1.24404e-05
-5.90525e-05
-1.18299e-06
-0.000334102
-0.000191589
0.0678059
-0.00697973
2.34367e-05
-0.00015248
-3.8716e-05
-0.000101928
-0.0483167
-0.0315102
-0.000109446
-4.79988e-05
6.50183e-05
-0.00215012
-3.30972e-05
-4.11083e-05
-6.37835e-05
-0.00434166
3.49724e-05
-7.12034e-05
0.00463434
-7.01034e-05
-0.010859
-7.04144e-05
-0.000109492
-0.000117591
-0.000240503
-4.12988e-05
-5.35167e-05
-0.254044
-0.0175696
-3.76463e-05
-1.98013e-05
0.000321827
-0.526045
0.000168203
-0.000260413
-4.93774e-05
-8.58992e-05
-0.00106635
-7.35606e-05
-0.0122149
0.0114334
-0.000141247
-6.33494e-05
5.84844
7.16837e-05
0.493941
-0.124389
-5.37196e-05
-0.00336411
0.0087633
0.0128353
0.0543795
-0.00379439
0.000773075
-0.000152032
-0.205631
-0.000116044
-0.000246506
-0.00743179
1.46665e-05
-0.000242828
-0.160776
-0.000139547
0.180445
-0.233706
-1.86256e-05
-0.000102622
0.183181
-0.000254391
0.0790187
-3.49112e-05
0.00512041
0.0335048
-0.0195537
-0.000256413
-9.87824e-05
1.00231e-05
-0.00863911
0.356999
-0.0197967
0.551932
-8.84842e-05
-4.93693e-05
0.019378
0.346156
-0.000259734
5.15088e-05
-4.13168e-05
-8.42473e-05
-0.340004
-0.0356369
-2.38096e-06
-0.0239355
-7.11661e-05
-4.38641e-05
-2.36286e-05
-9.01324e-05
3.62045e-05
0.734658
-0.000164324
-0.0566858
-1.00323e-05
-0.000114496
-6.76445e-05
-8.85998e-05
-0.000243281
-4.80695e-05
9.59255e-05
-4.50624e-05
-0.803135
-0.083176
0.463173
-0.000350016
0.254118
-0.00462764
-6.81868e-05
-1.25595e-05
-6.24112e-05
-1.15114e-05
-1.1017
-0.0249593
-1.71148e-05
-3.44139e-05
-0.293479
-0.000118624
0.00236824
-3.22946e-05
-4.99943e-05
-7.82597e-05
0.399027
0.0206288
-0.198273
-0.0807299
-0.000157854
0.494947
0.580889
-7.50904e-06
-0.000140887
-9.64447e-05
-0.000225014
-0.000202075
-2.65498
-0.909547
-7.86982e-05
-0.000104127
-0.00599784
-0.000334543
0.306165
-3.10262e-05
-0.189159
6.19719e-05
0.000705686
-0.000463053
2.06949e-06
-0.000169573
0.101439
-0.000388057
0.291652
-1.02385e-05
-1.35952e-05
-7.9341e-05
-9.43161e-05
0.0108262
-1.02135e-05
-0.000139681
-0.00080047
3.39304e-05
-0.0222774
0.68904
-0.0416037
-0.000101957
-0.000100917
-0.138505
0.00151122
-6.39377e-05
-6.3565e-05
0.0770452
3.28302e-05
-3.16044e-05
-0.0961142
-0.000364264
-0.0160716
-0.00564322
0.00464907
0.000133362
-7.5499e-05
-0.000102128
-0.000184284
-4.91307e-05
-6.63521e-05
-0.0942088
0.0660269
0.000202221
-6.62071e-05
-0.000195846
3.93869e-05
1.92427
-5.37565e-05
3.99864e-05
1.57211e-06
-2.37972e-05
-0.000107935
0.0564975
-2.09837e-05
-2.05014e-05
3.97807e-05
-7.57945e-05
-0.000102075
-0.00382332
0.00325728
-0.000383941
-2.38422e-05
-7.96725e-05
-9.58882e-05
-4.9513e-05
-0.140881
-0.000229989
-0.0195917
0.008102
-1.2744e-05
-7.0294e-05
-0.0492702
-5.6536e-05
-4.53762e-05
-0.00010404
-0.0120187
-4.25688e-06
0.00939877
-8.81158e-05
2.45069e-05
-7.99814e-05
-0.0150333
1.59196e-05
3.36153e-05
-0.000249882
-0.304718
-0.00113929
1.8391e-06
0.00803793
1.24649e-07
0.0495398
-0.000184978
4.37545e-05
-8.93205e-05
-0.000134503
-9.14043e-05
0.251867
0.00767435
-0.00490797
0.00279355
0.000502095
-1.6642
-0.000110333
0.0211327
-0.0242621
-5.31073e-05
0.148189
-0.105755
0.0154044
-0.000126754
-0.437887
-9.20871e-05
-8.08221e-05
0.000159145
-0.0170578
0.0532957
-9.08858e-05
-0.0179682
0.602611
0.0123391
5.66908e-05
-6.85454e-07
-0.00261354
0.0567422
-0.422631
0.000642692
-9.89538e-05
-0.000992421
-0.0136008
-0.000136158
-0.0170811
-2.7126e-05
0.697454
-2.36544e-05
-3.27694e-05
5.96933e-05
7.35867e-06
0.226131
-0.0154714
-0.227561
-0.000117369
-2.79635e-05
-0.306682
-0.0518598
-0.325082