/*--------------------------------*- C++ -*----------------------------------*\
| =========                 |                                                 |
| \\      /  F ield         | OpenFOAM: The Open Source CFD Toolbox           |
|  \\    /   O peration     | Version:  v2012                                 |
|   \\  /    A nd           | Website:  www.openfoam.com                      |
|    \\/     M anipulation  |                                                 |
\*---------------------------------------------------------------------------*/
FoamFile
{
    version     2.0;
    format      ascii;
    class       volVectorField;
    location    "150";
    object      ddt0(U);
}
// * * * * * * * * * * * * * * * * * * * * * * * * * * * * * * * * * * * * * //

dimensions      [0 1 -2 0 0 0 0];


internalField   nonuniform List<vector> 
10042
(
(0.00253769 -0.0268969 3.92518e-19)
(0.102954 -0.00444477 -1.61955e-18)
(-0.0461778 0.0285516 -1.64188e-18)
(-0.00927777 -6.59223e-05 -2.21411e-18)
(-0.000963194 -3.55147e-05 6.03457e-20)
(0.0477939 -0.262328 8.53106e-18)
(0.0910348 0.0777235 3.42525e-18)
(0.00322211 -0.022806 -5.18448e-19)
(-0.00107523 -7.70369e-05 3.02757e-20)
(-0.00364159 0.0162812 -8.56887e-19)
(-0.0122232 0.00788345 5.26119e-19)
(0.11121 -0.00251399 9.42397e-18)
(0.00793696 -0.00786958 1.13329e-18)
(-4.95226e-05 2.36036e-05 1.02616e-19)
(-0.00590741 5.72521e-05 -1.14819e-18)
(-0.000273474 3.83821e-05 -2.14379e-19)
(0.0320079 -0.111497 1.93867e-18)
(-0.0120354 0.00861487 -8.28875e-20)
(0.00584759 -0.00074529 7.71862e-19)
(-0.00666459 0.00500303 2.24156e-18)
(0.00914793 -0.00743796 2.2088e-18)
(0.00778243 -0.0271624 4.83686e-19)
(-0.00576033 -8.40391e-05 1.36578e-18)
(-0.0581051 -0.133216 -3.83439e-18)
(-0.00271465 -0.000800842 3.45434e-19)
(5.78613e-05 2.7283e-06 1.11372e-21)
(-0.000531849 0.0144566 -2.26352e-19)
(-0.00104835 -0.000197031 -1.90968e-20)
(0.0517858 -0.244988 -6.51878e-18)
(-0.0439394 -0.183461 -1.14494e-17)
(-0.00408526 2.4869e-06 -6.2732e-19)
(-0.00698116 0.00150861 -1.34317e-18)
(-0.00034874 -0.000154321 -1.76286e-19)
(0.000211237 -0.00016326 2.4807e-20)
(0.00833925 -0.0420783 -1.18957e-18)
(-0.00662115 -0.0613307 -3.34171e-18)
(-0.00471166 4.31978e-05 1.46947e-18)
(-0.00186998 0.000351309 1.05799e-19)
(-0.00273907 7.40432e-06 5.36435e-19)
(-0.000841237 -0.000829612 5.63254e-20)
(-0.0464851 -0.176725 -2.99032e-18)
(-0.000482081 -9.00437e-05 -2.91911e-21)
(0.0243766 -0.140388 3.08729e-20)
(0.0518927 0.492231 6.42198e-20)
(-0.00543252 -0.00027666 -3.61387e-19)
(-0.00571965 -0.000856971 3.20978e-19)
(-0.000453313 -0.000255608 9.78321e-21)
(-0.00730081 6.27862e-05 2.21818e-19)
(0.0225801 0.0220973 -3.03128e-18)
(0.307681 -0.136114 -2.37877e-18)
(0.0583198 -0.153479 4.04303e-20)
(-0.00550025 -0.000150869 -1.52425e-18)
(0.0450016 -0.162839 -4.83752e-18)
(0.00411555 -0.000628655 -2.11436e-19)
(-0.1106 0.0580689 -8.01454e-18)
(0.156525 -1.04937 8.6794e-17)
(0.00772234 -0.00596107 -2.96772e-18)
(-0.00581018 0.00683259 5.97423e-20)
(-0.00236001 0.00111869 -6.35882e-19)
(0.000333083 -5.70384e-05 4.21316e-21)
(0.0190729 0.0235954 4.55409e-18)
(-0.135757 0.0518001 -4.44716e-18)
(0.0156699 -0.110676 -3.43486e-19)
(0.0128751 0.00808708 -2.12214e-19)
(-0.00867603 0.00583942 -1.80357e-19)
(0.000508594 -0.00187192 1.09677e-18)
(-0.00801449 0.00420673 1.29588e-18)
(-0.0154726 -0.022829 6.04305e-19)
(-0.000323644 -0.000297618 -3.83565e-21)
(-0.011697 -0.0246703 -8.64952e-19)
(0.101855 -0.227213 -2.00903e-18)
(-0.00677934 0.00262185 -2.11429e-19)
(-0.000729161 0.000842673 1.15927e-19)
(-0.0028738 0.00103434 5.91733e-19)
(0.00106181 -0.0015878 2.32487e-19)
(0.0556823 -0.207595 2.94239e-18)
(0.00280274 0.00843596 2.14554e-19)
(-0.000465315 -0.000277241 -1.23148e-20)
(0.00412138 0.00861294 -4.31714e-20)
(0.00605353 -0.000759626 5.93123e-19)
(0.0962342 0.516732 3.73216e-18)
(-0.0561828 -0.160762 1.52504e-18)
(-0.00324265 -1.01245e-05 5.44394e-19)
(-0.00687752 -0.00011564 -5.6662e-20)
(-0.00156039 0.00647147 3.09866e-18)
(0.024306 0.049487 3.68022e-18)
(-0.00717903 0.00348771 1.8954e-18)
(-0.0581639 0.0181187 2.90517e-18)
(-0.00488229 0.00015431 1.24536e-18)
(-0.00329754 0.00793133 -8.17483e-19)
(0.00668606 -0.00324179 -2.78379e-18)
(-0.00485592 3.84545e-05 5.12233e-19)
(0.0297047 -0.0968017 -1.45745e-19)
(0.0188071 0.055357 -3.87067e-18)
(-0.0111629 -0.000357568 -7.48655e-19)
(-0.00735739 -0.000105297 -3.69941e-18)
(-0.128395 1.25749 5.16823e-17)
(-0.00725901 0.00438361 -9.72292e-19)
(-0.0614214 0.0628506 -4.63906e-19)
(-0.00387064 0.000916778 -1.4284e-18)
(0.00753469 -0.0027262 1.85038e-18)
(-0.0074864 0.0266829 -5.25246e-18)
(0.00195418 0.00132118 7.56602e-19)
(-0.00139518 0.00126908 3.73039e-20)
(0.00600029 -0.000751462 2.7383e-19)
(-0.00478789 0.000869741 7.95882e-19)
(0.0301273 -0.00968504 -1.60619e-17)
(0.000484717 -0.00168396 -4.04252e-19)
(0.0778492 0.0890719 -7.68584e-19)
(-0.00187567 0.000967849 2.47056e-19)
(-0.00474789 0.000993575 -3.28759e-18)
(0.0619305 0.0773974 5.79992e-18)
(-0.0106117 0.0227689 3.74517e-18)
(0.0181702 -0.0149732 1.46441e-19)
(-0.00836476 0.00429262 -6.35493e-19)
(-0.000438754 -0.000312924 1.33077e-21)
(0.00959043 0.0174357 1.30157e-19)
(-0.00234519 -8.01168e-06 6.77074e-19)
(-0.00450127 0.00607526 -1.47338e-19)
(-0.000287805 -0.000194865 3.01101e-21)
(0.000331184 -7.3802e-05 -3.74595e-21)
(0.136416 -0.10476 8.85916e-19)
(0.138334 -0.116371 -3.63652e-17)
(-0.00694353 -0.00030053 9.10882e-19)
(-0.00223879 0.00885972 -1.17071e-19)
(-0.00250049 0.000244959 -1.26568e-18)
(0.00143276 0.000292049 5.76449e-19)
(-0.118914 0.0252539 -2.35358e-18)
(-0.126005 -0.055178 3.46969e-18)
(0.00599376 0.0186935 -2.20489e-19)
(-0.00160611 0.000439135 -7.43525e-20)
(-0.00212774 -0.000736427 2.00053e-19)
(-0.00135459 0.000434759 6.70574e-19)
(-0.00296391 -0.00177139 3.0587e-18)
(0.0510279 0.0813531 -2.05232e-18)
(0.188887 -0.0798853 -4.58016e-20)
(-0.0104251 0.00281048 1.04042e-18)
(0.041087 0.0562454 2.88775e-17)
(0.00432247 0.000690993 -1.56381e-18)
(-0.0505576 0.0665765 2.88451e-19)
(0.0146811 -0.0471006 -2.34174e-18)
(-0.00120386 3.37801e-05 -6.7535e-20)
(0.0799091 0.199924 -8.92576e-18)
(-0.00117204 -0.00016504 2.66302e-20)
(0.00487103 0.00424554 -1.02701e-18)
(-0.00202484 0.000375545 -4.61046e-19)
(-0.000275681 0.00650796 3.03345e-18)
(-0.000296212 -0.000263534 4.35211e-21)
(-0.00117396 0.00156181 3.46963e-19)
(0.0449683 0.034358 -7.95541e-18)
(-0.002028 -0.00144052 -1.20353e-18)
(-0.00200455 4.9926e-05 1.081e-19)
(-0.00116969 0.000608292 -5.57822e-19)
(0.00636062 -0.012532 5.02987e-19)
(-0.00978388 -0.000969459 -7.97997e-19)
(0.00481263 0.00470281 6.04405e-19)
(-0.104635 -0.0592275 -5.03142e-18)
(0.209316 -0.893833 -5.60302e-17)
(-0.00115291 0.000450236 3.2391e-19)
(6.41312e-06 1.48259e-06 8.33797e-21)
(-0.00462562 -4.73421e-05 1.78894e-18)
(-0.000978834 -0.00107472 -6.76327e-20)
(0.185682 -0.0473366 1.29626e-18)
(-0.00127785 0.000200167 5.57952e-19)
(0.00404983 0.00075128 -1.72373e-18)
(0.0533224 -0.0861259 7.56426e-18)
(-0.000719231 0.000864495 -2.8956e-19)
(-0.00296489 0.000442174 2.13747e-19)
(-0.00147258 -0.0584846 1.35287e-18)
(0.000352139 -0.000197504 -3.56328e-20)
(-0.00919865 -0.00569273 -1.92516e-19)
(-0.0413616 -0.180332 1.3627e-17)
(0.0740613 -0.297706 -2.91789e-19)
(0.000394826 -0.00020354 3.11443e-20)
(0.00393356 -0.000543156 2.63057e-19)
(0.110855 -0.213767 -6.2747e-18)
(-0.00272076 -0.000631735 -9.86107e-19)
(-0.00215079 0.000353988 1.16736e-19)
(-0.00146843 -0.000640539 1.83739e-19)
(-0.000178299 -0.000293226 2.54642e-21)
(0.00587201 0.000819981 5.29078e-19)
(0.00711327 0.000336878 1.29364e-18)
(-0.00300341 0.000991229 -2.54922e-18)
(-0.000723722 -0.000135057 1.3681e-21)
(-0.0189241 -0.00985604 1.09568e-19)
(0.00451989 -0.002547 2.51133e-18)
(-0.0066353 0.0026915 -2.14689e-19)
(0.000290697 -4.60307e-05 1.22153e-21)
(0.0530631 -0.583847 -4.08208e-18)
(-0.00286788 3.41189e-05 -7.32754e-19)
(0.0976157 0.101571 -7.96409e-18)
(0.008921 -0.00521479 3.44228e-19)
(-0.000721314 0.000473681 8.04313e-20)
(0.00471294 0.00033787 4.95858e-19)
(-0.0925536 -0.0202728 -2.97373e-18)
(-0.00487796 5.41099e-05 3.13045e-19)
(-0.273772 0.16784 -2.15813e-18)
(-0.00333326 -0.00877189 -1.25191e-19)
(-0.216281 1.04986 -1.04707e-17)
(-0.00634557 -0.000113459 7.96846e-19)
(-0.189331 -0.0747638 2.99129e-18)
(0.0214439 -0.0681545 1.78542e-18)
(0.067906 0.0511664 -1.81317e-19)
(-0.00199798 -0.000101177 -1.32038e-20)
(-0.0680684 0.0713606 5.60053e-19)
(-0.00245658 0.000365504 1.33096e-18)
(0.00620151 -0.0154479 -7.59652e-19)
(0.00906205 -0.0112205 -6.37624e-19)
(-0.00747423 0.000919883 2.02605e-18)
(-0.00301414 -0.00191124 -4.86556e-18)
(-0.00419774 0.00199504 1.13131e-18)
(-0.00164227 -0.000116721 -3.56015e-20)
(0.0713654 0.0528231 5.72891e-19)
(0.0791819 0.0310515 2.98515e-19)
(-0.00322282 1.25434e-05 6.22313e-19)
(-0.018503 -0.00840321 -9.63635e-19)
(-0.00097071 -9.14638e-05 -6.36822e-21)
(-0.0220325 -0.500734 -6.64457e-18)
(-0.00979321 -7.72555e-05 9.24584e-20)
(-0.163961 -0.0872763 -3.62671e-18)
(-0.35471 0.156751 3.02766e-18)
(-0.00688071 -0.00532663 7.66579e-19)
(-0.379187 0.129957 -2.64392e-18)
(-0.0140895 -0.016132 6.41948e-19)
(-0.00868923 -8.53728e-05 3.6617e-19)
(0.0147736 -0.077899 -2.14158e-18)
(-0.00354064 0.000628753 1.24483e-18)
(-0.00839319 0.00193823 -1.253e-18)
(0.00413762 0.0118234 -1.60323e-19)
(0.0011453 0.00138333 -2.70759e-22)
(-0.00188053 0.0003788 -3.40644e-19)
(0.000291505 0.000338352 1.89134e-19)
(0.00567537 -0.00267816 -1.60527e-18)
(-0.00323757 -9.88157e-06 2.87094e-19)
(-0.00224197 -0.000717642 -1.70748e-19)
(-0.00161955 -0.0349265 1.5698e-18)
(-0.00735837 -0.00117388 -3.31051e-19)
(-0.180066 1.13631 -2.43558e-17)
(0.00430521 0.00390718 2.5992e-18)
(-0.0407274 -0.116337 7.50353e-18)
(0.0570968 -0.285615 -2.54233e-17)
(-0.0782886 -0.0723731 -9.51049e-19)
(0.00036016 -7.48663e-05 -3.25628e-21)
(-0.00132385 -0.00105982 -3.02224e-20)
(-0.097747 0.10296 -7.35123e-18)
(-0.000961012 -4.06084e-05 1.84186e-19)
(-0.0679559 -0.0735269 -7.43378e-19)
(0.00299641 0.00393406 -3.33899e-18)
(-0.00226232 0.000625354 -7.00915e-19)
(-0.00133922 -2.83931e-05 -1.31954e-19)
(0.00593957 -0.000646751 -1.37787e-18)
(-0.000890809 0.00051839 -1.66382e-20)
(-0.0902607 -0.0310111 8.55814e-19)
(-0.108276 0.0881433 -3.32479e-20)
(0.000643021 0.00123753 -1.49364e-19)
(-0.00807945 -0.00159046 -3.56467e-20)
(-0.00377817 2.52558e-05 6.62501e-19)
(-0.00128661 0.000498776 4.23731e-19)
(-0.141579 1.22554 -1.76361e-17)
(-0.00897994 -0.000111013 -9.0458e-20)
(-0.00504874 0.00886512 1.59453e-19)
(-0.000668599 0.000517076 -5.08304e-20)
(-0.00558087 -0.000169267 -3.82581e-19)
(-0.000476846 -0.000268384 -2.38238e-20)
(0.00904814 -0.00907058 6.91985e-20)
(-0.12117 0.0831513 5.93034e-18)
(-0.00612199 0.00747786 -8.17992e-21)
(-0.0802003 -0.0265919 3.07735e-19)
(-0.00812381 2.95376e-06 -3.25585e-19)
(-0.00145727 0.000355891 -1.36928e-19)
(-0.0111777 0.000185571 -4.00641e-19)
(0.293549 -0.0651033 1.38233e-18)
(-0.00016281 0.00021658 -1.01556e-18)
(0.0499029 -0.324006 -5.90781e-18)
(-0.00285048 0.000237689 -1.20256e-18)
(-0.00493081 0.00342499 -3.58008e-19)
(-0.00354921 -0.000182022 -9.90179e-19)
(-0.00244796 -0.000348043 2.01986e-18)
(-0.00806631 1.11831e-05 -5.26437e-19)
(-0.0584472 -0.0158284 1.18024e-18)
(-0.000657223 -0.000205966 1.64945e-20)
(-0.081825 -0.00432267 -2.05653e-19)
(-0.243306 0.195187 3.33558e-18)
(0.000702724 -0.000133876 -1.71148e-18)
(0.00871811 3.32667e-06 -2.09115e-18)
(-0.361657 0.0601915 -1.77374e-17)
(-0.00437431 0.0114925 -2.80454e-19)
(-0.000398604 -0.000418711 -3.25402e-21)
(0.0195621 -0.0237709 1.30178e-18)
(-0.00235134 3.7218e-05 2.32469e-19)
(0.0105561 -0.00300818 -2.6257e-18)
(0.000910967 0.00551112 1.80241e-19)
(-0.00332477 -6.84354e-06 -3.85535e-19)
(-0.0726024 -0.00671699 -9.7402e-19)
(-0.00788823 0.007752 1.42822e-19)
(-0.00144453 0.000228269 -1.9775e-19)
(0.0605043 -0.0157215 -3.6316e-18)
(-0.00883644 0.000739754 -7.72677e-19)
(-0.0108179 0.000141539 1.28927e-18)
(-0.00100111 -9.06584e-05 6.42513e-22)
(0.00178366 0.000810651 2.32407e-18)
(0.077528 0.0444513 -2.56322e-19)
(0.000290331 -3.4118e-05 1.23502e-21)
(0.0287434 -0.382312 -6.38376e-18)
(-0.0024235 0.0132311 8.37766e-19)
(-0.108778 0.0620056 -9.90898e-19)
(-0.000178306 0.000206081 -3.20313e-19)
(-0.00146055 -0.00141125 2.1074e-22)
(0.082353 -0.0322781 3.32782e-18)
(-0.075666 0.00776626 -3.05798e-19)
(-0.00905188 3.05884e-05 -1.2748e-18)
(-0.00410706 -0.00142521 -1.16895e-18)
(-0.00533053 -5.45556e-05 2.2534e-18)
(-0.00138181 0.000203533 5.55815e-20)
(0.00024186 0.0041973 3.8003e-19)
(0.0231145 -0.0193505 8.5381e-20)
(-0.000474183 -0.000246164 3.16322e-20)
(-0.0155153 -0.00988736 -2.87395e-19)
(0.000949845 -0.103746 -4.67918e-18)
(-0.000437315 -0.000263289 1.80976e-21)
(-0.0015424 -1.64564e-05 -5.21464e-20)
(0.10323 -0.37043 3.02132e-18)
(-0.00423406 0.00297211 1.02864e-19)
(-0.0391511 0.0279393 -6.78437e-20)
(-0.0225915 -0.0022986 1.41854e-19)
(-0.00312864 1.12341e-05 -7.68843e-19)
(0.00265035 -0.00348753 -1.13419e-19)
(-0.00195312 -0.000490033 -1.87026e-18)
(-0.00752774 6.74922e-05 1.54272e-18)
(0.0100314 -0.00196375 2.4618e-18)
(-0.00263594 0.000358527 -2.97303e-19)
(-0.00914218 0.000468929 6.81339e-19)
(-0.00458885 -0.0184676 3.30351e-19)
(-0.00130921 7.23953e-05 -8.5476e-20)
(-0.00437494 -0.0500852 2.30459e-18)
(0.0220952 -0.0306078 -7.65894e-19)
(0.191151 0.146638 -9.33609e-19)
(-0.0399793 0.0232831 1.6698e-18)
(0.000158386 0.000559658 1.76516e-19)
(0.040221 -0.15602 -1.05499e-17)
(0.0230205 -0.043885 1.9504e-18)
(0.0113242 -0.00461909 1.46598e-18)
(0.000303408 -9.50403e-05 8.59633e-21)
(-0.000628826 -0.00363364 3.62652e-19)
(-0.00745945 -4.56104e-05 9.86269e-19)
(-0.00198078 0.000368925 1.94345e-19)
(-0.00186265 0.000289284 4.90614e-19)
(-0.00500534 -8.59678e-05 1.50268e-18)
(0.00203486 0.0012129 -9.42879e-19)
(-0.137639 1.18147 -1.11872e-17)
(-0.00556428 -2.15777e-05 1.14627e-18)
(-0.0111891 0.00165424 -4.3242e-19)
(0.00222596 0.000855878 2.20093e-20)
(-0.00108152 -0.00116591 -6.95266e-20)
(-0.138043 0.0387768 4.24268e-18)
(0.00169564 -0.0043732 -2.46312e-19)
(-0.0029992 0.000886835 5.18555e-19)
(-0.00373316 -5.03211e-07 -4.67189e-19)
(-0.32237 -0.106071 -6.82449e-20)
(-0.00134266 -6.88523e-06 -7.00584e-20)
(-0.00609703 0.000788517 5.08796e-19)
(-0.00452957 4.36007e-05 1.79836e-18)
(0.00371856 0.00096559 9.05093e-19)
(-0.00588473 -0.131397 2.65796e-18)
(0.0492793 -0.234331 1.0892e-18)
(0.0035794 0.000641528 2.32078e-18)
(-0.00730177 -0.000126619 -1.01065e-18)
(0.000350487 0.000595665 -4.83662e-19)
(0.000210663 0.000760596 4.14033e-19)
(-0.175015 -0.0542873 -2.83529e-18)
(0.000286432 -5.64475e-05 -2.44819e-21)
(-0.00896702 -1.90791e-05 1.82215e-19)
(-0.000247824 0.000260157 3.67053e-19)
(0.000242362 -4.36786e-06 -6.26816e-21)
(0.0218579 0.0420163 -7.83371e-18)
(-0.00137836 0.000455601 -1.6179e-19)
(-0.00461621 0.00446967 -1.38437e-19)
(0.109886 0.0322985 -3.75693e-18)
(-0.140052 -0.0615524 8.69904e-18)
(0.024392 0.0375469 6.28743e-18)
(-0.00682843 0.000533131 2.73739e-19)
(0.101383 -0.053948 -2.62156e-18)
(0.00297182 0.0106937 4.31349e-19)
(-0.000958935 -0.000410269 -5.12698e-19)
(-0.00359519 -0.0184523 8.59989e-19)
(-0.000255777 -0.000253782 1.31355e-21)
(-0.00449951 -6.61691e-05 -3.8369e-19)
(-0.000694992 -0.000154778 -4.84402e-21)
(-0.000957229 0.000250855 -3.14391e-19)
(-0.000547613 -0.000386144 3.4912e-21)
(-0.00264898 -0.000138839 8.58574e-19)
(-0.0801962 -0.58464 4.09019e-17)
(-0.00548913 1.41274e-05 3.62075e-19)
(0.00480044 -0.00304118 8.02136e-20)
(0.0330693 -0.26015 5.99983e-19)
(-0.101455 0.0731652 -1.68632e-18)
(-0.00620954 -1.80976e-07 -1.68442e-19)
(0.0124573 -0.0332171 1.09609e-18)
(0.0111456 6.89934e-06 2.62554e-19)
(-0.00759682 -0.000798656 -4.32914e-19)
(-0.00673374 -0.000124773 1.07628e-18)
(-0.404888 0.126062 5.85433e-18)
(0.00208482 0.00124807 4.12726e-20)
(-0.120402 0.0579241 1.05097e-17)
(-0.013685 0.692509 3.42801e-17)
(-0.00108387 -0.00115473 6.36714e-21)
(0.0253854 -0.0351043 5.53164e-19)
(-0.00222502 -0.00124106 -9.59635e-21)
(0.0964729 -0.210906 1.47978e-17)
(-0.0042846 -0.000329079 -2.82993e-19)
(0.00977612 0.104852 8.54007e-19)
(0.00890682 0.00313752 -8.25355e-19)
(-0.0828769 -0.0443143 2.51642e-18)
(-0.00831595 5.20337e-05 8.62928e-19)
(0.00414204 0.0453919 -3.27297e-20)
(0.00329124 -0.000471052 -8.44727e-21)
(0.00743214 0.00587066 -3.19854e-18)
(-0.152221 -0.00934337 -3.37124e-18)
(-0.000747251 -0.000268736 1.51882e-20)
(0.00260252 -0.000710134 -7.97011e-19)
(-0.00114496 5.52014e-05 -3.6612e-19)
(0.0433567 -0.289908 -2.31028e-18)
(-0.00145353 0.000399733 -7.61283e-20)
(-0.000709346 -9.74563e-05 7.39421e-23)
(0.00969627 -0.05473 -7.54701e-19)
(0.00563558 -0.00550014 -8.01769e-19)
(-0.00142621 0.00809074 1.75728e-18)
(0.0165235 0.102486 -7.5668e-19)
(-0.00907048 -0.000102716 3.54205e-20)
(0.00992537 -0.00592385 2.70336e-19)
(0.00588143 -0.00448951 7.6554e-19)
(-0.000382029 -0.00032159 2.59389e-21)
(0.0084035 0.003695 1.03888e-18)
(-0.0122109 -0.057121 -3.30573e-18)
(-0.00206805 -0.00114217 -5.79889e-20)
(0.000838995 0.0010204 -7.62306e-19)
(0.173706 0.215439 -7.11024e-19)
(-0.00499153 0.00510272 2.87356e-19)
(-0.000769037 -1.80141e-05 -2.46994e-20)
(0.0755534 -0.883916 8.64709e-18)
(-0.00135478 -0.000109562 -5.66436e-20)
(0.00244329 0.00291815 -7.77412e-19)
(-0.0226339 0.00393403 -1.41513e-18)
(-0.00641496 -0.499001 2.09765e-17)
(0.233784 -0.110663 1.42952e-19)
(-0.0253821 -0.0146027 -6.83251e-20)
(0.000368683 0.0456059 2.2128e-20)
(0.147167 -0.0345796 -1.16654e-18)
(0.0104846 -0.0019084 1.555e-19)
(-0.000497398 -5.07396e-05 8.71165e-21)
(-0.00444563 0.002002 1.07526e-19)
(0.0815445 0.0512882 8.79106e-19)
(0.0756691 0.0892142 -2.08507e-18)
(-0.00120605 -0.0169738 2.61735e-18)
(-0.00339285 -8.1705e-05 -8.36646e-19)
(-0.00237641 0.000337458 -9.75274e-19)
(-0.00886948 0.00253026 7.59487e-19)
(-0.00553891 -0.42163 -4.56249e-17)
(-0.000907519 -0.000170804 3.78744e-21)
(7.8158e-05 -0.000484664 -1.97223e-20)
(-0.000549159 -2.20118e-05 6.56574e-19)
(-0.00488206 -2.41496e-05 -5.19065e-20)
(-0.00273318 0.00173801 1.96167e-19)
(-0.00249559 0.00195416 -4.89271e-19)
(-0.000503548 0.000213111 -1.23941e-19)
(-0.00756185 -4.40376e-06 -6.40065e-19)
(0.0171758 -0.0340573 -1.2946e-19)
(0.000198583 -4.80285e-05 1.98217e-19)
(0.00209521 0.00191383 4.94017e-19)
(-0.0103023 -0.00417747 9.63657e-20)
(0.140884 -0.0116579 -7.88578e-19)
(-0.00113963 -0.000633823 -3.79557e-20)
(-0.386702 -0.11676 -1.54876e-18)
(0.181949 0.166888 -2.73179e-19)
(-0.0618401 0.0512329 -6.39077e-19)
(-0.00140247 8.58632e-05 1.26427e-20)
(0.00554543 -0.000362451 -1.74178e-19)
(-0.00157995 -2.33163e-05 1.94288e-20)
(-0.0888418 0.0706565 -9.49334e-20)
(-0.00969722 0.000329883 1.3013e-18)
(-0.00115319 -0.00773757 1.83308e-19)
(-0.00824418 0.000124123 8.68706e-19)
(-0.0440643 0.0560627 8.72096e-19)
(-0.0014409 3.62131e-05 6.47856e-20)
(0.00582435 -0.000897833 -1.20753e-18)
(0.000137744 -0.000549139 -6.04977e-21)
(-0.00374405 0.00173109 -8.98244e-20)
(-0.0109576 0.109767 3.03472e-19)
(-0.000632931 -2.69865e-05 1.9504e-20)
(-0.00518727 -1.84764e-05 6.50572e-19)
(-0.00299755 -0.00161754 8.01362e-19)
(0.104495 0.438709 -3.98764e-18)
(-0.000697915 0.000502455 -5.94838e-19)
(-0.00108489 -0.00536679 6.14277e-19)
(-0.0694626 -0.0309358 1.12861e-19)
(0.0310553 -0.0304457 -5.51619e-18)
(-0.000674801 -0.00108983 9.86996e-21)
(-0.00193974 -0.00608944 -8.16174e-19)
(-0.0539902 -0.000990493 -2.789e-18)
(0.117488 0.118767 -2.21182e-18)
(-0.00689712 0.000774887 -1.17288e-18)
(-0.00700131 -4.18045e-05 7.01264e-20)
(-0.0829786 -0.0271482 1.27669e-18)
(0.0828389 0.327788 6.92398e-18)
(0.020863 0.00862214 -3.12388e-18)
(-0.10202 -0.0059184 4.97169e-19)
(-0.00384052 4.12571e-05 6.73411e-19)
(-0.00854855 -0.00762929 5.40251e-20)
(0.00317499 0.00807511 -1.98713e-18)
(0.0039141 0.0074773 -7.19787e-19)
(0.0032506 0.00334318 -1.98201e-18)
(-0.0131859 -0.00411913 2.07855e-18)
(-0.000780195 -0.00102908 -5.24091e-20)
(-0.00477915 -0.000127418 -3.53464e-20)
(-0.00217582 0.00110018 7.12956e-20)
(-0.0383259 0.0148042 5.33186e-18)
(-0.0108634 -0.000290344 8.62947e-19)
(0.118006 -0.112622 1.41919e-17)
(-0.0119986 -1.59812e-05 2.30047e-18)
(-0.0064413 0.000704282 4.95852e-19)
(-0.00138749 -0.000457186 -5.9009e-21)
(0.00691008 0.00617104 -3.66548e-18)
(-0.108532 0.0685044 2.97173e-18)
(0.00107597 0.00130368 -8.00504e-19)
(0.000680268 0.00120561 7.64772e-19)
(-0.0563568 0.260909 3.43948e-18)
(-0.00497201 -0.00811405 -1.59557e-19)
(0.00448581 0.00467576 6.06943e-18)
(4.50741e-06 0.00122198 1.44392e-18)
(0.0016314 -0.00103321 5.53916e-19)
(-0.0109154 -0.00807918 -1.21645e-19)
(0.121898 0.0998773 2.63665e-18)
(-0.00734368 0.000618822 1.28884e-20)
(6.10743e-05 -0.000563307 -5.43274e-21)
(-0.05248 -0.0334841 -1.04536e-18)
(-0.00798012 -3.51833e-05 -1.90213e-18)
(-0.00202031 0.000296241 -1.54905e-18)
(0.017117 -0.0137717 -2.95628e-18)
(-0.00150075 0.000399293 -1.23189e-20)
(-0.113946 0.0991061 7.11251e-18)
(-0.00715998 -0.000149873 -1.22435e-19)
(0.00315977 0.0138136 2.81487e-19)
(-0.00243905 -0.000759371 -6.26305e-20)
(-0.402028 0.178014 -6.18748e-18)
(-0.0115606 -0.000289211 6.72347e-19)
(0.00514614 -0.000916889 -2.45041e-19)
(-0.0119172 -5.42649e-05 -5.36414e-19)
(-0.000919355 0.000746679 -4.79466e-20)
(-0.0651437 0.248442 -4.21621e-19)
(0.000332055 -9.7654e-05 -3.76347e-21)
(-0.0308229 0.0692222 -1.27419e-17)
(0.0221193 0.00721877 4.8002e-18)
(-0.000993702 4.96135e-05 -7.99299e-20)
(0.00358737 -0.00129029 -5.20672e-19)
(0.227073 0.156126 2.04744e-17)
(-0.0117739 -0.436276 -2.17104e-18)
(-0.00930675 -0.00250896 1.01159e-19)
(-0.000921648 5.28217e-05 2.43265e-19)
(4.03118e-05 -0.000563866 -1.09619e-20)
(-0.00044739 -0.000188161 1.76308e-20)
(0.00146767 -0.000655776 -4.4559e-22)
(-0.0027658 0.000760525 1.64519e-20)
(-0.00167543 0.000988209 3.68127e-19)
(-0.0330808 0.376796 -1.51916e-19)
(-0.00308737 7.98608e-05 5.9603e-19)
(0.000350971 -2.4565e-05 -2.02191e-21)
(-0.220209 0.351503 2.29776e-17)
(0.00619116 -0.000425032 -6.20725e-19)
(-0.00359361 0.000932213 -3.68519e-20)
(-0.00118271 -1.25368e-05 1.1993e-19)
(-0.00336392 -4.53884e-05 -1.68097e-19)
(-0.221817 0.273028 -1.59534e-17)
(0.0153875 -0.10465 4.10832e-18)
(-0.00310439 -0.000754853 -2.99209e-20)
(-0.00667491 0.017107 8.42705e-19)
(-0.0114075 7.45576e-05 -4.31962e-19)
(0.0040841 -0.00165562 6.96824e-19)
(-0.00037822 -0.00078855 -2.15383e-20)
(-0.00126113 4.69261e-05 7.19606e-20)
(-0.00203227 -0.00176286 1.19059e-18)
(-0.0038389 -0.00139519 1.07863e-18)
(-0.006545 0.000735696 -5.72532e-19)
(-0.00229497 5.37592e-05 -4.3093e-19)
(-0.418548 0.138615 6.49308e-18)
(-0.00975615 0.000278005 4.34399e-19)
(-0.0165745 0.000327307 1.523e-18)
(-0.00585545 -0.000357384 1.48624e-18)
(-0.002794 -0.000952964 -8.90839e-20)
(-0.000474086 -0.000254323 -4.56972e-21)
(0.00402584 0.0038903 -1.26156e-18)
(0.00085217 -0.44472 -2.34373e-17)
(-0.00132818 0.000120185 4.06029e-20)
(-0.00341038 -0.000329511 -7.93239e-19)
(-0.0207142 -0.004735 1.0205e-19)
(-0.0056187 -0.00622434 -3.14378e-19)
(-0.000715576 -0.000260281 -2.87127e-20)
(-0.132056 0.0275366 -8.28299e-18)
(-0.00769124 -0.000102415 -5.36492e-19)
(0.0068452 -0.0212073 -4.07297e-19)
(-0.00183227 0.000376677 1.45442e-20)
(-0.00517506 -4.01755e-05 1.75932e-20)
(0.000254854 0.000702722 3.28204e-20)
(-0.324927 -0.0301456 -1.7256e-18)
(-0.000562297 -0.000230425 1.25969e-20)
(-0.00239097 0.000374396 -1.26614e-18)
(-0.00161367 0.000415643 -1.96398e-19)
(-0.110375 0.0575768 1.80086e-17)
(0.000162949 1.83944e-07 1.11096e-20)
(-0.00307898 -0.00154862 -1.02541e-18)
(-0.00258228 6.51015e-05 -2.1166e-19)
(-0.0751018 0.0869977 6.30372e-19)
(-0.00452641 -3.79709e-06 1.40107e-18)
(-0.00188877 -0.000415529 2.57899e-18)
(-0.00128338 1.70188e-05 -1.69147e-19)
(-0.0028121 -0.000440107 -3.48703e-18)
(0.00336434 0.00343675 2.40878e-18)
(-0.00223059 -0.000617642 -1.35056e-19)
(-0.00250969 -0.000939761 2.80196e-19)
(-0.000879759 -0.000820036 -1.93507e-20)
(-0.0660806 1.02993 3.64915e-17)
(0.0517496 0.459244 -1.27707e-18)
(-0.0375706 0.107664 -1.60197e-19)
(-0.0043736 -0.000658064 2.02385e-18)
(0.0030205 -0.000399149 3.4717e-19)
(-0.0098418 -8.23177e-05 1.63045e-18)
(0.0256068 0.00770665 -1.05478e-18)
(0.00486138 2.17842e-05 3.23616e-18)
(-0.0238188 -0.131898 -4.7809e-18)
(0.0455596 0.0727833 3.56728e-19)
(-0.0488763 0.0929767 1.46167e-20)
(0.0117183 -0.0201427 -1.57454e-19)
(-0.0530493 -0.0871953 -4.49559e-18)
(-0.0134761 6.92526e-05 -7.39245e-19)
(-0.00726042 0.000503096 9.16396e-20)
(0.0101683 -0.0446804 1.01593e-17)
(-0.0783071 0.0650774 -1.50771e-18)
(0.00341951 -0.00314582 1.9716e-19)
(-0.0479969 -0.0156477 2.33121e-18)
(-0.00758472 0.000616588 -7.99226e-19)
(0.0275288 -0.067753 -1.79663e-18)
(-0.00400905 -7.90003e-05 1.23056e-18)
(-0.00767196 0.00077189 -3.59015e-19)
(-0.00111588 -0.000696874 1.82868e-20)
(-0.00117974 0.000453525 1.25488e-19)
(-0.0069981 -5.92581e-05 -1.38378e-18)
(0.00562469 -0.0201343 -3.89498e-19)
(0.000282139 -0.000118694 1.32058e-18)
(5.14636e-05 1.34782e-06 1.38087e-20)
(-0.190815 -0.422396 1.16002e-17)
(0.000907245 -0.000163298 -5.8069e-20)
(0.0225498 -0.00208902 8.42218e-19)
(-0.000518929 -0.00083129 -5.39727e-20)
(0.00240238 -5.54848e-05 -1.07564e-18)
(-0.0014004 -0.00417811 -3.85696e-19)
(-0.00400327 3.87548e-05 2.75e-19)
(0.0140857 -0.0647857 -3.43031e-18)
(-0.0015107 -5.42292e-05 5.50749e-19)
(-0.000800686 -0.00130411 -9.93757e-19)
(-0.0133348 0.00473501 -2.9553e-19)
(-0.00685853 0.000756029 -2.33124e-19)
(0.000322108 -2.98408e-05 -1.04314e-21)
(-0.00391919 7.91101e-06 1.12903e-19)
(-0.00397507 -8.2872e-05 5.19712e-19)
(-0.00517105 -0.000105069 2.93272e-19)
(0.0450742 0.0367448 -5.16171e-21)
(0.0160391 -0.0202408 4.8446e-18)
(0.00488169 0.44571 -1.88029e-18)
(-0.00691175 4.96398e-05 -1.18983e-18)
(-0.0023411 0.000129534 -1.45914e-18)
(-0.00440929 -0.000142775 -1.9686e-18)
(0.011058 -0.0904429 1.44179e-18)
(-0.00763932 0.00286411 5.19719e-19)
(0.0013003 -0.00125615 -5.28546e-19)
(-0.000846028 -7.4105e-05 2.15801e-20)
(-0.00390384 0.000335417 2.20981e-19)
(-0.0518136 -0.114324 1.66132e-18)
(0.342872 -0.124262 1.70272e-17)
(-0.00430028 -0.00168209 -8.81163e-21)
(-0.00184053 0.000606743 -1.11414e-18)
(-0.0131667 2.24687e-05 2.31275e-19)
(-0.0160581 1.00387 -1.96564e-17)
(0.00402315 -0.00120744 -6.74965e-19)
(0.00387778 0.00156286 -1.21507e-19)
(-0.00144135 0.00559268 5.22379e-19)
(-0.0166955 -0.000810739 2.53775e-21)
(-0.0985382 0.0671229 2.49259e-18)
(-0.0318966 -0.11938 -3.30412e-18)
(-0.00405468 -4.86811e-05 8.175e-20)
(-0.00125507 6.94576e-05 4.4576e-19)
(-0.00158973 -4.48762e-05 -2.43921e-19)
(0.0133593 0.0198452 1.09116e-19)
(-0.00107159 -3.57995e-05 -4.48013e-19)
(0.00300072 -0.000465206 6.74581e-20)
(-0.00157162 0.000409476 -1.62866e-19)
(0.000240516 -0.000116937 2.08329e-21)
(8.3792e-05 -0.00367363 -1.07295e-19)
(-0.000415502 0.000636416 1.2277e-18)
(-0.34733 -0.155656 8.1653e-19)
(-0.298654 0.190791 -2.50667e-18)
(-0.000238452 -0.000444893 9.47523e-21)
(-0.00499035 -0.000265025 2.82913e-20)
(-0.000436326 -4.79629e-05 -2.21994e-20)
(-0.0239185 -0.0117982 1.38526e-19)
(-0.00121954 0.00042829 -2.79472e-19)
(0.0105358 0.0739647 -7.62475e-19)
(0.000238224 0.000608636 6.12925e-20)
(0.173085 -0.454937 1.02321e-17)
(-0.00114522 8.04175e-05 -6.02929e-19)
(-0.00120909 0.000601912 1.14269e-21)
(-0.00141696 0.00016891 5.15643e-20)
(-0.00593655 -0.000138515 1.29275e-18)
(-0.00600233 0.000394077 -2.6392e-19)
(0.000285191 -0.00031306 -2.65419e-20)
(-0.00983364 0.00028559 -3.8167e-19)
(-0.00623269 0.000298258 -7.19431e-19)
(0.00396515 -0.00371512 -5.91094e-19)
(0.00676866 -0.000782595 1.67784e-18)
(-0.00515114 0.0816558 -6.3519e-19)
(-0.0135846 2.27562e-05 -2.99485e-19)
(-0.0476279 0.0429846 1.76152e-18)
(-0.0257935 0.00513423 -9.13332e-20)
(0.0073547 1.67464e-05 6.27028e-19)
(0.217031 -1.0261 5.61873e-17)
(-0.0047103 -0.000461815 2.62237e-18)
(-0.00130836 0.000729157 -3.26781e-19)
(0.00247049 0.00132058 -2.82182e-20)
(-0.00156576 4.50351e-05 2.21069e-19)
(-0.0289056 0.0237791 -5.21971e-19)
(-0.00101971 0.000359914 -6.71525e-19)
(-0.00505542 -0.000783611 -1.68063e-18)
(-0.00145442 -0.000515879 1.51318e-20)
(-0.0275151 0.0262899 -2.17413e-18)
(-0.000363119 0.0006363 2.64527e-19)
(0.0123954 0.025008 1.12335e-19)
(0.0196802 0.00340249 -1.85082e-19)
(-0.00235258 0.000117435 1.07605e-18)
(-0.00931389 0.0301504 -2.29842e-18)
(0.0186349 -0.00749274 5.49778e-20)
(-0.000276558 -0.000955336 -3.36033e-21)
(-0.00138063 0.000866694 2.67573e-19)
(-0.0427452 -0.0238245 5.66093e-19)
(-0.00932685 -1.23712e-05 -3.69455e-19)
(0.0147454 0.0792558 -1.26384e-17)
(0.00477177 -0.00215212 -2.39691e-19)
(0.00568327 0.00685498 1.17078e-19)
(0.000809634 -0.00457222 4.74546e-20)
(-0.007408 5.31558e-05 1.12614e-18)
(-0.00681147 0.000851109 2.02578e-18)
(0.000245961 -0.00224044 -2.27044e-19)
(-8.58246e-05 0.00582026 -8.12725e-19)
(0.0023088 0.00199389 -1.76271e-19)
(-0.0287117 -0.0169344 1.36085e-18)
(0.0699286 0.0509718 2.36246e-18)
(0.000280143 -0.000122392 1.16697e-20)
(0.00165622 -0.000181493 1.72277e-20)
(0.0123536 1.15446e-05 -1.4251e-18)
(-0.0245918 -0.000343287 -2.52731e-18)
(-0.00996423 -1.06928e-05 -8.52169e-19)
(0.020503 0.0208213 3.30503e-18)
(-0.00528654 2.24394e-05 -5.59235e-19)
(-0.00868897 0.000697836 -8.28963e-19)
(0.05486 0.0651166 -1.21474e-18)
(-0.00237893 2.42268e-06 9.26998e-19)
(-0.0349615 -0.0234046 -1.40799e-19)
(0.00565705 0.00827857 5.34443e-19)
(-0.0128546 1.7595e-05 -9.32051e-21)
(-0.00838254 0.0545075 5.64352e-19)
(0.000173513 -0.00374099 8.97627e-20)
(-0.0039801 0.000192639 4.8962e-19)
(0.000487052 0.00062572 -1.30358e-18)
(0.00299141 0.00934704 -4.73009e-18)
(-0.0012869 0.000251001 7.51853e-19)
(-0.099935 0.0743271 -1.50517e-18)
(-0.00705996 0.000357325 -8.1535e-19)
(0.00263323 0.0082442 -1.2368e-18)
(0.00208746 -0.000398856 -1.89635e-19)
(-0.0454536 -0.0427334 -2.04017e-19)
(0.000486311 0.000584355 1.17853e-18)
(0.00285729 0.00675889 -2.60442e-18)
(-0.000490042 0.00175959 -5.79923e-21)
(-0.00298946 0.000381289 3.12734e-19)
(0.0180483 0.00412392 -1.44325e-18)
(-0.00121048 -0.00013895 7.71109e-20)
(0.00392879 0.00904892 3.13415e-18)
(-0.00172647 0.000536107 -1.00341e-18)