/*--------------------------------*- C++ -*----------------------------------*\
| =========                 |                                                 |
| \\      /  F ield         | OpenFOAM: The Open Source CFD Toolbox           |
|  \\    /   O peration     | Version:  v2012                                 |
|   \\  /    A nd           | Website:  www.openfoam.com                      |
|    \\/     M anipulation  |                                                 |
\*---------------------------------------------------------------------------*/
FoamFile
{
    version     2.0;
    format      ascii;
    class       volScalarField;
    location    "150";
    object      p;
}
// * * * * * * * * * * * * * * * * * * * * * * * * * * * * * * * * * * * * * //

dimensions      [0 2 -2 0 0 0 0];


internalField   nonuniform List<scalar> 
10042
(
-0.00623916
-0.0441258
0.00886893
0.0079671
0.00550658
-0.061285
0.0281993
-0.00517431
0.000512824
0.0156904
0.00206713
-0.0430122
0.0105627
0.00306776
0.00751539
0.00300962
-0.0413517
0.00236995
0.00501469
0.0110589
0.0111317
-0.00514657
0.00790513
-0.0389324
0.00641756
0.000141966
0.0155769
0.000416169
-0.0504646
-0.0522955
0.00454834
0.00402434
0.000483376
0.000504488
-0.00601254
-0.00639352
0.00900544
0.00175404
0.00449359
0.000264725
-0.0536945
0.000535789
0.00457797
-0.0261055
0.00739824
0.00641853
3.40382e-05
0.00764718
0.0201693
-0.0449814
0.0030458
0.00681079
-0.0474958
0.00521576
-0.0339239
-0.365959
0.0108486
0.00161796
0.00849475
2.4158e-05
0.0201548
-0.0157567
0.0169875
-0.00307233
0.004823
0.00578432
0.0105919
-0.0095993
3.52397e-05
-0.00931888
-0.0126915
0.010166
0.00215194
0.00845676
0.00574858
-0.00882322
0.00423478
2.53564e-05
0.00386967
0.00444605
-0.0309956
-0.0457258
0.0054214
0.00597109
0.0134547
0.0247439
0.0103469
0.00924201
0.0043996
0.00436342
0.00776128
0.00738754
0.0162915
0.023703
0.00401231
0.00829401
-0.35477
0.0107854
0.00240779
0.00831099
0.00762921
0.0165793
0.00926069
0.00104984
0.00735068
0.00892476
-0.232063
0.00588809
0.0298838
0.00901436
0.00858058
0.0266819
0.0159103
-0.00285981
0.00448502
1.17825e-05
0.00576958
0.00463519
0.00179377
3.4192e-05
2.82768e-05
-0.065667
-0.0761091
0.00743496
0.00438037
0.00436299
0.00435436
-0.0441509
0.0282168
0.00593882
0.00135518
0.00565348
0.00413112
0.00639254
0.0271521
0.000662992
0.00993169
-0.191764
0.00760183
0.00478346
0.0166331
0.000876778
-0.198177
0.000451909
0.0123547
0.00172124
0.0135537
4.78391e-05
0.00966629
-0.0323742
0.00589868
0.00103765
0.00769026
0.0117266
0.00378365
0.0127089
0.0251837
-0.312752
0.00417786
4.23557e-05
0.00598696
0.000232457
0.00409644
0.00442244
0.00766433
-0.0320049
0.00209872
0.00254541
-0.00726851
0.00045224
0.00292275
-0.0502392
-0.136605
0.000414751
0.00575229
-0.108972
0.00681575
0.00164956
0.0055786
2.16949e-05
0.00772357
0.00895118
0.00835146
5.71842e-05
0.00155468
0.00460378
0.0102572
2.99529e-05
-0.109719
0.00311492
-0.0407355
0.011384
0.00139828
0.00867015
-0.0600884
0.00741408
0.0442146
0.00206121
-0.188905
0.00602009
0.0276619
0.0163311
-0.000256973
0.00027797
-0.00156526
0.00412836
-0.0192839
0.0116539
0.00858824
0.00650296
0.00258635
0.00022094
-0.00249511
-0.00387182
0.00840962
-0.00956926
0.000158589
-0.226981
0.00754653
0.021926
0.0230697
0.0029942
0.00524533
-0.00997731
0.00796988
0.0153097
0.00915016
0.00966936
0.0151521
0.00929324
0.00161268
0.00433553
0.00517979
0.00484835
0.00673672
-0.00607873
0.0089436
-0.297113
0.0116131
-0.0373525
-0.153829
-0.0182361
2.97932e-05
0.000343587
-0.0447383
0.0055644
-0.0155124
0.0115443
0.00780132
0.00540325
0.00687991
0.00134343
-0.0040248
-0.0191001
0.00942897
0.00880577
0.00322786
0.00929538
-0.384147
0.00733079
0.00455983
0.00203171
0.00672109
3.36131e-05
0.010538
-0.0196019
0.00483993
-0.000334593
0.00416082
0.00428926
0.00878603
-0.0188635
0.0033591
-0.0372906
0.00907439
0.00116003
0.00519572
0.00702535
0.00455935
-0.0624287
0.000427916
-0.00643118
0.0458391
0.00543385
0.010042
-0.0904891
0.00470353
-5.97952e-05
-0.00405679
0.00116603
0.0118065
0.00376384
0.00855512
-0.0123464
0.00491327
0.00281588
0.0114378
0.00943687
0.00880782
0.000124237
0.00793798
-0.00493581
2.1267e-05
-0.174902
0.00450576
-0.00687988
0.00335337
0.000292958
0.0125251
-0.00731022
0.00891984
0.00616682
0.00826651
0.00288706
0.00371647
-0.00281261
4.06644e-05
0.00137075
-0.038068
1.63228e-05
0.000450435
-0.0462539
0.00109083
-0.00880545
0.00278403
0.00853841
0.00252019
0.00544678
0.00924857
0.0115799
0.00408349
0.00858837
-0.00607527
0.0019519
-0.0265777
-0.00535411
-0.205718
-0.00971124
0.00137733
-0.0391238
0.0156009
0.012818
3.73433e-05
0.00278023
0.00623828
0.00152799
0.00346697
0.00608034
0.00372641
-0.249706
0.00657031
0.00432702
0.00359941
-0.000884847
-0.0252518
0.00234439
0.00923358
0.00526263
0.00836375
0.00031498
0.00885802
0.00895773
0.00796715
-0.0350946
-0.044503
0.00751986
0.00624443
0.00363794
0.0037156
-0.0622342
2.14051e-05
0.00621256
0.00339412
-0.000146018
0.0227889
0.00348809
0.00145769
-0.0721085
-0.0539947
0.0234756
0.00866199
-0.0964035
0.0148552
0.00545458
0.0128545
1.64184e-05
0.00598489
4.49023e-05
0.00464354
-3.90819e-05
0.00890947
-0.299736
0.0067667
0.00225792
-0.0525049
-0.00741372
0.00828854
-0.00524729
0.0100422
0.00548071
0.00685792
-0.0312868
0.000642443
-0.0285621
-0.335935
-0.000918082
0.0161731
-0.00146336
-0.12389
0.00876645
-0.0137111
0.0123874
-0.0147745
0.006981
-5.38869e-06
0.00484167
0.0133374
-0.0442305
8.08799e-05
0.00490927
0.00151459
-0.0566432
0.00148777
6.23156e-05
0.016226
0.00560762
0.0139889
-0.00906115
0.00725266
0.012284
0.00553497
1.82309e-05
0.0126654
-0.00667257
-0.00130303
0.0079994
-0.00301232
0.00170676
0.000357934
-0.366626
0.00056695
0.00360054
0.00909105
-0.086591
-0.0143133
0.000461142
-0.00209088
0.00964578
-0.00335425
7.48758e-05
0.000777455
0.0129199
0.0140674
0.0122768
0.00792089
0.00350039
0.00435473
-0.285441
4.19198e-05
0.000197369
0.0054475
0.00816334
0.00110798
0.00120732
0.00464757
0.00875202
-0.00646
0.00476855
0.00348979
0.00335371
0.0137377
-0.00015664
-0.103917
0.00603802
0.00404047
0.00201011
-3.85902e-06
0.000531755
-0.00242953
0.00860952
0.00229417
0.00715463
0.00676035
0.000971638
0.00626406
0.000133402
0.000711424
0.00207453
0.000150752
0.00458132
0.00631335
-0.0550631
0.00196851
0.00263644
0.00235246
0.0162623
-0.000855875
0.00246531
-0.0177703
0.0237823
0.0085427
0.00608306
-0.00821295
-0.0611728
0.0168394
-0.0196007
0.00354394
0.000727525
0.0137564
0.0136174
0.0109055
-0.0153369
-0.000774856
0.0077665
0.00905171
-0.0187277
0.00754523
-0.0973241
0.00815466
0.00844761
-5.79685e-06
0.0132477
-0.015182
0.00930649
0.00823295
-0.0236806
0.00244631
0.0125227
0.009191
0.00545072
0.0011432
0.0242071
0.00873186
-0.000182935
0.00430009
0.0083768
0.0084987
0.0122583
0.00140445
-0.0328432
0.00632479
0.0158075
-0.000597857
-0.00722337
0.00762324
0.00145329
0.00765277
0.00207594
-0.0113425
3.76646e-05
-0.0574209
0.0168819
0.000748356
0.00251086
-0.188961
-0.167718
0.00347268
0.00168362
-0.000210899
4.5336e-05
-3.79421e-05
0.000349156
0.00898096
-0.0088707
0.008338
2.82183e-05
-0.0946127
0.00788468
0.000380492
0.000319571
0.00510766
-0.0611874
-0.0266068
-0.000603605
-0.0117745
0.00899645
0.00305809
-0.000282757
0.000711111
0.00620628
0.00604247
0.00876895
0.00295543
-0.0585118
0.00749542
0.0131904
0.00683844
-0.00103995
5.27387e-05
0.0126055
-0.218565
0.000767489
0.00698254
0.00203069
0.00260427
6.72699e-05
-0.0458347
0.0060783
-0.00413719
0.00182311
0.0071392
0.00203495
0.015898
6.58881e-05
0.00391731
0.00345889
-0.0505782
-0.000105272
0.0061153
0.00258398
0.00933616
0.008259
0.00729867
0.000859421
0.00737375
0.0111017
0.00693648
-0.00100713
-0.000327753
-0.383932
-0.00852738
-0.00137099
0.00858508
0.00121036
0.0074949
0.0123412
0.00996817
-0.0435942
0.00550686
0.000957261
-0.00359762
-0.0179276
0.00904288
0.00861846
-0.0298985
0.00723945
0.0023748
0.0188367
0.00799677
-0.0126219
0.00491378
0.00863826
-0.000223664
0.00192789
0.00617176
-0.025036
0.00574982
1.5572e-05
-0.252295
0.00812961
0.0125509
0.000222205
0.00519543
0.00268649
0.00348053
-0.0288568
0.00491064
0.00619217
0.0136938
0.00846298
5.95462e-06
0.00436158
0.00489829
0.00515413
0.00194461
0.0112018
-0.0186825
0.00773862
0.00446365
0.00505162
-0.0210197
0.0103354
0.00554227
0.000122838
0.00360566
-0.0270662
-0.0655533
0.000841386
0.0091841
0.00928949
-0.390651
0.00196808
0.00366837
0.0129046
-0.00108553
-0.00772657
-0.028447
0.00482633
0.0023116
0.00491472
-0.000467738
0.00480515
0.000845288
0.00438862
4.41107e-05
0.00251645
0.0040584
-0.00605645
0.0381176
-7.91313e-05
0.00729913
7.14772e-05
0.00117838
0.00186378
-0.0220894
0.00373352
-0.0952386
0.00459846
0.00254433
0.000805717
0.00776672
0.0085433
7.30603e-05
0.00861474
0.00734774
0.00236155
0.00588646
0.00440601
0.00931549
0.0109187
-0.00453676
0.0096303
-0.308387
0.00654412
0.00365554
0.000708431
0.00145441
-0.0078497
0.00449153
0.00845869
-7.15903e-05
-0.0619675
0.00254744
-0.00147988
0.0153594
0.00454313
0.017659
-0.00257074
7.02749e-05
0.00218718
0.0183072
0.00631555
-0.0726374
0.00241118
0.00361268
0.00249956
0.0078938
0.00854038
0.00599716
0.0121622
0.000934701
-0.0170339
0.0246759
4.01769e-05
0.000155659
0.00969637
0.00878406
0.0064888
-0.0267038
0.00711612
0.00878415
0.00352239
0.00474295
0.0172962
0.014167
0.00984603
-0.00121003
-0.00115545
0.00406943
0.00388233
0.0143451
0.00338747
-0.00998128
0.00750381
0.0140344
0.000233009
-0.092371
0.00392289
0.0133576
0.00125692
0.00738587
0.0151384
0.000518106
0.0142605
0.00382374
0.0068717
0.00264019
0.00719802
0.00705543
0.0171601
0.00471526
0.00780242
-0.000334696
0.000555746
0.0046842
0.0069802
6.33659e-05
0.00112096
-0.00163478
0.00945064
-0.00199529
0.000764858
0.00854132
0.0017607
-0.0843189
0.00357325
0.00403289
7.73573e-05
-0.011777
-0.00102628
0.00797756
0.00462585
0.0178236
0.0225546
-0.244051
0.00390879
-0.0157149
0.0169902
0.00226481
-0.00109648
9.45435e-05
0.000221479
0.00724434
0.0124032
0.00732841
-0.146887
0.00333059
-0.0028927
-0.00630595
0.0036232
0.00448707
-0.0647606
-0.00978399
-0.0272856
0.0122999
-0.104636
0.00925426
-0.0363531
0.00851538
-0.00139443
0.00489121
0.0038235
2.56755e-05
0.00867865
0.00716335
-0.0546966
0.00430588
5.31268e-05
-0.123371
0.00850028
0.00819811
0.00384694
-0.0150152
8.96986e-06
0.00839611
0.00789767
0.004005
0.00813291
0.000575879
0.00518195
-0.0272222
0.00367369
0.00486027
0.00427787
-0.00517456
0.00489489
0.0168744
0.00145496
0.00106036
0.00820329
1.44654e-05
0.00397468
0.00864814
-0.198144
0.0121488
0.00498885
-0.0959192
0.000636726
0.00713733
-0.0297174
7.39537e-05
0.00841533
-0.13001
0.00587326
0.0116119
0.0072333
0.013209
0.00696297
0.0120048
0.00240149
0.00834032
-0.24783
-0.305868
0.00688147
0.0135586
-0.0223938
-0.0362024
0.0239551
0.000133131
0.00239594
0.0013128
0.00882643
-0.000817477
-0.00112511
0.00194459
4.28479e-05
0.00516477
0.00484146
-0.00329347
4.36739e-05
8.11563e-05
7.2034e-05
0.00800511
-0.0416809
0.00413547
-0.00015693
0.00286392
0.00727322
0.00614382
0.00736978
-0.209344
0.0106794
0.00114962
-0.000441751
0.00283256
0.00775782
-0.00150021
0.0120592
-0.00330652
0.00596684
0.00403319
-0.220094
-0.0112913
0.00771515
0.01059
-0.170715
0.00635213
-0.00405653
0.000750161
0.00862778
0.00526475
-0.0430365
-0.159436
0.00535121
0.00328049
0.00760884
0.00378155
0.00783079
0.00545995
0.00402716
0.000483942
0.00512347
0.00401647
0.00712573
-0.0314192
0.00339709
0.00236491
0.0135338
0.00569893
0.00157957
0.00500299
0.00827283
-0.0279391
0.017744
0.0072283
0.0149432
-0.00494337
0.00605311
0.000374124
0.00328202
0.0124744
0.00493475
0.00401264
0.00517192
0.00013098
0.00271834
-0.049756
0.00589092
-0.00356581
0.00860045
0.0119389
-0.000758774
0.00689603
0.00350071
-0.0506505
0.0256589
0.00826515
0.00558747
0.00521139
-0.00203577
0.00130872
0.00547669
-0.0095696
0.00607744
-0.000309095
0.00130261
3.39773e-05
0.00603066
0.00702273
-0.00243378
-0.175588
-0.00567899
-0.00110907
0.0100028
0.00545176
-0.0022731
0.0035036
0.00235631
0.012221
3.71113e-05
0.00348075
-0.000454234
0.00390008
-0.046436
0.000954096
0.00240092
-0.000344441
0.0117315
0.00391637
-0.000542225
0.0143946
0.00350519
0.00787506
-0.0412975
0.00408866
0.00100161
0.00675795
0.00995873
0.0016152
0.00543896
-0.00803546
0.0110276
0.00871032
0.0108184
0.00576359
0.00408272
-1.22447e-05
0.00658462
0.00638436
-0.064269
0.0125723
-0.0129798
-0.00339259
-0.00298845
0.0122453
0.00240964
0.00607512
0.000718809
0.000293176
0.00341414
0.00792071
0.00519257
0.00967161
-0.145954
-0.0112275
0.00820365
0.00949042
0.00227176
0.0245462
0.00263589
0.0105797
0.00284944
-0.00142564
0.00799561
0.00719563
-1.16501e-05
-0.0202824
0.0227102
6.96314e-06
-0.000303577
0.0016296
0.0038279
-0.00609904
-0.0626045
0.00506961
0.00338399
0.00483479
0.0118554
-5.28664e-05
0.00863523
0.00733331
-0.0014932
0.00383388
0.0081577
-0.00131077
0.000396538
-0.00218047
9.2216e-05
0.0124169
0.00645313
0.00890326
0.013439
0.0125928
0.00492337
0.00429362
0.0132915
0.000112432
0.0175719
0.00514986
0.00716126
0.00341395
0.000111883
-0.00460845
-0.00315397
-6.91234e-05
0.00263497
0.00511514
0.00863016
-0.00659855
0.00300061
-0.00111066
0.00230424
-0.00128745
-0.000731727
0.000154111
0.00735845
0.00151243
0.00923747
0.00136383
0.00751249
-0.0137231
-6.41303e-05
0.0112833
-0.000874124
0.00167455
0.00379333
-0.0494618
0.00016772
0.011479
0.00484002
0.000305143
0.00043085
0.00227809
-0.0579291
-0.146911
0.0084996
0.00186871
0.00061316
-0.0119849
0.00401477
8.67572e-05
0.00386755
-0.0120318
-0.00418043
0.00349159
0.010105
-0.0139123
0.00467196
-0.0800476
0.0188029
-0.00803607
0.00321282
5.30439e-05
-0.00141756
0.0173028
0.00908834
-0.00505243
0.00603718
0.0047192
-0.000240347
0.0015255
0.0171047
0.0115996
0.000239712
0.0137117
-0.00318177
0.00487039
0.00654871
0.00131096
0.00588416
-0.0061953
0.0137689
-0.0077159
0.00939303
0.0094161
0.0139474
-0.00412323
0.0167056
0.00445097
0.0117033
-0.123991
0.0065406
-0.00394346
0.000133963
0.00624118
0.00437661
0.00296751
0.00621495
-0.00820755
0.00855911
0.00614157
0.00625331
-0.00485639
0.0055324
-0.00441226
0.00174181
0.0059475
0.00179573
0.000293673
0.0151522
0.000170681
-1.51173e-05
0.00283041
0.00140625
4.14318e-05
0.00989515
0.00823483
-0.00876778
0.00718185
0.0014395
0.00666792
0.0084641
-0.267238
-0.00889015
0.0094239
0.00605075
-0.000163911
-0.00694361
0.0034604
-0.00115288
0.00334512
0.00859234
0.0121959
0.000332153
0.00378643
0.00129084
0.0053505
0.00309321
0.0109128
-0.0104479
0.0172897
-0.000316998
0.00629099
1.49446e-05
0.00503914
8.75522e-05
-0.0472604
-0.00594974
0.0174496
-0.021007
0.0095791
-0.00117172
-0.00244762
-0.0106422
0.0039656
-0.0118214
0.00555781
0.00476568
0.0180115
0.00579358
0.00805687
0.0136503
0.0111674
-0.00108101
0.00601092
0.00697408
0.00833251
-0.0121932
0.00214965
-0.0153654
0.00848293
0.00611889
0.00520899
0.00856855
-0.00560256
0.00807189
0.000533802
0.00200343
0.00916771
-0.0146892
0.000566519
0.00165728
7.00443e-05
0.000361659
0.0248884
0.0123024
0.0104188
-0.00013645
0.00356894
-0.0171511
0.011053
0.000423973
0.00391996
0.00132151
0.00515279
8.6447e-05
-0.128079
0.00696597
-0.0684915
0.00396907
0.0031877
0.000437853
-0.00165025
0.00532459
-0.00054381
0.000386401
0.00502669
0.00924448
0.0070228
0.00600697
-0.000698231
0.00638128
0.0071898
0.00686985
0.00464733
-0.000288081
-0.163161
0.00203331
0.00841418
0.00467453
-0.00026847
0.0115082
0.00403782
0.000377364
-0.00181868
-0.063996
0.00119044
-0.000571817
0.00487401
0.00916765
0.00577886
0.00327927
0.00911027
0.00873314
0.00443073
0.00408936
0.00620768
-0.0017104
-0.0790103
-0.397493
0.000556186
0.00673576
0.00374051
-0.0874233
0.00226566
0.011177
0.00749905
0.00239402
0.00819746
0.00725857
-0.0415828
0.00626863
-0.0055983
0.00293171
0.00849864
0.00842747
0.00520767
-0.00485322
0.00850662
0.0157287
0.00705933
0.00399405
0.00203577
0.00412769
0.016709
-0.0159418
0.00290294
0.00813289
-0.00469897
0.00292963
0.00642538
0.00705971
-0.00295563
0.00837693
0.00446321
0.00204549
0.00593212
0.0166453
-0.000898366
0.00345053
4.91462e-05
0.00770128
0.011778
-0.0308159
0.00655988
0.00331672
-0.0992355
0.00794487
-0.0673498
-0.0157931
0.00672491
-0.0949301
0.0123314
0.00382289
0.0132847
0.0142929
0.00832648
-0.00176814
0.00541471
-0.209383
-0.000338059
-0.388686
0.00248668
0.0133188
0.00827115
0.00152533
0.00924871
0.00518252
0.00100916
-0.000434836
0.0243266
0.00581196
0.0155972
-0.0150256
-0.340519
0.0159791
-0.00122856
-0.000141946
-0.292641
7.0591e-06
-0.00239816
-0.0110641
-0.294593
0.0127824
-0.00146888
-0.162909
0.000434622
0.00832575
0.000579245
0.0210967
0.00534556
-0.08774
0.00216605
-0.029515
0.00759597
-0.000609301
-0.000520833
0.00796359
0.00038857
-0.000803301
-0.0759189
-0.209736
0.00287294
0.00676689
0.00885713
0.00613062
0.0170543
0.00870977
-0.0312975
-0.00391159
0.00917958
0.000427949
-0.00607182
0.00692213
0.00107247
-0.00318889
0.00467642
-0.0257932
0.00536206
-0.0733127
0.00669242
0.000459613
0.000590689
-0.00575452
0.00438423
-0.0767894
-0.0104011
-0.115834
0.0207325
-0.00565454
0.000342803
-0.00145037
-0.00251448
-0.00340895
0.0154194
0.00359785
0.0269605
0.00122943
-0.00131534
0.00868264
-0.0731047
0.00740933
0.0126437
-0.0356429
0.00377398
0.00739544
0.00567794
2.82471e-05
0.0026015
0.005917
0.00639282
-0.0390622
0.005251
-0.00101968
0.0169686
0.0110709
0.000261047
-0.00759071
-0.000420603
0.00715571
-0.00777745
0.00480862
0.0116466
-0.000206278
-0.349099
-0.00833261
0.0046597
0.0112632
0.0113197
0.0179065
0.0122685
-0.0026314
-0.00601209
0.0119019
0.00844185
0.00791431
0.0232189
0.0046301
0.0126045
0.00050296
0.00669236
0.00761653
0.00512409
-0.0287447
0.00650818
0.00135223
0.00611367
0.00585892
0.000299851
0.000122175
0.00705597
0.0178017
-0.000915652
0.0046797
0.00429199
0.00742423
0.0138124
0.00797211
0.0146642
0.0117263
0.00769139
0.00290187
0.000127296
0.0254409
0.0132608
0.0143227
0.00666827
0.00830738
0.00735171
0.0118498
0.0153312
0.00726129
0.00764884
0.00241829
0.00691912
-0.00822053
0.00907344
0.0129917
0.0063758
0.00661001
0.00201322
0.00996393
-0.109143
-0.00109346
0.00854369
-0.0334654
0.00589586
-0.0040661
0.00688118
0.00788172
0.00415472
-0.0128991
0.00871487
-0.000687992
0.00820451
-0.0913891
-0.00597756
0.00165911
0.00850971
0.00673416
0.00807146
0.00842101
0.00940603
7.90752e-05
0.00870907
0.00673444
0.00379461
0.0091972
0.0068297
0.00297952
0.0073908
-0.0109251
0.00799323
-0.14702
0.00559019
0.00808747
0.0192
0.00762284
-0.203652
0.0030406
0.00832066
0.00881697
0.00937102
-0.00533138
0.00587855
-0.0685697
0.0119773
0.00376975
-0.0050402
0.00287446
-0.00585599
0.00808271
0.00248971
2.3028e-05
-0.280995
-0.186872
0.00575884
0.00661671
0.0100163
0.00506618
0.00504629
0.0126698
0.00400005
0.008702
0.0108281
0.00816693
-0.0210708
0.00165817
0.00603323
0.0164434
0.00862846
0.00444487
0.00655841
0.00892824
0.00712994
-0.0271728
-0.352768
0.00334491
0.00945399
0.00786745
0.00649021
0.017384
-0.401381
0.0189415
0.00193502
-0.00973442
0.00543961
0.00674567
0.0179818
0.00469753
0.00887284
0.00250631
0.00610423
0.000133272
0.00456206
-0.0029576
0.00061891
0.00895733
0.0199314
0.0046671
0.00401665
0.0074742
0.0123091
0.00101518
0.00374204
0.000773764
0.00868964
-0.170082
0.00285325
0.00920561
0.00896987
0.00453678
0.000220783
0.00542146
9.01009e-05
0.00615108
0.000684782
0.00796083
0.00260611
-0.000118474
0.00845081
-0.0880209
0.00568978
0.00862813
-0.00533317
0.00914891
0.00956873
0.00179581
0.00904267
-0.0276251
0.0045857
0.0045664
0.00686299
0.00260088
0.00256259
0.00386431
0.00761948
0.00631672
0.000952179
-0.0068426
-0.317459
-0.00659384
-0.0139344
0.0120306
0.00321917
0.00939651
-0.00383061
0.0110052
-0.0461471
0.00903427
0.00412707
0.00110818
0.00391297
0.00447062
-0.0481252
0.00123178
0.00659051
0.0122366
0.00907108
0.00460157
0.00553268
0.00302758
0.00810057
0.00435874
0.000346689
-0.000309661
0.00724039
0.00409176
0.00817971
0.00751934
0.00659023
0.00626858
-0.207971
0.003422
0.00597291
-0.00952056
-0.0479729
0.00879346
-0.009917
0.00777305
0.00318266
0.00442479
0.00878891
-0.000368328
0.00542834
0.00908381
0.00930156
0.00892429
0.0188869
0.0096409
0.00749342
0.0129868
0.00834324
0.0169103
0.000248577
0.000541843
0.0192552
0.00644871
-0.0471138
0.00714317
0.0187642
0.0387796
0.00407989
0.0213742
-0.00433445
0.00868009
0.00827996
0.0061056
-0.0312824
0.00798719
-0.00355057
-0.000344799
-0.000119494
0.00995313
0.0176934
0.0118624
0.00177879
0.00209373
0.00763715
0.00273201
0.0240006
0.0113165
-0.0083112
0.00120666
0.0133305
0.000840069
0.0113171
0.00817388
0.0129012
0.00912382
0.0114479
0.00235404
0.00783297
-0.0992456
0.00880862
0.00189824
0.0022006
0.00658406
0.000503843
0.00351978
0.00372241
0.00789445
0.00768324
0.013215
-0.000647686
-0.00835709
0.00734668
0.00660207
-0.05867
0.00722474
0.00683194
6.4204e-05
0.00928501
0.00644937
0.00542217
0.00699194
-0.0123335
0.00196906
0.00324895
-0.000289597
0.00902373
0.00880867
0.023363
0.00299809
0.00369852
0.00712219
-0.0091386
0.00278271
0.00731892
0.000197639
0.0168746
0.00288562
-0.0231055
-0.115558
0.00404613
0.0119085
0.00633127
0.00957006
0.00640569
0.00403448
0.0013494
0.00960192
0.0089135
-0.0132419
0.00860766
0.00882606
-0.0663578
0.00999952
-0.0451335
0.00068041
-0.0671549
0.000130208
0.00702431
0.00297126
0.0112266
-0.0060108
0.00370962
-0.000208602
0.019664
0.00811622
0.00436296
0.000579025
0.0129218
0.00897974
0.00276192
0.0090026
0.00530126
-0.00253822
0.00777036
0.00407969
0.00464977
0.00692076
0.00327524
0.000492521
0.00816221
0.00630606
0.00858369
0.00102241
0.00602045
0.00435497
-0.000408597
-0.0480101
0.00246294
0.00405176
0.000207202
0.00872956
0.00158384
0.012504
-0.0413541
0.0067539
0.0170808
0.00144207
-0.111827
0.00784854
0.00988154
0.00879275
0.0082847
0.00433596
-0.000181263
0.00894751
0.00901026
0.00520877
-0.000940262
0.00355221
0.00939965
0.00859084
0.00231178
0.0126466
-0.0124526
-0.00100979
0.00219646
0.0182764
0.00899915
0.00577626
0.00846228
0.0087838
-0.0779678
0.00802222
0.00335681
0.0207223
0.012285
-0.00937593
0.0223288
0.0105507
-0.00136136
0.00899291
0.0119495
-0.0123777
-0.154279
0.00868963
0.00269983
0.000754248
0.00870386
0.00882891
0.00531707
0.00602365
0.00482712
-0.0384425
0.00243515
-0.0619031
0.00851705
0.00411161
0.0123358
0.0208328
0.00448062
-0.000984529
0.00453368
-0.000949166
0.0121832
0.00669231
0.0128222
0.00751382
0.00163322
0.00874207
0.00287468
0.0166103
-0.0155622
-0.126058
0.0204965
-0.000350827
0.0023385
-0.0457702
0.00452587
0.00919265
0.00502986
0.00888358
0.00890222
0.0106352
0.00857093
-0.0113306
0.00818979
0.0129034
-0.00116763
0.0003335
-0.0800603
0.0038444
0.00800892
0.00957683
0.00896644
0.0085542
0.00823732
0.00776974
-0.0344946
0.00897457
0.00859707
0.000699493
0.00568689
-0.00242983
0.00626561
0.00904563
0.00223719
-0.0261627
0.00711898
0.00727624
0.00697055
-0.000734437
0.0084625
0.00452434
-0.00818352
-0.000185919
0.00666068
0.0066951
0.00949331
0.0117122
0.012489
0.00875862
0.0115122
-0.00690903
0.0080053
0.0119032
-0.106244
-0.119242
0.0157827
0.000955088
0.0036718
0.0111108
0.0120437
-0.0681074
0.0117281
-0.0286336
0.00230379
-0.00141723
0.00262356
-0.0402695
-0.00236681
0.0030535
-0.00863965
-0.110664
0.00974527
-0.0107115
0.00280402
0.00851054
0.00665861
0.0089896
0.00606331
0.00683045
-0.00317323
0.00700433
0.0085347
0.0129735
-0.00106821
-0.0311122
0.00494983
0.00366502
0.00837699
0.0120191
0.00383494
0.00535378
0.0031317
-0.000219176
0.0116165
0.000146582
0.00977743
0.00884196
0.00855181
0.0029312
0.00648004
0.00953702
-0.000239015
-0.0416406
0.0169108
-0.00770383
0.00288409
0.0137141
-0.0132267
0.00307901
-0.00131932
-0.385323
0.000207167
0.00293017
0.00715681
0.00873293
0.0165998
0.00857518
0.0081681
0.00581814
0.00945497
0.0113716
0.00387338
0.00701184
0.00356593
-0.000319412
-0.00718601
0.00933278
0.00636704
0.0059075
0.00390829
-0.0203061
-0.0771731
0.00333505
0.00673203
-0.42686
0.00919733
0.00809126
0.0034583
0.0113344
-0.0152591
0.00683424
0.00498268
-0.0175119
0.00940099
0.00438849
0.00874983
0.000501688
0.00424112
0.00886405
0.0132546
0.00900538
-0.364331
0.00853269
-0.404911
-0.0349634
-0.0280764
-0.114452
0.000251063
0.00574673
0.0092328
0.00821119
-0.130454
0.0112017
-0.0753727
-0.034874
-9.21381e-05
0.0102656
0.0114374
0.00864143
-0.0239272
0.0059712
0.0123199
-0.0803269
-0.0309685
-0.0189705
0.008497
0.00917649
-0.10247
0.00304313
0.00231911
-0.0140383
-0.0644627
-0.0492672
-1.35143e-05
0.00363387
0.00593485
0.00886104
0.0011911
0.00778366
-0.00287025
0.00868447
0.0090397
0.00349215
0.000538913
0.00299737
0.00845722
0.00883206
0.00612893
0.00813062
0.00471613
0.00351004
-0.028505
0.00873063
0.00884018
0.0104617
-0.0436958
0.0099805
0.00409355
0.00249905
0.00302302
-0.0207305
0.0204081
0.00831755
0.00466934
0.00688861
0.00862465
0.00653386
-0.00580128
0.00103587
-0.0916918
0.00830436
0.00284495
0.00638306
0.0161298
0.00870362
-0.000175259
-0.00271782
0.0085965
-0.15889
0.00877008
-0.293944
0.00924443
0.00249438
0.00380788
0.00420241
0.00630126
0.00290672
2.34633e-05
-4.58451e-05
-0.150117
0.00820637
0.00386923
0.0207145
0.00073174
0.00888838
0.00706317
0.00818845
0.00857353
-0.0469005
0.00738803
-0.000150155
0.0049115
0.00859571
0.00848906
-0.055721
-0.00727564
0.00860206
0.00578508
0.00487613
-0.00120518
0.00699855
0.00967698
0.00923784
0.0193876
-0.000142574
0.0103715
-0.00322123
0.0080645
-0.012067
0.00858241
0.00839934
0.00712037
0.00807512
0.0035882
0.00838681
-0.0362185
0.00366608
0.00399436
0.00297823
0.00446936
0.00414849
0.00696717
0.0181271
0.00812435
0.00827188
0.00208593
0.00954547
-0.0058428
2.74263e-05
0.00743341
0.00146092
-0.154495
0.00654849
-0.0372782
0.0218725
0.0074175
-0.0130214
-0.159387
-0.0039475
-0.0307996
-0.000279604
0.00622584
0.00688039
-0.0123555
0.00841624
0.00749188
0.0111227
-0.000340478
0.00879563
-0.17073
0.00491979
0.00820563
-0.0883128
0.00728443
0.00855016
-0.340938
0.00871651
-0.0218035
0.00249571
-0.0195568
0.012371
-0.0256108
0.00879121
0.00524206
0.00749938
-0.149499
-0.0494908
-0.0344816
-0.0626016
0.00393149
0.00841139
-0.0393703
-0.0516087
0.00997361
0.000483597
0.00579445
0.00724604
-0.299758
0.0118413
0.00180803
0.0080547
0.00521406
0.00418206
0.00245672
0.00802919
0.00939487
-0.0185627
0.00707356
-0.129614
0.00329357
0.00793872
0.00924504
0.00859779
0.0081559
0.00830833
0.00347881
0.00363081
0.0111481
0.00160478
-0.0130508
0.00801948
-0.0261588
0.00348927
0.00588392
0.000648878
0.00890688
0.000920944
-0.0951141
0.00600075
0.00584445
0.00954156
-0.00896048
0.00994781
-0.0126439
0.0037759
0.00727987
0.00820028
-0.00989691
0.00508875
-0.00220394
-0.262903
0.00692289
-0.0151408
-0.0164403
0.00628404
0.00754502
0.00481072
0.0132693
0.0141929
-0.138597
-0.243078
0.0148729
0.00626105
0.00647805
0.00825575
-0.00771307
0.00369745
-0.00292663
0.00638133
0.00214033
0.00293983
0.00629946
0.00715466
-0.0026287
0.0108437
-0.0211022
0.00740477
0.00428766
0.00857197
0.00812295
0.008357
0.00280727
0.00901317
0.0110776
-0.000107246
-0.0408422
0.00832833
0.00527387
0.00676052
0.00855007
-0.000904404
0.00122843
0.00738267
0.00898322
0.0085256
0.00912883
0.00847532
0.00356553
0.00770983
0.00195696
-0.00415341
-0.0118096
0.0153841
0.00558671
0.00694153
0.012328
0.00736868
0.00562085
-0.0446365
0.00452736
0.000607653
0.00568974
0.00644836
0.00838664
-0.219946
0.00587165
0.00719894
0.00582716
0.0024576
0.00590743
0.000183738
0.00357398
0.00565141
0.000543246
0.00610824
0.00468503
0.0106238
-0.00990117
0.0041244
0.0032633
0.00590464
0.0069905
0.00570633
0.00195964
0.00958403
-0.0317053
-0.00117039
0.00751395
0.00380924
-0.00100838
0.00455406
0.00397455
0.00644251
0.00157017
0.00548752
-8.05731e-05
0.00611652
-0.000105612
0.00858874
-0.031152
0.00626404
0.00918751
0.016501
0.00237178
0.00490269
1.92538e-06
0.000200908
4.60684e-05
-0.00460461
0.00655019
-0.000424108
0.00383815
0.00746665
0.00658283
0.0076438
0.0186011
0.0014414
0.0147186
0.00416201
-0.185724
0.00707655
-0.0330908
0.00162181
0.0037503
-0.00105082
0.0113517
-0.0107321
0.00843785
-0.0411581
0.00813344
0.00371438
0.000875331
0.015546
-0.00715828
0.00169401
-0.0343793
-0.257355
0.00208378
0.00928184
0.0103392
0.01323
0.000155467
0.00577285
0.00445692
0.00825268
0.00749227
-0.0350617
0.00508975
-0.0956217
0.00968085
-0.0538025
0.00360078
0.00256755
0.0132863
0.0127626
-0.245103
-0.185931
0.00533938
0.00640382
0.00466047
0.00441663
0.0038335
-0.00345209
0.0056101
0.00473327
0.00469966
0.00700407
0.00726939
0.00189628
0.00465818
0.00747512
0.00493519
-0.0261169
-0.0808151
0.0056768
0.00835897
-0.00129756
0.00280631
0.0107575
0.00675156
0.00640551
0.00591744
0.00630788
0.012221
-0.0418709
0.00458723
0.00439395
0.00600346
0.0110275
0.00387366
0.00817738
0.00406829
-0.000886189
0.00241607
0.00507637
0.0129912
0.00145478
0.00497642
-0.140971
0.00418073
0.00428042
0.00394587
-0.041497
0.0064091
0.0048333
0.0026114
0.00893445
0.00432161
0.00408569
-0.0941341
-0.128676
-0.0361576
0.00943106
0.00424338
-0.0117823
0.0079188
0.00277505
0.00521172
-0.000585775
0.00929935
0.0100066
0.000656544
0.00411543
0.0123107
-0.00372568
0.00432412
-0.00740753
0.00564013
-0.0386341
0.00539463
8.50502e-05
0.00547963
-0.046034
0.0026877
0.0079128
-0.0674377
0.00564121
0.00266913
0.00963957
0.00316022
0.00173348
0.00559245
0.00852875
0.00627564
0.0103321
0.000384876
0.00691193
0.00414173
0.00871201
0.000831582
0.0177725
0.00024039
0.00435413
-0.00264076
0.00127358
0.00555745
-0.0397836
-0.071982
0.00888757
0.00474739
-0.00878851
0.0120408
0.00616452
0.00416587
0.00508841
0.0049035
0.00589226
0.00463877
0.00379058
0.00599407
-0.0265091
-0.0717136
0.00548934
0.00251579
0.0043519
0.00514485
0.00507214
0.00647678
0.00866936
-0.038328
0.00837988
0.00443497
-0.0244862
-0.00163733
0.0194522
-0.0300154
0.00445335
0.00466532
-0.00373244
-0.00322597
0.0101739
0.0044871
0.00308628
-0.0362033
0.00562135
0.00496948
0.00304587
0.011686
0.00673204
-0.000952869
-0.0108968
0.00372842
0.00436221
0.00456137
0.00392532
0.00133906
0.00645089
0.00127836
-0.126412
0.00950572
0.00445549
0.00484701
-0.000336009
0.00423441
0.00514597
-0.00208088
0.00552388
0.00744316
-0.00635488
0.00459554
0.00583243
0.0125989
0.00503744
-3.75121e-05
0.00567016
-0.0488403
0.00512377
6.1777e-05
0.00369392
-0.00383758
-2.89608e-06