/*--------------------------------*- C++ -*----------------------------------*\
| =========                 |                                                 |
| \\      /  F ield         | OpenFOAM: The Open Source CFD Toolbox           |
|  \\    /   O peration     | Version:  v2012                                 |
|   \\  /    A nd           | Website:  www.openfoam.com                      |
|    \\/     M anipulation  |                                                 |
\*---------------------------------------------------------------------------*/
FoamFile
{
    version     2.0;
    format      ascii;
    class       surfaceScalarField;
    location    "150";
    object      phi;
}
// * * * * * * * * * * * * * * * * * * * * * * * * * * * * * * * * * * * * * //

dimensions      [0 3 -1 0 0 0 0];
oriented        oriented;


internalField   nonuniform List<scalar> 
14885
(
0.835575
-0.546961
-0.288571
0.200186
-0.372655
0.172656
0.495511
-0.310196
-0.185021
0.413499
0.0615624
-0.474721
-0.678407
0.372887
0.306714
0.324921
-0.484209
0.159278
0.386028
-0.198577
-0.187086
-0.312947
-0.165809
0.47881
0.259481
0.347911
-0.607219
0.133696
-0.311173
0.177607
-0.608422
0.39842
0.209994
0.340523
-0.140192
0.358335
-0.171608
-0.186507
0.733783
-0.270516
-0.463018
0.144392
-0.418907
0.274419
0.242013
0.491997
-0.316976
-0.0854869
0.402405
-0.382331
-0.226109
0.175772
-0.42672
0.251251
0.186919
-0.444278
0.257421
0.137569
0.220968
0.501014
0.334616
-0.0771188
0.491316
-0.502316
0.168994
0.333278
0.242592
-0.590509
0.348443
0.308831
-0.648261
0.339512
-0.221046
0.355089
-0.4506
-0.177448
0.628158
0.437083
-0.112192
0.522134
-0.439782
-0.0823041
-0.102611
0.523009
-0.419824
-0.195601
0.292159
-0.0964845
0.255818
-0.557368
0.301817
0.5435
-0.287362
0.178657
-0.491589
0.266761
0.180378
-0.447164
0.368426
-0.671983
0.305164
0.307835
-0.613076
0.305393
0.380548
-0.482507
0.445885
0.171127
-0.617018
0.334804
0.187386
-0.297627
0.332818
-0.0448171
-0.287919
-0.31836
-0.0835613
0.402266
-0.259511
0.564991
-0.305028
0.470798
-0.228143
0.569889
-0.642148
0.0723007
-0.328551
0.472723
0.369111
-0.159177
-0.209706
0.135405
0.21947
-0.354676
-0.000580504
0.333517
0.661595
-0.424017
-0.236894
0.120084
0.378347
-0.202374
-0.208764
-0.111476
0.320366
-0.183412
-0.00322038
0.186771
0.343413
-0.2057
0.189462
-0.580209
0.391019
-0.2316
-0.183594
0.415366
-0.332723
-0.359188
0.691914
0.170292
0.199083
0.116066
0.159235
-0.27503
0.246384
-0.291074
-0.329793
-0.178876
0.508701
0.266592
-0.593836
0.327401
0.258722
-0.565552
0.307184
0.156374
-0.41572
0.25939
0.575669
0.00639881
-0.581993
0.613629
-0.549841
-0.0637451
-0.0296854
0.605435
-0.30635
-0.00897199
0.315469
-0.534995
0.333255
0.201536
0.695956
-0.403535
-0.292252
-0.437843
0.206413
-0.286873
0.546142
-0.306825
-0.557852
0.0835887
0.474463
-0.0593945
0.62933
-0.501463
-0.0562061
-0.299057
-0.127373
0.0548829
-0.373049
-0.167543
0.572675
-0.0502398
-0.521296
-0.37487
0.644349
-0.269074
-0.117027
0.352379
-0.235068
0.303039
-0.0105613
-0.292261
-0.269108
0.425596
0.261943
0.233857
-0.27634
-0.262202
0.538378
-0.577697
0.392354
0.185465
0.0826554
0.197966
-0.28041
-0.4211
0.00216099
-0.0608533
0.307364
0.322987
-0.0197091
0.254444
-0.582883
0.328427
-0.384683
-0.106183
0.490838
0.144335
-0.0544838
-0.228758
-0.243242
-0.208061
0.451373
0.25213
-0.445014
0.192967
-0.219126
0.302046
0.266833
0.0473605
-0.313871
-0.451133
0.349732
0.101981
0.24947
0.0038491
-0.248055
0.386574
-0.138289
-0.218581
-0.247419
0.466026
0.141624
0.149702
-0.291224
0.306818
-0.593187
0.172419
0.213934
-0.456539
0.23821
0.298252
0.165995
-0.464205
0.365996
-0.193254
-0.126017
0.393095
0.184669
-0.514442
0.594139
-0.327468
0.667508
-0.413595
-0.253904
0.645321
-0.278942
-0.366145
-0.324321
0.652719
-0.327577
0.546287
-0.356508
-0.670796
0.322763
0.348038
0.266143
-0.598859
0.19564
-0.301468
0.106069
-0.0485249
0.244336
-0.581415
0.322104
-0.466825
-0.110784
-0.360199
-0.270322
0.630604
0.100634
-0.4604
-0.292458
0.0838175
0.167757
0.0597885
-0.227489
0.244681
0.400866
-0.309186
-0.27632
0.585669
0.163247
0.313623
-0.476677
-0.666845
0.31875
0.348208
-0.433375
-0.00884284
0.442386
0.195824
0.17043
0.35418
-0.138662
-0.215291
0.166167
-0.427403
0.26132
-0.266957
-0.0228622
0.241544
0.146969
-0.388167
0.212708
-0.455864
0.343565
-0.182994
-0.160409
-0.363481
0.660886
-0.29724
-0.149247
0.290994
-0.656115
0.205631
0.37587
-0.0787425
-0.296969
0.602586
-0.294644
-0.351601
0.234887
0.199112
0.414575
0.267589
-0.431845
0.164647
0.444431
-0.111233
-0.333058
-0.253926
0.560921
-0.312552
-0.310223
0.622859
0.101332
0.238269
-0.339665
0.208822
0.0472659
-0.255944
0.596758
-0.34233
0.357049
0.018999
-0.1034
0.271227
0.0187409
-0.202029
-0.194167
-0.472557
0.486477
-0.17759
0.0240612
-0.535913
0.512711
-0.15856
0.604427
0.0993477
0.255068
-0.546433
0.438505
-0.22643
-0.211678
0.31287
0.131763
0.396669
0.299494
-0.0755303
0.325104
0.52809
-0.261296
-0.163856
0.480365
-0.316258
0.268194
-0.602118
0.333895
-0.285712
-0.154037
-0.353187
0.23892
0.114479
0.379972
0.228438
0.150084
-0.13686
-0.21609
0.57531
-0.476316
-0.0985273
0.324099
0.278604
0.526564
-0.363027
-0.343169
-0.20662
-0.16483
0.406863
-0.103542
0.290321
-0.186561
-0.185568
0.671527
-0.325078
-0.346492
0.162444
-0.579643
0.417237
0.332764
-0.286479
-0.0461265
-0.363866
-0.171327
0.587352
-0.167459
-0.419894
-0.29058
0.380774
-0.0900695
-0.306545
-0.28671
0.593611
-0.341494
0.19297
0.150591
0.274233
-0.58314
-0.309419
0.206015
0.0655697
0.225067
-0.29046
-0.095053
-0.326108
-0.162434
0.000460523
0.162017
0.298778
-0.60902
0.310361
-0.100298
0.00705821
0.0932463
0.134461
-0.508969
0.230152
-0.0165327
-0.213554
-0.224561
-0.093415
0.318142
0.298275
-0.456783
0.158609
0.326793
0.191148
-0.517982
0.223558
-0.431524
0.58289
-0.26409
-0.586766
0.434196
0.152443
-0.112588
0.321646
-0.220705
0.518771
0.00106674
-0.43429
-0.271039
-0.189873
0.516648
-0.112863
0.411156
0.343627
0.12197
-0.465426
-0.569756
0.0658902
0.505679
0.580831
-0.631533
0.050787
-0.651212
0.414762
0.236476
0.522351
-0.217783
-0.304237
-0.413515
0.622209
-0.20828
0.290007
0.119781
-0.166885
0.0471478
0.596936
-0.328675
-0.111648
0.23147
0.551199
-0.34554
0.4072
-0.28525
-0.49141
0.285038
0.206632
0.415609
-0.249223
0.42402
-0.197137
-0.226326
-0.379122
-0.0716396
0.591374
-0.267146
0.515554
-0.414605
0.0611669
0.271797
-0.48542
0.161741
0.446288
0.129525
0.362318
0.129842
-0.393272
0.263799
0.0285342
0.115822
0.249856
-0.328453
-0.394843
0.563752
-0.54212
0.132428
0.40991
0.345874
-0.622785
0.277134
-0.347509
0.613658
0.401235
-0.55979
-0.163799
0.393148
-0.22918
-0.478538
-0.198677
0.680499
-0.334373
-0.196534
0.446522
-0.193711
0.294926
-0.156209
0.530041
-0.368958
0.12117
-0.301614
0.576068
0.0154996
0.361551
-0.37687
0.37182
-0.249928
-0.12168
-0.268423
0.536678
0.405134
-0.275041
-0.47973
0.173418
0.187563
0.277685
-0.464734
0.0393938
-0.0938558
0.631279
-0.239211
-0.391729
0.608632
-0.216166
0.636824
-0.326802
-0.309751
0.28322
0.378997
-0.522117
-0.119985
-0.283945
0.17859
0.193546
0.380139
0.228613
-0.349468
0.365082
0.743087
-0.445299
-0.297749
0.494326
0.0213995
-0.50421
0.163623
0.340412
-0.186034
0.321736
-0.297399
-0.26692
0.564586
0.310881
-0.319705
0.488053
-0.300099
0.238409
-0.562339
0.324195
0.117366
-0.382899
0.265404
0.255224
-0.552795
0.298171
0.29275
0.450372
0.287669
0.341829
-0.519138
0.646215
-0.422054
-0.223902
-0.0216729
-0.14072
0.397796
-0.280266
-0.0669303
0.559272
-0.488524
-0.00336781
0.182352
-0.178993
-0.561881
0.321665
0.240424
-0.370841
0.541919
-0.171011
0.68844
-0.265494
-0.42288
-0.489707
0.177205
0.138117
0.19845
-0.33637
0.583942
-0.287626
-0.295931
-0.572795
0.0452935
0.529408
-0.527305
-0.0202777
0.547773
-0.213553
-0.588248
0.169249
0.419049
0.224897
-0.355282
0.130847
0.126575
0.289314
-0.314105
-0.190234
-0.426274
-0.224913
0.385376
-0.11305
0.0921813
0.495168
-0.185242
-0.356678
-0.385738
-0.175985
0.267141
-0.150847
-0.24298
-0.337521
0.580808
0.607527
-0.206293
-0.127032
0.352232
-0.0372842
-0.489916
-0.13945
0.508739
-0.451713
0.518588
-0.0668126
-0.56332
0.178828
-0.455303
-0.132906
0.28568
0.298649
0.301268
0.387234
-0.485804
-0.036274
-0.344558
0.507013
-0.231512
0.614739
-0.383182
0.397439
0.270073
-0.54506
0.574633
-0.0295233
-0.030123
0.341186
0.545979
-0.307265
0.25114
-0.540446
0.289308
0.255551
0.319934
-0.575469
-0.549339
-0.0186423
-0.254264
0.579336
-0.324806
0.223867
0.302887
-0.266359
0.327106
-0.188792
0.305605
0.277316
0.271693
0.218717
-0.490648
-0.583345
0.0364381
-0.562884
-0.000680141
0.563831
-0.41039
-0.176512
-0.70327
0.437868
-0.234192
0.32108
-0.0866519
-0.303599
0.554751
0.294925
-0.596206
0.481863
-0.168679
0.13057
0.213146
-0.339441
0.138856
0.200717
0.262531
-0.610035
-0.290829
0.600284
-0.309255
-0.0126822
0.549596
-0.536357
0.296796
0.294702
-0.284019
-0.271366
0.555494
0.477028
0.0445723
-0.520896
0.539085
-0.249403
-0.289316
0.425044
-0.26528
-0.159937
-0.316368
-0.26652
0.245555
0.293892
-0.53274
-0.0292842
0.562109
0.344736
-0.185277
-0.601627
0.347545
-0.205266
-0.285851
0.573629
-0.259267
0.133498
0.125868
0.0152464
-0.488976
0.473798
0.233651
-0.481088
-0.260172
-0.410322
0.177602
0.261265
0.299132
-0.662525
0.363553
0.305899
0.176243
-0.390926
-0.513849
-0.0187498
0.533004
-0.554742
0.257312
0.297582
-0.309041
0.210459
0.0706361
-0.280994
-0.526644
-0.544547
0.532327
-0.540113
-0.378569
-0.224408
-0.333075
0.322857
0.261183
0.255243
-0.516282
-0.221755
-0.340308
-0.480874
0.0258748
0.455322
-0.411934
0.258129
0.154192
-0.0705625
-0.262277
-0.246099
-0.260396
0.506477
-0.462814
-0.0177626
0.167047
0.257538
-0.308208
0.532371
0.0299201
-0.20454
0.174723
-0.273344
0.501844
-0.31686
0.639579
0.204313
0.279565
-0.483777
0.173608
-0.544392
0.211103
0.277392
-0.244606
0.0239696
0.220662
0.162853
0.262019
-0.592327
0.2714
0.321135
0.47955
-0.173549
-0.0235904
-0.226148
0.321697
-0.529444
0.208257
0.49654
-0.317841
-0.418219
0.354259
0.177969
0.11425
0.0948943
-0.518359
-0.0489843
-0.141383
0.190391
-0.251296
-0.319522
0.570845
0.233484
-0.210657
-0.0133941
0.224089
-0.533522
0.000885285
0.319043
-0.188258
-0.42818
0.587621
-0.159437
0.578751
-0.446161
0.494029
-0.282647
-0.195864
-0.190113
0.385998
0.404807
-0.0987095
-0.305831
-0.311403
-0.311176
0.441236
-0.27875
0.211237
-0.516983
0.305764
-0.166914
0.408556
-0.241444
0.456255
-0.127935
-0.32801
-0.0818709
0.599694
-0.366955
-0.232689
-0.409824
0.243031
0.320778
0.276792
-0.59733
0.285371
0.194285
0.572101
-0.275133
0.349381
0.322106
-0.276267
0.475986
-0.44273
-0.0329781
-0.296035
0.459873
-0.163442
0.223121
-0.418865
0.348939
0.282616
-0.146349
0.468142
0.00812509
0.515835
-0.575168
0.274079
0.130974
0.397064
-0.216683
-0.555772
0.127619
0.427441
-0.249649
-0.220751
0.215365
0.00542018
0.32482
0.557958
-0.613378
0.0555278
0.196722
-0.199832
0.309528
0.291414
-0.600861
0.537834
-0.251598
0.498057
-0.256743
-0.24102
-0.320565
-0.324446
-0.347524
0.613767
-0.266241
0.519352
-0.308077
0.315512
-0.215984
0.317705
-0.652766
0.310094
0.342646
0.225333
0.320914
0.33754
-0.00159078
-0.335663
0.355689
-0.0179351
-0.205695
0.235739
-0.395391
0.319028
0.27438
-0.558337
0.277847
-0.0637234
-0.180852
-0.641992
0.597289
-0.309282
-0.287982
-0.453629
0.404541
-0.0857629
0.428908
-0.34257
-0.318709
-0.259814
0.578557
-0.592762
0.274118
0.45079
-0.246354
-0.571513
-0.202162
0.226673
0.146625
0.384889
0.153386
-0.330322
-0.271835
0.0960114
0.219689
0.293963
0.252632
-0.546538
0.0170106
-0.225245
0.208244
0.00463448
-0.225312
0.249667
-0.466939
0.217397
-0.451994
-0.110682
0.120263
0.187816
-0.440256
-0.104756
-0.242347
0.218987
-0.501866
0.183062
0.318671
-0.257644
0.556624
0.197666
0.243202
-0.249619
0.462435
0.156325
-0.519689
-0.269378
-0.0993408
0.307828
0.289482
0.540899
-0.315264
0.475647
-0.159187
-0.316378
0.513019
0.0450615
-0.317274
-0.235159
0.552627
-0.46032
0.446235
-0.270864
-0.175322
0.360519
0.276565
-0.328798
-0.250359
0.579338
0.24081
-0.521023
0.280521
0.199719
0.119541
-0.54231
0.513146
-0.586243
-0.464304
0.444127
-0.277609
0.293281
-0.0154962
-0.239044
-0.25484
0.493764
-0.531176
-0.00419197
0.335052
0.221923
0.224422
-0.325366
0.274572
0.0511525
-0.54733
0.227465
0.319853
0.538387
-0.589433
0.0513659
-0.369383
0.622619
-0.253227
-0.157553
0.394787
-0.236802
-0.152829
-0.239186
0.392301
-0.207327
-0.208298
0.415841
0.585512
-0.151547
0.0700103
-0.612194
0.154284
0.327839
-0.481321
0.211576
-0.466776
0.255403
-0.521351
0.0571413
-0.588008
0.356294
0.231524
0.116104
0.359927
-0.445886
0.270334
0.206173
-0.476562
0.309623
0.24266
-0.552232
0.290027
0.166542
-0.33143
-0.215914
-0.175485
-0.203238
0.251885
0.175738
0.0515491
0.260142
-0.311233
-0.337923
-0.270977
-0.169074
0.437286
-0.267642
-0.457347
0.282302
-0.224426
0.53102
-0.306082
0.129436
-0.498818
-0.0631026
-0.214323
0.244882
-0.491052
0.637063
-0.442161
-0.194767
0.535613
-0.294686
-0.411529
0.305289
-0.226248
0.50109
-0.274349
-0.178085
0.398315
-0.219799
0.295944
0.210268
-0.373909
-0.417935
-0.095571
-0.417682
0.220927
-0.542301
0.32155
-0.160604
-0.340044
-0.248208
0.187316
0.108938
-0.296059
0.13208
-0.545511
0.340504
0.210824
-0.551157
0.344278
-0.292468
-0.361054
0.623586
-0.376797
0.393002
-0.0158399
-0.033288
-0.291733
0.0584124
-0.462226
0.403987
-0.255033
-0.293174
0.548431
0.0362883
-0.270366
-0.269544
0.580536
-0.310692
0.266416
-0.565676
0.564632
0.0013487
0.452188
0.184999
0.36513
-0.645292
0.280182
0.371293
-0.609056
0.237786
-0.231908
0.562088
-0.329836
-0.24472
-0.243061
0.421235
-0.177819
0.300907
0.20756
-0.50807
-0.00461042
0.54036
-0.535738
0.152765
0.0137732
-0.166439
0.201737
0.185059
0.309282
0.428657
-0.413339
0.302472
0.278592
-0.580577
0.213824
-0.0608922
-0.335886
0.635128
0.550187
-0.329191
0.411407
0.173881
-0.127225
0.418204
-0.291117
-0.300643
0.138257
0.16254
-0.0645927
0.454814
-0.390112
0.452989
-0.394452
0.49107
-0.0484137
0.0122145
0.50643
0.249683
0.227981
-0.477699
0.55528
0.00382848
-0.558759
-0.144744
0.271453
-0.453465
0.181523
-0.245423
-0.14085
0.386644
-0.265546
0.55361
-0.287818
0.226184
-0.537474
0.311341
-0.345871
-0.139889
0.25442
-0.422959
0.337444
-0.602074
0.139978
0.552036
-0.296321
-0.324058
0.259082
0.259029
0.340712
-0.261452
-0.150117
0.390342
-0.345476
0.711063
-0.376395
-0.313163
-0.299762
0.0205467
-0.533327
0.513786
0.585754
-0.244957
-0.150616
-0.10857
-0.552892
0.207076
0.312346
-0.57438
0.26211
-0.227096
0.488379
0.131863
0.160974
-0.539539
0.503387
-0.553444
0.0162033
0.537475
0.321145
0.0549884
-0.375807
0.559819
-0.237524
-0.461659
0.0695149
0.392663
0.412962
0.248081
-0.0574447
-0.403797
-0.40369
-0.363716
-0.112174
0.532623
-0.30637
0.358918
-0.423449
-0.171241
0.247159
-0.330256
0.431822
-0.288192
-0.143544
0.201511
0.292783
0.332309
0.383814
0.238744
-0.42658
0.187143
0.239895
0.18035
-0.626302
-0.39985
0.0207832
0.379209
0.198569
0.233344
0.288223
0.392476
0.288274
-0.401356
0.273885
0.493359
-0.221709
-0.371804
0.0296296
0.342113
-0.170026
0.491451
0.320891
0.258712
0.290586
-0.0550754
-0.235491
0.249652
0.200596
-0.450495
-0.307109
-0.321612
0.628827
0.571146
-0.27684
-0.294205
-0.20751
-0.275564
0.482911
0.536361
-0.242337
0.63045
-0.269711
0.0189921
-0.00614411
-0.365685
0.156111
0.241806
-0.212256
-0.435927
0.245491
-0.221556
-0.346658
-0.166895
0.514357
-0.233152
-0.192968
0.50396
-0.332817
0.446209
-0.219246
-0.541013
0.0896526
0.448948
0.204383
-0.240638
0.509075
-0.268362
-0.361996
0.295539
-0.370763
0.125649
0.481861
-0.211622
-0.523792
0.519188
0.560389
-0.0369136
-0.548502
0.267156
0.281421
-0.269115
0.579675
-0.310476
0.317941
0.183154
-0.500886
-0.393122
0.215529
-0.126513
0.374183
0.186221
-0.514939
-0.521644
0.259564
0.283166
0.267898
-0.551006
-0.642829
-0.111956
0.445037
0.322186
-0.117454
0.53224
0.310937
0.262094
-0.57312
0.690002
-0.297303
0.326571
-0.106972
-0.305481
0.606782
-0.3013
0.487794
-0.20232
0.696002
-0.435977
-0.259597
0.0785742
0.11665
-0.195199
-0.113186
0.32534
-0.574095
0.40026
-0.0476202
-0.503789
0.242684
0.261109
0.281425
-0.014085
0.39314
0.297085
0.291601
0.279646
0.560075
-0.00195552
-0.557779
-0.499442
0.258881
0.19516
-0.507487
0.312342
0.58329
-0.291261
-0.136668
0.325226
-0.554446
0.399741
0.154779
0.240801
-0.601862
0.345195
0.255269
0.553219
-0.24758
-0.305504
0.290926
-0.157314
-0.116748
0.117246
-0.39687
-0.173429
0.570372
0.312387
0.253083
0.286443
0.316901
-0.603354
-0.570801
0.223293
0.317521
-0.443356
0.253259
-0.269919
0.527365
0.124121
0.256778
0.25516
-0.515403
0.260518
0.0281598
-0.430907
0.402796
-0.472989
-0.128969
0.389904
-0.235064
0.496048
-0.277241
-0.32194
0.608906
-0.28696
-0.190588
-0.311412
0.167088
0.252793
-0.420106
-0.271234
0.127643
-0.396701
0.159247
-0.434632
0.275563
0.237661
0.268725
-0.506754
-0.479955
0.00337319
-0.375278
0.371918
-0.480156
0.549751
-0.0671428
0.149213
-0.254589
-0.307562
0.562461
0.285793
-0.53182
0.246192
0.332375
-0.583638
-0.171556
0.492483
0.579644
-0.168439
-0.145818
-0.408532
0.486728
-0.285031
0.535113
-0.225442
0.263479
-0.375381
0.40368
-0.321801
0.188375
-0.325369
0.137375
-0.266372
0.268523
-0.220817
-0.322797
0.140059
0.363929
0.0120317
-0.415486
0.114941
0.175676
-0.544123
-0.434756
0.418682
0.0167326
-0.293859
0.565484
-0.26399
-0.237254
-0.25624
-0.277263
0.463315
-0.459882
-0.550828
0.160957
0.390144
-0.382437
0.0420934
0.340624
0.328184
0.236126
-0.564254
0.246221
0.319752
-0.565934
-0.120967
0.322917
-0.201782
-0.342493
0.583287
0.340358
-0.592325
0.251982
-0.446579
-0.0309209
0.250366
0.247981
0.546535
-0.546204
-0.373487
-0.0698307
-0.0392399
-0.384981
0.424101
0.478327
-0.403972
0.00426679
0.252514
-0.536524
0.284242
0.280177
-0.165218
-0.393524
0.241061
0.438069
0.258404
0.204881
0.314503
0.66622
-0.345771
-0.320381
0.569742
-0.279309
-0.290525
0.238983
-0.555412
0.316651
0.421971
-0.254384
-0.506089
0.16874
0.0554963
0.438258
0.126574
0.178191
0.372082
-0.448966
0.0773344
0.568854
-0.32961
0.157741
-0.396727
0.319512
0.202576
-0.522026
0.427395
-0.174618
0.369057
-0.180263
-0.346486
-0.411428
0.302436
-0.55471
0.252415
-0.324855
0.467491
-0.142964
-0.602156
0.171336
0.480616
0.1057
-0.585907
0.169844
-0.361206
0.191381
0.0670565
0.207902
0.219965
0.433506
0.201745
-0.469991
0.268142
0.313947
0.299821
-0.30236
0.593786
-0.262652
-0.288957
-0.269438
0.558524
-0.303412
0.256457
-0.561943
0.209948
0.307029
-0.516957
0.2016
-0.478256
0.276961
0.297821
0.328604
-0.626413
-0.289905
0.269886
-0.293676
0.59648
-0.302556
-0.00890565
-0.425251
0.589973
-0.279037
0.293394
-0.571668
0.278262
0.596531
-0.464611
0.133375
-0.232325
-0.271459
-0.107533
-0.54271
0.225716
0.35404
-0.204718
-0.148912
-0.261458
0.246345
-0.000857864
-0.25651
-0.290764
0.547436
-0.120145
-0.208563
0.304703
0.18753
0.324241
0.342045
0.272832
-0.594749
0.583296
-0.242925
-0.236099
-0.258209
0.494576
0.427456
-0.190278
-0.236743
-0.256277
-0.213969
0.230965
0.535036
-0.245989
-0.288849
0.53857
-0.333655
0.413711
0.165731
-0.236122
0.522072
-0.159101
-0.307661
-0.408579
0.0321341
0.228076
-0.558201
0.33026
0.389184
-0.345671
-0.0365027
0.191421
-0.00907807
0.479616
-0.269225
0.226924
-0.300523
0.598345
0.637641
-0.267371
-0.369444
0.0344822
-0.371742
0.337611
-0.579869
0.169776
0.410099
0.311066
0.309197
-0.562364
0.253664
-0.437687
0.249117
0.188982
-0.0751299
-0.33915
0.280666
-0.623185
-0.197323
0.211157
-0.212494
-0.271929
0.484423
-0.10781
-0.213434
0.321541
-0.526299
0.583637
-0.337369
0.566508
-0.520034
-0.0464633
0.420762
-0.168737
0.30196
-0.500733
0.198833
0.588341
-0.282658
-0.524257
0.178346
0.29857
-0.572653
0.303813
-0.18143
0.00465553
0.176871
0.271252
-0.26315
-0.257605
0.324801
-0.369165
-0.270075
-0.306059
0.576288
0.163261
0.116931
-0.250849
0.556412
-0.228183
-0.501288
0.334889
-0.615828
0.202262
0.271815
0.316598
-0.439706
-0.108471
-0.486882
0.179698
-0.428477
0.249494
-0.265269
0.479248
-0.106777
-0.620839
0.277665
0.343273
0.501839
0.387149
0.303744
-0.579034
0.275322
0.403046
-0.336497
0.363883
0.115755
0.280098
0.364624
-0.348676
0.0556133
0.293354
-0.218026
-0.291379
0.406816
-0.115085
-0.354753
0.135794
-0.252378
0.432764
-0.548571
-0.262185
-0.0805256
0.229329
0.12509
-0.205597
0.286995
0.126485
0.268714
0.161163
0.129882
-0.219678
0.0383482
-0.000623173
0.196645
0.372103
-0.424968
0.0529371
0.139454
0.279727
-0.418732
0.531396
-0.211841
-0.231424
0.659789
-0.335494
-0.267961
-0.313185
0.581206
0.209997
0.12241
0.609975
-0.244863
-0.111022
0.295735
-0.18454
0.491314
-0.241422
-0.331123
0.334526
-0.446155
-0.300574
0.617477
0.568086
-0.195911
0.44158
-0.192035
0.294048
-0.379525
-0.290626
0.471734
-0.180856
-0.326779
0.55244
-0.225583
0.121685
0.199026
-0.320519
-0.527656
0.247826
0.280063
-0.352519
-0.197994
0.534124
-0.00922871
-0.524419
-0.29393
0.104784
0.189173
-0.267092
0.397014
-0.129982
-0.256558
0.569352
-0.312712
-0.639459
0.279977
0.359522
0.442532
0.113049
0.286838
0.18572
0.521898
-0.311959
0.194741
-0.302569
0.530735
-0.431881
-0.283531
0.491906
-0.208332
-0.00227453
-0.301641
0.141875
0.279729
-0.246841
0.139377
-0.379207
-0.0638127
-0.230091
-0.158755
0.293206
-0.134351
-0.557003
0.167224
0.389604
0.288616
-0.161827
-0.126639
0.232919
0.513572
-0.274399
-0.238952
-0.455023
0.10617
0.349304
0.224141
-0.461169
0.0515206
0.331986
-0.210076
0.293603
-0.0836721
-0.209873
0.544044
-0.241478
0.512199
-0.249937
-0.0693383
-0.391688
-0.284193
0.577615
-0.184629
-0.269669
0.297475
0.272176
-0.243047
0.0134119
0.0735411
-0.557479
0.290741
0.445755
-0.305868
0.225124
-0.127053
0.335562
-0.208321
-0.351663
0.567459
-0.215838
0.288185
0.350301
0.192288
0.294627
-0.312717
0.146448
0.207967
-0.5293
-0.00334629
0.340236
-0.131592
-0.208312
-0.275104
-0.320861
0.596042
-0.257061
0.558825
-0.301467
-0.605472
0.282507
0.323082
0.329176
-0.129933
-0.248798
0.436371
-0.55382
0.276721
0.314049
0.239312
0.241752
0.272049
0.471559
-0.331499
-0.16968
-0.432415
0.309027
-0.175162
0.507441
-0.285939
-0.221484
0.218076
0.184723
-0.436664
-0.266458
0.601664
-0.335164
-0.364253
0.329492
-0.294671
-0.403513
0.117785
-0.307878
-0.293237
0.221905
0.241786
-0.463424
-0.209115
0.507539
-0.298219
-0.310555
0.61185
0.319891
0.215193
-0.535024
0.166235
-0.59659
0.301614
-0.558195
0.224801
-0.549635
0.325145
0.311017
0.224714
-0.221017
0.36274
-0.144627
-0.218311
0.271808
-0.560359
0.216646
-0.519119
0.172009
0.158044
-0.618899
0.279403
0.339519
-0.356319
0.401091
-0.0447978
0.19492
-0.321818
0.305244
-0.615777
-0.542742
0.271313
-0.28436
-0.285671
0.570078
0.261321
-0.213929
-0.0686238
-0.511236
-0.28817
0.581381
-0.293124
0.251528
-0.576322
0.324867
0.330868
0.238234
-0.179155
-0.314215
0.558442
-0.244108
-0.576578
0.292382
-0.260109
-0.226783
0.48696
0.43771
-0.25257
-0.241137
-0.299991
-0.339429
-0.238328
0.242961
0.301807
-0.198305
0.500576
0.459096
-0.2097
-0.294364
-0.300909
0.517635
0.509816
0.0117139
-0.520618
-0.318463
-0.0299483
-0.363378
-0.146987
0.510254
-0.220573
-0.254471
-0.197757
0.452276
-0.169874
-0.274348
-0.26313
0.0938444
-0.24441
-0.231898
0.398484
-0.563656
0.17272
-0.555255
0.301182
0.00279338
-0.342369
0.126135
0.274432
0.297397
-0.43895
0.141532
-0.14346
-0.616891
0.204645
0.412376
-0.191582
0.436547
-0.244431
-0.550973
0.187441
0.356253
0.57043
-0.31883
-0.249151
0.58503
-0.335596
-0.148055
-0.261755
0.463464
0.595306
-0.312533
-0.281932
-0.099544
-0.363824
0.463697
-0.187978
0.176533
0.459434
-0.162023
0.514097
0.291477
-0.527242
-0.141712
0.436238
-0.294252
-0.23004
0.229539
-0.112327
-0.440916
0.187924
-0.39602
0.29838
0.248581
-0.546875
0.633857
0.450951
0.45478
0.227428
-0.576594
0.349206
0.293217
-0.260168
-0.0327927
-0.131183
0.262388
-0.13111
0.233188
0.329213
-0.317323
0.488236
-0.170124
-0.555092
0.328029
0.227285
-0.23656
0.455867
-0.198869
0.576112
-0.273162
-0.283941
0.58807
-0.304061
-0.269153
0.17904
0.267623
0.130064
0.436455
0.16632
0.254595
0.00536001
0.248152
-0.593641
0.345521
-0.223995
-0.300142
0.492617
0.607645
-0.359434
0.247796
0.322708
0.479725
-0.254544
-0.225251
0.316826
-0.604869
0.28811
0.388819
-0.1343
-0.254216
0.137575
0.224968
0.236333
0.0573165
0.31039
-0.357794
0.196595
-0.443599
0.247554
-0.572719
0.302777
0.249671
-0.100271
-0.0817055
0.392441
0.0662807
0.38001
-0.446288
-0.190791
0.258241
0.197786
-0.382835
0.297525
0.5169
0.0135465
-0.53038
0.241467
0.238187
0.556835
-0.389777
-0.554134
0.227417
-0.223132
0.543324
-0.31994
0.328796
0.383113
-0.217113
0.0524637
0.241005
0.268254
-0.589381
0.321398
-0.254869
0.603241
-0.348318
0.304464
0.35283
0.359851
0.640556
-0.53058
0.522144
0.321592
0.248848
-0.570346
0.315162
0.229654
-0.544045
0.29387
-0.558854
0.265016
-0.225075
-0.14445
-0.294516
0.145117
-0.188168
0.445583
-0.257136
0.0164671
-0.258615
-0.307931
0.491184
-0.592039
0.277069
0.315708
-0.0674846
-0.336056
-0.386951
0.453232
0.142011
0.247111
0.104708
0.304032
0.545714
-0.234539
0.238419
0.294383
-0.532765
-0.364397
-0.0700719
0.00718362
0.26163
-0.268706
-0.0990412
0.27123
-0.474919
0.262324
-0.64986
-0.599413
0.393785
0.205674
-0.621442
0.233477
0.388075
-0.538215
-0.611896
0.395513
0.216456
-0.242219
-0.195833
0.585633
-0.389667
0.497781
-0.256349
-0.087397
0.41328
0.317078
-0.19111
-0.490469
0.240747
0.249718
-0.288957
-0.259861
0.549003
-0.0338138
-0.100916
0.302707
-0.201674
0.237585
0.26016
-0.592646
0.295989
0.296564
0.287524
-0.474181
0.186682
-0.410029
-0.201791
-0.322672
0.203413
0.119507
-0.537855
0.300674
0.237919
0.444362
-0.220707
-0.237532
0.394043
0.318309
0.265377
-0.326224
0.553067
-0.226767
0.256409
-0.122716
0.249967
-0.369199
0.424415
0.413246
-0.122928
0.588549
-0.245955
-0.342497
-0.306403
-0.0765617
-0.209509
-0.380702
0.542451
-0.248605
-0.511861
0.234199
0.303814
-0.537978
0.168722
0.24485
-0.470908
0.326693
0.144175
-0.109697
0.459957
-0.335008
-0.129139
0.344535
-0.146527
-0.197632
-0.588744
-0.223028
0.36994
0.268581
-0.572998
0.304837
0.205807
-0.155551
0.519736
0.282746
0.176946
-0.459338
0.325694
0.220165
0.311679
0.263364
-0.574956
0.187569
0.108347
-0.379723
0.565243
0.558367
-0.2901
0.285007
-0.493993
0.633171
-0.201925
-0.431082
-0.236361
0.529139
-0.292488
-0.390756
0.158092
0.232714
-0.258779
0.560879
-0.301688
0.185216
-0.565558
0.380327
-0.00208275
0.608744
-0.605313
0.213257
0.102349
-0.250428
0.573781
-0.323346
0.259701
0.299436
0.309616
0.253886
-0.563405
0.239041
0.301819
-0.540805
0.203652
0.1369
0.138719
-0.564978
-0.316145
0.549689
-0.251191
-0.216447
0.536397
-0.568685
0.312213
-0.455749
0.194468
-0.252885
0.283245
0.174532
-0.457562
0.209325
-0.510081
-0.0131591
0.523743
-0.268849
-0.190319
0.295162
0.156539
-0.456942
0.300407
-0.473172
0.145582
0.171609
-0.596614
0.378272
0.218402
-0.306249
-0.282921
-0.299211
-0.311554
0.610833
0.297975
-0.39304
0.249675
0.188205
0.316284
0.253151
-0.558442
0.323601
0.234997
-0.00302241
0.549744
-0.546606
-0.344523
0.56072
-0.216211
-0.298212
0.507829
-0.184187
0.409121
-0.224693
0.309229
0.150215
-0.309365
-0.203855
0.300178
-0.558498
-0.445502
-0.129587
0.541191
-0.251886
-0.289023
0.542983
-0.231226
0.209029
0.250348
-0.42175
-0.195013
0.175763
-0.301638
-0.488439
0.231972
0.256467
-0.473233
-0.360813
-0.258061
0.317174
-0.0618469
-0.424218
0.615456
-0.191114
-0.27683
-0.110961
-0.521345
0.520295
0.2943
-0.565963
0.272108
-0.119525
0.282832
-0.148897
-0.197219
-0.303486
-0.316654
0.120347
0.196493
0.231861
0.262966
-0.222422
0.372399
-0.293522
0.565012
-0.0557445
0.563077
0.369498
0.25943
0.180443
0.108327
-0.417859
0.570229
0.226878
0.274667
-0.159651
0.262785
0.291114
-0.553706
-0.518393
0.28202
0.48471
-0.30955
-0.175132
0.462692
-0.192894
-0.26973
0.265567
0.305742
-0.571353
0.57628
-0.177853
0.180114
-0.422747
0.242678
0.177046
-0.431491
0.199395
0.24163
-0.569284
0.327673
-0.281256
0.577937
-0.312322
-0.234524
-0.439921
0.40643
-0.218251
0.536967
-0.249424
-0.280694
0.141159
0.0837918
-0.224781
0.229971
0.179396
-0.259967
-0.107563
-0.161974
-0.274606
0.569822
-0.266976
-0.280813
0.548054
-0.608214
0.273284
0.334942
0.0780287
0.57587
-0.263708
-0.312237
-0.378336
0.180093
0.550205
-0.284524
0.57949
-0.294876
-0.257446
-0.591231
0.282035
0.309222
-0.572078
0.26613
0.306067
0.404171
-0.58279
0.178669
-0.286207
-0.262033
0.548267
-0.286176
0.41007
-0.172851
0.249387
-0.526598
0.256178
-0.600645
0.34448
0.205779
0.129975
0.307637
0.128133
0.311043
0.26477
-0.272556
0.575033
-0.301934
-0.270512
0.58146
-0.310892
-0.0153923
-0.198615
-0.119138
-0.201203
-0.510228
0.0986821
0.300993
-0.573153
0.276324
0.411013
0.202836
0.129384
0.58452
-0.200275
0.557194
-0.356844
-0.321319
0.569163
0.601402
-0.345167
0.557877
-0.221957
-0.367137
-0.313403
-0.279334
0.426298
-0.246156
0.516484
-0.297849
-0.218905
0.573738
-0.304582
-0.237498
-0.328945
0.566519
0.252392
-0.464648
0.21254
0.298799
-0.599289
0.344091
-0.0854295
-0.258498
-0.0926494
-0.586454
0.266939
0.262965
0.308006
-0.571199
0.293292
0.250882
0.259999
-0.051734
0.314384
0.250199
-0.564411
0.132449
0.198274
-0.330455
-0.531024
0.529893
0.00161411
0.293677
-0.579248
-0.197001
0.506119
-0.30923
-0.24949
0.0653212
0.275304
0.127683
-0.479885
0.246713
-0.359843
0.515155
-0.155301
-0.149141
0.254735
-0.105494
-0.287377
0.514671
-0.331432
0.123348
0.181082
0.303661
0.365884
-0.211262
-0.154654
0.237862
-0.00572644
0.520757
0.217637
0.607775
0.128363
0.201036
0.117451
0.158679
-0.276027
-0.247691
0.286759
0.283475
-0.570199
0.267157
0.195604
0.390234
-0.170958
-0.334245
0.124302
0.100593
0.516329
-0.52129
0.618703
-0.413943
-0.225927
0.514157
-0.287928
0.565329
-0.323662
0.198819
-0.182182
0.313649
-0.193894
0.319035
-0.585462
-0.250695
0.604339
-0.357183
-0.247133
-0.183311
-0.240815
0.437911
0.289145
-0.551787
0.262686
-0.311929
-0.215493
0.274731
-0.196207
0.295412
-0.0991496
0.463155
0.0158199
-0.478286
-0.267144
-0.613604
0.0990792
0.34758
0.257946
0.0863233
-0.250337
-0.192722
0.275085
0.293994
-0.569067
-0.372682
0.136603
-0.289838
0.497301
-0.207423
-0.579074
0.221945
0.357242
-0.303455
-0.268505
-0.23698
-0.217274
-0.379281
-0.0175892
0.214387
-0.236302
0.289019
-0.0551644
0.305624
-0.502746
0.179551
0.18675
0.239573
-0.291439
0.554137
-0.543174
0.229049
-0.47402
0.537642
-0.0635698
0.221133
0.0723343
-0.391103
0.15944
0.351375
-0.147423
-0.25183
0.241774