/*--------------------------------*- C++ -*----------------------------------*\
| =========                 |                                                 |
| \\      /  F ield         | OpenFOAM: The Open Source CFD Toolbox           |
|  \\    /   O peration     | Version:  v2012                                 |
|   \\  /    A nd           | Website:  www.openfoam.com                      |
|    \\/     M anipulation  |                                                 |
\*---------------------------------------------------------------------------*/
FoamFile
{
    version     2.0;
    format      ascii;
    class       volVectorField;
    location    "150";
    object      U;
}
// * * * * * * * * * * * * * * * * * * * * * * * * * * * * * * * * * * * * * //

dimensions      [0 1 -1 0 0 0 0];


internalField   nonuniform List<vector> 
10042
(
(1.10105 -0.00791322 8.21157e-22)
(0.79653 -0.312802 7.03514e-21)
(1.02141 -0.0809099 7.10222e-22)
(1.0144 -0.000731889 2.4426e-21)
(1.01461 0.000420241 3.078e-21)
(0.858806 0.0448752 -9.45605e-21)
(0.896238 0.127701 0)
(0.86994 0.0184393 1.18211e-21)
(1.01621 -0.0032428 -1.54957e-22)
(0.973935 -0.0116223 8.33817e-21)
(0.991481 -0.0359358 1.72794e-22)
(0.764342 -0.335952 7.59156e-21)
(1.01838 0.0259255 -1.53989e-22)
(1.01334 0.00226074 0)
(1.016 -0.000100241 -1.25031e-21)
(1.01332 0.00227443 0)
(0.765036 0.197291 -9.85535e-21)
(0.987516 -0.0342867 -2.89726e-22)
(1.01959 0.010433 0)
(1.00888 -0.021893 -3.01799e-21)
(1.01665 0.0264823 -3.24523e-21)
(1.09717 0.000508357 -7.86497e-22)
(1.01446 -0.00067085 0)
(0.904413 0.0925457 -1.81456e-20)
(1.01788 0.000247491 0)
(1.01175 0.000212278 1.22119e-23)
(0.977689 -0.0114282 0)
(1.01659 -0.0015587 -5.84398e-23)
(0.815201 0.0964671 2.16184e-20)
(0.899999 -0.0302796 -2.54498e-20)
(1.01119 0.000246477 -1.61168e-21)
(1.02325 0.025577 -2.06184e-21)
(1.01647 -0.00287199 -1.35496e-22)
(1.01641 -0.00266792 -1.5412e-22)
(0.885443 0.00680277 -2.57036e-21)
(0.843448 -0.0172164 5.29674e-21)
(1.01245 1.87533e-05 0)
(1.01242 -0.00138039 7.83212e-22)
(1.01246 0.000406583 -8.62309e-22)
(1.01922 0.0012326 0)
(0.929054 0.0269543 1.93656e-20)
(1.01615 -0.0030077 3.40632e-22)
(1.11922 0.0498483 0)
(0.846391 -0.226558 1.74366e-21)
(1.01581 -0.000783409 -7.30535e-22)
(1.01812 0.000323787 -1.45749e-21)
(1.01779 0.000296243 0)
(1.01571 -0.000265953 2.53491e-21)
(0.966919 0.0279402 1.33585e-21)
(1.17881 0.295859 0)
(1.13233 0.0734136 4.04078e-23)
(1.01523 -3.16183e-05 -3.58596e-21)
(0.798958 0.164384 0)
(1.01907 0.00959982 -1.146e-21)
(0.864018 -0.260692 1.48251e-20)
(0.707009 -0.41714 1.45088e-19)
(1.01551 0.0250179 -2.99688e-21)
(0.997021 -0.0222469 0)
(1.01351 -0.000509019 -2.77197e-21)
(1.01515 0.00103125 0)
(0.964393 0.0224841 -1.18604e-21)
(0.80951 -0.192103 0)
(1.09098 0.050063 -1.14837e-20)
(0.92071 0.00997049 -1.91609e-22)
(1.00509 -0.00940403 -1.43682e-21)
(1.02412 0.00376062 2.08201e-21)
(1.01248 -0.0221214 -3.30958e-21)
(1.12485 -0.0444468 -3.01038e-22)
(1.01795 0.000665355 0)
(1.12377 -0.0378304 -4.72239e-22)
(1.19397 0.0974478 0)
(1.01027 -0.00784963 6.65664e-22)
(1.01163 -0.000920525 1.82502e-22)
(1.01369 -0.000529375 2.69974e-21)
(1.0233 0.00365654 0)
(1.17864 0.0627224 -3.155e-22)
(1.00293 0.00963452 0)
(1.01785 0.000370881 9.28765e-25)
(1.00314 0.0121363 -1.1742e-21)
(1.02056 0.0104388 -9.39123e-22)
(0.849231 -0.145765 -4.45239e-21)
(0.884965 0.0454021 -1.9255e-20)
(1.00866 0.00011446 -4.04992e-22)
(1.01512 0.000465151 -4.95467e-22)
(0.99251 -0.0178837 -2.54327e-21)
(0.924703 0.0312306 1.3232e-20)
(1.01387 -0.0210271 0)
(1.03549 -0.0860221 -7.06094e-22)
(1.01581 0.00361205 0)
(1.00334 0.00115679 0)
(1.01786 0.0195915 -2.30246e-21)
(1.01629 -0.000150491 -3.7409e-21)
(1.08248 0.0583236 1.03298e-20)
(0.916519 0.0254357 -9.94601e-21)
(1.01445 -0.0119422 1.61664e-21)
(1.01618 -0.00359957 -3.52864e-21)
(0.572646 -0.372535 -2.03162e-20)
(1.0105 -0.0210397 6.68703e-21)
(0.848493 -0.0967827 -1.04065e-22)
(1.014 -0.000309619 2.6643e-21)
(1.01744 0.0185735 2.08489e-21)
(0.957661 -0.0199958 6.48524e-21)
(1.01276 -0.0045493 1.29906e-21)
(1.02593 0.0250974 2.95523e-24)
(1.01579 0.0130101 -4.33464e-22)
(1.01357 -0.00345077 0)
(0.688354 0.769992 0)
(1.0229 0.00284433 -1.02982e-21)
(0.881751 0.112138 -6.97853e-21)
(1.01328 -0.0033971 0)
(1.01355 -0.00117996 0)
(0.893271 0.0871123 7.04933e-21)
(0.963549 -0.0208433 -2.89634e-21)
(0.943832 0.00286688 0)
(1.00771 -0.00769824 -1.78623e-21)
(1.01833 0.00107385 -4.40921e-24)
(1.00818 0.0269593 1.32288e-21)
(1.01202 0.000335971 0)
(0.999826 -0.0206623 -3.06247e-22)
(1.01817 0.00140382 -2.44178e-23)
(1.01525 0.00112848 0)
(0.685685 -0.374455 1.19608e-20)
(0.677933 -0.393533 0)
(1.01592 -0.000914958 0)
(1.00198 0.00330005 0)
(1.01601 0.00409787 -1.52479e-21)
(1.01626 0.00435221 1.76519e-21)
(0.842735 -0.283088 -3.81212e-20)
(1.05231 -0.0545902 1.4863e-20)
(1.00683 0.0231814 1.1523e-21)
(1.01323 -0.00254821 -5.31604e-23)
(1.02083 0.0034185 0)
(1.01576 0.00511634 -1.4615e-21)
(1.02188 0.000748067 -8.22187e-23)
(0.886153 0.0729287 0)
(1.09768 0.183774 -8.03449e-22)
(1.01918 -0.0247224 -1.53082e-21)
(0.619857 0.717212 0)
(1.01447 0.00560975 -7.00782e-22)
(0.854135 -0.0676729 0)
(1.04357 0.0436004 6.24652e-21)
(1.01449 -0.000663245 3.80385e-22)
(0.68698 0.738345 6.48933e-20)
(1.01638 -0.00146748 -6.52106e-23)
(1.0021 0.00712794 0)
(1.01246 -0.00153779 -8.21211e-22)
(0.993568 -0.0168944 7.7341e-21)
(1.01782 0.000735935 -1.43674e-23)
(1.01403 -0.0102903 0)
(0.865393 -0.278004 0)
(1.02206 0.00273915 2.26536e-21)
(1.01279 -0.000339015 0)
(1.01428 0.0068988 -8.62655e-22)
(1.02142 0.0287139 5.66074e-22)
(1.01569 -0.0092803 -4.21769e-23)
(1.00085 0.00653871 0)
(1.05672 -0.0400371 -1.86e-20)
(0.659003 -0.480159 5.80464e-20)
(1.01606 0.00524858 0)
(1.00909 -8.36815e-05 1.52e-23)
(1.0138 0.000192791 1.99209e-21)
(1.01983 0.00109682 0)
(1.06553 0.191614 9.31309e-23)
(1.01605 0.0038458 0)
(1.01457 0.00394145 -6.74701e-22)
(0.848604 -0.264196 8.41653e-21)
(1.01164 -0.00121086 -7.62299e-22)
(1.02491 0.0250161 0)
(0.855429 -0.00544493 -4.46757e-21)
(1.01658 -0.00230304 0)
(1.02306 -0.00861553 -1.1796e-21)
(0.920914 -0.0604676 2.66471e-20)
(0.677011 -0.346763 6.06006e-21)
(1.01668 -0.00250077 3.53738e-23)
(1.01813 0.00959875 1.38505e-21)
(0.66742 -0.383828 0)
(1.01771 -0.000602055 0)
(1.01261 -0.00165898 -9.08613e-22)
(1.02025 0.00315811 1.06423e-21)
(1.01791 0.000556742 -8.66414e-24)
(1.01422 0.00500501 1.33718e-21)
(1.01211 0.0123751 0)
(1.01386 -0.000236128 2.83714e-21)
(1.01757 0.00106032 4.77928e-24)
(1.03083 -0.0311361 -2.24162e-22)
(1.02244 0.0193513 0)
(1.00967 -0.00710928 2.24873e-21)
(1.01513 0.00082887 -1.31877e-23)
(1.29275 0.15424 7.89645e-21)
(1.0114 0.000286998 -5.58574e-22)
(0.834877 -0.292434 -1.29402e-20)
(1.01365 0.025304 0)
(1.01307 -0.00264009 4.62056e-22)
(1.0126 0.0116875 4.17618e-21)
(0.843942 -0.323657 -1.50072e-20)
(1.01633 -0.000354124 1.41217e-21)
(0.867429 -0.201182 -1.4256e-20)
(1.02835 -0.00101529 8.29742e-22)
(0.423614 -0.361205 0)
(1.0151 0.000406095 -1.85289e-23)
(1.0632 -0.10016 2.22109e-22)
(1.06039 0.0489245 -1.50429e-22)
(0.986452 0.124163 -2.28372e-23)
(1.01677 -0.00016192 5.26215e-23)
(0.822274 -0.108303 3.55279e-22)
(1.0156 0.00477475 0)
(1.03472 0.180755 -3.59814e-21)
(1.02014 0.0286018 0)
(1.0136 -0.00141682 0)
(1.02221 0.00039457 -1.02662e-21)
(1.0243 0.0260915 1.20592e-21)
(1.01707 -0.000154036 4.69301e-23)
(0.965688 0.132882 4.11322e-22)
(1.02466 0.126911 -1.00461e-21)
(1.01301 -0.000152187 6.63981e-22)
(1.09874 -0.0334672 -1.59534e-21)
(1.01698 3.87914e-05 -5.08203e-23)
(1.01824 -0.00684095 -5.81078e-20)
(1.01481 -0.000155135 0)
(1.07527 -0.0796723 1.13814e-21)
(0.826543 -0.319882 -8.8275e-22)
(1.02275 -0.00585277 9.05828e-22)
(0.835517 -0.375602 -1.88172e-22)
(1.10893 -0.0331678 4.98181e-22)
(1.01448 -0.000791209 -2.96285e-21)
(1.06778 0.0440541 1.4645e-21)
(1.01598 -0.00850594 2.48689e-21)
(1.02043 -0.023155 4.68894e-21)
(0.98334 -0.00836401 -1.21919e-20)
(1.01242 -0.0042093 -1.75883e-21)
(1.01266 -0.001835 2.7994e-22)
(1.01623 0.00465615 0)
(1.0216 0.0192613 0)
(1.01045 0.000261335 1.29213e-21)
(1.01788 -0.000470152 -1.67197e-21)
(0.855761 0.0127712 -3.15665e-21)
(1.02687 -0.0205029 0)
(0.526896 -0.436108 4.35687e-20)
(1.00357 0.00620774 0)
(0.974405 0.12596 1.53891e-20)
(1.08131 0.272597 0)
(1.10262 -0.124442 -9.72263e-21)
(1.01522 0.00124249 -1.05324e-23)
(1.01994 0.000427274 0)
(0.944508 -0.311151 -2.4388e-21)
(1.01462 0.000415205 2.2633e-21)
(1.12447 -0.0954093 0)
(1.00384 0.00494516 0)
(1.01394 0.00736492 -2.20575e-21)
(1.01406 0.000285541 -2.08695e-21)
(1.01641 0.012137 1.46907e-21)
(1.01316 -0.00291638 -9.57026e-22)
(1.02035 -0.0976356 -3.51942e-23)
(0.930764 -0.206001 7.43252e-21)
(1.01476 -0.00981302 0)
(1.02706 -0.0187378 -1.24389e-21)
(1.01069 0.000224866 -1.7561e-22)
(1.01731 -0.0112515 -2.48132e-21)
(0.66389 -0.45553 2.94353e-20)
(1.01504 -0.000164373 1.67416e-22)
(1.00145 -0.00186881 0)
(1.01199 -0.000992233 9.09074e-23)
(1.01525 1.76835e-05 1.53425e-22)
(1.01788 0.000192804 0)
(1.01961 0.0266355 3.50029e-21)
(0.96164 -0.216007 -3.79817e-21)
(1.00326 -0.00397097 0)
(1.01803 -0.0802141 -1.20909e-21)
(1.00684 -3.61178e-05 0)
(1.01605 0.0047139 -5.02537e-22)
(1.01366 -0.00103853 2.37986e-21)
(1.12335 0.269431 -2.61954e-21)
(1.01326 0.00226026 1.28736e-21)
(1.24522 0.081252 0)
(1.01778 -0.0104343 2.37637e-21)
(1.0072 -0.0222117 0)
(1.01941 0.00399293 2.09817e-21)
(1.01653 -0.000593203 -7.50286e-22)
(1.00694 6.58484e-05 0)
(0.860171 -0.329148 1.33035e-20)
(1.01661 -0.00176658 2.35659e-22)
(1.0489 -0.136691 0)
(0.847825 -0.161066 1.56254e-20)
(1.01897 0.00350481 -3.49128e-21)
(1.00888 4.37114e-05 4.02142e-21)
(0.734362 -0.618169 0)
(1.00957 0.00892201 2.2143e-21)
(1.01889 -0.000136533 1.76745e-23)
(1.08365 0.0180292 -1.28149e-21)
(1.01177 -0.00020266 0)
(1.01073 0.023696 3.48985e-21)
(1.01519 0.0104191 -9.5727e-22)
(1.00924 4.39603e-06 -2.73855e-21)
(1.00648 -0.185526 0)
(1.00223 -0.00761658 5.91707e-22)
(1.01293 0.00214212 0)
(0.986764 0.00726487 4.73813e-21)
(1.02332 -0.0229624 -1.29217e-21)
(1.01367 -0.00104528 -2.51082e-21)
(1.01691 3.00975e-06 0)
(1.01387 0.00624412 -1.5475e-21)
(1.00645 0.140121 9.22351e-22)
(1.01502 0.00079587 1.09844e-23)
(1.09315 0.188849 0)
(1.0085 0.0119286 -1.97016e-21)
(0.83861 -0.170722 2.07408e-21)
(1.01337 0.00232852 5.97745e-22)
(1.02074 0.000189735 -6.32104e-23)
(0.983199 0.0227557 -4.97476e-21)
(1.00222 -0.175912 0)
(1.01122 -9.87401e-05 2.17782e-22)
(1.02089 0.00117166 3.27843e-22)
(1.01593 -0.00334919 2.6154e-21)
(1.01299 0.00214233 -1.06356e-21)
(1.0158 0.00943151 0)
(1.07576 0.0241573 -1.00457e-21)
(1.01779 0.000134937 2.81114e-24)
(1.03472 -0.0259821 -2.99775e-22)
(1.07358 0.131323 -1.62802e-20)
(1.01818 0.00115619 -5.63811e-24)
(1.01049 -0.000100474 -6.23848e-23)
(1.25951 0.130418 0)
(1.0086 -0.0208539 4.02258e-22)
(1.07414 -0.0905955 8.45851e-22)
(1.01139 -0.041466 0)
(1.01194 -0.000114617 -2.83237e-21)
(1.01918 0.00576068 -1.11466e-21)
(1.01986 0.00329915 -3.52699e-21)
(1.02408 -0.0212415 -5.57514e-21)
(1.0101 0.021994 -3.28892e-21)
(1.01531 0.0046837 0)
(1.01408 -0.00229066 2.39291e-21)
(1.08972 -0.0141601 -9.34068e-22)
(1.01089 -0.000150405 3.3296e-22)
(1.03441 0.170944 1.12862e-20)
(1.0961 0.0214833 2.36853e-21)
(0.803967 0.731004 4.58888e-20)
(1.08294 -0.0836914 -3.6545e-21)
(1.01301 -0.00301967 5.48677e-22)
(0.852015 -0.253944 -8.23058e-21)
(1.04018 0.0501016 -1.29777e-21)
(1.01059 0.0275416 3.72831e-21)
(1.01533 0.00132239 1.08509e-23)
(1.0198 0.00212519 2.53424e-22)
(1.01294 0.000111525 0)
(1.01286 -0.00197147 2.53592e-22)
(1.01322 0.00220486 0)
(1.01494 0.000276705 -2.13969e-21)
(1.01739 0.00881236 0)
(0.437541 -0.319555 -5.63901e-20)
(1.01733 0.00153339 -3.14671e-22)
(1.01122 -0.0120576 0)
(1.01717 0.00865017 0)
(1.0235 -0.00464814 -3.44491e-22)
(0.821626 -0.223622 8.154e-23)
(1.02078 0.00565912 1.19728e-21)
(1.01521 -0.00828804 0)
(1.0054 3.44788e-05 0)
(1.0666 -0.202826 7.69538e-22)
(1.00612 6.94422e-05 0)
(1.01368 -0.00315374 -2.28883e-21)
(1.01227 1.84351e-05 3.14591e-21)
(1.01399 0.00363267 -2.14553e-21)
(1.14803 0.0371467 8.49741e-21)
(0.837834 -0.196579 -9.92367e-21)
(1.01478 0.00449647 1.42399e-21)
(1.01517 0.000249787 0)
(1.01668 0.00824767 -1.59049e-21)
(1.01704 0.0083494 0)
(0.789 -0.325354 -1.97114e-20)
(1.0152 0.000926186 0)
(1.0093 7.53477e-05 0)
(1.01333 0.00234889 -1.97908e-21)
(1.0101 0.000106219 -4.15955e-23)
(0.936449 0.0240879 0)
(1.01347 0.00258643 1.56267e-21)
(1.00458 -0.02104 5.31412e-22)
(1.02759 0.356137 -2.41815e-20)
(1.04538 -0.287672 -2.70894e-20)
(0.94282 0.0294121 1.61116e-21)
(1.01415 -0.00287314 0)
(1.0521 0.359186 3.82921e-20)
(0.984785 -0.0111614 1.31546e-21)
(1.01937 0.00311452 -5.6108e-22)
(1.02767 0.0261203 -3.00916e-21)
(1.01833 0.00133561 5.47465e-24)
(1.01462 0.000258979 2.16818e-21)
(1.01791 0.00130607 -1.25873e-24)
(1.01863 0.00575751 6.02326e-22)
(1.01866 -0.000232441 -1.47813e-23)
(1.01893 -0.0104017 -2.1941e-21)
(0.886495 -0.624629 -1.43353e-19)
(1.01692 0.00159345 3.10775e-22)
(1.01774 0.00944663 0)
(0.859928 -0.16248 -1.30605e-20)
(0.91857 -0.180032 -2.27355e-21)
(1.01414 -0.00104468 0)
(0.904791 0.00953179 0)
(1.01101 3.42197e-05 -1.07618e-21)
(1.0233 0.02474 0)
(1.01521 -3.57338e-05 2.6206e-21)
(0.770673 -0.496381 5.0781e-21)
(1.01904 0.00745423 1.64844e-23)
(0.855938 -0.230299 -8.88253e-21)
(0.761578 -0.694679 1.3627e-19)
(1.02348 -0.00513155 3.6834e-22)
(1.03312 0.0493275 6.82406e-22)
(1.02531 -0.00694727 -1.38102e-22)
(1.13895 0.278411 -7.48474e-21)
(1.01924 -0.00952665 0)
(0.806194 0.166446 -3.17276e-21)
(1.00366 0.0124231 0)
(1.07385 -0.146834 -3.11022e-21)
(1.01657 0.00129488 3.1416e-22)
(0.974287 -0.0289304 6.96212e-23)
(1.02482 0.00937301 1.33864e-21)
(0.997907 0.00771731 -7.27434e-21)
(0.809657 -0.285518 1.20016e-20)
(1.01785 -0.000287357 -1.10233e-23)
(1.02485 0.00860827 -3.91742e-23)
(1.01211 -0.000249209 1.3753e-22)
(0.845783 -0.0937686 -1.38974e-20)
(1.01292 -0.00216789 -2.45675e-22)
(1.01744 0.00109612 -4.97276e-24)
(1.04994 0.0416905 0)
(1.03404 0.00956339 -3.02468e-21)
(0.988548 -0.0160394 -5.51363e-22)
(0.837103 0.163468 -7.05893e-21)
(1.0151 -0.000139532 1.36922e-21)
(1.01293 0.027464 0)
(1.03266 0.00983498 3.75251e-21)
(1.01808 0.000383301 -7.67234e-24)
(1.00242 0.0119383 0)
(0.83849 -0.0112947 3.31638e-21)
(1.02444 -0.00687927 0)
(1.01392 0.00301152 2.89592e-21)
(0.698665 0.259244 2.90077e-21)
(1.00261 -0.0223405 3.18331e-22)
(1.01068 3.44638e-06 0)
(0.777122 -0.516669 -2.87439e-19)
(1.01602 -0.00142647 0)
(1.01661 0.00929359 0)
(1.03146 -0.0458099 -2.83773e-21)
(1.28941 0.0965291 -3.97598e-20)
(1.13736 0.203584 3.17069e-21)
(1.0081 -0.0481571 -2.67672e-22)
(0.990502 -0.0360937 0)
(1.04207 0.166815 -3.509e-21)
(0.901687 0.014194 1.2558e-21)
(1.01739 0.00125202 5.64614e-24)
(1.01099 -0.0215078 -2.68576e-22)
(0.933648 0.017892 -7.61446e-22)
(0.920817 -0.000854928 0)
(1.02642 0.0267018 4.62797e-21)
(1.0144 -0.000590353 0)
(1.01331 0.00232987 0)
(1.01033 -0.00862324 0)
(0.825758 -0.683013 6.26056e-20)
(1.01779 0.00114421 1.15338e-23)
(1.01788 0.00204202 2.37349e-23)
(1.01217 0.000281571 -1.52327e-21)
(1.01437 -0.00104191 3.77002e-21)
(1.0118 -0.0083486 4.04115e-22)
(1.0111 -0.00852524 -4.04073e-22)
(1.01832 0.00541156 -1.29749e-21)
(1.00578 -7.21792e-07 0)
(1.10349 0.0128036 -5.07728e-22)
(1.02024 0.00308019 -6.06292e-23)
(1.01706 0.00879012 1.02093e-21)
(1.02047 -0.0104938 1.36196e-21)
(1.01558 0.167094 0)
(1.0195 -0.00308805 -1.13415e-22)
(0.927344 -0.544611 -2.37968e-20)
(0.756806 0.256874 5.39711e-22)
(0.916565 -0.120704 9.96022e-22)
(1.0113 -0.000167153 4.37272e-22)
(1.02691 0.0156059 0)
(1.01195 -0.000128745 0)
(0.92328 -0.163234 9.24794e-22)
(1.01389 -0.00106152 0)
(1.02689 0.00101918 -9.29721e-22)
(1.0162 0.00133167 -3.0888e-22)
(0.87979 -0.061534 3.41769e-21)
(1.014 -0.000507737 -3.71959e-22)
(1.01762 0.0123509 0)
(1.01796 0.00218169 -7.20873e-24)
(1.01196 -0.0201535 2.31207e-24)
(0.801007 0.0344751 2.48669e-22)
(1.01248 3.71213e-05 0)
(1.01401 0.000641861 0)
(1.0213 0.000724599 -2.4589e-21)
(0.811639 -0.313786 -3.92101e-20)
(1.01206 -0.00115431 -8.30475e-22)
(1.02293 0.00169071 0)
(1.08954 -0.0827586 -6.56802e-22)
(1.02793 0.0535577 -6.7668e-22)
(1.02286 -0.00425314 -3.32286e-22)
(1.02418 0.000308764 1.21982e-22)
(0.964018 -0.209482 0)
(0.846582 0.173002 6.99e-21)
(1.0138 -0.00152011 -2.2446e-21)
(1.01277 0.000133221 0)
(1.07785 -0.130132 -2.64819e-21)
(0.792188 -0.393758 2.80158e-20)
(0.989109 0.0254898 -4.40781e-21)
(0.970687 -0.186077 1.00767e-20)
(1.01152 0.000329118 0)
(1.03293 -0.0133645 0)
(0.991775 -0.00917651 0)
(0.994231 -0.00145866 2.73116e-21)
(1.00581 0.00369945 -1.48521e-22)
(1.00912 0.181434 -6.83893e-22)
(1.02236 -0.00435912 4.47911e-22)
(1.01457 -0.000499375 1.61938e-21)
(1.01284 -0.00288631 0)
(0.932626 -0.216863 2.14245e-22)
(1.01562 -0.000952439 1.25542e-23)
(1.11082 0.315016 7.57342e-21)
(1.01433 -0.00098519 -3.67108e-21)
(1.01401 -0.00117716 0)
(1.01866 -0.0038854 1.59076e-23)
(0.997478 0.00582086 7.42235e-21)
(0.942237 -0.184097 -3.64652e-21)
(1.01245 -0.00376718 -3.26965e-21)
(1.01346 0.0026285 0)
(0.848406 -0.130537 0)
(1.02708 -0.00394882 0)
(0.99672 -0.0228149 8.82181e-21)
(1.01268 -0.00356705 3.13116e-23)
(1.02202 0.00383059 0)
(1.03342 -0.0165577 8.20303e-23)
(0.877281 0.173218 -8.58251e-21)
(1.01397 -0.00288489 0)
(1.01953 -0.000932379 -4.43081e-23)
(1.08606 -0.0643145 2.37178e-21)
(1.01616 -0.00385954 0)
(1.01439 -0.00236072 4.21309e-21)
(0.997009 -0.0195364 0)
(1.01315 -0.0023032 -2.33758e-22)
(0.946064 -0.275847 1.59405e-21)
(1.01521 0.000236767 -1.43176e-21)
(0.980004 -0.00783321 5.47819e-21)
(1.02015 -0.0157904 2.31249e-22)
(0.759298 -0.43211 4.15194e-22)
(1.01553 -0.00103355 -3.41249e-21)
(1.02529 0.0167092 3.41006e-23)
(1.0146 -0.000119981 -1.3812e-21)
(1.01178 -0.00115617 -4.29369e-22)
(0.856801 -0.122894 0)
(1.01534 0.00144667 1.31383e-23)
(0.847004 0.360067 -1.59995e-20)
(0.990826 0.0282418 -2.33832e-21)
(1.01544 -0.00302159 -7.37809e-23)
(1.01484 0.00671076 0)
(0.859856 0.705063 -4.65671e-20)
(1.17416 0.00319692 1.08324e-20)
(1.01819 -0.00843978 -1.36642e-21)
(1.01121 -0.000184418 0)
(1.01965 -0.000773787 6.95795e-23)
(1.01752 0.000755196 1.51491e-23)
(1.02275 0.00572135 -4.30229e-24)
(1.01475 -0.0190733 1.54908e-22)
(1.01312 -0.00302141 0)
(0.896093 -0.202866 -3.03685e-21)
(1.01544 -0.00304215 3.88155e-21)
(1.01431 0.000473442 -8.50193e-26)
(0.555522 -0.227897 3.43088e-20)
(1.01468 0.0128369 4.46587e-22)
(1.01403 -0.0204132 9.51929e-23)
(1.00982 -6.31704e-05 0)
(1.01455 0.000650682 0)
(0.587639 -0.212529 -4.12958e-21)
(1.15961 0.0536532 -1.22491e-20)
(1.02034 -0.0146705 -2.06072e-22)
(1.01211 0.180191 6.82374e-22)
(1.01342 -0.00104669 -1.29379e-21)
(1.0237 0.0177844 -8.04064e-22)
(1.02055 -0.00201817 0)
(1.0156 -0.00319128 -1.93647e-22)
(1.02213 0.00148236 -1.81604e-21)
(1.02107 0.00155258 0)
(1.01366 -0.00259799 2.28252e-21)
(1.01082 0.000176274 -9.83838e-22)
(0.70686 -0.551412 -7.27952e-21)
(1.01557 0.00102484 -2.45039e-21)
(0.986695 -0.0372978 0)
(1.01626 -0.000287838 -2.49288e-21)
(1.02256 -0.0125455 0)
(1.01786 2.98796e-05 1.4413e-23)
(0.995267 -0.0232927 -9.02413e-21)
(1.00986 0.127038 0)
(1.01511 -0.00286497 -3.07624e-22)
(1.01636 -0.000488407 0)
(1.02094 -0.0357882 0)
(1.02438 -0.00379605 1.36289e-21)
(1.01785 -0.000187178 -4.26651e-23)
(1.00748 -0.301308 0)
(1.01507 0.000315518 0)
(1.08219 0.00103193 0)
(1.0123 -0.0012617 -1.62587e-22)
(1.01404 -1.02627e-05 0)
(1.01184 -0.00122396 8.09238e-22)
(1.01556 -0.217722 2.29885e-21)
(1.01774 -9.86355e-06 -2.47096e-23)
(1.01427 0.0036791 -1.56662e-21)
(1.01347 0.00250955 -1.61479e-21)
(0.973295 -0.323762 2.47112e-21)
(1.00844 0.000121452 5.38919e-23)
(1.02179 0.00176254 2.98364e-21)
(1.01063 5.4798e-05 5.88991e-23)
(0.993142 -0.118585 -4.16944e-22)
(1.01423 -0.0011209 -1.78554e-21)
(1.01716 -0.00124924 0)
(1.01473 -0.000681377 -3.55394e-22)
(1.01711 -0.00136437 0)
(1.00536 0.00485431 -4.03744e-21)
(1.0178 -0.00078719 2.78313e-21)
(1.02253 -0.0116388 0)
(1.02088 -0.00215809 -7.47212e-23)
(0.763768 -0.582787 -7.25266e-20)
(0.861959 -0.157132 0)
(0.791165 -0.0232427 9.75495e-22)
(1.02032 -0.00931266 0)
(1.0252 0.0109673 4.4611e-22)
(1.01492 -0.000138899 1.61916e-21)
(0.984868 -0.0214007 5.33717e-21)
(1.01138 -0.000151995 -2.22375e-21)
(1.02301 0.111601 1.30801e-20)
(0.924414 0.0649683 1.54046e-21)
(0.807855 -0.0509676 -5.86582e-22)
(1.07765 0.00744166 1.26116e-21)
(1.14623 -0.0678098 9.34552e-21)
(1.01333 -0.00102915 1.40135e-21)
(1.01405 -0.00245974 0)
(0.848386 -0.211208 -1.80911e-20)
(1.00831 -0.112687 2.20384e-21)
(1.01837 0.00677375 -8.2695e-22)
(1.02555 0.00270297 -2.41614e-21)
(1.01465 0.000288648 5.37962e-21)
(1.1515 0.0368658 6.30862e-22)
(1.01596 0.00223133 2.45866e-22)
(1.01367 -0.00189255 -2.19354e-21)
(1.01991 -0.00317809 7.91694e-23)
(1.01212 -0.00115372 9.12141e-23)
(1.01396 0.000159522 0)
(0.859617 -0.221104 6.87432e-21)
(1.01837 0.00359689 1.80419e-21)
(1.01188 0.000192292 -2.11002e-24)
(0.912798 -0.629568 6.74714e-20)
(1.0158 -0.00264024 -2.30924e-21)
(0.989836 -0.0194957 3.09629e-21)
(1.01905 0.00160081 -2.73904e-23)
(1.01963 0.00276727 -1.86452e-21)
(1.02082 0.00123219 7.17465e-23)
(1.01191 0.000349899 7.61497e-22)
(1.07046 0.157686 -1.10937e-20)
(1.01857 0.00441281 -3.15529e-22)
(1.02034 0.00120152 -4.77602e-22)
(0.983439 -0.0328191 0)
(1.01394 -0.00122244 2.26328e-21)
(1.01476 0.000597225 8.77199e-26)
(1.00994 8.59542e-05 1.8352e-21)
(1.01656 0.0027501 1.99721e-21)
(1.01522 0.00125358 -2.55778e-22)
(0.992106 0.0669351 8.23259e-22)
(1.00114 -0.0197131 0)
(0.873259 -0.230335 -3.47947e-21)
(1.01566 -0.000514316 -2.03203e-21)
(1.01584 0.00341859 0)
(1.01672 0.00247721 7.91127e-24)
(1.16632 0.0280224 0)
(1.00987 -0.00878104 0)
(1.02283 0.00401484 0)
(1.01649 2.49074e-05 3.09179e-23)
(1.01332 0.00223824 2.53295e-21)
(1.14196 -0.0633414 -3.08995e-21)
(1.16352 0.357299 -2.92462e-20)
(1.02167 -0.00497142 0)
(1.0163 -0.00940673 2.30175e-23)
(1.00833 -9.84684e-05 1.86255e-21)
(0.922682 -0.571504 0)
(1.02486 0.0175633 -2.13057e-22)
(1.01733 0.00909029 -1.64402e-21)
(0.993176 -0.0197243 0)
(0.845994 -0.105236 -4.30718e-22)
(0.866104 -0.16978 -1.69554e-21)
(1.15779 -0.0266046 0)
(1.01577 0.00226531 -2.10809e-21)
(1.01064 3.4256e-06 -3.75755e-23)
(1.01893 0.00472593 0)
(0.958915 -0.00567996 1.89564e-22)
(1.01555 0.00212532 -1.84952e-21)
(1.02571 0.0128301 -1.24333e-22)
(1.01715 0.00539462 0)
(1.01548 0.00152162 3.77046e-25)
(1.01981 0.00333405 -2.62176e-22)
(1.01658 0.00649725 0)
(1.0788 -0.244194 3.03498e-21)
(0.838266 -0.235502 1.5022e-20)
(1.01902 0.000174778 0)
(1.0159 -0.000703455 -2.25988e-21)
(1.01716 0.0010377 0)
(1.01646 -0.0435761 6.02279e-23)
(1.01222 -0.00128984 -7.54273e-22)
(0.780995 0.195913 5.30521e-21)
(1.01646 0.00788638 1.74635e-21)
(1.26763 0.239998 2.39326e-21)
(1.01611 0.00322938 2.45594e-21)
(1.01207 0.001446 -1.32574e-22)
(1.01495 -0.00292201 3.44322e-22)
(1.01458 -0.000542976 7.43307e-24)
(1.01418 -0.00227806 -1.63196e-21)
(1.01679 0.00225388 -3.46264e-23)
(1.01391 -0.00102223 0)
(1.01571 0.00165761 -2.63833e-21)
(1.01913 0.00842458 4.65948e-23)
(1.01816 0.0114476 0)
(0.868588 0.0245787 0)
(1.01299 -0.00101741 1.49477e-21)
(1.01038 -0.0867281 -3.25308e-21)
(0.858095 -0.130186 3.86822e-22)
(1.01088 -0.000173644 0)
(0.600046 -0.351304 0)
(1.01634 9.55075e-05 -2.75835e-21)
(1.01358 0.00319031 -1.58063e-21)
(1.01929 0.00843416 0)
(1.0112 -0.000275976 0)
(0.999439 0.17069 -2.66148e-21)
(1.01736 0.00534916 0)
(1.02046 -0.00843959 -3.1757e-21)
(1.01906 -0.00404415 -3.91849e-23)
(0.867104 -0.332547 2.65852e-20)
(1.01191 0.00128995 -1.01177e-21)
(0.975224 -0.0130846 -2.56368e-22)
(0.997443 0.0268762 -7.2541e-21)
(1.01611 0.00342884 0)
(0.953625 -0.0243197 -9.14641e-21)
(0.962938 -0.0013748 0)
(1.0192 0.00197662 2.6043e-23)
(1.01159 -0.000761115 0)
(1.03119 0.00569083 4.12775e-21)
(1.00571 4.25313e-05 -2.18931e-21)
(0.903162 0.390375 2.74547e-20)
(1.01617 0.00873233 0)
(1.00552 0.0132838 9.92903e-22)
(1.02134 0.00425008 6.94836e-22)
(1.01539 -0.000611719 -3.61735e-23)
(1.01376 -0.0013509 -1.48323e-22)
(1.02417 0.00241169 1.53657e-21)
(0.998967 -0.015411 3.70518e-21)
(1.01755 0.00794767 3.87557e-23)
(1.11488 -0.0897239 4.63244e-21)
(0.927655 0.0966965 0)
(1.01554 0.00164183 -1.49999e-23)
(1.0219 0.00641372 -2.21964e-24)
(1.01177 -0.000145431 0)
(1.0381 -0.045738 -2.68937e-21)
(1.00576 1.69791e-05 0)
(0.787676 0.210781 0)
(1.01658 0.00029269 2.23125e-21)
(1.0139 -0.00315987 2.28898e-21)
(0.929116 0.0845274 5.40563e-22)
(1.01635 0.00300469 0)
(1.03159 0.0113069 0)
(0.992346 -0.000293837 -8.33182e-21)
(1.00874 3.21854e-05 -1.84297e-21)
(0.994788 -0.0539838 0)
(1.03036 0.00328554 8.77836e-22)
(1.01476 0.0036893 0)
(1.01552 0.00645662 0)
(0.987717 -0.0112352 0)
(1.01342 0.00239238 -6.59962e-22)
(0.882405 -0.18833 2.26113e-21)
(1.01546 0.00132389 2.38627e-21)
(0.989404 -0.0135009 0)
(1.0265 0.0136168 0)
(0.93105 -0.488875 -2.84462e-20)
(1.0154 0.00604162 -1.70035e-21)
(0.996081 -0.000335157 1.29652e-21)
(1.01554 0.00129312 -6.07257e-23)
(1.01555 0.00199686 2.67294e-21)
(0.996913 0.0240074 6.64016e-21)
(1.01618 -0.00158975 0)
(0.989347 -0.00872371 0)
(1.01399 0.00361794 1.53708e-21)
(1.01694 0.000835709 -1.20326e-21)
(1.01233 0.00179134 5.51382e-22)
(1.01501 -8.70846e-05 2.43373e-21)
(1.01557 0.00645592 0)
(0.984707 0.0235005 -4.60614e-21)
(1.01225 0.000338108 -7.9509e-22)
(1.01525 4.6547e-05 -2.34864e-21)
(1.01808 -0.0416197 -3.41627e-23)
(1.01612 -0.00123402 -2.05258e-22)
(1.01638 0.00322154 -5.03776e-22)
(1.01599 -0.000383472 -2.50999e-21)
(1.01753 0.00123764 1.35516e-23)
(1.02117 -0.00648365 3.04779e-23)
(1.02563 -0.00924829 2.50359e-22)
(1.01719 -0.013391 0)
(1.04582 0.00570234 -4.43108e-22)
(1.01074 -0.040181 0)
(1.0143 -0.0024133 -2.72939e-21)
(1.00237 -0.016682 1.50468e-22)
(0.939448 0.395007 0)
(1.01323 0.0020958 -1.29859e-21)
(1.01489 0.00432898 0)
(1.01721 0.00115203 0)
(0.912043 -0.201169 0)
(0.841153 -0.105411 -6.91915e-24)
(1.01401 0.0118066 -2.03047e-21)
(1.01401 0.000567541 -9.77448e-22)
(0.977526 0.0159894 7.40252e-21)
(0.897754 0.152915 0)
(0.980695 -0.558505 -1.22939e-19)
(1.01649 0.00719915 -1.68958e-21)
(0.88424 -0.155901 0)
(1.00268 0.146611 0)
(0.81097 0.0061043 -2.62979e-22)
(1.02995 0.00448656 3.43804e-22)
(1.017 0.00224605 3.24328e-23)
(1.02169 0.00707618 -3.22401e-24)
(0.928962 0.0206018 0)
(0.994336 -0.0234909 -1.06561e-21)
(1.01591 0.0010495 0)
(0.930557 -0.596586 0)
(1.00702 0.0183753 0)
(1.01015 -0.0573629 3.04866e-22)
(1.00634 0.162914 -7.09327e-22)
(1.01349 0.00311669 2.33694e-21)
(1.00337 0.00532988 1.30171e-21)
(0.836369 0.374634 0)
(1.15484 -0.00155379 0)
(0.970022 -0.256635 0)
(0.997998 -0.0146607 0)
(0.798005 -0.621382 0)
(1.01791 -0.0123812 -1.24437e-21)
(1.14038 -0.00684154 -4.68701e-21)
(1.0139 -0.00144859 2.32892e-21)
(1.04027 0.00574275 5.81599e-22)
(1.01234 0.000282335 0)
(1.02173 0.0260445 -1.25838e-21)
(1.01533 0.000812775 0)
(1.01355 -0.00173168 4.03016e-21)
(1.0162 -0.000658767 0)
(1.11613 -0.204305 2.9483e-20)
(1.01659 0.00487772 0)
(1.01571 0.00170649 0)
(0.586582 -0.311737 -3.56918e-20)
(1.01399 -0.00156076 5.82873e-22)
(1.01557 0.0173633 1.14993e-21)
(1.01667 0.00760932 1.62965e-21)
(1.12138 -0.0797158 -2.31605e-21)
(1.01307 0.000229368 -8.23069e-24)
(1.01296 0.00284641 0)
(1.02116 -0.00565451 9.49937e-24)
(1.01512 0.00492283 2.03615e-22)
(1.0156 -0.0024586 1.62717e-21)
(1.02612 0.0147082 0)
(1.01542 0.00134095 -1.81843e-21)
(0.584263 0.238604 -6.12758e-21)
(1.00499 0.016801 0)
(1.07151 -0.0912784 1.59358e-21)
(1.01676 0.00510961 1.06253e-21)
(0.881107 -0.16608 6.24615e-21)
(1.01486 0.00134975 0)
(1.03585 0.0146482 -3.56324e-21)
(1.00509 -0.0477455 1.16484e-22)
(1.01656 0.00807044 -8.10365e-22)
(1.01576 -0.00285425 1.91096e-21)
(1.01818 0.000912668 1.16851e-25)
(1.01485 0.0048026 -2.01876e-22)
(1.01274 -0.000142575 1.81805e-21)
(1.10238 -0.0598269 6.11668e-20)
(0.996759 -0.0268919 4.1176e-21)
(1.0168 0.00269887 7.44744e-24)
(1.00262 -0.463106 5.32866e-20)
(1.01453 -0.000282426 2.29764e-22)
(1.0148 -5.06576e-05 -2.23633e-23)
(0.987774 0.156852 1.06186e-20)
(1.01712 0.000736995 2.83116e-23)
(1.01375 -0.000202983 -2.89545e-21)
(1.03394 -0.405604 3.81288e-20)
(1.01507 0.000499993 -1.64899e-21)
(0.941843 -0.0635955 -4.44593e-21)
(1.01528 0.00580664 -3.70988e-21)
(0.990896 -0.0262122 4.67557e-21)
(1.0182 0.0175564 -4.32182e-22)
(0.998581 -0.0272235 -4.08908e-21)
(1.01598 0.00722901 0)
(1.01563 -0.00335002 -2.51303e-21)
(1.08698 -0.669911 -3.35039e-20)
(1.07036 -0.645754 0)
(1.01642 -0.000380314 5.76147e-21)
(0.992802 -0.0110447 5.46211e-21)
(1.13666 -0.205105 7.28923e-21)
(0.605658 0.314453 -8.7203e-21)
(0.891242 0.052484 0)
(1.01021 0.00018832 4.67224e-23)
(1.0116 0.000221631 0)
(1.01528 0.000547464 1.6102e-23)
(1.01354 -0.00284157 -2.24872e-21)
(1.02868 0.00464787 -3.46966e-22)
(1.06988 0.00990315 -9.16409e-23)
(1.02419 0.0111303 -1.16183e-22)
(1.0176 0.000879729 -1.60561e-23)
(1.02397 0.0232187 0)
(0.937292 -0.109479 -1.01553e-21)
(0.846326 -0.122945 6.11377e-22)
(1.01763 0.000687572 0)
(1.01703 0.000956663 -3.11064e-23)
(1.01178 0.000163607 -2.74862e-23)
(1.01454 0.000458564 -2.73969e-21)
(0.751859 0.183945 1.0494e-20)
(0.947525 0.0499964 8.43463e-23)
(1.01934 -0.00539349 -9.8552e-24)
(1.02316 0.0140939 0)
(0.969498 -0.00346299 1.86766e-21)
(1.02454 0.00188551 -1.3996e-21)
(1.01292 -2.82044e-05 -8.05333e-23)
(1.13575 -0.344023 0)
(1.00844 -0.00957452 6.2821e-21)
(1.03794 -0.00175123 5.25625e-22)
(1.02619 0.00598017 -2.93087e-22)
(1.01116 0.000192402 1.86116e-21)
(1.01547 -0.000209619 -5.90546e-22)
(1.02529 -0.00846036 -5.05461e-22)
(0.991995 -0.0236072 1.05269e-21)
(1.13042 0.00750364 7.71877e-22)
(1.02327 0.00225705 1.33347e-21)
(0.932193 -0.0790633 -2.18264e-21)
(0.937137 -0.0979678 2.04458e-20)
(0.91896 -0.298064 6.17118e-21)
(1.01432 0.0111035 2.87624e-21)
(1.00885 -0.00880182 -4.15468e-21)
(1.06673 -0.455824 0)
(1.02414 0.0239804 -1.52543e-21)
(1.01898 0.136659 7.64191e-22)
(1.02658 0.0222819 0)
(1.01418 -0.00264691 0)
(1.01917 0.00357777 -2.71961e-21)
(0.939577 -0.440976 0)
(1.17419 0.113818 -5.43836e-20)
(1.02557 0.00794019 1.3781e-21)
(1.02247 0.0132476 -6.41795e-22)