/*--------------------------------*- C++ -*----------------------------------*\
| =========                 |                                                 |
| \\      /  F ield         | OpenFOAM: The Open Source CFD Toolbox           |
|  \\    /   O peration     | Version:  v2012                                 |
|   \\  /    A nd           | Website:  www.openfoam.com                      |
|    \\/     M anipulation  |                                                 |
\*---------------------------------------------------------------------------*/
FoamFile
{
    version     2.0;
    format      ascii;
    class       volScalarField;
    location    "700";
    object      k;
}
// * * * * * * * * * * * * * * * * * * * * * * * * * * * * * * * * * * * * * //

dimensions      [0 2 -2 0 0 0 0];


internalField   nonuniform List<scalar> 
10042
(
0.00033234
0.0153766
0.000334367
0.000141641
0.000141804
0.00546249
0.000345775
0.00619037
0.000134389
0.000193377
0.00204899
0.0155181
0.000167374
0.000140404
0.000145839
0.000140336
0.00819221
0.00137965
0.000152937
0.000157503
0.00016727
0.000260628
0.000141527
0.00534792
0.000140887
0.000150567
0.000190038
0.000133774
0.00588317
0.00653846
0.000155238
0.000168624
0.000134167
0.000134119
0.00585575
0.00559143
0.000149395
0.000135383
0.00014856
0.000139007
0.00575903
0.000134284
0.00171532
0.00860177
0.000141224
0.000140886
0.000132486
0.000145553
0.00019967
0.0771301
0.00350817
0.000140605
0.00747927
0.000152486
0.0136875
0.000844032
0.000166271
0.000190567
0.000146147
0.000130449
0.000199724
0.000787709
0.000185904
0.0074745
0.000268198
0.000144344
0.000155333
0.000701894
0.000132303
0.000596229
0.0282559
0.000149372
0.000136877
0.000145895
0.000143868
0.0176872
0.000265309
0.000132457
0.000282299
0.000152974
0.00625585
0.00539227
0.000166299
0.000139967
0.00017559
0.000239052
0.00015391
0.00027225
0.0001406
0.000225386
0.00015998
0.000145951
0.000190767
0.00024487
0.000199459
0.000143289
0.0599853
0.00015589
0.00376439
0.000145685
0.000159544
0.000221218
0.000146351
0.000165129
0.000155204
0.000145159
0.0498531
0.000143368
0.000317903
0.000145486
0.000145439
0.000281664
0.000216055
0.00672852
0.000253973
0.000132254
0.00019616
0.000153527
0.000213702
0.000132113
0.000130429
0.0210135
0.0219099
0.00014132
0.000238103
0.000141171
0.000141403
0.0113313
9.19131e-05
0.000194455
0.000135239
0.000142334
0.000142632
0.000142695
0.000278445
0.0125313
0.000155209
0.046853
0.000150351
0.00503676
0.000196524
0.000137609
0.0500083
0.000133819
0.0001586
0.000135404
0.000173231
0.000132202
0.000147521
0.00685104
0.000142804
0.000143485
0.000151282
0.000171059
0.000215507
0.000159092
0.000144208
0.00120328
0.000142686
0.000153385
0.000151697
0.000144223
0.00741277
0.000140859
0.00014923
0.00516587
0.000136784
0.000166226
0.00550846
0.000133891
0.000221569
0.00727916
0.0253093
0.00013399
0.000152471
0.0243943
0.000141199
0.000135303
0.000141876
0.000132307
0.000150093
0.00015568
0.000145934
0.000131997
0.00521045
0.000159626
0.000149739
0.000130916
0.100736
0.000145004
0.0134223
0.000166261
0.000135392
0.000155188
0.0130755
0.00014588
0.0836765
0.000742085
0.080597
0.000140107
0.00639884
0.000198487
0.000105615
0.00013635
0.00460906
0.000142236
0.0076875
0.000170984
0.000145158
0.000142937
0.00016763
0.000135303
0.000419838
0.000260442
0.000150378
0.00049233
0.000135917
0.00860227
0.000143634
0.00451207
0.126431
0.000237367
0.124154
0.000490616
0.000141616
0.000194327
0.000146146
0.000154121
0.000180171
0.000146608
0.000135322
0.000141774
0.000159768
0.000159567
0.000141165
0.00586492
0.000152672
0.0605953
0.000157101
0.00524511
0.00188287
0.00868054
0.000130357
0.0001497
0.0219082
0.000142483
0.00808952
0.000156425
0.000151529
0.000145869
0.000154479
0.00013549
0.00532415
0.0167481
0.000147045
0.000151852
0.000148227
0.000147016
0.0611306
0.000141599
0.000242305
0.000135829
0.000140492
0.000132582
0.000168063
0.0196922
0.000230396
0.00582864
0.000160721
0.000141854
0.000143413
0.054018
0.000139596
0.0662702
0.000146654
0.000182702
0.000149055
0.000140996
0.000161415
0.0152306
0.000133755
0.00886974
0.06861
0.000148782
0.000160101
0.0711417
0.000132804
0.000132862
0.000323683
0.000146576
0.000165238
0.000182865
0.000162745
0.0101627
0.000258127
0.000140021
0.0161255
0.000153941
0.000143497
0.000136422
0.000151023
0.000245422
0.000130945
0.00291358
0.000151126
0.00145319
0.000140372
0.000157775
0.014867
0.00982479
0.000154316
0.000142072
0.000143155
0.000140028
0.000183232
0.000283678
0.000132614
0.00456688
0.00521478
0.000132176
0.000152996
0.0774199
0.000188449
0.0038198
0.00504362
0.000153159
0.000174245
0.000141683
0.000152892
0.000164163
0.000142223
0.000143769
0.000323093
0.000145359
0.00656724
0.000312192
0.054264
0.00295167
0.00013564
0.00402404
0.00019599
0.00016868
0.000130384
0.000174365
0.000155974
0.000135217
0.000138883
0.000143064
0.000158451
0.072594
0.000147454
0.000242478
0.000157225
0.000137133
0.00248063
0.000173225
0.00014629
0.000165547
0.09285
0.00015717
0.000144846
0.000150383
0.000149198
0.00573432
0.0036392
0.000149529
0.000140971
0.000151961
0.00015304
0.00380684
0.000130579
0.000168088
0.000139938
0.000150239
0.000227188
0.00014149
0.000198993
0.000343821
0.0210308
0.000222358
0.000144086
0.000542088
0.000179964
0.000141416
0.000175344
0.000132195
0.000144809
0.000132034
0.000142885
0.000132855
0.000146578
0.00975508
0.000147432
0.000196564
0.00353121
0.011869
0.000142096
0.00601325
0.000150128
0.000169098
0.000140714
0.104035
0.00014325
0.00821002
0.0520658
0.000137303
0.000193292
0.000140642
0.000802973
0.000146285
0.0116451
0.000160409
0.00929223
0.00014714
0.00796059
0.000148925
0.000162182
0.0054738
0.000132905
0.000147787
0.00014319
0.00365922
0.00013526
0.000131893
0.000198749
0.000153703
0.000180949
0.01123
0.000141452
0.000168692
0.000153727
0.000132452
0.000160664
0.00545868
0.000139494
0.000148843
0.00646396
0.000186221
0.000153137
0.00126999
0.000133978
0.000178551
0.000173101
0.101875
0.028758
0.00793231
0.00780194
0.0023993
0.00695638
0.000131799
0.000179473
0.0163603
0.0168478
0.000174695
0.000141516
0.000139128
0.000254401
0.00509209
0.00013202
0.00013358
0.000157509
0.0001419
0.000141436
0.000142339
0.000142575
0.00016291
0.000368026
0.000148728
0.000178677
0.000241836
0.00140298
0.000134489
0.0797864
0.00827263
0.00450788
0.000143821
0.000156124
0.000151921
0.010308
0.000143498
0.000596027
0.000147121
0.00327412
0.000139052
0.000154442
0.000133529
0.000181291
0.0135273
0.0001509
0.00013948
0.000142381
0.0106329
0.00013574
0.000193725
0.000239876
0.000192888
0.000136335
0.000182109
0.01096
0.000874879
0.000144576
0.000156272
0.00895111
0.0117673
0.000177705
0.00406444
0.000146315
0.00212313
0.000168592
0.000163783
0.000154408
0.00865237
0.000136155
0.000141401
0.000146009
0.0109795
0.000141389
0.000605594
0.000141898
0.00014425
0.000134726
0.000162009
0.00443738
0.000146426
0.0001488
0.00620019
0.000754787
0.000181178
0.00014626
0.000143021
0.00247757
0.00100611
0.00014433
0.000133427
0.000208936
0.000143491
0.000143331
0.00387016
0.000135163
0.0205968
0.000140774
0.000183712
0.00016043
0.117074
0.000141472
0.000157111
0.000144725
0.000136456
0.00567958
0.000130345
0.00495797
0.0001774
0.00013441
0.000164213
0.0589298
0.00457644
0.00018082
0.000145066
0.00013339
0.000132123
0.000136808
0.000175445
0.000145627
0.0183126
0.000143064
0.00013461
0.00075258
0.000155393
0.000176012
0.000155603
0.000139185
0.000587665
0.00577324
0.000156428
0.00958227
0.000143374
0.000158243
0.000134213
0.000134469
0.000142774
0.000142122
0.0001447
0.000145349
0.089304
0.00014677
0.000166982
0.000140698
0.000149074
0.000132686
0.000191662
0.00603528
0.000134481
0.000140894
0.00437742
0.000199661
0.000132824
0.0217454
0.000141249
0.000246056
0.000135486
0.00015078
0.000136323
0.0872687
0.000132741
0.000140807
0.000142015
0.0224753
0.000154258
0.000142587
0.000145526
0.00207469
0.000142075
0.000141568
0.000137062
0.00014163
0.000155121
0.000141323
0.000146562
0.000134359
0.0580645
0.00864658
0.0112386
0.000146259
0.000153421
0.000143222
0.00327514
0.000149676
0.00523807
0.0040742
0.00854258
0.000206786
0.00761024
0.000143373
0.000143972
0.01227
0.00135316
0.000170892
0.00018323
0.000145926
0.00631917
0.000139653
0.000144702
0.000134593
0.000135648
0.000151334
0.0121522
0.000148764
0.000149459
0.0252019
0.000142636
0.00352769
0.00013738
0.000148505
0.000170384
0.00014488
0.00581407
0.000141766
0.000141757
0.000229528
0.000144451
0.000132577
0.000156313
0.000140061
0.000139182
0.00789798
0.00639951
0.013127
0.000145309
0.000140358
0.000140026
0.00629904
0.000149939
0.000143621
0.000137882
0.000138607
0.00720833
0.0820581
0.000205007
0.000146444
0.000159896
0.0624085
0.000157806
0.00016526
0.000179677
0.0076241
0.00220688
0.00667967
0.000139554
0.000145106
0.000142094
0.00768589
0.000139442
0.000154575
0.000142526
0.000130403
0.000171309
0.000144383
0.109352
0.110938
0.000132748
0.00014113
0.000131779
0.00722761
0.00013556
0.0107392
0.000149879
0.0985566
0.000140221
0.000139462
0.00013452
0.000141314
0.000143593
0.000131547
0.00014359
0.000147369
0.000208438
0.000153754
0.0114401
0.000143401
0.000473747
0.00844378
0.000152675
0.000921735
0.000140432
0.000141771
0.000145705
0.000146875
0.0103968
0.000142488
0.000145965
0.000134869
0.0194544
0.000139093
0.00786034
0.000172999
0.000140435
0.000227134
0.00720224
0.000136554
0.000137026
0.000182988
0.000168032
0.000220492
0.000184989
0.000277481
0.0001807
0.000145091
0.000144822
0.0001442
0.000163919
0.000148254
0.00220037
0.000259161
0.000130394
0.000138278
0.000148702
0.000173804
0.000168121
0.00986203
0.000146404
0.000144586
0.00340129
0.000140118
0.000182432
0.000165555
0.000161185
0.00762733
0.000149241
0.00014067
0.000145216
0.0001759
0.000140809
0.00543449
0.000147053
0.000175505
0.000154916
0.024822
0.000144539
0.000161926
0.00015147
0.000147631
0.000171866
0.000133925
0.000170967
0.000141078
0.00014692
0.000139807
0.000143612
0.000150715
0.000179289
0.000152816
0.000145558
0.00804312
0.000134059
0.000140307
0.00014077
0.000131899
0.000211354
0.000143765
0.000147926
0.000193945
0.00805005
0.00014348
0.000225262
0.000109528
0.000138444
0.000141749
0.000131776
0.00451184
0.00851102
0.000154785
0.000140115
0.00018366
0.000482352
0.0394623
0.000146282
0.00523223
0.000535708
0.0124255
0.000148694
0.000131799
0.000140428
0.00671327
0.00045316
0.00014683
0.0601115
0.00042131
0.00710988
0.0108956
0.000142396
0.000225094
0.00199048
0.000221027
0.0210257
0.000163736
0.0670448
0.000147459
0.00611738
0.000144331
0.000184099
0.000153912
0.000182927
0.000131029
0.000145042
0.000141057
0.0162024
0.000142001
0.000130484
0.000721997
0.000143788
0.000158899
0.000147158
0.0017422
0.000143577
0.000149191
0.00014496
0.000142736
0.000142545
0.000155749
0.000139277
0.00698642
0.000372952
0.000272727
0.000142214
0.0146392
0.00013893
0.000182424
0.0065448
0.000158028
0.000142781
0.00013225
0.000142719
0.000150211
0.00841018
0.00019591
0.000140158
0.0248475
0.000142109
0.000145303
0.00598886
0.000132027
0.00014578
0.0237651
0.000139831
0.0114303
0.00015033
0.000210895
0.000158637
0.000188371
0.000167396
0.000143265
0.037484
0.0513346
0.000140798
0.000168151
0.110507
0.0117608
0.000269852
0.000154535
0.000137928
0.000156253
0.000144974
0.000144683
0.00564867
0.000153446
0.000132102
0.000164837
0.00454376
0.00871616
0.000132225
0.000131786
0.000150871
0.00014625
0.00759912
0.00836781
0.000135671
0.000155348
0.00132939
0.000144476
0.000155075
0.0728054
0.000151389
0.00359825
0.000140752
0.000145026
0.00014542
0.000142405
0.00016568
0.000208034
0.000143485
0.0100135
0.0137255
0.020957
0.000154032
0.000150805
0.0728309
0.000167315
0.0112959
0.0001619
0.000143871
0.000141514
0.0229442
0.00288604
0.000147854
0.000154871
0.000169766
0.000141552
0.000221476
0.000148001
0.000141372
0.000151511
0.000165825
0.000140568
0.00014109
0.118886
0.000139258
0.000137766
0.000181128
0.000156674
0.00904403
0.00015423
0.000145945
0.0205448
0.000183297
0.000155225
0.000169858
0.0063555
0.000140623
0.000134382
0.000156239
0.00175411
0.00013978
0.000144299
0.000141408
0.000135746
0.000139771
0.0150975
0.000144661
0.00570595
0.000144457
0.000177045
0.000135542
0.000146754
0.000189397
0.00913065
0.000278193
0.000142906
0.000151826
0.00228571
0.000291829
0.000154741
0.000148526
0.00659233
0.000140778
0.000166748
0.000200901
0.000138737
0.000151066
0.000140763
0.000199062
0.0530176
0.00573731
0.000137552
0.000148438
0.000157258
0.000189455
0.00013867
0.000137033
0.000173268
0.000131167
0.000138158
0.00455142
0.000144456
0.0185637
0.0001352
0.000137242
0.000134616
0.000171036
0.000145328
0.000141281
0.00268076
0.00013831
0.000145293
0.0133207
0.00014178
0.000192477
0.000156071
0.0117592
0.0080622
0.000153134
0.00548195
0.000157967
0.000144431
0.112544
0.000148229
0.000140968
0.000132415
0.000140536
0.000168087
0.0232027
0.000176811
0.00964736
0.0112502
0.00632607
9.99331e-05
0.007299
0.000153156
0.0038457
0.000133812
0.000158804
0.000145309
0.000146635
0.00014746
0.00228321
0.0100059
0.000142935
0.00968714
0.000137497
0.000258643
0.000144337
0.000153493
0.000147908
0.000191573
0.00919225
0.000142067
0.000132952
0.0484825
0.000186223
0.000172065
0.000163063
0.00902655
0.000145419
0.0073678
0.00399786
0.000139064
0.000137905
0.000140215
0.000156381
0.00014309
0.000149132
0.000150547
0.000139008
0.000145532
0.000145633
0.000138201
0.00390754
0.0103902
0.000133164
0.000343303
0.000151084
0.000170209
0.000185379
0.000518271
0.000139028
0.000171813
0.000195816
0.000135523
0.00018189
0.0077754
0.000146284
0.000138041
0.000153143
0.00975046
0.0111511
0.000135408
0.00718275
0.000145515
0.000145611
0.0323465
0.000139346
0.00013711
0.000137627
0.000137699
0.000144068
0.00640802
0.000167536
0.000139019
0.000143015
0.000139566
0.000141412
0.00900788
0.000132743
0.000165914
0.00288561
0.00539461
0.000137652
0.0101584
0.000137848
0.000211764
0.000149034
0.000222089
0.000133749
0.0130389
0.0726657
0.0534888
0.000143944
0.000239416
0.00709706
0.00631644
0.000145031
0.00663717
0.000141223
0.0078051
0.00917699
0.00016949
0.0524226
0.00652858
0.00504258
0.0833394
0.00024266
0.00815763
0.000137784
0.000155612
0.00646333
0.000203566
0.000142915
0.00415861
0.000148507
0.000139338
0.000136742
0.000211008
0.000203826
0.000169877
0.00658801
0.000163699
0.00611254
0.000149129
0.000140932
0.000140565
0.00545867
0.005347
0.000163488
0.00875881
0.000146614
0.000147197
0.000167219
0.00622163
0.000180404
0.00013934
0.00553811
0.0171981
0.000148347
0.00021222
0.000135866
0.000164919
0.000210694
0.000138963
0.00391151
0.00341567
0.000142657
0.000149088
0.000140169
0.00945929
0.000154904
0.0178154
0.00157737
0.000140513
0.000139576
0.000133505
0.000169824
0.000137838
0.000169501
0.000154471
0.000165722
0.00446895
0.000148194
0.000159488
0.00754159
0.000148142
0.000185662
0.000151025
0.000144064
0.0572543
0.00981503
0.00014667
0.052363
0.000153809
0.00442713
0.00013941
0.00013787
0.000177215
0.000154642
0.000184817
0.00387516
0.000146688
0.000153927
0.00122502
0.00018054
0.000153573
0.0101164
0.000271455
0.00710513
0.000140274
0.000132531
0.000237781
0.000138966
0.0104941
0.00572925
0.000208142
0.00496467
0.000147249
0.000137641
0.0141774
0.00611334
0.000140931
0.0384517
0.000167111
0.000142079
0.00018789
0.0001491
0.000145005
0.00017519
0.000154362
0.000137024
0.000152024
0.000140682
0.000153827
0.00631441
0.000161874
0.00824575
0.000143226
0.000158387
0.000140013
0.000142745
0.00753889
0.000144871
0.00800899
0.00367859
0.000149035
0.00517099
0.000163836
0.00217231
0.000131888
0.00741113
0.000179736
2.70196e-05
0.000152793
0.00015291
0.000138811
0.000482302
0.0001535
0.00450008
0.000165493
0.00013576
0.00232131
0.000131622
0.09648
0.000140638
0.00861109
0.000142251
0.000137432
0.00013448
0.00778894
0.000139341
0.000135431
0.00013398
0.000139884
0.000143337
0.000205592
0.00293661
0.000135767
0.000156677
0.000146008
0.000140518
0.00013868
0.00616779
0.0447037
0.000155353
0.000143665
0.000138774
0.000134543
0.00015535
0.0001549
0.000134228
0.00803609
0.0080636
0.00311662
0.000135221
0.000139907
0.000143019
0.000151427
0.000137893
0.000148656
0.000143255
0.000139205
0.000184976
0.0001492
0.000176826
0.0316844
0.0620965
0.000140971
0.000140495
0.000141404
0.0948554
0.000141367
0.000161452
0.000167086
0.000136918
0.000143362
0.000141152
0.017867
0.000143953
0.00433975
0.00594668
0.000173448
0.000143088
0.000155725
0.00661184
0.000153346
0.000171827
0.000155905
0.000166633
0.000136621
0.000156211
0.000368723
0.00592644
0.000138323
0.000144755
0.0104521
0.000154158
0.000171759
0.000168099
0.00505015
0.000142855
0.000155744
0.0014973
0.00263635
0.000191083
0.000135959
0.000140894
0.000138071
0.000145675
0.000329855
0.00337842
0.00177265
0.000137793
0.103913
0.000155143
0.00501691
0.0073675
0.000141062
0.0333031
0.000776799
0.000138584
0.000208094
0.000167139
0.000145341
0.00660381
0.000139425
0.026035
0.000155579
0.007484
0.0128487
0.000175309
0.000143587
0.000155757
0.000148585
0.000139881
0.000135108
0.000134927
0.000603261
0.000147932
0.000172898
0.00599617
0.0546114
0.00017283
0.000166461
0.000136398
0.0418184
0.000132236
0.00609401
0.0856747
0.0480331
0.0296123
0.00767629
0.00089468
0.00013388
0.000145056
0.000134508
0.000208783
0.000152049
0.0160912
0.000154109
0.113416
0.000157879
0.000135747
0.000135047
0.000145078
0.00013387
0.00544104
0.00923281
0.0583052
0.000138585
0.000168104
0.000153401
0.000150364
0.000205882
0.000144051
0.00320077
0.0090862
0.000148168
0.000141887
0.00641042
0.000157749
0.000246759
0.00920755
0.000146749
0.00430567
0.000153118
0.106692
0.000140387
0.000203703
0.000142658
0.00123602
0.000197916
0.0245085
0.00964252
0.0920819
0.00011035
0.000233174
0.000139725
0.000139675
0.010863
0.00721066
0.00019412
0.00015767
0.122641
0.00231077
0.0102385
0.000169251
0.0201136
0.000155947
0.000167475
0.00336127
0.000146821
0.000154585
0.000167194
0.000132707
0.000136881
0.000140387
0.000143299
0.0643179
0.000148168
0.00739857
0.000208922
0.000598408
0.00741419
0.00836637
0.000134625
0.000147392
0.00655391
0.000285806
0.000162648
0.00876945
0.0295266
0.00918811
0.00013943
0.000165268
0.000154409
0.000210182
4.56459e-05
0.0102425
0.00789628
0.000175608
0.000144848
0.000151057
0.000293162
0.00023924
0.000175626
0.00554634
0.00014042
0.000167388
0.000150909
0.019711
0.00015201
0.000136005
0.000139984
0.000150608
0.0194009
0.0083727
0.000146905
0.000199307
0.00787969
0.000149314
0.000821682
0.000167706
0.000165481
0.000165937
0.000167739
0.00286369
0.000141364
0.000138885
0.000151847
0.000254398
0.000207379
0.000168575
0.000148797
0.000151057
0.000146529
0.0160582
0.000170382
0.000152029
0.00014615
0.000398023
0.000156062
0.00959311
0.000150468
0.000163454
0.000140911
0.00669022
0.000341588
0.00017349
0.0598977
0.000136744
0.000163649
0.00326642
0.000156783
0.00572929
0.00853469
0.000145728
0.00015046
0.0393571
0.000143065
0.0205949
0.000145773
0.0237201
0.00824489
0.00145728
0.000151523
0.000140603
0.000141782
0.000142975
0.000154728
0.000132242
0.000145436
0.000140412
0.000138436
0.000152701
0.000151193
0.000144746
0.000150103
0.0374736
0.000144915
0.0503385
0.000147944
0.000144836
0.00330243
0.000141283
0.0490224
0.00860404
0.000144546
0.000148712
0.000169634
0.00425049
0.000167773
0.0691092
0.000162009
0.000148207
0.0160341
0.00013809
0.125188
0.000145322
0.000209542
0.000133467
0.00259806
0.0570907
0.00944017
0.000147235
0.000152764
0.000139095
0.000151744
0.00141397
0.000140269
0.000143171
0.000172666
0.000165588
0.0169289
0.00229602
0.00014823
0.000176205
0.000144152
0.000157874
0.00014945
0.000143202
0.0001485
0.064897
0.0130829
0.00022619
0.000152078
0.000148488
0.000150246
6.66601e-05
0.0432376
0.000194676
0.00677279
0.00456402
0.00015059
0.000152551
0.000206641
0.000139224
0.000152724
0.000160679
0.00015022
0.00740272
0.000150459
0.00840623
0.00013698
0.00014829
0.00019668
0.000150909
0.000152446
0.000153644
0.000158737
0.00575704
0.000148397
0.000142279
0.000145195
0.0737268
0.0038194
0.000154112
0.000145827
0.000138516
0.000152378
0.000143227
0.000221076
0.000140076
0.000138275
0.000144984
0.000158963
0.00016074
0.000145094
0.0657583
0.000147702
0.000148767
0.000457622
0.00015211
0.000154147
0.000228534
0.000147769
0.0189653
0.000139329
0.000138589
0.000148507
0.000162312
0.000136749
0.00536544
0.000148516
0.000141102
0.00471144
0.00846942
0.00334677
0.00679877
0.00699894
0.000157546
0.000137559
0.000151528
0.00618183
0.000160592
0.00750308
0.000149488
0.000163119
0.000192144
0.000194489
0.000138361
0.111171
0.00303459
0.000140413
0.000157351
0.000147175
0.000148863
0.000358298
0.000260618
0.000144961
0.000139099
0.000133752
0.00761464
0.000146601
0.00280023
0.000166756
0.000146243
0.000140267
0.000141158
0.0394034
0.000185599
0.000139822
0.00282339
0.00220441
0.000148353
0.00923362
0.000145845
0.000137653
0.000138366
0.000145108
0.000134465
0.00014384
0.000146591
0.000150415
0.000145791
0.000188903
0.000151479
0.00656107
0.000164923
0.000142761
0.000341111
0.000133709
0.000137432
0.000194296
0.000140231
0.00563149
0.000141037
0.000210366
0.108475
0.000137977
0.000558467
0.00541615
0.000144593
0.000147654
0.000143238
0.000543422
0.00014545
0.00653572
0.00821337
0.000151157
0.000159326
0.000178442
0.000550894
0.000143908
0.00128339
0.000146443
0.000820495
0.000347665
0.000142671
0.00680804
0.000140474
0.000187876
0.00561602
0.000313283
0.000144838
0.00017572
0.000150964
0.000174823
0.000136777
0.000155299
0.0310737
0.000158192
0.00144624
0.000971564
0.000168045
0.00726012
0.000137415
0.000222675
0.000145188
0.000157018
0.0031793
0.00709737
0.123217
0.000166496
0.000156004
0.0237893
0.000167848
0.000140524
0.000137966
0.000148048
0.000149207
0.000155192
0.000141283
0.0200674
0.000156618
0.000141203
0.00013412
0.000142915
0.000142557
0.000264274
0.000138705
0.0243795
0.000148971
0.0211626
0.000144059
0.000144734
0.000131525
0.000187678
0.000143171
0.0873812
0.0246557
0.00546782
0.000156352
0.000148501
0.00014365
0.000140167
0.000139728
0.007617
0.000147229
0.000147889
0.00494873
0.0001441
0.000149549
0.112689
0.000383173
0.0196856
0.000140431
0.0258988
0.00304956
0.00014087
0.000138436
0.000164791
0.0201649
0.0034537
0.00848878
0.000382951
0.000143247
0.000138759
0.00110848
0.000160385
0.000147336
0.000168708
0.000146713
0.000151446
0.0104833
0.00254735
0.000172679
0.000157227
0.000154527
0.000178787
0.0169303
0.000145066
0.000140061
0.00014393
0.000938234
0.000139814
0.000154335
0.0196106
0.11429
0.000137006
0.000139982
0.000131671
0.000145273
0.000143954
0.000171697
0.000289042
0.000149131
0.00172881
0.00518537
0.000288187
0.000166383
0.00014804
0.000144476
0.000142028
0.000138971
0.000133684
0.000145022
0.00459577
0.0113819
0.000136766
0.000137491
0.000146439
0.000145378
0.00355302
0.000173556
0.0216213
0.00631231
0.000386804
0.000199195
0.000142763
0.000142077
0.000142333
0.000145258
0.0187149
0.000143036
0.000153592
0.000307729
0.0134962
0.0101026
0.000278921
0.00772674
0.00872228
0.000143206
0.000167873
0.0207987
0.00748811
0.000144123
0.0001435
0.000137672
0.000144257
0.000144627
0.00374561
0.000141435
0.000141422
0.00941009
0.000152978
0.0231863
0.000142579
0.000137997
0.000169113
0.00031936
0.000203983
0.0094326
0.000154859
0.0164628
0.000169828
0.000140503
0.00945395
0.000141296
0.000152365
0.000145575
0.000137709
0.126655
0.0127868
0.102986
0.000235186
0.00580454
0.00180012
0.0091361
0.000139448
0.000145873
0.000404441
0.000143114
0.000146387
0.000152753
0.000143793
0.0198697
0.000145498
0.0104776
0.000576679
0.000133773
0.0238182
0.000144659
0.000141761
0.0001627
0.000161924
0.000163984
0.000166356
0.000167131
0.0036916
0.000145422
0.000142643
0.000136362
0.000168478
0.00138277
0.000140028
0.000146369
0.00017909
0.0134653
0.000140962
0.000168013
0.000168327
0.00013528
0.000143365
0.000141812
0.0161346
0.0269319
0.000168274
0.000149867
0.000143489
0.000164362
0.00588219
0.000145032
0.00571284
0.00893927
0.000145189
0.000165451
0.0360985
0.0297734
0.000173521
0.000134556
0.000138744
0.0145622
0.000102279
0.0265371
0.00015793
0.00830566
0.00018394
0.0173194
0.00519399
0.116853
0.000960027
0.019383
0.00951501
0.0134
0.000147539
0.0101518
0.000142674
0.0130356
0.00015064
0.000149098
0.000167938
0.0128751
0.0053383
0.000151094
0.000144667
0.00324998
0.0169216
0.00594153
0.00013892
0.000140789
0.000143012
0.000156193
0.000144586
0.000167303
0.0208394
0.00784702
0.00015529
0.000141141
0.000149471
0.000146513
0.000143711
0.0013202
0.00014366
0.000153469
0.000133959
0.00659143
0.000190905
0.00925358
0.000144106
0.00263992
0.00321994
0.000163208
0.00512286
0.0373494
0.00202556
0.0140504
0.00014085
0.000144812
0.000208556
0.00014422
0.000145315
0.000141778
0.000146635
0.000162246
0.000166212
0.000140672
0.00250612
0.000138936
0.00173331
0.000146905
0.00522181
0.0166463
0.000175197
0.048985
0.0210666
0.000193835
0.00162114
0.0187377
0.000147586
0.000145609
0.000182786
0.000161236
0.0156737
0.000140587
0.000146002
0.0174813
0.00014313
0.000138884
0.000145954
0.00013407
0.00316743
0.000145418
0.000166304
0.000146143
0.0497025
0.000142487
0.00209067
0.00291173
0.00370681
0.0253924
0.000134206
0.000167464
0.000146029
0.000143164
0.0187154
0.00126034
0.000434623
0.00419663
0.000133315
0.000149506
0.000154304
0.000144314
0.00433782
0.000140322
0.000163021
0.0274447
0.00600287
0.000247307
0.000142498
0.000146005
0.0236179
0.000169416
0.000262792
0.00608789
0.0106641
0.0210501
0.000151687
0.000140391
0.000140211
0.000145729
0.00232075
0.000151019
0.000558821
0.000143959
0.000145531
0.00191326
0.000134766
0.000740343
0.000164728
0.000145107
0.000167969
0.0146387
0.000138614
0.000148497
0.0119599
0.000144319
0.000144739
0.000171373
0.101882
0.000154956
0.000184665
0.000136891
0.0198495
0.00650442
0.000216879
0.000144271
0.00013862
0.000166491
0.000144729
0.0016424
0.00983912
0.00806853
0.0229331
0.000142763
0.000138517
0.000140703
0.000238056
0.000144201
0.0121225
0.0048745
0.00014393
0.0111337
0.000143041
0.0621719
0.000168264
0.000136654
0.000235463
0.00013942
0.000140152
0.000137877
0.00013258
0.000157226
0.0256568
0.000144475
0.000137752
0.000202494
0.00013427
0.000146002
0.000149129
0.000141885
0.000143888
0.00715869
0.000175347
0.000133098
0.000150158
0.000150043
0.000143539
0.0225293
0.0159529
0.000143846
0.00014051
0.000145519
0.000407153
0.000145278
0.000147458
0.000149947
0.000202766
0.000133255
0.000150511
0.00508871
0.000144706
0.00321458
0.000142569
0.000144203
0.000140855
0.000141743
0.000138167
0.00014318
0.0176251
0.00609012
0.000137901
0.000145938
0.000152638
0.00156262
0.000164033
0.000190154
0.000142806
0.00014847
0.000183237
0.0001482
0.00931643
0.000166369
0.000141214
0.000139708
0.0115988
0.000148228
0.0165484
0.000254854
0.000141123
0.00686479
0.0239581
0.0058306
0.000950704
0.000330921
0.000163727
0.00014068
0.11995
0.000144363
0.000152463
0.000176236
0.000133958
0.000143225
0.0167457
0.00013887
0.00163184
0.0148138
0.000148211
0.000143942
0.000278209
0.000142461
0.000352228
0.000136427
0.00212512
0.000597367
0.00628306
0.000142607
0.0001398
0.000148812
0.0126982
0.00554457
0.00388783
0.00971998
0.000173049
0.000143119
0.000648169
0.0593247
0.000143556
0.000134188
0.000167531
0.000140946
0.0598552
0.000238879
0.000136726
0.00280921
0.000139688
0.000139248
0.000136312
0.000142849
0.000143124
0.000487584
0.000141929
0.00699008
0.000139433
0.000148181
0.000146146
0.000145654
0.000141833
0.000142869
0.000214771
0.000138075
0.00105653
0.00615282
0.00023987
0.000166457
0.00029408
0.000174043
0.000142556
0.000134138
0.000142641
0.000134509
0.0560754
0.0014276
0.000152539
0.000150946
0.00626925
0.000148548
0.00472543
0.000144743
0.000140935
0.000144758
0.0002271
0.000202887
0.0199248
0.00134143
0.000168153
0.000232264
0.000237379
0.000143572
0.000141294
0.000138843
0.000163312
0.000165297
0.0477929
0.00377575
0.000167564
0.000140071
0.000175142
0.000141963
0.000223461
0.000141939
0.000788474
0.000148804
0.00208277
0.000163783
0.000147955
0.00016819
0.000240115
0.000162105
0.0226805
0.000141027
0.000138658
0.000143677
0.000142967
0.00454312
0.0001376
0.000145665
0.000159485
0.00013313
0.0215011
0.00631571
0.000188298
0.000144091
0.000144896
0.00541155
0.000247726
0.000141124
0.000142753
5.52938e-05
0.000142881
0.000143273
0.00108279
0.000166688
0.0047434
0.00518991
0.00562957
0.000170215
0.000140829
0.000144179
0.000161782
0.00014104
0.000140518
0.00784391
0.00972495
0.000138665
0.000141634
0.000140159
0.000149576
0.0270992
0.000141492
0.000149494
0.000144711
0.000136516
0.000140825
0.000246431
0.000150422
0.000140262
0.000134674
0.000147707
0.000138606
0.000169093
0.00499776
0.000193792
0.000139122
0.000142204
0.000143827
0.000141143
0.007115
0.000143582
0.00534257
0.0044153
0.000141122
0.000138206
0.0104795
0.000138482
0.0001396
0.000140338
0.00175996
0.000166806
0.000161387
0.000140531
0.00013294
0.000143758
0.00465058
0.000141483
0.000145927
0.000176311
0.00565105
0.000207632
0.000133221
0.00750392
0.000130529
0.00563352
0.000140325
0.000134225
0.000138342
0.000145592
0.000142774
0.00453548
0.000133648
0.00535952
0.000178324
0.000168561
0.0414055
0.000143752
0.00695007
0.00259437
0.000146924
0.00565598
0.000175354
0.000929826
0.000142255
0.0096926
0.000145725
0.000138588
0.000139116
0.000233251
0.00629785
0.000154596
0.00487451
0.0387743
0.000243135
0.000143048
0.000153495
0.000174308
0.00188181
0.00258043
0.000160153
0.000145203
0.000167577
0.00390474
0.000139782
0.0214384
0.000149852
0.000256084
0.000137941
0.000136986
0.000162027
0.000160408
0.0657003
0.0189051
0.000295792
0.000140238
0.000141883
0.00165104
0.00389825
0.0128372
0.00013944
0.000150441
0.00013867
0.000140635
0.000140885
0.00519238
0.00017751
0.000142451
0.000266707
0.00422613
0.00193475
0.000140073
0.000145337
0.000138699
0.000137982
0.000161198
0.000141396
0.000144283
0.000143526
0.000140025
0.000158192
0.00371845
0.000198673
0.000139481
0.000140761
0.00798876
0.000175112
0.000152913
0.000168442
0.00745136
0.00119677
0.000141031
0.000160404
0.00302281
0.000139569
0.00465933
0.000141751
0.000141112
0.000140147
0.00847253
0.000140143
0.00013876
0.000145402
0.000145566
0.00014053
0.000139496
0.000226145
0.0222451