/*--------------------------------*- C++ -*----------------------------------*\
| =========                 |                                                 |
| \\      /  F ield         | OpenFOAM: The Open Source CFD Toolbox           |
|  \\    /   O peration     | Version:  v2012                                 |
|   \\  /    A nd           | Website:  www.openfoam.com                      |
|    \\/     M anipulation  |                                                 |
\*---------------------------------------------------------------------------*/
FoamFile
{
    version     2.0;
    format      ascii;
    class       volScalarField;
    location    "700";
    object      p;
}
// * * * * * * * * * * * * * * * * * * * * * * * * * * * * * * * * * * * * * //

dimensions      [0 2 -2 0 0 0 0];


internalField   nonuniform List<scalar> 
10042
(
0.0057764
-0.0825997
0.00618882
-0.000934949
0.00305616
-0.0290265
-0.0239264
-0.0277779
0.00418818
0.00779105
0.00729678
-0.0947231
-0.0171052
0.00508807
-0.0103364
0.00512904
-0.0494112
0.00640818
-0.020457
0.00743975
-0.0159622
0.00604466
-0.000784674
-0.037884
0.0027637
0.00189137
0.00856572
0.00391561
-0.0359166
-0.044651
0.00403919
-0.0353729
0.00412734
0.00410683
-0.0261902
-0.0310511
-0.00306943
0.00447841
0.00399671
0.000764348
-0.039483
0.00416419
-0.00835136
-0.0325853
0.000756531
0.00286006
0.00305712
-0.00989602
-0.00131767
-0.0643291
-0.0138149
0.00141692
-0.0427296
-0.0195623
-0.0469946
-0.0259456
-0.0156067
0.00621267
-0.00616305
0.000246676
0.000162104
-0.0299981
-0.00122635
-0.02471
0.00657941
0.00466457
0.00675686
0.00416202
0.00291422
0.00479036
-0.0158499
0.00156975
0.00469124
-0.00625258
0.00453024
-0.00963604
0.00512113
0.00304211
0.00491606
-0.0218366
-0.0354853
-0.038478
0.00313773
0.00258246
0.0102512
-0.00370463
0.00635738
0.00414216
0.00466005
0.00585168
-0.0192781
-0.0108744
-0.00598654
-0.00435768
0.00775302
0.000290987
-0.190973
0.00686685
-0.0277985
-0.00681463
-0.0190272
0.00796956
-0.000903609
-0.0380235
-0.016741
-0.00184367
-0.0640099
0.00437297
-0.0247755
-0.00201239
-0.00524562
-0.0189237
0.0103994
-0.0200937
0.00619768
0.00286705
0.00909653
0.00348299
0.00608085
0.00268935
0.000329641
-0.0906122
-0.0991195
0.000749633
0.00548202
0.00477492
0.00483192
-0.0475806
0.0169248
0.00927977
0.00446212
0.00434362
0.00500459
0.00380451
-0.0154398
-0.0483487
0.00653512
-0.063927
-0.0122544
-0.0254271
-0.00950976
0.00406253
-0.0768512
0.00392146
-0.00402956
0.00449065
0.00996773
0.00284416
0.00274755
-0.0536608
0.00427337
0.00410753
-0.0127402
-0.0164979
0.00712599
-0.00294832
0.0117972
-0.026582
0.00499988
0.00179852
0.0024452
0.000589786
-0.0494916
0.00469911
-0.0112107
-0.0460916
0.00466717
-0.0359042
-0.0285841
0.00403916
0.00829443
-0.0446745
-0.0836309
0.00405128
-0.0184952
-0.0824414
0.00223776
0.00447429
0.00424719
0.00296902
-0.0116206
-0.013082
-0.0067606
0.00257885
0.00404068
-0.0261361
0.00118889
0.000282176
-0.0232932
0.00430159
-0.0680226
-0.0143006
0.00449187
-0.0132121
-0.0493179
-0.0109103
0.0661608
0.00745173
-0.11256
0.0024899
0.0235883
-0.00812693
0.00921899
0.00346468
-0.0343491
0.00497395
-0.0402543
-0.01625
-0.00482462
0.00377726
-0.0372742
0.00341107
0.00830909
0.00824955
-0.00215527
0.00550486
0.00317721
-0.0328682
-0.000150562
0.0141111
0.0503163
0.00739112
0.0419804
0.00511611
-0.000926071
-0.00662007
0.00227216
0.00626257
0.00721278
-0.00123566
0.00448292
0.00484967
-0.0246729
0.00358927
0.00238924
-0.0287735
0.00574529
-0.166271
-0.00462576
-0.0365688
-0.0143871
-0.018877
0.000262971
0.000818082
-0.0802244
0.00291541
-0.0133195
-0.00387506
-0.01283
0.00301159
-0.0172409
0.00450114
0.00469287
-0.033778
0.00255501
0.00556817
0.00437787
0.00350053
-0.221178
0.000391629
0.00544762
0.00455286
0.00155041
0.00314371
-0.0175592
-0.0405484
0.00591217
0.00583926
0.00398142
0.00487434
-0.00519499
-0.0707405
0.00497684
-0.0097398
0.00325619
0.00643761
-0.0174655
0.00159529
0.00432081
-0.0544331
0.0039493
-0.0113107
0.0619688
-0.0167435
-0.00363104
-0.0242412
0.00813609
0.00341111
0.00596247
0.00419074
-0.0126794
0.00677856
-0.00275934
-0.0243869
0.00584943
0.0050426
0.00854903
0.00607248
-0.00539503
0.0031913
-0.0118467
0.00840879
0.000179542
-0.0182177
0.00766473
-0.02646
0.00506708
0.000629619
0.00565061
-0.0163208
-0.00310965
0.00370696
5.17824e-05
0.00501357
0.00670937
0.00632321
0.00316698
0.00340303
-0.0303647
0.00278974
0.00366576
-0.0193347
0.00598527
-0.00555856
0.00565889
-0.00223968
0.00566342
0.00431129
0.00589382
-0.0122305
0.00492537
-0.00298315
0.00545347
0.00444103
-0.0372352
0.00664456
-0.0812961
-0.00236263
0.00452992
-0.03813
-0.0114523
-0.0121262
0.000329259
0.00606066
0.00211255
0.00446658
0.00484017
0.00235083
0.005861
-0.141958
-0.0133131
0.00689026
0.00567121
0.00420337
-0.0335181
0.00575656
0.00198267
0.00318082
0.0439138
0.00351284
-0.00213907
-0.00333681
-0.0104631
-0.0198299
-0.038156
-0.011931
0.00219073
0.00540181
0.0055812
-0.0388312
0.000336065
0.0020988
0.00502908
-7.67862e-05
-0.000446879
0.00513215
0.00606163
-0.00549939
-0.0938156
-0.000945144
-0.00214806
-0.00982503
0.00861938
0.00422838
-0.0165909
0.00277278
0.00245157
0.00262567
0.00506118
0.00342635
0.00343688
-0.0141709
-0.0127535
0.00477576
-0.0306992
-0.0304735
-0.00191317
-0.0240922
-0.00365456
-0.0322572
0.00130546
0.0100212
0.00311252
-0.0393752
-0.217874
0.00423665
-0.0109432
0.00424334
-0.00948939
0.00325502
-0.0471782
-0.00658427
-0.0213798
-0.0120482
-0.0215883
0.00573656
-0.00205928
-0.0396295
0.003407
0.00566953
0.00436938
-0.033316
0.00447516
0.00248627
-0.00815185
0.00601726
0.0103296
-0.0457561
0.000548965
-0.0131744
0.00600214
0.00308925
-0.00582584
-0.0283756
0.00422745
-0.009926
-0.0927643
0.00673252
0.00348947
-0.0248061
0.00397368
0.00640337
0.00681591
-0.0110237
-0.0526911
0.00350099
-0.0166007
-0.0409129
-0.0265671
0.00237167
0.00613714
-0.00215274
-0.00211246
-0.0173337
-0.000839859
0.00487445
0.00703557
-0.0293992
0.00264517
0.000559927
0.00315244
-0.0014653
0.00491259
0.00501631
0.00497797
-0.00269023
0.00599647
-0.0182089
0.00624871
0.0076191
-0.0417378
0.00400053
0.00954151
-0.0989968
-0.0166744
0.00445328
-0.0327782
0.00373893
-0.0239177
-0.00529708
0.00680153
-0.0115284
-0.0191599
0.00411291
-0.0187132
0.000418456
0.00578168
-0.0495975
0.00331546
0.00383938
0.00366708
-0.0570998
0.00454527
0.00641864
0.00351419
-0.0113997
0.00408885
0.00706862
-0.0414452
-0.0486515
-0.00471004
0.00235099
-0.0104803
-0.0622561
-0.00309395
-0.00147163
0.00423357
0.00150043
0.00646741
0.0024368
-0.00458742
-0.0439939
0.00410931
-0.000504807
-0.00271286
-0.0450231
0.000415736
-0.00529496
-0.00146543
-0.00536958
0.00411439
-0.00127137
-0.000571953
-0.00174095
-0.00916627
-0.0133569
0.0072505
0.0117995
-0.00194289
0.00455228
0.00238605
-0.0491561
-0.00229127
0.00365343
0.00498133
0.00032206
-0.00231758
0.015906
0.00445784
-0.0647875
0.00208781
0.00814651
0.00468664
0.0198595
0.000249349
-0.0306004
-0.000200239
0.00463665
-0.003659
0.000257503
-0.0282502
-0.00394282
0.00423932
0.005001
-0.0916133
-0.0166859
0.0076914
0.00436471
0.00361632
0.00271662
0.00344968
0.00552064
-0.00250919
-0.0141969
-0.000525076
0.000289564
-0.0370041
-0.0154586
0.00569944
0.00352117
0.00346122
-0.0358947
-0.0137335
0.00470021
-0.0480597
-0.00515077
-0.0281964
0.00387211
0.00424927
0.00398175
0.00385263
-0.00289884
0.00443637
-0.0145025
-0.010365
0.0161273
0.00176467
0.00438204
0.00323812
0.0131749
-0.0322489
0.00424626
0.00160208
0.0037625
0.00777767
0.00334938
-0.0860749
0.00237021
0.00552756
0.00449238
0.00068604
0.00462084
0.0456851
0.00324655
0.00486332
0.00517553
-0.0914787
-1.21207e-05
0.00400386
0.00449084
0.00376202
-0.00183112
0.00152277
0.00407296
0.00144443
-0.00485367
0.00216516
0.00445391
0.0038983
-0.238177
-0.0226978
-0.043961
0.00341407
-0.0283731
1.15794e-05
0.0134799
-0.00385714
-0.0344639
0.00834048
-0.0396771
0.00589541
-0.01174
-0.00502576
-0.00277422
-0.0585166
0.00369808
0.00530211
-0.0101392
-0.00829918
-0.00632171
0.00410033
-0.00409274
0.00400945
0.00452624
0.0022365
-0.0557556
-0.0160059
0.00189117
-0.0134659
-0.000161235
0.0137553
0.000542123
-0.0171742
0.00663145
0.00424506
-0.0328219
0.00470363
0.00358637
0.0156478
-0.00526515
0.000269355
0.00395791
0.00426341
0.00363956
-0.00801148
0.0171662
-0.0225367
-0.00974006
0.0045934
0.00412383
-0.00863724
0.00208096
0.00464313
0.00311512
0.00474183
-0.0179924
-0.0674659
0.00154534
0.002659
-0.00361643
-0.273969
-0.0302557
0.00584452
0.0107661
-0.00273963
-0.0248569
-0.015991
0.0041511
0.00445275
0.00479107
-0.0209525
0.00411888
-0.0298829
0.00501482
0.000329402
0.00600845
0.0052216
0.0399892
0.0463358
0.00331626
0.000942508
0.00233994
0.00546502
0.00451065
-0.0567302
0.00540074
-0.0500327
0.00450047
0.00495745
0.00427281
-0.000457042
-0.00280954
0.000274214
-0.00553001
-0.0110093
0.0052697
-0.0191007
-0.0274127
-0.00478293
0.00473472
-0.0112221
-0.00343488
-0.03046
0.00219491
0.00506581
0.00312077
0.00430791
-0.0501146
0.00495552
0.00325962
0.00412456
-0.0648712
0.00493533
-0.0180614
-0.00650486
0.00456712
0.00909529
-0.0173815
0.000333253
0.00471727
-0.00938574
0.00201467
-0.0160923
0.00495347
0.00394889
0.00599268
-0.00918108
-0.00503112
0.00446512
0.00729007
0.00298429
-5.55608e-05
-0.0188894
0.000263903
0.00333017
-0.00350029
0.00622973
0.00177835
-0.0531938
-0.011652
-0.00201975
0.00733868
0.00439021
-0.0118142
0.00267625
-0.00259972
-0.018291
0.00436139
0.00479401
0.00513123
0.00784169
0.00510377
-0.0300776
-0.0103764
0.009065
-0.0314081
-0.0435486
0.00514234
0.00151972
0.00242013
-0.0109947
-0.00583678
0.0039704
0.00693488
0.00492918
-0.0124088
0.00492474
0.000565825
-0.0139997
-0.00369694
0.00374856
-0.00913146
0.00320609
0.00394198
0.00446531
0.00146521
0.00246651
0.00234054
0.00421105
0.0041427
0.00520574
0.00243471
-0.00244368
0.00587074
-0.0126843
0.00471292
0.00490129
0.00231564
-0.00101607
-0.00465653
-0.0146269
0.00381675
0.00086008
-0.0377319
0.00174829
0.00532274
-0.00326637
-0.030889
-0.0436922
0.00440302
0.000369773
0.0033664
-0.0141174
0.0153718
-0.0108926
0.00407258
0.00317842
-0.0150466
-0.0529702
0.00511902
0.0043463
-0.0277971
0.00400629
-0.0568423
0.00710452
-0.0152981
0.0038915
-0.0212148
-0.00483791
0.00486574
0.00322755
0.0077396
0.000465823
-0.00431777
0.00127987
-0.0799842
0.00495711
0.000327538
-0.0341138
-0.00442673
-0.017179
0.00537931
0.00111102
0.00119537
-0.00888493
0.00300133
0.00499568
-0.000362958
-0.0312636
0.00365746
-0.0968312
0.00285295
0.00472114
0.00501466
-0.0157883
0.00383004
-0.010485
0.00518426
0.00304032
-0.000197486
0.00288584
0.00497708
-0.00237398
-0.0303479
0.0124707
0.00421255
-0.0345315
0.00390342
0.000688558
-0.0380222
0.00243301
-0.00217924
-0.0375749
0.00269128
0.000704513
-0.0132188
0.0151653
-0.0200662
0.0113168
0.00494956
-0.000265712
-0.267055
-0.276732
0.00175969
0.00751357
0.0285654
-0.112535
-0.0151594
0.00241693
0.00479316
0.00244521
-0.00261999
0.00416792
0.00337639
-0.0270824
0.00269385
-0.0284021
-0.0114189
-0.00628395
0.00279984
0.00227273
0.00230939
-0.00828894
-0.050248
-0.0126142
0.00424613
-0.0266175
3.65083e-05
0.00441191
0.000247536
0.0037952
0.00276341
0.00650911
0.00391769
0.00437774
-0.00945404
0.0042713
0.0152738
0.00488297
0.00431992
-0.0212802
-0.0411823
-0.0179962
-0.0149215
0.00229182
0.0143849
-0.0275584
-0.0544875
-0.0354577
-0.00237122
0.0044117
-0.0291481
-0.0147782
0.00547106
-0.0253228
-0.0270962
0.00498359
0.0057924
0.00547798
0.004884
0.00361105
-0.0292699
0.00479824
0.00143886
-0.0459573
0.00493657
0.00478192
0.0109369
-0.0214454
-0.00646171
0.00356298
0.00339112
-0.024099
0.00151581
0.000570233
-0.00452279
-0.000144772
0.00323642
0.00414705
-0.0262593
0.0122831
0.0041379
0.00514931
0.00445833
0.000246365
0.00490505
-0.0531088
0.00461237
0.00436972
-0.00427203
0.0108841
0.00390114
-0.0123271
0.00761977
-0.0481109
-0.0240875
-0.000475279
0.00565939
-0.00167235
0.00562786
0.00268396
-0.016588
-0.00165246
0.00328555
0.00494264
0.0044089
0.00346673
-0.0167777
0.00132566
0.00494253
-0.0950316
0.00405727
0.00411101
0.000550753
-0.022486
0.0057157
0.00480437
0.00471215
-0.016313
0.000553103
0.00470063
0.00454219
0.00507053
-0.0801122
0.00442116
0.0047293
0.00397187
0.00992349
0.00521292
0.0039652
-0.0715469
0.00472883
0.00327069
-0.0608639
0.00490059
0.00573905
0.00141444
0.00137555
-0.0016695
0.00583256
-0.0360124
0.00711668
-0.00272772
0.0492603
-0.0156937
0.00481969
0.00305142
0.00219613
0.0018627
-0.0371442
0.0110648
-0.0242463
-0.0524995
0.00565352
0.0123356
0.00220511
-0.0181646
0.0042402
0.00396516
-0.028092
-0.00864211
0.00331935
-1.85483e-05
-0.109034
-0.0277857
3.90649e-05
-0.0227195
0.0047403
-0.0123062
0.00448971
-0.0052315
0.00550396
0.00514051
-0.0250422
0.000596906
0.00349049
-0.0942948
0.00200784
0.00528705
0.00494378
-0.0105209
0.00506745
-0.0380287
-0.0270624
0.00351505
0.00468481
0.00434471
-0.00294162
0.00107084
-0.00811692
0.000446125
0.0042138
0.00512742
0.00326065
0.00416195
0.00335441
-0.0382623
0.00254398
0.016147
-0.0158136
-0.0247193
0.0131386
0.00978854
0.00384486
-0.0394302
0.0136438
0.0029827
-0.00341257
-0.0113921
-0.0115905
0.00471507
0.00250425
-0.0381301
-0.0550133
0.00423362
-0.00383844
0.00339187
-0.00520646
-0.0978287
0.00503508
0.00409725
0.00475103
0.00417315
0.00416183
0.0029866
0.000233786
0.00483078
-0.00396525
0.00487387
0.000586725
-0.0237059
0.00333474
0.00892796
-0.0179691
-0.00369633
0.00429219
-0.0502439
0.00299563
0.0179931
0.00583514
0.00423672
0.00385104
-0.0315046
-0.129549
-0.105024
-0.00467856
0.00654897
0.00101488
-0.0149329
0.00527519
0.00345718
0.00492092
-0.0305274
-0.0370242
0.00610657
0.0377659
-0.0294478
0.00217982
0.00836423
-0.0206377
-0.0352428
0.00473897
0.00142271
0.00405903
-0.0123931
-0.00386983
-0.0356254
-0.0151279
0.00416316
0.00436851
0.00624534
-0.011198
0.00976106
-0.00357046
-0.000512861
-0.00500816
-0.0182835
0.00261292
0.0048974
-0.000241105
-0.00963873
0.000448315
-0.0138545
-0.000509403
0.00331592
-0.00648083
0.00305679
0.00199174
0.00437712
0.0154598
-0.0274464
0.00487418
0.00410329
0.00256258
-0.0262838
0.00520255
0.00496126
-0.00525492
0.00579671
-0.00323797
-0.015274
0.00256692
-0.0444228
0.00290606
-0.0347822
0.00436425
0.00333099
0.0048127
0.0037098
-0.00312739
0.00324729
0.00519128
0.0054879
0.00274063
0.00737615
0.000157318
-0.0177405
-0.0323009
0.00467342
0.00564129
0.00153461
-0.0050635
0.00111719
-0.024811
0.00213767
0.0266867
0.0039612
-0.00690368
0.00491698
0.00412736
0.00626747
-0.00268975
0.0117648
0.00668087
0.00507626
0.00425187
0.00415324
0.00600585
-0.00338945
-0.028389
-0.0261905
0.00231017
0.00257292
0.00315728
0.00729315
0.00248237
-0.0555922
0.00520057
0.00972879
-0.0217099
-0.000384864
0.00410816
-0.0644613
0.0047781
0.00485883
-0.0505957
0.00291064
0.00375453
-0.00757557
-0.0160883
0.00286019
-0.0133876
-0.00359943
0.0040947
-0.0174825
0.00135611
-0.00199851
-0.00753892
-0.033125
-0.0393505
-0.00197383
-0.0215996
0.00397235
-0.00341979
-0.0229324
-0.00810198
0.00333082
0.00569224
-0.00590349
-0.0403654
-0.0377173
0.00213369
0.00243367
0.00329751
0.00613008
0.0134635
-0.00487721
0.00119896
0.0047884
-0.0311542
-0.00251804
0.00510904
-0.0319493
0.00453912
0.00578814
0.00202237
-0.0929387
0.00127377
-0.0490384
0.00496837
0.00465336
0.0041881
0.0016875
0.00350079
0.00406673
0.00374974
0.00408314
-0.00489604
0.00477566
0.00459634
0.00385934
-0.0200679
-0.0117564
0.00142549
0.00399131
0.00425354
-0.0160634
-0.0281811
0.000212269
0.00400506
0.0039659
-0.00284708
-0.0238651
0.00411149
-0.0278427
-0.0409364
0.00344805
0.00375202
0.00422221
-0.00399316
-0.0177024
0.00472912
-0.0055733
-0.00477346
0.00434852
0.00535804
0.00513606
0.00485622
-0.11685
-0.250506
0.00306792
0.00179424
0.00499519
0.0238506
0.00478441
-0.0115168
-8.73188e-05
0.0046942
0.000768539
0.00110871
-0.104759
0.00423967
-0.0332839
-0.0142717
-0.0320872
-0.00185333
-0.021946
-0.0214658
-0.0121928
-0.00478148
0.000853287
-0.0327542
0.00465336
-0.0246554
-0.0201311
-0.0251202
0.00489194
-0.00774426
-0.0139882
-0.0255912
-0.035189
0.00084658
0.00516949
-0.00191652
-0.0234448
0.00287181
-0.0148747
-0.0108491
0.00399181
0.005081
0.00147686
-0.00956458
0.00974113
-0.00953457
-0.0014954
0.0046961
0.025303
-0.0010355
-0.0437422
-0.0335882
0.00241117
-0.125934
0.0107
0.00461352
0.0147374
-0.00551763
0.00280743
-0.015006
0.00342527
-0.016392
0.00411404
-0.018123
-0.0804394
-0.0146187
0.00081754
-0.0296161
-0.00491189
0.00393343
0.0044152
0.00399618
-0.0394742
-0.0154936
-0.00216033
-0.0125861
-0.273358
-0.00100559
0.00456292
0.00435147
-0.00905218
0.000375386
-0.00764886
0.0241805
-0.221618
0.0134469
-0.0225612
-0.0333183
0.00382691
0.00250981
0.00422373
0.00232779
0.00341428
-0.0230305
-0.0270362
0.031173
-0.0179847
0.00406644
0.00370875
-0.0085717
0.0039952
0.00518697
-0.0137341
-0.120677
0.00491416
0.00140974
-0.0111968
0.00533629
-0.0128502
-0.00681945
-0.0101154
-0.0393554
-0.00463993
0.00324523
-0.0069719
-0.0194574
0.00220241
-0.0181299
0.00373658
-0.0125993
0.0029021
-0.0629561
0.00171938
0.00393633
0.00386657
0.00618548
0.00545392
-0.111371
-0.0150931
0.0192952
0.00597256
0.00374863
0.00320759
0.00421334
-0.0538922
0.00412841
-0.0146204
-0.0267111
0.0154885
0.004476
-0.0378455
-0.0234027
-0.0916605
0.00561595
-0.0116196
-0.00504706
0.00512879
0.00560026
0.0028514
0.000487164
0.00467808
0.00329691
0.00390746
-0.130093
-0.0169126
0.0040859
-0.0152097
-0.0182729
-0.0036164
-0.0347606
0.00360746
-0.0115863
-0.0118049
0.00641086
0.00776929
-0.0337256
-0.00901436
-0.0407607
0.00423936
-0.0138118
-0.00182483
-0.0131037
0.0116722
-0.0393428
-0.017103
-0.0249707
0.0020213
-0.000828045
-0.00851622
0.00735756
-0.0179307
-0.00492486
0.00181026
-0.000190833
-0.018817
-0.10228
-0.0163973
0.00429146
0.00267875
-0.0169128
-0.00525887
0.00229383
-0.0118308
-0.0109334
0.00166751
0.00598766
0.00818092
8.35071e-05
-0.00505587
-0.00103356
-0.0028452
-0.0514734
-0.000213711
0.0049503
0.00157581
-0.0175814
-0.0132602
-0.00702143
-0.0137335
-0.0110233
-0.0107984
0.0107814
-0.000792024
-0.0144994
-0.00972709
0.00700894
0.00115234
-0.0302343
-0.0077974
-0.00684372
0.00298968
-0.0315296
0.00591764
-0.0282934
-0.126893
0.00409194
-0.00229841
-0.00785152
0.00254723
-0.0172257
-0.0683761
-0.00874921
-0.0205538
-0.109788
-0.00432971
-0.00459425
-0.00732064
-0.112489
-0.0400342
0.00376412
-0.0106126
0.001916
-0.0012404
-0.00203439
-0.0110811
0.00237631
0.00221858
0.00169052
0.00459017
-0.00969064
0.00127526
0.00539225
2.93175e-05
-0.0798132
-0.00899216
-0.10743
-0.0160276
-0.00900503
-0.0698371
-4.4263e-05
-0.05631
-0.00291391
0.00193548
-0.00697104
-0.0217602
0.00653516
0.00253044
-0.134465
-0.00903817
0.00511334
-0.019599
0.00485197
-0.0187371
-0.00780565
0.0072053
0.00070725
-0.044528
0.00238768
-0.015263
-0.0131727
-0.00675594
0.00370617
-0.0196836
0.0116156
0.00477421
-0.00455862
-0.0198801
-0.00127995
-0.0271181
0.00297935
-0.0150329
0.00113362
-0.00717757
-0.0252044
-0.0144538
-0.00468925
-0.0122813
-0.121865
-0.0154225
0.00419104
-0.00819711
-0.0101266
-0.0151462
0.00333778
-0.0418168
0.000659036
-0.00151566
0.00633132
-0.0178416
-0.0161507
-0.00229167
0.0041352
-0.0105904
0.0050362
-0.0160502
-0.00573207
-0.01975
-0.034023
0.0026536
-0.00592239
-0.00142414
-0.0197888
-0.0223408
-8.64069e-05
-0.0025437
-0.00727693
0.00513464
0.00292612
0.00189727
-0.101244
0.00802577
-0.0106722
0.00210759
0.00402852
0.00347371
0.00470858
0.00428012
0.00268323
0.00268367
-0.0088168
0.00526879
-0.0364147
0.00231821
-0.133091
-0.0157386
-0.00768946
-0.0278867
-0.00920124
-0.0096349
0.00587174
-0.00497997
-0.0983754
0.00427621
0.00403849
-0.0129974
0.0052428
0.00465702
-0.0102006
-0.0108226
0.00307551
-0.00269783
-0.0206401
-0.0295713
0.00559496
-0.00391115
-0.00238316
0.00467927
-0.00772117
-0.0180809
-0.011036
-0.0335486
-0.00699214
-0.0297729
0.00207577
0.00768732
0.00401485
0.0300538
0.00193505
0.00206445
-0.00123695
-0.0041417
-0.0187201
0.00690616
0.00349501
-0.00777733
0.00437871
0.00392975
0.00426868
-0.0111789
0.00684182
-0.0228641
-0.0102027
0.00185866
0.00320749
-0.0707901
0.00851326
0.0027909
-0.0717212
-0.00567531
-0.00659877
-0.027853
-0.00919626
0.00470868
0.00406784
-0.00359142
0.00354958
0.00483876
-0.00341795
-0.00697766
-0.00351265
-0.00477997
-0.00687086
-0.0130336
-0.00848448
-0.00162418
-0.015563
0.00355027
0.00279856
0.00176892
0.00220464
-0.0261352
0.000797349
-0.0136999
0.0215214
0.00421795
-0.0471297
-0.0211022
-0.00361203
-0.00151205
0.00413225
-0.0320162
-0.00825346
-0.0119171
-0.0297463
0.00150735
-0.0130432
0.000109232
0.0172346
0.00440716
0.0021728
-0.00977008
0.00773538
-0.0354415
0.00951479
-0.00172218
0.00492411
-0.013428
0.0070405
-0.020547
-0.00737755
-0.0217729
-0.00820173
-0.0204117
0.00467373
-0.000672263
-0.127111
-0.0150528
0.00160409
0.00835019
0.00164781
-0.000119796
0.0044746
0.00665219
-0.00893769
-0.017047
0.0125614
0.00455379
0.0345358
-0.0248201
-0.0190045
-0.0930612
0.00056931
0.00154424
0.00137809
-0.00404682
0.00507845
-0.0209933
0.00200386
-0.0323126
-0.0291562
0.00515392
0.00345378
-0.00388866
-0.00302539
-0.00343568
0.00494033
0.0182688
0.00489105
-0.0263838
0.00522987
0.000451343
0.00116804
-0.00739978
0.00527215
0.0192294
-0.120678
-0.0100084
-0.00117862
-0.0144219
-0.0050047
0.00221703
0.00468882
-0.0167534
0.000317876
-0.00561026
-0.0182299
-0.00358972
-0.00776765
0.0184876
-0.0226054
-0.0671997
0.00290284
-0.108534
-0.00867914
0.00145142
0.00489567
0.00877793
-0.0162685
-0.0307234
-0.0262327
-0.0312313
0.00101416
0.00427253
0.00369442
0.00144037
-0.00471807
0.00485554
-0.00393041
-0.0187305
-0.0340384
-0.00538989
0.00528051
-0.0241351
0.0055041
0.00691049
-0.0044204
-0.0073602
0.00234217
-0.00655133
0.00311308
0.00269083
-0.0227452
-0.0084149
0.0282203
0.0047059
0.0047151
0.00111215
-0.00409251
0.00429551
0.0111678
0.00184421
-0.0136909
-0.0487182
-0.00403608
-0.0280551
-0.000670497
0.000860938
-0.00159593
-0.00187333
0.00435428
0.00329435
-0.00140918
-0.00500311
-0.00581049
0.00400413
0.00449076
0.000612439
0.00242989
-0.00796109
0.0106546
-0.014977
-0.0110915
0.00620662
-0.0112232
-0.00358307
0.00409806
-0.00254914
0.00164525
-0.0957721
0.000994571
-0.0243579
-0.0100525
0.0113737
-0.0308739
-0.00511634
-0.0776058
-0.0337866
-0.00463451
0.00992142
-0.0372982
-0.0820766
-0.00113454
0.00515944
0.00254181
-0.000547967
-0.000932258
-0.00287931
0.00368306
0.00465728
-0.0498602
-0.0257195
-0.0821211
-0.00301364
0.00422294
0.0100411
-0.0138342
0.00553814
-0.0482545
0.00640778
-0.0126571
-0.0146391
0.00192405
0.0106891
0.000426717
-0.0268813
-0.00426662
0.00479452
-0.00551512
-0.0276737
0.0155165
-0.0214306
-0.00783889
0.000930176
-0.0362016
0.00434747
0.00089142
-0.0270754
-0.00452223
-0.00420162
-0.00400286
-0.000733469
-0.0262546
-0.00733863
0.00956548
0.00430224
0.00396066
-0.104429
0.00509155
-0.00105796
-0.00372893
-0.00335366
-0.0025402
-0.0014292
-0.000504984
-0.0050202
0.00112111
-0.0032863
0.00232715
-0.0306564
0.00214279
0.00235776
0.00286437
0.00646557
-0.0422132
0.0012891
0.000406979
0.000986283
0.00387852
-0.00090602
0.00485014
-0.0127702
-0.111932
0.0015277
-0.0143372
-0.00474441
0.00943761
0.00972034
0.00131049
0.00890013
-0.0115331
-0.00823185
0.00933997
-0.122926
-0.128377
0.00133505
0.0042896
0.00472247
0.0134158
0.00995914
-0.106259
-0.00587309
-0.0369574
0.00696286
-0.00726205
0.00595728
0.036826
0.00306672
-0.00892334
-0.0218131
-0.0951342
-0.00374889
-0.0254289
0.00522829
0.00727369
-0.0149975
-0.00662106
0.00233815
0.00662086
-0.0185599
0.00101992
0.00148715
0.00742898
-0.00537479
-0.0315283
0.00375809
0.00498822
-0.00104975
-0.000225268
0.00505722
-0.0307603
-0.010349
-0.0231337
-0.00190781
0.0016075
-0.0175659
-0.00475103
-0.00354855
0.00163424
0.00386537
-0.00911828
0.00338347
-0.0302327
-0.0111166
-0.0273922
0.00537634
0.00621331
-0.0174153
-0.0320741
0.00557441
-0.0170716
-0.0111715
-0.00743079
0.00102436
-0.00337808
-0.0120099
-0.00400545
0.00296558
0.0040343
0.000228931
0.00841173
0.00541995
0.00123192
-0.00141323
0.00376513
0.00695398
0.00287808
-0.00766016
0.00777668
0.00566242
-0.135639
-0.0516558
0.00417825
-0.0085793
-0.0201055
-0.00382907
-0.00779374
0.00463558
0.00854841
-0.0870455
0.00164531
0.00541187
-0.0923858
-0.00403175
0.0042928
0.00289176
0.00199356
-0.0134742
-0.00332719
-0.0090636
-0.00322126
-0.0495072
-0.00290087
-0.0254025
-0.00472448
-0.00283874
-0.0532731
0.00351413
0.00275547
0.000529041
0.000522473
-0.110492
0.00754762
-0.00207855
-0.00346698
0.00312918
0.00245087
-0.000953993
-0.00339668
-0.0171
0.0031742
-0.00937426
-0.117494
-0.00885641
0.00378203
-0.00284142
0.00159456
-0.0601476
0.00498351
0.00563529
0.00150066
-0.0685766
-0.0795648
0.00237862
0.00495698
0.00314825
0.00234814
0.00221989
-0.000505758
0.00330121
-0.00663679
0.000807119
-0.000181046
0.00197541
0.00298247
-0.00215065
0.00103222
0.00222506
0.0109298
0.0038623
0.00551475
-0.0405731
-0.0008788
-0.00131856
-0.0200903
0.0148685
-0.00899515
0.00569516
0.00468701
0.0012845
-0.00833658
0.0016217
0.00165016
0.0039214
0.00579327
0.00122698
-0.00114459
-0.00477578
-0.0233197
-0.0970697
-0.00116172
0.00675598
0.00274897
0.0111297
-0.00150309
-0.0438501
-0.0206763
-0.000481548
-0.0891778
-0.00433076
-0.0498403
-0.0213432
0.00464889
0.00717808
0.00455348
0.00244931
0.00482846
0.00319101
0.00401159
-0.0588537
0.00213302
0.00427114
0.00189625
0.00417154
0.00269892
-0.012896
-0.00156944
-0.00338162
-0.0113156
0.006072
0.00321335
-0.0187489
-0.00901114
-0.000680189
-0.108245
-0.00861875
-0.00107292
0.00354608
0.0054494
0.00444223
0.00102011
0.00075038
-0.00659798
0.00242262
0.00321026
-0.00138297
-0.0208339
0.00258402
-0.00228791
-0.0031119
-0.00584902
0.00115302
-0.00124344
0.00464527
-0.000835245
-0.0566899
-0.0141995
0.00429734
0.00552602
0.00613613
0.00841107
0.00599287
0.0024012
0.000292317
-0.00867102
0.00435519
0.00399058
-0.0248778
0.0041673
0.000600043
0.00485187
-0.204421
-0.013678
-0.0355095
-0.000957612
0.0005045
-0.00668822
-0.0429515
-0.0223353
-0.00124921
0.00532378
0.00575812
0.00162592
0.0411595
0.00141835
0.00536521
0.00866245
0.00351247
-0.00476199
-0.0995161
0.00375068
-0.0202891
-0.0885648
-0.0116171
-0.000157964
-0.0260219
-0.00275244
0.00151644
0.00461373
-0.00359581
0.0175998
0.00190381
-0.00288972
0.00384146
-0.0114283
-0.0280452
-0.0207563
-0.00128529
-0.0546309
0.00591565
-0.00135321
-0.00108244
-0.143146
-0.00400428
0.00212209
0.002636
0.000854196
-0.0102047
0.00874648
0.00466068
-0.011352
0.00381021
0.00452652
0.00459592
0.000762889
-0.00388936
-0.0343997
0.00090637
-0.016093
0.00499542
-0.00957824
0.00127147
0.00274982
-0.00145438
-0.000971041
0.00705276
0.00460524
0.00629681
-0.0152413
0.00357685
-0.00120207
0.00204962
0.0058729
0.0041239
0.00410542
-0.00329705
0.004256
-0.138216
0.0039074
0.00268507
-0.00652302
-0.00904406
0.00132201
-0.0240652
0.00512267
0.000729608
0.00241172
0.00559194
0.0103284
-0.0137951
-0.0400923
0.00114232
0.00420534
0.00484475
0.00408707
0.000284889
0.0038867
-0.00561582
-0.0039024
-0.119418
-0.0587235
-0.00161603
0.00245193
0.00556013
-0.00176151
0.00640866
0.00504544
0.00248569
-0.0144586
0.00163219
-0.0334509
-0.0142262
0.000729962
0.00782654
0.00815497
-0.0183161
0.000429286
0.00430631
-0.00130688
0.000519859
-0.017176
0.00478918
0.0014706
0.00793986
0.0031314
-0.103555
0.00222714
0.00493427
0.00374369
0.00179914
0.00572123
0.0030114
0.000639217
-0.00342943
0.00149624
-0.00356161
-0.00144222
0.00175598
-0.000342005
0.00680199
-0.0227511
-0.0278515
0.000344293
0.00391994
0.00364474
-0.00794764
0.00055636
0.00374702
-0.0214123
-0.00498817
0.00285523
0.00413242
0.00210571
-0.0093653
-0.215262
0.00387946
-0.0127805
0.00266384
0.00463032
0.00260979
0.00880412
0.00562221
0.00358981
0.00184748
-0.0146485
0.00386428
0.00815253
-0.0262276
0.00573297
0.00494085
0.00401627
0.00343917
0.00390366
-0.015769
-0.00480461
-0.000425119
0.00445651
0.000144358
0.00452361
-0.0512636
0.0039693
0.00470349
0.00232275
0.00224659
0.00300366
0.00410449
0.00309827
0.00313569
-0.00164836
-0.009875
0.00339324
-0.000923607
6.40688e-06
-0.00782172
0.00808633
0.00364502
-0.00141414
0.000262592
0.00264797
0.00206992
0.00360253
0.00454465
-0.0108285
0.0034917
-0.000943832
0.000871897
-0.0148236
-0.0182904
0.00667954
-0.0860571
0.000890708
-0.0328749
0.00100965
0.00516236
-0.00517482
0.00730462
0.000270142
-0.0024074
-0.0286964
-0.0014736
0.00467786
0.00244841
-0.015907
-0.00487036
-0.0283775
-0.0220922
-0.199873
0.00915675
-0.00367474
-0.00618914
-0.0136636
0.00399849
0.00935864
0.00685065
-0.00687502
-0.0252683
-0.0115203
0.00399464
-0.0762897
-0.00441717
-0.00202313
0.00458212
0.00469714
0.000245619
-0.00165625
-0.0651494
-0.0411486
0.0095052
0.00232355
0.00483698
0.00827163
-0.0185549
-0.00113869
0.00309367
0.0059486
0.0039288
0.00115269
0.000657243
-0.00556432
0.010268
0.0120427
0.00985861
-0.00365544
-0.00662856
0.00344529
-0.00636338
0.0042017
0.00484341
0.00788277
0.00144243
0.00417882
0.00258613
0.00225251
0.00418252
-0.0100773
0.00768406
0.00444426
0.00250723
0.00221694
0.00705473
-0.0126752
0.00691479
0.00244414
0.00225666
0.00442856
-0.000527568
0.00628967
0.00401589
-0.015244
0.00492269
0.00477961
0.0047845
-0.0466589
0.00212828
0.00381022
0.00505241
0.00175323
0.00467658
0.00463072
-0.0318808
-0.0955792
-0.0301898
0.00139237
0.00465784
-0.0411545
-0.000922588
0.00481083
0.003558
-7.53962e-05
-0.00380124
-0.00133422
0.0041335
0.00454773
0.0124138
0.00698177
0.00446948
0.00511576
-0.00420874
-0.0189876
0.00367689
0.00211985
0.00318862
-0.0137611
0.00515842
-0.000831692
-0.0578978
0.00403498
0.00460548
0.00115996
0.00504139
0.00419465
0.00370123
-0.00299509
0.00286546
0.00740872
-0.00986589
0.00115798
0.00446773
-0.00766325
0.00341381
-0.00518622
-0.0108611
0.00646614
0.00202048
0.00474229
0.00386238
-0.0444744
-0.0972001
-0.00315829
0.00468309
-0.00199448
0.0105502
0.00247609
0.0046421
0.00362079
0.00456428
0.00345658
-0.011797
0.00510013
0.00246053
-0.0120094
-0.00699104
0.00459712
0.00434482
0.00726902
0.00829406
0.00352855
0.00590665
-0.00263505
-0.00111496
-0.00220571
0.00797834
-0.000949994
0.00424703
-0.0148301
0.000949143
0.00485114
0.00578267
-0.000553925
-0.0152128
-0.00136328
0.00428182
0.00463728
-0.0146348
0.00355336
0.0036829
0.00470096
-0.000247246
0.00160184
0.00375876
-0.0436575