/*--------------------------------*- C++ -*----------------------------------*\
| =========                 |                                                 |
| \\      /  F ield         | OpenFOAM: The Open Source CFD Toolbox           |
|  \\    /   O peration     | Version:  v2012                                 |
|   \\  /    A nd           | Website:  www.openfoam.com                      |
|    \\/     M anipulation  |                                                 |
\*---------------------------------------------------------------------------*/
FoamFile
{
    version     2.0;
    format      ascii;
    class       volVectorField;
    location    "1000";
    object      cellDisplacement;
}
// * * * * * * * * * * * * * * * * * * * * * * * * * * * * * * * * * * * * * //

dimensions      [0 1 0 0 0 0 0];


internalField   nonuniform List<vector> 
9793
(
(0 -0.00289329 0)
(0 -0.000177641 0)
(0 -0.00294821 0)
(0 -0.00112565 0)
(0 -0.00227492 0)
(0 -0.00453047 0)
(0 -0.000482385 0)
(0 -0.00306891 0)
(0 -0.00288623 0)
(0 -0.00230924 0)
(0 -0.00171101 0)
(0 -0.00481933 0)
(0 -0.00101891 0)
(0 -0.00197473 0)
(0 -9.00379e-05 0)
(0 -0.00187403 0)
(0 -0.00379163 0)
(0 -0.0038473 0)
(0 -0.00332154 0)
(0 -0.001938 0)
(0 -0.00428042 0)
(0 -0.00356667 0)
(0 -0.00367686 0)
(0 -2.61008e-05 0)
(0 -0.00487311 0)
(0 -0.000833181 0)
(0 -0.00182573 0)
(0 -0.0036597 0)
(0 -0.00234049 0)
(0 -0.00290442 0)
(0 -0.00480176 0)
(0 -0.00363874 0)
(0 -0.00501223 0)
(0 -0.000214106 0)
(0 -0.00238625 0)
(0 -0.00419405 0)
(0 -0.000342385 0)
(0 -0.00361326 0)
(0 -0.00368073 0)
(0 -0.000538415 0)
(0 -0.00482497 0)
(0 -0.000166995 0)
(0 -0.000526721 0)
(0 -0.000483302 0)
(0 -0.000419997 0)
(0 -0.000713403 0)
(0 -0.0023206 0)
(0 -0.00299244 0)
(0 -0.0051943 0)
(0 -0.00127152 0)
(0 -0.00236455 0)
(0 -0.0018111 0)
(0 -0.00442877 0)
(0 -0.00324977 0)
(0 -0.00203394 0)
(0 -0.00451057 0)
(0 -0.00251621 0)
(0 -0.00126746 0)
(0 -0.00527718 0)
(0 -0.00358185 0)
(0 -0.000354752 0)
(0 -0.00429304 0)
(0 -0.00523968 0)
(0 -0.00047685 0)
(0 -0.00205228 0)
(0 -0.00498018 0)
(0 -0.00525681 0)
(0 -0.00525712 0)
(0 -0.0048388 0)
(0 -0.00177547 0)
(0 -0.00209395 0)
(0 -1.51092e-05 0)
(0 -0.003483 0)
(0 -0.000284684 0)
(0 -0.00240037 0)
(0 -0.0052966 0)
(0 -0.00260203 0)
(0 -0.000107494 0)
(0 -0.00427705 0)
(0 -0.00384986 0)
(0 -0.0050167 0)
(0 -0.00434544 0)
(0 -0.000142586 0)
(0 -0.00312203 0)
(0 -0.00479936 0)
(0 -0.00303964 0)
(0 -0.00390996 0)
(0 -0.00268449 0)
(0 -0.00427435 0)
(0 -0.00445797 0)
(0 -0.000245826 0)
(0 -0.00194943 0)
(0 -0.0025834 0)
(0 -0.003581 0)
(0 -0.00426278 0)
(0 -0.00316983 0)
(0 -0.00448506 0)
(0 -0.000179025 0)
(0 -0.00252719 0)
(0 -0.00213558 0)
(0 -0.00209836 0)
(0 -0.00448239 0)
(0 -0.00262586 0)
(0 -0.00255374 0)
(0 -0.00013276 0)
(0 -0.00481674 0)
(0 -0.00423662 0)
(0 -0.000397953 0)
(0 -0.00439677 0)
(0 -0.00289286 0)
(0 -1.58544e-05 0)
(0 -0.0045221 0)
(0 -0.00227901 0)
(0 -0.00434369 0)
(0 -0.0018679 0)
(0 -0.00257916 0)
(0 -0.00490485 0)
(0 -0.00246041 0)
(0 -0.00440246 0)
(0 -0.00353745 0)
(0 -0.00294453 0)
(0 -5.92803e-06 0)
(0 -0.00283073 0)
(0 -0.00456765 0)
(0 -0.0031956 0)
(0 -0.00434196 0)
(0 -0.00154353 0)
(0 -0.00308486 0)
(0 -0.00433284 0)
(0 -0.00301121 0)
(0 -3.05508e-05 0)
(0 -0.0026643 0)
(0 -0.0030932 0)
(0 -0.00462101 0)
(0 -0.00288591 0)
(0 -0.00276307 0)
(0 -0.000390186 0)
(0 -0.000492426 0)
(0 -0.00221632 0)
(0 -0.000385211 0)
(0 -0.00278123 0)
(0 -0.00483014 0)
(0 -0.000777547 0)
(0 -0.00213054 0)
(0 -0.00204115 0)
(0 -0.00213249 0)
(0 -7.02482e-05 0)
(0 -0.00216832 0)
(0 -0.00251846 0)
(0 -0.00187279 0)
(0 -0.00279626 0)
(0 -3.39922e-05 0)
(0 -0.00275662 0)
(0 -0.00239305 0)
(0 -0.0024582 0)
(0 -1.10877e-05 0)
(0 -0.000180516 0)
(0 -0.00478298 0)
(0 -0.00211884 0)
(0 -0.000774532 0)
(0 -0.00318319 0)
(0 -0.00362774 0)
(0 -0.00164058 0)
(0 -0.00345343 0)
(0 -0.0001888 0)
(0 -0.00422587 0)
(0 -0.00303823 0)
(0 -0.00300675 0)
(0 -0.00176372 0)
(0 -0.00427443 0)
(0 -0.00428983 0)
(0 -0.00547003 0)
(0 -0.000172982 0)
(0 -0.00548027 0)
(0 -0.00314346 0)
(0 -0.00336848 0)
(0 -0.00273932 0)
(0 -9.54817e-05 0)
(0 -0.00331005 0)
(0 -0.00241578 0)
(0 -0.00085308 0)
(0 -0.0026214 0)
(0 -0.00215342 0)
(0 -0.00482716 0)
(0 -0.00535819 0)
(0 -0.00340727 0)
(0 -0.00125544 0)
(0 -0.00331427 0)
(0 -0.00290494 0)
(0 -0.00167552 0)
(0 -0.00310093 0)
(0 -0.00139828 0)
(0 -0.00522756 0)
(0 -0.00446316 0)
(0 -0.00523973 0)
(0 -0.00243726 0)
(0 -0.00293463 0)
(0 -0.00413737 0)
(0 -0.00245124 0)
(0 -0.000341709 0)
(0 -0.00290163 0)
(0 -0.00358217 0)
(0 -0.00446541 0)
(0 -0.00289162 0)
(0 -0.00281434 0)
(0 -0.000102131 0)
(0 -0.00424166 0)
(0 -0.0019562 0)
(0 -0.00478682 0)
(0 -0.00302627 0)
(0 -0.00253281 0)
(0 -0.00523513 0)
(0 -0.00517904 0)
(0 -0.00323378 0)
(0 -0.00292752 0)
(0 -0.000178215 0)
(0 -0.00438429 0)
(0 -0.0053736 0)
(0 -0.000127493 0)
(0 -0.00507659 0)
(0 -0.00260314 0)
(0 -0.00272792 0)
(0 -0.00315174 0)
(0 -0.00129759 0)
(0 -0.00312569 0)
(0 -0.00349572 0)
(0 -0.00448722 0)
(0 -0.00242381 0)
(0 -0.00254043 0)
(0 -0.00190683 0)
(0 -4.65303e-05 0)
(0 -4.45724e-05 0)
(0 -0.00257689 0)
(0 -0.00028236 0)
(0 -0.00160311 0)
(0 -0.00509665 0)
(0 -0.00216511 0)
(0 -0.00409207 0)
(0 -0.00452589 0)
(0 -0.00436617 0)
(0 -0.00480076 0)
(0 -0.00205479 0)
(0 -0.00404072 0)
(0 -0.00501481 0)
(0 -0.0039238 0)
(0 -0.00249287 0)
(0 -0.00295191 0)
(0 -0.00478232 0)
(0 -0.00255174 0)
(0 -0.000262205 0)
(0 -0.00367013 0)
(0 -0.00276302 0)
(0 -0.00193576 0)
(0 -0.00156807 0)
(0 -0.00378498 0)
(0 -0.00373491 0)
(0 -0.00418402 0)
(0 -0.00275421 0)
(0 -0.00471352 0)
(0 -0.00195691 0)
(0 -0.00314916 0)
(0 -0.00399905 0)
(0 -0.00199446 0)
(0 -0.000191778 0)
(0 -0.00295601 0)
(0 -7.5056e-05 0)
(0 -9.84118e-05 0)
(0 -0.00258007 0)
(0 -0.00363004 0)
(0 -0.00423383 0)
(0 -0.00199509 0)
(0 -0.00139403 0)
(0 -0.00345165 0)
(0 -0.00272848 0)
(0 -0.000271788 0)
(0 -0.000223832 0)
(0 -0.00297786 0)
(0 -0.00442097 0)
(0 -0.000724813 0)
(0 -0.00151877 0)
(0 -0.00472823 0)
(0 -0.000101764 0)
(0 -0.000301661 0)
(0 -0.000544662 0)
(0 -0.00151158 0)
(0 -0.00275877 0)
(0 -0.00370061 0)
(0 -0.00289975 0)
(0 -0.000746387 0)
(0 -0.00283928 0)
(0 -0.00223303 0)
(0 -0.00493949 0)
(0 -0.00436917 0)
(0 -0.000339439 0)
(0 -4.28758e-05 0)
(0 -0.00461245 0)
(0 -0.00330184 0)
(0 -0.0028749 0)
(0 -0.000977719 0)
(0 -0.00358689 0)
(0 -0.00248568 0)
(0 -0.00526991 0)
(0 -0.00491219 0)
(0 -0.000296283 0)
(0 -0.000422588 0)
(0 -0.00208987 0)
(0 -0.0034461 0)
(0 -0.00321201 0)
(0 -0.00467103 0)
(0 -0.00524969 0)
(0 -0.000442847 0)
(0 -0.00204055 0)
(0 -0.0032337 0)
(0 -0.00383543 0)
(0 -0.00350381 0)
(0 -0.00440284 0)
(0 -0.00307935 0)
(0 -0.00422959 0)
(0 -0.003394 0)
(0 -0.00297817 0)
(0 -0.00390782 0)
(0 -0.000262709 0)
(0 -0.00310809 0)
(0 -0.000241946 0)
(0 -0.000116348 0)
(0 -0.000880596 0)
(0 -0.00335737 0)
(0 -0.00524399 0)
(0 -0.00247484 0)
(0 -0.00149189 0)
(0 -0.00228813 0)
(0 -0.0025326 0)
(0 -0.00442212 0)
(0 -0.00476922 0)
(0 -0.00170165 0)
(0 -0.00281221 0)
(0 -0.00047302 0)
(0 -0.00288815 0)
(0 -0.000324814 0)
(0 -0.0037427 0)
(0 -0.00286329 0)
(0 -0.00339941 0)
(0 -0.00381857 0)
(0 -0.003638 0)
(0 -0.00438079 0)
(0 -0.0018373 0)
(0 -8.14465e-05 0)
(0 -0.0035641 0)
(0 -0.00294342 0)
(0 -0.00285389 0)
(0 -0.00324729 0)
(0 -0.003103 0)
(0 -0.00380904 0)
(0 -0.00446391 0)
(0 -0.00541871 0)
(0 -0.00322555 0)
(0 -0.00406782 0)
(0 -8.55349e-05 0)
(0 -0.00218886 0)
(0 -0.0021094 0)
(0 -0.00131478 0)
(0 -0.00215816 0)
(0 -0.00360244 0)
(0 -0.00475386 0)
(0 -0.00298194 0)
(0 -0.000353758 0)
(0 -0.00317609 0)
(0 -0.00432372 0)
(0 -0.000258144 0)
(0 -0.00488332 0)
(0 -0.00477797 0)
(0 -0.00309187 0)
(0 -0.00306599 0)
(0 -0.00158514 0)
(0 -0.00412703 0)
(0 -0.00495682 0)
(0 -0.00323056 0)
(0 -0.00497605 0)
(0 -0.0023673 0)
(0 -0.000140311 0)
(0 -0.00368498 0)
(0 -0.00316341 0)
(0 -0.00542642 0)
(0 -0.000849786 0)
(0 -0.003414 0)
(0 -0.000122931 0)
(0 -0.000435763 0)
(0 -0.00186336 0)
(0 -0.00318343 0)
(0 -0.00367291 0)
(0 -0.00543179 0)
(0 -0.00311344 0)
(0 -0.00133093 0)
(0 -0.00343156 0)
(0 -0.00305124 0)
(0 -0.00185595 0)
(0 -0.000165253 0)
(0 -0.000479047 0)
(0 -0.00286128 0)
(0 -0.00252789 0)
(0 -0.00338554 0)
(0 -0.00209512 0)
(0 -0.00277058 0)
(0 -0.00385092 0)
(0 -0.00136533 0)
(0 -0.00426766 0)
(0 -0.00415495 0)
(0 -0.0036242 0)
(0 -0.00130231 0)
(0 -0.00262158 0)
(0 -0.00339274 0)
(0 -0.00235194 0)
(0 -0.00435805 0)
(0 -0.0019927 0)
(0 -0.0037274 0)
(0 -0.00513279 0)
(0 -0.00325259 0)
(0 -0.00513237 0)
(0 -0.0042661 0)
(0 -0.00421808 0)
(0 -0.00217359 0)
(0 -0.00357446 0)
(0 -0.000735725 0)
(0 -0.00353182 0)
(0 -0.00175024 0)
(0 -0.00309943 0)
(0 -0.00474427 0)
(0 -0.00330695 0)
(0 -0.00157975 0)
(0 -0.00243874 0)
(0 -0.000741734 0)
(0 -0.00357369 0)
(0 -0.00112698 0)
(0 -0.00397835 0)
(0 -0.00206725 0)
(0 -0.00402076 0)
(0 -0.0042899 0)
(0 -0.00531415 0)
(0 -0.000333964 0)
(0 -0.00433883 0)
(0 -0.000332811 0)
(0 -0.00314517 0)
(0 -0.00532355 0)
(0 -0.00411815 0)
(0 -0.00217486 0)
(0 -0.00173761 0)
(0 -0.00435728 0)
(0 -0.00336213 0)
(0 -0.00390775 0)
(0 -0.00480902 0)
(0 -0.00191025 0)
(0 -0.00526315 0)
(0 -0.00447495 0)
(0 -0.00201442 0)
(0 -0.00407566 0)
(0 -0.00248967 0)
(0 -0.00268332 0)
(0 -0.000141594 0)
(0 -0.00444265 0)
(0 -0.000456409 0)
(0 -0.0050455 0)
(0 -0.0016387 0)
(0 -0.00290084 0)
(0 -0.00443915 0)
(0 -0.00287861 0)
(0 -0.00260601 0)
(0 -0.000260233 0)
(0 -0.00443776 0)
(0 -0.00240065 0)
(0 -0.00539667 0)
(0 -0.00267376 0)
(0 -0.00350557 0)
(0 -7.12772e-05 0)
(0 -0.000258068 0)
(0 -7.7072e-05 0)
(0 -0.00436157 0)
(0 -0.0041271 0)
(0 -0.00437338 0)
(0 -0.00499758 0)
(0 -0.00127825 0)
(0 -0.000653794 0)
(0 -0.00480986 0)
(0 -0.00296424 0)
(0 -0.000737157 0)
(0 -0.00191897 0)
(0 -0.0049499 0)
(0 -0.00474504 0)
(0 -0.00320085 0)
(0 -0.00524138 0)
(0 -0.00528688 0)
(0 -0.000149334 0)
(0 -0.000140468 0)
(0 -0.00341905 0)
(0 -0.00478055 0)
(0 -0.00359521 0)
(0 -0.000392874 0)
(0 -0.000443976 0)
(0 -0.0042161 0)
(0 -0.00425713 0)
(0 -0.00386526 0)
(0 -3.4543e-05 0)
(0 -0.00198483 0)
(0 -0.000190061 0)
(0 -0.00533188 0)
(0 -0.00321687 0)
(0 -0.00232488 0)
(0 -0.00432339 0)
(0 -0.00429947 0)
(0 -0.00455857 0)
(0 -0.00472898 0)
(0 -0.00468004 0)
(0 -0.00155238 0)
(0 -0.00402837 0)
(0 -0.0018906 0)
(0 -0.00284978 0)
(0 -0.00210205 0)
(0 -0.00484295 0)
(0 -0.0033908 0)
(0 -0.00229574 0)
(0 -0.0012637 0)
(0 -0.00474948 0)
(0 -0.00291055 0)
(0 -0.00442134 0)
(0 -0.001296 0)
(0 -0.00376739 0)
(0 -0.00280488 0)
(0 -0.00105184 0)
(0 -0.00368447 0)
(0 -0.00497635 0)
(0 -0.00154866 0)
(0 -0.00324444 0)
(0 -0.00440548 0)
(0 -0.00435835 0)
(0 -0.00407687 0)
(0 -0.0031458 0)
(0 -5.5387e-05 0)
(0 -0.000916196 0)
(0 -0.00457432 0)
(0 -0.00130892 0)
(0 -0.00145752 0)
(0 -0.00491083 0)
(0 -0.00246992 0)
(0 -0.00382087 0)
(0 -0.00266891 0)
(0 -0.00401835 0)
(0 -5.02023e-05 0)
(0 -0.0016836 0)
(0 -0.00540376 0)
(0 -0.00275823 0)
(0 -0.000894803 0)
(0 -0.000138291 0)
(0 -0.00438799 0)
(0 -0.0028679 0)
(0 -0.00544562 0)
(0 -0.00331176 0)
(0 -0.00395846 0)
(0 -0.00380517 0)
(0 -0.000349034 0)
(0 -0.00480397 0)
(0 -0.00525927 0)
(0 -0.00505127 0)
(0 -0.00193763 0)
(0 -0.00207982 0)
(0 -0.0047288 0)
(0 -0.00273687 0)
(0 -0.000155971 0)
(0 -0.00203656 0)
(0 -0.00485966 0)
(0 -0.0030138 0)
(0 -0.00334677 0)
(0 -0.00535759 0)
(0 -0.00102033 0)
(0 -0.00264068 0)
(0 -0.000367643 0)
(0 -0.00263767 0)
(0 -0.00399576 0)
(0 -0.000945739 0)
(0 -0.00113335 0)
(0 -0.000254096 0)
(0 -0.00274801 0)
(0 -0.00305055 0)
(0 -0.00238336 0)
(0 -0.00348133 0)
(0 -0.00266692 0)
(0 -0.0037555 0)
(0 -0.00372237 0)
(0 -0.00324366 0)
(0 -0.00145327 0)
(0 -0.00447995 0)
(0 -0.00412143 0)
(0 -0.00133699 0)
(0 -0.00039987 0)
(0 -0.00349051 0)
(0 -0.00280115 0)
(0 -0.00280437 0)
(0 -0.00376811 0)
(0 -0.00493913 0)
(0 -0.00281509 0)
(0 -0.00254681 0)
(0 -0.003004 0)
(0 -0.00239284 0)
(0 -0.00437827 0)
(0 -0.00359176 0)
(0 -0.0028041 0)
(0 -0.00384131 0)
(0 -0.00355871 0)
(0 -0.00556177 0)
(0 -0.00358429 0)
(0 -0.00351162 0)
(0 -0.00233028 0)
(0 -0.00048822 0)
(0 -0.00273181 0)
(0 -0.00299931 0)
(0 -0.00471303 0)
(0 -0.00478197 0)
(0 -0.00393373 0)
(0 -0.00307523 0)
(0 -1.69337e-05 0)
(0 -0.00415389 0)
(0 -0.00305547 0)
(0 -0.00146476 0)
(0 -0.00382331 0)
(0 -0.000452608 0)
(0 -0.00266745 0)
(0 -0.000214205 0)
(0 -0.00312199 0)
(0 -0.00385775 0)
(0 -0.00252369 0)
(0 -0.00202028 0)
(0 -0.000300554 0)
(0 -0.00356984 0)
(0 -0.0027095 0)
(0 -0.00262909 0)
(0 -0.00100438 0)
(0 -0.00015346 0)
(0 -0.00105381 0)
(0 -0.00372413 0)
(0 -0.00356344 0)
(0 -0.00110429 0)
(0 -0.00246283 0)
(0 -0.000479253 0)
(0 -0.000322084 0)
(0 -0.00282857 0)
(0 -0.00535988 0)
(0 -0.00204497 0)
(0 -0.00127418 0)
(0 -0.0016608 0)
(0 -0.000164907 0)
(0 -0.00455404 0)
(0 -0.000941712 0)
(0 -0.00487047 0)
(0 -0.00038446 0)
(0 -7.60706e-05 0)
(0 -0.00122462 0)
(0 -0.00300845 0)
(0 -0.00162086 0)
(0 -0.00201196 0)
(0 -0.00479129 0)
(0 -0.00496339 0)
(0 -0.00450441 0)
(0 -0.00292746 0)
(0 -0.00445511 0)
(0 -0.00361705 0)
(0 -0.00118647 0)
(0 -0.000135294 0)
(0 -0.00533395 0)
(0 -0.00234454 0)
(0 -0.00277008 0)
(0 -0.00128127 0)
(0 -0.00288917 0)
(0 -0.00279645 0)
(0 -0.00436951 0)
(0 -0.00147436 0)
(0 -0.0053989 0)
(0 -0.00296556 0)
(0 -0.00204438 0)
(0 -0.00348163 0)
(0 -0.00318298 0)
(0 -0.00362329 0)
(0 -0.000892677 0)
(0 -0.00494241 0)
(0 -0.00424022 0)
(0 -0.00295275 0)
(0 -0.00200662 0)
(0 -0.00363118 0)
(0 -0.00471437 0)
(0 -0.00167613 0)
(0 -0.00107063 0)
(0 -0.00324446 0)
(0 -0.00262089 0)
(0 -0.00364364 0)
(0 -0.00473611 0)
(0 -0.00256347 0)
(0 -0.00493575 0)
(0 -0.00241987 0)
(0 -0.00397137 0)
(0 -0.00458597 0)
(0 -0.00530024 0)
(0 -0.00216763 0)
(0 -0.00160697 0)
(0 -0.000268029 0)
(0 -0.00420136 0)
(0 -0.00110463 0)
(0 -0.00448469 0)
(0 -0.00110071 0)
(0 -0.00442053 0)
(0 -0.0023414 0)
(0 -0.00318975 0)
(0 -0.00182229 0)
(0 -0.00314408 0)
(0 -0.00189782 0)
(0 -0.00552296 0)
(0 -0.00323184 0)
(0 -0.0054407 0)
(0 -0.0045594 0)
(0 -0.00125257 0)
(0 -0.0011327 0)
(0 -0.00015692 0)
(0 -0.00302612 0)
(0 -0.00401214 0)
(0 -0.00491787 0)
(0 -0.000903638 0)
(0 -0.00245012 0)
(0 -0.00285963 0)
(0 -0.00299108 0)
(0 -0.00297161 0)
(0 -0.00395529 0)
(0 -0.00107635 0)
(0 -0.000600116 0)
(0 -0.00270307 0)
(0 -0.00216165 0)
(0 -0.00419633 0)
(0 -0.00412312 0)
(0 -0.000946646 0)
(0 -0.00293354 0)
(0 -0.00130731 0)
(0 -0.00483201 0)
(0 -0.00373163 0)
(0 -0.00030579 0)
(0 -0.00453127 0)
(0 -0.00272522 0)
(0 -0.00121877 0)
(0 -0.00265657 0)
(0 -0.00468717 0)
(0 -0.00541029 0)
(0 -0.00506834 0)
(0 -0.00410363 0)
(0 -0.000355411 0)
(0 -0.00340915 0)
(0 -0.00500342 0)
(0 -0.00239849 0)
(0 -0.00222402 0)
(0 -0.00272388 0)
(0 -0.00108123 0)
(0 -0.00537991 0)
(0 -0.00160836 0)
(0 -0.00543268 0)
(0 -0.00229929 0)
(0 -0.00440611 0)
(0 -0.00287343 0)
(0 -0.00245834 0)
(0 -0.00339966 0)
(0 -0.0031052 0)
(0 -0.00267611 0)
(0 -0.00279816 0)
(0 -0.00278498 0)
(0 -0.00114737 0)
(0 -0.00132979 0)
(0 -0.00449742 0)
(0 -0.00261958 0)
(0 -0.00551277 0)
(0 -0.0033362 0)
(0 -0.00542023 0)
(0 -0.00292762 0)
(0 -0.00281508 0)
(0 -0.0039043 0)
(0 -0.00434953 0)
(0 -0.00353887 0)
(0 -0.00098036 0)
(0 -0.00235267 0)
(0 -0.00464151 0)
(0 -0.00531885 0)
(0 -0.00383854 0)
(0 -0.00273055 0)
(0 -0.00345948 0)
(0 -0.00358415 0)
(0 -0.00316248 0)
(0 -0.000933006 0)
(0 -0.000180653 0)
(0 -0.00129999 0)
(0 -0.00329018 0)
(0 -0.00194823 0)
(0 -0.00412758 0)
(0 -0.0004157 0)
(0 -0.000259126 0)
(0 -0.0010855 0)
(0 -0.00196966 0)
(0 -0.00175956 0)
(0 -0.00337425 0)
(0 -0.000361677 0)
(0 -2.83784e-05 0)
(0 -0.00104895 0)
(0 -0.00272121 0)
(0 -0.000234999 0)
(0 -0.00257865 0)
(0 -0.00350226 0)
(0 -0.00276986 0)
(0 -0.00244777 0)
(0 -0.00189973 0)
(0 -0.00438538 0)
(0 -0.00269391 0)
(0 -0.00251515 0)
(0 -0.00037076 0)
(0 -0.00539404 0)
(0 -0.000205161 0)
(0 -0.00477266 0)
(0 -0.00377053 0)
(0 -0.00404335 0)
(0 -0.00123515 0)
(0 -0.00221945 0)
(0 -0.00250416 0)
(0 -0.00544535 0)
(0 -0.00159053 0)
(0 -0.0054183 0)
(0 -0.00404086 0)
(0 -0.00273049 0)
(0 -0.000375929 0)
(0 -0.00111898 0)
(0 -0.0030011 0)
(0 -0.00306778 0)
(0 -0.00278621 0)
(0 -0.00209167 0)
(0 -0.00347368 0)
(0 -0.00237295 0)
(0 -0.00487066 0)
(0 -0.00412788 0)
(0 -0.000281332 0)
(0 -0.00337038 0)
(0 -0.0033717 0)
(0 -0.00242951 0)
(0 -0.00350282 0)
(0 -0.00018455 0)
(0 -0.0037709 0)
(0 -0.00127864 0)
(0 -0.00488686 0)
(0 -0.00169543 0)
(0 -0.000147577 0)
(0 -0.000970067 0)
(0 -0.00275161 0)
(0 -0.00247432 0)
(0 -0.0021063 0)
(0 -0.00433725 0)
(0 -0.00476979 0)
(0 -0.00123903 0)
(0 -0.00108864 0)
(0 -0.00269067 0)
(0 -0.00384876 0)
(0 -0.00158703 0)
(0 -0.000366078 0)
(0 -0.00226653 0)
(0 -0.00299614 0)
(0 -0.00108574 0)
(0 -0.00490115 0)
(0 -0.0010436 0)
(0 -0.00347047 0)
(0 -0.00235354 0)
(0 -0.00229666 0)
(0 -0.00408169 0)
(0 -0.00547666 0)
(0 -0.00197749 0)
(0 -0.0045374 0)
(0 -0.00444609 0)
(0 -0.000972744 0)
(0 -0.00036551 0)
(0 -0.00523651 0)
(0 -0.00380748 0)
(0 -0.00317664 0)
(0 -0.0033231 0)
(0 -0.000234445 0)
(0 -0.00351723 0)
(0 -0.00110955 0)
(0 -0.00404342 0)
(0 -0.00493004 0)
(0 -0.00102074 0)
(0 -0.0033659 0)
(0 -0.00379701 0)
(0 -0.0016313 0)
(0 -0.00434165 0)
(0 -0.00446557 0)
(0 -0.00224023 0)
(0 -0.001063 0)
(0 -0.00107178 0)
(0 -0.00216128 0)
(0 -0.00373417 0)
(0 -0.00254023 0)
(0 -0.00399475 0)
(0 -0.00155164 0)
(0 -0.00238198 0)
(0 -0.00414937 0)
(0 -0.000977162 0)
(0 -3.58186e-05 0)
(0 -3.13401e-05 0)
(0 -0.00170955 0)
(0 -0.00430748 0)
(0 -0.00321439 0)
(0 -0.00209808 0)
(0 -0.00449322 0)
(0 -0.0025714 0)
(0 -0.0031 0)
(0 -0.0045935 0)
(0 -0.00402144 0)
(0 -0.00453622 0)
(0 -0.00271472 0)
(0 -0.00215586 0)
(0 -0.00351974 0)
(0 -0.00368728 0)
(0 -0.00415779 0)
(0 -0.00240441 0)
(0 -0.000973762 0)
(0 -0.00327284 0)
(0 -0.00475952 0)
(0 -0.00280441 0)
(0 -0.000193393 0)
(0 -0.00168776 0)
(0 -0.00231429 0)
(0 -0.00314208 0)
(0 -0.000614293 0)
(0 -0.00239188 0)
(0 -0.00259894 0)
(0 -0.00471939 0)
(0 -0.00336022 0)
(0 -0.00231405 0)
(0 -0.00384517 0)
(0 -0.00250433 0)
(0 -0.00337307 0)
(0 -0.00152448 0)
(0 -0.00391791 0)
(0 -0.00200002 0)
(0 -0.00532469 0)
(0 -0.00175303 0)
(0 -0.00386452 0)
(0 -0.00278849 0)
(0 -0.003279 0)
(0 -0.00508085 0)
(0 -0.00322935 0)
(0 -0.00110576 0)
(0 -0.00332266 0)
(0 -0.00280303 0)
(0 -0.00437354 0)
(0 -0.000387263 0)
(0 -0.00539836 0)
(0 -0.00247138 0)
(0 -0.00227203 0)
(0 -0.00540408 0)
(0 -0.00252306 0)
(0 -0.0048803 0)
(0 -0.00335438 0)
(0 -0.00241268 0)
(0 -0.00268416 0)
(0 -0.00227601 0)
(0 -0.00135794 0)
(0 -0.00291871 0)
(0 -0.00421161 0)
(0 -0.00444843 0)
(0 -0.00139339 0)
(0 -0.00310594 0)
(0 -0.000643388 0)
(0 -0.00111657 0)
(0 -0.00545525 0)
(0 -0.00313446 0)
(0 -0.00343457 0)
(0 -0.00240973 0)
(0 -5.8756e-05 0)
(0 -0.00102952 0)
(0 -0.002652 0)
(0 -0.00428212 0)
(0 -0.00207072 0)
(0 -0.00117043 0)
(0 -0.00552745 0)
(0 -0.00312926 0)
(0 -0.00400271 0)
(0 -0.000983249 0)
(0 -0.00373166 0)
(0 -0.00376694 0)
(0 -0.0022993 0)
(0 -0.00389074 0)
(0 -0.0036535 0)
(0 -0.00484242 0)
(0 -0.00554724 0)
(0 -0.00296893 0)
(0 -1.96233e-05 0)
(0 -0.00379922 0)
(0 -0.00541853 0)
(0 -0.00317524 0)
(0 -0.0048707 0)
(0 -0.00318418 0)
(0 -0.00327553 0)
(0 -0.00146172 0)
(0 -0.00333278 0)
(0 -0.00323622 0)
(0 -0.00366544 0)
(0 -0.00295297 0)
(0 -0.00502167 0)
(0 -0.0048159 0)
(0 -0.00314117 0)
(0 -0.00504828 0)
(0 -0.00227285 0)
(0 -0.00235117 0)
(0 -0.00469242 0)
(0 -0.00364979 0)
(0 -0.00388039 0)
(0 -0.0023948 0)
(0 -0.0044292 0)
(0 -0.000405496 0)
(0 -0.00316984 0)
(0 -0.00484368 0)
(0 -0.00102386 0)
(0 -0.00205661 0)
(0 -0.00254868 0)
(0 -0.0015503 0)
(0 -0.00332151 0)
(0 -0.0020265 0)
(0 -0.00546452 0)
(0 -0.0033432 0)
(0 -0.00555984 0)
(0 -0.00496703 0)
(0 -0.000907043 0)
(0 -0.00545364 0)
(0 -0.00480129 0)
(0 -0.00206723 0)
(0 -0.00460783 0)
(0 -0.00193583 0)
(0 -0.00535829 0)
(0 -0.00327786 0)
(0 -0.00218787 0)
(0 -0.00376469 0)
(0 -0.00525612 0)
(0 -0.00202162 0)
(0 -0.00317833 0)
(0 -0.00307752 0)
(0 -0.00299647 0)
(0 -0.0011975 0)
(0 -0.00368436 0)
(0 -0.00460037 0)
(0 -0.000429841 0)
(0 -0.00483282 0)
(0 -0.0028491 0)
(0 -0.00375092 0)
(0 -0.000294344 0)
(0 -0.00268311 0)
(0 -0.00133537 0)
(0 -0.004901 0)
(0 -0.00388899 0)
(0 -0.000331328 0)
(0 -0.00163635 0)
(0 -0.00422789 0)
(0 -0.00551626 0)
(0 -0.00241779 0)
(0 -0.00171479 0)
(0 -0.00317109 0)
(0 -0.0026088 0)
(0 -0.00140991 0)
(0 -0.00390607 0)
(0 -0.000647625 0)
(0 -0.00391598 0)
(0 -0.00286022 0)
(0 -0.00149757 0)
(0 -0.00241123 0)
(0 -0.000786811 0)
(0 -0.00131802 0)
(0 -0.002849 0)
(0 -8.84062e-05 0)
(0 -0.00413426 0)
(0 -0.00238242 0)
(0 -0.00393178 0)
(0 -0.0033669 0)
(0 -0.00375977 0)
(0 -0.00315955 0)
(0 -0.00397609 0)
(0 -0.00492935 0)
(0 -0.00471024 0)
(0 -0.00471789 0)
(0 -0.00382789 0)
(0 -0.00259925 0)
(0 -0.000785273 0)
(0 -0.00293629 0)
(0 -0.000797703 0)
(0 -0.00078356 0)
(0 -0.00143409 0)
(0 -0.00345982 0)
(0 -0.00488524 0)
(0 -0.00336886 0)
(0 -0.000775875 0)
(0 -0.00328483 0)
(0 -0.00515306 0)
(0 -8.27641e-05 0)
(0 -0.00291987 0)
(0 -0.00146603 0)
(0 -0.00431543 0)
(0 -0.00537871 0)
(0 -0.000806809 0)
(0 -0.00297396 0)
(0 -0.00304013 0)
(0 -0.00475011 0)
(0 -0.00301181 0)
(0 -0.0043813 0)
(0 -0.00342413 0)
(0 -0.00298679 0)
(0 -0.00281848 0)
(0 -0.00284386 0)
(0 -0.00102427 0)
(0 -4.45328e-05 0)
(0 -0.00222297 0)
(0 -0.00517026 0)
(0 -0.000811536 0)
(0 -0.00255773 0)
(0 -0.00081155 0)
(0 -0.00215832 0)
(0 -0.00264702 0)
(0 -0.00374586 0)
(0 -0.000711823 0)
(0 -0.00193059 0)
(0 -0.0052428 0)
(0 -0.00246232 0)
(0 -0.00200391 0)
(0 -0.00276038 0)
(0 -0.00256359 0)
(0 -0.00222866 0)
(0 -0.00468476 0)
(0 -0.000356485 0)
(0 -0.000451858 0)
(0 -0.00255535 0)
(0 -0.00443827 0)
(0 -0.00301588 0)
(0 -0.00134255 0)
(0 -0.00374721 0)
(0 -0.00555416 0)
(0 -0.000154046 0)
(0 -0.00230495 0)
(0 -0.00282133 0)
(0 -0.00327538 0)
(0 -0.00293222 0)
(0 -0.0044539 0)
(0 -0.00540879 0)
(0 -0.00269395 0)
(0 -0.00458035 0)
(0 -0.00160944 0)
(0 -0.00238598 0)
(0 -0.00227975 0)
(0 -0.00103799 0)
(0 -0.00199602 0)
(0 -0.000935867 0)
(0 -0.00084434 0)
(0 -0.000187292 0)
(0 -0.00287623 0)
(0 -0.00076792 0)
(0 -0.00250291 0)
(0 -0.00246306 0)
(0 -0.00199803 0)
(0 -0.00242415 0)
(0 -0.000751852 0)
(0 -0.00178748 0)
(0 -0.0026614 0)
(0 -0.000779004 0)
(0 -0.00517891 0)
(0 -0.00399033 0)
(0 -0.000333285 0)
(0 -0.00216544 0)
(0 -0.00234308 0)
(0 -0.000974344 0)
(0 -0.00118418 0)
(0 -0.00158504 0)
(0 -0.00270614 0)
(0 -0.00114457 0)
(0 -0.00289533 0)
(0 -0.00217106 0)
(0 -0.00306171 0)
(0 -0.00289735 0)
(0 -0.00531589 0)
(0 -0.00176272 0)
(0 -0.0045806 0)
(0 -0.00207303 0)
(0 -0.00107636 0)
(0 -0.00121916 0)
(0 -0.0020631 0)
(0 -0.000806868 0)
(0 -0.00313171 0)
(0 -0.00129888 0)
(0 -0.00537299 0)
(0 -0.00438713 0)
(0 -0.00364841 0)
(0 -0.00384071 0)
(0 -0.0023157 0)
(0 -0.00148635 0)
(0 -0.000466077 0)
(0 -0.000196816 0)
(0 -0.00393604 0)
(0 -0.00380353 0)
(0 -0.000207471 0)
(0 -0.00423851 0)
(0 -0.00408355 0)
(0 -0.00279745 0)
(0 -0.00108969 0)
(0 -0.00383655 0)
(0 -0.0041476 0)
(0 -0.000871613 0)
(0 -0.00349288 0)
(0 -0.00555794 0)
(0 -0.00465975 0)
(0 -0.000797382 0)
(0 -0.000983079 0)
(0 -0.000939932 0)
(0 -0.00521828 0)
(0 -0.00222718 0)
(0 -0.00361129 0)
(0 -0.00103073 0)
(0 -0.00259881 0)
(0 -0.00259454 0)
(0 -0.00333651 0)
(0 -0.00217584 0)
(0 -0.0026442 0)
(0 -0.00304127 0)
(0 -0.00228266 0)
(0 -0.00227123 0)
(0 -0.00244697 0)
(0 -0.00125964 0)
(0 -0.00308212 0)
(0 -5.36127e-05 0)
(0 -0.00271933 0)
(0 -0.000730671 0)
(0 -0.00399084 0)
(0 -0.00309756 0)
(0 -0.00377701 0)
(0 -0.0020959 0)
(0 -0.00445376 0)
(0 -9.79997e-05 0)
(0 -0.00254241 0)
(0 -0.00317639 0)
(0 -0.00202219 0)
(0 -0.00304731 0)
(0 -0.00184487 0)
(0 -0.00547337 0)
(0 -0.00261416 0)
(0 -0.00252616 0)
(0 -0.00453314 0)
(0 -0.00182195 0)
(0 -0.000845185 0)
(0 -0.00187744 0)
(0 -0.00347752 0)
(0 -0.00209446 0)
(0 -0.00304671 0)
(0 -0.00119278 0)
(0 -0.00388634 0)
(0 -0.00243363 0)
(0 -0.00426044 0)
(0 -0.000373055 0)
(0 -0.00270584 0)
(0 -0.00204654 0)
(0 -0.00370984 0)
(0 -0.0053055 0)
(0 -0.00121253 0)
(0 -0.00481064 0)
(0 -0.00104362 0)
(0 -0.00543483 0)
(0 -0.00303468 0)
(0 -0.00275066 0)
(0 -0.00464935 0)
(0 -0.00237302 0)
(0 -0.0045048 0)
(0 -0.00110067 0)
(0 -0.00138278 0)
(0 -0.000943535 0)
(0 -0.00265701 0)
(0 -0.00284098 0)
(0 -0.00124769 0)
(0 -0.00109611 0)
(0 -0.00212901 0)
(0 -0.000991627 0)
(0 -0.00284474 0)
(0 -0.000372231 0)
(0 -0.00272076 0)
(0 -0.00381068 0)
(0 -0.00175766 0)
(0 -0.00480183 0)
(0 -0.00133232 0)
(0 -0.00182241 0)
(0 -0.00078306 0)
(0 -0.000893441 0)
(0 -0.00511527 0)
(0 -0.00303511 0)
(0 -0.00235307 0)
(0 -0.00293653 0)
(0 -0.00115489 0)
(0 -0.00321057 0)
(0 -0.0030126 0)
(0 -0.00535035 0)
(0 -0.00294099 0)
(0 -0.00428209 0)
(0 -0.00493757 0)
(0 -0.000184877 0)
(0 -0.00271592 0)
(0 -0.0029773 0)
(0 -0.00529228 0)
(0 -0.00271326 0)
(0 -0.00486715 0)
(0 -0.00222784 0)
(0 -0.00320302 0)
(0 -0.00290772 0)
(0 -0.00490641 0)
(0 -0.00380815 0)
(0 -0.00124754 0)
(0 -0.00476234 0)
(0 -0.000186306 0)
(0 -0.00338997 0)
(0 -0.00203979 0)
(0 -0.00238172 0)
(0 -0.00350036 0)
(0 -0.00217234 0)
(0 -0.00278458 0)
(0 -0.00230188 0)
(0 -0.00173464 0)
(0 -0.00212051 0)
(0 -0.000203032 0)
(0 -0.00271054 0)
(0 -0.00477716 0)
(0 -0.00300743 0)
(0 -0.00278594 0)
(0 -0.00174879 0)
(0 -0.00265777 0)
(0 -0.00174879 0)
(0 -0.00229021 0)
(0 -0.00182347 0)
(0 -0.00285319 0)
(0 -0.00288051 0)
(0 -0.00154293 0)
(0 -0.00306083 0)
(0 -0.00270203 0)
(0 -0.00230035 0)
(0 -0.00128981 0)
(0 -0.00113681 0)
(0 -0.00194362 0)
(0 -0.000193578 0)
(0 -0.00274626 0)
(0 -0.00268727 0)
(0 -0.00278537 0)
(0 -0.00512923 0)
(0 -0.000148295 0)
(0 -0.00278563 0)
(0 -0.00319402 0)
(0 -0.00444322 0)
(0 -0.00293308 0)
(0 -0.00301573 0)
(0 -0.00262859 0)
(0 -0.00108168 0)
(0 -0.0018713 0)
(0 -0.00179784 0)
(0 -0.00474788 0)
(0 -0.0027703 0)
(0 -0.00241209 0)
(0 -0.00225674 0)
(0 -0.00186964 0)
(0 -0.00347856 0)
(0 -0.000832282 0)
(0 -0.00232828 0)
(0 -0.00303918 0)
(0 -0.00305978 0)
(0 -0.00253835 0)
(0 -0.00260034 0)
(0 -0.00393164 0)
(0 -0.0033612 0)
(0 -0.00325138 0)
(0 -0.00302828 0)
(0 -0.00372918 0)
(0 -9.13479e-05 0)
(0 -0.00135712 0)
(0 -0.000924701 0)
(0 -0.00167145 0)
(0 -0.000203994 0)
(0 -0.00244163 0)
(0 -0.00186253 0)
(0 -0.00241061 0)
(0 -0.00268879 0)
(0 -0.0026547 0)
(0 -0.00257434 0)
(0 -0.00300625 0)
(0 -0.00328683 0)
(0 -0.00303534 0)
(0 -0.00377095 0)
(0 -0.00215682 0)
(0 -0.00203252 0)
(0 -0.00306578 0)
(0 -0.000285922 0)
(0 -0.00388591 0)
(0 -9.4391e-05 0)
(0 -0.00379039 0)
(0 -0.00331403 0)
(0 -0.00293332 0)
(0 -0.00113258 0)
(0 -0.00239089 0)
(0 -0.00341205 0)
(0 -0.00314975 0)
(0 -0.00163499 0)
(0 -0.00290828 0)
(0 -0.00120553 0)
(0 -0.00277874 0)
(0 -0.00321241 0)
(0 -6.18471e-05 0)
(0 -0.00128325 0)
(0 -0.00277894 0)
(0 -0.00178079 0)
(0 -0.00136574 0)
(0 -0.0036067 0)
(0 -0.00293894 0)
(0 -0.00296846 0)
(0 -0.00267057 0)
(0 -0.00189874 0)
(0 -0.000365172 0)
(0 -0.00243958 0)
(0 -0.00528907 0)
(0 -0.00299561 0)
(0 -0.00332674 0)
(0 -0.00230283 0)
(0 -0.00277238 0)
(0 -0.00161236 0)
(0 -0.00361962 0)
(0 -0.00239752 0)
(0 -0.00349731 0)
(0 -0.00228995 0)
(0 -0.00189099 0)
(0 -0.00252388 0)
(0 -0.000172091 0)
(0 -0.00167379 0)
(0 -0.00305882 0)
(0 -0.00556702 0)
(0 -0.00490384 0)
(0 -0.00209496 0)
(0 -0.00354172 0)
(0 -0.00217325 0)
(0 -0.00342185 0)
(0 -0.000470161 0)
(0 -0.00264408 0)
(0 -0.0030732 0)
(0 -0.00335643 0)
(0 -0.000386406 0)
(0 -0.00333215 0)
(0 -0.00325415 0)
(0 -0.00140074 0)
(0 -0.00339091 0)
(0 -0.00316209 0)
(0 -0.00371538 0)
(0 -0.00106154 0)
(0 -0.00540562 0)
(0 -0.00161014 0)
(0 -0.00192557 0)
(0 -0.00309737 0)
(0 -0.0027315 0)
(0 -0.00343481 0)
(0 -0.00402867 0)
(0 -0.00249065 0)
(0 -0.00190818 0)
(0 -0.00532887 0)
(0 -0.00327941 0)
(0 -0.0017688 0)
(0 -0.00365002 0)
(0 -0.00348476 0)
(0 -0.00347687 0)
(0 -0.00217867 0)
(0 -0.00331384 0)
(0 -0.00267757 0)
(0 -0.0028961 0)
(0 -0.00251414 0)
(0 -0.0047963 0)
(0 -0.00457476 0)
(0 -0.00237702 0)
(0 -0.00215364 0)
(0 -0.00115033 0)
(0 -0.00282321 0)
(0 -0.00247048 0)
(0 -0.0030597 0)
(0 -0.00329305 0)
(0 -0.00237809 0)
(0 -0.00371919 0)
(0 -0.00539908 0)
(0 -0.00338701 0)
(0 -0.00346616 0)
(0 -0.00300497 0)
(0 -0.000190145 0)
(0 -0.00255432 0)
(0 -0.0029715 0)
(0 -0.00246673 0)
(0 -0.00213681 0)
(0 -0.000718576 0)
(0 -0.00337992 0)
(0 -0.00474032 0)
(0 -0.0030752 0)
(0 -0.00288775 0)
(0 -0.00312792 0)
(0 -0.00320306 0)
(0 -0.00114733 0)
(0 -0.00212488 0)
(0 -0.00263274 0)
(0 -0.00322161 0)
(0 -0.00536891 0)
(0 -0.0023652 0)
(0 -0.00305317 0)
(0 -0.00407664 0)
(0 -0.00280634 0)
(0 -0.00202239 0)
(0 -0.00366708 0)
(0 -0.00223268 0)
(0 -0.00324471 0)
(0 -0.00343949 0)
(0 -0.00312696 0)
(0 -0.00395047 0)
(0 -0.00460821 0)
(0 -0.00323818 0)
(0 -0.00221672 0)
(0 -0.00297462 0)
(0 -0.000623725 0)
(0 -0.00227057 0)
(0 -0.00362968 0)
(0 -0.00108497 0)
(0 -0.00395202 0)
(0 -0.00289059 0)
(0 -0.00229411 0)
(0 -0.00380007 0)
(0 -0.00379058 0)
(0 -0.00276182 0)
(0 -0.00366175 0)
(0 -0.00411889 0)
(0 -0.00334151 0)
(0 -0.00494459 0)
(0 -0.00282389 0)
(0 -0.00293833 0)
(0 -0.00230335 0)
(0 -0.00412306 0)
(0 -0.0029133 0)
(0 -0.00363858 0)
(0 -0.00328514 0)
(0 -0.00376908 0)
(0 -0.00529131 0)
(0 -0.00277487 0)
(0 -0.00105626 0)
(0 -0.00207844 0)
(0 -0.00405063 0)
(0 -0.00121225 0)
(0 -0.00339443 0)
(0 -0.00425105 0)
(0 -0.00428246 0)
(0 -0.00103117 0)
(0 -0.00340502 0)
(0 -0.00178284 0)
(0 -0.00526758 0)
(0 -8.27532e-05 0)
(0 -0.00332843 0)
(0 -0.00377213 0)
(0 -0.00374449 0)
(0 -0.000752911 0)
(0 -0.00494667 0)
(0 -0.00301053 0)
(0 -0.00115297 0)
(0 -0.00304307 0)
(0 -0.00256275 0)
(0 -0.00335135 0)
(0 -0.000790013 0)
(0 -0.00343949 0)
(0 -0.00155629 0)
(0 -0.00303409 0)
(0 -0.00215296 0)
(0 -0.00262514 0)
(0 -0.00387498 0)
(0 -0.00254585 0)
(0 -0.00530473 0)
(0 -0.00550968 0)
(0 -0.00513467 0)
(0 -0.00343047 0)
(0 -0.00172616 0)
(0 -0.00242916 0)
(0 -0.00287303 0)
(0 -0.00302462 0)
(0 -0.000983577 0)
(0 -0.00183608 0)
(0 -0.0044462 0)
(0 -0.00168756 0)
(0 -0.005374 0)
(0 -0.00317752 0)
(0 -0.00544235 0)
(0 -0.00484361 0)
(0 -0.00369485 0)
(0 -0.0020566 0)
(0 -0.00159973 0)
(0 -0.00519488 0)
(0 -0.00556265 0)
(0 -0.00429385 0)
(0 -0.00274713 0)
(0 -0.0049458 0)
(0 -0.0010797 0)
(0 -0.00170684 0)
(0 -0.00547079 0)
(0 -0.00300547 0)
(0 -0.000176762 0)
(0 -0.000139931 0)
(0 -0.00100204 0)
(0 -0.00301415 0)
(0 -0.00406839 0)
(0 -0.00469328 0)
(0 -0.00408752 0)
(0 -0.0025581 0)
(0 -0.0053963 0)
(0 -0.00325073 0)
(0 -0.0036142 0)
(0 -0.000208726 0)
(0 -0.00281449 0)
(0 -0.000197921 0)
(0 -0.00502167 0)