/*--------------------------------*- C++ -*----------------------------------*\
| =========                 |                                                 |
| \\      /  F ield         | OpenFOAM: The Open Source CFD Toolbox           |
|  \\    /   O peration     | Version:  v2012                                 |
|   \\  /    A nd           | Website:  www.openfoam.com                      |
|    \\/     M anipulation  |                                                 |
\*---------------------------------------------------------------------------*/
FoamFile
{
    version     2.0;
    format      ascii;
    class       surfaceScalarField;
    location    "1000";
    object      meshPhi;
}
// * * * * * * * * * * * * * * * * * * * * * * * * * * * * * * * * * * * * * //

dimensions      [0 3 -1 0 0 0 0];
oriented        oriented;


internalField   nonuniform List<scalar> 
14516
(
-0.00262778
-0.00789485
0.0104732
-3.11659e-06
-0.000120492
0.000120601
0.00881136
-0.0114926
0.00288094
-0.00394301
0.000656322
0.0159406
-0.0111487
-0.00482271
-0.0127398
0.00158879
0.0110137
0.000926597
-8.15263e-05
-0.00123783
-0.00752493
0.00663769
0.000667157
0.0115711
0.00115125
-0.0128529
0.00660125
0.00930828
0.00937624
-0.0117442
0.00233362
0.0110258
-0.000821109
-0.0102389
0.00287549
-0.000481645
-0.000111853
-0.00172456
0.0018041
-0.000218696
-0.000152562
-0.00167509
-3.60999e-05
0.0016749
-0.00692327
0.00234698
0.00449554
-0.00240542
-0.0046203
0.0135039
-0.00135602
-0.012178
-0.00182038
-0.0010175
-0.0115968
0.0125749
0.00127919
-0.0106938
0.00936438
0.00457271
-0.0015547
-0.00303938
-4.66332e-05
4.66332e-05
0.0110072
-0.00149237
-0.00965211
0.0018313
0.000552305
0.00155451
1.3383e-05
-0.00160524
-0.000154872
-0.00493338
0.00500538
-0.0133446
0.00446137
0.00883649
0.0123567
-0.000919935
0.0109289
-0.0130763
0.00207383
0.000887902
0.003642
0.00758693
-0.00159892
-0.00601176
-0.000156577
-0.000149299
0.000201853
0.00492144
-0.0151259
0.0101654
0.0133695
-0.0014915
-0.011918
1.30069e-05
0.000600703
-0.0096221
0.0108488
0.00866154
-0.00664578
-0.00223248
-0.000138552
0.000706114
-0.000705307
0.0139697
-0.0031242
-0.000735686
0.000152102
0.00111054
-0.00192482
0.000355214
-0.000108394
0.000926901
-0.0011827
0.00110894
-0.000562094
-0.00049076
-0.00845389
0.000265733
-0.0028499
0.00256397
-0.00162309
-0.0107229
0.0123194
-0.00106766
-0.00324337
-0.00695062
-0.0082121
0.00018
-0.00949682
0.00928791
0.0128612
-0.00308786
-0.00986764
-0.0135103
0.0138715
-0.000536154
0.00136502
-0.00857698
0.00719593
0.012646
-0.0130726
0.000386606
-0.00904035
0.00948987
-0.0111049
0.00284329
0.00824195
0.0109047
0.000386805
-0.0113272
0.00573638
0.00277946
1.27568e-05
0.000372118
-0.000528995
0.0122144
-0.00194932
-0.0103552
0.0102189
-0.0116796
0.00143293
0.00111736
-0.00278572
0.000987962
0.00885064
0.00471166
-0.000930232
-0.00687192
0.00776563
0.0127506
-0.00257021
-0.0110627
0.012301
-0.00126886
0.001481
0.00950471
-0.000747973
0.0100914
-0.00855608
0.00990327
1.18704e-05
0
-1.39427e-05
0.0109432
-0.00200396
-0.00913196
-0.000220542
0.000189579
2.99442e-05
0.00317801
-0.0101657
-0.000235755
0.0111023
-0.00127219
-0.00953817
0.0105408
0.000111095
-6.48273e-09
-0.000111903
-0.00642899
0.00156818
0.00479899
-0.00760351
0.00236715
0.00514325
-0.00641427
0.00545254
-0.00729839
0.00168432
0.00552214
0.000135054
1.19072e-06
-0.000137099
-3.54703e-05
-0.00289132
0.0028947
0.0128309
0.0010538
0.000208096
-0.00278323
0.00255273
-0.00534806
-0.00233309
2.32949e-05
-0.0102063
0.00994305
-0.0110149
0.011385
-0.000501518
0.00794615
-0.00181491
-0.00623386
-0.000175659
0.000169862
-0.00118452
-0.010115
0.0112852
0.00287866
-0.00234709
-0.000595755
0.00454917
-0.00370061
0.00110292
-0.00301764
0.00295014
0.0128906
-0.000276974
0.000123657
8.10752e-06
0.000819311
0.00198991
0.000431749
-0.00191578
0.00142362
-0.00162687
0.00199215
0.00793595
-0.00144283
-0.0066034
0.00331809
-0.000706464
-0.00271258
0.00250992
0.000702504
9.93632e-05
5.61389e-06
0.0136928
-0.000936433
0.0131014
-0.00181903
0.000532659
-9.09507e-06
-0.000716495
0.0106386
0.0020963
-0.000481117
-0.00220114
0.00266868
4.9068e-08
7.43999e-06
0.000465718
0.0117953
-0.0122881
0.0117421
-0.00985022
-0.00303828
0.0150472
-0.0120566
0.00912958
-0.00897754
-0.0105759
0.00106763
-0.00662227
0.00552608
-0.00681329
0.00995351
-0.00128523
-0.00610468
0.00376783
0.000730084
0.00190538
-0.00239793
-5.39984e-06
1.07736e-06
1.42932e-06
0.00967431
-0.0103151
0.000324433
-0.000441315
-0.0124129
-0.000556818
-0.0103322
0.0107885
-0.0125121
0.0114552
-0.0101302
0.00240749
0.00768992
0.00280859
-0.00262227
-0.00103395
-0.00546326
-0.0114039
0.00280561
0.00833235
3.17059e-06
1.40314e-05
-2.7377e-05
-0.00974173
-0.00566774
-0.00592
-0.000814806
-0.00720999
0.00791957
0.00962798
0.00257332
0.00043043
-0.0105559
0.00989601
0.00128372
-0.000819563
0.000823595
-0.00128729
0.00118016
0.0100288
0.000317009
-0.000354859
-5.04038e-06
5.71947e-05
0.00933635
0.0112052
-0.00110188
-0.0102439
9.71817e-05
-0.00210778
0.00161973
-0.000406962
0.00181147
-0.00144403
-0.00182948
7.16956e-05
0.000137241
0.0017821
-0.00195524
2.10804e-06
3.40157e-05
-4.04064e-05
0.0017425
-0.00219628
0.00346376
-0.000995251
-0.00255625
0.00896883
-0.0101661
0.00966254
0.00221503
-0.0119004
-3.36794e-05
2.5974e-05
0.0124915
-0.00285727
-0.00486198
0.0114327
0.000922292
0.00244837
-4.63562e-06
-3.16102e-06
-1.31101e-05
0.000117025
-0.000144758
0.00151497
0.00954997
-0.000465425
0.00214229
-0.00173649
0.00150212
-0.00556899
-0.00214441
0.00421589
-0.00444525
0.000107895
0.00141115
-0.0015518
-0.00257414
0.0156795
-0.0131365
-0.000168208
5.31074e-05
0.000113722
-0.0138699
0.00221185
-0.00253669
-0.0124741
0.0114134
0.00100198
0.00162833
-0.000108595
0.00124244
-0.00779069
0.00643891
-0.0145241
0.00415604
0.0101535
0.00474942
-0.00941702
0.00465553
-0.000121337
-5.2766e-05
-0.00370428
0.00842733
-0.00115563
-0.00924353
0.0102953
0.010904
-0.0100003
-9.78137e-05
7.7161e-05
1.43567e-05
0.00186431
-0.00895592
0.00688927
0.0139627
-0.00639178
-0.00760194
0.010178
-0.00766547
-0.00252049
-0.0122782
0.0113742
0.000844377
-0.00215476
0.00977294
0.0107212
0.000228
-0.0109837
0.010698
6.73915e-06
-0.00243929
-0.00868695
-0.00659367
0.00826375
-0.000232794
0.00979219
-0.00985999
-0.00146219
0.00153826
-0.010859
0.00959356
0.00581218
-8.83385e-05
-0.00608977
0.010807
-0.0124567
-0.0116767
0.0121155
0.0016669
0.00340808
0.0105185
-0.0160841
0.00403727
0.012009
-0.000693383
-0.00623294
0.00681849
-0.0125761
0.00768571
2.25415e-05
0.000259362
0.0113218
-0.00182085
-0.00484147
-0.00894762
0.0137588
-2.21576e-05
-0.0130945
-0.00969477
0.00732561
0.00212007
-0.00073645
-0.0100323
9.50704e-05
1.75851e-06
-0.00053771
6.12407e-05
0.00160515
-0.00170141
0.0123199
0.00131202
-0.0110478
-0.000262414
0.0112569
0.000591831
0.00918063
-0.0098193
-0.000778725
0.0115553
0.0012198
-0.0119781
-0.01008
-0.00354168
-0.00719405
-0.00891738
9.97137e-05
-0.000154611
-0.00098246
-0.00664674
0.00753399
-0.000626684
0.0113195
9.79432e-05
-6.21641e-06
0.0118962
-0.0112892
-0.000643513
-0.000674444
0.0105657
-0.00994892
-0.00411774
-0.00809006
0.0119426
-0.00989156
2.03147e-05
0.00528324
-0.000113804
-0.00279855
0.0108154
-0.0115278
0.0129749
-0.00320029
0.00231306
0.000800154
0.00872708
-0.00945262
0.000985848
-0.00947915
0.0084665
-2.32205e-05
-2.66255e-05
1.66002e-05
2.77194e-05
-0.00318914
-0.00913325
0.000128052
-0.000274762
0.000108154
-0.0106096
0.00205343
0.0085304
0.0108559
0.00101097
-0.00938983
0.00886345
9.43154e-05
0.010362
-0.01034
-0.000248472
0.000398991
0.0124597
0.00175317
0.00593528
-0.00780576
0.013249
-0.000983629
0.000107418
-0.00181159
0.00166927
6.17602e-05
0.0092663
-0.00955665
0.00696845
0.000594472
-0.00972733
-1.98528e-05
0.00951605
-0.00314816
0.00207362
1.51519e-05
0.00640083
0.0112721
-0.00990773
-0.00240574
-0.000374568
0.000131428
0.00137198
0.00850311
-0.00997292
-0.0123754
0.00144192
0.0108824
-0.000797814
0.00989834
0.00158386
-0.00988238
0.00827219
-0.00855308
0.00916887
-0.00086872
-0.00050219
0.0111681
-0.0107268
-0.0132467
0.0109306
0.00210104
-0.00341354
-0.00900609
-0.00081995
-0.0109731
0.0116658
-0.000298527
-0.00162355
0.00188452
0.00195876
0.000634124
-0.00259397
0.000419986
-0.00950468
0.00867945
0.000139589
-0.000183865
-9.57806e-06
-0.00280775
-0.00972185
6.07888e-05
-6.89997e-05
7.41254e-06
-8.81638e-06
6.96496e-05
-0.00861379
0.00916165
0.00454731
-0.0135241
-0.0108546
-0.002327
0.0130091
-0.00158324
0.00125474
-0.000155641
-0.00120214
0.00130775
-0.014174
0.00387988
0.0102276
-0.00143803
-0.0093252
0.010526
0.000114436
7.6879e-05
-0.000192166
-4.80685e-05
0.000162025
-0.00709331
0.000536902
-0.01224
-0.000173511
0.00256107
-0.00292601
-0.00857397
0.000859294
0.0102601
-2.9935e-05
9.49143e-05
-6.56702e-05
-0.000411212
0.000474616
-0.000288764
-0.000789848
0.000517842
0.00503137
-0.00935446
-0.00913901
0.0104049
-0.0148656
0.00627403
0.00854223
7.48816e-05
0.00152659
-0.00199348
0.00971672
-0.0106652
-0.00864934
-0.00476106
0.00580717
0.0016555
-0.0126238
0.0108013
0.000620217
-4.41886e-05
3.1214e-05
-2.84653e-06
0.0068315
-0.00775033
0.000756036
-0.0114747
0.0106291
-0.00697295
-0.00793425
0.00325002
-0.003893
0.000131605
-0.00891038
-0.00448595
0.013362
-0.00236009
-0.00366907
-0.00452037
0.00819904
0.00591779
0.000431575
-0.00633694
0.000435733
-7.94291e-05
0.000741633
-3.41294e-05
-0.000995315
0.000567728
0.0011473
-0.00174288
-0.00459706
-0.00963378
-0.00648868
-0.00364793
0.0100901
-0.00911981
0.00885426
0.000131951
0.00296674
-0.00663242
-3.74764e-05
0.00142517
-0.0019995
-0.00115308
0.00169251
0.00324432
-0.00977864
0.0113351
-0.000547705
-0.0108965
-0.01268
0.0101123
0.00244753
0.00665008
0.00117568
0.0026735
0.00994471
-0.00924504
-0.000876015
-0.012859
0.010924
0.00186825
-0.0122733
0.00118354
0.00872584
-0.00824586
-0.000647374
-0.000168475
-0.0166546
0.00749523
0.00913372
-5.15886e-06
0.0001922
5.54374e-05
3.9283e-05
0.00396365
0.00620653
0.00114995
-0.0117965
0.0105661
-0.0108633
0.0112154
0.00225781
-0.0091156
-0.00126633
0.00141188
-0.000181501
0.0103049
-0.00898879
0.0109311
0.00703808
0.000788484
0.0121353
0.00105234
0.00157794
0.00568523
-0.00728617
-0.00671028
0.00555616
0.000957925
0.00120834
-0.0012367
0.00778454
0.00336036
-0.000154739
-0.000200835
0.000271504
-0.00560328
0.000581768
-0.0143967
0.0087981
0.00555272
0.00278432
-0.00955874
0.00801256
0.000523725
0.00521584
-0.00595937
0.00760029
-0.00156133
0.00149103
-1.56954e-05
0.0104166
-0.0120737
0.00158185
-0.00693119
-0.0103911
-0.0110449
0.000364199
0.010579
0.008307
-0.010672
0.00219099
0.0114728
-0.0114928
-0.000109088
-0.00750941
-0.0102748
0.00212714
0.00813034
0.00307697
0.0106265
-0.0119575
0.0125572
-0.000663498
-8.37971e-05
-0.0124639
0.00538314
0.00703901
0.00104023
-0.00961672
-0.0102697
0.00781207
-0.0058316
-0.00667442
0.0122868
-0.00196169
-0.00609565
0.00815699
-0.00217013
0.00494411
-0.012163
0.000303412
-0.000408259
-0.000807491
0.00276262
0.00763852
-0.00109822
0.000174655
-8.35837e-05
-0.000455356
0.00638145
0.012921
-0.000854329
-0.00778053
-0.0088975
0.00992631
-0.00178835
-0.00266796
-0.00796735
0.00859895
-0.0101224
0.000495769
-0.0104816
0.00990171
-0.00894243
-0.000578233
0.0092946
-0.00637919
-0.0110834
0.00146933
0.00957387
0.000111388
0.00963632
-0.0101929
-0.0134823
0.0024898
0.0108598
0.000575763
0.0104436
-0.00044487
0.00320046
0.00132447
-0.0120506
0.0106562
-7.50226e-05
-6.0957e-05
8.2838e-05
0.000548182
4.11018e-05
-0.00158376
-0.0105708
-0.00132819
0.0109079
-0.0043206
-0.0059727
0.00659675
-0.0106831
0.00400197
0.000661087
0.00923227
0.000104025
0.00299234
-0.00311859
0.0124133
0.00917366
-0.00821319
-0.000104136
9.76065e-05
8.91217e-06
3.1317e-05
0.000593457
-0.00076837
0.00989655
-0.00225545
-0.0103186
0.010804
-0.000500732
-0.00285089
0.00293313
0.00179664
-0.0017231
-0.00144782
0.0105329
-0.00917855
-0.0065905
-0.00535037
0.0119271
0.00110713
-0.00131299
-0.013409
0.0103285
-0.0105001
-6.11605e-05
-0.0110049
-0.00011664
0.0011749
0.00948081
0.00049241
-0.0100251
-0.00515617
0.00779117
-0.00295085
-0.00816136
-0.0120027
-0.00159497
-0.00333077
0.00175435
0.000760845
0.00887983
-0.00973713
-0.0103752
-0.00944412
0.0101056
0.00132186
0.00619884
0.0021331
-0.00181493
0.00191818
-0.0110884
0.0128456
-0.00179139
0.00208106
-0.00272704
-0.00416256
-0.00862437
-0.00794807
-0.0129146
0.0117017
0.00108533
-0.0116194
0.010674
-0.0104018
0.00149987
-0.000123754
0.00275059
-0.00917544
0.00119987
-0.00261948
0.00101401
-0.0140101
0.00971919
-0.000900446
-7.87338e-05
0.000943479
-0.00204846
0.00419997
-0.00217407
-8.03057e-05
0.0019495
-0.00401643
-0.00622735
0.00736936
0.000640265
-0.0111516
0.0104768
7.54984e-05
0.000756812
-0.000868232
-0.000529641
0.000605124
-0.000410726
-0.00341058
0.0099257
-0.0108697
0.010596
0.00608732
-0.00689078
0.0102359
-0.00921778
0.000132428
-0.00851504
-0.00614975
-0.0105393
-0.0151065
0.00850137
-0.00921223
-0.00391747
0.0106633
-0.00110983
-0.00956653
-0.0113205
0.0105111
-0.0147274
0.00954382
-0.0051806
-0.00476432
0.00726113
-0.0126762
0.00536217
-0.00813145
0.0108432
-0.00038165
0.00980725
3.29713e-07
-0.00483292
0.00562326
-0.000805015
0.00133568
-0.00192861
0.00965513
-0.00880473
-0.000963549
-0.0105687
0.00787546
-0.0111903
0.000571875
0.00527382
-0.00717872
0.0096211
-0.0101552
-0.00366363
0.0028434
0.000321554
-9.2102e-05
2.8698e-05
0.0123453
-0.0124248
-0.0119086
0.00892744
-0.0111431
0.0104883
-0.00279344
-0.000973905
-0.0141279
0.00946771
-1.38165e-06
7.4538e-05
-0.000416437
0.000162454
-9.96617e-06
5.70057e-05
-7.13557e-05
0.00687441
0.0127727
-0.00555788
-0.00730183
0.000887928
0.00864854
0.000105409
0.000981141
-0.00113047
-0.00230821
-0.00105505
0.00119682
-0.0113302
0.0100323
0.00289656
-0.0010022
-0.00174786
0.00145898
0.00406256
0.00503161
-0.00600025
0.00644442
0.0116437
0.00117811
-0.0100635
-0.00961811
-0.00209212
-0.0107144
5.85917e-05
-0.000181864
-2.1864e-05
0.00011014
-0.0104946
-0.00161588
-0.0105273
-0.0069841
-0.00714201
0.000994705
-0.000767524
-0.000736215
0.00153727
-0.00173856
-0.000322364
-0.00714671
0.000800631
-0.00927064
-0.00942789
0.000636062
3.40157e-05
-0.000793744
-0.00874163
0.000128734
-3.19825e-05
-0.00013189
-0.0106753
0.014553
-0.00764657
-0.00694954
-0.000629599
0.00233509
-0.00176519
-0.0117962
0.0132758
-0.00562285
0.00711942
0.0123444
-0.000577173
-0.0083885
2.04389e-05
0.0107954
-0.0108363
0.000200288
0.0091788
-0.00933873
-0.00850977
-0.000996306
0.00931618
0.000183533
-0.0113114
0.00938882
0.00188693
-0.00617483
0.00572702
-0.00903592
0.00168345
-0.00237473
0.00951839
0.0124813
-0.000945077
0.0037513
0.000796077
-0.00467347
0.00965896
0.000284046
-0.0100838
-0.00845336
0.00780164
0.0092008
-0.00380535
-0.0055446
0.00435847
-0.000739459
0.0043924
-0.00139311
-0.00344421
0.00194468
0.00705238
6.07264e-05
-0.00785323
0.00600054
0.00850541
-0.00213478
0.00952717
-1.20461e-06
0.00942998
-0.00898269
-0.00062862
-0.0112418
0.0115929
-0.000492698
-3.04932e-06
-5.34399e-05
0.00239485
0.00153867
-0.0117854
-0.00101578
0.0127565
-0.00867396
-0.00161705
0.000115969
-0.00136945
0.00800563
-0.00830208
0.000217353
0.000514237
-0.0108476
0.0110872
-0.0109111
-0.000327085
-0.000359396
-0.00230863
0.00263839
0.00200468
-0.0140319
-5.02325e-05
-0.00608182
-0.0105829
-0.0097411
-0.00959124
0.00874208
7.81244e-05
-0.000108521
0.0149753
-0.00521075
0.0114364
-0.0103086
-0.00079522
0.0111009
0.00152185
-0.000396656
-0.00279887
0.00507703
0.000264509
-2.45783e-05
-0.000242418
-0.00859355
0.00241945
0.00130217
-0.0109621
0.000566933
-0.00699195
0.00168908
0.00981619
-0.0115207
-0.00479667
-0.00654347
0.0105965
-0.0105964
-0.0103269
0.00988707
-0.000571758
0.000128202
-0.00963647
0.00862949
0.000977527
0.00859994
-0.000668348
-0.00268118
0.000132663
0.00254927
-0.0115146
0.0102537
0.00111796
0.0102398
0.000832104
-0.0111024
0.000105232
-0.000849346
0.000720459
-0.00226785
0.00267047
-0.00041952
0.000224306
-0.00082136
-0.000923081
0.000996584
-0.00959751
0.00172617
0.00786487
-8.72499e-05
0.000870821
-0.000811933
0.000197925
-0.000245886
-6.27492e-06
-0.010186
0.00993222
0.000199398
-0.00700591
-0.00509626
0.0120556
-0.00852708
-0.00838839
0.00623814
-0.00916842
0.000133297
0.0087596
0.0102603
0.000686756
0.0106676
-0.000549717
0.0103076
-0.0116901
0.00443478
-0.00261832
-0.00211807
-0.00565997
0.000815993
0.0141874
-0.00870064
-0.00549958
0.00303359
0.000454562
-0.000626833
-0.00804382
-0.00613151
0.00909574
-0.0106383
0.00939449
-0.0106355
-0.00154476
0.0120537
-0.00991784
0.0103312
0.00557981
-0.0108416
-0.0133389
0.00982035
-0.0113317
0.00428774
-0.00350071
0.00366545
-0.000334175
-0.00699569
0.0111074
0.00108323
-0.0131745
0.00970815
0.010955
0.000266643
-0.00723915
-0.00486947
0.0106952
-0.00147214
-0.0092295
-0.000969782
0.00937972
-0.00856157
-0.0127721
0.00165311
0.00932381
-0.0110994
0.00173462
0.000683929
-0.00106826
7.25353e-05
-0.00951356
-2.82164e-05
-0.00512635
0.00501394
-0.00704088
-0.000651832
0.00757358
0.000909911
-0.00808223
0.00893737
-0.00191952
-0.00137121
0.00324294
-2.24645e-05
2.24645e-05
0.000806149
-0.00365478
0.00168306
-0.0009366
-0.00422518
0.00470938
0.0116196
0.000129385
-0.0118182
0.00039161
-6.08181e-05
-0.000363173
-0.0101423
0.00915502
-0.000238666
0.000238602
-0.000118661
-0.0105552
-0.000463333
0.0120062
-0.00627602
-0.0070994
-0.00161023
-0.00805657
0.000535652
-4.36127e-05
0.00782767
0.00103542
-0.00908489
-0.00918304
0.00899141
-0.00437717
0.0037389
0.000480623
-0.000734843
-8.73151e-05
0.000801671
4.86098e-07
9.87006e-05
8.77906e-05
-0.000846039
0.00841631
-0.00057169
0.00650137
-0.00758872
0.000752351
-0.000868754
-0.00890723
0.00950996
-0.000647927
-0.000651594
0.000553967
-0.000713666
-0.000290117
-0.00953499
0.00896488
0.000371977
-0.000909495
0.0111127
-0.0063749
0.00153115
0.00449777
-0.00114353
0.000979735
0.0105403
-0.00823318
0.00017271
-9.70214e-05
0.0119361
-0.00981773
-0.00222698
-0.00259726
-0.00700649
0.00700638
-0.00860527
0.00100737
-0.000774839
-0.000709341
-8.74321e-05
5.34496e-05
-0.00455372
0.00738465
0.00496028
-0.00512356
-0.00242576
-0.00816965
0.0105251
0.000514538
0.0054908
-0.0057249
-0.00154926
0.00723458
0.00995204
0.00186408
0.00675807
0.00230358
-0.00926045
-0.0050236
0.00564417
-0.000640525
0.000981687
-0.00400616
0.00296503
-0.00105125
0.000105751
-0.000103854
-9.38439e-07
-0.0103497
0.0105343
-0.0100202
-0.00052985
-0.000133403
-0.000544819
-0.00792796
-0.00298509
0.00900753
-0.0120767
0.00408666
-0.0055115
-0.000485244
0.00788172
-0.00741793
0.00272702
-0.000218899
-0.00253996
-0.00981035
0.0089853
0.00854152
-0.000939571
-0.0140544
0.0061166
0.00787932
0.0119108
-0.000908147
0.00797751
0.0026305
-0.000589312
0.00283786
-0.000145162
-0.00848092
0.00875702
-0.000307437
0.000661144
0.00756335
0.00137946
0.00808674
0.0074193
-0.00808822
0.000660644
-0.0093787
0.00857618
0.00223935
-0.00262807
-0.00227469
0.00320766
-0.00559539
-0.000415824
0.00599959
-0.000272958
0.00248131
0.00578894
-0.00632196
0.000506737
0.000163879
-0.00205716
0.00188258
-0.00191038
-0.00397838
0.00581997
0.00986664
-0.0105042
0.000584901
0.00420406
-0.00872475
-0.00590238
-0.000863294
-0.000696366
-0.00493798
0.00517856
-0.000268463
0.000345687
-0.000241205
0.00121851
-0.00566706
0.0043901
7.23491e-05
0.000767373
-0.000796515
-0.000899559
0.00078644
-0.0053816
0.000604131
0.0047688
0.0102997
-3.63215e-05
0.00312564
-0.000332713
-0.00281349
0.000101889
-0.0114797
-7.02476e-05
0.0107226
0.000306518
-0.00781033
0.007479
-0.000223473
0.0109105
0.0112198
-0.000782605
-0.00078802
0.0105842
-0.000296876
-0.00807862
0.00835655
-0.000858621
5.59764e-05
0.000112869
-0.000314267
0.00273061
-0.00241106
-0.0100894
-0.000723865
0.010652
-0.00241524
0.0103843
-0.000787764
-0.0015535
0.00204044
0.0021222
-0.000269821
-0.00186023
-0.00399868
0.00299152
0.000911512
-0.00231111
-0.000549314
-0.00277603
0.00246652
0.00310704
-0.00507322
-0.000223461
0.00948098
-2.3373e-05
0.00209818
-0.00997389
-0.000249262
-0.0049698
0.0103131
0.000971547
-0.012551
0.0115434
-0.011621
0.0125567
9.89108e-05
-0.000780127
0.000661814
-0.000598922
-0.00349833
-0.00108181
0.0162934
-0.0111085
1.99366e-05
0.00103589
-0.0139812
0.0064761
0.00745304
0.00034132
-0.00268284
-0.000111025
-0.00700453
-0.000245438
0.0069213
0.000847475
0.00625046
-0.00675389
0.000753312
0.0100502
-0.0108694
0.0108206
-0.0099143
-0.00106437
-0.000451403
0.000210731
0.00393066
0.00146302
-0.00548999
-0.00769955
0.00194007
0.0110337
0.000242985
-0.00199872
0.00173664
-0.000487693
-0.0040344
-8.80758e-05
-0.00264878
0.00241918
-0.0111871
0.0102402
-0.00533387
0.000897041
-0.00434629
0.00877478
-0.00465154
-0.000738991
-0.00303717
0.000824043
0.00176339
0.000349049
0.00656856
-0.00639134
-0.000359605
0.0116655
0.00950486
0.00113772
-0.0106888
-0.010415
0.0113115
-0.000954871
-0.00764371
-0.00545146
0.00392625
0.000977551
-0.00854028
0.00797573
-0.00595111
0.000913449
-0.00345915
0.000606838
0.00273821
-0.00733064
0.00761279
0.00502874
-0.0011858
-0.00805847
-0.000899039
0.00894243
-0.0134253
0.00769229
0.0056468
-0.00141427
-0.0012664
0.00267179
-0.01091
0.0115696
-0.000727385
0.000535907
0.00530768
-0.00591904
0.000424358
0.00880197
-0.00942765
9.81234e-05
-0.000808565
0.000697123
-0.00202411
-0.000170862
0.0021644
0.00047343
0.0050881
-0.0055797
-0.00232142
0.00652571
-0.000627657
-0.010261
0.0107554
-0.000694396
-0.00968108
-0.00498367
0.00173946
0.00318023
0.00285249
-0.0101429
-0.00726266
-0.00684064
-0.00326957
0.00722652
-0.000947184
0.000206523
0.000267975
0.00810359
-0.00841952
0.0064846
-0.000103442
-0.00888742
0.000373361
0.0106439
3.69893e-05
0.000318501
0.000104141
-0.000439237
-0.00289764
0.00247346
8.13931e-05
-0.0102105
-9.19362e-05
0.00526213
-0.00562024
0.0122975
-0.010574
-0.00177603
0.000756225
-0.000264027
-5.3748e-07
2.15376e-05
0.000834613
-0.000930057
0.0111112
-0.0102317
2.02223e-05
0.000149727
-0.000237808
-0.000621911
-0.0074864
0.00090251
0.000341119
-0.00764218
0.000228168
-0.00213941
0.00190842
-0.00692617
0.00551937
0.000975881
-0.000727104
0.0121421
-0.00276433
-0.00079223
-0.00240302
0.00209985
0.000147022
-0.000417535
-0.00323208
0.00945082
-5.68562e-06
0.000160399
-0.0113054
0.0104505
0.0109485
0.00038288
0.000564396
-0.000156099
0.00289819
-0.00305842
0.000239499
0.0016961
-0.00196283
0.00218849
-0.00848821
0.000410445
0.000511782
0.0091122
-0.00963852
0.00100871
0.0100624
-0.0111099
0.00986921
-0.0107554
-0.00125783
0.0107177
3.30395e-05
0.000230263
-7.1158e-05
0.000883681
-0.00083642
-0.00234245
-0.000336259
-0.00279136
0.00292517
0.0101069
-0.0110876
-0.00122567
0.0103082
-0.00910632
0.0126962
-0.00914695
-0.00359425
0.000254019
-0.00207203
0.00181434
0.00100442
-0.01113
0.0100438
0.00453978
-0.000738822
-0.00382007
-0.000202938
0.00175303
-0.0101573
-0.00148372
-0.00188835
0.00990285
-0.00152789
0.00035248
0.000412263
0.0112321
-0.00273117
-0.00313128
0.00842616
-0.00847981
-5.473e-05
-0.0084328
0.00934332
-0.000943267
8.73099e-05
-0.000781127
0.000673413
-0.000545915
0.000281094
0.00202433
-0.00233435
-0.00980332
-0.012512
0.0104674
-0.00619885
0.000602543
-0.00310814
0.000852724
-0.000788135
0.000303775
-0.00258656
0.0139387
-0.0134615
-0.000505485
-0.000419249
-0.000842378
-0.001302
0.000227468
-0.0020267
0.00177393
0.00429739
-0.00358493
-0.000815622
-0.000848227
0.000753697
-0.000858416
-0.00077918
-9.12641e-05
0.0110148
-0.000251794
-0.00182506
-0.00200471
0.00174819
-0.00135306
0.00595586
-0.00467352
0.00760642
-0.00856468
0.000937545
-0.00969888
0.000516431
-0.00505784
0.0056761
-0.00064413
-0.00932135
0.00604278
-0.000820109
-0.000612235
0.0112139
0.00105613
-0.000667407
-0.000572598
0.00686847
-0.00623013
0.0112707
-0.00518791
0.000153523
-0.000193404
-0.00320052
-0.00184643
-0.000459291
0.00909028
-0.00863881
0.00600771
-0.00495279
-0.00112688
-0.000487066
-0.00584192
9.28182e-05
-0.00083516
0.000724864
-0.0117378
0.0104001
0.00127823
-0.0112901
-0.00888617
0.000526777
-0.00593424
0.00533121
-0.00768772
0.000947988
-0.0109159
0.0065354
-0.000785639
0.000860836
7.4667e-05
0.000754461
0.00115587
-0.010476
0.00928125
0.000505341
0.00386495
-0.00444248
-0.000585174
0.00972573
0.000562458
-0.00150892
0.00128706
0.000180601
0.00216399
-0.00191644
-0.000253426
0.00354907
0.0106134
0.000100455
-0.000810675
0.000697704
-2.77194e-05
1.70155e-06
1.85111e-05
0.000170663
0.00132748
-0.00152989
0.00513526
-0.00623686
-0.00302801
0.0133117
0.0100897
-0.00897124
-0.00586883
0.000786447
-0.00816577
-0.00215603
-0.00611767
-0.00410589
0.0101235
-0.0108152
-0.00139951
0.0121522
-0.00947547
-0.0045715
-0.0118931
0.00987596
0.00197039
0.00966113
-0.010913
0.00949742
-0.00927838
0.00829473
0.000620367
0.0127747
-0.0106176
-0.00971367
0.000766218
-0.000998978
-0.00833177
-0.0086669
-0.00034769
0.0088124
-0.000714063
0.000372191
-0.00264891
0.00227087
0.000316365
0.000325524
0.00841198
0.00116901
-0.00960865
-4.58094e-06
-0.0092923
0.00926525
-0.0108281
0.00137748
-0.000187888
-0.00124917
0.0105325
-0.00112347
-0.000871746
0.00199308
0.000723112
0.00692148
-0.00776079
0.000301947
-0.00917946
0.00202851
-0.00182497
-0.0112492
0.0110137
0.000208568
-0.00388131
0.00753514
0.00077657
0.009259
-0.00876089
0.000376069
0.0106513
-0.0111398
0.00873554
-0.00849149
-0.00812543
-0.00088038
0.00899327
0.00921481
-0.000826685
-0.0116485
0.00067276
-0.0107356
0.00999044
-0.000201803
-0.00298028
0.00316095
-0.0047254
0.00528401
-0.00324212
-0.000796763
-0.011683
0.0108111
0.000727166
0.010458
0.000783423
-0.00560977
0.00605949
0.000609224
-0.000165758
-0.0102153
0.00202972
-0.00187585
-0.00902387
0.00810304
-0.0090187
-0.00215032
-0.00642358
0.00709596
-0.000695595
-0.00156541
-0.000303858
0.00887445
-0.00901773
-0.000623808
0.00870598
-0.00473362
0.00492535
-0.000353839
-0.000783666
0.0046804
0.000927373
0.00323671
2.13493e-05
-0.003565
0.0107485
0.00068727
-0.000748062
0.00153524
0.00767369
-0.000261612
-0.000908169
-0.00564877
-0.00412903
0.00972357
0.00117381
0.0107761
-0.0120024
-0.00232999
0.000272734
1.16068e-06
3.0142e-05
-3.16587e-05
-0.00880477
0.00779686
0.00283019
-0.0012416
-0.00159104
0.00851429
-0.000120639
-0.00926055
0.00879349
0.009902
-0.00932797
-0.000596528
0.00837885
0.000677307
0.0104034
-0.000679167
-0.000701134
-0.0107965
-0.000871026
0.0116847
-0.0100781
0.00106828
0.00896753
0.00424474
0.00966897
0.00983879
0.000673918
-0.0104083
0.0104473
-0.00188538
-0.00856154
0.0119982
-0.0109557
-0.00116336
1.25218e-05
-4.58388e-06
5.82875e-05
0.0112991
-0.0114251
-0.00107237
0.0110947
-0.000760977
0.0085646
-0.000307558
-0.00839981
0.000309785
-0.0110823
0.0107561
0.00121271
0.000156166
0.0108175
0.000603497
-0.0115246
0.00672349
0.000932372
-0.00788247
0.0135746
-0.000580004
-0.0130817
-0.00032396
-0.00244718
-0.00228883
-0.00375344
0.0106399
-0.00297564
-0.0101414
0.0108301
-0.00180219
-0.00899386
0.00917746
-0.00054482
-0.00772962
0.0069555
0.011513
-0.0109869
0.00188602
-0.00674963
0.000303828
-0.00109651
-0.0121617
0.00645439
-0.0111314
0.00222069
0.0088356
-0.000750286
0.0093147
-0.000618176
0.00840736
-0.00831248
-0.000384866
0.000129653
0.0076228
-0.00778139
-0.000693722
0.0113517
-0.0057992
0.0100873
-0.0108856
-0.00929438
0.0105373
-0.00959351
-0.000946955
0.000941764
0.0103411
-0.0113416
-0.000971433
-0.0019483
-0.000181645
-0.00754649
0.00772169
0.00932243
-0.0102358
0.00859348
0.0003779
0.011092
-0.0114966
-0.00184163
0.00209308
-0.000317237
-0.00894933
0.000822728
0.0080099
-0.000714209
0.00852828
-0.0088438
0.0109238
-0.000473216
0.0108626
-0.010424
0.000302451
-0.00220909
0.0108055
-0.0114394
0.00503985
-0.00508423
-0.000110217
0.0124245
-0.000540338
-0.0085692
0.000472813
-0.000721595
0.0121304
-0.00964367
0.00343866
0.00059618
-0.000872673
0.00869246
-0.000361541
0.0110071
-0.000626695
0.00985543
-0.0105479
-4.87864e-05
0.000205078
-0.000195602
0.00669393
-0.00654783
-0.000440219
-0.00128158
0.00486517
-0.00101699
-0.0061194
0.00710178
0.000592436
0.0109049
-0.00028899
0.00941386
0.00628908
0.000444328
0.00942229
-0.000333085
0.00123425
0.00808051
-0.000612157
0.011266
-0.000174885
0.0087488
-0.00879981
0.00815465
0.0111029
-0.0116411
0.00170803
-0.00106815
-0.000911868
0.0114405
0.00269566
-0.00232979
0.000376637
0.00870229
-0.00909665
-0.00980308
0.000472306
-0.000654281
5.46125e-05
0.000570517
-0.0079387
-0.000620899
-0.000989955
0.0110504
6.88772e-05
0.000513772
0.00400043
-0.00266484
-0.00708566
0.0103964
-0.000306383
-0.0102255
-0.000619754
0.0113472
-0.00402965
-0.000498781
0.00446935
0.00183756
-0.0125296
-0.0122779
0.00139869
-0.00801795
0.00878384
-0.000859983
-0.00802637
-0.00129586
0.0106999
-0.00944307
0.00048935
-0.00457348
-0.00227897
0.0025408
-0.000292458
5.89413e-05
-0.000649977
0.000564173
-0.00909829
-5.62374e-05
-0.000624864
0.000651699
5.33612e-05
-0.000650371
0.000567273
-0.00868139
0.00904052
-0.000595894
0.0104726
-0.0113169
0.000788951
-0.0106155
-0.000648066
0.000562434
0.000766724
0.0102481
-0.0110791
5.20057e-05
-7.09259e-05
-1.93673e-06
-0.00637472
-0.00714692
0.00641099
-0.00653912
-0.000227211
-0.012443
-0.00861236
0.00809733
0.000494304
-0.000624287
-0.000535538
0.0115356
-0.0111699
0.000394216
-0.0101964
-0.00130167
0.0113865
-0.010435
-0.000607804
0.0109491
-0.00547356
0.00188865
0.00103135
0.00784433
-0.00912111
0.011397
-0.00131138
-0.0103181
0.000841781
-0.000753815
4.04398e-05
-3.38684e-05
-2.7585e-05
-0.00106849
0.010695
0.0109115
0.00136445
-0.000622219
0.0101161
0.000126858
-0.000624784
-0.00939372
-0.00112063
4.9733e-05
0.0069684
-0.00735102
-0.0107318
0.0023623
-0.00248573
-0.000344656
0.00203608
-0.000225945
-0.00186286
0.0103258
-0.00128893
-0.00909482
-0.00275983
0.00319797
-0.000552522
0.00857793
-0.00958508
0.000982902
0.0008138
-0.0103701
0.000490945
-0.00337387
0.000235678
-0.00197894
0.00173063
0.00553957
-0.00508265
0.00124509
-0.00311251
0.00224058
-0.00269234
-7.1709e-05
0.00600551
0.000344496
0.00490554
0.000732313
-0.00216683
0.0109269
0.00590912
-0.00229396
-0.00105873
0.0012122
0.00932097
0.000119855
-0.000101921
-7.80048e-05
0.00182764
0.0023319
0.000284805
-0.000951595
0.0119711
-0.0110909
-0.000355363
0.00281876
-0.00174653
-0.0100359
0.0117231
0.00427407
-0.00753076
0.0080443
0.000551664
-0.00887275