/*--------------------------------*- C++ -*----------------------------------*\
| =========                 |                                                 |
| \\      /  F ield         | OpenFOAM: The Open Source CFD Toolbox           |
|  \\    /   O peration     | Version:  v2012                                 |
|   \\  /    A nd           | Website:  www.openfoam.com                      |
|    \\/     M anipulation  |                                                 |
\*---------------------------------------------------------------------------*/
FoamFile
{
    version     2.0;
    format      ascii;
    class       volScalarField;
    location    "1000";
    object      p;
}
// * * * * * * * * * * * * * * * * * * * * * * * * * * * * * * * * * * * * * //

dimensions      [0 2 -2 0 0 0 0];


internalField   nonuniform List<scalar> 
9793
(
0.00339818
0.00364018
0.00347862
0.00949305
-0.0963132
0.0110023
0.00589724
0.006227
0.0130265
-0.0892826
0.0215152
0.0116069
0.00937214
0.00232181
0.00440127
0.00224743
0.00151271
0.00130279
-0.0379956
0.00231633
0.00808995
0.0130072
-0.00212405
6.65602e-05
0.00708875
0.00945402
0.00221418
0.00237646
0.00788671
0.0130773
0.0102091
-0.00101426
-0.0060274
0.00240992
0.00663983
-0.00714071
0.00572839
0.0130322
0.00605946
0.00313559
0.0102207
0.00415491
0.00920809
0.00535737
0.00944732
0.00931397
0.00775014
0.00213749
0.00779941
0.00948905
0.00500409
0.017171
0.0114855
0.0126259
-0.0488377
-0.0088258
0.0143912
0.0516793
-0.016815
0.00607371
0.00307216
0.0119845
0.00306537
0.0117244
-0.175995
-0.000537983
0.00248709
0.00517201
0.0106657
0.0187278
-0.0463477
-2.86635e-05
0.0102945
0.00123341
0.00603251
-0.0138265
0.0141375
0.00029186
0.0034469
0.00266257
0.000578552
0.00392149
0.00284992
0.00303586
0.0102791
0.00252457
0.0025107
0.0138859
0.0118434
0.00423658
0.00450979
-0.246332
0.00213868
0.00369616
0.012023
0.00303329
-0.00886588
0.00423944
0.00214323
0.00232846
0.00231791
0.00474785
0.0024324
0.00250055
0.000351315
0.0101892
0.0119354
0.00377784
0.0115065
0.00273257
1.54032e-05
0.00438143
0.0147032
-0.0385338
0.0141181
0.0142574
-0.00298412
0.00555617
0.0038302
0.00216886
0.00266943
0.000110619
0.0129615
0.0109534
0.0124071
0.00493619
0.0158252
0.00233781
0.0033281
0.0111397
0.000285866
0.0139921
0.0111208
0.00514061
0.0131939
0.0136732
0.0119382
0.00545172
0.0146697
0.0014799
0.0129461
0.00685892
0.00761793
0.00231111
0.00239369
0.00249688
-0.00021031
0.00229698
0.00219143
-0.296811
-0.0550711
0.000110472
-0.0533536
-0.0680455
0.00222947
0.000132448
0.00114796
0.00689037
0.00228378
0.00755071
0.00614284
0.00223837
0.00205009
-0.0217715
0.000881421
0.00272442
0.00209331
0.0125876
0.002147
0.00485082
0.0090195
-0.00329057
0.00114439
-0.000917359
0.0123809
-0.0244168
0.0137642
0.000159284
0.0110046
0.012284
0.0062371
0.0111499
0.0022774
0.00712751
-0.0339512
0.0102341
0.0524154
0.0109
0.0126584
0.00208354
0.0123499
0.0141883
0.0075813
0.0053086
0.00581423
0.0122227
-0.00444279
0.00442135
-0.0574902
0.00145367
0.013229
0.00987556
-0.0231738
0.0113075
0.0135603
0.00023929
0.00118617
0.00228387
0.0103011
0.0122012
0.011872
0.00661753
0.00837881
0.0126865
-0.00763277
0.00118494
0.00507421
-0.0319667
0.000344934
0.00837063
-0.000996983
0.0134442
0.0123774
0.0142925
0.00260635
-0.0116446
0.0111046
0.0022928
-0.00145587
0.0163417
-2.45099e-05
8.41579e-05
0.0110917
0.00142591
0.0200055
0.00800598
0.014492
0.00891387
-0.00161963
0.00449235
0.0101522
0.00237155
0.00850959
-0.00248541
0.00891813
0.00217225
0.00616695
0.00668888
0.00215947
0.00250217
0.0124698
0.0119983
0.0133266
0.018113
0.00845921
0.0133086
0.00927594
0.0120415
0.00999752
0.00229694
-0.00351961
0.00900332
0.0107173
0.00204087
0.0125879
0.000199877
0.00018835
0.011343
0.00156765
0.0115749
0.00231414
0.00194625
0.0134164
0.0135746
0.00264937
0.0019194
0.0112708
0.000456482
0.0137525
0.0171246
0.00670576
0.000145927
0.00395169
0.00320671
0.0142731
0.0133413
0.0124274
0.0118858
0.00617968
0.0134635
0.0145028
-0.00282402
0.0113655
0.00564172
0.000566013
0.00507723
0.0124632
0.0119212
0.012837
-0.164367
0.00225019
0.00969621
-0.0110664
0.00355025
0.00475555
0.00233953
0.0134409
0.0129518
0.00652919
0.00677555
0.0141893
0.0023235
0.0128995
0.0123909
0.0124607
0.00430433
0.00287132
0.00768148
0.0130343
0.0120989
0.00775472
0.00133455
-0.00868124
0.00076934
3.73548e-05
0.0304652
0.0125368
-0.0136677
0.00145966
0.00195359
0.00979498
0.00150169
0.00481325
0.0102607
0.0201899
0.00597418
0.00927755
0.0132401
0.00224992
0.00240318
-0.00336806
0.0108252
0.00783884
-0.158068
0.00458161
0.00223165
1.27948e-05
0.012671
0.00602382
-0.00649159
0.0124259
0.0127498
0.0122114
0.0046479
0.0050491
0.012666
0.0142775
0.00010213
0.0129449
-0.0732037
0.0501486
0.0132576
0.0127716
0.00513655
-0.00476189
0.00299179
-0.00366587
0.00422001
0.00140079
-0.00480305
0.0101117
-0.0152989
0.0128283
0.0213073
-0.00435484
0.00806071
0.0102297
-0.00614533
0.0117096
0.000219508
0.0132629
0.0127232
-0.0760018
0.0127438
0.0125982
0.00165881
0.00326199
0.00223862
0.0126976
0.0131662
0.00709356
0.0125261
-0.322376
0.00326422
-0.00154811
0.0176548
0.000478071
0.00278789
0.0133046
-0.0352447
0.00404239
0.00236665
0.0119258
-0.0742489
0.00191156
-0.0495918
0.0089819
0.0130906
0.00187582
0.0108535
0.010734
0.0118534
0.00324758
0.00229358
-0.00168743
0.00542052
0.0124327
0.00559433
0.00430931
0.0116925
0.00248583
0.0174536
0.0136068
0.0124473
0.0177892
0.0128276
0.00986964
0.0125084
0.0020004
0.0126524
0.00714342
0.0124086
0.00173566
-0.0323795
0.0024119
-0.0377339
0.00493507
0.00464739
0.00911245
0.00474777
0.0049837
0.0125381
-0.016899
0.00431721
-0.0620453
0.00214272
0.0089889
0.0125688
-0.0652504
0.0105084
-0.0882843
0.0065111
0.011277
0.0130653
0.0138967
0.0124672
0.0112803
0.00245668
-0.0273342
0.0140218
0.00583197
0.0214933
0.0128625
0.00411047
0.0127682
0.00237609
0.00283169
-0.0368964
0.0119921
-0.0409255
0.00229748
0.0136393
0.000113136
0.00223332
0.000695003
0.00400844
0.0133455
0.00498363
0.0059271
0.00179932
0.0117085
0.00961269
0.00248992
0.0062257
0.0130952
-0.0137361
0.0102213
0.0123915
0.00368333
0.00444527
0.00149415
0.00182424
0.0126563
0.00978689
0.0123901
0.010031
0.0124394
0.00447742
0.00921224
0.00853632
0.000201913
0.00921192
0.00136979
-0.0268865
0.012093
0.00223132
0.0114684
0.0035849
0.00715776
0.00651213
0.00511701
0.00199851
0.00866732
0.016219
0.0126222
0.0138708
-0.00137329
0.0132705
0.00223915
-0.273072
0.0100603
0.00356279
0.00817076
0.0251874
0.00689842
0.00352943
0.0132291
0.00695867
-0.000499355
0.0194939
0.0123731
0.0113351
0.00811499
0.00772191
0.0128668
0.000416844
0.0132414
0.00889796
0.0501212
0.00198448
0.00528231
-0.0436033
0.0113324
0.00321584
0.0147727
0.000356744
0.0227151
-0.0610623
0.0134736
0.0738009
0.000200426
-0.0286862
0.0125641
-0.0410347
0.0103102
0.0084523
0.00156322
0.00545543
0.00510744
0.000430175
0.00024609
-0.27293
0.0141216
0.00963651
0.0109821
0.00469862
0.0129898
0.00528551
-0.00116736
0.0126076
0.00178154
0.00153174
0.00465809
0.00377419
0.0113837
0.00780621
0.0817286
0.00164783
0.00176533
0.0115763
0.0124696
0.012134
0.0104417
0.0125026
0.01138
0.0112806
-0.031467
0.00964791
-0.0206305
-0.0401677
0.00964155
0.0037172
0.0136745
0.0119274
0.0128469
0.0124057
0.0082784
0.0125827
0.0109038
0.0124315
0.00367261
0.00368616
0.0126534
0.0121587
0.0123068
0.0127516
-0.0189858
0.0118118
0.0143663
0.0112946
0.00590106
0.0125466
0.00547094
0.00481997
0.00487473
0.00875556
0.00161151
5.92332e-05
0.00777489
0.00158894
0.0120957
0.0132035
0.00140398
0.0114393
0.00255715
0.012761
0.013035
0.0107695
0.0134229
0.00461795
0.00878139
0.012664
0.00381693
0.0013947
0.00130829
0.00141492
0.00778454
0.011884
0.00160594
0.0114161
0.0027015
0.00422069
0.013146
0.00154502
0.0102109
0.00183786
0.0227531
0.0002881
0.00957553
0.0843312
0.00725454
0.00841638
0.000851035
0.0490357
0.00557726
0.0225152
-0.215608
0.000580364
0.0017658
0.00964487
0.0129571
-0.0159997
0.000882417
0.00176723
0.00035633
0.00198526
-0.0617086
0.0127014
0.0278401
0.0130563
0.0131216
-0.0434645
0.0122253
0.00433671
0.0021887
0.00576704
0.00870077
0.0123483
0.0126282
0.0790696
-0.0214438
0.00885623
0.00209313
0.0105128
0.00786713
0.010188
0.0219405
0.0219373
0.0100904
0.00330448
0.000912925
0.00260701
0.00333442
-0.00709596
0.00585181
0.00295197
0.0113147
0.0159332
0.010162
0.0118771
0.00341295
0.00295448
0.00165125
-0.0237201
0.00169357
-0.0334075
0.00999511
0.00245362
0.0166184
0.0128409
-0.0667141
-0.00677642
0.0124128
-0.0690475
0.0113675
0.0380877
0.00169166
0.000298582
-0.0045853
0.0107983
-0.00971973
0.00736887
0.00347982
0.00278804
0.00220201
-0.0045094
0.00280781
-0.184653
0.0138766
0.0114162
0.013496
-0.0749307
-0.0718216
0.00131236
0.00270447
0.00183761
-0.00204978
-0.120376
0.0127383
0.0113285
0.00305111
0.00176448
0.00935828
0.005151
0.00393781
0.00758291
0.0108619
0.00218221
0.00603166
0.00300175
-0.0515104
0.0033181
0.0037261
0.00836664
0.0013178
0.0120028
-0.0479889
0.00969539
-0.0326648
0.00213558
0.00520261
0.00692391
0.0128917
0.0116479
0.0116583
0.0121543
0.0126347
0.0291311
-0.0104477
0.00267366
-0.00674679
0.00598734
0.00275344
0.0124926
0.00676586
0.0133878
0.00215755
0.00988806
0.00132686
0.00314131
0.00106494
0.0164757
0.0115951
0.0107098
0.00139239
0.0129395
0.0123481
0.0416206
0.0109064
0.0383369
0.00701324
0.0104869
0.00915056
0.00141229
0.00242431
0.00848882
-0.247102
0.0116717
0.0127148
0.00528951
0.000451748
0.00157758
0.00563597
0.00221861
0.0111428
0.00696858
0.00943098
-0.00179551
0.0104125
0.00802821
0.00259198
0.00345263
0.00231095
0.00403173
0.00171681
0.00973555
0.0122292
0.010906
0.00815366
-0.00809094
-0.000363114
0.00181127
-0.180015
-0.00219919
0.0106714
0.0117529
0.00517535
0.00155786
-0.00105754
-0.0042818
0.00565266
-0.0234555
0.0128106
-0.00534961
0.00935234
-0.0667054
0.00554315
0.0126643
0.0125937
-0.003752
-0.200803
0.0130499
0.0131171
0.0125874
0.00575668
0.0134429
0.00126855
0.00134722
0.0115617
0.00385289
0.0141391
0.011819
0.00307912
0.00828132
0.00146437
0.00495541
0.0116477
0.0129393
0.0130686
0.00332475
0.00296349
0.00151164
-0.00334774
0.00152665
0.0126771
-0.00622188
-0.00759322
0.00313189
-0.000656194
-0.0842001
0.0073439
-0.00785737
0.0371414
0.0108936
0.00652389
0.0123039
0.00697175
0.0123006
0.0021051
0.00137848
-0.132076
0.00237803
-0.00777182
0.00133686
0.014162
0.0124176
0.0139707
0.00256429
0.00512029
0.0107523
0.00137724
0.00146076
-0.00732979
0.000150758
0.0118504
0.00255891
0.00205192
0.000768037
-0.0359264
0.00137971
6.41079e-05
5.66908e-05
0.00206721
0.00319008
-0.0135675
-0.00352166
-0.00462881
0.0111157
-0.00556032
0.00898494
0.0138935
0.0113945
0.0118228
-0.0311009
0.010035
0.00854201
0.00624811
0.0115753
-0.00286674
0.00979483
0.00233762
-0.00357673
0.0119294
0.0174368
0.0100907
-0.0136185
0.00606375
0.011379
0.00698719
0.00464638
0.00987342
0.0032611
0.0121602
0.00368288
0.00877466
-0.142999
0.0121202
0.00933977
0.00456148
0.016443
0.0136343
0.010573
0.00315114
0.00103652
0.00370296
0.00151057
0.0126335
0.011692
0.0027545
0.00272934
-0.00116836
0.00593614
0.00981831
0.00320162
0.00364989
0.00164015
0.0126041
0.00439031
0.0123833
-0.00711937
0.0346509
0.00453144
-0.069168
-0.0235056
0.00794335
0.0129311
0.00701673
0.0265581
0.00105609
0.0128443
0.0152159
0.00338787
0.000189758
-0.0213013
0.00718122
0.00439839
0.0146142
-0.168619
0.000510771
0.0102933
0.0105646
0.00135551
0.0124345
0.0121494
0.0108774
0.0106605
0.0113269
0.0095078
-0.00203253
0.0125283
0.000213671
0.0134536
-0.000975373
0.0127847
0.00493227
0.00320174
0.0124402
0.00195196
0.0124763
0.00789241
0.0127536
-0.00705127
0.00246838
0.0074469
0.00255838
0.0078612
0.00328319
0.0138035
0.00477635
0.0128056
0.012163
0.00268721
0.00439339
0.00481047
0.0125154
0.00837455
0.00135842
0.00952552
0.0121586
0.0237719
0.0126405
0.0103553
-0.0489283
0.0100209
-0.011451
0.00910808
0.00715651
0.00257155
0.00488278
0.0135175
0.00110867
0.00230605
0.00426456
0.00869948
0.0143269
-0.0931241
-0.00544093
0.002294
0.0128139
0.00503514
0.012586
0.0419636
0.012673
0.00909711
0.00472498
0.00577656
0.0118502
0.0111726
0.0014644
0.00892413
0.0123182
0.0023936
0.0133305
0.00139982
0.0169654
0.00310847
0.000730546
0.00351669
0.0125658
0.0128365
0.0123347
0.0343231
0.0130764
0.00728942
0.0120082
-0.00353838
-0.00394206
0.0138312
0.00136075
0.0317103
0.00739961
5.0639e-05
-0.0641655
0.0112278
0.0114749
0.0125177
-0.000402464
0.0126171
0.0142983
0.000864692
0.00556445
0.00967124
-0.000812923
0.00308978
0.00131357
0.0128911
0.00149689
0.00140868
0.0109534
0.00980287
0.0108608
0.0141882
0.00145639
0.0124407
0.00732339
0.00111536
0.0124357
0.0149611
0.0115942
0.00971191
0.00145046
0.0131716
-0.00276514
0.00942439
0.0126858
0.00238304
0.0101054
0.0126174
0.0116763
0.0135583
0.0013964
0.00057572
-0.0210738
0.00871702
0.00135685
0.0141669
0.00140374
-0.0123022
0.00964307
0.0133813
0.0112575
0.0022614
0.00502928
0.00282949
0.0122455
0.0135807
0.00281144
0.00345482
0.0028852
0.0151859
0.0147898
0.00899838
-0.00463784
0.00655589
0.0150682
-0.00185147
-0.00979891
0.00200425
0.00323903
-0.0126826
0.0129176
-0.00176894
0.0112993
0.00369036
0.0118484
0.0111299
0.0170271
0.00258919
0.0035214
-0.0635138
0.0145752
-0.0807571
-0.115094
0.00716588
-0.000914345
0.0012209
0.0122213
0.00809055
0.0127993
0.00119533
0.00117644
0.0174221
0.00167664
0.00126637
0.00790636
0.0120532
0.0148484
0.0133252
0.0104578
0.0548266
-0.204539
0.0020557
0.0119275
-0.0760488
0.00565996
0.0099353
0.00677267
-0.00756919
0.00403359
0.0020568
0.00564923
0.00933063
-0.00934531
-0.164647
0.0120848
0.00130978
0.00782434
-0.263623
0.00424888
-0.00660465
0.0129254
0.012979
0.0115115
0.00201308
0.00729759
0.0100384
0.0128827
0.00638543
0.00945506
-0.0624853
0.013528
0.00899721
0.0628721
0.0132584
0.01208
-0.0262239
0.0151813
-0.0163038
0.00665477
0.00126381
0.0609932
0.0654699
0.00548395
0.00311005
0.0112379
0.0684735
-0.0014957
0.00780701
0.0131024
0.00277049
0.00599414
0.01021
0.0110547
0.0104345
0.0122277
0.0350999
0.0121923
0.000905884
0.00481096
0.00113339
0.0119261
0.0126518
0.0129069
0.00996725
-0.0107045
0.0118147
-0.00224079
0.00682763
0.0101567
0.0128245
-0.292302
-0.0363069
0.011784
0.00638166
0.00502898
0.002354
0.0133772
0.00225796
0.00966479
-0.0183961
0.0126684
0.00128637
0.00227625
0.00892499
-0.0489399
0.0113664
0.0118436
0.0113943
0.0110788
0.00463217
0.033108
0.000482344
0.0637533
-0.00185832
0.012961
0.0121572
0.00565581
0.0108309
0.0107281
0.0427934
-0.359178
0.0075044
0.00779031
0.0117532
0.00115328
-0.0909755
0.00955579
-0.0907235
-0.0463067
0.00716792
0.00885748
0.00677776
0.0192677
0.00947112
0.0435189
0.017829
0.00121877
-0.121364
0.00214237
0.0125146
0.0099969
0.0120539
0.0424219
0.00157271
0.01235
0.00830722
0.00685403
-0.0676587
0.00928514
0.0137745
0.011468
0.0122206
0.00553113
0.0112726
0.00173099
0.010116
0.0121902
0.00576155
0.0104332
0.0128065
-0.248286
0.00956034
0.0113577
0.0131454
0.00332107
0.0102367
0.0118885
0.00212677
0.0124316
0.00305271
0.00112099
0.00162897
0.0105962
0.00362305
0.00925208
0.00143648
0.00451494
0.0117963
0.00300967
0.00211372
-0.0203775
0.00175052
0.0118706
0.0108158
0.0267691
0.00870153
0.00621207
0.0140673
0.0405741
-0.211679
0.00227689
0.0120984
0.0120174
0.0113856
-0.00775265
0.0076874
0.00177517
0.0123117
0.00957899
0.00605595
-0.0603361
-0.0715084
0.0122142
0.0723271
0.00231382
0.00225049
0.00505683
0.0116627
0.00887017
0.0139017
0.00194014
0.00567163
-0.0684394
0.0105886
0.01301
0.0128835
0.00928764
0.00476739
0.0106201
0.0139696
0.0127144
0.0121344
0.0126882
0.0132287
0.00194503
-0.0325023
0.0185234
0.00820774
0.0108369
0.00199681
0.0105336
-0.0367848
0.0135271
0.0125784
0.0130944
0.0096554
0.0130718
0.00630269
-0.0391062
-0.0126018
0.0127427
0.0149862
0.0105201
0.00724972
0.0129336
0.0136822
0.0119714
-0.0335645
0.0132418
0.0125272
0.00165871
0.0204537
0.013346
-0.115789
0.0137816
0.0127302
0.000112709
-0.216281
0.0118492
0.00146156
-0.323488
0.0126069
0.0132706
0.0109039
0.013805
0.00217906
0.0137696
0.0115383
-0.00107314
0.012781
0.0141731
-0.0420952
0.0119394
0.0139005
0.0123629
0.0106119
0.00854682
0.00260711
0.00233863
0.0136056
0.000380396
0.0167286
0.00705245
-0.0132754
0.0107835
0.0128541
0.0183067
0.00258056
0.0141869
0.010177
0.00978058
0.00569164
0.0125936
0.00770524
0.0125802
0.0129645
0.0361905
0.0125266
0.00877492
0.0127704
-0.14962
0.00380704
0.0150715
0.0095536
0.0129579
0.0136908
0.00524862
0.0118572
0.0121615
0.00213947
0.00967271
0.0126783
0.0155063
0.0122195
0.0125448
0.0143098
0.013065
0.0137393
0.0113349
0.0120043
0.011993
0.00110567
0.00998787
0.00290271
0.0101315
0.0476193
0.0119796
0.00856234
0.0126106
0.0125002
0.0136643
-0.000412984
0.00089146
0.0149073
0.0124554
0.00283132
0.00772063
0.0120198
0.0131375
0.0135704
0.0141465
0.00110748
0.0149035
0.00470072
0.0122032
0.0119156
0.0126027
0.0127789
0.0564054
0.0148033
0.0137998
0.0124208
0.00359896
-0.0320979
0.0130277
0.00950421
0.0136731
0.000782197
0.0126339
-0.0494107
0.0127291
0.0152657
0.0128954
0.0119377
0.010436
0.0125523
0.0128059
0.0123486
0.0134569
0.00255467
0.0129023
0.0744947
0.0121149
0.0119143
0.000980087
0.0120902
0.0127535
0.0116199
0.0124045
0.00999589
0.0124905
0.0111564
0.00626271
0.00699208
0.0089969
-0.0183584
0.0121602
-0.00255267
0.0126732
0.0123268
0.00550548
0.00738286
0.00132329
0.0102382
0.0143144
0.000509083
0.0125665
-0.0651495
0.0115558
0.0641335
0.00847023
0.00135935
0.00509535
0.00015606
0.0127144
0.000159815
0.0127218
0.00113809
0.00243228
0.00789975
0.000120566
0.0124373
0.0139002
0.0125095
0.00117632
0.0125422
-0.00209684
0.0127332
0.0114596
0.0112005
0.0120181
0.0137554
0.00473326
-0.0084327
0.00197336
0.0125208
0.00211328
0.0109542
0.0134396
0.0126273
0.0555795
0.0171865
0.0111788
0.0139882
0.00367082
0.0125068
0.00343559
0.000835956
0.0129477
0.00255592
0.0134989
0.00590326
-0.0128129
0.0105021
0.0120302
0.0106993
0.0701411
0.0195492
-0.0173053
0.012491
0.0137601
0.0149945
0.00143496
0.0123272
-0.0141754
0.00383955
0.00812058
0.0126965
0.00182882
0.0125294
0.0122711
0.0101862
0.011819
0.00973401
0.00929543
0.0120265
0.0138868
0.0120986
0.00783586
0.00180433
0.00940439
0.0124854
0.00145157
0.00267967
0.000146518
0.00191058
0.013325
0.0121788
0.0125658
0.00169231
0.011581
0.0113604
0.01202
0.00117557
0.0125318
0.0128386
0.0109278
0.013316
0.0123435
-0.0855456
0.00989425
0.0140432
0.0125385
-0.268279
0.00244146
0.00869826
0.0125079
0.0114599
0.0020513
0.00225044
0.00297643
0.0120315
0.0111162
0.0127785
0.0125785
0.0171949
0.0125458
-0.037013
0.00505971
0.0114998
0.012235
0.0046897
0.0110279
0.0125059
0.0114663
0.0115394
0.0128746
0.0124784
-0.0279881
0.00941146
0.0105106
0.0114776
0.0104342
-0.0899289
0.0100042
-0.0591946
0.0415174
0.0123362
0.0114603
0.0112211
0.0134763
0.0126084
0.012317
0.00608094
0.0124296
0.0116521
0.0114189
-0.0260099
0.01276
0.00933762
0.0120582
0.00680058
0.012035
0.0119692
0.0142986
0.00378392
0.0137987
0.0116183
0.0144081
0.0121898
0.0125449
-0.072619
0.00572524
0.0121342
0.00633804
-0.00237433
0.00108122
0.00493877
0.00921664
0.00299455
0.0122886
0.0109809
-0.106628
-0.00194132
0.0111882
0.0128455
0.00225283
0.0123263
0.00152863
0.0011052
0.0015545
-0.00651678
0.0129964
0.0105922
0.0129589
0.0031472
0.00600001
0.0105348
0.00943296
0.0106859
0.00131445
0.0131976
0.00497124
0.0128002
0.0102554
0.00839133
0.0133814
-0.222806
0.0103083
0.00135755
0.00305332
0.0147714
0.014267
0.0119287
0.00943676
0.00135256
0.0128796
0.013791
0.0112568
0.0148578
0.0119676
0.00259143
0.00959648
0.0107969
0.0114635
0.0518243
0.0103855
0.00987995
-0.149889
0.00405905
0.00329215
0.00944479
0.00928026
0.0119683
0.0141267
0.0141116
0.012556
0.0102147
0.0115428
0.0112609
0.00117543
0.0015305
0.0112459
0.0403747
0.00202816
0.00151075
0.0107014
0.0138644
0.0136293
0.0109658
0.0140319
0.00834315
0.0133527
0.0144185
-0.0640897
0.000364301
0.00845072
0.00279456
0.00507301
0.00841509
0.00166122
0.0105957
0.00975807
0.016597
0.00462537
0.00234731
0.0112593
0.0113975
0.0107374
0.0104669
0.00281256
0.00970948
0.000831019
0.0119706
0.0101971
0.046725
0.0116591
0.00995857
0.00986644
0.0101986
0.00855346
0.0114002
0.00253035
0.0125876
0.0198515
0.0138532
0.0140861
0.0133269
-0.0645769
0.00709306
0.00114448
0.0140518
0.00152305
0.00426955
0.0122679
0.0120768
-0.215553
0.00971928
0.00921713
0.00854866
0.0105575
0.00742475
0.00964637
0.0126643
0.0108779
0.0123585
0.0111288
0.0109013
0.0106174
0.0114389
0.0110713
0.00496699
0.0128755
0.00546369
0.00689702
0.0164496
0.00668601
0.0300212
0.00899688
0.00487154
0.0135911
0.00571634
0.0104741
0.00749913
0.00948158
0.0124265
0.00224339
0.00730585
0.0114909
0.011792
0.0178668
0.0105757
0.00222928
0.0103909
0.0145335
0.0121986
0.00831682
-0.00193935
0.0131024
0.00144214
0.0106141
0.0106125
0.0117759
0.00981533
0.00393869
0.0118481
-0.0561347
0.00506075
0.00142166
0.0103129
0.0076587
0.00966335
0.00905367
0.0107133
0.0120128
0.00114112
-0.237099
0.00666642
0.00942968
0.0109117
0.0066895
0.00922297
0.00222411
0.00305909
0.0115794
0.00493006
0.0092065
-0.00267362
0.01085
0.00965037
0.00275411
0.00832843
0.00133347
0.0203763
0.0100973
0.00148864
0.0195012
-0.0913666
0.0131619
0.0126413
0.0110699
0.000963762
0.00153981
0.0128106
0.0147802
0.014349
0.00531477
0.0030263
0.0111798
0.0126644
0.00680213
-0.0263876
0.0124109
0.0116082
0.0796419
-0.00411388
0.0103321
0.00665734
0.0117276
0.011476
0.0104856
0.00830801
0.007793
-0.000742352
0.00588067
0.00986158
0.00851578
0.0114934
0.00107262
0.0092297
0.0102435
0.00754024
0.00745843
0.00869546
0.0113889
0.0106866
-0.000321388
0.0143669
0.0111818
0.00790237
0.0110135
0.00240026
-2.56435e-05
-0.0134941
-0.00510178
0.00360869
0.0321907
0.00327858
0.012616
0.00260606
-0.034398
0.00349388
-0.00349631
-0.00461045
0.0131419
-0.00230185
-0.00356307
0.0121531
0.00609862
0.012556
-0.00352336
0.00472636
-0.0617658
0.0125874
0.00829808
0.0137709
0.0104361
0.0102891
0.000401333
0.00200415
0.0127229
0.013912
0.00848848
-0.0636424
0.00924357
0.00923691
0.0123525
0.00957342
0.00935937
0.00525079
0.0120361
0.00877671
0.0104256
0.0137894
0.0035891
-0.0037952
0.0114298
0.00962765
0.0128441
0.0117144
0.0091409
0.0114672
-0.0514137
0.0106986
0.0098837
0.011267
0.0103588
0.00260167
0.0116074
0.00432638
0.00379897
0.00399507
0.0103768
0.00240459
-0.00715591
0.00407287
-0.0053238
0.010968
0.0138781
0.0106226
0.00102953
0.00961042
0.00223878
0.0100725
0.0122006
0.0122596
-0.0385928
0.00148368
0.00109305
-0.00648997
0.000925199
0.00445782
0.0159864
0.0125685
0.0110068
0.0123671
0.005613
0.00828011
-0.0025171
0.00113779
0.00825082
0.00285643
0.0104262
0.0124494
0.0093606
0.0107651
0.0136575
0.0137364
-0.00637124
0.00527563
0.00465767
0.00946586
0.00274057
0.0121376
0.000419802
0.010488
0.00143579
0.00224676
-0.00255391
0.00936601
0.000741299
0.00110496
0.0115426
0.00534629
-0.00269131
-0.00177048
0.00202842
0.00792779
0.012593
0.0108497
0.00939319
0.0106076
0.00223077
-0.00113327
0.011015
0.0125702
0.00147173
0.00921088
0.00945457
0.0116237
0.0143793
-0.00325086
0.0111254
0.0131185
0.0129839
0.0106433
0.0073801
0.0114359
0.0201245
0.00130779
0.00825295
0.00277299
0.00924733
0.00892325
0.00225952
0.00937436
0.0106136
0.00167712
0.0117202
0.008007
0.00237582
0.00114743
0.00369952
-0.0165202
0.00368665
0.0127443
0.0116033
0.00818696
0.00151595
0.00752467
0.00141515
0.0084777
0.00200263
0.00214986
0.00224743
0.0108316
-0.016221
0.0118243
0.00112489
0.000332237
0.0345108
0.00343898
0.00111092
0.0142972
0.0102839
0.00182153
0.0115906
0.0107937
8.51171e-05
0.00200193
0.00833695
0.00245127
0.00803941
0.00448611
-0.00449145
0.00978934
0.000535827
0.0125493
0.010238
0.0165395
0.013885
0.00446639
0.0102621
0.00976824
0.00975154
0.0121447
0.0024396
0.00212366
0.00747159
-0.0345168
0.00846808
0.00102228
0.00687347
0.00219935
0.000442932
0.0140294
0.0119814
0.0086532
0.00367182
0.00824084
0.00767871
-0.0169818
0.018323
0.00398247
0.00752305
0.00221642
0.00945609
0.00992179
-0.0014188
0.0455538
0.015197
0.0135776
0.0119172
0.0122966
0.0101337
0.0125377
0.00841655
0.00298449
0.00463401
0.00962896
0.00811302
0.000467262
0.0119963
0.00442327
0.00573904
0.00171055
0.0032045
0.0120264
0.00436178
-0.0286609
-0.00536739
0.00457177
0.00848397
0.012581
0.0102026
0.00145395
0.00750784
0.00812322
0.00822993
0.011041
0.013952
0.0107441
0.00389589
0.0127331
0.00634795
-0.0052618
0.0150198
0.00700819
0.00675207
0.00719176
-0.000157523
0.00126343
0.0120741
0.00238095
0.00258928
0.00826136
0.0121465
0.00914515
0.0116317
0.00956987
0.00726931
0.00807986
0.00338958
7.82793e-06
0.00755059
0.00915138
0.0122784
0.00135119
0.00361793
-0.00944747
0.0101071
0.00637915
0.00743819
0.0124299
0.0126185
0.00464421
0.00638709
0.00576757
-0.10179
0.0126815
0.00864095
0.00211551
0.00657775
0.00049468
0.00544502
-0.410757
0.00263314
0.00645168
0.00641921
0.0125293
0.0102757
0.00357276
-0.00142892
0.0043222
0.00965222
0.00710746
0.00748796
0.00392184
0.00554057
-0.00399371
0.00769155
0.00664427
0.0042366
0.0082148
0.00386764
0.00376059
0.00739012
0.0110226
0.000989007
0.00862564
-0.00126023
0.00351052
0.00741046
0.00915681
0.00472361
0.00243582
0.0113956
0.0101775
0.0591429
0.00561736
-0.0393317
0.0044843
0.00141554
0.0125537
0.0119938
0.0129436
0.00915966
0.0104763
0.00135103
0.00337819
0.0091638
0.00406798
0.0101355
0.00161486
-0.00548059
0.00102133
0.0081925
0.00406832
0.00494243
0.00197499
0.00236722
0.00818642
-0.0111679
0.0110042
-0.00602732
0.00159122
-0.0009291
0.00935007
0.00316562
0.00441429
0.0221136
0.00962786
-0.000124315
-0.00487775
0.00127356
0.00672568
0.00457749
0.00989481
0.00223297
0.010965
-0.000271297
0.00648139
0.00492859
0.00111503
0.0054514
0.0101831
-0.0294346
0.0139766
0.000346177
0.00726716
0.0045729
0.00294723
0.00310378
0.0027969
0.00095964
0.0142044
0.011286
0.00268366
0.0102231
0.00638515
0.00497493
0.00118023
-0.0067708
0.00666645
0.00167998
0.00694754
0.00113535
0.0126484
0.00940116
0.0103007
0.00791208
0.0119735
0.000694637
0.012158
0.00461106
0.00463941
0.00710841
0.010012
0.00773186
0.00197424
0.00886179
0.010811
-0.00729146
0.00121076
0.00649854
0.00122326
-0.0222247
0.00695732
0.00512213
0.00452408
-0.001954
0.00639829
0.00267611
0.00125374
-0.000737764
-0.00389819
-0.00368202
0.00424058
0.0068787
0.00516369
0.0125147
0.00234794
0.00133317
0.00832437
0.0120697
0.00251992
0.00298078
0.00524568
0.00648759
0.00155444
-0.0115546
0.00102925
0.00122287
0.00367326
0.000163825
-0.038015
0.0063691
0.00143431
0.0137407
0.0114651
-0.109069
0.00535716
-0.014904
0.00312296
0.000861349
0.0063356
0.00728819
0.00468531
0.00630278
0.00117601
0.00261284
0.0070521
0.00899921
0.00463806
0.00717512
0.00638425
0.00492303
-0.0514499
0.00403779
0.0128355
0.00425344
0.00476082
0.00855517
0.00121029
-0.0134302
0.0102932
-0.000193958
-0.0850604
0.0062385
0.0125765
0.0090341
0.00498431
0.00424999
0.00225663
0.00500083
0.00629257
0.00670985
0.0107329
0.00463393
0.00454849
0.00156178
0.0123118
0.0051821
0.0125947
0.00468472
0.00355254
0.00409699
0.00381859
0.00449995
0.0132573
0.00826959
0.00689161
0.0067132
0.00519137
0.00892518
0.00629943
0.00491926
0.00489853
0.0076518
0.00390026
0.0102784
0.0106033
0.00427245
0.00591996
-0.02535
0.0108266
0.0045265
0.00431833
0.00544862
0.00417837
0.00191039
0.0078277
0.0134377
0.0105388
0.0052813
-0.000870506
0.00519291
0.00761479
-0.0499723
0.0123472
-0.00198776
0.00523074
0.00865293
-0.000796682
0.0054694
0.00261886
0.00115919
0.00773881
0.00444355
-0.0735685
0.00486852
0.00778294
0.00126016
0.00541545
0.0065223
0.00358868
0.00511424
0.00546183
0.0049721
0.00762946
0.00592013
0.00288644
0.000999684
0.00508518
0.00476397
0.0048476
0.00930872
0.00529291
0.00211421
-0.00198118
0.0108711
-0.0105655
0.000116259
0.0049676
-0.00295153
0.000837902
0.00620204
0.00115053
0.00247814
0.00451428
0.00118435
-0.0319301
0.0125091
0.0100611
0.000514605
0.0052518
0.00297897
0.00535351
-0.0318484
-0.00956412
0.00554818
0.00367809
0.00290621
0.000810134
3.98964e-05
0.00658683
0.00411361
0.000688063
0.0121489
0.0125873
0.0052559
0.00453352
-0.00570097
0.00365269
0.00207655
-0.00261049
0.0101018
-0.0129322
0.00892226
0.0016004
0.0121517
0.00701428
0.00485482
0.0130915
-0.0345122
0.00968049
0.00463772
0.00245468
0.0116898
0.00314687
0.00808432
-0.169878
-0.00185561
0.00461094
-0.0398697
-0.00240414
0.00269987
0.00436083
-0.00506241
0.00106155
0.0250197
0.000109647
-0.00942125
0.00428166
0.0104801
0.00057469
0.00440214
0.000386961
0.00691681
0.00503103
0.01104
0.00216048
0.00128508
0.00418888
0.0138836
0.00423664
-0.00899985
0.00805685
0.0133769
0.0128137
0.00118432
0.0149207
-0.00757712
0.0056901
0.00661253
0.00870472
0.00693523
0.000558471
0.00223471
0.00459939
-0.0208287
0.00148145
0.00613473
0.0145436
0.00396502
0.00369787
0.0124075
-0.0145073
0.00188354
-0.0037866
0.0025123
0.0136854
0.00269386
-0.015568
0.00956977
0.00549835
0.000491722
0.000478573
0.00351038
0.00701433
0.00189349
0.0021979
0.00726565
0.00547336
0.00465613
0.0098616
0.00392392
0.00202839
9.11611e-05
0.0109918
-0.00542844
0.0124287
0.00329622
0.00223947
0.0112101
0.0104675
0.000933529
-0.0403758
0.00913962
-0.217392
0.00450401
-0.00727206
0.00502683
0.00321887
0.00265204
0.00392732
-0.0152954
-0.000541453
0.0127137
0.000516987
0.00430466
0.00188324
0.00286267
0.0124307
0.00221254
0.000757092
0.00222645
0.00343021
0.00321391
0.00523288
0.00657471
0.0101551
0.00102882
0.00615077
0.0052543
0.00271263
0.0137159
0.00742717
-0.00197397
-0.00132649
0.0126784
0.00712062
0.0125487
0.00468916
0.00331753
-0.00648322
-0.0231344
0.00584913
0.00529829
0.00707142
0.0142058
0.0139606
0.0104392
0.000110681
-0.0189207
0.000789487
-0.0225527
0.0067297
0.00341387
0.00766081
0.00380517
0.00347889
0.0053304
0.00109232
0.00604089
0.00109117
0.0116857
-0.00979649
-0.014113
0.00223812
0.0075147
0.0161424
0.00951763
-0.0119252
0.00109801
0.00225218
0.00084928
0.00880733
0.0120473
-0.00135596
0.00642721
-0.000639655
0.00173715
0.00251133
0.0142883
0.00660459
0.00135806
0.00715212
0.00126215
-0.00123016
0.00382173
0.000532295
0.00272754
0.0104156
0.00354526
0.0113055
-0.00307868
0.00328888
0.00608774
0.000351336
0.00234172
-0.0021924
0.00153926
0.00267069
0.00345741
0.00108154
0.00167427
0.0023061
0.0042679
0.00321663
-0.0101825
0.00187868
0.00663755
0.00323338
0.00632108