/*--------------------------------*- C++ -*----------------------------------*\
| =========                 |                                                 |
| \\      /  F ield         | OpenFOAM: The Open Source CFD Toolbox           |
|  \\    /   O peration     | Version:  v2012                                 |
|   \\  /    A nd           | Website:  www.openfoam.com                      |
|    \\/     M anipulation  |                                                 |
\*---------------------------------------------------------------------------*/
FoamFile
{
    version     2.0;
    format      ascii;
    class       surfaceVectorField;
    location    "1000";
    object      Uf_0;
}
// * * * * * * * * * * * * * * * * * * * * * * * * * * * * * * * * * * * * * //

dimensions      [0 1 -1 0 0 0 0];


internalField   nonuniform List<vector> 
14516
(
(0.975631 -0.137135 1.23514e-21)
(0.98477 -0.144796 2.94229e-21)
(0.985602 -0.130504 -1.17719e-22)
(0.929851 0.00998048 8.25293e-22)
(0.922379 0.0115786 -4.07749e-21)
(0.93333 0.0150285 3.19013e-22)
(0.965902 -0.128874 4.12065e-22)
(0.962489 -0.143835 7.24656e-22)
(1.0115 -0.000200439 6.03525e-22)
(1.01148 -0.00022662 -2.39097e-21)
(1.01152 -0.000239489 1.25968e-21)
(0.930024 -0.424719 -3.02245e-21)
(0.901918 -0.419883 7.08578e-21)
(0.92582 -0.468469 -5.87332e-22)
(1.00551 0.00327206 -3.97564e-22)
(1.00541 0.00246569 4.70882e-23)
(1.00616 0.00281981 8.6615e-23)
(1.00999 0.00015243 9.43221e-22)
(1.01066 4.34125e-05 -1.33438e-21)
(1.01148 5.63828e-05 -8.34331e-22)
(1.01246 0.001223 0)
(1.01243 0.00121137 3.2264e-24)
(1.01241 0.0011033 0)
(1.02231 -0.00330289 4.85232e-24)
(1.02256 -0.00289494 -2.97271e-21)
(1.02286 -0.00351397 2.59e-22)
(0.93848 -0.399061 6.26176e-21)
(0.963189 -0.426376 -8.67961e-21)
(1.08805 0.00326635 0)
(1.09069 0.00939702 0)
(1.0818 0.00753947 0)
(0.960343 0.0119358 -3.05501e-22)
(0.957717 0.00300319 1.85407e-21)
(0.949504 0.00988308 2.45419e-22)
(1.01143 -0.000219363 1.42453e-22)
(1.0115 -0.000170107 6.89308e-22)
(1.01794 -0.00283651 3.48075e-22)
(1.01798 -0.00299666 9.74393e-23)
(1.01803 -0.00291483 3.21844e-22)
(1.00584 1.934e-05 -1.34657e-22)
(1.00579 7.90725e-05 0)
(1.01793 -0.00269947 3.60865e-22)
(1.0179 -0.00261524 -3.72124e-23)
(1.01794 -0.00265949 4.52195e-22)
(1.02302 0.012151 0)
(1.02205 0.0116604 5.2773e-24)
(1.02308 0.0112859 -6.29083e-23)
(1.02398 0.0126782 0)
(1.02284 0.0131524 -4.98722e-23)
(0.679551 -0.147566 8.53295e-22)
(0.696664 -0.196354 1.27656e-22)
(0.65263 -0.174796 8.84697e-22)
(1.01788 -0.00274001 4.3996e-23)
(1.03138 0.0234881 -1.26546e-21)
(1.03028 0.0382771 -3.14068e-23)
(1.02018 0.0311849 -1.1401e-22)
(1.00987 -0.0192332 -7.42526e-23)
(1.01059 -0.0204974 -1.30669e-21)
(1.01113 -0.0191952 5.91442e-22)
(1.02404 -0.109927 4.65023e-21)
(1.02768 -0.12681 -7.89634e-21)
(1.00493 -0.118439 -5.83514e-22)
(1.01605 0.00611434 0)
(1.0162 0.00577451 -9.78477e-24)
(1.01832 0.000816602 -6.36096e-22)
(1.01858 0.0013535 8.03397e-22)
(1.01915 0.000821214 -3.20923e-22)
(1.01117 -0.000159654 -1.24511e-21)
(1.01128 -0.00021372 7.84848e-22)
(1.01795 -0.00245507 3.17913e-22)
(1.01792 -0.00248616 6.54384e-22)
(1.018 -0.00238973 -1.53009e-22)
(1.01965 0.0090935 3.91015e-22)
(1.01908 0.00942579 -1.75332e-22)
(1.01905 0.00867452 -1.84078e-23)
(1.07619 -0.058923 0)
(1.07433 -0.0536328 3.4136e-22)
(1.06983 -0.0589508 0)
(1.02177 -0.00308906 6.42808e-23)
(1.02205 -0.00365389 2.0789e-21)
(0.999846 0.0140336 3.04069e-21)
(0.998667 0.0143074 2.74308e-21)
(0.999287 0.0126835 2.81461e-21)
(1.01937 -0.0916533 4.47269e-22)
(1.04121 -0.0973818 2.26058e-20)
(1.05155 0.0461472 6.85362e-22)
(1.05315 0.0374121 6.13588e-22)
(1.0472 0.0543274 4.17836e-22)
(1.01321 -4.193e-05 -2.83742e-22)
(1.01313 -8.96031e-05 3.95452e-22)
(1.00985 -2.05525e-05 -7.04509e-22)
(1.07741 -0.0662016 0)
(1.0766 -0.0742096 0)
(1.06956 -0.0721153 0)
(1.04292 0.0668999 1.74974e-22)
(1.02547 0.104233 0)
(1.04221 0.0836157 0)
(1.00916 0.000112564 9.57693e-23)
(1.00741 0.000169519 -1.56878e-21)
(1.00851 -0.0192243 -1.61021e-21)
(1.00934 -0.017936 2.60673e-21)
(1.01264 0.00117531 1.51944e-21)
(1.01269 0.00116497 -9.48266e-22)
(1.01272 0.00102386 -6.84739e-22)
(1.01618 0.000239673 0)
(1.01559 0.000175508 3.72796e-22)
(1.01652 0.000358717 0)
(1.0012 0.0135977 -2.12307e-21)
(1.00092 0.0157077 -1.96625e-21)
(1.00924 0.00015624 -1.04516e-21)
(1.0055 -6.99788e-06 -1.25101e-22)
(1.00989 -0.000219162 1.14489e-21)
(1.01058 -9.55943e-05 -3.74036e-22)
(1.00998 -0.000219964 1.06945e-21)
(1.01102 0.000117291 1.89188e-21)
(1.01009 -5.59093e-06 7.93655e-23)
(1.01171 0.000241037 -1.93369e-22)
(1.0079 -0.000123411 -1.55667e-21)
(1.00986 -0.000148974 -2.10609e-21)
(1.01106 -9.27106e-05 -1.04973e-21)
(1.08367 -0.0599068 3.51594e-22)
(1.01486 -0.0106804 1.16184e-22)
(1.01385 -0.0115174 -2.70375e-21)
(1.01671 -0.0122821 3.84267e-22)
(1.02932 0.0585031 8.83116e-22)
(1.02115 0.0615879 1.0247e-21)
(1.02418 0.0538025 0)
(1.01147 -0.000250497 -1.70486e-21)
(1.01145 -0.000238317 -2.3394e-21)
(1.07707 -0.0822471 0)
(1.08592 -0.0753606 -4.96983e-22)
(1.10963 -0.00900628 2.67168e-21)
(1.10889 0.000281751 0)
(1.10086 -0.00448672 -3.09404e-21)
(1.00422 0.000737366 -6.90064e-22)
(1.00407 0.00147656 1.17262e-21)
(1.00338 0.000940955 2.64835e-21)
(1.01962 -0.00806361 -1.01462e-21)
(1.0193 -0.00759377 -1.89993e-21)
(1.01895 -0.00795729 -4.59745e-21)
(1.2218 -0.204877 1.16638e-20)
(1.26193 -0.216654 -6.98392e-22)
(1.22744 -0.171646 8.00257e-21)
(1.00742 -0.105281 5.38919e-23)
(0.993091 -0.130702 -1.60031e-23)
(0.976057 -0.124212 -4.74576e-24)
(1.01692 -0.000624106 -1.13973e-21)
(1.01658 -0.00053485 0)
(1.04226 0.0919022 3.21235e-21)
(1.03259 0.0772069 -7.73892e-21)
(1.0516 0.0796124 2.93896e-21)
(0.924864 0.237916 -2.85419e-21)
(0.898285 0.234716 -5.02792e-21)
(0.909898 0.261027 -4.05954e-21)
(1.01261 0.00116996 1.62487e-21)
(1.01258 0.00128729 1.5571e-21)
(1.01436 7.78291e-07 3.67581e-22)
(1.01365 0.000118604 1.81879e-22)
(1.0155 6.54684e-06 -2.50683e-23)
(1.0034 -0.00200872 0)
(1.00314 -0.00124276 1.58925e-21)
(1.00247 -0.00193321 0)
(0.941756 0.101257 -1.62747e-21)
(0.926717 0.110381 1.33351e-22)
(0.932304 0.096397 -1.08834e-21)
(1.01089 -0.000251317 -1.81223e-23)
(1.01151 -0.000318526 -1.58282e-21)
(1.01069 -0.000266631 5.53286e-22)
(0.922099 -0.601243 0)
(0.904898 -0.563936 -1.28024e-20)
(1.03245 0.0395002 0)
(1.04063 0.0377597 1.42028e-22)
(1.03133 0.0340042 -1.40068e-22)
(0.962231 0.0903623 2.75418e-21)
(0.955395 0.102909 -3.80698e-22)
(0.981181 0.0834698 -3.03321e-22)
(1.00172 0.0765224 0)
(0.993825 0.0813616 -5.80148e-22)
(0.962375 0.0186758 -1.33425e-21)
(0.967833 0.0125375 -5.13039e-22)
(1.09247 -0.00323293 -3.26448e-21)
(1.08405 -0.0032276 -1.5306e-21)
(1.20602 -0.243321 0)
(1.18768 -0.199328 0)
(1.01359 0.000372302 -4.15664e-24)
(1.01416 0.000486904 -7.30617e-24)
(1.01498 0.000698408 -4.14862e-22)
(1.01151 -0.000692231 2.9283e-23)
(1.01146 -0.000780862 -2.07298e-21)
(1.01147 -0.000637587 -1.42058e-21)
(0.986266 0.0274388 8.48511e-23)
(0.987318 0.0256323 4.88898e-24)
(0.984637 0.0231706 1.32485e-23)
(1.07324 -0.0906725 -4.65905e-22)
(1.08393 -0.0938499 1.6921e-22)
(0.952985 0.238365 -2.75878e-21)
(0.938093 0.210065 0)
(1.01703 -0.000869044 -1.6517e-21)
(1.01714 -0.00114669 1.59917e-21)
(1.01675 -0.00100434 -4.39784e-22)
(1.01076 0.0100573 -3.74289e-22)
(1.01123 0.0109824 6.95032e-23)
(1.01009 0.0106554 1.52252e-22)
(1.01271 0.0102013 -2.62396e-22)
(1.01255 0.00954702 -2.60736e-22)
(1.01314 0.00975092 1.58237e-23)
(1.01761 0.0102129 2.06639e-23)
(1.01707 0.00973643 -3.1551e-22)
(1.01785 0.00963305 3.07002e-22)
(1.03192 0.045619 0)
(1.02361 0.0389293 0)
(1.01126 0.00819604 3.28737e-22)
(1.01122 0.00752496 -1.85014e-22)
(1.01176 0.00791597 6.492e-22)
(0.902157 0.00696529 -8.80844e-23)
(0.898929 0.0115118 -1.46779e-22)
(0.891915 0.00612938 3.78701e-21)
(1.0193 -0.0173103 -3.86648e-22)
(1.01815 -0.0158239 2.31511e-21)
(1.01999 -0.0155375 -3.6166e-22)
(1.00253 0.0128845 -7.48806e-22)
(1.00151 0.0117714 6.99378e-23)
(1.0154 -0.0118579 -1.16369e-21)
(1.01516 -0.0108139 -8.31268e-22)
(1.0175 -0.0121115 2.30551e-22)
(1.01734 0.0108672 -4.21846e-22)
(1.01821 0.010752 9.53923e-22)
(1.01721 -0.00139784 -1.45613e-21)
(1.01725 -0.00167451 -3.35378e-21)
(1.01689 -0.00151531 -1.61638e-21)
(1.00421 -0.0020718 -1.62606e-21)
(1.00504 -0.00221135 8.46801e-23)
(1.00488 -0.00148624 9.44169e-22)
(1.0104 0.00604593 -3.21627e-22)
(1.0103 0.00668026 -1.43709e-23)
(1.00982 0.00616986 -1.11479e-22)
(0.927289 0.00349102 4.05492e-21)
(0.939226 0.00989079 6.86276e-22)
(1.21271 -0.466137 -8.44569e-20)
(1.15888 -0.532221 5.54751e-20)
(1.20615 -0.488036 -1.40292e-20)
(1.0238 -0.00140141 -8.24187e-23)
(1.02437 -0.00149986 -1.92625e-22)
(1.02399 -0.00182874 1.25915e-23)
(1.01472 -0.0732972 1.26178e-20)
(1.00021 -0.0812704 4.01554e-22)
(1.00362 -0.00274706 9.78099e-22)
(1.0186 -0.0194295 -7.56005e-23)
(1.02063 -0.0188678 -8.17034e-23)
(1.01731 -0.0814977 2.39673e-22)
(1.03509 -0.0759875 -2.97089e-22)
(0.912115 0.00921386 -3.77372e-22)
(0.906848 0.00171394 -1.11049e-21)
(1.0236 -0.00104123 7.28697e-23)
(1.02328 -0.00136047 -9.05672e-25)
(1.0208 -0.0024815 3.49307e-22)
(1.02114 -0.00261694 -4.1511e-22)
(1.02085 -0.00229599 7.09614e-23)
(1.02074 -0.00269578 -2.28539e-22)
(1.02046 -0.00237885 4.2521e-22)
(1.01052 0.00317079 7.82988e-22)
(1.01028 0.00356791 7.82718e-22)
(1.01008 0.00306468 7.62518e-22)
(1.02119 0.00253901 0)
(1.02158 0.00242907 -3.57718e-22)
(1.02151 0.0027928 -2.05273e-22)
(1.02087 0.00230476 -2.15135e-22)
(1.02081 0.00262198 0)
(1.01146 0.00954802 -8.37841e-23)
(1.01043 0.00908651 -2.00956e-22)
(1.00359 0.0120151 -1.17174e-22)
(1.00367 0.013879 -5.5018e-22)
(1.00564 -0.00234522 1.88389e-21)
(1.00504 -0.00290509 1.03848e-22)
(1.01276 0.000248948 -9.71682e-22)
(1.01332 0.000151207 8.5264e-22)
(1.01444 0.00022627 4.89696e-22)
(1.00499 0.000536656 -6.02939e-22)
(1.0044 -4.01076e-06 -3.14484e-21)
(0.996071 -0.0258766 7.55942e-22)
(0.988539 -0.0321845 -5.80035e-21)
(0.999963 -0.0260252 4.6474e-22)
(1.01322 0.000348674 0)
(1.01194 0.000161468 -1.69245e-23)
(1.0203 -0.0130973 6.34976e-22)
(1.0087 -0.0138533 -3.16795e-22)
(1.01302 -0.0257373 1.31055e-21)
(1.01542 -0.000246079 -6.99627e-22)
(1.01568 -0.000334315 -3.41078e-22)
(0.999591 -0.0195935 2.50525e-21)
(1.01086 -0.0764822 4.94939e-21)
(0.980934 -0.0959834 7.77438e-21)
(1.1082 -0.0178057 4.4414e-21)
(1.11848 -0.0135269 3.54988e-21)
(1.01731 -0.000763364 9.94904e-22)
(1.05028 0.0190613 -2.59704e-22)
(1.04295 0.00621628 2.21793e-22)
(1.04375 0.0136818 6.27147e-21)
(1.06996 -0.100124 1.98339e-21)
(1.06503 -0.0890726 -2.73199e-22)
(1.01132 0.00891596 6.49622e-22)
(1.01072 0.00851829 3.57481e-22)
(1.02523 -0.0657936 1.58649e-20)
(1.0098 -0.0591182 7.95456e-22)
(1.00087 -0.0208147 -5.19958e-22)
(0.990485 -0.0249301 4.24911e-21)
(1.00789 0.000155832 2.57708e-23)
(1.00469 4.47644e-05 7.29094e-23)
(1.00483 4.20695e-05 3.01247e-24)
(1.0146 -0.00256777 1.74659e-21)
(1.01476 -0.00278414 2.66799e-22)
(1.01485 -0.00263127 -1.64342e-23)
(1.00574 0.00400207 1.54901e-22)
(1.00488 0.0037358 -2.36978e-21)
(1.02249 -0.012048 -2.54005e-24)
(1.02209 -0.0127233 -2.42621e-21)
(1.02164 -0.0118137 2.49674e-21)
(1.03786 0.0124003 -1.12536e-22)
(1.02527 0.0127892 -1.20475e-22)
(1.05291 -0.00534403 2.41872e-21)
(1.05209 -0.00650866 -3.03046e-22)
(1.0534 -0.00639535 -1.69361e-21)
(1.01622 -0.0130559 -1.77543e-21)
(1.01253 -0.0114995 -2.93622e-22)
(1.01288 0.0108894 2.3569e-22)
(1.01223 0.0106921 -4.58993e-22)
(1.0118 -0.00128192 0)
(1.01188 -0.00131176 0)
(1.01181 -0.00120243 0)
(1.01151 0.000195977 -1.08227e-23)
(1.01101 0.000215642 1.78609e-23)
(1.01289 0.000318185 -1.27525e-22)
(1.01751 -0.00129251 -7.02109e-22)
(1.01174 -0.00128024 7.84233e-22)
(1.01181 -0.00137323 0)
(1.01065 0.000844354 9.22826e-22)
(1.01081 0.000257015 0)
(1.01111 0.000620333 1.27689e-22)
(1.02127 -0.00292206 2.65592e-22)
(1.02155 -0.00258651 2.78909e-22)
(1.01729 -0.00195215 1.8713e-23)
(1.01733 -0.00226322 1.6956e-23)
(1.01698 -0.00206562 -1.63296e-21)
(1.00933 -0.000164337 3.57969e-21)
(1.01098 -0.000236251 1.50661e-21)
(1.01055 0.000180798 -2.15058e-22)
(1.01193 0.000186936 1.06032e-21)
(1.01522 -0.000369687 -4.34147e-21)
(1.01515 -0.00018129 -5.46207e-23)
(1.01521 -0.000512837 -4.32798e-23)
(1.01532 -0.00060374 2.5581e-22)
(1.01533 -0.000556469 1.05069e-22)
(1.01435 -0.00247558 1.6027e-21)
(1.01441 -0.00237206 1.54731e-21)
(1.01774 -1.64631e-05 -2.00748e-22)
(1.01809 0.000400848 -7.27327e-22)
(1.01844 -0.000125677 1.68935e-22)
(1.0113 -5.86785e-05 1.55494e-24)
(1.01145 5.16855e-06 -1.17955e-21)
(1.01105 -0.000102788 1.21894e-21)
(1.02042 -0.00324811 6.7923e-22)
(1.02017 -0.00304497 6.28024e-24)
(1.02028 -0.00335901 4.28899e-22)
(1.01788 -0.00309511 -3.41816e-22)
(1.01801 -0.00322081 -3.3861e-22)
(1.01773 -0.00346382 3.83956e-22)
(1.01774 -0.00316606 4.20661e-22)
(1.01755 -0.00325718 -7.42915e-22)
(0.99138 0.0307358 2.3604e-23)
(0.993378 0.029983 2.20854e-23)
(0.98943 0.0300743 4.19427e-22)
(1.02056 -0.00308618 1.76021e-22)
(1.02079 -0.00344303 -2.45972e-22)
(1.02289 -4.37581e-06 0)
(1.02315 -0.000351672 0)
(1.02336 7.49772e-05 1.83336e-22)
(1.2523 -0.388075 -1.26911e-20)
(1.17547 -0.416075 2.79899e-20)
(0.871445 -0.343942 -2.04007e-20)
(0.862049 -0.358232 -1.47114e-20)
(0.874606 -0.356622 4.02876e-22)
(1.01244 0.000325865 -1.03794e-21)
(1.01013 5.26484e-05 -2.87376e-23)
(0.872291 -0.335235 3.50839e-21)
(0.88043 -0.34136 1.68764e-20)
(0.929904 -0.373409 1.00682e-20)
(0.954351 -0.370509 8.18702e-21)
(1.02262 0.00029831 0)
(1.02241 -7.13222e-05 0)
(1.01028 0.00024084 3.57425e-23)
(1.01016 0.000252799 2.86099e-22)
(1.01335 -0.000215534 1.3535e-22)
(1.01282 -0.00021872 1.72722e-22)
(1.01382 -0.000216209 3.81737e-23)
(1.0174 -0.00028783 -1.21756e-22)
(1.01715 0.000144557 6.38837e-22)
(1.02067 -0.00289399 -6.87266e-22)
(1.02036 -0.00274374 0)
(1.0115 8.66882e-07 5.27127e-22)
(1.01118 -1.64445e-05 5.57585e-22)
(1.0125 0.00121247 2.94804e-22)
(1.01252 0.00132265 2.73636e-23)
(1.02004 0.00867468 2.53443e-22)
(1.02023 0.00940035 2.13832e-22)
(1.01779 -0.0024902 6.10389e-22)
(1.01775 -0.00248993 -2.03855e-23)
(1.01787 -0.00249394 3.30111e-22)
(0.666038 -0.0936901 3.096e-21)
(0.664163 -0.0283277 4.43336e-20)
(0.628961 -0.0339868 -9.30635e-21)
(0.985895 0.0316347 1.05452e-21)
(0.98703 0.0300121 -2.3208e-22)
(0.989263 0.030979 5.39147e-23)
(1.03988 0.0519033 -1.57146e-20)
(1.02615 0.0591972 -1.70472e-22)
(1.01157 -0.00866306 1.95432e-21)
(1.02576 -0.0378874 -1.80073e-21)
(1.0251 -0.0356032 -2.25792e-22)
(1.02321 -0.0370952 -9.27322e-22)
(1.01791 -0.00249214 -3.23979e-22)
(1.01797 -0.00246245 0)
(1.01141 0.00296226 0)
(1.01126 0.00327087 -8.5363e-22)
(1.01157 0.00331347 0)
(1.01292 0.00188977 -3.0991e-21)
(1.01262 0.00166968 1.3721e-21)
(1.0129 0.00167699 -1.58053e-21)
(0.95819 -0.0426692 0)
(0.917585 -0.0825294 9.12438e-22)
(0.939067 -0.0677135 0)
(0.982045 0.0311203 1.52861e-21)
(0.982673 0.0310667 -2.4064e-22)
(0.975446 -0.00992813 -5.76741e-22)
(0.984026 -0.00545469 6.18812e-24)
(1.02305 -0.010753 0)
(1.02278 -0.0114362 0)
(1.0223 -0.0105696 1.59351e-22)
(0.711775 -0.128801 0)
(1.01763 -0.00184513 2.3285e-21)
(1.01561 0.00473357 1.91563e-23)
(1.01581 0.00447195 0)
(1.01543 0.00432557 -3.07587e-24)
(1.0116 -0.00127776 -1.2886e-21)
(1.01159 -0.00138488 0)
(1.01167 -0.0013449 -4.89136e-22)
(1.04691 -0.0266735 -2.68195e-21)
(1.04778 -0.0282331 -1.84954e-21)
(1.04898 -0.0262124 -2.52745e-21)
(0.489986 0.24817 7.71502e-22)
(0.447279 0.286403 -1.04306e-20)
(0.44721 0.178696 1.29494e-21)
(1.03286 -0.00890658 9.89753e-22)
(1.03209 -0.00846621 1.80496e-22)
(1.03211 -0.00937817 -1.67674e-21)
(1.02104 -0.00305131 -1.50014e-22)
(1.01763 0.000844325 -1.63064e-21)
(1.01203 0.283371 0)
(0.976617 0.291273 2.80186e-21)
(0.983602 0.312374 -5.99942e-21)
(1.01154 -0.000702898 1.76641e-21)
(1.01153 -0.000590825 6.20715e-22)
(1.05385 0.108579 0)
(1.02854 0.110726 -7.25435e-21)
(1.01155 -0.00120197 -2.52406e-21)
(1.0116 -0.0011824 3.51689e-22)
(1.01414 -0.00267202 1.49142e-21)
(1.01392 -0.00255309 -9.17845e-23)
(1.01402 -0.00275998 -9.88373e-23)
(1.01783 -0.00249045 2.66963e-23)
(1.01776 -0.00247663 1.95651e-22)
(1.02388 -0.0109151 0)
(1.0233 -0.0100559 4.47174e-22)
(1.01328 -0.000477901 0)
(1.01324 -0.000557286 1.81227e-21)
(1.01339 -0.000525477 0)
(1.03735 0.0552814 -3.83098e-21)
(1.03157 0.061753 9.23887e-22)
(1.03167 -0.0111425 4.71258e-23)
(1.02019 -0.00279149 -1.1862e-21)
(0.969124 0.0830597 -8.60195e-22)
(1.04654 -0.0245376 7.94003e-22)
(1.04519 -0.0264625 8.87047e-22)
(0.922609 -0.183737 -1.364e-21)
(0.942352 -0.180195 0)
(0.925693 -0.167983 -5.78115e-23)
(1.01203 0.00501768 2.26278e-23)
(1.01178 0.0047066 9.66542e-23)
(1.01206 0.00458446 8.7426e-22)
(0.913837 -0.370204 -8.99823e-21)
(0.92715 -0.351798 5.2873e-21)
(1.01509 -0.00047642 -3.59263e-22)
(1.01499 -0.000450422 -2.2197e-22)
(1.02084 -0.0027909 2.31509e-21)
(1.02109 -0.00320764 3.01957e-21)
(0.675129 0.0154507 -3.94242e-21)
(0.686974 0.0857432 -9.36892e-22)
(0.723675 0.054412 0)
(1.00876 -0.113248 -4.35429e-21)
(0.972058 -0.154281 4.32269e-21)
(1.01193 -0.00133722 -6.15276e-22)
(1.01194 -0.00125273 -6.7793e-22)
(1.012 -0.00135967 -1.34268e-21)
(1.01735 -0.00254381 1.93439e-21)
(1.01768 -0.00244355 5.53357e-23)
(1.01213 0.00901884 -8.36202e-24)
(1.01245 0.00989618 0)
(1.05349 0.0339134 9.76399e-22)
(1.01862 -0.00307474 3.49205e-22)
(1.01846 -0.00288069 -8.5954e-23)
(1.01849 -0.00307272 3.59655e-22)
(1.00462 0.0112357 1.23579e-21)
(1.00354 0.0103848 5.60653e-22)
(1.02678 -0.0167778 0)
(1.02573 -0.0169104 0)
(1.02608 -0.0158355 -1.63813e-21)
(1.04851 -0.0422859 1.58525e-21)
(1.04828 -0.0388678 2.16489e-21)
(1.05126 -0.0411299 -6.88866e-22)
(1.04374 0.0493751 -7.46645e-22)
(1.03675 0.0469138 -8.34235e-22)
(1.0125 0.0627451 1.00867e-21)
(1.0119 0.0675393 -2.83586e-21)
(1.01989 -0.00867963 1.82007e-21)
(1.02026 -0.00819793 -2.67894e-21)
(0.903139 -0.191465 -1.34065e-21)
(0.923325 -0.202655 2.25655e-21)
(1.01297 -0.000138056 4.53866e-23)
(1.01381 -0.000235939 -3.70053e-23)
(1.01127 0.00223603 -8.91085e-22)
(1.01127 0.00182564 1.15705e-22)
(1.01151 0.00199298 -4.70435e-22)
(1.04856 0.260491 6.30703e-21)
(1.03157 0.248932 0)
(1.01257 0.00855235 2.83527e-22)
(1.01173 0.00826572 2.82869e-23)
(0.864672 0.0803104 5.9343e-21)
(0.840196 0.0898074 -1.90454e-21)
(0.846825 0.0728527 2.20494e-21)
(1.05399 -0.127601 -1.01347e-21)
(1.043 -0.124559 -5.46088e-22)
(1.0449 -0.138057 4.83221e-22)
(1.01561 -0.00242397 2.46257e-21)
(1.01589 -0.00237736 1.39218e-21)
(1.01558 -0.00221528 1.45403e-22)
(1.02332 -0.0122977 0)
(1.01328 -0.000384509 0)
(1.01317 -0.000432396 0)
(1.01691 -0.0145012 7.04511e-22)
(1.01502 -0.0155746 3.97338e-22)
(0.708034 -0.0364375 -3.28545e-21)
(1.00474 0.00204026 3.69491e-23)
(1.00552 0.00166793 2.98884e-22)
(1.02236 0.000554222 0)
(1.02192 0.000457427 -1.00484e-22)
(1.02208 0.000776938 0)
(1.06039 -0.118902 -7.28417e-22)
(1.06482 -0.131607 -2.61717e-21)
(1.08196 -0.0121475 1.69861e-21)
(1.08757 -0.0138594 4.89871e-21)
(1.08233 -0.0171731 2.51398e-21)
(1.01545 0.00602243 -1.9187e-23)
(1.01584 0.00678429 3.44312e-24)
(1.01575 0.00518527 1.13217e-23)
(1.01633 0.00536501 -2.35724e-22)
(1.03359 -0.00853821 1.82063e-21)
(1.0336 -0.00952158 2.59866e-21)
(1.01457 -0.000345437 1.4854e-22)
(1.01486 -0.000433677 6.10146e-24)
(1.01458 -0.000338316 2.54639e-22)
(1.06008 0.000609508 -9.70622e-22)
(1.05739 -0.000927257 2.27817e-21)
(1.06013 -0.00207446 2.33401e-21)
(0.890119 0.0738809 1.26579e-21)
(0.87983 0.0842783 2.01445e-21)
(1.01506 -0.000486004 -1.71495e-21)
(1.01483 -0.000423319 -3.21769e-21)
(1.01491 -0.000597997 -1.68048e-21)
(1.01261 0.0010585 -8.18557e-23)
(1.0127 0.00124626 1.79689e-21)
(1.01284 0.00116623 -9.83384e-22)
(0.999176 -0.0735155 3.40598e-22)
(1.01891 -0.0605136 1.25865e-21)
(1.01076 0.00444458 5.84394e-22)
(1.01106 0.00487411 4.47546e-22)
(1.01058 0.00492998 9.82739e-22)
(1.00544 0.0103663 1.47019e-22)
(1.0057 0.0119226 5.78092e-22)
(1.01831 -0.0034067 1.19597e-23)
(1.01817 -0.00332488 8.75463e-23)
(1.01822 -0.00316635 -5.41853e-22)
(1.013 0.000985472 1.73406e-21)
(1.01305 0.000881971 -1.02145e-22)
(1.01323 0.00103068 0)
(1.04814 0.0413061 1.67763e-21)
(1.0464 0.052458 -1.10797e-21)
(1.01252 0.000900115 -8.8717e-22)
(1.01261 0.000849577 0)
(1.01244 0.000752694 -1.16656e-22)
(1.02337 -0.000660405 1.77724e-22)
(1.02288 -0.000692569 0)
(1.01244 0.00131457 -7.60736e-22)
(1.01239 0.00117593 1.14007e-21)
(1.017 -0.000577539 -8.10396e-22)
(1.01756 -0.00079063 8.99431e-22)
(1.0239 -0.000655531 1.79956e-22)
(1.01473 -0.000226424 0)
(1.01297 5.95496e-06 -4.38867e-22)
(1.0128 -0.00874789 1.10689e-21)
(1.01331 -0.00871809 -3.35441e-22)
(1.01309 -0.00925415 -1.29227e-21)
(1.03455 -0.0244085 -2.52303e-21)
(1.03488 -0.0228703 1.38382e-22)
(1.03332 -0.0235671 1.72746e-21)
(1.106 -0.0268312 5.1365e-22)
(1.09956 -0.0211333 -3.10207e-21)
(1.05398 -0.00384301 1.68976e-21)
(1.05561 -0.0023904 1.01243e-21)
(1.05594 -0.00430337 1.03444e-21)
(1.01277 0.000653735 8.27742e-22)
(1.01266 0.000562243 4.81926e-23)
(1.01281 0.000581749 8.48322e-22)
(1.00402 -0.0187007 -1.10291e-21)
(1.00375 -0.0170945 -1.15999e-21)
(1.00235 -0.0182674 3.99499e-22)
(1.01238 0.00148204 2.06609e-21)
(1.01237 0.00129278 1.02282e-21)
(1.01214 0.00125401 1.17063e-21)
(1.03421 -0.0259677 5.56204e-22)
(1.0359 -0.0251451 -8.68711e-22)
(1.00926 0.0066741 3.36918e-21)
(1.00846 0.00655388 5.81348e-22)
(1.00892 0.0057835 2.0814e-21)
(1.0189 -0.00304449 0)
(1.01875 -0.00306904 0)
(1.01869 -0.00284648 0)
(0.878422 -0.0531558 0)
(0.866617 -0.0680165 -1.03459e-21)
(0.85288 -0.0723464 6.9638e-22)
(1.01241 0.000914059 1.02731e-21)
(1.11263 -0.0330395 -1.04798e-21)
(1.10266 -0.0349203 -6.13144e-22)
(1.0117 -3.38596e-05 2.33279e-22)
(1.01348 -0.000292601 -4.04367e-22)
(1.01244 -0.000196786 -2.50086e-22)
(1.02854 -0.0384684 0)
(1.02637 -0.0409191 2.21746e-21)
(1.01412 0.00760741 0)
(1.01392 0.00808381 0)
(1.01453 0.00807998 -1.10532e-23)
(1.01387 0.0069575 -4.12372e-23)
(1.01445 0.00706273 0)
(1.04836 -0.045831 1.38968e-21)
(1.04542 -0.0431753 -2.33164e-22)
(0.720422 0.140313 -8.41675e-22)
(0.660196 0.127733 7.12324e-22)
(1.00618 -0.00225377 0)
(1.00638 -0.0015591 1.37632e-21)
(1.00682 -0.00220431 -4.91818e-22)
(1.01906 -0.00325158 1.20139e-22)
(1.01902 -0.00303341 3.0161e-22)
(1.01716 -0.00218148 -2.86825e-22)
(1.01727 -0.00219579 -1.58513e-22)
(1.01717 -0.00211689 0)
(1.00092 -0.0339376 2.08972e-21)
(1.0038 -0.0338172 3.712e-22)
(1.00187 -0.0314304 -2.93762e-21)
(1.01613 -0.00231256 0)
(1.0164 -0.00224652 0)
(1.0161 -0.002071 0)
(0.954779 0.019441 2.37973e-22)
(0.95973 0.0175958 5.74397e-22)
(0.949489 0.0147698 -4.65786e-22)
(0.95087 0.020762 -3.28659e-22)
(0.959608 0.0234583 -2.89151e-22)
(1.01194 -0.00142117 0)
(1.04414 -0.00258886 -5.28487e-22)
(1.04112 -0.0215922 -1.03059e-20)
(1.01273 -0.000439709 0)
(1.01272 -0.000399335 0)
(1.01279 -0.000415744 0)
(1.05202 -0.00368847 7.50239e-22)
(1.0166 -0.000757132 -1.87141e-21)
(1.01651 -0.00037034 -1.51331e-21)
(1.01446 0.00600255 5.35086e-23)
(1.01499 0.00607678 -1.6886e-23)
(1.01475 0.00658911 0)
(1.01196 0.000142307 5.277e-22)
(1.00913 5.83332e-05 0)
(1.01179 0.000198541 -4.23533e-22)
(1.01673 0.000222468 1.25425e-22)
(1.01585 0.000225896 0)
(1.01541 -0.00246803 -3.64988e-22)
(1.01565 -0.00261375 -1.21743e-22)
(1.01224 -0.00874718 2.23432e-21)
(1.01254 -0.00823394 2.96359e-21)
(1.03051 -0.0347515 -1.6977e-21)
(1.03106 -0.0327137 -1.87318e-22)
(1.02875 -0.0338021 -1.80114e-22)
(1.01182 0.000148063 1.1919e-22)
(1.01168 0.000188153 2.9193e-22)
(1.01217 0.000223479 3.28542e-22)
(1.01702 -0.00263309 1.72027e-21)
(1.01734 -0.0028381 1.78076e-22)
(1.01532 -0.000560225 3.76573e-22)
(1.05227 0.026499 0)
(1.04972 0.0265246 0)
(1.00588 -0.000331682 2.71927e-22)
(1.00572 0.000312525 2.77049e-21)
(1.00638 0.00014877 1.19878e-21)
(1.00759 -4.88431e-05 -2.62673e-21)
(1.01204 0.000107971 -6.84498e-23)
(1.01007 0.000184818 -3.12189e-23)
(1.01101 0.00011185 -1.08885e-22)
(1.01062 0.00138018 1.65814e-23)
(1.01021 0.00107821 7.80998e-22)
(1.02062 -0.0144558 -1.21757e-21)
(1.01998 -0.0150248 1.57636e-21)
(1.01969 -0.0140891 -6.49312e-22)
(1.03019 -0.0368236 -1.35305e-21)
(1.03277 -0.0357403 1.08405e-21)
(1.01245 -0.00047377 0)
(1.01248 -0.000529661 -1.67273e-21)
(1.01251 -0.000515329 -1.7003e-21)
(0.75146 0.397956 -6.29572e-20)
(0.737787 0.263499 -3.12016e-20)
(0.692903 0.328005 -7.79934e-20)
(1.02278 0.00067977 2.22023e-22)
(0.929398 0.0982087 -1.65955e-21)
(0.910546 0.0852052 -1.37015e-20)
(0.93159 0.0802286 -1.00746e-21)
(0.952972 -0.0718279 3.00341e-22)
(0.954047 -0.0596978 -9.20938e-22)
(0.928185 -0.0848214 2.47213e-21)
(1.00983 0.000148317 -1.06346e-21)
(1.01231 0.000238759 -1.04111e-21)
(1.01091 0.000200972 4.02476e-22)
(1.01159 0.000132633 -1.16354e-21)
(1.01254 0.000156906 -7.18674e-22)
(1.01959 -0.00324982 0)
(1.01976 -0.00324244 0)
(1.01987 -0.00350623 6.02105e-22)
(0.998055 -0.033904 6.02466e-21)
(1.00024 -0.0367118 2.31814e-23)
(1.01781 -0.0304385 1.32329e-21)
(1.01941 -0.0305714 3.8723e-22)
(1.01866 -0.0285905 3.09756e-22)
(1.01621 -0.000883275 1.20026e-22)
(1.01583 -0.000643191 -1.36781e-21)
(1.01583 -0.000941379 7.07892e-22)
(0.946408 0.106116 4.28411e-23)
(0.923975 0.116257 1.98431e-21)
(1.0125 -0.000348965 8.97096e-22)
(1.01223 -0.000358345 4.74391e-22)
(1.01267 -0.000253568 2.17835e-21)
(1.01942 -0.00321153 -4.50794e-22)
(1.01934 -0.00297228 1.29002e-22)
(1.01623 -0.0304428 1.49241e-21)
(1.01696 -0.0324905 7.16871e-22)
(1.01007 -0.00791287 1.3247e-22)
(1.01029 -0.00852134 -1.18289e-23)
(1.00961 -0.0083604 2.271e-21)
(1.01475 -0.00720454 -2.40553e-21)
(1.01466 -0.0067759 1.23195e-21)
(1.01512 -0.00707896 -8.43314e-22)
(1.01089 0.00594213 1.84714e-22)
(1.01046 0.00548761 -7.06241e-26)
(1.01844 -0.0136183 4.27557e-22)
(1.01401 0.000650537 -2.02247e-22)
(1.01427 0.000714453 0)
(1.01418 0.00057987 0)
(1.00619 -0.0335745 2.92823e-22)
(1.00689 -0.0312589 -1.51958e-21)
(1.00882 -0.033232 -1.32834e-21)
(1.02745 -0.0175089 -1.03163e-21)
(1.02777 -0.0163777 1.75044e-21)
(1.01318 0.000445496 -1.8609e-22)
(1.01337 0.000484454 -1.88731e-22)
(1.0133 0.000435428 5.26048e-24)
(0.985118 0.0283048 3.51134e-22)
(0.837059 -0.188497 0)
(0.861651 -0.180978 0)
(0.838918 -0.169166 5.69492e-23)
(0.989936 0.0267389 -1.57747e-23)
(0.98782 0.0231158 1.13928e-22)
(1.0133 0.00835028 7.17076e-24)
(1.01297 0.00769637 1.28695e-23)
(0.534304 0.27907 -3.77441e-21)
(0.538187 0.211739 -5.82213e-21)
(1.01934 -0.0155605 3.75492e-21)
(1.01858 -0.016105 1.23381e-21)
(1.01837 -0.0150866 2.71255e-21)
(0.871926 0.233167 -4.07444e-21)
(0.885355 0.208982 -2.32452e-21)
(1.06628 -0.108562 6.86234e-22)
(1.07652 -0.112118 5.62907e-22)
(1.01752 -0.00242966 -1.55653e-22)
(1.01741 -0.00238047 -2.15301e-23)
(1.01743 -0.00242896 -3.065e-22)
(1.03889 -0.00868451 -1.25777e-23)
(1.03989 -0.00911295 0)
(1.05662 -0.106566 -7.78922e-23)
(1.01092 0.00324951 -1.09343e-21)
(1.01075 0.00280851 -9.28458e-22)
(1.00622 0.00957007 -4.78044e-22)
(1.00522 0.00893535 -5.69939e-22)
(1.10713 0.00976909 -3.1881e-21)
(1.09926 0.0121084 -2.89575e-21)
(1.10687 0.0193804 -1.07941e-21)
(1.01249 0.00141005 -7.18728e-22)
(1.01245 0.00133675 -1.03655e-21)
(1.01252 0.0014841 6.00743e-22)
(1.00917 -3.07182e-05 8.35482e-22)
(1.0104 -0.000225161 5.05769e-22)
(1.02052 -0.00247466 -1.18578e-21)
(1.02032 -0.00284193 2.32947e-21)
(1.01543 -0.000215032 3.45195e-22)
(1.01557 -0.000205207 -2.27512e-23)
(1.01413 -0.000130605 3.455e-22)
(1.01904 0.0100122 -3.79119e-22)
(1.01847 0.00953433 1.64988e-22)
(0.959424 -0.174542 3.32487e-22)
(0.960837 -0.159233 5.09439e-23)
(0.975153 -0.167727 -6.58516e-21)
(1.01149 -0.00111728 1.13487e-21)
(1.01146 -0.00121717 -1.28803e-21)
(1.01301 0.000405736 0)
(1.01307 0.000450658 0)
(0.767468 0.484232 1.4e-20)
(1.01051 0.00400519 -7.07183e-22)
(1.01095 0.00402766 -7.55826e-22)
(1.0179 -0.00255525 8.541e-23)
(1.01789 -0.00254744 -3.35623e-22)
(1.01366 0.00889941 0)
(1.01304 -0.0154181 1.26156e-21)
(1.01307 -0.0164646 -1.42875e-21)
(1.014 -0.0159771 2.47261e-21)
(1.0125 0.00146806 1.27696e-22)
(0.959061 -0.191482 0)
(1.02116 -0.0139234 -4.72381e-22)
(1.02168 -0.0133018 -2.52734e-21)
(1.02079 -0.0130002 7.52379e-24)
(1.01538 -0.00390547 -5.60001e-22)
(1.0154 -0.00411585 1.70453e-21)
(1.01515 -0.00394312 1.62538e-22)
(1.01109 -0.00665325 -1.12842e-22)
(1.01083 -0.00704155 2.37355e-22)
(1.01058 -0.00651239 -1.91353e-21)
(1.01001 0.00397514 2.13858e-22)
(0.970251 -0.0426645 8.49344e-22)
(0.9658 -0.0419417 0)
(0.986716 -0.0280574 5.7264e-22)
(1.0196 -0.00717953 -3.9531e-21)
(1.01897 -0.00714425 -1.33301e-21)
(0.982476 -0.00145383 -6.39433e-22)
(0.985127 -0.00281473 2.86075e-21)
(0.984693 0.000221233 2.27047e-21)
(1.01535 0.00498488 -1.9478e-23)
(1.06912 -0.031509 2.75743e-21)
(1.06625 -0.0293743 1.87994e-21)
(1.06608 -0.032837 5.96461e-22)
(1.1839 -0.271894 0)
(1.22844 -0.293712 0)
(1.07233 0.126451 2.89499e-21)
(1.07769 0.104413 5.78094e-21)
(1.07269 -0.0338145 1.34174e-21)
(1.07256 -0.0294734 -5.13994e-22)
(1.01318 -0.0142249 7.97173e-22)
(1.01221 -0.0145233 -2.11036e-21)
(1.01018 -0.000686207 -9.70676e-22)
(1.01048 -0.000122962 4.72154e-22)
(1.00991 3.61103e-05 8.62685e-22)
(0.883473 -0.186411 0)
(0.889016 -0.209659 2.65649e-21)
(1.01341 -0.000116935 1.48487e-22)
(1.01513 0.000175015 3.45516e-22)
(0.888848 -0.0369254 0)
(0.905816 -0.0351051 0)
(1.01131 0.00578851 2.73813e-23)
(1.01133 0.00636778 7.92775e-22)
(1.01404 -0.000254786 -1.46054e-22)
(1.01457 -0.000320305 -1.41638e-22)
(0.951949 -0.0692733 6.18611e-23)
(0.979236 -0.0559474 0)
(1.00687 0.00871806 4.69709e-22)
(1.00722 0.01003 1.8117e-23)
(0.808375 -0.201617 0)
(0.840789 -0.212805 7.25602e-22)
(1.01536 -0.00367706 2.26568e-21)
(1.01561 -0.00389254 0)
(1.06296 0.00210693 -2.41096e-21)
(1.05933 0.00393715 -1.64013e-21)
(1.00968 0.117248 0)
(0.999575 0.143152 0)
(1.01816 0.00739213 8.37938e-23)
(1.01921 0.00739308 -2.44701e-22)
(1.0185 0.00648965 -9.55739e-22)
(1.01156 -0.000707582 1.06518e-21)
(1.01158 -0.000631106 1.016e-21)
(1.01158 -0.000711926 -5.66403e-23)
(1.04732 0.024879 0)
(1.04513 -0.0200091 1.1983e-21)
(1.04463 -0.0186601 1.026e-21)
(1.04366 -0.0198042 -3.23312e-22)
(0.991047 0.0293257 -5.25169e-24)