/*--------------------------------*- C++ -*----------------------------------*\
| =========                 |                                                 |
| \\      /  F ield         | OpenFOAM: The Open Source CFD Toolbox           |
|  \\    /   O peration     | Version:  v2012                                 |
|   \\  /    A nd           | Website:  www.openfoam.com                      |
|    \\/     M anipulation  |                                                 |
\*---------------------------------------------------------------------------*/
FoamFile
{
    version     2.0;
    format      ascii;
    class       volScalarField;
    location    "350";
    object      ddt0(omega);
}
// * * * * * * * * * * * * * * * * * * * * * * * * * * * * * * * * * * * * * //

dimensions      [0 0 -2 0 0 0 0];


internalField   nonuniform List<scalar> 
10042
(
0.0724722
-0.234778
-0.00205149
4.89035e-06
-2.52036e-05
0.398005
-0.132948
0.0898287
-5.25621e-06
0.000828242
-0.168928
-0.229308
-0.00157216
-1.84399e-05
-1.07958e-05
-1.84068e-05
0.322528
-0.197131
-0.000307234
0.00025277
-0.00157336
0.0684124
-1.19798e-05
-0.11228
-1.19139e-05
2.0581e-05
0.000361503
-2.39166e-06
0.395709
-0.198491
2.79699e-06
-0.000638579
-1.10575e-05
-1.55955e-05
0.0650086
0.00184212
-2.37347e-05
1.57146e-06
-1.15439e-05
-0.000179607
-0.176143
-9.73261e-06
-1.10019
-0.748678
-5.11721e-06
2.10695e-06
1.26242e-06
6.3416e-07
-0.000886414
0.0311096
-1.03776
-6.23099e-06
0.337216
-0.000279702
-0.424493
-0.525332
-0.00148994
0.0111888
-3.08239e-05
-1.6285e-06
-0.00272362
-0.372398
-0.209335
0.0553132
-0.155562
-2.90843e-05
0.000224892
0.0137197
2.46993e-06
0.0354563
-0.460512
5.48557e-05
-6.24222e-06
-2.66121e-05
-3.64928e-05
-0.851971
-0.00364694
1.46416e-06
-0.00333877
-0.000310728
-0.715469
-0.145884
-4.65022e-06
5.58025e-06
0.000227428
0.564012
0.000214495
-0.00769331
1.82607e-05
0.00636061
-0.000872134
-1.50591e-05
-0.228799
0.926022
-0.0919766
2.35423e-05
0.357934
0.000235286
-0.0256625
-1.53893e-05
-0.000854837
0.00577158
-1.51832e-05
-0.000630224
-0.000473773
1.08085e-05
1.28227
-2.81573e-05
-0.116206
-3.16906e-06
-4.42008e-06
-0.0377191
0.00326773
0.0544413
-0.0613701
7.23279e-06
0.0175791
-1.03352e-05
0.00687971
8.99089e-06
-1.86649e-06
-0.197161
-0.19155
7.626e-06
0.00453169
6.33371e-06
-1.77135e-05
-0.325737
0.0235895
0.0158233
3.31035e-06
-2.01627e-05
2.09524e-05
-4.64847e-06
-0.0307363
-0.144592
0.000240275
0.374753
-0.000161934
-0.0372149
-0.00773856
-2.3172e-06
1.24857
-2.16411e-06
-0.000602278
4.42534e-06
0.000110546
2.96957e-06
6.264e-05
-0.0571203
-1.66343e-05
2.73381e-06
-0.000185794
-0.00181631
-0.063513
-0.000573864
0.0117906
-0.468528
1.18691e-05
2.17816e-05
-3.12255e-06
-0.00021522
-0.134227
-1.54395e-06
-0.000109597
-0.0423927
-5.51498e-06
-0.000782525
0.0199205
-1.53177e-05
-0.0395512
-0.126969
-0.088249
-1.68141e-05
-0.000278426
-0.139768
-6.95023e-06
5.46828e-06
-2.52144e-05
7.99675e-07
-0.000152518
-0.000487171
-2.66742e-05
9.85341e-06
0.00211479
-0.000764923
3.31511e-05
-4.98878e-07
0.0845378
-1.85376e-06
-0.241537
-0.00150368
-1.53886e-06
-0.000472966
-0.157564
-1.20932e-05
-2.04318
-0.0140671
0.575316
4.44901e-06
-0.0679494
-0.00189387
-0.0330864
6.28782e-06
-0.0407949
2.48458e-05
-0.0532659
-0.00190812
1.00761e-05
-3.48456e-06
-0.000734725
4.35983e-06
-0.0431917
-0.0259917
-3.04111e-05
0.074724
7.21259e-07
0.159206
4.98469e-06
-0.0276924
-0.76234
-0.0413882
-0.264237
0.0773672
9.84748e-06
0.00193553
5.63462e-05
0.000220273
-0.000336326
-1.39137e-05
4.4354e-06
-7.44621e-06
-0.00078146
-2.28387e-06
-1.22711e-05
0.0620439
0.000168967
0.414686
-0.000482487
-0.0890906
0.265781
0.0664227
-2.10214e-06
-0.000294848
-0.189853
-2.46378e-05
0.0495528
-0.000403084
-0.000182814
-2.11688e-05
-0.000420532
5.80902e-07
0.379266
-0.155864
5.29539e-05
0.000170881
3.79408e-06
8.35539e-05
0.255014
7.58478e-06
-0.0115172
-5.55375e-06
-5.90916e-06
7.06901e-07
-0.00158069
0.095886
-0.0113906
0.352245
3.58354e-05
7.79695e-06
1.89821e-05
-0.0122707
-2.25626e-07
-0.180581
8.11379e-05
-0.00358767
-8.07724e-05
-1.52762e-05
3.71154e-05
-0.149407
-5.82568e-06
0.109442
-1.21623
-8.74436e-05
-9.78002e-05
0.394207
0.0091605
-2.7788e-06
0.0378425
4.53473e-06
-0.00141307
0.000327825
-4.70931e-05
0.141393
-0.110118
-1.49036e-05
-0.00186918
0.000181713
1.63138e-05
5.19277e-07
-0.000177731
-0.0238002
-4.04734e-07
0.236855
0.0122855
-0.428925
1.52931e-06
0.00107084
-0.00682853
0.130861
-7.48259e-06
5.52097e-08
8.28469e-06
-1.26736e-05
9.69318e-05
0.0253345
-2.10654e-07
0.00111408
-0.0892023
8.42596e-06
-2.82982e-06
-0.082446
-0.00783493
-0.0276328
0.00499564
-2.8425e-05
-0.00041058
-2.18096e-05
0.000185749
-0.00129566
3.24247e-05
1.99658e-05
0.0633404
-8.62254e-06
-0.0619035
0.0590147
0.480658
-0.0220969
-5.3213e-06
-0.0360732
-0.00357404
-0.00176168
-1.86971e-06
-0.0043491
1.11097e-05
5.34587e-06
7.10152e-06
-3.03477e-06
-3.09693e-06
0.515517
-2.70834e-05
-0.113598
-1.35134e-05
-2.19173e-05
-0.356678
-0.00021416
5.3102e-05
-1.27781e-06
-2.80039
-2.35858e-06
1.59913e-05
-2.79355e-05
-0.000106732
-0.120619
-0.0142626
-0.000122554
5.3675e-06
1.27411e-05
-1.4384e-05
-0.12791
-1.1106e-06
3.59567e-05
2.62733e-06
5.20452e-06
0.19894
2.11751e-05
-0.00208568
0.043733
1.1061
0.0910993
1.39969e-05
0.13408
-0.000236684
-2.10102e-05
-0.00168327
7.67353e-06
-5.19613e-06
1.13799e-05
-3.89196e-05
-1.25311e-06
8.31684e-05
-0.137504
-2.6333e-05
0.00674976
0.0294258
-0.144603
-6.04604e-06
0.0771837
-8.7927e-05
-0.000683281
-3.25234e-06
0.350054
0.000119374
-0.409504
0.0820327
-2.1422e-05
-0.00735913
1.24375e-05
0.135103
7.95815e-05
-0.102075
-0.000834112
0.0964297
-9.64789e-06
0.00603507
-8.93141e-05
-0.000813573
-0.183195
-1.09774e-06
-8.48882e-05
-5.95058e-06
0.187992
2.06213e-06
1.00002e-05
-0.00499405
-3.58322e-05
6.96137e-05
0.00532716
8.24818e-06
-0.00175897
-5.84594e-05
9.08158e-07
-0.000836452
0.00404752
5.07166e-05
-8.03345e-05
0.156556
0.00320087
-5.4671e-06
-0.549595
-6.81375e-07
9.95873e-05
-0.000463814
0.0541386
-0.0872868
-0.000895375
0.00435315
-0.155685
0.0730116
9.27117e-06
-0.0115869
0.00542834
0.00489181
-0.00165287
-2.40936e-05
1.19835e-05
-0.0743412
-0.293729
1.19842e-05
-4.01697e-06
-2.71931e-05
-1.41469e-05
7.60075e-05
0.000138452
-3.56322e-05
-2.66114e-05
0.0706041
-8.43404e-05
8.26718e-05
-0.0516998
-0.13437
-1.06163e-05
0.308296
0.123727
0.0743257
-7.53623e-06
-0.000438722
-5.22097e-06
-0.112171
1.22848e-05
0.0120873
-8.87402e-06
-0.0274545
-8.80144e-07
-0.000416681
5.09453e-06
-0.0129484
-0.217686
-7.33026e-06
7.40125e-06
-3.13946e-06
-0.416778
-5.38798e-06
-0.00452669
0.000252436
-0.00535013
-3.32746e-05
-0.00532943
0.181492
-0.140482
3.90013e-06
1.04856e-05
0.0938917
-0.321253
-0.00234514
0.0108152
2.8385e-06
0.0240443
-0.000293375
-0.000486874
-0.000289771
-0.0471804
-2.42794e-05
-1.78219e-05
-8.5393e-06
0.169069
2.86107e-05
0.111722
2.59201e-05
3.50212e-06
-9.03729e-06
-0.000733591
-0.0425679
-1.88357e-05
-7.74259e-05
-0.109667
-0.0193027
0.000579153
-1.40113e-05
-3.79876e-05
0.0125269
-0.146159
1.82743e-05
-1.1618e-05
0.000209778
2.8657e-05
-1.05666e-05
-0.000344047
2.36774e-06
-0.150055
5.22626e-06
-0.000269853
-0.00175751
0.230536
3.06598e-05
-0.000517332
1.64925e-05
-2.97924e-06
-0.10058
-1.95787e-06
0.00907764
-0.00242934
-5.05577e-06
-0.000197555
0.390639
0.0308493
-0.0781711
-1.00754e-05
-9.77434e-06
4.66217e-06
0.000107993
-0.0100898
-9.06447e-06
0.0669422
-4.17568e-06
-5.17025e-07
-0.40344
-0.000497026
-0.0142393
-4.7854e-06
-1.36342e-05
-0.222574
-0.129768
-0.00090009
-0.0434089
1.62155e-05
-0.000642631
-1.48736e-05
-3.66161e-06
-1.08604e-05
-3.03604e-06
1.41781e-05
-3.95361e-06
0.421574
-1.39431e-06
0.00476844
3.46772e-06
-8.59665e-05
-6.84922e-07
0.000784853
0.308778
-1.59642e-06
-1.04581e-05
0.00186114
-0.0198743
-9.94389e-07
0.912954
1.0156e-05
0.0428544
1.10584e-06
-9.99406e-06
-9.28469e-06
-2.86228
-1.06891e-06
2.51443e-05
1.65891e-05
0.0233092
1.06607e-05
-9.15324e-06
-2.2476e-06
-0.0138948
-1.24774e-05
-1.1741e-05
-1.70624e-06
-4.25958e-06
-0.000360412
-6.87715e-06
5.0994e-05
-1.15689e-05
0.124478
-0.382366
-0.119951
7.71393e-05
-0.00030295
5.86229e-06
0.00354162
-6.28058e-05
-0.107028
-0.0389506
-0.079082
0.0361155
0.0294884
2.32574e-05
1.29345e-05
0.187252
-0.0107792
-0.000459453
0.00101216
-5.98403e-06
-0.129053
2.73732e-06
1.1371e-05
-1.21199e-05
-2.7038e-06
9.349e-06
0.220557
-8.45679e-05
1.85236e-05
0.0561301
-2.08726e-05
-8.37935e-05
-8.52572e-05
-8.47853e-05
-0.0077083
5.4827e-06
-0.0728123
-2.05602e-05
-1.8331e-05
0.00134997
4.25363e-06
-2.57056e-07
4.51222e-06
8.30627e-07
6.10348e-06
-0.00528147
0.00021887
-0.643243
-2.19476e-07
2.10406e-06
2.4813e-06
-0.0957317
6.3582e-05
-4.44506e-05
1.04199e-06
2.02991e-05
0.0110329
0.052569
0.019005
6.33537e-05
1.40987e-05
-0.145127
-0.000554532
9.29883e-06
0.000605394
0.00528198
-0.413839
-0.0138898
3.66781e-06
-1.0651e-05
-2.48484e-05
0.027418
-1.27158e-05
-0.000363359
-9.66231e-06
-1.52651e-06
-0.0035307
2.26893e-07
-1.09416
-3.40562
-1.77652e-06
-7.33736e-06
7.13343e-06
0.00214949
-2.29512e-06
0.0843232
5.09737e-06
0.0745268
-8.12719e-06
-2.46025e-05
-1.16389e-06
-1.50546e-05
5.87496e-06
-8.56074e-06
1.28183e-05
-2.16163e-05
0.00669379
-0.00037235
-0.2393
1.96091e-05
-0.00199518
0.000698906
-7.5611e-05
-0.296669
-1.53885e-06
3.49135e-05
0.000400586
-3.52405e-06
-0.0379812
-1.79753e-05
6.97303e-05
-1.13248e-05
-0.228005
-2.61242e-05
0.0152695
-0.00206692
-1.36962e-06
0.0117111
0.0403706
-0.000239956
-4.32858e-06
0.00192026
3.87621e-05
0.0705041
0.00404408
-0.00281213
-0.000940609
3.77221e-06
7.50079e-06
-2.48733e-05
9.45819e-05
0.00107738
-0.0234459
0.188505
-1.41703e-06
0.000163507
-9.77562e-05
0.000293356
4.23194e-05
0.159845
-1.72627e-05
2.53222e-05
-0.0443093
-5.34174e-06
-2.01446e-05
-0.000686655
1.20103e-05
-0.00936889
0.000491328
2.91213e-05
3.59047e-05
-0.000236299
7.53805e-06
-0.382831
-1.70914e-05
-0.000153103
-0.000356159
-0.269345
2.95214e-05
-0.000485335
-0.00256554
-4.06094e-05
-0.00181892
-1.78326e-06
-0.000340698
2.51853e-05
-1.03003e-05
-2.91519e-05
7.85482e-06
-0.000160898
-0.00265671
-9.06115e-06
-8.73655e-06
-0.00253264
3.61779e-06
-9.2282e-06
1.00942e-05
9.19282e-06
0.0226445
-0.0001533
0.000119856
0.00659157
-0.00220658
7.16871e-06
0.00794486
0.124126
1.4615e-05
3.34723e-05
7.08854e-06
-0.0697069
0.00544284
-0.000440347
3.25853e-06
-0.0010845
-0.159251
0.150301
-8.45715e-06
-0.0782796
-0.111187
-0.165366
0.00029188
-1.10778e-05
-6.15576e-05
-0.290633
0.0018774
-2.32017e-06
0.278298
6.81307e-05
-0.0179013
-0.0336511
4.06567e-05
-0.000864039
0.10496
-0.123405
0.0325403
7.26542e-05
0.352576
0.000107435
-0.0907044
5.82393e-06
0.00397932
-8.51977e-06
-0.000850186
-3.11407e-07
1.25656e-05
-9.85992e-06
0.826953
-1.38359e-05
1.22272e-08
-0.6337
2.76305e-06
-0.000803492
-1.47285e-05
-0.022586
1.18155e-05
-8.59234e-05
4.41668e-05
3.63301e-05
-2.24573e-05
-0.000426453
-5.13344e-06
-0.105848
8.022e-05
-0.00465837
-8.39971e-06
0.0680359
5.59115e-07
0.00100757
0.00455017
-0.000150098
-6.7785e-06
5.88896e-06
4.52432e-05
-2.03256e-05
0.0328065
0.000582945
-9.79666e-08
-0.263361
-3.05511e-06
-3.76799e-06
-0.0720657
2.83071e-06
-5.28982e-06
-0.180558
4.27513e-06
-0.000193916
-0.000161075
0.00267909
-0.000747117
0.00040935
-0.000501431
7.89357e-06
-0.449649
-0.388866
-1.10115e-05
-0.000254427
-0.538042
-0.180285
-0.0135303
2.06686e-05
-3.91981e-05
-0.00454061
1.21761e-05
0.00023731
-0.04098
-0.000307956
7.98339e-06
-0.00100857
0.0864144
-0.0013287
4.28213e-06
5.73127e-06
1.66411e-05
-1.81553e-05
0.3814
-0.118601
-1.56652e-05
-0.000430374
-0.23051
-2.30547e-05
1.68343e-05
0.207653
5.29197e-05
-0.00623713
1.59038e-06
-6.52958e-06
-8.92393e-07
-4.64564e-05
-0.00037868
-0.0816372
-2.43593e-05
-0.0311176
0.147031
-0.496236
-0.000391377
6.42695e-05
0.237422
-0.00116877
-0.0221972
-0.000640396
1.48547e-05
-2.46549e-05
-0.521491
0.0649201
-7.90023e-05
-0.000418187
-0.00103995
2.86753e-05
-0.0020708
-7.40799e-05
2.69175e-05
-7.15312e-06
-0.000856674
3.08352e-05
-1.21289e-05
0.597967
2.42504e-06
-3.46158e-05
0.000260958
-0.000573005
-0.0152847
-7.82698e-06
6.20047e-05
-0.663568
-0.00118968
6.77915e-06
-0.00153798
-0.0916012
-1.42446e-05
-6.44571e-06
-0.000509614
0.00261538
2.09148e-05
8.95016e-06
-2.46809e-05
-0.000113814
-2.70185e-05
-0.315636
-2.38118e-05
0.344544
6.01477e-06
7.82893e-05
1.92883e-06
-1.52068e-05
-0.00222559
0.00523339
-0.0898588
-7.16936e-06
-3.31675e-05
-0.0128489
0.0129783
-0.00197696
-8.57117e-05
-0.125549
-2.11329e-05
-0.00411051
0.0066974
0.000177328
-0.000166354
-4.00147e-06
0.00422907
0.956582
0.336474
1.05946e-05
2.29458e-05
-0.000601706
0.0158156
1.79374e-05
-2.20974e-06
-0.00189662
-3.21757e-07
7.30764e-06
-0.0181174
5.12824e-05
1.1227
9.98277e-07
-1.01156e-05
-1.53351e-05
0.00017169
6.6163e-06
3.64328e-05
0.0146096
1.32041e-05
3.38674e-05
0.50726
3.00956e-05
0.00366498
-7.21603e-06
0.00181167
-0.034667
1.01217e-05
-0.0209006
0.000242857
1.49782e-05
-2.12388
-8.21035e-05
3.35598e-05
5.58276e-07
-1.24404e-05
3.91066e-05
-0.364981
0.000290758
-0.00329383
-0.0260222
0.0828272
-0.000338753
-0.0619028
-0.000325089
-0.0126637
-1.40407e-05
-0.000668723
-7.52367e-06
-1.87887e-05
6.73773e-06
-0.532163
0.0534778
2.53533e-06
-0.312449
-2.29262e-05
0.237208
-1.22013e-06
-0.000274148
0.000126169
0.00938143
-0.227801
1.62369e-05
-3.15314e-07
0.00325622
-0.00983415
-0.00852934
-0.0023279
0.0580045
4.97863e-05
-0.00350389
0.396188
-1.21805e-05
5.91608e-06
-7.19789e-06
-0.000397183
1.17414e-05
-8.52006e-05
9.30666e-06
-9.40326e-05
5.37035e-05
5.32258e-05
-6.13314e-05
-0.0160672
-0.0925096
-1.10626e-06
0.014134
-0.000165825
-0.00119074
0.000385793
-0.00285649
1.46905e-06
-0.000217332
0.000233026
3.11608e-06
-0.00188143
0.0542639
-1.92649e-05
6.54231e-06
1.86823e-05
-0.0851911
-0.0256233
-1.39378e-05
0.106697
-1.92754e-05
-1.0288e-05
-0.0102971
-2.15686e-05
-6.37189e-07
-3.25763e-05
-2.93339e-05
5.8884e-06
-0.000501491
1.87782e-05
4.99306e-05
-2.13589e-05
-1.76503e-05
1.41453e-05
-0.00877131
-1.65039e-06
0.000307565
-0.220051
-0.00424386
-2.40998e-05
0.0483241
4.1993e-06
0.00614778
-9.72393e-05
0.00830366
1.29528e-06
-0.316718
0.0629615
0.973036
7.10101e-06
0.0131735
-0.120883
-0.0957083
-1.82183e-06
-0.0972211
2.59648e-05
-0.0555902
-0.0694203
3.56579e-05
-1.76734
-0.0400801
0.0817331
0.349475
-0.21244
-0.0574314
1.22503e-05
2.55508e-05
0.0110898
0.00572418
-2.10261e-05
-0.0363223
-9.50609e-05
-1.15024e-05
-3.07439e-05
0.00924775
0.00364101
0.000320384
-0.00617152
-0.000785946
-0.0567291
-8.40555e-05
-8.13547e-06
-5.09803e-05
0.0912666
-0.038806
-0.000778788
0.112231
-7.43364e-06
7.55859e-05
-0.0014845
-0.0630898
-0.000997533
-9.92536e-06
0.000416669
-0.175866
1.76512e-05
0.00761006
-7.91616e-07
-0.00104515
0.00314812
-6.97329e-06
-0.029461
0.0701917
-6.29364e-06
-9.23203e-05
-1.03051e-05
-0.0495565
-2.36215e-05
-0.267822
0.0402591
-1.44676e-05
-1.0318e-05
-1.052e-06
-0.00154585
1.42099e-06
-0.00509497
0.00026994
-0.00585946
-0.00381637
1.21806e-05
-0.000860953
-0.049251
4.7228e-05
0.00467432
-3.25145e-06
6.05852e-06
0.145709
0.103702
4.3791e-05
-2.69301
0.000409701
-0.0305738
4.65708e-06
9.10222e-06
5.08432e-05
-2.68251e-05
0.000327439
-0.0104817
0.000102148
-4.46032e-06
-0.0013153
0.00319713
-0.000220604
0.082743
-0.204563
-0.150505
-1.14763e-05
4.52357e-07
-0.0100354
3.35698e-06
0.320864
0.0847526
0.000570882
-0.0262489
4.20062e-06
5.65449e-05
-0.0665655
0.0881616
2.43013e-05
-0.13507
-6.94304e-06
-4.93189e-06
-0.00270092
-9.2941e-05
5.00828e-05
-0.00233332
-0.000285651
-1.45511e-05
-0.000225961
3.35662e-05
-3.30265e-05
-0.11717
-0.000637629
-0.049752
-8.7094e-06
-0.000711844
-6.06147e-06
8.78333e-06
0.0177505
-7.11531e-06
0.0030159
-0.117039
-6.95713e-05
-0.0336769
-0.000616098
0.0994268
7.31865e-06
-0.00452009
-0.00706674
-0.000325329
-0.000217289
2.26507e-05
1.83222e-05
-0.155088
-0.000218636
-0.0151471
-0.000856057
-4.46663e-06
0.0366514
4.40058e-06
0.676392
2.29302e-05
-0.287511
3.33171e-05
2.21405e-06
-6.12942e-06
0.0416678
4.51166e-06
-3.47487e-05
1.5977e-06
1.98707e-05
3.09114e-05
-0.00837597
0.054933
1.43519e-05
-0.000567343
-6.43771e-06
2.18129e-05
-1.72012e-05
0.0127861
0.264232
-0.000429711
2.83417e-05
-1.04879e-05
-1.16284e-05
-0.000288092
-0.000431025
-1.06142e-05
-0.0540162
-0.122881
0.0083229
1.23796e-05
2.145e-05
-2.09795e-05
-0.000188435
1.30195e-05
-5.52997e-05
2.13067e-05
-1.79207e-05
-0.0017466
1.67856e-05
0.00154023
-0.151909
0.0312426
-0.000199574
2.80952e-05
2.76285e-05
0.275026
-5.04239e-05
-0.00103483
2.90888e-05
-3.60094e-06
3.08981e-05
-9.33898e-06
-0.255561
-1.68142e-05
-0.0216735
0.0201766
-0.000352977
-7.56901e-06
-0.000494994
-0.0113278
-0.000317895
-0.0018663
-1.93346e-05
-0.000752587
-1.0573e-05
-0.000504873
-0.345699
-0.0321354
-5.36427e-06
-6.29617e-06
0.337746
-0.000356653
-0.000130814
1.85973e-05
0.0576816
-1.11922e-06
-0.000497226
0.0988476
-0.0955552
-0.00643527
1.15879e-05
1.68954e-05
7.62949e-06
-6.20447e-06
-0.00268826
-0.0214616
-0.299923
5.327e-06
0.190277
-1.72479e-06
-0.374316
-0.0554356
-1.28194e-05
0.199627
0.000380316
1.54505e-05
0.000644305
-0.00148241
5.9862e-05
-0.04955
4.35917e-06
0.158771
0.000588027
-0.47879
-0.0422078
-0.00218761
3.4823e-05
-0.000426476
-4.86375e-05
9.4823e-06
3.48681e-06
-2.08815e-05
-0.17194
-6.69097e-05
-0.00147132
-0.103986
-0.280943
-0.00143289
0.000963894
-1.56822e-05
0.0732559
-2.57268e-07
-0.0493339
-1.25169
-0.0785752
-1.61468
0.0305413
-1.11392
1.41752e-06
4.67794e-05
-4.75213e-06
-0.00464917
-2.23995e-05
-0.283431
-0.000350985
0.160428
-0.000696031
-2.57079e-05
1.73926e-05
1.73334e-06
-1.52333e-05
0.0418188
-0.302815
0.422972
-6.09427e-06
2.77842e-05
-0.000306993
-1.3234e-05
-0.0315528
5.86075e-06
-0.0175448
-0.0566441
-3.41321e-05
-0.000210275
-0.080473
-0.000669744
0.0251417
0.114652
-8.9016e-06
-0.0239167
-2.21682e-05
0.683799
1.52784e-05
0.00327826
-2.72467e-06
0.0547491
-0.000499927
1.17212
0.146381
0.250273
0.0128341
-0.104081
-0.000227247
-3.03917e-05
-0.0202044
0.0612517
-0.0681954
-0.000596669
-1.95684
0.0295878
0.00490814
-0.00139055
-0.205457
-5.19942e-05
-0.00164035
-0.529538
7.08434e-05
4.65807e-05
-7.54227e-06
-1.23939e-07
-8.21171e-06
-1.37182e-05
-6.8903e-06
0.0650609
-8.42717e-05
0.0175332
-0.0242714
-0.577796
-0.0549617
-0.0556593
1.34458e-05
-2.26415e-05
-0.0812146
-0.137846
0.000230327
-0.0339676
-0.118215
-0.0481919
-1.04242e-05
-0.0014102
-0.000206238
-0.0104813
0.00140987
-0.0326818
0.050033
-0.000522849
4.14276e-05
-5.18916e-06
-0.0824673
-0.104804
-0.00125536
-0.0362296
2.91172e-05
3.78049e-05
-0.000164248
-0.124122
-0.000224754
-1.81347e-06
-1.05716e-05
-0.00014039
0.599169
-0.00169295
-9.04383e-06
0.000576503
0.0426457
-0.000124701
-0.00610524
2.08782e-05
-0.00127261
3.34883e-05
-0.00129335
-0.0979452
-3.27146e-05
-1.05937e-05
2.22655e-05
0.118563
0.0201528
-0.00168461
-0.000102138
-0.000182497
-8.43094e-07
0.00484453
-0.00119922
-0.00022005
-1.6084e-07
-0.0339761
-2.27855e-05
0.0747066
-0.000118954
-0.00113721
-5.30641e-06
-0.485086
0.0261975
-0.000294374
0.896646
3.11668e-05
-7.09422e-05
-0.0153831
-9.99715e-06
-0.0626377
-0.0599104
-5.86042e-06
-0.000144255
0.014505
1.22558e-05
0.425709
-1.85074e-05
0.998539
-0.0071826
0.063268
-0.000197691
4.44188e-06
1.81377e-05
-9.44541e-06
-0.000422132
2.29391e-06
5.17921e-05
3.58841e-05
1.68407e-05
-0.000260398
-1.48239e-05
-5.59306e-05
1.80477e-05
-0.0169578
-1.01442e-05
0.582552
-6.69755e-05
-1.17381e-05
-0.0711059
-3.28303e-05
0.705369
-0.0327095
2.94591e-05
-6.52762e-05
-0.00149163
0.0575231
1.33731e-05
0.206586
-0.00104729
9.0677e-05
0.991108
-1.06217e-05
0.0427654
-5.69322e-06
0.0213347
1.6153e-07
-0.551719
0.239318
-0.0527665
-1.98966e-05
-0.000253705
5.30511e-06
-0.000227197
0.00135588
2.44011e-05
1.90811e-05
-0.00151753
-6.2405e-06
-0.687565
0.0408096
-8.20061e-05
-0.0014351
-1.2244e-05
-0.000633913
-0.000101747
3.07149e-06
-9.26447e-05
0.0261345
-0.275663
0.000702767
-0.000223101
-6.48591e-05
-0.000130373
0.0394759
-0.331397
-0.00254977
0.00554706
0.0868209
-0.000140223
-0.000261245
-0.00856369
-1.61512e-05
-0.00026427
-0.000116394
-0.00013251
-0.0385522
-0.000141759
-0.0587263
-0.000104966
-4.36347e-05
-0.0179464
-0.000167032
-0.000270351
2.233e-05
-0.000538595
-0.0385898
0.000134748
0.000334461
5.31861e-05
0.509967
0.00523653
-0.00036689
5.78001e-05
-1.97534e-05
-5.31119e-06
-4.63448e-05
0.00206563
-1.0575e-05
7.02058e-05
2.2953e-06
9.088e-05
-0.000542606
4.77787e-05
0.295155
-5.18389e-05
-6.68585e-05
-0.24106
-0.000227621
-0.000356207
0.021954
-2.51841e-05
-0.182778
-9.39076e-06
-1.64239e-05
-9.30884e-05
-0.000185079
-3.72599e-06
0.0150404
-6.74501e-05
-2.05757e-05
-0.00316342
0.0663782
-0.494852
0.101108
-0.0170332
-0.000401584
3.02166e-06
-0.000181341
-0.0485709
-0.000949958
-0.0297675
-8.47304e-05
-0.00083514
0.00394428
-0.0545068
-5.95748e-06
0.261846
-0.0834377
1.37723e-05
-0.000403636
-9.9528e-06
-7.26439e-05
-0.00637123
0.00110982
-1.52597e-05
-1.75204e-05
-9.11916e-06
0.0170847
-1.50809e-06
0.00709675
-0.00131353
-4.84853e-07
1.57174e-05
-2.39541e-05
0.125368
-0.0382835
-1.4378e-05
0.00710522
-0.377195
-5.23311e-05
0.00709198
-7.40545e-06
7.40735e-06
-1.8958e-05
1.13826e-05
1.40548e-05
-5.34656e-05
-4.95661e-06
-0.000116932
-1.9117e-06
-0.00244666
-0.000176642
-0.390434
-0.00134742
-9.44226e-07
-0.313959
3.37295e-07
-8.41799e-05
-0.000756731
1.72818e-05
0.413502
7.05432e-06
-0.00271345
-2.89236
-3.68737e-06
-0.163099
-0.0564673
1.25511e-05
-3.09373e-05
-2.07812e-05
-0.147291
-7.02289e-06
-0.0540361
-0.0484669
2.08491e-05
-0.000848562
-0.00215207
0.00274091
-9.75897e-06
0.0835257
-5.7353e-06
-0.0245567
-0.182732
0.000558784
-0.0587172
-3.72873e-05
-0.0696355
0.0110471
-0.921567
-1.39701e-05
-0.000798381
-0.000156393
-0.00124972
-1.95141e-06
1.14242e-05
1.03764
-0.00074456
-0.0523931
-0.0172685
3.71074e-05
-0.0845129
-1.9276e-05
-0.0193341
2.95163e-06
-0.000627089
-0.282167
0.016959
-0.091781
-0.00126411
-0.000534081
-0.255247
1.53822e-05
3.63331e-05
6.91184e-06
-2.49636e-05
2.73539e-05
-0.000472061
6.93209e-07
1.13261
-0.000510482
-1.10323e-06
1.53286e-05
-2.41513e-05
6.78706e-06
0.928312
-9.02264e-06
-2.53397
5.92986e-05
1.07757
-6.85523e-05
1.95551e-05
-4.40001e-06
-0.00233116
-6.65115e-05
-0.718588
0.972467
0.00976293
-0.000286809
-9.42382e-05
-3.19721e-05
1.3837e-05
1.29292e-05
0.0162101
1.39129e-05
-3.2116e-05
0.0181288
8.93927e-06
-8.56329e-05
-0.0753932
-0.340967
-0.400662
7.82944e-05
0.0286729
0.0147328
-1.07049e-05
-2.40489e-06
0.000420388
0.417369
-0.324146
-0.0235578
-0.113956
2.95612e-05
-1.10978e-05
-0.0119372
-0.000374003
-1.75688e-05
0.000283008
-1.09201e-05
-0.000192877
-0.106772
0.0197485
-0.00217597
-0.000597116
-1.79369e-05
0.000354672
-0.0112382
-1.29307e-05
1.30783e-05
1.01304e-05
-0.0267421
-1.15143e-05
-0.000402677
0.0412336
-0.151066
-4.80284e-06
2.55311e-05
-5.86375e-06
9.10052e-06
-8.60461e-06
0.000380204
0.00470231
-0.000100995
-0.106862
0.00236418
-0.421191
4.82451e-05
3.74938e-05
2.81585e-05
2.85265e-05
-1.57064e-05
2.1319e-05
1.40887e-05
0.0030329
-0.0387344
-6.13456e-06
-7.85096e-06
1.1403e-05
5.1231e-05
0.842057
0.000246551
-0.261942
-0.043754
0.0136291
0.000117566
-5.37681e-05
-6.12953e-06
-2.50938e-05
5.3492e-05
0.758816
2.21977e-05
-0.000337861
-0.114743
0.00245503
0.0922886
0.3203
-0.0666157
-0.0467561
2.59001e-05
0.000363546
1.28318
0.266826
2.40512e-05
-5.32768e-05
0.000141947
2.103e-05
2.93869e-05
1.28548
-1.67595e-05
-2.93689e-05
-0.27696
-0.000288841
-0.32721
-6.06467e-06
-6.25752e-06
0.000326152
-0.231736
0.00519446
-0.0125753
-0.000108907
1.2497
-0.0018506
1.34846e-05
0.00136229
4.72132e-06
-0.000243579
-4.29801e-06
-1.67325e-05
-0.498469
0.260837
0.188833
0.0597168
-0.0360397
0.0982429
-0.287853
-1.05427e-05
3.28901e-05
-0.286096
2.18053e-06
-6.18459e-06
-0.000214788
1.56037e-05
0.802463
-7.61997e-06
-0.00341932
-0.0332837
-1.58808e-05
-0.106635
5.8509e-05
1.95284e-05
-9.41783e-05
6.98849e-05
-7.42125e-05
-3.64491e-05
5.13761e-05
0.407959
5.94608e-05
3.82681e-06
8.0346e-05
-0.000789788
-0.00919607
9.22444e-07
6.85884e-05
-0.000342256
0.53557
-7.83545e-06
1.30639e-05
1.95537e-05
-1.5245e-05
-1.28091e-06
-3.5608e-05
0.269107
0.0218446
3.47994e-05
-0.000128561
4.73927e-06
0.000278712
-0.00392982
5.74116e-05
-0.00289359
0.0623796
-6.39923e-06
0.000323311
0.302815
1.03189
-0.0010498
-1.44352e-06
2.13785e-05
0.00539868
0.00102381
-0.13826
-0.000582614
0.121143
0.000935467
0.0306669
0.0140204
-0.0541395
-0.0137471
0.0739413
0.109401
0.450217
-8.92819e-05
0.104595
-9.84604e-05
0.0144371
-0.000158614
-7.18053e-05
2.80546e-05
0.216837
-0.0574602
-2.33955e-05
5.02431e-05
-0.00252806
0.0913934
0.066033
9.6785e-06
1.58684e-05
-7.13581e-06
-0.000253833
5.77464e-05
-0.00104127
0.0549882
0.025817
-0.00027999
1.02943e-05
-0.170809
-1.1689e-05
7.9781e-06
0.0455026
2.92813e-07
-0.000302683
1.89965e-05
0.291386
-0.00467391
0.072217
-7.64395e-05
0.0038901
0.0245078
-0.00082069
-0.0182268
-0.207615
0.0215711
-0.0172607
-1.21946e-05
1.11473e-05
0.0136234
7.92235e-06
5.42257e-05
-1.16963e-05
4.54316e-06
0.000283224
-0.000820947
1.92313e-05
0.0118694
1.79972e-05
0.0758704
6.38319e-05
-0.0400341
0.129839
-0.000724225
0.123271
-0.262015
0.000355699
0.00642604
-0.519545
-1.592e-05
-9.58168e-06
0.00012401
0.000241359
-0.0634482
2.86152e-05
-8.45531e-05
-0.0927375
-2.07745e-05
-1.36569e-05
6.34887e-05
-2.69782e-06
0.103739
2.35599e-07
-0.00152793
-1.29671e-05
-0.39398
-2.04812e-05
-0.442225
-0.0163261
0.428334
-0.197029
2.55052e-06
-1.71755e-06
2.73358e-05
2.02762e-05
0.714092
0.00184136
0.0165867
-0.0129443
1.78997e-05
8.17532e-05
-0.000189644
1.07017e-05
-0.0224928
-5.83748e-06
-0.0011761
0.76374
-0.00927718
-0.143736
-2.52376e-05
5.24667e-05
-0.195904
0.000212839
0.0141521
0.233388
0.269703
-0.289101
1.62471e-05
1.03866e-05
-1.00337e-05
5.70206e-05
-0.119617
1.35613e-05
-0.0096204
4.36881e-06
5.46645e-05
0.0777999
1.12269e-05
0.033268
-7.77871e-05
5.67066e-05
3.24736e-05
0.0449924
5.40205e-06
2.93876e-05
-0.512014
2.0228e-05
2.84671e-05
-0.00154144
0.350396
-0.000411648
-0.000120639
-6.22257e-06
0.161047
-0.027722
0.0202668
3.65835e-05
-3.87214e-06
0.000908721
4.90972e-05
-0.185558
0.011659
-0.0294454
-0.0540702
-1.15961e-06
0.00688313
-1.1233e-05
0.0285683
2.25815e-05
-0.13559
-0.0452765
1.64422e-05
0.409799
-3.12172e-06
-0.250082
-0.00138931
-3.35734e-06
-0.0408549
9.08326e-06
-6.3188e-07
-3.04181e-06
8.89926e-07
-0.000787385
-0.134796
2.78469e-05
-2.3755e-05
-0.0121951
-4.15531e-06
6.60719e-05
-0.000101008
4.10968e-05
1.87559e-05
-0.508706
9.8744e-05
9.703e-06
-0.000121194
-0.000112842
1.0934e-05
-0.139512
0.0158257
1.37589e-05
-1.65789e-05
-8.48253e-05
-0.0415954
-2.64969e-05
2.76934e-05
-9.41742e-05
-0.00094437
1.4009e-05
-5.21265e-05
-0.0505354
3.64278e-05
-0.0552195
-2.11249e-05
-4.73011e-06
-2.65857e-06
1.65779e-05
2.0494e-06
-4.97032e-06
-0.397812
0.0182893
-4.69067e-06
-0.000118911
-0.000123626
0.198223
0.000416473
-0.000470391
-4.64224e-07
-5.91435e-05
0.000684337
0.000114239
0.0185077
-0.00112917
3.26893e-06
4.0817e-05
-0.520219
-8.44975e-05
-0.492651
1.03007
-2.04541e-05
-0.106251
-0.111648
-0.052192
-0.425652
-0.0718326
0.000513146
8.90731e-06
-0.323453
3.64979e-05
0.00016512
-0.000143707
5.59651e-06
1.75828e-05
0.0732159
1.2047e-05
-0.965873
0.518506
-6.51317e-05
1.7101e-05
-0.111793
1.70048e-05
-0.374603
-2.65099e-06
-0.26346
0.00301737
0.0130558
1.72264e-05
-1.25886e-06
-8.89445e-05
-0.106246
-0.153773
-0.0109631
-0.275156
0.000360708
-7.51391e-06
-0.314813
0.285177
1.3987e-05
4.584e-07
3.06142e-06
-1.21218e-05
0.0979044
-0.00272478
-3.46687e-06
-0.0464758
-8.24337e-06
4.78792e-06
-5.2311e-06
1.4084e-05
-5.01957e-05
-0.139022
3.53211e-06
-0.105299
-2.67231e-06
-4.75574e-05
4.47813e-05
6.63832e-05
1.72078e-05
-8.15256e-06
-0.0172141
2.44229e-06
0.00293089
0.176359
-0.249459
1.98831e-05
-0.270244
-0.000893843
-6.97693e-06
-3.74733e-06
-2.53343e-05
-4.52313e-06
0.387205
0.000161209
-1.38543e-05
-0.000136531
0.024624
4.60492e-05
-0.0192595
8.19511e-05
-2.23019e-05
4.01417e-05
-0.125061
0.0153035
1.061
-0.494485
2.11172e-05
-0.270574
-0.098576
-1.69763e-05
3.55991e-06
1.01743e-06
-0.00110211
-0.00130654
0.555094
-0.485295
-0.00132834
-3.27178e-06
-0.000758693
4.11788e-05
-0.0864299
3.68708e-05
-0.0123675
-0.000102605
0.109549
-0.000718453
-6.52971e-05
1.65202e-05
-0.0370843
0.000359344
-0.673175
-3.21038e-05
-1.08418e-05
4.48053e-06
1.52202e-05
-0.056796
-1.71102e-05
6.12389e-05
0.000242582
1.36903e-05
-0.0910904
-0.00517235
-0.00690112
9.77925e-06
4.05358e-05
0.312847
0.0234609
-1.68955e-05
-2.52689e-05
1.18447
-5.04204e-05
-9.70379e-06
0.0575672
4.20546e-05
0.00208944
-0.0516508
-0.033711
-0.00118013
-8.37535e-06
1.4556e-05
-0.00101669
-2.24333e-05
-1.2686e-05
-0.236582
1.1848
-0.000123749
-1.24523e-05
1.89141e-05
-0.000117178
-0.435224
-1.2542e-05
-0.000122111
-2.82587e-05
-6.45402e-06
-3.29224e-06
-0.0253207
-5.50775e-06
-2.40172e-05
-6.96752e-06
-4.53318e-05
4.95359e-06
8.7694e-06
-0.0250519
0.0023546
-8.21439e-07
-4.29225e-06
1.577e-05
-1.42978e-05
0.15362
4.65397e-06
-0.00769803
0.139154
-3.11072e-05
1.08509e-05
-0.0179183
-6.44751e-06
1.23698e-05
-1.59695e-06
-0.0690532
-7.73612e-06
-0.00145298
-6.02105e-06
8.02194e-06
3.02037e-06
-0.0114563
-2.40826e-05
-1.27797e-05
-0.00145081
0.122659
-0.000455456
-6.20282e-06
-0.0820465
-2.33997e-06
0.119465
1.75724e-05
8.09218e-06
1.70936e-05
-7.89165e-06
5.06114e-06
0.00488623
0.016858
0.0172529
-0.00080907
-0.000163654
0.261058
-9.94552e-06
-0.107629
-0.0628832
0.00010234
-0.0372305
0.000271582
-0.105061
-6.04386e-06
-0.354243
-2.86024e-05
1.68733e-05
0.000241467
-0.517152
-0.0918675
-0.000366639
-0.067603
-0.13339
0.0111328
-5.61776e-05
-0.000276502
-0.0023085
-0.00181877
0.29266
-8.55181e-07
-6.9918e-06
-0.00121034
-0.0476402
1.01189e-05
-0.182515
-8.04018e-05
0.0263704
-4.64995e-06
-6.90674e-06
-0.000530476
-0.000547774
-0.256796
-0.060314
0.231197
7.1074e-07
-2.39759e-05
0.258356
0.172887
0.0654444
3.11482e-05
-0.000132588
-1.75955e-06
6.19619e-06
-1.98129e-05
0.0887624
0.0695395
0.0218752
0.0975657
0.363958
-0.152357
-2.06839e-05
-2.95114e-06
4.19286e-05
-1.17914e-05
0.000250468
-3.82135e-06
-1.35591e-05
-1.61495e-05
1.57024e-06
-8.70388e-05
0.339351
8.18455e-06
-3.906e-06
-2.72649e-06
0.0048985
0.000207616