/*--------------------------------*- C++ -*----------------------------------*\
| =========                 |                                                 |
| \\      /  F ield         | OpenFOAM: The Open Source CFD Toolbox           |
|  \\    /   O peration     | Version:  v2012                                 |
|   \\  /    A nd           | Website:  www.openfoam.com                      |
|    \\/     M anipulation  |                                                 |
\*---------------------------------------------------------------------------*/
FoamFile
{
    version     2.0;
    format      ascii;
    class       surfaceScalarField;
    location    "350";
    object      meshPhi;
}
// * * * * * * * * * * * * * * * * * * * * * * * * * * * * * * * * * * * * * //

dimensions      [0 3 -1 0 0 0 0];
oriented        oriented;


internalField   nonuniform List<scalar> 
14885
(
0.000208977
0.000596807
-0.000814167
0.00499632
-0.00267854
-0.00232182
0.000401011
-0.00381843
0.00339799
0.00168918
-0.00243563
0.00058739
-7.74098e-05
0.000653332
-0.000729006
-0.00463043
0.00100308
0.00362171
-0.000650508
-0.00251615
0.00316147
0.00133283
-0.0015743
0.000240217
0.000882591
-0.000605064
-0.000311481
0.00412528
-0.00162074
-0.00251127
-0.000279441
-0.00120144
0.00146967
0.00242958
0.0025638
0.000475678
-0.00305554
0.0025761
-0.000800738
0.00195259
-0.00119296
0.00390175
-0.00121474
-0.00272736
-0.0019688
0.00112599
0.00357526
-0.0033036
-0.000278442
0.00113491
-0.00142514
0.00337122
-0.000710595
-0.00266947
0.00501579
-0.00134715
-0.00369664
0.00296997
-0.00249794
-0.000618645
0.000819017
0.00216952
-0.000637425
-0.000240274
0.00238744
-0.00214724
-0.00357581
0.00078045
0.00268811
3.17073e-05
-7.94096e-06
-3.70583e-05
0.00357378
0.000542229
0.000498018
-0.000534286
4.4588e-06
-0.000641955
-0.00399485
0.000635375
0.00143349
-0.00206896
-0.000483621
0.000197987
0.00016536
0.00269723
-0.000434064
-0.00226395
0.000808091
-0.000231868
-0.00060867
0.000257045
0.000520592
0.0015417
-0.000210899
0.00154046
-0.00137913
-0.000162856
0.000601582
-0.000137749
-0.000698221
-0.00080497
8.6909e-05
0.000673321
-0.000373319
-0.000221252
-5.77786e-05
5.97345e-05
-2.33697e-06
-0.00209618
0.00273149
0.000617175
-0.00254617
0.00305182
-0.000508391
-0.00511886
0.00458462
0.000524741
-0.00280306
0.000410924
0.00227527
-0.00106531
-0.00259321
-0.00024782
-1.63242e-05
0.000247196
0.00341999
0.000430297
0.000355541
-0.00295099
0.00259086
0.00309203
-0.00325101
0.000155974
-0.0027979
0.000247942
-4.89377e-05
0.00130328
-0.0014127
0.00292961
0.000361566
0.00299987
-0.00400563
0.0037264
0.000274198
-0.00282066
0.00261455
0.000203667
0.000426958
0.00253835
0.00188041
-0.000611176
-0.00127957
0.00388437
-0.00342721
-0.000497057
-2.3504e-05
2.11804e-05
9.18347e-07
0.00333199
-0.00298168
0.00401014
-0.00372609
-0.000289879
0.00272301
0.000326352
0.00122736
-0.00142943
0.00019958
0.00288653
-0.000414519
-0.00249544
0.004538
-0.00130429
-0.0032982
0.00476385
-0.0016301
-0.00315828
0.000720244
-0.000905481
0.000178537
6.97608e-05
0.000145833
-0.00022888
0.000847769
-0.00013422
0.0027346
-0.00283844
0.000101181
-0.000321901
-0.00357264
0.0038661
-0.000192364
-0.00103034
0.00118267
0.000698453
0.00314161
0.00350761
0.000953841
-6.59265e-05
-0.00129225
0.00282835
-0.00155665
-0.000271522
6.11872e-06
0.00139821
-0.00271106
0.002301
-0.00301967
-0.00455683
-0.000571582
-0.00233664
0.000101747
-0.00034962
7.35952e-05
0.00123564
-0.000171675
-0.0012121
0.0048738
-0.00192674
-0.00295874
-0.00321472
0.00333205
-0.000122918
0.003503
0.00123581
0.00374678
-0.00336511
-0.00276413
0.00281573
-0.000111338
-0.000985006
-0.00223722
0.00319516
0.00365174
-0.00247655
-0.00117985
0.00201463
-0.00326468
0.00276692
-4.68714e-05
0.000361139
-0.00358148
0.00267758
-0.000304097
-0.00239589
0.00325542
-0.00375274
0.000431422
0.00183254
-0.00179213
0.00336118
0.00261501
-0.00306283
0.000444706
-0.00364009
0.000406629
0.00318791
0.00267958
0.000966946
0.00359556
-0.00389374
0.000291686
-0.00121907
-0.00304216
0.00422102
-0.00207854
0.00282648
0.00332443
-0.000350022
-0.00298289
-0.00377028
0.00372913
2.09225e-07
0.000927028
-0.00248873
0.00156015
0.00427121
-0.000839356
0.0023922
-0.00304749
0.000345279
-0.00415729
0.00382688
-0.00461005
0.000726917
-0.000845226
0.00323256
0.00397211
-0.000385239
0.00144923
-0.00022553
0.000383042
0.00247799
2.79463e-05
0.000256286
-0.000299064
-0.00127855
0.00332628
-0.00206785
0.000346011
-7.97525e-05
-0.000400189
0.000473552
0.00139121
-3.88654e-05
0.000278265
-0.000253789
-2.52877e-05
-2.36167e-07
0.00465358
-0.00244823
-0.00220951
0.00328814
0.00135953
-0.000689305
-0.00222659
0.00148854
-0.00249457
-0.00268967
0.00289972
-0.000273504
-0.00307727
0.000338653
-0.000273749
-0.00373658
0.00233256
-0.00217133
-0.000161908
-0.00345939
0.00215911
-0.000934613
0.000943194
-4.88053e-05
0.00397273
-0.00286818
-0.00116677
-0.000323172
0.0028481
-0.00257578
-0.00262989
0.00433559
-0.0017762
0.00196288
-0.00281224
0.000202634
-0.00280262
0.0025966
0.00451608
-0.00106744
-0.00347305
0.00155345
0.0018619
0.00404799
-0.00362313
-0.000442799
0.00326011
-0.000650789
0.000342186
-0.00285387
0.00250916
0.000248646
-2.98294e-05
-0.000258082
0.00304105
-0.00211636
1.7947e-05
0.000443191
-0.00253016
0.00384038
-0.00132229
-0.000150691
-0.000693591
0.00208936
0.00277325
0.000271028
-0.000218608
0.0041172
-0.000134907
-0.00401211
-0.000785176
0.00292556
-0.00214459
0.00309111
0.00111833
0.000195958
-0.000204431
-3.47075e-05
-0.00388855
0.00327222
0.000601653
0.00268697
-0.00293548
0.000246634
0.000342519
0.00231063
0.000857436
-0.00340174
0.00216017
0.000171277
-0.00224295
-0.000580401
-0.00276823
0.00239725
4.4265e-06
1.79683e-05
-0.000679052
0.000276022
0.00023712
-5.3802e-05
-2.84242e-06
0.00279201
-0.00259277
7.55223e-05
0.0003972
-0.00368624
0.00326763
0.00312082
-0.00391182
0.0011541
-0.00139316
-0.00281885
0.000739533
0.000134576
0.00140596
-0.000679905
0.000283366
0.000374307
0.00260252
-0.00033354
-0.00229135
-0.00136333
0.00279673
-0.00349854
-0.000772531
0.00426348
-0.000451867
-0.0028366
0.00318884
-0.00425353
0.000745978
-0.00097189
-0.00157915
0.0024722
-0.000965537
0.000767518
0.00108576
0.00280858
-0.000130533
0.000264364
0.00357847
0.000449414
0.00407401
-0.00165446
-0.00242699
-0.00298296
2.15704e-05
-0.000246357
0.000210047
7.44767e-05
-2.26487e-05
-5.37391e-05
0.00188353
0.000964956
-0.00285149
0.00320582
-0.00355354
7.56554e-06
-2.00822e-05
1.12753e-05
0.00256755
-0.000103945
-0.00246598
0.000406595
-0.000409541
-8.27234e-05
0.000759008
-0.00263188
0.00305403
-0.000962933
-1.08143e-05
0.000893897
0.00317059
-0.00382621
0.00402613
-0.000204189
0.00340261
-0.00141761
0.00128177
-0.00224704
0.00096529
0.00258007
-0.00031737
-0.00228395
-0.00191382
0.00178426
0.000128763
0.00111272
-4.26079e-06
0.00198908
-0.00231298
0.000323514
-0.00285762
0.00279098
6.35677e-05
-0.0040626
0.000706661
0.00334351
-0.000167231
0.000154908
-9.57116e-06
-0.00261238
-0.000454329
0.000231196
0.00256559
-0.000172798
-0.00202937
0.00219994
0.00290066
-0.000217245
0.00374424
2.61033e-05
-0.00332254
0.000641881
-0.00012215
-0.000209379
2.0843e-05
-0.00368782
-0.0003887
-0.00411733
0.00383995
0.000261466
0.00032071
-0.000950013
0.000389694
-0.000659489
-0.000182608
0.000834883
-1.06174e-05
0.00013014
-0.000141839
-0.000641573
0.00407252
-0.00343969
0.000832044
-3.08531e-05
-0.000979508
-0.000183295
-0.00198503
-0.0001527
0.00213645
0.000296072
0.00228363
-0.00213651
0.000149855
0.000183179
-0.00124264
-0.00129841
-9.3128e-05
-0.00035843
-0.00356321
0.00388253
0.00129941
0.00319215
0.000527069
-0.00397559
0.00343793
0.00187766
-0.00312704
-0.000168191
-0.000840402
-0.00192237
-0.00120112
0.00295251
-0.00107202
3.37509e-05
0.000203212
0.00149981
-0.00255089
-0.00143949
0.00494004
-0.00171614
-0.00325325
0.0019451
-0.000114024
0.0033851
0.000443787
0.00217604
0.000209885
-0.000354048
0.00379243
-0.00344989
0.00272462
-0.000338859
-0.00238817
-2.70811e-05
6.70631e-07
-4.71656e-05
-8.4806e-06
0.00340962
0.000218506
-0.00363282
0.000604549
-0.000834828
0.000390019
0.00232954
0.00361475
-0.000244586
-0.00216892
-0.00172977
0.000544042
-1.5835e-05
-0.0003245
0.00364013
-0.000954591
-4.3163e-05
0.00460153
-0.00221244
-0.00240201
0.00107684
0.00214556
-0.0032269
0.00364699
0.000431701
0.00135533
0.00355409
4.1759e-05
0.000291347
0.0044154
-0.00356165
-0.000889988
-0.00106548
-0.000727298
3.98402e-05
-0.00124288
0.0010385
0.000563214
-0.00282472
-6.20029e-05
-0.00084127
0.000860202
-0.00131458
0.00111932
0.000267493
-0.000301198
-0.000158031
-0.00327475
0.00434549
-0.00232409
0.00286235
0.00195554
0.002633
1.1159e-05
6.57337e-05
-0.000188199
0.000608369
-0.00257529
-0.000571994
0.00269836
-0.00220985
0.00288376
0.000204703
-0.00213358
0.0020742
1.16726e-05
-0.00269673
-0.000143698
0.000963488
0.00341301
0.00176349
-0.000474414
-0.0013047
0.00373526
-0.00122241
-0.00252937
0.00258459
-0.000313751
-0.00237191
-0.000163582
6.90561e-05
-0.000390603
-0.000335548
-0.000222284
0.000309496
-0.00291528
0.00260029
0.00208334
-0.000801857
0.000473504
0.00324167
-0.000518077
0.000133902
0.000124936
0.00193595
5.35522e-05
-0.0019906
0.00128968
0.00229121
-0.00360104
0.000399899
3.40504e-05
-0.000451402
9.24958e-05
-0.000729161
0.000630045
9.2457e-06
0.000148829
0.00305563
-0.00265674
-0.000404317
-0.000160284
0.00301141
-0.00287238
0.00013491
-0.000495062
0.000113098
0.00197543
-0.00284519
0.000869798
-0.00276074
0.000940351
-0.00183323
0.000859426
-0.00390965
-0.000222019
0.00412116
0.00507953
-0.00380863
0.00205686
-0.00270912
0.000125516
-0.000158226
-0.000368089
-0.00342312
1.08316e-05
-4.11301e-06
-0.00364576
0.00328074
-0.00174804
0.00301963
0.0016035
0.002402
0.00220422
-0.00242686
0.000172191
1.0096e-06
-4.88086e-05
-0.00374815
-0.000169731
0.00280757
-0.000830948
0.000386793
1.91661e-05
-0.0015135
-0.00222023
0.00366561
-0.00052741
0.00370478
-0.00072503
0.00163569
0.00276279
-0.00294416
0.00069561
-0.000609694
2.28879e-05
0.000231831
4.7725e-05
2.67922e-05
-0.00242269
0.000203169
0.00221661
-0.000245183
0.000258775
-5.23632e-05
-2.76142e-05
5.16951e-05
-0.00267497
-2.41358e-05
0.000460061
0.00128719
0.00104687
-0.000126514
-0.000925153
0.0001124
-0.000100505
-1.24966e-05
-0.000354154
0.000445459
-0.00226659
0.000240068
0.00200308
0.00357224
-0.0025548
0.00333388
0.000401932
0.00264778
-0.00252803
0.00270857
-0.00356064
0.00369245
-0.000197766
-0.000318278
0.000907105
-0.00016558
0.000211406
-0.00010036
0.00214474
-0.00231985
-0.000116648
-0.000619058
0.00331518
-0.00218829
-0.00112979
0.000886958
0.000154293
-0.000930458
-5.80119e-05
-0.000457008
0.00357321
0.00272469
-0.00238493
-0.000389999
0.00308479
-0.00269974
-2.63642e-05
-2.92542e-06
-0.00247898
0.00026792
0.00218521
0.000348915
-0.000301497
-0.000215447
-0.000992666
0.000780303
-0.00198108
0.00206729
-0.000138491
0.000421788
-0.000996497
0.000420634
0.00041051
-0.00355503
0.00311367
0.000290798
0.00294182
-0.00325899
0.00248832
-0.00281524
0.00333572
-0.0029542
-0.000607612
0.000745402
-0.000153507
1.59139e-05
-0.00374789
-0.000275736
-0.00201414
-0.00397772
0.00358008
-5.20279e-05
-0.000263392
-0.00199029
0.00225271
-6.26366e-05
1.51457e-05
1.61176e-05
0.00391499
-0.000236703
-0.000796744
0.000443597
0.0035131
-0.00313646
0.00260915
-0.000338557
-0.00227612
0.00272811
-0.00318891
-0.000127651
-0.000665554
0.00091018
-0.000387515
-0.000337158
0.00330343
-0.00300068
0.00296534
0.00394073
-0.00349685
-0.00044827
-8.8967e-07
9.8379e-05
7.64478e-05
2.52487e-05
2.05966e-06
-2.05966e-06
0.00237357
0.000952725
-0.00236654
0.0022326
9.28518e-05
-0.00176589
0.0012759
-0.000469468
0.00383314
-0.00337491
-0.00032115
0.00368537
-0.00336916
0.00325833
-0.000889176
-0.0038398
0.00360075
0.000175288
0.0033014
-0.00378183
0.00396837
-0.00345213
0.00289954
0.000602391
0.00306753
-0.00115455
-0.00191469
-0.000297892
-0.000408686
0.000235983
2.84134e-05
0.00306179
-0.00262168
-0.000482748
0.000387998
-5.95916e-06
0.00457581
-0.00365342
-0.00222929
0.00222805
-4.32703e-07
0.00327377
-0.00300957
-0.000243917
0.00220723
-0.00198568
-0.000517202
0.0032408
0.00433451
-0.00219383
-0.00266301
0.000153419
0.0023716
0.000235859
0.00130338
-0.000293931
-0.000409565
0.00159065
-0.00202533
0.00130772
-0.000150529
0.00198452
-0.002118
0.000132586
-0.000383386
0.000359656
1.83836e-05
0.00373643
-0.000511625
-0.00173523
0.00224546
0.000138029
-0.000761263
0.00018883
0.00253289
0.000739407
0.000103992
-0.000857803
0.00040027
0.00337989
0.000947448
0.00358492
0.00435951
-0.00208626
-0.00227931
-0.00160898
0.00311243
-0.00151241
0.00245736
-0.00279922
0.000215448
0.00302902
0.00137816
-0.000184539
-0.00119763
0.00403861
-0.000496629
-0.00357689
0.000852304
-0.00356003
0.00269543
0.00366244
1.18498e-05
0.000283232
-0.000313954
0.00146441
0.00254325
0.000206213
-0.000222381
-3.11193e-05
0.00235815
-0.00287896
-0.00019777
-0.00083443
-0.00019978
0.000207214
-6.5517e-05
0.00272301
0.00105116
-0.00380761
0.00400261
-0.000311573
-0.00370368
0.0018911
0.00246102
0.000889053
-0.00098799
-0.00302672
-0.000853727
0.00354676
-0.000151196
-0.000136528
0.00160831
-0.00322675
-0.000539662
-0.000837343
-8.22687e-05
0.000807356
0.00033412
0.00315648
0.00270501
0.00014371
-0.00285185
-0.00130631
-4.35254e-05
-3.03461e-05
4.70791e-05
0.00235043
0.000261599
-0.000424975
0.000388552
4.3325e-06
-0.000851658
0.00358772
0.000259313
0.00345134
-0.00372892
-0.000109258
7.79435e-05
6.04586e-05
-2.02101e-06
-5.80665e-05
0.000296735
0.0010752
0.000127193
0.00266108
-0.00119587
-3.12779e-05
0.000218359
-0.000200617
0.00166565
-0.00122145
0.00295719
-0.00381272
0.000848051
-0.000914284
0.00386325
0.00223309
0.000832971
0.00102769
0.00102415
-0.00204256
1.06356e-05
0.00284553
-0.00238622
0.000155098
-2.53714e-05
4.60009e-06
-5.15448e-05
4.64117e-05
-0.000207494
-0.00027756
0.00298224
-0.00162543
-0.00147026
-0.00136298
0.00133517
2.212e-06
-6.99436e-05
-0.00131878
0.000419587
0.00260473
-0.000108437
-0.000741805
0.00335949
-0.0033104
0.00190258
-0.00277624
0.00233484
-0.0026909
0.00284335
-0.00271998
-0.000637229
0.000557333
6.20583e-05
-0.00215879
1.68214e-05
0.00214066
0.0029236
-0.00022159
0.00322569
-0.000525008
-0.00270433
8.14347e-05
-0.000291496
0.00277429
-0.00248318
2.98932e-05
-0.000107705
0.00125352
0.00307598
-0.000350494
0.00286971
-0.00259473
0.00243415
0.000125843
0.00331684
-0.00313128
0.00281671
0.000437368
0.00021659
-2.20263e-06
0.00287307
-0.00320526
2.79593e-05
-2.38704e-05
0.00042288
0.00122614
0.000537777
-0.00301774
0.00247629
3.66019e-05
-0.000106943
0.000754578
-0.000802062
-4.87309e-05
0.00274894
0.00299637
0.00128251
-0.00428519
0.000744269
-0.000847571
-0.00265667
0.00241978
0.000212767
0.00388392
-0.000347573
-0.00355416
-0.00256468
0.00275049
0.00053818
0.00019294
-0.000246909
-0.00245845
-0.00038901
0.00252156
0.000359175
-0.00288496
-0.00356504
0.00355294
-4.23549e-05
-0.000210309
0.000328535
0.00276111
-0.00145845
0.00444811
-0.00233359
-0.00133849
0.00366607
0.000210143
-0.00323111
0.00300979
-0.000286063
-0.000169648
0.000358022
-4.09158e-05
4.00297e-06
3.54924e-05
-0.00390518
0.000445822
0.00344735
-0.0037884
0.00334382
0.000432164
-0.00381898
0.00363601
0.00016643
0.000205164
-0.00223706
0.000672696
-0.000151303
-0.00199529
0.00146897
0.000379762
0.00358598
0.000112354
-0.00373855
4.48734e-05
-0.00250567
-0.000604908
-0.00183576
0.00234142
0.00368951
0.00118132
0.00168581
-0.00346441
0.00354437
-0.000137352
-0.000642216
0.000586764
3.67028e-05
-0.00267592
0.00351634
-0.00272752
0.00292787
0.00460429
-0.00275958
-0.00317969
0.00349127
0.0050669
-0.00265017
-0.00242642
0.00221839
-0.00255632
-0.00389198
0.000663897
0.00321501
0.000916415
0.00364158
-0.00376252
0.000270091
0.00343545
-3.63462e-05
-5.13096e-06
0.00310113
-0.000582963
-0.0036745
-0.000225147
-0.000232606
-0.000255644
0.00047185
0.000527886
0.00333681
-0.00199358
-0.00180674
-0.00357708
0.000270638
0.00323691
-0.00378685
0.000117057
0.00366045
0.000708184
0.00371666
-0.00031202
0.000374351
-0.00116253
-0.000412443
0.00116898
-0.000131537
-0.00105109
-0.000152686
0.00184613
-0.00255278
-0.00285992
0.00305562
-0.000198195
0.000823305
-0.000173815
0.00106055
-0.00106341
-3.56476e-05
0.00229006
0.00276652
-2.82604e-05
8.41372e-07
-0.000393183
-0.00341574
0.00380279
-0.00342113
0.001082
-0.000848484
0.000310344
0.0005087
-0.00210241
0.00201231
6.67779e-05
0.00164571
0.00166729
-0.00425518
0.000547381
0.00369393
0.00265253
-0.000127315
-0.000127582
0.000202043
0.000226336
-0.000474879
-0.000205007
-1.7461e-05
0.000206145
-0.000447091
-2.63061e-06
0.000440505
-0.00153833
0.000268115
0.0012546
0.00389205
-0.00412406
0.000454514
0.00366023
-0.00349078
0.00359542
-0.000176612
-1.58427e-05
6.24339e-06
7.53878e-06
0.00320093
-0.00296505
-0.000239312
0.00282794
-0.00318621
-0.00113149
-4.1876e-05
-4.71141e-05
-0.00100614
0.000816351
8.27781e-05
0.000334784
0.00286255
0.00243021
0.000176488
0.000160773
0.00099339
-0.00198381
0.00218652
0.00305323
-0.00143414
-0.00170458
0.000378739
-0.0031587
0.00277632
-0.000747667
0.000295508
0.000436273
-0.000335132
-0.000540392
0.00256626
-0.00441585
-0.00315006
0.00086971
-0.0037503
0.00386811
-0.00017234
-0.000228632
0.000322928
-0.000177116
-0.000182881
-0.00327274
-0.00014092
0.00338063
0.00329421
-0.00362438
0.000322611
-0.00245251
0.00022476
0.00212356
0.00112251
-0.000116392
-0.0010218
0.000281579
-0.00027205
-0.00336912
-0.000533835
-0.00429642
-0.000373259
0.00065435
0.000292129
0.0021892
8.80062e-05
0.00249192
0.000257319
-0.000262954
-0.00358066
0.00325475
-0.000499582
-0.000614174
8.22471e-05
0.000728512
-0.000727872
0.000770636
-0.000770709
0.000312377
0.000269345
3.73122e-05
0.000985977
-0.0019607
0.00169651
4.00451e-05
0.000224665
-0.00240268
5.56709e-05
0.00229524
-0.00214457
-0.000256685
-0.0033668
5.55405e-07
5.65732e-07
-0.000642228
-0.000197801
0.000267324
-0.000136474
0.00393141
-0.00366698
-0.000277152
-0.000677517
-0.00210473
-0.00208273
0.00294758
-0.000932661
0.000209676
-0.00027881
-0.00298615
0.000837734
-0.000218932
0.00141597
-0.00305981
0.000185919
0.000920435
-0.000421229
-0.000342146
-0.00157803
0.00413567
0.00044247
0.000714556
0.00227165
-0.00299136
0.00435254
-0.0034473
0.000348973
0.000670086
-0.00085479
-0.000382121
0.00395987
-0.0035882
-0.000672502
-0.000248538
-0.00220879
0.00365465
-0.00145945
0.00335131
-0.00264153
0.00070486
-0.00210985
0.0024952
0.00141437
0.0015526
2.46093e-05
-0.00364818
0.00150483
-0.00260306
0.00109768
0.00351257
0.000399871
-0.00199665
0.00221301
0.000893024
-0.00214502
0.00125143
-0.0032884
0.0031178
0.000132016
-0.0025573
0.00238432
0.000167629
0.000141375
-0.00239634
0.00218115
-0.00395204
0.00365534
0.000239588
-5.52735e-05
-0.000599076
-5.71766e-05
0.00076
-0.000676889
0.00254735
-0.00104238
0.00332893
-0.00287313
-4.8747e-05
2.7951e-05
0.00231669
-9.00001e-05
0.00315119
-0.00357969
0.000354107
0.00360319
-0.0039957
1.36779e-05
4.37934e-05
0.000187412
0.00315144
-8.32534e-05
-0.000499846
0.000137983
0.00234513
-0.00280016
0.000279718
0.00247398
0.00187842
0.00173259
-0.000349138
0.00363584
-1.96452e-05
-0.00349945
-9.98399e-06
-7.84389e-06
-7.30833e-05
0.000171841
0.00015149
-0.00268568
0.00246725
-0.00187009
0.000131671
0.00164621
-0.00324443
0.00334777
-0.000116776
-0.000191975
-0.00360348
0.00394857
0.000179787
0.00348618
-0.000121898
0.000355939
0.00240274
-0.00259725
0.00250105
2.7544e-05
-0.000129904
-0.00352154
-7.81123e-05
-0.00287168
0.000137983
-2.83318e-05
0.00198996
-0.00209488
4.39481e-05
0.000377725
-0.00249314
-0.00131487
-0.00193859
-7.51401e-05
7.06925e-06
6.66201e-05
0.000595786
-0.00419823
2.27404e-05
0.000119602
-0.000343674
0.00208648
-0.00109333
-0.000994379
-0.00248437
-0.00324821
-0.000338896
0.00165676
-0.00359373
6.11036e-07
-4.53451e-05
4.46184e-05
-0.00170124
0.00330006
-0.00211823
0.00249041
0.00235227
-0.00228707
-0.000169387
0.000248142
-0.000142969
-0.000302923
-0.00254117
0.00139281
-0.000288171
-0.00110952
0.000143293
0.00213303
-0.00297
0.000394793
0.0014248
0.0015257
-0.0029961
-2.77066e-05
-2.45821e-06
-0.00205162
0.00229464
0.000253244
-0.00310641
0.00280961
0.000206657
-0.00219798
-0.00159872
-0.000649098
0.000379885
-0.00042834
3.1345e-05
-0.00220628
0.00250567
-0.000192159
0.000183848
-4.9252e-06
8.07957e-06
5.39662e-05
-0.000828987
0.000839741
-0.00293161
0.00307429
0.000194717
0.00239618
-0.00250243
-0.00287944
0.000420489
0.00240022
0.00214658
-0.000865571
-0.00131678
0.000230199
-0.000630286
-0.000734079
-0.00137996
0.000464372
0.00316165
-2.94216e-05
5.91392e-07
2.84027e-05
-0.00281081
0.00238871
0.00341134
-0.00324736
-0.000192672
-0.00226273
0.00322801
-0.000362929
0.00356085
-0.00120787
-0.00236299
-0.00274147
0.0023559
0.000260463
-0.00032444
0.000115622
-8.00656e-05
-3.57007e-05
-0.000404095
-9.2221e-05
0.000321493
8.3879e-05
-0.0022668
0.00198961
0.000178213
-0.00236537
3.20676e-05
0.00229159
-0.000366265
-2.28583e-05
0.000159934
7.4128e-06
0.000196332
-0.00218213
0.00261329
-0.00122763
0.000773336
0.00353493
-2.39866e-05
-0.000636279
0.00369114
0.0012908
0.000822106
0.00120416
0.00377621
-0.000232009
-0.00355073
-0.00258208
-0.00235348
-0.00154552
0.00115606
2.43862e-05
-1.35862e-05
-0.00136405
0.000302989
0.00254327
-0.00165084
-7.60468e-05
0.00340642
0.000365375
-0.00377984
0.00202955
0.000155597
-0.00195081
0.00332897
-0.00235067
0.00312503
0.000310421
0.000130707
-0.00129122
0.00329883
-0.00205103
-0.00253824
0.00389123
-0.00136605
-0.000351335
0.000383916
-3.82179e-05
0.00100344
-0.000826696
-0.000182235
-0.00306407
0.000111501
0.00294794
-2.83789e-05
-2.80549e-08
-0.000414051
1.51387e-05
0.000391475
0.000115736
-0.000670153
-0.00333338
0.00357504
-9.96949e-05
-7.84666e-05
0.00388492
-0.00305256
-0.00324545
0.00295274
0.000261954
0.000182323
0.00124287
-0.00346536
-0.00283164
0.000192563
0.00257183
0.00029272
0.00224903
-0.000471026
-0.00332892
0.000142898
-0.000326911
0.00124224
-0.000951332
3.95932e-06
0.000565791
-0.000578342
-4.29133e-05
-0.00239298
0.00238212
0.00292505
-0.00024692
-0.00271806
0.000491511
0.00346514
-1.62295e-05
-0.00245652
-0.0038998
0.000107138
0.00448045
-0.00252857
0.00406805
-0.000424231
-0.00365121
0.000271507
0.00261148
0.00376689
-0.000436466
-0.000198001
0.000210316
-1.47833e-05
1.60712e-05
-0.00328993
0.000562383
0.00320584
-0.00043966
-0.000451778
-0.00237266
4.17149e-05
0.00228333
0.00286195
0.000311071
-0.00320257
0.000925449
-0.00182605
0.000522709
-0.00115593
0.000443425
0.00352084
-0.000101721
-0.00343399
-0.00418866
0.00284453
-0.000471136
0.000264019
0.00357207
-0.000517827
-0.00309841
-1.94475e-05
1.78157e-05
0.000338857
1.97261e-05
-0.00246894
0.00208679
-0.0023872
0.000187223
-0.000244357
-7.17958e-05
-3.99505e-06
0.000909535
-0.000844027
-7.85043e-05
0.00425172
-0.000744035
-0.00353895
0.000670794
-0.0005812
-9.7858e-05
-1.94475e-05
-0.00317853
-0.00156236
0.000171943
0.00137709
0.00382132
-0.00042395
9.90683e-05
0.00182993
0.00252812
-2.74087e-05
-0.00255194
1.38199e-05
0.00106589
-0.00380313
6.95337e-05
-6.90332e-05
0.00371322
8.57905e-05
0.00057298
0.000439017
0.00352888
-0.0039756
0.000581385
0.000112294
0.002203
-0.00321277
0.00292082
0.000253048
0.00334639
0.00271358
0.000126019
0.00280557
0.0005246
-0.000528956
-2.91645e-05
-7.83022e-07
8.44557e-06
-0.000429805
-0.00329298
0.00318825
9.39135e-05
0.0003984
-0.00396426
0.0035547
0.00314386
-0.00220683
4.67679e-05
-0.000821334
0.00270241
-0.00189611
0.000209322
0.00102787
-0.00194436
0.00213876
-0.00226391
-0.000138877
0.00284864
-0.0013769
0.00350059
-0.00389996
0.00416287
-0.000531082
-0.00365208
0.000436751
0.000959738
-0.00350995
0.00195293
-0.00190044
0.000656568
-0.00246187
0.00347796
0.000582979
7.98368e-05
-1.22407e-06
-0.000457689
0.000320474
-0.00446738
0.00238128
0.00206519
1.59027e-05
-3.22254e-05
1.39605e-05
-0.00398529
-0.00227947
-0.000376344
0.00254931
-0.000334745
0.00376508
-0.0034356
-0.00366745
0.00242075
-2.76977e-05
-2.47318e-06
-0.00278377
-0.000184985
-0.00340015
0.00307564
0.000262072
-0.00336138
0.00283172
0.000523481
-0.000175359
0.000194199
0.0008037
-1.89079e-05
-1.35541e-05
2.60951e-05
0.000284786
-0.00348612
-0.00334983
-0.000388048
0.00369075
0.000170409
-0.00274465
-0.000183913
0.0032606
0.000242771
-0.00012704
-0.00183314
-0.000115027
0.00289798
-0.00278593
-0.00278867
0.00329906
-0.00366303
-0.00218443
-0.0001842
-0.00178656
0.00161513
8.2131e-05
-0.00210234
0.00239364
-9.08465e-05
7.26477e-06
-0.000362408
-0.000429586
-0.0032242
-2.24585e-05
0.000264242
0.00265082
-0.00252706
0.000234167
-0.000767436
-0.000194896
0.00399772
-0.000468794
-0.0035418
-0.00251071
0.000351944
0.00370709
1.16334e-05
-0.000161727
0.00011962
-0.000420919
-0.00211136
0.000159538
-1.372e-05
-0.000159905
-0.000516313
-0.000600064
0.00409985
-0.00375706
-0.00119791
0.000895259
-0.0028295
0.0040365
-0.00121575
0.00306247
0.00361808
0.000103069
-0.00373142
-0.000414221
0.00308874
0.00351488
0.000468932
-9.56153e-05
-0.00410033
0.00147127
0.000190766
0.00177028
-0.000300639
-0.00226503
0.00364069
-0.00320625
0.00231358
-0.00210804
0.00282175
-0.00293978
0.00390983
-0.00195111
-3.1927e-05
-9.97114e-06
3.03428e-05
0.00167487
-0.00123337
-0.000474715
-2.78365e-06
-0.000196358
-0.00403882
4.9575e-06
0.000511039
-0.00245642
0.00230345
0.000142939
-0.0025413
0.0028855
1.57344e-05
-0.000235469
-0.00260475
0.000271988
0.00233114
0.000654926
0.00256479
5.73978e-05
5.82424e-05
0.00023495
0.000159601
1.20697e-05
-3.37091e-06
-3.92731e-05
-0.000139497
-0.00318684
-0.00343338
0.00012584
0.00331224
-6.66589e-05
-0.00325664
0.000683022
6.46065e-06
-0.000707403
0.00291566
-0.0026366
-0.000282863
-0.00016154
0.00289708
-0.00274817
0.00245588
-0.00379326
-0.000331234
0.000408708
-0.000274647
-6.3552e-05
-0.00223952
0.00230163
0.00368613
-0.000407321
-0.00330494
-0.00244538
0.000127808
0.0023041
-6.07731e-06
0.00046048
-0.000463114
0.00012528
-0.000417068
-0.00298778
0.0033737
0.000128832
0.000766847
0.00399019
0.00381082
0.000331253
0.00240218
0.00144928
9.03763e-05
-0.00154439
-0.0041403
0.000695268
-0.003567
0.00401222
0.00140711
0.00229938
0.000136222
0.00218352
-0.00224848
0.00227201
0.000281143
-0.00255468
-0.000168148
0.00205741
-0.00189009
0.000296631
0.00219362
-0.0024918
0.00356252
0.000344203
0.00242699
-0.00282036
-0.000496606
-0.0035673
0.00405527
0.00381528
-0.00223755
0.00366707
0.000345655
0.00256532
-0.00105591
0.0021377
-0.00108285
-9.06061e-05
-0.00232485
0.000427355
0.00330326
-0.00312621
0.000856486
0.00244438
3.2313e-05
-9.74068e-05
-0.000333763
-0.00235404
0.00225779
-0.00269219
-0.00180138
0.00186528
-5.90172e-06
0.00203051
0.000294765
0.00134652
-0.0032807
-0.00293206
0.000218513
0.00270836
0.00146579
-2.36351e-05
-0.00144676
-0.000454615
0.000311964
0.00401288
-0.00328127
-0.00407218
0.00358457
-0.00315256
-0.00025193
0.000379788
0.000446681
-0.00356015
0.00310557
-0.00249065
0.0023388
0.000143246
-0.00257546
0.000177218
0.00232771
-0.00010663
0.000686478
-0.000605807
0.000322947
-0.00296343
0.00361091
0.000337429
-4.71393e-05
-0.00242288
-0.00277034
0.00298029
0.00274822
-0.00245345
7.76543e-06
1.65543e-05
0.00165086
-0.000756646
0.00028506
-0.00340177
0.00131762
0.00220183
-0.00353312
0.00355771
0.00404614
-0.000547024
-0.000617996
6.71344e-05
0.000537739
-0.00041187
-0.00223996
-0.00224677
0.000986334
-0.0023503
9.28453e-05
0.0030944
-0.00386543
0.00371832
0.000113759
-0.00313115
0.00018561
0.00293159
0.000622815
6.66155e-05
-0.00024121
0.000257365
-1.93433e-05
0.00340789
-0.00011353
-0.00250289
-0.000137214
0.00128952
-0.000226791
-0.00107713
-0.00340768
0.00391571
-0.000439591
0.000217406
-0.00318883
0.00295929
0.00213399
-0.000164208
0.00403837
-0.000248536
0.000850404
0.00326087
-7.359e-05
0.000638864
-0.000578064
0.00333543
0.000264828
-0.00362366
-0.00276028
-0.000176172
0.000686315
-7.05047e-05
0.000276447
0.00173958
-0.00130608
0.00128527
-1.9233e-05
-0.00195132
-0.000985784
2.87336e-05
-1.54392e-05
-0.00174581
2.90656e-05
0.00166
0.00235717
-0.000143056
-0.00222637
-0.00259588
0.00282519
0.00334554
0.000743808
3.98547e-06
-0.000774025
4.8208e-05
-0.0013947
0.00073805
-0.000550544
-0.000204519
0.000476935
0.00355479
-0.00305753
-0.000490871
0.000476153
0.00272473
0.000195424
-0.00170346
-0.0037892
0.000394806
0.000303975
0.0034557
0.00262869
0.00368908
0.000327118
-0.000273453
0.000351884
-0.000245199
0.000950266
-0.0037894
0.0012351
-0.00150759
0.000264855
-0.0028426
-0.0030286
0.00274905
0.000277281
-0.00369888
0.00233166
0.0035838
-0.00199431
3.27992e-05
0.00301679
0.000370627
-1.53063e-06
-0.000293693
-0.000174625
-0.00218826
-0.000351022
-0.0039987
0.00449434
-0.00284986
-0.000739156
-0.000100536
0.00083926
-0.00211339
-8.64985e-05
0.000657218
-0.000574483
-0.00399186
0.000376624
0.00360328
-0.000207146
0.00143511
0.000382527
0.000145834
0.00219807
0.000571139
1.74124e-05
-0.000614756
-0.00219651
0.00324216
0.000282356
2.61251e-05
0.000442645
-0.000590526
-0.00356089
0.00314184
0.000389466
-0.000158718
0.0022698
0.000106279
-0.000845586
0.000408112
-0.00328279
-2.31489e-05
-0.00156576
0.000275134
0.00126221
0.00278064
0.00112492
-0.000377263
0.000122361
0.00355536
6.49626e-05
-0.00206827
0.00211682
-7.87861e-05
9.75959e-05
0.000268699
-0.000405367
0.000359803
-1.31905e-05
-0.000364942
0.000271216
0.00261871
-0.00289359
-0.00219
9.29772e-05
0.00209577
0.00131588
-0.00106185
0.0011436
-0.000176485
-0.00307801
-0.00022028
-0.00256879
0.00275079
0.00133772
0.000140113
0.00335878
-5.46436e-05
-0.00105284
-0.0016361
4.16706e-05
0.00153828
-0.0025568
0.0037498
-0.0040108
-3.84113e-05
1.36112e-05
0.00350576
-0.00324288
-0.00077324
0.000758528
-8.88345e-05
-0.000684058
-0.0028544
0.00351094
0.000458072
0.000102282
0.000641945
0.00227671
-0.00214408
0.000136087
0.00101674
-0.00115308
0.000124772
-1.45309e-05
-0.000125304
0.00034857
-0.00370135
0.00334599
0.0031602
-0.00295485
0.00102134
-0.00207831
-0.00327809
-0.00032379
0.00402975
-0.000403022
-0.00363842
-9.15109e-05
-0.00178267
0.000205472
-0.0021599
-0.00372145
0.000433806
0.000126806
-0.000121472
-2.00831e-05
-0.00253037
-0.00166375
0.00312517
-0.000338873
-0.00166363
-2.83116e-05
2.79508e-05
-1.44565e-05
0.00111114
-0.000975226
0.000155203
0.00189991
-3.99325e-06
0.00066843