/*--------------------------------*- C++ -*----------------------------------*\
| =========                 |                                                 |
| \\      /  F ield         | OpenFOAM: The Open Source CFD Toolbox           |
|  \\    /   O peration     | Version:  v2012                                 |
|   \\  /    A nd           | Website:  www.openfoam.com                      |
|    \\/     M anipulation  |                                                 |
\*---------------------------------------------------------------------------*/
FoamFile
{
    version     2.0;
    format      ascii;
    class       volScalarField;
    location    "350";
    object      nut;
}
// * * * * * * * * * * * * * * * * * * * * * * * * * * * * * * * * * * * * * //

dimensions      [0 2 -1 0 0 0 0];


internalField   nonuniform List<scalar> 
10042
(
0.00906279
0.0210416
0.00313308
0.00671204
0.00674716
0.0140537
0.0343438
0.0161303
0.00669865
0.00194408
0.00439571
0.0206981
0.00244193
0.00681476
0.00679294
0.00681365
0.00939238
0.00314228
0.00658481
0.00309308
0.00216904
0.00913416
0.00671136
0.0120948
0.00672771
0.00700829
0.00203801
0.00668781
0.0118662
0.00520887
0.00698692
0.00108511
0.00669466
0.00669354
0.0165176
0.0220779
0.00681197
0.00669569
0.00688709
0.0070838
0.00778141
0.00669518
0.00185765
0.00420808
0.00671742
0.00673068
0.0066872
0.00678524
0.00171535
0.0419243
0.0072169
0.00670965
0.0104645
0.00660927
0.0306772
0.029067
0.00248167
0.0101474
0.00682094
0.00667742
0.00170727
0.0329685
0.00210213
0.0133158
0.00249161
0.00680332
0.00338044
0.0145997
0.00668758
0.0135072
0.0170785
0.00525863
0.00673797
0.00681902
0.00680113
0.0106362
0.00706899
0.00668763
0.00704365
0.00657804
0.00560679
0.00992378
0.00709884
0.00670952
0.0022
0.00548444
0.00368747
0.00321951
0.0067942
0.0075984
0.00584229
0.00678983
0.0012469
0.00586801
0.00551574
0.00678022
0.0369413
0.00331901
0.0153704
0.00681258
0.00602624
0.00254147
0.00685028
0.00159828
0.00641247
0.00683478
0.00573542
0.00679327
0.0352701
0.0068408
0.00681891
0.0279587
0.00260214
0.0140198
0.00366903
0.00669185
0.00504028
0.00695511
0.00942546
0.00669232
0.00667673
0.0193353
0.0188698
0.00671982
0.00725935
0.0068223
0.00683295
0.0293526
0.000973221
0.00509913
0.00670613
0.00679137
0.00689966
0.00677801
0.0281565
0.0298814
0.00368273
0.00236021
0.00672577
0.0154194
0.00101712
0.00675883
0.00460742
0.0066878
0.00332385
0.00669694
0.00227581
0.00668691
0.00681493
0.0245638
0.00678986
0.00687671
0.00667951
0.00153649
0.00554561
0.0030007
0.000933229
0.0287621
0.0068963
0.00701393
0.00687995
0.00699423
0.032989
0.00680642
0.00677015
0.0251002
0.00673759
0.001403
0.0197872
0.00669119
0.00771584
0.00608271
0.0166319
0.00669125
0.00661317
0.0174117
0.0067289
0.0066968
0.00678115
0.00668735
0.00673569
0.00638437
0.00681637
0.00668598
0.0156404
0.005106
0.00510667
0.00668693
0.0409607
0.00684679
0.0202155
0.00245414
0.00670999
0.00642032
0.0276561
0.00678956
0.00174629
0.00819874
0.0326683
0.00671125
0.00133007
0.00101612
0.0206345
0.00676259
0.0153264
0.00687831
0.0149175
0.00175063
0.00681336
0.00677957
0.00124966
0.00673918
0.0211386
0.0186971
0.00683662
0.0109885
0.0067597
0.012197
0.00675182
5.95133e-05
0.0116315
0.00660664
0.0180379
0.0108608
0.00671275
0.000866743
0.0068758
0.00394843
0.0019462
0.00684388
0.00669911
0.0068508
0.00518205
0.00704492
0.00672908
0.0181193
0.00444157
0.0363469
0.00326894
0.0123957
0.00941977
0.00777778
0.00667675
0.00691315
0.0244596
0.00675664
0.0071704
0.00369566
0.00666816
0.00681353
0.00647462
0.00671582
0.0119562
0.027861
0.00680728
0.00504171
0.00689772
0.00686578
0.0376774
0.00671969
0.00683464
0.00670205
0.00670843
0.0066879
0.00192378
0.0214207
0.00641881
0.00994497
0.0070261
0.00685809
0.00673037
0.0405404
0.00677578
0.0267326
0.0068735
0.00865271
0.00676816
0.00671942
0.00703064
0.0276428
0.00668783
0.00964213
0.000517024
0.00677576
0.00687131
0.0370438
0.00592053
0.0066971
0.00942235
0.00693643
0.00271235
0.00681399
0.00688053
0.0104098
0.00387465
0.00681609
0.00386594
0.00397258
0.00673138
0.00676972
0.00669201
0.0192279
0.00668787
0.0112837
0.00581788
0.0349127
0.00680128
0.00668146
0.00375636
0.0108288
0.00685325
0.00676764
0.00677358
0.00681399
0.00688331
0.00937096
0.00668752
0.0141815
0.0114101
0.00669099
0.0070008
0.0327982
0.00810502
0.012279
0.0173397
0.00686226
0.00598032
0.0067838
0.00443312
0.00303001
0.00687918
0.00678087
0.00836264
0.00688502
0.0137341
0.00945524
0.00920306
0.0140295
0.00672014
0.0259931
0.00109883
0.00199637
0.00667691
0.00604015
0.00694869
0.00669811
0.00674874
0.006758
0.0070623
0.0341521
0.00679951
0.00614586
0.00706487
0.00692348
0.0318691
0.00532775
0.00686647
0.00708868
0.00314707
0.00700278
0.00682778
0.00681853
0.00677177
0.00636148
0.0245448
0.0067594
0.00672309
0.00706091
0.00705563
0.0262269
0.00667914
0.00708464
0.00678628
0.00699636
0.00253517
0.00683363
0.0091114
0.00564309
0.0112042
0.00207269
0.00679978
0.00774851
0.00198792
0.00677499
0.00100528
0.00669381
0.00678902
0.00668834
0.0068563
0.00669351
0.00688625
0.0358176
0.00680096
0.00579971
0.0222384
0.0279777
0.00671727
0.0152544
0.00683332
0.00108476
0.00671067
0.0304361
0.00747171
0.0321949
0.0386189
0.00691957
0.0010201
0.0072516
0.0121722
0.00688541
0.00581463
0.00346814
0.00865824
0.00680274
0.0117399
0.00686238
0.002553
0.0289042
0.00668845
0.00684331
0.00686078
0.0197383
0.00670219
0.00668502
0.000981623
0.00689081
0.00214896
0.00647912
0.0067177
0.00209222
0.00689141
0.00668872
0.00297386
0.0221814
0.00715789
0.00678465
0.0181366
0.00917036
0.00702092
0.0308735
0.00668828
0.00698327
0.00331539
0.0377195
0.0351763
0.0184173
0.0112812
0.025171
0.0141479
0.00668487
0.00733476
0.0039727
0.00403268
0.00115861
0.00671092
0.00675612
0.00294133
0.0352443
0.00668727
0.00685901
0.00699688
0.00671688
0.00699202
0.00702193
0.00685005
0.00386484
0.00955822
0.0067749
0.00700469
0.00804707
0.0287191
0.00672981
0.0388688
0.0246284
0.0134784
0.00685611
0.0048213
0.00702237
0.026968
0.00673845
0.00704612
0.00680476
0.0153234
0.00679004
0.00647014
0.00686278
0.0071656
0.0122808
0.00701695
0.00672271
0.00676907
0.0125965
0.00670078
0.00476399
0.00419236
0.0011777
0.00685471
0.00456458
0.0109816
0.0389127
0.00679776
0.00695735
0.0089141
0.0164602
0.00154033
0.0217673
0.00686391
0.0105775
0.00213866
0.00227235
0.00424539
0.0159494
0.00683457
0.00671046
0.00683945
0.0116289
0.00671859
0.00942335
0.00671604
0.00677979
0.00672696
0.00256254
0.0246592
0.00684366
0.0067863
0.0265785
0.00887679
0.00241571
0.00684405
0.00679661
0.0114256
0.0399162
0.0068091
0.006713
0.00414418
0.00678878
0.00676595
0.00321461
0.00670083
0.0255155
0.00671842
0.00192489
0.00776115
0.0249587
0.00671939
0.00567579
0.00677039
0.00672437
0.0278875
0.00667723
0.00411188
0.00146517
0.00669495
0.00705009
0.00982972
0.0167854
0.00439967
0.0068865
0.00671421
0.00668567
0.00700489
0.00679903
0.00683645
0.00171146
0.00676734
0.00677317
0.012948
0.00640458
0.00655078
0.00702153
0.00670865
0.0182401
0.00651582
0.00780964
0.0173285
0.00672594
0.00613753
0.00674433
0.00669791
0.00678018
0.00676888
0.00681772
0.00685798
0.0338281
0.00680702
0.00299395
0.00671461
0.00781948
0.00668799
0.0024056
0.0102425
0.00669369
0.00671743
0.0162508
0.00530764
0.00668778
0.0139246
0.00672979
0.00886779
0.00669562
0.00685678
0.00672034
0.00507598
0.0066876
0.00680922
0.00685184
0.0188711
0.00703054
0.00678095
0.00687109
0.00371311
0.00671841
0.00673161
0.00674819
0.00673172
0.00397269
0.00673104
0.00768748
0.00675115
0.0383794
0.00140101
0.0151763
0.00689034
0.00653904
0.00674588
0.00327932
0.00681756
0.0112524
0.0233025
0.015448
0.00904522
0.00649853
0.0067243
0.00679006
0.00994283
0.00382283
0.00623067
0.000691842
0.00680819
0.0045662
0.00673531
0.00680715
0.00674044
0.00669835
0.00686981
0.0107757
0.00677675
0.00698564
0.0386968
0.00675287
0.00326314
0.00703633
0.00678033
0.00525806
0.00683926
0.0127842
0.00681389
0.00676204
0.00267626
0.00678814
0.00672764
0.00700083
0.00675249
0.00671062
0.0058506
0.00333331
0.003202
0.00677942
0.00678156
0.0067449
0.00517262
0.00495776
0.00680359
0.00680665
0.00673571
0.00624659
0.0420182
0.00613338
0.006868
0.00685174
0.0386114
0.00506447
0.00705361
0.00212683
0.023982
0.0339534
0.00599114
0.00673458
0.00687194
0.0068192
0.0127136
0.00673116
0.00622859
0.00687335
0.00667827
0.00631553
0.00694893
0.0116128
0.00143451
0.00670055
0.00671696
0.0066832
0.0178495
0.00669747
0.00709941
0.0070498
0.0421566
0.00677087
0.00681503
0.00669441
0.0067104
0.00677329
0.00673833
0.00673969
0.00680613
0.00560649
0.00652755
0.0110557
0.00672047
0.00309433
0.0248241
0.00683919
0.0245763
0.00671341
0.00684554
0.00770737
0.00692192
0.0186995
0.00686553
0.00688274
0.00673729
0.0270458
0.00680556
0.0121961
0.00172301
0.00678157
0.00251649
0.0133984
0.00698845
0.00674432
0.000676462
0.00707791
0.00398316
0.00623154
0.00717185
0.00513685
0.006773
0.00680528
0.00679971
0.00258949
0.00824151
0.0179284
0.0186945
0.00668018
0.00705781
0.00680808
0.00333664
0.00706852
0.00809933
0.00679615
0.006819
0.0233228
0.00676095
0.000704031
0.00210531
0.0068688
0.0111515
0.00758625
0.00680436
0.00699302
0.00202884
0.00681413
0.0327364
0.00680763
0.00203639
0.00543857
0.0175346
0.00697055
0.0024107
0.00709428
0.00680439
0.00177322
0.00668808
0.00196067
0.0068203
0.00679996
0.00682325
0.00675512
0.00670735
0.00159935
0.0069507
0.00679488
0.0182217
0.00669034
0.00677055
0.00671314
0.00668567
0.00646444
0.0075099
0.00578113
0.00873375
0.0180855
0.00677205
0.00906317
0.00464265
0.00673162
0.00685432
0.00668392
0.0278178
0.0244277
0.00645017
0.00673431
0.00162132
0.038163
0.0398452
0.00699986
0.0279485
0.0204598
0.0141092
0.00750417
0.00674935
0.00711785
0.00642028
0.00289557
0.00680493
0.0406281
0.00700528
0.0105179
0.0201714
0.00686774
0.00720744
0.00443966
0.000177024
0.0203943
0.00242481
0.0386538
0.00645515
0.00567305
0.00678906
0.00861329
0.00695629
0.00619361
0.00668597
0.00681601
0.00671804
0.00627322
0.00686005
0.00668188
0.0103485
0.00676671
0.00608938
0.0070174
0.0188448
0.00691466
0.00677525
0.0068357
0.00690273
0.00674776
0.00564318
0.00671326
0.00743746
0.00708827
0.00408596
0.00686714
0.00188136
0.00670991
0.00071991
0.0179596
0.00843601
0.00675815
0.00669033
0.00690125
0.00683097
0.015698
0.00260734
0.0067517
0.0170192
0.00686795
0.00678345
0.0137781
0.00668531
0.00677539
0.0183356
0.00670809
0.00363668
0.00672386
0.00247128
0.00611033
0.00264318
0.00682435
0.00677733
0.0373846
0.0380551
0.00671673
0.00212931
0.0168372
0.00612668
0.0228135
0.0070501
0.00677093
0.00617468
0.0068255
0.00736148
0.0115248
0.00654259
0.0066862
0.00207342
0.0128207
0.0247939
0.00668661
0.00668327
0.00700794
0.00681062
0.0101964
0.00183737
0.00677471
0.00639306
0.00532277
0.0068002
0.00691036
0.0418919
0.00432719
0.0117171
0.00719025
0.00684924
0.00678706
0.00741302
0.00294931
0.00103469
0.00679274
0.01767
0.0125917
0.00494252
0.00650439
0.00453996
0.0412141
0.00173561
0.022527
0.00241884
0.00678962
0.00678687
0.00918443
0.0151651
0.00684123
0.00643038
0.00103867
0.0068403
0.00326283
0.00683944
0.00683671
0.00701075
0.00190049
0.00680006
0.0067203
0.0201673
0.00676444
0.00676465
0.00202329
0.00628807
0.0169898
0.00696807
0.00688032
0.00390898
0.00156672
0.00691308
0.00184897
0.00693244
0.00673085
0.00670285
0.00632096
0.00314658
0.00673991
0.00695621
0.00678885
0.00696475
0.00682022
0.0287927
0.00680307
0.0118621
0.00679881
0.00259108
0.00688071
0.00679986
0.00453951
0.00641792
0.0269561
0.00676181
0.00687439
0.00335882
0.00930641
0.00762122
0.00678043
0.00474251
0.00673402
0.00741566
0.00407032
0.00708063
0.00668794
0.00671193
0.00191658
0.00568938
0.0112105
0.00699881
0.00613467
0.0062398
0.0091946
0.00674048
0.00673424
0.00126653
0.00668819
0.00672549
0.013989
0.00697611
0.00722841
0.00671425
0.00674085
0.00675117
0.0026565
0.00698379
0.00721025
0.0314794
0.00672904
0.00684664
0.00469337
0.00685724
0.00287284
0.00693056
0.00378715
0.0156774
0.00688345
0.0172976
0.003142
0.00680835
0.00422071
0.00678697
0.00681781
0.00668836
0.00671571
0.00707119
0.0148902
0.0022419
0.0214217
0.0214027
0.0126968
0.00293418
0.0144905
0.00656503
0.0137844
0.00669258
0.00478806
0.0067887
0.00683607
0.00682715
0.0335787
0.0191373
0.00676532
0.00646336
0.00675796
0.0141498
0.00684458
0.00456226
0.00708307
0.0091761
0.0114882
0.00672936
0.00669116
0.0412995
0.000790017
0.00682569
0.00760152
0.00682092
0.00701008
0.0234663
0.0158494
0.00670729
0.00672052
0.0067604
0.00355287
0.00690454
0.0067772
0.0068523
0.00715357
0.0070066
0.00686769
0.00707468
0.0144306
0.0109197
0.00670893
0.00326162
0.0066888
0.00118137
0.00221528
0.00308852
0.00671272
0.000818913
0.00233626
0.00675693
0.0014085
0.00328949
0.00679515
0.00672356
0.00703573
0.0124543
0.0230467
0.0067593
0.0104985
0.00682022
0.00682157
0.0411714
0.00678644
0.0069949
0.00676286
0.00705514
0.00731523
0.0161005
0.00699616
0.00687714
0.00671554
0.00691512
0.0067206
0.0226502
0.00669542
0.00283997
0.0301644
0.00597454
0.00670119
0.00736056
0.00681179
0.00327024
0.00687118
0.00332668
0.00668795
0.00736493
0.0184151
0.00456112
0.00677302
0.00922106
0.00578115
0.00865941
0.00696631
0.00621146
0.00682744
0.0126839
0.012776
0.00707061
0.00491484
0.0163164
0.0107465
0.0370096
0.00710751
0.0143204
0.00672188
0.00703261
0.0104508
0.00101826
0.00671585
0.0158793
0.00678326
0.00673002
0.00682843
0.00986726
0.00106064
0.00273048
0.0042926
0.00224657
0.0137046
0.00676452
0.0067271
0.00695539
0.0107592
0.0093443
0.00227885
0.0136794
0.00684509
0.0068395
0.00216215
0.00937885
0.00167
0.00673953
0.0033668
0.0179085
0.00686535
0.00218624
0.00677582
0.00208841
0.00751142
0.00677533
0.00149284
0.0105537
0.00672523
0.00677023
0.00671248
0.017892
0.00695422
0.0222619
0.00860737
0.00672978
0.00688288
0.0066878
0.00185088
0.00680202
0.00722458
0.00723558
0.00652914
0.0117208
0.00653172
0.00603253
0.0147971
0.00689174
0.00393845
0.00686517
0.00677295
0.0403447
0.015548
0.0068609
0.00273793
0.00755224
0.0105136
0.00676641
0.00700924
0.00707452
0.00687694
0.00242644
0.0125834
0.0070398
0.00698953
0.0194858
0.00432488
0.00422124
0.0175893
0.00878511
0.00316149
0.00671481
0.0066887
0.0122106
0.00683785
0.00418012
0.0115489
0.00215131
0.0183444
0.00683832
0.00703084
0.0383879
0.0114359
0.00681559
0.031369
0.00710296
0.00676848
0.000715692
0.00676879
0.00684285
0.00124074
0.00400097
0.00691993
0.00663781
0.00670974
0.00687328
0.00541904
0.00240452
0.0145643
0.00676444
0.00612649
0.006738
0.00672687
0.011905
0.00677576
0.0152666
0.00899807
0.00678363
0.0183406
0.00201019
0.00818374
0.00668443
0.0144351
0.000854319
0.00300338
0.00480911
0.00701049
0.0067434
0.0271565
0.00407915
0.0127841
0.00169085
0.0067271
0.0120265
0.00668161
0.0288896
0.00670858
0.0137012
0.00687843
0.00671212
0.00670414
0.0137984
0.0067105
0.00678978
0.00669471
0.00673965
0.00672254
0.00337188
0.011914
0.0069063
0.00629802
0.006785
0.00670812
0.00670896
0.0124945
0.0405158
0.00639099
0.00679507
0.00671171
0.00674253
0.00368662
0.00643175
0.0066991
0.0207808
0.0265937
0.0124604
0.00687285
0.00674643
0.00671592
0.00667112
0.00672351
0.00679768
0.00673064
0.00673538
0.00742873
0.00687045
0.0081678
0.0191653
0.0384953
0.00713059
0.00671056
0.00683339
0.0370458
0.00691621
0.00363847
0.00698056
0.00672731
0.00678466
0.00671877
0.0212298
0.00679664
0.0158429
0.0191817
0.000792837
0.00675922
0.00636936
0.0115657
0.0065504
0.00178545
0.00692305
0.00163686
0.00673183
0.00632722
0.0372258
0.0168639
0.00675688
0.00677662
0.0179401
0.00648959
0.000850373
0.00702852
0.0118503
0.00674855
0.00636449
0.0072977
0.0256535
0.00110755
0.00691272
0.00681431
0.00682839
0.00679264
0.00306434
0.0185123
0.00255786
0.00671893
0.036871
0.00690332
0.00958872
0.0133591
0.00672751
0.0146451
0.00303427
0.0067297
0.00239975
0.00201481
0.00686236
0.0178779
0.00671116
0.0394948
0.00764324
0.030921
0.0408282
0.00122641
0.00679344
0.00635695
0.00679997
0.00673391
0.00670972
0.00677796
0.039296
0.00679236
0.00175774
0.00675949
0.0383602
0.00175392
0.0079973
0.00681035
0.0388288
0.00671788
0.0159224
0.010765
0.0385656
0.00576284
0.0203398
0.00558064
0.00669096
0.00685084
0.00670081
0.00167556
0.00692476
0.0146759
0.0064871
0.0287083
0.00618774
0.00681111
0.00686511
0.00678208
0.00668988
0.01268
0.0124332
0.0369544
0.00676712
0.00705272
0.00655449
0.00688377
0.00147297
0.00673919
0.020022
0.0200147
0.00681094
0.00716681
0.0108383
0.00618694
0.00781347
0.0103476
0.00685232
0.0171611
0.00692277
0.0257951
0.00670772
0.00964865
0.00687024
0.00981811
0.00742426
0.00968937
0.0154537
0.0390491
0.000854017
0.00221055
0.0070547
0.00717987
0.0234627
0.0123203
0.00186952
0.00618811
0.00517129
0.0099301
0.0111301
0.00149041
0.0185883
0.00459354
0.00228218
0.00320346
0.0070404
0.00514754
0.00709882
0.00672743
0.00671497
0.00672741
0.00678637
0.0242885
0.00678655
0.00988122
0.000729628
0.0061452
0.014165
0.0145445
0.00683659
0.00680415
0.0108046
0.00565517
0.00270979
0.0224838
0.0352882
0.015717
0.00673604
0.00286635
0.00377648
0.00104586
0.00295776
0.0110555
0.0120942
0.000749227
0.00684512
0.00685248
0.0283447
0.00620905
0.00089515
0.0183599
0.0067086
0.00581354
0.00669603
0.0241388
0.00664072
0.00671484
0.00670975
0.0067112
0.00511359
0.0196697
0.00680237
0.00116403
0.0143835
0.00688179
0.0121648
0.00622469
0.00223605
0.00694048
0.0020054
0.0355679
0.00671175
0.00677654
0.00701189
0.0172544
0.000814259
0.00187052
0.00677942
0.00669085
0.00680329
0.00377619
0.00181411
0.00663765
0.00680363
0.00599716
0.00692737
0.0143149
0.00659631
0.00274826
0.00673197
0.0143643
0.00530434
0.000785276
0.00530461
0.00698017
0.00689848
0.0209981
0.00696998
0.012618
0.039081
0.00680191
0.00671315
0.0371395
0.00672823
0.00450869
0.00680984
0.00815934
0.0225867
0.00758103
0.006666
0.00671422
0.00671416
0.0067527
0.00645434
0.00669029
0.0068696
0.00670822
0.00672601
0.0066009
0.00686522
0.00695527
0.00684631
0.0413346
0.00676682
0.00320812
0.00679075
0.00676018
0.0361752
0.0067116
0.00272108
0.0163803
0.00683229
0.00679265
0.00147194
0.0107424
0.00709933
0.010418
0.00327364
0.0070851
0.013942
0.00674913
0.0151078
0.00679886
0.00897052
0.00674389
0.0329058
0.0412139
0.0169649
0.00679975
0.00528616
0.00671
0.00665335
0.00317899
0.00678757
0.00672953
0.00115861
0.00692818
0.00382836
0.00956089
0.00678825
0.00171708
0.00674129
0.00617627
0.00676096
0.00672452
0.00678859
0.0326649
0.0339998
0.00721682
0.00606388
0.00679288
0.00672798
0.000798418
0.0209014
0.00172824
0.00331051
0.0111552
0.00670952
0.00660575
0.000914956
0.00672717
0.00659592
0.00729537
0.00672689
0.016006
0.00671634
0.0188767
0.00693416
0.00680577
0.00083328
0.00669339
0.00661173
0.00689176
0.0027448
0.0181243
0.0070795
0.00752288
0.00686166
0.0344904
0.0117072
0.00641255
0.00687399
0.00670673
0.00703261
0.00680676
0.00936969
0.00671205
0.00714442
0.00677402
0.00734294
0.00252028
0.00685597
0.00781253
0.00679283
0.00679083
0.0311584
0.00663215
0.00574745
0.0116409
0.00681773
0.0237596
0.00673465
0.00670857
0.00678719
0.00729807
0.0067122
0.0197798
0.00679157
0.00673648
0.00326152
0.0130721
0.0326536
0.0117519
0.00563185
0.00320973
0.00671483
0.00612122
0.0109905
0.00412471
0.00392778
0.00676489
0.00230204
0.00554369
0.00891775
0.00670528
0.031955
0.0064082
0.00671144
0.00300819
0.00682802
0.00677215
0.012572
0.00710738
0.00678388
0.00673342
0.00668865
0.0141487
0.00680126
0.0116908
0.00194774
0.00680102
0.0067073
0.00673919
0.00193955
0.00967292
0.00670757
0.0162415
0.00539633
0.00680362
0.0206219
0.00679938
0.00671909
0.00670563
0.00682407
0.00682917
0.00681359
0.00683517
0.00633047
0.00683409
0.000673648
0.00584147
0.000391215
0.00254763
0.00674673
0.0363625
0.00669533
0.00697275
0.00182125
0.00670945
0.0109527
0.0067127
0.000531854
0.00126088
0.00670351
0.0371315
0.0135597
0.00680841
0.00680362
0.00678846
0.0256746
0.00679646
0.0157845
0.0218024
0.00699555
0.00531164
0.00150703
0.00298905
0.00686312
0.007095
0.00680591
0.00973594
0.0374665
0.0029509
0.00567132
0.0069567
0.00225928
0.00998214
0.00346318
0.00678504
0.000757918
0.00647282
0.000837646
0.00672229
0.00690747
0.0108304
0.00615946
0.00709899
0.0102127
0.00705961
0.00985898
0.00670077
0.00443378
0.00678063
0.00625632
0.000205475
0.0130494
0.021778
0.00188785
0.00634457
0.0248243
0.00701145
0.00670845
0.0068324
0.00681474
0.00687905
0.00641043
0.00672842
0.0129002
0.00607401
0.00683102
0.00680626
0.00671644
0.00671407
0.0113212
0.00676568
0.00326331
0.00689967
0.00696731
0.00694669
0.00677302
0.00670345
0.000728535
0.00690385
0.01391
0.00655252
0.0202037
0.003256
0.00678465
0.00672072
0.00670775
0.00676548
0.0171088
0.00683956
0.00681434
0.00312297
0.00679014
0.00676284
0.0304043
0.0360608
0.0279685
0.00731124
0.0166997
0.00322503
0.00671554
0.00675674
0.00283913
0.00448293
0.0182477
0.0210664
0.0225208
0.00677976
0.00672167
0.00999565
0.00258104
0.00682366
0.00714531
0.00683058
0.00666825
0.0111198
0.00349618
0.00743379
0.00623515
0.00527154
0.00458567
0.00359066
0.00679202
0.0067078
0.00674194
0.00907421
0.00670725
0.0064747
0.00430581
0.026454
0.00672677
0.00677508
0.00671056
0.00682152
0.00686695
0.00241754
0.0168709
0.00676991
0.0367045
0.0148213
0.014528
0.00695411
0.00621789
0.00681951
0.00671441
0.00672976
0.00678208
0.00683632
0.00379598
0.00381108
0.00695501
0.00670283
0.00685799
0.00686788
0.0153677
0.00246613
0.00367986
0.0191318
0.0058192
0.00120786
0.00671487
0.00677697
0.00671833
0.00686292
0.00556834
0.00677248
0.0065312
0.0315761
0.00365784
0.0158006
0.018684
0.0412116
0.0224477
0.00672364
0.0025204
0.0101501
0.00375299
0.00680866
0.00693843
0.00714686
0.00681687
0.00682782
0.0102053
0.00675493
0.0068084
0.00431938
0.00657578
0.0245531
0.00672434
0.006704
0.00240612
0.0356882
0.00793031
0.0233644
0.00697013
0.00871853
0.00179863
0.00671179
0.00344788
0.00671621
0.00661259
0.00682732
0.00673417
0.00820066
0.00382741
0.0390757
0.00505665
0.0185399
0.00747305
0.00396278
0.0067413
0.00686551
0.0332062
0.00672458
0.00683203
0.00455725
0.00679672
0.00601469
0.00680629
0.00338988
0.00842316
0.00669089
0.0190884
0.00698191
0.00671431
0.00298121
0.00339907
0.00385158
0.0041917
0.00538298
0.0124138
0.00686401
0.00672281
0.00700787
0.00119022
0.0108485
0.00670698
0.0068785
0.00464003
0.00504481
0.00671597
0.0066423
0.00703934
0.00686873
0.00677735
0.00684011
0.00395749
0.0362401
0.00705888
0.00674289
0.00671941
0.00267044
0.00336123
0.00685439
0.00379216
0.0032213
0.00679064
0.00263151
0.0119294
0.00886751
0.00182334
0.00669215
0.00673853
0.00376645
0.00291626
0.0215543
0.00356683
0.00341936
0.00357666
0.0041885
0.0100765
0.0274525
0.0104693
0.00423954
0.0147818
0.00439157
0.00679154
0.0172783
0.00689331
0.00339572
0.00670955
0.00678147
0.00709262
0.00376485
0.0142116
0.00686212
0.00683872
0.00350037
0.00326903
0.00319785
0.00670815
0.00681007
0.00676191
0.00313779
0.00697945
0.00149594
0.00281198
0.0208635
0.00353389
0.00688295
0.00403631
0.00682749
0.00677329
0.00856905
0.0067904
0.00600956
0.00679972
0.00974144
0.0012568
0.013775
0.00693299
0.00359775
0.00313053
0.00226662
0.0123317
0.0332498
0.00339481
0.00355057
0.00671114
0.00681574
0.000857445
0.00679025
0.00685636
0.00677136
0.00684815
0.00283689
0.00738126
0.00670927
0.00660953
0.00710219
0.0102287
0.00685779
0.00370391
0.00350147
0.00750402
0.0234507
0.0181549
0.00727451
0.00369203
0.0286335
0.00682254
0.00680326
0.0073136
0.0028234
0.0244153
0.00671042
0.00685178
0.0256459
0.00671522
0.00672479
0.00688321
0.00679678
0.00954553
0.00682901
0.00230063
0.006835
0.0214247
0.00672063
0.0266068
0.0212131
0.0138092
0.0188845
0.00670701
0.00710226
0.00685911
0.00677542
0.00567033
0.00328052
0.0163904
0.0217209
0.00676147
0.00502991
0.00366861
0.00679906
0.0186159
0.00672353
0.00297628
0.0131663
0.0223114
0.0107379
0.00672261
0.00687093
0.0189702
0.00718265
0.00532266
0.00820074
0.00380639
0.0261716
0.00701511
0.00679566
0.00672199
0.00687767
0.00396144
0.00685455
0.00963948
0.00673858
0.00686124
0.0087609
0.00685991
0.00859854
0.00399238
0.00685549
0.00708768
0.00316624
0.00670598
0.00707098
0.0105827
0.0068172
0.00682842
0.00127272
0.0328582
0.00515129
0.00752762
0.00672032
0.00352574
0.00563059
0.00225331
0.00682046
0.0067064
0.00363983
0.00684276
0.00272304
0.00300741
0.02093
0.0181075
0.00675063
0.00638749
0.00672505
0.00285578
0.00680918
0.00453144
0.0148354
0.00680417
0.00434646
0.00672585
0.026925
0.00170575
0.00671204
0.0032019
0.00674974
0.00671032
0.0067408
0.00668841
0.00771626
0.0186425
0.00682662
0.0067019
0.000866596
0.00669036
0.00687913
0.00677229
0.00671307
0.00678158
0.00401528
0.00338895
0.00673926
0.00672727
0.00674079
0.00678693
0.021043
0.00188737
0.00679772
0.00673458
0.00685143
0.00739003
0.00678438
0.00682581
0.00658276
0.00188723
0.0067522
0.00504596
0.0146942
0.00683172
0.00326624
0.00672106
0.0067719
0.00671186
0.00671188
0.00672289
0.00677048
0.0296015
0.0198466
0.00670405
0.00699711
0.00694884
0.012092
0.00389096
0.00173087
0.00676165
0.00679696
0.00687279
0.00581338
0.0229491
0.00835911
0.00671599
0.00691079
0.0357782
0.00679133
0.0108949
0.00714467
0.00671268
0.00203555
0.018493
0.0117207
0.00463113
0.00558761
0.00386422
0.00671292
0.0190029
0.00682622
0.00552904
0.00290162
0.00679017
0.00672752
0.00200533
0.00670679
0.00501373
0.00492981
0.00679609
0.00680507
0.0218622
0.00671428
0.0054439
0.00670471
0.00147973
0.00307381
0.0178717
0.00671577
0.00672845
0.00678262
0.0183029
0.00312591
0.021721
0.0147337
0.0075809
0.00676438
0.0057325
0.00917922
0.00671573
0.00680425
0.00709759
0.00671111
0.0393582
0.00331373
0.00674932
0.0149587
0.00672611
0.00674383
0.0067019
0.00676466
0.00671509
0.0248159
0.00672874
0.0178256
0.00677399
0.00680125
0.00686321
0.00687613
0.00671245
0.00675711
0.00444785
0.00671888
0.00342205
0.0134228
0.00641241
0.00463729
0.00494852
0.00462753
0.00678178
0.0066893
0.00671427
0.00669151
0.00398357
0.0193651
0.00689915
0.00595316
0.00322272
0.00590494
0.0199978
0.00697613
0.00671051
0.00683806
0.00976705
0.0170058
0.00723192
0.0305568
0.00704278
0.0046061
0.0125989
0.00679116
0.00671511
0.00670939
0.0025228
0.00215399
0.00265936
0.0347451
0.00191921
0.00670816
0.00333256
0.00671343
0.00958067
0.00685384
0.0111083
0.00677794
0.0077832
0.00184441
0.00679421
0.00702658
0.0125727
0.00297563
0.000665027
0.00671014
0.00672026
0.00678818
0.00676854
0.0152233
0.00673474
0.00686776
0.00295285
0.00674679
0.0226787
0.00338911
0.00368057
0.00679742
0.00684966
0.0111779
0.00837625
0.00671377
0.00671462
0.00923381
0.0067148
0.00677029
0.00867874
0.00696691
0.0108877
0.0139141
0.0174489
0.00181597
0.0067519
0.00679824
0.00309509
0.00671062
0.00674023
0.00336614
0.00826024
0.00702677
0.0067718
0.00670737
0.00675919
0.037498
0.00676347
0.00675778
0.0067899
0.00670925
0.00672468
0.0116967
0.00711653
0.00673047
0.00685123
0.00679593
0.00670572
0.00299693
0.019254
0.00769003
0.00676454
0.00677526
0.00679365
0.00675734
0.0149085
0.00671922
0.0215849
0.00713163
0.00671003
0.00671861
0.0236026
0.00670571
0.00676132
0.00671304
0.00668443
0.00709783
0.00786399
0.00672611
0.00673137
0.00679019
0.0219979
0.00674922
0.00684898
0.00170355
0.0128409
0.00543482
0.00669625
0.0111092
0.0066885
0.00701855
0.00670907
0.00680878
0.00672187
0.00677913
0.00677438
0.00339003
0.000850816
0.0180481
0.000738707
0.00556468
0.00220779
0.00675878
0.0256391
0.00738209
0.00704679
0.0173463
0.0032513
0.00342169
0.00671643
0.00394705
0.00677703
0.00673236
0.00739264
0.00408422
0.0080929
0.00644952
0.02751
0.038506
0.0129581
0.00671581
0.00491774
0.00141427
0.0113785
0.0100392
0.0069632
0.0067998
0.00162137
0.0250473
0.00673367
0.0187523
0.00605568
0.00941121
0.00671587
0.00672027
0.00252522
0.00270377
0.0237006
0.0176757
0.00899607
0.00671054
0.00683322
0.00833689
0.0116585
0.003181
0.00670635
0.00690514
0.00670767
0.00670824
0.0067092
0.0128949
0.0112136
0.0156533
0.0114537
0.0103195
0.0154673
0.006724
0.0068071
0.00708891
0.0067497
0.0030071
0.00672346
0.00679893
0.00676643
0.00670669
0.00278253
0.016505
0.00612421
0.00674669
0.00672271
0.0035234
0.00537449
0.00658878
0.00594218
0.0132173
0.00721001
0.0067819
0.0026169
0.00712347
0.00672959
0.0178899
0.00685403
0.00682286
0.00678311
0.0230823
0.00670705
0.00670688
0.00702628
0.00687136
0.0067937
0.00675513
0.0195469
0.0148673
0.0267319
0.00686009
0.00677948
0.016068
0.00672585
0.00674255
0.00670839
0.00634275
0.00671469
0.00365133
0.00668955
0.00674074
0.00258065
0.00751157
0.00674438
0.00526291
0.00405568
0.0270888
0.00672463
0.00668268
0.00670605
0.020538
0.00703179
0.0050118
0.00353404
0.00676491
0.00670172
0.00684023
0.00679925
0.00336055
0.00673586
0.00676581
0.00672408
0.00321139
0.0190347
0.00675876
0.00673055
0.00674057
0.0109239
0.000866445
0.017298
0.00697736
0.0063479
0.00682508
0.00674632
0.0033054
0.0191264
0.00671456
0.00681063
0.00647832
0.00254124
0.00670682
0.00676661
0.00670718
0.00679563
0.00673495
0.00747812
0.00700659
0.0070917
0.0226861
0.0132131
0.00679752
0.00761526
0.00659625
0.00765503
0.00707355
0.00424274
0.00672313
0.00663058
0.00671602
0.00629975
0.0170246
0.00727301
0.000841375
0.0204931
0.00684031
0.00690565
0.00620394
0.00986489
0.00542188
0.00672965
0.00670856
0.00306002
0.00672801
0.00670636
0.00723176
0.00341186
0.00670735
0.0120913
0.0158114
0.00672394
0.00699403
0.00690528
0.00677237
0.0068027
0.00670682
0.00678763
0.0096976
0.00652318
0.0069504
0.00670584
0.00677207
0.00673689
0.00674417
0.00721361
0.00420414
0.00631904
0.00670931
0.0068259
0.00672125
0.00274781
0.0067078
0.00669956
0.00684839
0.0143978
0.00672539
0.0068904
0.0073365
0.00630977
0.00681659
0.00848389
0.0115887
0.0135439
0.00701483
0.00675115
0.00649059
0.00679379
0.0190124
0.00671291
0.00730699
0.00713473
0.00675647
0.0175093
0.00682234
0.0173724
0.0161412
0.00712142
0.00670737
0.0067062
0.00399451
0.0122173
0.00670949
0.00672984
0.00674277
0.00676175
0.00670772
0.00888949
0.00672269
0.00670564
0.00681455
0.00701029
0.00892256
0.00365774
0.00700221
0.00670623
0.00669925
0.0153301
0.00710199
0.00669479
0.00404882
0.00704869
0.0072113
0.00724341
0.00547334
0.00675932
0.00708285
0.0113479
0.00646481
0.00751783
0.00672727
0.00672098
0.0135022
0.0182353
0.00730755
0.00680102
0.00728425
0.00675473
0.00679547
0.00767023
0.00726349
0.00672237
0.00678697
0.00670432
0.00677478
0.00676392