/*--------------------------------*- C++ -*----------------------------------*\
| =========                 |                                                 |
| \\      /  F ield         | OpenFOAM: The Open Source CFD Toolbox           |
|  \\    /   O peration     | Version:  v2012                                 |
|   \\  /    A nd           | Website:  www.openfoam.com                      |
|    \\/     M anipulation  |                                                 |
\*---------------------------------------------------------------------------*/
FoamFile
{
    version     2.0;
    format      ascii;
    class       volScalarField;
    location    "350";
    object      p;
}
// * * * * * * * * * * * * * * * * * * * * * * * * * * * * * * * * * * * * * //

dimensions      [0 2 -2 0 0 0 0];


internalField   nonuniform List<scalar> 
10042
(
-0.0104437
-0.105189
-0.0451772
-0.0600917
-0.0441382
-0.0818418
-0.0512175
-0.0489715
-0.0155944
-0.0630414
-0.0163755
-0.0999709
-0.0869269
-0.0292868
-0.079667
-0.0288905
-0.0729115
-0.0171652
-0.0935698
-0.0546694
-0.0837841
-0.00988084
-0.059606
-0.0555783
-0.0487954
-0.00447014
-0.0633471
-0.0138891
-0.0795322
-0.0536332
-0.0375818
-0.121617
-0.0150358
-0.0149476
-0.0473653
-0.0637819
-0.0670471
-0.021822
-0.0376518
-0.000125918
-0.0524684
-0.0155087
-0.0365325
-0.060623
-0.0551834
-0.0485673
-0.00833802
-0.078941
-0.0611642
-0.0364927
-0.0352486
-0.0519504
-0.0723181
-0.0922382
-0.111122
-0.193835
-0.0837785
-0.0174183
-0.0723961
-0.000545745
-0.0620377
-0.0964654
-0.0508962
-0.0338653
-0.0292241
-0.0447632
-0.0535727
-0.0149382
-0.00741497
-0.0144861
-0.0257669
-0.0615007
-0.0238496
-0.0725255
-0.0447502
-0.0258632
-0.032574
-0.00812284
-0.0333358
-0.0954596
-0.0637262
-0.0544026
-0.0435409
-0.046855
-0.060763
-0.0661069
-0.053613
-0.0437178
-0.0382589
-0.0313778
-0.0915088
-0.0805672
-0.051789
-0.067166
-0.0288283
-0.0588406
-0.219086
-0.0546326
-0.0626414
-0.07344
-0.0909244
-0.0656257
-0.0637242
-0.121906
-0.0879327
-0.0647001
-0.141191
-0.0453217
-0.0479958
-0.0652307
-0.0707535
-0.0552963
-0.0652216
-0.0316256
-0.0297299
-0.00676065
-0.0438536
-0.0401388
-0.0174192
-0.00590631
-0.000644095
-0.109446
-0.10181
-0.0553455
-0.0316438
-0.0381121
-0.0383655
-0.10064
-0.0828146
-0.0439153
-0.019732
-0.0441682
-0.0372094
-0.0472406
-0.0563264
-0.0266618
-0.0511208
-0.107606
-0.0819365
-0.05579
-0.0654107
-0.0169398
-0.113607
-0.0141331
-0.0713903
-0.0216438
-0.06117
-0.00714902
-0.058018
-0.123842
-0.0453081
-0.0180521
-0.0826238
-0.0861958
-0.0293526
-0.0703215
-0.0807425
-0.208252
-0.0375981
-0.00442237
-0.0470928
-1.01386e-05
-0.0229003
-0.0384515
-0.0804783
-0.12778
-0.0234547
-0.119776
-0.0576077
-0.0145049
-0.0292211
-0.0519057
-0.0949397
-0.0145513
-0.0906203
-0.101585
-0.0509366
-0.0212167
-0.0441416
-0.00764949
-0.0810409
-0.082477
-0.0733755
-0.00599556
-0.000944572
-0.102278
-0.0623332
-0.000624388
-0.0429219
-0.0304949
-0.0993546
-0.0814331
-0.0199348
-0.0828517
-0.0921752
-0.0807061
-0.103697
-0.0295867
-0.193597
-0.0471722
-0.0784436
-0.057677
-0.0480246
-0.0110035
-0.0681552
-0.0371485
-0.058683
-0.0848948
-0.0699911
-0.0475498
-0.123191
-0.01083
-0.049368
-0.044633
-0.0637554
-0.0155282
-0.00946584
-0.0580023
-0.0573367
-0.0750671
-0.083099
-0.0293559
-0.0821571
-0.0154475
-0.0600735
-0.0562361
-0.0574061
-0.0512792
-0.0631596
-0.0644449
-0.0210233
-0.0382259
-0.0998512
-0.0402093
-0.0504529
-0.0537337
-0.0497483
-0.207669
-0.0715287
-0.0551121
-0.0515726
-0.0427638
-0.000496512
6.21098e-05
-0.132498
-0.0447205
-0.0401373
-0.0711103
-0.0826646
-0.0439734
-0.0886566
-0.0196876
-0.0561983
-0.12906
-0.0577058
-0.0498765
-0.0305948
-0.0554605
-0.213406
-0.0555784
-0.0310318
-0.0233931
-0.0513935
-0.00864736
-0.0874556
-0.1316
-0.0299018
-0.0544735
-0.0366685
-0.0378721
-0.0712494
-0.0337195
-0.0310117
-0.0266731
-0.0553788
-0.0159609
-0.0897197
-0.0525243
-0.0359891
-0.0915701
-0.0139958
-0.0437609
-0.113651
-0.088618
-0.0703982
-0.129581
-0.0434341
-0.0093538
-0.00876044
-0.0181519
-0.0792106
-0.0404327
-0.0654434
-0.0497637
-0.0298451
-0.027762
-0.0570794
-0.0503485
-0.0717417
-0.00982678
-0.0814893
-0.0466279
-0.000466861
-0.0512405
-0.0428103
-0.104611
-0.0308997
0.000133278
-0.0571603
-0.0499285
-0.066929
-0.0468678
-0.0592754
-0.0280977
-0.0405035
-0.00747992
-0.00883004
-0.000612839
-0.0500905
-0.00645497
-0.0123537
-0.028501
-0.0162633
-0.0204445
-0.00258565
-0.0642043
-0.0276954
-0.0436783
-0.0505828
-0.0791893
-0.0367138
-0.0661727
-0.011371
-0.0227811
-0.0564042
-0.0094977
-0.112202
-0.0191994
-0.0198638
-0.11516
-0.0603792
-0.0767239
-0.000607072
-0.0285044
-0.0485997
-0.0205582
-0.0318108
-0.0476045
-0.0390579
-0.210216
-0.0838275
-0.0294251
-0.0386448
-0.0116421
-0.101668
-0.0281843
-0.0581939
-0.0431133
-0.0627517
-0.0118182
-0.0651342
-0.0676721
-0.0793561
-0.0433743
-0.111639
-0.0814424
-0.0485119
-0.0380042
-0.0383849
-0.0856012
-0.000666491
-0.0486122
-0.0311497
-0.00026237
-0.0637201
-0.0316078
-0.0168264
-0.0522002
-0.124087
-0.0630094
-0.0646601
-0.050468
-0.0629575
-0.0436307
-0.0900233
-0.00622349
-0.0470853
-0.00583984
-0.040429
-0.00958847
-0.0545302
-0.150971
-0.0829365
-0.027499
-0.104708
-0.112985
-0.0629937
-0.0417205
-0.0704474
-0.117255
-0.0523051
-0.107569
-0.00212221
-0.109194
-0.201713
-0.0118202
-0.0631345
-0.0121912
-0.0469974
-0.0545227
-0.0586505
-0.0740441
-0.0414021
-0.0819213
-0.0236797
-0.0422549
-0.0688753
-0.0947099
-0.010106
-0.0425468
-0.0199962
-0.0986677
-0.020372
-0.00568765
-0.0640591
-0.0434651
-0.0616156
-0.0553358
-0.0550349
-0.0790749
-0.0433756
-0.00813908
-0.0726911
-0.0625811
-0.012417
-0.0785184
-0.0472733
-0.0164756
-0.0111257
-0.183235
-0.0147574
-0.03998
-0.0464871
-0.0363106
-0.029
-0.00315976
-0.0221471
-0.0292863
-0.0386035
-0.00515138
-0.0155158
-0.0533419
-0.0520115
-0.0900673
-0.0597139
-0.0319801
-0.0289705
-0.16419
-0.00607671
-0.000242959
-0.0435473
-0.0617092
-0.018219
-0.0182917
-0.0403301
-0.0656774
-0.0105301
-0.0907814
-0.0396451
-0.0296211
-0.02987
-0.0125641
-0.103865
-0.0500522
-0.0561886
-0.0230748
-0.110753
-0.0125691
-0.116808
-0.0710753
-0.029417
-0.0810712
-0.0512504
-0.0170858
-0.0908081
-0.000214515
-0.0157866
-0.0525776
-0.0109782
-0.0386875
-0.0473158
-0.0681341
-0.0230067
-0.0287451
-0.041458
-0.0604241
-0.0118086
-0.028836
-0.0552742
-0.0415465
-0.0696472
-0.0475707
-0.0416338
-0.0703056
-0.0654629
-0.0727027
-0.0328872
0.000650903
-0.0624887
-0.0649975
-0.0716701
-0.0639698
-0.0120761
-0.0586592
-0.0666746
-0.0613031
-0.0563187
-0.0486016
-0.0616866
-0.0708391
-0.0136255
-0.068099
-0.0723379
-0.0653301
-0.0773936
-0.0770138
-0.0297817
-0.0573326
-0.0654924
-0.0441759
0.000404908
-0.0389358
-0.0651216
-0.0104778
-0.0420949
-0.0589495
-0.0645755
-0.0582868
-0.0199299
-0.131986
-0.048956
-0.0638241
-0.0145273
-0.104368
-0.0568615
-0.107902
-0.0576271
-0.0234927
-0.0765908
-0.000457936
-0.0678856
-0.065298
-0.0163763
-0.0266727
-0.101431
-0.0493968
-0.0289328
-0.021448
-0.0102044
-0.00673255
-0.00463821
-0.0153704
-0.0661292
-0.051644
-0.0605494
-0.000615382
-0.0690595
-0.0860396
-0.0152318
-0.011797
-0.0417946
-0.0721955
-0.0412675
-0.0145861
-0.0673691
-0.0715822
-0.104677
-0.0111791
-0.0162964
-0.0465686
-0.0463901
-0.0664409
-0.0288886
-0.125647
-0.079278
-0.0656121
-0.0515544
-0.0139626
-0.00914078
-0.0579449
-0.0520459
-0.0167938
-0.0523387
-0.000444912
-0.0290067
-0.00979409
-0.128575
-0.0475707
-0.00979369
-0.0222282
-0.0543144
-0.0233187
-0.0744866
-0.00931482
-0.0349704
-0.0313925
-0.133687
-0.000350945
-0.0462701
-0.0264844
-0.0456586
-0.0627895
-0.0535835
-0.0165163
-0.0539561
-0.0720708
-0.0513294
-0.0138922
-0.0111772
-0.209099
-0.0588277
-0.0588804
-0.053697
-0.104485
-0.0568024
-0.0541851
-0.0709245
-0.0515366
-0.0550166
-0.0604925
-0.00884085
-0.040343
-0.0713869
-0.0658306
-0.0609724
-0.0447456
-0.0277054
-0.099752
-0.0759655
-0.0381626
-0.0407795
-0.0685495
-0.0123771
-0.0228189
-0.0481053
-0.0642701
-0.0874698
-0.00485492
-0.13792
-0.0592368
-0.0555313
-5.03182e-05
-0.0893964
-0.0285161
-0.0325639
-0.0516637
-0.0412943
-0.0469735
-0.0651564
-0.0706515
-0.000625427
-0.0373191
-0.0408167
-0.0420365
-0.0390732
-0.0597647
-0.055398
-0.0788106
-0.0385408
-0.041604
-0.0391627
-0.0610133
-0.0442623
-0.00930667
-0.0327307
-0.0421108
-0.0417214
0.000669474
-0.0568063
-0.0688884
-0.214242
-0.107498
-0.0393824
-0.0590788
-0.0121987
-0.118918
-0.0419281
-0.0402999
-0.0250978
-0.0413906
-0.0271622
-0.0401352
-0.10658
-0.0390402
-0.000557886
-0.0285132
-0.0380116
-0.0618495
-0.102781
-0.00873738
-0.0545472
-0.00528044
-0.00414588
-0.0224379
-0.0586202
-0.0377804
-0.0468271
-0.0392831
-0.0261154
-0.0170668
-0.0585216
-0.0657121
-0.000279262
-0.0716054
-0.0801951
-0.0275446
-0.0914292
-0.0461634
-0.0714828
-0.0451961
-0.0122645
-0.0691119
-0.21494
-0.0498172
-0.0328467
-0.00194229
-0.0198718
-0.0725754
-0.0393398
-0.0536874
-0.0134311
-0.0976126
-0.0260771
-0.0238834
-0.0681914
-0.0390149
-0.0694894
-0.0280891
-0.000130392
-0.0240876
-0.0956116
-0.0490677
-0.0614773
-0.0268816
-0.0339893
-0.0283621
-0.0779514
-0.0702778
-0.0457027
-0.0591296
-0.00119733
-0.0219659
-0.0505128
-0.000421339
-0.00390378
-0.0693724
-0.0455416
-0.0500832
-0.0613475
-0.0815334
-0.0647008
-0.0548369
-0.0400348
-0.0951318
-0.0651933
-0.067463
-0.022455
-0.00717395
-0.0361303
-0.0368664
-0.0624214
-0.0310399
-0.118231
-0.0792585
-0.0620251
-0.108616
-0.0569571
-0.0367339
-0.0658365
0.000273578
-0.0801577
-0.0690035
-0.0145454
-0.0629275
-0.034258
-0.0825867
-0.0266081
-0.0548146
-0.0843725
-0.0638473
-0.0394063
-0.0775079
-0.00250262
-0.0145854
-0.0397528
-0.0525379
-0.00545838
0.000492873
-0.012837
-0.0547522
-0.00734373
-0.0016723
-0.06496
-0.0175502
-0.0588435
-0.0325658
-0.0361212
-0.00506917
-0.087401
-0.0143317
-0.0847367
-0.0388974
-0.0636974
-0.0506369
-0.123261
-0.0378536
-0.0818751
-0.034616
-0.0538649
-0.00669682
-0.000338125
-0.00363564
-0.0382271
-0.0569173
-0.0801335
-0.111823
-0.0345486
-0.0205614
-0.0749077
-0.0326021
-0.0318013
-0.0678186
-0.0388755
-0.132827
-0.0594357
-0.127309
-0.0547223
-0.0436341
-0.0698572
-0.00713073
-0.0417942
-0.0409403
-0.00103565
-0.0691263
-0.0535239
-0.103341
-0.0386816
-0.00052293
-0.0667748
-0.068984
-0.0880265
-0.0381122
-0.0198885
-0.00288695
-0.0770083
-0.0527164
-0.0364048
-0.0596403
-0.108644
-0.0422039
-0.0546243
-0.0341436
-0.0426905
-0.0386638
-0.0539736
-0.0405595
-0.0892796
-0.00394991
-0.000872489
-0.0595222
-0.00698249
-0.0359393
-0.0646606
-0.0514945
-0.0548736
-0.0412918
-0.0530803
-0.0141815
-0.0543114
-0.0573138
-0.00589444
-0.0637683
-0.0529298
-0.0463128
-0.0486444
-0.0833516
-0.0611808
-0.0924701
-0.0544192
-0.0271515
-0.060065
-0.213859
-0.215246
-0.0517434
-0.061979
-0.0527488
-0.053833
-0.0620614
-0.00613241
-0.0251906
0.000499354
-0.0660135
-0.00657141
-0.0335382
-0.102658
-0.00652292
-0.106974
-0.0511186
-0.0173641
-0.00706539
-0.00518458
-0.00602236
-0.0759248
-0.0777511
-0.0384885
-0.0138696
-0.102075
-0.0324257
-0.0460616
-0.0559016
-0.0923407
-0.0608226
-0.0312558
-0.00555709
-0.0286173
-0.0781749
-0.01261
-0.0556599
-0.0395256
-0.0457822
-0.0369032
-0.0668669
-0.0506213
-0.0849631
-0.0613566
-0.0946584
-0.106929
-0.0796914
-0.116436
-0.0650298
-0.0427956
-0.0525744
-0.0465613
-0.043034
-0.100323
-0.106451
-0.0340031
-0.0441191
-0.0431996
-0.0359804
-0.0113391
-0.108955
-0.0356869
-0.0531217
-0.179445
-0.0312732
-0.0250673
-0.0607962
-0.0947201
-0.0255746
-0.0409673
-0.0529391
-0.0521257
-0.0639006
-0.0547975
-0.068398
-0.0353923
-0.0466887
-0.0148686
-0.101662
-0.05334
-0.040945
-0.0375994
-0.0423973
3.46584e-05
-0.0269403
-0.103514
-0.0451868
-0.0522977
-0.0688479
-0.054906
-0.00900902
-0.082532
-0.0404525
-0.0555805
-0.0454167
-0.0602399
-0.0439917
-0.0341693
-0.00717589
2.45159e-05
-0.0884427
-0.0362771
-0.0468084
-0.0147765
-0.0410773
-0.00435482
-0.0883773
-0.0529143
-0.0396367
-0.107223
-0.053095
-0.00905871
-0.0627864
-0.0961856
-0.00746628
-0.0320272
-0.02509
-0.0838949
-0.00121667
-0.0319647
-0.0320599
-0.0362972
-0.109327
-0.0179006
-0.0252976
-0.011827
-0.0545531
-0.0372965
-0.0060257
-0.0443208
-0.0321147
-0.0521952
-0.0925819
-0.0365721
-0.0405601
-0.0516203
-0.0498101
-0.021918
-0.0436171
-0.0842275
-0.0552829
-0.0659554
-0.0680519
-0.0871886
-0.0362726
-0.00789123
-0.0500007
-0.0496338
-0.0563865
-0.0584305
-0.0447351
-0.0783977
-0.00759685
-0.0529033
-0.019587
-0.0901737
-0.0313344
-0.0137194
-0.104708
-0.076733
-0.0423417
-0.0629986
-0.212255
-0.0422987
-0.0590628
-0.0398042
-0.0245018
-0.0603585
-0.0268101
-0.072488
-0.0281619
-0.0070146
-0.0431024
-0.0547345
-0.0101572
-0.0337224
-0.0861684
-0.0149484
-0.0148129
-0.0394683
-0.0355455
-0.071109
-0.0896369
-0.0415525
-0.031374
-0.0405185
-0.0700963
-0.00274713
-0.075904
-0.0553299
-0.0108493
-0.0360012
-0.0529146
-0.0106075
-0.0312623
-0.0388433
-0.00648884
-0.0698657
-0.0869295
-0.10333
-0.0606692
-0.0499833
-0.0407376
-0.132758
-0.0601844
-0.00849974
-0.0623141
-0.03777
-0.0815445
-0.0315298
-0.00667004
-0.0393051
-0.0754357
-0.0140692
-0.0406986
-0.0418331
-0.0707544
-0.0363542
-0.0287185
-0.0100567
-0.0246433
-0.0102591
-0.00609719
-0.00131459
-0.0559195
-0.0198305
-0.0695124
-0.0191156
-0.0559138
-0.0469627
-0.00898243
-0.0533017
-0.114012
-0.0377505
-0.0339852
-0.055479
-0.00843162
-0.0681893
-0.0419551
-0.0407155
-0.0135918
-0.0461822
-0.0648164
-0.100878
-0.0695052
-0.0170205
-0.00267668
-0.0406312
-0.038192
-0.003969
-0.0347092
-0.0485136
-0.0390033
-0.0392779
-0.0647598
-0.0422132
-0.0354447
-0.108428
-0.0412832
-0.0403393
-0.0302751
-0.00317252
-0.00548744
-0.0539883
-0.0689869
-0.0766342
-0.0862925
-0.0396657
-0.0142603
-0.0167723
-0.056323
-0.0535442
-0.0440224
-0.0670583
-0.0357553
-0.0909021
-0.04938
-0.0188793
-0.0371366
-0.0206638
-0.0665611
-0.0275536
-0.0632361
-0.0562546
-0.071062
-0.034417
-0.0637926
-0.0381522
-0.0569181
-0.0495692
-0.0466312
-0.0398195
-0.00653083
-0.103056
-0.0312074
-0.0285977
-0.0350432
-0.0104521
-0.0665073
-0.0863669
-0.0481545
-0.056922
-0.0446001
-0.0352581
-0.0293731
-0.0461881
-0.0211221
-0.0124844
-0.0676055
-0.0100321
-0.015129
-0.0279964
0.000315685
-0.03198
-0.0632726
-0.0886201
-0.0400593
-0.0481742
-0.0408783
-0.0511292
-0.0702478
-0.104652
-0.0351137
-0.058411
-0.057125
-0.00440951
-0.0193601
-0.0317229
-0.0111947
-0.0392021
-0.0653464
-0.0562683
-0.0312715
-0.0347724
-0.0190056
-0.00100536
-0.0415215
-0.0701393
-0.0392944
-0.0323545
-0.0037414
-0.0483384
-0.00843024
-0.0308132
-0.0064455
-0.0851501
-0.00921906
-0.0667229
-0.0434122
-0.0634928
-0.00943578
-0.0251647
-0.0121588
-0.0354176
-0.0322313
-0.0446059
-0.0395376
-0.0840622
-0.0875473
-0.0533985
-0.0778066
-0.0705749
-0.0115119
-0.0893424
-0.0526776
-0.0632593
-0.0381303
-0.112891
-0.0564812
-0.0638361
-0.0951784
-0.0424081
-0.0669292
-0.0293534
-0.0759457
-0.0182872
-0.0173141
-0.0726646
-0.0896137
-0.120835
-0.0292331
-0.00559245
-0.0177658
-0.0876378
-0.0535454
-0.0719541
-0.00324417
-0.0324798
-0.077989
-0.069111
-0.0319278
-0.11297
-0.0196185
-0.0324927
-0.00452148
-0.196886
-0.0527668
-0.0810069
-0.0358374
-0.030183
-0.0152571
-0.0175894
-0.0430189
-0.0121181
-0.0129522
-0.0414255
-0.0715615
-0.0431313
-0.0330898
-0.00796283
-0.0924654
-0.0821612
-0.0521804
-0.0391158
-0.01552
-0.12914
-0.104325
-0.0593565
-0.0392938
-0.0119897
-0.0697188
-0.0981937
-0.0147386
-0.0442846
-0.0864738
-0.0305802
-0.00784462
-0.0406226
-0.0694294
-0.0896241
-0.0306962
-0.0720504
-0.0702095
-0.0379937
-0.0315046
-0.0456908
-0.00741735
-0.119236
-0.211081
-0.00243132
-0.0511308
-0.0335487
-0.087722
-0.0236511
-0.0789966
-0.0570134
-0.0253229
-0.0576626
-0.0541323
-0.104165
-0.0466275
-0.0776605
-0.00945887
-0.124872
-0.0634472
-0.0954487
-0.0278048
-0.0817256
-0.0681157
-0.0537256
-0.11492
-0.0232446
-0.099247
-0.0798298
-0.0412068
-0.0282669
-0.075269
-0.128152
-0.100599
-0.127054
-0.0537329
-0.00695786
-0.0634149
-0.0976813
-0.0283073
-0.104399
-0.0627244
-0.00917326
-0.0314958
-0.00342951
-0.0782591
-0.0496393
-0.0367987
-0.033141
-0.0309464
-0.0699889
-0.0601836
-0.0769266
-0.0514657
-0.0501851
-0.117967
-0.0513033
-0.0341514
-0.0612631
-0.0699491
-0.0541916
-0.0388633
-0.0435051
-0.137826
-0.00497999
-0.167296
-0.0321973
-0.0805506
-0.0577986
-0.106296
-0.0710699
-0.0422331
-0.018099
-0.0113552
-0.0501313
-0.0869536
-0.0661402
-0.0403862
-0.210725
-0.0660129
-0.00719614
-0.0144575
-0.122325
-0.00084404
-0.0364516
-0.052633
-0.194986
-0.0570955
-0.0199002
-0.0651089
-0.0134756
-0.0547253
-0.0159571
-0.0646036
-0.0424857
-0.0460867
-0.10264
-0.0879093
-0.0892997
-0.0118863
-0.0074555
-0.0766946
-0.0142342
-0.00538359
-0.0440835
-0.180134
-0.0280315
-0.0516113
-0.0802685
-0.045286
-0.0483724
-0.0746494
-0.0394878
-0.0519421
-0.0705007
-0.00288322
-0.0369968
-0.0915506
0.000593146
-0.0468874
-0.0392915
-0.0353104
-0.0442123
-0.178576
-0.0510232
-0.00250096
-0.0145702
-0.00934725
-0.0310757
-0.117983
-0.0306399
-0.0838211
-0.0720268
-0.0395721
-0.00317579
-0.011086
-0.0740495
-0.00801185
-0.0444581
-0.102494
-0.150995
-0.0298051
-0.0386285
-0.100152
-0.0916546
-0.0464908
-0.0771424
-0.0410219
-0.0352617
-0.0467939
-0.0450551
-0.00107332
-0.0266026
-0.0460352
-0.0472883
-0.0532207
-0.0890383
-0.00609867
-0.0462844
-0.0400504
-0.00545532
-0.0503576
-0.00736431
-0.0811235
-0.038841
-0.0297978
-0.0568256
-0.0482351
-0.135825
-0.0547822
-0.0393522
-0.0813688
-0.0683249
-0.0494778
-0.0517079
-0.0383066
-0.0274466
-0.115938
-0.0559568
-0.0596062
-0.0802108
-0.0290028
-0.0922148
-0.0335626
-0.0509152
-0.0574748
-0.0912288
-0.124877
-0.0877623
-0.0194175
-0.0474173
-0.0885577
-0.0935231
-0.00297847
-0.0816955
-0.0570407
-0.0184169
-0.0417529
-0.0305033
-0.0564451
-0.0702088
-0.0601787
-0.0680529
-0.0314195
-0.0578838
-0.0282172
-0.00360432
-0.0496123
-0.0508649
-0.0707389
-0.0841439
-0.0801736
-0.0800372
-0.0588989
-0.0663359
-0.0850494
-0.0783714
-0.0171212
-0.0526461
-0.0341947
-0.0755997
-0.0729401
-0.0480675
-0.0349739
-0.028585
-0.118935
-0.0873691
-0.00972128
-0.0642723
-0.0401039
-0.0465637
-0.0246888
-0.0305267
-0.0767692
-0.0938081
-0.0390257
-0.0692151
-0.0880867
-0.0743036
-0.11198
-0.068799
-0.0289341
-0.0796096
-0.0509587
-0.0610654
-0.0637871
-0.0801999
-0.00579173
-0.0563189
-0.0512582
-0.033984
-0.078268
-0.0521538
-0.0285124
-0.0565382
-0.0272137
-0.0777774
-0.0941623
-0.0878215
-0.0780777
-0.0453312
-0.0573557
-0.110803
-0.0237015
-0.0558114
-0.074148
-0.0961159
-0.00909062
-0.0465773
-0.0662293
-0.0757349
-0.0339989
-0.13251
-0.0280971
-0.15916
-0.0751834
-0.0173149
-0.00160055
-0.185878
-0.111207
-0.0332727
-0.0836626
-0.0743702
-0.0415459
-0.0923831
-0.0519926
-0.0355435
-0.0696743
-0.0934626
-0.0611408
-0.0564012
-0.0295411
-0.0861922
-0.064777
-0.0752472
-0.100012
-0.0851272
-0.0704649
-0.0820232
-0.0504374
-0.152432
-0.0345589
-0.0762726
-0.0787989
-0.0860512
-0.0649689
-0.161527
-0.0624581
-0.0689976
-0.0122121
-0.0899484
-0.0873384
-0.0719601
-0.0395078
-0.0795741
-0.026895
-0.0873835
-0.00435985
-0.0926212
-0.0485372
-0.00198768
-0.0724967
-0.0783552
-0.0926568
-0.0960169
-0.0570097
-0.0690355
-0.0342671
-0.0345033
-0.00168719
-0.0568538
-0.180604
-0.0317098
-0.0795192
-0.0572355
-0.0384524
-0.0121981
-0.0434319
-0.00327625
-0.0476057
-0.00170274
-0.0772814
-0.0273078
-0.117258
-0.0554404
-0.0901496
-0.0874859
-0.0752085
-0.0817522
-0.0776035
-0.0781045
-0.0179191
-0.0709315
-0.120014
-0.0389022
-0.0386411
-0.083107
-0.027095
-0.0264086
-0.00519755
-0.0798577
-0.0480291
-0.0660302
-0.0300177
-0.178625
-0.010453
-0.03754
-0.0689876
-0.0303549
-0.0756364
-0.025466
-0.0788255
-0.0701567
-0.0743455
-0.108481
0.000550746
-0.0297011
-0.0380538
-0.0813109
-3.32334e-05
-0.0501879
-0.0681122
-0.0694484
-0.0913875
-0.0309343
-0.0351343
-0.0752575
-0.0375433
-0.0137397
-0.016512
-0.0807278
-0.0315696
-0.0974762
-0.0791605
-0.0504492
-0.0476881
-0.0841541
-0.0293806
-0.0466712
-0.0549451
-0.0399819
-0.0735017
-0.0445882
-0.0775412
-0.0301099
-0.0377743
-0.0678445
-0.00697795
-0.04349
-0.068089
-0.0744623
-0.0679633
-0.0840967
-0.0744647
-0.0374897
-0.074115
-0.0627298
-0.0821583
-0.0115125
-0.00231022
-0.0635456
-0.0494198
-0.0694066
-0.0541655
-0.0489747
-0.155476
-0.0357027
-0.0483039
-0.0274094
-0.0676714
-0.0618798
-0.0463416
-0.0801218
-0.0759733
-0.037805
-0.0454765
-0.00405492
-0.0819365
-0.0652351
-0.0581816
-0.02176
-0.0280442
-0.0783722
-0.0300287
-0.0441826
-0.049801
-0.0362152
-0.0184229
-0.0455791
-0.0329987
-0.0332112
-0.0745263
-0.10972
-0.076239
-0.0964584
-0.025124
-0.0590769
-0.118088
-0.0850967
0.00154402
-0.0298621
-0.050615
-0.00338352
-0.0322884
-0.0293343
-0.0773786
-0.0882747
-0.056769
-0.0154861
-0.0856228
-0.101072
-0.0912185
-0.125027
-0.0547963
-0.0518406
-0.0031397
-0.0695969
-0.0461913
-0.0941371
-0.0518359
-0.124384
-0.105857
-0.0302996
-0.00690514
-0.0688948
-0.066519
-0.0742704
-0.0288331
-0.047159
-0.0477
-0.102523
-0.027489
-0.0553285
-0.0015171
-0.0780885
-0.0280229
-0.0429208
-0.102086
-0.00327899
-0.0678376
-0.0852247
-0.0725223
-0.0492049
-0.0356733
-0.0373712
-0.062211
-0.0718924
-0.072986
-0.0674707
-0.0754523
-0.0498145
-0.0811724
-0.121828
-0.00188422
-0.130479
-0.0668435
-0.0527371
-0.0286668
-0.0523419
-0.0901713
-0.0257106
-0.0434067
-0.0333055
-0.0569602
-0.0374913
-0.00166713
-0.065619
-0.0703626
-0.0375646
-0.0689232
-0.0911111
-0.0386223
-0.0622716
-0.0316907
-0.0985877
-0.0461303
-0.0412417
-0.0524717
-0.0744522
-0.0486461
-0.0737609
-0.000741088
-0.0470003
-0.0966821
-0.0490343
-0.0548862
-0.0257356
-0.0358195
-0.00134374
-0.0687402
-0.0211573
-0.0579354
-0.0431164
-0.0840652
-0.0317673
-0.0319878
-0.0721781
-0.0590751
-0.0619536
-0.0638776
-0.0628866
-0.0373784
-0.00646786
-0.0638891
-0.0583422
-0.0540464
-0.00887931
-0.0324703
-0.061169
-0.0555772
-0.115159
-0.0584297
-0.0481905
-0.0364621
-0.0289157
-0.0556627
-0.0681557
-0.0451746
-0.0647707
-0.0576025
-0.0989028
-0.0567525
-0.0989357
-0.0833801
-0.0553963
-0.0364904
-0.0786659
-0.0337899
-0.0480914
-0.0705005
-0.0562608
-0.119148
-0.077407
-0.062704
-0.0271931
-0.00142537
-0.0615652
-0.0626697
-0.10392
-0.0463335
-0.0407984
-0.0733518
-0.100864
-0.115692
-0.0659333
-0.0359045
-0.0573977
-0.0797443
-0.0305143
-0.0715872
-0.0411806
-0.105813
-0.0810728
-0.0507639
-0.0542247
-0.0561734
-0.102421
-0.0691563
-0.0281551
-0.159146
-0.0861312
-0.0666511
-0.038179
-0.035537
-0.0279734
-0.070393
-0.0385987
-0.060111
-0.0778842
-0.0699563
-0.069283
-0.0708943
-0.0615949
-0.100087
-0.0743487
-0.0528133
-0.0140381
-0.0139085
-0.115014
-0.0354674
-0.0605627
-0.0697018
-0.0676019
-0.0648737
-0.0616422
-0.0585364
-0.0640123
-0.0590969
-0.0666776
-0.00134573
-0.114281
-0.0144631
-0.0484242
-0.0559992
-0.0285422
-0.0928827
-0.0533356
-0.0553412
-0.0531921
-0.00864159
-0.0616461
-0.039331
-0.0840509
-0.0415529
-0.0510982
-0.0849537
-0.0717837
-0.0551221
-0.0519512
-0.0581428
-0.0506586
-0.0763811
-0.0759919
-0.0562122
-0.110781
-0.111575
-0.0650658
-0.0175582
-0.0331952
-0.0584255
-0.0500924
-0.126808
-0.0731949
-0.0814691
-0.0408708
-0.045867
-0.0325318
-0.0679958
-0.0144379
-0.0509118
-0.0328124
-0.088058
-0.0701092
-0.038135
-0.0277009
-0.065493
-0.08583
-0.073702
-0.0475749
-0.0831753
-0.0256115
-0.0531787
-0.057211
-0.0496087
-0.0794378
-0.0756921
-0.0408728
-0.0329759
-0.0616865
-0.0669712
-0.0350039
-0.112901
-0.0473692
-0.0180157
-0.0686758
-0.00352057
-0.0434823
-0.0702212
-0.0672585
-0.0238639
-0.0476028
-0.0775114
-0.00652639
-0.064507
-0.0605161
-0.0334031
-0.0281902
-0.0480441
-0.0694054
-0.111889
-0.0327865
-0.137251
-0.0644902
-0.053891
-0.0538856
-0.0673119
-0.053448
-0.0682622
-0.0534627
-0.0451119
-0.0619855
-0.0547808
-0.031927
-0.0530221
-0.0355688
-0.00553499
-0.0105141
-0.0568211
-0.0568655
-0.0791587
-0.0312207
-0.0544281
-0.0659263
-0.0348088
-0.060498
-0.169218
-0.0690628
-0.0751507
-0.0346163
-0.0540091
-0.129025
-0.0517167
-0.0420956
-0.126993
-0.0700058
-0.0376666
-0.0551256
-0.00160087
-0.0349796
-0.0674712
-0.0738276
-0.0675558
-0.141699
-0.0657015
-0.196036
-0.0359644
-0.0674375
-0.062235
-0.0113621
-0.0455539
-0.0608957
-0.0581428
-0.0955136
-0.0481117
-0.0435754
-0.0356823
-0.00605122
-0.0602534
-0.0674022
-0.0671535
-0.0412199
-0.0463922
-0.0757577
-0.127572
-0.0414933
-0.0402365
-0.0655165
-0.0587545
-0.067876
-0.0370999
-0.0282916
-0.0494927
-0.0858501
-0.126388
-0.00653354
-0.0328624
-0.0462224
-0.0564622
-1.35507e-05
-0.0585629
-0.014202
-0.0741805
-0.0598674
-0.0253593
-0.00135654
-0.0229602
-0.0637842
-0.0588857
-0.0480635
-0.0749741
-0.0395059
-0.0309195
-0.0633244
-0.0622999
-0.0634515
-0.0934133
-0.105005
-0.0772604
-0.0310326
-0.0259627
-0.0816225
-0.0390536
-0.063287
-0.0563198
-0.0392226
-0.0445417
-0.0579499
-0.0328295
-0.0444456
-0.0415796
-0.11885
-0.0617051
-0.0414015
-0.0485492
-0.0695392
-0.0634732
-0.0479529
-0.0282303
-0.0611922
-0.0791005
-0.06933
-0.109502
-0.0952973
-0.0259955
-0.0291027
-0.0366793
-0.0485094
-0.0283322
-0.00872241
-0.00410575
-0.0620367
-0.0551144
-0.0344213
-0.0783333
-0.0162225
-0.0559
-0.0828766
-0.0619719
-0.0669635
-0.0419193
-0.0444123
-0.00691723
-0.0912974
-0.0772879
-0.0612624
-0.119198
-0.0455015
-0.0623483
-0.0453306
-0.0417769
-0.014244
-0.0531976
-0.0616335
-0.0738386
-0.0633294
-0.00666194
-0.0667419
-0.0277886
-0.0539094
-0.0422274
-0.0662683
-0.0717616
-0.0535361
-0.0609863
-0.0326671
-0.0612965
-0.11918
-0.00754712
-0.0351891
-0.0286592
-0.0409843
-0.0480623
-0.0449693
-0.0635222
-0.0583422
-0.0766324
-0.0383534
-0.0554589
-0.0293473
-0.00369356
-0.055579
-0.0195781
-0.213326
-0.0841727
-0.0593147
-0.0766909
-0.0556845
-0.042606
-0.0596707
-0.0275812
-0.0398771
-0.0145275
-0.0442432
-0.0519339
-0.0667064
-0.0570341
-0.0473846
-0.0507224
-0.00754696
-0.0703054
-0.0670596
-0.0406838
-0.036987
-0.0913902
-0.0810614
-0.0604534
-0.211236
-0.0656954
-0.0393649
-0.026036
-0.0406377
-0.0656703
-0.0246894
-0.0661686
-0.042557
-0.0807404
-0.04822
-0.0647831
-0.0315089
-0.0820234
-0.0306294
-0.0623947
-0.0388343
-0.0608122
-0.0711652
-0.00180296
-0.0460628
-0.0544882
-0.104053
-0.0484534
-0.0219488
-0.0427312
-0.0423816
-0.0365231
-0.0258439
-0.0572035
-0.0696757
-0.0734298
-0.0536929
-0.0465514
-0.0305677
-0.0779649
-0.0595484
-0.0550232
-0.06163
-0.0613425
-0.0290171
-0.0329261
-0.0470606
-0.0365301
-0.0392681
-0.0607098
-0.0385257
-0.0419309
-0.0457076
-0.0156843
-0.067331
-0.0173727
-0.0726782
7.9955e-05
-0.0460278
-0.0738868
-0.0718861
-0.0613131
-0.0481529
-0.0341867
-0.05482
-0.054604
-0.0404237
-0.0481169
-0.104502
-0.216355
-0.0526505
-0.0386233
-0.0401584
-0.0467779
-0.0565164
-0.0400757
-0.0716589
-0.0694424
-0.081727
-0.185468
-0.0675079
-0.0483104
-0.0435242
-0.0625483
-0.0403928
-0.0333041
-0.0143086
-0.0852493
-0.0281585
-0.114061
-0.0850694
-0.0542356
-0.0428673
-0.052207
-0.047756
-0.0557578
-0.0370316
-0.0627379
-0.0579007
-0.0457202
-0.0277517
-0.0585513
-0.0538691
-0.00630894
-0.12755
-0.063755
-0.0424999
-0.0485923
-0.0566836
-0.0501586
0.000363565
-0.0553307
-0.0677909
-0.103009
-0.0683862
-0.0627478
-0.0239412
-0.0580096
-0.0319907
-0.0284081
-0.0443804
-0.065969
-0.0442898
-0.0491838
-0.0743243
-0.0554201
-0.0444954
-0.0655278
-0.103621
-0.00216736
-0.0446392
-0.0495414
-0.0777575
-0.202179
-0.0454954
-0.0827022
-0.0460759
-0.0258044
-0.0465256
-0.0427873
-0.0308943
-0.0446849
-0.00119695
-0.085802
-0.039295
-0.0506168
-0.0471949
-0.0308805
-0.0304406
-0.0456441
-0.0496455
-0.0448935
-0.0368794
-0.0721174
-0.0303404
-0.0452042
-0.0566425
-0.0340712
-0.0752262
-0.038532
-0.0352312
-0.0492581
0.000551464
-0.0441105
-0.00401346
-0.0470687
-0.0068399
-0.0634719
-0.0421045
-0.0474331
-0.063521
-0.0649785
-0.0327133
-0.0420527
-0.0109653
-0.0044016
-0.000394197
-0.0459916
-0.0499913
-0.00764209
-0.0342429
-0.0807491
-0.0484075
-0.0615501
-0.0663277
-0.0127581
-0.105979
-0.0419154
-0.0845077
-0.053705
-0.101939
0.00101657
-0.0339704
-0.0347161
-0.0471116
-0.040752
-0.0643999
-0.0684977
-0.0616203
-0.0334503
-0.00093089
-0.04008
-0.0368281
-0.104486
-0.097536
-0.194074
-0.0447491
-0.0689641
-0.0736775
-0.0779861
-0.00250329
-0.0487209
-0.041113
-0.0735725
-0.102331
-0.0908858
-0.0417521
-0.0823242
-0.0706816
-0.0493506
-0.0327568
-0.026374
-0.0665572
-0.0682601
-0.105873
-0.0591111
-0.0465257
-0.0490679
-0.0401867
-0.0469333
-0.0393274
-0.0747515
-0.0446869
-0.0413234
-0.0394131
-0.0531012
-0.0548892
-0.0322597
-0.0446747
-0.0486875
-0.0460065
-0.056496
-0.0408693
-0.0448579
-0.0726666
-0.0113649
-0.0276992
-0.0512571
-0.0516533
-0.0469864
-0.0465503
-0.0487548
-0.0623061
-0.0780806
-0.0415202
-0.0378569
-0.0470228
-0.0596803
-0.0414882
-0.0823467
-0.0417722
-0.0169531
-0.0266432
-0.0418916
-0.0675476
-0.0449437
-0.0411075
-0.0445767
-0.0375156
-0.0376614
-0.0351001
-0.103332
-0.0493134
-0.0401926
-0.026677
-0.0577893
-0.0377887
-0.0359529
-0.075939
-0.10626
-0.10417
-0.0598128
-0.037145
-0.0806799
-0.0599175
-0.0275182
-0.0423617
-0.0398403
-0.0692755
-0.0578367
-0.0158523
-0.0360775
-0.0558637
-0.041038
-0.0374115
-0.039449
-0.0480882
-0.0988006
-0.0433666
-0.00480259
-0.0439597
-0.0880618
-0.0269608
-0.0596013
-0.0790418
-0.0445289
-0.0271014
-0.0608232
-0.0297504
-0.0772102
-0.0443438
-0.066056
-0.0479935
-0.0512152
-0.00500039
-0.0526805
-0.036192
-0.0765249
-0.00145522
-0.0728725
-0.0129848
-0.0408593
-0.0429995
-0.0191589
-0.0441481
-0.072677
-0.120978
-0.0669801
-0.0404051
-0.0438023
-0.0558471
-0.047872
-0.0365515
-0.041677
-0.0411342
-0.0458264
-0.032816
-0.0342365
-0.0470313
-0.0424646
-0.0422099
-0.0438197
-0.0230609
-0.0411029
-0.0481179
-0.0412344
-0.0446629
-0.0653589
-0.0536533
-0.0638307
-0.0413508
-0.0254391
-0.0113238
-0.0454449
-0.0265478
-0.0389806
-0.0412167
-0.0425115
-0.0211029
-0.0663534
-0.0382908
-0.029579
-0.0629576
-0.0445209
-0.0409838
-0.036535
-0.0666379
-0.0513586
-0.0148257
-0.0588904
-0.0335376
-0.0407982
-0.0409699
-0.0349599
-0.019414
-0.0496486
-0.0193014
-0.103333
-0.0711962
-0.04087
-0.0402776
-0.00781253
-0.0368058
-0.0420848
-0.0105664
-0.0434811
-0.0475877
-0.0447326
-0.0396709
-0.0457039
-0.0672601
-0.0413687
-0.0111197
-0.0444469
-0.0738492
-0.0419017
-0.0447049
-0.0340809
-0.0415025
-0.000466168
-0.0502142
-0.064723
-0.0401605
-0.00157288
-0.0447634
-0.0383643
-0.0415425
-0.0466979
-0.0562821
-0.0347234
-0.0337373
-0.0453748