/*--------------------------------*- C++ -*----------------------------------*\
| =========                 |                                                 |
| \\      /  F ield         | OpenFOAM: The Open Source CFD Toolbox           |
|  \\    /   O peration     | Version:  v2012                                 |
|   \\  /    A nd           | Website:  www.openfoam.com                      |
|    \\/     M anipulation  |                                                 |
\*---------------------------------------------------------------------------*/
FoamFile
{
    version     2.0;
    format      ascii;
    class       volVectorField;
    location    "350";
    object      U_0;
}
// * * * * * * * * * * * * * * * * * * * * * * * * * * * * * * * * * * * * * //

dimensions      [0 1 -1 0 0 0 0];


internalField   nonuniform List<vector> 
10042
(
(1.05351 0.0370762 -4.43815e-21)
(0.888282 0.240875 -1.72879e-20)
(0.958249 0.0378749 -8.81071e-21)
(1.01779 0.00187867 -4.17102e-20)
(1.01318 0.000604237 2.89205e-20)
(1.01342 0.258732 -7.34693e-21)
(0.784246 -0.138537 0)
(0.867593 -0.18403 2.19575e-21)
(1.01327 -0.00146673 0)
(1.09211 0.0436129 -2.8851e-20)
(0.950182 0.0395792 -1.07926e-20)
(0.869043 0.243633 -1.72208e-20)
(1.03865 -0.00437442 0)
(1.01321 -0.00273078 0)
(1.02987 -0.000656334 0)
(1.01364 -0.0029493 0)
(0.957434 0.26965 8.14402e-21)
(0.956154 0.0473187 0)
(1.04249 0.000658996 -9.65346e-21)
(1.01624 0.0375668 -1.51187e-20)
(1.03984 -0.00597802 5.85704e-20)
(1.04707 0.0406279 -4.18624e-21)
(1.01757 0.00182295 3.94899e-20)
(0.966116 -0.227156 -1.00055e-20)
(1.01489 0.00281323 -1.62606e-20)
(1.01021 -5.40114e-05 0)
(1.08551 0.043398 3.3606e-20)
(1.01314 -0.000806766 -6.02089e-21)
(0.988829 0.275148 0)
(0.952325 -0.212959 -5.38477e-21)
(1.00919 0.000199058 -1.48952e-20)
(1.03637 0.0205435 -1.37e-20)
(1.01337 -0.0013642 1.37688e-20)
(1.01328 -0.00126599 0)
(0.851468 -0.154767 -5.77559e-21)
(0.892194 -0.114928 -2.18845e-22)
(1.01894 0.000400705 -1.72664e-20)
(1.01178 -0.000340109 0)
(1.01069 0.000366774 3.14959e-20)
(1.02637 -0.00324293 0)
(0.959974 -0.215098 0)
(1.01319 -0.00135499 0)
(0.953246 -0.0546215 3.29482e-21)
(0.871079 0.17426 -6.10765e-21)
(1.0165 0.00312895 -3.97874e-20)
(1.01491 0.00278684 -2.17194e-20)
(1.01396 -0.000314999 0)
(1.02928 -0.000556037 -4.90031e-20)
(1.09771 -0.0163316 3.15144e-20)
(0.445515 -0.0111265 -2.31392e-20)
(0.923844 -0.05868 0)
(1.01508 0.00141606 -1.63128e-20)
(0.975208 0.267278 0)
(1.04206 0.000713752 0)
(0.725151 -0.187463 0)
(0.430418 0.0201061 -1.76321e-21)
(1.04175 -0.00535069 -3.00913e-20)
(0.982069 0.0205423 9.1565e-21)
(1.03033 0.00493256 0)
(1.01569 -0.000774187 5.78616e-23)
(1.10223 -0.00937168 0)
(0.714893 -0.22886 0)
(0.966146 -0.0472329 -1.01909e-19)
(0.866389 -0.176561 -4.28663e-21)
(0.966102 -0.0143766 -8.04962e-21)
(1.01631 3.77786e-05 -4.07347e-23)
(1.01217 0.0335428 0)
(1.06399 0.00416286 -2.88969e-21)
(1.01407 -0.000289131 -1.40332e-21)
(1.06647 0.0140759 2.6967e-21)
(0.775998 -0.0196436 0)
(1.02867 0.0189231 2.08604e-20)
(1.01321 -9.82186e-05 5.23521e-21)
(1.02987 0.00447096 3.32814e-20)
(1.01639 0.000396708 1.76237e-20)
(0.849252 -0.034661 1.93907e-21)
(0.983134 0.0274144 -9.77077e-21)
(1.01399 -0.000303776 1.76291e-21)
(0.984762 0.0326541 5.15641e-21)
(1.04276 0.000455136 3.13614e-20)
(0.877932 0.188342 -6.72007e-21)
(0.959338 -0.22459 2.14288e-21)
(1.00617 0.000147851 -3.31022e-20)
(1.01378 0.00102531 3.88215e-20)
(1.05147 0.0545439 2.08513e-20)
(1.16373 -0.0284969 0)
(1.01207 0.030901 -1.61205e-20)
(0.954286 0.0307434 8.7606e-21)
(1.01466 0.00360635 -3.40124e-20)
(0.976404 0.00973377 0)
(1.04243 -3.97817e-05 -2.89479e-20)
(1.03014 -0.00113672 0)
(0.974863 -0.0514148 8.82384e-20)
(1.16577 -0.0284374 -1.32277e-20)
(0.976952 -0.0348199 -3.18045e-20)
(1.0197 0.00736255 -6.28689e-20)
(0.00908335 0.33278 3.01636e-22)
(1.01549 0.0348036 0)
(0.809127 0.119248 -1.24027e-20)
(1.02965 0.00365605 -3.3396e-20)
(1.04313 4.74378e-05 1.29819e-20)
(1.12122 0.0527114 -6.12189e-21)
(1.02691 0.0116797 1.47706e-20)
(1.04256 0.0151454 1.34375e-20)
(1.04355 0.00110061 -2.2284e-20)
(1.02586 0.00880914 2.89948e-20)
(0.861634 -0.409341 1.19671e-20)
(1.01586 0.00095089 -3.34941e-20)
(0.78419 -0.145438 0)
(1.02665 0.00906234 3.93198e-23)
(1.02881 0.00520249 0)
(0.906283 -0.119351 0)
(1.1127 0.0560337 0)
(0.857415 -0.152761 2.6116e-21)
(0.974212 -0.0152054 -3.19008e-20)
(1.01424 -0.00026792 -1.02398e-20)
(1.06334 -0.0207993 2.31207e-20)
(1.01004 0.000286308 0)
(0.984703 0.0162197 9.79464e-21)
(1.01423 -0.000380168 7.10917e-21)
(1.0157 -0.000862241 -1.63025e-23)
(0.821963 0.185939 7.72953e-21)
(0.801762 0.183859 2.29331e-20)
(1.01664 0.00337867 2.00305e-20)
(0.975733 0.0157037 -2.0926e-20)
(1.01519 0.00431461 3.01727e-20)
(1.01571 0.00455401 1.0034e-20)
(0.690939 -0.224212 3.11516e-20)
(0.942518 0.0361567 -6.0068e-20)
(1.06603 -0.0157885 4.2965e-20)
(1.01214 -0.000609228 1.74223e-20)
(1.01657 0.00135617 2.04827e-20)
(1.01535 0.0066123 0)
(1.01499 0.00237288 2.01585e-20)
(0.91729 -0.117772 6.97979e-20)
(0.70264 -0.0508696 -5.12823e-20)
(1.00389 0.028073 -1.66206e-20)
(0.923531 -0.36714 -3.37494e-20)
(1.03918 0.00294103 -5.54703e-20)
(0.816381 0.132288 -1.39414e-21)
(1.00463 -0.0292641 -2.85749e-20)
(1.01191 -0.000229209 1.5641e-20)
(0.858625 -0.415141 -9.24949e-21)
(1.01299 -0.000728378 0)
(1.05138 0.00833562 2.38763e-20)
(1.01189 -0.000354943 -5.36096e-21)
(1.04966 0.0515773 -2.10706e-20)
(1.01404 -0.000303848 0)
(1.02151 0.0185864 3.3416e-20)
(0.976039 -0.0138007 2.37728e-22)
(1.01596 0.00118655 -1.85527e-20)
(1.01057 -0.000125803 -1.66164e-20)
(1.04053 0.00285843 -2.1658e-20)
(1.03313 -0.00617922 1.34523e-22)
(0.986354 -0.032406 0)
(1.0524 0.0093362 -1.29842e-20)
(0.949128 0.0281643 4.743e-20)
(0.505629 -0.0150238 -1.18717e-20)
(1.0161 0.00657121 -1.62841e-20)
(1.00827 -0.000217327 0)
(1.01239 0.000426765 6.21151e-20)
(1.0276 -0.00246022 -4.38514e-22)
(0.685256 -0.0659163 0)
(1.01509 0.00383609 -3.38863e-20)
(1.03712 0.00295978 0)
(0.973089 0.054843 9.94122e-22)
(1.01316 -4.89161e-05 -4.45959e-21)
(1.03978 0.0160946 1.15387e-20)
(0.874839 -0.133686 6.05083e-22)
(1.0133 -0.0011349 0)
(0.994431 -0.0452269 7.38037e-21)
(0.947918 -0.2079 0)
(0.759812 0.0733512 -3.95903e-20)
(1.01342 -0.0012362 -1.4674e-20)
(1.04204 0.00096362 0)
(0.779215 0.121354 3.74139e-20)
(1.01532 0.00346563 -1.17638e-20)
(1.01189 -0.000392685 4.53124e-21)
(1.01631 0.00154487 -1.81089e-20)
(1.01403 -0.000297396 0)
(1.03859 0.00318197 3.51926e-20)
(1.04495 0.00165963 0)
(1.03015 0.00400117 -3.5522e-20)
(1.01407 -0.000395933 1.71307e-21)
(1.07029 -0.00574457 -5.13582e-22)
(1.04276 0.00320047 1.39111e-20)
(1.03017 0.0185122 3.81932e-20)
(1.01553 -0.000629419 -5.60052e-22)
(0.412468 0.0769071 5.4405e-20)
(1.01021 0.000158904 -1.289e-20)
(0.894739 0.261274 1.95634e-20)
(1.0434 -0.00645333 0)
(1.01218 -0.000575584 -3.61791e-20)
(1.04447 0.0019391 0)
(0.674118 -0.228145 2.34629e-21)
(1.02985 -0.00148684 -1.97287e-20)
(0.904635 0.127155 2.87979e-20)
(1.01445 -0.0455301 2.13291e-22)
(0.166453 0.352176 -4.55022e-22)
(1.0139 0.00095341 0)
(0.924571 0.0427605 8.12387e-21)
(0.987884 -0.0370328 2.15386e-20)
(0.994927 -0.11667 1.35624e-20)
(1.01295 -0.000238106 -2.18015e-20)
(0.820517 0.145493 5.2159e-21)
(1.01483 0.00595724 0)
(1.02251 -0.180618 1.19057e-20)
(1.03509 -0.00672444 0)
(1.02806 0.00525087 3.97206e-22)
(1.0148 0.00251514 -1.37855e-20)
(1.03939 0.0194066 -1.31979e-20)
(1.01326 -0.000255604 1.57577e-20)
(0.989556 -0.128787 0)
(0.987071 -0.106737 0)
(1.0182 0.000379782 2.47585e-20)
(1.06421 0.00706033 1.07991e-20)
(1.01323 -0.000197619 1.07987e-20)
(0.764376 -0.0840262 0)
(1.01691 0.00098392 -2.35911e-21)
(0.928211 0.0330607 0)
(0.708629 0.181664 6.73772e-20)
(1.0036 -0.0403568 0)
(0.611285 0.211245 -4.38289e-20)
(1.06567 0.0141138 -1.49636e-20)
(1.01789 0.00200767 2.55108e-20)
(0.979309 -0.0343153 1.29493e-20)
(1.0197 0.0147589 -3.57075e-20)
(1.00461 0.0257353 1.75107e-20)
(1.07506 0.0376317 -9.82429e-21)
(1.02784 0.0114976 2.99236e-20)
(1.01197 -0.000409565 9.37461e-21)
(1.01587 0.00502424 -9.91576e-21)
(1.04226 0.00277292 1.43018e-20)
(1.00823 0.000246176 0)
(1.0152 0.00335951 1.21889e-20)
(0.878267 -0.175113 1.38856e-21)
(1.00224 0.0181394 -3.28234e-20)
(0.0463048 0.342595 -1.85764e-21)
(1.04942 0.00881482 5.46585e-20)
(0.980063 -0.220058 7.69595e-21)
(0.826423 -0.157805 3.46383e-20)
(0.901881 -0.157656 2.37963e-20)
(1.01585 -0.000946027 0)
(1.02926 -0.00348107 1.52283e-22)
(0.865163 0.0500455 -2.30934e-20)
(1.0132 0.000623892 0)
(0.911474 -0.141182 0)
(1.04832 0.00989008 -3.7659e-20)
(1.0412 0.00288546 -8.37987e-23)
(1.01251 0.000427566 0)
(1.04319 0.00131509 6.17807e-20)
(1.01223 -0.000629861 1.88078e-20)
(1.12061 0.091324 0)
(0.925908 0.017711 -5.54958e-21)
(1.02072 0.0174071 -7.0779e-23)
(1.0034 0.0165879 -1.54415e-20)
(1.00931 0.000137712 2.69052e-20)
(1.01669 0.0172617 0)
(-0.0113497 0.31992 0)
(1.01637 0.00124986 -2.28273e-21)
(0.969275 0.00585098 -1.71216e-20)
(1.01198 -0.000268937 1.91888e-20)
(1.01492 0.00137654 0)
(1.01398 -0.000338842 0)
(1.03693 -0.00453014 0)
(0.988508 0.105991 0)
(0.970483 -0.00106195 4.88657e-20)
(1.11878 0.086228 2.03879e-20)
(1.00479 -9.99276e-05 -3.57291e-21)
(1.0156 0.00534915 -1.15603e-20)
(1.02259 0.000472003 -2.90894e-20)
(0.50529 -0.0316882 -2.55313e-20)
(1.01154 -0.000328983 -2.8584e-20)
(0.6648 0.0229173 -6.78653e-20)
(1.01656 0.0159637 1.36512e-20)
(0.985482 0.00031819 -3.66735e-20)
(1.03798 -0.00113654 0)
(1.01565 0.00315488 0)
(1.00472 -2.3838e-05 1.86203e-20)
(0.671447 -0.212503 0)
(1.01321 -0.000903899 2.43015e-20)
(0.857519 -0.136287 -1.80801e-20)
(0.923105 0.133972 -3.14164e-20)
(1.03731 -0.00105156 9.07264e-21)
(1.01536 8.19068e-05 -8.86509e-21)
(0.233493 0.317987 0)
(1.06506 0.00840209 4.50354e-20)
(1.01466 -0.000397578 -1.36626e-21)
(1.03118 0.0442843 7.33155e-21)
(1.0096 -7.38075e-05 -1.13112e-20)
(1.04634 -0.00594833 0)
(1.04708 0.00903383 -2.51274e-20)
(1.01437 0.000207942 0)
(0.858385 -0.182022 0)
(0.963235 -0.00643679 -4.32367e-20)
(1.01529 -0.00267812 0)
(0.987129 0.134229 4.20882e-20)
(1.0026 0.0228984 -1.48564e-20)
(1.02271 0.000260972 0)
(1.01314 -0.000203117 -5.65873e-21)
(1.03998 0.00323928 2.01635e-20)
(0.979163 -0.117599 -1.37043e-20)
(1.01558 -0.000631725 0)
(0.804455 -0.133652 -7.23975e-21)
(1.06485 0.00218247 -2.6086e-20)
(0.756929 -0.194866 0)
(1.01128 -0.000819357 -3.98867e-20)
(1.03084 -0.00228269 -4.07213e-23)
(0.978178 0.141029 -4.41538e-20)
(0.842482 -0.164975 6.31692e-21)
(1.01744 0.000145412 0)
(1.01518 0.00228974 0)
(1.01994 0.00700224 3.26441e-20)
(1.01488 -0.0026417 8.47846e-21)
(1.04567 0.0128776 2.52473e-20)
(1.02357 0.043821 2.52499e-21)
(1.01393 -0.000349072 0)
(1.06786 -0.00170105 0)
(0.994428 -0.197056 -1.9379e-20)
(1.0142 -0.00030984 1.01121e-20)
(1.00777 -0.000118003 0)
(0.583065 0.0368331 4.7478e-20)
(0.988742 -0.00162415 3.80578e-20)
(1.02409 -0.0925371 -1.26842e-20)
(1.06879 -0.0335995 2.719e-22)
(1.01722 0.000256148 0)
(1.03083 -0.0171969 -2.77967e-20)
(1.01645 0.00163976 2.01439e-20)
(1.00368 0.0209483 6.45811e-20)
(1.04714 -0.00470141 -3.09216e-20)
(1.01415 0.00591234 -3.43946e-20)
(1.02444 0.00543273 0)
(1.05422 0.027824 1.05071e-20)
(1.00969 -6.92924e-05 -2.01463e-23)
(1.00808 -0.199894 1.54597e-20)
(1.03683 0.0519218 0)
(0.67285 -0.327752 0)
(1.0295 -0.0802383 -3.27378e-21)
(1.01227 -0.000573782 0)
(1.00277 0.0999542 -1.14319e-21)
(1.00899 -0.0361429 -1.03667e-20)
(1.04584 -0.00981427 -2.30489e-20)
(1.01589 -0.00102968 -8.79166e-22)
(1.02142 -0.0223526 2.05154e-20)
(1.01167 0.00036243 1.00335e-21)
(1.01199 -0.000466998 8.91859e-21)
(1.01159 0.00052767 -2.91144e-20)
(1.01389 0.000686728 6.60551e-20)
(1.03007 0.0132934 -3.92648e-20)
(0.102678 0.351157 2.23366e-21)
(1.03383 -0.000710577 -1.91266e-20)
(0.97143 -0.0291943 0)
(1.02808 0.0150565 0)
(1.02114 -0.00305943 -1.44464e-20)
(0.710007 -0.231565 -1.5101e-20)
(1.03306 -0.0208707 2.69222e-20)
(1.02086 0.0149921 7.10269e-21)
(1.00363 0.000108253 2.90474e-20)
(0.852043 0.0658349 -8.24812e-21)
(1.00449 1.52659e-05 -7.44887e-22)
(1.02573 0.00809078 2.71741e-20)
(1.01882 0.000371815 5.62237e-20)
(1.03703 0.00355707 -3.64082e-20)
(0.968641 -0.16483 -1.0073e-21)
(0.996983 0.159345 3.97638e-21)
(1.03782 0.00270156 -2.36266e-21)
(1.01423 0.000911144 0)
(1.02358 0.0151758 1.8896e-20)
(1.0256 0.0140545 0)
(0.685878 -0.254706 -4.02788e-20)
(1.01557 -0.00070743 0)
(1.00763 0.000191564 3.12231e-20)
(1.01131 -0.000293273 4.4434e-20)
(1.01123 -0.000229543 3.12184e-22)
(1.15001 -0.0173211 2.87299e-20)
(1.01023 -3.50784e-05 -3.03096e-20)
(0.985966 0.00644028 1.93434e-20)
(0.888223 -0.175974 -2.61587e-20)
(1.00848 0.284746 -1.94736e-20)
(1.1385 -0.0231968 0)
(1.0243 0.00686603 0)
(0.869688 -0.176999 -2.86024e-20)
(1.07187 0.0428486 9.7041e-21)
(1.0162 0.00175582 -3.73375e-20)
(1.02022 -0.000437611 4.86565e-20)
(1.01425 -0.000311935 0)
(1.01342 0.000601554 -3.33808e-20)
(1.01417 -0.000412872 -5.59444e-21)
(1.01946 0.00355888 -1.18319e-20)
(1.01451 -0.000458964 0)
(1.01529 0.0151845 -3.91235e-20)
(0.168748 0.208422 1.73744e-20)
(1.0337 -0.000230519 -3.79254e-20)
(1.04008 -0.0113347 -2.52236e-20)
(1.02409 0.187127 6.42413e-21)
(0.920401 -0.00645005 0)
(1.01919 0.00206469 -4.22395e-20)
(0.848963 -0.158757 5.85433e-21)
(1.01812 7.36615e-05 8.35336e-20)
(1.03369 0.0182198 0)
(1.01525 0.00129682 5.12505e-20)
(0.395372 0.286151 1.10941e-20)
(1.00771 -0.00375961 -3.93722e-22)
(0.740971 -0.187054 2.27856e-20)
(0.00518735 0.310484 2.5988e-22)
(1.02125 -0.00364752 1.55113e-20)
(1.01713 -0.0345 5.40328e-21)
(1.02454 -0.0059626 -3.55804e-21)
(0.843951 -0.143428 -2.00076e-20)
(1.01533 0.013978 -1.28125e-20)
(0.936057 0.202422 0)
(1.05182 0.00312918 0)
(0.882728 -0.160381 3.74251e-20)
(1.03296 -3.43234e-05 4.55569e-21)
(0.91721 -0.153461 3.15159e-21)
(1.02247 -0.00356977 0)
(1.05671 0.0092526 -4.00639e-20)
(0.68202 -0.253766 0)
(1.01392 -0.000479249 0)
(1.02126 -0.00296838 -1.6734e-22)
(1.01046 -7.0704e-05 -2.41344e-20)
(1.01366 0.226553 0)
(1.01206 -0.000492397 0)
(1.01408 -0.000438257 -1.7823e-21)
(0.996987 -0.0292308 -2.45533e-20)
(1.01592 -0.00967101 5.39264e-20)
(1.06288 0.0522808 -3.52779e-20)
(0.943959 0.19381 -1.62897e-20)
(1.0162 0.00124372 6.69417e-20)
(1.04359 -0.00900595 -7.80476e-21)
(1.01728 -0.00898009 -5.10659e-20)
(1.0141 -0.000320418 9.67878e-21)
(1.05265 0.00378703 2.73138e-20)
(0.912821 -0.135149 0)
(1.02314 -0.00601799 1.97886e-21)
(1.03622 0.00373335 0)
(0.597763 -0.287741 8.92148e-20)
(0.982814 0.00952726 1.98818e-20)
(1.00797 -6.28931e-05 1.51134e-21)
(0.306865 0.098658 -9.79669e-23)
(1.0128 -0.000647898 0)
(1.04088 0.0137542 -4.32626e-20)
(0.980494 0.0266837 4.22352e-21)
(0.486628 0.0723 -4.35624e-20)
(0.614357 -0.0290662 8.5723e-20)
(1.07036 0.0066157 -4.20541e-23)
(0.929946 -0.142453 1.40433e-20)
(0.792381 -0.0846665 0)
(0.861339 -0.181707 -3.05621e-21)
(1.01416 -0.000552603 0)
(0.989603 -0.00703111 -3.76039e-20)
(0.953189 0.125468 0)
(0.947294 0.11729 2.02445e-20)
(1.02326 -0.000834017 -6.06302e-20)
(1.01753 0.00163026 -2.58433e-20)
(1.01148 0.000642842 5.98741e-20)
(0.978126 -0.0217395 -3.09365e-20)
(0.17536 0.205948 -1.85889e-20)
(1.01412 -0.000383156 0)
(1.02169 -0.00278289 1.13218e-21)
(1.01021 0.000349015 8.54054e-21)
(1.01878 0.00226208 4.78831e-20)
(1.00918 -0.000247617 1.86532e-20)
(1.00872 0.000562785 -1.85781e-20)
(1.0188 0.00361722 2.51623e-20)
(1.00922 0.00011025 0)
(1.04511 0.0510314 0)
(1.03752 -0.00214628 2.1736e-20)
(1.03965 0.0170162 0)
(0.987392 -0.0431551 2.25694e-20)
(0.784489 -0.0944843 0)
(1.01595 -0.00194583 -2.37117e-20)
(0.283039 0.268834 -2.79741e-21)
(0.538818 -0.26767 -4.61365e-20)
(0.792352 -0.0101768 6.49283e-21)
(1.01022 -7.68508e-05 0)
(1.04657 0.00270804 0)
(1.00889 -0.000139311 0)
(0.964332 0.0174548 -1.28811e-20)
(1.02356 0.00112311 -2.18144e-20)
(1.02234 -0.0396342 -2.80891e-20)
(1.03284 0.000437104 -4.47924e-21)
(0.813793 0.10634 1.31397e-20)
(1.01149 -0.000170927 -1.85552e-20)
(1.0431 0.00112306 4.54935e-20)
(1.02181 -0.00230996 3.13797e-22)
(0.992859 -0.00791744 -9.35728e-21)
(0.883309 0.195249 -7.13003e-21)
(1.00935 -6.02402e-05 0)
(1.01241 0.000585312 1.68626e-20)
(1.01505 0.00249138 0)
(0.846732 0.220557 -7.38512e-20)
(1.01199 -0.000283494 -1.95129e-20)
(1.02519 -0.0299664 0)
(0.947754 0.0069267 -3.2723e-20)
(1.02341 -0.0394636 -5.35797e-21)
(1.02007 -0.00277378 0)
(1.02269 -0.0346135 3.33823e-21)
(0.86331 -0.204127 0)
(0.586908 -0.194811 4.15517e-20)
(1.02694 0.00462352 0)
(1.01127 0.000341057 -3.31271e-20)
(0.874446 -0.142032 -4.2844e-20)
(0.832427 0.215501 4.39377e-20)
(1.07031 -0.0104528 3.02297e-20)
(1.11455 0.0658171 0)
(1.01003 0.000247782 0)
(1.06007 0.00556053 9.20137e-22)
(1.05852 0.0366332 0)
(1.05816 0.022552 0)
(1.04516 0.00988211 -2.35503e-21)
(1.01455 -0.177906 -1.26853e-20)
(1.01948 -0.0029688 7.25992e-21)
(1.0172 0.00159957 0)
(1.0282 0.00886105 0)
(0.857902 -0.209064 0)
(1.01696 0.0032344 0)
(0.863672 -0.154147 4.70405e-20)
(1.01862 0.00216513 -4.64942e-20)
(1.02649 0.0033283 0)
(1.01529 -0.00237792 -1.74518e-20)
(1.05658 0.0117178 2.07408e-20)
(1.11123 0.0260272 1.6388e-20)
(1.02818 0.0107369 -3.72362e-20)
(1.03601 0.00432819 3.73621e-20)
(1.06604 -0.108542 1.33312e-20)
(1.00707 -0.0465418 0)
(1.03221 0.0625791 0)
(1.02793 0.0101579 0)
(1.01674 0.000787509 4.35885e-20)
(1.0631 0.00298275 -1.33523e-21)
(0.610696 -0.173098 -5.12888e-20)
(1.02495 0.00712008 3.28973e-21)
(1.01538 -0.000700072 0)
(0.955981 0.00274743 -7.99999e-21)
(1.01995 0.00781845 1.68162e-20)
(1.02291 0.00526598 2.58462e-20)
(1.02086 0.112362 -4.34345e-20)
(1.01208 -0.000562646 0)
(0.889001 0.0405475 7.55628e-21)
(1.01438 0.00098301 0)
(1.08132 0.0369976 0)
(1.01041 -0.0174194 0)
(0.487315 0.267627 -1.20455e-20)
(1.01719 0.00327113 0)
(1.04537 0.00325064 2.61651e-20)
(1.01686 0.000838866 -9.09584e-21)
(1.01274 -0.000171766 0)
(1.07319 -0.0969661 2.15945e-22)
(1.01611 -0.0011068 1.48329e-21)
(0.904552 -0.235371 2.80093e-20)
(1.06803 -0.0139744 1.59376e-20)
(1.0128 -0.00121626 0)
(1.03039 -0.00693865 0)
(0.603094 -0.300979 -7.817e-22)
(0.79398 -0.0597114 -3.35441e-20)
(0.992562 -0.0358207 -3.00794e-20)
(1.00979 -5.76575e-05 -1.87086e-20)
(1.01543 -0.000587259 -6.50426e-21)
(1.01398 -0.000326672 -7.019e-21)
(1.01215 0.00238548 8.20092e-21)
(0.997668 -0.0124078 0)
(1.02734 0.00864104 0)
(0.89805 0.118479 0)
(1.02064 0.00647276 2.40718e-20)
(1.0146 -0.000384047 6.51349e-22)
(0.747864 -0.248334 -6.92399e-20)
(1.04379 0.00124792 -1.58055e-23)
(0.994721 -0.0122753 2.90367e-20)
(1.00726 -9.95215e-05 1.46801e-20)
(1.01286 0.000749848 -3.59855e-20)
(0.715038 -0.265477 3.87682e-20)
(0.976083 -0.15349 2.1641e-20)
(1.01199 -0.0159606 1.86567e-20)
(1.02594 -0.141659 1.00654e-20)
(1.0219 -4.41307e-05 -5.67938e-23)
(1.0441 0.00323362 -2.6669e-20)
(1.01665 -0.00120872 -3.55352e-21)
(1.01292 -0.00130897 0)
(1.01524 0.0018729 2.8501e-20)
(1.0153 0.00205685 0)
(1.02616 0.00697329 2.37905e-20)
(1.00966 8.95276e-05 4.70221e-20)
(0.303717 0.312601 -1.24355e-20)
(1.03201 0.0010676 -2.10547e-21)
(1.08353 0.100402 5.49499e-21)
(1.01524 0.00265364 5.04238e-21)
(1.01787 -0.0149058 0)
(1.01395 -0.000378505 1.38474e-20)
(1.03594 0.0675184 0)
(0.784111 -0.135284 0)
(1.01261 -0.00107113 -1.82043e-20)
(1.01553 0.00295046 4.1736e-20)
(1.06885 -0.0230721 0)
(1.01068 -0.0406189 0)
(1.01393 -0.000445862 -1.94059e-20)
(0.984892 0.221783 8.41086e-21)
(1.01401 0.000782125 0)
(1.04054 0.0352636 0)
(1.01177 -0.000314304 2.10788e-20)
(1.01482 0.00054145 -3.63306e-20)
(1.01257 -0.000196727 -1.18729e-20)
(0.864994 0.0800707 -2.57372e-20)
(1.01388 -0.000378726 -1.25692e-20)
(1.01196 0.00359994 -4.04598e-23)
(1.00998 -0.000552258 3.99501e-20)
(0.913538 0.145573 7.69171e-21)
(1.00962 -0.000120849 -2.65065e-22)
(1.0154 0.00183198 -5.86185e-20)
(1.00961 1.04899e-05 -1.17714e-20)
(0.939919 0.0535764 5.38413e-21)
(1.01926 0.00224939 3.23342e-23)
(1.01619 0.00422561 4.16662e-20)
(1.01204 -0.000248027 1.52241e-20)
(1.01638 0.00435928 -5.65418e-20)
(1.0464 0.00918887 0)
(1.01545 0.00368446 2.62808e-20)
(1.01849 -0.0133645 0)
(1.01703 -0.00127626 1.16567e-20)
(-0.0120353 0.30856 -1.91948e-21)
(0.887806 0.158884 0)
(0.857302 0.201777 1.33237e-20)
(1.01431 0.0131268 3.94408e-20)
(1.0449 -4.92821e-05 6.34569e-21)
(1.0168 0.000991598 2.71555e-21)
(0.997265 0.100594 -3.77814e-20)
(1.01849 -0.000160047 -2.48989e-20)
(0.982632 -0.208576 1.622e-20)
(1.05884 -0.0889615 -1.78251e-20)
(0.839228 0.185091 0)
(1.03371 0.0366066 -9.5891e-21)
(0.926488 -0.137804 -1.17228e-20)
(1.02159 -3.15143e-05 3.31847e-20)
(1.02463 0.00596249 4.13976e-22)
(0.916922 -0.244172 -1.14525e-20)
(0.942945 0.0461061 3.47254e-20)
(1.03289 -0.0146155 0)
(0.993717 0.0277611 0)
(1.03029 0.00222822 -3.49423e-20)
(0.974964 -0.127243 1.15524e-20)
(1.01413 0.00201874 3.55843e-20)
(1.02691 0.00558997 -2.6657e-20)
(1.01637 -0.00202796 1.60578e-20)
(1.01187 -0.000290338 4.50765e-20)
(1.01273 0.000449307 -1.99492e-21)
(0.908771 -0.244655 -1.01702e-20)
(1.03718 -0.000540318 -3.08732e-20)
(1.01022 -7.38683e-05 2.82302e-21)
(0.154603 0.242329 0)
(1.0194 0.00575529 4.08196e-20)
(1.00655 0.102816 0)
(1.02515 -0.00263285 -3.69329e-22)
(1.03677 -0.00193797 0)
(1.02115 -0.0258533 -2.92085e-20)
(1.01054 0.000238051 0)
(1.0098 -0.191215 -1.31135e-20)
(1.0175 0.0025665 0)
(1.01522 0.00233167 2.97537e-20)
(1.08401 0.0894812 2.28691e-20)
(1.02686 0.00375123 -4.45701e-22)
(1.01509 -0.000454666 -1.2366e-23)
(1.00784 5.38969e-05 -1.25557e-20)
(1.01485 0.00232251 7.22555e-20)
(1.0133 0.0013864 0)
(0.977277 0.0984859 -2.33015e-21)
(1.02613 0.121231 4.20628e-20)
(0.884678 0.143175 -2.09981e-21)
(1.02873 -0.000878971 8.18779e-20)
(1.0146 0.00329079 3.67088e-20)
(1.01478 0.00211477 -3.65389e-20)
(0.968248 -0.137931 -2.35025e-20)
(1.02858 0.0205598 0)
(1.01687 0.000467381 -6.10824e-20)
(1.0128 -0.00020097 -1.07244e-20)
(1.01166 0.0010631 0)
(0.933041 -0.150114 1.26659e-20)
(0.381107 -0.0181645 -2.87335e-20)
(1.04434 -0.00583821 -1.85178e-21)
(1.01887 0.0156938 0)
(1.01395 -4.95097e-05 1.07877e-20)
(-0.00204223 0.274447 -7.31112e-21)
(1.04478 0.00363424 0)
(1.03304 0.0138192 4.09412e-20)
(1.04878 0.0595115 -4.53175e-20)
(0.959468 0.00999677 5.38059e-21)
(0.812642 -0.138514 0)
(0.946836 -0.148787 0)
(1.01399 0.00205441 2.62087e-23)
(1.00962 3.98559e-06 2.48667e-22)
(1.01797 0.00247567 0)
(0.885074 -0.157555 9.6208e-21)
(1.01376 0.0019504 2.55772e-23)
(1.0456 0.000985784 -2.52331e-20)
(1.01788 0.00529293 -2.13008e-20)
(1.01621 -0.00119315 -1.01943e-23)
(1.02478 -0.0209552 6.96379e-21)
(1.01882 0.00882217 -3.80404e-20)
(0.748623 0.101364 0)
(0.87168 0.14195 -3.94513e-20)
(1.01468 -0.000274067 -1.16183e-20)
(1.01626 0.00306661 4.13018e-20)
(1.0141 -0.000476565 6.81906e-21)
(1.07272 -0.00438512 1.12699e-23)
(1.01188 -0.000310419 -4.20281e-20)
(0.943609 0.218814 1.72762e-20)
(1.0216 0.0140498 -4.14639e-20)
(0.403315 0.0469617 3.55664e-21)
(1.01479 0.00293186 2.7711e-20)
(1.01626 -0.00124347 3.43589e-21)
(1.01256 -0.00106592 2.0762e-20)
(1.01715 0.00172087 0)
(1.02385 0.00524501 1.99125e-20)
(1.01898 -0.00185165 -8.86381e-22)
(1.0237 0.000889798 -3.85433e-20)
(1.03331 0.00128883 0)
(1.03847 -0.0149536 0)
(1.04277 0.00105313 -3.70136e-20)
(0.885494 0.153942 1.6611e-20)
(1.02079 -0.000410047 0)
(0.954476 0.0446556 -3.07695e-20)
(0.900213 -0.0583225 0)
(1.01758 -0.000101569 0)
(0.657799 -0.104456 1.10391e-20)
(1.01476 0.00234861 0)
(1.01001 0.00198979 -1.73036e-20)
(1.00612 -0.00315146 -7.66795e-21)
(1.00944 -0.000156761 2.36624e-20)
(1.00932 -0.123699 5.07028e-21)
(1.01812 0.00482429 2.41915e-20)
(1.0145 0.0120752 -6.38288e-23)
(1.01569 -0.00256104 2.78727e-20)
(0.66453 -0.183751 0)
(1.01587 -0.00108143 -4.7722e-20)
(0.897679 -0.147508 4.1413e-21)
(1.06029 -0.0116135 -5.45442e-20)
(1.01492 0.00319642 0)
(1.1295 0.0576783 -2.28144e-20)
(0.867762 -0.146478 -3.10929e-21)
(1.02481 -0.00155857 3.5119e-22)
(1.01344 -8.31091e-05 4.84467e-22)
(0.992927 0.0207623 0)
(1.00462 0.000111665 -3.24639e-20)
(0.890214 -0.216867 7.09588e-21)
(1.0367 -0.0086364 0)
(0.990221 0.0336113 0)
(1.02984 -0.0235086 -2.73782e-20)
(1.02809 -0.000672435 -3.10892e-20)
(1.02761 0.00463985 0)
(1.0154 0.000739376 0)
(1.03966 0.0424044 0)
(1.00592 -0.00710603 0)
(1.05635 -0.050731 0)
(0.993857 -0.10477 -2.23553e-21)
(1.01649 -0.0012567 -1.60792e-21)
(1.01083 0.00130699 7.9806e-21)
(1.01877 -6.63069e-05 -2.01921e-20)
(0.978479 0.0219631 -4.51376e-21)
(1.00488 9.97642e-05 0)
(0.952479 0.229556 -1.30045e-20)
(1.0313 -0.000999322 3.7015e-20)
(1.02507 0.00780374 -2.71788e-20)
(1.04205 -0.106108 1.32016e-20)
(1.01486 0.00260492 -3.5061e-20)
(0.999067 0.0162672 -1.04668e-20)
(1.06154 0.021745 -4.34647e-20)
(1.01462 0.000171654 1.04991e-20)
(0.947974 -0.144161 7.01812e-21)
(1.01992 0.0108264 0)
(1.01298 0.00384878 0)
(1.01599 0.0105928 3.75228e-20)
(1.06595 0.0422404 -3.89874e-20)
(1.01094 -0.000803617 2.91621e-20)
(0.829179 -0.103807 0)
(1.03258 0.00144876 -2.18872e-21)
(1.06147 0.0463119 0)
(1.04622 0.00141067 6.38651e-21)
(0.799911 0.113841 -8.97304e-21)
(1.01522 0.00949479 0)
(1.05578 0.0200747 0)
(1.02189 -0.0153448 0)
(1.03389 0.00164002 0)
(1.06102 -0.00850524 4.9883e-20)
(1.0129 -0.000748008 -1.33986e-20)
(1.06328 0.0369023 4.0148e-20)
(1.01128 0.00331511 -3.25195e-20)
(1.0325 -0.000890144 3.51368e-20)
(1.01646 -0.00176482 0)
(1.01606 0.00092934 0)
(1.03982 0.00209705 2.26261e-20)
(1.07596 -0.00872933 -9.31407e-20)
(1.01028 0.000285353 1.42642e-20)
(1.02956 0.000662467 -3.11526e-20)
(1.06748 0.0262499 2.93772e-22)
(1.01284 -0.000571102 0)
(1.01504 0.00282234 4.75039e-20)
(1.01549 0.00263262 -4.01798e-20)
(1.01414 -0.000491251 0)
(1.04705 -0.00822177 1.92578e-21)
(1.02509 -0.0100855 -1.05819e-20)
(1.01553 0.019718 1.4634e-20)
(1.02301 0.0236061 0)
(1.05684 0.0491545 0)
(1.02342 0.00550111 6.6914e-21)
(0.991973 0.0127139 -5.03381e-21)
(0.882931 -0.206902 -2.47353e-20)
(1.01168 0.000943807 0)
(1.01314 0.00517976 0)
(1.01415 -0.000542532 0)
(1.09967 -0.0104455 -1.06485e-20)
(0.957577 -0.0287882 -4.88737e-21)
(1.04375 0.00168282 -4.52198e-23)
(1.01244 0.000518659 0)
(1.08578 0.000625554 -5.99861e-21)
(0.694336 -0.154373 0)
(0.176677 0.234772 0)
(1.02002 0.0111462 1.90777e-20)
(1.0931 -0.0532296 -1.55156e-20)
(0.882943 -0.102307 5.3706e-20)
(0.867151 0.189899 2.28669e-20)
(1.01801 0.0108731 0)
(1.01936 -0.00203355 4.32198e-22)
(1.00977 0.00101427 -8.37868e-21)
(0.906699 0.104492 -3.34568e-20)
(1.02177 0.0957031 -9.52e-21)
(1.03215 0.000597842 -3.25561e-20)
(0.220401 0.270347 -3.40471e-21)
(0.994682 0.0437076 0)
(0.958678 -0.131934 -1.01468e-20)
(1.01644 -0.0720272 -2.97159e-21)
(1.0095 0.00170075 -2.17931e-21)
(0.980627 0.0183192 5.08778e-20)
(0.892543 -0.24244 -5.48442e-21)
(0.953691 -0.0413086 -3.72786e-20)
(0.969545 0.122546 7.79496e-21)
(1.04226 0.042205 0)
(0.228374 0.304573 2.28359e-20)
(1.01532 0.0180502 1.44272e-20)
(0.954139 -0.162438 0)
(1.02656 0.00414623 4.40618e-22)
(1.02091 0.0205946 0)
(1.01038 0.000260011 -2.91274e-20)
(1.04095 -0.0207109 2.86326e-20)
(1.01541 -0.000612336 0)
(1.02766 0.00571008 2.38692e-20)
(1.01594 0.00313761 0)
(1.04132 0.320844 -2.71773e-20)
(1.01656 0.00507692 -1.02823e-20)
(1.01664 -0.00136017 9.06355e-22)
(0.76423 -0.230514 3.64666e-20)
(1.02502 0.00358547 0)
(1.04414 -0.000235079 -2.64452e-20)
(1.02153 0.011983 -3.92504e-20)
(1.05752 -0.0393788 1.15374e-20)
(1.01204 -0.000184541 5.55826e-22)
(1.0367 0.00480742 4.78682e-21)
(1.01457 0.00870584 -2.66393e-20)
(1.01377 0.00660148 3.45167e-20)
(1.01951 0.00539858 -4.73018e-20)
(1.04601 0.00215817 3.55844e-21)
(1.01346 0.0014752 -3.57926e-20)
(0.707634 -0.290328 0)
(0.990512 0.0411355 0)
(0.948521 0.0156906 -1.30473e-22)
(1.01705 0.0053247 -1.08207e-20)
(0.898479 0.134316 2.18336e-21)
(1.013 0.00134252 -3.44554e-20)
(0.998249 0.00908424 -1.17228e-20)
(1.0714 -0.0259594 0)
(1.00513 -0.00950541 7.37011e-21)
(1.01975 0.00612492 0)
(1.01418 -0.000284462 4.50154e-21)
(1.01303 0.00637011 0)
(1.01838 0.000334844 0)
(0.773825 -0.0489514 2.90229e-20)
(1.01686 0.0679605 3.76176e-20)
(1.01498 0.00223396 7.52477e-20)
(0.806723 0.0877224 3.82795e-20)
(1.01124 -0.000155743 -1.38899e-20)
(1.01563 0.000802416 3.86743e-20)
(0.991543 -0.214045 0)
(1.01408 -0.000338511 9.92946e-22)
(1.01883 0.000513467 1.20349e-20)
(0.789547 0.0654558 5.22884e-20)
(1.01366 0.000983532 2.59616e-20)
(0.947628 0.0836665 -2.30575e-20)
(1.0391 0.00233159 0)
(1.05811 0.0823512 -2.54792e-21)
(1.04313 0.000695933 0)
(1.01459 0.0623423 0)
(1.03224 -0.00916066 0)
(1.02051 0.00701754 1.03775e-20)
(0.149236 0.192493 3.31381e-21)
(0.0847665 0.222465 -6.89258e-21)
(1.01535 0.00284776 -4.10366e-20)
(1.05544 0.0395139 0)
(0.710414 0.0971337 0)
(0.716781 -0.300173 0)
(0.994588 -0.0899271 -7.6074e-20)
(1.00845 1.86275e-05 -7.1053e-21)
(1.01453 -0.000326356 -3.19047e-20)
(1.02436 -0.0169003 2.62952e-21)
(1.02634 0.00768074 -2.67861e-20)
(1.01697 0.00910021 -1.59346e-22)
(0.977692 -0.0839126 2.70258e-20)
(1.04445 0.000168019 1.94387e-20)
(1.01402 -0.000340761 8.53569e-21)
(1.0383 0.00753755 3.11579e-20)
(0.797534 -0.0255192 -5.26689e-21)
(0.914198 -0.0629247 2.95219e-21)
(1.01399 -0.000312679 -9.11238e-22)
(1.01413 -0.000464644 -8.22133e-22)
(1.0097 -5.28104e-05 1.45031e-20)
(1.03083 0.00259229 0)
(0.946605 0.286479 -1.52155e-21)
(0.940796 0.102836 0)
(1.01608 -0.0036876 -9.23344e-21)
(1.0444 0.00150915 2.02127e-20)
(0.915379 0.0444128 1.59851e-20)
(1.015 0.000887824 -2.26616e-20)
(1.01431 0.000449771 0)
(0.248927 0.205151 1.43456e-21)
(1.03007 0.0230529 -2.11084e-20)
(0.9877 -0.0637179 0)
(1.01368 0.00654317 0)
(1.01011 8.44738e-05 -2.96675e-20)
(1.02915 -0.000124538 -8.02341e-21)
(1.02463 -0.00861561 8.57064e-21)
(1.01287 0.0948672 4.71644e-20)
(0.964077 -0.0402891 2.97034e-20)
(1.01543 0.00113565 0)
(0.872068 0.173607 -7.31868e-21)
(0.754781 -0.0614712 8.36878e-21)
(0.884364 0.108185 -3.45742e-20)
(1.04337 0.00182766 3.55326e-20)
(1.03016 0.0215953 2.62236e-21)
(0.258793 0.229263 -1.4564e-21)
(1.03501 0.00910431 -8.42037e-21)
(0.998722 0.0158747 -4.75986e-21)
(1.04428 0.009458 -3.77314e-22)
(1.02415 0.00625548 -4.14601e-22)
(1.01667 0.00186729 5.91334e-21)
(0.846517 0.111821 -3.87162e-20)
(0.805822 -0.0927002 7.52264e-21)
(1.02007 -0.00319022 -2.61305e-20)
(1.04406 0.00121246 -4.55705e-20)