/*--------------------------------*- C++ -*----------------------------------*\
| =========                 |                                                 |
| \\      /  F ield         | OpenFOAM: The Open Source CFD Toolbox           |
|  \\    /   O peration     | Version:  v2012                                 |
|   \\  /    A nd           | Website:  www.openfoam.com                      |
|    \\/     M anipulation  |                                                 |
\*---------------------------------------------------------------------------*/
FoamFile
{
    version     2.0;
    format      ascii;
    class       volScalarField::Internal;
    location    "350";
    object      V0;
}
// * * * * * * * * * * * * * * * * * * * * * * * * * * * * * * * * * * * * * //

dimensions      [0 3 0 0 0 0 0];


value           nonuniform List<scalar> 
10042
(
0.191
0.0799061
0.0870437
0.136365
0.171495
0.145105
0.0585228
0.158395
0.188587
0.0524353
0.142012
0.0787619
0.0492061
0.152544
0.0844513
0.154044
0.116598
0.131665
0.0657687
0.0996988
0.0484015
0.199827
0.144127
0.132385
0.165145
0.17587
0.0678327
0.195875
0.143296
0.110294
0.15341
0.0346583
0.175919
0.16572
0.156096
0.142101
0.172355
0.154374
0.145469
0.205029
0.14137
0.176499
0.0387052
0.107934
0.139039
0.122685
0.169361
0.103143
0.0509109
0.0442442
0.0403848
0.164738
0.111528
0.0607527
0.0643324
0.033884
0.0467215
0.167122
0.0838436
0.192611
0.0577325
0.0628616
0.0390488
0.149883
0.138225
0.151203
0.0877267
0.142428
0.126598
0.140218
0.0367715
0.105129
0.160858
0.0860051
0.150824
0.0349387
0.116964
0.160608
0.111262
0.0598549
0.0987057
0.126655
0.187085
0.165397
0.0729444
0.0498988
0.0927676
0.0875584
0.139991
0.13885
0.0454066
0.0779247
0.0380832
0.0588799
0.133025
0.113318
0.0148288
0.0893009
0.115795
0.0856258
0.0502282
0.0596743
0.0982506
0.0351019
0.0595771
0.0995142
0.033081
0.159742
0.0547404
0.101772
0.114285
0.0543197
0.074419
0.148578
0.137935
0.165464
0.109706
0.172776
0.158809
0.171933
0.170873
0.0648357
0.0652234
0.137456
0.107654
0.158176
0.119493
0.0621077
0.023932
0.117403
0.171157
0.128175
0.15394
0.13434
0.0466472
0.0427304
0.0899851
0.0339927
0.0749952
0.123864
0.0429982
0.166666
0.0394104
0.198275
0.0615617
0.145335
0.0716501
0.164434
0.0929144
0.0847209
0.143479
0.164504
0.0636459
0.0356742
0.1347
0.0604493
0.0280175
0.0326025
0.146166
0.130738
0.166018
0.185487
0.0427409
0.14095
0.0790477
0.116021
0.188993
0.042348
0.168781
0.13548
0.138407
0.105795
0.0813696
0.160293
0.0578461
0.0754489
0.11407
0.172932
0.143575
0.116747
0.0788401
0.050189
0.0801168
0.173342
0.180201
0.0423208
0.0955406
0.141106
0.0355598
0.154709
0.0695291
0.0477878
0.164742
0.0578569
0.0620213
0.0720305
0.0206094
0.145238
0.0180598
0.141996
0.0235599
0.0411292
0.0937696
0.128516
0.117522
0.135707
0.132307
0.0439811
0.113445
0.0981202
0.0371612
0.133183
0.0927485
0.0991811
0.176364
0.147071
0.153047
0.0994152
0.146996
0.0280817
0.0220837
0.137617
0.0271905
0.132855
0.11158
0.0362111
0.101216
0.0848219
0.0770499
0.0715375
0.167778
0.120522
0.0426825
0.131941
0.110187
0.182535
0.0903504
0.0207468
0.0605065
0.136743
0.0967233
0.133338
0.177522
0.162626
0.0664752
0.171208
0.139173
0.0778996
0.0491717
0.144885
0.0648672
0.158384
0.10519
0.0526423
0.11144
0.0955101
0.128741
0.101906
0.0102115
0.15029
0.131228
0.151907
0.15202
0.173803
0.0406993
0.069622
0.13705
0.102501
0.154712
0.108591
0.1009
0.0421827
0.145273
0.0348543
0.106394
0.161634
0.0669056
0.130162
0.147456
0.0571249
0.140241
0.143301
0.0187622
0.0744315
0.175192
0.022798
0.108533
0.154721
0.164736
0.13638
0.0472784
0.111533
0.173857
0.132739
0.1294
0.12048
0.069412
0.10101
0.0957245
0.151958
0.0685033
0.0928003
0.127244
0.0911665
0.0930666
0.0480647
0.156571
0.164343
0.0660174
0.12326
0.142062
0.130388
0.130944
0.112079
0.109704
0.164895
0.113926
0.143148
0.137667
0.160507
0.147907
0.0354594
0.155417
0.12822
0.177385
0.168881
0.135703
0.128587
0.0919463
0.046029
0.135459
0.111005
0.161076
0.157315
0.135262
0.163466
0.0331787
0.126856
0.155303
0.11838
0.0415676
0.0480892
0.172186
0.144248
0.162746
0.172202
0.144352
0.156824
0.125493
0.0170918
0.0720628
0.135216
0.120721
0.145018
0.0708267
0.140127
0.101977
0.169903
0.0261262
0.166982
0.10611
0.158615
0.0765672
0.141242
0.107132
0.0730883
0.144608
0.127873
0.125579
0.0603922
0.145123
0.162511
0.140258
0.164122
0.0545608
0.130764
0.155965
0.0950121
0.0651167
0.0462898
0.113723
0.0921709
0.0780507
0.138238
0.0285262
0.165444
0.154882
0.165536
0.105358
0.148232
0.111609
0.0265886
0.0730211
0.143217
0.106166
0.052594
0.136257
0.153916
0.12983
0.0266174
0.144789
0.0235455
0.148576
0.0707181
0.0238674
0.135216
0.0398714
0.147843
0.100202
0.112935
0.109262
0.0542288
0.134572
0.0766063
0.149995
0.101144
0.0740805
0.0609692
0.143875
0.0909823
0.152537
0.0952104
0.163392
0.166378
0.0360647
0.101236
0.0852619
0.108478
0.126873
0.047056
0.100197
0.139941
0.0536005
0.0990316
0.137494
0.0751396
0.0416423
0.152587
0.156944
0.0326342
0.16358
0.114492
0.089415
0.031923
0.0380438
0.173402
0.141422
0.0403189
0.147989
0.169477
0.153912
0.065872
0.0724863
0.033692
0.109539
0.140296
0.140239
0.0261982
0.165006
0.137086
0.14803
0.119643
0.158995
0.158895
0.0985132
0.16946
0.159974
0.0648233
0.0911551
0.138291
0.0409915
0.135028
0.0267666
0.0402363
0.12349
0.126599
0.0405771
0.129585
0.0515663
0.100266
0.137481
0.0779833
0.122644
0.140772
0.057169
0.121766
0.152557
0.120583
0.159456
0.137155
0.139398
0.0800582
0.146032
0.147208
0.0936014
0.0402283
0.136003
0.148072
0.115315
0.0467007
0.104452
0.157046
0.141412
0.0840901
0.0524727
0.111793
0.158434
0.140205
0.0717965
0.0694753
0.0774188
0.136718
0.14569
0.133023
0.0948128
0.122033
0.120035
0.0990451
0.123466
0.102489
0.129782
0.071898
0.100133
0.077649
0.0752154
0.106211
0.139524
0.0775562
0.106537
0.13636
0.114821
0.0376952
0.109546
0.141534
0.0933718
0.0842892
0.111212
0.071624
0.153943
0.0661442
0.122668
0.0773719
0.137676
0.022582
0.122624
0.0436479
0.153664
0.132234
0.10896
0.173168
0.0922609
0.0501854
0.148523
0.134049
0.0269591
0.102333
0.137851
0.164848
0.13841
0.160963
0.161042
0.158451
0.0955257
0.0870342
0.11856
0.173277
0.0434673
0.0577288
0.146013
0.145142
0.13368
0.0474112
0.138206
0.137762
0.137112
0.0947952
0.044176
0.140427
0.144968
0.14123
0.115871
0.106148
0.163076
0.0209128
0.0836262
0.0649847
0.133243
0.145388
0.119834
0.0761626
0.104235
0.144612
0.130004
0.162999
0.136561
0.133056
0.0629314
0.116086
0.183298
0.15218
0.160028
0.140381
0.0223694
0.131888
0.137246
0.118842
0.0654367
0.125932
0.113705
0.152318
0.0710015
0.12792
0.0989195
0.166624
0.0970455
0.074553
0.10314
0.139483
0.129386
0.0158929
0.0816746
0.109521
0.10973
0.046364
0.126963
0.0795984
0.123059
0.146674
0.0914885
0.124541
0.16735
0.131519
0.0898232
0.108663
0.0977484
0.088657
0.137755
0.0278344
0.0814102
0.135158
0.136812
0.108258
0.133037
0.144608
0.163045
0.0978537
0.0654411
0.168499
0.0267721
0.121816
0.0796183
0.150525
0.0762846
0.134795
0.125719
0.137449
0.106076
0.0893676
0.0632812
0.101027
0.167939
0.133875
0.135285
0.137953
0.119543
0.0694913
0.0834482
0.105687
0.129506
0.135039
0.136759
0.0814155
0.129729
0.155179
0.154636
0.132044
0.0320829
0.146589
0.104087
0.138553
0.0181583
0.0390219
0.135551
0.066069
0.138969
0.0487414
0.13497
0.141766
0.160294
0.103638
0.141067
0.144628
0.0454131
0.113786
0.165038
0.139266
0.126781
0.0270167
0.0157034
0.15948
0.132906
0.157881
0.156367
0.152617
0.0940816
0.123847
0.0346923
0.129489
0.133613
0.125783
0.0989686
0.108449
0.139197
0.0945579
0.0762201
0.14106
0.061577
0.117154
0.128331
0.0875086
0.139957
0.126452
0.0274434
0.131355
0.12925
0.151396
0.132055
0.136515
0.099586
0.109621
0.126995
0.0619542
0.124944
0.145182
0.0574597
0.132723
0.0464526
0.141281
0.158505
0.110582
0.0306871
0.161202
0.0938094
0.139333
0.103334
0.139902
0.0928769
0.0985578
0.108227
0.0682901
0.156315
0.131389
0.0500274
0.155622
0.148982
0.112687
0.0866808
0.161792
0.121306
0.0762632
0.106124
0.0866664
0.138394
0.0326104
0.0696051
0.142776
0.133396
0.1586
0.134232
0.125907
0.0775145
0.141808
0.0526278
0.0804056
0.0895533
0.043447
0.0903097
0.128453
0.0701654
0.143376
0.0751173
0.0626668
0.176029
0.0752458
0.132325
0.0795565
0.131352
0.163477
0.0639714
0.0515641
0.163306
0.0916898
0.164818
0.156543
0.127371
0.135097
0.166118
0.141102
0.130288
0.100219
0.152307
0.166962
0.107422
0.150945
0.0927557
0.153128
0.134387
0.159618
0.109456
0.131457
0.0524379
0.129816
0.0657006
0.0399915
0.0263042
0.126621
0.0974604
0.0410255
0.113805
0.153525
0.136633
0.151767
0.12819
0.0784614
0.0810535
0.0254211
0.0931833
0.138351
0.137886
0.123699
0.0889168
0.0933867
0.101788
0.0636001
0.0612237
0.0222059
0.101132
0.130414
0.102246
0.147687
0.165209
0.0943634
0.135667
0.119138
0.132207
0.0664204
0.117845
0.160223
0.0470238
0.10027
0.0503625
0.123104
0.132794
0.131098
0.0735067
0.106082
0.135136
0.119959
0.0396762
0.136701
0.0415021
0.0957991
0.0866946
0.111731
0.0823941
0.139072
0.0304375
0.156349
0.147407
0.117954
0.15125
0.136338
0.130314
0.0945253
0.0802203
0.131124
0.0890354
0.142172
0.150352
0.13618
0.149719
0.120997
0.0906495
0.146442
0.0661648
0.0659159
0.0726263
0.0511395
0.0808085
0.13302
0.137795
0.0164811
0.0151195
0.131505
0.067777
0.0282295
0.0421675
0.0410038
0.121544
0.110767
0.138686
0.107778
0.152121
0.130631
0.0457637
0.151847
0.03626
0.120874
0.127899
0.183545
0.157835
0.119043
0.0797085
0.109458
0.119462
0.126519
0.0446453
0.121092
0.11927
0.158932
0.0292215
0.0695374
0.129163
0.149196
0.127543
0.089255
0.128182
0.0794717
0.10165
0.122222
0.123826
0.0687908
0.0857922
0.0380573
0.0698839
0.0286402
0.0347853
0.129981
0.0336006
0.108495
0.106805
0.0900978
0.0923805
0.102199
0.0460023
0.0263516
0.128273
0.0883044
0.0811203
0.135668
0.147333
0.0325666
0.133073
0.12804
0.0183364
0.143251
0.122409
0.0700227
0.0472467
0.137279
0.16877
0.103109
0.0894063
0.0591003
0.15465
0.0561618
0.130299
0.12184
0.160257
0.0462319
0.0821953
0.135312
0.126367
0.107732
0.135108
0.119337
0.0625499
0.110823
0.0942354
0.106018
0.0824141
0.151914
0.0650483
0.0835639
0.0919781
0.0484046
0.113295
0.104176
0.119767
0.150466
0.136446
0.07842
0.127306
0.122696
0.142805
0.0958157
0.152802
0.0569703
0.135016
0.0993631
0.0406431
0.0923068
0.155142
0.0755977
0.0454422
0.151111
0.136038
0.143596
0.0324791
0.129838
0.143253
0.132434
0.129091
0.0648443
0.131038
0.146671
0.126403
0.0829241
0.126825
0.14785
0.0428345
0.142652
0.106033
0.0673894
0.137716
0.0998976
0.149156
0.0636927
0.120868
0.0871226
0.119867
0.0703663
0.108386
0.0255521
0.0683057
0.131526
0.109722
0.129968
0.160744
0.0880516
0.0778879
0.146701
0.130131
0.150194
0.0823333
0.126563
0.0550141
0.131944
0.172197
0.0380397
0.0930591
0.145737
0.0855872
0.0233363
0.150186
0.120141
0.140929
0.118526
0.046471
0.129609
0.0712673
0.130679
0.154266
0.128644
0.12749
0.142069
0.0394251
0.0264995
0.140547
0.144723
0.113403
0.125167
0.134279
0.103023
0.135094
0.143972
0.131245
0.0853421
0.13076
0.0744911
0.156586
0.151274
0.124912
0.107705
0.15339
0.131953
0.142119
0.152703
0.0662249
0.0566884
0.0267829
0.0619865
0.0858422
0.138036
0.0257474
0.0690276
0.115086
0.0475721
0.118205
0.0710649
0.142929
0.143512
0.141725
0.12917
0.126728
0.121251
0.15041
0.0826812
0.0373432
0.149366
0.151451
0.12123
0.150956
0.152516
0.163613
0.1591
0.151217
0.127702
0.147142
0.121166
0.147253
0.152443
0.0867484
0.0513712
0.114932
0.142635
0.0877243
0.108673
0.0649321
0.100282
0.0947664
0.141926
0.0933042
0.0347046
0.0396778
0.0987835
0.165688
0.153026
0.130985
0.123843
0.153384
0.132954
0.131478
0.147454
0.109374
0.0292056
0.145704
0.124608
0.0245363
0.0404962
0.148633
0.144977
0.125449
0.152739
0.0419311
0.124753
0.116286
0.0657495
0.137048
0.130343
0.145306
0.0406517
0.085287
0.0762756
0.0652497
0.132525
0.0457971
0.103051
0.137839
0.118198
0.133738
0.0735317
0.147472
0.0842023
0.110675
0.0537202
0.129634
0.0622697
0.135008
0.0760285
0.0904429
0.102324
0.0957882
0.14151
0.0366747
0.144538
0.139349
0.116765
0.150696
0.117711
0.0625534
0.132015
0.130752
0.181777
0.0343605
0.134379
0.128493
0.136752
0.139232
0.0548725
0.161
0.138317
0.129934
0.13259
0.128458
0.0849615
0.0447158
0.145665
0.0929675
0.0983047
0.146841
0.100956
0.028698
0.14832
0.098174
0.0331562
0.147773
0.136959
0.140651
0.164385
0.0950558
0.132945
0.0822373
0.131119
0.128537
0.161914
0.153186
0.0987367
0.0734092
0.148737
0.0401866
0.151745
0.132683
0.165667
0.124106
0.129192
0.0681599
0.149701
0.0511178
0.144757
0.0870318
0.153185
0.0408164
0.150095
0.133821
0.0342771
0.156829
0.130838
0.0293496
0.0627652
0.108225
0.0464677
0.0746079
0.128779
0.0577713
0.137985
0.154314
0.131649
0.0348001
0.127026
0.107714
0.052283
0.132759
0.110914
0.150387
0.0916073
0.136454
0.13294
0.0765012
0.117496
0.0273843
0.13376
0.154718
0.133829
0.0243755
0.0829124
0.0715251
0.128392
0.138458
0.0478426
0.0726557
0.13256
0.0378751
0.144135
0.125015
0.152589
0.017682
0.13776
0.0797906
0.130059
0.142363
0.160098
0.14165
0.134149
0.119456
0.150864
0.133826
0.0901285
0.0887429
0.122433
0.151215
0.048758
0.0586613
0.138956
0.138006
0.140594
0.0241571
0.0431572
0.0867598
0.13866
0.15772
0.0745445
0.0468104
0.159799
0.131765
0.0569575
0.132612
0.151329
0.134289
0.12424
0.0571707
0.143472
0.0775756
0.108851
0.135078
0.13284
0.0982028
0.146225
0.0601277
0.0141083
0.152291
0.1349
0.131936
0.0259013
0.136002
0.0485511
0.156914
0.144579
0.111806
0.131021
0.0656295
0.112474
0.12407
0.150523
0.0270827
0.11082
0.0476764
0.149449
0.0539758
0.0603824
0.153638
0.0438662
0.146466
0.0461129
0.0501725
0.143928
0.139375
0.0917115
0.0612562
0.0465495
0.0268889
0.154993
0.15114
0.112461
0.0465383
0.13405
0.0386453
0.0399872
0.147757
0.125187
0.155255
0.090178
0.0846731
0.145034
0.122148
0.143496
0.0270393
0.138509
0.0766131
0.134685
0.0857006
0.0607401
0.0845905
0.137677
0.0670197
0.0555583
0.106251
0.131116
0.131407
0.0254159
0.148202
0.0284744
0.0389321
0.0408837
0.107563
0.0402506
0.076331
0.131816
0.123671
0.120623
0.0493188
0.0657438
0.0565395
0.132418
0.0176563
0.0579644
0.141203
0.129218
0.0267055
0.151815
0.13107
0.0284828
0.0200374
0.0326531
0.149314
0.0367115
0.149405
0.104723
0.135427
0.0698888
0.162038
0.0891869
0.0463298
0.0242047
0.0504293
0.113235
0.150838
0.0903727
0.106467
0.151962
0.0905727
0.0194765
0.140388
0.153386
0.0588607
0.0999796
0.0380578
0.0988085
0.145038
0.130717
0.0793534
0.153222
0.131346
0.0502241
0.140047
0.110816
0.125708
0.144674
0.147982
0.0186248
0.136648
0.149515
0.122163
0.156495
0.147738
0.0665315
0.146867
0.0270947
0.0290748
0.0958543
0.149633
0.147362
0.130087
0.152294
0.0373192
0.0418062
0.01889
0.133323
0.141868
0.0351732
0.066806
0.0951892
0.047734
0.0901473
0.126416
0.095794
0.154339
0.170572
0.147134
0.130333
0.0793149
0.034336
0.0643662
0.152803
0.0396268
0.0383528
0.153523
0.130738
0.150813
0.0740918
0.130154
0.133681
0.0638757
0.131587
0.0282735
0.129755
0.134592
0.0470471
0.0731363
0.0406246
0.0824928
0.142151
0.149365
0.0275138
0.104241
0.133348
0.0472437
0.135637
0.0307782
0.132382
0.136427
0.157223
0.0517886
0.0823344
0.0533048
0.150408
0.137208
0.0582444
0.0639993
0.160396
0.0824393
0.0413912
0.139701
0.0717513
0.124182
0.157019
0.058312
0.149324
0.0603219
0.0410944
0.119248
0.135057
0.1614
0.0545217
0.0371872
0.052075
0.0658779
0.0689736
0.0799768
0.0682882
0.0613077
0.0479467
0.0813772
0.114834
0.150175
0.149459
0.0702602
0.0663712
0.0987063
0.0383026
0.135903
0.0275777
0.0416031
0.1503
0.158798
0.145186
0.157836
0.151653
0.0411195
0.0862224
0.0435755
0.0364916
0.115112
0.0649401
0.0853125
0.0683219
0.134297
0.13345
0.0771043
0.132849
0.109995
0.111162
0.0619123
0.150526
0.102439
0.137498
0.138056
0.063841
0.149124
0.130199
0.169441
0.0388404
0.0921487
0.0327714
0.0654497
0.0872587
0.0411466
0.115202
0.0321592
0.12573
0.105274
0.0770915
0.0331457
0.150501
0.160655
0.0350374
0.0525796
0.125203
0.0717298
0.141764
0.0189669
0.0902573
0.102638
0.136108
0.0268656
0.025712
0.120824
0.0693617
0.0662233
0.140969
0.0580471
0.0839533
0.133161
0.113724
0.0336911
0.143418
0.0829521
0.132568
0.066544
0.0612599
0.0966766
0.043001
0.0633408
0.125866
0.0675538
0.0354496
0.027958
0.118844
0.0671154
0.0742305
0.0617237
0.0295748
0.0284067
0.0555568
0.0699611
0.148413
0.0570421
0.0533405
0.030695
0.135201
0.062812
0.134043
0.059692
0.153387
0.0470696
0.131261
0.151244
0.079761
0.0285439
0.0506178
0.0434751
0.177073
0.0689946
0.131755
0.124217
0.152724
0.103185
0.0183001
0.126184
0.058849
0.102023
0.144376
0.141975
0.118016
0.149246
0.135963
0.152344
0.0912241
0.130271
0.0319397
0.103463
0.0395589
0.0643812
0.0754115
0.049194
0.0655511
0.0591646
0.108601
0.0823619
0.0862883
0.137202
0.141417
0.0667409
0.133078
0.147024
0.150178
0.0750292
0.0920003
0.070708
0.150133
0.0304177
0.149739
0.128689
0.0819269
0.140323
0.0688043
0.151409
0.0516681
0.0938585
0.0743361
0.0358905
0.135154
0.134847
0.142791
0.0249264
0.151102
0.135184
0.0697709
0.0827655
0.0427287
0.123143
0.102281
0.0922973
0.136373
0.121331
0.139085
0.0785745
0.126843
0.0368529
0.0807381
0.137109
0.105794
0.0382245
0.137142
0.138252
0.0432571
0.0906129
0.0781467
0.148097
0.083104
0.143171
0.142517
0.0973235
0.15203
0.117321
0.0863567
0.0712793
0.09436
0.0282137
0.0699578
0.117185
0.0521116
0.111098
0.0481552
0.145365
0.151888
0.0605376
0.134975
0.118229
0.12164
0.04148
0.0182277
0.143615
0.0439763
0.149209
0.102155
0.128677
0.13965
0.0497623
0.0876862
0.130393
0.131033
0.166612
0.0481099
0.0603784
0.0756073
0.136523
0.133414
0.0807611
0.135836
0.0488719
0.0852735
0.12497
0.139661
0.0368796
0.125056
0.0361619
0.0919072
0.0277415
0.0683031
0.0289275
0.144369
0.136382
0.0640306
0.0484896
0.151301
0.137911
0.157301
0.148874
0.143545
0.131679
0.0880437
0.0524436
0.0288262
0.138251
0.0266612
0.0365228
0.0533511
0.0614504
0.152798
0.138762
0.170529
0.0754883
0.0994518
0.0476455
0.099943
0.0753292
0.0411139
0.116331
0.15155
0.122866
0.125081
0.048532
0.139907
0.0285832
0.0928779
0.0630654
0.132373
0.171616
0.154163
0.0318581
0.133425
0.0285333
0.0654493
0.150568
0.0705498
0.0652386
0.113362
0.135934
0.133741
0.132238
0.0896285
0.0816708
0.0700393
0.1046
0.0732589
0.027929
0.0524032
0.0614852
0.155481
0.0655846
0.0720115
0.133768
0.139091
0.0853595
0.0652554
0.0383076
0.131806
0.0418265
0.110379
0.138223
0.149506
0.0703212
0.0846395
0.119523
0.0865111
0.0548745
0.141856
0.0730806
0.131545
0.0437525
0.0990573
0.101277
0.091737
0.0906395
0.136583
0.0965622
0.149935
0.138394
0.0498075
0.0800174
0.0273294
0.14584
0.134172
0.15299
0.112757
0.141976
0.0758603
0.0903333
0.0647118
0.0401784
0.13178
0.0570865
0.151479
0.0778234
0.100502
0.126248
0.136907
0.152188
0.0974356
0.0722806
0.0821087
0.150362
0.142852
0.0932716
0.101784
0.058857
0.089132
0.086161
0.130624
0.13528
0.0423732
0.124821
0.129773
0.115566
0.101165
0.0666672
0.112763
0.0486601
0.0488793
0.0730367
0.147395
0.048195
0.0389319
0.130645
0.125039
0.0881787
0.0634462
0.0684925
0.102648
0.133027
0.151707
0.0941393
0.0945626
0.057772
0.127558
0.11636
0.0930237
0.0457116
0.0627389
0.111748
0.142797
0.0851569
0.0477286
0.130092
0.127957
0.114264
0.0619738
0.0474581
0.138101
0.0756953
0.123679
0.0461354
0.096145
0.141278
0.01829
0.0673309
0.0275661
0.0414388
0.131457
0.133928
0.0959078
0.134302
0.0957411
0.0486032
0.116004
0.0899947
0.0722292
0.105522
0.0635923
0.0912816
0.075048
0.141455
0.126678
0.0833234
0.124079
0.116831
0.147823
0.161878
0.157187
0.136793
0.153575
0.110651
0.0982516
0.121084
0.15269
0.0233258
0.142581
0.13756
0.100453
0.136063
0.066515
0.133982
0.154757
0.153017
0.151177
0.110783
0.120673
0.0662891
0.0384501
0.157845
0.0629737
0.117685
0.08013
0.0778603
0.100959
0.0880393
0.0684966
0.0913552
0.0838448
0.062334
0.0650399
0.0633014
0.163238
0.139363
0.0725942
0.0846468
0.0606825
0.0522563
0.0683993
0.100521
0.0892643
0.124823
0.0261665
0.14283
0.0820501
0.148419
0.0673065
0.122315
0.147172
0.132534
0.0670791
0.0573164
0.0757767
0.157288
0.0633832
0.149493
0.151956
0.104025
0.0925991
0.066983
0.0694376
0.142895
0.129803
0.112289
0.0709334
0.126096
0.0285722
0.0826831
0.148556
0.0727882
0.154699
0.0365678
0.083547
0.105432
0.1344
0.0933576
0.062922
0.151769
0.114907
0.0411665
0.149849
0.132147
0.0866464
0.0709332
0.0350816
0.130267
0.0281196
0.0719901
0.0920022
0.134701
0.0999674
0.0402927
0.102658
0.107606
0.141956
0.0897147
0.0783276
0.125437
0.134165
0.118314
0.146991
0.152792
0.117262
0.0750527
0.0635842
0.127049
0.0379036
0.0789184
0.120375
0.0736138
0.0282067
0.0782823
0.0857308
0.120836
0.0898735
0.0843381
0.137972
0.116143
0.0846824
0.129844
0.13771
0.103013
0.152571
0.131584
0.0969581
0.0501851
0.0892475
0.0300148
0.119251
0.0289929
0.145055
0.102182
0.0814222
0.151366
0.15326
0.0944107
0.107854
0.0665373
0.0833152
0.097816
0.145124
0.152177
0.0818686
0.073108
0.103929
0.145088
0.130936
0.0516347
0.0666837
0.144965
0.0936953
0.114868
0.100685
0.0779852
0.115121
0.140008
0.120041
0.0680082
0.060148
0.113769
0.130805
0.131272
0.103504
0.151229
0.127548
0.142803
0.100575
0.0970924
0.134248
0.152971
0.13543
0.153039
0.0997112
0.157746
0.065499
0.14189
0.127735
0.092848
0.095315
0.098007
0.0310325
0.0230839
0.0599412
0.131951
0.143832
0.0656855
0.129743
0.0647934
0.105693
0.141836
0.0907733
0.102447
0.117521
0.0956557
0.131734
0.101646
0.112368
0.107123
0.155338
0.0619781
0.103011
0.101258
0.149235
0.0966527
0.0673002
0.115471
0.0309128
0.0346235
0.145718
0.137044
0.133469
0.133378
0.141018
0.14525
0.148145
0.0863805
0.106703
0.141044
0.0272968
0.146695
0.102181
0.0663724
0.121815
0.104095
0.0891584
0.0797774
0.151162
0.0539533
0.0702939
0.108485
0.0798256
0.0971242
0.103809
0.126108
0.116456
0.141456
0.145151
0.0903006
0.0728455
0.058655
0.151323
0.0754974
0.147893
0.107802
0.0860877
0.122221
0.0976913
0.138559
0.143835
0.142925
0.111194
0.0597261
0.150199
0.139584
0.131709
0.114438
0.0938616
0.089402
0.0605252
0.115252
0.0761285
0.0957103
0.0888097
0.150361
0.150945
0.136241
0.143788
0.0186205
0.0663129
0.0850612
0.0520572
0.131268
0.0864716
0.0896089
0.148227
0.0918988
0.136652
0.0971306
0.133417
0.0261653
0.104719
0.0918974
0.0853187
0.150982
0.112188
0.0410572
0.143677
0.0393299
0.0683236
0.070144
0.0971489
0.0274556
0.133142
0.0934105
0.146344
0.0900226
0.0672067
0.14557
0.13039
0.131863
0.0710422
0.091468
0.0964381
0.145272
0.0798343
0.126554
0.108034
0.0927699
0.0377419
0.124451
0.152407
0.154113
0.132404
0.0285801
0.0839222
0.142978
0.117272
0.132672
0.13387
0.146489
0.112749
0.130152
0.0450514
0.130379
0.0934221
0.138987
0.0740606
0.0977531
0.103732
0.11926
0.112377
0.12899
0.14058
0.0816078
0.131754
0.0969194
0.147157
0.0958068
0.0985031
0.0989589
0.150499
0.128697
0.17449
0.0380136
0.15195
0.152643
0.0704946
0.0694083
0.0914567
0.14334
0.126289
0.133408
0.106968
0.0944005
0.119161
0.0629296
0.0234371
0.151323
0.0975452
0.0950223
0.107179
0.121292
0.140236
0.065404
0.0578205
0.0368169
0.0212093
0.0608845
0.136227
0.0903785
0.118876
0.0966626
0.130684
0.142528
0.0639197
0.133317
0.0348445
0.0690806
0.154254
0.100521
0.0861442
0.0879545
0.133705
0.137394
0.104858
0.113865
0.118743
0.141303
0.0999191
0.0902975
0.152043
0.0792234
0.0685944
0.0939314
0.125851
0.103908
0.0934812
0.140359
0.137657
0.127701
0.0566928
0.132358
0.106413
0.134558
0.15225
0.125385
0.148537
0.144099
0.062923
0.124408
0.109965
0.056501
0.132451
0.126876
0.098145
0.061021
0.151317
0.139479
0.136994
0.0735998
0.0184665
0.121856
0.0656759
0.143169
0.146161
0.15402
0.1026
0.127184
0.128775
0.153059
0.0682916
0.143188
0.0861615
0.143918
0.126557
0.141041
0.0922085
0.110704
0.122948
0.132157
0.114816
0.145773
0.111005
0.128082
0.139847
0.129073
0.143672
0.133527
0.134403
0.150585
0.15436
0.148853
0.126927
0.151525
0.104973
0.145084
0.0970339
0.10354
0.0595937
0.132188
0.105662
0.142334
0.149628
0.151572
0.111633
0.137371
0.150533
0.139355
0.0655222
0.126823
0.0703139
0.0304303
0.152698
0.0290129
0.103048
0.0410951
0.140916
0.0885537
0.150632
0.125792
0.130447
0.0859721
0.0906724
0.120882
0.0956928
0.130846
0.13866
0.152115
0.0371309
0.131319
0.0448175
0.100196
0.0191436
0.100782
0.133551
0.0661303
0.049471
0.149252
0.107736
0.112124
0.0884815
0.0361425
0.101482
0.13348
0.0827132
0.0737037
0.0940604
0.141375
0.143573
0.0729794
0.0668384
0.0305176
0.0894063
0.102526
0.136768
0.0998681
0.120001
0.130711
0.0677463
0.132009
0.125247
0.139091
0.128654
0.136192
0.131934
0.102699
0.114386
0.103258
0.110632
0.0918861
0.130067
0.0875079
0.172893
0.140737
0.0872696
0.155174
0.0842464
0.14214
0.13813
0.072618
0.104303
0.113033
0.133317
0.128305
0.0678798
0.103136
0.0408221
0.103616
0.13946
0.133888
0.115516
0.0686143
0.107815
0.132855
0.0932961
0.124421
0.168128
0.136354
0.085493
0.137903
0.140617
0.135644
0.100937
0.135222
0.133847
0.0518369
0.102811
0.0994534
0.0936328
0.130352
0.113238
0.136092
0.140709
0.139679
0.111731
0.132047
0.0653668
0.144744
0.134734
0.0783827
0.098539
0.134176
0.0976963
0.0834961
0.100788
0.132203
0.152758
0.13287
0.102351
0.135605
0.151834
0.068827
0.125207
0.145984
0.0922231
0.132578
0.0664676
0.128009
0.105266
0.153629
0.0863729
0.149344
0.142622
0.136226
0.092125
0.149795
0.0314165
0.151852
0.112927
0.115228
0.142794
0.125427
0.09484
0.0885921
0.130602
0.121965
0.112119
0.0828954
0.137561
0.132216
0.136817
0.114742
0.124685
0.132714
0.127133
0.156835
0.144713
0.0915756
0.118436
0.135906
0.107608
0.117945
0.154437
0.0979095
0.128631
0.0935409
0.128337
0.110812
0.145678
0.144816
0.0413465
0.1453
0.111314
0.129161
0.111962
0.135839
0.0781991
0.13679
0.144257
0.0950585
0.129193
0.140676
0.118506
0.0719229
0.141574
0.139581
0.129337
0.139672
0.113461
0.115234
0.132723
0.141797
0.138055
0.143961
0.064592
0.0738235
0.114236
0.138185
0.150437
0.135354
0.131631
0.146433
0.0980985
0.0935495
0.112779
0.117672
0.130346
0.068408
0.143639
0.143186
0.099348
0.107744
0.132891
0.110459
0.121367
0.114093
0.142792
0.131334
0.109689
0.149482
0.152367
0.123655
0.108485
0.115918
0.144762
0.122742
0.120983
0.124663
0.122539
0.151817
0.111303
0.151764
0.149275
0.124961
0.141798
0.135458
0.0788906
0.131606
0.135203
0.0974248
0.14749
0.0900638
0.144241
0.130194
0.137816
0.150019
0.0911911
0.127601
0.101256
0.0532125
0.180088
0.141827
0.145463
0.0797121
0.121338
0.152176
0.0678178
0.117018
0.119044
0.119553
0.103548
0.142867
0.154654
0.140101
0.113328
0.107825
0.147627
0.142596
0.112591
0.149742
0.123004
0.14048
0.122238
0.137947
0.0650056
0.135744
0.124539
0.15117
0.13009
0.145545
0.131677
0.137067
0.124999
0.138969
0.042103
0.109634
0.142028
0.134438
0.150875
0.116558
0.0969506
0.160164
0.116968
0.103303
0.141511
0.0896966
0.132268
0.142128
0.12134
0.145936
0.145299
0.137932
0.110636
0.12572
0.120195
0.163355
0.135643
0.133102
0.131609
0.132658
0.0777058
0.146403
0.148926
0.116128
0.140182
0.143771
0.134516
0.124003
0.136192
0.0918541
0.139742
0.142724
0.104062
0.121162
0.133688
0.15172
0.0191997
0.106085
0.141723
0.141157
0.132838
0.130211
0.136283
0.115526
0.134154
0.0981807
0.132745
0.136963
0.131328
0.142453
0.133844
0.0825775
0.150718
0.139982
0.13308
0.139037
0.103708
0.142617
0.153168
0.049979
0.150614
0.134299
0.128322
0.137292
0.140873
0.0903131
0.124741
0.116834
0.146547
0.145409
0.0981098
0.144282
0.124124
0.14298
0.131218
0.110317
0.153538
0.134656
0.137475
0.1385
0.141081
0.134607
0.122743
0.149268
0.126274
0.0678323
0.153102
0.140477
0.112534
0.133194
0.122242
0.150617
0.132966
0.13528
0.151181
0.145616
0.111534
0.123317
0.1299
0.129931
0.127063
0.125472
0.118023
0.144922
0.133215
0.153311
0.142979
0.1173
0.142877
0.138745
0.126975
0.149393
0.130502
0.131945
0.120709
0.132888
0.125619
0.13612
0.134723
0.112207
0.152307
0.151322
0.128438
0.147676
0.116609
0.131634
0.132951
0.139178
0.153397
0.12255
0.138035
0.132823
0.130596
0.0542824
0.135241
0.14043
0.163039
0.131016
0.138142
0.100779
0.111695
0.0884812
0.140975
0.13364
0.134777
0.111839
0.130376
0.129662
0.0992954
0.134952
0.146381
0.130223
0.133254
0.130025
0.120371
0.151492
0.116651
0.126047
0.132523
0.147312
0.144529
0.0891165
0.121843
0.116044
0.125252
0.0383394
0.128195
0.150093
0.0955975
0.139858
0.131689
0.147046
0.152668
0.133467
0.116785
0.153538
0.130764
0.150361
0.146141
0.133522
0.0936793
0.111094
0.161202
0.12917
0.143644
0.13238
0.13182
0.136474
0.137359
0.129948
0.110459
0.0388873
0.151422
0.144018
0.135064
0.0552913
0.13965
0.137182
0.136321
0.141837
0.137642
0.0923237
0.124215
0.132169
0.110689
0.130298
0.14521
0.130864
0.127263
0.140627
0.147759
0.130872
0.132006
0.153823
0.153074
0.143946
0.152993
0.134824
0.14641
0.131929
0.142813
0.0364091
0.131436
0.131846
0.0848082
0.130899
0.0891072
0.0669363
0.0184716
0.0865005
0.113829
0.134575
0.12975
0.140035
0.127966
0.128509
0.136531
0.110655
0.110209
0.0912937
0.145868
0.142155
0.12902
0.120414
0.130944
0.107778
0.137536
0.0702616
0.092474
0.13097
0.138017
0.137939
0.129143
0.131684
0.111157
0.131994
0.139687
0.0709918
0.128974
0.132566
0.146457
0.0868473
0.0420308
0.128829
0.124999
0.0524906
0.143061
0.109657
0.14277
0.129931
0.117523
0.131077
0.119881
0.114445
0.0869604
0.136367
0.104986
0.141227
0.106642
0.13908
0.127275
0.0189158
0.107565
0.131474
0.129121
0.141942
0.0918254
0.132947
0.139243
0.1487
0.111522
0.126697
0.137051
0.106836
0.0930947
0.131502
0.146256
0.131505
0.132338
0.135627
0.156111
0.143889
0.153479
0.142953
0.124647
0.15216
0.119066
0.0879887
0.0948704
0.125237
0.139969
0.140127
0.143614
0.118588
0.113343
0.138508
0.150313
0.146969
0.105265
0.153656
0.138823
0.137941
0.0291588
0.106848
0.145903
0.143009
0.146461
0.149584
0.125491
0.0935163
0.139217
0.143613
0.0948162
0.132947
0.138901
0.12614
0.128653
0.0976459
0.114394
0.0709827
0.132215
0.132911
0.141597
0.0419815
0.124492
0.130458
0.0971066
0.151001
0.151316
0.141085
0.141784
0.102653
0.146481
0.151798
0.141072
0.126362
0.144527
0.114919
0.130207
0.129792
0.144886
0.137269
0.137777
0.069644
0.151444
0.123644
0.134515
0.14753
0.134412
0.144055
0.146999
0.141282
0.101843
0.142768
0.0750897
0.145838
0.1344
0.15364
0.151834
0.103635
0.115733
0.153286
0.131612
0.126407
0.125789
0.13927
0.141384
0.113134
0.144864
0.113791
0.0655078
0.133926
0.135564
0.135211
0.139746
0.117531
0.129433
0.12943
0.145871
0.135763
0.108038
0.131929
0.139228
0.0960181
0.0910538
0.141766
0.0926155
0.151143
0.139117
0.1528
0.138133