/*--------------------------------*- C++ -*----------------------------------*\
| =========                 |                                                 |
| \\      /  F ield         | OpenFOAM: The Open Source CFD Toolbox           |
|  \\    /   O peration     | Version:  v2012                                 |
|   \\  /    A nd           | Website:  www.openfoam.com                      |
|    \\/     M anipulation  |                                                 |
\*---------------------------------------------------------------------------*/
FoamFile
{
    version     2.0;
    format      ascii;
    class       volVectorField;
    location    "800";
    object      ddtCorrDdt0(U);
}
// * * * * * * * * * * * * * * * * * * * * * * * * * * * * * * * * * * * * * //

dimensions      [0 1 -2 0 0 0 0];


internalField   nonuniform List<vector> 
9793
(
(0.000780237 -0.00183932 -2.15146e-18)
(-0.625508 0.0300464 -4.80372e-17)
(0.00034554 -0.00121769 -1.92549e-18)
(-0.0460808 -0.421612 6.85891e-18)
(-2.00579e-05 0.000313835 -1.23211e-18)
(-0.00249994 -0.0183624 1.55555e-17)
(0.0283734 -0.00230196 -6.318e-20)
(0.173394 -0.0140771 -7.74299e-17)
(0.00149658 0.00135892 5.04703e-18)
(-0.423899 0.0128528 -3.46483e-18)
(6.8261e-06 -0.000598462 1.80728e-19)
(3.42089e-05 -0.000692452 -3.50177e-19)
(0.000368214 -0.000496925 -6.77621e-19)
(0.0402427 0.428572 9.17833e-17)
(0.000744729 0.00111522 3.01174e-18)
(-0.00172006 -4.6229e-05 1.49716e-18)
(0.0035395 0.0128099 3.48057e-17)
(0.000423346 -0.00102913 1.15568e-18)
(-0.059034 -0.460363 -5.27429e-17)
(-0.000152466 0.000518027 -2.76366e-19)
(-3.55708e-05 0.000951396 1.61501e-18)
(5.36616e-06 0.000135788 -2.92621e-19)
(-0.161877 -0.326131 1.18617e-18)
(0.166545 0.0142938 -1.20915e-16)
(0.0450671 0.458308 9.60058e-18)
(0.00150437 -0.00229857 1.04299e-17)
(0.00013387 0.000148685 1.31942e-18)
(-1.28654e-05 0.000117991 -1.41937e-18)
(-0.000156003 0.000511566 4.29739e-19)
(0.0147416 0.0192088 1.2465e-17)
(0.0108679 0.0651567 2.14419e-17)
(-0.066744 -0.0242102 5.16011e-17)
(0.000195345 -0.00110508 -1.7935e-19)
(0.000380212 -0.000742937 2.97494e-18)
(0.000177928 -1.87231e-05 1.29727e-19)
(-0.000945125 0.0058565 -1.43581e-17)
(-0.00109486 0.00101709 -8.07217e-19)
(0.000453538 -0.00272009 -1.83183e-17)
(0.0867305 -0.0673037 3.97922e-17)
(0.00367831 0.00599971 -4.8087e-18)
(0.0140683 0.0168163 -5.82534e-19)
(0.0555558 -0.326804 2.5236e-17)
(-0.0684852 -0.382464 -1.76372e-16)
(-8.45831e-06 0.000110432 1.50598e-18)
(0.00012854 -0.00109038 6.74487e-18)
(7.03463e-05 -0.00078276 4.96527e-19)
(0.21761 0.0280124 -4.7815e-17)
(-3.02363e-05 0.00022367 -6.75194e-19)
(-0.000258715 0.00117132 -2.80097e-18)
(0.000383637 -0.00101435 1.2272e-18)
(-0.0012961 0.00558319 4.46889e-18)
(0.000190429 -1.95357e-05 -5.90734e-20)
(0.000631748 0.00920518 2.59139e-18)
(-3.6622e-05 0.000268236 -4.0477e-18)
(0.00199822 -0.0036135 1.17438e-18)
(-0.0501086 -0.426935 -8.58473e-18)
(0.000320878 -0.000397349 1.09104e-18)
(-0.0017768 0.0320896 -2.10158e-18)
(-0.000212082 0.00124427 1.55314e-19)
(-7.21743e-06 0.000115337 2.72716e-18)
(0.00096951 -0.00201418 1.32496e-17)
(-0.00698568 -0.0125271 7.03994e-18)
(0.000319804 -0.000943897 -3.14239e-18)
(-0.00689698 0.00376705 2.84474e-18)
(9.7386e-05 -4.79554e-05 9.14389e-20)
(0.00145135 0.0013105 -3.61284e-18)
(0.269935 0.0218114 -8.08745e-17)
(0.001531 0.0032849 -1.32869e-19)
(-0.00108533 0.000537592 -1.8347e-18)
(-0.00932784 -0.283818 -1.28468e-16)
(0.000673223 -0.000767053 -3.53017e-18)
(0.00187744 0.00237853 -1.91578e-16)
(0.144689 -0.0335841 -4.96213e-17)
(-0.45512 -0.280413 4.0849e-19)
(0.242777 0.303341 1.45846e-17)
(-4.25024e-06 0.000225664 -1.66933e-18)
(-0.00106115 -0.00331021 3.475e-17)
(0.0882237 -0.0963779 7.18099e-17)
(0.000226943 -0.00106246 -4.86636e-19)
(-9.65832e-06 0.000310542 4.86924e-18)
(-0.000704525 -0.00342973 -6.3945e-17)
(-0.049682 -0.444624 -6.37104e-18)
(0.00308136 0.0122911 -1.60233e-17)
(0.00259418 -0.000899419 -6.35626e-19)
(-0.00129891 0.000783484 -9.73727e-18)
(0.0167619 0.0719446 -1.83086e-17)
(-5.0552e-06 0.000314587 -3.61188e-18)
(-0.0283216 0.0146019 4.9051e-18)
(0.0884086 0.0133725 -3.16886e-17)
(-0.00615836 -0.0105844 -2.73993e-18)
(-0.134989 -0.388571 2.36051e-18)
(0.0693089 0.179156 1.31604e-17)
(0.101188 0.162368 1.14176e-16)
(0.00945677 0.00621033 -1.19969e-17)
(-0.0943007 -0.402989 5.25101e-17)
(0.000535744 -0.00120999 -1.23109e-18)
(0.258314 0.24009 2.94578e-17)
(0.0058189 0.0120725 -4.43723e-17)
(0.00318878 0.00242354 -9.44647e-18)
(-4.28192e-07 0.000319821 -2.25366e-19)
(0.0142145 -0.296839 -1.20827e-17)
(0.000719502 0.00873038 -4.16265e-18)
(-0.308988 -0.532358 1.31164e-18)
(0.000154546 -0.00105974 -9.66053e-19)
(0.148297 0.486788 4.00289e-18)
(0.100994 -0.119962 5.59757e-17)
(-0.389136 -0.411246 -4.13517e-18)
(0.00030944 -0.0003655 1.63735e-19)
(0.000211826 -0.00109188 -1.09746e-19)
(-9.19737e-07 0.000275953 -2.23852e-19)
(-2.62183e-05 -1.51175e-05 -1.94208e-19)
(-0.176588 -0.354883 2.1665e-18)
(0.00837903 0.0128045 -3.31537e-17)
(-0.189445 0.0534633 6.37396e-17)
(0.000551893 -0.000695624 2.57661e-18)
(0.000103606 1.56707e-05 1.88959e-18)
(7.17811e-05 0.000457876 -3.46513e-18)
(0.000102879 -0.000626157 6.92305e-20)
(-0.0418466 -0.451125 -1.0255e-17)
(4.22733e-05 -0.00112483 -2.12003e-18)
(0.121282 0.522637 3.83751e-18)
(-0.0293185 0.0191446 2.49144e-18)
(0.330429 0.158604 3.10403e-17)
(-0.00235758 0.0112083 -3.89248e-18)
(-0.00109055 0.00134241 -6.30876e-18)
(7.39141e-05 -0.00100964 2.4029e-18)
(0.00450722 0.0138391 7.19033e-19)
(0.0283528 0.0781879 2.80785e-17)
(-0.108053 0.0550542 1.30539e-18)
(-0.122415 0.0471444 -1.38903e-18)
(-0.000331087 0.0029968 7.63068e-18)
(0.000584301 0.00024096 3.24618e-20)
(0.000757559 -0.00169677 1.38629e-18)
(0.00131104 0.00278764 -5.15155e-19)
(-0.000352968 0.00536797 -3.22119e-18)
(0.051126 0.0121109 -1.2321e-17)
(0.103616 -0.0433572 8.6547e-18)
(-5.80344e-05 0.000372684 5.07091e-18)
(-1.40518e-05 0.000211895 1.6891e-18)
(0.00230299 0.0135182 5.10316e-18)
(-0.0997117 -0.440694 -7.67522e-17)
(-0.00069219 0.00555951 1.85627e-17)
(0.000839712 -0.000554298 2.16816e-19)
(-0.0190535 0.00965396 3.01516e-18)
(0.189545 0.0389389 -5.43478e-17)
(0.0144661 -0.0612714 -7.65848e-17)
(5.09144e-05 -0.00100354 1.425e-19)
(0.227302 0.160166 -6.86551e-17)
(0.000625776 0.000230926 -2.93716e-20)
(3.31355e-05 -0.00109633 -4.12704e-19)
(0.000113295 -1.00704e-05 -5.12334e-18)
(-0.309264 -0.0355057 -7.99561e-17)
(0.00301081 0.00235051 1.74331e-17)
(0.000123401 0.000149249 -7.03382e-19)
(0.000286548 -0.00172637 -8.31041e-18)
(0.166942 0.113873 2.01141e-17)
(0.00308357 0.013178 -3.50709e-17)
(0.000340551 -0.000962145 -1.10682e-18)
(-0.0816986 -0.038479 7.12407e-17)
(0.000551093 -0.00101607 4.55462e-18)
(-0.023676 0.013728 -2.53687e-18)
(-0.000306999 0.00318567 5.54262e-18)
(1.35381e-05 0.000929856 -1.1129e-18)
(-0.0162923 0.00253273 2.71883e-17)
(0.000136523 0.00187827 2.49625e-18)
(-0.063822 -0.0857353 -4.45403e-17)
(-0.126746 -0.485089 -4.56547e-17)
(0.000296489 0.00205777 3.68804e-18)
(0.000289631 -0.000335186 3.75143e-19)
(-2.26947e-05 -0.000335743 2.92862e-18)
(0.000827625 -0.000487322 1.36148e-18)
(-0.00649773 -0.183106 1.51059e-16)
(-0.362428 0.129637 4.74842e-17)
(0.364589 0.796816 -1.52327e-17)
(0.000372847 -0.000578211 4.99044e-19)
(0.00455885 -0.013131 -2.10584e-17)
(0.00881767 -0.0283151 2.22456e-17)
(-0.0226379 0.00633149 1.23056e-17)
(0.000256952 -0.000946401 3.35964e-18)
(0.00119682 0.00331118 2.17602e-17)
(0.135614 0.463243 -1.9141e-18)
(0.247537 0.036321 4.89091e-17)
(-0.0346928 0.0214093 -7.25088e-18)
(7.18423e-05 -0.000990633 -2.2199e-18)
(7.36844e-05 -0.000122947 -2.99454e-18)
(0.000308197 -0.000342807 -4.63575e-20)
(0.351825 0.186367 -7.98276e-18)
(0.172028 -0.0128882 -7.42023e-17)
(-0.285215 0.0684058 5.21552e-17)
(-0.377294 -0.39073 4.62619e-17)
(0.00133223 0.00112507 2.29357e-18)
(-0.388216 0.213844 -5.06079e-18)
(-0.00452777 0.00945985 1.15271e-16)
(0.000999619 -0.00226875 5.87325e-18)
(-0.000358069 0.000951114 -1.66158e-18)
(0.00186705 -0.00177111 6.67536e-20)
(-0.00170668 0.0132897 -4.53781e-17)
(-5.27608e-05 0.000433862 -4.33159e-19)
(0.000432904 -0.00116309 7.90061e-19)
(-1.95455e-05 -0.000758067 5.10524e-19)
(0.000498581 -0.000794264 -1.69308e-18)
(-9.837e-05 0.00111048 -1.44256e-18)
(-0.00212111 0.00566605 -1.31932e-17)
(-0.00123673 0.00300596 9.88301e-18)
(0.0232432 -0.503974 1.47744e-17)
(0.000256432 -0.00129728 -6.37786e-18)
(0.00319944 0.00500635 -7.62394e-18)
(0.000184071 0.00210564 -3.85187e-18)
(0.00101804 -0.00163891 7.05898e-18)
(-0.0280648 -0.0170701 8.55658e-18)
(0.00259325 0.0131359 1.83803e-17)
(-0.113938 -0.483885 -9.69505e-17)
(2.96998e-05 0.000385505 -7.61828e-19)
(-0.0430744 -0.325844 1.18837e-17)
(0.00252081 -0.000954387 4.82148e-19)
(0.00144167 -0.0146306 -4.48305e-18)
(0.000840078 0.0011134 -2.11611e-18)
(0.0483336 0.0186411 7.10539e-18)
(9.5646e-05 -0.000122794 -8.05001e-19)
(0.000409589 -0.000993945 -2.6028e-18)
(0.00565688 0.0128762 5.50172e-17)
(-8.66432e-05 0.00108855 2.28854e-18)
(0.0159229 0.0163791 -2.54725e-17)
(0.0292152 1.10665 7.05019e-19)
(0.00914421 0.00532193 2.83683e-17)
(0.00062129 -0.00111419 3.3258e-20)
(-0.00232051 0.013854 7.015e-18)
(-0.194384 0.247812 7.50691e-18)
(-0.000473704 -0.00220627 -2.02769e-17)
(-0.00122951 -0.00214812 2.31976e-17)
(-0.0328767 -0.483286 -5.29257e-17)
(-0.0732705 0.0437091 -2.0104e-18)
(9.88145e-06 -0.0122624 2.14298e-18)
(-0.00785635 0.00391872 -1.04589e-17)
(-0.00297189 0.00873107 -1.33179e-16)
(-0.000467976 0.000668713 1.216e-18)
(-0.393788 0.0902529 1.95395e-18)
(-0.16366 0.0634547 4.66817e-17)
(-3.99867e-05 0.000415991 -1.76146e-19)
(5.64293e-07 -0.000388749 5.48268e-19)
(0.0971533 -0.285785 -1.98747e-17)
(0.000580679 -0.00092999 2.32991e-18)
(-2.93189e-05 2.75892e-05 2.8777e-18)
(-0.00771363 0.0441969 4.3642e-18)
(0.00452944 0.0457477 -1.6108e-17)
(0.00142228 0.00119499 3.78674e-19)
(0.000954802 0.00357084 -5.01946e-18)
(0.00330873 0.00536236 1.8323e-17)
(0.00465018 -0.00574429 2.94208e-18)
(0.000435411 0.00359481 -7.36964e-18)
(0.000258769 -0.000980991 -1.11243e-18)
(0.0128454 0.000845239 2.94685e-17)
(0.0291984 -0.440169 7.10432e-17)
(-4.73574e-05 0.00106695 -2.55256e-19)
(0.211375 1.01016 8.74964e-17)
(-3.17576e-05 0.000290958 3.36494e-18)
(6.34931e-05 -0.000679876 3.95973e-18)
(4.68821e-06 5.96397e-05 -3.37137e-19)
(-0.0438275 -0.440592 3.81442e-17)
(9.57507e-05 -0.00113933 5.78825e-18)
(0.184429 0.156084 6.87595e-17)
(0.10569 0.138483 1.22367e-17)
(0.000106676 7.48316e-05 -1.01363e-18)
(9.89797e-05 -0.000274748 4.38399e-18)
(-0.146489 0.211933 -1.51928e-16)
(3.69308e-05 4.05964e-05 2.70573e-19)
(-2.04765e-05 2.64733e-05 3.46948e-18)
(-3.19448e-05 4.73993e-05 1.53417e-18)
(0.0520552 0.0381766 -2.82005e-17)
(-0.0144082 0.00185325 -2.16803e-17)
(0.00175865 -0.00227576 1.6341e-19)
(-0.0203936 -0.0291519 1.00805e-17)
(0.00131502 0.0264959 1.76254e-17)
(-0.200704 -0.386973 2.17186e-17)
(-0.190491 -0.136353 7.4417e-19)
(0.000319513 0.00213409 -4.47943e-18)
(-0.0208951 -0.359429 1.56872e-17)
(-2.70919e-05 0.000289056 -4.13626e-19)
(-0.131938 0.116891 3.32218e-18)
(-0.0363727 0.0566414 -1.27549e-16)
(0.202975 0.23602 3.29752e-17)
(0.140656 0.52112 -7.71234e-18)
(-0.0637314 0.0454393 1.93469e-18)
(-0.000500182 0.00287754 6.66301e-18)
(0.00323481 0.0116791 4.26565e-18)
(-0.000991181 0.00297303 -8.95149e-18)
(-0.000375197 0.000896965 2.55733e-19)
(-0.000179883 0.00202229 1.32494e-18)
(-0.0242939 -0.0199464 -1.13918e-17)
(0.00139685 -0.00254911 -4.06817e-18)
(9.57551e-05 -0.000458842 -9.9932e-19)
(-1.70599e-06 4.62582e-05 -1.20503e-18)
(2.4202e-05 0.000406515 -4.20974e-19)
(-0.000501607 4.57412e-05 4.25883e-19)
(-1.08898e-05 0.00104036 1.30356e-18)
(-0.31267 -0.243447 -4.39058e-18)
(0.000362158 -0.000393046 -2.63704e-20)
(0.00083045 0.000933424 -1.16535e-18)
(-0.000536268 2.90696e-05 -3.02427e-19)
(0.000351347 -0.000441462 -1.40142e-18)
(0.0178875 -0.376083 7.0791e-17)
(0.0190155 -0.0633776 8.51767e-18)
(0.00168438 -3.1852e-05 6.86029e-18)
(0.000762362 -0.00249057 9.66768e-19)
(-0.0172846 0.0123046 8.08538e-18)
(-0.000541763 2.22823e-05 8.52304e-19)
(-0.236595 -0.288574 -2.37428e-18)
(-0.163011 -0.104937 1.0361e-16)
(0.000115498 -0.0010946 -4.25337e-18)
(0.129635 0.153031 9.94751e-17)
(-0.00555923 0.00484323 1.16725e-17)
(0.000131171 -0.00108356 -5.82982e-18)
(-0.398659 -0.00230211 8.09962e-19)
(-0.336901 -0.294908 5.15347e-18)
(0.000190541 -0.00102823 4.83401e-20)
(0.0136361 -1.60439e-05 1.46494e-17)
(0.0781139 0.0842257 -1.41251e-17)
(0.000983505 -0.00130449 -2.40598e-18)
(0.00082641 -0.00226407 -1.26377e-17)
(0.000762157 0.00104241 -2.79517e-18)
(0.00100627 -0.00167823 -7.21972e-19)
(0.10112 0.0792018 3.88311e-17)
(0.00169545 -0.00624795 3.09065e-18)
(0.000364245 -0.000700421 -8.82331e-19)
(0.000112664 -0.00116695 7.96191e-19)
(0.000845797 -0.00238696 -1.30397e-17)
(0.0205537 -0.0348087 -1.99985e-17)
(-0.00142915 0.0158409 2.75016e-17)
(0.00026474 -0.00113588 6.29175e-18)
(0.000333811 -0.000376234 -3.14973e-19)
(0.000197115 0.0012766 2.59687e-18)
(0.0411714 -0.15407 -1.30738e-16)
(0.00350613 -0.518324 3.88249e-17)
(-0.18163 -0.0733375 1.27144e-16)
(-0.000423456 0.000739138 4.54588e-18)
(0.00158255 -0.00688178 2.94455e-18)
(0.00100442 -0.00220685 1.98653e-17)
(-0.0533186 -0.0206622 -3.72089e-17)
(0.000148922 0.0194256 2.99528e-17)
(-0.000560482 0.000654607 -2.52825e-18)
(-0.000447168 0.000725241 -2.17015e-18)
(0.000243653 0.00121389 -6.2322e-19)
(0.00274075 0.0113038 -7.62107e-18)
(0.00143194 -0.00106689 -1.7761e-18)
(-0.218068 0.281911 2.84943e-17)
(0.000142313 5.15648e-05 4.37404e-18)
(0.00055562 0.00012923 -2.86682e-19)
(-0.358625 0.138279 1.20708e-17)
(-0.375289 -0.197463 3.05467e-18)
(-0.0500341 -0.320183 5.72347e-17)
(-0.000497263 5.59018e-05 9.5712e-19)
(-0.0101703 -0.325554 1.62659e-18)
(0.0033218 -0.000687981 -7.03736e-21)
(-0.0158687 0.0328025 5.50337e-18)
(-0.0148664 0.230829 -1.16207e-16)
(-0.0270985 -0.486313 2.91035e-17)
(0.00268358 -0.000189961 -6.68548e-19)
(0.0041539 0.00612901 -5.95011e-18)
(0.0896003 -0.0624311 -5.08604e-17)
(-0.16822 -0.396052 -1.77136e-18)
(-0.134083 -0.368783 -1.98046e-18)
(0.000699334 -0.0021652 -6.21479e-18)
(-1.08132e-05 0.000147335 -5.78192e-19)
(0.00176957 -0.00218901 -3.79607e-18)
(-0.000323986 0.00100919 3.69132e-18)
(0.000376714 -0.00026493 1.29401e-19)
(0.00135582 -0.000997204 -1.70351e-18)
(0.000114636 0.000113551 -3.31755e-19)
(-2.0746e-07 1.80419e-05 -3.7571e-20)
(-0.225686 0.303891 3.66037e-17)
(-5.82443e-06 -0.000532378 8.03321e-20)
(0.0059572 0.0147465 -1.08564e-18)
(0.00294665 0.00617208 1.3475e-17)
(0.0922234 0.217466 -3.92451e-18)
(-0.000583955 0.00070179 -6.3992e-19)
(0.00262136 -0.000797062 5.89732e-19)
(-0.005715 -0.448569 9.50534e-19)
(0.000304285 0.00894849 5.59303e-17)
(0.10968 0.90962 -3.30735e-17)
(-0.000305761 0.0184296 -3.33068e-18)
(0.000528311 0.000168453 1.71724e-19)
(0.00275678 1.62629e-05 1.52285e-18)
(0.000315463 -0.00112692 8.78762e-19)
(0.0761502 -0.0393072 4.96998e-17)
(-0.000202714 0.000148701 4.06816e-20)
(-0.0348888 -0.25938 -5.3825e-17)
(-0.00264879 -0.0289275 -1.40899e-17)
(0.0268444 -0.00561712 3.93995e-18)
(-0.243627 -0.00898558 -1.52184e-16)
(0.0634128 -0.24018 -2.1456e-17)
(9.17488e-05 -0.000160867 -2.23427e-19)
(0.000625799 -0.00108524 -3.44002e-19)
(0.126112 -0.0368888 6.38507e-18)
(0.0827016 -0.02939 -3.93065e-18)
(0.000272141 -0.00133965 -8.80528e-18)
(0.0313895 0.197724 8.32497e-17)
(9.94128e-05 -0.000101189 2.16173e-19)
(4.55454e-05 -0.000930631 -1.85314e-18)
(-0.0665539 0.0238982 3.86027e-18)
(1.82822e-05 0.000396213 8.16181e-19)
(0.00200106 0.0302596 -2.35245e-17)
(-0.000421634 0.000723633 -2.97711e-18)
(-0.00559699 -0.297472 -5.33245e-17)
(0.000127112 0.000114491 -3.7061e-18)
(5.95352e-05 0.00191594 -1.66239e-18)
(-0.435432 0.396789 -1.55592e-18)
(0.00155851 0.00214468 -4.3417e-17)
(-0.00767307 -0.0237871 5.71116e-18)
(0.00097642 -0.00228448 -8.55591e-18)
(9.66573e-05 0.000122372 1.17547e-18)
(0.000806887 8.82136e-05 1.07634e-18)
(0.312534 0.185771 5.17845e-18)
(0.00677233 0.0117894 1.53079e-17)
(-0.000296017 0.00087444 -1.56268e-18)
(1.48667e-05 -0.000962871 1.079e-18)
(0.00175442 -0.00345436 -3.12531e-18)
(0.00149049 -0.00247192 3.43675e-17)
(-0.00387466 -0.0241455 1.78695e-18)
(0.232302 0.0499231 2.61534e-17)
(1.4052e-05 -0.000903105 -1.0636e-18)
(0.000438534 -0.000820007 -1.87934e-19)
(-0.0188753 -0.0030815 -6.05569e-18)
(8.926e-05 0.000117388 -1.10457e-18)
(0.0288199 -0.462515 -7.67269e-17)
(-0.0232426 0.00271528 -1.20435e-17)
(7.35513e-05 -0.000309 -2.18681e-18)
(0.000206726 -0.00101422 -3.87798e-19)
(-4.25363e-05 0.00201418 -2.22956e-18)
(9.82536e-05 2.6216e-05 -4.70336e-19)
(0.00015642 0.0012366 -3.27353e-18)
(0.0556524 -0.230197 2.93693e-19)
(-0.00036371 -0.00151426 -2.50063e-19)
(-0.150844 0.258915 -2.15473e-17)
(0.000514899 -0.00231426 -1.12236e-17)
(-0.000492352 0.000981976 3.08841e-19)
(-0.00152385 0.0111988 -1.50789e-17)
(0.000422714 -0.00236479 1.48302e-17)
(-0.0599545 -0.448752 4.29865e-18)
(0.000757591 -0.0025923 -8.26218e-18)
(-2.56647e-05 0.000339634 3.85598e-18)
(0.00137808 0.00348074 -2.04549e-17)
(0.0272642 -0.0573437 4.14847e-18)
(0.000660392 -0.000646097 3.63981e-18)
(0.000623509 -0.000917914 -1.54471e-18)
(0.000564499 -0.000780946 1.10161e-19)
(-0.000178829 0.0001319 1.57849e-19)
(0.000285198 -0.000776419 2.71198e-18)
(0.000920002 0.000644055 -2.93336e-19)
(9.98558e-05 -0.000750668 -4.83566e-18)
(6.85287e-05 -0.000316285 3.21262e-19)
(0.00185227 -0.00156548 -3.34595e-18)
(-0.000797497 0.00324009 -2.49619e-18)
(-0.0129135 0.0460315 8.73023e-18)
(-0.000368996 5.52621e-05 -8.77724e-19)
(0.00142532 0.0132868 -1.4438e-17)
(0.00144602 -0.00220541 1.58544e-17)
(-0.00489385 -0.0326517 2.66589e-17)
(-0.202258 -0.00795108 -7.23998e-19)
(-0.000346834 0.000924099 1.76995e-18)
(-0.339804 0.166576 -1.00742e-17)
(0.0265636 -0.000209443 -2.77946e-17)
(-0.000315996 0.00102474 -1.76672e-18)
(-0.000163614 0.000186396 4.84545e-19)
(0.000883385 -0.000525679 -2.56141e-18)
(0.0170587 0.545044 -1.83458e-17)
(0.00372889 0.0246108 4.42792e-17)
(-0.000184061 0.000174151 -1.55423e-19)
(8.3158e-05 -0.000128003 3.04402e-18)
(2.13441e-06 -0.000872772 -4.65398e-19)
(0.00440373 -0.000391799 3.97168e-17)
(0.00535931 -0.030512 2.39809e-17)
(0.0996237 -0.138922 6.16398e-18)
(8.78378e-05 -6.25508e-05 8.69316e-19)
(0.000230844 -0.00173448 9.3879e-18)
(0.000736161 -0.00248155 8.06613e-18)
(0.251738 0.0276975 1.08476e-16)
(0.154634 0.142086 -4.4101e-17)
(0.00106412 -0.00241957 7.18934e-18)
(-0.000370767 0.00247506 5.82779e-18)
(0.12255 1.07597 -2.98212e-18)
(-0.094004 -0.138403 5.88289e-17)
(0.0161106 0.101877 -6.0166e-19)
(0.00118434 -0.00143349 -1.22869e-18)
(0.000571413 0.000207767 -2.39958e-19)
(0.0257759 -0.490983 5.67357e-17)
(0.000537484 -0.00127117 -1.0772e-18)
(0.0132035 -0.0293893 -2.11884e-17)
(0.163084 0.190527 2.04773e-18)
(-0.000316782 0.000824601 1.58139e-19)
(-0.0137511 0.000104454 2.66311e-18)
(0.00274908 0.00457008 -1.16746e-17)
(-0.0797447 -0.433065 3.53858e-18)
(0.000789188 7.19622e-05 2.90236e-19)
(-0.00616215 -0.458753 3.28708e-18)
(-0.05079 0.0404958 -1.82883e-17)
(-0.00151075 0.000351478 6.97275e-19)
(-0.181867 0.176129 -1.00964e-17)
(0.000544327 -0.00122295 -6.84658e-21)
(-0.0463024 -0.0265324 -1.02566e-17)
(9.43487e-05 9.342e-05 3.58044e-18)
(0.000611613 -0.00105287 -6.24812e-19)
(-2.28553e-05 -0.000199092 4.76307e-19)
(0.000355216 -0.000923818 -8.7669e-19)
(0.189907 0.278532 -6.87084e-17)
(0.000572843 -0.00120196 1.99622e-18)
(-0.000172106 0.00128665 -4.94391e-18)
(0.000797198 -0.00223149 4.79519e-18)
(-0.0003805 0.000805175 -2.01937e-18)
(0.000599671 0.000203045 1.40188e-19)
(0.0136741 -0.00217824 -3.80329e-18)
(0.00218859 -0.000877476 -2.36005e-18)
(-0.00630539 0.00503805 -8.67104e-18)
(9.00382e-05 -0.000227663 -5.8345e-19)
(8.20624e-05 -0.000147952 9.81131e-19)
(0.00623997 -0.4403 1.77699e-17)
(0.00117135 0.000566993 -1.32516e-17)
(0.00103251 -0.00229574 8.09015e-19)
(0.288021 0.917629 -5.86586e-17)
(-0.000629974 0.00314029 -7.46667e-19)
(0.00150346 -0.00127414 6.96051e-19)
(8.95591e-05 -0.0011741 -3.20839e-18)
(8.43641e-05 0.00133127 1.28937e-19)
(-0.205922 -0.0990001 -1.31967e-16)
(-0.0002077 0.00123451 -1.00871e-18)
(2.91315e-05 1.03224e-05 8.56327e-20)
(0.243571 0.02762 -2.6154e-17)
(0.0165855 -0.310527 5.93173e-17)
(0.00530707 -0.00529728 -2.89149e-18)
(0.000357566 -0.000423318 9.4329e-19)
(1.02576e-06 0.000262635 1.59954e-18)
(0.000747081 0.00160004 9.99531e-19)
(-6.10424e-06 4.06505e-05 1.36988e-18)
(0.150248 1.11804 -1.10782e-16)
(0.00105748 -0.00138337 2.73573e-18)
(-0.496367 -0.391825 -1.03199e-17)
(-0.000913137 0.00176711 2.65252e-18)
(0.0127297 0.0182207 2.68399e-17)
(-1.53525e-05 0.000322016 -4.60198e-18)
(0.360795 0.0263272 6.55336e-18)
(0.000133045 -2.57176e-06 5.62198e-19)
(0.0231084 -0.0405994 1.00999e-17)
(0.000511822 -0.00136598 -5.10625e-19)
(-0.0536661 -0.0213655 -2.11148e-18)
(0.0170357 -0.416085 -4.44013e-17)
(9.32218e-05 9.135e-05 6.7991e-18)
(0.233496 -0.272627 6.15185e-17)
(0.000654311 -0.00123574 1.03019e-18)
(-1.92279e-05 -6.80196e-06 -7.30167e-20)
(-3.68051e-05 0.000909485 4.66589e-19)
(0.14382 0.398707 3.38521e-19)
(-0.0114726 -0.576323 -3.94952e-17)
(0.000856825 -0.000551614 9.59006e-19)
(0.00280791 0.00495083 -9.63096e-18)
(-0.00027452 0.00108441 -1.01497e-19)
(0.0627081 1.14823 -2.67832e-17)
(-0.000365879 6.41679e-05 1.25786e-18)
(0.0131218 0.00204713 1.39353e-17)
(-0.00855496 -0.463886 2.79353e-18)
(0.000695925 -0.0021696 7.0683e-18)
(4.20009e-05 -2.81365e-05 3.76767e-19)
(-0.000761954 -0.00332082 1.06815e-17)
(-3.48687e-05 5.01889e-05 1.71623e-18)
(0.000746488 0.00171039 1.10868e-18)
(0.000311124 0.00120091 -2.26841e-18)
(-0.0179861 0.0408887 1.9628e-17)
(0.000144036 -0.000126807 -3.72962e-19)
(-0.09051 1.04072 3.39574e-18)
(7.76308e-05 -7.09023e-05 5.19537e-19)
(0.00152547 -0.00101064 2.22558e-18)
(-0.0103717 0.0013148 1.13246e-17)
(-0.00469767 -0.00580658 -1.24237e-17)
(0.0919517 0.135397 7.00395e-18)
(0.000771121 0.000795745 3.38811e-19)
(0.386578 0.0301904 -1.65283e-18)
(0.000623585 -0.000992137 1.87335e-18)
(0.0054461 -0.0360676 -8.36068e-19)
(0.000420703 -0.00160549 2.61771e-18)
(0.000120726 0.00198635 5.87206e-18)
(0.000527784 -0.00127121 -4.7436e-19)
(9.87917e-05 -6.14458e-05 -1.15787e-19)
(2.00593e-06 0.000313534 5.1793e-19)
(0.00141329 -0.0381613 -2.80593e-17)
(-0.00221925 -0.0120574 -3.00445e-18)
(0.173077 -0.33798 -9.29409e-17)
(-0.00119474 0.0249413 2.90003e-17)
(0.000691045 -0.00249459 8.25368e-18)
(0.00249649 -0.00409088 -3.16368e-18)
(-0.0615555 0.0113024 -2.37758e-17)
(0.00129166 0.00298908 -1.16382e-18)
(0.186399 1.03739 7.0975e-17)
(-0.164638 -0.404672 -6.29271e-17)
(0.0188395 -0.0449375 -2.06382e-17)
(0.192051 0.310033 1.21307e-16)
(0.131457 0.169769 9.30167e-19)
(0.0149132 -0.0349439 -1.88542e-17)
(0.000692327 0.00181821 -2.75253e-18)
(0.0027536 0.0134025 -7.24143e-17)
(-0.0103481 -0.000183348 2.2944e-18)
(0.000177157 0.00192455 -4.3784e-18)
(0.0203215 -0.0508951 1.71485e-17)
(-1.62283e-05 8.6568e-05 -1.68251e-18)
(-0.0248847 -0.026876 2.0038e-19)
(0.00512309 -0.0044562 -7.0992e-18)
(0.0566496 0.0339473 -1.96187e-17)
(0.000746934 -0.00266273 -1.00309e-17)
(-0.411188 -0.228803 5.55256e-18)
(-0.21685 -0.351968 -1.65918e-17)
(-0.00883035 0.00200799 -3.96066e-18)
(0.0457645 0.0383454 -9.90481e-18)
(-1.16545e-05 -0.000554598 -2.74157e-18)
(-0.0111799 -0.0554686 -6.39921e-17)
(0.00023444 -0.00250727 9.113e-18)
(0.00047319 -0.00129507 -3.21205e-18)
(0.00134129 -0.00106587 -7.03373e-19)
(-6.79736e-05 0.000801569 -3.54665e-18)
(0.00673776 0.0108277 -2.29065e-17)
(-0.0309479 -0.479957 3.34041e-17)
(-0.0162083 -0.0256208 -9.50265e-19)
(0.0201402 -0.0300514 -4.14233e-17)
(0.00146424 0.00267675 -6.88467e-19)
(0.00181454 -0.00188792 3.29293e-18)
(-0.0771583 -0.428873 -5.05395e-18)
(0.00371083 0.00798562 1.63569e-18)
(-0.000181717 0.00254472 -9.35833e-18)
(0.000219283 0.0159762 7.20587e-18)
(0.00117981 -0.00172083 1.12791e-17)
(-0.0232111 0.0385433 -4.0751e-18)
(-0.399781 0.29213 1.90047e-18)
(7.72545e-05 -0.00041065 5.76532e-18)
(0.00224384 0.000374008 -1.04139e-16)
(-0.0173374 -0.00515578 2.1837e-17)
(-0.180948 -0.419684 4.85307e-17)
(0.000106901 -2.7226e-05 -1.20901e-19)
(0.00177272 -0.00205416 -6.66297e-18)
(0.0814571 -0.393978 -1.21117e-16)
(-0.00208591 0.00514061 1.01085e-17)
(0.359683 0.120308 2.0445e-17)
(-0.0574404 -0.0132134 3.26904e-18)
(0.0679319 0.221427 -5.7787e-19)
(0.0024708 -0.00179516 6.74457e-18)
(0.00150451 0.00306884 1.25384e-19)
(0.00110617 0.00125147 3.57858e-19)
(0.000284511 -0.00173263 3.52299e-18)
(-0.159976 0.0378501 1.76568e-18)
(-1.55185e-05 0.000231829 -4.2703e-18)
(-0.18309 0.0413299 -1.71996e-18)
(-0.0102507 0.0161592 5.37643e-17)
(0.0225338 -0.0112991 5.34709e-17)
(-1.32058e-05 6.39646e-05 2.90456e-19)
(-1.66126e-05 -0.000122408 -1.80152e-18)
(-0.00045735 0.000762908 -3.254e-19)
(-0.000354837 0.000991044 1.8782e-18)
(0.000204453 -1.93785e-05 9.18083e-20)
(0.000570962 -0.000978992 -2.66315e-18)
(0.00155634 0.0227093 -4.42683e-17)
(-0.0431273 0.538371 1.87997e-17)
(0.0296073 0.291234 -1.88223e-17)
(-1.12868e-05 0.000128812 -9.63584e-19)
(0.0632561 -0.0398499 6.30435e-17)
(0.000282913 -0.00034806 -1.39279e-18)
(-0.291338 -0.375968 1.63458e-16)
(-0.0108218 0.0100043 9.91168e-18)
(-0.000671589 -0.00262969 -2.20399e-17)
(0.00114202 -0.00226971 -2.97763e-17)
(-0.0505953 0.0281977 2.30268e-17)
(0.000207464 7.08692e-05 -6.15164e-21)
(0.000123336 -0.000192817 -2.22489e-18)
(-0.0014634 -0.00400679 7.15935e-18)
(0.000528398 -0.00136166 -1.43231e-18)
(0.00078836 0.00158744 -4.66076e-18)
(0.0019162 0.0135113 2.26467e-17)
(-0.0408179 -0.3809 -5.46158e-18)
(-0.000147585 0.00114491 -1.6863e-18)
(-0.139127 0.060431 1.31826e-18)
(0.155824 0.275441 -2.1075e-17)
(0.000583323 0.00377834 -4.14842e-18)
(0.0480705 0.328701 3.38081e-18)
(0.170092 0.320144 1.85846e-17)
(0.000963716 0.000741024 -1.23814e-18)
(0.00489733 0.0129246 5.74412e-18)
(-0.00201151 -0.000213731 1.44561e-18)
(0.00136133 0.00102082 -2.51126e-18)
(-2.45715e-05 0.000874033 7.3135e-19)
(-0.0028048 0.0011426 -3.73452e-17)
(0.187795 0.291119 8.9061e-18)
(0.0145533 -0.0931216 -6.35216e-17)
(0.000680464 -0.000649484 -5.47516e-18)
(0.00012559 -0.00121305 -1.91703e-18)
(0.000222745 0.000859671 -1.99217e-19)
(0.000349752 0.000473357 -3.39478e-18)
(0.00222901 -0.000672478 1.79074e-19)
(0.00241704 -0.00114138 -2.28015e-18)
(0.0179897 0.00773942 -8.02416e-17)
(-0.0120963 0.00864417 -4.53494e-18)
(8.29328e-05 -0.000286667 -6.18324e-19)
(-0.201597 -0.1289 8.19626e-17)
(-0.00172726 0.00594112 -8.90806e-18)
(0.00059558 -0.00265549 -1.30963e-17)
(0.000697594 0.00157714 5.84556e-18)
(-0.112474 0.0228359 9.04691e-17)
(-0.000503837 0.0026772 -1.44548e-18)
(0.000143923 -9.24252e-05 -1.64392e-19)
(0.0244392 -0.00972954 -3.35208e-17)
(-0.000609149 0.0112435 -1.508e-17)
(-0.000313476 0.000907039 -1.43724e-18)
(8.62274e-05 -0.000642717 5.22683e-18)
(0.000284119 -0.000968493 1.43851e-18)
(-0.00118146 0.000312326 8.2618e-19)
(0.0001909 6.23779e-05 -3.45809e-19)
(-0.00882091 0.00331861 9.34714e-18)
(0.0417095 -0.0912894 9.03117e-17)
(0.00150399 -0.000921213 7.87359e-19)
(-0.0226553 0.0420462 1.06159e-18)
(-8.24322e-05 0.00248484 6.58149e-18)
(0.000674472 0.00149639 -5.35752e-18)
(0.112798 0.126741 -1.73414e-17)
(-0.0340843 -0.481989 -1.93687e-16)
(-0.0469671 0.139418 3.95346e-18)
(9.89658e-05 3.22507e-05 4.07554e-18)
(-0.000309439 0.000889887 5.86615e-20)
(-0.257428 0.261605 5.71409e-18)
(0.00086012 -0.00251002 -4.38511e-18)
(-0.22385 0.116133 1.26018e-17)
(-0.000400316 0.000733063 -3.38942e-18)
(0.000637955 -0.00116631 -3.34702e-19)
(-0.151765 0.0519628 -1.33812e-16)
(-0.466183 -0.514047 -1.20688e-17)
(0.00378707 0.00554621 1.53329e-18)
(-0.00196154 0.0369723 2.19596e-18)
(0.00177686 -2.47956e-06 -4.39869e-18)
(0.000636254 -0.00104023 -2.65804e-19)
(-8.09347e-06 6.52728e-05 5.23412e-20)
(0.00131703 0.000592254 -9.51569e-21)
(-0.0975051 -0.390073 -2.62925e-17)
(3.54316e-05 -3.55078e-06 -3.61481e-19)
(1.66433e-06 2.20626e-05 -2.16589e-19)
(-0.166564 -0.439783 1.74262e-18)
(0.000713194 -0.00230771 -2.33434e-17)
(0.00999584 0.0844905 -1.24424e-17)
(0.000856255 -0.00239914 1.49317e-17)
(0.000298142 -0.000342401 -5.97759e-19)
(0.0219674 -0.45938 1.69916e-16)
(-1.9968e-05 0.000271828 -1.03293e-18)
(0.000464619 -0.00155519 1.8159e-19)
(0.00135252 0.000434331 -6.05775e-19)
(0.00247361 -0.00318987 -1.24416e-17)
(-0.0200267 -0.414296 -1.45066e-17)
(6.73797e-05 -0.000598849 -4.38103e-18)
(8.68592e-05 -0.00108224 -1.08885e-18)
(0.00054798 -0.00141299 4.7969e-18)
(0.00059193 -0.00121591 -2.67829e-18)
(0.000302057 -0.000361777 1.25528e-19)
(0.00121303 0.00122078 2.25335e-18)
(0.209295 0.305335 -1.74622e-16)
(0.00237055 -0.00337108 1.23746e-17)
(0.00172564 -0.00160019 -5.31011e-18)
(0.000121178 7.22757e-05 -2.01912e-18)
(0.00197829 -0.00337755 -5.39808e-18)
(0.00360499 0.0141666 3.96315e-18)
(-0.00142101 -0.000355556 7.09344e-18)
(0.000724937 -0.00228675 3.03387e-17)
(-2.68475e-06 4.07267e-05 4.24379e-19)
(0.000208207 0.00082479 -5.35339e-19)
(0.00279735 0.000499915 -2.57898e-21)
(0.0282924 -0.504998 7.631e-17)
(0.28134 1.08817 -3.21373e-19)
(-0.000390145 0.000965599 8.00158e-19)
(-0.013697 -0.0948682 -1.45093e-17)
(-1.46952e-05 -0.000582166 -5.82416e-18)
(0.00225738 -0.00172741 -3.01622e-18)
(0.178788 -0.0362956 -5.23089e-17)
(-0.000154431 0.015669 -1.23109e-17)
(0.000674841 0.00115863 -1.21157e-18)
(5.07038e-05 -0.000730709 1.89139e-18)
(0.00704475 0.00808343 -5.04615e-17)
(-0.0031505 0.0143339 -7.85323e-18)
(0.000154855 -0.000112066 -6.75254e-19)
(-1.50027e-05 0.000158377 1.6277e-18)
(-0.0129257 0.965901 -8.16145e-18)
(-8.83512e-06 4.42215e-05 1.05529e-18)
(0.0159002 0.0150722 -5.00296e-17)
(0.00022416 -0.00106742 -5.29049e-19)
(0.000332597 0.0103234 -1.21945e-16)
(-2.07351e-05 0.000139949 -2.09715e-18)
(0.000103816 4.28614e-06 -5.65635e-19)
(8.12232e-05 -0.000228666 -4.05864e-18)
(0.00599405 0.00330946 1.58032e-17)
(-0.000371626 0.000971858 -2.16582e-18)
(0.00151971 -0.00229173 4.75647e-18)
(0.000313574 -0.00240485 3.51217e-18)
(0.00407455 0.00433264 1.01021e-16)
(0.000379597 -0.000419016 4.18734e-19)
(0.00025454 -0.000769207 -2.68004e-18)