/*--------------------------------*- C++ -*----------------------------------*\
| =========                 |                                                 |
| \\      /  F ield         | OpenFOAM: The Open Source CFD Toolbox           |
|  \\    /   O peration     | Version:  v2012                                 |
|   \\  /    A nd           | Website:  www.openfoam.com                      |
|    \\/     M anipulation  |                                                 |
\*---------------------------------------------------------------------------*/
FoamFile
{
    version     2.0;
    format      ascii;
    class       surfaceScalarField;
    location    "800";
    object      phi;
}
// * * * * * * * * * * * * * * * * * * * * * * * * * * * * * * * * * * * * * //

dimensions      [0 3 -1 0 0 0 0];
oriented        oriented;


internalField   nonuniform List<scalar> 
14470
(
-0.114141
0.255851
-0.141725
-0.0293162
0.0294779
-0.200679
-0.205461
0.405861
-0.00234022
0.00236294
-2.27307e-05
-0.361892
-0.217527
0.579005
0.0807447
0.0671421
-0.147893
-0.176571
0.0845097
0.0920509
-0.00893192
0.00774905
0.00118287
-0.196942
0.353906
-0.157014
0.703391
-0.37183
-0.332078
0.318863
0.384086
0.651556
-0.410718
-0.240718
0.0539068
-0.0590469
0.00514541
-0.031728
-0.34072
0.371601
-0.223659
-0.0587493
0.282072
0.0902342
0.125138
-0.215426
-0.240213
0.468876
-0.228282
0.00694863
-0.00511265
-0.00183602
-0.527174
0.0768467
0.449626
-0.519914
0.358014
0.161589
0.321457
0.275558
0.0033189
-0.00267115
-0.000647769
-0.00718518
-0.00174674
-0.00721206
0.0611244
0.216127
-0.0848284
-0.131314
-0.0763482
0.477676
-0.401542
-0.566335
-0.0367425
0.603223
-0.467133
-0.0606352
-0.0730636
0.166724
-0.0936703
-0.0268266
0.0297134
-0.00288676
0.0869928
0.0656688
-0.152662
-0.256299
-0.187925
0.443565
-0.526142
0.345964
0.179918
0.572349
-0.587164
0.0135309
0.270828
-0.198171
-0.0727622
0.183374
-0.336354
0.152929
-0.229328
0.155131
0.0741554
0.0130339
0.02943
-0.0424629
-0.0335308
-0.17659
0.21006
-0.179712
0.106641
0.104404
-0.148895
0.0444893
0.0105486
-0.0132504
0.00270164
-0.612766
0.0461344
-0.4595
0.321413
0.138179
0.543211
-0.286541
-0.25643
-0.0305897
0.0336355
-0.00304582
0.597286
-0.354659
-0.242899
-0.487717
0.197541
0.290252
-0.455813
0.215884
0.1781
0.0925762
0.160028
0.411319
-0.109173
-0.0914184
0.200534
0.346399
0.250577
-0.0463778
-0.123692
0.170056
-9.4867e-05
-0.00224541
0.39301
-0.573697
0.180891
-0.17626
0.117696
0.0585576
-0.295731
-0.191944
0.242356
-0.0840217
0.178376
-0.094377
-0.138225
0.0978704
0.0403541
0.272117
0.158519
-0.430801
0.0870527
-0.232165
0.145023
-0.651146
0.330785
0.320571
-0.371579
0.174596
0.0326226
-0.0326226
0.308156
-0.18174
-0.126583
-0.326986
0.211755
0.115155
0.019578
0.0477885
-0.0673672
-0.047601
0.255342
-0.207792
-0.0675938
0.0406112
0.0269837
0.00857031
-0.00337572
-0.00519457
0.206327
-0.0117318
-0.194638
-0.117071
0.0646105
0.0524613
-0.511315
-0.0203134
0.531194
0.0703853
0.0665269
-0.136919
-0.00950172
0.102484
-0.092983
-0.202992
0.421496
-0.218638
0.289615
0.289041
-0.578738
0.101022
-0.0306385
0.00062509
0.00632344
-0.106678
0.196872
-0.139236
0.299502
-0.160354
-0.143691
0.0964649
-0.160546
0.0640759
-0.273942
0.563235
-0.0783939
-0.12837
0.206611
-0.027852
0.0408871
-0.0998446
-0.0383809
0.00277308
-0.00146023
-0.00131294
-0.150066
0.0938489
0.0562154
-0.0568226
-0.0932447
-0.18855
-0.0228544
0.211367
0.00637874
0.00416959
-0.240103
0.485885
-0.245764
-0.0628358
-0.0542355
0.105516
-0.192125
0.0865741
-0.127084
0.266542
-0.139586
-0.633924
0.271589
-0.0147524
-0.0156972
0.0304504
-0.202151
0.0928958
0.0170211
-0.170181
0.15313
-0.24161
-0.217812
-0.0239246
0.0649979
-0.0410785
-0.00357174
-0.0715091
0.0750802
-0.0484903
0.254779
0.191897
0.322119
-0.51454
0.208124
-0.411225
-0.312866
-0.244585
-0.278408
0.522578
0.000876492
0.00244236
-0.00432415
0.0137562
-0.00943201
0.0246023
-0.0247466
0.000144379
-0.271894
0.224242
-0.639564
0.224916
0.414018
-0.391629
0.176676
0.214677
0.276953
-0.502479
0.22595
0.00478194
-0.00299612
-0.00178578
-0.416422
0.0284437
0.388067
-0.0790081
0.0305855
0.0484188
0.120411
-0.198931
-0.03258
0.102365
-0.0697877
-0.228259
0.140739
0.0874685
-0.208351
-0.128062
0.0442991
-0.460531
-0.0633978
0.188386
-0.125025
-0.0266477
-0.000178932
0.137162
-0.0179666
-0.119204
0.00849355
0.128656
-0.142344
0.27384
-0.13149
-0.0811325
0.412042
-0.331312
-0.248867
0.134721
0.187662
-0.301574
0.113723
0.084604
0.168068
-0.252764
0.164109
-0.13205
-0.0320644
-0.155379
0.129047
0.0263308
-0.125906
-0.265944
0.115529
-0.627056
-0.070445
0.148204
-0.077782
-0.00810982
-0.0027187
0.0108282
-0.113674
-0.0683231
0.314554
-0.245979
-0.210996
0.126189
0.0846838
0.0309882
-0.0264912
-0.00449696
0.134995
-0.0899585
-0.0450382
0.357855
-0.464886
-0.0711633
0.00832758
-0.362264
0.280895
0.402329
0.606621
-0.31092
-0.29623
-0.00110759
0.0147412
-0.0136338
-0.293035
0.165839
-0.413721
0.337173
-0.120463
-0.21434
0.334742
0.087452
0.0395297
-0.126983
0.171569
-0.0464677
-0.184591
0.456751
0.133225
-0.0462317
0.2465
-0.38607
0.139454
0.0806387
-0.20914
0.141642
-0.284074
-0.145489
-0.374641
-0.0623689
0.0604915
0.00187718
0.376156
-0.173191
-0.202957
0.119798
-0.129301
0.0517129
-0.163266
0.111523
0.347916
-0.193628
-0.154301
0.328116
0.187506
-0.515716
0.671794
-0.346437
-0.325445
-0.277378
0.209147
0.0155068
0.000480883
-0.0159877
0.0208576
-0.0284237
0.007566
-0.0115656
0.037785
-0.0262238
0.271427
0.380238
-0.0871316
0.167864
-0.0529825
0.135985
-0.0830058
0.0347763
0.0230671
-0.0578437
-0.223981
-0.223689
0.44755
0.314433
-0.183611
-0.130971
-0.0808491
0.0569188
0.000398507
0.196545
-0.0762446
0.211497
0.33196
0.511078
-0.256017
-0.254774
0.519704
-0.116568
0.0839847
0.00775167
0.00081867
0.0758759
-0.0550184
0.152586
-0.1356
0.171588
-0.383412
0.211761
-0.00283466
0.00294172
-0.000107023
-0.0351008
0.0296296
0.00547137
0.0789897
0.105153
-0.184164
0.260831
-0.42279
0.161875
0.261443
-0.129397
-0.132083
-0.00930159
0.0115505
-0.00224889
-0.114038
0.432958
-0.318973
0.332665
0.13649
0.253897
0.304061
-0.557785
-0.353547
0.235978
0.117582
-0.457579
0.381749
0.0756066
0.114374
-0.27416
0.159644
-0.140036
-0.124728
0.264665
-0.0110846
0.00202059
0.00906402
-0.150933
0.313116
-0.162065
0.138462
0.081442
-0.219978
0.177691
0.170194
0.305341
-0.175941
-0.129456
0.0478331
-0.0887191
0.0408856
0.101088
-0.000294161
-0.00781597
0.178452
0.256432
-0.435327
0.0484115
-0.0288341
-0.275649
0.136318
-0.181365
-0.0696752
0.250924
-0.306128
0.27387
0.105847
0.0582554
-0.37483
-0.265239
0.0858487
-0.115519
0.0296734
0.175915
-0.0704378
-0.362122
-0.0957476
-0.00664412
-0.0287532
0.0353975
-0.0110475
0.0284595
-0.0174357
-0.156371
-0.0322069
0.254774
-0.483318
0.228615
0.217461
-0.127184
-0.0903359
-0.0886317
-0.0404485
0.129076
0.110588
0.00440856
-0.114992
0.0864021
0.0241875
0.00912145
-0.0149773
0.00585605
-0.169204
0.149189
0.0200002
-0.285567
0.104037
0.210355
-0.123386
-0.0357808
0.00068014
-0.448079
0.274313
0.173855
0.00461954
0.00319728
0.021405
-0.407985
0.294001
0.279523
0.275996
-0.555497
0.142795
-0.0383943
-0.147981
-0.221562
0.369499
-0.505838
0.260923
0.200128
-0.0951513
-0.104992
0.186824
-0.12994
-0.0569061
-0.200036
0.226999
0.0873093
-0.0719092
0.210319
0.129492
-0.172647
0.0431261
-0.0997903
-0.162279
0.261988
0.197381
-0.0468501
0.174414
-0.127586
-0.0159247
0.00373016
0.0121945
-0.551096
0.188728
-0.00794979
-0.0123534
0.0202909
0.529067
-0.183011
0.391033
-0.635765
0.245345
-0.0160069
-0.388481
0.403438
0.00468716
-0.229342
0.410495
-0.18106
0.122778
-0.0353275
0.0107585
-0.0740223
0.0632625
-0.338062
-0.255002
0.592152
-0.588239
0.213161
-0.0404464
0.144034
-0.103589
-0.490019
0.473543
-0.286187
-0.271355
0.556953
0.562988
-0.564198
0.00100592
-0.0420592
0.0528175
-0.0205764
-0.0417928
0.123461
-0.216229
0.0927904
-0.0602802
-0.0460859
0.106366
0.128426
-0.177977
0.0495424
-0.118499
-0.00544533
0.00357156
0.0018738
-0.377232
0.183503
-0.00758184
-0.024929
0.0325108
-0.203337
0.563945
-0.359895
-0.156893
0.0682657
-0.00994929
-0.0445723
0.0545216
0.0301347
-0.0631594
0.0330272
-0.0140128
-0.0363945
-0.132825
0.141973
0.131873
0.0894797
-0.196199
-0.2539
0.113792
-0.447606
0.301103
0.146205
-0.288541
0.0308576
0.257644
0.0969447
-0.0491117
0.163194
0.0529222
-0.1899
-0.398504
0.62587
-0.347505
-0.278341
0.40036
-0.222003
-0.633125
0.375335
0.256893
-0.193372
-0.00493854
0.000886126
0.00405246
-0.0803602
0.476046
-0.395819
0.459157
-0.269158
-0.190795
0.562032
-0.46162
-0.101352
-0.0986176
0.491697
0.0188352
-0.0215631
0.00272787
0.0724142
0.0625798
0.019275
-0.0753974
0.056125
-0.292086
0.196616
0.0953969
-0.0562394
-0.154871
-0.03204
-0.146022
-0.0822695
0.228257
-0.00239394
0.00128624
0.177546
-0.419078
0.0292943
-0.103317
0.141016
-0.243821
0.102721
-0.0478102
0.369208
-0.0293162
-0.194543
0.187243
-0.444221
-0.166355
0.119479
0.00364909
-0.0540154
0.182066
0.112049
-0.29421
0.0840357
-0.135945
0.0519245
0.11761
0.320439
-0.196854
-0.123656
0.0905629
0.0683628
-0.158916
0.191697
-0.0671235
-0.124583
-0.289258
-0.237146
0.254464
-0.472964
0.218629
-0.177899
-0.114273
0.0855956
-0.131787
0.0461892
-0.00916366
-0.00727087
0.0164345
0.190513
-0.391389
0.497763
-0.176385
-0.478758
0.278836
0.199922
-0.000769556
0.0162764
-0.0189593
0.0113775
-0.00479187
0.00571972
-0.000927919
0.260064
-0.463055
0.203067
0.137068
0.054622
-0.0464271
0.130482
0.0660451
-0.0864627
0.0204174
-0.0816035
0.165047
-0.0834522
0.477114
-0.222139
-0.254744
0.436676
-0.260723
-0.17574
-0.247251
-0.23151
-0.108822
0.198273
-0.375923
0.187372
0.188576
-0.0151638
0.0185166
-0.00335303
-0.513134
0.0477474
0.464734
-0.290488
-0.157141
0.447428
0.127071
-0.0908107
-0.0362789
0.000483311
-0.00542178
0.059596
-0.0111848
-0.405885
-0.228325
-0.0291795
0.0144274
0.17823
-0.28483
0.106577
0.0508523
-0.0291744
-0.0216779
-0.00215557
-0.0174278
0.0195832
0.00872533
0.000396193
0.291004
-0.136941
-0.15421
-0.169671
0.136103
-0.0998414
-0.0555388
0.00219629
0.000576691
-0.000583788
-0.163565
0.138386
0.0251778
-0.580701
0.0556464
0.525531
0.204122
-0.0806528
-0.435543
0.25115
0.184492
-0.196789
-0.309146
0.504936
-0.16062
-0.215292
-0.176686
-0.328686
0.505588
0.311394
0.285621
-0.0230065
0.00784241
0.299868
0.208529
-0.123519
-0.0850364
-0.0947068
-0.123877
0.218523
0.102801
-0.0962478
-0.00655984
0.256934
0.220381
0.152894
0.146528
0.00559309
0.00181786
-0.00741095
0.0044966
-0.0281921
0.0236954
0.0591812
-0.044749
-0.0144204
-0.177415
0.0957946
0.186233
-0.476612
0.141093
0.149776
-0.439725
0.234079
0.144749
-0.0973828
-0.0473671
-0.592614
0.0590658
0.533302
0.018023
0.0415726
0.0476215
0.0720567
-0.119679
-0.0351646
-0.141414
-0.00508489
0.000292966
-0.0700291
0.160602
0.350244
-0.561122
0.209312
0.29086
0.136277
-0.427231
0.00772475
0.121322
0.0537608
0.0909869
0.17879
-0.329464
-0.0053735
0.00321787
0.558442
-0.210006
-0.196594
-0.340025
0.537132
0.0442891
-0.0542384
0.443538
-0.187209
-0.0478418
-0.187931
-0.0642781
-0.0990222
-0.0224921
-0.491037
0.135635
0.24053
0.0893582
-0.0657148
-0.0236542
-0.0397437
-0.027849
0.252079
-0.0838001
-0.168332
-0.106914
0.185883
-0.050613
-0.374864
0.425395
-0.204805
0.347796
-0.142842
0.098824
0.00353981
-0.106849
-0.0853114
0.272914
0.178004
-0.450706
-0.263015
-0.267599
0.530448
-0.137638
0.0912456
-0.0915301
0.140351
-0.0488088
0.137544
0.114482
-0.0300479
0.00355667
-0.285692
0.540065
-0.0122326
0.357889
-0.0406693
-0.0313238
0.0719928
0.390337
-0.441041
-0.00619714
-0.00972752
-0.0291672
0.0639432
0.285565
0.225784
0.27283
-0.475918
0.20241
-0.289892
0.00130962
0.218385
0.463308
-0.184356
-0.042984
0.027287
0.0902595
-0.126378
0.0859307
-0.0430977
0.13761
0.164456
-0.302283
-0.138939
-0.0893676
-0.118172
-0.111193
-0.00616777
0.00317172
-0.170779
0.086722
0.428112
-0.645789
0.124402
0.129592
-0.0571787
0.358093
-0.153478
-0.204607
-0.0166287
0.263076
-0.0982047
-0.0767297
-0.516064
-0.247238
0.484985
-0.237692
0.223461
-0.415745
0.192011
-0.202118
0.479397
0.368497
0.206434
-0.575973
-0.300447
0.176811
0.123605
-0.129492
-0.124469
0.112215
0.0879007
-0.521976
-0.0114313
0.533867
0.00642438
-0.015726
0.223411
-0.131392
-0.0920205
-0.0648237
0.112444
-0.00627242
0.000827112
-0.187052
0.0882841
0.0387414
0.163113
-0.0786185
-0.171138
-0.251718
0.465666
0.011823
-0.478326
-0.123607
-0.208844
0.332741
0.0525578
0.00957584
-0.0621401
-0.120948
-0.0570377
0.523879
-0.256426
0.539545
-0.283919
0.534206
-0.229558
-0.047941
-0.00442532
0.0523673
0.08796
-0.140945
0.098911
-0.438912
-0.211973
-0.298667
0.178231
0.152657
-0.0698064
-0.0828579
0.00505692
0.0285786
0.0497828
-0.0196465
-0.228578
0.176673
0.0519095
0.297757
-0.148046
-0.149968
-0.00241008
-0.00555099
0.00741385
0.112383
0.132891
-0.141878
0.0089665
-0.186022
-0.130517
0.316603
-0.160975
0.42065
-0.260111
-0.00513741
-0.00594715
0.278561
0.161164
-0.439379
0.0749197
0.0610621
-0.0098165
-0.0768829
0.0866948
-0.253381
0.526257
-0.0744266
0.0538495
0.148275
0.0944175
-0.242786
0.0107695
0.00488109
-0.0156505
0.174687
-0.379338
0.00262834
0.00154791
-0.00417626
0.157977
-0.0264962
-0.131484
0.0813139
-0.305294
0.127431
0.0166022
0.196274
-0.436153
-0.0253357
0.0913805
-0.621563
0.243915
0.377361
0.124945
0.330109
-0.455065
-0.592085
0.244782
-0.251839
-0.203699
0.0939036
0.298507
0.187442
0.483367
-0.146023
-0.337349
-0.276063
0.189012
0.0869934
-0.226614
-0.236363
0.250574
0.0542117
0.113131
-0.167365
0.105628
-0.287285
0.181519
-0.0912191
-0.594166
0.412851
0.180648
-0.404596
-0.190174
-0.00268192
0.00827502
-0.057609
0.00336145
0.0542491
-0.136624
-0.0919523
-0.0239243
-0.264526
0.134964
0.356181
-0.204936
-0.151278
-0.399589
0.337069
0.126286
0.014191
-0.00847146
0.187656
0.586615
-0.64683
0.0604835
0.0334586
-0.0306159
-0.00284272
-0.065902
-0.0829947
-0.0408113
0.170286
-0.508681
0.58234
-0.306987
0.296266
-0.140466
-0.15587
-0.279255
-0.260167
0.539324
0.0125198
0.00776124
-0.106766
0.288809
0.045238
0.111762
-0.157054
0.328381
-0.178497
-0.149908
0.017802
-0.0244461
0.563533
-0.274789
0.00364374
0.0289789
-0.57103
0.0649622
0.505741
-0.0459021
0.131496
-0.442831
0.279807
0.163234
-0.246175
0.158394
0.0876683
-0.0116459
0.0153761
-0.334569
-0.287379
-0.0827243
-0.0342153
0.116938
0.222559
0.173997
-0.396955
-0.395557
-0.223734
0.619146
-0.274421
0.435803
-0.0905351
0.0372799
0.053257
0.00853956
-0.00651894
0.19111
0.22963
-0.237929
-0.0134742
-0.438432
-0.0827932
0.152852
0.0215519
0.00686815
-0.00423985
0.160429
-0.00532487
-0.531816
-0.00873248
0.541355
-0.060803
0.127324
-0.520446
0.531738
-0.0113569
0.331938
-0.0357085
0.442343
-0.264804
-0.177551
0.186927
-0.0747329
0.328238
-0.562387
0.234605
0.0117409
0.0167055
0.0118288
-0.41656
-0.391278
0.247828
0.143414
0.260736
-0.172927
-0.0879153
0.0809683
0.0158058
-0.0967786
-0.105629
0.112949
-0.00732409
0.171952
-0.441922
-0.0275657
0.415723
-0.0451688
0.133127
0.378447
-0.165534
-0.213095
-0.200902
0.37862
0.475015
-0.402559
0.414531
0.308223
-0.0962225
0.051052
-0.137088
-0.148646
-0.120385
0.0376586
-0.0730069
0.147734
-0.074734
-0.0967129
0.125617
-0.028914
-0.0926699
-0.0827712
0.175418
-0.0192911
0.0635801
-0.10935
0.296843
-0.009834
0.0223459
-0.00633555
0.00905008
-0.00271461
0.0793443
-0.125248
-0.0879122
0.120347
-0.0324354
0.0885641
-0.0983847
-0.0568697
0.108415
0.223448
-0.013571
0.00440736
0.116465
0.144135
-0.374008
0.111142
-0.0317992
-0.0198035
-0.500811
0.0366641
0.161306
-0.202141
0.0553743
0.0846344
-0.140023
-0.160558
0.13257
0.027995
0.00813986
-0.00765645
-0.0222203
0.00318371
0.0190365
-0.262728
0.0897031
-0.0921775
0.147528
0.549776
-0.270058
0.0908852
-0.0988583
0.00797257
0.111425
-0.198524
-0.244064
-0.355576
0.195048
-0.149415
0.321411
-0.172235
-0.198445
0.0915676
-0.00244641
-0.0125307
0.0564004
-0.102486
-0.00770244
0.0237076
-0.0160051
-0.116875
-0.18488
0.201547
0.0598695
-0.00504164
0.0158113
0.0314067
0.00174433
-0.0331505
-0.169287
-0.13479
0.303671
0.102927
-0.183844
0.0808926
0.225791
0.0794943
0.0392579
0.0115943
-0.00348929
0.0928252
-0.216509
-0.0392796
0.0585563
-0.0895877
0.0489179
-0.0120442
-0.0101762
-0.170181
0.500853
0.119304
-0.0318839
-0.0507954
0.0826785
0.264305
-0.150067
-0.036182
-0.0803896
-0.073958
-0.172327
-0.0082057
0.111
-0.221194
0.104028
0.117147
-0.291243
-0.0853249
-0.26448
0.349685
-0.397658
0.183165
-0.00085153
-0.129844
0.130702
0.574749
-0.332539
-0.112959
0.112112
0.0672368
0.0981854
-0.165428
0.174464
-0.0778591
-0.0966099
-0.33751
0.598639
-0.261215
-0.643554
0.36351
0.280361
0.144745
-0.294276
0.149358
0.190379
-0.330144
0.139582
-0.353259
0.51213
0.211269
-0.359196
0.0686916
-0.14171
-0.000539631
0.0530914
-0.0586668
-0.0379491
-0.542604
0.0190828
-0.116467
0.616996
-0.302394
-0.313845
-0.0177381
0.0114025
0.261732
-0.135549
-0.126323
-0.0573919
-0.0686847
0.126076
-0.137941
0.0474323
0.110543
0.0704202
-0.387048
0.316069
0.209083
0.39712
-0.131971
0.0711572
0.441165
0.218914
-0.359405
-0.066144
-0.128266
0.194372
0.0141939
-0.0325934
0.0184016
0.244683
0.136868
-0.121343
-0.0621649
0.0427165
0.0194506
0.143382
-0.243274
-0.0885183
-0.0151123
-0.0470493
0.411112
-0.187803
0.112472
-0.246346
0.187333
-0.131363
-0.252102
0.191834
-0.46647
-0.0216958
0.0710369
-0.0493399
-0.0204404
-0.00332201
-0.007478
0.0108
0.201573
0.156517
0.419671
-0.165085
0.258109
-0.445194
0.186472
0.13997
-0.332137
0.191911
-0.182517
0.288005
-0.129147
-0.146594
0.0191289
-0.0465206
0.0273919
0.166788
0.0947949
-0.194221
0.121637
-0.114226
-0.0961883
0.0634229
-0.160151
-0.200779
0.419547
0.000702688
-0.0222862
0.0215835
0.30365
-0.161676
0.562464
-0.286934
-0.274929
0.0878174
0.0866428
0.00621267
0.00533779
0.458513
-0.280405
-0.48825
-0.281366
0.292913
0.380262
-0.310481
-0.0524615
0.0399293
-0.140389
0.100457
0.364072
-0.220666
-0.143514
0.138369
0.0485385
-0.308361
0.138631
0.163517
-0.364343
0.00964234
-0.115274
-0.0117399
0.00636071
0.00537905
0.0733522
0.0680948
-0.141457
-0.499386
0.187908
-0.354163
-0.0773118
0.431411
0.124354
-0.0225382
-0.101832
-0.0656609
0.122526
-0.112557
-0.00997928
0.448643
-0.121658
-0.327194
0.382443
-0.160013
-0.0217146
-0.00303205
0.197779
-0.248551
-0.0451476
0.162838
-0.0869231
0.0379286
0.0489954
0.39099
0.2884
-0.401335
0.281001
0.120295
0.00272551
-0.00338438
0.000658746
0.509345
0.0776353
0.24951
0.00575449
-0.00355836
-0.105996
-0.0545578
-0.0388702
0.135333
-0.0838323
-0.0520952
-0.288186
-0.285332
0.00209377
-0.0138338
0.244608
-0.44709
0.158387
-0.404715
0.246259
-0.226254
-0.175129
0.104938
0.0947658
-0.199741
-0.00270594
0.00084411
0.00186183
0.519742
-0.128179
0.230905
0.179686
0.335197
0.106093
-0.184759
0.329551
-0.28187
0.196404
-0.0902684
0.00235565
-0.0691862
0.174088
-0.136182
-0.164285
0.365911
0.183582
-0.54925
-0.1929
0.13993
0.0484299
0.115605
0.166182
0.0894793
0.560702
-0.157456
0.41506
0.261214
-0.0555711
-0.205838
-0.0134547
0.00725752
0.0452799
-0.103493
0.0582211
-0.169151
0.306591
-0.0110244
0.537997
-0.261928
-0.122476
-0.098732
0.0379235
-0.130618
0.0926928
-0.0117811
-0.00744933
0.0192304
-0.146072
0.385025
-0.239308
-0.316403
-0.0238991
-0.00548675
0.0293863
0.133326
0.0840913
0.306567
0.256497
0.277045
0.0147277
-0.00299868
0.302821
-0.582413
0.279446
-0.0887731
-0.0909459
0.459503
0.0192329
-0.0147363
-0.558414
0.286644
-0.724463
0.436976
0.288002
-0.53498
0.278148
-0.0995354
-0.120268
0.219788
0.327954
-0.137647
-0.127525
-0.0886794
-0.108208
-0.0553601
-0.0504528
0.0415804
0.00887309
-0.332137
0.251898
-0.469318
0.222182
0.400168
0.198425
-0.00745091
0.337591
0.296624
-0.319137
0.0224549
0.184518
0.166216
-0.350744
0.115313
0.204222
0.196855
-0.0754683
-0.121461
-0.00124668
0.0604404
-0.198542
0.0896996
0.105993
-0.172168
0.264258
0.19508
0.0042685
-0.0244519
0.0201834
0.159952
-0.0843053
-0.0756772
-0.260017
0.451923
0.113562
-0.0177706
-0.0957786
-0.0268774
0.000229663
-0.345086
-0.00920007
0.408634
0.481736
-0.262404
-0.219736
-0.0718432
-0.0914864
0.163318
-0.0189165
0.215672
-0.0161052
0.279235
0.18424
-0.291941
0.107486
-0.173606
-0.335218
0.508773
0.14444
-0.284912
-0.439075
0.169814
-0.114454
-0.0553617
0.0699071
0.226682
-0.0830617
-0.0774883
0.272628
0.242499
-0.51525
0.150181
-0.0517447
-0.0984411
0.280499
-0.523279
0.242703
0.138416
-0.267845
-0.391237
0.243903
0.14719
-0.257967
0.120727
-0.0820507
0.0341108
0.00646262
0.026996
-0.139755
-0.106786
0.0971562
0.0164017
0.085973
-0.213214
0.160742
0.0468278
-0.0661191
0.000185171
0.198451
-0.148275
-0.0502882
0.276294
-0.429865
0.153466
0.301004
-0.00220451
-0.0093294
0.0115339
0.295156
0.186191
-0.00034302
-0.161346
0.435773
-0.12753
0.262187
-0.134748
-0.391389
0.24767
0.143692
-0.520867
0.416506
0.104681
0.224939
0.101746
-0.135964
-0.0105696
0.0132949
-0.00138297
0.00136025
-0.0619807
0.0043737
-0.0163228
0.0205913
-0.436461
-0.0431744
0.0106884
0.0324799
-0.000962096
-0.0705475
0.254681
0.324674
-0.579496
-0.203956
-0.547464
0.256951
0.289566
0.105001
-0.113213
-0.454547
0.201118
0.00492995
-0.0124081
0.0795549
0.0730924
-0.0731673
0.170108
-0.0969577
-0.114586
-0.197753
0.312277
0.152269
-0.0812991
-0.0709717
0.0211088
0.00609815
-0.0272069
0.00862878
0.00246168
-0.0110905
0.101044
0.103145
-0.204244
0.111046
0.104491
-0.215603
-0.454075
-0.0770738
0.0477092
-0.0329682
-0.205972
0.453712
-0.248192
-0.0369401
0.0299833
0.0069571
0.132746
-0.065606
0.0334079
-0.112847
0.0794328
0.10983
-0.100752
-0.00907864
0.0924853
-0.0446976
0.117542
-0.27992
-0.111492
-0.169069
0.280409
0.562518
-0.233768
-0.243142
0.11024
0.132803
-0.0125863
0.00921052
0.0171117
-0.0166308
-0.529776
0.336647
0.192308
-0.0193135
-0.0132536
0.0325672
0.29534
-0.179937
0.0916532
-0.0505509
9.92607e-05
0.0502445
-0.0360482
0.0122492
0.0379967
0.229208
0.207659
0.0920947
0.141062
-0.246323
0.105132
0.120007
-0.128252
0.272753
0.121933
0.603383
-0.328617
-0.274442
0.0769136
-0.0778268
0.000912929
0.381292
-0.616518
0.236297
0.470209
-0.240771
-0.0912577
-0.0771033
0.16835
-0.175106
0.108205
-0.00321075
-0.328975
0.170197
0.158619
0.0423379
0.0335379
0.0796671
0.0195371
-0.099205
-0.128697
0.0339863
0.0947087
0.0323901
0.378308
-0.540078
0.16187
-0.193289
-0.135858
-0.108046
0.486367
-0.199547
-0.186678
-0.0907752
-0.0279487
0.150461
0.258561
0.0953256
0.218744
0.159538
-0.241134
0.138506
0.102529
-0.0206113
0.0131619
-0.129935
-0.141084
0.270844
0.34187
-0.112909
-0.228827
0.0241978
0.00720905
0.286404
0.17039
0.0115739
-0.532322
0.24246
0.206706
-0.261333
0.315731
-0.246528
-0.0693096
0.00174007
-0.00293596
0.0011959
0.0834821
-0.571928
-0.025417
0.00610344
-0.010498
0.0511105
0.502437
0.139982
-0.309334
0.104326
-0.204353
0.0999582
0.557325
0.587181
-0.276059
-0.310433
0.266285
-0.437579
0.170819
-0.116978
0.0871011
0.029876
0.129047
-0.211336
0.214473
0.149505
-0.0978896
0.0449067
0.085593
0.113831
-0.0229468
-0.0935285
-0.178416
0.0611838
-0.0306023
0.187853
-0.203534
-0.327149
-0.0102507
-0.0111366
0.0213873
0.0473785
-0.136876
0.0894903
-0.0745026
-0.20096
-0.154535
0.26663
0.182557
-0.449497
-0.0219995
-0.00804833
0.0163483
0.0288646
-0.0452129
-0.103161
0.122243
0.00173294
-0.0309074
-0.155155
0.521493
-0.297841
0.148073
-0.393994
0.20556
-0.026442
0.00472739
-0.227855
0.100337
-0.109223
0.134879
-0.0256462
-0.244863
0.0668989
0.399995
-0.191705
-0.208303
-0.129983
0.374563
0.203926
-0.57851
0.485623
-0.297875
0.134828
0.0153489
0.46101
-0.274889
-0.0336007
0.432802
0.130074
-0.303717
-0.381265
0.259621
0.187526
-0.00406122
-0.0406797
-0.00112039
-0.000262629
0.225026
-0.140456
-0.00167001
0.0191529
-0.0174829
-0.317635
0.546774
-0.228897
0.0307553
0.130543
0.139381
0.158147
-0.118793
0.082607
0.364011
-0.0631927
-0.422053
-0.0260368
-0.126827
0.152812
0.0773693
-0.152995
0.0796597
0.0733147
-0.556794
0.0297333
0.103139
0.109611
0.0331818
0.0819208
-0.0369807
-0.0449395
-0.317131
0.131151
-0.152604
0.0860299
0.066574
-0.00598518
-0.0227678
-0.137026
-0.114784
0.251759
0.137213
-0.0976843
-0.0943792
0.161606
-0.241845
-0.154198
0.396004
-0.0917481
-0.153186
0.142095
0.114373
-0.531621
0.214589
-0.0848422
-0.211838
0.338251
0.107504
0.248646
0.440226
-0.253226
-0.187582
-0.236908
-0.0340065
0.270975
-0.187512
-0.0226738
0.041803
0.232681
-0.048595
-0.162091
0.308358
-0.14648
-0.112173
0.195591
-0.456152
0.260099
0.166648
0.182656
-0.349502
0.0831876
-0.186233
0.103019
0.0878438
-0.0615649
-0.0262808
-0.0780915
0.0563967
0.0912509
-0.180028
0.0189801
-0.281
-0.362272
0.02016
0.00531984
-0.0254801
-0.231422
0.177074
0.0543406
0.0127265
-0.0171027
0.00437611
-0.0286395
-0.113093
0.141724
-0.532131
0.269056
0.346299
0.160949
0.122257
-0.28333
-0.0111245
0.00835049
0.00277382
0.0140479
-0.0162524
-0.0601885
0.173298
-0.0688902
0.294745
-0.452591
0.19685
0.180521
-0.377561
0.249507
0.270474
0.0291401
-0.000455095
-0.028685
-0.246456
0.135873
0.110484
-0.223453
0.386775
-0.160314
0.0147484
-0.0386472
0.0366754
-0.0971156
0.0604431
0.148751
-0.311049
-0.161672
-0.050778
-0.0361449
0.23722
-0.0537359
-0.183524
0.0986353
-0.2357
-0.0188698
-0.0180701
-0.143861
0.0406981
0.298639
-0.0515671
-0.247204
-0.0424658
0.0547175
-0.0630462
0.147668
0.0252565
-0.0952785
0.0700301
0.0553565
0.0265644
0.226642
-0.164759
-0.217515
0.541992
-0.233014
0.315187
0.0579592
0.120401
-0.000747597
0.00192022
-0.00117261
0.00636178
0.126908
-0.478265
-0.110067
-0.156556
0.0481461
0.108411
0.537036
-0.279255
-0.258368
0.000690105
0.0181451
0.0125
-0.0057806
-0.00671937
0.285431
-0.0234221
-0.00500157
-0.122163
-0.442581
0.151244
-0.392944
-0.159188
0.343656
0.0172555
0.0270517
-0.0443051
-0.0165899
0.0962563
-0.211121
0.0818398
-0.151645
0.427344
-0.176022
-0.098136
0.13212
0.11662
-0.512224
0.211233
-0.0852799
-0.12598
0.193202
-0.323749
0.0766027
0.247183
-0.37989
0.156242
-0.0841759
0.0672453
0.0169301
-0.297114
0.160885
0.0836799
-0.058415
-0.1774
-0.0540329
-0.275354
-0.262245
0.537523
0.0751094
-0.16303
0.087912
0.243609
-0.0557537
0.234
0.278387
0.00595147
0.000916664
-0.0943152
0.378937
-0.164576
-0.214769
0.174567
0.26505
0.244647
0.133998
-0.0674815
0.217623
-0.150288
0.0142885
-0.0236544
0.00936593
-0.0153363
-0.101642
-0.0873453
0.151418
0.190838
-0.246583
0.263137
0.0722285
-0.0196477
-0.0525816
0.0235693
0.100774
0.367995
-0.153687
0.0295178
0.0193913
-0.0489092
-0.554644
0.278374
0.276285
-0.0885073
0.151743
-0.0632463
-0.00626515
0.00551756
0.469651
-0.264117
-0.205752
0.0282339
-0.00712511
-0.00284678
-0.0801759
0.155279
-0.0258143
-0.00106303
-0.0671073
-0.0170661
0.314768
-0.414388
0.0994204
-0.17198
-0.125169
-0.0437539
0.0454868
-0.0168093
0.0143631
-0.316076
0.144062
0.0122308
-0.0139008
0.209123
0.05732
-0.397027
-0.473628
0.485302
0.158156
-0.293151
0.098236
-0.158213
0.262288
-0.104196
0.0263433
-0.051397
0.025054
0.0271699
0.00197018
-0.0346929
-0.0288976
0.0635901
-0.0730492
-0.200523
-0.446113
0.0782577
-0.158873
0.0805996
0.00844571
0.000183074
-0.448582
0.194823
0.023614
0.00448989
-0.0281039
0.17617
-0.13736
-0.0388233
0.260609
-0.536352
-0.131964
-0.559307
-0.30518
0.174709
-0.0718404
-0.0811738
-0.0244976
0.0252969
-0.000799322
0.235247
-0.204559
-0.169917
-0.297885
0.467719
0.00391868
-0.0114304
0.00751176
-0.00990828
-0.0346956
0.0446035
0.198924
-0.0738457
-0.125166
-0.260803
-0.298031
-0.193982
0.211196
-0.414241
0.202791
0.370091
-0.582701
0.212354
-0.0628315
0.0622793
-0.119589
0.00954826
0.11004
-0.549724
0.30929
0.240561
-0.463469
0.385064
0.0779798
-0.0211765
0.0318622
-0.00926474
-0.0122984
0.01807
0.158083
0.15933
0.0702901
-0.0706566
0.000365742
0.166895
0.138823
-0.306112
0.296779
0.216903
-0.51403
-0.322277
-0.222017
-0.32756
-0.17452
0.468911
0.477716
-0.0773594
0.0434617
0.0663674
0.107124
0.0767823
-0.18392
0.172861
0.0179755
0.0192929
0.0161047
0.193248
-0.107835
-0.085494
-0.0266351
0.0691031
-0.100988
0.00276987
0.0625315
-0.0652995
-0.0579611
0.152238
-0.0943119
-0.258748
0.165178
-0.282653
-0.310234
-0.129637
0.332247
-0.562542
0.23052
0.0248012
0.0875779
-0.112383
-0.214605
0.495208
-0.0621432
0.0439739
0.0181706
0.0863892
0.00768932
0.105255
0.221735
0.251571
-0.473775
0.00257949
0.00317489
0.063226
0.0771357
-0.00262948
-0.00274409
-0.076112
0.445619
0.00737386
0.0262816
-0.0336554
-0.242373
-0.150162
0.0908864
0.0564668
-0.147354
0.111677
0.0697616
0.0688988
-0.00748728
-0.0614123
0.0822098
-0.210517
-0.103564
-0.0270554
-0.458062
0.198199
-0.00615531
0.0733976
-0.235933
-0.240623
-0.00891558
0.00372101
0.0422444
0.087347
0.071398
-0.128799
0.410117
-0.198241
-0.211943
0.459626
-0.217415
-0.241509
0.0258699
0.0119145
0.00623437
-0.100166
-0.172439
-0.0219769
-0.0872391
0.0919509
0.220965
-0.0849368
-0.136067
-0.215261
0.0754713
0.0709192
-0.0551153
-0.177161
0.37391
-0.133045
0.024751
0.108247
-0.398604
-0.105378
-0.491799
0.265069
-0.00386049
-0.115729
-0.1682
-0.323716
0.147184
0.174009
-0.00967172
0.000239698
0.236623
0.283033
-0.519283
-0.0959053
0.202537
0.0356655
-0.214182
-0.0750445
-0.572285
0.0539624
0.189164
-0.074661
-0.114522
0.10618
0.214716
-0.362161
0.147642
-0.223391
0.555837
-0.00491508
0.116096
0.148072
-0.00375737
-0.0051582
0.105895
0.0540158
0.00187146
-0.0135174
-0.141322
-0.134798
0.322199
0.133157
-0.455677
0.437833
-0.144083
-0.102478
0.225539
-0.105723
-0.1199
0.228005
-0.117053
-0.000632515
0.00237258
-0.299782
0.182763
0.108394
0.0831141
-0.191521
-0.00630919
-0.110472
0.116773
0.062953
-0.536548
0.392098
-0.204211
-0.187881
0.0671667
0.131661
-0.14359
0.0437455
0.0217813
-0.0210787
0.285671
0.140485
-0.426173
-0.00562384
-0.00054391
0.312079
-0.0538576
-0.00667117
0.0130955
-0.157581
0.163876
0.189577
0.215207
-0.404763
0.248232
0.169984
-0.418177
0.104738
0.0947113
-0.199478
-0.0953385
-0.031646
-0.156778
0.272102
-0.115417
0.313823
-0.126659
-0.171547
0.131558
0.311303
-0.171399
-0.0372889
-0.0615845
0.0988731
-0.00356476
0.0132773
-0.0188037
0.00552641
0.537321
-0.271384
-0.266763
0.240569
-0.104795
-0.00951892
0.0864323
0.263659
-0.0883787
0.0129832
0.460333
-0.252613
-0.208309
0.0487041
-0.101517
-0.0711585
0.342902
-0.258391
-0.0845543
0.130756
-0.0405474
-0.0338802
0.355857
-0.163783
-0.19239
-0.102447
0.166506
-0.0640652
-0.216747
-0.188051
0.109282
0.0608094
-0.0567155
0.113115
-0.103663
0.0692158
-0.0212959
-0.04792
0.41967
0.117811
0.132255