/*--------------------------------*- C++ -*----------------------------------*\
| =========                 |                                                 |
| \\      /  F ield         | OpenFOAM: The Open Source CFD Toolbox           |
|  \\    /   O peration     | Version:  v2012                                 |
|   \\  /    A nd           | Website:  www.openfoam.com                      |
|    \\/     M anipulation  |                                                 |
\*---------------------------------------------------------------------------*/
FoamFile
{
    version     2.0;
    format      ascii;
    class       volVectorField;
    location    "800";
    object      U_0;
}
// * * * * * * * * * * * * * * * * * * * * * * * * * * * * * * * * * * * * * //

dimensions      [0 1 -1 0 0 0 0];


internalField   nonuniform List<vector> 
9793
(
(0.970909 -0.0171691 -7.49748e-21)
(-0.763666 0.00248867 -1.22916e-20)
(0.994855 -0.00675505 5.99349e-21)
(-0.0391026 0.0344118 3.22089e-20)
(0.999971 -0.00110424 0)
(1.24166 0.147526 -5.85241e-20)
(1.1913 -0.185068 -7.11804e-20)
(0.0882123 0.071304 -1.24581e-19)
(1.02237 -0.0243146 -7.68068e-21)
(-0.24292 -0.0242079 -3.4746e-20)
(1.00018 -0.00217073 0)
(1.00019 -0.00221859 0)
(1.0028 -0.00709672 -4.07104e-23)
(0.428701 0.480866 0)
(1.01695 -0.0133004 5.51516e-21)
(1.03467 0.0173464 0)
(1.14198 0.00702532 3.0768e-20)
(0.996924 -0.00824591 0)
(0.0302212 -0.0450515 5.06309e-20)
(1.01193 -0.00319842 0)
(1.01577 -0.00528264 6.69935e-21)
(0.999992 -0.000215688 -4.61929e-21)
(0.0391474 0.0369204 1.2957e-21)
(0.12927 0.0559615 1.51144e-19)
(0.520163 0.454457 0)
(0.940496 -0.059853 8.68051e-21)
(1.00037 -0.00375813 0)
(1.00003 -0.000555166 2.6816e-22)
(1.01188 -0.00331844 0)
(1.20983 -0.0628004 4.14402e-20)
(-0.56005 0.0337488 0)
(1.33926 0.123164 0)
(0.997833 -0.00514074 0)
(0.999133 -0.00817596 1.70007e-21)
(1.0043 -0.000348186 1.35681e-21)
(1.06411 0.00525085 9.14701e-21)
(1.03465 0.0103809 -2.38716e-21)
(0.927596 -0.00520234 -6.04029e-21)
(-0.0648574 0.58904 4.46812e-20)
(1.0844 -0.0304914 0)
(1.19675 -0.0635062 0)
(1.45038 0.375424 8.11841e-20)
(0.110931 0.156105 0)
(1.00002 -0.000384646 0)
(0.994094 -0.00221769 1.85129e-20)
(0.997531 -0.00280196 2.3466e-21)
(-0.55276 0.0862642 -9.8629e-21)
(1.00003 -0.000415346 4.2415e-21)
(1.0195 -0.00329568 -2.10548e-21)
(0.996648 -0.0079212 0)
(1.06214 0.00718904 1.36007e-20)
(1.00454 -0.000414523 -7.226e-22)
(1.09408 0.00689202 0)
(1.00004 -0.000888687 4.17281e-21)
(0.933401 -0.122586 1.02114e-20)
(-0.0479049 0.0438069 -6.14219e-21)
(1.00292 -0.00642611 8.31885e-23)
(1.06598 0.102293 0)
(1.01964 -0.00358305 2.35655e-21)
(1.00001 -0.000222122 -4.02052e-21)
(0.915852 -0.0244127 4.57002e-20)
(0.895419 -0.356886 4.19763e-21)
(0.996182 -0.00670718 8.25671e-23)
(1.05302 0.0293927 -1.71427e-20)
(1.00257 -0.000991762 1.33401e-21)
(1.02125 -0.023214 6.54527e-21)
(-0.517269 0.0573172 0)
(1.0499 -0.0198053 9.16318e-21)
(1.03352 0.0127429 -8.89467e-21)
(0.682166 0.623673 -9.42305e-20)
(0.984139 -0.0101702 8.38979e-21)
(0.603219 -0.00187315 5.48613e-20)
(-0.0733954 0.0964139 -1.41735e-19)
(1.14179 -0.234697 7.43305e-22)
(0.803004 0.721093 3.64813e-20)
(1 -0.000961077 0)
(0.833397 -0.149749 2.16158e-20)
(1.35832 0.11935 1.25474e-19)
(0.996412 -0.00477819 0)
(1 -0.000847185 5.12651e-21)
(0.817629 -0.153194 -6.8272e-20)
(0.0677316 0.0101955 0)
(1.13313 0.00973608 3.10809e-20)
(0.996979 -0.060719 0)
(1.0349 0.0121213 0)
(1.32804 -0.0486714 2.87361e-19)
(0.999997 -0.00112236 -1.19353e-21)
(1.03817 0.0560182 -1.03653e-20)
(-0.0658138 0.608244 -3.87283e-21)
(0.877318 -0.338259 -1.40343e-20)
(0.0224371 0.071883 0)
(1.4098 -0.0595463 8.25771e-20)
(1.41301 -0.0679019 1.03403e-20)
(1.11819 -0.0733852 -2.24813e-20)
(0.109806 0.158206 0)
(0.998545 -0.010045 5.86587e-21)
(0.858779 0.719725 3.67666e-20)
(1.14645 -0.0201694 -2.32706e-21)
(1.04897 -0.0406845 -1.0406e-20)
(0.999974 -0.000860501 0)
(0.00558309 0.440129 0)
(1.09099 0.00375406 0)
(0.766459 -0.599408 5.15518e-20)
(0.99453 -0.00228406 0)
(0.542789 0.508576 -3.06043e-21)
(1.08744 0.146376 -1.69987e-19)
(1.18832 -0.17842 -4.36371e-21)
(1.00427 -0.00484546 0)
(0.99635 -0.00452336 0)
(0.999981 -0.000413931 0)
(1.00013 -0.00114482 0)
(0.0459758 0.0482602 2.25992e-22)
(0.0938808 -0.157801 -9.89849e-20)
(-0.525983 0.0142378 3.1434e-19)
(0.985037 -0.0105334 0)
(0.999598 -0.00321699 6.20576e-21)
(1.02426 0.0127167 4.45907e-21)
(0.997865 -0.00340139 6.77942e-23)
(-0.0816535 0.0627672 -3.67244e-20)
(0.997035 -0.00233118 -8.21849e-22)
(0.43055 0.451524 0)
(1.03596 0.0602369 -1.06921e-20)
(1.01976 0.669844 -1.28465e-20)
(1.08626 0.0309209 3.07391e-20)
(1.03602 0.00954635 1.03918e-20)
(0.997153 -0.00226763 2.93855e-21)
(1.16129 -0.00274933 4.0566e-20)
(-0.501715 0.0327939 0)
(0.96588 0.0251327 -2.60219e-21)
(0.966684 0.0109015 0)
(1.04178 -0.00112623 1.36052e-20)
(1.00671 -0.00985293 0)
(0.972591 -0.0178591 1.42068e-20)
(1.04364 -0.0182899 0)
(1.062 0.000891479 0)
(1.28169 -0.162959 1.02896e-20)
(1.18899 0.302166 0)
(1.0255 0.0125429 5.93802e-21)
(1.00002 -0.00069239 8.16233e-22)
(1.14872 0.0288908 0)
(0.133738 0.111355 8.82944e-20)
(1.06435 0.00239753 0)
(0.990211 -0.0168864 0)
(1.04723 0.0506513 -1.52888e-20)
(-0.539958 0.109286 0)
(1.27223 -0.449459 -1.48754e-19)
(0.997125 -0.00178062 -1.19441e-20)
(0.864635 0.746331 -3.28941e-20)
(1.00658 -0.0101313 0)
(0.997019 -0.00190537 1.17473e-20)
(0.99984 -0.00481215 0)
(0.161798 -0.0683537 -9.04188e-20)
(1.04596 -0.0391293 1.56814e-20)
(1.0003 -0.0037708 0)
(0.988796 -0.00339171 -6.92308e-21)
(1.42664 -0.101654 1.49684e-19)
(1.14775 0.0140273 -5.54934e-20)
(0.996284 -0.00708157 0)
(1.35429 0.135274 1.19133e-19)
(0.989119 -0.00986556 -2.7233e-21)
(1.04259 0.0557793 1.38304e-20)
(1.04349 -0.00161001 1.88782e-20)
(1.01572 -0.00551683 -8.77366e-21)
(0.628463 -0.480324 0)
(1.02684 -0.00553039 -2.23584e-21)
(1.47956 0.113513 0)
(0.642715 -0.66432 -5.62431e-20)
(1.02985 -0.00682652 -1.80635e-20)
(1.00423 -0.00442576 2.09381e-21)
(1.0001 -0.00198418 0)
(0.989304 -0.0165592 7.32578e-23)
(-0.312024 0.0157404 0)
(0.361525 -0.180509 0)
(-0.0194688 0.341524 -4.06656e-20)
(1.00301 -0.00724353 1.4788e-21)
(1.22186 0.144133 4.01427e-20)
(1.11097 -0.362384 4.00349e-20)
(0.594551 -0.590029 7.31546e-21)
(0.996145 -0.00535883 5.20206e-21)
(1.04894 -0.0156503 -2.60511e-20)
(0.577042 0.472342 0)
(-0.603646 0.0925434 0)
(1.03011 0.059536 1.32772e-20)
(0.997299 -0.00282916 -2.68039e-21)
(0.998284 -0.00280678 0)
(1.0044 -0.00462923 -1.38688e-21)
(1.01844 0.62791 -6.33962e-20)
(-0.177651 0.0826474 0)
(0.939719 -0.417572 0)
(0.79308 -0.5866 4.5988e-20)
(1.01915 -0.0222895 -6.67999e-23)
(-0.0464762 -0.0391414 1.16787e-20)
(0.417597 -0.196782 0)
(0.928327 -0.0265078 2.61974e-20)
(1.01969 -0.00185772 5.88695e-21)
(0.975824 -0.0469092 -1.50254e-21)
(0.18216 0.0562379 -1.17714e-19)
(1.01055 -0.00316607 -2.02642e-21)
(0.996832 -0.00845536 0)
(0.999933 -0.0021945 -6.13053e-21)
(0.982287 -0.0109814 -7.98132e-21)
(1.01668 -0.00470074 -1.97979e-21)
(1.06165 0.012227 -7.59092e-21)
(1.04506 0.0059825 -1.65029e-20)
(-0.146507 0.0321648 -1.51691e-19)
(0.986019 -0.00257758 -7.46396e-21)
(1.07333 -0.0300293 -1.19329e-20)
(1.02999 -0.00592206 0)
(0.979111 -0.0268745 -1.4148e-20)
(0.879631 -0.618937 9.42089e-21)
(1.14327 0.0249302 -3.71616e-20)
(0.152087 0.132758 -3.41682e-21)
(1.00945 -0.00288948 1.46769e-21)
(0.588653 0.576804 -5.96873e-20)
(0.993168 -0.0617125 1.28432e-21)
(1.02973 0.0427241 -6.7482e-22)
(1.01723 -0.0139709 -3.79042e-21)
(1.28205 -0.146497 0)
(0.99965 -0.00292679 5.7891e-21)
(0.765671 -0.0750817 6.98423e-20)
(1.15373 -0.0168984 -4.76053e-20)
(1.01679 -0.00487405 1.00349e-22)
(0.375716 0.424544 -1.99995e-19)
(0.0235056 -0.184861 -6.38432e-20)
(1.11089 -0.0751965 8.97564e-20)
(0.998175 -0.0111622 0)
(1.09214 0.0461566 0)
(0.286446 -0.795466 -8.66542e-20)
(0.783067 -0.10161 -3.99653e-21)
(0.782162 -0.112908 0)
(-0.16357 0.141622 -5.98635e-20)
(0.987867 0.0478095 -1.08714e-21)
(1.03004 0.0405267 -3.74382e-21)
(1.05313 0.0314358 2.78003e-20)
(0.422527 -0.170292 0)
(1.01688 -0.00258829 -1.55277e-21)
(-0.00392105 -0.0828841 3.29897e-21)
(-0.479681 0.00369393 -2.01815e-19)
(1.01032 -0.0030694 0)
(0.999931 -0.00194226 0)
(1.42245 0.390178 0)
(0.992351 -0.0117326 -3.34515e-21)
(1.0001 -0.00107496 4.01904e-21)
(1.03875 0.109112 -7.11012e-21)
(1.04962 0.129389 -4.15831e-20)
(1.01991 -0.0235725 1.43814e-22)
(1.04988 -0.0142957 3.12119e-20)
(1.07706 -0.0290223 3.76584e-20)
(0.988649 -0.16719 -3.64109e-21)
(1.04836 -0.00821804 1.5238e-20)
(0.996063 -0.00503102 -1.11745e-20)
(1.1092 -0.127298 2.92069e-20)
(-0.0976827 -0.182881 1.29315e-19)
(1.01633 -0.00503131 5.29708e-21)
(-0.0330659 0.187468 -7.03877e-20)
(1.00007 -0.00107891 0)
(1.00019 -0.00238562 4.40026e-21)
(1.0082 -0.000489627 -7.82965e-22)
(-0.0679338 0.040191 -8.0857e-21)
(0.995036 -0.00123368 -6.36686e-23)
(1.45177 -0.0885511 6.01901e-20)
(0.622829 0.760397 8.04752e-20)
(1.00074 -0.00256049 1.36045e-21)
(0.999737 -0.00277888 -6.29381e-21)
(1.43919 -0.00547115 1.43918e-21)
(1.00809 -0.00027291 0)
(1 -0.00170416 0)
(1.00839 -0.000275025 8.3297e-22)
(0.547023 0.738106 -1.25679e-19)
(0.629483 -0.440579 0)
(0.951867 -0.053805 0)
(0.991397 -0.559946 -3.32336e-21)
(1.08184 0.0979995 6.88129e-21)
(0.670786 -0.661151 -4.52836e-20)
(0.00993691 -0.0390583 2.24532e-21)
(1.03095 -0.0074199 1.20547e-20)
(-0.173604 -0.632204 1.55964e-19)
(1.00004 -0.000982883 -4.85383e-22)
(0.355748 -0.855569 9.24334e-20)
(0.419178 -1.32089 -1.49172e-19)
(-0.0148849 0.614716 -4.3673e-20)
(0.470131 0.500052 -8.78763e-24)
(0.992099 0.0572644 -1.28237e-22)
(1.0412 0.00044483 1.32364e-20)
(1.12797 0.00315399 -3.73898e-21)
(1.0441 0.00458061 5.58085e-21)
(1.0196 -0.0011163 3.76333e-21)
(1.02951 -0.00246 0)
(0.910367 -0.581301 -2.86759e-20)
(0.93798 -0.0630703 -1.1395e-20)
(0.999759 -0.00257609 0)
(1 -0.000114161 -2.23302e-21)
(1.00969 -0.00301948 0)
(1.01171 -0.000200913 3.64683e-22)
(1.0163 -0.00522897 0)
(0.0553326 -0.0495457 0)
(1.00446 -0.00551248 1.63385e-21)
(1.01551 -0.0133089 3.49065e-22)
(1.01161 -0.00026664 -4.339e-22)
(1.00294 -0.00670507 0)
(-0.0506488 -0.344683 9.79728e-20)
(1.29009 -0.430194 8.27948e-20)
(0.703544 0.0438899 0)
(0.957857 -0.0168973 5.44659e-21)
(1.05014 0.053055 0)
(1.01098 -0.000174136 8.02856e-22)
(1.18612 -0.102522 0)
(0.0168241 -0.0217156 2.85874e-19)
(0.994714 -0.00184845 -1.23894e-22)
(0.692865 0.747053 -9.47036e-20)
(1.05616 0.0253998 -1.59883e-21)
(0.993896 -0.00254836 -1.59627e-20)
(-0.509679 0.0268033 -1.24902e-19)
(1.17805 -0.143628 5.52222e-21)
(0.998084 -0.00523349 0)
(1.11273 -0.135544 -3.09764e-20)
(0.412716 1.04031 9.62303e-20)
(0.983195 -0.0242516 3.78426e-21)
(0.849607 0.00332326 0)
(1.01618 -0.0129864 -6.22111e-21)
(0.978677 -0.023296 4.97515e-21)
(0.465728 -0.92803 0)
(0.938743 -0.178153 1.73048e-20)
(0.999122 -0.00784128 1.6624e-21)
(0.997026 -0.00313801 0)
(0.960017 -0.0160231 -5.00535e-21)
(1.18839 -0.353007 -7.78677e-20)
(0.094091 -0.251374 0)
(0.994722 -0.00631169 -7.07439e-21)
(1.00441 -0.00504389 -9.73369e-23)
(1.02011 -0.0072093 1.61341e-21)
(-0.271518 0.0320753 1.02791e-19)
(-0.283151 -0.289853 -2.23519e-19)
(0.014969 -0.010291 0)
(1.01672 -0.00300617 3.0199e-21)
(0.942616 -0.191069 -4.38577e-21)
(0.844356 0.0117949 9.29048e-22)
(0.939119 -0.821024 4.91834e-20)
(1.09873 0.0772786 6.53312e-20)
(1.01665 -0.00173767 -3.46056e-22)
(1.01773 -0.00209307 0)
(1.01987 -0.00752888 -1.20848e-21)
(1.12075 0.00545823 -3.37568e-21)
(0.997417 -0.0292043 -2.73228e-21)
(0.28793 0.0314828 1.1234e-19)
(0.998954 -0.0035683 -1.07035e-21)
(1.00796 -0.00946525 1.27809e-22)
(0.465415 -0.570999 -2.55293e-21)
(0.0610581 -0.0635978 0)
(0.500113 0.551761 -5.39366e-20)
(1.01144 -0.000184463 -1.61455e-21)
(-0.0274126 0.410632 2.65426e-20)
(1.00103 -0.0696863 -1.13536e-22)
(0.251084 -0.741048 -7.90594e-20)
(0.285868 0.0111633 0)
(-0.169123 0.0856966 0)
(1.00728 -0.056338 9.86651e-22)
(1.08853 -0.0324923 0)
(1.2169 0.297745 0)
(0.0472973 0.078276 0)
(0.0258197 0.0581122 0)
(0.913968 0.00924059 1.23651e-20)
(1.00004 -0.000633365 0)
(0.947524 -0.054131 0)
(1.01878 -0.00296919 -2.22364e-21)
(1.00485 -0.00529188 0)
(0.996655 -0.0278579 0)
(1.00053 -0.00423403 1.04921e-21)
(1 -4.43832e-05 0)
(0.386207 0.037183 1.14588e-19)
(1.00014 -0.00213483 4.07737e-21)
(1.17053 -0.019073 1.42828e-21)
(1.08128 -0.0228347 2.35871e-20)
(0.84357 0.324919 0)
(1.0165 -0.00162608 4.05939e-22)
(0.999453 -0.063131 0)
(-0.0453052 -0.0880956 0)
(0.373155 -0.0660372 2.3583e-19)
(0.442691 0.290323 0)
(1.09873 0.0715738 -2.54018e-20)
(1.00766 -0.00897231 -1.30004e-22)
(1.00983 -0.0578043 -1.61687e-21)
(0.995361 -0.00689624 1.40098e-21)
(1.35248 -0.272945 3.12186e-20)
(1.00973 -0.00099252 0)
(0.481002 0.596137 9.47927e-20)
(1.05491 -0.422955 0)
(1.1821 -0.197867 7.32654e-20)
(-0.0696658 -0.00652338 0)
(0.463381 -0.905399 -2.73681e-21)
(1.00059 -0.00200369 1.50913e-21)
(0.99908 -0.0110475 0)
(1.17685 0.329555 7.27601e-21)
(1.3601 -0.251596 3.4945e-20)
(0.986211 -0.00185091 -3.64312e-21)
(0.124791 0.0101104 2.85367e-19)
(1.00061 -0.00213101 0)
(0.999917 -0.00232977 0)
(0.543871 -0.973458 -1.26908e-20)
(1.00944 -0.00278508 -1.6359e-21)
(1.07563 0.106256 0)
(1.017 -0.00281663 -3.06851e-21)
(0.562738 -0.721572 6.54581e-20)
(0.999091 -0.00341097 0)
(1.02668 -0.00489687 -2.4615e-21)
(0.336499 -0.436732 -9.02914e-21)
(0.628097 -0.000809152 -5.33912e-20)
(1.03759 0.0445253 4.16708e-21)
(0.928631 -0.0305435 0)
(1.00094 -0.0029835 0)
(1.00351 -0.0143258 0)
(0.977912 0.684466 -5.98634e-20)
(1.14603 -0.0300305 3.67003e-20)
(1.01549 -0.00376446 0)
(0.999821 -0.00203085 0)
(0.923661 -0.122119 0)
(0.84778 0.0298258 4.1164e-20)
(1.03635 0.0464042 0)
(-0.584075 0.116487 0)
(0.999889 -0.00219344 -5.89529e-21)
(0.99885 -0.00837124 -2.41189e-21)
(0.711755 -0.524758 0)
(1.00098 -0.00294522 -2.88767e-21)
(-0.109725 -0.138228 -1.47851e-19)
(0.646226 -0.583115 -1.22491e-20)
(0.998104 -0.00298845 -5.27039e-21)
(0.998337 -0.00552447 3.8549e-21)
(1.0292 -0.00308212 -2.14662e-22)
(1.00071 -0.00237995 0)
(1.01963 -0.00663635 9.07984e-21)
(0.00461664 0.485473 -2.12942e-20)
(0.764651 -0.0899493 -8.57222e-20)
(1.47317 -0.0119779 0)
(0.897247 0.0201133 0)
(1.02915 0.00671943 2.08942e-22)
(1.09024 0.0287722 -1.7863e-20)
(0.931175 -0.00417477 6.0006e-21)
(-0.0733586 0.0896714 1.11963e-20)
(0.919712 -0.0277678 -3.10202e-20)
(1 -0.000912493 4.6691e-21)
(1.05057 -0.0179592 2.04977e-20)
(1.29163 -0.390018 -7.11616e-20)
(0.986484 -0.0124866 -1.15771e-20)
(0.988243 -0.00996495 2.32414e-22)
(0.982979 -0.0100792 -1.23155e-20)
(1.00956 -0.000932049 -2.64518e-22)
(1.00013 -0.00665589 -2.98849e-21)
(1.01451 -0.0150274 -1.5818e-22)
(0.997685 -0.00326169 -5.34179e-21)
(1.00047 -0.00176275 -4.40243e-23)
(0.984193 -0.0439988 -1.17063e-20)
(1.04507 0.00281203 2.21936e-21)
(1.03025 0.104026 -6.45048e-21)
(1.01012 -0.000218118 0)
(0.221942 0.0810816 -4.42454e-20)
(0.940092 -0.0499053 0)
(1.07173 -0.453011 2.87264e-20)
(0.00623941 -0.0564945 -1.96424e-21)
(1.01996 -0.00137574 -4.1083e-21)
(0.519637 -0.5367 -5.66508e-21)
(1.18482 -0.170724 3.52711e-20)
(1.01997 -0.00215979 -3.74925e-21)
(1.00967 -0.001348 4.41867e-23)
(0.991081 -0.0187025 7.52939e-21)
(0.454193 0.227489 5.77084e-22)
(1.09138 0.100097 -2.44192e-20)
(1.00977 -0.00127101 3.2059e-22)
(0.999195 -0.00227157 -3.94758e-21)
(0.999956 -0.00223 7.92157e-21)
(0.72242 0.0999781 0)
(1.10471 -0.394042 4.70356e-20)
(1.27366 0.144185 -1.44441e-19)
(1.00239 -0.000989902 1.43439e-21)
(0.988805 -0.00279366 8.02658e-21)
(0.881247 -0.0512632 -1.41728e-20)
(-0.606989 0.0765042 1.76492e-19)
(-0.0363148 0.600209 1.65013e-20)
(0.95043 -0.0289299 0)
(1.03686 -0.000348781 -1.09662e-20)
(-0.0159792 0.0594538 2.88341e-20)
(1.5095 0.148035 -1.1093e-19)
(0.972801 0.17591 0)
(0.986064 -0.0279907 -1.01471e-20)
(1.00732 -0.0097106 1.84257e-22)
(-0.146272 0.100114 1.46417e-19)
(0.997287 -0.00987787 4.61023e-21)
(1.13768 -0.351479 0)
(0.891324 0.387888 -1.73684e-20)
(1.01518 -0.00362725 0)
(0.663849 -0.425627 0)
(1.06723 -0.0277694 0)
(-0.00876025 0.280946 -7.43158e-21)
(1.00361 -0.0137777 0)
(0.0173619 0.00488279 0)
(1.33147 0.0451305 0)
(1.03496 0.0157212 0)
(1.43541 0.00902703 -1.44666e-19)
(0.998113 -0.0098844 -8.75547e-21)
(0.972441 -0.763343 6.08857e-20)
(0.998935 -0.00313118 1.73343e-21)
(0.999922 -0.0108449 -1.84109e-21)
(1.00009 -0.00185886 0)
(0.9969 -0.00747841 -5.0214e-21)
(0.724277 0.744437 -1.53158e-20)
(0.998554 -0.010424 -2.04391e-21)
(1.01936 -0.00414334 0)
(0.961091 -0.022068 -2.04103e-20)
(1.01678 -0.00322998 2.95846e-21)
(1.00718 -0.0100168 2.86499e-22)
(1.10331 -0.154882 7.84508e-21)
(0.996273 -0.0461675 1.67053e-21)
(1.05608 0.0278964 6.75784e-21)
(1.00166 -0.00333054 0)
(1.00153 -0.00325576 0)
(-0.058417 -0.0887267 0)
(0.665832 0.00655311 1.00474e-19)
(0.952634 -0.0280647 1.48245e-20)
(-0.00321691 0.253854 1.03187e-19)
(1.044 0.00147519 0)
(0.993465 -0.0319807 -7.31382e-21)
(0.995194 -0.000955376 8.26126e-21)
(1.01989 -0.00639772 -2.8146e-21)
(0.174039 0.00160759 -2.80978e-19)
(1.01918 -0.00387087 4.16079e-21)
(1.00124 -0.000467723 -4.43679e-22)
(-0.641698 0.0433033 -1.91255e-19)
(1.46673 0.334266 -1.11011e-19)
(1.00093 -0.167001 3.47243e-21)
(1.00273 -0.00685008 0)
(0.999995 -0.000423443 4.25925e-21)
(1.02831 -0.0138713 6.60123e-21)
(1.00004 -0.00163517 0)
(-0.0121777 0.169308 -1.26198e-19)
(0.981605 -0.0245894 0)
(0.90496 -0.485597 0)
(1.0366 0.00705839 0)
(0.317231 0.412941 2.61464e-19)
(0.999999 -0.00107806 -5.38018e-21)
(-0.740084 0.0608892 1.57058e-19)
(1.0059 -0.000163405 6.10857e-23)
(1.21455 -0.364009 7.88254e-20)
(0.996457 -0.0093172 -3.29718e-21)
(1.03529 0.031799 2.78397e-21)
(-0.0627813 -0.21711 -7.96488e-20)
(0.999056 -0.00283112 1.56202e-20)
(1.31395 0.527965 0)
(0.994051 -0.0107719 3.31637e-21)
(1.00017 -0.000133541 0)
(1.01536 -0.00500872 -1.21327e-21)
(0.667822 0.45659 1.37694e-21)
(-0.155365 0.00163648 1.60569e-19)
(0.9901 -0.0182359 2.78258e-22)
(1.07067 -0.0269228 -1.0297e-20)
(1.01892 -0.00325254 0)
(0.0124772 -0.0570151 -9.4298e-20)
(1.01057 -0.000283174 8.03635e-22)
(1.11458 -0.122511 0)
(0.0633762 0.102519 -3.76586e-20)
(0.924915 -0.00248667 0)
(1.00166 -0.000810313 1.88679e-21)
(0.846612 -0.162146 -1.64738e-20)
(1.00012 -0.000657483 -3.03102e-21)
(1.02912 -0.0133312 0)
(1.02017 -0.00848357 0)
(1.03173 0.0917761 -2.66406e-22)
(1.00278 -0.00272035 9.6195e-22)
(0.0154369 -0.164123 -4.99618e-20)
(1.00138 -0.00326338 2.66656e-21)
(1.00008 -0.0302397 3.92201e-21)
(1.04742 0.0356014 6.20916e-21)
(0.817639 -0.275492 0)
(0.950407 0.294851 2.32733e-20)
(1.01486 -0.0126932 0)
(-0.714396 0.063725 0)
(0.999499 -0.0112222 1.91393e-21)
(1.13083 -0.41451 -3.68754e-20)
(0.990629 -0.00679721 1.23713e-21)
(1.02899 -0.00540157 0)
(0.997648 -0.0100809 -1.5953e-22)
(1.00134 -0.00330168 5.45202e-23)
(0.999987 -0.000903692 -4.21543e-21)
(1.12885 -0.439617 -1.09291e-19)
(1.03228 0.0395007 7.84858e-22)
(1.31509 0.507137 0)
(1.23863 0.00414087 5.51531e-20)
(0.861269 -0.0744359 -8.37199e-20)
(0.947004 -0.135479 -3.77993e-21)
(0.621981 -0.940529 0)
(1.04577 -0.018065 0)
(-0.00660086 0.245629 7.98589e-20)
(-0.164156 -0.0550469 -1.5394e-19)
(1.21822 -0.392915 2.87946e-21)
(1.47679 -0.052078 1.6559e-19)
(0.913841 0.356869 9.61655e-21)
(1.16267 -0.368998 0)
(1.02914 -0.0127028 -1.06741e-20)
(0.0636912 -0.223469 3.57898e-20)
(1.04557 0.0355667 -9.67495e-21)
(1.02794 -0.00592435 0)
(1.24509 -0.403968 0)
(1.00007 -0.000584973 2.9404e-21)
(0.963264 -0.591822 2.75642e-20)
(1.00469 -0.152026 -4.92952e-22)
(1.09282 0.220688 0)
(0.902084 0.0122349 -2.79445e-20)
(0.0902397 -0.0681705 7.01306e-21)
(-0.322819 0.0478668 0)
(1.04831 0.0333512 -1.08002e-20)
(1.08455 0.201768 0)
(0.999926 -0.00204961 0)
(1.17662 -0.549909 0)
(0.955483 0.00442773 1.72135e-20)
(0.996618 -0.0090746 -3.34553e-21)
(0.995059 -0.0277711 0)
(1.02348 0.00952659 1.15542e-21)
(1.138 -0.0327621 -6.7943e-20)
(-0.172087 0.190595 4.41391e-20)
(0.977536 -0.513451 0)
(-0.365762 0.155174 0)
(1.04298 -0.0203744 0)
(0.975718 -0.0493481 9.7198e-21)
(0.0245267 0.307531 0)
(0.431299 0.0751288 -2.51058e-19)
(1.03631 -0.00254986 -1.05994e-20)
(1.10611 0.0602622 0)
(0.978255 -0.0280099 -3.79972e-22)
(0.270267 -0.863305 2.61169e-20)
(0.402974 -0.465474 3.83195e-21)
(0.998078 -0.00325835 5.31735e-21)
(0.70629 0.0564628 -3.94406e-20)
(0.735057 -0.480046 3.97893e-20)
(-0.334292 -0.020456 -4.72895e-22)
(1.00264 -0.000876374 -1.45829e-21)
(0.945973 -0.0602939 -1.5067e-20)
(1.06497 0.540077 2.98147e-20)
(1.05874 0.0113224 0)
(1.07406 0.597585 1.12112e-19)
(1.03074 0.0317642 0)
(0.827489 0.287585 2.6994e-21)
(0.973205 -0.0738608 0)
(1.04748 -0.0200242 0)
(1.01931 -0.0184598 1.32452e-21)
(0.989421 -0.00384066 0)
(0.965513 -0.0266662 4.35041e-21)
(1.00001 -0.000425755 0)
(0.956537 -0.0392533 0)
(1.24401 0.0505362 -5.08784e-20)
(1.15347 -0.226014 7.08485e-20)
(1.00004 -0.000276727 -2.40316e-21)
(1.00018 -0.0011678 2.91637e-21)
(1.0281 0.00854373 -3.34826e-21)
(1.02084 0.00177763 -3.75124e-21)
(1.00457 -0.000618222 0)
(0.991813 -0.011132 1.74654e-22)
(1.22841 -0.00156579 -5.27076e-20)
(0.466652 0.149287 0)
(0.595763 0.46178 -5.15551e-20)
(1.00002 -0.000370661 -2.07061e-21)
(1.32592 -0.287175 -3.52416e-20)
(1.00235 -0.00619816 3.0991e-21)
(-0.262062 -0.126275 7.18757e-20)
(1.05924 0.0450327 3.60343e-20)
(0.814197 -0.11675 2.71772e-21)
(0.851087 0.0208935 -1.9852e-20)
(1.32414 0.0597252 9.12746e-20)
(1.00682 -0.00319812 0)
(0.999842 -0.00511837 3.13544e-21)
(0.861299 -0.156739 3.65555e-20)
(0.996749 -0.00980369 0)
(1.02707 -0.0137076 -5.49446e-22)
(1.13215 0.0406099 2.79348e-20)
(0.222934 0.43255 7.85593e-21)
(1.01693 -0.00459721 -2.7212e-21)
(0.953668 0.000857631 1.31007e-20)
(0.0106564 0.651101 2.69324e-20)
(1.05027 -0.00910853 -2.94606e-20)
(0.37516 -0.887205 -4.18613e-20)
(0.0578923 0.66559 2.87732e-20)
(1.01509 -0.0157378 1.99522e-22)
(1.15223 -0.00553516 -4.00283e-20)
(1.03594 0.018655 -1.17e-20)
(1.01798 -0.0223978 5.84677e-23)
(1.01491 -0.00504633 -2.45062e-21)
(0.65162 -0.166458 -2.54069e-21)
(0.00257744 0.625013 -6.39157e-20)
(-0.0984953 0.154424 1.38979e-19)
(0.985755 -0.0135271 -1.57493e-20)
(0.996789 -0.00289468 4.26536e-22)
(1.01421 -0.00678297 0)
(1.02261 0.0144435 -7.36757e-21)
(0.998745 -0.0454955 -8.77427e-22)
(0.991116 -0.0586562 -1.26014e-21)
(0.521724 0.395521 -1.09661e-20)
(1.0555 0.044286 -9.55778e-22)
(1.00051 -0.00185525 0)
(1.50091 0.153193 2.90997e-19)
(1.06347 0.0104355 9.04052e-21)
(0.871356 -0.0751399 6.38845e-20)
(1.02649 -0.0128126 0)
(-0.664714 0.0413079 -7.44108e-21)
(1.03945 0.000707273 -1.2266e-20)
(1.00334 -0.00193624 7.33155e-22)
(1.16605 -0.220117 0)
(0.151582 0.0642827 2.95754e-20)
(1.01589 -0.00375054 -3.7201e-21)
(0.997726 -0.00299386 0)
(0.995753 -0.00659423 -1.40439e-21)
(1.03352 0.0144807 9.65522e-21)
(1.00683 -0.00301823 3.29654e-23)
(1.05079 0.0334072 6.59152e-21)
(1.27333 0.263116 -4.48405e-21)
(1.00272 -0.0324782 0)
(1.02476 0.0873721 -5.8963e-21)
(1.03529 -0.00342898 0)
(1.02526 -0.0126242 0)
(0.969762 0.321042 -2.13177e-20)
(-0.0658152 -0.090897 -9.24649e-20)
(0.904038 0.116135 0)
(0.999942 -0.00471454 -2.8151e-21)
(1.01635 -0.00358018 -2.57646e-21)
(0.758604 -0.0790437 -3.99905e-20)
(0.924359 -0.0244736 -2.87786e-20)
(0.885895 -0.0723151 -5.73376e-21)
(1.01554 -0.00335245 -2.1646e-21)
(0.993361 -0.0108388 0)
(-0.501062 0.0171729 -9.99809e-20)
(0.90231 -0.505901 -4.05191e-20)
(1.0802 -0.0330436 -1.71051e-20)
(1.05798 0.108585 0)
(0.712309 -0.00344595 0)
(0.998643 -0.0113938 0)
(1.00002 -0.000231062 0)
(1.01548 -0.0225154 2.36832e-21)
(0.070967 0.115272 6.31088e-20)
(1.00135 -0.00057614 -1.7355e-21)
(0.999996 -5.39019e-05 2.28324e-23)
(0.0434451 0.10426 3.15649e-21)
(0.906818 0.0127407 0)
(1.34034 -0.0388398 -2.83392e-19)
(0.858839 0.00454483 0)
(1.00273 -0.00628611 -9.79069e-23)
(-0.0197043 -0.133998 2.40425e-20)
(1.00004 -0.000821731 -5.39533e-21)
(0.992127 -0.00813525 3.9723e-21)
(1.01444 -0.0222822 -1.47574e-21)
(0.954196 -0.111423 -6.13238e-21)
(-0.0406055 0.000535925 0)
(1.00029 -0.00243193 -6.56239e-21)
(0.99463 -0.00115685 6.59815e-23)
(0.996526 -0.00999354 9.53589e-21)
(0.998115 -0.0106526 0)
(1.00253 -0.00637397 0)
(1.01952 -0.0192509 -1.79745e-21)
(1.46684 -0.048745 -2.49659e-19)
(0.948464 -0.117374 -6.87427e-21)
(0.983469 -0.0413987 0)
(1.00046 -0.00334273 0)
(0.939446 -0.11455 4.47428e-21)
(1.16242 0.00392677 0)
(1.03295 0.0178366 0)
(0.897667 0.0160183 -1.00133e-21)
(1 -0.000100121 2.35964e-21)
(1.01406 -0.00646607 -1.93021e-21)
(1.01717 -0.0503715 2.57247e-21)
(-0.136894 -0.100162 0)
(0.692976 -0.525067 2.10576e-19)
(1.02791 0.00640616 -1.56625e-21)
(-0.196097 0.162137 -1.50628e-19)
(0.999905 -0.00200527 -6.04234e-21)
(0.971912 -0.0691485 -1.83928e-20)
(1.44209 -0.21126 -1.07168e-19)
(0.160564 -0.215073 0)
(1.01746 -0.0121869 0)
(1.00017 -0.00230126 -5.65023e-22)
(0.441866 0.17441 -1.49755e-19)
(1.08696 0.0479037 0)
(1.00352 -0.00194626 9.94906e-23)
(0.999996 -0.00149256 5.43177e-21)
(0.0309753 -0.0614845 6.49618e-20)
(1.00003 -0.000168695 0)
(1.19194 -0.0775708 -3.80413e-21)
(0.998112 -0.00545292 -8.48636e-21)
(0.364271 -0.0284484 -1.1005e-19)
(1 -0.00151984 0)
(1.00627 -7.57194e-05 4.34629e-22)
(0.999302 -0.00228172 3.92351e-21)
(1.07433 -0.0640688 -3.52675e-20)
(1.02032 0.00156577 2.18588e-22)
(0.953117 -0.048592 1.3539e-20)
(0.917576 0.00724206 4.78002e-20)
(0.553966 0.0667997 3.66773e-20)
(1.0044 -0.00568331 1.35292e-21)
(1.00029 -0.00654911 0)
(1.00007 -0.000385515 0)
(1.00029 -0.0110389 0)
(1.02886 -0.0109768 -8.56815e-21)
(1.02349 -0.00263762 4.36603e-24)
(1.08458 -0.0254496 0)
(0.999082 -0.00251469 -8.48338e-21)
(1.0606 0.0511889 0)
(0.550638 0.200075 0)
(1.1162 0.000264341 0)
(1.14059 0.0427437 3.8215e-20)
(0.999892 -0.00213632 -9.33362e-23)
(1.02038 -0.00807001 0)
(-0.468896 -0.0143251 1.41077e-20)
(0.792055 -0.296504 4.95682e-21)
(1.01463 -0.00477051 4.41727e-21)
(0.32941 -0.730862 -1.73733e-19)
(-0.574655 0.0337894 2.03238e-19)
(1.01657 -0.0036513 4.12743e-21)
(0.99446 -0.00147026 8.26405e-21)
(1.00274 -0.00936372 -1.06518e-22)
(1.21474 -0.160231 -1.53192e-19)
(1.05716 0.0530424 0)
(0.141564 -0.17103 2.9505e-19)
(1.00474 -0.00553116 7.7723e-22)
(1.0372 -0.0602389 1.51172e-20)
(1.00463 -0.00401748 0)
(0.978064 -0.0247261 2.27432e-20)
(1.00578 -0.000146355 -6.01469e-22)
(1.1413 -0.256745 0)
(1.02865 -0.0101693 3.92114e-21)
(1.32697 -0.0624696 1.0228e-19)
(1.00002 -0.00406648 3.30018e-22)
(0.982321 -0.257063 5.05531e-21)
(1.00389 -0.00549082 1.80825e-21)
(0.978543 -0.0455226 0)
(0.990849 -0.00821919 -1.03993e-20)
(1.03216 0.037217 0)
(0.737475 0.10191 3.99835e-20)
(-0.591954 0.038432 0)
(1.22407 -0.0595133 8.53376e-20)
(0.274613 -0.69815 9.64747e-21)
(1.09215 0.0401423 0)
(0.993162 -0.0116166 7.38741e-21)
(0.641162 -0.872207 -1.74845e-20)
(0.0759964 -0.188417 0)
(1.05414 0.0609242 -2.1155e-20)
(1.02654 -0.00998751 -6.57664e-21)
(1.00043 -0.00416536 0)
(0.173156 0.188707 1.19923e-19)
(1.00299 -0.00957625 1.03902e-22)
(-0.0404558 0.0132058 1.63831e-20)
(1.0171 -0.00235013 1.705e-21)
(1.04721 0.0206535 1.0162e-20)
(1.02978 -0.00896756 1.80162e-20)
(0.999968 -0.000787356 -8.00021e-21)
(1.01764 -0.0129068 0)
(1.33855 0.496261 1.25739e-19)
(0.204511 0.185286 0)
(-0.0259385 0.0299108 -2.3498e-20)
(0.682339 0.0143957 -1.00647e-19)
(-0.378565 -0.0250097 -1.28178e-20)
(0.996723 -0.00716466 0)
(0.335376 0.19625 0)
(1.00282 0.120407 3.71807e-19)
(1.00002 -0.000117754 2.36666e-21)
(0.999113 -0.0291005 2.04786e-21)
(1.00785 -0.00415592 -2.8217e-22)
(0.865019 0.254172 -5.72749e-22)
(1.01484 -0.00369001 -2.41016e-21)
(0.0972201 0.167133 1.30185e-19)
(0.874456 -0.0578767 1.43503e-20)
(1.20107 0.117502 0)
(1.01282 -0.0325841 2.88227e-21)
(1.40912 -0.276609 0)
(-0.548987 0.149731 -4.67544e-20)
(0.173333 -0.0232674 -2.05107e-19)
(0.967871 -0.106643 -1.00488e-20)
(1.08581 -0.0112029 3.47899e-21)
(1.00152 -0.000846465 -2.13413e-21)
(0.608759 -0.165628 1.98981e-19)
(1.01523 -0.00306572 4.49841e-21)
(0.409274 0.268123 0)
(1.2517 0.15949 -1.9925e-22)
(0.861961 -0.271262 -5.13426e-21)
(1.2178 0.26839 1.73292e-20)
(0.730743 0.684136 -1.38085e-19)
(1.04664 -0.00936195 -8.33906e-21)
(1.0219 -0.0484488 0)
(1.00288 -0.00292811 -9.21064e-22)
(1.04327 0.0272128 0)
(0.127479 0.10167 -2.01266e-21)
(-0.342825 0.0139348 0)
(1.00736 -0.00399152 1.44647e-22)
(0.21666 0.578513 0)
(1.03164 0.0166765 2.14108e-21)
(1.03837 0.123599 0)
(0.580114 0.0718122 0)
(0.216281 0.484362 -4.26659e-20)
(0.28876 0.49809 7.12237e-20)
(1.01754 -0.00186382 0)
(0.937975 -0.0537236 -2.21419e-20)
(1.06039 0.0169772 -1.59805e-20)
(1.03555 0.00789754 -1.38769e-20)
(1.02823 0.00974781 -3.78593e-21)
(0.752382 -0.613445 -2.08901e-19)
(0.999984 -0.00226639 -5.18071e-21)
(1.1921 0.0507374 -1.80776e-19)
(1.01047 -0.000212355 -1.81801e-21)
(1.01716 -0.0018882 3.2221e-21)
(1.19078 -0.146741 0)
(1.05965 0.120646 4.34923e-20)
(0.860241 0.221144 -4.03638e-21)
(1.03495 -0.0169782 6.05485e-21)
(1.00564 -0.412735 0)
(1.50609 -0.112252 0)
(1.40402 -0.175758 2.60488e-19)
(0.910209 0.00728636 0)
(1.00014 -0.000572603 -1.5591e-21)
(1.03439 -0.0181872 -2.00729e-23)
(1.00017 -0.000579586 3.69373e-21)
(0.989629 -0.00917614 2.46402e-21)
(1.40968 -0.198808 -1.91708e-19)
(0.912428 -0.0704084 -4.38402e-21)
(1.02372 -0.0242565 -3.32301e-21)
(0.989999 -0.00716993 -1.2921e-21)
(1.05851 0.0214306 0)
(0.202936 -0.220461 0)
(1.03288 -0.0683494 -8.47397e-21)
(0.989875 -0.00152945 -8.45635e-21)
(0.396661 0.0650208 1.78605e-19)
(0.995923 -0.00744936 -5.15401e-21)
(1.00001 -0.000583639 3.8433e-21)
(1.01551 -0.00315505 -2.3928e-21)
(1.04371 0.0516725 0)
(0.997274 -0.00312773 0)
(1.03919 0.00934308 9.10905e-21)
(0.014601 0.0039369 -8.46913e-21)
(1.1695 -0.0109773 -5.51218e-20)
(1.00378 -9.98004e-05 1.41226e-22)
(0.138988 0.550975 0)
(0.589127 0.0203871 -2.97593e-20)
(0.996117 -0.00787314 2.83323e-22)
(1.02781 0.00509299 -6.40757e-21)
(1.08938 -0.00375439 -7.65599e-21)
(1.00004 -0.000184506 -1.82218e-21)
(1.002 -0.00609207 -1.7805e-21)
(1.01423 -0.011529 0)
(1.3838 -0.0208118 0)
(1.14354 -0.0838771 -3.56533e-22)
(1.0039 -0.0336187 0)
(1.09276 -0.00207717 0)
(0.834761 0.0131696 -7.31095e-20)
(1.18626 -0.523061 0)
(0.98607 -0.00969955 0)
(0.44613 0.374954 1.4419e-20)
(1.00468 -0.00504939 9.3122e-23)