/*--------------------------------*- C++ -*----------------------------------*\
| =========                 |                                                 |
| \\      /  F ield         | OpenFOAM: The Open Source CFD Toolbox           |
|  \\    /   O peration     | Version:  v2012                                 |
|   \\  /    A nd           | Website:  www.openfoam.com                      |
|    \\/     M anipulation  |                                                 |
\*---------------------------------------------------------------------------*/
FoamFile
{
    version     2.0;
    format      ascii;
    class       surfaceVectorField;
    location    "800";
    object      Uf;
}
// * * * * * * * * * * * * * * * * * * * * * * * * * * * * * * * * * * * * * //

dimensions      [0 1 -1 0 0 0 0];


internalField   nonuniform List<vector> 
14470
(
(0.971737 -0.0175038 -5.27332e-21)
(0.970156 -0.0174992 1.93376e-22)
(0.97103 -0.0158789 6.95275e-21)
(-0.621279 0.00600172 -2.64672e-20)
(-0.659494 0.0102837 -4.7346e-20)
(0.994772 -0.00649616 5.16172e-21)
(0.995125 -0.00681141 6.08097e-21)
(0.994621 -0.00695197 1.71691e-21)
(-0.0414385 0.031559 1.3915e-20)
(-0.0413688 0.0158773 -4.70006e-22)
(-0.033392 0.0273033 -8.30259e-22)
(0.999981 -0.000964503 2.16277e-21)
(0.999976 -0.000968014 -4.90881e-22)
(0.999968 -0.00131738 2.13936e-21)
(1.23268 0.145276 2.42636e-22)
(1.24769 0.154728 4.95152e-20)
(1.24764 0.136581 3.26e-20)
(1.1859 -0.191964 3.16453e-21)
(1.18861 -0.178541 0)
(1.20328 -0.185967 0)
(0.116395 0.063483 -5.58691e-20)
(0.15354 0.0811172 3.23835e-20)
(-0.0197471 0.0709896 -1.69145e-20)
(1.02187 -0.0237871 -1.12469e-21)
(1.0232 -0.0242612 3.09371e-21)
(1.02211 -0.0252311 -9.69801e-22)
(1.00019 -0.00220542 0)
(1.00016 -0.0021612 0)
(1.00018 -0.00213208 1.30916e-21)
(1.00018 -0.00227471 2.77342e-22)
(1.00024 -0.00224692 0)
(1.0029 -0.00718095 -1.96893e-21)
(1.00277 -0.00696974 5.17314e-22)
(1.00267 -0.00721667 -2.16326e-21)
(0.477108 0.471411 1.43583e-21)
(0.392371 0.508138 -5.58182e-21)
(0.412591 0.473168 8.72518e-21)
(1.01712 -0.0137547 -2.08686e-22)
(1.01651 -0.013183 -9.97185e-22)
(1.01736 -0.0130693 -2.61757e-21)
(1.03482 0.0165557 -8.49386e-22)
(1.03537 0.0178923 6.33377e-21)
(1.03371 0.017607 4.78831e-21)
(1.13717 0.00896277 1.86004e-20)
(1.14501 0.0107205 -4.85739e-21)
(1.14358 0.00247682 3.99645e-20)
(0.996793 -0.00809442 4.10185e-22)
(0.996836 -0.00836716 2.22593e-21)
(0.997173 -0.00820046 -4.66047e-21)
(0.0472705 -0.0273815 -1.98745e-20)
(0.0198388 -0.0488377 -7.70087e-20)
(0.00463884 -0.100788 -7.87781e-20)
(1.0119 -0.00325503 8.16455e-23)
(1.01183 -0.00307207 -1.89501e-21)
(1.01207 -0.00319693 7.87041e-22)
(1.01576 -0.00540851 9.7588e-22)
(1.01607 -0.00522894 -4.38855e-22)
(1.01556 -0.00513992 5.28353e-22)
(0.999988 -0.0003101 -2.33374e-21)
(0.999994 -0.000319512 1.65012e-22)
(0.0408657 0.0377136 -4.66624e-21)
(0.0359153 0.0185882 -4.26019e-22)
(0.0291046 0.0305377 1.38127e-21)
(0.204496 0.0525802 -1.5982e-19)
(0.0495303 0.0544062 -2.77899e-20)
(0.55901 0.465529 -2.87397e-22)
(0.580842 0.430168 5.62239e-21)
(0.939069 -0.0617311 -4.67886e-21)
(0.943309 -0.0599875 -1.31482e-20)
(0.939085 -0.0564634 1.33676e-20)
(1.00033 -0.00372676 0)
(1.00042 -0.00398126 1.32821e-21)
(1.00039 -0.00357738 1.05885e-21)
(1.00003 -0.00045609 1.96747e-22)
(1.00003 -0.000529664 5.40153e-22)
(1.00007 -0.000660268 1.07283e-21)
(1.01176 -0.00330014 -4.07886e-22)
(1.01198 -0.00342329 -1.26611e-21)
(1.20401 -0.0631434 7.46797e-21)
(1.21256 -0.0583044 -1.51156e-20)
(1.2138 -0.0698914 -4.23543e-20)
(-0.533619 0.0347622 1.37772e-19)
(-0.537121 0.036335 -3.55312e-20)
(-0.626902 0.0389266 1.72149e-19)
(1.34642 0.129101 0)
(1.32675 0.125862 3.68032e-20)
(1.34164 0.109618 0)
(0.997965 -0.0051985 0)
(0.997803 -0.0050259 -1.61207e-21)
(0.997723 -0.00524365 0)
(0.999121 -0.00802312 1.56151e-21)
(0.998985 -0.00829117 1.35974e-21)
(0.999299 -0.0082818 0)
(1.00441 -0.000391637 3.09828e-23)
(1.00424 -0.000398185 2.75345e-22)
(1.00414 -0.000226516 -6.67099e-22)
(1.06354 0.00603662 2.00129e-20)
(1.06399 0.00375467 1.28033e-20)
(1.06573 0.0061326 1.38863e-20)
(1.03482 0.0113561 6.36757e-21)
(1.03527 0.0100109 -3.64498e-21)
(1.03385 0.0100677 1.16982e-21)
(0.929521 -0.00472218 0)
(0.926235 -0.00356552 0)
(0.927152 -0.00796966 0)
(-0.0586328 0.600066 1.66315e-20)
(-0.0881371 0.554273 -2.02325e-20)
(-0.0412173 0.594819 -2.93324e-20)
(1.08684 -0.0322416 -1.46096e-20)
(1.08214 -0.0318834 6.15372e-21)
(1.08455 -0.0276589 -2.36418e-21)
(1.19453 -0.0705511 9.7745e-20)
(1.19272 -0.0590867 5.81983e-20)
(1.44128 0.376062 6.57518e-20)
(1.45815 0.346513 1.22664e-19)
(1.41049 0.386939 0)
(0.107938 0.151279 8.41485e-20)
(0.177498 0.174794 0)
(-0.0128658 0.110564 0)
(1.00001 -0.000282911 -1.62473e-22)
(1.00003 -0.000426458 1.17315e-22)
(0.994319 -0.00226342 -3.22158e-21)
(0.993998 -0.00240887 4.17468e-21)
(0.993968 -0.00197542 -8.95261e-21)
(0.997411 -0.00282912 0)
(0.997635 -0.00291945 0)
(0.997563 -0.00267397 1.70062e-22)
(-0.577306 0.0891857 -1.81691e-19)
(-0.577825 0.0813378 8.68855e-20)
(-0.479947 0.0889587 -3.97219e-22)
(1.00001 -0.000643371 -1.92201e-21)
(1.00002 -0.000313208 -1.43201e-21)
(1.00003 -0.000299583 2.63654e-21)
(1.01959 -0.00343422 -2.35354e-21)
(1.01919 -0.00325358 -3.30517e-21)
(1.01973 -0.00306393 1.06696e-21)
(0.996785 -0.00770382 -2.28174e-21)
(0.9964 -0.00791228 -3.80332e-22)
(1.06294 0.00913784 3.45256e-21)
(1.06088 0.00658343 -7.18163e-21)
(1.00456 -0.000530596 3.74969e-22)
(1.0046 -0.000352623 4.39888e-22)
(1.09246 0.00518282 -6.76865e-21)
(1.0968 0.00532729 0)
(1.09289 0.00829354 0)
(1.00004 -0.000968318 -1.63335e-21)
(1.00003 -0.0010332 -2.58335e-21)
(0.927776 -0.12133 -2.87821e-21)
(0.936722 -0.118383 -6.64167e-21)
(0.935544 -0.128937 1.11512e-21)
(-0.0586303 0.0365865 0)
(-0.0453978 0.0475775 0)
(1.00294 -0.00658183 4.81109e-23)
(1.0028 -0.00635477 0)
(1.00303 -0.00637835 0)
(1.07083 0.104776 -2.36857e-20)
(1.06193 0.106266 -9.98536e-21)
(1.06502 0.0976154 -1.38705e-21)
(1.01942 -0.00370166 7.97171e-22)
(1.01996 -0.00355698 -1.10599e-21)
(1.00001 -0.000328815 2.52826e-22)
(0.917913 -0.0259569 -7.58212e-21)
(0.91291 -0.0251414 -1.60627e-20)
(0.916817 -0.0207192 -1.49392e-20)
(0.885272 -0.347438 1.06562e-20)
(0.905792 -0.355161 -2.13628e-21)
(0.880896 -0.380768 -1.34601e-21)
(0.996229 -0.00689194 3.05636e-22)
(0.995967 -0.00667047 5.38383e-21)
(0.996345 -0.00655235 -6.72755e-22)
(1.05305 0.0307962 9.87999e-21)
(1.0544 0.0286092 7.22794e-21)
(1.05152 0.0289684 3.50554e-21)
(1.00247 -0.00098984 -3.4344e-22)
(1.0026 -0.000911712 1.05288e-22)
(1.00263 -0.00109914 -1.0036e-21)
(1.02061 -0.0233759 -1.42755e-21)
(1.02145 -0.0225956 0)
(-0.626931 0.0598955 8.03523e-20)
(-0.614106 0.0612996 -2.06075e-19)
(1.05025 -0.0187659 9.44984e-23)
(1.04869 -0.019897 -2.818e-22)
(1.05087 -0.0209114 1.14296e-20)
(1.03429 0.0124271 5.18437e-21)
(1.03357 0.0137277 0)
(1.0327 0.0123503 4.83515e-21)
(0.630256 0.5904 -7.54268e-20)
(0.704215 0.649241 -5.03163e-20)
(0.71752 0.608874 2.37772e-20)
(0.984593 -0.0102368 -6.38266e-22)
(0.983546 -0.0101539 2.6424e-23)
(0.984351 -0.00926216 -3.14959e-21)
(0.617978 -0.00148429 -2.58215e-20)
(0.597508 0.0110733 -5.34125e-20)
(0.597211 -0.0173979 8.25828e-20)
(-0.124533 0.0893677 -1.8701e-20)
(0.023027 0.0984397 -1.19973e-19)
(-0.11978 0.101967 -8.33041e-20)
(1.15652 -0.212153 2.10401e-21)
(1.13202 -0.251868 1.98532e-20)
(1.10621 -0.250286 -7.39836e-21)
(0.836717 0.72521 1.80191e-20)
(0.76477 0.739951 4.30512e-20)
(0.799994 0.699072 6.63552e-21)
(1.00001 -0.000826397 0)
(1 -0.000905546 0)
(1.00005 -0.00114921 0)
(0.824556 -0.151088 -2.8611e-20)
(0.840495 -0.156817 -5.9416e-22)
(0.836109 -0.14064 -1.2964e-22)
(1.41574 0.114586 -6.51551e-20)
(1.31304 0.131202 -1.31956e-19)
(1.31085 0.104128 1.39106e-19)
(0.996383 -0.00466492 2.90319e-21)
(0.996255 -0.00491457 -5.81748e-23)
(0.996588 -0.00487278 -3.22107e-21)
(0.999999 -0.000980548 -1.97721e-21)
(1 -0.000959113 1.70282e-23)
(0.999992 -0.000627417 -4.98004e-21)
(0.814994 -0.158315 -7.3423e-20)
(0.812143 -0.141373 -5.04395e-20)
(0.0599966 0.00296957 -9.23328e-20)
(0.0930746 0.0545612 8.50672e-20)
(1.13045 0.00639317 -1.88733e-20)
(1.13151 0.0135931 -3.05788e-20)
(0.995071 -0.0613289 8.15532e-22)
(0.998208 -0.0619889 8.34499e-22)
(0.997737 -0.0587373 3.49056e-23)
(1.03568 0.0126137 -1.82439e-22)
(1.33432 -0.0429142 -2.02939e-20)
(1.32833 -0.0550876 -3.16534e-21)
(1.32085 -0.0424428 1.46078e-20)
(0.999991 -0.00100883 2.94767e-21)
(0.999983 -0.00132711 -6.72557e-23)
(1.03672 0.0582437 5.71138e-21)
(1.04018 0.0562312 -3.70837e-21)
(1.03644 0.0542499 -2.82056e-21)
(-0.0330425 0.62967 3.79312e-21)
(-0.0712971 0.595849 6.9474e-20)
(0.878419 -0.325033 8.09438e-21)
(0.854417 -0.350077 9.41073e-21)
(0.0323721 0.0693349 3.04731e-21)
(0.0227531 0.0592475 -1.04962e-21)
(0.00759022 0.07099 -6.79366e-21)
(1.4123 -0.0608732 1.47606e-19)
(1.40337 -0.0517483 -2.51631e-20)
(1.42512 -0.0512818 7.17751e-20)
(1.43032 -0.0700115 1.60498e-19)
(1.4051 -0.0712954 -7.26446e-20)
(1.11349 -0.0747406 -3.68706e-20)
(1.122 -0.0780802 9.81942e-21)
(1.11894 -0.0692632 6.36614e-20)
(0.0489118 0.123111 2.50572e-20)
(0.22498 0.194013 1.4443e-19)
(0.998332 -0.00998397 3.7688e-21)
(0.998548 -0.0102617 -4.77067e-21)
(0.998764 -0.00993622 1.44028e-21)
(0.873659 0.738069 2.98282e-20)
(0.897512 0.701564 0)
(1.1503 -0.0184964 -3.53314e-20)
(1.14614 -0.0249689 -1.77898e-20)
(1.14226 -0.0172967 3.63903e-20)
(1.04762 -0.0400122 -1.23125e-20)
(1.05043 -0.0401307 -4.45163e-21)
(1.04896 -0.042772 1.48106e-21)
(0.999995 -0.000627079 -3.67556e-23)
(0.999981 -0.00102045 0)
(-0.0140314 0.418877 5.75376e-21)
(0.00465091 0.45786 1.429e-20)
(0.0293657 0.424286 6.86308e-21)
(1.09177 0.000694833 2.83009e-21)
(1.08809 0.00524037 1.86712e-21)
(0.775229 -0.599354 2.43596e-20)
(0.715483 -0.636118 5.60695e-20)
(0.797309 -0.551742 -1.26469e-20)
(0.994625 -0.00205439 1.26629e-21)
(0.994698 -0.00247388 -3.34531e-21)
(0.558876 0.501177 -2.7775e-21)
(0.50624 0.506255 2.04296e-21)
(0.559345 0.555634 4.3615e-21)
(1.17727 0.144204 2.00565e-20)
(1.04362 0.131663 -3.09401e-20)
(1.03754 0.15424 -2.94861e-20)
(1.17842 -0.16173 6.22516e-22)
(1.21247 -0.153744 4.8529e-21)
(1.00434 -0.00474868 6.10572e-23)
(1.00434 -0.0049579 -4.03036e-22)
(1.00414 -0.00484326 -3.62166e-22)
(0.996169 -0.00444731 2.85369e-21)
(0.996513 -0.00445021 2.67438e-21)
(0.99998 -0.000283799 5.44323e-23)
(1.00011 -0.00108664 -4.36241e-23)
(1.00013 -0.00105448 -4.4548e-22)
(1.00016 -0.00123167 -8.353e-22)
(0.0328194 0.0491022 -4.72779e-21)
(0.0551948 0.0415548 3.40745e-21)
(0.119859 -0.16374 1.20204e-19)
(0.0819195 -0.173789 -6.33194e-20)
(0.0877571 -0.130861 -1.03422e-19)
(-0.505926 0.0112336 4.35153e-20)
(-0.517256 0.0164091 -4.51131e-20)
(-0.562485 0.0204455 -5.77711e-20)
(0.985594 -0.0101032 5.83904e-21)
(0.985007 -0.0109287 1.65958e-21)
(0.999623 -0.00307587 -3.00218e-21)
(0.999632 -0.00335489 -1.44213e-21)
(0.999502 -0.00333183 4.68867e-21)
(1.02511 0.0125736 0)
(1.02399 0.0120372 0)
(1.02413 0.0137275 1.60942e-21)
(0.997776 -0.00333815 -2.46681e-21)
(0.997974 -0.00333521 -2.45225e-21)
(0.997848 -0.00355422 6.23511e-22)
(-0.0752075 0.0456909 5.67596e-21)
(-0.0785057 0.0695455 5.61474e-21)
(-0.0909513 0.056565 -4.28106e-22)
(0.997093 -0.00231688 -8.01827e-22)
(0.997048 -0.00251034 -6.20236e-21)
(0.996884 -0.00229529 -1.05236e-20)
(0.460052 0.487709 -6.7768e-21)
(0.442902 0.419608 -1.31542e-21)
(0.393936 0.47221 -1.1241e-21)
(1.03261 0.060538 -3.35332e-21)
(1.03683 0.0638187 5.23189e-21)
(1.02338 0.655882 -7.98221e-20)
(1.00024 0.678749 2.42147e-20)
(1.04374 0.677598 6.08911e-20)
(1.0885 0.0299349 0)
(1.08616 0.0342922 0)
(1.084 0.0301664 -1.87968e-20)
(1.03575 0.00867772 -5.04882e-21)
(1.03692 0.00981691 1.03203e-21)
(0.997082 -0.00209316 5.28966e-21)
(0.99729 -0.00233422 3.80538e-21)
(1.15682 -0.00410876 5.91367e-21)
(1.16252 0.00156871 1.65681e-20)
(1.16594 -0.00715737 1.83109e-20)
(-0.541307 0.0339315 8.49183e-20)
(-0.440535 0.0320479 9.01895e-20)
(0.965312 0.0196586 3.64695e-21)
(0.971608 0.0279678 -2.39303e-21)
(0.958535 0.0335164 -8.85749e-21)
(0.958542 0.0083858 1.46794e-20)
(0.974817 0.00514063 6.10018e-21)
(1.04264 -0.00132397 1.92337e-21)
(1.04152 -0.000301096 1.03166e-24)
(1.04118 -0.00169631 2.76542e-23)
(1.00665 -0.00999799 -3.03632e-22)
(1.00698 -0.0099413 1.88822e-23)
(1.0066 -0.00960385 -2.42971e-22)
(0.973466 -0.0170062 -1.67678e-20)
(0.972767 -0.0187125 -9.40277e-21)
(1.04472 -0.0181806 -3.0348e-21)
(1.04336 -0.0193237 -3.28768e-21)
(1.04287 -0.0174394 2.13821e-21)
(1.06336 0.00182121 -1.12074e-20)
(1.06041 0.00133345 0)
(1.06236 -0.000998952 -9.84213e-21)
(1.2817 -0.154482 2.85017e-21)
(1.27217 -0.166413 -3.75524e-20)
(1.29084 -0.170315 3.47808e-20)
(1.20683 0.299214 -1.1816e-19)
(1.1857 0.318044 7.29016e-21)
(1.17939 0.288404 -5.48592e-20)
(1.02604 0.013438 0)
(1.02593 0.0118035 0)
(1.00002 -0.000782715 -1.51969e-21)
(1 -0.000508282 0)
(1.14646 0.0273833 -1.8056e-20)
(1.14779 0.0327848 2.61903e-21)
(1.1532 0.0267078 -2.3342e-20)
(0.141075 0.11461 9.0971e-20)
(0.0909077 0.0548462 -4.11373e-20)
(0.160796 0.14263 1.87605e-19)
(1.06572 0.00152041 -7.59677e-21)
(0.989703 -0.0165295 -3.27648e-21)
(0.990175 -0.0176568 0)
(0.990742 -0.0164749 0)
(1.0484 0.0520537 1.70839e-20)
(1.04525 0.0514165 1.12519e-20)
(1.0472 0.0490168 1.37193e-21)
(-0.567161 0.1004 -9.45865e-20)
(-0.562739 0.112442 7.38185e-20)
(-0.47752 0.113814 5.98332e-21)
(1.28152 -0.439895 1.51514e-19)
(1.26027 -0.447672 -4.27121e-20)
(1.27359 -0.469755 1.03199e-20)
(0.99707 -0.00186336 -8.83387e-22)
(0.997268 -0.00185265 0)
(0.896097 0.739086 3.66866e-21)
(0.846398 0.745259 7.29729e-20)
(1.00638 -0.0100651 7.12003e-22)
(1.00676 -0.0104133 7.96491e-24)
(0.996839 -0.00185057 -4.94509e-21)
(0.999844 -0.00498525 6.88236e-22)
(0.999906 -0.00474291 -1.13922e-21)
(0.999801 -0.00465037 -2.89124e-21)
(0.0761544 -0.0491735 -1.91333e-20)
(0.383302 -0.115157 1.15453e-19)
(0.175303 -0.0717642 0)
(1.04458 -0.0401204 -7.52923e-21)
(1.04579 -0.0376852 -1.88124e-21)
(1.00028 -0.00357231 7.39711e-22)
(1.0003 -0.00391394 0)
(0.988789 -0.00302255 -2.54206e-21)
(0.989114 -0.00358894 5.22737e-21)
(0.988429 -0.00351557 2.96749e-21)
(1.44261 -0.0927583 1.30996e-19)
(1.41747 -0.0974924 -1.02791e-20)
(1.43661 -0.10984 -7.90591e-20)
(1.14519 0.0197427 -1.8251e-20)
(1.15323 0.0118705 -2.88944e-20)
(0.996514 -0.00714149 -2.25021e-21)
(0.996115 -0.0072796 -2.50261e-21)
(1.34878 0.148846 -4.16185e-21)
(1.3657 0.12973 7.69796e-20)
(0.988673 -0.00989593 7.17769e-21)
(0.989357 -0.00955219 -7.98282e-21)
(0.9894 -0.0103671 4.19095e-22)
(1.04292 0.053698 -2.98607e-22)
(1.04377 0.0578986 -3.49441e-21)
(1.04413 -0.000828986 1.7591e-21)
(1.04373 -0.00238509 3.96974e-21)
(1.01595 -0.00561501 0)
(1.01553 -0.00553251 -2.71442e-21)
(0.628997 -0.463848 5.99083e-20)
(0.642591 -0.49634 2.95708e-20)
(0.599192 -0.489021 -3.55999e-21)
(1.02677 -0.00516625 3.44759e-22)
(1.02737 -0.00567051 -1.15341e-21)
(1.02638 -0.00587232 1.37961e-21)
(1.49212 0.131142 5.44703e-20)
(1.49216 0.0990077 -3.4209e-21)
(0.655124 -0.667472 -1.05621e-20)
(0.599174 -0.701543 -4.20196e-20)
(0.655166 -0.622803 -1.1884e-19)
(1.02997 -0.00633642 -2.44008e-21)
(1.03041 -0.00710708 -2.19645e-21)
(1.0293 -0.00709684 -2.3717e-21)
(1.00432 -0.00453212 -8.43625e-23)
(1.00428 -0.00433303 -4.66978e-22)
(1.0041 -0.00443834 -2.94467e-22)
(1.00012 -0.00206893 0)
(1.0001 -0.0019172 -3.15242e-23)
(1.00009 -0.00194243 0)
(0.989263 -0.0158361 -4.63943e-22)
(0.988726 -0.0168289 -2.57131e-21)
(-0.290825 0.0231441 -5.57345e-20)
(-0.326908 0.011274 -9.06684e-20)
(-0.294509 0.00689551 0)
(0.616463 -0.287789 0)
(0.362622 -0.18889 2.88257e-20)
(0.232362 -0.141935 0)
(-0.00681942 0.311793 3.08797e-20)
(-0.0249632 0.367519 -3.72293e-20)
(0.0205496 0.381993 4.99878e-20)
(1.00296 -0.00748993 1.27293e-21)
(1.00314 -0.00721622 -9.27918e-22)
(1.21924 0.131829 0)
(1.21578 0.148776 0)
(1.10793 -0.376596 2.27056e-20)
(1.12547 -0.357504 -1.33107e-21)
(1.10055 -0.352857 -1.39756e-21)
(0.618847 -0.585849 2.66163e-20)
(0.577257 -0.626543 5.3255e-20)
(0.57408 -0.556385 -3.48803e-20)
(0.996102 -0.00519269 2.44419e-21)
(0.996365 -0.00540921 2.31786e-21)
(0.995976 -0.00547508 4.26786e-21)
(1.04951 -0.01485 1.32216e-20)
(1.04985 -0.0168643 -3.58307e-21)
(1.04769 -0.0156215 -1.18772e-20)
(0.61582 0.49313 -2.39165e-21)
(0.564773 0.441361 -9.23043e-22)
(-0.641127 0.0873763 -5.34709e-20)
(1.02808 0.0570561 -8.39296e-21)
(1.02729 0.0642509 -6.353e-21)
(0.997291 -0.00300613 4.6314e-23)
(0.997183 -0.00272518 0)
(0.998197 -0.0029031 2.39632e-21)
(0.998307 -0.00265469 -2.77136e-22)
(0.998359 -0.00283337 -1.62661e-25)
(1.00453 -0.00462866 6.66839e-22)
(1.05198 0.61271 -7.67148e-21)
(0.996747 0.607359 -5.20926e-20)
(-0.139007 0.0775935 -5.80355e-20)
(-0.266787 0.0810552 9.2511e-20)
(0.960083 -0.408354 -1.18099e-19)
(1.11272 -0.501474 0)
(0.839625 -0.556972 0)
(0.753289 -0.615044 1.77608e-20)
(1.0195 -0.0229763 -2.60473e-22)
(1.01836 -0.022364 1.30683e-21)
(1.01928 -0.0216549 3.50958e-21)
(-0.02996 -0.0566359 2.79161e-21)
(-0.0186905 -0.0156038 0)
(-0.0735338 -0.0499901 5.08404e-21)
(0.4194 -0.183391 -3.56841e-20)
(0.397003 -0.200924 -5.56625e-20)
(0.430572 -0.210093 1.22034e-19)
(0.928478 -0.0285584 -6.65204e-22)
(0.926274 -0.0253298 -8.47486e-21)
(0.930465 -0.0248406 4.48661e-21)
(1.01981 -0.00161752 0)
(1.01984 -0.00200006 0)
(1.01942 -0.00188324 0)
(0.975779 -0.0483446 -4.62789e-22)
(0.977146 -0.0462507 -1.52871e-21)
(0.974491 -0.0457847 -7.44768e-21)
(0.201287 0.0690755 1.5192e-20)
(0.16468 0.0608605 -8.27644e-20)
(0.190937 0.0276803 -2.27315e-19)
(1.01043 -0.00313537 5.21904e-22)
(1.01069 -0.00320252 1.19761e-21)
(1.01056 -0.00330761 7.3929e-22)
(0.996655 -0.00860982 -5.67797e-23)
(0.997017 -0.00862339 1.05973e-21)
(0.999908 -0.0022103 -2.62057e-21)
(0.99994 -0.002214 2.03286e-21)
(0.999933 -0.00214552 -2.63774e-21)
(0.982669 -0.0105406 -5.93724e-21)
(0.981637 -0.0110253 1.84774e-21)
(0.982633 -0.0116442 -7.86241e-21)
(1.01672 -0.00476009 -2.27056e-21)
(1.01684 -0.00461928 2.79913e-21)
(1.01648 -0.00458569 -4.07783e-21)
(1.06016 0.0118249 0)
(1.06265 0.011355 9.03676e-21)
(1.06213 0.0139722 0)
(1.04455 0.00530079 -3.11231e-21)
(1.04614 0.00586638 7.39945e-21)
(1.04445 0.0066372 1.8847e-20)
(-0.145224 0.0580626 -7.73817e-20)
(-0.15147 0.0090454 1.43772e-20)
(-0.140491 -0.0159857 -6.46199e-20)
(0.986119 -0.00225758 0)
(0.985556 -0.00274769 0)
(0.986367 -0.00290317 -4.69307e-22)
(1.07522 -0.0295579 0)
(1.07204 -0.0283371 2.45491e-21)
(1.07271 -0.032072 0)
(1.02952 -0.00563454 2.69934e-21)
(1.03048 -0.00559152 2.4523e-21)
(0.978607 -0.0275565 -3.79843e-21)
(0.978547 -0.0257246 6.21463e-21)
(0.980132 -0.0268842 0)
(0.893201 -0.600234 -1.69207e-21)
(0.848653 -0.608419 1.15082e-20)
(0.886838 -0.653551 1.44168e-21)
(1.13924 0.0250623 1.75417e-20)
(0.20962 0.175987 5.28156e-20)
(0.120482 0.109103 1.65385e-20)
(1.00958 -0.00297275 -9.12319e-22)
(1.00944 -0.00282803 -3.00477e-22)
(1.00933 -0.00290186 8.10069e-22)
(0.54371 0.560622 -1.19062e-19)
(0.552365 0.528168 -5.83345e-21)
(0.992082 -0.0601943 -1.11544e-21)
(0.992355 -0.0637004 -1.30492e-21)
(1.02995 0.0415671 -3.58173e-22)
(1.03065 0.0435347 4.02232e-21)
(1.02836 0.0430932 1.0259e-23)
(1.017 -0.0142737 1.01112e-21)
(1.01779 -0.0141172 2.71272e-22)
(1.29204 -0.141832 6.3841e-20)
(1.27609 -0.140539 -4.02222e-20)
(0.999686 -0.00286149 -1.38246e-21)
(0.999633 -0.00287217 2.22042e-21)
(0.765189 -0.0833969 -3.22534e-22)
(0.774364 -0.071743 -1.42839e-20)
(0.755124 -0.069136 -1.73691e-20)
(1.15277 -0.0115941 -8.15609e-20)
(1.15794 -0.0194188 -5.32649e-20)
(1.01657 -0.00493263 1.2222e-21)
(1.01706 -0.004938 -1.90362e-21)
(0.341548 0.421582 0)
(0.39047 0.402025 -6.68813e-20)
(0.385451 0.456294 8.27473e-21)
(0.0191957 -0.103418 -6.58906e-20)
(0.018327 -0.155348 -4.46667e-21)
(0.0542384 -0.236225 9.9371e-20)
(1.11025 -0.0800656 -6.55475e-20)
(1.1079 -0.0724535 -5.83722e-20)
(0.998428 -0.0112907 1.12386e-21)
(0.998172 -0.0109189 2.18188e-21)
(0.99787 -0.0113755 -6.8657e-22)
(1.08917 0.0473492 -8.00709e-21)
(1.09205 0.0434046 -9.89104e-21)
(1.0956 0.048132 2.9575e-21)
(0.317921 -0.820776 1.16198e-20)
(0.260011 -0.749844 0)
(0.288628 -0.76609 1.01361e-20)
(0.782577 -0.10817 0)
(0.772902 -0.0957122 4.67931e-20)
(0.790677 -0.0979248 -3.16422e-20)
(0.771006 -0.118818 2.94952e-20)
(0.788949 -0.118983 -3.34438e-20)
(-0.166261 0.105094 -2.86445e-21)
(-0.169807 0.160161 3.98668e-20)
(-0.154048 0.130104 -5.05091e-21)
(0.98992 0.0537894 0)
(0.992303 0.0432518 0)
(0.980237 0.0492087 -9.23158e-22)
(1.03124 0.0398402 0)
(1.02907 0.0395313 2.006e-22)
(1.05166 0.0324017 -1.00573e-21)
(1.0544 0.0324431 4.17969e-21)
(0.437884 -0.162946 2.85894e-20)
(0.404496 -0.155615 3.86826e-20)
(1.01694 -0.00269461 -9.74294e-22)
(1.01698 -0.00246091 4.68051e-22)
(1.01669 -0.00255238 -3.83796e-22)
(-0.0047706 -0.0804913 -1.2259e-22)
(-0.436478 0.00194254 -2.986e-21)
(-0.498031 0.00439169 -2.39494e-20)
(1.01019 -0.00306182 -7.41404e-22)
(1.01033 -0.00298731 5.81315e-23)
(0.999926 -0.00199916 0)
(0.999918 -0.00198084 3.83409e-22)
(0.999943 -0.00182388 2.85207e-21)
(1.4136 0.412773 -8.2844e-20)
(1.40116 0.371106 6.79902e-20)
(0.992048 -0.0113488 4.01787e-21)
(0.992804 -0.0116458 9.97416e-22)
(0.992097 -0.0122948 2.7942e-21)
(1.00008 -0.000982937 0)
(1.00011 -0.00116799 1.47783e-21)
(1.03402 0.107001 -7.42917e-21)
(1.03854 0.117472 2.64047e-21)
(1.0438 0.105912 -7.61689e-21)
(1.04361 0.126973 -2.37858e-22)
(1.05481 0.125608 -1.03961e-20)
(1.05103 0.138893 -9.56601e-21)
(1.01971 -0.0241002 -5.4259e-22)
(1.04929 -0.013058 8.4874e-21)
(1.05108 -0.0140803 1.29749e-20)
(1.07851 -0.0305987 0)
(1.07733 -0.0268072 1.82286e-20)
(0.994888 -0.167057 1.38529e-22)
(0.985021 -0.161417 1.45853e-21)
(0.985972 -0.172987 -2.59972e-22)
(1.04937 -0.0086292 -9.95339e-21)
(1.04755 -0.00871161 8.85431e-22)
(1.04828 -0.00723229 -4.51217e-21)
(0.995837 -0.00496916 -3.57196e-21)
(1.11114 -0.131335 2.99661e-20)
(1.11245 -0.124651 1.28e-20)
(1.10424 -0.126663 -1.41549e-21)
(-0.101657 -0.164256 1.33612e-20)
(-0.0783204 -0.207059 6.82367e-20)
(-0.097994 -0.193424 2.24378e-20)
(1.01632 -0.00511714 -1.05552e-22)
(1.01609 -0.00486133 -9.83766e-22)
(-0.0194938 0.134536 2.28492e-20)
(-0.0153499 0.235019 -2.02145e-20)
(-0.0196816 0.193223 -6.5977e-20)
(1.00001 -0.00126758 -1.13117e-21)
(1.00005 -0.000935218 6.13089e-22)
(1.00024 -0.00240997 -2.28698e-22)
(1.0002 -0.00235139 4.89454e-23)
(1.00019 -0.00244386 -2.63252e-22)
(1.00815 -0.000422388 9.27727e-22)
(1.0081 -0.000536129 9.38159e-22)
(1.00831 -0.000549989 2.63354e-22)
(-0.0689518 0.0221001 0)
(0.995117 -0.00110429 -2.73066e-21)
(0.994832 -0.00121 8.52502e-22)
(0.995157 -0.0014421 -3.57422e-21)
(1.44743 -0.079434 2.6044e-19)
(1.47714 -0.088038 1.74749e-19)
(0.58122 0.749527 -6.6794e-21)
(0.652678 0.757588 -4.65251e-21)
(0.592233 0.767426 -7.39143e-21)
(1.00073 -0.00246527 -6.6359e-22)
(1.00071 -0.00251887 -2.34819e-21)
(1.0008 -0.00267839 1.42245e-21)
(0.999753 -0.0026762 0)
(0.999747 -0.00286444 0)
(1.45544 -0.00706755 -8.16664e-20)
(1.43594 0.00391184 -1.13986e-20)
(1.42225 -0.00523266 -8.27379e-20)
(1.00777 -0.00022593 2.08147e-22)
(1.00804 -0.000227774 0)
(0.999998 -0.00159698 -1.9122e-23)
(1.00001 -0.00159937 -1.8608e-23)
(1 -0.00185133 3.06584e-24)
(1.00862 -0.000310552 -7.08662e-22)
(1.00848 -0.000318051 4.78134e-22)
(1.00766 -0.000172862 6.64003e-23)
(0.54757 0.71975 0)
(0.502193 0.732788 0)
(0.644594 -0.433865 0)
(0.605603 -0.425315 0)
(0.949637 -0.0539219 6.18606e-21)
(0.952649 -0.0511943 -1.75155e-20)
(0.953712 -0.0554549 -7.79393e-21)
(0.976124 -0.578219 2.77333e-20)
(0.98425 -0.53764 8.84705e-21)
(1.0174 -0.562499 -2.26724e-20)
(1.07887 0.102735 -3.46604e-21)
(1.08695 0.0994588 2.17353e-20)
(1.08027 0.0936947 3.38901e-20)
(0.643113 -0.688853 2.65858e-20)
(0.00720483 -0.0512911 5.48972e-21)
(0.00196792 -0.0345348 -1.83022e-21)
(0.018818 -0.0368225 -2.02241e-21)
(1.03094 -0.00792262 5.04895e-21)
(1.03165 -0.00699853 2.78511e-21)
(-0.244241 -0.484393 0)
(-0.0716173 -0.569933 -8.69234e-20)
(-0.349111 -0.619869 -1.39471e-19)
(1.00005 -0.000861907 -3.12889e-21)
(1.00003 -0.00121052 1.83602e-21)
(1.00003 -0.000827841 1.48029e-21)
(0.365967 -0.87024 -8.62595e-21)
(0.375405 -0.846217 4.30129e-20)
(0.494069 -1.16429 2.36742e-20)
(0.227684 -1.10562 -2.44167e-20)
(0.478564 -1.25688 -7.65992e-20)
(-0.0254344 0.60991 3.6983e-20)
(-0.0037325 0.623024 3.52965e-21)
(-0.0109385 0.610026 5.95716e-20)
(0.456836 0.551499 8.25049e-21)
(0.996929 0.0570088 6.67248e-22)
(0.988538 0.0642961 -2.50948e-21)
(1.04032 0.000649788 -2.78377e-23)
(1.04168 0.00116128 -3.82104e-21)
(1.12435 0.00465141 1.66572e-21)
(1.12913 -0.000407005 2.9692e-20)
(1.04464 0.00368791 -1.5886e-20)
(1.04306 0.00478795 -7.86165e-21)
(1.01981 -0.0012405 0)
(1.01969 -0.000832822 -7.2493e-22)
(1.01931 -0.00116988 6.03874e-22)
(1.02932 -0.00276721 0)
(1.02997 -0.00237889 4.92531e-21)
(1.0291 -0.00194347 4.68905e-21)
(0.939219 -0.587803 -1.64242e-21)
(0.902583 -0.559206 -1.53042e-20)
(0.938711 -0.0666868 5.51915e-21)
(0.935044 -0.0627766 4.99601e-21)
(0.999762 -0.00256264 -2.16111e-21)
(0.999779 -0.00254934 1.24779e-21)
(1.00001 -0.000174756 1.0175e-21)
(1 -8.09409e-05 1.22819e-21)
(1 -8.75914e-05 -1.06814e-23)
(1.00981 -0.00305112 -4.53101e-22)
(1.00968 -0.00314026 -3.65496e-22)
(1.01153 -0.000186921 -6.56951e-22)
(1.01133 -0.000243278 0)
(1.01188 -0.000296913 -3.9793e-22)
(1.01655 -0.00531444 5.52132e-22)
(0.0545712 -0.0543337 -2.33268e-21)
(0.031889 -0.044148 -2.32288e-21)
(0.0577023 -0.034256 1.95355e-21)
(1.00443 -0.00562658 -8.11095e-22)
(1.00461 -0.00552772 -9.35002e-22)
(1.00439 -0.00541519 3.66292e-22)
(1.01586 -0.0131371 2.9313e-21)
(1.01519 -0.0129834 -1.53875e-22)
(1.01549 -0.0136587 0)
(1.01136 -0.000245001 -7.25628e-23)
(1.01123 -0.000253315 0)
(1.01186 -0.000275555 8.13286e-22)
(1.00284 -0.00678297 1.5743e-21)
(1.00311 -0.00679782 -1.25148e-23)
(-0.0512555 -0.335811 -3.01447e-20)
(-0.0542787 -0.321643 -5.75159e-20)
(-0.0344576 -0.39815 6.24834e-20)
(1.29103 -0.412872 6.01682e-20)
(1.30803 -0.438697 5.11145e-20)
(0.705212 0.0514021 3.13075e-20)
(0.70976 0.0368203 7.88478e-20)
(0.690864 0.0389541 -1.56472e-20)
(0.959001 -0.0165023 0)
(0.957949 -0.0182889 0)
(0.9567 -0.0157796 -8.23062e-21)
(1.04982 0.0554635 1.04802e-20)
(1.05162 0.0523992 1.54222e-21)
(1.00959 -8.60014e-05 8.8475e-22)
(1.17876 -0.128955 -3.16708e-21)
(1.16149 -0.0969714 -1.06556e-21)
(1.20295 -0.0862617 -7.46358e-21)
(-0.109775 -0.000976816 -1.59448e-20)
(0.0121051 -0.0276864 -1.02613e-19)
(0.994584 -0.00167889 -2.07242e-22)
(0.994923 -0.00189372 7.6691e-21)
(0.713924 0.746915 2.80596e-20)
(0.720509 0.745257 -7.53194e-21)
(1.05608 0.0268801 3.387e-21)
(1.05756 0.0247771 4.14128e-22)
(1.05467 0.0249338 9.12886e-22)
(0.993985 -0.00275857 6.69309e-22)
(0.993639 -0.00255055 3.4796e-21)
(-0.581184 0.011271 3.63713e-20)
(1.14308 -0.163654 -1.96597e-21)
(0.998101 -0.0053557 1.35706e-22)
(0.998172 -0.00515933 2.50341e-21)
(1.10779 -0.14038 8.56052e-22)
(1.1188 -0.138177 -6.1747e-22)
(0.356503 0.518643 -4.95271e-20)
(0.373563 1.093 1.2382e-20)
(0.982401 -0.0244124 1.78961e-21)
(0.983901 -0.0247629 -3.46435e-23)
(0.983416 -0.0232454 -4.32982e-22)
(0.846906 0.00742023 0)
(0.854226 0.00387463 0)
(0.847756 -0.000946554 2.29019e-20)
(1.01614 -0.0125143 2.71526e-21)
(0.978423 -0.0240928 1.06085e-20)
(0.979572 -0.0232285 -1.1882e-21)
(0.978084 -0.0224716 1.22078e-20)
(0.465048 -0.917695 -2.12418e-20)
(0.422424 -0.904259 -4.66921e-20)
(0.498837 -0.927574 -5.65475e-21)
(0.940108 -0.185093 7.04811e-21)
(0.943997 -0.173837 5.48237e-21)
(0.930486 -0.177262 -2.92251e-21)
(0.999276 -0.00773424 -7.60671e-22)
(0.998981 -0.00775392 1.60906e-21)
(0.996905 -0.00302351 -4.36418e-23)
(0.997144 -0.00314817 -2.32123e-24)
(0.996993 -0.00327717 -4.48053e-23)
(0.960311 -0.0146165 -1.67204e-21)
(0.961179 -0.0171466 0)
(1.20147 -0.359599 1.41288e-21)
(1.17717 -0.36196 0)
(1.18717 -0.339479 -3.28912e-20)
(0.0798853 -0.233466 5.40748e-20)
(0.115508 -0.251331 -1.199e-19)
(0.0846487 -0.283067 -1.07024e-19)
(0.994463 -0.00626655 -3.67561e-21)
(0.9949 -0.00616561 1.51986e-21)
(1.00455 -0.00505135 -1.10048e-24)
(1.00437 -0.0051629 8.31119e-22)
(1.02001 -0.00734136 7.26849e-22)
(1.01988 -0.00691574 4.37983e-21)
(1.02048 -0.00719449 -5.31856e-21)
(-0.206733 0.0319361 -4.43357e-20)
(-0.285235 0.0368943 -4.14183e-20)
(-0.122597 -0.307834 0)
(-0.243635 -0.257853 0)
(-0.0365624 -0.0111661 1.6822e-19)
(0.0897789 -0.00395021 -6.35876e-20)
(5.80131e-06 -0.0161726 1.69799e-19)
(1.01685 -0.00290824 -1.48377e-21)
(1.01674 -0.00310475 3.08794e-21)
(1.01652 -0.00295871 1.61581e-21)
(0.951329 -0.192976 6.83936e-21)
(0.935124 -0.198776 -5.65742e-21)
(0.847554 0.0163939 1.92919e-20)
(0.839441 0.0124713 0)
(0.954587 -0.788279 -1.02198e-20)
(0.898486 -0.817288 3.36377e-20)
(0.96865 -0.85589 -4.05344e-20)
(1.09886 0.0753627 1.28416e-20)
(1.09483 0.0799784 -3.13298e-21)
(1.10267 0.080758 -2.32491e-20)
(1.01657 -0.00166781 -3.02976e-21)
(1.01682 -0.00170606 -1.64068e-21)
(1.01654 -0.00183832 -1.60003e-21)
(1.01763 -0.00196416 1.74887e-23)
(1.01761 -0.00222317 -1.11154e-22)
(1.01795 -0.00207283 1.58947e-22)
(1.02015 -0.00780583 4.37918e-21)
(1.01949 -0.00746264 -3.91161e-22)
(1.11844 0.00289019 1.68913e-21)
(1.11957 0.00876888 -2.68092e-20)
(0.997007 -0.0285386 0)
(0.998292 -0.0292177 -9.91594e-22)
(0.996994 -0.0301195 0)
(0.321346 0.0326346 -6.97556e-20)
(0.288457 0.0317655 4.17701e-21)
(0.186777 0.0351597 -1.63723e-20)
(0.99905 -0.00347349 1.20014e-21)
(0.998951 -0.00346258 1.31212e-21)
(0.998976 -0.00377273 2.73215e-21)
(1.00781 -0.00922891 -2.39915e-22)
(1.00789 -0.00964268 2.02668e-23)
(1.00826 -0.00948402 3.12422e-23)
(0.485742 -0.550366 -3.11258e-21)
(0.436978 -0.558245 -2.37512e-21)
(0.459195 -0.604657 3.53002e-21)
(0.0706907 -0.0679565 7.36908e-22)
(0.0422053 -0.0819748 -1.99682e-21)
(0.492047 0.567864 -1.57044e-20)
(0.443875 0.506242 -1.54891e-20)
(1.01114 -8.62481e-05 6.34839e-22)
(1.01164 -0.000359492 -6.43856e-22)
(-0.044144 0.410647 -1.21157e-20)
(-0.0217068 0.38001 -1.45007e-20)
(1.00054 -0.0724893 5.24827e-23)
(0.999239 -0.0684574 0)
(1.00332 -0.0689804 0)
(0.256712 -0.790652 -1.0413e-20)
(0.281558 -0.711968 -9.79469e-21)