/*--------------------------------*- C++ -*----------------------------------*\
| =========                 |                                                 |
| \\      /  F ield         | OpenFOAM: The Open Source CFD Toolbox           |
|  \\    /   O peration     | Version:  v2012                                 |
|   \\  /    A nd           | Website:  www.openfoam.com                      |
|    \\/     M anipulation  |                                                 |
\*---------------------------------------------------------------------------*/
FoamFile
{
    version     2.0;
    format      ascii;
    class       volScalarField::Internal;
    location    "800";
    object      V0;
}
// * * * * * * * * * * * * * * * * * * * * * * * * * * * * * * * * * * * * * //

dimensions      [0 3 0 0 0 0 0];


value           nonuniform List<scalar> 
9793
(
0.0334272
0.00144294
0.0892291
0.00114519
0.186501
0.00699001
0.00914786
0.00216157
0.0527706
0.00154629
0.161496
0.136422
0.1407
0.00495595
0.0889747
0.0379461
0.0166892
0.0864985
0.00167732
0.11886
0.103444
0.179901
0.00189873
0.00171511
0.00449375
0.0228249
0.140651
0.20361
0.098372
0.00864887
0.00129544
0.00616909
0.102262
0.101973
0.167514
0.0217429
0.0388315
0.0205774
0.00363616
0.0220514
0.0106077
0.00413939
0.00176048
0.175147
0.0819265
0.113152
0.00153425
0.170278
0.0768059
0.0974518
0.0281285
0.151562
0.0187167
0.173865
0.0170196
0.00197648
0.134718
0.0120131
0.0682233
0.179812
0.0179941
0.00547094
0.0927252
0.0274753
0.168181
0.0603955
0.00131353
0.0331111
0.038629
0.00337038
0.0469115
0.00431809
0.00185633
0.0166378
0.0049466
0.162005
0.0113847
0.00367768
0.0852372
0.156588
0.00738917
0.00200837
0.0146416
0.0320299
0.0369659
0.00587853
0.15896
0.0189403
0.00359549
0.0057805
0.0020533
0.00336407
0.00433466
0.0159394
0.00216691
0.0941884
0.00461073
0.0129328
0.028567
0.187407
0.00364432
0.0201768
0.0156425
0.0877291
0.00548287
0.00275576
0.0194782
0.125262
0.0863795
0.180381
0.143477
0.00201184
0.00182106
0.00118391
0.0518502
0.13009
0.0499146
0.0990461
0.00185309
0.0824055
0.00669099
0.0192457
0.00367397
0.0182098
0.0457616
0.0929046
0.0127534
0.00150598
0.0109394
0.0123157
0.0340617
0.102099
0.0362979
0.0366639
0.0295407
0.00596656
0.00638415
0.041118
0.178194
0.00888795
0.00193527
0.020617
0.0603885
0.018251
0.00147082
0.00356589
0.0956617
0.00210645
0.0850319
0.0825928
0.144158
0.00245562
0.0350312
0.116318
0.057646
0.00368513
0.0128417
0.0965754
0.00486748
0.0584348
0.0180312
0.0332392
0.0788416
0.0023349
0.0595367
0.00411526
0.0156334
0.0517477
0.134792
0.169313
0.0495913
0.00171435
0.00186486
0.00644646
0.12714
0.00794402
0.00588054
0.00231206
0.099518
0.0337795
0.00699772
0.00142879
0.0165737
0.0985438
0.100897
0.128121
0.00489946
0.00179781
0.00228926
0.0146009
0.0568269
0.00107128
0.00208501
0.0203634
0.0679407
0.0321197
0.00197699
0.105598
0.0664551
0.14806
0.0496795
0.0637258
0.0248646
0.0312871
0.00217886
0.0512858
0.0209564
0.0484005
0.0417163
0.00287907
0.0123666
0.00196976
0.109148
0.00259837
0.0295409
0.028972
0.0709266
0.00642402
0.136857
0.00880286
0.0109191
0.0796019
0.0019283
0.00813514
0.0124013
0.0918516
0.0170182
0.0114132
0.00866058
0.0064144
0.00240017
0.0124165
0.0316967
0.0225712
0.00232356
0.080741
0.00124815
0.00139932
0.102148
0.153873
0.00467607
0.0765468
0.116393
0.012377
0.0119619
0.0599347
0.027503
0.019261
0.0146411
0.0281758
0.0936922
0.012191
0.00176537
0.092586
0.00848068
0.142122
0.156845
0.133008
0.00199699
0.0765052
0.00317858
0.00312271
0.162516
0.125874
0.00421562
0.161562
0.155111
0.159722
0.00248739
0.00329662
0.0242967
0.00356177
0.011505
0.0158499
0.00149767
0.0523629
0.00123928
0.176244
0.0124575
0.00109339
0.00462615
0.0053793
0.0117282
0.0340312
0.0141588
0.0322061
0.0742165
0.0419102
0.00363209
0.017014
0.108994
0.170715
0.0862993
0.13572
0.0915501
0.000958618
0.126029
0.0826698
0.110191
0.116136
0.00136794
0.00311985
0.0055515
0.0301708
0.0170931
0.149859
0.0163031
0.00212917
0.0745863
0.0046288
0.027015
0.0762661
0.00124248
0.0155588
0.0998714
0.0121121
0.00124299
0.0454555
0.0106507
0.0855543
0.0423756
0.0106877
0.0140147
0.110249
0.0884949
0.0330209
0.00501238
0.00144877
0.0751816
0.119554
0.0636136
0.00144061
0.00162882
0.00200317
0.0802045
0.0125704
0.0106718
0.00211397
0.0105653
0.0790861
0.0742985
0.0715291
0.0144553
0.0554933
0.00156863
0.104891
0.106461
0.00918039
0.00130569
0.00255124
0.152403
0.00305821
0.0299514
0.00119794
0.00204946
0.00203
0.0313473
0.0167109
0.00614801
0.00201412
0.001764
0.0116771
0.199238
0.0212165
0.0706156
0.130584
0.0554587
0.137021
0.172335
0.00216862
0.154492
0.0122173
0.0214421
0.00758777
0.0668892
0.028309
0.00128477
0.00274261
0.00581952
0.0134735
0.104429
0.0288972
0.0911738
0.00416316
0.146277
0.00316102
0.00556395
0.00711017
0.00159493
0.0111279
0.144034
0.0872398
0.00561865
0.00421353
0.0556759
0.00176481
0.144945
0.137942
0.00143537
0.0975323
0.0112109
0.0789817
0.013223
0.110208
0.0506295
0.00823061
0.00407861
0.0217177
0.0191864
0.140621
0.0619453
0.00292309
0.0128016
0.100346
0.138412
0.0126605
0.0109849
0.0236516
0.00126539
0.141183
0.0766037
0.00351701
0.145683
0.00167496
0.00260005
0.095322
0.103848
0.0422762
0.162355
0.0737172
0.00419893
0.00719961
0.00379965
0.0135069
0.0450549
0.0168171
0.0196736
0.00195275
0.0175966
0.18777
0.0284188
0.00382826
0.051695
0.0452101
0.0477183
0.147699
0.111856
0.0695853
0.095507
0.158576
0.0371881
0.0285061
0.0107501
0.13749
0.00204407
0.0220442
0.00439567
0.00148096
0.0691323
0.0096913
0.00948223
0.0653002
0.121196
0.0528908
0.0076755
0.0101351
0.136293
0.115116
0.13912
0.00398137
0.00609086
0.00304573
0.167554
0.0429311
0.0128062
0.00136776
0.00383656
0.0176421
0.035182
0.00795928
0.00374087
0.00899773
0.0461672
0.0928305
0.00231052
0.087865
0.00556989
0.00510257
0.108607
0.00414647
0.0233374
0.00212845
0.0693283
0.00209516
0.00531561
0.0372993
0.00449433
0.0874205
0.00226395
0.12591
0.0851165
0.155875
0.0895417
0.00458322
0.0827696
0.0770573
0.0313062
0.0844147
0.0906118
0.0115335
0.0432703
0.0236663
0.106835
0.132096
0.00137668
0.0043688
0.0230644
0.00726557
0.0317741
0.0515827
0.0722511
0.0646092
0.00208516
0.0735694
0.166266
0.00129687
0.00300594
0.0141951
0.118643
0.170865
0.0445005
0.159416
0.00772248
0.0411125
0.0146028
0.0367073
0.00158855
0.153488
0.00123398
0.163199
0.00474294
0.0667728
0.0205956
0.00153691
0.131055
0.00361207
0.0740431
0.166221
0.0957344
0.00610447
0.00188726
0.0472465
0.0220394
0.0706881
0.00754718
0.116867
0.00958299
0.00228244
0.0156802
0.153673
0.0101801
0.132577
0.0397233
0.0702439
0.0120248
0.130308
0.00789102
0.142277
0.0561405
0.0205714
0.00620275
0.0071385
0.0803474
0.00126014
0.0820109
0.00562584
0.0644426
0.0573511
0.0933873
0.141615
0.169384
0.00341597
0.0320942
0.00358005
0.00701509
0.0116906
0.0166511
0.00144869
0.0347388
0.00626832
0.00127948
0.00454868
0.002335
0.00572439
0.00516872
0.0424436
0.00120346
0.0236818
0.0623944
0.00336961
0.136868
0.00312578
0.0167774
0.00718782
0.0115936
0.00144017
0.00185712
0.0238936
0.00809293
0.147607
0.00303132
0.0241422
0.0631936
0.0522331
0.0454827
0.0137953
0.00236918
0.0037196
0.00155225
0.0348297
0.0234515
0.00246162
0.00340989
0.0382744
0.0123646
0.030904
0.0014676
0.0107739
0.0945057
0.00456843
0.00443057
0.00172093
0.135412
0.0229773
0.00282251
0.0245607
0.00430068
0.0182727
0.0080068
0.0210881
0.033279
0.0625435
0.0666961
0.0119889
0.167531
0.0105647
0.00765581
0.00726063
0.156247
0.151381
0.0428978
0.0473107
0.146153
0.0665284
0.00743299
0.00792615
0.00388821
0.136925
0.00458455
0.127701
0.00135785
0.0214243
0.0102466
0.0113704
0.00560984
0.105473
0.112494
0.0101199
0.0749865
0.0613089
0.0148736
0.00342897
0.0477993
0.0122974
0.00485681
0.0250104
0.010907
0.00432017
0.0682134
0.0130324
0.0311687
0.0441895
0.0955835
0.00504879
0.00490494
0.00184277
0.0501464
0.0794669
0.0873376
0.0421923
0.0453639
0.0301445
0.00232104
0.0230309
0.14305
0.00385074
0.0227795
0.013485
0.067151
0.00114292
0.0366594
0.11771
0.00589286
0.00156945
0.0921654
0.0955867
0.0909378
0.0356447
0.102916
0.0218776
0.00558246
0.0496549
0.0105728
0.0397834
0.0581088
0.00668774
0.00205108
0.010382
0.12389
0.0697964
0.00972887
0.0174013
0.00856836
0.0962092
0.0704293
0.00134988
0.0164016
0.0219631
0.0109301
0.00696615
0.0804832
0.154722
0.0463595
0.00150897
0.165754
0.16897
0.00204528
0.011832
0.00512927
0.0111774
0.113829
0.00186518
0.123356
0.0700616
0.0598933
0.0185644
0.00114466
0.13938
0.0733078
0.0674655
0.0857971
0.124721
0.0458693
0.00200294
0.0161647
0.036912
0.142303
0.0173429
0.00885106
0.03257
0.0124794
0.160099
0.0831797
0.0364249
0.00168391
0.00718617
0.0427989
0.00158498
0.143577
0.0214329
0.00341499
0.00175797
0.0779196
0.136714
0.00189166
0.0127913
0.117581
0.154587
0.00793629
0.16539
0.00994605
0.101791
0.00220238
0.146505
0.151408
0.115881
0.0199925
0.0473899
0.0235038
0.0114734
0.00352929
0.0813703
0.115816
0.1479
0.0676251
0.0336302
0.0488749
0.018356
0.107867
0.0130351
0.00668497
0.0145582
0.0118536
0.140686
0.0605246
0.00121524
0.0112169
0.0920825
0.00860229
0.00127004
0.0573078
0.0733191
0.0904799
0.00711111
0.0146139
0.00181209
0.113569
0.0313643
0.135896
0.0363187
0.146675
0.00725478
0.0380947
0.00517069
0.132108
0.0090547
0.135002
0.0362914
0.0616843
0.0271473
0.00414937
0.00144057
0.0172002
0.00861556
0.0191955
0.0716307
0.00169238
0.00134114
0.0156262
0.063868
0.119489
0.00151134
0.0878128
0.000843721
0.077153
0.0266746
0.051647
0.114035
0.0694151
0.00426311
0.00179573
0.00105782
0.00404453
0.00134191
0.0902588
0.00633851
0.00244574
0.154016
0.05817
0.114851
0.00778075
0.0909907
0.00193893
0.0126349
0.00860908
0.0515622
0.00362237
0.0011798
0.0018286
0.018944
0.019693
0.131259
0.00237976
0.088339
0.00214779
0.00495141
0.00664107
0.00297691
0.00378828
0.0317067
0.038241
0.131639
0.0210228
0.00209314
0.00165541
0.107566
0.00132572
0.0354694
0.0106894
0.00381787
0.00414791
0.0046507
0.0683458
0.0189593
0.0227787
0.0406071
0.0380009
0.00713754
0.147445
0.00250717
0.12813
0.0763633
0.00849115
0.0116836
0.00818905
0.0339754
0.00210155
0.00258113
0.00413912
0.0118761
0.118912
0.0366666
0.10114
0.0648776
0.00352716
0.00971441
0.0346209
0.061578
0.0228726
0.00169045
0.0290601
0.0515367
0.00257449
0.096788
0.118969
0.0843744
0.0177532
0.0915136
0.034572
0.00127566
0.0105525
0.169781
0.00122373
0.00410203
0.106026
0.0417323
0.0187596
0.15008
0.124475
0.0826378
0.00278508
0.0161253
0.0423745
0.0174745
0.00994278
0.00320955
0.0462656
0.00699303
0.12513
0.0975971
0.002208
0.00741469
0.0110443
0.0515264
0.0847425
0.00147329
0.00368701
0.00525942
0.0013258
0.135555
0.0406357
0.080754
0.00106592
0.0250152
0.0100344
0.0262862
0.0614538
0.0397712
0.140084
0.119458
0.00882561
0.0976289
0.0065334
0.12546
0.0417712
0.0724146
0.0396158
0.00409266
0.00139318
0.0194914
0.00125256
0.118898
0.0123182
0.0316931
0.0046778
0.0629626
0.0735153
0.0144516
0.0143527
0.0125431
0.137551
0.00897734
0.00427506
0.00311701
0.0441038
0.00716092
0.00193479
0.0268454
0.00417414
0.00830317
0.0077406
0.0721357
0.0270944
0.0160968
0.0068394
0.118312
0.0184212
0.107748
0.144011
0.0457592
0.079465
0.040574
0.0760464
0.00217102
0.0248983
0.0358586
0.011299
0.0863315
0.0615684
0.0145651
0.00462181
0.00535578
0.0103051
0.0064101
0.135466
0.00201679
0.0202564
0.0014673
0.00973659
0.132903
0.050676
0.0333558
0.00195528
0.00151451
0.0105061
0.00605349
0.0917179
0.0599686
0.139412
0.135966
0.0012427
0.023786
0.0616077
0.0078944
0.00261308
0.00569633
0.0366531
0.0144093
0.0063001
0.0171494
0.024404
0.0023917
0.00539729
0.0520396
0.00431359
0.00724831
0.00795199
0.00311878
0.0195443
0.0371222
0.140798
0.0675761
0.0411342
0.0112803
0.00136374
0.0122967
0.162712
0.00542995
0.114233
0.00123282
0.00115934
0.117007
0.00131665
0.146258
0.0721612
0.0486036
0.00377455
0.00225597
0.0174684
0.0124218
0.0683718
0.00444145
0.149942
0.0186874
0.127216
0.0371709
0.0617929
0.00711299
0.0360802
0.00699864
0.0193046
0.128423
0.00285784
0.00647271
0.0244806
0.0247505
0.0329795
0.00209852
0.00907744
0.0545091
0.0807723
0.0390701
0.0329288
0.00113177
0.00286425
0.00575413
0.0258075
0.0931312
0.00259511
0.00907521
0.0509628
0.00205795
0.0943764
0.00806955
0.00146626
0.0922655
0.0012183
0.00187112
0.00655971
0.00124577
0.00700254
0.060714
0.0357586
0.00183837
0.00226174
0.0388347
0.00143525
0.0214758
0.0726201
0.108632
0.0370382
0.0185944
0.0265313
0.00306773
0.00136356
0.00380071
0.0120305
0.165998
0.00909116
0.0014731
0.0813047
0.00128717
0.00953476
0.13716
0.0272642
0.140229
0.0457501
0.0127689
0.00163425
0.0354534
0.101018
0.00146624
0.00394429
0.0148204
0.157817
0.0113463
0.072996
0.126894
0.00753693
0.00346912
0.121458
0.10318
0.00649284
0.00113129
0.00936307
0.0435691
0.00251472
0.0391353
0.1151
0.0446474
0.125808
0.0935899
0.101509
0.00205961
0.0158764
0.0195131
0.00177628
0.015777
0.00392757
0.00313136
0.00415015
0.00880528
0.0442362
0.144269
0.0438902
0.134948
0.00711104
0.111804
0.0041498
0.0200076
0.00763457
0.0977833
0.0020979
0.00891736
0.00178051
0.128595
0.00172359
0.0251603
0.00847319
0.00582994
0.0179329
0.111843
0.00284274
0.0150123
0.00374042
0.0918254
0.00746146
0.0992345
0.00168523
0.00275551
0.0108012
0.0727423
0.0942265
0.00432231
0.00130859
0.0215279
0.0723749
0.00827726
0.00622468
0.0157453
0.0168901
0.00446182
0.0584405
0.0117952
0.0683939
0.0212704
0.0856841
0.00309974
0.0778045
0.044192
0.00601265
0.00131961
0.129654
0.0116118
0.0260065
0.00595176
0.132998
0.00381709
0.0182692
0.00890555
0.0569936
0.133805
0.00155762
0.0255966
0.00178158
0.0134097
0.00127273
0.0310961
0.0676415
0.0803041
0.0250556
0.0193922
0.020047
0.00116018
0.0340522
0.0155537
0.0077824
0.117697
0.0594666
0.0161672
0.0060027
0.00110308
0.0614765
0.0019339
0.127116
0.00526922
0.00182585
0.0154524
0.0746936
0.0749565
0.013462
0.00361671
0.0301786
0.165525
0.0425561
0.0161842
0.0415608
0.00246715
0.00158661
0.00136221
0.121503
0.0228494
0.00246103
0.136577
0.00553453
0.0794831
0.00406785
0.0141731
0.0613999
0.00903637
0.00360979
0.0461312
0.0134062
0.0705514
0.00843308
0.00423555
0.00573767
0.00272053
0.0975146
0.0284891
0.00217193
0.0551191
0.00914373
0.0124707
0.0340166
0.0860009
0.00262245
0.0153405
0.00306132
0.0456954
0.00608235
0.044524
0.00250122
0.0209379
0.0278496
0.0133803
0.00203652
0.121002
0.143554
0.00475117
0.00399561
0.00157624
0.00275698
0.0257501
0.0496221
0.0731544
0.00433454
0.11875
0.00678517
0.00657296
0.0112913
0.133359
0.096259
0.0986333
0.0141451
0.0213534
0.00139146
0.0040429
0.00379165
0.00777479
0.116788
0.00149258
0.0433591
0.0165107
0.039115
0.014377
0.00761587
0.0676545
0.0905478
0.0168277
0.0974484
0.00989723
0.00427688
0.00134738
0.00532549
0.0242866
0.00389577
0.0733065
0.0520526
0.13885
0.00334993
0.00711983
0.0129434
0.0077742
0.00422504
0.0147538
0.00492298
0.0656657
0.130798
0.00190882
0.0602681
0.00428562
0.0946403
0.0713697
0.00689841
0.00308073
0.0701577
0.00596673
0.001415
0.00431209
0.0129774
0.0324383
0.0159313
0.0216528
0.00366036
0.0538487
0.00605432
0.00149877
0.0177656
0.0345083
0.094209
0.00223208
0.0692469
0.074543
0.0042234
0.0424041
0.0898478
0.00569129
0.018548
0.00387173
0.00387596
0.00135313
0.00193165
0.075606
0.0365539
0.0680273
0.139749
0.00438994
0.0505983
0.00201272
0.0426208
0.0017343
0.016916
0.0390027
0.102702
0.0282848
0.017839
0.070981
0.0872382
0.00629906
0.0803926
0.0191531
0.0388084
0.000910717
0.0152184
0.0924395
0.0466348
0.0137261
0.121418
0.107692
0.119062
0.134396
0.040621
0.0585678
0.0333139
0.0123134
0.010174
0.00111216
0.00164315
0.00173915
0.0903913
0.140726
0.0452785
0.107834
0.0718884
0.0858591
0.015602
0.0728087
0.125111
0.138546
0.0954034
0.0484106
0.00134144
0.0442589
0.114338
0.00203915
0.0183068
0.0975612
0.00215121
0.00119805
0.120136
0.00350315
0.00296457
0.0544605
0.00806681
0.0185896
0.114813
0.0198424
0.128458
0.0234964
0.140898
0.160591
0.0881217
0.00121228
0.0241118
0.00898415
0.140252
0.148044
0.00170952
0.0167867
0.120018
0.0316483
0.0316894
0.193104
0.00420551
0.0017564
0.00377771
0.00276274
0.00370379
0.014346
0.183131
0.00204668
0.0059294
0.0397251
0.012261
0.166028
0.0670651
0.145981
0.0110021
0.00674545
0.117665
0.099828
0.00816769
0.093107
0.00340171
0.0533457
0.00167561
0.00614112
0.00787931
0.0973028
0.0213982
0.0128473
0.0155665
0.0458016
0.0121132
0.00476262
0.00659563
0.122562
0.00224845
0.00238752
0.0894551
0.00397004
0.0096933
0.00285262
0.00713053
0.0713185
0.0216644
0.0180155
0.103059
0.0264921
0.116971
0.00950673
0.00346493
0.0163231
0.128703
0.00709884
0.00412284
0.00153991
0.0039384
0.0287015
0.0252424
0.0520106
0.0596441
0.0175003
0.00780424
0.00189518
0.0763316
0.00270952
0.147664
0.00265156
0.00640182
0.0063548
0.115569
0.0212064
0.0017416
0.00150979
0.0111836
0.00143009
0.0430075
0.00371378
0.122585
0.0749856
0.001453
0.0117541
0.0382616
0.097305
0.0070502
0.00172752
0.00328854
0.00670965
0.092618
0.115369
0.0925263
0.00148349
0.00156385
0.0799623
0.0156328
0.00589386
0.0089354
0.00449083
0.00191348
0.00134394
0.0105087
0.0802965
0.0448695
0.00224934
0.0897138
0.00833349
0.00173381
0.00210668
0.0205443
0.0124635
0.000848761
0.00193913
0.00157534
0.00186967
0.00379094
0.00371517
0.134303
0.155666
0.0749726
0.0350614
0.0017022
0.00662721
0.00262666
0.00235877
0.00740851
0.0559541
0.0158007
0.0710467
0.0212169
0.113201
0.0100857
0.00144768
0.00321611
0.139652
0.0946473
0.0262595
0.0129932
0.00541353
0.00182477
0.00931246
0.0527735
0.0050496
0.0914009
0.00436361
0.0110569
0.057129
0.0145287
0.00358517
0.00386883
0.00947313
0.0418489
0.0725094
0.0027397
0.0129837
0.096338
0.11929
0.145001
0.132558
0.00134657
0.0035735
0.00171265
0.00175552
0.00196601
0.0241106
0.0605395
0.0112648
0.0293993
0.0198327
0.00660419
0.129955
0.00197787
0.00150795
0.0107156
0.0118952
0.00182966
0.0321584
0.00177614
0.0160977
0.00200134
0.0816259
0.0374504
0.0109223
0.00126911
0.00776951
0.00625565
0.00144269
0.0113893
0.00551365
0.00786508
0.00144383
0.0381453
0.00256571
0.00120261
0.0139734
0.00703314
0.00668283
0.0239449
0.0143918
0.131922
0.0183174
0.0182296
0.0101734
0.11914
0.00392327
0.00368557
0.00199058
0.00150088
0.00158401
0.0136895
0.00167273
0.00367748
0.12386
0.016343
0.00935352
0.00434896
0.0233426
0.0172589
0.00319916
0.00433213
0.0908285
0.00345034
0.0902152
0.111672
0.000987753
0.0105011
0.00148292
0.00421128
0.00230311
0.00421434
0.115393
0.0185165
0.0398993
0.123927
0.00441531
0.0129832
0.0243322
0.0014667
0.00182361
0.143572
0.0263406
0.00180599
0.0400843
0.00371426
0.00748142
0.00244118
0.00256877
0.00380088
0.00340104
0.00124718
0.00179084
0.00284485
0.00189626
0.0271734
0.0182817
0.00550098
0.00599902
0.00548063
0.00443476
0.145316
0.139908
0.00169431
0.00168727
0.0276851
0.00149649
0.045951
0.00183894
0.00672869
0.00900279
0.117962
0.0018925
0.00174765
0.0229913
0.0165902
0.00198386
0.00183554
0.00153408
0.00153175
0.0569765
0.00314527
0.00191374
0.0106144
0.00477803
0.00366223
0.108053
0.0230464
0.00100663
0.00410815
0.0295583
0.15566
0.0023457
0.00482149
0.00179691
0.00854736
0.00180474
0.00358993
0.0753694
0.00214464
0.16699
0.0251988
0.0469691
0.142394
0.135768
0.0140209
0.00403063
0.0927668
0.00225387
0.0193191
0.00389497
0.00189494
0.00194391
0.121885
0.00633858
0.00174158
0.00170492
0.0185589
0.0570796
0.00315898
0.0044557
0.00431063
0.00681935
0.0194111
0.131695
0.00328258
0.00161203
0.016656
0.00252281
0.0114475
0.0476865
0.0033834
0.00682884
0.00223057
0.0590803
0.0350819
0.00194916
0.00154088
0.00236719
0.00704614
0.00240863
0.00192938
0.00384385
0.100764
0.0017061
0.00901168
0.07017
0.0919157
0.0677495
0.00136631
0.00718261
0.00268207
0.00226561
0.0259056
0.00360224
0.0204146
0.00163807
0.00277264
0.00237915
0.00146843
0.0017056
0.00321751
0.0752223
0.00823775
0.00726476
0.018671
0.00311248
0.00440605
0.00165057
0.0975438
0.03091
0.00568885
0.123236
0.0515081
0.0223792
0.00323884
0.0319103
0.037264
0.00228336
0.0174171
0.00661581
0.00221386
0.00403608
0.00398807
0.00443165
0.00171368
0.00151923
0.00593934
0.0189529
0.0419697
0.00176919
0.00682655
0.00620848
0.00663619
0.00610236
0.129777
0.00732418
0.0071165
0.0328153
0.137322
0.0352495
0.00379941
0.0833538
0.0859181
0.00941062
0.00200629
0.022054
0.00628172
0.00409845
0.0132581
0.011705
0.0650947
0.094881
0.0148789
0.0071918
0.0431175
0.0177277
0.00267014
0.00466658
0.0381601
0.00229423
0.125672
0.00375656
0.0215607
0.0210401
0.114807
0.00685201
0.0238191
0.00139643
0.00172858
0.00547225
0.119685
0.0518295
0.0040961
0.00384959
0.0573996
0.00491207
0.00223711
0.0105577
0.00507615
0.103616
0.0385523
0.0725482
0.00351641
0.013654
0.119857
0.00202128
0.0281236
0.00594459
0.00651758
0.0859089
0.00464425
0.0103256
0.0022925
0.0245432
0.0156334
0.0192504
0.0105854
0.113562
0.0910088
0.00763212
0.00417926
0.0100171
0.153393
0.00393763
0.0400556
0.0299545
0.138489
0.00428498
0.00182133
0.0337518
0.00246832
0.00389557
0.0088552
0.00146676
0.00383201
0.00165033
0.00374025
0.0195642
0.0172368
0.006254
0.0111834
0.135843
0.0122725
0.024655
0.00199194
0.113709
0.00429779
0.0776738
0.00204122
0.0073672
0.0387604
0.17789
0.00221443
0.00166064
0.00122176
0.00202232
0.112227
0.0193053
0.00151885
0.0262826
0.00353282
0.00993286
0.00394993
0.00317676
0.0284424
0.114819
0.00681008
0.00717155
0.0583107
0.0020816
0.00474694
0.10255
0.145057
0.152884
0.119997
0.00182605
0.0497882
0.0119455
0.116413
0.0468341
0.011797
0.0605991
0.00373546
0.00796487
0.0554828
0.0955928
0.00849204
0.0351373
0.00658886
0.00133956
0.00148879
0.00983152
0.00254232
0.010169
0.073479
0.00758427
0.00204448
0.01676
0.00261273
0.00774089
0.00504183
0.0148627
0.0332501
0.011602
0.0132501
0.00204929
0.11858
0.0494754
0.0590987
0.00424653
0.00379084
0.0146733
0.0187284
0.0616584
0.0333427
0.0105639
0.00511576
0.0592276
0.00881743
0.0027194
0.00413115
0.0758327
0.0540333
0.00223499
0.00125165
0.0706804
0.00425664
0.0250645
0.00648488
0.00938191
0.0852012
0.00150399
0.0244185
0.137603
0.00912697
0.00644491
0.071603
0.121046
0.00529736
0.0823885
0.10032
0.0160457
0.00924665
0.00838755
0.00120893
0.0257336
0.0210728
0.00319257
0.125277
0.00361641
0.0016987
0.0271866
0.0188818
0.00753715
0.0407494
0.00768385
0.112844
0.0115726
0.00180311
0.114621
0.00459006
0.00323798
0.049851
0.0364005
0.00204582
0.023849
0.00196175
0.00200572
0.102359
0.0134809
0.00169009
0.028329
0.0159915
0.0181696
0.0160661
0.0100906
0.00920208
0.0420317
0.00557293
0.00384349
0.00772167
0.0172876
0.121362
0.114547
0.137696
0.00855009
0.00760044
0.141474
0.0247749
0.00221395
0.00151127
0.143002
0.0173487
0.00155874
0.00408305
0.148211
0.00343112
0.0165408
0.00777798
0.0185417
0.0389774
0.0241774
0.0433463
0.0683993
0.00751232
0.133408
0.00706172
0.087816
0.00257005
0.0433184
0.0441761
0.0818291
0.0356942
0.106336
0.0137253
0.00154079
0.0130919
0.0165182
0.00804228
0.135336
0.0133108
0.0143211
0.0133678
0.00165358
0.122701
0.00321419
0.0672805
0.00168348
0.00229776
0.00107876
0.111234
0.0061385
0.0147182
0.00180827
0.00289927
0.0522507
0.0117486
0.00250636
0.0102542
0.0132191
0.0506706
0.0368206
0.0111131
0.00764008
0.053381
0.00551137
0.00980258
0.00321854
0.00466266
0.155657
0.0118113
0.0216776
0.0458962
0.00658609
0.051395
0.00151771
0.00341936
0.00902094
0.0164854
0.00346083
0.0503004
0.0073864
0.0126236
0.00304923
0.0387582
0.0502274
0.0252658
0.0220166
0.0157383
0.00713965
0.0188765
0.0102052
0.00284241
0.0710498
0.0177625
0.00449246
0.00500873
0.0583979
0.135739
0.0444316
0.0117448
0.0361709
0.0241375
0.0117326
0.0131261
0.0414365
0.00302174
0.0126409
0.0876884
0.0331795
0.00700489
0.00175599
0.0091488
0.0130153
0.00423471
0.00396037
0.0130151
0.0236698
0.0338057
0.0304127
0.0158339
0.00655369
0.0146245
0.0253108
0.0136066
0.00219417
0.0170237
0.0747782
0.00147835
0.00423841
0.0019546
0.0098845
0.0270385
0.0184397
0.0230292
0.0789076
0.0618996
0.0164336
0.0917498
0.0220283
0.155968
0.0381392
0.0325309
0.0737462
0.0104009
0.0239261
0.0728605
0.0657293
0.139837
0.0236003
0.0281195
0.00292374
0.0869814
0.0196257
0.00172275
0.0696684
0.0351615
0.0296117
0.0312014
0.00163384
0.00200107
0.00149107
0.00654164
0.0115864
0.00741795
0.0769798
0.010605
0.0573437
0.00488922
0.0411933
0.0194564
0.0316145
0.0134489
0.0937113
0.0189207
0.0984471
0.00804583
0.00624326
0.127855
0.00236185
0.0104225
0.0558496
0.0201738
0.0857128
0.0937089
0.00126273
0.0506446
0.0106522
0.00661459
0.1045
0.0940399
0.00999219
0.00202281
0.016879
0.0337335
0.00207505
0.0698875
0.0014262
0.0139038
0.00215454
0.0923441
0.0019891
0.0710789
0.0442419
0.00682086
0.0129753
0.00170197
0.00104616
0.00130065
0.00970092
0.0145443
0.00705737
0.136749
0.0147716
0.0501316
0.111054
0.004064
0.0879338
0.0744961
0.0946074
0.0677225
0.0185985
0.0143331
0.0019812
0.00294874
0.00300796
0.0334729
0.0131644
0.0410812
0.0307059
0.0104045
0.0543441
0.0703314
0.0781257
0.0393246
0.0208329
0.00322039
0.0191873
0.0135621
0.11398
0.00649229
0.00678573
0.00203665
0.00142746
0.0324184
0.0184364
0.101879
0.00137992
0.00340911
0.0707601
0.123895
0.0283022
0.12478
0.00886893
0.00590194
0.00160531
0.0408919
0.0175448
0.0517889
0.00143782
0.0148481
0.124056
0.0223506
0.00900066
0.0186238
0.0220369
0.023728
0.00891201
0.00746398
0.0662101
0.122721
0.0198331
0.0172198
0.0535812
0.00168066
0.0174883
0.0444522
0.110214
0.00130596
0.0190685
0.0557323
0.00199116
0.00243551
0.0119166
0.017482
0.0259775
0.00160624
0.125549
0.00141995
0.0104592
0.00278269
0.0193528
0.0329021
0.00144398
0.028404
0.0817736
0.127571
0.0173819
0.0997421
0.00422036
0.0439406
0.0506117
0.0233876
0.00217158
0.0321839
0.0383887
0.145536
0.00309502
0.00105395
0.00285742
0.00419836
0.0210235
0.0512148
0.0172073
0.0124835
0.00391457
0.0817062
0.0194505
0.0177162
0.0127973
0.0595053
0.00134051
0.00151723
0.0223503
0.138358
0.0322931
0.0696602
0.0676072
0.0691194
0.0978997
0.044321
0.00493591
0.114534
0.016831
0.0251904
0.0404375
0.00146735
0.0195791
0.0453454
0.0396133
0.00150047
0.107042
0.169703
0.024339
0.122218
0.0112047
0.0235054
0.0402405
0.00887615
0.0501643
0.021025
0.062165
0.00869904
0.0961235
0.0597661
0.00783954
0.0418147
0.00997285
0.018987
0.023012
0.0126292
0.118868
0.103465
0.0406192
0.00190532
0.0340603
0.0614304
0.00157116
0.0587998
0.098067
0.12493
0.00401362
0.0128083
0.0127064
0.0104215
0.0133612
0.00679462
0.032077
0.0233912
0.00722113
0.00148328
0.0431521
0.0208664
0.0702049
0.00395163
0.00707856
0.127622
0.0293195
0.00876692
0.0136613
0.0921624
0.00217699
0.0269494
0.00603835
0.00132131
0.0250765
0.0604837
0.0213531
0.0636116
0.0427843
0.119785
0.032933
0.0262536
0.139873
0.147116
0.0117102
0.045502
0.00819371
0.0611574
0.0167687
0.0636307
0.0244864
0.00195012
0.0527809
0.0562829
0.00422902
0.0421586
0.0602901
0.0103023
0.00198611
0.00111628
0.0329879
0.0302075
0.0232989
0.14865
0.11798
0.018677
0.00377406
0.116834
0.00763796
0.0411902
0.0879968
0.0669233
0.0944377
0.0370245
0.0138012
0.0189458
0.0253907
0.00200208
0.0307942
0.0177264
0.0736788
0.00650155
0.0172396
0.0118113
0.0408851
0.0145467
0.0222932
0.0506038
0.121022
0.0101181
0.00226127
0.00177516
0.0529852
0.0258095
0.00212495
0.0228132
0.00670638
0.00337631
0.00214473
0.0246808
0.040185
0.0145154
0.0186091
0.017777
0.00292706
0.00455729
0.00221774
0.0389353
0.140981
0.0534521
0.00818139
0.0587335
0.0897116
0.0183094
0.0595816
0.0609615
0.124311
0.00644456
0.0540343
0.110434
0.0947832
0.00137952
0.0923615
0.0374313
0.113699
0.0417028
0.125397
0.00529458
0.0156234
0.0048295
0.0790914
0.0207977
0.0141031
0.00142537
0.00167296
0.0415363
0.141187
0.00569636
0.00504458
0.0250748
0.00280651
0.060115
0.0175327
0.148372
0.00344795
0.0392464
0.0555215
0.0212996
0.0457526
0.0452988
0.040049
0.00302926
0.03055
0.026612
0.144148
0.0428957
0.0182672
0.0525392
0.093882
0.0249426
0.00323791
0.0362745
0.0573645
0.00254014
0.00532275
0.0574101
0.0116664
0.121367
0.032735
0.00823683
0.00799948
0.0350364
0.0369232
0.0349569
0.00323167
0.0246138
0.0513054
0.0692146
0.0332039
0.01825
0.0507215
0.0237674
0.0313132
0.0100255
0.00623508
0.0183639
0.00566961
0.000997052
0.027769
0.117735
0.00113206
0.00543286
0.159158
0.128664
0.0876324
0.0387967
0.0619119
0.0317963
0.0922409
0.0964801
0.00346317
0.0040058
0.0255672
0.0476022
0.00585761
0.0324445
0.1318
0.00161888
0.0354873
0.0715721
0.0990685
0.0926946
0.0235732
0.053843
0.0100838
0.0583138
0.0992685
0.043279
0.0189995
0.0185804
0.0938464
0.0182848
0.00209438
0.0210604
0.0913921
0.00576403
0.0754442
0.0572238
0.0779804
0.0235092
0.124261
0.00134844
0.0407382
0.00264404
0.00105885
0.0120881
0.0365191
0.041019
0.0551568
0.0709449
0.0172018
0.00792949
0.00805871
0.111957
0.0177175
0.00159797
0.0696122
0.00443607
0.0994489
0.0442028
0.0198404
0.00711606
0.116973
0.0252913
0.0196824
0.00673113
0.00305772
0.00270052
0.0568991
0.122758
0.0108313
0.0435845
0.0433536
0.0124415
0.0368462
0.0133514
0.112453
0.00527933
0.133141
0.00503456
0.00969542
0.00248531
0.00139019
0.0994591
0.0100974
0.00236643
0.00605791
0.0911658
0.0623511
0.00785499
0.0725713
0.0578782
0.0921691
0.0951432
0.00611927
0.0199521
0.00213257
0.124081
0.0206415
0.120862
0.0940927
0.0375125
0.00188116
0.00936707
0.0696343
0.0327175
0.0795244
0.00161898
0.153164
0.0453901
0.025702
0.0422609
0.00958619
0.124147
0.00175547
0.0940622
0.0412937
0.0394064
0.0621001
0.0788011
0.0989221
0.001642
0.10863
0.0472296
0.00591957
0.0612408
0.0946278
0.119394
0.118876
0.0147249
0.0620919
0.0854029
0.00115829
0.0356347
0.153138
0.0286845
0.0807915
0.0029521
0.0217256
0.0335932
0.0616308
0.0257592
0.0956976
0.004888
0.124505
0.0944831
0.00205588
0.141127
0.00975624
0.0305585
0.110621
0.0863127
0.0116878
0.0137898
0.0638835
0.142974
0.0341143
0.068996
0.102609
0.0385889
0.056229
0.0663896
0.0609992
0.00800435
0.109037
0.0747523
0.00219281
0.0460193
0.0220256
0.0077286
0.0041726
0.0765434
0.0416811
0.0840716
0.0935259
0.0213266
0.0141479
0.024117
0.0264294
0.0792173
0.0347796
0.0590002
0.100905
0.0333665
0.00920977
0.0330277
0.0328102
0.123582
0.0872584
0.149888
0.0045052
0.0398494
0.10679
0.00139913
0.0434622
0.00176179
0.0877953
0.0667387
0.0796883
0.00428827
0.058744
0.0289604
0.0384654
0.0928428
0.0820204
0.0979179
0.0552916
0.0313864
0.0639017
0.0102347
0.141017
0.0182139
0.0846593
0.0998482
0.0337374
0.00377768
0.123344
0.101443
0.0243915
0.0510341
0.031014
0.00607768
0.0234774