/*--------------------------------*- C++ -*----------------------------------*\
| =========                 |                                                 |
| \\      /  F ield         | OpenFOAM: The Open Source CFD Toolbox           |
|  \\    /   O peration     | Version:  v2012                                 |
|   \\  /    A nd           | Website:  www.openfoam.com                      |
|    \\/     M anipulation  |                                                 |
\*---------------------------------------------------------------------------*/
FoamFile
{
    version     2.0;
    format      ascii;
    class       volVectorField;
    location    "950";
    object      cellDisplacement;
}
// * * * * * * * * * * * * * * * * * * * * * * * * * * * * * * * * * * * * * //

dimensions      [0 1 0 0 0 0 0];


internalField   nonuniform List<vector> 
9793
(
(0 0.000169001 0)
(0 -2.09365e-05 0)
(0 0.000355362 0)
(0 -2.08863e-05 0)
(0 7.46818e-05 0)
(0 -9.87138e-06 0)
(0 -1.35065e-05 0)
(0 -2.08312e-05 0)
(0 0.000138549 0)
(0 -2.09373e-05 0)
(0 0.000121573 0)
(0 0.000133727 0)
(0 0.000251163 0)
(0 -5.54751e-06 0)
(0 0.000194215 0)
(0 0.00019931 0)
(0 1.1551e-05 0)
(0 0.000332928 0)
(0 -2.07677e-05 0)
(0 0.00018877 0)
(0 0.00024835 0)
(0 1.40155e-05 0)
(0 -2.08684e-05 0)
(0 -2.08255e-05 0)
(0 -4.64286e-06 0)
(0 4.25357e-05 0)
(0 0.000207093 0)
(0 2.31608e-05 0)
(0 0.000186294 0)
(0 -7.77002e-06 0)
(0 -2.0935e-05 0)
(0 -1.54553e-05 0)
(0 0.000367804 0)
(0 0.000319502 0)
(0 1.31799e-05 0)
(0 8.4067e-05 0)
(0 0.000202559 0)
(0 7.44674e-05 0)
(0 -1.75799e-05 0)
(0 3.80117e-05 0)
(0 -6.31207e-06 0)
(0 -1.82232e-05 0)
(0 -2.07274e-05 0)
(0 1.62994e-05 0)
(0 0.000426669 0)
(0 0.000409046 0)
(0 -2.09248e-05 0)
(0 2.34764e-05 0)
(0 0.000295401 0)
(0 0.000337732 0)
(0 8.87492e-05 0)
(0 1.52027e-05 0)
(0 4.11293e-05 0)
(0 4.65152e-05 0)
(0 6.18214e-06 0)
(0 -2.0844e-05 0)
(0 0.000243601 0)
(0 2.30722e-05 0)
(0 0.000288006 0)
(0 1.25538e-05 0)
(0 4.93269e-05 0)
(0 -1.80809e-05 0)
(0 0.000355544 0)
(0 0.000103838 0)
(0 3.70095e-05 0)
(0 0.000144615 0)
(0 -2.09373e-05 0)
(0 9.14821e-05 0)
(0 0.000210205 0)
(0 -1.88901e-05 0)
(0 0.000264343 0)
(0 -1.76165e-05 0)
(0 -2.08597e-05 0)
(0 0.000108241 0)
(0 -1.46925e-05 0)
(0 4.73423e-05 0)
(0 -8.97527e-06 0)
(0 -1.98256e-05 0)
(0 0.000386518 0)
(0 4.52009e-05 0)
(0 -1.02324e-05 0)
(0 -2.06998e-05 0)
(0 1.52659e-05 0)
(0 6.30053e-05 0)
(0 0.00020079 0)
(0 -1.63907e-05 0)
(0 6.02678e-05 0)
(0 6.5e-05 0)
(0 -1.68664e-05 0)
(0 -1.781e-05 0)
(0 -2.07017e-05 0)
(0 -1.93167e-05 0)
(0 -1.93665e-05 0)
(0 7.57677e-06 0)
(0 -2.06984e-05 0)
(0 0.000303842 0)
(0 -1.52615e-05 0)
(0 8.24196e-06 0)
(0 6.31601e-05 0)
(0 5.63916e-05 0)
(0 -1.72246e-05 0)
(0 4.39548e-05 0)
(0 0.00012103 0)
(0 0.000428624 0)
(0 -7.50478e-06 0)
(0 -2.01546e-05 0)
(0 0.000114758 0)
(0 0.000196405 0)
(0 0.000392178 0)
(0 2.84016e-05 0)
(0 4.66732e-05 0)
(0 -2.08096e-05 0)
(0 -2.09397e-05 0)
(0 -2.09367e-05 0)
(0 0.000263857 0)
(0 0.000263472 0)
(0 0.000282691 0)
(0 0.000389916 0)
(0 -2.07423e-05 0)
(0 0.00042951 0)
(0 -5.29522e-06 0)
(0 5.79817e-05 0)
(0 -1.53438e-05 0)
(0 4.57562e-05 0)
(0 0.000193197 0)
(0 0.000428443 0)
(0 5.00144e-06 0)
(0 -2.09332e-05 0)
(0 5.03953e-05 0)
(0 5.42681e-05 0)
(0 0.000149239 0)
(0 0.000236265 0)
(0 0.000171295 0)
(0 0.000107137 0)
(0 8.7343e-05 0)
(0 -1.63017e-05 0)
(0 -1.15288e-05 0)
(0 0.000272019 0)
(0 3.52659e-05 0)
(0 9.59418e-06 0)
(0 -2.06054e-05 0)
(0 8.33708e-05 0)
(0 0.000231441 0)
(0 7.26397e-05 0)
(0 -2.09239e-05 0)
(0 -2.00081e-05 0)
(0 0.000437879 0)
(0 -1.61159e-05 0)
(0 0.000237728 0)
(0 0.000437144 0)
(0 0.000269443 0)
(0 -2.08717e-05 0)
(0 6.83317e-05 0)
(0 0.000210587 0)
(0 0.000356153 0)
(0 -1.95789e-05 0)
(0 9.77155e-06 0)
(0 0.000349241 0)
(0 -1.60205e-05 0)
(0 0.000286739 0)
(0 6.51597e-05 0)
(0 0.000141225 0)
(0 0.000243144 0)
(0 -2.04747e-05 0)
(0 0.000215437 0)
(0 -1.94999e-05 0)
(0 0.000123496 0)
(0 0.000191111 0)
(0 0.000179309 0)
(0 0.000103158 0)
(0 0.000233064 0)
(0 -2.09489e-05 0)
(0 -2.09042e-05 0)
(0 1.27149e-06 0)
(0 0.000252809 0)
(0 -8.21104e-06 0)
(0 -1.81126e-05 0)
(0 -2.07466e-05 0)
(0 0.000376795 0)
(0 9.98771e-05 0)
(0 -6.35216e-06 0)
(0 -2.09273e-05 0)
(0 5.73354e-05 0)
(0 0.000415912 0)
(0 0.000370718 0)
(0 0.00018751 0)
(0 -1.44437e-05 0)
(0 -2.08835e-05 0)
(0 -2.08613e-05 0)
(0 0.000113335 0)
(0 0.000153099 0)
(0 -2.09282e-05 0)
(0 -2.04579e-05 0)
(0 6.11625e-05 0)
(0 0.000318528 0)
(0 8.41388e-05 0)
(0 -2.08884e-05 0)
(0 0.000150842 0)
(0 0.000328575 0)
(0 0.000146517 0)
(0 0.000246148 0)
(0 0.000269686 0)
(0 9.11066e-05 0)
(0 0.000143848 0)
(0 -2.06417e-05 0)
(0 0.000333691 0)
(0 4.83504e-05 0)
(0 0.00019587 0)
(0 0.000150681 0)
(0 -2.0519e-05 0)
(0 1.14265e-05 0)
(0 -2.05836e-05 0)
(0 0.00013071 0)
(0 -1.92294e-05 0)
(0 6.11462e-05 0)
(0 0.000207842 0)
(0 0.000191322 0)
(0 -1.59891e-05 0)
(0 0.000252277 0)
(0 -1.0176e-05 0)
(0 6.33725e-06 0)
(0 0.000264384 0)
(0 -2.07747e-05 0)
(0 1.8848e-05 0)
(0 8.99014e-06 0)
(0 0.000290765 0)
(0 3.5705e-05 0)
(0 4.74072e-05 0)
(0 -9.92059e-06 0)
(0 -1.07784e-05 0)
(0 -2.04253e-05 0)
(0 5.02223e-05 0)
(0 0.000204684 0)
(0 0.000100332 0)
(0 -2.03936e-05 0)
(0 0.000338137 0)
(0 -2.09037e-05 0)
(0 -2.09356e-05 0)
(0 0.000144814 0)
(0 0.000129832 0)
(0 -1.76248e-05 0)
(0 0.000279857 0)
(0 4.58215e-05 0)
(0 2.44721e-05 0)
(0 1.66527e-05 0)
(0 0.000146702 0)
(0 0.000100587 0)
(0 4.54734e-05 0)
(0 -2.43627e-06 0)
(0 0.000113502 0)
(0 0.000382836 0)
(0 -1.5775e-06 0)
(0 -2.09077e-05 0)
(0 0.000259632 0)
(0 7.42867e-06 0)
(0 5.5301e-05 0)
(0 0.000154215 0)
(0 2.55471e-05 0)
(0 -2.08287e-05 0)
(0 0.000446544 0)
(0 -1.97598e-05 0)
(0 -1.66279e-05 0)
(0 0.000131063 0)
(0 0.000238451 0)
(0 -1.923e-05 0)
(0 1.68129e-05 0)
(0 8.77468e-05 0)
(0 1.70929e-05 0)
(0 -1.73028e-05 0)
(0 -2.0317e-05 0)
(0 5.60224e-05 0)
(0 -2.02076e-05 0)
(0 2.06866e-05 0)
(0 0.00011626 0)
(0 -2.0906e-05 0)
(0 0.000183236 0)
(0 -2.09358e-05 0)
(0 5.13688e-05 0)
(0 5.26233e-05 0)
(0 -2.09807e-05 0)
(0 -1.29208e-05 0)
(0 -7.04535e-06 0)
(0 4.73928e-05 0)
(0 0.000154661 0)
(0 1.73091e-05 0)
(0 0.000146814 0)
(0 0.000331778 0)
(0 0.000216553 0)
(0 -2.03619e-05 0)
(0 3.73878e-05 0)
(0 0.000226747 0)
(0 5.02842e-06 0)
(0 0.000136761 0)
(0 4.17775e-05 0)
(0 0.000254162 0)
(0 -2.08103e-05 0)
(0 0.000218545 0)
(0 0.000196396 0)
(0 4.26974e-05 0)
(0 0.000247254 0)
(0 -2.09243e-05 0)
(0 -1.99582e-05 0)
(0 -1.34509e-05 0)
(0 0.000127394 0)
(0 6.61746e-05 0)
(0 3.65828e-05 0)
(0 0.000115801 0)
(0 -2.08916e-05 0)
(0 0.000435063 0)
(0 -1.64195e-05 0)
(0 9.96672e-05 0)
(0 0.000420102 0)
(0 -2.09373e-05 0)
(0 0.000109243 0)
(0 0.000360642 0)
(0 -3.57548e-06 0)
(0 -2.09346e-05 0)
(0 0.0001711 0)
(0 1.16084e-05 0)
(0 0.00019615 0)
(0 0.000164849 0)
(0 5.68848e-05 0)
(0 -6.10029e-06 0)
(0 0.000321074 0)
(0 0.000416839 0)
(0 0.000135809 0)
(0 -1.84937e-05 0)
(0 -2.09354e-05 0)
(0 0.0003618 0)
(0 0.000203978 0)
(0 0.000232635 0)
(0 -2.09578e-05 0)
(0 -2.0927e-05 0)
(0 -2.0876e-05 0)
(0 0.000323835 0)
(0 -7.71093e-06 0)
(0 1.00231e-05 0)
(0 -2.08326e-05 0)
(0 2.18972e-05 0)
(0 0.000372658 0)
(0 0.000343319 0)
(0 0.000228845 0)
(0 2.10765e-05 0)
(0 0.000156378 0)
(0 -2.08184e-05 0)
(0 0.000317913 0)
(0 0.000222773 0)
(0 5.63484e-05 0)
(0 -2.07806e-05 0)
(0 -1.92536e-05 0)
(0 4.16731e-05 0)
(0 -1.79645e-05 0)
(0 4.92814e-05 0)
(0 -2.10125e-05 0)
(0 -2.08106e-05 0)
(0 -2.05689e-05 0)
(0 6.94772e-05 0)
(0 3.39644e-05 0)
(0 -1.24438e-05 0)
(0 -2.05817e-05 0)
(0 -2.07954e-05 0)
(0 5.88698e-05 0)
(0 2.54943e-05 0)
(0 5.20366e-05 0)
(0 0.000309079 0)
(0 0.000209956 0)
(0 0.000163932 0)
(0 0.00021032 0)
(0 1.71652e-06 0)
(0 -2.07842e-05 0)
(0 0.000118363 0)
(0 1.58594e-06 0)
(0 4.44828e-05 0)
(0 -2.87726e-06 0)
(0 0.000381857 0)
(0 5.88845e-05 0)
(0 -2.0924e-05 0)
(0 -2.05087e-05 0)
(0 2.19318e-06 0)
(0 2.40947e-05 0)
(0 0.000223749 0)
(0 6.5583e-05 0)
(0 0.000353324 0)
(0 -1.93252e-05 0)
(0 5.68191e-05 0)
(0 -1.89594e-05 0)
(0 -1.90682e-05 0)
(0 -1.37647e-05 0)
(0 -2.0895e-05 0)
(0 6.44711e-05 0)
(0 0.000106762 0)
(0 0.000288509 0)
(0 -1.19784e-05 0)
(0 -1.92112e-05 0)
(0 0.000341367 0)
(0 -2.08529e-05 0)
(0 0.000115667 0)
(0 0.000178009 0)
(0 -2.09792e-05 0)
(0 0.000124692 0)
(0 1.96592e-05 0)
(0 0.000328676 0)
(0 0.000118372 0)
(0 0.000306701 0)
(0 0.000221666 0)
(0 3.91513e-05 0)
(0 -1.69223e-05 0)
(0 0.000168508 0)
(0 5.74318e-05 0)
(0 0.000138314 0)
(0 0.000241802 0)
(0 -1.54086e-05 0)
(0 7.26068e-06 0)
(0 0.000287217 0)
(0 0.000177166 0)
(0 5.47259e-06 0)
(0 1.13327e-05 0)
(0 0.000179553 0)
(0 -2.09274e-05 0)
(0 0.000160322 0)
(0 0.000320693 0)
(0 -2.04192e-05 0)
(0 0.000132623 0)
(0 -2.08874e-05 0)
(0 -2.06747e-05 0)
(0 0.000381077 0)
(0 0.000350098 0)
(0 0.00021485 0)
(0 0.000122182 0)
(0 0.000238718 0)
(0 -1.64282e-05 0)
(0 -1.09379e-05 0)
(0 -1.95895e-05 0)
(0 4.13115e-05 0)
(0 0.000245367 0)
(0 4.23566e-05 0)
(0 8.14782e-05 0)
(0 -2.06458e-05 0)
(0 5.11917e-05 0)
(0 6.64228e-05 0)
(0 9.31082e-05 0)
(0 -1.96947e-05 0)
(0 0.000253323 0)
(0 0.000282279 0)
(0 0.000256104 0)
(0 5.18645e-05 0)
(0 0.000295191 0)
(0 0.000192405 0)
(0 0.000397939 0)
(0 9.22092e-05 0)
(0 9.57253e-05 0)
(0 0.000140718 0)
(0 2.72968e-05 0)
(0 2.29257e-05 0)
(0 -2.08568e-05 0)
(0 5.09247e-05 0)
(0 -1.9459e-05 0)
(0 -2.09167e-05 0)
(0 0.000321389 0)
(0 5.88343e-05 0)
(0 -1.24176e-05 0)
(0 0.000309117 0)
(0 7.43428e-05 0)
(0 0.000219079 0)
(0 3.34808e-06 0)
(0 1.7744e-05 0)
(0 6.89048e-05 0)
(0 0.000287881 0)
(0 0.000153522 0)
(0 -1.28007e-05 0)
(0 -1.86536e-05 0)
(0 -1.98995e-05 0)
(0 3.55911e-05 0)
(0 0.000362833 0)
(0 1.58698e-05 0)
(0 -2.09284e-05 0)
(0 -1.41632e-05 0)
(0 8.89422e-05 0)
(0 0.000175498 0)
(0 1.09895e-05 0)
(0 -1.92156e-05 0)
(0 9.98043e-06 0)
(0 0.000156011 0)
(0 0.000229349 0)
(0 -2.04877e-05 0)
(0 0.00031134 0)
(0 -1.80903e-05 0)
(0 -7.34175e-06 0)
(0 0.000288466 0)
(0 -2.00817e-05 0)
(0 5.64982e-05 0)
(0 -1.92411e-05 0)
(0 0.000244482 0)
(0 -2.06796e-05 0)
(0 -1.55019e-05 0)
(0 0.000198659 0)
(0 -1.90091e-05 0)
(0 0.000307942 0)
(0 -2.07681e-05 0)
(0 0.000321123 0)
(0 0.000285311 0)
(0 9.32664e-05 0)
(0 0.000342144 0)
(0 -1.52849e-05 0)
(0 0.000298501 0)
(0 0.000279027 0)
(0 0.000124035 0)
(0 0.000314827 0)
(0 0.000231528 0)
(0 -5.50346e-06 0)
(0 9.32901e-05 0)
(0 9.71498e-05 0)
(0 0.000143469 0)
(0 0.000137123 0)
(0 -2.09224e-05 0)
(0 -1.54056e-05 0)
(0 9.51676e-05 0)
(0 4.25745e-06 0)
(0 0.000143547 0)
(0 0.000142017 0)
(0 0.000451889 0)
(0 0.000242532 0)
(0 -2.08442e-05 0)
(0 0.000285873 0)
(0 1.07772e-05 0)
(0 -2.09422e-05 0)
(0 -1.82835e-05 0)
(0 -2.03504e-06 0)
(0 0.000247824 0)
(0 2.65837e-05 0)
(0 0.000164875 0)
(0 8.37776e-05 0)
(0 7.36919e-06 0)
(0 0.000165306 0)
(0 0.00011003 0)
(0 0.000187215 0)
(0 -2.08294e-05 0)
(0 5.601e-05 0)
(0 -2.09327e-05 0)
(0 2.24698e-06 0)
(0 -1.8861e-05 0)
(0 0.000316745 0)
(0 9.93258e-05 0)
(0 -2.09271e-05 0)
(0 0.00030679 0)
(0 -1.76322e-05 0)
(0 0.000295999 0)
(0 4.00849e-06 0)
(0 0.000248178 0)
(0 -6.62339e-06 0)
(0 -2.06909e-05 0)
(0 0.000221341 0)
(0 5.32048e-05 0)
(0 0.000300641 0)
(0 1.47907e-05 0)
(0 2.63546e-05 0)
(0 -9.48118e-07 0)
(0 -2.0529e-05 0)
(0 7.14981e-05 0)
(0 2.08734e-05 0)
(0 -9.27672e-06 0)
(0 2.49404e-05 0)
(0 0.000164545 0)
(0 0.000219992 0)
(0 3.27034e-05 0)
(0 0.000103004 0)
(0 1.93668e-05 0)
(0 0.000136271 0)
(0 0.000149411 0)
(0 0.000110976 0)
(0 -1.65029e-05 0)
(0 -2.44146e-06 0)
(0 0.00019836 0)
(0 -2.09304e-05 0)
(0 0.000284441 0)
(0 -1.90782e-05 0)
(0 0.000330704 0)
(0 0.000204639 0)
(0 0.000306751 0)
(0 0.000142419 0)
(0 5.18172e-05 0)
(0 -1.94313e-05 0)
(0 0.000191693 0)
(0 -1.82263e-05 0)
(0 -8.85324e-06 0)
(0 4.53369e-06 0)
(0 3.67611e-06 0)
(0 -2.09608e-05 0)
(0 0.000102831 0)
(0 4.51722e-06 0)
(0 -2.08575e-05 0)
(0 -1.926e-05 0)
(0 -2.02319e-05 0)
(0 -5.88978e-06 0)
(0 -1.85645e-05 0)
(0 0.000168215 0)
(0 -2.09375e-05 0)
(0 0.000117821 0)
(0 0.000207448 0)
(0 -1.94998e-05 0)
(0 2.19877e-05 0)
(0 -2.03876e-05 0)
(0 7.14307e-07 0)
(0 -2.19908e-06 0)
(0 4.55576e-05 0)
(0 -2.0675e-05 0)
(0 -2.08767e-05 0)
(0 0.000110366 0)
(0 3.47955e-07 0)
(0 0.00013526 0)
(0 -2.03044e-05 0)
(0 0.000153291 0)
(0 0.000320575 0)
(0 0.000164216 0)
(0 0.000300175 0)
(0 9.34173e-06 0)
(0 -2.02107e-05 0)
(0 -1.99531e-05 0)
(0 -2.09002e-05 0)
(0 0.000104655 0)
(0 7.75565e-05 0)
(0 -1.88506e-05 0)
(0 -2.01468e-05 0)
(0 0.00017297 0)
(0 2.36475e-05 0)
(0 0.000142391 0)
(0 -2.1016e-05 0)
(0 4.44077e-05 0)
(0 0.000381475 0)
(0 -1.33095e-05 0)
(0 -2.01781e-05 0)
(0 -2.08819e-05 0)
(0 3.11645e-05 0)
(0 4.56509e-05 0)
(0 -1.90239e-05 0)
(0 9.86007e-05 0)
(0 -1.46917e-05 0)
(0 9.08051e-05 0)
(0 -5.60795e-08 0)
(0 4.22868e-05 0)
(0 9.59133e-05 0)
(0 0.000168638 0)
(0 0.000356607 0)
(0 5.87594e-05 0)
(0 2.45789e-05 0)
(0 5.79129e-05 0)
(0 -9.22649e-06 0)
(0 -1.41476e-05 0)
(0 1.07575e-05 0)
(0 4.88307e-05 0)
(0 0.000255098 0)
(0 0.000334974 0)
(0 2.21969e-05 0)
(0 0.000284856 0)
(0 -7.84965e-06 0)
(0 6.86059e-06 0)
(0 -5.65196e-06 0)
(0 1.68532e-05 0)
(0 -1.91082e-05 0)
(0 0.000239221 0)
(0 -2.08974e-05 0)
(0 6.90932e-05 0)
(0 -7.81219e-06 0)
(0 1.24559e-05 0)
(0 -1.50151e-05 0)
(0 0.000114995 0)
(0 0.000277539 0)
(0 -7.57258e-06 0)
(0 0.00031118 0)
(0 0.000169547 0)
(0 1.491e-05 0)
(0 -1.54713e-05 0)
(0 0.000273931 0)
(0 5.23946e-05 0)
(0 -1.40645e-05 0)
(0 0.00010695 0)
(0 5.07773e-05 0)
(0 -1.37813e-05 0)
(0 0.000188694 0)
(0 7.20924e-06 0)
(0 0.000190007 0)
(0 0.000155766 0)
(0 0.000242119 0)
(0 -1.76932e-05 0)
(0 -1.28172e-05 0)
(0 -2.08449e-05 0)
(0 0.000243338 0)
(0 0.00042338 0)
(0 0.000210935 0)
(0 0.000296301 0)
(0 9.51852e-05 0)
(0 6.60362e-05 0)
(0 -2.03684e-05 0)
(0 7.47185e-05 0)
(0 0.000100821 0)
(0 -1.87836e-05 0)
(0 8.64898e-05 0)
(0 6.8165e-06 0)
(0 0.000176404 0)
(0 -2.09385e-05 0)
(0 0.000163425 0)
(0 7.63479e-05 0)
(0 -1.41889e-05 0)
(0 -2.09132e-05 0)
(0 0.000292559 0)
(0 0.000399027 0)
(0 0.000358014 0)
(0 0.000210232 0)
(0 0.000106755 0)
(0 0.000103344 0)
(0 -1.38177e-05 0)
(0 0.000137431 0)
(0 3.51539e-05 0)
(0 0.000175875 0)
(0 0.000180878 0)
(0 -4.81134e-06 0)
(0 -2.08429e-05 0)
(0 1.99962e-05 0)
(0 0.000259473 0)
(0 0.000303231 0)
(0 3.36191e-05 0)
(0 5.82642e-05 0)
(0 4.71214e-05 0)
(0 0.000304964 0)
(0 0.000293601 0)
(0 -2.09367e-05 0)
(0 0.000117676 0)
(0 4.05541e-05 0)
(0 2.22109e-05 0)
(0 -1.28529e-05 0)
(0 0.000286821 0)
(0 9.35823e-06 0)
(0 0.000158638 0)
(0 -2.07308e-05 0)
(0 1.4274e-05 0)
(0 2.29133e-06 0)
(0 -2.04107e-05 0)
(0 5.02553e-05 0)
(0 -1.68872e-05 0)
(0 1.55843e-05 0)
(0 0.000240967 0)
(0 -2.08255e-05 0)
(0 4.29339e-05 0)
(0 0.000322999 0)
(0 0.000162021 0)
(0 1.31247e-05 0)
(0 -2.09145e-05 0)
(0 0.000157161 0)
(0 0.000445066 0)
(0 0.000306894 0)
(0 0.000296464 0)
(0 0.000242334 0)
(0 0.00016416 0)
(0 -2.03426e-05 0)
(0 9.84856e-06 0)
(0 0.000102776 0)
(0 0.000187041 0)
(0 9.52125e-06 0)
(0 4.95214e-06 0)
(0 0.00021056 0)
(0 4.12065e-05 0)
(0 4.25986e-06 0)
(0 0.000211615 0)
(0 7.63307e-05 0)
(0 -2.08362e-05 0)
(0 3.17249e-05 0)
(0 0.000255869 0)
(0 -2.08649e-05 0)
(0 0.000144678 0)
(0 4.68873e-05 0)
(0 -1.9855e-05 0)
(0 -2.09218e-05 0)
(0 0.000197668 0)
(0 0.000141313 0)
(0 -2.02147e-05 0)
(0 3.82025e-05 0)
(0 7.74739e-05 0)
(0 7.75002e-05 0)
(0 1.54587e-05 0)
(0 5.83281e-06 0)
(0 -6.51943e-06 0)
(0 0.00035641 0)
(0 -2.05435e-05 0)
(0 7.76907e-05 0)
(0 6.55623e-06 0)
(0 0.000275569 0)
(0 2.68108e-05 0)
(0 0.000342883 0)
(0 6.27811e-05 0)
(0 6.31973e-05 0)
(0 -1.87775e-05 0)
(0 0.000223674 0)
(0 0.000287946 0)
(0 1.44382e-05 0)
(0 0.000281052 0)
(0 0.000176547 0)
(0 0.000264495 0)
(0 4.00978e-05 0)
(0 0.000303859 0)
(0 5.88041e-05 0)
(0 5.24771e-06 0)
(0 2.33088e-05 0)
(0 1.14913e-05 0)
(0 0.000154832 0)
(0 0.000223408 0)
(0 -2.09362e-05 0)
(0 5.7386e-05 0)
(0 0.000242621 0)
(0 3.90288e-05 0)
(0 -2.09344e-05 0)
(0 0.000299205 0)
(0 0.000439103 0)
(0 0.000265866 0)
(0 -1.3363e-05 0)
(0 6.00728e-05 0)
(0 -2.09278e-05 0)
(0 0.000216387 0)
(0 4.975e-05 0)
(0 0.000161182 0)
(0 0.000155775 0)
(0 5.56688e-06 0)
(0 -1.52015e-05 0)
(0 0.000180888 0)
(0 -1.6565e-05 0)
(0 0.000238656 0)
(0 -1.36234e-05 0)
(0 0.000220024 0)
(0 8.97974e-05 0)
(0 0.000314555 0)
(0 0.000191104 0)
(0 -1.17359e-05 0)
(0 -2.09409e-05 0)
(0 0.000155345 0)
(0 3.73545e-05 0)
(0 3.79693e-05 0)
(0 0.000283732 0)
(0 -2.0935e-05 0)
(0 -2.094e-05 0)
(0 5.34095e-05 0)
(0 0.000190446 0)
(0 0.000212999 0)
(0 -2.09015e-05 0)
(0 0.000263143 0)
(0 -2.09087e-05 0)
(0 0.000343459 0)
(0 0.000133153 0)
(0 0.000182277 0)
(0 6.85047e-05 0)
(0 0.000194927 0)
(0 -1.6981e-05 0)
(0 -2.06289e-05 0)
(0 -2.08994e-05 0)
(0 -1.46427e-05 0)
(0 -2.09325e-05 0)
(0 0.000347497 0)
(0 4.74184e-06 0)
(0 -2.02883e-05 0)
(0 3.86071e-06 0)
(0 0.000156109 0)
(0 0.000154016 0)
(0 2.0864e-06 0)
(0 0.000280107 0)
(0 -2.07829e-05 0)
(0 1.18792e-05 0)
(0 -5.16152e-06 0)
(0 0.000125426 0)
(0 -1.98551e-05 0)
(0 -2.09326e-05 0)
(0 -2.0907e-05 0)
(0 1.70648e-05 0)
(0 4.51753e-05 0)
(0 2.07849e-05 0)
(0 -2.08236e-05 0)
(0 0.000312079 0)
(0 -2.05204e-05 0)
(0 -1.08209e-05 0)
(0 -1.56574e-05 0)
(0 -1.9722e-05 0)
(0 -1.82905e-05 0)
(0 0.000116464 0)
(0 7.67171e-05 0)
(0 0.000112856 0)
(0 0.000111337 0)
(0 -2.08065e-05 0)
(0 -2.0944e-05 0)
(0 0.000146067 0)
(0 -2.09173e-05 0)
(0 0.000220803 0)
(0 1.96547e-05 0)
(0 -1.82677e-05 0)
(0 -1.43518e-05 0)
(0 -1.30269e-05 0)
(0 0.000352824 0)
(0 4.52435e-05 0)
(0 9.34297e-05 0)
(0 0.000195083 0)
(0 0.000253341 0)
(0 3.63538e-05 0)
(0 0.000148195 0)
(0 -2.02402e-05 0)
(0 2.48326e-05 0)
(0 0.000357912 0)
(0 -1.11763e-05 0)
(0 1.77641e-05 0)
(0 5.32032e-06 0)
(0 0.000132938 0)
(0 -2.08408e-05 0)
(0 -2.04547e-05 0)
(0 -1.94553e-05 0)
(0 5.39361e-05 0)
(0 2.11496e-05 0)
(0 0.000131311 0)
(0 2.1427e-05 0)
(0 0.000296415 0)
(0 -1.95759e-05 0)
(0 5.184e-05 0)
(0 0.000136478 0)
(0 0.000322067 0)
(0 9.62583e-05 0)
(0 -2.08987e-05 0)
(0 4.28253e-05 0)
(0 0.000388136 0)
(0 -2.03533e-05 0)
(0 0.000344587 0)
(0 5.00775e-05 0)
(0 0.000312584 0)
(0 7.2205e-05 0)
(0 0.000412056 0)
(0 0.000174077 0)
(0 -2.09103e-05 0)
(0 2.24099e-06 0)
(0 1.34215e-06 0)
(0 -2.0923e-05 0)
(0 -1.79831e-05 0)
(0 0.000338186 0)
(0 0.000255688 0)
(0 4.4279e-05 0)
(0 6.20054e-06 0)
(0 0.000236819 0)
(0 0.000201203 0)
(0 -2.02742e-05 0)
(0 0.000110551 0)
(0 0.000131734 0)
(0 4.13399e-05 0)
(0 6.46036e-06 0)
(0 -2.01559e-05 0)
(0 0.000274994 0)
(0 -2.81742e-06 0)
(0 0.000203103 0)
(0 0.000146713 0)
(0 -2.05483e-05 0)
(0 -5.9547e-06 0)
(0 2.17278e-05 0)
(0 0.000172116 0)
(0 0.000270522 0)
(0 -2.09266e-05 0)
(0 -1.53303e-05 0)
(0 -1.8707e-05 0)
(0 -2.09941e-05 0)
(0 0.000195504 0)
(0 0.000290206 0)
(0 0.000371662 0)
(0 -2.09382e-05 0)
(0 6.72878e-05 0)
(0 2.5655e-05 0)
(0 0.000142836 0)
(0 0.000164988 0)
(0 0.000244199 0)
(0 2.6288e-05 0)
(0 0.000171284 0)
(0 -1.44974e-05 0)
(0 0.000220576 0)
(0 2.30691e-06 0)
(0 2.32537e-05 0)
(0 0.00016987 0)
(0 0.000305643 0)
(0 0.000182798 0)
(0 -4.45032e-07 0)
(0 -2.08933e-05 0)
(0 7.97746e-05 0)
(0 -2.09313e-05 0)
(0 0.000235438 0)
(0 8.84605e-07 0)
(0 0.000180923 0)
(0 -1.37443e-05 0)
(0 0.000335792 0)
(0 0.000338432 0)
(0 9.51242e-05 0)
(0 3.39659e-06 0)
(0 8.0687e-06 0)
(0 0.000197387 0)
(0 1.34905e-05 0)
(0 -1.76447e-05 0)
(0 -1.64597e-05 0)
(0 0.000163255 0)
(0 7.09317e-06 0)
(0 -2.06827e-05 0)
(0 0.000122626 0)
(0 -1.92412e-05 0)
(0 -7.58357e-06 0)
(0 -1.2292e-05 0)
(0 0.000202191 0)
(0 0.000151528 0)
(0 5.93488e-05 0)
(0 -1.65287e-05 0)
(0 0.000230391 0)
(0 0.000101904 0)
(0 0.000153955 0)
(0 0.000172941 0)
(0 0.000134275 0)
(0 0.000201608 0)
(0 0.000299055 0)
(0 0.000452271 0)
(0 -2.05502e-05 0)
(0 4.50761e-05 0)
(0 0.000111411 0)
(0 -3.80125e-06 0)
(0 0.00020868 0)
(0 0.000371908 0)
(0 6.54629e-06 0)
(0 -1.49874e-05 0)
(0 -1.72121e-05 0)
(0 -5.00301e-06 0)
(0 1.26405e-05 0)
(0 4.21149e-05 0)
(0 -2.07705e-05 0)
(0 1.94097e-05 0)
(0 -2.09531e-05 0)
(0 -1.3321e-05 0)
(0 0.000172206 0)
(0 0.000187449 0)
(0 0.000126877 0)
(0 -2.08325e-05 0)
(0 -2.08747e-05 0)
(0 -7.08744e-06 0)
(0 -1.86591e-05 0)
(0 0.00020756 0)
(0 0.000210944 0)
(0 7.5028e-05 0)
(0 0.000163327 0)
(0 -2.09367e-05 0)
(0 7.26383e-05 0)
(0 0.000187377 0)
(0 -7.15383e-06 0)
(0 -1.99978e-05 0)
(0 -6.75673e-06 0)
(0 0.000116703 0)
(0 0.000101718 0)
(0 -1.12125e-05 0)
(0 4.14644e-05 0)
(0 0.000114487 0)
(0 -2.0375e-05 0)
(0 -1.84123e-05 0)
(0 0.000127103 0)
(0 -1.15577e-05 0)
(0 -3.10736e-06 0)
(0 7.03584e-08 0)
(0 -1.63139e-05 0)
(0 4.36444e-05 0)
(0 0.000178563 0)
(0 3.64815e-06 0)
(0 0.000322519 0)
(0 8.884e-05 0)
(0 4.40504e-05 0)
(0 -2.09401e-05 0)
(0 4.31095e-05 0)
(0 1.80592e-05 0)
(0 -1.38997e-05 0)
(0 0.000188265 0)
(0 -2.09216e-05 0)
(0 -2.09321e-05 0)
(0 0.00024055 0)
(0 -2.09167e-05 0)
(0 1.99364e-05 0)
(0 0.000203258 0)
(0 0.000264229 0)
(0 -1.39948e-05 0)
(0 -2.05214e-05 0)
(0 6.20895e-05 0)
(0 1.76504e-05 0)
(0 0.0003122 0)
(0 -1.90978e-05 0)
(0 2.45829e-06 0)
(0 2.35819e-05 0)
(0 0.000201763 0)
(0 0.000204688 0)
(0 0.000190825 0)
(0 1.67772e-06 0)
(0 0.000103689 0)
(0 -6.92192e-08 0)
(0 2.02887e-05 0)
(0 7.32557e-05 0)
(0 -2.05176e-05 0)
(0 -1.48289e-05 0)
(0 0.000112731 0)
(0 4.39787e-05 0)
(0 0.000123557 0)
(0 -2.03916e-05 0)
(0 4.99876e-05 0)
(0 0.000313958 0)
(0 0.000200678 0)
(0 0.000321206 0)
(0 0.000105919 0)
(0 -2.09102e-05 0)
(0 -2.03567e-05 0)
(0 -1.55437e-05 0)
(0 4.16817e-05 0)
(0 0.00022516 0)
(0 -1.99445e-05 0)
(0 3.82795e-05 0)
(0 0.000131448 0)
(0 -2.08561e-05 0)
(0 0.000199483 0)
(0 -5.84367e-06 0)
(0 -2.09489e-05 0)
(0 0.00020487 0)
(0 -2.09281e-05 0)
(0 -2.08048e-05 0)
(0 -1.3859e-05 0)
(0 -2.09333e-05 0)
(0 -3.5231e-08 0)
(0 0.000227977 0)
(0 0.000111125 0)
(0 -2.09679e-05 0)
(0 -1.99748e-05 0)
(0 0.000117663 0)
(0 -2.09242e-05 0)
(0 6.19545e-05 0)
(0 0.000300601 0)
(0 5.632e-05 0)
(0 0.000164072 0)
(0 4.48497e-05 0)
(0 6.65012e-05 0)
(0 -2.02487e-05 0)
(0 -2.09346e-05 0)
(0 -2.00083e-05 0)
(0 9.8858e-06 0)
(0 1.09482e-05 0)
(0 -9.92737e-06 0)
(0 -2.09264e-05 0)
(0 0.000203527 0)
(0 -2.09456e-05 0)
(0 2.02096e-09 0)
(0 6.36771e-05 0)
(0 5.27332e-05 0)
(0 4.05207e-05 0)
(0 0.000157917 0)
(0 1.16081e-05 0)
(0 -2.09304e-05 0)
(0 0.000211221 0)
(0 0.000208937 0)
(0 -2.09141e-05 0)
(0 -1.30818e-05 0)
(0 4.67004e-05 0)
(0 5.74447e-05 0)
(0 3.45708e-06 0)
(0 0.000362477 0)
(0 2.74823e-05 0)
(0 8.06186e-06 0)
(0 -1.94427e-05 0)
(0 0.000111328 0)
(0 0.000202874 0)
(0 3.79668e-06 0)
(0 -2.09232e-05 0)
(0 9.78909e-07 0)
(0 0.000154995 0)
(0 -2.00788e-05 0)
(0 0.000173311 0)
(0 0.000214804 0)
(0 0.000326843 0)
(0 0.000109199 0)
(0 0.000206998 0)
(0 0.000140468 0)
(0 -1.95703e-05 0)
(0 7.17726e-05 0)
(0 3.72658e-05 0)
(0 -2.07962e-05 0)
(0 5.64131e-05 0)
(0 -1.63814e-05 0)
(0 -1.86379e-05 0)
(0 -1.51888e-05 0)
(0 4.13201e-06 0)
(0 0.000275161 0)
(0 7.78491e-05 0)
(0 0.000178836 0)
(0 9.32232e-05 0)
(0 -1.64394e-05 0)
(0 0.000225774 0)
(0 -1.8432e-05 0)
(0 4.7308e-05 0)
(0 -1.73953e-06 0)
(0 0.000336815 0)
(0 -2.02025e-05 0)
(0 8.04884e-06 0)
(0 -2.0876e-05 0)
(0 2.37174e-05 0)
(0 -2.091e-05 0)
(0 0.000124459 0)
(0 1.26182e-06 0)
(0 -1.37315e-05 0)
(0 2.36336e-05 0)
(0 0.000139349 0)
(0 -1.9808e-05 0)
(0 1.66846e-05 0)
(0 -1.99621e-05 0)
(0 0.000235576 0)
(0 5.01128e-06 0)
(0 0.000346992 0)
(0 -2.08744e-05 0)
(0 -1.97167e-05 0)
(0 -6.32805e-06 0)
(0 0.00034502 0)
(0 0.000364101 0)
(0 6.75852e-07 0)
(0 -2.09325e-05 0)
(0 9.09148e-05 0)
(0 0.000386697 0)
(0 2.32953e-05 0)
(0 -1.51285e-05 0)
(0 3.41005e-05 0)
(0 0.000149123 0)
(0 -1.71106e-05 0)
(0 0.000205216 0)
(0 6.62784e-05 0)
(0 0.000330423 0)
(0 9.35374e-05 0)
(0 0.000311004 0)
(0 -1.96531e-05 0)
(0 0.000303286 0)
(0 0.000312268 0)
(0 -1.4394e-05 0)
(0 -2.09464e-05 0)
(0 0.000147432 0)
(0 -4.42152e-06 0)
(0 0.000178038 0)
(0 -1.71631e-05 0)
(0 0.000212305 0)
(0 -1.94469e-05 0)
(0 0.000115745 0)
(0 -1.43727e-05 0)
(0 0.000213856 0)
(0 0.000103808 0)
(0 -2.07956e-05 0)
(0 0.000103575 0)
(0 -2.08508e-05 0)
(0 6.47999e-05 0)
(0 -2.09324e-05 0)
(0 0.000133138 0)
(0 0.000280596 0)
(0 0.000199903 0)
(0 7.06876e-05 0)
(0 4.98522e-05 0)
(0 5.01047e-05 0)
(0 -2.09141e-05 0)
(0 9.80215e-05 0)
(0 6.87999e-05 0)
(0 -6.58996e-06 0)
(0 4.0412e-05 0)
(0 0.000163144 0)
(0 5.20734e-05 0)
(0 -1.17232e-05 0)
(0 -2.09377e-05 0)
(0 0.000308345 0)
(0 -2.04978e-05 0)
(0 0.000169841 0)
(0 -7.88179e-06 0)
(0 -2.08647e-05 0)
(0 4.72115e-05 0)
(0 0.000439069 0)
(0 0.000205875 0)
(0 1.07901e-05 0)
(0 -1.96918e-05 0)
(0 6.26555e-05 0)
(0 4.69183e-05 0)
(0 0.000278382 0)
(0 3.69085e-05 0)
(0 0.000265359 0)
(0 -2.06738e-05 0)
(0 -2.0759e-05 0)
(0 -2.09324e-05 0)
(0 0.000237544 0)
(0 6.91343e-05 0)
(0 -2.03229e-05 0)
(0 0.000165711 0)
(0 -1.26018e-05 0)
(0 0.000190929 0)
(0 -1.97907e-05 0)
(0 -3.32604e-07 0)
(0 0.000408161 0)
(0 -7.80681e-06 0)
(0 -1.98365e-05 0)
(0 0.000296765 0)
(0 7.05068e-05 0)
(0 0.000330218 0)
(0 -4.07336e-06 0)
(0 -1.96965e-05 0)
(0 -1.25038e-05 0)
(0 -2.04143e-05 0)
(0 0.000191542 0)
(0 0.000185029 0)
(0 -2.07988e-05 0)
(0 0.00014883 0)
(0 -4.41204e-06 0)
(0 2.76828e-05 0)
(0 9.64456e-05 0)
(0 0.000319122 0)
(0 -2.00221e-05 0)
(0 8.48827e-05 0)
(0 -2.01087e-05 0)
(0 0.00032263 0)
(0 -1.56197e-05 0)
(0 0.000111094 0)
(0 -2.02253e-05 0)
(0 5.46045e-05 0)
(0 7.05937e-05 0)
(0 6.78888e-05 0)
(0 -2.07561e-05 0)
(0 0.000249455 0)
(0 3.0498e-05 0)
(0 -1.93312e-05 0)
(0 -1.39614e-05 0)
(0 -2.09122e-05 0)
(0 -2.05611e-05 0)
(0 0.00014018 0)
(0 0.000381588 0)
(0 0.000225493 0)
(0 -1.2304e-05 0)
(0 0.00025847 0)
(0 -2.9216e-06 0)
(0 -1.43137e-05 0)
(0 7.0819e-05 0)
(0 5.35716e-06 0)
(0 0.000199917 0)
(0 0.000213603 0)
(0 2.17428e-05 0)
(0 0.000200036 0)
(0 -2.09236e-05 0)
(0 -1.17123e-05 0)
(0 -1.95126e-05 0)
(0 -3.76805e-06 0)
(0 9.43045e-05 0)
(0 -2.09292e-05 0)
(0 8.62556e-05 0)
(0 8.70333e-05 0)
(0 0.000170215 0)
(0 2.41255e-05 0)
(0 -1.0881e-05 0)
(0 0.00036338 0)
(0 0.000178691 0)
(0 5.87455e-05 0)
(0 0.000192371 0)
(0 4.38678e-06 0)
(0 -1.30349e-05 0)
(0 -2.0912e-05 0)
(0 -7.69709e-06 0)
(0 0.000160435 0)
(0 -1.47972e-05 0)
(0 0.000205704 0)
(0 0.000284154 0)
(0 0.000133613 0)
(0 -1.99005e-05 0)
(0 -1.47338e-05 0)
(0 8.52845e-06 0)
(0 -1.42425e-05 0)
(0 -1.91814e-05 0)
(0 -3.40696e-06 0)
(0 -1.89735e-05 0)
(0 0.000189632 0)
(0 3.13295e-05 0)
(0 -2.08891e-05 0)
(0 0.000188196 0)
(0 -2.0013e-05 0)
(0 0.000249217 0)
(0 0.000247704 0)
(0 5.53206e-06 0)
(0 -2.02547e-05 0)
(0 0.00020531 0)
(0 -7.86048e-06 0)
(0 -2.05801e-05 0)
(0 -1.70194e-05 0)
(0 0.000125725 0)
(0 4.80616e-05 0)
(0 8.78419e-05 0)
(0 7.34075e-05 0)
(0 -1.90586e-05 0)
(0 0.000147908 0)
(0 -4.11486e-06 0)
(0 -2.08982e-05 0)
(0 0.000107911 0)
(0 0.000231521 0)
(0 0.000221295 0)
(0 -2.05288e-05 0)
(0 0.000324961 0)
(0 0.000442223 0)
(0 -1.28529e-05 0)
(0 0.000125729 0)
(0 0.000264493 0)
(0 -1.59621e-05 0)
(0 9.40888e-05 0)
(0 -1.42734e-05 0)
(0 -1.43188e-05 0)
(0 -2.09302e-05 0)
(0 -2.05669e-05 0)
(0 0.000367482 0)
(0 0.000302331 0)
(0 0.000212162 0)
(0 0.000141003 0)
(0 -1.62064e-05 0)
(0 0.000141125 0)
(0 -2.06621e-05 0)
(0 8.38355e-05 0)
(0 -2.08698e-05 0)
(0 8.39541e-05 0)
(0 0.000199352 0)
(0 0.000117964 0)
(0 0.00018155 0)
(0 1.33674e-05 0)
(0 0.00018652 0)
(0 0.000317282 0)
(0 -1.01854e-05 0)
(0 0.000241675 0)
(0 8.66856e-05 0)
(0 0.000125367 0)
(0 -2.09351e-05 0)
(0 9.04159e-05 0)
(0 0.000377641 0)
(0 0.000304737 0)
(0 2.07902e-05 0)
(0 0.000204204 0)
(0 0.000117242 0)
(0 0.000260704 0)
(0 0.000153286 0)
(0 0.000306297 0)
(0 0.000223552 0)
(0 7.35074e-05 0)
(0 1.71415e-05 0)
(0 5.91227e-05 0)
(0 -2.08707e-05 0)
(0 -2.09012e-05 0)
(0 -2.08759e-05 0)
(0 0.00021404 0)
(0 9.02041e-05 0)
(0 0.000371073 0)
(0 0.000247454 0)
(0 0.000369161 0)
(0 0.000203616 0)
(0 7.79564e-05 0)
(0 0.000251226 0)
(0 4.16964e-05 0)
(0 0.000140849 0)
(0 0.000344934 0)
(0 0.000162566 0)
(0 -2.08189e-05 0)
(0 0.000292059 0)
(0 0.000239042 0)
(0 -2.08652e-05 0)
(0 6.64805e-05 0)
(0 0.000113465 0)
(0 -2.08525e-05 0)
(0 -2.09309e-05 0)
(0 0.000199645 0)
(0 -1.98103e-05 0)
(0 -2.04182e-05 0)
(0 0.000152249 0)
(0 -8.29036e-06 0)
(0 9.03909e-05 0)
(0 0.000156876 0)
(0 2.78309e-05 0)
(0 1.9703e-05 0)
(0 0.00016002 0)
(0 7.98981e-05 0)
(0 7.23489e-05 0)
(0 0.000206838 0)
(0 -2.09373e-05 0)
(0 0.000197917 0)
(0 -9.58766e-06 0)
(0 6.53646e-05 0)
(0 4.17187e-05 0)
(0 -2.08346e-05 0)
(0 5.97485e-05 0)
(0 0.000196984 0)
(0 6.79349e-05 0)
(0 6.90545e-05 0)
(0 2.82801e-05 0)
(0 -1.99917e-05 0)
(0 -2.09173e-05 0)
(0 -1.96401e-05 0)
(0 -1.57821e-05 0)
(0 -2.00299e-05 0)
(0 -1.68046e-06 0)
(0 2.3174e-05 0)
(0 -2.02285e-05 0)
(0 -1.53832e-05 0)
(0 9.31489e-05 0)
(0 1.71028e-05 0)
(0 1.14254e-05 0)
(0 0.000289927 0)
(0 7.35212e-05 0)
(0 7.57743e-05 0)
(0 -9.15751e-06 0)
(0 0.00022726 0)
(0 0.000334274 0)
(0 -7.27883e-06 0)
(0 0.000202223 0)
(0 -2.02316e-05 0)
(0 0.000207591 0)
(0 -2.09353e-05 0)
(0 -1.25316e-05 0)
(0 6.71389e-06 0)
(0 0.000369502 0)
(0 0.000108034 0)
(0 1.52477e-05 0)
(0 1.32786e-06 0)
(0 0.000122762 0)
(0 -4.0899e-06 0)
(0 -1.67955e-05 0)
(0 -3.57942e-06 0)
(0 1.84848e-05 0)
(0 -2.02814e-05 0)
(0 -2.01667e-05 0)
(0 0.000272366 0)
(0 -1.45258e-05 0)
(0 -7.91792e-06 0)
(0 -2.01199e-05 0)
(0 -1.29786e-05 0)
(0 0.000337819 0)
(0 2.79775e-05 0)
(0 5.54063e-05 0)
(0 0.00011377 0)
(0 7.45458e-05 0)
(0 0.000174672 0)
(0 4.82951e-05 0)
(0 -1.99083e-05 0)
(0 6.71135e-06 0)
(0 0.000138423 0)
(0 -1.45484e-05 0)
(0 -1.54987e-05 0)
(0 -2.09164e-05 0)
(0 -2.01882e-05 0)
(0 7.26654e-05 0)
(0 0.000111347 0)
(0 0.000406556 0)
(0 0.000222815 0)
(0 5.1632e-05 0)
(0 -1.24475e-05 0)
(0 -2.08832e-05 0)
(0 0.000240114 0)
(0 -2.03032e-05 0)
(0 9.11002e-06 0)
(0 -1.9179e-05 0)
(0 -1.48674e-05 0)
(0 1.59909e-05 0)
(0 9.87173e-05 0)
(0 0.000119568 0)
(0 -2.09142e-05 0)
(0 -2.09101e-05 0)
(0 -6.89164e-06 0)
(0 -2.06372e-05 0)
(0 0.000275501 0)
(0 -2.00224e-05 0)
(0 0.000195168 0)
(0 0.000239085 0)
(0 -2.08918e-05 0)
(0 2.87026e-05 0)
(0 0.000284463 0)
(0 0.000300038 0)
(0 -1.62871e-05 0)
(0 -2.09366e-05 0)
(0 -1.97456e-05 0)
(0 -1.56067e-05 0)
(0 0.00021701 0)
(0 0.000226107 0)
(0 0.000109872 0)
(0 -2.0896e-05 0)
(0 -2.08969e-05 0)
(0 0.000201643 0)
(0 6.04162e-05 0)
(0 5.09089e-06 0)
(0 -4.66445e-06 0)
(0 -1.91e-05 0)
(0 -2.0535e-05 0)
(0 -2.09485e-05 0)
(0 5.61087e-05 0)
(0 0.000198766 0)
(0 0.000285194 0)
(0 -2.03311e-05 0)
(0 0.000272639 0)
(0 -1.11032e-05 0)
(0 -2.09064e-05 0)
(0 -2.08295e-05 0)
(0 0.000112502 0)
(0 2.15642e-05 0)
(0 -2.09292e-05 0)
(0 -2.04509e-05 0)
(0 -2.094e-05 0)