/*--------------------------------*- C++ -*----------------------------------*\
| =========                 |                                                 |
| \\      /  F ield         | OpenFOAM: The Open Source CFD Toolbox           |
|  \\    /   O peration     | Version:  v2012                                 |
|   \\  /    A nd           | Website:  www.openfoam.com                      |
|    \\/     M anipulation  |                                                 |
\*---------------------------------------------------------------------------*/
FoamFile
{
    version     2.0;
    format      ascii;
    class       pointVectorField;
    location    "950";
    object      pointDisplacement;
}
// * * * * * * * * * * * * * * * * * * * * * * * * * * * * * * * * * * * * * //

dimensions      [0 1 0 0 0 0 0];


internalField   nonuniform List<vector> 
10232
(
(0 0 0)
(-0 -2.09373e-05 -0)
(-0 -2.09373e-05 -0)
(-0 -2.09373e-05 -0)
(-0 -2.09373e-05 -0)
(0 0 0)
(-0 -2.09373e-05 -0)
(-0 -2.09373e-05 -0)
(-0 -2.09373e-05 -0)
(-0 -2.09373e-05 -0)
(0 0 0)
(0 0 0)
(0 0 0)
(0 0 0)
(0 0 0)
(0 0 0)
(0 0 0)
(0 0 0)
(0 0 0)
(0 0 0)
(0 0 0)
(0 0 0)
(0 0 0)
(0 0 0)
(0 0 0)
(0 0 0)
(0 0 0)
(0 0 0)
(0 0 0)
(0 0 0)
(0 0 0)
(0 0 0)
(0 0 0)
(0 0 0)
(0 0 0)
(0 0 0)
(0 0 0)
(0 0 0)
(0 0 0)
(0 0 0)
(0 0 0)
(0 0 0)
(0 0 0)
(0 0 0)
(0 0 0)
(0 0 0)
(0 0 0)
(0 0 0)
(0 0 0)
(0 0 0)
(0 0 0)
(0 0 0)
(0 0 0)
(0 0 0)
(0 0 0)
(0 0 0)
(0 0 0)
(0 0 0)
(0 0 0)
(0 0 0)
(0 0 0)
(0 0 0)
(0 0 0)
(0 0 0)
(0 0 0)
(0 0 0)
(0 0 0)
(0 0 0)
(0 0 0)
(0 0 0)
(0 0 0)
(0 0 0)
(0 0 0)
(0 0 0)
(0 0 0)
(0 0 0)
(0 0 0)
(0 0 0)
(0 0 0)
(0 0 0)
(0 0 0)
(0 0 0)
(0 0 0)
(0 0 0)
(-0 -2.09373e-05 -0)
(-0 -2.09373e-05 -0)
(-0 -2.09373e-05 -0)
(-0 -2.09373e-05 -0)
(-0 -2.09373e-05 -0)
(-0 -2.09373e-05 -0)
(-0 -2.09373e-05 -0)
(-0 -2.09373e-05 -0)
(-0 -2.09373e-05 -0)
(-0 -2.09373e-05 -0)
(-0 -2.09373e-05 -0)
(-0 -2.09373e-05 -0)
(-0 -2.09373e-05 -0)
(-0 -2.09373e-05 -0)
(-0 -2.09373e-05 -0)
(-0 -2.09373e-05 -0)
(-0 -2.09373e-05 -0)
(-0 -2.09373e-05 -0)
(-0 -2.09373e-05 -0)
(-0 -2.09373e-05 -0)
(-0 -2.09373e-05 -0)
(-0 -2.09373e-05 -0)
(-0 -2.09373e-05 -0)
(-0 -2.09373e-05 -0)
(-0 -2.09373e-05 -0)
(-0 -2.09373e-05 -0)
(-0 -2.09373e-05 -0)
(-0 -2.09373e-05 -0)
(-0 -2.09373e-05 -0)
(-0 -2.09373e-05 -0)
(-0 -2.09373e-05 -0)
(-0 -2.09373e-05 -0)
(-0 -2.09373e-05 -0)
(-0 -2.09373e-05 -0)
(-0 -2.09373e-05 -0)
(-0 -2.09373e-05 -0)
(-0 -2.09373e-05 -0)
(-0 -2.09373e-05 -0)
(-0 -2.09373e-05 -0)
(-0 -2.09373e-05 -0)
(-0 -2.09373e-05 -0)
(-0 -2.09373e-05 -0)
(-0 -2.09373e-05 -0)
(-0 -2.09373e-05 -0)
(-0 -2.09373e-05 -0)
(-0 -2.09373e-05 -0)
(-0 -2.09373e-05 -0)
(-0 -2.09373e-05 -0)
(-0 -2.09373e-05 -0)
(-0 -2.09373e-05 -0)
(-0 -2.09373e-05 -0)
(-0 -2.09373e-05 -0)
(-0 -2.09373e-05 -0)
(-0 -2.09373e-05 -0)
(-0 -2.09373e-05 -0)
(-0 -2.09373e-05 -0)
(-0 -2.09373e-05 -0)
(-0 -2.09373e-05 -0)
(-0 -2.09373e-05 -0)
(-0 -2.09373e-05 -0)
(-0 -2.09373e-05 -0)
(-0 -2.09373e-05 -0)
(-0 -2.09373e-05 -0)
(-0 -2.09373e-05 -0)
(-0 -2.09373e-05 -0)
(-0 -2.09373e-05 -0)
(-0 -2.09373e-05 -0)
(-0 -2.09373e-05 -0)
(-0 -2.09373e-05 -0)
(-0 -2.09373e-05 -0)
(-0 -2.09373e-05 -0)
(-0 -2.09373e-05 -0)
(-0 -2.09373e-05 -0)
(-0 -2.09373e-05 -0)
(-0 -2.09373e-05 -0)
(-0 -2.09373e-05 -0)
(-0 -2.09373e-05 -0)
(-0 -2.09373e-05 -0)
(-0 -2.09373e-05 -0)
(-0 -2.09373e-05 -0)
(-0 -2.09373e-05 -0)
(-0 -2.09373e-05 -0)
(-0 -2.09373e-05 -0)
(-0 -2.09373e-05 -0)
(-0 -2.09373e-05 -0)
(-0 -2.09373e-05 -0)
(-0 -2.09373e-05 -0)
(-0 -2.09373e-05 -0)
(-0 -2.09373e-05 -0)
(-0 -2.09373e-05 -0)
(-0 -2.09373e-05 -0)
(-0 -2.09373e-05 -0)
(-0 -2.09373e-05 -0)
(-0 -2.09373e-05 -0)
(-0 -2.09373e-05 -0)
(-0 -2.09373e-05 -0)
(-0 -2.09373e-05 -0)
(-0 -2.09373e-05 -0)
(-0 -2.09373e-05 -0)
(-0 -2.09373e-05 -0)
(-0 -2.09373e-05 -0)
(-0 -2.09373e-05 -0)
(-0 -2.09373e-05 -0)
(-0 -2.09373e-05 -0)
(-0 -2.09373e-05 -0)
(-0 -2.09373e-05 -0)
(-0 -2.09373e-05 -0)
(-0 -2.09373e-05 -0)
(-0 -2.09373e-05 -0)
(-0 -2.09373e-05 -0)
(-0 -2.09373e-05 -0)
(-0 -2.09373e-05 -0)
(-0 -2.09373e-05 -0)
(-0 -2.09373e-05 -0)
(-0 -2.09373e-05 -0)
(-0 -2.09373e-05 -0)
(0 0 0)
(0 0 0)
(0 0 0)
(0 0 0)
(0 0 0)
(0 0 0)
(0 0 0)
(0 0 0)
(0 0 0)
(0 0 0)
(0 0 0)
(0 0 0)
(0 0 0)
(0 0 0)
(0 0 0)
(0 0 0)
(0 0 0)
(0 0 0)
(0 0 0)
(0 0 0)
(0 0 0)
(0 0 0)
(0 0 0)
(0 0 0)
(0 0 0)
(0 0 0)
(0 0 0)
(0 0 0)
(0 0 0)
(0 0 0)
(0 0 0)
(0 0 0)
(0 0 0)
(0 0 0)
(0 0 0)
(0 0 0)
(0 0 0)
(0 0 0)
(0 0 0)
(0 0 0)
(0 0 0)
(0 0 0)
(0 0 0)
(0 0 0)
(0 0 0)
(0 0 0)
(0 0 0)
(0 0 0)
(0 0 0)
(0 0 0)
(0 0 0)
(0 0 0)
(0 0 0)
(0 0 0)
(0 0 0)
(0 0 0)
(0 0 0)
(0 0 0)
(0 0 0)
(0 0 0)
(0 0 0)
(0 0 0)
(0 0 0)
(0 0 0)
(0 0 0)
(0 0 0)
(0 0 0)
(0 0 0)
(0 0 0)
(0 0 0)
(0 0 0)
(0 0 0)
(0 0 0)
(0 0 0)
(-0 -2.09373e-05 -0)
(-0 -2.09373e-05 -0)
(-0 -2.09373e-05 -0)
(-0 -2.09373e-05 -0)
(-0 -2.09373e-05 -0)
(-0 -2.09373e-05 -0)
(-0 -2.09373e-05 -0)
(-0 -2.09373e-05 -0)
(-0 -2.09373e-05 -0)
(-0 -2.09373e-05 -0)
(-0 -2.09373e-05 -0)
(-0 -2.09373e-05 -0)
(-0 -2.09373e-05 -0)
(-0 -2.09373e-05 -0)
(-0 -2.09373e-05 -0)
(-0 -2.09373e-05 -0)
(-0 -2.09373e-05 -0)
(-0 -2.09373e-05 -0)
(-0 -2.09373e-05 -0)
(-0 -2.09373e-05 -0)
(-0 -2.09373e-05 -0)
(-0 -2.09373e-05 -0)
(-0 -2.09373e-05 -0)
(-0 -2.09373e-05 -0)
(-0 -2.09373e-05 -0)
(-0 -2.09373e-05 -0)
(-0 -2.09373e-05 -0)
(-0 -2.09373e-05 -0)
(-0 -2.09373e-05 -0)
(-0 -2.09373e-05 -0)
(-0 -2.09373e-05 -0)
(-0 -2.09373e-05 -0)
(-0 -2.09373e-05 -0)
(-0 -2.09373e-05 -0)
(-0 -2.09373e-05 -0)
(-0 -2.09373e-05 -0)
(-0 -2.09373e-05 -0)
(-0 -2.09373e-05 -0)
(-0 -2.09373e-05 -0)
(-0 -2.09373e-05 -0)
(-0 -2.09373e-05 -0)
(-0 -2.09373e-05 -0)
(-0 -2.09373e-05 -0)
(-0 -2.09373e-05 -0)
(-0 -2.09373e-05 -0)
(-0 -2.09373e-05 -0)
(-0 -2.09373e-05 -0)
(-0 -2.09373e-05 -0)
(-0 -2.09373e-05 -0)
(-0 -2.09373e-05 -0)
(-0 -2.09373e-05 -0)
(-0 -2.09373e-05 -0)
(-0 -2.09373e-05 -0)
(-0 -2.09373e-05 -0)
(-0 -2.09373e-05 -0)
(-0 -2.09373e-05 -0)
(-0 -2.09373e-05 -0)
(-0 -2.09373e-05 -0)
(-0 -2.09373e-05 -0)
(-0 -2.09373e-05 -0)
(-0 -2.09373e-05 -0)
(-0 -2.09373e-05 -0)
(-0 -2.09373e-05 -0)
(-0 -2.09373e-05 -0)
(-0 -2.09373e-05 -0)
(-0 -2.09373e-05 -0)
(-0 -2.09373e-05 -0)
(-0 -2.09373e-05 -0)
(-0 -2.09373e-05 -0)
(-0 -2.09373e-05 -0)
(-0 -2.09373e-05 -0)
(-0 -2.09373e-05 -0)
(-0 -2.09373e-05 -0)
(-0 -2.09373e-05 -0)
(-0 -2.09373e-05 -0)
(-0 -2.09373e-05 -0)
(-0 -2.09373e-05 -0)
(-0 -2.09373e-05 -0)
(-0 -2.09373e-05 -0)
(-0 -2.09373e-05 -0)
(-0 -2.09373e-05 -0)
(-0 -2.09373e-05 -0)
(-0 -2.09373e-05 -0)
(-0 -2.09373e-05 -0)
(-0 -2.09373e-05 -0)
(-0 -2.09373e-05 -0)
(-0 -2.09373e-05 -0)
(-0 -2.09373e-05 -0)
(-0 -2.09373e-05 -0)
(-0 -2.09373e-05 -0)
(-0 -2.09373e-05 -0)
(-0 -2.09373e-05 -0)
(-0 -2.09373e-05 -0)
(-0 -2.09373e-05 -0)
(-0 -2.09373e-05 -0)
(-0 -2.09373e-05 -0)
(-0 -2.09373e-05 -0)
(-0 -2.09373e-05 -0)
(-0 -2.09373e-05 -0)
(-0 -2.09373e-05 -0)
(-0 -2.09373e-05 -0)
(-0 -2.09373e-05 -0)
(-0 -2.09373e-05 -0)
(-0 -2.09373e-05 -0)
(-0 -2.09373e-05 -0)
(-0 -2.09373e-05 -0)
(-0 -2.09373e-05 -0)
(-0 -2.09373e-05 -0)
(-0 -2.09373e-05 -0)
(-0 -2.09373e-05 -0)
(-0 -2.09373e-05 -0)
(-0 -2.09373e-05 -0)
(-0 -2.09373e-05 -0)
(-0 -2.09373e-05 -0)
(-0 -2.09373e-05 -0)
(-0 -2.09373e-05 -0)
(0 -2.09298e-05 0)
(0 -2.09338e-05 0)
(0 -2.09507e-05 0)
(0 -2.09122e-05 0)
(0 -2.09348e-05 0)
(0 -2.09669e-05 0)
(0 -2.09387e-05 0)
(0 -2.09337e-05 0)
(0 -2.09375e-05 0)
(0 -2.09468e-05 0)
(0 -2.09373e-05 0)
(0 -2.09948e-05 0)
(0 -2.09226e-05 0)
(0 -2.09299e-05 0)
(0 8.88417e-06 0)
(0 2.40413e-05 0)
(0 4.09237e-06 0)
(0 3.39225e-05 0)
(0 1.79552e-05 0)
(0 4.63741e-05 0)
(0 -2.09571e-05 0)
(0 -2.09378e-05 0)
(0 1.70565e-05 0)
(0 -2.09337e-05 0)
(0 -2.09335e-05 0)
(0 9.66643e-06 0)
(0 1.59334e-05 0)
(0 1.4012e-05 0)
(0 6.05976e-06 0)
(0 -2.09338e-05 0)
(0 -2.09362e-05 0)
(0 -2.09375e-05 0)
(0 -2.09364e-05 0)
(0 -2.0945e-05 0)
(0 -2.0937e-05 0)
(0 7.48018e-06 0)
(0 1.46516e-06 0)
(0 4.31241e-05 0)
(0 3.26581e-05 0)
(0 2.54948e-05 0)
(0 9.83185e-06 0)
(0 3.96969e-06 0)
(0 -2.09318e-05 0)
(0 -2.09291e-05 0)
(0 -2.09325e-05 0)
(0 -2.09343e-05 0)
(0 -2.09693e-05 0)
(0 -2.09354e-05 0)
(0 3.68574e-06 0)
(0 2.48089e-06 0)
(0 4.2899e-05 0)
(0 2.47672e-05 0)
(0 1.04126e-05 0)
(0 1.56005e-05 0)
(0 1.63896e-05 0)
(0 9.28084e-06 0)
(0 3.56161e-06 0)
(0 8.16488e-06 0)
(0 1.06947e-06 0)
(0 0.000347547 0)
(0 0.000354775 0)
(0 0.000332906 0)
(0 0.000340281 0)
(0 0.000319027 0)
(0 0.000326677 0)
(0 0.000306353 0)
(0 0.000314039 0)
(0 0.000294632 0)
(0 0.000302364 0)
(0 0.000283675 0)
(0 0.000291603 0)
(0 0.00027353 0)
(0 0.000281392 0)
(0 0.000264103 0)
(0 0.000255609 0)
(0 0.000247307 0)
(0 0.000255749 0)
(0 0.000239957 0)
(0 0.000248458 0)
(0 0.000234069 0)
(0 0.000238211 0)
(0 0.000333119 0)
(0 0.00024201 0)
(0 0.000228379 0)
(0 0.000236305 0)
(0 0.000222852 0)
(0 0.000231123 0)
(0 0.000218571 0)
(0 0.000209615 0)
(0 0.000206535 0)
(0 0.000197026 0)
(0 0.000194885 0)
(0 0.000204078 0)
(0 0.00019361 0)
(0 0.000185204 0)
(0 0.000244141 0)
(0 0.000202615 0)
(0 0.000193519 0)
(0 0.000202028 0)
(0 0.000193846 0)
(0 0.000201701 0)
(0 0.000194306 0)
(0 0.000201237 0)
(0 0.000194865 0)
(0 0.000187587 0)
(0 0.000189597 0)
(0 0.000182014 0)
(0 0.00018535 0)
(0 0.000177443 0)
(0 0.000181875 0)
(0 0.000173365 0)
(0 0.000178848 0)
(0 0.000168491 0)
(0 0.000176246 0)
(0 0.000167 0)
(0 0.000174633 0)
(0 0.000164429 0)
(0 0.000174226 0)
(0 0.000165626 0)
(0 0.000175384 0)
(0 0.000167174 0)
(0 0.000177836 0)
(0 0.000185172 0)
(0 0.000188644 0)
(0 0.000195016 0)
(0 0.000199499 0)
(0 0.000191781 0)
(0 0.000204949 0)
(0 0.000210358 0)
(0 0.000214791 0)
(0 0.000221022 0)
(0 0.000224376 0)
(0 0.000169839 0)
(0 0.000231037 0)
(0 0.000233425 0)
(0 0.000239949 0)
(0 0.000241518 0)
(0 0.000247587 0)
(0 0.000247746 0)
(0 0.000228992 0)
(0 0.000158825 0)
(0 0.000253311 0)
(0 0.00025215 0)
(0 0.00024746 0)
(0 0.00025113 0)
(0 0.000257349 0)
(0 0.000247123 0)
(0 0.000250338 0)
(0 0.000246039 0)
(0 0.000248794 0)
(0 0.000243683 0)
(0 0.000245681 0)
(0 0.000453529 0)
(0 0.000451729 0)
(0 0.000445233 0)
(0 0.000442999 0)
(0 0.000436945 0)
(0 0.000434333 0)
(0 0.000239871 0)
(0 0.000241084 0)
(0 0.000247055 0)
(0 0.000241731 0)
(0 0.000246919 0)
(0 0.000428396 0)
(0 0.000424904 0)
(0 0.000324705 0)
(0 0.000418485 0)
(0 0.000241071 0)
(0 0.000245412 0)
(0 0.000259294 0)
(0 0.000263486 0)
(0 0.000234871 0)
(0 0.000238576 0)
(0 0.000242233 0)
(0 0.000234191 0)
(0 0.000236981 0)
(0 0.000414318 0)
(0 0.000407637 0)
(0 0.00041851 0)
(0 0.000227697 0)
(0 0.00022929 0)
(0 0.000407795 0)
(0 0.000410297 0)
(0 0.000218647 0)
(0 0.000230316 0)
(0 0.000399513 0)
(0 0.000400764 0)
(0 0.00021943 0)
(0 0.000207582 0)
(0 0.000208361 0)
(0 0.000229571 0)
(0 0.000389695 0)
(0 0.000389713 0)
(0 0.000219775 0)
(0 0.000228882 0)
(0 0.000379201 0)
(0 0.00037757 0)
(0 0.000378711 0)
(0 0.000219423 0)
(0 0.000227459 0)
(0 0.000368077 0)
(0 0.000364804 0)
(0 0.000408597 0)
(0 0.000398097 0)
(0 0.000218359 0)
(0 0.000225719 0)
(0 0.000233602 0)
(0 0.000228709 0)
(0 0.000227253 0)
(0 0.000222834 0)
(0 0.000221074 0)
(0 0.000216999 0)
(0 0.000214896 0)
(0 0.000211065 0)
(0 0.000209107 0)
(0 0.000205276 0)
(0 0.000204073 0)
(0 0.000199576 0)
(0 0.000199938 0)
(0 0.000198683 0)
(0 0.000194193 0)
(0 0.000196099 0)
(0 0.000189011 0)
(0 0.000191545 0)
(0 0.000356113 0)
(0 0.000351379 0)
(0 0.000360681 0)
(0 0.00034568 0)
(0 0.000354709 0)
(0 0.000338569 0)
(0 0.000347112 0)
(0 0.000330465 0)
(0 0.000338705 0)
(0 0.000321237 0)
(0 0.000328976 0)
(0 0.000311075 0)
(0 0.000318562 0)
(0 0.000300227 0)
(0 0.000292917 0)
(0 0.00028216 0)
(0 0.00028891 0)
(0 0.000270388 0)
(0 0.00027672 0)
(0 0.000258118 0)
(0 0.000264458 0)
(0 0.000246327 0)
(0 0.000252669 0)
(0 0.000234603 0)
(0 0.000240794 0)
(0 0.000222922 0)
(0 0.000229113 0)
(0 0.000211317 0)
(0 0.000217561 0)
(0 0.000199889 0)
(0 0.00020624 0)
(0 0.000188507 0)
(0 0.000182472 0)
(0 0.000171282 0)
(0 0.000177148 0)
(0 0.000160192 0)
(0 0.000165989 0)
(0 0.000149422 0)
(0 0.000143975 0)
(0 0.00013369 0)
(0 0.000128634 0)
(0 0.000138901 0)
(0 0.00012373 0)
(0 0.000128647 0)
(0 0.000114133 0)
(0 0.000118897 0)
(0 0.000104885 0)
(0 0.000109533 0)
(0 9.61992e-05 0)
(0 8.78286e-05 0)
(0 8.40053e-05 0)
(0 0.000228588 0)
(0 9.94074e-05 0)
(0 8.29005e-05 0)
(0 9.3806e-05 0)
(0 0.000111355 0)
(0 0.000105712 0)
(0 8.85279e-05 0)
(0 0.000100683 0)
(0 8.39555e-05 0)
(0 9.6543e-05 0)
(0 8.00488e-05 0)
(0 9.33002e-05 0)
(0 7.73105e-05 0)
(0 9.09986e-05 0)
(0 7.56687e-05 0)
(0 8.90116e-05 0)
(0 7.47463e-05 0)
(0 0.000108871 0)
(0 8.76314e-05 0)
(0 7.42799e-05 0)
(0 8.7226e-05 0)
(0 7.36683e-05 0)
(0 8.7552e-05 0)
(0 7.41737e-05 0)
(0 8.86349e-05 0)
(0 7.57597e-05 0)
(0 0.000103325 0)
(0 9.03092e-05 0)
(0 7.76767e-05 0)
(0 9.27428e-05 0)
(0 8.05879e-05 0)
(0 9.60687e-05 0)
(0 8.43354e-05 0)
(0 0.000100073 0)
(0 8.86669e-05 0)
(0 7.3597e-05 0)
(0 7.84491e-05 0)
(0 6.43964e-05 0)
(0 6.91994e-05 0)
(0 5.49173e-05 0)
(0 6.15008e-05 0)
(0 5.00864e-05 0)
(0 5.61946e-05 0)
(0 4.52419e-05 0)
(0 5.11301e-05 0)
(0 3.88856e-05 0)
(0 4.59759e-05 0)
(0 3.57293e-05 0)
(0 4.2002e-05 0)
(0 3.26719e-05 0)
(0 3.88757e-05 0)
(0 2.99185e-05 0)
(0 3.61646e-05 0)
(0 2.66378e-05 0)
(0 3.39167e-05 0)
(0 2.62253e-05 0)
(0 3.31216e-05 0)
(0 2.568e-05 0)
(0 3.2635e-05 0)
(0 2.52717e-05 0)
(0 3.19594e-05 0)
(0 2.49927e-05 0)
(0 3.15097e-05 0)
(0 2.493e-05 0)
(0 3.13543e-05 0)
(0 2.51502e-05 0)
(0 3.16772e-05 0)
(0 2.57329e-05 0)
(0 3.96789e-05 0)
(0 3.23303e-05 0)
(0 2.67031e-05 0)
(0 5.83813e-05 0)
(0 3.33858e-05 0)
(0 2.80064e-05 0)
(0 2.16716e-05 0)
(0 2.31924e-05 0)
(0 3.47171e-05 0)
(0 1.71853e-05 0)
(0 1.89126e-05 0)
(0 0.000124391 0)
(0 1.31944e-05 0)
(0 1.50233e-05 0)
(0 9.31239e-05 0)
(0 0.000112788 0)
(0 3.80809e-05 0)
(0 1.89031e-05 0)
(0 9.53657e-06 0)
(0 1.10508e-05 0)
(0 6.37632e-05 0)
(0 1.74378e-05 0)
(0 1.4464e-05 0)
(0 2.04e-05 0)
(0 1.73601e-05 0)
(0 1.17784e-05 0)
(0 1.46827e-05 0)
(0 9.2614e-06 0)
(0 1.249e-05 0)
(0 5.97379e-05 0)
(0 7.24813e-06 0)
(0 1.08505e-05 0)
(0 5.71394e-06 0)
(0 9.56254e-06 0)
(0 4.0845e-06 0)
(0 8.59409e-06 0)
(0 4.00183e-06 0)
(0 8.44056e-06 0)
(0 4.17513e-06 0)
(0 9.11177e-06 0)
(0 3.83073e-06 0)
(0 1.01241e-05 0)
(0 1.41413e-05 0)
(0 4.06566e-05 0)
(0 2.05269e-05 0)
(0 5.60996e-06 0)
(0 1.17148e-05 0)
(0 1.64843e-05 0)
(0 1.84837e-05 0)
(0 2.3267e-05 0)
(0 2.59331e-05 0)
(0 0.000274151 0)
(0 2.18199e-05 0)
(0 3.05755e-05 0)
(0 3.41314e-05 0)
(0 0.000224187 0)
(0 2.19233e-06 0)
(0 7.54426e-06 0)
(0 3.93348e-05 0)
(0 4.3262e-05 0)
(0 0.00033034 0)
(0 0.00027042 0)
(0 4.94235e-05 0)
(0 5.33517e-05 0)
(0 0.000182822 0)
(0 0.000184596 0)
(0 0.000216443 0)
(0 0.000224075 0)
(0 0.000207249 0)
(0 6.00033e-05 0)
(0 5.68765e-05 0)
(0 6.43881e-05 0)
(0 0.000395774 0)
(0 0.000385419 0)
(0 3.77023e-05 0)
(0 0.000176015 0)
(0 0.000178387 0)
(0 0.000172929 0)
(0 4.19241e-08 0)
(0 7.13246e-05 0)
(0 7.62031e-05 0)
(0 0.000169517 0)
(0 0.000172436 0)
(0 0.00021422 0)
(0 0.000223112 0)
(0 0.000266184 0)
(0 1.93844e-06 0)
(0 3.98664e-06 0)
(0 0.000380424 0)
(0 0.000370377 0)
(0 0.000270735 0)
(0 -1.25792e-06 0)
(0 8.34115e-07 0)
(0 -3.93487e-06 0)
(0 -1.86193e-06 0)
(0 -6.0098e-06 0)
(0 -3.9769e-06 0)
(0 -7.81057e-06 0)
(0 -5.72794e-06 0)
(0 -1.56106e-06 0)
(0 -3.18403e-06 0)
(0 1.38367e-06 0)
(0 -1.2631e-07 0)
(0 -4.53457e-06 0)
(0 4.92419e-06 0)
(0 -1.33813e-06 0)
(0 -5.48366e-06 0)
(0 -2.25138e-06 0)
(0 -5.98063e-06 0)
(0 -9.51961e-06 0)
(0 -2.83205e-06 0)
(0 -6.29917e-06 0)
(0 -3.06863e-06 0)
(0 -6.43724e-06 0)
(0 -2.52422e-06 0)
(0 -6.4658e-06 0)
(0 8.31212e-05 0)
(0 8.88754e-05 0)
(0 0.00016357 0)
(0 0.000167194 0)
(0 0.000175823 0)
(0 0.000171897 0)
(0 0.000212459 0)
(0 0.000222512 0)
(0 0.000274094 0)
(0 0.000278964 0)
(0 -9.4636e-06 0)
(0 -9.42998e-06 0)
(0 -6.44682e-06 0)
(0 -9.26357e-06 0)
(0 0.000162481 0)
(0 0.000168775 0)
(0 0.000179213 0)
(0 0.000177788 0)
(0 0.000189534 0)
(0 0.000191605 0)
(0 0.000202935 0)
(0 0.000206251 0)
(0 0.000194403 0)
(0 0.000209887 0)
(0 0.000222663 0)
(0 0.000227481 0)
(0 0.000239383 0)
(0 0.000245097 0)
(0 0.000232487 0)
(0 0.000250254 0)
(0 0.000261987 0)
(0 0.000267055 0)
(0 0.000278118 0)
(0 0.000282807 0)
(0 0.000293981 0)
(0 0.000298288 0)
(0 0.000310083 0)
(0 0.000314394 0)
(0 0.000301129 0)
(0 0.000317629 0)
(0 0.000331826 0)
(0 0.000336348 0)
(0 0.000350861 0)
(0 0.000357253 0)
(0 0.000371478 0)
(0 0.000237142 0)
(0 0.000363177 0)
(0 9.54104e-05 0)
(0 0.000102228 0)
(0 0.000209644 0)
(0 -9.04758e-06 0)
(0 0.000362405 0)
(0 0.000352988 0)
(0 0.000360076 0)
(0 0.000342993 0)
(0 0.000348949 0)
(0 0.000332281 0)
(0 0.000338119 0)
(0 0.000321512 0)
(0 0.000327714 0)
(0 0.000311505 0)
(0 0.000336618 0)
(0 0.00015875 0)
(0 5.30745e-07 0)
(0 0.000108205 0)
(0 0.000115937 0)
(0 -6.15547e-06 0)
(0 -8.95076e-06 0)
(0 0.000121622 0)
(0 0.000130078 0)
(0 0.000135553 0)
(0 -1.20052e-05 0)
(0 0.000144653 0)
(0 0.000150042 0)
(0 0.000210806 0)
(0 0.000205841 0)
(0 0.000193641 0)
(0 0.0001902 0)
(0 0.000177588 0)
(0 0.000172701 0)
(0 0.00016025 0)
(0 0.000154827 0)
(0 0.000142986 0)
(0 0.000148818 0)
(0 0.000131813 0)
(0 0.000138303 0)
(0 0.000120202 0)
(0 0.000126745 0)
(0 0.000137969 0)
(0 0.000149425 0)
(0 0.000282894 0)
(0 0.000287726 0)
(0 0.000303014 0)
(0 0.000317145 0)
(0 0.00030129 0)
(0 0.000199942 0)
(0 0.000206768 0)
(0 9.10615e-05 0)
(0 7.95287e-06 0)
(0 0.000159591 0)
(0 0.000287852 0)
(0 0.000107382 0)
(0 0.000112908 0)
(0 0.000168476 0)
(0 0.000341725 0)
(0 0.000312568 0)
(0 0.000298842 0)
(0 6.88139e-05 0)
(0 0.000110207 0)
(0 -5.67002e-06 0)
(0 -8.40901e-06 0)
(0 -1.15529e-05 0)
(0 -1.06872e-05 0)
(0 -7.79602e-06 0)
(0 4.05427e-05 0)
(0 4.17511e-05 0)
(0 4.81848e-05 0)
(0 4.92737e-05 0)
(0 5.62438e-05 0)
(0 5.73477e-05 0)
(0 6.47424e-05 0)
(0 6.58382e-05 0)
(0 7.36671e-05 0)
(0 7.47989e-05 0)
(0 8.29324e-05 0)
(0 8.21523e-05 0)
(0 8.42852e-05 0)
(0 7.64756e-05 0)
(0 9.1675e-05 0)
(0 9.15016e-05 0)
(0 8.67264e-05 0)
(0 7.88757e-05 0)
(0 0.000101249 0)
(0 0.000101806 0)
(0 8.93613e-05 0)
(0 8.17013e-05 0)
(0 0.00021337 0)
(0 0.000210416 0)
(0 -2.58678e-06 0)
(0 0.000165084 0)
(0 0.000174776 0)
(0 0.000133138 0)
(0 0.000143683 0)
(0 0.000292263 0)
(0 0.000285252 0)
(0 0.000296408 0)
(0 0.000211695 0)
(0 9.31998e-05 0)
(0 9.75323e-05 0)
(0 0.000197457 0)
(0 0.000185792 0)
(0 0.000350473 0)
(0 0.000111786 0)
(0 0.000112927 0)
(0 0.00018014 0)
(0 0.000190074 0)
(0 9.19714e-05 0)
(0 8.51417e-05 0)
(0 0.000127773 0)
(0 0.00013732 0)
(0 7.87216e-05 0)
(0 8.22842e-05 0)
(0 0.000306257 0)
(0 0.000319912 0)
(0 0.000290297 0)
(0 0.000282906 0)
(0 0.000326702 0)
(0 0.000301504 0)
(0 0.000158478 0)
(0 0.000271388 0)
(0 0.00030894 0)
(0 0.000194789 0)
(0 0.000205131 0)
(0 0.000200411 0)
(0 -1.34229e-05 0)
(0 -1.07706e-05 0)
(0 -1.24954e-05 0)
(0 -9.45352e-06 0)
(0 -1.13184e-05 0)
(0 -7.25019e-06 0)
(0 -9.89097e-06 0)
(0 -6.16439e-06 0)
(0 -8.42171e-06 0)
(0 -1.165e-05 0)
(0 -1.0139e-05 0)
(0 -6.68488e-06 0)
(0 -8.42834e-06 0)
(0 -1.15805e-05 0)
(0 -9.95568e-06 0)
(0 -1.28807e-05 0)
(0 -1.13354e-05 0)
(0 -8.08377e-06 0)
(0 -9.44849e-06 0)
(0 -1.25212e-05 0)
(0 -1.0645e-05 0)
(0 -7.27895e-06 0)
(0 -8.55108e-06 0)
(0 -1.16864e-05 0)
(0 -9.6484e-06 0)
(0 -1.25269e-05 0)
(0 -1.05393e-05 0)
(0 -1.316e-05 0)
(0 -1.11367e-05 0)
(0 -1.36108e-05 0)
(0 -1.14761e-05 0)
(0 -1.38863e-05 0)
(0 -1.16262e-05 0)
(0 -1.39474e-05 0)
(0 -1.16266e-05 0)
(0 -1.41092e-05 0)
(0 -1.13982e-05 0)
(0 -1.33882e-05 0)
(0 -8.87929e-06 0)
(0 -1.08057e-05 0)
(0 -1.26495e-05 0)
(0 -9.97173e-06 0)
(0 -1.17696e-05 0)
(0 -4.7902e-06 0)
(0 -8.62493e-06 0)
(0 -5.91818e-06 0)
(0 -1.41248e-05 0)
(0 -1.32257e-05 0)
(0 -1.52817e-05 0)
(0 -1.43648e-05 0)
(0 -1.61861e-05 0)
(0 -1.53201e-05 0)
(0 -1.69182e-05 0)
(0 -1.60696e-05 0)
(0 -1.75941e-05 0)
(0 -1.66126e-05 0)
(0 -1.77718e-05 0)
(0 -1.69789e-05 0)
(0 -1.80378e-05 0)
(0 -1.72567e-05 0)
(0 -1.82609e-05 0)
(0 -1.74854e-05 0)
(0 -1.84416e-05 0)
(0 -1.76744e-05 0)
(0 -1.85859e-05 0)
(0 -1.78571e-05 0)
(0 -1.87045e-05 0)
(0 -1.79744e-05 0)
(0 -1.87713e-05 0)
(0 -1.80552e-05 0)
(0 -1.87867e-05 0)
(0 -1.80919e-05 0)
(0 -1.88002e-05 0)
(0 -1.81084e-05 0)
(0 -1.89337e-05 0)
(0 -1.81493e-05 0)
(0 -1.88267e-05 0)
(0 -1.72617e-05 0)
(0 -1.81007e-05 0)
(0 -1.8744e-05 0)
(0 -1.79715e-05 0)
(0 -1.86598e-05 0)
(0 -1.63747e-05 0)
(0 -1.78451e-05 0)
(0 -1.85452e-05 0)
(0 -1.49728e-05 0)
(0 -1.76914e-05 0)
(0 -1.83807e-05 0)
(0 -1.71388e-05 0)
(0 -1.75085e-05 0)
(0 -1.82142e-05 0)
(0 -1.20923e-05 0)
(0 -1.66405e-05 0)
(0 -1.72678e-05 0)
(0 -1.80076e-05 0)
(0 -1.90929e-05 0)
(0 0.000209044 0)
(0 0.000219916 0)
(0 0.000216135 0)
(0 0.000211953 0)
(0 -1.48667e-05 0)
(0 -1.69523e-05 0)
(0 -1.77093e-05 0)
(0 0.000121612 0)
(0 0.000129452 0)
(0 6.57992e-05 0)
(0 0.000261829 0)
(0 0.00024966 0)
(0 -1.94545e-05 0)
(0 8.78996e-05 0)
(0 0.000112793 0)
(0 -1.86452e-05 0)
(0 -1.83684e-05 0)
(0 -1.47786e-05 0)
(0 -1.93826e-05 0)
(0 0.000182573 0)
(0 0.00017091 0)
(0 0.00023292 0)
(0 0.000400637 0)
(0 0.000123158 0)
(0 0.000124801 0)
(0 0.000114466 0)
(0 0.00012697 0)
(0 0.000116552 0)
(0 0.000129649 0)
(0 0.000119276 0)
(0 0.000133013 0)
(0 0.000122661 0)
(0 0.000137176 0)
(0 0.000126648 0)
(0 0.000141965 0)
(0 0.000152452 0)
(0 0.00015774 0)
(0 0.000147865 0)
(0 0.000166314 0)
(0 0.00015472 0)
(0 0.000172186 0)
(0 0.000162219 0)
(0 0.00018055 0)
(0 0.00017074 0)
(0 0.000189445 0)
(0 0.000180211 0)
(0 0.00020011 0)
(0 0.000190914 0)
(0 0.000212624 0)
(0 0.000203262 0)
(0 0.00022707 0)
(0 0.000218595 0)
(0 0.000243593 0)
(0 0.000234703 0)
(0 0.000168259 0)
(0 0.000219996 0)
(0 9.55568e-05 0)
(0 8.94316e-05 0)
(0 0.000184449 0)
(0 0.000334821 0)
(0 6.90748e-05 0)
(0 8.42019e-05 0)
(0 0.000217507 0)
(0 0.000222956 0)
(0 0.000234092 0)
(0 0.00015446 0)
(0 0.000121843 0)
(0 0.000281976 0)
(0 5.56176e-05 0)
(0 0.0003085 0)
(0 0.000100341 0)
(0 -1.57268e-05 0)
(0 -1.91979e-05 0)
(0 0.000191338 0)
(0 4.76665e-06 0)
(0 3.21655e-06 0)
(0 0.000113728 0)
(0 0.000119515 0)
(0 -1.73315e-05 0)
(0 -1.80142e-05 0)
(0 7.26448e-05 0)
(0 0.000140314 0)
(0 0.000238313 0)
(0 0.000226496 0)
(0 0.000320626 0)
(0 0.000310068 0)
(0 -1.91552e-05 0)
(0 -1.7619e-05 0)
(0 0.000217018 0)
(0 0.000212255 0)
(0 0.000208657 0)
(0 0.000222726 0)
(0 7.9047e-05 0)
(0 8.41512e-05 0)
(0 9.44084e-05 0)
(0 8.97441e-05 0)
(0 7.97028e-05 0)
(0 8.59134e-05 0)
(0 7.6143e-05 0)
(0 8.30175e-05 0)
(0 -1.87011e-05 0)
(0 0.000126406 0)
(0 0.00013362 0)
(0 7.1499e-05 0)
(0 8.51724e-05 0)
(0 0.000144315 0)
(0 0.00016708 0)
(0 0.000156111 0)
(0 6.54236e-06 0)
(0 1.06619e-05 0)
(0 7.34935e-05 0)
(0 8.10731e-05 0)
(0 0.000285968 0)
(0 0.000170126 0)
(0 0.000103892 0)
(0 0.000108848 0)
(0 0.000242764 0)
(0 0.000315443 0)
(0 0.000124382 0)
(0 0.000113934 0)
(0 9.8022e-05 0)
(0 0.000103619 0)
(0 -1.68222e-05 0)
(0 -1.7511e-05 0)
(0 0.000287548 0)
(0 0.000280186 0)
(0 0.000223474 0)
(0 0.000230802 0)
(0 0.000208584 0)
(0 0.000206005 0)
(0 5.17261e-05 0)
(0 0.000236441 0)
(0 0.000247501 0)
(0 0.000213827 0)
(0 0.000203621 0)
(0 0.000223507 0)
(0 0.000132159 0)
(0 0.000233849 0)
(0 4.40798e-05 0)
(0 5.75036e-07 0)
(0 -9.58847e-07 0)
(0 0.000199445 0)
(0 0.000159629 0)
(0 0.000145649 0)
(0 0.000100062 0)
(0 0.000108958 0)
(0 0.000435517 0)
(0 0.00013317 0)
(0 0.000201091 0)
(0 0.000212532 0)
(0 0.000144353 0)
(0 9.06643e-05 0)
(0 8.93966e-05 0)
(0 0.000246114 0)
(0 0.000259411 0)
(0 0.000319972 0)
(0 0.000310113 0)
(0 5.02952e-05 0)
(0 0.000447276 0)
(0 0.000300192 0)
(0 0.000300883 0)
(0 8.64384e-05 0)
(0 9.30358e-05 0)
(0 7.32098e-05 0)
(0 0.000231435 0)
(0 0.000239608 0)
(0 0.000140349 0)
(0 0.000130493 0)
(0 1.85538e-06 0)
(0 -2.22467e-06 0)
(0 0.00024888 0)
(0 0.00016157 0)
(0 0.000330649 0)
(0 -1.61619e-05 0)
(0 -1.52865e-05 0)
(0 -1.68611e-05 0)
(0 -1.80987e-05 0)
(0 0.000293395 0)
(0 0.000110681 0)
(0 0.00010069 0)
(0 8.2151e-05 0)
(0 9.04141e-05 0)
(0 7.1702e-05 0)
(0 0.000328285 0)
(0 -1.7422e-05 0)
(0 -1.85329e-05 0)
(0 -1.60828e-05 0)
(0 0.000238339 0)
(0 1.24253e-05 0)
(0 1.71071e-05 0)
(0 0.000258033 0)
(0 0.000250428 0)
(0 1.55019e-05 0)
(0 2.24562e-05 0)
(0 2.11023e-05 0)
(0 2.85706e-05 0)
(0 3.01304e-05 0)
(0 3.68435e-05 0)
(0 3.84726e-05 0)
(0 4.59463e-05 0)
(0 2.74821e-05 0)
(0 4.74052e-05 0)
(0 5.57395e-05 0)
(0 5.71465e-05 0)
(0 6.61633e-05 0)
(0 6.77613e-05 0)
(0 7.68729e-05 0)
(0 7.91586e-05 0)
(0 8.9665e-05 0)
(0 0.000321389 0)
(0 7.16428e-05 0)
(0 8.07682e-05 0)
(0 -1.77146e-05 0)
(0 -1.88509e-05 0)
(0 -1.93776e-05 0)
(0 -1.96082e-05 0)
(0 -1.91018e-05 0)
(0 -1.97682e-05 0)
(0 -1.92163e-05 0)
(0 -1.98374e-05 0)
(0 -1.92355e-05 0)
(0 -1.98258e-05 0)
(0 -1.9175e-05 0)
(0 -1.97295e-05 0)
(0 -1.90251e-05 0)
(0 -1.95482e-05 0)
(0 -1.87759e-05 0)
(0 -1.92995e-05 0)
(0 -1.99745e-05 0)
(0 5.46355e-05 0)
(0 0.000189552 0)
(0 0.000181201 0)
(0 4.02882e-05 0)
(0 0.000200041 0)
(0 0.000249253 0)
(0 9.12943e-05 0)
(0 0.000102569 0)
(0 -3.27505e-06 0)
(0 0.000223178 0)
(0 9.90998e-05 0)
(0 9.8405e-05 0)
(0 0.000142793 0)
(0 0.00015557 0)
(0 0.000205376 0)
(0 0.000203786 0)
(0 6.42303e-05 0)
(0 7.94172e-07 0)
(0 -3.22797e-06 0)
(0 0.0001538 0)
(0 3.39832e-05 0)
(0 3.78868e-05 0)
(0 0.000192543 0)
(0 0.000197553 0)
(0 2.74721e-05 0)
(0 0.00010404 0)
(0 0.000115806 0)
(0 0.000117475 0)
(0 0.000129725 0)
(0 6.25937e-05 0)
(0 0.000193627 0)
(0 0.000259149 0)
(0 0.00027239 0)
(0 -1.84487e-05 0)
(0 -1.89915e-05 0)
(0 -1.97084e-05 0)
(0 -1.94108e-05 0)
(0 -2.00091e-05 0)
(0 -1.97249e-05 0)
(0 -1.7765e-05 0)
(0 -2.02509e-05 0)
(0 -1.99724e-05 0)
(0 0.000394109 0)
(0 0.000123331 0)
(0 0.000114331 0)
(0 0.000239797 0)
(0 0.000248617 0)
(0 0.000148965 0)
(0 0.000238908 0)
(0 0.000120348 0)
(0 0.000233292 0)
(0 0.000338248 0)
(0 0.000334145 0)
(0 -2.66377e-07 0)
(0 -3.96797e-06 0)
(0 -1.94265e-05 0)
(0 -1.97044e-05 0)
(0 -2.01604e-05 0)
(0 -1.99325e-05 0)
(0 -1.93927e-05 0)
(0 -1.96248e-05 0)
(0 -2.01708e-05 0)
(0 -1.98476e-05 0)
(0 0.000363852 0)
(0 0.000166566 0)
(0 0.000174657 0)
(0 0.000205502 0)
(0 0.000185649 0)
(0 0.000154302 0)
(0 0.000166529 0)
(0 -1.92034e-05 0)
(0 -1.94486e-05 0)
(0 -2.00263e-05 0)
(0 -1.96732e-05 0)
(0 0.000238544 0)
(0 0.00025095 0)
(0 -1.2641e-06 0)
(0 -4.57928e-06 0)
(0 -1.92536e-06 0)
(0 -5.15607e-06 0)
(0 -2.40908e-06 0)
(0 -5.65447e-06 0)
(0 -2.72824e-06 0)
(0 -5.90456e-06 0)
(0 -2.86936e-06 0)
(0 -6.82091e-06 0)
(0 0.000131419 0)
(0 0.000144383 0)
(0 0.000228028 0)
(0 0.000220683 0)
(0 2.83745e-05 0)
(0 3.29246e-05 0)
(0 0.000414505 0)
(0 -1.79659e-05 0)
(0 -1.89496e-05 0)
(0 -1.92167e-05 0)
(0 -1.98714e-05 0)
(0 -1.94534e-05 0)
(0 -2.00257e-05 0)
(0 -1.96309e-05 0)
(0 0.000213553 0)
(0 5.51801e-05 0)
(0 -2.02643e-05 0)
(0 2.38658e-05 0)
(0 0.000251004 0)
(0 0.000207537 0)
(0 0.000203788 0)
(0 0.000394432 0)
(0 0.000377625 0)
(0 6.19639e-05 0)
(0 7.22103e-05 0)
(0 9.08247e-05 0)
(0 8.3712e-05 0)
(0 -1.84458e-05 0)
(0 0.000157814 0)
(0 0.000304498 0)
(0 0.000145705 0)
(0 0.000376295 0)
(0 0.000360502 0)
(0 0.00036185 0)
(0 0.000345466 0)
(0 0.000347292 0)
(0 0.000331335 0)
(0 0.00033314 0)
(0 0.000318004 0)
(0 0.000315437 0)
(0 0.000319396 0)
(0 0.000305864 0)
(0 5.37334e-05 0)
(0 6.18192e-05 0)
(0 5.535e-05 0)
(0 -2.01186e-05 0)
(0 0.00041868 0)
(0 6.40325e-05 0)
(0 7.62276e-05 0)
(0 0.000199157 0)
(0 2.8608e-05 0)
(0 -6.05922e-06 0)
(0 -2.90473e-06 0)
(0 3.0596e-05 0)
(0 3.67626e-05 0)
(0 0.000134197 0)
(0 0.000146103 0)
(0 9.5227e-05 0)
(0 8.85733e-05 0)
(0 0.000108144 0)
(0 0.000108064 0)
(0 9.85858e-05 0)
(0 0.000108968 0)
(0 0.000109135 0)
(0 0.000307048 0)
(0 0.000159297 0)
(0 0.000159933 0)
(0 -6.09639e-06 0)
(0 0.000165555 0)
(0 0.000159079 0)
(0 0.000432815 0)
(0 5.86054e-05 0)
(0 0.000343059 0)
(0 0.00033757 0)
(0 5.85115e-05 0)
(0 0.000247535 0)
(0 0.000100581 0)
(0 -2.0283e-05 0)
(0 -1.93e-05 0)
(0 0.000153766 0)
(0 0.000167239 0)
(0 0.000141691 0)
(0 6.86742e-05 0)
(0 8.06304e-05 0)
(0 5.34084e-05 0)
(0 -5.77053e-06 0)
(0 0.000231521 0)
(0 0.000175508 0)
(0 0.000154662 0)
(0 0.000299494 0)
(0 0.000328618 0)
(0 0.00025065 0)
(0 -1.56309e-05 0)
(0 0.000165669 0)
(0 9.99326e-05 0)
(0 9.13628e-05 0)
(0 7.25439e-05 0)
(0 8.22884e-05 0)
(0 -1.41779e-05 0)
(0 5.75722e-05 0)
(0 2.6853e-05 0)
(0 6.29939e-05 0)
(0 0.000103968 0)
(0 0.000198283 0)
(0 0.000203977 0)
(0 0.00019049 0)
(0 0.000211703 0)
(0 0.00018168 0)
(0 -2.03062e-05 0)
(0 0.000179106 0)
(0 0.000244422 0)
(0 0.00024539 0)
(0 0.000352681 0)
(0 0.000342917 0)
(0 0.000347724 0)
(0 0.000335105 0)
(0 7.28168e-05 0)
(0 0.000369243 0)
(0 -8.32089e-06 0)
(0 6.42022e-07 0)
(0 7.72692e-07 0)
(0 -2.79349e-06 0)
(0 1.04619e-06 0)
(0 0.000113597 0)
(0 0.000124703 0)
(0 0.00015673 0)
(0 0.000134172 0)
(0 0.000162749 0)
(0 0.000140333 0)
(0 0.000112788 0)
(0 0.000119765 0)
(0 9.52212e-05 0)
(0 0.000143427 0)
(0 0.000174028 0)
(0 0.000174429 0)
(0 -8.96347e-06 0)
(0 -6.79676e-06 0)
(0 -5.57523e-06 0)
(0 -2.93949e-06 0)
(0 -1.52452e-06 0)
(0 1.57573e-06 0)
(0 2.98711e-06 0)
(0 2.95057e-07 0)
(0 5.33553e-06 0)
(0 4.22353e-06 0)
(0 9.69745e-06 0)
(0 9.02244e-06 0)
(0 1.5839e-05 0)
(0 1.45825e-05 0)
(0 6.45298e-05 0)
(0 8.47698e-06 0)
(0 1.43453e-05 0)
(0 -2.50042e-06 0)
(0 1.51742e-06 0)
(0 0.000349007 0)
(0 -2.0358e-05 0)
(0 0.000205454 0)
(0 0.000241229 0)
(0 0.000267996 0)
(0 0.0002327 0)
(0 1.00477e-05 0)
(0 0.000224223 0)
(0 0.000296809 0)
(0 8.43219e-06 0)
(0 1.45284e-05 0)
(0 0.000312902 0)
(0 8.57005e-05 0)
(0 7.3756e-05 0)
(0 9.96844e-05 0)
(0 0.000128378 0)
(0 0.000138243 0)
(0 0.000145457 0)
(0 -1.32543e-06 0)
(0 -5.28896e-06 0)
(0 2.04597e-05 0)
(0 -1.51815e-05 0)
(0 -1.6225e-05 0)
(0 -1.69151e-05 0)
(0 -1.77566e-05 0)
(0 -1.82493e-05 0)
(0 -1.88547e-05 0)
(0 -1.92298e-05 0)
(0 -1.96647e-05 0)
(0 -1.92924e-05 0)
(0 -1.9917e-05 0)
(0 -1.95291e-05 0)
(0 -2.01148e-05 0)
(0 -1.97706e-05 0)
(0 -2.0269e-05 0)
(0 -1.99555e-05 0)
(0 -2.00175e-05 0)
(0 -1.9808e-05 0)
(0 -1.73168e-05 0)
(0 -2.04079e-05 0)
(0 -2.03871e-05 0)
(0 -2.00986e-05 0)
(0 -4.6768e-06 0)
(0 0.000212882 0)
(0 0.000231157 0)
(0 0.000173773 0)
(0 0.000166102 0)
(0 0.000179048 0)
(0 -1.97173e-05 0)
(0 -2.01876e-05 0)
(0 -1.74142e-05 0)
(0 0.000185951 0)
(0 7.53509e-05 0)
(0 0.000183399 0)
(0 0.000132993 0)
(0 0.000114525 0)
(0 0.000124075 0)
(0 0.000144111 0)
(0 0.000228643 0)
(0 6.55833e-05 0)
(0 0.000154981 0)
(0 0.000173419 0)
(0 0.000260426 0)
(0 0.000116964 0)
(0 0.000130766 0)