/*--------------------------------*- C++ -*----------------------------------*\
| =========                 |                                                 |
| \\      /  F ield         | OpenFOAM: The Open Source CFD Toolbox           |
|  \\    /   O peration     | Version:  v2012                                 |
|   \\  /    A nd           | Website:  www.openfoam.com                      |
|    \\/     M anipulation  |                                                 |
\*---------------------------------------------------------------------------*/
FoamFile
{
    version     2.0;
    format      ascii;
    class       surfaceVectorField;
    location    "1000";
    object      ddtCorrDdt0(Uf);
}
// * * * * * * * * * * * * * * * * * * * * * * * * * * * * * * * * * * * * * //

dimensions      [0 1 -2 0 0 0 0];


internalField   nonuniform List<vector> 
14470
(
(0.000613707 -0.00197817 1.64362e-18)
(0.000603047 -0.0020272 9.13712e-19)
(0.000539344 -0.0019944 -3.38854e-18)
(0.00323264 0.00536647 -2.49429e-17)
(0.0047583 0.00435629 5.07118e-17)
(0.000235433 -0.000253207 4.87315e-18)
(0.000254948 -0.000243862 -3.53314e-18)
(0.000256086 -0.000280413 -4.35797e-18)
(-0.0021953 -0.0644647 2.03033e-17)
(-0.00188525 -0.0652809 1.59536e-17)
(-0.00210716 -0.0646044 -1.94441e-18)
(2.34866e-06 -0.00012791 -7.92912e-19)
(1.94956e-06 -0.000131572 2.80481e-19)
(3.89379e-06 -0.000188157 -1.6417e-18)
(0.0211594 0.0210983 -5.58823e-18)
(0.0223222 0.0212659 -2.88064e-17)
(0.0217576 0.0202254 1.92563e-17)
(0.0148063 -0.00331638 1.57669e-17)
(0.0150609 -0.00256237 2.05432e-17)
(0.0158612 -0.00313058 -1.85995e-18)
(-0.0185362 0.000875644 -2.97949e-17)
(-0.017994 0.00126368 -6.28373e-18)
(-0.0228229 0.00160886 -4.95858e-17)
(0.00123036 0.00128703 2.24397e-19)
(0.00126592 0.00138383 8.45722e-19)
(0.00134485 0.001278 -7.57458e-19)
(4.63273e-05 -0.000299877 -2.9059e-18)
(3.85234e-05 -0.000281267 1.87351e-18)
(3.78484e-05 -0.000270901 -9.79315e-20)
(5.02914e-05 -0.000327813 -2.52355e-18)
(5.41296e-05 -0.000319302 8.17483e-19)
(0.000270506 0.000105372 1.09064e-18)
(0.000262944 0.000108089 -2.12337e-20)
(0.000274327 0.000102667 9.95075e-19)
(-0.0506067 -0.037404 6.72861e-18)
(-0.0444531 -0.0409739 -1.05568e-17)
(-0.0474931 -0.0386999 4.01582e-18)
(0.000426953 0.00091495 -7.92626e-19)
(0.000403179 0.000852366 3.40153e-19)
(0.000344758 0.000939884 9.0361e-19)
(-0.00765462 0.00351633 -2.33318e-18)
(-0.00821065 0.00389761 4.28927e-18)
(-0.00824301 0.00312299 -5.24227e-18)
(0.00982981 0.0119425 2.42629e-17)
(0.0106995 0.0121653 -9.85273e-18)
(0.0105702 0.0112475 1.79447e-17)
(0.000317896 -0.00017037 -3.28887e-18)
(0.000335026 -0.000173655 1.51935e-18)
(0.000325941 -0.000147702 -6.22603e-19)
(0.00361235 -0.0487085 -2.08184e-17)
(0.00433879 -0.0508018 -9.61253e-18)
(0.00143139 -0.0502395 -2.09812e-17)
(-0.000194795 0.000238481 1.09846e-19)
(-0.000202373 0.000212737 5.66724e-20)
(-0.000213659 0.00022211 6.8451e-20)
(-0.000341032 0.000560666 -2.08837e-19)
(-0.000390623 0.000551023 5.44142e-19)
(-0.000358998 0.000514265 6.2219e-19)
(-6.52167e-07 -3.73896e-05 -2.6868e-18)
(2.55523e-07 -3.76292e-05 8.00517e-20)
(-0.00260506 -0.0597099 -1.4511e-20)
(-0.00149225 -0.0600579 -8.31364e-18)
(-0.00216078 -0.0614939 2.75722e-17)
(-0.0155735 0.00182464 -3.44086e-17)
(-0.0219472 0.001195 -4.7932e-17)
(-0.0540465 -0.0348025 -3.90597e-18)
(-0.0574129 -0.0354912 7.62825e-18)
(0.00191983 -0.00330301 3.65674e-20)
(0.00191159 -0.00317649 -1.09814e-17)
(0.0017539 -0.00326836 4.31107e-18)
(0.00015183 -0.000387415 1.69989e-18)
(0.000161064 -0.000365716 3.84733e-18)
(0.000147798 -0.000383216 9.61845e-19)
(2.49006e-06 -3.23908e-05 -3.34144e-19)
(2.73467e-06 -3.84556e-05 -1.32364e-18)
(5.63111e-06 -4.94004e-05 -3.3776e-19)
(-0.000178229 0.0002449 3.96111e-19)
(-0.000193288 0.000259199 -5.32605e-19)
(0.0163633 0.00556065 -2.07076e-18)
(0.0170447 0.00600939 -5.86466e-18)
(0.0171849 0.00502544 -1.12565e-17)
(-0.0316684 -0.00160208 1.99362e-18)
(-0.0312444 -0.00175812 -1.32843e-18)
(-0.033069 -0.00104664 4.46622e-17)
(0.0244982 0.0183588 5.66891e-18)
(0.0247546 0.0178863 -2.42594e-17)
(0.0251092 0.0178217 -2.48198e-17)
(0.000177394 -0.000294342 1.10703e-18)
(0.000165139 -0.000303227 1.48813e-18)
(0.000181893 -0.000266017 2.2608e-18)
(0.00032309 -4.64394e-05 -5.83836e-19)
(0.000331121 -5.23083e-05 -1.73497e-18)
(0.000334922 -3.89769e-05 -1.88631e-20)
(3.69983e-05 1.01638e-05 1.1964e-19)
(4.1353e-05 1.01807e-05 -1.48615e-19)
(5.61005e-05 7.37067e-06 -7.75203e-19)
(-0.000368474 0.00866045 -7.49664e-18)
(-5.40174e-05 0.00838163 5.60849e-18)
(4.37525e-05 0.0089581 -9.47311e-18)
(-0.00573241 0.00309168 4.87767e-18)
(-0.00525368 0.0031763 2.69969e-18)
(-0.00532682 0.00272183 -1.11803e-18)
(-0.000166878 -0.00328204 6.13956e-18)
(-0.00022046 -0.00338 -9.78937e-18)
(-3.83869e-05 -0.00337051 -1.26606e-17)
(0.00985158 -0.0602611 -3.5973e-17)
(0.0104996 -0.0605193 1.42178e-17)
(0.0121789 -0.0618944 1.8069e-17)
(0.00549287 0.006106 -1.7357e-18)
(0.005106 0.00589334 -8.66984e-18)
(0.00505555 0.00640783 -9.95981e-18)
(0.0156031 0.00495419 1.83558e-17)
(0.0154269 0.00587031 2.88802e-17)
(0.0656526 0.0139355 1.65353e-17)
(0.0619839 0.0120099 3.81712e-17)
(0.0649579 0.00945019 3.12699e-18)
(-0.0265885 -0.0118586 1.58406e-17)
(-0.0264405 -0.00684571 1.30268e-17)
(-0.0311344 -0.00929807 -1.07946e-17)
(6.24255e-07 -1.9444e-05 2.72014e-18)
(2.14101e-06 -2.98847e-05 9.37744e-19)
(2.18365e-05 -0.000249108 -5.87338e-19)
(2.80799e-05 -0.000254047 2.12148e-18)
(1.15327e-05 -0.000254781 -3.18364e-18)
(3.87022e-05 -0.000452297 -1.87215e-18)
(3.89683e-05 -0.00048502 -6.47858e-19)
(2.576e-05 -0.000487475 -3.54175e-18)
(-0.03142 0.00374243 -8.82059e-18)
(-0.0317505 0.00326277 8.91472e-18)
(-0.0314748 0.00386554 -3.62746e-18)
(1.37696e-06 -6.65056e-05 2.61762e-18)
(2.69842e-06 -3.13503e-05 -2.57956e-20)
(3.30128e-06 -2.96184e-05 1.11171e-18)
(-0.000981915 0.000382234 1.64972e-18)
(-0.000953197 0.000299608 6.35297e-20)
(-0.00104413 0.000315696 1.12266e-18)
(0.000298964 -0.000160969 -3.85669e-19)
(0.000309375 -0.000187467 1.32904e-18)
(-0.000840536 0.00910741 -8.25219e-18)
(-0.000930512 0.00843445 -8.27244e-19)
(3.19259e-05 1.23808e-05 7.41807e-19)
(3.41868e-05 9.90139e-06 3.47331e-19)
(0.00414756 0.0106894 -2.04553e-19)
(0.0047968 0.0108572 -2.18152e-18)
(0.00404886 0.0112169 -1.11767e-17)
(8.58169e-06 -0.000101622 1.84435e-18)
(6.51467e-06 -0.000111772 -3.80297e-18)
(0.00340788 -0.00441686 6.24875e-18)
(0.00349401 -0.00417063 6.72049e-18)
(0.00369195 -0.00439071 -4.05919e-18)
(-0.00222677 -0.0644514 -1.29984e-17)
(-0.00297137 -0.0636216 1.04841e-17)
(0.0002433 0.000113731 -4.80149e-19)
(0.000239838 0.000110493 -3.68177e-19)
(0.000235393 0.000114548 1.30934e-18)
(0.0066711 0.0277423 2.32381e-17)
(0.00611634 0.0289565 6.92724e-18)
(0.00525928 0.0278898 -2.37984e-18)
(-0.000919108 0.000430043 2.35291e-18)
(-0.00100215 0.000460093 -2.94788e-19)
(1.8143e-06 -3.36788e-05 2.53267e-20)
(0.000470027 -0.00371522 -2.03165e-19)
(0.000423219 -0.00381079 -3.50587e-19)
(0.000340898 -0.0037084 -2.27678e-18)
(0.00521994 -0.00926262 5.95983e-18)
(0.00559444 -0.00932865 9.54111e-20)
(0.00519976 -0.00981182 9.67662e-18)
(0.000259353 -0.000181052 1.61362e-19)
(0.000248709 -0.000192998 -3.53901e-18)
(0.000242772 -0.000176631 -4.86713e-18)
(-0.0068461 0.0134555 -4.10682e-18)
(-0.00594838 0.0128823 -5.78009e-18)
(-0.00707314 0.0125385 1.04708e-17)
(9.47551e-05 1.8285e-05 2.51588e-19)
(9.0353e-05 1.89761e-05 -1.145e-19)
(9.25429e-05 2.39133e-05 -1.45497e-19)
(0.00120642 0.0011641 8.81451e-19)
(0.0011323 0.0012722 1.07567e-18)
(-0.0277165 0.00169254 4.35088e-17)
(-0.0260843 0.0019891 -1.55661e-17)
(0.00141572 0.00444822 6.48096e-18)
(0.00146166 0.00419743 8.42777e-19)
(0.00170511 0.0043658 2.50343e-19)
(-0.00620807 0.00293593 3.36039e-18)
(-0.00666705 0.00272219 4.36594e-18)
(-0.00621564 0.00235783 -8.50679e-19)
(0.0206871 -0.0289415 -2.15873e-17)
(0.0255317 -0.0257932 2.77309e-17)
(0.0213545 -0.0236516 1.91594e-18)
(0.000418792 -0.00124925 -3.61391e-18)
(0.000387186 -0.00130275 -1.82768e-19)
(0.00037665 -0.00120922 7.39226e-19)
(-0.000522361 -0.00876346 -4.78333e-17)
(-0.00064522 -0.00897903 2.29245e-17)
(-0.000365177 -0.00898813 1.53818e-17)
(-0.026581 0.00252114 2.99622e-17)
(-0.0231608 0.00204635 7.18926e-17)
(-0.0272435 0.00277236 7.99355e-17)
(0.209278 0.108735 3.84165e-19)
(0.194457 0.129528 2.82121e-18)
(0.228266 0.104565 3.44851e-18)
(0.062109 -0.0111399 7.79326e-18)
(0.0582255 -0.0176649 -2.82348e-17)
(0.068507 -0.0121827 8.82992e-18)
(2.37363e-06 -7.20648e-05 7.57108e-19)
(2.61114e-06 -8.14429e-05 1.77672e-18)
(7.50637e-06 -0.000106164 1.49697e-18)
(0.00230421 -0.0068373 1.99973e-17)
(0.0026546 -0.00669351 -2.50136e-18)
(0.00231343 -0.00652153 -7.70201e-18)
(0.0422498 0.0106961 -9.35459e-17)
(0.0416005 0.00725182 -3.13035e-17)
(0.0386336 0.00937026 6.60981e-18)
(0.000148629 -0.000220615 2.46103e-19)
(0.000160773 -0.000211928 -1.67295e-19)
(0.000159753 -0.000216512 7.22825e-19)
(4.53156e-06 -0.000119005 8.27124e-19)
(3.60395e-06 -0.000114269 2.12295e-18)
(1.26299e-06 -7.40416e-05 1.13275e-18)
(0.00232681 -0.00698226 3.97496e-17)
(0.00206543 -0.00687221 -1.73041e-17)
(0.00182456 -0.0458504 1.54714e-18)
(0.00541902 -0.0469801 -5.1126e-17)
(0.00905707 0.0116156 -2.01145e-20)
(0.00914917 0.012479 7.45361e-18)
(0.00291471 -0.00116158 -1.87674e-18)
(0.0030162 -0.00101143 1.82473e-19)
(0.00286303 -0.00098649 -8.37933e-19)
(-0.00609156 0.00349484 -7.69268e-19)
(0.028369 0.00736538 3.62746e-18)
(0.0278077 0.00585152 -1.92375e-18)
(0.0269937 0.00732682 7.84655e-18)
(4.85056e-06 -0.000122532 -1.35692e-19)
(2.34135e-06 -0.000170111 -1.03266e-19)
(-0.00660424 0.0301955 -1.63818e-17)
(-0.00723309 0.028211 1.67708e-18)
(-0.00873213 0.02974 -2.03668e-17)
(0.01185 -0.0602649 -2.82481e-17)
(0.00785812 -0.0615245 -4.01044e-17)
(0.00503583 -0.00887584 -1.98945e-17)
(0.00467987 -0.00941013 -9.90969e-18)
(-0.00561636 -0.0587319 2.13254e-18)
(-0.00436605 -0.0600524 5.1255e-18)
(-0.00490023 -0.060323 2.7485e-18)
(0.0437624 0.00576499 -2.93888e-17)
(0.0435174 0.00682064 -3.12797e-18)
(0.0436492 0.00721005 -5.45513e-18)
(0.0445842 0.00334994 -4.62665e-17)
(0.0433443 0.003282 -9.42306e-18)
(0.0093418 0.00360479 8.46612e-18)
(0.0100032 0.00358071 -9.83225e-18)
(0.00958704 0.00417537 -9.29253e-18)
(-0.0235707 -0.0192988 9.7958e-18)
(-0.020944 -0.0146157 -3.75016e-18)
(0.00041983 -0.000169567 5.30875e-21)
(0.000436781 -0.000178091 2.50882e-18)
(0.000411588 -0.000138104 2.07032e-18)
(0.0564891 -0.00959154 -4.1517e-17)
(0.0711092 -0.00419667 2.07854e-17)
(0.0113391 0.00922991 -5.49063e-18)
(0.0110533 0.00857072 -1.39879e-17)
(0.0105562 0.00922284 7.60612e-18)
(0.00324779 0.00295817 -1.30278e-18)
(0.00338167 0.00314131 -2.94486e-18)
(0.00350158 0.00289006 -1.91008e-18)
(1.8011e-06 -7.96616e-05 -2.15352e-19)
(3.07636e-06 -0.000132684 3.65322e-19)
(-0.0113947 -0.0587534 -6.76755e-18)
(-0.013011 -0.0582131 3.77494e-17)
(-0.0145474 -0.0572262 -3.2039e-18)
(0.00433382 0.0100704 2.57498e-18)
(0.00359199 0.0104487 -5.52849e-18)
(0.042162 0.202025 7.57719e-18)
(0.0242743 0.207237 3.13774e-17)
(0.0323995 0.220099 -1.44663e-17)
(1.46584e-05 -0.000244569 4.2103e-18)
(3.30616e-05 -0.00024702 -2.41113e-18)
(0.0940061 -0.0278562 -6.70616e-18)
(0.0847958 -0.0330892 -3.93527e-17)
(0.0846601 -0.0297961 -1.70387e-17)
(0.0392105 0.00409873 9.90194e-18)
(0.0335454 0.00300263 -3.25468e-17)
(0.0352481 0.00184216 3.29651e-17)
(0.206711 0.089787 -2.11048e-18)
(0.191676 0.105462 -3.08697e-18)
(0.000147422 9.60562e-05 -1.31426e-18)
(0.00015482 9.71085e-05 2.22398e-19)
(0.000154084 0.000102903 -6.6906e-19)
(0.000137696 -0.000224689 -1.60712e-18)
(0.000135538 -0.000236931 4.07822e-18)
(-1.47631e-06 -3.55349e-05 -7.26919e-19)
(1.07557e-05 -9.19748e-05 -2.14032e-18)
(1.24275e-05 -8.81979e-05 -6.55301e-19)
(1.59012e-05 -0.00010932 -6.91573e-19)
(-0.00350694 -0.0598101 2.41539e-17)
(-0.00375434 -0.0579677 -1.42905e-17)
(0.000642482 -0.0106233 -2.72217e-17)
(-1.11553e-05 -0.0108573 4.63573e-18)
(0.000831122 -0.0102632 2.48e-17)
(-0.0176597 -0.00404503 -3.88432e-18)
(-0.0192235 -0.00385499 4.42148e-17)
(-0.0175623 -0.00246716 -2.67885e-17)
(0.000401781 -0.00123478 -6.93665e-18)
(0.00042177 -0.00123504 4.50184e-19)
(0.000109257 -0.000577313 -2.27189e-18)
(0.000119973 -0.000562871 1.29925e-18)
(0.000113947 -0.000568983 1.60984e-18)
(-0.00626837 -0.000721193 -2.0827e-18)
(-0.00595501 -0.00117281 1.49092e-19)
(-0.00666328 -0.00128021 2.99393e-19)
(6.16648e-05 -0.0004865 2.36858e-19)
(6.01503e-05 -0.000523551 -1.74988e-18)
(7.00471e-05 -0.000478743 1.22925e-18)
(-0.00215907 -0.0644117 -2.40884e-17)
(-0.00287169 -0.063702 -1.46198e-17)
(-0.00182106 -0.0644211 -4.00258e-17)
(5.08122e-06 -0.000412508 -8.02382e-19)
(1.8442e-05 -0.000400696 3.13959e-20)
(1.20854e-05 -0.000382584 -7.75196e-18)
(0.0823858 -0.0371278 -4.23405e-18)
(0.0872744 -0.0363862 -1.84972e-17)
(0.0745266 -0.0416924 3.00613e-17)
(-0.00568763 0.0319213 6.34007e-18)
(-0.00429643 0.0304054 -1.40194e-18)
(0.0911614 0.00581504 -3.37749e-17)
(0.0804231 0.002082 -1.14965e-18)
(0.0797373 0.00356741 5.79892e-17)
(0.00293792 0.0146604 1.41792e-17)
(0.00251231 0.0154545 -1.49454e-17)
(0.00205382 0.014676 -3.29481e-18)
(-0.00476228 0.00331726 -6.90005e-19)
(-0.00509726 0.00370709 -3.2949e-18)
(-5.34785e-06 -0.000421194 1.40173e-18)
(1.23861e-06 -0.000453612 6.05908e-18)
(0.0119385 0.0106131 -1.16379e-17)
(0.012423 0.0112254 2.10469e-17)
(0.012844 0.0103904 -6.82109e-18)
(-0.0322244 -0.00138136 2.13728e-17)
(-0.0304474 -0.00190074 -2.8478e-17)
(0.000463699 0.0518816 -4.10849e-18)
(-0.000374189 0.0502015 -1.26966e-17)
(0.00190994 0.0494714 -2.23603e-17)
(-8.13595e-05 0.0540492 -3.41827e-18)
(-0.000920114 0.0550883 -1.51903e-17)
(-0.00172264 0.00447079 -1.25668e-18)
(-0.00201604 0.00429965 -5.1548e-18)
(-0.00173271 0.00418019 -5.54979e-18)
(0.000373933 -9.28337e-08 2.79121e-19)
(0.000360762 1.30334e-05 -2.47064e-19)
(0.000348057 3.75162e-06 5.01278e-19)
(0.000631449 -0.00187825 1.96209e-18)
(0.000704549 -0.00195974 2.84518e-18)
(0.00105478 0.00387674 1.39014e-18)
(0.00113314 0.00366859 4.54368e-19)
(0.000888416 0.00371836 8.33849e-19)
(0.00011117 0.00800226 1.09935e-17)
(-0.00019642 0.00760746 -4.8247e-18)
(0.000363177 0.00751041 4.94576e-18)
(0.0215694 -0.00245228 1.46151e-18)
(0.0205696 -0.00309055 6.65828e-18)
(0.0218451 -0.00385928 -3.65187e-18)
(0.0237378 0.0298413 2.42494e-17)
(0.022961 0.0318682 -4.33552e-18)
(0.02266 0.030789 2.90828e-17)
(-0.00663574 -0.000346006 2.10583e-18)
(-0.00598275 -0.000256979 5.19096e-18)
(2.87911e-06 -6.70214e-05 -2.29104e-18)
(3.09517e-07 -4.27061e-05 -1.00154e-19)
(0.0108234 0.0139813 -1.21326e-17)
(0.01105 0.014562 -6.78749e-18)
(0.0116496 0.0138662 1.80233e-17)
(0.0016224 -0.0399391 -1.13667e-17)
(0.00116144 -0.0426246 1.41598e-17)
(0.00488899 -0.041854 2.84649e-19)
(0.000493797 0.00820941 4.40492e-18)
(0.000722897 -0.00104356 3.01784e-18)
(0.000798508 -0.00103814 -3.64669e-18)
(0.000724754 -0.000960886 1.17081e-18)
(-0.00640303 0.0238005 -1.70836e-17)
(-0.00772692 0.0247722 7.61583e-18)
(-0.00787856 0.0231817 2.63193e-18)
(-0.0310167 0.00433541 -1.19881e-17)
(-0.030944 0.0049002 -6.27963e-19)
(-0.0316837 0.00471541 3.70614e-17)
(0.0136204 -0.0144563 -4.36567e-17)
(0.0133275 -0.0138501 1.13211e-17)
(0.013035 -0.0144634 -9.7549e-18)
(-1.64458e-05 -0.000419509 1.26054e-18)
(-2.0753e-05 -0.000454442 3.52594e-18)
(0.0551535 -0.00876795 -1.73985e-17)
(0.0505726 -0.0144846 -3.50624e-17)
(0.000385867 -8.20612e-06 -2.09627e-19)
(0.00039922 -3.60964e-06 6.97453e-20)
(-1.56899e-05 -0.000388689 5.96927e-18)
(0.000191027 -0.000391446 -3.27546e-18)
(0.000179383 -0.000412562 7.51464e-20)
(0.000174504 -0.000440101 1.91399e-19)
(-0.0165502 0.00133024 -2.53291e-17)
(-0.0299091 0.00610938 -5.74276e-17)
(-0.0223586 0.00499175 2.59134e-17)
(0.00311732 0.0027192 -1.15802e-19)
(0.00298157 0.00295065 2.68899e-18)
(0.000141254 -0.000406465 -9.17528e-19)
(0.00015949 -0.000390892 1.01089e-18)
(8.32114e-05 -0.000699401 -4.14439e-18)
(0.000103393 -0.000690584 1.1664e-19)
(0.000101723 -0.000756869 -1.50524e-18)
(0.0441756 -0.00281563 1.0995e-17)
(0.0443821 -0.00414388 -2.0682e-17)
(0.0439571 -0.00792329 5.63556e-18)
(0.0106992 0.0130778 -4.19668e-17)
(0.0115095 0.0122912 -4.34245e-17)
(0.000272195 -0.000167109 1.45733e-18)
(0.000277206 -0.000193009 4.78059e-18)
(0.0241802 0.0184367 -1.15722e-17)
(0.0237331 0.0183454 4.02251e-17)
(0.000419693 -0.000943936 -3.25935e-18)
(0.000407648 -0.000871001 9.93593e-19)
(0.000445126 -0.000905094 4.40969e-18)
(-0.00745769 0.0264071 1.64557e-17)
(-0.005761 0.0269747 9.64217e-18)
(-0.00171862 0.00478166 3.78427e-18)
(-0.00143891 0.00460633 -5.58372e-18)
(-0.000338273 0.000599506 -6.36459e-19)
(-0.000305801 0.000570069 2.80168e-19)
(0.00234342 -0.0112533 -1.68513e-17)
(0.00245744 -0.0115594 -2.48314e-17)
(0.00207648 -0.0114974 1.56836e-17)
(-0.00118922 0.00166417 -1.94988e-18)
(-0.00109038 0.00179001 -5.56684e-18)
(-0.00103738 0.00166252 -1.51015e-18)
(0.0446628 0.0118008 1.64533e-18)
(0.0418094 0.0140645 -9.43981e-18)
(0.00250001 0.212109 6.38444e-19)
(-0.023305 0.2151 -3.94099e-18)
(-0.0126667 0.231439 -4.71582e-17)
(-0.00103054 0.00220583 7.1588e-19)
(-0.000887369 0.00230652 1.26872e-19)
(-0.000877048 0.00214785 5.49138e-20)
(0.000139056 9.49351e-05 1.15035e-19)
(0.000132001 9.34137e-05 8.88245e-19)
(0.000139005 0.000100211 1.14436e-18)
(2.84043e-05 -0.000256812 1.32108e-18)
(2.13468e-05 -0.000220621 -2.30577e-19)
(2.16136e-05 -0.000227235 -1.90859e-19)
(0.000675913 -0.00105015 1.22088e-18)
(0.000730559 -0.00111566 -8.72252e-19)
(-0.0023718 -0.000826009 -9.92143e-18)
(-0.00216377 -0.00124207 -1.23078e-16)
(-0.00269769 -0.00131849 -3.42696e-17)
(-0.0375969 0.0120891 -4.71816e-18)
(-0.0358325 0.0126172 4.97822e-17)
(-0.0366942 0.0126381 -4.0377e-17)
(0.00987959 -0.0405714 1.00689e-17)
(0.00432301 -0.0432984 6.13483e-17)
(0.0140077 -0.04516 1.15535e-17)
(0.000279296 9.77501e-05 1.14588e-18)
(0.000266853 0.000100838 -1.6617e-18)
(0.0200049 0.0207622 5.25572e-18)
(0.0203895 0.0219197 5.67627e-18)
(0.0103923 -0.0100952 7.1787e-19)
(0.0110529 -0.00965993 -1.09581e-17)
(0.0103587 -0.00934113 5.54519e-18)
(0.00194244 -0.0122504 -2.0826e-17)
(0.00154376 -0.0122276 -8.56995e-18)
(0.00170848 -0.0119916 1.96884e-18)
(0.000174053 -0.000202966 1.80488e-19)
(0.000187909 -0.000194187 -1.77156e-19)
(0.000191585 -0.000193898 -2.07714e-18)
(0.000902678 0.00459645 -2.48235e-18)
(0.00117472 0.00452464 2.30306e-18)
(0.000909083 0.00436294 -3.43762e-18)
(0.101068 -0.0189875 1.49002e-18)
(0.105384 -0.0228615 6.27417e-17)
(-0.0291733 0.00349061 -9.18067e-18)
(-0.00677686 0.0332209 8.83303e-18)
(-0.00471236 0.0334075 -5.2391e-18)
(4.63396e-05 -0.000422801 8.48999e-20)
(3.19691e-05 -0.000414932 -3.50433e-19)
(3.76107e-05 -0.000578876 3.70853e-18)
(3.15316e-05 -0.000591957 -6.72588e-19)
(5.13881e-05 -0.000597104 2.98922e-19)
(0.000140432 9.00031e-05 -1.33069e-18)
(0.102114 0.0104328 1.24838e-17)
(0.103508 0.0101966 -2.11306e-17)
(-0.0263119 0.0023665 -8.582e-17)
(-0.0288543 0.00290468 -1.96339e-17)
(-0.030974 0.00315891 -3.84077e-17)
(-0.0202818 2.30235e-05 1.93594e-17)
(0.0574917 0.198001 1.05146e-17)
(0.0504771 0.185862 -1.04371e-17)
(0.00116313 0.00103988 1.80211e-20)
(0.00111667 0.000945867 3.75357e-20)
(0.00106538 0.00106176 3.25316e-19)
(0.0129622 -0.0639803 -8.35921e-18)
(0.00254847 -0.0613769 -1.12799e-17)
(0.00967792 -0.0700653 -1.11727e-17)
(7.77249e-05 -0.0101641 -2.88052e-17)
(0.000248209 -0.010516 -3.455e-17)
(0.000527087 -0.0100649 8.63793e-18)
(0.000696236 -0.00343752 -1.71753e-17)
(0.000560342 -0.00346575 -6.62641e-19)
(0.000582632 -0.00333384 -2.05492e-18)
(-0.00126076 -8.43323e-06 1.47108e-19)
(-0.0012088 7.82078e-05 -1.38058e-19)
(-0.00116039 -1.13212e-05 2.12397e-20)
(0.00201188 -0.00190317 -3.20549e-19)
(0.0019339 -0.00183117 2.67592e-18)
(0.00187642 -0.001949 1.19202e-19)
(-0.000603972 -0.0114439 2.16715e-17)
(-0.000696695 -0.0115851 3.87439e-17)
(-0.000331993 -0.0116527 1.3969e-16)
(-8.88003e-05 0.000214072 -2.73549e-19)
(-0.000101832 0.000222308 -7.77802e-20)
(-8.86658e-05 0.000224968 -1.05067e-19)
(0.000344713 -0.000200153 -4.52719e-19)
(0.000345466 -0.000174072 3.82764e-18)
(2.90949e-05 -0.000423744 2.46605e-18)
(3.2076e-05 -0.000412326 -2.42853e-18)
(2.33844e-05 -0.000368999 -6.92428e-18)
(0.000397783 -0.00136593 -8.06951e-19)
(0.000405541 -0.00143776 -2.13091e-18)
(0.000446874 -0.00138557 -3.3153e-18)
(-0.00051219 0.000495664 4.83114e-19)
(-0.000535058 0.00045404 8.17404e-19)
(-0.000500017 0.000446668 -1.42048e-19)
(-0.00175802 0.00922376 -3.33835e-18)
(-0.00119086 0.00946822 -8.86846e-18)
(-0.00163355 0.00991074 3.80685e-19)
(-0.00301224 0.0053711 2.14049e-18)
(-0.00296198 0.0057265 -3.03286e-18)
(-0.00332157 0.00547709 -4.25603e-18)
(0.00618877 -0.0619181 -3.96048e-18)
(0.00419915 -0.0631814 5.88985e-18)
(0.00515652 -0.0614581 -2.32886e-17)
(5.55752e-05 -0.000963248 -2.69919e-18)
(8.92302e-05 -0.00100562 5.0057e-18)
(8.94322e-05 -0.000934159 2.74654e-18)
(0.0043492 0.00567336 5.83305e-18)
(0.00399955 0.0055693 -5.62363e-19)
(0.00431447 0.00527994 1.75513e-18)
(-0.00115302 0.00210344 4.4858e-18)
(-0.00118771 0.00226304 -8.41628e-19)
(0.00115062 -0.00171217 7.06665e-18)
(0.0010647 -0.00172299 1.91777e-18)
(0.00113117 -0.00165975 6.37633e-18)
(0.00515833 -0.0136155 1.54259e-18)
(0.00447679 -0.0135408 -2.83842e-18)
(0.00483746 -0.014407 -1.86198e-18)
(0.0100355 0.0137193 -7.37357e-18)
(0.00168287 -0.0373565 4.4783e-17)
(-0.00187213 -0.037807 -1.3273e-17)
(-3.83597e-05 0.000169974 -4.86254e-20)
(-3.96568e-05 0.000160295 -3.01489e-20)
(-2.77867e-05 0.000156285 -1.09158e-20)
(0.0199954 -0.0320764 -5.14427e-17)
(0.0168896 -0.0306338 -5.61535e-17)
(0.00280367 -0.00128651 2.80669e-18)
(0.00295866 -0.00133202 3.70243e-18)
(-0.027025 0.00409277 2.7916e-18)
(-0.0295874 0.00507067 3.05109e-18)
(-0.0289552 0.00232683 -9.58061e-19)
(0.00049219 0.000892133 -9.82552e-19)
(0.000459313 0.000974026 -6.15738e-19)
(0.0227216 -0.00183245 6.08899e-18)
(0.0214583 -0.00122677 -1.96734e-17)
(9.92907e-05 -0.000574161 -1.69114e-18)
(9.81783e-05 -0.000588487 -1.92016e-18)
(0.000848684 -0.00721354 -1.96907e-17)
(0.000720672 -0.00697966 5.50859e-18)
(0.000533617 -0.00728149 -5.85324e-18)
(0.0115724 0.00987547 -8.34825e-18)
(0.0120727 0.00914146 8.09175e-18)
(-0.000470423 0.000516919 1.17081e-18)
(-0.000505465 0.000550117 1.01322e-18)
(-0.00164452 -0.011588 1.89779e-17)
(-0.00208334 -0.0117798 3.13039e-17)
(-0.00186021 -0.0120207 -2.63049e-18)
(0.000312277 -0.0139408 -1.89598e-17)
(0.00987805 -0.00916168 3.76223e-17)
(-0.00285645 -0.0046197 -3.09636e-17)
(0.00924275 0.00311444 -9.84266e-18)
(0.00889633 0.00363754 3.07345e-18)
(0.000506357 -0.000259067 2.0036e-21)
(0.000475136 -0.000256427 -1.85268e-18)
(0.000508948 -0.000308362 -7.93069e-19)
(0.00338227 0.0179476 -4.46981e-18)
(0.00370787 0.0170763 5.70425e-18)
(0.00451406 0.0177396 -6.62609e-18)
(-0.0276141 0.061004 3.59257e-19)
(-0.0221578 0.0473915 3.45172e-17)
(-0.010726 0.0587236 7.70617e-18)
(0.00131937 -0.00709384 6.18903e-19)
(0.00106223 -0.00716848 -3.46492e-18)
(0.00120756 -0.00689385 2.00447e-17)
(0.00135763 -0.00728458 3.53094e-17)
(0.00152344 -0.00704173 -4.11334e-17)
(0.00127052 -0.0647315 1.89237e-17)
(0.00127423 -0.0639922 -3.17052e-17)
(1.43363e-05 -0.0644744 1.79467e-17)
(-0.00268467 0.0430502 -4.2645e-18)
(-0.00452213 0.0448909 7.25397e-18)
(-0.00115004 0.0452237 1.35223e-17)
(-0.0251376 0.00533493 -3.17616e-18)
(-0.0248207 0.00294333 3.2e-18)
(-0.00761134 0.0140939 -8.93971e-18)
(-0.00638566 0.0143112 -5.23732e-18)
(0.000121926 -0.0100238 -1.6126e-17)
(3.35521e-06 -0.0101005 2.41119e-17)
(-0.000705509 -4.79092e-05 -1.04167e-18)
(-0.000722534 -0.000113891 -5.51606e-19)
(-0.000673573 -0.00010853 8.64214e-19)
(0.00786233 -0.0567625 -2.70208e-17)
(-0.0160545 -0.00532971 -9.60409e-17)
(-0.0159556 -0.00410527 -1.40266e-17)
(-7.7353e-05 0.000200596 1.83429e-20)
(-9.25426e-05 0.000205513 -7.72676e-20)
(1.61261e-05 -0.000344063 -6.39092e-19)
(1.43719e-05 -0.000349728 3.04116e-18)
(1.0618e-05 -0.000290943 -1.26016e-18)
(0.0696561 0.0156903 2.04887e-17)
(0.0605664 0.0181375 4.2528e-17)
(0.000507466 -0.000724814 -3.88518e-18)
(0.000523621 -0.000695989 -1.09338e-18)
(0.000541619 -0.000760918 -6.19324e-18)
(8.57985e-06 -8.08446e-05 -1.9421e-18)
(1.1308e-05 -0.000100665 -1.03294e-18)
(0.00473555 0.0327181 6.05276e-18)
(0.00622311 0.0325032 1.27224e-17)
(0.00501279 0.0313245 -6.38466e-19)
(0.00756778 0.0322872 3.85593e-17)
(0.00802083 0.0309362 1.53079e-17)
(0.00918301 0.0320397 4.66109e-18)
(0.00126951 0.00104495 4.84278e-19)
(0.000694159 0.00470227 -1.48342e-18)
(0.00092926 0.00487378 -1.97147e-18)
(0.00472022 0.00576958 -4.1926e-20)
(0.00436592 0.00605965 3.95604e-18)
(0.0059845 -0.00389983 2.63697e-18)
(0.00564276 -0.00397802 7.34599e-20)
(0.00590192 -0.00423195 9.62161e-18)
(5.62619e-05 0.00503781 1.02877e-18)
(-7.65963e-05 0.00478912 -4.60588e-18)
(-0.000246452 0.00497545 -4.63871e-18)
(0.000165062 -0.00020943 2.20974e-18)
(0.0103241 -9.74463e-05 -4.19175e-18)
(0.010282 0.000349198 -3.96208e-18)
(0.0098164 6.89516e-05 -4.85521e-18)
(0.00286505 -0.0639385 -9.32613e-18)
(0.000670281 -0.0661222 -2.57486e-17)
(0.00162936 -0.0619668 -3.14682e-17)
(-0.00043261 0.0005362 1.00987e-19)
(-0.00044087 0.000485832 -1.54417e-18)
(0.00567151 -0.0292334 3.71391e-17)
(0.00767315 -0.0354652 -2.72662e-17)
(-0.00319876 -0.0321837 -7.77719e-18)
(6.19538e-06 -0.000137687 -8.29066e-19)
(8.01459e-06 -9.55371e-05 1.01967e-18)
(6.93324e-05 -0.000370643 9.02347e-19)
(5.96243e-05 -0.000354946 2.71746e-19)
(6.80334e-05 -0.00038445 -2.26455e-18)
(-2.96295e-05 2.74785e-05 -3.46784e-20)
(-1.97306e-05 3.04883e-05 1.80366e-19)
(-2.82834e-05 3.31818e-05 -5.45706e-20)
(-0.00150856 -0.0651248 3.36724e-20)
(-3.08698e-05 -0.000248546 4.23403e-18)
(-2.35079e-05 -0.000244228 -2.88212e-18)
(-1.34123e-05 -0.000249176 -1.7301e-18)
(0.0432165 0.000954064 -1.02144e-18)
(0.0367644 -0.00265124 5.79951e-17)
(0.040453 -0.0335693 1.87929e-17)
(0.044411 -0.0297594 3.56048e-17)
(0.0461381 -0.0329159 5.28234e-17)
(0.000109884 -0.000221021 9.14109e-19)
(0.000110671 -0.000234111 -6.68613e-19)
(0.000120435 -0.00021662 -1.32192e-18)
(9.04249e-05 -0.000562663 -1.42392e-18)
(0.000102468 -0.000558759 -7.05829e-20)
(0.036402 0.0238691 1.47488e-17)
(0.0361695 0.022726 1.03161e-18)
(0.0387937 0.0210041 -7.15137e-18)
(-3.68459e-05 2.00402e-05 8.57279e-20)
(-4.70812e-05 2.15243e-05 -7.88655e-21)
(9.6885e-06 -0.000203365 -1.68412e-20)
(9.7435e-06 -0.000199277 1.7906e-18)
(1.40223e-05 -0.00025088 1.8364e-18)
(-6.70389e-05 2.5678e-05 1.22124e-19)
(-6.11926e-05 2.55257e-05 -1.5676e-19)
(-7.29637e-05 1.59265e-05 2.78575e-20)
(0.0359841 -0.0357086 3.96321e-17)
(0.0376703 -0.038264 -2.04237e-17)
(0.00244831 -0.0110153 1.09369e-17)
(0.00209125 -0.0109816 -4.56047e-18)
(0.00181145 -0.00291877 3.29484e-18)
(0.00175226 -0.00281304 -1.83704e-18)
(0.00191373 -0.00281146 -1.59029e-18)
(0.00660994 -0.0136701 -2.11482e-18)
(0.00688795 -0.0129494 -3.9861e-18)
(0.00738401 -0.0135557 8.88706e-20)
(0.00710708 0.0266144 5.65373e-18)
(0.00760129 0.0255073 2.28447e-17)
(0.00627079 0.0256174 5.69191e-18)
(0.0146167 0.192614 8.22173e-17)
(0.00171271 -0.062374 -1.39554e-17)
(0.000667257 -0.0631475 1.96483e-17)
(0.00116586 -0.0591837 -4.87128e-17)
(-0.000760723 0.00240567 2.11808e-18)
(-0.000926936 0.00248817 -1.21177e-18)
(-0.0182347 -0.0659027 -4.75958e-17)
(-0.00418107 -0.0661989 1.77107e-17)
(-0.0201296 -0.076496 -4.15057e-17)
(7.15325e-06 -8.43156e-05 -1.77903e-18)
(7.54997e-06 -0.000126068 -1.16297e-18)
(5.20935e-06 -8.21799e-05 1.03562e-18)
(-0.0472026 0.064801 -2.78657e-17)
(-0.0349408 0.0781694 -7.07277e-17)
(-0.00263928 -0.0155823 9.65631e-18)
(0.000339884 -0.00967274 4.06628e-18)
(-0.00469358 -0.00769406 -1.58427e-17)
(0.00179811 -0.0596538 -3.92294e-18)
(0.00571037 -0.0593868 -2.64088e-17)
(0.000710335 -0.0587589 -1.6889e-17)
(0.0759883 -0.0384534 -1.30903e-17)
(-0.00277062 0.0413724 -1.89692e-18)
(-0.00106934 0.0421064 -4.90799e-18)
(-0.00229292 0.00412404 -9.15005e-19)
(-0.00233192 0.00442358 -1.4545e-18)
(0.00835234 0.011355 -5.60737e-18)
(0.00896525 0.0108447 -1.69222e-17)
(-0.00263353 0.00523192 3.24625e-18)
(-0.00300635 0.00502651 5.59454e-18)
(-0.00131679 -0.000108064 2.086e-18)
(-0.00134081 -0.00023083 -1.43374e-18)
(-0.00124268 -0.000209576 1.34764e-18)
(-0.00175031 0.00189792 -6.26087e-21)
(-0.00188589 0.00198904 -1.31205e-18)
(-0.00190413 0.00178359 6.12084e-19)
(0.00593728 -0.0136115 2.28144e-18)
(0.00544821 -0.0129398 3.26915e-18)
(0.00205073 -0.0033556 1.084e-17)
(0.00190014 -0.00346214 6.22448e-19)
(8.24048e-05 -0.000569034 -1.78784e-18)
(7.95741e-05 -0.000551231 -1.52798e-18)
(9.12038e-07 -1.1326e-05 -1.31274e-20)
(1.1406e-07 -5.17624e-06 6.77933e-19)
(1.78748e-07 -5.64965e-06 -2.89366e-19)
(-4.84632e-05 0.000182703 -2.98616e-20)
(-3.60022e-05 0.000177618 -3.71602e-20)
(-0.00017448 -6.87286e-07 9.3402e-20)
(-0.000175506 -2.36602e-06 -8.31466e-20)
(-0.000175104 -1.86746e-06 1.91936e-19)
(-0.000426322 0.000586072 7.67379e-19)
(-0.00052563 -0.0545861 3.84815e-17)
(0.000719735 -0.0563659 3.3399e-17)
(-0.00111712 -0.0551077 1.38847e-17)
(0.000181536 9.50983e-05 6.37273e-19)
(0.000173787 8.76405e-05 2.1075e-19)
(0.000173836 9.66919e-05 1.25734e-19)
(0.000427562 0.000772257 -7.70366e-19)
(0.000434119 0.000698267 2.12549e-19)
(0.000480104 0.000727663 -1.25763e-19)
(-0.000167227 -7.76623e-07 1.05479e-19)
(-0.000174614 -1.08469e-06 1.22081e-19)
(-0.000168695 -4.9222e-06 -3.7298e-20)
(0.000250682 0.000110698 -1.9737e-18)
(0.000247693 0.00011028 -1.88735e-18)
(0.00173618 -0.063196 1.13802e-17)
(0.00169382 -0.0642052 -1.48128e-18)
(0.000825482 -0.0679735 7.37995e-17)
(0.0142969 -0.014065 -4.018e-18)
(0.0150693 -0.0163021 1.23721e-17)
(-0.00139491 -0.00794759 -2.87589e-17)
(-0.00114206 -0.00780279 -1.65424e-17)
(-0.00102061 -0.00807593 9.11544e-18)
(0.000492658 -0.00242052 8.93787e-18)
(0.000572916 -0.00249373 1.81477e-18)
(0.000417121 -0.00251515 7.66875e-18)
(-0.0050239 0.0244663 -2.11187e-17)
(-0.00530715 0.0230122 -1.06809e-17)
(-0.000183468 -1.05659e-07 -2.38199e-20)
(0.170351 0.0796647 3.76519e-19)
(0.0845354 0.0891824 2.54746e-18)