/*--------------------------------*- C++ -*----------------------------------*\
| =========                 |                                                 |
| \\      /  F ield         | OpenFOAM: The Open Source CFD Toolbox           |
|  \\    /   O peration     | Version:  v2012                                 |
|   \\  /    A nd           | Website:  www.openfoam.com                      |
|    \\/     M anipulation  |                                                 |
\*---------------------------------------------------------------------------*/
FoamFile
{
    version     2.0;
    format      ascii;
    class       surfaceScalarField;
    location    "1000";
    object      phi;
}
// * * * * * * * * * * * * * * * * * * * * * * * * * * * * * * * * * * * * * //

dimensions      [0 3 -1 0 0 0 0];
oriented        oriented;


internalField   nonuniform List<scalar> 
14470
(
-0.116748
0.254651
-0.137902
-0.00572609
0.00642357
-0.203535
-0.201158
0.404778
-0.00432884
-0.00065959
0.00498843
-0.365286
-0.213337
0.578797
0.0972222
0.0487926
-0.146013
-0.168573
0.0849991
0.0835773
0.00692858
-0.00686201
-6.65694e-05
-0.195907
0.353421
-0.157533
0.703288
-0.371054
-0.332108
0.318636
0.38476
0.651171
-0.405927
-0.245449
0.0146111
0.000359232
-0.0149719
-0.032973
-0.340362
0.373571
-0.226378
-0.0654044
0.291895
0.0991754
0.11534
-0.214495
-0.243367
0.468826
-0.225664
0.00287029
-0.00573036
0.00286009
-0.531089
0.0803836
0.450681
-0.524926
0.359048
0.165816
0.322031
0.274984
-0.00493198
0.00882115
-0.00388916
0.000951125
0.00597745
0.0124396
0.00216982
0.212912
-0.0883369
-0.124572
-0.0892255
0.481953
-0.392744
-0.568421
-0.0345265
0.602779
-0.469351
-0.0617473
-0.0628524
0.158675
-0.095819
-0.0151126
0.0164172
-0.00130457
0.0663446
0.0766932
-0.143038
-0.253911
-0.18875
0.4429
-0.525738
0.343205
0.18257
0.573299
-0.587238
0.0138435
0.277836
-0.199506
-0.0782961
0.184406
-0.345469
0.161052
-0.225381
0.157817
0.0675804
-0.0140241
0.0122363
0.00178745
-0.0383011
-0.172539
0.210859
-0.173151
0.1103
0.0888722
-0.100713
0.0118417
-0.00809802
0.00261521
0.00548288
-0.612698
0.0443329
-0.458752
0.320183
0.13854
0.542503
-0.28774
-0.254839
-0.0128868
0.0147955
-0.00190868
0.597313
-0.354686
-0.242509
-0.494807
0.204374
0.290265
-0.454941
0.211404
0.17836
0.0995274
0.160634
0.412474
-0.102963
-0.0977412
0.200724
0.347547
0.249893
-0.0397536
-0.123118
0.162877
-0.00580688
0.00147806
0.389361
-0.573469
0.183836
-0.190719
0.118934
0.0717871
-0.296684
-0.198262
0.242329
-0.0888722
0.176412
-0.0875309
-0.127862
0.0888312
0.0390306
0.275212
0.154673
-0.429835
0.0842692
-0.238905
0.154662
-0.651355
0.329794
0.320993
-0.371193
0.175257
0.0133789
-0.0133789
0.309439
-0.179926
-0.129462
-0.336474
0.213766
0.122715
-0.0024343
0.00447506
-0.00204048
-0.0487947
0.254631
-0.205821
-0.0649206
0.0435217
0.0213985
0.0105039
-0.00252047
-0.00798345
0.0330625
0.0554132
-0.0884565
-0.0172821
0.00107293
0.0162089
-0.510987
-0.0201969
0.531293
0.072431
0.05844
-0.130868
-0.00123795
0.0571603
-0.055922
-0.203087
0.420992
-0.217835
0.290641
0.288158
-0.578728
0.0973127
-0.0248811
0.00638688
-0.00351655
-0.0992976
0.198487
-0.134164
0.294044
-0.159852
-0.152058
0.0833909
-0.152491
0.0691019
-0.272059
0.562924
-0.0847521
-0.135371
0.220181
-0.0137448
-0.000279665
-0.0945903
-0.0332712
0.00206126
0.00552621
-0.00758743
-0.144331
0.0965919
0.0477394
-0.0634321
-0.0808982
-0.181496
-0.0268675
0.208377
-0.00485276
-0.00324516
-0.241973
0.48517
-0.243265
-0.0168873
-0.0003948
0.0967718
-0.189245
0.0924862
-0.124243
0.264546
-0.140263
-0.634115
0.268972
0.00660102
-0.0162472
0.00964589
-0.202448
0.0995122
-0.0258194
0.0443307
-0.0184948
-0.241219
-0.217557
-0.00406136
0.00801829
-0.00395495
0.00053268
-0.032265
0.0317325
-0.0770805
0.11016
0.197699
0.317384
-0.515127
0.207483
-0.410539
-0.311964
-0.246453
-0.276023
0.522529
-0.00825913
0.00332717
-0.00517772
0.0104574
-0.00527968
0.0134875
-0.0140259
0.000538308
-0.270695
0.221902
-0.639424
0.226684
0.413014
-0.405632
0.187324
0.218389
0.279201
-0.502102
0.222716
0.00498166
-0.000226262
-0.00475541
-0.415216
0.0273389
0.38785
-0.00230172
-0.00654983
0.00885309
0.129452
-0.214155
0.00889451
0.0186597
-0.0275534
-0.234584
0.138804
0.0957969
-0.209253
-0.13623
0.0449369
-0.460217
-0.0532148
0.183086
-0.129858
-0.0144196
-0.000693077
0.169423
-0.0363425
-0.133078
0.0338973
0.135529
-0.148042
0.278344
-0.130333
-0.0860766
0.414066
-0.327957
-0.246922
0.130172
0.18599
-0.302944
0.117009
0.080689
0.174812
-0.255475
0.156419
-0.120567
-0.0358492
-0.160552
0.108369
0.0521828
-0.133663
-0.271904
0.116082
-0.627031
-0.0606427
0.145041
-0.0843897
0.00692363
-0.00206809
-0.00485538
-0.118782
-0.066245
0.312014
-0.245904
-0.223074
0.131171
0.0919501
0.0130469
-0.0109278
-0.00211903
0.122021
-0.079793
-0.0422278
0.357036
-0.464508
-0.0126786
-0.00420879
-0.36448
0.278387
0.401926
0.603851
-0.299802
-0.303936
-0.000158034
0.0102696
-0.0101115
-0.291325
0.167111
-0.419178
0.329921
-0.118291
-0.215114
0.333426
0.0759411
0.0471374
-0.123078
0.171307
-0.0559531
-0.18057
0.455732
0.122685
-0.0563412
0.245361
-0.38434
0.139009
0.0875061
-0.222827
0.14062
-0.28865
-0.148226
-0.376759
-0.0576057
0.0537248
0.00388098
0.38183
-0.179531
-0.202366
0.0899687
-0.0912061
-0.0231085
0.0313003
-0.00817402
0.352527
-0.200485
-0.152081
0.322735
0.193682
-0.516661
0.671824
-0.348209
-0.32369
-0.274982
0.208678
0.0121809
0.000239573
-0.0124204
0.0183035
-0.0254013
0.00709781
-0.0342534
0.0277526
0.00650291
0.266973
0.384013
-0.0722825
0.169509
-0.0492612
0.125681
-0.0764186
0.0286179
0.0221964
-0.0508142
-0.225252
-0.221905
0.447184
0.315743
-0.186882
-0.128818
-0.0175222
0.0134631
0.000160054
0.212175
-0.0826809
0.209851
0.332569
0.510718
-0.251903
-0.25893
0.520297
-0.0460517
0.0549474
0.00943382
0.00107008
0.0663329
-0.0480294
-0.0444414
0.0186391
0.170914
-0.38295
0.212016
-0.00380496
-0.0100749
0.0138798
-0.0292986
0.0275061
0.00179246
0.0716859
0.109349
-0.181028
0.259602
-0.429495
0.169832
0.257817
-0.131497
-0.12631
-0.00561586
0.0117726
-0.00615675
-0.115939
0.435297
-0.319648
0.330096
0.138579
0.254757
0.302727
-0.55756
-0.350785
0.235493
0.11528
-0.462793
0.383431
0.0793402
0.121345
-0.280794
0.1595
-0.138064
-0.131117
0.269202
-0.00594328
0.00185624
0.00408703
-0.148666
0.311465
-0.162838
0.134849
0.0846322
-0.219459
0.184224
0.168274
0.302866
-0.172202
-0.130655
0.0413856
-0.0792524
0.0378669
0.110678
0.00169211
0.00523165
0.183292
0.253409
-0.436868
-0.00170061
-0.000733456
-0.270489
0.136357
-0.184039
-0.0781202
0.262198
-0.306924
0.274086
0.0948146
0.0616063
-0.37435
-0.264851
0.0767197
-0.110678
0.0339572
0.172768
-0.075982
-0.362844
-0.099977
-0.00994166
-0.028291
0.0382326
0.0392006
-0.0334855
-0.00570532
-0.153778
-0.0277092
0.256963
-0.48267
0.225625
0.223564
-0.123132
-0.100411
0.013583
0.028991
-0.0425705
0.101741
0.00959505
-0.111338
0.0832547
0.0184859
0.00483628
-0.00762425
0.00278791
-0.195104
0.163289
0.0318203
-0.29741
0.11343
0.216001
-0.131705
-0.0334047
0.00410608
-0.453286
0.27447
0.178646
-0.0101666
0.000879827
0.0126077
-0.41062
0.294302
0.276768
0.278636
-0.555383
0.0934728
-0.00459988
-0.148157
-0.219781
0.367915
-0.506222
0.259853
0.220868
-0.112904
-0.107959
0.207036
-0.132147
-0.0748814
-0.200307
0.230477
0.0853009
-0.0752119
0.210075
0.122438
-0.165934
0.0435067
-0.10394
-0.161356
0.265311
0.195807
-0.0483019
0.169933
-0.121624
-0.00304334
0.00184529
0.00119806
-0.556691
0.193782
-0.0396775
0.0126851
0.026998
0.529421
-0.181695
0.393567
-0.635854
0.241965
-0.0105424
-0.392326
0.402711
-0.000825248
-0.229467
0.409917
-0.180472
0.11851
-0.0425685
0.000462418
-0.00104228
0.000580374
-0.332122
-0.258514
0.590789
-0.587978
0.2137
-0.0453903
0.140481
-0.0950904
-0.488961
0.477814
-0.28444
-0.27227
0.556917
0.564581
-0.568107
0.00282922
0.000986006
-0.000523508
-0.0220388
-0.0355668
0.125824
-0.21201
0.086172
-0.053384
-0.0428733
0.0962573
0.12854
-0.190537
0.0619995
0.0212385
0.0112813
-0.00671353
-0.00456781
-0.382363
0.18188
-0.0042572
-0.00826268
0.0125199
-0.20284
0.563813
-0.361347
0.0407614
-0.0271779
-0.0101475
-0.0392607
0.0494083
0.0197785
-0.0112233
-0.00855604
0.00571758
-0.0463667
-0.148732
0.147751
0.130562
0.0970953
-0.196378
-0.258239
0.120182
-0.454831
0.300404
0.154449
-0.289407
0.0256426
0.263728
0.0874691
-0.0460835
0.157016
0.0558978
-0.189334
-0.398617
0.62595
-0.348151
-0.277853
0.403114
-0.22007
-0.636246
0.377537
0.258452
-0.197687
0.00800237
-0.00152972
-0.00647266
-0.0856811
0.477591
-0.392109
0.460388
-0.268938
-0.191232
0.563099
-0.463801
-0.0994165
-0.102411
0.491563
0.00339146
-0.00434714
0.00095568
0.0675028
0.054519
0.0252899
-0.077101
0.0518101
-0.289592
0.190727
0.0988908
-0.0628507
-0.16018
-0.0336516
-0.0562358
-0.0973379
0.153589
-0.00176833
0.00161034
0.177185
-0.418428
0.00590193
-0.00694412
0.139904
-0.250839
0.110959
-0.0484861
0.368692
-0.00572609
-0.133302
0.189867
-0.443526
-0.160779
0.112486
0.00196745
-0.0546634
0.182397
0.109126
-0.291501
0.0875999
-0.132389
0.0447828
0.120254
0.317312
-0.197164
-0.12013
-0.014012
-0.0149716
0.028982
0.183662
-0.0672681
-0.116391
-0.28558
-0.240125
0.255587
-0.472432
0.216795
-0.172038
-0.117524
0.0770177
-0.121532
0.044515
-0.00581091
-0.00705352
0.0128644
0.187746
-0.391225
0.498311
-0.180893
-0.482337
0.283194
0.199068
-0.000574752
0.0127556
-0.00870865
0.00445146
-0.00499002
0.00234012
0.00264993
0.25976
-0.46805
0.208118
0.128732
0.0549332
-0.0391644
0.126757
0.0577992
-0.0770028
0.0192036
-0.0744851
0.168535
-0.0940474
0.482573
-0.228029
-0.254765
0.442361
-0.260557
-0.182016
-0.251146
-0.231273
-0.102538
0.199642
-0.372829
0.183805
0.188987
-0.000249609
-0.000375781
0.000625463
-0.513663
0.04992
0.463976
-0.283582
-0.166086
0.44958
-0.051322
0.0340365
0.0172937
0.000860753
0.00714159
-0.00235496
0.000654484
-0.40897
-0.227533
-0.00514911
0.01175
0.176668
-0.279112
0.102447
0.0444491
-0.026115
-0.0183341
6.23861e-05
0.000425316
-0.000487662
0.0050018
-0.00016555
0.286783
-0.136501
-0.15023
-0.170941
0.132651
-0.0788919
-0.0816594
-0.006371
0.00843231
-0.0027329
-0.162374
0.132598
0.0297803
-0.580987
0.054893
0.525846
0.200461
-0.0746448
-0.441605
0.250465
0.190966
-0.20103
-0.304531
0.505725
-0.157057
-0.215803
-0.190829
-0.316819
0.507391
0.311817
0.285198
-0.0030977
0.00284821
0.300709
0.205031
-0.11427
-0.0907517
-0.0991728
-0.119896
0.219086
0.138973
-0.0980948
-0.0408764
0.262686
0.219698
0.15206
0.14201
-0.00238696
0.000594124
0.00179283
0.00939696
-0.028953
0.019556
0.00705865
0.0120481
-0.0191106
-0.183097
0.108618
0.193685
-0.477495
0.137941
0.148889
-0.438206
0.237092
0.135034
-0.0863054
-0.0487279
-0.591742
0.0538622
0.537349
-0.000480925
-0.0018739
0.043956
0.0658517
-0.109807
-0.0363494
-0.132221
-0.00695279
0.00196279
0.0214561
-0.0354695
0.345036
-0.560562
0.21598
0.293157
0.133149
-0.426325
-0.0242308
0.1326
0.0553757
0.0796582
0.179229
-0.327978
0.00513173
-0.00506933
0.55797
-0.212393
-0.195093
-0.341799
0.536602
0.0379838
-0.0481313
0.444275
-0.191185
-0.0621774
-0.193693
0.0206858
0.0106325
-0.0231048
-0.490434
0.140989
0.240782
-0.0403733
0.0330208
0.00735754
-0.0340561
-0.0308649
0.26065
-0.0893109
-0.171324
-0.109786
0.18148
-0.0391897
-0.380282
0.419308
-0.202348
0.34699
-0.144766
0.0267085
-0.00804825
-0.0988584
-0.0903739
0.278615
0.17561
-0.454539
-0.263007
-0.26724
0.53036
-0.130458
0.0907092
-0.0955755
0.137654
-0.042083
0.137589
0.123076
-0.012052
0.00112417
-0.285434
0.539999
-0.0143781
0.357662
-0.0396475
-0.025385
0.0650326
0.395887
-0.435237
-0.00283678
-0.000206573
-0.02834
0.056958
0.282118
0.228491
0.268686
-0.475115
0.206657
-0.295594
0.00615821
0.226444
0.466273
-0.183226
-0.0115125
-0.00473469
0.0863139
-0.115552
0.0701616
-0.0497541
0.145287
0.164166
-0.309407
-0.136787
-0.0977823
-0.120974
-0.104392
-0.00636121
0.00613492
-0.168634
0.0797748
0.4315
-0.64475
0.122601
0.116561
-0.0490578
0.355856
-0.153433
-0.202437
-0.016333
0.261707
-0.0961606
-0.0728821
-0.519419
-0.242826
0.483423
-0.240699
0.225503
-0.416062
0.190593
-0.19986
0.478927
0.363143
0.213089
-0.57598
-0.296142
0.177636
0.118508
-0.127842
-0.130392
0.128094
0.092778
-0.526199
-0.0108368
0.536151
0.0106146
-0.0162304
0.218851
-0.133309
-0.0855441
-0.0587308
0.102687
0.00948337
0.00179796
-0.195209
-0.0209254
-0.0303779
0.15584
-0.0708357
-0.17886
-0.250703
0.471518
0.0082138
-0.479905
-0.12085
-0.209417
0.330117
0.00124668
0.0168221
-0.0180662
-0.119757
-0.0707767
0.525168
-0.254361
0.53927
-0.284611
0.534002
-0.231564
-0.0427695
-0.010462
0.0532312
0.0803898
-0.12965
0.0576933
-0.438525
-0.213417
-0.296949
0.178651
0.148046
-0.0623349
-0.0857082
0.00230778
0.0124877
0.00933578
0.0104422
-0.226539
0.171659
0.0548755
0.303048
-0.147818
-0.155159
-0.0103367
-0.0293358
0.0161712
0.0737981
0.166433
-0.161949
-0.00447666
-0.186045
-0.126981
0.312984
-0.167855
0.423631
-0.255753
-0.00525462
-0.000688667
0.280855
0.157311
-0.438361
0.068053
0.057629
0.0253675
-0.0965783
0.0712123
-0.252867
0.531256
-0.0682596
0.046221
0.14519
0.097387
-0.242547
-0.00289177
0.00839269
-0.00550096
0.176141
-0.378624
-0.00262499
0.00669183
-0.00406683
0.155723
-0.0352904
-0.120431
0.0883938
-0.314665
0.115754
0.0247278
0.193202
-0.435324
-0.0237323
0.0815316
-0.621521
0.246765
0.374828
0.121801
0.331968
-0.453834
-0.592045
0.244109
-0.254814
-0.200288
0.00697528
0.295674
0.189417
0.49005
-0.150963
-0.339226
-0.272201
0.190573
0.0816485
-0.232787
-0.235442
0.246284
0.0543533
0.106451
-0.160797
0.100878
-0.282271
0.181436
-0.0989814
-0.590644
0.417577
0.173157
-0.40996
-0.180651
-0.00216001
-0.000226954
-0.0516969
-0.00236984
0.0540661
-0.131214
-0.0953277
-0.0215658
-0.269035
0.141199
0.353022
-0.205215
-0.147816
-0.399096
0.341615
0.124553
0.00382623
-0.00148605
0.193223
0.585929
-0.647878
0.0614428
0.015723
-0.0147682
-0.000954771
-0.052351
-0.0483617
-0.0409082
0.163352
-0.50877
0.58229
-0.307153
0.297246
-0.138385
-0.158875
-0.281688
-0.257614
0.539265
0.0364253
-0.00942261
-0.103735
0.286125
0.0316354
-0.0464543
0.0148417
0.33586
-0.186012
-0.149875
0.0173132
-0.0272548
0.563483
-0.275194
0.00120178
0.0121771
-0.57233
0.0643885
0.507267
-0.0440894
0.121108
-0.440753
0.281344
0.159277
-0.253477
0.168423
0.0850971
-0.000409724
0.00225501
-0.334009
-0.2874
-0.0547051
0.00266348
0.0520422
0.220637
0.174961
-0.395465
-0.39526
-0.223982
0.619133
-0.274017
0.439728
-0.032332
0.00338415
0.0289471
0.00380294
-0.00194671
0.191072
0.229849
-0.237395
0.0288711
-0.439432
-0.0876655
0.146561
0.0233747
-0.00644282
0.00381786
0.157052
0.000775881
-0.533702
-0.00763147
0.540593
-0.062574
0.121016
-0.520292
0.531738
-0.0114905
0.335618
-0.0383924
0.445715
-0.264974
-0.180829
0.205176
-0.0770747
0.319617
-0.562932
0.242806
0.00195812
-0.0354381
0.000465983
-0.410598
-0.388153
0.247634
0.140513
0.271949
-0.177175
-0.0947367
0.0728952
0.0187036
-0.0915971
-0.148876
0.127541
0.0213355
0.174233
-0.44294
-0.0110711
0.414945
-0.0417658
0.122156
0.377029
-0.165249
-0.211718
-0.199165
0.383326
0.473927
-0.407942
0.408123
0.310368
-0.0879394
0.0461742
-0.138335
-0.159016
-0.0565121
0.00180778
-0.0614585
0.142752
-0.0812918
-0.099028
0.12073
-0.0216981
-0.0851994
-0.083528
0.168736
-0.0185653
0.0565491
-0.112416
0.298455
0.0173705
0.0190584
-0.00346296
0.007176
-0.003713
0.0704352
-0.114524
-0.0720676
0.0935553
-0.0214875
0.124473
-0.0991045
-0.0534782
0.112067
0.223544
-0.00954515
0.00373424
0.124715
0.147283
-0.378793
0.101055
-0.0306199
-0.0193191
-0.500953
0.0340852
0.153899
-0.194799
0.0809719
0.0735029
-0.15447
-0.154883
0.132794
0.0220882
-0.00685181
0.00771253
-0.0107553
0.00260126
0.0081541
-0.27454
0.0973994
-0.0827211
0.163702
0.549589
-0.272841
0.082541
-0.0892072
0.00666628
0.10544
-0.195182
-0.245714
-0.352596
0.195471
-0.159113
0.331541
-0.172371
-0.195472
0.0966235
-0.00449038
-0.00313392
0.050309
-0.0931823
-0.00308988
0.0112745
-0.00818466
-0.119544
-0.183347
0.195826
0.0619987
-0.0105604
0.00766856
0.0271775
0.007333
-0.0345106
-0.168742
-0.139567
0.308437
0.0977226
-0.189435
0.0917211
0.221995
0.080884
0.0337259
0.0107231
0.00706406
-0.0474269
-0.220162
-0.0337225
0.0590119
-0.0816263
0.041979
-0.00833029
-0.00242498
-0.171513
0.500963
0.112115
2.75639e-05
-0.0168931
0.0168658
0.270927
-0.149535
0.00609703
-0.0521474
-0.069299
-0.184136
0.016212
0.122764
-0.215728
0.104538
0.111195
-0.292297
-0.085986
-0.264425
0.350399
-0.396296
0.18125
0.0341225
-0.154166
0.120042
0.574758
-0.332443
-0.110602
0.144724
0.0786033
0.0868094
-0.165411
0.164115
-0.0748577
-0.089256
-0.336354
0.598855
-0.26255
-0.643837
0.360726
0.282891
0.143939
-0.301113
0.157207
0.198807
-0.33678
0.137995
-0.352307
0.512879
0.209817
-0.358027
0.0768976
-0.138352
-0.0162102
0.0174591
0.00474325
-0.0386723
-0.542408
0.0235213
-0.109826
0.616608
-0.306088
-0.311014
-0.0090006
0.00553767
0.273535
-0.146192
-0.127291
-0.0605455
-0.0609034
0.121449
-0.134746
0.0572276
0.0984957
0.0871336
-0.392548
0.305316
0.20225
0.401691
-0.126222
0.0636525
0.438525
0.222764
-0.361197
-0.0781245
-0.120787
0.198925
-0.0114076
-0.000661025
0.0120679
0.248342
0.135083
-0.120272
-0.0097897
-0.00900674
0.0187956
0.142293
-0.246207
0.0257874
-0.0175562
0.00776534
0.411542
-0.186053
0.11957
-0.255868
0.190552
-0.130909
-0.252054
0.195746
-0.469873
-0.0253093
0.067901
-0.0425922
-0.0202309
-0.00634095
-0.00411077
0.0104517
0.201336
0.15451
0.419131
-0.163588
0.263315
-0.447935
0.184734
0.149672
-0.344341
0.194743
-0.182768
0.283689
-0.123802
-0.146657
0.0162634
-0.0474218
0.0311583
0.170565
0.103025
-0.196953
0.108364
-0.0921917
-0.102389
0.0560948
-0.155117
-0.199763
0.422523
0.000236579
-0.0116014
0.0113648
0.309341
-0.16162
0.56292
-0.285202
-0.278319
0.0805424
0.0835741
0.00929629
0.00247633
0.461684
-0.286325
-0.487755
-0.283499
0.302198
0.387287
-0.300212
-0.0585083
0.0621115
-0.13712
0.0750089
0.361256
-0.220724
-0.140508
0.154208
0.0509747
-0.312808
0.144213
0.166721
-0.366527
-0.0257829
-0.123092
-0.00952962
0.0045491
0.00498057
0.0960935
0.0854036
-0.181494
-0.497475
0.1978
-0.360421
-0.0747584
0.43506
0.101623
0.0238179
-0.125434
-0.0592731
0.117956
-0.147039
0.029087
0.453401
-0.126411
-0.327105
0.38083
-0.160178
-0.0117225
-0.00230332
-0.0127853
-0.247737
-0.0592207
0.178156
-0.0836065
0.0303912
0.0532151
0.390074
0.289539
-0.400559
0.280665
0.119872
-0.00261195
0.00600695
-0.00339495
0.509839
0.0755213
0.248864
0.00143588
-0.00780681
-0.107248
-0.0476348
-0.045732
0.129124
-0.0875149
-0.0448801
-0.290075
-0.283627
-0.00431887
-0.00521067
0.244039
-0.447324
0.157725
-0.403278
0.245552
-0.225559
-0.17503
0.10517
0.0883966
-0.193553
0.00371081
-0.00456142
0.000850612
0.519525
-0.126286
0.230836
0.179058
0.335875
0.102558
-0.187061
0.32605
-0.282132
0.196162
-0.0679483
-0.00411913
-0.0630047
0.168189
-0.130926
-0.165219
0.356327
0.19239
-0.548996
-0.186115
0.142604
0.0404919
0.123622
0.168368
0.0830397
0.560725
-0.15424
0.417619
0.258209
-0.0543112
-0.20383
-0.00337919
0.000542416
0.0184803
0.00218026
-0.0206618
-0.169385
0.314701
-0.00943083
0.537997
-0.259381
-0.122856
-0.0928701
0.0429667
-0.12352
0.0805541
-0.00739803
-0.00808876
0.0154868
-0.149707
0.387049
-0.237307
-0.317478
-0.0207009
-0.00918955
0.0298903
0.14242
0.0811591
0.303172
0.259149
0.279174
-0.0318817
0.0338443
0.302201
-0.582406
0.280221
-0.0794907
-0.0936582
0.458764
0.0193112
-0.00991421
-0.558436
0.286255
-0.726193
0.439059
0.286178
-0.534683
0.280473
-0.100336
-0.116318
0.216656
0.334523
-0.135745
-0.129662
-0.0823626
-0.102864
-0.0595051
-0.0463563
0.0428665
0.00348962
-0.335019
0.249078
-0.468372
0.225412
0.399284
0.199511
-0.00455761
0.336457
0.301154
-0.321334
0.0201727
0.183199
0.172484
-0.355732
0.111698
0.205542
0.204434
-0.0744
-0.130005
0.0190355
-0.0119807
-0.199098
0.0965649
0.0991889
-0.177301
0.264139
0.194493
0.00106142
-0.0134869
0.0124255
0.0552977
-0.0823323
0.0270477
-0.259921
0.455439
-0.0300344
-0.000488188
0.0305192
-0.0147728
0.0003532
-0.347768
-0.0127204
0.407963
0.481271
-0.259853
-0.221372
-0.0641773
-0.0912438
0.155425
-0.0237779
0.228249
-0.0125758
0.276334
0.181181
-0.287951
0.106848
-0.181016
-0.330284
0.511004
0.145124
-0.288065
-0.439038
0.159381
-0.106062
-0.0533183
0.0739187
0.227216
-0.0720412
-0.0804483
0.260656
0.253846
-0.514554
0.141671
-0.0505381
-0.0911314
0.275626
-0.523652
0.247803
0.132208
-0.263699
-0.389724
0.243137
0.146624
-0.267999
0.129715
-0.0801593
0.0373896
0.00242169
0.0133013
0.0207036
-0.0384633
-0.0373556
0.00732419
0.096308
-0.219421
0.161068
0.0404245
-0.0589897
0.000912248
0.210934
-0.152924
-0.0579676
0.276097
-0.433838
0.157725
0.291014
0.000505694
-0.0129239
0.0124182
0.292228
0.189087
0.00305123
-0.16671
0.440999
-0.135538
0.270596
-0.135034
-0.396804
0.24747
0.149301
-0.522295
0.415426
0.106782
0.224015
0.0890016
-0.0863371
0.00214935
-0.00476122
0.00513013
-0.000141698
-0.0609069
0.0092094
-0.0109617
0.0120231
-0.435414
-0.00894658
0.0212596
-0.0123105
-0.000123503
-0.0321413
0.255071
0.32442
-0.579469
-0.204349
-0.551047
0.265818
0.285321
0.154393
-0.138179
-0.458406
0.205349
-0.00746292
0.0033522
0.0825434
0.065507
-0.089202
0.173824
-0.0846159
-0.113301
-0.197101
0.310392
0.141104
-0.0803153
-0.0607881
0.00868445
0.00135574
-0.0100402
0.00972915
-0.00182456
-0.00790457
0.100989
0.0971389
-0.198107
0.116371
0.100169
-0.216519
-0.453387
-0.0809197
0.0342618
-0.0239921
-0.211338
0.45833
-0.246998
-0.0369689
0.0331148
0.00385401
0.123922
-0.0751286
0.0346512
-0.106635
0.0719856
0.0536128
-0.0467175
-0.00689486
0.00349986
0.000975523
0.121853
-0.283187
-0.110543
-0.16706
0.277648
0.563178
-0.2441
-0.246268
0.10579
0.140515
0.00429823
-0.00681869
0.00924532
-0.00900574
-0.53396
0.330792
0.203229
-0.0219784
-0.0127177
0.034696
0.305437
-0.181758
0.0941389
-0.0515691
0.00521241
0.00062362
-0.012032
-0.0126975
0.0133208
0.235454
0.206713
0.0942774
0.140505
-0.252755
0.112294
0.126575
-0.135328
0.279335
0.00649112
0.603113
-0.326313
-0.277019
0.0403789
-0.0418391
0.0014603
0.388493
-0.6205
0.230931
0.475966
-0.240729
-0.091667
-0.0696044
0.161275
-0.191361
0.139707
0.0146884
-0.330464
0.168811
0.161695
0.0377745
0.0285584
0.0508539
0.0249943
-0.0758478
-0.122001
0.0401352
0.0818662
0.0253516
0.378129
-0.540137
0.161893
-0.19189
-0.138527
-0.108319
0.48636
-0.198786
-0.18551
-0.0790334
-0.0629457
0.180906
0.259028
0.0943754
0.217484
0.1596
-0.247956
0.137968
0.11002
-0.0169644
0.00887568
-0.128047
-0.138175
0.266288
0.34097
-0.113637
-0.227376
0.0249909
0.00218653
0.289942
0.16574
0.00956402
-0.53189
0.241971
0.218723
-0.262632
0.324879
-0.249652
-0.0752087
-0.00611176
0.0082022
-0.00209044
0.0751818
-0.572791
-0.0279375
0.00595911
-0.00453145
0.0480527
0.501245
0.147315
-0.316662
0.0991275
-0.204723
0.105618
0.55727
0.587105
-0.282024
-0.305533
0.264938
-0.438886
0.174025
-0.0800779
0.0541525
0.0259256
0.0799953
-0.177324
0.211455
0.149823
-0.103298
0.0378627
0.0888877
0.102813
-0.0202711
-0.0938441
-0.176847
0.00541352
-0.0119619
0.193813
-0.212214
-0.321621
-0.00569712
-0.015481
0.0211781
0.0752298
-0.146268
0.0710408
-0.0853699
-0.201751
-0.150907
0.264979
0.183935
-0.448904
-0.00909278
-0.00295923
0.0157857
-0.00573483
-0.0100508
-0.0910362
0.114558
0.000151043
-0.026266
-0.165248
0.521215
-0.307373
0.148369
-0.39363
0.205077
-0.0145009
0.00277838
-0.223661
0.0939915
-0.158965
0.177874
-0.0189132
-0.242668
0.0706534
0.39995
-0.19156
-0.208437
-0.136914
0.377261
0.203068
-0.581039
0.487519
-0.294202
0.125753
0.0159193
0.462795
-0.269232
0.00787645
0.434483
0.129529
-0.300872
-0.386738
0.26016
0.18868
0.0165134
-0.0044679
0.000819015
0.00431113
0.236694
-0.144703
-0.00153797
0.0120571
-0.0105191
-0.311061
0.546944
-0.23613
0.0282809
0.12562
0.13937
0.163742
-0.0723411
0.0784396
0.370512
-0.0700728
-0.427386
0.0314778
0.0187426
-0.0501979
0.0776832
-0.147999
0.0819741
0.0660327
-0.558068
0.0464397
0.120001
0.0932559
0.000217778
-0.00157755
-0.00156807
0.00314546
-0.314057
0.127978
-0.148444
0.0805043
0.0679398
-0.0024885
-0.0258025
-0.146128
-0.114233
0.26037
0.132308
-0.08517
-0.0823063
0.160913
-0.240398
-0.157955
0.398265
-0.0947915
-0.14785
0.148128
0.107547
-0.532062
0.220595
-0.0778092
-0.220113
0.338592
0.108499
0.244516
0.441062
-0.253529
-0.187396
-0.235332
-0.0343895
0.269683
-0.187531
-0.0265758
0.0428392
0.229476
-0.0482394
-0.160575
0.309015
-0.148376
-0.106415
0.20363
-0.458466
0.25489
0.166208
0.18238
-0.348504
0.0778348
-0.180964
0.103137
0.000774824
-0.00176133
0.000987259
-0.0741821
0.0488724
0.0941963
-0.173686
-0.0173287
-0.282904
-0.361131
0.00272492
0.0033687
-0.00609351
-0.224204
0.172711
0.0514933
0.00743101
-0.00806319
0.000632181
-0.0257394
-0.107425
0.133167
-0.531953
0.269013
0.349923
0.159966
0.12634
-0.286279
-0.00152414
-0.00127492
0.00279914
0.017247
-0.0167413
-0.0597134
0.166173
-0.0637979
0.301144
-0.455389
0.198859
0.176764
-0.375581
0.247881
0.270736
0.0148495
6.39939e-05
-0.0149135
-0.247394
0.13364
0.113785
-0.222831
0.389564
-0.161479
0.0192238
-0.0399248
0.00333513
-0.053084
0.0497477
0.151028
-0.311542
0.0501342
-0.0540909
-0.0295154
0.243125
-0.0607877
-0.182325
0.0976588
-0.24378
-0.0153834
-0.0215856
-0.133179
0.0421433
0.296395
-0.0499401
-0.246431
-0.0135855
0.000887218
-0.0918918
0.165399
0.0314398
-0.0952638
0.0638212
-0.0050505
0.003473
0.235137
-0.169598
-0.217547
0.54198
-0.231956
0.30985
0.0611709
0.115247
-0.000441415
0.000702024
-0.000260617
0.0141768
0.128264
-0.479634
-0.107718
-0.150919
0.0602702
0.0906485
0.537486
-0.2725
-0.264911
-0.00101531
0.00440676
0.0146813
-0.00538356
-0.00929774
0.280594
-0.0215815
-0.00381975
-0.126552
-0.442057
0.154427
-0.394994
-0.16591
0.349078
-0.0109543
0.0102515
0.000702149
-0.0161993
0.0670535
-0.220553
0.0848153
-0.14715
0.43366
-0.18339
-0.0850618
0.125198
0.116884
-0.512239
0.207889
-0.0857298
-0.122153
0.20406
-0.321692
0.0781065
0.243569
-0.382307
0.159484
-0.0569111
0.0493873
0.00752404
-0.292885
0.16197
0.0840363
-0.0525996
-0.173381
-0.0508217
-0.273988
-0.263484
0.537401
0.0778492
-0.155089
0.0772427
0.252331
-0.0523102
0.228966
0.281838
-0.00269865
-0.00374416
0.0411077
0.383703
-0.170655
-0.212937
0.176301
0.264906
0.250967
0.132813
-0.0701873
0.216277
-0.146042
0.00699528
-0.00990581
0.00291054
-0.0118177
-0.06826
-0.0750303
0.144133
0.188503
-0.240823
0.257543
0.0208338
-0.00303063
-0.0178028
-0.0153465
0.116974
0.365632
-0.154131
0.0251329
0.0157327
-0.0408655
-0.556998
0.275604
0.281216
-0.0785478
0.148838
-0.0702863
-0.00424975
0.00380834
0.471685
-0.257104
-0.214664
0.0107726
-0.00208813
-0.000372675
-0.0701388
0.14799
-0.0135598
-0.00121298
-0.0532334
-0.00367874
0.312137
-0.413544
0.101455
-0.172592
-0.120288
-0.0387148
0.0388658
-0.00861356
0.00412311
-0.311946
0.139358
0.00969988
-0.0112378
0.209253
0.0553237
-0.395498
-0.475288
0.484792
0.157776
-0.297293
0.106352
-0.155986
0.26225
-0.106225
0.0206384
-0.0464462
0.0258076
0.0144888
0.000360741
-0.0277068
-0.0297268
0.0574338
-0.0658997
-0.203771
-0.444565
0.0777099
-0.151563
0.0738582
0.00605086
0.00367828
-0.449281
0.195867
0.0191263
0.00413795
-0.0232642
0.173931
-0.131865
-0.0420609
0.262563
-0.536452
-0.127047
-0.559023
-0.30201
0.174994
-0.0645114
-0.0834807
-0.0209162
0.0201658
0.00075042
0.237659
-0.211981
-0.172621
-0.296292
0.468735
0.00479885
-0.00962406
0.00482521
-0.0164553
0.00384709
0.0126085
0.21337
-0.0836712
-0.129665
-0.260852
-0.297506
-0.190244
0.210269
-0.413007
0.202832
0.367248
-0.582471
0.214911
-0.0334707
0.0172655
-0.0990023
0.0150615
0.0839411
-0.550316
0.303075
0.246867
-0.460646
0.390434
0.070045
0.0188112
0.00244944
-0.00265363
-0.00169351
0.0215324
0.152404
0.155464
0.0269238
-0.0300837
0.00316018
0.165785
0.144442
-0.310098
0.292852
0.221622
-0.514526
-0.333131
-0.229328
-0.321382
-0.170887
0.471995
0.477726
-0.0749481
0.0266317
0.0269814
0.0844325
0.113249
-0.197676
0.168512
0.0199876
0.0184542
0.0197783
0.201487
-0.106758
-0.0946995
0.00427307
0.0336479
-0.0336199
-0.0107995
0.00437982
0.0064191
-0.0810835
0.168324
-0.0872275
-0.257564
0.163732
-0.280656
-0.311136
-0.134894
0.316577
-0.563793
0.246826
0.0263445
0.0796
-0.105943
-0.219073
0.494424
-0.0591438
0.0373258
0.0218174
0.0901931
-0.0263802
0.153923
0.218674
0.254748
-0.473262
0.00855435
-0.00711841
0.0668937
0.0707568
0.0078081
-0.00267635
-0.0794078
0.446493
0.0079035
0.0212121
-0.0291156
-0.249759
-0.163796
0.0742265
0.0684338
-0.14266
0.107558
0.0667109
0.0151566
0.00342558
-0.0185819
0.0919896
-0.212761
-0.0900717
-0.033448
-0.461212
0.201015
-0.00527711
0.0546655
-0.238949
-0.235953
-0.0104253
0.00244183
0.0356433
0.0809178
0.0631711
-0.123713
0.408764
-0.196496
-0.212266
0.45931
-0.220541
-0.239043
0.00524934
0.0225036
0.00167979
-0.107421
-0.171022
-0.0399279
-0.11904
0.0845242
0.226201
-0.0934377
-0.13275
-0.00523237
0.0259539
0.0677601
-0.0490559
-0.17295
0.371823
-0.0178355
0.0455247
-0.0276697
-0.397204
-0.112853
-0.49749
0.264643
-0.00587823
-0.0931238
-0.173299
-0.324241
0.156829
0.174762
-0.00643087
0.00115119
0.233776
0.284906
-0.518822
-0.0865493
0.196852
0.0323612
-0.21839
-0.0682455
-0.573239
0.0519981
0.187171
-0.0787412
-0.108423
0.100017
0.215893
-0.359623
0.143613
-0.240795
0.556986
0.000423741
0.123297
0.147676
-0.00681789
-0.0036074
-0.0154725
0.0707881
0.000674054
-0.00108378
-0.1354
-0.136781
0.328076
0.131995
-0.460049
0.43922
-0.141898
-0.105464
0.230432
-0.113558
-0.116844
0.230227
-0.113824
0.00123954
-0.0073513
-0.300581
0.181077
0.075158
0.126567
-0.201719
-0.00370838
-0.10748
0.111191
0.061049
-0.536337
0.391094
-0.204192
-0.186954
0.0746523
0.138755
-0.146637
0.0677463
0.0118202
-0.0115836
0.284979
0.139527
-0.424522
-0.00514761
-0.0012136
0.306204
-0.0289977
-0.00343136
0.0140459
-0.157585
0.171786
0.189283
0.214981
-0.404262
0.247371
0.172717
-0.420219
0.097825
0.0986248
-0.19644
-0.0831263
-0.0399512
-0.154408
0.269559
-0.115126
0.313889
-0.135089
-0.172173
0.128432
0.318937
-0.171638
-0.0341476
-0.0543524
0.0885001
0.00096148
0.016008
-0.0215142
0.00550622
0.537078
-0.268357
-0.268375
0.241868
-0.108198
-0.00378766
0.0441666
0.261109
-0.0847941
0.00769253
0.461357
-0.253959
-0.207243
0.0510327
-0.095162
-0.0707619
0.34249
-0.257455
-0.0850234
0.125024
-0.0342282
-0.034031
0.361164