/*--------------------------------*- C++ -*----------------------------------*\
| =========                 |                                                 |
| \\      /  F ield         | OpenFOAM: The Open Source CFD Toolbox           |
|  \\    /   O peration     | Version:  v2012                                 |
|   \\  /    A nd           | Website:  www.openfoam.com                      |
|    \\/     M anipulation  |                                                 |
\*---------------------------------------------------------------------------*/
FoamFile
{
    version     2.0;
    format      ascii;
    class       surfaceVectorField;
    location    "1000";
    object      Uf;
}
// * * * * * * * * * * * * * * * * * * * * * * * * * * * * * * * * * * * * * //

dimensions      [0 1 -1 0 0 0 0];


internalField   nonuniform List<vector> 
14470
(
(0.962806 -0.0162002 -8.0202e-21)
(0.960938 -0.0159806 4.35489e-21)
(0.962242 -0.0141971 -9.65988e-21)
(-0.130185 -0.000753311 -7.45598e-20)
(-0.13785 0.000669933 1.78261e-19)
(0.992187 -0.00634403 -1.38819e-20)
(0.992526 -0.00676839 4.8841e-21)
(0.99191 -0.00705597 1.90106e-22)
(-0.043181 0.104224 1.74669e-20)
(-0.0374356 0.103185 5.2999e-20)
(-0.0390366 0.111096 -3.53614e-21)
(0.999963 -0.000552926 -1.34723e-22)
(0.999958 -0.000529461 -2.39196e-22)
(0.999928 -0.000715824 -1.64502e-21)
(1.22747 -0.0257328 -2.17798e-20)
(1.23463 -0.0236444 -5.71519e-20)
(1.2322 -0.0316797 -2.83118e-20)
(1.11506 -0.236164 2.71868e-20)
(1.12053 -0.225762 3.22095e-20)
(1.13042 -0.235358 2.48128e-21)
(-0.0997212 0.0487636 0)
(-0.0892351 0.0518277 0)
(-0.13757 0.0493497 -5.92663e-20)
(1.02095 -0.0374685 0)
(1.02235 -0.0383971 0)
(1.02064 -0.0391774 1.60897e-21)
(1.00005 -0.00202759 7.63215e-21)
(1.00004 -0.00189002 7.86128e-21)
(1.00005 -0.00189103 -2.415e-21)
(1.00002 -0.00216198 8.53458e-21)
(1.00008 -0.00217852 -3.17699e-21)
(1.00223 -0.00946866 1.36051e-22)
(1.00212 -0.00900655 -1.48447e-21)
(1.0019 -0.00929608 9.19899e-22)
(-0.0641744 0.14427 0)
(-0.0841521 0.143089 0)
(-0.0838443 0.147604 0)
(1.01995 -0.0233561 2.01161e-21)
(1.01939 -0.0224005 1.51797e-21)
(1.02069 -0.0224985 2.82247e-21)
(1.06652 -0.00401101 0)
(1.06803 -0.00355253 0)
(1.06662 -0.00249739 -1.26512e-20)
(1.13676 -0.0667524 5.08948e-21)
(1.14302 -0.0688328 -1.2074e-22)
(1.1386 -0.0737986 3.89871e-23)
(0.994334 -0.00874794 -1.0159e-20)
(0.99429 -0.00923047 -1.54463e-21)
(0.994764 -0.00893099 4.5516e-21)
(-0.067977 -0.0657678 1.92851e-20)
(-0.0665681 -0.0646566 1.72039e-20)
(-0.0683283 -0.0755535 -7.44034e-21)
(1.01765 -0.00513328 6.63588e-22)
(1.01757 -0.00474265 -7.41048e-22)
(1.01798 -0.00495022 2.429e-22)
(1.0233 -0.0100404 -1.60419e-21)
(1.02401 -0.00982486 -1.15349e-21)
(1.02321 -0.00942366 1.98508e-21)
(0.99999 -0.000211645 -3.9999e-21)
(0.999991 -0.000221225 3.95051e-22)
(-0.0447319 0.151683 3.26384e-20)
(-0.0408436 0.161269 3.98629e-20)
(-0.03694 0.152101 3.71895e-20)
(-0.0694439 0.0447981 0)
(-0.122069 0.0460216 0)
(-0.0429043 0.140333 0)
(-0.0404069 0.143743 0)
(0.919285 -0.0591299 7.66795e-21)
(0.924294 -0.057955 8.12835e-21)
(0.920196 -0.0534234 -4.43532e-22)
(0.999959 -0.00356361 -3.23504e-21)
(1.00003 -0.00375578 -7.43753e-21)
(1.00005 -0.00348704 -3.11594e-21)
(1.00003 -0.000427867 1.38197e-21)
(1.00003 -0.000490017 3.7445e-21)
(1.00006 -0.000604545 9.58022e-22)
(1.01738 -0.00524893 -1.80667e-22)
(1.01775 -0.00548018 -2.09618e-21)
(1.16043 -0.139641 2.28951e-20)
(1.1685 -0.137777 1.66498e-20)
(1.16641 -0.14716 -6.13026e-21)
(-0.296065 0.0187085 -4.55363e-20)
(-0.298271 0.0187618 -3.45173e-20)
(-0.329572 0.0189695 -3.87232e-20)
(1.27404 -0.042635 6.85137e-20)
(1.26286 -0.0431201 -8.03877e-20)
(1.26982 -0.0510381 3.6045e-20)
(0.996586 -0.00360159 3.83158e-21)
(0.996427 -0.00332882 -4.4567e-21)
(0.996244 -0.0037716 7.5725e-21)
(0.997232 -0.00886311 -6.65502e-21)
(0.997003 -0.00931884 -2.95108e-21)
(0.997397 -0.0093581 1.25241e-21)
(1.00561 -0.000626658 1.3783e-21)
(1.00533 -0.000620791 1.87673e-21)
(1.00517 -0.000353911 1.14782e-21)
(1.08194 -0.0314966 6.21011e-21)
(1.08092 -0.0336238 -1.22841e-21)
(1.08341 -0.0329346 1.2255e-20)
(1.06256 -0.0075947 -1.2943e-20)
(1.06186 -0.00892708 1.06525e-20)
(1.06082 -0.00783515 9.27975e-21)
(0.916981 0.0037678 -2.04793e-20)
(0.913543 0.00547845 2.08684e-20)
(0.913952 0.000572843 2.80295e-20)
(-0.148141 0.0602395 3.23804e-20)
(-0.142876 0.0560359 0)
(-0.140935 0.0502358 0)
(1.08107 -0.0758378 4.31372e-21)
(1.07719 -0.0738544 -7.45209e-21)
(1.08095 -0.0713013 -1.53611e-21)
(1.15141 -0.142725 3.14491e-20)
(1.15319 -0.133902 5.12952e-20)
(1.05238 0.0417156 0)
(1.04749 0.037488 0)
(0.890797 0.0527714 -5.59306e-20)
(-0.103557 0.0162128 4.62377e-20)
(-0.0942754 0.031789 4.06502e-20)
(-0.125736 0.0232642 -8.12059e-20)
(1.00001 -0.000277157 2.71627e-22)
(1.00002 -0.00040396 -4.32851e-21)
(0.992524 -0.000350536 -1.15432e-20)
(0.992082 -0.000617437 4.31179e-21)
(0.992128 -4.59847e-05 -4.3252e-21)
(0.996425 8.11144e-06 4.15293e-21)
(0.996708 -0.000128125 1.75129e-21)
(0.996666 0.000212546 -3.09249e-21)
(-0.245837 0.041416 7.05839e-20)
(-0.251351 0.0403415 -7.26894e-20)
(-0.230057 0.0470944 -1.22086e-19)
(0.999997 -0.000493864 -3.83733e-21)
(1.00001 -0.000254239 -3.90118e-21)
(1.00002 -0.000249164 3.30476e-22)
(1.03192 -0.00810922 1.83315e-21)
(1.03149 -0.00738755 3.52e-21)
(1.03257 -0.00754239 1.22179e-21)
(0.99441 -0.00809953 4.84234e-21)
(0.993886 -0.00845734 4.01279e-21)
(1.08348 -0.0287678 -3.31468e-20)
(1.0804 -0.0294098 1.79395e-21)
(1.00585 -0.000868324 6.08629e-22)
(1.00591 -0.000579578 -1.85343e-21)
(1.10361 -0.0480242 1.44886e-20)
(1.10703 -0.0505318 2.01692e-20)
(1.10646 -0.0458519 3.44495e-21)
(1.00001 -0.000716851 1.2457e-21)
(0.999995 -0.000744915 0)
(0.897878 -0.117269 9.21529e-21)
(0.907267 -0.115657 7.77305e-22)
(0.904564 -0.125879 -4.52836e-21)
(-0.0507283 0.0961522 -4.36084e-22)
(-0.0524105 0.104816 -3.94726e-20)
(1.0024 -0.00858825 8.7804e-22)
(1.00228 -0.00815853 -2.87973e-21)
(1.00258 -0.00836394 -2.86404e-21)
(1.15395 0.0172765 1.14115e-20)
(1.15241 0.0229197 -5.70361e-21)
(1.14825 0.0190409 2.95883e-20)
(1.03132 -0.00850488 1.52924e-21)
(1.0323 -0.00871801 4.00661e-21)
(1.00001 -0.000263451 0)
(0.902027 -0.0177163 6.04621e-21)
(0.89672 -0.0163035 -1.46724e-20)
(0.901285 -0.0120493 -4.08399e-20)
(0.828682 -0.323442 -1.76629e-20)
(0.846918 -0.332624 -1.24934e-20)
(0.821923 -0.353995 -1.36036e-20)
(0.993904 -0.0068094 3.88081e-21)
(0.993622 -0.00645771 -4.72019e-21)
(0.994139 -0.00625794 -1.01008e-20)
(1.09035 -0.00411127 -6.62396e-21)
(1.08993 -0.00703302 2.98237e-21)
(1.08749 -0.00483466 -6.07419e-21)
(1.00279 -0.00125005 0)
(1.00296 -0.00117288 1.51302e-21)
(1.00299 -0.00141728 0)
(1.01964 -0.0365412 7.63267e-22)
(1.02107 -0.0359822 3.55896e-22)
(-0.258783 0.0276256 7.87069e-20)
(-0.250738 0.0269861 -8.88936e-20)
(1.05482 -0.0461655 -2.15113e-20)
(1.05258 -0.0463644 -3.56974e-22)
(1.05414 -0.0485498 -3.32479e-22)
(1.06324 -0.00635388 -1.65275e-20)
(1.06364 -0.00490793 5.55635e-21)
(1.06201 -0.00521892 1.0267e-20)
(0.02204 0.00224474 0)
(0.0477424 0.0125497 5.76168e-20)
(0.0560491 0.0102465 3.1921e-20)
(0.979047 -0.0108437 -3.0096e-21)
(0.977825 -0.0105102 -7.30052e-21)
(0.978952 -0.00971879 0)
(0.599077 0.028103 1.1015e-19)
(0.579392 0.0414283 -1.47089e-20)
(0.577876 0.0133517 -1.54852e-20)
(-0.162891 0.0548327 5.72985e-20)
(-0.127028 0.0577443 1.84424e-19)
(-0.16094 0.0579399 1.46738e-19)
(0.522332 0.210665 -2.14019e-21)
(0.398265 0.230417 1.17493e-20)
(0.516803 0.228608 6.07987e-21)
(0.183273 0.0484734 6.74046e-20)
(0.12349 0.0440789 -4.13925e-20)
(0.182244 0.0544233 -3.62128e-21)
(0.999999 -0.000693739 -1.37999e-21)
(0.999992 -0.000750592 -5.35426e-21)
(1.00002 -0.000943804 -8.59685e-21)
(0.792941 -0.133057 6.00469e-20)
(0.807739 -0.140094 -1.96894e-20)
(0.805195 -0.124071 -7.87184e-20)
(0.924229 0.0125231 5.6652e-22)
(0.753439 0.0257234 2.84833e-21)
(0.761749 0.0198489 2.61725e-21)
(0.994636 -0.00328385 -2.56913e-21)
(0.994414 -0.00369756 0)
(0.994843 -0.00355347 5.42998e-21)
(0.999973 -0.000631711 -5.42835e-21)
(0.999977 -0.000636799 9.37522e-23)
(0.999987 -0.000433772 -4.18727e-21)
(0.782503 -0.13945 4.18598e-20)
(0.781064 -0.122405 -1.7842e-20)
(-0.0715559 -0.0655815 1.01301e-20)
(-0.0674824 -0.0575134 0)
(1.1313 -0.0657826 4.81693e-21)
(1.13513 -0.0612597 -2.00545e-20)
(0.978778 -0.0701941 7.60387e-22)
(0.981949 -0.0717035 4.42217e-21)
(0.982271 -0.0681082 -1.70568e-21)
(1.0643 -0.00740363 -9.83719e-21)
(1.26156 -0.150954 2.19191e-20)
(1.2555 -0.159915 3.04561e-20)
(1.25184 -0.148564 5.60667e-20)
(0.999968 -0.000630565 -5.71254e-21)
(0.999947 -0.000817049 4.61289e-22)
(1.11 0.0327148 4.89867e-21)
(1.10768 0.0278194 7.54617e-21)
(1.10429 0.0317643 2.48332e-20)
(-0.153168 0.0646185 3.02084e-20)
(-0.15386 0.0696379 -7.41044e-20)
(0.824237 -0.302507 -2.35534e-20)
(0.800817 -0.323091 -1.82877e-21)
(-0.0592654 0.133377 -1.28498e-20)
(-0.0530954 0.134746 0)
(-0.0585993 0.126583 6.10977e-20)
(1.35483 -0.185746 6.38957e-20)
(1.34885 -0.173343 -3.46707e-20)
(1.36811 -0.175962 -1.20335e-21)
(1.37046 -0.201592 3.07356e-20)
(1.3388 -0.19405 -3.54693e-20)
(1.08646 -0.121283 -1.53781e-20)
(1.09266 -0.127111 0)
(1.09315 -0.118717 0)
(-0.107368 -0.00514539 2.75487e-20)
(-0.0784803 0.00899028 0)
(0.995767 -0.0123579 -3.72443e-21)
(0.995945 -0.0129479 1.01733e-21)
(0.996304 -0.0123693 6.4448e-22)
(0.186421 0.0505868 -1.92122e-20)
(0.259777 0.0558319 3.28141e-20)
(1.13513 -0.090426 -4.68946e-20)
(1.13007 -0.0938308 2.24279e-20)
(1.12963 -0.0871914 3.91224e-20)
(1.04131 -0.0656245 -1.23503e-20)
(1.04411 -0.066772 -4.23543e-21)
(1.04154 -0.0688001 6.92827e-21)
(0.999988 -0.00038761 -3.83738e-21)
(0.999962 -0.000600443 -3.64262e-21)
(-0.12763 0.104132 -9.71087e-21)
(-0.131507 0.108225 -1.79432e-20)
(-0.123027 0.111605 -9.1319e-21)
(1.10118 -0.0509997 1.40674e-20)
(1.10016 -0.0463129 -2.22172e-20)
(-0.0903299 0.239727 -2.17275e-20)
(-0.0975179 0.227005 4.16935e-20)
(-0.0828975 0.211264 4.31025e-20)
(0.992944 -4.02074e-06 7.76358e-22)
(0.992962 -0.000540666 -6.98434e-21)
(0.0883533 0.0929855 -4.08007e-20)
(0.0278276 0.0889453 5.7759e-20)
(0.0574805 0.0805667 -2.09034e-20)
(0.598398 0.0384474 7.0628e-20)
(0.463972 0.0437381 7.34071e-20)
(0.447638 0.0492213 -5.12508e-21)
(0.678257 0.172234 9.22589e-21)
(0.541385 0.184698 2.40379e-22)
(1.00476 -0.00713363 -2.05768e-21)
(1.00471 -0.00743787 0)
(1.00445 -0.00710871 0)
(0.994413 -0.00299871 -9.16687e-21)
(0.994859 -0.00288767 1.06205e-21)
(0.999986 -0.000189424 -4.87914e-21)
(1.00008 -0.000965507 6.76374e-22)
(1.0001 -0.000942351 8.07369e-23)
(1.00012 -0.00112274 -2.21902e-21)
(-0.0487559 0.142121 -1.27284e-20)
(-0.0507856 0.149186 -2.79796e-20)
(0.114987 -0.120596 -1.3554e-19)
(0.0798888 -0.127858 9.00032e-20)
(0.0842956 -0.0884873 -1.14511e-19)
(-0.287167 0.0106712 -1.09159e-20)
(-0.291117 0.011084 -1.30699e-20)
(-0.315495 0.0131389 3.40134e-21)
(0.980206 -0.0109843 9.65755e-22)
(0.979328 -0.0116917 -7.87945e-22)
(0.999141 -0.00250069 2.51271e-21)
(0.999123 -0.00270341 -3.40623e-21)
(0.998984 -0.00257728 -1.54379e-23)
(1.05731 0.00131276 -1.36574e-20)
(1.0562 0.00204367 -1.0916e-21)
(1.05775 0.00292208 -5.94207e-21)
(0.996818 -0.000707731 0)
(0.997069 -0.000783059 -4.53213e-21)
(0.996867 -0.0010032 -3.0225e-22)
(-0.0583715 0.0890322 7.19021e-20)
(-0.0664783 0.090558 3.27322e-20)
(-0.0648737 0.0820582 2.76089e-20)
(0.996127 0.000616331 3.71194e-21)
(0.996025 0.000333485 1.34005e-20)
(0.995838 0.000567463 1.3401e-20)
(-0.0115834 0.098664 2.39992e-20)
(-0.00851355 0.109728 -4.80279e-20)
(-0.0564823 0.104028 2.37646e-20)
(1.11238 0.037145 8.50698e-21)
(1.11594 0.0325336 -5.90805e-21)
(0.461109 0.0703519 1.50073e-19)
(0.363773 0.0579644 -4.60805e-20)
(0.388446 0.0648801 5.26313e-20)
(1.11515 -0.0288615 -1.34148e-21)
(1.11601 -0.0246983 6.79341e-21)
(1.11222 -0.0258286 2.57557e-20)
(1.06105 -0.0105371 1.40202e-20)
(1.06315 -0.0104128 -1.6392e-20)
(0.996153 0.000926466 -9.69327e-21)
(0.996399 0.000651815 -8.46677e-21)
(1.14486 -0.0829496 0)
(1.15122 -0.0803869 0)
(1.15072 -0.0881237 3.34114e-20)
(-0.296833 0.0188678 0)
(-0.267368 0.0193375 -5.98181e-20)
(1.09978 0.101754 0)
(1.10393 0.094527 1.51133e-20)
(1.10912 0.10236 0)
(1.09462 0.109901 0)
(1.08849 0.100907 -2.64323e-20)
(1.05897 -0.0245784 1.18827e-21)
(1.05874 -0.0227505 4.9556e-22)
(1.05731 -0.0239372 1.02487e-20)
(1.00681 -0.0150956 1.08114e-21)
(1.00733 -0.0150548 8.91883e-22)
(1.00685 -0.014572 2.32355e-21)
(0.964832 -0.0159874 1.00959e-20)
(0.963701 -0.0177268 1.32014e-20)
(1.04958 -0.0425701 0)
(1.04752 -0.0429659 0)
(1.04811 -0.0408596 6.3445e-21)
(1.07893 -0.0348047 -1.75895e-20)
(1.07612 -0.0337681 9.47205e-21)
(1.07644 -0.0367182 0)
(1.19878 -0.227272 -3.77576e-20)
(1.18882 -0.234558 -2.51574e-20)
(1.20285 -0.241601 1.00258e-19)
(1.2525 0.022489 -4.46499e-20)
(1.25426 0.0285552 0)
(1.24125 0.0253972 0)
(1.05851 0.000914369 1.19743e-20)
(1.05705 3.9306e-05 1.21271e-20)
(1.00001 -0.00066767 4.74073e-21)
(0.999998 -0.000446971 2.80922e-21)
(1.15024 -0.0580658 -8.47768e-20)
(1.15376 -0.0552577 -5.91784e-21)
(1.1549 -0.0611976 -2.44974e-20)
(-0.0653631 -0.0527162 1.30282e-21)
(-0.0700908 -0.0598678 3.98924e-20)
(-0.0619277 -0.0500402 3.10309e-20)
(1.08091 -0.0364521 -1.32671e-20)
(0.983918 -0.0191382 -6.37197e-21)
(0.98424 -0.0204699 6.43197e-21)
(0.985146 -0.019334 0)
(1.10649 0.016241 -2.41321e-20)
(1.10419 0.0196251 -2.38334e-20)
(1.10257 0.0160699 3.38322e-21)
(-0.238022 0.0430053 6.81485e-20)
(-0.231023 0.0440981 -3.64241e-20)
(-0.21952 0.0504184 0)
(1.15025 -0.446481 -5.34501e-20)
(1.1337 -0.450166 4.2886e-23)
(1.14067 -0.46847 -7.85591e-21)
(0.996174 0.00120823 -1.54965e-21)
(0.996443 0.00125615 -1.02677e-20)
(0.197102 0.0529345 -6.69804e-20)
(0.154107 0.0423509 -7.04469e-20)
(1.00637 -0.0151779 9.73314e-22)
(1.00685 -0.0156389 -1.05021e-21)
(0.995884 0.00115137 5.71272e-21)
(0.999103 -0.00401373 4.04718e-21)
(0.99923 -0.00387637 -1.28538e-21)
(0.999124 -0.00372205 4.0716e-21)
(0.0577116 -0.0424845 -2.27074e-20)
(0.279115 -0.0932556 1.00665e-19)
(0.133635 -0.0562579 8.9457e-20)
(1.03829 -0.0644234 1.28251e-22)
(1.04064 -0.062633 3.97977e-21)
(0.999912 -0.00345356 1.22934e-21)
(0.999898 -0.00366466 -2.34737e-21)
(0.985384 -0.00262493 3.72227e-21)
(0.985648 -0.00333137 -5.8203e-21)
(0.984838 -0.00327389 -4.9025e-21)
(1.36911 -0.223818 9.65427e-21)
(1.34302 -0.222592 -1.44141e-19)
(1.35751 -0.237665 -2.0297e-19)
(1.14636 -0.062772 -2.54326e-20)
(1.14919 -0.0707749 -4.27471e-20)
(0.994208 -0.0071892 3.46091e-21)
(0.993674 -0.00743629 4.4934e-21)
(1.27851 -0.0345532 5.54271e-20)
(1.2898 -0.0427052 8.19861e-20)
(0.983922 -0.0114128 1.04385e-20)
(0.984796 -0.0110927 1.81735e-20)
(0.984701 -0.012097 4.00167e-21)
(1.10609 0.0232418 -2.96387e-20)
(1.11095 0.0236771 -5.73176e-20)
(1.06073 -0.0251676 -1.39383e-20)
(1.0592 -0.026384 5.29314e-22)
(1.02347 -0.0105564 -9.45112e-22)
(1.0228 -0.0102214 -2.20527e-22)
(0.586164 -0.412387 -6.47192e-20)
(0.597327 -0.44291 2.72862e-20)
(0.558037 -0.434341 0)
(1.03954 -0.0170263 5.44642e-21)
(1.03967 -0.0180964 -5.70544e-21)
(1.0384 -0.0176484 -5.99253e-21)
(1.07728 -0.00158418 4.57354e-20)
(1.09731 -0.0126511 4.73761e-20)
(-0.0887133 0.207058 6.55613e-21)
(-0.0600945 0.189641 5.96748e-21)
(-0.0592239 0.173994 -2.34342e-20)
(1.04216 -0.0207986 -8.39112e-21)
(1.04192 -0.0221063 -4.36944e-21)
(1.04064 -0.0212889 -4.66101e-21)
(1.00478 -0.00681879 3.23765e-22)
(1.00477 -0.00651322 -2.23387e-23)
(1.00449 -0.00651567 1.90503e-21)
(1.00002 -0.00172824 -2.65567e-21)
(1.00002 -0.00155481 1.04776e-21)
(1.00001 -0.00154706 -2.40697e-21)
(0.983529 -0.0183158 5.81412e-21)
(0.982716 -0.0192501 -5.00057e-21)
(-0.227129 0.00181775 -4.57025e-20)
(-0.202992 -0.00249737 1.48607e-19)
(-0.236269 0.00413943 -6.89401e-21)
(0.540886 -0.275047 -7.18823e-21)
(0.329434 -0.186116 -1.26695e-20)
(0.206735 -0.1356 -1.43113e-20)
(-0.213507 0.167323 7.63631e-20)
(-0.212414 0.162637 -9.64803e-20)
(-0.209229 0.154679 -3.59011e-20)
(1.00224 -0.0100294 1.12823e-21)
(1.00255 -0.00972179 -7.19901e-21)
(1.21952 -0.0284251 -6.51854e-22)
(1.22184 -0.0208271 1.20312e-19)
(1.01975 -0.37526 2.41943e-20)
(1.03685 -0.361637 -1.93783e-20)
(1.0167 -0.354497 -7.42556e-21)
(0.572965 -0.523753 0)
(0.533863 -0.559901 -2.41689e-20)
(0.532972 -0.495556 3.71508e-20)
(0.994157 -0.00415425 0)
(0.994425 -0.00445645 0)
(0.993912 -0.00461327 3.73792e-21)
(1.05633 -0.0417932 2.30209e-20)
(1.05551 -0.0440699 -5.97237e-21)
(1.05394 -0.0416864 2.68963e-20)
(0.163179 0.0932587 -1.08968e-19)
(0.131405 0.105206 -1.50949e-22)
(-0.258717 0.0350781 6.25964e-20)
(1.10871 0.0405162 2.7408e-20)
(1.11509 0.0420723 2.83596e-20)
(0.996234 -0.000255595 2.12746e-21)
(0.996158 9.39204e-05 5.32533e-21)
(0.997423 -0.000451591 4.51345e-21)
(0.997597 -0.000305369 0)
(0.997632 -0.000555309 2.58639e-22)
(1.00507 -0.00711324 -2.20605e-21)
(0.591764 0.0753228 2.66004e-21)
(0.558174 0.0790911 5.2798e-20)
(-0.167426 0.0515014 -9.00629e-20)
(-0.192656 0.0512349 1.25658e-20)
(0.834694 -0.38729 -1.2632e-21)
(0.978715 -0.474048 4.04763e-21)
(-0.0683766 0.253119 -3.97232e-20)
(-0.0952238 0.262147 8.06321e-21)
(1.01855 -0.035601 -1.37271e-22)
(1.01744 -0.0345549 2.31919e-23)
(1.01884 -0.0340536 1.03156e-21)
(-0.117124 0.253806 2.47103e-20)
(-0.0541995 0.279064 -6.86506e-20)
(-0.146981 0.283472 0)
(0.400288 -0.140792 6.5885e-20)
(0.378043 -0.156256 7.26752e-20)
(0.409198 -0.166875 2.31959e-20)
(0.912828 -0.0218772 -1.08817e-20)
(0.911006 -0.0182252 6.51605e-21)
(0.915493 -0.0182941 -1.14066e-20)
(1.03459 -0.00514129 4.18085e-23)
(1.03411 -0.00577873 -8.41295e-21)
(1.03361 -0.00509728 -4.22992e-21)
(0.960997 -0.0518643 -9.79969e-21)
(0.963066 -0.0498751 0)
(0.960136 -0.0487292 0)
(0.195707 0.105893 -3.4873e-20)
(0.161956 0.0992061 -5.49994e-20)
(0.187993 0.0672644 -2.04271e-20)
(1.01517 -0.00509128 4.21309e-22)
(1.01557 -0.00520661 -8.72589e-22)
(1.01532 -0.00539784 3.84632e-22)
(0.993995 -0.00965874 6.00038e-21)
(0.994442 -0.00972335 5.95384e-21)
(0.999736 -0.0015058 -4.79634e-21)
(0.99977 -0.00154961 -2.74383e-21)
(0.999805 -0.00140447 -4.80267e-21)
(0.976699 -0.0106828 -7.44388e-21)
(0.975414 -0.010948 1.43048e-20)
(0.976447 -0.0119242 7.42869e-21)
(1.02559 -0.00909967 -3.40683e-21)
(1.02599 -0.00879873 -1.8408e-21)
(1.02537 -0.00848215 -9.07053e-22)
(1.08289 -0.0246238 -5.71112e-21)
(1.08457 -0.0267268 -1.61416e-20)
(1.08589 -0.0242229 1.0089e-20)
(1.06577 -0.0197633 -8.87591e-21)
(1.06756 -0.0203348 -1.92944e-20)
(1.06677 -0.0186169 -7.39082e-21)
(-0.082598 0.00907594 5.47189e-20)
(-0.0760003 0.012223 7.44115e-21)
(-0.0737951 0.000687872 6.58353e-20)
(0.982183 -0.00164581 9.67284e-21)
(0.981397 -0.00220971 1.83743e-20)
(0.98238 -0.00248855 -9.43193e-21)
(1.07202 -0.0684023 2.00463e-22)
(1.06973 -0.0659183 1.09041e-20)
(1.06862 -0.0694391 1.95661e-20)
(1.04229 -0.0196135 6.9847e-21)
(1.04342 -0.0203405 -5.65437e-21)
(0.968701 -0.0291544 2.13737e-20)
(0.968995 -0.0269606 -1.23901e-20)
(0.970666 -0.0286242 0)
(0.81647 -0.547836 -1.73462e-22)
(0.776983 -0.552756 -6.86147e-21)
(0.80801 -0.594165 -2.58818e-22)
(1.14467 -0.057203 -8.60231e-21)
(-0.0576485 -0.0437193 -3.02701e-20)
(-0.0705659 -0.0515312 -2.82016e-20)
(1.01377 -0.00497515 -2.34192e-22)
(1.01359 -0.00472939 1.22385e-22)
(1.01338 -0.00490746 6.70199e-23)
(-0.00469608 -0.00445717 -5.35124e-20)
(0.00320908 -0.00715743 0)
(0.975844 -0.0682728 -5.55645e-23)
(0.97519 -0.0719652 -5.45171e-21)
(1.0721 0.0101927 8.97179e-22)
(1.07128 0.0103153 7.06083e-22)
(1.07168 0.00970253 1.79494e-20)
(1.01945 -0.0239937 8.69506e-23)
(1.0206 -0.0240282 7.86032e-23)
(1.20962 -0.220158 6.31831e-22)
(1.19765 -0.215066 3.80762e-21)
(0.999248 -0.00244115 2.49377e-21)
(0.999176 -0.00235723 2.53554e-21)
(0.740212 -0.0607818 1.68054e-20)
(0.750222 -0.0498188 0)
(0.731337 -0.0458644 4.22895e-20)
(1.1394 -0.0866793 -8.54304e-20)
(1.14013 -0.0939359 -5.52446e-20)
(1.02516 -0.00940664 3.79938e-21)
(1.02592 -0.0096388 1.2762e-21)
(0.332188 0.448883 6.71294e-20)
(0.380826 0.429779 3.93218e-20)
(0.375799 0.483436 -8.67328e-20)
(-0.219153 0.215194 4.01924e-20)
(-0.217563 0.222945 3.1652e-21)
(-0.217115 0.225303 -8.00547e-20)
(1.08249 -0.124839 -6.22064e-21)
(1.08207 -0.118102 -1.33086e-20)
(0.995523 -0.0147463 -1.07464e-21)
(0.995304 -0.0140702 -1.78203e-22)
(0.99482 -0.014768 -3.9696e-21)
(1.12652 -0.0184693 -4.88631e-21)
(1.12535 -0.0220789 8.43991e-21)
(1.13027 -0.0216883 7.29114e-21)
(-0.173202 0.256183 6.01546e-20)
(-0.187141 0.255988 8.7392e-20)
(-0.19139 0.267028 9.56237e-20)
(0.755507 -0.0870204 -4.01797e-20)
(0.746875 -0.0736814 4.90774e-20)
(0.76454 -0.0774885 -3.67322e-20)
(0.743338 -0.0960951 -1.10837e-20)
(0.760294 -0.0985212 -5.6249e-20)
(-0.0872484 0.0481092 1.26628e-20)
(-0.0957756 0.0511882 -9.02358e-20)
(-0.0899963 0.0580779 -6.7715e-20)
(1.11357 0.0742646 -2.7554e-20)
(1.10665 0.0753899 -7.72532e-21)
(1.11194 0.0814136 4.73147e-20)
(1.0726 0.0102818 -2.42208e-20)
(1.07229 0.0096969 -1.07209e-20)
(1.09061 -0.001911 -8.93708e-21)
(1.09288 -0.00397374 2.7204e-20)
(0.418545 -0.122042 -1.34573e-19)
(0.387425 -0.114002 -2.27935e-20)
(1.02825 -0.00412938 -3.79067e-21)
(1.02861 -0.00364406 -6.71907e-23)
(1.02788 -0.00358254 -2.08864e-22)
(-0.0957928 0.195323 2.77046e-20)
(-0.259696 0.00850601 1.70482e-25)
(-0.284861 0.0104584 1.034e-19)
(1.0148 -0.00499796 -4.50622e-22)
(1.01505 -0.0048296 -4.5077e-23)
(0.999815 -0.00117218 -5.3022e-21)
(0.999801 -0.00112216 5.99041e-21)
(0.99986 -0.00102282 -9.66503e-21)
(1.04408 0.0456407 4.68657e-21)
(1.16786 0.0339422 0)
(0.987694 -0.0138466 -9.03546e-21)
(0.988557 -0.0143323 2.21446e-21)
(0.987588 -0.0150162 1.15634e-20)
(1.00007 -0.000869206 -2.10939e-21)
(1.00008 -0.0010337 1.01302e-21)
(1.14856 0.0388196 0)
(1.15468 0.0378647 0)
(1.14909 0.0334391 0)
(1.16086 0.036441 -2.80711e-20)
(1.16215 0.0303748 3.4869e-20)
(1.16836 0.0347939 -6.99211e-20)
(1.0182 -0.0369937 -4.72144e-22)
(1.05711 -0.039962 -1.01634e-20)
(1.05834 -0.0422415 6.8201e-21)
(1.07446 -0.0708007 -3.14241e-20)
(1.07523 -0.0669409 -2.19758e-20)
(0.955144 -0.173562 1.27406e-22)
(0.9465 -0.166237 -1.72718e-20)
(0.945217 -0.17769 -5.79392e-22)
(1.06012 -0.035914 0)
(1.05833 -0.0349272 -5.57646e-21)
(1.06002 -0.033862 7.315e-21)
(0.993876 -0.0038639 0)
(1.06792 -0.168859 -3.8339e-22)
(1.07133 -0.163477 1.01242e-20)
(1.06356 -0.162814 1.92435e-21)
(-0.040398 -0.00140342 -2.97645e-20)
(-0.0310271 -0.00783573 9.14193e-20)
(-0.0397566 -0.0123798 7.71841e-20)
(1.02456 -0.00966106 1.71406e-21)
(1.02438 -0.00901367 5.21458e-21)
(-0.218764 0.192313 -7.07217e-20)
(-0.216706 0.179274 2.04074e-20)
(-0.21588 0.187256 -4.98041e-20)
(0.999974 -0.000921715 2.43e-21)
(1.00001 -0.000707488 1.13773e-21)
(1.00004 -0.00246836 -4.43385e-22)
(1.00002 -0.00230788 4.76546e-21)
(0.99999 -0.0024893 -3.59813e-22)
(1.01184 -0.000809388 -3.06885e-23)
(1.0117 -0.00100501 4.07251e-23)
(1.01204 -0.00101113 -4.09819e-22)
(-0.0491324 0.0870236 -3.73671e-21)
(0.993756 0.00135222 -4.51947e-21)
(0.99337 0.00113454 -1.23747e-20)
(0.993739 0.000931481 -1.24208e-20)
(1.37718 -0.213984 1.80689e-19)
(1.37946 -0.228286 3.53859e-20)
(-0.00203912 0.0241643 2.46854e-21)
(0.0295094 0.0272851 4.8107e-20)
(0.0029082 0.0305967 1.31419e-19)
(1.00065 -0.00273337 5.79498e-21)
(1.00061 -0.00279137 4.10618e-21)
(1.00071 -0.00289696 1.61047e-21)
(0.999365 -0.00236693 3.4449e-21)
(0.999331 -0.0025277 1.68617e-22)
(1.35265 -0.113374 2.45613e-20)
(1.36565 -0.107133 6.43973e-20)
(1.36957 -0.117726 0)
(1.01133 -0.000485743 7.33385e-22)
(1.01178 -0.000489595 -8.03263e-23)
(0.999943 -0.00102874 4.38492e-21)
(0.999951 -0.00105647 -4.72562e-22)
(0.99992 -0.0012218 4.21673e-21)
(1.01273 -0.00059075 -1.36796e-22)
(1.01248 -0.000611528 0)
(1.01149 -0.000361972 1.09264e-22)
(-0.0125493 0.0162752 -2.84568e-20)
(-0.0262998 0.018764 -5.64751e-20)
(0.602017 -0.385685 -1.43386e-20)
(0.566425 -0.375836 -1.11584e-19)
(0.931866 -0.0527285 2.20997e-21)
(0.935463 -0.0501639 -1.27197e-20)
(0.935984 -0.0548572 -2.6734e-20)
(0.889328 -0.534001 0)
(0.899112 -0.499684 1.10358e-21)
(0.925704 -0.523234 0)
(1.15496 0.0120426 -1.62836e-20)
(1.156 0.0065684 1.85456e-20)
(1.15048 0.00858295 5.43577e-20)
(-0.111465 0.236265 -5.52091e-20)
(-0.0501411 0.197474 -5.40035e-21)
(-0.0387516 0.192238 -5.7053e-20)
(-0.0510601 0.183837 3.33413e-20)
(1.04188 -0.023499 4.316e-21)
(1.04344 -0.0228593 2.49318e-21)
(-0.110186 -0.169868 -9.07608e-20)
(-0.0489789 -0.200246 1.79527e-19)
(-0.167891 -0.186189 -8.84423e-20)
(1.00002 -0.000672231 -2.83373e-21)
(1 -0.00090759 -6.92982e-22)
(1 -0.00064018 3.19228e-21)
(-0.140207 0.245837 -4.59303e-20)
(-0.155703 0.253662 3.6903e-20)
(0.456772 -1.03998 -5.89195e-20)
(0.207904 -0.999315 -7.15219e-20)
(0.447366 -1.14081 2.0829e-20)
(-0.174148 0.0978477 8.56869e-20)
(-0.177959 0.0972923 -1.05167e-19)
(-0.180606 0.105979 -1.0989e-19)
(-0.0234438 0.0889499 9.08144e-20)
(1.1154 0.0679624 -2.96302e-20)
(1.12035 0.0738393 0)
(1.05839 -0.0210648 0)
(1.06003 -0.0215535 3.8622e-22)
(1.12624 -0.0643517 2.2354e-21)
(1.12752 -0.0698197 0)
(1.06446 -0.021246 1.29389e-20)
(1.06399 -0.0190564 1.37929e-20)
(1.03509 -0.00449512 2.2839e-21)
(1.03544 -0.00373184 2.63751e-21)
(1.03441 -0.00377213 -3.18319e-21)
(1.0448 -0.0159949 -2.99384e-21)
(1.04607 -0.0161076 0)
(1.04536 -0.0147115 0)
(0.856989 -0.540147 0)
(0.827341 -0.513099 -1.09017e-22)
(0.918111 -0.0642342 -2.16216e-20)
(0.914839 -0.0592617 -8.94367e-21)
(0.999391 -0.00224023 -7.95701e-22)
(0.999435 -0.00229626 2.82551e-21)
(1.00001 -0.000175152 2.35421e-21)
(1 -8.49528e-05 2.46316e-21)
(1 -9.20499e-05 -3.60975e-22)
(1.01413 -0.005081 2.94508e-22)
(1.01389 -0.00526311 -2.26158e-22)
(1.01651 -0.000114507 0)
(1.01632 -0.000192853 0)
(1.01679 -0.000203841 -7.3838e-22)
(1.02474 -0.0101976 -3.43051e-21)
(-0.0585903 0.172622 -5.01003e-20)
(-0.0542681 0.175089 -4.12999e-20)
(-0.0542219 0.168488 -5.30565e-20)
(1.00467 -0.00847398 -3.0462e-21)
(1.00498 -0.00846361 -7.18376e-22)
(1.00467 -0.00811881 6.2894e-22)
(1.01846 -0.0221257 -2.173e-21)
(1.01761 -0.0217177 -1.16319e-22)
(1.01768 -0.0227322 -1.18076e-22)
(1.01623 -0.000180999 -5.59319e-22)
(1.01616 -0.000206746 -2.85863e-22)
(1.01671 -0.000158113 1.10617e-21)
(1.00225 -0.00880234 3.57224e-21)
(1.00257 -0.00901874 3.59102e-21)
(-0.0267804 -0.0592853 -2.00156e-20)
(-0.0255744 -0.0494151 -7.75844e-20)
(-0.0153951 -0.0612069 -1.21165e-19)
(1.16025 -0.426397 0)
(1.17115 -0.44916 2.26486e-20)
(0.687968 0.077523 7.38593e-20)
(0.691827 0.0624424 6.03751e-20)
(0.672526 0.0654497 -7.88616e-20)
(0.948366 -0.0131317 -2.9328e-20)
(0.946882 -0.0149888 1.23678e-20)
(0.945834 -0.011944 -1.11209e-20)
(1.11074 0.0165036 2.55361e-20)
(1.10836 0.0132013 -7.15684e-21)
(1.01429 -5.22722e-05 -1.34568e-21)
(0.806489 0.140377 3.99064e-21)
(0.906039 0.113946 -1.28475e-20)
(0.828805 0.116275 -1.24384e-20)
(-0.0443802 -0.0129069 -3.47498e-19)
(0.0198682 -0.0267569 9.64817e-21)
(0.992963 0.000468767 6.63011e-21)
(0.99335 0.000273718 1.27849e-20)
(0.0734627 0.0344881 -6.19023e-20)
(0.0649493 0.0303205 8.11973e-21)
(1.09001 -0.00961426 8.57245e-21)
(1.08973 -0.0124253 1.86835e-20)
(1.08735 -0.0102375 -3.52983e-21)
(0.991967 -0.00109171 9.68931e-21)
(0.991595 -0.00086052 -2.13843e-21)
(-0.109985 -0.00272697 -1.10024e-19)
(0.786012 0.162642 7.7701e-21)
(0.996724 -0.00385143 -3.88245e-21)
(0.996879 -0.00346175 5.96062e-22)
(1.06273 -0.175608 1.37106e-20)
(1.07275 -0.176352 -1.21464e-20)
(0.296691 0.454036 3.38941e-20)
(0.348395 1.09563 3.97108e-20)
(0.973757 -0.0262773 -3.55418e-21)
(0.975421 -0.0269357 3.42893e-24)
(0.975154 -0.0251175 -1.62253e-20)
(0.830162 0.0245953 0)
(0.837466 0.0203646 -2.72596e-20)
(0.830325 0.0158866 -3.39699e-20)
(1.01917 -0.0213555 -1.90779e-21)
(0.969192 -0.0250177 -3.74457e-21)
(0.970738 -0.0242857 -1.95285e-21)
(0.96915 -0.0230726 2.3247e-20)
(-0.0667063 0.222469 -2.00625e-20)
(-0.09742 0.231199 2.4803e-20)
(-0.0433806 0.214126 -1.10066e-20)
(0.899405 -0.181005 -2.31728e-20)
(0.9051 -0.171114 -1.28107e-20)
(0.891551 -0.171806 1.19002e-21)
(0.997496 -0.00842118 5.34354e-22)
(0.997141 -0.008373 -3.18844e-21)
(0.99572 -0.00043785 1.51845e-21)
(0.996008 -0.000514926 -5.10594e-21)
(0.995772 -0.000773959 5.2173e-22)
(0.950038 -0.011074 -1.44237e-20)
(0.950855 -0.0140837 -5.4326e-22)
(1.09867 -0.373874 2.84876e-21)
(1.07863 -0.372298 -6.65643e-21)
(1.08984 -0.355614 -7.60653e-20)
(0.0780146 -0.18563 -2.48085e-20)
(0.111234 -0.202447 1.59133e-22)
(0.0823567 -0.231928 2.27708e-21)
(0.991856 -0.00599911 -4.31305e-21)
(0.99246 -0.00579905 -8.00929e-21)
(1.00499 -0.0077327 0)
(1.0047 -0.0077399 0)
(1.02839 -0.015365 -1.99119e-21)
(1.02856 -0.0146386 2.94911e-21)
(1.02921 -0.0154817 -9.41043e-21)
(-0.249666 0.00748801 -1.66126e-19)
(-0.221783 0.000206014 1.10774e-19)
(-0.0872834 -0.106403 2.29518e-20)
(-0.107541 -0.105192 -9.51701e-20)
(-0.0848751 -0.0126064 5.66677e-20)
(-0.0130783 -0.0167574 -1.78327e-19)
(-0.0538185 -0.0158143 -1.06052e-19)
(1.02784 -0.00457406 -2.3096e-21)
(1.02741 -0.00495437 -1.08126e-22)
(1.02712 -0.00443801 -2.6697e-21)
(0.908675 -0.190136 0)
(0.892842 -0.192899 1.01525e-20)
(0.831384 0.033855 -2.81619e-20)
(0.822743 0.0304404 0)
(0.861843 -0.712625 -3.0365e-20)
(0.813303 -0.736198 -1.50759e-20)
(0.872275 -0.770489 5.58769e-21)
(1.14756 -0.00853324 -1.29032e-20)
(1.14874 -0.00505522 -3.01045e-20)
(1.15257 -0.00891187 -7.41797e-20)
(1.02879 -0.00123664 3.01688e-21)
(1.02924 -0.00168249 8.82105e-23)
(1.02846 -0.00167754 3.87284e-23)
(1.03049 -0.00321926 -3.43518e-21)
(1.03011 -0.00374736 -1.44809e-21)
(1.03092 -0.00380495 -3.59514e-21)
(1.02821 -0.0161809 7.95788e-22)
(1.02749 -0.015282 2.65304e-21)
(1.12134 -0.0630323 2.26682e-21)
(1.12485 -0.0592869 -1.75883e-20)
(0.989701 -0.0345878 4.33054e-22)
(0.991003 -0.0357252 -4.52441e-23)
(0.989278 -0.0364027 3.45147e-21)
(0.0179177 0.00703065 3.86694e-20)
(-0.00526592 0.0138658 3.08682e-20)
(-0.0492621 0.0164896 -1.47622e-20)
(0.998402 -0.00207591 4.18952e-22)
(0.99826 -0.00192475 6.83923e-21)
(0.998245 -0.00219835 0)
(1.00875 -0.014192 -3.07056e-22)
(1.00875 -0.0147658 2.77009e-21)
(1.00932 -0.0146261 -1.34089e-23)
(-0.134034 0.299698 5.07195e-20)
(-0.152417 0.292353 1.13976e-19)
(-0.162664 0.292874 1.16854e-19)