/*--------------------------------*- C++ -*----------------------------------*\
| =========                 |                                                 |
| \\      /  F ield         | OpenFOAM: The Open Source CFD Toolbox           |
|  \\    /   O peration     | Version:  v2012                                 |
|   \\  /    A nd           | Website:  www.openfoam.com                      |
|    \\/     M anipulation  |                                                 |
\*---------------------------------------------------------------------------*/
FoamFile
{
    version     2.0;
    format      ascii;
    class       surfaceVectorField;
    location    "1000";
    object      Uf_0;
}
// * * * * * * * * * * * * * * * * * * * * * * * * * * * * * * * * * * * * * //

dimensions      [0 1 -1 0 0 0 0];


internalField   nonuniform List<vector> 
14470
(
(0.962796 -0.0161658 -1.39703e-20)
(0.960928 -0.0159453 -2.229e-20)
(0.962232 -0.0141624 -1.22511e-20)
(-0.13024 -0.000849365 -5.2865e-20)
(-0.137933 0.000592248 1.29554e-19)
(0.992183 -0.00633988 4.88224e-21)
(0.992522 -0.00676438 5.45199e-21)
(0.991906 -0.00705133 4.83915e-21)
(-0.0431421 0.105387 -4.5214e-20)
(-0.0374023 0.104363 -7.17094e-20)
(-0.0389994 0.112262 -1.75045e-20)
(0.999963 -0.000550643 -1.13025e-22)
(0.999958 -0.000527112 -3.96443e-21)
(0.999928 -0.00071246 -3.5596e-21)
(1.22709 -0.0261103 -3.85843e-20)
(1.23422 -0.0240248 -3.19417e-20)
(1.23181 -0.0320416 4.06186e-21)
(1.1148 -0.236102 2.04039e-20)
(1.12026 -0.225715 2.62685e-21)
(1.13014 -0.2353 2.47662e-21)
(-0.0993854 0.0487466 5.90774e-20)
(-0.0889092 0.0518033 -7.60056e-20)
(-0.137158 0.0493193 -5.91974e-20)
(1.02093 -0.0374907 8.28728e-22)
(1.02233 -0.0384211 -7.52011e-22)
(1.02062 -0.0391994 7.14595e-22)
(1.00005 -0.00202221 3.1055e-21)
(1.00004 -0.00188497 3.93437e-21)
(1.00005 -0.00188617 -3.61398e-22)
(1.00002 -0.00215609 4.35955e-21)
(1.00008 -0.00217279 -8.52851e-22)
(1.00223 -0.00947043 1.69475e-21)
(1.00212 -0.00900836 -4.47701e-23)
(1.0019 -0.00929781 -4.20774e-23)
(-0.0632584 0.144938 -1.24047e-19)
(-0.0833489 0.143825 1.95641e-20)
(-0.0829788 0.148302 -3.20211e-20)
(1.01995 -0.023372 -1.05893e-22)
(1.01938 -0.0224153 1.84645e-22)
(1.02068 -0.0225148 2.21063e-21)
(1.06666 -0.00407553 5.19803e-21)
(1.06817 -0.00362393 1.48304e-20)
(1.06676 -0.00255486 0)
(1.13658 -0.0669661 6.394e-20)
(1.14282 -0.0690505 -9.06386e-21)
(1.13841 -0.0739998 5.10801e-20)
(0.994328 -0.00874513 -5.13894e-21)
(0.994285 -0.00922757 -8.87411e-22)
(0.994759 -0.00892854 -4.2821e-21)
(-0.0680423 -0.0648878 -1.92648e-20)
(-0.0666457 -0.0637388 -5.47217e-20)
(-0.0683541 -0.0746465 7.43318e-21)
(1.01765 -0.00513745 -2.04218e-22)
(1.01757 -0.00474636 0)
(1.01798 -0.00495411 -1.32498e-23)
(1.02331 -0.0100502 -1.87432e-21)
(1.02401 -0.00983454 1.3508e-21)
(1.02321 -0.00943269 1.38287e-21)
(0.99999 -0.000210985 4.01029e-21)
(0.999991 -0.00022056 -4.67731e-21)
(-0.0446852 0.15276 -3.2657e-20)
(-0.0408168 0.162353 2.76213e-21)
(-0.0369011 0.153211 -3.72113e-20)
(-0.0691611 0.0447629 -1.53301e-20)
(-0.121671 0.045999 5.06096e-20)
(-0.0419325 0.140948 -2.19774e-20)
(-0.0393537 0.144349 -4.1327e-20)
(0.919252 -0.0590711 3.90187e-21)
(0.924261 -0.0578985 -2.3496e-20)
(0.920166 -0.0533654 -6.79885e-22)
(0.999956 -0.00355663 4.31782e-21)
(1.00003 -0.00374917 2.86451e-21)
(1.00005 -0.00348011 1.03115e-21)
(1.00003 -0.000427293 1.37767e-21)
(1.00003 -0.000489334 -4.18472e-21)
(1.00006 -0.000603664 -7.34925e-22)
(1.01738 -0.00525323 -1.78889e-22)
(1.01775 -0.00548473 -2.21454e-21)
(1.16013 -0.13974 -4.22781e-20)
(1.16819 -0.137883 2.36851e-21)
(1.1661 -0.147249 -9.84293e-21)
(-0.295495 0.01874 -5.38746e-20)
(-0.297709 0.018796 3.09058e-20)
(-0.328977 0.0189904 -3.86766e-20)
(1.2736 -0.042966 0)
(1.26242 -0.0434423 0)
(1.26937 -0.051359 0)
(0.996583 -0.00359644 0)
(0.996424 -0.00332351 2.92467e-21)
(0.99624 -0.00376697 0)
(0.997227 -0.00886233 3.46817e-21)
(0.996997 -0.00931798 -4.02046e-21)
(0.997391 -0.00935748 1.65505e-21)
(1.00561 -0.000626824 -1.29179e-21)
(1.00533 -0.000620971 -4.50768e-22)
(1.00517 -0.000354023 -3.87607e-21)
(1.08194 -0.0316521 2.8054e-21)
(1.08092 -0.0337741 1.29362e-21)
(1.08341 -0.0330956 -3.85854e-20)
(1.06266 -0.00765103 -9.82802e-21)
(1.06195 -0.00898488 1.56871e-20)
(1.06092 -0.00788479 1.01715e-20)
(0.916984 0.00382574 0)
(0.913547 0.00553823 0)
(0.913953 0.000632325 -2.6506e-20)
(-0.148325 0.0613308 -3.27078e-20)
(-0.143059 0.0571312 4.24991e-20)
(-0.141159 0.0513447 4.15528e-20)
(1.08097 -0.0759465 1.35041e-20)
(1.07709 -0.0739594 -7.10771e-21)
(1.08086 -0.0714155 -8.91912e-21)
(1.15113 -0.142813 3.46265e-20)
(1.15292 -0.134006 5.34109e-20)
(1.05121 0.0414712 -3.93083e-20)
(1.04638 0.0372779 2.50385e-20)
(0.889638 0.0526071 7.79445e-20)
(-0.103079 0.0164293 6.17506e-20)
(-0.0937996 0.031915 0)
(-0.125176 0.0234342 8.25602e-20)
(1.00001 -0.000276815 5.27172e-21)
(1.00002 -0.00040343 3.10232e-21)
(0.992523 -0.000346375 6.81833e-22)
(0.992082 -0.000613183 -1.13439e-20)
(0.992127 -4.173e-05 1.93085e-20)
(0.996425 1.61561e-05 -3.59108e-21)
(0.996708 -0.000119486 -2.92631e-21)
(0.996665 0.000221218 -3.58741e-21)
(-0.245271 0.0413487 -1.54452e-20)
(-0.25078 0.0402828 7.14968e-20)
(-0.22949 0.0470246 1.20662e-19)
(0.999997 -0.000492684 3.70331e-21)
(1.00001 -0.000253686 -3.37994e-23)
(1.00002 -0.000248643 -4.11246e-21)
(1.03193 -0.00811596 0)
(1.03151 -0.00739284 -3.50913e-21)
(1.03259 -0.00754795 2.35706e-21)
(0.994405 -0.00809689 0)
(0.993881 -0.00845428 0)
(1.08349 -0.0289316 1.94249e-20)
(1.08041 -0.0295615 -3.33128e-21)
(1.00585 -0.000868539 1.32254e-21)
(1.00591 -0.000579732 1.23907e-21)
(1.10354 -0.0482159 -2.37931e-21)
(1.10694 -0.0507265 5.74195e-21)
(1.10639 -0.0460532 -8.40551e-21)
(1.00001 -0.000715039 4.66043e-21)
(0.999995 -0.000742922 -7.56747e-22)
(0.897818 -0.11719 2.8188e-20)
(0.907206 -0.115582 1.57004e-20)
(0.904498 -0.1258 -1.73366e-20)
(-0.050689 0.097315 5.53517e-20)
(-0.0523578 0.105964 3.94752e-20)
(1.0024 -0.00859018 -2.42431e-21)
(1.00228 -0.00816043 1.48862e-21)
(1.00258 -0.00836589 -3.31329e-22)
(1.15383 0.0167773 4.45914e-20)
(1.15229 0.0223984 -5.69201e-21)
(1.14815 0.0185389 5.49445e-20)
(1.03133 -0.00851244 -3.20713e-21)
(1.03232 -0.00872616 0)
(1.00001 -0.000262857 4.02204e-21)
(0.902019 -0.0176506 -2.39131e-20)
(0.896712 -0.016236 -2.81055e-20)
(0.901279 -0.0119837 -1.89031e-20)
(0.82859 -0.323276 9.47072e-21)
(0.846818 -0.332456 -6.08452e-21)
(0.82183 -0.353819 2.75587e-20)
(0.9939 -0.00680646 -5.22308e-22)
(0.993617 -0.00645456 -4.73084e-21)
(0.994135 -0.00625507 -1.01236e-20)
(1.09047 -0.00435502 -3.42588e-20)
(1.09003 -0.00726629 -1.5921e-20)
(1.08761 -0.00506203 1.4707e-20)
(1.00279 -0.00125036 3.72803e-21)
(1.00296 -0.00117321 -1.74466e-21)
(1.00299 -0.00141768 3.07301e-21)
(1.01962 -0.0365613 -7.51227e-22)
(1.02105 -0.0360043 0)
(-0.258284 0.0275959 1.10469e-19)
(-0.250269 0.0269511 -2.09658e-20)
(1.05479 -0.0462446 2.68991e-20)
(1.05255 -0.0464389 5.29005e-21)
(1.05411 -0.0486273 -1.86305e-21)
(1.06335 -0.00640749 -1.01798e-20)
(1.06376 -0.00495788 -5.6073e-21)
(1.06212 -0.00526219 0)
(0.0216699 0.0027692 8.57952e-21)
(0.0472861 0.0130175 -2.98677e-20)
(0.0556686 0.0106761 -2.49286e-20)
(0.97904 -0.010822 3.01389e-21)
(0.977819 -0.0104876 -3.63665e-21)
(0.978946 -0.00969788 0)
(0.599086 0.0282594 1.02248e-21)
(0.579403 0.0415886 -1.76746e-20)
(0.577882 0.0135121 6.92503e-20)
(-0.162411 0.0547862 4.4619e-20)
(-0.12661 0.057706 1.85169e-19)
(-0.160448 0.0578889 9.15298e-20)
(0.518578 0.20871 3.26836e-21)
(0.394769 0.228087 -2.44041e-21)
(0.512702 0.226731 -1.25723e-20)
(0.182161 0.0486783 -3.82946e-20)
(0.122448 0.044401 -1.92798e-21)
(0.181018 0.0546468 -1.92381e-21)
(0.999999 -0.000692454 1.38434e-21)
(0.999992 -0.000749142 5.37301e-21)
(1.00002 -0.000941907 6.26614e-21)
(0.792901 -0.132935 2.4643e-20)
(0.807693 -0.139975 -4.41864e-20)
(0.805154 -0.123954 -6.00505e-20)
(0.923473 0.0123223 5.5383e-20)
(0.752695 0.0255861 1.12411e-19)
(0.761058 0.0196717 -1.11712e-19)
(0.994633 -0.0032801 0)
(0.994411 -0.00369399 0)
(0.994841 -0.00354978 -6.80046e-21)
(0.999973 -0.00062959 -3.51082e-21)
(0.999977 -0.000634763 4.35222e-21)
(0.999987 -0.000432457 -4.21579e-21)
(0.782462 -0.139325 4.18802e-20)
(0.781027 -0.122282 8.91123e-20)
(-0.0715893 -0.0647532 -1.01196e-20)
(-0.0675806 -0.056665 0)
(1.13114 -0.0659905 -2.37296e-20)
(1.13497 -0.0614832 3.87699e-20)
(0.978727 -0.0701728 -2.07121e-21)
(0.981896 -0.0716848 -2.04731e-23)
(0.98222 -0.06809 -3.86459e-21)
(1.0644 -0.00746735 -9.67374e-21)
(1.26104 -0.151083 -1.14505e-19)
(1.255 -0.160017 4.48087e-20)
(1.25135 -0.148693 9.38963e-20)
(0.999967 -0.000628379 -3.42628e-21)
(0.999947 -0.000814011 -9.14996e-21)
(1.11011 0.0321691 0)
(1.10781 0.0273095 0)
(1.10444 0.0312263 0)
(-0.153385 0.0657089 8.93238e-21)
(-0.154004 0.0707485 -2.81353e-20)
(0.824148 -0.302347 3.11687e-21)
(0.800734 -0.322922 3.59186e-20)
(-0.0591651 0.134437 -6.34239e-20)
(-0.0530173 0.13583 -1.50159e-20)
(-0.0585116 0.127672 -4.77335e-20)
(1.35404 -0.185845 3.81255e-20)
(1.34806 -0.173467 -2.3603e-20)
(1.36732 -0.176094 9.09949e-20)
(1.36965 -0.201643 -1.57193e-19)
(1.33802 -0.1941 -1.55348e-20)
(1.08629 -0.121347 1.53445e-20)
(1.09248 -0.127174 1.94804e-20)
(1.09298 -0.11879 0)
(-0.106944 -0.00479509 -8.44856e-20)
(-0.0781034 0.00925645 6.3838e-20)
(0.99576 -0.0123549 -6.32372e-22)
(0.995938 -0.0129448 8.39539e-21)
(0.996297 -0.0123669 3.83718e-21)
(0.185409 0.0507639 5.28701e-20)
(0.258502 0.0559119 -6.96804e-20)
(1.13493 -0.0905907 -2.64225e-20)
(1.12987 -0.0939836 2.33052e-21)
(1.12944 -0.087356 3.85612e-20)
(1.04125 -0.0656761 -2.43285e-21)
(1.04405 -0.0668271 -1.25153e-20)
(1.04147 -0.0688505 -1.3907e-20)
(0.999988 -0.000386193 3.84712e-21)
(0.999962 -0.000598076 3.67038e-21)
(-0.127425 0.105193 2.77741e-20)
(-0.131271 0.109277 2.53929e-20)
(-0.122762 0.112639 0)
(1.1011 -0.0511802 2.07562e-20)
(1.10009 -0.0465004 4.26558e-21)
(-0.0910928 0.236104 2.55821e-20)
(-0.0979585 0.22329 9.26096e-20)
(-0.0834858 0.207316 3.91232e-20)
(0.992944 6.72203e-08 1.0597e-20)
(0.992962 -0.000536535 1.53009e-21)
(0.0866674 0.0934918 3.21815e-20)
(0.0263066 0.0895466 -2.21302e-21)
(0.0559627 0.0811072 2.47642e-20)
(0.597697 0.0383683 1.2766e-19)
(0.463372 0.0436792 -9.56947e-20)
(0.447008 0.049184 1.41312e-19)
(0.674552 0.170603 1.41125e-21)
(0.537938 0.182808 3.5685e-21)
(1.00475 -0.00713521 -2.38928e-21)
(1.00471 -0.00743946 -1.82768e-23)
(1.00445 -0.00711041 -6.16502e-21)
(0.994411 -0.0029949 -5.945e-21)
(0.994857 -0.0028836 1.3628e-20)
(0.999986 -0.000188797 0)
(1.00008 -0.000963859 -1.61313e-21)
(1.0001 -0.000940769 -7.72206e-22)
(1.00012 -0.00112077 6.87214e-21)
(-0.0486931 0.143201 4.4627e-20)
(-0.0507183 0.150233 -1.8614e-21)
(0.114975 -0.120406 2.35701e-19)
(0.079889 -0.127663 -1.19109e-19)
(0.0842807 -0.0883035 1.4043e-19)
(-0.286854 0.0107457 6.26698e-20)
(-0.290775 0.0111552 2.6437e-20)
(-0.315183 0.0131849 -1.77435e-19)
(0.9802 -0.0109628 -8.23348e-21)
(0.979321 -0.0116703 2.88914e-21)
(0.999139 -0.00249033 5.04185e-21)
(0.999121 -0.00269332 0)
(0.998982 -0.00256707 0)
(1.05742 0.00132484 1.01136e-20)
(1.05631 0.00206379 -8.38694e-21)
(1.05786 0.00294414 3.28329e-21)
(0.996817 -0.000699047 4.1995e-21)
(0.997068 -0.000773692 -3.67011e-22)
(0.996866 -0.000994641 4.06458e-21)
(-0.0583336 0.0901941 3.98937e-20)
(-0.0664277 0.0917072 0)
(-0.0648421 0.0832201 0)
(0.996127 0.00062364 1.87768e-21)
(0.996025 0.000340574 1.04189e-20)
(0.995837 0.000574223 4.89818e-21)
(-0.0130614 0.0993372 1.2865e-20)
(-0.010079 0.110387 9.86525e-21)
(-0.0578225 0.104783 3.78035e-20)
(1.11248 0.0365685 -1.77293e-20)
(1.11602 0.0319846 -1.92058e-20)
(0.459474 0.0702523 -4.70565e-20)
(0.362331 0.0579318 8.40832e-20)
(0.387016 0.0648212 1.74827e-19)
(1.1151 -0.0291252 2.86356e-20)
(1.11596 -0.0249764 -1.89433e-20)
(1.11218 -0.0260926 -7.75296e-21)
(1.06114 -0.0105973 6.57869e-21)
(1.06324 -0.0104801 9.58538e-21)
(0.996153 0.000933917 -9.40755e-21)
(0.996399 0.000659862 -5.09821e-22)
(1.14465 -0.0831392 -2.54939e-20)
(1.15099 -0.0805876 1.94375e-20)
(1.15049 -0.0883093 -5.72044e-20)
(-0.296252 0.0188951 -8.30386e-21)
(-0.26682 0.0193748 -2.13494e-21)
(1.09976 0.100818 -2.08271e-20)
(1.10393 0.0936214 3.22399e-20)
(1.10908 0.101469 0)
(1.09461 0.108928 1.71786e-20)
(1.0885 0.0999152 5.59811e-21)
(1.059 -0.0246586 0)
(1.05878 -0.0228276 -1.14304e-20)
(1.05734 -0.0240122 0)
(1.0068 -0.0150953 0)
(1.00732 -0.0150547 1.32155e-21)
(1.00684 -0.0145717 1.08847e-21)
(0.964821 -0.0159546 1.67965e-20)
(0.963689 -0.0176926 1.20711e-20)
(1.04956 -0.0426388 4.1261e-21)
(1.0475 -0.0430308 -3.27813e-22)
(1.0481 -0.0409255 8.1853e-21)
(1.07892 -0.0349482 9.37562e-21)
(1.07612 -0.0339046 -1.15277e-20)
(1.07644 -0.0368529 -2.32166e-20)
(1.19839 -0.227225 6.4373e-21)
(1.18845 -0.2345 -2.95903e-20)
(1.20246 -0.241529 2.85229e-20)
(1.25207 0.0219579 4.45875e-20)
(1.25384 0.0279883 0)
(1.24084 0.0248492 0)
(1.05863 0.000919638 2.18789e-20)
(1.05716 4.31882e-05 -5.12649e-21)
(1.00001 -0.000666478 -4.75716e-21)
(0.999998 -0.000446214 -2.81895e-21)
(1.15005 -0.0583162 6.32834e-20)
(1.15356 -0.0555185 -1.20959e-20)
(1.15468 -0.0614459 3.14271e-20)
(-0.0653924 -0.0519943 1.30162e-21)
(-0.0701121 -0.0590976 1.99608e-20)
(-0.0620158 -0.049284 1.00869e-19)
(1.0809 -0.0365993 1.40877e-20)
(0.983905 -0.0191198 4.99605e-21)
(0.984227 -0.0204515 2.06428e-21)
(0.985133 -0.0193169 2.48645e-21)
(1.10661 0.0158106 -5.61893e-21)
(1.10433 0.0191771 2.99005e-20)
(1.10271 0.0156504 1.48056e-20)
(-0.237464 0.0429272 -6.8079e-20)
(-0.230466 0.0440099 -2.43189e-21)
(-0.21895 0.0503333 5.52714e-20)
(1.15001 -0.446223 -4.24313e-20)
(1.13346 -0.449917 -2.53442e-20)
(1.14045 -0.468212 -1.14085e-19)
(0.996174 0.00121565 1.81336e-21)
(0.996443 0.00126421 2.26836e-21)
(0.196114 0.0530969 6.82681e-20)
(0.153202 0.0426159 6.3337e-20)
(1.00636 -0.0151775 0)
(1.00684 -0.0156385 8.38523e-23)
(0.995884 0.00115821 1.38646e-20)
(0.9991 -0.00400672 -1.93112e-21)
(0.999227 -0.00386899 3.46774e-21)
(0.999121 -0.0037142 -5.34677e-21)
(0.0580091 -0.0425097 7.09678e-21)
(0.279655 -0.093366 -1.50003e-19)
(0.134036 -0.0563485 -5.19873e-20)
(1.03823 -0.0644708 1.86209e-20)
(1.04058 -0.0626846 1.63805e-20)
(0.999909 -0.00344626 4.08763e-21)
(0.999895 -0.00365764 -2.355e-21)
(0.985383 -0.00261292 -8.80193e-21)
(0.985647 -0.00331949 -3.17863e-21)
(0.984836 -0.00326083 -9.73834e-21)
(1.36832 -0.223751 1.20063e-19)
(1.34223 -0.222503 -4.951e-20)
(1.35672 -0.237507 -1.79813e-19)
(1.14617 -0.0630062 -2.14585e-20)
(1.14898 -0.0709948 -8.18784e-20)
(0.994203 -0.00718647 4.12384e-21)
(0.99367 -0.00743314 4.58925e-21)
(1.27807 -0.0348849 -6.49691e-20)
(1.28937 -0.0430373 0)
(0.983915 -0.0113965 -6.68718e-21)
(0.984789 -0.0110776 -5.63747e-21)
(0.984694 -0.0120813 -6.67671e-21)
(1.10622 0.0227644 0)
(1.11105 0.0231898 0)
(1.06076 -0.0252533 0)
(1.05923 -0.0264666 0)
(1.02348 -0.0105669 -1.41798e-21)
(1.0228 -0.0102314 -3.60774e-21)
(0.586123 -0.412186 3.5692e-20)
(0.597284 -0.442704 -7.56195e-21)
(0.558 -0.434135 3.90505e-20)
(1.03956 -0.0170559 1.51125e-21)
(1.03969 -0.0181282 -9.06754e-21)
(1.03841 -0.0176779 -1.31104e-21)
(1.07648 -0.00180266 2.6172e-21)
(1.09656 -0.0129136 -6.93125e-21)
(-0.0887614 0.203256 -9.42282e-21)
(-0.0596756 0.185784 -9.3712e-20)
(-0.0589984 0.169843 2.02275e-20)
(1.04218 -0.0208377 -1.77633e-20)
(1.04193 -0.0221472 -4.47597e-21)
(1.04066 -0.021327 -1.00935e-20)
(1.00478 -0.00682034 0)
(1.00477 -0.00651476 -2.44074e-21)
(1.00449 -0.00651732 2.49165e-21)
(1.00002 -0.00172363 3.38121e-21)
(1.00001 -0.00155086 7.34877e-21)
(1.00001 -0.00154299 -1.13424e-21)
(0.983518 -0.0182974 -4.83565e-22)
(0.982703 -0.0192306 -5.50312e-21)
(-0.227087 0.00183308 2.23508e-23)
(-0.202954 -0.00247486 0)
(-0.236222 0.00416347 0)
(0.541551 -0.275281 6.04898e-20)
(0.330089 -0.186358 3.81666e-20)
(0.207402 -0.135842 -4.77964e-20)
(-0.213688 0.168066 5.90307e-20)
(-0.212494 0.163428 9.52928e-20)
(-0.209483 0.155503 4.02299e-21)
(1.00223 -0.010031 4.37836e-21)
(1.00255 -0.00972351 -8.41464e-21)
(1.21916 -0.0287968 0)
(1.22148 -0.0212194 0)
(1.01957 -0.375078 1.38203e-20)
(1.03665 -0.361463 -5.09341e-21)
(1.01652 -0.354328 -8.15867e-22)
(0.57293 -0.523534 -2.60542e-20)
(0.533836 -0.559682 -2.41893e-20)
(0.532942 -0.495341 0)
(0.994154 -0.00415087 0)
(0.994422 -0.00445319 0)
(0.993908 -0.00461004 -1.13546e-20)
(1.05631 -0.041875 2.81154e-21)
(1.05549 -0.0441503 1.72355e-20)
(1.05393 -0.0417638 -5.69377e-21)
(0.161369 0.0936052 -3.43327e-20)
(0.129516 0.105624 0)
(-0.258193 0.0350157 2.26861e-20)
(1.10883 0.0399165 -3.54165e-20)
(1.11517 0.0414695 1.47732e-21)
(0.996233 -0.000248099 0)
(0.996158 0.000101258 8.56358e-22)
(0.997422 -0.000441218 4.52296e-21)
(0.997597 -0.000294736 0)
(0.997631 -0.000544585 -3.89966e-21)
(1.00506 -0.00711468 2.10364e-21)
(0.589935 0.0751397 4.33012e-20)
(0.556319 0.0789123 -8.61128e-20)
(-0.166951 0.0514577 -1.02019e-19)
(-0.192135 0.0511818 -4.45225e-20)
(0.835236 -0.38734 -8.76065e-20)
(0.979055 -0.474071 1.9383e-20)
(-0.0694171 0.249569 -4.65293e-20)
(-0.0961367 0.258817 -2.24886e-20)
(1.01853 -0.0356189 -1.06951e-21)
(1.01742 -0.0345711 -8.81388e-22)
(1.01882 -0.0340719 1.01626e-21)
(-0.117356 0.254961 6.06544e-20)
(-0.0542445 0.28017 -7.9494e-20)
(-0.147153 0.284735 3.48661e-20)
(0.400287 -0.14061 0)
(0.378039 -0.156068 0)
(0.409188 -0.166694 5.38619e-20)
(0.912815 -0.0218166 -1.1698e-21)
(0.910996 -0.0181642 -1.1111e-21)
(0.915483 -0.0182354 1.17452e-20)
(1.03461 -0.00514116 4.71091e-22)
(1.03413 -0.00578014 -2.4514e-21)
(1.03363 -0.00509707 4.21982e-21)
(0.960961 -0.0518303 1.42758e-20)
(0.963032 -0.0498424 8.77853e-21)
(0.960103 -0.0486944 -8.57458e-21)
(0.195718 0.106098 7.90762e-20)
(0.161968 0.0994139 1.33983e-19)
(0.187999 0.0674733 7.15985e-20)
(1.01517 -0.00509506 4.13805e-22)
(1.01557 -0.00521051 -7.13484e-22)
(1.01532 -0.00540182 3.77781e-22)
(0.993989 -0.00965535 3.096e-21)
(0.994436 -0.00972048 4.94159e-21)
(0.999735 -0.0014982 9.93133e-21)
(0.99977 -0.00154222 -3.82877e-21)
(0.999805 -0.00139786 4.65585e-21)
(0.976692 -0.0106591 3.21344e-21)
(0.975407 -0.010923 -3.31075e-21)
(0.97644 -0.0119001 -5.10381e-21)
(1.0256 -0.00910839 -1.02566e-21)
(1.026 -0.00880672 2.14686e-21)
(1.02538 -0.00848998 -3.01123e-21)
(1.08292 -0.02479 -1.29981e-20)
(1.08459 -0.0268972 -1.25062e-20)
(1.08591 -0.0244014 4.35445e-21)
(1.06582 -0.0198598 1.5971e-21)
(1.06761 -0.0204382 1.28641e-20)
(1.06683 -0.0187155 1.24198e-20)
(-0.0827086 0.0101932 5.47365e-20)
(-0.0760747 0.0133632 1.1142e-20)
(-0.0738869 0.00179665 2.96376e-20)
(0.982182 -0.00162921 -1.3952e-21)
(0.981396 -0.00219235 -8.19233e-21)
(0.982379 -0.00247244 -3.66694e-21)
(1.07194 -0.0685032 1.49362e-20)
(1.06965 -0.0660174 4.56721e-22)
(1.06854 -0.069533 6.17724e-21)
(1.04231 -0.0196509 2.06544e-21)
(1.04344 -0.0203807 -4.88316e-21)
(0.968682 -0.0291243 2.76758e-21)
(0.968977 -0.0269303 -4.78536e-21)
(0.970647 -0.0285951 -1.34885e-20)
(0.81638 -0.547593 1.89542e-22)
(0.776904 -0.552514 4.16521e-21)
(0.807925 -0.593908 2.50426e-22)
(1.14449 -0.0574489 -9.75638e-21)
(-0.0576786 -0.0430436 7.29018e-21)
(-0.0705323 -0.050848 -3.93204e-20)
(1.01377 -0.00497817 -3.07029e-22)
(1.01359 -0.00473224 -1.08949e-22)
(1.01338 -0.00491022 -4.68553e-22)
(-0.00505445 -0.00387624 5.43588e-20)
(0.00290705 -0.00660296 -4.14353e-20)
(0.975794 -0.0682493 4.33753e-21)
(0.975137 -0.0719409 1.88714e-21)
(1.07258 0.010116 -1.4462e-21)
(1.07181 0.0102207 -9.78365e-21)
(1.0722 0.00965755 -6.24165e-21)
(1.01944 -0.0240092 -8.59716e-23)
(1.02059 -0.0240451 1.20376e-21)
(1.20921 -0.220123 1.21614e-20)
(1.19726 -0.215042 -5.00156e-20)
(0.999246 -0.00243084 -1.03967e-21)
(0.999174 -0.00234667 4.32493e-21)
(0.740197 -0.0606533 -4.64469e-20)
(0.750209 -0.0496944 -2.23795e-20)
(0.731328 -0.0457348 -8.52537e-21)
(1.13919 -0.0868556 -8.52943e-20)
(1.13992 -0.094099 -1.07751e-19)
(1.02517 -0.00941572 -1.24039e-21)
(1.02593 -0.00964848 3.21671e-22)
(0.332217 0.44909 3.52948e-20)
(0.380863 0.42999 1.25206e-19)
(0.375832 0.483652 -4.51091e-21)
(-0.219161 0.215461 -5.01807e-21)
(-0.217745 0.223127 -1.99808e-21)
(-0.217065 0.225402 1.36542e-20)
(1.08232 -0.124893 -3.05022e-20)
(1.08191 -0.118166 1.32795e-20)
(0.995515 -0.0147418 1.93647e-21)
(0.995296 -0.0140657 -1.7911e-22)
(0.994811 -0.0147626 -3.98083e-21)
(1.12645 -0.0187922 0)
(1.12528 -0.022386 2.52815e-20)
(1.13019 -0.0220074 0)
(-0.172704 0.2551 -1.46155e-20)
(-0.186741 0.25515 2.92966e-22)
(-0.191195 0.265986 -5.38849e-20)
(0.755484 -0.0868938 3.39613e-20)
(0.746857 -0.0735536 -4.42681e-20)
(0.764519 -0.0773654 -7.25991e-20)
(0.743314 -0.0959651 1.46618e-20)
(0.760267 -0.0983955 5.28257e-20)
(-0.0872726 0.0492779 0)
(-0.0957997 0.0523436 1.13176e-20)
(-0.0899979 0.0592418 5.76391e-20)
(1.11361 0.0734887 0)
(1.10672 0.0745809 0)
(1.11195 0.0805985 0)
(1.07305 0.0101827 -1.29123e-20)
(1.07273 0.00964101 -6.73884e-22)
(1.09074 -0.00216631 -3.94387e-20)
(1.093 -0.00423289 -2.34375e-21)
(0.418543 -0.121862 8.94861e-20)
(0.387425 -0.113822 5.61422e-20)
(1.02827 -0.00412849 5.13056e-21)
(1.02862 -0.00364202 1.23201e-21)
(1.02789 -0.00358059 2.97474e-22)
(-0.0959334 0.196348 -1.67069e-20)
(-0.259412 0.00860382 8.23404e-20)
(-0.284579 0.0105336 -1.65401e-20)
(1.0148 -0.00500152 5.02908e-22)
(1.01505 -0.00483322 -4.42472e-23)
(0.999814 -0.00116602 4.82982e-22)
(0.9998 -0.0011159 -1.43462e-22)
(0.99986 -0.00101761 1.06553e-23)
(1.04284 0.0453656 -4.68064e-21)
(1.16678 0.033623 2.99392e-20)
(0.987686 -0.013834 1.45263e-21)
(0.988548 -0.0143202 1.20735e-21)
(0.987578 -0.0150029 3.72044e-21)
(1.00007 -0.000867761 1.13338e-21)
(1.00008 -0.0010319 -2.17075e-21)
(1.14847 0.0382305 3.37148e-20)
(1.15456 0.0372796 -4.5939e-21)
(1.149 0.0328751 -3.09657e-20)
(1.16072 0.03586 5.79196e-20)
(1.162 0.0298182 1.2418e-21)
(1.16819 0.0342176 1.37729e-20)
(1.01817 -0.0370116 1.72127e-22)
(1.05709 -0.0400456 -1.39468e-20)
(1.05832 -0.0423283 6.1026e-21)
(1.07437 -0.0709034 -9.55913e-21)
(1.07515 -0.0670487 -7.2858e-21)
(0.955037 -0.173491 9.81321e-21)
(0.946399 -0.166165 -1.52805e-20)
(0.945112 -0.177614 -4.57789e-21)
(1.06012 -0.036004 -4.00709e-21)
(1.05833 -0.0350127 -8.523e-21)
(1.06002 -0.0339509 -2.15489e-20)
(0.993873 -0.00386043 0)
(1.06774 -0.168855 3.69765e-20)
(1.07115 -0.163482 1.96717e-20)
(1.06339 -0.162814 -8.7388e-22)
(-0.0404111 -0.000229908 -1.1711e-20)
(-0.031021 -0.00667112 1.14262e-19)
(-0.0397772 -0.0112306 -1.34447e-20)
(1.02457 -0.00967049 0)
(1.02439 -0.00902218 2.07822e-21)
(-0.218869 0.192853 -6.42396e-21)
(-0.216847 0.179925 -2.08577e-20)
(-0.215825 0.187848 -1.00484e-20)
(0.999974 -0.000919259 2.43661e-21)
(1.00001 -0.000705791 2.24159e-21)
(1.00004 -0.00246169 3.67279e-22)
(1.00002 -0.0023015 1.28748e-21)
(0.999989 -0.00248239 -3.82391e-21)
(1.01184 -0.000809813 -3.00528e-23)
(1.0117 -0.00100549 -1.28686e-22)
(1.01204 -0.00101167 4.15316e-22)
(-0.0491058 0.088198 -3.59866e-20)
(0.993756 0.00135642 6.59046e-22)
(0.99337 0.00113864 -1.37869e-20)
(0.99374 0.000935687 -1.97799e-22)
(1.37641 -0.213987 7.67811e-20)
(1.3788 -0.228221 1.20036e-19)
(-0.00276421 0.0247721 -1.03018e-20)
(0.028714 0.0278245 -6.17521e-20)
(0.00208163 0.0311921 -1.14e-20)
(1.00064 -0.00272935 1.44713e-21)
(1.00061 -0.00278712 8.74957e-22)
(1.00071 -0.00289302 -9.22734e-22)
(0.999364 -0.00235683 -1.76506e-21)
(0.999329 -0.00251767 -5.83613e-21)
(1.35199 -0.1138 1.41598e-20)
(1.36499 -0.107544 -4.17055e-20)
(1.36886 -0.118098 -3.88178e-20)
(1.01133 -0.000486049 2.98412e-23)
(1.01178 -0.000489922 7.20056e-23)
(0.999943 -0.0010251 4.52369e-21)
(0.999951 -0.0010529 0)
(0.99992 -0.00121732 0)
(1.01273 -0.000591162 0)
(1.01249 -0.000611926 2.99809e-23)
(1.0115 -0.000362233 2.4283e-22)
(-0.013194 0.0169213 -9.8923e-20)
(-0.0269753 0.0194565 0)
(0.601974 -0.385488 1.89142e-20)
(0.566388 -0.375639 -3.47175e-20)
(0.931835 -0.0526766 3.67588e-21)
(0.935433 -0.0501138 -1.94808e-20)
(0.93595 -0.0548072 -2.84336e-20)
(0.889211 -0.533754 0)
(0.89899 -0.49945 -2.11725e-22)
(0.925573 -0.522989 -2.542e-21)
(1.15483 0.0115638 -5.49194e-21)
(1.15586 0.00610969 2.39747e-20)
(1.15036 0.00812197 -4.28135e-21)
(-0.11173 0.232815 8.28616e-20)
(-0.0501715 0.1986 5.68401e-21)
(-0.0387637 0.193377 -7.0429e-20)
(-0.0510808 0.184905 -9.31106e-20)
(1.04189 -0.0235416 8.29408e-21)
(1.04345 -0.0229034 3.37297e-21)
(-0.109858 -0.168681 0)
(-0.0489041 -0.199055 8.3364e-20)
(-0.167531 -0.184811 -9.92051e-20)
(1.00002 -0.00067073 -3.33368e-21)
(1 -0.000905341 4.17731e-21)
(1 -0.000638719 8.15401e-22)
(-0.139356 0.244686 -3.97802e-20)
(-0.155072 0.252271 -2.0129e-20)
(0.456818 -1.0397 2.87368e-22)
(0.207897 -0.999142 -1.63737e-20)
(0.447449 -1.14067 -7.8338e-20)
(-0.174182 0.0989274 3.31031e-20)
(-0.178063 0.0983676 0)
(-0.18062 0.107043 2.9175e-20)
(-0.0248076 0.0896473 -1.03262e-19)
(1.11545 0.0672168 2.95426e-20)
(1.12036 0.0730806 -3.73401e-20)
(1.05843 -0.0211389 -1.18501e-20)
(1.06007 -0.0216329 7.90526e-22)
(1.12609 -0.0645549 -6.94767e-20)
(1.12736 -0.0700137 -1.97237e-20)
(1.0645 -0.02134 -1.29146e-20)
(1.06404 -0.0191469 -1.37669e-20)
(1.03512 -0.00449324 -4.13153e-21)
(1.03547 -0.00372784 -1.06688e-21)
(1.03444 -0.00376842 -4.56889e-22)
(1.04483 -0.0160288 -1.70821e-22)
(1.0461 -0.0161431 0)
(1.04539 -0.0147432 -7.7259e-21)
(0.856885 -0.539903 0)
(0.827245 -0.512867 -1.09534e-22)
(0.918075 -0.0641745 2.0206e-20)
(0.914806 -0.0592001 3.5478e-22)
(0.999389 -0.00223001 -8.12685e-22)
(0.999434 -0.00228637 5.68761e-22)
(1.00001 -0.000174953 5.20868e-21)
(1 -8.48635e-05 2.46991e-21)
(1 -9.19524e-05 5.18316e-21)
(1.01413 -0.00508424 -5.40287e-22)
(1.01389 -0.00526626 4.16006e-23)
(1.01652 -0.000114505 7.02411e-22)
(1.01632 -0.000192828 0)
(1.0168 -0.000203808 0)
(1.02475 -0.0102079 0)
(-0.0585806 0.173608 4.00957e-21)
(-0.0542809 0.176107 -5.03002e-20)
(-0.0542017 0.169483 -6.6722e-20)
(1.00467 -0.00847553 1.90697e-21)
(1.00498 -0.00846503 2.31382e-21)
(1.00467 -0.00812039 7.60363e-22)
(1.01846 -0.022139 -1.01889e-24)
(1.0176 -0.0217298 -1.14543e-22)
(1.01768 -0.0227448 -1.16274e-22)
(1.01624 -0.000180974 3.33946e-22)
(1.01617 -0.000206732 0)
(1.01672 -0.000158014 0)
(1.00224 -0.00880421 -3.70395e-21)
(1.00257 -0.00902061 1.91277e-22)
(-0.0268091 -0.0581475 8.5274e-20)
(-0.0256 -0.04826 -6.2263e-20)
(-0.0154072 -0.0599847 7.45603e-20)
(1.16 -0.426145 3.73176e-20)
(1.17089 -0.448865 -1.58865e-20)
(0.687993 0.0776645 1.9695e-20)
(0.691848 0.0625814 9.07638e-21)
(0.672544 0.0655935 3.06837e-21)
(0.948357 -0.0130892 -2.26065e-20)
(0.946872 -0.014945 6.16193e-22)
(0.945826 -0.0118999 4.02053e-21)
(1.11083 0.0160614 -3.68461e-20)
(1.10845 0.0127853 -1.26583e-20)
(1.01429 -5.22928e-05 -9.08232e-23)
(0.803462 0.138927 -4.74171e-21)
(0.904554 0.112322 8.16035e-21)
(0.826369 0.114829 1.42735e-21)
(-0.0442082 -0.012894 -1.16834e-19)
(0.0201203 -0.0267339 8.74997e-20)
(0.992963 0.000472825 1.33226e-20)
(0.99335 0.00027782 1.95369e-20)
(0.0725633 0.0349138 -7.61608e-20)
(0.0641631 0.0307607 2.23843e-20)
(1.0901 -0.00983868 -1.78917e-20)
(1.0898 -0.0126419 -1.77999e-20)
(1.08744 -0.0104469 -1.51616e-21)
(0.991966 -0.00108746 -2.02794e-20)
(0.991594 -0.000855927 -3.70772e-21)
(-0.109934 -0.0028651 0)
(0.782501 0.161154 4.75872e-21)
(0.99672 -0.00384644 2.4581e-22)
(0.996876 -0.00345603 4.47903e-21)
(1.06255 -0.175594 1.05932e-20)
(1.07255 -0.176343 2.7066e-20)
(0.29653 0.453976 0)
(0.348371 1.09587 0)
(0.973739 -0.0262502 3.56093e-21)
(0.975403 -0.0269097 -3.55515e-24)
(0.975137 -0.0250914 3.59442e-21)
(0.830175 0.0246905 7.577e-21)
(0.837478 0.0204569 -5.37867e-20)
(0.830334 0.0159819 2.49776e-20)
(1.01917 -0.0213695 1.02397e-22)
(0.969175 -0.0249875 -8.6613e-21)
(0.970721 -0.0242565 -1.91818e-21)
(0.969135 -0.0230424 -5.54024e-21)
(-0.0652349 0.220886 -4.37267e-20)
(-0.096162 0.229904 -1.10459e-20)
(-0.0417094 0.212701 1.15335e-20)
(0.899318 -0.180907 -1.24834e-20)
(0.905015 -0.171021 2.91333e-21)
(0.89147 -0.171708 2.51773e-21)
(0.99749 -0.00842051 -2.98838e-21)
(0.997136 -0.00837203 -1.83162e-21)
(0.995719 -0.000431462 -7.7411e-22)
(0.996007 -0.000507951 5.11608e-21)
(0.995771 -0.000767693 -5.23019e-22)
(0.950031 -0.0110322 -1.05817e-20)
(0.950846 -0.0140425 -1.92609e-20)
(1.09843 -0.373683 5.25112e-22)
(1.0784 -0.372112 1.65511e-21)
(1.0896 -0.355437 1.10928e-22)
(0.0780164 -0.185429 -9.08279e-21)
(0.111234 -0.202255 -4.04614e-20)
(0.082363 -0.231724 1.07936e-20)
(0.991852 -0.00599461 -6.82574e-21)
(0.992456 -0.00579512 -2.47872e-21)
(1.00499 -0.00773419 2.52049e-21)
(1.00469 -0.0077415 8.34008e-22)
(1.0284 -0.0153833 -1.62215e-21)
(1.02857 -0.0146561 4.84189e-21)
(1.02921 -0.0155006 -5.68657e-21)
(-0.249664 0.00749815 -1.29436e-19)
(-0.221746 0.000223341 7.18728e-20)
(-0.0870814 -0.105472 0)
(-0.107223 -0.104294 0)
(-0.084694 -0.01238 -5.26426e-20)
(-0.0128661 -0.0165073 5.53952e-20)
(-0.0536574 -0.0155945 2.77414e-20)
(1.02785 -0.00457415 5.18665e-21)
(1.02742 -0.00495532 -1.1869e-22)
(1.02713 -0.004438 -2.71558e-21)
(0.908582 -0.190038 1.11427e-20)
(0.892753 -0.192795 -2.55434e-20)
(0.8314 0.0339499 -2.81704e-20)
(0.822758 0.0305388 -1.86077e-20)
(0.86175 -0.712342 -1.74039e-20)
(0.813241 -0.735899 4.1324e-21)
(0.872193 -0.770198 1.333e-20)
(1.14744 -0.00892492 -1.28801e-20)
(1.14862 -0.00546179 -3.00505e-20)
(1.15243 -0.00930864 -7.26165e-20)
(1.0288 -0.00122995 7.76019e-22)
(1.02925 -0.00167636 -1.56088e-22)
(1.02847 -0.00167187 -4.79203e-22)
(1.03051 -0.00321552 -1.96421e-21)
(1.03013 -0.00374491 2.89368e-22)
(1.03094 -0.00380229 4.3679e-22)
(1.02822 -0.0162 1.38966e-21)
(1.02749 -0.0152997 -7.17149e-22)
(1.1212 -0.0632305 1.7914e-20)
(1.12471 -0.0594984 -8.95089e-20)
(0.989677 -0.0345735 0)
(0.990978 -0.0357122 -3.0817e-21)
(0.989252 -0.0363881 -2.19148e-21)
(0.0183189 0.00706835 4.41234e-20)
(-0.00492252 0.0139241 0)
(-0.0488049 0.0166215 0)
(0.9984 -0.00206527 0)
(0.998258 -0.0019143 -2.29251e-21)
(0.998243 -0.00218826 4.75697e-21)
(1.00874 -0.0141925 -7.53825e-22)
(1.00874 -0.0147664 -7.42255e-22)
(1.00932 -0.014627 -8.22991e-22)
(-0.135134 0.298251 2.05049e-20)
(-0.153345 0.291079 -2.59252e-20)
(-0.163401 0.291391 7.02796e-20)
(-0.0640442 0.169306 -2.20978e-21)
(-0.067932 0.177284 8.61878e-20)
(-0.0193499 -0.00242252 8.8868e-20)