/*--------------------------------*- C++ -*----------------------------------*\
| =========                 |                                                 |
| \\      /  F ield         | OpenFOAM: The Open Source CFD Toolbox           |
|  \\    /   O peration     | Version:  v2012                                 |
|   \\  /    A nd           | Website:  www.openfoam.com                      |
|    \\/     M anipulation  |                                                 |
\*---------------------------------------------------------------------------*/
FoamFile
{
    version     2.0;
    format      ascii;
    class       surfaceScalarField;
    location    "400";
    object      meshPhiCN_0;
}
// * * * * * * * * * * * * * * * * * * * * * * * * * * * * * * * * * * * * * //

dimensions      [0 3 -1 0 0 0 0];
oriented        oriented;


internalField   nonuniform List<scalar> 
14516
(
-0.000731955
-0.00218322
0.00298442
-1.93949e-06
-5.51946e-05
6.89602e-05
0.00246764
-0.00312161
0.00102963
-0.00128174
0.000215479
0.0037181
-0.00254134
-0.00112371
-0.00328381
0.000408718
0.0028732
1.48458e-06
1.14591e-05
0.000130192
-0.0001647
-4.6191e-06
3.50917e-05
0.0025979
0.000250935
-0.00293246
0.00155054
0.00223347
0.00274967
-0.00340026
0.000672532
0.00254161
-0.000186762
-0.00234551
0.00107855
-0.000176461
-4.66924e-05
-0.000738067
0.000746349
0.000129886
9.06084e-05
-0.000668208
-1.40981e-05
0.000660438
-0.00246294
0.000802002
0.00156781
-0.000846545
-0.00159368
0.0033925
-0.000340269
-0.00300169
-0.000753603
-0.000251688
-0.00294858
0.00320942
0.000422183
-0.00363264
0.00311307
0.00141472
-0.000482212
-0.000930279
1.98351e-05
-1.98351e-05
0.00173892
-0.00024205
-0.00149708
0.000684993
0.000199627
0.000599201
5.13573e-06
-0.00061558
-4.72685e-05
-0.00148639
0.00146114
-0.00430616
0.00144405
0.00289765
0.00268971
-0.000209779
0.00279015
-0.00328756
0.000535349
0.000277123
0.00115154
0.00163366
-0.000338632
-0.00121348
-1.37766e-05
-2.14018e-05
3.39321e-06
0.0015951
-0.00490031
0.00332193
0.00333232
-0.000372788
-0.00293319
5.3599e-07
1.61643e-05
-0.00315664
0.00347927
0.00105599
-0.000750924
-0.000263159
-0.000103884
0.000439984
-0.000536408
0.00360399
-0.000784615
0.00043135
-8.77605e-05
0.000411888
-0.000744472
0.000146483
1.87474e-06
2.13899e-05
1.93562e-05
0.000278969
-0.000153397
-0.000196325
-0.00270448
6.12757e-05
-0.000632719
0.000566099
-0.000361153
-0.00241098
0.00272365
-0.000303074
-0.000995735
-0.00224587
-0.00263176
5.30812e-05
-0.00279115
0.00274543
0.00335117
-0.000795915
-0.00260164
-0.00393444
0.0040613
-0.00015829
0.000369946
-0.0023123
0.00196439
0.00295193
-0.00298791
8.87302e-05
-0.00156653
0.00165294
-0.00268945
0.000684478
0.00202137
0.00224519
7.78315e-05
-0.00225618
0.000643694
0.000297552
7.69174e-06
0.000144394
-0.000234191
0.00357482
-0.000559014
-0.00306023
0.00241787
-0.00277329
0.000342684
-1.28544e-05
0.000138796
-0.000129995
0.00213978
0.00112068
-0.000194432
-0.00152733
0.00171035
0.00303264
-0.00060685
-0.00259346
0.0028563
-0.00029833
0.000347429
0.00221371
-0.000221834
0.00297934
-0.00228195
0.00267497
2.07806e-05
-2.51175e-13
-2.22404e-05
0.00184255
-0.000386189
-0.00170915
-0.000221304
0.0001817
2.87405e-05
0.00102182
-0.00323304
-4.9498e-05
0.00235298
-0.000253849
-0.00204182
0.00220395
-1.39837e-05
2.65379e-10
1.72141e-05
-0.00124176
0.000279096
0.000867852
-0.00209593
0.000614789
0.00143806
-0.00123991
0.00104302
-0.00123331
0.00027648
0.000931105
3.20817e-05
-6.02328e-08
-2.19565e-05
-1.08316e-05
-0.000857919
0.000867129
0.00332626
0.000277507
5.42118e-05
-0.000675699
0.00063217
-0.00148372
-0.000694456
5.33997e-06
-0.00237135
0.00225784
-0.00319859
0.00333557
-0.000143598
0.00118803
-0.000270294
-0.000901151
-0.000123399
0.000131919
-0.000299836
-0.00253381
0.0028527
0.00126453
-0.00102403
-0.000257547
0.00140479
-0.00111679
0.000329963
-0.000925888
0.000913573
0.00302722
-6.47705e-05
4.56234e-05
3.471e-06
0.00037284
0.000898467
0.000127764
-0.000584925
0.000448088
-0.00045926
0.00058025
0.00145464
-0.000260157
-0.00119588
0.00181249
-0.00037245
-0.00141239
0.00144057
0.000397329
5.07112e-06
-3.50684e-07
0.0035294
-0.000236262
0.00380914
-0.00053619
0.000130991
-2.9671e-06
-0.000223218
0.00279525
0.000563177
-0.000109702
-0.000511879
0.000588998
8.60229e-08
1.86788e-05
0.000107191
0.00273127
-0.00286262
0.00284359
-0.00208779
-0.000693932
0.00342742
-0.00265497
0.00269911
-0.00263894
-0.00189393
0.000236887
-0.00141452
0.00124857
-0.00218277
0.00323982
-0.000223261
-0.00103282
0.00122469
0.000229677
0.000434573
-0.000574319
-1.42658e-05
3.31381e-06
3.47095e-06
0.00319587
-0.00325307
0.000101741
-0.000114652
-0.00318034
-0.000173475
-0.00320051
0.00333445
-0.00300186
0.00275885
-0.00255955
0.000605649
0.00197674
0.000779212
-0.000714397
-0.000212812
-0.00110586
-0.00263675
0.000642347
0.00182066
2.48503e-06
1.99736e-05
-2.38131e-05
-0.00213903
-0.00133742
-0.00145519
-0.000161123
-0.0013953
0.00149242
0.00208028
0.000546979
0.000100717
-0.00248365
0.002292
-0.000102881
-6.4566e-06
4.58373e-05
-9.96298e-06
0.000320124
0.0027359
0.000146009
-0.000157305
-2.90756e-06
1.94837e-05
0.0031653
0.00168313
-0.000166675
-0.00153374
-1.56517e-05
0.000207417
-0.000187239
-0.00012134
0.000522992
-0.000447683
-0.000813614
3.16125e-05
6.31263e-05
0.000810258
-0.000894944
1.83158e-06
3.75448e-05
-2.68876e-05
0.000486835
-0.000659105
0.0017212
-0.000484792
-0.00122017
0.00229365
-0.00257672
0.00213153
0.000489633
-0.00258
-1.41276e-05
1.50122e-05
0.00281859
-0.000632533
-0.00114301
0.00276486
0.000468188
0.00127042
-1.09687e-05
-7.96145e-06
-1.51263e-05
0.000153883
-0.000125382
0.000224439
0.00143002
-0.000130135
0.000593364
0.0003913
-0.000407594
-0.00033341
-1.92123e-05
0.00129803
-0.00141052
3.94693e-05
0.00050086
-0.0005727
-0.000641855
0.00388138
-0.00321758
-0.000131237
4.8689e-05
0.000101305
-0.0034643
0.000569634
-0.000618384
-0.00459537
0.0042179
0.000367177
0.000622977
-4.15151e-05
0.00021183
-0.00138723
0.00111787
-0.00224754
0.000726322
0.0016411
0.00070794
-0.00138213
0.000695463
-7.61054e-05
-2.47354e-05
-0.00057393
0.00132799
-0.00035789
-0.00288379
0.0031768
0.00276758
-0.00235984
3.01356e-05
-1.9645e-05
-4.04699e-06
0.000428555
-0.00213375
0.00162894
0.00469759
-0.00217595
-0.00253855
0.00228037
-0.00171027
-0.000558804
-0.00314655
0.00288651
0.000220119
-0.000612984
0.00154956
0.00225717
4.69217e-05
-0.00224396
0.00163937
9.95246e-07
-0.00059222
-0.00206993
-0.00146667
0.00181983
-7.70814e-05
0.00316232
-0.00302709
-0.000548751
0.00055667
-0.00333942
0.00291744
0.00280858
-4.47605e-05
-0.00293845
0.00240372
-0.00281826
-0.00271424
0.00279944
0.000391632
0.00112504
0.00354053
-0.004101
0.00104121
0.00309798
-0.000110612
-0.00104714
0.00113201
-0.00287664
0.00181149
8.41226e-06
0.000137139
0.00243296
-0.000400735
-0.00119223
-0.00219952
0.00342595
-5.00688e-06
-0.00290769
-0.0020083
0.00146841
0.000406752
-0.000172744
-0.00237604
1.21098e-05
2.08741e-07
-0.000132224
2.4086e-05
0.000616969
-0.000683477
0.00311958
0.000341337
-0.00373853
-8.89274e-05
0.00371943
0.000207878
0.00322195
-0.00341575
-0.000171216
0.00249742
0.000274006
-0.00270775
-0.00296268
-0.00103247
-0.00182183
-0.00225786
0.00015482
-0.000156656
-0.000163887
-0.0011438
0.00121595
-0.000133944
0.00243564
1.80917e-05
-7.19357e-07
0.00266067
-0.00248923
-0.000141218
-0.000204097
0.0032322
-0.00293083
-0.000992066
-0.00186003
0.00274127
-0.00309243
9.3513e-06
0.00256342
-3.2977e-05
-0.000827857
0.00271127
-0.00293268
0.00334
-0.00163906
0.00121872
0.000407382
0.00270739
-0.00282576
0.00029569
-0.00283304
0.00254193
8.29395e-06
7.21536e-06
-6.06309e-06
-7.89285e-06
-0.000811847
-0.00238753
5.81695e-05
-0.000102535
5.68181e-05
-0.00284503
0.000540479
0.00231214
0.00244208
0.000228536
-0.00267057
0.0027226
2.70191e-05
0.00215395
-0.00202724
-4.76325e-05
9.41474e-05
0.00294517
0.000296059
0.000974703
-0.00125273
0.00326065
-0.000239627
4.55647e-05
-0.000777319
0.000699816
1.04078e-05
0.00143653
-0.00137951
0.00152052
0.000123778
-0.00201471
-4.09814e-06
0.00199824
-0.00147292
0.00101139
-9.25864e-07
-0.000191038
0.00178961
-0.00157667
-0.0010957
-5.50091e-05
8.12493e-06
0.000394319
0.00243133
-0.00285646
-0.0044333
0.000510662
0.00390483
-0.000236314
0.00294132
0.000404994
-0.00256581
0.00216823
-0.00155418
0.00183438
-0.000153257
-0.000166216
0.00368156
-0.00359188
-0.00247915
0.00209193
0.00041251
-0.00123517
-0.00321675
-0.000189245
-0.00263963
0.00285557
-0.000106871
-0.000617766
0.000664797
0.000537512
0.000185015
-0.000743446
8.87353e-05
-0.0028168
0.00258541
0.000102241
-0.000133523
-5.98535e-06
-0.00103667
-0.00355958
7.62611e-06
-1.21426e-05
1.23429e-06
-1.67103e-07
-2.68197e-06
-0.00302282
0.00324366
0.00111944
-0.00329216
-0.00317746
-0.000693661
0.00392886
-0.000578399
0.00042466
-6.15034e-05
-0.000459119
0.000540747
-0.00511177
0.00141101
0.00371025
-0.000324618
-0.00211948
0.00231921
8.16834e-05
6.031e-05
-0.000151941
-3.08385e-05
0.000105856
-0.00156091
0.000126051
-0.00286294
-6.71597e-05
0.00108437
-0.00126043
-0.00214552
0.000147648
0.00164534
6.11006e-06
-2.74179e-05
1.04644e-05
4.35687e-06
-8.20288e-05
3.97754e-05
-0.000613752
0.000332337
0.00126429
-0.00234844
-0.00266071
0.00302461
-0.00551329
0.00232715
0.00317367
-2.21732e-05
-0.000527991
0.000646158
0.00229693
-0.00253756
-0.00218633
-0.00103686
0.0013345
0.000468014
-0.00343365
0.00306696
3.69089e-05
3.68697e-06
1.87423e-06
7.2168e-07
0.00132817
-0.0015464
0.000232841
-0.00356472
0.00328199
-0.00259106
-0.00294347
0.0016641
-0.00203924
6.56083e-05
-0.00198114
-0.00098873
0.00305088
-0.00115923
-0.000838284
-0.0010357
0.00183483
0.00135541
9.76855e-05
-0.00152385
5.96691e-05
-1.28358e-05
8.1611e-05
-9.22412e-06
-9.49163e-05
0.000180735
0.00035911
-0.000588813
-0.00164605
-0.00345855
-0.00238411
-0.00133734
0.003693
-0.00167173
0.00165321
2.59523e-05
0.000672754
-0.00154004
-3.19095e-05
0.00133553
-0.00166779
-0.00037879
0.000511946
0.00119559
-0.00360928
0.00334409
-0.000162649
-0.00323034
-0.00349595
0.00278165
0.00066899
0.00102992
0.000176712
0.000743824
0.00158754
-0.00148236
-0.000153813
-0.00471013
0.00401005
0.000686681
-0.0042224
0.000397251
0.00143259
-0.00137863
-0.000112478
-0.000156145
-0.00421882
0.00189571
0.00233397
-5.14216e-06
0.000181351
9.95656e-06
5.94942e-06
0.000897433
0.00139644
0.000362329
-0.00373474
0.00330727
-0.00213824
0.0022813
0.000712075
-0.00283932
-0.000435195
0.000491114
-6.4655e-05
0.00278233
-0.00245951
0.00348883
0.00125769
0.000141558
0.00289925
0.000261574
0.000459913
0.00165116
-0.00209347
0.000596943
-0.000670066
-0.00011142
0.000393738
-0.00044073
0.00171885
0.000755903
-9.63305e-05
-9.94949e-05
0.000176098
-0.00170953
0.000170091
-0.00374712
0.00233625
0.00147082
0.000627878
-0.00224467
0.00133124
8.366e-05
0.00117831
-0.00103599
0.001351
-0.000609887
0.000575034
-3.86279e-06
0.00319997
-0.00381064
0.000500483
0.000397231
-0.00267353
-0.00338514
0.000111841
0.00324428
0.00250968
-0.00321408
0.000667539
0.00335881
-0.0033718
-3.15778e-05
-0.00128985
-0.00163812
0.000333716
0.0012337
0.000889447
0.00311471
-0.0037029
0.00388993
-0.000201942
3.01737e-05
-0.00400973
0.00174313
0.00230403
0.000272576
-0.00252888
-0.00251079
0.00194075
-0.00185969
-0.00210541
0.00369382
-0.000588262
-0.00114391
0.00158527
-0.000424778
0.00125026
-0.00305417
0.000193194
-0.000254197
-0.000211215
0.000735362
0.00118284
-0.000169172
0.00010605
-3.49278e-05
-0.000105309
0.00138525
0.00300424
-0.000196461
-0.00197022
-0.00223004
0.00298907
-0.000532337
-0.000725726
-0.00210485
0.00214528
-0.00249403
9.52789e-05
-0.00202082
0.00187501
-0.00116621
-6.61375e-05
0.00104861
-0.00130056
-0.00346112
0.000453805
0.00300409
0.00011615
0.00318037
-0.00341658
-0.00376547
0.000662696
0.00299763
0.00012527
0.00233801
-0.000216989
0.0014491
0.000424927
-0.0038908
0.00337365
-3.37547e-05
-1.65318e-05
5.35604e-05
0.000248557
2.1021e-05
-0.000615446
-0.00295108
-0.000433675
0.0035149
-0.000670348
-0.000957421
0.00197257
-0.00323177
0.0011817
0.00014738
0.00210207
2.87571e-05
0.000813275
-0.000836225
0.00316638
0.00274161
-0.00244345
-0.000105233
8.05869e-05
7.50194e-06
-6.05223e-06
-0.000190627
0.000161118
0.00222765
-0.000484806
-0.00267501
0.00281374
-0.000129558
-0.000799073
0.000833443
0.000752026
-0.0007376
-0.000339334
0.00240301
-0.00208027
-0.00153093
-0.00124687
0.00281519
0.000459169
-0.000501211
-0.00305809
0.00243291
-0.00190246
-1.20293e-05
-0.00369521
-5.11227e-05
0.000532199
0.00331663
0.000171412
-0.00345093
-0.00113987
0.00162201
-0.000934239
-0.00254365
-0.00289664
-0.000633648
-0.0010195
0.000542592
8.55308e-05
0.000933047
-0.00103113
-0.00319945
-0.00114545
0.00121924
0.000209629
0.000978326
0.000628303
-0.000825288
0.000866496
-0.00286322
0.00335987
-0.000462439
0.000916406
-0.00121272
-0.00115929
-0.00238677
-0.00231106
-0.00333489
0.00293647
0.000267596
-0.00257574
0.00240939
-0.00326859
0.000527572
-4.39393e-05
0.000944295
-0.00312663
-0.000439776
0.000890613
-0.000394659
-0.0039603
0.00273785
-0.000544228
-4.95505e-05
0.000577067
-0.000589592
0.00120984
-0.000607917
-3.55141e-05
0.000594224
-0.00119128
-0.00102944
0.00118472
0.000142917
-0.00246522
0.00227557
1.9028e-05
0.000241571
-0.000157993
-6.44612e-05
0.000107271
-2.12314e-05
-0.00102731
0.00291697
-0.00225959
0.00226807
0.000898075
-0.00103283
0.00268986
-0.00238776
5.01543e-05
-0.00137106
-0.000910033
-0.00340237
-0.00347312
0.00198008
-0.00229262
-0.000986191
0.00286643
-0.000298204
-0.00254436
-0.00252256
0.00227478
-0.00379364
0.00269174
-0.00136541
-0.00125343
0.00217621
-0.00381247
0.00163712
-0.00282076
0.00375805
-0.000134587
0.00349696
5.95999e-08
-0.00115552
0.00135798
-0.000190407
0.000958657
-0.00131684
0.0012618
-0.00107605
-0.000115653
-0.00292057
0.0022082
-0.00340687
0.000183214
0.000840172
-0.00110583
0.00326984
-0.00328531
-0.0018444
0.00150427
0.000103579
-1.5909e-05
6.01031e-06
0.00263072
-0.00252198
-0.00384724
0.00289004
-0.00238647
0.00229604
-0.00133026
-0.000463971
-0.00499491
0.00336261
3.28719e-07
-1.64018e-05
-8.8626e-05
3.41117e-05
-1.85592e-06
2.49934e-05
-3.02499e-05
0.00109151
0.00378008
-0.00161941
-0.00128666
0.000125891
0.00120991
4.84041e-05
0.000508271
-0.000540473
-9.16703e-06
7.42731e-05
0.000256916
-0.0024054
0.00214799
0.000646301
-0.000235018
0.000408484
-0.000339672
0.00126348
0.00156397
-0.00134864
0.00137727
0.00270412
0.000284177
-0.00311513
-0.00224047
-0.000492707
-0.00242794
6.33198e-05
-0.000112873
-1.96692e-05
8.57604e-05
-0.00347769
-0.000528779
-0.00231408
-0.00198631
-0.00200861
-1.02943e-05
-1.61258e-05
3.54264e-05
0.000189649
-0.000457884
-8.29915e-05
-0.00119569
0.000138948
-0.00166753
-0.00159869
0.000122153
3.75448e-05
-0.000233528
-0.00255741
0.000129346
-2.39057e-05
-9.695e-05
-0.00215405
0.0048868
-0.00256375
-0.00232245
-0.000256328
0.000988711
-0.000746368
-0.00330191
0.00387421
-0.00102202
0.00120777
0.00284215
-0.00013452
-0.00152135
4.55202e-06
0.00243654
-0.00243115
6.88876e-05
0.00176229
-0.00168646
-0.00253237
-0.000296775
0.00311403
5.67033e-05
-0.00358041
0.0030056
0.000591148
-0.00149891
0.00131943
-0.00329054
0.000651831
-0.000920939
0.00212514
0.00292002
-0.000212715
0.000859387
0.000165934
-0.00104948
0.00126494
3.66804e-05
-0.00136534
-0.00205527
0.00190856
0.00125762
-0.000523401
-0.000745303
0.00104371
-0.000189875
0.0024528
-0.00076483
-0.00183318
0.000275147
0.00102151
1.39526e-05
-0.00201674
0.00203164
0.00287019
-0.000562944
0.00118611
-1.57745e-07
0.00150483
-0.00143041
-0.000110552
-0.0030198
0.0030561
-0.000138334
-2.00792e-07
8.63602e-06
0.00133834
0.00089314
-0.00272929
-0.000237055
0.00297485
-0.00208537
-0.000397869
4.21618e-05
-0.000474811
0.0011844
-0.00122816
2.9175e-05
0.000133288
-0.00279329
0.00361411
-0.00364195
-0.000112714
-8.50337e-05
-0.000560799
0.000660329
0.000625579
-0.00430384
-8.96764e-06
-0.00173571
-0.0022475
-0.00230549
-0.00223981
0.00204582
-1.61525e-05
1.3089e-05
0.00350738
-0.00192464
0.00423149
-0.00230772
-0.000177159
0.00244131
0.000231349
-5.72489e-05
-0.000959167
0.00170381
0.000204359
-1.82793e-05
-0.000171376
-0.00159028
0.000444473
0.000296683
-0.00247723
0.000101639
-0.00137343
0.000411304
0.00240985
-0.00280249
-0.00152841
-0.00204046
0.00234248
-0.00232806
-0.00359333
0.0035072
0.000260652
-3.28218e-05
-0.00294934
0.00266097
0.000296021
0.00126495
-0.000107845
-0.000806074
3.86888e-05
0.00072463
-0.00326817
0.0029283
0.000323012
0.00218373
0.000181843
-0.0024074
6.7932e-05
-0.000533182
0.000432648
-0.000526896
0.000614846
-0.000106639
3.42335e-05
-7.36533e-05
-0.000207793
0.000150142
-0.00223256
0.000402533
0.00184634
-6.03973e-05
0.000595347
-0.000548853
0.000168257
-0.000198928
-6.97939e-06
-0.0028341
0.00274424
5.66545e-05
-0.00247556
-0.00181057
0.00420438
-0.00275388
-0.00178954
0.00121794
-0.00268123
3.55389e-05
0.00250109
0.00323162
0.000209166
0.00320623
-0.000177364
0.0026124
-0.00290789
0.00110855
-0.00065159
-0.000486685
-0.00135379
0.000199115
0.00335286
-0.00203489
-0.0012926
0.00079372
0.00010735
-0.000189839
-0.00282306
-0.00216972
0.00218316
-0.00253608
0.00327798
-0.00313811
-0.000454984
0.00355583
-0.00197912
0.00202727
0.00204254
-0.00397867
-0.00324854
0.00237086
-0.00406037
0.00150861
-0.00105398
0.00123376
-0.000112816
-0.0012715
0.00331473
0.000331292
-0.00480315
0.00355015
0.00320824
7.79503e-05
-0.00230252
-0.00159294
0.0019815
-0.000272922
-0.00170357
-0.000246426
0.00234388
-0.00216349
-0.00326038
0.000427598
0.00287264
-0.00340533
0.000528327
-0.000152796
0.000277502
2.29085e-05
-0.00282912
-1.80658e-06
-0.000512883
0.000374533
-0.00126555
-0.000115504
0.00144775
0.000159426
-0.00130723
0.00173869
-0.000706768
-0.000493467
0.0011976
4.08205e-06
-4.08205e-06
0.000116354
-0.00130424
0.000616663
-0.000250199
-0.00071276
0.000962666
0.00380378
4.25914e-05
-0.00392093
0.000133158
-2.05244e-05
-0.000136127
-0.00236594
0.00210489
0.00013622
-0.000151266
6.94021e-05
-0.00276189
-0.000151789
0.0039018
-0.00156952
-0.00173389
-0.000495725
-0.00243588
5.09004e-05
5.20548e-06
0.00172271
0.000220359
-0.002029
-0.00307479
0.00297636
-0.000866794
0.000806834
8.56151e-05
-0.000419097
-4.78885e-05
0.000454533
5.69845e-07
0.000123654
5.08047e-05
-0.000475092
0.00133148
-9.31135e-05
0.0017119
-0.00201773
0.000515917
-0.000588674
-0.00302944
0.00328012
-0.000222441
3.94354e-05
-7.66725e-05
0.000306109
0.000118912
-0.00274125
0.00262612
0.00010449
-0.00019063
0.00234893
-0.00080051
0.000103058
0.000583215
-0.000510958
0.000478783
0.0029939
-0.00230828
-3.76514e-05
1.47093e-05
0.00298301
-0.00244229
-0.000538634
-0.000602606
-0.0016147
0.0011704
-0.00141228
-0.000472847
0.000275306
0.000270031
7.02422e-06
-1.43193e-05
-0.00108051
0.00177469
7.25854e-05
-0.00020845
-0.000680395
-0.00222319
0.00256833
0.000129347
0.00135338
-0.00116532
-0.000326983
0.00150142
0.00249364
0.000479889
0.00195377
0.000687737
-0.00267085
-0.00126885
0.00142726
-0.000159398
0.000348619
-0.00136356
0.00104855
-0.000584796
5.71739e-05
-0.00010596
-1.02327e-06
-0.00232406
0.00272399
-0.00257101
-0.000136541
-4.65566e-05
-0.000133473
-0.0019134
-0.000828592
0.00276548
-0.0025384
0.00160126
-0.00185814
-7.03277e-05
0.00107864
-0.00105791
0.000924526
-7.40641e-05
-0.000866055
-0.00288718
0.00267879
0.00189008
-0.000218331
-0.00507585
0.00219917
0.00283941
0.00355944
-0.000266601
0.00162546
0.000531012
-9.45171e-05
0.000961504
-4.95608e-05
-0.00241517
0.00250704
-8.82022e-05
0.000102965
0.00115028
0.000341607
0.00233169
0.0017071
-0.00184368
0.000151643
-0.00111374
0.000863096
0.000548183
-0.000623473
-0.000817884
0.00119635
-0.0013333
-0.000102741
0.00141127
-6.97171e-05
0.000631515
0.00119653
-0.00127138
0.000103498
6.14725e-05
-0.000765003
0.000692223
-0.000425565
-0.000812769
0.00121197
0.00285761
-0.00303919
0.000168916
0.000921435
-0.00195174
-0.000531505
-0.000128002
-8.29583e-05
-0.000700833
0.000676383
-1.19206e-05
-1.80841e-05
-2.89827e-05
0.000257113
-0.00125911
0.00092814
4.85931e-05
0.000528119
-0.000171711
-0.000582189
0.000516491
-0.00128607
0.00014148
0.00113939
0.00274009
-9.90129e-06
0.000931263
-9.54778e-05
-0.00083269
2.62174e-05
-0.0031454
-1.87408e-05
0.00288984
5.58991e-05
-0.00139486
0.00135687
-6.84396e-05
0.00336116
0.00250241
-0.000178122
-0.000229923
0.00308279
-7.22017e-05
-0.00193698
0.00202427
-0.000553306
-1.72612e-05
-2.60551e-05
-0.000106011
0.000902552
-0.000836485
-0.00347038
-0.000246683
0.00367452
-0.00049354
0.00213163
0.000203835
0.000425978
-0.000699578
0.000799008
-0.000100042
-0.000711226
-0.00121361
0.000937008
0.000257917
-0.000533127
-0.000121317
-0.000928602
0.000783208
0.000750897
-0.00120184
-4.86002e-05
0.00207772
-1.18327e-05
0.000961027
-0.0028079
-6.82453e-05
-0.00159436
0.00336636
0.000208816
-0.00256471
0.00244784
-0.00251366
0.00281252
4.80869e-05
-0.000344656
0.000289554
-0.000194069
-0.00102905
-0.00044582
0.00374471
-0.00250351
1.29853e-06
-5.77019e-06
-0.00394324
0.00178856
0.00202952
8.28458e-05
-0.000615734
-6.41795e-05
-0.000476354
-2.57464e-05
0.00056124
0.0001571
0.000938167
-0.00105178
0.000149089
0.00195113
-0.00214152
0.00366428
-0.00330611
-0.000356133
-0.000287854
0.000172353
0.000242191
0.000105978
-0.000475907
-0.00149404
0.00037012
0.00287219
8.39323e-05
-0.000674582
0.000581487
-0.000109243
-0.000756101
3.97818e-06
0.000100735
-0.000241335
-0.00234436
0.00212611
-0.000942598
0.000197537
-0.00139755
0.00286721
-0.0010948
-0.000177486
-0.000742307
0.000195532
0.00065605
0.000133852
0.000977487
-0.00101108
-5.2776e-05
0.00286239
0.00319103
0.000373026
-0.00358621
-0.00287193
0.00311621
-0.000269257
-0.00276883
-0.00306197
0.00223588
0.000521328
-0.00210484
0.00198009
-0.00150591
0.000234691
-0.00166093
0.000281902
0.00141489
-0.0013253
0.00139839
0.000173508
-5.87254e-05
-0.00147305
-0.000158721
0.00157721
-0.00349336
0.00201269
0.00141925
-0.000400822
-0.000335574
0.000714181
-0.00359267
0.00379654
-0.000237074
0.000127327
0.00134132
-0.00147281
6.26236e-05
0.00127992
-0.00147013
3.20339e-05
-0.000248431
0.000204335
-0.000690967
-6.21998e-05
0.000761583
0.000123267
0.00133694
-0.00143603
-0.00048955
0.00140994
-0.000183748
-0.00323892
0.00330664
-0.000239506
-0.00331961
-0.0018941
0.000656523
0.0012374
0.000897414
-0.00330791
-0.00262632
-0.00247934
-0.000746382
0.00165655
-0.000116058
5.19602e-05
-5.98214e-07
0.00200462
-0.00206177
0.000863306
-1.50275e-05
-0.00250852
0.000105158
0.00219522
1.3127e-05
9.90155e-05
-5.37278e-05
0.000223182
-0.000109322
-3.45828e-05
2.01812e-05
-0.00253536
-1.35741e-05
0.00100691
-0.0010219
0.00418335
-0.00367062
-0.000608741
4.30412e-05
-1.96405e-05
-1.89743e-07
1.27573e-06
0.000551984
-0.000305167
0.00370951
-0.00333806
2.22728e-05
0.000158305
-0.00022951
-0.000143637
-0.00114483
0.000139799
1.80942e-05
-0.000574241
9.63702e-05
-0.00090505
0.000785489
-0.000229997
0.000172281
-1.78311e-06
-0.00017067
0.0029415
-0.00124819
-0.000397138
-0.000651511
0.000591576
5.244e-05
-0.000161131
-0.000509329
0.00138812
-3.22423e-06
0.000150702
-0.00256717
0.00238779
0.00322792
0.000114381
0.000193409
4.01534e-06
-0.000194565
2.83289e-05
8.57725e-05
0.000595978
-0.000844774
0.000917943
-0.0015799
7.62877e-05
0.000132713
0.00239193
-0.00250185
0.000209965
0.00203066
-0.00224888
0.00334301
-0.00363344
-0.000430373
0.00358402
2.48832e-05
0.000182619
-4.63195e-05
0.000580983
-0.000558498
-0.000735675
-0.000103226
-0.000818523
0.000811665
0.0033385
-0.00357778
-0.000339192
0.00285091
-0.00249748
0.00419289
-0.00309663
-0.00119715
0.000107026
-0.000846912
0.000724394
0.000213903
-0.00237404
0.00212975
0.0013456
-0.000215054
-0.00109436
-0.000124949
0.000588755
-0.0028829
-0.00041617
-0.00081585
0.00219822
-0.000174077
8.61804e-05
-5.05521e-06
0.00365351
-0.00151464
-0.00164179
0.00110255
-0.00103353
-7.33874e-06
-0.0022372
0.00251495
-0.000254366
0.000149271
-0.000405515
0.000346157
-0.000147344
7.99528e-05
0.000629528
-0.000692348
-0.00309862
-0.00348029
0.00287977
-0.00152503
0.00014125
-5.14791e-05
0.000513246
-0.000467022
6.63942e-05
-0.000624333
0.00346435
-0.00331963
-0.000125854
-0.000109156
-0.000297745
-0.000337945
8.19055e-05
-0.000707125
0.000628706
0.00107588
-0.000875549
-0.000204509
-0.000540575
0.000471502
-0.000180694
-0.000510513
-5.58252e-05
0.00354314
-9.8415e-05
-0.00075441
-0.000756278
0.00065078
-0.000264247
0.00105872
-0.000854694
0.00139954
-0.00154941
0.000174446
-0.00258695
0.000118824
-0.00125101
0.00139742
-0.000158845
-0.00211065
0.00138534
-0.000142476
-5.49748e-05
0.00257412
0.00024178
-0.000197608
-6.55239e-05
0.000759219
-0.00152572
0.00270078
-0.00130161
0.00018724
-0.00020878
-0.0011794
-0.000701585
-0.000101947
0.00202397
-0.00190902
0.00163896
-0.00133568
-0.000332807
-0.000101961
-0.00120823
3.53505e-05
-0.00029095
0.000251806
-0.00367592
0.00331604
0.000411069
-0.00334733
-0.00231795
0.00012203
-0.00140144
0.00126144
-0.0014237
0.000170519
-0.003454
0.00208779
-0.000326441
0.000358298
4.57756e-05
0.000452454
0.000335973
-0.0030215
0.002741
0.000148655
0.00114307
-0.00126164
-0.000204153
0.00342616
0.000141812
-0.000482738
0.000414395
5.63127e-05
0.000811632
-0.000731049
-9.62696e-05
0.000845643
0.00254088
3.13671e-05
-0.000233793
0.000193924
7.89285e-06
-3.24033e-07
-3.71312e-06
6.21706e-05
0.000470625
-0.000540364
0.00107259
-0.00136084
-0.000767883
0.00340507
0.00295223
-0.00256351
-0.00145478
0.00019462
-0.00282005
-0.00065972
-0.00129238
-0.000821807
0.00204967
-0.00347343
-0.000445447
0.00390931
-0.00270895
-0.001324
-0.00414112
0.00344739
0.000675053
0.0026621
-0.00298174
0.00142536
-0.00148772
0.00176513
0.000134927
0.00335645
-0.00274204
-0.00326435
0.000258706
-0.000225003
-0.00186856
-0.00107076
-4.24178e-05
0.000909533
-0.000178947
0.00011881
-0.000878993
0.000763927
-3.47892e-05
-1.64822e-05
0.00232507
0.000314279
-0.00262884
-1.2878e-06
-0.00267395
0.00262391
-0.00271674
-0.00044756
6.70823e-05
-0.000388106
0.00324867
-0.000466988
-0.000362886
0.000801412
0.000114343
0.00112242
-0.00116461
3.66507e-05
-0.00127868
0.000728758
-0.000645831
-0.00325086
0.00317539
5.56261e-05
-0.00104023
0.00162834
0.000158318
0.00238613
-0.00223235
0.000109347
0.00311439
-0.00328948
0.00251598
-0.00243098
-0.00119651
-0.000126406
0.00122078
0.00256017
-0.000233653
-0.00384654
0.000223628
-0.00365594
0.00345291
-6.35758e-05
-0.00094861
0.000993737
-0.000817968
0.000898253
-0.00100809
-0.00050855
-0.00334559
0.00310546
0.000212111
0.0028686
0.000210031
-0.00128673
0.00139195
-0.000216406
5.83314e-05
-0.00214654
0.000765046
-0.000714465
-0.00251028
0.00136381
-0.00157737
-0.000554832
-0.00141283
0.00151471
-0.000151834
-0.000440133
-0.000110755
0.00225029
-0.00235806
-0.000156887
0.0021748
-0.000314404
0.000319334
-1.94902e-05
-0.000152279
0.00114119
0.000228364
-0.000103784
2.65225e-07
-8.59309e-05
0.00280764
0.000171272
0.000229144
-0.000557568
0.00178079
-6.02933e-05
-0.000164272
-0.00205296
-0.00149987
0.00357432
0.000359536
0.00327921
-0.00360372
-0.000756975
8.56055e-05
3.73769e-07
8.52082e-06
-1.1403e-05
-0.00196875
0.00176029
0.000856788
-0.000413892
-0.000487973
0.00289677
-4.06093e-05
-0.00206002
0.00197088
0.00161425
-0.00155494
-0.000101964
0.000809284
7.68756e-05
0.00345557
-0.000223532
-0.000365233
-0.00314433
-0.000249464
0.00341774
-0.00305146
0.000321928
0.00272996
0.00105469
0.00242549
0.00284624
0.000190138
-0.0022225
0.00179616
-0.000336971
-0.00150667
0.00329558
-0.00298875
-0.000312614
2.14544e-05
-7.88052e-06
1.95277e-05
0.00375724
-0.0038161
-0.00021045
0.00224223
-0.000218762
0.00148511
-5.24703e-05
-0.00130335
9.43548e-05
-0.00339258
0.00328151
0.000439817
5.45863e-05
0.00331546
0.000184379
-0.00353849
0.000862708
0.000112696
-0.00105542
0.00403277
-0.000170388
-0.00396587
-0.000106708
-0.000854812
-0.000409362
-0.000624637
0.00175046
-0.000805275
-0.00202771
0.00213492
-0.000633118
-0.00185573
0.00199436
-0.000113692
-0.00129947
0.00124912
0.00334323
-0.00320692
0.000695806
-0.00104722
7.80871e-05
-0.000144716
-0.00438701
0.00235623
-0.00207963
0.000423535
0.00161021
-0.000270526
0.00270485
-0.000180655
0.00195456
-0.00199691
-8.75532e-05
3.51857e-05
0.00206899
-0.00205908
-0.000195091
0.00325401
-0.000205459
0.00223831
-0.00245928
-0.00124853
0.00188615
-0.00174872
-0.000173081
0.000209874
0.00223578
-0.00250412
0.000292898
0.000552267
-2.92763e-05
-0.00129084
0.00124018
0.00178223
-0.00317786
0.00270037
8.66736e-05
0.00258361
-0.00265438
-0.000661284
0.000724796
-0.000105211
-0.00145618
0.000127337
0.00174097
-0.000168421
0.00239994
-0.00229848
0.00255097
-0.000101428
0.00237295
-0.00221015
0.000117361
-0.000826314
0.00307909
-0.00331465
0.000623743
-0.000684308
-1.38131e-05
0.00337553
-0.000149049
-0.00203358
0.000111752
-0.000207557
0.00352353
-0.00211125
0.000761112
0.00017373
-0.000196942
0.00117902
-4.45042e-05
0.00299262
-0.000175094
0.00319936
-0.00357569
-3.65024e-05
0.000176226
-0.000136095
0.00137227
-0.00132832
-0.000101852
-0.000667171
0.00217425
-0.000219558
-0.00131194
0.00152743
0.000195941
0.00356981
-9.29447e-05
0.00249336
0.00124666
7.03344e-05
0.00152987
-0.000112692
0.00033022
0.0021974
-0.000178015
0.00317223
-4.31898e-05
0.00220622
-0.00224223
0.00209794
0.00361619
-0.0038194
-0.000739311
0.000416402
-0.000267635
0.00330483
0.000859575
-0.000732941
9.56948e-05
0.00224514
-0.0023259
-0.00198087
9.92284e-05
-0.000272002
2.31424e-05
0.000241687
-0.00194057
-0.000153806
-0.000326803
0.00370856
-2.38284e-05
0.00015463
0.00122347
-0.000889233
-0.0023472
0.00355877
-0.000102681
-0.00354305
-0.000188018
0.00342485
-0.00108773
-0.000137031
0.00122422
0.000502308
-0.0035448
-0.00392368
0.000451683
-0.00172959
0.00108909
-0.000110596
-0.000990641
-0.00029992
0.00250002
-0.00217771
0.000129233
-0.00121103
-0.000575446
0.000649484
-7.22599e-05
2.39633e-05
-0.000268156
0.000237815
-0.00276081
-2.50613e-05
-0.000276709
0.000279491
2.4041e-05
-0.000287579
0.000250067
-0.00216363
0.00227374
-8.82329e-05
0.00265423
-0.00282059
0.00019551
-0.00328124
-0.000294516
0.000247659
0.000156422
0.0020813
-0.00225418
3.86275e-05
-6.23014e-05
-1.8703e-06
-0.00169343
-0.00182563
0.0013283
-0.00179815
-6.60836e-05
-0.00345227
-0.00136555
0.0012121
7.87441e-05
-0.000284112
-0.000121184
0.00259668
-0.0025209
0.00012769
-0.00227377
-0.000290563