/*--------------------------------*- C++ -*----------------------------------*\
| =========                 |                                                 |
| \\      /  F ield         | OpenFOAM: The Open Source CFD Toolbox           |
|  \\    /   O peration     | Version:  v2012                                 |
|   \\  /    A nd           | Website:  www.openfoam.com                      |
|    \\/     M anipulation  |                                                 |
\*---------------------------------------------------------------------------*/
FoamFile
{
    version     2.0;
    format      ascii;
    class       volVectorField;
    location    "400";
    object      U;
}
// * * * * * * * * * * * * * * * * * * * * * * * * * * * * * * * * * * * * * //

dimensions      [0 1 -1 0 0 0 0];


internalField   nonuniform List<vector> 
9793
(
(0.900108 -0.0231911 -2.2982e-21)
(0.883621 0.122372 -1.50774e-21)
(0.893651 -0.0114777 7.01109e-21)
(1.01522 -0.00120581 0)
(0.768211 -0.205149 1.22356e-21)
(1.03719 -0.00867229 8.15603e-22)
(1.0101 -0.000263232 1.14505e-21)
(1.01239 -0.000806993 1.45005e-21)
(1.02939 -0.00230064 8.01814e-23)
(0.774346 -0.192248 -1.97539e-21)
(1.04379 -0.113699 6.81447e-21)
(1.17137 -0.125918 0)
(1.01506 -0.0011222 -2.0971e-22)
(1.0073 0.0022201 -8.73891e-22)
(1.00277 -1.8526e-05 0)
(1.00846 0.00382238 5.10678e-23)
(1.00946 0.00222291 0)
(1.00839 0.00277332 0)
(0.619851 0.113556 3.97401e-21)
(1.00749 0.00356261 0)
(1.05553 0.120227 2.46865e-21)
(1.01582 -0.00310379 1.33643e-21)
(1.08065 0.0146526 -2.12701e-21)
(1.01614 0.00305851 0)
(1.00456 -0.0124799 -5.97137e-22)
(1.01505 -0.000893377 2.04333e-22)
(1.00927 0.00731777 1.69471e-21)
(1.0119 -0.000992754 -1.7586e-21)
(0.993044 -0.0764271 0)
(1.02883 -0.00234259 5.32641e-22)
(1.07134 -0.035887 8.89538e-22)
(1.08048 0.00542827 -3.83964e-21)
(0.928918 -0.1755 2.29052e-21)
(1.00724 4.04104e-06 2.79337e-21)
(0.980653 -0.0773878 0)
(0.901761 0.196288 1.00824e-21)
(1.00806 1.61476e-05 -1.43309e-21)
(1.01637 -0.00174164 -2.19366e-22)
(1.01243 -0.000269094 0)
(1.01075 -8.65357e-05 0)
(1.06637 -0.0380405 -8.28267e-22)
(1.00472 -3.80622e-05 1.30753e-21)
(1.01372 -0.000602532 2.42572e-22)
(1.00981 -0.000177951 -5.89449e-24)
(1.01314 -0.000520814 4.35838e-23)
(1.0146 -0.000731106 0)
(0.988703 -0.0806049 0)
(0.991389 -0.0749058 2.65426e-22)
(1.01259 -0.112665 -1.20815e-21)
(1.01516 -0.00133157 0)
(0.975859 -0.0808963 7.68565e-21)
(1.02666 -0.118334 7.38393e-22)
(1.03781 -0.00300703 1.29409e-21)
(1.02565 -0.00547213 -3.48286e-21)
(0.927539 -0.165358 9.05658e-21)
(0.97469 0.17049 0)
(1.02326 0.00074 1.85975e-21)
(1.08681 -0.158149 0)
(0.934885 -0.21514 -4.44593e-22)
(1.01253 -0.000323415 -9.79307e-22)
(1.00914 -9.96165e-05 0)
(1.03479 0.0014995 0)
(0.989935 -0.174547 0)
(1.01689 -0.000418792 -4.4916e-22)
(0.799058 -0.234922 -1.55552e-21)
(0.963361 -0.125662 -9.0179e-22)
(0.984064 -0.163387 1.71526e-23)
(0.988887 -0.141508 -2.5067e-21)
(1.15484 -0.118798 0)
(1.03823 -0.109159 0)
(0.919129 -0.157599 -5.89037e-21)
(1.01267 0.000281724 0)
(1.01942 -0.00472859 -3.1353e-22)
(0.918532 0.0248965 0)
(0.966293 -0.0818022 0)
(0.938578 -0.204929 0)
(1.02356 0.000216657 1.12995e-21)
(1.0128 0.00787207 6.25259e-23)
(1.0185 -0.00658456 2.28692e-21)
(1.01234 -0.00279356 0)
(0.978466 -0.134827 2.33872e-22)
(1.02153 -0.00401269 -2.05455e-21)
(0.902404 0.152398 -5.61327e-23)
(1.03034 -0.049483 -2.2884e-23)
(1.06134 -0.0317118 1.59316e-22)
(1.00685 -0.0686288 0)
(1.01168 -0.00325226 0)
(1.02382 -0.000328631 0)
(1.03242 -0.000656066 3.50817e-22)
(1.02417 -0.00120387 0)
(0.878099 0.088615 -8.20134e-22)
(0.864769 -0.228992 0)
(1.01741 -0.00068862 9.27599e-22)
(1.08465 -0.0198243 3.68191e-21)
(1.03314 0.000825208 -3.21272e-22)
(1.0382 -0.0479926 3.13114e-22)
(0.987035 0.157089 0)
(0.894338 0.132416 0)
(1.01681 -0.000545745 -3.9824e-24)
(1.01441 -0.00165845 8.79584e-22)
(1.01413 -0.00166923 -2.38466e-21)
(1.02128 0.00427484 -2.10726e-21)
(1.01412 0.000754213 -2.90125e-21)
(1.01388 0.000581173 -9.48921e-22)
(1.01266 0.00669369 -1.81956e-23)
(1.05675 -0.0328187 -2.30745e-22)
(1.03114 -0.000859401 0)
(1.0094 -0.000100723 -7.80429e-22)
(1.03571 -0.00318715 3.43351e-22)
(0.944622 -0.0885799 -2.57293e-22)
(1.0118 0.000171389 0)
(1.13709 0.0433608 -4.5601e-22)
(1.02176 0.000865833 0)
(0.873783 0.263989 1.29933e-20)
(1.01898 -0.117539 -1.20192e-20)
(1.02364 0.000507718 5.35425e-22)
(0.890934 -0.141376 -1.30259e-21)
(0.96162 -0.0758111 0)
(1.02249 -0.00538208 2.10055e-21)
(1.08342 -0.0293396 -3.53607e-22)
(0.954108 -0.095845 2.94521e-22)
(1.00595 8.20691e-05 -1.32784e-22)
(1.02196 -0.00204908 1.27847e-21)
(1.0391 -0.00981544 -7.5832e-22)
(1.02592 -0.00916588 -1.06104e-20)
(1.07687 0.10632 -3.62402e-22)
(1.07755 -0.0706127 2.01989e-20)
(1.01608 -0.0700942 -5.72435e-22)
(1.0187 -0.00820708 -2.87008e-21)
(1.01942 -0.00313781 9.97153e-23)
(1.01094 0.000154504 1.83805e-22)
(1.02395 -5.64988e-05 2.05084e-21)
(1.0196 -0.00323208 -1.1719e-22)
(1.01685 0.00791227 1.1703e-21)
(1.02842 -0.00169259 -5.85578e-22)
(1.02399 -0.000872993 0)
(1.01614 -0.00030531 -1.23595e-23)
(1.01003 -0.000159321 0)
(1.02144 0.000764364 2.27038e-22)
(1.01312 0.000519107 1.10329e-21)
(1.02166 -0.00199226 -2.54328e-21)
(1.00417 -0.00933248 3.04118e-22)
(1.01287 -0.00076619 0)
(1.01343 -0.00256526 -2.67286e-21)
(1.00633 0.00162876 0)
(1.00366 0.00161714 1.92925e-21)
(0.935462 0.0774593 -6.40048e-22)
(1.01376 -0.00262641 7.8435e-22)
(1.01608 0.000150232 4.97726e-24)
(0.876088 -0.242316 -4.79129e-21)
(0.578933 -0.206196 3.05593e-20)
(1.01053 0.000124069 4.23363e-22)
(0.589732 -0.214841 -2.58562e-20)
(0.768874 -0.175433 -1.10009e-22)
(1.01561 0.000135777 -8.48738e-22)
(1.00883 0.000206206 -6.38195e-23)
(1.01172 0.000210162 -1.0731e-21)
(1.00495 -0.00820162 -6.47293e-22)
(1.01388 -0.0021263 1.42158e-21)
(1.01283 -0.000736827 0)
(1.01244 -0.000673431 -8.78241e-22)
(1.01177 -0.000404853 -1.97986e-21)
(1.01216 0.0062639 1.5629e-21)
(0.668289 0.159632 -6.29033e-21)
(0.913313 0.0568741 1.75825e-21)
(0.996175 0.148457 -1.79161e-21)
(1.0009 -0.0786102 0)
(1.00487 -0.0227892 3.25179e-21)
(1.01033 0.00702786 -2.03731e-22)
(1.01818 0.00283361 2.52097e-21)
(1.01776 -0.0100194 -1.19691e-21)
(0.991577 0.22933 -1.01374e-20)
(0.906279 0.0679697 -1.76794e-21)
(0.986269 0.236403 -4.14785e-21)
(1.02704 -0.00864322 0)
(0.644434 0.117474 -5.72093e-21)
(1.02415 -0.000604438 -2.11953e-21)
(1.01541 0.00213972 0)
(1.02014 -0.00371186 0)
(1.02627 -0.0459006 -7.08735e-21)
(1.19212 -0.3093 -6.8457e-20)
(1.03748 -0.0127331 0)
(1.01422 -0.00214069 1.51883e-21)
(1.00516 -0.0110198 -3.2192e-22)
(0.916315 -0.200635 6.00786e-21)
(1.01904 -0.00457288 2.82569e-22)
(1.08622 -0.168335 -1.3005e-20)
(1.01996 -0.0038019 -6.96053e-23)
(1.02157 -0.00240439 4.20537e-23)
(1.01134 0.0055492 -1.657e-21)
(1.0277 -0.00881941 0)
(1.01923 -0.000116815 -1.87406e-23)
(1.00115 -0.112032 1.25673e-21)
(1.1142 0.0705838 3.17364e-21)
(0.993848 -0.151743 5.03504e-21)
(1.02753 -0.0438706 -4.90604e-21)
(0.846689 -0.00559145 2.3555e-21)
(1.01856 0.000372531 2.2198e-21)
(0.740371 -0.187857 5.61415e-22)
(1.01297 0.000476549 -1.28634e-21)
(1.02794 -0.00172781 0)
(0.717385 0.170318 5.60476e-21)
(0.934017 0.21161 0)
(1.01936 -0.00287957 0)
(1.02429 -0.00117463 -2.93977e-22)
(1.01382 0.0063503 0)
(0.958835 0.168295 0)
(1.01 -0.000614672 0)
(1.05289 -0.0277003 2.76338e-22)
(1.02574 -0.0148461 4.52256e-21)
(1.00865 -0.0507509 1.01927e-21)
(0.997086 -0.102495 0)
(1.01816 -0.122123 4.3478e-22)
(1.02594 -0.0059086 2.08793e-21)
(0.831224 -0.00425374 0)
(1.01196 0.000219036 -6.01642e-22)
(1.01705 0.00451703 -5.74413e-22)
(0.91554 -0.192011 0)
(1.01371 0.00544102 -5.50587e-23)
(1.04575 -0.23371 -1.46302e-21)
(0.931043 -0.0669087 4.40511e-22)
(1.02258 -0.00136088 -1.39815e-21)
(1.02663 -0.00946205 0)
(1.01912 -4.78353e-05 0)
(1.02887 -0.0598168 -2.80794e-22)
(0.692176 0.156577 1.10252e-20)
(1.03717 -0.00664513 -1.53586e-22)
(1.01505 0.000300552 0)
(0.936916 -0.0745127 -2.69878e-21)
(1.03126 -0.0969793 3.33332e-21)
(1.01578 0.00315377 9.44885e-23)
(1.01573 0.00262758 0)
(1.03857 -0.0134504 4.28977e-21)
(1.01268 0.000379126 5.95494e-22)
(1.06788 -0.0871505 -1.82676e-20)
(1.04062 -0.211994 0)
(1.02114 0.000390203 0)
(1.01683 -0.0082702 6.12513e-22)
(1.03781 0.113005 1.36644e-20)
(1.02134 0.00121553 1.90355e-21)
(1.04909 -0.0285462 3.46108e-22)
(1.0075 -0.000118066 2.02186e-22)
(1.01518 -0.00762166 -1.34587e-21)
(0.946984 -0.160136 8.73123e-22)
(1.01656 -0.0072268 -1.69868e-21)
(1.01621 -0.000150675 1.86111e-21)
(1.0124 -0.000740195 -2.03115e-21)
(1.00443 -0.00646342 6.16956e-22)
(1.01674 -0.000187933 -4.35327e-24)
(1.00828 -1.09459e-05 -1.71842e-21)
(1.02294 -0.00373395 1.15223e-21)
(1.02431 -0.0268684 -7.0184e-21)
(1.01596 -0.109752 1.02043e-20)
(1.07362 -0.079072 0)
(1.01486 -0.00620818 1.53202e-21)
(1.0163 0.00462596 1.2893e-22)
(1.01868 -0.00903015 -2.50265e-22)
(1.02283 -0.0283059 0)
(1.03382 -0.0189725 1.43976e-21)
(1.01084 -0.00117711 0)
(0.95495 -0.197233 6.60599e-21)
(1.017 -0.00767009 6.38256e-22)
(1.0082 -0.108319 0)
(1.00849 5.2471e-05 -7.30886e-22)
(1.00358 -0.0253903 -3.37067e-21)
(1.01522 0.00446287 3.10459e-23)
(1.01504 0.0039435 0)
(1.00484 -0.0487441 -1.07505e-21)
(0.735797 0.195383 -6.05529e-21)
(1.03007 -0.0023824 7.81935e-22)
(1.01108 -0.00165118 0)
(1.01271 0.00298745 -2.25714e-21)
(1.00033 0.00265533 -2.12198e-22)
(1.02303 -0.00112634 0)
(0.873701 0.0615059 0)
(0.875345 0.0814385 7.31276e-23)
(1.01952 -0.00299848 3.49051e-22)
(1.06344 0.10716 -4.11205e-22)
(1.01871 -0.000307744 0)
(1.07839 -0.0760247 0)
(1.00528 -0.00549468 0)
(1.01529 0.00318294 2.03559e-22)
(1.0078 -4.84363e-05 0)
(1.01087 -9.88661e-05 0)
(1.08075 -0.0672747 0)
(1.02251 -0.00149113 -9.59213e-22)
(1.02303 -0.00343254 -1.8896e-21)
(1.01096 -0.0272996 -4.75439e-22)
(1.01172 -0.000373589 -1.80186e-21)
(1.02413 -0.00141651 2.67603e-21)
(1.02144 0.000501613 -2.69761e-22)
(0.909049 -0.148654 -7.71442e-22)
(1.03286 -0.0044346 4.92975e-23)
(1.00809 -0.000135177 -6.37549e-22)
(1.0104 0.00010873 0)
(1.0183 0.00765451 1.20154e-21)
(1.0233 -0.00932931 -6.81658e-22)
(1.00918 -0.0283064 -5.49184e-21)
(1.01835 -0.000591961 -1.05144e-21)
(0.821182 0.319211 -7.72574e-21)
(1.01544 0.000366371 0)
(1.02191 -0.192716 2.25614e-21)
(0.852283 -0.212915 -1.65115e-21)
(1.00775 3.19602e-05 -3.93237e-22)
(1.00937 -0.000143851 1.53274e-21)
(1.01232 -0.00255635 0)
(0.997655 0.00424023 0)
(1.00896 -0.0137112 1.39753e-21)
(1.00601 -0.00329344 1.45333e-21)
(1.00933 -0.223284 1.23638e-20)
(1.01825 -0.00029485 -6.6119e-22)
(1.01204 -0.00221595 5.02977e-22)
(1.0076 -0.012597 1.38198e-22)
(1.02362 -0.00190365 1.07328e-21)
(1.02346 -0.00416287 0)
(1.0227 -0.00049045 -5.33719e-22)
(1.02031 -0.0596929 6.08523e-22)
(1.01196 -0.00697943 -8.98989e-22)
(1.00255 -0.00267915 -4.1118e-22)
(1.02639 -0.0158655 0)
(1.01282 -0.00542969 -8.31087e-22)
(0.907849 0.0329339 -7.83909e-22)
(0.733517 0.00532968 2.20592e-22)
(0.930483 0.0319108 -8.09517e-23)
(1.01439 0.00495792 1.5636e-22)
(1.18132 -0.300645 0)
(1.02186 -0.0089085 2.3142e-21)
(0.941625 -0.222132 1.82094e-23)
(0.953053 -0.0789154 -2.26996e-21)
(1.01314 0.00475717 -1.2247e-21)
(1.04736 -0.0181952 1.19624e-20)
(0.948148 -0.0726202 2.17897e-21)
(1.01988 0.00395072 -2.19792e-21)
(1.04611 -0.0243456 -1.82061e-21)
(1.0369 -0.12595 -1.92642e-20)
(1.01243 -0.000535208 -1.90228e-21)
(1.01355 -0.000586789 -5.75173e-22)
(1.02749 -0.00141172 0)
(1.00968 8.20915e-06 1.63283e-21)
(1.01179 -0.00148057 2.32701e-21)
(0.868905 -0.0256515 4.89873e-21)
(1.02017 -0.00405201 7.00464e-23)
(1.01314 -0.00526998 -9.9348e-23)
(0.827804 0.299048 9.76821e-21)
(1.02103 0.00222788 -1.98637e-21)
(1.00896 0.00486452 -1.80064e-21)
(1.01491 0.00511068 -1.5328e-22)
(1.01957 -0.00493846 0)
(1.01245 -0.000562088 1.31736e-21)
(0.854426 -0.0271891 -2.68908e-21)
(1.02465 -0.00940251 3.4635e-22)
(1.023 -0.00285703 5.57084e-22)
(1.02374 -0.00264459 1.062e-21)
(1.02193 0.0032556 0)
(1.04442 0.147712 -3.52019e-21)
(1.02575 -0.00507733 1.46606e-22)
(1.03747 0.0412184 -5.42965e-21)
(1.01549 0.00242073 0)
(1.01998 -0.0737608 0)
(0.905261 -0.166028 7.92913e-21)
(1.07511 -0.171554 1.42866e-20)
(1.01871 -0.076553 0)
(1.02011 -0.0043876 0)
(1.01765 0.0110138 -2.57253e-21)
(0.792761 -0.00631656 0)
(1.00887 -9.56889e-05 0)
(0.963045 -0.193307 -3.09234e-21)
(1.02136 -0.00101223 1.63444e-21)
(1.01254 0.000377464 2.9899e-22)
(0.837976 -0.185986 0)
(1.04298 -0.0248257 1.44281e-21)
(0.687223 -0.00879172 0)
(1.02304 -0.00281248 0)
(1.06761 -0.0927613 0)
(0.881342 0.199332 -2.99307e-21)
(1.01178 -0.0260852 1.35967e-21)
(1.0185 -0.00412796 1.4292e-22)
(0.909882 -0.17098 -2.92546e-21)
(1.03664 -0.037945 -2.06462e-20)
(0.927715 0.0619809 -9.54919e-22)
(1.01508 0.00307033 -6.43544e-22)
(1.02621 -0.00454015 0)
(0.891785 -0.210231 0)
(1.01828 -0.000531394 7.12869e-22)
(1.02045 -0.00811735 -1.47495e-21)
(1.00757 8.14613e-05 1.08487e-21)
(1.00995 -8.90822e-05 6.46803e-22)
(1.00839 0.00614636 1.69254e-21)
(1.02623 -0.00506183 0)
(1.01612 0.00118148 4.89334e-22)
(1.03308 0.161642 -1.94762e-20)
(1.02782 -0.00747271 4.91414e-21)
(0.951224 -0.41847 3.52205e-21)
(1.07483 -0.0951867 0)
(0.786525 0.00828079 -1.25586e-21)
(1.03757 -0.0965998 -1.80849e-20)
(0.955059 0.0387807 1.85806e-22)
(1.01059 -9.15439e-05 -1.71865e-22)
(1.02742 -0.00110178 0)
(0.837317 -0.1046 1.96363e-21)
(1.06609 -0.109997 0)
(1.00775 -0.0011893 1.61157e-21)
(1.03423 -0.00612039 5.39966e-21)
(0.832868 0.247242 -2.62662e-21)
(1.01314 0.00327315 0)
(0.855323 0.272334 4.40125e-21)
(1.01729 -0.00875615 6.91984e-22)
(1.01532 -0.000263382 0)
(1.01335 0.00307237 -1.42553e-21)
(0.996839 -0.0489138 3.37941e-23)
(1.01998 -0.00414348 0)
(1.03582 -0.04044 7.80474e-21)
(1.03985 0.126502 4.05122e-22)
(1.01022 -0.00122823 -1.85203e-21)
(1.07614 0.0378258 2.50256e-21)
(0.991836 0.00581072 -1.8962e-21)
(1.02397 -0.00992347 3.76112e-21)
(0.990564 0.00232853 0)
(1.02037 -0.000393247 0)
(1.03013 -0.00153537 -8.55652e-22)
(1.00387 -0.00026127 -1.93554e-21)
(0.814225 0.127054 0)
(1.01872 -0.000329718 0)
(1.02341 -0.00419906 -1.48592e-21)
(1.0296 -0.125557 0)
(1.02659 -0.0039218 0)
(1.03229 -0.020815 -7.27363e-22)
(1.02247 -0.00968386 0)
(1.0128 0.00591741 -1.57202e-21)
(1.02252 -0.0478421 -1.13915e-20)
(1.01234 -0.000565777 2.10313e-23)
(1.02334 -0.00400416 5.32418e-22)
(1.01437 0.00279475 1.62676e-22)
(1.0263 0.122472 0)
(1.00502 0.00244265 1.135e-22)
(1.01495 0.130014 -5.21211e-22)
(1.01764 0.00335133 -2.71244e-21)
(0.968986 -0.104806 2.76719e-23)
(1.01131 -0.000220476 6.20856e-22)
(1.01929 0.00302132 2.72616e-21)
(1.00798 -9.1304e-05 0)
(1.02725 -0.00722165 -6.84109e-21)
(0.930798 -0.199709 -5.67915e-21)
(1.01854 -0.000289984 0)
(0.895228 -0.157399 -5.58918e-21)
(1.01055 0.00574052 1.43847e-21)
(1.01763 -0.0105893 0)
(1.02094 -0.00909974 -5.03538e-22)
(0.838168 0.247727 -3.53525e-21)
(1.0763 -0.0392856 2.93708e-22)
(0.937822 -0.187 -1.40431e-21)
(0.987331 -0.0999816 2.03845e-22)
(1.03867 -0.00514332 -3.55517e-22)
(1.0196 -0.00112958 -9.29893e-22)
(1.04452 0.0569671 -3.66609e-21)
(1.01922 -0.0463793 4.81771e-21)
(0.99769 -0.0441301 6.30253e-21)
(0.891255 0.146248 2.11006e-21)
(0.85518 0.155821 -1.35125e-21)
(1.01851 -0.00029273 2.52206e-23)
(0.996008 0.00138177 0)
(1.06123 -0.0951004 -1.94942e-20)
(1.02212 -0.00228449 0)
(1.02375 -0.00264136 0)
(1.0217 -0.00231255 0)
(1.01438 0.000774139 2.67965e-24)
(1.00746 2.32079e-05 0)
(0.890788 0.259808 0)
(1.03259 -0.0407475 -6.81276e-21)
(0.905696 -0.192995 0)
(1.0147 0.000973393 9.22124e-22)
(0.998569 0.0091655 1.20198e-21)
(1.01552 0.00209178 -4.76518e-24)
(1.00833 -1.45324e-05 -1.34402e-21)
(1.00959 7.70951e-05 -6.26718e-22)
(1.02216 -0.00292113 0)
(1.05043 0.0531465 5.49878e-21)
(1.01787 0.00417136 2.90968e-21)
(0.998033 -0.000312696 0)
(1.0146 0.00384496 -1.22792e-21)
(1.01741 -0.000562539 2.80926e-22)
(1.03114 -0.0251179 -2.09668e-22)
(0.96633 -0.0888568 1.72003e-22)
(1.01164 -0.00039855 -1.24304e-21)
(1.01943 -0.00108774 -5.25132e-22)
(0.868394 -0.228741 1.67958e-21)
(1.04063 -0.0214262 0)
(1.02532 -0.00982945 5.71471e-21)
(0.982994 -0.185819 5.80485e-21)
(0.978988 -0.108592 4.06809e-22)
(1.00877 0.00010412 -1.09302e-21)
(1.00695 0.000121265 0)
(1.01944 -0.00807839 3.02868e-21)
(1.03334 -0.0235001 2.45507e-22)
(1.02333 -0.00401369 -3.03096e-21)
(1.0136 -0.000398192 0)
(1.01716 -0.000451247 1.46729e-22)
(1.01923 0.000776619 -2.03339e-21)
(1.01869 -0.00967108 0)
(1.01515 -0.00664903 -1.5522e-21)
(0.954538 0.0790305 9.28337e-22)
(1.00296 -0.115146 -2.27825e-21)
(1.01156 0.000199388 5.81152e-22)
(0.923289 -0.203087 5.71435e-21)
(0.975422 -0.00118801 -4.4546e-22)
(1.01568 -0.00109754 0)
(1.03231 -0.00312437 -4.48245e-22)
(1.01967 -0.00595616 2.08505e-21)
(1.16561 0.0128169 0)
(1.00511 -0.00393966 -1.47247e-21)
(1.05996 0.031124 -2.83698e-20)
(1.01268 0.00499722 1.60231e-21)
(1.01578 -0.00772076 -1.06503e-23)
(1.02761 -0.104043 0)
(1.0213 -0.00233485 1.13664e-21)
(1.03547 -0.0661373 0)
(0.822698 -0.154939 1.92936e-20)
(0.999681 -0.00148869 3.27174e-22)
(1.01551 -0.00131935 0)
(0.967734 -0.423101 -3.6781e-21)
(1.03803 -0.021729 -4.83749e-22)
(1.01324 -0.00046272 -1.92607e-21)
(1.01363 -0.0103366 -9.43889e-22)
(1.09593 -0.0963456 0)
(1.01182 -0.00259311 0)
(1.01311 -0.000396239 1.90892e-21)
(1.01857 -0.00052525 -5.12893e-22)
(1.01199 -0.00264967 -1.98819e-21)
(0.94662 -0.137724 -5.08191e-22)
(1.07378 -0.0844997 0)
(0.980001 -0.000875961 1.26523e-21)
(1.03462 -0.00455731 -5.95986e-22)
(1.01341 -0.00952094 2.4718e-25)
(1.01246 -0.00614758 0)
(1.02535 -0.00368916 0)
(1.01188 0.000172116 -3.87816e-22)
(1.01858 -0.000458532 -4.7347e-22)
(1.16804 -0.0029985 1.5024e-21)
(1.07269 -0.182691 0)
(1.01244 0.0031158 1.36086e-21)
(1.0101 0.0131416 -1.85511e-21)
(0.832432 -0.119804 -1.92067e-21)
(1.02332 -0.00410726 -1.77013e-23)
(0.97934 -0.0251967 5.21897e-22)
(1.03349 0.0462182 3.97711e-21)
(1.01223 0.000250763 -2.45566e-22)
(1.04271 -0.119667 0)
(0.90148 -0.202886 0)
(1.02294 -0.00132475 1.87975e-21)
(1.15362 -0.175937 -5.60196e-20)
(1.01498 0.00294333 -1.43896e-22)
(0.905025 0.237421 1.08458e-20)
(1.01399 -0.0277995 5.18031e-21)
(0.88035 -0.181138 4.46861e-21)
(1.01888 -0.00427823 -2.47473e-22)
(1.01489 -0.00707612 1.37906e-21)
(1.00949 0.000730099 -2.2427e-21)
(0.87605 0.0323833 -7.9649e-22)
(1.0167 0.0122091 3.18412e-21)
(0.971916 -0.189599 -3.04237e-21)
(0.981065 -0.155979 2.18722e-22)
(0.820785 -0.256869 3.7678e-21)
(1.0341 -0.0691718 -1.29353e-20)
(1.08278 -0.0285897 0)
(0.994182 -0.0409456 -4.71436e-21)
(1.00447 -1.66941e-05 8.52246e-22)
(1.04679 -0.0559052 1.20071e-20)
(1.01152 0.0121123 -1.87416e-21)
(0.924796 -0.177598 0)
(1.02454 -0.00499608 3.39696e-21)
(0.949151 -0.107922 3.84975e-22)
(1.0166 0.0026097 -2.44744e-21)
(0.924303 -0.0334406 -1.00344e-21)
(1.00875 -4.27878e-05 8.82684e-22)
(1.03742 -0.00686026 -6.90833e-21)
(1.01287 -0.00598272 1.02682e-21)
(1.1429 -0.195125 -1.44711e-20)
(1.01608 0.0033868 0)
(1.01064 0.000149897 -7.70857e-23)
(1.03368 -0.0143514 -7.84837e-21)
(1.02296 -0.0163638 0)
(1.03154 -0.043404 7.05337e-21)
(1.0197 -0.00456635 0)
(1.0205 -0.00213875 8.41588e-22)
(1.02292 -0.00400173 -1.33867e-23)
(1.02258 -0.00409255 -8.40829e-24)
(0.606061 0.0593784 0)
(1.01539 -0.00151902 -6.66391e-22)
(0.839423 0.158651 0)
(0.836073 0.265881 5.21779e-21)
(1.01536 -0.00142649 0)
(1.00914 -9.86909e-05 -1.80404e-21)
(0.99539 0.0105896 6.17456e-22)
(1.03363 -0.00668603 5.27354e-21)
(1.02155 -0.00210785 0)
(1.02319 -0.00275025 0)
(1.01428 -0.0268034 -1.27839e-21)
(1.01576 -0.0295508 3.2228e-21)
(1.03969 -0.0107675 -4.0317e-21)
(1.02403 -0.0171331 2.67877e-21)
(1.01271 -0.000241795 1.57141e-21)
(1.0213 -0.00644432 1.09641e-21)
(1.0209 -0.00475171 2.83548e-21)
(1.02009 -0.0277457 -9.37891e-21)
(1.02381 -0.00208734 -9.57179e-22)
(1.01865 -0.00468711 -1.74764e-21)
(0.829567 0.151461 0)
(1.0225 -0.0034715 -9.00149e-22)
(0.775466 0.119029 -1.42261e-21)
(1.04045 -0.0347019 3.70947e-21)
(1.00992 -0.000235615 2.07652e-22)
(1.02077 -0.00219329 0)
(1.01291 -3.10297e-05 -9.35984e-22)
(1.02346 0.00926784 0)
(1.02402 0.0113103 1.60508e-21)
(1.016 -0.00720445 0)
(1.02243 0.00215336 1.97015e-21)
(1.01592 0.0021984 0)
(1.0125 -0.00679217 0)
(1.02294 0.00148742 -1.86479e-21)
(1.01801 -0.00113332 6.40329e-22)
(1.01945 0.00557868 2.13606e-22)
(1.01352 0.000693855 -1.10872e-21)
(1.03676 -0.00767897 0)
(1.00701 -5.1839e-05 0)
(1.02666 -0.00438193 0)
(1.02098 0.00498725 -2.96714e-24)
(1.04033 -0.0116509 1.10411e-20)
(1.04587 -0.0597531 0)
(1.00758 6.32469e-05 -1.88542e-21)
(1.01562 -0.0055494 -1.37956e-22)
(1.02087 -0.00210265 0)
(1.01297 -0.000299112 0)
(1.02004 0.0011997 2.85822e-22)
(1.01062 0.000253329 0)
(1.02084 0.00154996 0)
(1.01307 -0.00481146 0)
(1.02249 -0.00342075 2.40748e-22)
(1.01647 0.00321807 0)
(1.00407 -0.0588774 -1.08889e-21)
(1.01046 -8.77234e-05 1.90852e-22)
(1.00802 -7.98541e-06 0)
(1.02228 -0.00196206 -1.85934e-24)
(0.948657 -0.0959141 -4.12898e-23)
(1.01648 -0.0021216 -1.49785e-22)
(1.01378 0.00323897 0)
(1.05236 -0.10904 -8.23267e-21)
(1.01493 0.00253617 2.72555e-22)
(1.02351 -0.0139284 0)
(1.14431 -0.204461 1.29597e-19)
(1.0056 -0.0139153 7.79322e-22)
(1.01126 -0.000406895 0)
(1.00998 0.000109427 0)
(1.09493 -0.153386 0)
(1.01281 -9.93464e-05 9.47474e-22)
(1.06037 -0.10134 2.98337e-20)
(0.811494 -0.241347 1.01247e-21)
(0.822565 -0.0998717 -2.16213e-20)
(0.988794 -0.104272 0)
(1.02332 -0.0129224 0)
(1.02257 -0.00225301 -4.8158e-22)
(0.866764 0.0929709 0)
(1.01411 0.00846203 1.28071e-21)
(1.01432 0.0030684 0)
(0.947113 0.048803 0)
(0.959583 -0.112821 0)
(0.840953 -0.146893 0)
(1.02114 -0.00215949 0)
(1.09662 -0.103778 0)
(1.02256 -0.00215907 1.11354e-22)
(1.02201 -0.00192417 6.01355e-22)
(0.872645 0.275626 9.05447e-22)
(1.01812 -0.00110347 2.12484e-23)
(0.975819 0.0957509 4.32183e-22)
(1.02644 -0.0113684 7.76682e-22)
(0.995244 -0.112652 2.20603e-21)
(1.01532 -0.00520356 0)
(1.0157 -0.0148371 5.83877e-21)
(1.02137 -0.00431744 -2.46558e-21)
(1.15447 -0.186606 4.60129e-20)
(0.99372 -0.305672 1.45599e-20)
(1.01708 -0.0095397 6.86485e-22)
(1.02597 -0.00957513 0)
(1.05528 -0.0394806 1.25237e-20)
(1.01333 -0.00467361 0)
(1.03623 -0.019088 -1.24605e-21)
(1.05346 -0.103085 -9.9499e-21)
(1.10879 -0.294353 -1.00643e-19)
(1.01825 -0.00425977 -2.04733e-22)
(0.974668 -0.0190669 1.68146e-21)
(1.01301 0.00787297 -1.5913e-21)
(0.797299 -0.0477147 0)
(0.97712 -0.0130311 -1.57416e-21)
(0.875828 -0.180839 -7.27478e-21)
(0.860146 0.0562037 0)
(1.01395 -0.00416179 1.11439e-21)
(1.06121 -0.00471318 -1.69973e-22)
(1.01533 -0.159739 -1.39295e-20)
(1.01655 -0.00230629 4.51512e-23)
(1.01794 -0.00130869 0)
(1.00746 -4.43806e-05 0)
(1.01477 -0.00736019 -6.29623e-22)
(1.01555 0.00306235 -1.47061e-21)
(0.924069 0.223663 0)
(1.01473 0.00279053 -1.5e-21)
(0.863713 0.198648 1.1725e-21)
(1.04552 -0.0173154 0)
(1.03356 -0.0801724 5.71852e-22)
(1.03091 -0.11057 0)
(1.02575 -0.00389758 -5.70577e-23)
(0.949719 -0.179914 7.51299e-21)
(0.948911 0.214686 5.91565e-21)
(1.02567 -0.00838318 5.45047e-21)
(0.883746 -0.205077 0)
(1.05817 -0.00298663 0)
(1.09636 -0.126873 -2.09709e-21)
(1.01517 0.00314434 1.63193e-22)
(1.01504 0.00245479 0)
(0.928148 -0.211863 7.98078e-21)
(1.02379 -0.00570556 -3.25744e-22)
(1.01066 -0.274685 0)
(1.01277 -0.000755541 0)
(0.853166 0.0831121 1.59903e-21)
(1.01317 0.000169903 -1.07781e-21)
(0.985195 -0.0819285 -4.34377e-22)
(0.919681 -0.208012 9.02286e-21)
(1.01327 -0.00403029 1.26879e-21)
(0.978077 -0.385055 0)
(1.01865 -0.000266659 -1.47956e-23)
(1.03466 -0.0151863 8.4413e-21)
(1.02513 -0.0709172 -8.67092e-21)
(0.843948 0.286737 -1.38125e-20)
(0.845959 0.274542 0)
(1.0205 -0.000545334 0)
(1.01321 0.000294702 0)
(1.01408 0.00373757 -1.77159e-22)
(0.828932 -0.148582 -3.0396e-21)
(0.828315 0.269403 9.19083e-21)
(1.01593 -0.000316431 0)
(1.04692 -0.00439369 9.72864e-22)
(0.978439 -0.0323035 0)
(1.0147 0.0034948 -3.48061e-22)
(1.01587 -0.00327605 2.78975e-22)
(1.01643 0.00908436 0)
(0.968086 0.0944049 -9.9372e-22)
(1.00531 -0.0327671 0)
(1.02498 -0.00587204 -2.38205e-22)
(1.01017 -4.68458e-06 0)
(1.01254 -0.000387734 0)
(0.997449 -0.117139 -4.15882e-22)
(0.844737 -0.131354 5.43362e-23)
(0.964738 0.0358916 2.4217e-21)
(1.01307 -0.000351384 0)
(1.01385 -0.00111971 -9.72681e-22)
(0.938493 -0.0899562 -5.16963e-22)
(1.01806 -0.0012735 -6.70227e-22)
(0.887708 -0.190292 0)
(0.999124 -0.0778982 -6.22378e-21)
(0.87249 0.217976 9.19582e-21)
(0.928765 -0.0967978 0)
(0.849375 0.0626052 0)
(1.01225 -0.00223956 1.10401e-22)
(1.0261 -0.00373352 5.63261e-23)
(1.03115 -0.0240755 2.28505e-21)
(1.0331 -0.0123665 7.95677e-22)
(1.01877 -0.029111 -4.23093e-21)
(1.01822 -0.000772404 -6.70206e-22)
(1.09053 -0.107029 2.93314e-20)
(0.846778 0.0914439 0)
(1.01339 0.000389282 0)
(0.959203 0.220377 -8.71693e-22)
(1.01258 -0.000348673 0)
(0.988361 0.132821 3.00515e-21)
(1.03024 -0.00431438 4.44674e-21)
(0.893996 -0.105299 0)
(1.02144 0.0116077 -8.53931e-22)
(1.00803 -0.0122519 0)
(1.01861 -0.00526379 -3.05572e-22)
(1.02415 -0.00762378 -1.17039e-21)
(0.98102 0.0082297 -2.36194e-21)
(0.802113 0.0666003 -9.58582e-21)
(1.02843 -0.115953 1.88166e-20)
(1.02383 -0.00363175 0)
(0.989063 -0.0426107 0)
(1.01492 0.00574038 0)
(1.01811 -0.00384399 1.13054e-21)
(1.01457 -0.015207 -1.92792e-21)
(1.16245 -0.294915 0)
(1.01106 -0.000205253 -1.00165e-24)
(1.08914 -0.130459 2.07805e-21)
(1.01237 -0.00231892 0)
(1.05794 -0.0410337 1.35771e-20)
(1.018 -0.00861551 9.93368e-24)
(1.01342 0.000610565 2.33247e-21)
(1.00789 -3.40742e-05 4.76104e-22)
(1.01399 -0.00114985 8.48157e-22)
(0.846757 -0.234511 0)
(1.0179 -0.00149762 1.66338e-23)
(1.01763 -0.00911759 4.26226e-21)
(1.00824 -3.65011e-05 0)
(1.00857 0.000233195 0)
(1.0163 0.00282324 0)
(0.948251 -0.049282 3.61493e-23)
(1.00855 -4.06032e-05 -1.88263e-21)
(1.03887 -0.00817481 3.75346e-21)
(1.0122 -0.00246052 0)
(1.01613 -0.00347687 0)
(0.894821 0.141047 1.41124e-21)
(1.01661 -0.00191088 2.17433e-22)
(1.11981 0.0776039 0)
(1.01353 0.000537693 -2.05372e-21)
(0.974128 -0.00665206 -2.9422e-21)
(1.01023 -1.73745e-05 -1.88857e-21)
(0.976409 0.082899 8.8676e-22)
(1.00975 0.000188263 2.12879e-21)
(1.18061 -0.105863 0)
(1.02359 -0.00294295 -9.49146e-22)
(1.02438 -0.00557369 1.99677e-22)
(1.01358 -0.00122952 8.61742e-22)
(0.946157 0.259099 -1.28803e-20)
(0.887632 0.0964983 1.39738e-20)
(0.976775 0.144348 -1.0577e-21)
(0.974722 -0.246495 0)
(0.916177 -0.089055 -5.6878e-22)
(1.02363 -0.00617425 0)
(1.03004 -0.0225339 2.01538e-21)
(0.86929 0.0137443 -2.86121e-21)
(1.01826 0.00336353 1.22697e-21)
(0.919949 -0.189861 0)
(0.940808 -0.178881 -6.07758e-21)
(0.943345 -0.0416426 -3.68172e-22)
(0.945465 -0.142271 -7.3724e-21)
(1.018 -0.00666716 0)
(0.919735 0.199594 3.14462e-21)
(1.0291 -0.0294863 9.41019e-22)
(0.975528 0.173778 -1.60476e-21)
(0.88066 0.0740356 3.24265e-21)
(1.01888 -0.00914388 -3.24836e-21)
(1.02442 -0.00524115 0)
(0.914399 0.163983 -2.96221e-20)
(0.812777 0.353024 0)
(1.0143 -0.000173351 -5.9525e-22)
(1.01806 0.00420276 0)
(1.01825 -0.000836408 -4.31505e-22)
(1.00358 0.00481975 3.79941e-21)
(1.06841 -0.0616288 -1.75582e-20)
(1.01067 0.000158456 5.43566e-22)
(1.01997 0.000594048 8.36956e-22)
(1.03401 -0.0130984 9.26212e-22)
(0.959838 -4.35821e-05 0)
(1.02927 -0.0724932 -1.02761e-20)
(1.03586 6.27655e-05 0)
(0.80128 -0.0791336 -6.98933e-21)
(1.01372 -0.0012598 5.23043e-23)
(1.02074 0.00226677 1.23787e-21)
(0.92115 -0.0464749 9.60234e-22)
(0.795452 0.196169 1.21395e-21)
(1.07624 -0.0609472 0)
(1.0172 -0.000260288 6.26894e-22)
(0.973969 0.0238512 4.96419e-21)
(1.01309 -0.000202772 -2.14006e-21)
(1.01857 0.00292962 0)
(0.872649 -0.156781 0)
(1.01719 0.00275029 2.61421e-21)
(1.0191 -0.0068505 -9.019e-22)
(0.93661 0.215534 1.31293e-20)
(0.937941 0.239517 -1.13485e-20)
(1.01536 -0.00510306 2.14691e-21)
(0.968929 0.170672 -2.67335e-21)
(0.924992 -0.18102 -8.52668e-21)
(1.17286 0.0111743 2.76151e-22)
(0.903434 0.0491185 -1.01379e-21)
(1.14797 -0.304483 5.80162e-20)
(1.01453 -0.000401562 0)
(0.997959 -0.131925 4.69472e-22)
(1.02362 -0.00253601 0)
(1.01239 -0.00211309 -1.96931e-22)
(1.02231 -0.00325425 -7.13524e-22)
(1.00831 -5.19446e-05 -4.26214e-22)
(1.01462 0.00621963 0)
(1.07611 -0.385114 -4.73528e-20)
(1.01091 -0.00489519 -6.04268e-22)
(0.863404 -0.194531 7.1341e-21)
(1.02481 -0.00471434 -2.94004e-22)
(0.967459 0.0211474 7.00826e-22)
(1.02323 -0.00225327 -7.20001e-23)
(1.07241 -0.0636702 0)
(1.01197 -0.0116752 3.13492e-22)
(1.01708 0.00544294 -5.97115e-22)
(1.00285 -0.0810963 -5.29507e-22)
(1.02578 -0.00343924 2.92911e-22)
(1.01971 0.00241011 -1.20147e-21)
(0.963887 -0.117942 -1.50775e-20)
(1.01526 0.0140245 1.09535e-21)
(1.01292 -0.0478459 0)
(1.01188 -0.0043566 0)
(1.01175 0.00278891 -8.21367e-22)
(0.873129 0.145387 0)
(0.835696 0.263516 -1.20493e-20)
(1.02463 -0.0149097 2.95392e-22)
(1.01572 0.0022418 4.87595e-24)
(1.01564 0.00189857 0)
(1.01286 0.0103236 4.50597e-22)
(1.01721 -0.00855381 -1.77575e-21)
(0.637958 0.033495 -7.65579e-21)
(0.97295 -0.12218 -1.37366e-20)
(0.885743 0.0444815 -5.64557e-22)
(1.00042 -0.0516654 -8.48895e-21)
(0.944505 -0.192191 7.50485e-21)
(1.01959 -0.0147542 -1.02223e-21)
(1.02881 0.0258667 1.04274e-21)
(1.05028 -0.0034476 -5.48884e-22)
(1.02812 -0.0256598 8.00612e-21)
(0.934452 -0.136827 -1.47676e-21)
(1.01893 -0.00509821 0)
(1.01504 -0.00584945 -1.26015e-21)
(0.980158 0.153349 0)
(1.00513 -0.0632582 0)
(1.14908 -0.328539 0)
(1.0177 -0.00451484 -2.83436e-22)
(0.806844 -0.0640743 2.466e-20)
(0.90443 -0.150334 -9.41664e-22)
(1.01294 -0.000135663 3.79575e-22)
(1.06338 -0.0786551 -1.7193e-20)
(1.04597 -0.0214056 -1.32641e-23)
(0.644598 0.00079874 -2.48689e-21)
(1.011 -0.000247121 1.78356e-21)
(1.03838 -0.0330239 6.83932e-21)
(0.838731 -0.0236543 2.98955e-21)
(1.02866 0.00634151 -1.17474e-21)
(1.01807 -0.00471206 5.54531e-22)
(0.973119 0.0171453 0)
(1.02404 -0.0024945 8.03218e-22)
(1.01281 -0.000268395 -2.42441e-21)
(1.0154 -0.00488505 0)
(0.990777 -0.250043 2.03564e-20)
(1.02475 -0.00202842 5.38106e-22)
(1.05746 -0.031535 -1.18626e-20)
(1.03307 0.0861044 -4.43972e-22)
(1.05914 -0.0755814 3.41873e-20)
(1.01933 0.0129388 1.43342e-21)
(0.985677 -0.0384671 3.28894e-21)
(1.05533 -0.0499162 0)
(0.996714 -0.165068 -4.26591e-21)
(1.04712 -0.0547808 -3.42414e-22)
(1.01949 0.00298265 0)