/*--------------------------------*- C++ -*----------------------------------*\
| =========                 |                                                 |
| \\      /  F ield         | OpenFOAM: The Open Source CFD Toolbox           |
|  \\    /   O peration     | Version:  v2012                                 |
|   \\  /    A nd           | Website:  www.openfoam.com                      |
|    \\/     M anipulation  |                                                 |
\*---------------------------------------------------------------------------*/
FoamFile
{
    version     2.0;
    format      ascii;
    class       volScalarField;
    location    "300";
    object      ddt0(k);
}
// * * * * * * * * * * * * * * * * * * * * * * * * * * * * * * * * * * * * * //

dimensions      [0 2 -3 0 0 0 0];


internalField   nonuniform List<scalar> 
9793
(
1.07831e-06
-0.00178246
9.28272e-07
-5.83531e-08
0.00695762
-2.01405e-07
1.31133e-07
-3.5326e-08
-7.11319e-08
0.00228992
-1.62185e-06
-0.00434291
-1.2711e-07
1.12942e-07
5.68519e-08
1.22442e-07
1.27957e-06
2.47686e-06
-8.77638e-05
1.84732e-07
-0.00890482
3.6876e-07
0.000662442
2.09345e-07
-5.71425e-07
-1.70929e-07
-7.27783e-07
1.72711e-08
3.28089e-07
-1.10129e-07
-2.10822e-06
0.000313457
-0.00359048
-4.4397e-08
2.16012e-09
-0.0126086
3.33385e-08
4.03797e-07
2.13571e-07
-8.73594e-08
-4.09892e-06
5.03014e-08
-2.19517e-07
2.63365e-08
-2.42604e-07
-1.49991e-07
-1.27245e-07
0.000452874
0.00714381
-4.12839e-08
-7.04699e-08
-1.76645e-06
3.06647e-07
1.44998e-07
3.21211e-06
0.00452852
-1.634e-08
-1.13488e-06
-0.00400722
1.80059e-08
1.07356e-07
5.64178e-07
0.000119545
6.91559e-08
0.0515097
-0.00301824
0.0137873
0.0206905
-0.00384071
-1.65255e-06
3.96433e-07
1.64006e-07
-4.27739e-07
0.000900844
-1.93021e-07
-0.00272273
-9.74636e-08
7.46057e-07
9.51415e-07
-3.02697e-07
-0.00439653
-5.39948e-07
-0.00172966
0.000558879
1.63305e-06
0.000460255
2.26524e-07
-1.23106e-07
6.28492e-07
-9.74908e-07
-0.00115289
0.0171637
1.98405e-07
0.000116139
6.49259e-07
0.000162153
0.00525518
-0.00159115
2.21386e-07
-3.81533e-08
-6.04522e-08
2.93149e-07
3.02659e-07
2.58928e-07
-1.11062e-06
1.32138e-06
6.47898e-07
-9.44922e-08
3.44826e-07
0.0019585
1.86558e-07
-0.00528685
3.46098e-07
0.00893396
-1.69604e-06
-7.66208e-08
0.00101398
1.87254e-07
4.57107e-07
2.18806e-05
0.00101487
2.73987e-07
1.05058e-07
-3.84299e-07
2.03927e-07
-0.0158361
-6.57923e-07
4.38912e-05
-8.76077e-07
-2.50173e-07
2.48203e-07
-1.25706e-07
-2.6595e-07
-5.086e-08
-8.32381e-09
-8.83069e-08
-2.4538e-09
2.3209e-08
2.44353e-07
1.24414e-08
2.42615e-08
-3.72296e-07
-4.06978e-08
-1.87981e-07
2.59827e-07
2.65558e-07
-0.00202557
-1.84512e-07
2.43973e-07
0.0296785
2.8312e-05
2.27314e-07
1.98991e-05
0.00103964
1.96657e-07
2.72018e-07
3.65259e-08
-1.28233e-07
-1.41212e-07
-4.02294e-08
-1.06172e-07
7.42655e-08
-5.05769e-08
-0.000258671
-0.00020683
-0.0164717
-7.65958e-05
4.77756e-07
-5.77657e-07
7.22701e-08
-4.49408e-07
0.00569589
-0.00145938
0.00558944
1.20142e-07
-2.57589e-05
-9.24528e-08
7.87911e-08
-1.74318e-07
8.74827e-08
0.00594448
6.76714e-08
-1.24111e-07
-4.1609e-07
0.0171744
-3.28152e-07
-1.40968e-05
-1.76076e-07
1.25609e-07
-1.21125e-08
1.14029e-07
-2.2036e-07
0.0051498
-0.00753492
0.0191418
3.62462e-08
-9.26206e-07
-2.65561e-07
0.00071186
2.46333e-08
3.96129e-09
7.20543e-05
0.00550073
-1.97974e-07
-5.12221e-08
-4.52962e-07
-0.013399
-1.9067e-07
-8.39219e-07
4.04493e-08
2.80753e-07
0.00260295
0.0116455
8.65143e-08
-3.55644e-07
2.83946e-08
2.22971e-07
0.0201598
-4.14306e-07
-0.0138972
1.19115e-06
-1.14319e-07
1.91779e-07
-2.43721e-07
0.000102852
-0.000141307
7.56362e-09
2.01129e-07
1.17966e-06
-8.40685e-07
2.90501e-07
1.11794e-07
-1.79795e-08
3.74763e-08
-1.01907e-06
-0.0122378
1.07337e-07
-2.10302e-07
0.00176675
2.30812e-07
-8.92128e-07
-1.70658e-07
-1.10436e-07
-0.00423554
-2.27149e-07
2.16014e-07
-8.439e-08
-2.37078e-08
2.65557e-07
-1.90509e-08
4.21805e-07
2.72406e-07
-1.18346e-06
-8.99903e-07
4.0503e-08
5.41378e-07
-4.56851e-07
2.55652e-07
-1.16374e-06
-1.78494e-07
-0.00223135
-3.13627e-07
-1.42991e-06
-1.89404e-07
4.81907e-07
1.50656e-08
3.87819e-08
2.87301e-07
-0.00191112
4.95695e-07
-2.00202e-07
7.4551e-08
7.25486e-07
-1.48441e-07
-0.000200028
-0.0017187
-3.33216e-07
-0.00590088
-2.68559e-07
-1.0501e-06
8.43734e-08
2.86101e-07
-9.37908e-08
-7.94972e-08
-7.18997e-07
-1.30217e-07
5.1699e-07
4.28897e-07
1.00755e-07
-5.02715e-08
2.26806e-07
-0.000901551
4.04658e-07
-3.78779e-09
1.9905e-07
-1.52818e-07
2.37186e-07
3.35277e-07
-2.91288e-07
-0.0233867
2.51795e-07
-0.0036051
0.00366472
-5.87538e-08
-1.28001e-07
-2.16295e-07
5.93967e-07
4.50476e-07
2.53932e-07
-0.00306751
-4.08685e-07
-2.05064e-07
4.85387e-07
5.93625e-07
2.807e-07
1.03481e-07
0.000419213
-1.38189e-07
5.64921e-07
6.74086e-08
-3.67095e-08
0.000563001
-7.11559e-06
0.000718288
-1.93117e-07
0.0105398
2.48462e-07
-0.00784406
4.1854e-07
1.99778e-07
-4.56684e-08
4.95468e-07
1.97809e-08
-1.0478e-06
-2.15578e-06
-1.19143e-07
-2.7094e-07
2.19359e-07
-1.04557e-07
-1.56029e-07
1.33847e-06
-3.12085e-07
1.59125e-08
-0.0175368
1.92569e-07
1.46087e-07
-2.11174e-07
2.60663e-07
-8.81183e-08
-2.45232e-06
2.57624e-07
2.1343e-08
5.01379e-07
4.48968e-07
0.00340199
1.23678e-07
1.19879e-06
9.58321e-08
1.22828e-07
2.58269e-05
-1.34551e-05
1.12057e-07
3.36881e-07
-1.48716e-07
-2.38813e-06
1.10235e-07
-0.00201798
-8.83793e-08
3.98761e-08
0.00707996
-1.09985e-06
-1.86508e-05
-1.21957e-08
-1.1857e-06
-0.0173931
-9.98945e-07
-3.00816e-07
-0.00205615
1.1775e-07
-0.00109361
5.31502e-07
1.19906e-08
0.00964257
-4.16314e-07
2.37552e-07
-1.07135e-07
-7.57109e-08
-5.77863e-07
5.33469e-08
4.5728e-07
0.00399955
6.86165e-09
-0.0088022
-0.000304152
-5.04973e-06
-9.26472e-07
0.000509103
7.70731e-08
1.88285e-07
5.46677e-06
-0.000715994
-1.79004e-07
9.24396e-08
-0.00491275
5.81619e-08
0.012975
-2.50196e-07
4.29785e-07
6.65358e-08
3.92957e-07
-3.37779e-07
3.34547e-08
-0.00975423
-2.05812e-07
0.000784148
-1.11097e-06
2.2242e-07
-3.06623e-06
-1.75581e-08
6.57152e-07
1.46822e-07
-2.98224e-05
-2.82878e-07
2.92148e-07
-2.00494e-06
-6.61964e-08
-1.23411e-06
2.38951e-07
-7.11678e-08
9.88955e-08
2.68844e-08
3.0144e-07
1.5867e-08
0.00159156
-9.57182e-08
0.00119433
9.28221e-08
0.00230914
-1.5929e-07
-8.51539e-09
-7.75052e-08
-6.99818e-09
0.00769447
-2.8993e-07
1.1325e-05
4.34791e-08
-6.39973e-07
2.21268e-07
0.00107956
-5.09436e-06
6.66333e-05
0.00167243
1.35529e-07
1.16168e-07
-2.05272e-06
1.49382e-07
5.38817e-07
-0.00181008
-0.00482421
-4.05803e-07
-6.58562e-07
-1.17005e-06
9.32159e-08
-1.09092e-06
1.32564e-07
3.14314e-07
1.75469e-07
0.00455461
4.435e-08
0.0159249
3.86162e-07
6.99188e-07
8.49934e-08
-6.20626e-08
1.03644e-07
-5.3708e-07
-2.00196e-06
2.03465e-07
1.16362e-06
1.52817e-07
-2.87313e-08
-1.21095e-06
0.000727997
9.94236e-08
2.04663e-07
-1.47579e-05
-1.11331e-06
2.41099e-07
-0.00131666
0.00351164
-7.38644e-08
-2.15034e-07
1.87147e-07
-1.19614e-06
3.46931e-07
2.39979e-08
-3.07448e-07
-1.61643e-07
-4.4715e-07
-5.06418e-08
-0.00227471
-1.3874e-06
3.75344e-08
0.0120351
-3.86597e-08
4.19242e-08
4.06683e-07
6.66346e-07
-0.00588773
1.13953e-07
-0.00199792
2.31437e-07
-1.20732e-07
-1.16637e-06
5.15742e-08
-9.87336e-08
0.0076009
8.41118e-07
3.62023e-08
-0.00883972
-1.10896e-06
-1.69543e-07
-6.109e-07
-1.70894e-06
1.94077e-07
-1.20372e-07
-1.62813e-07
2.3395e-07
-0.00238212
-1.08446e-06
7.35529e-07
3.54566e-07
-4.22005e-07
-4.88115e-08
3.05252e-09
1.21172e-07
-2.62749e-07
-0.00554269
-3.1566e-05
5.82438e-08
-2.24259e-06
1.36335e-05
-3.14191e-07
0.000328457
2.58666e-06
1.12225e-07
-1.83746e-06
0.0136489
-1.57716e-07
-6.79562e-05
1.3526e-07
0.0081781
3.32989e-07
0.0047177
-3.58201e-07
-8.70543e-09
1.29863e-06
0.000297462
-7.63593e-07
-0.00214895
-0.00575082
0.0703216
-1.4062e-07
-0.00461323
5.63518e-07
7.61013e-09
-1.53842e-07
-1.60038e-06
-0.00106088
2.88866e-07
0.00227981
-1.80314e-07
0.000793553
-1.09263e-07
-4.37647e-08
3.85665e-08
-6.31139e-05
-6.38601e-08
-4.38154e-08
1.16196e-07
1.30767e-07
-3.47673e-08
-4.1407e-07
-1.69641e-07
-3.65731e-07
-4.12151e-07
-3.42674e-06
-7.4737e-08
-0.0043774
0.0151028
-3.70505e-08
-1.011e-07
9.88382e-07
1.14986e-07
2.27972e-08
5.74608e-07
-9.77545e-07
3.47732e-07
-5.81092e-08
1.21821e-07
-1.11588e-08
8.05397e-07
3.6282e-07
3.14659e-07
5.71914e-07
2.6949e-07
-0.00125755
-1.0557e-07
-3.72587e-05
1.10668e-07
1.36587e-07
-1.4266e-07
-1.27627e-07
-1.69571e-08
7.95313e-07
-2.29116e-07
9.98964e-07
6.17084e-08
-8.90019e-08
1.13074e-06
1.48804e-08
5.44041e-07
-2.5546e-09
-4.16081e-08
1.96278e-07
1.5209e-08
5.88767e-07
-9.06642e-08
-1.02648e-07
-1.48904e-07
-1.88886e-07
-1.41408e-07
-8.41723e-08
-6.25393e-07
1.87729e-08
-7.13693e-07
-6.69669e-08
-9.93982e-08
-1.41167e-07
2.56078e-07
8.41989e-08
-1.2262e-07
2.83211e-08
0.000924715
-1.58811e-07
5.05444e-08
-1.7546e-06
6.35155e-08
-1.09126e-06
0.000754253
-4.66969e-07
-5.78633e-08
9.38471e-08
-2.02415e-06
-1.16311e-07
-1.36797e-06
0.0560193
0.00635677
-0.00240154
-1.01339e-06
2.22248e-09
0.000211358
1.06464e-06
5.26907e-08
0.000173905
0.00349559
6.29739e-05
-8.85005e-08
-2.20287e-06
-1.29352e-08
1.02298e-07
0.00662928
9.81379e-09
-0.0048402
5.74797e-06
-1.35426e-06
-1.3323e-07
3.98577e-07
4.07544e-07
9.52349e-05
-0.0116259
-2.72322e-07
5.95819e-06
-6.48518e-08
-6.11324e-08
-1.02099e-06
-1.31532e-06
0.0355129
-3.07951e-07
0.000256371
1.42004e-06
0.00516863
0.000149743
-0.000188731
-0.000349864
-4.70644e-07
1.56496e-07
-0.00412731
1.45256e-07
-1.03147e-07
4.07585e-08
2.38214e-06
1.31587e-08
0.00347443
6.06349e-09
-0.00315264
-7.63733e-08
-0.00108314
-1.50261e-06
1.52301e-08
-1.8971e-05
-0.000377496
2.00306e-07
0.00621772
-3.81712e-08
-3.20405e-06
3.53356e-08
2.88057e-08
-0.000517109
-3.69374e-07
-0.0100102
-9.49202e-08
-0.00354383
8.04634e-08
0.000210627
-0.000173148
-5.13548e-07
-0.00825945
-1.90354e-07
6.07628e-08
-8.05444e-08
0.0117732
0.0124883
-9.33449e-07
1.02587e-07
1.14191e-07
0.00750125
-0.00711781
-1.77343e-07
-7.57821e-08
0.000552061
1.0388e-07
2.47379e-08
-2.35734e-07
-0.00353992
8.3328e-08
-3.24108e-07
-9.74359e-08
-5.24513e-08
-0.00354788
3.08607e-05
1.01366e-05
-1.25865e-07
-1.63936e-07
0.000540092
-1.54708e-07
0.00776898
2.3466e-08
-0.00232109
0.00237782
-0.00116425
2.42418e-08
-1.12359e-08
1.85571e-07
1.38347e-07
3.07002e-07
-2.87102e-07
-1.95391e-06
0.000399443
2.02423e-07
-4.44234e-05
-8.46476e-08
0.00292958
-5.80132e-08
0.00286553
6.98978e-07
-2.10336e-06
-3.09554e-07
-1.15791e-06
4.44125e-05
0.00210561
-0.00374056
-1.88419e-07
4.50061e-07
1.39585e-06
2.93631e-07
4.39253e-07
0.0181948
9.69848e-08
-3.03621e-06
-3.88602e-08
-4.31756e-08
-2.48683e-07
1.02264e-09
1.52881e-07
-1.69974e-07
0.028732
-2.12178e-08
2.77025e-07
-6.20555e-08
2.50717e-07
-1.18456e-07
8.29624e-07
-2.28691e-07
-2.73017e-08
1.43933e-07
-1.3676e-07
-0.00259497
-7.49667e-08
-0.0102232
2.16995e-07
0.000122377
-7.39176e-08
-0.00028413
-6.54811e-08
-0.00394745
4.68973e-07
-2.69134e-07
-1.71104e-07
-0.0010858
-0.00339451
0.0032815
0.00816223
0.000430771
-4.10385e-07
1.52609e-07
0.000595044
-3.22678e-07
-0.000630341
-0.00170982
8.76118e-07
4.18531e-06
2.67983e-07
-0.00166005
-1.16182e-06
0.0013926
-0.000240275
1.96108e-07
2.28899e-07
-0.00205618
-0.0262655
-4.03976e-08
5.49379e-07
-1.01741e-07
-3.21213e-08
-3.83683e-07
2.32193e-08
-6.10623e-07
1.48236e-07
0.000175367
-8.20739e-08
4.89629e-07
0.00629155
-1.75237e-07
-7.25982e-07
0.0012796
-0.0146358
-4.44133e-07
-4.32133e-07
-2.62124e-05
-5.98676e-08
-3.13937e-07
0.00220317
-2.48486e-07
2.19015e-07
-0.00160449
-0.00144373
-4.13955e-07
0.00274085
1.51164e-05
-0.00843981
0.000398855
0.0171351
1.79611e-08
0.0149584
6.0076e-07
-8.01433e-08
-1.61683e-07
-2.09641e-07
1.40441e-06
0.00114608
1.93803e-06
0.000102584
1.33634e-06
-1.60529e-06
5.0122e-07
-3.61705e-07
4.45074e-07
3.57668e-07
8.35816e-08
1.29236e-06
-4.27538e-07
-9.12753e-07
1.35095e-06
1.9325e-07
3.03479e-07
1.40855e-08
-0.0025403
0.014491
-6.14771e-06
6.95836e-08
5.1838e-08
-2.45954e-07
3.28381e-06
-2.78301e-05
-9.39483e-07
0.000680001
3.90248e-07
-0.00188139
-1.24542e-06
6.94613e-07
6.81102e-08
2.30124e-07
4.77352e-06
-3.00626e-07
-2.53715e-09
-0.0108476
1.63325e-07
0.0111201
-3.38119e-07
0.00546451
0.00377364
2.27871e-07
-7.21915e-07
-1.12191e-07
-6.8904e-06
1.55217e-07
8.6258e-08
0.00162569
-1.08655e-05
-3.14651e-07
2.17071e-06
4.69182e-07
-2.12482e-08
-1.83649e-07
0.0128145
5.06551e-07
-3.7601e-09
0.000924413
-7.52221e-07
7.27578e-07
5.69185e-07
-0.000455833
-0.00582028
-0.000432871
-4.32529e-07
2.38632e-07
8.60367e-08
-2.27721e-06
1.49316e-07
0.000755211
0.000502076
-1.16265e-07
0.00285944
0.000237384
0.00180075
2.65822e-07
-0.0026291
-1.68779e-07
-0.0014229
-2.88648e-06
-1.24163e-07
0.013812
-0.00464614
-1.88463e-07
2.99116e-08
7.27399e-08
0.0340654
0.00303551
6.30017e-07
1.22182e-06
7.29329e-05
6.84134e-05
0.0111974
0.0014538
-1.8256e-08
1.7011e-07
0.00236025
-0.00219974
-2.66465e-07
-5.19799e-07
-9.59688e-07
4.92295e-07
3.23495e-07
1.18484e-07
-0.0129919
-3.57502e-07
-1.15491e-06
-0.00748851
1.33853e-07
2.58755e-07
6.71058e-07
0.000148524
7.29605e-08
2.28046e-06
-0.000885154
2.07673e-07
1.46457e-07
2.44506e-07
-7.37249e-08
3.60505e-07
-3.52032e-06
-0.00399113
-6.82643e-07
-0.0011111
6.8637e-08
-5.44221e-06
5.11301e-08
-2.50282e-08
3.4474e-07
5.2192e-07
-0.00322062
4.84462e-08
-8.0325e-08
7.274e-07
-1.25421e-06
-1.36146e-06
2.74845e-08
-1.50371e-07
-8.25588e-06
1.76404e-07
-1.02489e-07
0.00312544
-3.08929e-07
-0.000377781
-1.41628e-06
-6.30883e-08
-0.005933
-6.36883e-08
-3.60805e-08
-3.19492e-05
-6.77945e-08
0.00101166
-1.19231e-07
1.07905e-07
-0.00963801
-0.00409318
-7.29317e-08
2.5531e-08
-1.27029e-07
-9.22076e-09
-3.31396e-06
4.5605e-07
-1.26856e-06
-1.10554e-07
8.19036e-08
5.7989e-08
-4.4356e-07
3.1697e-08
-1.00942e-07
-8.41534e-08
0.000373017
6.71006e-07
2.5257e-08
-7.29589e-07
2.13924e-06
0.000439532
9.57151e-05
-3.80607e-07
3.29509e-08
-9.06915e-08
-2.95053e-06
5.85719e-07
1.90328e-08
3.81536e-07
0.00360478
-0.00013289
-2.15469e-08
-7.57134e-08
-2.51314e-06
8.62301e-07
1.09058e-07
0.000736791
2.5093e-07
-1.87606e-07
1.45956e-07
-1.01868e-05
-1.9681e-08
9.66103e-07
-0.00147422
1.99034e-07
-0.00265406
-1.51e-05
6.69026e-05
-1.38019e-07
-1.98066e-08
-4.00126e-08
-4.06661e-08
-0.000173954
-2.39268e-07
0.00262136
3.50159e-07
-4.20193e-08
2.40278e-07
1.69235e-06
5.13079e-08
4.39421e-08
-6.79797e-07
4.5077e-07
0.00173308
-3.72349e-08
5.38561e-08
-0.001106
-1.35096e-06
-1.19513e-07
-1.59491e-06
-3.32905e-07
-1.26834e-07
-2.26097e-07
1.90994e-07
-6.24131e-06
2.0347e-07
2.60726e-06
0.00293003
-1.20856e-07
-5.22569e-08
-5.72656e-08
9.67401e-07
9.39921e-09
6.67322e-07
-1.90662e-07
-1.61247e-07
2.16438e-06
1.14334e-07
-2.2455e-07
-1.19351e-07
1.5329e-07
5.66033e-05
0.00350461
-1.48311e-07
-1.6988e-07
2.95769e-09
0.000169783
-1.07768e-08
-4.01536e-07
0.000824711
4.19098e-05
-2.49361e-07
1.77844e-05
0.00369703
4.19278e-07
0.00031079
4.97667e-05
-0.000261144
-1.5021e-07
1.07988e-06
-5.614e-06
1.80773e-07
0.000426482
0.00609137
2.33814e-07
0.0001064
-0.0029572
4.07542e-07
0.00265799
-2.34219e-07
1.53564e-07
2.68704e-07
5.11714e-08
-0.00284847
-2.80404e-07
-8.58265e-07
1.19644e-06
-1.89017e-07
0.00146124
5.74067e-07
-1.66239e-07
-8.86712e-08
-6.61768e-08
0.0293735
-0.00447141
-5.17761e-09
2.2899e-07
0.018983
-1.18995e-07
-4.4722e-08
-8.2337e-08
0.00169131
0.000972812
6.1986e-07
6.13779e-07
-4.83735e-08
0.0260237
0.0105294
-2.99397e-07
-1.89003e-07
-5.05985e-08
0.00393347
0.00267569
1.58488e-05
3.36555e-07
4.51782e-07
9.5153e-08
6.73499e-08
4.17358e-08
1.00523e-07
6.2111e-07
3.15801e-07
-8.29626e-08
-0.000170634
0.00031241
-4.17313e-08
0.00568965
6.73826e-07
-0.00400984
0.00377031
2.72364e-07
-0.000367738
-0.00506844
-2.3426e-07
-1.31093e-05
-1.7084e-05
-0.00284264
-0.00212064
-4.32167e-07
-2.7601e-05
0.000145833
3.69627e-07
6.26551e-07
-0.0022586
0.00125503
-1.79517e-07
6.39783e-08
1.99774e-08
-2.36469e-07
-2.58851e-06
8.4522e-08
1.3122e-07
-1.55659e-07
-3.22051e-07
5.0757e-07
1.46941e-08
3.85876e-07
6.30967e-08
0.000651848
2.71674e-07
-0.002424
-8.41088e-08
5.81185e-08
-1.08574e-07
0.0203268
0.00143739
-1.35674e-07
3.11212e-07
3.22652e-08
-4.57949e-08
-3.29273e-07
-8.94862e-08
-2.44086e-07
2.22629e-06
-1.25148e-07
8.56263e-05
2.33576e-07
-3.67171e-08
-0.000723615
1.78292e-07
3.05047e-08
-7.90957e-09
-4.823e-07
0.000546429
-2.73112e-06
0.00742837
0.0110347
7.59784e-05
-5.06132e-08
7.12887e-08
5.56032e-07
2.10935e-08
0.000103995
-3.39958e-06
-0.000665352
-1.33075e-07
5.34582e-07
1.48497e-07
0.000126839
0.00599292
-8.09454e-08
-0.000236758
-2.19971e-05
1.14311e-07
3.69757e-07
2.24764e-07
-9.14464e-07
-1.22195e-06
-3.5168e-06
-7.55954e-07
-2.81494e-07
-0.00381768
-0.00543358
-1.92841e-09
-4.55861e-08
3.79842e-08
0.0170938
2.25926e-06
1.6191e-07
0.00149135
-2.1677e-08
0.0107205
-8.64633e-07
-5.62426e-07
6.73679e-08
1.50576e-07
0.000155398
-1.01195e-08
0.0028601
-4.43824e-09
-8.22666e-08
-1.11012e-07
0.00154595
4.52421e-07
-0.00469745
-1.35083e-06
3.54452e-07
5.14661e-07
-1.45125e-06
-8.02133e-08
-2.09689e-07
-0.00210326
3.35911e-08
1.28399e-07
-0.000835135
-0.00165434
-6.0352e-09
-1.06138e-07
-1.388e-06
2.7839e-06
1.4133e-06
-2.09123e-08
0.000115692
-5.81008e-07
2.46905e-06
6.30314e-05
-1.9767e-08
-1.16837e-07
-5.65544e-08
-7.59894e-08
-8.49874e-08
-1.51011e-08
-3.5321e-06
-0.00937559
-3.98279e-05
1.46331e-07
9.34617e-08
-1.47818e-08
0.00388157
2.50074e-06
-1.06921e-07
9.15688e-08
-3.6846e-07
-0.0111245
3.45549e-05
-1.71379e-05
-9.24046e-08
-4.22754e-05
-7.00685e-08
-8.65794e-08
5.50367e-07
-7.25592e-09
2.60992e-07
1.04469e-07
0.000103746
-0.000175046
-0.000548952
-4.50345e-09
-1.78825e-08
-6.62387e-08
3.26533e-07
-8.89218e-08
-3.60053e-07
9.13879e-07
1.14376e-07
-1.18352e-08
4.50709e-07
-1.42409e-07
1.12025e-07
0.00455375
-8.99308e-07
1.14075e-07
-7.50277e-08
3.19415e-05
-1.51773e-07
2.45294e-06
-1.90946e-07
-3.62677e-07
6.59375e-08
-3.41286e-07
1.21821e-07
3.24375e-07
3.62827e-06
2.69869e-06
-6.44481e-08
-2.11323e-08
-4.79474e-07
4.817e-07
4.49388e-07
2.63339e-06
1.14601e-07
0.0273023
-3.81253e-07
1.50288e-07
1.21188e-06
-3.17671e-06
1.40603e-07
0.0185624
5.51387e-08
1.11245e-07
5.15547e-08
0.01063
1.66577e-07
-0.000330502
0.00598547
3.43601e-07
1.50541e-07
-1.68463e-07
-1.07929e-07
-3.02125e-05
-2.7414e-07
1.20989e-07
0.00679139
-1.92355e-07
2.81032e-06
5.84445e-06
2.19656e-07
-8.94663e-06
2.84809e-07
-8.21105e-08
-9.40424e-08
1.51048e-07
-4.72051e-08
-1.05189e-07
0.00036432
1.53528e-06
1.48641e-09
-0.00695502
0.00404858
-2.90402e-08
-3.47623e-06
1.28281e-07
7.42329e-07
3.36777e-08
8.72457e-09
2.73499e-07
1.80846e-07
-2.34643e-08
4.58632e-07
9.59922e-07
-3.09627e-06
2.54653e-07
-5.28681e-08
3.64578e-07
-0.00492536
0.000148411
-5.44222e-07
-5.07281e-08
9.99643e-09
-1.19569e-07
-0.000395886
4.11585e-07
1.83928e-07
1.17853e-05
0.000742065
1.04437e-07
-4.05657e-07
2.01675e-07
1.51391e-07
1.3605e-06
-9.16511e-08
6.17445e-07
6.2803e-08
3.29884e-08
1.54625e-07
0.00606084
-0.000182623
1.31759e-07
6.83925e-08
-4.68707e-06
2.29275e-07
2.57097e-07
-7.00057e-08
9.27196e-08
4.46715e-08
-3.02035e-05
0.000107951
1.54915e-07
2.7005e-07
4.70965e-07
2.10845e-07
1.77528e-07
6.03707e-08
-1.32673e-07
1.42048e-07
-4.76908e-07
-9.97186e-07
-1.99696e-06
6.41332e-08
1.11908e-07
1.61021e-08
4.79966e-08
0.00446887
2.43763e-07
-1.54586e-07
8.66231e-08
8.07522e-06
7.42253e-06
1.09272e-07
-4.61261e-07
7.11287e-08
-0.00108552
4.08663e-07
6.95968e-06
9.33632e-08
-1.04615e-06
2.48197e-08
2.75613e-07
-9.6474e-05
5.08766e-08
-4.86299e-08
1.49249e-07
-3.77468e-07
1.53183e-07
3.09939e-07
8.02986e-05
6.21844e-07
6.73984e-08
-0.00220419
2.46386e-07
4.5449e-07
7.8151e-08
4.38689e-07
-7.07167e-07
2.36624e-07
0.00595821
-7.87988e-08
-1.44393e-08
6.76581e-08
-0.00310607
3.28199e-07
9.02143e-05
2.09661e-07
5.65825e-07
0.000416313
0.00280548
-7.51307e-05
5.41136e-08
2.68281e-07
-0.000685471
2.44796e-07
-0.000298197
5.08756e-07
-9.2285e-06
-9.42549e-08
-0.000813452
0.000191931
6.12953e-08
4.29013e-07
1.05256e-06
4.59771e-07
-5.43574e-07
-0.00208685
-4.4504e-08
-0.000451668
-3.31886e-08
-2.21394e-08
1.2163e-07
-5.24608e-07
1.34797e-07
-4.87337e-05
-4.82693e-09
2.73113e-08
3.41337e-08
2.34729e-07
-8.18545e-08
-0.000824998
-1.93895e-05
-0.00437993
2.37926e-07
-7.06853e-07
3.96837e-08
2.04563e-07
1.13447e-07
-6.66381e-06
-6.82568e-07
1.96551e-07
6.0135e-08
0.000220676
1.8099e-07
-0.00386664
0.00588858
3.5772e-07
6.68112e-08
5.94929e-09
2.95134e-06
-0.00340968
-5.46138e-07
-9.02949e-08
0.00201592
-3.50297e-05
-1.10152e-06
0.000690631
1.81974e-07
-3.05156e-07
1.98868e-08
-3.18971e-07
9.63808e-08
-0.00249664
0.00425868
-0.0202927
-3.61204e-07
4.2935e-05
8.60326e-08
2.33508e-07
1.36638e-08
-3.31599e-08
6.7272e-08
-1.81274e-06
-1.05358e-07
-1.88424e-07
-2.05987e-07
-5.0499e-08
5.74373e-08
-3.72319e-07
3.78691e-07
-0.00144625
-2.09771e-05
3.05557e-08
9.07606e-08
5.06653e-09
1.27355e-07
1.02163e-07
-0.000263958
-1.45129e-08
-2.45514e-08
8.68395e-08
-0.000266542
-2.1712e-07
3.91973e-07
0.000208335
-1.35109e-07
8.75461e-08
-0.00021792
-6.22879e-07
1.04923e-07
-3.36736e-07
0.0194202
-1.70926e-05
4.8052e-08
1.1893e-07
-0.0127074
-4.30731e-07
-4.33361e-08
1.00043e-07
-8.42909e-09
-7.35015e-06
-3.38586e-07
2.89027e-09
-7.64942e-07
-1.28648e-07
-0.000207362
1.73304e-06
4.25825e-07
2.5382e-07
-0.00130179
-3.93842e-07
2.67961e-07
-1.8785e-09
1.17218e-07
-1.31872e-07
9.2271e-08
-0.00212418
-4.99145e-08
-6.84143e-05
-1.35639e-07
-5.13223e-07
0.000390616
-2.72476e-07
0.0144475
-3.5651e-06
1.29974e-07
-0.000731446
-9.68386e-08
-3.63969e-07
-1.79759e-07
8.0609e-08
-8.98112e-08
-1.20087e-07
-2.21012e-07
-2.88153e-07
2.79572e-06
8.65088e-08
-7.43588e-08
7.04678e-08
-4.73838e-08
-1.48082e-07
-1.46324e-07
4.13004e-09
-3.47248e-08
-2.24299e-07
-1.98379e-07
2.3706e-07
-7.6557e-09
2.32863e-07
0.00915108
5.69685e-07
-6.96169e-08
-1.02392e-06
-0.000183728
-2.7492e-07
-8.3541e-06
2.75408e-08
-6.00437e-07
1.03986e-07
-2.61499e-07
0.00191626
-0.000484341
-1.75758e-07
5.20603e-07
-0.00233258
3.71245e-07
0.000307333
0.0220338
-2.36135e-07
0.00141798
2.15632e-08
-0.000599651
4.61351e-07
0.000343549
3.68365e-05
0.00245977
1.35493e-07
-1.22902e-07
-5.29229e-07
5.08887e-07
1.84256e-06
4.50314e-07
-0.00228543
0.000282142
-3.8068e-07
0.0287205
0.000848142
-2.83235e-06
8.15118e-08
2.96812e-07
8.50142e-07
-2.57749e-07
-3.63339e-07
1.22615e-06
7.55151e-08
-3.70597e-07
3.55754e-07
-1.80992e-07
2.15569e-07
7.25655e-06
-2.21304e-07
-4.12604e-07
-9.30451e-08
0.0339384
-3.86574e-08
1.55114e-07
0.0037212
1.58754e-05
7.41068e-05
-2.69491e-07
-1.68316e-07
-1.93148e-07
-3.89065e-07
2.21064e-07
2.90366e-07
0.00118677
2.23206e-07
-3.23268e-06
-3.32714e-07
-4.15146e-05
-4.88143e-06
-3.24542e-06
-0.0029322
0.000192181
-2.97631e-07
1.70212e-07
-1.07257e-08
0.00185762
-5.40825e-08
-9.46426e-08
-2.26789e-07
9.62196e-07
0.0106799
-0.00253587
2.54004e-07
-6.57186e-07
3.18783e-05
3.1709e-07
6.64522e-05
6.86657e-05
0.000359997
-5.92316e-07
8.58409e-05
0.000177263
-9.09464e-08
-9.85844e-08
-2.48587e-07
0.00441629
-5.45376e-07
3.18165e-05
3.70978e-08
-9.83439e-08
-6.52703e-07
0.0280614
-1.52406e-07
-6.23884e-07
-2.79322e-07
3.8768e-07
-4.81351e-08
-8.87393e-09
1.13883e-07
8.66515e-07
5.4273e-06
5.39541e-07
-7.3643e-07
2.01218e-07
3.95142e-05
-1.60878e-06
-4.01296e-07
-1.36832e-07
0.000205381
0.000787741
3.49124e-07
3.24594e-07
0.00794907
-4.9116e-07
-2.93381e-07
-8.33769e-08
-5.05831e-07
9.75995e-06
2.09624e-07
2.19766e-07
-1.52746e-08
5.30786e-07
-4.51059e-07
-1.89424e-07
-9.37417e-08
-1.77243e-07
-2.50396e-07
-0.00175407
1.36485e-07
8.97329e-08
-4.94615e-06
-4.33366e-06
1.77336e-06
-2.10764e-06
-1.33257e-07
-0.000591541
-2.94392e-07
2.36084e-06
-7.18578e-08
0.000873859
-3.8403e-07
-1.62337e-07
-3.24259e-08
0.000369263
3.83258e-07
-2.15595e-07
-1.18534e-05
-4.92001e-07
-7.67462e-08
-4.7725e-07
-5.49334e-07
2.49586e-07
-6.29113e-08
0.0168606
1.07234e-07
-0.000252334
5.33794e-05
-5.2376e-07
-4.23541e-07
1.039e-07
-2.52283e-07
-2.14599e-07
0.00768842
-6.86102e-06
7.23514e-06
1.20204e-05
9.42276e-07
3.04249e-08
1.20784e-05
2.60811e-08
-2.35884e-07
-1.92491e-07
0.0270591
0.00018831
1.30939e-07
-1.40871e-06
2.25193e-07
-2.75567e-07
0.00681533
-3.77824e-08
-2.41349e-07
-0.000917847
1.55285e-06
0.007018
-3.16681e-07
-3.00403e-07
5.05249e-05
-6.25747e-08
-3.45122e-07
-1.24177e-05
-6.07389e-07
9.85733e-05
-1.70674e-05
0.00367355
-1.0557e-07
4.44123e-07
4.93553e-08
-3.96384e-07
-1.82423e-06
-1.93758e-07
1.71276e-07
1.06474e-06
-7.65122e-08
5.47201e-06
-2.03319e-07
4.47406e-07
1.64534e-07
0.00176268
9.40261e-08
4.25357e-07
0.000946201
-0.000801244
-6.39923e-07
6.85981e-05
3.7762e-07
-2.76308e-07
-5.5002e-07
3.34835e-08
4.1566e-08
-4.97765e-07
3.42245e-05
-5.06236e-07
3.087e-07
2.18321e-07
-1.29217e-07
-2.27448e-07
-6.9306e-07
-3.21166e-07
-1.65709e-07
-2.55536e-07
1.77402e-07
-4.42696e-07
0.0215866
2.58976e-07
1.07004e-07
8.59215e-07
-3.72871e-08
-4.89235e-08
-0.00074668
-0.00225708
0.00759458
-3.8819e-06
-2.43884e-06
-1.36254e-07
4.64187e-07
2.05371e-05
0.000406196
0.000666943
-0.00249237
0.000440967
1.19578e-07
0.000137091
0.0123756
2.21786e-07
1.51771e-05
2.38982e-07
0.00224822
6.61443e-06
0.00799569
4.3687e-07
7.56045e-08
-5.83586e-07
-5.31701e-07
-6.84907e-07
-0.000179023
4.86779e-05
1.10802e-07
-1.13139e-07
-2.53555e-07
0.0116256
-3.38803e-07
-2.45758e-07
-2.36702e-07
1.352e-07
-2.98737e-07
6.49101e-06
6.51066e-08
-6.39473e-08
-6.67183e-07
1.23829e-06
5.76909e-06
0.000466134
-3.27914e-07
-3.92155e-07
3.90244e-07
-1.69969e-07
-1.37448e-07
-2.60511e-08
-5.37263e-06
-4.86474e-07
3.58813e-07
-7.94735e-09
-6.13503e-07
7.89926e-08
-2.39187e-07
0.0215171
1.34035e-06
-9.45297e-08
-5.97874e-07
0.00121349
-0.000826413
6.70305e-07
0.00483093
-2.77343e-07
7.28987e-07
-2.34584e-07
-1.32682e-07
-3.11068e-07
-9.69466e-08
-1.83831e-07
-7.32834e-08
4.71529e-07
1.95537e-06
-3.21367e-07
0.00537191
0.00129946
-4.5517e-07
-6.30157e-06
4.52059e-07
3.24084e-07
-2.86558e-08
-3.04886e-07
5.84258e-07
6.33701e-09
-0.00123962
-2.23131e-07
-1.44229e-07
3.56684e-06
-2.59016e-07
1.02843e-07
8.52892e-08
0.00539949
-1.75051e-07
-9.06785e-08
0.000250098
-1.49811e-07
-8.83719e-08
-3.11311e-07
4.35854e-05
-1.02542e-07
1.33259e-08
-2.45867e-07
-4.21125e-07
5.32091e-06
9.0894e-05
-2.85523e-07
-0.000507947
-1.70086e-07
-1.56204e-07
2.7702e-07
-0.00228607
-0.0100853
3.69264e-08
-7.35861e-07
1.84262e-07
-2.47634e-07
-3.39322e-07
-5.95758e-08
0.00120092
-0.00148639
-3.84231e-07
2.37805e-07
-1.23754e-05
7.37079e-08
-2.11523e-07
3.10383e-07
6.75535e-07
7.43597e-05
-3.57219e-07
6.98998e-07
-0.000224904
-3.33148e-07
3.92597e-07
0.00576921
4.96006e-07
3.18506e-08
-9.47594e-08
-3.71632e-07
-3.58909e-07
-7.97094e-08
6.3872e-05
-2.40646e-07
0.000460182
0.00380584
2.1843e-08
9.2284e-08
-0.000294516
2.68641e-07
-2.34221e-06
-0.00254208
3.31555e-05
8.51451e-07
-1.11616e-07
-5.67374e-08
7.1241e-05
-1.09281e-07
1.87161e-05
-9.13685e-08
8.06073e-08
-2.52108e-08
-3.11826e-08
-2.92318e-07
-0.00505419
2.59733e-07
0.00723351
-0.000965904
-3.32053e-06
0.0198187
-1.46041e-07
1.40678e-07
-8.15971e-08
0.0052043
-8.0267e-08
0.00182855
-2.2876e-05
6.83896e-08
-1.48395e-07
0.000331207
-5.79177e-08
-8.68078e-06
0.000108834
-2.95199e-07
-0.000924543
2.0284e-07
6.73632e-05
-8.38732e-06
-7.58148e-08
-8.64705e-08
-3.14253e-05
-8.93059e-07
-6.32304e-07
1.81254e-07
-2.98026e-08
1.48444e-06
-6.29244e-08
-0.00107109
1.18321e-09
-2.0154e-07
2.81252e-07
-5.27283e-08
-0.00077503
-2.99267e-08
-7.77569e-08
-2.38549e-07
3.78921e-05
-8.25281e-08
-3.09832e-08
0.00104641
6.21559e-07
-0.00199894
-5.27583e-07
-7.88349e-08
-3.76368e-06
-0.00142983
0.000596285
0.00221023
2.40301e-07
-2.21176e-07
1.63791e-07
1.75547e-09
6.09424e-08
1.35873e-07
-1.74004e-07
3.09091e-08
-1.04208e-05
5.15757e-09
-7.8435e-08
-1.46657e-08
1.26271e-07
-9.5483e-08
6.1524e-07
-3.47382e-06
-8.47415e-06
-0.00576958
-7.60628e-06
2.1358e-06
0.000163214
-1.16338e-07
-1.64035e-07
3.34273e-07
4.80034e-07
3.53101e-08
-7.57508e-07
-1.11957e-07
8.37002e-10
-2.09283e-07
-1.04996e-06
-3.44555e-07
-9.65175e-06
-1.81613e-07
2.49403e-07
2.2081e-05
2.16399e-07
-3.01615e-07
1.99284e-07
2.60204e-10
1.89073e-05
-7.63486e-05
1.24776e-07
-3.30119e-08
5.1425e-07
-8.11346e-08
-9.10084e-08
-1.80367e-07
-1.25766e-05
1.40255e-07
-4.29642e-08
0.00013043
-2.54805e-08
-1.49721e-06
3.62313e-07
-2.65749e-07
-6.96446e-08
0.0001221
1.1309e-06
0.000578496
-0.010172
1.75726e-07
-1.75137e-08
8.85845e-08
-4.36063e-07
7.49568e-07
5.62431e-08
0.00971544
0.00304695
5.10601e-07
3.46599e-07
0.00128867
1.29429e-07
0.00734805
9.74623e-07
0.00424031
-1.99564e-07
-6.49571e-08
-2.08154e-08
9.42201e-08
-1.50669e-07
-3.28816e-06
0.000986557
2.84324e-06
-4.75317e-07
2.0909e-07
-5.32879e-08
-8.84471e-06
-1.60759e-06
8.96354e-05
-3.88479e-08
2.41175e-07
5.42164e-06
1.43188e-08
0.00100583
3.77494e-06
-4.27e-08
-1.79123e-07
-1.03299e-07
-4.82351e-07
-0.000995575
-1.16456e-06
-4.72106e-08
-2.54741e-07
-1.22492e-07
-0.000468523
-9.0004e-09
-8.4653e-08
-0.000313938
2.71518e-06
2.07052e-05
-7.26889e-07
-1.90648e-06
-1.58801e-07
2.54989e-07
-4.88684e-08
-2.77291e-07
-8.27224e-08
-0.000298978
-4.05947e-09
-3.26364e-07
-1.08098e-05
-6.95176e-07
-8.51989e-07
-0.000810951
-5.17191e-07
-8.08737e-08
-3.49837e-05
-0.00117341
9.46166e-08
-5.35256e-08
6.98101e-07
-0.00246304
3.87318e-05
0.020246
2.87583e-05
3.70449e-06
7.78876e-08
7.13111e-06
4.86915e-06
-1.33016e-05
-0.00111174
1.40946e-05
4.561e-05
-0.000614734
0.0462395
-7.23748e-08
-1.38112e-07
-1.38197e-07
-5.06039e-07
2.75301e-05
-1.69409e-07
5.28872e-07
-1.97995e-07
3.67214e-07
-7.4373e-07
-0.00514224
-2.2506e-07
0.000439023
-1.17053e-06
3.63755e-05
9.89054e-06
1.01517e-05
0.000655188
-6.11601e-08
-2.88065e-08
-3.09756e-07
0.000459273
-7.44753e-07
1.0211e-06
-0.000580733
2.3353e-05
-0.00874546
-6.06659e-08
0.00525106
2.83675e-07
1.35429e-05
1.12427e-07
5.28994e-05
-6.57432e-07
1.89349e-08
-2.07559e-07
-0.000305486
1.12223e-07
-0.000182034
-0.000688884
-8.40365e-07
0.000132944
-2.5152e-07
1.03399e-07
-0.00510496
1.79169e-05
-0.000540868
0.00283558
2.54428e-07
-0.000204131
-0.00423772
5.11207e-07
-1.34244e-07
9.60421e-05
-0.000570484
-7.48513e-08
-1.40832e-07
-5.56039e-08
0.000613716
0.00128877
7.36548e-05
-2.23679e-06
-7.73078e-08
-1.61546e-07
1.00306e-07
-6.2791e-08
-1.14503e-05
2.43848e-07
8.95929e-08
2.05426e-07