/*--------------------------------*- C++ -*----------------------------------*\
| =========                 |                                                 |
| \\      /  F ield         | OpenFOAM: The Open Source CFD Toolbox           |
|  \\    /   O peration     | Version:  v2012                                 |
|   \\  /    A nd           | Website:  www.openfoam.com                      |
|    \\/     M anipulation  |                                                 |
\*---------------------------------------------------------------------------*/
FoamFile
{
    version     2.0;
    format      ascii;
    class       volVectorField;
    location    "300";
    object      ddtCorrDdt0(U);
}
// * * * * * * * * * * * * * * * * * * * * * * * * * * * * * * * * * * * * * //

dimensions      [0 1 -2 0 0 0 0];


internalField   nonuniform List<vector> 
9793
(
(0.042572 -0.00367072 7.49931e-19)
(0.0243419 -0.0148013 8.57752e-21)
(0.0431575 -0.0068 -8.81305e-19)
(0.000138257 8.43635e-07 -8.35634e-20)
(0.122021 -0.00153378 -2.21157e-18)
(-0.00714351 -0.000955849 -1.26076e-19)
(3.42046e-05 -2.28514e-05 -5.80546e-19)
(0.000144175 -0.000519823 -1.14221e-18)
(0.000595585 0.000930026 1.48927e-18)
(0.138229 -0.027146 1.24801e-17)
(0.000550378 0.0308382 7.90085e-18)
(-0.0532821 -0.0159883 -2.91233e-20)
(0.000137889 4.56246e-07 4.82301e-20)
(0.00196289 -0.000121793 6.9264e-19)
(-6.99448e-07 -1.01129e-07 -4.33199e-19)
(0.00164448 -0.000621124 -9.16339e-19)
(0.00513749 0.00136217 2.9482e-19)
(0.00607858 0.00133309 6.79569e-19)
(0.0583681 -0.0338676 -1.16713e-19)
(0.00197954 -0.000509146 2.29488e-19)
(-0.000126602 -0.0618749 2.04033e-18)
(0.00567256 -0.00323576 6.88204e-19)
(-0.0299459 -0.0168231 -5.08395e-19)
(0.000550347 -0.000880442 1.06603e-20)
(0.00569666 0.00231805 9.36593e-19)
(0.000140051 4.52197e-06 -3.80531e-20)
(0.00158996 -0.00164395 7.32019e-19)
(0.0022276 0.00239784 7.35319e-19)
(0.0178372 0.0190118 -4.38763e-19)
(0.00062125 0.000874739 -1.49005e-18)
(-0.0279168 0.00853015 1.62155e-19)
(-0.0269017 -0.0144404 8.94858e-21)
(-0.00481075 0.155585 2.54565e-18)
(2.86024e-05 -1.16336e-05 1.23233e-19)
(0.0221351 0.0189174 2.85736e-19)
(0.0336465 -0.0886103 -1.24617e-18)
(3.84732e-05 -1.58273e-05 3.03555e-20)
(0.00532035 -0.00376102 5.97711e-20)
(0.000240494 -0.00108508 -5.27001e-19)
(0.000123309 2.21795e-05 4.5678e-19)
(-0.0257833 0.0107983 -4.37926e-19)
(4.79972e-06 1.46297e-06 5.73881e-19)
(0.000147445 4.9741e-06 -1.37329e-19)
(1.30325e-05 -2.16648e-05 1.49763e-19)
(0.000150926 5.4126e-07 1.14585e-19)
(0.000142419 1.58631e-06 1.80057e-20)
(0.0194747 0.0203606 -5.93301e-18)
(-0.0143598 0.0401076 -3.30283e-19)
(-0.0168823 0.0889914 8.11565e-20)
(0.000137244 4.63401e-06 6.84707e-20)
(0.023964 0.0199558 -3.97098e-18)
(0.00607499 0.0333971 -8.66061e-18)
(-0.00665838 -0.00377376 3.72529e-19)
(0.00154278 0.000473472 -9.49085e-19)
(0.0507925 0.0522928 -2.05191e-18)
(-0.0886603 -0.0424248 1.98987e-19)
(0.000211267 0.000266923 1.96546e-19)
(-0.0193488 0.0413553 -4.97576e-18)
(-0.0465404 0.274903 -3.763e-18)
(0.000162627 -0.000983856 5.00291e-19)
(0.000120723 3.41362e-06 -1.50046e-19)
(-0.00461352 -0.0055583 -4.25576e-19)
(-0.0935595 0.192785 -2.15178e-18)
(0.000178822 -1.14978e-06 3.00411e-21)
(-0.189932 0.306634 3.08341e-19)
(-0.01826 0.115694 -7.73721e-18)
(-0.0908294 0.200793 4.51622e-18)
(-0.0667921 0.166373 -9.52715e-21)
(-0.0630243 -0.0079283 -2.40634e-19)
(0.00253924 0.0294617 -5.89847e-18)
(0.0532129 0.0472501 -4.27678e-18)
(9.09022e-05 -3.34973e-05 -9.97548e-21)
(-0.000347933 3.4571e-05 1.93812e-19)
(0.0317036 -0.0143901 2.01196e-20)
(0.0272669 0.0197359 7.27503e-19)
(-0.0484878 0.281175 1.5225e-18)
(0.000269494 0.000292311 -2.28556e-19)
(0.00356955 -0.00309599 1.37931e-19)
(-0.00357305 0.00539473 5.39009e-21)
(0.0014681 0.00365897 6.97533e-19)
(-0.0286499 0.104865 -1.4543e-18)
(-0.00554476 0.00300824 2.34837e-19)
(0.00756046 -0.022963 -2.22344e-19)
(-0.0178332 0.0145995 -2.85755e-19)
(-0.022202 0.00807471 1.39834e-18)
(-0.0181249 0.0301016 -1.22864e-19)
(0.00198358 0.0041831 -8.84866e-21)
(0.000302212 0.000322639 -3.89656e-19)
(-0.00381435 -0.00422434 3.22033e-19)
(-0.00704736 0.000649131 1.52437e-19)
(0.0247841 -0.0107911 -1.71708e-19)
(0.00278408 0.131244 -2.30633e-17)
(-0.000722917 -0.000907175 -8.17734e-19)
(-0.0284248 -0.00940762 2.83586e-19)
(-0.00392076 -0.00506073 -3.16337e-19)
(-0.0187163 0.0112427 -5.41515e-20)
(-0.0751628 -0.0707344 -6.56802e-19)
(0.0133023 -0.0170652 7.33895e-20)
(-0.000557688 -0.000826858 6.9605e-19)
(-0.000462379 -8.41063e-05 5.36859e-20)
(-0.000417778 -2.67044e-05 2.09049e-19)
(-0.00489961 -0.00307745 1.50104e-18)
(0.00072718 -0.000320586 2.95866e-19)
(0.000668599 -0.000225748 -1.96519e-19)
(0.00354118 -0.00249988 -1.31017e-19)
(-0.0199192 0.00928391 -1.65729e-18)
(-0.00318071 -0.00397458 -1.43665e-20)
(4.29548e-05 1.90504e-05 2.12694e-19)
(-0.00571079 -0.0034348 -1.04865e-18)
(0.00588468 0.0584048 -2.79245e-19)
(8.70397e-05 -2.47032e-05 2.67459e-20)
(-0.0283324 -0.0479299 1.18411e-18)
(0.000153452 0.000185613 -8.05868e-20)
(-0.114617 -0.167789 -3.37155e-19)
(0.0089709 0.033336 1.17555e-17)
(0.000243031 0.000300343 1.2259e-19)
(0.0183676 0.140266 9.15831e-18)
(0.0284518 0.017378 2.5955e-18)
(-0.00628319 0.00390737 -4.31806e-19)
(-0.0261838 -0.00701279 -4.34883e-19)
(0.00065178 0.0615779 -5.48854e-19)
(2.79212e-05 -5.01444e-06 -1.67611e-21)
(0.000425322 8.92306e-05 6.28844e-20)
(-0.008158 -0.000603607 -1.60228e-18)
(0.00268186 0.0010264 2.12463e-18)
(-0.00437478 -0.0585789 -1.05021e-18)
(-0.00697353 0.0160393 7.54015e-18)
(-0.0208738 0.0257591 -5.88212e-20)
(-0.00392512 0.0065996 -1.05531e-18)
(-3.38072e-05 -0.000178354 3.52057e-20)
(0.000105278 -1.11373e-05 8.29389e-20)
(0.000292683 0.000331467 8.78951e-19)
(-6.52389e-05 -0.000192253 3.51704e-20)
(-0.0021683 -0.00550188 5.00232e-19)
(0.000547864 0.000788534 -1.76035e-20)
(0.000407949 0.000329756 -8.12771e-19)
(0.000178876 -1.53206e-06 -4.91321e-20)
(-1.89299e-07 -2.07319e-05 -1.96949e-19)
(0.000150097 0.000170233 -9.17113e-19)
(-9.18652e-05 4.21248e-05 -3.82257e-19)
(0.00039214 7.51436e-05 -7.86568e-20)
(0.00558365 0.001041 1.83438e-18)
(0.000156079 -9.72658e-06 2.41011e-19)
(-0.000339951 0.000385293 5.86691e-19)
(0.00229362 0.000109006 -5.1538e-19)
(0.00329235 0.000278355 7.14396e-19)
(0.0347585 -0.0136503 -5.99444e-20)
(-0.000423385 0.000329527 5.47732e-19)
(-0.000152102 -0.000849666 9.8408e-19)
(-0.08928 0.185088 2.11355e-17)
(0.0638778 -0.0412904 -8.50315e-19)
(0.000108852 -6.72494e-06 -4.64385e-21)
(0.0690979 -0.0405496 4.30052e-19)
(0.12242 -0.0288293 -6.15822e-18)
(-6.63264e-05 -0.000745767 -8.57841e-20)
(6.08873e-05 -5.55075e-06 4.66434e-20)
(-2.24009e-05 3.56157e-05 -2.90342e-19)
(0.00510654 0.000649506 -2.0006e-18)
(-0.000411073 0.000163193 6.60799e-20)
(0.000151266 -1.14345e-05 -5.80022e-20)
(0.000116906 -0.000601657 -1.06643e-18)
(0.00252091 0.00205425 -7.62894e-19)
(0.000517395 -0.00135074 -2.22391e-19)
(0.0565639 -0.0445472 6.81227e-19)
(0.0364545 -0.0123809 1.85162e-19)
(0.0166381 -0.0661457 -1.24439e-18)
(-0.0187492 0.0361337 1.72899e-19)
(0.0113831 0.00267627 5.61521e-20)
(0.00119626 -0.00157352 3.02601e-19)
(-0.00318274 -0.00213352 1.10498e-18)
(3.21625e-05 0.00179222 1.27631e-19)
(-0.0256479 -0.128071 -2.01649e-20)
(0.0379902 -0.0115796 3.46243e-20)
(-0.0248252 -0.165222 2.12172e-19)
(0.00229594 0.00117318 -1.11392e-18)
(0.0568428 -0.0359017 -1.01315e-19)
(0.000368903 0.000337363 2.33022e-21)
(0.000662774 -0.000466623 -3.38925e-20)
(-0.000208183 -0.000245302 -4.36957e-20)
(0.006516 0.0105095 -1.00822e-17)
(-0.146551 -0.019934 -2.28276e-18)
(0.00119068 0.00320137 1.96465e-18)
(-0.000480828 9.93618e-05 -6.6391e-20)
(0.00528692 0.00178321 -1.22833e-18)
(-0.0172764 0.271645 -9.61269e-18)
(-0.000280375 5.43694e-05 -3.09052e-19)
(-0.0225181 0.0445789 -3.4519e-18)
(-0.000226151 -0.000213823 1.41419e-19)
(0.000399631 -2.13119e-05 -2.10037e-19)
(0.000743068 -0.00115125 -1.42567e-20)
(0.00220163 0.00133695 9.38433e-19)
(0.000121246 8.0727e-05 3.34729e-20)
(0.00935012 0.0770296 -5.07178e-20)
(-0.0209232 -0.0535988 4.18779e-19)
(-0.0932675 0.17831 -1.62943e-19)
(0.00604987 0.00998075 -2.76653e-18)
(0.0526645 -0.012535 4.50858e-19)
(-0.00350589 -0.000207405 6.80464e-19)
(0.114248 -0.0347802 1.21444e-18)
(-8.385e-05 4.02601e-05 1.13114e-19)
(0.000564912 0.000738856 -2.08875e-19)
(0.052936 -0.0527737 -1.34297e-18)
(-0.104899 -0.0603255 -2.23554e-20)
(2.62217e-05 -0.000166947 -3.46536e-20)
(0.000453393 0.000358611 6.64283e-19)
(0.00276559 -0.00239221 -7.48967e-20)
(0.0212316 -0.0770828 9.43037e-19)
(0.000812263 0.000423205 5.0452e-19)
(-0.0170473 0.00694534 3.48608e-19)
(0.00387744 0.00229175 -5.58051e-18)
(0.0118519 0.0113272 1.67205e-18)
(0.0315632 0.055083 -8.88546e-19)
(-0.0571723 0.111472 -2.12971e-18)
(0.00163317 0.000569808 3.90086e-19)
(0.0553144 -0.0146163 3.22236e-19)
(-1.08122e-05 3.81693e-05 3.57939e-19)
(-0.00243196 -0.00339063 1.15524e-18)
(-0.0093951 0.232946 1.16563e-17)
(0.00269329 -0.00194172 8.63616e-20)
(-0.0622834 0.0351984 9.826e-19)
(0.0379547 0.0117746 -2.76974e-18)
(0.000394734 0.000214595 -6.78798e-19)
(0.00257825 0.00123378 3.19778e-19)
(0.000120174 6.65285e-05 -4.57639e-20)
(-0.0203895 0.0174969 -3.0333e-20)
(0.0564863 -0.0458814 1.02393e-19)
(-0.00687918 -0.00191807 -3.18686e-19)
(0.000120128 -0.000645313 -3.24094e-19)
(0.0367547 0.0148116 1.5342e-18)
(0.00530568 0.0258056 4.48022e-19)
(0.000811448 -0.000915008 -4.6773e-22)
(0.000652258 -0.000688285 -1.802e-20)
(0.00107436 0.0033971 -3.94541e-18)
(-6.44055e-05 3.93537e-05 1.02218e-19)
(-0.0053644 0.0210312 -3.76617e-18)
(-0.0791405 0.0601885 1.78557e-18)
(0.000163797 0.000162292 2.66868e-19)
(0.000238229 0.00123338 -5.9739e-19)
(-0.0611882 -0.0568201 -2.2018e-18)
(-0.00512565 -0.000921204 1.47332e-18)
(-0.0151337 0.00785328 1.00518e-19)
(0.00175246 0.000520088 7.14144e-19)
(0.000694401 0.00107226 -7.65689e-19)
(-0.0126104 0.138581 -7.9205e-18)
(0.00024166 0.000932402 5.39613e-20)
(-0.000301977 -0.000807305 -1.4024e-19)
(9.37574e-05 -0.000476727 1.32662e-18)
(0.00518995 -8.70957e-05 -1.81042e-19)
(-0.000421595 -0.000906198 -4.39796e-19)
(3.48702e-05 -1.56672e-05 -1.67767e-19)
(0.0016039 -0.00146419 -5.90383e-19)
(0.00578732 0.00524522 -3.54918e-18)
(0.0102767 0.0306486 -4.87549e-18)
(-0.00637241 0.0184355 1.89323e-18)
(0.000620118 0.000696099 1.71048e-18)
(0.00515636 -0.00653014 2.39489e-19)
(-0.000298888 0.00138734 -9.44946e-19)
(0.00632605 0.00555961 1.80466e-18)
(-0.0066797 0.00444586 -1.85818e-19)
(0.000497515 0.000459236 -1.51312e-19)
(-0.0120004 0.117676 -4.64083e-18)
(0.000151096 0.00104257 -2.03022e-19)
(0.0130929 0.0301899 -5.55218e-19)
(-8.76086e-05 -7.27817e-06 1.39826e-19)
(0.0119493 0.00341891 1.1385e-18)
(0.00154481 -0.00151475 1.51982e-20)
(0.00154351 -0.00125736 -3.87163e-20)
(0.0129332 0.0105646 4.47532e-18)
(0.0597216 -0.0494137 1.23336e-18)
(-0.00297723 -0.00310862 -7.9507e-20)
(0.000397238 0.000541407 -3.69816e-19)
(8.79418e-05 -0.000454403 -2.75074e-19)
(0.0117165 -0.00616055 -7.63032e-19)
(0.000391303 0.000257451 -2.6053e-19)
(0.0336341 -0.0109495 -8.99375e-21)
(0.0345452 -0.0113398 1.01944e-20)
(-1.25965e-06 -0.000186663 2.61733e-20)
(-0.0154979 -0.0650632 -2.22527e-18)
(0.000126705 2.87415e-05 -2.99657e-21)
(-0.00747386 0.0172792 -4.81799e-18)
(0.00469612 -0.000390997 5.39244e-19)
(0.00118093 -0.000903387 3.21673e-20)
(1.12974e-05 8.83247e-06 4.12321e-19)
(0.000130376 1.826e-05 6.54379e-19)
(-0.00756242 0.0149251 -4.9427e-18)
(0.000402531 0.000199506 3.61386e-19)
(0.00143491 -0.00162154 -3.56546e-19)
(0.00978577 0.00443023 5.5404e-20)
(6.49761e-05 -4.20673e-05 6.74522e-19)
(0.000481879 0.000338686 1.11889e-18)
(0.000168132 0.000172587 -3.98143e-19)
(0.00990057 0.1464 6.57154e-18)
(-0.0046158 -0.00245873 2.5391e-19)
(2.94755e-05 -1.29607e-05 3.6739e-19)
(0.000112597 -2.55761e-06 3.26774e-21)
(-0.00299872 -0.00530046 -2.22102e-19)
(0.00348312 0.000443042 -7.30711e-19)
(0.0104594 0.00465643 6.70714e-19)
(0.000177441 2.82618e-05 -6.3314e-20)
(0.120598 0.0176821 -1.02962e-19)
(7.42618e-05 -0.000749175 -1.96009e-19)
(-0.0359092 -0.00570352 -1.80518e-18)
(0.0211222 0.150762 -2.34757e-18)
(4.50812e-05 1.13743e-05 -1.11325e-19)
(-3.48716e-05 -8.27112e-07 6.66842e-19)
(-2.49918e-05 0.000573134 2.16327e-18)
(0.0126123 -0.00678269 7.00737e-19)
(0.00931017 7.53069e-05 -5.10332e-19)
(0.0041373 -0.00119028 6.04393e-19)
(-0.0352303 0.00638905 5.2035e-19)
(0.000108607 1.53369e-05 -5.06003e-20)
(6.76546e-05 0.000534079 -1.5167e-18)
(0.00966193 -0.000399274 4.09165e-19)
(0.000968496 -0.00264281 2.08198e-21)
(0.00126293 -0.000579635 -1.81993e-18)
(-0.00607143 0.000259431 3.8387e-19)
(-0.018885 0.0215029 2.30504e-19)
(0.00177661 0.000780702 9.65857e-19)
(0.0110328 -0.00420298 -3.91079e-19)
(0.00389543 0.00262204 2.93086e-18)
(0.00117475 0.000413526 -5.58654e-19)
(0.0347756 -0.0139485 -2.64443e-19)
(0.0549735 -0.0245889 -1.86302e-19)
(0.0285947 -0.0152708 -1.89536e-19)
(0.00217009 -0.00172292 -2.40535e-20)
(-0.164231 -0.00671456 -5.27436e-18)
(0.00390265 8.28741e-06 -7.78656e-19)
(-0.0514877 0.240101 -5.52288e-18)
(0.0316657 0.0176531 -9.95093e-19)
(9.27781e-05 -0.000903091 -8.70362e-19)
(-5.32216e-05 0.00478024 -2.64554e-18)
(0.0327978 0.0151276 -1.98467e-18)
(-0.00410035 -0.00287011 -3.15509e-18)
(-0.0131401 0.0059375 -2.14399e-18)
(0.00188785 0.0355722 -9.63406e-18)
(-1.11399e-05 -0.000432821 7.95192e-19)
(0.000150181 5.06454e-06 -6.72942e-19)
(0.000523879 0.000679906 -1.01452e-18)
(-2.88732e-05 -2.57684e-05 2.80942e-19)
(0.00222594 0.00285961 -5.45095e-19)
(0.0498202 -0.00622815 1.51466e-18)
(-0.000297335 -0.000205874 -4.77147e-20)
(0.00102171 0.000400299 8.50928e-19)
(0.116322 -0.004356 -5.36066e-18)
(-0.00488353 -0.00164878 -2.70644e-19)
(0.00153536 -0.000929219 1.25851e-18)
(0.00187116 -0.00180884 3.19625e-20)
(0.00412901 -0.00199053 1.33991e-19)
(1.30984e-05 -0.000490495 1.63024e-19)
(0.0531413 -0.00774767 -2.48242e-18)
(0.00308225 0.000790955 -1.5106e-18)
(0.000640769 3.40765e-05 1.63101e-19)
(0.000613868 -0.00201425 -2.33236e-19)
(-0.00534787 -0.00238438 5.18854e-19)
(-0.0694482 -0.0323293 -2.15873e-18)
(0.00138771 0.000487121 1.46853e-18)
(-0.000617801 -0.0227753 -6.91321e-19)
(0.000740103 -0.000582477 7.83391e-20)
(0.00901716 0.018547 3.36742e-18)
(0.064443 0.0478441 2.81438e-18)
(-0.0191013 0.0481987 9.71659e-18)
(0.00944785 0.0194494 -5.43798e-19)
(0.00372632 -0.0021086 -7.8767e-19)
(-0.00246173 -0.00725908 1.82921e-19)
(0.0555201 -0.0184349 8.72308e-19)
(0.000117003 5.35088e-06 2.43283e-19)
(-0.0195718 0.110219 5.52607e-18)
(-0.00526161 0.000731077 -1.30907e-18)
(-5.89682e-05 3.82143e-05 6.27312e-20)
(0.026743 0.135252 8.88848e-19)
(-0.0115911 0.00654329 1.72223e-18)
(0.0570596 -0.0258079 1.56263e-19)
(0.000639595 6.26259e-05 -2.499e-19)
(-0.00568692 0.0226055 1.0597e-17)
(0.0486457 -0.0797641 -7.10439e-18)
(0.00346581 0.00848875 7.53977e-19)
(-0.000171178 3.15846e-05 2.70331e-19)
(0.00682377 0.15662 -7.08619e-18)
(0.00338018 0.0087078 8.73457e-18)
(0.0344518 -0.0120051 6.77612e-20)
(0.00570562 -0.00590052 5.05653e-19)
(0.00119038 0.00057654 1.83308e-18)
(0.0191682 0.0173395 4.22677e-19)
(0.000177223 1.84889e-05 -3.99884e-20)
(0.00430304 -0.000550373 1.62519e-19)
(-8.1271e-05 6.71127e-07 8.44938e-19)
(0.000110177 1.64092e-05 1.25017e-19)
(0.00182462 -0.00128265 -7.65346e-19)
(0.00133041 0.00059856 1.51399e-20)
(0.0052954 -0.00504624 -3.36203e-19)
(-0.0616615 -0.0432163 5.444e-18)
(0.00180977 0.00114886 1.18881e-18)
(-0.16363 0.0956377 -9.81199e-18)
(-0.0383524 0.000709071 -8.92881e-20)
(0.0539685 -0.0207074 -5.57549e-20)
(0.00325283 0.0254797 3.62082e-18)
(0.0220833 -0.0157314 1.27336e-20)
(0.000125233 -1.42813e-05 -3.75966e-20)
(0.000476142 0.000650953 8.04557e-19)
(0.0720443 0.0043171 3.17645e-18)
(-0.039588 0.00673321 2.24717e-19)
(0.00160294 0.000802105 1.20385e-19)
(0.00081094 0.00185634 1.98216e-18)
(0.116786 -0.0880824 3.27484e-18)
(-1.55263e-05 -0.000505033 2.9123e-19)
(-0.097198 -0.238798 6.19663e-19)
(0.000127762 0.00136173 1.70586e-19)
(0.00572257 -0.00447598 1.35957e-18)
(-9.64707e-05 -0.000442146 3.00431e-19)
(0.0154688 0.0103036 -3.73858e-18)
(-0.000304039 -0.000165978 -6.75333e-20)
(0.00368852 0.00932983 5.71693e-18)
(-0.00403752 -0.0684353 -1.06364e-19)
(0.000707419 0.000552679 6.90757e-19)
(-0.0295913 -0.0231863 3.97715e-19)
(0.0102552 -0.00597512 -2.78031e-19)
(0.00340617 0.000761961 1.42064e-18)
(0.0109144 -0.00462135 4.33281e-20)
(-0.00461497 0.000332562 -6.98328e-20)
(-0.00281531 -0.00355722 2.63689e-19)
(0.00310443 0.000847006 7.51916e-20)
(0.0420223 -0.041763 -1.16595e-18)
(0.000128158 3.08797e-05 1.12081e-19)
(0.00134056 -0.000663326 -6.70404e-19)
(0.00448816 0.0358221 1.27156e-17)
(0.00100539 0.000632975 1.15458e-18)
(-0.00607897 0.00548166 6.00577e-19)
(0.00384826 0.000370586 2.6422e-18)
(0.000280631 -0.0012427 5.49817e-19)
(0.00754015 0.0109664 -2.08424e-18)
(0.000143533 -2.5017e-05 -3.09587e-19)
(0.00126357 -0.000855 3.34967e-19)
(-0.000374461 -0.000291443 -6.80218e-19)
(-0.0109969 -0.0683819 -3.93685e-20)
(0.00283023 -5.36989e-05 -1.7328e-19)
(-0.00417042 -0.0739679 -5.07811e-21)
(-0.00283886 -0.00254322 -6.47332e-19)
(0.0585489 0.0355039 1.20831e-18)
(0.000160216 1.25864e-06 6.65549e-19)
(-0.00381584 -0.00223287 1.52248e-18)
(-1.61793e-05 -8.16404e-06 7.08208e-20)
(0.00184805 0.00101843 -3.0053e-18)
(-0.0373063 0.286451 1.22474e-17)
(-0.00349827 0.000337982 -1.66086e-18)
(0.0654962 0.0417983 3.27332e-18)
(0.00103074 -0.00120295 -7.58623e-19)
(9.08505e-05 0.00198754 2.16638e-19)
(0.00429398 -0.000114952 4.39484e-19)
(0.0894738 -0.146519 -7.20378e-19)
(-0.0309326 0.00933203 -2.97475e-19)
(0.0559595 0.0637962 2.686e-18)
(0.0443585 0.0435646 4.78599e-19)
(-0.00733841 -0.00284137 6.84751e-19)
(0.000218575 7.18465e-05 8.92841e-20)
(-0.00115929 -0.0294153 -1.53428e-18)
(0.0083888 0.0104101 -9.60933e-19)
(0.0149556 0.00886614 1.86271e-18)
(0.0190281 -0.0200488 2.3106e-20)
(0.0519756 -0.0185925 2.50061e-18)
(0.000110195 1.51331e-05 1.69086e-19)
(0.00861126 -0.00393185 4.47934e-19)
(-0.00396222 0.0237934 7.09459e-18)
(0.000459058 6.9392e-05 -3.69162e-19)
(-0.00689421 0.00173727 -1.06484e-18)
(0.000412311 1.80224e-05 -1.23626e-19)
(0.000641042 -0.000438329 6.02747e-19)
(0.000106096 2.08498e-06 -3.59775e-19)
(-0.102819 -0.0301476 -1.16714e-18)
(0.00454384 0.00931604 3.23596e-18)
(0.0112877 0.146799 6.60704e-18)
(0.000679258 -0.000568384 -8.2346e-19)
(0.0122604 -0.00848111 -4.62324e-19)
(0.000548351 -0.000458745 1.78398e-20)
(1.69685e-05 -1.59707e-05 -3.25825e-19)
(6.43271e-05 1.63129e-05 3.26516e-19)
(-0.005901 0.00210287 8.90699e-19)
(-0.00370481 -0.0289964 1.68252e-18)
(-0.002928 -0.0031033 -2.22022e-19)
(0.00778088 -0.0031107 -6.20978e-19)
(-0.000388284 -0.000574466 -6.10436e-19)
(0.000183061 -3.32644e-06 -2.70425e-20)
(-0.00572632 0.00768954 -2.24357e-19)
(-0.00459271 0.0555115 7.40145e-19)
(7.83564e-05 -4.02908e-05 4.57716e-19)
(0.000209162 6.53635e-05 1.056e-19)
(0.0173342 0.172704 6.14803e-18)
(-0.0100613 0.00503398 -3.62626e-19)
(0.00299071 0.00104396 -6.06166e-20)
(-0.0911991 0.198216 -6.07494e-19)
(0.0473464 0.0511531 1.55906e-19)
(-8.56849e-05 4.32516e-06 -8.47393e-19)
(-7.48109e-05 -5.92e-06 -1.8344e-19)
(0.00470295 -0.000746732 -4.53109e-19)
(-0.00672391 0.00673751 -5.01763e-19)
(0.00133754 -0.000940025 -3.21397e-19)
(0.000158884 -3.13244e-06 1.36573e-19)
(0.000174157 5.55224e-06 -9.53529e-20)
(-0.00389446 -0.000534391 -1.11059e-18)
(-0.000303491 0.0016143 9.64803e-20)
(0.000592799 0.000806869 -1.23404e-18)
(0.0307223 -0.0169528 1.53683e-19)
(0.0149785 0.0328243 -1.42981e-18)
(-4.39155e-05 2.95826e-05 3.32888e-19)
(-0.029497 0.300203 -1.62443e-17)
(0.0201084 -0.00555334 4.19007e-19)
(-0.000538578 -0.0004659 -1.10374e-18)
(-0.00415842 -0.00302569 -6.24028e-19)
(-0.00439155 0.00473526 -5.91668e-20)
(-0.0330425 -0.0389922 -1.27792e-18)
(0.00463788 -0.00102786 -7.67892e-19)
(-0.0325953 0.0130073 -2.19291e-18)
(0.000260199 -0.000981889 1.05319e-18)
(0.000509284 0.00109816 -4.37001e-19)
(0.00631712 0.0282965 -1.04781e-18)
(0.000365268 -2.36859e-05 3.94292e-20)
(0.00435192 0.0162637 -6.10108e-19)
(0.0287164 0.101255 5.16928e-18)
(0.0120131 -0.00472147 3.63708e-19)
(-0.000563194 -0.000375222 9.85831e-20)
(-0.153183 0.0694364 1.36002e-18)
(-0.00884875 0.00543538 8.15455e-19)
(2.23301e-05 0.000768037 6.82032e-20)
(0.0015375 0.00193995 -5.46024e-19)
(-0.0137154 0.0209747 -4.72261e-18)
(0.00100727 -0.000442671 5.47598e-19)
(8.25371e-05 0.00069057 3.85261e-19)
(0.00016431 4.00137e-05 1.00445e-19)
(0.000937597 -0.000385233 -3.56155e-19)
(-0.0088982 0.132286 1.05405e-17)
(-0.00680206 0.0198526 -3.86011e-18)
(0.0187784 -0.00549927 -4.33087e-19)
(-0.00542573 -0.0026265 7.89266e-19)
(0.0015361 0.00165819 3.94945e-19)
(0.00144096 0.000573197 -5.72828e-19)
(0.000979376 0.00040538 -5.53013e-19)
(0.000133085 -5.43984e-06 -1.00175e-19)
(0.000153792 3.28222e-05 -1.55921e-19)
(-0.0405864 -0.0290455 -4.32914e-18)
(-0.0203938 0.0524355 -8.21962e-18)
(0.000186887 -0.000495407 3.83214e-19)
(0.00166563 -0.0085519 2.30135e-19)
(0.0776949 0.00759176 3.59659e-18)
(-0.000726765 -0.000904768 -3.89812e-20)
(0.0142746 0.0118885 3.15219e-19)
(0.001442 -0.0242633 3.1932e-19)
(0.000134016 -1.01333e-05 -3.28954e-20)
(0.000399154 0.0330053 -5.00477e-18)
(0.0094817 0.111211 -6.52266e-18)
(0.000410426 0.000241467 2.96529e-19)
(-0.0404842 0.0320986 -4.4713e-18)
(0.00134384 -0.00077643 -9.87097e-20)
(-0.110208 -0.131185 1.20952e-18)
(0.00881388 0.0047705 8.23964e-18)
(0.06197 -0.0496514 8.34836e-19)
(-0.000228499 1.15514e-05 -3.82777e-19)
(0.000723861 0.0009244 6.24851e-19)
(0.00471534 0.00219315 1.84448e-19)
(0.0186789 -0.00743036 -1.1708e-18)
(-0.00188337 -0.00794071 5.3663e-19)
(-0.0815425 0.220791 1.87043e-18)
(-0.0325401 0.108594 -6.45822e-18)
(-0.257026 0.332305 1.27828e-17)
(0.00475262 0.0172104 9.10329e-19)
(-0.0181258 -0.00106862 9.20374e-20)
(0.0158868 0.00771874 -4.72733e-18)
(1.74371e-06 4.75248e-07 9.93884e-19)
(0.00120687 0.0133899 2.82708e-18)
(0.000878908 -0.00798622 -1.38256e-20)
(0.0122412 0.103506 -9.03297e-19)
(0.00148944 7.93486e-05 5.58081e-19)
(0.0708481 0.0202983 -3.4399e-18)
(-0.000851401 -1.26842e-05 9.6267e-19)
(0.0306903 0.0105472 1.61883e-20)
(1.62441e-05 1.44698e-05 -5.77671e-22)
(0.000535319 0.00224888 3.98154e-18)
(0.00125228 0.000558333 3.04014e-19)
(-0.0384049 0.0422097 8.12335e-18)
(-0.000770683 -0.000321486 1.02461e-18)
(-0.000103109 -7.66768e-07 1.14637e-18)
(0.00205269 0.00314316 5.48279e-19)
(0.00483882 0.00230688 1.116e-18)
(0.00492847 0.00997352 1.41572e-18)
(-0.000363063 -3.1574e-05 1.44139e-19)
(0.000282278 -2.62693e-05 -3.17015e-19)
(-0.000567112 -0.000822374 -2.37652e-20)
(-0.000557386 -0.000703747 1.07113e-19)
(0.0584737 -0.030178 3.48176e-19)
(0.000133992 -2.58482e-06 7.89799e-20)
(0.0488569 -0.0162515 -1.5466e-18)
(-0.0120827 -0.259114 -7.80351e-19)
(0.000134654 -2.6714e-06 -1.08596e-20)
(3.31312e-05 1.81042e-05 -1.71998e-19)
(0.0132598 -0.00901572 5.32649e-19)
(0.000964523 0.0018633 -6.95971e-19)
(0.000383135 4.40345e-05 1.6389e-19)
(0.00126358 -0.00209712 -4.80639e-19)
(0.00232809 0.0089025 9.3195e-19)
(0.00844272 0.00542796 -7.89938e-18)
(0.000630988 0.003042 5.60281e-18)
(0.00468498 0.00266423 4.19859e-18)
(5.6112e-05 0.000409906 8.70702e-19)
(-0.00555836 0.0048816 5.2783e-19)
(0.00338699 -0.00175961 1.207e-18)
(0.0070652 0.00521852 -7.45692e-19)
(0.000742304 -0.00247859 -6.67874e-20)
(0.00454535 -0.00217433 1.79136e-18)
(0.0331399 0.0127239 2.69005e-18)
(9.98837e-06 -0.000787926 -1.43384e-19)
(0.0460472 -0.0397532 1.36325e-18)
(0.00231026 0.00806202 2.72282e-20)
(4.90171e-05 -2.2932e-05 3.00922e-20)
(0.000305222 -2.56702e-05 2.10511e-19)
(-0.000338561 -0.000493712 -4.00167e-19)
(-0.00579731 -0.00626831 3.42416e-19)
(-0.00593176 -0.0074967 -8.19849e-19)
(0.000395602 0.000942966 2.3434e-19)
(-0.00120474 -0.00282769 3.82769e-19)
(0.000333278 -0.000520821 1.63641e-20)
(0.00153208 0.00075742 -5.55491e-19)
(-0.00159722 -0.00272578 -8.43098e-19)
(0.000190769 1.31707e-07 -4.34965e-20)
(0.0036733 -0.0068658 -4.8221e-20)
(-0.000108312 6.92974e-05 -2.63029e-19)
(0.000721814 0.00231312 -2.69665e-19)
(7.72177e-05 -8.09085e-06 -1.09656e-19)
(0.00112106 0.000662069 -1.24729e-18)
(0.00289669 -0.00658074 9.58404e-21)
(0.000670138 0.00319578 2.03639e-18)
(0.00143355 0.0144172 -2.19673e-18)
(-2.15815e-05 -1.51089e-06 -6.64961e-19)
(0.000336574 0.000528296 4.46387e-19)
(0.000319578 2.75716e-06 -1.40575e-19)
(-9.51279e-05 0.000481378 -1.20466e-19)
(-0.00163463 0.000898213 -3.41446e-20)
(-3.80255e-05 2.26827e-05 -4.00641e-19)
(-0.00194444 0.000816811 -7.53684e-19)
(0.000953281 0.000295268 -9.95248e-20)
(8.7634e-05 -0.000775967 7.78641e-20)
(-0.000858786 -0.000229435 -1.29916e-19)
(0.0136011 0.0136852 5.10186e-18)
(0.000130415 -9.87036e-06 6.023e-20)
(-6.69141e-06 5.1753e-06 -7.13558e-20)
(0.000436537 0.000131787 -2.03265e-19)
(0.0614439 0.0156959 1.50567e-18)
(0.000102128 -2.18877e-05 2.93879e-19)
(-0.000201944 -0.000457892 -4.08078e-19)
(-0.00217675 0.028662 -4.92746e-18)
(0.00127696 -0.000578665 1.2897e-19)
(-0.00206443 0.00294138 -4.942e-20)
(-0.0496243 0.0446005 3.49563e-17)
(0.00534179 0.00297006 -4.83278e-19)
(0.000176172 -3.39853e-06 3.9836e-19)
(7.74236e-05 1.61146e-05 1.75069e-19)
(-0.0213696 0.0379414 3.01125e-18)
(-0.000269637 -0.000523267 -4.64903e-19)
(-0.00413235 0.0256816 -1.15038e-17)
(-0.188512 0.279782 1.10721e-17)
(0.0178865 0.0375976 1.09921e-18)
(-0.033118 0.0878898 -2.037e-18)
(-0.00195384 0.00253317 9.06e-19)
(0.000497474 0.000117979 7.71641e-19)
(0.0483416 -0.022905 -8.38376e-19)
(0.00446935 -0.00301469 5.37915e-19)
(-0.000351185 -0.00037097 -3.11423e-20)
(0.0276357 -0.0145935 -1.10298e-19)
(0.0639865 0.0370012 -9.82362e-19)
(0.0860747 0.018018 3.82312e-18)
(0.000344948 6.53016e-06 1.2861e-19)
(-0.0147144 0.0227813 -8.10221e-18)
(0.000487253 0.000134308 -4.66841e-19)
(0.000418818 0.00011834 -1.84634e-19)
(-0.116951 -0.114923 -2.15933e-18)
(0.000191976 1.00613e-05 -7.69272e-21)
(0.0193615 -0.0448434 1.53867e-19)
(-0.0052675 0.00106433 -8.3737e-19)
(0.0178827 0.0318018 -6.11633e-18)
(0.000366702 0.000459389 -1.0755e-18)
(0.00708765 0.000972728 -9.36303e-19)
(0.00301489 -0.00183752 9.9604e-20)
(-0.0425787 0.0361603 1.5856e-17)
(0.0121437 -0.0463505 -2.61138e-18)
(0.000238872 0.00164897 4.15892e-19)
(-0.00473283 0.000535355 4.96387e-19)
(-0.000929772 0.00936495 3.17253e-18)
(0.000832784 0.000288272 2.64428e-19)
(-0.00777146 0.00428051 -7.32465e-19)
(-0.00212341 0.0266919 7.86797e-18)
(-0.228482 0.0505133 -1.49201e-17)
(-0.000153326 8.17879e-05 1.91559e-19)
(0.0167362 0.00899344 2.89052e-19)
(0.00485538 -0.00246063 -8.66618e-20)
(0.0382719 0.00480458 3.11454e-18)
(0.0152795 0.00654525 -3.29042e-19)
(0.0207688 0.157917 -9.0431e-18)
(0.0435797 -0.0158693 9.07045e-20)
(-3.52596e-05 0.00429161 9.04883e-19)
(-0.0179463 -0.00606337 -1.03972e-18)
(-0.0272913 -0.00904485 -4.81637e-18)
(9.19549e-05 -1.90826e-05 -1.57308e-19)
(0.000186204 -1.57609e-05 -1.31901e-20)
(7.26253e-05 9.24514e-06 -2.08985e-18)
(-0.0008426 0.0066316 -1.31943e-19)
(-0.000639215 -0.000263827 1.28268e-19)
(-0.0953021 -0.00767051 6.81702e-19)
(-0.000454889 -0.000257059 1.18346e-18)
(0.0470502 -0.0264423 -1.70789e-18)
(0.000224683 0.0045373 1.18638e-18)
(-0.0258725 0.0188298 2.6677e-20)
(0.0048402 0.0303115 1.04893e-18)
(0.0010233 0.000477914 1.00048e-19)
(0.0398178 0.0621048 2.66526e-18)
(0.0167569 -0.216516 2.73257e-18)
(0.0025275 0.000820023 -2.81959e-18)
(0.038369 -0.0393296 2.69919e-18)
(-0.01614 -0.00638126 1.48565e-18)
(-0.0179335 0.0293339 3.63152e-18)
(-0.000552634 -0.000324494 -2.1364e-19)
(0.00112829 -0.00054861 5.62868e-20)
(0.00842066 0.1274 -3.96305e-18)
(-0.00140914 -0.000402177 -6.32653e-19)
(0.00763384 -0.042236 5.85469e-18)
(0.000153867 -2.32333e-05 1.84477e-19)
(0.0524561 -0.0140597 2.2492e-19)
(0.000882597 0.000498808 -1.0097e-18)
(-0.0129115 0.0465851 5.67906e-19)
(0.0153159 0.116057 -3.31786e-18)
(0.000548535 0.00435186 -6.02329e-19)
(-0.124912 0.00317242 -3.28514e-18)
(0.00012078 2.17716e-05 4.18532e-20)
(0.00198209 0.00340102 -1.9473e-18)
(0.00731508 0.0176426 -2.10663e-17)
(-0.0991612 -0.320718 3.33802e-18)
(-0.0812629 -0.378042 1.15209e-17)
(-0.00152847 0.00172379 -1.98987e-19)
(0.001033 0.000498004 4.72677e-19)
(-0.000252273 -0.00057797 -2.22448e-19)
(0.0196195 0.0814577 -9.35114e-19)
(0.111083 -0.0460763 -7.65677e-19)
(0.000183821 2.23942e-06 8.69812e-20)
(-0.0111126 -0.00421852 -2.59642e-18)
(0.0130679 0.0161507 -3.78684e-20)
(-0.000429797 -0.000466149 8.05502e-19)
(0.000119194 0.000103304 -3.98481e-19)
(-0.00189366 -0.00619813 -8.14716e-20)
(0.0235009 -0.0394613 1.71751e-18)
(0.00715722 0.0113113 -1.3764e-19)
(-0.00180753 -0.00055052 3.56298e-19)
(-4.0713e-05 -2.75916e-05 -1.21547e-18)
(8.93059e-05 -0.000817266 4.48257e-19)
(-0.0364869 0.0829993 3.28674e-18)
(0.0784058 0.014614 -4.34622e-19)
(0.0128113 -0.012967 4.23939e-19)
(-6.66758e-05 0.000570508 -3.25416e-19)
(0.000154208 4.78327e-06 -4.74951e-19)
(0.0582647 0.0101509 2.14475e-18)
(0.000189631 -7.39276e-06 6.6889e-20)
(0.0490377 -0.0106461 2.66351e-19)
(0.0158886 0.0195669 3.89412e-18)
(0.0417553 -0.0339219 -2.00029e-18)
(0.0125016 0.0613685 4.33235e-20)
(0.0506954 -0.0145963 -1.53015e-19)
(0.000654777 -0.000337021 1.85519e-20)
(0.000969881 0.000549736 -2.19918e-18)
(0.00373946 0.00505222 -4.01244e-18)
(0.00188729 0.0027038 -2.91702e-18)
(0.00758474 0.00550833 -2.86909e-18)
(0.00018841 2.14181e-05 -1.26242e-19)
(-0.0134511 0.0244579 1.87809e-18)
(0.0490846 -0.0266276 7.99759e-19)
(0.000758905 9.43606e-05 1.45014e-18)
(0.0047777 -0.224141 -7.31673e-19)
(2.79787e-05 -0.000768397 -1.84283e-19)
(-0.0098363 -0.0956459 -2.79913e-19)
(0.000885154 0.00119617 4.99889e-20)
(0.027573 0.0579702 -6.58833e-20)
(0.0029903 -0.00958162 -1.81817e-19)
(0.00308506 0.0116949 2.16956e-19)
(-0.000264371 0.000263112 -5.83711e-20)
(-0.00222166 0.00529699 3.74689e-19)
(0.0122279 -0.000864 -8.80949e-19)
(0.033026 -0.035781 9.93978e-18)
(-0.0284604 -0.00432739 5.73245e-19)
(-0.000566108 -0.00124856 2.09492e-20)
(0.0176085 0.00799433 5.57939e-18)
(0.00307989 -0.00201815 3.1485e-19)
(0.00468138 -0.00262022 4.51753e-19)
(0.00754839 0.00103126 3.59688e-19)
(-0.184464 0.0114103 9.40385e-18)