/*--------------------------------*- C++ -*----------------------------------*\
| =========                 |                                                 |
| \\      /  F ield         | OpenFOAM: The Open Source CFD Toolbox           |
|  \\    /   O peration     | Version:  v2012                                 |
|   \\  /    A nd           | Website:  www.openfoam.com                      |
|    \\/     M anipulation  |                                                 |
\*---------------------------------------------------------------------------*/
FoamFile
{
    version     2.0;
    format      ascii;
    class       surfaceScalarField;
    location    "300";
    object      meshPhi;
}
// * * * * * * * * * * * * * * * * * * * * * * * * * * * * * * * * * * * * * //

dimensions      [0 3 -1 0 0 0 0];
oriented        oriented;


internalField   nonuniform List<scalar> 
14516
(
-0.00054765
-0.00164351
0.00218385
-1.05038e-06
-4.04106e-05
4.07143e-05
0.00183932
-0.00239505
0.000700607
-0.000958032
0.000160383
0.00328163
-0.00229493
-0.000991541
-0.00283288
0.000352928
0.00245424
0.000212098
-1.89119e-05
-0.000284669
-0.00179071
0.00157402
0.000157501
0.00251759
0.000250164
-0.00279198
0.00136019
0.00191565
0.00192628
-0.00240989
0.00047914
0.00243369
-0.000180829
-0.00225965
0.0007001
-0.000116517
-3.46985e-05
-0.000534714
0.000558496
-4.84077e-05
-3.37692e-05
-0.000519691
-1.11996e-05
0.000518702
-0.00185565
0.000626439
0.00120508
-0.000646312
-0.00123613
0.0028382
-0.000284574
-0.00255958
-0.000565664
-0.00021988
-0.00250288
0.00271534
0.00027563
-0.00230208
0.00201807
0.00132526
-0.000449421
-0.000882069
-1.47466e-05
1.47466e-05
0.00253752
-0.000343913
-0.00222444
0.000444999
0.000135109
0.000484256
4.16449e-06
-0.00050031
-4.09065e-05
-0.00129933
0.00131401
-0.00276421
0.000924441
0.00183324
0.00269254
-0.000200384
0.00243227
-0.00290673
0.000460538
0.000258301
0.00105521
0.00197221
-0.000416959
-0.00156249
-4.55778e-05
-4.36814e-05
5.86163e-05
0.00101928
-0.0031331
0.0021085
0.00288075
-0.000320762
-0.00256687
2.94551e-06
0.00013751
-0.0020732
0.00234006
0.00206821
-0.00158719
-0.000531254
-3.76203e-05
0.000189595
-0.00019087
0.00311212
-0.000696696
-0.000163461
3.39525e-05
0.000270427
-0.000467283
8.57101e-05
-2.43591e-05
0.000208339
-0.000268216
0.000270442
-0.000137662
-0.000118567
-0.00174878
7.99336e-05
-0.000857818
0.000771596
-0.000368336
-0.00242762
0.00278915
-0.000259142
-0.000784001
-0.00143986
-0.00169867
3.69675e-05
-0.00194909
0.00190828
0.00283991
-0.000682218
-0.0021753
-0.00295092
0.00303758
-0.000117407
0.000280126
-0.00175869
0.00147566
0.00274817
-0.00284004
8.41631e-05
-0.00202122
0.00212711
-0.00225725
0.000577996
0.00167626
0.00247954
8.77156e-05
-0.00257352
0.00136829
0.000665494
3.42701e-06
9.87936e-05
-0.000141032
0.00268558
-0.000428735
-0.00227377
0.00231999
-0.00265007
0.000324591
0.000280944
-0.000699243
0.000248916
0.00181473
0.000966889
-0.000241096
-0.00178838
0.002021
0.00289708
-0.000584966
-0.00251448
0.0027975
-0.000289189
0.000327632
0.00209814
-0.00015376
0.00207572
-0.00175731
0.00203422
4.12493e-06
7.72031e-14
-4.76404e-06
0.0024921
-0.000456624
-0.00207952
-7.64364e-05
6.56793e-05
1.03593e-05
0.000658598
-0.00210378
-5.3755e-05
0.00252656
-0.000284685
-0.00213454
0.00236568
3.64368e-05
-2.1323e-09
-3.65962e-05
-0.0016391
0.000398459
0.00122287
-0.00198821
0.000615416
0.00134387
-0.00165778
0.00140922
-0.00183948
0.000423377
0.00139164
4.47388e-05
3.91773e-07
-4.52153e-05
-1.05298e-05
-0.000860519
0.000861326
0.0028608
0.000234484
6.25336e-05
-0.000837135
0.000766999
-0.00139945
-0.000613647
5.21309e-06
-0.00228205
0.00222958
-0.00242496
0.00251188
-0.000110694
0.00198496
-0.00045419
-0.00155726
-5.92117e-05
5.74965e-05
-0.000242574
-0.00207294
0.00231315
0.000821598
-0.000669216
-0.000170492
0.00132692
-0.0010797
0.000242406
-0.00089392
0.000873687
0.00280221
-6.00876e-05
4.12875e-05
2.70201e-06
0.000233395
0.000569008
0.000125356
-0.000555936
0.000412749
-0.000472818
0.000578476
0.00196331
-0.000357738
-0.00163409
0.000908907
-0.000194092
-0.000742175
0.000688437
0.000191868
3.27171e-05
1.83966e-06
0.00305414
-0.00020912
0.00289451
-0.000400842
0.000132356
-2.24603e-06
-0.000178356
0.00235393
0.000462794
-0.000145361
-0.000665862
0.000807229
1.71216e-08
2.71184e-06
0.000101091
0.00256516
-0.00267191
0.00267793
-0.00223487
-0.000656152
0.00325516
-0.00260771
0.00187643
-0.00184317
-0.00235809
0.000280103
-0.00174169
0.00145434
-0.00141249
0.00206557
-0.000324809
-0.0015388
0.00109893
0.000213586
0.000575072
-0.00072379
-1.99796e-06
4.13353e-07
5.1924e-07
0.0022073
-0.00234237
7.37519e-05
-9.83295e-05
-0.00275711
-0.000120286
-0.00222956
0.00233443
-0.0027056
0.00247832
-0.00207956
0.000494355
0.00158093
0.000842511
-0.000787436
-0.000264481
-0.00139341
-0.00261136
0.000643174
0.0019109
1.0329e-06
4.76957e-06
-9.01022e-06
-0.002174
-0.00129754
-0.00135481
-0.000198583
-0.00175114
0.00192401
0.00210184
0.00056111
9.61571e-05
-0.00235512
0.00221407
0.000324569
-0.000205976
0.000180412
-0.000286631
0.00027148
0.002302
0.000104127
-0.00011569
-1.64554e-06
1.30762e-05
0.00213707
0.00258744
-0.000253988
-0.00236588
2.25373e-05
-0.000489133
0.000374401
-0.000119351
0.000529915
-0.000424465
-0.000567883
2.22107e-05
4.25528e-05
0.000553476
-0.00060708
7.29008e-07
1.18584e-05
-1.38758e-05
0.000508771
-0.000644278
0.000978926
-0.000282082
-0.000721173
0.0018356
-0.00208029
0.00200479
0.00046015
-0.00246869
-1.071e-05
8.31161e-06
0.00259236
-0.000592132
-0.00100264
0.00235691
0.000259883
0.000693189
-1.68128e-06
-1.1628e-06
-4.55761e-06
4.12497e-05
-4.95759e-05
0.000350593
0.00220559
-0.000135626
0.000623971
-0.000403525
0.000347832
-0.00132462
-0.000512302
0.00111408
-0.00117849
3.3597e-05
0.000440408
-0.000484932
-0.000541791
0.00330543
-0.00276969
-5.79662e-05
1.83851e-05
3.93444e-05
-0.0029899
0.000476445
-0.000763136
-0.00263699
0.002416
0.00021202
0.000507044
-3.38723e-05
0.000305808
-0.00192372
0.00158786
-0.00329079
0.000941092
0.0023039
0.00117114
-0.00232374
0.00115052
-4.18878e-05
-1.81803e-05
-0.000912555
0.00207913
-0.000249896
-0.00199774
0.0022314
0.00229146
-0.00222982
-3.10222e-05
2.45452e-05
4.55756e-06
0.000425737
-0.00204446
0.0015738
0.00292255
-0.00133804
-0.00158906
0.00206212
-0.0015527
-0.000510426
-0.00259361
0.00240479
0.000178572
-0.000627766
0.00225256
0.00246206
5.22013e-05
-0.00252047
0.00243619
1.53368e-06
-0.000495774
-0.00176474
-0.00150499
0.00188754
-5.30853e-05
0.00223695
-0.00224402
-0.000454529
0.000477523
-0.00234138
0.00207434
0.00141202
-2.15096e-05
-0.00147819
0.00245889
-0.00283408
-0.00253103
0.00262653
0.000377937
0.000713113
0.00220412
-0.00334723
0.000839535
0.00250151
-0.00017273
-0.00155077
0.0016947
-0.00259558
0.00158706
7.4295e-06
8.56995e-05
0.00247478
-0.000397728
-0.00102203
-0.00189234
0.00290873
-4.80305e-06
-0.00284337
-0.00222382
0.00168315
0.000486631
-0.000164111
-0.00223246
3.13384e-05
5.8219e-07
-0.000116087
1.86193e-05
0.000488157
-0.000519435
0.00274876
0.00029227
-0.0023601
-5.61231e-05
0.00240668
0.00012374
0.0019203
-0.00205079
-0.000177611
0.00262868
0.000275457
-0.00271114
-0.00219966
-0.000772873
-0.00149802
-0.00185369
3.54508e-05
-5.32076e-05
-0.000240792
-0.00162499
0.00183919
-0.000144334
0.00260095
3.23268e-05
-2.04488e-06
0.00266474
-0.00252789
-0.000143785
-0.000139964
0.00219526
-0.00206475
-0.000928901
-0.00182153
0.00269712
-0.002132
4.93079e-06
0.00128673
-3.40343e-05
-0.000834906
0.00227914
-0.00255335
0.00287974
-0.000899305
0.000650787
0.000224157
0.00181012
-0.00195841
0.00020314
-0.00195215
0.00174562
-7.37671e-06
-8.5074e-06
5.26128e-06
8.81203e-06
-0.000673261
-0.00192865
4.2541e-05
-9.07124e-05
3.6144e-05
-0.00217833
0.000421549
0.00175348
0.00243199
0.00022698
-0.00217144
0.00206195
2.18987e-05
0.00236228
-0.00235409
-5.66789e-05
8.68979e-05
0.00270892
0.000436028
0.00147825
-0.00194441
0.00295615
-0.000219755
3.30792e-05
-0.000559624
0.000514859
1.41195e-05
0.00212074
-0.00218435
0.00181172
0.000154052
-0.00222241
-4.54266e-06
0.00217782
-0.00089441
0.000590344
3.62366e-06
0.00151812
0.00261743
-0.00230008
-0.000682369
-0.000108372
3.76867e-05
0.000301494
0.00186866
-0.00218584
-0.00262098
0.000305289
0.00230778
-0.000164107
0.0020367
0.000325149
-0.00202875
0.00170016
-0.00196642
0.00211433
-0.000200112
-0.000108225
0.00241033
-0.00231253
-0.00300025
0.0024785
0.000475817
-0.000723069
-0.00190466
-0.000184062
-0.00246014
0.00261964
-8.99602e-05
-0.000491683
0.000567797
0.000590098
0.000191557
-0.00078323
9.57617e-05
-0.0019547
0.00178699
4.50978e-05
-5.93606e-05
-3.08607e-06
-0.000592937
-0.00205227
1.996e-05
-2.27476e-05
2.44112e-06
-2.87416e-06
2.26069e-05
-0.00180001
0.00191742
0.000963342
-0.00286083
-0.00240172
-0.000516269
0.00288696
-0.00047815
0.000377059
-4.84281e-05
-0.000371958
0.00040565
-0.00302425
0.000827898
0.00218657
-0.000323199
-0.00209297
0.00236918
3.88885e-05
2.61444e-05
-6.51853e-05
-1.62682e-05
5.50311e-05
-0.00162464
0.000116215
-0.00265269
-4.24941e-05
0.000631022
-0.000725517
-0.00175806
0.000200102
0.00238144
-9.60079e-06
3.02581e-05
-2.11436e-05
-9.73835e-05
0.000111018
-6.76159e-05
-0.00021484
0.000139907
0.00113706
-0.00210758
-0.00200939
0.00229393
-0.00314263
0.00132741
0.00180795
1.75327e-05
0.00035683
-0.000464998
0.00216865
-0.00237406
-0.00198653
-0.00124503
0.00151951
0.000367248
-0.00280006
0.00240266
0.000138087
-1.36309e-05
9.69491e-06
-8.70647e-07
0.00167251
-0.0018967
0.000162857
-0.00247184
0.00229414
-0.00147302
-0.00167551
0.000815242
-0.000968674
3.28272e-05
-0.00188752
-0.000948252
0.00283009
-0.00066223
-0.000938945
-0.00115355
0.00209348
0.00156663
0.000113977
-0.00167913
0.000107724
-1.98616e-05
0.00015859
-7.29713e-06
-0.000215746
0.000168721
0.000339026
-0.000518974
-0.000980922
-0.00205178
-0.00138207
-0.000776188
0.00215168
-0.00212751
0.00206674
3.0869e-05
0.000760804
-0.00169982
-9.69438e-06
0.000370019
-0.000513231
-0.000344706
0.000501981
0.000691705
-0.00208023
0.00249304
-0.000120252
-0.00239101
-0.00279291
0.00223125
0.00053922
0.00166157
0.000293228
0.000800052
0.00229477
-0.00212805
-0.000202554
-0.00274335
0.00233521
0.000398508
-0.00261837
0.000252409
0.0020177
-0.00190988
-0.000150869
-5.82403e-05
-0.00347797
0.00156429
0.00190966
-1.79138e-06
6.65641e-05
1.82913e-05
1.29271e-05
0.000803384
0.00125769
0.000247782
-0.00254208
0.00228088
-0.00245688
0.00253849
0.000468124
-0.00188739
-0.000394557
0.000439868
-5.68151e-05
0.00216586
-0.00188761
0.00227017
0.00173956
0.000194515
0.00270843
0.000234555
0.000323583
0.00116608
-0.00149261
-0.0016128
0.00133408
0.000231063
0.000290736
-0.000297455
0.00170517
0.000736515
-4.60419e-05
-5.93905e-05
8.1157e-05
-0.0014786
0.000152621
-0.00299176
0.00183091
0.0011537
0.000635525
-0.00218136
0.00185456
0.000120486
0.00110759
-0.00147981
0.00188688
-0.000485411
0.000462716
-5.20614e-06
0.00225412
-0.00260847
0.00034199
-0.00166485
-0.00215735
-0.00237926
7.85109e-05
0.00228491
0.00186182
-0.0023874
0.000491473
0.00253666
-0.002537
-2.41021e-05
-0.00186511
-0.002547
0.000528353
0.00201564
0.000673837
0.00233325
-0.00257706
0.00270974
-0.000143237
-2.65286e-05
-0.00258429
0.00111703
0.00146147
0.000213797
-0.00197466
-0.00208727
0.0015887
-0.00120806
-0.00138187
0.00266365
-0.000424973
-0.00148054
0.00198223
-0.000528426
0.00103067
-0.00253267
8.16442e-05
-0.00010991
-0.000242639
0.000830436
0.00190842
-0.000274828
5.88679e-05
-2.77419e-05
-0.000120882
0.00168833
0.00288475
-0.00019094
-0.00162602
-0.00185614
0.00222884
-0.000400448
-0.000547806
-0.00163381
0.00184638
-0.00217257
0.000112578
-0.00238398
0.00225101
-0.00203672
-0.000131645
0.00211792
-0.00166783
-0.00231682
0.000307097
0.0020035
3.87375e-05
0.0020764
-0.00219396
-0.00295446
0.000545328
0.0023834
0.000133325
0.00242619
-0.000111864
0.000808002
0.000285503
-0.00259783
0.00230077
-2.5495e-05
-2.05236e-05
2.82808e-05
0.000146377
1.09561e-05
-0.000492646
-0.00231035
-0.000286158
0.00235301
-0.00106963
-0.00148138
0.00143236
-0.00231506
0.000868313
0.000134259
0.00187673
3.08158e-05
0.000884275
-0.000920981
0.00259075
0.00189123
-0.00169128
-3.61539e-05
3.35328e-05
3.06954e-06
8.44603e-06
0.000160638
-0.000207502
0.00217225
-0.000493701
-0.00213113
0.00223208
-0.000103523
-0.000846545
0.000871585
0.000551485
-0.00052976
-0.000309891
0.00225578
-0.00196131
-0.00140721
-0.00114042
0.00254364
0.000346496
-0.0004097
-0.00289146
0.00222758
-0.00238642
-1.38923e-05
-0.00236853
-3.67067e-05
0.000368606
0.00198236
0.000102837
-0.00209286
-0.00117658
0.00177817
-0.00061696
-0.00170424
-0.00259502
-0.000484878
-0.000960785
0.00050539
0.000177848
0.00207729
-0.00227606
-0.00223069
-0.00220441
0.0023606
0.000329688
0.00154846
0.000471381
-0.000561244
0.000593284
-0.00234
0.00271281
-0.000378777
0.000505767
-0.000668684
-0.000917592
-0.0018983
-0.00162922
-0.00282869
0.00256566
0.000237611
-0.00260792
0.00239965
-0.00223689
0.000467881
-3.87512e-05
0.000575858
-0.0019184
0.000275571
-0.000601695
0.000232041
-0.00308943
0.00214475
-0.000289441
-2.54362e-05
0.000303161
-0.000577192
0.00118577
-0.000614499
-2.49639e-05
0.000548044
-0.00113035
-0.00152937
0.00180737
0.000146645
-0.00255913
0.00240373
1.81549e-05
0.000182985
-0.000215021
-0.000111941
0.000126199
-8.65947e-05
-0.0007412
0.00215983
-0.00248332
0.00242286
0.00151804
-0.00172011
0.00210528
-0.0018954
4.1117e-05
-0.00192677
-0.00139436
-0.00226772
-0.00323066
0.00181912
-0.00204706
-0.000868639
0.00218294
-0.000227365
-0.00195807
-0.00258728
0.00240188
-0.0032565
0.00223354
-0.00120854
-0.00111031
0.00156551
-0.00272955
0.00115467
-0.00170227
0.00227279
-7.99016e-05
0.00205404
1.09872e-07
-0.00131925
0.00153505
-0.000220293
0.000341199
-0.000489554
0.00225821
-0.00205845
-0.000225503
-0.00217023
0.00161922
-0.00253162
0.000129823
0.00132282
-0.00180053
0.00219746
-0.00231084
-0.00100903
0.000784256
8.5697e-05
-2.43331e-05
6.21383e-06
0.00267891
-0.00269443
-0.0024909
0.0018693
-0.00257286
0.00242312
-0.000768187
-0.000268835
-0.00301324
0.00202302
-4.41472e-07
2.37961e-05
-0.000122026
4.76442e-05
-3.28763e-06
1.9298e-05
-2.39905e-05
0.00172396
0.00275649
-0.00119941
-0.00179579
0.00020768
0.00202499
3.34779e-05
0.000313936
-0.000360806
-0.000576232
-0.000263669
0.000268708
-0.00254492
0.00225601
0.000873966
-0.000302107
-0.000409797
0.000343236
0.000956551
0.00118351
-0.00158026
0.00169575
0.00260262
0.000262962
-0.0021659
-0.00218239
-0.000473658
-0.00244931
2.03385e-05
-6.20624e-05
-7.1085e-06
3.57663e-05
-0.00225914
-0.000348402
-0.00236014
-0.00153985
-0.00157305
0.000252065
-0.000195155
-0.000185818
0.000390395
-0.00044032
-8.13429e-05
-0.00177956
0.000198923
-0.00209672
-0.00216171
0.000145986
1.18584e-05
-0.000163199
-0.00179568
4.47414e-05
-1.09241e-05
-4.49202e-05
-0.00243716
0.00307157
-0.0016136
-0.00146457
-0.000181501
0.000672138
-0.000507785
-0.00260949
0.00294498
-0.00142519
0.00180342
0.0026852
-0.000125769
-0.00195763
4.48038e-06
0.00236258
-0.00237148
6.22039e-05
0.00209892
-0.0021328
-0.00175054
-0.000205071
0.00213516
4.19747e-05
-0.00234708
0.00195052
0.000391573
-0.00164391
0.00152372
-0.00192396
0.000486208
-0.000685361
0.00193229
0.0027932
-0.000211552
0.000948779
0.000200778
-0.00118339
0.00220112
6.45945e-05
-0.00229678
-0.00172397
0.00159265
0.00214811
-0.000889652
-0.0012949
0.00110207
-0.000187775
0.00108581
-0.000344303
-0.000845682
0.000453807
0.00164751
1.58551e-05
-0.00161033
0.00126866
0.00179585
-0.000473608
0.00216988
-2.7481e-07
0.00218131
-0.00207128
-0.000146216
-0.00247393
0.00255517
-0.000108701
-9.47253e-07
-1.64178e-05
0.000590595
0.000382563
-0.00256511
-0.000221554
0.00277841
-0.00176182
-0.000328643
3.57116e-05
-0.000422925
0.00192209
-0.0019923
5.19801e-05
0.000106099
-0.00223967
0.0025103
-0.00246701
-7.41766e-05
-0.000109024
-0.000699083
0.000799412
0.000431268
-0.00301994
-1.57589e-05
-0.00124669
-0.00244288
-0.00218703
-0.00194346
0.00177232
2.50132e-05
-3.49705e-05
0.00324117
-0.00110273
0.00242306
-0.002395
-0.000185229
0.0025784
0.00034685
-9.09264e-05
-0.000746258
0.00135368
8.92793e-05
-8.28114e-06
-8.15406e-05
-0.00208625
0.00058622
0.00029604
-0.00248664
0.000146109
-0.00180684
0.000346134
0.0020106
-0.00235907
-0.000995048
-0.00135592
0.00232681
-0.00232672
-0.0021613
0.00207273
-0.000124674
2.73437e-05
-0.00199991
0.00179266
0.000202869
0.00206566
-0.00016111
-0.000813851
4.01692e-05
0.000772548
-0.00252526
0.00225319
0.000245482
0.00235874
0.000191304
-0.00255757
3.45802e-05
-0.000279312
0.000236186
-0.000691444
0.000814313
-0.000128317
5.39212e-05
-0.000196105
-0.00019625
0.000228829
-0.00194679
0.000349983
0.00159502
-2.86716e-05
0.000285053
-0.000265952
6.37297e-05
-7.83986e-05
-1.98665e-06
-0.00215804
0.00210604
4.22985e-05
-0.00149677
-0.00108929
0.00257751
-0.0017816
-0.00191174
0.00142178
-0.00211005
3.07018e-05
0.00202013
0.00232603
0.000155219
0.00242084
-0.000124977
0.00216011
-0.00244991
0.00107614
-0.000631467
-0.000512913
-0.00154536
0.000222266
0.0030492
-0.00187169
-0.00118075
0.00073975
0.000110525
-0.000153561
-0.00171494
-0.00130545
0.00194964
-0.0022751
0.00215277
-0.00233598
-0.000339688
0.00265575
-0.00225017
0.00234278
0.00118076
-0.00229101
-0.00281623
0.00207576
-0.00241906
0.000915577
-0.000884082
0.000925225
-8.48084e-05
-0.00177321
0.00241207
0.000234969
-0.00278933
0.00205841
0.00241366
5.87138e-05
-0.00156334
-0.00105063
0.00254468
-0.00035118
-0.00219616
-0.000217592
0.00210731
-0.00192093
-0.0026936
0.00034822
0.0019513
-0.00232007
0.000362659
0.000159966
-0.000249395
1.66785e-05
-0.00218493
-6.88252e-06
-0.00125606
0.00122406
-0.0017314
-0.000160796
0.0018648
0.000222963
-0.00198401
0.00204728
-0.000542682
-0.000386801
0.000915219
-7.22174e-06
7.22174e-06
0.000185055
-0.00103361
0.000476249
-0.000224644
-0.00101148
0.00113754
0.00251588
2.79687e-05
-0.00255572
0.000127014
-1.97053e-05
-0.000117611
-0.00215495
0.00194864
-6.77842e-05
6.74497e-05
-3.35644e-05
-0.00230848
-0.000100489
0.00260285
-0.00132469
-0.00149813
-0.000334139
-0.0016702
0.000112784
-9.41449e-06
0.00181039
0.000238892
-0.00209676
-0.0021097
0.00206997
-0.00109755
0.00093646
0.000120072
-0.000242586
-2.87733e-05
0.000264375
1.70763e-07
3.497e-05
2.90005e-05
-0.000279288
0.0019458
-0.000132887
0.00145958
-0.00170146
0.000247525
-0.000285964
-0.00185525
0.00198376
-0.000135061
-0.000174799
0.000148725
-0.000159548
-6.50989e-05
-0.00215474
0.00203111
8.41569e-05
-0.000209928
0.0025598
-0.00149538
0.000360842
0.00106346
-0.000361352
0.000310529
0.00216427
-0.00168854
5.51437e-05
-3.11068e-05
0.00270124
-0.00222122
-0.000503906
-0.00052705
-0.00142143
0.00161205
-0.00197936
0.000232958
-0.000179957
-0.000164544
-2.83436e-05
1.71799e-05
-0.000925324
0.00150141
0.0012057
-0.00124992
-0.000498156
-0.00167549
0.00215868
0.000137376
0.00146897
-0.00148012
-0.000401762
0.00187142
0.00225315
0.000421974
0.00152373
0.00051998
-0.00208295
-0.00136548
0.00153382
-0.000174467
0.000268176
-0.00109594
0.000812379
-0.000337024
3.37371e-05
-3.61008e-05
-3.26558e-07
-0.00237526
0.00217132
-0.0020649
-0.000109114
-3.0609e-05
-0.000111127
-0.00161541
-0.000672153
0.00205023
-0.00261045
0.000983268
-0.00131456
-0.000117207
0.00190606
-0.00179685
0.000795869
-6.41872e-05
-0.000742256
-0.00201705
0.00184958
0.00197843
-0.000217701
-0.00300059
0.00130662
0.00168435
0.00259075
-0.000197416
0.00176855
0.000583989
-0.000134017
0.000827814
-4.2206e-05
-0.0017627
0.00182198
-6.3933e-05
0.000152416
0.00175099
0.000308815
0.00166259
0.00150591
-0.00164114
0.000134032
-0.0021343
0.00195256
0.000681061
-0.000798751
-0.000620085
0.000875685
-0.00149686
-0.000111602
0.00160543
-8.32545e-05
0.00075529
0.00152288
-0.00166347
0.000132896
5.14797e-05
-0.000648081
0.000592477
-0.000493235
-0.0010241
0.00149674
0.00217467
-0.0023137
0.000129116
0.00106928
-0.0022239
-0.001377
-0.000201918
-0.000165772
-0.0011692
0.00124019
-6.90125e-05
8.83923e-05
-6.2535e-05
0.000313476
-0.00146295
0.00113248
2.35994e-05
0.000251099
-0.00017323
-0.000291905
0.000255206
-0.00147706
0.000165337
0.00130868
0.00216676
-7.64171e-06
0.000934658
-9.98173e-05
-0.000841988
2.23751e-05
-0.00252337
-1.43701e-05
0.00219542
7.5241e-05
-0.00191188
0.00183215
-4.84184e-05
0.00236653
0.00260633
-0.00018235
-0.000173473
0.00233508
-6.04559e-05
-0.00164412
0.00170202
-0.000278806
1.77886e-05
3.59726e-05
-9.60022e-05
0.000832013
-0.000736143
-0.00229446
-0.000164805
0.00242587
-0.000534539
0.00230095
-0.000182576
-0.000357928
0.000470394
0.000668251
-8.51094e-05
-0.000585359
-0.00105467
0.000789245
0.000239402
-0.000695895
-0.00016548
-0.000849719
0.000753398
0.000804943
-0.00131539
-4.52961e-05
0.00192156
-5.84566e-06
0.000516752
-0.00211239
-5.27697e-05
-0.00103111
0.00214264
0.000209085
-0.00270345
0.00248769
-0.00249762
0.00270007
3.25368e-05
-0.00025636
0.000217359
-0.000158726
-0.000922943
-0.000341203
0.00346766
-0.00236523
5.08599e-06
0.00026319
-0.00308517
0.00142849
0.0016462
0.000103147
-0.000811671
-3.57885e-05
-0.0016099
-5.65648e-05
0.00159464
0.000205312
0.00150594
-0.00162989
0.000171842
0.00229593
-0.00248451
0.00245612
-0.00224583
-0.000241483
-0.000134561
6.35728e-05
0.000942092
0.000349628
-0.0013169
-0.00198894
0.000499956
0.00227497
7.57175e-05
-0.000624084
0.000542068
-0.000122732
-0.00101263
-2.07265e-05
-0.000623691
0.000567899
-0.00258773
0.00236874
-0.00126262
0.000207803
-0.00090008
0.00181999
-0.0012765
-0.000203368
-0.000919568
0.000249802
0.000555547
0.000109706
0.00153887
-0.00149653
-8.43829e-05
0.00256057
0.00201128
0.000240305
-0.00225928
-0.00221126
0.00240417
-0.000202945
-0.00161598
-0.00133853
0.000972388
0.000241958
-0.00174204
0.00162832
-0.00161831
0.000247841
-0.000930839
0.00016252
0.000737398
-0.00180189
0.0018727
0.00120491
-0.000285221
-0.00198205
-0.000221632
0.00219774
-0.00290802
0.00166933
0.00122407
-0.000431389
-0.000384998
0.000813309
-0.00235752
0.00250334
-0.000157428
0.000139321
0.00138614
-0.0015442
9.65085e-05
0.00200366
-0.00214539
3.21711e-05
-0.000265233
0.000228518
-0.000624514
-5.28864e-05
0.000668312
0.000127763
0.00137702
-0.0015093
-0.000588896
0.00165723
-0.000140714
-0.00230438
0.00241835
-0.000145323
-0.00202336
-0.00136507
0.000477105
0.000869093
0.000616069
-0.0021877
-0.00154839
-0.00145942
-0.000662858
0.00146533
-0.000249026
5.44674e-05
7.02403e-05
0.00165124
-0.00171426
0.0015185
-2.41702e-05
-0.00184513
7.75526e-05
0.00241749
1.20516e-05
0.000103876
2.99342e-05
-0.000125752
-0.000684566
0.000582845
1.66898e-05
-0.00209179
-2.1699e-05
0.00125189
-0.0013258
0.00264423
-0.00227114
-0.000381957
0.000164169
-5.70449e-05
-1.6951e-07
6.69616e-06
0.000273768
-0.000194073
0.00231797
-0.00213172
6.31187e-06
4.73123e-05
-7.45059e-05
-0.000131781
-0.00175178
0.000210857
7.81483e-05
-0.00175132
7.18044e-05
-0.000674326
0.000602016
-0.00163806
0.00131189
0.000230809
-0.000157486
0.00262818
-0.000743358
-0.000214211
-0.000734869
0.000642782
4.33818e-05
-0.000123021
-0.000776657
0.00227294
-1.85044e-06
5.19334e-05
-0.00248475
0.00229719
0.00242482
8.47203e-05
0.000128144
-3.67577e-05
0.000680911
-0.000720142
7.56611e-05
0.000537427
-0.000616142
0.000687516
-0.00208961
0.000100739
0.000104212
0.00185766
-0.00196427
0.000233802
0.00233634
-0.00257911
0.0022495
-0.00244793
-0.00026664
0.00227031
1.11505e-05
7.78673e-05
-2.35207e-05
0.000291822
-0.000276548
-0.000712221
-0.000102335
-0.000843866
0.000882922
0.00211168
-0.00231353
-0.000251765
0.00211646
-0.00186814
0.00273695
-0.00196943
-0.000774858
8.0162e-05
-0.000654263
0.000573629
0.000225844
-0.00250534
0.00226206
0.00126902
-0.000207099
-0.00106769
-6.80892e-05
0.000376881
-0.00222404
-0.000325108
-0.000594466
0.00208954
-0.000381715
8.62777e-05
0.000105011
0.00242709
-0.000666432
-0.000764053
0.00199109
-0.00200094
-1.28922e-05
-0.00173803
0.00192792
-0.00019457
3.16077e-05
-0.000257266
0.000221534
-0.00011576
8.62024e-05
0.000622982
-0.000717678
-0.00203119
-0.00275244
0.00230579
-0.00165857
0.000160754
-0.000733295
0.00028188
-0.000260513
9.23389e-05
-0.00078852
0.0029685
-0.00286594
-0.00010744
-8.63261e-05
-0.000209134
-0.000327858
7.06359e-05
-0.0006302
0.00055181
0.00111414
-0.00092954
-0.000212406
-0.000280455
0.000248884
-0.000226537
-0.000257012
-3.00379e-05
0.00237794
-7.95181e-05
-0.000575292
-0.000633264
0.000553221
-0.000347403
0.00152324
-0.00119679
0.00187293
-0.00210969
0.000230403
-0.00198838
0.00011218
-0.00136552
0.00153212
-0.000174373
-0.00188975
0.00122557
-0.000215431
-0.000160501
0.00255093
0.000239602
-0.000147151
-0.000134372
0.00160736
-0.00139598
0.00252813
-0.00116275
4.75398e-05
-5.97338e-05
-0.000877709
-0.000504569
-9.31464e-05
0.00184329
-0.00175129
0.00157305
-0.00129671
-0.000296517
-0.000128541
-0.00153688
3.04459e-05
-0.000273723
0.000237696
-0.00248048
0.00220085
0.000270084
-0.0024741
-0.0018291
0.00013622
-0.00153862
0.00138352
-0.00188045
0.000230992
-0.00225795
0.00135315
-0.000257913
0.000282749
2.46807e-05
0.000249223
0.0002377
-0.00215484
0.00191157
0.000137811
0.00105753
-0.00121315
-0.000122456
0.00203749
0.000146459
-0.000462503
0.000394116
5.51446e-05
0.000683841
-0.00060518
-8.0239e-05
0.000764104
0.00228049
3.29546e-05
-0.000265864
0.000228958
-8.81203e-06
5.49861e-07
6.01814e-06
5.34206e-05
0.000416594
-0.000479837
0.00131758
-0.00160069
-0.00063359
0.00278915
0.00207469
-0.00184233
-0.0015848
0.000211773
-0.00170371
-0.000653333
-0.00138358
-0.000928863
0.00229023
-0.00233539
-0.000302751
0.00262748
-0.00209079
-0.00100737
-0.00251671
0.00209252
0.000416722
0.00198719
-0.00224281
0.00216105
-0.00211055
0.00191786
0.000143139
0.0027493
-0.0022824
-0.00202042
0.000159483
-0.000202526
-0.00168846
-0.00197449
-7.92692e-05
0.00200688
-0.000191568
0.000114389
-0.000816136
0.000699863
8.00442e-05
8.22472e-05
0.00173307
0.000240538
-0.00197735
-9.62027e-07
-0.00195136
0.00194746
-0.00226333
0.000323768
-4.39178e-05
-0.000261711
0.00220712
-0.000350279
-0.000272641
0.000622078
0.000178948
0.00171798
-0.00192351
6.87025e-05
-0.00209085
0.000628713
-0.000565451
-0.00248309
0.00243508
5.24187e-05
-0.000980349
0.00174745
0.00017975
0.00188389
-0.00178193
8.29499e-05
0.00235186
-0.00245624
0.00182235
-0.00176916
-0.00200284
-0.000217586
0.00221448
0.00190034
-0.000170507
-0.00251374
0.000145145
-0.00224659
0.00209355
-5.96893e-05
-0.000879216
0.000931764
-0.00121597
0.00135987
-0.000961174
-0.000263608
-0.00257231
0.00238406
0.000160237
0.00222631
0.000166601
-0.00144621
0.0015634
0.000165413
-4.50381e-05
-0.00236258
0.000635582
-0.000588002
-0.00189326
0.00200093
-0.00222879
-0.000657027
-0.00167202
0.00184564
-0.000181511
-0.000344228
-9.59139e-05
0.00204579
-0.00207453
-0.000127217
0.00177575
-0.00117824
0.00122668
-8.81408e-05
-0.000168949
0.00127795
0.000252599
0.000760343
5.02481e-06
-0.000838862
0.00237388
0.000151397
-0.00017309
0.000354078
0.00155773
-5.31126e-05
-0.000224104
-0.00119628
-0.00087365
0.00206192
0.000248086
0.00228072
-0.0025367
-0.000717815
8.38334e-05
3.87345e-07
1.00479e-05
-1.05765e-05
-0.00178505
0.00158134
0.000870496
-0.000383477
-0.000488905
0.00199347
-2.81184e-05
-0.00187854
0.00178425
0.00235957
-0.00222262
-0.000142514
0.00191071
0.000154511
0.0023728
-0.000154852
-0.000231025
-0.00236653
-0.000193104
0.0025925
-0.00210795
0.000223559
0.00187813
0.000905382
0.00205891
0.00223501
0.000152651
-0.00233664
0.00249054
-0.000450761
-0.00204267
0.00260118
-0.00237036
-0.00025176
4.31698e-06
-1.59668e-06
1.25692e-05
0.00244024
-0.00246445
-0.000249424
0.00257641
-0.000167359
0.00208974
-7.48019e-05
-0.00204815
9.22017e-05
-0.00239941
0.00233446
0.000377983
4.84501e-05
0.00234561
0.000130566
-0.00249284
0.0015562
0.000215479
-0.00182415
0.00293937
-0.000125577
-0.00282856
-9.9324e-05
-0.000750319
-0.000589647
-0.000862018
0.00244812
-0.000894248
-0.00231076
0.0024662
-0.000560598
-0.00206019
0.0021128
-0.00012501
-0.00190979
0.00172093
0.0024975
-0.00242179
0.000596443
-0.00168105
6.43991e-05
-0.000233343
-0.00257381
0.00136898
-0.00252415
0.000502507
0.0020025
-0.000246067
0.00194578
-0.000129054
0.00194409
-0.00191905
-8.88562e-05
2.64467e-05
0.00155468
-0.00158542
-0.000153218
0.00250934
-0.00136097
0.00235558
-0.00254267
-0.00211475
0.00250471
-0.0022816
-0.000225754
0.000212317
0.00233526
-0.00256109
-0.00022298
-0.000448447
-4.40197e-05
-0.00182652
0.00186586
0.0022783
-0.0021242
0.00178534
8.25742e-05
0.00241961
-0.00250769
-0.0005325
0.000605195
-9.18778e-05
-0.00220921
0.000202361
0.00185924
-0.000165901
0.00198409
-0.00204532
0.00232213
-0.000107474
0.00246271
-0.00236161
8.73199e-05
-0.000638775
0.00238818
-0.00252423
0.00125117
-0.00126094
-2.73815e-05
0.00269807
-0.000117311
-0.00174282
9.61786e-05
-0.00015673
0.00263598
-0.00218139
0.000777825
0.000126115
-0.000187698
0.00205595
-8.56635e-05
0.00234768
-0.000133593
0.00224549
-0.00240065
-1.62591e-05
6.88481e-05
-6.47164e-05
0.00156121
-0.001523
-0.000102893
-0.000310151
0.00118605
-0.000263816
-0.00158353
0.00183726
0.000128155
0.00236271
-9.4837e-05
0.001937
0.00161233
0.000105606
0.00224526
-0.000102895
0.000254738
0.00166912
-0.000135546
0.00249415
-4.03482e-05
0.00202108
-0.00179458
0.00166468
0.00241185
-0.00252554
0.000390655
-0.000244533
-0.000201747
0.00253207
0.000826844
-0.000714441
7.65731e-05
0.00177106
-0.00185008
-0.00223523
0.000108021
-0.000212859
1.77636e-05
0.00018574
-0.00161788
-0.000126653
-0.000207083
0.00231167
2.18755e-05
0.000143343
0.00111933
-0.000553845
-0.00147165
0.00234457
-6.89142e-05
-0.00230271
-0.000134596
0.00246483
-0.001102
-0.000136925
0.00122438
0.000401132
-0.00273344
-0.00264756
0.000301457
-0.00208577
0.00209788
-0.000205879
-0.00191625
-0.000284609
0.00234663
-0.00206955
0.00013351
-0.00125024
-0.000690782
0.000770615
-8.8831e-05
1.91858e-05
-0.000211758
0.000183883
-0.00205318
-1.82112e-05
-0.000201937
0.000210413
1.73431e-05
-0.000211518
0.000184518
-0.00176349
0.00183766
-0.000135817
0.0023286
-0.00251375
0.000174949
-0.00224021
-0.000210324
0.000182395
0.000175118
0.00234481
-0.0025348
1.81875e-05
-2.49117e-05
-6.90812e-07
-0.00137927
-0.00154468
0.00151921
-0.00154592
-5.42516e-05
-0.00274646
-0.00214305
0.00201837
0.00012343
-0.000202602
-0.000117586
0.00253397
-0.00244855
0.000119808
-0.00229852
-0.000293738