/*--------------------------------*- C++ -*----------------------------------*\
| =========                 |                                                 |
| \\      /  F ield         | OpenFOAM: The Open Source CFD Toolbox           |
|  \\    /   O peration     | Version:  v2012                                 |
|   \\  /    A nd           | Website:  www.openfoam.com                      |
|    \\/     M anipulation  |                                                 |
\*---------------------------------------------------------------------------*/
FoamFile
{
    version     2.0;
    format      ascii;
    class       surfaceScalarField;
    location    "300";
    object      meshPhiCN_0;
}
// * * * * * * * * * * * * * * * * * * * * * * * * * * * * * * * * * * * * * //

dimensions      [0 3 -1 0 0 0 0];
oriented        oriented;


internalField   nonuniform List<scalar> 
14516
(
-0.000735687
-0.00219423
0.00300023
-1.93259e-06
-5.50805e-05
6.87221e-05
0.00248039
-0.00313693
0.00104376
-0.00130142
0.000218876
0.00372739
-0.00254708
-0.00112635
-0.00331191
0.000412316
0.00289776
4.77614e-06
1.11509e-05
0.000125594
-0.000183912
1.24075e-05
3.66473e-05
0.0027317
0.00026448
-0.00307714
0.00155461
0.00223951
0.00277211
-0.00342708
0.000678141
0.00255144
-0.000187463
-0.00235404
0.0010926
-0.000178725
-4.6906e-05
-0.000741719
0.000750847
0.000128207
8.94367e-05
-0.000671021
-1.41471e-05
0.000663771
-0.0025073
0.000816712
0.00159659
-0.00086222
-0.00162316
0.00340265
-0.00034125
-0.00301001
-0.000755982
-0.000252824
-0.00296126
0.00322427
0.000427408
-0.00367641
0.00315285
0.00146071
-0.000497898
-0.000961963
1.97459e-05
-1.97459e-05
0.00175398
-0.000244076
-0.00151038
0.000693789
0.000202429
0.000599179
5.1376e-06
-0.000614979
-4.79856e-05
-0.00150844
0.00148382
-0.00433852
0.00145542
0.00292002
0.00283757
-0.00022031
0.00280564
-0.00330588
0.000538286
0.000286102
0.00118714
0.00167668
-0.000348104
-0.00124815
-1.5218e-05
-2.27681e-05
5.34118e-06
0.00160654
-0.00493396
0.00334537
0.00334501
-0.000374203
-0.00294374
5.81727e-07
1.83071e-05
-0.00319439
0.00352352
0.00107422
-0.000764799
-0.000267704
-0.000104948
0.000445882
-0.000541684
0.0036244
-0.000789132
0.000425537
-8.65175e-05
0.000417364
-0.00075365
0.000148108
1.50377e-06
2.46008e-05
1.5245e-05
0.000284799
-0.000156363
-0.000198572
-0.00272429
6.36865e-05
-0.000656416
0.000587891
-0.000362611
-0.00242081
0.00273523
-0.000308589
-0.00101177
-0.00226083
-0.00264959
5.34813e-05
-0.00281201
0.00276679
0.00338257
-0.000802816
-0.00262469
-0.00404612
0.0041781
-0.000162642
0.000371676
-0.00232264
0.00197381
0.0029605
-0.00299617
8.89717e-05
-0.00171868
0.00181877
-0.00270635
0.000688913
0.0020346
0.00224994
7.79869e-05
-0.00226076
0.000656037
0.000303686
7.79722e-06
0.000147765
-0.000238696
0.00360695
-0.000564245
-0.00308634
0.00242364
-0.00277926
0.000343516
4.12801e-07
0.000107175
-0.000118979
0.00214456
0.00112309
-0.000199244
-0.00156487
0.00175188
0.00304037
-0.000608227
-0.00260112
0.00286625
-0.000299211
0.000348842
0.00222296
-0.000223631
0.0030048
-0.00229219
0.00268786
2.05652e-05
-4.87915e-15
-2.2008e-05
0.00188463
-0.000394052
-0.00174288
-0.000219965
0.000180569
2.85666e-05
0.0010284
-0.00325356
-4.96057e-05
0.00235802
-0.000274586
-0.00219101
0.00237437
-1.3974e-05
2.69231e-10
1.71755e-05
-0.00126728
0.000285192
0.000886943
-0.00212926
0.000624918
0.00146033
-0.00127232
0.00106996
-0.00125925
0.000282277
0.000950758
3.22003e-05
-5.67252e-08
-2.21643e-05
-1.11989e-05
-0.000888265
0.000896802
0.00334593
0.000279092
5.63676e-05
-0.000703186
0.000657083
-0.00150759
-0.000704999
5.69087e-06
-0.00251871
0.00240553
-0.00322885
0.0033676
-0.000145033
0.00121235
-0.000276067
-0.000920175
-0.000122925
0.000131348
-0.000300796
-0.00254153
0.0028622
0.00128243
-0.00103875
-0.000261284
0.00145112
-0.00115556
0.000332813
-0.000957178
0.000943462
0.00303666
-6.49749e-05
4.55965e-05
3.46663e-06
0.000377864
0.000910668
0.000130298
-0.000596434
0.000456366
-0.000468791
0.000591515
0.00147375
-0.000263776
-0.001212
0.00183012
-0.000376342
-0.00142717
0.00145357
0.000400931
4.93739e-06
-3.52987e-07
0.00355073
-0.00023768
0.00384808
-0.000541388
0.000134754
-3.0244e-06
-0.000228006
0.00282257
0.000568765
-0.000112639
-0.000523698
0.000604303
8.5134e-08
1.8492e-05
0.000107632
0.00274264
-0.00287383
0.00308074
-0.00227943
-0.000695855
0.003437
-0.00266185
0.00271971
-0.00265828
-0.00206627
0.000243536
-0.00145734
0.00128367
-0.00219616
0.00326073
-0.000227983
-0.00105452
0.0012618
0.000237138
0.000447453
-0.000589676
-1.41216e-05
3.28053e-06
3.43576e-06
0.00331037
-0.00337126
0.000105629
-0.000115588
-0.00320713
-0.000177481
-0.0032717
0.00341079
-0.00301474
0.00277166
-0.00258972
0.000613009
0.00200084
0.000808859
-0.000742356
-0.000217028
-0.00112763
-0.00269976
0.00065858
0.00186683
2.45415e-06
1.97567e-05
-2.35287e-05
-0.00228723
-0.00136758
-0.0014881
-0.000162809
-0.00140967
0.00150788
0.00219927
0.000579071
0.000106705
-0.00262504
0.00242745
-8.71774e-05
-1.63943e-05
4.84009e-05
-1.41148e-05
0.000344296
0.00294778
0.000145518
-0.000156797
-2.89752e-06
2.01511e-05
0.00327942
0.00169846
-0.000168167
-0.00154812
-1.52496e-05
0.000198838
-0.000180481
-0.000123658
0.000532831
-0.00045577
-0.000816779
3.17766e-05
6.33496e-05
0.000812561
-0.000896942
1.82032e-06
3.73019e-05
-2.67346e-05
0.000496973
-0.000672224
0.00174143
-0.00049067
-0.00123539
0.00230114
-0.00258443
0.00213561
0.000490561
-0.00258429
-1.39086e-05
1.48027e-05
0.00282469
-0.000633761
-0.001146
0.00277266
0.00047351
0.00128441
-1.08581e-05
-7.88148e-06
-1.50128e-05
0.000152774
-0.000124472
0.000226608
0.00144321
-0.000132868
0.000605333
0.000384071
-0.000401159
-0.000346759
-2.48342e-05
0.00131864
-0.00143193
3.95112e-05
0.000501249
-0.000572678
-0.000643864
0.00389425
-0.00322746
-0.00013049
4.83979e-05
0.000100686
-0.00347845
0.000572031
-0.000642951
-0.00464095
0.004261
0.000370846
0.000623487
-4.14903e-05
0.000214615
-0.00140538
0.00113279
-0.00228004
0.000735362
0.00166305
0.000716349
-0.00139968
0.000704384
-7.57097e-05
-2.46181e-05
-0.000580261
0.00134281
-0.000366835
-0.00295193
0.00325664
0.00277652
-0.00250115
3.00375e-05
-1.95978e-05
-4.03532e-06
0.000437727
-0.00217879
0.00166415
0.0047536
-0.0022007
-0.00256851
0.00228789
-0.00171564
-0.000560595
-0.00324081
0.00297689
0.000226551
-0.000626073
0.00156259
0.00226271
4.70277e-05
-0.00224926
0.00168174
1.02032e-06
-0.000595834
-0.00208241
-0.00149803
0.00185975
-7.94741e-05
0.00326016
-0.003122
-0.00054964
0.000558055
-0.00342214
0.00299419
0.00295143
-4.68187e-05
-0.00308544
0.00241312
-0.00282881
-0.00272549
0.00281175
0.000392832
0.00113929
0.00358379
-0.00411767
0.00104565
0.00311132
-0.000112671
-0.0010647
0.00115117
-0.00288363
0.00181626
8.38392e-06
0.000136641
0.00257674
-0.00042292
-0.00119637
-0.00220725
0.00343873
-5.02082e-06
-0.00291523
-0.00206769
0.00151432
0.000420692
-0.00018226
-0.00250796
1.19215e-05
2.05303e-07
-0.000132738
2.43009e-05
0.000622445
-0.000689215
0.00313914
0.000343445
-0.00380743
-9.05542e-05
0.00379179
0.000209771
0.00325243
-0.00344684
-0.000171884
0.00250793
0.000275125
-0.00271825
-0.00304422
-0.00106217
-0.00182894
-0.00226658
0.00015363
-0.000155437
-0.000165985
-0.00115759
0.00123146
-0.000134278
0.00244148
1.78469e-05
-7.07594e-07
0.00266692
-0.00249438
-0.000141566
-0.000205258
0.0032505
-0.00294716
-0.00104489
-0.00196537
0.00289941
-0.0031635
9.87983e-06
0.00269674
-3.4186e-05
-0.000857861
0.00272083
-0.00295909
0.00337005
-0.00165748
0.00123182
0.000412007
0.00272294
-0.00284173
0.000298313
-0.00285711
0.00256452
8.26254e-06
7.19819e-06
-6.03903e-06
-7.86986e-06
-0.000836494
-0.00245515
5.78873e-05
-0.000102116
5.65672e-05
-0.00287393
0.000546194
0.00233663
0.00244907
0.000229102
-0.00286192
0.00291113
2.89209e-05
0.00217801
-0.00205066
-4.8188e-05
9.44389e-05
0.00295502
0.000300799
0.000991463
-0.00127483
0.00328207
-0.000241168
4.58872e-05
-0.000782323
0.000704709
1.05471e-05
0.0014579
-0.00140046
0.00155922
0.00012699
-0.00203847
-4.14624e-06
0.00202276
-0.0014919
0.00102366
-8.81584e-07
-0.000173793
0.00180628
-0.00159119
-0.00111041
-5.83085e-05
9.3122e-06
0.000401452
0.0024769
-0.00290882
-0.00449286
0.000517822
0.00395837
-0.000238128
0.00296452
0.000409593
-0.00259389
0.00219298
-0.00157549
0.00185763
-0.000155436
-0.000167923
0.00371862
-0.00362659
-0.00250914
0.00211739
0.000417745
-0.00125089
-0.00325865
-0.00019074
-0.00266006
0.00287774
-0.000108042
-0.000623767
0.000671931
0.000554927
0.000190345
-0.000767613
8.97716e-05
-0.00283776
0.0026053
0.000102708
-0.000134123
-6.02596e-06
-0.00104692
-0.00359395
7.48893e-06
-1.19624e-05
1.21434e-06
-1.54534e-07
-2.75705e-06
-0.00304952
0.00327347
0.00112342
-0.00330304
-0.00321067
-0.000700613
0.00396947
-0.00058479
0.00042984
-6.16351e-05
-0.000460454
0.000542062
-0.00515637
0.00142368
0.00374342
-0.000343493
-0.00224381
0.00246276
8.13225e-05
6.00309e-05
-0.000151255
-3.07122e-05
0.000105397
-0.00160414
0.00012657
-0.00287396
-6.96411e-05
0.00112471
-0.0013137
-0.00216977
0.000148957
0.0016606
6.10325e-06
-2.73375e-05
1.04743e-05
1.51335e-06
-7.84577e-05
3.76743e-05
-0.000619488
0.000336529
0.00132828
-0.00246548
-0.00270706
0.00307851
-0.00557105
0.00235274
0.00320751
-2.18739e-05
-0.000521697
0.000638264
0.0024203
-0.00267048
-0.00235473
-0.00106581
0.00136916
0.000472706
-0.00346791
0.0030967
3.90384e-05
3.78609e-06
1.76147e-06
7.24177e-07
0.00134268
-0.00156316
0.000237555
-0.00363445
0.00334752
-0.00261721
-0.00297414
0.00171663
-0.0020996
6.78179e-05
-0.00198449
-0.00099035
0.00305672
-0.00117309
-0.000852633
-0.00105217
0.00186564
0.00139693
0.000100618
-0.00156828
6.29105e-05
-1.34491e-05
8.48508e-05
-9.34371e-06
-9.92051e-05
0.000183486
0.000364943
-0.000597588
-0.00166015
-0.00348831
-0.0024097
-0.00135176
0.00373417
-0.00168538
0.00166687
2.61511e-05
0.000685016
-0.00156667
-3.29794e-05
0.00138533
-0.00173325
-0.000384136
0.00051987
0.00120823
-0.00364614
0.00339395
-0.000165111
-0.00327668
-0.00357696
0.00284771
0.000685089
0.00105035
0.000180173
0.000771418
0.00160651
-0.00149942
-0.000155379
-0.00475338
0.00404807
0.000693185
-0.0042973
0.000404742
0.0014497
-0.00139469
-0.000113708
-0.000155235
-0.00423345
0.00190273
0.00234252
-5.10941e-06
0.000180205
9.8147e-06
5.85932e-06
0.000900462
0.00140125
0.000369089
-0.00380175
0.00336862
-0.00214256
0.0022861
0.000716301
-0.00285612
-0.000435957
0.000492088
-6.47082e-05
0.0028524
-0.00251859
0.00350965
0.00127433
0.000143372
0.00291908
0.000263315
0.000463297
0.00166366
-0.00210855
0.000576123
-0.000652325
-0.000108327
0.000399358
-0.00044634
0.00182125
0.000799512
-9.72804e-05
-0.000100874
0.000177849
-0.00173474
0.000172655
-0.00376387
0.00234716
0.00147765
0.000640508
-0.00228891
0.00134691
8.47088e-05
0.00118047
-0.00105145
0.00137063
-0.000611124
0.000576665
-3.81402e-06
0.00325137
-0.00386888
0.000508452
0.000376731
-0.00268486
-0.0034561
0.000114261
0.00331355
0.00259002
-0.0033134
0.000687887
0.00341478
-0.00342627
-3.20832e-05
-0.00130955
-0.00166106
0.000338706
0.00125253
0.000916492
0.00320659
-0.00372656
0.00391563
-0.00020322
3.0056e-05
-0.00404748
0.00176001
0.00232565
0.000273769
-0.0025396
-0.00252569
0.00195275
-0.0018766
-0.0021252
0.00375523
-0.000597643
-0.00115616
0.00160155
-0.00042938
0.00125502
-0.00306517
0.00019583
-0.000257558
-0.000218871
0.00075911
0.0012064
-0.000172694
0.000105471
-3.47417e-05
-0.000108579
0.00142968
0.00302613
-0.000197877
-0.00197667
-0.00223742
0.0030889
-0.000550329
-0.000732861
-0.00212547
0.00215369
-0.0025033
9.58648e-05
-0.00203418
0.00188635
-0.0012023
-6.84096e-05
0.00108704
-0.00133996
-0.00351289
0.000460849
0.00304995
0.000115415
0.00321431
-0.00345163
-0.00388875
0.000686213
0.00309892
0.000125588
0.0023442
-0.000223886
0.00150385
0.000432158
-0.00395452
0.00343154
-3.38241e-05
-1.66631e-05
5.35836e-05
0.000253623
2.13811e-05
-0.000616122
-0.00304529
-0.00043864
0.00355525
-0.000679587
-0.000970355
0.00202842
-0.003321
0.00121647
0.000147693
0.00210671
2.99384e-05
0.000847104
-0.000871753
0.00317906
0.00276711
-0.00246522
-0.000104543
8.00553e-05
7.45309e-06
-5.72515e-06
-0.000183889
0.000153274
0.00236159
-0.000514676
-0.00268504
0.00282484
-0.000130046
-0.000831278
0.000866309
0.000757902
-0.000742942
-0.000352773
0.00250356
-0.00216625
-0.00153439
-0.00124957
0.00282179
0.000459759
-0.000502082
-0.00306621
0.00243984
-0.00192492
-1.21651e-05
-0.00373643
-5.1144e-05
0.000532649
0.00334533
0.000172894
-0.00347983
-0.0011626
0.00165734
-0.000947622
-0.00258072
-0.00290825
-0.000639475
-0.00105362
0.000559941
8.6627e-05
0.000946559
-0.0010453
-0.00326517
-0.00115844
0.00123379
0.000213546
0.00099753
0.000634923
-0.000828712
0.000870647
-0.00287574
0.00337546
-0.000464497
0.000942086
-0.00125476
-0.00118506
-0.00244056
-0.0023275
-0.00346151
0.00305395
0.000278675
-0.00259643
0.00242881
-0.00333048
0.000528261
-4.39434e-05
0.00095469
-0.00316067
-0.000435038
0.000880388
-0.000390524
-0.00404321
0.00279681
-0.000542916
-4.94074e-05
0.000575725
-0.000609273
0.00124991
-0.000629123
-3.56021e-05
0.000612563
-0.0012299
-0.00104307
0.00120073
0.000143402
-0.00247343
0.00228379
1.93837e-05
0.000245226
-0.000160113
-6.623e-05
0.000109275
-2.26555e-05
-0.00105551
0.00300244
-0.00226468
0.00227323
0.000917098
-0.00105436
0.00270185
-0.00239779
5.02602e-05
-0.00138986
-0.000923536
-0.0034607
-0.00348092
0.00198489
-0.00230527
-0.000991565
0.00287932
-0.000299498
-0.00255515
-0.00253174
0.00228373
-0.00382582
0.00282096
-0.00143644
-0.00131585
0.00218922
-0.00383499
0.00164701
-0.00285013
0.00379898
-0.000135762
0.0035284
5.99425e-08
-0.00119904
0.0014082
-0.000197778
0.00098769
-0.00136209
0.00127612
-0.00108908
-0.000117108
-0.00294814
0.00222983
-0.00353014
0.00018942
0.000857653
-0.00112953
0.0033756
-0.00339293
-0.0018653
0.00152013
0.00010676
-1.681e-05
6.02512e-06
0.00263726
-0.00252783
-0.00389898
0.00292999
-0.00239278
0.00230197
-0.00134662
-0.00046975
-0.00503643
0.00339099
3.27994e-07
-1.63732e-05
-9.22522e-05
3.55475e-05
-1.814e-06
2.46403e-05
-2.98311e-05
0.0011143
0.00380292
-0.00162897
-0.00130273
0.000127192
0.00122284
4.83462e-05
0.000507205
-0.000539409
-3.51471e-05
6.28933e-05
0.000259017
-0.00242514
0.00216568
0.000666457
-0.000242274
0.000401761
-0.000333859
0.00132052
0.00163127
-0.00138804
0.00141962
0.0027245
0.000286211
-0.00318321
-0.00224492
-0.000493709
-0.00243613
6.31556e-05
-0.000112838
-1.97205e-05
8.61743e-05
-0.00353199
-0.000537094
-0.0023326
-0.00202615
-0.00205024
-3.2712e-06
-2.15625e-05
3.03017e-05
0.000214433
-0.000484667
-8.74816e-05
-0.00121593
0.000141092
-0.0016892
-0.00162149
0.000123707
3.73019e-05
-0.000235207
-0.00257575
0.000128498
-2.37612e-05
-9.63202e-05
-0.00215869
0.00492482
-0.0025829
-0.0023403
-0.000260124
0.00100265
-0.000757137
-0.00333566
0.00391274
-0.00104326
0.00123469
0.00285438
-0.000135071
-0.00153383
4.56447e-06
0.00244334
-0.00243749
6.90536e-05
0.00178369
-0.00170717
-0.00255305
-0.000299203
0.00321108
5.84891e-05
-0.00361987
0.00303909
0.000597938
-0.00154458
0.00136146
-0.00332007
0.000661885
-0.000935441
0.0021299
0.00294228
-0.000214371
0.000874433
0.000169057
-0.00106819
0.0012834
3.72415e-05
-0.0013848
-0.0020735
0.00192633
0.00127469
-0.000530755
-0.00075569
0.00106138
-0.000192936
0.00253585
-0.000790101
-0.00189584
0.0002787
0.00103482
1.4301e-05
-0.00203791
0.00204753
0.00289325
-0.000568248
0.00120483
-1.60057e-07
0.00152362
-0.00144812
-0.000111726
-0.00312991
0.00317208
-0.000143076
-1.90585e-07
8.71243e-06
0.00138142
0.000920705
-0.00274155
-0.00023811
0.00298887
-0.00209723
-0.000400167
4.23276e-05
-0.000476568
0.00119812
-0.00124241
2.95465e-05
0.000133786
-0.00280323
0.00366496
-0.00369016
-0.000114147
-8.66258e-05
-0.00057283
0.000673744
0.000629614
-0.00433041
-8.75301e-06
-0.00174914
-0.002253
-0.0024295
-0.00225105
0.00205661
-1.61311e-05
1.3131e-05
0.00351774
-0.00194647
0.0042803
-0.00231375
-0.000177646
0.00244766
0.000237675
-5.81814e-05
-0.000975443
0.00173325
0.000203519
-1.82074e-05
-0.000170745
-0.00160738
0.000448993
0.000297292
-0.00248201
0.000104413
-0.00140921
0.000412279
0.00241602
-0.00280888
-0.0015446
-0.00206276
0.00234924
-0.00233434
-0.00362368
0.00353803
0.000256646
-3.20484e-05
-0.00298681
0.00269556
0.00029992
0.0012794
-0.000108972
-0.000823903
3.96022e-05
0.000740274
-0.00335341
0.00300513
0.00033161
0.00219139
0.000182445
-0.00241524
6.76144e-05
-0.000530582
0.000430572
-0.000533851
0.000622391
-0.000107501
3.56967e-05
-7.90736e-05
-0.000216112
0.000152185
-0.00224348
0.000404539
0.00185557
-6.01296e-05
0.000592875
-0.000546555
0.000168119
-0.000198784
-6.97088e-06
-0.00290505
0.00281539
5.80489e-05
-0.00251547
-0.00183892
0.00427519
-0.00279006
-0.00182286
0.00124368
-0.00277555
3.68794e-05
0.00259455
0.00328022
0.000212441
0.003258
-0.000179929
0.00262024
-0.00291598
0.00113205
-0.000665201
-0.000498072
-0.00140516
0.000206341
0.00336213
-0.00204022
-0.00129602
0.000810011
0.000110256
-0.000193721
-0.00284574
-0.00218743
0.00226657
-0.00263177
0.00338469
-0.00318824
-0.000462577
0.00361425
-0.00199327
0.0020407
0.00206647
-0.00402314
-0.00335743
0.00245231
-0.00412249
0.00153344
-0.00106789
0.00124792
-0.000114181
-0.0012979
0.00337053
0.000336898
-0.00486129
0.00359454
0.00325831
7.91032e-05
-0.00233574
-0.0016158
0.00199122
-0.000274318
-0.001712
-0.000251816
0.00239583
-0.00220966
-0.00327361
0.000429419
0.0029197
-0.00345986
0.000537081
-0.00015008
0.000273224
2.3671e-05
-0.00292358
-1.88293e-06
-0.000526606
0.000388452
-0.00128203
-0.000117077
0.00146539
0.000161493
-0.00132625
0.00176073
-0.000720337
-0.000503345
0.0012202
4.07846e-06
-4.07846e-06
0.000117986
-0.0013304
0.000628305
-0.000259378
-0.000752112
0.00100816
0.00384147
4.30148e-05
-0.00395784
0.000132677
-2.04372e-05
-0.000135612
-0.00245473
0.00218722
0.000133081
-0.000147908
6.7809e-05
-0.00286341
-0.000153272
0.00394206
-0.0016187
-0.00179066
-0.000501803
-0.00246613
5.3285e-05
4.96997e-06
0.00174388
0.000223263
-0.00205296
-0.00317362
0.00307656
-0.000883907
0.000821284
8.7466e-05
-0.00041652
-4.75807e-05
0.000451701
5.65887e-07
0.000122843
5.05055e-05
-0.000472215
0.00134829
-9.42303e-05
0.00174922
-0.00206017
0.000513557
-0.000585966
-0.003056
0.00330922
-0.000224363
3.31487e-05
-7.07562e-05
0.000300976
0.000116787
-0.00285357
0.00273388
0.000109024
-0.000191349
0.0023579
-0.000832535
0.000110986
0.000606274
-0.000510798
0.000478459
0.00301994
-0.00232772
-3.75904e-05
1.47227e-05
0.00301163
-0.00246574
-0.000543479
-0.000605506
-0.00162244
0.00118041
-0.00142466
-0.000467393
0.000271235
0.000266323
7.2149e-06
-1.43726e-05
-0.00108749
0.00178663
8.68408e-05
-0.000222671
-0.00068659
-0.00224347
0.00257479
0.000133274
0.00139616
-0.00119317
-0.000334719
0.00153613
0.00251713
0.000484687
0.00203109
0.000713463
-0.00277284
-0.00131101
0.0014742
-0.000164895
0.000355526
-0.00139229
0.00106958
-0.00058351
5.70821e-05
-0.000105273
-1.01655e-06
-0.00233127
0.0027341
-0.00258006
-0.000137044
-4.80265e-05
-0.000134618
-0.00192962
-0.00086324
0.00287728
-0.00254459
0.00164452
-0.00191406
-7.11334e-05
0.00109214
-0.00107046
0.000946143
-7.5838e-05
-0.000886691
-0.00290718
0.00269806
0.00191377
-0.000220772
-0.00514031
0.00222862
0.00287645
0.00361976
-0.000271037
0.00162776
0.000531649
-9.58156e-05
0.000983431
-5.06869e-05
-0.00245435
0.00254899
-8.96359e-05
0.000104303
0.00116559
0.000344172
0.00235269
0.00171335
-0.0018501
0.000152181
-0.00114955
0.000896652
0.00055599
-0.000633045
-0.000833732
0.00121844
-0.00137574
-0.000105951
0.00145625
-7.0415e-05
0.000639936
0.00123448
-0.00131307
0.000106731
6.18452e-05
-0.000771152
0.000696336
-0.000433624
-0.000829479
0.00123614
0.00287335
-0.00305546
0.000169852
0.000935676
-0.00198257
-0.000560759
-0.000132232
-8.90836e-05
-0.000742823
0.000722104
-1.46295e-05
-1.44591e-05
-3.14305e-05
0.000262256
-0.00128352
0.00094691
4.84072e-05
0.000525969
-0.000172134
-0.000580243
0.000514795
-0.00133698
0.000147098
0.00118418
0.00281208
-1.0149e-05
0.000965272
-9.9106e-05
-0.000863448
2.72258e-05
-0.00325477
-1.88278e-05
0.00290353
5.6354e-05
-0.00140603
0.00136788
-7.00012e-05
0.00344076
0.00250927
-0.000178596
-0.000231193
0.00310038
-7.27411e-05
-0.00195123
0.00203977
-0.000551399
-1.72035e-05
-2.60039e-05
-0.000108557
0.000924737
-0.000858133
-0.00350593
-0.000249162
0.0037127
-0.000494353
0.00213508
0.000200663
0.000419909
-0.000691109
0.000807323
-0.000101105
-0.000718423
-0.00123561
0.00095349
0.000262892
-0.000552005
-0.000125479
-0.000951277
0.000801176
0.000764105
-0.00122365
-4.87106e-05
0.00208283
-1.22773e-05
0.000990087
-0.00287589
-6.99867e-05
-0.00161064
0.00340057
0.000209271
-0.00257002
0.00245343
-0.00251893
0.00281899
4.7762e-05
-0.000342275
0.000287504
-0.000197418
-0.00104843
-0.000445774
0.00375228
-0.00250824
1.65609e-06
1.09928e-05
-0.00397063
0.00180184
0.00204466
8.48988e-05
-0.000630207
-6.39949e-05
-0.000505313
-2.67334e-05
0.000590761
0.000158696
0.00094845
-0.00106275
0.000149968
0.00196273
-0.00215376
0.00370165
-0.00333969
-0.000359645
-0.000290476
0.000173431
0.000251674
0.000109429
-0.000488579
-0.00153149
0.00037919
0.0028834
8.37431e-05
-0.00067358
0.000580406
-0.000111158
-0.000771882
3.59207e-06
8.93517e-05
-0.000230318
-0.00235265
0.00213432
-0.000990341
0.000198051
-0.00140877
0.0028908
-0.0011392
-0.000184615
-0.000757869
0.000199427
0.000662253
0.000135059
0.000990645
-0.0010235
-5.34976e-05
0.00298265
0.00324442
0.000379452
-0.00364469
-0.00294905
0.00320137
-0.000276242
-0.00280188
-0.00313145
0.002288
0.000535095
-0.0021224
0.00199737
-0.00155599
0.000242141
-0.00167898
0.00028504
0.00142865
-0.00133644
0.00141028
0.000186281
-6.16734e-05
-0.00148877
-0.000160562
0.00159472
-0.00363258
0.00209239
0.00147858
-0.000406119
-0.000341015
0.000724688
-0.00362351
0.00382997
-0.0002391
0.000129917
0.00136742
-0.0015024
6.40967e-05
0.00131048
-0.00150193
3.18343e-05
-0.000246885
0.000202978
-0.000691171
-6.21131e-05
0.000761841
0.000127137
0.00137925
-0.00148303
-0.000497035
0.00143166
-0.00018661
-0.00328356
0.00335502
-0.000241464
-0.00334654
-0.00192802
0.000668638
0.00125912
0.00091019
-0.00335203
-0.00265897
-0.00250932
-0.000748908
0.00166239
-0.000124561
5.37281e-05
1.91542e-06
0.00201978
-0.00207676
0.000876732
-1.52348e-05
-0.00254802
0.000106865
0.00222137
1.30857e-05
9.86618e-05
-5.23842e-05
0.000217606
-0.000121582
-2.35053e-05
2.024e-05
-0.00254244
-1.43305e-05
0.00105026
-0.00106673
0.00424551
-0.00372238
-0.000617394
4.55334e-05
-2.04417e-05
-1.86431e-07
1.19258e-06
0.000549508
-0.000307029
0.00373285
-0.00335832
2.23474e-05
0.00015893
-0.000230551
-0.000149035
-0.00115907
0.000141512
1.95232e-05
-0.000604543
9.71937e-05
-0.000912527
0.00079203
-0.000266909
0.000202586
3.60113e-06
-0.000171458
0.00295572
-0.00126305
-0.000401291
-0.000655719
0.00059499
5.35922e-05
-0.000164201
-0.000514534
0.00140368
-3.22597e-06
0.000150609
-0.00257654
0.00239705
0.00328261
0.000116333
0.000195446
3.36252e-06
-0.000182331
1.6132e-05
8.64913e-05
0.000600662
-0.00085203
0.000925894
-0.00159625
7.70427e-05
0.000133226
0.00240129
-0.00251105
0.000210698
0.00203809
-0.00225681
0.003376
-0.00366876
-0.000437457
0.0036463
2.47813e-05
0.000181826
-4.608e-05
0.000578094
-0.000555696
-0.000752801
-0.000105431
-0.000839984
0.000832714
0.00335911
-0.00359906
-0.000340963
0.00286633
-0.00251043
0.00425612
-0.00314065
-0.00121425
0.000107896
-0.000853782
0.000730196
0.000215604
-0.00239126
0.00214584
0.00138891
-0.000222265
-0.00113147
-0.000124555
0.000597862
-0.00295694
-0.000426692
-0.000822661
0.00220209
-0.00019411
8.89749e-05
2.41582e-06
0.00369213
-0.00154765
-0.00168192
0.00111583
-0.00104687
-7.42326e-06
-0.00226615
0.00254832
-0.000257667
0.000148192
-0.000402843
0.000343837
-0.00015137
8.02282e-05
0.00063002
-0.000693415
-0.00312994
-0.00351228
0.00290769
-0.00157265
0.000145748
-6.40929e-05
0.000510309
-0.000464386
6.75666e-05
-0.00063245
0.00347781
-0.00333178
-0.000126327
-0.000110564
-0.000308158
-0.000358757
8.1679e-05
-0.000705238
0.000626987
0.00109717
-0.000893129
-0.000208704
-0.000537678
0.00046899
-0.000186435
-0.000507993
-5.55415e-05
0.00359925
-9.92269e-05
-0.000760707
-0.000762526
0.000655981
-0.000269879
0.00108311
-0.000873957
0.00141366
-0.00156429
0.000176037
-0.00259786
0.000119367
-0.00129098
0.00144202
-0.000164038
-0.00211762
0.00139012
-0.000149765
-6.05817e-05
0.00258358
0.000242668
-0.000200818
-6.67527e-05
0.000773972
-0.00157101
0.00278277
-0.00133786
0.000187747
-0.000209508
-0.00120164
-0.000714172
-0.000102222
0.0020298
-0.0019141
0.00166617
-0.00135853
-0.000338082
-0.000105268
-0.00124683
3.51347e-05
-0.00028915
0.000250176
-0.00370101
0.00333949
0.000413941
-0.00339888
-0.00234717
0.000124422
-0.00142919
0.00128603
-0.00143976
0.000172429
-0.00348171
0.00210528
-0.000324547
0.000356142
4.5523e-05
0.000449852
0.000337997
-0.00303885
0.00275759
0.000152441
0.00117214
-0.00129534
-0.00020617
0.00346001
0.000144287
-0.000485607
0.000416797
5.6705e-05
0.000819918
-0.000738136
-9.71902e-05
0.000848078
0.00254825
3.11939e-05
-0.000232509
0.000192792
7.86986e-06
-3.23433e-07
-3.70243e-06
6.20267e-05
0.000469569
-0.000538828
0.00109394
-0.00138685
-0.000770315
0.00341619
0.00297088
-0.00257893
-0.00150156
0.000200733
-0.00284418
-0.000677236
-0.00130538
-0.000830559
0.00207113
-0.00349854
-0.000448628
0.00393812
-0.00272608
-0.00133236
-0.0042025
0.0034993
0.000685579
0.00267625
-0.00299692
0.00145947
-0.00152012
0.00178623
0.000136494
0.00337117
-0.0027535
-0.00329268
0.000261013
-0.000225731
-0.00187448
-0.00110284
-4.37096e-05
0.00094315
-0.000184602
0.000121317
-0.000896865
0.000777482
-3.10397e-05
-1.23775e-05
0.00235169
0.000317877
-0.00265781
-1.317e-06
-0.00273122
0.00268339
-0.00272491
-0.000441787
6.63101e-05
-0.000394406
0.00330321
-0.000470248
-0.000365456
0.000806526
0.000116194
0.00114066
-0.00118503
3.77628e-05
-0.00131162
0.0007272
-0.000644491
-0.00330034
0.00322534
5.64287e-05
-0.00105595
0.00164959
0.000160589
0.00239587
-0.00224093
0.000110913
0.00315799
-0.00333361
0.00256244
-0.00247462
-0.00121434
-0.000128445
0.00124069
0.00259049
-0.000236321
-0.0038787
0.000225554
-0.00368476
0.00348131
-6.56529e-05
-0.000978818
0.00102533
-0.000840586
0.000923207
-0.00104217
-0.000505832
-0.00343462
0.00318954
0.000217886
0.00294909
0.00021613
-0.0013118
0.00141862
-0.000209058
5.64253e-05
-0.00215386
0.000768024
-0.000718676
-0.00256728
0.00138134
-0.00159681
-0.000558985
-0.00144601
0.00155137
-0.000155598
-0.000451603
-0.000111805
0.00233644
-0.0024424
-0.000158096
0.00219201
-0.000331228
0.000336957
-2.08064e-05
-0.000152582
0.00118269
0.000236453
-9.13149e-05
3.46323e-07
-9.89788e-05
0.00291803
0.000178442
0.000226257
-0.000551306
0.00178772
-6.05243e-05
-0.000166061
-0.00207219
-0.0015141
0.0036089
0.000361928
0.0033012
-0.00362694
-0.00075733
8.5807e-05
3.71163e-07
8.45816e-06
-1.13268e-05
-0.00197502
0.00176613
0.000862832
-0.00041622
-0.000492024
0.00308545
-4.33045e-05
-0.00206524
0.00197631
0.00162595
-0.00156531
-0.000102667
0.000844705
7.98097e-05
0.00349106
-0.00022575
-0.000362871
-0.00319764
-0.000253722
0.0034775
-0.00310374
0.000327648
0.00277792
0.00105888
0.00243534
0.00289505
0.000193527
-0.00224006
0.00180728
-0.000339061
-0.00151578
0.00341509
-0.00309503
-0.000324203
2.12257e-05
-7.7979e-06
1.97082e-05
0.0037916
-0.00385021
-0.000211243
0.00225058
-0.000225777
0.00150403
-5.31237e-05
-0.00132183
9.76858e-05
-0.00346693
0.00335602
0.000440626
5.47377e-05
0.00338509
0.000188292
-0.00361082
0.000875141
0.000114492
-0.00107016
0.004095
-0.000172919
-0.00402475
-0.000109367
-0.000876888
-0.000420238
-0.000630147
0.00176523
-0.000837167
-0.00204059
0.002149
-0.000631656
-0.00199608
0.00214246
-0.000122051
-0.00131873
0.00126638
0.00339672
-0.00325377
0.000703125
-0.00106628
7.90548e-05
-0.000148387
-0.00442697
0.00237815
-0.00209514
0.000427384
0.00162208
-0.000268936
0.00275598
-0.000183954
0.00203242
-0.00207138
-9.08477e-05
3.54024e-05
0.00208201
-0.0020715
-0.000200391
0.00334447
-0.000235708
0.00224464
-0.00246624
-0.00128296
0.00189615
-0.00175757
-0.000174001
0.000211161
0.0022503
-0.00251954
0.000289205
0.000545055
-2.95782e-05
-0.00130311
0.00125257
0.00180269
-0.00321533
0.00273296
8.69184e-05
0.00259116
-0.00266172
-0.000671556
0.000736479
-0.000106974
-0.00147565
0.000129045
0.0017641
-0.000170369
0.00256813
-0.00246565
0.00255634
-0.000101635
0.0023776
-0.00221456
0.000119061
-0.000838688
0.00318059
-0.00341976
0.000638769
-0.000698968
-1.41368e-05
0.00350094
-0.00015436
-0.00204796
0.000112564
-0.000210804
0.00358055
-0.00213019
0.00076782
0.000175638
-0.000199972
0.0011927
-4.50837e-05
0.00307987
-0.000179899
0.00324432
-0.00362261
-3.63545e-05
0.00017556
-0.000135642
0.00139617
-0.00135096
-0.000103327
-0.000681746
0.0022279
-0.000224615
-0.00134131
0.00156182
0.000197725
0.00360222
-9.26014e-05
0.00252292
0.0012726
7.08619e-05
0.0015417
-0.000112555
0.000334715
0.00222737
-0.00018365
0.00328096
-4.48183e-05
0.00229417
-0.00225897
0.00211432
0.00365115
-0.00385479
-0.000732028
0.000411966
-0.000271298
0.00335317
0.000877564
-0.000750215
9.61905e-05
0.00225688
-0.00233752
-0.00212927
0.00010673
-0.000270406
2.30162e-05
0.000240258
-0.00195604
-0.000155056
-0.000328846
0.0037323
-2.37381e-05
0.000159448
0.00126114
-0.000896621
-0.00236704
0.00360123
-0.000103948
-0.00358332
-0.000191973
0.00349968
-0.00111908
-0.000140938
0.00125883
0.000519067
-0.00365474
-0.00395157
0.000454994
-0.00177153
0.00110427
-0.000112086
-0.00100441
-0.000301262
0.00251135
-0.00218694
0.000133038
-0.00124698
-0.000586788
0.000661912
-7.34857e-05
2.38126e-05
-0.000266361
0.000236204
-0.00285713
-2.49681e-05
-0.000275807
0.000278616
2.39293e-05
-0.000286128
0.000248805
-0.00217465
0.00228586
-9.03096e-05
0.00266495
-0.00283271
0.000196362
-0.00330281
-0.000293283
0.000246635
0.000157314
0.002093
-0.00226666
3.81975e-05
-6.16628e-05
-1.85178e-06
-0.00175815
-0.00189922
0.00150348
-0.00197202
-7.22675e-05
-0.00348704
-0.00138671
0.00123361
8.00724e-05
-0.000282911
-0.000127583
0.002741
-0.00265643
0.000130918
-0.00229234
-0.000292882
0.00258059
-0.00287329