/*--------------------------------*- C++ -*----------------------------------*\
| =========                 |                                                 |
| \\      /  F ield         | OpenFOAM: The Open Source CFD Toolbox           |
|  \\    /   O peration     | Version:  v2012                                 |
|   \\  /    A nd           | Website:  www.openfoam.com                      |
|    \\/     M anipulation  |                                                 |
\*---------------------------------------------------------------------------*/
FoamFile
{
    version     2.0;
    format      ascii;
    class       volScalarField;
    location    "300";
    object      omega_0;
}
// * * * * * * * * * * * * * * * * * * * * * * * * * * * * * * * * * * * * * //

dimensions      [0 0 -1 0 0 0 0];


internalField   nonuniform List<scalar> 
9793
(
0.0682826
0.198441
0.0680103
0.0210187
0.752688
0.0225978
0.0220542
0.0207877
0.0216458
0.418535
0.0581171
0.898634
0.0210702
0.0205781
0.0232078
0.0204721
0.022135
0.022675
0.126863
0.020553
0.723771
0.023303
0.259274
0.0196434
0.0224976
0.0211799
0.0205857
0.0212678
0.0460837
0.0216309
0.0364452
0.278657
0.481159
0.0220091
0.0508081
1.00815
0.022664
0.0232097
0.020867
0.0211691
0.0362294
0.0232469
0.0222708
0.0221678
0.0222908
0.0213894
0.0493316
0.305956
0.506939
0.0209901
0.0520426
0.0628777
0.0227178
0.0216616
0.124538
0.75831
0.0214524
0.0955392
0.873113
0.0208466
0.0218785
0.0226203
0.904557
0.02199
2.12863
0.472182
0.905687
0.846114
0.904565
0.0574012
0.117724
0.0208716
0.0211575
0.0620822
0.056664
0.895169
0.021447
0.0212629
0.022779
0.0215533
0.462171
0.0223736
0.213258
0.259874
0.0331688
0.296071
0.0218484
0.0214432
0.022201
0.0229882
0.180587
1.28343
0.0204315
0.279918
0.022378
0.253012
0.959815
0.202218
0.0203943
0.0202655
0.0202508
0.0219408
0.0204821
0.0204596
0.021059
0.0322872
0.0220797
0.0219845
0.0224066
0.328176
0.0210591
0.949202
0.0214299
0.897261
0.0625718
0.0214567
0.493864
0.0549051
0.0236992
0.286574
0.326911
0.0225274
0.0213465
0.0229022
0.0220789
0.844965
0.0405562
0.291054
0.0237105
0.0211662
0.021475
0.0214534
0.021168
0.0220432
0.021595
0.021441
0.0223687
0.0219797
0.0214215
0.0199961
0.021335
0.0223037
0.0212403
0.0202837
0.0206955
0.0210714
0.148392
0.020291
0.0204021
1.73332
0.18893
0.0214596
0.19068
0.29166
0.0203772
0.0219985
0.0207788
0.0221227
0.020262
0.0211856
0.0207859
0.0212646
0.0202693
0.0912611
0.102274
0.802928
0.301347
0.0274422
0.0205083
0.0212579
0.0213537
0.502885
0.142342
0.556541
0.0220018
0.11897
0.0214506
0.0196184
0.0211881
0.0293739
3.20406
0.0226913
0.0202765
0.0223217
0.873589
0.0211428
0.108485
0.0211819
0.0213183
0.0202827
0.0220232
0.0213419
0.391276
0.940562
0.904917
0.0290093
0.087814
0.0212293
0.254765
0.0200772
0.0215839
0.0992832
0.73719
0.0211718
0.0214513
0.0205781
0.965237
0.0203066
0.0276838
0.0228736
0.0335574
0.229276
0.721099
0.0216968
0.0921676
0.0206649
0.0213984
0.846987
0.0203967
0.757449
0.064451
0.0213847
0.022102
0.021344
0.276374
0.0902692
0.0226076
0.0203779
0.0649474
0.049976
0.019709
0.0196374
0.0227909
0.0202422
0.0465365
0.804499
0.0214031
0.0212279
0.945193
0.0217105
0.0275758
0.0205805
0.0211809
0.473252
0.0211656
0.0203841
0.0207736
0.0220972
0.0204117
0.0218415
0.0217057
0.0251336
0.0588373
0.0436446
0.0210994
0.0238063
0.0212965
0.0255466
0.0230704
0.0202618
0.331952
0.0211915
0.0586407
0.0217315
0.0281455
0.0199367
0.0198861
0.0334573
0.166059
0.0219031
0.0202806
0.0200564
0.0274287
0.0214063
0.15875
0.174108
0.0211751
0.974229
0.0213875
0.0435523
0.021943
0.0197851
0.0224441
0.0210302
0.0404571
0.021381
0.021688
0.0268982
0.0211377
0.0214414
0.0214107
0.491077
0.0220513
0.0227939
0.0215591
0.0220285
0.0222538
0.0275512
0.0212545
1.0003
0.0203955
0.340989
0.490115
0.0224403
0.0221881
0.0202866
0.028168
0.0253722
0.0217824
0.363438
0.0217905
0.020273
0.0254576
0.0217727
0.0215368
0.0220034
0.281408
0.0212413
0.0265543
0.0229925
0.0210861
0.0688863
0.0981993
0.0443243
0.0201198
3.4039
0.0223708
0.852196
0.0601825
0.0201307
0.0238216
0.0591201
0.0216699
0.0256804
0.0665718
0.0207444
0.0221339
0.0215583
0.0211596
0.0214008
0.0801246
0.0211855
0.0210578
1.03999
0.0217308
0.0204368
0.0200925
0.0224943
0.0207598
0.0865213
0.0221637
0.02139
0.0216086
0.0219069
0.306767
0.0216298
0.0326006
0.0196416
0.0393671
0.136535
0.112028
0.0415519
0.0223706
0.0229109
0.0953634
0.0219261
0.328147
0.0218203
0.0203
0.491262
0.0254985
0.107148
0.0213943
0.0493999
0.973627
0.0237432
0.021117
0.488287
0.0271535
0.109981
0.0238777
0.021602
0.50073
0.0212874
0.022502
0.0219663
0.0214589
0.020606
0.0216388
0.0234542
0.358593
0.0218645
2.30171
0.258069
0.095411
0.0501934
0.0251372
0.02106
0.0215566
0.118525
0.268727
0.0205949
0.0220159
1.09409
0.0200418
1.04317
0.0212583
0.0235501
0.0200218
0.0353626
0.0211783
0.0278678
0.960966
0.0203226
0.268757
0.0253785
0.02228
0.0253775
0.0215772
0.0219382
0.0211156
0.0886367
0.0213602
0.021557
0.0660878
0.0215833
0.0230389
0.0223951
0.0202212
0.0305043
0.0212025
0.0215564
0.0199586
0.330926
0.020898
0.337445
0.0212792
0.180883
0.0232146
0.0214738
0.0225925
0.0218598
0.897033
0.0212176
0.128424
0.0203399
0.0213788
0.0225279
1.11105
0.0352382
0.157235
0.16469
0.022765
0.0212717
0.0383173
0.0302052
0.0338807
0.21236
0.277084
0.0216789
0.0239639
0.0498447
0.0213515
0.0229206
0.0213291
0.0204622
0.0222667
0.631241
0.0279716
0.696672
0.020491
0.0284901
0.0195953
0.0218326
0.0216896
0.0224772
0.0388612
0.0213795
0.0233488
0.0200154
0.0214461
0.0236107
0.321121
0.0212607
0.0212701
0.493246
0.0240999
0.0221871
0.895025
0.250065
0.0217176
0.022121
0.0226813
0.0236554
0.0215736
0.0225583
0.022229
0.0213243
0.0213359
0.0211237
0.163484
0.0638987
0.0207863
0.893715
0.0347342
0.0203232
0.0220648
0.022845
0.925506
0.0219227
0.599108
0.0201643
0.021189
0.0547096
0.0213072
0.035881
0.465034
0.0273472
0.0203116
2.29252
0.0240253
0.0206097
0.0214367
0.0551763
0.0209632
0.0205904
0.021278
0.0209542
0.481228
0.0463365
0.0335432
0.0222816
0.0213736
0.0211533
0.0215278
0.0209984
0.0212958
0.740652
0.117352
0.0200777
0.0233381
0.127684
0.0213377
0.0904638
0.0335004
0.0208766
0.0613351
0.640486
0.0214003
0.128911
0.0198092
0.885666
0.0265895
0.273288
0.0211313
0.0211523
0.0221441
0.173255
0.0230468
0.897567
0.450259
2.56414
0.03695
0.60132
0.0337845
0.0232355
0.0324404
0.0230974
0.342064
0.0216012
0.165454
0.0199311
0.140359
0.0222632
0.0222063
0.021118
0.233708
0.0199697
0.020893
0.0227372
0.0233064
0.0286745
0.021168
0.0212712
0.0213168
0.0212978
0.124577
0.020987
0.240679
1.12781
0.0209984
0.022078
0.0291301
0.0220169
0.0213248
0.021724
0.0237909
0.0265668
0.0225925
0.0233107
0.0205296
0.0236702
0.0222012
0.0257191
0.0217122
0.022639
0.157717
0.0213272
0.0904813
0.0264686
0.0221664
0.0212819
0.0207166
0.0232124
0.0235464
0.0211577
0.0210685
0.0195599
0.0211951
0.0210389
0.021177
0.0234198
0.0198769
0.022205
0.0222106
0.0216109
0.0231409
0.0226795
0.0338449
0.0225814
0.0210671
0.0212924
0.0205689
0.0201029
0.0211217
0.0201523
0.021033
0.0213361
0.0199601
0.0370508
0.0211655
0.0224885
0.0213635
0.0978777
0.021042
0.0200078
0.0567141
0.0197711
0.0217916
0.68695
0.022525
0.0226042
0.0215968
0.0959353
0.0207274
0.0531118
2.3349
0.367956
0.465624
0.0217007
0.0213712
0.0799494
0.0222031
0.0199757
0.0526752
0.229782
0.146242
0.0213037
0.0598615
0.0213748
0.0213559
0.774956
0.0211921
0.334617
0.0222029
0.0637042
0.0210489
0.024089
0.0220993
0.287545
0.515162
0.0213201
0.0224078
0.0284131
0.0210149
0.0232103
0.0536472
3.38142
0.0211064
0.0749705
0.0222819
0.312421
0.0559935
0.49348
0.119866
0.0216922
0.0281315
0.306593
0.0210429
0.0211633
0.0224487
0.0229443
0.0199488
0.602996
0.0199456
0.332884
0.0236721
0.29478
0.0572794
0.0215494
0.129064
0.581155
0.0219956
0.35945
0.0272206
0.0737631
0.0199623
0.0197444
0.346618
0.0213528
0.490091
0.0209925
0.218807
0.0205866
0.308515
0.347272
0.021676
2.282
0.0214385
0.022864
0.0384594
1.09196
1.22622
0.0203002
0.0206199
0.0200294
0.438506
1.07418
0.0229514
0.0241142
0.123341
0.0199947
0.02101
0.0221656
0.262619
0.0260333
0.0214251
0.020989
0.020815
0.460575
0.131281
0.0348867
0.0205824
0.0209401
0.0781632
0.0211766
0.407365
0.0456355
0.356807
0.328185
0.166994
0.020893
0.0215592
0.0242191
0.0224895
0.0260966
0.0212243
0.0595605
0.07314
0.0205002
0.583929
0.0208041
0.508594
0.0217442
0.323145
0.0243048
0.0260066
0.0211356
0.0218522
0.0309262
0.158618
0.25487
0.0213903
0.0357828
0.0214188
0.0227873
0.0243875
3.43688
0.0245928
0.0736985
0.020882
0.0288722
0.02126
0.0199047
0.0220308
0.0209679
1.59773
0.0211503
0.0230877
0.0226182
0.021912
0.0199395
0.0523086
0.0217057
0.022378
0.0209132
0.0210211
0.274922
0.0210529
0.74767
0.0205246
0.0478642
0.0209725
0.0680307
0.0212228
0.899354
0.021562
0.0213835
0.0208987
0.315388
0.252878
0.51551
1.12461
0.0735447
0.0213506
0.0240093
0.173483
0.0200103
0.345851
0.337542
0.0521942
0.0980341
0.0228493
0.298277
0.0243902
0.365659
0.177331
0.0228752
0.0216377
0.287439
0.945294
0.0242975
0.0234535
0.0212079
0.0226492
0.0362266
0.0211035
0.0200871
0.0225822
0.0481154
0.0383555
0.0226049
0.368373
0.0209169
0.0201721
0.177814
0.610138
0.037152
0.022101
0.0345249
0.0206396
0.0199989
0.495374
0.0199542
0.0226674
0.30323
0.309563
0.0219326
0.518629
0.142669
0.836374
0.0458826
3.3839
0.0225417
0.768655
0.021657
0.0208672
0.0213515
0.0217496
0.0215287
2.66973
0.0225918
0.493877
0.0214078
0.0391809
0.0217873
0.0370297
0.024889
0.0215143
0.0456153
0.0214274
0.0200392
0.0752425
0.0242046
0.0315871
0.0220586
0.0201161
0.277705
1.1059
0.0337663
0.0195841
0.0195652
0.0207611
0.0236531
0.105888
0.0756087
0.0637507
0.0354257
0.336367
0.021812
0.0274773
0.0247738
0.0246378
0.09717
0.0211453
0.0210758
0.637786
0.0378936
3.15456
0.0210924
0.307173
0.322257
0.0244244
0.0420187
0.0241781
0.11099
0.02156
0.0261317
0.152813
0.025665
0.0211056
0.0340071
0.0215981
0.0205437
0.0210336
1.42569
0.0216422
0.026784
0.482586
0.0406554
0.0247513
0.0357458
0.275284
0.436647
0.283021
0.0200518
0.0215439
0.0223675
0.0250223
0.0213825
0.0893131
0.0857371
0.0242059
0.472973
0.0562461
0.4774
0.0215718
0.176119
0.0212603
0.311854
0.0701159
0.0206494
1.02751
0.212874
0.020872
0.0215082
0.0214457
3.25219
0.506991
0.0278934
0.0425073
0.0348891
0.0273861
3.11032
0.181145
0.0215852
0.0214035
2.65886
0.164668
0.0211086
0.0213216
0.0203191
0.0217406
0.0215258
0.0258788
0.520802
0.0212807
0.0244397
0.2631
0.0217988
0.0217325
0.0242516
0.0584218
0.0215752
0.023915
0.292932
0.0219796
0.0200961
0.0220535
0.0209514
0.0225083
0.347871
0.458498
0.0222263
0.299446
0.0260821
0.0391536
0.0213652
0.0230977
0.0223468
0.0216517
0.250258
0.0221137
0.0223432
0.0278897
0.0227008
0.0219523
0.0265191
0.0212292
0.0959426
0.0215179
0.0210532
0.199432
0.021117
0.131915
0.0272323
0.0209914
0.426278
0.0236769
0.0340329
0.791248
0.0202304
0.491381
0.0210185
0.0213927
1.07434
0.876942
0.0202467
0.0215173
0.0206978
0.0217593
0.0766113
0.0222071
0.0218015
0.0221874
0.0224198
0.0222812
0.0212888
0.02034
0.0209808
0.0211921
0.462821
0.0238291
0.0200524
0.042046
0.02298
0.0320667
0.0395824
0.034455
0.0214973
0.0212499
0.0704229
0.0231044
0.021455
0.0215934
0.345861
0.134569
0.0213756
0.01984
0.0648017
0.0491609
0.0197141
0.362991
0.0411999
0.0214131
0.0219723
0.0258042
0.0216702
0.0281606
0.475288
0.0220121
0.865969
0.0267649
0.0507801
0.0198484
0.0213618
0.0198535
0.0198383
0.155385
0.0211196
0.724252
0.0426406
0.0198426
0.0220718
0.0313057
0.0217705
0.0217608
0.0213956
0.0221664
0.240667
0.0198494
0.0215367
0.343876
0.0226939
0.0216854
0.0263344
0.0211306
0.0217171
0.0212007
0.021526
0.0364803
0.0218371
0.0899891
0.304771
0.0198574
0.0214374
0.0198511
0.082915
0.0210282
0.0243005
0.0213169
0.0202126
0.0278749
0.0204765
0.0310512
0.0214201
0.0204968
0.0600487
0.192689
0.0217662
0.021631
0.0209767
0.0586918
0.0644675
0.0213973
0.241125
0.0683099
0.0220242
0.0293863
0.321174
0.0243649
0.348186
0.0464705
0.0452174
0.0212088
0.0306378
0.0958092
0.0204214
0.0199841
2.89978
0.0213963
2.72196
2.55106
0.0239604
0.345749
0.0198782
0.0285631
0.0478094
0.0212533
0.270542
0.0199009
0.0434453
0.0605773
0.0198617
0.179324
0.021689
0.0219619
0.0350709
0.0245696
3.44613
2.46657
0.0201506
0.0251033
3.04864
0.0207232
0.0256277
0.0208379
0.34508
0.104028
0.0212442
0.0216251
0.0258985
3.25908
2.84419
0.0305024
0.019869
0.0209348
2.65772
0.46897
0.052673
0.022933
0.0228365
0.027155
0.0200924
0.0224039
0.0245091
0.0228598
0.0209247
0.0243625
0.390784
0.0422068
0.0209927
1.44165
0.0238574
0.135807
2.97839
0.0400125
0.0990442
0.778714
0.019884
0.120602
0.129637
0.390186
0.13788
0.0212646
0.127114
0.221768
0.044803
0.0259428
0.180614
0.15693
0.0210971
0.0264744
0.0253588
0.021229
0.0684463
0.0212852
0.0221789
0.0206426
0.0199386
0.0216371
0.0213685
0.0226375
0.0265038
0.0404993
0.0245527
0.240884
0.0208534
0.0275552
0.0216177
1.45513
0.127143
0.0211987
0.047737
0.0218545
0.0202242
0.0213059
0.0201955
0.021109
0.0892869
0.0216787
0.266789
0.0218429
0.0209647
0.401055
0.0225409
0.021987
0.0211371
0.021271
0.477631
0.0680476
0.438588
2.47597
0.0546043
0.0215682
0.0218849
0.0217692
0.0250439
0.0410924
0.078588
2.49051
0.0209961
0.0446625
0.0224904
0.266359
2.87343
0.0256418
2.69939
0.154254
0.0227189
0.0422416
0.0209659
0.0483357
0.0233625
0.0888211
0.0465963
0.0199059
2.53143
0.42719
0.0217543
0.0233894
0.0221026
2.17407
0.0213698
0.0218511
0.25324
0.020834
0.812608
0.027384
0.0239727
0.0224578
0.0219661
0.0557029
0.0211573
0.472208
0.0253557
0.0213052
0.0207341
0.493099
0.0224683
2.46726
0.0228423
0.0245762
0.0253815
0.0691674
0.023659
0.021322
0.224494
0.0217972
0.020461
0.177573
0.244962
0.02446
0.0205724
0.0226773
0.0819414
0.0569214
0.0211625
0.0675632
0.0207586
0.0890991
0.0186374
0.0221744
0.0211308
0.0892815
0.0209941
0.0207553
0.0213837
0.0805652
2.27457
0.026837
0.0243544
0.0219415
0.022326
0.299846
0.0314007
0.0217736
0.0218432
0.021069
0.838882
0.162092
0.164481
0.0212392
0.141149
0.0202213
0.0201808
0.0228742
0.0222484
0.0439314
0.0213645
0.0188337
0.269579
2.74977
0.0250558
0.0215467
0.0215922
0.0416476
0.0206295
0.0212917
0.0347023
0.0215286
0.0212725
0.0221842
0.0243837
0.0200382
2.94699
0.0448737
0.0240231
0.0243187
0.0234234
0.0239635
0.13151
0.0213826
0.0212698
0.0215274
0.0210814
0.0215005
0.0209237
0.107005
0.0891799
0.0216476
0.022104
0.021269
0.0239765
0.0228722
0.0489517
0.022394
3.23748
0.0213165
0.0219569
0.0211768
0.078314
0.02153
3.03245
0.0215216
0.0215644
0.0195748
2.83964
0.0240019
0.0863366
2.66675
0.0219958
0.0215195
0.0211437
0.0214226
0.0270529
0.0220623
0.0261334
0.908929
0.0216528
0.0569001
0.114351
0.0243907
0.103319
0.0215157
0.0243367
0.0210375
0.0204017
0.0202326
0.0213684
0.0524533
0.0867821
0.0208621
0.421321
0.818988
0.0212613
0.0654244
0.0203675
0.0343921
0.0222182
0.0210386
0.070323
0.0215058
0.0226468
0.0248282
0.0521181
0.0761806
0.0221308
0.0210075
0.0224662
2.48235
0.505199
0.0394066
0.0279978
0.0214899
0.0214283
0.271764
0.0216284
0.0317134
0.0261876
0.237869
0.0214944
0.0381357
0.0214715
0.0218707
0.0332118
0.0333552
0.0329627
0.0224578
0.0221072
0.0275704
0.454509
0.0657357
0.0204605
0.0261991
0.0892242
0.0243863
0.0436572
0.0217157
0.0218425
0.0213554
0.0270685
0.0540928
0.0537302
0.0214806
0.0747887
0.024022
0.0285584
0.0215557
0.0213568
0.0213743
0.0204476
0.0488917
0.0250756
0.0228666
0.0223973
0.0213604
0.0214862
1.16437
0.0214228
0.0214111
0.021914
0.0418448
0.10527
0.0214741
0.0212556
0.0215126
0.25291
0.0220752
0.116594
0.0215062
0.0460449
0.0214794
0.0215817
0.0566758
0.0217985
0.0352051
0.0218535
0.0214705
0.0203857
0.0226991
0.37525
0.0216995
0.0222778
0.276387
0.0215136
0.0222983
0.0223682
0.0215879
0.0213214
0.0221529
0.848717
0.02077
0.0208461
0.020963
0.176589
0.0253853
0.194437
0.0215551
0.0216699
0.0753343
0.303846
0.26604
0.027207
0.0301796
0.266868
0.0215317
0.381527
0.0218937
0.123916
0.0210209
0.15034
0.471093
0.0195888
0.0243226
0.0241904
0.0223257
0.0202373
0.463951
0.0209276
0.267347
0.0217993
0.0214086
0.0218957
0.0202521
0.021887
0.123611
0.02136
0.0211454
0.0211463
0.0215442
0.0213889
0.471275
0.0621021
0.409835
0.02152
0.0205006
0.0247586
0.0215162
0.0213359
0.109544
0.0433386
0.022263
0.0213308
0.49494
0.0233129
0.46812
0.485908
0.0228692
0.0203347
0.0212944
0.0277666
0.490804
0.0215486
0.0212301
0.480002
0.126318
0.0479977
0.0930403
0.0213128
0.0240866
0.0238041
0.0199645
0.0219075
0.166012
0.241877
0.891955
0.0212802
0.0480555
0.021855
0.0214831
0.0245095
0.022179
0.0244849
0.0351261
0.0212451
0.0215096
0.0213292
0.0209136
0.0199881
0.0212261
0.0265625
0.239493
0.0431547
0.0195769
0.0200188
0.0212808
0.0220394
0.0213438
0.0503008
0.0222537
0.0223292
0.0221945
0.266636
0.0212602
0.0239119
0.892346
0.0213159
0.0212902
0.188964
0.0212902
0.0213744
0.0212337
1.61416
0.0472405
0.0420565
0.0219104
0.691742
0.020423
0.0201686
0.0204755
0.0212622
0.0410253
0.0212798
0.0217622
0.0465599
0.0213641
0.333839
0.0240957
0.0320145
0.0219049
0.454904
0.0329391
0.0214938
0.0211378
0.0220522
0.0216256
0.0213341
0.288671
0.0209788
0.0656285
0.021179
0.02168
0.203246
0.0210937
1.16479
0.0799488
0.0213091
0.896122
0.0211604
0.0219189
0.0212606
0.0219258
0.0207439
0.0213413
0.0213016
0.0213595
0.0976396
0.02154
0.0209742
0.0220312
0.0208186
0.0212186
0.0212197
0.0214342
0.0205544
0.0213174
0.0212739
0.021385
0.0212677
0.0220428
1.14679
0.021358
0.0219942
0.0371966
0.284547
0.0206837
0.0277444
0.0209994
0.0218873
0.021296
0.0214562
0.174157
0.283654
0.0211175
0.0226068
0.223464
0.0215494
0.182487
0.919431
0.0199807
0.186476
0.0215182
0.884872
0.02478
0.0211711
0.0902267
0.260992
0.0210071
0.0211205
0.0205782
0.0253615
0.0566281
0.0224396
0.890417
0.251691
0.0213931
2.98029
0.239792
0.0236174
0.0204431
0.0331524
0.0328808
0.0213023
0.0210581
0.0210641
0.0243498
0.0242232
0.0246781
0.0240968
0.0245078
0.0410952
0.021125
0.0212735
0.0211664
3.47061
0.0244809
0.0245207
0.656304
0.0422016
0.0385017
0.0210829
0.0242869
0.021233
0.0361627
0.0213665
0.0222493
0.289176
0.0239455
0.0608306
0.0199463
0.266285
0.0378329
0.0872436
0.257404
0.0596394
0.0211347
0.0213554
0.0213455
0.877938
0.021428
0.0209004
0.0213489
0.0299223
1.00744
0.192099
0.0241362
0.0260645
0.0440025
0.0413609
0.263796
0.199887
0.142503
0.0405492
0.0498947
0.264955
0.0211179
0.0211311
0.0211567
0.699578
0.0287396
0.108947
0.0209845
0.0212493
0.0212872
3.10656
0.0211877
0.021257
0.0210832
0.0376101
0.0209826
0.0211685
0.0203524
0.024482
0.0730815
0.0273985
0.0239992
0.0215473
0.138378
0.0271669
0.0204568
0.0213355
0.18436
0.124021
0.0215347
0.0215559
0.918434
0.0212274
0.0210343
0.0210067
0.021481
0.0437517
0.0210157
0.021585
0.0211277
0.0216328
0.021255
0.0211586
0.0210655
0.0212498
0.0213532
0.442788
0.0212531
0.020701
0.0409853
0.0466037
0.0330819
0.0628408
0.0210104
0.463551
0.0212963
0.0287269
0.0210988
0.129164
0.0211985
0.0212398
0.0201536
0.0802803
0.0246002
0.0212114
0.0691083
0.0212471
0.020155
0.0212637
0.0220435
0.0295119
0.0210083
0.711641
0.0214844
0.0670525
0.0374532
0.0213934
0.0344814
0.0210133
0.0206747
0.0211974
0.71113
0.0268687
0.0550607
0.0276334
0.0700052
0.0275903
0.0566718
0.0246483
0.0213118
0.0198507
1.93868
0.0641788
0.0209937
0.0385904
0.0209584
0.0210579
0.41293
0.0206083
0.0212867
0.442401
0.0722541
0.368302
0.0213217
0.0210607
0.094839
0.0209798
0.0208793
0.0653409
0.021261
0.115351
0.0692227
1.12369
0.0213416
0.0221729
0.0211357
0.0201973
0.0307195
0.0216582
0.0214145
0.0324314
0.0206943
0.0294924
0.0213575
0.0222927
0.0238176
0.137781
0.0244417
0.0216334
0.731186
0.305558
0.0212908
0.0500651
0.0215777
0.0212761
0.0213911
0.0210438
0.0240566
0.0304115
0.0457033
0.0212321
0.0241641
0.0217163
0.0197864
0.0210876
0.0213554
0.0252803
0.0208317
0.0213193
0.0218277
0.0214795
0.881241
0.0213781
0.0219661
0.0490157
0.0221565
0.0202294
0.268099
0.526298
0.909826
0.0824979
0.064994
0.0206546
0.0220722
0.0449229
0.160016
0.12635
0.325732
0.285008
0.0215102
0.244897
0.571148
0.0214895
0.0412008
0.0220247
0.154581
0.039494
0.822233
0.0219874
0.0210886
0.0454581
0.0213178
0.0214425
0.244802
0.916754
0.0213467
0.0214317
0.0212689
1.05845
0.0211691
0.0211254
0.0212394
0.0210173
0.0210453
0.0397051
0.0220327
0.020987
0.0214449
0.02911
0.038785
0.0785411
0.0212907
0.0212035
0.0226687
0.0212849
0.0210214
0.0211311
0.148725
0.0212541
0.0391901
0.0211451
0.0215516
0.0203267
0.0213173
0.917288
0.0389639
0.0205692
0.0218003
0.267721
0.893546
0.0328605
0.270118
0.021327
0.0292619
0.021124
0.0197766
0.0211612
0.0201698
0.0210867
0.0212521
0.0215738
0.105934
0.0199729
0.438228
0.115218
0.0201892
0.0314625
0.0397297
0.0219171
0.021138
0.0212136
0.0213405
0.0211416
0.300981
0.0198761
0.0212189
0.0383479
0.0211192
0.0213013
0.0209953
0.724384
0.021391
0.0213775
0.0686411
0.0206818
0.0206191
0.0211535
0.0860689
0.0212556
0.0196642
0.0211136
0.0200086
0.0432874
0.0193101
0.021069
0.223203
0.0198275
0.0212605
0.0223071
0.33118
0.565303
0.0200336
0.0244569
0.0213236
0.0211634
0.0211751
0.0211091
0.236305
0.292655
0.0213016
0.0219284
0.0291879
0.0209728
0.0211158
0.0244836
0.0278155
0.0591719
0.0213096
0.0234709
0.231336
0.0211418
0.0239927
0.89064
0.09002
0.0208062
0.020991
0.0215375
0.0212235
0.0209981
0.263678
0.0210981
0.223839
0.352325
0.0220676
0.0240011
0.266816
0.021133
0.0364499
0.221902
0.037944
0.0245364
0.02119
0.0224454
0.268113
0.0208354
0.0770876
0.020992
0.0200497
0.0200885
0.0201428
0.0211463
0.454578
0.0215387
0.458913
0.313388
0.0762417
0.823579
0.0198053
0.0213849
0.0232697
0.436444
0.0211771
0.897247
0.025942
0.0200341
0.0209582
0.261919
0.020962
0.024052
0.288881
0.0210713
0.262532
0.0218589
0.120507
0.0582813
0.0213977
0.0206164
0.0392379
0.0609284
0.0212881
0.0234335
0.0201877
0.0213084
0.0208951
0.324621
0.0210562
0.0205172
0.0379189
0.020129
0.264245
0.0214174
0.0211807
0.0212711
0.0463505
0.021026
0.020923
0.150731
0.0589073
0.44884
0.0217711
0.0201441
0.03472
0.892806
0.0712065
0.645115
0.0238769
0.0243035
0.021506
0.0212785
0.0245396
0.0218068
0.0212263
0.020412
0.0308026
0.0244821
0.0209537
0.019641
0.0214804
0.0206036
0.0214633
0.0286009
0.0367705
0.880559
0.0248074
0.104101
0.18812
0.0206631
0.0209698
0.022124
0.0377159
0.0202721
0.0219129
0.0209332
0.0210676
0.021154
0.0545335
0.0212973
0.0377832
0.0212708
0.0208802
0.0418466
0.0369312
0.0219117
0.0209173
0.0208743
0.0497628
0.255191
0.0214592
0.0202363
0.0224273
0.0209658
0.0212408
0.0210443
0.113518
0.0210042
0.020868
0.0608524
0.0205197
0.0688813
0.0240107
0.0210715
0.0213163
0.268426
0.0349103
0.0295585
0.581173
0.0238153
0.0223489
0.0217985
0.0212506
0.0298816
0.0208447
0.556754
0.224916
0.022439
0.0459902
0.222516
0.0208788
0.487369
0.0245783
2.5145
0.0228156
0.0207976
0.0208174
0.021834
0.0210921
0.0359183
0.128429
0.0329486
0.021258
0.020962
0.0208754
0.035258
0.0246259
0.0450377
0.0209013
0.0215267
0.0320406
0.0211187
0.149625
0.0347712
0.0209036
0.0213854
0.0197596
0.021372
0.284491
0.0953391
0.0208809
0.0211055
0.0206882
0.266366
0.0211555
0.0245909
0.172864
0.0373113
0.141028
0.0368709
0.0431163
0.0212501
0.0294228
0.0215984
0.0211467
0.0235083
0.0930662
0.0205038
0.0211961
0.0340132
0.0213235
0.0203822
0.31112
0.0203054
0.0211852
0.0376355
0.441197
0.0200525
0.02021
0.0451616
0.204652
0.0411432
0.91437
0.0213033
0.0492086
0.0209843
0.0331993
0.0331462
0.0747011
0.257817
0.024281
0.0557688
0.150413
3.27933
0.0206268
0.0210168
0.02024
0.0212621
0.0227611
0.0207802
0.0512841
0.0206893
0.0220091
0.0214065
0.244916
0.0213273
0.0210811
0.0252214
0.022691
0.0366976
0.0283106
0.237992
0.0197341
0.0370752
0.0212508
0.241701
0.0215124
0.0351526
0.451622
0.0311423
0.396155
0.0208067
0.45578
0.0239312
0.0286659
0.0213986
0.897049
0.0216364
0.020908
0.0212082
0.238624
0.0214426
0.12381
0.172803
0.026326
0.253682
0.0208494
0.0200361
0.876618
0.0378495
0.314471
0.454298
0.020888
0.248337
0.293997
0.0482366
0.0206892
0.0246954
0.288075
0.0207828
0.0227368
0.0198018
0.0774273
0.0961695
0.243695
0.0380001
0.020815
0.0206709
0.0217873
0.0201853
0.0229738
0.0241263
0.0222967
0.0204366
0.390929
0.0223459
0.0215106
0.0206672
0.0208543
0.210849
0.0229906
0.0285028
0.0237899
0.539113
0.0208002
0.288322
0.0213091
0.0388405
0.168902
0.0218258
0.460712
0.0204318
0.0200985
0.0208203
0.0208495
0.0206733
0.0208526
0.0197796
0.0393042
0.0239399
0.021033
0.347848
0.0209102
0.0216406
0.020653
0.102678
0.0213008
0.0226409
0.0629007
0.208518
0.0209132
0.0197913
0.0937136
0.0212409
0.487492
0.202343
0.0216215
0.0217468
0.033286
0.436644
0.468712
0.0202025
0.0206471
0.0226643
0.0314585
0.0237837
0.371252
0.100818
0.0221953
0.0218427
0.0252695
0.0221053
0.016005
0.44353
0.0205791
0.345181
0.0207783
0.0212866
0.020945
0.0209264
0.0208899
0.0206532
0.0210452
0.0207544
0.0224696
0.391241
0.0239625
0.0216086
0.0239767
0.0258869
0.0206165
0.0207189
0.0965245
0.0224312
0.0263919
0.0205934
0.0218354
0.0205696
0.0200034
0.270854
0.0213475
0.0210625
0.435481
0.515674
0.457878
0.0209081
0.566054
0.0214676
0.738255
0.391569
0.0223817
0.480011
0.0206886
0.0203112
0.707928
0.0208505
0.0511461
1.18459
0.429872
0.0240495
0.293657
0.0214498
0.020855
0.0222527
0.020658
0.438756
0.467059
0.0208878
0.336343
0.043706
0.0197451
0.0206764
0.347587
0.415989
0.202068
0.0261343
0.232768
0.493218
0.0212448
0.418286
0.488288
0.423443
0.539249
0.0259969
0.358032
0.0197696
0.413839
0.427011
0.0198552
0.293393
0.269522
0.48679
0.0196526
0.460427
0.0204294
0.0206769
0.124009
0.0621214
0.0206858
0.0219932
0.0331166
0.0199284
0.0264321
0.0208101
0.0343334
0.156504
0.0224056
0.0214828
0.120054
0.0315059
0.434326
0.433641
0.0212293
0.248715
0.021027
0.247246
0.0264705
0.0203367
0.227049
0.0217828
0.397816
0.0213702
0.128979
0.0211433
0.0214551
0.0202379
0.021335
0.0205607
0.0221422
0.468956
0.143338
0.020606
0.137401
0.0735063
0.0203341
0.0205716
0.489906
0.19763
2.16272
0.484552
0.503161
0.0205798
0.0212274
0.283693
0.0239629
0.411906
0.0297596
0.0206294
0.0212392
0.0207973
0.0198149
0.0206289
0.0362436
0.0206033
0.319151
0.0209199
0.0213618
0.0570022
0.0197755
0.0353675
0.0564753
0.0208314
0.0207918
0.0209748
0.0285607
0.0196523
0.0201849
0.415878
0.281943
0.0332524
0.0217779
0.03169
0.0205543
0.0214634
0.0212495
0.517238
0.287572
0.280338
0.46004
0.0315005
0.144505
0.0826575
0.0210315
0.0240402
0.0196601
0.0196861
0.0271276
0.0208274
0.426136
0.214199
0.0246963
0.774499
0.0353599
0.256197
0.422935
0.0200475
0.0805164
0.0241042
0.0434004
0.0213195
0.0204915
0.020129
0.0304867
0.287303
0.480429
0.321109
0.0209737
0.676433
0.0205956
0.0407227
0.436152
0.0205228
0.0236187
0.0212966
0.0667915
0.290571
0.0217268
0.0196495
0.0370786
0.0251488
0.413912
0.0214567
0.0216924
0.48438
0.263161
0.0205815
0.0409425
0.0207001
0.0237849
0.0216465
0.490189
0.0207103
0.022117
0.185606
0.0213451
0.0208618
0.312796
0.0475167
0.0214741
0.0216468
0.0217607
0.0205997
0.0205528
0.0385121
0.164683
0.020872
0.0252627
0.0208413
0.0213669
0.0213555
0.0211413
0.439633
0.0974965
0.0362823
0.302604
0.0207626
0.0463147
0.0208502
0.0220634
0.0434446
0.0216651
0.201946
0.0207302
0.342503
0.0213993
0.0173773
0.0261144
0.0203772
0.0208453
0.0439387
0.0395948
0.469912
0.214176
0.333436
0.437883
0.024175
0.0211875
0.273975
0.0207658
0.272543
0.0199431
0.266695
0.0289139
0.0208471
0.0218823
0.0208973
0.133522
0.245075
0.0214867
0.102993
0.0226157
0.0931871
0.0205031
0.0252371
0.0359501
0.0204746
0.0963232
0.0349991
0.0201983
0.19714
0.0723847
0.134365
0.0204907
0.369507
0.0210406
0.0202316
0.028214
0.0205057
0.526807
0.0199858
0.0208253
0.0205722
0.0237717
0.246762
0.0207528
0.270843
0.0198343
0.0239561
0.451069
0.0216033
0.0292926
0.0550471
0.0368247
0.103503
0.0217938
0.0205477
0.649545
0.0205404
0.0203946
0.0210407
1.27834
0.316086
0.504121
2.77337
0.020117
0.0210483
0.0206885
0.338399
0.0206646
0.450919
0.233042
0.0212395
0.305574
0.454731
0.297311
0.0204243
0.0203105
0.0266248
0.0213128
0.808045
0.308857
0.0203405
0.0223999
0.020697
0.295862
0.0231782
0.0213898
0.444287
0.0209876
0.0213576
0.0198676
0.0211608
0.0864186
0.259712
0.0204628
0.437378
0.326837
0.0199806
0.339427
0.0206268
0.020896
0.263432
0.020413
0.377014
0.0198305
0.0304707
0.0409517
0.0197688
0.0201024
0.0210261
0.592203
0.0249216
0.148691
0.194715
0.0263644
0.0236472
0.0362425
0.0205095
0.0719659
0.126448
0.0206406
0.221854
0.0526815
0.0378215
2.70889
0.0416386
0.0204054
0.359528
0.0849908
0.197166
0.279118
0.020492
0.0203429
0.020746
0.289861
0.0203151
0.0201538
0.105666
0.028286
0.0212857
0.020377
0.0208606
0.0202907
0.020461
0.0513093
0.0208318
0.2613
0.0952103
0.0261376
0.0243969
0.0206277
0.0204383
0.313499
0.0367559
0.267171
0.493021
0.0205198
0.0206729
0.0400216
0.842756
0.317942
0.0204599
0.498933
0.420926
0.0199274
0.0370773
0.0328889
0.0201451
0.0208849
0.0207676
0.0216324
0.0201023
0.0372825
0.297547
0.021204
0.245106
0.0213255
0.0347163
0.0209111
0.02134
0.0292147
0.0790347
0.0279797
0.0203472
0.0198254
0.0202981
0.0202928
0.238044
0.167973
0.32619
0.0724962
0.273862
0.0264475
0.0203244
0.0593677
0.111845
0.0212368
0.246838
0.0225425
0.019768
0.0243041
0.144327
0.0227433
0.0279862
0.100352
0.847529
0.0341258
0.0202756
0.0239036
0.0207084
0.319681
0.0206736
0.293455
0.300894
0.32681
0.0168914
0.0382754
0.0219248
0.264622
0.0209193
0.0203425
0.0209356
0.0208777
0.311705
0.0206232
0.0206393
0.0234189
0.0218917
0.0201939
0.0347396
0.3076
0.289577
0.0202198
0.883216
0.278109
0.0993572
0.0211206
0.0203689
0.0234071
0.0201695
0.0237236
0.0247596
0.020285
0.0303772
0.0205825
0.359828
0.0506583
0.0206106
0.0462757
0.0909591
0.0203695
0.305211
0.19725
0.0369308
0.0210734
0.226381
0.11418
0.0196566
0.02051
0.347483
0.028228
0.0212419
0.194658
0.0210874
0.0204182
0.0205635
0.0203578
0.300825
0.0201789
0.0203793
0.244807
0.217875
0.0205351
0.0207964
0.261705
0.295799
0.022221
0.0321101
0.0204037
0.0515589
0.0861332
0.0216051
0.0202165
0.455641
0.429102
0.0234672
0.0201181
0.245792
0.0269123
0.0202046
0.0638645
0.0209398
0.0349935
0.0204778
0.392331
0.273972
0.015435
0.296383
0.020436
0.237002
0.0214167
0.0213762
0.279195
0.0201563
0.0720326
0.0203592
0.202933
0.0206914
0.020363
0.0199819
0.0204753
0.0202328
0.0201177
0.053761
0.0214676
0.0617754
0.0227993
0.0198003
0.0243496
0.320423
0.0205588
0.293176
0.0202725
0.0211336
0.42387
0.0223476
0.341672
0.0237886