/*--------------------------------*- C++ -*----------------------------------*\
| =========                 |                                                 |
| \\      /  F ield         | OpenFOAM: The Open Source CFD Toolbox           |
|  \\    /   O peration     | Version:  v2012                                 |
|   \\  /    A nd           | Website:  www.openfoam.com                      |
|    \\/     M anipulation  |                                                 |
\*---------------------------------------------------------------------------*/
FoamFile
{
    version     2.0;
    format      ascii;
    class       volScalarField;
    location    "300";
    object      p;
}
// * * * * * * * * * * * * * * * * * * * * * * * * * * * * * * * * * * * * * //

dimensions      [0 2 -2 0 0 0 0];


internalField   nonuniform List<scalar> 
9793
(
-0.0107858
-0.000840723
-0.00946154
0.00164977
-0.0634542
0.00524061
0.00389915
0.00402072
-0.010042
-0.0580028
-0.0507319
0.000199434
0.00173763
0.00423254
0.00418654
0.00424642
0.00436234
0.00449179
-0.00129943
0.00423899
0.0183821
-0.00584041
0.0026077
6.08941e-05
0.00424176
0.00170096
0.00438399
0.00459251
-0.0318806
-0.00961981
0.00912447
0.00316675
-0.0439232
0.00402142
-0.0297094
0.0110388
0.00375802
-0.00499155
0.00430239
0.00416582
0.00779154
0.00404049
0.00161622
0.00361848
0.00168141
0.00172381
-0.0318122
-0.00168071
-0.0109385
0.00167016
-0.0304852
-0.047957
0.00502969
-0.00859571
-0.0464283
0.00152845
-0.00413176
-0.0677587
-0.0720428
0.00425455
0.00429267
0.00410951
-0.0386235
-0.000220398
-0.0986669
-0.0238243
-0.0423743
-0.0272555
0.00200111
-0.048524
-0.0449552
9.87133e-05
0.00141854
0.000740716
-0.0266917
-0.0692264
-0.00451125
0.00034314
0.00455765
0.00438057
-0.0246278
0.00489792
-0.00180174
0.00170702
0.00855273
-0.000274844
0.00440133
-0.00487009
0.00339899
0.00518886
-0.000996722
-0.0897668
0.0044763
0.00238678
0.00366549
0.00179606
0.00502968
-0.00257307
0.00448186
0.00422134
0.00418746
0.00551649
0.00450734
0.00448789
0.000615365
0.00786503
0.00300558
0.00432501
0.0045596
-0.00425378
0.000178415
0.0133611
-0.00286584
-0.0102245
-0.0465877
-0.00449243
-0.0371503
-0.024859
0.00492944
0.00236594
-0.00493563
0.000290392
-0.00342038
0.00578308
-0.0117019
0.0173841
-0.0563
2.14283e-05
0.00456907
5.76919e-05
0.000581085
-0.00490086
8.02776e-05
0.00557167
-0.00910908
-0.00513428
-0.000207692
0.00391756
-0.00268491
0.0029131
-0.00316278
0.00430671
0.00281885
0.00414854
0.0042389
0.00423901
0.00228967
0.00419198
0.004484
-0.0936676
-0.0112216
0.000505245
-0.0127297
-0.03857
0.00447788
0.000312105
0.00236976
0.00440652
0.00418011
0.00294092
0.0040871
0.00445552
0.00420574
0.00203994
0.00156271
0.0189939
-0.0010924
-0.0149209
0.00429627
0.00527612
0.00333163
-0.0426213
0.00181055
-0.0441828
-0.0119418
0.000716147
-0.00521432
0.000354792
0.00034617
-0.0298661
-0.071133
-0.0206992
0.00421555
0.00422197
-0.0723204
0.0014288
-0.0678339
0.000515199
-0.00289611
0.00417545
-0.0124201
-0.00133435
-0.0123275
0.0143113
-0.0310753
-0.0291624
-0.00923271
0.00501896
-0.0341613
0.00287407
-0.00872734
0.00864112
0.000644489
-0.000176982
-0.00546616
0.000399416
0.0139182
0.00409951
0.00775111
-0.0154051
-0.0262875
-0.00782263
-0.0133807
-0.00896281
-0.00925814
0.00237255
0.00531271
-0.0653785
0.000539741
-0.0245404
-0.0218554
-0.00398836
-0.012283
-0.0012297
0.00138503
0.00390165
0.00491035
0.00446852
-0.0239961
-0.0449985
0.000137508
0.000190463
-0.0215195
0.00278317
-0.0546826
-0.0248801
-0.00255504
0.0031311
0.0066128
0.00530614
0.00714907
0.00415022
0.00328089
-0.034336
0.00296828
0.00448505
0.00400045
0.00447025
0.00448095
0.00408964
-0.00437858
-0.0213847
-0.0439463
-0.0557127
0.00313771
-0.00208712
0.00306738
-0.0215879
0.00525635
0.00410532
-0.026929
0.00297438
-0.0419441
0.00361519
-0.0156132
0.000249983
0.00041879
-0.0250874
0.00732917
0.00244171
0.00412016
0.00385532
-0.00510903
-0.00435959
-0.000505582
2.98162e-05
-0.000147126
0.0149359
-0.000949017
-0.0570989
0.00447698
0.000376368
0.0042058
0.00428619
-0.0568548
-0.0039592
-0.0039041
-0.0184368
0.00367342
-0.00538854
-0.00277566
-0.0379865
0.00385333
0.00379743
0.00101463
0.00586
-0.0107014
-0.0187374
-0.00081392
-0.019865
0.00447705
-0.0268582
-0.0542831
0.00416848
0.00423134
0.00413667
-0.00476566
-0.0112944
0.00460129
-0.0296078
-0.000872928
0.00413598
-0.0107358
-0.00219544
-0.00503429
0.00532186
0.00106055
0.00381096
-0.00703377
-0.0163861
0.00359535
0.00137601
-0.00504929
0.00146164
0.000370856
-0.0712464
-0.00996244
-0.0659444
-0.0261222
0.00399131
-0.0285958
-0.0244034
0.00549544
0.00705249
-0.0513482
0.00402591
0.00193726
-0.0083918
0.00390501
0.00456168
-0.0120475
0.000653712
0.00348439
-0.0277614
0.00526891
0.00428254
0.000286252
-0.0066684
0.00407479
-0.0121104
-0.0112743
-0.00441962
-0.00212748
0.00549917
-0.0199281
-0.00843279
0.0091037
0.000321107
-0.036375
-0.0495462
-0.0654934
-0.0369808
-0.00593225
0.00576312
-0.00487335
0.00419971
-0.0271808
0.00517146
0.0027234
-0.0478421
0.0065353
-0.00599879
-0.00445537
-0.0554576
0.0127139
0.00407912
0.00132992
-0.045288
-0.0304725
0.00261366
-0.00295783
-0.00854626
-0.0479755
-0.000754804
-0.00912711
0.00314055
0.00421434
0.00434472
-0.00878407
-0.00359277
-0.0263257
-0.011461
-0.0596724
-0.00121145
-0.00278647
-0.0461968
0.00130428
0.00420375
-0.00820022
-0.0273724
-0.00188376
0.0041756
-0.0155456
-0.0186749
0.00384097
-0.0127836
0.0031582
-0.00449225
0.00376546
-0.0236096
0.000799704
-0.0310171
0.0137853
0.0041336
0.00297508
0.0051402
-0.0113925
0.0048798
0.00509893
0.00237265
0.00423821
0.0082348
-0.000952251
-0.00506816
-0.0496726
-0.00854096
0.00514646
-0.0106822
0.00411241
-0.0284001
0.00316422
-0.00460443
0.0035442
0.000349491
0.00430504
-0.000965044
0.00520279
-0.0121184
0.00183592
0.00530414
0.00401679
-0.0109398
-0.0720483
0.00500791
-0.0462613
0.00423212
0.00344424
-0.00992936
-0.0255781
0.00946781
-0.0564061
-0.00894408
0.00530958
-0.00166696
0.010443
-0.0269991
-0.022052
-0.00166732
-0.0104854
-0.000932887
0.00497959
-0.0536013
-0.00354838
0.00509251
-0.00309396
0.00450868
0.00414229
-0.0137895
-0.029905
-0.0581926
0.00453625
-0.00330278
0.000266406
0.00391257
0.00161107
0.00496262
0.0111031
0.00538296
0.0048718
0.00375203
-0.000228846
0.00523651
-0.00456086
0.00353957
-0.00157064
-0.0572183
0.00635611
-0.0119128
-0.0476817
-0.0116023
0.00301045
0.00346755
-0.00899215
0.00541587
-0.00471405
0.00132522
-0.000582492
0.00516967
0.00319649
0.00313493
-0.000332473
-0.0423862
0.00268011
-0.0749703
-0.00748475
0.00435963
0.00346008
0.00470926
0.0126756
0.004596
-0.00344973
0.00406922
0.00320131
-0.045391
-0.0026517
-0.0384053
-0.0427649
-0.00640033
0.00434669
-0.0561349
0.00591312
0.00446035
0.00372049
-0.0667601
0.00395122
0.0044558
-0.000988275
0.00388827
-0.0280879
-0.0566058
-0.00731551
0.00425192
0.00372611
0.00369861
-0.00722712
0.000870546
-0.000945118
0.014745
-0.0657581
0.00391646
0.0059976
-0.0317138
0.000351834
0.00276917
0.00891668
0.000749746
-0.0521814
-0.0564135
-0.0043113
-0.0836085
0.000470452
0.000314358
-0.0183197
-0.0333548
0.00129918
0.00326418
0.00468876
-0.00532684
0.00575785
-0.0510997
-0.0291284
-0.112984
-0.0391901
-0.00669084
-0.0206105
0.00430503
-0.0400184
0.00590287
-0.0218124
-0.00718299
-0.0142956
0.00329297
0.00153115
0.00410037
-0.0180909
0.00360469
-0.0778459
0.00350504
0.00332661
-0.0192028
-0.0150193
-0.0304953
0.00124516
-0.00199952
0.000151997
0.000235446
-0.00168975
0.00151112
-0.0132002
-0.0245057
0.00152376
0.00419603
-0.00315598
-0.0154441
-0.0030066
-0.00312111
0.00422786
-0.0195376
-0.0211465
-0.0158735
0.00439357
0.00475487
-0.00627838
-0.0204072
-0.00200688
-0.00663705
-0.0177454
-0.0011926
0.0065991
-0.0310248
0.00371462
-0.00220897
0.00427945
0.00586894
0.00627891
0.00305542
0.0048545
6.17409e-05
0.00370524
0.00490316
-0.000542543
-0.000985134
0.00279549
-0.0180127
0.0040948
-0.00883643
-0.000790964
-0.0220238
-0.0405703
0.00413485
0.00279408
-0.00237096
0.00441257
0.00309975
0.00261362
0.0032193
0.00347863
-0.00139916
0.00346261
-0.0277867
0.00410888
0.00413283
-0.00369023
-0.0104887
0.00110374
0.00374661
-0.0529527
0.000499561
0.0038989
-0.0781794
0.00430849
0.00244357
0.00168141
-0.0697059
0.00423712
-0.0541254
-0.114702
-0.0364213
-0.0158022
0.00373836
-0.00406024
-0.00310428
0.0049364
0.00363521
0.00149788
-0.0150928
-0.0410534
-0.00259044
-0.067446
-0.00403138
-0.00343984
-0.0142504
-0.000631087
0.00645808
0.00434216
-0.0408995
0.00280564
-0.0130965
-0.00574204
-0.0818392
-0.0257832
0.00332817
0.00443399
-0.0392868
0.00337712
0.00570551
-0.0522882
-0.063242
0.00149621
0.00262554
0.00487009
-0.0264779
0.00348988
-0.0462441
0.00188703
0.00448783
0.00976403
-0.028175
0.00114923
-0.000414609
0.00425373
0.00433275
0.00348356
-0.00376668
0.00350813
-0.0172918
-0.0272324
-0.000463082
-0.0478664
-0.0077112
-0.0547986
-0.045101
-0.0109951
-0.0405353
0.00916007
-0.068724
0.00352408
0.000480678
-0.0322582
0.00169267
-0.0228146
0.00305634
-0.00278074
0.00449432
-0.00235302
-0.0320518
0.00438538
-0.0607809
-0.000857342
-0.0202263
-0.0360019
-0.046255
-0.0510072
0.00285089
0.00452298
0.00377121
-0.0423481
-0.0350837
-0.000269529
0.00690422
0.00182384
0.00365886
0.00197275
0.00566586
0.00653819
0.00356605
0.00196203
0.0038536
0.00421381
-0.0143312
-0.0362606
0.00532582
0.00443979
0.00249001
-0.00941061
-0.000518838
-0.0417792
-0.0324664
-0.0208166
-0.00562085
-0.000704505
0.0037911
-0.00796034
-0.0226931
-0.0179194
-0.0208804
-0.000761157
-0.0654613
-0.00588157
0.00447977
-0.0466267
0.00420574
-0.000816318
-0.0118615
-0.00747651
0.00133333
0.00350536
0.00190512
0.00259266
0.0044784
-0.021325
-0.0265132
-0.000113897
-0.0203364
0.00471353
-0.00593445
-0.013332
-0.0624272
0.000689817
-0.0664608
0.00370748
-0.0410785
0.0030499
0.00280802
0.00401324
0.00239785
-0.0955295
-0.000282156
-0.00961243
0.00383913
0.000890283
0.00335366
-0.0183721
0.00385171
-0.0195895
0.00383548
0.00194281
-0.0135731
0.0009017
0.0175673
0.00450176
0.00347232
0.00395909
0.00627374
0.00329143
0.00319666
-0.00235815
0.00171762
0.00263034
-0.0321635
-0.0128467
-0.00342368
-0.0727705
-0.0103045
0.00194005
-0.0214353
-0.00595208
0.00342872
-0.0255328
-0.021478
-0.016532
-0.0421261
-0.00789984
-0.0188405
0.00509386
-0.00636716
-0.00369106
-0.00975499
-0.00727075
-0.01717
-0.0197206
-0.000793433
-0.00198294
-0.000799591
0.00524472
-0.0506201
0.00250879
0.00298129
-0.0188162
0.00370379
-0.0376179
0.00448865
-0.0324003
0.00254983
0.00330992
0.000556815
0.0103589
-0.0535743
-0.000785564
0.00501491
0.00450569
0.00335958
-0.0404699
0.00331325
-0.00815275
-0.023068
-0.0254854
0.00451427
-0.013221
-0.0546503
0.0155706
-0.000494842
-0.0584815
0.000688139
-0.0216333
-0.00231421
0.00369796
-0.00280448
0.00377855
0.00462005
-0.0567231
0.00431716
-0.0504909
0.00285421
-0.00197246
-0.0027937
-0.0527573
0.00376686
0.0055154
-0.0340767
0.00307248
0.00330143
-0.038116
0.00522078
-0.0265091
0.00433868
0.00398021
-0.005602
-0.0139855
0.00216929
0.000142258
0.000133241
0.0044844
0.00435948
-4.01968e-05
-0.0396984
-0.00203634
-0.0249872
-0.0226004
0.00393416
0.00575357
0.00764099
-0.0222272
-0.0414309
0.0017415
0.00301665
0.0185503
-0.0292687
-0.0609332
0.00180976
-0.0326337
-0.0250866
-0.000238284
-0.0514583
-0.0289766
-0.00176096
0.00361228
-0.0293837
-0.0019332
0.00602885
0.00178663
0.00481686
-0.00160925
0.00439841
0.00269329
-0.0762564
-0.000783435
-0.0384123
0.00406684
-0.0492268
0.00128354
-0.018697
0.00231835
-0.026652
0.00204127
0.0033779
-0.00659675
-0.0174387
0.00407275
0.004166
-0.0119165
0.00183932
-0.0295635
0.000157827
0.00357413
-0.0135094
-0.00668926
0.000628203
-0.00183698
-0.0296043
-0.0642135
0.00442722
-0.0564304
-0.00773643
0.00277314
-0.00701043
0.00319946
-0.0666227
-0.00925647
-0.0117892
0.000708348
0.00400243
0.000668669
-0.0595991
-0.00134465
0.00511212
-0.00230714
-0.0571556
-0.00179702
0.00121518
0.00190789
0.00299248
-0.00366342
-0.00212326
-0.0312575
0.011976
6.62618e-05
0.00543271
-0.00659601
-0.0121051
0.000475173
-0.000474132
-0.00778797
-0.00792569
0.0061846
0.000905885
-0.0104293
0.00395024
-0.00991991
0.00319796
-0.00487839
-0.0337285
-0.018571
0.00434656
-0.00108752
0.00388713
0.00504242
-0.00285709
0.0059912
-0.0050948
-0.00131701
-0.0031145
0.00535781
0.00393298
-0.0111779
0.00411377
0.00286264
-0.0367497
-0.0013106
-0.0581555
-0.00612686
0.000960349
-0.027564
0.00162311
-0.0133862
0.00473294
0.00316713
0.00273823
0.00605897
-0.0393729
0.00307199
0.0042386
0.00432551
0.00270696
-0.00262233
-0.028765
-0.0598053
0.00426258
-0.00695859
0.00440302
-0.0114771
-0.0713207
-0.00473673
0.00401709
0.0040715
0.00523594
-0.0164697
0.000526183
0.00289377
0.0023313
-0.000640667
-0.00947435
0.000661684
0.00278327
-0.0530876
0.00447438
-0.000756076
0.00413617
-0.0497322
-0.00647663
-0.00165087
-0.0622163
0.000135022
0.00311867
-0.000668146
-0.0276528
-0.0627898
-0.00309556
0.00283788
-0.0659109
-0.0148441
0.000314219
-0.00345546
-0.0294137
0.000507494
-0.00921882
0.00545105
-0.00949411
0.00586827
-0.0195601
0.00539335
0.0089892
0.00559048
0.00344969
0.00275226
-0.00379387
0.00305066
0.00291493
-0.062547
0.00192224
0.00658233
-0.00111898
0.00298469
-0.0105521
0.00229474
0.00206931
-0.0123132
-0.00118062
0.00361928
-0.0160287
0.00298427
-0.0077187
-0.0304812
0.00465978
-0.0105103
0.00376897
0.00159334
-0.0111291
-0.000744901
-0.00712144
0.00256095
0.00122035
-0.0375566
-0.00622357
0.00283719
-0.00413503
0.00291456
-0.03873
0.00171903
-0.00143795
0.000266658
0.00413602
0.00506324
0.00444602
-0.0406125
-0.00471272
0.00445661
0.00583531
-0.0237926
-0.000328906
-0.000566994
0.00223809
0.000661271
-0.00754055
-0.000999215
-0.000550102
-0.0118248
0.00363413
0.00463281
-0.02893
-0.0105198
-0.0276189
0.0147298
0.00554035
-0.000952602
0.00933227
-0.0556228
0.00444669
0.0052801
-0.0567891
-0.00213024
-0.0650056
-0.0752482
0.00312372
-0.0258343
0.00255206
-0.027258
-0.0263278
-0.00143064
-0.0081139
0.0024356
-0.0483246
-0.0200717
0.00265799
-0.00383525
3.8162e-05
-0.000511492
-0.0365638
-0.0290902
-0.0631214
-0.0562526
0.00402009
-0.0224847
-0.0605454
0.00417551
-0.0335686
0.00375829
-0.031448
-0.0083145
0.00487982
0.00520562
-0.0358168
-0.0608389
-0.0599211
-0.0388003
0.00275273
0.00320764
-0.0621766
0.00101079
0.00168756
-0.0047398
-0.00136703
-0.0315608
0.00392686
0.00310962
0.00128892
0.000200675
0.00427965
0.00165322
-0.0182651
0.0167101
0.00230617
-0.0760148
-0.000344451
0.0179523
-0.0682568
0.00131167
-0.0158049
-0.00087421
0.00265766
-0.0807048
-0.08297
-0.0289325
0.00588388
0.000148483
-0.0767458
-0.0155957
-0.023309
-0.00841493
0.0058357
-0.000132001
0.00126802
-0.0319205
-0.0313103
-0.00130841
-0.0684268
-0.00205772
0.00182495
0.00433964
0.00230662
9.93525e-05
-0.00381356
-0.00272502
-0.0360421
-0.00187578
-9.45178e-05
-0.0154619
0.00377272
-0.0384942
-0.00933614
-0.086934
-0.0243296
-0.000804265
-0.0249682
0.00555484
0.00424684
-0.000937212
0.00412698
0.00205994
-0.0418786
-0.0103152
-0.0050662
0.00439691
0.00226748
-0.0272645
0.000176597
-0.0158639
-9.37675e-05
0.00058202
0.00448746
-0.0703725
-0.0377586
-0.0697204
-0.00661768
-0.00844222
-0.0143926
0.00529421
-0.0290806
0.0150119
-0.076142
-0.0644581
0.00300281
-0.0211756
-0.0174276
-0.00349107
-0.058872
-0.0342172
-0.061521
-0.0115198
0.003151
-0.0194579
0.00410595
-0.0496397
0.00504391
-0.0648268
-0.0472348
0.00255288
-0.0721491
-0.0298881
-0.0113362
-0.0264366
-0.0147771
-0.0733872
0.0048413
-0.0124314
-0.00887745
0.0036846
-0.0473039
0.00532993
-0.00111464
-0.0187992
-0.0135346
-0.0035354
-0.000101292
-0.0113074
-0.0320108
-0.00226537
0.00413572
0.00460294
-0.00238852
-0.0595684
0.00484655
0.000132724
-0.00765696
-0.0411988
-0.0268384
-0.00156786
0.0051553
-0.0130806
0.0044078
0.00651804
0.00516613
0.000837893
0.00443186
0.00452797
-0.00597946
-0.015968
-0.000395393
0.00272698
0.00442503
-0.0349049
0.00607778
-0.0160427
0.000496984
-0.0585823
0.00261622
0.00390697
-0.0028922
-0.0664088
-0.0579281
0.00525124
-0.000584563
-0.0150369
-0.0185945
-0.0256754
0.00277716
0.0032721
-0.0136439
0.00197155
0.0170652
-0.0107903
-0.00777286
-0.00147938
-0.0726897
0.00423528
0.00411407
0.00628278
-0.0172892
-0.0291057
-0.00266568
0.00575543
0.000469391
-0.0752757
-0.0297787
-0.00791554
-0.00876074
-0.0251771
0.00431529
0.0016988
-0.00333176
-0.00682108
-0.00184355
-0.00397452
-0.000783458
0.00382826
-0.0689354
-0.052011
0.00261487
-0.0270524
0.00572115
-0.0270122
-0.0199362
-0.00373895
-0.00197115
-0.00760906
0.00194961
-0.00694992
0.00429289
-0.0426539
-0.0432667
-0.00967937
-0.000458364
0.00169004
0.00303
-0.00229098
-0.00113042
-0.0159476
-0.0626917
-0.00243641
-0.0086184
0.00480726
-0.0540656
-0.00751108
-0.061876
-0.00672594
-0.00765116
0.000248263
-0.0640284
-0.0206313
0.00649115
-0.0668167
-0.00592714
-0.00738468
0.000418631
-0.00442734
0.00547722
-0.000705769
-0.0284986
-0.050677
-0.0101147
0.00068463
-0.0381945
-0.0208828
-0.0566869
-0.00362025
-0.0276936
0.00290708
0.00442794
0.00425071
-0.00326193
0.00190975
-0.0536324
0.00361908
-0.0251168
0.0027773
-0.00155865
0.00682932
0.00440295
-0.00215042
0.00121233
0.0015888
-0.00547656
-0.00576967
0.0029856
-0.00967934
-0.00197273
-0.0625696
-0.00925991
0.00259954
-0.0040653
-0.0605472
0.00296016
-0.0537701
-0.0411029
-0.00653015
-0.00473611
1.20264e-05
0.000574392
-0.027674
0.00546419
-0.0100175
-0.00603382
-0.0485714
-0.00290509
-0.0074334
-0.00142341
-0.0363472
-0.00514477
-0.0191941
-0.0151648
-0.0271622
-0.0102588
0.01531
0.00442477
-0.0343597
-0.0724582
-0.0200308
-0.0268638
-0.0106533
-0.00962267
-0.00283568
0.00567407
-0.00597135
0.00161162
-0.00461696
-0.00695155
0.0029413
-0.0261749
-0.00820042
-0.00301691
-0.00246277
0.0020686
0.000728829
0.00596984
-0.0147839
-0.0164286
-0.0035849
-0.00620565
-0.0664211
-0.00241408
-0.00411075
-0.0108228
-0.00118069
-0.0336498
-0.00630991
0.00280054
-0.00675288
0.00587345
-0.00501928
-0.0419957
-0.00634839
0.00160784
-0.00629665
-0.000197189
0.013773
-0.0098276
-0.0354722
-0.0127027
-0.000959527
0.00442714
-0.00512566
-0.0708361
-0.0004762
-0.0160517
-0.00181143
-0.00164976
-0.0028116
-0.0178137
-0.00379661
0.00261473
-0.00995793
0.00107025
0.00392642
0.0036105
0.00218288
0.00549525
-0.0181532
-0.0152046
-0.00695491
-0.00290986
-0.00627582
-0.00982393
-0.0365566
-0.0368395
0.00797231
-0.0324829
-0.00582682
-0.0137382
0.00311733
-0.0776497
0.00292062
0.00625725
0.00411733
0.000327118
-0.00983901
0.00501994
-0.00363135
0.00222944
-0.0111912
0.00311881
-0.0345448
-0.0117199
-0.00385773
-0.00917358
0.00239381
-0.00801765
-0.0595806
-0.00373276
-0.000192546
1.01223e-05
-0.000934564
-0.00356093
0.00617925
-0.00949925
-0.0278211
-0.00544013
0.00435928
-0.0276349
-0.00718359
-0.00323281
-0.0811023
-0.0468599
0.00456454
-0.00164779
0.00336566
-0.0130662
0.00279683
-0.0146601
-0.00396264
0.00437432
-0.00138845
0.00361259
-0.0328561
0.00294345
-0.00129573
0.00455406
-0.0747166
-0.0510823
-0.0187472
-0.00273469
-0.000709026
-0.000420994
0.00317412
-0.0127649
0.00598779
-0.0226084
0.0141131
-0.00211681
-0.00394508
-0.0100464
-0.00333115
0.000903059
-0.0163753
0.00145523
0.00407779
-0.00145032
-0.00638382
-0.00209641
0.00312659
0.00366371
0.00277294
-0.0153224
0.00563695
0.00359379
0.000298619
0.0037643
-0.001385
-0.0139233
-0.00328989
0.0061865
-0.0176308
-0.0186795
-0.0151781
-0.0355975
-0.00178685
-0.0107727
-0.00841156
-0.00231431
-0.00228631
-0.00757109
0.00257374
-0.00266793
-0.000654636
-0.0796519
0.0039505
-0.0176996
-0.00970798
0.0145662
0.00426383
0.00410558
0.00442919
-0.00162155
0.0133135
-0.00205927
-0.0123783
-0.045701
-0.00363187
0.00328092
0.00630548
-0.0221359
-0.0134663
0.0055831
-0.0496926
-0.00500733
-0.000134261
9.5935e-05
-0.00952114
-0.0030329
0.00484012
0.00177297
0.0150769
-0.000409426
0.00349468
-0.0527148
0.00153773
-0.0310721
-0.064844
-0.00254631
0.00278704
-4.09103e-05
-0.000911799
-0.00174645
-0.011391
0.00396979
-0.00303212
-0.000805035
0.000286123
-0.0354398
-0.00713309
0.00181768
-0.014704
0.00367368
-0.0011448
-0.00113154
-0.00381336
0.00440181
-0.00146349
-0.000776506
-0.00220843
-0.00185125
-0.00859308
-0.0407017
0.00503301
-0.000262738
-0.000123112
0.00219158
0.00189198
0.00580442
0.00209244
0.00441265
-0.00229465
0.00200314
-0.0273253
0.00194007
0.00014253
-0.000337651
-0.0101338
-0.00356026
0.000547666
-0.046409
0.00342645
-0.0164875
-0.00721694
0.00350837
-0.0082304
0.00523031
0.00668035
-0.0194924
0.00187876
0.000673335
0.00286951
-0.00661094
-0.013993
-0.00162419
0.00834621
-0.00759344
-0.000894938
-0.0692702
0.00321052
0.00262322
0.00440003
4.73915e-05
-0.00362085
-0.00160518
0.00210313
0.00295737
-0.000784126
-0.000890499
0.000302591
-0.000450929
-0.000486168
-0.000856292
0.00219187
0.00126986
-0.000325521
-0.0631412
0.000872196
0.00137191
-0.0708102
-0.00203789
0.00391183
0.00220322
0.00168051
-0.00127508
-0.0491406
-0.00226859
-0.00923189
0.00367885
0.00666332
-0.0023067
0.00243991
-0.0360068
0.0121317
-0.0626738
-0.00142764
-0.00661497
0.000690484
-0.00246311
-0.00261398
-0.00343798
-0.00417106
0.00259032
-0.00312111
-0.00031617
-0.0327308
0.0018901
0.00243644
0.00379208
-0.00197675
-0.0237265
-0.0352977
0.00771639
0.00311979
-0.0478222
-0.00396608
-0.0101338
9.54993e-05
-4.05247e-05
0.000714313
-5.45098e-05
0.00337714
0.00174781
0.00166508
-0.00142844
0.00226553
-0.0623997
-0.000629777
0.00239525
0.00168879
-0.0166052
0.00271894
-0.000276024
0.00440109
0.00639564
0.00781833
0.00677255
-0.000876757
-0.00794499
-0.0445709
0.00325646
0.00224194
-0.00152597
0.00105695
0.00137179
-0.00309763
-0.00142445
-0.0754374
0.00251117
0.00224768
0.00280943
0.00271109
4.15964e-05
0.00166501
-0.00748719
0.000417556
-0.00369212
0.000417959
0.000435393
0.000711767
-0.000383385
0.00120292
-0.000243013
-0.00138567
0.00392569
-0.000996176
0.00335318
0.00149554
-0.070033
0.00238434
0.0058201
-0.00132118
0.00313285
0.00091286
-0.00546814
0.00261604
-0.00143594
0.0040833
-0.00276574
2.94892e-05
-0.000928386
0.00576821
0.00150835
0.00406915
0.00189312
-0.000470979
-0.0261642
0.00301308
-0.0376047
-0.00648235
0.00553158
0.0135451
0.00216744
-0.0508665
0.00145835
0.00452013
-0.000828142
-0.0336788
0.00585167
0.00212584
0.0116637
-0.0032824
-0.0393221
0.000738521
0.000732154
-0.00190093
0.00235945
-0.0842294
-0.00408937
0.00183109
0.0118051
0.00414181
0.00233988
-0.0293628
0.00447997
-0.000656681
0.00530745
0.00268972
-0.0266292
0.00147107
0.00185767
0.00304471
0.00291659
0.00297312
0.00846247
0.00223768
0.00169697
0.00899283
-0.0458802
-0.00313194
-0.0025548
0.000181222
0.00181596
0.00511225
-0.0102974
-0.0022113
0.010663
0.00427924
0.00422437
0.000904325
-0.00143893
0.00348486
-0.0216098
-0.000367129
0.00131634
-0.0732352
-0.0121221
0.00208508
-0.0017378
0.000607687
-0.000375383
0.00239028
0.00311532
0.00258974
0.00591777
-0.0025076
0.00237249
0.00225568
0.00208872
0.00220037
0.00244783
0.00251182
0.00385682
0.00312633
0.00337344
0.00291367
0.00246567
-0.0487092
-0.00204043
0.0035631
-0.012837
0.00425461
0.00425669
0.00464529
-0.0272399
-0.0606245
-0.00342815
-0.0637886
0.00449933
-0.00360603
-0.00277483
-0.0201266
0.00164428
-0.0183341
-0.000552452
-0.00711719
-0.0199646
-0.0374324
-0.00230872
-0.000753293
-0.00795311
-0.0186226
-0.000557446
-0.0261677
-0.00458935
0.00322309
-0.00200004
0.00211821
0.00280163
0.00581899
0.0041639
-0.00344312
-0.00447602
0.00343002
-0.0234035
0.00272033
0.00257342
-0.00146052
0.00175409
0.00212615
-0.00118434
-0.0149522
0.00251501
0.00262125
0.00874534
0.00039519
-0.0129332
-0.000233848
0.00249172
-0.00364766
-0.00106073
0.00226987
-7.34237e-05
-0.00881346
0.00128721
-0.0252144
-4.76527e-05
0.00314554
0.00436381
-0.000674575
-0.0454937
-0.000480523
0.00438397
0.00372139
-0.00977256
-0.0640566
0.00323205
-0.0246829
0.00120653
0.00765507
0.000767736
0.00208776
0.00233091
0.00408835
0.00142506
-0.00165991
-0.00293018
-0.0405778
0.00325162
-0.00870089
-0.0162088
0.00165141
0.00496638
0.00292362
-0.00546348
0.000251084
-0.000571515
0.0051515
0.003343
-0.010438
0.00236069
0.00347321
0.000750042
0.00104756
-0.0024925
0.00191285
9.45667e-05
-0.00379092
-0.00329869
-0.0107621
0.00424838
0.0043342
0.00245917
0.00300547
-0.00165386
0.00083275
0.000945142
0.00318986
-0.00173004
0.00649027
0.00221913
0.00634947
0.00227294
-0.000645498
0.00560044
-0.0209201
-0.0217711
0.00382843
0.00414039
-0.00294498
0.00054052
0.00260359
0.000748937
-0.00295299
-0.00469976
0.00100082
-0.00673684
0.00558784
0.00198804
0.00232108
-8.31119e-05
-0.000556849
-0.00844301
0.00071947
0.000735383
-0.0147556
0.000791459
0.00295001
-0.00444175
0.0094468
0.00263778
0.00301922
0.00449829
0.00288305
0.00240511
-0.0331552
0.00232836
-0.013328
-0.00333373
-0.0165383
0.00263131
-0.0155448
0.00190581
0.00177099
0.00621508
0.00425819
0.00576033
-0.000593467
0.00237129
-0.00894726
0.00310974
0.00198945
0.00282135
0.00384399
0.00385984
0.00407592
0.000505072
-0.0282947
-0.000110965
-0.036684
-0.00628108
-0.0606149
-0.0340885
0.00227679
-0.00242595
-0.0251971
-0.00606681
-0.000494654
-0.0115
0.00545206
0.00382181
0.00283125
-0.0311926
0.00311279
0.00597261
-0.000949419
0.00171939
-0.0285635
-0.00623392
0.00723921
0.00432518
-0.00358371
0.00437954
0.00837579
-0.00420343
0.002708
-0.0151194
0.00413199
0.00476166
0.0033807
0.00341184
0.00302351
0.00187005
0.00046753
0.00402356
-0.0315413
-0.00386414
-0.000615805
0.00335258
-0.00300027
0.00312364
0.00329428
-0.0181681
0.00607666
-0.00346723
0.00409803
0.00404401
0.00505246
-0.0155639
0.000119014
-0.069474
-0.000276025
-0.000746372
-0.000800946
-0.00206275
0.00111165
-0.00689523
0.0034191
0.00438506
0.00461957
0.00160448
0.00301899
0.000939204
-0.00147308
0.00435755
0.00511779
0.00315305
0.00213349
-0.00640063
0.00559633
-0.0306097
-0.0177595
0.00445617
0.00273385
-0.00787854
-0.0183467
0.00286166
0.00409089
0.00293871
0.00323177
0.000216724
-0.0436315
0.00146484
0.00618938
-0.0018716
0.00421267
0.00319772
0.000379206
0.00432045
0.00399856
0.00353811
-0.00460157
-0.001067
-0.00208373
0.00426074
0.0038965
0.00292706
-0.00147957
0.00235727
-0.0591556
0.00170841
0.00345473
-0.000121855
0.0044069
-0.039327
0.00295053
0.00245771
-0.00254887
-0.00722421
0.00461204
0.000774445
-0.0106727
0.00337983
0.00286768
-0.0128546
-0.000664755
0.00655099
0.00407173
-0.0168517
-0.0323557
-0.000241917
0.00213499
-0.00310178
0.00401655
-0.0203132
0.0054397
-0.0710641
0.00367589
0.00387855
0.00396791
-0.00855691
0.00116528
0.00333105
-0.0179982
0.00490176
0.00267847
0.00379956
0.00330238
0.00297797
0.00521086
0.00237944
0.00321177
0.00447937
0.00537707
0.00334909
0.00154966
0.00419514
0.00348614
0.00143161
0.00201306
0.00353936
0.000957811
0.00258626
0.00337974
0.00257534
0.00448125
-0.0194968
-0.000211406
-0.0297745
-0.0682824
0.000202751
-0.0152551
0.000720591
-0.00118272
-0.00156849
-0.025108
-0.00918961
0.00271297
-0.0255467
0.00613756
0.00440368
0.00286988
0.00528098
0.00246003
0.00394488
-0.0169132
0.00185341
0.00346927
0.0057746
0.00192497
0.00384692
0.00421751
-0.0153617
0.00617053
0.013409
-0.0633559
0.00472132
-0.00378448
0.00187508
0.00381002
0.00289608
0.0105843
-0.0119235
0.00543795
-0.00716752
0.00585953
-0.0643958
0.0043679
0.00136571
0.00420872
0.000844513
0.00601344
0.00379959
-0.0250286
0.00208091
0.00556338
0.00272476
-0.00485919
-0.0014343
0.000873872
0.00369444
0.00618592
0.00329956
0.00428345
0.00133368
0.00195002
-0.00137319
6.04904e-06
0.00164195
0.00303301
0.00106794
0.00509246
0.00293578
-0.0145028
0.00374347
-0.00780067
0.00325927
0.00355737
-0.00443172
-0.0193053
0.00337086
0.00304178
-0.000991333
0.00562365
-0.00262927
0.00601499
0.00809051
0.00363762
0.0184641
0.00296266
0.00382148
-0.0242561
0.0123286
-0.0186323
-0.00860592
0.00410944
-3.27056e-05
-0.0161855
-0.0207796
0.0043561
0.0076116
0.000793823
0.00385969
0.0039579
0.00258429
-9.19838e-07
-0.0124734
-0.0164852
0.00666079
0.00360434
0.00428111
-0.00902114
0.00417492
0.0051192
0.00252441
-0.015039
0.00446867
-0.00422819
0.00572214
0.00458829
0.0051115
0.00203006
0.00600227
0.00164495
0.0044648
0.00528873
-0.047733
0.00394894
-0.00375859
-0.00134142
-0.032707
-0.00812033
0.00558805
-0.0243082
0.00437973
0.001609
0.00403356
0.00338462
0.00444611
0.00416306
0.00241556
0.00209327
0.00320449
0.00247242
-0.00183402
0.00364839
0.00468018
0.00431802
-0.0225152
0.0048682
-0.00115481
0.00726961
0.00805404
0.00241998
0.00249217
-0.0157997
0.00188216
-0.0283908
-0.00697013
0.0047986
-0.00923583
0.00426702
0.00439457
0.00490694
0.00410968
0.00427989
0.00367617
0.00228309
-0.025671
0.00707652
0.00764536
0.00489631
-0.0135361
0.00576102
-0.00718769
0.00793173
-0.00508221
0.00438532
-0.0253619
0.00728453
-0.00152452
0.00284517
0.00392902
0.00393817
0.00421126
0.00258515
0.00384983
0.00588848
0.00669936
0.00405362
0.0048862
-0.0275816
-0.0320263
0.00441282
0.00399869
-0.0329608
0.00487452
0.00592333
0.0043657
0.00544526
0.00435621
0.0037425
-0.00497107
-0.00296547
0.00079315
0.00195319
-0.0229308
0.00310393
0.00329754
-0.0285236
-0.00381272
-0.00101121
-0.00203314
0.00414844
-0.0226433
0.00416345
0.00433962
-0.0349469
0.00291896
-0.0234671
-0.0465843
0.00188288
0.00278495
-0.00401142
0.00533404
0.00400084
0.00432653
0.0042511
0.00140173
0.00388181
0.0032197
-0.00128864
0.00353791
0.00202236
0.00432368
0.00665313
0.00382457
-0.00170632
0.00513469
-0.00352554
-0.0385578
0.000884078
-0.0203227
-0.0222212
0.00477379
-0.0385962
0.00107822
-0.000620875
0.00234767
-0.00321926
0.00158293
0.0024744
-0.0215897
-0.0197077
-0.000759012
0.00104096
0.00375021
0.00439682
0.00420269
-0.019764
-0.00861118
0.00411863
0.0047244
0.0052943
0.00154716
0.00433552
0.0038104
0.00398743
-0.00177393
-0.0147524
-0.00534381
0.00199649
0.00383816
-0.0113574
-0.000886037
0.00465424
-0.0220893
0.00117974
-0.0236589
0.00476255
0.00376006
-0.0176804
0.00431579
0.00417278
-0.000826459
-0.0160843
0.0021866
0.00528529
0.00426414
-0.000760635
0.00445454
0.00402672
-0.0681497
-0.0155445
0.00431157
-0.0120036
-0.000665491
0.00435568
0.00432054
-0.0468805
0.00495035
-0.0655511
-0.0180281
-0.0219353
0.00435056
0.00151803
-0.00556483
0.00570185
-0.0109891
0.00254782
0.00421897
0.000486602
0.0044232
0.00267205
0.00444661
-0.00372209
0.00439633
-0.0252027
0.00295177
-0.00338511
-0.00105342
0.00242216
0.000927228
-0.00778027
0.00451102
0.00373327
0.00253529
0.00311636