/*--------------------------------*- C++ -*----------------------------------*\
| =========                 |                                                 |
| \\      /  F ield         | OpenFOAM: The Open Source CFD Toolbox           |
|  \\    /   O peration     | Version:  v2012                                 |
|   \\  /    A nd           | Website:  www.openfoam.com                      |
|    \\/     M anipulation  |                                                 |
\*---------------------------------------------------------------------------*/
FoamFile
{
    version     2.0;
    format      ascii;
    class       volScalarField;
    location    "350";
    object      ddt0(omega);
}
// * * * * * * * * * * * * * * * * * * * * * * * * * * * * * * * * * * * * * //

dimensions      [0 0 -2 0 0 0 0];


internalField   nonuniform List<scalar> 
9793
(
0.000703291
0.0143173
-0.00152963
8.89883e-06
0.0248317
-0.00013152
-2.70942e-06
1.48905e-05
4.91688e-05
0.0102598
0.00307618
-0.0662795
2.45926e-05
0.000135041
-3.89588e-05
0.000110277
-0.000135636
-0.000227998
-1.27091
0.000123857
-0.147997
0.000271993
-0.0372914
-8.99434e-06
7.09829e-05
2.85571e-05
1.10221e-05
2.45448e-05
0.00238427
5.5218e-05
0.000724204
-0.0315191
0.256753
-6.53949e-07
0.00265505
-0.024044
1.17077e-05
0.000253782
-3.10354e-06
1.93224e-05
0.00144217
-3.71034e-05
1.81852e-05
4.84047e-06
2.35832e-05
2.65537e-05
0.00262388
0.14024
0.078904
-4.81617e-07
0.00274699
0.00360725
-9.81936e-05
4.16629e-05
0.00708647
-0.0652736
1.15387e-05
0.00761098
0.66285
1.64911e-05
5.26153e-06
-5.59319e-05
0.681165
4.24667e-06
0.185339
0.233303
0.540285
0.236822
-0.000709713
0.00312875
0.00695412
-6.20491e-06
3.57696e-05
-0.0376693
0.00291
0.661953
2.43086e-05
-0.00049254
-2.16733e-05
3.63168e-05
0.285065
-6.83176e-05
0.0220449
0.0768955
0.000155685
0.124381
-1.00932e-05
3.01588e-05
-6.35124e-05
-5.43558e-05
0.000524846
0.057411
-2.12974e-05
-0.0274463
-3.90915e-05
0.0395297
0.0380567
0.0120677
-2.25419e-05
-1.6045e-05
-1.57776e-05
-6.26663e-05
2.4106e-06
4.80398e-06
0.000132126
2.54446e-05
-2.70301e-05
3.5129e-06
-9.77589e-05
0.13199
-8.63504e-06
-0.0467221
-4.27577e-05
0.132493
0.00368397
2.18279e-05
0.151459
0.00267713
-1.56122e-05
-0.0234068
0.144084
-1.92485e-05
-3.21122e-06
-0.000154861
0.00010417
-0.105403
0.00140163
0.102789
2.75998e-05
2.90442e-05
-1.56967e-05
3.04442e-05
3.03145e-05
-2.46279e-05
3.93343e-05
2.75161e-05
1.47922e-05
5.43439e-06
-2.65673e-05
5.21832e-06
7.00547e-06
8.08439e-05
4.23504e-06
-7.68886e-06
0.000172683
3.62723e-05
-0.00967194
-8.36753e-06
-1.8125e-05
0.0896468
-0.151727
-1.49453e-05
0.0586119
0.00437502
-8.86101e-06
-1.48968e-05
-4.5156e-07
7.9561e-05
-1.35733e-05
5.03021e-06
2.40226e-05
2.72397e-05
1.88217e-05
-0.892577
-0.0146106
-0.124803
0.126545
0.000770224
3.77705e-05
-3.73568e-05
-2.35308e-05
-0.171905
-0.00741224
-0.215373
0.000100028
-1.31709
2.77514e-05
-1.15202e-06
1.12121e-05
0.000898857
-0.166802
0.000168788
-1.44122e-05
7.61735e-05
0.326102
2.58274e-05
0.00873507
1.09972e-05
-6.96058e-06
5.29383e-05
0.000100842
3.21054e-05
0.0466181
-0.0493012
0.416407
0.000856517
-0.00647562
-4.12953e-05
0.00627692
4.27832e-06
3.69381e-05
-0.632129
-0.0449989
2.72757e-05
2.38464e-05
0.000118011
-0.0510716
4.01329e-05
-0.000173402
0.0002435
0.0013149
0.0179261
0.170546
5.62509e-05
-0.00294747
-2.31487e-06
-2.72352e-05
0.180198
0.00013061
-0.129043
0.0027422
2.82314e-05
0.000106241
3.3493e-05
0.0442805
-0.880336
-0.000129645
-3.22197e-06
0.00283191
0.00274024
-9.86996e-06
-1.78168e-06
0.000179235
3.16665e-06
0.00208016
-0.105296
-7.36731e-06
-1.23497e-05
-0.0139903
-6.48833e-05
-0.000139602
6.83267e-05
-1.95261e-06
0.263923
5.93176e-06
-2.06704e-05
1.76937e-05
7.94352e-05
-2.14762e-05
-2.88722e-06
3.77045e-05
0.00049186
0.00334143
0.00175188
-1.31726e-05
0.000276372
-1.23489e-05
0.000540273
-0.000164914
2.06192e-05
-0.00419372
9.05613e-06
0.00335767
2.53591e-05
0.000829277
-2.34817e-05
-4.27675e-05
0.00130311
-0.424902
-6.56391e-05
1.5992e-05
2.15937e-05
0.000653214
3.40338e-05
-0.00206612
-0.000489888
4.41322e-05
-0.045576
3.5595e-05
0.00171345
7.04465e-05
3.92184e-06
-5.80258e-06
1.82565e-05
0.00132865
3.03529e-05
3.33392e-05
0.000731977
1.34038e-07
2.41447e-05
-2.4022e-05
0.187126
-0.00010058
9.95466e-06
-1.6875e-05
-2.07708e-05
0.000133882
0.000778204
4.66184e-05
-0.209622
-4.74456e-06
-0.0559131
0.0269453
3.97137e-06
-4.36923e-06
8.76826e-06
0.000672838
0.000542785
5.8111e-05
-0.0458004
4.09501e-05
4.89872e-06
0.000537689
3.3676e-05
3.12013e-05
-9.55822e-05
0.114972
2.83951e-05
0.000615661
0.000253265
2.66742e-05
-0.0246918
-0.0188627
-0.0354177
3.91906e-05
0.0747062
0.000153513
0.667942
0.00291746
3.84497e-05
0.000258791
0.00280883
-3.76026e-05
-0.000188245
0.00386286
1.76744e-05
2.58722e-05
7.29394e-06
1.03394e-06
9.92529e-06
0.000265578
2.33919e-05
1.64655e-05
-0.298717
-6.4728e-05
5.96415e-05
4.08237e-05
0.000168476
1.64581e-05
0.00115925
0.000113933
1.8387e-05
2.24577e-05
-6.41146e-05
-0.11316
4.43883e-05
-7.89737e-05
2.65871e-06
0.00180012
0.00728034
0.00860792
0.00202079
0.000144182
-5.25954e-05
-5.7731e-05
4.09351e-06
-0.00167578
-6.87903e-05
2.32049e-06
-0.0251894
-0.000186832
-0.00818276
2.33786e-05
0.00222887
-0.0511684
7.09257e-07
2.82759e-05
0.231961
0.000637814
-0.0150004
0.000283771
5.29752e-05
0.0492942
6.57751e-05
0.000177972
1.92694e-05
2.02133e-05
3.21123e-05
5.04958e-05
0.000261245
-0.120759
8.90431e-05
-0.113199
-0.023339
0.00225772
0.00270654
-0.0395926
2.70498e-06
9.97849e-06
0.00280206
-0.0210942
5.00137e-05
7.66032e-05
-0.130139
1.92509e-05
0.397462
-2.03724e-05
0.000286102
1.66191e-05
0.00145077
2.74792e-05
0.000722771
-0.0608798
2.79354e-05
-0.0357727
-0.000252691
0.000137891
-0.000376086
-5.90124e-05
-3.99239e-05
0.000161535
0.0369312
3.8068e-05
3.5828e-05
0.0039421
5.68347e-05
-0.000167765
0.000159811
2.79025e-05
0.00102027
2.46053e-06
3.43458e-05
1.19882e-05
0.0242372
7.45382e-05
0.0318521
-3.53339e-05
0.00815594
3.63933e-06
-4.60305e-05
-4.03473e-06
9.20328e-05
0.531387
-4.22917e-05
0.00583524
3.90838e-05
2.10682e-06
0.000186569
-0.00740875
-0.00153149
0.0102846
0.0094717
-0.000108804
-9.15241e-06
-0.000581798
0.000997777
0.00131399
0.0244743
-0.0186303
4.18443e-05
-0.000103112
0.0023915
1.14569e-07
-6.09764e-05
-7.29742e-06
-3.26814e-06
-1.02696e-06
-0.0866379
0.000753406
0.116391
-2.25447e-06
0.000663326
-2.64228e-07
-2.57528e-06
-1.30201e-05
-5.90684e-05
-0.00106117
-2.93091e-05
0.00016013
1.68942e-05
1.55358e-05
-0.000171811
0.144662
2.71535e-07
-2.20465e-05
0.0953757
-0.000212599
0.000117055
0.716033
0.0186727
2.11197e-05
2.43013e-05
0.000215917
-0.000169465
2.95896e-05
-1.24092e-05
5.21197e-05
-4.83012e-05
-2.68345e-05
-5.38286e-06
-0.00992339
0.00361389
1.46006e-06
0.467901
0.00134276
-1.74148e-05
-9.86884e-05
-1.84675e-05
-0.025445
6.41554e-05
-0.180892
4.85696e-05
-5.35382e-06
0.00304585
2.87561e-06
0.00139813
-0.207557
0.000678301
-1.84958e-05
-0.247253
-0.000197981
8.09667e-06
2.77753e-05
0.0019906
1.28488e-05
6.80526e-06
2.96419e-05
3.20439e-06
0.225445
0.0020122
0.00102058
-0.000119235
3.18959e-05
2.25217e-05
4.45251e-05
-1.25046e-05
3.89171e-05
0.0357913
0.0117718
2.43175e-05
5.5969e-05
0.00287554
1.62466e-05
0.024137
-0.000412942
-1.05678e-05
0.00351914
0.095519
3.53909e-05
-0.00361345
1.902e-05
0.0246774
0.000673928
0.0419529
3.26264e-05
-8.63289e-06
0.000105196
-0.00603869
-2.31386e-05
0.734613
0.28935
0.328894
0.00150286
-0.190924
0.00130404
-3.2375e-05
0.00104424
1.18397e-05
0.152129
3.0368e-05
0.00861639
6.36475e-06
0.0519047
-3.01215e-06
0.000109142
1.21265e-05
0.0265433
1.03109e-05
1.8657e-05
0.000183117
0.000298565
0.00082107
3.39962e-05
3.07775e-05
2.54293e-05
3.14149e-05
-1.00284
6.0176e-06
-0.0238722
0.52689
5.48846e-07
3.29712e-06
0.000673078
7.67432e-05
6.73798e-06
3.48496e-05
-1.95772e-05
0.000675787
0.000154725
0.000299803
6.84891e-07
-2.6396e-05
0.000114011
0.000564247
2.55551e-05
0.000192944
-0.000423841
1.19652e-05
0.00760367
0.0005519
-2.16362e-06
2.72744e-05
1.46765e-05
-9.42894e-05
-0.000202501
8.64982e-06
-0.000194796
-8.68433e-08
2.63256e-05
-0.000178054
3.95848e-06
0.00022177
4.49963e-06
0.000109709
-1.91448e-05
5.04189e-05
0.000158211
0.000170206
0.00117961
-5.83802e-06
1.97288e-05
2.75751e-05
-7.54379e-07
1.41238e-06
4.55785e-06
-3.45973e-06
2.85037e-05
1.51976e-05
7.40352e-06
0.00155937
1.98227e-06
-9.11586e-06
8.58747e-06
0.00482051
2.70739e-05
1.4325e-05
0.00293313
1.16663e-05
-5.41922e-05
0.114013
6.01676e-05
-8.97691e-06
-1.3879e-05
0.00741147
1.49581e-05
0.00259519
0.240062
-0.194584
0.216545
-4.90098e-05
1.4985e-05
-0.0121457
7.41144e-05
1.03016e-05
-0.0242113
0.0106258
0.00461176
2.0843e-05
0.00253207
1.66559e-05
-2.48056e-06
0.235055
5.10808e-06
-0.0272467
-9.45864e-05
0.0036708
1.51008e-05
0.000398703
9.09589e-05
0.106967
-0.262205
-2.95827e-05
-0.000312746
0.00066406
2.46094e-05
-0.000193188
0.00268634
2.48066
2.88553e-05
0.0167812
5.32369e-05
-0.173112
0.00883176
0.171376
-0.0643845
1.56958e-05
-0.000107087
-0.0603896
-1.61272e-05
2.12742e-05
1.85107e-06
2.88495e-05
1.03848e-05
-0.221067
1.01532e-05
-0.0202575
0.000263731
-0.0158852
0.00313354
4.71962e-05
0.0100978
0.120226
9.50799e-05
0.039243
-7.93534e-05
0.00384166
1.20891e-05
7.26783e-06
0.171087
-1.47344e-05
-0.24853
1.55808e-05
-0.0204899
1.69806e-05
0.141692
0.150927
2.00854e-05
-0.487489
2.36928e-05
0.000204487
0.00159849
0.488761
0.61445
-1.33374e-05
1.80167e-05
1.80446e-05
-0.269424
-0.258471
2.86516e-05
-0.000119071
0.0381499
1.37135e-05
-2.82324e-06
-1.97048e-05
-0.0357108
9.80577e-05
-3.07752e-05
1.8573e-06
2.2302e-05
0.259284
0.00418976
-0.00111963
3.40393e-06
2.18107e-05
0.00673496
2.89214e-05
0.0365893
0.00228356
-0.0185005
0.12232
-0.0459952
1.94042e-05
4.71772e-05
0.000362121
0.000147905
0.000615683
4.88289e-05
0.00249227
-0.023553
7.3101e-06
0.0545105
2.43231e-05
-0.0146107
6.33765e-05
0.137048
0.00021907
0.00025283
1.84549e-05
3.89028e-05
-0.00235276
-0.0632304
-0.0702124
1.3728e-05
0.00146006
5.45531e-05
0.000211563
0.000412131
0.976571
-5.83513e-07
0.00375748
2.53771e-05
0.000674693
-2.40387e-05
5.05596e-06
-1.5391e-05
2.21531e-05
0.0857437
7.78502e-06
0.000268333
9.15815e-06
-1.91275e-05
8.3708e-06
0.00196691
1.48804e-05
0.000124431
5.2379e-06
1.8068e-05
-0.0163323
1.44674e-05
-0.100121
1.02937e-05
0.00386391
-3.44871e-07
-0.074451
2.02849e-05
-0.0525024
1.09699e-05
-2.53562e-05
1.84742e-05
0.0135007
-0.0250732
-0.00658121
0.0585571
-0.0176458
-1.54864e-05
0.000355992
-0.00929015
1.42469e-05
0.182881
0.110089
0.0019742
0.00519617
0.000229438
-0.0107132
-0.000152054
0.0802116
-0.0022492
0.000243676
3.95292e-05
-0.0164092
-0.185159
2.16779e-05
0.000221626
2.0551e-05
-2.41336e-05
0.00119691
1.39568e-06
-6.27616e-07
0.000154912
0.000584814
0.00164325
-6.4791e-05
-0.200707
1.86718e-05
-1.36607e-06
0.0617692
-0.20638
0.00118992
5.71001e-05
0.0196537
1.57935e-05
1.39941e-05
0.123899
6.6874e-06
0.000205489
-0.00883347
-0.00387835
8.09363e-06
-0.0453794
0.00844286
-0.0357566
-0.0829501
0.762143
5.96344e-06
0.168446
2.33103e-05
3.03747e-05
3.55467e-05
1.146e-05
0.00014764
-0.152079
1.43693e-05
0.0912836
0.000142805
0.00151135
4.12637e-05
0.00120435
-7.69271e-05
-2.23061e-05
0.00232163
0.00015511
1.05829e-05
0.00396763
9.6315e-05
0.00116903
-4.65019e-06
3.23746e-05
-0.00422119
0.371439
0.000861885
-6.38947e-07
1.21463e-07
0.000263637
3.36599e-05
0.130969
0.004081
-0.101876
0.00144189
0.0522553
-1.50281e-05
0.000279768
-0.000135697
0.00041607
0.00469796
1.69462e-05
-3.34877e-06
-0.1851
0.00163983
0.211114
3.41373e-05
-0.154947
-0.063762
4.29908e-07
0.001733
0.00031632
0.0742706
-5.89579e-06
0.000546263
-0.122226
0.000260907
2.72658e-05
0.00387222
1.45007e-05
-2.94349e-06
2.11445e-05
0.0938719
1.5621e-05
0.000470443
-0.0148498
0.00171097
0.000297584
0.00139678
0.00147239
0.255136
0.00419612
1.29007e-05
2.85872e-05
0.000133267
-1.35731e-05
-8.04272e-06
-0.00275589
-0.0950326
0.000320951
-0.0169107
0.000309963
0.105825
3.0203e-05
-0.034575
3.01863e-05
-0.00542507
0.00372985
-3.62678e-06
0.31548
-0.013449
1.84412e-05
3.62371e-05
-1.69809e-06
1.85413
-0.05046
0.000773619
-0.000235923
-0.00214778
-0.0662156
0.176216
0.0167286
-6.02027e-05
-1.77314e-05
-0.0750457
-0.0019784
2.75599e-05
9.53041e-08
-4.12697e-06
3.73637e-05
1.81631e-05
0.000484497
-0.246225
2.60199e-05
-0.000149513
0.0884073
5.07399e-05
-1.47272e-05
0.000276484
-0.0175076
4.20557e-05
-0.000564988
-0.00278996
9.2598e-05
3.12636e-05
0.000101656
2.18169e-05
0.000157803
0.103462
0.275513
6.49458e-05
0.0100625
8.51329e-05
0.0162641
3.49846e-06
-9.7955e-05
0.000133683
1.60541e-05
-0.00715995
-8.62366e-05
-5.61352e-07
0.000778094
-6.41964e-06
5.18241e-05
0.00047769
2.57e-05
0.0075545
3.12445e-05
1.93761e-05
-0.172481
2.59862e-05
0.0035133
-5.19249e-05
1.28755e-05
0.00350371
-0.000237671
0.00119675
-0.0905784
-4.13786e-06
-0.0129031
1.52044e-05
-7.14522e-06
-0.14311
0.723569
-4.94749e-06
4.31701e-05
5.08562e-06
6.36978e-05
0.0038058
0.000101532
-1.54285e-05
-3.6599e-06
-1.10991e-05
0.000129634
2.92513e-05
6.13771e-06
1.52095e-05
1.9144e-05
0.131049
0.000218556
3.40573e-06
0.00172826
2.383e-05
-0.0403544
-0.00105136
0.00100218
3.77485e-05
1.8411e-05
0.00373963
0.000155921
1.61627e-06
1.08e-05
0.0131293
0.0114231
1.35235e-05
6.23263e-07
0.00318707
0.00162672
3.4505e-06
0.063526
0.00193202
1.91802e-07
0.000103976
-0.00799656
6.1991e-05
0.000369043
0.183011
-1.26292e-05
0.122931
-0.00846747
0.00966003
-1.09717e-06
1.75341e-05
4.76471e-06
2.27074e-06
0.00466605
1.33071e-05
0.280062
-0.000952256
3.98004e-06
0.000103557
0.000321335
-8.03295e-06
5.34812e-05
9.56016e-05
-6.5938e-05
-0.106952
2.80314e-06
3.16889e-05
0.137771
-9.53112e-05
6.8343e-05
7.32895e-05
2.6281e-05
7.11591e-05
3.33823e-05
-1.33152e-06
0.00104437
-2.02348e-05
0.00430746
0.0360794
-6.91922e-07
1.87781e-05
9.00473e-07
0.00441633
-7.60464e-07
0.000299668
3.6542e-05
-3.75563e-06
0.000639415
8.16182e-06
0.00093006
3.23885e-05
6.61571e-06
-0.0827147
-0.0901341
1.55557e-06
8.43176e-06
2.40928e-06
-0.132681
0.000377706
5.79783e-05
-0.0359262
-0.0197109
2.43104e-05
-0.00182998
-0.0574308
0.000420617
0.12373
0.00524395
-0.096881
2.47422e-05
-1.72419e-05
0.00604675
2.97149e-06
-0.115166
0.0398944
-2.56777e-05
-0.502793
-0.545992
-2.17501e-05
0.0540518
-2.24403e-06
0.000829098
0.00235342
2.67693e-07
-0.00782708
-4.09708e-07
0.00203455
0.00223479
-3.82387e-06
0.0155375
3.95431e-06
-2.58899e-06
0.00134976
0.000372184
2.03899
-0.193158
4.01379e-05
0.000485678
0.965179
1.48496e-05
0.000430523
2.79425e-05
0.0390307
0.00274783
-0.00107965
-2.77701e-06
0.000427731
1.19087
0.745481
0.000932469
-2.93148e-06
1.49267e-05
0.431973
-0.0201695
-0.118309
0.000224214
0.000164357
0.000629764
2.62785e-05
-1.98507e-06
-2.39837e-05
9.89184e-05
-2.4988e-06
-1.27593e-05
0.0728569
-0.656124
6.41411e-06
0.281294
0.000218483
-0.461634
-0.38676
0.000406923
-0.0152081
-0.0995457
-2.37053e-06
0.0134308
0.0171257
-0.025675
-0.0498559
3.65634e-05
0.0106314
-0.0455696
0.00203887
0.000568852
-0.0299423
0.0220976
1.7631e-05
0.000550602
0.000433202
3.80022e-05
0.00334448
-4.41799e-06
-1.33818e-05
1.04577e-05
-4.75782e-06
-1.14727e-05
1.56392e-05
0.000165059
0.000478843
-0.027479
-4.1379e-06
-0.0337407
3.04536e-05
0.000555235
6.16479e-05
0.0682401
-0.439452
2.2988e-05
0.00230024
-2.79426e-05
1.17668e-06
4.69094e-05
-9.07833e-06
1.51056e-05
0.00488276
6.76455e-05
-0.0168265
-4.06101e-06
7.76951e-06
-0.00944016
-9.63683e-06
7.16169e-05
5.04807e-06
3.50826e-05
-0.0172734
0.00323036
-0.269245
0.605325
-0.002851
5.55035e-05
5.28263e-05
1.04154e-05
0.000425167
0.00269607
0.00415158
0.284708
2.09314e-05
0.00204568
0.00014998
-0.0111692
0.103289
0.000430029
-0.382441
0.0112976
-6.79683e-06
0.00184802
1.31964e-05
0.00240451
-0.000139722
0.00631651
0.00236075
-2.21225e-07
-0.535156
0.106678
6.45791e-05
0.00022551
0.0001121
0.497976
-0.000231406
5.98942e-05
-0.101731
1.74211e-05
0.326917
-4.59838e-05
7.49741e-05
0.000139975
7.86465e-05
0.00210937
1.78443e-06
0.0952193
0.000428238
1.76879e-05
1.54113e-05
0.165707
0.000127898
-0.162763
-0.000134532
-2.2297e-05
0.000521191
0.00392006
0.00026278
2.90021e-05
-0.00869977
4.83614e-05
-9.74109e-07
-0.0202548
0.000896651
2.87577e-06
4.72905e-06
-9.41115e-05
-0.00530909
0.00164877
8.27868e-06
0.0158391
0.000189723
0.00365616
-0.040062
0.000122239
1.10698e-05
0.00559418
1.00757e-05
1.59892e-05
1.13857e-05
0.00492088
-0.472233
0.00371612
1.1038e-05
6.2216e-05
0.000127024
-0.125176
0.000325351
2.34014e-05
4.81187e-05
4.11253e-05
-0.0761073
-1.13735
-1.30986
1.81943e-05
0.0190964
-7.54289e-07
-6.34021e-06
-5.68048e-05
0.000123429
0.00214545
-3.72684e-06
-0.0345645
-0.0236255
-0.552187
0.000423321
4.55189e-05
5.54062e-05
0.00192844
1.32859e-06
-9.03836e-06
0.000800747
3.79861e-05
6.59263e-06
8.57534e-05
4.19863e-05
1.58269e-05
-0.268004
0.00204743
-2.85694e-05
0.000361974
-0.00355057
0.000312905
0.00271159
3.78101e-05
5.6346e-05
3.19037e-05
3.51852e-05
1.80574e-05
-3.47447e-06
0.00572007
0.00500696
5.79547e-05
-2.45939e-05
8.78973e-06
-3.28454e-05
0.000167511
0.00121
0.000146913
2.22793
5.66372e-05
0.000102414
-0.000355539
0.00474341
1.27227e-05
1.40323
1.1819e-05
4.02446e-05
2.25682e-07
0.963094
0.000357295
-0.0516717
0.767388
8.16837e-05
1.25123e-05
1.71889e-05
2.87036e-05
0.00493814
3.05157e-05
0.000550945
0.595028
7.25009e-05
-0.00465515
0.00505026
0.000406353
0.00815909
2.27805e-05
0.000361753
1.30826e-05
2.9146e-06
-6.17807e-07
2.50942e-05
-0.0257607
0.00577892
1.49461e-05
0.0854656
0.328295
1.00969e-05
-0.0128452
2.00049e-06
0.00101333
-6.02025e-06
-1.02658e-06
-0.00287799
3.00224e-05
-2.21429e-06
0.000471373
0.00152131
0.00448265
0.000116079
5.23023e-06
0.000144087
-0.469435
-0.00507257
0.00143838
0.000566535
3.46469e-05
3.20431e-05
-0.0221013
-1.31939e-05
0.00115383
-0.000598614
-0.0953414
3.41637e-05
0.00143002
1.68491e-05
8.69666e-05
0.000842523
0.00121443
0.000931566
0.000139843
0.000109466
0.000726364
0.024973
0.00220267
3.61805e-06
0.000477652
0.00560646
0.000407852
0.0021273
6.89731e-05
8.46314e-05
4.45775e-06
-0.00988476
-0.00358544
-0.00509286
1.64214e-05
0.000494816
-1.53578e-05
0.000833993
3.67462e-05
2.79528e-05
-1.06566e-05
1.25105e-05
0.00255745
-0.000115061
0.000243635
0.000142843
1.35597e-05
3.57854e-05
0.186825
-2.85351e-05
3.43331e-05
9.50223e-05
0.00386865
0.00490023
1.62785e-05
-2.64092e-06
1.03656e-05
0.0038341
8.28337e-05
0.00448683
3.58529e-05
0.00208289
3.26699e-05
8.54672e-06
0.00129725
7.81226e-05
0.00138969
5.8784e-05
5.31789e-05
1.3174e-06
0.000194993
0.0541013
5.35099e-06
0.000130285
0.0145749
1.53285e-05
9.56663e-05
0.000132056
2.34032e-05
9.57361e-06
0.000119771
0.46946
1.71166e-05
1.68033e-05
-6.30758e-06
0.020793
0.000538612
-0.0348256
3.00275e-05
2.78946e-05
0.00314332
0.0773284
-0.00045187
0.000551849
0.000306808
-0.00300671
3.10137e-05
0.0696076
-6.89631e-05
0.0157547
1.52063e-05
-0.0303756
-0.0172946
-2.14087e-07
0.000401592
-0.00117285
0.000106658
-1.03353e-05
0.194699
1.53844e-05
-0.00223957
7.77615e-05
1.52262e-05
9.18925e-05
-1.18327e-05
9.15675e-05
0.0113462
1.66801e-05
-2.46225e-07
-2.8608e-06
1.72376e-05
2.24796e-05
-0.0157669
-0.349278
0.0127204
2.96108e-05
4.24026e-05
0.000403919
-2.26188e-06
-3.19186e-06
0.00817453
0.00204043
-0.000121449
-1.5046e-06
-0.0115399
0.00030788
-0.000852898
0.0650733
0.000210204
5.2767e-06
5.28156e-06
0.000387952
0.143382
-4.50692e-05
1.74498e-05
0.123682
0.0109239
0.0023149
-0.182444
-1.42801e-05
5.21055e-05
-1.90449e-05
8.17838e-06
7.7216e-05
0.0203891
-0.125449
-0.0950556
5.65578e-05
-0.00805244
8.66431e-05
2.16585e-05
-4.74969e-06
0.000120302
-2.83895e-05
0.000775879
2.00006e-05
4.08751e-05
3.33625e-05
1.8624e-05
1.20629e-05
-3.50915e-06
0.000696465
-0.00315818
0.0242859
6.54823e-07
1.53481e-05
5.24088e-06
9.45931e-05
9.52058e-08
-0.0560135
0.000122775
0.00012675
0.000118339
-0.00444077
3.59216e-05
0.000372412
0.474132
2.3745e-05
-3.08128e-06
-0.842952
4.58383e-06
-4.14483e-06
5.55403e-05
0.107403
0.0282828
0.00187548
9.38822e-05
-0.166455
3.69301e-05
-9.15672e-06
4.90132e-06
5.91778e-06
0.000505987
5.18458e-05
5.01075e-05
0.00239176
3.48062e-05
0.0330589
-0.000423425
0.00117661
5.2505e-05
-0.0124328
0.000880011
1.83947e-05
4.41095e-06
-1.13772e-06
6.25747e-05
-7.85061e-07
0.03402
6.45343e-06
0.00364479
2.02822e-05
-8.7577e-05
0.00824203
2.71167e-05
0.595582
0.00484015
-8.06403e-06
0.356621
1.38395e-05
4.43587e-05
3.02088e-05
9.54252e-05
1.53349e-05
2.9365e-05
2.14192e-05
1.41306e-05
0.00446774
3.97133e-05
1.1474e-06
9.34326e-05
1.87864e-05
2.48892e-05
2.48173e-05
8.27626e-06
-3.10334e-06
3.68593e-05
1.73997e-05
-2.58583e-05
8.24829e-06
0.000106959
0.0787571
1.71931e-05
2.22799e-05
0.000318507
0.0169579
3.76925e-05
-0.00421166
-2.42015e-06
1.39442e-05
-5.70538e-06
-3.35558e-05
-0.418635
0.0216623
2.82364e-05
0.000105814
-0.028672
2.48138e-05
0.0304288
0.367819
4.76951e-06
-0.323413
3.64268e-05
0.253982
0.00046385
-0.129674
-0.940564
-0.107981
-1.71379e-05
1.1336e-05
1.74605e-05
0.000521677
0.00157258
0.000103105
0.108207
-0.076817
5.18795e-05
2.1684
0.0345218
-1.47877e-05
6.70847e-07
0.00100095
0.000930264
3.41649e-05
4.11721e-05
0.000110019
9.87318e-06
6.35661e-05
-2.38015e-05
1.06548e-05
4.81006e-06
-0.00239719
7.70279e-06
9.61162e-06
1.47952e-05
2.40878
1.05045e-05
-3.59112e-05
0.0316257
-0.0014341
-0.000312375
2.35987e-05
-2.5881e-06
3.12445e-05
0.0012082
-2.10971e-05
0.000131817
0.0616626
-0.000100424
0.000744674
-8.10378e-07
0.00520233
0.000586476
0.00525733
-0.00420717
0.00469232
3.47902e-05
-1.41871e-05
9.65338e-06
0.386429
1.90026e-05
1.63544e-05
4.03289e-05
0.000640909
0.478023
0.00255998
-5.28526e-05
0.0029377
-0.000741778
0.00191227
0.024878
0.0269508
0.0156532
0.00171271
0.000210616
0.0979102
1.67995e-05
1.85879e-05
2.39402e-05
0.329803
0.00526575
0.00722816
-1.092e-05
1.672e-05
1.67271e-05
1.02084
2.45191e-05
1.9906e-05
2.81379e-05
0.00157264
8.14173e-06
1.99598e-06
1.08205e-06
2.06813e-05
0.0206701
0.000306554
9.68823e-05
1.23978e-05
0.00540613
0.000150986
1.14442e-05
2.96103e-05
0.0315709
0.0304323
1.86845e-05
2.1191e-05
0.0580696
1.25533e-05
3.4722e-05
1.2694e-05
-4.01471e-05
0.000915353
-2.54125e-05
3.18037e-05
1.20815e-07
2.34964e-05
3.52084e-05
1.74408e-05
1.6805e-05
1.30264e-05
-1.2993e-05
0.208584
-9.65365e-06
-6.15439e-06
0.000656176
8.62585e-05
6.91264e-05
0.00258497
1.57405e-05
-0.0163765
4.41742e-05
0.000639822
6.52238e-06
0.00853239
9.60725e-06
2.85533e-05
-8.48276e-06
0.00388322
-2.23472e-05
3.30202e-05
-0.0125087
2.04475e-05
-4.2563e-06
7.74968e-06
4.83373e-05
0.00091986
1.39439e-05
0.0996053
1.61954e-05
-0.0290393
-0.000126213
-1.37916e-05
0.00100482
-1.08891e-05
3.47241e-06
3.36497e-05
0.321687
-0.00224701
0.0041818
-0.00591484
-0.00492119
0.000556781
0.00115822
6.25717e-06
3.56614e-05
-4.93704e-06
0.145748
0.00135226
-1.42617e-05
0.000273539
1.3798e-05
2.80282e-05
-0.331236
1.23824e-05
2.36224e-05
-0.000436864
0.00335388
0.0177174
-1.21564e-05
3.39154e-05
0.0508061
1.31906e-05
5.82577e-05
-0.0115845
1.7162e-05
0.0166354
0.00967651
-0.00742281
2.36914e-05
7.83091e-05
-5.50559e-06
-5.33539e-06
-0.00624435
7.158e-05
-1.81027e-05
-0.000134384
5.57879e-06
0.00135092
-1.00973e-05
6.98343e-05
2.0507e-05
-0.048826
2.026e-05
-4.85525e-05
0.129213
0.0263875
1.64083e-05
0.000831513
-3.33858e-05
2.29999e-05
-1.4486e-05
8.08193e-07
-1.0675e-05
-0.0677563
0.00115102
9.24246e-06
-6.1917e-05
-5.48373e-05
-1.82248e-06
1.66958e-05
3.26874e-06
8.9991e-05
3.27889e-05
-2.31784e-05
-7.5044e-05
-3.62021e-05
0.224864
-2.80583e-05
-0.000101684
0.0014795
-0.000119913
4.20087e-06
0.0169628
0.163364
0.561641
-0.00108013
0.00322613
1.01494e-05
7.03913e-05
0.00612525
-0.245432
0.0310284
-0.0082952
0.00814602
1.76046e-05
-0.0412639
0.0559528
1.4529e-05
0.00106594
0.000102483
-0.00634076
-0.000981301
0.392138
6.66093e-05
-1.04968e-05
-0.00116924
-1.32027e-06
-1.78622e-05
-0.0010009
-0.0442943
-1.81061e-06
2.90698e-05
-5.97276e-06
0.550874
1.22191e-05
9.79321e-06
3.84104e-05
-1.76577e-05
3.44427e-05
0.00158516
9.11669e-05
8.95656e-06
-1.62434e-05
0.000146188
-0.00448743
-0.00563959
2.74744e-05
7.82716e-06
0.000173259
1.77608e-05
1.51676e-05
8.36791e-06
0.190689
2.18721e-05
0.00174202
3.33918e-06
-5.24959e-05
-2.15219e-07
2.26377e-05
0.40979
0.00104146
5.46649e-08
-9.07091e-05
0.0883396
0.653538
-0.00722803
0.00179137
-1.10562e-05
0.00018702
2.79183e-05
-1.43953e-06
1.0004e-05
-3.83874e-06
1.75791e-05
1.62757e-05
1.59614e-05
0.00536486
9.16603e-06
0.0312721
-0.00168623
7.84959e-07
-0.00403738
0.00159145
7.14418e-05
2.32504e-06
5.06487e-05
8.36528e-06
-5.57802e-06
0.0204416
-3.17808e-06
8.29137e-06
-0.0136015
2.73653e-05
-4.27306e-06
-9.3091e-06
0.246326
3.57115e-05
2.31668e-05
0.0567957
1.53272e-05
4.32993e-07
1.10145e-05
0.050469
2.04735e-05
1.38132e-06
2.88144e-05
8.84816e-06
-0.0170529
-0.0228096
2.79446e-05
-0.00493402
-3.67475e-06
1.3572e-05
4.28167e-06
0.0631106
-0.250789
6.65538e-06
3.00105e-05
-1.36518e-05
2.40331e-05
1.03812e-05
5.26156e-06
0.065478
0.0255404
1.03497e-05
8.63196e-05
-0.0136629
-7.40198e-06
8.34812e-06
-1.24321e-05
0.000607223
0.101184
1.1863e-05
0.000146866
-0.0883691
3.63817e-05
-2.87836e-05
0.612196
-0.588204
3.49121e-06
1.8095e-05
1.92433e-05
-4.98103e-07
9.89635e-06
0.035674
1.59604e-05
-0.0969404
0.0184809
8.53556e-05
-1.43386e-05
0.0975851
4.29169e-05
-0.0118714
0.0166592
0.00434445
2.38023e-05
1.72976e-05
-9.9337e-06
-0.0152405
2.09846e-05
0.00749494
1.45846e-05
1.26366e-05
-7.23115e-07
-6.45591e-06
3.4473e-05
0.0923447
-8.80584e-06
-0.246233
0.106136
0.00448537
0.183423
-3.10823e-06
-1.08713e-05
0.00022932
0.0375679
1.34139e-05
0.740143
-0.00780426
8.37759e-06
2.48241e-05
0.0313216
1.70774e-05
-0.00155771
0.0145802
3.28399e-05
-0.0051309
7.97909e-05
0.0111781
0.00113019
2.15687e-05
-4.79926e-06
-0.00277256
0.00237021
8.17324e-06
0.000322432
2.69008e-06
-0.00110818
1.94782e-05
0.0405903
-4.94164e-07
1.97316e-05
0.000461818
-2.78968e-06
-0.00450922
1.60808e-05
1.62148e-05
-1.03919e-05
0.00121702
1.86204e-05
1.50348e-05
-0.298702
0.00225049
0.201328
5.42627e-05
-1.176e-06
0.000709714
0.668301
0.00817308
0.0970203
-4.59435e-05
5.20327e-05
1.46422e-05
7.56185e-06
-1.43051e-05
8.00609e-05
3.06767e-06
5.67167e-06
-0.00751656
-2.1171e-05
1.94016e-05
1.06143e-06
2.03213e-05
-1.63151e-06
2.09413e-05
0.000334922
-0.00714062
-0.0440586
-0.000471207
0.00378592
-0.0402717
-7.04357e-06
2.52093e-05
0.000107074
0.0015593
4.97698e-06
5.83008e-05
2.34623e-05
3.74107e-06
2.34937e-05
0.003039
-7.66731e-06
-0.268626
3.07497e-05
-3.74224e-06
-0.164669
8.83119e-05
7.01818e-05
2.5677e-06
1.54835e-05
-0.00526014
-0.00391806
1.92405e-05
2.03257e-06
0.000370865
1.77337e-05
1.81967e-05
1.69464e-05
0.00893037
-1.60121e-05
1.57681e-05
0.0028233
1.23442e-05
0.00386859
-2.63748e-05
2.43607e-05
1.81698e-05
-0.0174452
0.0126456
-0.0478106
-0.221562
1.95717e-05
-9.63641e-07
4.78579e-05
6.8669e-05
-0.00243397
1.20153e-05
0.0762173
-0.579825
6.81679e-05
0.000924118
0.0651721
8.26523e-06
0.0523357
0.000131062
0.712671
0.000791047
2.07962e-05
1.77123e-05
8.44598e-05
1.61646e-05
-0.00162928
-0.0474433
0.00385409
-5.66543e-06
3.16897e-06
2.06487e-05
-0.00656585
-4.30619e-05
-0.177036
1.83223e-05
5.50483e-05
0.0186832
-5.37243e-06
0.0288708
0.0300192
2.03136e-05
-2.53989e-05
-1.71009e-06
4.70056e-07
0.0295231
-0.0197713
1.67121e-05
1.6449e-05
-5.23438e-06
0.0828319
3.8474e-06
0.000373129
0.0106457
0.000945747
-0.0440534
0.000197718
-0.00791893
2.8327e-05
0.000928546
5.2394e-05
1.15696e-05
0.000264306
-0.0335706
9.31327e-06
6.24597e-06
-0.00298728
8.14819e-06
-8.57887e-05
0.0341344
-6.17123e-07
5.19039e-06
-0.032119
0.155928
1.80768e-05
1.72478e-06
0.00180296
0.0104655
0.00118226
0.42398
-0.00102407
0.0793879
-8.43597e-06
0.00273496
0.000749814
0.0792891
-0.0746593
0.00636003
0.0338081
-0.0222067
1.46586
-5.71151e-06
2.13372e-05
-1.02604e-05
3.42633e-05
-0.0267245
3.21851e-05
0.00243936
2.85877e-05
-1.73366e-05
-3.91354e-06
-0.00289445
3.68904e-05
-0.0385086
0.000111968
-0.000936067
0.00488577
-0.000780735
0.110543
-1.65921e-06
0.000674611
2.3404e-05
0.11699
-2.84667e-05
0.000364991
-0.00268186
-0.00116027
0.153368
1.98021e-05
0.0504239
2.80266e-06
-0.000954285
8.64886e-06
0.734832
-6.1604e-05
1.33054e-05
3.31749e-05
-0.000555477
2.04591e-05
0.0086456
-0.0590265
9.44354e-05
-0.320769
3.46875e-05
1.12813e-05
0.485196
-0.000111742
0.0430568
-0.0674491
-2.13842e-06
0.00186583
-0.0244358
0.00207873
9.7202e-06
-0.173674
0.0251325
1.81543e-05
0.00118286
-9.66568e-07
0.00913908
-0.0459592
-0.035911
-0.177592
2.10686e-05
1.55231e-05
7.42731e-05
1.29324e-06
-0.000157736
-4.84329e-05
0.000137864
5.49542e-06
-0.0719611
-8.73103e-06
5.30215e-05
-0.00150037
-0.0335014
-0.00840212
-5.36051e-05
3.23732e-05
0.00530884
0.0701827
1.71782e-05
-0.0207771
4.44331e-05
0.00168652
-0.536798
-1.87388e-05
0.112762
-7.02671e-06
-4.04898e-06
1.89035e-05
1.83524e-05
-7.57666e-06
8.74395e-06
8.1328e-07
0.0451632
-1.23621e-05
1.82872e-05
-0.0797123
1.56035e-05
4.81778e-05
1.04455e-05
-0.391484
-2.21487e-05
0.000108496
-0.0795744
-0.0392623
2.91771e-05
-1.13767e-06
0.0540071
1.54739e-05
0.0398844
-0.894556
3.76544e-05
6.17953e-05
0.000463428
0.0916405
-0.0101708
-8.54741e-07
1.5209e-05
-5.57648e-06
2.1104e-06
0.000303262
-0.027455
-0.0473644
0.000272261
4.99611e-05
0.000259833
0.000100552
-0.0544489
-0.0483574
-1.14777e-06
-0.238383
-0.0851452
-3.15673e-05
2.15338e-05
2.93052e-06
8.99937e-06
2.0126e-05
2.05719e-05
3.18923e-05
-6.30111e-05
-0.0014625
4.87781e-05
-4.44598e-05
0.000315109
0.000479856
1.1921e-06
9.76684e-06
0.00329636
-0.000132014
0.000232166
-7.15311e-08
-1.78913e-05
2.28866e-07
1.18847e-05
-0.0677929
2.88547e-05
-1.82121e-05
-0.0241778
-0.045941
-0.0181392
2.11609e-05
0.218708
2.56268e-05
-0.0739644
-0.0540594
-1.85505e-05
-0.151201
2.01966e-05
3.32896e-06
0.105489
2.89791e-05
0.00243949
0.711513
-0.03837
-6.61323e-06
0.0134103
-6.34302e-06
1.40693e-05
3.02776e-06
1.45703e-05
-0.0327782
-0.0255047
2.14712e-05
-0.0573082
-0.318447
-7.56511e-07
1.48139e-05
-0.00328068
0.126965
0.0198302
0.000557632
0.0778921
0.0457099
4.22805e-05
0.120663
0.112625
0.0382577
-0.0992552
-0.00265303
-0.0621714
1.45909e-06
0.0391528
0.168031
-4.69225e-06
-0.235433
-0.0810283
0.129775
-8.31786e-08
-0.0116646
-5.57778e-07
1.87675e-05
-0.00137546
-0.25318
1.71569e-05