/*--------------------------------*- C++ -*----------------------------------*\
| =========                 |                                                 |
| \\      /  F ield         | OpenFOAM: The Open Source CFD Toolbox           |
|  \\    /   O peration     | Version:  v2012                                 |
|   \\  /    A nd           | Website:  www.openfoam.com                      |
|    \\/     M anipulation  |                                                 |
\*---------------------------------------------------------------------------*/
FoamFile
{
    version     2.0;
    format      ascii;
    class       volVectorField;
    location    "350";
    object      ddtCorrDdt0(U);
}
// * * * * * * * * * * * * * * * * * * * * * * * * * * * * * * * * * * * * * //

dimensions      [0 1 -2 0 0 0 0];


internalField   nonuniform List<vector> 
9793
(
(0.0327775 -0.0261356 -1.40568e-17)
(0.00361124 -0.106128 1.57466e-19)
(0.0320379 -0.0286108 -7.60923e-18)
(0.00214318 0.000425439 -3.94496e-18)
(0.0646197 -0.0481863 1.33761e-17)
(-0.00341039 0.00258378 -1.49155e-17)
(0.00232092 0.000104458 -6.04653e-18)
(0.00198429 -0.000118226 -2.02692e-18)
(0.00387688 0.00169214 1.08759e-17)
(0.0634348 -0.0440275 1.49512e-17)
(0.0286978 0.0172956 -4.71359e-18)
(-0.111092 0.0694788 -4.24617e-18)
(0.00229291 0.000158052 5.89234e-18)
(0.00506094 -0.00113852 -4.47534e-18)
(0.00238607 -0.000136545 4.34968e-18)
(0.00442012 -0.0014594 -1.2749e-18)
(0.0054025 -0.00470096 -6.93827e-18)
(0.00585047 -0.00551547 1.64306e-19)
(0.0700947 -0.0326287 -2.67045e-17)
(0.0048076 -0.00159502 1.80644e-18)
(-0.0378377 -0.0387744 1.4911e-17)
(0.00564057 -0.00653521 2.72435e-17)
(-0.0515362 0.0169242 1.62802e-18)
(0.00138985 -0.000188986 -5.7079e-21)
(0.00646395 -0.0013981 -2.61265e-18)
(0.00231495 4.54471e-06 -1.47226e-17)
(0.00377092 -0.00256279 -5.56387e-18)
(0.00523556 -0.00127829 4.03527e-18)
(0.0285221 7.89485e-05 3.94574e-17)
(0.00389781 0.00148506 -1.79005e-17)
(-0.0127682 0.0232595 4.08893e-17)
(-0.0464323 0.0168672 -3.31803e-20)
(0.0489529 -0.000156244 -6.95773e-19)
(0.0023216 -2.62237e-06 -1.4286e-17)
(0.0306408 -0.00241572 -7.211e-18)
(-0.0285309 -0.0767615 -3.44231e-18)
(0.00215112 0.000242081 -2.57192e-18)
(0.00488621 -0.00673335 -1.9756e-17)
(0.00159369 -0.000267821 -1.9129e-17)
(0.00229664 -0.000162916 -3.20741e-18)
(-0.00942947 0.0224327 -3.7972e-17)
(0.00228154 -0.00017325 3.70313e-19)
(0.002317 -0.000367924 -3.04009e-17)
(0.00235315 -8.9795e-05 4.89372e-19)
(0.00224836 -0.000154647 1.86515e-17)
(0.00216669 0.000371156 1.09612e-17)
(0.0303649 -0.00018339 1.87467e-17)
(0.026985 0.0337946 -3.82934e-18)
(0.0543416 0.0268506 -1.55374e-17)
(0.00207727 -0.000385118 1.54345e-18)
(0.0317804 -0.0028936 7.76846e-18)
(0.0327747 0.0142528 2.10906e-17)
(-0.00469354 0.000152236 7.74679e-18)
(0.00421864 -7.50416e-05 1.19474e-17)
(0.0593851 -0.00274049 -8.12272e-19)
(-0.0242689 -0.0016424 5.6262e-19)
(0.00250013 0.000966107 -1.12349e-17)
(0.0306622 0.0339048 -1.17827e-17)
(0.0294734 0.103499 6.17951e-18)
(0.0014884 -8.38911e-05 1.89091e-17)
(0.00231393 9.66382e-05 -7.03064e-19)
(-0.00414444 -0.00256997 7.78739e-18)
(0.0635423 0.0632693 9.35809e-18)
(0.00222318 -0.000112174 -1.34781e-17)
(0.0959788 -0.0618678 -1.07763e-17)
(0.0570072 0.0041788 -7.09195e-18)
(0.0898943 0.0193475 -1.56003e-17)
(0.0836706 0.00890531 9.33701e-18)
(-0.109645 0.079986 -9.06966e-18)
(0.0290393 0.015913 3.41357e-18)
(0.058702 -0.00585845 -1.62741e-17)
(0.00201049 -0.000268877 2.47023e-19)
(0.00193911 0.000285608 -1.29756e-17)
(0.0210178 -0.0284911 1.11923e-18)
(0.0338841 -0.00516666 4.13554e-18)
(0.0558873 0.0226707 3.62222e-18)
(0.00265383 0.00100348 -1.35236e-17)
(0.000521389 -0.00272725 5.17252e-20)
(0.00592822 0.00435829 -1.16412e-17)
(0.00602794 -0.000376322 -1.01519e-17)
(0.0530764 0.0312818 -7.03937e-18)
(0.00338719 0.00502369 1.15184e-18)
(-0.00393067 -0.122137 1.24311e-18)
(-0.00104104 0.0348645 5.24752e-18)
(-0.00854644 0.0181156 -2.38256e-17)
(0.0164512 0.0389369 -5.95126e-18)
(0.00662656 -0.000562849 -4.34768e-18)
(0.00278753 0.000903398 5.76793e-18)
(-0.00262566 -0.00197221 -1.1622e-17)
(0.00109348 0.00536492 5.1711e-18)
(0.0104627 -0.101017 6.24234e-19)
(0.0874927 -0.017116 -1.80966e-18)
(0.000306667 0.000790503 -2.26067e-18)
(-0.0428727 0.0277579 6.28097e-18)
(-0.00341643 -0.00251392 -8.888e-19)
(-0.00760677 0.035806 -1.57344e-18)
(-0.0477825 -0.017553 6.65476e-18)
(-0.000219999 -0.118457 -6.16217e-19)
(0.000572916 0.00050854 1.79889e-19)
(0.00232389 0.00114023 8.23986e-18)
(0.00216414 0.00135923 1.99911e-17)
(-0.00124758 0.00244391 -1.07576e-17)
(0.00171798 -0.000937566 5.24606e-18)
(0.00182596 -0.00083981 -2.62386e-19)
(0.00102789 -0.00229899 1.95258e-20)
(-0.00595181 0.0177038 2.51605e-17)
(-0.00244312 -0.00240729 2.14691e-17)
(0.00235926 0.000124264 -1.54403e-20)
(-0.00380786 -4.59625e-05 6.7701e-18)
(0.0449318 0.00559895 6.62882e-18)
(0.0019914 -0.000433912 -2.56763e-19)
(-0.0695211 -0.0125101 2.00224e-17)
(0.00223668 0.000838461 7.42582e-18)
(-0.0610197 0.0150504 3.33403e-17)
(0.0342214 0.0122335 4.30307e-18)
(0.00267196 0.00104935 2.35265e-17)
(0.0484082 -0.0292177 2.37827e-17)
(0.0340912 -0.00693411 9.58217e-19)
(0.00387725 0.00601292 9.74476e-18)
(-0.0373825 0.0281756 7.07293e-18)
(0.0429421 0.0197176 6.62395e-18)
(0.00209535 9.15023e-05 4.78232e-19)
(0.0027269 4.0424e-05 1.65772e-17)
(-0.00414344 0.00342378 -2.09572e-18)
(0.00599194 -0.000495395 7.16871e-18)
(-0.0455998 -0.033626 1.49359e-17)
(0.0148455 0.0172209 1.7208e-17)
(0.00897917 0.045788 -4.71185e-18)
(0.00675625 0.00511157 -1.69384e-17)
(0.00201672 -0.000109396 1.65778e-18)
(0.00222078 8.94791e-05 -3.40685e-19)
(0.00280995 0.000955173 1.89383e-17)
(0.0016992 -0.000412712 1.39592e-17)
(-0.00214687 -0.000460325 -1.64964e-18)
(0.00368996 0.00130484 -8.07585e-18)
(0.00295196 0.000787577 -1.30855e-17)
(0.0023874 -7.73675e-05 1.33789e-17)
(0.00242701 9.84456e-05 2.08905e-18)
(0.00221884 0.000741046 6.86947e-18)
(0.00224139 -4.13562e-05 -1.08487e-18)
(0.00267876 8.0236e-05 -2.62564e-17)
(0.00555077 -0.00211717 -5.15441e-18)
(0.00239716 -3.51308e-05 -1.38125e-17)
(0.00309288 0.00158478 -5.03081e-18)
(0.00561252 -0.0010511 3.39097e-18)
(0.00668583 -0.00158991 -7.73088e-18)
(0.000370361 -0.0431648 4.15417e-19)
(0.00266454 0.00182443 -6.61927e-18)
(0.000673944 -0.00011355 1.08443e-17)
(0.0959035 -0.0140243 -1.63055e-17)
(0.0395553 -0.0516747 -5.78811e-18)
(0.00212909 -0.000128434 -4.30996e-19)
(0.0410992 -0.0519191 5.18956e-18)
(0.0605837 -0.0423867 -1.7278e-17)
(0.000852691 -0.000157535 -3.70311e-18)
(0.00185856 -0.000107535 5.72903e-19)
(0.0022678 -0.000152623 8.0782e-19)
(0.00498958 -0.0020247 -2.07149e-18)
(0.00246099 0.00154507 -4.04998e-18)
(0.00262457 0.000132167 4.77006e-18)
(0.00189908 -0.000349068 -3.44736e-18)
(0.00512823 -0.0018802 -2.60523e-17)
(0.00282977 -0.00183105 2.65425e-18)
(0.0835398 -0.0323662 -2.4182e-18)
(0.0124509 -0.0432163 -8.69752e-19)
(-0.0267088 -0.0501557 -8.97057e-18)
(0.0198999 0.0441424 1.03635e-17)
(0.0138337 -0.00561387 -1.29852e-18)
(0.00335786 -0.00238393 -1.49445e-18)
(6.09687e-05 0.00149608 -3.67916e-18)
(0.00280268 0.001203 -3.70366e-18)
(-0.027698 -0.0269957 6.37039e-18)
(0.00999476 -0.0518373 -5.77659e-19)
(-0.0303155 -0.0218633 6.27715e-18)
(0.00587345 5.20638e-05 -2.65255e-17)
(0.0644472 -0.0399628 3.91825e-17)
(0.0028623 0.000877556 -2.67521e-17)
(0.0017222 -0.000104695 1.69733e-19)
(0.00207221 -0.000107062 2.59874e-18)
(0.0161614 0.00321894 1.24866e-17)
(-0.326497 0.157847 -3.67552e-18)
(0.0067654 0.00329467 -6.15102e-18)
(0.00227775 0.00158584 -1.8452e-17)
(0.00582298 -0.0015403 1.08094e-17)
(0.0514582 -0.0758371 1.00725e-17)
(0.00190201 0.000121036 3.13907e-18)
(0.0334965 0.036003 -3.57067e-18)
(0.00209219 -6.53815e-05 1.10657e-17)
(0.00261039 -7.60373e-05 -8.91296e-19)
(0.00314108 -0.00168981 9.38305e-20)
(0.00599771 0.00017996 1.94166e-17)
(0.00205273 -4.6402e-05 -2.69861e-18)
(0.0543411 0.0205212 -1.81392e-17)
(-0.0623052 -0.0211179 2.06221e-18)
(0.0880437 0.0213862 -1.56337e-17)
(0.0157874 0.00342472 1.39433e-17)
(0.0375245 -0.0348289 -1.02208e-17)
(0.00147899 0.0024453 5.33129e-18)
(0.0578004 -0.0438435 1.70862e-17)
(0.00214289 0.000110693 -2.68818e-18)
(0.0036821 0.00163526 1.37687e-17)
(0.0762371 -0.0402616 4.80436e-20)
(-0.0245267 0.0104548 5.88673e-18)
(0.00212808 -0.000216232 -5.70852e-18)
(0.00296636 0.000767403 -3.85621e-18)
(0.000966678 -0.00173834 -6.07999e-19)
(-0.032483 -0.0606404 -1.31556e-18)
(0.00426083 0.000452585 -2.9592e-18)
(-0.00577004 0.0143563 9.99928e-18)
(0.00819053 -0.00011696 -6.16656e-18)
(0.020454 -4.8096e-05 -1.36883e-19)
(0.0469247 0.0175476 3.78039e-18)
(0.0631809 0.0313805 -1.5427e-17)
(0.0045779 0.000233148 -2.22931e-17)
(0.038595 -0.0368691 1.68224e-17)
(0.00228038 8.05888e-05 7.22389e-19)
(-0.000688089 0.000547122 3.60585e-17)
(0.0556919 -0.0634891 2.00692e-18)
(0.00110803 -0.00197673 6.13006e-19)
(-0.086907 0.231869 -8.46097e-18)
(0.0359322 -0.0145703 -3.40777e-18)
(0.00273022 0.000213383 4.7058e-18)
(0.00611276 -0.000129589 2.94133e-18)
(0.0021851 0.000230269 -3.88757e-19)
(-0.000606525 0.0425686 -2.76125e-18)
(0.0714481 -0.0400205 3.84999e-18)
(-0.00371397 0.00183737 -1.8757e-17)
(0.00108603 -0.000334849 -7.77722e-18)
(0.0365679 -0.0121964 -1.39539e-18)
(0.0273182 0.0118741 1.50706e-17)
(0.00155177 4.52049e-05 -7.4714e-20)
(0.00165339 -0.000373217 -1.43204e-19)
(0.00697066 0.00369908 1.2953e-17)
(0.00236024 0.000200099 -8.09424e-19)
(0.0197339 0.0179156 -2.41263e-18)
(-0.0858417 0.234768 -1.06273e-17)
(0.00227751 0.000544287 1.26793e-17)
(0.00278239 0.000822712 -1.97489e-17)
(-0.0523695 -0.0180792 -1.16069e-17)
(0.000419719 0.0033606 1.90328e-17)
(-0.0039123 0.0137671 -1.21541e-17)
(0.00535537 -0.000205969 6.02177e-18)
(0.00295114 0.000568574 -1.45552e-17)
(0.0509291 0.0129993 -1.82341e-17)
(0.00264888 0.000661194 1.50931e-17)
(0.000686194 0.000133189 5.28438e-19)
(0.00215221 -5.09485e-05 6.88455e-19)
(0.00458726 -0.00248652 9.54964e-18)
(0.000467634 0.000325499 -4.7723e-18)
(0.00233516 0.000284254 6.88311e-18)
(0.00319965 -0.00233486 -5.96556e-18)
(0.0118871 0.000488901 -1.15013e-18)
(0.0327702 0.0105569 -6.25631e-18)
(0.0172166 0.0178454 -5.2311e-17)
(0.00273066 0.00031857 -6.31864e-18)
(0.00310504 -0.00903423 -1.94036e-17)
(0.00243447 0.00111883 3.66768e-18)
(0.0125732 6.25795e-05 2.14423e-17)
(-0.000100367 0.00642861 4.17978e-18)
(0.003884 0.000922837 -1.06558e-17)
(0.0313024 0.0814644 -2.77017e-18)
(0.00260627 0.000678054 -1.96266e-17)
(0.0337453 0.00851256 -2.96003e-17)
(0.00242485 0.000153761 2.07484e-18)
(0.0149929 -0.00529396 1.99373e-17)
(0.00112506 -0.00106282 4.35986e-19)
(0.00155416 -0.000797171 -4.21153e-19)
(0.0206564 -0.00120496 -1.24351e-17)
(0.084169 -0.0431513 9.81418e-18)
(-0.00141178 -0.00134471 -2.84182e-17)
(0.00416951 0.00093779 1.37852e-18)
(0.00268556 -0.00070123 4.77198e-18)
(0.00848895 -0.0129176 -6.13462e-18)
(0.00277121 0.000493029 -7.80023e-18)
(0.0177617 -0.0796302 1.90355e-19)
(0.0131031 -0.0823263 -3.66679e-19)
(0.00204977 -0.000282432 -3.61977e-17)
(-0.0563518 -0.0328153 4.08196e-18)
(0.00224277 2.80837e-05 -1.1535e-18)
(0.0159211 0.0183838 3.63603e-18)
(0.00407205 -0.00242673 -1.59106e-18)
(0.00149323 -0.000461811 1.26214e-20)
(0.00238668 -6.92121e-05 1.39166e-17)
(0.00232439 5.13137e-06 -4.50706e-18)
(0.0144294 0.017105 3.0751e-17)
(0.00302152 0.000242376 -2.97344e-17)
(0.00292837 -0.00246145 4.75861e-18)
(0.0135698 -0.00338448 -1.29174e-17)
(0.00237934 8.43057e-05 6.16432e-20)
(0.00302673 0.000669788 -5.56823e-17)
(0.0023167 0.000692917 -8.70755e-18)
(0.051662 -0.0289864 -8.9811e-18)
(-0.00249117 0.00010246 -7.05786e-18)
(0.0021085 -0.00021674 8.50427e-19)
(0.00207796 0.000149381 5.36945e-19)
(-0.00236976 0.000234962 -3.39078e-18)
(0.00620081 -0.00169046 -2.73951e-17)
(0.0143382 -0.00355703 -2.49099e-17)
(0.00227512 0.000157894 1.56737e-17)
(0.0357873 -0.168907 -6.11688e-17)
(0.000944665 -0.000299863 1.11088e-17)
(-0.00959422 0.181308 1.46475e-17)
(0.0140664 -0.024441 1.37953e-17)
(0.00211551 0.000147835 4.79601e-18)
(0.00233432 0.000130702 7.79052e-18)
(0.00361634 0.00175699 -5.50702e-18)
(0.00865706 -0.0140361 2.26466e-17)
(0.0108133 -0.00670213 2.73245e-17)
(0.00328834 -0.00260886 -6.91723e-18)
(-0.000924454 0.185772 -3.97695e-18)
(0.0022122 -2.60843e-05 -1.16897e-18)
(0.00366704 0.00156194 6.50149e-18)
(0.0108065 -0.00721825 -2.00597e-17)
(0.00192572 -0.00320214 -1.81663e-17)
(0.00328905 -0.0012019 6.28439e-18)
(0.000946269 0.00464147 -1.03948e-17)
(0.00657873 0.0389627 1.84821e-18)
(0.003342 -0.000186239 8.92514e-18)
(0.00923011 -0.0108249 1.094e-17)
(0.00832061 9.51721e-05 9.47476e-18)
(0.0028887 -5.20561e-05 1.0427e-17)
(0.0208931 -0.0355318 4.00323e-20)
(0.0385164 -0.0443397 1.19418e-17)
(0.0163807 -0.0272837 -7.51175e-19)
(0.00142083 -0.000830065 4.27871e-20)
(-0.333959 0.15991 -1.72067e-17)
(0.00623783 -0.00242252 8.91627e-18)
(0.0071623 0.205745 -1.96867e-17)
(0.0361909 -0.00869235 -1.13321e-17)
(0.00256991 -0.00124568 -1.25321e-18)
(0.00777568 0.00577334 3.34441e-18)
(0.0341946 -0.0103276 1.83566e-18)
(-0.000892976 0.00203917 1.12484e-17)
(-0.00369776 0.0111853 1.69231e-18)
(0.0336702 0.0177064 1.57197e-18)
(0.0020653 5.59795e-05 -1.30821e-17)
(0.00211099 0.000245706 4.24957e-17)
(0.00342285 0.0008818 1.56847e-17)
(0.00240745 8.5443e-05 -4.47493e-20)
(0.00547551 -0.00116079 2.46308e-18)
(0.0368061 -0.0302281 6.70711e-18)
(0.00190736 0.000108575 -3.48806e-18)
(0.00277617 1.56387e-05 -5.19885e-18)
(-0.0113237 -0.237685 5.02116e-17)
(-8.0814e-05 0.00288454 -1.85963e-17)
(0.00412766 -0.00175152 5.17915e-18)
(0.00128388 -0.000688287 5.54442e-20)
(0.00503215 -0.00417734 6.35947e-18)
(0.00204428 -0.000150773 5.79504e-18)
(0.0387032 -0.0316723 -2.03722e-17)
(0.00614018 -0.00108438 3.04969e-17)
(0.00307748 -0.000524581 -1.13364e-17)
(0.00191892 -0.0023585 3.10096e-19)
(-0.000805773 0.00306484 2.84687e-18)
(-0.0429942 -0.0137959 -1.57917e-17)
(0.00421505 -0.000139042 1.81004e-17)
(-0.0116941 -0.0189494 4.04238e-19)
(0.00186518 -0.000192612 1.91336e-19)
(0.0231223 0.00579662 3.50549e-18)
(0.0624386 -0.00962976 1.84358e-17)
(0.0365615 0.0339871 1.35665e-18)
(0.0244205 0.00607781 -3.37827e-18)
(0.00478324 -0.00432214 4.08859e-18)
(-0.00346939 -0.000994921 4.20801e-17)
(0.0393828 -0.0397894 -1.1065e-17)
(0.00249886 -0.000150325 -1.30428e-17)
(0.0315784 0.0897354 -1.22038e-18)
(0.00158755 0.00415941 6.46094e-18)
(0.00247082 0.000177505 -1.58205e-18)
(0.023409 -0.0145623 -1.00751e-17)
(-0.00229554 0.0107287 4.17299e-18)
(0.0414554 -0.0437313 -4.87463e-18)
(0.00307871 -0.000595564 5.95494e-18)
(0.0208709 0.0186742 3.69339e-18)
(-0.01413 -0.0835396 3.04383e-18)
(0.00863187 0.00370502 -1.70565e-17)
(0.00207101 9.13885e-05 7.79457e-18)
(0.0485243 -0.0228936 1.31469e-17)
(0.01339 0.00495874 1.40686e-18)
(0.00717285 -0.0399672 3.2885e-19)
(0.00397954 -0.00879756 3.3423e-17)
(0.00402621 0.000328067 2.38302e-18)
(0.0368967 -0.0218477 -1.2104e-17)
(0.00218166 9.19271e-05 -1.58399e-17)
(0.00618078 -0.00323295 3.28461e-19)
(0.0024314 -4.67749e-05 -5.03159e-18)
(0.00199573 -0.000228965 5.65246e-18)
(0.00419696 -0.00230261 -6.8773e-18)
(0.00428477 0.000207961 1.703e-17)
(0.00415067 -0.00782493 -4.00535e-17)
(-0.0388868 -0.0172045 -2.51536e-18)
(0.0055096 0.00078902 7.51766e-18)
(-0.268169 0.265438 2.53933e-19)
(-0.0244764 0.0685953 1.88813e-17)
(0.0379303 -0.0413274 -9.90337e-18)
(0.0263661 0.0132218 -7.27192e-18)
(0.00837476 -0.022733 -1.12418e-18)
(0.00227768 0.000119854 -2.20418e-19)
(0.00334834 0.000709795 -3.42189e-17)
(0.0513794 -0.0290836 -1.30627e-17)
(-0.0158153 0.0751947 -5.0596e-18)
(0.00544469 0.000257678 5.84182e-18)
(0.00511827 0.00238782 4.85485e-18)
(-0.0528762 -0.26004 -1.05134e-17)
(0.00254842 -0.000770087 5.17372e-19)
(-0.0869427 -0.021083 1.4782e-17)
(0.00271771 0.000970824 2.0121e-17)
(0.00488633 -0.00764204 -5.5537e-18)
(0.00248939 -0.000663753 4.96262e-18)
(0.0219479 -0.00315359 1.3188e-17)
(0.00226636 0.000109873 2.30714e-18)
(0.0141473 0.00483399 -1.46218e-18)
(-0.0488095 -0.0406838 5.76181e-18)
(0.00428558 0.000597033 9.96662e-18)
(-0.0527065 0.00798883 4.47664e-19)
(0.00340885 -0.00970429 2.48758e-18)
(0.00642279 -0.00129085 -1.36927e-17)
(0.00481519 -0.00931606 -9.72521e-18)
(0.00152886 0.00340621 -8.12344e-18)
(-0.00167193 -0.00122161 2.59258e-17)
(0.00697262 -0.000889156 5.41022e-18)
(0.0104027 -0.0652006 1.70347e-17)
(0.00245984 4.53475e-05 -3.27789e-17)
(0.00324787 -0.00151611 1.04401e-17)
(0.0341977 0.016214 -2.98972e-17)
(0.0038777 0.000627033 5.44145e-18)
(0.000832432 0.00677689 -1.94276e-17)
(0.00651422 -0.00201977 3.14607e-17)
(0.00261152 -0.0016489 -1.01714e-18)
(0.0181021 0.00260556 -2.01537e-17)
(0.00224945 0.000170118 1.30222e-17)
(0.0031547 -0.00151815 -6.00583e-18)
(0.00219425 -0.000539596 1.26084e-18)
(-0.0589857 -0.0282348 5.25618e-18)
(0.00601797 -0.00159058 -5.80658e-18)
(-0.0560484 -0.0401785 -7.42674e-18)
(-0.000146712 0.00110825 -4.0038e-18)
(0.0515063 0.0022308 -8.30414e-18)
(0.00201644 0.000228936 -2.2098e-17)
(-0.000264967 0.00203234 -1.31409e-17)
(0.00240351 -4.37638e-05 1.17951e-17)
(0.00562057 0.000551049 -2.24876e-17)
(0.0658442 -0.0409231 -1.14803e-17)
(0.00187746 0.00256857 6.97757e-19)
(0.0603305 -0.0129936 -8.53834e-18)
(0.00341699 -0.00187329 -2.06734e-20)
(0.00261615 0.00120259 -2.32187e-17)
(0.00649799 -0.00279623 -1.69834e-17)
(-0.100753 -0.288638 6.59057e-18)
(-0.0153193 0.0253687 -5.1315e-17)
(0.0646309 0.00279848 -1.6361e-18)
(0.0467841 0.0118322 2.69717e-17)
(-0.00475382 0.00143229 8.54549e-18)
(0.00198112 0.00014356 1.62861e-17)
(-0.0158904 -0.024124 3.58995e-18)
(0.0176871 0.00204176 8.829e-18)
(0.020579 -0.003822 -1.38244e-17)
(-0.00150327 -0.113047 -9.11599e-20)
(0.0259929 -0.139412 -1.05739e-17)
(0.00230292 0.000165898 3.36834e-18)
(0.00391949 -0.00720628 -2.70098e-19)
(0.022474 0.017752 -4.32941e-18)
(0.0027178 4.99645e-05 -3.27614e-18)
(0.00205474 0.00564271 -6.76261e-18)
(0.00265899 -4.72322e-05 -6.44379e-18)
(0.00151272 -0.000876323 1.86482e-18)
(0.00203709 8.69729e-05 -2.38035e-18)
(-0.0162715 0.0446844 1.78535e-18)
(0.0145926 0.00420088 1.18321e-17)
(0.0489249 -0.0453039 2.3544e-17)
(0.00137224 -0.00110441 3.1986e-18)
(0.00745256 -0.0150468 -8.25809e-18)
(0.00183265 2.91909e-05 -3.11634e-20)
(0.00219756 -0.000135645 5.63653e-18)
(0.00217203 -0.000126943 8.96421e-19)
(0.00261516 0.00496361 -5.93046e-18)
(-0.0179885 -0.0219407 -6.84677e-18)
(-0.000605573 0.000999441 5.70829e-18)
(0.00401995 -0.00609699 -2.13624e-18)
(0.00215946 -0.000819637 -3.6508e-19)
(0.00209336 5.41478e-05 -6.50134e-18)
(0.0023188 0.00809611 1.71706e-17)
(0.038026 0.0263221 -7.93924e-18)
(0.00242063 -8.43927e-05 -8.67836e-18)
(0.00206681 0.000127819 -1.66077e-18)
(0.0141527 -0.0375318 2.02967e-18)
(-0.00215543 0.00875256 -2.63785e-17)
(0.00632416 -0.000701178 -2.32985e-17)
(0.0479791 0.100517 2.09252e-18)
(0.0531242 0.00748099 -6.78932e-18)
(0.00226811 -0.000172304 8.04765e-18)
(0.00214569 0.000113677 -5.76187e-18)
(0.00640074 -0.00369551 -1.14707e-17)
(0.00110734 0.00802432 1.93644e-17)
(0.00273722 -0.00182747 -1.89675e-17)
(0.00232553 -1.11756e-05 6.65893e-18)
(0.00231245 -0.000127486 -4.55864e-18)
(0.00103697 0.00266835 -7.24636e-18)
(0.00254009 0.00105209 -4.92281e-18)
(0.00277807 0.000417809 -1.21953e-17)
(-0.00567143 -0.0366517 -2.59527e-19)
(0.0358698 0.00832132 2.54127e-17)
(0.00216088 0.000270862 2.97787e-18)
(0.0539432 -0.0641135 3.26037e-19)
(0.0149167 -0.0170775 -3.41656e-17)
(0.00121619 0.000860255 1.70302e-18)
(-0.00247865 -0.000632306 3.49258e-17)
(0.00510673 0.00477411 3.3233e-18)
(-0.0747566 -0.00122973 -2.05225e-17)
(0.00368876 -0.00274837 -1.71387e-18)
(-0.0238109 -0.0176284 1.78398e-17)
(0.0027283 -0.00138075 1.40298e-18)
(0.00287007 0.000623766 -6.39723e-18)
(0.0296759 0.0122679 2.89405e-17)
(0.00258278 -8.69856e-05 -1.68938e-17)
(0.0198904 0.00835801 1.52886e-18)
(0.0245976 0.000244399 -9.98692e-18)
(0.00965892 -0.0120158 -2.6067e-17)
(0.00134989 0.00097886 5.65872e-18)
(-0.270021 0.253517 -1.02718e-18)
(-0.00108246 0.00833973 2.56857e-17)
(0.00298089 2.88417e-05 4.06778e-18)
(0.00383853 0.000632247 -1.16258e-17)
(0.0171351 0.0247096 -1.52032e-17)
(0.00206632 -0.000645732 5.14475e-18)
(0.00292357 -6.37413e-05 -3.03723e-18)
(0.00217838 0.000240292 2.96488e-18)
(0.00221978 -0.000345777 2.13132e-17)
(0.056689 -0.00856948 1.96605e-17)
(0.0183127 0.0186686 -6.74889e-18)
(0.0138352 -0.0166344 -7.63632e-18)
(-0.00313574 0.000374084 -1.76898e-17)
(0.00369905 0.000504128 9.26598e-18)
(0.00305352 -5.08644e-05 -1.82758e-17)
(0.0037028 0.000289675 9.57658e-18)
(0.00210925 -4.12282e-05 5.94792e-19)
(0.00222678 -7.67449e-05 -3.43659e-17)
(-0.069809 0.0108745 -7.64918e-18)
(0.0386521 0.0361793 -2.65486e-17)
(0.00281726 -0.000723574 -9.21038e-19)
(-0.00300679 -0.00453842 6.71324e-18)
(0.0544665 -0.0294826 1.74953e-17)
(0.00128703 -0.00065856 -4.4995e-18)
(0.0238908 -0.000758223 4.43592e-18)
(-0.0109306 -0.0214364 -2.56711e-19)
(0.00201548 2.05438e-05 1.33543e-19)
(0.0300387 0.0176723 -1.25036e-17)
(0.0379882 -0.039587 -3.86855e-18)
(0.00286569 0.0004738 1.73509e-17)
(0.0179341 0.0508258 2.62794e-18)
(0.00195219 -0.000416624 9.45314e-19)
(-0.0519937 0.00608187 -2.10222e-17)
(0.0140453 -0.00204217 -1.35418e-17)
(0.0526213 -0.0206684 -1.161e-18)
(0.00201324 -5.84938e-05 2.65016e-18)
(0.00286997 0.000405242 1.98589e-17)
(0.00629767 -0.00386917 1.52158e-17)
(0.0196438 -0.0886345 -3.16144e-19)
(-0.00387003 -0.00131269 -3.44311e-17)
(0.0604493 0.078943 -7.72011e-18)
(0.0432285 0.0586359 -1.86747e-20)
(0.111374 -0.0486912 -1.8609e-17)
(0.0205558 0.00820691 -1.03365e-17)
(-0.0339535 -0.00772987 -1.3099e-18)
(0.0204789 -0.00515966 -1.24719e-17)
(0.0024477 0.000265658 -8.6692e-18)
(0.0162622 0.00934977 8.79774e-18)
(-0.00299057 -0.00379008 -2.85882e-18)
(0.0405089 0.0277798 -3.83309e-18)
(0.00401011 -0.000560971 -1.30439e-17)
(0.0529103 -0.00695418 9.12585e-20)
(0.00179184 -0.000384533 -2.89808e-18)
(0.0307561 -0.0159493 -2.30527e-18)
(0.00238106 -0.000315758 -1.09425e-17)
(0.00531942 0.00316352 -1.67655e-17)
(0.00299359 -7.39466e-05 1.5316e-17)
(0.032678 0.0514411 -1.6815e-17)
(0.00182669 -0.000585554 -6.93048e-19)
(0.00239427 9.2699e-05 -7.18789e-19)
(0.00743864 0.00219443 1.79872e-17)
(0.00924399 -0.000759909 -1.49407e-17)
(0.0152794 0.00424298 2.42083e-17)
(0.00225366 8.1334e-05 -5.42665e-18)
(0.00248024 -6.05646e-05 1.36531e-17)
(0.00147885 -0.000686283 -1.45173e-17)
(0.00153652 -0.000509606 2.91958e-17)
(0.0530174 -0.0528298 1.1413e-17)
(0.00168707 0.00021439 -3.07403e-17)
(0.0285614 -0.13002 1.55473e-17)
(-0.124128 -0.148659 2.1718e-18)
(0.00198201 8.15522e-05 1.99793e-17)
(0.00256655 -9.35234e-05 -4.8387e-19)
(0.0075868 -0.0161976 6.6089e-18)
(0.00519218 0.0021928 1.49714e-17)
(0.00262543 1.96356e-05 4.24528e-18)
(0.0024964 -0.00278041 1.66178e-17)
(0.00815288 0.00459177 2.59652e-17)
(0.0143244 -0.00135659 1.78511e-17)
(0.00620043 0.00372587 2.30577e-17)
(0.00940504 -0.00033567 -1.09497e-17)
(0.00259476 -5.68467e-05 -7.25634e-18)
(0.00491474 0.00575725 -6.96923e-18)
(0.00452732 -0.00364952 1.12876e-17)
(0.0127348 -0.000609033 -2.75744e-18)
(0.0018375 -0.00290698 3.49808e-17)
(0.00504893 -0.00519947 1.08242e-17)
(0.0403868 -0.199167 3.55597e-18)
(0.00205866 -0.000799333 -6.72702e-19)
(0.0181088 -0.065793 -8.92412e-18)
(0.0122506 0.00536739 -4.1922e-18)
(0.0026238 -9.10176e-05 4.84566e-18)
(0.00247192 -8.70257e-05 -2.46179e-17)
(0.00202321 8.6139e-05 -2.60851e-18)
(-0.00408034 0.00202975 2.87845e-18)
(-0.00516711 0.00154597 1.29037e-17)
(0.00274753 0.00061523 -7.14916e-18)
(-0.00233974 -0.000474747 -7.02601e-18)
(0.00177373 5.55543e-05 3.08344e-20)
(0.00320328 -2.58462e-05 1.33629e-18)
(-0.002534 1.82007e-05 -1.64281e-18)
(0.00231638 0.000118438 -2.73958e-18)
(0.00165555 -0.00839956 -1.33159e-18)
(0.00223569 -0.000172284 1.34561e-18)
(0.00555189 0.00286909 8.81539e-18)
(0.00227817 -0.000116104 2.1596e-18)
(0.00408185 0.000442494 6.715e-18)
(0.001178 -0.00770928 -1.33975e-17)
(0.00604472 0.00378019 -2.34821e-17)
(0.0172516 0.00961229 -8.08069e-18)
(0.00215629 0.000212387 -4.2427e-18)
(0.00252273 0.000300503 -1.31196e-17)
(0.00252657 -4.87464e-05 1.16853e-17)
(0.0026755 2.77111e-05 -1.48766e-19)
(0.00148162 0.000297412 -2.3993e-18)
(0.00198689 0.000146339 -3.65283e-18)
(0.00129181 0.000327937 -1.8672e-18)
(0.00270988 -1.4196e-05 -2.30635e-17)
(0.00232489 -0.000939263 -1.76826e-18)
(0.0017704 -0.000531546 -1.74626e-18)
(0.0229975 5.21452e-05 -1.69742e-18)
(0.00229704 -9.68437e-05 9.99782e-19)
(0.00213985 7.40603e-05 -2.58968e-17)
(0.00270054 0.000533709 1.0897e-17)
(0.048123 -0.00761248 -1.0811e-18)
(0.00221578 -0.000117169 2.01276e-17)
(0.00235573 -0.000706973 2.33213e-18)
(0.026486 0.0184023 -1.15947e-17)
(0.00148433 -0.000326589 -9.94283e-19)
(0.002122 0.00296936 -2.34936e-17)
(0.0473147 0.0521486 -7.92692e-17)
(0.00680414 -0.000809165 3.8655e-18)
(0.00233626 -1.75125e-05 1.44487e-17)
(0.00222731 7.38836e-05 -4.1592e-19)
(0.0290257 0.0346629 2.50318e-17)
(0.00201922 4.02663e-05 8.64472e-20)
(0.0237764 0.0187176 -3.36063e-17)
(0.102761 -0.050993 1.05646e-17)
(0.015808 0.0136315 1.35005e-17)
(0.0555664 0.0147441 2.01642e-17)
(0.00201186 0.00263183 -1.45618e-17)
(0.00294323 -0.000220633 -6.52187e-18)
(0.0507127 -0.075563 7.31649e-18)
(0.000672475 -0.00683706 -1.81531e-17)
(0.00218911 -0.000649742 2.77668e-18)
(0.00688531 -0.028103 8.84558e-19)
(0.0553074 -0.00283454 1.29056e-17)
(0.060162 -0.02723 -4.48682e-18)
(0.0025619 -2.14357e-05 1.42061e-17)
(0.0182044 0.0261993 -1.93781e-17)
(0.00293156 -0.000250664 -1.13981e-17)
(0.00286375 0.000110316 -4.1036e-18)
(-0.0299025 0.0539466 1.21641e-17)
(0.00236488 5.4565e-06 -1.97698e-17)
(-0.0187977 -0.0209176 6.79129e-19)
(-0.000680142 0.00786337 -8.91783e-18)
(0.0367257 0.00601061 -9.72254e-18)
(0.00251027 0.000287031 2.82557e-17)
(0.00925208 -0.00395082 -1.61901e-18)
(0.00420829 -0.00353816 -2.07443e-17)
(0.0314957 0.051938 1.01063e-17)
(-0.0320596 0.118129 -7.30965e-18)
(0.003099 0.00114952 2.19273e-17)
(-0.00140592 0.00659077 6.76123e-18)
(0.0117487 0.00910904 2.9561e-17)
(0.00265116 3.92222e-05 2.27287e-17)
(-0.00105084 0.00680928 -9.13328e-18)
(0.0253165 0.0177203 1.37223e-17)
(-0.130859 0.12199 -4.94912e-17)
(0.00207773 8.50654e-05 -1.41084e-17)
(0.0230929 -0.00342975 -1.63292e-18)
(0.00176362 -0.00667491 -1.36892e-17)
(0.0430232 0.00734356 -1.51663e-18)
(0.0202238 -0.00391651 1.07885e-18)
(0.0398759 -0.0351634 -7.09751e-18)
(0.0321698 -0.0381314 -5.61396e-19)
(0.00617673 0.00103262 2.13636e-17)
(-0.0145803 0.00487654 -8.18259e-18)
(-0.0170749 0.179504 -1.43038e-17)
(0.00212643 2.54603e-05 -5.48766e-18)
(0.00230236 8.03935e-05 4.86037e-18)
(0.00239005 -2.90552e-06 -6.97259e-18)
(0.00779386 0.00270603 3.30272e-18)
(0.00194947 -0.00053442 -2.60276e-18)
(-0.0105884 0.0224017 -1.47116e-19)
(0.00210597 -0.000516399 -2.5346e-19)
(0.00809054 -0.173206 1.68509e-17)
(0.00757502 0.00518339 -2.64011e-17)
(-0.00326264 0.0570222 -2.34653e-18)
(0.0306227 0.0140311 -2.47569e-17)
(0.00380302 0.000377582 3.80195e-18)
(0.0608355 0.00511787 6.66377e-18)
(-0.0599124 0.0127786 -7.06243e-19)
(0.00561893 -0.000549698 4.53605e-18)
(0.0437825 -0.015807 -4.82476e-18)
(-0.0133502 0.00368742 8.19981e-18)
(0.0226395 0.030209 -2.64715e-17)
(0.00203035 -0.000576913 -1.86085e-18)
(0.00151442 -0.000335132 1.12489e-18)
(0.0259451 0.0244188 -5.89129e-18)
(0.00101678 0.000122512 1.08008e-18)
(-0.0358342 0.089016 2.31203e-18)
(0.00247849 -0.000153419 -8.5167e-18)
(0.035088 -0.0564099 9.1887e-19)
(0.0027732 -0.000889933 1.61272e-17)
(0.0303727 0.0348789 7.01311e-18)
(0.0266124 0.00242758 -2.10557e-18)
(0.00653747 0.000604351 -1.55563e-17)
(-0.255076 0.207337 3.16329e-17)
(0.0019709 -0.000159174 2.5105e-18)
(0.00760892 0.00244697 -1.59182e-17)
(0.0228249 0.00717026 -2.06575e-17)
(-0.0376924 0.0365902 1.91011e-17)
(-0.0710451 -0.0376909 -2.31471e-17)
(0.00180961 0.000714792 -6.89125e-18)
(0.00277455 -0.000958385 8.06413e-19)
(0.00229118 -0.000829806 -5.11613e-18)
(0.0153837 0.00882106 -9.93642e-19)
(-0.0476373 -0.276434 3.96316e-18)
(0.0020835 -0.000139417 4.67433e-18)
(-0.00817341 0.00260934 7.37829e-18)
(0.0273649 0.000289622 -6.74191e-19)
(0.00210265 -0.000748923 -2.88994e-18)
(0.00224664 0.000123894 -3.61888e-18)
(-0.00265835 -0.000859072 1.08336e-17)
(-0.0172512 -0.024107 3.66163e-19)
(0.0125246 0.00344808 1.80122e-17)
(0.00068738 0.000176274 2.05869e-17)
(0.00222421 -0.000122797 1.24237e-18)
(0.00194211 -8.58965e-05 -1.16887e-17)
(0.0473488 0.0343813 -6.50188e-18)
(0.0564825 -0.0269172 6.16562e-18)
(0.00780634 -0.0185084 2.38209e-18)
(0.00278483 7.98602e-05 -7.8723e-18)
(0.00231392 0.000114293 -1.47412e-17)
(0.0467871 -0.0114254 -1.86678e-17)
(0.00235679 2.93995e-05 3.76775e-18)
(0.0492616 -0.022341 7.36738e-18)
(0.0285657 0.0012204 6.10893e-18)
(0.00221072 -0.184203 -4.85967e-18)
(0.045821 -0.00451425 -9.85769e-18)
(0.036931 -0.0460596 -3.77275e-18)
(0.00233624 -0.000221223 5.12874e-18)
(0.00382879 0.000573097 -2.50407e-17)
(0.0104302 0.00214096 4.93625e-18)
(0.00682351 0.00204508 1.76308e-17)
(0.0129509 -0.000864592 1.05057e-17)
(0.00218691 0.000132589 8.94158e-18)
(0.0199284 0.0255279 -2.87312e-17)
(0.0554549 -0.0671144 -7.91137e-18)
(0.00224799 -0.000772729 6.01429e-19)
(-0.0540681 0.00980814 1.12247e-17)
(0.00196181 -2.64345e-05 1.21801e-17)
(-0.0274188 -0.0180165 -5.00421e-18)
(0.00406107 0.00168008 -1.27216e-17)
(0.0459807 -0.0230815 6.71897e-18)
(-0.000589939 -0.010272 -3.50598e-17)
(0.0131131 0.00126309 -6.84065e-18)
(0.00208043 0.000291545 2.48147e-18)
(0.00273405 0.00292106 1.46024e-18)
(0.0139135 -0.00833876 -1.61546e-18)
(0.0351409 -0.0262898 1.75488e-20)
(-0.0250087 0.160782 2.23235e-17)
(0.00131349 -0.000965014 -1.59396e-17)
(0.0217783 -0.00607177 -1.16188e-17)
(0.000615352 -0.00461746 1.95837e-18)
(0.00549496 -0.0054831 -1.64291e-17)
(0.00960643 -0.00420545 -1.52375e-17)
(-0.276852 0.147438 4.29706e-18)
(0.00231848 -1.07299e-05 -3.79892e-18)
(0.0246421 0.0294437 -2.75724e-17)
(0.002315 -9.95146e-05 -2.02883e-17)
(0.0117902 0.00980486 1.40804e-17)
(0.00260182 0.0010977 -5.71916e-18)
(0.00213408 -0.000142284 -6.60482e-18)
(0.00222419 -0.000308993 -6.24811e-19)
(0.00228204 9.0029e-05 1.47784e-17)