/*--------------------------------*- C++ -*----------------------------------*\
| =========                 |                                                 |
| \\      /  F ield         | OpenFOAM: The Open Source CFD Toolbox           |
|  \\    /   O peration     | Version:  v2012                                 |
|   \\  /    A nd           | Website:  www.openfoam.com                      |
|    \\/     M anipulation  |                                                 |
\*---------------------------------------------------------------------------*/
FoamFile
{
    version     2.0;
    format      ascii;
    class       surfaceScalarField;
    location    "350";
    object      meshPhiCN_0;
}
// * * * * * * * * * * * * * * * * * * * * * * * * * * * * * * * * * * * * * //

dimensions      [0 3 -1 0 0 0 0];
oriented        oriented;


internalField   nonuniform List<scalar> 
14516
(
0.000839669
0.00250401
-0.00338668
2.51339e-06
8.02979e-05
-9.06132e-05
-0.00283247
0.00362296
-0.00120852
0.00151173
-0.000241076
-0.00452941
0.00313693
0.00136418
0.00401505
-0.000498303
-0.00350249
-0.000198033
7.33256e-06
0.000132641
0.000878074
-0.000669095
-9.88666e-05
-0.00275714
-0.000267541
0.00310543
-0.00188648
-0.00267394
-0.00281598
0.00348966
-0.000688225
-0.00335899
0.00024782
0.00310715
-0.00121247
0.000209509
5.54876e-05
0.000870143
-0.000882191
-0.000178954
-0.000124838
0.00080485
1.71752e-05
-0.000795886
0.00262322
-0.000849024
-0.00164767
0.000909758
0.00172429
-0.00423486
0.000424569
0.00378349
0.000904297
0.000316738
0.00367838
-0.00399237
-0.000451441
0.0038551
-0.00331327
-0.00171655
0.000584485
0.00113305
-3.15404e-06
3.15404e-06
-0.00256255
0.000353106
0.0022205
-0.000749512
-0.000215559
-0.000749189
-6.38587e-06
0.000771797
4.69274e-05
0.00149354
-0.00143572
0.00447724
-0.00149673
-0.0030067
-0.00286692
0.000222068
-0.00349911
0.00414292
-0.000668263
-0.000336155
-0.00139023
-0.00219175
0.000455842
0.00165807
1.43788e-05
2.11976e-05
-5.3102e-06
-0.00166152
0.00511855
-0.00346721
-0.00419876
0.00046968
0.00372235
-3.04001e-06
-0.000147752
0.00339194
-0.00375106
-0.00168285
0.00122919
0.000422128
9.44922e-05
-0.000393925
0.00047871
-0.00450288
0.000989845
-0.000592328
0.000120003
-0.000404853
0.000753589
-0.00014107
1.33911e-05
-0.000176478
0.000179906
-0.000256937
0.000157647
0.00021142
0.00281405
-8.41418e-05
0.0008866
-0.000794254
0.00048476
0.00322267
-0.00365893
0.000340849
0.00117178
0.00235259
0.0027513
-5.49113e-05
0.0028785
-0.00282835
-0.00403594
0.000963746
0.003126
0.00413478
-0.00427034
0.000166814
-0.00040793
0.00254867
-0.00215697
-0.0038726
0.00395797
-0.000117489
0.00171753
-0.00180548
0.00283119
-0.000719724
-0.00212593
-0.00307482
-0.000107699
0.00312377
-0.00106833
-0.000505574
-7.18229e-06
-0.000135215
0.000219476
-0.00414734
0.000652591
0.00354939
-0.00318796
0.00365216
-0.000450463
-5.07159e-05
3.36561e-05
6.37046e-05
-0.00252444
-0.00133971
0.000264045
0.00203324
-0.00228344
-0.0039954
0.000801006
0.00342971
-0.00378974
0.000394744
-0.000456431
-0.00291305
0.000227566
-0.00304765
0.00253491
-0.00295988
-2.72084e-05
-8.85053e-14
3.16959e-05
-0.00257348
0.000514173
0.00230575
0.000256611
-0.000212479
-3.36804e-05
-0.00107623
0.00340825
6.72867e-05
-0.00319781
0.000272026
0.00216935
-0.00233846
-2.3737e-05
1.81973e-09
1.44849e-05
0.00175706
-0.000407837
-0.00124811
0.00227353
-0.000668614
-0.00150715
0.00172539
-0.00145668
0.00187136
-0.000425129
-0.0014109
-7.30841e-05
-4.34992e-07
7.03353e-05
1.33419e-05
0.00106828
-0.00107579
-0.0041433
-0.000343763
-7.07821e-05
0.000905833
-0.000843485
0.00165423
0.000748032
-5.62684e-06
0.00250588
-0.00238438
0.00371525
-0.00386415
0.000167256
-0.0019064
0.00043385
0.00146496
0.000153718
-0.000158102
0.000339726
0.00289638
-0.00324353
-0.00125654
0.00102513
0.000258794
-0.00171097
0.00136762
-0.000380857
0.0011376
-0.00111855
-0.00395168
8.45901e-05
-7.70755e-05
-5.46318e-06
-0.000366024
-0.000884718
-0.00013556
0.000617488
-0.000466152
0.000498907
-0.000620426
-0.00215499
0.00038812
0.00177617
-0.00153522
0.000319284
0.00120572
-0.00120751
-0.000331824
-4.10487e-05
-1.45031e-06
-0.0044021
0.000297349
-0.00441554
0.000619917
-5.44981e-05
1.44523e-06
0.000108758
-0.00335244
-0.000670445
0.000154814
0.000718033
-0.000842341
-1.08456e-07
-2.18352e-05
-0.000139378
-0.00355259
0.00372181
-0.00294223
0.00218955
0.000918406
-0.00453727
0.00357398
-0.0027989
0.00273945
0.00207586
-0.000313268
0.0018862
-0.00163982
0.00231223
-0.00341015
0.000333978
0.00156707
-0.00147651
-0.000279449
-0.000611762
0.000794368
1.53082e-05
-3.43137e-06
-3.80588e-06
-0.00336665
0.00344583
-0.000107419
0.000140394
0.0038949
0.000179982
0.00333088
-0.00347355
0.00382358
-0.00350356
0.00264275
-0.000624637
-0.00203482
-0.000996041
0.000916737
0.00029322
0.00154642
0.00323945
-0.000793379
-0.00227723
-3.39211e-06
-2.42838e-05
3.17263e-05
0.00227352
0.00163286
0.00175849
0.000229201
0.00198865
-0.00214645
-0.00221347
-0.000583627
-0.000106731
0.00264967
-0.00244442
3.07245e-05
5.00569e-05
-0.000129976
0.000167005
-0.000322114
-0.00278369
-0.000274776
0.000291462
4.7784e-06
-2.05282e-05
-0.0033241
-0.002515
0.00024944
0.00229704
5.56824e-06
-3.54685e-06
2.54992e-05
0.000136685
-0.000591663
0.000505665
0.00095699
-3.70034e-05
-7.39273e-05
-0.000951913
0.0010537
-2.15949e-06
-4.27464e-05
3.3265e-05
-0.000546037
0.000738637
-0.00162257
0.000463402
0.00116099
-0.00257783
0.00291113
-0.00276442
-0.000636716
0.00338199
2.40062e-05
-2.29977e-05
-0.00360908
0.000816217
0.00139563
-0.00331773
-0.000435589
-0.00118701
1.23197e-05
8.828e-06
2.46009e-05
-0.00024051
0.000221693
-0.000334966
-0.00213273
0.000143974
-0.000659884
-0.000199215
0.000232027
0.000818781
0.000217913
-0.00127069
0.00141182
-5.0363e-05
-0.00064956
0.000734267
0.000803714
-0.0048712
0.00406728
0.0001577
-5.69925e-05
-0.000119081
0.00435297
-0.000707706
0.000828515
0.00470833
-0.00431586
-0.000377591
-0.000779383
5.23963e-05
-0.000322301
0.00207944
-0.00169313
0.00331352
-0.0010226
-0.00238734
-0.00103237
0.00202559
-0.00101687
9.47985e-05
3.28083e-05
0.000823655
-0.00190193
0.000370136
0.00298626
-0.0032948
-0.00343097
0.00249537
4.57326e-06
-9.31219e-06
-1.04116e-06
-0.00052519
0.00258783
-0.00197773
-0.00473721
0.00219363
0.00255983
-0.002429
0.00182705
0.00059437
0.00327538
-0.00300991
-0.000229064
0.000672006
-0.00227827
-0.00303489
-6.36525e-05
0.00303926
-0.00236659
-1.46345e-06
0.000625031
0.00218424
0.00182725
-0.00227193
8.23827e-05
-0.00340334
0.00328035
0.00068975
-0.000706594
0.00345074
-0.00301927
-0.00248088
4.00945e-05
0.00260741
-0.00323115
0.00376916
0.00350915
-0.00362072
-0.000517333
-0.00113547
-0.0035724
0.00490556
-0.00123474
-0.00368876
0.000171199
0.00159927
-0.00172743
0.00357609
-0.00221956
-1.81484e-05
-0.000248113
-0.00258165
0.000424848
0.00149866
0.00277192
-0.00428328
6.65503e-06
0.00390231
0.00252113
-0.00186335
-0.000514867
0.0001852
0.00253158
-4.52176e-05
-8.99492e-07
0.000167354
-2.78459e-05
-0.000715714
0.000791984
-0.00390769
-0.000423238
0.00380334
9.06469e-05
-0.00380085
-0.000212161
-0.00327912
0.00348545
0.000231086
-0.00338365
-0.000366058
0.00361443
0.00311151
0.00108189
0.00219274
0.00270629
-0.000234436
0.000265366
0.00024972
0.00171418
-0.00186609
0.000178921
-0.0032593
-4.94643e-05
2.68371e-06
-0.00357608
0.00336504
0.000191144
0.000221983
-0.00351527
0.00322409
0.00106818
0.00200754
-0.00295426
0.00319955
-8.14933e-06
-0.00225793
4.14518e-05
0.00103244
-0.00337626
0.00357316
-0.00405724
0.0015042
-0.00111073
-0.000369439
-0.0029154
0.00307646
-0.000302793
0.00291372
-0.0026127
1.53374e-07
2.6753e-06
-6.35011e-08
-2.75927e-06
0.000843742
0.00247655
-0.000122773
0.000232547
-0.000109618
0.0029228
-0.000556489
-0.00237156
-0.00327373
-0.000305972
0.00264848
-0.00266652
-2.64384e-05
-0.0028759
0.00275679
6.54998e-05
-0.000122881
-0.00382684
-0.000453742
-0.00150943
0.00195718
-0.00411375
0.000304277
-5.31852e-05
0.000910033
-0.000818286
-1.49524e-05
-0.00212019
0.00209625
-0.00203474
-0.000168021
0.00269197
5.49321e-06
-0.00265315
0.00142698
-0.000970388
-7.54905e-07
-0.000525715
-0.00259538
0.00229185
0.00107085
5.74803e-05
-1.0315e-05
-0.000434284
-0.00267361
0.00314134
0.00445493
-0.000512874
-0.00392303
0.000245807
-0.00304886
-0.000417948
0.00264445
-0.00223158
0.00216817
-0.00248103
0.0002159
0.000180567
-0.0040158
0.00390783
0.00340082
-0.00285346
-0.000555209
0.00124184
0.00323309
0.000241828
0.00333116
-0.00358445
0.000123982
0.000713981
-0.000772405
-0.00067755
-0.000229923
0.000914648
-0.000117413
0.00293824
-0.00269578
-9.42652e-05
0.000124008
5.3985e-06
0.00105932
0.00365542
-2.50699e-05
3.23608e-05
-4.03584e-06
2.2289e-06
-1.56666e-05
0.00309422
-0.00331164
-0.00141278
0.00417777
0.00367505
0.000801081
-0.00451815
0.000669705
-0.000494385
7.77222e-05
0.000577655
-0.000667196
0.00540436
-0.00148464
-0.00391855
0.000350351
0.00227597
-0.00249247
-9.95875e-05
-7.17146e-05
0.000181109
3.86683e-05
-0.000131291
0.00192281
-0.000162156
0.00370207
7.12191e-05
-0.00112321
0.00128471
0.00221847
-0.000207588
-0.00236943
1.05945e-06
-6.05059e-07
7.41718e-06
-8.23869e-05
0.000170479
-9.56152e-05
0.000558392
-0.000306083
-0.00135636
0.00252326
0.00293244
-0.00333333
0.00559694
-0.00235522
-0.00322577
5.19069e-06
0.000172273
-0.000200753
-0.00247287
0.00272773
0.0022008
0.00138172
-0.00175278
-0.00054957
0.00408152
-0.00361039
-0.00013059
1.07737e-05
-1.22953e-05
2.64752e-07
-0.00190757
0.00220116
-0.00024415
0.00374234
-0.00345248
0.00263698
0.00298288
-0.00165171
0.00202718
-6.46569e-05
0.00267177
0.00133586
-0.00405698
0.00107319
0.00108999
0.00134232
-0.00239582
-0.00177618
-0.000128542
0.00197167
-6.53512e-06
3.15226e-06
5.28623e-05
4.7656e-06
-6.13526e-05
-0.000208412
-0.000410866
0.000672089
0.00174814
0.00365905
0.00246057
0.00137785
-0.00380802
0.0023111
-0.00226707
-3.52769e-05
-0.000878423
0.00199579
2.94562e-05
-0.00119662
0.00150126
0.000438554
-0.00059503
-0.00123607
0.00372831
-0.00373402
0.000180667
0.00360659
0.00383716
-0.003054
-0.00073344
-0.00163002
-0.000283188
-0.000949354
-0.00232196
0.0021573
0.000217483
0.0049386
-0.00420062
-0.000717572
0.00427943
-0.000403552
-0.00207635
0.00199333
0.000161504
0.000183184
0.00515094
-0.00230418
-0.00284103
5.95896e-06
-0.00021302
-2.64588e-05
-1.67662e-05
-0.000956427
-0.00148184
-0.000380375
0.00392296
-0.0034851
0.00298644
-0.00315139
-0.00076048
0.00303461
0.000573459
-0.000647808
8.5456e-05
-0.00283563
0.00250009
-0.00372286
-0.0018824
-0.000210897
-0.00368727
-0.000328066
-0.000473929
-0.00169821
0.00216043
0.00020422
-5.53947e-05
-1.10892e-05
-0.000348221
0.000420438
-0.00180896
-0.00079273
0.000100039
0.000101708
-0.000184725
0.00176155
-0.000173838
0.00440967
-0.00273347
-0.00171559
-0.000784657
0.0027558
-0.00191954
-0.000121523
-0.00158222
0.00156988
-0.00203066
0.000748963
-0.000707018
9.863e-06
-0.00343965
0.00407239
-0.000532837
0.000354703
0.0031604
0.00354318
-0.000116748
-0.00339952
-0.00268165
0.00343871
-0.000714532
-0.00374313
0.00376016
3.5424e-05
0.00195957
0.00236471
-0.000485787
-0.00180869
-0.000934252
-0.00328096
0.00425737
-0.00446483
0.000233886
-1.0569e-06
0.00410135
-0.00177641
-0.00235318
-0.000305555
0.00282462
0.00265245
-0.00204542
0.00191025
0.00215791
-0.0039892
0.000637848
0.00164399
-0.00225994
0.000603924
-0.00151291
0.00370341
-0.000178883
0.000236219
0.000268568
-0.000944773
-0.0018666
0.00026729
-0.000202207
7.85917e-05
0.000137394
-0.0018403
-0.00384059
0.000252809
0.00241724
0.00273208
-0.00319092
0.000568028
0.000744677
0.00216804
-0.00269973
0.00316079
-0.000131158
0.00276602
-0.00258833
0.00179704
0.000107927
-0.00171855
0.00176526
0.00350577
-0.000459539
-0.00304131
-0.000133378
-0.0034435
0.00369027
0.00396592
-0.000701052
-0.00316784
-0.000165134
-0.00304822
0.00021759
-0.00143823
-0.000446168
0.0040894
-0.00356057
5.71154e-05
3.40396e-05
-7.91216e-05
-0.000222496
-1.82175e-05
0.000758055
0.00310235
0.000468362
-0.00381861
0.000973125
0.00138047
-0.00204659
0.00334521
-0.00122519
-0.000167057
-0.00237845
-3.60467e-05
-0.00102102
0.0010531
-0.00382009
-0.00279935
0.00249644
0.000121998
-9.68546e-05
-8.97707e-06
6.18368e-06
0.000194242
-0.000163574
-0.00233205
0.000513562
0.00310834
-0.00326168
0.000151247
0.0010013
-0.00104118
-0.000875539
0.000859927
0.000358673
-0.0025476
0.00220854
0.00202833
0.00165012
-0.00369061
-0.00058072
0.000647238
0.00405905
-0.0031787
0.00265882
1.63035e-05
0.00395865
6.47485e-05
-0.000660438
-0.00341233
-0.000176151
0.00356352
0.00143872
-0.0020839
0.000945907
0.00257604
0.00369066
0.00073171
0.00123926
-0.000657143
-0.000145251
-0.00162969
0.00179361
0.00334228
0.00188253
-0.00200936
-0.000327985
-0.00152762
-0.000725232
0.000968575
-0.0010147
0.00349977
-0.00408003
0.000566259
-0.00097426
0.00126358
0.00127284
0.00261688
0.00239145
0.0035374
-0.00312989
-0.000284951
0.0033393
-0.00310533
0.00342069
-0.000688393
5.76294e-05
-0.000953721
0.0031577
0.000231652
-0.000467122
0.000235271
0.00434962
-0.00301029
0.000674541
6.21221e-05
-0.000718593
0.000720901
-0.00147897
0.000749376
4.20177e-05
-0.000716808
0.00144769
0.00157845
-0.00183782
-0.000192216
0.00332396
-0.00308274
-1.55361e-05
-0.000201594
0.000235421
4.38344e-05
-7.10533e-05
1.27187e-05
0.00106731
-0.00303598
0.00306927
-0.00305746
-0.0014212
0.00163401
-0.00302438
0.00269995
-6.24407e-05
0.00199051
0.00137083
0.00355956
0.00463789
-0.00261871
0.00290314
0.00124274
-0.00313931
0.000327893
0.00279159
0.003393
-0.00308439
0.00460998
-0.00298929
0.00153169
0.00140984
-0.00254145
0.00444665
-0.00189696
0.00285536
-0.00379745
0.00013851
-0.00358185
-1.52043e-07
0.00147978
-0.00173482
0.000244581
-0.000922302
0.00125124
-0.00200399
0.00176274
0.00019035
0.00299239
-0.00225692
0.00362707
-0.000194578
-0.00131174
0.00174815
-0.00346421
0.00350263
0.00160416
-0.00129744
-9.44075e-05
1.45811e-05
-8.27015e-06
-0.00359423
0.00352439
0.00388984
-0.00292249
0.00317195
-0.00303768
0.00116636
0.000409672
0.00534016
-0.0035926
2.19257e-07
-1.21686e-05
8.82422e-05
-3.43333e-05
8.81764e-06
-6.9247e-05
8.19642e-05
-0.00170285
-0.00442959
0.00191083
0.00192658
-0.000194018
-0.0018692
-6.22203e-05
-0.000644628
0.000695847
0.000145522
-5.169e-06
-0.000337322
0.00317515
-0.00282582
-0.000916469
0.000326533
-1.56901e-05
-2.98243e-06
-0.00138273
-0.0017156
0.00177989
-0.00184314
-0.00345386
-0.000358845
0.00323866
0.00296643
0.000650316
0.0032514
-8.51856e-05
0.000173533
1.8597e-05
-7.86154e-05
0.00363796
0.000555864
0.00300994
0.00218329
0.00220473
-2.29692e-06
2.37135e-05
-2.91157e-05
-0.000219993
0.000488578
9.20845e-05
0.00183333
-0.000210337
0.00231228
0.00228512
-0.000167508
-4.27464e-05
0.000244867
0.00267511
-0.000215037
4.32154e-05
0.000178123
0.00294778
-0.00523459
0.00275469
0.00248638
0.000255687
-0.000974295
0.000741018
0.00387385
-0.00450409
0.00149715
-0.00180349
-0.00369966
0.000175087
0.00211735
-6.11082e-06
-0.00324914
0.00325805
-8.96968e-05
-0.00242011
0.00236744
0.00260581
0.000306524
-0.00333371
-6.15892e-05
0.00362911
-0.00304052
-0.00059841
0.00193017
-0.00172063
0.00345372
-0.000653366
0.000930188
-0.00239231
-0.00371673
0.00027434
-0.000660239
-0.000126724
0.000827427
-0.00199308
-5.80928e-05
0.00211953
0.00212831
-0.00197623
-0.00188432
0.000779082
0.00112119
-0.000777453
0.000146076
-0.0024477
0.000759936
0.00184668
-0.000409882
-0.00150594
-1.83687e-05
0.00208204
-0.002176
-0.00306303
0.000677042
-0.00190326
2.47685e-07
-0.00221048
0.00208993
0.000157682
0.00321076
-0.00325982
0.000146702
1.10846e-06
8.16962e-06
-0.00134734
-0.000884843
0.00354171
0.000307557
-0.00384511
0.00221049
0.000421118
-5.30431e-05
0.000612766
-0.00182477
0.00189237
-4.63655e-05
-0.000154269
0.00325588
-0.00405655
0.00407523
0.000125674
0.0001204
0.000785286
-0.000915164
-0.000715428
0.00496543
2.33883e-05
0.00178391
0.00299172
0.00248585
0.00232582
-0.0021211
-1.5082e-06
9.46409e-06
-0.00458597
0.00194327
-0.00427765
0.00301648
0.000231369
-0.00321444
-0.000334473
8.67169e-05
0.00101595
-0.00177984
-0.00024179
2.20608e-05
0.000206775
0.0022916
-0.000642301
-0.000395262
0.003308
-0.000144726
0.00189776
-0.00048076
-0.00278816
0.00326468
0.00155049
0.0020714
-0.00315016
0.00314683
0.00372004
-0.00361434
-0.000385454
5.96751e-05
0.00298111
-0.00268713
-0.000299269
-0.00195449
0.00016207
0.00100443
-4.88436e-05
-0.000926981
0.00350829
-0.00314497
-0.000344763
-0.00296811
-0.000245542
0.00325225
-9.13771e-05
0.000723854
-0.00060619
0.0007375
-0.000868271
0.000144707
7.44936e-06
-8.39537e-05
0.000220409
-0.000222883
0.00232861
-0.000418709
-0.00192482
7.68459e-05
-0.000755454
0.000688765
-0.000205711
0.000243199
7.85672e-06
0.0029349
-0.00284638
-5.85872e-05
0.00250862
0.00183802
-0.00427498
0.00278273
0.00230263
-0.00160805
0.00294166
-3.96463e-05
-0.00275287
-0.00364861
-0.000237126
-0.00365105
0.00019983
-0.00323402
0.00363397
-0.00122437
0.000721726
0.000529067
0.0017333
-0.000253608
-0.00438337
0.00267998
0.00169841
-0.000877161
-2.80713e-05
7.56761e-05
0.00303159
0.00231593
-0.00230345
0.00267948
-0.00346238
0.00347398
0.000501879
-0.00393573
0.0026748
-0.00276145
-0.00205979
0.00401694
0.00339189
-0.00248396
0.00410038
-0.00152574
0.000709528
-0.000795037
7.26167e-05
0.00186363
-0.00359059
-0.000355716
0.00483706
-0.00357453
-0.00358211
-8.74941e-05
0.0024643
0.00168943
-0.00257812
0.000355241
0.00221111
0.000284669
-0.00272321
0.00250786
0.00401245
-0.000521839
-0.00290456
0.00344482
-0.000533917
-1.14617e-05
-2.94916e-05
-2.47926e-05
0.00309538
4.70272e-06
0.00101037
-0.000893864
0.00185865
0.00017112
-0.00209074
-0.000235245
0.00198396
-0.00237235
0.000756828
0.000528763
-0.0012675
5.15988e-06
-5.15988e-06
-0.000175788
0.00141442
-0.000660413
0.000287229
0.00090885
-0.00117184
-0.00418346
-4.66288e-05
0.00430235
-0.000284533
4.41239e-05
0.000266682
0.00249705
-0.00222735
-0.000137804
0.000154452
-7.06819e-05
0.002919
0.000167546
-0.00429703
0.00163263
0.0018053
0.000501457
0.00246687
4.3559e-05
-1.40771e-05
-0.00225236
-0.000290464
0.00264713
0.00329105
-0.00319066
0.000599062
-0.000551068
-5.74858e-05
0.000575135
6.73806e-05
-0.000632848
-9.18724e-07
-0.000194131
-6.86143e-05
0.000647217
-0.00194531
0.000135706
-0.00195985
0.00230578
-0.000669675
0.000755038
0.00310674
-0.00335386
0.000228291
-4.01593e-05
7.86458e-05
-0.000463139
-0.000181401
0.00291913
-0.00278798
-0.000111259
0.00026027
-0.00320491
0.00116898
-0.000192793
-0.000820737
0.000653128
-0.000600621
-0.00306435
0.00236774
-4.84161e-06
6.70505e-06
-0.00372921
0.00305203
0.000682123
0.000630038
0.00168444
-0.0016837
0.00204392
0.000416946
-0.000217755
-0.000222596
4.93244e-05
-2.08293e-05
0.00113629
-0.00186458
-0.000605919
0.000726498
0.000696234
0.002284
-0.00300908
-0.000164918
-0.00173213
0.00159885
0.000442598
-0.00204655
-0.00311711
-0.000592322
-0.00208227
-0.000731667
0.00285179
0.00160095
-0.0018004
0.000201774
-0.000370495
0.0014664
-0.00110812
0.000734649
-7.13309e-05
0.000122424
1.17019e-06
0.00311592
-0.00314324
0.00297723
0.000157151
4.94257e-05
0.000138331
0.0019825
0.000885729
-0.00291872
0.00349044
-0.00172845
0.00204804
0.000105766
-0.00166538
0.00159875
-0.00106762
8.59627e-05
0.00100505
0.00303676
-0.00280962
-0.00245812
0.000281148
0.0052032
-0.00225106
-0.00291541
-0.00385911
0.000290823
-0.00227183
-0.000743907
0.000138252
-0.00110488
5.69629e-05
0.00244104
-0.002531
8.92311e-05
-0.000150161
-0.00169802
-0.000427434
-0.00238043
-0.00183737
0.00199048
-0.000162848
0.00178972
-0.0014949
-0.000765902
0.000880736
0.000871156
-0.00125377
0.00171809
0.000130996
-0.00182234
9.58337e-05
-0.00087033
-0.00161192
0.00172815
-0.000140209
-6.91515e-05
0.000849776
-0.000777165
0.000506327
0.00102245
-0.00146809
-0.00341705
0.00364141
-0.000202486
-0.00120725
0.00254638
0.000907807
0.000178667
0.000119229
0.000966732
-0.000952184
-5.09293e-06
3.28091e-05
1.37335e-05
-0.000342089
0.00164545
-0.00121428
-6.14292e-05
-0.000677287
0.000233761
0.000735091
-0.000655442
0.00164659
-0.00018208
-0.00145967
-0.00280132
1.00946e-05
-0.00116002
0.000120345
0.00103846
-2.79377e-05
0.00333262
2.04613e-05
-0.00316212
-7.57838e-05
0.00189906
-0.00183818
7.1588e-05
-0.00350454
-0.00326928
0.000230495
0.000273727
-0.00367158
7.53689e-05
0.00202062
-0.00210656
0.000691467
1.80566e-06
-3.40148e-06
0.000124172
-0.00106882
0.000965386
0.0039193
0.000280115
-0.00415055
0.000689559
-0.00296917
-0.000110561
-0.000224498
0.000423147
-0.000879338
0.000109617
0.000783173
0.0010686
-0.00081719
-0.000226252
0.00073847
0.000171771
0.0010819
-0.000938363
-0.000852325
0.00141424
5.4247e-05
-0.00229901
1.18099e-05
-0.000999061
0.00289964
7.06838e-05
0.00162104
-0.00341782
-0.000286768
0.00359916
-0.00336932
0.00345356
-0.00379579
-7.04051e-05
0.000522381
-0.000446616
0.000172054
0.00091818
0.000579403
-0.00498975
0.00337511
-1.47011e-06
-1.89709e-05
0.00469911
-0.00213761
-0.00244045
-0.000115589
0.000877769
8.07982e-05
0.000952331
4.14975e-05
-0.00100448
-0.000226408
-0.00139385
0.00153401
-0.000203086
-0.00267121
0.00292245
-0.00414896
0.00375227
0.000405265
0.000300059
-0.000182988
-0.000564121
-0.000224151
0.000901993
0.00207866
-0.000518771
-0.00330416
-0.000104206
0.000842672
-0.000743978
7.86597e-05
0.000540617
3.4245e-06
0.000104916
3.15005e-05
0.0031921
-0.0029065
0.0011963
-0.000260156
0.00144642
-0.0029616
0.00140589
0.000226874
0.00102028
-0.000271895
-0.000724619
-0.000148502
-0.00147534
0.00147858
7.97291e-05
-0.00306304
-0.00321638
-0.000376618
0.00361269
0.00298008
-0.00323578
0.00027906
0.00278821
0.00311455
-0.00226697
-0.000524337
0.00218445
-0.00205385
0.00190153
-0.000295368
0.00138557
-0.000233347
-0.00115828
0.0018051
-0.00189511
-0.000610194
0.000157764
0.00203082
0.000221928
-0.00220696
0.00363018
-0.00209125
-0.00147998
0.000518929
0.000445428
-0.000947618
0.00397354
-0.00420194
0.000263674
-0.000162146
-0.00166804
0.0018456
-9.22875e-05
-0.00190161
0.0021258
-5.2407e-05
0.000418037
-0.000355821
0.000861052
7.60958e-05
-0.000944184
-0.000155044
-0.00167563
0.00180999
0.000648291
-0.00185412
0.000209063
0.00364609
-0.00373772
0.0002491
0.00344784
0.0019344
-0.000664452
-0.0012468
-0.000965439
0.00353074
0.00268916
0.00254642
0.00079678
-0.00176181
0.000150577
-5.77052e-05
-1.14021e-05
-0.00209174
0.00215655
-0.00137178
2.2937e-05
0.0025398
-0.000106246
-0.00292077
-2.72403e-05
-0.000231412
5.43904e-05
-0.000225894
0.000369316
-0.000213896
-2.32884e-05
0.00291526
1.85965e-05
-0.00128231
0.00131475
-0.00435685
0.00381078
0.000634819
-0.000110542
3.94309e-05
3.61674e-07
-9.01376e-06
-0.000735184
0.000325824
-0.00393002
0.00356015
-2.50844e-05
-0.000180111
0.000255222
0.000151567
0.00167705
-0.000204662
-4.18643e-05
0.00110746
-0.000105197
0.000984618
-0.000855041
0.000638587
-0.000476594
-5.73475e-05
0.000218802
-0.00372388
0.00105961
0.00033303
0.000875791
-0.000785275
-5.31223e-05
0.000162412
0.000743632
-0.00208865
4.51385e-06
-0.000179678
0.00340344
-0.00315819
-0.00359178
-0.000126544
-0.000217869
5.15636e-06
-7.59697e-06
0.000126981
-9.59321e-05
-0.00066821
0.000927447
-0.00100859
0.00215821
-0.000104308
-0.000143166
-0.00258468
0.00271424
-0.000285427
-0.00277947
0.00306905
-0.00381139
0.00414126
0.000433178
-0.00361529
-2.94398e-05
-0.000215704
6.04674e-05
-0.0007543
0.00071342
0.000895783
0.000127125
0.00102472
-0.00104291
-0.00356635
0.00384834
0.000371187
-0.00310654
0.00273175
-0.00441302
0.00324522
0.00126198
-0.000116255
0.000923468
-0.000788746
-0.000282924
0.00314493
-0.00282153
-0.0016378
0.000262796
0.00134255
0.000161007
-0.000613006
0.00309042
0.000448941
0.000888751
-0.00294936
0.000196956
-9.74096e-05
5.60937e-06
-0.00399397
0.00155215
0.0016713
-0.00174365
0.00168482
1.14907e-05
0.00228879
-0.0025669
0.000260044
-0.00022105
0.000580172
-0.000504095
0.000153121
-0.000105483
-0.000803818
0.000895993
0.00315534
0.00410821
-0.0034015
0.00195165
-0.000183046
0.000231747
-0.000684739
0.000619111
-9.52484e-05
0.000859686
-0.00435559
0.00419873
0.000158275
0.000111859
0.000309402
0.000340659
-0.000100339
0.00087889
-0.000786366
-0.000923144
0.000759307
0.000178341
0.000709395
-0.000630449
0.000241654
0.000673401
7.64674e-05
-0.00374767
0.00010802
0.000825516
0.000836899
-0.000717439
0.000346337
-0.00143312
0.00117667
-0.00191051
0.00211674
-0.000236579
0.00285667
-0.000154094
0.00158411
-0.00176609
0.000200958
0.00226575
-0.00148398
0.00016755
7.71445e-05
-0.00342755
-0.000321742
0.000219235
0.000111396
-0.00131446
0.00172803
-0.00307931
0.00147218
-0.000209362
0.000229497
0.00122193
0.000722982
0.000112746
-0.00222186
0.00210399
-0.00188205
0.00156888
0.000376268
0.000136902
0.00163139
-5.3969e-05
0.000461441
-0.000404828
0.00408388
-0.00366185
-0.000451727
0.00370561
0.00237929
-0.000158341
0.0017974
-0.00161263
0.00207976
-0.000250446
0.00357835
-0.00215541
0.000476942
-0.000528619
-6.07812e-05
-0.000611961
-0.000358776
0.0032491
-0.002928
-0.000168879
-0.0012911
0.00145206
0.000207245
-0.00347881
-0.000164678
0.000620024
-0.000529584
-7.16078e-05
-0.000885896
0.00079794
0.000104582
-0.00109951
-0.00329648
-5.14211e-05
0.000398268
-0.00033918
2.75927e-06
-3.59498e-07
-3.51419e-06
-8.06316e-05
-0.000619197
0.000711981
-0.00145738
0.00183179
0.000945418
-0.00418602
-0.00313428
0.00273952
0.00184231
-0.000246217
0.00289706
0.000806715
0.0016961
0.00109547
-0.00272974
0.00391936
0.000505108
-0.00440616
0.00322919
0.0015694
0.00416196
-0.00346438
-0.000679018
-0.00292203
0.00328546
-0.00208644
0.00212386
-0.00234103
-0.000177827
-0.0041346
0.0034009
0.00335646
-0.000265005
0.000242849
0.00200981
0.00169723
6.73696e-05
-0.00155258
0.000227765
-0.000141138
0.00102958
-0.00090178
1.52317e-05
-7.90567e-09
-0.00237678
-0.000322439
0.00269232
1.30435e-06
0.00270155
-0.00266013
0.00335644
0.000117662
-2.32974e-05
0.000392708
-0.0032839
0.00053192
0.000408789
-0.000916566
-0.000176597
-0.00172618
0.00183578
-5.84514e-05
0.00193088
-0.000897109
0.000790208
0.00366542
-0.00357841
-3.81489e-05
0.00071208
-0.0021299
-0.000210662
-0.00256345
0.00240783
-0.000123761
-0.00353091
0.00372638
-0.00252268
0.00244107
0.00180112
0.000192633
-0.00190347
-0.00261557
0.00023831
0.00425444
-0.000246173
0.003823
-0.00359869
7.75405e-05
0.00115268
-0.00120923
0.00117553
-0.00130168
0.0012365
0.00065957
0.00359388
-0.00333676
-0.000226535
-0.00298259
-0.00021866
0.00168896
-0.00182186
0.000221862
-5.94747e-05
0.00291462
-0.000876863
0.000810624
0.00254258
-0.00194293
0.00221077
0.000757623
0.00188348
-0.0020351
0.000202156
0.000475625
0.00012198
-0.00254244
0.00265071
0.000163657
-0.00226413
0.000534459
-0.000546432
3.1557e-05
0.000218372
-0.00145328
-0.000290026
-7.61023e-05
-1.03064e-06
0.000200584
-0.00300023
-0.00018358
-9.16072e-05
0.000276533
-0.00190978
6.50032e-05
0.000226131
0.00213157
0.00155417
-0.00369705
-0.000403571
-0.00369649
0.00408396
0.000956289
-0.000109707
-5.60171e-07
-1.29644e-05
1.6892e-05
0.00213615
-0.00190609
-0.00108179
0.000506269
0.000614629
-0.00280416
3.98068e-05
0.00229121
-0.00218337
-0.00226198
0.00215823
0.000140699
-0.00142107
-0.000125109
-0.00395769
0.000257029
0.000515912
0.00346621
0.000280018
-0.00380698
0.00307994
-0.000324527
-0.00275409
-0.00132557
-0.00303123
-0.00326533
-0.000218668
0.00293365
-0.00246048
0.000456188
0.00204302
-0.00341401
0.00310185
0.000324367
-2.49846e-05
9.206e-06
-2.13185e-05
-0.00411996
0.00418175
0.000289621
-0.00307245
0.000230754
-0.00219052
7.7579e-05
0.00199307
-0.000116517
0.00355854
-0.00344549
-0.00057467
-7.1105e-05
-0.00349758
-0.000193929
0.00372881
-0.00128969
-0.000171847
0.00156622
-0.00439597
0.000186997
0.0043073
0.000123993
0.00097304
0.00058503
0.000900641
-0.00254372
0.00103462
0.00275389
-0.0029083
0.000769636
0.0019459
-0.00205763
0.000119878
0.00196204
-0.00185023
-0.00366359
0.00361332
-0.000758852
0.00165744
-5.49924e-05
0.000101286
0.00457225
-0.00245124
0.0028717
-0.000573759
-0.00224022
0.000418566
-0.00270814
0.000181147
-0.00227518
0.00230541
0.000102831
-3.6876e-05
-0.00216076
0.00216483
0.000211026
-0.0034984
0.000573406
-0.00291934
0.00318431
0.00190723
-0.00250271
0.00229506
0.000228293
-0.00027657
-0.00297345
0.0033177
-0.000151978
-0.000245909
4.19979e-05
0.00180881
-0.00178149
-0.00255442
0.00321561
-0.0027273
-0.000114728
-0.00339399
0.00350674
0.000651742
-0.000712653
0.000105183
0.00210595
-0.000187653
-0.0022632
0.000214307
-0.0023388
0.00227048
-0.00336331
0.000137564
-0.0032031
0.00301038
-0.000114454
0.000816986
-0.0032708
0.00351078
-0.00106885
0.00112362
2.31462e-05
-0.00350322
0.000154724
0.0021264
-0.000116488
0.000228838
-0.00386306
0.00274637
-0.00098934
-0.000115222
0.000111839
-0.00183294
7.20518e-05
-0.00311764
0.00018193
-0.00360999
0.00400379
5.73302e-05
-0.000261891
0.000212533
-0.00176944
0.00173289
0.000127952
0.000693984
-0.002302
0.000294828
0.0017716
-0.00205938
-0.000215832
-0.00395403
0.000221684
-0.00256119
-0.00170027
-9.95764e-05
-0.00215255
0.000139901
-0.000336783
-0.00223955
0.0001892
-0.0033762
4.93176e-05
-0.00249794
0.00233885
-0.00218346
-0.00401143
0.00423072
0.000474468
-0.000261716
0.000304091
-0.00375177
-0.00102683
0.000868876
-0.000101896
-0.00239232
0.00248206
0.00210283
-0.000103126
0.00046024
-3.87553e-05
-0.000407226
0.00201658
0.000159958
0.00035003
-0.00394338
3.43594e-06
-0.000187483
-0.0014778
0.000917583
0.0024193
-0.00397024
0.000114725
0.00394664
0.000199295
-0.00362337
0.00128873
0.000161281
-0.00143474
-0.000527912
0.00371566
0.00443409
-0.000507425
0.00232033
-0.00175988
0.000177558
0.00160902
0.000392952
-0.00325646
0.00285491
-0.000154133
0.00145056
0.000793716
-0.000889936
0.000100521
-4.08707e-05
0.00045638
-0.000404233
0.00294462
4.04312e-05
0.000441374
-0.000452046
-3.90923e-05
0.000472795
-0.000411963
0.00230535
-0.00241902
0.000130348
-0.00339387
0.00362657
-0.000251312
0.003664
0.000473912
-0.000404485
-0.000213247
-0.00283629
0.00307927
-8.17408e-05
0.000118231
3.45124e-06
0.00175619
0.00189983
-0.00130402
0.00175424
6.22259e-05
0.00406128
0.00198417
-0.00179297
-0.000114372
0.000456817
0.000128217
-0.00272475
0.00265608
-0.000152887
0.00295088
0.000377433
-0.00330842
0.00288344
0.000168569
-0.00295443
0.00164574
-0.000518597
-0.000240134
-0.00171725
0.00212777
-0.00291394
0.000327328
0.00254149