/*--------------------------------*- C++ -*----------------------------------*\
| =========                 |                                                 |
| \\      /  F ield         | OpenFOAM: The Open Source CFD Toolbox           |
|  \\    /   O peration     | Version:  v2012                                 |
|   \\  /    A nd           | Website:  www.openfoam.com                      |
|    \\/     M anipulation  |                                                 |
\*---------------------------------------------------------------------------*/
FoamFile
{
    version     2.0;
    format      ascii;
    class       pointVectorField;
    location    "350";
    object      pointDisplacement;
}
// * * * * * * * * * * * * * * * * * * * * * * * * * * * * * * * * * * * * * //

dimensions      [0 1 0 0 0 0 0];


internalField   nonuniform List<vector> 
10142
(
(0 0 0)
(0 0 0)
(0 0 0)
(0 0 0)
(0 0 0)
(0 0 0)
(0 0 0)
(0 0 0)
(0 0 0)
(0 0 0)
(0 0 0)
(0 0 0)
(0 0 0)
(0 0 0)
(0 0 0)
(0 0 0)
(0 0 0)
(0 0 0)
(0 0 0)
(0 0 0)
(0 0 0)
(0 0 0)
(0 0 0)
(0 0 0)
(0 0 0)
(0 0 0)
(0 0 0)
(0 0 0)
(0 0 0)
(0 0 0)
(0 0 0)
(0 0 0)
(0 0 0)
(0 0 0)
(0 0 0)
(0 0 0)
(0 0 0)
(0 0 0)
(0 0 0)
(0 0 0)
(0 0 0)
(0 0 0)
(0 0 0)
(0 0 0)
(0 0 0)
(0 0 0)
(0 0 0)
(0 0 0)
(0 0 0)
(0 0 0)
(0 0 0)
(0 0 0)
(0 0 0)
(0 0 0)
(0 0 0)
(0 0 0)
(0 0 0)
(0 0 0)
(0 0 0)
(0 0 0)
(0 0 0)
(0 0 0)
(0 0 0)
(0 0 0)
(0 0 0)
(0 0 0)
(0 0 0)
(0 0 0)
(0 0 0)
(0 0 0)
(0 0 0)
(0 0 0)
(0 0 0)
(0 0 0)
(0 0 0)
(0 0 0)
(0 0 0)
(0 0 0)
(0 0 0)
(0 0 0)
(0 0 0)
(0 0 0)
(0 0 0)
(0 0 0)
(0 0 0)
(0 0 0)
(0 0 0)
(0 0 0)
(0 0 0)
(0 0 0)
(0 0 0)
(0 0 0)
(0 0 0)
(0 0 0)
(0 0 0)
(0 0 0)
(0 0 0)
(0 0 0)
(0 0 0)
(0 0 0)
(0 0 0)
(0 0 0)
(0 0 0)
(0 0 0)
(0 0 0)
(0 0 0)
(0 0 0)
(0 0 0)
(0 0 0)
(0 0 0)
(0 0 0)
(0 0 0)
(0 0 0)
(0 0 0)
(0 0 0)
(0 0 0)
(0 0 0)
(0 0 0)
(0 0 0)
(0 0 0)
(0 0 0)
(0 0 0)
(0 0 0)
(0 0 0)
(0 0 0)
(0 0 0)
(0 0 0)
(0 0 0)
(0 0 0)
(0 0 0)
(0 0 0)
(0 0 0)
(0 0 0)
(0 0 0)
(0 0 0)
(0 0 0)
(0 0 0)
(0 0 0)
(0 0 0)
(0 0 0)
(0 0 0)
(0 0 0)
(0 0 0)
(0 0 0)
(0 0 0)
(0 0 0)
(0 0 0)
(0 0 0)
(0 0 0)
(0 0 0)
(0 0 0)
(0 0 0)
(0 0 0)
(0 0 0)
(0 0 0)
(0 0 0)
(0 0 0)
(0 0 0)
(0 0 0)
(0 0 0)
(0 0 0)
(0 0 0)
(0 0 0)
(0 0 0)
(0 0 0)
(0 0 0)
(0 0 0)
(0 0 0)
(0 0 0)
(0 0 0)
(0 0 0)
(0 0 0)
(0 0 0)
(0 0 0)
(0 0 0)
(0 0 0)
(0 0 0)
(0 0 0)
(0 0 0)
(0 0 0)
(0 0 0)
(0 0 0)
(0 0 0)
(0 0 0)
(0 0 0)
(0 0 0)
(0 0 0)
(0 0 0)
(0 0 0)
(0 0 0)
(0 0 0)
(0 0 0)
(0 0 0)
(0 0 0)
(0 0 0)
(0 0 0)
(0 0 0)
(0 0 0)
(0 0 0)
(0 0 0)
(0 0 0)
(0 0 0)
(0 0 0)
(0 0 0)
(0 0 0)
(0 0 0)
(0 0 0)
(0 0 0)
(0 0 0)
(0 0 0)
(0 0 0)
(0 0 0)
(0 0 0)
(0 0 0)
(0 0 0)
(0 0 0)
(0 0 0)
(0 0 0)
(0 0 0)
(0 0 0)
(0 0 0)
(0 0 0)
(0 0 0)
(0 0 0)
(0 0 0)
(0 0 0)
(0 0 0)
(0 0 0)
(0 0 0)
(0 0 0)
(0 0 0)
(0 0 0)
(0 0 0)
(0 0 0)
(0 0 0)
(0 0 0)
(0 0 0)
(0 0 0)
(0 0 0)
(0 0 0)
(0 0 0)
(0 0 0)
(0 0 0)
(0 0 0)
(0 0 0)
(0 0 0)
(0 0 0)
(0 0 0)
(0 0 0)
(0 0 0)
(0 0 0)
(0 0 0)
(0 0 0)
(0 0 0)
(0 0 0)
(0 0 0)
(0 7.44465e-05 0)
(0 8.38248e-05 0)
(0 5.9482e-05 0)
(0 7.34126e-05 0)
(0 5.12767e-05 0)
(0 6.52641e-05 0)
(0 4.51403e-05 0)
(0 7.09111e-05 0)
(0 3.74096e-05 0)
(0 4.84453e-05 0)
(0 3.96465e-05 0)
(0 2.8019e-05 0)
(0 2.71192e-05 0)
(0 7.38292e-05 0)
(0 2.58915e-05 0)
(0 2.00146e-05 0)
(0 1.94897e-05 0)
(0 8.35965e-05 0)
(0 5.63418e-05 0)
(0 4.88727e-05 0)
(0 1.53232e-05 0)
(0 1.05784e-05 0)
(0 6.77814e-05 0)
(0 8.26352e-05 0)
(0 6.99245e-05 0)
(0 7.2723e-05 0)
(0 6.18439e-05 0)
(0 2.9149e-05 0)
(0 3.7526e-05 0)
(0 3.55679e-05 0)
(0 3.18818e-05 0)
(0 1.01076e-05 0)
(0 6.45486e-06 0)
(0 5.62135e-06 0)
(0 7.3743e-05 0)
(0 8.42397e-05 0)
(0 7.28542e-05 0)
(0 6.84219e-05 0)
(0 7.41132e-05 0)
(0 5.6652e-05 0)
(0 4.22896e-05 0)
(0 4.97254e-05 0)
(0 6.76243e-05 0)
(0 1.77328e-05 0)
(0 4.64018e-05 0)
(0 3.42038e-05 0)
(0 2.54914e-05 0)
(0 2.08451e-05 0)
(0 1.44118e-05 0)
(0 2.46496e-05 0)
(0 2.80901e-06 0)
(0 0.000464154 0)
(0 0.000444107 0)
(0 0.000469274 0)
(0 0.000449011 0)
(0 0.000474599 0)
(0 0.000454268 0)
(0 0.000480347 0)
(0 0.000460039 0)
(0 0.000486716 0)
(0 0.000466544 0)
(0 0.000493717 0)
(0 0.000473911 0)
(0 0.000501279 0)
(0 0.000482085 0)
(0 0.000510314 0)
(0 0.000490919 0)
(0 0.000520035 0)
(0 0.000501021 0)
(0 0.000530833 0)
(0 0.00051299 0)
(0 0.000544549 0)
(0 0.000525903 0)
(0 0.000558524 0)
(0 0.000539952 0)
(0 0.000571997 0)
(0 0.00055495 0)
(0 0.000587195 0)
(0 0.000570608 0)
(0 0.000604282 0)
(0 0.000587429 0)
(0 0.000621762 0)
(0 0.000605455 0)
(0 0.000640306 0)
(0 0.000624599 0)
(0 0.000660152 0)
(0 0.000645103 0)
(0 0.000681435 0)
(0 0.000666967 0)
(0 0.000703101 0)
(0 0.000688855 0)
(0 0.00072432 0)
(0 0.000711189 0)
(0 0.000747363 0)
(0 0.000734329 0)
(0 0.00077099 0)
(0 0.000757803 0)
(0 0.000794936 0)
(0 0.000782664 0)
(0 0.000820393 0)
(0 0.000808288 0)
(0 0.000845895 0)
(0 0.000834041 0)
(0 0.0008723 0)
(0 0.000795221 0)
(0 0.000822226 0)
(0 0.000883203 0)
(0 0.000909224 0)
(0 0.000721162 0)
(0 0.00059236 0)
(0 0.000514014 0)
(0 0.000920875 0)
(0 0.000946047 0)
(0 0.000958474 0)
(0 0.000983082 0)
(0 0.000994848 0)
(0 0.00101895 0)
(0 0.00103116 0)
(0 0.00105585 0)
(0 0.00106783 0)
(0 0.00109222 0)
(0 0.00110223 0)
(0 0.00112638 0)
(0 0.00113527 0)
(0 0.00116041 0)
(0 0.00116811 0)
(0 0.00119376 0)
(0 0.00119936 0)
(0 0.00122404 0)
(0 0.00122825 0)
(0 0.00125081 0)
(0 0.0012538 0)
(0 0.00127441 0)
(0 0.00127238 0)
(0 0.00129594 0)
(0 0.00129394 0)
(0 0.00131771 0)
(0 0.00131497 0)
(0 0.00133866 0)
(0 0.00133499 0)
(0 0.00135823 0)
(0 0.00135488 0)
(0 0.00137801 0)
(0 0.00137451 0)
(0 0.0013976 0)
(0 0.00139286 0)
(0 0.00141492 0)
(0 0.00140914 0)
(0 0.00143065 0)
(0 0.00142427 0)
(0 0.00144578 0)
(0 0.00145939 0)
(0 0.00146476 0)
(0 0.00147782 0)
(0 0.00148951 0)
(0 0.00135942 0)
(0 0.00149432 0)
(0 0.00150627 0)
(0 0.0015216 0)
(0 0.00153187 0)
(0 0.001545 0)
(0 0.0015527 0)
(0 0.00155588 0)
(0 0.00156343 0)
(0 0.00156915 0)
(0 0.00157226 0)
(0 0.00157743 0)
(0 0.00158401 0)
(0 0.00158649 0)
(0 0.00159097 0)
(0 0.00159149 0)
(0 0.00159337 0)
(0 0.00159396 0)
(0 0.00159332 0)
(0 0.00159485 0)
(0 0.00159404 0)
(0 0.00159275 0)
(0 0.00159098 0)
(0 0.00158891 0)
(0 0.00158571 0)
(0 0.00123246 0)
(0 0.00158511 0)
(0 0.00158138 0)
(0 0.00157563 0)
(0 0.00157396 0)
(0 0.00156868 0)
(0 0.00155997 0)
(0 0.00155247 0)
(0 0.00154133 0)
(0 0.00153145 0)
(0 0.0015285 0)
(0 0.00151881 0)
(0 0.00150764 0)
(0 0.00150519 0)
(0 0.00149463 0)
(0 0.0014821 0)
(0 0.00147998 0)
(0 0.00146777 0)
(0 0.000609451 0)
(0 0.00145072 0)
(0 0.00143572 0)
(0 0.00141705 0)
(0 0.00140031 0)
(0 0.00139738 0)
(0 0.00138082 0)
(0 0.00136326 0)
(0 0.00136061 0)
(0 0.00134361 0)
(0 0.00132306 0)
(0 0.00130532 0)
(0 0.00128406 0)
(0 0.00126486 0)
(0 0.00126173 0)
(0 0.00124272 0)
(0 0.00122291 0)
(0 0.00121983 0)
(0 0.00120006 0)
(0 0.00117657 0)
(0 0.000522622 0)
(0 0.000462031 0)
(0 0.0012575 0)
(0 0.00123715 0)
(0 0.00126192 0)
(0 0.00124191 0)
(0 0.00126569 0)
(0 0.00124561 0)
(0 0.00127163 0)
(0 0.0012482 0)
(0 0.00126948 0)
(0 0.00124998 0)
(0 0.00126865 0)
(0 0.0012495 0)
(0 0.00126641 0)
(0 0.00124692 0)
(0 0.00126276 0)
(0 0.00124286 0)
(0 0.00125682 0)
(0 0.00123558 0)
(0 0.00124857 0)
(0 0.00122563 0)
(0 0.00123724 0)
(0 0.00126058 0)
(0 0.00124697 0)
(0 0.00127031 0)
(0 0.00125495 0)
(0 0.00127797 0)
(0 0.00121326 0)
(0 0.00120153 0)
(0 0.00126177 0)
(0 0.00128462 0)
(0 0.00118905 0)
(0 0.00117757 0)
(0 0.00126644 0)
(0 0.00128861 0)
(0 0.00116505 0)
(0 0.00115351 0)
(0 0.00126364 0)
(0 0.00128999 0)
(0 0.00114052 0)
(0 0.00112801 0)
(0 0.00111526 0)
(0 0.00110239 0)
(0 0.00126583 0)
(0 0.00128936 0)
(0 0.00109005 0)
(0 0.00107805 0)
(0 0.00126235 0)
(0 0.00128642 0)
(0 0.00106499 0)
(0 0.00105454 0)
(0 0.00124054 0)
(0 0.00103995 0)
(0 0.00103128 0)
(0 0.001256 0)
(0 0.00128137 0)
(0 0.00104732 0)
(0 0.00101553 0)
(0 0.00100853 0)
(0 0.00124758 0)
(0 0.00127393 0)
(0 0.000992389 0)
(0 0.000986369 0)
(0 0.00123747 0)
(0 0.00126371 0)
(0 0.000970023 0)
(0 0.000964239 0)
(0 0.00138578 0)
(0 0.00122537 0)
(0 0.00125181 0)
(0 0.000947217 0)
(0 0.000941608 0)
(0 0.000955571 0)
(0 0.000932978 0)
(0 0.000918333 0)
(0 0.000910616 0)
(0 0.00106509 0)
(0 0.00121181 0)
(0 0.00123834 0)
(0 0.000895368 0)
(0 0.000888303 0)
(0 0.000900875 0)
(0 0.000879725 0)
(0 0.000865583 0)
(0 0.000858394 0)
(0 0.000843045 0)
(0 0.000837005 0)
(0 0.00119641 0)
(0 0.00122234 0)
(0 0.00126382 0)
(0 0.00124717 0)
(0 0.00120354 0)
(0 0.00122804 0)
(0 0.00119976 0)
(0 0.000870353 0)
(0 0.000433224 0)
(0 0.000820913 0)
(0 0.000816132 0)
(0 0.00127068 0)
(0 0.00125172 0)
(0 0.00120769 0)
(0 0.00123153 0)
(0 0.00118593 0)
(0 0.00121003 0)
(0 0.00125478 0)
(0 0.00123401 0)
(0 0.00118759 0)
(0 0.00121144 0)
(0 0.000950538 0)
(0 0.00125726 0)
(0 0.0012345 0)
(0 0.00118732 0)
(0 0.00121069 0)
(0 0.00116248 0)
(0 0.00118624 0)
(0 0.00123477 0)
(0 0.00121008 0)
(0 0.0011612 0)
(0 0.00118375 0)
(0 0.00123018 0)
(0 0.00120458 0)
(0 0.00115658 0)
(0 0.00117788 0)
(0 0.000799443 0)
(0 0.000795674 0)
(0 0.000802414 0)
(0 0.00112735 0)
(0 0.00114818 0)
(0 0.00119637 0)
(0 0.00116751 0)
(0 0.001118 0)
(0 0.00113804 0)
(0 0.00122716 0)
(0 0.00131052 0)
(0 0.00118537 0)
(0 0.00115676 0)
(0 0.00110863 0)
(0 0.00112824 0)
(0 0.00107915 0)
(0 0.00109913 0)
(0 0.00114506 0)
(0 0.00111643 0)
(0 0.00106916 0)
(0 0.00108744 0)
(0 0.00113318 0)
(0 0.00110501 0)
(0 0.00105624 0)
(0 0.00107312 0)
(0 0.00102301 0)
(0 0.00103864 0)
(0 0.0010847 0)
(0 0.00105221 0)
(0 0.00100531 0)
(0 0.00101976 0)
(0 0.00106474 0)
(0 0.00103292 0)
(0 0.000987354 0)
(0 0.00100091 0)
(0 0.000955069 0)
(0 0.000968369 0)
(0 0.00101158 0)
(0 0.000979954 0)
(0 0.000935671 0)
(0 0.000947304 0)
(0 0.000778642 0)
(0 0.000775276 0)
(0 0.000790298 0)
(0 0.000770612 0)
(0 0.000782913 0)
(0 0.000764471 0)
(0 0.000751086 0)
(0 0.000746365 0)
(0 0.000732178 0)
(0 0.000728582 0)
(0 0.000989373 0)
(0 0.000957507 0)
(0 0.00091526 0)
(0 0.000926128 0)
(0 0.000883572 0)
(0 0.000894325 0)
(0 0.000934164 0)
(0 0.00090261 0)
(0 0.000862195 0)
(0 0.000871047 0)
(0 0.000913622 0)
(0 0.000877992 0)
(0 0.000839241 0)
(0 0.000844898 0)
(0 0.000881061 0)
(0 0.00084911 0)
(0 0.000811194 0)
(0 0.000815637 0)
(0 0.000852077 0)
(0 0.000818796 0)
(0 0.000853568 0)
(0 0.000820544 0)
(0 0.000853599 0)
(0 0.000820906 0)
(0 0.000788018 0)
(0 0.000788594 0)
(0 0.000819875 0)
(0 0.000787637 0)
(0 0.000756364 0)
(0 0.0007553 0)
(0 0.000785017 0)
(0 0.000752552 0)
(0 0.00078077 0)
(0 0.00074807 0)
(0 0.00077491 0)
(0 0.000742052 0)
(0 0.000767573 0)
(0 0.000734572 0)
(0 0.000708873 0)
(0 0.000701465 0)
(0 0.000725911 0)
(0 0.000693005 0)
(0 0.000716174 0)
(0 0.000683714 0)
(0 0.000705545 0)
(0 0.000673375 0)
(0 0.000693886 0)
(0 0.000651808 0)
(0 0.000661973 0)
(0 0.000681137 0)
(0 0.000649546 0)
(0 0.000667426 0)
(0 0.000636071 0)
(0 0.00065274 0)
(0 0.000621431 0)
(0 0.000636859 0)
(0 0.000724193 0)
(0 0.000604782 0)
(0 0.000605508 0)
(0 0.000619749 0)
(0 0.000588311 0)
(0 0.000601458 0)
(0 0.00108218 0)
(0 0.000713499 0)
(0 0.000710628 0)
(0 0.000569895 0)
(0 0.000581992 0)
(0 0.0007742 0)
(0 0.000668131 0)
(0 0.000694161 0)
(0 0.000691189 0)
(0 0.00104282 0)
(0 0.000550376 0)
(0 0.000561431 0)
(0 0.000538244 0)
(0 0.000592876 0)
(0 0.000571352 0)
(0 0.000602608 0)
(0 0.000580161 0)
(0 0.000726419 0)
(0 0.00131043 0)
(0 0.000673265 0)
(0 0.000705788 0)
(0 0.000673569 0)
(0 0.000548936 0)
(0 0.000556896 0)
(0 0.000611091 0)
(0 0.00080019 0)
(0 0.000525701 0)
(0 0.000532918 0)
(0 0.000501717 0)
(0 0.000508325 0)
(0 0.000476945 0)
(0 0.000482935 0)
(0 0.000514063 0)
(0 0.000488041 0)
(0 0.000518664 0)
(0 0.00128934 0)
(0 0.000451356 0)
(0 0.000445211 0)
(0 0.00114964 0)
(0 0.00113574 0)
(0 0.000419482 0)
(0 0.000413249 0)
(0 0.000676196 0)
(0 0.00141827 0)
(0 0.000886798 0)
(0 0.000777495 0)
(0 0.00067589 0)
(0 0.00133042 0)
(0 0.000787079 0)
(0 0.00063734 0)
(0 0.000541318 0)
(0 0.000488863 0)
(0 0.000387489 0)
(0 0.000381171 0)
(0 0.000971702 0)
(0 0.000355339 0)
(0 0.000348836 0)
(0 0.00124546 0)
(0 0.00051553 0)
(0 0.000378212 0)
(0 0.000356891 0)
(0 0.00121531 0)
(0 0.000797032 0)
(0 0.000821743 0)
(0 0.000850153 0)
(0 0.00084565 0)
(0 0.000874131 0)
(0 0.000868594 0)
(0 0.000897241 0)
(0 0.000890624 0)
(0 0.00091938 0)
(0 0.000911823 0)
(0 0.000940464 0)
(0 0.000931806 0)
(0 0.000960772 0)
(0 0.000951416 0)
(0 0.000979711 0)
(0 0.000968077 0)
(0 0.000996629 0)
(0 0.000982248 0)
(0 0.00101155 0)
(0 0.000993017 0)
(0 0.00102635 0)
(0 0.00101099 0)
(0 0.00104142 0)
(0 0.00102512 0)
(0 0.00105519 0)
(0 0.000374085 0)
(0 0.00034158 0)
(0 0.000366157 0)
(0 0.000333601 0)
(0 0.000357444 0)
(0 0.000324843 0)
(0 0.000347949 0)
(0 0.000315449 0)
(0 0.000337777 0)
(0 0.000305484 0)
(0 0.000327035 0)
(0 0.00029505 0)
(0 0.000315829 0)
(0 0.000284248 0)
(0 0.000304122 0)
(0 0.000273102 0)
(0 0.000292006 0)
(0 0.000322881 0)
(0 0.000309813 0)
(0 0.000279543 0)
(0 0.000296158 0)
(0 0.000326365 0)
(0 0.000311577 0)
(0 0.00028214 0)
(0 0.000296188 0)
(0 0.000325544 0)
(0 0.000308817 0)
(0 0.000280494 0)
(0 0.000291919 0)
(0 0.000320182 0)
(0 0.000302129 0)
(0 0.000274711 0)
(0 0.000283405 0)
(0 0.000310681 0)
(0 0.00029044 0)
(0 0.000317179 0)
(0 0.000264402 0)
(0 0.000295683 0)
(0 0.000321945 0)
(0 0.000299265 0)
(0 0.000325253 0)
(0 0.000301356 0)
(0 0.000327557 0)
(0 0.000301949 0)
(0 0.000328102 0)
(0 0.000276812 0)
(0 0.000300837 0)
(0 0.000326646 0)
(0 0.000344473 0)
(0 0.000298139 0)
(0 0.000323948 0)
(0 0.000355182 0)
(0 0.000294113 0)
(0 0.000319937 0)
(0 0.000269335 0)
(0 0.000288702 0)
(0 0.000314393 0)
(0 0.000346574 0)
(0 0.000340857 0)
(0 0.000373858 0)
(0 0.000368177 0)
(0 0.000333662 0)
(0 0.000360991 0)
(0 0.00039636 0)
(0 0.000389027 0)
(0 0.000351977 0)
(0 0.000379779 0)
(0 0.000340971 0)
(0 0.000368605 0)
(0 0.000408334 0)
(0 0.000397067 0)
(0 0.000470641 0)
(0 0.000502286 0)
(0 0.000355665 0)
(0 0.000384123 0)
(0 0.000426399 0)
(0 0.000413449 0)
(0 0.00045653 0)
(0 0.000443551 0)
(0 0.000398789 0)
(0 0.000428849 0)
(0 0.000322871 0)
(0 0.000328887 0)
(0 0.000387203 0)
(0 0.000365732 0)
(0 0.000336233 0)
(0 0.000345345 0)
(0 0.000316594 0)
(0 0.000325775 0)
(0 0.000374197 0)
(0 0.000297895 0)
(0 0.000307313 0)
(0 0.000883762 0)
(0 0.00038241 0)
(0 0.000412479 0)
(0 0.000454574 0)
(0 0.000487702 0)
(0 0.000282923 0)
(0 0.00103788 0)
(0 0.00106832 0)
(0 0.000950291 0)
(0 0.000459702 0)
(0 0.000443357 0)
(0 0.000394372 0)
(0 0.000424903 0)
(0 0.000474662 0)
(0 0.000455893 0)
(0 0.000816342 0)
(0 0.000506253 0)
(0 0.000487411 0)
(0 0.000435259 0)
(0 0.000466594 0)
(0 0.000519365 0)
(0 0.00049836 0)
(0 0.00044392 0)
(0 0.000475623 0)
(0 0.000530447 0)
(0 0.000507653 0)
(0 0.000451174 0)
(0 0.000483132 0)
(0 0.000540008 0)
(0 0.000515585 0)
(0 0.000572873 0)
(0 0.000548852 0)
(0 0.000489959 0)
(0 0.000523413 0)
(0 0.000582779 0)
(0 0.000557045 0)
(0 0.00049574 0)
(0 0.000528796 0)
(0 0.000590464 0)
(0 0.000562056 0)
(0 0.000623843 0)
(0 0.000595633 0)
(0 0.000532431 0)
(0 0.000565827 0)
(0 0.000628873 0)
(0 0.000598391 0)
(0 0.000533761 0)
(0 0.000565802 0)
(0 0.000630666 0)
(0 0.000598631 0)
(0 0.000663917 0)
(0 0.00063316 0)
(0 0.000566489 0)
(0 0.00060186 0)
(0 0.000668237 0)
(0 0.000636864 0)
(0 0.000568875 0)
(0 0.000603708 0)
(0 0.000671016 0)
(0 0.000637474 0)
(0 0.000567867 0)
(0 0.000601892 0)
(0 0.000671208 0)
(0 0.000636519 0)
(0 0.000705508 0)
(0 0.000671815 0)
(0 0.000601346 0)
(0 0.000637244 0)
(0 0.000707024 0)
(0 0.000672743 0)
(0 0.000601618 0)
(0 0.000637802 0)
(0 0.000708736 0)
(0 0.000674968 0)
(0 0.000745668 0)
(0 0.000713013 0)
(0 0.000641076 0)
(0 0.000679587 0)
(0 0.000749999 0)
(0 0.000716499 0)
(0 0.000643987 0)
(0 0.000681087 0)
(0 0.000753155 0)
(0 0.000718122 0)
(0 0.000642439 0)
(0 0.000678797 0)
(0 0.000754316 0)
(0 0.000713803 0)
(0 0.000787892 0)
(0 0.000747248 0)
(0 0.000671728 0)
(0 0.000705501 0)
(0 0.000779742 0)
(0 0.000738405 0)
(0 0.00066292 0)
(0 0.000695385 0)
(0 0.000770077 0)
(0 0.000726295 0)
(0 0.000799212 0)
(0 0.000755084 0)
(0 0.000681514 0)
(0 0.00071047 0)
(0 0.000781957 0)
(0 0.000738591 0)
(0 0.000808057 0)
(0 0.00076645 0)
(0 0.000833778 0)
(0 0.000792635 0)
(0 0.000724321 0)
(0 0.000750063 0)
(0 0.000815029 0)
(0 0.000773565 0)
(0 0.000835839 0)
(0 0.000796767 0)
(0 0.000857045 0)
(0 0.000819505 0)
(0 0.000759356 0)
(0 0.000783703 0)
(0 0.000840899 0)
(0 0.000806369 0)
(0 0.000749726 0)
(0 0.000773263 0)
(0 0.000716235 0)
(0 0.000739975 0)
(0 0.000860663 0)
(0 0.000682394 0)
(0 0.000705871 0)
(0 0.000761253 0)
(0 0.000727933 0)
(0 0.000670897 0)
(0 0.000693438 0)
(0 0.000656518 0)
(0 0.000781117 0)
(0 0.000682298 0)
(0 0.000635018 0)
(0 0.000657053 0)
(0 0.000597933 0)
(0 0.000618477 0)
(0 0.000674444 0)
(0 0.00063563 0)
(0 0.000688811 0)
(0 0.000651335 0)
(0 0.000598147 0)
(0 0.000615307 0)
(0 0.00066661 0)
(0 0.000632608 0)
(0 0.000580682 0)
(0 0.000599805 0)
(0 0.000573624 0)
(0 0.000547418 0)
(0 0.000568757 0)
(0 0.000682018 0)
(0 0.000637766 0)
(0 0.00118812 0)
(0 0.000253011 0)
(0 0.000437028 0)
(0 0.000471864 0)
(0 0.000895067 0)
(0 0.00129225 0)
(0 0.00105012 0)
(0 0.00108052 0)
(0 0.000516764 0)
(0 0.00106093 0)
(0 0.00109149 0)
(0 0.00110958 0)
(0 0.00112142 0)
(0 0.00110028 0)
(0 0.00113035 0)
(0 0.00115136 0)
(0 0.00115972 0)
(0 0.00113668 0)
(0 0.00116594 0)
(0 0.00118839 0)
(0 0.00119452 0)
(0 0.00121636 0)
(0 0.00122278 0)
(0 0.00119944 0)
(0 0.001228 0)
(0 0.00125082 0)
(0 0.00125613 0)
(0 0.00123188 0)
(0 0.00126008 0)
(0 0.00128345 0)
(0 0.0012873 0)
(0 0.00130959 0)
(0 0.0013137 0)
(0 0.00128987 0)
(0 0.00131634 0)
(0 0.00133891 0)
(0 0.00134165 0)
(0 0.00131737 0)
(0 0.00134269 0)
(0 0.00136584 0)
(0 0.00136683 0)
(0 0.00134192 0)
(0 0.00136614 0)
(0 0.00138988 0)
(0 0.00138942 0)
(0 0.00141243 0)
(0 0.00141232 0)
(0 0.00138746 0)
(0 0.00141037 0)
(0 0.00143427 0)
(0 0.00143201 0)
(0 0.00145454 0)
(0 0.00145211 0)
(0 0.0014283 0)
(0 0.00144795 0)
(0 0.00147038 0)
(0 0.00146578 0)
(0 0.00144209 0)
(0 0.00145976 0)
(0 0.00148198 0)
(0 0.00147606 0)
(0 0.00145242 0)
(0 0.00146883 0)
(0 0.00149126 0)
(0 0.00148417 0)
(0 0.00150597 0)
(0 0.00149933 0)
(0 0.00147628 0)
(0 0.00149202 0)
(0 0.00151375 0)
(0 0.00150694 0)
(0 0.0014843 0)
(0 0.00149962 0)
(0 0.00152064 0)
(0 0.00151321 0)
(0 0.00153221 0)
(0 0.0015247 0)
(0 0.00150413 0)
(0 0.00151568 0)
(0 0.00153685 0)
(0 0.0015249 0)
(0 0.0015048 0)
(0 0.00151302 0)
(0 0.00153032 0)
(0 0.00151795 0)
(0 0.0015327 0)
(0 0.00151949 0)
(0 0.00150393 0)
(0 0.00150483 0)
(0 0.00151856 0)
(0 0.00150327 0)
(0 0.00151524 0)
(0 0.00149968 0)
(0 0.00148884 0)
(0 0.00151056 0)
(0 0.00149488 0)
(0 0.00148305 0)
(0 0.00147823 0)
(0 0.00148878 0)
(0 0.00147217 0)
(0 0.00146134 0)
(0 0.00145503 0)
(0 0.00146423 0)
(0 0.00144654 0)
(0 0.000280248 0)
(0 0.000290406 0)
(0 0.000270696 0)
(0 0.000317326 0)
(0 0.000300815 0)
(0 0.000328435 0)
(0 0.000312034 0)
(0 0.000284689 0)
(0 0.000295973 0)
(0 0.000267267 0)
(0 0.000281603 0)
(0 0.000308975 0)
(0 0.000294705 0)
(0 0.000268854 0)
(0 0.000280961 0)
(0 0.000256736 0)
(0 0.000267901 0)
(0 0.000245068 0)
(0 0.00025715 0)
(0 0.000272227 0)
(0 0.000296064 0)
(0 0.000301758 0)
(0 0.0012834 0)
(0 0.00152495 0)
(0 0.000518997 0)
(0 0.000902252 0)
(0 0.000536183 0)
(0 0.00101798 0)
(0 0.00144458 0)
(0 0.00032404 0)
(0 0.000494279 0)
(0 0.000873082 0)
(0 0.000505038 0)
(0 0.000549947 0)
(0 0.000459671 0)
(0 0.00145445 0)
(0 0.00143624 0)
(0 0.00079148 0)
(0 0.000780013 0)
(0 0.000795904 0)
(0 0.000782302 0)
(0 0.000796394 0)
(0 0.000781134 0)
(0 0.000794272 0)
(0 0.000777205 0)
(0 0.000788783 0)
(0 0.000770587 0)
(0 0.00078097 0)
(0 0.000759812 0)
(0 0.00076152 0)
(0 0.000772104 0)
(0 0.000750888 0)
(0 0.000761489 0)
(0 0.000783672 0)
(0 0.0007731 0)
(0 0.000795993 0)
(0 0.000784939 0)
(0 0.000808289 0)
(0 0.000797033 0)
(0 0.00082114 0)
(0 0.000810711 0)
(0 0.000834841 0)
(0 0.000824317 0)
(0 0.000849009 0)
(0 0.000838582 0)
(0 0.000863891 0)
(0 0.000852724 0)
(0 0.000878644 0)
(0 0.000866308 0)
(0 0.000893189 0)
(0 0.00088157 0)
(0 0.000908624 0)
(0 0.000897588 0)
(0 0.000925001 0)
(0 0.000914256 0)
(0 0.000942102 0)
(0 0.000931505 0)
(0 0.000959709 0)
(0 0.000949138 0)
(0 0.000749333 0)
(0 0.00078445 0)
(0 0.000837067 0)
(0 0.000978292 0)
(0 0.000967565 0)
(0 0.000885017 0)
(0 0.000932825 0)
(0 0.000955781 0)
(0 0.000917812 0)
(0 0.000997255 0)
(0 0.000875056 0)
(0 0.000924875 0)
(0 0.000944268 0)
(0 0.00100601 0)
(0 0.00102572 0)
(0 0.000912268 0)
(0 0.000931769 0)
(0 0.000964554 0)
(0 0.00103294 0)
(0 0.00105332 0)
(0 0.000952207 0)
(0 0.000985506 0)
(0 0.000831455 0)
(0 0.00102335 0)
(0 0.00050945 0)
(0 0.000767704 0)
(0 0.00122534 0)
(0 0.000918406 0)
(0 0.000939029 0)
(0 0.000232898 0)
(0 0.000268541 0)
(0 0.000273991 0)
(0 0.000262789 0)
(0 0.000633491 0)
(0 0.000253793 0)
(0 0.000245021 0)
(0 0.000400804 0)
(0 0.000933989 0)
(0 0.000463538 0)
(0 0.000807354 0)
(0 0.000359108 0)
(0 0.00144311 0)
(0 0.00146145 0)
(0 0.0014243 0)
(0 0.00141768 0)
(0 0.00106903 0)
(0 0.00105851 0)
(0 0.00103853 0)
(0 0.00107941 0)
(0 0.00107447 0)
(0 0.00053802 0)
(0 0.000581876 0)
(0 0.000470826 0)
(0 0.00140543 0)
(0 0.00139872 0)
(0 0.000438959 0)
(0 0.000240265 0)
(0 0.00024544 0)
(0 0.000969501 0)
(0 0.000894592 0)
(0 0.000904327 0)
(0 0.000486897 0)
(0 0.000432222 0)
(0 0.000441452 0)
(0 0.000228888 0)
(0 0.000222321 0)
(0 0.000518665 0)
(0 0.000506509 0)
(0 0.000925742 0)
(0 0.00110067 0)
(0 0.00109586 0)
(0 0.00106233 0)
(0 0.00104237 0)
(0 0.00114372 0)
(0 0.000571435 0)
(0 0.000614479 0)
(0 0.00063222 0)
(0 0.000616183 0)
(0 0.000638312 0)
(0 0.000622677 0)
(0 0.000645575 0)
(0 0.00062936 0)
(0 0.000653065 0)
(0 0.000636393 0)
(0 0.000660955 0)
(0 0.000643895 0)
(0 0.000618454 0)
(0 0.000625701 0)
(0 0.000651849 0)
(0 0.00063359 0)
(0 0.000660051 0)
(0 0.000642015 0)
(0 0.000669014 0)
(0 0.000650925 0)
(0 0.000678864 0)
(0 0.000660504 0)
(0 0.000688589 0)
(0 0.000671301 0)
(0 0.000700004 0)
(0 0.000683297 0)
(0 0.000712088 0)
(0 0.000695548 0)
(0 0.000724621 0)
(0 0.000708356 0)
(0 0.000738991 0)
(0 0.00072224 0)
(0 0.00142996 0)
(0 0.000641671 0)
(0 0.000664116 0)
(0 0.000211123 0)
(0 0.000215968 0)
(0 0.000754311 0)
(0 0.000737596 0)
(0 0.00023748 0)
(0 0.000215775 0)
(0 0.000622173 0)
(0 0.000653231 0)
(0 0.000646355 0)
(0 0.000453821 0)
(0 0.000397987 0)
(0 0.000707378 0)
(0 0.000614357 0)
(0 0.000208276 0)
(0 0.00021332 0)
(0 0.00138627 0)
(0 0.00137971 0)
(0 0.00139078 0)
(0 0.000545687 0)
(0 0.000598949 0)
(0 0.000741285 0)
(0 0.000999761 0)
(0 0.000400789 0)
(0 0.000752366 0)
(0 0.000423241 0)
(0 0.00106456 0)
(0 0.0010444 0)
(0 0.000883693 0)
(0 0.000869037 0)
(0 0.000849517 0)
(0 0.0013911 0)
(0 0.000715104 0)
(0 0.000727795 0)
(0 0.000759376 0)
(0 0.000768935 0)
(0 0.000739293 0)
(0 0.000798304 0)
(0 0.000777153 0)
(0 0.000749268 0)
(0 0.000784133 0)
(0 0.000757384 0)
(0 0.000672101 0)
(0 0.00069465 0)
(0 0.000648715 0)
(0 0.00151905 0)
(0 0.00153265 0)
(0 0.00152558 0)
(0 0.0015385 0)
(0 0.00154546 0)
(0 0.00153019 0)
(0 0.000914359 0)
(0 0.00095112 0)
(0 0.000968196 0)
(0 0.00100371 0)
(0 0.00101827 0)
(0 0.00105345 0)
(0 0.00106439 0)
(0 0.00103818 0)
(0 0.00102938 0)
(0 0.00107236 0)
(0 0.00103814 0)
(0 0.00107827 0)
(0 0.00104568 0)
(0 0.00108326 0)
(0 0.00105228 0)
(0 0.00101459 0)
(0 0.00102242 0)
(0 0.000984213 0)
(0 0.000992661 0)
(0 0.0010287 0)
(0 0.000999463 0)
(0 0.000962497 0)
(0 0.000970014 0)
(0 0.000933322 0)
(0 0.000940602 0)
(0 0.000905012 0)
(0 0.00147612 0)
(0 0.000446181 0)
(0 0.00144413 0)
(0 0.000480757 0)
(0 0.000601611 0)
(0 0.000841497 0)
(0 0.00138419 0)
(0 0.000811285 0)
(0 0.00082601 0)
(0 0.000856822 0)
(0 0.000892199 0)
(0 0.000921026 0)
(0 0.000952981 0)
(0 0.000981072 0)
(0 0.000777966 0)
(0 0.000565284 0)
(0 0.00149291 0)
(0 0.000943722 0)
(0 0.0007386 0)
(0 0.00123431 0)
(0 0.00081412 0)
(0 0.000845144 0)
(0 0.000880291 0)
(0 0.00053077 0)
(0 0.00154368 0)
(0 0.00114139 0)
(0 0.000340694 0)
(0 0.000357268 0)
(0 0.000370367 0)
(0 0.000387036 0)
(0 0.000772354 0)
(0 0.000803072 0)
(0 0.000836192 0)
(0 0.00151135 0)
(0 0.00152538 0)
(0 0.00152944 0)
(0 0.00154241 0)
(0 0.00154543 0)
(0 0.00155681 0)
(0 0.00155371 0)
(0 0.00156658 0)
(0 0.0015635 0)
(0 0.000693966 0)
(0 0.000727579 0)
(0 0.000755251 0)
(0 0.000788672 0)
(0 0.000499664 0)
(0 0.00141081 0)
(0 0.00143287 0)
(0 0.0014296 0)
(0 0.00145115 0)
(0 0.00144661 0)
(0 0.00146714 0)
(0 0.00130417 0)
(0 0.00132905 0)
(0 0.00132224 0)
(0 0.00134625 0)
(0 0.00133789 0)
(0 0.00120841 0)
(0 0.00123586 0)
(0 0.00122547 0)
(0 0.00125369 0)
(0 0.000650271 0)
(0 0.000683483 0)
(0 0.000707373 0)
(0 0.000739423 0)
(0 0.000595478 0)
(0 0.000553127 0)
(0 0.000523246 0)
(0 0.000352406 0)
(0 0.000465975 0)
(0 0.000628699 0)
(0 0.000649405 0)
(0 0.000682694 0)
(0 0.000555228 0)
(0 0.00057028 0)
(0 0.000602645 0)
(0 0.000615527 0)
(0 0.00133972 0)
(0 0.000281777 0)
(0 0.000467687 0)
(0 0.000498356 0)
(0 0.00050764 0)
(0 0.000538861 0)
(0 0.000546367 0)
(0 0.000578433 0)
(0 0.000584426 0)
(0 0.000552225 0)
(0 0.00058819 0)
(0 0.000556394 0)
(0 0.00059034 0)
(0 0.000558743 0)
(0 0.000425057 0)
(0 0.000721313 0)
(0 0.000374228 0)
(0 0.000699071 0)
(0 0.000813115 0)
(0 0.000749119 0)
(0 0.000619181 0)
(0 0.000398504 0)
(0 0.000341114 0)
(0 0.000719794 0)
(0 0.000929304 0)
(0 0.000885028 0)
(0 0.000918412 0)
(0 0.00091475 0)
(0 0.000242526 0)
(0 0.000222172 0)
(0 0.00021238 0)
(0 0.000191658 0)
(0 0.000182507 0)
(0 0.000200608 0)
(0 0.000169641 0)
(0 0.000177816 0)
(0 0.00131125 0)
(0 0.000757607 0)
(0 0.00128957 0)
(0 0.00027393 0)
(0 0.000921526 0)
(0 0.000344606 0)
(0 0.00032286 0)
(0 0.000294129 0)
(0 0.000270893 0)
(0 0.000202318 0)
(0 0.000173106 0)
(0 0.000191955 0)
(0 0.000163485 0)
(0 0.000181345 0)
(0 0.000153748 0)
(0 0.00017056 0)
(0 0.000143904 0)
(0 0.000159647 0)
(0 0.000134001 0)
(0 0.000148643 0)
(0 0.000124075 0)
(0 0.000137587 0)
(0 0.000114157 0)
(0 0.000126494 0)
(0 0.000149392 0)
(0 0.000137114 0)
(0 0.000115413 0)
(0 0.000124795 0)
(0 0.000104353 0)
(0 0.000112446 0)
(0 0.000132416 0)
(0 0.000118751 0)
(0 0.000138316 0)
(0 0.000123322 0)
(0 0.000105104 0)
(0 0.000108349 0)
(0 0.000126142 0)
(0 9.15552e-05 0)
(0 0.000109849 0)
(0 0.000127223 0)
(0 0.000109598 0)
(0 0.00012657 0)
(0 0.000107611 0)
(0 0.000124187 0)
(0 9.20556e-05 0)
(0 0.000144516 0)
(0 0.000141723 0)
(0 0.000120058 0)
(0 0.000137175 0)
(0 0.000114193 0)
(0 0.000130939 0)
(0 0.000155365 0)
(0 0.000148809 0)
(0 0.000123136 0)
(0 0.000140835 0)
(0 0.00014489 0)
(0 0.000153222 0)
(0 0.000163487 0)
(0 9.33278e-05 0)
(0 0.0007238 0)
(0 0.000314098 0)
(0 0.000206077 0)
(0 0.000301401 0)
(0 0.000275687 0)
(0 0.000261393 0)
(0 0.000236932 0)
(0 0.00022121 0)
(0 0.000197802 0)
(0 0.00111178 0)
(0 0.00111487 0)
(0 0.00108491 0)
(0 0.00108624 0)
(0 0.001056 0)
(0 0.00111631 0)
(0 0.00108609 0)
(0 0.00111629 0)
(0 0.000300813 0)
(0 0.000574047 0)
(0 0.000771639 0)
(0 0.000393562 0)
(0 0.00036588 0)
(0 0.000334867 0)
(0 0.000305793 0)
(0 0.000630401 0)
(0 0.00017378 0)
(0 0.00128009 0)
(0 0.000257142 0)
(0 0.000433446 0)
(0 0.000402104 0)
(0 0.000994379 0)
(0 0.000467704 0)
(0 0.000432363 0)
(0 0.000400271 0)
(0 0.000364041 0)
(0 0.00131466 0)
(0 0.00131107 0)
(0 0.00128503 0)
(0 0.00127992 0)
(0 0.00125309 0)
(0 0.00110526 0)
(0 0.000396312 0)
(0 0.00141263 0)
(0 0.00107552 0)
(0 0.00142649 0)
(0 0.00141695 0)
(0 0.00139798 0)
(0 0.00138708 0)
(0 0.00136716 0)
(0 0.00135512 0)
(0 0.00137547 0)
(0 0.00142527 0)
(0 0.00144071 0)
(0 0.000496493 0)
(0 0.000458264 0)
(0 0.000423722 0)
(0 0.00038428 0)
(0 0.000682122 0)
(0 0.00153702 0)
(0 0.000528336 0)
(0 0.000490864 0)
(0 0.00148286 0)
(0 0.00147088 0)
(0 0.00145939 0)
(0 0.00144679 0)
(0 0.00143443 0)
(0 0.00142078 0)
(0 0.00143304 0)
(0 0.00113877 0)
(0 0.00125686 0)
(0 0.000248816 0)
(0 0.000331719 0)
(0 0.000393196 0)
(0 0.0015918 0)
(0 0.000565432 0)
(0 0.000523566 0)
(0 0.00048768 0)
(0 0.000444797 0)
(0 0.000409255 0)
(0 0.00105453 0)
(0 0.00153246 0)
(0 0.000677924 0)
(0 0.000290488 0)
(0 0.000586074 0)
(0 0.000541624 0)
(0 0.00120207 0)
(0 0.000380374 0)
(0 0.000306987 0)
(0 0.00159279 0)
(0 0.00159055 0)
(0 0.0015475 0)
(0 0.00153455 0)
(0 0.000960522 0)
(0 0.000947958 0)
(0 0.000983051 0)
(0 0.00144937 0)
(0 0.00143259 0)
(0 0.0014359 0)
(0 0.00141877 0)
(0 0.00142066 0)
(0 0.000639109 0)
(0 0.00137177 0)
(0 0.000370197 0)
(0 0.000337274 0)
(0 0.000299262 0)
(0 0.00127951 0)
(0 0.00125821 0)
(0 0.00116961 0)
(0 0.000400663 0)
(0 0.000417616 0)
(0 0.00115231 0)
(0 0.00112493 0)
(0 0.00110569 0)
(0 0.00122317 0)
(0 0.00129043 0)
(0 0.0012833 0)
(0 8.87956e-05 0)
(0 7.47092e-05 0)
(0 0.0003808 0)
(0 0.00034177 0)
(0 0.00031954 0)
(0 0.00137831 0)
(0 0.000453526 0)
(0 0.000415296 0)
(0 0.000378156 0)
(0 0.000871363 0)
(0 0.000451924 0)
(0 0.00022529 0)
(0 0.00021552 0)
(0 0.00159022 0)
(0 0.00158715 0)
(0 0.00158704 0)
(0 0.00053865 0)
(0 0.000901631 0)
(0 0.000507378 0)
(0 0.000462075 0)
(0 0.000427731 0)
(0 0.00123187 0)
(0 0.00110398 0)
(0 0.000376881 0)
(0 0.000678014 0)
(0 0.000648607 0)
(0 0.00131742 0)
(0 0.00138168 0)
(0 0.000369514 0)
(0 0.000412273 0)
(0 0.000674415 0)
(0 0.00109902 0)
(0 0.000940164 0)
(0 0.00111274 0)
(0 0.00099611 0)
(0 0.00107434 0)
(0 0.000193272 0)
(0 0.000181933 0)
(0 0.000161153 0)
(0 0.000951129 0)
(0 0.000243206 0)
(0 0.000266061 0)
(0 0.000657947 0)
(0 0.00100542 0)
(0 0.00105782 0)
(0 0.00102731 0)
(0 0.000500524 0)
(0 0.00155101 0)
(0 0.000659172 0)
(0 0.000306095 0)
(0 0.000349727 0)
(0 0.00112247 0)
(0 0.00111788 0)
(0 0.00059943 0)
(0 0.000148212 0)
(0 0.00124702 0)
(0 0.00127339 0)
(0 0.00107699 0)
(0 0.00109743 0)
(0 0.0009118 0)
(0 0.000275595 0)
(0 0.000430734 0)
(0 0.000358703 0)
(0 0.00111104 0)
(0 0.000813101 0)
(0 0.000373405 0)
(0 0.00118936 0)
(0 0.000911288 0)
(0 0.000875731 0)
(0 0.000760257 0)
(0 0.000419501 0)
(0 0.000360876 0)
(0 0.00116151 0)
(0 0.000811857 0)
(0 0.00108732 0)
(0 0.0014062 0)
(0 0.00141792 0)
(0 0.000701116 0)
(0 0.00066822 0)
(0 0.000753061 0)
(0 0.00155724 0)
(0 0.000152796 0)
(0 0.00102524 0)
(0 0.000946402 0)
(0 0.00137149 0)
(0 0.000850219 0)
(0 0.00137464 0)
(0 0.000281198 0)
(0 0.000305349 0)
(0 0.000681653 0)
(0 0.000648946 0)
(0 0.000770417 0)
(0 0.000753661 0)
(0 0.00105703 0)
(0 0.00108459 0)
(0 0.00111503 0)
(0 0.000559188 0)
(0 0.000409072 0)