/*--------------------------------*- C++ -*----------------------------------*\
| =========                 |                                                 |
| \\      /  F ield         | OpenFOAM: The Open Source CFD Toolbox           |
|  \\    /   O peration     | Version:  v2012                                 |
|   \\  /    A nd           | Website:  www.openfoam.com                      |
|    \\/     M anipulation  |                                                 |
\*---------------------------------------------------------------------------*/
FoamFile
{
    version     2.0;
    format      ascii;
    class       surfaceScalarField;
    location    "950";
    object      meshPhiCN_0;
}
// * * * * * * * * * * * * * * * * * * * * * * * * * * * * * * * * * * * * * //

dimensions      [0 3 -1 0 0 0 0];
oriented        oriented;


internalField   nonuniform List<scalar> 
14885
(
-0.000301918
-0.000898594
0.00119493
-0.00503516
0.00276684
0.00236699
-0.000163191
0.00151869
-0.0012235
0.00167043
-0.00229188
0.000485279
8.4271e-05
-0.000622687
0.000803346
0.00300598
-0.000634954
-0.00240087
0.000670249
0.00262515
-0.00312191
-0.00213906
0.00254817
-0.000397298
-0.000997117
0.000729069
0.000336055
-0.0013023
0.000525873
0.000845738
0.000494922
0.0020696
-0.00260936
-0.00239352
-0.00256088
-0.000341932
0.00234084
-0.00187159
0.000502818
-0.00116652
0.000729423
-0.00156837
0.000442901
0.00103843
0.00126564
-0.000708922
-0.0024441
0.00220919
0.000194602
-0.00202565
0.00247036
-0.00076259
0.000195889
0.000703135
0.00145941
-0.000422056
-0.00105145
-0.00202651
0.00180311
0.000818658
-0.00111584
0.00253313
-0.000812237
0.000268534
-0.0027005
0.00241239
-0.00118334
0.00025889
0.000978173
-4.58595e-05
1.39693e-05
5.35098e-05
-0.000963329
-0.000152881
0.000102038
-7.68974e-05
1.06653e-06
0.000427988
0.002543
-0.000706776
-0.00158273
0.0023145
3.50423e-05
4.20172e-05
-9.9827e-05
-0.00314318
0.000504246
0.00270595
-0.000851116
0.000259243
0.000733317
-0.000235609
-0.000428613
-0.00247199
0.000331088
-0.00234701
0.00208633
0.00023545
0.00164926
-0.000345656
-0.00109447
8.60772e-05
-5.87548e-06
-0.000131179
-8.42663e-06
0.000105587
0.000228565
-0.000242538
8.74207e-06
0.00236064
-0.00303526
-0.000606202
0.00292178
-0.00346833
0.00059236
0.00448726
-0.0038587
-0.000456629
-0.000870305
0.000124737
0.000757971
-0.000399322
-0.000891388
0.000105384
6.99653e-06
-0.000123583
-0.00154761
-0.000201648
-0.000221283
0.00198431
-0.00162204
-0.00396419
0.00427378
-0.000200442
0.00326014
-0.000281821
-4.66868e-07
-0.000144215
0.000110134
-0.00204092
-6.68544e-05
-0.000591005
0.0047089
-0.00427919
-0.00031544
0.00486807
-0.00441312
-0.000347924
-0.000281705
-0.00166674
-0.00308073
0.00102937
0.00221684
0.000259596
-0.000183602
-4.25515e-05
-7.1466e-06
7.5722e-06
6.76748e-07
-0.00188316
0.00182351
-0.00439291
0.0042403
0.000330946
-0.00303255
-0.000369192
-0.00201882
0.00234952
-0.000332139
-0.000982582
0.000137442
0.000859417
0.000160735
-4.32427e-05
-4.9453e-05
0.00116634
-0.000437488
-0.000753033
-0.00114108
0.00145424
-0.000281184
-3.56854e-05
-7.84464e-05
0.000117275
-0.00131834
0.000213018
-0.00323514
0.00342476
-0.000119171
-3.95786e-05
-0.000624967
0.000480052
0.000109643
0.000583857
-0.000639264
3.3481e-05
0.00025277
0.000250189
5.02799e-05
7.87198e-05
0.000433379
-0.000904136
0.000504176
0.000105779
-2.7794e-06
-0.000485156
0.000951668
-0.000699476
0.00102969
0.00408913
0.000496658
0.00261404
1.8589e-05
1.7344e-05
-2.15124e-05
0.000512602
-1.83435e-05
-0.000652468
-1.707e-05
1.61065e-05
0.000148176
0.00257887
-0.00257325
0.000100493
0.000907386
0.000282679
-0.00155449
0.001523
0.000396631
-0.000595132
3.21471e-05
0.000306416
0.000689915
-0.00103139
-0.00192845
0.00138936
0.000649524
-0.000730532
0.00111639
-0.00300514
5.1157e-05
-0.000285308
0.00299117
-0.00117822
0.000119143
0.00098354
0.000475216
-0.000676024
6.00554e-05
-0.00330152
0.00325328
0.00100018
-0.0020734
0.00251295
-0.000375261
-7.91678e-05
-1.29543e-05
2.40633e-05
-0.00130786
-0.000482258
-0.00151062
0.00181067
-0.00012774
-0.000128127
-0.000372903
0.000705315
0.00229723
-0.00305935
-0.000871802
9.41647e-05
0.000902978
-0.000908636
0.00086712
5.34166e-08
-0.00159969
0.00442678
-0.00272328
0.00043707
-7.03466e-05
-0.0023876
0.00321131
6.83463e-05
-0.000916375
0.000268092
-0.000421865
5.67581e-05
0.000817735
-0.00305115
-0.00152795
0.000158679
-0.00238455
0.000366633
-0.000139594
-0.000870147
2.53783e-06
-5.19183e-05
2.01671e-05
0.000729629
-0.00183636
0.00120618
-0.000104722
6.0129e-05
0.000132005
-0.000739248
-0.00210755
-1.85649e-05
0.000115642
-0.000128797
-6.03605e-06
-1.9791e-08
-0.00421868
0.002288
0.00204169
-0.00293579
-0.00119926
-0.000249775
-0.000745111
-0.000460269
0.00073637
0.000318321
-0.000431773
5.09103e-05
0.00050843
-4.38347e-05
0.000328638
0.00449345
-0.00306696
0.00289845
0.000218169
0.00201639
-0.0011904
0.000435614
-0.000420598
2.65565e-05
0.000661065
-0.000519251
-0.000168848
2.76407e-05
-0.000264172
0.000163447
-0.000433131
0.000661814
-0.000283026
-0.00182905
0.00277263
-0.000238549
0.00334969
-0.00299827
0.000445918
-0.000148267
-0.000281463
-0.00268678
-0.00313876
-0.000858895
0.000918818
0.000111263
-0.00251479
0.000487485
-0.000336517
0.00288247
-0.00247397
-0.000147941
2.60596e-05
0.000174672
-0.0050846
0.00360881
3.05805e-06
0.00012196
3.97673e-05
-3.36258e-05
5.17811e-05
1.76455e-05
1.31836e-06
8.86042e-06
0.000128295
-0.000134261
0.00010279
0.00165666
-4.87839e-05
-0.00147492
0.000658306
-0.00248689
0.00188425
0.000302645
9.51079e-05
8.80585e-05
-9.90742e-05
-8.8702e-06
0.00099952
-0.000878586
-0.000168982
-0.00228074
0.00256572
-0.00021816
-0.000168619
-0.00109149
3.64903e-06
8.86365e-05
-0.00279972
-0.000219854
0.00395006
0.00101042
0.000280094
-0.000312555
-4.80406e-06
-2.85769e-05
-0.000407463
0.000304373
0.00010202
0.000201176
1.20254e-05
-0.00317286
0.00305111
-5.6759e-06
-1.65464e-05
0.0004111
-0.000172283
-0.00245642
0.00319312
-0.000700884
0.000879901
0.00320308
-0.00081409
-0.00021296
-0.00212685
0.000452797
-0.000129874
-0.000174211
-0.00154566
0.000181318
0.00128465
0.00150683
-0.0030735
0.00289904
0.000631171
-0.00342126
0.000412425
0.000558528
-0.000534653
0.0036404
-0.000627608
-0.000281455
-0.00043294
0.000747101
0.000131307
-0.000194387
0.000221464
0.000466762
6.23637e-05
-0.000125412
-0.000555034
-7.09101e-05
-0.000940272
0.000398729
0.000649603
-2.65788e-05
-9.7092e-06
4.68207e-05
-0.000112476
-0.000289375
8.90285e-05
0.000235456
-0.00126106
-0.00066887
0.00204173
0.000268221
-0.0004777
5.03759e-06
-9.15187e-06
3.97642e-06
-0.00335732
0.000135542
0.00330969
0.000647168
-0.000571247
-0.000105434
-0.000795221
0.00175119
-0.00195371
0.000540533
5.09301e-06
-0.000210906
-0.000663245
0.0048219
-0.0049495
0.000256939
-0.00130686
0.000511794
-0.00208816
0.00368481
-0.00155623
-0.00184895
0.000217451
0.00167101
0.0033938
-0.00314699
-0.000227383
0.000402345
-3.55785e-06
-0.00271766
0.0032361
-0.000453065
0.00302221
-0.00287277
-6.58359e-05
0.00243431
-0.000421678
-0.00200968
-4.58963e-05
-2.39712e-05
-5.24959e-06
0.00222114
0.000363343
-2.58842e-05
-0.000345644
0.000215481
0.00254681
-0.00282254
-0.00234582
0.000173451
2.86006e-05
5.72321e-07
-0.00056572
0.000105178
0.000142901
-9.98971e-05
-2.85037e-06
0.00219733
0.000233289
0.00247323
-0.00226047
-0.000154494
-0.000716116
0.00195272
-0.000907244
0.00101835
0.000277592
-0.00126099
1.85992e-05
-0.000286438
0.000248302
0.000426452
-0.00257072
0.00229851
0.00157063
-4.7514e-05
-0.00171728
0.000244463
0.00328206
0.000254728
-0.00350532
-0.000185154
-0.00138682
0.00357556
-0.000246692
-0.000283191
-0.00110498
-0.00134612
0.000100565
-0.000196261
-0.00188888
0.00212389
9.93096e-05
0.000430892
-8.56382e-05
0.00080783
-0.000446387
0.000204068
-0.000203655
3.35984e-05
6.2183e-05
0.000346388
0.000228198
-0.00181994
0.000685458
4.62502e-06
-9.54373e-05
0.000413978
-0.000635403
0.00234652
0.000159809
-6.80466e-05
3.75593e-05
-0.00347784
0.000203992
1.83853e-05
-8.05802e-06
-0.00250015
-0.000242488
0.000226125
-0.00236793
0.00226418
-0.00250898
0.000311185
0.00234112
-6.68611e-06
4.24058e-07
0.000169822
3.01879e-05
-0.00386783
-0.000251276
0.00424958
-0.000658433
0.00100576
-0.000363077
-0.002024
6.25957e-05
-6.51942e-06
0.000539883
0.000409303
-0.000451416
1.39542e-05
8.47171e-05
-0.000827024
0.000624259
2.83237e-05
-0.00277308
0.00134502
0.00152395
-0.00111429
-0.00218736
0.00344875
0.0016889
0.000202447
1.35198e-05
0.000219606
7.53619e-05
0.000498434
0.0017387
-0.00121413
-0.000352352
0.00194209
0.00133498
4.47005e-05
-0.00150433
0.00125308
-0.000175148
0.000845744
5.83038e-06
0.00016984
-0.000139658
-0.000300576
0.000262317
-0.000129189
0.000125454
0.000129055
0.00341265
-0.00431387
0.000730986
-0.000926881
-0.00118612
-0.00152603
3.1514e-05
9.45936e-05
-0.000430703
-8.19007e-05
0.000412509
0.000508268
-0.00261504
0.00183992
-0.0035614
-0.000258872
0.00123041
-0.00114118
-6.79669e-06
0.00333485
0.000178478
0.000363757
0.00147954
-0.00252663
0.000691291
0.00203512
-0.00123238
0.000401952
0.00077675
0.00124138
-0.000109308
-0.001015
-0.000551435
0.000294335
0.000497068
-1.43856e-05
-2.76255e-06
-0.000245902
0.00237237
-0.00195751
-0.00337853
0.00132264
-0.000137681
-0.00101345
0.0023434
-0.000742321
-0.000424196
-0.00333728
-9.17375e-05
0.00344978
-0.000628487
-0.00105177
0.00175873
-0.000118602
-1.479e-05
0.0001596
-0.000107271
0.000881143
-0.000749084
5.33635e-06
4.14279e-05
-0.00179732
0.00162872
0.000250899
5.86793e-05
-0.00104975
0.00116254
-1.58441e-05
0.000621957
-0.000283903
-0.00175776
0.00267057
-0.000787487
0.000879572
-0.000623347
0.00116747
-0.000583895
0.00253147
0.000136485
-0.00244426
0.000277403
-7.00656e-05
-0.0020293
0.00230466
-0.000199559
0.000198205
8.45693e-05
0.00204992
6.84447e-06
-3.54099e-06
0.00236539
-0.00202494
0.000898785
-0.00146585
-0.00169854
-0.00255313
-0.00133161
0.00152072
-0.000108661
-3.73527e-06
0.000169449
0.00255709
0.000112169
-0.00242903
0.000746363
0.00152648
3.97126e-05
-0.000213067
-0.000195318
0.00029597
-9.81127e-05
0.000534679
0.000466794
-0.00112232
-0.000943882
0.00117383
-0.000794543
0.000709085
-1.1433e-05
-0.000120327
-0.000171493
-0.000106316
0.00274447
-0.000235321
-0.00247795
-7.20591e-05
4.37536e-05
-4.10695e-05
-2.3146e-05
4.38245e-05
0.00339934
2.98174e-05
-0.000647604
-0.00167941
-0.00169479
0.000205541
0.00149164
-0.000430675
0.000399509
4.5485e-05
0.000766722
-0.00116619
0.00180355
-0.000199318
-0.0014893
0.000731272
-0.000521656
0.0003279
-0.000221709
-0.00148001
0.000333164
-0.000475426
7.55802e-05
-0.0003258
1.9553e-05
0.000492511
-0.00138517
3.31011e-05
-3.26154e-05
1.40327e-05
-0.00262368
0.00277465
0.000149259
0.000775837
-0.00524364
0.00355961
0.0018613
-0.00144101
-0.000248724
0.000792091
4.42646e-05
0.000331957
-0.00267766
-0.00262467
0.00235455
0.000259444
-0.00195774
0.00176701
-8.85359e-06
-3.65443e-07
0.00157181
-0.000169771
-0.00133736
0.00049392
-0.000376595
-0.000273976
0.000237851
-0.000244536
0.00104589
-0.00115648
7.95921e-05
0.000289377
-0.000786038
0.000479575
-4.05115e-05
0.000396487
-0.000244855
-4.10907e-05
-0.000515541
0.000476118
-0.000962137
0.00100856
-0.000228907
0.000301875
0.000746557
-0.000888006
0.000186923
-1.8026e-05
0.00441806
0.000205634
0.00167194
-0.00200323
0.0018622
-9.5054e-06
0.000399744
0.00297555
-0.00329121
-2.57533e-05
1.41921e-05
-2.3587e-06
0.000801849
-4.51295e-05
-0.00166028
0.00151966
1.22066e-05
0.000174457
-0.00268165
0.000350179
0.00239734
-0.00181956
0.00224976
2.12533e-05
-0.000737778
0.00104098
-0.000437074
2.33729e-05
-0.00021632
0.000204901
-0.000195352
-0.00488267
0.00442013
0.000571824
-1.59981e-07
0.000142194
0.000105849
-1.44779e-05
5.03963e-06
-5.03963e-06
-0.00172003
-0.000675825
0.00127933
-0.00122932
-4.65068e-05
0.00266114
-0.00176597
0.000304703
-0.0023668
0.00222576
0.000344786
-0.0037356
0.00362704
-0.00227181
0.000676055
-0.000411344
0.000246074
1.73428e-05
-0.00206256
0.00251968
-0.000475422
0.000667143
0.000620412
0.000129021
-0.0032196
0.0012557
0.00202848
-0.000114843
-0.00010856
3.61661e-05
5.21343e-06
0.000166139
-0.000124759
-5.71808e-05
-0.000111332
1.26293e-06
0.00167365
-0.00119195
0.00364926
-0.00361036
6.99995e-07
-0.000424136
0.000303296
0.000243028
-0.00227221
0.00211565
0.000328932
-0.00213104
-0.00430873
0.0022555
-0.00251904
0.000155271
0.00233755
-0.000385031
-0.00208052
0.00126465
0.00208364
-0.00181557
0.00237207
-0.000262958
4.23487e-05
-0.00335739
0.00362308
-0.00022342
0.000419885
-0.000385648
-2.23758e-05
-0.00413797
0.000931802
0.00313998
-0.00402145
-0.000171889
0.000967036
-0.000177292
-0.0023681
-0.000902431
-0.000124582
0.000991883
-0.000246125
-0.00201876
0.000320202
0.00139888
-0.00305121
0.00147653
0.0015852
0.000240082
-0.000400624
0.000273854
-0.00210832
0.00256328
-3.10261e-05
-0.00056119
-0.00234675
0.000314169
0.00204186
-0.000430437
5.02974e-05
0.000442
-3.11529e-05
0.000290422
-0.000138621
-0.00443922
-3.16053e-06
-3.749e-05
5.00683e-05
-0.000166802
-0.000232111
-0.000116148
0.000147395
2.78079e-05
-0.00146914
0.00182141
7.18725e-05
0.000211655
7.05071e-05
-0.00015236
6.76119e-05
-0.00056611
-0.000235918
0.000901965
-0.000392787
3.0421e-05
0.000556135
-0.00129464
-0.0017155
0.000787994
-0.000922996
0.00207406
0.000165355
-0.000641424
6.77095e-05
5.76903e-05
-0.000171059
0.000511735
0.000841735
0.00123931
0.000100309
-0.00101965
9.06481e-06
0.000131037
-0.00328624
-0.000173978
0.00352459
0.00213596
4.57286e-05
1.97104e-05
-3.66081e-05
-0.00388382
-0.000436839
-2.16865e-05
2.78176e-05
-4.7834e-07
0.000258251
-0.000969515
-6.4349e-05
-0.000667735
0.000868242
0.000143021
-9.45134e-05
-0.00031615
1.21526e-05
0.000305568
-0.000498909
-0.00180559
-0.000140526
-0.00294074
0.00197463
1.04782e-05
-0.000127144
5.72638e-05
-0.00235077
0.00188535
-0.00174868
0.0023834
-0.000511018
0.000540284
-0.0021954
-0.00229838
-0.000833969
0.00116427
0.00149364
0.000997424
-5.0399e-06
-0.00113265
0.00395144
-0.00025727
-1.91996e-06
-1.39391e-05
0.000156772
-0.000120601
0.000118977
0.000109704
0.00272158
-0.00140572
-0.00127957
0.00169765
-0.00173693
-2.68778e-06
8.95898e-05
0.00158082
-2.08112e-06
0.000177313
1.27351e-05
0.00101287
-0.0012253
0.00126198
-0.000519732
0.000959109
-0.00120705
0.00130545
-0.00300429
0.00295899
0.000740089
-0.000650612
-7.58411e-05
0.00356707
-2.80209e-05
-0.00350775
-0.00346957
0.000268587
-0.00282115
0.000461192
0.00244468
-1.5653e-05
5.07101e-05
-0.00181044
0.00172699
1.9752e-05
-7.55228e-05
-0.00121151
-0.00294618
0.000187327
-0.00163446
0.00122728
-0.00166467
-9.20545e-05
-0.000458802
0.000259994
-0.00210322
-0.000345949
-0.000122724
8.08192e-07
-0.0007613
0.000961511
-7.82974e-05
8.48222e-05
-0.000600739
-0.00157309
-0.000381586
0.0021368
-0.00172554
-6.8518e-05
0.000156754
-0.000276426
0.000159987
8.8274e-06
0.000402785
-0.00272566
-0.00117451
0.00394338
-7.91235e-06
4.9967e-05
0.00177172
-0.00156256
-0.00014408
-0.00174352
0.00016556
0.00171843
0.00242993
-0.00252826
-0.000610058
-0.000216082
0.000161281
0.00234938
0.00037817
-0.00279784
-0.000403946
0.00331245
0.000161304
-0.000322732
3.67889e-06
-0.000251854
0.000410292
-0.00219612
0.00130568
-0.00396239
0.00119737
0.000644569
-0.00167816
-0.00013234
0.00204237
-0.00192251
-0.00074749
-0.000446391
0.00112201
0.000152741
-1.5876e-05
-0.000128714
-4.12236e-05
1.85165e-05
0.000225212
-0.000207608
0.000291998
3.72771e-05
-0.000119434
0.000174504
9.21231e-06
-0.000252792
0.00267631
-0.000720376
0.000173075
-0.00292867
0.00239747
0.000622556
0.000592986
1.59965e-05
-0.000579364
-4.19843e-05
0.00242695
-0.0003065
-0.000882108
0.000852522
-0.00220389
0.000984641
0.00141563
0.000358992
-0.000498747
1.45588e-05
0.000809628
-0.000758023
-4.77381e-05
5.40557e-05
3.585e-05
0.00170266
-0.00184684
0.000591084
-0.000243017
-5.91194e-06
0.000139256
-0.00356644
0.00194038
0.00183919
-0.00142056
0.00167557
-0.000227978
8.00406e-05
0.000428618
0.000130465
0.000596008
-0.000324843
3.25783e-05
0.000425898
0.000137343
1.83118e-05
-0.00333723
0.000641104
-0.000550172
-2.70726e-05
8.05067e-05
8.33383e-05
-8.97116e-05
-0.000233564
-0.00145253
-0.000424297
-0.000372672
1.15104e-05
2.45854e-05
5.85831e-05
0.00148702
-4.53605e-05
-0.00121863
-0.000312372
-0.00408562
0.000349203
0.000404915
-0.00124926
9.78251e-05
-0.00160138
0.000180647
0.00153265
0.000259435
0.00105846
-0.00173303
0.001978
-0.00199464
0.000136767
0.00159606
-0.000373268
-0.000519925
0.000521023
1.94386e-05
-0.00152834
-0.00192
-1.00481e-05
5.44495e-07
0.000375172
0.00330105
-0.00351344
0.00194113
-0.000588403
0.000747356
-0.000236345
-0.000446921
0.00195071
-0.00179412
-6.57982e-05
-0.00253942
-0.00260711
0.00248873
-0.000320875
-0.00200831
-0.00146102
5.85418e-05
8.48611e-05
-8.08171e-05
-7.64877e-05
0.000222605
0.000129742
1.0249e-05
-0.000163646
0.00039085
2.36565e-06
-0.000389063
0.00219294
-0.000381973
-0.00161268
0.000721046
0.00284045
-0.000307275
-0.00237165
-0.000722701
0.000829933
-4.45128e-05
-7.4039e-06
5.10005e-06
3.99251e-06
-0.00411762
0.00391066
0.000309278
-0.00068722
0.000903139
0.00176275
-3.52862e-06
-2.20577e-05
0.00044788
-0.00033195
-4.00175e-05
-0.00042618
-0.00356775
-0.00245118
-0.000181334
-0.000229239
-0.00132965
0.0023598
-0.00273277
-0.00413928
0.00180381
0.00212273
-0.000260803
0.00216239
-0.00180591
0.00063549
-0.000220133
-0.000359252
0.0003258
0.000464285
0.00033565
-0.000632731
-0.000331579
3.87669e-05
-0.000548023
0.000420881
-1.60404e-05
-0.000237901
0.000449527
-0.000213208
0.000316507
0.000267796
2.13149e-05
-0.000528753
-0.00128692
0.00160163
-0.000124862
-0.00182749
0.000188235
0.00157493
-0.00147799
0.000161959
0.00134698
-0.000133909
0.000120962
3.2508e-05
-1.64349e-06
0.00294799
0.000275134
-0.000476291
0.000176553
0.00113981
-0.000312574
-0.00163088
-8.59754e-05
9.20316e-05
0.00402975
-0.00345876
-0.000318084
-0.000603493
-0.000103199
-0.00100675
-9.24983e-06
-4.99039e-05
-1.40046e-06
0.000117114
-4.8704e-05
-1.39077e-05
-0.000425187
0.00306455
-0.00259368
-1.83557e-05
-0.000116303
0.0011478
-2.57117e-05
-0.00115136
0.00110311
0.000144698
0.00390843
2.75311e-06
1.74395e-06
-5.73823e-05
-1.21122e-05
-1.56137e-05
-7.08156e-06
-0.00182198
0.00183188
0.000126191
-0.000582954
-0.00187104
-5.66447e-06
9.40616e-05
-1.18606e-05
-0.000183597
0.000255787
1.87128e-05
1.0077e-05
-2.16672e-06
0.000365724
-0.000755901
-0.000230319
-0.00121137
0.000346247
0.000306337
0.00290578
-0.00328334
-0.000354266
-0.000527363
-0.00163951
0.00220485
0.0013273
-0.000968881
-0.000187224
0.000962021
-0.00118099
0.000141068
-0.0014284
0.00152538
0.00252091
0.000275695
0.00129865
-0.00211312
0.000856777
-0.00250058
0.00201248
-0.000851468
0.00206147
-0.00230467
-0.00208006
-0.00230696
8.44813e-07
-8.23565e-05
-0.00155015
0.00267435
-0.00116033
-0.00151637
-0.000190468
0.00183769
-0.00192045
-0.0011275
0.00277001
-0.00161599
0.000304728
-0.000446538
-1.87901e-05
0.00251637
-0.00230868
-0.000166307
7.81668e-06
-0.000280595
0.000177497
3.07233e-05
-0.000223845
-6.45911e-06
6.11206e-05
0.000695665
-1.19033e-06
-1.25293e-05
-0.000772876
-0.00261119
0.00103838
-0.000942805
0.000863894
8.99886e-05
-5.59097e-05
-0.00375028
0.000147432
0.000879964
-0.000720024
7.48951e-05
-0.00113924
0.00151988
-5.99494e-05
-0.000173865
-5.83371e-05
-0.00102131
5.19972e-05
-0.00120816
0.000384281
-0.00283283
-0.000407036
3.63937e-05
0.000331824
0.00022449
0.000111833
0.000140451
-0.00126244
1.82293e-06
0.000207484
-4.22653e-06
-4.66924e-06
-5.89247e-05
8.01009e-05
5.987e-05
-0.00099865
0.00084115
-0.000643658
2.5281e-05
0.000508038
0.00149152
-0.00145816
5.07759e-05
7.76854e-05
0.00165401
-0.00290218
-0.00013953
-0.00175515
5.30386e-05
-3.37225e-05
-0.000581489
-0.00104037
0.000905606
1.09618e-05
0.000127946
-0.000762605
-1.70576e-05
-0.000141936
-0.000372911
7.44044e-05
-0.00140086
0.00125058
-2.68227e-05
-0.000380029
0.00252407
0.00175969
0.00260052
0.000240833
-2.3745e-05
-0.00021752
0.000291308
-0.002057
4.10622e-05
-9.08931e-05
-0.000276349
-0.00387635
0.00204529
0.00187817
0.00180321
0.000590163
5.47683e-05
1.29582e-05
0.000139362
-1.1458e-06
0.000102382
-0.000102215
0.00178174
-0.00334852
0.0021728
-0.00246427
-6.44952e-05
-2.87163e-05
8.28497e-05
-0.000105489
5.53747e-05
-4.91997e-05
-0.000402837
-0.00235299
0.000481278
0.00186905
-4.61862e-06
2.74077e-05
0.00180857
-0.000228906
-0.000277049
-0.000345917
0.000567209
-1.71526e-05
-9.90751e-07
0.00140088
-0.00151588
-1.75106e-05
0.000217899
-0.000222264
-0.000306085
0.0033797
0.00264774
0.00106398
-0.000189226
0.000238272
-1.79126e-05
-0.000706206
0.000861287
0.000155863
-0.000202883
4.39348e-06
-3.70655e-05
-0.00026217
-1.41653e-05
-0.000598839
0.00207808
-0.000197449
-1.22927e-05
-0.00309983
0.00332333
-3.45885e-05
6.14383e-05
3.52435e-05
-0.00191422
0.000694497
0.0011702
-0.00016037
0.000459907
-0.00100162
-0.00190129
-1.95473e-05
-0.000386623
-3.74064e-07
6.74288e-08
4.96818e-06
0.00136374
-0.00138898
-0.000128154
2.62579e-05
9.08472e-06
0.00216375
-0.000710213
9.40473e-05
-0.00236781
0.000809301
0.00163855
0.00481611
-0.00465079
-0.000447297
0.000125006
-0.000243175
0.000171103
6.63804e-05
0.00129051
0.000207583
-0.000738687
-0.000149881
-0.00207591
0.00188613
0.000160613
0.00111466
-1.52684e-05
-0.00106606
0.000411082
2.2611e-05
-9.85093e-05
-2.4832e-06
-0.00022579
0.00247346
-0.000484799
0.000183424
0.000203658
0.00113621
2.92191e-05
0.000782133
-0.00462843
-0.00111892
-0.0007873
-0.00203186
-0.00189571
0.000129976
0.00194355
-9.33964e-05
0.00118363
0.000804695
-0.00190756
-0.000103149
6.21235e-05
0.000723901
-0.000152283
-0.00311803
0.00202412
-0.000109916
-0.00269965
-0.000304392
0.00329209
-0.00200909
-0.000165089
0.000669055
-0.00108991
0.00168594
-0.00172263
-0.000176419
5.7221e-07
-0.000103814
0.000270657
-0.000107713
-0.000414485
0.000775761
-0.000244918
0.000514999
-0.000532664
5.02903e-05
-0.00159665
0.00132771
0.000291314
0.00295959
-0.000106392
-0.00278724
-2.31102e-05
-2.69429e-08
0.000353079
-1.26573e-05
-0.000342197
-0.000550738
0.00274531
0.000959215
-0.000887774
-0.000155563
-0.000122439
-0.00277019
0.00217993
0.000965994
-0.000971418
-8.17993e-05
3.51503e-05
-0.000738238
0.00208864
-0.000668768
6.1003e-05
0.000602862
-0.000348259
-0.00275743
-7.5847e-06
-5.04161e-05
0.000832472
-0.00110575
-0.00206807
0.00160706
-4.7196e-06
-0.000626938
0.000675122
1.97787e-05
0.00100674
-0.00114788
-0.000116395
1.05212e-05
0.000129015
-4.0357e-05
-0.00017704
9.66866e-06
0.0015269
0.00418311
-4.5076e-06
-0.000130837
0.00158637
-0.00267213
0.000301464
0.00257285
-9.62372e-06
-7.96406e-05
0.000393773
-3.18089e-05
0.000413948
-0.000392459
2.90733e-05
1.04597e-07
1.03432e-05
-0.000248592
-0.00145739
-2.78585e-08
1.24229e-05
0.00121705
-2.13932e-05
-0.00118303
-0.000763562
-7.00949e-05
0.000677073
-0.000690392
0.00135921
0.000112119
-0.000705138
0.000368771
-0.00101925
2.92725e-05
0.000998387
0.00208847
-0.00126143
0.000373132
-0.000252447
-0.0014374
0.000220751
0.00110902
0.000117652
-0.000106454
-1.70351e-05
2.63294e-06
-0.00056392
0.00106363
-0.00132765
0.000114327
2.18406e-05
0.000226456
1.24247e-05
-0.000952724
0.000862295
8.03758e-05
0.00131153
-0.000232581
-0.000983329
-0.000847925
0.000708591
0.000120732
0.000117652
-9.14213e-05
0.00216132
-0.000232539
-0.00179294
-0.00275971
0.0003225
-7.6583e-05
-0.00144102
-0.000796403
6.70138e-06
0.000673644
-1.05006e-05
-0.000694348
0.00247406
-0.000116827
0.000114737
-0.000821948
-4.42523e-05
-0.000300367
-0.000185452
-0.00147418
0.00184926
-0.000600794
-0.000179023
-0.00355088
0.000211794
-0.000190462
-1.54517e-05
-0.0021469
-0.00281488
-0.000128608
-0.00199259
-0.000603216
0.000640827
2.01722e-05
3.52368e-07
-7.31998e-06
0.000356181
0.00193348
-0.00174894
-5.50094e-05
-0.000106137
0.00113373
-0.000798924
-0.000671051
0.00365885
-7.6275e-05
0.000284305
-0.000860196
0.000645646
-0.000343195
-0.00167794
0.00216349
-0.00250308
0.00106724
6.39555e-05
-0.000901623
0.000414008
-0.00326524
0.00380139
-0.00222003
0.000274531
0.00198883
-0.000461805
0.00014309
-0.000453663
-0.00330369
0.00323232
0.000200663
0.00258629
-0.000472202
-0.000765817
-0.000103795
-7.49569e-07
-0.000188092
0.000221953
0.00208365
-0.00102525
-0.000924261
-1.12656e-06
-6.08101e-08
1.97425e-06
-0.000218805
-0.000776054
-0.000121068
0.000967393
0.00032216
-0.0034631
0.00334665
0.00080125
-0.000494754
-4.46384e-05
-3.00567e-06
0.00375193
0.000248216
0.000742703
-0.000765857
-6.34958e-05
0.00160112
-0.0012204
-0.000234874
1.1967e-05
-0.000308096
-0.00126924
-1.68959e-05
-1.24295e-05
1.41522e-05
-3.25083e-06
8.32262e-05
-0.000702478
-7.57509e-05
0.000719866
-2.80739e-05
0.000280748
-6.38579e-05
0.00117554
-0.00015197
-5.39199e-05
-0.000580349
0.000145563
-0.0035813
0.003537
0.00101869
-0.00148911
0.001779
0.000465279
0.000130218
-0.000176835
9.997e-05
7.0593e-06
0.00243239
-0.00276943
0.000381596
-1.17474e-05
0.000554951
-9.69096e-05
-0.000517805
9.23732e-06
-7.07501e-05
-0.000663908
0.000551372
-0.000431981
0.00134106
0.000114781
0.000296557
-2.42157e-05
6.97316e-05
-0.00107784
-0.000213502
-0.00227231
3.48793e-06
-4.42301e-05
5.73758e-05
5.43312e-05
0.00248669
-0.000251072
1.94931e-05
0.000226588
0.000898567
0.00101591
-0.00230682
0.00228066
0.000191036
-0.000339861
0.00146244
-0.00197792
0.000643754
-0.00076002
-0.000620622
-1.72212e-05
0.000808563
0.00020119
-0.00140922
0.000581118
4.38632e-05
8.59581e-05
-0.000850255
-0.00281575
-0.000365517
-0.00336019
0.000576431
-0.00157298
0.000275313
-6.6393e-05
-0.00329581
0.00309243
-0.00358759
0.00383712
-0.00350546
0.00178554
7.09794e-05
1.93748e-05
-6.72599e-05
-0.00137673
0.00114161
0.000443749
6.07237e-06
0.000444338
-0.000704879
-5.60113e-06
-0.000567673
0.00222437
-0.00205661
-0.00013348
0.00132366
-0.00143842
-8.46182e-06
8.50837e-05
0.00265471
-0.000268765
-0.00227994
-0.000559607
-0.00212688
-0.000120971
-0.000106959
-0.000148775
-0.000216913
-1.52965e-05
8.26009e-06
8.66882e-05
9.08467e-06
0.000206331
0.0022929
-8.21787e-05
-0.00163248
3.4558e-05
0.00170858
-0.0008562
-7.95359e-06
0.000885542
-0.00150677
0.00145144
0.000159483
8.28303e-05
-0.001455
0.00146597
0.00026143
-0.000292724
-0.00024905
0.000269252
-0.000260268
9.97051e-05
0.00347426
-0.00352834
0.000939648
-0.000112274
-0.000895201
0.00193403
-0.000105939
-0.00178859
6.41278e-06
-0.000464765
0.000475624
0.000105726
-0.000325306
0.00132895
-0.0016738
-0.000143166
-0.00085291
-0.00101663
-0.00202581
-0.000185388
0.000270177
-0.00197542
-0.000120593
0.00209225
0.00289313
-0.000462694
0.00244204
-0.00258199
-0.000309617
-0.000489643
2.88983e-05
-0.00346698
0.00361156
-0.00239047
-0.000297668
0.00276352
0.000182605
-0.00232752
0.00204849
-0.000285966
-0.00212208
0.00250307
8.9531e-05
5.27144e-05
0.00044568
-0.000493467
0.000348743
0.00252505
-0.00266636
-0.00219632
0.000251974
-0.000357478
-0.00015974
-0.00121926
0.00117863
-0.00236223
0.00122687
4.69459e-05
0.00119251
-0.000178598
-0.0012283
0.0004114
-9.89952e-05
-0.000846529
-1.18568e-05
3.6301e-05
0.000347834
0.0010397
-0.00114017
-0.000792531
0.00313727
-0.00323495
3.21128e-06
-0.00111476
-0.000208962
-0.000970619
0.000335834
0.00136756
-9.15195e-05
-0.00116839
-0.00207086
3.37564e-05
0.00199479
-0.000120047
0.000153497
0.000926194
-0.000705702
0.00299113
-0.00136379
0.00134893
-9.93994e-05
0.000124248
-0.000148142
0.00135859
-0.00106959
0.00234121
-0.00216415
-0.000137716
-0.00073919
4.82489e-05
0.000748422
0.000137191
-0.000908847
0.000815967
-0.000175707
0.00175123
-0.00108018
-0.000119911
-1.21184e-05
-0.000561964
0.000132504
-0.000168945
0.000384958
-0.000323937
-3.25452e-05
-6.97902e-05
-0.0012571
0.00053373
-0.000343344
-0.000109767
-0.000828384
-0.00138744
0.00222783
-0.000381298
0.000912855
-0.000112505
0.000613787
-6.73236e-05
-0.000539572
0.000116608
0.00112387
0.00108828
-0.00107332
0.00256923
-9.08844e-05
0.000842715
0.000842526
-0.00072365
-2.47239e-05
0.00149489
-8.69773e-05
-0.0013322
-0.000719204
-7.71442e-05
0.000496913
-0.000489144
3.76984e-05
-0.000925919
0.000105896
-0.000575583
-3.79682e-05
-0.00172262
0.000308998
0.00159801
0.00154615
-0.00172295
0.000375517
-5.06733e-05
0.000604424
-0.000641985
0.00111312
-7.66028e-05
-0.0021281
0.000124479
-0.00136614
-0.00197635
6.73759e-05
-0.000586521
0.000512214
9.81425e-05
1.36445e-05
-0.000180497
0.00137003
8.96823e-05
-0.0008105
8.21159e-05
-0.000165609
-0.00112935
0.000871604
-0.000948717
1.25288e-05
0.00172536
0.000906863
-6.10742e-08
1.52558e-06
0.00142612
-2.41089e-05
-0.0014532
-0.00220221
0.000130511
0.00209948
0.000193742
-0.000185339
-0.00320997
-0.000420539
-2.26599e-06
0.000465774
-3.54839e-05
0.000912947
-0.00075182
0.000576328
0.000195482
0.000111905
0.000978525
0.000168838
0.000530349
-0.000506918
-0.00319758
-0.000229894
0.00124368
-0.000687323
7.1483e-05
-0.000273004
-0.00306314
-0.000587637
-0.00194971
-0.000183113
-0.000123953
0.00026686
-5.78577e-05
-0.000480861
0.00206636
-0.0018459
0.00218022
-0.000400494
0.000701078
0.00294737
-0.0026301
-0.000275831
-0.00119456
0.000768624
0.000235566
0.00316859
-5.24851e-05
-0.000677806
-8.389e-05
5.61048e-07
0.000148305
-0.000154203
-0.00183924
-0.000527758
0.00301973
0.000246622
-6.89034e-05
0.00107787
0.000147389
-0.00123045
0.00225406
0.000147376
-0.00104745
0.000988377
0.000935208
-8.24579e-05
-0.00057508
0.000309062
-0.00223588
-7.76144e-05
-0.000139799
-0.00203771
-0.000262325
-8.98207e-06
0.00043879
0.00160621
-0.00141939
-0.000103881
2.12844e-06
-3.22293e-05
0.000167871
-0.000108541
0.000168753
2.11261e-05
0.000292203
-0.00411442
-0.000157653
0.00125395
4.85945e-05
0.00207925
1.38047e-05
0.000941987
-0.000147453
-0.000678572
-0.00244791
-0.000971587
-5.05039e-05
7.40962e-06
0.000231252
2.64897e-06
0.00111502
-0.00117472
4.32587e-05
-0.000118096
-0.000176437
-0.000172844
-3.14784e-05
-6.27449e-07
2.08696e-05
-0.000343639
-0.00332011
0.00379227
0.00279847
-0.000115396
-0.0026282
-0.00183191
0.001632
-0.00142936
8.47387e-05
0.00147382
2.55097e-05
0.000478843
-0.000487511
-0.00167124
-0.000181522
-0.00213742
2.21058e-05
0.000495877
0.00145853
-3.99692e-05
-0.00147397
-0.000946438
0.000201287
-0.000167073
-3.77829e-05
8.8565e-06
7.5668e-05
1.38875e-05
-0.000530535
-0.000833558
9.91618e-05
0.000726243
0.000242344
0.000860299
8.96389e-05
-0.000107267
-0.000710113