/*--------------------------------*- C++ -*----------------------------------*\
| =========                 |                                                 |
| \\      /  F ield         | OpenFOAM: The Open Source CFD Toolbox           |
|  \\    /   O peration     | Version:  v2012                                 |
|   \\  /    A nd           | Website:  www.openfoam.com                      |
|    \\/     M anipulation  |                                                 |
\*---------------------------------------------------------------------------*/
FoamFile
{
    version     2.0;
    format      ascii;
    class       volScalarField;
    location    "950";
    object      omega;
}
// * * * * * * * * * * * * * * * * * * * * * * * * * * * * * * * * * * * * * //

dimensions      [0 0 -1 0 0 0 0];


internalField   nonuniform List<scalar> 
10042
(
0.0330742
0.910977
0.0748791
0.0211152
0.0210239
0.444766
0.155231
0.33015
0.0200831
0.047502
0.263642
0.903815
0.0339276
0.0207029
0.0215274
0.0206948
0.527221
0.224923
0.0233588
0.0242517
0.0337955
0.0302545
0.0211003
0.369526
0.0209602
0.0214728
0.0442749
0.0200183
0.470795
0.405443
0.0222609
0.0388357
0.0200608
0.0200567
0.325039
0.328469
0.0219222
0.020241
0.0216119
0.0204303
0.382845
0.0200788
0.471868
0.698957
0.0210413
0.0209549
0.0198398
0.0215053
0.0571613
2.57843
0.78816
0.0209676
0.506419
0.0231362
0.905476
0.935473
0.0324554
0.02773
0.0215016
0.0195515
0.0570564
0.269906
0.136187
0.342692
0.0375076
0.0211854
0.0236205
0.0686671
0.0198132
0.0576588
2.22508
0.0219098
0.0203737
0.0214827
0.0211486
2.01525
0.0386313
0.0198356
0.0419843
0.0234034
0.631821
0.372161
0.0234918
0.0208728
0.0331301
0.0881976
0.0232289
0.0598377
0.0208259
0.0313709
0.0275244
0.0215414
0.124041
0.0903866
0.0265217
0.0212161
2.66858
0.0237466
0.332415
0.0214736
0.0271099
0.065675
0.0214932
0.0335813
0.0243246
0.0213902
1.78934
0.0211119
0.143622
0.0214155
0.0214413
0.123929
0.0619954
0.334453
0.0348736
0.0198012
0.0317673
0.0221266
0.0334303
0.0197759
0.0195509
0.927635
0.92271
0.0210489
0.0335642
0.0208692
0.0208888
0.854422
0.214626
0.0301518
0.0202021
0.0210156
0.0210007
0.0210763
0.120502
1.57798
0.023542
1.80766
0.0222827
0.390146
0.0717893
0.020387
1.81373
0.0200239
0.0253959
0.0202426
0.0317807
0.0197991
0.021734
0.52706
0.0210628
0.0209233
0.0225747
0.038333
0.0288921
0.025663
0.16874
0.62613
0.0210159
0.0218327
0.022019
0.0206373
1.14258
0.0208445
0.0219973
0.44459
0.0203628
0.0350517
0.324352
0.0200288
0.06466
0.424145
0.945539
0.0200412
0.0231069
0.933342
0.021003
0.0202276
0.0209872
0.0198143
0.022202
0.0243907
0.021492
0.0197681
0.261389
0.0275663
0.0219663
0.0195938
2.54346
0.0211933
0.885398
0.0323823
0.0202168
0.0241716
0.895495
0.0215377
3.36574
0.178021
2.41094
0.0208878
1.50882
0.0865721
0.0351038
0.0202025
0.369755
0.020956
0.412402
0.0379411
0.0214201
0.0210968
0.0370932
0.0201126
0.211671
0.048783
0.022001
0.0545183
0.0201495
0.680086
0.0212886
1.1941
2.98214
0.0616671
2.81126
0.0511558
0.0211098
0.0878086
0.0215082
0.0232203
0.0374391
0.0215242
0.0202285
0.020919
0.027689
0.022714
0.0209971
0.327508
0.022805
2.5475
0.0246712
0.367366
0.243039
0.464203
0.0195409
0.0211407
1.17984
0.0210937
0.449366
0.0243073
0.0226532
0.0214161
0.0239815
0.0202195
0.505964
0.996629
0.021663
0.0226174
0.0215041
0.0216876
2.92978
0.0210849
0.0335197
0.0202956
0.0209547
0.0198532
0.0349979
1.08082
0.0319721
0.515091
0.0228985
0.0209282
0.0213358
2.47121
0.0206617
2.72271
0.0216204
0.0310659
0.0220333
0.021001
0.022975
0.954699
0.0200168
0.478561
3.42044
0.0219689
0.0232399
2.38049
0.0234792
0.0198852
0.0643918
0.0212046
0.0311716
0.0263785
0.0235331
0.502124
0.0374354
0.0206579
0.966164
0.0231377
0.0213462
0.0201968
0.0224723
0.0266757
0.0195939
0.329934
0.027744
0.288452
0.0207165
0.0213034
0.941879
0.497514
0.0224768
0.0210284
0.0212121
0.0206595
0.0262821
0.0812146
0.0198578
0.250662
0.366615
0.0197881
0.0218978
2.67453
0.030313
0.308142
0.259045
0.0223118
0.0263248
0.0209651
0.0228783
0.030079
0.0209456
0.021303
0.0333858
0.0211539
0.394992
0.0842014
1.88397
0.277969
0.0202333
0.384914
0.0709673
0.0343746
0.0195445
0.0241637
0.0224281
0.020213
0.0206219
0.0211709
0.0229536
2.40146
0.0217007
0.029753
0.0228579
0.0202356
0.549136
0.029008
0.0215289
0.0234192
3.06712
0.0224649
0.0213675
0.0220416
0.0219736
0.380933
0.362732
0.0220722
0.0209772
0.0222226
0.0223039
0.61975
0.019565
0.0237014
0.0206862
0.0213854
0.0776242
0.0208106
0.0332264
0.0499497
1.29398
0.075345
0.0213121
0.0914919
0.0370756
0.0209463
0.0462421
0.0197884
0.0213279
0.0197703
0.0210436
0.0198859
0.0216074
2.18244
0.0216852
0.0365014
0.361073
0.884068
0.0211721
0.326434
0.021975
0.0392798
0.0209809
2.50779
0.0205295
0.774232
3.15717
0.0202545
0.0657588
0.0205352
0.137048
0.0215482
0.570393
0.0267369
0.481089
0.0216477
0.352253
0.0216285
0.027417
0.684585
0.0198981
0.0215142
0.0209155
0.369965
0.0202142
0.0197532
0.0771454
0.0223671
0.036774
0.56574
0.0210693
0.0344607
0.0223385
0.0198339
0.0267944
0.327566
0.0204475
0.0218948
1.09684
0.0329659
0.0218569
1.45616
0.0200452
0.0257487
0.0289893
2.64891
2.34354
0.2934
0.35365
0.549888
0.337328
0.0197382
0.027625
0.912994
0.911279
0.0443663
0.0210995
0.0206418
0.0340041
2.07064
0.0197697
0.0197566
0.0225237
0.0211433
0.0206469
0.0207214
0.0210128
0.0235699
0.0658408
0.0219697
0.02571
0.0556866
0.382426
0.0200465
2.30437
1.16805
0.366705
0.0210162
0.0252849
0.0216937
0.814786
0.0213336
0.133005
0.021633
0.303581
0.0205126
0.024011
0.0197502
0.0263611
0.586902
0.0215975
0.0207692
0.0210567
0.739226
0.0202844
0.0439637
0.0483741
0.0653367
0.0201755
0.0492816
0.51148
0.29335
0.0213787
0.0224458
0.47748
0.767841
0.0405127
0.421284
0.0213427
0.199759
0.0300893
0.0277676
0.0234526
0.428059
0.0201606
0.0210837
0.0214653
0.511616
0.0210622
0.113786
0.0211447
0.0213668
0.0200804
0.027092
0.440553
0.021502
0.0218683
0.501387
0.146319
0.0347012
0.0214863
0.0210729
0.218126
0.310343
0.0213312
0.0199377
0.0397622
0.0212284
0.021262
0.540511
0.0202007
1.12683
0.0209633
0.0403264
0.0218319
2.65188
0.0210735
0.0258879
0.0213927
0.020339
0.481118
0.0195381
0.449343
0.0405097
0.0200971
0.0230695
1.97213
0.462534
0.02674
0.0211124
0.0199331
0.019788
0.02016
0.0240178
0.0214341
0.855919
0.021215
0.0199004
0.325744
0.0243626
0.0246935
0.0221977
0.0207635
0.277584
0.381923
0.021613
0.439091
0.0213392
0.0265941
0.0200048
0.0200971
0.021074
0.0210281
0.021365
0.0212085
2.4214
0.0215865
0.0651851
0.0209704
0.0211336
0.0198682
0.0396995
0.535297
0.0201104
0.0209918
0.248773
0.061691
0.0198876
1.26263
0.0209963
0.0330717
0.0202558
0.0219879
0.0203269
3.12912
0.0198756
0.0207994
0.0208545
1.23984
0.021801
0.0210595
0.0212027
0.35946
0.0211669
0.0210523
0.0203352
0.0210613
0.0237338
0.021015
0.0209833
0.0200141
3.10722
0.697139
0.585367
0.0215349
0.0237138
0.0212463
0.583518
0.0219612
0.366635
0.458898
0.527462
0.0322065
0.435433
0.0213411
0.0213133
0.512681
0.249328
0.0249886
0.0694152
0.0215052
0.398762
0.0207862
0.0213797
0.0200504
0.0202757
0.021994
0.513488
0.0219501
0.0214004
2.35234
0.0211744
0.463802
0.0201864
0.0219166
0.0237232
0.0212076
0.37966
0.0209505
0.0210042
0.0639048
0.0213781
0.01973
0.0223816
0.020818
0.0207654
0.541444
0.739038
0.769373
0.0214922
0.0208107
0.0208242
0.396457
0.0220288
0.0211229
0.0203157
0.020616
0.42333
2.51479
0.0263263
0.0215739
0.0232267
3.35637
0.0263819
0.0238804
0.0356497
0.2922
0.462051
0.408277
0.0207743
0.0211476
0.020975
0.345875
0.0207628
0.0243269
0.0210032
0.0195445
0.0232462
0.0212322
2.9604
3.2649
0.0198677
0.0210274
0.0197383
0.285705
0.020263
0.565772
0.0219363
2.56018
0.0208111
0.020593
0.0201151
0.021071
0.0212882
0.0196138
0.021344
0.0216552
0.0403205
0.0236882
0.574412
0.0213552
0.107114
0.297558
0.022297
0.445225
0.0209348
0.0208483
0.0207092
0.0212724
0.450424
0.0210017
0.0214818
0.020087
1.04145
0.0205595
0.350435
0.0370061
0.0208233
0.0692283
0.339967
0.0201193
0.0203872
0.0672843
0.0237095
0.190138
0.0304451
0.0418708
0.0321107
0.0214747
0.0213978
0.0211791
0.0269229
0.0213678
0.206787
0.11372
0.0195416
0.0202351
0.0218468
0.0289074
0.0237303
0.553204
0.0215771
0.0213482
0.417725
0.0208133
0.0633364
0.0288421
0.0233548
0.351471
0.0212738
0.0208054
0.0213212
0.034485
0.0207512
0.673709
0.0216188
0.0339982
0.0245593
0.914156
0.0212293
0.0266857
0.0215126
0.0216977
0.0354986
0.020039
0.0315722
0.020811
0.0216305
0.0206348
0.0212723
0.0224181
0.0416949
0.0220347
0.0214929
0.293502
0.0200511
0.0208236
0.0209846
0.0197529
0.0273696
0.0207962
0.0218804
0.0221236
0.291901
0.0212755
0.02717
0.0676591
0.0206008
0.0208913
0.0197364
0.43624
0.304533
0.0240151
0.0208288
0.0433744
0.194348
2.20831
0.0214719
0.469467
0.204725
0.585295
0.0213106
0.0196395
0.0203513
0.499615
0.166624
0.0216026
2.27066
0.0697381
0.3472
0.455197
0.0209005
0.0316347
0.321541
0.0422211
1.15522
0.0268909
2.35311
0.0217864
0.391964
0.0213643
0.0223075
0.0221689
0.0270134
0.0196118
0.0214052
0.0210139
1.24822
0.0209491
0.019551
0.309312
0.0213252
0.0265168
0.0215881
0.17186
0.020751
0.0219518
0.0213207
0.021001
0.0211727
0.0250104
0.0207732
1.11551
0.0603339
0.0563924
0.0209685
0.798168
0.0207311
0.0628173
0.278326
0.0236565
0.0211875
0.0198012
0.0209889
0.0219887
0.672823
0.0383419
0.0208304
0.935043
0.020741
0.0214291
0.383144
0.019771
0.0215265
0.950633
0.0208576
0.800947
0.0222921
0.0523236
0.0266376
0.0358957
0.0235636
0.0212238
3.51028
3.55533
0.0209787
0.0296058
2.92097
1.54779
0.113096
0.0219187
0.0204644
0.0219932
0.0213833
0.0209254
0.400794
0.0236995
0.0197842
0.0326264
0.368733
0.303116
0.0198021
0.019739
0.0215444
0.0215296
0.509762
0.552986
0.0201498
0.0246947
0.162841
0.0212075
0.0224369
2.13674
0.0223138
0.353711
0.0205985
0.0211853
0.0214908
0.0206909
0.168456
0.0382851
0.0211245
0.411024
0.870785
0.880812
0.0236561
0.02217
2.19184
0.0355987
0.459791
0.0299849
0.0213005
0.0209449
0.893575
0.326225
0.0215219
0.0243859
0.0391888
0.0208497
0.0456513
0.0215391
0.02086
0.0216892
0.0338529
0.0207902
0.0210135
2.77299
0.020641
0.020451
0.036631
0.0252553
0.39662
0.0221791
0.0214672
0.866745
0.0428247
0.0224424
0.0334199
0.408124
0.0209204
0.0200723
0.0251671
0.365357
0.0207987
0.0212158
0.0209306
0.0199957
0.0206295
0.937629
0.0212159
0.51893
0.0213649
0.0329832
0.020079
0.0216059
0.0288489
0.470842
0.125948
0.0212006
0.0221049
0.25512
0.0677113
0.0224709
0.0219106
0.410677
0.0209339
0.0223118
0.0371596
0.0202869
0.0225756
0.020985
0.0357069
1.89835
0.519644
0.0202411
0.0217648
0.0256879
0.0292557
0.0206112
0.0204023
0.0413378
0.0196258
0.0205723
0.382369
0.0212103
1.2806
0.0201746
0.0204202
0.0200392
0.0299105
0.0213383
0.0206304
0.618876
0.0205865
0.0213623
1.16823
0.0209046
0.0332494
0.0224882
0.819428
0.38313
0.0222807
0.394472
0.0243846
0.0213448
3.11344
0.0218491
0.020828
0.0198291
0.0209433
0.0237151
0.890736
0.0337242
0.349721
0.460236
0.309351
0.0673661
0.373133
0.0234006
0.362196
0.0200175
0.0270436
0.0214752
0.0214651
0.0216349
1.22001
0.352658
0.0211935
0.571745
0.0204269
0.104913
0.0211047
0.023132
0.0214489
0.0276238
0.571192
0.0211243
0.0199009
2.46388
0.0922775
0.0231096
0.0220656
0.550017
0.0213056
0.366607
0.397845
0.0207508
0.0205464
0.0208262
0.0242166
0.0207137
0.0219197
0.0219742
0.0203779
0.0213335
0.0214197
0.0203062
0.366979
0.379696
0.0198768
0.120789
0.022556
0.0396267
0.0397171
0.187518
0.0207393
0.045678
0.0435344
0.0201004
0.0436956
0.541693
0.0215676
0.0205595
0.0217846
0.371529
0.45208
0.0201348
0.447343
0.0213516
0.0214528
2.34111
0.0206138
0.0202142
0.0204365
0.0202661
0.0209347
0.275989
0.0238287
0.02048
0.0213112
0.020507
0.0210613
0.342621
0.0198682
0.0276604
0.534439
0.470186
0.0205599
0.486952
0.0202993
0.231528
0.0216431
0.0428904
0.0200133
0.582478
2.3507
2.01176
0.0213388
0.0270351
0.310856
0.39392
0.0213168
0.310225
0.0208312
0.41581
0.363826
0.0244198
2.90757
0.334615
0.395411
2.35551
0.114738
0.353431
0.020525
0.0220311
0.309615
0.0736963
0.0212963
0.351316
0.0218943
0.0207506
0.0202329
0.0240779
0.0738748
0.0295028
0.647897
0.0281697
0.404853
0.0220671
0.0209707
0.0205897
0.40179
0.333646
0.0277872
0.341668
0.0215315
0.0217113
0.0316754
0.409664
0.0401376
0.0207342
0.693735
0.94168
0.0217009
0.0403809
0.0200989
0.032581
0.0289728
0.0205853
0.372072
0.260835
0.0212412
0.0220131
0.0208999
0.435456
0.0222805
2.06018
0.245779
0.0209083
0.0205366
0.0199797
0.0332436
0.0203191
0.0227314
0.0220444
0.023795
0.382712
0.0217192
0.0270484
0.34737
0.0217415
0.0308708
0.0219821
0.0213516
2.0538
0.352201
0.0215816
2.951
0.0210254
0.32686
0.0206583
0.0202807
0.0255302
0.0224713
0.0359386
0.364961
0.0214357
0.0220583
0.147649
0.0291451
0.0230994
0.354392
0.136162
0.312675
0.0209083
0.0198454
0.135821
0.0203768
1.01673
0.301731
0.0560711
0.310871
0.0215971
0.0202691
1.69196
0.306658
0.0208165
2.31383
0.0235829
0.0210164
0.0717609
0.0220303
0.0213362
0.0429796
0.0233707
0.0202177
0.0229238
0.020979
0.022377
0.398513
0.029957
0.420874
0.0212501
0.0264596
0.0208322
0.0212496
0.323647
0.0214444
0.379068
0.307807
0.0218628
0.387831
0.0321052
0.291915
0.0197533
0.371344
0.0938307
0.0949723
0.022884
0.0217345
0.0206257
0.222533
0.0230173
0.37992
0.033737
0.0202378
0.299429
0.0197159
2.49378
0.0209759
0.666598
0.0209411
0.0204969
0.0200853
0.370916
0.0207856
0.0201068
0.0200272
0.0208109
0.0213426
0.0406575
0.320098
0.0200673
0.0251805
0.0215582
0.0209594
0.0206967
0.351071
2.37981
0.0247079
0.021248
0.0207048
0.0200413
0.0237775
0.0243807
0.0200616
0.422796
0.770939
0.338597
0.0200322
0.0208039
0.0213098
0.0227095
0.0205373
0.0217911
0.0213145
0.020721
0.0257052
0.021798
0.022711
1.30192
3.26291
0.0203397
0.0209493
0.0208289
2.36939
0.0207546
0.0279263
0.0238208
0.0203975
0.021213
0.021027
0.929442
0.0211696
0.357319
0.294423
0.0488777
0.0212375
0.0247674
0.309203
0.0233146
0.0354166
0.0224994
0.0352754
0.0203481
0.0251261
0.151088
0.326788
0.020535
0.0214315
0.843628
0.0240263
0.0455198
0.0238191
0.291984
0.0212229
0.0247949
0.227406
0.33389
0.0607995
0.0201137
0.0207624
0.0202387
0.0215078
0.113418
0.271334
0.204503
0.0205338
2.44237
0.0224831
0.544229
0.406864
0.0209874
1.33213
0.215534
0.0206311
0.0493873
0.0314899
0.0213869
0.413923
0.0207987
2.50572
0.0211734
1.74709
1.56126
0.0432854
0.0212295
0.0249922
0.0217612
0.0208192
0.020171
0.020061
0.232026
0.0217922
0.0353449
0.388554
3.42983
0.0350463
0.0222656
0.0202073
2.07524
0.0197045
0.408077
2.92799
3.31003
2.37861
0.304124
0.386401
0.0200229
0.0213467
0.020098
0.0628349
0.02197
0.925087
0.0240331
2.58661
0.0259508
0.0201271
0.0200096
0.0214608
0.0200274
0.299138
0.733541
2.52315
0.0205499
0.0237647
0.0232932
0.0219582
0.0884046
0.0214049
0.271047
0.431975
0.0217009
0.0204034
0.404023
0.0259181
0.0451765
0.485886
0.0214537
0.294735
0.022122
2.59097
0.0209412
0.0417399
0.0208148
0.164045
0.0272569
1.31797
0.353766
2.32068
0.108669
0.0456566
0.0202907
0.0204345
0.447093
0.319395
0.093081
0.0261866
3.30866
0.311715
0.377399
0.0376632
0.899599
0.0232782
0.0329432
0.409177
0.0214706
0.0229467
0.0236012
0.0197482
0.0204111
0.020896
0.0211236
2.42225
0.021846
0.32035
0.0877722
0.249402
0.307058
0.4235
0.0199811
0.0216726
0.403247
0.0355455
0.0262055
0.425114
2.04339
0.432335
0.0207535
0.0312506
0.0233482
0.0813517
0.053872
0.377022
0.328489
0.0527405
0.0213294
0.0220576
0.12161
0.0279915
0.0474462
0.394292
0.0209436
0.0238485
0.0225619
0.9421
0.0228872
0.0202758
0.0208791
0.0224332
1.08661
0.298116
0.0216159
0.067727
0.374468
0.0216749
0.226471
0.0238457
0.0301955
0.0237911
0.0315756
0.60823
0.0210748
0.0205731
0.0216095
0.109812
0.0886132
0.0330736
0.0219307
0.0224589
0.0215724
0.979316
0.0331363
0.0228696
0.0215357
0.085332
0.0225018
0.346157
0.0222391
0.028863
0.0209553
1.14295
0.0929091
0.0486636
2.15873
0.0201837
0.0236139
0.272106
0.0224835
0.290804
1.22792
0.0214975
0.0224375
2.36974
0.0212937
1.1365
0.0214869
1.32088
0.375598
0.246867
0.0226084
0.0209566
0.0211318
0.0212339
0.0238704
0.0197887
0.0214084
0.0209434
0.020617
0.0229817
0.0220096
0.0210826
0.0219348
2.45062
0.0214644
2.01805
0.0218039
0.021467
0.665907
0.0210633
1.79878
0.391033
0.0213005
0.0218147
0.0375515
0.279804
0.0236538
2.31667
0.0281103
0.0215885
0.983894
0.0205176
2.91342
0.0214622
0.0294606
0.0198148
1.31969
2.18766
0.404648
0.0216658
0.0229097
0.0207519
0.022869
0.370343
0.0207687
0.0213033
0.0423224
0.0237792
0.81331
0.2924
0.021839
0.0372532
0.0214149
0.0262381
0.0220891
0.0213206
0.0218534
2.45223
2.05895
0.0349349
0.0227151
0.0218193
0.0223059
0.0814575
1.79937
0.0520447
0.8195
0.283281
0.0224444
0.0231116
0.0888635
0.0207391
0.0230323
0.0223784
0.0223155
0.305501
0.0224289
0.427246
0.0200716
0.021724
0.0869203
0.0225695
0.0231794
0.0222997
0.0253252
0.394688
0.021636
0.0204524
0.0213729
2.41514
0.361119
0.0235761
0.0214647
0.0206763
0.0217308
0.0210837
0.0470239
0.0208864
0.0201692
0.021462
0.0223976
0.0289765
0.0213603
2.18864
0.0217613
0.021844
0.207601
0.0227684
0.0235449
0.0280675
0.0216439
0.941421
0.0207417
0.0206827
0.0218699
0.0225727
0.0203985
0.292532
0.0218418
0.0209694
0.676998
0.336055
1.37023
0.315358
0.418661
0.0247542
0.0205091
0.0225422
0.300319
0.0272227
0.542306
0.021979
0.0309473
0.024305
0.0402953
0.0206569
2.53412
0.250058
0.0209351
0.0245422
0.0215737
0.0220018
0.181701
0.0423729
0.0214433
0.0207088
0.0200131
0.372688
0.0215876
0.323335
0.034303
0.0215498
0.0209248
0.0209703
1.97577
0.0590325
0.020859
0.673315
0.295484
0.021751
0.342597
0.0215128
0.0205121
0.020657
0.0214014
0.0199618
0.0211362
0.0215184
0.0221992
0.0214506
0.0787066
0.0224901
0.49331
0.0301614
0.0212121
0.138805
0.0199876
0.0201115
0.0515223
0.0209138
0.468912
0.0210228
0.0811576
3.56333
0.0206042
0.229314
0.288332
0.0213655
0.021714
0.0211103
0.203928
0.0214777
0.41209
0.422069
0.0215737
0.0265306
0.0400529
0.216367
0.0210114
0.211354
0.021559
0.161677
0.158258
0.0361634
0.415947
0.0205693
0.0967367
0.411814
0.174074
0.0214296
0.0525649
0.0223704
0.046881
0.0203838
0.0224913
1.33762
0.0259233
0.186795
0.216616
0.0237325
0.310413
0.0205238
0.028877
0.0214738
0.0253284
0.552297
0.363859
2.76488
0.0342322
0.024795
1.18686
0.0238254
0.0209594
0.0202144
0.0216738
0.0218243
0.0244325
0.0210176
1.10529
0.0255161
0.020774
0.0199387
0.0212936
0.0212475
0.100814
0.0205687
2.54574
0.0218662
1.17368
0.0210427
0.0213816
0.019647
0.0707362
0.0209421
2.88152
1.33938
0.291658
0.0241176
0.0218804
0.0213889
0.0209086
0.0207316
0.418195
0.0216073
0.0216695
0.695691
0.0213326
0.0220133
2.71442
0.169638
1.06435
0.0203247
1.27913
0.538317
0.0209923
0.0205489
0.0271611
1.18321
0.785021
0.423531
0.163575
0.0211991
0.020682
0.159955
0.0259017
0.0215975
0.0249407
0.0215355
0.0227316
0.384947
0.514915
0.0242355
0.025729
0.0229152
0.0274559
0.868527
0.0214435
0.0208933
0.0213844
0.151295
0.0208589
0.0240483
0.897558
2.74669
0.020409
0.0207502
0.0196538
0.0214202
0.0210076
0.0307014
0.0604936
0.0220073
0.423855
0.383882
0.228891
0.02381
0.021718
0.0213337
0.0211681
0.0206962
0.0199004
0.0213731
0.658825
0.802995
0.0201755
0.0205304
0.0215165
0.0213935
0.59864
0.0317543
0.900474
0.40829
0.0992385
0.0674319
0.0212768
0.0210138
0.021205
0.0213877
1.27534
0.0211836
0.0237224
0.124919
0.898558
0.35239
0.110953
1.14914
0.425355
0.0213219
0.0286201
1.16115
0.779316
0.0213019
0.0209895
0.0201239
0.0213038
0.0213367
0.614374
0.020978
0.0209183
0.625127
0.0234656
1.14786
0.0212298
0.0206062
0.0292921
0.135227
0.0278016
0.432163
0.0223418
1.00414
0.0360695
0.0209489
0.765062
0.0210548
0.0232151
0.0214417
0.0204917
3.15179
1.14835
2.40995
0.107204
0.402222
0.246137
0.60974
0.0207465
0.0214536
0.182676
0.0213062
0.0215045
0.0228257
0.0212721
1.192
0.0214676
0.817957
0.132143
0.0200127
0.941188
0.0212126
0.0211282
0.0236109
0.0235014
0.023672
0.0238825
0.0238597
0.425786
0.0214024
0.0212418
0.0200176
0.0378715
0.204096
0.0208903
0.0215609
0.0393933
1.1734
0.0210056
0.0238443
0.0238194
0.0200545
0.0212433
0.020935
1.16671
2.08699
0.0237652
0.0221933
0.0213695
0.026953
0.612113
0.0213562
0.68384
0.962947
0.0214608
0.0274512
1.35902
1.34064
0.0349799
0.020125
0.0206307
0.938409
0.0374967
1.24564
0.0251876
0.92933
0.0287964
0.891069
0.402045
2.66365
0.157245
0.884826
0.350091
1.09641
0.0217307
0.356193
0.020898
0.974289
0.0224171
0.0218949
0.023677
0.921768
0.28407
0.0220101
0.0213159
0.449669
1.15058
0.757922
0.0207306
0.0207736
0.0212198
0.0239645
0.0211901
0.0362091
0.905541
0.305015
0.0236792
0.0205134
0.101982
0.0215216
0.0213076
0.152591
0.0211563
0.0232677
0.0199213
0.496933
0.060556
0.344154
0.021026
0.443717
0.5469
0.0310992
0.395072
1.94903
0.440014
0.825527
0.0210002
0.0213795
0.0809136
0.0213463
0.0213729
0.0209882
0.0215414
0.0260347
0.0235149
0.020979
0.293665
0.0203834
0.218709
0.0216491
0.689359
1.0175
0.0244964
2.41207
0.868779
0.0287869
0.502846
1.828
0.0216229
0.0214816
0.0265023
0.0256296
0.9073
0.0209636
0.0213349
0.924676
0.0213281
0.020694
0.0214883
0.0198416
0.296413
0.021423
0.0315052
0.0214819
1.81363
0.0212231
1.23339
0.257436
0.412175
0.925116
0.0200294
0.0236196
0.0214749
0.0212023
1.24119
0.242644
0.0805867
0.281003
0.0198674
0.0219681
0.0232519
0.0213446
0.301176
0.0208952
0.0288905
1.31017
0.310416
0.0496773
0.0212217
0.0214781
0.897704
0.0243202
0.0614544
0.508753
1.02134
1.1359
0.0216515
0.0207438
0.020884
0.0214467
0.231416
0.0220458
0.101922
0.0213943
0.0214198
0.204932
0.0198833
0.0972577
0.0237386
0.0213722
0.0236911
0.964014
0.0206916
0.0214875
0.754353
0.0213135
0.0213526
0.0398986
2.47219
0.0238702
0.02556
0.0204038
1.11185
0.403901
0.0667349
0.0212742
0.0206918
0.0262313
0.02133
0.192452
0.759531
0.418669
0.938811
0.0212038
0.038393
0.020944
0.0754335
0.0213121
0.568444
0.282919
0.0212759
0.926783
0.0212932
1.92211
0.035904
0.0203865
0.0298473
0.0207227
0.0208999
0.0205065
0.0198525
0.0211968
0.941861
0.0212865
0.0205738
0.094103
0.0200847
0.0215007
0.0219932
0.0211497
0.0213163
0.667897
0.0291952
0.019865
0.0223307
0.0221532
0.0212511
0.942275
0.902419
0.0212791
0.0208998
0.0212912
0.0910849
0.0214192
0.0216505
0.022086
0.057082
0.0198717
0.0221236
0.283035
0.0213017
0.415642
0.021235
0.0213713
0.0209995
0.021131
0.0205814
0.0212276
1.00932
0.293839
0.0205915
0.0211912
0.0220812
0.287255
0.0253083
0.0473772
0.02118
0.0218024
0.035559
0.0219103
0.323424
0.0242593
0.0210422
0.0205334
2.64386
0.0218268
0.809357
0.0930735
0.0210364
0.698731
0.958269
0.297216
0.153738
0.0846516
0.0251795
0.0209706
2.84899
0.0212893
0.022604
0.0302008
0.0199378
0.0213144
1.93657
0.0207263
0.508303
1.16043
0.0217971
0.021274
0.464072
0.0212321
0.067622
0.0203729
0.299327
0.147402
0.30962
0.021249
0.0208171
0.0219026
0.852742
0.46823
0.273087
0.716915
0.0241594
0.0212318
0.111421
2.34145
0.0213862
0.0198661
0.0236369
0.0210145
2.00064
0.0918858
0.0203362
0.254428
0.0208054
0.0207073
0.020363
0.021174
0.0213274
0.223585
0.0211052
0.621384
0.0206433
0.021763
0.0214973
0.0214397
0.0211434
0.0212067
0.0269529
0.0205787
0.217422
0.407367
0.0471687
0.0238583
0.0574689
0.0273509
0.021052
0.0200677
0.0212602
0.0201186
2.22397
0.133352
0.0220902
0.0223418
0.803739
0.0218065
0.302636
0.021187
0.0210146
0.0213157
0.042705
0.0772252
1.09426
0.784099
0.0237968
0.0457573
0.0463272
0.0211399
0.0210562
0.0207173
0.0286491
0.0298275
2.10702
1.73947
0.0311727
0.0208935
0.0289754
0.0211608
0.0409651
0.0208737
0.140304
0.0219467
0.265796
0.0318265
0.021787
0.0238329
0.0455882
0.0260189
0.914428
0.0210293
0.0206702
0.0212721
0.021187
0.364871
0.0204794
0.0214387
0.024991
0.0198588
0.942058
0.737488
0.0338787
0.0211985
0.0213428
0.507578
0.0469758
0.0210346
0.0212754
0.254539
0.0212936
0.0212454
0.137956
0.0238113
0.389687
0.287337
0.320244
0.0326916
0.0209128
0.0212131
0.0277943
0.0210298
0.020892
0.556902
0.829665
0.0201918
0.0209745
0.0209085
0.0220375
3.23213
0.0209727
0.0220768
0.0213116
0.0203741
0.0209504
0.0465807
0.0216975
0.0208744
0.0198727
0.0217525
0.020691
0.0278191
0.306115
0.0265443
0.0206199
0.021026
0.0211871
0.0209418
0.419978
0.0213821
0.296716
0.454372
0.0210436
0.0206012
0.44604
0.0206734
0.0207166
0.0209214
0.201032
0.023562
0.021317
0.0209178
0.0198511
0.0212817
0.293108
0.0209914
0.0214596
0.0376036
0.399323
0.0317022
0.0199351
0.312453
0.0195494
0.491502
0.0209283
0.0199595
0.020614
0.0215237
0.0210956
0.726599
0.0870448
0.280579
0.0572813
0.0250475
1.97833
0.0212794
0.521676
0.2427
0.0214366
0.402238
0.051187
0.155901
0.0211975
0.628728
0.0215168
0.0206232
0.020277
0.126244
0.401327
0.0243205
0.425945
3.26851
0.0390621
0.0213137
0.0231768
0.0410158
0.210326
0.383114
0.0230949
0.0214456
0.0355372
0.387818
0.0208075
0.89147
0.0220239
0.0467604
0.0205659
0.0204158
0.0269383
0.0261983
1.97127
0.952403
0.147477
0.0209137
0.0209468
0.279986
0.322684
1.07564
0.0208074
0.0218185
0.0206963
0.0209766
0.0210108
0.386552
0.0293394
0.146809
0.0896231
0.462357
0.258269
0.0208611
0.0214481
0.0203463
0.0205045
0.0256675
0.0210413
0.0211987
0.0212096
0.0208911
0.0245841
0.385319
0.0293593
0.0207406
0.0209471
0.814746
0.0262371
0.0231514
0.024899
0.367163
0.180544
0.0208985
0.0260468
0.371056
0.020784
0.469671
0.0209087
0.0208569
0.0207527
0.582134
0.0209072
0.0207106
0.0212341
0.0214221
0.0208124
0.0207189
0.335874
0.9479
0.464654
0.0215434
0.020781
0.378969
0.0211918
0.0204886
0.0207652
0.434981
0.0213112
0.821933
0.0200741
0.0206941
0.0385291
0.0387475
0.0207277
0.0415994
0.904583
0.398613
0.0208276
0.0197277
0.020792
0.383078
0.0212823
0.023856
0.860014
0.0209514
0.0203964
0.0216221
0.0206775
1.12728
0.0208779
0.0212815
0.020933
0.0248981
0.301283
0.0212643
0.0206748
0.0214443
0.209014
0.081689
0.261525
0.0227272
0.45717
0.0203799
0.0208975
0.651163
0.939148
0.021261
0.0209043
0.513356
0.0324402
0.0208742
0.0207499
0.0207449
0.0208992
0.0209122
0.311695
0.0212825
0.0236638
0.32788
0.358722
0.0210492
0.0246714
0.025293
0.333741
0.0233376
0.024486
0.0212739
0.151774
0.0211865
0.0288422
0.329166
0.0205333
0.0890016
0.290636
0.0209245
0.0216585
0.492099
0.342512
0.0220049
0.0207178
0.0204735
0.566124
0.0208621
0.0207262
0.0241066
0.023617
0.0209428
0.352555
0.430369
0.0206044
0.0225361
0.0216015
0.0207318
0.0203521
0.0209096
0.0203256
1.35695
0.0219209
0.0219773
0.0207091
0.0199245
0.0207008
0.020837
0.0209013
0.0252976
0.0223875
0.5009
0.0209114
0.0208723
0.0253052
0.0207454
0.019944
0.0217563
0.395701
0.0207943
0.4055
0.0235042
0.469696
0.0201135
0.49846
0.422753
0.349491
0.0200514
0.0209253
0.418234
0.0209138
0.308454
0.0210491
0.0236321
0.0218509
0.0209557
0.27005
0.470163
0.265937
0.282672
0.0233947
0.0207109
0.0208072
0.887963
0.328122
0.0208649
0.0214176
0.0199863
0.0214502
0.020429
0.343394
0.0206594
0.0202334
0.0214505
0.0213144
0.043605
0.0270776
0.021742
0.020708
0.0205047
0.849283
0.0235618
0.019665
0.880943
0.0289012
0.0235418
0.0234093
0.0261892
0.0203538
0.0203366
0.312511
0.310101
0.0977043
0.0209308
0.0205688
0.492151
0.302274
0.0229163
0.0207002
0.0230038
0.0206035
0.0217263
0.0208865
0.022446
0.0198462
0.0206492
0.0204063
0.0207166
0.020603
0.0218116
0.0206244
0.0744963
0.519125
0.0205878
0.0207655
0.0198877
0.0209235
0.0213738
0.0208815
0.401805
0.58825
0.0208325
0.0216868
0.368884
0.0211237
0.0864585
0.344773
0.307815
0.0205701
0.248435
0.0250268
0.145707
0.0232144
0.0206795
0.451346
0.425278
0.326696
0.0218154
0.0203503
0.295659
0.310796
0.0205891
0.0206748
0.0207024
0.0225218
0.0234084
0.0214469
0.0206943
0.0205437
0.576072
0.0639336
0.0305804
0.0203263
3.09377
0.21696
0.0204849
0.183772
0.0209929
0.0207257
0.0207952
0.111085
0.0207953
0.0354158
0.0207159
0.0206617
0.0207195
0.0204675
0.0209944
0.0241977
0.019885
0.020591
0.0296155
0.0205393
0.0214042
0.0205387
0.0202066
0.184526
0.186527
0.0207844
0.376633
0.0208743
0.0205878
0.0276447
0.0221328
0.210865
0.0198972
0.0205235
0.021395
0.0205784
0.0242566
0.0204853
0.020764
0.0274118
0.019629
0.0210202
0.0209246
0.0206578
0.0226764
0.0210273
0.0513854
0.334822
0.166862
0.977688
0.0198337
0.020511
0.05853
0.020733
0.482272
0.0199064
0.454495
0.463516
0.0200726
0.0205047
0.0211675
0.460909
0.0208197
0.0208725
0.313608
0.0241309
0.434569
0.0211656
0.153827
0.0196434
0.357735
0.512671
0.374118
0.346461
0.241995
0.302041
0.0205435
0.0207336
0.0258519
0.288124
0.0211771
0.0206874
0.0205976
0.398231
0.0200032
0.0200904
0.342552
0.0205111
0.304035
0.0207374
0.414373
0.0793393
0.0225215
0.0212161
0.0207792
0.0208418
0.0288522
0.153847
0.31872
0.0318037
0.373022
0.400322
0.0210684
0.0226393
0.450836
0.0214544
0.020554
0.368706
0.287535
0.508583
0.382443
0.406575
0.0262658
0.0208912
0.0209588
0.250303
0.258749
0.419514
0.500201
0.0196779
0.0212473
0.0215632
0.176371
0.389343
0.020606
0.0226265
0.541488
0.0213401
0.0220426
2.02689
0.443072
0.076981
0.021763
0.0207603
0.290279
0.0208942
0.0196523
0.369658
0.0213065
0.0201919
0.418624
0.0201381
0.0205207
0.373615
0.800272
0.305016
0.0202209
0.39494
0.0204522
0.441602
0.394067
0.104752
0.0209252
0.414457
0.023482
0.393719
0.0200648
0.0203065
0.259876
0.167132
0.345958
0.0206223
0.0206678
0.0203533
0.020583
0.0314511
0.0207519
0.225785
0.0219592
0.418364
0.0201658
0.38778
0.0210799
0.0203716
0.0206198
0.38925
0.389207
0.0196297
0.0198149
0.0203929
0.0201505
0.089817
0.0205217
0.177467
0.0231794
0.036205
0.39993
0.449156
0.915257
0.41132
0.0298142
0.0292202
2.53527
0.258669
0.193346
0.116797
0.386447
0.0205195
0.0298355
0.437157
0.0204767
0.48406
0.449763
0.602771
0.341648
0.0204718
0.430287
0.108697
0.53982
0.0212887
0.0205848
0.276326
0.057977
0.412142
0.0207422
0.342977
0.0209293
0.411533
0.508066
0.444772
0.0207252
0.0221152
0.441228
0.352172
0.0203846
0.941998
0.127303
0.432934
0.0209886
0.170799
0.0204551
0.457942
0.343838
0.418953
0.136201
0.406486
0.0229608
0.155815
0.0223752
0.0713177
0.021293
0.120025
0.0212515
0.0205679
0.026569
2.59087
0.0213134
0.400266
0.42921
0.101596
0.130389
0.294939
0.0201371
0.171006
0.0242428
0.397707
0.0206372
0.0212721
0.0214135
0.372772
0.0203839
0.375293
0.364978
0.025522
0.0215957
0.0219843
0.0197516
0.0660498
0.423137
0.0199777
0.0604861
0.91222
0.457738
0.360836
0.0205552
0.0206012
0.0205559
0.023086
0.0211925
0.0205528
0.0326091
0.022386
0.0212995
0.0197793
0.0205359
0.0221277
0.311316
0.0212599
0.332757
0.0206064
0.0205897
0.0222401
0.02341
0.0214164
0.0207096
0.0204621
0.0745145
0.342335
0.0205834
0.435242