/*--------------------------------*- C++ -*----------------------------------*\
| =========                 |                                                 |
| \\      /  F ield         | OpenFOAM: The Open Source CFD Toolbox           |
|  \\    /   O peration     | Version:  v2012                                 |
|   \\  /    A nd           | Website:  www.openfoam.com                      |
|    \\/     M anipulation  |                                                 |
\*---------------------------------------------------------------------------*/
FoamFile
{
    version     2.0;
    format      ascii;
    class       surfaceScalarField;
    location    "950";
    object      phi;
}
// * * * * * * * * * * * * * * * * * * * * * * * * * * * * * * * * * * * * * //

dimensions      [0 3 -1 0 0 0 0];
oriented        oriented;


internalField   nonuniform List<scalar> 
14885
(
0.751871
-0.503086
-0.248813
0.199021
-0.382144
0.183226
0.513721
-0.328592
-0.185038
0.4232
0.0477025
-0.471468
-0.676939
0.377462
0.299391
0.129487
-0.486134
0.356615
0.471286
-0.254241
-0.216882
-0.172309
-0.359385
0.531702
0.26131
0.344786
-0.606107
0.135857
-0.311437
0.175624
-0.576976
0.388491
0.188415
0.374068
-0.174961
0.379483
-0.202773
-0.176617
0.727707
-0.25666
-0.471069
0.17268
-0.431781
0.258858
0.227727
0.499943
-0.138751
-0.361276
0.499979
-0.383864
-0.193187
0.202493
-0.442706
0.240287
0.21296
-0.450882
0.237827
0.164894
0.214675
0.444573
0.30728
-0.0650061
0.487844
-0.528113
0.382903
0.145192
0.220032
-0.583203
0.362924
0.308892
-0.647409
0.33851
-0.215986
0.351994
-0.447041
-0.178433
0.625428
0.487314
-0.357868
0.55223
-0.357302
-0.194903
-0.106104
0.52295
-0.417133
-0.18016
0.302398
-0.122191
0.257399
-0.556
0.298667
0.542124
-0.284608
0.352446
-0.524762
0.442078
0.0559632
-0.49807
0.37278
-0.6751
0.301857
0.303111
-0.612064
0.308801
0.376615
-0.4829
0.438911
0.176359
-0.615277
0.175672
0.376591
-0.294636
0.316371
-0.00539952
-0.310934
-0.435708
-0.0388989
0.474769
-0.276972
0.566586
-0.289933
0.462119
-0.242403
0.565402
-0.639262
0.0738117
-0.30831
0.480615
0.391544
-0.173213
-0.218212
0.231898
0.0451775
-0.276972
-0.0485516
0.364971
0.659698
-0.414247
-0.245872
0.348535
0.39025
-0.187716
-0.00763038
-0.273219
0.280967
-0.200267
0.0148984
0.185479
0.362733
-0.197795
0.182996
-0.57231
0.389452
-0.21038
-0.206139
0.416406
-0.334637
-0.358307
0.692942
0.181576
0.210105
-0.0269585
0.314177
-0.287041
0.299518
-0.304862
-0.218959
-0.332182
0.551133
0.264415
-0.590128
0.325679
0.285682
-0.567832
0.282061
0.180924
-0.424201
0.243179
0.480187
0.0498583
-0.53003
0.611534
-0.546124
-0.0654355
-0.0565203
0.536726
-0.24538
-0.0696903
0.315134
-0.538817
0.315647
0.222888
0.695581
-0.410449
-0.28517
-0.43789
0.227376
-0.261351
0.546992
-0.293884
-0.581579
0.0986995
0.482876
-0.0611584
0.62652
-0.510011
-0.0715748
-0.291014
-0.151614
-0.0142245
-0.421401
-0.352455
0.571671
-0.0531402
-0.51892
-0.36516
0.641061
-0.276408
-0.0951553
0.337511
-0.242249
0.342804
-0.0209778
-0.321735
-0.25103
0.431905
0.266722
0.24709
-0.294712
-0.241977
0.536368
-0.589677
0.394359
0.195233
0.11099
0.188781
-0.299698
-0.412009
-0.0199648
-0.0314474
0.33103
0.346849
-0.00393385
0.254151
-0.566705
0.312432
-0.365246
-0.128393
0.493309
0.010776
-0.00542124
-0.211337
-0.402993
-0.0714902
0.474542
0.232008
-0.446899
0.214664
-0.208905
0.319988
0.253828
0.0607811
-0.31446
-0.460303
0.334269
0.126109
0.241753
0.0293198
-0.234359
0.396004
-0.161574
-0.241144
-0.22712
0.468091
0.204378
-0.12552
-0.0787501
0.331508
-0.592918
0.204266
0.267165
-0.457122
0.215912
0.323631
0.139982
-0.463902
0.43345
-0.22904
-0.129833
0.383771
0.315999
-0.534965
0.586062
-0.321726
0.664884
-0.409295
-0.255651
0.618931
-0.239407
-0.379482
-0.320225
0.649943
-0.329928
0.540003
-0.356811
-0.668489
0.324641
0.343783
0.264789
-0.59943
0.119514
-0.336055
0.216652
-0.190702
0.310295
-0.58488
0.307475
-0.472053
-0.117694
-0.378058
-0.249572
0.627416
0.078767
-0.456787
-0.280352
0.272841
0.193961
0.0444398
-0.23836
0.202981
0.415988
-0.312872
-0.271867
0.58469
0.187958
0.292279
-0.480424
-0.668619
0.338562
0.329868
-0.445995
0.017923
0.427847
0.219289
0.214277
0.408889
-0.21641
-0.192375
0.188382
-0.43294
0.244504
-0.0902127
0.140481
0.270882
0.127802
-0.398602
0.106425
-0.509387
0.371962
-0.224359
-0.147548
-0.36132
0.658611
-0.297324
0.156109
0.0484005
-0.65335
0.206249
0.37358
-0.0631414
-0.310434
0.601237
-0.298282
-0.339196
0.244157
0.200747
0.410753
0.288958
-0.432912
0.143996
0.429388
-0.081754
-0.347578
-0.232047
0.563358
-0.310853
-0.310211
0.620952
0.0798564
0.263291
-0.343267
0.240771
0.0267748
-0.2675
0.580715
-0.326695
0.368633
0.00494379
-0.0888653
0.282866
0.0187328
-0.218904
-0.214012
-0.454776
0.486235
-0.177349
0.0191659
-0.532261
0.512702
-0.163202
0.6021
0.165696
0.243302
-0.544401
0.448305
-0.252759
-0.195422
0.358416
0.0710493
0.404244
0.291299
-0.104622
0.346443
0.574382
-0.132298
-0.165375
0.479258
-0.313786
0.276832
-0.580188
0.30323
-0.336348
-0.0209379
-0.373785
0.409498
-0.0356099
0.376877
0.216179
0.174101
-0.0152265
-0.358459
0.567159
-0.483928
-0.0834086
0.318745
0.282304
0.529906
-0.342111
-0.342636
-0.203498
-0.146111
0.417132
-0.0827744
0.289476
-0.206638
-0.206013
0.66942
-0.326559
-0.342969
0.149734
-0.533595
0.383891
0.359653
-0.289695
-0.069878
-0.348389
-0.190687
0.588627
-0.168873
-0.419757
-0.098016
0.231732
-0.133632
-0.303488
-0.288841
0.592122
-0.330378
0.185158
0.17762
0.26983
-0.582681
-0.312955
0.230193
0.275671
0.00705191
-0.282587
-0.0728105
-0.339379
-0.138106
0.0183252
0.119818
0.320951
-0.590522
0.269566
0.00706587
-0.0102823
0.00323544
0.14187
-0.50745
0.246361
-0.0297006
-0.216599
-0.27217
-0.0704425
0.342683
0.22468
-0.422994
0.198297
0.324463
0.191037
-0.515622
0.415053
-0.486475
0.58416
-0.245823
-0.544491
0.198855
0.34557
-0.0965957
0.337447
-0.199695
0.522892
-0.0191406
-0.42701
-0.284719
-0.189975
0.514335
-0.164143
0.388792
0.265154
0.165237
-0.430363
-0.567814
0.0571775
0.510297
0.547801
-0.572483
0.0246982
-0.648299
0.413683
0.234549
0.567053
-0.291723
-0.275181
-0.409012
0.621525
-0.213164
0.290858
0.0637314
-0.0767803
0.0130771
0.580004
-0.303245
-0.0333695
0.0971445
0.491285
-0.352814
0.40008
-0.303548
-0.493252
0.266547
0.226624
0.42141
-0.233015
0.423559
-0.204224
-0.219102
-0.370634
-0.0896378
0.589939
-0.271326
0.500984
-0.422256
0.0854006
0.274347
-0.483478
0.163021
0.453389
0.11362
0.215009
0.152914
-0.400028
0.247159
-0.00306435
0.0138685
0.270965
-0.334111
-0.159201
0.542058
-0.526521
0.173588
0.35304
0.252355
-0.458205
0.205984
-0.349783
0.614569
0.394391
-0.557599
-0.280794
0.305644
-0.0247151
-0.471754
-0.205272
0.496504
-0.244042
-0.183445
0.454386
-0.211402
0.291153
-0.150843
0.528203
-0.381696
0.147406
-0.305418
0.575282
0.0509908
0.316136
-0.367057
0.260389
-0.281766
0.0215218
-0.249761
0.538834
0.409076
-0.256177
-0.478586
0.17487
0.210352
0.258488
-0.468779
0.0134242
-0.0188216
0.630667
-0.245906
-0.385394
0.613517
-0.219228
0.636263
-0.331843
-0.304482
0.274094
0.385209
-0.517846
-0.121465
-0.299263
0.253291
0.00730898
0.38103
0.232414
-0.318615
0.369641
0.741164
-0.443691
-0.298026
0.497789
0.00307666
-0.511419
0.184899
0.32599
-0.104856
0.336891
-0.311535
-0.252701
0.564214
0.176669
-0.246276
0.492088
-0.281752
0.23959
-0.557522
0.318094
0.144629
-0.398083
0.253314
0.269766
-0.553158
0.283232
0.291063
0.449577
0.307103
0.339244
-0.517671
0.488129
-0.24114
-0.246839
-0.0266151
-0.111462
0.407816
-0.263206
-0.0740396
0.563145
-0.488714
0.0107607
0.0442843
-0.055024
-0.541781
0.342336
0.199486
-0.366513
0.539096
-0.172597
0.633984
-0.256752
-0.377225
-0.4884
0.177423
0.162951
0.19147
-0.354372
0.578277
-0.256467
-0.321697
-0.572921
0.0410745
0.531479
-0.499613
0.0916476
0.408087
-0.209133
-0.581763
0.155966
0.425684
0.120596
-0.322864
0.202464
0.150881
0.270556
-0.300406
-0.211498
-0.423615
-0.224751
0.391059
-0.157861
0.0931734
0.49545
-0.192124
-0.334299
-0.398758
-0.142995
0.206654
-0.233477
-0.227947
-0.353526
0.581443
0.604498
-0.210112
-0.20306
0.323778
-0.131678
-0.367859
-0.138343
0.510481
-0.457804
0.500738
-0.0432184
-0.566786
0.201271
-0.460714
-0.121147
0.310834
0.267558
0.302227
0.331761
-0.48332
-0.0345566
-0.323907
0.473653
-0.415247
0.547044
-0.131772
0.393208
0.271613
-0.543433
0.572553
-0.0291991
-0.0946364
0.271395
0.543251
-0.303504
0.171304
-0.530587
0.359274
0.216478
0.318242
-0.534707
-0.553994
-0.0141486
-0.278811
0.581813
-0.302936
0.245927
0.283806
-0.249115
0.34365
-0.180637
0.287987
0.29594
0.251051
0.242829
-0.494322
-0.527095
0.0239938
-0.56319
0.000768068
0.562317
-0.154185
-0.390376
-0.630047
0.373321
0.107143
0.0565583
-0.163515
-0.351384
0.522679
0.29083
-0.596113
0.48939
-0.130863
0.165834
0.206177
-0.359286
0.164794
0.194527
0.260974
-0.610764
-0.310206
0.596731
-0.286516
-0.0104541
0.5459
-0.536008
0.291717
0.298082
-0.297183
-0.257012
0.554047
0.478477
0.0377706
-0.51663
0.542144
-0.279946
-0.262164
0.432869
-0.249678
-0.183387
-0.307004
-0.25982
0.273671
0.268512
-0.529464
-0.0276513
0.557123
0.338567
-0.024229
-0.600728
0.321941
-0.225812
-0.267505
0.571287
-0.183761
0.0815516
0.102288
0.0148867
-0.488117
0.473151
0.257568
-0.484965
-0.265597
-0.409913
0.201187
0.247226
0.382769
-0.520479
0.137763
0.376839
0.112648
-0.398796
-0.516467
-0.0130302
0.529017
-0.55811
0.28459
0.273446
-0.284512
0.015094
0.267372
-0.282352
-0.527183
-0.542311
0.531188
-0.539497
-0.379107
-0.225116
-0.36269
0.341867
0.245499
0.26974
-0.515328
-0.219522
-0.337835
-0.462094
0.111398
0.350846
-0.282954
0.106379
0.176814
-0.0791284
-0.283455
-0.270204
-0.239615
0.509471
-0.357603
-0.104353
0.176398
0.247396
-0.287163
0.532941
0.0581015
-0.225929
0.167877
-0.275336
0.497294
-0.313058
0.637594
0.224946
0.259304
-0.484362
0.174852
-0.541398
0.234865
0.257215
-0.186403
0.0472863
0.139158
0.186224
0.246449
-0.599242
0.299654
0.299626
0.49529
-0.118435
-0.155552
-0.126084
0.307418
-0.529569
0.221739
0.536674
-0.184227
-0.423884
0.350293
0.200864
0.101571
0.103629
-0.518322
-0.014998
-0.040012
0.0550513
-0.260393
-0.312096
0.572486
0.0655081
-0.0739169
0.00100546
0.0729619
-0.529387
-6.38525e-05
0.345405
-0.17951
-0.424738
0.582665
-0.157996
0.52916
-0.355488
0.497545
-0.262768
-0.0543307
-0.36514
0.419472
0.409741
-0.0866228
-0.323049
-0.277858
-0.180215
0.448483
-0.262549
0.2647
-0.552363
0.287663
-0.135572
0.399341
-0.263793
0.470491
-0.145329
-0.325096
-0.265137
0.596753
-0.363682
-0.233102
-0.393747
0.258126
0.321238
0.274997
-0.596278
0.382903
0.11241
0.570544
-0.27887
0.345878
0.323439
-0.294759
0.484351
-0.426623
-0.057709
-0.279275
0.45039
-0.170968
0.358223
-0.412523
0.353731
0.276396
-0.174096
0.452598
0.0317594
0.512179
-0.573353
0.289415
0.120383
0.374968
-0.319006
-0.551991
0.127203
0.436027
-0.23481
-0.304591
0.330748
-0.0260936
0.32066
0.555782
-0.611465
0.0556571
0.189144
-0.17415
0.306876
0.29157
-0.598513
0.527783
-0.216783
0.500824
-0.245638
-0.255099
-0.192555
-0.321154
-0.322607
0.56345
-0.240841
0.554772
-0.290044
0.377604
-0.211826
0.204496
-0.651063
0.311892
0.339083
0.228738
0.314655
0.415766
-0.0994393
-0.316219
0.360782
0.0550614
-0.197737
0.255906
-0.389686
0.324491
0.260412
-0.557765
0.278976
-0.0555234
-0.130832
-0.639736
0.597487
-0.312623
-0.284844
-0.453891
0.400653
-0.0690766
0.420117
-0.351335
-0.322176
-0.256579
0.578656
-0.593611
0.271351
0.451616
-0.226751
-0.573577
-0.185446
0.253412
0.126448
0.402196
0.125716
-0.308354
-0.271964
0.149706
0.227985
0.29035
0.252935
-0.543314
-0.0273112
-0.0656522
0.0929947
0.0217831
-0.326291
0.0960545
-0.450165
0.354188
-0.450795
-0.11249
0.145539
0.174142
-0.438642
-0.104858
-0.251318
0.0959161
-0.507456
0.204575
0.302419
-0.22449
0.545492
0.221735
0.226456
-0.381966
0.488442
0.156761
-0.51813
-0.258299
-0.123334
0.311068
0.286438
0.539817
-0.310945
0.60718
-0.192464
-0.414697
0.511482
0.044288
-0.31064
-0.240422
0.550738
-0.440111
0.52871
-0.304091
-0.22458
0.36477
0.271435
-0.350332
-0.222724
0.57307
0.227958
-0.514171
0.286314
0.193531
0.151936
-0.537167
0.509545
-0.574818
-0.294767
0.386467
-0.352077
0.382411
-0.030228
-0.262685
-0.234572
0.496919
-0.530803
-0.00198255
0.210411
0.317273
0.211502
-0.351433
0.284299
0.0672708
-0.506624
0.200354
0.306232
0.535665
-0.589165
0.0532217
-0.356809
0.594338
-0.237525
-0.169988
0.39532
-0.225175
-0.167615
-0.230207
0.397892
-0.229862
-0.194289
0.424145
0.557309
-0.358584
0.0710203
-0.608163
0.143709
0.335304
-0.479304
0.233418
-0.469344
0.235825
-0.466786
0.172048
-0.591122
0.344385
0.246131
0.171644
0.367043
-0.436764
0.250497
0.230183
-0.480999
0.306348
0.24312
-0.549509
0.286428
0.184132
-0.311802
-0.194856
-0.15052
-0.220078
0.237318
0.198735
0.0759739
0.229021
-0.304793
-0.305616
-0.284912
-0.188531
0.434621
-0.245847
-0.455001
0.304465
-0.247144
0.528186
-0.28105
0.115781
-0.472589
-0.06847
-0.28351
0.224204
-0.494767
0.632023
-0.44056
-0.191427
0.517472
-0.289503
-0.423358
0.294699
-0.249329
0.504385
-0.255177
-0.20897
0.37553
-0.166361
0.298631
0.0146278
-0.295287
-0.414493
-0.102378
-0.419999
0.223013
-0.542266
0.319328
-0.0483278
-0.328419
-0.263352
0.171281
0.136068
-0.307265
0.136256
-0.546097
0.347343
0.204306
-0.551716
0.332428
-0.256349
-0.363577
0.624548
-0.407523
0.3511
0.0565822
-0.0483036
-0.303001
0.055575
-0.459857
0.404279
-0.278413
-0.275165
0.553618
0.160239
-0.0529977
-0.203666
0.537076
-0.333274
0.272226
-0.565501
0.562825
0.00262405
0.450536
0.181514
0.361665
-0.64287
0.281146
0.36089
-0.604985
0.244076
-0.236015
0.561627
-0.325454
-0.223764
-0.295039
0.471557
-0.176373
0.280306
0.229341
-0.509799
-0.00551737
0.541462
-0.535947
0.0597989
0.195697
-0.255392
0.224857
0.171216
0.303932
0.427053
-0.41222
0.293722
0.284176
-0.578066
0.28263
-0.222704
-0.12746
0.510267
0.550006
-0.326987
0.21051
0.346673
-0.103733
0.409286
-0.306032
-0.308136
0.118848
0.18935
-0.0668633
0.452879
-0.385998
0.450489
-0.394934
0.503147
-0.0754938
-0.00778824
0.508276
0.229025
0.25219
-0.481537
0.553038
0.005825
-0.559036
-0.029221
0.253917
-0.460067
0.205779
-0.223603
-0.130584
0.354355
-0.278634
0.553137
-0.274849
0.226493
-0.536758
0.310259
-0.342464
-0.140887
0.227315
-0.415621
0.375079
-0.601558
0.141669
0.552097
-0.282537
-0.317092
0.274316
0.25921
0.337513
-0.0700478
-0.212678
0.385748
-0.348395
0.655285
-0.348021
-0.317093
-0.295124
0.0152652
-0.530328
0.514655
0.586217
-0.238879
-0.0980304
-0.0856638
-0.549975
0.207473
0.295505
-0.573675
0.278021
-0.240818
0.486206
0.235731
0.161392
-0.540502
0.495151
-0.554226
0.0182683
0.535778
0.342195
0.0712203
-0.413312
0.556849
-0.249699
-0.473723
0.0880092
0.385602
0.412433
0.246139
-0.0764508
-0.397414
-0.413319
-0.353861
-0.130195
0.531226
-0.304735
0.35483
-0.421713
-0.0604606
0.314525
-0.353201
0.51772
-0.424809
-0.0928853
0.224394
0.27306
0.343649
0.387196
0.233763
-0.423041
0.237515
0.185736
0.173053
-0.574421
-0.425849
0.0708969
0.354969
0.109926
0.407821
0.27804
0.245089
0.251521
-0.392116
0.287872
0.495691
-0.244996
-0.426387
0.091602
0.334747
-0.181671
0.523936
0.298533
0.283347
0.314159
-0.0771355
-0.237008
0.231229
0.223024
-0.454553
-0.361102
-0.153502
0.514626
0.570015
-0.29164
-0.27865
-0.23281
-0.255064
0.487485
0.532935
-0.24261
0.629771
-0.2651
0.0145559
-0.0946562
-0.331754
0.18078
0.227006
-0.212447
-0.434969
0.154737
-0.107442
-0.32782
-0.188633
0.516473
-0.18472
-0.23811
0.504912
-0.32855
0.454813
-0.201359
-0.532938
0.0865948
0.448833
0.392879
-0.258379
0.508209
-0.249978
-0.347845
0.304533
-0.347929
0.124468
0.48522
-0.235058
-0.524827
0.519304
0.558219
-0.0355061
-0.54526
0.248692
0.296297
-0.280485
0.578506
-0.298351
0.298362
0.249125
-0.547433
-0.35557
0.146822
-0.114452
0.429213
0.212323
-0.521
-0.517709
0.275573
0.265321
0.282775
-0.548408
-0.488512
-0.130407
0.445813
0.299828
-0.116086
0.529713
0.324395
0.247436
-0.572148
0.515513
-0.270354
0.210606
-0.165345
-0.303416
0.598058
-0.294646
0.490371
-0.223822
0.69847
-0.436164
-0.263225
0.0278294
0.0658281
-0.0936089
-0.136799
0.295438
-0.575207
0.399725
-0.0621143
-0.524799
0.262311
0.262486
0.323464
-0.116682
0.20584
0.309747
0.306469
0.263259
0.55805
7.19061e-05
-0.558226
-0.49836
0.239831
0.295918
-0.543159
0.247227
0.582311
-0.275939
-0.163264
0.337433
-0.542247
0.409726
0.132362
0.238993
-0.602583
0.320811
0.275921
0.554945
-0.270953
-0.284112
0.176235
-0.0945898
-0.0589738
0.0773232
-0.392229
-0.175205
0.567427
0.297809
0.268489
0.283218
0.318242
-0.601532
-0.526279
0.203694
0.312575
-0.530353
0.165208
-0.245716
0.530229
0.174783
0.057034
0.234829
-0.510852
0.27594
0.0436542
-0.438157
0.394383
-0.470945
-0.130649
0.385784
-0.242364
0.500974
-0.258437
-0.325115
0.609628
-0.284509
-0.211678
-0.29622
0.190873
0.235962
-0.427049
-0.300674
0.151886
-0.410096
0.158878
-0.53518
0.376365
0.215481
0.290979
-0.507139
-0.510185
-0.076312
-0.333659
0.409964
-0.486996
0.550998
-0.0637731
0.183467
-0.266235
-0.295505
0.561463
0.27029
-0.531565
0.261211
0.324804
-0.585198
-0.170261
0.491431
0.546042
-0.335649
-0.126421
-0.415939
0.488957
-0.264684
0.532255
-0.225948
0.0609276
-0.366966
0.410556
-0.256448
0.21501
-0.343543
0.128674
-0.283047
0.272929
-0.211986
-0.227177
0.146108
0.358817
0.0035815
-0.414114
0.144465
0.169714
-0.542989
-0.35331
0.432116
-0.0785226
-0.273813
0.573516
-0.286084
-0.223901
-0.279888
-0.257935
0.469925
-0.46273
-0.553206
0.180154
0.373009
-0.391966
0.0600961
0.331942
0.322754
0.245082
-0.567818
0.141205
0.3668
-0.507996
-0.15009
0.376426
-0.226285
-0.345116
0.584102
0.330708
-0.589163
0.258435
-0.446923
-0.0396265
0.242582
0.258331
0.544419
-0.545136
-0.215096
-0.315258
-0.0615627
-0.369531
0.430889
0.481369
-0.375606
-0.0502193
0.232855
-0.533228
0.300206
0.298008
-0.153544
-0.401188
0.233675
0.439608
0.257941
0.209579
0.345217
0.654122
-0.33374
-0.32036
0.568879
-0.295813
-0.273314
0.260765
-0.558089
0.297256
0.420064
-0.243453
-0.505754
0.152139
0.197523
0.44452
0.14104
0.163953
0.258233
-0.509128
0.251091
0.571735
-0.311038
0.174194
-0.404385
0.318753
0.204032
-0.522742
0.433425
-0.197589
0.388853
-0.173693
-0.346528
-0.413256
0.286075
-0.554287
0.268114
-0.309835
0.475557
-0.166001
-0.596608
0.158353
0.483279
0.0983752
-0.582365
0.195472
-0.369443
0.173905
0.058564
0.225891
0.215297
0.434423
0.228354
-0.478553
0.249926
0.265231
0.298219
-0.299973
0.591433
-0.278096
-0.275601
-0.28295
0.558109
-0.305274
0.248963
-0.552384
0.208095
0.305961
-0.514097
0.223466
-0.481495
0.258027
0.297319
0.304416
-0.601775
-0.29688
0.251352
-0.290283
0.593092
-0.302708
0.0897634
-0.442818
0.589993
-0.265854
0.310781
-0.571595
0.260579
0.595044
-0.432527
0.120788
-0.277284
-0.247517
-0.0880702
-0.540495
0.229573
0.368075
-0.205212
-0.162707
-0.322608
0.109064
0.0456941
-0.281765
-0.26823
0.54991
-0.100038
-0.212168
0.361924
0.182388
0.326098
0.328045
0.270026
-0.595122
0.581924
-0.251238
-0.259513
-0.30847
0.56809
0.417789
-0.221754
-0.195837
-0.238693
-0.10731
0.0800144
0.551268
-0.234122
-0.317098
0.563134
-0.35352
0.256373
0.289551
-0.250803
0.521024
-0.152449
-0.319661
-0.361226
-0.0461398
0.216045
-0.506041
0.289995
0.268131
-0.339963
-0.0519416
0.0710652
-0.0267604
0.481953
-0.314587
0.250309
-0.283893
0.58117
0.635484
-0.270369
-0.365395
-0.00780193
-0.341134
0.34902
-0.579685
0.168657
0.411024
0.289626
0.294485
-0.563408
0.268706
-0.27409
0.162402
0.111895
-0.101411
-0.32087
0.278795
-0.623941
-0.103616
0.299408
-0.235719
-0.253495
0.488925
-0.133924
-0.202536
0.336563
-0.527571
0.508808
-0.367598
0.565914
-0.519869
-0.0460732
0.428888
-0.191576
0.281171
-0.50071
0.219344
0.589731
-0.301933
-0.525668
0.19786
0.30953
-0.57134
0.290657
-0.301925
0.00966959
0.292358
0.265221
-0.267974
-0.24611
0.308229
-0.409313
-0.281139
-0.294089
0.574953
0.152435
0.145571
-0.208014
0.560512
-0.23774
-0.504178
0.315431
-0.613211
0.203874
0.290247
0.299291
-0.438629
-0.115729
-0.495212
0.206426
-0.426446
0.220326
-0.280206
0.510163
-0.251756
-0.618387
0.275897
0.342443
0.49805
0.151633
0.304601
-0.57726
0.272624
0.399124
-0.342464
0.233383
0.276954
0.270243
0.37038
-0.415888
0.096942
0.319054
-0.203061
-0.263615
0.387092
-0.123337
-0.370448
0.1616
-0.228377
0.435092
-0.552129
-0.286751
-0.0579406
0.174523
0.071734
-0.12964
0.273258
0.139868
0.255599
0.123947
0.0523858
-0.289292
-0.0125272
-0.0176402
0.237028
0.371017
-0.424174
0.0531545
0.150901
0.272003
-0.422767
0.530749
-0.211964
-0.256221
0.649966
-0.323859
-0.303074
-0.221966
0.525048
0.197034
0.146644
0.607828
-0.246248
-0.138079
0.31122
-0.173059
0.434716
-0.338541
-0.3887
0.312403
-0.442187
-0.297755
0.615941
0.566839
-0.195821
0.445545
-0.214544
0.0990728
-0.460349
-0.304174
0.544703
-0.240441
-0.323697
0.54976
-0.226083
0.146641
0.185737
-0.332312
-0.567092
0.239461
0.327696
-0.333841
-0.219404
0.531237
-0.00650307
-0.52548
-0.107937
-0.0213112
0.129293
-0.249247
0.39589
-0.146793
-0.275484
0.534802
-0.259309
-0.631965
0.284791
0.34717
0.442728
0.110198
0.269197
0.211108
0.518115
-0.310096
0.233268
-0.271532
0.48754
-0.412828
-0.323502
0.440509
-0.11702
0.0996931
-0.374742
0.207484
0.264224
-0.245019
0.156929
-0.379888
0.0178319
-0.125724
-0.146652
0.309546
-0.162841
-0.506449
0.22219
0.284161
0.302644
-0.149238
-0.153335
0.25572
0.51265
-0.256476
-0.256292
-0.504688
0.234991
0.269893
0.202905
-0.470182
0.0764049
0.344327
-0.197601
0.299069
-0.0691477
-0.229893
0.543392
-0.257395
0.516571
-0.249741
-0.0900707
-0.380135
-0.26698
0.577579
-0.184443
-0.284669
0.280762
0.287872
-0.258852
0.0221821
-0.00435718
-0.557051
0.304269
0.448501
-0.297477
0.20826
-0.15183
0.348139
-0.196242
-0.342648
0.492469
-0.149873
0.283457
0.35174
0.213752
0.275096
-0.297016
0.157097
0.211119
-0.530124
-0.000765536
0.355587
-0.151717
-0.203768
-0.31754
-0.193186
0.510741
-0.271751
0.557088
-0.285464
-0.603486
0.283548
0.319922
0.34211
-0.156288
-0.209398
0.447113
-0.55192
0.259802
0.293534
0.261294
0.258719
0.253817
0.474812
-0.328704
-0.15802
-0.438685
0.280011
-0.194896
0.501167
-0.260198
-0.240993
0.241512
0.208616
-0.436816
-0.266911
0.595833
-0.328947
-0.371602
0.299843
-0.307564
-0.394405
0.0580455
-0.366912
-0.27494
0.192698
0.261047
-0.45374
-0.232358
0.553673
-0.32127
-0.275404
0.577612
0.319483
0.218589
-0.538035
0.191647
-0.47099
0.284262
-0.556064
0.227839
-0.549632
0.321941
0.300713
0.216769
-0.228294
0.372172
-0.168314
-0.204012
0.284139
-0.560072
0.214705
-0.486261
0.212834
0.182564
-0.611301
0.279293
0.33197
-0.339615
0.404171
-0.0646994
0.182229
-0.334004
0.304437
-0.579869
-0.540291
0.283024
-0.29314
-0.277568
0.570551
0.260696
-0.233874
-0.0677278
-0.511961
-0.300127
0.580942
-0.280996
0.295737
-0.543189
0.247451
0.313066
0.258592
-0.167508
-0.311157
0.557327
-0.246187
-0.576921
0.283696
-0.256149
-0.226926
0.483055
0.440085
-0.231338
-0.264622
-0.303671
-0.328297
-0.320624
0.342446
0.289631
-0.218832
0.499961
0.278262
-0.115735
-0.275897
-0.272878
0.487526
0.506755
0.0137581
-0.520835
-0.330641
-0.0851486
-0.347482
-0.0964153
0.443813
-0.2339
-0.0486033
-0.401411
0.450055
-0.188951
-0.261998
-0.242927
0.055692
-0.153675
-0.215527
0.407241
-0.56308
0.169535
-0.554272
0.287868
0.000737794
-0.27395
0.14621
0.253636
0.37121
-0.51074
0.139523
-0.250169
-0.564162
0.252159
0.31208
-0.23211
0.446101
-0.213745
-0.489883
0.142303
0.368083
0.558355
-0.262624
-0.246146
0.582371
-0.33612
-0.170765
-0.241895
0.46999
0.593636
-0.307641
-0.286135
-0.119818
-0.347982
0.467784
-0.200773
0.170839
0.526412
-0.155185
0.516524
0.371706
-0.631082
-0.151927
0.438704
-0.286725
-0.268529
0.250961
-0.114926
-0.439454
0.209029
-0.403326
0.281018
0.265018
-0.546119
0.608817
0.53068
0.451492
0.228018
-0.573513
0.345441
0.337789
-0.194777
-0.142889
-0.155969
0.274514
-0.118499
0.236738
0.325035
-0.314352
0.550136
-0.251727
-0.558307
0.311121
0.247116
-0.209615
0.517714
-0.103261
0.573856
-0.280296
-0.295282
0.587758
-0.29266
-0.284698
0.199561
0.254798
0.129369
0.43652
0.188795
0.240093
0.00044575
0.246472
-0.58712
0.340605
-0.245306
-0.27908
0.492727
0.600848
-0.354394
0.295785
0.262565
0.531391
-0.297855
-0.233599
0.317034
-0.602855
0.285808
0.341942
-0.112351
-0.229444
0.16073
0.211289
0.257087
0.0420048
0.287073
-0.349103
0.239378
-0.464944
0.225815
-0.571354
0.289936
0.264673
-0.126493
-0.0944551
0.381678
0.0668933
0.377519
-0.444471
-0.208901
0.267633
0.246009
-0.389635
0.28548
0.515474
0.0137678
-0.529261
0.201518
0.329811
0.516469
-0.294376
-0.551722
0.22799
-0.262995
0.442445
-0.179302
0.32312
0.375433
-0.235623
0.129032
0.208877
0.28146
-0.589127
0.307635
-0.25386
0.596613
-0.342772
0.296693
0.346968
0.346303
0.587609
-0.529221
0.522062
0.317738
0.253681
-0.571488
0.298684
0.248121
-0.547062
0.290349
-0.55946
0.269007
-0.240932
-0.110712
-0.40003
0.146856
-0.21245
0.449382
-0.236885
-0.0890553
-0.162131
-0.29583
0.544936
-0.590919
0.282991
0.308024
-0.0365875
-0.357839
-0.385004
0.451841
0.135479
0.20661
0.0740285
0.325282
0.51078
-0.210043
0.238779
0.291954
-0.530816
-0.444059
-0.0910658
0.131723
0.11718
-0.248799
0.141834
0.0711577
-0.479507
0.243455
-0.646913
-0.602011
0.327188
0.274837
-0.535893
0.354108
0.181823
-0.539287
-0.594961
0.316633
0.278361
-0.258879
-0.368144
0.562065
-0.19386
0.560267
-0.358795
-0.124982
0.420554
0.263385
-0.161007
-0.555476
0.141262
0.414174
-0.191594
-0.277638
0.469346
0.00544166
-0.144567
0.347397
-0.202805
0.158669
0.401548
-0.592285
0.306987
0.285023
0.287257
-0.47418
0.186903
-0.32478
-0.270145
-0.352952
0.199985
0.153044
-0.540268
0.284708
0.255322
0.463171
-0.0480465
-0.222027
0.402908
0.303383
0.278832
-0.323341
0.550707
-0.227387
0.255357
-0.159349
0.227768
-0.399149
0.470437
0.424532
-0.138037
0.566028
-0.339588
-0.226415
-0.302781
-0.0953877
-0.195285
-0.388091
0.542491
-0.252265
-0.454452
0.169172
0.3732
-0.542354
0.186122
0.238484
-0.506472
0.272418
0.234021
-0.129769
0.464109
-0.315109
-0.153587
0.360301
-0.168686
-0.191494
-0.496231
-0.222892
0.380178
0.282981
-0.571816
0.288803
0.137632
-0.27978
0.513295
0.257359
0.196407
-0.45373
0.303137
0.207663
0.311518
0.261421
-0.572935
0.17665
0.134656
-0.374595
0.569689
0.558799
-0.277506
0.321818
-0.554167
0.563296
-0.212407
-0.35079
-0.254085
0.530585
-0.276851
-0.400045
0.181938
0.218049
-0.271121
0.559696
-0.288774
0.307614
-0.560996
0.253363
0.000581579
0.604857
-0.605585
0.151681
0.163511
-0.291255
0.581248
-0.29005
0.275035
0.281919
0.305215
0.260222
-0.565499
0.2392
0.299242
-0.538495
0.2007
0.154981
0.138964
-0.562664
-0.31275
0.549266
-0.268301
-0.219103
0.538626
-0.515881
0.240417
-0.45951
0.186144
-0.396844
0.261144
0.192128
-0.453302
0.214044
-0.486938
-0.0172868
0.52365
-0.249666
-0.143722
0.122475
0.214734
-0.517256
0.302532
-0.475531
0.0922614
0.171223
-0.591445
0.363469
0.227985
-0.361429
-0.29672
-0.295249
-0.30969
0.604926
0.277358
-0.397832
0.2237
0.211172
0.249902
0.284911
-0.56236
0.307465
0.254791
-0.00255863
0.548131
-0.545698
-0.394291
0.558932
-0.164667
-0.271447
0.485533
-0.20491
0.41606
-0.21115
0.351404
0.175024
-0.356695
-0.285366
0.285759
-0.557057
-0.441718
-0.131651
0.505696
-0.218749
-0.286848
0.541296
-0.229775
0.203785
0.0746031
-0.328593
-0.235493
0.17203
-0.301799
-0.548983
0.126576
0.422379
-0.477805
-0.354205
-0.257133
0.385666
-0.142244
-0.332191
0.550199
-0.217935
-0.293059
-0.169371
-0.518938
0.519219
0.297175
-0.563555
0.266156
-0.147245
0.299692
-0.173094
-0.218343
-0.282582
-0.342184
0.152933
0.189323
0.219228
0.261878
-0.209004
0.383002
-0.280764
0.564199
-0.051845
0.561898
0.171659
0.342987
0.168646
0.13407
-0.192417
0.537949
0.248136
0.256121
-0.188154
0.277121
0.273763
-0.551111
-0.52155
0.266999
0.53269
-0.269161
-0.263502
0.468603
-0.218501
-0.250318
0.242376
0.261585
-0.504
0.533667
-0.145231
0.201749
-0.429233
0.227422
0.399957
-0.448536
0.223616
0.284028
-0.584176
0.300099
-0.278162
0.520622
-0.278245
-0.2448
-0.4413
0.413678
-0.204645
0.536822
-0.249587
-0.293103
0.053033
0.235676
-0.288578
0.216776
0.199287
-0.293288
-0.138605
-0.14599
-0.278414
0.569377
-0.207137
-0.285456
0.492718
-0.606925
0.2745
0.332383
-0.0108684
0.574933
-0.274948
-0.300611
-0.376387
0.311046
0.550691
-0.294931
0.57902
-0.284261
-0.25872
-0.536336
0.298212
0.238109
-0.570893
0.276993
0.293574
0.400039
-0.578922
0.178869
-0.286197
-0.259789
0.545901
-0.269617
0.405165
-0.190264
0.24871
-0.484664
0.258081
-0.594541
0.336417
0.193806
0.154399
0.321968
0.111289
0.299017
0.275295
-0.283225
0.573901
-0.290737
-0.280424
0.555108
-0.274681
-0.0394285
-0.0678728
-0.144075
-0.188177
-0.505243
0.081623
0.28841
-0.571772
0.276756
0.418752
0.190334
0.15408
0.582263
-0.310919
0.59522
-0.284279
-0.277127
0.572885
0.596072
-0.337998
0.555644
-0.241821
-0.377413
-0.301988
-0.29057
0.431868
-0.230228
0.521315
-0.28087
-0.241039
0.572681
-0.289641
-0.250372
-0.319714
0.569982
0.226631
-0.456682
0.230064
0.298916
-0.582808
0.330827
-0.221769
-0.108923
-0.0326034
-0.586747
0.274627
0.273717
0.295991
-0.570307
0.277074
0.266235
0.0908492
0.00218701
0.306723
0.261324
-0.568066
0.155488
0.190299
-0.345694
-0.529962
0.529943
-0.000812501
0.301682
-0.579386
-0.218574
0.508454
-0.290241
-0.265824
0.0188776
0.355259
0.150492
-0.484376
0.0618402
-0.4136
0.579446
-0.165843
-0.137731
0.269897
-0.132128
-0.269526
0.517515
-0.34407
0.147917
0.296082
0.236639
0.376579
-0.20005
-0.176598
0.237278
-0.00327926
0.517705
0.207904
0.608616
0.153647
0.188551
0.0650221
0.259156
-0.324085
-0.407748
0.274875
0.295318
-0.570353
0.248056
0.220329
0.321223
-0.225138
-0.346354
0.148793
0.126973
0.515838
-0.519649
0.582253
-0.330027
-0.246489
0.516658
-0.270399
0.586088
-0.302101
0.123702
-0.212632
0.339916
-0.187912
0.312405
-0.579351
-0.236092
0.603709
-0.356065
-0.247673
-0.20965
-0.221482
0.461079
0.411006
-0.559905
0.14892
-0.351314
-0.215713
0.285585
-0.108725
0.121729
-0.0129363
0.461802
0.0177227
-0.480098
-0.0738697
-0.560515
0.11368
0.339611
0.149287
0.181681
-0.222117
-0.242582
0.287092
0.280715
-0.56805
-0.357904
0.156654
-0.269559
0.497624
-0.228272
-0.580311
0.320833
0.259518
-0.29152
-0.279691
-0.146862
-0.226838
-0.364598
0.0331971
0.15602
-0.239682
0.368836
-0.081421
0.288242
-0.507172
0.165494
0.207611
0.224148
-0.275277
0.552023
-0.542092
0.230898
-0.472045
0.533355
-0.0613271
0.295262
0.0872597
-0.398753
0.183235
0.365962
-0.165167
-0.364194
0.137617