/*--------------------------------*- C++ -*----------------------------------*\
| =========                 |                                                 |
| \\      /  F ield         | OpenFOAM: The Open Source CFD Toolbox           |
|  \\    /   O peration     | Version:  v2012                                 |
|   \\  /    A nd           | Website:  www.openfoam.com                      |
|    \\/     M anipulation  |                                                 |
\*---------------------------------------------------------------------------*/
FoamFile
{
    version     2.0;
    format      ascii;
    class       volVectorField;
    location    "950";
    object      U;
}
// * * * * * * * * * * * * * * * * * * * * * * * * * * * * * * * * * * * * * //

dimensions      [0 1 -1 0 0 0 0];


internalField   nonuniform List<vector> 
10042
(
(0.990609 0.0118492 -8.78907e-22)
(0.83159 -0.225906 2.91577e-20)
(1.06291 -0.0208301 0)
(1.01535 0.00141859 -4.99429e-22)
(1.0122 0.000409173 1.13924e-21)
(0.960006 -0.261331 9.38534e-23)
(1.09527 0.23095 0)
(0.911559 -0.270603 2.88818e-21)
(1.01298 -0.000741833 -1.41618e-21)
(0.969207 0.0622213 1.98059e-22)
(0.943061 0.0145329 0)
(0.868903 -0.225782 4.5781e-21)
(1.06821 0.0290944 0)
(1.01318 -0.000910665 0)
(1.02717 0.00226267 3.83414e-21)
(1.01332 -0.00116276 0)
(0.97458 -0.268194 -3.78694e-20)
(0.945983 0.0256548 1.57552e-21)
(1.0462 0.0118622 -9.53502e-21)
(1.00849 -0.00581196 -1.15057e-21)
(1.06717 0.0322374 4.81487e-21)
(0.989979 0.00547982 -2.7784e-21)
(1.0152 0.00135744 5.18093e-22)
(0.903569 -0.315679 -2.67348e-20)
(1.01376 0.00234901 0)
(1.01049 -0.00011352 9.89922e-22)
(0.971357 0.0562466 -8.13415e-22)
(1.01257 -0.000452205 3.20294e-21)
(0.960624 -0.2811 0)
(0.896749 -0.285116 -3.17481e-20)
(1.00893 0.000117187 1.66057e-21)
(1.07248 0.00987191 7.91616e-21)
(1.01291 -0.000689451 1.49818e-21)
(1.01281 -0.000652367 0)
(0.910958 -0.268437 -2.63991e-21)
(0.909562 -0.269605 -6.76145e-21)
(1.01642 0.000450553 -1.1298e-21)
(1.012 -5.16785e-05 0)
(1.01034 0.000238818 0)
(1.01634 -0.00607991 1.70028e-23)
(0.89567 -0.303113 0)
(1.01285 -0.000700008 1.51406e-21)
(1.19608 -0.0110116 1.21956e-22)
(0.972183 -0.26205 0)
(1.01468 0.00205994 -3.50655e-22)
(1.01377 0.00239651 0)
(1.01331 -0.00070849 2.43866e-21)
(1.02645 0.00218229 0)
(1.0277 0.101364 -5.66907e-22)
(0.986791 -0.0682863 -1.13041e-20)
(1.20346 -0.00826501 -2.98648e-22)
(1.0136 0.00101382 2.32817e-22)
(0.98713 -0.259998 2.56714e-20)
(1.04462 0.0117341 4.98476e-21)
(0.815165 0.341632 3.16357e-21)
(0.697618 -0.414671 -1.92673e-20)
(1.06384 0.0322949 5.28363e-21)
(0.986646 0.00464399 -3.67851e-21)
(1.02363 0.00794344 0)
(1.01643 -0.00116023 0)
(1.01827 0.101022 -1.91519e-22)
(0.845251 0.303511 -1.83035e-21)
(1.16409 -0.00161462 -1.21585e-22)
(0.954194 -0.221407 9.45247e-21)
(0.995487 0.0303051 3.6552e-21)
(1.01359 0.00376916 1.0347e-21)
(1.01288 -0.00537566 8.94627e-23)
(0.999302 0.0435873 0)
(1.0136 -0.000992288 -7.17971e-22)
(0.994633 0.0366873 -3.17292e-22)
(1.13352 -0.0487639 -5.28892e-21)
(1.01395 0.0088517 -1.04699e-22)
(1.01326 -5.57015e-05 0)
(1.02362 0.00735545 2.18001e-21)
(1.01356 0.00342612 -2.8475e-21)
(1.16486 -0.0393139 6.87052e-21)
(1.0329 0.0231649 0)
(1.01337 -0.00077498 -2.56695e-21)
(1.037 0.0221841 -1.23781e-21)
(1.04722 0.0106351 -5.75039e-21)
(0.951235 -0.280775 0)
(0.905367 -0.313411 0)
(1.00564 9.00952e-05 0)
(1.01264 0.000737711 -7.31398e-22)
(0.9761 0.014077 2.40945e-21)
(1.01129 0.155212 -2.40876e-21)
(1.01405 -0.00403199 2.2336e-21)
(1.06626 -0.0126535 3.77344e-22)
(1.01388 0.000466182 -4.21939e-21)
(1.01707 0.0275604 0)
(1.05738 0.0230056 0)
(1.02765 0.00174425 -2.80196e-22)
(1.16197 0.00990102 0)
(0.999658 0.164446 2.05948e-21)
(0.983544 0.011854 -3.52505e-21)
(1.01659 0.00401385 1.12902e-22)
(0.0560238 0.00639911 -1.64753e-20)
(1.0105 -0.00460164 -2.40735e-21)
(0.959195 0.273494 -1.58363e-20)
(1.02408 0.00664541 3.03539e-21)
(1.05568 0.0226315 0)
(0.948804 0.0912377 0)
(1.01766 0.00799067 1.40813e-22)
(1.07024 0.0100009 8.61791e-21)
(1.04625 0.0195729 4.44399e-21)
(1.01859 0.00684788 6.17511e-22)
(0.563988 -0.350024 4.43043e-20)
(1.01379 0.0034513 2.62865e-21)
(1.07444 0.237662 8.40817e-21)
(1.01882 0.0073339 0)
(1.02234 0.00719835 -2.76625e-21)
(1.05674 0.214079 0)
(0.946194 0.0803509 2.12977e-21)
(0.95457 -0.221179 -7.53118e-21)
(0.99701 0.0235957 0)
(1.01398 -0.00132496 0)
(0.986944 -0.00341373 2.4377e-21)
(1.00954 0.000179253 0)
(0.990802 0.00204668 2.52774e-21)
(1.01434 -0.00153181 0)
(1.01637 -0.00127675 2.32301e-24)
(0.952155 -0.0981195 2.3544e-20)
(0.985855 -0.0864029 4.52965e-20)
(1.0148 0.00220233 3.54082e-22)
(1.02168 0.0290531 0)
(1.01426 0.000318694 -3.58558e-21)
(1.01434 0.000195955 3.19516e-21)
(0.825642 0.347585 2.54625e-20)
(1.09366 -0.0609076 -8.42403e-21)
(0.987728 -0.00799193 2.34637e-21)
(1.01243 -0.000241005 0)
(1.01334 0.00231135 1.07335e-21)
(1.01557 6.64816e-05 0)
(1.01436 0.00351931 -1.80134e-21)
(1.04092 0.216085 0)
(1.22834 0.0704073 1.37325e-20)
(1.01951 -0.00541521 0)
(0.538504 -0.252822 0)
(1.0344 0.0135597 1.13417e-21)
(0.983744 0.254434 1.25713e-20)
(1.1168 0.0271738 0)
(1.01171 -0.00012002 3.87576e-22)
(0.563273 -0.319159 4.59669e-20)
(1.01249 -0.000418478 -3.15656e-21)
(1.02619 0.0335866 -5.39097e-22)
(1.01211 -5.51448e-05 -4.88824e-22)
(0.981008 0.0137961 6.42049e-21)
(1.01366 -0.00101397 5.58757e-22)
(1.01474 0.00467613 0)
(0.843641 -0.300028 1.88909e-20)
(1.0137 0.00315707 -2.86965e-21)
(1.01048 -4.55482e-05 3.21386e-21)
(1.03609 0.0152983 -2.88959e-21)
(1.07627 0.0284328 0)
(0.988052 0.00745631 3.47939e-21)
(1.02405 0.0346221 0)
(1.09768 -0.0511989 7.76484e-21)
(0.722681 -0.420795 1.99018e-20)
(1.01547 -0.00021093 0)
(1.00853 -0.000250727 -8.95428e-22)
(1.01121 0.000306164 -1.89036e-21)
(1.01633 -0.00710523 -1.40119e-22)
(1.24675 0.113441 0)
(1.014 0.00038146 4.23878e-21)
(1.03189 0.0113614 4.54634e-21)
(0.856257 -0.323564 3.74702e-20)
(1.01326 1.96162e-06 0)
(1.07093 0.0105691 6.55396e-21)
(0.905588 -0.276205 1.12495e-20)
(1.01274 -0.000593859 -9.38649e-22)
(0.983027 -0.0100197 -3.58505e-21)
(0.886275 -0.260662 2.7876e-20)
(1.0439 0.0615256 0)
(1.01284 -0.000632329 0)
(1.04375 0.0129417 9.65682e-21)
(1.02381 0.00497652 0)
(1.01427 0.00256815 6.40153e-22)
(1.01211 -8.03672e-05 -1.23183e-21)
(1.01332 0.00216523 1.85587e-21)
(1.0135 -0.000918429 0)
(1.03325 0.0131949 -4.71721e-21)
(1.04225 0.0240596 -4.05861e-21)
(1.02421 0.00719045 2.70891e-21)
(1.01407 -0.00122192 0)
(0.951054 -0.0223111 -6.503e-22)
(1.06098 0.0155542 4.861e-21)
(1.01412 0.00993073 -2.30911e-23)
(1.01631 -0.000935393 0)
(0.760027 -0.202376 8.11048e-21)
(1.01042 8.99487e-05 -8.95457e-22)
(0.823303 -0.271442 -4.04005e-20)
(1.06223 0.035261 4.48911e-21)
(1.01252 -0.000216019 -1.73997e-21)
(1.04153 0.0228006 3.53257e-21)
(0.842046 0.354543 0)
(1.02749 0.00119733 0)
(0.66309 -0.0272368 4.1192e-20)
(0.994235 -0.0292719 3.09717e-21)
(0.00149867 0.0500117 0)
(1.01274 0.000686746 0)
(1.06774 -0.0929795 0)
(1.13518 0.0204135 1.51405e-21)
(0.939873 0.0500313 1.47745e-21)
(1.01237 -0.000199886 -7.44759e-22)
(0.951971 0.292718 3.23165e-20)
(1.01527 0.000292932 -1.43956e-21)
(0.935763 -0.260406 -2.01408e-20)
(1.07443 0.0303341 0)
(1.02174 0.00684034 4.13295e-21)
(1.01457 0.00369731 2.43683e-21)
(1.07184 0.0100985 -2.23452e-20)
(1.01263 -0.000223182 8.20122e-22)
(0.922677 0.0543253 0)
(0.96163 0.0579161 0)
(1.01555 0.000384813 1.94424e-22)
(1.00431 0.0285463 -2.27586e-21)
(1.01264 -0.000254023 0)
(1.10011 0.213997 1.18259e-20)
(1.01477 0.000737698 -1.23617e-24)
(1.09362 -0.0841037 1.16518e-21)
(0.393467 -0.0526262 3.19643e-20)
(0.989435 -0.0113589 4.47691e-21)
(0.344682 -0.0770313 -2.50266e-20)
(0.998642 0.029445 2.21881e-21)
(1.01542 0.0015022 4.05898e-22)
(1.1375 0.0111913 0)
(1.0159 0.00449053 0)
(1.01973 -0.00391271 1.1444e-21)
(0.982707 0.0475231 -1.91872e-21)
(1.01799 0.00851682 1.2435e-22)
(1.01221 -8.90568e-05 -8.57992e-22)
(1.01462 3.60737e-05 -6.35027e-22)
(1.06008 0.0169535 0)
(1.00782 0.000171719 -2.16496e-22)
(1.01418 0.00257218 -1.34773e-21)
(0.906111 -0.275537 0)
(1.02217 -0.000255357 0)
(0.0351306 -0.00293672 2.84534e-20)
(1.02654 0.0309592 5.51171e-22)
(0.906211 -0.312637 2.15652e-20)
(1.03908 0.21071 -5.38252e-21)
(0.808681 -0.0449844 -1.10138e-20)
(1.01649 -0.00142063 -1.06741e-22)
(1.0152 -0.00717026 1.39406e-22)
(0.771776 0.300753 -2.38007e-20)
(1.01219 0.000429107 0)
(0.81718 -0.0583011 0)
(1.02476 0.029251 1.72721e-21)
(1.03658 0.016234 -4.02379e-21)
(1.01156 0.000263233 0)
(1.04554 0.0179627 4.0022e-21)
(1.01263 -0.000258941 1.92103e-21)
(0.950961 -0.0995818 9.93902e-23)
(0.766051 0.288445 -3.56453e-21)
(1.01521 0.00455775 0)
(1.02167 0.000660277 2.69552e-21)
(1.00953 8.26837e-05 2.7008e-22)
(1.01595 0.00307648 0)
(0.150236 -0.0438483 1.8994e-20)
(1.01447 0.000891606 -1.31788e-22)
(1.01256 0.0329796 0)
(1.01222 -4.84915e-05 0)
(1.01348 0.000992607 -6.18915e-22)
(1.01325 -0.000693371 4.38991e-22)
(1.07093 0.0282579 0)
(0.737341 0.272422 0)
(1.00765 0.0302987 2.69038e-21)
(0.964655 -0.09143 1.13378e-21)
(1.00484 -0.000116618 0)
(1.01483 7.07858e-05 0)
(1.01973 0.0014468 -1.56844e-21)
(1.10027 0.00172819 0)
(1.01295 0.000394746 2.03561e-23)
(0.996566 -0.0951251 6.37641e-21)
(1.0162 0.00327496 1.40768e-21)
(0.998314 -0.0106984 0)
(1.03761 0.00467829 0)
(1.01425 0.00218138 0)
(1.00482 -3.8607e-05 0)
(0.855038 0.356401 1.36085e-20)
(1.01262 -0.000497981 -2.68134e-21)
(0.819969 0.0819165 2.83337e-21)
(0.707192 -0.0140275 -1.5357e-20)
(1.03648 0.00458346 0)
(1.01355 0.000108233 -1.70332e-21)
(0.159968 -0.184267 1.36279e-20)
(0.999142 -0.0215592 2.28304e-21)
(1.0134 -0.000798004 -5.35039e-22)
(0.989607 -0.00695481 -2.29136e-21)
(1.00958 -1.21068e-05 -1.8172e-21)
(1.05699 0.0376055 -3.92427e-21)
(1.00734 -0.0136023 -2.14991e-21)
(1.0122 0.000212344 -8.6831e-22)
(0.808179 0.0850331 -6.64417e-21)
(1.00084 0.0348132 -3.59808e-21)
(1.01414 -0.00161413 1.32348e-21)
(0.901065 -0.128958 1.96117e-21)
(1.02136 -0.00277002 -2.84231e-21)
(1.01991 0.00127622 0)
(1.01255 -0.000236555 0)
(1.03473 0.0151506 8.94714e-21)
(0.949742 0.0618628 -1.49197e-21)
(1.01639 -0.000933881 -3.60435e-23)
(1.06475 0.215109 0)
(0.996076 -0.0177061 0)
(0.841378 0.289031 0)
(1.01296 0.00045652 -1.29822e-21)
(1.01502 -0.00859121 -1.63436e-22)
(0.896125 -0.146859 0)
(0.808778 0.117732 5.28659e-21)
(1.01504 0.000192376 1.37434e-21)
(1.01403 0.00307394 2.21503e-22)
(1.01665 0.00400184 -9.77692e-23)
(1.01391 -0.00147973 1.41491e-21)
(1.00998 -0.0147568 -1.62939e-21)
(0.991512 -0.0127412 2.30523e-21)
(1.01319 -0.000627258 4.10369e-24)
(0.961145 -0.0247586 2.63533e-21)
(0.913548 -0.295002 -2.79091e-20)
(1.01407 -0.00136123 0)
(1.0076 -9.76998e-05 0)
(0.951216 -0.11454 -4.60038e-21)
(1.00158 -0.0105562 -1.24333e-21)
(1.05915 0.0650775 7.70365e-22)
(0.938381 0.00210233 0)
(1.01468 0.000273732 0)
(1.01734 -0.0149427 -2.66346e-21)
(1.01324 0.00189499 2.10395e-21)
(1.02109 -0.00153222 2.05469e-21)
(1.05393 0.0368302 4.21675e-21)
(1.01536 0.000535341 2.6017e-21)
(1.01918 0.005113 0)
(0.996546 0.0132471 1.50939e-21)
(1.00994 -1.20807e-05 -1.80096e-21)
(0.92442 -0.28767 1.17844e-21)
(0.98295 -0.00421409 -6.14166e-22)
(0.595456 -0.318038 0)
(1.05432 0.0636988 2.41749e-22)
(1.01273 -0.000226963 2.32099e-22)
(0.862341 -0.30851 -1.11856e-20)
(1.11898 0.0368423 0)
(1.06217 0.0420482 1.00524e-21)
(1.01646 -0.00152306 -1.72698e-23)
(1.00844 -0.012592 0)
(1.01043 0.000272682 2.59205e-23)
(1.01222 -0.000133106 -2.47812e-21)
(1.01284 0.000539311 0)
(1.01267 0.00049716 0)
(1.01592 -0.00751848 4.4178e-21)
(-0.0105729 0.0578726 -3.5851e-20)
(1.03157 0.00370102 0)
(0.985765 0.0187772 0)
(1.01755 -0.00713701 0)
(1.01555 0.000253278 -1.13557e-22)
(0.836086 0.31569 -1.25972e-22)
(1.01648 -0.0178897 2.58028e-21)
(1.01579 0.00490271 6.43047e-22)
(1.00334 6.49703e-05 -5.84534e-22)
(0.74675 -0.105069 0)
(1.00448 2.22546e-05 -1.31974e-21)
(1.01885 0.00660806 -5.79971e-22)
(1.01636 0.000429113 0)
(1.03094 0.0119279 -4.12057e-21)
(0.878252 -0.239834 0)
(0.879867 -0.313303 0)
(1.03303 0.011703 -4.92698e-21)
(1.01298 0.000663464 5.9798e-23)
(1.0189 -0.00505988 2.66506e-21)
(1.01769 -0.00574393 0)
(0.840553 0.33731 0)
(1.01631 -0.00104511 0)
(1.0066 0.000151036 -2.59626e-23)
(1.01301 0.000549367 -3.40645e-21)
(1.01216 -0.000307631 0)
(1.00651 0.139121 -4.14943e-23)
(1.01317 0.00120107 -2.31999e-21)
(0.995798 -0.00566224 -2.51738e-21)
(0.965819 0.174 -2.15608e-21)
(0.724401 0.0977546 0)
(1.01567 0.13257 0)
(1.01859 0.00554007 0)
(0.986681 0.1869 0)
(0.978568 0.0412988 -8.00444e-22)
(1.01322 0.00176007 -4.76636e-23)
(1.08473 0.0175808 0)
(1.01423 -0.00149555 0)
(1.01224 0.000429093 0)
(1.01428 -0.00144043 -2.47965e-22)
(1.01354 -0.000205308 0)
(1.0133 -0.000727975 -4.64402e-23)
(1.01658 0.00312447 -4.75388e-22)
(0.559233 -0.467356 -1.03242e-20)
(1.03107 0.00435698 5.42867e-21)
(1.02698 -0.0147169 0)
(0.895503 -0.288471 0)
(0.785165 0.274933 9.43557e-21)
(1.01637 0.00179784 4.24349e-22)
(0.922193 -0.259035 0)
(1.01603 0.000123052 4.45191e-22)
(1.07286 0.0102097 -8.68448e-21)
(1.01372 0.000926729 6.75726e-23)
(0.210336 -0.1184 0)
(1.02095 -0.00378191 8.1032e-23)
(0.817447 0.322681 1.25651e-22)
(0.295107 -0.203341 2.63226e-20)
(1.01583 0.000297794 0)
(1.11082 0.0417658 -5.32e-22)
(1.01736 0.00116117 -4.55406e-22)
(1.02732 0.179058 -1.79618e-21)
(1.01669 0.00332368 -4.68356e-22)
(1.06403 -0.0591512 4.50118e-20)
(1.03493 0.0365206 -9.76466e-22)
(0.805626 0.0108825 -6.27318e-21)
(1.03011 0.00429881 4.23222e-21)
(1.03203 -0.105798 2.08754e-21)
(1.01076 0.00303877 0)
(1.02293 0.0405334 7.94496e-22)
(0.837682 0.336478 0)
(1.01301 -0.000528682 0)
(1.01134 0.00309958 0)
(1.01049 1.08079e-05 4.52175e-22)
(0.913139 -0.290372 0)
(1.01232 -0.000150799 0)
(1.01417 -0.00124706 0)
(1.12134 0.0211207 -1.7289e-21)
(1.01247 0.0091932 9.17836e-22)
(0.972293 0.0270991 4.92673e-22)
(1.07987 -0.0524535 -3.90669e-20)
(1.01437 0.000886723 -4.5794e-22)
(1.06439 0.0387863 -5.33652e-21)
(1.01185 0.00831593 1.18045e-21)
(1.0134 -0.000878943 1.58944e-21)
(1.03292 0.0378532 -1.59617e-21)
(0.914179 -0.272086 -1.86667e-20)
(1.01722 0.000588626 9.74681e-22)
(1.0299 0.0113364 3.70808e-21)
(1.06186 0.433774 -4.87077e-21)
(0.991854 -0.00448237 -1.34186e-21)
(1.00776 -5.03126e-05 -1.37847e-21)
(0.679926 -0.447279 1.2176e-20)
(1.0124 -0.000383573 -2.4307e-23)
(1.01232 -0.012913 3.56109e-21)
(1.03785 -0.00867038 -2.84656e-22)
(0.802362 -0.17269 -9.76849e-21)
(1.17645 0.0272205 -1.27849e-21)
(0.926702 -0.0435131 1.65654e-21)
(1.04649 -0.0813121 -6.82789e-21)
(1.23122 0.123537 9.65498e-22)
(0.935929 -0.241026 1.19342e-20)
(1.01444 -0.00138965 8.85638e-22)
(1.0049 -0.0139046 -1.26528e-21)
(0.948232 -0.149974 1.39387e-22)
(0.966959 -0.141468 -2.74823e-22)
(1.08264 0.0193595 0)
(1.01517 0.00122612 0)
(1.01296 0.00065872 0)
(0.993239 0.0187051 0)
(0.612024 -0.493212 -3.50903e-21)
(1.0141 -0.00130911 2.59197e-22)
(1.01745 -0.00430399 8.23754e-23)
(1.00939 0.000251331 -2.6889e-21)
(1.01605 0.00180768 0)
(1.01257 -0.00100475 -1.98044e-21)
(1.01225 -0.000674529 1.7379e-21)
(1.01364 -0.00010744 0)
(1.00785 0.00011419 1.01705e-21)
(0.982508 0.00291713 6.27015e-22)
(1.03737 0.00251964 -4.42773e-21)
(1.01444 -0.0137614 2.13524e-21)
(0.981253 -0.00271124 3.49851e-21)
(1.21754 0.148975 -1.43254e-20)
(1.014 -0.000635127 -2.36335e-22)
(0.280364 -0.263322 1.84004e-21)
(1.09908 0.40004 -3.61056e-20)
(0.908441 0.225436 -3.64097e-21)
(1.01045 -1.58294e-05 1.11641e-21)
(1.05832 0.00724435 1.20159e-20)
(1.00867 -0.000110022 0)
(0.792753 0.255596 0)
(1.02029 0.00226593 3.25204e-21)
(1.00103 -0.0272225 0)
(1.02963 0.00489639 9.63626e-21)
(0.985681 0.233041 -3.56558e-21)
(1.01131 -7.91324e-05 2.92486e-23)
(1.047 0.0164797 0)
(1.01775 -0.00460352 6.26648e-23)
(1.00724 -0.0128156 0)
(1.04763 0.155557 -6.0232e-21)
(1.00906 -4.90779e-05 1.36189e-21)
(1.01193 0.000318298 8.87212e-22)
(1.01426 0.00332452 1.64518e-21)
(0.966507 -0.300054 -2.02972e-20)
(1.01223 -4.03523e-05 -1.97159e-21)
(1.00609 -0.018688 -3.25809e-21)
(1.06692 0.0132792 0)
(1.10955 0.0507921 4.56345e-22)
(1.01524 -1.77419e-05 2.03483e-21)
(1.00226 -0.0201324 2.51691e-21)
(0.814846 0.0840373 0)
(1.11281 0.307446 2.56677e-20)
(1.02126 0.00590103 0)
(1.01012 0.000250834 9.77062e-22)
(0.81124 0.0386217 2.4644e-21)
(0.989533 -0.273679 0)
(1.03998 0.0695343 -3.55782e-21)
(0.895499 -0.142254 1.47839e-22)
(1.0101 0.000160228 0)
(0.984233 -0.0271422 1.73453e-22)
(0.990885 0.0304557 2.65064e-21)
(1.00622 0.0362443 -2.49034e-22)
(1.02472 0.0250108 -1.98561e-21)
(0.92523 -0.250072 1.41699e-20)
(1.01524 -0.000172683 -2.68279e-21)
(1.01497 0.00116574 9.38438e-23)
(1.01964 0.00823638 7.47957e-23)
(0.828779 0.123192 1.35868e-20)
(1.01495 0.00211811 0)
(1.00472 0.170353 -5.84982e-22)
(1.01594 0.00173053 -1.11554e-21)
(1.02164 0.00491076 0)
(1.01401 -0.000819149 -9.99507e-22)
(1.01989 0.0393936 -9.50724e-22)
(0.876654 -0.132695 -5.27464e-22)
(1.01852 0.00859789 7.23697e-22)
(1.02893 0.0117181 4.91087e-22)
(0.785201 -0.112731 -4.5803e-21)
(0.988576 -0.0239042 0)
(0.980242 -0.0100498 4.63822e-21)
(1.01881 0.00832448 -3.17681e-24)
(1.0133 0.00275571 2.66155e-22)
(0.9763 -0.0261326 0)
(1.1339 0.280972 -1.97929e-20)
(1.01884 0.00592289 0)
(1.01354 -0.000664467 0)
(1.05762 0.0151433 -2.04877e-21)
(1.01667 0.00418297 0)
(1.01829 0.00442999 8.16427e-22)
(0.929801 -0.068455 -7.22096e-21)
(1.01233 -0.000204645 0)
(0.755438 0.31074 -3.52396e-21)
(1.01309 0.000716178 0)
(0.980428 0.0549967 0)
(1.0199 -0.00879065 -1.08087e-21)
(0.237306 -0.0749795 -5.0041e-22)
(1.01509 0.00214128 6.53518e-23)
(1.05889 0.0101164 -1.39078e-21)
(1.01465 0.000645846 0)
(1.0129 -3.52443e-05 -1.38991e-22)
(0.804711 -0.106165 0)
(1.01664 -0.00168332 9.96555e-23)
(0.883284 0.268755 0)
(1.04472 0.069755 2.85074e-21)
(1.01267 -0.000651161 1.8161e-21)
(1.02221 -0.00836592 0)
(0.623422 -0.29717 -2.55212e-20)
(1.1049 0.172532 0)
(0.987891 0.00134721 -3.50647e-21)
(1.00995 9.1132e-06 0)
(1.01357 -0.000702563 0)
(1.01374 -0.000966217 -1.06831e-21)
(1.01662 -0.0045845 -1.37078e-21)
(1.01206 -0.0129932 0)
(1.01934 0.00765386 -8.4729e-22)
(1.00331 -0.171768 -9.40816e-21)
(1.01694 0.00403085 5.42921e-23)
(1.01548 -0.000574446 -8.05523e-23)
(0.852571 0.368026 0)
(1.04499 0.0209814 -8.06365e-21)
(1.01056 -0.0146085 0)
(1.00711 -8.15838e-05 -3.1199e-21)
(1.01209 0.000430735 -2.02796e-22)
(0.864131 0.354415 0)
(0.894633 -0.228552 8.60025e-22)
(1.01974 -0.00726826 3.77144e-21)
(0.934015 -0.204992 5.30352e-21)
(1.01932 0.000773931 1.69291e-21)
(1.05955 0.012881 0)
(1.01397 -0.000554729 8.76126e-22)
(1.0128 -0.000690348 -1.88168e-21)
(1.01417 0.00346236 0)
(1.01391 0.00303113 -8.37145e-24)
(1.01956 0.00649819 1.15437e-22)
(1.00995 3.89286e-05 1.72233e-21)
(0.152142 -0.125685 0)
(1.02824 0.00530383 0)
(0.905222 0.0277593 0)
(1.01386 0.00189804 8.4326e-22)
(1.02095 -0.00378271 -1.93247e-21)
(1.01315 -0.000619256 -2.12e-22)
(0.972653 -0.0103457 -6.83219e-21)
(1.0773 0.236957 0)
(1.01255 -0.000588324 1.86714e-21)
(1.01412 0.00205796 0)
(0.947845 -0.00580561 1.82699e-21)
(0.992861 -0.0167551 -8.78845e-22)
(1.01305 -0.000553873 -1.5893e-21)
(0.728037 0.197163 -3.74147e-20)
(1.01281 0.000568763 -6.4511e-22)
(0.994277 0.00210427 1.51031e-21)
(1.012 -3.94199e-05 0)
(1.01295 0.000413544 1.75139e-23)
(1.01276 -2.95911e-05 -1.30116e-22)
(0.727372 -0.0912999 0)
(1.01311 -0.000557249 0)
(1.01425 0.00121688 7.00147e-23)
(1.01302 0.00121525 3.45432e-22)
(0.763964 0.234889 5.11689e-21)
(1.0104 -0.000162981 0)
(1.01398 0.00327821 8.5277e-24)
(1.00995 -7.44013e-07 1.87647e-21)
(1.08877 -0.039379 1.87318e-21)
(1.0164 0.00192112 -5.00855e-23)
(1.01485 0.00273495 -7.14598e-22)
(1.0118 -0.000138275 2.70818e-21)
(1.01497 0.00276938 9.69594e-22)
(1.02583 0.0268294 -1.34182e-22)
(1.01441 0.00267454 0)
(1.02026 -0.00295881 4.03613e-21)
(1.0141 -0.000528632 0)
(0.261792 -0.138568 5.39564e-20)
(0.967149 -0.237717 -8.67992e-21)
(1.01006 0.232307 -2.66056e-20)
(1.01695 0.00332187 4.81454e-22)
(1.05175 0.00558807 2.55057e-21)
(1.01471 0.000735837 1.4223e-24)
(0.976004 -0.083306 0)
(1.01643 -7.16568e-05 2.38323e-23)
(0.903132 -0.306697 1.59268e-20)
(0.912604 -0.00231781 8.16846e-22)
(0.996445 0.258094 1.94414e-20)
(0.994913 -0.00325077 2.79617e-21)
(0.828632 -0.100388 5.2601e-21)
(1.01907 0.000747574 0)
(1.01909 0.00539783 0)
(0.884024 -0.0487256 1.67705e-20)
(1.08554 -0.0290928 -1.30825e-21)
(1.02017 -0.0142231 0)
(1.08007 -0.00996547 -2.21978e-21)
(1.0257 0.00574107 9.18719e-23)
(0.909256 -0.183347 0)
(1.0128 0.000745112 -2.3871e-22)
(1.02071 0.00635271 0)
(1.01416 -0.000597575 0)
(1.01211 -3.74155e-05 0)
(1.01148 0.000326391 0)
(0.869563 0.0100193 -4.57907e-20)
(1.0359 0.00548785 -3.67431e-21)
(1.01045 -0.000142232 3.57238e-22)
(0.446419 -0.434945 3.98456e-21)
(1.01642 0.00349489 -4.02763e-23)
(0.961431 -0.0763314 0)
(1.01703 -0.00602603 9.32769e-23)
(1.03623 0.00273337 -7.77504e-21)
(1.00584 -0.0136577 -1.94066e-22)
(1.01061 0.000142777 0)
(0.92805 -0.284829 1.62195e-20)
(1.01332 0.000649067 0)
(1.01396 0.00291647 -1.57844e-21)
(0.919465 0.0326512 0)
(1.02169 0.00535635 2.43842e-23)
(1.01594 -0.000679457 7.61165e-23)
(1.00769 -7.27814e-06 -7.06428e-22)
(1.01308 0.000743685 -2.88604e-23)
(1.0123 0.000731122 -2.10856e-22)
(1.08963 0.00414312 -6.41389e-21)
(0.906585 -0.0682083 7.43776e-21)
(0.988427 -0.216077 8.41288e-21)
(1.02602 0.00161442 0)
(1.01368 0.000504416 1.70324e-21)
(1.01296 0.000887033 0)
(0.888467 -0.195021 -2.52765e-22)
(1.01305 0.0084542 0)
(1.01331 0.00306927 1.11945e-21)
(1.01226 -0.00025508 3.21042e-22)
(1.01275 0.000643283 0)
(0.832722 -0.141632 -5.19706e-21)
(0.927126 -0.0953511 -3.77616e-21)
(1.00625 -0.010344 9.99527e-22)
(1.01583 0.00404813 0)
(1.01215 -8.61732e-06 0)
(0.443968 -0.201514 -1.167e-19)
(1.05994 0.0110478 0)
(1.0153 -0.00913533 -2.72761e-21)
(0.972491 0.00847431 0)
(0.879428 -0.0787738 -1.37163e-21)
(0.830737 0.279412 -8.63889e-21)
(0.849264 -0.176638 -7.8264e-21)
(1.01281 0.000700502 2.10641e-21)
(1.00995 1.52856e-05 0)
(1.01327 0.000653633 -1.46597e-21)
(0.99382 -0.172233 -1.24499e-20)
(1.01272 0.000680697 2.2701e-22)
(1.05433 0.00662739 -1.00579e-20)
(1.01453 -0.000474096 8.60745e-24)
(1.01664 -0.00178402 -9.50934e-23)
(1.0112 -0.0137983 0)
(1.01629 -0.00153674 2.90836e-21)
(0.650977 -0.129907 -1.08755e-20)
(0.547327 -0.0156024 1.07885e-20)
(1.01354 -0.00094887 -6.60831e-22)
(1.01454 0.00203512 -4.6011e-22)
(1.01428 -0.00117993 9.30299e-22)
(0.931896 -0.0290352 -9.7532e-22)
(1.01211 -3.93551e-05 0)
(1.04002 -0.124501 3.01649e-21)
(1.01873 -0.0038666 -2.5843e-21)
(0.819311 -0.176098 2.00157e-20)
(1.01344 0.000535881 0)
(1.01497 -0.00115296 0)
(1.01255 -0.000577011 -3.20614e-21)
(1.01491 0.00124061 2.54546e-22)
(1.01888 0.00480451 0)
(1.01774 -0.00333247 -1.35723e-22)
(1.02053 0.00210489 0)
(1.02946 0.00625471 0)
(1.02392 -0.0167711 0)
(1.04622 0.0148176 4.65266e-21)
(1.0686 0.146305 0)
(1.0185 0.000195976 2.96497e-22)
(1.06926 -0.0287438 2.4383e-22)
(0.895568 -0.0117549 0)
(1.01541 -1.98657e-05 -1.72189e-21)
(0.733112 -0.384809 -2.53181e-20)
(1.01348 0.00176279 0)
(1.01387 0.00178121 0)
(1.0217 -0.00447152 1.16283e-21)
(1.00952 -8.83871e-05 0)
(0.916613 -0.180846 -2.24152e-20)
(1.0143 -0.000403291 1.56294e-21)
(1.01692 0.00349182 -8.93739e-22)
(1.01421 -0.000804135 1.0329e-21)
(0.865908 0.345726 -1.71562e-20)
(1.01478 -0.00102514 0)
(1.01353 -0.146986 -9.10828e-21)
(1.04903 0.0595343 0)
(1.01361 0.000479769 5.47323e-22)
(0.939572 0.0994111 0)
(0.973554 -0.200787 9.15623e-21)
(1.0177 -0.00651049 -3.09818e-23)
(1.01342 -8.06063e-05 -4.23304e-23)
(1.08578 -0.00813365 0)
(1.00392 8.57959e-05 0)
(0.92396 0.231746 0)
(1.02595 -0.0116176 0)
(1.03824 0.0164444 2.35879e-21)
(1.01284 -0.0178083 0)
(1.02529 0.00166823 0)
(1.02175 0.00623317 -1.56321e-21)
(1.01408 0.00404183 0)
(0.993568 0.00916964 8.25361e-22)
(1.02276 -0.00264927 0)
(1.01999 0.0864071 0)
(1.08351 0.184868 0)
(1.01684 -0.00194829 2.41877e-22)
(1.0177 -0.00478322 -2.83573e-21)
(1.01651 3.31411e-05 2.18213e-21)
(1.03972 -0.00472387 2.93144e-22)
(1.00411 7.2292e-05 4.25823e-23)
(1.02894 -0.178235 1.38726e-20)
(1.0288 0.00231347 4.72576e-21)
(1.01864 0.00617334 6.57228e-23)
(0.910263 0.0113569 -2.29984e-21)
(1.01324 0.000620921 2.50421e-22)
(1.08699 -0.00300333 -1.28273e-21)
(1.00602 0.0404531 5.87096e-22)
(1.01269 0.0001907 -6.42439e-22)
(1.05814 -0.0425992 -3.94443e-21)
(1.01136 -0.00379405 0)
(1.01421 0.000886233 0)
(1.01779 -0.000646525 0)
(0.981911 0.0353972 -3.00723e-21)
(1.01299 0.000644243 2.2818e-21)
(0.812267 0.288877 -1.99038e-21)
(1.02856 0.00606704 0)
(0.979625 0.0282444 -1.52334e-21)
(1.0558 0.00633341 2.83839e-21)
(1.0899 -0.0761209 2.98982e-20)
(1.01726 -0.000176064 0)
(1.00981 0.0346037 -1.06309e-22)
(1.01603 0.00134621 1.36797e-22)
(1.02979 0.00706539 4.67146e-21)
(1.04474 0.0571318 0)
(1.01245 -0.000431143 0)
(0.988641 0.0352251 3.09559e-21)
(1.01424 0.00145193 0)
(1.03008 0.0029232 4.80749e-21)
(1.01498 -0.00146123 0)
(1.0142 0.000672668 -3.09663e-22)
(1.03676 0.0129369 -3.36673e-21)
(1.03409 0.0749074 2.82149e-21)
(1.0098 0.000175041 -7.27491e-22)
(1.02605 0.00373388 -3.11355e-21)
(0.935933 -0.0679993 -1.18963e-22)
(1.01243 -0.000341811 -1.60538e-21)
(1.01338 0.000554346 0)
(1.014 0.00183328 0)
(1.01433 -0.00137375 -9.57392e-22)
(1.00324 -0.00955306 -8.77283e-22)
(1.01965 0.000906229 1.29226e-21)
(1.01574 0.00201301 0)
(1.00474 -0.00627694 2.63584e-21)
(0.940373 -0.097037 1.07607e-21)
(1.01854 0.00472754 -6.89301e-22)
(0.998077 0.00246082 -6.37655e-22)
(0.946137 0.215601 0)
(1.01262 0.000564971 2.44716e-22)
(1.01502 0.00089353 1.16052e-21)
(1.01441 -0.00129356 1.12881e-22)
(0.848078 -0.144228 0)
(0.87847 -0.0381993 1.48631e-21)
(1.04297 0.0209112 6.63534e-23)
(1.01192 0.000287478 9.30994e-22)
(1.01723 0.0776484 7.63675e-23)
(1.12183 0.250527 2.59383e-22)
(0.414408 -0.406523 0)
(1.01736 -0.0025303 2.33928e-21)
(0.830466 -0.118541 0)
(1.18293 0.144971 1.34254e-20)
(1.03563 0.192432 2.93303e-20)
(1.01193 -0.00482147 0)
(1.01769 -0.00347076 -7.72714e-23)
(1.01842 -0.00510635 1.45042e-21)
(1.07899 0.117742 8.99827e-21)
(0.956135 -0.0512102 0)
(1.02876 0.00478968 -4.2921e-21)
(0.303425 -0.322703 -1.94862e-21)
(1.04873 0.0112234 0)
(1.06743 -0.0247468 5.53411e-21)
(0.923464 -0.118835 2.40811e-20)
(1.0138 0.00197555 1.4755e-21)
(1.0249 0.0250529 1.56647e-21)
(0.906952 0.274766 1.04737e-20)
(1.04534 0.0505833 -2.22956e-21)
(0.730392 0.278165 -7.48358e-21)
(0.992831 0.0117839 1.78062e-21)
(0.203698 -0.239809 0)
(1.01617 0.00240567 -6.17562e-22)
(0.859072 -0.215657 0)
(1.02124 0.00544734 1.40884e-21)
(1.00676 -0.00659336 -1.63795e-21)
(1.00972 0.000154423 0)
(0.997532 0.00450875 0)
(1.01612 -0.000899577 0)
(1.02116 0.00682347 2.20641e-21)
(1.01438 0.0021142 -6.21369e-22)
(0.69585 -0.0615002 3.31909e-20)
(1.01456 -0.000139008 0)
(1.01686 -0.00205493 -4.37751e-25)
(0.838522 0.355151 0)
(1.02036 0.0044921 0)
(1.0524 0.0242305 0)
(1.01751 -0.00334912 -2.57069e-21)
(1.01621 0.0759473 5.46402e-22)
(1.0126 -0.00027516 -4.72659e-22)
(1.0289 0.0128405 4.47239e-22)
(1.01661 0.00386283 0)
(1.0158 0.000652574 -2.31754e-21)
(1.01646 0.00339914 8.26711e-23)
(1.05686 0.00759701 -1.22973e-20)
(1.01239 0.000785915 -1.71451e-21)
(0.976951 0.469459 0)
(1.04626 0.0160591 -1.09419e-21)
(1.06913 0.00480812 -1.3483e-21)
(1.01466 -0.000281451 -4.09904e-25)
(0.981838 -0.196252 6.00277e-21)
(1.01221 0.000612282 0)
(1.09227 -0.000361271 3.58039e-21)
(0.927596 -0.00662961 0)
(1.02387 -0.00158641 1.33994e-21)
(1.01658 0.00369794 7.30426e-23)
(1.01383 -0.00120439 -5.99709e-22)
(1.01576 0.000958912 0)
(1.01574 0.000359419 2.91113e-22)
(1.11454 0.175695 0)
(0.987654 -0.0278948 3.4364e-21)
(1.01305 0.000824108 2.04587e-21)
(1.10623 -0.0367284 -1.66083e-20)
(1.01093 -8.75748e-05 -1.72246e-21)
(1.0138 0.000586139 2.55239e-22)
(0.910321 -0.301622 4.8608e-21)
(1.01404 -0.000859231 -1.02666e-21)
(1.01618 0.000515213 -2.82977e-22)
(1.11988 0.0193751 3.06882e-21)
(1.01256 0.000699442 -1.46366e-21)
(1.04486 -0.0903244 0)
(1.03541 0.0125626 1.49761e-21)
(0.941396 0.00456312 -6.87611e-21)
(1.0549 0.020511 0)
(0.994102 -0.0249935 -8.92557e-21)
(1.02253 -0.0104652 0)
(1.01687 0.00414635 -1.75013e-22)
(0.802625 -0.426628 -6.11154e-20)
(0.687875 -0.347947 1.66317e-19)
(1.01398 0.00202379 -1.74367e-21)
(0.989166 0.0259155 0)
(0.681184 -0.147378 7.26818e-21)
(0.976805 0.440136 0)
(1.02313 0.201916 4.91829e-21)
(1.00851 -1.60575e-05 -3.14608e-22)
(1.01409 -0.00040091 0)
(1.01495 0.0018984 5.86681e-22)
(1.01933 0.0068272 0)
(1.01284 -0.00473275 -2.71702e-23)
(0.947114 -0.101674 -1.78791e-22)
(1.0512 0.00694035 -2.31495e-21)
(1.01384 -0.00107512 1.13223e-21)
(1.06916 0.0149475 0)
(0.90652 0.199001 1.18277e-21)
(0.88772 -0.00577207 -4.68781e-21)
(1.01366 -0.000936498 0)
(1.0143 -0.00109725 -9.29763e-22)
(1.00975 -0.000113044 0)
(1.02592 0.00638158 -3.2267e-21)
(0.944801 -0.294828 -2.66181e-21)
(1.09526 0.0616258 -3.84378e-21)
(1.01486 -0.00104801 -1.06456e-21)
(1.05412 0.0107661 0)
(1.03409 0.0952967 -1.79831e-22)
(1.01434 0.00426409 1.1425e-21)
(1.0123 0.00035935 -6.05379e-23)
(0.417294 -0.344584 -1.40769e-22)
(1.01129 0.00891726 0)
(0.966623 -0.0528822 1.79073e-21)
(1.01487 -0.00543379 -1.63576e-21)
(1.0104 3.5706e-05 -1.0875e-21)
(1.02607 0.00266354 0)
(1.01877 0.000931134 -1.04898e-21)
(0.968092 -0.0606036 -5.75373e-21)
(1.03766 0.0456851 2.88466e-21)
(1.01401 0.00370597 1.11793e-21)
(0.846538 0.0885993 -9.27256e-21)
(1.10063 0.200777 -1.70515e-20)
(1.02985 -0.15302 0)
(1.04206 0.0199197 1.78958e-20)
(1.01226 0.0093097 5.88011e-23)
(0.375772 -0.327832 4.47619e-21)
(1.07223 0.0146596 2.86424e-21)
(0.911391 -0.0143364 3.46642e-20)
(1.06679 0.0105314 1.61113e-20)
(1.01871 0.00527436 6.57947e-22)
(1.01318 0.00140704 0)
(1.06207 -0.130185 0)
(1.08074 0.182866 -4.04759e-21)
(1.01173 0.0038487 0)
(1.05249 0.0109534 6.41564e-21)
(1.07472 0.0132248 3.33225e-21)
(1.01435 0.00165252 -1.53658e-22)
(1.05859 -0.00689555 -1.28438e-21)
(1.01187 0.00442139 0)
(1.01472 0.000959096 3.55343e-23)
(1.00858 -7.6747e-05 1.53469e-21)
(1.07051 0.0140291 0)
(1.01416 0.000991944 0)
(1.01438 0.00221258 -3.58574e-22)
(0.095201 0.118854 -1.16435e-20)
(1.01294 0.000460664 2.19571e-21)
(1.01392 -0.000330005 -3.09963e-21)
(0.970859 0.0205839 -5.31332e-21)