/*--------------------------------*- C++ -*----------------------------------*\
| =========                 |                                                 |
| \\      /  F ield         | OpenFOAM: The Open Source CFD Toolbox           |
|  \\    /   O peration     | Version:  v2012                                 |
|   \\  /    A nd           | Website:  www.openfoam.com                      |
|    \\/     M anipulation  |                                                 |
\*---------------------------------------------------------------------------*/
FoamFile
{
    version     2.0;
    format      ascii;
    class       volScalarField;
    location    "550";
    object      k_0;
}
// * * * * * * * * * * * * * * * * * * * * * * * * * * * * * * * * * * * * * //

dimensions      [0 2 -2 0 0 0 0];


internalField   nonuniform List<scalar> 
10042
(
0.000147261
0.000148156
0.000146938
0.00015655
0.0288604
0.000148322
0.00213237
0.000251087
0.000146266
0.000147857
0.0447794
0.000156293
0.000144429
0.00014415
0.000150238
0.000148018
0.000147954
0.000149697
0.000147284
0.000168058
0.000147118
0.000223237
0.000145142
0.000145094
0.000148212
0.000155644
0.000148777
0.000149087
0.000146593
0.00014846
0.000147954
0.00788577
0.000147939
0.000148302
0.000152953
0.000145183
0.000154943
0.000158807
0.00014519
0.000155721
0.000168921
0.000149684
0.00199602
0.000147365
0.0274546
0.000172397
0.000148168
0.000181948
0.000154132
0.000169134
0.000149025
0.000148098
0.000149679
0.000149232
0.000154961
0.000148265
0.000146598
0.000148102
0.000148276
0.000149399
0.000148128
0.000147817
0.000153171
0.000146875
0.000148218
0.000148242
0.000147853
0.000163252
0.0973116
0.000146956
0.000149178
0.000170269
0.000147409
0.000155911
0.000147802
0.000145079
0.0435249
0.000147372
0.000155205
0.00361014
0.00015357
0.00311965
0.000147334
0.000149078
0.000147861
0.000149365
0.000147099
0.000176236
0.000147573
0.000147094
0.00014779
0.00514984
0.000149258
0.000147919
0.00014832
0.000146966
0.000147422
0.000146729
0.000155107
0.000146511
0.000149933
0.000172932
0.00027774
0.000149282
0.000148771
0.000162381
0.000147274
0.000147379
0.000147178
0.000143811
0.000145783
0.000146721
0.000152486
0.0803084
0.000148201
0.000146907
0.000147487
0.000147336
0.000146951
0.0488459
0.000147564
0.000261288
0.000147367
0.000147711
0.00017272
0.000147344
0.00024151
0.000154713
0.000162114
0.000147048
0.000155644
0.000147739
0.03987
0.000207823
0.000146519
0.000165303
0.0267867
0.000147855
0.000182944
0.000178056
0.000148968
0.000147459
0.000148455
0.000179844
0.000146965
0.000146726
0.000166195
0.000144635
0.000146808
0.000152211
0.000146424
0.000149676
0.0196884
0.0495621
0.000149166
0.000144386
0.000148883
0.000147767
0.000165223
0.0154378
0.0374939
0.000187675
0.00014773
0.000146412
0.000147672
0.000147721
0.000162772
0.0181982
0.00627859
0.0593059
0.000148538
0.000146737
0.00139541
0.000170278
0.000158198
0.0587274
0.0442369
0.000147358
0.000164378
0.000157017
0.000149108
0.0120027
0.000147958
0.000154599
0.000149492
0.0563422
0.000207366
0.000147795
0.0432077
0.000150462
0.000301441
0.00014846
0.0158369
0.00016204
0.000183688
0.00040599
0.000152357
0.000147378
0.000144418
0.00015007
0.00015776
0.000147866
0.000146617
0.000170865
0.000147926
0.000145645
0.000367384
0.000148948
0.00014971
0.00014958
0.000247341
0.000147462
0.000162073
0.000181776
0.000148825
0.000207033
0.000147667
0.000147724
0.00016886
0.000146199
0.000152587
0.000149043
0.000189715
0.000159574
0.000152154
0.000156388
0.000275529
0.000146821
0.000191871
0.000149545
0.000146288
0.00016877
0.000146781
0.000149522
0.000147071
0.000152366
0.000145834
0.000144068
0.000149716
0.000152823
0.000147774
0.000147408
0.000147505
0.000152551
0.000146913
0.000148009
0.000145163
0.000148943
0.00014885
0.000149772
0.000144443
0.000146933
0.000151223
0.000199475
0.000187722
0.0338157
0.000158358
0.000158135
0.000150453
0.000174985
0.00707757
0.000149397
0.000147299
0.000144226
0.000150005
0.000145812
0.00024655
0.000149669
0.000147069
0.000149637
0.000158227
0.000148958
0.000180144
0.000158239
0.00017987
0.000150556
0.000152801
0.000145811
0.00015191
0.00014707
0.00015776
0.000147436
0.000155684
0.0428057
0.000145646
0.000146733
0.00110905
0.000173057
0.000147683
0.000148119
0.000150941
0.0606697
0.000168913
0.000180314
0.000149135
0.000144398
0.000146822
0.000146366
0.000285391
0.000147215
0.000148077
0.000146755
0.000147655
0.000159559
0.000150557
0.000166795
0.0674475
0.000149069
0.0101064
0.000146912
0.000151677
0.000148718
0.00650832
0.000173315
0.000311685
0.0446571
0.000144973
0.000149689
0.000146947
0.000150839
0.00015642
0.000149573
0.000157718
0.00014573
0.000144217
0.000147403
0.000167752
0.000149883
0.000150063
0.000147693
0.000150344
0.046941
0.000146939
0.000149093
0.000147717
0.00014675
0.000161357
0.000183984
0.000158111
0.000473177
0.000159783
0.000153802
0.00014772
0.000144004
0.000147937
0.000149766
0.000154205
0.000147428
0.000148283
0.000184876
0.00014664
0.0001516
0.000149282
0.000185761
0.000146928
0.000151967
0.000161551
0.000157475
0.00014994
0.000147421
0.00267537
0.000166436
0.000148033
0.00016109
0.000147479
0.000146796
0.000147469
0.00015154
0.000209325
0.000151021
0.000149629
0.000149032
0.000149943
0.000149788
0.000168023
0.00014741
0.000145183
0.0328453
0.000146674
0.000346584
0.000155294
0.000156175
0.0614634
0.0328286
0.000154088
0.000168977
0.000148962
0.00016966
0.000149936
0.000148016
0.000241902
0.000148284
0.000151147
0.000819373
0.000148464
0.000147139
0.000160271
0.000269861
0.000148117
0.000144622
0.00792473
0.000173618
0.000146729
0.000163262
0.0169507
0.000146179
0.000149737
0.000145315
0.000147003
0.000144053
0.000145583
0.00496991
0.000266916
0.000148086
0.0553425
0.000144174
0.000147183
0.00020871
0.000147396
0.000357037
0.000170156
0.000149079
0.000144973
0.000144548
0.000171319
0.00014872
0.000154277
0.000148349
0.0529623
0.00014863
0.000179964
0.000149938
0.000147371
0.000146907
0.000215168
0.00014748
0.000152341
0.000147168
0.000146853
0.0131921
0.000152499
0.000147412
0.00014617
0.00669018
0.000147021
0.000152736
0.00015
0.000145834
0.0389282
0.0635462
0.00014698
0.000148086
0.000151247
0.000144435
0.000147849
0.000147641
0.0113794
0.000147789
0.000146371
0.000154659
0.000302297
0.000167731
0.00014977
0.000156767
0.0264754
0.000160839
0.000147428
0.000147469
0.000207795
0.000147862
0.000147411
0.000154789
0.000146498
0.000145589
0.000149265
0.000144703
0.000158517
0.000147243
0.000147506
0.033404
0.000146133
0.000148384
0.000148297
0.000148184
0.000157769
0.000147012
0.000146656
0.000316672
0.000148694
0.012673
0.000149308
0.000149868
0.000149831
0.000174973
0.000147427
0.00014745
0.000147898
0.000148199
0.000154026
0.00161285
0.000147037
0.000158464
0.000374494
0.00016076
0.000149716
0.000147587
0.000147367
0.000149286
0.000146948
0.0327211
0.0185922
0.000148358
0.000154739
0.000155157
0.000154721
0.00014782
0.000145389
0.000305361
0.000171344
0.00031266
0.000144928
0.000147503
0.000147297
0.000146708
0.102952
0.000158803
0.000148204
0.000146918
0.00014653
0.000147732
0.000310629
0.000152496
0.000148828
0.00670014
0.000222511
0.000185762
0.000162805
0.000147902
0.000146597
0.000173947
0.000165191
0.0684883
0.029166
0.000151495
0.000152602
0.000149343
0.00014996
0.000148079
0.000149262
0.0401517
0.000145104
0.000146926
0.000171552
0.000149342
0.000258177
0.000149043
0.000194583
0.000155177
0.000149595
0.000149529
0.000152993
0.000163158
0.000162867
0.000165506
0.000149871
0.000169119
0.000149309
0.000146909
0.000148679
0.000148019
0.000148073
0.000151745
0.000167793
0.000158584
0.000148852
0.000148859
0.000147866
0.000147306
0.000168067
0.000147309
0.000149984
0.000215263
0.000144715
0.000165269
0.000181829
0.000148096
0.049763
0.000164094
0.000149337
0.000201903
0.000147248
0.000149771
0.000147673
0.000147698
0.000149944
0.000150544
0.000147751
0.000207334
0.000148974
0.000147612
0.000148065
0.000157945
0.000158708
0.000147683
0.000150942
0.000146597
0.000158142
0.000147526
0.000155368
0.000145228
0.000149431
0.000144532
0.000147377
0.0595945
0.000145362
0.000167112
0.000147618
0.000148832
0.000145993
0.000158654
0.000148361
0.000164868
0.00014764
0.000199248
0.000149724
0.00116193
0.000144588
0.000150123
0.000149793
0.000147717
0.000147553
0.0001505
0.000148067
0.000167689
0.0150371
0.000244611
0.000150559
0.000157925
0.000146508
0.00015877
0.000172579
0.000147885
0.000154616
0.000165776
0.0750506
0.000182444
0.000326307
0.000153697
0.000147625
0.000149497
0.00015151
0.000150559
0.000160911
0.000145
0.000149895
0.000183809
0.000149742
0.000147308
0.000151306
0.0939097
0.00014991
0.000155983
0.000174071
0.000149646
0.00313966
0.000145123
0.000146686
0.000148507
0.000146539
0.0081271
0.00017541
0.0961953
0.000148221
0.000578326
0.0384102
0.000197847
0.000160649
0.00017507
0.000191897
0.000159656
0.000147691
0.000147185
0.000155202
0.00892372
0.000146425
0.000155097
0.0482475
0.000147201
0.000147187
0.000146952
0.000149342
0.000147504
0.000147075
0.00017424
0.00104566
0.000146988
0.000147789
0.0415586
0.0502326
0.000146548
0.000147454
0.000148941
0.000147016
0.000213852
0.000175429
0.000178509
0.00014877
0.000147141
0.000146311
0.000149164
0.000148189
0.000158242
0.000148736
0.0760798
0.000147837
0.000148359
0.000160374
0.000146416
0.000158874
0.000162855
0.000149258
0.00905947
0.0903338
0.000147646
0.000146944
0.0191802
0.0303471
0.000158025
0.000147181
0.000195997
0.000171596
0.000152258
0.000147654
0.000147768
0.000147261
0.000184201
0.000150513
0.000165552
0.00014977
0.0482363
0.000206965
0.0001476
0.000147734
0.000167158
0.000148901
0.000145972
0.00015196
0.0785768
0.0723133
0.0498816
0.000148149
0.000171955
0.000159275
0.000145276
0.000147015
0.000149226
0.000182754
0.000149311
0.000147589
0.000171969
0.000147803
0.000168278
0.000148624
0.000148604
0.000145651
0.00014891
0.000205363
0.000149258
0.000146952
0.000163659
0.000161982
0.000183127
0.000149338
0.000174937
0.0799824
0.0102675
0.000149272
0.00967338
0.0159242
0.000147219
0.000144517
0.000148803
0.000149791
0.0532609
0.000150082
0.000148705
0.000149311
0.0306925
0.000158494
0.000147988
0.000148844
0.000147436
0.000161621
0.000146078
0.000146687
0.000157392
0.000149177
0.000149305
0.000146307
0.000224508
0.00014673
0.000149115
0.000148033
0.00014833
0.000178905
0.000149286
0.000149474
0.000148331
0.000151871
0.000196885
0.000149941
0.000181464
0.000152549
0.0620881
0.000145779
0.000150077
0.000157007
0.000174748
0.000160329
0.00014872
0.000301714
0.000744559
0.000148624
0.000146718
0.000214524
0.000148387
0.000149643
0.000145897
0.000149574
0.000167267
0.000149948
0.000149949
0.000162794
0.000154629
0.000155349
0.000155895
0.000149054
0.0575712
0.000149584
0.000202183
0.000147004
0.000171455
0.000158466
0.0492827
0.000150855
0.0981741
0.000149778
0.000152011
0.000148113
0.000147489
0.000147464
0.000192674
0.00015856
0.000168309
0.0316597
0.000148684
0.000100341
0.000152308
0.000146409
0.000155619
0.000156352
0.0860992
0.00014771
0.00015417
0.000161284
0.000150064
0.000158713
0.000149882
0.000144763
0.000149878
0.00018018
0.000148791
0.000147829
0.000145936
0.000145899
0.000147406
0.000147726
0.000148196
0.00014684
0.000148909
0.000148639
0.000152155
0.000155663
0.000147754
0.063778
0.000147155
0.00049926
0.000157832
0.0506717
0.000160362
0.000151735
0.006977
0.000159039
0.000181911
0.00749737
0.000161371
0.000149262
0.000146775
0.000149474
0.000179571
0.000146903
0.0519935
0.000146809
0.00873501
0.00311602
0.00017303
0.00014898
0.0453548
0.0469566
0.000149706
0.00014769
0.000149736
0.000150905
0.000144689
0.000145531
0.000164609
0.000240995
0.000148382
0.000146862
0.000148463
0.00021612
0.000174766
0.000148942
0.000151933
0.000177477
0.000148513
0.000147986
0.045106
0.000148023
0.000147223
0.000561998
0.000150852
0.000147594
0.00604678
0.068443
0.0611986
0.000147286
0.00014969
0.000240155
0.000145931
0.000146991
0.000149886
0.000155469
0.000148118
0.00014862
0.00014989
0.000159544
0.000172237
0.000146318
0.000147557
0.000148386
0.000146814
0.000148609
0.000144945
0.000188172
0.000154822
0.000147339
0.00014772
0.000146165
0.000147628
0.000148331
0.075353
0.000155306
0.000144557
0.000147394
0.000158638
0.0505948
0.000148126
0.000147676
0.00014803
0.000144607
0.000174836
0.000168156
0.000146381
0.000148296
0.000155778
0.000168104
0.000149049
0.000149876
0.000151795
0.000147237
0.00015259
0.000148211
0.000854876
0.000159097
0.000148317
0.000152647
0.00019733
0.000154394
0.000200269
0.000151902
0.000257962
0.000149788
0.000147574
0.000151774
0.000174425
0.000147303
0.000146463
0.000149587
0.000148655
0.000166608
0.000169697
0.00053884
0.000148718
0.00014775
0.000154484
0.000147315
0.000147353
0.000598895
0.000150541
0.000147496
0.000147714
0.000178187
0.000261325
0.000147737
0.000147682
0.000180723
0.000146432
0.000148574
0.000147412
0.000180375
0.000149364
0.000152606
0.00654277
0.00014804
0.000149036
0.0875015
0.000147156
0.000171402
0.000147077
0.00014996
0.000160149
0.000147686
0.000148467
0.000147795
0.000149912
0.00019174
0.00014734
0.000148795
0.000173817
0.00015235
0.00029645
0.100305
0.000161642
0.000149356
0.000197634
0.000146715
0.0107071
0.000149031
0.000147494
0.000146119
0.00708429
0.000149356
0.000148162
0.000148977
0.000158673
0.0809968
0.000154501
0.00016454
0.00014734
0.000148795
0.000160915
0.000154996
0.000146696
0.000151928
0.000147181
0.0169827
0.0403871
0.000148822
0.000149327
0.000149432
0.00150203
0.000148947
0.0106369
0.000147679
0.000146614
0.000146369
0.000148399
0.000150406
0.000149792
0.00014775
0.000147741
0.000191067
0.000185175
0.000146972
0.000151236
0.000150547
0.000159712
0.000146695
0.00015246
0.000149267
0.000147684
0.000149733
0.000156574
0.000149855
0.000147204
0.000153324
0.000146221
0.000178089
0.000149543
0.000172547
0.00014786
0.000148074
0.000146602
0.000178957
0.000159909
0.000146196
0.000151336
0.000175428
0.000148372
0.000146216
0.000152231
0.000149448
0.00744946
0.000175305
0.000151828
0.00834706
0.000149577
0.000159104
0.000177646
0.00015885
0.000158463
0.00806152
0.000155911
0.000191358
0.000147313
0.000149197
0.000146708
0.000147581
0.00015324
0.000146271
0.00017221
0.000147248
0.000147698
0.000165995
0.000147501
0.000169889
0.000152382
0.000152278
0.000146801
0.000159217
0.000226214
0.000143534
0.000157209
0.0619694
0.000158781
0.000146299
0.000155871
0.000147756
0.000146426
0.000248707
0.000146718
0.00014629
0.000167219
0.000147188
0.000153462
0.000146335
0.000147804
0.0324535
0.000146959
0.000145505
0.000151369
0.000147279
0.000144468
0.000149648
0.00015087
0.000147861
0.000148428
0.000144849
0.000179501
0.000148477
0.000151358
0.000147373
0.000157618
0.00014894
0.000147343
0.000149399
0.000148553
0.000146265
0.00016911
0.000161619
0.000154882
0.000150058
0.00016332
0.000175738
0.000153708
0.000154158
0.000149257
0.036659
0.000147514
0.00014747
0.000147267
0.000149549
0.000157657
0.000147055
0.0306329
0.0458855
0.00142668
0.000148426
0.00015139
0.000159531
0.0001445
0.000164991
0.000161383
0.000227462
0.000174474
0.0674416
0.000175609
0.000204746
0.04823
0.000154441
0.000149309
0.000152024
0.000146288
0.0766864
0.000148627
0.00015481
0.000146465
0.000152039
0.000148125
0.06522
0.0820505
0.000149294
0.0125417
0.000213458
0.000201447
0.000165382
0.000168931
0.000145525
0.0646362
0.000147265
0.0111813
0.0375577
0.000149298
0.000147353
0.00014781
0.000149954
0.000151571
0.000159528
0.000205228
0.000148722
0.000148079
0.000151873
0.000148132
0.000148066
0.000152876
0.000146743
0.000148238
0.000224558
0.00016921
0.000148096
0.0044731
0.000149068
0.000149797
0.000150036
0.000199463
0.000147464
0.0001459
0.000182722
0.000179377
0.000146509
0.000151942
0.000195388
0.000168099
0.0712278
0.000146284
0.000197345
0.102368
0.0632544
0.000148423
0.000147472
0.000172986
0.000152917
0.00016052
0.000148135
0.0832149
0.000166866
0.00019428
0.000147433
0.000147634
0.0112911
0.00020115
0.000148898
0.000149797
0.0637895
0.000147349
0.000145067
0.00014649
0.000149971
0.000149243
0.000155041
0.000147804
0.000150317
0.000145145
0.000158151
0.0204119
0.000164759
0.00015907
0.041099
0.000173154
0.000145354
0.000146391
0.000147014
0.000149877
0.000177507
0.000155069
0.000147442
0.000147249
0.000147659
0.000144993
0.000156475
0.000145085
0.000160566
0.000150655
0.000148716
0.0797688
0.0487329
0.000148562
0.0428236
0.000157253
0.000158166
0.000149739
0.0001452
0.0265042
0.000172938
0.000147273
0.000145904
0.000147415
0.000153157
0.000149725
0.000194088
0.000144366
0.000148241
0.000147606
0.0700498
0.0660076
0.000144438
0.000147755
0.000173755
0.000189562
0.000151363
0.0143008
0.0868227
0.000146341
0.000148843
0.000147913
0.000149488
0.0486691
0.000148071
0.000149886
0.000180318
0.000176312
0.00014936
0.000147469
0.000163205
0.000149881
0.000148358
0.000174338
0.000177991
0.0538719
0.000147681
0.000180033
0.000158937
0.000170742
0.000149585
0.000154005
0.000147458
0.000148447
0.000167851
0.000152626
0.000147783
0.000151711
0.0204814
0.000144536
0.000146564
0.00014448
0.000166234
0.000147501
0.000148443
0.000143711
0.000147506
0.000218523
0.0713501
0.00014803
0.000888073
0.103748
0.0495431
0.000147458
0.000147599
0.00014669
0.000147138
0.000148673
0.000148897
0.000145156
0.000148411
0.000146275
0.00015109
0.0393667
0.00015838
0.000278132
0.000156174
0.00014802
0.000149696
0.000157185
0.00014796
0.000146845
0.000160041
0.000156906
0.000203177
0.000164052
0.000144273
0.0103137
0.000149206
0.000144177
0.000147007
0.000265768
0.000164709
0.000149133
0.000152497
0.000148338
0.000148509
0.000156331
0.000163468
0.000154665
0.00386848
0.00014843
0.000148028
0.000213743
0.000159041
0.000152105
0.000190605
0.000149503
0.000164444
0.000233799
0.000170117
0.00692279
0.000146629
0.000146163
0.000147407
0.000148163
0.000148506
0.000149669
0.000162943
0.000170409
0.05234
0.000148347
0.0331988
0.0084299
0.000151098
0.000292237
0.000147923
0.000176844
0.026714
0.000147191
0.000181353
0.000144831
0.000241059
0.000149248
0.000213279
0.000146965
9.83167e-05
0.000162063
0.0456437
0.000146769
0.00020256
0.000145495
0.000149545
0.000273528
0.000146719
0.00658065
0.109266
0.000328732
0.0104093
0.000182558
0.0513597
0.000160945
0.000147929
0.000160947
0.000165779
0.00344802
0.000148377
0.000147933
0.000148816
0.000163896
0.000147629
0.000147969
0.000147931
0.0436223
0.0852523
0.000147469
0.0286812
0.000162927
0.000145883
0.000159613
0.000153904
0.0761373
0.000155602
0.000146305
0.000191167
0.000148336
0.000147387
0.000148468
0.000177553
0.000172105
0.000146512
0.000153298
0.000148622
0.000149712
0.000146361
0.0717587
0.000149895
0.000146481
0.000439688
0.000226708
0.000150768
0.000146781
0.0484518
0.000154527
0.000149903
0.000147146
0.000161283
0.000149557
0.000153804
0.000151686
0.00207305
0.000161058
0.000171596
0.000144214
0.000157851
0.00016681
0.000154348
0.00014829
0.0658304
0.000149651
0.000198498
0.000147055
0.000149224
0.000157355
0.000210334
0.00015003
0.000152072
0.000148646
0.000158349
0.000173598
0.000180686
0.000154458
0.000149944
0.000147552
0.000154155
0.000179916
0.000147449
0.000164947
0.000147896
0.000147484
0.059704
0.000147151
0.0724716
0.000147516
0.000153532
0.000176446
0.000147213
0.000154977
0.000183775
0.000180804
0.000147082
0.000179004
0.000148622
0.000149733
0.0001474
0.0291524
0.039781
0.000147218
0.000147393
0.000145349
0.000146472
0.000181349
0.0115601
0.000147101
0.00022199
0.000145912
0.000146394
0.000147072
0.000322788
0.000149347
0.000150745
0.00014754
0.000147348
0.00014749
0.000149684
0.000149705
0.000157745
0.0055573
0.000145308
0.000147176
0.000158734
0.000171273
0.000146449
0.00517007
0.000166516
0.0001463
0.000144433
0.000147756
0.000188063
0.000146175
0.000178434
0.000154933
0.000150093
0.000146291
0.000165711
0.000144398
0.000169344
0.000154231
0.000148287
0.000459402
0.000117657
0.000143595
0.000146988
0.00995252
0.000184821
0.000177428
0.000150869
0.000178133
0.000144736
0.0951265
0.000176151
0.000146345
0.0327313
0.0653729
0.000149869
0.000163078
0.00016855
0.000146261
0.0621069
0.000147869
0.000153825
0.00015581
0.000148
0.000148166
0.000161564
0.000146918
0.000147015
0.000146909
0.00155658
0.000146657
0.00014736
0.000146193
0.000147041
0.000146696
0.000149488
0.000169981
0.000159483
0.000150158
0.000149633
0.000305916
0.00014806
0.000146677
0.000147136
0.000145302
0.000148439
0.000147599
0.00015533
0.000181659
0.000149445
0.000156808
0.000160815
0.000146239
0.000154167
0.0762228
0.000149027
0.000144559
0.000148402
0.000164354
0.000149284
0.000149289
0.000151298
0.000151921
0.00264178
0.0122519
0.000146582
0.000146829
0.00014746
0.000163594
0.000156777
0.000146368
0.000154405
0.000165206
0.000147821
0.000153631
0.000148784
0.000175789
0.000212808
0.000149149
0.000170293
0.000152643
0.0760663
0.000149309
0.00014708
0.0997719
0.000167747
0.000151293
0.00019476
0.000165076
0.0210381
0.000160222
0.000192408
0.000152698
0.000151732
0.017888
0.000153466
0.000204747
0.000156148
0.000176748
0.0499079
0.000149951
0.000147746
0.000147667
0.000187191
0.000143768
0.0148449
0.00016088
0.0263639
0.000149404
0.000167376
0.000189811
0.000147424
0.000147868
0.000164019
0.000155663
0.000148454
0.000151688
0.00016471
0.000175921
0.000172612
0.000186327
0.0271407
0.000174532
0.00014865
0.000149278
0.0524524
0.000163798
0.000149095
0.000158894
0.0642746
0.000148159
0.000150508
0.000147462
0.00015493
0.000148089
0.000148581
0.000158103
0.000147834
0.000154373
0.0413679
0.0151674
0.000145876
0.000152638
0.000153831
0.000179961
0.000160124
0.000148212
0.000147304
0.000166426
0.00989051
0.000147415
0.000151988
0.000147815
0.00112834
0.000146784
0.000155942
0.000320021
0.000305013
0.000149797
0.000169483
0.000170145
0.000170094
0.000152537
0.000147957
0.0829805
0.000146615
0.000153138
0.000148002
0.000155455
0.000145123
0.000145295
0.000147699
0.000171291
0.000146628
0.000147644
0.000146485
0.000147256
0.000146908
0.000147674
0.000176849
0.00822986
0.0721275
0.000152487
0.000148225
0.000156161
0.000150329
0.0685556
0.000149891
0.000171391
0.000145273
0.000147787
0.000148385
0.000159352
0.0117879
0.000147579
0.0535625
0.000147932
0.000144373
0.000149595
0.0328712
0.000150128
0.000159439
0.066475
0.000149889
0.000147937
0.00893685
0.000147154
0.00160013
0.000148457
0.000157786
0.0414777
0.000148668
0.000148532
0.000146787
0.0224341
0.000153601
0.000146986
0.000198728
0.00014758
0.000148891
0.000174861
0.0540346
0.000174089
0.105039
0.000814225
0.000164484
0.000150389
0.000172414
0.000196626
0.000146598
0.000146944
0.000149481
0.000153623
0.000164318
0.000147736
0.000152279
0.000147146
0.000147572
0.0528819
0.000149451
0.0357872
0.000144719
0.000157736
0.000174835
0.000146565
0.000144324
0.0994032
0.0662688
0.000168471
0.000148407
0.000151839
0.000171166
0.000146177
0.000159772
0.000179491
0.000162979
0.000157398
0.0335265
0.0428907
0.000144541
0.00014878
0.000145311
0.000149227
0.00014893
0.000153966
0.0143457
0.000148687
0.000147592
0.000166058
0.0357049
0.000144791
0.000244815
0.000145061
0.000187884
0.00017064
0.0740703
0.000177474
0.000161553
0.000161809
0.000144368
0.000144261
0.000191424
0.000152411
0.000148457
0.000201437
0.000146764
0.000148432
0.000145145
0.000166903
0.000175995
0.00020853
0.000169224
0.000155057
0.00015548
0.000147248
0.0568019
0.000206856
0.000149725
0.000147667
0.000146215
0.000181871
0.0708785
0.000158075
0.0577953
0.00014937
0.000146231
0.0325882
0.000147175
0.108296
0.0312275
0.00014604
0.000155685
0.000258521
0.000151246
0.00015792
0.000146541
0.0588664
0.000153366
0.000171396
0.00902791
0.00734436
0.000154671
0.000154644
0.000148801
0.000177097
0.0693675
0.000149186
0.000150723
0.0484917
0.000160799
0.000163488
0.000149739
0.000687392
0.0133351
0.000165609
0.00014762
0.000153604
0.000147075
0.000330406
0.000175643
0.000158889
0.0316411
0.0703183
0.000144368
0.000189057
0.000148559
0.00103559
0.000165769
0.000153322
0.000152002
0.000213883
0.000143389
0.000174598
0.00943779
0.094383
0.000149721
0.000148026
0.000146352
0.00016651
0.000272094
0.000183184
0.104825
0.000182949
0.000161876
0.000146753
0.090462
0.000177921
0.0001548
0.000173358
0.00767295
0.0381085
0.0236348
0.04358
0.05057
0.0255752
0.000147488
0.000154804
0.00015812
0.000147003
0.0483367
0.000201471
0.000147941
0.0203064
0.00014876
0.000147761
0.000146205
0.000157204
0.000146897
0.0689179
0.000161978
0.000216344
0.00014599
0.000204925
0.000160594
0.000250559
0.0172214
0.000148741
0.000154643
0.000159209
0.000162758
0.000146317
0.000145281
0.000147035
0.0635836
0.000146285
0.000146397
0.000217501
0.000149831
0.0587784
0.000148139
0.06657
0.00014754
0.000148245
0.00014713
0.000147288
0.000153591
0.000151346
0.0721381
0.000156033
0.000161245
0.0862685
0.000146497
0.0804353
0.000146412
0.104754
0.00323382
0.0612761
0.000173627
0.00014719
0.000149799
0.0501124
0.000147373
0.000153143
0.000148637
0.000156153
0.0713123
0.000146987
0.000146792
0.000147144
0.000149745
0.00989455
0.0415517
0.000146678
0.000143712
0.0795863
0.0648178
0.000146882
0.033267
0.000149739
0.0744291
0.0947595
0.000175902
0.000187818
0.000205417
0.000164919
0.029165
0.000179438
0.000147681
0.000144547
0.000146315
0.0900311
0.0561653
0.000149654
0.000154408
0.0253704
0.000146831
0.0131692
0.000146696
0.000147073
0.000145218
0.00119359
0.000177428
0.000146247
0.0622225
0.000149657
0.00139406
0.00864966
0.000146112
0.000148622
0.000186644
0.00014756
0.000147891
0.000146608
0.062401
0.00015644
0.000148029
0.000148758
0.0526077
0.000147594
0.000160083
0.00014771
0.0605156
0.000148552
0.000168856
0.000158581
0.0401752
0.00967168
0.000156774
0.000179747
0.000170419
0.000148358
0.000166717
0.0579812
0.000146232
0.000178339
0.000146151
0.000202503
0.000147088
0.0714229
0.0448177
0.000167078
0.0501309
0.0537721
0.000158647
0.000148503
0.000287023
0.000147315
0.0719363
0.000152283
0.000219219
0.000146862
0.00015686
0.00016357
0.000155655
0.000147766
0.000147532
0.000149234
0.0155561
0.000173239
0.0583997
0.0594107
0.000153973
0.000145147
0.000162228
0.00254018
0.000157115
0.000146496
0.000148398
0.000166423
0.00131709
0.00241644
0.0393366
0.00016037
0.000148065
0.000146253
0.000168345
0.000165463
0.00019818
0.00014779
0.000148315
0.0122895
0.000171034
0.000149893
0.000173953
0.00019711
0.000182956
0.000145232
0.000160869
0.000205945
0.000232014
0.00361926
0.00022379
0.00014719
0.000149775
0.000148739
0.00014989
0.000147656
0.000148482
0.000157245
0.000174241
0.000159094
0.000154324
0.000155039
0.000149189
0.000152983
0.000148522
0.000157979
0.000156877
0.000146534
0.000154754
0.00014737
0.000146674
0.000148744
0.000148692
0.000195426
0.000144981
0.00016469
0.000197134
0.000196422
0.0726936
0.0427033
0.000151659
0.000149533
0.000147134
0.0799575
0.000146845
0.000143966
0.000149073
0.0134382
0.000156071
0.000159098
0.000234966
0.000150143
0.000148044
0.000155766
0.000146951
0.000160942
0.000149893
0.000157644
0.000146298
0.000147297
0.00014961
0.000150343
0.000151966
0.000197772
0.000162206
0.000170041
0.000169513
0.000191043
0.000162738
0.000171102
0.000146778
0.0480264
0.000151302
0.00015341
0.000147318
0.00014881
0.000171241
0.00014771
0.000164586
0.00360028
0.000154868
0.000181254
0.000174009
0.000162208
0.000165879
0.000163587
0.000147409
0.000155008
0.00014848
0.00016816
0.000164101
0.0783344
0.000146082
0.000163725
0.000153078
0.0768416
0.000347515
0.000165748
0.00014854
0.00016577
0.000144738
0.000173855
0.000149347
0.0760273
0.000145407
0.00015261
0.000147909
0.000158635
0.000190472
0.000156461
0.00915202
0.000148096
0.000156777
0.000163626
0.000147901
0.000527154
0.0852732
0.000197471
0.000171474
0.000164846
0.000146586
0.000146319
0.0214343
0.000172162
0.000145386
0.000148432
0.000151766
0.000147384
0.00019738
0.000146317
0.102941
0.000180248
0.000195657
0.000159458
0.000148187
0.000145462
0.000146611
0.00017603
0.000164593
0.000153251
0.0193233
0.00014907
0.000149637
0.000153755
0.0626893
0.000144262
0.000340845
0.00014339
0.11115
0.00014719
0.000147132
0.000157894
0.000147689
0.000147938
0.000186856
0.000147705
0.000148133
0.000146373
0.000162952
0.000152542
0.042373
0.000147756
0.000147676
0.000146713
0.000190562
0.000146505
0.000154593
0.000164309
0.0347171
0.0364507
0.000517296
0.000199892
0.000194735
0.000162154
0.000163166
0.000153692
0.000149643
0.000148695
0.0757138
0.00016232
0.00014449
0.000147599
0.000147493
0.00015458
0.000168937
0.000149647
0.000155345
0.000186575
0.000202451
0.000170124
0.000147598
0.000149549
0.0320929
0.000150402
0.000144962
0.0547225
0.0119375
0.000145757
0.000143638
0.000153613
0.000148202
0.000157951
0.000149627
0.00535358
0.0001498
0.0396921
0.000147439
0.013555
0.000155854
0.000147216
0.00017393
0.000144936
0.00014718
0.000149743
0.000158101
0.00019889
0.000146845
0.000198065
0.000149894
0.000149265
0.000167241
0.000145953
0.000148745
0.000148557
0.000143978
0.000147179
0.000144288
0.000149015
0.000261377
0.000146831
0.000146213
0.000162938
0.000145238
0.000147463
0.000149025
0.000147986
0.0643311
0.000183382
0.000147591
0.000149115
0.000147035
0.000149894
0.000210612
0.000148208
0.00014768
0.00921275
0.000147577
0.000165397
0.000172335
0.000158797
0.000146804
0.000213771
0.000147179
0.000278216
0.000162954
0.000146895
0.0204868
0.0343498
0.000154287
0.000168525
0.000146596
0.00014715
0.000160254
0.000219716
0.000146323
0.00014678
0.000147971
0.000161881
0.00014858
0.000158706
0.000148631
0.000164615
8.62323e-05
0.00015931
0.000204373
0.000146655
0.000151579
0.000155117
0.000158516
0.000145655
0.000147375
0.000149561
0.000158001
0.00016402
0.000148265
0.00018392
0.000146917
0.111864
0.000144409
0.000146242
0.000171828
0.000149793
0.000174723
0.000180954
0.000159363
0.000147066
0.00014956
0.000147137
0.000159595
0.000147753
0.000161471
0.000152798
0.000147763
0.000145613
0.000154065
0.0434616
0.000157292
0.000161725
0.00777785
0.00164979
0.000159659
0.000144748
0.111319
0.000147124
0.000150274
0.000148443
0.000185327
0.000147037
0.000158304
0.000154151
0.000150456
0.000148696
0.000152358
0.000149268
0.000171979
0.000147413
0.000149158
0.000147195
0.000154765
0.000500584
0.00014742
0.0221268
0.000164724
0.000143815
0.058533
0.000310748
0.000146619
0.000149861
0.000181436
0.000146322
0.000147236