/*--------------------------------*- C++ -*----------------------------------*\
| =========                 |                                                 |
| \\      /  F ield         | OpenFOAM: The Open Source CFD Toolbox           |
|  \\    /   O peration     | Version:  v2012                                 |
|   \\  /    A nd           | Website:  www.openfoam.com                      |
|    \\/     M anipulation  |                                                 |
\*---------------------------------------------------------------------------*/
FoamFile
{
    version     2.0;
    format      ascii;
    class       surfaceScalarField;
    location    "550";
    object      meshPhiCN_0;
}
// * * * * * * * * * * * * * * * * * * * * * * * * * * * * * * * * * * * * * //

dimensions      [0 3 -1 0 0 0 0];
oriented        oriented;


internalField   nonuniform List<scalar> 
14907
(
-0.00748865
-0.0162608
0.0236974
0.00424341
0.0207507
-0.0255339
-0.0201239
0.022093
-0.00221076
0.00138191
0.000998917
-0.000312748
0.00282981
-0.002518
-0.0249543
-0.00383357
0.0288341
0.00194331
0.00391449
-0.00585679
-0.00252384
-0.00187704
0.00439284
-0.00130568
0.0227749
-0.0212532
-0.0240995
0.0301364
-0.00577272
-0.00178713
0.00271122
-0.000924128
0.00543666
-0.00132555
-0.0167849
0.00331016
0.0147739
0.00170178
-0.0129962
0.0120595
0.0013803
-0.0120539
0.0106307
0.00633936
0.0202951
-0.0256974
-0.0232502
0.030505
-0.00510119
0.00474509
0.000309253
0.0221635
-0.0296673
0.00430116
-0.00332272
-0.000982669
-0.0345582
0.0377379
-0.00104558
0.00600878
-0.00611058
8.82197e-05
-0.00182806
5.41777e-05
0.00303956
-0.00678087
0.0264317
-0.0198658
-0.0180599
0.0217639
0.000731515
0.00944071
-0.0102179
-0.00242495
0.0247811
-0.0217217
0.000445438
0.0133884
-0.0139357
0.0035741
0.0164872
-0.0197952
-0.000364304
-0.0158308
0.0160658
-0.0330778
0.00892722
0.0242413
-0.00284397
0.00154449
0.00129942
-0.0282569
0.00397766
-0.0239687
0.015106
0.00880003
0.0122635
-0.000845986
-0.011562
-0.0291913
0.022077
0.00198123
0.00889031
-0.0109173
0.00956997
-0.00815203
-0.00141831
-0.00706353
-0.021054
-0.0109412
0.00260709
0.00825289
0.00199346
0.00230575
0.00129197
0.0109559
-0.0123217
-0.00349862
0.00544359
0.0279342
-0.00586037
-0.0223253
-0.00285731
0.00254356
0.00767308
-0.000181245
-0.0075144
-0.00446669
-0.00794693
0.0122631
0.00667884
-0.00736075
0.000690307
-0.014935
0.00926583
0.00557778
0.00788216
0.000509318
-0.00840536
-0.00345393
0.00754342
-0.00319795
-0.0159802
0.0115566
-0.0156554
0.00716277
0.00838526
-0.00425407
-0.0072656
0.0113792
0.00957693
-0.00763794
0.00417352
-0.028645
-0.0142645
0.0180964
0.012235
-0.0169062
-0.00719146
-0.0168739
-0.00469342
-0.0111415
-0.0286902
0.00168349
0.0270721
0.0210411
-0.0256632
0.00496409
0.00329417
0.0088403
-0.0230045
0.00259858
0.00861907
0.0071152
-0.0157769
0.0215709
-0.021862
0.000189169
0.0234034
-0.00766274
-0.0158449
0.000423666
0.00440021
-0.00482984
0.00342785
-0.00224691
-0.00118142
-0.0259007
0.00383813
0.0221311
0.00786515
-0.012242
-0.00123004
0.0195748
0.00811438
-0.00596178
-0.00101901
0.00696547
0.016655
-0.0212449
0.00435278
0.00553319
0.0198969
0.00293532
-0.000106333
0.00041937
0.0255053
-0.0259338
0.00144201
0.00612814
-0.00761277
-0.005555
0.00185942
0.00369808
-0.00531923
-0.00966049
0.000300007
-0.00315898
0.0246263
-0.0209945
-0.00384526
-0.00158463
0.013487
-0.0119554
0.00367929
0.019578
-0.00949043
0.00933501
6.79974e-05
-0.0384395
0.0182492
0.0199247
0.0053893
-0.00157779
-0.00381799
0.0069923
-0.0210277
0.0137861
-0.00958479
-0.0289606
0.0220793
-0.00283065
-0.0192747
-0.00220356
0.00250222
-0.0118622
0.0122158
-0.00233899
0.015676
-0.0161716
-0.0262416
0.00708646
0.0192493
-0.00926899
0.0275402
-0.0181573
0.0211528
-0.0194195
-0.00164458
-0.00104234
-0.0100025
-0.00285905
0.0167794
-0.0137082
0.00224087
-0.00224087
-0.005356
0.000507386
0.00482828
0.000195837
0.00466509
-0.00487136
0.000280971
-0.010206
-0.000863034
0.0147692
-0.0139566
-0.00325078
-0.0022265
0.00546286
0.00751182
0.0147259
-0.0225521
-0.0262749
0.0170831
0.000262395
-0.032709
0.0194822
-0.0177434
0.00143514
-0.00844806
0.00901375
-0.00857436
-0.016939
0.0257838
-0.00131821
0.0119896
-0.0108106
0.00195244
0.00147517
-0.00885038
0.0174141
-0.0300598
0.00253086
0.0277765
0.0194336
0.00620454
-0.0256693
0.0225741
-0.00244271
-0.0236752
-0.00140592
0.00275582
-0.00135037
0.0242749
-0.0176161
0.00324108
-0.00577257
0.0213606
-0.00241619
-0.0190716
0.025294
-0.0258927
0.000602647
0.000498045
-0.00587667
0.00970233
0.0148046
0.00335816
-0.00524292
-0.0022609
-0.00663828
0.00879823
-0.00731292
0.00404354
0.0363802
-0.00883296
-0.0274567
0.00673875
-0.00533742
-0.00246839
-0.0165236
0.0189152
-0.00346116
0.00147581
0.0019852
0.00133768
-0.00576838
0.00440462
0.0166533
-0.0193049
0.00660732
-0.00550175
-0.00114069
-0.0022474
0.00288623
-0.00063908
0.0135752
0.00835495
0.00752508
-0.000852347
0.00260555
0.00277804
-0.0147107
0.00211427
0.0124438
0.0253896
-0.00599651
0.0166596
-0.00211066
-0.0146756
0.00304781
0.00260747
-0.00567457
0.0152728
0.00246447
-0.0180119
0.0175282
-0.0259038
0.0036552
-0.00715412
0.00345294
0.00545453
-0.021701
0.0165708
0.00218316
0.0191265
0.000711248
0.00967684
-0.010471
0.000395301
-0.021492
0.0211761
-0.00205792
0.00106244
0.00120121
0.00120179
-0.00460489
0.00340479
-0.00311098
0.00272799
0.000382638
0.000641906
0.0182796
-0.0174234
-0.0156711
-0.000159558
0.00040356
-0.0132555
0.0127564
0.0248888
-0.00351946
0.000320389
0.00626198
-0.0030535
0.00112281
0.00193045
-0.000688732
0.00254579
-0.00185712
0.00124464
-0.00602558
0.00475262
0.0298746
-0.0203402
-0.00957301
-0.020008
0.0204797
-0.0177148
0.018578
-0.00109253
0.0184695
-0.0210236
-0.00264784
0.00518456
-0.00254523
-0.00246648
-0.000587475
-0.00112054
-0.00164151
0.000106359
-0.00321776
0.0164173
-0.0140247
-0.00252088
-0.000960591
0.0332824
-0.0328395
-0.00415434
0.00194903
-0.00382135
-0.000828163
0.00464519
0.00728044
-0.00637685
-0.000925295
0.000251944
-0.00536314
0.00512062
0.00183048
0.000541909
-0.00237242
-0.0039336
0.0231413
-0.0194037
-0.00394269
0.00436079
0.00921478
-0.00904259
-0.000247894
0.0125683
-0.0122573
-0.00144063
-0.00140344
0.0261795
-0.0182092
-0.00823438
-0.0115382
0.00915106
-0.0112086
0.0124262
0.00182213
-0.00322853
0.00414916
0.000901001
-0.00506723
0.00972661
-0.0210462
0.0112749
0.00269195
-0.000902848
-0.00178918
0.0146072
-0.0133398
-0.00129852
-0.000133863
-0.0027575
0.00289109
0.0059988
0.0104862
0.00517076
-0.00396837
-0.00167792
-0.00247916
0.00350538
-0.00633771
0.00281766
-0.00432139
0.00268926
0.00162934
0.0132949
-0.0135447
0.000207621
0.0269066
-0.00316952
-0.0240601
-0.0141144
-0.000445221
-0.00459627
-0.00758593
0.0120934
0.00750445
-0.00605384
-0.00147911
-0.00439075
0.0141042
0.0371513
-0.0109857
-0.0260931
-0.00380418
-2.06285e-05
0.0183915
-0.0186971
-0.00295202
0.0220425
0.00200876
-0.00214283
-0.0131638
0.0186903
-0.00388748
-0.00398546
0.00348112
0.000183606
-0.00651638
0.00573101
-0.000909082
-0.00175519
-0.00257017
0.0041373
0.00421302
-0.00532343
0.00357391
-0.00623067
-0.00370576
0.000424215
0.00328034
-0.000166624
-0.0132021
0.00394879
0.000193273
0.0222355
-0.00456734
-0.0179525
-0.0263998
0.0285992
-0.00259909
-0.0015798
-0.00464196
0.006194
0.0117731
-0.031642
0.0200072
-0.0112505
0.00979926
-0.00181564
0.0140718
-0.0123467
0.00399196
-0.000545213
-0.00344913
0.00802868
0.00155796
-0.00266026
-0.00523041
0.00780001
0.000123643
0.00978998
-0.00995312
-0.000640734
-0.00322874
0.00386162
0.0068148
0.0226564
-0.0291705
-0.00348801
0.00573944
-0.0022723
-0.00186717
0.00960475
-0.0211214
0.00404695
-0.00400958
-4.07255e-05
-0.0319497
0.0305058
0.00787226
-0.0098824
0.00867732
0.0131143
-0.00826059
0.00889837
-0.0230122
0.0203584
0.00321937
-0.00174868
-0.00885224
0.0121692
-0.0173113
0.00570048
0.0115504
-0.000843344
-0.00664432
0.00752083
0.0227801
0.00717178
0.0172635
-0.0205064
0.00261694
0.00393479
0.00789481
0.000511717
-0.0300436
-0.0069806
-0.0261375
0.00535188
-0.00809757
0.00408587
0.0132038
-0.0141163
0.0170221
-0.00493441
-0.0122824
-0.000301683
-0.00487013
0.0102166
-0.00862335
0.000579297
0.000186359
-0.025984
-0.0106358
0.0119821
-0.00150069
0.00362442
0.000365154
-0.00373908
0.00496086
0.0011048
0.00158713
0.00124406
0.00602259
0.00844326
-0.00618261
-0.00228882
0.00986577
-0.0085219
-0.00922642
0.00454992
0.00466437
-0.00309298
-0.00216401
0.00526062
-0.00362433
-0.0137792
-0.0204751
0.0276265
0.00987742
-0.0102162
0.00986387
-0.0145667
-0.00546457
-0.0171017
0.00542967
0.000578513
0.00657255
-0.0122527
0.005534
0.0266837
0.000786546
-0.0092924
0.00492147
0.00256239
0.00965959
0.000289331
-0.00399644
0.0020486
-0.00536551
0.00456343
0.000794659
0.00641102
0.00818845
-0.00811493
0.00730029
0.0233167
-0.0204345
-0.0024899
-0.0118152
0.00771724
0.00393086
0.0166496
-0.00160687
-0.000502214
0.00963018
-0.0198077
0.0273634
-0.00777122
0.00957788
-0.00109646
-0.0023649
-0.0196727
0.00103777
0.00105063
-0.0212308
0.0200247
0.00360441
-0.00669032
-0.00158411
-0.017569
-0.00367637
0.0305834
-0.0297924
-0.000998834
-0.0123505
0.00155932
0.005668
-0.00540573
0.00948301
-0.002296
-0.00725253
-0.00119886
0.00423095
-0.00470923
0.00184828
-0.0134373
0.000425983
0.0245772
0.023566
-0.000582817
-0.00506822
0.00441759
-0.00236799
-0.0259885
0.0283492
-0.0277601
-0.000469013
-0.0254754
-0.00634772
0.0319155
0.00333444
0.0186388
0.00263573
0.00646044
-0.00907981
-0.0104277
0.000313869
0.0100565
0.0058688
-0.00170205
-0.0041746
0.00359923
-0.00377053
0.000168669
-0.0160481
0.0111632
-0.00526576
0.00333302
0.00192858
0.0294401
0.00105401
-0.029702
-0.0102135
-0.00166933
-0.0229583
0.0211167
-0.00148681
-0.000821266
0.00429829
0.000982386
-0.00529693
0.00436916
-0.00143346
-0.00293916
-0.000543525
-0.0220648
0.0142801
0.00744766
-0.00434863
0.0107814
0.0218178
-0.01792
0.0122182
-0.0121127
-0.000234981
0.00952686
0.000249505
-0.00188691
0.00170499
-0.00186137
-0.00505174
0.00685749
-0.00468755
0.00804504
0.0064218
0.00353845
-0.00876809
0.0170972
0.00502755
0.000834395
-0.000115948
-0.00346535
0.00422261
-0.0146782
0.00118163
5.2348e-06
0.0198101
-0.0199879
0.000164461
-0.0106903
-0.00231898
-0.000151408
0.00247026
0.0304666
0.0178372
-0.015799
-0.0151034
0.0162788
-0.000204449
-0.0220161
-0.00127829
-0.00853354
0.00582194
0.00265205
-0.00214511
0.00563492
-0.00724503
0.00104642
0.00505309
-0.00362993
-0.00142833
-0.00478218
0.00744177
0.000255981
-0.0119297
0.0183115
0.0123324
0.0178496
-0.00175625
-0.0160937
-6.94987e-05
0.00458432
0.00119893
-0.00446392
0.00325885
-0.026383
0.00640597
0.014322
0.00885742
-0.00849689
-0.000403242
0.0202425
0.0146283
-0.00881252
-0.00593649
-0.0128445
0.0063337
0.00251359
-0.021277
0.00563317
0.0154615
0.0077266
-0.0104999
-0.00598209
-0.00135019
0.00645293
-0.00838157
0.0173519
-0.00402826
-0.0134775
0.000816085
-0.0254522
0.024452
0.00254192
0.00250594
-0.00195244
0.00556873
-0.0185601
0.00774585
0.0107567
-0.00139298
-0.00720077
-0.0386931
0.0128685
0.0252711
-0.0341215
0.00198272
-0.0124659
-0.0266241
0.0066741
0.00786028
0.00437596
-0.00333018
-0.00104974
0.00904567
0.00103001
-0.0101483
-6.6661e-05
0.00282234
-0.00309254
-0.00535963
-0.0108205
0.00164774
-0.00164774
0.00973454
-0.00925043
-0.00415511
0.0246839
0.00199439
0.0222994
-0.00203058
-0.0196473
-0.00275277
0.000505087
0.032253
-0.0259485
-0.00618764
-0.000332296
0.00510483
-0.00478043
-0.00320629
0.00439974
0.00138317
-0.00736257
-0.000653587
0.00623522
-0.00556788
-0.00186121
0.00901057
-0.000262307
-0.0088308
0.00161175
0.00243132
-0.0195589
0.000678689
0.020031
0.00904673
-0.00116137
0.0048833
-0.0048833
0.00169421
0.0130554
-0.0149238
0.0020493
-0.00728319
0.0052358
-0.00323376
0.0225257
-0.0188804
0.00305118
0.00907201
-0.000980496
-0.00219031
-0.000283561
-5.04249e-05
0.0253962
0.0147954
-0.00412681
-0.00136048
0.00547536
-0.00118052
-0.00157717
-0.0135756
-0.00827269
-0.0248487
0.00453084
0.020447
-0.00236953
0.00124894
0.00477797
0.0303931
0.00211728
0.00559701
-0.00120118
-0.00245885
-0.0123614
0.0243736
-0.00133843
0.000896764
0.00368503
-0.0223638
0.0189507
0.0334944
-0.00394973
-0.0291345
-0.00384379
0.0119791
-0.0193091
-0.000401843
-0.0027289
0.00342962
0.0137594
-0.00407455
0.00106464
0.00300751
-0.000310797
-0.0108431
0.0298681
-0.0322271
0.00354987
-0.00412316
0.000567303
-0.0192093
0.000671176
0.0181668
0.00432599
0.00599356
0.00342194
0.0121794
0.00127911
-0.0259926
0.0274276
-0.00159399
-0.00624535
-0.0186595
-0.00518201
0.00138118
0.00379753
0.0113286
0.00922211
-0.000298073
-0.0152885
0.000527959
0.0146631
-0.00264065
0.000853473
0.0135681
-0.0138492
0.00268796
-0.0125411
0.000422773
-0.0341771
0.0383122
-0.00416105
0.0253958
-0.00265258
0.00408556
-0.0014367
0.0348514
-0.00429048
-0.0304843
0.00904324
-0.00902978
-1.87987e-05
0.0261809
0.0017547
-0.0278724
-0.0184079
-0.00292538
-0.00118376
0.00230637
0.0139363
-0.00251127
-0.0114037
0.0272649
-0.0161517
-0.0109828
0.00714918
-0.00207355
-0.00236055
0.000545849
-0.00257581
0.00202988
0.0363465
-0.00591432
-0.0300404
0.0046529
0.00928728
0.00186564
0.0107855
-0.0126944
0.0183118
-0.00141956
-0.00265611
0.0050271
-0.0151503
-0.0155055
0.0315032
-0.0229872
0.0140856
0.00990906
-0.000926724
-0.000899551
-0.00270798
0.0263777
-0.0227113
-0.0263472
0.000321994
0.00246563
-0.000519108
-0.00194662
-0.0283883
0.000348951
-0.0031299
0.00961522
0.00788589
0.000323928
-0.00822762
-0.00487246
-8.19955e-06
-0.0043433
0.00637425
-0.00206506
-4.17292e-05
-0.00426762
-0.00953238
0.000406246
-0.00260709
-0.000889384
0.00737665
0.00139198
-0.0244185
0.0230737
0.0250502
-0.0244228
-0.00327959
0.00459538
-0.0108217
-0.00786104
-0.0385463
0.00477037
-0.00762309
0.000450048
0.00711593
0.0237324
-7.61331e-05
-0.019346
-0.000246954
0.00950661
-0.0113969
-0.0193652
-6.4289e-05
0.0199226
0.00502264
-0.00703987
0.00198794
-0.0134833
0.0279236
0.0292162
0.00568711
0.0019542
0.000757005
0.00248058
-0.0279468
0.0253806
-0.0144424
0.000178013
0.00414281
-0.020597
0.0165762
-6.87246e-05
-0.0153917
0.00396033
-0.00907431
0.0193485
-0.033468
-0.0210544
-0.00108383
0.00293886
0.0170593
-0.0162492
-0.00091604
-0.00179496
-0.00284029
0.00463512
-0.0150897
0.0113764
0.00193572
-0.00101801
-0.00106507
-0.00116192
0.00499176
-0.0038418
0.02696
-0.00234661
-0.025095
0.00436802
0.0229313
-0.0210344
0.00727734
0.0155692
0.00381489
-0.0160015
0.0122138
0.0115662
-0.00422044
-0.00738716
-0.00405032
-0.00150472
0.0276073
-0.00171016
0.00669699
-0.00306859
0.00693771
-0.00780383
-0.00230311
0.0017481
0.000154032
-0.0235043
0.0258713
-0.0022816
0.0167335
-0.000974708
-0.0161217
0.0091068
0.000476026
-0.00184224
0.0315128
-0.0290263
0.000961413
-0.00313741
0.00141967
0.00146645
0.0181384
-0.0209559
-0.0123098
0.00557921
-0.0118888
0.00630837
0.00557524
-0.00515489
-0.0066794
-0.00280139
0.0193166
-0.00931098
0.00981889
0.00135132
0.00589355
-0.00598047
7.76194e-05
-0.00516359
-2.32763e-05
-0.000177825
-0.0238163
-0.00188172
0.00252451
0.0138795
-0.000933766
-0.0187405
0.0266306
0.00545687
0.00215523
-0.0029306
0.000774935
0.00799341
-0.00802096
-4.70948e-05
0.0115738
0.0220136
-0.0199083
-0.0018776
-0.0101745
0.0106855
0.00169986
0.0157775
-0.0215828
0.00551294
0.00101288
0.0107941
0.0253138
-0.000657676
0.000732214
0.00173338
-0.00240661
0.00122568
-0.00266276
0.00284701
-0.000185434
-0.00712164
0.00487692
-0.0249927
0.00119084
0.0156215
0.000407182
0.0077273
-0.00814559
0.00611156
-0.00723759
0.00107099
-0.0021289
-0.00120142
0.00332988
-0.00287274
0.000405747
0.00137071
0.00838714
-0.00985264
-4.99023e-05
0.0106769
-0.0105518
-0.000355497
-0.0140855
-0.000671761
-0.00912045
-0.0140116
0.00015855
0.0102031
-0.00250094
0.00181215
-0.00229758
0.00845935
0.0305354
-0.0286991
-5.41981e-05
0.00736071
-0.00732843
0.00968593
3.35604e-05
-0.000769342
0.00518394
-0.00440186
-0.00219914
-0.0129717
-0.00668578
0.0069963
-0.000341148
0.00874295
-0.00828798
-0.000527036
0.00412632
0.00191783
-0.0145799
0.0109041
0.00360096
0.0105671
-0.0115466
-0.00349496
0.00858263
-0.00151565
-0.00563164
0.00473927
-0.00102509
-0.00371976
0.00239812
0.00114095
-0.00782285
0.00831733
-0.000282287
0.0146219
-0.0145276
0.0273379
-0.0201857
-0.01178
0.0100924
0.00128026
0.00164416
0.0161363
0.0283313
-0.027144
-0.00105055
0.00900684
-0.00685623
0.00248776
0.00583669
-0.00542492
-0.000434894
-0.00290215
-0.0185908
0.021115
0.0127239
0.00423855
-0.00448591
-0.0150778
0.0242618
-0.0226664
-0.0017094
-0.0018102
0.00341763
0.0289876
-0.0281331
0.000487217
0.000807043
-0.0129904
0.0121401
-0.00263433
-0.0034771
-0.0186163
-0.000122351
-0.0010917
-0.00500317
-0.00329783
0.00831265
0.0236059
0.00093104
-0.00287833
0.00194691
0.00948206
-0.000535472
-0.00898912
0.000262383
-0.012317
0.0132563
-0.00446086
0.00397678
0.000477586
-0.0220254
0.0103644
0.0113977
3.48452e-05
0.00296712
-0.0214816
0.00205037
0.0193203
0.0261005
-0.00208243
-0.023816
0.00277784
-0.00277784
0.00404025
-0.011603
0.00750355
0.0202847
-0.00470188
-0.00181218
-0.000595071
-0.0137439
-0.00108558
-0.0252017
0.0019156
0.0185004
-0.00259315
-0.0158781
-0.00384132
0.00773988
0.00951817
-0.00850755
-0.00106733
0.0273273
-0.00194042
0.0112351
-0.000741838
-0.0104885
-0.0137526
0.0150888
-0.0101371
0.00201617
-0.00269227
0.0222954
-0.0196989
0.000805682
0.00784413
0.00304669
0.0198688
0.00115574
-0.0123445
0.0262561
-0.0231692
-0.00306013
0.0394233
-0.0334395
-0.00624005
-0.0038933
0.00111344
0.00277821
-0.016204
0.0201641
0.00297899
-0.00479579
-0.00199276
-0.0243642
-0.0131609
0.0135763
-0.000371289
0.00864347
0.0241241
-0.0322282
0.00062388
-0.00962765
0.00897715
0.0211683
-0.0168657
0.00237792
0.00706236
-0.0189102
0.00123022
-0.00326587
-0.00120054
0.0107421
-0.000746028
0.00228305
-0.00577823
-0.0105134
0.0162331
-0.0105241
0.0105913
-0.00555624
0.00751294
-0.000579999
0.0174877
-0.022332
0.0364324
-0.024083
-0.00704089
0.0110164
-0.000713305
0.0262604
-0.0254447
-0.00118893
-0.00307548
0.000264854
0.00281025
-0.00645456
0.00569942
-0.00813931
-0.00399668
0.0121327
-0.00612025
-0.00115863
0.0338785
-0.00572412
-0.0282319
-0.0063681
0.00616283
0.00018758
-0.00716615
0.0069642
-0.00272275
-0.0251156
-0.000110118
-0.00755851
0.0037453
0.000988064
-0.00306275
0.000933305
-0.00901297
0.00142215
-0.00350971
0.00208506
0.0107003
0.0182057
-0.0170246
-0.00125789
-0.00483071
0.00518241
0.0022173
-0.0125159
-0.00334901
0.00972878
-0.00696754
0.00877852
-0.00163635
-0.0172193
0.0156381
-0.0148054
-0.00101219
-0.00652626
0.00276811
-0.00105171
-0.000826509
0.00400959
0.0202199
0.010433
0.000800255
0.004177
-0.00171292
-0.00246585
0.000787096
-0.0114358
-0.00903547
-0.000570014
-0.00771835
0.00811139
0.00499445
-0.00108449
0.00577807
0.00198442
-0.0198431
0.0179985
0.0298841
-0.0286702
-0.00148615
0.000640007
-0.0165135
0.0219333
0.00187563
-0.00282346
0.0013366
-0.000130172
0.00694089
-0.00681616
0.00275887
0.00141661
-0.000582385
0.0102962
-0.00818099
-0.00394522
0.00152855
0.00241486
-0.00285906
0.00258066
0.000278082
0.0014738
-0.00468767
-0.0089026
0.00211256
-0.00251357
0.00704609
-0.00565474
0.00214089
-0.00649779
0.00047574
0.00600765
0.000137564
0.0194207
-0.00131081
0.0276695
0.00652848
-0.00147651
-0.000879269
-0.0251037
0.0277689
-0.00274024
0.00810222
-0.000247775
-0.0029607
0.00482006
-0.00185985
-0.0128554
-0.0101042
0.0226477
0.0308646
-0.036645
0.00559508
0.011593
0.0157505
0.000905622
-0.013311
0.0122861
0.01907
0.0169389
-0.0220684
0.0104137
0.011439
0.00366133
-0.00483416
0.00282023
-0.000133426
-0.0166058
0.0011552
-0.0279891
-0.00122746
0.00270315
0.00530332
-0.0016056
-0.0036991
0.0228699
0.0242381
-0.0227909
0.00561851
0.00266192
0.0279448
0.0011108
0.00243494
-0.00709154
0.00695583
0.0027674
-0.00234413
0.000956662
0.0342354
-0.00380209
0.0207736
0.0004646
-0.020998
0.0266102
-0.0248904
0.00953279
-0.000869293
-0.00867738
0.00902549
-0.0145105
0.000892676
0.00270446
-0.0255606
-0.00049084
0.0265452
0.00168759
-0.018154
0.0159315
-0.00100428
-0.00513571
0.00611612
-0.0276583
0.00285458
-0.00843276
0.000208957
0.00827581
0.0061135
-0.00140573
-0.00471275
-0.0135285
-0.00112897
-0.00175428
0.00258349
-0.000829453
0.000483116
0.00227497
0.00160358
0.0164836
0.0293223
-0.00381241
0.00416942
-0.000361252
-0.00221177
-0.000192085
0.00240382
0.00678709
-2.71975e-06
-0.00679414
-0.0136247
-0.00153981
0.00489145
0.00381758
-0.00346274
-0.000358654
0.00833828
-0.00866201
0.000291865
0.0209082
-0.0210381
-0.000939514
-0.0134251
0.0312545
-0.0031974
0.00348556
0.00339366
-0.0115389
0.00119362
-0.00462115
0.00342067
-6.91447e-05
-0.00247753
-0.00198832
-0.00033074
-0.00413652
0.000802019
0.0244218
0.00160759
0.0216257
-0.024862
0.00313503
-0.00363628
-0.015489
0.00337816
0.0251899
-0.0161247
-0.00052628
0.0104174
-0.00999178
-0.00157406
0.00256728
-0.000993448
-0.00240158
-0.0010202
0.00342141
-0.00266891
-0.00122663
-0.0138009
-0.000868042
-0.00468512
-0.00268444
0.00732433
-0.000180609
-0.00632592
0.0164667
-0.0225803
-0.00755023
-0.000235271
-0.000239247
0.0194799
0.000678277
-0.00387731
0.0113506
-0.0105865
-0.00082967
-0.00172576
-0.0233842
0.00323061
-0.00795669
-0.0177045
0.00426955
-0.00587458
-0.0105712
0.0102473
0.00155831
0.0213126
0.00111964
-0.0211332
0.00463774
0.0182033
-0.0215036
-0.000114122
-0.00568172
0.0114255
0.000309891
-0.0241496
0.0244309
0.00792331
-0.00729956
-0.000672462
-0.00167569
0.00524288
-0.00337999
0.0029483
0.000430334
-0.0107146
0.0116172
0.000403454
0.000975249
0.00350143
-0.0044875
0.00172751
0.00357621
0.00267355
-0.00446795
0.0128388
-0.000723574
0.00221323
-0.000198911
-0.00201436
-0.00262457
-0.0267055
0.0130968
-0.00871451
-0.0123694
0.0143404
0.00122784
-0.0111984
0.00993205
0.00310455
0.000975484
-0.0040817
0.0116896
-0.00144432
-0.0103091
0.0110453
4.00831e-05
0.00356413
-0.00672918
0.000343428
-0.0147554
0.000736598
-0.00953355
0.0107625
-0.000600132
0.0220081
-0.0218108
-0.000116374
-0.00752213
0.00607529
0.0265175
0.003
-0.00523672
0.00354715
-0.00898844
-0.00109364
0.0139823
0.0197319
-0.0189666
-0.0201895
-0.00016856
0.0206237
0.00292466
-0.00169945
-0.0176992
0.0186095
0.000427365
0.0128895
-0.000126089
-0.000497851
0.0160191
0.00162354
-0.0048546
0.0032125
-0.000140079
-0.00129219
0.0130914
-0.01199
0.0244778
0.00212439
-0.0266552
-0.00220258
-0.0112971
0.00140011
-0.00338288
0.00198212
0.000821612
-0.000821612
-0.000689663
-0.00269268
-0.0108295
-0.00051788
-0.00257884
-0.00123972
0.00381854
0.00109315
-1.4312e-05
0.0096328
-0.00968709
0.000764674
-0.00327472
0.00424034
0.00113321
-0.00527085
-0.00420913
0.0131306
-0.00131714
0.00273714
0.00484564
-0.00589674
0.00105609
-0.00115475
0.012927
-0.0117894
-0.0018555
0.00172319
0.00490238
-0.00343706
0.0263654
-0.0252238
-0.000728999
-0.00233152
-2.78607e-05
4.9146e-05
0.0222433
-0.0219169
0.000265677
0.0086937
-0.00759557
-0.00114989
-0.000336834
0.000336834
-0.00346535
0.00432307
0.00178318
-0.00936159
0.0010094
0.00263697
-0.000250868
-0.00823133
0.00192113
0.00626754
0.0141775
-0.000218961
-0.00270798
-0.0150063
0.00026725
0.0147221
0.00119074
-0.0030037
-0.0327819
0.0292445
-0.00724122
5.03251e-05
0.00479833
-0.00213056
-0.0026697
0.0141457
-0.00163781
-0.0124635
0.00276006
-0.000605163
0.00171312
-1.5068e-05
-0.0112425
0.00517581
0.00609161
-0.0170262
-0.00829502
0.0262115
-0.0186944
0.00158286
0.0206404
0.0060099
-0.000770699
-0.00595522
0.00592613
-0.00131448
-0.00462779
-0.000497693
0.00827897
-0.00779249
0.000536088
-0.0112418
0.00956108
0.00177985
0.00119334
-0.00294784
0.00314094
-0.00974359
-0.0212915
0.0221405
-0.000599155
0.00599627
-0.00703061
-0.011927
0.00172461
0.0101683
0.00320184
-0.0027197
0.0250044
-0.00337011
0.00508829
0.0064334
0.00414606
-0.0058301
0.0115536
0.00598054
-0.000162681
0.00128375
-0.00686655
-0.00632666
0.0144098
-0.00193572
0.000978851
-0.00354497
0.00256355
-0.0132334
-0.00242269
0.0146019
0.0149674
0.0154053
0.0237136
-0.0235272
0.00046583
-0.0077247
0.000342749
0.0265337
0.01298
0.0159162
0.00128238
0.0171142
0.0257275
-0.0228351
-0.00226896
0.000955937
-4.92788e-05
0.013501
0.00954276
-0.0101675
-0.00791821
-0.000358416
-0.00217927
-0.0262727
0.00140767
-0.00398751
0.0034964
-0.022404
0.0188594
-0.00213676
-0.00181035
0.000803802
-0.00688119
0.00126641
-0.00288972
0.00162313
0.0104078
-0.00654473
-0.00394122
-0.00992321
-0.00135351
-0.000698128
0.00234206
-0.001644
0.00838727
0.00106311
0.000103888
-0.00398378
0.00565052
-0.00166919
-0.000753438
-0.00680961
0.000286727
0.00465439
-0.0126293
0.0147717
-0.00226945
0.00421447
-0.00685326
0.0185265
0.00219041
-0.00299966
0.000808987
-0.0164525
-0.00601284
0.0225539
-0.00238494
-0.00069109
0.00589184
-0.00832904
-0.0157678
0.0134749
0.00188395
-0.00203545
-0.00986837
-0.0246262
-0.00112264
0.000876603
-0.00487682
-0.0120775
0.0113424
0.00627904
-0.0118558
-0.00698276
-0.000281837
0.00647342
-0.00617766
-0.00580721
0.00785993
0.0255765
-0.00108307
-0.0250839
0.0182982
-0.0144012
0.0142328
-0.00378072
0.00112478
0.00802655
-0.000318807
-0.0182611
0.0156811
0.00250962
-0.0103539
-0.00056021
0.00678965
-0.00648658
-0.000324884
0.0154339
-0.0150013
-0.026302
0.00295146
0.0235905
0.00297742
-0.000787263
0.0140702
0.00227944
-0.0164987
-0.0299986
0.00393367
0.00320191
-0.0116174
-0.000866073
-0.0189881
0.0220559
-0.0015683
-0.000891386
0.00207902
0.00409563
-0.0061679
-0.00205317
-0.000825692
0.0228606
0.000872534
-0.0239629
0.0114661
-0.0129422
0.00138446
0.00298949
-0.00438099
0.0241516
0.00372102
0.0184772
9.77488e-05
0.00778172
-0.00864133
0.000855209
-0.0235793
-0.00350684
-0.000463515
-0.00879393
0.00911516
0.00437489
-0.00574849
-0.00404336
0.00294474
0.00109625
0.00256936
-0.0263571
0.0237553
-0.0010195
0.0205836
-0.0197616
-0.0258601
0.000118456
-0.0241797
0.00454321
-0.0145959
-0.0167394
0.0147909
0.00347978
-0.00390367
-0.00177509
0.00809516
0.0266806
-0.00428702
-0.022463
0.00682946
0.017573
-0.0240087
-0.0269201
0.0291084
-0.00177547
-0.0242833
0.0276656
-0.00228914
0.0144918
-0.0152981
0.000784983
-0.00318136
0.001607
3.97374e-05
-0.0102633
-0.0170044
-0.00103818
0.000487614
0.00294139
0.00185582
-0.0260622
0.0254619
-0.0253814
0.00217316
-0.00097267
0.0199387
0.00240031
-0.00372042
-0.00832711
0.00161031
0.00233322
-0.00319498
-0.00667942
0.00738482
-0.00435601
-0.00763027
0.00174735
-0.00482142
0.00307004
0.00244554
0.0180019
-0.0206835
-0.00114584
-0.00422261
-0.000679638
0.0107612
-0.0102214
0.0178858
-0.0178942
0.000227706
0.00394625
0.00733647
-0.0113786
0.00963341
0.00513857
-0.0148754
-0.000930239
0.00727835
0.000648
0.00148874
-0.0247341
0.023116
-0.0128824
0.0102968
0.00249438
-0.00380738
0.000990186
0.00281523
0.00533323
-0.00958337
0.00683263
-0.00133374
-0.00552226
0.0117984
-0.000794533
-0.0111568
-0.00308492
-0.00136618
-4.31806e-05
-0.0146442
0.0144371
-0.000110129
-0.0141964
0.0120328
1.5315e-07
-0.00710365
0.024324
-0.0234267
-0.00134115
0.0171563
0.000911978
-0.0181033
-0.00040622
0.00804725
-0.00610465
-0.000382727
-0.012735
0.00416654
0.00235305
0.0026139
-0.0049704
0.000195508
0.00644955
-0.00664788
-0.0144463
-0.00137683
0.0132354
-0.00833864
-4.89863e-06
0.00830556
-0.0242891
0.00182903
0.0150498
0.0114479
0.00538717
-0.000733613
-0.00465912
-0.0125464
0.000784017
-0.0192822
0.000237728
0.00155502
-0.00191988
0.00289688
-0.0045009
0.002742
0.010953
-0.00393829
-0.00540977
0.016408
0.00191784
-0.00599428
-0.000353011
0.000121255
0.0208248
0.000548266
0.023436
-0.0233616
-0.00230226
-0.0067474
0.000738003
-0.0173797
0.0066811
0.0104937
-0.00516703
0.00903167
0.000761296
-0.00223739
0.00147603
0.0156365
-0.0158777
0.0196529
0.0055721
-0.00384539
-0.0389748
0.0397629
-0.00102951
-0.00113795
-0.00290775
0.00445252
-0.0057981
0.00372906
0.0114814
-0.00586927
0.00633096
0.0129379
0.00654097
-0.0197185
0.0124249
-0.0137411
0.00131917
-0.000441855
-0.0145545
0.00029705
-0.0138035
0.0134127
-0.000590865
0.00298821
-0.0239282
-0.00971071
-0.000195912
-0.00370502
0.00309187
0.000610695
-0.00940366
0.00409627
-0.00518241
-0.000805735
-0.000638163
-0.002293
-0.00604281
3.59413e-05
0.00116999
-0.005967
-0.00338854
-0.000740901
-0.0192207
-0.00180855
0.0210532
0.00392847
-0.00280138
-0.00112832
-0.0179235
-0.0198661
-0.000844487
-0.00383523
0.010758
-0.00197545
0.00252122
0.00531955
-0.00418502
0.0119047
-0.00241793
0.020415
-0.0087193
0.00931777
0.00930319
-0.00965455
-0.000767677
-0.00650975
0.0191889
-0.028011
0.00876228
0.00920557
0.00558077
0.00476419
2.8796e-05
0.00909471
-0.00924361
0.033943
-0.0042924
-0.0294836
0.00405925
0.00809821
-0.0122267
0.00204453
0.0278151
-0.00456533
-3.76729e-05
0.00188079
-0.0173385
0.00295021
-0.00316118
0.0126251
-0.0104881
0.0119477
0.00621335
-0.0060208
0.0178344
-0.00134323
-0.0166025
-0.00123903
0.00200027
-0.0250805
0.00264844
-0.0203717
0.00239624
-0.000403424
0.0167249
-0.0022759
0.0128846
-0.000703557
-0.0121955
0.00129466
-0.00149143
0.000687998
0.021405
-0.0141699
-0.017256
-0.00236479
0.00351252
-0.00505788
-0.00629716
0.000266602
0.00601534
0.0253358
-0.00584572
-0.0193441
0.00232539
0.0119001
-0.00177705
-0.0102815
0.000322328
0.0056726
0.000610266
-0.000701815
-0.0140561
0.0135938
-0.0209882
-0.000637396
0.00094964
-0.0108816
-0.00843352
0.000760349
0.00765557
0.00175869
-0.000204217
0.00315393
-0.0412995
-0.00929454
-0.000160008
0.00941683
0.0001712
-0.0200868
-0.0037763
-0.00159639
0.0138523
0.000671226
-0.00437711
0.00051045
0.00386335
0.01673
-0.0170289
0.000274425
-0.00263229
0.0174674
-0.000471491
0.00900431
-0.00146099
-0.00754381
0.00571887
-0.00674943
-0.0269993
0.000624734
-0.0117892
0.00657756
-0.00683683
0.000240938
0.0110404
-0.00226695
-0.00888087
0.00190972
-0.00336997
0.00184124
8.01967e-05
-0.00131474
-0.00212879
0.00344203
-9.09007e-05
-0.0104158
0.0104219
-0.0027924
0.00131585
0.0124569
-0.0113006
-0.00117384
0.00866723
0.000859775
-0.000174532
0.00694366
-0.00667895
0.00648892
-0.00814543
-0.000212422
-0.00233972
-0.000430323
0.00818476
-0.00633507
0.000297306
0.00600599
0.0178172
0.000318025
-0.015692
-0.0019029
-0.0220723
0.00264956
-0.0217748
-0.00923036
0.0038869
-0.0199215
-0.00202396
0.0219015
0.00280554
0.00100915
-0.0149397
0.0184083
0.0190269
-0.00632071
0.00610952
-0.00129576
-0.00481617
0.00160439
0.023313
0.00785991
-0.000197605
-0.00770696