/*--------------------------------*- C++ -*----------------------------------*\
| =========                 |                                                 |
| \\      /  F ield         | OpenFOAM: The Open Source CFD Toolbox           |
|  \\    /   O peration     | Version:  v2012                                 |
|   \\  /    A nd           | Website:  www.openfoam.com                      |
|    \\/     M anipulation  |                                                 |
\*---------------------------------------------------------------------------*/
FoamFile
{
    version     2.0;
    format      ascii;
    class       pointVectorField;
    location    "550";
    object      pointDisplacement;
}
// * * * * * * * * * * * * * * * * * * * * * * * * * * * * * * * * * * * * * //

dimensions      [0 1 0 0 0 0 0];


internalField   nonuniform List<vector> 
10356
(
(0 0 0)
(0 0 0)
(0 0 0)
(0 0 0)
(0 0 0)
(0 0 0)
(0 0 0)
(0 0 0)
(0 0 0)
(0 0 0)
(0 0 0)
(0 0 0)
(0 0 0)
(0 0 0)
(0 0 0)
(0 0 0)
(0 0 0)
(0 0 0)
(0 0 0)
(0 0 0)
(0 0 0)
(0 0 0)
(0 0 0)
(0 0 0)
(0 0 0)
(0 0 0)
(0 0 0)
(0 0 0)
(0 0 0)
(0 0 0)
(0 0 0)
(0 0 0)
(0 0 0)
(0 0 0)
(0 0 0)
(0 0 0)
(0 0 0)
(0 0 0)
(0 0 0)
(0 0 0)
(0 0 0)
(0 0 0)
(0 0 0)
(0 0 0)
(0 0 0)
(0 0 0)
(0 0 0)
(0 0 0)
(0 0 0)
(0 0 0)
(0 0 0)
(0 0 0)
(0 0 0)
(0 0 0)
(0 0 0)
(0 0 0)
(0 0 0)
(0 0 0)
(0 0 0)
(0 0 0)
(0 0 0)
(0 0 0)
(0 0 0)
(0 0 0)
(0 0 0)
(0 0 0)
(0 0 0)
(0 0 0)
(0 0 0)
(0 0 0)
(0 0 0)
(0 0 0)
(0 0 0)
(0 0 0)
(0 0 0)
(-0 -6.06078e-05 -0)
(-0 -6.06078e-05 -0)
(0 0 0)
(0 0 0)
(0 0 0)
(0 0 0)
(0 0 0)
(0 0 0)
(0 0 0)
(0 0 0)
(0 0 0)
(0 0 0)
(0 0 0)
(0 0 0)
(0 0 0)
(0 0 0)
(0 0 0)
(0 0 0)
(0 0 0)
(0 0 0)
(0 0 0)
(0 0 0)
(0 0 0)
(0 0 0)
(0 0 0)
(0 0 0)
(0 0 0)
(0 0 0)
(0 0 0)
(0 0 0)
(0 0 0)
(0 0 0)
(0 0 0)
(0 0 0)
(0 0 0)
(0 0 0)
(0 0 0)
(0 0 0)
(0 0 0)
(0 0 0)
(0 0 0)
(0 0 0)
(0 0 0)
(0 0 0)
(0 0 0)
(0 0 0)
(0 0 0)
(0 0 0)
(0 0 0)
(0 0 0)
(0 0 0)
(0 0 0)
(0 0 0)
(0 0 0)
(0 0 0)
(0 0 0)
(0 0 0)
(0 0 0)
(0 0 0)
(0 0 0)
(0 0 0)
(0 0 0)
(0 0 0)
(0 0 0)
(0 0 0)
(0 0 0)
(0 0 0)
(0 0 0)
(0 0 0)
(0 0 0)
(0 0 0)
(0 0 0)
(0 0 0)
(0 0 0)
(0 0 0)
(-0 -6.06078e-05 -0)
(-0 -6.06078e-05 -0)
(0 -6.05943e-05 0)
(0 -6.05962e-05 0)
(0 -6.05354e-05 0)
(0 -6.05979e-05 0)
(0 0.000152543 0)
(0 0.000197749 0)
(0 0.000192401 0)
(0 0.000217832 0)
(0 0.000241731 0)
(0 -6.05895e-05 0)
(0 0.000167174 0)
(0 0.000260295 0)
(0 -6.05913e-05 0)
(0 0.00013863 0)
(0 0.00017863 0)
(0 0.000143049 0)
(0 0.000111055 0)
(0 -6.06016e-05 0)
(0 -6.05996e-05 0)
(0 6.69774e-05 0)
(0 7.3401e-05 0)
(0 0.000212001 0)
(0 0.000201286 0)
(0 0.000163808 0)
(0 -6.05902e-05 0)
(0 -6.05935e-05 0)
(0 4.26213e-05 0)
(0 4.73937e-05 0)
(0 0.000170641 0)
(0 0.000180865 0)
(0 0.000191918 0)
(0 0.000135648 0)
(0 0.000228369 0)
(0 0.0002977 0)
(0 0.000165608 0)
(0 0.000120458 0)
(0 9.11144e-05 0)
(0 0.000124197 0)
(0 1.85504e-05 0)
(0 0.000170604 0)
(0 0.000334412 0)
(0 0.000333631 0)
(0 0.000496287 0)
(0 0.00050371 0)
(0 0.000660651 0)
(0 0.000655614 0)
(0 0.000812087 0)
(0 0.000830786 0)
(0 0.000974297 0)
(0 0.00100387 0)
(0 0.00113589 0)
(0 0.00116826 0)
(0 0.00128825 0)
(0 0.00132026 0)
(0 0.00142843 0)
(0 0.00145501 0)
(0 0.00155073 0)
(0 0.00156971 0)
(0 0.00165418 0)
(0 0.00163414 0)
(0 0.00172422 0)
(0 0.00170168 0)
(0 0.00177721 0)
(0 0.00175391 0)
(0 0.00181696 0)
(0 0.00179141 0)
(0 0.00184646 0)
(0 0.00181826 0)
(0 0.00186441 0)
(0 0.00183601 0)
(0 0.00187269 0)
(0 0.00184444 0)
(0 0.00187245 0)
(0 0.00184241 0)
(0 0.00190143 0)
(0 0.00189419 0)
(0 0.00192514 0)
(0 0.00191078 0)
(0 0.00194373 0)
(0 0.00192244 0)
(0 0.00195546 0)
(0 0.00192866 0)
(0 0.0019617 0)
(0 0.00193038 0)
(0 0.00196389 0)
(0 0.00192859 0)
(0 0.00189409 0)
(0 0.00196227 0)
(0 0.00192368 0)
(0 0.00195706 0)
(0 0.00191523 0)
(0 0.0019486 0)
(0 0.00190241 0)
(0 0.00193572 0)
(0 0.0018855 0)
(0 0.00191748 0)
(0 0.00186639 0)
(0 0.00189859 0)
(0 0.0018458 0)
(0 0.00180883 0)
(0 0.00188048 0)
(0 0.00182486 0)
(0 0.00186095 0)
(0 0.00180286 0)
(0 0.00184105 0)
(0 0.00178184 0)
(0 0.00182076 0)
(0 0.00176061 0)
(0 0.00179894 0)
(0 0.00173956 0)
(0 0.00177661 0)
(0 0.00170757 0)
(0 0.00175817 0)
(0 0.00169551 0)
(0 0.0017425 0)
(0 0.00167683 0)
(0 0.00172616 0)
(0 0.00165783 0)
(0 0.00171182 0)
(0 0.00164133 0)
(0 0.0018578 0)
(0 0.00170019 0)
(0 0.0016282 0)
(0 0.00176898 0)
(0 0.00168608 0)
(0 0.00161735 0)
(0 0.0016914 0)
(0 0.00167677 0)
(0 0.0016099 0)
(0 0.00167404 0)
(0 0.0016061 0)
(0 0.00167095 0)
(0 0.0016052 0)
(0 0.00167191 0)
(0 0.00160752 0)
(0 0.00167663 0)
(0 0.00161418 0)
(0 0.00173497 0)
(0 0.00168402 0)
(0 0.00162527 0)
(0 0.00169786 0)
(0 0.00164145 0)
(0 0.00196262 0)
(0 0.00171676 0)
(0 0.00166139 0)
(0 0.00173775 0)
(0 0.00168626 0)
(0 0.00176447 0)
(0 0.00171596 0)
(0 0.00179511 0)
(0 0.00174957 0)
(0 0.00184088 0)
(0 0.00182874 0)
(0 0.00178579 0)
(0 0.00170412 0)
(0 0.00174308 0)
(0 0.0016595 0)
(0 0.00170073 0)
(0 0.00178302 0)
(0 0.00174473 0)
(0 0.0016608 0)
(0 0.00170837 0)
(0 0.0017903 0)
(0 0.00175721 0)
(0 0.00167342 0)
(0 0.00172607 0)
(0 0.00180936 0)
(0 0.00178255 0)
(0 0.00186574 0)
(0 0.00184227 0)
(0 0.00175751 0)
(0 0.00182026 0)
(0 0.00173421 0)
(0 0.00180055 0)
(0 0.00188577 0)
(0 0.00186905 0)
(0 0.00178286 0)
(0 0.0018539 0)
(0 0.00176644 0)
(0 0.00184096 0)
(0 0.00192685 0)
(0 0.00191604 0)
(0 0.00182974 0)
(0 0.00190584 0)
(0 0.00181971 0)
(0 0.00189828 0)
(0 0.00181156 0)
(0 0.00189344 0)
(0 0.00180482 0)
(0 0.00188363 0)
(0 0.0017978 0)
(0 0.00187775 0)
(0 0.00179419 0)
(0 0.00188098 0)
(0 0.00179589 0)
(0 0.00188358 0)
(0 0.00179901 0)
(0 0.00188909 0)
(0 0.001804 0)
(0 0.0018962 0)
(0 0.00181084 0)
(0 0.00190508 0)
(0 0.00182041 0)
(0 0.00191622 0)
(0 0.00183306 0)
(0 0.00193325 0)
(0 0.00184896 0)
(0 0.00195536 0)
(0 0.00186866 0)
(0 0.00197764 0)
(0 0.00189191 0)
(0 0.00200371 0)
(0 0.00191862 0)
(0 0.00203448 0)
(0 0.00196892 0)
(0 0.0020002 0)
(0 0.00171625 0)
(0 0.00171652 0)
(0 0.00158336 0)
(0 0.00177991 0)
(0 0.001549 0)
(0 0.00166435 0)
(0 0.00181613 0)
(0 0.00181191 0)
(0 0.00178743 0)
(0 0.00178029 0)
(0 0.00153048 0)
(0 0.00199795 0)
(0 0.00294249 0)
(0 0.00286793 0)
(0 0.00285156 0)
(0 0.00300274 0)
(0 0.00277331 0)
(0 0.00276026 0)
(0 0.00268075 0)
(0 0.00266996 0)
(0 0.00259031 0)
(0 0.00258389 0)
(0 0.00265522 0)
(0 0.00257957 0)
(0 0.00264213 0)
(0 0.0025774 0)
(0 0.00263237 0)
(0 0.00257494 0)
(0 0.00251628 0)
(0 0.00251422 0)
(0 0.00256675 0)
(0 0.00250647 0)
(0 0.00244837 0)
(0 0.00244188 0)
(0 0.00249048 0)
(0 0.00243091 0)
(0 0.00237741 0)
(0 0.00237665 0)
(0 0.00231797 0)
(0 0.00232558 0)
(0 0.00237781 0)
(0 0.00233344 0)
(0 0.00227401 0)
(0 0.00228359 0)
(0 0.00233692 0)
(0 0.00228963 0)
(0 0.0022258 0)
(0 0.00222959 0)
(0 0.00228319 0)
(0 0.00222214 0)
(0 0.00215801 0)
(0 0.002151 0)
(0 0.00220664 0)
(0 0.00213953 0)
(0 0.00219094 0)
(0 0.00212937 0)
(0 0.00217801 0)
(0 0.00212397 0)
(0 0.00206908 0)
(0 0.00206896 0)
(0 0.00212251 0)
(0 0.00207106 0)
(0 0.0021228 0)
(0 0.0020763 0)
(0 0.00212645 0)
(0 0.00208685 0)
(0 0.0020302 0)
(0 0.00204635 0)
(0 0.00210033 0)
(0 0.00206309 0)
(0 0.00211195 0)
(0 0.00207872 0)
(0 0.00212134 0)
(0 0.00209488 0)
(0 0.002051 0)
(0 0.0020719 0)
(0 0.00211155 0)
(0 0.00209093 0)
(0 0.00204696 0)
(0 0.00206424 0)
(0 0.00210489 0)
(0 0.00207405 0)
(0 0.00211218 0)
(0 0.0020802 0)
(0 0.0021165 0)
(0 0.00208695 0)
(0 0.0020469 0)
(0 0.00205486 0)
(0 0.00209441 0)
(0 0.00206068 0)
(0 0.0020994 0)
(0 0.00206125 0)
(0 0.00201847 0)
(0 0.00209963 0)
(0 0.00205496 0)
(0 0.00209242 0)
(0 0.00204214 0)
(0 0.00207902 0)
(0 0.00202237 0)
(0 0.00205951 0)
(0 0.0019957 0)
(0 0.001959 0)
(0 0.00192647 0)
(0 0.00189083 0)
(0 0.00213149 0)
(0 0.000474987 0)
(0 0.000439012 0)
(0 0.000388138 0)
(0 0.000405001 0)
(0 0.000355938 0)
(0 0.000373064 0)
(0 0.000325025 0)
(0 0.000342925 0)
(0 0.000392495 0)
(0 0.000362893 0)
(0 0.000314491 0)
(0 0.000334708 0)
(0 0.000288301 0)
(0 0.000308548 0)
(0 0.000264301 0)
(0 0.00028471 0)
(0 0.000330753 0)
(0 0.000307375 0)
(0 0.000262594 0)
(0 0.000286099 0)
(0 0.000242542 0)
(0 0.000265866 0)
(0 0.000224907 0)
(0 0.00024703 0)
(0 0.000209751 0)
(0 0.000233069 0)
(0 0.000196225 0)
(0 0.000220955 0)
(0 0.000185181 0)
(0 0.000210434 0)
(0 0.00017702 0)
(0 0.000203486 0)
(0 0.000170416 0)
(0 0.000198481 0)
(0 0.000165836 0)
(0 0.000195361 0)
(0 0.000163148 0)
(0 0.000194065 0)
(0 0.000162696 0)
(0 0.000195393 0)
(0 0.00016459 0)
(0 0.000198554 0)
(0 0.000168771 0)
(0 0.000203509 0)
(0 0.000175089 0)
(0 0.000211295 0)
(0 0.0001836 0)
(0 0.000221374 0)
(0 0.000194888 0)
(0 0.000233376 0)
(0 0.000207682 0)
(0 0.000247963 0)
(0 0.000222458 0)
(0 0.00026421 0)
(0 0.000240717 0)
(0 0.000283543 0)
(0 0.000261404 0)
(0 0.000306819 0)
(0 0.000284092 0)
(0 0.000292949 0)
(0 0.000227413 0)
(0 0.000239983 0)
(0 0.000262483 0)
(0 0.000219801 0)
(0 0.000242439 0)
(0 0.000287165 0)
(0 0.000267143 0)
(0 0.000224063 0)
(0 0.000248903 0)
(0 0.000207118 0)
(0 0.000232537 0)
(0 0.000275685 0)
(0 0.00026036 0)
(0 0.000220266 0)
(0 0.000246905 0)
(0 0.000261775 0)
(0 0.000289932 0)
(0 0.000275762 0)
(0 0.000233193 0)
(0 0.000262694 0)
(0 0.000220709 0)
(0 0.000251012 0)
(0 0.000210685 0)
(0 0.000239792 0)
(0 0.000201812 0)
(0 0.00023095 0)
(0 0.000194837 0)
(0 0.00022968 0)
(0 0.00019039 0)
(0 0.000217006 0)
(0 0.000184574 0)
(0 0.000210536 0)
(0 0.000178668 0)
(0 0.000207173 0)
(0 0.000176155 0)
(0 0.000207491 0)
(0 0.000175393 0)
(0 0.000209 0)
(0 0.000176411 0)
(0 0.00021107 0)
(0 0.000179168 0)
(0 0.00021524 0)
(0 0.000183766 0)
(0 0.000221625 0)
(0 0.0001904 0)
(0 0.000229315 0)
(0 0.000199212 0)
(0 0.000240132 0)
(0 0.000210567 0)
(0 0.00025613 0)
(0 0.000224596 0)
(0 0.000272475 0)
(0 0.000240542 0)
(0 0.000289222 0)
(0 0.000259051 0)
(0 0.000310379 0)
(0 0.000280742 0)
(0 0.000335755 0)
(0 0.000307569 0)
(0 0.000364832 0)
(0 0.000338444 0)
(0 0.000398542 0)
(0 0.000371683 0)
(0 0.000436066 0)
(0 0.000408498 0)
(0 0.000477512 0)
(0 0.000449615 0)
(0 0.00038223 0)
(0 0.000423748 0)
(0 0.000358329 0)
(0 0.000400825 0)
(0 0.00033685 0)
(0 0.000447823 0)
(0 0.000241868 0)
(0 0.000261574 0)
(0 0.000355593 0)
(0 0.000187503 0)
(0 0.000174051 0)
(0 0.000295182 0)
(0 0.000339824 0)
(0 0.000156401 0)
(0 0.000230374 0)
(0 0.000464668 0)
(0 0.000241068 0)
(0 0.000149333 0)
(0 0.00014559 0)
(0 0.000134154 0)
(0 0.000170735 0)
(0 0.000146295 0)
(0 0.00203039 0)
(0 0.0018523 0)
(0 0.0018179 0)
(0 0.00177379 0)
(0 0.00173914 0)
(0 0.00184216 0)
(0 0.0015791 0)
(0 0.0016687 0)
(0 0.00186732 0)
(0 0.00157884 0)
(0 0.00166998 0)
(0 0.00157446 0)
(0 0.00168556 0)
(0 0.00165044 0)
(0 0.00170161 0)
(0 0.00159679 0)
(0 0.00165755 0)
(0 0.00155436 0)
(0 0.00160081 0)
(0 0.00149846 0)
(0 0.00153273 0)
(0 0.00142725 0)
(0 0.00144996 0)
(0 0.00133511 0)
(0 0.00135265 0)
(0 0.00123958 0)
(0 0.00172271 0)
(0 0.00250277 0)
(0 0.00250016 0)
(0 0.00240467 0)
(0 0.00239231 0)
(0 0.00215086 0)
(0 0.00208076 0)
(0 0.00214447 0)
(0 0.00210162 0)
(0 0.00222992 0)
(0 0.00228446 0)
(0 0.00206064 0)
(0 0.00211916 0)
(0 0.00200948 0)
(0 0.000492464 0)
(0 0.00198558 0)
(0 0.00201477 0)
(0 0.00198204 0)
(0 0.00226194 0)
(0 0.00191697 0)
(0 0.00180214 0)
(0 0.00174231 0)
(0 0.00198664 0)
(0 0.00176875 0)
(0 -1.24894e-05 0)
(0 -2.12179e-05 0)
(0 -1.01577e-05 0)
(0 -1.9293e-05 0)
(0 -8.02901e-06 0)
(0 -1.70333e-05 0)
(0 0.0012538 0)
(0 0.00136263 0)
(0 0.000247222 0)
(0 0.00157781 0)
(0 0.00208427 0)
(0 0.00213441 0)
(0 0.00113933 0)
(0 -2.73113e-05 0)
(0 -2.47343e-05 0)
(0 0.00172642 0)
(0 0.00125687 0)
(0 0.001365 0)
(0 0.0021449 0)
(0 0.0021001 0)
(0 0.00214467 0)
(0 0.00145216 0)
(0 0.00211021 0)
(0 -1.39363e-05 0)
(0 -2.15055e-05 0)
(0 -3.11573e-05 0)
(0 -2.79294e-05 0)
(0 0.000245444 0)
(0 0.00210848 0)
(0 0.0020599 0)
(0 0.00215219 0)
(0 0.00218002 0)
(0 0.00121148 0)
(0 0.0012469 0)
(0 0.00135422 0)
(0 0.00211652 0)
(0 -3.64346e-05 0)
(0 -3.31478e-05 0)
(0 -2.4371e-05 0)
(0 -2.91692e-05 0)
(0 -3.72371e-05 0)
(0 -3.28631e-05 0)
(0 -4.02681e-05 0)
(0 -3.59006e-05 0)
(0 -4.2424e-05 0)
(0 -3.80037e-05 0)
(0 -4.40341e-05 0)
(0 -3.95417e-05 0)
(0 -4.51527e-05 0)
(0 -4.05339e-05 0)
(0 -4.58311e-05 0)
(0 -4.1226e-05 0)
(0 -4.69312e-05 0)
(0 -4.15739e-05 0)
(0 -4.63049e-05 0)
(0 -4.1272e-05 0)
(0 -4.57307e-05 0)
(0 -4.05416e-05 0)
(0 -4.49304e-05 0)
(0 -3.96083e-05 0)
(0 -4.39405e-05 0)
(0 -3.85262e-05 0)
(0 -4.28973e-05 0)
(0 -3.72073e-05 0)
(0 -4.14204e-05 0)
(0 -3.56581e-05 0)
(0 -3.98191e-05 0)
(0 -3.41067e-05 0)
(0 -3.84203e-05 0)
(0 -3.21035e-05 0)
(0 -3.68227e-05 0)
(0 -2.94733e-05 0)
(0 -3.45894e-05 0)
(0 -2.8855e-05 0)
(0 -2.66025e-05 0)
(0 -3.19221e-05 0)
(0 -2.34021e-05 0)
(0 -2.90485e-05 0)
(0 -3.55773e-05 0)
(0 -1.72021e-05 0)
(0 -3.66925e-05 0)
(0 -3.40753e-05 0)
(0 -2.58597e-05 0)
(0 -3.11259e-05 0)
(0 -2.23031e-05 0)
(0 -2.78275e-05 0)
(0 -3.57748e-05 0)
(0 -3.27406e-05 0)
(0 -2.41216e-05 0)
(0 -2.93049e-05 0)
(0 -3.98678e-05 0)
(0 -1.99196e-05 0)
(0 -2.53735e-05 0)
(0 -4.31052e-05 0)
(0 -3.43419e-05 0)
(0 -3.26765e-05 0)
(0 -2.33594e-05 0)
(0 -1.51007e-05 0)
(0 -2.09031e-05 0)
(0 -3.04157e-05 0)
(0 -2.61415e-05 0)
(0 -3.47402e-05 0)
(0 -3.07043e-05 0)
(0 -8.74924e-06 0)
(0 -3.83439e-05 0)
(0 -3.46586e-05 0)
(0 -2.61505e-05 0)
(0 -3.02588e-05 0)
(0 -2.06653e-05 0)
(0 -2.5063e-05 0)
(0 -3.39986e-05 0)
(0 -2.89625e-05 0)
(0 -4.67134e-05 0)
(0 -3.69919e-05 0)
(0 -3.21516e-05 0)
(0 -2.30284e-05 0)
(0 -2.65972e-05 0)
(0 -3.50043e-05 0)
(0 -2.92684e-05 0)
(0 -3.72914e-05 0)
(0 -3.09248e-05 0)
(0 -3.87276e-05 0)
(0 -3.19911e-05 0)
(0 -3.94625e-05 0)
(0 -3.23565e-05 0)
(0 -3.94667e-05 0)
(0 -3.19645e-05 0)
(0 -3.88396e-05 0)
(0 -3.06817e-05 0)
(0 -3.7319e-05 0)
(0 -2.848e-05 0)
(0 -3.48886e-05 0)
(0 -2.54328e-05 0)
(0 -3.17317e-05 0)
(0 -2.1502e-05 0)
(0 -2.81754e-05 0)
(0 -1.64404e-05 0)
(0 -1.80146e-05 0)
(0 -2.82149e-06 0)
(0 -2.33727e-05 0)
(0 -2.15196e-05 0)
(0 0.00223966 0)
(0 0.00206791 0)
(0 0.00220116 0)
(0 0.00215751 0)
(0 0.00212351 0)
(0 0.00160487 0)
(0 0.00197496 0)
(0 0.00199006 0)
(0 0.00203795 0)
(0 -2.88026e-06 0)
(0 4.48673e-06 0)
(0 0.00123055 0)
(0 0.00132683 0)
(0 -4.97225e-05 0)
(0 0.00216509 0)
(0 0.000414127 0)
(0 0.0018873 0)
(0 0.00201152 0)
(0 0.00112678 0)
(0 0.000523256 0)
(0 0.000297307 0)
(0 0.00146109 0)
(0 0.00146744 0)
(0 0.00157068 0)
(0 0.00146023 0)
(0 0.00119583 0)
(0 0.00128342 0)
(0 0.00141331 0)
(0 0.00136842 0)
(0 0.00123073 0)
(0 0.00131617 0)
(0 0.0018794 0)
(0 0.00194089 0)
(0 0.00156022 0)
(0 0.00144701 0)
(0 0.00154335 0)
(0 0.00142718 0)
(0 -4.62038e-05 0)
(0 0.00215961 0)
(0 0.00212935 0)
(0 -4.38574e-05 0)
(0 1.15632e-05 0)
(0 1.99897e-05 0)
(0 0.00177501 0)
(0 0.0018401 0)
(0 0.00149716 0)
(0 0.00117226 0)
(0 0.00125508 0)
(0 -4.94404e-05 0)
(0 0.00106429 0)
(0 0.00111528 0)
(0 0.00101387 0)
(0 0.00106735 0)
(0 0.000967533 0)
(0 0.00102149 0)
(0 0.000923123 0)
(0 0.000983243 0)
(0 0.000883517 0)
(0 0.000946919 0)
(0 0.000851301 0)
(0 0.000924291 0)
(0 0.000822513 0)
(0 0.000883266 0)
(0 0.000795403 0)
(0 0.000859534 0)
(0 0.000773633 0)
(0 0.000839091 0)
(0 0.000755905 0)
(0 0.000822947 0)
(0 0.000743157 0)
(0 0.000810676 0)
(0 0.000734037 0)
(0 0.000801665 0)
(0 0.000727358 0)
(0 0.000795589 0)
(0 0.000872237 0)
(0 0.0008666 0)
(0 0.000791986 0)
(0 0.000864505 0)
(0 0.000790752 0)
(0 0.00086509 0)
(0 0.00079225 0)
(0 0.000869275 0)
(0 0.00079712 0)
(0 0.000874538 0)
(0 0.000804246 0)
(0 0.000879358 0)
(0 0.000813071 0)
(0 0.000887544 0)
(0 0.000824584 0)
(0 0.000900094 0)
(0 0.000840432 0)
(0 0.000912158 0)
(0 0.000858062 0)
(0 0.000932261 0)
(0 0.000877674 0)
(0 0.000967297 0)
(0 0.000892181 0)
(0 0.000973333 0)
(0 0.000909859 0)
(0 0.000993593 0)
(0 0.000935419 0)
(0 0.00101845 0)
(0 0.000964209 0)
(0 0.000959749 0)
(0 0.000878785 0)
(0 0.000910913 0)
(0 0.00100391 0)
(0 0.000943209 0)
(0 0.000864173 0)
(0 0.000897536 0)
(0 0.000973354 0)
(0 0.000930821 0)
(0 0.00084838 0)
(0 0.00088984 0)
(0 0.000968795 0)
(0 0.000926455 0)
(0 0.000841903 0)
(0 0.000886749 0)
(0 0.000811287 0)
(0 0.000851087 0)
(0 0.000776082 0)
(0 0.00082012 0)
(0 0.000746633 0)
(0 0.000795648 0)
(0 0.000722807 0)
(0 0.000774684 0)
(0 0.000703338 0)
(0 0.000757125 0)
(0 0.000687591 0)
(0 0.000742759 0)
(0 0.000675407 0)
(0 0.000732165 0)
(0 0.000800382 0)
(0 0.000791294 0)
(0 0.000725237 0)
(0 0.000785552 0)
(0 0.000721487 0)
(0 0.000783508 0)
(0 0.000721413 0)
(0 0.000786478 0)
(0 0.000850544 0)
(0 0.000927726 0)
(0 0.000725349 0)
(0 0.000793267 0)
(0 0.000732942 0)
(0 0.000802517 0)
(0 0.000743739 0)
(0 0.000817071 0)
(0 0.000757038 0)
(0 0.000832857 0)
(0 0.000772468 0)
(0 0.000847168 0)
(0 0.000789913 0)
(0 0.000864946 0)
(0 0.000813666 0)
(0 0.000898711 0)
(0 0.00084109 0)
(0 0.000916576 0)
(0 0.000860376 0)
(0 0.000944866 0)
(0 0.000902059 0)
(0 0.000976742 0)
(0 0.000991301 0)
(0 0.00085302 0)
(0 0.000880718 0)
(0 0.000920694 0)
(0 0.00094558 0)
(0 0.000944663 0)
(0 0.00103047 0)
(0 0.000932331 0)
(0 0.00100898 0)
(0 0.000820319 0)
(0 0.00094622 0)
(0 0.00105992 0)
(0 0.000658961 0)
(0 0.00117923 0)
(0 0.000964599 0)
(0 0.00104272 0)
(0 0.00108816 0)
(0 0.00112192 0)
(0 0.00116816 0)
(0 0.00120086 0)
(0 0.00115623 0)
(0 0.00123478 0)
(0 0.00119045 0)
(0 0.00126879 0)
(0 0.00122451 0)
(0 0.00130257 0)
(0 0.000763345 0)
(0 0.000687787 0)
(0 0.00072014 0)
(0 0.00125858 0)
(0 0.00133742 0)
(0 0.00131479 0)
(0 0.00073276 0)
(0 0.000653232 0)
(0 0.000760481 0)
(0 0.000691497 0)
(0 0.000662387 0)
(0 0.000865483 0)
(0 -4.48848e-05 0)
(0 0.00129112 0)
(0 0.00136882 0)
(0 0.000868665 0)
(0 0.00132086 0)
(0 0.00139676 0)
(0 0.000764109 0)
(0 0.00170443 0)
(0 0.00163286 0)
(0 0.0013534 0)
(0 0.00166772 0)
(0 0.00173613 0)
(0 0.00134884 0)
(0 0.00142519 0)
(0 0.00152525 0)
(0 0.00140744 0)
(0 0.00269389 0)
(0 0.00208445 0)
(0 0.00209471 0)
(0 0.0011058 0)
(0 0.0011852 0)
(0 0.00133282 0)
(0 0.00126525 0)
(0 0.00140937 0)
(0 0.00134561 0)
(0 0.00120024 0)
(0 0.00128427 0)
(0 0.00142493 0)
(0 0.00136889 0)
(0 0.00122512 0)
(0 0.00131453 0)
(0 0.00116755 0)
(0 0.00126072 0)
(0 0.00146998 0)
(0 0.00149738 0)
(0 0.00130116 0)
(0 0.00128339 0)
(0 0.00140376 0)
(0 0.00135641 0)
(0 0.00120707 0)
(0 0.00131315 0)
(0 0.00125197 0)
(0 2.83086e-05 0)
(0 0.00215556 0)
(0 0.00217542 0)
(0 0.00101315 0)
(0 0.00115375 0)
(0 0.00126606 0)
(0 0.00143484 0)
(0 0.00137276 0)
(0 0.00102159 0)
(0 0.00103598 0)
(0 0.00145556 0)
(0 0.00152533 0)
(0 3.77577e-05 0)
(0 2.88655e-05 0)
(0 4.78534e-05 0)
(0 3.814e-05 0)
(0 0.00121104 0)
(0 0.00132175 0)
(0 5.90567e-05 0)
(0 4.89854e-05 0)
(0 0.00216145 0)
(0 0.00217327 0)
(0 0.00155129 0)
(0 0.00162717 0)
(0 0.00181658 0)
(0 0.00169301 0)
(0 0.00151202 0)
(0 0.00158022 0)
(0 0.00174344 0)
(0 0.00163235 0)
(0 0.00114357 0)
(0 0.00146711 0)
(0 0.001426 0)
(0 0.00126731 0)
(0 0.00138382 0)
(0 -4.1738e-05 0)
(0 -4.45424e-05 0)
(0 -4.70999e-05 0)
(0 -4.94398e-05 0)
(0 -5.12017e-05 0)
(0 -5.31257e-05 0)
(0 -5.43613e-05 0)
(0 -5.58176e-05 0)
(0 -5.66942e-05 0)
(0 -5.47621e-05 0)
(0 -5.5448e-05 0)
(0 -5.74015e-05 0)
(0 -5.6368e-05 0)
(0 -5.79739e-05 0)
(0 -5.69879e-05 0)
(0 0.00116587 0)
(0 0.00115472 0)
(0 0.00127213 0)
(0 0.0011478 0)
(0 0.00204161 0)
(0 0.00205469 0)
(0 0.00143893 0)
(0 4.74535e-05 0)
(0 3.74949e-05 0)
(0 -5.84524e-05 0)
(0 -5.75234e-05 0)
(0 -5.88251e-05 0)
(0 -5.80439e-05 0)
(0 0.00148654 0)
(0 0.0015543 0)
(0 0.00153905 0)
(0 0.0012124 0)
(0 0.000950313 0)
(0 0.00178929 0)
(0 0.001517 0)
(0 0.00158224 0)
(0 0.00161939 0)
(0 0.0016451 0)
(0 0.00160675 0)
(0 0.00166669 0)
(0 0.00162788 0)
(0 0.00168569 0)
(0 -5.9138e-05 0)
(0 -5.8461e-05 0)
(0 -5.70822e-05 0)
(0 -5.76134e-05 0)
(0 -5.88211e-05 0)
(0 -5.80641e-05 0)
(0 -5.91286e-05 0)
(0 -5.84606e-05 0)
(0 -5.71133e-05 0)
(0 -5.76139e-05 0)
(0 -5.88127e-05 0)
(0 -5.8063e-05 0)
(0 -5.55415e-05 0)
(0 0.00124245 0)
(0 -5.91066e-05 0)
(0 -5.84366e-05 0)
(0 -5.93386e-05 0)
(0 -5.87728e-05 0)
(0 -5.70096e-05 0)
(0 -5.61345e-05 0)
(0 0.00126295 0)
(0 0.00114041 0)
(0 0.000801235 0)
(0 7.14947e-05 0)
(0 6.14694e-05 0)
(0 0.0016821 0)
(0 -5.59141e-05 0)
(0 0.00215289 0)
(0 0.00215887 0)
(0 0.00214232 0)
(0 0.00218114 0)
(0 0.00216175 0)
(0 0.00218401 0)
(0 0.00216042 0)
(0 0.00218318 0)
(0 0.00215548 0)
(0 0.00217795 0)
(0 0.00214788 0)
(0 0.00216908 0)
(0 0.00213755 0)
(0 0.00215877 0)
(0 0.00212685 0)
(0 0.00214886 0)
(0 0.00211594 0)
(0 0.00214072 0)
(0 0.00210679 0)
(0 0.00213506 0)
(0 0.0021019 0)
(0 0.00213137 0)
(0 0.00210074 0)
(0 0.00213046 0)
(0 0.00210285 0)
(0 0.00213255 0)
(0 0.0021066 0)
(0 0.00216087 0)
(0 0.00213646 0)
(0 0.00211191 0)
(0 0.00218304 0)
(0 0.00214142 0)
(0 0.00211683 0)
(0 0.00214743 0)
(0 0.00212339 0)
(0 0.00215462 0)
(0 0.00213215 0)
(0 0.00216131 0)
(0 0.00216387 0)
(0 0.0021436 0)
(0 0.00210656 0)
(0 0.00212258 0)
(0 0.00215829 0)
(0 0.002142 0)
(0 0.00217615 0)
(0 0.002164 0)
(0 0.00219612 0)
(0 0.00218774 0)
(0 0.00221707 0)
(0 0.00221109 0)
(0 0.00208049 0)
(0 0.00223863 0)
(0 0.00223511 0)
(0 0.00220101 0)
(0 0.00223 0)
(0 0.00226039 0)
(0 0.00225951 0)
(0 0.0022873 0)
(0 0.00228862 0)
(0 0.00225439 0)
(0 0.00228618 0)
(0 0.00224682 0)
(0 0.00228194 0)
(0 0.00231761 0)
(0 0.00231641 0)
(0 0.00227481 0)
(0 0.00231221 0)
(0 0.00235007 0)
(0 0.00235021 0)
(0 0.00230643 0)
(0 0.00235012 0)
(0 0.00230079 0)
(0 0.00235174 0)
(0 0.00239709 0)
(0 0.00240714 0)
(0 0.00235607 0)
(0 0.00242054 0)
(0 0.00246551 0)
(0 0.00248536 0)
(0 0.00243721 0)
(0 0.00250562 0)
(0 0.00245497 0)
(0 0.00252743 0)
(0 0.00257323 0)
(0 0.00259754 0)
(0 0.00254878 0)
(0 0.0026195 0)
(0 0.00256872 0)
(0 0.00264069 0)
(0 0.00258669 0)
(0 0.00268743 0)
(0 0.00266245 0)
(0 0.00260542 0)
(0 0.00268671 0)
(0 0.0026281 0)
(0 0.00271323 0)
(0 0.00265232 0)
(0 0.0027665 0)
(0 0.00273895 0)
(0 0.00267594 0)
(0 0.00258342 0)
(0 0.00260834 0)
(0 0.00271425 0)
(0 0.00263511 0)
(0 0.00251431 0)
(0 0.00253485 0)
(0 0.00256137 0)
(0 0.00266237 0)
(0 0.00259032 0)
(0 0.00269028 0)
(0 0.00262335 0)
(0 0.00212032 0)
(0 0.00206458 0)
(0 0.00247289 0)
(0 0.00208462 0)
(0 0.0016375 0)
(0 0.00162327 0)
(0 0.00102551 0)
(0 0.00103627 0)
(0 0.001526 0)
(0 -5.75697e-05 0)
(0 -5.79972e-05 0)
(0 -5.9081e-05 0)
(0 -5.83844e-05 0)
(0 -5.93349e-05 0)
(0 -5.87165e-05 0)
(0 -5.95498e-05 0)
(0 -5.8994e-05 0)
(0 -5.74281e-05 0)
(0 0.000863079 0)
(0 0.00164549 0)
(0 0.00175191 0)
(0 -4.22614e-05 0)
(0 -5.83916e-05 0)
(0 0.00170057 0)
(0 0.00184071 0)
(0 -5.96192e-05 0)
(0 0.000221004 0)
(0 -5.91861e-05 0)
(0 0.00220258 0)
(0 -4.86731e-05 0)
(0 0.000199311 0)
(0 0.000157406 0)
(0 -5.79899e-05 0)
(0 -5.726e-05 0)
(0 0.0017326 0)
(0 0.00174248 0)
(0 0.000134631 0)
(0 0.000142071 0)
(0 0.00162913 0)
(0 -9.809e-06 0)
(0 0.000180358 0)
(0 0.00014651 0)
(0 -4.54103e-05 0)
(0 0.00215934 0)
(0 0.0015537 0)
(0 0.000183951 0)
(0 0.00199564 0)
(0 0.00153353 0)
(0 0.000620988 0)
(0 0.00167077 0)
(0 0.00210758 0)
(0 0.00144815 0)
(0 0.00255405 0)
(0 0.000154554 0)
(0 0.00186474 0)
(0 0.00207029 0)
(0 0.00249298 0)
(0 0.00170698 0)
(0 0.000667854 0)
(0 0.00238158 0)
(0 0.00164538 0)
(0 0.0015818 0)
(0 0.00155503 0)
(0 0.0014921 0)
(0 0.00146393 0)
(0 0.00140131 0)
(0 0.00143306 0)
(0 0.00192584 0)
(0 0.00194744 0)
(0 0.00200785 0)
(0 0.00202721 0)
(0 0.00225323 0)
(0 0.00221073 0)
(0 5.81786e-05 0)
(0 4.79827e-05 0)
(0 0.00173177 0)
(0 -1.43545e-05 0)
(0 0.000331897 0)
(0 0.000355505 0)
(0 0.000383425 0)
(0 0.000408161 0)
(0 0.000439376 0)
(0 0.00046606 0)
(0 0.000499073 0)
(0 0.000472772 0)
(0 0.000534466 0)
(0 0.000508736 0)
(0 0.000527589 0)
(0 0.000495494 0)
(0 0.000196218 0)
(0 0.000715621 0)
(0 0.00146967 0)
(0 0.00212827 0)
(0 0.00197897 0)
(0 0.00182905 0)
(0 0.000312251 0)
(0 0.00238406 0)
(0 0.00212821 0)
(0 0.00187848 0)
(0 0.00219539 0)
(0 0.000732579 0)
(0 0.00231344 0)
(0 0.00217991 0)
(0 0.00267559 0)
(0 0.0027321 0)
(0 0.00270471 0)
(0 0.002757 0)
(0 0.00211885 0)
(0 0.000285809 0)
(0 0.00212748 0)
(0 0.00252604 0)
(0 0.000322112 0)
(0 0.00264002 0)
(0 0.00199637 0)
(0 0.000834168 0)
(0 0.000904575 0)
(0 0.000860227 0)
(0 0.00207944 0)
(0 -5.97347e-05 0)
(0 -5.92355e-05 0)
(0 -5.82433e-05 0)
(0 -5.85508e-05 0)
(0 -5.94658e-05 0)
(0 -5.88276e-05 0)
(0 -5.58776e-05 0)
(0 -5.76954e-05 0)
(0 8.52265e-05 0)
(0 7.47605e-05 0)
(0 5.19849e-05 0)
(0 6.51065e-05 0)
(0 4.34062e-05 0)
(0 5.64659e-05 0)
(0 3.5444e-05 0)
(0 4.86397e-05 0)
(0 2.68627e-05 0)
(0 4.2231e-05 0)
(0 6.33594e-05 0)
(0 5.71161e-05 0)
(0 3.72736e-05 0)
(0 5.12884e-05 0)
(0 3.30056e-05 0)
(0 4.5641e-05 0)
(0 2.92656e-05 0)
(0 4.16979e-05 0)
(0 2.57464e-05 0)
(0 3.95453e-05 0)
(0 2.35949e-05 0)
(0 3.73169e-05 0)
(0 2.1897e-05 0)
(0 3.56536e-05 0)
(0 2.05758e-05 0)
(0 3.56406e-05 0)
(0 2.08057e-05 0)
(0 6.46372e-05 0)
(0 3.65773e-05 0)
(0 2.20843e-05 0)
(0 3.87407e-05 0)
(0 2.42038e-05 0)
(0 0.00198819 0)
(0 0.00125654 0)
(0 0.00113489 0)
(0 0.00101472 0)
(0 0.00101042 0)
(0 0.00112845 0)
(0 0.00100111 0)
(0 0.00111441 0)
(0 0.000983007 0)
(0 0.00109246 0)
(0 0.000957745 0)
(0 0.00137566 0)
(0 0.00215543 0)
(0 0.00195372 0)
(0 0.00150369 0)
(0 0.0015568 0)
(0 0.00162395 0)
(0 0.00167377 0)
(0 0.00172839 0)
(0 0.00168261 0)
(0 0.00174797 0)
(0 0.00134671 0)
(0 0.00114888 0)
(0 0.00102747 0)
(0 0.000571379 0)
(0 0.00149177 0)
(0 0.0010085 0)
(0 0.000315006 0)
(0 1.23575e-05 0)
(0 2.58516e-05 0)
(0 2.88043e-05 0)
(0 4.40072e-05 0)
(0 4.76766e-05 0)
(0 6.47478e-05 0)
(0 6.01623e-05 0)
(0 6.92143e-05 0)
(0 8.37372e-05 0)
(0 5.19601e-05 0)
(0 0.000104611 0)
(0 0.000127391 0)
(0 7.44231e-05 0)
(0 5.78778e-05 0)
(0 0.000157628 0)
(0 0.00215196 0)
(0 0.00151378 0)
(0 0.00158096 0)
(0 0.00155641 0)
(0 7.93469e-05 0)
(0 0.00200907 0)
(0 0.00231228 0)
(0 0.00189333 0)
(0 -1.67294e-05 0)
(0 0.00246978 0)
(0 0.00252153 0)
(0 0.00207939 0)
(0 0.00104916 0)
(0 0.000988252 0)
(0 0.000888084 0)
(0 0.00105173 0)
(0 0.00109207 0)
(0 0.0011333 0)
(0 0.00117462 0)
(0 0.00107904 0)
(0 -5.64527e-05 0)
(0 0.00276013 0)
(0 0.00228261 0)
(0 -1.32867e-05 0)
(0 0.00250193 0)
(0 0.000337399 0)
(0 0.000372526 0)
(0 0.000388837 0)
(0 0.000426399 0)
(0 0.000443545 0)
(0 0.000410543 0)
(0 0.000467094 0)
(0 0.000451986 0)
(0 0.000559062 0)
(0 0.000527563 0)
(0 0.00237859 0)
(0 0.0024089 0)
(0 0.00239966 0)
(0 0.00113417 0)
(0 0.00121832 0)
(0 0.00117932 0)
(0 0.00126352 0)
(0 0.00122645 0)
(0 0.00131001 0)
(0 0.00127582 0)
(0 0.00125436 0)
(0 0.00119061 0)
(0 0.00124303 0)
(0 0.00219969 0)
(0 -5.59566e-05 0)
(0 0.00106728 0)
(0 0.000929199 0)
(0 0.00103883 0)
(0 0.00089708 0)
(0 9.29893e-05 0)
(0 0.00215583 0)
(0 0.00200208 0)
(0 0.000905387 0)
(0 0.00146837 0)
(0 0.0013409 0)
(0 0.00115807 0)
(0 0.00121276 0)
(0 0.00113003 0)
(0 0.0011874 0)
(0 0.001108 0)
(0 0.00117625 0)
(0 0.00126388 0)
(0 8.18225e-05 0)
(0 0.000112062 0)
(0 9.93319e-05 0)
(0 0.000132805 0)
(0 0.000119052 0)
(0 8.72434e-05 0)
(0 0.000107443 0)
(0 7.70021e-05 0)
(0 9.81442e-05 0)
(0 6.87393e-05 0)
(0 8.99049e-05 0)
(0 6.31476e-05 0)
(0 8.25137e-05 0)
(0 5.8144e-05 0)
(0 -5.98181e-05 0)
(0 0.00026684 0)
(0 0.00223838 0)
(0 0.00124449 0)
(0 0.00121514 0)
(0 0.00129239 0)
(0 0.00126442 0)
(0 0.00134424 0)
(0 0.00131585 0)
(0 0.0019684 0)
(0 0.000975975 0)
(0 0.00107718 0)
(0 0.00168136 0)
(0 -1.59899e-05 0)
(0 0.000553214 0)
(0 0.000232445 0)
(0 -5.30705e-05 0)
(0 0.000787562 0)
(0 0.000849572 0)
(0 4.23411e-05 0)
(0 2.78862e-05 0)
(0 0.000394086 0)
(0 -5.75313e-05 0)
(0 -5.42539e-05 0)
(0 0.000262886 0)
(0 0.000233745 0)
(0 0.00178238 0)
(0 0.000283215 0)
(0 -5.96512e-05 0)
(0 -5.90616e-05 0)
(0 0.00124391 0)
(0 0.00137322 0)
(0 5.64744e-05 0)
(0 0.000247291 0)
(0 0.000865059 0)
(0 5.0269e-05 0)
(0 -5.53229e-05 0)
(0 -3.19117e-05 0)
(0 0.000822254 0)
(0 -2.4545e-05 0)
(0 0.001999 0)
(0 0.00198857 0)
(0 0.00212921 0)
(0 0.00172458 0)
(0 0.00279185 0)
(0 0.00281099 0)
(0 0.00201053 0)
(0 0.00206102 0)
(0 0.00201578 0)
(0 0.00205838 0)
(0 0.00208869 0)
(0 0.00139558 0)
(0 0.00136824 0)
(0 0.00128761 0)
(0 0.0013417 0)
(0 0.00126111 0)
(0 0.00131781 0)
(0 0.00123739 0)
(0 0.00129618 0)
(0 0.00121605 0)
(0 0.00127731 0)
(0 0.00119782 0)
(0 0.00126202 0)
(0 0.00118251 0)
(0 0.00125043 0)
(0 0.00117047 0)
(0 0.00124135 0)
(0 0.0011613 0)
(0 0.00123359 0)
(0 0.00115462 0)
(0 0.0012307 0)
(0 0.00190662 0)
(0 -5.50942e-05 0)
(0 -5.63013e-05 0)
(0 -5.96396e-05 0)
(0 8.09105e-05 0)
(0 6.52061e-05 0)
(0 -5.72582e-05 0)
(0 0.00131518 0)
(0 0.000573085 0)
(0 0.000548263 0)
(0 0.00100335 0)
(0 0.000861505 0)
(0 0.000884945 0)
(0 0.000894679 0)
(0 -9.27427e-06 0)
(0 -1.89565e-06 0)
(0 0.00255891 0)
(0 0.000600109 0)
(0 -6.05973e-05 0)
(0 7.27935e-06 0)
(0 0.00172125 0)
(0 0.00157049 0)
(0 0.00115295 0)
(0 0.00123697 0)
(0 0.00224738 0)
(0 0.00110238 0)
(0 0.00116286 0)
(0 0.00134414 0)
(0 8.53237e-06 0)
(0 0.00199228 0)
(0 0.000603456 0)
(0 0.000636093 0)
(0 7.67334e-05 0)
(0 5.33023e-05 0)
(0 6.92783e-05 0)
(0 0.00192543 0)
(0 -5.8184e-05 0)
(0 -5.73502e-05 0)
(0 -5.50291e-05 0)
(0 -5.61805e-05 0)
(0 -5.81764e-05 0)
(0 -5.70842e-05 0)
(0 0.00110969 0)
(0 0.000784298 0)
(0 0.00223578 0)
(0 0.000697752 0)
(0 0.000773064 0)
(0 1.03939e-05 0)
(0 4.72162e-05 0)
(0 3.34729e-05 0)
(0 7.2747e-05 0)
(0 5.15027e-05 0)
(0 0.000100252 0)
(0 0.000961334 0)
(0 0.000819063 0)
(0 0.000906228 0)
(0 0.000768001 0)
(0 0.000840223 0)
(0 0.000708003 0)
(0 0.000764904 0)
(0 0.000639026 0)
(0 0.000680137 0)
(0 0.000561395 0)
(0 0.000588618 0)
(0 0.000479899 0)
(0 0.000497515 0)
(0 0.000604627 0)
(0 0.000403217 0)
(0 0.000504384 0)
(0 0.00061322 0)
(0 0.000502503 0)
(0 0.000612906 0)
(0 0.00037816 0)
(0 0.000513765 0)
(0 0.000314976 0)
(0 0.000629001 0)
(0 0.000493863 0)
(0 0.000599412 0)
(0 0.000716316 0)
(0 5.37134e-05 0)
(0 4.03919e-05 0)
(0 0.00253007 0)
(0 0.00135909 0)
(0 2.1225e-05 0)
(0 -5.96561e-05 0)
(0 0.000112385 0)
(0 0.000933138 0)
(0 0.00088953 0)
(0 0.000976763 0)
(0 0.00268074 0)
(0 -5.60879e-05 0)
(0 -5.78176e-05 0)
(0 8.16339e-05 0)
(0 0.00177798 0)
(0 0.00173919 0)
(0 0.00134316 0)
(0 0.000960221 0)
(0 0.00108132 0)
(0 0.000875257 0)
(0 -1.28986e-06 0)
(0 4.12752e-06 0)
(0 7.93941e-05 0)
(0 0.00285503 0)
(0 0.00286499 0)
(0 0.000410993 0)
(0 0.00162404 0)
(0 0.00159952 0)
(0 0.00164734 0)
(0 0.000511416 0)
(0 0.000496885 0)
(0 0.00052744 0)
(0 -5.97967e-05 0)
(0 -5.92649e-05 0)
(0 -5.82455e-05 0)
(0 -5.84945e-05 0)
(0 -5.94476e-05 0)
(0 -5.87057e-05 0)
(0 0.000284948 0)