/*--------------------------------*- C++ -*----------------------------------*\
| =========                 |                                                 |
| \\      /  F ield         | OpenFOAM: The Open Source CFD Toolbox           |
|  \\    /   O peration     | Version:  v2012                                 |
|   \\  /    A nd           | Website:  www.openfoam.com                      |
|    \\/     M anipulation  |                                                 |
\*---------------------------------------------------------------------------*/
FoamFile
{
    version     2.0;
    format      ascii;
    class       volVectorField;
    location    "550";
    object      U_0;
}
// * * * * * * * * * * * * * * * * * * * * * * * * * * * * * * * * * * * * * //

dimensions      [0 1 -1 0 0 0 0];


internalField   nonuniform List<vector> 
10042
(
(0.996341 0.00824457 -6.43674e-21)
(0.998566 0.00265456 0)
(1.02573 0.0135803 5.1412e-24)
(1.00704 7.42265e-05 1.22242e-22)
(1.10187 0.0832971 -1.06844e-19)
(0.999094 0.00253545 0)
(0.803289 -0.0639523 -2.96143e-20)
(1.04686 -0.231079 -2.15195e-20)
(1.02163 0.0129578 -7.83498e-22)
(1.00092 0.00319438 0)
(-0.446171 -0.0457198 -6.343e-20)
(1.01096 0.0001152 2.74689e-21)
(1.0128 0.00225595 -1.74738e-21)
(1.01322 0.000980933 3.12853e-21)
(0.966343 0.0438305 -1.63302e-20)
(0.999359 0.00351943 -3.27036e-21)
(0.99929 0.00368579 -3.06807e-21)
(1.00003 0.000319298 6.46169e-21)
(0.996462 0.00787379 1.04539e-20)
(0.709414 0.285337 2.15889e-20)
(1.00265 0.00419187 -4.38837e-22)
(1.03387 -0.0747796 0)
(1.01222 0.000512293 0)
(1.01119 0.00421125 -2.20533e-21)
(0.998648 0.00247228 0)
(1.05601 0.0101354 9.84396e-21)
(0.999055 -0.000476752 -8.8988e-21)
(0.995504 0.0436503 5.87954e-21)
(1.01507 0.0182616 -2.2321e-21)
(1.00134 0.0384484 -4.04205e-21)
(0.997161 0.00119185 4.44988e-21)
(-0.214867 -0.0245848 1.67327e-19)
(1.00091 0.00301948 -3.99662e-21)
(1.01445 0.0343278 1.68443e-21)
(1.04962 0.0372739 -9.51908e-21)
(1.01083 0.00428093 -3.7565e-23)
(1.05485 0.0133092 9.08366e-21)
(1.05254 -0.00421384 -9.80453e-21)
(1.0106 0.00398963 -2.09507e-21)
(1.01047 0.0967859 -7.3405e-22)
(0.679634 0.278551 -6.77332e-20)
(0.973591 0.0432182 0)
(0.80908 -0.00960551 -3.12922e-20)
(0.993273 0.0259187 9.12192e-21)
(1.10101 0.0728669 5.04605e-20)
(1.06713 -0.0295657 8.99649e-21)
(0.980189 0.0292501 -1.17064e-20)
(1.04983 -0.052133 -3.86225e-22)
(1.0542 0.0216685 -1.02623e-20)
(1.0302 -0.0237879 8.26629e-22)
(1.00029 0.000265887 -9.43888e-21)
(1.03107 0.00291464 -5.69122e-22)
(0.965336 0.0340877 1.91683e-20)
(1.0334 0.00415525 -9.32117e-23)
(1.05539 0.0148459 0)
(0.999115 0.00272049 -4.17274e-22)
(1.01569 0.0183495 0)
(0.980652 0.0282722 9.46855e-21)
(1.0149 0.0332588 0)
(0.967446 0.0342611 -8.04817e-21)
(0.997911 0.00181073 1.47409e-20)
(0.997364 0.00280686 -4.25849e-21)
(1.05077 0.0393043 1.09001e-20)
(1.02511 0.0137133 0)
(0.971276 0.0127666 -3.74641e-20)
(1.01694 0.0326198 0)
(0.978138 0.00916559 1.86555e-20)
(0.757653 0.193814 7.26759e-20)
(-0.178937 0.0248832 4.54663e-20)
(0.999442 0.0218295 0)
(1.03322 0.00382572 -4.75483e-24)
(0.663113 0.290909 -6.82591e-20)
(0.992265 0.025742 5.03361e-21)
(0.879738 0.0602328 -6.1512e-20)
(0.979116 0.00615202 -8.45157e-21)
(1.01143 0.00446675 0)
(0.980094 0.0616861 1.33052e-19)
(0.996408 0.00701471 -2.26562e-20)
(0.916453 0.0786684 0)
(0.753249 -0.166884 3.35551e-20)
(1.05231 0.0214835 1.05428e-20)
(1.276 0.106185 -1.45634e-19)
(1.00469 0.028356 0)
(0.975756 0.0375637 -3.04809e-21)
(0.978016 0.00822214 1.63709e-20)
(1.00006 0.000956899 0)
(0.9967 0.00986813 6.94825e-21)
(1.18891 0.18358 3.33867e-20)
(0.987979 0.0164732 -1.35723e-20)
(0.997037 0.0099618 5.14505e-21)
(1.0235 0.0256172 -1.61289e-22)
(1.26898 0.0978017 -2.31256e-20)
(0.996419 0.045241 -6.09607e-21)
(1.03065 0.00302605 5.08669e-22)
(1.00036 0.0372791 -1.71919e-20)
(1.01089 0.023121 3.98436e-23)
(0.99884 0.00669819 0)
(1.00662 0.0224167 0)
(1.00991 0.0936437 3.03845e-22)
(1.01887 0.0170617 7.8399e-22)
(0.999995 6.03278e-05 -5.93181e-21)
(1.17378 0.124254 1.4789e-20)
(0.976691 -0.204905 -3.59957e-22)
(1.00008 0.000972032 -4.88965e-22)
(0.990263 0.0403664 7.4264e-21)
(1.0622 0.165868 -8.21626e-21)
(0.994475 0.00743627 -1.55357e-20)
(0.998868 0.00712361 3.96174e-21)
(1.00255 0.00390956 0)
(1.01831 0.00162901 0)
(1.00767 0.00107766 -2.72221e-21)
(1.00241 0.0174748 -4.18344e-21)
(1.03198 0.0603849 5.76816e-21)
(-0.322542 0.0295823 5.15036e-20)
(0.972152 0.0119984 1.14653e-20)
(1.00032 0.0158151 4.48261e-21)
(0.992898 0.00169636 0)
(0.996256 0.0074259 -1.93459e-20)
(1.01134 0.0225416 -6.79083e-21)
(-0.0882546 -0.0312229 1.22765e-19)
(0.98813 0.0156407 0)
(1.02734 -0.210341 -1.06548e-20)
(0.995999 0.0282944 -1.02362e-20)
(0.995181 -0.000401443 2.40354e-20)
(1.1706 0.117042 0)
(1.00405 0.0288855 3.59168e-21)
(1.07337 -0.227823 2.00913e-20)
(1.05835 0.032164 0)
(1.05419 0.163423 1.31201e-20)
(0.99743 0.0107425 -5.52572e-21)
(0.914251 0.084243 2.7582e-20)
(0.982777 0.0157658 9.81323e-21)
(-0.250141 0.0142216 0)
(1.15723 -0.105784 5.95585e-20)
(1.01827 0.0171775 8.22466e-22)
(1.1106 0.123478 1.08519e-20)
(-0.280331 -0.0325288 -2.46542e-19)
(1.02361 0.0266567 -1.69075e-23)
(1.05153 -0.0532085 3.04911e-21)
(1.20023 0.188971 0)
(0.985287 0.0412625 -4.63652e-21)
(0.992514 0.00172581 0)
(0.985988 0.0363337 0)
(1.2007 0.0804931 -6.63646e-20)
(1.02823 0.00386982 -5.18152e-22)
(1.00217 0.0170097 -9.09457e-21)
(1.12093 0.0889803 -4.95403e-20)
(1.02142 0.00299264 -8.60616e-22)
(1.00659 0.0231799 0)
(1.01194 0.068367 -2.0836e-21)
(1.02319 0.0122161 5.73896e-22)
(1.00002 0.000124561 0)
(0.392381 -0.408118 5.70283e-21)
(-0.151235 -0.0933039 -5.57997e-20)
(0.999641 0.000117969 0)
(1.01279 0.00199165 6.93956e-21)
(0.960684 0.00714985 -1.64793e-20)
(0.997123 0.00280004 1.07998e-20)
(1.11134 0.130199 0)
(-0.130021 -0.0122996 -7.42471e-20)
(-0.495651 -0.0940115 1.2437e-19)
(1.15732 -0.0501577 1.4383e-20)
(0.996273 0.00153133 1.18251e-20)
(1.02283 0.0127043 7.7879e-22)
(1.00763 0.0303653 -7.23019e-22)
(0.983418 0.0148521 -2.05578e-20)
(0.979981 0.228845 5.12285e-22)
(0.196653 0.116813 -1.08684e-19)
(-0.256764 -0.0268652 1.21498e-21)
(-0.0552375 -0.0956634 -8.60053e-20)
(1.03249 0.0054917 0)
(1.00314 0.00943354 0)
(1.3359 0.106561 2.28778e-19)
(0.71519 0.340692 0)
(0.92777 0.142397 0)
(1.00582 0.236445 -1.06459e-20)
(-0.614635 0.313143 -6.79176e-20)
(0.994533 0.0272077 0)
(0.74366 0.214053 4.65427e-20)
(1.05554 0.0753182 -5.49792e-22)
(0.958532 0.00756068 -1.54463e-20)
(-0.188812 -0.0156193 1.66664e-19)
(0.977083 0.0114123 -8.00423e-21)
(1.05715 0.0335106 -1.31219e-20)
(0.973519 0.0408534 -1.37175e-20)
(-0.0216515 -0.0162716 -3.25393e-19)
(1.22249 -0.0642267 3.03356e-20)
(1.01492 0.0291607 -1.46497e-21)
(-0.516002 -0.125997 6.74468e-20)
(1.03925 0.0295767 -4.5093e-21)
(0.792079 0.778844 0)
(0.984363 0.0359586 0)
(0.375095 -0.356698 2.24322e-20)
(1.27513 0.105869 -5.5771e-21)
(1.10652 -0.0543298 0)
(1.28184 0.0968701 1.00828e-19)
(1.0473 0.017989 -2.02391e-22)
(0.995245 0.00642267 0)
(1.01252 0.00183803 3.49201e-21)
(1.02304 0.0466321 1.2906e-21)
(0.905626 0.127573 0)
(1.01574 0.0295101 4.20549e-21)
(1.00351 0.017634 0)
(0.740854 0.363348 -5.9057e-22)
(0.976895 0.0102863 0)
(1.01338 0.0109215 0)
(0.87471 0.821779 0)
(0.999403 -4.81402e-05 5.62738e-21)
(1.00002 0.000370922 1.3789e-20)
(0.999926 0.000656798 0)
(1.27034 0.0890488 0)
(1.01285 0.000352629 -2.48516e-21)
(0.973398 0.218681 1.70514e-21)
(1.10545 0.410449 -9.03874e-21)
(0.96225 0.0088151 0)
(1.23433 -0.0609286 -4.91896e-21)
(0.981968 0.00503999 -1.38109e-20)
(0.999765 0.00433458 6.14988e-21)
(1.13723 0.0664216 2.36701e-20)
(1.00685 0.0118971 4.94178e-21)
(1.03459 0.0599777 -4.51958e-21)
(0.959798 0.0141671 0)
(1.20953 0.336098 5.58333e-20)
(1.05301 -0.0060788 0)
(0.953201 0.0575618 -2.37549e-20)
(1.05643 0.00690882 1.19447e-20)
(1.1427 -0.176974 3.3191e-20)
(1.00124 0.0164629 8.80977e-21)
(1.20026 -0.0319803 5.60597e-20)
(1.03359 0.00351796 2.17253e-23)
(1.02214 0.0125404 -5.9317e-22)
(0.858559 0.366794 -2.12999e-20)
(1.00283 0.00906063 -5.8591e-21)
(1.03354 0.00327722 -2.81629e-22)
(1.02611 0.0140785 -1.32022e-22)
(1.01441 0.0696574 7.81671e-22)
(1.01204 0.0120555 1.08575e-21)
(1.01368 0.000653912 3.23985e-21)
(1.03751 0.0170862 0)
(1.03484 0.00152957 1.63866e-22)
(0.99625 0.00128692 1.12436e-20)
(0.994921 0.0282725 1.07291e-20)
(1.00747 0.0292506 -5.56747e-21)
(1.03155 0.0630628 -4.9614e-21)
(1.0006 0.0152912 -9.45802e-21)
(0.997329 0.00137082 0)
(1.01048 0.000968891 0)
(0.990854 0.042141 -3.7509e-22)
(1.03291 0.00470795 0)
(1.00002 0.000235465 -7.15447e-22)
(1.01249 0.00118513 -5.72651e-21)
(0.999876 0.0211706 0)
(0.99492 0.0625547 -1.0769e-20)
(1.22985 0.346324 3.23609e-21)
(1.16316 -0.0438479 -1.70528e-20)
(-0.475683 -0.129572 7.49671e-20)
(0.921017 0.146988 7.6559e-21)
(0.942745 0.141974 -5.24505e-20)
(0.965955 0.046345 9.59309e-21)
(1.07076 -0.0350896 9.25947e-21)
(0.933714 0.105689 -4.87912e-21)
(1.0364 0.0171439 -5.11854e-21)
(0.994612 0.0070205 1.29319e-20)
(1.01349 0.000671739 -3.54681e-21)
(1.02134 0.0463087 -4.07702e-22)
(1.01179 0.0116075 2.45612e-21)
(1.02498 -0.0711558 0)
(1.03583 0.00763523 -1.80528e-21)
(0.997051 0.0105957 -5.33959e-23)
(0.999956 0.000601853 0)
(0.896078 0.128937 -4.28187e-20)
(1.03333 0.00455712 0)
(1.11643 0.390128 0)
(0.936502 0.146851 3.30076e-20)
(1.20677 0.145027 7.79364e-20)
(1.03994 0.0307581 2.69971e-21)
(1.03452 0.00172113 1.35056e-24)
(1.01104 0.0111929 1.1379e-21)
(1.04248 0.00782143 0)
(1.02858 0.00420619 7.90544e-22)
(1.05883 0.0769394 0)
(0.991436 0.0169509 -4.80857e-21)
(1.05665 0.011743 -1.09471e-20)
(-0.161013 0.0143323 -8.56279e-20)
(1.01299 0.0106459 3.01256e-23)
(1.02344 0.0152729 1.23071e-21)
(0.916147 0.066042 0)
(1.07023 -0.0310564 0)
(1.01476 0.0283102 2.56028e-21)
(0.997739 0.00147899 -7.95092e-21)
(0.995383 0.0599924 1.60541e-20)
(1.05405 0.235028 0)
(1.10988 0.0111823 -1.31812e-20)
(1.2053 0.0772226 3.90009e-20)
(1.00025 0.00023009 6.47549e-21)
(1.01258 0.00158514 -1.10672e-20)
(1.00152 0.0170115 0)
(1.02176 0.013522 1.0289e-21)
(1.12347 -0.178437 7.22961e-21)
(0.994788 0.0136942 -1.6524e-20)
(0.997902 0.00201091 -8.53668e-21)
(1.0029 0.0104448 -6.48215e-21)
(0.981991 0.00400347 0)
(1.04694 -0.00872531 -3.47245e-21)
(0.973262 0.0520488 -9.89271e-21)
(1.11613 0.182198 -3.62472e-20)
(0.901442 0.00490349 1.27213e-19)
(0.968708 0.0319943 -8.10002e-21)
(1.34677 -0.183818 8.5955e-20)
(1.00052 0.0140766 8.91521e-21)
(1.04176 0.00811993 -1.43081e-21)
(0.99891 -0.000332345 -1.36585e-21)
(-0.347985 -0.076079 -1.61343e-19)
(1.17281 0.103241 2.42979e-20)
(1.23669 0.0951861 -1.20336e-19)
(-0.562088 0.359997 -8.79145e-20)
(1.01208 0.00466092 2.60307e-21)
(1.03588 0.00726341 0)
(0.99979 0.0225219 0)
(0.982324 0.057631 -1.1951e-20)
(1.05737 0.00854503 -6.70229e-21)
(1.00002 0.000718132 -7.37543e-21)
(1.05102 0.0893921 -1.08019e-20)
(1.00798 0.00111912 0)
(1.01394 0.000438452 -4.03703e-21)
(0.993493 0.0271097 -5.61956e-21)
(1.12323 0.188482 6.75762e-20)
(0.999991 0.000182798 0)
(1.03751 0.029457 0)
(0.983747 0.0129015 1.43652e-20)
(0.975119 0.0505538 2.35971e-20)
(-0.538294 0.152824 7.8532e-20)
(1.00028 0.0146342 -1.0326e-20)
(0.999553 -1.6315e-05 5.70466e-21)
(1.00161 0.00111656 -1.19532e-20)
(1.02479 0.0130199 0)
(1.07551 0.111538 2.2e-20)
(1.10267 -0.057057 -9.12928e-21)
(0.951368 0.145137 2.25514e-20)
(1.35414 -0.130922 -5.84843e-20)
(1.04874 -0.00831399 -4.49725e-22)
(1.05456 0.0333153 2.24886e-20)
(0.983032 0.0136531 1.52201e-20)
(1.01342 0.000940284 4.8611e-21)
(1.02643 0.0243349 0)
(1.00002 0.0002595 0)
(1.275 -0.131627 4.29982e-20)
(0.991721 0.0175609 5.81643e-21)
(1.01632 0.0335049 0)
(1.03845 -0.0649343 1.08452e-21)
(1.00302 0.017852 8.84195e-21)
(0.986132 0.0636931 0)
(0.975605 0.0397535 1.60846e-20)
(1.04238 -0.0669997 -1.75588e-21)
(1.02742 0.00911394 0)
(0.954428 0.0551363 -7.51325e-22)
(1.05212 0.156135 0)
(1.04698 0.0896343 0)
(1.02484 0.0439233 1.48102e-21)
(0.994556 0.0055842 5.6508e-21)
(1.38745 -0.136302 0)
(1.12547 0.0866239 9.00187e-20)
(1.0315 0.011835 0)
(1.07503 0.105795 -1.10111e-20)
(1.00031 0.00569931 -7.51164e-21)
(1.00283 0.00868641 1.07405e-20)
(1.00047 0.00569893 6.66076e-21)
(0.983625 0.0639128 0)
(1.25537 0.10176 0)
(1.03586 0.00345408 -8.95629e-22)
(1.00003 0.00061164 0)
(0.97058 0.0323156 1.61254e-20)
(1 6.35897e-05 2.85207e-23)
(0.999992 0.000382632 -1.75171e-20)
(0.729097 0.304347 3.66033e-20)
(0.995102 0.00602894 -1.55749e-21)
(1.01777 0.00829966 0)
(-0.244254 -0.036435 2.51559e-19)
(1.0041 0.00617806 -7.83622e-21)
(0.927997 -0.184683 0)
(1.26787 -0.154538 -8.48148e-20)
(0.880102 0.0673478 9.14721e-20)
(1.06269 0.270864 5.34287e-21)
(-0.431545 -0.121182 -1.41112e-19)
(1.00934 0.0851469 -1.72605e-21)
(0.834761 0.365064 2.29931e-20)
(0.99938 -0.000255806 5.55786e-21)
(1.0319 -0.0262694 -6.53189e-22)
(0.999999 0.000104187 7.09105e-21)
(0.980125 0.0257023 2.10373e-21)
(1.09666 -0.0857995 -6.11951e-22)
(0.999987 0.00291694 0)
(0.980413 0.059375 1.33735e-20)
(0.617063 0.994798 2.91023e-20)
(1.01175 0.000459911 0)
(1.00255 0.00433452 0)
(0.798533 0.113971 5.13213e-20)
(0.831318 0.713004 0)
(1.01645 0.0314481 1.37903e-21)
(1.02086 0.0034889 2.55879e-21)
(-0.235803 -0.0254402 3.71025e-19)
(1.17639 0.110364 0)
(1.00316 0.00985728 -2.9991e-21)
(0.751121 0.17853 -1.49874e-20)
(-0.167034 0.0107887 -1.92393e-19)
(1.00722 0.0120693 3.02523e-21)
(1.00001 0.000436928 4.18982e-23)
(1.0149 0.00900836 2.97856e-21)
(0.998342 0.0123176 0)
(1.0139 0.000535494 2.72449e-21)
(1.01299 0.0100998 4.44427e-21)
(1.37631 -0.179895 0)
(1.00057 -0.225066 1.48193e-20)
(0.979595 0.0267979 -1.2435e-20)
(1.04315 0.0329341 -1.0247e-19)
(1.01307 0.00084306 -3.38127e-21)
(0.9949 0.0129393 -4.95711e-21)
(1.26577 0.129238 0)
(1.02874 0.0116951 0)
(0.949818 -0.215395 0)
(1.11422 0.00887387 0)
(0.974044 0.0365557 1.05611e-20)
(1.01869 0.00680279 -2.1625e-21)
(1.02042 0.0035223 2.71832e-21)
(1.10654 0.299164 -2.57281e-20)
(1.0329 0.00528699 3.42792e-22)
(1.00585 0.0869061 1.97473e-21)
(0.995536 0.037703 -6.5263e-21)
(-0.413299 -0.0486197 5.07534e-22)
(0.964157 0.00822901 -1.37821e-20)
(1.24753 0.0931487 4.94132e-20)
(0.968955 0.0432557 0)
(1.00151 0.00506292 -3.91688e-21)
(1.00062 0.0164221 0)
(1.28804 0.261666 7.14686e-20)
(1.0012 0.00472076 -1.1478e-20)
(0.92371 0.0199576 -1.36287e-22)
(0.996973 0.0169902 -9.93859e-22)
(1.02693 0.00914878 0)
(-0.149262 0.000573976 1.19311e-19)
(1.04825 0.0205554 -7.64393e-21)
(0.992518 0.00305389 -7.37348e-23)
(1.00813 0.00068159 -1.16908e-22)
(-0.333863 -0.0111706 -8.2391e-23)
(0.997855 0.0115302 -1.32006e-20)
(1.04961 0.0212572 9.86582e-21)
(1.01818 0.047746 7.66601e-22)
(1.0113 0.0115876 -4.92138e-21)
(1.18664 0.0479438 0)
(1.00745 0.292998 0)
(1.00303 0.00525339 0)
(0.973734 0.0122435 0)
(1.03629 0.00341454 0)
(1.01238 0.00138284 7.9798e-21)
(0.999351 0.00399262 -1.75835e-21)
(0.994467 -0.00118716 0)
(-0.349207 -0.0235239 8.68511e-20)
(0.995627 -0.00133548 -1.03462e-20)
(1.01314 0.000452003 -4.38236e-24)
(0.980181 0.0932748 8.80499e-21)
(0.986324 -0.178858 0)
(1.1281 0.0594187 0)
(1.00002 0.000282251 -1.37192e-20)
(1.05592 0.0709682 0)
(-0.215614 0.0364801 0)
(1.04667 -0.0109677 1.67954e-21)
(0.99169 -0.00016992 0)
(0.994848 0.00510506 7.9488e-22)
(1.16847 -0.0994014 -4.25492e-20)
(1.03083 0.0117314 1.45101e-21)
(1.00149 0.0047545 5.16301e-21)
(0.914505 0.0678647 0)
(1.0225 0.0138201 -5.32369e-22)
(1.01268 0.0098962 -4.76548e-21)
(0.958041 0.0154354 0)
(1.01398 0.00461647 2.9367e-21)
(0.974159 0.150225 0)
(0.99411 0.00772815 8.5101e-21)
(1.00107 0.00471595 9.09043e-21)
(-0.493235 -0.0537247 0)
(1.00643 0.00480707 3.69905e-21)
(1.032 0.00514771 -2.17379e-22)
(1.00012 0.00285633 0)
(0.996367 0.036363 0)
(1.05267 0.084212 9.52536e-21)
(1.00287 0.00507727 0)
(1.02416 0.0130191 5.20983e-23)
(1.2418 0.0942892 8.22737e-20)
(0.998942 0.0407685 -5.39533e-21)
(0.78222 -0.47248 0)
(1.03589 0.0182277 1.50109e-21)
(0.999999 0.000116733 6.68346e-22)
(1 0.000100159 1.30316e-20)
(1.18596 0.133391 0)
(0.990822 0.0138011 7.31245e-21)
(0.992498 0.00272476 7.89623e-21)
(1.00133 0.00128033 -6.13063e-21)
(1.03208 0.0109638 0)
(0.959003 0.0820752 -3.74752e-21)
(0.813307 -0.177567 0)
(0.997461 0.0113617 0)
(0.967143 0.147835 7.29988e-21)
(0.684975 0.79348 0)
(1.04505 -0.0113675 -1.56321e-21)
(1.00002 0.000423589 0)
(0.994099 0.00116045 0)
(1.0293 0.00749705 -4.58695e-23)
(1.00006 0.000979107 -9.03762e-21)
(0.999623 0.0127596 0)
(-0.359611 0.139461 9.09468e-20)
(-0.335365 -0.0389578 -2.06108e-20)
(0.99998 0.00267613 9.06621e-21)
(1.0578 0.0301303 0)
(1.04245 -0.000939334 -4.54921e-21)
(1.04203 -0.000464345 -2.65242e-22)
(0.978122 0.00564377 0)
(1.00941 0.0010827 -1.07606e-21)
(1.02391 -0.152585 -1.22789e-22)
(1.11356 0.287159 0)
(0.726085 0.772792 0)
(1.01819 0.00675537 1.76594e-21)
(1.02978 0.00785653 7.76161e-23)
(1.02811 0.0118624 1.35434e-22)
(1.00397 0.00634684 5.34062e-21)
(-0.00190492 -0.0220741 -1.03861e-19)
(1.0663 0.0760725 -1.46178e-20)
(1.03201 0.0115596 0)
(1.01514 0.0210658 2.33645e-21)
(1.00652 0.000502268 6.95426e-21)
(0.980034 0.00398409 -2.00997e-20)
(1.01733 -0.173907 0)
(1.04849 0.0189093 0)
(0.999119 -0.000614999 1.15904e-20)
(-0.369653 -0.0350465 -9.378e-20)
(0.814618 0.665161 0)
(1.07734 0.458525 -4.7733e-20)
(1.06979 0.161932 -1.45783e-20)
(0.999389 0.0038056 8.70841e-21)
(1.01819 0.0179544 0)
(1.01821 -0.0277345 0)
(1.11362 0.0809916 -3.50812e-20)
(-0.0514449 0.0675505 -1.86041e-19)
(0.319094 0.149586 0)
(0.953301 0.048939 2.40851e-20)
(0.920029 0.0181446 -3.20037e-22)
(1.00009 0.000905729 -7.9531e-21)
(1.037 0.0280359 0)
(0.974639 0.0127388 0)
(1.00009 0.000945498 6.13705e-21)
(-0.492553 -0.084417 6.02762e-20)
(1.01076 0.0010534 -2.41071e-21)
(1.00027 0.0134682 -4.05537e-21)
(1.05912 -0.0292383 0)
(1.00005 0.000968438 4.07044e-21)
(1.03847 -0.0339906 1.40939e-21)
(1.03483 0.018071 5.50016e-21)
(1.07584 -0.0784251 -1.41913e-21)
(1.02139 0.0892652 -1.43864e-21)
(0.999956 0.000603615 1.0111e-20)
(1.03622 0.00974246 9.46464e-22)
(1.05085 0.0353449 -1.08052e-20)
(1.02462 -0.00814197 -3.98462e-21)
(1.07186 0.156477 -8.14065e-21)
(0.985694 0.279725 0)
(0.999984 0.000187889 3.20396e-23)
(1.02689 -0.0232795 -1.88869e-23)
(1.02329 0.039711 1.29309e-23)
(1.00997 0.0228872 -3.78389e-21)
(1.00034 0.00139255 9.50724e-22)
(1.02655 0.0252397 1.34655e-22)
(0.997002 -0.000744741 0)
(0.952065 0.0517795 1.23986e-20)
(1.12695 0.0555879 -1.18386e-20)
(0.861535 0.122312 0)
(0.999114 -0.000885548 1.21985e-20)
(0.998151 0.0421361 3.23007e-21)
(1.00138 0.00118697 -3.27259e-21)
(0.992062 0.00572241 7.99837e-23)
(0.818834 0.345918 2.94226e-20)
(1.00223 0.0033941 -2.37588e-22)
(1.01499 0.0487771 0)
(1.04082 -0.0718826 0)
(1.01369 0.00447234 -6.12555e-21)
(1.11484 0.0866979 4.43745e-20)
(1.00992 -0.04698 5.28329e-21)
(0.997566 0.0013304 0)
(-0.054994 0.00432608 -1.37106e-19)
(1.07235 -0.00382499 0)
(0.999994 0.000961746 0)
(1.24667 -0.0282743 -1.16348e-20)
(1.02732 0.0137136 -2.18875e-23)
(1.00001 0.000302022 -1.8661e-22)
(0.983026 0.00867997 0)
(0.995228 0.000491574 -1.55207e-21)
(0.999996 9.37616e-05 0)
(1.03876 0.0344454 0)
(0.979121 0.00377302 1.85204e-20)
(0.866222 0.613914 0)
(0.987137 0.0416304 2.18472e-21)
(0.994428 0.00134133 0)
(1.01847 0.03044 0)
(1.05642 0.0839412 -6.03754e-21)
(1.06662 0.0123504 0)
(0.99494 -0.000667829 1.51999e-21)
(1.03923 0.00747853 -2.79369e-21)
(1.01765 0.0180351 0)
(1.05066 -0.00371132 9.02679e-21)
(0.984594 0.00355248 -8.83458e-21)
(1.01867 0.0924973 1.43579e-21)
(1.01824 0.00850165 2.00919e-21)
(0.953896 0.00862189 0)
(1.01978 0.0039522 1.78005e-21)
(1.00074 0.00617638 6.43334e-21)
(0.999892 -0.0501349 1.51732e-19)
(1.01452 0.00917393 -3.32443e-21)
(0.82129 0.326209 -5.20477e-20)
(0.994294 -0.000788113 0)
(1.03412 0.0100815 1.35238e-22)
(1.00691 0.00461093 -3.28391e-21)
(1.06084 0.00367356 -7.16866e-21)
(1.00009 0.00264077 4.91951e-21)
(1.07518 -0.00430796 -2.02246e-20)
(1.01555 0.0276103 -2.55348e-21)
(1.23632 -0.0235275 0)
(0.99999 0.000494898 1.25239e-20)
(0.854657 0.00885879 0)
(1.02153 0.00269542 -1.27786e-23)
(0.974324 0.0481096 1.5864e-20)
(0.999975 0.000251186 -2.06106e-21)
(0.981054 0.00574712 0)
(1.00021 0.00526736 -8.35263e-24)
(1.03783 0.0351436 0)
(0.997029 -0.000307111 -9.38006e-21)
(0.672567 0.244011 -6.92411e-20)
(0.626036 0.426106 0)
(1.04918 -0.0324886 -1.17743e-21)
(1.04087 0.0152967 3.78438e-21)
(0.955915 0.139287 -2.2289e-20)
(1.00458 0.0178505 0)
(0.992608 0.149078 5.12266e-21)
(1.06444 -0.0308379 -5.24334e-22)
(1.00099 0.00297531 4.53371e-21)
(0.920537 0.0682713 -2.38366e-20)
(0.981798 0.295494 0)
(0.0426459 0.0258406 1.72716e-19)
(1.00549 -0.0447147 -4.98782e-21)
(1.35313 0.0985167 5.49332e-20)
(1.05323 0.0355722 1.07172e-20)
(0.997619 0.0314423 -5.26829e-21)
(1.00004 0.000838987 8.08694e-21)
(1.04087 0.00779435 -1.67938e-21)
(1.03947 0.032104 -4.61216e-21)
(1.02754 -0.00639825 -9.40665e-23)
(1.01183 0.00440009 -4.70597e-21)
(1.02732 0.0417669 -1.59264e-21)
(1.16165 -0.0339743 0)
(1.00002 0.00010971 6.61209e-21)
(0.991999 0.00522653 -4.93363e-21)
(1.03972 0.00680579 -3.13169e-21)
(0.515892 -0.0660517 0)
(0.976212 0.046739 -1.44758e-20)
(1.05295 0.0688289 0)
(1.01401 -0.0259845 3.58577e-21)
(0.999967 0.000524174 -1.0859e-20)
(0.748447 -0.101299 -9.24491e-23)
(1.01163 0.00508316 -2.64674e-21)
(1.00356 0.0107282 7.70957e-22)
(1.00269 0.0384814 1.2688e-21)
(1.02256 0.0143651 1.20212e-21)
(-0.365862 -0.0808738 2.61289e-19)
(1.0596 -0.0379429 0)
(0.384362 -0.0398567 0)
(1.00096 0.000450027 -7.67961e-21)
(1.40457 0.232424 2.13087e-19)
(0.0181363 0.0586286 1.33962e-19)
(1.24461 -0.156382 7.69619e-20)
(1.02912 -0.00667664 0)
(1.06832 -0.0367352 -1.51676e-20)
(1.19131 -0.0370963 0)
(1.02012 0.148732 2.48501e-21)
(0.983475 0.011842 -2.94853e-20)
(0.996594 0.0175332 0)
(0.91188 0.0731654 -2.99315e-20)
(-0.348288 -0.0100217 7.32676e-20)
(1.00569 0.0178991 0)
(0.978505 0.0974121 5.91937e-22)
(0.762168 -0.372 0)
(0.99389 0.00865526 -4.72401e-21)
(1.00124 0.00705563 4.98666e-21)
(1.00958 0.0234482 -2.11821e-22)
(0.990312 0.0456818 0)
(1.00007 0.00531513 7.89801e-21)
(1.02823 0.00852804 9.49477e-23)
(1.18084 0.140422 0)
(1.31487 0.113826 0)
(1.02769 0.0085276 -1.73879e-22)
(0.999873 0.00417101 6.67382e-22)
(-0.285649 0.0137111 0)
(0.252157 -0.218608 3.01324e-20)
(1.0041 0.0181138 0)
(0.992219 -0.00034731 0)
(1.0003 0.00031609 1.03016e-20)
(0.997931 0.0121541 8.75675e-21)
(1.27622 0.132606 9.44225e-22)
(1.05668 -0.0385272 -1.27876e-20)
(1.0799 0.40963 1.11106e-20)
(0.988465 0.0401497 -1.07518e-21)
(1.00121 0.00740081 -6.85075e-21)
(1.02326 0.0111574 -7.31279e-22)
(0.956974 0.00568458 -2.22819e-21)
(0.998099 0.00170583 0)
(1.05645 0.000338176 -1.08843e-20)
(0.972103 0.0301722 3.50178e-21)
(0.790459 0.00835695 8.05278e-20)
(0.999076 0.00390865 0)
(1.00057 0.00208812 -3.24309e-21)
(1.0542 0.129453 1.66245e-20)
(1.00556 0.0172278 -4.10767e-21)
(1.03676 -0.00797688 1.9558e-21)
(0.909004 0.250383 0)
(1.03549 0.0100436 -2.87305e-21)
(0.758784 0.57907 5.16044e-20)
(0.281611 -0.0320434 0)
(0.99641 0.0315067 -5.57861e-21)
(0.999802 0.013383 -5.18547e-21)
(1.25884 -0.240101 8.65319e-20)
(-0.457387 -0.0198271 2.80152e-20)
(0.999826 0.131908 2.56139e-21)
(1.02674 0.0135583 2.57377e-22)
(1.09162 -0.255661 0)
(0.788611 0.396103 4.56047e-20)
(0.927417 0.0263499 -2.05455e-20)
(0.984216 0.0110554 -2.72587e-20)
(1.00152 0.000967873 5.51733e-21)
(1.00231 0.00370842 0)
(1.14122 0.389682 1.46971e-19)
(1.04034 0.0157802 0)
(0.806117 0.28551 2.62712e-20)
(1.00001 0.000326238 0)
(-0.505784 0.118042 4.3819e-20)
(1.25406 0.101167 0)
(0.994193 0.000735126 1.3318e-20)
(0.997585 0.00358118 -7.00781e-21)
(0.685294 0.230608 1.12735e-22)
(0.999361 -9.15432e-06 -9.83996e-21)
(1.00719 0.00464943 8.47099e-21)
(1.00161 0.0683813 0)
(0.0218732 0.0062489 1.9045e-19)
(0.108554 -0.0727257 -2.48814e-19)
(1.09869 -0.045402 6.21062e-20)
(1.03156 0.00548082 2.1837e-22)
(1.08066 -0.0247115 3.39917e-20)
(1.019 0.141287 0)
(1.01024 0.00400049 0)
(1.00603 0.000296492 -6.22116e-21)
(0.99967 0.000118793 0)
(1.15058 0.369737 -1.10532e-19)
(1.00011 0.000827622 3.59765e-21)
(0.994376 0.00178298 0)
(1.07748 -0.0256969 -3.85072e-20)
(0.979101 0.00723213 0)
(1.13337 0.0712767 -7.73106e-20)
(1.0005 0.000462396 0)
(0.998737 0.000130046 8.09659e-21)
(1.00823 0.00092689 5.27075e-21)
(0.999242 -0.000846046 0)
(1.14774 -0.0982921 -2.9095e-20)
(1.00011 0.000870652 0)
(0.99947 0.0203499 0)
(1.07983 0.00574221 0)
(0.959467 0.219338 0)
(0.861583 0.517204 4.54784e-21)
(1.00002 0.000969547 0)
(1.16109 0.0316831 0)
(0.167405 -0.146435 0)
(0.781337 -0.454668 1.1998e-20)
(0.972 0.0372602 5.14056e-22)
(-0.382076 -0.0644613 2.07745e-20)
(-0.145076 -0.0101522 0)
(0.994154 0.00838265 -8.48972e-21)
(1.01256 0.00234635 2.23643e-21)
(0.984895 0.0393477 1.44096e-20)
(0.955383 0.0257886 5.152e-22)
(-0.0833953 -0.28316 -2.76457e-19)
(1.01993 0.0481837 0)
(1.00034 0.00127532 -4.9881e-23)
(1.0001 0.000873217 0)
(0.247964 -0.30599 -8.05029e-20)
(0.992996 0.141683 -8.29482e-21)
(1.03112 0.00515794 4.41021e-24)
(1.00029 0.00102238 -1.51004e-20)
(0.991831 0.0006825 1.09944e-22)
(1.08087 0.102617 -1.36086e-20)
(1.00674 0.0048954 3.8639e-21)
(1.00474 0.000434331 5.2342e-21)
(1.0502 -0.00212036 2.14097e-21)
(0.98956 0.0438442 8.10252e-21)
(0.999746 0.000269093 1.02241e-20)
(1.01951 0.0151409 -1.2511e-21)
(0.754347 0.649457 0)
(1.02292 0.0156856 -6.17697e-22)
(0.993494 0.0438708 -7.36843e-21)
(0.996854 -0.00100021 -4.73395e-21)
(0.998747 0.037571 9.36302e-21)
(1.19854 0.0934607 7.33645e-20)
(1.00004 0.000984729 4.39869e-21)
(0.98001 0.043754 -1.5003e-20)
(0.998011 7.39413e-05 1.47988e-20)
(1.04596 0.0185769 1.64543e-21)
(0.671103 0.568128 4.03698e-21)
(0.999999 7.69231e-05 0)
(0.87426 0.493409 0)
(1.03537 0.0576993 -2.8393e-21)
(0.0258424 -0.19593 -1.68019e-20)
(1.01184 0.00051202 -2.09664e-21)
(1.02452 0.0454689 -8.70651e-22)
(1.04858 -0.00180265 0)
(1.16203 0.0358392 -4.56875e-20)
(0.800737 0.127028 -7.98126e-20)
(0.971872 0.0289844 -7.50334e-21)
(1.35382 0.0887572 -1.31786e-19)
(0.908502 -0.00977652 0)
(0.96728 0.0182707 0)
(1.00805 0.00051385 0)
(1.23023 -0.175603 3.39461e-20)
(0.998091 -0.000525426 7.63688e-21)
(1.00002 0.000626081 -7.48826e-21)
(1.00961 0.0111537 0)
(1.00003 0.000704981 7.45408e-21)
(1.10575 0.0195723 0)
(1 1.15569e-05 0)
(0.999994 8.8999e-05 0)
(0.895947 0.246509 0)
(1.02008 0.0851808 0)
(1.0102 0.000111165 -1.73182e-21)
(0.936366 0.101612 -2.39175e-20)
(0.959856 0.0120086 -4.26124e-22)
(1.01362 0.0183438 -1.16266e-19)
(1.03702 0.0149947 0)
(0.851296 0.583981 5.58494e-22)
(0.998457 0.0129631 5.82525e-21)
(1.06205 -0.0283973 7.83367e-21)
(0.999484 0.139079 9.01367e-22)
(0.573136 -0.404228 7.84841e-20)
(1.04235 0.0219624 -4.7823e-21)
(-0.0972452 -0.0301499 5.29616e-20)
(1.00001 0.000336425 2.19312e-22)
(1.03606 0.00223222 6.03163e-22)
(1.00098 0.00169135 0)
(0.998179 0.0303172 4.90038e-21)
(0.990105 0.0138647 0)
(1.07352 -0.0739719 -2.45868e-21)
(0.878213 0.130254 -1.35145e-20)
(1.0233 -0.0186864 -1.76908e-21)
(-0.463605 -0.0932766 -2.28797e-19)
(1.00028 0.00142574 1.92623e-21)
(0.983529 0.95569 -1.05945e-19)
(1.03515 0.00188558 0)
(1.01558 0.0169773 -1.85435e-21)
(0.885642 0.0564696 -8.98585e-21)
(1.06315 0.0246291 4.88536e-21)
(0.268168 -0.0538037 -7.61771e-20)
(0.997349 0.00360257 0)
(0.955048 0.0817862 -3.14552e-20)
(0.954748 0.207102 8.8211e-21)
(1.01682 0.0493118 0)
(0.852095 0.124795 0)
(1 0.000135183 -6.49968e-21)
(1.0117 0.00259777 -5.48567e-23)
(1.00001 0.000123411 6.54097e-21)
(1.02702 0.454545 3.02164e-20)
(0.999256 0.000380062 -3.38695e-21)
(1.00086 0.00326031 0)
(1.00889 0.010726 -4.65404e-21)
(1.00747 0.000867477 3.01679e-21)
(1.00058 0.00612747 -7.21673e-21)
(0.99964 0.00428332 -1.62137e-20)
(1.01906 0.0316411 0)
(1.00152 0.011252 -1.1696e-21)
(0.999342 -0.00018299 6.29635e-21)
(0.964583 0.00630201 -1.44358e-20)
(1.00398 0.0702562 0)
(0.941752 0.099417 -2.46009e-21)
(0.995458 -0.00106952 -1.32772e-21)
(0.104416 -0.236547 -1.11752e-19)
(1.00082 0.027228 1.77097e-21)
(1.369 0.225404 5.85338e-20)
(0.912854 0.132789 0)
(-0.247448 0.140522 -1.18078e-19)
(1.07913 0.0514313 -2.7659e-20)
(1.03599 0.00248943 1.35694e-21)
(-0.277611 -0.0159419 0)
(1.06886 0.0129073 0)
(1.06545 0.435948 5.28029e-20)
(0.987813 -0.450761 -2.15626e-20)
(1.08038 0.0973473 0)
(1.0001 0.000900963 2.51661e-22)
(1.00286 0.00996509 8.87531e-21)
(1.00322 0.0465577 1.85683e-22)
(1.2029 0.0894276 0)
(1.00882 0.0234968 2.33529e-21)
(0.073128 -0.0133221 3.77881e-19)
(1.00225 0.0222437 7.27932e-21)
(1.0032 0.69693 -3.56787e-20)
(0.867555 0.0587936 0)
(1.01368 -0.0216427 -2.93931e-21)
(1.0343 0.0190098 -3.04344e-21)
(-0.121491 -0.0193123 1.36903e-19)
(-0.484611 0.219345 -1.5847e-19)
(0.951427 0.00902526 0)
(0.995057 -7.14525e-05 -2.49296e-20)
(0.999976 0.000356348 0)
(1.03945 0.00828721 0)
(1.01189 0.00248741 -2.61721e-21)
(1.00919 0.000866182 -5.28113e-21)
(1.10403 0.136023 0)
(1.09692 -0.104151 0)
(0.998104 -0.000155101 -2.07232e-20)
(1.00814 0.0231311 4.19508e-21)
(0.96641 0.00590015 -1.34982e-20)
(1.28897 0.248694 -2.55225e-21)
(1.01911 -0.0320695 0)
(0.999581 0.000504119 0)
(1.03364 0.0551908 -1.79592e-21)
(1.14698 -0.00646282 0)
(0.996344 0.039131 0)
(0.999754 0.00365073 6.20996e-21)
(-0.0403932 -0.0137632 -9.54512e-20)
(0.987828 0.0326162 0)
(0.995122 0.0141514 1.99133e-20)
(0.878822 0.994159 0)
(0.997847 0.0590697 -7.56195e-21)
(0.982949 0.0033901 1.28249e-20)
(-0.18346 -0.011289 -1.62486e-19)
(0.868229 0.337823 -4.15744e-21)
(0.133415 0.0349479 0)
(0.992229 0.00681617 0)
(0.980418 0.0460649 -2.04153e-20)
(1.26462 -0.0966033 -4.14004e-20)
(1.00915 0.0111346 1.00693e-20)
(1.01486 0.0218346 -2.7657e-21)
(0.999994 0.000190752 0)
(1.03509 -0.00171299 0)
(0.998077 0.0021444 -1.90946e-21)
(1.00053 0.00044966 5.55624e-22)
(1.03384 0.00307274 0)
(0.809969 0.10519 0)
(0.939889 0.413525 5.1323e-22)
(1.00609 0.0120023 -5.52622e-21)
(0.985289 0.00770433 -1.30884e-20)
(0.998083 -0.000894263 3.81579e-24)
(1.01449 0.020419 1.43536e-21)
(0.986252 0.0380266 0)
(1.01098 0.00281475 2.62013e-21)
(1.18213 -0.031649 2.36063e-20)
(1.00559 0.091366 2.04759e-21)
(0.993142 0.0235623 0)
(0.996318 0.00254882 5.36494e-23)
(1.00707 0.0112388 1.04713e-20)
(1.00145 0.00320212 1.12707e-21)