/*--------------------------------*- C++ -*----------------------------------*\
| =========                 |                                                 |
| \\      /  F ield         | OpenFOAM: The Open Source CFD Toolbox           |
|  \\    /   O peration     | Version:  v2012                                 |
|   \\  /    A nd           | Website:  www.openfoam.com                      |
|    \\/     M anipulation  |                                                 |
\*---------------------------------------------------------------------------*/
FoamFile
{
    version     2.0;
    format      ascii;
    class       surfaceVectorField;
    location    "550";
    object      Uf;
}
// * * * * * * * * * * * * * * * * * * * * * * * * * * * * * * * * * * * * * //

dimensions      [0 1 -1 0 0 0 0];


internalField   nonuniform List<vector> 
14907
(
(0.996388 0.00807423 -4.58792e-21)
(0.99645 0.00847508 -2.45017e-21)
(0.996138 0.00829527 -1.15789e-21)
(0.998614 0.00255915 -3.69989e-21)
(0.998473 0.00265118 -2.18627e-21)
(0.998615 0.00276105 -9.84557e-22)
(1.02542 0.0136657 -1.64577e-22)
(1.02593 0.0139188 -1.09019e-22)
(1.02585 0.0132264 -1.20786e-24)
(1.00898 9.90484e-05 1.43905e-21)
(1.00886 0.000125898 -1.84537e-21)
(1.10016 0.0746345 -2.06336e-21)
(1.03251 0.0711643 5.17378e-20)
(1.16031 0.0989635 -4.62702e-20)
(0.999107 0.00263483 6.8155e-22)
(0.999151 0.00239033 3.11523e-21)
(0.999017 0.0025306 0)
(0.800064 -0.0401187 3.3487e-21)
(0.774703 -0.0860847 3.01758e-20)
(0.821276 -0.0808496 1.37941e-20)
(1.03978 -0.221935 -1.18608e-20)
(1.06247 -0.231234 4.9007e-22)
(1.04092 -0.255286 -8.87659e-21)
(1.02189 0.0127445 -2.65093e-22)
(1.0217 0.0132777 3.07686e-22)
(1.02126 0.0128149 4.17434e-22)
(1.00092 0.00311414 -6.19703e-22)
(1.00088 0.00321805 -2.35523e-22)
(1.00099 0.00327871 1.59356e-21)
(-0.427321 -0.0490991 3.1489e-20)
(-0.467381 -0.0510485 -3.10344e-20)
(-0.428304 -0.0415545 -6.25621e-20)
(1.01186 0.000244027 0)
(1.00882 6.48546e-05 0)
(1.01279 0.00211689 1.55587e-21)
(1.01264 0.00230374 -2.72796e-22)
(1.01295 0.00236932 -1.41145e-21)
(1.01332 0.000961791 1.64456e-21)
(1.01314 0.000908787 0)
(1.01318 0.00112238 0)
(0.966171 0.0451937 9.52746e-21)
(0.967645 0.0435161 -7.01778e-21)
(0.965186 0.0427551 9.43381e-21)
(0.999318 0.00360419 0)
(0.99931 0.00344006 -3.42582e-22)
(0.999421 0.00351713 3.06944e-21)
(0.999349 0.00375893 -9.33208e-22)
(0.999221 0.00369468 2.95529e-21)
(1.00002 0.000280073 3.10723e-21)
(1.00003 0.000289719 3.17984e-21)
(1.00004 0.000377523 2.99608e-21)
(0.996346 0.00761373 6.39476e-21)
(0.996658 0.00784512 -9.70713e-21)
(0.692181 0.281029 0)
(0.717649 0.293427 1.79073e-20)
(0.718854 0.270929 2.16508e-20)
(1.0026 0.00405751 -4.78594e-23)
(1.00259 0.00424159 -2.19407e-21)
(1.00278 0.00428081 -2.34649e-21)
(1.02927 -0.0743172 2.82768e-21)
(1.03718 -0.073087 -1.09138e-21)
(1.03357 -0.0808651 -1.69643e-21)
(1.01198 0.000495979 -1.78331e-22)
(1.01196 0.00051079 1.82391e-21)
(1.01233 0.00066349 -2.82544e-22)
(1.01101 0.00424604 -1.10767e-21)
(1.01131 0.00435121 0)
(1.01124 0.00405204 0)
(0.998735 0.00246917 -4.80763e-22)
(0.998613 0.00237524 -3.25641e-21)
(1.0563 0.0109324 -3.15268e-21)
(1.0567 0.00924961 4.29094e-21)
(1.05494 0.00993276 6.81556e-22)
(0.998982 -0.000405855 0)
(0.999085 -0.000558581 0)
(0.999111 -0.000406544 -3.35845e-21)
(0.996007 0.0444857 -2.92492e-21)
(0.994497 0.0437887 -3.01585e-21)
(0.996007 0.0427714 5.73875e-22)
(1.01538 0.018298 -4.92583e-22)
(1.01491 0.0186381 -3.01692e-22)
(1.01487 0.0179277 -1.67846e-21)
(1.00083 0.0378574 0)
(1.00207 0.0383967 -9.02223e-22)
(1.00104 0.0395008 0)
(0.997247 0.00127428 -8.75679e-21)
(0.997017 0.00117489 -1.67368e-21)
(0.997213 0.00106174 -4.44239e-22)
(-0.200177 -0.0189993 7.49717e-20)
(-0.21182 -0.0264872 -4.34866e-20)
(-0.224356 -0.0298791 -4.4426e-20)
(1.00095 0.00299868 4.19718e-21)
(1.00085 0.00295783 2.03677e-21)
(1.01464 0.0337558 -8.7719e-22)
(1.01487 0.034991 -7.27298e-22)
(1.01351 0.0341051 6.80508e-22)
(1.05026 0.0383807 4.12177e-21)
(1.05027 0.036235 1.16342e-21)
(1.04844 0.0372355 -9.34032e-21)
(1.01071 0.00415279 -1.14531e-21)
(1.01077 0.00445039 6.69444e-22)
(1.05514 0.0140961 -5.32813e-21)
(1.05584 0.0123773 -4.01684e-21)
(1.05382 0.0130365 4.79537e-21)
(1.05273 -0.00518043 -1.69173e-21)
(1.05157 -0.00401498 -1.00021e-21)
(1.0532 -0.00356245 5.35069e-21)
(1.01038 0.00399852 -1.38807e-21)
(1.01066 0.00381388 0)
(1.0101 0.0958512 1.18483e-22)
(1.01274 0.0979255 4.08486e-23)
(1.00823 0.0982312 0)
(0.671454 0.284584 -3.54414e-20)
(0.677103 0.26262 -3.18764e-20)
(0.973531 0.0420364 6.83296e-21)
(0.972545 0.0438647 0)
(0.974746 0.0438071 0)
(0.829709 -0.00320239 -3.83383e-20)
(0.775368 0.00380167 -1.41752e-20)
(0.992732 0.0257658 -2.56379e-21)
(0.993386 0.026576 -3.07942e-21)
(0.993676 0.0253767 5.84681e-22)
(1.18537 0.0781437 1.15836e-20)
(1.01044 0.0577138 4.76458e-20)
(1.06868 -0.0303245 -2.59203e-21)
(1.06587 -0.030188 4.50105e-21)
(1.06711 -0.0272132 8.02588e-21)
(0.980364 0.0288396 1.27536e-21)
(0.980611 0.0299116 -6.39013e-22)
(0.979377 0.0293784 -7.29963e-21)
(1.05054 -0.0523449 1.1907e-21)
(1.04987 -0.0506169 -2.74772e-22)
(1.04857 -0.0525566 -1.3556e-22)
(1.0531 0.0217948 1.05965e-20)
(1.05481 0.0227155 -2.91614e-21)
(1.05452 0.020796 8.48921e-21)
(1.03113 -0.0252526 -2.37732e-22)
(1.0287 -0.0235754 -3.08396e-22)
(1.0313 -0.0218614 -2.80684e-22)
(1.00027 0.000252025 -1.5311e-21)
(1.00029 0.000291549 2.83934e-22)
(1.00031 0.000256459 -1.41055e-21)
(1.03084 0.00299438 2.59302e-24)
(1.0312 0.00311074 -1.51838e-22)
(0.966361 0.0339669 0)
(0.96442 0.034426 -5.84754e-21)
(0.965073 0.032368 -4.03033e-22)
(1.0333 0.00401981 -1.01362e-22)
(1.0333 0.00438544 -3.98606e-22)
(1.03364 0.00410963 -9.97193e-23)
(1.05652 0.014951 -4.37631e-21)
(1.05458 0.0155235 3.88202e-21)
(0.999039 0.00284037 -3.85379e-22)
(0.999151 0.00272656 8.28554e-22)
(1.0158 0.018115 8.22841e-22)
(1.01592 0.0188002 3.23233e-22)
(0.980116 0.0275249 3.30284e-21)
(0.981477 0.0282567 5.69245e-21)
(1.01567 0.0333789 0)
(1.01442 0.0326005 -2.31757e-22)
(0.968104 0.0330994 0)
(0.967792 0.034982 7.62311e-21)
(0.997909 0.00192519 9.87352e-22)
(0.998014 0.00175923 3.57866e-21)
(0.997801 0.00174958 -2.22322e-22)
(0.997239 0.00279565 2.12731e-21)
(0.9974 0.00294816 -6.0465e-21)
(0.997447 0.00271714 -3.37326e-22)
(1.05014 0.040254 5.37741e-21)
(1.05208 0.039347 7.96622e-21)
(1.02493 0.0133355 -3.69298e-23)
(1.02488 0.0140193 -1.35631e-22)
(0.971708 0.0124064 -9.87483e-21)
(0.970584 0.0129238 5.89415e-21)
(0.971596 0.0137664 5.65875e-21)
(1.01658 0.0329814 1.22628e-23)
(1.01667 0.0319989 -6.99777e-22)
(1.01781 0.0326279 -1.17265e-23)
(0.978089 0.00875154 3.64861e-21)
(0.977571 0.00968947 -3.98698e-21)
(0.978706 0.00933057 4.85241e-21)
(0.749982 0.204536 3.97765e-21)
(0.75309 0.184668 -3.68187e-21)
(0.768893 0.196125 4.34249e-21)
(-0.257182 0.0317833 -3.18977e-20)
(-0.12162 0.0246101 -6.74327e-20)
(-0.151009 0.0127597 -1.01883e-20)
(0.999656 0.0214995 -1.09777e-21)
(0.999624 0.022201 7.33057e-21)
(0.999002 0.021783 -1.95901e-21)
(1.03341 0.00363799 -6.93142e-24)
(1.03301 0.00384619 0)
(0.663325 0.303035 7.31611e-20)
(0.991794 0.0262859 -2.23286e-21)
(0.992052 0.0250522 1.98382e-21)
(0.880067 0.0642945 -1.13681e-20)
(0.883106 0.0582739 -8.94273e-21)
(0.874942 0.0580198 3.26225e-20)
(0.978589 0.00588258 0)
(0.979099 0.00665995 0)
(0.97958 0.00573993 0)
(1.01164 0.00443142 -2.34005e-21)
(1.01137 0.00466017 0)
(0.880713 0.0410291 1.10632e-19)
(0.983475 0.0610565 1.18633e-19)
(0.996329 0.00722884 5.05975e-22)
(0.99631 0.00680029 -9.47506e-22)
(0.996583 0.00695272 -6.07758e-21)
(0.915458 0.0815677 1.43716e-20)
(0.914098 0.0758587 1.55219e-20)
(0.919589 0.078695 0)
(0.783457 -0.180223 -9.9436e-21)
(0.745026 -0.139959 -7.12874e-21)
(0.722959 -0.197235 4.88327e-22)
(1.05164 0.0227145 2.44769e-22)
(1.05156 0.0207894 1.14646e-21)
(1.26634 0.0964584 7.41339e-20)
(1.29888 0.11831 -1.09293e-19)
(1.00429 0.0284781 -2.77422e-21)
(1.00469 0.0278262 -1.69081e-22)
(1.00513 0.0287055 -6.11621e-21)
(0.975652 0.0386831 -5.88189e-22)
(0.974873 0.0370524 -6.72779e-21)
(0.976798 0.0371117 6.60857e-21)
(0.978579 0.00768727 3.78749e-21)
(0.977427 0.00802017 3.88085e-21)
(1.00006 0.000958223 -8.21584e-22)
(1.00006 0.000982718 3.04988e-22)
(1.00003 0.000932247 -8.63088e-22)
(0.996831 0.00983559 2.35639e-21)
(0.996651 0.00954451 -2.97877e-21)
(0.9965 0.0100403 -3.08496e-21)
(1.19563 0.186651 4.31845e-20)
(1.18413 0.188183 -3.86246e-20)
(1.18932 0.178031 0)
(0.988062 0.0160797 7.2636e-21)
(0.988333 0.0168064 6.59858e-21)
(0.987573 0.016675 -5.35632e-21)
(0.997048 0.0102996 7.04429e-21)
(0.997212 0.00976164 2.20332e-21)
(1.02354 0.0261366 -5.71304e-23)
(1.02409 0.0253836 -5.74888e-23)
(1.02296 0.025396 4.10539e-22)
(1.30672 0.0946248 -1.61209e-20)
(1.22569 0.0870256 -1.46006e-20)
(0.997271 0.0452921 3.35252e-22)
(0.995801 0.0463996 -5.04401e-21)
(1.03051 0.00328688 3.16131e-22)
(0.999549 0.0374476 -2.19112e-21)
(1.00065 0.0364887 2.52241e-21)
(1.01109 0.0228243 -1.55135e-21)
(1.01048 0.023013 8.7363e-22)
(1.01115 0.0234755 -2.09103e-21)
(0.998849 0.00690431 3.73807e-21)
(0.998719 0.00662431 3.26691e-21)
(0.998958 0.00650976 3.62744e-21)
(1.0066 0.0228139 -6.57161e-22)
(1.00697 0.022243 2.1316e-21)
(1.00627 0.022239 2.60112e-21)
(1.00742 0.0924145 6.58634e-22)
(1.01226 0.0924298 1.62481e-23)
(1.01859 0.0171112 0)
(1.01914 0.0174198 0)
(1.0189 0.0167492 0)
(1 8.19128e-05 3.12477e-22)
(1 8.20599e-05 -1.68728e-21)
(1.17299 0.121058 4.78921e-21)
(1.17142 0.127618 3.83007e-20)
(1.17886 0.123937 -3.36336e-20)
(0.992729 -0.218881 3.75526e-21)
(0.964138 -0.213242 1.31114e-21)
(0.98255 -0.193446 -2.28446e-21)
(1.00006 0.000993151 -5.16623e-21)
(1.00006 0.000953776 0)
(0.990534 0.0412727 2.82683e-23)
(0.989348 0.0402682 -4.88219e-21)
(0.990866 0.0396112 -4.31819e-21)
(1.05844 0.165 -1.28168e-20)
(1.06552 0.1638 -1.54055e-20)
(1.06231 0.172389 -6.5688e-21)
(0.994531 0.00723862 1.29384e-21)
(0.9943 0.00757277 1.45328e-21)
(0.994625 0.00769072 3.83143e-21)
(0.999007 0.00719117 1.17581e-21)
(0.998757 0.00732012 0)
(1.00242 0.00380229 7.12654e-24)
(1.00263 0.00384649 -1.19375e-21)
(1.01847 0.00173347 8.83607e-22)
(1.01811 0.00168358 -1.33409e-21)
(1.00782 0.00110174 -3.72351e-21)
(1.00757 0.000958497 -1.04075e-21)
(1.00756 0.00126687 -1.98421e-21)
(1.00226 0.0172351 -2.78298e-22)
(1.00272 0.0176576 -1.63023e-23)
(1.00222 0.0179667 1.88586e-21)
(1.03331 0.0601434 1.67705e-21)
(1.03162 0.061493 0)
(1.03098 0.0593171 0)
(-0.361522 0.0538393 1.2554e-20)
(-0.384682 0.0124999 9.05157e-20)
(0.972881 0.0121389 -2.00617e-20)
(0.971959 0.0112002 2.90856e-21)
(1.00047 0.0155243 -2.87008e-21)
(1.00046 0.0161303 -7.41205e-22)
(0.999996 0.0157708 4.71843e-21)
(0.992702 0.00168036 0)
(0.9931 0.00150085 -3.2643e-21)
(0.992904 0.00198446 0)
(0.996074 0.00747171 1.98941e-21)
(1.01188 0.022629 -3.18038e-21)
(1.01113 0.022123 1.89463e-22)
(-0.0616075 -0.0215385 -8.35538e-20)
(-0.161081 -0.0414132 5.44929e-20)
(-0.0525574 -0.0308143 2.13103e-19)
(0.9878 0.0153057 1.4532e-21)
(0.988629 0.0154042 1.25034e-21)
(1.01184 -0.219901 3.75261e-21)
(1.03215 -0.202273 5.48404e-21)
(0.995451 0.0282915 -9.2933e-22)
(0.996248 0.0288349 -4.82353e-21)
(0.996311 0.0277997 -4.56482e-21)
(0.995062 -0.000533711 3.81654e-22)
(0.995115 -0.000242902 6.01234e-21)
(0.995358 -0.000440383 6.22801e-21)
(1.1743 0.112906 2.65312e-20)
(1.16627 0.116506 5.55915e-21)
(1.00335 0.0284303 2.06274e-21)
(1.00401 0.0295702 0)
(1.08343 -0.243706 1.91987e-20)
(1.08194 -0.216777 3.20378e-20)
(1.05779 0.0327184 -2.4843e-21)
(1.05797 0.0310369 -2.21107e-21)
(1.05954 0.0322178 1.37296e-20)
(1.05335 0.160051 -5.11041e-21)
(1.05031 0.167547 -2.87117e-21)
(0.997231 0.010655 -5.20046e-21)
(0.997445 0.0110521 -8.17829e-21)
(0.9976 0.010527 -1.85e-22)
(0.909984 0.0841073 -7.74474e-21)
(0.916526 0.0871299 -2.25474e-20)
(0.983101 0.0153136 0)
(0.983074 0.0163784 4.91049e-23)
(0.982135 0.0155876 4.53719e-21)
(-0.21134 0.0136204 9.34672e-20)
(-0.269624 0.0105215 -6.57296e-20)
(-0.283161 0.0118054 7.89936e-20)
(1.16459 -0.101883 0)
(1.15331 -0.100862 1.43626e-20)
(1.15695 -0.115207 0)
(1.01818 0.0175721 0)
(1.01798 0.0168575 0)
(1.11127 0.127012 1.39454e-21)
(1.10687 0.122001 -7.57508e-21)
(1.11391 0.121206 -3.01788e-20)
(-0.264971 -0.0328488 -2.37285e-20)
(-0.313705 -0.0354393 8.43793e-20)
(-0.261657 -0.0214064 1.32454e-19)
(1.02418 0.026914 0)
(1.02302 0.0268281 4.78403e-23)
(1.0514 -0.0536104 0)
(1.0522 -0.0523815 2.42821e-21)
(1.20621 0.185935 4.3447e-20)
(1.20106 0.197414 -1.09438e-20)
(0.986225 0.0414553 1.91352e-21)
(0.985087 0.0403003 4.28589e-21)
(0.984477 0.0420849 3.40908e-21)
(0.99246 0.00145589 0)
(0.992324 0.00192796 -6.27286e-21)
(0.985124 0.0360916 4.02252e-21)
(0.986094 0.0372359 -1.07712e-21)
(0.98664 0.0356838 8.9432e-21)
(1.2032 0.077952 2.98012e-20)
(1.20191 0.0847294 -1.73978e-20)
(1.19674 0.0788742 5.97024e-20)
(1.02842 0.00409954 -9.59287e-24)
(1.0283 0.00365557 -3.00554e-22)
(1.02793 0.00399586 -2.0656e-22)
(1.00185 0.0170186 -4.78107e-21)
(1.00233 0.0167623 -2.16259e-21)
(1.12337 0.0875752 3.10909e-20)
(1.11803 0.0875489 9.34866e-21)
(1.12128 0.093078 -4.16836e-20)
(1.02147 0.00284078 0)
(1.02119 0.00303666 0)
(1.02159 0.00322565 -9.57215e-22)
(1.00694 0.0233841 -2.52658e-21)
(1.00622 0.0233887 -6.2749e-22)
(1.01327 0.0690413 -1.83822e-22)
(1.01055 0.0694795 -5.96203e-22)
(1.0119 0.0667429 -1.87884e-21)
(1.02299 0.012468 7.33539e-22)
(1.02303 0.0119144 0)
(1.0235 0.0122764 -4.56889e-25)
(1.00002 0.000112633 1.19605e-22)
(1.00003 0.000153951 -2.57398e-21)
(1.00002 0.000107812 2.16671e-21)
(0.385191 -0.390889 -7.30658e-21)
(0.465459 -0.430983 -7.99208e-22)
(0.299465 -0.423449 -7.59376e-21)
(-0.111426 -0.0954177 1.14534e-20)
(-0.207225 -0.0845732 -2.52406e-20)
(-0.150473 -0.0848574 1.40045e-19)
(0.999598 5.94473e-05 2.11312e-21)
(0.999655 0.000128499 5.22877e-21)
(0.999669 0.000206585 -2.34456e-22)
(1.01265 0.00193133 3.24068e-21)
(1.01292 0.00195516 3.22989e-21)
(0.95963 0.00736395 8.25919e-21)
(0.961437 0.00798682 2.86019e-22)
(0.960959 0.00606348 4.57258e-22)
(0.99707 0.00265549 7.69031e-21)
(0.997036 0.00294649 1.52589e-20)
(1.10805 0.133045 3.46828e-20)
(1.11553 0.131784 2.13821e-20)
(0.0150148 0.0394911 -9.51049e-20)
(-0.142861 -0.00504608 -3.67843e-20)
(-0.141853 0.00828669 -4.99315e-20)
(-0.488493 -0.0908076 -2.95995e-20)
(-0.472219 -0.0922582 2.62976e-20)
(-0.488827 -0.101352 0)
(1.16104 -0.0465375 3.43305e-21)
(1.15321 -0.0486463 -6.99187e-21)
(1.15922 -0.0564101 -5.80438e-21)
(0.996263 0.00141934 -2.66663e-21)
(0.996415 0.00158598 0)
(0.996148 0.00161284 0)
(1.02249 0.0126402 7.20766e-23)
(1.02295 0.0129944 7.16548e-22)
(1.00756 0.0298058 0)
(1.00719 0.0306358 0)
(1.00811 0.0306272 0)
(0.983183 0.014145 4.33416e-21)
(0.984037 0.0150033 1.9813e-22)
(0.976469 0.224647 0)
(0.974824 0.236738 -8.17032e-22)
(0.987051 0.230116 0)
(0.258131 0.13697 -2.01857e-20)
(0.312927 0.183972 2.66224e-20)
(-0.24375 -0.0262226 3.93255e-20)
(-0.257369 -0.0201982 1.16775e-20)
(-0.0812812 -0.0932016 -1.07548e-19)
(0.0246243 -0.0865549 5.98749e-21)
(1.03268 0.00537867 -2.78937e-22)
(1.0322 0.00532916 -2.25425e-22)
(1.03245 0.0058399 -6.66474e-23)
(1.00297 0.00923398 -4.75232e-22)
(1.00315 0.00965523 1.02947e-21)
(1.00332 0.00940406 2.46373e-21)
(1.30928 0.104598 -8.10416e-20)
(1.32283 0.0949316 -3.64792e-20)
(0.729921 0.354058 0)
(0.722272 0.32163 1.91756e-20)
(0.696675 0.341286 -3.5001e-20)
(0.92431 0.144816 3.9591e-21)
(0.931957 0.144639 1.29194e-21)
(0.927635 0.137359 -2.45084e-20)
(1.01717 0.237653 -1.66544e-21)
(1.01366 0.206362 -1.96076e-22)
(0.962472 0.258151 -2.00229e-22)
(-0.589205 0.346618 -1.32942e-20)
(-0.606098 0.262308 3.60568e-20)
(-0.558722 0.297247 7.76615e-20)
(0.994731 0.0277602 5.3327e-21)
(0.99401 0.0271674 -1.55859e-21)
(0.994879 0.0266947 -3.6381e-21)
(0.752828 0.225955 -4.10305e-20)
(0.731538 0.213338 5.87972e-20)
(1.05707 0.076366 0)
(1.05576 0.0730556 0)
(1.05358 0.0763331 0)
(0.957717 0.00663963 7.5254e-21)
(0.958197 0.00872937 1.48173e-20)
(-0.168331 -0.0130324 -6.57447e-20)
(-0.177503 -0.0139098 5.35758e-21)
(0.976982 0.010809 -4.40096e-21)
(0.977852 0.0114768 -1.21947e-21)
(0.976436 0.0118681 0)
(1.05591 0.0334256 0)
(1.05773 0.0348277 -9.12209e-21)
(0.974546 0.0403099 -6.57661e-22)
(0.972542 0.0403095 6.87434e-21)
(-0.0833857 -0.0179034 -1.44093e-19)
(0.0894162 0.00452637 1.30554e-20)
(1.22881 -0.0617319 1.36776e-20)
(1.22126 -0.0715492 1.45754e-20)
(1.21702 -0.0588046 1.51638e-21)
(1.01536 0.0293483 6.66189e-22)
(1.01483 0.0288429 -3.45419e-22)
(1.0145 0.0295854 -2.01707e-21)
(-0.48926 -0.12955 -4.76392e-21)
(-0.501307 -0.12366 3.40233e-20)
(-0.514272 -0.122301 3.52382e-20)
(1.03972 0.0304432 5.48966e-21)
(1.03838 0.0295833 0)
(1.03987 0.0288955 -3.03195e-21)
(0.817145 0.802397 -2.33645e-20)
(0.81766 0.733986 0)
(0.758495 0.772887 0)
(0.98422 0.0351133 4.54633e-21)
(0.983469 0.036693 1.14653e-22)
(0.300594 -0.336955 -3.18986e-20)
(0.447165 -0.345225 5.75446e-21)
(1.26132 0.0957032 -9.91327e-21)
(1.26892 0.102316 8.24808e-20)
(1.10481 -0.056078 -2.00134e-21)
(1.10566 -0.0510334 -1.5541e-20)
(1.10955 -0.0549123 -2.79892e-20)
(1.27389 0.0915793 -3.20506e-20)
(1.29551 0.103056 3.12613e-20)
(1.28011 0.101439 3.09092e-20)
(1.04792 0.0184777 9.90761e-22)
(1.04654 0.0183426 -6.61469e-21)
(1.0474 0.0171247 -3.182e-21)
(0.995171 0.00621164 0)
(0.995119 0.00666125 0)
(0.99545 0.00638092 0)
(1.01254 0.00169834 -3.43527e-21)
(1.01235 0.00186699 8.61791e-24)
(1.0222 0.0464757 -1.03186e-22)
(1.02366 0.0459413 -8.73462e-22)
(1.02325 0.0481288 1.5053e-21)
(0.900578 0.128244 -3.36946e-20)
(0.909161 0.130143 7.54926e-21)
(0.907071 0.122062 2.05601e-20)
(1.01614 0.0294173 3.47853e-22)
(1.01563 0.0303752 -1.66947e-22)
(1.00325 0.0176926 -4.2387e-22)
(1.00384 0.0178971 1.86031e-21)
(1.00352 0.0171974 1.78278e-21)
(0.755529 0.353921 0)
(0.738329 0.378755 0)
(0.976093 0.0102125 -1.3644e-20)
(1.01313 0.0107935 1.62969e-21)
(1.0136 0.0108361 -4.71262e-21)
(1.01344 0.0112914 -8.92692e-22)
(0.87788 0.907373 -1.99957e-20)
(0.910469 0.791308 -2.06009e-20)
(0.999379 -2.13393e-05 2.15538e-21)
(0.999372 -0.000114935 -6.60567e-21)
(0.99946 -9.62962e-06 -3.27272e-21)
(1.00002 0.000325103 -3.28898e-21)
(1.00002 0.000336137 6.88677e-21)
(1.00004 0.000439409 1.09454e-20)
(0.999948 0.000621929 -7.51552e-23)
(0.999941 0.00061545 9.04565e-21)
(0.999933 0.000695019 2.4196e-21)
(1.26355 0.0869837 5.95314e-20)
(1.27103 0.0835088 2.39948e-20)
(1.01302 0.000413535 0)
(1.01322 0.000349669 0)
(1.01186 0.000211671 1.50256e-21)
(0.96609 0.219424 7.35041e-21)
(0.976751 0.213758 0)
(1.11 0.400744 9.50838e-21)
(1.08904 0.41048 -2.30988e-20)
(1.11163 0.426766 4.02859e-21)
(0.963243 0.00852894 -7.35905e-24)
(0.962086 0.00983096 -2.2261e-22)
(1.23992 -0.0655268 -6.96064e-20)
(1.23413 -0.0536278 0)
(0.981982 0.00453559 0)
(0.981513 0.00538062 -3.52251e-21)
(0.982395 0.00527501 -1.64314e-21)
(0.999823 0.00425122 2.45609e-21)
(0.999687 0.00428011 -9.18871e-21)
(0.999788 0.00447801 3.58025e-21)
(1.13518 0.0687312 4.11033e-20)
(1.13548 0.0629214 1.65333e-20)
(1.14138 0.0667379 1.95535e-20)
(1.00705 0.0119937 -1.18218e-21)
(1.0068 0.0116771 4.95883e-21)
(1.00665 0.0120748 5.44406e-21)
(1.03501 0.058827 3.76438e-22)
(1.03575 0.0612353 -2.66161e-22)
(0.958837 0.0148672 0)
(0.959816 0.0131601 -1.30051e-20)
(0.960842 0.0148164 0)
(1.22031 0.344973 0)
(1.19855 0.341599 2.36365e-20)
(1.21039 0.324835 0)
(1.05394 -0.00630002 -3.42792e-21)
(1.05222 -0.00667919 -3.24763e-21)
(0.953729 0.056509 4.02876e-21)
(0.954105 0.0592206 3.3589e-21)
(0.951229 0.057801 8.82842e-21)
(1.05685 0.00771649 9.33504e-21)
(1.05693 0.00600668 -2.08275e-21)
(1.05543 0.00678052 6.13008e-21)
(1.13709 -0.177525 5.91724e-20)
(1.15039 -0.165447 1.50059e-20)
(1.14851 -0.188624 5.88247e-21)
(1.00136 0.0167542 -4.61269e-21)
(1.00091 0.0164391 -4.81273e-21)
(1.0014 0.0161957 4.70201e-22)
(1.19605 -0.0340415 -3.71333e-21)
(1.2064 -0.0332819 -6.59612e-20)
(1.19871 -0.0249158 6.09969e-21)
(1.03353 0.00341873 -6.20368e-23)
(1.03377 0.0035528 -5.86155e-24)
(1.02198 0.0122066 -5.95967e-22)
(0.845225 0.364946 0)
(0.865383 0.357477 -3.27218e-21)
(0.864455 0.379815 9.67351e-21)
(1.00283 0.00886779 -4.7325e-22)
(1.00269 0.00909183 -2.70801e-21)
(1.03364 0.00318777 1.1702e-23)
(1.03334 0.00327131 -7.93855e-23)
(1.02644 0.0137993 -1.18915e-22)
(1.02608 0.0143229 -1.34321e-22)
(1.01542 0.0691248 -1.20189e-22)
(1.01438 0.0718988 -8.83383e-23)
(1.0119 0.0118297 1.20916e-21)
(1.01192 0.0122633 0)
(1.01232 0.0120995 0)
(1.01357 0.000666297 -2.89612e-21)
(1.0137 0.000578178 -1.28058e-21)
(1.01371 0.000780283 2.60828e-21)
(1.03697 0.0171376 0)
(1.03772 0.0167111 0)
(1.03778 0.0176891 0)
(1.03462 0.00160461 2.15131e-22)
(1.03493 0.00166817 1.31603e-22)
(1.03481 0.00129666 -6.98241e-23)
(0.996106 0.00121628 -2.78578e-21)
(0.996403 0.00120586 9.79544e-22)
(0.994591 0.0287684 9.86444e-21)
(1.00787 0.0289535 2.57631e-21)
(1.00699 0.0289634 0)
(1.02971 0.0630531 0)
(1.03256 0.0644961 -1.97795e-21)
(1.00043 0.0149473 -4.76209e-21)
(1.00089 0.01529 1.09615e-22)
(0.997451 0.00135507 4.84446e-21)
(0.997287 0.00145494 -2.05374e-21)
(1.01063 0.00102388 2.05271e-21)
(1.01038 0.000758581 2.07101e-21)
(1.01032 0.0010496 0)
(0.990216 0.0429826 4.75409e-22)
(0.991805 0.0421823 4.87791e-22)
(1.03309 0.00463505 -3.10279e-22)
(1.03284 0.00504186 -2.10092e-22)
(1.03263 0.00455298 0)
(1.00001 0.000176407 -3.63381e-23)
(1.00003 0.000267598 -3.58894e-21)
(1.01244 0.00128905 2.1481e-21)
(1.01241 0.00108838 -1.83019e-21)
(1.01261 0.00115758 -1.90258e-21)
(0.999659 0.0207387 6.77736e-22)
(1.00029 0.0211446 4.79185e-23)
(0.995148 0.0613749 -4.75144e-21)
(0.993576 0.0628954 1.8865e-21)
(0.996047 0.0635685 -2.5388e-21)
(1.23179 0.362257 2.596e-20)
(1.24294 0.340244 0)
(1.16191 -0.0383641 -1.47622e-20)
(1.16801 -0.0457724 8.01251e-21)
(-0.448572 -0.126478 -1.05361e-19)
(-0.444527 -0.123539 -3.52209e-20)
(0.9218 0.152772 2.34368e-20)
(0.916975 0.145112 7.86543e-21)
(0.939696 0.144251 -4.29406e-21)
(0.947553 0.143979 6.66902e-21)
(0.941649 0.13694 -9.23775e-21)
(0.964306 0.0468312 -3.99628e-21)
(0.967006 0.0473632 -1.13379e-20)
(1.07032 -0.0325896 -1.55495e-20)
(1.06952 -0.0361773 -2.81932e-21)
(1.07318 -0.0352719 7.23525e-21)
(0.919129 0.0864579 0)
(0.952522 0.107761 7.66093e-21)
(0.912164 0.133603 0)
(1.03611 0.0177204 -2.7851e-21)
(1.03603 0.0166796 0)
(0.994838 0.00693518 -3.05442e-21)
(0.994505 0.00682728 -6.01194e-22)
(1.01346 0.000822165 -1.02114e-21)
(1.0134 0.00059731 -4.78516e-22)
(1.0206 0.0473751 -1.09585e-22)
(1.02106 0.0453578 -4.40259e-22)
(1.01154 0.0115951 3.60029e-21)
(1.0119 0.011434 -2.13858e-21)
(1.019 -0.0756584 -2.9292e-22)
(1.02393 -0.0671171 -2.1261e-22)
(1.03585 0.00742606 -8.6952e-22)
(1.0355 0.00772057 -1.50579e-21)
(1.03604 0.00789094 1.61695e-21)
(0.996861 0.0107591 0)
(0.999964 0.000501065 -1.1682e-20)
(0.999974 0.000623961 -1.20402e-20)
(0.893453 0.124185 -8.52919e-21)
(0.894211 0.132477 -8.1058e-21)
(1.03347 0.00476046 2.98741e-22)
(1.12933 0.390707 -2.83833e-20)
(1.11115 0.380602 1.20027e-20)
(0.938053 0.152519 -1.52476e-20)
(1.20255 0.14479 0)
(1.20973 0.149339 0)
(1.21089 0.139539 -2.4767e-20)
(1.0397 0.0314974 -6.3209e-22)
(1.04101 0.0307567 2.07593e-21)
(1.03447 0.00190419 -7.63606e-23)
(1.03419 0.00156342 -1.72865e-23)
(1.01117 0.0113998 2.58403e-21)
(1.01113 0.0110106 -2.20368e-21)
(1.01078 0.0111842 -1.8954e-24)
(1.04212 0.00791025 5.82596e-21)
(1.04241 0.00758392 3.86059e-21)
(1.04266 0.0081349 3.80105e-21)
(1.02885 0.00419767 3.58066e-22)
(1.02843 0.00450726 -1.68138e-22)
(1.06093 0.0754915 0)
(1.059 0.0793705 7.57211e-21)
(0.991543 0.0172191 3.3825e-22)
(0.991003 0.0169245 -6.78096e-23)
(0.991613 0.0164483 3.28198e-22)
(1.05774 0.0118631 6.78186e-22)
(-0.147136 0.00429269 -2.01765e-20)
(-0.119861 0.00816744 4.2089e-20)
(1.01298 0.0104059 1.16649e-21)
(1.01279 0.0107589 4.70277e-21)
(1.02313 0.015491 1.09136e-21)
(1.02337 0.0149124 1.95704e-23)
(1.02387 0.0154315 8.7772e-22)
(0.888 0.0609823 1.96367e-20)
(0.917288 0.0475742 0)
(1.07181 -0.0294189 1.68314e-21)
(1.01517 0.0279733 -2.84775e-22)
(1.0142 0.0280653 -1.12e-21)
(0.997646 0.00140127 3.58774e-21)
(0.997717 0.00157269 -7.76657e-21)
(0.997854 0.00143604 -7.72858e-21)
(0.996678 0.0594882 5.82056e-21)
(0.99437 0.0590792 -2.2082e-23)
(1.0243 0.263988 -6.3979e-21)
(1.07911 0.21401 -7.94251e-22)
(1.11204 0.0101465 4.5582e-21)
(1.10977 0.0146982 -2.82624e-20)
(1.10709 0.00979513 -1.31768e-20)
(1.20426 0.0727008 0)
(1.20847 0.07806 6.21653e-20)
(1.00026 0.000205295 0)
(1.00023 0.000239073 -4.32214e-21)
(1.01247 0.00148809 8.11623e-22)
(1.01273 0.0015602 -5.30157e-21)
(1.00133 0.0174099 -2.32668e-21)
(1.0221 0.0136658 -5.77293e-22)
(1.02145 0.0137273 -4.93154e-22)
(1.12053 -0.168818 -1.24056e-21)
(1.11816 -0.193878 -2.60787e-20)
(0.994849 0.0133308 6.72288e-21)
(0.994988 0.0139563 2.36826e-21)
(0.994459 0.0138535 -1.92198e-21)
(0.997986 0.00207528 -5.42881e-22)
(0.99778 0.00205661 -2.02502e-21)
(1.00288 0.0102123 -5.7165e-23)
(1.0031 0.0106444 1.68169e-22)
(1.00276 0.0105245 4.62345e-21)
(0.982484 0.00368419 -6.40603e-21)
(0.981537 0.00366805 5.75542e-21)
(1.04809 -0.00846102 -4.99778e-21)
(1.04681 -0.00996605 9.0132e-22)
(1.04645 -0.00789349 2.70002e-21)
(0.974158 0.051322 -6.13712e-22)
(0.973621 0.0534068 -5.07578e-21)
(0.971853 0.0513691 -1.39962e-20)
(1.11986 0.186303 0)
(1.11082 0.184318 1.51577e-20)
(1.11801 0.177251 0)
(0.838412 0.00470931 -4.38205e-20)
(0.956442 0.011352 0)
(0.888232 -0.000867786 0)
(0.969681 0.0319893 -7.66464e-21)
(0.968234 0.0307976 8.38792e-21)
(1.3612 -0.175812 0)
(1.30912 -0.191863 -4.56513e-20)
(1.3303 -0.160455 -6.61469e-20)
(1.0004 0.0143446 2.40491e-21)
(1.00038 0.0137618 2.30962e-21)
(1.00078 0.0140969 -3.01263e-22)
(1.04142 0.00803609 6.4117e-22)
(1.04174 0.00877277 8.40134e-22)
(0.998899 -0.000194352 3.79268e-21)
(0.998852 -0.000348595 -1.98019e-21)
(-0.35907 -0.0780699 1.79033e-20)
(-0.354321 -0.0710824 1.30026e-19)
(1.17484 0.10635 6.65319e-21)
(1.17572 0.0995596 6.7012e-20)
(1.16885 0.102228 -3.6261e-20)
(1.24386 0.0906419 -1.26847e-19)
(1.24048 0.0913561 2.55253e-21)
(1.23763 0.091927 -3.58437e-20)
(-0.493257 0.348125 -4.47167e-20)
(1.01196 0.00454907 -2.21303e-21)
(1.01201 0.00485452 1.15896e-21)
(1.01226 0.00464747 -1.17915e-21)
(1.03563 0.0069797 -8.97113e-22)
(1.03612 0.00706439 -2.10905e-21)
(0.999503 0.0229524 5.26945e-21)
(1.00017 0.0226256 -8.57935e-22)
(0.98135 0.0585144 -1.0116e-21)
(0.983785 0.057887 6.3115e-21)
(0.981794 0.0560292 1.52033e-21)
(1.0584 0.00863976 -5.48267e-22)
(1.00003 0.000782693 -3.46058e-21)
(1.00002 0.000669786 -3.59785e-21)
(1.00002 0.000676029 6.25743e-22)
(1.04915 0.0894894 0)
(1.05175 0.086897 4.73254e-21)
(1.05213 0.0919503 0)
(1.00807 0.00101316 0)
(1.008 0.00132019 -4.66823e-22)
(1.01392 0.000490502 0)
(1.01403 0.000422263 0)
(1.01382 0.000349227 0)
(0.993097 0.027592 4.35481e-21)
(1.12242 0.193743 6.31794e-21)
(1.12934 0.185848 0)
(0.999993 0.000285037 8.35725e-21)
(0.999994 0.000133757 -5.70151e-23)
(0.999995 0.000135088 7.77385e-21)
(1.0372 0.0286375 0)
(1.03696 0.0299563 3.3759e-21)
(0.983391 0.0132758 -9.79976e-21)
(0.983605 0.012347 -6.63312e-21)
(0.984242 0.0130016 -6.45175e-22)
(0.974735 0.0493305 4.14512e-21)
(0.976433 0.0510267 6.92087e-21)
(-0.50809 0.125675 1.79716e-20)
(-0.502909 0.192323 -4.77927e-20)
(-0.577758 0.158286 -3.79636e-20)
(1.00001 0.0145898 -5.69816e-21)
(0.999519 -8.69527e-05 -1.1387e-22)
(0.999533 8.50851e-06 9.01353e-22)
(1.00156 0.00104193 -8.67919e-23)
(1.00156 0.00118727 5.5672e-21)
(1.00172 0.00114832 4.12121e-23)
(1.02446 0.0130377 0)
(1.02493 0.0127159 -8.15498e-23)
(1.07537 0.10878 -1.29731e-20)
(1.07882 0.113154 0)
(1.07201 0.112927 4.6864e-21)
(1.09995 -0.0573182 2.30369e-20)
(1.10303 -0.0619265 3.0375e-20)
(0.953642 0.142207 1.64213e-20)
(0.952786 0.149827 9.90436e-21)
(1.37235 -0.132301 -2.53468e-20)
(1.34044 -0.133527 -2.81467e-20)
(1.34714 -0.110082 7.96584e-21)
(1.04911 -0.00742344 -2.90213e-21)
(1.04951 -0.00940863 -4.01009e-21)
(1.0539 0.0344581 -5.854e-21)
(1.05387 0.0324755 0)
(0.982494 0.0135042 -9.97334e-21)
(1.01348 0.00103719 3.29192e-21)
(1.02647 0.0247754 -4.25235e-23)
(1.02682 0.0240413 6.65661e-22)
(1.02596 0.0241037 6.7502e-22)
(1.00001 0.000190859 -1.31877e-23)
(1.00002 0.000301234 3.34515e-21)
(1.27261 -0.142157 4.39281e-20)
(1.26868 -0.122536 1.07751e-19)
(1.28376 -0.127149 -2.44518e-20)
(0.992067 0.0175053 -8.1297e-21)
(0.991475 0.0180965 0)
(1.01679 0.0341339 -7.0044e-22)
(1.0408 -0.0653941 4.85386e-23)
(1.0387 -0.0619792 2.16285e-22)
(1.03606 -0.0663121 -8.22814e-22)
(1.00308 0.0182554 -8.96736e-22)
(0.984863 0.0633941 3.58008e-21)
(0.986498 0.0616858 -1.32586e-21)
(0.98742 0.0642323 8.59554e-21)
(0.976672 0.0402688 -1.39077e-20)
(1.0434 -0.0695375 0)
(1.04509 -0.0642091 0)
(1.02717 0.0091457 0)
(1.02749 0.0088659 4.77575e-23)
(1.02754 0.00938932 -1.30582e-22)
(0.953215 0.0534187 -7.15014e-21)
(0.956308 0.0549782 -6.20533e-21)
(1.05527 0.153427 -4.8748e-21)
(1.04766 0.155083 0)
(1.04591 0.0923483 0)
(1.04587 0.0874429 9.72535e-22)
(1.0247 0.0448791 -4.03581e-23)
(1.02601 0.043673 -2.41556e-22)
(1.02409 0.0433822 5.97383e-22)
(0.994705 0.00533485 2.49928e-24)
(0.994617 0.00578934 3.94715e-22)
(0.994342 0.00555488 -6.83795e-21)
(1.38069 -0.15233 0)
(1.38829 -0.121149 0)
(1.12554 0.0828934 3.7336e-20)
(1.12798 0.0889932 8.28939e-21)
(1.03115 0.0118883 -1.28712e-21)
(1.03175 0.0116805 -5.91836e-22)
(1.03156 0.0122236 -6.67379e-22)
(1.07841 0.104039 -6.89461e-21)
(1.07211 0.104557 -5.73283e-21)
(1.00038 0.00568523 7.86204e-22)
(1.00027 0.00549209 -2.39009e-21)
(1.00028 0.00584361 3.60008e-21)
(1.00297 0.00863896 2.42616e-21)
(1.00269 0.00850845 2.81772e-21)
(1.00053 0.0059176 6.22036e-22)
(1.00049 0.0054916 -3.0721e-21)
(0.982339 0.0626174 1.17546e-21)
(0.983329 0.0653605 4.76476e-21)
(1.24923 0.095143 6.8111e-20)
(1.25574 0.099047 3.46816e-20)
(1.25906 0.1017 3.60677e-21)
(1.03603 0.00343513 -5.44894e-23)
(1.03567 0.00333434 2.86937e-22)
(1.03574 0.00368524 4.9872e-22)
(1.00002 0.000523472 3.70625e-21)
(1.00003 0.000657191 4.89003e-23)
(1.00003 0.000649899 3.86226e-21)
(0.971252 0.0313161 -2.47823e-21)
(0.971081 0.0331114 -7.04265e-21)
(1 9.78146e-05 3.44486e-21)