/*--------------------------------*- C++ -*----------------------------------*\
| =========                 |                                                 |
| \\      /  F ield         | OpenFOAM: The Open Source CFD Toolbox           |
|  \\    /   O peration     | Version:  v2012                                 |
|   \\  /    A nd           | Website:  www.openfoam.com                      |
|    \\/     M anipulation  |                                                 |
\*---------------------------------------------------------------------------*/
FoamFile
{
    version     2.0;
    format      ascii;
    class       surfaceVectorField;
    location    "550";
    object      Uf_0;
}
// * * * * * * * * * * * * * * * * * * * * * * * * * * * * * * * * * * * * * //

dimensions      [0 1 -1 0 0 0 0];


internalField   nonuniform List<vector> 
14907
(
(0.996388 0.00808156 1.04871e-21)
(0.99645 0.00848158 4.75552e-21)
(0.996138 0.00830212 -2.84553e-21)
(0.998614 0.0025584 0)
(0.998472 0.00264857 0)
(0.998615 0.00275885 0)
(1.02543 0.0136658 2.85323e-24)
(1.02594 0.0139194 -2.63295e-23)
(1.02587 0.0132262 1.83807e-23)
(1.00898 9.8818e-05 1.33836e-21)
(1.00886 0.000125701 -4.79973e-23)
(1.09697 0.0784668 -2.86859e-20)
(1.02947 0.0748742 3.62334e-20)
(1.15721 0.10245 -4.64014e-20)
(0.999107 0.0026372 -2.27131e-22)
(0.999151 0.00239479 3.16928e-21)
(0.999016 0.0025334 -1.14863e-20)
(0.803383 -0.0354421 -3.04687e-20)
(0.777677 -0.0807549 -2.0866e-20)
(0.823694 -0.076351 2.73822e-21)
(1.03861 -0.220451 -1.62342e-20)
(1.06103 -0.229999 1.08984e-21)
(1.0391 -0.253535 -1.17577e-20)
(1.0219 0.0127418 -6.82397e-22)
(1.02171 0.0132753 -9.6487e-24)
(1.02127 0.0128121 2.35221e-22)
(1.00092 0.00311256 -1.85824e-21)
(1.00088 0.00321647 0)
(1.00099 0.0032776 0)
(-0.429839 -0.0473266 -3.13505e-20)
(-0.470197 -0.0495447 -3.10959e-20)
(-0.430522 -0.0397209 6.05887e-20)
(1.01186 0.000243586 2.16198e-21)
(1.00882 6.46208e-05 1.28214e-21)
(1.01279 0.00211441 2.45494e-21)
(1.01264 0.00230113 4.80221e-22)
(1.01295 0.00236656 -1.85859e-21)
(1.01332 0.000960003 4.02649e-21)
(1.01314 0.000907299 -1.56836e-22)
(1.01318 0.00112057 3.56495e-21)
(0.966169 0.0451895 -2.28401e-21)
(0.967643 0.0435114 -8.36351e-21)
(0.965184 0.0427501 -7.96072e-21)
(0.999318 0.00360064 -3.19879e-21)
(0.999309 0.00343724 -1.34743e-21)
(0.99942 0.00351423 1.9633e-21)
(0.999348 0.00375511 3.27698e-21)
(0.99922 0.00369074 4.4826e-21)
(1.00002 0.000280862 3.14334e-21)
(1.00003 0.000290569 3.21664e-21)
(1.00004 0.000377915 3.03074e-21)
(0.996346 0.007622 -6.22026e-21)
(0.996657 0.00785324 1.19438e-21)
(0.69236 0.281074 -2.98172e-20)
(0.717845 0.293454 2.89325e-20)
(0.719029 0.270954 4.63088e-20)
(1.0026 0.00406124 -2.29433e-22)
(1.00259 0.00424546 -2.02916e-22)
(1.00278 0.0042841 -7.05659e-21)
(1.0302 -0.0738795 0)
(1.03798 -0.0727685 0)
(1.03434 -0.0803959 -1.92667e-21)
(1.01198 0.000495458 0)
(1.01197 0.000510187 -1.1751e-21)
(1.01233 0.000662734 0)
(1.01101 0.00424604 -1.12199e-21)
(1.01131 0.00435079 -1.04805e-21)
(1.01125 0.00405148 -2.41238e-21)
(0.998735 0.00247011 0)
(0.998613 0.00237581 0)
(1.05634 0.0109662 -9.02076e-22)
(1.05674 0.00928248 7.97403e-22)
(1.05498 0.00996424 -5.21485e-22)
(0.998982 -0.000401867 -5.00306e-21)
(0.999085 -0.000557158 2.24439e-21)
(0.999111 -0.000405462 -4.00735e-21)
(0.996001 0.0444914 -4.52277e-22)
(0.994491 0.043793 -9.33978e-22)
(0.996001 0.0427762 -7.65457e-22)
(1.01539 0.018307 -1.0869e-21)
(1.01491 0.0186474 -1.88097e-21)
(1.01488 0.0179365 -1.18916e-21)
(1.00082 0.0378632 -1.06285e-20)
(1.00207 0.0384046 -9.74203e-22)
(1.00103 0.039508 2.41137e-22)
(0.997247 0.00126843 2.27117e-21)
(0.997017 0.00116878 -1.92648e-21)
(0.997213 0.00105589 1.458e-21)
(-0.201038 -0.0187324 1.67038e-19)
(-0.212802 -0.0261664 -3.48023e-20)
(-0.225364 -0.0297135 -2.28827e-20)
(1.00095 0.00299719 5.44472e-22)
(1.00085 0.0029564 -2.06011e-21)
(1.01464 0.0337715 9.01695e-22)
(1.01487 0.0350073 7.47616e-22)
(1.01351 0.0341206 -1.58297e-21)
(1.05026 0.0384164 1.66837e-21)
(1.05028 0.0362705 -1.0189e-20)
(1.04844 0.0372692 -4.67062e-21)
(1.01072 0.00415318 -1.02891e-21)
(1.01078 0.00445089 1.86211e-21)
(1.05517 0.0141305 4.25916e-21)
(1.05587 0.0124116 -1.66326e-21)
(1.05386 0.0130687 4.25128e-21)
(1.05278 -0.00516528 -4.68382e-21)
(1.05162 -0.00399876 -6.53476e-22)
(1.05324 -0.00354514 -1.02417e-20)
(1.01039 0.00399908 -9.53104e-22)
(1.01066 0.00381408 5.20229e-22)
(1.01006 0.0958459 -3.17006e-22)
(1.0127 0.0979192 -2.90385e-22)
(1.00819 0.0982228 2.70817e-21)
(0.671637 0.28464 -6.80062e-20)
(0.67727 0.262673 -7.06946e-20)
(0.973527 0.0420319 -6.86678e-21)
(0.972541 0.0438611 0)
(0.974742 0.0438037 0)
(0.83344 0.000866006 -1.59942e-20)
(0.779759 0.00878298 2.45336e-20)
(0.99273 0.0257642 7.02544e-21)
(0.993385 0.0265737 9.8551e-22)
(0.993675 0.0253753 4.63322e-21)
(1.18268 0.0823804 -4.56055e-20)
(1.00709 0.0616357 2.48984e-20)
(1.06879 -0.0303418 4.22187e-21)
(1.06598 -0.030214 4.1448e-21)
(1.06721 -0.0272282 5.10404e-21)
(0.980362 0.0288325 -2.44525e-21)
(0.980609 0.0299041 -9.41925e-21)
(0.979376 0.029371 -7.3441e-21)
(1.05071 -0.0526889 1.39473e-21)
(1.05 -0.0509201 -1.91829e-21)
(1.04868 -0.0529215 1.70416e-21)
(1.05313 0.0218306 8.14263e-22)
(1.05484 0.0227534 -1.57621e-21)
(1.05455 0.0208325 -4.03591e-22)
(1.03107 -0.0252377 3.97636e-22)
(1.02863 -0.0235356 3.5857e-22)
(1.03125 -0.0218308 6.02842e-23)
(1.00027 0.00025102 -1.29941e-21)
(1.00029 0.000290545 8.56278e-22)
(1.00031 0.000255727 -4.28216e-21)
(1.03087 0.00297028 -5.35546e-23)
(1.03123 0.00308757 -9.21507e-24)
(0.96636 0.0339593 6.40234e-21)
(0.964419 0.0344185 1.48118e-20)
(0.965072 0.0323601 -4.69439e-21)
(1.03335 0.00400497 -2.37741e-22)
(1.03334 0.00437105 -4.61447e-23)
(1.03369 0.00409689 1.12716e-22)
(1.05656 0.0149875 -4.13454e-21)
(1.05461 0.015558 2.0771e-21)
(0.999039 0.00284084 7.91015e-21)
(0.999151 0.00272834 7.21308e-23)
(1.0158 0.0181236 0)
(1.01592 0.0188092 3.14228e-22)
(0.980115 0.0275184 -1.86682e-21)
(0.981475 0.0282505 1.64175e-20)
(1.01568 0.0333948 0)
(1.01442 0.0326159 0)
(0.968102 0.0330914 -8.08999e-21)
(0.967791 0.0349747 -1.16962e-20)
(0.997909 0.00192156 2.20713e-21)
(0.998014 0.00175738 7.20073e-21)
(0.997801 0.00174582 7.32173e-21)
(0.997238 0.00279289 4.29811e-21)
(0.997399 0.00294528 -2.05484e-21)
(0.997446 0.00271302 -4.18155e-21)
(1.05015 0.0402899 6.75045e-21)
(1.05208 0.0393853 1.22096e-20)
(1.02494 0.0133348 0)
(1.0249 0.014019 6.70267e-23)
(0.971709 0.0124061 -1.41787e-20)
(0.970585 0.0129219 -1.75283e-20)
(0.971597 0.0137649 -1.75259e-20)
(1.01658 0.0329974 0)
(1.01667 0.0320146 7.39083e-22)
(1.01781 0.0326437 0)
(0.97809 0.00876177 1.76074e-20)
(0.977572 0.00969893 9.90227e-21)
(0.978707 0.00934121 -3.12726e-21)
(0.750104 0.20455 5.88843e-20)
(0.7532 0.184682 2.41794e-20)
(0.769002 0.196125 1.65455e-20)
(-0.257709 0.0305906 4.99353e-20)
(-0.122208 0.0233846 2.27723e-20)
(-0.151422 0.0120333 -1.1202e-19)
(0.999657 0.0215024 0)
(0.999625 0.0222025 0)
(0.999003 0.021786 -4.71199e-22)
(1.03346 0.0036224 3.8894e-22)
(1.03306 0.00382924 3.03656e-22)
(0.663523 0.303105 2.44855e-21)
(0.991793 0.026284 2.24805e-21)
(0.992051 0.0250519 -1.99576e-21)
(0.880085 0.0642916 2.40462e-20)
(0.883123 0.0582734 -3.45243e-20)
(0.874962 0.0580194 -6.18738e-21)
(0.97859 0.00589433 -4.03483e-21)
(0.9791 0.00667209 -4.1642e-21)
(0.979581 0.0057525 -2.43072e-22)
(1.01164 0.00443041 -2.38712e-21)
(1.01137 0.00465995 9.22596e-23)
(0.878675 0.0449975 2.94854e-20)
(0.980833 0.064664 6.74831e-20)
(0.996329 0.00723772 -2.08598e-20)
(0.996309 0.00680977 -4.37306e-21)
(0.996583 0.00696212 -6.62616e-21)
(0.915468 0.0815548 1.44017e-20)
(0.914109 0.0758484 -1.55523e-20)
(0.919598 0.0786837 1.21752e-23)
(0.785065 -0.174566 1.62263e-20)
(0.747638 -0.134034 2.26112e-20)
(0.725343 -0.190902 3.29005e-20)
(1.05166 0.0227497 4.39481e-21)
(1.05159 0.0208236 -1.80884e-21)
(1.2644 0.100973 -7.48197e-20)
(1.29771 0.122621 -6.17542e-20)
(1.00429 0.0284801 1.92894e-21)
(1.00469 0.0278286 0)
(1.00512 0.028708 -3.24635e-21)
(0.975649 0.0386777 6.68612e-21)
(0.97487 0.0370461 4.01792e-21)
(0.976795 0.0371057 -6.52302e-22)
(0.97858 0.00769787 7.72791e-21)
(0.977428 0.00802988 -1.28223e-21)
(1.00006 0.000952271 -2.53021e-22)
(1.00006 0.000976605 -4.83894e-21)
(1.00003 0.000927984 0)
(0.99683 0.00984083 6.17678e-21)
(0.99665 0.00955011 -7.98051e-22)
(0.996499 0.0100456 6.63566e-21)
(1.19482 0.186693 1.57936e-20)
(1.18341 0.1882 3.42607e-20)
(1.18858 0.178135 1.68378e-20)
(0.988062 0.016092 -7.30544e-21)
(0.988333 0.0168181 -1.36294e-20)
(0.987573 0.0166864 1.07895e-20)
(0.997048 0.0103049 2.32242e-21)
(0.997211 0.00976656 7.31294e-22)
(1.02354 0.0261465 7.87055e-23)
(1.0241 0.0253926 -1.90996e-22)
(1.02297 0.0254056 4.38053e-22)
(1.30572 0.0994545 1.0995e-19)
(1.22287 0.0915897 -5.35291e-20)
(0.997264 0.0452992 3.03964e-21)
(0.995794 0.046406 1.72849e-21)
(1.03054 0.00326401 3.38628e-22)
(0.999545 0.0374519 -3.67409e-21)
(1.00065 0.0364931 -3.81802e-21)
(1.01109 0.022832 -3.04945e-21)
(1.01048 0.0230196 -1.75049e-21)
(1.01116 0.0234836 4.48962e-21)
(0.998849 0.00691341 2.01701e-21)
(0.998719 0.00663336 0)
(0.998958 0.00651876 -4.35076e-21)
(1.0066 0.0228141 0)
(1.00697 0.0222433 -5.27874e-22)
(1.00627 0.0222387 -2.63781e-21)
(1.00738 0.0924105 1.17195e-21)
(1.01222 0.0924281 1.37718e-22)
(1.01859 0.0171154 8.00014e-22)
(1.01915 0.0174236 3.58413e-22)
(1.01891 0.0167525 9.07754e-22)
(1 8.23704e-05 -2.81024e-21)
(1 8.25044e-05 4.02813e-21)
(1.17264 0.121457 8.29681e-21)
(1.17103 0.127978 5.4073e-20)
(1.17846 0.124368 -8.6565e-21)
(0.991666 -0.216715 8.66685e-21)
(0.963367 -0.210673 -1.78447e-22)
(0.982037 -0.191404 -1.88793e-22)
(1.00006 0.00098673 1.06182e-22)
(1.00006 0.000947844 4.38711e-21)
(0.990528 0.0412732 3.43195e-21)
(0.989343 0.0402674 3.03999e-21)
(0.990861 0.0396107 -3.68539e-22)
(1.05828 0.164937 2.80242e-22)
(1.06535 0.163745 -1.23016e-20)
(1.06215 0.172314 4.46234e-21)
(0.994531 0.00724596 -2.58821e-21)
(0.9943 0.00757932 -2.98198e-21)
(0.994625 0.00769742 -6.74816e-21)
(0.999006 0.00720007 4.18468e-21)
(0.998756 0.00732884 1.52778e-21)
(1.00242 0.00380628 0)
(1.00263 0.00385006 -1.16461e-21)
(1.01847 0.00172322 0)
(1.01811 0.00167386 0)
(1.00783 0.0011014 -1.26146e-21)
(1.00757 0.000958254 2.85684e-22)
(1.00757 0.00126649 -2.21572e-22)
(1.00227 0.0172422 -6.78169e-21)
(1.00272 0.017663 2.35633e-21)
(1.00222 0.0179727 -1.71887e-21)
(1.03329 0.0601666 3.43729e-22)
(1.0316 0.0615143 1.31959e-21)
(1.03097 0.0593386 2.80259e-21)
(-0.36235 0.0523679 1.91649e-20)
(-0.385641 0.0117965 2.32363e-20)
(0.972882 0.0121403 5.89512e-21)
(0.971959 0.0112011 1.04277e-20)
(1.00047 0.0155356 -2.5869e-21)
(1.00047 0.0161412 2.07971e-21)
(0.999997 0.0157823 8.05877e-21)
(0.992702 0.00169082 0)
(0.9931 0.00151191 -3.28965e-21)
(0.992904 0.00199533 -8.62537e-21)
(0.996074 0.00748003 -4.64128e-21)
(1.01188 0.0226376 -3.33162e-21)
(1.01113 0.0221302 -3.30513e-21)
(-0.0586605 -0.02376 -8.31453e-20)
(-0.15824 -0.0437403 5.43749e-20)
(-0.0496328 -0.0331527 9.82187e-20)
(0.9878 0.0153184 -5.95641e-21)
(0.988629 0.0154169 1.25881e-21)
(1.01072 -0.218032 7.33928e-21)
(1.0314 -0.200801 -1.1295e-20)
(0.995449 0.0282881 4.74905e-22)
(0.996246 0.0288317 -5.03036e-21)
(0.99631 0.0277966 -5.19461e-21)
(0.995062 -0.000531166 1.29855e-20)
(0.995115 -0.000240433 -6.83311e-22)
(0.995358 -0.000440003 1.80466e-20)
(1.174 0.113342 0)
(1.16598 0.116879 -2.79086e-20)
(1.00335 0.0284312 -7.93272e-22)
(1.00401 0.0295733 -2.99495e-21)
(1.0817 -0.242753 9.84733e-21)
(1.08077 -0.215906 1.03853e-20)
(1.05781 0.032763 -5.83161e-21)
(1.05799 0.0310814 0)
(1.05956 0.0322654 8.16908e-22)
(1.0532 0.159994 6.91774e-21)
(1.05017 0.167474 1.2933e-20)
(0.997231 0.0106604 -2.66417e-21)
(0.997445 0.0110579 -2.70974e-21)
(0.997599 0.0105319 -2.779e-21)
(0.909997 0.0840933 -1.78138e-20)
(0.916536 0.0871144 -2.25592e-20)
(0.983101 0.0153235 -4.86641e-21)
(0.983074 0.0163868 6.73367e-21)
(0.982136 0.0155964 -1.62379e-22)
(-0.209746 0.0170225 -3.92451e-20)
(-0.268546 0.013814 0)
(-0.281769 0.0148455 0)
(1.16451 -0.102036 2.86574e-21)
(1.15323 -0.100933 1.97958e-20)
(1.15678 -0.11532 2.27013e-20)
(1.01819 0.0175773 3.61656e-22)
(1.01799 0.0168621 -2.81094e-22)
(1.11107 0.12712 5.26636e-21)
(1.10669 0.122104 4.9722e-21)
(1.11372 0.121331 -1.2603e-20)
(-0.262995 -0.0347409 -1.83732e-21)
(-0.31196 -0.0368575 -1.16518e-19)
(-0.260172 -0.0231624 3.47668e-21)
(1.02419 0.0269245 -3.25194e-22)
(1.02303 0.0268386 -6.65511e-24)
(1.05162 -0.05399 2.08531e-21)
(1.05242 -0.0526924 1.45847e-21)
(1.20531 0.185995 7.46819e-21)
(1.2002 0.19736 0)
(0.98622 0.0414539 -1.21081e-21)
(0.985083 0.0402978 4.96278e-21)
(0.984472 0.0420832 -6.56134e-21)
(0.99246 0.00146583 -9.55797e-21)
(0.992323 0.00193787 -3.68501e-23)
(0.98512 0.0360868 0)
(0.98609 0.0372319 0)
(0.986636 0.0356789 0)
(1.20325 0.0786838 -8.3229e-21)
(1.20187 0.0854759 -2.90313e-20)
(1.19675 0.0795434 -1.2296e-20)
(1.02844 0.0040783 7.63691e-23)
(1.02832 0.00363378 -5.73278e-22)
(1.02795 0.0039747 8.088e-23)
(1.00186 0.0170269 -4.38185e-21)
(1.00233 0.0167703 -2.1966e-21)
(1.12327 0.0877731 2.83315e-20)
(1.11794 0.0877294 -2.92814e-21)
(1.12116 0.0932642 -3.75185e-20)
(1.02148 0.00282559 -4.00246e-22)
(1.02119 0.00302168 -9.00631e-22)
(1.02159 0.00320994 5.96606e-22)
(1.00694 0.0233853 -2.57027e-21)
(1.00622 0.0233888 0)
(1.01325 0.0690525 -5.62152e-22)
(1.01052 0.0694894 7.08506e-22)
(1.01188 0.0667544 -1.18751e-22)
(1.023 0.0124656 6.78599e-22)
(1.02304 0.0119116 2.85343e-22)
(1.02352 0.0122741 -1.46843e-24)
(1.00002 0.000112969 3.33899e-21)
(1.00003 0.000154243 0)
(1.00002 0.000108218 -1.77669e-21)
(0.389093 -0.385353 1.33826e-20)
(0.468589 -0.426651 4.80347e-21)
(0.303264 -0.418754 -3.70168e-22)
(-0.107764 -0.0968106 -6.99839e-20)
(-0.203482 -0.085864 4.66708e-20)
(-0.146873 -0.0863209 2.59688e-20)
(0.999598 4.82901e-05 2.95705e-21)
(0.999655 0.000116933 0)
(0.999669 0.000195109 -1.33245e-24)
(1.01265 0.00192913 5.04252e-21)
(1.01293 0.00195276 4.27261e-21)
(0.959632 0.00735673 -1.59489e-20)
(0.961439 0.00798005 -8.42987e-21)
(0.960961 0.00605693 -1.52544e-22)
(0.997069 0.00265291 9.12831e-21)
(0.997035 0.00294554 -6.17151e-22)
(1.10784 0.133129 0)
(1.1153 0.131892 1.32423e-20)
(0.0155014 0.0409306 -9.11406e-20)
(-0.143325 -0.00406087 3.10319e-20)
(-0.142171 0.00952003 -8.13671e-20)
(-0.49318 -0.0895247 9.27754e-20)
(-0.47766 -0.0912426 -8.64607e-20)
(-0.493573 -0.0999723 5.93651e-20)
(1.16122 -0.0465685 -3.42415e-21)
(1.15337 -0.0486572 2.14897e-20)
(1.15936 -0.0564628 -1.05779e-21)
(0.996263 0.00141711 1.1544e-20)
(0.996415 0.00158325 8.69981e-23)
(0.996148 0.00161192 6.14664e-21)
(1.0225 0.0126376 6.79614e-23)
(1.02297 0.0129922 3.87419e-22)
(1.00756 0.0298131 -3.06377e-21)
(1.00719 0.0306434 8.11913e-23)
(1.00811 0.0306361 -3.60585e-23)
(0.983183 0.0141561 -2.65936e-22)
(0.984037 0.0150144 -3.3636e-21)
(0.976457 0.224491 1.05078e-21)
(0.974823 0.236571 2.37466e-22)
(0.987034 0.229942 -2.13085e-22)
(0.261261 0.138927 -5.63505e-20)
(0.315944 0.185775 -2.52571e-20)
(-0.244614 -0.0263847 2.05243e-19)
(-0.258087 -0.0205377 -7.92962e-20)
(-0.0777003 -0.0941079 -4.65134e-20)
(0.0282918 -0.0878558 -9.4938e-20)
(1.03272 0.00536484 1.84555e-22)
(1.03224 0.00531416 -1.11846e-22)
(1.03248 0.00582676 0)
(1.00297 0.00923974 -3.04916e-21)
(1.00315 0.00966189 -1.57701e-21)
(1.00332 0.00941052 -3.19591e-21)
(1.30878 0.109504 1.24225e-19)
(1.32177 0.100007 5.97109e-20)
(0.730173 0.354072 -3.38126e-22)
(0.722494 0.321653 1.91708e-20)
(0.696915 0.341327 0)
(0.924323 0.144763 3.89456e-21)
(0.931964 0.144584 1.56869e-20)
(0.927644 0.137311 9.08728e-21)
(1.02515 0.235892 -5.46035e-21)
(1.02107 0.205551 -5.06992e-21)
(0.970355 0.257794 -6.63181e-21)
(-0.594932 0.345196 -7.83527e-20)
(-0.612265 0.260714 -3.6151e-20)
(-0.56337 0.2949 -3.58069e-20)
(0.99473 0.027757 5.54156e-21)
(0.994009 0.0271645 -2.84732e-21)
(0.994878 0.0266923 4.96953e-21)
(0.752965 0.225963 -1.16026e-20)
(0.73167 0.213363 -1.01069e-20)
(1.05703 0.0764117 -2.70427e-22)
(1.05573 0.0731001 -2.71577e-22)
(1.05354 0.076374 4.29621e-23)
(0.957719 0.00663198 -8.69513e-21)
(0.958199 0.00872159 -2.25429e-21)
(-0.169021 -0.0126672 8.92192e-20)
(-0.178116 -0.013857 -1.70582e-20)
(0.976983 0.0108166 -3.84221e-21)
(0.977852 0.0114849 -3.64663e-21)
(0.976437 0.0118741 3.50572e-21)
(1.05592 0.0334679 3.20278e-21)
(1.05774 0.0348728 -1.06222e-20)
(0.974542 0.0403043 6.59234e-22)
(0.972539 0.040304 -6.90837e-21)
(-0.0806011 -0.0202417 -6.71773e-20)
(0.0930816 0.00230665 7.07476e-20)
(1.22925 -0.0621431 1.09455e-20)
(1.22159 -0.0719671 1.45469e-20)
(1.2174 -0.0591212 1.51377e-21)
(1.01536 0.029363 1.53727e-21)
(1.01483 0.0288574 2.53311e-22)
(1.0145 0.0296 -3.47904e-21)
(-0.495292 -0.128159 7.11408e-20)
(-0.506099 -0.122101 3.35898e-20)
(-0.51891 -0.12081 -2.72371e-20)
(1.03974 0.0304644 4.32659e-22)
(1.03839 0.0296036 -2.42931e-21)
(1.03988 0.0289167 -5.08116e-21)
(0.818113 0.802583 0)
(0.818491 0.734069 0)
(0.759294 0.773151 0)
(0.984217 0.035108 0)
(0.983465 0.0366882 9.72328e-21)
(0.305808 -0.330281 -3.70704e-20)
(0.450955 -0.338787 -6.49051e-21)
(1.26 0.0996837 2.3009e-20)
(1.26865 0.10654 3.51892e-20)
(1.10494 -0.0560025 -4.82879e-21)
(1.1058 -0.0509644 0)
(1.10968 -0.0548418 0)
(1.27682 0.0940766 5.71126e-20)
(1.2987 0.105586 4.92297e-20)
(1.2831 0.104271 -1.55264e-20)
(1.04795 0.0185063 -9.47888e-23)
(1.04657 0.0183694 7.57713e-22)
(1.04743 0.0171518 2.38634e-23)
(0.99517 0.00622111 -7.77201e-22)
(0.995119 0.00667009 -7.56657e-21)
(0.995449 0.00639042 0)
(1.01254 0.00169636 -3.58888e-21)
(1.01236 0.00186499 2.69371e-21)
(1.02219 0.046494 6.55252e-22)
(1.02365 0.0459598 -4.09475e-22)
(1.02324 0.0481474 5.38564e-22)
(0.900601 0.128209 -2.2635e-20)
(0.909178 0.130107 0)
(0.90709 0.122031 9.65687e-21)
(1.01614 0.0294321 3.94361e-21)
(1.01563 0.0303902 1.17533e-21)
(1.00325 0.017697 4.54923e-21)
(1.00385 0.0179006 0)
(1.00352 0.0172023 0)
(0.755783 0.353906 -2.96169e-22)
(0.73861 0.378759 1.57801e-22)
(0.976094 0.0102195 0)
(1.01314 0.0107973 1.64234e-23)
(1.0136 0.0108395 0)
(1.01345 0.0112953 0)
(0.879086 0.907628 0)
(0.911476 0.791286 2.70696e-20)
(0.999378 -2.56356e-05 -3.39451e-21)
(0.999371 -0.000119797 5.98436e-21)
(0.999459 -1.71037e-05 -2.35208e-21)
(1.00002 0.000326123 1.57054e-22)
(1.00002 0.000337219 6.75781e-21)
(1.00004 0.000439999 6.60801e-21)
(0.999948 0.000622161 0)
(0.999941 0.000615087 5.21783e-21)
(0.999933 0.000692711 3.05486e-21)
(1.26529 0.0891854 -1.88898e-20)
(1.27318 0.0855434 -3.09295e-20)
(1.01302 0.000412777 -1.09148e-21)
(1.01322 0.0003488 1.58132e-21)
(1.01186 0.000211221 -1.15725e-21)
(0.966089 0.21928 7.71355e-22)
(0.976733 0.213615 1.67721e-22)
(1.11009 0.400013 -4.76616e-21)
(1.0892 0.409802 1.81632e-21)
(1.1118 0.425987 -3.39319e-20)
(0.963245 0.00852259 -6.86818e-21)
(0.962088 0.00982446 7.31664e-21)
(1.24043 -0.0660363 -2.49729e-20)
(1.23466 -0.0540116 -1.97735e-20)
(0.981982 0.00454841 -7.15735e-21)
(0.981513 0.00539348 -6.91307e-21)
(0.982395 0.00528774 1.44938e-21)
(0.999822 0.00424982 3.58383e-21)
(0.999686 0.00427881 -6.78744e-21)
(0.999787 0.00447809 2.89832e-21)
(1.13516 0.0689746 -2.91078e-20)
(1.13548 0.0631634 1.06553e-20)
(1.14137 0.0670055 -7.42851e-21)
(1.00705 0.0119944 3.87311e-21)
(1.0068 0.0116786 -3.2188e-21)
(1.00665 0.0120769 2.23531e-21)
(1.03499 0.0588514 -3.68012e-21)
(1.03573 0.0612601 -3.79333e-22)
(0.958839 0.0148588 0)
(0.959818 0.0131519 -1.97746e-22)
(0.960844 0.0148084 8.97369e-21)
(1.21981 0.343897 2.38801e-20)
(1.19814 0.340642 7.38771e-20)
(1.20985 0.323897 2.64185e-20)
(1.05399 -0.00628626 0)
(1.05226 -0.00666595 0)
(0.953728 0.0565045 -1.36852e-20)
(0.954103 0.059216 -1.05863e-20)
(0.951228 0.0577964 -6.74456e-21)
(1.0569 0.00774815 2.37763e-21)
(1.05697 0.00603678 -2.06524e-21)
(1.05548 0.00680984 6.0761e-21)
(1.13632 -0.177421 2.12793e-20)
(1.14973 -0.165467 -1.40129e-20)
(1.14767 -0.188659 -8.61961e-21)
(1.00136 0.0167634 4.06277e-21)
(1.00091 0.0164494 4.10196e-21)
(1.0014 0.0162058 -7.83924e-22)
(1.19642 -0.0341276 2.88253e-20)
(1.20684 -0.0333834 6.33724e-20)
(1.19912 -0.024949 -4.33703e-20)
(1.03358 0.00340338 -1.25782e-22)
(1.03383 0.00353937 -7.26428e-24)
(1.02199 0.0122036 -3.10971e-22)
(0.845476 0.364816 3.6098e-21)
(0.865615 0.357324 -8.62444e-21)
(0.864721 0.379654 -1.143e-20)
(1.00283 0.00887287 2.34486e-21)
(1.00269 0.00909702 -6.1096e-21)
(1.03369 0.00317189 -1.35543e-22)
(1.03339 0.0032536 -8.09105e-23)
(1.02645 0.0138001 6.22269e-23)
(1.0261 0.0143238 -1.21241e-22)
(1.0154 0.0691371 5.12524e-22)
(1.01435 0.0719091 3.54203e-22)
(1.0119 0.0118333 1.79512e-21)
(1.01193 0.0122671 -8.76663e-22)
(1.01233 0.0121038 -2.77238e-21)
(1.01357 0.000664591 -2.98823e-22)
(1.0137 0.000576491 2.8329e-22)
(1.01371 0.000778131 1.15703e-21)
(1.037 0.0171523 -2.30216e-21)
(1.03774 0.0167264 -6.61601e-22)
(1.0378 0.017705 1.85895e-21)
(1.0347 0.00162026 9.25483e-23)
(1.035 0.00168121 8.70362e-23)
(1.03488 0.00131506 -7.03714e-23)
(0.996106 0.0012144 3.27618e-22)
(0.996403 0.0012021 1.60161e-21)
(0.99459 0.0287647 6.72327e-21)
(1.00787 0.0289606 2.21148e-21)
(1.00699 0.0289692 -2.83976e-21)
(1.02969 0.0630735 -1.92495e-21)
(1.03253 0.0645182 -4.15704e-21)
(1.00043 0.0149586 -9.89821e-21)
(1.00089 0.0153012 4.88482e-22)
(0.997451 0.0013501 0)
(0.997286 0.00144892 -4.34698e-21)
(1.01063 0.00102369 -1.39127e-21)
(1.01039 0.000758479 2.10918e-21)
(1.01033 0.00104957 1.39597e-21)
(0.99021 0.042984 4.0327e-21)
(0.991799 0.042184 -3.91193e-21)
(1.03313 0.00462024 0)
(1.03288 0.00502751 1.84235e-22)
(1.03267 0.00453694 0)
(1.00001 0.000177136 -3.66438e-23)
(1.00003 0.000268287 -3.63049e-21)
(1.01244 0.00128753 1.2589e-21)
(1.01241 0.00108712 -1.79468e-21)
(1.01262 0.00115614 -1.16613e-21)
(0.999659 0.0207431 0)
(1.00029 0.0211475 0)
(0.995135 0.0613818 1.43303e-21)
(0.993563 0.0629014 2.97608e-21)
(0.996033 0.0635753 -4.13396e-21)
(1.23137 0.361055 -7.90451e-20)
(1.24233 0.339059 1.49229e-21)
(1.16211 -0.038367 -7.98762e-21)
(1.16822 -0.0458146 -4.41479e-20)
(-0.455737 -0.12539 -2.5533e-20)
(-0.451506 -0.122505 7.87579e-20)
(0.921817 0.152713 -9.94406e-21)
(0.916994 0.145061 -1.16807e-20)
(0.939697 0.144194 -9.18712e-21)
(0.947548 0.143922 -1.11866e-20)
(0.941648 0.13689 -1.80228e-20)
(0.964304 0.0468267 -1.43043e-21)
(0.967002 0.0473605 4.41967e-21)
(1.07045 -0.0326087 4.42515e-21)
(1.06966 -0.0361998 -4.0454e-21)
(1.07332 -0.0352802 3.44964e-21)
(0.92422 0.0884489 -2.67114e-21)
(0.957929 0.108997 -9.83493e-21)
(0.918147 0.135759 -2.55178e-20)
(1.03614 0.0177343 -1.4667e-21)
(1.03605 0.016693 -4.02654e-22)
(0.994837 0.00694336 -1.33562e-21)
(0.994505 0.00683534 6.77927e-21)
(1.01346 0.000820403 8.34185e-22)
(1.0134 0.000595963 -2.33871e-21)
(1.02059 0.0473929 -1.8041e-22)
(1.02106 0.0453757 -2.01701e-22)
(1.01154 0.011598 -1.21738e-21)
(1.01191 0.0114376 1.73191e-22)
(1.02007 -0.0750408 -9.00025e-23)
(1.02506 -0.0667223 0)
(1.03589 0.00742632 -8.80008e-22)
(1.03554 0.00772005 -2.28142e-21)
(1.03608 0.00789261 8.66875e-22)
(0.996861 0.0107645 -2.50819e-23)
(0.999965 0.000503163 0)
(0.999974 0.000624729 0)
(0.893481 0.124155 1.37601e-20)
(0.894239 0.132439 -2.65277e-20)
(1.03352 0.00474766 -2.07201e-22)
(1.12934 0.389912 7.84137e-20)
(1.11116 0.379907 0)
(0.938057 0.152457 1.31755e-20)
(1.20183 0.145249 3.76244e-20)
(1.20891 0.149798 -1.29118e-20)
(1.21012 0.140112 -8.36011e-20)
(1.03971 0.0315187 -1.35904e-21)
(1.04102 0.03078 5.79894e-21)
(1.03455 0.00191773 6.68658e-23)
(1.03427 0.00158267 1.46338e-22)
(1.01117 0.0114021 -2.07265e-21)
(1.01114 0.0110128 3.01764e-21)
(1.01079 0.0111857 -4.73535e-23)
(1.04216 0.00792549 -6.43305e-22)
(1.04245 0.00759974 0)
(1.0427 0.0081501 4.17086e-21)
(1.02888 0.00417645 3.22442e-22)
(1.02845 0.00448673 -9.96401e-24)
(1.06089 0.0755428 0)
(1.05895 0.0794176 -8.13987e-21)
(0.991543 0.0172315 6.61515e-22)
(0.991003 0.0169366 -6.06377e-21)
(0.991613 0.0164606 4.09528e-21)
(1.05778 0.0118991 -4.89122e-21)
(-0.144839 0.00751501 7.7134e-20)
(-0.117753 0.0119975 -4.18249e-20)
(1.01299 0.0104093 2.35437e-21)
(1.0128 0.0107628 -2.57225e-21)
(1.02314 0.0154907 2.63925e-22)
(1.02338 0.0149117 1.40299e-22)
(1.02388 0.0154314 4.45769e-22)
(0.892644 0.0638399 0)
(0.921395 0.0494578 0)
(1.07192 -0.0294236 0)
(1.01518 0.0279875 -1.99326e-22)
(1.01421 0.0280791 2.9681e-21)
(0.997646 0.00139736 -3.63464e-21)
(0.997717 0.00156876 -3.92722e-21)
(0.997854 0.00143403 -3.50842e-21)
(0.996666 0.059496 3.76041e-21)
(0.994358 0.059086 1.11481e-20)
(1.03262 0.261139 0)
(1.08696 0.210979 0)
(1.11214 0.010252 -6.0862e-21)
(1.10985 0.0148069 1.56368e-21)
(1.10718 0.00989409 -6.43927e-21)
(1.20438 0.0734303 4.05473e-20)
(1.20855 0.0788734 7.88855e-20)
(1.00025 0.000204401 3.03359e-21)
(1.00023 0.000237963 9.46842e-21)
(1.01248 0.00148633 -9.97577e-22)
(1.01273 0.00155826 -3.36047e-21)
(1.00133 0.0174185 4.07206e-22)
(1.02211 0.0136637 2.86377e-22)
(1.02146 0.0137252 -6.86215e-23)
(1.1199 -0.168538 1.74998e-20)
(1.11727 -0.193534 3.14227e-21)
(0.994849 0.0133404 -1.11239e-20)
(0.994988 0.0139668 4.59221e-21)
(0.994459 0.0138642 -2.89878e-21)
(0.997986 0.00207172 -5.38416e-21)
(0.99778 0.00205188 -4.13797e-21)
(1.00288 0.0102195 9.11063e-22)
(1.0031 0.0106524 -3.07015e-21)
(1.00277 0.0105321 -2.71432e-21)
(0.982484 0.00369681 6.44494e-21)
(0.981537 0.00368115 2.93865e-21)
(1.04813 -0.00844882 -1.40547e-21)
(1.04684 -0.00995625 -7.55411e-22)
(1.04649 -0.00787973 8.26113e-22)
(0.974152 0.0513201 5.51406e-21)
(0.973615 0.0534053 -4.25473e-21)
(0.971848 0.0513665 5.81611e-21)
(1.11951 0.18624 1.87123e-20)
(1.1105 0.18425 -1.82157e-20)
(1.11769 0.177221 -1.72597e-20)
(0.83818 0.00414734 1.01104e-19)
(0.95576 0.0107177 9.00577e-21)
(0.88785 -0.0017301 -1.80746e-20)
(0.969679 0.0319812 3.25973e-21)
(0.968233 0.0307892 -4.07701e-21)
(1.36135 -0.178722 4.51581e-20)
(1.3092 -0.194807 3.0878e-20)
(1.33041 -0.163325 -2.68804e-20)
(1.0004 0.0143558 -1.03342e-21)
(1.00038 0.0137725 2.44325e-21)
(1.00078 0.0141079 9.15581e-21)
(1.04146 0.00805051 -1.53068e-21)
(1.04178 0.00878791 -1.75231e-21)
(0.998899 -0.000188082 -4.91559e-21)
(0.998852 -0.000342065 -5.97464e-22)
(-0.355202 -0.0791645 4.11664e-20)
(-0.350142 -0.0724786 -1.658e-20)
(1.17459 0.106812 1.19399e-20)
(1.17552 0.10004 5.2027e-20)
(1.16865 0.102653 7.056e-22)
(1.24265 0.0940838 -2.69335e-20)
(1.23973 0.0945498 -1.82834e-20)
(1.23735 0.0951928 4.07485e-21)
(-0.497794 0.347017 -4.4904e-20)
(1.01196 0.00454752 -8.61768e-22)
(1.01202 0.00485321 1.16075e-21)
(1.01227 0.00464543 1.04875e-21)
(1.03567 0.0069786 0)
(1.03616 0.00706536 -1.41104e-22)
(0.999503 0.0229529 0)
(1.00017 0.0226261 0)
(0.981341 0.0585156 1.38633e-21)
(0.983775 0.0578891 -5.96539e-21)
(0.981785 0.0560305 -5.73047e-21)
(1.05844 0.00867367 4.80144e-22)
(1.00003 0.000781652 7.52947e-22)
(1.00002 0.000670143 -7.43262e-21)
(1.00002 0.000676511 5.02401e-21)
(1.04909 0.0895184 -5.9143e-21)
(1.0517 0.0869299 -1.09233e-21)
(1.05207 0.0919811 -5.04957e-21)
(1.00807 0.00101292 2.41043e-21)
(1.008 0.00131982 4.74542e-22)
(1.01392 0.000488666 -5.8494e-22)
(1.01403 0.000420467 2.55776e-22)
(1.01382 0.000347848 -1.79931e-21)
(0.993096 0.0275888 8.48926e-22)
(1.12205 0.193651 1.63575e-20)
(1.12894 0.185795 1.01542e-20)
(0.999993 0.000287124 -9.14327e-21)
(0.999994 0.000135017 0)
(0.999995 0.000136417 -3.92423e-21)
(1.03721 0.028656 0)
(1.03697 0.0299752 3.31517e-21)
(0.983391 0.0132877 1.48044e-20)
(0.983605 0.0123595 -7.81521e-21)
(0.984242 0.0130141 7.22051e-21)
(0.97473 0.0493285 1.97199e-20)
(0.976427 0.0510253 1.52557e-20)
(-0.510799 0.123308 5.66926e-20)
(-0.505918 0.189759 -5.22756e-20)
(-0.582559 0.156224 -2.30476e-20)
(1.00001 0.0146011 -4.69947e-21)
(0.999518 -9.70846e-05 5.65641e-21)
(0.999533 -1.4281e-06 -2.2121e-21)
(1.00156 0.00104182 -2.87743e-21)
(1.00156 0.00118721 2.3733e-22)
(1.00172 0.00114855 -1.37051e-21)
(1.02448 0.0130365 2.47562e-23)
(1.02495 0.0127148 -1.20637e-22)
(1.07526 0.108832 6.61259e-21)
(1.07869 0.113208 1.38802e-21)
(1.0719 0.112969 8.58573e-21)
(1.10009 -0.0572394 1.17911e-20)
(1.10316 -0.0618395 2.72807e-20)
(0.953633 0.142151 6.1543e-22)
(0.952777 0.149764 1.65531e-20)
(1.37303 -0.13467 -2.53227e-20)
(1.34116 -0.135534 -2.08464e-20)
(1.34836 -0.112007 -6.43587e-20)
(1.04915 -0.00741107 2.1319e-21)
(1.04955 -0.00939875 -9.08479e-22)
(1.05391 0.034498 1.6319e-20)
(1.05388 0.0325151 7.01443e-21)
(0.982495 0.0135152 7.22246e-21)
(1.01348 0.00103503 1.40269e-21)
(1.02648 0.0247839 6.81143e-23)
(1.02683 0.0240493 1.0413e-21)
(1.02597 0.0241115 0)
(1.00001 0.000191667 3.26161e-21)
(1.00003 0.000302141 3.38347e-21)
(1.2726 -0.143503 -2.16276e-20)
(1.26882 -0.123702 4.57616e-22)
(1.28399 -0.128586 -1.80246e-20)
(0.992068 0.0175172 -1.56422e-21)
(0.991475 0.018108 -1.97765e-22)
(1.01679 0.0341502 -7.33938e-22)
(1.04054 -0.0660015 -3.06418e-22)
(1.03845 -0.0624898 5.27278e-22)
(1.03569 -0.0668452 1.39194e-21)
(1.00308 0.0182591 5.45801e-21)
(0.98485 0.0633961 0)
(0.986487 0.0616886 0)
(0.987407 0.0642351 4.83827e-21)
(0.976668 0.0402645 6.50943e-21)
(1.04311 -0.0702785 -8.12244e-22)
(1.04494 -0.0648789 -1.55032e-21)
(1.0272 0.00913911 0)
(1.02751 0.00885831 -7.90561e-23)
(1.02756 0.00938318 0)
(0.953214 0.0534142 6.01603e-21)
(0.956306 0.0549745 3.55939e-21)
(1.05513 0.153384 -4.9468e-21)
(1.04754 0.155031 8.18621e-21)
(1.04585 0.0923714 0)
(1.04582 0.0874693 -9.65061e-22)
(1.02469 0.0448977 2.08375e-22)
(1.02601 0.0436915 1.75147e-21)
(1.02409 0.0434005 6.09858e-22)
(0.994705 0.00534487 3.22303e-21)
(0.994617 0.00579882 2.8263e-21)
(0.994342 0.00556444 -8.82601e-22)
(1.38094 -0.154943 0)
(1.38888 -0.123661 0)
(1.12545 0.0831027 2.77466e-20)
(1.12788 0.0892096 4.30122e-20)
(1.03118 0.0118906 7.06408e-22)
(1.03178 0.0116828 0)
(1.03158 0.0122269 0)
(1.0783 0.104101 -1.25915e-20)
(1.07201 0.104608 -1.33669e-20)
(1.00038 0.00569203 -7.92737e-22)
(1.00027 0.00549824 -4.02684e-21)
(1.00028 0.00585084 5.05815e-22)
(1.00297 0.00864388 -8.93165e-22)
(1.00269 0.00851296 2.52856e-21)
(1.00053 0.00592494 -6.274e-22)
(1.00049 0.00549795 2.59523e-21)
(0.982328 0.0626194 -4.20576e-21)
(0.983318 0.0653615 0)
(1.2482 0.0979216 4.33584e-20)
(1.2548 0.101562 0)
(1.25776 0.104058 4.06582e-20)