/*--------------------------------*- C++ -*----------------------------------*\
| =========                 |                                                 |
| \\      /  F ield         | OpenFOAM: The Open Source CFD Toolbox           |
|  \\    /   O peration     | Version:  v2012                                 |
|   \\  /    A nd           | Website:  www.openfoam.com                      |
|    \\/     M anipulation  |                                                 |
\*---------------------------------------------------------------------------*/
FoamFile
{
    version     2.0;
    format      ascii;
    class       surfaceScalarField;
    location    "750";
    object      phi;
}
// * * * * * * * * * * * * * * * * * * * * * * * * * * * * * * * * * * * * * //

dimensions      [0 3 -1 0 0 0 0];
oriented        oriented;


internalField   nonuniform List<scalar> 
14907
(
-0.449879
0.309493
0.140397
-0.580768
0.367948
0.212855
-0.227863
-0.0185374
0.246328
0.587921
-0.587308
-0.0581428
0.0282283
0.0299144
0.420917
-0.530456
0.109461
0.105514
-0.0603519
-0.0451573
0.161445
-0.159888
-0.00155794
0.399209
-0.222624
-0.176457
-0.379748
-0.0978088
0.477597
-0.0103552
-0.00123853
0.0115937
0.0663549
0.522289
0.34915
-0.610778
0.261882
0.643474
-0.344229
-0.299168
0.231068
-0.12409
-0.106983
0.543646
-0.356979
-0.18643
0.302551
0.241325
-0.292331
-0.299063
0.591379
-0.250641
-0.199206
-0.00976476
0.0686472
-0.0588836
-0.397525
-0.131547
0.529837
0.115092
0.0524618
-0.167554
0.394112
-0.622681
0.228883
-0.546532
0.291299
0.255083
-0.342133
-0.238619
-0.260143
0.141534
0.118629
0.630164
-0.362705
-0.267311
0.265951
-0.146543
-0.119428
0.396344
-0.19614
-0.20008
-0.300501
0.194408
0.106061
-0.181036
0.411849
-0.2308
0.000264464
0.00684061
-0.00710509
0.204454
-0.584318
0.119021
0.13117
-0.250191
-0.100485
0.232947
-0.132491
-0.313188
-0.233527
-0.295033
0.15891
0.136142
0.0894131
0.121163
-0.210544
-0.580284
0.267421
-0.0967914
0.148519
-0.0517487
0.0369923
-0.0467574
-0.229533
0.131988
0.0975315
0.0826068
0.0229122
-0.137973
0.284876
-0.14697
-0.0335505
-0.0245926
-0.14848
0.236286
-0.0877968
-0.280057
0.204845
0.0751788
-0.106336
-0.0876252
0.193974
-0.0619367
-0.147707
0.209644
-0.16318
0.271039
-0.107845
-0.583459
0.117157
0.466534
-0.0812981
-0.191702
-0.0344315
0.164475
-0.130078
0.369215
-0.265137
-0.104109
-0.110372
-0.184645
0.434705
-0.0137193
0.302714
0.0937488
-0.165991
-0.114114
0.273742
-0.154735
-0.179376
0.144892
0.289657
-0.494215
0.204599
0.311729
0.133651
-0.445237
-0.222443
0.121933
0.0811854
-0.30912
-0.267649
0.213808
0.0538467
-0.135902
-0.119857
0.255743
-0.0791005
0.231544
-0.152465
0.0865835
-0.0768994
-0.00968576
0.000191742
-0.00723041
0.00703858
-0.171778
0.350312
-0.178488
0.221663
0.147528
0.0604255
0.144382
-0.282425
0.13033
-0.156866
0.0265327
0.187363
0.0771085
-0.264544
0.49561
-0.20475
-0.00560509
0.0338332
0.415826
-0.21015
-0.205643
0.16663
-0.0931509
-0.0734866
-0.0308194
0.0801096
-0.0492856
-0.184273
0.122353
-0.0855075
0.0519567
-0.124497
-0.147679
0.272111
0.242272
-0.122545
-0.119724
-0.2548
0.175668
0.5184
0.086394
-0.604811
0.0808001
-0.286506
0.205643
-0.00256519
-0.102149
0.104713
-0.325546
0.104924
0.220541
0.350774
-0.269975
-0.144378
0.275738
-0.131352
-0.0462463
-0.0392616
0.183679
0.082253
-0.285201
-0.159622
-0.140912
0.129475
-0.283313
0.153874
0.485981
-0.188581
-0.297337
0.170159
0.150559
-0.320684
-0.194751
0.0979319
-0.399413
0.13303
0.266491
0.396191
0.200824
0.108371
-0.127272
0.0188968
-0.153373
0.0636335
0.0897371
0.546942
-0.0287227
0.258663
-0.142698
-0.115965
-0.126679
0.131338
-0.00466116
-0.389843
0.314868
0.0748827
0.148807
0.337221
-0.589523
0.192739
-0.235346
-0.271257
0.57249
-0.303293
-0.268713
-0.46863
0.319795
0.148945
0.222738
-0.12867
-0.0940902
-0.00837744
0.00856915
-0.207519
-0.0601262
-0.250839
0.439199
-0.188238
0.269541
-0.350867
0.0813163
0.165213
0.296681
-0.167154
0.00173454
-0.0023178
0.000583117
-0.122948
-0.202707
0.0875682
0.0738762
-0.138616
0.284795
-0.146197
0.199521
0.179179
-0.378677
0.140661
-0.0322955
-0.266251
0.14172
-0.124278
-0.0356103
-0.224817
0.17947
0.0453328
-0.0167179
-0.109962
-0.151981
0.36975
-0.217708
0.0501255
0.116497
-0.367509
0.210235
0.157273
0.00286193
-0.00989021
0.00702825
-0.176326
0.092617
0.0837023
-0.21742
-0.181883
-0.0921411
-0.0655272
0.15766
-0.00491167
-0.0015874
0.00649899
0.133202
-0.27762
0.0729527
-0.179282
0.0926395
-0.0952056
0.141065
-0.252964
0.111868
0.0187383
0.250793
-0.128354
0.248744
-0.120416
0.120061
-0.108828
-0.0112384
-0.230485
0.351423
-0.121038
-0.273293
-0.195252
0.140013
-0.0194708
-0.120554
0.444859
-0.227507
-0.217255
0.314106
-0.143885
0.235493
-0.127002
-0.108499
-0.363169
0.153946
0.209287
-0.0087905
0.529272
-0.520527
0.0295931
-0.0105162
-0.0190741
-0.000184517
-0.00303553
0.00321994
0.582069
-0.300397
-0.281212
-0.198929
0.548231
0.245869
-0.12085
-0.125035
-0.0419161
0.353781
-0.137045
0.0448994
0.00379018
-0.0063574
0.00256715
0.0138317
-0.00421172
-0.00962005
-0.18382
0.0896305
0.094183
-0.128683
-0.222375
0.351054
-0.198595
-0.164513
-0.148126
-0.128024
0.276079
-0.184632
-0.18288
-0.109655
0.00126865
0.108385
0.0238117
-0.0200217
0.00792983
-0.00689827
-0.00216864
0.001984
0.133854
0.153471
-0.287367
-0.463639
0.294573
0.168864
0.0171569
-0.0634036
0.0672021
-0.0647576
-0.00244577
0.028323
0.0893854
-0.117714
0.128083
-0.0595104
-0.0685575
-0.0134838
0.011245
0.00223886
0.280518
-0.144269
-0.136299
0.0613824
0.0251996
0.110213
0.0802989
-0.190526
0.115212
0.130642
0.00491183
-0.0046474
-0.092104
-0.158798
0.250825
-0.0960647
-0.128771
-0.125462
-0.104085
-0.000145741
0.00188014
-0.105913
0.134802
-0.0288929
0.263779
-0.113256
-0.150524
-5.2287e-05
0.010386
-0.0103338
-0.104891
-0.135691
0.240603
0.0565629
0.0153591
-0.071922
-0.262014
0.133615
-0.000928084
0.0305238
-0.0786375
0.0957937
0.168682
-0.0274847
-0.141197
0.00599649
0.0754113
-0.0814085
-0.125041
-0.10564
0.230699
-0.209949
0.390082
-0.180209
0.361386
-0.560134
-0.29175
0.209817
0.0819213
0.0161355
0.103069
-0.119211
0.25336
0.0104305
-0.0890586
0.323075
-0.233988
0.00697095
0.0602301
0.139415
-0.409004
0.449095
-0.039917
0.00399032
0.0525725
0.409025
0.146193
-0.5547
-0.299712
-0.290811
0.590414
-0.531004
-0.00679878
0.537116
-0.100146
0.106142
-0.613821
0.604154
0.0105106
-0.109055
-0.00059978
0.0864119
-0.0934819
0.0070702
-0.256189
0.135321
0.0281687
-0.134082
-0.11227
0.300012
-0.187827
-0.316962
-0.146103
0.4629
-0.179028
0.145575
0.0334474
0.480845
-0.214497
-0.266293
0.138833
0.0838815
0.237424
-0.111045
-0.126389
0.0137839
-0.100435
0.0866507
-0.106593
0.196043
-0.19473
0.15266
0.0420444
-0.223478
0.118953
0.104548
0.176788
-0.0916262
-0.0851617
0.459413
-0.246652
-0.212634
0.139872
-0.0140776
-0.1258
0.362926
-0.141285
0.20073
-0.057786
-0.00647085
0.0642561
-0.27419
-0.189638
0.208435
0.154465
0.192139
-0.210766
0.173991
0.0614954
-0.186131
-0.199817
0.386179
-0.730644
0.477181
0.253834
-0.10077
0.243041
-0.142248
0.283897
-0.162828
-0.121028
0.233127
-0.361792
0.141864
0.135122
-0.283298
-0.229299
0.100594
-0.389685
0.139075
-0.41765
0.236596
0.556057
-0.0028014
-0.553025
0.109526
0.149137
0.0906757
-0.270286
0.179554
-0.693023
0.400678
-0.323877
-0.216329
0.540788
-0.343627
0.171906
-0.13576
-0.056877
0.1926
-0.0686694
0.0824529
-0.0975211
-0.086304
-0.00959357
0.00954127
0.113787
-0.0854682
0.0266939
0.091302
-0.118002
0.0790393
0.152026
-0.0275363
0.202885
-0.175338
-0.141965
0.124276
0.0176982
-0.276383
0.175613
-0.234896
-0.155051
-0.393994
-0.336322
-0.158146
-0.133616
-0.379849
0.193907
-0.0862215
0.20132
0.258796
-0.0591057
-0.199717
0.198785
-0.521296
-0.0104497
-0.0907245
0.106856
-0.174481
0.0898087
-0.00339668
0.116077
-0.0152419
-0.0930833
0.108324
-0.216695
0.111826
0.162796
0.121143
0.204916
0.191023
-0.395743
-0.00781777
0.139711
-0.131938
0.0553593
-0.285914
0.177096
-0.066904
0.254166
0.0106913
-0.26493
-0.101215
0.00779693
-0.00493505
-0.00319148
-0.405762
-0.376532
0.236983
0.139511
-0.0970543
-0.0449001
-0.176013
0.189768
-0.303089
0.189054
0.262702
-0.451833
0.0970305
-0.232828
0.0625571
0.0655418
0.0466496
-0.163242
0.116571
0.125238
-0.0051818
0.00719621
-0.590512
-0.179099
0.540692
0.186223
0.111726
-0.334243
0.0957399
0.0810482
-0.364761
0.236902
0.127877
-0.125712
0.415558
-0.331447
0.399739
-0.0682664
-0.315235
0.202891
-0.236142
0.143465
0.0927178
-0.128593
0.187361
-0.0587797
0.0201156
-0.11008
0.0899631
-0.0135911
-0.0181739
0.0317643
-0.0658274
-0.113605
0.02527
0.0504543
-0.0757253
0.232867
-0.406444
0.1739
0.157482
-0.1653
0.253655
0.376638
0.012715
-0.0128487
-0.111365
0.134614
-0.023252
0.00551103
-0.0958538
0.0903419
-0.00611797
-0.181208
-0.288177
0.469165
0.221289
0.0374815
0.130545
0.219807
0.10022
0.100875
-0.201123
-0.0819228
0.644616
-0.345056
-0.299488
-0.210784
0.138648
0.0721231
0.39269
0.180274
-0.583261
0.600513
-0.0169903
0.140557
-0.0821887
0.102304
0.587803
-0.346914
-0.24071
0.147783
-0.283499
0.305187
-0.159275
-0.145952
-0.209403
0.0807831
0.00952111
-0.0108132
0.00129212
-0.156595
0.26238
0.320118
-0.345941
-0.226501
0.57258
-0.225206
0.306306
0.0952998
0.0633901
-0.158703
0.142322
0.0263591
-0.0238146
0.115114
-0.00588269
0.112887
-0.107005
-0.183786
-0.0523173
-0.233606
0.137519
0.120517
0.249574
-0.140283
0.276335
-0.136034
-0.59602
0.296876
0.133422
-0.0259994
-0.107423
-0.00692273
0.261034
0.137841
-0.0713075
-0.126365
0.19767
0.230755
-0.0307047
-0.122912
0.15359
0.116812
0.125297
-0.196601
-0.13581
0.254006
-0.118238
-0.127093
-0.0676691
0.118784
-0.135502
-0.124136
-0.0866638
-0.0666727
0.228647
-0.162004
-0.387509
0.21678
0.170694
0.0752665
-0.0811505
0.129723
0.0102794
0.0049359
0.192653
-0.197599
0.166745
-0.0714605
0.133372
-0.363325
0.229724
0.172355
-0.446583
0.393852
-0.260652
-0.154019
0.123295
0.00858623
0.0937446
-0.102332
-0.147874
0.243425
-0.0955509
-0.601971
0.341478
0.260424
-0.187137
0.121273
0.301105
0.29591
0.338101
0.24987
0.00388844
0.172784
-0.382777
0.192871
-0.413865
0.22125
0.00215025
-0.00706201
-0.190461
-0.26909
0.4596
-0.146263
0.0536541
0.0926078
0.10253
0.0308918
0.11262
0.0177065
-0.118145
0.0546529
0.0635089
-0.0102944
-0.104958
0.186707
-0.0817697
-0.0761328
0.0183457
0.329871
-0.572523
0.243034
0.0426103
-0.205771
0.325468
0.271547
0.291629
-0.164865
-0.126804
0.246356
-0.101549
-0.144792
-0.638831
0.231514
0.407372
0.207078
-0.106877
-0.0239427
0.0766431
-0.151545
0.546058
0.371485
-0.502162
0.072667
-0.0876153
0.0149449
-0.0356497
0.0510087
0.145667
-0.265508
-0.216768
0.414242
-0.197447
0.00154912
0.00638069
0.0292914
-0.135695
0.429963
-0.0102148
-0.0666857
0.00273344
0.344329
0.136609
-0.318258
-0.283796
-0.447752
0.234883
0.213014
-0.166926
0.365121
-0.198013
-0.562327
-0.0204812
-0.366931
0.363752
0.100535
-0.065806
0.125599
-0.0125458
0.0514506
-0.0389053
-0.581079
0.237341
-0.179641
-0.185094
-0.0803262
-0.0256032
0.105928
-0.252014
0.296028
-0.0441388
-0.0826295
-0.102176
0.148804
0.0995153
-0.222056
-0.22544
-0.158579
0.38397
-0.422953
0.206166
0.0924782
-0.0982835
0.00580493
-0.136476
0.0806966
-0.185679
-0.123389
0.255593
-0.132226
0.00104433
-0.0113995
-0.127756
-0.128451
-0.0731274
0.100009
-0.224112
-0.276902
-0.194538
0.471415
0.192652
0.119084
-0.0422634
-0.0768216
-0.181943
0.462841
-0.280893
0.137717
0.0537665
-0.191481
0.196157
-0.312506
0.116387
0.155397
-0.291207
-0.00631077
-4.66988e-05
-0.0917511
0.228584
-0.136788
-0.0926937
-0.188987
0.281736
0.00798692
0.543505
-0.55093
-0.0113839
0.00389303
0.00749086
-0.16469
0.372931
-0.208067
-0.193305
0.101582
0.259196
-0.149009
-0.110175
-0.174737
-0.0677309
0.0551851
-0.0555718
-0.516854
0.412792
0.104368
-0.0333465
-0.174163
0.0884157
-0.236288
-0.502344
-0.500279
0.207343
0.293221
0.172878
-0.38757
-0.0038731
0.00937866
-0.00550559
0.184242
-0.395752
-0.468093
-0.145075
0.0782652
-0.158373
0.0801071
-0.0786824
0.168418
0.16255
-0.0110951
-0.151463
-0.593187
0.293359
-0.105559
0.18584
0.00126117
0.242919
-0.0994143
-0.358561
0.177547
0.181049
-0.188461
-0.199086
-0.10036
-0.0759712
0.207593
-0.20269
0.19264
-0.469427
-0.0774167
0.167326
-0.08992
-0.250095
0.361871
0.0608412
-0.427839
0.173629
0.0637861
-0.230482
0.432001
-0.20142
-0.122088
0.0336353
0.0884456
0.225776
0.0890023
0.267696
-0.449653
0.0110429
-0.0122814
0.538306
-0.263744
-0.274532
-0.140838
0.294233
-0.585543
0.192822
0.392669
-0.276063
0.152617
0.198368
-0.0597335
-0.35468
-0.161807
0.138259
-0.363494
-0.0872685
0.0858176
0.180039
-0.265876
0.0577575
-0.0455491
-0.0122063
-0.119736
-0.156654
-0.296827
-0.398504
0.599416
-0.130962
0.026307
0.104653
0.169344
-0.310421
0.140912
-0.310379
0.217707
0.226176
-0.584387
0.358792
-0.308237
0.143398
0.164868
-0.0042542
0.121102
-0.116858
0.0615815
-0.0923972
0.205119
-0.131365
0.00926768
0.0253593
0.133073
0.109885
-0.330021
-0.262833
0.592748
-0.202753
-0.164032
0.366828
-0.161748
0.323755
-0.162114
-0.442856
0.529266
0.382709
-0.186224
-0.196221
-0.00677122
0.00961702
-0.00785016
0.00626272
-0.372351
-0.266423
0.0496014
0.129854
-0.000477837
-0.158019
0.15852
-0.166284
0.165857
0.253582
-0.0662528
-0.312996
-0.279655
0.593083
-0.0941692
-0.066383
0.160553
-0.00565088
0.0981284
-0.0465627
0.214264
-0.439583
-0.325416
0.163566
-0.338258
0.0860908
0.253194
-0.443709
0.00610118
-0.000929206
-0.00517209
-0.0888534
-0.0873947
0.176229
-0.115566
-0.145722
-0.194187
0.340004
-0.30233
-0.261143
0.563947
0.258667
0.0648806
-0.323635
-0.172851
0.10358
0.134545
-0.49738
-0.0111508
0.00727765
0.0261304
-0.0617802
-0.0189253
-0.0592464
0.0781716
0.0821617
0.0491742
-0.197441
-0.358174
0.140832
0.244847
-0.116195
-0.128645
-0.114037
-0.0614539
0.175475
-0.00042449
0.00590323
-0.00547874
0.00567177
0.0181398
0.206408
-0.119601
-0.0868314
0.172063
0.442119
0.134232
-0.576354
-0.105013
0.252799
-0.195969
0.162587
0.536711
-0.0946744
0.0016386
0.0121931
0.441126
0.115058
-0.187375
-0.218749
-0.224539
0.125891
0.0986513
0.129324
-0.572011
0.222754
-0.0681738
-0.154568
-0.268649
0.148904
0.0875749
0.0573435
-0.144926
-0.0895829
-0.0884831
0.178051
-0.507793
0.501021
-0.102912
-0.147015
0.249935
0.108059
0.124861
-0.154311
-0.0225098
0.129034
-0.0468763
0.00131444
-0.0857015
0.0843861
-0.281849
0.606814
0.12692
0.144132
-0.263398
0.148494
0.114857
-0.0622764
-0.221015
-0.281881
-0.28475
0.566579
-0.26917
0.128876
0.288069
0.148898
-0.436918
0.0792916
0.0401944
0.12235
0.0511932
0.0644176
-0.115616
-0.579391
0.34914
0.230094
-0.130334
0.216139
0.5341
-0.307537
-0.133373
-0.18048
0.313823
-0.0584839
-0.0176501
0.309866
0.224232
-0.533641
0.254844
-0.128223
-0.126608
0.146213
-0.0937473
0.190714
-0.421075
-0.133522
0.235651
-0.199968
-0.0356634
-0.228596
-0.00200439
0.00202376
-1.94801e-05
-0.0706211
0.198676
-0.128057
-0.563363
0.317463
0.246177
-0.0312656
-0.0831601
0.114425
0.00629768
-0.205224
0.198847
-0.596851
0.305878
0.154112
-0.309959
0.15583
-0.18326
0.375864
-0.192519
0.337154
0.259861
-0.241593
0.108924
0.132668
0.0353555
0.223255
-0.0328482
0.0589785
-0.100663
0.241709
0.181062
-0.383713
0.151613
-0.298174
0.14659
0.159213
0.0391399
-0.103961
-0.0932894
0.19725
-0.182009
0.381591
0.111766
-0.238578
0.126847
-0.177627
-0.180475
-0.0992572
0.220465
0.321581
-0.149555
-0.172033
-0.179579
0.0899715
0.402738
-0.209601
0.240967
-0.109795
0.19231
0.236271
-0.428585
-0.17375
-0.226786
0.400424
-0.00609178
0.031641
-0.0255495
-0.262498
-0.18511
-0.0736726
0.0151868
0.387027
-0.214134
0.135041
0.140204
-0.275207
0.550029
-0.304747
-0.245053
0.233919
-0.133857
-0.100041
-0.29506
-0.290534
-0.18497
0.114345
-0.139718
0.329458
0.0761882
-0.107454
-0.214666
0.552777
0.120391
-0.0377768
0.281512
0.163433
-0.13604
-0.0733892
0.469794
0.172976
-0.642385
0.199742
0.100186
-0.0352339
-0.328305
-0.165252
-0.0763433
-0.415919
0.234484
0.181466
-0.0592846
0.0186983
0.0266259
-0.0453243
0.111028
0.11174
-0.231821
0.191818
0.0400363
0.0972836
-0.121106
-0.137549
0.343068
-0.205549
-0.0552509
-0.0755038
0.130752
0.107426
0.128868
0.508598
-0.304029
-0.155665
0.0782416
-0.0817931
0.0831063
0.00428475
-0.00470924
0.0506026
0.0917852
-0.0133253
-0.0784606
-0.125566
-0.136428
-0.132116
0.268539
0.350492
0.294203
0.247964
-0.0904826
-0.199416
-0.0172705
-0.199465
0.00540389
0.194157
0.314057
-0.109796
-0.121856
0.23161
0.0205322
-0.118057
0.511582
-0.520408
-0.292854
0.159482
-0.135196
0.246994
-0.00512693
0.011472
-0.00634541
-0.222683
0.0866095
0.0988838
-0.204455
0.113965
0.13089
-0.0324056
-0.475539
0.0197632
0.512149
-0.275952
-0.236238
-0.172604
-0.2415
0.413989
0.215779
-0.0213747
0.0665705
-0.316617
0.00247989
0.0102351
0.193879
-0.0822346
-0.111635
-0.00112333
-0.00400386
-0.630834
0.2607
0.370572
0.0554335
-0.0891757
0.0337417
0.000803896
-0.00195046
0.00114647
0.1438
-0.0412708
-0.0211384
-0.178225
0.166835
0.0360539
-0.00488309
0.144748
-0.0552135
0.132762
-0.0775481
-0.300883
0.141534
0.297984
-0.101745
0.074166
0.0140883
-0.012894
-0.201366
-0.149612
0.350949
-0.0757021
0.153962
0.0298592
-0.000448294
-0.0294103
-0.353959
0.272438
0.0814204
0.258816
0.174088
-0.432986
-0.256363
0.19409
-0.249471
0.129523
0.119923
-0.325094
0.289683
-0.039144
0.223739
-0.184646
-0.0877042
-0.0432597
-0.037323
0.112734
0.214832
-0.54713
0.229958
-0.0104309
0.000540614
-0.00802981
-0.0145498
0.0225808
0.185513
-0.178717
-0.179805
-0.395515
0.512866
0.206164
-0.1102
0.0298726
0.0889894
0.1049
-0.0506557
-0.042826
-0.243366
-0.174709
0.433357
0.189098
-0.359576
0.170598
-0.265018
-0.229168
0.106434
-0.219382
0.112976
-0.221892
0.0347186
-0.0224383
0.00884671
0.261911
-0.506738
0.244974
-0.593775
0.257761
0.335816
-0.167356
0.153579
0.0137742
0.150674
-0.351927
0.130621
-0.214046
0.0834755
-0.0616752
0.0855315
-0.0238573
0.165394
-0.268303
-0.0132787
-0.0278231
0.0411018
0.00139588
-0.00251921
-0.272828
0.136378
0.195591
0.0707139
0.0224937
-0.0932083
-0.00995497
0.0163598
-0.00640481
0.0559949
-0.148434
0.09244
0.198353
-0.162304
0.0380249
-0.0059463
0.0576987
-0.0517536
0.0950396
0.0727244
-0.16777
-0.156566
-0.144396
-0.557819
0.212028
-0.278954
0.0898796
-7.0691e-05
-0.212995
-0.0187929
0.0676158
0.0025093
-0.070127
-0.591578
0.261484
0.000898273
0.00862283
-0.0132317
0.106975
0.199797
-0.363754
0.250575
0.160473
-0.411051
-0.00290177
0.035541
0.373826
0.196171
0.35403
0.206924
-0.108444
-0.0985
0.00440902
0.000139068
-0.00454813
0.00433118
0.00234385
-0.0066749
0.0443168
-0.0504091
0.158193
-0.299103
0.200752
-0.141152
-0.0596092
-0.148714
0.0935021
-0.434548
-0.145462
0.167086
-0.468856
-0.584429
0.284255
0.088849
0.00103051
0.386582
0.238855
-0.625402
0.370655
-0.189535
0.144578
0.056168
-0.177723
-0.126926
-0.0521075
0.282993
0.260115
-0.542747
0.267418
-0.491837
0.224808
0.401206
-0.324549
-0.255016
0.158464
-0.0658544
-0.15358
0.540378
-0.189645
-0.153928
0.0728524
0.1118
-0.184657
-0.104883
-0.00417243
0.00390824
-0.0504297
0.0465211
0.405196
0.200745
-0.605564
-0.161012
0.107928
0.053083
0.00553737
-0.0135653
0.0270535
0.0307059
-0.127817
0.227322
0.00716947
-0.0125466
0.0053771
-0.00139899
-0.128302
-0.191373
-0.419188
-0.128851
-0.124142
0.220995
-0.108231
-0.112773
-0.00563072
-0.00218134
0.00781171
0.101061
-0.563898
0.282095
0.431199
-0.584827
-0.0154767
0.0859612
-0.141214
-0.149986
0.308116
0.291609
0.271676
-0.563012
0.174068
0.171266
-0.345283
0.0995959
0.0671356
0.233581
-0.551106
0.00522093
0.546045
0.115945
-0.215147
-0.139972
-0.296004
-0.288191
-0.175943
0.374927
-0.198851
-0.0378744
-0.0239059
-0.212753
-0.163813
-0.259513
0.112961
0.395483
-0.279906
0.120237
0.123152
-0.0193364
-0.103821
0.534737
0.228944
-0.113865
-0.115122
-0.324318
0.438497
-0.114192
-0.228148
0.122558
-0.0581704
0.0412524
0.0169179
0.304812
0.292203
-0.058604
0.0625116
-0.0752807
0.214104
0.00574611
0.00199
-0.0077358
-0.260824
-0.361602
0.143115
-0.0998569
0.215858
-0.0907404
-0.0702722
0.0842925
-0.0116285
-0.198505
-0.0234169
0.0837263
0.00805826
-0.0924291
-0.0746037
0.167041
-0.255947
0.101696
0.154261
-0.0103651
0.554219
0.0399501
0.103849
0.17515
0.289802
-0.464768
0.273369
-0.61854
-0.408151
0.215564
0.192746
0.614846
0.0644297
0.1106
-0.175043
0.383603
0.213412
0.250101
0.0192512
-0.0809288
0.102588
-0.191083
-0.153703
-0.433287
-0.0492581
0.138228
-0.0889809
0.145354
-0.256417
0.0332762
-0.155649
0.251491
-0.0958091
-0.0574782
0.0246297
0.172861
0.192441
-0.11711
0.141958
-0.00411638
-0.0169871
0.0211034
0.112024
-0.241433
0.129463
-0.000141258
0.00624235
0.336566
-0.599384
-0.0557527
0.196985
-0.141197
0.496402
-0.568847
0.0726894
0.155125
-0.287244
-0.146931
0.316175
0.141381
-0.0538167
0.0275431
-0.107683
0.0801369
-0.23826
0.127956
0.110316
-0.00926564
-0.282904
-0.325604
0.608552
-0.0611162
0.0478374
-0.271991
0.10921
0.163487
0.195809
-0.359176
-0.0902314
-0.0666377
-0.0273948
0.159983
-0.132578
-0.0045624
0.00595828
-0.14768
0.398283
-0.105615
0.101349
-0.0985377
-0.00634587
0.105847
-0.031655
0.0828433
-0.2922
0.547218
-0.40632
-0.140607
-0.300188
-0.0914094
0.0634514
0.0279575
-0.407007
0.498708
-0.0921216
-0.400509
0.302719
0.233024
0.189793
-0.42256
0.157543
-0.460696
0.21992
-0.405897
0.259849
0.275866
-0.124272
0.21181
0.185021
-0.396597
0.476649
-0.250998
0.123221
0.0842569
0.122648
0.0959694
-0.14524
0.399865
-0.21562
-0.000534338
0.00628039
0.315845
-0.138178
-0.177666
-0.0407973
0.0962303
0.130901
-0.0278385
-0.00805029
0.00508564
0.00296467
-0.0363896
-0.111352
0.147725
0.17491
-0.230644
0.00970065
-0.00464617
-0.0050545
0.0851174
-0.189085
-0.0695809
0.0709158
-0.000602813
-0.0703118
0.168631
-0.0690436
0.565432
-0.467263
-0.130004
-0.0967703
0.226743
0.0143186
-0.347938
0.0916059
0.00129274
0.00167113
-0.00296394
0.284551
-0.292587
0.00807644
0.0727458
-0.0540476
0.0233445
-0.13584
-0.120633
-0.148031
-0.0087062
-0.00210702
0.142391
-0.1939
0.373154
0.507748
-0.0374847
-0.105747
-0.132794
0.431953
0.115578
0.161765
-0.47426
-0.0759004
-0.0611484
0.120345
0.12603
0.171504
-0.495801
-0.188526
-0.159386
-0.11982
-0.131198
0.0483847
0.0706984
0.119381
-0.235569
0.169666
0.398204
-0.568029
0.16163
-0.236915
-0.113868
-0.0573861
0.171252
0.109913
0.145658
-0.213556
0.471616
-0.258051
-0.00277717
0.00406984
0.183582
-0.298766
0.115142
-0.0114542
0.24834
-0.0571259
-0.112032
0.20903
-0.178841
-0.13647
-0.00691732
0.00791753
0.0820287
-0.0602143
-0.0218024
0.00816863
-0.00614503
0.173252
-0.316967
0.143641
0.127382
0.10152
0.13321
-0.108122
-0.0250876
-0.174962
-0.299503
0.15386
0.58746
-0.132535
-0.106771
0.23933
0.351294
-0.476722
0.45409
-0.170706
-0.134571
-0.0750584
-0.0125604
0.0111779
-0.0642875
0.0531092
0.494238
-0.266243
-0.22801
0.309378
-0.130979
-0.178455
0.266858
-0.486009
0.0698283
-0.263899
0.119868
-0.257463
-0.230325
0.488241
0.122611
-0.127501
-0.114076
0.054104
-0.259548
0.205438
-0.391025
0.219382
0.171797
-0.233204
-0.180086
0.413451
-0.29367
-0.218997
0.51303
-0.145431
-0.0956336
0.241069
0.000795481
0.00361348
0.238826
-0.120163
0.186779
0.389495
0.0919584
-0.0141125
0.00999641
-0.23166
-0.184224
0.218278
-0.511599
0.383348
-0.230672
0.0765641
0.00716126
-0.111326
0.558435
-0.551056
-0.00732229
-0.359646
-0.27082
-0.140878
0.11348
0.0902854
-0.00393383
-0.0863522
0.564033
-0.307198
-0.256937
0.627625
-0.356305
0.199794
-0.106275
-0.0935545
-0.15158
-0.139466
0.291146
-0.234147
0.13032
0.10382
-0.217071
0.158246
0.0587973
-0.130199
0.07462
-0.163491
0.469009
-0.229356
-0.239721
-0.0389588
-0.138316
0.177262
-0.0162365
0.0694172
-0.0531812
0.151522
-0.0304247
0.0157394
-0.140163
0.124418
0.101753
-0.207438
0.105649
0.10721
0.288167
-0.606428
0.161845
0.155665
-0.317602
-0.103614
-0.124486
0.21264
-0.123643
0.157251
0.160817
-0.31822
-0.188743
0.335491
-0.146725
0.583265
-0.281588
-0.301216
0.281632
-0.146563
-0.00605837
-0.0974801
0.080918
0.0165617
-0.212852
0.16083
0.0520345
0.146195
-0.266837
0.308008
0.0998361
-0.172753
0.0729105
0.155309
-0.302302
-0.153723
0.207776
0.0560788
-0.134637
0.0785595
0.101535
-0.213609
0.154947
-0.294705
-0.377127
-0.0445193
-0.0468904
-0.0105696
-0.0895779
0.0259259
0.442987
-0.46843
0.142542
-0.270649
0.124058
-0.151541
0.348691
-0.159506
0.502122
-0.26598
-0.23586
0.351672
-0.0751858
0.199244
-0.0622659
0.195199
-0.13299
-0.157041
-0.0771158
0.003815
-0.000873348
-0.00294167
-0.139596
-0.136523
-0.309767
-0.0135961
0.019135
-0.261931
-0.214469
0.476302
-0.0658205
0.0769979
-0.532106
-0.0189376
0.551595
0.118824
0.0881239
0.0446385
0.292872
-0.275671
-0.0172695
0.398595
0.157895
-0.556507
-0.311125
0.161072
0.257396
-0.123735
-0.133666
0.085645
-0.00908178
0.15512
-0.276922
0.568435
0.00743504
-0.0634472
0.0560115
0.0551551
0.0974819
0.0905383
-0.15692
0.000503004
-0.00143237
-0.0343141
0.153094
0.663513
-0.312958
0.0967247
-0.12233
0.163268
-0.318583
0.155348
0.014055
0.0745529
-0.0886079
-0.234026
-0.145362
0.280424
0.520266
0.084617
-0.00529796
-0.00608598
0.315199
0.348329
0.0492986
-0.266407
0.239383
0.124605
0.109335
0.0816753
0.105009
-0.158406
0.0969417
-0.260122
0.0425895
0.217515
-0.292186
0.107299
-0.1437
-0.19482
0.0921704
0.102621
-0.177646
0.427907
-0.250202
0.163648
-0.21814
0.0544881
-0.346289
0.166669
0.0215437
-0.0320571
0.00501972
-0.0149314
-0.392548
0.169786
0.00384207
-0.263444
-0.299646
-0.0688086
-0.144032
0.321261
-0.56223
0.240842
0.000889414
0.00292557
-0.217854
-0.348649
0.135905
0.125594
0.432819
0.101665
-0.247101
0.113281
-0.246009
0.132756
-0.501112
-0.151724
0.652977
-0.133409
-0.257458
0.179392
-0.307329
-0.10745
-0.0548539
-0.0753217
0.16107
-0.08575
-0.137434
0.291839
-0.154345
0.23249
-0.1204
-0.247624
0.141913
-0.150289
0.0727408
0.303539
0.148807
-0.13315
-0.130293
-0.144017
0.2981
0.206138
-0.0637535
0.133273
-0.226754
0.0935004
0.0045702
-0.505591
-0.503985
0.242339
0.0905149
-0.170438
0.0799175
-0.348707
0.1729
0.0864832
-0.101726
-0.0828494
0.231331
-0.006694
0.0983317
-0.091638
0.142042
0.120918
-0.262951
0.467342
0.140535
-0.329315
0.0909222
-0.206634
0.115729
-0.112171
-0.0551885
0.187248
-0.420234
0.128944
-0.101181
-0.07747
0.17865
-0.103793
-0.394477
0.124687
-0.556168
-0.0311328
0.587359
0.0113823
-0.0764332
0.0703038
0.00612937
-0.216271
0.0960735
0.120189
0.00220336
0.0118849
-0.100469
-0.0812157
0.18169
-0.104774
0.211237
-0.156393
0.0425225
-0.0601385
-0.0885734
-0.0797319
0.210411
0.00280236
-0.232388
0.099867
-0.061965
0.174348
-0.112391
0.135314
-0.286785
0.159805
-0.222128
-0.193662
0.344218
0.142731
0.0117561
-0.196016
-0.181547
0.37591
-0.194373
-0.0470548
0.0411076
0.235827
0.0800243
0.0337476
0.259056
-0.0554609
0.0971876
-0.0417257
-0.372163
0.183682
-0.106768
0.209191
-0.102428
-0.0749724
-0.216012
0.0889951
0.0297928
0.254787
-0.022347
-0.078338
0.100682
-0.2614
0.108595
0.152829
-0.265892
-0.260391
0.526336
-0.0839937
0.202972
0.00391209
-0.00224104
-0.0858332
0.0953964
-0.00956819
-0.205511
-0.137762
-0.0946112
-0.209587
0.506851
-0.296936
-0.37317
0.324008
0.0491993
-0.013084
0.108877
0.227144
0.24109
-0.50752
0.266506
-0.187985
0.0817196
0.106256
0.145038
0.146843
-0.291885
0.0076656
-0.173773
0.166124
-0.190693
0.354235
0.46941
-0.0757013
0.064152
0.0115558
-0.138116
-0.161305
-0.299857
0.360732
0.193893
-0.0350487
-0.158845
-0.142159
0.31536
0.397898
-0.116245
0.437144
0.0921271
-0.0893648
-0.145509
0.261686
-0.116221
-0.263172
-0.330797
0.42244
-0.208134
0.0925212
0.0838704
-0.17639
-0.125591
-0.130347
0.10559
0.110273
-0.215894
-0.153052
-0.153772
0.306865
-0.0904289
-0.0580032
-0.110387
0.311555
-0.154439
-0.25117
0.131596
0.119575
0.44019
-0.172519
-0.245815
0.486833
-0.00719495
-0.0682748
-0.0998556
0.168125
-0.104676
-0.0901732
0.0696484
0.151338
0.0644459
0.10174
-0.166192
-0.165493
0.0643079
0.158297
-0.0749661
-0.0833426
-0.0836436
-0.0720287
0.0705354
-0.198377
0.0358259
-0.00596505
0.168234
-0.317768
0.143679
0.149102
-0.29287
-0.295606
0.520354
-0.516428
-0.0397273
-0.0511206
0.154661
-0.103549
-0.118844
-0.41272
-0.053676
0.00365796
0.00693301
-0.010591
0.127296
-0.0935106
-0.0337864
0.00301761
0.395585
0.0420488
0.151847
0.155391
-0.0582234
-0.0971671
-0.212946
-0.235237
0.448144
0.0757686
-0.0732608
-0.0288598
0.12085
-0.0919899
0.041961
-0.0842249
0.121862
0.0907859
0.00135076
0.00357191
-0.00492272
-0.0689366
-0.0965609
0.111393
-0.0956496
0.00179135
-0.00742212
0.186071
-0.0834889
0.142451
-0.298101
0.147988
-0.0462656
-0.187895
0.367283
-0.179339
0.00387792
0.000453451
0.0959452
-0.234042
0.138092
0.0704415
-0.150742
0.0802961
0.391832
-0.221762
-0.170088
0.0913172
0.398381
0.096974
-0.494949
-0.000555219
-0.0102663
0.0108214
0.00850625
-0.00462822
0.320298
0.263286
-0.583331
-0.00426244
0.00815542
-0.109768
0.0896062
0.020161
-0.106562
-0.0946173
0.201187
-0.105628
0.182793
-0.0771759
0.134477
-0.448707
0.14884
0.00112786
0.000222809
0.290068
-0.134789
-0.02437
0.0950829
-0.00622698
0.00988494
0.231117
0.34239
-0.573268
-0.0324818
-0.227682
0.299124
0.231979
0.112769
0.0625945
-0.142522
0.0799139
0.0882562
0.0702012
-0.56753
0.0352799
0.363361
-0.0615446
-0.156595
-0.14302
-0.133126
0.276134
0.00445787
0.492211
-0.199836
0.081641
0.11817
-0.314569
0.246296
-0.467743
0.202651
-0.141033
0.0115574
0.125695
-0.137259
0.464956
0.0848969
-0.0139791
0.305596
0.383445
0.210556
-0.593771
0.0923641
0.113766
-0.0404041
0.102256
-0.0618522
-0.243701
0.262437
-0.231458
0.421449
-0.108328
0.128859
0.109723
-0.0732551
-0.0364691
-0.326332
0.18389
0.142521
-0.0156774
0.177311
0.0942599
-0.104831
-0.0988328
-0.00709109
-0.000828516
0.00791958
0.227941
0.100805
-0.174863
0.0740525
-0.00706653
-0.000163928
0.00668875
-0.0408376
0.0341484
0.326403
-0.542593
0.216449
-0.228602
0.239223
-0.0876592
0.213558
0.0803173
-0.177067
0.0967406
0.0344304
0.119144
0.242355
0.00383151
-0.00438026
0.00054863
-0.0785043
-0.109491
0.0814798
-0.0955594
0.151158
0.133618
-0.299624
0.518305
0.00408067
-0.103196
0.225323
-0.122097
0.490998
0.326395
-0.582014
0.255767
-0.000513436
-0.000782839
0.00129618
-0.224698
-0.0681424
-0.299438
0.140921
0.205513
0.130002
0.120225
0.137167
0.551792
-0.0784637
0.148898
0.118615
-0.264185
0.0994176
0.14002
-0.239385
0.224499
0.232986
-0.457243
-0.0947489
-0.0532061
0.0588777
-0.117397
0.0414957
0.162598
-0.100022
0.0137983
-0.0125062
0.0911191
0.0608794
-0.152004
-0.424238
0.161857
-0.0772045
-0.295928