/*--------------------------------*- C++ -*----------------------------------*\
| =========                 |                                                 |
| \\      /  F ield         | OpenFOAM: The Open Source CFD Toolbox           |
|  \\    /   O peration     | Version:  v2012                                 |
|   \\  /    A nd           | Website:  www.openfoam.com                      |
|    \\/     M anipulation  |                                                 |
\*---------------------------------------------------------------------------*/
FoamFile
{
    version     2.0;
    format      ascii;
    class       volVectorField;
    location    "750";
    object      U_0;
}
// * * * * * * * * * * * * * * * * * * * * * * * * * * * * * * * * * * * * * //

dimensions      [0 1 -1 0 0 0 0];


internalField   nonuniform List<vector> 
10042
(
(0.996653 0.0117034 1.42905e-23)
(0.998608 0.00546798 0)
(1.03629 0.012879 3.70828e-21)
(1.00857 3.7578e-05 0)
(0.695406 0.0942756 2.84314e-20)
(0.999227 0.0050511 -1.63532e-20)
(0.750031 -0.00597663 0)
(1.33143 -0.00418692 -7.28351e-20)
(1.02982 0.0130097 -1.02012e-21)
(1.00182 0.00519617 -2.61081e-21)
(-0.251462 0.00532424 5.64129e-20)
(1.01316 3.92056e-05 -1.43816e-21)
(1.01547 0.00203571 -2.0034e-21)
(1.01558 0.000778108 2.70429e-23)
(0.961273 0.0552617 2.19975e-20)
(0.999739 0.00635598 -1.1401e-20)
(0.999704 0.00668768 1.76383e-20)
(1.00003 0.000353157 3.76768e-23)
(0.996787 0.0113312 -1.89796e-20)
(0.685042 0.289903 -3.01419e-20)
(1.00433 0.00551556 0)
(1.27292 -0.0669726 -3.97114e-20)
(1.01459 0.000424312 2.51626e-22)
(1.01418 0.00434483 4.68124e-21)
(0.998673 0.00516096 -8.21372e-21)
(1.09627 0.0147724 -2.24696e-20)
(0.998879 0.00173008 5.87103e-21)
(0.996298 0.0558531 9.5545e-21)
(1.02167 0.0219742 2.49818e-21)
(1.00382 0.049542 -6.18941e-21)
(0.996748 0.00431384 1.55196e-20)
(-0.149935 0.0264658 8.13824e-21)
(1.00175 0.00489721 -4.45176e-21)
(1.02128 0.0442278 2.52648e-21)
(1.07158 0.0544113 -1.58175e-21)
(1.01381 0.00451449 -4.97107e-21)
(1.09216 0.0191526 1.85331e-20)
(1.10506 -0.013484 0)
(1.0135 0.00422043 4.68286e-21)
(1.00796 0.121382 0)
(0.656264 0.282967 4.13051e-20)
(0.969779 0.0546276 -1.93633e-20)
(0.725842 -0.00457555 0)
(0.99366 0.0326314 -1.23053e-20)
(0.698671 0.0954185 -1.41395e-19)
(1.16112 -0.0279748 5.62188e-20)
(0.977661 0.0373551 -1.58304e-20)
(1.18279 -0.0982434 -3.95346e-20)
(1.08542 0.0325329 0)
(1.09914 -0.0777266 -3.13272e-21)
(1.00042 0.00049487 -1.03716e-20)
(1.03652 -0.00810646 -3.24639e-21)
(0.960283 0.0436062 -2.6298e-20)
(1.04429 -0.0105208 -4.17443e-21)
(1.09203 0.0221544 -1.93875e-20)
(0.999274 0.00527751 1.5638e-20)
(1.02254 0.0219261 -8.11897e-22)
(0.978231 0.0360502 -1.21173e-20)
(1.02192 0.04276 3.9207e-21)
(0.962665 0.0437495 3.31394e-20)
(0.997712 0.00466368 -1.0736e-21)
(0.997251 0.00645389 1.49926e-20)
(1.07257 0.0577046 6.92964e-21)
(1.03537 0.0132797 -2.30591e-21)
(0.966534 0.0174578 -1.63794e-20)
(1.02479 0.0418223 0)
(0.974433 0.0128212 -1.22282e-20)
(0.734968 0.201803 -1.89066e-20)
(-0.134971 -0.00180985 0)
(1.00131 0.0271416 -4.14626e-21)
(1.04309 -0.0110363 -8.22448e-21)
(0.639641 0.293966 0)
(0.992383 0.0324087 0)
(0.865215 0.0706785 0)
(0.975367 0.00926083 -1.06618e-20)
(1.0145 0.00458973 -5.00775e-21)
(0.580427 0.0731248 0)
(0.996632 0.0105186 0)
(0.903954 0.0920407 -3.47035e-20)
(0.6182 0.0182082 -6.82191e-20)
(1.08237 0.0316768 0)
(0.889468 0.12691 8.97936e-20)
(1.00834 0.0363513 0)
(0.972407 0.0477952 4.91816e-21)
(0.974181 0.0117253 0)
(1.00007 0.00140252 0)
(0.997269 0.0133879 0)
(1.16617 0.268544 5.49315e-20)
(0.986749 0.0210662 0)
(0.997699 0.013455 0)
(1.03428 0.0315877 -4.4312e-22)
(0.911352 0.134749 -1.07198e-19)
(0.997356 0.0578665 6.72219e-22)
(1.0361 -0.00725953 2.41771e-21)
(1.00263 0.0480056 1.30971e-20)
(1.01639 0.0293056 0)
(0.999686 0.0100569 -9.15795e-21)
(1.01063 0.0283469 0)
(1.00794 0.117512 0)
(1.02677 0.0193805 0)
(0.999993 6.97568e-05 6.58681e-21)
(1.17743 0.203923 0)
(1.32294 -0.0198948 0)
(1.00009 0.00154134 -5.5493e-22)
(0.98993 0.0515651 0)
(1.04881 0.207915 -5.44108e-21)
(0.994231 0.0108798 -1.0035e-22)
(0.999767 0.0104107 9.47692e-21)
(1.00418 0.00521234 3.32574e-21)
(1.02106 0.000490176 0)
(1.0099 0.00120797 4.82943e-21)
(1.0049 0.021368 -5.30554e-21)
(1.04116 0.0808029 -1.75351e-21)
(-0.163555 0.00328962 1.38806e-19)
(0.967559 0.0164562 -1.4649e-20)
(1.00219 0.0196132 5.7794e-21)
(0.99165 0.00476417 1.35159e-20)
(0.99648 0.0109023 2.39213e-20)
(1.01697 0.0284835 8.9366e-22)
(-0.0224402 0.0499827 -4.36655e-20)
(0.986909 0.0201213 1.5113e-20)
(1.34884 -0.0129381 1.38139e-19)
(0.997109 0.0359016 -1.40323e-20)
(0.994214 0.00303024 1.49117e-20)
(1.17711 0.194982 9.58977e-21)
(1.00749 0.037032 0)
(1.34533 0.00290204 0)
(1.08648 0.0505263 -3.02764e-20)
(1.04111 0.204079 -2.3811e-21)
(0.99828 0.0143077 6.23354e-23)
(0.901305 0.0978876 -3.845e-20)
(0.980376 0.0203733 -1.64566e-20)
(-0.176734 0.0292153 8.84149e-20)
(1.26687 0.0290435 -9.69882e-20)
(1.02594 0.0196938 -5.4224e-23)
(1.11273 0.179163 0)
(-0.121388 0.0408039 -1.93592e-19)
(1.03441 0.0331006 6.62074e-22)
(1.19153 -0.0968859 0)
(1.17391 0.277209 -1.31676e-19)
(0.983773 0.0525253 0)
(0.99118 0.00470473 -2.34403e-20)
(0.984794 0.0463565 5.91069e-21)
(1.2228 0.166636 0)
(1.03404 -0.00311262 -7.02767e-21)
(1.0046 0.020818 5.52841e-21)
(1.1358 0.145906 -4.52348e-20)
(1.02512 0.000669957 0)
(1.01063 0.0294054 1.63519e-21)
(1.0145 0.087492 8.51021e-22)
(1.03186 0.0114992 0)
(1.00003 0.000139221 0)
(0.223711 0.0883591 4.09738e-20)
(-0.0606453 0.0461316 -4.2565e-20)
(0.99955 0.00113073 -1.29484e-20)
(1.01539 0.00177311 4.04178e-21)
(0.954021 0.0119373 -1.35642e-21)
(0.996975 0.00653146 -1.28117e-20)
(1.11086 0.186485 0)
(-0.0957369 0.0298923 0)
(-0.248131 -0.00425107 -1.0514e-19)
(1.23849 0.0466916 0)
(0.995785 0.00519882 7.09892e-21)
(1.03151 0.0123443 -3.32285e-21)
(1.01217 0.0391148 1.00501e-21)
(0.981116 0.0192912 1.50236e-20)
(0.953659 0.256131 0)
(0.257611 0.180454 -1.78711e-19)
(-0.166252 0.0312042 0)
(-0.0235038 0.0470834 -7.71065e-20)
(1.04391 -0.00561315 -6.01244e-21)
(1.00541 0.0117501 0)
(1.09464 0.176873 1.26462e-19)
(0.687971 0.34328 0)
(0.911467 0.16078 0)
(0.768184 -0.0400046 -1.09307e-19)
(-0.207007 0.144348 5.32181e-20)
(0.995269 0.03437 -1.40235e-20)
(0.720637 0.221083 1.09055e-19)
(1.06685 0.106216 0)
(0.951595 0.0126305 -1.97867e-20)
(-0.133337 0.0250425 1.36159e-19)
(0.973326 0.0154198 1.03321e-20)
(1.0839 0.0520542 0)
(0.96971 0.0517722 7.40273e-22)
(0.00612728 0.0530402 -7.79063e-20)
(1.2708 0.0649885 0)
(1.02207 0.0371558 -6.6245e-21)
(-0.22193 -0.0234443 -5.20994e-20)
(1.05829 0.0395742 -5.32131e-21)
(0.748965 0.756016 0)
(0.98278 0.0458284 -1.31024e-20)
(0.224302 0.0904483 3.58868e-20)
(1.2753 0.208482 -9.67479e-20)
(1.2196 0.00650327 0)
(1.37441 0.160223 9.37495e-20)
(1.07564 0.0228685 -2.5711e-20)
(0.995103 0.00991617 -1.518e-20)
(1.01508 0.00165886 3.70353e-23)
(1.0317 0.0611528 1.00753e-21)
(0.889471 0.143206 0)
(1.02314 0.0376094 -7.7211e-22)
(1.00636 0.0215009 4.93753e-21)
(0.711672 0.366086 8.57224e-22)
(0.973049 0.0141385 1.08922e-20)
(1.01827 0.0122465 -5.44707e-22)
(0.826274 0.793973 0)
(0.999309 0.00181123 -1.29978e-20)
(1.00003 0.000406433 0)
(0.999892 0.000636248 -2.45401e-20)
(1.34479 0.16047 0)
(1.01502 0.00024778 0)
(0.94865 0.244859 -7.25236e-21)
(1.04126 0.439176 -4.69534e-20)
(0.955891 0.0137035 -1.87564e-20)
(1.27478 0.0693975 5.17107e-21)
(0.978696 0.00805212 0)
(1.0005 0.00749555 7.13619e-21)
(1.16248 0.128912 -2.31701e-20)
(1.01014 0.0140142 -5.20305e-21)
(1.04465 0.0809823 0)
(0.953296 0.0201876 4.0872e-20)
(1.13649 0.396652 0)
(1.10809 -0.0160613 -9.08718e-21)
(0.945622 0.0706351 1.14017e-20)
(1.09974 0.0096416 2.75588e-20)
(1.2891 0.015765 7.27855e-20)
(1.00339 0.0202504 5.53127e-21)
(1.25176 0.0742607 0)
(1.04358 -0.0129892 9.43262e-21)
(1.03042 0.0122808 1.54748e-21)
(0.822972 0.376135 -3.25815e-21)
(1.005 0.0113883 6.57992e-21)
(1.0425 -0.0134859 -9.09928e-21)
(1.03706 0.0135881 4.313e-21)
(1.01724 0.0894787 -7.48244e-21)
(1.01677 0.0141631 -2.85372e-21)
(1.01595 0.000452153 -1.28287e-21)
(1.05773 0.0180343 -7.33433e-21)
(1.05403 -0.0278279 0)
(0.99571 0.00491154 1.99401e-20)
(0.995752 0.0358335 1.47084e-20)
(1.01196 0.0376235 0)
(1.04015 0.0841301 1.92266e-21)
(1.00252 0.0189805 0)
(0.996965 0.00446184 -9.96441e-21)
(1.01293 0.000974278 2.62323e-21)
(0.99062 0.0538094 1.11769e-20)
(1.04383 -0.00813052 -4.14215e-21)
(1.00002 0.000263534 6.16929e-21)
(1.01495 0.0010401 2.168e-21)
(1.00184 0.0262538 -7.53399e-21)
(0.994179 0.0787519 1.16797e-20)
(1.14968 0.408195 0)
(1.23769 0.0524243 4.7206e-20)
(-0.219272 -0.0185505 0)
(0.903764 0.165084 -1.20657e-20)
(0.927286 0.161997 1.59676e-20)
(0.960702 0.0582049 0)
(1.17376 -0.0278865 6.38341e-20)
(0.929623 -0.053661 1.03788e-19)
(1.05571 0.0179994 1.37685e-20)
(0.994367 0.0104648 -7.953e-21)
(1.01578 0.000474393 0)
(1.02954 0.0606416 -4.91067e-21)
(1.01638 0.0136204 1.93113e-21)
(1.27763 -0.0722764 -9.8442e-21)
(1.05447 -0.00247809 -4.23537e-21)
(0.997798 0.0141687 -7.2521e-21)
(0.999931 0.000552806 2.24832e-20)
(0.879318 0.144165 6.03973e-20)
(1.04464 -0.00893872 1.35991e-20)
(1.05329 0.423796 4.9637e-20)
(0.920188 0.16639 0)
(1.20149 0.240756 6.60153e-20)
(1.05911 0.0415978 9.53815e-21)
(1.05209 -0.0289984 1.81619e-20)
(1.01535 0.0132108 -2.80352e-21)
(1.07119 -0.000186398 1.24452e-20)
(1.03493 -0.0030623 3.37378e-21)
(1.07035 0.109283 8.12088e-21)
(0.991067 0.0215701 1.42218e-20)
(1.096 0.0180999 -3.40184e-20)
(-0.136759 0.0332219 0)
(1.01775 0.011971 0)
(1.03316 0.0160134 -1.91788e-21)
(0.965149 -0.0553097 -1.02407e-19)
(1.16659 -0.0257631 -6.48912e-20)
(1.02183 0.0359778 3.25133e-21)
(0.997459 0.00432747 -9.33169e-21)
(0.995013 0.0756934 -1.29498e-20)
(0.781061 -0.0533045 0)
(1.163 0.0580017 0)
(1.22911 0.163557 3.68313e-20)
(1.00035 0.000400408 7.1158e-21)
(1.0151 0.00140394 -3.10744e-21)
(1.00376 0.0208909 0)
(1.03014 0.0137607 1.33279e-21)
(1.28842 0.0099748 -1.14095e-19)
(0.995101 0.017815 -1.84537e-20)
(0.997725 0.00496776 3.14741e-22)
(1.00515 0.0130016 5.52814e-21)
(0.978647 0.00685827 0)
(1.10156 -0.0282551 -2.89943e-20)
(0.969044 0.0650063 2.86419e-20)
(1.09862 0.240341 -1.11717e-20)
(0.498947 0.0164735 0)
(0.964079 0.0411029 -3.47137e-20)
(1.075 0.0464479 0)
(1.00237 0.017625 0)
(1.06942 0.000292744 -5.85828e-22)
(0.99871 0.00196152 0)
(-0.255284 0.0258739 1.41056e-19)
(1.18499 0.181369 -2.35065e-20)
(1.33885 0.232512 -4.01219e-20)
(-0.187439 0.17791 5.95689e-20)
(1.01526 0.00467691 1.73586e-21)
(1.0547 -0.00364332 9.21496e-21)
(1.00177 0.0280864 -4.54508e-21)
(0.979551 0.0720854 -3.75529e-20)
(1.09982 0.0132363 2.65619e-20)
(1.00002 0.000792591 8.36024e-21)
(1.05722 0.121408 6.75044e-21)
(1.01024 0.00125642 -7.8996e-21)
(1.0161 0.000269365 0)
(0.994018 0.0342613 0)
(1.1036 0.24849 0)
(0.99999 0.000176534 -2.87911e-22)
(1.05564 0.0390085 -1.32958e-21)
(0.981411 0.0170422 -1.81118e-20)
(0.97135 0.063337 -3.47299e-20)
(-0.189123 0.0556096 4.11392e-20)
(1.00209 0.0182864 0)
(0.999454 0.00132911 7.38618e-21)
(1.00263 0.00174164 6.30689e-21)
(1.03464 0.0122753 0)
(1.07868 0.154107 -7.27202e-21)
(1.22235 0.00254315 -2.04838e-20)
(0.936095 0.166181 -5.72475e-20)
(1.33794 0.0630232 0)
(1.10402 -0.0253044 0)
(1.08022 0.0507875 0)
(0.980585 0.0179063 9.51803e-24)
(1.01575 0.000723555 -8.31336e-22)
(1.03868 0.0296392 0)
(1.00002 0.000290478 -7.28444e-21)
(1.2973 0.0565532 0)
(0.991423 0.022217 -2.2611e-20)
(1.02385 0.0430179 -1.67234e-21)
(1.1609 -0.143955 6.17624e-20)
(1.00573 0.0218881 -5.21939e-21)
(0.983805 0.0794087 4.76307e-21)
(0.972205 0.0504625 1.38056e-20)
(1.17046 -0.147247 -3.49021e-20)
(1.03713 0.00497 0)
(0.947177 0.067912 1.70142e-20)
(1.04126 0.196125 6.7519e-21)
(1.05239 0.120727 3.95208e-21)
(1.0347 0.0578544 2.42563e-23)
(0.994152 0.00905524 -6.87478e-21)
(1.29065 0.0591625 0)
(1.14158 0.144755 6.84282e-20)
(1.04572 0.00810833 0)
(1.07989 0.147704 2.0245e-20)
(1.00146 0.00868726 1.70651e-24)
(1.00496 0.0109375 -1.20356e-20)
(1.00166 0.00861075 0)
(0.980715 0.0796725 2.78091e-20)
(1.29848 0.235183 -1.03123e-19)
(1.05432 -0.0160434 3.97944e-22)
(1.00002 0.00067734 0)
(0.966288 0.0413192 0)
(1 7.39834e-05 -7.34485e-21)
(0.999986 0.000365671 3.13385e-22)
(0.702502 0.308635 0)
(0.994885 0.00954046 1.51418e-20)
(1.02307 0.00773895 -1.71901e-22)
(-0.0991998 0.0420378 1.39201e-19)
(1.0063 0.00754864 1.09967e-20)
(1.21749 -0.0289457 0)
(1.30145 0.0509912 0)
(0.865407 0.0783199 -6.91142e-21)
(0.686822 -0.0364869 6.55186e-23)
(-0.206904 -0.0162548 7.88479e-20)
(1.00874 0.10737 -6.7009e-21)
(0.800316 0.372728 4.07297e-20)
(0.999264 0.00154641 -1.27597e-20)
(1.1054 -0.0795068 0)
(0.999999 9.84609e-05 8.09082e-21)
(0.97753 0.0327688 3.24229e-21)
(1.22709 -0.212544 -9.60146e-20)
(1.00042 0.00508621 -1.06719e-20)
(0.977171 0.0740971 2.08652e-20)
(0.591318 0.956186 -1.06517e-19)
(1.01413 0.000393483 -6.59327e-23)
(1.00421 0.00575569 -4.50286e-21)
(0.779441 0.123646 3.33186e-20)
(0.785585 0.693143 -4.25592e-22)
(1.02411 0.0402543 1.83021e-21)
(1.02473 0.00132814 -1.05306e-21)
(-0.150339 0.0284622 0)
(1.18585 0.19012 3.47989e-20)
(1.00546 0.0122471 -3.39101e-21)
(0.729941 0.186285 0)
(-0.106168 0.00896555 0)
(1.01061 0.0142446 3.16727e-21)
(1.00001 0.000462099 0)
(1.01969 0.00928192 -3.14814e-21)
(0.999513 0.015974 -7.01545e-21)
(1.0161 0.00034366 0)
(1.0176 0.0112375 8.97882e-23)
(1.20607 0.0488556 0)
(1.31373 -0.0126333 0)
(0.976906 0.0342 1.04515e-20)
(0.680354 0.0383153 0)
(1.01542 0.000674703 -9.40125e-22)
(0.995202 0.0169734 8.25734e-21)
(1.26433 0.267675 3.13845e-20)
(1.04064 0.00875879 -1.01621e-21)
(1.22385 -0.0229365 0)
(1.16904 0.0583562 -4.35582e-20)
(0.970409 0.0465488 -2.35081e-20)
(1.02365 0.00559965 0)
(1.02424 0.00152048 5.82219e-22)
(1.05992 0.345397 1.37092e-20)
(1.04476 -0.00655978 9.2264e-21)
(1.00431 0.109003 2.06242e-20)
(0.99651 0.048369 9.15841e-21)
(-0.235833 0.00206171 -1.09136e-19)
(0.958046 0.0128167 1.76447e-20)
(1.34998 0.235908 1.51215e-19)
(0.964363 0.0545673 -4.13112e-20)
(1.00294 0.00729818 -5.83286e-21)
(1.00259 0.0202875 -6.30894e-21)
(1.20979 0.36451 -5.94058e-20)
(1.0025 0.00713661 -4.88725e-21)
(0.912908 0.0282912 4.64697e-20)
(0.998009 0.0213122 -1.25624e-21)
(1.03632 0.00526183 -9.99998e-22)
(-0.123278 0.0331585 3.32667e-20)
(1.07616 0.0279481 6.4414e-21)
(0.991316 0.00611356 -2.29505e-20)
(1.01045 0.000772796 0)
(-0.188284 0.0356261 -1.16428e-19)
(0.998855 0.0151437 0)
(1.07805 0.0294293 0)
(1.02521 0.0621908 2.15359e-21)
(1.01576 0.0136931 4.26198e-21)
(0.862456 0.0545379 8.1503e-20)
(0.662432 -0.0220285 0)
(1.0049 0.00669218 -6.39086e-23)
(0.969434 0.0166106 0)
(1.05627 -0.0161618 -1.01605e-20)
(1.01487 0.0012307 -5.84563e-22)
(0.999877 0.00718165 0)
(0.993235 0.00199768 2.22068e-22)
(-0.184268 0.0343772 -6.67585e-20)
(0.994627 0.00187393 -1.21584e-20)
(1.0154 0.000324726 8.79892e-22)
(0.973715 0.112982 -1.77388e-20)
(1.33622 -0.0241662 -6.32073e-20)
(1.15602 0.117755 -2.3661e-20)
(1.00002 0.00031462 7.75551e-21)
(1.06866 0.101017 0)
(-0.0778173 0.0222193 -1.66019e-19)
(1.10425 -0.03257 3.18261e-20)
(0.989923 0.00234954 9.4329e-21)
(0.994471 0.00863319 -8.07149e-22)
(1.26648 0.0349271 0)
(1.04445 0.00808357 0)
(1.00288 0.006968 5.77315e-21)
(0.902302 0.0802705 -3.30769e-20)
(1.03135 0.0140497 1.41366e-21)
(1.01717 0.0110921 0)
(0.951326 0.021815 0)
(1.01735 0.00430079 -1.45657e-21)
(0.959547 0.174385 4.93166e-20)
(0.993806 0.011185 1.04012e-20)
(1.00232 0.00722488 6.81453e-21)
(-0.271465 0.00630474 0)
(1.00885 0.00539458 -4.41588e-21)
(1.0424 -0.00572261 -1.19553e-22)
(1.00058 0.0049021 0)
(0.997585 0.0466793 -8.36434e-21)
(1.06045 0.116011 -5.96895e-21)
(1.00469 0.00652868 5.73553e-21)
(1.03365 0.0124281 0)
(1.3273 0.241665 -2.96255e-21)
(1.00074 0.0523979 -6.46797e-21)
(0.470179 0.040162 -8.71615e-20)
(1.05471 0.0199376 9.31877e-21)
(0.999999 0.000131853 -5.96646e-21)
(1 0.000115678 -7.24398e-21)
(1.18624 0.218568 2.04822e-21)
(0.990149 0.0180591 0)
(0.991251 0.00578143 9.58809e-21)
(1.0022 0.00201653 6.60869e-21)
(1.0467 0.00618842 0)
(0.950906 0.098061 -5.75214e-21)
(0.752298 0.000186804 3.62803e-20)
(0.998362 0.0150053 6.94123e-21)
(0.952397 0.171118 -2.71151e-20)
(0.650095 0.770011 0)
(1.10223 -0.0358774 5.97432e-20)
(1.00001 0.00045902 0)
(0.993086 0.00455029 0)
(1.0393 0.00115086 6.71602e-22)
(1.00006 0.00156852 6.04488e-22)
(1.00116 0.0162994 1.25597e-20)
(-0.0683371 0.153838 -7.84924e-20)
(-0.160053 0.0368247 1.27987e-19)
(1.00037 0.00477285 0)
(1.0867 0.0473115 1.27951e-20)
(1.08089 -0.0209863 0)
(1.07845 -0.0199631 -1.93322e-20)
(0.974197 0.00870574 -1.19761e-20)
(1.01182 0.00115896 0)
(1.31011 -0.0266175 -5.25881e-20)
(1.06921 0.33617 2.50724e-20)
(0.687304 0.749283 0)
(1.02302 0.00569952 0)
(1.04043 0.00140586 1.47538e-21)
(1.03962 0.00926487 -2.09923e-21)
(1.00615 0.00779047 4.32906e-23)
(-0.0858379 -0.0151999 7.62418e-20)
(1.07956 0.110646 2.03724e-22)
(1.04675 0.00737469 0)
(1.02203 0.0259096 0)
(1.0087 0.000569966 -5.13267e-21)
(0.9763 0.00678425 2.53212e-20)
(1.32845 -0.022034 2.91723e-20)
(1.07731 0.025195 2.24888e-20)
(0.998942 0.00150089 -2.06822e-20)
(-0.216776 0.0285761 0)
(0.769874 0.650229 -1.69802e-20)
(1.01268 0.477281 0)
(1.05776 0.206656 -1.33251e-21)
(0.999871 0.00685704 -1.62428e-20)
(1.02594 0.0207949 -7.87447e-23)
(1.0901 -0.100176 0)
(1.13169 0.134807 0)
(-0.0647563 0.0967775 0)
(0.366947 0.203967 1.66705e-19)
(0.94605 0.0608175 -6.83952e-20)
(0.908959 0.026198 -5.1016e-20)
(1.0001 0.00134944 0)
(1.05509 0.0366388 -7.98255e-22)
(0.970508 0.0171002 -2.88165e-20)
(1.00011 0.00151278 0)
(-0.251172 -0.00444675 5.18484e-20)
(1.01324 0.00103365 -4.44202e-21)
(1.00202 0.0169861 1.72706e-20)
(1.15124 -0.0406952 2.75637e-20)
(1.00004 0.00142008 0)
(1.28054 -0.116829 3.79412e-20)
(1.05277 0.0195997 -2.78727e-22)
(1.24292 -0.0289193 4.04547e-20)
(1.02223 0.114324 -7.13423e-21)
(0.999925 0.000547945 1.81044e-22)
(1.05557 0.00255769 0)
(1.07399 0.0520987 1.70488e-21)
(1.06594 -0.0690323 -1.22895e-20)
(1.06212 0.201679 1.97417e-20)
(0.952208 0.306065 -8.81143e-21)
(0.999985 0.000169769 8.7134e-21)
(1.09446 -0.0817747 4.38408e-21)
(1.03307 0.0518522 0)
(1.01512 0.0290392 2.2747e-21)
(1.00065 0.00269361 -8.99203e-21)
(1.03886 0.0310146 0)
(0.996311 0.00190212 0)
(0.944535 0.0639983 0)
(1.15722 0.113285 6.26896e-20)
(0.843617 0.134907 -3.8475e-20)
(0.998923 0.00115791 -1.05285e-20)
(0.999695 0.0541436 2.50627e-20)
(1.00228 0.00186613 -1.64672e-23)
(0.991057 0.00896923 -2.13954e-20)
(0.7863 0.3537 1.20048e-20)
(1.00372 0.00473678 8.14626e-21)
(1.02086 0.0632599 -3.95799e-21)
(1.26553 -0.0685707 1.09096e-19)
(1.01698 0.00419331 0)
(1.13038 0.141589 0)
(1.09971 -0.132805 3.45123e-20)
(0.997227 0.00422144 0)
(-0.00685535 0.0544986 9.81374e-20)
(1.13437 0.00972004 0)
(0.999974 0.00144672 5.25508e-21)
(1.27513 0.085206 1.05845e-19)
(1.03885 0.0126833 0)
(1.00002 0.000334402 -2.46079e-22)
(0.98026 0.0122292 -4.29825e-21)
(0.994393 0.00406951 1.45987e-20)
(0.999996 9.76427e-05 8.82115e-21)
(1.05642 0.0466507 4.67832e-21)
(0.975215 0.00654083 -2.3119e-20)
(0.817927 0.60447 0)
(0.986041 0.053039 -1.59432e-20)
(0.993512 0.00484091 0)
(1.02693 0.0387296 0)
(1.06494 0.116512 0)
(1.11108 0.0267991 0)
(0.993884 0.00270413 1.66107e-23)
(1.06365 -0.00256091 0)
(1.0252 0.0210184 -9.23381e-22)
(1.10122 -0.0149455 2.77825e-20)
(0.981722 0.00640654 1.10805e-20)
(1.01841 0.117584 3.7185e-21)
(1.02374 0.00787101 -1.20579e-22)
(0.946386 0.0143146 0)
(1.0237 0.0021281 -1.43862e-21)
(1.00208 0.0089205 0)
(0.595513 0.0243781 0)
(1.01927 0.00960727 4.06866e-22)
(0.790058 0.335238 0)
(0.993073 0.00243181 -1.47782e-20)
(1.0508 0.00365002 6.15751e-21)
(1.00938 0.00515154 3.05863e-21)
(1.11006 0.00850519 2.98197e-20)
(1.00051 0.00463491 0)
(1.13849 0.0117058 -2.75922e-20)
(1.02292 0.034942 2.83566e-21)
(1.26974 0.0867746 -9.95085e-20)
(0.999978 0.000457964 -6.54039e-21)
(0.864211 -0.0288565 6.11195e-20)
(1.02507 0.000359589 0)
(0.970446 0.0604283 0)
(0.999965 0.000173386 -1.65319e-20)
(0.977656 0.00883493 0)
(1.00126 0.00832683 1.57086e-20)
(1.05477 0.0476502 0)
(0.996397 0.0024307 -2.33362e-20)
(0.649719 0.248282 1.6787e-19)
(0.653794 0.482832 2.05421e-20)
(1.27288 -0.128001 6.75567e-20)
(1.06479 0.0151095 0)
(0.941523 0.160422 -1.50481e-20)
(1.00772 0.0218038 4.67881e-21)
(0.979482 0.175932 0)
(1.1603 -0.0338984 0)
(1.00188 0.0048142 -6.21865e-21)
(0.908906 0.080891 3.52444e-20)
(0.946601 0.320842 9.07385e-21)
(-0.0428483 0.0930027 -1.11952e-20)
(1.09183 -0.133267 -1.66394e-20)
(1.31527 0.297496 2.04466e-19)
(1.07746 0.0533745 -3.15592e-20)
(0.999207 0.0402468 1.84836e-21)
(1.00004 0.00100631 6.97527e-23)
(1.06778 -0.000736886 -1.76855e-20)
(1.05795 0.0433855 -1.45686e-21)
(1.06686 -0.0601909 5.1632e-21)
(1.01492 0.00442796 -1.48955e-21)
(1.03845 0.0551617 1.9673e-22)
(1.23182 0.0554266 1.33318e-20)
(1.00002 0.000122183 7.29806e-21)
(0.990941 0.00842215 6.06594e-21)
(1.06537 -0.00400175 0)
(0.129701 0.0400434 -8.6935e-20)
(0.972694 0.0588859 0)
(1.06561 0.0973715 0)
(1.08354 -0.10349 0)
(0.999949 0.000439287 0)
(0.601936 0.0185661 6.60874e-20)
(1.01486 0.00526359 -1.8786e-21)
(1.006 0.0131603 7.1131e-21)
(1.00561 0.0495718 -1.9264e-21)
(1.03157 0.014834 -3.13384e-21)
(-0.236282 0.028192 -2.9943e-20)
(1.16709 -0.0507996 -3.92826e-20)
(0.0606538 0.0515798 -9.37368e-20)
(1.00159 0.000717986 7.37937e-21)
(1.29142 0.383277 5.19696e-20)
(0.0367216 0.0650007 0)
(1.2931 0.0453631 0)
(1.06876 -0.0576236 0)
(1.17539 -0.0330906 -4.16375e-20)
(1.24921 0.0684814 0)
(1.0089 0.18077 0)
(0.981012 0.0158362 -1.8711e-20)
(0.997555 0.0219523 -4.1219e-21)
(0.899255 0.0858422 -4.0479e-20)
(-0.275413 0.0233259 0)
(1.00913 0.0219478 -4.89224e-21)
(0.971373 0.117405 0)
(0.355569 0.0489183 2.95037e-20)
(0.993609 0.0122251 4.41327e-23)
(1.00281 0.00955056 -7.61635e-21)
(1.01465 0.0298228 2.92415e-21)
(0.989811 0.0581598 0)
(1.0011 0.00843376 0)
(1.03808 0.00353119 4.64061e-21)
(1.17743 0.223136 0)
(1.29203 0.144638 -5.64614e-20)
(1.03719 0.00379764 5.82414e-21)
(1.0006 0.00720851 0)
(-0.195807 0.0262307 0)
(0.146816 0.112516 -8.14905e-20)
(1.00712 0.0221907 -1.0779e-20)
(0.990553 0.00227047 0)
(1.00043 0.000592415 3.76744e-21)
(0.998989 0.0158391 -1.48061e-22)
(1.26786 0.278116 -3.76546e-20)
(1.16442 -0.0573316 1.11507e-21)
(1.01952 0.435596 0)
(0.987736 0.0512285 1.4249e-20)
(1.0028 0.00992459 7.84031e-21)
(1.03159 0.0099009 1.88718e-21)
(0.949731 0.0106434 -1.93348e-20)
(0.997915 0.00440248 1.00585e-20)
(1.10644 -0.00148674 0)
(0.967987 0.0387237 3.4056e-20)
(0.368082 0.0124017 -4.90602e-22)
(0.999528 0.00717973 1.62097e-22)
(1.00109 0.00348562 3.60518e-21)
(1.05003 0.16779 0)
(1.00893 0.0210362 4.86198e-21)
(1.08206 -0.0440717 0)
(0.881871 0.268141 0)
(1.05393 0.0033356 -1.59774e-21)
(0.757224 0.612034 -8.98937e-20)
(0.0203851 0.0696844 0)
(0.997682 0.040301 1.95254e-21)
(1.00143 0.0169677 1.44203e-22)
(0.913325 0.0329449 -3.7929e-20)
(-0.273256 0.0190305 0)
(0.990024 0.158848 -2.66789e-20)
(1.03789 0.0125991 -5.41217e-21)
(1.33387 0.00895992 3.63226e-20)
(0.755525 0.399891 5.95794e-21)
(0.917245 0.03519 2.6787e-20)
(0.98186 0.0149489 -2.7549e-22)
(1.00249 0.00151817 -6.76732e-21)
(1.00386 0.00509357 -7.30424e-21)
(1.07319 0.427136 2.21563e-20)
(1.06359 0.01613 -6.00203e-21)
(0.777843 0.294806 -3.99174e-20)
(1.00001 0.000359968 0)
(-0.184691 0.0410333 1.786e-21)
(1.2922 0.223968 0)
(0.993148 0.00411925 0)
(0.997669 0.00733941 -2.88575e-21)
(0.662834 0.235421 -7.54153e-20)
(0.999255 0.00202229 1.81744e-20)
(1.0097 0.00519509 -7.8161e-21)
(1.00177 0.0863468 9.08047e-22)
(-0.0834277 0.0158608 0)
(-0.00657248 0.099599 0)
(0.728654 0.0293951 8.43765e-20)
(1.04174 -0.00451872 0)
(1.16804 -0.00428788 2.07349e-20)
(1.00909 0.172618 0)
(1.0131 0.00431588 4.05158e-21)
(1.00819 0.000355896 5.7603e-21)
(0.999585 0.000934418 -1.23278e-20)
(1.08422 0.41234 -7.50933e-20)
(1.00013 0.00123221 0)
(0.993496 0.00528925 -1.98122e-21)
(1.16648 -0.00793691 1.93291e-20)
(0.975413 0.010496 0)
(1.15665 0.132301 7.46621e-20)
(1.00083 0.000857319 1.29147e-20)
(0.998536 0.00249693 0)
(1.01051 0.00103984 4.50708e-21)
(0.999071 0.00101792 -3.38377e-21)
(1.26103 0.0252305 1.41951e-19)
(1.00014 0.00137983 0)
(1.00128 0.0251763 -8.60526e-21)
(1.13467 0.0287224 0)
(0.934831 0.243453 0)
(0.816785 0.515774 1.24123e-20)
(1.00001 0.00143986 0)
(1.20105 0.10545 0)
(0.0823669 0.130335 0)
(0.503354 0.0347447 0)
(0.967915 0.0474128 1.99346e-20)
(-0.220527 0.0285695 1.31551e-19)
(-0.104185 0.0125652 0)
(0.993922 0.0119126 1.04242e-20)
(1.01524 0.00215321 1.33699e-21)
(0.983363 0.0501456 1.39488e-20)
(0.948593 0.0341209 2.08676e-20)
(-0.00207993 0.115324 -1.31398e-19)
(1.02746 0.0629252 2.54258e-21)
(1.00063 0.0025016 -9.05507e-21)
(1.00011 0.00129746 -8.5885e-21)
(0.147273 0.108991 4.05532e-22)
(0.981127 0.168288 1.18418e-21)
(1.04047 -0.00455981 7.48513e-21)
(1.00049 0.00208268 -1.05502e-21)
(0.990211 0.00337485 1.61155e-22)
(1.08725 0.146077 1.07517e-20)
(1.0092 0.00548264 9.2852e-22)
(1.0067 0.000534114 -8.06281e-23)
(1.09814 -0.0128059 -5.33739e-20)
(0.988962 0.0558553 1.27045e-20)
(0.999674 0.000748957 0)
(1.02729 0.0165516 0)
(0.714919 0.634888 1.1619e-20)
(1.03244 0.0167287 1.5488e-21)
(0.993809 0.0560661 -1.14245e-20)
(0.996112 0.00169684 8.83591e-23)
(1.00058 0.0483324 -1.48575e-20)
(1.21643 0.180589 3.45905e-20)
(1.00003 0.00158303 -1.57436e-22)
(0.977358 0.0554026 0)
(0.997611 0.00239864 -1.15374e-21)
(1.07298 0.0231963 3.02342e-20)
(0.63941 0.557162 0)
(0.999999 8.8486e-05 7.49885e-21)
(0.8298 0.494703 0)
(1.04631 0.0782637 0)
(0.00303413 0.110391 0)
(1.01423 0.000431637 -1.67729e-21)
(1.03399 0.0599331 -2.84293e-23)
(1.09463 -0.0140344 2.31036e-20)
(1.19956 0.109809 0)
(0.781021 0.137019 -3.40557e-20)
(0.967809 0.0372432 -5.64648e-20)
(1.26566 0.277178 -1.20335e-19)
(1.15865 -0.0695364 -5.36009e-20)
(0.962109 0.0244227 -4.69983e-21)
(1.01041 0.000586198 0)
(1.29531 0.0399045 -3.88774e-20)
(0.997659 0.00167157 -1.82058e-20)
(1.00002 0.000683171 0)
(1.01353 0.0132535 3.9721e-23)
(1.00003 0.00078663 0)
(1.15353 0.0641209 0)
(1 1.35126e-05 0)
(0.999994 9.11394e-05 0)
(0.86893 0.264338 -4.93637e-20)
(1.02146 0.109348 4.98833e-21)
(1.01241 4.66322e-05 2.26854e-21)
(0.924165 0.118093 3.38236e-20)
(0.953297 0.0176682 -1.79109e-20)
(0.637677 0.0319626 0)
(1.05714 0.0139475 -1.37194e-20)
(0.805584 0.576579 0)
(0.999696 0.0166847 7.0117e-21)
(1.1535 -0.0350418 2.78535e-20)
(0.988528 0.166463 1.44658e-20)
(0.241117 0.0679902 0)
(1.06537 0.0279638 0)
(-0.118267 -0.0145943 4.05273e-20)
(1.00001 0.000368022 0)
(1.05674 -0.021904 1.2448e-20)
(1.00168 0.00267894 1.92509e-21)
(0.999908 0.0387476 1.31995e-20)
(0.989269 0.0181488 0)
(1.23692 -0.0325099 0)
(0.860642 0.144229 2.02853e-21)
(1.0833 -0.0819004 2.80387e-20)
(-0.244972 0.000155092 1.17332e-19)
(1.00057 0.00282458 2.15895e-21)
(0.939858 0.923843 8.25848e-20)
(1.05383 -0.0250123 -9.44926e-21)
(1.02222 0.0200425 -1.18047e-21)
(0.871428 0.0668654 -4.60529e-20)
(1.09756 0.0424131 7.54191e-21)
(0.0236238 0.0776573 8.30496e-20)
(0.997388 0.00741418 1.14811e-20)
(0.946532 0.0978563 6.55024e-21)
(0.931616 0.230779 -2.10284e-20)
(1.02324 0.0641109 0)
(0.833799 0.137378 0)
(1.00001 0.000152313 -2.34569e-22)
(1.0144 0.00250988 -1.86414e-21)
(1.00001 0.000139914 7.29263e-21)
(0.970024 0.46924 -3.06736e-21)
(0.999178 0.00263187 5.87055e-21)
(1.00174 0.00531389 1.02641e-20)
(1.01256 0.0126672 0)
(1.00968 0.000980403 -5.3415e-21)
(1.00187 0.00895625 0)
(1.00033 0.00747499 9.55072e-21)
(1.02774 0.0403872 0)
(1.00349 0.0142591 9.61e-21)
(0.999225 0.0017866 1.45387e-20)
(0.958423 0.0105174 -1.39801e-22)
(1.00444 0.0889154 -6.35486e-21)
(0.930299 0.116107 -3.04233e-20)
(0.994461 0.00223233 0)
(0.0249404 0.104198 1.61219e-20)
(1.00325 0.0346457 2.40268e-21)
(1.28014 0.377167 4.84509e-20)
(0.896446 0.149248 0)
(-0.106559 0.0959698 6.62632e-20)
(1.10487 0.0866359 0)
(1.05576 -0.0204209 -1.80199e-20)
(-0.166305 0.0366246 0)
(1.11383 0.0292201 -2.06719e-20)
(1.00449 0.457206 1.21976e-21)
(0.680356 0.0203207 -3.84053e-20)
(1.08857 0.140069 -1.6558e-20)
(1.00012 0.00144039 9.06042e-21)
(1.00508 0.0124547 3.32224e-21)
(1.00587 0.0597976 0)
(1.22319 0.177045 3.87332e-20)
(1.01359 0.0298871 -5.82181e-21)
(-0.0336582 0.0415713 0)
(1.00493 0.0277795 -5.71633e-22)
(0.965098 0.698232 0)
(0.824706 -0.0284551 -2.92972e-20)
(1.07684 -0.0989672 0)
(1.05181 0.0212496 2.50618e-22)
(-0.0387938 0.0482671 0)
(-0.1687 0.0822803 -1.88576e-19)
(0.943621 0.014976 0)
(0.994109 0.00341323 1.47636e-20)
(0.999957 0.00025501 1.34617e-20)
(1.06393 -0.000391748 -1.15203e-20)
(1.01458 0.00239192 -8.05397e-22)
(1.01156 0.00093311 -1.86485e-21)
(1.10159 0.189793 0)
(1.21811 -0.226762 4.59482e-20)
(0.997713 0.00211719 0)
(1.01268 0.0294089 0)
(0.960496 0.00985366 1.36739e-22)
(1.21646 0.357149 9.65836e-20)
(1.09721 -0.104076 2.02201e-21)
(0.999531 0.00235734 0)
(1.04444 0.0745908 -3.24412e-22)
(1.20671 0.0672309 -6.06191e-20)
(0.997504 0.0502195 0)
(1.00028 0.00637527 -5.43218e-21)
(-0.0709099 0.0396708 -8.6725e-20)
(0.986974 0.0415338 -1.97257e-20)
(0.995549 0.0182823 2.51818e-20)
(0.837297 0.95198 0)
(0.998164 0.0748344 -1.56684e-21)
(0.97974 0.0061753 1.59711e-20)
(-0.144978 0.0421453 1.30731e-19)
(0.516181 0.0298849 0)
(0.0843771 0.0695656 -1.8974e-19)
(0.991356 0.0101874 1.12461e-20)
(0.97778 0.0582152 0)
(1.28927 0.0618571 0)
(1.01293 0.0132128 4.85033e-21)
(1.0217 0.0270339 -1.78662e-21)
(0.999992 0.000188389 0)
(1.06492 -0.0359603 -3.75809e-21)
(0.997955 0.00502932 0)
(1.00089 0.000812789 -1.46187e-20)
(1.04273 -0.0153321 9.79377e-21)
(0.791263 0.115209 9.18956e-20)
(0.894784 0.426153 -3.69045e-20)
(1.00923 0.0141639 -5.96402e-21)
(0.982919 0.0111689 1.85274e-20)
(0.997615 0.00121667 0)
(1.0211 0.0251336 -1.2745e-21)
(0.985108 0.0485141 -6.68384e-21)
(1.01369 0.00283528 9.81198e-22)
(1.24185 0.0677469 -5.58318e-20)
(1.00327 0.114019 -2.16241e-20)
(0.993421 0.0294975 -1.34677e-20)
(0.995983 0.00636479 -7.80742e-23)
(1.01033 0.0131818 1.14957e-20)
(1.00261 0.00501298 -1.11887e-20)
(1.03512 0.0382276 -8.7311e-22)
(-0.0562383 0.0217662 7.72649e-20)
(1.09297 0.0125574 0)
(1.02465 0.000870243 0)
(0.994348 0.00948019 0)
(0.850489 0.145205 1.99947e-21)