/*--------------------------------*- C++ -*----------------------------------*\
| =========                 |                                                 |
| \\      /  F ield         | OpenFOAM: The Open Source CFD Toolbox           |
|  \\    /   O peration     | Version:  v2012                                 |
|   \\  /    A nd           | Website:  www.openfoam.com                      |
|    \\/     M anipulation  |                                                 |
\*---------------------------------------------------------------------------*/
FoamFile
{
    version     2.0;
    format      ascii;
    class       surfaceVectorField;
    location    "750";
    object      Uf;
}
// * * * * * * * * * * * * * * * * * * * * * * * * * * * * * * * * * * * * * //

dimensions      [0 1 -1 0 0 0 0];


internalField   nonuniform List<vector> 
14907
(
(0.996706 0.0115365 6.37326e-23)
(0.996797 0.0119406 3.21397e-21)
(0.996396 0.0117624 -5.63237e-21)
(0.998643 0.00529884 -4.39437e-21)
(0.998497 0.00551247 0)
(0.998677 0.00558842 -5.77748e-21)
(1.03586 0.0131236 4.2281e-22)
(1.03674 0.0134018 4.56088e-21)
(1.03642 0.0122732 1.44773e-21)
(1.01084 4.19487e-05 0)
(1.01078 7.77459e-05 -6.13109e-22)
(0.69589 0.0949821 -5.63243e-20)
(0.626862 0.0859279 5.048e-20)
(0.76937 0.106153 -3.66746e-20)
(0.999252 0.00517033 4.08661e-21)
(0.999275 0.00486313 -2.85878e-21)
(0.99913 0.00507427 -3.74324e-21)
(0.736516 -0.0048144 0)
(0.669367 0.00651017 -3.40575e-20)
(0.820734 -0.012561 -3.22426e-20)
(1.33675 -0.00873147 3.75698e-20)
(1.33819 -0.000252702 3.75673e-21)
(1.29331 -0.00559258 -2.78595e-20)
(1.03014 0.0126498 1.26473e-21)
(1.03001 0.0134397 -7.88604e-22)
(1.02926 0.0128944 6.5923e-22)
(1.00178 0.00505744 1.5179e-23)
(1.00177 0.0052441 -5.86456e-21)
(1.00194 0.00531033 -1.36183e-21)
(-0.243133 0.00375481 -6.77539e-22)
(-0.261196 0.00556307 3.37955e-21)
(-0.24671 0.00738618 -1.16673e-21)
(1.01411 0.000155267 -5.10136e-22)
(1.0106 4.63945e-06 0)
(1.01542 0.00189403 1.57059e-22)
(1.01531 0.00209705 -2.70882e-22)
(1.01564 0.00212353 -1.89685e-21)
(1.01567 0.000750518 4.30656e-22)
(1.0155 0.000723649 -4.96081e-22)
(1.01557 0.000905946 1.12322e-21)
(0.960957 0.0568206 -3.81958e-22)
(0.962752 0.0548801 -2.05328e-20)
(0.959905 0.0538783 -7.36122e-22)
(0.999708 0.0065133 0)
(0.999664 0.00623127 4.02274e-22)
(0.99981 0.00630462 0)
(0.999797 0.00678481 0)
(0.999626 0.00674523 3.59205e-21)
(1.00003 0.000312042 4.19519e-21)
(1.00003 0.000322345 3.57529e-21)
(1.00004 0.000429928 3.36874e-21)
(0.996606 0.0110868 -4.21723e-21)
(0.997024 0.0113012 -5.16051e-21)
(0.668564 0.285136 5.03258e-20)
(0.69233 0.297724 -1.2792e-20)
(0.694345 0.276252 -2.87666e-20)
(1.00425 0.00537716 2.45804e-22)
(1.00426 0.00562366 -2.20285e-21)
(1.0045 0.00557686 -1.08387e-22)
(1.27487 -0.0681714 -8.67556e-21)
(1.26864 -0.0670244 -3.75038e-20)
(1.27352 -0.0605392 -6.59802e-20)
(1.01435 0.000416586 -3.30808e-22)
(1.01435 0.000427017 1.58892e-21)
(1.01471 0.000570521 8.636e-22)
(1.014 0.00443203 0)
(1.01435 0.00448417 8.89145e-22)
(1.01421 0.00415417 -1.00358e-21)
(0.998775 0.00511301 -2.10852e-21)
(0.998617 0.00504392 1.18449e-21)
(1.09619 0.0166363 1.02903e-20)
(1.09826 0.0140742 1.7601e-20)
(1.0946 0.0137332 -1.30688e-21)
(0.998795 0.00183845 1.10201e-22)
(0.998908 0.00158918 -6.77531e-22)
(0.998946 0.001753 -6.62877e-22)
(0.996845 0.0569125 -5.76113e-21)
(0.995004 0.0559911 6.16657e-21)
(0.996904 0.054791 0)
(1.0221 0.0219662 -3.48205e-22)
(1.0215 0.0225542 -1.11338e-21)
(1.02138 0.0215728 4.22849e-22)
(1.00318 0.0487731 -9.3257e-21)
(1.00476 0.0494948 -1.50176e-21)
(1.00337 0.0508652 2.87502e-22)
(0.996856 0.00436798 5.08586e-21)
(0.99658 0.00437317 -2.24695e-21)
(0.996788 0.00408583 8.55522e-21)
(-0.141154 0.02616 -6.03193e-20)
(-0.154106 0.0260987 3.12928e-20)
(-0.155091 0.0252254 -1.41743e-19)
(1.00182 0.00485308 5.98503e-21)
(1.00165 0.00479242 0)
(1.02152 0.0434704 1.24033e-21)
(1.02179 0.0451435 3.67953e-21)
(1.01996 0.0439719 -1.43717e-21)
(1.07207 0.056275 6.18014e-21)
(1.07281 0.0532994 -5.91317e-21)
(1.06989 0.0540801 -6.66712e-21)
(1.01365 0.00439315 -7.84515e-22)
(1.01379 0.0047312 0)
(1.09194 0.0208566 -8.20009e-21)
(1.09433 0.0186801 -7.90587e-21)
(1.09054 0.018135 2.15566e-21)
(1.10674 -0.0145693 0)
(1.10331 -0.0140645 0)
(1.10553 -0.0113396 6.29668e-22)
(1.01327 0.00427878 1.51077e-21)
(1.01353 0.0040044 -7.17808e-22)
(1.00771 0.120089 -5.55422e-22)
(1.01026 0.122901 -1.44646e-21)
(1.00493 0.122357 8.15938e-21)
(0.648088 0.288213 8.81203e-20)
(0.654102 0.266852 7.24223e-21)
(0.969687 0.0531694 9.70422e-21)
(0.968452 0.0553265 1.00358e-20)
(0.971072 0.0553337 9.54645e-21)
(0.789795 -0.0155916 0)
(0.648535 0.0117701 -3.52933e-20)
(0.99295 0.0324205 7.07242e-21)
(0.993762 0.0335006 -1.6397e-22)
(0.994092 0.0319012 -6.24232e-21)
(0.784149 0.107832 1.32451e-20)
(0.602564 0.0880579 -9.03531e-20)
(1.1642 -0.0263392 1.32043e-20)
(1.16113 -0.0306248 0)
(1.15818 -0.0248669 0)
(0.977873 0.0367689 -6.47187e-22)
(0.978148 0.0381793 3.49553e-21)
(0.976673 0.0374632 6.1799e-22)
(1.18762 -0.0970299 4.81376e-21)
(1.18062 -0.0936034 4.94394e-21)
(1.1812 -0.102223 1.99268e-20)
(1.08373 0.0324474 1.00408e-20)
(1.08595 0.0346408 5.33926e-21)
(1.08645 0.0313642 7.63195e-21)
(1.10301 -0.0785258 -1.40313e-21)
(1.09747 -0.0796364 -6.9637e-23)
(1.09858 -0.0732649 -1.41375e-21)
(1.00037 0.000451083 2.9866e-22)
(1.00042 0.000540889 -3.30876e-21)
(1.00047 0.000487927 -3.41666e-21)
(1.03635 -0.0077174 -3.49622e-21)
(1.03715 -0.0082063 -2.02081e-21)
(0.961409 0.0434121 0)
(0.959132 0.0440117 -8.88845e-23)
(0.959856 0.0415231 0)
(1.04388 -0.0107598 -3.80045e-21)
(1.04441 -0.00966551 0)
(1.04528 -0.0112403 -5.00946e-22)
(1.09376 0.0234468 0)
(1.09003 0.0230238 -8.19938e-21)
(0.999198 0.00546761 7.3212e-21)
(0.999323 0.00526277 7.10545e-21)
(1.02265 0.0215748 3.55613e-23)
(1.02291 0.0225416 2.59731e-22)
(0.977522 0.0350673 -5.80742e-21)
(0.979211 0.0359436 -9.57092e-22)
(1.02295 0.042927 -2.71577e-21)
(1.02127 0.0419213 -1.49393e-21)
(0.963367 0.042354 0)
(0.962993 0.044608 0)
(0.997719 0.00482414 -8.95612e-23)
(0.997822 0.00452268 3.87637e-21)
(0.997571 0.00463933 8.5807e-21)
(0.9971 0.00648612 1.05994e-21)
(0.997317 0.00661767 -4.83613e-21)
(0.997327 0.00628419 -5.07542e-21)
(1.07115 0.0589418 1.41615e-20)
(1.07433 0.0584622 2.74148e-21)
(1.035 0.0127427 -1.82926e-21)
(1.03513 0.0138403 1.51511e-21)
(0.967051 0.016965 -6.99926e-21)
(0.965728 0.0176722 0)
(0.966968 0.0185981 0)
(1.02422 0.0423653 -8.68204e-22)
(1.02441 0.0409946 9.99705e-22)
(1.02597 0.0418647 6.28158e-22)
(0.974316 0.0123171 0)
(0.973786 0.0134179 1.03532e-20)
(0.975118 0.0129649 -3.11815e-21)
(0.727177 0.211881 -1.1633e-20)
(0.731296 0.192459 -4.76795e-21)
(0.746171 0.204746 -2.34049e-20)
(-0.150207 0.00178611 0)
(-0.119989 0.000842919 0)
(-0.128355 -0.00805194 -1.80321e-20)
(1.00156 0.0266948 -3.65334e-21)
(1.00154 0.0276441 1.02026e-20)
(1.00074 0.0270754 -4.91819e-21)
(1.04346 -0.0121443 -3.6221e-21)
(1.04254 -0.0105945 -2.87056e-22)
(0.639284 0.305349 8.93213e-20)
(0.991787 0.0331092 5.94107e-21)
(0.992081 0.0315016 5.55884e-21)
(0.865531 0.0750291 -1.69218e-20)
(0.868851 0.0685974 2.35735e-20)
(0.860192 0.0682681 3.05134e-20)
(0.974742 0.00895508 -6.25675e-21)
(0.975378 0.00984157 0)
(0.975889 0.00879356 -4.91658e-21)
(1.01473 0.00450727 -7.6158e-22)
(1.01448 0.00483221 -3.58185e-22)
(0.486671 0.0579081 7.14658e-20)
(0.581528 0.0726422 2.74901e-20)
(0.996549 0.0107249 1.91815e-21)
(0.996479 0.0103295 3.39119e-21)
(0.996842 0.0104717 1.23981e-20)
(0.90272 0.0949954 2.00756e-20)
(0.901479 0.0887708 2.357e-20)
(0.907342 0.0920971 0)
(0.684306 0.0105947 0)
(0.609029 0.0186483 -3.19865e-20)
(0.552037 0.0284151 3.87439e-20)
(1.08095 0.0334784 1.48715e-20)
(1.08163 0.0303273 3.18308e-21)
(0.899802 0.131286 1.03361e-19)
(0.982687 0.140672 1.51985e-20)
(1.0078 0.0365561 -1.24733e-21)
(1.00826 0.0356936 5.22426e-21)
(1.00886 0.0368611 8.24453e-21)
(0.97226 0.049129 -9.15503e-21)
(0.971346 0.0471352 1.04865e-20)
(0.97362 0.0472052 8.05246e-21)
(0.974811 0.0110485 0)
(0.973444 0.011478 0)
(1.00007 0.00146203 -2.86961e-22)
(1.00006 0.00150054 5.17717e-21)
(1.00004 0.00125293 5.09234e-21)
(0.997431 0.0133403 1.29083e-20)
(0.997161 0.0130445 -2.49655e-21)
(0.997018 0.0135914 9.53467e-21)
(1.16988 0.273227 0)
(1.15919 0.270065 -1.51451e-20)
(1.16814 0.263337 0)
(0.986834 0.0206193 -9.46115e-21)
(0.987196 0.0214478 -8.59474e-21)
(0.98626 0.0213101 6.53014e-21)
(0.997726 0.0138315 4.87032e-21)
(0.997877 0.0132261 5.18468e-21)
(1.0343 0.0323512 5.28768e-22)
(1.03512 0.031274 6.99983e-22)
(1.0335 0.0312736 5.58698e-22)
(1.00425 0.155222 -5.06806e-20)
(0.811595 0.118775 3.77793e-20)
(0.998399 0.0579569 -4.41783e-21)
(0.996502 0.0592723 2.49156e-21)
(1.03646 -0.00681389 1.36025e-21)
(1.00155 0.0481953 -6.50155e-21)
(1.00299 0.0470034 6.7358e-22)
(1.01664 0.0289048 -2.10165e-21)
(1.01581 0.0292018 -6.88988e-24)
(1.01676 0.0297867 5.27161e-21)
(0.999721 0.0102373 -2.38752e-21)
(0.999514 0.0100304 0)
(0.999813 0.00988076 5.11811e-21)
(1.01062 0.028881 0)
(1.01106 0.0281141 1.97812e-21)
(1.01015 0.0280746 0)
(1.0051 0.115611 1.22516e-20)
(1.01083 0.116446 -6.26497e-22)
(1.0264 0.0195435 -3.5396e-22)
(1.02723 0.0198808 6.42815e-23)
(1.02679 0.0189499 7.57572e-23)
(0.999999 9.39365e-05 -5.07388e-21)
(1 9.44709e-05 -5.61504e-21)
(1.17708 0.200215 -6.60279e-21)
(1.17235 0.20667 -8.54765e-20)
(1.18183 0.206147 -9.36732e-20)
(1.31275 -0.0148409 0)
(1.273 -0.0242492 4.72279e-21)
(1.33037 -0.0178408 -3.00995e-20)
(1.00007 0.0016903 -8.78391e-21)
(1.00007 0.00147053 -1.96396e-22)
(0.990204 0.0527008 -5.72364e-21)
(0.988774 0.051396 0)
(0.990652 0.0506261 -5.72828e-21)
(1.04482 0.206354 1.05902e-21)
(1.05261 0.207137 3.84385e-21)
(1.0474 0.215091 3.881e-21)
(0.994284 0.0106871 0)
(0.994022 0.011023 -2.7316e-21)
(0.994436 0.0111594 0)
(0.999948 0.0104496 -6.34168e-21)
(0.999645 0.0106027 -2.97986e-21)
(1.004 0.00515292 -3.70966e-23)
(1.00427 0.00509364 0)
(1.02128 0.000527527 0)
(1.02087 0.000581283 4.60136e-24)
(1.01007 0.00123626 -7.22155e-22)
(1.00979 0.00108092 -1.73265e-23)
(1.00978 0.00141937 2.85491e-21)
(1.00472 0.0210875 -2.9077e-22)
(1.00529 0.0216201 -5.9564e-23)
(1.00467 0.022015 -2.667e-21)
(1.04287 0.0809363 9.50508e-22)
(1.04044 0.08237 5.39151e-22)
(1.04 0.0794383 -2.44221e-23)
(-0.166315 0.0128721 0)
(-0.175287 -0.00362104 0)
(0.968426 0.0165204 2.36746e-21)
(0.967268 0.0155054 1.23112e-21)
(1.00236 0.0192697 -3.35521e-21)
(1.00238 0.0199712 5.90764e-21)
(1.00177 0.0196204 6.34793e-21)
(0.99141 0.00469585 1.94156e-21)
(0.991878 0.00461881 1.21989e-20)
(0.991685 0.00507699 7.21387e-21)
(0.996242 0.0109514 -3.68861e-21)
(1.01769 0.0285761 -1.14101e-22)
(1.01664 0.0279475 -4.39614e-21)
(-0.0103092 0.0518218 -1.20283e-20)
(-0.0560746 0.044744 -3.81995e-20)
(-0.00680289 0.0531149 -1.10561e-19)
(0.986477 0.0197513 0)
(0.987499 0.0198515 0)
(1.32909 -0.0137765 0)
(1.33978 -0.00893907 -2.48156e-20)
(0.996398 0.0358723 7.19509e-21)
(0.99741 0.0366415 1.41153e-20)
(0.997467 0.0352226 7.92183e-21)
(0.994049 0.00286765 -6.28156e-21)
(0.994155 0.00321242 5.45826e-22)
(0.994422 0.00297716 -7.41948e-21)
(1.18184 0.192357 4.79558e-20)
(1.17232 0.192962 4.97171e-21)
(1.00654 0.0364053 -3.46964e-21)
(1.00736 0.0380284 -1.13694e-21)
(1.33969 0.00735615 -5.22545e-20)
(1.32743 0.00339153 2.38558e-20)
(1.08527 0.0513227 -3.11362e-21)
(1.08637 0.0488926 -3.06373e-21)
(1.08827 0.0516915 2.10833e-20)
(1.04101 0.200291 1.24683e-21)
(1.03604 0.206953 -9.03936e-22)
(0.998013 0.0142091 5.82571e-21)
(0.998266 0.0146478 6.24127e-21)
(0.998453 0.0140708 3.46336e-21)
(0.896742 0.0974263 3.69062e-21)
(0.903568 0.101008 -2.65965e-20)
(0.980742 0.0198277 0)
(0.980742 0.021074 0)
(0.979589 0.0201598 -5.90111e-21)
(-0.15824 0.0316517 -8.28987e-20)
(-0.186357 0.0275433 -9.24237e-20)
(-0.188207 0.0283346 2.10995e-20)
(1.2663 0.0328429 2.09166e-20)
(1.26373 0.027798 -2.27195e-20)
(1.27022 0.0270913 6.76758e-20)
(1.02594 0.0203389 -2.06339e-22)
(1.02548 0.0193512 -8.10838e-22)
(1.11162 0.183137 -1.80762e-20)
(1.10874 0.17612 2.03438e-20)
(1.11667 0.177557 7.98011e-21)
(-0.11061 0.041202 -7.51828e-21)
(-0.143553 0.0386991 -8.21828e-20)
(-0.109152 0.0422752 -9.04857e-20)
(1.03527 0.0335414 -4.88224e-22)
(1.03351 0.0333927 6.23271e-22)
(1.19494 -0.0997896 -4.43616e-20)
(1.19361 -0.0912075 -2.61845e-20)
(1.17948 0.276642 5.97324e-21)
(1.17039 0.284369 0)
(0.984877 0.0527692 1.44346e-22)
(0.983516 0.0513084 -6.5089e-21)
(0.982722 0.053494 -1.45769e-20)
(0.991076 0.00440262 0)
(0.990963 0.00487873 0)
(0.98368 0.0459857 -2.75369e-21)
(0.984815 0.0474766 9.48912e-22)
(0.985545 0.0455423 4.49568e-21)
(1.22598 0.165045 5.97297e-21)
(1.22255 0.172572 7.15325e-21)
(1.2186 0.16461 -5.11928e-20)
(1.03459 -0.00306688 -8.4723e-22)
(1.03391 -0.00346798 1.76304e-21)
(1.03377 -0.00268544 1.5722e-21)
(1.00418 0.0208711 -2.66182e-21)
(1.00478 0.0204935 3.62319e-22)
(1.1386 0.145476 -1.1333e-20)
(1.13293 0.143716 -6.04978e-21)
(1.13441 0.150589 -1.9092e-20)
(1.02509 0.000492867 1.97721e-22)
(1.02488 0.000787156 -1.3014e-23)
(1.02544 0.000785377 -8.71143e-23)
(1.0111 0.0297075 0)
(1.01011 0.0296642 0)
(1.01585 0.0885607 3.56495e-21)
(1.01257 0.0888056 -4.85383e-22)
(1.01443 0.0856865 -4.84341e-22)
(1.03169 0.0119492 -8.04232e-22)
(1.03155 0.0111083 0)
(1.03241 0.0115113 0)
(1.00003 0.000125806 3.55277e-21)
(1.00004 0.000173112 2.87538e-21)
(1.00002 0.000121526 -4.5644e-22)
(0.224347 0.0889599 1.15457e-20)
(0.261751 0.0802298 3.94529e-20)
(0.176608 0.0956671 -2.06214e-20)
(-0.0437545 0.0453958 2.25689e-21)
(-0.0883081 0.0440209 1.51698e-19)
(-0.0553308 0.0456905 5.07272e-20)
(0.999506 0.00122411 1.26773e-20)
(0.999568 0.00102429 6.06165e-21)
(0.999581 0.00111756 -2.98395e-22)
(1.01523 0.0017332 2.92432e-21)
(1.01552 0.00171627 3.45792e-21)
(0.952826 0.0122467 -1.06208e-20)
(0.954919 0.0127733 -6.44856e-22)
(0.954269 0.0106013 -6.25169e-22)
(0.996889 0.00636237 -7.47815e-21)
(0.996898 0.00671262 2.93681e-21)
(1.1061 0.188179 -2.44377e-21)
(1.11407 0.18932 -2.27209e-20)
(0.0620243 0.0913054 9.25076e-21)
(-0.115655 0.0341749 -3.54492e-20)
(-0.108723 0.0549937 1.51467e-20)
(-0.24939 -0.00426007 -2.55315e-20)
(-0.246131 -0.000899458 0)
(-0.240987 -0.00896682 0)
(1.2378 0.050281 -4.39243e-20)
(1.23547 0.0448807 -1.93773e-20)
(1.24176 0.0449754 1.9155e-20)
(0.995747 0.00506116 3.66566e-21)
(0.995957 0.00522111 1.49259e-22)
(0.995652 0.00531219 -6.74747e-21)
(1.03099 0.0123497 -2.81517e-22)
(1.03181 0.0127448 -7.8822e-22)
(1.01207 0.0383646 2.22599e-21)
(1.01156 0.0394882 -1.3646e-22)
(1.01281 0.0394856 5.81939e-21)
(0.980782 0.0184632 -5.35354e-24)
(0.981862 0.0194432 0)
(0.950764 0.251154 -1.53619e-20)
(0.94752 0.262907 -1.89337e-20)
(0.960771 0.257907 1.78184e-21)
(0.313046 0.194612 4.99935e-21)
(0.374564 0.253606 -1.33862e-19)
(-0.156697 0.0292917 8.31352e-20)
(-0.160496 0.0340325 -3.19846e-20)
(-0.033716 0.045791 -1.03468e-19)
(0.0126659 0.0513092 -1.33726e-19)
(1.04442 -0.00611031 8.69015e-22)
(1.04317 -0.00569821 -6.42464e-22)
(1.04435 -0.00485571 8.75653e-21)
(1.00518 0.0115625 0)
(1.00543 0.0120167 4.34399e-22)
(1.00562 0.0116769 -3.55068e-21)
(1.17521 0.194061 -8.81697e-20)
(1.05826 0.173634 -3.30857e-20)
(0.701825 0.356673 1.14342e-19)
(0.6956 0.324941 2.58771e-21)
(0.67015 0.343264 -1.22549e-19)
(0.907445 0.162934 0)
(0.915561 0.163433 2.62405e-20)
(0.911674 0.155356 -2.5771e-20)
(0.769273 -0.0442732 0)
(0.833358 -0.0511972 -1.20113e-22)
(0.69792 -0.0201484 0)
(-0.1991 0.163795 3.10414e-20)
(-0.216402 0.120786 0)
(-0.18482 0.129166 0)
(0.995485 0.0351143 2.60918e-22)
(0.994606 0.034289 0)
(0.995656 0.0336861 -6.70793e-21)
(0.729288 0.233213 8.0524e-20)
(0.708723 0.220114 -2.56282e-20)
(1.06839 0.108018 -4.11797e-21)
(1.0676 0.103504 5.25022e-22)
(1.06395 0.106976 1.65007e-23)
(0.950617 0.0116072 1.64298e-21)
(0.951265 0.0139623 -2.85645e-21)
(-0.122455 0.0212509 -1.14424e-19)
(-0.117512 0.0236484 3.04612e-21)
(0.973171 0.0147202 6.6826e-21)
(0.974225 0.0154715 -4.57463e-21)
(0.972573 0.0159811 -1.28169e-20)
(1.08213 0.0516182 7.58832e-21)
(1.08427 0.0544196 -2.31646e-20)
(0.970903 0.0510879 3.39935e-21)
(0.968518 0.0510806 -4.89711e-22)
(-0.0194482 0.0498853 -2.00911e-20)
(0.0599432 0.0626833 -4.74332e-21)
(1.27287 0.0681491 0)
(1.27226 0.0623218 -5.79733e-20)
(1.26733 0.0663178 -5.99088e-20)
(1.02263 0.0374326 -1.99912e-21)
(1.0219 0.0367948 9.93678e-22)
(1.02148 0.0378397 7.20909e-22)
(-0.220135 -0.0209109 -4.05049e-21)
(-0.222308 -0.0227771 2.61142e-20)
(-0.218221 -0.0248513 2.70467e-20)
(1.05882 0.0409806 -8.48539e-21)
(1.05699 0.0394783 4.47912e-21)
(1.05933 0.0387239 3.09697e-21)
(0.774226 0.776715 -1.29336e-22)
(0.773725 0.712764 -1.29597e-22)
(0.718445 0.750236 -3.29363e-21)
(0.982557 0.0447272 0)
(0.981615 0.0467483 0)
(0.179734 0.101959 -7.7698e-20)
(0.269223 0.0790765 -5.34884e-20)
(1.31741 0.220909 -3.65188e-20)
(1.29079 0.205667 4.03841e-20)
(1.22084 0.0049721 8.41636e-21)
(1.21557 0.00654274 -3.4017e-20)
(1.22076 0.0106632 -7.22024e-21)
(1.36079 0.163476 -5.30337e-20)
(1.33394 0.150387 -5.14361e-20)
(1.34506 0.162557 1.2006e-20)
(1.07654 0.0241879 1.65418e-21)
(1.07422 0.0232537 -1.25234e-21)
(1.07638 0.0214755 1.02029e-20)
(0.994985 0.00972116 0)
(0.994966 0.0101482 0)
(0.995352 0.00990252 0)
(1.01508 0.00151526 -8.68643e-22)
(1.01493 0.00170601 5.03249e-22)
(1.03059 0.0609592 0)
(1.03265 0.060467 0)
(1.0318 0.0633255 0)
(0.884051 0.143556 2.74779e-20)
(0.892815 0.146062 1.23249e-20)
(0.891222 0.137494 4.04223e-20)
(1.02363 0.0374863 -2.93798e-21)
(1.02297 0.0387407 -3.64416e-21)
(1.00601 0.0216447 -9.74964e-21)
(1.00678 0.0218795 -3.59326e-21)
(1.0063 0.0209726 -4.11575e-21)
(0.726116 0.357642 1.09331e-19)
(0.70876 0.380492 1.10931e-19)
(0.972093 0.0140684 1.01692e-20)
(1.01794 0.0121387 2.36146e-22)
(1.01851 0.0120697 1.47918e-21)
(1.01841 0.0127213 8.28352e-22)
(0.833413 0.872794 6.00339e-21)
(0.85672 0.764131 -1.0954e-20)
(0.999288 0.00193458 5.43842e-21)
(0.999264 0.00178542 -6.4207e-21)
(0.999364 0.0016903 -6.33385e-21)
(1.00002 0.000359431 -1.50322e-23)
(1.00002 0.000370514 -3.80876e-21)
(1.00004 0.000494848 6.46057e-22)
(0.99992 0.000583301 -1.12234e-21)
(0.999909 0.000576713 -1.04727e-20)
(0.999895 0.000745095 -6.30353e-21)
(1.33519 0.163672 1.77046e-20)
(1.33803 0.156984 5.74134e-20)
(1.01525 0.000298083 2.80903e-22)
(1.01541 0.000224939 1.14459e-21)
(1.01396 0.000128365 -1.6078e-22)
(0.941233 0.244205 2.66553e-21)
(0.952745 0.240328 -8.64193e-21)
(1.04613 0.430815 -2.05618e-20)
(1.02727 0.436801 -3.04472e-20)
(1.04462 0.453061 -3.41632e-20)
(0.957003 0.0132232 -8.78983e-21)
(0.955731 0.0148605 0)
(1.27932 0.0689891 2.35405e-20)
(1.27359 0.0726254 -6.33065e-20)
(0.978671 0.00746492 7.0501e-21)
(0.978171 0.008421 1.77208e-20)
(0.979226 0.00833238 -6.05353e-21)
(1.00055 0.0073533 2.86374e-21)
(1.00039 0.00744989 -1.74379e-23)
(1.00056 0.00766623 0)
(1.15911 0.130851 -3.95492e-20)
(1.16183 0.125254 -1.08306e-21)
(1.16614 0.131598 1.63188e-20)
(1.01039 0.0141463 3.99383e-21)
(1.01004 0.0137514 2.43217e-21)
(1.00991 0.0142536 2.33728e-21)
(1.04544 0.0797175 7.65891e-22)
(1.04572 0.082995 -1.20707e-22)
(0.952219 0.0210364 -8.34732e-21)
(0.953278 0.0189667 -5.4746e-21)
(0.954517 0.0208108 -1.21974e-20)
(1.14272 0.404547 -3.68439e-22)
(1.1265 0.397698 -4.68535e-20)
(1.13916 0.387463 1.29472e-20)
(1.11019 -0.0150136 1.3934e-20)
(1.1078 -0.0176948 -1.17761e-20)
(0.946286 0.0693973 -1.38449e-20)
(0.946545 0.0725186 2.54825e-20)
(0.943331 0.0706626 -1.25124e-20)
(1.0998 0.0116379 7.25438e-21)
(1.10148 0.00886705 7.25643e-21)
(1.09822 0.00875407 -9.69946e-22)
(1.28878 0.0139658 -4.55532e-20)
(1.28999 0.018258 -4.22722e-20)
(1.28742 0.0176003 -4.35107e-21)
(1.00355 0.0205974 -7.48943e-21)
(1.00296 0.020275 -4.25233e-21)
(1.00357 0.0199201 1.30633e-21)
(1.25046 0.072025 0)
(1.25531 0.0754042 -5.08469e-20)
(1.24896 0.0778842 0)
(1.04312 -0.0132573 2.09749e-22)
(1.04451 -0.0135882 0)
(1.03011 0.0118438 1.2466e-21)
(0.810368 0.373046 5.38037e-21)
(0.830204 0.36725 -1.50718e-20)
(0.82759 0.388549 -1.90105e-20)
(1.00498 0.0111616 4.02919e-22)
(1.00481 0.0114708 3.58883e-21)
(1.04269 -0.0144753 -3.61048e-21)
(1.04186 -0.0130314 1.84252e-22)
(1.03756 0.0130694 2.59496e-21)
(1.03712 0.0140069 2.68515e-21)
(1.01861 0.0890285 -2.83491e-21)
(1.01675 0.0923176 3.39649e-21)
(1.01656 0.0139017 -4.18832e-22)
(1.01666 0.0144771 -2.81246e-22)
(1.01715 0.0141634 1.46761e-22)
(1.01585 0.000465473 -1.6215e-22)
(1.01595 0.000390147 1.69893e-22)
(1.01599 0.000559301 4.56308e-22)
(1.05682 0.0181381 -6.07608e-23)
(1.05831 0.0173736 -1.72176e-21)
(1.05825 0.0193192 -4.74079e-21)
(1.05327 -0.028406 1.14026e-20)
(1.05412 -0.0265838 6.73107e-21)
(1.05529 -0.0287748 1.07876e-20)
(0.995525 0.00485188 0)
(0.995876 0.00475982 -8.33698e-21)
(0.995313 0.0364992 -1.62993e-20)
(1.01247 0.037243 -3.49116e-21)
(1.01131 0.0372491 -1.40496e-22)
(1.03763 0.0839192 3.91815e-22)
(1.04087 0.0864314 -7.0285e-23)
(1.00229 0.0186254 -1.20551e-20)
(1.00288 0.018945 -5.81059e-21)
(0.997098 0.00433058 -5.7376e-21)
(0.996933 0.00459873 2.43368e-21)
(1.0131 0.0010171 0)
(1.01283 0.000754047 0)
(1.01278 0.00106833 1.06725e-21)
(0.989754 0.0548129 -5.49768e-21)
(0.991738 0.0538819 -4.30416e-22)
(1.04431 -0.00854719 0)
(1.04432 -0.0072672 -2.6073e-21)
(1.04305 -0.00814331 0)
(1.00001 0.000198494 5.83532e-21)
(1.00003 0.000299275 -4.2243e-21)
(1.01491 0.00113936 1.8073e-22)
(1.01486 0.000955054 1.07749e-21)
(1.01506 0.00100037 5.84631e-22)
(1.00152 0.025687 -3.60925e-21)
(1.00235 0.0262098 -8.49848e-22)
(0.994507 0.0773458 6.16708e-21)
(0.992434 0.0790648 8.04384e-21)
(0.995425 0.0800534 -1.95455e-22)
(1.14791 0.418741 -1.4276e-20)
(1.15985 0.404971 3.47308e-20)
(1.23428 0.0544519 -2.20804e-20)
(1.2402 0.0546673 7.74327e-21)
(-0.213534 -0.0171726 -3.0992e-20)
(-0.21952 -0.0146332 -6.26338e-20)
(0.904017 0.170974 -2.66172e-20)
(0.899659 0.162497 0)
(0.923726 0.163876 2.68528e-20)
(0.93209 0.164424 -8.39259e-21)
(0.926656 0.156372 -1.29253e-21)
(0.958757 0.0586441 0)
(0.961843 0.0593593 0)
(1.17012 -0.026321 -5.96074e-21)
(1.17506 -0.0305853 -1.67734e-20)
(1.17674 -0.024025 1.87842e-20)
(0.939111 -0.0514299 0)
(0.963671 -0.0607219 6.24808e-20)
(0.835561 -0.038775 -2.03295e-20)
(1.0552 0.0191127 -1.5928e-22)
(1.05517 0.0172071 2.6767e-21)
(0.994636 0.0103976 0)
(0.994206 0.0102799 0)
(1.01577 0.000613885 -2.62861e-22)
(1.01569 0.00041885 4.0395e-22)
(1.0284 0.0620122 0)
(1.02923 0.0594263 0)
(1.01606 0.013664 -1.04436e-21)
(1.0165 0.0133728 -8.43401e-22)
(1.28134 -0.0686459 6.17359e-20)
(1.27702 -0.0757834 -2.7294e-21)
(1.05465 -0.00304788 1.7891e-21)
(1.05369 -0.00221209 1.6913e-20)
(1.05521 -0.00177248 -2.09568e-21)
(0.997544 0.0143821 -7.71417e-21)
(0.999945 0.000441065 1.72886e-20)
(0.999951 0.000591389 7.78445e-21)
(0.87674 0.1388 1.46633e-20)
(0.87699 0.147685 -2.61266e-20)
(1.0457 -0.00877057 -3.94677e-21)
(1.06339 0.425406 7.16148e-20)
(1.05021 0.414347 3.66158e-20)
(0.921094 0.172293 -1.01611e-20)
(1.19621 0.238285 0)
(1.20075 0.24636 -2.14492e-20)
(1.20721 0.237244 -8.26019e-20)
(1.05836 0.0426154 -5.47645e-21)
(1.06071 0.0420353 -4.0957e-21)
(1.05119 -0.0283101 4.41433e-21)
(1.0522 -0.0306757 0)
(1.01556 0.0134716 -6.35738e-22)
(1.01545 0.0129652 4.06402e-21)
(1.01503 0.0132404 1.09123e-21)
(1.07047 3.09148e-05 -1.66343e-20)
(1.07158 -0.00064289 -7.15768e-21)
(1.0718 0.0010661 -1.17808e-20)
(1.03537 -0.00336758 7.04619e-22)
(1.0351 -0.00256707 -4.79492e-21)
(1.07317 0.108329 -9.59365e-21)
(1.06955 0.112134 -3.252e-21)
(0.991188 0.0218498 -6.85669e-22)
(0.990521 0.0215449 -1.04649e-21)
(0.991244 0.0210094 -6.34432e-22)
(1.09772 0.0193155 0)
(-0.126553 0.0345513 1.14319e-19)
(-0.121613 0.0333899 -3.73602e-20)
(1.01767 0.0116713 8.49687e-24)
(1.01753 0.0122104 -9.59375e-24)
(1.03275 0.0164144 -2.53636e-21)
(1.033 0.0155053 -1.14659e-21)
(1.03387 0.0162036 -9.23866e-22)
(0.886516 -0.0395427 0)
(1.04672 -0.0631615 -5.87417e-20)
(1.16599 -0.0207387 -4.31333e-20)
(1.02239 0.0355281 -1.55405e-22)
(1.021 0.0357501 -2.11498e-21)
(0.99733 0.00426417 -1.25437e-20)
(0.997449 0.00445946 -4.32698e-21)
(0.997585 0.00418197 -4.18897e-21)
(0.99661 0.0752478 -1.97427e-21)
(0.99382 0.0745142 -4.8892e-23)
(0.719046 -0.0360722 1.2919e-20)
(0.862907 -0.0728024 0)
(1.16606 0.0587262 2.27354e-20)
(1.16104 0.0619325 -6.22591e-22)
(1.16135 0.0558246 -1.88985e-20)
(1.22864 0.159811 3.59752e-20)
(1.23259 0.167074 -4.14493e-20)
(1.00035 0.000356966 3.33176e-21)
(1.0003 0.000394538 5.59786e-21)
(1.01498 0.00132346 -1.89091e-21)
(1.01524 0.00136185 -1.58684e-21)
(1.00352 0.021401 5.04207e-22)
(1.03073 0.013921 8.26117e-23)
(1.02977 0.0141473 -1.62164e-21)
(1.28615 0.00805014 6.9991e-21)
(1.29742 0.0108589 6.26985e-21)
(0.995152 0.0174128 -1.35999e-20)
(0.995361 0.0180912 6.87826e-21)
(0.994689 0.0180098 -8.80047e-21)
(0.997832 0.00498745 -1.53233e-20)
(0.997585 0.00510007 3.81224e-21)
(1.00511 0.0127437 -9.76107e-22)
(1.00541 0.0131936 -8.86668e-22)
(1.00499 0.0131352 7.75106e-22)
(0.979204 0.00649594 2.27215e-23)
(0.978069 0.00644886 -2.10195e-21)
(1.10332 -0.0264123 1.25766e-20)
(1.10327 -0.0304738 1.31469e-20)
(1.09989 -0.0276137 -7.69706e-21)
(0.970103 0.0641663 9.13214e-22)
(0.969417 0.0665926 -8.8406e-23)
(0.96743 0.0641473 7.64616e-22)
(1.10079 0.244945 0)
(1.09205 0.240569 0)
(1.1013 0.235506 7.59139e-21)
(0.423063 0.00948942 3.12691e-20)
(0.565406 0.0231896 -3.0932e-21)
(0.477073 0.0166465 2.85915e-20)
(0.965196 0.0409857 0)
(0.963476 0.039596 0)
(1.136 0.0498116 0)
(1.00622 0.0423439 -7.88512e-21)
(1.05136 0.0452579 0)
(1.00222 0.0179524 2.03247e-21)
(1.00217 0.0173024 1.13849e-20)
(1.00269 0.0176146 5.51217e-21)
(1.06895 8.31835e-05 -4.63288e-21)
(1.06937 0.00177882 -1.32616e-20)
(0.998708 0.0021264 5.12111e-21)
(0.998638 0.00195249 6.88547e-22)
(-0.246002 0.0269292 1.68461e-20)
(-0.24973 0.0267746 1.067e-19)
(1.18506 0.185859 4.89866e-21)
(1.18875 0.179055 5.96283e-20)
(1.18053 0.179172 2.08085e-20)
(1.34422 0.235625 -2.99383e-20)
(1.33147 0.237523 5.68242e-20)
(1.33463 0.227843 3.71664e-20)
(-0.152872 0.171879 3.03831e-20)
(1.0151 0.00457647 -2.35908e-21)
(1.01524 0.00491822 -7.76499e-22)
(1.01547 0.00463204 1.14981e-22)
(1.05405 -0.00433601 -4.53723e-21)
(1.05551 -0.00405508 -1.1262e-20)
(1.00141 0.0286531 3.60283e-21)
(1.00226 0.0282206 4.0088e-22)
(0.97827 0.073093 -4.772e-21)
(0.981228 0.0724383 1.8409e-20)
(0.978913 0.0701434 6.65582e-21)
(1.10153 0.0144488 -8.96084e-22)
(1.00003 0.000902503 0)
(1.00002 0.00073389 0)
(1.00001 0.000735848 7.51924e-23)
(1.05483 0.121153 2.00378e-21)
(1.05862 0.118974 9.43803e-22)
(1.0577 0.124962 3.14663e-21)
(1.01034 0.00113745 -1.98814e-21)
(1.01028 0.00148258 -4.31053e-21)
(1.01611 0.00030935 -2.40097e-23)
(1.01619 0.00024871 2.66387e-22)
(1.01596 0.000197293 5.7862e-22)
(0.993463 0.0349198 4.83524e-21)
(1.10042 0.252721 0)
(1.10963 0.247747 -2.99493e-20)
(0.99999 0.00027421 -9.60351e-21)
(0.999992 0.000132987 -7.04788e-23)
(0.999993 0.000132044 -9.13332e-21)
(1.05529 0.0377431 6.30699e-22)
(1.05465 0.0397895 -7.72611e-21)
(0.98099 0.0174653 -8.79856e-21)
(0.981193 0.0164039 -9.10648e-21)
(0.982006 0.0171502 -1.8203e-22)
(0.970879 0.0618529 -6.02226e-21)
(0.972814 0.0639235 0)
(-0.183085 0.0434207 -8.98989e-20)
(-0.176381 0.0700367 1.23645e-19)
(-0.204763 0.0599728 7.99939e-20)
(1.00174 0.0182886 -5.94359e-21)
(0.999415 0.00132211 6.63082e-21)
(0.999432 0.00144148 3.85063e-21)
(1.00255 0.00162872 -3.54291e-21)
(1.00257 0.00185147 -1.62611e-23)
(1.0028 0.00177363 -4.14404e-21)
(1.03416 0.0123971 0)
(1.03481 0.0117473 -3.39966e-21)
(1.07901 0.151019 0)
(1.08134 0.157037 0)
(1.07389 0.154692 -5.62297e-21)
(1.22021 -0.000776445 4.02769e-20)
(1.22539 0.00294648 -1.67282e-20)
(0.938684 0.163205 1.55788e-21)
(0.937034 0.171156 -1.09648e-20)
(1.31015 0.0623002 -2.12034e-20)
(1.33797 0.0621616 2.33276e-20)
(1.3402 0.0677481 -1.06553e-19)
(1.10366 -0.0232294 8.86827e-21)
(1.10673 -0.0259516 0)
(1.0788 0.0522453 -8.92157e-21)
(1.07967 0.0494339 1.81642e-21)
(0.979911 0.017727 1.17859e-20)
(1.01583 0.000797388 1.55181e-24)
(1.03876 0.0303654 0)
(1.0393 0.0292468 0)
(1.03796 0.0293266 0)
(1.00001 0.000215056 1.86851e-23)
(1.00003 0.000334526 -2.34968e-22)
(1.29953 0.0541249 0)
(1.29352 0.0571961 6.40588e-20)
(1.30062 0.059052 7.11709e-21)
(0.991851 0.0221343 1.26701e-20)
(0.991155 0.0228418 8.56635e-21)
(1.02443 0.0439224 5.33377e-22)
(1.16699 -0.144323 1.84006e-20)
(1.16072 -0.137669 0)
(1.15679 -0.147817 0)
(1.0058 0.0223964 2.1952e-21)
(0.982171 0.079042 4.25065e-22)
(0.984171 0.0770573 -2.58249e-21)
(0.985165 0.080116 6.08896e-21)
(0.973429 0.0510893 3.76359e-21)
(1.17218 -0.154208 9.32358e-22)
(1.17695 -0.142215 1.48973e-20)
(1.03679 0.00511684 0)
(1.03716 0.00445588 0)
(1.03755 0.00536524 0)
(0.945758 0.065841 5.16176e-21)
(0.949292 0.0676977 4.99328e-21)
(1.04505 0.193734 4.0629e-23)
(1.03648 0.193583 -1.52837e-21)
(1.05029 0.123696 1.25277e-21)
(1.05146 0.117911 -3.64033e-21)
(1.0343 0.0591259 0)
(1.03629 0.05771 0)
(1.03374 0.0570162 0)
(0.99431 0.00884148 -7.67337e-21)
(0.994243 0.00926143 0)
(0.993873 0.00900254 8.84557e-21)
(1.25297 0.0529186 0)
(1.26254 0.0615263 -1.77996e-20)
(1.14268 0.141641 -8.28026e-21)
(1.14319 0.14908 -1.85002e-20)
(1.04514 0.00830949 6.84636e-21)
(1.0463 0.00774672 2.42117e-21)
(1.04612 0.00885915 2.37892e-21)
(1.0838 0.146893 0)
(1.07686 0.145462 1.75447e-22)
(1.00155 0.00864289 1.07703e-24)
(1.00137 0.00852205 0)
(1.00145 0.00883244 -4.79357e-21)
(1.00512 0.0108539 3.78273e-21)
(1.00476 0.0107679 -3.97498e-23)
(1.00177 0.00879551 -8.69387e-21)
(1.00167 0.00840875 4.6408e-21)
(0.979091 0.0779964 9.17066e-21)
(0.980081 0.0813018 9.9309e-21)
(1.31301 0.238607 -3.44703e-20)
(1.2946 0.229442 -6.73071e-20)
(1.29205 0.23984 4.47223e-21)
(1.05541 -0.0161104 -5.32041e-22)
(1.05383 -0.0168111 -8.80484e-21)
(1.054 -0.0150923 -9.31353e-21)
(1.00002 0.000568736 -4.22587e-21)
(1.00003 0.000729627 2.01956e-22)
(1.00003 0.000726178 -3.87311e-21)
(0.966993 0.0400734 -2.31562e-21)
(0.966859 0.0422961 0)
(1 0.000111961 -3.8807e-21)
(1 0.000108191 5.70636e-23)
(0.999982 0.000411416 -4.90899e-21)
(0.999983 0.000417898 8.87287e-23)
(0.716004 0.307463 3.83649e-20)
(0.994609 0.00951115 0)