/*--------------------------------*- C++ -*----------------------------------*\
| =========                 |                                                 |
| \\      /  F ield         | OpenFOAM: The Open Source CFD Toolbox           |
|  \\    /   O peration     | Version:  v2012                                 |
|   \\  /    A nd           | Website:  www.openfoam.com                      |
|    \\/     M anipulation  |                                                 |
\*---------------------------------------------------------------------------*/
FoamFile
{
    version     2.0;
    format      ascii;
    class       volScalarField;
    location    "850";
    object      ddt0(omega);
}
// * * * * * * * * * * * * * * * * * * * * * * * * * * * * * * * * * * * * * //

dimensions      [0 0 -2 0 0 0 0];


internalField   nonuniform List<scalar> 
9793
(
-2.15022e-05
-3.48549
-6.10658e-05
-0.680297
-0.000117835
0.0428947
-0.00385359
-0.301081
-2.56593e-05
-6.30278
-3.5329e-05
-3.74834e-05
2.38963e-05
-0.620102
-0.000174567
-0.000101581
0.00172836
0.000102969
-5.07283
-0.000177751
-5.17743e-05
5.30617e-08
-0.146383
-0.273477
-0.437924
-0.000121837
-4.17415e-06
3.37892e-05
-0.000171577
-0.0019068
-0.638582
0.0226838
-0.000135279
-3.90043e-05
-0.00015971
-0.000185053
0.000114559
-8.61773e-05
0.240336
3.24977e-05
-0.000385783
4.0768
1.46952
-2.99757e-05
2.41637e-05
4.68995e-05
-2.00395
-3.38292e-05
4.98935e-05
6.64722e-05
-0.000222144
-0.000127306
0.000115314
-3.29817e-05
-0.000376756
-0.778439
4.47281e-05
0.01325
4.25608e-05
8.5999e-08
-7.34073e-05
-0.0092334
-4.05244e-05
-0.00122074
6.63826e-05
-1.67544e-05
-8.50039
-6.73225e-05
0.000113881
-0.306338
-6.27962e-06
-0.00232802
-0.518414
5.1698
-8.5481
-1.74417e-05
-0.00227552
0.042993
-1.84942e-05
-2.61371e-05
-0.00404741
-8.64494
0.00159271
-9.70114e-05
9.34353e-05
-0.0196224
-0.000102327
-0.0132532
0.30718
0.00181882
-1.06562
-12.0437
13.2913
6.08486e-05
1.03012
9.93924e-06
-7.23337
0.000763057
-4.5047e-05
-6.76542e-05
-0.632947
0.000125222
-1.10081
1.79807e-05
1.59543
-0.688621
4.31227
-7.10678e-05
-9.93974e-06
-5.83094e-05
-3.53871e-05
-0.539917
0.220288
0.185851
8.94704e-06
-0.0001055
5.10138e-05
0.0001055
-0.925199
1.84171e-05
0.882406
-0.0106336
-0.0625017
0.000308935
9.91298e-05
3.32093e-05
0.00245766
-0.225581
-0.0161818
-0.0159515
7.38997e-05
-6.84654e-05
-1.15133e-06
-4.96494e-05
-0.000112181
-0.0269322
0.0797707
4.61387e-05
-4.57648e-06
0.00345326
-1.86214
-0.00014794
9.73295e-05
-0.00546589
-2.25484
-0.206262
2.68337e-05
-2.10819
-4.80516e-05
4.10091e-05
-5.09095e-05
7.02905
-8.33045e-05
-7.38459e-06
-1.05301e-05
-2.52304
0.00229866
1.7854e-05
0.161396
2.20738e-06
-0.00702472
1.41639e-05
-4.46343e-05
0.0129692
2.5191e-05
0.849613
-0.946706
2.62302e-05
3.14241e-06
3.04296e-05
4.45795e-05
-4.39924
2.98828
-0.323217
2.41741e-05
0.0467088
-0.0167417
-0.129791
-1.28945e-05
-4.71312e-05
1.33205
-1.94124
-0.0148444
5.75955e-05
6.28717e-05
-3.18757e-05
-0.828235
-0.736392
-4.49544
-1.35388
-3.22388e-05
-19.8558
-0.0447719
-2.52521e-05
-1.48778e-05
-3.07275e-05
0.110634
-3.89567e-05
9.42603e-05
2.16357e-05
1.6927e-05
-6.99688e-05
-0.000330907
6.14323e-06
0.107082
5.10639e-05
-1.18149e-05
1.78956e-05
-4.95373e-05
0.149626
0.00284097
-0.139096
-9.173e-05
-3.68493
-0.000152361
-0.00244796
-0.000142802
-0.0231576
-7.45237e-05
4.24216e-06
0.00139662
-6.87901e-05
0.0287301
0.955418
2.81979e-05
2.86131e-05
0.000713062
-0.0728484
0.000780234
-0.00125101
-0.870455
-0.0197244
-0.00201981
-0.0013353
-0.0222082
5.17251e-06
1.64488
2.57578
-9.77297e-06
-7.53859e-05
2.24641
2.47854e-05
-3.14457e-05
0.0189266
0.032069
-1.8896e-05
-5.27646e-05
-1.00073e-05
-0.000577175
-1.85561e-05
-1.39249e-05
-0.000574203
-0.949366
-4.48293e-05
-0.390298
-4.18384e-05
0.000129608
-0.000176584
-0.721555
2.46648e-05
-8.02621
-1.37962
-6.61947e-05
-6.14878e-06
1.06473
-5.73694e-05
-3.62905e-05
-2.27981e-05
-1.30466
0.0654986
1.04381e-06
-0.0313485
0.0130671
-1.2006
3.92249
-1.10361e-07
-10.4152
0.000131487
0.000734175
4.93484
0.514218
1.26104
-0.0162447
8.85034e-05
0.00093247
2.62089e-05
-7.45324e-05
3.02829e-05
-0.00699759
-0.000155447
1.25869e-05
1.17366e-05
-4.64183e-05
-0.000191377
-5.47931e-05
1.73478
1.29691e-06
-0.000184417
-0.000247509
8.77527e-06
-0.835948
-0.195717
0.000420253
-7.04228e-05
-0.00486394
-0.00033108
0.723424
1.65758
2.14664e-05
-7.31573
-0.000819005
-6.52723e-06
-10.9849
2.38018
-0.000144168
-0.000557179
0.238445
-4.64553e-05
-0.000283474
-0.000186526
-4.30157e-05
-0.157984
-0.000145954
-3.4392e-05
4.59214e-05
-4.32492e-05
-0.0349519
0.0311755
-3.96377e-05
-0.000106837
1.49809e-05
-3.77386
-0.446285
0.495102
8.14716e-06
-0.00116074
-0.00021567
-0.326894
0.00643275
4.22511e-05
6.06797e-05
1.38789e-05
0.000997508
-4.75066e-06
-0.655004
-7.97441e-05
-2.95263e-05
1.24165
2.01442
-11.9921
-0.000202476
-0.529503
-9.80367e-05
0.220857
-0.188102
-0.765001
-0.000129877
0.000107931
0.0749257
-1.11433
-0.819773
-7.91393e-05
7.78748e-05
-3.29586e-05
4.51782e-05
-0.000145349
-1.55272e-05
7.67473e-05
4.88286e-09
-0.493085
2.64313e-05
0.00210459
-4.40478e-06
-0.633398
4.30406e-05
-0.000112455
-2.15547
0.0184846
-0.405865
0.00551845
3.25774e-05
-0.000129423
-4.1638e-05
-0.182411
-4.79673e-05
-9.55853
-0.0184183
-0.0105278
0.374613
-0.342871
-0.000182818
-1.92542e-05
0.0475041
-0.0567035
0.0001019
-0.639992
-0.000218452
0.00016204
2.73028
-2.57016e-05
0.0175757
5.64803e-06
-1.01315
-1.71017e-05
2.44134e-05
1.14334
-0.000821852
-0.00744771
-6.63719e-05
3.32721e-05
5.16195e-05
-0.44193
0.000699291
7.02399e-05
-0.000102676
-0.000329049
0.000411901
-0.00737904
-2.63962
4.24499e-05
-7.92867e-05
-0.453054
1.69156e-05
-0.645614
0.0160019
6.31449e-05
-0.000111465
2.62655e-05
-0.000216464
4.78049e-05
-0.715865
4.46336e-05
-0.740166
-7.09398e-05
1.93513e-05
0.000299152
-0.000100014
-1.04596
-7.78265e-05
-9.72788e-05
-6.9131e-05
-0.207996
3.3103e-05
1.56687e-05
1.64887e-05
-3.81925e-05
3.81667e-05
-6.46746e-05
8.7449e-05
-0.000101615
-1.61712e-05
2.30857e-05
0.015527
6.862e-05
0.0444894
-5.62526e-05
-0.0085716
4.79118
-7.24855e-05
1.23304
-0.00198633
-7.85412e-06
-0.000166287
0.000116209
0.805766
0.0161341
-0.000154324
-0.000126858
0.000141218
-0.000454373
-0.0180102
-0.234701
7.26487e-05
2.31983e-05
-0.000247106
-1.39703
0.388172
1.74804e-05
-7.31415e-05
0.212959
2.23588
0.0821592
-7.11865e-06
-8.24155e-05
0.037106
9.00748e-05
-0.0154877
-0.41307
1.31961e-05
0.0299566
-2.39901e-05
-0.69008
4.94762e-05
0.123537
-0.0989255
-7.15842e-05
1.35845
5.30951e-05
-0.383506
-2.46382e-06
1.35453e-05
-7.91939e-05
7.14128e-05
-3.29402
2.80021e-05
2.20292e-05
-3.35e-05
8.55568e-06
-0.000101173
-0.00111758
-5.80012e-05
-0.000962861
-0.00011361
-7.50337e-05
-2.1343
-4.77919e-05
2.22247e-05
-0.220196
1.27523e-05
-3.11537e-05
-2.03224e-05
2.95617e-05
0.735295
3.23277e-05
9.79113e-05
-1.07984
3.68282
-0.000951073
0.000133156
-6.12004e-05
2.23558e-06
3.77023e-05
-0.677638
-2.82555e-05
-1.10985
0.000109744
-0.0893391
-2.6524e-05
-4.81626
-2.49746e-06
-0.0576896
6.8233e-05
-0.0313075
-3.23775
-2.13684e-05
1.66146
-9.26236e-05
7.17495e-06
-3.57492e-05
-0.66035
-0.163905
7.91075e-05
-2.70869e-05
3.8084e-05
0.3397
0.000137357
-0.000671311
-1.38709
-7.83587e-05
0.000179742
-0.00128136
4.79201e-06
1.14908e-05
1.70566e-05
0.00594718
0.000126259
0.593316
9.15824e-06
-2.9573e-05
-0.00260165
0.0019265
-0.00329761
-0.000190938
-7.47082
-6.32265e-06
-0.0372562
-3.19025e-05
4.00131e-05
3.49219e-05
5.64882e-05
-5.39547e-05
-0.0247326
-0.00230478
2.60916
0.00647626
-0.00026407
-0.000548947
-0.495865
-5.02843e-05
-0.751073
-0.121176
-0.0783002
-0.71411
-0.217283
-0.0346469
-4.28913e-06
-0.154153
-0.0026401
5.24401e-05
-0.15061
-1.95895e-05
0.0119799
-0.000561256
0.0976491
-2.28306e-05
1.17952
0.590895
-0.00185549
0.0801033
-5.08961e-05
-0.190738
5.3337e-05
8.27561e-05
1.85019e-05
1.44805e-05
0.000447457
-0.823211
-0.0520927
-1.40781
-5.44847e-05
-2.64197e-05
-0.113016
-0.011233
-0.000150485
0.00435085
-6.10528e-05
0.49053
1.35426
0.000105148
0.000435408
0.0623981
0.942717
1.33448e-05
-1.76058e-05
2.45869
-0.00029302
-0.149267
-0.0335013
-0.652834
-5.71244e-05
-5.35796e-05
-3.75243e-05
-3.01197e-05
0.0170919
2.39087e-05
-0.0222071
0.0105597
0.00252523
4.2247e-06
7.46614e-05
4.03745e-05
-5.64835e-05
-0.000157867
5.1015e-05
0.00249878
1.02525
-0.512659
5.07673e-05
-0.154057
0.000149931
-0.332459
-0.00312597
0.00482425
-0.000140256
-0.0156214
-9.4401e-05
-5.30223e-05
-0.00151774
5.16726e-05
1.43583e-05
0.00381303
-0.940447
-8.09842e-05
-0.00189389
0.537858
-4.28965e-05
-0.196953
0.558547
-2.88319e-05
0.00168698
-0.000141437
-3.14533e-05
-3.8716e-05
0.00128375
0.578384
-0.734335
2.26075e-05
4.32375e-05
-0.000155306
7.84251e-05
-5.49392e-05
-5.23548e-05
0.0638013
-0.00302015
-0.000186754
3.27293
-0.000268936
-0.000373621
-1.76068e-05
-6.49951
7.73474e-05
0.000172164
-0.0135518
0.0764049
3.1287e-05
9.65097e-05
-3.33888e-05
5.36972e-05
-0.000115823
-0.00188132
0.0680215
-4.55048e-05
0.00352939
-0.000167376
7.75072e-06
-0.0227213
-2.01828
0.174553
-7.37438e-05
-1.33923e-05
-0.227459
-8.68821e-05
-0.131903
-4.95146e-05
-9.38891e-06
-0.535687
-1.14134
-1.95919e-05
0.0190124
-0.000209381
-1.12611e-05
1.44362e-05
-1.67915e-05
1.45484
0.000111211
1.84385e-09
-1.31786
-0.00010965
-0.110638
-0.000198242
4.67917e-05
-3.12437
0.000216209
1.17779e-05
-1.78733e-05
-0.000400028
-0.441083
0.000129568
2.76524e-05
3.86535e-05
2.33482e-05
0.000149215
-6.95144e-05
-0.476155
-0.000178547
-1.47753e-05
7.8549e-05
-0.000469402
0.00265595
-8.28061e-05
-9.08776e-05
-2.38333e-05
-0.000125893
-0.000149906
-0.0090194
-1.13937
2.05136e-05
-0.621367
-6.5752e-05
-0.000125895
2.15565
-0.0233871
-7.69639e-05
0.00012053
0.0145457
0.00051283
0.000171598
-2.52051e-05
0.562259
-1.46479e-05
-0.00109324
-0.00011056
0.0175721
6.86408e-06
0.00010241
-6.47958e-05
-3.55191e-05
-1.6451e-05
3.51039e-06
-0.000135723
-0.0159042
6.89242e-05
6.14315e-05
8.86732e-06
3.1886e-05
-6.96924e-07
2.70232e-05
4.82879e-05
-0.000127738
-0.00207948
0.517314
0.000794264
0.00479888
-5.04033e-05
1.76946e-05
3.09766
-0.613762
3.11689e-05
1.1458
-0.261354
-3.61809e-05
5.38729e-05
-5.59348e-05
-0.0117648
-0.00286121
-0.150814
1.94698e-05
-0.000259114
1.20104e-05
-4.38186e-05
9.08145e-05
-0.00709449
2.17449e-05
-0.0372355
1.48694e-05
-0.00275777
-5.5564e-07
-1.8417e-05
-8.87246e-06
-0.00199979
0.000372802
-0.907344
3.48211
0.398078
0.000588182
-1.08471e-05
0.360072
-0.113335
-0.00468146
-6.71613e-06
3.59424e-05
0.0643589
-5.31992e-05
-0.519771
1.44691e-05
-0.000384684
2.78234e-05
7.50666e-05
-0.00015611
0.902505
1.37352
-0.507147
-2.25552e-05
2.20788
-3.35861e-06
0.299027
-1.10101
-1.53818e-05
-3.66521e-05
-0.000164981
-0.407068
3.994e-05
-0.219107
-0.000265456
0.0352569
9.36048e-07
-0.930898
-4.96807
-0.15394
-0.000407786
1.44755e-05
0.000175772
7.63318
-7.82387e-05
0.0232432
0.0537928
-0.00478724
2.29278
-1.4613
-1.26076e-05
-0.000130423
0.000136118
-0.0365911
-0.434835
-3.02496
-0.000159442
-0.373505
1.51837e-05
0.0269341
0.00551102
-0.883676
-0.87329
5.91291e-05
-0.000100931
-0.000473486
0.000122625
3.41005e-06
-0.888505
0.000129537
-1.10291
0.000183736
5.15404e-05
-0.0052037
0.0254254
0.04499
-5.66086e-05
-4.3944
0.264332
-0.391616
-6.03672e-05
3.93961e-05
-5.74185e-05
2.69783e-05
-7.83434e-06
-0.0428214
0.0936912
-3.50332e-05
-2.70543e-05
-0.00060665
-0.0304512
-0.000264175
5.2476e-05
-0.00293584
1.50353e-05
7.62138e-06
-5.45254e-05
-0.00884004
4.55318e-05
3.83435e-05
1.27944
0.00223006
-8.60855e-05
-0.646433
-0.00186519
3.80115e-05
-8.12851e-06
7.22707e-05
-1.50825e-05
0.000148333
-9.82203e-05
-0.760269
0.284775
-4.45008e-05
1.90301e-05
-0.000103684
-0.189136
2.55663e-06
0.817013
-0.000105885
-0.000206507
0.0368578
0.105042
0.00568237
1.03472e-05
-4.23513e-05
-4.46668
-1.09463
-0.0930428
0.0828952
0.00010909
-4.03519e-05
-0.000118621
-0.525095
-1.33435e-05
-2.2307
-7.07745e-05
-1.02567e-05
2.66778e-05
-8.03415e-06
7.65119e-05
-0.00297332
-8.7042e-06
0.481589
-1.29142e-05
-4.86979e-05
-3.57701e-07
5.04061e-05
-0.0802947
-0.591015
-0.00641427
-0.46123
7.12228e-05
-0.000672919
-7.19531e-05
-0.565388
-8.93117e-05
-8.40027e-06
-2.73926
-0.000544244
-0.00039465
2.09931e-05
0.0728023
2.05662
3.07562
-1.5045e-05
-0.000372878
0.0200329
-0.000678645
-9.74322
0.0142207
-0.0025381
5.47195e-06
-5.88788e-05
-0.0053444
-0.0136097
0.000142737
-0.0382447
-0.000201137
0.00015275
-2.32589e-05
-0.000136892
6.6354e-05
-2.10929e-05
0.368836
-0.000288011
-7.94025e-05
-0.00107093
-0.000116696
-5.41627e-05
-0.000177407
2.69445
0.00322799
-1.95061e-05
-0.587843
7.5127e-05
-0.454346
-0.000330336
-2.9575
-0.00157812
-6.80477e-05
6.27598e-05
-3.41018e-05
-0.325083
-0.0112355
-0.00162554
-0.0192542
-9.48099e-05
-7.55289e-05
-2.76244e-05
-6.67688e-05
-0.251958
-2.44489e-05
-4.47947e-05
0.0352645
0.0224261
-6.35543
-8.12323e-05
-2.95772
-0.000129118
0.000324467
-0.000716386
0.0485598
-0.078982
-2.63707e-05
-0.821529
0.102937
-6.38913e-05
2.63529
2.10952e-05
1.2817e-05
-2.0798e-05
-1.13789e-05
-2.61331e-05
-9.94315e-05
5.8694
-0.000361107
-0.000149549
0.0349798
-8.16292e-05
-0.715311
-0.226889
0.000147043
0.113886
-7.89262e-05
5.96764e-05
9.8031e-06
-1.02956
0.991354
-0.00285459
-0.000197351
7.12364e-05
-0.848252
1.36224e-05
-9.10588e-05
0.000106823
9.50642e-06
-4.36097e-05
0.334215
-3.37819e-05
-0.000167193
-0.000324271
8.11687e-06
-0.154533
-0.0133062
-0.0011135
-4.62175e-05
-1.20705e-05
3.67636
1.37037
-0.000139509
-0.000142108
-0.000140143
-8.796e-05
-2.05853
-0.564016
-0.0337933
-0.000161492
-6.75012e-05
2.29909
-0.206808
-6.27878e-05
1.22157
1.52215e-05
0.0019481
2.34367
-4.48241e-05
-4.5742
-0.589003
-0.00942246
-0.374816
-0.820756
-7.5391e-05
-3.8264e-05
0.0218633
-0.828862
-2.96392e-05
-0.277207
-6.84676e-05
-5.16286e-06
-5.88326e-05
-5.87854e-05
0.000109001
-4.99898e-05
-0.0205902
-0.191059
0.0309364
-0.000304522
8.44747e-05
-0.00196617
0.0704435
-0.00012642
0.137352
-0.00026103
-4.96392e-05
-8.02186e-05
3.8483e-05
-1.40072e-05
-0.000188964
0.0246862
-4.7809e-05
1.80591e-06
0.882567
-0.696526
-0.00131707
1.68133e-05
0.00146228
-6.84063e-05
2.44749e-06
1.40248
0.834807
8.38737e-05
-8.86141e-05
0.307044
-0.640764
-0.000254656
-2.19664e-05
0.0110302
-0.000150869
-5.47306e-05
5.48501e-05
8.70182e-05
-7.6429e-05
-1.7299e-05
2.25359
-0.0358743
-0.000188983
0.108719
-0.00132182
-0.740512
2.4014
1.23244
0.0569752
5.44243e-06
-7.88912e-05
5.78524e-06
7.75743e-05
-0.00417807
4.28244e-05
0.00134464
-2.98571e-05
-0.207039
-7.58097e-05
-1.14014
-4.6145e-05
-0.820946
-7.85728e-05
0.0222161
-0.000454334
0.070399
0.0219085
-4.78443e-05
-1.47888e-05
3.24397
0.00265417
-8.42204
4.90077e-05
0.485727
-0.000109761
-0.514631
-0.200582
-0.00144895
-9.11763e-07
0.00016956
-0.448714
-3.98991
-0.000574861
6.99288e-05
-0.635309
-0.0076257
0.000657057
5.44049
-0.0124042
-5.13329e-05
0.203731
1.23302e-05
-0.000662936
-5.07245e-05
-0.50301
-5.39385e-05
2.49714e-05
0.0346783
0.434787
2.45285e-05
0.000630822
0.000105884
0.00491361
9.25496e-06
-0.165236
-2.88074e-05
-0.00235499
8.17364e-05
7.31836e-05
-0.238355
-0.000276127
-0.780432
-0.692973
-5.38332
-6.40905e-05
-9.34716e-05
-8.92476e-05
-2.5352e-05
4.25723e-06
-4.12807e-05
1.67994
-4.31406e-05
0.116782
-0.0011456
-6.47597e-05
3.84722e-06
-0.00407378
0.0304123
-1.90548
3.60383e-05
-1.1864
3.5763e-05
-3.43462
0.0848369
-7.72695e-05
-7.467e-06
2.53564e-05
0.000275308
-3.78301
-0.000120018
2.30186e-05
-4.4656e-05
0.000599425
4.80258e-05
-0.348648
-2.79644
-0.538687
-0.00017719
-3.53055e-05
-1.09299
0.000132681
0.000376702
-0.000133323
-0.327388
-0.000535861
-9.84039e-06
-0.00326932
-0.0451981
-0.000114524
-0.246773
4.41255e-06
0.0393999
-0.038714
0.0479796
-0.090422
0.000172137
-2.72623e-05
-9.33298
-8.89856e-06
-0.000502038
0.00915746
-4.56879e-05
-7.82336e-05
-0.950264
-3.97015e-05
-0.00487687
3.14636e-05
0.00349341
-6.00399e-05
0.0422353
-2.93517e-05
-7.45979e-05
0.338026
-0.0689765
-5.15913e-05
-6.17606e-06
-0.0293401
1.17427
0.0138867
-0.1062
-0.000362372
5.56119e-05
-7.61229e-05
0.475743
-6.21563e-05
-1.96165
-0.00678667
-0.387405
0.000125809
2.02309e-05
-2.69934e-05
0.000791469
-0.00401209
-0.486226
-0.578535
0.507706
0.0997514
-0.000176888
-0.0396983
-8.39246e-05
-0.0123833
-0.000167781
0.000631696
1.46183e-05
-3.1281e-05
-0.000178564
-0.00949078
-9.15885e-06
-0.000140304
-0.00065512
-1.81847
0.752789
-0.00234161
0.582646
-1.41615e-06
-0.000108834
6.38162e-05
-0.0341278
-0.00331733
0.000377897
-0.015385
2.05641
-0.0004133
-0.0126607
-0.00013504
-0.000150996
9.92038
-4.45113e-05
-0.0940315
-5.8286e-05
-6.34755e-05
0.916916
-0.00100189
-0.000122087
-0.000723405
-0.0376677
-12.0029
-0.775527
-0.000324937
-0.0166328
-0.00447283
1.90813
-5.00789e-05
0.022784
0.211077
-3.73907e-05
2.65418e-05
4.20071e-05
0.0967912
8.236e-05
-3.2019e-05
-0.927902
-5.41865e-05
6.97094e-05
-0.0283674
-0.0116657
-1.0167
-0.770353
-0.327516
0.247853
5.16603e-05
3.4385e-05
-0.000167302
6.9596e-05
0.749827
-1.75372e-05
-1.08347
-9.61092e-05
-0.73779
-6.28118e-05
1.17467e-05
-0.000189496
2.00616e-06
-0.000673728
-1.30864e-05
-9.31009e-05
0.0531227
-9.32041e-05
-0.00646273
-3.26296e-05
-0.565847
-5.08986e-05
0.000167086
-0.000112508
0.002073
-6.80634e-05
-0.000107623
-9.68884e-05
-7.57251e-05
0.000100785
-0.000169969
-0.000166695
6.709e-05
0.671711
-0.66885
-1.15484
0.27892
-3.68724e-05
7.2025e-05
1.59443e-05
-0.000258498
-6.85945e-05
-3.81959e-05
-0.0498147
-2.84934e-06
7.53106e-06
6.60737e-05
-0.000123161
-1.22132e-05
-0.591662
2.49869e-05
6.99485e-05
8.85236
-0.00191776
-0.000272494
0.0724332
-1.24704
-3.53104e-05
-0.177053
-0.109889
-6.5343e-05
-7.10257e-05
5.27884e-06
-0.000101854
-0.000301784
0.000146352
-0.00291718
6.91106e-05
0.000132377
-0.000125871
-14.6947
-0.00013185
-0.000254803
9.06393e-05
2.2991e-05
-0.541448
-6.09867e-05
5.00555e-05
-0.000123848
-7.95183e-05
3.34739e-06
0.247152
9.68125
-4.50097
-1.53091
0.018609
-0.000646675
8.11639e-05
-0.662726
-0.0255917
-6.5758e-05
0.00410706
6.24979e-08
-6.19162e-05
0.000185691
0.064121
-0.00087082
0.000144283
-7.44208e-05
0.0487247
-1.72e-06
-0.0253568
0.000129879
-0.0279082
0.0296385
-1.6436
5.63734e-05
-6.21934e-06
-5.35541e-05
-0.000782298
-2.47219e-05
-0.000315833
-0.00282671
-0.290231
-1.38544e-05
-0.102499
-0.382613
4.47231e-05
0.748885
-0.00162201
0.0489526
-0.00796248
2.39059e-06
-0.000168106
-0.000239174
-0.000224399
-5.75297e-05
-9.53388e-06
-0.307839
-5.82541
-0.000322868
-3.91939e-05
-0.0168163
-0.000666758
-0.356474
-0.182804
-0.000183788
-0.000241154
-1.33597e-05
9.04866e-05
-0.00025023
-0.00140858
6.33045
-2.44789e-05
0.042251
0.000212953
4.13257
-0.0182845
0.279613
-0.000123649
-1.27018e-05
-0.00395299
0.0230564
0.000315818
4.95169
4.0814e-05
0.00237796
-0.000122913
-8.97391e-05
-0.633827
-0.0677643
5.24672e-05
-3.21074e-05
-0.00591418
0.0799878
-0.0420243
-0.00431268
-6.0545e-08
5.12729e-05
-0.00023866
-0.282327
-1.29369
-0.000105211
-0.00149946
-2.06108
0.00110497
-0.117602
-1.26315
-1.91815
0.470981
-0.000191909
6.50641e-05
-0.296653
-1.98283e-05
-0.00066819
-0.00699492
0.379682
-1.47108e-05
-7.57866e-05
-1.01249
0.00761244
0.0252467
0.502477
0.541006
-0.778334
7.01721e-05
-3.84684e-06
-3.26781e-05
-5.2985e-05
-11.0181
-0.000384269
0.0454519
0.125129
-0.00213659
-1.74146e-05
0.0875715
-5.33952e-06
-0.000377554
-2.11886e-05
-8.06822e-05
5.123
0.770407
5.87233e-05
2.01662e-05
-0.00209578
-0.064269
-0.0490262
-0.523589
-0.00115171
-5.96085e-05
0.00111145
8.06383e-05
-0.000230704
5.17344e-05
7.58988e-06
-0.220509
-0.0833291
-0.863029
-0.00259655
-5.00064e-05
2.10568e-05
-3.68276
2.21325e-05
-1.36095e-05
-0.000179177
-7.981e-05
-1.41833e-05
-1.78548
2.63678
2.43519
0.0138698
-0.00824733
-2.84079e-05
-1.21835e-05
-0.372831
1.9849e-05
-0.0326513
-5.97208
2.08478e-06
-0.144831
-1.30874
0.00050775
-0.000165434
-0.0784508
-5.38408e-05
-0.133131
-0.000429584
-0.201521
-8.94629e-05
-4.52388e-05
-0.000412322
0.170466
0.00725249
-0.0032808
-0.101444
0.229288
-0.000912549
0.0422359
-0.0873935
-7.79429e-05
0.0167283
-5.79692
-0.000443015
-0.00349318
0.30855
-0.000725424
-0.00170681
9.9917e-05
8.21089e-05
-0.000732563
-0.00187742
-5.1321e-06
0.577483
-0.0606449
-0.392335
-0.630557
1.71596
-0.000343321
0.0129002
1.04341
1.908e-05
0.0442606
-0.939677
1.16347
-0.000477678
-4.56514e-05
-1.44105
1.32482
5.422e-05
-0.0201623
-0.000174011
9.95391e-06
-0.258603
-5.66364e-05
-0.65523
-0.741546
-4.64823
0.535032
-7.49533e-05
-0.000242035
1.12936e-05
-3.27939e-05
0.00251746
0.00313044
-5.19068e-05
0.281463
-0.864037
-4.3748e-07
-6.92843e-05
-0.0257682
3.7214e-05
-0.0554657
-0.000326425
-0.669314
-0.334043
0.0363711
3.43472
-1.15455
-1.10724
0.0615844
2.27544
0.00018841
-0.000133176
-0.0142208
-0.0169213
-1.39431
0.0797404
-7.82126e-05
0.000217786
-0.579623
-0.778897
4.05803e-05
-0.366498
5.77517e-06
-0.00260003
1.46791
0.161809
-7.42344e-05
-0.766026
-0.123031
-0.000171839
6.93527e-05
-0.458459
0.198879
-1.84088
0.987869
-6.76386e-05
-0.651893
-1.1137
-0.000557443
-0.0607795
0.000396742
-0.000109926
-3.4739e-05
-0.587809
1.37873
-7.86966e-05
9.43905e-05
-1.59065
-4.18671e-05
2.94898
-0.00426483
-0.289058
-0.469568
9.49278e-06
-0.901375
-1.43071e-05
-0.000495871
4.00457e-05
0.000170425
0.000217609
-0.000406775
-0.0552908
-1.57679e-05
-16.5148
-0.0208664
4.41461
-0.638812
-0.982448
-8.24271e-05
1.16503
0.012802
-0.733472
-0.000264551
-5.4547e-05
-5.30438
0.0172441
0.898828
5.71996e-05
-1.59427e-05
0.000101495
-0.278771
-2.9219
-0.000601064
-10.7529
-7.63496e-05
-9.90246e-06
-0.810926
0.000201377
-4.69233
-3.98677e-05
-1.01157e-05
-1.23873
-1.65359
-0.700255
0.0838068
-0.437984
-0.924735
2.14744
-4.85305e-06
1.27217
-0.00019462
4.61276e-05
1.01047e-05
4.56073e-05
-1.0273
-0.000246357
-0.0123333
-0.704309
-0.00169811
0.0135488
-0.0221594
0.584644
0.0204523
-0.436429
-0.2244
0.0256824
-0.00572726
-1.23434e-05
-0.130602
-9.59285e-05
-0.0456463
-0.585653
2.21084
-0.170006
0.000158173
-5.89939e-05
0.00473567
5.34959e-05
-5.72112e-05
-0.000108689
-0.0853722
7.02488e-05
6.39379e-05
-0.348826
-0.0220328
0.0760379
-18.3176
-1.17955
-0.148868
0.522168
-0.659764
1.28672
-0.00632942
-2.32898e-05
1.93528e-05
-0.154703
-0.00972758
0.0380313
-0.000514776
-0.00106444
-0.000150515
0.0285
-4.32396
5.59932e-05
5.96272e-05
-0.000151474
1.37844
-7.13958e-05
-0.00013484
-0.00080268
-1.17148
-0.00013828
0.00159366
-0.0328082
-0.000298523
-0.00292199
-0.000185369
0.000101778
-0.000270975
0.0838222
-2.01921e-06
-0.00012535
-0.00402637
-2.23226
1.95543e-05
-1.10052
7.47892e-05
-0.391085
-3.15131e-06
-2.23447e-05
-1.75764e-05
-0.0196941
-0.00128882
-1.4674
1.3242
-0.00214157
-6.53833e-05
4.29107e-05
-2.64966
0.953714
-7.01963e-05
-0.0858735
-0.587716
0.000290198
-0.00262676
-0.000132044
-4.24242e-05
-4.69177e-05
-0.814437
0.000363716
8.37526e-05
-0.0643959
-4.2868e-05
0.000506948
0.0663818
-8.2826e-05
-0.0178848
0.000419489
7.94918
-3.75214e-05
-0.000107355
-1.84718e-08
0.00030439
-0.000100314
6.84732e-06
-0.993836
-0.157426
0.00080067
-0.000260573
0.923522
-1.45037e-05
-5.0442e-05
0.000182695
-0.78014
-0.234568
-4.09907e-05
-0.747106
0.169193
-0.00157245
-0.599446
2.64871
-0.612252
4.38123
-0.00375775
-0.0123042
-0.0150906
-2.60748e-05
0.000148236
-3.91851e-05
-0.00038352
-0.396652
-0.000102168
-0.931336
2.07548e-05
0.00898296
-0.00999415
-5.1483e-05
-0.000164654
-1.25374
13.574
3.54141
-1.40438
-5.69311e-05
-0.0177149
-0.986717
-6.28695e-05
2.12741
-0.00107166
0.00291127
0.459595
-0.000248484
-7.78371e-05
-0.00826439
-0.014818
-4.23019e-05
-1.173
-3.26765
-6.52279e-05
0.000133724
0.00012646
-3.21593e-05
-0.735122
-4.1005e-05
0.000200465
5.24885e-05
7.68247e-06
-0.000101587
3.23638e-05
-0.805973
0.00200926
-5.18281e-05
7.38769e-06
0.0088081
-6.22321e-05
0.000145036
2.80543
-0.599187
-0.00166897
0.0105302
0.000664416
-3.65016e-05
0.0231622
-0.391845
-0.000477199
-0.948329
-4.50649
-0.00108732
-0.000444679
8.48401e-05
0.00096426
-0.000491447
-0.559281
-0.00016117
1.67102e-05
-7.74565e-05
1.74751
0.0732103
-0.000587169
-0.0318548
-7.10871e-05
2.1784e-05
-0.00903199
0.0174694
5.73542e-05
-0.00185235
1.3886
-0.00034727
2.4612e-05
1.51641e-05
0.454935
-0.638602
-9.18087e-05
4.84386
-0.000523197
0.0282616
0.107575
8.86697e-05
0.511529
-0.000317965
6.34146e-05
1.2366
0.0196355
-8.49945e-05
-0.000135378
0.0487684
-6.48748e-05
-2.65312e-05
-0.0425948
-0.000721356
5.7473e-05
-1.35971
-5.42267e-05
-0.00376419
0.948417
0.000109753
2.68643
-0.568122
-5.82088e-05
-0.0113688
0.0615646
1.32848e-05
0.022253
-0.00016669
-0.295358
0.047147
5.00696e-05
0.249606
1.0615
2.16503e-05
5.90178e-05
-0.0311303
-0.0023782
-0.535876
-0.997596
4.72143e-05
0.00024963
-0.444727
-0.000110803
-0.00133498
-0.013183
-0.000503924
1.25928
0.0876786
2.94267e-05
0.0245627
3.07049
-4.79536e-05
3.90999
-7.03158e-05
-4.38522e-05
-6.995e-06
5.32124e-05
1.47963
0.000130032
-0.000979143
-10.8527
-2.44859
2.14417e-05
-0.000356439
-0.146832
-0.986627
-6.88251e-05
3.63576
-4.59535e-06
-0.00615075
-4.12236e-05
-0.000106145
-2.50884e-05
5.52003e-05
-9.29408e-05
-2.97756
0.000154071
-0.000529535
-7.25453e-05
1.80737
2.78009e-05
4.57944e-05
-3.46998e-05
-4.64799e-05
1.42903e-05
0.000491006
-2.24787
-0.381505
-0.000460012
2.0926e-05
0.000130135
-0.000251216
0.00137395
-0.297483
-0.396314
-1.24064e-05
-7.66179
-7.39582e-05
0.400773
-0.595857
1.46923
-0.000177254
-0.0125682
0.00650812
-0.067963
-0.00919696
-7.46887e-05
-0.108464
-0.0178869
1.02718e-05
2.49935
7.67381e-05
4.18707e-05
-0.000204229
0.689745
-1.95979e-05
-0.573445
-3.30211e-05
-4.8468
-0.0023996
0.000155512
-0.70847
-0.000168226
-1.51747e-05
0.0940018
8.07572e-06
-0.319222
0.974254
0.0608947
-5.23575e-05
-0.0217525
-1.20123e-05
-0.00566848
9.61676e-05
4.39584
2.6169e-05
-8.59508e-05
-0.000259864
-0.000246145
-0.000732323
-0.653557
2.62716
-6.14417e-05
0.00857361
-7.6545e-05
0.814075
0.236062
-0.0496478
-1.00124e-05
0.000194492
5.93106e-05
-0.530279
-2.01385e-05
-6.01215e-05
-0.711798
0.00501609
3.44155e-05
0.0641163
0.00826541
-0.000106377
-0.000269741
-0.0070232
-0.00350442
-0.00618793
-0.000331499
0.714007
-0.755472
-0.0115004
-0.000140939
-4.93642e-05
-0.000143765
-4.86476e-05
-0.00882979
0.00266154
-0.000159489
0.00636933
1.30945
-9.99024e-06
4.54685e-05
-0.188183
-0.103458
0.0537908
0.0725093
-0.000222851
-1.34812e-05
-5.94539e-05
-0.000116737
-9.07199e-05
-0.000636458
4.71888e-06
1.28586e-06
8.49606e-05
-8.93854e-05
-8.66908e-05
-6.10937e-05
-0.00159401
-0.00171244
-1.63454e-05
-7.89368e-05
-8.30598e-05
2.68026e-05
-2.28191e-05
-0.00407966
5.17961e-05
-1.47302e-05
-0.0546269
-3.35834e-06
-9.94438e-05
-5.44602e-05
-0.000101194
-0.499283
-0.434681
-0.597946
0.154389
0.0853983
0.0704197
7.88414e-05
0.000715777
-1.46331e-05
0.0860027
4.19144e-05
-0.000230873
-4.84533e-05
0.00189369
6.53843e-05
-0.000112807
4.97747e-05
2.03046
-0.00859533
3.32474e-05
1.84234
0.433404
5.59894e-05
-0.0302089
4.2184e-05
1.01922e-05
-4.68129
-9.07419e-06
0.00137056
0.0105825
4.7485e-05
2.42913e-05
0.00220437
0.652764
-4.91948e-05
-3.38281e-05
-0.6723
-3.76894e-05
-1.63622
0.00123913
-1.25737
-3.13459e-05
-1.32199
5.31689e-05
-1.85018e-05
0.0736991
0.00298714
-5.3485
-0.380829
-1.20918
1.54728
-0.0511732
-0.0166891
-0.000235467
-0.0487167
5.37035e-05
-5.51322e-05
0.0029413
-7.44261e-06
2.56763e-05
-3.33294e-05
-9.82522e-05
-0.0087031
-0.440062
-1.47461
-0.171514
1.25273
-3.29398e-05
-0.000140575
-0.000192359
-4.4451e-05
0.00797718
-6.23685e-05
8.02741e-05
1.40752e-05
-3.81018e-05
6.03247e-06
-0.02013
-0.0253711
0.000589165
3.80285e-05
-0.000420762
0.000110574
-7.21629
-0.779084
-6.92371e-05
-5.54035e-05
5.74983e-05
-1.17646
-1.18637
-4.96702e-05
-0.00010625
-0.000118123
4.91122e-05
0.0836991
0.0529599
-0.981263
1.72443e-05
5.46302
-5.69514e-05
-0.828539
0.00135224
-1.14202e-05
-0.000221964
-0.250571
-0.00011366
-0.000129406
-0.000390804
0.00348341
1.52585
2.06464e-05
-0.000116472
-0.000252703
-0.0395299
-0.00018297
1.8911
1.44054
-1.45229e-06
-0.000157808
-3.6192
-0.01502
-2.05349e-05
-2.1239
-4.85732
-0.561081
0.172862
-0.000170682
-0.205389
4.61161e-05
-1.75205
0.331662
-0.100087
-0.0150857
-0.00012846
0.575406
-0.000258573
-3.52542e-05
-4.80315e-05
-0.021748
7.6583e-05
0.438391
7.94216e-05
-2.0578e-05
-3.39523e-05
-1.01116
-6.39062e-05
-4.87756e-05
0.000123775
4.27237
-0.430755
-1.06515
-0.775469
-0.00356159
-1.18048e-05
-4.10421e-05
-0.0144362
-0.00453606
-5.82818e-05
-0.00433683
-0.0339518
2.40056
-1.87135e-05
12.2666
-0.992236
-0.00225275
-4.1489e-05
-5.29485e-05
-0.000100622
-3.22972e-05
-7.86878e-05
-0.00012508
2.00909e-06
0.00182851
-8.19453e-05
-0.0365542
-4.65249e-06
-5.44124e-05
1.10189
-0.0173724
3.49078e-05
-7.34933e-05
-0.622276
1.13392e-05
0.000152304
-0.000108988
-3.22443e-05
-2.10278
-0.000514262
-5.85581e-05
-0.000133627
2.84785e-06
-9.5983e-05
-9.20559e-05
0.0442775
-2.06787e-05
6.28519e-05
-8.19212
-1.49681e-05
0.0679457
-2.32251e-05
1.67522e-06
-0.0164493
-0.000155949
-0.000101413
-3.34793e-05
-0.38911
8.11848e-05
-1.25442e-05
0.121159
-7.61079e-05
2.67764e-05
-6.3296e-05
-2.01892
-0.000277723
-0.0305378
-8.94914e-05
-0.000169385
-0.000120648
-0.000102382
-0.000214168
-0.000193021
0.712354
-2.48899e-05
-0.000224003
-6.2665e-05
-0.0329565
0.0733576
-0.00011378
3.77514e-05
0.269119
-0.000273262
7.8047e-06
-0.0756029
-0.000313146
-0.000284076
-0.670153
-0.000212501
-5.66493e-05
-5.794e-05
1.27367e-05
5.27469e-05
-7.561e-08
-8.93525e-05
-0.000191307
0.000191536
0.000211428
-0.000129403
-3.43912e-06
0.00627026
-5.23849e-05
-9.57703e-06
4.06451e-05
-9.4323e-05
-1.4251
-4.55859e-05
5.43554e-06
-0.00276221
4.56612e-05
2.78911e-05
0.105127
0.711622
-0.327145
2.46904e-05
-0.000145319
-0.00132216
-0.000102483
8.86094e-05
-0.000172016
0.0094848
-0.000102061
-0.00184117
4.99199e-05
-7.50829e-05
1.42671e-05
0.000147202
-0.000189346
0.00032987
-0.00019291
-0.000128907
2.41551
-5.69103e-05
-0.000153091
-5.59221e-05
-2.9002
0.495082
-0.595678
2.43951e-05
0.000942757
-0.000191847
9.44459e-05
3.24237e-05
-0.000134826
-0.599918
-0.606514
-2.42898e-05
-0.000185087
3.13477
9.73284e-07
0.0230204
-2.5847
0.615153
-0.000303098
2.79628e-05
0.000405016
-0.00181305
-0.0367542
-0.890134
-0.287503
-0.274206
-7.51028e-05
-8.10656e-05
2.87317e-05
0.0100303
-5.30365e-05
-5.61764e-05
-0.000395072
6.66715e-05
-6.76313e-05
1.59109e-05
9.1359e-05