/*--------------------------------*- C++ -*----------------------------------*\
| =========                 |                                                 |
| \\      /  F ield         | OpenFOAM: The Open Source CFD Toolbox           |
|  \\    /   O peration     | Version:  v2012                                 |
|   \\  /    A nd           | Website:  www.openfoam.com                      |
|    \\/     M anipulation  |                                                 |
\*---------------------------------------------------------------------------*/
FoamFile
{
    version     2.0;
    format      ascii;
    class       surfaceScalarField;
    location    "850";
    object      meshPhi;
}
// * * * * * * * * * * * * * * * * * * * * * * * * * * * * * * * * * * * * * //

dimensions      [0 3 -1 0 0 0 0];
oriented        oriented;


internalField   nonuniform List<scalar> 
14470
(
0.0145248
-0.00454904
-0.00998575
0.00178837
0.00117803
-0.0204037
0.0202939
6.20516e-05
0.00087678
0.00117078
-0.00204756
0.00437396
-0.00455716
0.000221363
0.00555695
-0.00557116
1.52397e-05
-0.0038983
0.00770925
-0.00381028
0.000776432
0.00210743
-0.00288385
0.0158128
-0.00267575
-0.0131596
-0.000656766
-0.00656247
0.00712437
-0.00711403
0.00637724
0.000135753
0.0162914
-0.0166729
-0.00567598
0.00261111
0.00306405
-0.0225536
0.01627
0.00619659
0.0114007
-0.0138801
0.00248096
0.00840091
-0.00838021
-1.64585e-05
-0.020036
0.00636542
0.013582
0.00316102
-0.00265964
-0.000501357
-0.00719298
0.0152677
-0.00847316
-0.00915923
-0.0103256
0.0192798
-0.001508
0.001508
0.000499599
-0.0024783
0.0019787
0.00252356
-0.00174712
-0.00366722
-0.00200954
-0.0026228
0.0105301
-0.00791163
-0.0174599
0.00540664
0.0119178
0.00167156
-0.00241946
0.000586705
0.0056036
-0.0131296
0.00668206
-0.001669
-0.00501222
0.00160317
0.00066294
-0.00226611
-0.00540443
0.00487685
0.000528248
0.0188158
-0.0186168
-0.000240975
-0.00351558
-0.0145289
0.0179445
-0.00146688
-0.0013079
0.00186057
0.00536941
0.00420607
-0.00957346
-0.0106766
-0.00144109
0.0121042
-0.00133055
-0.00719242
0.00852264
-0.00163332
-0.00213066
0.00376394
-0.0113031
0.00791128
0.00339224
6.66913e-05
0.0066162
0.00273953
0.0014977
-0.00423709
-0.000979528
0.00258088
-0.00160132
-4.75429e-05
0.0016479
0.00230574
0.0147524
-0.0170898
0.00256112
0.0146649
-0.0172671
-0.00141016
-0.0011706
0.00258077
0.00024405
-0.00141145
0.00118687
-0.0042458
0.0159073
-0.0117813
-0.00111751
-0.0190138
-0.00700899
0.012382
-0.00383281
0.00147377
0.0116307
-0.00809331
-0.00353514
0.00402549
-0.00377005
-0.00976386
0.00666282
0.00310165
0.00312198
-0.0022452
-0.0169278
-0.000401792
0.0170331
-0.000555855
-0.00656245
0.00712226
0.0100386
-0.0143897
-0.00141145
0.00972252
-0.00179166
-0.00793356
-0.0026858
0.00516594
-0.00247988
0.0194163
-0.0196174
0.0001497
-0.0128392
0.00226969
0.0105672
-0.000916502
0.00489637
-0.00474359
0.000449482
0.0153335
0.00116973
0.00118632
-0.00015754
0.0107682
-0.0106126
-0.000956973
-0.0111213
0.0120693
-0.00412886
0.00123581
0.00289324
0.0194594
-0.00852056
-0.010958
-0.000510078
-0.00341355
0.00392358
-0.00172695
0.00309439
-0.00136743
0.00957347
-0.00922391
-0.000347494
0.00331807
-0.00509657
0.00177896
0.00274631
-0.00345129
0.000631003
-0.00590566
0.0071626
-0.0012577
0.00464095
-0.00187277
-0.00276808
-0.0199954
0.00515385
0.0148298
-0.00374947
0.00385402
-0.000107748
-0.000394121
-0.0055115
0.00245176
0.000709287
0.00745743
0.000947209
-0.0114153
0.00252695
0.00888941
-0.011642
-0.00433326
-0.000428796
0.00476265
-0.00428978
0.000625507
-0.00973029
0.00810564
0.00163063
0.00204961
-0.00368298
0.00154884
-0.00423439
-0.00216739
-0.000692399
0.00285978
-0.000173443
0.00309428
-0.00292073
-0.0039095
0.0037362
0.00492553
-0.00831799
0.00339467
-0.00301885
0.00203936
-0.0195031
0.00370954
0.0157081
-0.00141907
0.00473751
-0.0074029
0.000190717
0.007215
0.0116511
-0.00204553
-0.00960762
0.000319561
0.00402473
0.00201382
0.0018539
-0.00386794
0.00238877
0.00924428
0.00800259
-0.00897239
0.00096911
-0.0160571
0.0183275
0.00604793
-0.00469887
-0.00134869
0.00371583
-0.00175577
-0.00195999
0.0088781
0.000696554
0.0159193
-0.0149728
-0.00128983
-0.0164847
-0.00354591
-0.00123387
-0.00406563
0.00399586
-6.86262e-05
0.00259752
-0.00209792
0.000771772
0.00202784
-0.00279961
0.00184278
0.000485953
-0.00232874
0.00487775
0.0145558
-0.0043836
0.0138136
-0.00945419
-0.00533949
0.0150252
-0.00968747
-0.0151669
0.000279658
0.0148131
-0.000839706
-0.00206633
0.00290604
-0.0142013
0.0168316
-0.00265926
0.00223491
0.00288093
-0.00511607
-0.0094269
-0.000295625
0.00499286
-0.00459714
-0.000395449
-0.000998429
-0.00765241
0.00865296
0.0125716
-0.0140289
-0.0163848
0.00214053
0.00844669
-0.00291031
-0.0055336
-0.00125427
0.00285745
-0.00565102
0.00804683
-0.00239281
-0.00873752
0.00308999
-0.0122813
-2.62092e-05
0.0122925
-0.0225558
0.00728526
0.0150943
0.00113548
0.0133753
-0.0114456
-0.000875863
0.0123152
-0.0123521
0.0107719
0.00157897
0.00237958
0.00245478
-0.004834
0.000128359
-0.00478679
0.00465952
-0.0120798
0.00673834
0.00287365
-0.000186067
0.00795898
-0.00299067
-0.00496544
0.00370265
-0.002697
-0.00100558
-0.00814452
-0.0198281
0.00603699
0.0137516
-0.0011513
-0.00801285
0.00916816
-0.00110025
-0.00157411
0.00267436
0.00142306
0.0022186
-0.00364151
0.0170264
-0.000646784
0.00118798
-0.00260689
-0.0113797
-0.0113222
0.000628655
-0.00444375
0.018095
-0.0137883
-0.00275824
0.00361332
-0.000855063
-0.000435405
0.0120812
-0.00834541
-0.00926964
-0.0170964
0.0160368
0.00103642
-0.00302093
0.00436382
-0.00134277
-0.000356087
-0.00802038
0.018919
0.000428156
-0.00112946
-0.00427451
-0.0128459
-0.00289633
0.0157063
0.0089604
-0.000849158
-0.0109197
-0.00137289
-0.0153065
0.00598341
-0.000542021
0.00272359
-0.00218152
0.00393076
-0.0169164
0.0129279
0.00201901
0.00262205
0.0085967
-0.00761418
-0.0009879
0.00172442
-0.0153283
0.0135651
-0.0147981
0.0165074
-0.00212227
-0.000547609
0.00640267
-0.00602334
-0.0107218
-0.00913733
-0.00195221
0.00304049
-0.00108827
0.00335322
-0.00209904
-0.00125418
0.00191113
-0.00539398
0.00348178
-0.0151894
0.0151028
0.00528898
0.000269115
-0.00549341
0.00241997
0.00307391
0.00388676
-0.000919367
-0.00296736
-0.0224563
0.0168272
0.00557891
-0.00274517
-0.00907165
0.0118132
0.00419114
0.00185702
-0.00251041
-0.00185346
-0.00756759
0.0154093
-0.012887
-7.81094e-05
-0.0138328
0.0138465
0.000749882
0.00351937
0.00147402
0.00113516
-0.0028621
0.00170254
0.0016507
0.00845742
-0.000457209
-0.0156325
0.00332353
0.0122791
-0.00053527
0.00198297
-0.0014477
-0.00328529
0.000547092
0.00273818
0.0100671
-0.00977571
-0.000297101
-0.013427
-0.00226297
0.015585
-0.0009986
0.0120515
-0.0110497
-0.00245895
-0.000291328
0.00275028
0.0159065
-0.00676508
-0.00956706
-0.00846724
0.0147616
-0.00963592
0.0102729
-0.000700429
-0.00641441
-0.00941997
0.0158114
-0.00531498
-0.0074683
0.0126635
0.0101084
-0.00216908
-0.00793566
0.0133712
-0.010372
-0.00300428
0.00106338
-0.00318389
0.00212051
-0.0178837
0.00383027
0.0140331
-0.00902945
0.0100572
-0.00102873
0.0142962
-0.0126066
-0.00329805
-0.0111592
0.0144425
0.00440488
-0.00326017
-0.00114463
0.0076065
0.00279846
0.000904227
-0.0133246
0.0135904
-0.000717012
-0.00320281
-0.000925873
-0.00242951
-0.00898315
0.0105589
-0.0120044
0.00144587
-0.0114471
-0.0111704
-0.00322243
0.0056024
0.00958161
-0.0139896
0.00652711
-0.00128378
-0.00524337
-0.00104244
-0.00635784
0.01058
-0.0160462
0.00249135
0.000180425
-0.0026718
-0.00271301
0.0065874
-0.00387627
-0.00283701
0.0077641
0.0201567
-0.00481273
-0.0154216
-0.00150988
0.00899492
-0.00748148
-0.00709135
-1.74387e-05
0.00710757
0.00547901
-0.00564019
0.000161246
4.99952e-05
0.00542865
0.001984
0.00123417
-0.00321819
0.0050322
0.00253863
-0.00756676
-0.000986056
0.0115491
-0.00480586
-0.00803416
-0.000627166
-0.00265814
-0.00105166
-0.0149336
0.0158243
0.00177077
0.00291317
-0.00107039
0.00481571
0.0106266
0.0086154
-0.00844854
-0.000144243
-0.00232214
0.0050619
-0.0208674
0.0183659
0.00244786
-0.00117178
-0.00295275
-0.00136053
-0.00542724
0.0067905
-0.000490753
0.0066827
-0.00618908
-0.0152125
0.00670548
-0.00945399
-0.00949854
0.000467747
0.00779286
0.000151742
-0.00794311
-0.0112587
0.00974731
0.00150405
-0.0173242
-0.00864365
0.00496092
0.00368417
-0.0024283
-0.000234019
0.00266232
-0.00556812
0.0159729
0.00292251
0.00356516
-0.00648918
0.000987012
0.00310176
0.0105014
-0.000905983
-0.00974313
0.00506643
-0.00308586
-0.00280868
0.00228227
-0.0167776
0.000320635
0.0164382
0.000708253
-0.00372907
-0.00303459
0.00458784
-0.00155288
0.0123598
-0.0103016
-0.00231913
-0.00368458
0.0131958
-0.00448605
0.00194048
0.00254572
0.00205739
0.00182954
-0.0060812
0.00605451
-2.71041e-05
-0.00177163
-0.00173296
0.00233329
-8.11534e-05
-0.00295322
0.00298241
-0.00352437
-0.00989277
-0.000679305
0.0105655
-0.00429762
0.00233858
0.00195917
-0.00606516
-0.000838357
0.00690756
-0.000378783
-0.00247709
0.0020895
0.000387582
-0.00370603
-0.0116482
0.000772083
-0.0020404
0.00126833
0.00381929
-0.00042213
-0.00357091
-0.00749652
0.000404331
0.000731681
-0.00196975
0.00123807
-0.00233204
0.00517121
-0.00283922
-0.00246399
0.00762042
-0.0025847
0.012272
-0.0123132
0.00795604
-0.00049533
0.00132811
0.012034
-0.0014151
-0.0144317
0.0157488
0.00964611
-0.0151202
0.00543674
0.00229247
0.00211252
0.00510412
-0.00773042
-0.0109191
0.00715781
-4.78846e-05
0.0003425
-0.000364347
-0.00366833
-0.0100342
-0.000487535
0.00294609
-0.0034281
-0.016068
-0.00283738
0.00112124
0.00171613
-0.0192732
0.00512214
0.013803
0.00105849
0.01575
-0.0168936
0.00197729
0.000713272
-0.00345762
-0.0177006
0.000491101
0.00249228
-0.00259655
0.000104277
0.00357388
-0.00215067
-0.00569019
0.00321749
0.00247235
0.00175991
0.00851278
-0.0102835
-0.0084457
0.00729824
0.00203359
-0.00896101
0.00799308
0.000971996
-0.00306399
0.000305758
-0.0161579
7.56545e-05
0.00241652
0.00217171
-0.0116895
0.000778544
0.0109089
0.0196029
-0.00487575
-0.000567686
-8.01672e-05
0.0177606
0.001008
-0.00351119
-0.00513109
0.00117803
0.00199293
-0.013626
0.015551
-0.00194448
-0.00575185
-0.000999477
0.00674879
0.0172404
0.000584952
0.0123115
-0.0129148
0.000747422
0.00581795
-0.00656516
-0.000601457
0.00670818
-0.00610483
0.0159272
-0.0195493
-0.0152343
-0.000118582
0.0153121
-0.00957365
0.011322
-0.00281498
-0.00222682
0.00504212
-0.00212643
3.68553e-05
0.00208958
-0.015398
-0.00504699
0.00096899
-0.0162738
0.00205415
0.0108256
-0.0129643
-0.00239323
0.000441019
-0.00177069
0.00254278
-0.00278302
0.00347358
-0.00069055
-0.0145165
-0.000607985
0.0149549
0.00540602
-0.00600582
-0.00697392
0.00121992
0.00378934
-0.00217152
-0.00161779
0.00841914
-0.00354214
-0.00487335
-0.00124088
-0.0138926
0.0149795
0.000673515
0.0145961
-0.0154099
-0.0125161
0.0144753
0.00747426
0.000484316
-0.00226831
0.0152839
-0.0130375
0.0025489
-0.000337674
-0.00221121
0.010594
-0.0145591
0.00393053
0.0174892
-0.0214446
0.00374802
0.00672268
-0.00181075
-0.00491331
-0.00135371
-0.00148369
-0.00152265
-0.00168001
0.00276932
-0.00434308
0.00384022
-0.00182655
-0.00838476
-0.00264572
0.0110333
0.00243915
-0.000828853
-0.00161029
-0.00340189
0.00198963
0.00141228
-0.00116367
0.00314768
0.000640872
0.0101049
-0.0107461
-0.00566759
-0.00563442
0.00458969
-0.00446028
0.000861151
-0.00302856
0.00190512
0.00141102
0.00511834
-0.00652932
0.00111052
-0.00316695
0.00192948
-0.000724272
-0.0091742
-0.00283963
-0.0129547
0.01567
-0.0184026
0.0162475
0.00183537
-0.0151361
0.0128466
-0.0168339
0.0142444
0.0023462
-0.000311473
0.000311473
-0.000780052
0.00332898
-0.00726159
-0.000107115
0.00654378
-0.00643455
-0.0105238
0.009436
0.00108688
0.00160761
0.00440776
-0.00601478
0.0114832
-0.012855
-0.00774003
0.0102682
0.00248932
7.65625e-05
-0.00256588
-0.00376527
0.00138926
0.002376
-0.00437254
-0.000680738
0.00505303
0.00102022
0.00740367
0.0186033
-0.00134482
0.00989064
-0.00925003
0.00234682
0.0178874
0.00286809
0.00171615
-0.00458415
0.00531577
-0.00830858
0.00206646
0.00199968
-0.00352215
-0.00375725
0.00575659
-0.00199898
-0.00524476
0.00134705
-0.000462223
-0.00232079
-0.00613149
0.00687938
-0.00990193
0.000986872
0.00873765
0.0196601
-0.0184471
-0.00130163
-0.00506423
0.000278436
0.00483092
-0.00196275
-0.0150279
-0.00288057
-0.00195524
-0.00144664
-0.000929717
-0.00915108
-0.0119406
0.0089521
0.0028374
0.00257289
-0.0018412
0.00344751
0.00966009
-0.00661732
-0.0157262
-0.00742436
-0.000193445
0.0143912
-0.00385261
0.0142239
-0.0103417
0.00364917
-0.00578513
0.00213475
-0.00381837
0.00330823
0.0022242
-0.00944616
0.00721803
0.00814003
0.00192191
0.0156157
-0.00767443
-0.00822839
0.016658
-0.000440699
-0.0162995
-0.00186682
-0.00272993
0.00733162
-0.00713812
0.0179456
-0.0182584
3.28652e-05
-0.0100579
0.00998728
8.08304e-05
-0.00521706
-0.00454563
0.00621809
0.000100817
-0.00632108
-0.00829865
0.0105184
0.00073952
-0.00231363
-0.0101948
0.000470416
-0.0188665
0.00427528
0.00234696
-0.00422601
0.00187911
0.00738916
0.00794714
0.000289855
-0.00271816
0.00150235
0.00238446
0.0135978
-0.0137367
-0.0181195
0.000850109
0.0172223
-0.00448716
0.0140988
0.0112309
-0.00591418
0.0166299
0.00452432
-0.00267064
0.000886728
-0.00100729
-0.00347863
0.00903392
0.0145552
-0.0147706
0.000195943
0.0070192
-0.00801582
0.00707271
-0.00840354
0.00104032
-0.00310667
0.00113414
0.00858567
-0.00335947
-0.00113004
-0.00923091
-0.000108196
0.00368222
0.00187755
0.0131748
-0.0150836
-0.0169627
0.00409192
-0.0149557
0.00669406
-0.00230341
0.0201956
-0.00485463
-0.0155035
-0.0149783
-0.000719423
0.0156202
-0.0152223
-4.87308e-06
-0.00872212
0.00860467
-5.9332e-05
-0.00150252
-0.0108558
0.0123546
0.0118458
-0.0105255
0.00452739
-0.00588556
-0.00220638
0.00214266
-0.00104277
-0.00316728
0.000708331
0.000449495
0.00865092
-0.00910589
-0.00436134
0.000604358
-0.00267304
0.000195946
-0.014934
0.000666914
0.00605528
0.00231664
0.00539329
-0.0151708
0.0128058
0.00734425
-0.00940537
0.00134255
-0.0167848
0.0127272
0.00401925
0.00241632
-0.00625665
0.00384007
0.00530574
-0.00614047
-0.00174394
0.0131407
-0.00082088
-0.0123227
0.00114525
0.00899633
-0.00366356
0.00534515
-0.00168204
-0.00279903
-0.00269397
0.00184314
0.00388983
-0.00557288
-0.00776721
-0.00934917
0.0011596
-0.00757111
0.00641138
-0.0023936
0.001223
-0.00427052
0.00193838
0.0025007
0.00519317
-0.00770135
0.000451912
0.0113652
-0.0118243
-0.0033639
0.00628524
0.00454242
-0.00252331
0.00273942
0.00337159
-0.00610857
0.0114488
-0.0157723
0.00430888
-0.0215209
0.00728798
0.0140696
-0.00211743
0.00318083
0.0190545
-0.0181574
-0.000989017
-0.00304743
0.00546785
0.00541105
-0.00164293
-0.00376766
0.0151717
0.00248362
-0.00153056
0.00451306
-0.00912084
0.0100782
-0.000957697
-0.00204267
-0.00105375
0.00309632
0.0168685
-0.000302506
0.00150887
0.00147213
-0.00298098
0.00240673
-0.00460205
0.00219594
0.0124453
-0.0010434
-0.00252669
0.00446731
-0.0173602
-0.0022386
0.00177328
0.00201611
0.00229046
-0.0143144
0.0119664
-0.0174185
0.0162954
0.00102363
-3.58812e-05
0.00637215
-0.018299
0.0170943
-0.00267964
-0.0133915
0.0170246
0.00597819
-0.0161718
0.0100662
-0.0018268
-0.0094027
0.0112176
-0.0159649
0.0151782
-0.0143922
0.00821873
-0.00500373
-0.00321379
0.0168673
-0.00671555
-0.0101526
-0.00942241
0.00429345
0.00565439
-0.0101658
-0.0074921
0.0115167
0.000516997
0.00197232
-0.00376392
0.00494726
-0.00118358
-0.0078379
0.0103286
0.00547515
-0.000200464
0.0120364
-0.000471812
0.0141743
-0.0137173
-0.0011421
0.00826092
-0.0142712
0.00135176
0.00212184
0.0158964
-0.00161877
-0.00126902
0.00223575
0.0014273
0.00092875
-0.00235605
-0.0021257
0.00362351
0.00797703
-0.00018299
-0.00169422
0.000166319
0.00141325
-0.00464653
0.016633
-0.0120167
-0.00597731
0.00591623
-6.30307e-05
-0.00312905
-0.00336193
-0.0136697
2.39205e-05
-0.00723052
0.00925153
-0.00202269
-0.000507012
-0.0107812
0.0112739
-1.97871e-05
0.00251113
0.000130529
0.00369522
0.00235839
-0.00118865
0.000665061
-0.002428
0.000551337
-0.00483374
0.002019
0.00386189
0.0115542
-0.0154847
-0.00356279
-0.00606811
0.00963587
-0.0023989
0.00216488
-0.0120947
0.0143283
-0.00211981
0.00454862
-0.00242858
-0.0179346
0.0175886
0.000311429
0.00058774
-0.000809436
-3.17733e-05
0.0159912
0.00306053
0.00371373
-0.005876
0.00216301
-0.000139022
-0.00304487
-0.0107803
0.00093539
0.0129439
-0.00607848
0.000956137
-0.00412398
-0.00145821
0.00642024
-0.00190978
0.00341869
0.00161679
-0.00880949
-0.00297931
0.00384631
-0.00157043
0.0057375
0.00142483
-0.00182663
-0.000423209
0.00214833
0.00769342
-0.0123665
0.000139565
0.0143329
-0.0145677
-0.00293495
0.00746552
-0.0102001
-0.000422727
0.0101259
0.0044812
0.002104
-0.0161437
0.00833902
-0.00206171
-0.0124838
0.0145251
0.00260528
0.0062185
-0.00882244
0.00508645
-0.00492103
-0.000165329
-0.00216046
-0.00376232
0.00592361
0.0169045
-0.00123904
-0.00120728
0.00216925
-0.00539333
0.00259464
-0.00104149
0.0168195
-0.0158143
0.014876
-0.000627543
0.00159872
-0.00759331
-0.00888941
-0.00406132
-0.00341019
-0.00198291
0.0108233
-0.0118048
0.00228786
-0.00440752
0.00578611
-0.000466746
-0.00531874
0.00637586
0.00160705
-0.00798332
-0.0091516
0.00802753
0.0011256
0.000896018
0.00167688
-0.0116483
0.000197575
0.00196849
-0.005099
-0.00277266
0.00171973
0.00105295
-0.00301468
-0.00181882
-0.00268427
-2.5396e-05
0.00270973
0.00173756
0.00367404
-0.00527389
0.0148133
-0.00714571
-0.00250494
0.000378504
0.0103168
-0.00770989
-0.00209686
0.000783216
-0.00379772
-0.00230746
0.000418318
-0.00200504
0.00741852
0.00055967
0.00551147
-0.00514233
-0.000368017
-0.00425556
-0.0027603
0.00701357
0.000992199
-0.00234594
-0.00194999
0.00339614
-0.00144612
-0.00450356
0.0107232
0.00569289
-0.000179968
0.000766159
0.00787309
0.00454077
-0.00131187
-0.00322877
0.00976848
0.0148463
-0.0110516
-0.00236373
-0.0127983
-0.0148357
0.00191494
0.0129105
-0.00027967
0.00761379
-0.00213148
0.00336567
0.00444871
-0.00210997
0.0027744
-0.000951049
-0.00182335
-0.0117234
0.0108417
0.00765921
-0.00865554
0.00112712
-0.00316995
0.00239629
-0.00423692
0.00184061
0.0123185
-0.0123528
3.15456e-05
-0.00711107
4.93432e-05
0.00706628
0.00722265
-0.010531
0.00245891
-1.97638e-05
-0.00427179
0.0079188
0.0138064
-0.00409342
-0.00159706
-0.00210942
0.00445647
0.000702711
-0.00265268
0.00396828
0.000330331
0.00979968
0.00417632
-0.00208098
-0.00209517
0.00168651
0.00842423
0.00489298
-0.00137319
-0.00846454
0.00490628
0.00596126
-0.00435293
-0.00257405
-0.00764167
0.0102184
-0.00088407
-0.0181702
0.0131265
0.00499488
-0.000456878
0.016471
-0.00851405
0.00182246
0.00669236
-0.000215629
-0.00129381
-0.00477161
-0.00374106
0.00635852
-0.00419134
-0.0021662
0.00116052
-0.00506724
0.00390731
-0.000896534
-0.000204943
0.00097897
-0.000501981
-0.00394341
0.0042966
-0.0156877
0.00266095
0.0130087
0.0140558
-0.000707517
-0.0133926
-0.00358867
-0.00102795
-0.0133771
-0.00754187
0.00637973
-0.000592815
0.00622244
-0.00380614
-0.000303718
0.0013932
-0.000351723
0.00564082
-0.00392459
-0.00013069
-0.0148342
0.0146587
-0.00184989
-0.000922748
0.000250379
-0.0084192
0.00817345
0.00619172
-0.00627644
8.45085e-05
-0.000758061
0.00518609
-0.00277871
0.015339
-0.00470316
-0.011078
-0.014524
0.00996475
-0.00109212
0.00682908
-0.00668189
0.0158754
0.000710723
-0.00855006
0.00745031
0.00110473
0.000832732
0.00285319
-0.00368637
0.0059215
-0.0134806
-0.00691341
0.00481873
-0.00333497
-0.00148367
-0.00878873
-0.00247318
-0.00167897
0.00169936
0.0031194
0.000509447
-0.0155629
0.00740743
-0.00529769
-0.008582
0.0121077
-0.00880703
0.0169466
-0.00119111
0.00428224
5.37712e-05
-0.00433609
0.00183611
-0.00184156
0.0031508
-0.00130924
-0.0125399
0.0143874
0.000403448
-0.0156743
0.0169929
-0.0015172
-0.0156325
0.0137057
-0.0026277
-0.0110829
0.0121879
0.00467506
-0.011557
0.00913021
0.00177848
0.00143821
-0.00321678
-0.0087642
0.0090195
-0.007913
0.00191295
0.00262957
-0.00917479
0.00739738
-0.00102227
0.014729
0.00109572
0.00275737
-0.00120499
-0.00155238
0.000782666
0.0114754
0.000281187
0.00646785
-0.00731814
-0.0031219
0.0042829
-0.00225523
0.0019639
-0.00461528
-0.0138797
-0.000612784
-0.0173331
0.00131963
0.0051253
0.00979044
-0.00930857
0.00477213
0.00018992
-0.00496152
0.000237006
0.0129838
-0.0132374
0.00337071
-0.0063025
-0.000549023
0.0128654
0.0154788
-0.000803224
-0.00562814
0.00346849
-0.00261967
-0.000692908
0.00331261
-0.00676549
0.00600221
0.000766
0.00235898
0.0155839
-0.0115011
0.0140232
-0.00267724
0.00423125
-0.00651711
0.00228654
-0.00864413
0.00504028
0.0012953
-0.00633591
0.00337509
-0.0184725
0.0148645
-0.000720626
-0.017265
-0.00224343
0.00272939
0.00122414
-0.00158811
-0.00677706
0.000218051
-0.000876206
0.00584654
-0.00497055
0.00162859
-0.00100924
0.00328406
0.00867344
-0.0119844
0.00204848
0.000596359
-0.00264481
0.00168104
-0.00399279
0.0003425
-0.00221632
0.00307746
0.00362167
-0.00787896
-0.00495694
0.000624226
0.00608259
-0.00708482
-0.0144528
0.0138001
0.000245217
-0.00286486
0.00275686
0.000860479
-0.0168873
0.000763664
0.0160723
-0.0123289
0.0155776
-0.00785945
0.00889846
-0.00103726
-0.00241836
0.00224173
0.000176625
-0.00038732
0.0106894
0.0163846
-0.0160826
0.00919253
-0.0159372
-0.0182705
-0.0148827
-0.00905528
-0.0091439
0.000437144
-0.00312136
-0.00873972
0.000881766
-0.0123668
0.0108601
-0.0138643
0.0133894
0.000218356
-0.00207635
0.00299341
-0.00590149
0.0125033
-0.0100208
0.00627059
-1.2903e-05
0.0159897
0.000837125
0.00482491
-0.0146063
0.00977663
-0.00245026
0.00274012
-0.00371682
-0.00216874
0.00588461
0.0125888
0.00194568
0.000932858
-0.000505639
-0.0079897
0.00760693
-0.0101786
0.00422583
-0.00211521
-0.0021105
-0.00285026
0.000710252
0.00214001
-0.0195733
0.00265461
0.0168208
-0.0081358
-0.0019023
0.00287168
-0.000969417
0.00517091
-0.0066783
-0.00715646
0.00686982
-0.00598267
0.00705441
-0.00257487
0.000807489
-7.68002e-06
-0.000855234
0.00627389
-0.00620643
-0.000402746
-0.000597929
-0.00316735
0.00061353
0.00532398
0.000138181
0.000686102
-0.00198371
0.000362911
0.0127619
-0.00985696
0.00856541
0.00129227
0.000532665
0.0134711
0.00956816
-0.0102538
-0.0052857
0.00669681
-0.00213342
-0.00192792
0.00406128
-0.00940696
-0.0101332
0.00220128
0.0178186
0.00130233
-0.00162486
0.0182259
-0.00200958
0.0089166
0.0012937
-0.0102347
-0.0131677
0.0131257
-7.3049e-06
-0.00713068
-0.0129174
-0.00447664
0.00843162
-0.00395098
-0.005917
0.0015444
-0.000545163
0.00802133
-0.00576635
-0.00277942
-0.0094086
-0.0124587
0.00250238
-0.00149372
-0.00100866
0.00249567
0.00414941
-0.00664457
0.0153298
0.00136766
0.00808312
-0.0035402
-0.00454338
0.00118087
-0.00243514
0.00249916
-0.0141217
0.000204238
0.000907118
0.0154462
-0.016481
0.00433912
-0.00583939
0.00150072
-0.00707824
0.0026065
-0.00207849
-0.0136124
-0.00911803
-0.00232325
0.0114433
-0.0170808
0.0130513
0.00358321
-0.01059
-0.00174435
0.000768848
0.00234376
0.00302783
-0.00537107
0.0144294
-0.00553919
0.00380908
-0.00423735
-0.016505
0.0156976
0.000651317
-0.000329682
0.00573822
-0.0054073
-0.0170189
-0.00122016
0.0178982
0.0135583
-0.00150667
0.000891941
0.0146334
-0.0155671
0.00042512
0.0103987
-0.00019124
-0.00347271
0.00277754
-0.00135024
-0.0087049
0.00837598
0.00492864
0.00315332
0.00964587
-0.00064704
0.0175943
0.00280983
-0.0019138
-0.000477099
0.00097234
0.00719468
-0.00816203
-0.0123552
-0.00282057
0.0151225
-0.0115746
-0.00187032
0.0027765
-0.000906178
-0.0151941
0.0159774
-0.00124757
-0.0156837
0.000598239
-0.0107497
0.00109975
0.00964538
-0.00620914
-0.0088161
0.0149933
0.00170634
0.00142349
-0.00311073
-0.0134501
0.00205098
0.00249788
0.00330923
-0.0012607
-0.00273644
0.000688867
0.000521063
-0.00428527
0.00118787
0.00131452
0.000547484
0.00420124
-0.00612936
0.00192751
-0.00338673
0.00163102
-0.000599949
0.000591483
-3.61182e-05
0.0132018
-0.003663
0.0146072
-0.0113077
0.00228916
0.0036729
-0.00122282
0.0161284
0.0013605
0.00179031
-0.00631282
0.00747245
-0.00603903
0.000776221
0.0052639
-0.0168448
0.0143421
0.00247257
0.00205415
-0.00424081
0.00218678
0.00184527
-0.00229003
0.00044476
-0.000868377
0.0029377
-0.00206932
-0.00779731
0.00923877
-0.00143917
0.00976428
-0.009091
-0.000672937
0.00130376
-0.00485332
0.00149775
0.00211559
-0.0166934
0.00222031
0.0142529
0.000707792
-0.00285146
0.00214362
-0.00228153
-0.0032888
-0.00463882
-0.000425186
0.00506425
0.000196885
0.00296962
-0.00316643
-0.00295424
0.00419031
0.0123059
-0.00256635
-0.0144734
0.0115961
0.00286815
0.000638736
-0.0113424
-0.00238978
0.00982243
-0.00742835
0.00148426
0.00161014
0.00173662
0.00130386
-0.00403437
-0.00997506
0.0136706
0.00230511
-6.91723e-05
-0.00223594
0.00151801
0.0109816
-0.00591545
0.00196657
-0.00410015
-0.00338836
0.00422061
0.00150781
-0.00489704
0.01415
-0.0136054
-0.00746691
-0.00868246
-0.00121485
0.00989938
0.0120486
-0.0120001
-0.00369374
0.00136721
0.000656499
-0.00905924
0.00825596
-0.00230614
-0.00119081
0.00349703
0.00297473
-0.000437028
-0.00358369
-0.000325199
0.0143305
-0.00665632
0.00484754
0.0018094
-9.12969e-05
-0.00392617
0.00621629
1.18103e-05
-0.0100766
0.0100601
0.00332961
-0.00162706
-0.00258408
0.00387419
-0.00129006
-0.00206662
0.00485281
-0.00278604
0.00873918
0.00178589
0.000187139
-0.00209541
0.0108657
-0.0108589
0.00171716
-5.89148e-05
-0.0177839
0.0148504
0.00215932
0.00578396
-0.000743991
0.00744762
-0.0101383
0.0151309
-0.0162068
-0.000605787
-0.00927287
0.00987858
-0.00202039
0.00273064
0.0112173
-0.00987872
-0.00133402
-0.00145307
0.0150479
-0.0136141
-0.00120199
0.00359827
0.0197215
-0.0193631
0.00222571
-0.000511475
-0.0135214
0.000951155
0.0152486
0.00381888
0.00788992
-0.011718
0.00209527
-0.00210229
7.02587e-06
-0.00563889
-0.000558825
0.00234443
-3.9319e-05
-0.00463386
0.00122026
0.00062351
0.0137107
-0.00114363
-0.0102072
0.0014038
0.0088046
0.000105645
0.00096434
-0.0157104
0.0144584
-0.015955
-0.00159674
0.017434
-0.00187875
-0.00161967
0.0034985
0.00892986
-0.000932327
0.01133
-0.0111071
-0.00781668
0.00649601
-0.005278
0.00168865
0.00285228
0.0182106
-0.0133552
-0.00319292
0.00607379
0.0168682
-0.0129382
0.00861202
-0.00313177
0.00351081
-0.000379041
0.00592408
-0.000160312
-0.00576253
-0.00608698
0.0125436
-0.0149326
-0.0160279
0.0157372
0.000156378
-0.00201472
0.00275424
-0.00139264
-0.00278551
0.00417807
0.00329635
0.00234458
0.00134863
-0.00217748
-0.0140052
-0.000159136
-0.00269616
-0.0121434
-0.00408744
-0.0145428
-0.000152202
-0.00209123
-0.000976863
0.010539
0.00434902
0.00203812
-0.00638551
0.000781229
-0.0103617
-0.00343014
0.0161887
-0.0128024
-0.0121262
0.00295749
-0.00396273
-7.87548e-05
0.00433304
0.0117685
0.00519305
-0.00552153
0.00277352
0.0156204
-0.00205575
0.00123826
-0.00393658
-0.00137931
-0.00922186
-0.00943481
-0.0102191
-0.00382142
0.00314049
-0.00142257
-0.00131386
0.00124392
0.00792668
0.00274041
-0.001202
-0.00153841
0.0145379
0.00131854
-0.0161009
0.00875962
-0.00134044
-0.0102547
0.0107001
0.00317387
0.00171954
0.00195224
-0.0164612
-0.00122062
-0.00785896
-0.000646081
0.00850332
-0.00604895
-0.00115246
-0.0063164
0.00746685
-0.00226263
0.00679533
-0.0040533
0.00214438
-0.00446632
-0.00409914
0.00352814
0.000571267
-0.00322095
0.0146551
-0.000313932
0.00402467
-0.00371044
-0.00245538
0.00263577
-0.0113456
0.0102123
0.00113082
0.00124502
0.0031189
0.00536697
0.000992501
0.0150602
-0.0175532
0.00238685
0.0107667
-0.00999243
-0.0074681
0.000447808
-0.00180908
0.0160702
-0.00845441
-0.0139583
-0.0109379
-0.0124795
0.0119947
0.00145569
0.0152395
-0.0167916
0.0177594
-0.0138279
-0.00396179
0.01602
0.00322861
-0.00145019
0.00187744
-0.0109934
0.0112748
0.000192184
-0.0114737
0.00470902
0.0169916
-0.00322253
-0.0139243
0.0170211
-0.0166342
-0.000406539
-0.00779595
-0.000650799
0.00844817
-0.00276111
0.00473718
-0.00197559
-0.000596401
0.00487856
0.00645777
-0.00018306
0.0056598
-0.00326073
0.00262324
-0.00207302
0.00317802
-0.00110498
-0.00635722
-0.00354428
0.00990569
0.00165295
0.00116804
-0.00282099
-0.00744182
0.00363366
0.00380929
-0.000856402
-0.00917701
0.00202426
-0.0108908
0.0121548
-0.00127426
-0.00156645
-0.00164809
0.00321456
-0.00260095
0.000730634
-0.00714162
0.00213891
0.00306302
0.0171678
-0.00137543
-0.0147645
0.0153868
-0.000651934
-0.00494514
0.00943987
0.00155026
-0.00235605
0.000805795
-0.00152099
-0.00884726
0.0103681
0.0145188
0.00090497
-0.000748994
-0.00364492
0.00174257
-0.00542812
0.00334362
0.00208517
0.0116882
-0.000421125
-0.00831864
0.0044441
-0.00532054
0.00191059
-0.00792629
0.00601705
-0.00983392
-0.00151327
-0.00225906
0.00296681
-0.0017569
0.00505341
0.00544988
-0.0177648
0.0122837
0.0045999
-0.0030928
-0.00483083
-0.000310176
-0.00713999
0.00243829
0.00470151
-0.00129127
-0.00280761
0.00199651
-0.011771
0.000419379
8.22758e-05
-0.0160411
0.00269965
-0.00614134
0.00434808
-0.00312697
0.00224343
0.000883539
0.00977177
-0.00459814
0.00141985
-0.00359971
-0.000309915
0.00438989
-0.00407928
0.00109793
0.0116938
-0.0130157
0.000494327
0.00199795
-0.00179225
-0.00016696
0.00195921
-0.0141408
0.000166785
-0.00226581
-0.00458506
0.00178493
0.0174763
-0.00253906
-0.0135891
0.000379021
0.00203339
-0.00418952
0.00215554
-0.00322813
0.000644094
1.74295e-05
-0.00611379
-0.00145622
0.00247626
-0.0155546
0.0029433
0.00190964
0.000448456
-3.81398e-05
0.00258963
-0.0100271
0.00743916
0.0138045
0.00245194
-0.0117166
0.00925614
-0.00139098
0.0158514
0.00369647
0.00217364
-0.00586948
-0.00188475
-0.0104849
-0.00244585
-0.00469441
0.00312088
-0.00947437
0.00499967
-0.00480071
-0.000349931
0.00532771
-0.00121049
-0.00411674
0.000730683
-0.0106826
0.00230106
0.00140352
-0.00319305
0.00128331
-0.00608416
-0.00417554
-0.0116675
0.0157984
0.0169807
-0.015622
0.00694081
-0.011151
0.016066
-0.00514673
-0.0109211
0.00235566
-0.000501023
-0.00185463
-0.00342163
0.00154295
0.00462975
0.000133594
-0.00738283
-0.00329646
-0.0143242
-0.00265071
0.00404805
-0.00139726
0.00622059
-0.00198941
-0.00346295
0.0147733
0.00330259
-0.00178834
-0.00151424
-0.00213802
-0.0122923
0.0142188
0.00564286
0.000733969
-0.00637554
-0.0020581
-0.00106887
0.00192373
0.0145702
-0.0166977
-0.000492237
0.00233751
-0.00285305
0.00469925
0.000628967
-0.00128517
0.00246604
-0.00216259
0.00586006
-0.0122373
-0.00203146
0.0142257
0.0103482
-0.0122362
-0.001728
0.00307663
0.00115961
-0.00329109
-0.00247276
0.0128133
0.00163773
0.00110268
0.00641479
-0.00846172
0.000442895
0.00166362
0.000528459