/*--------------------------------*- C++ -*----------------------------------*\
| =========                 |                                                 |
| \\      /  F ield         | OpenFOAM: The Open Source CFD Toolbox           |
|  \\    /   O peration     | Version:  v2012                                 |
|   \\  /    A nd           | Website:  www.openfoam.com                      |
|    \\/     M anipulation  |                                                 |
\*---------------------------------------------------------------------------*/
FoamFile
{
    version     2.0;
    format      ascii;
    class       volScalarField;
    location    "400";
    object      k;
}
// * * * * * * * * * * * * * * * * * * * * * * * * * * * * * * * * * * * * * //

dimensions      [0 2 -2 0 0 0 0];


internalField   nonuniform List<scalar> 
10042
(
0.000147259
0.000148187
0.00014769
0.000157862
0.078099
0.000148341
0.0802894
0.00152102
0.000146867
0.000147892
0.0317828
0.000157678
0.000144558
0.000144298
0.000151185
0.000148057
0.000147995
0.000149697
0.000147281
0.000170315
0.000147133
0.000221244
0.000145358
0.0001452
0.00014824
0.000158848
0.000148787
0.000149854
0.000146946
0.000149153
0.000147986
0.00713236
0.00014797
0.000148838
0.000155036
0.000145286
0.000157904
0.000163398
0.000145289
0.000157094
0.000171302
0.000150629
0.0822287
0.000148088
0.0776677
0.000177354
0.000149066
0.00019201
0.000156683
0.000176396
0.000149028
0.00014946
0.000150646
0.000151184
0.000157921
0.000148288
0.000146962
0.000148979
0.000148805
0.000150339
0.000148155
0.00014785
0.000155235
0.000147595
0.000148847
0.000148825
0.00014825
0.000165125
0.0627326
0.000147507
0.000151071
0.000172691
0.000148112
0.000157045
0.000148151
0.00014519
0.0833195
0.000147334
0.000156277
0.0849873
0.000155972
0.064651
0.00014803
0.000150015
0.000148266
0.000149373
0.00014717
0.000181261
0.000147819
0.000147159
0.000148578
0.0606293
0.000150001
0.00014921
0.00014905
0.000147416
0.000147364
0.000147365
0.000156469
0.000146994
0.000149933
0.000176722
0.00571534
0.000149291
0.000149616
0.000164301
0.000147311
0.000147323
0.000147192
0.000144254
0.00014584
0.000147031
0.000154119
0.0554993
0.000148814
0.00014705
0.000147525
0.000147308
0.000147377
0.0377753
0.000147776
0.00149766
0.000148197
0.000147752
0.000176784
0.000148033
0.000674303
0.000157157
0.000163993
0.000147124
0.000156728
0.000148129
0.0385053
0.000201574
0.000146993
0.000167558
0.0256498
0.000148622
0.000192768
0.000183197
0.000149864
0.000147513
0.000149371
0.000185606
0.000148056
0.00014702
0.000168495
0.00014522
0.000147444
0.000153428
0.000147068
0.000149676
0.0689744
0.0404747
0.00014917
0.000144516
0.000149608
0.000147793
0.000167495
0.0150224
0.0278317
0.000188364
0.000147754
0.000147041
0.000148246
0.000148056
0.000164638
0.0170469
0.00670253
0.0451886
0.00015018
0.00014676
0.0409549
0.000172646
0.000159553
0.0786597
0.0258253
0.000148147
0.000166418
0.000159099
0.000149872
0.010499
0.00014845
0.000156982
0.00015043
0.0400193
0.000206305
0.000148265
0.0335459
0.000152086
0.000306099
0.00014939
0.068984
0.0109506
0.000185546
0.000982194
0.000154626
0.000147358
0.000144542
0.000151101
0.000159035
0.000148348
0.000147005
0.000173486
0.000148383
0.000145887
0.000359116
0.000148965
0.000149711
0.000149583
0.000433564
0.000148198
0.000163839
0.0001868
0.000149556
0.000207143
0.000147927
0.000147747
0.000171381
0.000146388
0.000154275
0.000149853
0.000196425
0.000164333
0.000153221
0.00015985
0.000195906
0.000147034
0.000192919
0.000151616
0.000146896
0.000171608
0.000146809
0.00015156
0.000147832
0.000153685
0.000146088
0.000144268
0.000151274
0.000156684
0.000147804
0.000148227
0.0001481
0.000154177
0.000147013
0.000148042
0.000145268
0.000149766
0.000150629
0.000149772
0.000144567
0.00014743
0.000152135
0.000205061
0.00018844
0.0265566
0.000159713
0.000159505
0.000151398
0.000179322
0.0623893
0.000150837
0.000147324
0.00014443
0.000150996
0.000146054
0.000206883
0.000151736
0.000147147
0.000149638
0.000159585
0.00015076
0.000185154
0.000159608
0.000186436
0.000152177
0.000156641
0.00014604
0.000154611
0.000148156
0.000159716
0.000147626
0.000158874
0.0433378
0.000145876
0.000147392
0.0612754
0.000177464
0.000148126
0.000148147
0.000151847
0.0794783
0.000171434
0.000186699
0.000149136
0.000144522
0.000147058
0.000146961
0.000199268
0.000147312
0.00014811
0.000146774
0.00014793
0.000164582
0.000151481
0.000169391
0.0958619
0.00015004
0.0446886
0.000146967
0.000154294
0.000148726
0.0162252
0.000177469
9.2019e-05
0.0215514
0.000145101
0.000151792
0.000147539
0.000151745
0.000159864
0.000149575
0.000159378
0.000145791
0.000144547
0.000148179
0.000170488
0.000149883
0.000151568
0.000147965
0.000151278
0.0397117
0.000147003
0.000149102
0.000147738
0.000147457
0.000163204
0.000185921
0.000159474
0.00185627
0.000164837
0.000156055
0.000148038
0.000144161
0.000148861
0.000149766
0.000147352
0.000147643
0.000148846
0.000200594
0.00014703
0.000152562
0.000150218
0.000201121
0.000147823
0.000153005
0.000163356
0.000159139
0.00015103
0.000147404
0.00938969
0.000168754
0.000149204
0.000162927
0.000147455
0.000146826
0.000147438
0.000152557
0.00031047
0.000153967
0.00014963
0.000149957
0.000149943
0.000149787
0.000170484
0.000147384
0.000145537
0.0289674
0.000146696
0.0217891
0.000108324
0.000157345
0.0836714
0.0228955
0.000155556
0.000171805
0.000148977
0.00017699
0.000149937
0.000148834
0.000229475
0.000148304
0.000152093
0.00076595
0.00014898
0.000147145
0.000161829
0.000274288
0.000148661
0.000145139
0.0077839
0.000177433
0.000146747
0.00016516
0.00528939
0.000146388
0.000149738
0.000145558
0.000147059
0.000144317
0.000145792
0.0237345
0.00741055
0.000148928
0.085795
0.000144321
0.000147285
0.000236167
0.000148366
0.0234184
0.000172782
0.000150028
0.000145354
0.000145037
0.00017475
0.000150454
0.000155644
0.000149147
0.0355243
0.000149322
0.00225119
0.000150869
0.000147361
0.000147069
0.000227309
0.000147473
0.000153363
0.000147319
0.000147719
0.0119712
0.000154693
0.000147463
0.000146356
0.0114661
0.000147088
0.000155036
0.000150932
0.000146076
0.0706749
0.0834229
0.000147
0.000148656
0.000154224
0.000144556
0.000147889
0.000147693
0.0154492
0.000147833
0.000146857
0.000155799
0.00280189
0.000170107
0.00014977
0.00015885
0.00737997
0.000166291
0.000147538
0.000147432
0.000201608
0.000148978
0.000147407
0.000155852
0.000147122
0.000145789
0.00015011
0.000144866
0.000159928
0.000147306
0.000147503
0.0258857
0.000146167
0.000149977
0.000148317
0.000148993
0.00015947
0.000147028
0.00014734
0.000145428
0.00014942
0.08702
0.000150736
0.000149868
0.000149831
0.000179698
0.000147553
0.000147501
0.000147917
0.00014948
0.000155122
0.0825791
0.00014711
0.000159868
0.000375371
0.000166177
0.000149716
0.000147599
0.000148516
0.000149298
0.000146994
0.0327724
0.0217843
0.000148374
0.000157199
0.00015931
0.000158707
0.000148184
0.000145476
0.000121952
0.000174396
0.000315955
0.000145278
0.000148692
0.000148206
0.000146731
0.0656996
0.000160756
0.000149483
0.00014729
0.000146784
0.000148054
5.76591e-05
0.000154735
0.000148839
0.0112847
0.000229541
0.000191518
0.000164786
0.000147944
0.00014703
0.00018142
0.000167345
0.0503252
0.0251791
0.000152518
0.000153615
0.00014935
0.000151466
0.000148664
0.000149273
0.0297133
0.000145205
0.000146968
0.000176884
0.000149349
0.000187216
0.000150361
0.000195089
0.000156745
0.000149597
0.00015142
0.000155105
0.000169524
0.000164849
0.000167743
0.00014987
0.000176429
0.000150254
0.000147401
0.000148686
0.000148937
0.000148091
0.000152781
0.000170202
0.000160021
0.000148862
0.000149577
0.000147886
0.000147411
0.000170717
0.00014732
0.000150855
0.000215463
0.000144873
0.000167442
0.000190665
0.000148125
0.0357987
0.000168132
0.000149346
0.000208633
0.000148086
0.000149771
0.000147921
0.000147723
0.000149944
0.00015213
0.000148084
0.000214017
0.000149846
0.000147625
0.000148645
0.00015968
0.000162242
0.000147725
0.000153429
0.000147029
0.000162627
0.000147754
0.000156811
0.000145613
0.000150246
0.000144968
0.000147342
0.0949756
0.000145601
0.000169632
0.000147664
0.000150426
0.000146043
0.000162568
0.000148378
0.000168866
0.000148096
0.000202987
0.000149724
0.0717427
0.000145197
0.000151047
0.000149792
0.000148006
0.000147535
0.000152045
0.000148087
0.000169971
0.0117942
0.000206777
0.00015247
0.000159263
0.000146971
0.000160228
0.000177387
0.000147914
0.000155642
0.000168041
0.05314
0.000191178
0.00365663
0.000155931
0.000148464
0.000149501
0.000154152
0.000152161
0.000167031
0.000145115
0.000151077
0.000185793
0.000149742
0.000147412
0.000153987
0.0864839
0.000150835
0.000158269
0.000181318
0.000149646
0.0851132
0.000145242
0.000146704
0.000149194
0.000147164
0.018625
0.000181249
0.0776293
0.000148231
0.000565473
0.0310569
0.000182423
0.000166722
0.000179896
0.000192907
0.000161241
0.000147961
0.000147359
0.000156258
0.0175716
0.000146936
0.00015624
0.0870327
0.000147301
0.000147177
0.000147465
0.000150176
0.000147478
0.000148049
0.000178924
0.0150801
0.000147923
0.000147823
0.0368639
0.0640609
0.000147009
0.000147546
0.000148944
0.000147077
0.000239949
0.000181267
0.000183228
0.000149638
0.000147138
0.000146969
0.000149919
0.000148217
0.000162374
0.000149653
0.0977696
0.000147875
0.000148373
0.000162089
0.000146873
0.00016442
0.000164714
0.000150996
0.00571967
0.0669884
0.000148492
0.000146992
0.0679822
0.0250669
0.000159418
0.000147974
0.00153887
0.00017449
0.000153279
0.00014788
0.000147788
0.000147274
0.000189628
0.000152389
0.000168004
0.000149771
0.0445291
0.000292
0.000147616
0.000147752
0.000169349
0.000148919
0.000146025
0.000153012
0.0567594
0.0510985
0.0850704
0.000149607
0.000175755
0.000160818
0.000145372
0.000147581
0.000149228
0.000188427
0.000149317
0.000147588
0.000175803
0.000148143
0.000170787
0.000148629
0.000148607
0.000145732
0.000148921
0.000199643
0.000149266
0.000147387
0.000167123
0.000163746
0.000186553
0.000149347
0.000178036
0.0603544
0.0877704
0.000150219
0.017155
0.0147321
0.000147302
0.00014464
0.00014971
0.000150726
0.0435044
0.000151043
0.000148714
0.000149318
0.0634059
0.000159945
0.000149413
0.000148855
0.000147527
0.000163494
0.000146118
0.000146805
0.000161714
0.000150011
0.000149305
0.000146832
0.00023169
0.000147379
0.00014989
0.00014805
0.000149082
0.000184975
0.000149297
0.000150365
0.000148351
0.000153992
0.000203805
0.000149941
0.00018548
0.000154274
0.0452353
0.000146034
0.000151135
0.000161405
0.000177774
0.000161891
0.00014963
0.00601766
0.0338914
0.000149417
0.000147004
9.80561e-05
0.000148404
0.000149644
0.000146132
0.000149576
0.000169698
0.000149948
0.000149949
0.000164664
0.000156213
0.000156558
0.000157025
0.000149852
0.088786
0.000151199
0.000209734
0.000147058
0.000176744
0.000159907
0.0742143
0.000152639
0.0602115
0.000149778
0.000155306
0.00014813
0.000148323
0.00014761
0.000194291
0.000159877
0.000175416
0.0220526
0.000148692
0.000166172
0.000155792
0.000146792
0.000156744
0.000159221
0.0635921
0.000147713
0.000155314
0.000162941
0.000150958
0.000160139
0.000149882
0.000144865
0.000149878
0.000184771
0.000148803
0.000147857
0.000146153
0.000145972
0.000147374
0.000147749
0.000148838
0.000146869
0.000148925
0.000149318
0.000153317
0.000156798
0.000147799
0.0485458
0.000147949
0.000562671
0.00015913
0.0464314
0.000162562
0.000155016
0.00860833
0.000162557
0.00018703
0.0880928
0.000163249
0.000149269
0.000146798
0.000150162
0.000185766
0.000147461
0.0534941
0.000147429
0.00625044
0.0759529
0.000180234
0.000150291
0.0341526
0.0418746
0.000150555
0.000147722
0.000149736
0.000153349
0.000144795
0.00014564
0.000166822
0.000229623
0.000148398
0.000147433
0.000149098
0.00022746
0.000182445
0.000148964
0.000153521
0.000179835
0.000149293
0.000148028
0.0488075
0.000148926
0.000147309
0.000505161
0.000151734
0.000147846
0.00525516
0.0858579
0.0434299
0.0001474
0.000150563
0.00024013
0.000146168
0.000147358
0.000149886
0.000160273
0.000148149
0.000148627
0.000152075
0.000161019
0.000175456
0.000146467
0.000147758
0.000148403
0.000147178
0.000149521
0.000145038
0.000189274
0.000156173
0.000147916
0.000147728
0.000146342
0.000147649
0.000149194
0.0589374
0.000158557
0.000145105
0.000147376
0.000160021
0.0657941
0.000148143
0.0001477
0.000148049
0.000145069
0.00274976
0.000175277
0.000146653
0.000148305
0.000158382
0.000170781
0.000149051
0.000149874
0.000152805
0.000147963
0.00015555
0.000149141
0.0560184
0.000160777
0.000148338
0.000154565
0.0387177
0.000155469
0.0001991
0.00015332
0.000247835
0.000149788
0.000148828
0.000153851
0.000180771
0.000147441
0.000147434
0.00014959
0.000150212
0.00016881
0.000172728
0.00128019
0.000149934
0.00014777
0.000155745
0.000147981
0.000147969
0.0516083
0.000151398
0.000147921
0.000147748
0.000182357
0.000212988
0.000147758
0.000148278
0.000183217
0.000147107
0.00014858
0.000147524
0.000183072
0.000150597
0.000155526
0.00600646
0.000148862
0.000149046
0.0612962
0.000147162
0.000174448
0.00014716
0.000151111
0.000161801
0.000148052
0.000148476
0.000149122
0.000151427
0.00990869
0.000147338
0.000148803
0.000177097
0.000153419
0.000199957
0.071718
0.000163467
0.000149362
0.000213542
0.000147522
0.0367911
0.000149044
0.000148059
0.000146663
0.0110318
0.000149363
0.000149083
0.000148984
0.000162725
0.0590299
0.000155952
0.000166603
0.000147627
0.000148805
0.000162894
0.000157279
0.000146711
0.000153734
0.000147297
0.0759652
0.0440476
0.000148839
0.000150174
0.00014944
0.0023804
0.000148969
0.00963145
0.000147728
0.000147235
0.000146654
0.00014924
0.000152053
0.000149792
0.00014777
0.000148083
0.0023353
0.000187811
0.000147353
0.000153143
0.000152802
0.000161305
0.000147359
0.000153477
0.00015017
0.000147932
0.000150597
0.000161385
0.000149855
0.000147208
0.000154386
0.000146739
0.000183524
0.000150572
0.000175779
0.000148495
0.000148106
0.000147582
0.000187039
0.000161595
0.000146341
0.000153273
0.000178431
0.00014929
0.000146383
0.000154093
0.000149448
0.0119393
0.000179309
0.000153077
0.0201887
0.000150464
0.000163421
0.000180082
0.000160347
0.000163999
0.00908212
0.000160733
0.000194559
0.000148034
0.000150402
0.000147316
0.000147824
0.000155562
0.000146665
0.000175058
0.000148022
0.000148088
0.000168413
0.000147463
0.000174842
0.000155936
0.000153528
0.000147445
0.000160647
0.00023587
0.000143776
0.000160911
0.0587894
0.00016015
0.000146939
0.000160707
0.000147781
0.000146821
0.00930261
0.000146739
0.000146314
0.000169954
0.000147912
0.000156847
0.00014673
0.000147839
0.0845425
0.000147322
0.000145697
0.000152927
0.000147412
0.000145084
0.000149648
0.00686415
0.000148605
0.00014844
0.000145188
0.000184562
0.00014923
0.000152618
0.000147507
0.000158989
0.000149745
0.00014748
0.000150152
0.000148558
0.000146293
0.0001719
0.000163534
0.000156943
0.000151003
0.000165232
0.000178582
0.000154729
0.000155175
0.000150195
0.0901744
0.000147757
0.000147922
0.000147279
0.000149549
0.000158986
0.000147105
0.0611553
0.0356746
0.0125701
0.000148438
0.00015299
0.000161154
0.00014478
0.000167148
0.000163157
0.000246072
0.000180745
0.0555577
0.000178352
0.000200708
0.0409692
0.000156054
0.000150782
0.000153498
0.000146768
0.056242
0.00014958
0.000155878
0.000146598
0.000153116
0.000148156
0.0419439
0.0654808
0.000149298
0.0151453
0.000236445
0.000218184
0.000168054
0.000171467
0.000145712
0.0608965
0.000147964
0.0478897
0.0311594
0.000149304
0.000147615
0.000147838
0.000150876
0.000154264
0.000162301
0.000199768
0.000148731
0.000148115
0.000153625
0.000149159
0.000148084
0.000154202
0.000146764
0.000148262
0.000234596
0.000171626
0.000148131
0.082595
0.000150774
0.000149796
0.000150927
0.000209353
0.00014752
0.000146111
0.000184424
0.000185315
0.000147088
0.000153561
0.000281535
0.000170667
0.0475082
0.000146465
0.000203316
0.0674005
0.0906505
0.000148435
0.00014768
0.00017874
0.000154019
0.000162269
0.000149051
0.0744701
0.000169566
0.000196029
0.000148276
0.000147656
0.0155581
0.000229455
0.000148919
0.000149797
0.0505081
0.000147418
0.000145479
0.000147477
0.000151486
0.000149249
0.000156093
0.000148507
0.000152316
0.000145291
0.000162146
0.0166396
0.000166999
0.000161644
0.0258274
0.000175872
0.000145572
0.000146804
0.000147409
0.000149877
0.000182327
0.000156125
0.000148651
0.000148016
0.000147677
0.000145083
0.000157692
0.000145206
0.000162139
0.000152838
0.000148728
0.0716167
0.035682
0.000148572
0.0945074
0.00015856
0.000160072
0.000149738
0.000145413
0.0231027
0.000175534
0.000147269
0.000146157
0.000147513
0.000155233
0.000149726
0.000202167
0.000144531
0.000148264
0.000148064
0.0515367
0.0551684
0.000144858
0.000148099
0.000177706
0.000195864
0.00015238
0.0846156
0.0781606
0.000147321
0.000148851
0.000148574
0.000150401
0.0437449
0.000148105
0.000149886
0.000186254
0.000179221
0.00014936
0.000147564
0.000165024
0.000149881
0.000148375
0.000178175
0.000180864
0.0453825
0.000147705
0.000188087
0.00016032
0.000175277
0.000150468
0.000155296
0.000147394
0.000149228
0.000170453
0.000153814
0.00014781
0.000153041
0.0305306
0.000144767
0.000146846
0.000144739
0.000168692
0.000147448
0.000148451
0.00014391
0.000147443
0.000244775
0.093048
0.000148815
0.0125744
0.0622546
0.0477251
0.000147398
0.000147817
0.000146709
0.000147248
0.000148676
0.000148918
0.000145267
0.000148424
0.000146307
0.00015209
0.0235347
0.000159843
0.000186522
0.000160254
0.000148055
0.000150626
0.000158818
0.000148703
0.000146874
0.000161697
0.00015851
0.000235738
0.000168388
0.000144708
0.0469276
0.000149877
0.000144413
0.000147376
0.000248203
0.000168188
0.000149921
0.000154077
0.000148357
0.000148518
0.000157506
0.000167816
0.000159081
0.0481586
0.000148441
0.000148043
0.000234357
0.00016064
0.000153232
0.000190312
0.000150907
0.000166631
0.000218635
0.000172708
0.0104108
0.000147237
0.00014715
0.000147398
0.000148183
0.000148516
0.000150675
0.00016656
0.000177699
0.0449853
0.000148364
0.0898267
0.020655
0.000154035
0.000332942
0.000148817
0.000179746
0.022525
0.000147192
0.000183369
0.000145401
0.000248464
0.000149255
0.000203502
0.000147017
0.000119791
0.000167905
0.0331211
0.000146794
0.000197989
0.000146264
0.000150949
0.000207949
0.000146741
0.0107604
0.0690177
0.000139803
0.0320011
0.000185418
0.0529136
0.00016266
0.000147964
0.000162676
0.000168282
0.059917
0.000148393
0.00014795
0.000149853
0.000165952
0.000147857
0.000148848
0.000148792
0.0388779
0.0566191
0.000147636
0.0572425
0.000164877
0.000145977
0.000161325
0.000155062
0.063828
0.000157441
0.000146754
0.000196766
0.000148353
0.000147381
0.000148477
0.000182498
0.000174875
0.000147071
0.000154379
0.000148629
0.000149713
0.000146379
0.0552444
0.000149895
0.000146498
0.006769
0.000212296
0.000152533
0.000147149
0.0403923
0.000155611
0.000150803
0.000147884
0.000162952
0.000150951
0.000157341
0.000152873
0.0302652
0.000162813
0.000174529
0.000144616
0.0001634
0.000173771
0.000158171
0.000149216
0.0987344
0.000149651
0.000203469
0.000147117
0.000149228
0.000162856
0.000202146
0.000151543
0.000154083
0.000148656
0.00015975
0.000176674
0.000189372
0.000155727
0.000149944
0.000147573
0.000155165
0.000189039
0.000147389
0.000168746
0.000147935
0.00014742
0.0388919
0.000147269
0.0614507
0.000147777
0.000154538
0.000181792
0.000147806
0.000158269
0.000196277
0.000182952
0.000147859
0.000188309
0.000149837
0.000149733
0.000147535
0.028655
0.0699129
0.00014724
0.000147503
0.000146086
0.000146986
0.000183345
0.0762392
0.000147793
0.000228916
0.000146104
0.00014641
0.000147084
0.000739944
0.000150061
0.0001516
0.000147494
0.00014792
0.000147678
0.000149684
0.000149705
0.000160702
0.00346538
0.000145874
0.000147728
0.000160102
0.000173953
0.000146537
0.0382689
0.000168689
0.000146791
0.000145066
0.000149091
0.000191002
0.000146545
0.000186038
0.000156905
0.000152527
0.000146735
0.000168401
0.000144563
0.00017223
0.000155435
0.000149212
0.0126338
0.000554226
0.000143833
0.000147038
0.0170207
0.000186437
0.000180527
0.000153764
0.000185969
0.000145265
0.0724758
0.000184034
0.000147346
0.0330417
0.0864249
0.000150725
0.000165097
0.000171153
0.000146692
0.0911415
0.000148713
0.000156511
0.000157957
0.000148895
0.000148179
0.000163307
0.00014696
0.000147032
0.000146946
0.00113115
0.000147284
0.000147383
0.000146598
0.000147066
0.000147355
0.000149493
0.000174995
0.000160961
0.000152174
0.000149635
0.000343897
0.000148915
0.000146757
0.000147193
0.000145983
0.00014845
0.000147621
0.000158606
0.000185062
0.000149446
0.000159738
0.000162414
0.000146628
0.000155387
0.0538964
0.000149843
0.000144809
0.000148416
0.000166379
0.000149296
0.000149293
0.000152401
0.000152937
0.0190239
0.0135203
0.000146601
0.000146849
0.000147416
0.000165579
0.000158359
0.00014683
0.000155437
0.000167449
0.000148685
0.000154672
0.000148792
0.000179622
0.00022154
0.000150632
0.000173235
0.000154171
0.0466983
0.000149311
0.000147096
0.0774515
0.000170313
0.000152573
0.00020828
0.000167332
0.018587
0.000161777
0.000198354
0.000154911
0.000154663
0.018664
0.000154644
0.000232342
0.000160954
0.000181601
0.0377318
0.000149951
0.000148582
0.000147662
0.000193309
0.000143955
0.012804
0.000165428
0.0227393
0.000150351
0.000169805
0.000196592
0.000147447
0.000148755
0.000166052
0.000157349
0.000148467
0.000155096
0.000166823
0.000178721
0.000175496
0.000190377
0.0214148
0.000179175
0.000148657
0.000149281
0.0778538
0.000165794
0.000149768
0.00016039
0.0533989
0.000148861
0.000152737
0.000147405
0.000156172
0.000148111
0.000148589
0.000159395
0.000148491
0.000155365
0.030869
0.0152775
0.000145915
0.000153684
0.000156487
0.00018568
0.000161728
0.000149241
0.000147297
0.000168808
0.00657736
0.000147365
0.000153004
0.00014829
0.0677909
0.000146958
0.000158075
9.31367e-05
0.000162289
0.000149796
0.000172351
0.000173352
0.000172781
0.000153639
0.000147975
0.083428
0.000146842
0.000156299
0.000148857
0.000159206
0.000145504
0.00014587
0.000148351
0.000173893
0.000146943
0.000147666
0.000146881
0.000148394
0.000146953
0.000148121
0.000179447
0.0230498
0.0555506
0.000154648
0.000148243
0.000157277
0.000151966
0.0509734
0.000149891
0.000174659
0.000145456
0.000147828
0.000149516
0.000161575
0.0756484
0.000147605
0.0358764
0.000148885
0.000144566
0.000150671
0.0857288
0.000151003
0.000160892
0.0644223
0.000149889
0.000148721
0.013632
0.000147273
0.0343444
0.000148469
0.000161507
0.0176958
0.000150252
0.000148538
0.000146807
0.0177656
0.000156318
0.000147044
0.000203814
0.000147532
0.000150256
0.000177572
0.0481966
0.000177875
0.0656273
0.0122988
0.00016656
0.000151244
0.000175685
0.000203016
0.000147401
0.000147324
0.000150186
0.000157435
0.000166357
0.000147759
0.000153327
0.000147144
0.000147541
0.051994
0.000149456
0.0281938
0.000145059
0.00016327
0.00018267
0.000146582
0.000144523
0.0583932
0.0659544
0.000170956
0.00014842
0.000153356
0.000178651
0.000146301
0.000164196
0.000182041
0.000167024
0.000159203
0.0265852
0.0379239
0.000144674
0.000148788
0.000145408
0.000149231
0.000150678
0.000158087
0.0111716
0.000148694
0.000147625
0.000172892
0.0311724
0.000145141
0.000616943
0.000145595
0.000188927
0.000173358
0.0959136
0.000185622
0.000163241
0.000163534
0.000144811
0.000144452
0.0002025
0.000153919
0.000148469
0.000321506
0.000146903
0.000148444
0.000145296
0.000169453
0.000180345
0.000235348
0.000172004
0.000158407
0.000157223
0.00014838
0.0422366
0.000229857
0.000150578
0.000147659
0.000146706
0.000192407
0.090833
0.000159475
0.0878217
0.000150195
0.000146708
0.0402218
0.000147853
0.0703565
0.0652573
0.000146257
0.000157645
0.00022071
0.000152186
0.00015926
0.000147139
0.0520211
0.000156141
0.000174735
0.0117494
0.0265956
0.000158022
0.000159106
0.000148818
0.000182772
0.0526267
0.000151081
0.00015252
0.0492605
0.0001624
0.000165436
0.000149739
0.0213369
0.0150488
0.000167863
0.000147856
0.000156382
0.000147079
0.000408594
0.000178221
0.000161613
0.0632028
0.0434442
0.000144871
0.000191408
0.000148566
0.00823824
0.000168053
0.000157138
0.000154981
0.000293729
0.000143642
0.000182252
0.0144539
0.0641342
0.000150514
0.000148053
0.000146387
0.000168893
0.00127509
0.000190576
0.0647624
0.000195415
0.000163722
0.000147025
0.0531369
0.000180706
0.000156115
0.000176858
0.00675682
0.0328269
0.0223989
0.0329079
0.0398258
0.022098
0.000148308
0.000155863
0.000160472
0.000148073
0.0369473
0.000312371
0.000147968
0.0846375
0.000148773
0.000147796
0.000146245
0.00016028
0.000146934
0.044896
0.000163756
0.000232321
0.000146936
0.000235676
0.000162178
0.0002482
0.0187354
0.000150436
0.00015763
0.000160766
0.00016462
0.000146779
0.000145859
0.00014705
0.0402211
0.00014638
0.000146778
0.000235618
0.000151674
0.0516297
0.000148153
0.0597663
0.000147548
0.000148259
0.000147915
0.000148031
0.00015741
0.000152764
0.0578585
0.000157199
0.000167011
0.082012
0.000147091
0.0790323
0.000146574
0.0765461
0.00249004
0.0618584
0.000176356
0.000147981
0.000149799
0.0900257
0.000148536
0.000156378
0.000148644
0.000160188
0.0702361
0.00014701
0.000146819
0.000147243
0.000149745
0.0415697
0.0771656
0.00014717
0.00014392
0.0499068
0.0905083
0.000146924
0.0708264
0.000149739
0.0879794
0.0666511
0.000182953
0.000193462
0.000213417
0.000167065
0.0352358
0.000188268
0.00014799
0.0001448
0.000146362
0.082838
0.0865818
0.000150469
0.000155449
0.03599
0.000146997
0.0278454
0.00014747
0.000148113
0.000145561
0.00828495
0.000185377
0.000146627
0.0464325
0.000149656
0.0379245
0.08338
0.000146475
0.000148627
0.000187468
0.000147557
0.000148807
0.00014663
0.0701201
0.00015765
0.000148052
0.000148773
0.081853
0.000147793
0.000161723
0.000147721
0.0542732
0.000148561
0.000171719
0.000160557
0.0447305
0.0790635
0.000158744
0.00018899
0.000173302
0.000148375
0.000169264
0.0569537
0.000146685
0.00018079
0.000146299
0.000236109
0.00014714
0.0648742
0.0856767
0.000169553
0.0360445
0.047233
0.000160001
0.000150055
0.000780025
0.00014733
0.0577324
0.000153336
0.000316957
0.000147398
0.000158122
0.000165595
0.000156783
0.000148498
0.000147776
0.00014924
0.0136049
0.000175926
0.0400986
0.0471455
0.000154983
0.000145362
0.000164083
0.054007
0.000158386
0.00014689
0.000148411
0.00663155
0.00611884
0.0360944
0.0293875
0.000162409
0.000148959
0.000146375
0.000171116
0.000167623
0.000291221
0.00014782
0.000148335
0.00995917
0.00017362
0.000149893
0.000179238
0.000286844
0.000184572
0.000145856
0.000162512
0.000235658
0.000311026
0.0847712
0.000214057
0.000147283
0.000149775
0.000150074
0.00014989
0.000147908
0.000148491
0.000158557
0.000177548
0.00016124
0.000158094
0.000156509
0.000149182
0.000154025
0.0001501
0.000159398
0.000158139
0.000147108
0.000156461
0.000147477
0.000146695
0.000149454
0.000148698
0.00020312
0.000145325
0.000166789
0.000273446
0.000950467
0.0632007
0.0349764
0.000153088
0.000149533
0.000147132
0.0873607
0.000147919
0.000144217
0.000149091
0.0894535
0.000157246
0.000162104
0.000243624
0.000151036
0.00014807
0.000157605
0.000146986
0.000162627
0.000149893
0.000158993
0.000146818
0.000147771
0.000150347
0.000151209
0.000154889
0.000276136
0.000166344
0.000173225
0.000171953
0.000194593
0.000164706
0.000173765
0.000147804
0.0335069
0.000152303
0.00015446
0.000147805
0.000150357
0.000174701
0.000147756
0.000166785
0.00592144
0.000155925
0.000185059
0.000178182
0.000164074
0.000168302
0.000165651
0.00014743
0.000157208
0.000148488
0.000170987
0.000166181
0.0820946
0.000146312
0.000165774
0.000154082
0.0571285
0.000614282
0.000168102
0.000148545
0.000167958
0.000144883
0.000176511
0.000150023
0.0668979
0.000145623
0.000153619
0.000147948
0.000160177
0.00019734
0.000158182
0.027103
0.000148123
0.000161967
0.000165692
0.000147941
0.02853
0.0876131
0.000194961
0.000178819
0.000166898
0.000147336
0.000146864
0.0474657
0.000175987
0.000146118
0.00014986
0.000152791
0.000147511
0.000209086
0.000146787
0.0820806
0.000186244
0.000193744
0.000161124
0.000149096
0.00014563
0.000147216
0.000181288
0.000166705
0.000154273
0.0310918
0.000149088
0.000150588
0.000154786
0.0979872
0.000144756
0.000315643
0.000143634
0.072691
0.000147178
0.00014717
0.000159271
0.000147714
0.000148828
0.00018873
0.000148401
0.000149023
0.000146894
0.000164895
0.000153939
0.0419199
0.000147797
0.000148476
0.000146735
0.000190304
0.000146565
0.000155618
0.000168134
0.0881056
0.0679787
0.000469592
0.000208053
0.000213696
0.000163953
0.000165075
0.000154695
0.000149644
0.000148701
0.0752883
0.000164111
0.000144636
0.000147568
0.000147493
0.00015755
0.000171911
0.000149647
0.00015642
0.000187424
0.000197994
0.000173292
0.000147583
0.000149549
0.0573989
0.00015233
0.000145453
0.0754634
0.0715221
0.00014601
0.000143992
0.000154728
0.000148229
0.000159214
0.000149627
0.00425226
0.000149799
0.0426108
0.000147864
0.0126282
0.000157847
0.000147873
0.000181214
0.000145244
0.000148231
0.000149742
0.000160751
0.000235074
0.000147316
0.00019566
0.000149895
0.000149268
0.000169579
0.00014675
0.000148756
0.000148566
0.000144287
0.000147946
0.000144674
0.000149035
0.00731656
0.000146863
0.000146764
0.000164905
0.000145508
0.000147406
0.000149043
0.000148617
0.0956388
0.00018678
0.000148065
0.000150871
0.000147859
0.000149894
0.000214776
0.000148223
0.000147706
0.00953952
0.000147539
0.000167899
0.00017969
0.00016026
0.000147567
0.00020398
0.000147669
0.000214479
0.000164725
0.000147663
0.0608339
0.0348629
0.000155312
0.000171236
0.000147219
0.000147245
0.000161848
0.0002098
0.000146809
0.000146803
0.000148701
0.000163848
0.000148586
0.000160232
0.000148638
0.000166731
0.00042395
0.000160832
0.000211801
0.000147255
0.000154837
0.000156119
0.000160807
0.000145837
0.000147525
0.000150264
0.000159744
0.000166057
0.000149163
0.000195441
0.000147868
0.0779828
0.000144693
0.000146345
0.000174584
0.000149792
0.000178864
0.000191586
0.000161024
0.000148108
0.000150276
0.000147949
0.000161308
0.000148405
0.000163173
0.000155404
0.00014864
0.000145927
0.00015512
0.0950886
0.000158831
0.000163505
0.0808256
0.00101171
0.000161257
0.000144884
0.0745804
0.000147881
0.000151932
0.000149277
0.000188005
0.000147719
0.000159788
0.0001552
0.000151299
0.000148704
0.000153747
0.00014927
0.000174966
0.000147355
0.000149173
0.000147921
0.000156633
0.00783202
0.000148053
0.0179245
0.000166715
0.000144118
0.0961922
0.000140022
0.000147448
0.000151388
0.000191571
0.00014673
0.000147394
0.0623948
0.000148019
0.0687788
0.000153332
0.000152919
0.000149779
0.000149688