/*--------------------------------*- C++ -*----------------------------------*\
| =========                 |                                                 |
| \\      /  F ield         | OpenFOAM: The Open Source CFD Toolbox           |
|  \\    /   O peration     | Version:  v2012                                 |
|   \\  /    A nd           | Website:  www.openfoam.com                      |
|    \\/     M anipulation  |                                                 |
\*---------------------------------------------------------------------------*/
FoamFile
{
    version     2.0;
    format      ascii;
    class       volVectorField;
    location    "400";
    object      U;
}
// * * * * * * * * * * * * * * * * * * * * * * * * * * * * * * * * * * * * * //

dimensions      [0 1 -1 0 0 0 0];


internalField   nonuniform List<vector> 
10042
(
(0.996665 0.011691 -1.55879e-20)
(0.998613 0.00547595 0)
(1.03626 0.0128087 5.01275e-22)
(1.00855 3.70916e-05 -1.69972e-21)
(0.699517 0.0941181 0)
(0.999232 0.0050605 -3.29481e-21)
(0.755884 -0.00716889 6.10414e-20)
(1.331 -0.00518445 1.46336e-19)
(1.02979 0.0129598 1.15422e-21)
(1.00183 0.00519423 0)
(-0.252411 0.00543705 -5.66267e-20)
(1.01313 3.82707e-05 0)
(1.01544 0.00202703 -1.97548e-21)
(1.01556 0.00077256 0)
(0.961356 0.0553222 -4.47249e-20)
(0.999746 0.00636011 0)
(0.999712 0.00669032 0)
(1.00003 0.000355064 -8.10237e-21)
(0.996799 0.0113197 -6.32755e-21)
(0.685304 0.290409 0)
(1.00433 0.00550501 4.68391e-22)
(1.27257 -0.0677015 0)
(1.01456 0.00042201 0)
(1.01416 0.0043359 1.44908e-21)
(0.998679 0.00516996 0)
(1.09619 0.0145253 -2.25768e-20)
(0.99888 0.00174727 -1.61026e-20)
(0.996377 0.0558532 -8.96165e-21)
(1.02168 0.0219413 -7.51988e-22)
(1.00389 0.0495282 0)
(0.996752 0.00432234 -5.23544e-21)
(-0.150255 0.0265382 1.3067e-19)
(1.00176 0.00489598 4.43865e-21)
(1.02133 0.0441859 -4.41763e-21)
(1.07163 0.0542326 1.59597e-21)
(1.0138 0.00450592 1.59582e-21)
(1.0921 0.0189177 0)
(1.10489 -0.0137471 0)
(1.01349 0.0042124 1.61223e-21)
(1.00817 0.12136 7.34079e-22)
(0.656527 0.283481 0)
(0.969861 0.0546723 0)
(0.731605 -0.00585325 6.41254e-20)
(0.993701 0.032629 6.56412e-21)
(0.702711 0.0952587 0)
(1.16085 -0.0284072 -5.63667e-20)
(0.977713 0.0373788 -2.39575e-20)
(1.18227 -0.0987119 0)
(1.0854 0.032316 0)
(1.09876 -0.0779196 -3.14044e-21)
(1.00042 0.000496203 -1.03389e-20)
(1.03642 -0.00816817 2.9835e-21)
(0.960345 0.0436646 -2.62433e-20)
(1.04417 -0.0106072 8.80284e-21)
(1.09197 0.0219194 1.94945e-20)
(0.99928 0.00528604 1.47273e-21)
(1.02254 0.0218914 7.89177e-22)
(0.978281 0.0360726 3.43345e-22)
(1.02197 0.0427161 3.84901e-21)
(0.962729 0.0438047 1.09689e-20)
(0.997717 0.00467358 -9.74621e-21)
(0.997258 0.00645711 -5.06043e-21)
(1.07262 0.0575226 6.99766e-21)
(1.03534 0.0132132 1.39942e-21)
(0.96656 0.0174948 -1.63741e-20)
(1.02483 0.041774 3.00917e-21)
(0.97445 0.0128393 0)
(0.735196 0.202232 -3.57799e-20)
(-0.135062 -0.00197774 0)
(1.00134 0.0271236 4.35843e-21)
(1.04297 -0.0111183 0)
(0.639911 0.29451 -8.8598e-20)
(0.992424 0.0324051 -1.32583e-20)
(0.86532 0.0708977 0)
(0.97538 0.00927798 -2.18065e-20)
(1.01448 0.00458019 -3.27224e-21)
(0.584265 0.073001 -2.91067e-20)
(0.996643 0.0105089 0)
(0.904093 0.0922028 7.0836e-20)
(0.623544 0.0172445 -6.89503e-20)
(1.08235 0.0314671 -9.6514e-21)
(0.894044 0.126733 8.86386e-20)
(1.00838 0.03633 0)
(0.972476 0.0478342 1.30591e-20)
(0.974197 0.0117444 -2.08713e-20)
(1.00007 0.00141025 -1.65178e-20)
(0.997282 0.013373 0)
(1.16692 0.26823 -5.52482e-20)
(0.986774 0.0210656 -1.75516e-20)
(0.997712 0.0134394 6.28434e-21)
(1.03429 0.0315223 -1.51313e-21)
(0.915789 0.134602 1.105e-19)
(0.997439 0.0578653 -1.08931e-20)
(1.036 -0.0073215 0)
(1.00269 0.0479935 0)
(1.01641 0.0292757 -6.74498e-21)
(0.999695 0.010047 9.13832e-21)
(1.01065 0.0283218 0)
(1.00815 0.117491 0)
(1.02677 0.0193381 -6.29697e-23)
(0.999993 7.01585e-05 -1.31994e-20)
(1.17798 0.203465 0)
(1.32441 -0.0206973 -1.43639e-19)
(1.00009 0.0015493 1.7725e-20)
(0.990003 0.0515748 1.37501e-21)
(1.04924 0.207838 7.07027e-21)
(0.994242 0.0108704 0)
(0.999777 0.0103992 -9.45665e-21)
(1.00418 0.00520268 0)
(1.02101 0.000465579 1.13612e-22)
(1.00988 0.00120501 3.63193e-21)
(1.00492 0.0213447 5.27704e-21)
(1.04129 0.0807046 -6.48691e-22)
(-0.163965 0.00311392 1.39185e-19)
(0.967582 0.0164915 0)
(1.00221 0.019591 5.75637e-21)
(0.991655 0.00476191 -4.41714e-21)
(0.996491 0.0108918 7.81457e-21)
(1.01699 0.0284531 6.76087e-21)
(-0.0225608 0.0501077 -2.61763e-19)
(0.986933 0.0201196 3.54852e-22)
(1.34765 -0.0140261 -7.00357e-20)
(0.997151 0.0358942 4.859e-22)
(0.994216 0.00303405 4.4706e-22)
(1.17762 0.194514 -2.66203e-20)
(1.00753 0.037013 -1.00036e-20)
(1.34393 0.00181573 -6.90908e-20)
(1.08651 0.0503034 -6.24519e-21)
(1.04152 0.204021 -2.49941e-21)
(0.998293 0.0142906 6.4942e-21)
(0.901453 0.0980555 4.03282e-20)
(0.980402 0.0203832 0)
(-0.177244 0.0292839 0)
(1.2667 0.0281955 9.71869e-20)
(1.02593 0.0196534 -5.51152e-23)
(1.11313 0.178889 4.06625e-20)
(-0.121892 0.0409146 1.82332e-19)
(1.03443 0.0330347 1.0196e-21)
(1.19101 -0.0973826 0)
(1.17471 0.27689 6.46698e-20)
(0.983848 0.0525458 2.03486e-20)
(0.991185 0.00470234 0)
(0.984857 0.0463729 1.20285e-20)
(1.22326 0.165954 1.54569e-19)
(1.03396 -0.00317372 -2.18572e-22)
(1.00462 0.0207946 -1.09567e-20)
(1.13612 0.145539 -2.41226e-20)
(1.02507 0.00063179 1.47797e-21)
(1.01065 0.0293806 0)
(1.01464 0.0874576 0)
(1.03183 0.0114425 -5.44778e-23)
(1.00003 0.000139928 2.15861e-22)
(0.227391 0.0877269 8.15766e-20)
(-0.0608797 0.0461449 -1.28466e-19)
(0.999551 0.0011462 -1.14154e-20)
(1.01536 0.00176511 3.98631e-21)
(0.954039 0.0119995 1.83676e-20)
(0.996982 0.00653398 1.92508e-20)
(1.11129 0.186226 0)
(-0.0959623 0.0299429 -6.14298e-20)
(-0.249382 -0.00416502 -1.05484e-19)
(1.23842 0.0459324 0)
(0.99579 0.0052029 -1.40323e-20)
(1.03148 0.012289 -3.35377e-21)
(1.01221 0.039089 -5.26147e-21)
(0.98114 0.0192994 -3.03094e-20)
(0.954098 0.256292 -1.38754e-20)
(0.257529 0.180495 1.81218e-19)
(-0.166705 0.0313015 -1.59892e-20)
(-0.0235463 0.0470701 7.49507e-22)
(1.04381 -0.0057015 0)
(1.00542 0.0117284 5.99462e-21)
(1.09938 0.176671 7.3858e-21)
(0.688323 0.343826 -1.14833e-19)
(0.91172 0.16095 3.09814e-20)
(0.773713 -0.0420737 1.16559e-19)
(-0.208355 0.145002 -1.56835e-19)
(0.995308 0.0343639 -1.39728e-20)
(0.720875 0.22153 8.79414e-20)
(1.06703 0.106049 -1.5436e-20)
(0.951614 0.0126981 -1.97788e-20)
(-0.133587 0.0251347 1.47428e-19)
(0.973348 0.0154436 -3.03615e-20)
(1.08394 0.051838 1.9047e-20)
(0.969786 0.0518156 -1.93355e-20)
(0.0061283 0.0531876 3.13502e-19)
(1.27078 0.0640575 -3.48037e-20)
(1.02211 0.0371143 0)
(-0.222979 -0.023503 -5.26443e-20)
(1.05831 0.0394374 -1.88303e-21)
(0.749565 0.756896 1.33196e-22)
(0.982843 0.0458483 -1.27892e-20)
(0.227979 0.0898342 7.14663e-20)
(1.27927 0.208135 -9.709e-20)
(1.21939 0.00585442 -3.68791e-20)
(1.37603 0.159108 -9.37671e-20)
(1.0756 0.0226818 1.34408e-20)
(0.995113 0.00990815 -1.13634e-20)
(1.01506 0.00165181 2.07641e-21)
(1.03178 0.0610806 -3.69181e-22)
(0.889683 0.143407 -2.45847e-20)
(1.02317 0.0375658 2.919e-22)
(1.00637 0.0214775 -4.74427e-21)
(0.712039 0.366615 1.16662e-19)
(0.973069 0.0141617 0)
(1.01826 0.0122252 0)
(0.826946 0.794906 0)
(0.999311 0.00182754 -3.2431e-21)
(1.00003 0.000408764 -7.66424e-21)
(0.999892 0.000645078 0)
(1.34485 0.159097 1.36598e-19)
(1.01499 0.000245592 1.34434e-21)
(0.949067 0.24502 0)
(1.04209 0.439456 5.24159e-20)
(0.955912 0.0137623 -1.81791e-20)
(1.27477 0.0684401 5.18325e-21)
(0.978707 0.00806158 0)
(1.00051 0.00749281 -7.12104e-21)
(1.16275 0.128444 7.05125e-20)
(1.01014 0.0139918 5.133e-21)
(1.04477 0.0808741 7.01659e-22)
(0.953328 0.020253 2.05637e-20)
(1.13746 0.396707 -3.84509e-20)
(1.1079 -0.0163312 -9.1191e-21)
(0.945732 0.0707243 3.34326e-20)
(1.09964 0.0093857 -2.72669e-20)
(1.28917 0.0149443 0)
(1.0034 0.0202275 1.06676e-20)
(1.2518 0.073416 0)
(1.04346 -0.0130702 0)
(1.03039 0.0122286 1.43885e-21)
(0.823441 0.376581 3.76314e-20)
(1.005 0.0113672 -6.66529e-21)
(1.04238 -0.0135625 -9.15424e-21)
(1.03703 0.0135174 4.99984e-21)
(1.01738 0.0894373 -6.404e-21)
(1.01677 0.0141417 4.47698e-21)
(1.01592 0.000447288 4.23434e-24)
(1.05769 0.0179019 -7.01173e-21)
(1.05385 -0.0279266 0)
(0.995715 0.0049163 6.58977e-21)
(0.995795 0.0358279 -1.46506e-20)
(1.01199 0.0375978 0)
(1.04028 0.0840354 -1.09893e-21)
(1.00254 0.018958 -3.70876e-22)
(0.996969 0.00447041 0)
(1.01291 0.00097183 2.6181e-21)
(0.990696 0.0538185 -1.43702e-21)
(1.04372 -0.00821661 -3.69646e-21)
(1.00002 0.000264967 7.67398e-22)
(1.01492 0.00103525 2.41374e-21)
(1.00186 0.0262349 -7.49948e-21)
(0.994302 0.078757 1.5374e-20)
(1.15069 0.408258 0)
(1.23764 0.0516637 0)
(-0.220552 -0.0186237 5.81647e-20)
(0.90402 0.165271 7.38384e-20)
(0.927559 0.162138 2.73726e-21)
(0.960791 0.0582669 0)
(1.17348 -0.0283602 -3.20232e-20)
(0.935637 -0.0552939 1.04095e-19)
(1.05567 0.0178728 5.85469e-21)
(0.994378 0.0104561 0)
(1.01575 0.000469933 1.45449e-21)
(1.02962 0.0605775 2.34539e-21)
(1.01637 0.0135996 -5.77839e-21)
(1.27724 -0.0730145 0)
(1.05437 -0.00259755 4.23902e-21)
(0.997811 0.0141524 -6.53527e-23)
(0.999931 0.000560724 0)
(0.879528 0.144379 -3.03288e-20)
(1.04453 -0.00902683 -1.36921e-20)
(1.05413 0.424031 -4.38604e-20)
(0.920455 0.166556 -7.5662e-20)
(1.20221 0.240267 3.1964e-20)
(1.05914 0.0414583 -9.49641e-21)
(1.05191 -0.0290898 0)
(1.01535 0.0131909 -3.71586e-21)
(1.07109 -0.000353991 0)
(1.03485 -0.00312646 4.58504e-21)
(1.07054 0.109105 1.6013e-20)
(0.991091 0.0215624 0)
(1.09593 0.0178523 1.17826e-20)
(-0.137116 0.0332914 -7.65886e-20)
(1.01774 0.0119503 -1.74464e-22)
(1.03314 0.015954 -7.32047e-21)
(0.971128 -0.0567799 -1.53731e-19)
(1.16633 -0.0262143 6.50589e-20)
(1.02185 0.0359375 0)
(0.997464 0.00433728 5.85137e-22)
(0.99513 0.0756975 -1.28667e-20)
(0.786567 -0.0556075 -1.11507e-19)
(1.16302 0.0575239 5.4312e-20)
(1.22956 0.162847 -7.32417e-20)
(1.00035 0.000401624 7.09396e-21)
(1.01507 0.00139742 -6.26157e-21)
(1.00378 0.0208679 6.27478e-21)
(1.03012 0.0137097 -2.29518e-21)
(1.28862 0.00910113 -5.57429e-20)
(0.99512 0.0177994 0)
(0.99773 0.00497635 3.14536e-22)
(1.00516 0.0129789 0)
(0.978656 0.00686825 0)
(1.10134 -0.0284989 0)
(0.969148 0.0650572 0)
(1.09918 0.240178 -3.78815e-22)
(0.50389 0.016363 0)
(0.964138 0.0411529 -1.15877e-20)
(1.0826 0.0454277 0)
(1.00238 0.0176024 0)
(1.06932 0.000129096 0)
(0.998712 0.00197805 -1.42568e-20)
(-0.256215 0.0258762 1.33324e-19)
(1.18547 0.180854 -1.20728e-21)
(1.33972 0.231459 4.02628e-20)
(-0.188534 0.178874 5.37241e-20)
(1.01524 0.00466604 -3.33924e-21)
(1.0546 -0.00376206 9.27555e-21)
(1.0018 0.0280685 1.40256e-20)
(0.979662 0.0721171 1.86213e-20)
(1.09974 0.012979 2.71234e-20)
(1.00002 0.000797891 0)
(1.05744 0.121271 -6.87919e-21)
(1.01023 0.00125349 -1.29163e-21)
(1.01607 0.00026541 7.58186e-23)
(0.994057 0.0342583 -7.5301e-21)
(1.10418 0.248324 2.6879e-20)
(0.99999 0.000178816 2.87581e-22)
(1.05566 0.0388799 0)
(0.981432 0.017049 -9.03083e-24)
(0.971447 0.0633833 -7.22336e-22)
(-0.190053 0.0555184 4.12344e-20)
(1.00211 0.018264 3.79526e-22)
(0.999456 0.0013452 -7.41132e-21)
(1.00264 0.00174007 6.30153e-21)
(1.03461 0.0122108 -1.04205e-21)
(1.07899 0.153922 0)
(1.22213 0.00189097 1.01062e-19)
(0.936372 0.166307 4.79856e-20)
(1.33699 0.0617879 -1.48686e-19)
(1.10381 -0.0255579 0)
(1.08026 0.0505821 0)
(0.980608 0.0179151 1.95998e-20)
(1.01572 0.000717788 -1.65624e-21)
(1.03869 0.0295621 0)
(1.00002 0.000292099 7.26492e-21)
(1.29718 0.0554655 -1.34173e-19)
(0.991449 0.0222096 4.62079e-22)
(1.02389 0.0429711 -3.29487e-21)
(1.16021 -0.144324 6.39556e-20)
(1.00574 0.021865 0)
(0.983928 0.0794347 -1.00502e-20)
(0.972278 0.0505009 4.01289e-20)
(1.16976 -0.147658 -6.70159e-20)
(1.03708 0.00489631 -2.7766e-21)
(0.947282 0.0679983 -6.98865e-20)
(1.04165 0.196061 0)
(1.05261 0.1206 0)
(1.03477 0.0577777 8.65044e-24)
(0.994162 0.00904877 1.54833e-20)
(1.29325 0.0580567 0)
(1.1419 0.14437 5.45689e-20)
(1.04567 0.00801079 0)
(1.08019 0.147511 -7.46399e-21)
(1.00147 0.008678 -8.66622e-21)
(1.00496 0.010917 0)
(1.00167 0.00860114 7.65972e-21)
(0.980839 0.0797011 0)
(1.29926 0.23428 -3.36599e-20)
(1.05418 -0.0161539 1.92597e-20)
(1.00002 0.000681598 0)
(0.966348 0.041367 0)
(1 7.44292e-05 1.46913e-20)
(0.999986 0.00036998 -3.13021e-22)
(0.702822 0.309145 2.60977e-20)
(0.994895 0.00953321 2.27815e-20)
(1.02305 0.00770688 -7.34673e-23)
(-0.0996378 0.0421465 -1.86375e-19)
(1.0063 0.00753226 1.09445e-20)
(1.22239 -0.0297282 1.4667e-19)
(1.30117 0.0499131 4.53811e-20)
(0.865521 0.0785408 0)
(0.691783 -0.0391493 0)
(-0.208239 -0.0163689 0)
(1.00892 0.107346 -6.61796e-21)
(0.800764 0.373195 -4.05562e-20)
(0.999266 0.00156316 6.39527e-21)
(1.10501 -0.0797177 8.59754e-21)
(0.999999 9.99942e-05 -4.32312e-23)
(0.977575 0.0327909 3.23528e-21)
(1.22609 -0.213266 -4.74608e-20)
(1.00042 0.00509121 -1.60386e-20)
(0.977285 0.0741324 -2.07765e-20)
(0.591759 0.95735 -6.09051e-20)
(1.0141 0.000391705 0)
(1.00421 0.00574512 0)
(0.779591 0.123987 0)
(0.786206 0.693974 -4.07994e-21)
(1.02415 0.0402074 0)
(1.02468 0.00128985 -1.08234e-21)
(-0.150716 0.0285608 0)
(1.18636 0.189613 -1.14238e-20)
(1.00546 0.0122248 -6.63795e-21)
(0.730138 0.186711 -4.08838e-20)
(-0.107079 0.00866194 0)
(1.01061 0.0142222 0)
(1.00001 0.000465299 0)
(1.01967 0.00925897 -1.39774e-21)
(0.999527 0.0159545 0)
(1.01607 0.000339064 0)
(1.01759 0.0112174 3.0138e-21)
(1.2114 0.0478517 0)
(1.31502 -0.0134639 0)
(0.976954 0.0342238 -3.36402e-21)
(0.685835 0.0381068 4.16765e-20)
(1.01539 0.000670218 0)
(0.99522 0.0169575 -1.63107e-20)
(1.26531 0.266997 6.05336e-20)
(1.04059 0.00867555 0)
(1.2281 -0.0236032 6.42125e-20)
(1.16907 0.0578585 -8.61283e-20)
(0.970477 0.0465899 -3.81467e-20)
(1.02362 0.00556421 6.62554e-23)
(1.02419 0.00148374 1.08848e-21)
(1.06064 0.345478 -1.38907e-20)
(1.04466 -0.0066499 4.87756e-21)
(1.00449 0.108989 -8.49159e-21)
(0.996575 0.0483669 -1.14579e-21)
(-0.236673 0.0021901 -1.09541e-19)
(0.958065 0.0128706 -5.66928e-22)
(1.35272 0.235271 5.37955e-20)
(0.964444 0.0546223 2.16255e-21)
(1.00295 0.00728794 7.26277e-21)
(1.00261 0.0202652 0)
(1.21093 0.364347 6.89276e-20)
(1.0025 0.00712817 -1.44735e-20)
(0.91295 0.028428 0)
(0.998029 0.0212945 1.00909e-20)
(1.03627 0.00519012 -1.01244e-21)
(-0.123506 0.0332304 -1.01143e-19)
(1.07613 0.0277591 1.42185e-20)
(0.991324 0.00611053 9.06441e-23)
(1.01043 0.00077079 9.98517e-23)
(-0.188932 0.035734 1.16949e-19)
(0.998869 0.0151252 0)
(1.07802 0.0292349 -1.83567e-20)
(1.02529 0.0621362 -2.97712e-21)
(1.01575 0.0136726 0)
(0.86887 0.0541611 4.09248e-20)
(0.667427 -0.0244138 -6.73372e-22)
(1.00491 0.0066784 -3.01972e-21)
(0.969457 0.0166416 0)
(1.05613 -0.0162778 -7.58954e-21)
(1.01485 0.00122532 -1.73343e-23)
(0.999884 0.00718174 -2.04003e-21)
(0.993236 0.00200021 1.41542e-20)
(-0.184948 0.0344741 0)
(0.994628 0.00187964 -1.17874e-20)
(1.01537 0.000322008 -2.58486e-21)
(0.973901 0.113029 -1.76397e-20)
(1.33613 -0.0250489 1.27686e-19)
(1.15625 0.117305 -7.69796e-22)
(1.00002 0.000316429 2.78485e-22)
(1.06883 0.100844 0)
(-0.0783363 0.0218956 0)
(1.10402 -0.0328178 0)
(0.989925 0.00234832 0)
(0.99448 0.00862751 1.58193e-22)
(1.26633 0.0340713 -5.82492e-20)
(1.04439 0.00798822 -8.83678e-21)
(1.00289 0.00695869 -4.31165e-21)
(0.902423 0.0804339 -3.00144e-20)
(1.03132 0.0139952 2.66847e-21)
(1.01716 0.0110732 -2.59669e-21)
(0.95136 0.021884 0)
(1.01733 0.00428485 2.90712e-21)
(0.959845 0.174483 0)
(0.993819 0.011176 0)
(1.00233 0.00721688 6.79435e-21)
(-0.272632 0.0063877 0)
(1.00884 0.00538312 -2.68136e-21)
(1.0423 -0.00580655 -7.4721e-21)
(1.00059 0.00490672 0)
(0.997646 0.046675 0)
(1.06066 0.115862 1.22719e-20)
(1.0047 0.00651583 -5.81298e-21)
(1.03362 0.0123668 0)
(1.32785 0.240628 -8.02178e-20)
(1.00081 0.0523899 -9.1018e-22)
(0.475146 0.0392846 -8.71842e-20)
(1.05468 0.0198144 6.19682e-21)
(0.999999 0.000132631 1.10959e-20)
(1 0.00011634 0)
(1.18686 0.2181 5.31213e-20)
(0.990169 0.0180513 -1.26746e-20)
(0.991258 0.00577809 -9.58534e-21)
(1.00221 0.00201552 6.58548e-21)
(1.04664 0.00608834 -4.16234e-21)
(0.951069 0.0981566 0)
(0.758228 -0.000806132 0)
(0.998375 0.0149876 0)
(0.952685 0.171224 0)
(0.650639 0.770927 0)
(1.10199 -0.0361153 3.06169e-20)
(1.00002 0.000461856 -9.72461e-22)
(0.99309 0.00455023 -1.58479e-20)
(1.03923 0.00107137 -5.89147e-21)
(1.00006 0.00157699 0)
(1.00118 0.016278 7.16263e-21)
(-0.0681362 0.15456 5.2397e-20)
(-0.160681 0.0369193 -1.12482e-19)
(1.00037 0.00477879 -1.5471e-20)
(1.08672 0.0470879 0)
(1.08072 -0.0211694 2.19988e-20)
(1.07828 -0.0201421 0)
(0.974208 0.00872502 2.3791e-20)
(1.0118 0.00115626 -9.72997e-24)
(1.30906 -0.0276204 1.67482e-21)
(1.06993 0.336217 -2.53621e-20)
(0.687851 0.750185 -3.17768e-21)
(1.02299 0.00566633 2.38051e-22)
(1.04036 0.00132307 -1.48912e-21)
(1.03957 0.00918472 -2.1249e-21)
(1.00615 0.00777361 -1.12906e-20)
(-0.0854258 -0.0151394 -7.65421e-20)
(1.07976 0.110443 1.23389e-20)
(1.04669 0.00727434 5.70567e-21)
(1.02204 0.0258735 4.13226e-21)
(1.00869 0.000568139 8.87421e-21)
(0.97631 0.00679827 -8.37835e-21)
(1.32709 -0.0230802 -5.7301e-20)
(1.07727 0.025003 -1.50953e-20)
(0.998943 0.0015185 1.37859e-20)
(-0.217576 0.0286386 7.32241e-20)
(0.770476 0.651011 5.47148e-21)
(1.01351 0.477655 -2.44291e-20)
(1.0582 0.206555 -1.48126e-20)
(0.999878 0.0068584 2.03092e-21)
(1.02594 0.0207538 -3.84125e-22)
(1.08965 -0.100308 -2.91436e-20)
(1.13197 0.134447 -3.25272e-20)
(-0.0645323 0.0968126 0)
(0.367032 0.203972 -1.67517e-19)
(0.946143 0.0609051 -3.35061e-20)
(0.908999 0.0263398 0)
(1.0001 0.0013559 -4.44737e-21)
(1.0551 0.0365116 0)
(0.970533 0.0171306 2.87761e-20)
(1.00011 0.00151984 0)
(-0.252358 -0.00435271 0)
(1.01322 0.0010309 -3.53134e-21)
(1.00203 0.0169638 -1.72085e-20)
(1.15094 -0.0410863 0)
(1.00004 0.00142838 0)
(1.27984 -0.1176 0)
(1.05274 0.0194819 -1.47876e-20)
(1.24257 -0.0296079 4.97724e-21)
(1.02243 0.114271 0)
(0.999925 0.000556758 0)
(1.05549 0.00243344 -8.09171e-21)
(1.07403 0.0519127 -1.72027e-21)
(1.06563 -0.0691248 1.33818e-20)
(1.06255 0.201569 2.00837e-20)
(0.952724 0.306276 1.43593e-20)
(0.999985 0.000172547 1.95465e-20)
(1.09407 -0.0819457 3.19416e-21)
(1.03313 0.0517811 -2.08259e-23)
(1.01514 0.0290107 4.33975e-21)
(1.00065 0.00269839 0)
(1.03887 0.0309362 1.7518e-21)
(0.996312 0.00191257 -1.04319e-20)
(0.944634 0.0640889 5.53638e-20)
(1.15743 0.112831 -1.24365e-20)
(0.843804 0.135172 0)
(0.998924 0.0011755 -1.40176e-20)
(0.999769 0.054137 -4.90049e-21)
(1.00228 0.00186512 -7.01549e-21)
(0.991067 0.00896278 -1.06414e-20)
(0.78672 0.354162 0)
(1.00372 0.004729 2.55444e-22)
(1.02095 0.0632145 -4.38956e-22)
(1.26507 -0.0692743 -3.91527e-22)
(1.01696 0.00417872 -3.10419e-21)
(1.13069 0.141228 1.99553e-20)
(1.09913 -0.132939 3.45534e-20)
(0.997231 0.00423102 -1.04299e-20)
(-0.00693427 0.0546901 -9.84357e-20)
(1.13425 0.00935432 0)
(0.999975 0.00145623 0)
(1.27519 0.0842329 -4.82564e-20)
(1.03882 0.0126064 0)
(1.00002 0.000336397 0)
(0.980276 0.0122383 0)
(0.994397 0.0040724 0)
(0.999996 9.87397e-05 -8.80887e-21)
(1.05645 0.0465212 0)
(0.975224 0.00655698 5.87873e-21)
(0.81857 0.605171 -1.76743e-21)
(0.986116 0.0530567 -1.58806e-20)
(0.993517 0.0048411 1.53032e-20)
(1.02696 0.0386776 -1.69634e-21)
(1.06515 0.116352 4.24846e-21)
(1.11102 0.0265024 0)
(0.993886 0.0027075 -1.77038e-21)
(1.06355 -0.00270592 1.44608e-21)
(1.0252 0.0209793 -8.63732e-23)
(1.10104 -0.0151951 0)
(0.981731 0.00641096 1.47539e-20)
(1.01861 0.117541 0)
(1.02371 0.00783705 -1.59364e-22)
(0.946408 0.0143926 -5.95789e-21)
(1.02365 0.00209197 -8.52298e-22)
(1.00208 0.00890893 -7.44302e-21)
(0.601601 0.0240284 0)
(1.01925 0.0095847 1.77379e-21)
(0.79046 0.335681 0)
(0.993075 0.00243373 0)
(1.05073 0.00353872 1.21082e-20)
(1.00937 0.00514089 0)
(1.10995 0.00821791 -3.83944e-21)
(1.00052 0.00464047 0)
(1.13837 0.0113259 -2.76952e-20)
(1.02295 0.0349006 0)
(1.26983 0.0858376 -1.2167e-21)
(0.999978 0.000463526 -5.22964e-21)
(0.870278 -0.0301874 -1.83518e-19)
(1.02502 0.00032252 0)
(0.970536 0.0604748 2.3721e-20)
(0.999965 0.000178455 -4.70749e-21)
(0.977668 0.00884736 8.94876e-21)
(1.00127 0.00831919 1.56718e-20)
(1.0548 0.0475234 0)
(0.996399 0.00244098 1.09467e-20)
(0.649953 0.248799 0)
(0.654001 0.48318 1.44478e-19)
(1.27223 -0.128752 0)
(1.06474 0.0149581 1.26171e-20)
(0.941792 0.160546 -8.57396e-21)
(1.00773 0.0217802 0)
(0.979792 0.17599 2.08303e-20)
(1.16001 -0.0343236 -2.82842e-20)
(1.00188 0.00481242 4.95402e-21)
(0.909028 0.0810445 0)
(0.947128 0.321079 0)
(-0.0424198 0.0930034 -4.50305e-20)
(1.09125 -0.133373 -3.26478e-20)
(1.3178 0.297015 1.00346e-19)
(1.07751 0.0531781 -1.59097e-20)
(0.999256 0.0402382 0)
(1.00004 0.00101253 0)
(1.06768 -0.000895327 -6.05636e-21)
(1.05798 0.0432499 1.70543e-20)
(1.06657 -0.0602942 -2.13541e-20)
(1.0149 0.00441777 -1.46959e-21)
(1.03851 0.0550757 1.05008e-21)
(1.2318 0.0546909 5.47224e-20)
(1.00003 0.000122805 -2.27723e-22)
(0.99095 0.00841615 -6.17613e-21)
(1.06526 -0.00415102 -1.20621e-20)
(0.131896 0.0396061 0)
(0.972779 0.0589288 -1.84218e-20)
(1.06578 0.0972064 -6.62038e-21)
(1.08309 -0.103594 0)
(0.99995 0.00044714 1.56123e-21)
(0.60717 0.0175075 -6.64205e-20)
(1.01484 0.00525293 1.85538e-21)
(1.00601 0.0131373 7.07981e-21)
(1.00567 0.049555 -4.79234e-22)
(1.03155 0.0147791 -1.44481e-21)
(-0.237141 0.028207 -1.20397e-19)
(1.16675 -0.0512382 0)
(0.0620618 0.0512396 9.40328e-20)
(1.00159 0.000718142 7.35333e-21)
(1.29295 0.383042 1.05809e-19)
(0.036864 0.0652619 -1.02851e-19)
(1.29305 0.0443656 3.9543e-20)
(1.06848 -0.0577367 2.1774e-20)
(1.1751 -0.0335658 0)
(1.24922 0.0676516 -5.26738e-20)
(1.00923 0.180768 8.04369e-21)
(0.981033 0.0158437 1.89829e-20)
(0.997577 0.0219356 -1.19998e-20)
(0.899384 0.0860111 -3.22434e-21)
(-0.276374 0.0233395 0)
(1.00914 0.0219239 0)
(0.971567 0.117459 0)
(0.359927 0.0478783 0)
(0.993622 0.0122146 -1.14489e-20)
(1.00282 0.00953567 7.59254e-21)
(1.01467 0.0297942 2.89666e-21)
(0.989896 0.0581716 0)
(1.00111 0.00842613 -9.16787e-21)
(1.03802 0.00345461 -1.22525e-20)
(1.17805 0.222711 -5.0094e-20)
(1.29575 0.143977 7.69208e-20)
(1.03713 0.00372294 -2.31887e-21)
(1.0006 0.0072067 0)
(-0.196383 0.0263169 0)
(0.15006 0.112049 0)
(1.00714 0.0221676 7.92015e-23)
(0.990555 0.00226951 0)
(1.00043 0.000594006 3.75563e-21)
(0.999003 0.01582 7.17121e-21)
(1.26889 0.277444 4.17579e-20)
(1.16405 -0.0577564 -3.47911e-20)
(1.02031 0.435895 -6.08392e-21)
(0.987809 0.0512418 1.2637e-20)
(1.00281 0.0099088 -1.57386e-20)
(1.03156 0.00984446 -1.81139e-22)
(0.949748 0.0107143 2.83733e-21)
(0.99792 0.00441397 1.12117e-21)
(1.1063 -0.00175798 -2.84838e-20)
(0.968044 0.0387671 -4.78238e-21)
(0.372309 0.012385 4.9512e-22)
(0.999535 0.00718041 0)
(1.0011 0.00348822 9.68913e-21)
(1.05036 0.167687 -1.45637e-21)
(1.00894 0.0210119 4.72754e-21)
(1.0818 -0.0442404 0)
(0.882259 0.268424 0)
(1.05385 0.00321533 0)
(0.757617 0.612517 5.22035e-20)
(0.0213619 0.069461 1.00143e-19)
(0.997732 0.0402942 0)
(1.00144 0.0169459 5.46701e-21)
(0.921435 0.0319557 0)
(-0.274268 0.0191318 0)
(0.990307 0.158876 0)
(1.03786 0.0125228 -5.4937e-21)
(1.3335 0.00802157 0)
(0.755945 0.400416 7.09648e-20)
(0.917297 0.0353254 2.44075e-20)
(0.981879 0.0149544 0)
(1.00249 0.00151696 0)
(1.00386 0.00508502 0)
(1.07407 0.427347 0)
(1.06354 0.0159809 -1.24948e-20)
(0.778187 0.29524 -3.98158e-20)
(1.00001 0.000362178 9.70471e-22)
(-0.185495 0.0409244 0)
(1.29302 0.223064 -6.54922e-20)
(0.993152 0.00411977 0)
(0.997677 0.00733989 0)
(0.66305 0.23592 -7.17305e-20)
(0.999258 0.00203869 1.3605e-20)
(1.0097 0.00518466 0)
(1.00191 0.0863374 0)
(-0.0833046 0.0159962 -8.30146e-20)
(-0.00572731 0.0996197 0)
(0.735391 0.0289446 0)
(1.04165 -0.00460173 7.62243e-21)
(1.16784 -0.00475817 0)
(1.00941 0.172612 -6.48408e-21)
(1.01308 0.0043081 7.85335e-23)
(1.00819 0.000354718 -8.79657e-21)
(0.999586 0.000949537 -1.91856e-22)
(1.0851 0.412507 -1.65629e-20)
(1.00013 0.00123764 0)
(0.993502 0.00528873 0)
(1.16627 -0.00840001 -5.68414e-20)
(0.975428 0.0105129 -2.20274e-20)
(1.15693 0.131857 2.46726e-20)
(1.00083 0.000858637 -8.57613e-21)
(0.998539 0.00251277 -8.33701e-21)
(1.01049 0.00103733 4.19455e-21)
(0.999072 0.00103563 0)
(1.26085 0.0244102 -1.00725e-19)
(1.00014 0.00138577 2.83857e-22)
(1.0013 0.0251574 8.5698e-21)
(1.13461 0.0283501 3.55172e-20)
(0.935231 0.243637 1.12299e-20)
(0.817372 0.516379 6.27982e-21)
(1.00001 0.00144865 0)
(1.20124 0.104825 0)
(0.0852734 0.13004 8.16796e-20)
(0.508383 0.033942 0)
(0.967985 0.0474591 1.92524e-20)
(-0.221354 0.0286075 -1.4862e-19)
(-0.104401 0.0126365 9.40658e-22)
(0.993936 0.0119025 0)
(1.01522 0.00214503 1.31875e-21)
(0.983434 0.0501656 -6.77839e-21)
(0.948644 0.0341993 0)
(-0.000831599 0.115383 -1.31649e-19)
(1.02754 0.0628642 0)
(1.00063 0.00250627 -9.03029e-21)
(1.00011 0.00130343 6.68239e-23)
(0.15049 0.108452 -8.74833e-20)
(0.981424 0.168339 -3.39147e-20)
(1.04038 -0.00463866 -8.5157e-22)
(1.00049 0.00208758 -8.42591e-21)
(0.990214 0.00337316 1.577e-23)
(1.08755 0.145862 8.5827e-21)
(1.0092 0.00547135 2.70849e-21)
(1.0067 0.000532809 0)
(1.09798 -0.013047 0)
(0.989043 0.0558686 1.26514e-20)
(0.999675 0.000763149 1.18783e-20)
(1.02728 0.016509 0)
(0.715452 0.635679 0)
(1.03242 0.016672 1.83361e-21)
(0.993889 0.0560705 6.93838e-22)
(0.996112 0.0017068 1.11229e-20)
(1.00064 0.0483236 9.06928e-22)
(1.21694 0.179948 -3.32965e-20)
(1.00003 0.00159198 0)
(0.977442 0.0554322 1.31539e-20)
(0.997613 0.00241258 -1.94739e-20)
(1.07294 0.0230182 1.33057e-20)
(0.639837 0.557911 -6.97407e-20)
(0.999999 8.90605e-05 7.48034e-21)
(0.830386 0.495271 1.45929e-20)
(1.04642 0.0781518 1.91295e-21)
(0.00416205 0.1104 0)
(1.01421 0.000429573 1.3143e-21)
(1.03407 0.0598557 3.74935e-22)
(1.09446 -0.0142654 -3.23292e-21)
(1.19977 0.109188 1.90983e-21)
(0.781189 0.137363 0)
(0.967862 0.0372861 4.92489e-21)
(1.26873 0.276925 6.13491e-20)
(1.1636 -0.0707352 -8.31562e-20)
(0.962147 0.0244721 0)
(1.01039 0.000584625 -1.12287e-22)
(1.29531 0.0389756 -3.89248e-20)
(0.99766 0.00168622 -9.36043e-24)
(1.00002 0.000687715 0)
(1.01352 0.0132335 4.5869e-21)
(1.00003 0.000791548 1.04674e-21)
(1.15357 0.0636752 -8.09462e-21)
(1 1.35865e-05 -3.72883e-21)
(0.999994 9.22244e-05 0)
(0.869305 0.264619 2.53216e-20)
(1.02165 0.109295 2.73222e-21)
(1.01238 4.58594e-05 4.34334e-21)
(0.924351 0.11823 1.7988e-20)
(0.953323 0.0177335 1.83324e-20)
(0.643085 0.0317407 8.59853e-20)
(1.05709 0.013817 1.38314e-20)
(0.806191 0.577257 0)
(0.999711 0.0166649 7.14228e-21)
(1.15321 -0.0354443 2.91867e-20)
(0.988826 0.166499 1.58795e-20)
(0.244583 0.0671613 0)
(1.06535 0.0278073 0)
(-0.118143 -0.0144974 -4.04001e-20)
(1.00001 0.000370395 7.89946e-21)
(1.05658 -0.0220159 -2.54022e-20)
(1.00169 0.0026791 3.84268e-21)
(0.999954 0.0387375 0)
(0.98929 0.0181423 1.33768e-20)
(1.23656 -0.0331825 1.08433e-20)
(0.860846 0.144473 0)
(1.08292 -0.0820319 0)
(-0.24643 0.000220595 1.56605e-19)
(1.00057 0.00283002 0)
(0.940576 0.92488 0)
(1.05367 -0.0251138 -9.4931e-21)
(1.02222 0.0200097 2.28613e-21)
(0.871524 0.0670721 0)
(1.09756 0.0421562 -7.58543e-21)
(0.0246188 0.077435 -8.32359e-20)
(0.997396 0.00741408 0)
(0.946686 0.0979526 -5.41169e-20)
(0.931995 0.230956 0)
(1.02333 0.0640605 3.64371e-21)
(0.833984 0.137653 -3.39066e-21)
(1.00001 0.000153263 -7.70326e-21)
(1.01438 0.00250301 -9.80898e-22)
(1.00001 0.000140761 -1.4509e-20)
(0.970773 0.469651 -3.18973e-21)
(0.999181 0.00264772 1.36259e-20)
(1.00174 0.00531216 -6.82866e-21)
(1.01255 0.0126474 -4.54733e-21)
(1.00967 0.000977895 -5.30391e-21)
(1.00187 0.00894524 1.65231e-20)
(1.00033 0.00747288 9.35713e-21)
(1.02777 0.0403329 1.77915e-21)
(1.0035 0.0142366 6.72387e-21)
(0.999227 0.00180337 -7.25336e-21)
(0.958439 0.0105705 0)
(1.00458 0.0889001 5.42978e-21)
(0.930482 0.116234 0)
(0.994462 0.00223733 0)
(0.0262932 0.104085 6.48671e-20)
(1.00329 0.0346296 0)
(1.28151 0.376848 -1.44247e-19)
(0.896674 0.149441 -2.25583e-20)
(-0.106764 0.0960246 0)
(1.105 0.0863507 -3.03596e-20)
(1.05561 -0.0205325 0)
(-0.166806 0.0367396 -1.32958e-19)
(1.11379 0.0289142 -2.07678e-20)
(1.00528 0.457554 2.57579e-20)
(0.68644 0.0194309 3.84176e-20)
(1.08885 0.139848 0)
(1.00012 0.00144682 4.55189e-21)
(1.00508 0.0124326 0)
(1.00596 0.0597818 0)
(1.2237 0.176373 -1.12886e-19)
(1.01361 0.0298598 -1.18337e-20)
(-0.0335817 0.0415999 0)
(1.00495 0.0277586 8.11638e-21)
(0.965887 0.699018 2.74091e-20)
(0.830763 -0.0298378 0)
(1.07641 -0.0990552 2.33882e-20)
(1.05178 0.0211347 8.13551e-21)
(-0.0390214 0.0484023 -1.95807e-19)
(-0.169483 0.0823543 9.43407e-20)
(0.943644 0.0150593 -2.00566e-20)
(0.994112 0.00341632 0)
(0.999958 0.000261384 1.34569e-20)
(1.06383 -0.000538805 1.01598e-20)
(1.01456 0.00238508 -1.70092e-21)
(1.01155 0.000930793 4.22564e-21)
(1.10201 0.189568 -3.0641e-20)
(1.21704 -0.22744 0)
(0.997715 0.0021317 8.36056e-21)
(1.0127 0.0293823 9.48657e-21)
(0.960511 0.00990226 0)
(1.2176 0.356939 -3.17015e-20)
(1.09673 -0.104228 -1.41799e-21)
(0.999533 0.0023721 0)
(1.04455 0.0744845 2.10921e-21)
(1.20674 0.0665853 0)
(0.997572 0.0502164 1.11791e-21)
(1.00029 0.00637726 7.21839e-21)
(-0.0710253 0.0396937 0)
(0.98703 0.0415443 0)
(0.995568 0.0182672 3.14175e-21)
(0.837956 0.953092 0)
(0.998279 0.0748317 1.55518e-21)
(0.979749 0.00618353 0)
(-0.145258 0.0421931 -1.31324e-19)
(0.520667 0.0279647 -5.38347e-20)
(0.0847343 0.0698213 2.8625e-19)
(0.991367 0.01018 -1.20259e-22)
(0.977864 0.0582445 2.18618e-20)
(1.28939 0.0608657 -4.37987e-20)
(1.01293 0.0131926 9.56024e-21)
(1.02171 0.026998 -2.43862e-21)
(0.999992 0.000190606 0)
(1.06471 -0.0360847 -1.509e-20)
(0.997959 0.00503807 2.23411e-21)
(1.00089 0.000813951 1.45718e-20)
(1.0426 -0.0154077 1.50588e-20)
(0.791409 0.115533 0)
(0.895385 0.426579 -2.00351e-20)
(1.00923 0.0141411 -4.37332e-21)
(0.982934 0.0111729 -2.24413e-21)
(0.997615 0.0012315 8.60894e-21)
(1.02111 0.0250991 -1.17389e-21)
(0.985175 0.0485299 -1.30397e-20)
(1.01367 0.00282894 0)
(1.24186 0.0669533 0)
(1.00347 0.114008 6.17119e-21)
(0.993454 0.0294899 -1.34222e-20)
(0.99599 0.0063661 0)
(1.01033 0.0131604 4.68973e-21)
(1.00261 0.00500815 -1.49164e-20)
(1.03514 0.0381566 -1.63034e-22)
(-0.0560003 0.02189 1.54725e-19)
(1.09288 0.0123209 0)
(1.0246 0.000832962 0)
(0.994358 0.00947287 -2.31153e-20)