/*--------------------------------*- C++ -*----------------------------------*\
| =========                 |                                                 |
| \\      /  F ield         | OpenFOAM: The Open Source CFD Toolbox           |
|  \\    /   O peration     | Version:  v2012                                 |
|   \\  /    A nd           | Website:  www.openfoam.com                      |
|    \\/     M anipulation  |                                                 |
\*---------------------------------------------------------------------------*/
FoamFile
{
    version     2.0;
    format      ascii;
    class       volVectorField;
    location    "50";
    object      ddtCorrDdt0(U);
}
// * * * * * * * * * * * * * * * * * * * * * * * * * * * * * * * * * * * * * //

dimensions      [0 1 -2 0 0 0 0];


internalField   nonuniform List<vector> 
9793
(
(0.00161353 -0.00329453 1.431e-17)
(4.28064e-05 0.0226949 1.51286e-16)
(0.000702408 -0.000896829 -4.63222e-18)
(0.00635316 -0.132902 2.17995e-17)
(1.51127e-06 -0.000195336 1.0659e-18)
(0.038829 0.0364084 -5.95075e-17)
(0.0287686 -0.00708739 -6.25273e-17)
(-0.0360213 -0.00819371 -6.29826e-18)
(0.00303241 0.00238149 -5.7811e-19)
(-0.00648363 0.0312165 1.79146e-18)
(6.20389e-05 -0.000474157 1.0582e-18)
(7.70569e-05 -0.000536056 1.69932e-18)
(0.000703096 0.000113156 -8.84413e-19)
(-0.0612679 -0.12957 -7.10668e-18)
(0.000928557 0.00179846 -2.425e-19)
(-0.0131009 0.0139209 -2.38134e-18)
(0.0220054 0.0186167 6.0512e-17)
(0.000878683 -0.000677542 -4.20383e-18)
(-0.00289078 -0.0618798 3.94811e-17)
(-0.000588618 0.00032038 9.72878e-19)
(-0.000921778 0.00105488 1.24082e-18)
(-5.9213e-07 -3.10351e-05 4.00643e-18)
(0.0034917 -0.134952 4.23287e-18)
(-0.0305095 -0.0122618 3.95864e-17)
(-0.0725022 -0.123658 -1.34874e-18)
(0.00419154 -0.00651594 2.08251e-17)
(0.000285756 -0.000882502 -1.95222e-18)
(2.81141e-06 -5.0513e-05 1.06274e-18)
(-0.000567629 0.000351128 -1.04497e-18)
(0.031972 0.00717542 -2.87034e-17)
(-0.0761561 -0.00969761 8.13248e-17)
(0.0522315 0.0348356 2.49045e-17)
(0.000435544 -0.00121088 -1.46302e-19)
(0.000839768 -0.000469738 -3.30187e-18)
(0.000120909 2.90707e-05 2.46608e-20)
(0.00372617 0.0167804 4.51807e-20)
(-0.00899392 0.0106396 4.04087e-18)
(0.000588001 -0.00665027 3.0941e-17)
(0.0638764 -0.1235 -2.25801e-18)
(0.0120909 0.0100144 -1.14022e-17)
(0.0301424 0.00718719 7.92155e-18)
(0.0564206 0.0715544 -3.85899e-17)
(-0.0553175 0.0133461 8.8048e-17)
(1.60631e-06 -3.18295e-05 -1.40826e-18)
(0.000186267 -0.00119111 -3.34775e-18)
(0.00012697 -0.0015552 -8.33619e-19)
(-0.128588 0.000552123 -2.28996e-17)
(4.81928e-06 -4.45251e-05 -1.08296e-19)
(-0.00246395 0.00134787 -3.96417e-19)
(0.000811237 -0.00070441 -1.43481e-18)
(0.00278404 0.0172013 -8.07035e-18)
(8.94041e-05 3.8779e-05 -3.10377e-20)
(0.0120852 0.0187723 1.10389e-17)
(9.01996e-06 -0.000117696 5.49752e-18)
(0.00723351 -0.00895287 6.87394e-18)
(0.00707174 -0.131593 -3.95863e-17)
(0.000630018 0.00011524 -6.08594e-19)
(0.0194522 0.0410496 2.92016e-17)
(-0.00235659 0.0014969 5.61851e-18)
(1.90754e-06 -2.61681e-05 1.10631e-18)
(0.00166514 -0.00751133 -1.75489e-17)
(0.00962271 -0.0189039 9.64299e-19)
(0.000676253 -0.000863179 9.30088e-19)
(-0.00395857 0.0280911 1.70481e-18)
(0.000229044 9.58387e-06 6.97978e-19)
(0.0028247 0.00228345 -1.12005e-19)
(-0.100627 0.000553071 -1.71118e-17)
(0.00468488 0.00792761 7.93968e-18)
(-0.0108578 0.010999 -2.27908e-18)
(0.0719427 -0.000371584 1.3482e-16)
(0.0010797 -0.00185328 -3.79254e-18)
(0.000482005 -0.0161141 -5.25611e-17)
(-0.0641649 -0.00308824 7.85145e-17)
(0.438161 -0.0399282 1.35296e-18)
(0.194164 0.0103133 9.0073e-18)
(2.36057e-06 -0.000106917 3.10594e-18)
(0.00501611 -0.0131174 1.72834e-17)
(0.0609295 0.0441483 -5.28516e-17)
(0.000437765 -0.00111661 2.43302e-18)
(4.67446e-06 -0.000123452 -5.05984e-18)
(0.00488153 -0.0134319 -2.71889e-17)
(-0.00259313 -0.05441 -8.82998e-17)
(0.0204416 0.0191886 -2.93006e-17)
(0.00615686 -0.00242122 -1.9143e-18)
(-0.00990295 0.0115392 6.77888e-18)
(0.0496088 0.00594731 1.84955e-18)
(6.74376e-06 -0.000177441 4.00351e-18)
(0.00630966 0.0499095 -8.54039e-18)
(0.0664781 -0.128847 -4.36172e-17)
(0.00909406 -0.0182216 -1.11883e-18)
(0.00303901 -0.131222 5.48864e-17)
(0.0673047 -0.00572067 1.41808e-17)
(0.0638647 -0.00879764 -3.00618e-17)
(0.0193812 0.00498584 -9.75631e-18)
(-0.0559756 0.0109898 -2.21408e-17)
(0.00107062 -0.000342515 -2.09782e-19)
(0.208472 0.0221643 -9.07435e-18)
(0.0225651 0.0138342 -5.44961e-18)
(0.0077416 0.00478027 -9.7322e-18)
(-4.08119e-08 -0.00014159 2.23456e-18)
(0.00712015 -0.138151 -6.28499e-17)
(0.0114476 0.0179418 -1.07304e-17)
(0.114622 0.285518 3.02354e-17)
(0.000198473 -0.00121584 -1.75369e-19)
(0.220492 -0.0354344 -2.6893e-17)
(0.0578544 0.0367507 3.65946e-17)
(0.353749 -0.0347781 -1.50537e-18)
(0.000418117 0.00030939 1.53658e-19)
(0.000403236 -0.00115769 -5.25881e-18)
(-1.61805e-06 -5.65982e-05 -1.92199e-18)
(1.65054e-05 -0.000141269 -2.86661e-18)
(0.00311518 -0.132341 5.95506e-17)
(0.00189813 -0.0165238 3.92173e-17)
(-0.0478932 -0.00415329 9.77489e-17)
(0.00115397 -0.00176492 1.20525e-17)
(0.000220113 -0.00127453 3.54835e-18)
(-0.0140364 0.00450024 -9.05976e-19)
(0.000187472 -0.00153232 -2.55602e-18)
(0.0103473 -0.129304 -1.36528e-17)
(9.59628e-05 -0.00149637 -3.18453e-18)
(0.224436 -0.0704031 -3.32066e-17)
(0.00957386 0.0504485 1.1715e-17)
(0.228392 0.045655 5.81769e-17)
(0.0107953 0.0257063 -2.58545e-17)
(-0.00797575 0.0110201 4.16758e-18)
(7.25779e-05 -0.00152904 2.7751e-18)
(0.0251979 0.0166498 3.2746e-17)
(-0.0736676 -0.0118789 2.14838e-17)
(0.0339798 0.0654366 -1.36018e-17)
(0.0371994 0.0714741 2.68859e-18)
(-0.00156923 0.0099482 1.54922e-18)
(0.000835618 0.000618485 3.32692e-20)
(0.00169999 -0.00318049 -9.58082e-18)
(0.00348247 0.00703215 2.66456e-18)
(0.00368262 0.0150132 1.85949e-17)
(0.0385864 -0.00649419 -3.05664e-17)
(0.0325032 0.050243 5.59256e-17)
(-0.0136428 0.00554226 -6.12747e-19)
(1.89797e-06 -7.11817e-05 -2.71084e-18)
(0.023443 0.0223285 4.18797e-17)
(-0.0143479 -0.0444459 1.06044e-16)
(0.00394211 0.0157443 -4.45532e-18)
(0.00176608 -0.00129713 1.05762e-18)
(0.00257799 0.0435514 -2.39272e-17)
(-0.12896 0.00416843 -2.79345e-17)
(0.0284904 -0.0312393 4.99101e-17)
(2.68868e-05 -0.0015509 -3.81414e-18)
(0.190359 0.0219367 7.1787e-17)
(0.00088807 0.000619087 3.99622e-20)
(4.92341e-05 -0.00152687 2.46355e-18)
(0.000380151 -0.00112436 2.81293e-19)
(-0.0807781 -0.00242331 5.11439e-17)
(0.00720509 0.00460627 -1.16412e-17)
(0.000278271 -0.000910639 1.9659e-18)
(0.000461249 -0.00135739 -7.85568e-18)
(0.0608177 -0.0109297 -4.04822e-17)
(0.0230362 0.0196667 -3.85638e-17)
(0.000720477 -0.00080982 -4.36266e-18)
(0.0536473 0.0371279 -5.81966e-17)
(0.0011311 -0.00132987 -6.14231e-18)
(0.00550777 0.0469771 2.81009e-17)
(-0.00103924 0.0103427 -7.77928e-18)
(-0.000840873 0.00110882 1.52324e-18)
(0.00313573 -0.0208842 -2.83841e-17)
(-0.00183681 0.00418259 5.36257e-18)
(0.0746768 0.0463767 -4.50208e-17)
(-0.0573103 0.358733 -1.41324e-17)
(-0.0011653 0.00509371 -1.58593e-18)
(0.000377171 0.000293794 -3.45534e-20)
(3.13783e-05 -0.000364846 7.41695e-19)
(0.00171665 -0.00140547 -2.2151e-18)
(-0.0300986 -0.00538396 3.01739e-16)
(-0.12128 0.0258714 1.27301e-16)
(0.101471 -0.165806 -3.1929e-18)
(0.000715023 0.000171149 -1.65624e-18)
(0.0366218 0.0361201 1.47548e-17)
(0.0204193 -0.0206052 -6.3236e-18)
(0.00139097 -0.0220348 -3.54562e-17)
(0.000515846 -0.00103432 -1.56647e-18)
(0.00374588 0.00850215 5.52591e-18)
(0.2502 -0.0212577 3.87874e-17)
(-0.135855 0.0023956 2.54164e-18)
(0.010599 0.0528071 -7.69905e-18)
(0.000143926 -0.00151553 1.92323e-18)
(0.000131785 -0.00159416 2.49436e-18)
(0.000391821 0.000318255 1.57994e-19)
(0.195626 0.0512532 -3.94408e-17)
(-0.0796766 -0.00488695 -1.37563e-16)
(-0.0769286 0.00132388 -8.45158e-17)
(0.183631 0.241431 -2.65316e-17)
(0.0026232 0.00195709 -2.75058e-18)
(0.0293162 -0.178353 2.37534e-17)
(0.00110124 -0.0182544 -5.11799e-17)
(0.00189704 -0.00676801 5.8047e-18)
(-0.00321843 0.00103746 4.12179e-18)
(0.0042596 -0.0036206 -6.04373e-18)
(-0.00149705 -0.018459 -5.03515e-17)
(-0.000385111 0.000331843 -1.66576e-18)
(0.000930982 -0.000640649 1.75001e-18)
(4.76194e-05 -0.00066684 2.66298e-18)
(0.00118141 -0.002064 -1.13915e-18)
(-0.00134461 0.00106955 3.04883e-18)
(0.00200361 0.0190967 7.53442e-18)
(-0.00316945 0.0131823 -9.94996e-18)
(0.0267496 -0.108502 2.35401e-17)
(0.000424524 -0.00164915 -2.25974e-18)
(0.010112 0.009197 9.3905e-18)
(-0.00156798 0.00518257 -9.2053e-18)
(0.0025827 -0.00272532 1.35965e-17)
(0.00633609 -0.0268861 2.37888e-18)
(0.0225052 0.0215426 5.22826e-17)
(-0.0234521 -0.0385331 -2.76809e-17)
(-0.000276508 0.000301726 -2.71918e-18)
(0.0436962 -0.0147679 -5.17481e-17)
(0.00608711 -0.00279007 -3.90474e-19)
(-0.0446677 0.034712 -3.05259e-18)
(0.00104498 0.00186479 1.24665e-18)
(0.039221 -0.00469355 -5.80682e-17)
(0.000195956 -0.0012443 -1.64524e-18)
(0.00227387 -0.0137371 -1.4885e-17)
(0.0237397 0.0144015 2.66767e-17)
(-0.00126085 0.001153 -5.56029e-18)
(-0.00016799 -0.0186783 -3.06796e-17)
(0.0753329 -0.135922 6.99672e-17)
(0.0185184 0.00447126 1.09856e-17)
(0.00122547 -0.000361063 6.79895e-19)
(0.0135577 0.0290739 1.38053e-17)
(-0.0174056 0.000605371 -4.38609e-17)
(0.00305274 -0.0135458 6.26629e-18)
(0.00333881 -0.0137763 -2.08586e-17)
(0.0237826 -0.122845 -5.704e-17)
(0.0242958 0.0616082 -1.73311e-17)
(-0.0401528 0.0320765 1.37178e-18)
(-0.00382521 0.0294955 -2.00595e-17)
(0.00111715 -0.0180495 3.70148e-17)
(-0.00208518 0.000256602 -4.79996e-18)
(0.0519711 -0.129947 3.47775e-17)
(-0.0439876 -0.00418547 -2.5183e-17)
(-0.00037938 0.000314085 -4.60935e-19)
(2.33066e-05 -0.000510082 1.26576e-21)
(0.0409256 0.0699406 -2.37842e-17)
(0.00131036 -0.000992796 -4.65623e-18)
(1.31412e-05 -0.000128642 -1.82307e-18)
(0.0205398 0.0446589 2.94001e-18)
(0.022351 0.0430534 1.14337e-18)
(0.0028405 0.00202619 -7.79938e-19)
(0.00358748 0.00895175 2.96025e-18)
(0.0106976 0.0097296 -1.37017e-17)
(0.0115298 -0.00890866 -9.67999e-19)
(0.00196378 0.00993912 3.01644e-18)
(0.000471816 -0.00107572 2.36927e-18)
(0.0199169 -0.00166186 -1.30704e-17)
(0.0107773 -0.106712 -1.00896e-16)
(-0.00110762 0.00107696 1.68009e-18)
(0.0822505 -0.163206 -2.43634e-17)
(1.49955e-05 -0.000141594 -3.17653e-18)
(0.000102856 -0.000670346 2.32668e-18)
(-0.000267734 7.75575e-05 -6.57059e-19)
(0.00849032 -0.130334 5.93931e-17)
(7.0943e-05 -0.00127482 -2.02202e-18)
(0.0629147 -0.0136312 9.08589e-17)
(0.108823 -0.0232644 -7.77261e-18)
(0.000203925 -0.000492304 2.42068e-19)
(0.000185979 -0.00117282 -2.43151e-18)
(0.0823897 0.0136255 -7.71561e-17)
(-0.000277731 6.16305e-05 2.49118e-19)
(1.36829e-05 -0.000312193 -4.60705e-18)
(-0.000341094 5.0205e-05 -1.6049e-19)
(0.0796303 -0.0368264 3.51576e-17)
(0.0033273 -0.0203607 -2.98273e-17)
(0.00406932 -0.00563762 -1.46921e-17)
(0.0107492 -0.0276287 1.58973e-17)
(0.0197689 0.0385429 1.60324e-17)
(0.0437957 0.294587 -1.12974e-17)
(0.00948791 -0.140305 7.76827e-18)
(-0.000904774 0.00538446 -1.44868e-18)
(-0.0390375 -0.143261 1.114e-16)
(8.30783e-06 -0.000119834 -4.47665e-18)
(-0.055605 0.0238034 5.16613e-17)
(-0.00390629 -0.0248 -4.2489e-17)
(0.0601986 -0.149068 -9.32429e-17)
(0.217482 -0.0556839 1.45775e-17)
(0.0232763 0.0594442 1.45355e-17)
(-0.00232395 0.010185 5.98009e-18)
(0.0194142 0.0180378 -1.2577e-17)
(-0.00296966 0.012378 5.67354e-18)
(-0.00360607 0.000796835 3.49177e-19)
(-0.003162 0.00524111 -1.28782e-18)
(0.00778841 -0.0263325 5.88661e-18)
(0.00437773 -0.00675808 -2.93599e-18)
(0.000157987 -0.00112857 -6.81989e-19)
(1.99538e-07 -7.5534e-06 7.09527e-19)
(-0.000290581 0.000316988 -7.68066e-19)
(-0.000425564 -1.83421e-05 -7.41293e-19)
(-0.00103668 0.00113354 3.00921e-18)
(0.00655321 -0.129258 -2.90702e-17)
(0.00047838 0.000349895 7.926e-19)
(0.0010028 0.00159817 -5.00884e-19)
(-0.00041556 -1.8725e-05 -3.06895e-19)
(0.000652712 0.000133147 -1.27394e-19)
(0.00490369 -0.0961675 -3.82524e-17)
(0.030228 -0.0304602 9.9819e-18)
(-0.000504361 -0.01487 2.27517e-18)
(0.00153955 -0.00445855 1.70477e-17)
(0.00434617 0.0419196 2.10928e-17)
(-0.000423379 -1.40205e-05 -5.00553e-19)
(0.180857 0.0624787 3.54403e-18)
(-0.0621296 -0.00938385 -6.18161e-17)
(0.000144602 -0.0012412 1.06789e-18)
(0.128976 -0.00939874 -1.00139e-18)
(-0.00183732 0.0253018 -4.02297e-18)
(0.000231482 -0.00115617 8.69906e-18)
(-0.0393534 0.0258187 -1.28118e-16)
(0.233466 0.0325768 -3.03684e-18)
(0.000437103 -0.00121837 1.14449e-18)
(0.0204667 -0.00247679 1.10322e-17)
(0.0129477 -0.00728665 -4.02891e-17)
(0.00236162 -0.00223922 -3.49602e-18)
(0.000119284 -0.0106772 -2.69377e-17)
(0.000921492 0.00168951 1.79991e-18)
(0.00224646 -0.00268533 6.39817e-18)
(-0.14332 0.0510613 -4.71181e-18)
(0.00939221 -0.0111081 -1.04602e-17)
(0.000798018 -0.000527236 -2.52319e-18)
(0.00019308 -0.00143998 7.3589e-18)
(0.00147285 -0.0042504 -1.33124e-18)
(0.0259713 -0.0214681 -1.99479e-17)
(-0.000594152 -0.0173584 2.84979e-17)
(0.000649238 -0.0009347 -6.2955e-19)
(0.000434199 0.000332873 -1.75156e-19)
(-0.000907746 0.00218757 -1.42248e-19)
(-0.0286364 -0.0047714 -3.15839e-16)
(-0.0698445 -0.0662732 4.83398e-17)
(-0.0395917 0.00128615 -8.09609e-18)
(-0.00188963 0.000409607 3.29041e-18)
(0.00988669 -0.0115467 5.32288e-18)
(-0.000214588 -0.0108794 3.74062e-17)
(0.00189294 -0.033312 -8.34055e-18)
(0.0185396 0.0342858 1.13406e-17)
(-0.00229849 -0.000240048 -8.56627e-19)
(-0.00256793 0.000322684 -2.90116e-20)
(-0.000757799 0.00216213 -1.12752e-18)
(0.0180756 0.0184849 -1.25378e-17)
(0.0031137 -0.000949939 2.02353e-18)
(-0.0348782 -0.0253803 4.69776e-19)
(0.000226287 -0.00144943 1.94162e-19)
(0.000700522 0.000719427 -5.12808e-19)
(0.259548 0.025564 -6.33974e-17)
(0.00809124 -0.127488 4.9126e-17)
(0.0396385 -0.0292722 -7.76887e-17)
(-0.000437428 -1.5228e-05 -4.94865e-20)
(0.0112964 -0.136649 2.51981e-17)
(0.00716148 -0.00257936 -1.71587e-18)
(-0.00189749 -0.0179762 1.37779e-17)
(-0.0270327 -0.0261591 -3.02847e-17)
(0.0223222 -0.120312 5.95787e-17)
(0.00626757 -0.0012767 -2.85795e-20)
(0.012943 0.00998412 -7.18094e-18)
(0.0348288 0.0505816 1.72314e-17)
(0.00148064 -0.129749 -4.56449e-19)
(0.00341082 -0.132588 -1.52606e-17)
(-0.000294126 -0.00751149 6.5442e-18)
(4.70282e-06 -5.90157e-05 -2.07232e-19)
(0.00403219 -0.00589737 1.33689e-17)
(-0.00247189 0.000997448 -3.77734e-18)
(0.000435036 0.000388506 7.72326e-20)
(0.00294491 -0.000978264 3.08846e-19)
(0.000340014 -0.000831106 2.47439e-18)
(5.59967e-08 -2.98604e-06 -1.16905e-19)
(-0.0395794 -0.026518 -8.31198e-18)
(4.8962e-05 -0.00045051 8.81434e-19)
(0.0264635 0.014034 1.15536e-17)
(0.0109603 0.0113094 9.95389e-18)
(0.00114324 0.0364424 -2.33465e-17)
(-0.00229309 -0.000377276 -2.60149e-18)
(0.00649089 -0.00232197 -5.94596e-19)
(0.00294899 -0.126235 1.78896e-17)
(0.00151658 -0.0171477 1.4974e-17)
(-0.0753033 -0.131307 -6.53076e-18)
(0.0178497 0.0332097 -1.10165e-17)
(0.000663978 0.0006863 6.54026e-19)
(0.00656756 -0.00111383 1.24824e-18)
(0.000718429 -0.000876943 3.40303e-18)
(0.0414921 -0.0188419 4.20013e-17)
(-0.000365583 8.6985e-05 -5.88398e-19)
(0.0448308 -0.0346339 5.96101e-17)
(0.0161945 -0.0231591 1.33731e-18)
(0.0277425 -0.00842051 6.06375e-17)
(-0.0284729 -0.00189771 9.67401e-17)
(-0.150119 0.0862921 1.27228e-17)
(0.000141349 -0.000424684 3.12937e-18)
(0.00119973 -0.000247439 1.338e-18)
(0.0301706 0.0516909 -2.15792e-17)
(0.0422632 -0.0166053 -1.16843e-17)
(0.000352122 -0.0016187 7.1783e-18)
(-0.0339622 -0.0258533 -5.96122e-18)
(0.000156482 -0.000455825 -4.26509e-18)
(8.56029e-05 -0.000864918 1.18698e-18)
(-0.0127841 -0.0259377 -1.87927e-17)
(-0.000288997 0.000282195 3.01221e-18)
(0.0203411 0.0397782 -1.69321e-17)
(-0.00204724 0.000407342 1.84585e-18)
(-0.13025 0.356997 2.31908e-17)
(0.000216821 -0.00143856 -1.80402e-18)
(-0.00214296 0.00413765 -2.0366e-18)
(0.312734 -0.0644056 1.07049e-17)
(0.000499042 -0.0158631 2.03739e-17)
(-0.0385922 0.0546527 3.02928e-18)
(0.00222209 -0.00681035 1.74931e-17)
(0.000254209 -0.00045865 -2.48231e-18)
(0.00149157 0.000238478 -4.25957e-19)
(0.231919 0.0367747 -9.48496e-17)
(0.0226475 0.0122572 1.72008e-18)
(-0.00130741 0.000551494 -7.02986e-19)
(4.11935e-05 -0.000805893 9.49263e-19)
(0.00686216 -0.00928746 -3.29631e-17)
(-0.000866026 -0.0107989 -1.7287e-17)
(-0.0437048 0.0534141 1.17314e-18)
(-0.135238 0.00613996 3.5201e-17)
(4.97399e-05 -0.000755771 -7.43869e-18)
(0.000853866 -0.000463098 3.26278e-18)
(0.00426108 -0.0222646 -4.49576e-17)
(0.000249738 -0.000448003 1.25016e-19)
(0.0128092 -0.109246 7.00209e-17)
(0.00222824 -0.0225454 -1.39873e-17)
(0.000146073 -0.0015825 4.10997e-18)
(0.000470931 -0.00115898 -1.49038e-18)
(-0.00285007 0.00510675 6.61189e-18)
(0.000186657 -0.000466189 -3.34395e-19)
(-0.00102037 0.00202388 3.41031e-18)
(0.00871853 -0.140781 -3.64215e-17)
(0.00259502 -0.0139414 -2.86671e-17)
(0.0860953 0.0117199 -1.13212e-17)
(-0.000807299 -0.00854953 5.49928e-18)
(-0.00839144 0.00633305 -6.11629e-19)
(0.011673 0.0246445 -1.08396e-17)
(0.000539027 -0.00641112 -2.6583e-17)
(0.0100354 -0.129973 1.13333e-17)
(0.00189375 -0.00727135 2.96265e-17)
(5.48896e-06 -0.000160046 -1.86096e-18)
(0.00443338 0.00843564 -4.514e-18)
(0.0317853 -0.0271923 -1.50449e-17)
(0.00134871 -0.00166231 -1.74418e-18)
(0.00112413 -0.00141968 8.73372e-18)
(0.00108393 -0.00198044 7.69025e-18)
(-0.000353908 8.8049e-05 1.86423e-19)
(0.00063974 -0.00064095 -1.1115e-18)
(0.00137319 0.00144573 5.77235e-19)
(0.000172766 -0.00153018 4.81904e-18)
(0.000101519 -0.000368838 1.06358e-18)
(0.00424105 -0.00280104 -2.75718e-18)
(-0.00203314 0.012128 -1.41401e-19)
(0.020481 0.045985 -4.78191e-17)
(-0.00048144 1.54562e-05 -1.09806e-18)
(-0.000533798 -0.0179415 -2.83519e-17)
(0.00359369 -0.00635274 1.19405e-17)
(0.0164563 -0.024922 2.41377e-17)
(0.0118264 -0.143212 -1.61438e-19)
(-0.00352924 0.00105564 -4.17208e-18)
(0.339012 0.0209648 2.19082e-17)
(0.0282463 -0.00565743 5.40711e-17)
(-0.00310969 0.00125576 2.74364e-19)
(-0.000369668 0.000116013 -8.28162e-19)
(0.00192999 -0.00126272 5.26242e-20)
(0.306851 -0.0574795 7.46881e-18)
(0.020771 0.0374373 1.38774e-17)
(-0.000378347 0.000108436 7.83478e-19)
(0.000129583 -0.00143105 3.39748e-18)
(5.68624e-05 -0.00070968 -2.14388e-18)
(-0.00169453 -0.0149596 2.25516e-17)
(0.0195042 -0.0222707 -1.21398e-17)
(0.0624927 0.0453126 2.80304e-17)
(0.000231583 -3.52481e-06 -4.90898e-19)
(0.000384159 -0.00136456 2.33062e-18)
(0.00268887 -0.00952949 1.58981e-17)
(-0.134104 -0.000207327 2.70524e-17)
(0.0532115 -0.146431 9.13562e-17)
(0.0023662 -0.00520947 9.26938e-18)
(-0.00295583 0.00847244 1.91285e-18)
(0.0986927 -0.157933 -7.21776e-17)
(0.0750779 0.0512539 -1.00909e-17)
(0.0268182 0.0439323 -1.66057e-17)
(0.00277566 -0.00208201 -2.93727e-18)
(0.000767912 0.000668812 -1.21341e-19)
(0.0306368 -0.107092 -2.37222e-18)
(0.00104395 -0.000508201 8.0742e-19)
(0.0223806 -0.0203234 1.37326e-17)
(-0.00966058 0.0388657 1.17548e-17)
(-0.00127641 0.000466148 -4.09738e-19)
(0.00390608 -0.0202639 -1.18581e-18)
(0.0088093 0.00898582 -8.02092e-18)
(0.00527594 -0.132446 2.43511e-17)
(0.0014292 0.000261245 3.82173e-19)
(0.014431 -0.0732338 2.075e-17)
(0.0524857 0.0225202 -3.84798e-17)
(-0.011898 0.0132132 -2.67174e-18)
(0.0807373 0.0176189 2.94041e-17)
(0.00104453 -0.00039283 2.47465e-18)
(0.00508849 -0.032393 -6.62337e-18)
(0.000190979 -0.00149311 3.48453e-18)
(0.00117578 -0.000141328 -1.35912e-18)
(2.54332e-05 -0.000315344 1.4658e-18)
(0.000763666 -0.000741538 1.58111e-18)
(0.156949 -0.00392816 5.44865e-17)
(0.00112671 -0.000321642 5.38508e-18)
(-0.002013 0.00154468 -6.31742e-19)
(0.00194032 -0.00430275 -1.21353e-17)
(-0.00183995 0.000536564 4.7764e-18)
(0.00081593 0.000661532 8.86039e-20)
(0.0199318 -0.00454441 3.57892e-18)
(0.00482606 -0.00177352 -3.6913e-18)
(-0.00187783 0.0267094 8.30994e-18)
(0.000328943 -0.00025778 -4.26906e-19)
(0.000314205 -0.000286258 -9.23021e-19)
(0.00717972 -0.12206 2.60195e-17)
(0.000402568 -0.0153746 2.90131e-17)
(0.00231733 -0.00502814 -1.19207e-17)
(0.110786 -0.165606 8.33138e-17)
(-0.00191739 0.0113576 2.15752e-18)
(0.00332973 -0.00145169 -5.41622e-18)
(3.04981e-05 -0.00129982 3.66864e-18)
(-0.00114365 0.00203855 1.10986e-18)
(-0.0472725 0.000117474 2.88108e-17)
(-0.00212987 0.00141421 -2.69463e-18)
(0.000173319 -5.06889e-05 2.20405e-19)
(-0.122328 -0.00511649 5.68062e-17)
(0.0556163 0.0671268 -7.42823e-17)
(0.0121648 -0.00842839 1.30032e-18)
(0.000659901 9.41651e-05 4.95746e-19)
(9.46263e-07 -5.50029e-05 -1.18772e-18)
(0.000966818 0.00410551 -4.77957e-18)
(1.82856e-05 -0.000261397 -7.95028e-19)
(0.0380012 -0.159887 -7.31411e-17)
(0.0023743 -0.00240627 5.34242e-18)
(0.299746 0.186709 -3.01428e-17)
(-0.00636982 0.0104727 -4.62193e-18)
(0.000296852 -0.0181596 -1.42438e-17)
(5.72639e-06 -0.000158603 3.88034e-19)
(-0.147691 -0.000520825 -2.62367e-17)
(-6.75057e-05 3.11406e-05 9.66864e-19)
(0.0275947 -0.0230699 -6.60983e-18)
(0.00100988 -0.000598159 -4.34248e-19)
(-0.00211154 0.0756066 -8.55574e-19)
(0.00728565 -0.108031 3.42257e-17)
(0.000172325 -0.00147534 4.75767e-18)
(0.0785714 0.0783636 2.02606e-17)
(0.00120245 -0.000794834 2.53189e-18)
(1.55969e-05 -1.47735e-05 -2.07666e-20)
(-0.000922059 0.000949309 -2.11671e-18)
(0.280924 0.00907428 -5.90229e-17)
(0.0231801 -0.111458 -8.83182e-18)
(0.00188696 -0.00135133 3.12781e-18)
(0.0093379 0.00952056 -1.28241e-17)
(-0.00236671 0.00115341 -3.94774e-18)
(0.06142 -0.146384 2.19867e-17)
(-0.000469627 1.89616e-05 6.34924e-19)
(0.020377 -0.000910734 8.86003e-18)
(0.0201111 -0.0686524 3.27353e-17)
(0.000400713 -0.00683796 -2.4356e-17)
(0.000208355 -5.2457e-05 4.99482e-21)
(0.00572349 -0.0130854 5.00984e-17)
(1.03937e-05 -6.7102e-05 -1.63411e-18)
(0.000857717 0.0043794 -1.88388e-19)
(-0.000475962 0.0022861 -6.4503e-19)
(0.0186418 0.0470776 3.59857e-17)
(0.000304616 4.73324e-05 -3.03596e-19)
(0.131087 -0.13777 1.96756e-17)
(0.000298293 -0.000330719 3.4999e-19)
(0.00330185 -0.000702185 -1.2931e-18)
(-0.00757296 0.0335869 1.35631e-17)
(0.00681743 -0.0165947 -1.16751e-17)
(0.0230883 0.0415598 -3.9232e-17)
(0.000935283 0.00149013 8.58475e-19)
(-0.148497 0.000258789 4.24243e-17)
(0.00121663 -0.000198021 1.35546e-18)
(0.0206079 -0.0242389 -6.5297e-18)
(0.000796296 -0.00117775 5.16048e-18)
(-0.0018405 0.00487331 8.48411e-19)
(0.00107572 -0.000446208 -3.82645e-18)
(0.000302591 -0.00034626 2.33561e-18)
(2.92384e-06 -0.000142304 1.81692e-19)
(0.0197422 -0.0256651 -1.79304e-18)
(-0.0360028 0.0342419 1.3287e-18)
(0.097361 0.0769915 -1.18861e-17)
(0.0370868 0.0167066 1.02572e-17)
(0.00328824 -0.0107302 4.99116e-17)
(0.00826528 -0.00890659 1.48912e-18)
(-0.00860713 -0.0286988 1.03302e-17)
(0.0037315 0.00746958 1.6361e-18)
(0.0279332 -0.159809 8.08621e-17)
(-0.0792014 -0.0269874 2.98951e-17)
(0.0269328 -0.0251462 6.63032e-17)
(0.0196123 -0.0160448 -1.99694e-17)
(0.00405141 0.0398669 -3.12514e-17)
(0.0237879 -0.0221747 1.64953e-17)
(0.000629991 0.0044176 2.29382e-18)
(0.000498984 -0.0178348 1.18102e-17)
(-0.00952877 0.0340839 -5.24637e-18)
(-0.00165916 0.00449849 -1.33404e-18)
(0.0284766 -0.0269765 -7.06013e-17)
(7.58769e-06 -5.55196e-05 1.53884e-18)
(0.00900491 -0.0281365 -8.35558e-18)
(0.011934 -0.00743982 -6.8938e-19)
(0.0267725 0.0436075 2.77318e-18)
(-0.000393659 -0.00823517 -2.93086e-18)
(0.00671351 -0.12363 -3.97579e-17)
(-0.1134 0.00594909 6.7695e-17)
(-0.00689343 0.0311226 -1.44844e-18)
(0.0263758 0.0430281 -4.17357e-17)
(3.14931e-05 -0.000565203 5.92737e-19)
(0.0182025 -0.033686 -1.05957e-16)
(-0.000116242 -0.00463039 4.31059e-18)
(0.00096347 -0.000599018 6.69242e-18)
(0.00290967 -0.00113893 1.43744e-19)
(-0.0116106 0.00293791 -2.38928e-18)
(0.0213801 0.0117175 4.0392e-18)
(0.0275387 -0.122788 -7.44123e-17)
(0.0111379 -0.0256288 -4.14773e-18)
(-0.112433 0.0123563 -6.47629e-17)
(0.00381399 0.00659253 -6.2738e-18)
(0.00445909 -0.00373837 4.37643e-18)
(0.00199429 -0.132634 2.08986e-17)
(0.000281833 -0.0171881 -1.1878e-17)
(-0.00217278 0.0078031 3.31449e-18)
(0.017872 0.0304915 1.10152e-17)
(0.00269797 -0.002823 -1.1529e-17)
(-0.0037287 -0.0178679 1.03683e-17)
(0.353955 -0.0445763 5.1312e-17)
(0.000173459 -0.00155888 -2.53339e-18)
(-0.000960931 -0.0149527 1.51375e-17)
(0.00482718 -0.0218128 1.21572e-17)
(-0.114993 -0.00718156 -7.98296e-17)
(0.000224134 1.13144e-05 -9.09829e-19)
(0.00432416 -0.0061858 -1.00042e-17)
(0.163809 0.0575831 -4.42553e-17)
(0.000908362 0.0183595 -5.97565e-18)
(0.141072 0.0611349 6.8678e-17)
(0.00229033 0.0731788 -2.68482e-18)
(8.7039e-05 0.0327468 7.35668e-17)
(0.00612073 -0.00484883 -1.13959e-17)
(0.00435217 0.00747017 -1.79275e-18)
(0.00192135 0.00213041 3.41425e-18)
(0.000505224 -0.00130733 1.84418e-18)
(0.0441111 0.0756908 3.32285e-18)
(2.36718e-06 -4.78306e-05 1.55667e-18)
(0.0533485 0.0773136 -6.71165e-18)
(0.0386203 0.0235464 -4.99198e-17)
(0.0250149 -0.0108851 1.26671e-17)
(2.77841e-06 -2.25393e-05 3.07932e-19)
(2.53682e-05 -0.000158608 1.12745e-18)
(-0.00995174 0.00609754 -2.95671e-18)
(-0.005678 0.00089696 -5.04339e-18)
(8.16336e-05 5.80459e-05 6.62251e-21)
(0.00125864 -0.00105621 2.78847e-18)
(0.0354543 0.0158865 -4.81085e-17)
(0.339216 -0.0485625 2.66749e-17)
(-0.0761444 -0.119809 -6.76089e-18)
(1.42387e-06 -2.97183e-05 -9.81758e-19)
(0.0391264 -0.0196238 -6.07802e-17)
(0.000616619 -4.3039e-05 -2.23557e-19)
(-0.0655373 -0.0450678 -2.86983e-18)
(0.00355327 0.0350078 1.49862e-17)
(0.00389711 -0.0128573 -2.94367e-17)
(-0.000533896 -0.0106763 2.14183e-17)
(0.0511408 0.0248733 6.22161e-17)
(1.14165e-05 0.000339044 -4.82733e-19)
(0.000417538 -0.00109578 2.13558e-18)
(0.00597641 -0.0125255 -2.51473e-17)
(0.00106092 -0.000549656 5.07394e-18)
(0.000896639 0.00387892 -7.0577e-19)
(0.0212247 0.024913 1.75604e-17)
(-0.0222345 -0.130748 8.96589e-18)
(-0.0013986 0.00108555 -2.1684e-19)
(0.0413608 0.0697422 4.75526e-17)
(0.0815794 -0.137666 -2.5915e-17)
(0.00259752 0.0101746 1.76957e-18)
(-0.0952944 0.0159506 3.33334e-17)
(0.0975391 -0.131294 4.77575e-17)
(0.00148414 0.00152012 -8.08273e-20)
(0.0236814 0.0161741 -1.89895e-17)
(-0.0130644 0.0153163 1.66187e-18)
(0.00259221 0.00177311 -2.56431e-19)
(-0.000836043 0.000899527 1.8675e-19)
(0.00248705 -0.0163954 1.09778e-16)
(0.0766687 -0.146034 2.94622e-17)
(-0.0721905 0.00998782 1.33321e-17)
(0.0014349 -0.00174577 6.13987e-18)
(0.000170801 -0.0014287 -8.7213e-18)
(-0.000306684 0.00109682 1.83007e-20)
(-0.0160758 0.00329081 3.08773e-18)
(0.00483731 -0.00153149 2.53716e-18)
(0.00573538 -0.00282556 -4.68446e-19)
(-0.00117996 -0.019005 6.78206e-17)
(0.00187767 0.0362282 5.30997e-18)
(0.000115368 -0.000403165 -1.29212e-18)
(0.0705502 0.0500228 -2.71839e-17)
(0.00293618 0.0185344 2.62961e-17)
(0.00345935 -0.010314 -4.25804e-17)
(0.000610626 0.00377833 2.6943e-18)
(-0.0696583 -0.00328934 1.56012e-16)
(-0.00282263 0.00968026 -3.55241e-18)
(0.000235746 9.96552e-05 -2.48436e-19)
(0.0261173 -0.0103282 -3.34563e-17)
(-0.00207277 -0.0190808 -2.47525e-17)
(-0.0014187 0.000590274 1.99061e-18)
(0.000142855 -0.00156026 -1.40925e-18)
(0.00067193 -0.000895027 3.82275e-18)
(-0.0118605 0.0116874 7.63198e-18)
(-2.74559e-06 0.00032073 -4.37173e-19)
(-0.00486672 0.0312475 1.86624e-17)
(0.0407786 0.0492359 -3.90155e-17)
(0.00361402 -0.000529332 -8.86354e-19)
(0.0188502 0.0486751 -1.85578e-17)
(-0.00202638 0.00728542 1.50358e-17)
(0.000554325 0.00349108 -5.01385e-18)
(0.0197738 0.0424447 3.98478e-19)
(-0.0498339 -0.0442001 -7.92782e-17)
(0.0358585 0.0455137 6.13184e-18)
(0.000364676 -0.00109872 2.52806e-18)
(-0.00163056 0.00060388 4.40679e-18)
(0.053028 0.0490935 -5.61844e-18)
(0.00174373 -0.0069668 -1.36932e-17)
(0.0595763 0.0652491 -2.14113e-17)
(-0.00143288 0.000365349 1.18034e-18)
(0.00120396 -0.000887481 8.44789e-20)
(-0.0480264 -0.00556069 -1.46101e-16)
(0.240684 0.233852 1.98508e-17)
(0.0115781 0.00931554 1.80096e-17)
(0.0201698 0.0422123 -2.04221e-17)
(0.000463378 -0.0145965 -8.4544e-18)
(0.00124187 -0.000298217 -6.52128e-19)
(1.8592e-06 -1.79283e-05 -5.71877e-19)
(0.00263135 0.00140096 -2.30819e-18)
(-0.061777 -0.0036252 1.04859e-16)
(0.000183993 -5.3455e-05 -6.74173e-19)
(-1.90777e-07 -3.66733e-06 -2.1974e-18)
(0.00112838 -0.129205 -6.18386e-18)
(-0.000439195 -0.00798482 -3.83452e-17)
(0.0520102 0.00668948 4.29239e-17)
(8.0459e-05 -0.0102687 -2.12952e-17)
(0.000618616 5.17668e-05 8.04168e-19)
(-0.0280217 -0.0511632 5.66005e-17)
(7.87252e-06 -9.62704e-05 8.49081e-18)
(0.000918695 -0.00102918 2.23506e-18)
(0.00257727 0.00127788 1.2311e-18)
(0.0075103 -0.00754152 2.64128e-17)
(0.00439455 -0.132378 -1.66074e-17)
(0.000121991 -0.000690447 -3.1208e-18)
(6.83293e-05 -0.00123831 3.49211e-18)
(0.00109383 -0.000549667 -1.04801e-17)
(0.00116465 -0.000369571 -4.86755e-18)
(0.000628978 1.41606e-05 -7.57653e-19)
(0.00209122 0.00215436 6.06088e-19)
(-0.00464048 -0.0158662 3.29539e-17)
(0.00756089 -0.00804445 -2.57065e-17)
(0.00398109 -0.00278323 3.13687e-19)
(0.000253261 -0.000789876 2.79586e-18)
(0.00709728 -0.00841256 6.50785e-18)
(0.0253384 0.0178845 -1.55103e-17)
(-0.0143777 0.0130725 -3.61119e-18)
(-0.000537147 -0.00855213 2.47873e-17)
(2.12327e-07 -6.43524e-06 1.9957e-18)
(-0.000366212 0.00104542 1.10243e-18)
(0.00621731 0.00012134 1.53416e-18)
(0.0165349 -0.108062 -6.14034e-18)
(-0.202359 -0.0371701 -7.3891e-17)
(-0.00834243 0.00557324 -6.39985e-18)
(-0.090603 0.0120425 2.05594e-17)
(2.34458e-05 -0.000585925 -5.01866e-18)
(0.00576373 -0.00475276 -1.01213e-17)
(0.0570153 -0.0168153 1.6883e-16)
(0.000745416 -0.0170681 6.51692e-17)
(0.000688196 0.00191122 1.3458e-18)
(8.38983e-05 -0.000599216 3.36575e-18)
(-0.000465753 -0.0176758 4.52011e-17)
(0.0128919 0.0302874 -3.22685e-17)
(0.000225296 0.000115094 3.83641e-19)
(1.0181e-05 -0.000261677 -3.32966e-18)
(0.169346 -0.149081 -2.51645e-17)
(2.14949e-06 -1.3025e-05 -1.01485e-18)
(0.0294221 0.00537615 2.73478e-17)
(0.000471667 -0.00115453 4.51545e-18)
(0.000740036 -0.0168843 3.17144e-17)
(9.60956e-06 -0.000257487 7.90912e-18)
(-0.000183767 3.03133e-05 1.53423e-19)
(0.000132164 -0.00138565 -4.19735e-18)
(0.0131275 0.00415868 7.12814e-18)
(-0.00543419 0.000610583 3.21898e-18)
(0.00379606 -0.0054624 5.08468e-18)
(-0.000200901 -0.00731201 -5.06743e-18)
(-0.000140879 -0.0167254 9.76476e-18)
(0.000502015 0.00035233 7.4283e-20)
(0.000626766 -0.000639787 -2.80939e-18)
(6.31877e-06 -3.63948e-05 1.06834e-18)
(0.00120433 -0.000107569 -6.91964e-19)