/*--------------------------------*- C++ -*----------------------------------*\
| =========                 |                                                 |
| \\      /  F ield         | OpenFOAM: The Open Source CFD Toolbox           |
|  \\    /   O peration     | Version:  v2012                                 |
|   \\  /    A nd           | Website:  www.openfoam.com                      |
|    \\/     M anipulation  |                                                 |
\*---------------------------------------------------------------------------*/
FoamFile
{
    version     2.0;
    format      ascii;
    class       volScalarField;
    location    "50";
    object      p;
}
// * * * * * * * * * * * * * * * * * * * * * * * * * * * * * * * * * * * * * //

dimensions      [0 2 -2 0 0 0 0];


internalField   nonuniform List<scalar> 
9793
(
0.0526004
-0.305823
0.0258715
-0.316993
0.0203192
-0.325028
-0.218689
-0.589215
-0.0215483
-0.305411
0.0137316
0.0137054
0.00782893
-0.280634
-0.015426
-0.0480683
-0.189816
0.0216421
-0.407413
-0.0110241
-0.0162074
0.0196627
-0.297313
-0.59377
-0.273051
0.0777497
0.0136408
0.00895076
-0.010953
-0.248355
-0.691838
-0.394086
0.0225135
0.0173221
0.000292085
-0.0906266
-0.0474475
0.101232
-0.386491
-0.106134
-0.233386
-0.422767
-0.447544
0.00883446
0.0299362
0.0256978
-0.557526
0.0165311
-0.0222356
0.0223176
-0.0886878
1.71105e-05
-0.13219
0.0165484
0.0756769
-0.321708
0.00711619
-0.191725
-0.0223903
0.0168656
0.109069
0.0513234
0.0239094
-0.0857772
0.00343792
-0.0201158
-0.572157
-0.0622066
-0.0460072
-0.417904
0.0383303
0.348358
-0.561307
-0.0220076
-0.417733
0.0131455
0.164704
-0.53955
0.025035
0.0186426
0.176253
-0.409292
-0.180449
0.0124707
-0.0481464
-0.39476
0.0189829
-0.113598
-0.386304
0.0744762
-0.308115
-0.52274
-0.522528
-0.138959
-0.439731
0.017537
-0.425128
-0.184216
-0.0566479
0.0200252
-0.329826
-0.127509
-0.19301
0.0294071
-0.445812
-0.538638
0.000152646
0.00292647
0.0253893
0.0200081
0.00973293
-0.299598
0.494973
-0.716501
0.0372081
0.0189335
-0.0332054
0.0245584
-0.332513
0.0266543
-0.442997
-0.123997
-0.40198
-0.137737
-0.049399
0.0266344
-0.206285
-0.688781
-0.13276
-0.121794
-0.0554952
0.000641028
0.0504553
-0.0536848
-0.0858687
-0.328858
-0.344068
-0.0348692
0.0129286
-0.205521
-0.406637
-0.0898427
0.0280887
-0.107845
-0.538011
-0.368608
0.0270739
-0.429238
0.00101295
0.0270547
0.0168392
-0.724616
-0.0528469
0.0140305
0.0352747
-0.533069
-0.198129
0.0234734
-0.404962
0.0320866
-0.114889
-0.0579624
-0.016109
0.202433
-0.0325671
-0.519778
-0.226774
-0.0364186
0.0026675
0.0141958
0.0292954
-0.722171
-0.706042
-0.381812
0.00741082
-0.310957
-0.157129
0.169559
0.0249568
-0.0617308
-0.443879
-0.54612
-0.123347
0.0259476
0.0243291
0.00251294
-0.401488
-0.572361
-0.687143
-0.175727
-0.0171663
-0.301486
0.409252
0.0965167
-0.0228835
0.0402995
0.501846
-0.00907098
0.0216791
0.019083
0.0405466
-0.0177434
-0.0903433
-0.0624382
-0.379174
0.0388595
-0.0917626
-0.0370331
0.0401864
-0.0477854
-0.197377
-0.410539
-0.0075987
-0.417111
0.0172983
-0.0198199
-0.0155686
-0.329247
0.0189636
0.231932
-0.193565
-0.0178504
0.382325
-0.343018
-0.130272
0.0177049
-0.156019
-0.268354
0.213741
0.211818
-0.358373
-0.131596
-0.0239082
-0.0881251
0.413283
-0.0181455
-0.288149
-0.717333
-0.00881449
0.0200211
-0.411401
0.0266291
0.00994554
-0.189669
-0.212228
-0.0180753
-0.0636356
-0.0967892
0.0106667
-0.0630185
0.0253521
-0.123924
-0.372169
-0.0171311
-0.364185
0.01625
0.0140589
-0.0059537
-0.328726
0.0294725
-0.555876
-0.423229
0.00940791
0.0185222
-0.521267
-0.00603248
0.017988
-0.00697934
-0.429034
0.223187
0.0666937
-0.114979
-0.195745
-0.210787
-0.288176
-0.037936
-0.433385
0.0156123
-0.254853
-0.329483
-0.374276
-0.441068
-0.138342
-0.0551395
-0.172276
-0.0605827
-0.0229611
-0.0373667
-0.0520362
0.0800524
0.0186174
0.00767516
-0.00787755
-0.00976296
-0.0170467
-0.290975
0.00305913
-0.0132692
-0.00960438
0.00723176
-0.388843
-0.383341
0.285111
0.0674337
-0.115279
-0.0095951
0.00930164
-0.71459
0.0294306
-0.421163
-0.0888693
0.0299435
-0.306461
-0.0067568
0.0220149
-0.128045
-0.252988
0.0357358
0.173724
-0.0144513
0.0416339
-0.239444
0.0601097
0.0174814
0.0259473
0.0652534
-0.239824
0.475817
0.02632
0.00283134
-0.0221514
-0.721018
-0.416512
-0.722316
-0.017882
0.0546894
0.178855
-0.233007
-0.189934
-0.0177886
-0.0196389
-0.0216559
-0.164435
0.0154449
-0.690182
0.0213447
-0.00183135
-0.258914
-0.291518
-0.414347
-0.00977555
-0.33594
0.00691501
0.191001
-0.664448
-0.360488
-0.000177715
-0.110114
-0.350604
-0.306885
-0.305293
0.116959
0.00973067
0.0712265
-0.0211696
0.0021459
0.0166378
0.0130104
0.00739523
-0.697644
0.0141572
-0.212387
-0.104025
-0.34184
-0.0175511
0.00935208
-0.338886
0.448645
-0.277095
-0.183143
-0.00147571
-0.00338012
0.0251358
-0.419536
-0.00824141
-0.416383
-0.11758
-0.209696
-0.71704
-0.237178
0.00929161
0.0160981
-0.349501
-0.427471
0.0390194
-0.665937
0.00945178
0.0184226
-0.0800816
-0.00759307
-0.19976
-0.0183313
-0.23932
0.0210533
-0.0325151
-0.308362
0.333911
-0.022565
0.0956543
0.00892554
0.00742734
-0.40041
-0.181282
-0.0159565
0.0207557
0.0846298
0.177909
-0.0178629
-0.527938
0.0194607
0.0177503
0.130412
0.00868363
-0.37021
0.142734
0.0245341
0.0211255
-0.0367139
0.00924632
-0.021537
-0.333491
0.229541
-0.54761
0.133511
-0.0387574
-0.14018
0.0978031
-0.33055
0.104908
0.0206208
-0.0636811
-0.366799
0.034617
0.0331249
0.0399644
-0.00803195
0.0152533
-0.0111514
0.0249993
0.00932728
0.0306246
-0.0615696
-0.183406
-0.00923452
0.494426
0.0801154
-0.146754
-0.28567
-0.0234218
-0.242109
-0.210951
-0.0232185
-0.00819278
0.0264612
-0.436951
-0.202901
-0.00830699
0.021972
0.0187645
0.272193
-0.161648
-0.52904
0.00371474
0.0354946
0.138164
-0.565832
-0.368882
0.0728619
-0.0484365
-0.365889
-0.495817
-0.24862
0.0311015
-0.000592978
-0.380921
0.0199289
-0.183885
-0.356685
-0.0155168
0.206987
-0.0841983
-0.325984
0.00722237
-0.405967
-0.391879
-0.0484073
-0.507571
0.0184268
-0.212215
0.0220085
0.0145449
0.0138653
0.0221463
-0.426849
0.0173375
-0.0218703
0.062732
-0.0179672
-0.000221693
-0.117279
0.014645
-0.090666
0.00701713
0.00718255
-0.343355
0.309385
0.0707092
-0.381649
-0.059556
0.0204335
0.0294755
-0.0220525
-0.719244
-0.0216119
0.00531183
-0.627733
-0.431888
-0.00305408
0.0078306
0.0193232
-0.0323469
0.015989
-0.346899
0.0375943
-0.133131
-0.0497599
0.408849
0.0183079
-0.579806
-0.00385855
-0.2707
0.021694
-0.0554826
-0.36944
0.0218461
-0.401574
0.0246645
0.00686838
-0.0156568
-0.423578
-0.375851
0.0278655
-0.0889262
-0.0213007
-0.345261
-0.00913079
-0.130919
-0.4063
0.103836
0.00479084
0.150493
0.00816648
-0.0338008
-0.0218354
-0.170373
0.00408587
-0.357504
0.00757153
0.0115169
-0.0786366
0.146627
-0.314945
-0.0123204
-0.562489
0.0152535
-0.19209
0.0314176
-0.0356922
0.019192
0.00780373
0.0193152
-0.196653
-0.0300782
-0.410971
-0.29209
0.152292
0.0593304
-0.11046
-0.0567322
-0.343235
-0.427651
-0.282736
-0.63375
-0.343464
-0.213254
-0.03403
0.483979
-0.0739869
-0.0340429
-0.313297
0.00828667
-0.103929
-0.00454012
-0.286567
0.128503
-0.290557
-0.456039
-0.0792626
-0.274269
0.0197191
-0.294345
0.0747164
0.0216055
0.0189585
-0.0316932
-0.171511
-0.362872
-0.0801035
-0.505955
-0.0522455
0.0400021
-0.322034
0.431772
-0.0471592
-0.181285
0.0410097
0.100052
-0.293942
0.0243272
0.283105
0.135387
-0.449435
0.00329994
0.0719013
-0.411624
-0.0854313
-0.391057
-0.0649687
-0.333797
0.0397052
-0.0587047
-0.0179282
0.0344262
-0.115488
0.0172407
-0.11763
-0.305522
-0.177925
0.00752634
0.00921411
-0.0376406
-0.0259528
-2.70766e-06
0.0275165
-0.279732
-0.424829
-0.269256
0.00962672
-0.379452
0.00842426
-0.430736
-0.113212
0.18633
0.174079
-0.382649
-0.0030785
0.0168266
0.138815
0.0209032
-0.0306739
-0.194179
-0.301985
-0.0181681
-0.129153
-0.391585
-0.0656583
-0.249116
-0.402115
-0.0119598
-0.195444
-0.0502342
-0.0154937
-0.0150634
0.296739
-0.385357
-0.515507
0.0352946
0.0263949
-0.0134417
-0.0309645
0.011714
0.0200053
0.33473
-0.107224
0.00947516
-0.4771
-0.0921915
0.144011
-0.0301348
-0.70274
-0.0526272
0.00254455
-0.192411
0.507215
-0.0165629
0.0252177
0.0247189
-0.0460943
-0.00318459
-0.0845808
-0.365214
0.00751444
-0.165694
-0.0454653
-0.0283102
-0.324721
-0.415988
-0.227345
0.0164505
-0.0172866
-0.228773
0.10068
-0.15546
-0.0159698
0.0256382
-0.71422
-0.146536
-0.10043
-0.194952
0.278861
0.0167838
0.00764999
-0.0114366
-0.427373
0.00518295
0.00757816
-0.309614
0.124173
-0.410458
0.165932
0.00749963
-0.412823
0.0153066
0.0287299
-0.0099294
0.0556607
-0.322536
0.0137212
0.0299608
0.0211213
0.0180403
0.00809976
-0.0179742
-0.647558
0.0608294
0.0318013
0.0127463
0.0708985
-0.21096
-0.0452743
0.132296
0.00746911
-0.0133133
-0.0128334
-0.37389
-0.236136
-0.0370054
-0.504202
0.0203651
0.0417889
-0.52116
0.4773
-0.0165521
0.0141077
0.420711
-0.152579
0.00225492
0.0183196
-0.374637
0.00728446
-0.226042
0.0216428
0.453215
0.0176574
-0.00471821
0.0215622
-0.0862196
-0.0250924
0.0661935
0.113198
0.37576
0.0033484
0.0148318
0.00750606
0.0137989
-0.033957
-0.0284839
-0.10764
0.0221168
-0.126177
-0.263562
-0.157114
-0.203079
0.0197642
-0.0222833
-0.719114
-0.153653
-0.0146634
-0.261671
-0.683896
-0.0176108
0.0299627
0.00880843
-0.247019
-0.123521
0.488963
0.00249795
-0.0392856
0.00160393
0.0419382
-0.00504896
-0.168586
-0.0337112
-0.391292
0.0161142
0.000835702
0.00418375
0.0372564
0.0304092
-0.0332006
0.263637
-0.633884
-0.0955652
-0.272273
-0.151305
0.0257073
-0.0583197
0.492664
-0.133286
-0.031019
0.0134111
0.492958
0.0083103
-0.319247
-0.0185393
-0.0703522
-0.0359729
0.0218835
-0.0166491
-0.395683
-0.421425
-0.315245
0.300111
-0.718688
0.0226966
-0.438004
-0.555394
0.00716266
0.0129503
-0.00434482
-0.312105
-0.0150196
-0.513412
0.143413
-0.289083
-0.00691336
-0.480302
-0.491661
0.502401
0.0415196
-0.114031
0.00501017
-0.715693
-0.0154152
0.416268
-0.335554
0.111513
-0.485769
-0.413969
-0.0602386
-0.0191471
0.00403807
-0.0375906
-0.56252
-0.723218
-0.00360215
0.355153
-0.0433467
-0.203615
0.361728
-0.303836
-0.296524
-0.019362
0.081431
-0.0908606
-0.0484419
-0.0380554
-0.228036
0.0180586
-0.598705
-0.00903879
-0.0186824
-0.219415
-0.207705
-0.298981
-0.0415105
-0.674269
-0.653959
-0.491643
0.119624
0.00757318
-0.0403953
0.00746264
0.0316305
-0.488374
-0.133465
-0.0236007
0.0320549
-0.0903518
0.468733
-0.0331368
0.0349766
0.444941
0.0238035
0.0217269
-0.0158616
-0.10706
0.0256701
-0.0542057
-0.290853
-0.214081
-0.00354594
0.384471
0.35519
0.0232189
-0.0366602
-0.120945
0.00720107
0.00930157
-0.0116615
-0.642852
-0.00166184
0.00571016
-0.126238
0.187433
-0.294948
0.0361281
-0.445391
0.00230153
-0.00321844
0.453003
-0.305301
-0.187297
0.0199181
0.00980449
-0.51912
-0.345753
-0.362503
0.249653
0.0129994
-0.032682
0.0228324
-0.710963
0.0620015
-0.226343
0.0650918
-0.0155309
-0.0392451
-0.00780583
0.00234146
-0.0166051
-0.00197934
-0.444507
-0.00719141
0.0394892
-0.0164131
-0.052037
-0.278048
-0.311195
-0.100776
-0.703003
0.0101578
-0.0149837
-0.0480324
-0.382354
-0.0232728
-0.0192236
-0.169674
0.0697181
0.128661
0.0134343
-0.236606
-0.409901
-0.426305
0.0294361
0.15714
0.391754
-0.0754306
-0.50309
-0.293695
-0.22634
-0.0176215
0.0629364
-0.12388
0.122593
0.00994745
-0.0488751
-0.00393225
0.0188002
0.0192005
-0.00926589
0.0274341
0.029026
0.343854
-0.0424339
-0.0431258
-0.115399
-0.00494702
0.0312675
-0.110167
-0.433222
0.276277
-0.211674
-0.244348
0.00929099
-0.702799
-0.0109001
-0.72109
-0.04091
0.0210256
-0.0325492
-0.0553062
-0.715765
0.482596
-0.131524
-0.12627
-0.0126127
0.0157009
0.016254
0.0204174
-0.66406
-0.0762901
-0.0276429
-0.302661
0.406004
-0.401772
-0.0406418
-0.179311
0.265177
-0.13938
-0.0794628
0.413432
-0.335614
-0.00246153
-0.297075
-0.292552
0.199034
-0.423253
-0.142026
-0.0356811
0.00710181
0.0298382
0.0329852
0.113808
-0.702859
-0.146153
0.00063476
-0.369129
0.00784304
-0.39258
0.489841
0.00900596
-0.701036
-0.00664382
-0.0165224
-0.0293065
-0.287566
-0.680012
-0.121612
0.140436
-0.0217451
-0.464284
0.00688773
-0.0803582
0.0127796
0.0481736
-0.0261188
-0.398568
0.0354758
0.20239
-0.00373281
0.0102938
0.163862
-0.317236
-0.0798831
0.00741815
-0.0578706
-0.406262
-0.270968
-0.0251085
-0.0103623
-0.024787
0.0184051
-0.478547
-0.645254
-0.375425
0.0123905
-0.00147065
-0.465563
-0.205136
0.00315456
-0.698427
-0.00708919
-0.256812
-0.708446
-0.00498113
-0.49989
-0.699197
-0.303429
-0.679724
-0.392294
0.0079016
0.036185
0.227123
-0.359563
0.0336277
-0.703453
-0.0603735
0.0266903
0.0214247
-0.04929
-0.134843
-0.0673678
0.379972
-0.669104
0.313704
0.152218
0.00551315
-0.15928
0.50785
-0.00858344
0.389113
-0.16106
0.0100857
0.0106762
0.0095701
0.0334229
0.125662
0.411661
-0.0385941
-0.00116082
-0.720364
-0.321987
-0.14269
0.0176339
-0.201611
0.030157
0.00251866
-0.413334
-0.52691
0.00309398
-0.0108097
-0.435977
-0.385773
-0.164123
0.0376888
-0.517881
-0.0437212
0.00552082
-0.0282276
0.00342709
-0.0125111
-0.00829207
-0.4747
-0.0786556
0.0121
0.351326
-0.127969
-0.342786
-0.40918
-0.423326
-0.254799
0.0349718
0.0139145
-0.0379628
0.00502859
0.0748368
0.00415961
0.331916
-0.0988381
-0.31905
0.0207905
-0.307289
0.185833
-0.670517
0.00237137
0.375495
-0.0745428
-0.267485
-0.365794
-0.0868558
-0.00846766
-0.447473
-0.187021
-0.525381
-0.014087
-0.385509
0.0210268
-0.549563
-0.389522
0.172338
0.0283886
0.0248344
-0.36986
-0.508865
-0.0932389
-0.0169731
-0.232628
-0.183182
-0.151785
-0.122706
0.163281
0.0166053
-0.151727
0.0303269
-0.0925838
-0.0186052
-0.547472
-0.0188564
-0.0301279
-0.37566
0.503402
0.0212522
-0.224504
-0.0523482
0.0881555
0.00319805
-0.332855
0.0836863
-0.0364193
0.0233196
0.00500325
-0.371884
-0.0834932
-0.539882
-0.121333
-0.364529
0.0611947
-0.0190742
-0.0125175
-0.0744363
-0.123582
-0.109607
-0.290947
-0.053867
-0.0841967
0.031228
0.0212239
-0.00702478
-0.133654
-0.345156
-0.702704
0.0285344
-0.333598
0.00186573
-0.416882
0.492985
-0.139786
0.0280841
-0.015372
-0.158144
-0.536616
-0.0390933
0.017278
-0.0341526
-0.148808
-0.0351585
-0.268773
-0.405845
0.440134
0.0216224
-0.0805163
-0.597923
0.0180777
0.278419
-0.0137818
-0.497093
0.0205154
0.0297172
0.0387936
0.227037
-0.0264815
-0.240024
0.0282964
-0.284583
-0.0939692
-0.352515
0.0455788
0.0183365
0.0471211
-0.686446
0.018996
0.0150534
-0.180169
-0.0517904
-0.0153801
-0.554071
0.0994085
0.424548
-0.0290822
0.153603
0.016645
0.347547
0.0751423
-0.0629388
-0.234284
-0.0358501
0.0164787
0.0123202
-0.0686171
-0.428147
0.447111
-0.210083
-0.0671939
0.0357128
0.00034473
-0.406754
0.0214535
-0.404391
-0.255662
-0.229941
0.00585247
-0.00655017
-0.000825277
-0.156047
-0.019253
0.417855
-0.324399
-0.513432
-0.292695
-0.00785716
0.47197
-0.00747525
-0.0872552
-0.0454967
-0.14874
0.264743
0.0310151
-0.0106401
-0.123648
-0.0110344
-0.117448
0.277037
-0.405958
-0.434969
-0.0488413
-0.407077
-0.0163337
-0.0185704
0.00828968
0.25992
0.119793
-0.167665
-0.292706
-0.521122
0.0369428
-0.080039
-0.0150429
-0.00987906
-0.715746
-0.0251827
0.0270467
-0.0117482
0.0123547
-0.254372
0.358932
0.00422194
-0.254991
0.421798
-0.413523
-0.255894
-0.0305582
-0.0839109
-0.108491
-0.505156
-0.00138528
-0.418487
-0.720214
0.0867266
-0.0407266
-0.0132351
-0.00517344
-0.0219842
0.0289766
-0.289354
0.00159751
-0.0144702
-0.368892
-0.0808392
-0.338742
-0.329521
0.461542
-0.293585
-0.0184707
0.0279028
0.006677
0.0183964
-0.38715
-0.00734365
-0.324335
-0.00421077
-0.527368
0.0945576
0.0449922
-0.00600121
0.0490744
0.0453656
-0.0302299
-0.0149351
-0.33254
0.00308704
-0.0928278
0.0342044
-0.693408
0.0974589
0.0250618
-0.0261187
-0.177555
0.00426848
-0.00263067
0.0172942
0.0209769
-0.0301338
0.00808223
-0.0171232
0.149282
-0.181588
-0.671677
-0.528555
-0.393396
-0.00305039
0.0053269
0.0352558
-0.011374
0.0296286
-0.00562235
-0.0696596
0.0118284
0.0103509
0.00813423
0.0212752
-0.0171337
-0.697594
-0.0322384
0.00986034
-0.715946
-0.116642
-0.00473428
-0.713261
-0.582403
0.00908727
-0.329218
-0.208912
0.00245304
0.221477
0.0841288
-0.00991464
-0.000341553
-0.00918368
-0.0465104
0.00534699
0.0156649
-0.00519015
-0.517401
-0.0463776
0.108357
0.00563656
0.0125345
-0.491915
0.10488
0.00975402
-0.0362162
-0.0489285
0.00998835
0.165982
-0.724103
-0.515747
-0.286521
0.339361
0.0587061
0.0091733
-0.618694
-0.344872
-0.00644402
-0.191649
0.017569
0.0237246
0.0150079
-0.223456
0.0349041
0.0102491
0.0204171
-0.306383
-0.00581898
-0.165199
0.0244989
0.271653
-0.350791
-0.302471
0.0245265
0.0692663
0.148413
0.0410428
-0.00530648
0.0804041
0.32298
-0.336007
-0.00799093
0.303663
-0.509019
-0.0149396
-0.41515
0.0981692
0.376383
-0.285463
0.0288234
-0.0181175
-0.126863
-0.00565477
-0.070348
-0.0104155
-0.158605
-0.546596
0.0549767
0.000129516
-0.329083
0.307271
0.46284
0.0574795
-0.0110459
-0.0790624
0.030277
0.0237012
-0.13014
0.114376
-0.709885
0.00246136
0.374067
-0.00830222
-0.458191
-0.356869
-0.383845
-0.0081542
0.0651637
0.491321
0.426496
0.162303
-0.28846
-0.0340446
0.0988055
0.0043249
0.0104659
-0.338437
-0.199961
-0.0326571
0.0205204
0.0483072
0.383951
0.339683
0.088497
-0.00272324
0.0110087
-0.00445243
0.445944
-0.485929
-0.0106351
-0.123253
-0.286281
-0.245011
-0.323376
-0.322152
-0.719854
-0.257939
-0.0111856
-0.0326879
-0.378037
0.0100719
0.103994
0.343195
-0.714036
0.0801773
0.142937
-0.327489
0.442739
0.317848
-0.47443
-0.401414
-0.326676
0.0120652
-0.007968
0.0285482
-0.0387146
-0.683098
0.255795
0.320948
0.081609
0.108564
-0.0236809
-0.0733866
-0.0193435
-0.093441
0.0055246
0.10201
-0.715482
-0.54981
0.00636479
-0.0129744
-0.038525
-0.131289
-0.349893
-0.713131
0.191991
0.000519454
0.310108
-0.011966
0.323368
0.160616
0.0298531
-0.107743
0.295884
-0.459677
-0.158399
-0.000892284
-0.0167494
-0.603092
0.103827
-0.0112656
0.0217238
0.0209669
-0.00517336
-0.711032
-0.472844
-0.394014
0.471994
-0.717312
-0.0352903
0.0322002
-0.227605
-0.0601681
-0.0224944
-0.373727
0.00177684
-0.500099
-0.399167
-0.211051
0.137945
0.374482
0.0129374
0.498274
-0.0898386
-0.295601
0.00374416
0.005847
0.0278535
0.514178
-0.294029
0.173966
-0.712656
-0.248397
0.296685
-0.292656
0.368302
-0.0528674
0.436491
-0.526055
-0.0368952
0.139574
-0.42552
-0.0832063
0.033642
0.0122943
-0.123363
-0.119717
-0.169577
0.0157033
-0.393024
0.269728
-0.295027
-0.71223
-0.39531
0.0516937
0.453963
-0.401317
0.00109513
0.00499554
-0.116834
-0.397341
-0.0129269
0.0940789
-0.280665
-0.513956
-0.013804
0.375508
-0.00259554
0.00665474
0.483192
0.107004
-0.336606
-0.305404
-0.409151
-0.388148
-0.00795702
-0.117918
0.0467955
0.000842554
0.338533
-0.181905
-0.0817548
0.505925
-0.338479
0.0158589
-0.0781062
0.392071
-0.0511137
-0.167411
0.233007
-0.359533
-0.359286
-0.398254
-0.429405
-0.706794
-0.31376
-0.356811
-0.394696
-0.0263757
0.0907694
-0.100278
-0.0582809
-0.286431
-0.381194
0.00995572
-0.00756153
-0.710391
-0.311047
-0.0542403
-0.706633
0.0339618
0.44755
-0.418215
-0.166552
0.005105
-0.297284
0.482824
-0.0162537
0.0173094
-0.526525
-0.487774
-0.517449
-0.432412
0.00248455
-0.562722
-0.339755
0.149668
-0.290722
0.306996
-0.00371338
-0.0815234
-0.330271
-0.434035
-0.0614721
0.00654005
-0.285308
0.310449
-0.395865
-0.223048
-0.154756
-0.355464
0.0280181
-0.562002
0.00730412
-0.063863
0.0282738
-0.00893389
-0.00433229
-0.100445
-0.03446
-0.0108302
-0.628167
-0.0573591
-0.442652
-0.712218
-0.315938
0.00394661
-0.425863
0.498837
-0.340392
0.00528177
0.0320648
-0.5746
-0.438999
-0.427029
0.253375
0.0825313
-0.00493984
-0.575904
-0.723004
0.0253885
-0.603633
0.155075
0.0148015
-0.316467
0.258836
-0.673646
-0.0221712
-0.0318873
-0.316519
-0.53844
-0.362671
-0.250597
-0.362972
-0.342034
-0.458341
0.0199333
-0.720938
0.0102684
0.00654878
-0.0141073
0.0269422
-0.721968
0.243052
-0.361798
-0.369496
-0.0461572
0.299233
-0.0202494
-0.38774
0.393067
-0.575312
-0.711401
0.483481
0.034162
-0.0154384
-0.234836
0.14375
-0.0164341
-0.322564
-0.434741
0.459094
0.0244717
-0.0577111
0.191353
0.0102355
-0.0225916
-0.0743701
-0.360304
-0.0336227
-0.0301216
-0.311482
-0.0680277
-0.325595
-0.56973
-0.352075
-0.434823
-0.416388
-0.693013
-0.386497
0.175592
-0.110623
0.0418342
0.481853
-0.278151
-0.345409
0.282737
0.270231
-0.00983193
-0.321016
-0.371047
-0.0376161
-0.00786031
-0.0467382
-0.487015
0.00559506
0.0227181
-0.201664
-0.342815
-0.0444047
0.174027
-0.0145971
0.130223
-0.13335
0.00540514
0.0177222
-0.132843
-0.306007
0.0306156
-0.0806623
0.359396
-0.36934
0.043718
-0.60867
-0.00438399
-0.359382
0.0773322
0.0714929
-0.0102413
-0.353589
-0.0622169
-0.71599
-0.720118
0.283465
0.0206125
-0.0289197
-0.41776
-0.499685
-0.0244407
-0.321368
-0.370972
-0.186366
0.294807
-0.0115376
0.00572728
0.0274702
-0.318694
-0.152701
0.01105
-0.639411
0.014059
0.253929
-0.325717
-0.00362263
0.142443
-0.204733
-0.710086
0.0540385
0.10856
0.0816809
-0.1927
-0.0109055
0.0160411
-0.360833
-0.407767
-0.241832
-0.00950137
-0.417431
0.0319063
0.01659
0.00369938
-0.462235
-0.620423
-0.0490228
-0.530514
-0.51065
-0.207488
-0.326888
-0.475199
-0.707156
-0.458137
-0.115305
-0.0967029
-0.375112
-0.174993
0.00360798
0.143255
-0.0833555
-0.689086
0.0172951
-0.431235
0.0289646
0.430907
-0.259234
-0.0180627
-0.00948028
-0.604862
-0.706598
-0.286669
-0.31455
-6.459e-05
-0.0536387
-0.591997
-0.0746294
-0.493553
0.167374
0.33983
-0.393172
-0.0240543
0.00758654
-0.310336
-0.335544
0.0315765
-0.340184
-0.500036
-0.0052425
0.0146101
0.00599924
0.00882549
-0.709564
-0.0278977
-0.168311
0.00951607
-0.0352374
0.162348
0.0327276
-0.311531
-0.258718
0.000267395
-0.0114577
-0.282732
-0.0518956
0.259204
-0.714218
-0.700739
-0.132011
0.406556
0.1387
-0.0105173
-0.297646
-0.708143
-0.0576572
-0.34948
-0.326331
0.267324
-0.100919
-0.0326876
-0.229885
0.0720107
-0.552808
0.0180952
-0.00811537
-0.0241185
-0.433831
-0.532763
0.0532636
-0.0145669
-0.0237596
-0.0400986
-0.144219
-0.370948
0.0225687
-0.145762
-0.415525
0.322824
0.0274055
0.0306086
-0.700313
-0.706575
0.0287765
-0.48181
-0.0676315
-0.330274
-0.210116
0.00547344
-0.294041
-0.0788082
0.00562102
-0.221433
-0.340926
0.0260684
0.0212547
-0.35377
-0.00609583
0.019544
-0.0972788
0.185186
0.20521
-0.591772
-0.0700237
-0.049441
-0.410173
-0.00387095
-0.418285
-0.582959
-0.0680499
-0.0718286
-0.286482
0.0455746
-0.30702
-0.0105463
-0.240432
0.415886
0.0107507
-0.37271
-0.395561
0.0330492
0.0397374
0.454301
-0.0543425
-0.294619
-0.303006
0.0239208
-0.152781
-0.68854
-0.0399695
-0.12549
-0.10265
0.0369658
-0.217706
-0.267889
-0.0331356
-0.360751
-0.491983
0.22327
-0.0652244
0.00468115
-0.00980654
0.0119856
0.201088
-0.391569
0.00613594
-0.0588699
-0.662076
-0.406089
0.0190502
-0.0631344
0.473794
-0.334067
0.0193705
-0.428273
-0.11971
-0.249023
-0.121025
-0.0112918
-0.0744652
0.0370685
0.0281938
-0.351733
0.00306061
0.246623
0.0240474
-0.426421
-0.03183
-0.0297421
-0.0107585
-0.0580705
0.0140028
-0.150293
-0.722544
-0.186977
-0.110865
0.21446
0.00440707
0.130735
-0.18027
-0.229526
-0.712088
0.000363495
-0.503555
0.0230549
0.500016
-0.313569
-0.722444
0.000656237
-0.131063
-0.179235
-0.62818
0.420051
0.00856955
-0.217992
0.334373
0.191484
-0.0964512
-0.0343431
0.0477046
0.0932837
-0.419724
0.0353273
-0.357612
0.170957
-0.549901
0.302369
-0.00631617
-0.23456
-0.0298659
0.0298597
-0.312519
-0.0129436
0.425154
-0.507471
-0.247933
0.11361
0.319694
0.0372492
-0.274374
-0.157522
-0.442177
0.0448718
-0.0177826
-0.0212866
-0.0667436
-0.125966
-0.329048
-0.0192513
0.183958
0.376534
0.00105899
-0.0403168
-0.379485
-0.292146
0.0335164
0.0149958
-0.0293015
-0.231106
0.0475752
-0.0782389
-0.234045
-0.171945
0.0423892
0.307171
-0.18379
0.0234418
-0.0337661
-0.2987
0.4894
-0.175731
-0.143222
-0.419568
-0.313484
-0.184492
-0.0104106
0.0504186
-0.0327839
0.0989448
-0.320966
-0.188083
-0.0768733
-0.176701
-0.451018
0.092168
0.0275201
-0.709103
-0.0204367
-0.29019
-0.244969
-0.0135822
0.0873881
0.0371679
-0.00757942
0.017699
-0.130291
-0.0146186
0.0733434
-0.000300391
-0.000588729
0.00709443
0.0291275
0.147122
-0.0561118
-0.0313692
0.029902
0.00977474
0.070169
0.0599957
0.409175
0.0260508
0.082564
0.478874
-0.0188252
0.00262124
0.0566463
-0.0814626
-0.697668
-0.708307
-0.344701
-0.419199
-0.193621
-0.293019
0.0114785
-0.203049
-0.00289242
-0.372109
-0.0329999
0.0326359
0.0534598
-0.175471
0.0169574
-0.105726
-0.00161737
-0.228085
-0.340253
0.0102848
-0.414064
-0.21798
-0.0336843
-0.0353337
0.0214288
-0.013243
-0.722625
-0.0331147
-0.219654
-0.357021
0.0237379
-0.0136673
-0.234844
-0.387695
0.10243
-0.0531755
-0.30019
0.0183389
-0.414113
-0.170731
-0.614449
-0.00871117
-0.331012
0.0269681
0.0122231
-0.312644
-0.178878
-0.411647
-0.372403
-0.710364
-0.220148
-0.0782813
-0.312505
0.00669864
-0.0879424
-0.0299399
0.000469581
0.332168
0.0155099
0.0277762
-0.0124499
-0.00780829
-0.083383
-0.106278
-0.322687
-0.382148
-0.432169
-0.0547543
0.134965
-0.0434752
0.0173363
-0.187126
0.00632289
-0.0215914
0.0016924
-0.0572292
0.0778801
0.356884
-0.0528662
-0.16497
0.0199107
0.258194
0.266102
-0.409976
-0.637945
-0.0600292
-0.125931
0.0243186
-0.609889
-0.281889
0.026964
0.00446302
-0.0434796
0.0215555
-0.134093
-0.332267
-0.609615
0.0469332
-0.0363001
0.00889295
-0.362859
-0.171688
-0.000567559
-0.0622136
-0.19109
0.108425
-0.0688764
-0.0859567
-0.248288
-0.412692
-0.0220241
0.00401463
0.0341577
-0.00185841
0.0089936
-0.388896
-0.0159747
0.0400253
-0.0111544
-0.72277
-0.0681347
0.0345877
-0.522047
-0.670936
-0.237162
0.00159825
-0.0826506
0.4459
0.0104622
-0.577976
-0.220042
-0.151674
-0.0585604
-0.0320435
-0.71902
-0.0163092
0.00575855
-0.00994399
0.0419648
-0.00988787
-0.389073
-0.0323567
0.0163764
0.062287
-0.352616
-0.0420574
-0.0146455
0.00615006
-0.443464
-0.312721
-0.575586
-0.35633
-0.06669
0.0364399
0.0921557
-0.0984903
0.352199
0.0244128
-0.10138
0.0203775
-0.0898279
-0.0257186
-0.28918
-0.622701
-0.0647737
0.00637235
-0.0457591
0.0284357
-0.0191872
0.0294122
0.0213963
-0.0247572
0.33974
0.0168992
-0.108238
0.0661701
0.00259172
-0.719073
-0.0440337
-0.0277766
-0.00901983
-0.348392
-0.0155878
-0.00918773
-0.0291648
-0.000348023
-0.206576
-0.0819946
-0.00327829
0.223428
-0.00869615
-0.0875036
-0.0211844
-0.249178
0.00196803
0.0228812
-0.361493
-0.0344049
-0.252784
-0.11603
0.0810388
-0.113535
-0.0107742
0.0202991
0.0084372
-0.538773
-0.0519165
0.0328498
0.498201
0.00420795
-0.0107638
0.00232503
-0.484557
0.106281
-0.119374
0.16378
0.126683
0.247027
-0.0374209
-0.0277244
0.234773
-0.381145
0.0281605
-0.0361891
-0.00987878
-0.134733
-0.306221
0.00184549
-0.0365063
-0.217942
0.125883
-0.014193
-0.673853
-0.0235796
0.0302599
-0.307332
-0.0769855
0.0185649
-0.079859
0.0318154
-0.0307021
0.004661
-0.000666364
-0.0193824
0.00401106
0.00594427
0.156329
0.0336993
-0.259818
-0.0208267
0.0853641
0.029642
-0.037836
-0.325383
-0.00339924
-0.0272751
0.320001
-0.0342845
-0.00396519
-0.1979
-0.473027
-0.303096
0.0458906
-0.0374853
-0.0669912
0.0209573
0.0158154
-0.113565
0.0456871
-0.00988811
0.13121
0.0452095
0.00904912
-0.0202103
-0.0110509
-0.0431384
-0.156214
-0.114417
-0.0759178
-0.396642
-0.0549578
0.00114025
-0.0152023
-0.251899
0.0194728
-0.232055
0.0414848
-0.164584
-0.0682308
0.0271179
0.0198256
0.115176
-0.372273
-0.330393
-0.0274055
-0.0784283
-0.43373
0.0708952
-0.325972
-0.594357
-0.389772
-0.0761651
0.0437277
-0.139579
-0.111856
0.011634
-0.550728
-0.377454
-0.381333
-0.0400124
0.00902829
0.0325849
-0.270361
-0.0194643
-0.00820481
-0.116435
0.0242839
-0.0227539
0.00220997
0.246849
-0.0249498
-0.00202601
0.0176967
-0.355977
-0.0150688
0.0463314
0.0184655
-0.0350202
0.00329211
0.296478
-0.0734158
-0.367512
-0.0175161
-0.025188
-0.122881
-0.722552
-0.400326
0.0151811
0.0117635
0.17791
0.326667
-0.00911472
0.395004
0.0306766
0.0138938
0.0136765
-0.348284
-0.01229
0.0303368
-0.058504
0.0390843
-0.0275322
-0.000396521
-0.253974
-0.0306594
0.0623408
0.00931464
0.0413365
-0.116282
-0.0235051
0.0104393
-0.0769339
0.0388242
-0.0563345
-0.0224769
-0.351927
-0.393407
0.00611529
-0.169691
0.0162137
-0.0288112
-0.232651
-0.313331
-0.0254591
0.00269247
0.0490006
0.388954
-0.0617862
-0.0347763
0.024536
0.00637535
0.033725
-0.0245347
-0.0756773
-0.0412774
0.175965
0.242349
-0.11934
-0.0170406
0.472906
-0.0122311
0.0108224
-0.713382
-0.346096
0.00242137
-0.0104539
0.0261297
0.0446099
0.0281264
-0.0302721
-0.00820009
0.0255367
-0.56657
-0.341964
-0.0596728
0.0378005
-0.442214
-0.0456459
-0.00456947
-0.723363
-0.0453182
-0.0148221
0.0249614
0.0229273
-0.0611532
0.00449578
-0.030958
0.0326524
-0.00175022
0.0430878
-0.10982
-0.115639
0.00884077
-0.0915609
-0.334015
0.0766575
0.0148458
0.271205
-0.0143232
-0.0012139
0.0100144
-0.0775842
0.0104151
-0.587712
0.0325778
0.412432
0.501478
-0.190229
-0.0424939
-0.0358069
0.00845011
0.028334
-0.0572491
-0.285999
-0.278667
0.000973352
0.0888649
-0.700968
-0.0174883
-0.0348467
0.0122128
-0.0305691
-0.0915294
0.0792517
0.00823894
-0.0544276
0.0418648
0.159892
-0.309899
-0.414419
-0.0265868
0.00441535
0.162683
-0.0315835
0.0114434
-0.176601
-0.0414086
-0.134144
-0.00175958
0.28306
0.00575782
0.291034
-0.188159
-0.343917
-0.720319
0.0102033
-0.128889
-0.146642
-0.345201
-0.0137779
-0.0214453
-0.284073
0.0296738
-0.0246071
-0.00458987
-0.0125521
0.00843033
-0.0274221
-0.706293
0.00849853
-0.0646017
0.00928877
-0.012962
-0.0197132
-0.302416
-0.130884
0.0282121
0.0519286
0.00683716
-0.726926
0.000999312
0.0417567
0.0640516
0.0440204
0.125393
0.000337591
-0.387296
0.0171974
-0.0358523
-0.0371753
0.0140065
-0.0118145
0.0141163
-0.603722
-0.0017684
0.0404009
-0.36736
-0.021948
0.0262601
0.0157909
0.0209807
-0.187713
0.0257298
0.0243012
0.423262
-0.043285
0.00672779
0.0581743
-0.0158054
-0.382284
0.0740137
0.046293
0.0244259
-0.074142
0.0182511
-0.401807
-0.00123703
0.0197145
-0.498336
0.0040985
-0.203697
0.0549547
-0.0111111
-0.014843
0.148415
-0.0490095
0.00678215
0.0152001
-0.04612
0.0263754
0.024422
0.0442539
-0.0267591
-0.0215822
-0.0217144
-0.308458
0.018195
0.00692638
-0.410175
0.039247
-0.0841776
-0.292041
-0.337188
0.00308976
0.0412487
0.0225077
-0.0104732
0.0752356
-0.142237
0.0613341
-0.0410043
-0.00714983
-0.043633
0.000639457
-0.0109943
-0.0301252
-0.172346
0.0335991
-0.0284763
0.00837293
0.0213082
0.0062648
-0.431166
-0.0358112
0.0138114
-0.442672
-0.0305539
-0.172144
0.0256822
0.0185751
-0.0110143
-0.306873
-0.00252298
-0.0249402
-0.0398663
0.0258815
0.0286117
0.0253068
-0.0277261
-0.0560991
0.0257752
0.155327
0.0142666
-0.127717