/*--------------------------------*- C++ -*----------------------------------*\
| =========                 |                                                 |
| \\      /  F ield         | OpenFOAM: The Open Source CFD Toolbox           |
|  \\    /   O peration     | Version:  v2012                                 |
|   \\  /    A nd           | Website:  www.openfoam.com                      |
|    \\/     M anipulation  |                                                 |
\*---------------------------------------------------------------------------*/
FoamFile
{
    version     2.0;
    format      ascii;
    class       volVectorField;
    location    "650";
    object      ddtCorrDdt0(U);
}
// * * * * * * * * * * * * * * * * * * * * * * * * * * * * * * * * * * * * * //

dimensions      [0 1 -2 0 0 0 0];


internalField   nonuniform List<vector> 
10042
(
(-0.000398089 -0.000122812 3.2856e-18)
(-0.000200002 -0.000356418 -3.33042e-18)
(0.000769793 0.00132188 -1.64304e-18)
(0.000119833 6.42681e-06 7.3265e-19)
(-0.0116555 0.00403108 -1.61167e-17)
(-0.000178168 -0.000404886 4.47893e-18)
(-0.169852 0.0529729 -4.01345e-18)
(-0.0417808 0.0426905 4.54714e-17)
(0.000443018 0.000999317 6.17307e-19)
(-0.000181929 -1.94865e-05 -3.2771e-19)
(0.0231556 -2.72598e-05 4.99416e-17)
(0.00017897 8.40073e-06 -4.91213e-19)
(0.000144647 9.58029e-05 4.04359e-19)
(0.000166848 3.18069e-05 7.26972e-19)
(-0.00207139 -0.00182745 -8.89824e-18)
(-0.000237565 -0.000219174 -1.12388e-18)
(-0.000247099 -0.000177802 -1.97724e-18)
(-3.87103e-06 -3.57514e-05 3.22722e-18)
(-0.000385602 -0.000108578 -4.92805e-18)
(-0.00338538 -0.00935389 6.78688e-18)
(-0.000135824 0.000103546 -3.10131e-19)
(-0.00364612 0.0519243 -3.40793e-17)
(0.000121775 2.2974e-05 2.31705e-19)
(5.06612e-05 0.000165442 -2.27097e-19)
(-0.000189083 -0.000393707 3.90242e-18)
(0.0022804 0.00790598 -1.47265e-18)
(-5.85541e-05 -0.000649455 6.61712e-19)
(-0.00223751 -0.000245055 -1.39038e-19)
(-0.000353122 0.000857413 -4.5297e-19)
(-0.00192989 0.000121643 8.48152e-19)
(-0.000146016 -0.000361159 3.58436e-18)
(-0.000713712 -0.000350407 -4.54308e-17)
(-0.000178691 -3.74512e-05 -1.30078e-18)
(-0.00152011 0.0011745 -7.74449e-19)
(-0.00207288 0.00502126 1.12922e-18)
(3.49883e-05 0.000157837 -1.26841e-19)
(0.00175137 0.00730908 3.19069e-18)
(0.00672019 0.00946783 -7.46166e-18)
(3.00229e-05 0.000143388 -3.15868e-19)
(-0.0053587 -0.000133589 -1.89913e-18)
(-0.00334679 -0.00941371 4.98949e-17)
(-0.00209384 -0.0014836 1.65797e-17)
(-0.171797 0.0580354 -2.92744e-17)
(-0.00127328 -0.000665214 5.74179e-18)
(-0.0102102 0.00397084 -2.83256e-17)
(0.00699409 0.0210109 -1.21247e-17)
(-0.0014243 -0.00128339 4.79644e-19)
(0.0218705 0.033045 -4.67284e-18)
(7.35881e-05 0.00649295 -9.97882e-18)
(0.0217637 0.00885457 6.2764e-18)
(-3.92077e-05 -4.15823e-05 -1.35879e-19)
(0.00211107 -0.00143458 1.29803e-19)
(-0.00159958 -0.00191369 1.20379e-17)
(0.00350378 -0.000783147 -3.25363e-18)
(0.00135617 0.007286 6.0535e-18)
(-0.000196871 -0.00037391 -5.65055e-18)
(-0.000321068 0.000922649 -1.00554e-18)
(-0.00138768 -0.00128681 -2.68116e-18)
(-0.00142146 0.00122699 -2.15024e-18)
(-0.00162658 -0.00183472 -7.29738e-18)
(-0.000159808 -0.000413585 2.09776e-18)
(-0.000228841 -0.000201389 -8.01403e-18)
(-0.00235907 0.00507974 2.69598e-18)
(0.000715223 0.00127307 7.62664e-19)
(-0.000680722 -0.00180902 7.93957e-19)
(-0.00133813 0.001402 5.88995e-19)
(-0.000491604 -0.00147036 -3.56108e-18)
(-0.00335284 -0.00818857 2.04151e-17)
(0.0233443 -0.00311948 2.93776e-17)
(-0.00095628 -0.000278786 3.71188e-18)
(0.00343076 -0.00104701 -8.4961e-19)
(-0.00339492 -0.00976884 -5.32007e-18)
(-0.00127586 -0.000683419 -4.18022e-20)
(-0.00202706 -0.00468222 -5.88758e-18)
(-0.000346919 -0.00144805 3.60923e-19)
(5.54152e-05 0.000179465 1.0962e-18)
(-0.0108147 0.00245514 7.26914e-17)
(-0.000357924 -9.36111e-05 5.68739e-18)
(-0.00288471 -0.00374939 -5.21336e-18)
(-0.147204 0.037058 1.13677e-17)
(0.000196668 0.00620965 -4.70354e-18)
(-0.0120935 0.00632831 2.73408e-17)
(-0.00128201 0.000211987 -2.50637e-18)
(-0.00183104 -0.00144612 -7.49238e-18)
(-0.000467042 -0.00149434 1.29937e-17)
(-3.03659e-05 -0.000208899 3.46972e-18)
(-0.00045129 -0.000178596 6.76951e-18)
(-0.0181561 -0.0022533 2.62905e-17)
(-0.000806752 -0.000946525 2.35263e-18)
(-0.000449878 -0.000150266 -2.34852e-18)
(-0.000524003 0.00191147 -9.52243e-19)
(-0.0103031 0.00575945 -2.29689e-17)
(-0.00232831 -0.000185916 -3.48499e-19)
(0.00195537 -0.00129285 -5.41552e-20)
(-0.00184673 3.1149e-05 -1.10177e-18)
(-0.000819454 0.000638314 8.65811e-19)
(-0.000315248 1.95631e-05 -2.98065e-19)
(-0.000894088 0.000244493 -1.53346e-18)
(-0.00516375 -6.71722e-05 -3.90093e-20)
(-4.93156e-05 0.00111956 3.77505e-20)
(5.39148e-07 -5.97333e-06 -4.41039e-18)
(-0.0177358 0.00310189 -9.04509e-18)
(-0.0721493 0.0516683 -1.8175e-17)
(-3.6816e-05 -0.000223649 -3.57787e-18)
(-0.00203081 -0.000624591 2.2941e-18)
(-0.0100358 -0.00138988 -3.18739e-18)
(-0.00037724 -0.000236538 -2.47435e-18)
(-0.000324253 2.51746e-05 -1.73213e-19)
(-0.000133806 9.92111e-05 -7.39306e-19)
(0.000272324 -0.00015471 9.1167e-20)
(-1.86528e-05 1.76369e-05 -1.68415e-18)
(-0.000674464 -0.00012754 2.90675e-18)
(-0.00373808 0.00239683 2.9305e-19)
(0.0277722 -0.00394277 3.85193e-17)
(-0.000632209 -0.00179807 7.76685e-18)
(-0.00064447 -0.000205394 1.00507e-18)
(-0.000170337 -0.000269571 -3.87114e-18)
(-0.000373437 -0.000110785 3.50008e-18)
(-0.000771358 0.000674052 2.89981e-18)
(0.00595452 -0.00467807 7.75101e-17)
(-0.000773801 -0.000921922 4.58912e-18)
(-0.0265657 0.0468172 -2.5662e-17)
(-0.00136404 -0.000422391 -1.74194e-18)
(-9.41352e-05 -0.000244108 4.15755e-19)
(-0.0173989 0.00382152 6.68047e-18)
(-0.0013278 0.000138078 -2.44461e-18)
(-0.0235726 0.0421303 -4.82182e-17)
(-0.00191258 0.00644692 7.11406e-18)
(-0.00960707 -0.00146829 7.00867e-19)
(-0.000468403 -0.000171194 -7.21734e-18)
(-0.00300641 -0.00386338 4.37269e-17)
(-0.000787475 -0.00123401 8.41268e-18)
(0.0165427 -0.00348378 -4.45209e-17)
(-0.0172775 0.0305339 4.17706e-17)
(-9.65159e-05 0.00107918 -1.60643e-19)
(-0.012153 0.00244685 -1.18212e-17)
(0.00448732 -0.0025675 -1.35842e-17)
(-0.000615191 0.00194144 8.92359e-19)
(0.0203332 0.0351577 -3.37079e-18)
(-0.0187151 -0.00279292 -1.53376e-17)
(-0.00204369 -0.000907862 -2.12977e-18)
(-0.000156952 -0.000295028 2.56218e-18)
(-0.00178515 -0.000912045 -8.90778e-18)
(-0.0207015 0.00821307 -3.28786e-18)
(0.00143292 -0.000666975 1.81924e-18)
(-0.000660895 -0.000135831 -1.27693e-18)
(-0.0119847 0.00570383 -4.31325e-18)
(0.000476075 -0.0002267 1.39204e-19)
(-0.000936685 0.000255379 3.90593e-19)
(-0.00382959 0.000689662 1.04552e-17)
(0.000629453 0.000993203 -4.97087e-19)
(-2.60226e-06 -1.25577e-05 8.30362e-19)
(-0.0919317 0.00016845 1.3891e-17)
(0.00835962 -0.00649775 -5.77373e-17)
(-3.45962e-05 -0.000492798 -5.05596e-18)
(0.000146806 8.18999e-05 -3.44537e-19)
(-0.000443649 -0.00224933 4.176e-18)
(-0.000227086 -0.00018424 6.11143e-18)
(-0.0123609 0.00191453 1.5442e-17)
(-0.00298869 0.00685788 3.1867e-17)
(0.0238662 0.00240337 3.64146e-18)
(-0.0142746 0.024287 -1.46014e-17)
(-0.000180182 -0.00023054 3.12963e-18)
(0.000567287 0.00103681 -2.39393e-19)
(-0.00135927 0.000498868 2.91969e-19)
(-0.000747657 -0.00120717 1.01151e-17)
(-0.00803215 -0.00539785 -3.79884e-18)
(0.0156253 0.0109493 -6.49488e-17)
(0.00178931 -0.00117641 -2.73165e-17)
(0.00898728 -0.00709975 5.21419e-17)
(0.00292094 -0.000180206 -1.41879e-18)
(-0.000287546 2.98576e-05 -9.71039e-19)
(-0.0123632 0.00764023 -6.40094e-17)
(-0.00436344 -0.0100841 -1.33745e-17)
(-0.00491446 -0.00425788 -2.1625e-17)
(-0.201712 0.112805 -1.89459e-17)
(0.0439331 -0.0483558 -4.4171e-17)
(-0.00127073 -0.000521835 1.18763e-17)
(-0.00340995 -0.00847749 3.11648e-17)
(-0.00595056 0.0034808 -4.84548e-18)
(-0.000466254 -0.0023249 6.56113e-18)
(-0.00215724 -0.00174598 -1.21447e-16)
(-0.000606545 -0.00157683 6.73768e-19)
(-0.00202084 0.00619944 -2.98893e-18)
(-0.00197408 -0.00150159 -7.82446e-18)
(0.00708464 -0.00364723 -1.08523e-16)
(-0.0214778 0.0243146 -1.85152e-17)
(-0.00112695 0.0011519 -7.07698e-19)
(0.0245708 0.0063377 -1.37747e-17)
(-0.000719694 0.0038643 -4.17518e-19)
(-0.00478823 -0.0151096 3.50956e-19)
(-0.00177693 -0.00102642 6.58334e-18)
(-0.0952193 0.0025488 -8.2025e-18)
(-0.017689 0.00949802 -1.00326e-17)
(-0.00602155 0.0275594 -4.15539e-17)
(-0.0323686 0.0123748 -3.14834e-17)
(0.00116732 0.00534119 -2.98783e-18)
(-0.000344337 -0.00015741 1.15887e-18)
(0.000137617 7.97206e-05 2.32131e-19)
(-0.00247638 0.00193874 3.48477e-19)
(-0.0041109 -0.00462762 -9.52671e-18)
(-0.00115392 0.00122673 2.01388e-18)
(-0.000650115 -6.64101e-05 -3.90333e-18)
(-0.00455781 -0.0100161 -3.65367e-17)
(-0.000545187 -0.00157876 -6.9111e-18)
(-4.01388e-05 0.000476211 5.60418e-19)
(-0.00574948 -0.0160911 -3.71327e-18)
(-5.75448e-05 -0.000576258 -7.43898e-19)
(-3.81472e-06 -4.37685e-05 -1.03939e-18)
(-3.62218e-06 -0.000205675 3.78195e-18)
(-0.0348304 0.0106391 2.24732e-19)
(0.000171307 1.14837e-05 3.4659e-19)
(-0.00768671 -0.0051918 3.79009e-18)
(-0.0122343 -0.0109625 -1.78597e-17)
(-0.000509335 -0.00218974 1.44702e-18)
(-0.0223803 0.0238536 2.08841e-17)
(-0.000313545 -0.00123333 2.22948e-18)
(-0.000253007 -3.20161e-05 2.61015e-18)
(-0.012897 0.00858741 -1.47584e-17)
(-0.000297823 7.50122e-05 -3.39039e-18)
(-0.00382491 0.0026568 6.63617e-19)
(-0.000765686 -0.00225637 -2.62374e-18)
(-0.0165474 -0.00954707 4.51034e-19)
(0.00732693 0.0100191 -1.03021e-18)
(-0.00253049 -0.00233422 -6.40654e-18)
(0.00297421 0.00841235 -6.30094e-18)
(-0.0222276 0.0358131 -1.49111e-17)
(-0.000653447 -0.000174413 -5.74288e-18)
(-0.0190399 0.0212734 -1.19752e-17)
(0.0037751 -0.00130473 -1.26224e-19)
(0.000518705 0.000987132 -3.33948e-19)
(-0.00639404 -0.00967246 -1.09478e-17)
(-0.000283449 3.93931e-05 -4.41791e-18)
(0.00371131 -0.00158076 -1.91246e-18)
(0.000765077 0.00135954 -2.28683e-18)
(-0.00395302 0.000820902 5.0496e-18)
(-0.000159211 0.000422523 6.93165e-19)
(0.000172486 1.13108e-05 2.60426e-19)
(0.00129259 0.00325675 -3.85411e-18)
(0.00783461 -0.00120206 -2.25408e-18)
(-0.000165197 -0.000246922 -3.26903e-19)
(-0.00136557 -0.000492643 -9.74461e-19)
(-0.00128604 0.000467746 -1.02222e-18)
(-0.00392795 0.00225675 -3.88098e-19)
(-0.000612431 -0.00018034 -5.77369e-18)
(-0.000156482 -0.000364977 -1.27741e-18)
(5.26388e-05 3.60315e-05 1.01723e-18)
(-0.00212998 -0.000561034 -9.87516e-18)
(0.00319503 -0.000554984 -1.3062e-18)
(-2.35863e-06 -2.56111e-05 -1.23447e-18)
(0.000140714 4.93896e-05 -1.13289e-19)
(-0.000910825 -0.000254623 -4.13065e-18)
(-0.00324857 -0.000294531 -4.06423e-18)
(-0.0171396 -0.0102503 2.55096e-17)
(-0.0147807 0.0232962 1.75065e-17)
(0.0215548 0.00639367 1.54275e-17)
(-0.00491806 -0.00455767 -2.31103e-17)
(-0.0053236 -0.00378459 -2.24135e-17)
(-0.0021746 -0.00183332 -1.49726e-18)
(0.00583077 0.0235032 -6.24821e-19)
(-0.199986 0.0930762 -1.30805e-17)
(0.00122318 0.00306741 1.87211e-18)
(-0.000364694 -0.000213407 -3.70674e-18)
(0.000168762 1.57512e-05 6.24544e-19)
(-0.0024012 0.00176781 -1.75868e-18)
(-0.000150136 0.000390213 -3.63099e-19)
(-0.00306923 0.0551055 2.77919e-17)
(0.00348026 0.00148881 1.65696e-18)
(-0.000474382 -0.000187891 1.15925e-17)
(-3.1773e-06 -0.000174053 -3.86458e-18)
(-0.00398875 -0.00487532 -1.17253e-17)
(0.00334559 -0.000550612 2.88229e-18)
(-0.0127183 -0.0104079 9.90895e-18)
(-0.00524465 -0.00418407 2.62521e-17)
(-0.0206891 0.000359993 1.07251e-17)
(-0.000918027 0.0039626 -3.18487e-18)
(0.00790889 -0.00179279 -4.48064e-18)
(-0.000161575 0.000328543 1.88999e-18)
(0.00402152 0.00398462 2.44417e-18)
(0.00151166 -0.000602139 -1.77489e-18)
(-0.00627553 0.00359988 2.83288e-18)
(-0.000819953 -0.000743839 -6.36089e-18)
(0.00183223 0.00788074 -1.5366e-18)
(0.0148786 -0.00416906 -3.79216e-17)
(-5.64502e-05 0.000446567 -8.61789e-19)
(0.000423139 0.00132609 7.88415e-20)
(-0.195267 0.0862637 1.691e-17)
(0.00588847 0.0219387 8.71125e-18)
(-0.00107072 0.00112331 -1.23725e-19)
(-0.000157653 -0.000416876 -1.21678e-18)
(-0.00313054 -0.000269295 5.93352e-19)
(-0.206415 0.126235 -3.06148e-17)
(-0.0067094 0.014422 -3.81695e-18)
(-0.0211592 0.00880818 -1.93862e-19)
(-3.28364e-05 -3.57698e-05 1.39706e-18)
(0.000144336 6.88694e-05 1.0639e-19)
(-0.000672219 -0.000157237 4.67921e-18)
(0.000414116 0.00106523 -8.92485e-19)
(-0.0227731 0.0374424 -1.01944e-20)
(-0.000657482 -0.000437496 1.61009e-17)
(-0.00017163 -0.000375905 -2.86375e-18)
(-0.000330406 2.93684e-07 -6.86663e-19)
(-0.000268741 -0.00124095 -1.33942e-19)
(0.00959081 0.0089144 -1.69081e-18)
(-0.00253301 -0.00149482 2.37875e-18)
(-0.013327 -0.00159399 8.23227e-18)
(-0.0376626 0.00227401 -4.75341e-17)
(-0.00152753 -0.00178737 7.18185e-18)
(-0.0860591 0.0187625 1.63563e-17)
(-0.000557556 -0.000156172 -5.646e-18)
(0.00388687 0.00379019 -2.33809e-18)
(-6.12698e-05 -0.000646768 -5.58298e-19)
(0.0125641 -0.00179462 -6.84384e-17)
(-0.0175755 0.0053032 1.21081e-18)
(-0.0384993 0.0053229 -4.21936e-17)
(0.0286454 -0.0591131 -1.12351e-17)
(7.8087e-05 0.00019933 3.92126e-19)
(0.00365778 0.00137437 -1.38641e-18)
(-0.000995864 -0.000252012 3.86116e-18)
(-0.00285456 -0.00102038 2.55058e-18)
(0.00245493 0.0084064 -1.35901e-18)
(-9.94731e-06 -0.000115921 1.5828e-18)
(-0.00660859 0.0023625 -1.71813e-18)
(-1.63028e-05 1.83124e-05 6.69567e-19)
(0.000167967 -3.20914e-07 3.88951e-19)
(-0.00128021 -0.000620696 -4.48467e-18)
(-0.0138066 -0.00193814 1.87086e-18)
(-1.55122e-07 -3.72339e-05 2.009e-19)
(-0.000692989 0.00363498 4.35889e-19)
(-0.000658427 -0.00117668 1.7345e-17)
(-0.00245082 -0.00141139 1.46635e-19)
(0.0379573 -0.0134121 -4.88396e-17)
(-0.000591369 -0.000182531 5.2107e-18)
(-4.09628e-05 -0.000533729 -3.69966e-18)
(-0.000106404 1.5158e-05 1.57118e-18)
(0.000734872 0.00117069 3.30014e-19)
(-0.00914738 0.00219125 -8.44828e-18)
(-0.00576955 0.0285765 5.07955e-17)
(-0.00555437 -0.00361172 1.43001e-17)
(-0.03915 0.0275375 -5.97243e-18)
(0.00891888 0.00941024 -2.101e-17)
(-0.00183746 0.00588825 1.60025e-19)
(-0.000695006 -0.00122216 -1.1295e-17)
(0.000173222 2.39467e-05 -8.06073e-19)
(-0.000268996 0.00218014 -1.2742e-18)
(-2.70018e-06 -2.90078e-05 -2.32305e-18)
(-0.0233928 0.0283713 3.32987e-17)
(-0.000843857 -0.000728678 6.96274e-18)
(-0.00143758 0.00134793 -1.72683e-19)
(0.0380113 0.0308507 1.81982e-17)
(-0.000674543 -9.46133e-05 -2.85441e-18)
(-0.00316329 -0.000836426 8.5711e-18)
(-0.00192567 -0.00141427 9.32282e-18)
(0.0379808 0.03444 -2.19484e-17)
(0.00133161 0.000619699 2.04942e-18)
(-0.00245369 -0.00229193 8.19622e-18)
(-0.00934664 -0.00115025 -1.53771e-18)
(-0.00643485 0.00215164 -1.30113e-18)
(-0.00226457 0.00214241 4.80561e-20)
(-0.00031577 -0.000189264 1.54442e-18)
(-0.065506 0.0250145 -2.92091e-17)
(-0.0123041 0.00608196 2.80171e-17)
(0.00166609 0.00153897 -4.95935e-19)
(-0.008896 0.00254537 1.31052e-17)
(-0.000268293 7.34612e-05 2.14088e-18)
(-0.000269727 5.25375e-05 3.93173e-18)
(-0.000264891 8.38528e-05 -2.30278e-18)
(-0.0031758 -0.000957267 1.37837e-17)
(-0.0339749 0.00305674 -1.68921e-18)
(0.00550428 9.51895e-05 4.68356e-18)
(-7.97664e-06 -8.93906e-05 2.92832e-18)
(-0.00155922 -0.00172017 -9.90253e-18)
(-6.13951e-08 -6.7838e-06 -1.70737e-19)
(-3.24769e-06 -8.1506e-05 1.07985e-17)
(-0.00406814 -0.00954721 1.23228e-17)
(-0.000331548 -0.000161656 -1.41555e-18)
(0.000326673 0.000480921 -6.15277e-20)
(0.00456859 -0.00312028 6.24862e-18)
(-0.000146038 6.3994e-05 -1.02112e-18)
(-0.135908 0.0530498 -2.57446e-17)
(-0.0226229 0.0285171 2.02916e-18)
(-0.00222102 -0.00472232 6.64164e-18)
(-0.196306 0.141168 5.00122e-18)
(0.0195397 0.00754073 -2.3089e-17)
(-0.00472555 0.000152371 -1.3585e-18)
(-0.00598863 -0.00980199 -7.75354e-18)
(-4.9882e-05 -0.000591464 -1.5336e-19)
(0.0218184 0.0104514 -7.31209e-18)
(2.61022e-08 -2.60408e-05 -1.992e-18)
(-0.00127002 -0.00133659 -1.24633e-18)
(0.0557236 0.0630589 -1.58078e-17)
(-0.000187557 -0.000250195 1.3741e-19)
(-0.00291862 -0.00111004 -5.0381e-18)
(-0.000357499 -0.0169995 7.92104e-18)
(0.000133854 1.7084e-05 3.07843e-19)
(-0.0001474 0.000104397 1.14294e-18)
(-0.00250849 -0.00673838 2.34462e-17)
(-0.00549275 -0.0153886 -2.35469e-19)
(-0.00126845 0.00134947 -7.14266e-19)
(0.000483925 -0.000145066 6.86486e-19)
(0.00186254 -0.0020943 -7.03779e-17)
(-0.0179987 0.00455753 3.93907e-19)
(-0.00030148 1.82326e-05 1.09348e-19)
(-0.00295178 -0.00805993 -6.62551e-19)
(-0.013567 0.00602572 1.14223e-17)
(-0.000307926 9.07377e-05 2.5724e-18)
(-4.23841e-06 -5.97537e-05 -3.04125e-18)
(0.000114953 0.000483802 -5.06854e-19)
(-0.000532257 -0.000197833 1.6126e-18)
(0.000172235 1.99269e-06 -4.4012e-19)
(-3.5729e-05 0.000432194 2.03863e-18)
(-0.0834031 0.0216677 6.0385e-17)
(-0.0710663 0.0467915 2.19902e-17)
(-0.00131734 -0.00134425 -5.71722e-18)
(-0.0395435 0.00429653 4.45867e-17)
(0.000159238 2.92016e-05 3.0562e-19)
(-0.000613585 -0.000402917 2.53403e-18)
(-0.0272308 -0.00289098 2.82958e-18)
(0.00128157 0.00121983 -1.27686e-19)
(-0.120186 0.0497658 3.4523e-17)
(-0.0072515 0.0150014 2.72143e-19)
(-0.00178423 -0.00152288 6.53986e-18)
(0.000417352 0.0003205 1.63411e-19)
(0.00046381 -0.000123577 8.76044e-20)
(-0.0129402 -0.00723123 8.72111e-18)
(0.00311814 -0.000208625 5.57296e-18)
(-0.00472749 -8.51382e-05 -1.59267e-18)
(-0.00188319 -0.000311733 7.67994e-19)
(0.0227296 0.000127773 -1.78039e-17)
(-0.000479823 -0.00212108 -1.32188e-17)
(-0.0216732 0.00896831 -5.92209e-18)
(-0.00205514 -0.00171627 8.19409e-18)
(-0.000212972 0.000110976 -2.98985e-18)
(-0.000665501 -0.000196509 1.01246e-18)
(-0.0201156 -0.00828056 -4.34451e-17)
(-0.000218645 9.2575e-05 -1.8331e-18)
(-0.000915897 -0.00332817 9.02893e-19)
(-0.000751255 -0.00039263 -9.56862e-18)
(0.00125429 0.000612271 -5.99212e-19)
(0.000125413 0.00397525 -3.7919e-17)
(0.000601279 0.00545635 -6.03582e-20)
(-0.000221128 -0.000314876 1.15406e-17)
(-6.25715e-06 1.39711e-05 -7.99484e-19)
(0.00438742 -0.000882203 3.73759e-17)
(-0.000494737 -0.000185084 -5.78986e-18)
(0.0004078 0.00567406 1.25582e-18)
(-0.00252821 0.00148333 -1.43306e-18)
(-0.000171655 0.000356014 -2.95215e-18)
(-0.0436301 0.00695887 -4.51199e-17)
(-0.192679 0.125776 3.01348e-18)
(-0.000152465 0.000104628 2.13043e-19)
(-0.000625212 -0.00171376 7.58917e-18)
(0.00570032 0.000425394 2.18687e-18)
(0.000135753 5.92152e-05 -1.54649e-19)
(-0.000252798 -0.000106741 -1.27021e-18)
(-5.72209e-05 -0.000242298 -9.3982e-19)
(0.00505833 -0.00115411 -3.11692e-18)
(-4.78496e-05 -0.000278764 1.01994e-18)
(0.000162528 1.411e-05 -1.53098e-19)
(-0.00437248 -0.00151285 7.03798e-18)
(-0.0384032 0.0520895 2.46286e-17)
(-0.0115686 0.00905541 1.08405e-17)
(-2.37844e-06 -3.24715e-05 -5.45697e-19)
(-0.00567331 0.00377853 8.60952e-19)
(-0.0308764 0.00976475 -7.11198e-17)
(0.0105118 0.00944439 -6.77686e-19)
(-8.14135e-05 -0.000370227 -4.02169e-18)
(-0.000300067 -0.000165109 -5.96851e-18)
(-0.0178147 0.0293039 -1.97082e-17)
(0.00159998 0.0014769 2.60862e-19)
(-0.000205466 0.000105184 1.89682e-18)
(-0.00252052 -0.0037511 8.97515e-18)
(0.000465027 0.00113979 -3.63572e-19)
(-3.59795e-05 0.000400422 -1.89279e-18)
(-0.000818525 -0.00229476 3.66297e-18)
(0.000170251 0.00021605 2.77473e-19)
(-0.0062031 -0.00318046 -2.34723e-17)
(-0.000398031 -0.000281063 7.42922e-18)
(-0.000224259 8.50975e-05 -1.9297e-19)
(0.0241008 0.000226323 -3.73125e-17)
(-6.94386e-05 3.4636e-05 2.43139e-18)
(0.00271747 -0.000364483 -2.26131e-18)
(-0.000184246 -0.000229959 -4.77884e-18)
(-0.00180976 -0.000267545 1.44503e-19)
(-0.00641897 0.00278195 1.62638e-18)
(-0.000147699 0.000107595 1.29286e-18)
(0.000671202 0.00112566 -2.92225e-19)
(-0.0405507 0.00178416 2.37795e-17)
(-0.00206296 -3.48471e-05 7.75818e-19)
(-0.105251 0.0107602 -9.69772e-18)
(0.00100969 0.00304661 -1.00434e-18)
(-4.40943e-08 -1.16979e-05 5.33063e-18)
(-5.06683e-07 -1.00457e-05 -5.37963e-19)
(-0.0189128 0.00206259 -4.26728e-17)
(-0.000682943 -0.000716831 -4.29072e-18)
(-0.000211667 -0.000304098 -7.12457e-18)
(-0.000113619 -2.20562e-06 -1.99357e-18)
(0.00194577 0.00143993 -1.50902e-18)
(-0.00366207 -0.00238067 5.84868e-18)
(-0.158013 0.043197 -3.79496e-17)
(-0.000494803 -0.000200715 3.62393e-18)
(-0.00595415 -0.00328835 1.55017e-17)
(-0.00334925 -0.0149499 1.00418e-17)
(0.0112091 0.00893971 1.14102e-17)
(-3.73455e-06 -5.36905e-05 8.28022e-19)
(-0.000154315 -0.000219455 -9.06081e-18)
(0.00177007 0.000305896 2.30936e-18)
(-3.73387e-05 -0.00023937 -2.27747e-19)
(-0.000520945 -0.00015836 -2.17963e-18)
(-0.00488399 -0.0444632 4.1106e-17)
(0.00520792 -0.00213749 1.36876e-16)
(-0.000175645 -0.000278504 4.24427e-18)
(-0.00155995 0.00654544 -7.06403e-18)
(0.00783383 0.00464098 -5.36948e-18)
(0.00753677 0.00445367 3.69781e-18)
(-0.000324308 -0.00149616 -5.47971e-19)
(1.467e-05 3.23647e-05 -1.01596e-18)
(-0.00918753 0.0497625 -3.07079e-17)
(-0.0132831 -0.00672902 3.53391e-18)
(-0.0041992 -0.0148414 -4.1764e-18)
(0.000384802 0.000321524 -6.24722e-20)
(0.00184188 0.000424996 -1.62152e-18)
(0.00120498 0.00119626 -8.46279e-20)
(-0.000153003 6.97879e-05 8.29042e-19)
(0.0161585 0.000843091 -5.79715e-18)
(-0.0066942 0.00414266 -4.14938e-18)
(0.00183167 0.00155856 7.88728e-19)
(-0.000536173 0.000973096 -5.30283e-19)
(-1.88165e-05 1.48738e-05 4.82487e-18)
(-0.000271337 -0.00136581 -7.63345e-18)
(-0.00890208 0.0495546 -3.01463e-17)
(0.000916282 0.00555805 1.08199e-17)
(-4.74842e-05 -0.000652339 -1.52663e-18)
(0.00563468 -0.000848776 7.47256e-17)
(-0.00569177 -0.0142986 6.2077e-20)
(-0.0111173 -0.0120373 5.435e-18)
(-0.0104078 -0.00101888 3.98368e-18)
(-0.000245734 -0.000141103 -2.73916e-18)
(-0.000165044 0.00111332 -1.1842e-19)
(0.0284218 0.00634104 5.33777e-18)
(-0.0110015 0.00625656 -1.19428e-17)
(0.000633582 -0.0239981 1.26257e-17)
(0.0254232 0.00936979 6.77654e-17)
(-0.00219825 -0.00234732 3.46953e-17)
(-0.000858513 -0.00340886 -7.30216e-18)
(-2.88407e-05 -0.000175733 -6.79757e-19)
(-0.000497641 0.00358442 -1.20261e-18)
(-0.000675184 -0.00168543 -7.53125e-18)
(-3.48626e-05 -0.000197689 6.48113e-19)
(0.0241185 0.00191233 -1.77574e-17)
(6.18052e-05 4.09798e-05 -8.41884e-19)
(-0.00053754 -0.000154701 -7.42989e-18)
(0.0102867 0.0197918 3.24007e-18)
(-3.13804e-05 -0.000224855 1.96243e-18)
(0.0169985 0.0650172 4.58761e-19)
(0.000968164 0.00287065 -5.9896e-18)
(-0.00358183 0.0376527 2.64467e-18)
(-0.00530799 0.000703525 -1.47295e-18)
(-1.46719e-05 -0.000203782 -5.28733e-18)
(0.00290092 0.00205862 7.09833e-20)
(-0.00188277 0.0052786 1.7326e-18)
(0.0189085 -0.000559339 -2.24743e-18)
(-0.0104246 -0.000690092 6.68751e-19)
(-0.00876063 -0.00685952 -2.98846e-18)
(2.67797e-06 -4.71472e-05 8.92421e-19)
(0.0230255 0.00746053 -9.43564e-18)
(-0.00187992 0.00203274 -1.79869e-19)
(-0.000835861 0.000544409 2.92964e-18)
(-0.000100142 -0.000192008 -2.48675e-18)
(-0.000376914 0.00223863 1.16454e-18)
(-4.64433e-05 -0.000428957 -1.15553e-18)
(-0.00230214 -0.00238911 -1.04669e-17)
(-0.0113113 0.00948189 -8.38769e-18)
(-0.00342779 -0.0056494 6.73554e-18)
(-3.54953e-05 -0.000653307 -8.54669e-18)
(-0.00214083 -6.65002e-05 -1.94897e-18)
(-0.000111194 1.03822e-06 6.93278e-19)
(-0.000316248 -0.00037819 -9.71414e-18)
(-0.00565241 -0.00955077 -1.17814e-17)
(-0.000131321 8.86539e-05 -1.09076e-19)
(-0.00258994 0.00121534 1.15738e-19)
(0.000814803 0.0505157 9.29453e-19)
(0.000157517 0.000204421 -4.62647e-19)
(-0.0113207 0.00580313 1.54197e-17)
(0.037891 0.0109007 7.26314e-18)
(-0.000148769 -0.000406356 -4.13837e-18)
(0.00674682 -0.00180763 2.84087e-17)
(0.00193465 0.0137676 -4.46672e-18)
(-3.0292e-05 -0.000260753 -1.88602e-18)
(-0.0234949 0.0210491 -2.15905e-17)
(0.000905245 0.00143785 -5.85751e-19)
(-2.59378e-06 -3.5883e-05 -1.22732e-18)
(-0.000479544 -0.00121645 -1.97905e-18)
(-0.000134336 -0.000223517 -3.53471e-18)
(5.37918e-07 -1.79067e-05 7.13866e-18)
(-0.00133482 0.00368848 8.87332e-19)
(-0.000247744 -0.00141781 9.27786e-18)
(-0.00649673 -0.0137689 -1.88472e-18)
(-0.00208343 -0.000811459 5.02021e-18)
(-0.000164819 -0.000209592 1.10431e-17)
(-0.00114374 0.00152736 -2.63244e-19)
(-0.00659619 0.00299456 -4.31109e-18)
(0.000338742 0.00975755 -8.1894e-18)
(-8.23326e-05 -0.000239801 -1.00802e-17)
(0.00405867 0.00273896 -1.16444e-18)
(-0.000199084 0.00106215 -2.3757e-19)
(0.0070353 0.00871484 -2.13262e-18)
(-0.000250831 -0.00102867 -4.07378e-18)
(-0.00537388 0.000419784 3.04667e-18)
(0.000355623 0.000502387 -2.14281e-20)
(-0.000517597 -0.0024786 -6.71064e-18)
(0.000446331 -4.43064e-05 2.23081e-22)
(-0.000265838 9.8939e-05 -4.49749e-18)
(-0.0524805 0.00454015 9.76613e-18)
(9.97728e-05 0.000483848 1.65093e-20)
(-0.00557097 -0.00921568 4.60548e-17)
(-7.38281e-05 -0.000236068 1.52689e-18)
(0.00247972 0.0016144 2.4231e-18)
(-6.1124e-05 4.1372e-05 1.41355e-18)
(0.00302239 0.00998052 -3.68533e-18)
(-0.000172562 -0.000257544 -7.24826e-19)
(0.00133493 0.0143333 1.9855e-17)
(-0.000989031 0.00116978 -1.15812e-18)
(-0.0226898 0.0205565 -2.03655e-17)
(-4.69818e-06 -0.000110859 -7.38553e-18)
(-0.185576 0.068883 4.32205e-17)
(0.000462502 -0.000271159 3.25253e-22)
(-0.00229132 -0.00145232 -3.90063e-18)
(4.03231e-07 -9.77806e-05 -6.11192e-18)
(-0.000333399 -0.00131444 9.04458e-18)
(-0.000263441 5.96012e-05 -2.77741e-18)
(-0.00144295 0.00360971 -4.62828e-19)
(-6.87109e-05 -0.000423762 -2.13681e-18)
(-0.00304858 -0.0093693 5.38325e-19)
(0.0113915 0.00472821 -2.21038e-17)
(0.0194927 0.0652398 6.27481e-18)
(0.0018477 0.00381504 -4.26051e-18)
(-0.00548804 -0.00344991 -2.5119e-17)
(-0.000629572 -5.05322e-06 -1.95985e-18)
(-0.00671469 -0.00255452 -3.23612e-18)
(0.00814867 0.0212274 -7.69946e-18)
(-0.000174922 -2.01908e-05 4.86437e-18)
(-0.00256692 -0.0035699 1.74112e-17)
(-0.00875938 -0.00735508 -2.25435e-18)
(-0.00285696 -0.0238605 6.45835e-18)
(0.0388563 0.00870456 -9.05314e-18)
(-0.0118524 -0.00660759 -5.05095e-17)
(-0.00205173 0.00556841 -1.48188e-18)
(-0.00152994 -0.000254817 -2.34394e-18)
(-1.68601e-05 -0.000148051 -4.45667e-18)
(0.00403196 0.00349957 -5.21787e-18)
(-0.00106516 0.00387493 1.8624e-18)
(0.0170263 -0.000155629 -2.01945e-18)
(7.35533e-05 0.000187192 4.46675e-19)
(-0.00204751 0.00243451 -4.53191e-19)
(-0.0142696 0.0222308 1.91624e-17)
(-2.25113e-06 -1.09771e-05 4.35368e-18)
(-0.000296272 -0.000370361 -1.91106e-19)
(0.00437053 0.00289997 3.75145e-18)
(-0.0161919 -0.00735888 -8.17276e-17)
(-0.00222513 -0.00137283 4.37679e-18)
(-0.00535411 0.0036764 1.6431e-18)
(0.0295847 0.0043466 -8.34229e-18)
(-1.03411e-05 -0.00016967 4.64016e-18)
(-0.149677 0.0410094 1.18671e-17)
(5.21316e-05 0.000201841 1.58431e-19)
(-0.000323676 -1.36335e-06 3.64097e-18)
(-0.00191212 0.000230718 -1.92811e-18)
(0.000424547 0.00118424 7.18999e-19)
(0.0117535 -0.00213364 1.21711e-16)
(0.0113525 0.0242139 1.76811e-18)
(-0.00537351 -0.0105632 1.1522e-17)
(-9.67408e-05 -1.56379e-05 -1.21989e-18)
(-0.0208031 -0.0103132 2.21127e-17)
(0.0149001 -0.000501254 1.72935e-17)
(-0.0238069 0.0297409 -1.56707e-17)
(0.0162914 0.000496151 -3.24827e-18)
(0.0067392 0.0243147 3.31979e-18)
(-0.0181835 0.0219934 -1.78713e-17)
(-0.00769359 -0.00168152 -2.62099e-18)
(-0.000621655 -0.00119068 -6.75958e-19)
(-0.000786094 -0.000427484 6.48003e-18)
(-0.00265968 -0.00386011 -2.23447e-17)
(0.0175315 -0.00154706 -5.1541e-18)
(-0.000623659 6.54917e-05 2.00624e-18)
(-0.00452156 -0.00168469 -7.8927e-18)
(-0.0735988 -0.00217346 1.22376e-17)
(-0.000429716 -0.000323298 5.87392e-18)
(-0.000270434 0.000103702 -7.00227e-18)
(-0.000888917 0.000536994 -1.57902e-18)
(-0.00232538 -0.000572519 3.46823e-18)
(-0.000266143 5.25477e-05 -4.58811e-18)
(0.00148825 0.000521856 -1.59437e-18)
(-0.0182787 0.00146334 -1.20386e-17)
(-0.0329 0.0114955 4.29519e-17)
(0.00141513 0.000508981 -3.46161e-19)
(-0.000244684 -5.17377e-05 -1.41313e-18)
(0.0177135 -0.00284329 6.36476e-17)
(-0.0921366 -0.00363921 1.76409e-17)
(-0.000654603 -4.13327e-05 1.24517e-18)
(-7.6811e-05 -0.000325601 3.35356e-18)
(-4.08751e-05 -4.98099e-05 -4.12711e-18)
(-0.000526555 -0.000204286 -2.76352e-18)
(-0.0275013 -0.0043447 5.18887e-18)
(0.0130659 0.0241051 -3.48134e-18)
(-0.0115269 -0.0107484 2.49428e-18)
(-0.00202139 -0.000730379 -4.74042e-18)
(-0.000279929 9.72427e-05 6.115e-18)
(0.000701977 0.000856008 6.51943e-19)
(-0.000391878 -0.0023798 -1.05682e-17)
(-0.000168061 -0.000460215 -3.79471e-19)
(0.00469252 0.00950027 5.00605e-18)
(-0.00148542 -0.00166542 1.08757e-17)
(-0.0290902 0.000672808 6.35507e-17)
(-0.000250479 -0.000126051 2.27978e-18)
(-0.000136716 -0.000140679 3.2781e-18)
(-0.00857921 0.000287919 -3.27978e-18)
(-0.000594805 5.70956e-05 -1.07861e-19)
(0.0130053 0.00430677 1.2198e-17)
(-0.00644558 -0.00686969 -2.01451e-17)
(0.00270525 0.00195135 -3.58375e-18)
(0.00832107 -0.00269155 2.0459e-17)
(-0.00559761 -0.0166826 -2.65433e-17)
(-0.0015377 -0.000331931 2.04429e-18)
(-0.000545469 -0.000164841 -2.187e-19)
(-0.0908236 0.0145065 -1.25454e-17)
(0.0227451 -0.00108936 4.30665e-17)
(-0.00640757 -0.0017488 -2.72791e-18)
(0.000898591 0.00139991 -6.26944e-19)
(-0.0480839 0.0392058 -9.39439e-18)
(-0.00519244 -0.0103562 1.38193e-17)
(-0.00116161 -0.00326469 4.35455e-17)
(-0.000584364 -0.00113237 -1.35501e-18)
(-0.000106096 8.88906e-06 -1.11488e-18)
(-0.000138177 9.49243e-05 -1.40416e-18)
(-0.0135775 -0.0106877 -7.58931e-18)
(0.00171164 0.00376169 4.76599e-19)
(-0.00493737 -0.00880397 -9.40454e-18)
(-2.9086e-06 -4.00694e-05 -7.52516e-19)
(0.0355002 -0.010617 7.34425e-17)
(-0.0317614 0.00441982 -4.08265e-18)
(-0.000139079 -0.000222882 -7.86974e-18)
(-0.000254327 -0.000134887 3.83585e-18)
(-0.00285284 -0.00912591 -4.38391e-17)
(-7.51944e-05 -0.000590029 -3.00818e-18)
(-6.14081e-05 4.24724e-05 -4.87595e-19)
(-0.00366992 4.87098e-05 5.32564e-18)
(0.0143734 -0.00209224 5.95176e-17)
(-0.0139851 -0.0274363 4.43405e-18)
(-0.0548169 0.00726248 -5.99719e-18)
(0.00251996 -0.000262602 5.05576e-19)
(0.00192421 0.0204386 -1.37201e-17)
(-0.00742421 -0.00143582 2.45162e-19)
(1.76678e-05 0.000132522 -1.36165e-18)
(-1.36478e-05 1.14308e-05 -5.5762e-18)
(-2.56904e-05 -0.000471307 3.08393e-18)
(-0.0141525 -0.0100434 -1.36633e-17)
(-2.76998e-05 -0.000146483 1.78424e-18)
(-0.000181958 -0.00020335 -2.18005e-18)
(0.00277746 0.0204442 1.82758e-17)
(-0.000422897 -0.00144353 -9.43676e-18)
(-0.0126311 0.00793837 -7.09064e-18)
(-6.94731e-05 -5.08039e-05 1.50677e-18)
(-8.62865e-05 -0.000630909 -7.07966e-18)
(-9.63124e-06 1.75386e-05 -1.85604e-18)
(-3.159e-05 -0.000637385 -5.57319e-20)