/*--------------------------------*- C++ -*----------------------------------*\
| =========                 |                                                 |
| \\      /  F ield         | OpenFOAM: The Open Source CFD Toolbox           |
|  \\    /   O peration     | Version:  v2012                                 |
|   \\  /    A nd           | Website:  www.openfoam.com                      |
|    \\/     M anipulation  |                                                 |
\*---------------------------------------------------------------------------*/
FoamFile
{
    version     2.0;
    format      ascii;
    class       volScalarField;
    location    "650";
    object      k_0;
}
// * * * * * * * * * * * * * * * * * * * * * * * * * * * * * * * * * * * * * //

dimensions      [0 2 -2 0 0 0 0];


internalField   nonuniform List<scalar> 
10042
(
0.00014726
0.000148188
0.000147699
0.000157869
0.078238
0.000148342
0.0808007
0.00119304
0.000146874
0.000147892
0.0316965
0.000157686
0.000144559
0.000144299
0.000151188
0.000148058
0.000147996
0.000149697
0.000147282
0.000170375
0.000147133
0.000222164
0.000145358
0.0001452
0.00014824
0.000158876
0.000148787
0.000149856
0.000146949
0.000149154
0.000147986
0.00711733
0.00014797
0.000148842
0.000155056
0.000145286
0.00015793
0.000163434
0.000145289
0.000157107
0.000171364
0.00015063
0.0825876
0.000148086
0.0778176
0.000177397
0.000149066
0.000192106
0.000156706
0.000176447
0.000149028
0.000149473
0.000150649
0.000151201
0.000157947
0.000148289
0.000146964
0.000148979
0.000148809
0.00015034
0.000148155
0.000147851
0.000155254
0.000147605
0.000148848
0.00014883
0.000148251
0.000165182
0.0624666
0.000147506
0.000151086
0.00017269
0.000148111
0.000157053
0.000148152
0.00014519
0.0833418
0.000147335
0.000156284
0.0851762
0.000155994
0.0650419
0.000148029
0.000150016
0.000148267
0.000149373
0.000147171
0.000181425
0.000147819
0.00014716
0.000148585
0.0610637
0.000150003
0.000149223
0.000149051
0.000147417
0.000147365
0.000147365
0.000156481
0.000146999
0.000149933
0.000176759
0.00564479
0.000149291
0.000149617
0.000164321
0.000147313
0.000147324
0.000147192
0.000144259
0.000145841
0.000147031
0.000154132
0.0552546
0.000148815
0.00014705
0.000147526
0.000147309
0.000147378
0.037633
0.000147776
0.000507459
0.000148195
0.000147753
0.000176816
0.000148033
0.000594358
0.000157181
0.000164023
0.000147125
0.000156736
0.000148129
0.0383926
0.000201813
0.000146997
0.00016759
0.0255569
0.00014863
0.000192859
0.000183271
0.000149866
0.000147514
0.000149371
0.000185651
0.000148068
0.00014702
0.000168525
0.000145228
0.000147444
0.000153437
0.000147076
0.000149676
0.0687494
0.0403249
0.00014917
0.000144517
0.00014961
0.000147793
0.000167522
0.0149933
0.0277504
0.000188435
0.000147755
0.000147048
0.000148247
0.000148056
0.000164654
0.0170034
0.00668286
0.045013
0.000150195
0.000146761
0.0417523
0.000172879
0.000159564
0.079133
0.0258284
0.000148146
0.000166449
0.000159119
0.000149874
0.010477
0.000148451
0.000157005
0.000150431
0.0398639
0.000206208
0.000148269
0.0334086
0.000152102
0.000304813
0.00014939
0.0687765
0.0113055
0.000185613
0.00106761
0.000154648
0.000147359
0.000144543
0.00015111
0.000159044
0.000148352
0.000147005
0.000173459
0.000148384
0.000145889
0.000357253
0.000148965
0.000149711
0.000149583
0.000323389
0.000148199
0.000163854
0.000186903
0.000149558
0.000207335
0.000147929
0.000147748
0.000171421
0.000146389
0.000154288
0.000149855
0.000196312
0.000164372
0.000153226
0.000159879
0.000201248
0.000147034
0.000193023
0.000151633
0.000146903
0.000171316
0.00014681
0.000151576
0.000147842
0.000153695
0.000146089
0.000144269
0.000151291
0.000156707
0.000147805
0.000148226
0.0001481
0.00015419
0.000147013
0.000148042
0.000145268
0.000149767
0.000150645
0.000149772
0.000144567
0.000147429
0.00015214
0.000205472
0.000188511
0.0264417
0.000159724
0.000159517
0.000151401
0.000179368
0.0632904
0.000150854
0.000147325
0.000144431
0.000151004
0.000146055
0.000212546
0.000151755
0.000147149
0.000149638
0.000159595
0.000150776
0.000185214
0.00015962
0.000186466
0.000152193
0.000156664
0.000146041
0.000154634
0.000148168
0.000159736
0.000147626
0.000158902
0.0432043
0.000145877
0.0001474
0.0622432
0.000177512
0.000148128
0.000148147
0.000151852
0.0799731
0.000171472
0.000186749
0.000149136
0.000144523
0.000147058
0.000146968
0.000209147
0.000147313
0.000148111
0.000146775
0.000147931
0.00016462
0.000151484
0.000169413
0.0959999
0.000150041
0.0451885
0.000146968
0.000154317
0.000148726
0.0161791
0.000177507
9.50428e-05
0.0215955
0.000145101
0.000151811
0.000147538
0.000151749
0.000159893
0.000149575
0.000159396
0.000145792
0.000144548
0.000148178
0.000170509
0.000149883
0.000151583
0.000147965
0.00015128
0.0395496
0.000147003
0.000149102
0.000147739
0.000147466
0.000163228
0.000185991
0.000159485
0.00132844
0.000164876
0.000156076
0.000148039
0.000144162
0.00014887
0.000149766
0.000194912
0.000147643
0.000148851
0.000200702
0.00014703
0.000152567
0.00015022
0.000201227
0.000147834
0.00015301
0.000163373
0.000159156
0.000151039
0.000147406
0.00874894
0.000168786
0.000149218
0.000162948
0.000147456
0.000146827
0.000147439
0.000152563
0.000310962
0.000153988
0.00014963
0.000149957
0.000149943
0.000149787
0.00017039
0.000147385
0.000145541
0.0288611
0.000146697
0.0230756
0.00012694
0.000157353
0.084017
0.0227824
0.000155568
0.000171692
0.000148977
0.000177039
0.000149937
0.000148834
0.000229297
0.000148304
0.000152098
0.000768108
0.000148983
0.000147146
0.000161841
0.000273796
0.000148665
0.000145147
0.00776279
0.000177469
0.000146748
0.000165137
0.00524425
0.000146389
0.000149738
0.00014556
0.00014706
0.000144318
0.000145793
0.0235898
0.00857716
0.000148928
0.0861048
0.000144322
0.000147286
0.000236751
0.000148378
0.0241274
0.000172821
0.000150029
0.000145359
0.000145044
0.000174826
0.00015047
0.000155655
0.000149148
0.0354221
0.000149324
0.0023849
0.000150871
0.000147362
0.000147069
0.000226786
0.000147474
0.000153368
0.000147319
0.000147729
0.0119538
0.000154715
0.000147465
0.00014636
0.0114254
0.000147089
0.000155058
0.000150939
0.000146077
0.0711451
0.083758
0.000147001
0.000148657
0.000154245
0.000144556
0.00014789
0.000147693
0.0153936
0.000147833
0.000146858
0.000155808
0.00295329
0.000170145
0.00014977
0.000158868
0.00736895
0.000166333
0.000147539
0.000147433
0.000201866
0.000148992
0.000147407
0.000155859
0.00014713
0.00014579
0.000150112
0.000144868
0.000159939
0.000147308
0.000147504
0.0258208
0.000146168
0.000149992
0.000148317
0.000148994
0.000159489
0.000147029
0.000147348
0.000148659
0.000149422
0.0869117
0.000150752
0.000149868
0.000149831
0.000179767
0.000147553
0.000147502
0.000147917
0.000149494
0.00015513
0.0830343
0.000147112
0.000159878
0.000375183
0.000166219
0.000149716
0.0001476
0.000148528
0.000149297
0.000146995
0.0327675
0.0217067
0.000148374
0.000157223
0.00015934
0.000158736
0.000148185
0.000145477
0.000116514
0.000174312
0.000315177
0.000145282
0.000148705
0.000148217
0.000146732
0.065463
0.000160777
0.000149497
0.000147293
0.000146789
0.000148055
3.23514e-05
0.000154757
0.000148839
0.0112467
0.000229147
0.000191138
0.000164799
0.000147945
0.000147034
0.00018147
0.000167366
0.0501327
0.0250923
0.000152522
0.00015362
0.00014935
0.000151481
0.000148665
0.000149273
0.0296273
0.000145205
0.000146968
0.000176929
0.000149349
0.000193299
0.000150377
0.000195194
0.000156758
0.000149597
0.000151438
0.000155125
0.000169568
0.000164862
0.000167761
0.00014987
0.00017648
0.000150263
0.000147401
0.000148686
0.000148946
0.000148091
0.000152785
0.000170238
0.000160031
0.000148862
0.000149579
0.000147886
0.000147412
0.000170976
0.000147321
0.000150862
0.000216188
0.000144874
0.000167465
0.000190731
0.000148126
0.035656
0.000168169
0.000149346
0.0002088
0.000148096
0.000149771
0.000147922
0.000147724
0.000149944
0.000152145
0.000148086
0.000215575
0.000149847
0.000147625
0.000148651
0.000159699
0.000162272
0.000147725
0.00015345
0.000147033
0.000162663
0.000147756
0.000156824
0.000145618
0.000150249
0.000144974
0.000147342
0.0951314
0.000145603
0.000169793
0.000147665
0.000150442
0.000146044
0.0001626
0.000148378
0.000168905
0.000148099
0.000203123
0.000149724
0.0725583
0.000145206
0.000151049
0.000149792
0.000148007
0.000147536
0.00015206
0.000148088
0.000169974
0.0117895
0.000204421
0.000152489
0.000159275
0.000146971
0.00016024
0.000177428
0.000147914
0.000155648
0.00016806
0.0529229
0.000191246
0.00373019
0.000155952
0.000148463
0.0001495
0.000154174
0.000152177
0.000167068
0.000145115
0.000151088
0.000185868
0.000149742
0.000147413
0.000154009
0.0860854
0.000150837
0.000158287
0.000181355
0.000149646
0.0852232
0.000145242
0.000146705
0.000149196
0.000147171
0.0185697
0.000181302
0.0772691
0.000148231
0.0006222
0.0309632
0.000187152
0.00016676
0.000179944
0.000192971
0.000161256
0.000147961
0.000147359
0.000156265
0.0175308
0.000146936
0.00015625
0.0866656
0.000147303
0.000147178
0.000147466
0.000150178
0.000147479
0.00014806
0.000178967
0.0126396
0.000147934
0.000147823
0.0367586
0.0639076
0.000147009
0.000147547
0.000148944
0.000147078
0.000240154
0.000181319
0.000183057
0.000149639
0.000147139
0.000146977
0.000149922
0.000148218
0.000162409
0.000149654
0.0977707
0.000147875
0.000148373
0.000162106
0.000146873
0.000164455
0.000164729
0.000151014
0.00568901
0.0666777
0.000148491
0.000146993
0.0685532
0.0250119
0.000159433
0.000147984
0.00144172
0.000174435
0.000153284
0.000147881
0.000147789
0.000147274
0.000189937
0.000152408
0.00016793
0.000149771
0.0443338
0.000292647
0.000147617
0.000147753
0.000169367
0.000148919
0.000146026
0.000153019
0.0565747
0.0509082
0.0853162
0.000149621
0.000175798
0.000160835
0.000145372
0.000147589
0.000149228
0.000188572
0.000149317
0.000147589
0.000175847
0.000148144
0.000170825
0.000148629
0.000148607
0.000145733
0.000148921
0.00019975
0.000149266
0.000147386
0.000167158
0.000163761
0.000186843
0.000149347
0.000178083
0.0602382
0.0877465
0.00015022
0.0170972
0.0147138
0.000147303
0.000144641
0.000149711
0.000150728
0.0434262
0.000151051
0.000148714
0.000149318
0.0632392
0.000159959
0.000149427
0.000148855
0.000147527
0.000163516
0.000146119
0.000146808
0.000161747
0.000150012
0.000149304
0.000146837
0.000231454
0.000147386
0.000149892
0.000148051
0.000149082
0.000185029
0.000149297
0.000150367
0.000148351
0.000154013
0.000204042
0.000149941
0.000186313
0.000154288
0.0451188
0.000146035
0.000151144
0.000161438
0.000177822
0.000161904
0.00014963
0.00616522
0.0350311
0.000149418
0.00014701
0.000121196
0.000148405
0.000149644
0.000146133
0.000149576
0.000169736
0.000149948
0.000149949
0.000164678
0.000156227
0.000156565
0.000157034
0.000149853
0.089066
0.000151216
0.000210536
0.000147059
0.00017679
0.000159921
0.0738643
0.000152657
0.0600002
0.000149778
0.000155328
0.00014813
0.000148322
0.000147611
0.000194376
0.000159887
0.000175469
0.0219893
0.000148692
0.000165087
0.000155815
0.000146794
0.000156751
0.000159248
0.0632992
0.000147713
0.000155322
0.000162955
0.000150965
0.000160149
0.000149882
0.000144866
0.000149878
0.000184607
0.000148803
0.000147857
0.000146154
0.000145973
0.000147374
0.000147749
0.000148844
0.00014687
0.000148925
0.00014932
0.000153325
0.000156806
0.000147799
0.0483978
0.000147948
0.000547682
0.00015914
0.0462678
0.000162589
0.000155038
0.00857977
0.00016259
0.000186881
0.0882374
0.000163273
0.000149269
0.000146799
0.000150166
0.000185815
0.000147461
0.0533096
0.000147428
0.00601247
0.0765618
0.000180277
0.000150306
0.0340234
0.0417236
0.000150557
0.000147723
0.000149736
0.00015337
0.000144795
0.000145641
0.000166855
0.000227064
0.000148398
0.000147433
0.0001491
0.000227372
0.000182485
0.000148964
0.000153535
0.000179882
0.000149294
0.000148028
0.0486449
0.000148926
0.000147309
0.000506899
0.00015174
0.000147847
0.00524633
0.0859128
0.0432478
0.000147402
0.000150565
0.000244326
0.000146168
0.00014736
0.000149886
0.000160302
0.000148149
0.000148627
0.000152092
0.00016103
0.000175645
0.000146468
0.000147759
0.000148404
0.00014718
0.000149521
0.000145038
0.000189327
0.000156184
0.000147915
0.000147729
0.000146343
0.00014765
0.000149202
0.05874
0.000158586
0.000145113
0.000147378
0.000160031
0.0655054
0.000148144
0.0001477
0.000148049
0.000145076
0.0028802
0.000175327
0.000146655
0.000148305
0.000158408
0.000170799
0.000149051
0.000149874
0.000152811
0.00014797
0.000155574
0.00014914
0.0573417
0.000160798
0.000148338
0.000154582
0.0393692
0.000155477
0.00019907
0.000153332
0.000251568
0.000149788
0.000148841
0.000153872
0.000180821
0.000147442
0.000147446
0.00014959
0.000150228
0.000168892
0.000172753
0.00153503
0.000149948
0.00014777
0.000155755
0.000147979
0.000147968
0.0531652
0.000151403
0.000147924
0.000147748
0.000182206
0.000223386
0.000147759
0.000148279
0.000183278
0.000147115
0.00014858
0.000147525
0.000183134
0.000150609
0.000155551
0.00599211
0.000148862
0.000149046
0.0611826
0.000147163
0.000174618
0.000147162
0.000151121
0.000161814
0.000148052
0.000148476
0.000149135
0.000151443
0.0100295
0.00014734
0.000148803
0.000177204
0.000153424
0.000173131
0.0714641
0.000163487
0.000149362
0.000213675
0.000147532
0.0365489
0.000149044
0.00014806
0.000146664
0.0109935
0.000149363
0.000149083
0.000148984
0.000162762
0.0589363
0.000155964
0.000166632
0.000147626
0.000148805
0.000162921
0.000157297
0.000146712
0.00015375
0.000147298
0.0757205
0.0439081
0.000148839
0.000150176
0.00014944
0.00272506
0.000148969
0.00961802
0.000147729
0.000147241
0.000146656
0.000149248
0.00015207
0.000149792
0.00014777
0.000148084
0.00227923
0.000187872
0.000147355
0.000153162
0.000152822
0.000161322
0.000147367
0.000153482
0.000150178
0.000147933
0.0001506
0.000161417
0.000149855
0.000147209
0.000154393
0.000146744
0.000183596
0.000150582
0.000176146
0.000148494
0.000148106
0.000147593
0.000187091
0.00016161
0.000146341
0.000153293
0.000178477
0.00014929
0.000146384
0.000154109
0.000149448
0.0119007
0.000179256
0.000153086
0.02014
0.000150466
0.000163456
0.000180137
0.000160358
0.000164033
0.00905344
0.000160763
0.000194684
0.000148042
0.000150414
0.000147316
0.000147825
0.000155585
0.000146667
0.000175479
0.000148021
0.000148088
0.000168436
0.000147464
0.000174885
0.000155959
0.000153537
0.000147444
0.000160659
0.000234709
0.000143778
0.000160942
0.0585781
0.000160159
0.000146947
0.000160737
0.000147782
0.000146822
0.00955921
0.000146739
0.000146315
0.000169989
0.000147911
0.000156872
0.000146733
0.000147839
0.0846407
0.000147324
0.000145699
0.000152941
0.000147413
0.000145093
0.000149648
0.00713778
0.000148605
0.00014844
0.000145193
0.000184625
0.000149231
0.000152628
0.000147508
0.000159
0.000149746
0.000147481
0.000150158
0.000148558
0.000146293
0.000171921
0.000163557
0.000156962
0.000151006
0.000165264
0.000178626
0.000154735
0.000155182
0.000150196
0.0899525
0.000147759
0.000147923
0.000147279
0.000149549
0.000158999
0.000147106
0.0616296
0.0355737
0.0124197
0.000148438
0.000153004
0.000161176
0.000144784
0.000167163
0.00016318
0.00024503
0.000180795
0.0553739
0.000178398
0.000201357
0.0409181
0.000156066
0.000150798
0.00015351
0.000146769
0.0560031
0.000149589
0.000155885
0.000146598
0.000153123
0.000148156
0.041791
0.0651673
0.000149298
0.015089
0.000236011
0.000219
0.00016809
0.000171507
0.000145713
0.0606903
0.000147963
0.0482092
0.0310773
0.000149304
0.000147615
0.000147839
0.000150878
0.000154286
0.000162328
0.000199882
0.000148732
0.000148115
0.00015364
0.000149171
0.000148084
0.000154212
0.000146765
0.000148262
0.000233959
0.00017166
0.000148132
0.0831021
0.000150791
0.000149796
0.00015093
0.000209596
0.000147521
0.000146112
0.000184486
0.000185337
0.000147094
0.000153575
0.000282558
0.000170707
0.0473591
0.000146465
0.000203384
0.0671161
0.0907791
0.000148435
0.00014768
0.000178788
0.000154025
0.000162285
0.00014905
0.0742026
0.000169603
0.000196035
0.000148275
0.000147656
0.0155009
0.000229134
0.000148919
0.000149797
0.0503094
0.000147419
0.000145485
0.000147488
0.000151501
0.000149249
0.0001561
0.000148507
0.000152335
0.000145292
0.00016218
0.0159166
0.000167032
0.00016167
0.0257701
0.00017592
0.000145574
0.000146805
0.00014741
0.000149877
0.000182373
0.000156133
0.000148663
0.000148015
0.000147678
0.000145083
0.000157702
0.000145206
0.000162152
0.000152858
0.000148728
0.0712578
0.0355479
0.000148572
0.0943593
0.000158571
0.000160093
0.000149738
0.000145414
0.0230617
0.00017558
0.00014727
0.000146157
0.000147514
0.000155251
0.000149726
0.000202295
0.000144532
0.000148265
0.000148066
0.051484
0.0549596
0.000144864
0.0001481
0.000177282
0.00019511
0.000152383
0.0847237
0.0778944
0.000147332
0.000148851
0.000148574
0.000150402
0.0436745
0.000148105
0.000149886
0.000186281
0.000179265
0.00014936
0.000147565
0.000165024
0.000149881
0.000148375
0.000178216
0.000180918
0.0452116
0.000147705
0.000188144
0.000160332
0.00017532
0.000150471
0.000155306
0.000147396
0.000149229
0.000170471
0.000153822
0.000147811
0.000153052
0.0304475
0.000144769
0.000146846
0.000144742
0.000168714
0.000147449
0.000148451
0.000143912
0.000147444
0.000244637
0.0930038
0.000148815
0.0122449
0.0620048
0.0475729
0.000147399
0.000147818
0.00014671
0.000147249
0.000148676
0.000148918
0.000145267
0.000148424
0.000146308
0.000152094
0.0234633
0.000159854
0.000182288
0.000160284
0.000148056
0.000150628
0.000158835
0.000148703
0.000146875
0.00016171
0.000158525
0.00023582
0.000168425
0.000144714
0.0484133
0.00014988
0.000144416
0.000147378
0.000250424
0.00016822
0.000149923
0.000154089
0.000148357
0.000148518
0.000157515
0.000167853
0.000159109
0.0484854
0.000148441
0.000148043
0.000233861
0.000160656
0.00015324
0.000190392
0.000150921
0.000166652
0.000218499
0.000172742
0.0103767
0.000147237
0.000147163
0.000147398
0.000148183
0.000148516
0.000150684
0.000166594
0.000177752
0.0448862
0.000148364
0.0899563
0.0199774
0.000154055
0.000335336
0.000148816
0.000179791
0.0224519
0.000147193
0.000183429
0.000145409
0.000247439
0.000149255
0.000203738
0.000147018
0.000133626
0.000167949
0.0330111
0.000146795
0.00019811
0.000146276
0.000150963
0.000197124
0.000146742
0.0107245
0.0687543
0.000131383
0.0315768
0.000185484
0.0527352
0.000162684
0.000147965
0.000162693
0.000168314
0.0609385
0.000148393
0.000147951
0.000149863
0.000165981
0.000147858
0.000148848
0.000148792
0.0388233
0.0565384
0.000147636
0.057583
0.000164895
0.000145978
0.000161339
0.00015507
0.0636999
0.000157456
0.000146755
0.000196213
0.000148353
0.000147381
0.000148477
0.000182544
0.000174916
0.000147077
0.000154386
0.000148629
0.000149713
0.00014638
0.0550156
0.000149895
0.000146499
0.00696486
0.000212446
0.000152551
0.000147151
0.0403405
0.000155619
0.000150805
0.000147883
0.000162966
0.000150965
0.000157368
0.000152882
0.0304573
0.000162833
0.000174574
0.000144622
0.000163432
0.00017382
0.0001582
0.000149216
0.0987323
0.000149651
0.000203574
0.000147118
0.000149228
0.000162887
0.000202345
0.000151559
0.000154103
0.000148656
0.000159762
0.000176717
0.000189436
0.000155736
0.000149944
0.000147573
0.000155171
0.000189108
0.00014739
0.000168783
0.000147936
0.000147421
0.0387636
0.00014727
0.0612095
0.000147779
0.000154544
0.000181849
0.000147805
0.000158296
0.000196368
0.000183013
0.000147858
0.000188373
0.000149851
0.000149733
0.000147535
0.0285554
0.0697343
0.000147241
0.000147504
0.000146098
0.000146986
0.000183405
0.0760622
0.000147792
0.000228434
0.000146104
0.000146411
0.000147086
0.00086272
0.000150067
0.000151604
0.000147495
0.000147919
0.000147678
0.000149684
0.000149705
0.000160728
0.00371931
0.000145882
0.000147726
0.00016011
0.000173998
0.000146537
0.0383858
0.000168732
0.000146791
0.000145074
0.000149105
0.000191077
0.000146548
0.0001861
0.000156923
0.000152546
0.000146735
0.000168437
0.000144565
0.000172206
0.000155444
0.000149212
0.0132035
0.000479459
0.000143835
0.000147039
0.016966
0.000186501
0.00018058
0.000153783
0.000186029
0.000145273
0.0722195
0.000184078
0.000147358
0.0330403
0.0864755
0.000150727
0.000165126
0.000171191
0.000146693
0.091351
0.000148712
0.000156536
0.000157973
0.000148895
0.000148179
0.000163322
0.000146962
0.000147033
0.000146947
0.00147049
0.000147283
0.000147383
0.000146599
0.000147068
0.000147354
0.000149493
0.000175041
0.000160973
0.000152193
0.000149635
0.000342878
0.000148915
0.000146758
0.000147195
0.000145994
0.00014845
0.000147621
0.000158633
0.000185126
0.000149446
0.000159766
0.000162427
0.000146631
0.000155396
0.0536782
0.00014985
0.00014481
0.000148417
0.000166364
0.000149296
0.000149293
0.000152409
0.000152944
0.0186837
0.0134984
0.000146602
0.00014685
0.000147417
0.000165594
0.000158366
0.000146829
0.000155444
0.000167469
0.000148684
0.000154679
0.000148792
0.000179668
0.000221888
0.000150648
0.000173252
0.000154183
0.0465216
0.000149311
0.000147098
0.0771806
0.000170318
0.000152584
0.000208536
0.000167291
0.0185309
0.00016179
0.000197815
0.000154933
0.000154686
0.0185932
0.000154652
0.00023115
0.000160985
0.00018165
0.0375723
0.000149951
0.000148581
0.000147663
0.00019326
0.000143956
0.0127754
0.000165464
0.0226767
0.000150352
0.000169819
0.000196666
0.000147447
0.000148754
0.000165939
0.000157365
0.000148467
0.000155116
0.00016684
0.000178768
0.000175537
0.000190461
0.0213839
0.000179353
0.000148657
0.000149281
0.0774745
0.000165806
0.000149773
0.000160403
0.053169
0.000148867
0.000152757
0.000147406
0.000156182
0.000148111
0.00014859
0.000159405
0.00014849
0.00015538
0.0307876
0.0152522
0.000145915
0.00015369
0.000156512
0.000185768
0.000161743
0.000149252
0.000147298
0.000168827
0.00726512
0.000147366
0.000153009
0.000148293
0.0688559
0.000146959
0.000158096
4.23552e-05
0.000117911
0.000149796
0.000172365
0.00017339
0.000172819
0.000153645
0.000147975
0.0831715
0.000146842
0.000156325
0.000148857
0.000159236
0.000145509
0.000145878
0.000148357
0.000173939
0.000146943
0.000147667
0.000146885
0.000148407
0.000146954
0.000148123
0.000179493
0.0223072
0.0554685
0.000154669
0.000148244
0.000157285
0.000151982
0.0507621
0.000149891
0.000174751
0.000145456
0.000147828
0.000149529
0.000161601
0.0754616
0.000147606
0.0357681
0.000148896
0.000144568
0.00015068
0.0860258
0.000151006
0.0001609
0.0641831
0.000149889
0.00014872
0.0135884
0.000147274
0.0365021
0.000148469
0.00016154
0.0177168
0.000150268
0.000148538
0.000146808
0.0177327
0.000156344
0.000147045
0.000203108
0.000147533
0.000150272
0.000177615
0.0481172
0.00017788
0.0653566
0.0100561
0.000166577
0.000151248
0.000175814
0.000203168
0.000147411
0.000147323
0.00015019
0.000157461
0.000166455
0.00014776
0.000153332
0.000147145
0.000147542
0.051931
0.000149456
0.0280957
0.000145063
0.000163303
0.00018273
0.000146583
0.000144525
0.0581713
0.0657249
0.000170993
0.000148421
0.000153369
0.000178704
0.000146302
0.000164233
0.000182103
0.00016706
0.000159212
0.0264828
0.037826
0.000144675
0.000148788
0.000145409
0.000149231
0.000150695
0.000158114
0.010677
0.000148694
0.000147625
0.000172941
0.0311109
0.000145145
0.000523775
0.000145603
0.000189
0.000173398
0.095572
0.000185677
0.000163255
0.000163548
0.000144817
0.000144453
0.000202643
0.00015393
0.000148469
0.000316407
0.000146904
0.000148444
0.000145297
0.000169492
0.000180292
0.000236003
0.000171966
0.000158435
0.000157239
0.000148392
0.0420782
0.000227601
0.000150585
0.00014766
0.000146711
0.00019248
0.090703
0.000159488
0.0880425
0.000150197
0.000146709
0.040095
0.000147852
0.0700955
0.0659063
0.00014626
0.000157662
0.000217487
0.000152191
0.000159272
0.000147139
0.051851
0.000156166
0.000174741
0.0117072
0.0258739
0.00015805
0.000159133
0.000148818
0.000182825
0.0524116
0.000151099
0.000152538
0.0490916
0.000162413
0.000165451
0.000149739
0.0229215
0.0149933
0.000167848
0.000147856
0.000156408
0.00014708
0.00041531
0.000178275
0.000161639
0.0635418
0.0432938
0.000144878
0.000191485
0.000148566
0.00688032
0.000168069
0.000157164
0.000155004
0.00029454
0.000143644
0.000182303
0.0144042
0.0638565
0.00015052
0.000148053
0.000146388
0.000168912
0.00104148
0.000190638
0.0645244
0.0001955
0.000163745
0.000147028
0.0529411
0.000180756
0.000156125
0.000176948
0.0067449
0.0327077
0.0223134
0.0327865
0.039644
0.0220137
0.000148308
0.000155871
0.000160495
0.000148085
0.0368217
0.00031294
0.000147968
0.0848911
0.000148773
0.000147796
0.000146246
0.000160309
0.000146935
0.0447157
0.000163779
0.000229189
0.00014695
0.000236236
0.000162192
0.000252934
0.0186651
0.000150452
0.000157656
0.000160784
0.000164631
0.000146783
0.000145867
0.000147051
0.0400924
0.000146381
0.000146781
0.000234995
0.000151692
0.0515329
0.000148153
0.0595444
0.000147549
0.000148259
0.000147913
0.00014803
0.000157436
0.000152776
0.0576117
0.000157208
0.000167054
0.0815963
0.000147091
0.0787609
0.000146574
0.0762804
0.00294547
0.0616399
0.000176403
0.000147979
0.000149799
0.0897117
0.000148549
0.000156403
0.000148644
0.00016022
0.0699875
0.00014701
0.00014682
0.000147244
0.000149745
0.0414724
0.0778494
0.000147171
0.000143922
0.049702
0.0905152
0.000146925
0.0716218
0.000149739
0.0877688
0.0664198
0.000183005
0.000193397
0.000213478
0.000167079
0.035134
0.000188331
0.00014799
0.000144803
0.000146362
0.082571
0.0869092
0.000150476
0.000155456
0.0358804
0.000146997
0.0277655
0.00014748
0.000148125
0.000145564
0.00681224
0.000185435
0.000146629
0.0462876
0.000149656
0.0384448
0.0832599
0.000146477
0.000148627
0.000187536
0.000147558
0.000148808
0.000146631
0.0699473
0.00015766
0.000148052
0.000148773
0.0817614
0.000147794
0.000161737
0.000147722
0.0540781
0.000148561
0.00017174
0.000160566
0.0445816
0.0793865
0.000158761
0.000189059
0.000173343
0.000148375
0.00016929
0.0567592
0.000146688
0.000180843
0.0001463
0.000236324
0.000147141
0.0646512
0.0856525
0.00016957
0.0359437
0.0470848
0.000160011
0.000150071
0.000455671
0.00014733
0.0575104
0.000153341
0.000317589
0.000147397
0.000158133
0.000165628
0.000156791
0.000148498
0.000147778
0.00014924
0.0135673
0.000175968
0.0399803
0.0470227
0.000154989
0.000145364
0.000164099
0.0546096
0.000158397
0.000146893
0.000148411
0.00684396
0.005038
0.0368532
0.0293123
0.000162435
0.000148959
0.000146376
0.000171152
0.000167657
0.000283928
0.000147821
0.000148335
0.00994201
0.000173667
0.000149893
0.000179286
0.000287115
0.000184633
0.000145866
0.000162526
0.000236088
0.000312191
0.0851868
0.000214626
0.000147284
0.000149775
0.000150077
0.00014989
0.000147908
0.000148491
0.000158569
0.000177642
0.000161263
0.000158121
0.000156521
0.000149182
0.000154031
0.000150115
0.000159415
0.00015815
0.000147108
0.000156475
0.000147478
0.000146696
0.000149455
0.000148698
0.000202939
0.000145329
0.000166805
0.000275522
0.000823333
0.0629461
0.0348151
0.000153109
0.000149533
0.000147133
0.0869411
0.00014793
0.00014422
0.000149091
0.0893825
0.000157256
0.000162132
0.000249622
0.000151039
0.00014807
0.000157621
0.000146987
0.000162642
0.000149893
0.000159006
0.000146818
0.00014777
0.000150351
0.000151213
0.000154912
0.000271794
0.000166381
0.000173266
0.00017199
0.000194728
0.000164733
0.000173805
0.000147815
0.0334139
0.000152307
0.000154467
0.000147804
0.000150374
0.00017471
0.000147757
0.000166807
0.00590258
0.000155932
0.000185133
0.000178221
0.00016409
0.000168328
0.00016567
0.000147431
0.000157226
0.000148489
0.000171017
0.000166209
0.0816755
0.000146313
0.000165807
0.000154087
0.0568801
0.000271199
0.000168133
0.000148545
0.000167988
0.000144883
0.000176559
0.000150027
0.0665756
0.000145625
0.000153624
0.000147949
0.000160191
0.000197458
0.000158198
0.0266539
0.000148123
0.000161998
0.00016571
0.000147941
0.0290374
0.0873702
0.000195054
0.000178869
0.000166918
0.000147345
0.000146869
0.0476368
0.000176038
0.00014613
0.000149875
0.000152796
0.000147511
0.000209259
0.000146787
0.0818079
0.000186304
0.000193833
0.000161145
0.000149096
0.000145631
0.000147223
0.000181286
0.00016672
0.000154278
0.0310039
0.000149088
0.00015059
0.000154792
0.0979335
0.000144763
0.000202452
0.000143636
0.0724093
0.000147179
0.000147171
0.00015928
0.000147714
0.000148827
0.000188803
0.0001484
0.000149023
0.000146899
0.000164921
0.00015395
0.0418786
0.000147797
0.000148475
0.000146736
0.000190386
0.000146566
0.000155625
0.00016817
0.0878175
0.0683608
0.000471434
0.000208859
0.000213723
0.000163976
0.000165091
0.000154701
0.000149644
0.000148701
0.0750187
0.000164125
0.000144637
0.000147569
0.000147493
0.000157576
0.000171946
0.000149647
0.000156427
0.000187493
0.000198126
0.000173321
0.000147584
0.000149549
0.0572818
0.00015235
0.00014546
0.0753075
0.0719814
0.000146012
0.000143996
0.000154735
0.000148229
0.000159222
0.000149627
0.00487084
0.000149799
0.0425731
0.000147867
0.0125889
0.000157863
0.000147871
0.000181263
0.000145248
0.000148243
0.000149742
0.000160776
0.000235029
0.000147315
0.000195764
0.000149895
0.000149268
0.000169655
0.00014676
0.000148756
0.000148566
0.000144288
0.000147945
0.000144679
0.000149035
0.00767998
0.000146864
0.000146769
0.000164923
0.000145511
0.000147407
0.000149043
0.000148623
0.0957893
0.000187595
0.000148069
0.000150888
0.00014787
0.000149894
0.000215725
0.000148223
0.000147707
0.00952063
0.00014754
0.00016793
0.000179741
0.000160272
0.000147577
0.0002042
0.000147667
0.00021902
0.000164904
0.000147673
0.0612684
0.0348403
0.000155318
0.000171255
0.000147218
0.000147246
0.000161862
0.000210023
0.000146813
0.000146804
0.000148708
0.000163869
0.000148586
0.000160251
0.000148638
0.000166755
0.000396723
0.000160851
0.000212768
0.000147254
0.000154858
0.000156133
0.000160819
0.000145838
0.000147525
0.000150268
0.000159752
0.000166074
0.000149163
0.000195526
0.000147879
0.0776869
0.000144694
0.000146345
0.00017463
0.000149792
0.000178901
0.000191658
0.000161043
0.00014812
0.000150281
0.000147959
0.000161323
0.000148405
0.000163186
0.000155428
0.000148639
0.00014593
0.000155128
0.0949584
0.000158849
0.00016352
0.0807103
0.0012125
0.000161275
0.000144884
0.0743018
0.00014788
0.00015195
0.000149277
0.000188073
0.000147726
0.0001598
0.000155207
0.000151303
0.000148704
0.000153758
0.00014927
0.000175012
0.000147356
0.000149173
0.00014792
0.000156648
0.00810752
0.000148053
0.0178863
0.000166741
0.000144121
0.0962878
0.000134357
0.000147458
0.000151404
0.000191643
0.00014673
0.000147396
0.0621662
0.00014802
0.0684823
0.000153337
0.000152929
0.00014978
0.000149703
0.000147731