/*--------------------------------*- C++ -*----------------------------------*\
| =========                 |                                                 |
| \\      /  F ield         | OpenFOAM: The Open Source CFD Toolbox           |
|  \\    /   O peration     | Version:  v2012                                 |
|   \\  /    A nd           | Website:  www.openfoam.com                      |
|    \\/     M anipulation  |                                                 |
\*---------------------------------------------------------------------------*/
FoamFile
{
    version     2.0;
    format      ascii;
    class       surfaceVectorField;
    location    "650";
    object      Uf;
}
// * * * * * * * * * * * * * * * * * * * * * * * * * * * * * * * * * * * * * //

dimensions      [0 1 -1 0 0 0 0];


internalField   nonuniform List<vector> 
14907
(
(0.9967 0.0115398 0)
(0.996791 0.0119443 -2.95859e-21)
(0.99639 0.0117658 -1.41857e-21)
(0.998641 0.00529639 4.33351e-21)
(0.998495 0.00551003 0)
(0.998675 0.00558619 1.15776e-21)
(1.03589 0.0131419 2.33357e-22)
(1.03676 0.0134211 2.74163e-21)
(1.03645 0.0122913 8.46425e-23)
(1.01085 4.17946e-05 -6.79687e-22)
(1.01079 7.76375e-05 -5.60374e-22)
(0.695523 0.0950237 -2.86236e-20)
(0.626504 0.0859476 0)
(0.768959 0.106189 0)
(0.999251 0.00516842 1.49528e-21)
(0.999274 0.00486117 1.57386e-21)
(0.999128 0.0050722 4.55612e-21)
(0.734551 -0.00421682 6.54157e-20)
(0.66753 0.00703839 6.30586e-20)
(0.818653 -0.0119636 2.96245e-20)
(1.33636 -0.00826072 -3.3477e-21)
(1.33783 0.000175907 -3.74975e-21)
(1.29242 -0.00515169 4.21646e-20)
(1.03016 0.0126629 1.99052e-21)
(1.03003 0.0134537 -1.14222e-22)
(1.02928 0.0129073 6.59268e-22)
(1.00178 0.00505863 0)
(1.00177 0.00524533 -7.73259e-21)
(1.00194 0.00531175 0)
(-0.242791 0.00376275 -2.79645e-20)
(-0.260836 0.00557273 -5.83889e-20)
(-0.24637 0.00738875 -1.1611e-21)
(1.01411 0.000154966 -7.08336e-23)
(1.01061 4.45112e-06 1.69638e-22)
(1.01543 0.00189286 3.36513e-22)
(1.01532 0.0020961 -1.34154e-22)
(1.01565 0.00212223 -8.29317e-22)
(1.01568 0.000748971 8.17249e-22)
(1.01551 0.000722447 -2.12353e-23)
(1.01558 0.000904445 7.97107e-22)
(0.960928 0.0568256 -1.04146e-20)
(0.962723 0.0548854 -2.14612e-20)
(0.959876 0.0538826 -1.08864e-20)
(0.999706 0.00651271 -3.38874e-21)
(0.999662 0.00623043 0)
(0.999808 0.00630399 0)
(0.999795 0.0067845 -4.34825e-21)
(0.999624 0.00674472 -1.21486e-22)
(1.00003 0.000312279 -1.3559e-21)
(1.00003 0.000322591 -3.67205e-21)
(1.00004 0.00043021 -3.35243e-21)
(0.996601 0.0110897 0)
(0.997019 0.0113045 0)
(0.668516 0.285102 -9.96723e-20)
(0.69228 0.29769 0)
(0.694296 0.27622 0)
(1.00426 0.00538053 -1.38548e-21)
(1.00426 0.00562715 -2.17101e-21)
(1.0045 0.00558046 -1.07834e-22)
(1.27497 -0.0676354 -2.0864e-20)
(1.26874 -0.0665231 1.46858e-20)
(1.27359 -0.0600248 -4.43523e-20)
(1.01436 0.00041641 -3.28869e-22)
(1.01436 0.000426871 8.13945e-23)
(1.01472 0.000570257 8.56973e-22)
(1.01401 0.00443382 0)
(1.01435 0.00448583 8.83146e-22)
(1.01422 0.0041556 1.18721e-22)
(0.998773 0.00511057 -2.39542e-21)
(0.998615 0.00504128 5.07189e-21)
(1.09622 0.0167342 -1.04412e-20)
(1.0983 0.0141751 -8.63124e-21)
(1.09463 0.0138292 2.62109e-21)
(0.998794 0.0018351 -1.09767e-22)
(0.998907 0.00158605 6.74512e-22)
(0.998946 0.00175004 4.55162e-21)
(0.996822 0.0569301 -9.92995e-21)
(0.994981 0.0560078 -4.65112e-21)
(0.996882 0.0548083 9.31492e-22)
(1.02211 0.0219835 3.43245e-22)
(1.02151 0.0225716 4.85776e-22)
(1.02138 0.0215896 -1.60192e-21)
(1.00316 0.0487919 6.53551e-21)
(1.00475 0.0495145 1.15098e-22)
(1.00335 0.0508845 -1.89248e-22)
(0.996853 0.00436384 -2.65906e-21)
(0.996577 0.004369 4.43524e-21)
(0.996785 0.00408147 -3.21133e-21)
(-0.141236 0.0260887 -6.16452e-20)
(-0.154169 0.0260542 2.83623e-20)
(-0.155123 0.025171 -5.97722e-20)
(1.00182 0.00485425 0)
(1.00165 0.00479341 0)
(1.02151 0.0434967 0)
(1.02178 0.0451706 1.70577e-22)
(1.01995 0.0439976 0)
(1.07206 0.0563418 -1.81617e-21)
(1.0728 0.0533673 -1.31282e-20)
(1.06988 0.0541453 -1.59286e-21)
(1.01366 0.00439508 0)
(1.01379 0.00473338 -1.28877e-21)
(1.09197 0.0209478 0)
(1.09436 0.018775 -1.57067e-21)
(1.09057 0.0182245 4.05866e-23)
(1.10681 -0.0144487 -1.60905e-20)
(1.10339 -0.0139494 -4.73322e-21)
(1.1056 -0.0112223 2.34778e-20)
(1.01327 0.00428079 0)
(1.01354 0.00400607 1.31916e-22)
(1.00766 0.120113 -9.53912e-23)
(1.01021 0.122925 3.3503e-21)
(1.00488 0.122379 -5.61719e-21)
(0.648043 0.288179 -3.66293e-20)
(0.654056 0.266819 3.04247e-20)
(0.969661 0.0531764 1.96945e-20)
(0.968424 0.0553335 1.04318e-20)
(0.971045 0.0553416 1.11719e-20)
(0.787712 -0.0149037 -5.81135e-20)
(0.646731 0.0123629 3.10022e-20)
(0.992936 0.0324312 -1.07396e-21)
(0.993748 0.0335119 1.44097e-21)
(0.994079 0.0319121 6.99528e-21)
(0.783768 0.107894 -2.22857e-20)
(0.602258 0.0880957 -2.76336e-20)
(1.16428 -0.0261196 -2.56786e-22)
(1.16122 -0.0304096 -1.28599e-20)
(1.15826 -0.0246581 -2.54524e-20)
(0.977853 0.0367754 -8.13553e-21)
(0.978128 0.0381861 -1.61379e-20)
(0.976653 0.0374694 -1.69579e-21)
(1.18783 -0.0967486 -2.71298e-21)
(1.18082 -0.0933366 2.28281e-20)
(1.18142 -0.101958 5.89971e-20)
(1.08375 0.0325274 -3.15511e-20)
(1.08596 0.0347228 -9.30925e-22)
(1.08646 0.0314471 -7.56433e-21)
(1.10319 -0.0783951 0)
(1.09766 -0.0795141 0)
(1.09875 -0.073142 -1.39431e-20)
(1.00037 0.00045121 1.39562e-21)
(1.00042 0.000541029 4.91667e-21)
(1.00047 0.000488046 9.16516e-21)
(1.03642 -0.00772568 -3.59784e-21)
(1.03722 -0.00821294 2.59856e-21)
(0.961384 0.043415 -5.20981e-21)
(0.959105 0.0440143 7.93417e-21)
(0.95983 0.0415254 5.42456e-22)
(1.04395 -0.0107508 2.00716e-22)
(1.04449 -0.00965472 0)
(1.04535 -0.0112283 -4.52781e-21)
(1.09379 0.0235403 4.70871e-22)
(1.09006 0.0231121 0)
(0.999196 0.00546583 4.67963e-21)
(0.999321 0.00526102 1.00289e-20)
(1.02266 0.0215921 2.83483e-22)
(1.02291 0.0225597 -9.1079e-23)
(0.977502 0.0350733 5.30204e-22)
(0.979192 0.0359504 1.66863e-20)
(1.02295 0.042954 0)
(1.02127 0.041947 0)
(0.963343 0.0423574 -1.13351e-20)
(0.962967 0.0446116 7.4791e-21)
(0.997717 0.00482067 -3.25946e-22)
(0.99782 0.00451909 4.14084e-23)
(0.997569 0.00463567 -5.23384e-22)
(0.997096 0.00648403 2.85956e-21)
(0.997314 0.00661575 6.29056e-22)
(0.997324 0.00628193 -5.05269e-21)
(1.07114 0.0590079 7.66287e-21)
(1.07431 0.0585312 3.45153e-21)
(1.03503 0.0127597 6.54391e-22)
(1.03515 0.0138586 -6.70444e-22)
(0.967033 0.0169634 -1.54884e-20)
(0.965709 0.0176704 2.32634e-21)
(0.96695 0.018597 -7.63077e-21)
(1.02421 0.0423929 0)
(1.0244 0.0410217 0)
(1.02596 0.041893 -1.32527e-21)
(0.974301 0.0123159 -1.47263e-20)
(0.973772 0.0134169 -8.67873e-21)
(0.975103 0.012964 1.07252e-21)
(0.727128 0.211854 -2.9707e-20)
(0.731247 0.192433 5.87729e-21)
(0.746121 0.20472 -5.03662e-20)
(-0.149821 0.0016885 0)
(-0.119674 0.000744121 -1.45028e-20)
(-0.128025 -0.00813219 1.79622e-20)
(1.00155 0.026707 1.60295e-21)
(1.00154 0.0276566 -9.43427e-21)
(1.00073 0.0270874 -6.85629e-21)
(1.04354 -0.012137 -1.80206e-21)
(1.04261 -0.0105889 3.73179e-21)
(0.639239 0.305313 -4.90477e-20)
(0.991773 0.0331197 -5.91433e-21)
(0.992068 0.0315117 -7.19963e-23)
(0.865489 0.075017 -1.93453e-20)
(0.86881 0.0685855 4.47588e-20)
(0.860151 0.0682551 3.96489e-20)
(0.974728 0.00895279 5.06727e-21)
(0.975364 0.00983974 -5.89757e-21)
(0.975875 0.00879147 2.9885e-22)
(1.01474 0.00450876 2.41447e-21)
(1.01449 0.00483414 -2.89551e-22)
(0.48636 0.0579184 -3.98351e-20)
(0.581165 0.0726509 -4.43213e-20)
(0.996544 0.0107275 0)
(0.996474 0.0103317 -9.64923e-22)
(0.996837 0.0104741 0)
(0.902677 0.0949898 5.75091e-20)
(0.901437 0.0887648 -4.34344e-21)
(0.9073 0.0920924 -1.77933e-20)
(0.682509 0.0111315 -3.30175e-20)
(0.607331 0.0191426 -5.85578e-21)
(0.550478 0.0288724 -3.27768e-20)
(1.08096 0.0335559 -4.82983e-21)
(1.08165 0.0304056 -1.44621e-21)
(0.899407 0.131372 -6.4314e-20)
(0.982244 0.140756 8.00322e-20)
(1.00779 0.0365736 9.29088e-22)
(1.00825 0.0357112 1.00666e-21)
(1.00885 0.0368794 -1.6622e-22)
(0.972235 0.0491362 -6.37355e-22)
(0.971322 0.0471417 -1.34443e-20)
(0.973596 0.0472125 1.52155e-20)
(0.974797 0.0110469 -6.74378e-21)
(0.97343 0.0114763 4.95578e-21)
(1.00007 0.00146235 -1.22247e-21)
(1.00006 0.00150086 3.34691e-22)
(1.00004 0.00125332 4.08259e-21)
(0.997425 0.0133453 0)
(0.997156 0.0130492 -3.02859e-21)
(0.997012 0.0135965 0)
(1.16973 0.273238 -2.34879e-20)
(1.15903 0.270076 4.20457e-20)
(1.16798 0.263353 2.79366e-21)
(0.986822 0.0206244 1.62783e-22)
(0.987183 0.0214533 8.99901e-21)
(0.986247 0.0213152 -6.98385e-21)
(0.99772 0.013837 3.96889e-21)
(0.997872 0.0132312 0)
(1.03431 0.0323812 2.59601e-22)
(1.03513 0.0313041 -3.25168e-23)
(1.03351 0.0313027 1.27525e-21)
(1.00384 0.15533 5.78018e-20)
(0.811255 0.11885 -5.83986e-20)
(0.998376 0.0579753 4.57838e-21)
(0.996478 0.0592901 -1.18721e-20)
(1.03652 -0.00682067 -1.37783e-21)
(1.00154 0.0482132 3.75871e-21)
(1.00297 0.0470217 9.76937e-21)
(1.01663 0.0289236 0)
(1.01581 0.0292204 3.13921e-21)
(1.01676 0.0298059 -5.80472e-22)
(0.999717 0.0102406 3.23301e-22)
(0.999511 0.0100334 -4.51119e-21)
(0.99981 0.00988374 -9.43289e-21)
(1.01061 0.0288973 -8.28805e-22)
(1.01106 0.0281303 -6.36993e-22)
(1.01014 0.0280905 0)
(1.00505 0.115635 5.8421e-21)
(1.01078 0.116471 -5.13245e-21)
(1.02641 0.019561 0)
(1.02724 0.0198991 1.84594e-24)
(1.0268 0.0189672 0)
(0.999999 9.40293e-05 -5.9096e-21)
(1 9.45631e-05 -1.21081e-21)
(1.17692 0.200276 -1.99356e-20)
(1.1722 0.206725 0)
(1.18167 0.206205 0)
(1.31191 -0.014231 -5.38928e-20)
(1.27179 -0.023574 -3.29132e-20)
(1.32974 -0.0171458 0)
(1.00007 0.00169057 -6.1364e-21)
(1.00007 0.00147085 4.17763e-22)
(0.990182 0.0527149 -4.68404e-23)
(0.988752 0.0514094 6.65605e-22)
(0.990631 0.0506401 -5.0369e-21)
(1.04473 0.206373 3.54639e-21)
(1.05252 0.207158 4.68414e-21)
(1.0473 0.215107 -1.48819e-21)
(0.994278 0.0106893 8.74146e-21)
(0.994015 0.0110254 1.83089e-21)
(0.994429 0.011162 4.32394e-21)
(0.999944 0.0104533 -2.5473e-21)
(0.999641 0.0106063 1.3267e-21)
(1.004 0.005156 -5.44938e-21)
(1.00427 0.00509685 1.0229e-21)
(1.02129 0.000515479 0)
(1.02088 0.000569671 8.48716e-24)
(1.01007 0.00123718 -1.11082e-21)
(1.00979 0.00108177 3.1689e-22)
(1.00979 0.00142043 -5.20261e-21)
(1.00472 0.021099 2.49988e-21)
(1.00529 0.021632 -2.68341e-21)
(1.00467 0.0220267 2.16814e-21)
(1.04284 0.0809804 1.61568e-21)
(1.04041 0.0824122 1.04505e-21)
(1.03997 0.0794807 -1.70359e-22)
(-0.165882 0.0127505 4.04914e-21)
(-0.174844 -0.0036906 0)
(0.968408 0.016519 -7.50081e-21)
(0.96725 0.0155034 1.22623e-21)
(1.00236 0.0192797 -6.12732e-21)
(1.00238 0.0199815 2.51543e-21)
(1.00177 0.0196304 5.81502e-21)
(0.991404 0.0046933 -3.34188e-21)
(0.991872 0.00461608 0)
(0.991679 0.0050747 -1.03683e-20)
(0.996236 0.0109541 0)
(1.01769 0.0285953 0)
(1.01664 0.0279659 1.98873e-21)
(-0.0103507 0.0517675 -1.1994e-20)
(-0.0560885 0.0446806 -3.80387e-20)
(-0.00684364 0.0530267 -1.10018e-19)
(0.986465 0.0197559 3.4298e-22)
(0.987487 0.0198565 1.28538e-20)
(1.32848 -0.0132362 -1.8919e-20)
(1.33958 -0.00840063 3.89014e-20)
(0.996384 0.0358852 -7.76227e-21)
(0.997397 0.0366549 0)
(0.997454 0.0352357 -7.96882e-22)
(0.994045 0.00286283 -6.61897e-21)
(0.994151 0.00320781 2.19676e-22)
(0.994418 0.00297228 2.6549e-23)
(1.18168 0.192425 -1.42379e-20)
(1.17217 0.193028 7.21109e-22)
(1.00653 0.0364224 0)
(1.00735 0.0380464 1.70087e-21)
(1.33927 0.00776668 6.96455e-20)
(1.32732 0.00381908 8.72119e-20)
(1.08526 0.0514029 1.02075e-20)
(1.08636 0.0489743 1.34665e-21)
(1.08826 0.0517752 1.23957e-20)
(1.04093 0.20031 -5.31716e-22)
(1.03595 0.206969 -1.70933e-21)
(0.998007 0.0142149 1.01744e-20)
(0.99826 0.0146541 1.70124e-20)
(0.998447 0.0140766 -1.53911e-21)
(0.896699 0.0974197 -1.76638e-20)
(0.903524 0.101003 -1.41021e-20)
(0.980728 0.0198306 -1.46344e-22)
(0.980727 0.0210773 0)
(0.979574 0.0201625 -5.87571e-21)
(-0.158041 0.0316068 -3.47666e-20)
(-0.186125 0.0275067 0)
(-0.187977 0.0282955 -3.01925e-20)
(1.26614 0.0331815 8.11449e-20)
(1.26359 0.0281416 -1.29235e-20)
(1.27007 0.0274516 1.49005e-20)
(1.02595 0.0203568 -2.40741e-22)
(1.02549 0.0193681 0)
(1.11152 0.183187 4.06803e-21)
(1.10864 0.176173 2.95665e-22)
(1.11656 0.177611 2.70613e-20)
(-0.110577 0.0411836 3.61974e-20)
(-0.143484 0.0386818 1.51005e-19)
(-0.109116 0.0422695 1.24731e-19)
(1.03528 0.0335728 -1.03979e-21)
(1.03352 0.0334228 -4.59905e-22)
(1.19516 -0.0994937 9.42683e-21)
(1.19381 -0.0909139 -4.71713e-20)
(1.17932 0.27665 -4.17847e-20)
(1.17023 0.284374 -5.73838e-21)
(0.984854 0.0527815 0)
(0.983492 0.0513198 6.70567e-21)
(0.982698 0.0535056 -2.03397e-21)
(0.99107 0.00439994 -2.9698e-21)
(0.990956 0.00487641 1.10818e-21)
(0.983658 0.0459962 -7.47698e-23)
(0.984793 0.0474878 -7.43939e-21)
(0.985525 0.0455533 -6.65635e-21)
(1.22579 0.165152 7.3772e-21)
(1.22237 0.172671 -3.58279e-20)
(1.21842 0.164715 1.10619e-20)
(1.03463 -0.00307243 1.76183e-21)
(1.03396 -0.0034759 -2.65667e-22)
(1.03382 -0.00269224 -1.56053e-21)
(1.00418 0.0208823 3.23054e-21)
(1.00477 0.0205048 -6.40022e-21)
(1.13849 0.145559 2.322e-20)
(1.13283 0.143797 4.86442e-21)
(1.1343 0.150666 1.28189e-20)
(1.02511 0.000480952 -4.77171e-22)
(1.0249 0.000776042 0)
(1.02547 0.000774656 0)
(1.01109 0.0297243 2.34338e-23)
(1.01011 0.0296806 -7.91382e-22)
(1.01582 0.0885896 1.91474e-21)
(1.01253 0.088833 -8.39119e-22)
(1.0144 0.0857148 8.87058e-24)
(1.03171 0.0119626 -1.60811e-21)
(1.03157 0.0111207 0)
(1.03243 0.0115248 0)
(1.00003 0.000125904 -3.40197e-21)
(1.00004 0.000173236 5.85112e-22)
(1.00002 0.000121626 -1.05118e-21)
(0.223518 0.0890992 4.05697e-21)
(0.260848 0.0803786 6.63169e-20)
(0.175925 0.0957284 -3.83457e-20)
(-0.0437162 0.0452839 -3.60192e-20)
(-0.0882398 0.0439291 2.8027e-20)
(-0.0553037 0.0455868 6.98948e-20)
(0.999506 0.00122285 -9.24854e-21)
(0.999568 0.00102329 -1.28396e-23)
(0.99958 0.00111661 -6.00687e-21)
(1.01524 0.00173217 1.92182e-21)
(1.01552 0.00171487 2.4857e-21)
(0.952805 0.0122407 -8.71174e-22)
(0.954898 0.0127678 7.89669e-23)
(0.954249 0.0105951 -9.95646e-22)
(0.996886 0.00636012 1.07782e-20)
(0.996894 0.00671074 6.21668e-21)
(1.10599 0.188224 -2.68336e-20)
(1.11396 0.189367 -1.57483e-20)
(0.0618971 0.0913919 9.17616e-21)
(-0.115771 0.0342023 -4.33938e-22)
(-0.108814 0.0550971 5.53552e-20)
(-0.249023 -0.00421961 -2.50853e-21)
(-0.245783 -0.000857656 -2.02344e-20)
(-0.240618 -0.00891614 7.09534e-21)
(1.23768 0.0505448 4.37515e-20)
(1.23535 0.0451504 1.92995e-20)
(1.24163 0.0452542 -1.90789e-20)
(0.995744 0.00505768 -9.59077e-21)
(0.995954 0.00521774 0)
(0.995648 0.00530896 4.18669e-21)
(1.03101 0.0123631 -5.63009e-22)
(1.03183 0.0127593 -2.54302e-21)
(1.01206 0.0383848 -4.14161e-21)
(1.01155 0.0395084 1.15106e-22)
(1.0128 0.0395065 3.73863e-21)
(0.980768 0.0184657 1.66367e-20)
(0.981849 0.0194464 -3.52312e-22)
(0.950688 0.251143 3.2629e-21)
(0.947444 0.262893 0)
(0.960693 0.257896 1.05121e-20)
(0.313011 0.194628 4.94438e-21)
(0.374435 0.253635 -8.79491e-20)
(-0.156671 0.0292211 -5.69411e-20)
(-0.160441 0.0339679 1.57336e-21)
(-0.0336686 0.0456777 -1.36498e-19)
(0.0126777 0.0511818 5.11334e-21)
(1.04448 -0.00609773 -2.60493e-21)
(1.04323 -0.00568835 -3.87426e-21)
(1.04441 -0.00484268 5.35918e-21)
(1.00518 0.01157 5.90385e-23)
(1.00543 0.0120245 -4.3227e-22)
(1.00562 0.0116846 0)
(1.1748 0.194189 1.31829e-19)
(1.05788 0.173749 7.41395e-20)
(0.701774 0.356634 -4.88882e-22)
(0.695549 0.324905 0)
(0.670102 0.343226 4.66304e-20)
(0.90739 0.162928 -6.17893e-21)
(0.915505 0.163428 6.14067e-21)
(0.91162 0.155351 1.18898e-20)
(0.767083 -0.0431706 1.05626e-19)
(0.831056 -0.0501278 1.15622e-19)
(0.695881 -0.0191598 -1.81916e-20)
(-0.198554 0.163153 -5.12397e-20)
(-0.215792 0.120315 -6.00304e-20)
(-0.184278 0.128637 -7.83524e-20)
(0.995471 0.0351266 -1.45742e-20)
(0.994592 0.0343007 -1.07537e-20)
(0.995642 0.033698 -1.88717e-21)
(0.729238 0.233185 -4.03075e-20)
(0.708675 0.220085 3.75373e-20)
(1.06834 0.108074 2.01197e-22)
(1.06755 0.103561 2.02049e-22)
(1.0639 0.10703 -3.00127e-24)
(0.950595 0.0116006 -2.09095e-20)
(0.951243 0.0139565 -2.84588e-21)
(-0.122554 0.0211815 -4.07803e-21)
(-0.117592 0.0235491 -1.19084e-19)
(0.973155 0.0147194 1.12954e-20)
(0.97421 0.0154713 -1.90316e-20)
(0.972557 0.0159806 -1.32907e-22)
(1.08213 0.0516953 7.55836e-21)
(1.08426 0.0544985 -2.34295e-20)
(0.970877 0.0510951 3.38517e-21)
(0.968492 0.051087 9.72104e-21)
(-0.0194794 0.0498594 7.01002e-21)
(0.0598803 0.0626474 7.82732e-20)
(1.27265 0.0684157 -2.79342e-20)
(1.27205 0.0626026 -1.37468e-20)
(1.26713 0.0665843 -1.98818e-20)
(1.02262 0.0374577 7.5161e-22)
(1.0219 0.0368194 1.27171e-21)
(1.02147 0.0378642 -1.77707e-21)
(-0.219768 -0.0208208 -4.68565e-20)
(-0.221921 -0.0226977 -7.79491e-20)
(-0.217818 -0.0247683 1.26738e-20)
(1.05883 0.0410343 2.93232e-21)
(1.057 0.0395302 -6.10575e-22)
(1.05934 0.0387777 -4.90441e-21)
(0.774154 0.776644 -1.33704e-22)
(0.773656 0.712693 -1.33975e-22)
(0.718376 0.750162 4.11296e-21)
(0.982536 0.044737 1.78592e-20)
(0.981593 0.0467582 4.38484e-21)
(0.178981 0.102086 3.42725e-20)
(0.268294 0.0792741 -1.7338e-20)
(1.31707 0.221071 7.44632e-20)
(1.29041 0.205817 3.45092e-20)
(1.22081 0.005273 -1.69894e-20)
(1.21554 0.00683061 -5.50772e-20)
(1.22072 0.0109581 1.02759e-20)
(1.36046 0.163599 7.22823e-23)
(1.33349 0.150488 -4.09039e-20)
(1.34465 0.162638 5.41478e-20)
(1.07656 0.0242593 -6.70266e-21)
(1.07425 0.0233221 -1.49255e-20)
(1.07641 0.0215464 1.01678e-20)
(0.994979 0.00972252 5.63385e-21)
(0.99496 0.0101499 -8.67989e-21)
(0.995346 0.00990409 -6.56027e-21)
(1.01509 0.00151431 -9.2527e-22)
(1.01493 0.00170528 1.77311e-21)
(1.03058 0.0609945 -1.87439e-21)
(1.03263 0.0605037 0)
(1.03178 0.0633617 0)
(0.884001 0.143547 -1.32911e-20)
(0.892763 0.146054 1.28444e-20)
(0.891172 0.137487 1.99228e-20)
(1.02363 0.037512 1.81116e-21)
(1.02296 0.0387664 5.60101e-22)
(1.00601 0.0216568 -3.214e-21)
(1.00678 0.0218919 2.27044e-21)
(1.00629 0.0209845 -3.04091e-22)
(0.726062 0.357604 -4.28215e-22)
(0.708707 0.380451 2.44232e-22)
(0.972077 0.0140671 1.0125e-20)
(1.01795 0.0121474 1.13898e-23)
(1.01852 0.0120782 1.2204e-21)
(1.01842 0.0127305 0)
(0.833341 0.872718 0)
(0.856626 0.764066 0)
(0.999288 0.00193254 6.74521e-21)
(0.999264 0.00178335 -6.39189e-21)
(0.999363 0.00168857 -3.30324e-21)
(1.00002 0.000359709 -3.70271e-21)
(1.00002 0.000370803 -2.80997e-22)
(1.00004 0.000495176 -4.93444e-21)
(0.99992 0.000583615 -1.43006e-21)
(0.999909 0.000576982 9.12007e-21)
(0.999895 0.000745308 6.83835e-21)
(1.33497 0.163807 -1.76319e-20)
(1.33779 0.157128 -9.1976e-22)
(1.01525 0.000297444 -2.14783e-22)
(1.01542 0.000224176 8.19625e-22)
(1.01397 0.000128007 6.28485e-22)
(0.94116 0.244193 3.26966e-21)
(0.95267 0.240319 7.19636e-21)
(1.04602 0.430754 1.73292e-21)
(1.02717 0.436742 3.57184e-20)
(1.04452 0.452994 2.58968e-20)
(0.956983 0.0132183 -1.80539e-20)
(0.95571 0.0148557 -2.12228e-22)
(1.27909 0.0692619 7.31493e-20)
(1.27337 0.0728797 4.23203e-20)
(0.978659 0.00746293 -3.19624e-21)
(0.978158 0.00841926 -8.72105e-21)
(0.979214 0.00833082 -6.71019e-21)
(1.00055 0.00735422 2.85036e-21)
(1.00039 0.00745074 1.73554e-23)
(1.00056 0.00766743 4.17771e-21)
(1.15899 0.130956 3.58449e-20)
(1.16172 0.125365 -2.65206e-20)
(1.16602 0.131707 -1.30281e-20)
(1.01039 0.0141561 -2.27417e-21)
(1.01004 0.013761 3.33697e-22)
(1.00991 0.0142634 1.20443e-21)
(1.04541 0.0797634 5.76543e-22)
(1.04569 0.083041 1.69771e-21)
(0.952197 0.0210324 1.03095e-20)
(0.953257 0.0189624 -3.86557e-22)
(0.954496 0.0208073 7.22024e-21)
(1.14256 0.404491 0)
(1.12635 0.397644 -4.61381e-20)
(1.139 0.387419 0)
(1.11027 -0.0148882 -4.83938e-21)
(1.10789 -0.0175721 -2.60507e-20)
(0.946252 0.0693998 4.78625e-21)
(0.94651 0.0725214 -4.98812e-21)
(0.943296 0.0706644 9.99836e-21)
(1.09984 0.0117415 -1.85762e-23)
(1.10152 0.00897344 1.2327e-21)
(1.09826 0.00885576 1.12349e-20)
(1.28861 0.0144055 -4.12273e-20)
(1.28977 0.0186752 -3.37683e-20)
(1.28729 0.0180375 3.45651e-21)
(1.00354 0.0206083 8.29687e-21)
(1.00295 0.0202856 4.96443e-21)
(1.00357 0.0199308 -8.2401e-22)
(1.25028 0.0722645 2.174e-20)
(1.25512 0.0756412 7.59517e-20)
(1.24878 0.0781119 -4.64741e-20)
(1.0432 -0.0132513 6.37309e-21)
(1.04459 -0.013579 -5.13115e-21)
(1.03013 0.011856 1.40959e-21)
(0.810306 0.373008 4.61294e-20)
(0.83014 0.367212 -1.20031e-20)
(0.827526 0.388509 1.8903e-20)
(1.00497 0.0111688 2.81484e-21)
(1.00481 0.011478 -3.36918e-21)
(1.04277 -0.0144707 3.46929e-21)
(1.04194 -0.013029 -7.95355e-22)
(1.03759 0.0130893 2.15895e-21)
(1.03715 0.0140271 2.76945e-21)
(1.01858 0.0890589 -1.05888e-21)
(1.01671 0.0923472 6.28409e-21)
(1.01657 0.0139118 4.21685e-23)
(1.01667 0.0144877 3.20388e-21)
(1.01715 0.0141737 5.45632e-22)
(1.01586 0.000463933 5.72053e-23)
(1.01595 0.000388593 -3.30464e-22)
(1.01599 0.000557322 -1.18018e-22)
(1.05685 0.0181835 1.04947e-20)
(1.05834 0.0174204 -6.91477e-22)
(1.05828 0.0193667 1.55242e-21)
(1.05339 -0.0283758 1.99162e-20)
(1.05423 -0.0265524 6.71222e-21)
(1.0554 -0.0287403 4.24328e-21)
(0.995521 0.00484824 -3.71723e-21)
(0.995872 0.00475605 -4.91527e-21)
(0.995299 0.0365118 9.04823e-21)
(1.01246 0.037263 -3.55808e-22)
(1.0113 0.0372686 -3.91995e-21)
(1.0376 0.0839599 -3.93571e-24)
(1.04084 0.0864742 0)
(1.00229 0.0186351 -2.61454e-21)
(1.00288 0.0189551 7.66718e-22)
(0.997096 0.00432648 0)
(0.99693 0.00459481 -1.6075e-22)
(1.0131 0.00101745 -1.77404e-21)
(1.01284 0.000754388 1.24746e-21)
(1.01279 0.00106878 2.18676e-21)
(0.989731 0.0548273 5.72225e-21)
(0.991715 0.0538969 -7.2518e-22)
(1.04438 -0.0085364 0)
(1.04438 -0.00725553 -2.60043e-21)
(1.04312 -0.0081355 0)
(1.00001 0.000198664 1.81972e-22)
(1.00003 0.000299498 5.25178e-21)
(1.01492 0.00113863 7.66811e-22)
(1.01486 0.000954464 0)
(1.01507 0.000999523 -1.00175e-21)
(1.00152 0.0256989 -7.42466e-22)
(1.00234 0.0262221 2.96799e-21)
(0.994476 0.0773649 9.95977e-21)
(0.992401 0.0790831 9.62957e-21)
(0.995392 0.080073 3.94871e-21)
(1.14775 0.418673 -1.84664e-20)
(1.15967 0.404922 -1.61014e-21)
(1.23416 0.0547028 2.19948e-20)
(1.24006 0.0549277 -7.70971e-21)
(-0.2132 -0.0170792 3.08565e-20)
(-0.219193 -0.0145489 2.72019e-20)
(0.90396 0.170966 1.53462e-20)
(0.899604 0.162489 1.10505e-20)
(0.923669 0.163873 -1.69023e-20)
(0.932033 0.164422 1.11179e-20)
(0.9266 0.15637 -3.76379e-20)
(0.958727 0.0586487 0)
(0.961814 0.0593648 -6.61295e-22)
(1.17019 -0.0260912 1.00082e-20)
(1.17514 -0.0303442 1.59286e-20)
(1.17681 -0.0237841 4.12803e-21)
(0.936716 -0.0504511 2.7527e-20)
(0.961228 -0.0597135 -3.50062e-20)
(0.833298 -0.0378241 -4.76948e-20)
(1.05523 0.0191565 5.87094e-21)
(1.0552 0.0172502 -5.7804e-21)
(0.99463 0.0103996 -3.08801e-21)
(0.9942 0.0102817 4.09713e-21)
(1.01578 0.000612317 1.64768e-22)
(1.01569 0.000417705 2.9877e-22)
(1.02838 0.0620463 -2.32686e-21)
(1.02922 0.0594607 -2.71687e-22)
(1.01607 0.0136739 1.39146e-22)
(1.01651 0.0133825 -1.99579e-21)
(1.28154 -0.0680871 1.9493e-20)
(1.27719 -0.0752377 0)
(1.05471 -0.00301465 -3.8374e-21)
(1.05375 -0.00218043 -8.8502e-21)
(1.05527 -0.00173756 3.45068e-22)
(0.997538 0.0143878 2.38198e-22)
(0.999945 0.000441433 -1.02412e-20)
(0.999951 0.000591742 -4.16869e-21)
(0.87669 0.13879 4.53388e-21)
(0.876938 0.147675 -3.61966e-20)
(1.04577 -0.00875714 4.84444e-22)
(1.06328 0.425344 -3.55634e-20)
(1.0501 0.414292 -2.61481e-20)
(0.921036 0.172289 0)
(1.19604 0.238319 -3.16946e-20)
(1.20057 0.246386 3.18935e-20)
(1.20702 0.237279 -1.34091e-19)
(1.05836 0.042669 1.46304e-21)
(1.06071 0.042091 -1.0334e-21)
(1.0513 -0.0282842 -4.42988e-21)
(1.05232 -0.0306468 8.75463e-21)
(1.01557 0.0134813 4.75831e-22)
(1.01545 0.0129745 -1.89566e-21)
(1.01504 0.0132499 -2.95479e-21)
(1.07053 9.14563e-05 -1.45398e-20)
(1.07164 -0.000580782 -7.13413e-21)
(1.07185 0.00112883 8.39978e-22)
(1.03542 -0.00337235 2.3301e-21)
(1.03515 -0.00257088 2.20851e-21)
(1.07312 0.108389 0)
(1.06949 0.112191 -6.21898e-21)
(0.991177 0.0218568 -4.11416e-21)
(0.99051 0.0215515 -4.36536e-21)
(0.991233 0.0210161 0)
(1.09775 0.0194153 -1.2807e-21)
(-0.12639 0.0344994 -1.33271e-19)
(-0.121453 0.0333421 6.43495e-20)
(1.01768 0.0116794 -5.54603e-23)
(1.01754 0.0122191 9.70731e-22)
(1.03277 0.0164332 -4.25072e-21)
(1.03302 0.0155235 -2.11995e-21)
(1.03389 0.0162231 -8.23532e-22)
(0.884224 -0.0386601 -3.36543e-22)
(1.04433 -0.0621508 -4.06119e-20)
(1.16606 -0.0205179 4.57908e-20)
(1.02239 0.0355523 1.05704e-21)
(1.021 0.0357737 3.63726e-21)
(0.997327 0.00426009 -2.48253e-22)
(0.997447 0.00445559 -2.66607e-22)
(0.997583 0.00417794 5.45701e-23)
(0.99658 0.0752676 -2.04611e-21)
(0.99379 0.0745328 4.30588e-22)
(0.716968 -0.0349594 -2.03257e-21)
(0.860568 -0.0716502 -1.25468e-21)
(1.166 0.0588917 -8.07694e-21)
(1.16099 0.0620899 2.46035e-21)
(1.1613 0.0559878 -2.67363e-20)
(1.22845 0.159925 -1.76043e-20)
(1.23239 0.167183 -7.29043e-20)
(1.00035 0.000357074 -7.56938e-21)
(1.0003 0.000394668 1.60409e-21)
(1.01499 0.00132263 -6.83199e-22)
(1.01525 0.00136072 -1.56008e-21)
(1.00352 0.0214122 -1.0606e-21)
(1.03075 0.0139359 1.73649e-22)
(1.02979 0.0141619 -4.92639e-22)
(1.28597 0.00846647 3.25744e-20)
(1.29735 0.0113197 1.04163e-20)
(0.995144 0.0174193 -3.55436e-21)
(0.995353 0.0180981 5.32349e-22)
(0.99468 0.0180165 -5.15477e-21)
(0.99783 0.00498416 -8.93771e-22)
(0.997583 0.00509676 -5.54622e-21)
(1.00511 0.0127517 -2.86774e-21)
(1.00541 0.013202 7.9067e-21)
(1.00499 0.0131434 2.26625e-21)
(0.979193 0.00649369 8.09352e-21)
(0.978057 0.0064464 6.39244e-21)
(1.10342 -0.0262943 3.39061e-21)
(1.10337 -0.0303551 2.16451e-21)
(1.1 -0.0275015 3.70009e-21)
(0.970073 0.0641751 8.8698e-21)
(0.969386 0.0666014 2.77124e-20)
(0.967399 0.0641551 1.68571e-20)
(1.10067 0.244962 -1.13688e-20)
(1.09194 0.240587 -7.87173e-21)
(1.10118 0.235527 -1.79778e-20)
(0.422534 0.00940014 -1.86342e-20)
(0.564787 0.023119 -5.39399e-20)
(0.476478 0.0165647 -1.73726e-20)
(0.965172 0.0409893 -5.86176e-21)
(0.963451 0.0395989 -5.81728e-21)
(1.13477 0.0500012 -4.58753e-20)
(1.00497 0.0425015 -3.42194e-21)
(1.05016 0.0454199 2.67548e-20)
(1.00222 0.0179619 3.24178e-21)
(1.00217 0.0173116 -4.3145e-23)
(1.00269 0.0176241 -1.88184e-22)
(1.06901 0.000141521 -6.57709e-21)
(1.06943 0.00183778 -8.31339e-21)
(0.998707 0.00212292 -1.39572e-22)
(0.998637 0.00194879 -6.85488e-22)
(-0.245774 0.0269021 5.67672e-20)
(-0.24949 0.0267473 4.47301e-20)
(1.1849 0.185934 1.63805e-20)
(1.18859 0.179136 4.69725e-20)
(1.18038 0.17925 1.04719e-20)
(1.34387 0.235802 6.44941e-20)
(1.33108 0.237661 -2.12816e-20)
(1.33428 0.227992 -3.90026e-20)
(-0.152469 0.171262 2.01448e-21)
(1.01511 0.00457784 5.75485e-22)
(1.01525 0.00491987 -7.46233e-22)
(1.01548 0.00463329 -6.93945e-22)
(1.05411 -0.00430428 4.52427e-21)
(1.05558 -0.00402014 4.24369e-21)
(1.0014 0.0286658 -6.51661e-21)
(1.00225 0.0282335 1.62911e-21)
(0.978238 0.0731055 -1.7699e-21)
(0.981197 0.0724518 9.58898e-21)
(0.978883 0.0701558 2.65931e-21)
(1.10156 0.0145542 -8.05674e-23)
(1.00003 0.000902949 0)
(1.00002 0.000734333 0)
(1.00001 0.000736295 -7.48394e-23)
(1.05478 0.121199 -4.0033e-21)
(1.05856 0.119023 -1.5333e-21)
(1.05764 0.125009 -1.40361e-21)
(1.01034 0.00113829 -1.98381e-21)
(1.01028 0.00148363 0)
(1.01611 0.000307539 6.05293e-23)
(1.01619 0.000246785 -5.4701e-22)
(1.01596 0.000195922 -5.7768e-22)
(0.993449 0.0349313 -3.74121e-21)
(1.1003 0.252735 1.82315e-20)
(1.1095 0.247764 -9.38014e-23)
(0.99999 0.000274518 -5.21642e-21)
(0.999992 0.000133171 1.4365e-22)
(0.999993 0.000132231 -4.3269e-21)
(1.05529 0.037793 -1.04599e-21)
(1.05466 0.0398391 8.24431e-23)
(0.980976 0.0174675 6.23304e-21)
(0.98118 0.0164059 4.07957e-22)
(0.981993 0.0171526 -4.828e-22)
(0.97085 0.0618617 -6.07321e-21)
(0.972784 0.0639332 -1.20797e-21)
(-0.182558 0.0432386 1.04804e-19)
(-0.175869 0.0697464 5.05516e-20)
(-0.20416 0.0597417 -8.17237e-20)
(1.00174 0.018298 5.73069e-21)
(0.999415 0.00132057 -1.36767e-22)
(0.999431 0.00144005 -3.39155e-21)
(1.00255 0.00162938 0)
(1.00257 0.00185222 6.11285e-21)
(1.0028 0.00177441 0)
(1.03418 0.012413 1.01833e-21)
(1.03483 0.0117632 3.99015e-21)
(1.07893 0.151068 4.2371e-21)
(1.08125 0.157086 -7.29457e-21)
(1.07381 0.154738 -9.0328e-21)
(1.22019 -0.000469356 0)
(1.22536 0.00326065 5.67804e-20)
(0.938626 0.163204 2.45179e-20)
(0.936975 0.171154 1.70578e-20)
(1.30946 0.0626301 1.68691e-20)
(1.33761 0.0625032 -1.71085e-20)
(1.33984 0.0680724 7.08443e-21)
(1.10376 -0.0231125 -1.91791e-23)
(1.10682 -0.0258277 3.99459e-21)
(1.07879 0.0523191 -6.66418e-22)
(1.07966 0.0495089 6.50112e-21)
(0.979897 0.017729 8.16183e-21)
(1.01583 0.000795468 9.03159e-22)
(1.03877 0.030398 0)
(1.03931 0.0292793 0)
(1.03797 0.029358 3.4167e-22)
(1.00001 0.000215241 -6.66077e-25)
(1.00003 0.000334783 3.87621e-21)
(1.29929 0.0544604 -4.51054e-20)
(1.29324 0.0575291 4.24007e-20)
(1.30037 0.059418 -2.09819e-20)
(0.99184 0.0221416 -8.38134e-21)
(0.991144 0.0228491 -8.38821e-21)
(1.02442 0.0439505 0)
(1.16729 -0.1441 -4.55103e-20)
(1.161 -0.137453 1.60582e-20)
(1.15709 -0.147613 4.50096e-20)
(1.00579 0.0224087 3.72025e-23)
(0.982138 0.0790564 1.1005e-20)
(0.984139 0.0770721 0)
(0.985132 0.0801314 -8.21606e-21)
(0.973403 0.0510973 1.59175e-21)
(1.1725 -0.153982 -4.25677e-20)
(1.17725 -0.141974 -3.10033e-20)
(1.03683 0.00512687 0)
(1.0372 0.00446567 2.09351e-21)
(1.03758 0.00537657 0)
(0.945724 0.0658431 -8.59598e-21)
(0.949258 0.0677009 -9.17333e-21)
(1.04496 0.193756 -2.67942e-21)
(1.0364 0.193603 2.14662e-21)
(1.05023 0.123739 1.19075e-22)
(1.0514 0.117956 -2.6239e-21)
(1.03428 0.0591633 4.42484e-23)
(1.03628 0.0577484 -7.29203e-22)
(1.03372 0.0570529 8.50171e-22)
(0.994304 0.00884197 7.63581e-21)
(0.994237 0.00926231 -4.37706e-22)
(0.993867 0.00900318 6.95856e-21)
(1.25194 0.0531856 -3.43899e-20)
(1.26162 0.0618033 3.27394e-20)
(1.14257 0.14173 5.18381e-21)
(1.14308 0.149164 1.17584e-20)
(1.04517 0.00833419 4.2509e-21)
(1.04634 0.00777234 0)
(1.04616 0.00888532 0)
(1.08372 0.146946 1.20962e-20)
(1.07678 0.145513 7.45142e-21)
(1.00155 0.00864596 3.62247e-21)
(1.00137 0.00852484 3.70239e-21)
(1.00145 0.00883561 0)
(1.00512 0.010861 -6.24823e-22)
(1.00476 0.0107747 3.18861e-21)
(1.00177 0.00879892 7.93157e-21)
(1.00166 0.00841172 -1.63769e-21)
(0.979058 0.0780097 1.04448e-20)
(0.980046 0.0813159 -4.32266e-21)
(1.31264 0.238719 -3.43223e-20)
(1.29428 0.229549 -6.70247e-20)
(1.29171 0.239917 4.45652e-21)
(1.0555 -0.0160779 3.40889e-22)