/*--------------------------------*- C++ -*----------------------------------*\
| =========                 |                                                 |
| \\      /  F ield         | OpenFOAM: The Open Source CFD Toolbox           |
|  \\    /   O peration     | Version:  v2012                                 |
|   \\  /    A nd           | Website:  www.openfoam.com                      |
|    \\/     M anipulation  |                                                 |
\*---------------------------------------------------------------------------*/
FoamFile
{
    version     2.0;
    format      ascii;
    class       volScalarField;
    location    "250";
    object      omega;
}
// * * * * * * * * * * * * * * * * * * * * * * * * * * * * * * * * * * * * * //

dimensions      [0 0 -1 0 0 0 0];


internalField   nonuniform List<scalar> 
10042
(
0.021908
0.0220489
0.0218535
0.0229753
11.4534
0.0220701
5.60036
3.06235
0.0217251
0.0220088
5.28312
0.0229206
0.021527
0.0214899
0.0234631
0.0220312
0.0220226
0.0222585
0.0219107
0.128268
0.0219023
0.237479
0.021577
0.021614
0.0220562
0.0288254
0.0221324
0.0226569
0.0217737
0.0223452
0.0220185
5.48653
0.0220198
0.0222307
0.0259939
0.0216261
0.0280158
0.0333312
0.0216287
0.0293124
0.141319
0.0230964
5.39507
0.0219856
11.617
0.0606025
0.0222953
0.0998263
0.0271212
0.0503944
0.022167
0.022144
0.0231292
0.0227453
0.0280516
0.0220629
0.0217738
0.022264
0.0222225
0.0229337
0.0220441
0.0220014
0.0261712
0.0218366
0.0222104
0.0222376
0.0220212
0.0718242
4.9618
0.0218742
0.0226817
0.152813
0.0219927
0.0316957
0.0219994
0.0216106
10.8997
0.0219212
0.029686
5.37674
0.0263891
12.3789
0.021977
0.0227385
0.0220267
0.0222137
0.0218863
0.152317
0.0219328
0.0218881
0.0221384
12.6476
0.022729
0.0220809
0.0223005
0.0218519
0.021932
0.0218472
0.0288022
0.021767
0.0222908
0.104878
4.87239
0.0222023
0.0225473
0.050227
0.0219091
0.0219253
0.0219108
0.021439
0.0217084
0.0218252
0.0255834
4.89638
0.0221994
0.0218386
0.0219399
0.0219167
0.021849
6.23897
0.0219256
2.27838
0.0220166
0.0219817
0.103503
0.0219802
1.93847
0.0278669
0.0484673
0.0218801
0.0306338
0.0219933
4.68153
0.202472
0.0217678
0.0574034
4.99062
0.0221454
0.104169
0.174487
0.0226599
0.0219368
0.0224345
0.146147
0.0218325
0.0218251
0.0569617
0.0215174
0.0218593
0.0251519
0.0217435
0.0222555
3.68176
5.27802
0.0221858
0.021522
0.0225402
0.0219929
0.0577744
11.3757
5.99281
0.12825
0.0219849
0.0217457
0.0220401
0.0219766
0.0587646
26.6019
5.83343
5.78227
0.0224097
0.0218391
13.0128
0.164776
0.0376308
4.62202
9.60146
0.0220028
0.0831764
0.0314737
0.022677
5.91647
0.0220682
0.0277544
0.0229754
7.28059
0.249357
0.0220405
5.39345
0.0237302
2.8236
0.0224307
3.55629
10.7464
0.101445
6.4803
0.0252417
0.0219218
0.0215273
0.0233068
0.0364418
0.0220743
0.0218182
0.168668
0.0220588
0.0216714
4.32383
0.0221571
0.0222603
0.0222427
1.82477
0.021824
0.0545573
0.302469
0.0225148
0.258448
0.0219535
0.0219881
0.0644681
0.0217668
0.0256843
0.022662
0.365173
0.0345287
0.025237
0.029761
0.325429
0.0218318
0.162545
0.0228864
0.0217238
0.131036
0.0218475
0.0228476
0.021887
0.0253404
0.0216995
0.0214748
0.0231014
0.0256235
0.0219919
0.0220213
0.0219967
0.0256531
0.0218391
0.0220277
0.0216151
0.0226066
0.0225522
0.0222689
0.0215282
0.0218658
0.0241692
0.483842
0.128722
6.39422
0.0381594
0.0369469
0.0236322
0.0680223
5.39196
0.0228981
0.0219128
0.021492
0.0232374
0.0216995
0.244589
0.0230931
0.0218818
0.0222503
0.0382607
0.0225945
0.277821
0.0375362
0.182362
0.0238017
0.0255827
0.0217043
0.0248504
0.0218564
0.0326402
0.0219025
0.0288927
4.69588
0.0216736
0.0218119
5.54637
0.0619561
0.0220085
0.0220428
0.0238897
4.59488
0.0544916
0.152927
0.0221819
0.0215231
0.0218324
0.0217399
0.289336
0.0218766
0.0220379
0.0218364
0.0219547
0.0344225
0.02367
0.0751029
9.28482
0.0227666
8.6354
0.0218421
0.024627
0.0221239
7.61086
0.103769
2.3978
11.6192
0.021595
0.0231066
0.0218788
0.0238646
0.0298352
0.0222416
0.032535
0.021703
0.0214864
0.0220088
0.0807943
0.0222839
0.0234275
0.021958
0.0235275
5.67565
0.0218421
0.0221763
0.0219884
0.0218097
0.0415043
0.101952
0.0368087
3.88862
0.0348663
0.0268164
0.0219733
0.021473
0.0222118
0.022268
0.6722
0.0219025
0.0222377
0.113006
0.0218208
0.02452
0.0228545
0.119346
0.0218406
0.0250445
0.0457926
0.0322692
0.0232327
0.0219275
7.22384
0.057848
0.0222111
0.0411356
0.0219468
0.0218513
0.0219446
0.0244781
0.933335
0.0240727
0.0222492
0.0227094
0.0222923
0.0222708
0.126241
0.0219257
0.0216017
5.11981
0.0218367
6.28774
0.577991
0.0323168
4.12994
7.3103
0.0275978
0.136982
0.0221588
0.0521945
0.0222913
0.0222058
0.247899
0.0220653
0.0241103
12.2457
0.0219498
0.0219037
0.0493737
2.15953
0.0221608
0.0215182
5.51932
0.10449
0.0218352
0.0722363
11.9697
0.0217657
0.022264
0.0216279
0.0218638
0.02147
0.0216665
8.19524
4.39749
0.0222397
9.72155
0.0214921
0.0218772
0.587554
0.0219817
6.03116
0.0589042
0.0227505
0.0215722
0.021512
0.13497
0.0225057
0.0275978
0.0223375
4.83476
0.0224066
7.07868
0.0232672
0.0219342
0.0218384
0.627983
0.0219501
0.025523
0.0218631
0.0218222
8.13054
0.02531
0.0219283
0.0217398
5.85238
0.0218717
0.0256603
0.0232193
0.0217046
9.95833
4.15733
0.0218823
0.0221429
0.0242424
0.0215279
0.0220078
0.0219702
5.68557
0.0219941
0.0217068
0.028245
2.84611
0.0582176
0.0222685
0.0310877
17.9166
0.0364603
0.0219341
0.0219337
0.20333
0.0221407
0.0219404
0.0289598
0.0217653
0.0216675
0.0228037
0.0215567
0.0375928
0.0219059
0.0219542
6.75634
0.0217602
0.02233
0.0220672
0.0222778
0.0324026
0.0218867
0.0217901
1.84037
0.0224568
5.6605
0.0228685
0.022282
0.0222767
0.127084
0.021899
0.0219331
0.0220129
0.0222814
0.0274876
5.94987
0.0218753
0.0374239
4.48799
0.0363
0.0222611
0.0219564
0.0219707
0.0222032
0.0218537
1.98596
5.09354
0.0220753
0.0278903
0.0283734
0.0278035
0.022007
0.0216537
0.576114
0.129028
3.21575
0.0215695
0.0220196
0.0219469
0.0218416
5.4868
0.0343125
0.0222876
0.0218281
0.0217948
0.0219781
0.852347
0.0253052
0.0221399
6.92296
1.33152
0.399234
0.0512262
0.0220155
0.0217762
0.0583078
0.0520483
2.98846
26.2462
0.0245696
0.0258101
0.0222106
0.0233711
0.0221337
0.0221999
5.51656
0.0216088
0.0218457
0.0578695
0.0222103
0.288201
0.0226954
0.139847
0.0290338
0.0222447
0.0230043
0.0260003
0.0386288
0.0512313
0.0808131
0.0222823
0.0503145
0.0228321
0.0218516
0.022119
0.0222383
0.0220338
0.0248141
0.0585022
0.0405151
0.0221431
0.0225143
0.0220088
0.0219126
0.125217
0.021929
0.0231874
0.208784
0.0215591
0.0520874
0.0787128
0.02204
7.24666
0.041819
0.0222099
0.274482
0.0219359
0.0222686
0.0219535
0.0219784
0.0222924
0.0238128
0.0219848
0.960339
0.0226591
0.0219614
0.022157
0.0328469
0.0331127
0.0219769
0.0240114
0.0217773
0.0322675
0.0219281
0.0291485
0.0216049
0.0228847
0.0215131
0.0219306
9.20328
0.0216346
0.109227
0.0219654
0.0225963
0.021741
0.0330486
0.0220757
0.0431317
0.0220063
0.236305
0.0222621
5.63012
0.0215123
0.0233648
0.0222715
0.0219681
0.0219585
0.0237613
0.0220334
0.121601
31.9133
0.237871
0.0236979
0.0359098
0.0218108
0.0378763
0.0604838
0.0220121
0.0286359
0.0849358
3.17743
0.0795357
8.77311
0.0267648
0.0220953
0.0222313
0.0245331
0.0238068
0.0354797
0.0215998
0.023286
0.115911
0.0222649
0.0219137
0.0243674
6.2581
0.0232224
0.0300488
0.0579887
0.0222515
5.16251
0.0216159
0.0218246
0.0223698
0.0217718
6.58766
0.0694605
5.46454
0.0220568
3.6121
11.476
0.506712
0.0352566
0.0686938
0.161327
0.0398281
0.0219587
0.0218667
0.0297447
8.5224
0.0218034
0.0288814
6.0275
0.0219001
0.0219063
0.0218573
0.0228151
0.0219501
0.0218739
0.124269
8.14325
0.0218548
0.0219988
4.69277
2.92054
0.021815
0.0219382
0.022155
0.0218672
0.633248
0.0692838
0.268628
0.0225443
0.0219002
0.0217216
0.0227011
0.0220529
0.0324292
0.0225525
8.87215
0.0220059
0.0220755
0.0402165
0.0217991
0.0331448
0.0645147
0.0228289
29.3741
4.4655
0.0221019
0.0218497
8.5134
6.49757
0.0349167
0.0219108
3.8945
0.179375
0.0254565
0.0219433
0.0219951
0.0219224
0.317786
0.0236663
0.0929883
0.0222685
5.30126
0.877186
0.0219593
0.0219875
0.114383
0.0221506
0.0217382
0.0248845
5.05575
3.04538
9.30406
0.0222231
0.0594613
0.0382359
0.0216404
0.0218576
0.0221938
0.307131
0.0222061
0.0219556
0.0594306
0.0219973
0.063256
0.0221115
0.022107
0.0216869
0.0221514
0.186566
0.0221991
0.0218607
0.0410697
0.0547208
0.383245
0.02221
0.0884836
2.52059
5.68836
0.0228503
6.03406
9.75363
0.0219016
0.0215385
0.0225924
0.0231829
2.06381
0.0232843
0.0221229
0.0222062
2.99219
0.036776
0.0221661
0.0221424
0.0219334
0.0415603
0.0217525
0.0218322
0.0312529
0.0227458
0.0222044
0.021737
1.36936
0.021813
0.0226705
0.0220281
0.0223153
0.147455
0.0222031
0.0229418
0.0220717
0.0247715
0.785926
0.0222919
0.358735
0.025661
2.42767
0.0216471
0.0232999
0.030731
0.0882671
0.0496287
0.0225423
9.6593
5.61411
0.0224447
0.0217861
0.397337
0.022079
0.0222511
0.0217237
0.0222418
0.0501928
0.0222928
0.0222931
0.063675
0.0280926
0.0228008
0.0308978
0.0226623
9.53246
0.0230203
0.844276
0.0218598
0.0579267
0.0363225
4.81642
0.0239364
5.1776
0.0222695
0.0248439
0.0220425
0.0220503
0.0219042
0.133271
0.0396049
0.0478291
7.72716
0.0221199
10.3329
0.0250989
0.0217486
0.0309401
0.0298888
4.14747
0.0219817
0.0277733
0.0504297
0.0232431
0.0410331
0.0222838
0.0215707
0.0222833
0.300839
0.0221345
0.0220037
0.0217321
0.0217236
0.021935
0.0219882
0.0222372
0.0218467
0.0221515
0.022405
0.0250644
0.0304167
0.0219889
2.77458
0.0219528
2.79047
0.0364962
3.042
0.0357931
0.0246723
5.68667
0.0335695
0.321119
6.78624
0.0411474
0.0221994
0.0218429
0.0228088
0.151785
0.0218607
5.36184
0.0218618
16.18
5.45797
0.0549269
0.0226907
6.25663
4.95085
0.0230826
0.0219776
0.0222638
0.0240177
0.0215609
0.0216645
0.0566551
0.231644
0.0220781
0.0218544
0.0223098
0.62551
0.0616618
0.0221566
0.0250172
0.0885797
0.022397
0.0220272
5.0413
0.0222462
0.0218743
10.8287
0.0238552
0.0219403
5.74356
3.79949
9.60296
0.0219092
0.0230518
0.403476
0.0217308
0.0218381
0.0222843
0.0285639
0.0220433
0.0221116
0.0230479
0.0452841
0.177849
0.0217802
0.0219268
0.022079
0.0218042
0.022488
0.0215954
0.13897
0.0283056
0.02195
0.0219825
0.0217637
0.0219751
0.0223582
5.24332
0.0284754
0.0215105
0.0219239
0.0403591
4.10705
0.022042
0.0219822
0.022028
0.0215195
9.07301
0.0478372
0.0217135
0.0220669
0.0291114
0.103601
0.0221694
0.0222828
0.0247357
0.0219533
0.0254869
0.0223161
5.88187
0.0344956
0.0220698
0.0256675
13.1617
0.0278785
0.155829
0.0249185
0.393764
0.0222709
0.02203
0.0247446
0.066085
0.0218931
0.0217284
0.0222436
0.0225141
0.104747
0.118738
1.55172
0.0225318
0.0219924
0.0279421
0.0219611
0.0219588
6.35396
0.0235475
0.0219555
0.021982
0.282103
1.23273
0.021991
0.0220466
0.090573
0.0217432
0.0221039
0.0219306
0.0883009
0.0229312
0.0255035
11.4466
0.0222266
0.0221686
2.4708
0.0219059
0.162387
0.0218947
0.0232783
0.0412383
0.0219786
0.0220897
0.0220928
0.0233088
10.1439
0.0219171
0.0221354
0.210157
0.0254426
0.269658
5.96314
0.0461669
0.0222122
0.421771
0.021792
9.88525
0.0221681
0.0219894
0.0216828
6.35842
0.0222123
0.0223035
0.0221601
0.0330077
2.21098
0.0278789
0.048381
0.0218989
0.0221354
0.0365154
0.0286959
0.0218334
0.0250548
0.0218811
4.34775
4.74909
0.0221393
0.0228391
0.0222229
2.16952
0.0221574
19.8851
0.0219767
0.0217891
0.0217062
0.0223686
0.0236052
0.0222715
0.0219888
0.021985
2.92763
0.105262
0.0218425
0.0242931
0.0236958
0.0403512
0.0218055
0.0255866
0.0228126
0.0219536
0.0231046
0.0300292
0.0222802
0.0219127
0.0264656
0.0217249
0.156328
0.0230136
0.140661
0.0220918
0.0220374
0.0217538
0.0719223
0.0390553
0.0217661
0.0243128
0.0711359
0.0223901
0.0217692
0.0253004
0.0222247
9.25563
0.215049
0.0247667
7.25201
0.0230126
0.033798
0.090391
0.0370496
0.0326401
5.43272
0.0291212
0.129806
0.021967
0.0228584
0.0218391
0.0219373
0.0261233
0.0217501
0.190071
0.0219726
0.0219848
0.0733215
0.0219384
0.0540678
0.0252271
0.0252341
0.0218643
0.0417085
0.204076
0.0214152
0.030919
6.10946
0.041411
0.0217242
0.0291434
0.0219936
0.0217666
8.29761
0.0218298
0.0217816
0.0486155
0.0219455
0.0263697
0.0217404
0.0220009
4.56006
0.0218356
0.0216578
0.024506
0.0219074
0.0215007
0.0222518
10.0883
0.0221272
0.0220848
0.0215599
0.0836686
0.02236
0.0243702
0.0219238
0.034064
0.0226066
0.0218957
0.0227959
0.0221005
0.0217778
0.114501
0.0411653
0.0285434
0.0233654
0.0446343
0.0728998
0.0271836
0.0278457
0.0228504
6.43252
0.0219285
0.021957
0.0219234
0.0222384
0.0349084
0.0218923
10.0847
4.74506
6.21868
0.0220845
0.024519
0.0383285
0.0215222
0.0867694
0.04636
0.835149
0.0657967
5.07676
0.0730335
0.166771
1.82583
0.0280651
0.0228319
0.0249446
0.0217685
3.56906
0.0224985
0.0288606
0.0217966
0.0248919
0.0220445
4.84281
4.363
0.0222037
5.21631
0.630061
0.192476
0.0453627
0.0638264
0.021662
5.56977
0.02196
8.29512
5.25473
0.0222044
0.0218989
0.0220015
0.0232587
0.0245407
0.0349145
0.186567
0.0221252
0.0220389
0.0249814
0.0223011
0.0220361
0.0258642
0.0218333
0.022059
0.211884
0.0608844
0.022041
6.91435
0.0227338
0.0222721
0.0233316
0.284996
0.0219366
0.0217275
0.108981
0.181581
0.0217706
0.0250612
0.71715
0.0534756
4.63798
0.0217775
0.159601
4.98524
9.69927
0.0220833
0.0219115
0.0617912
0.0260025
0.0405978
0.0222944
6.5475
0.0486386
0.180717
0.0220354
0.0219761
5.39985
0.19139
0.0221503
0.0222723
6.04033
0.0219191
0.0215823
0.0217285
0.0233113
0.0221969
0.0292863
0.0220986
0.0235031
0.0216153
0.0323286
21.6471
0.0579078
0.0341359
8.8109
0.0750415
0.0216353
0.0217642
0.0218495
0.0222837
0.124687
0.0294264
0.0219819
0.0219721
0.0219707
0.0216025
0.0319364
0.0216098
0.0474919
0.0238109
0.0221241
4.88349
5.12604
0.0221025
7.2747
0.0334372
0.0328794
0.0222641
0.0216157
10.9373
0.0731201
0.0219213
0.0217233
0.02193
0.0262022
0.0222624
0.149863
0.0215159
0.0220592
0.0219907
1.99232
6.31455
0.0215033
0.0219882
0.143669
0.451236
0.0244549
4.78496
6.79492
0.0217023
0.0221421
0.0221139
0.0229552
1.99831
0.0220374
0.0222844
0.182936
0.0912845
0.0222122
0.0219418
0.0713924
0.0222836
0.0220747
0.105481
0.0806326
5.43496
0.021983
0.0749994
0.0404069
0.0558738
0.0230168
0.0272583
0.0219355
0.0219298
0.11818
0.0256734
0.0219957
0.024672
5.1614
0.0215304
0.0218089
0.0215219
0.0743653
0.0219449
0.0220866
0.0214379
0.0219433
0.672121
9.02209
0.022198
7.03985
5.1952
4.78784
0.0219323
0.0219359
0.021828
0.0218881
0.022117
0.0221504
0.0216209
0.0220827
0.0217788
0.0241882
8.68659
0.03569
0.291426
0.0295646
0.022031
0.0230864
0.0319711
0.0221587
0.0218456
0.0395394
0.0316782
0.539323
0.0416949
0.0214854
10.8716
0.0226706
0.0214867
0.021842
0.343628
0.043088
0.0227031
0.0255881
0.0220725
0.0220947
0.0318914
0.0408083
0.0276035
7.96072
0.0220841
0.0220304
0.611791
0.0369258
0.0250256
0.132934
0.0230488
0.0644855
0.301361
0.0649349
8.14641
0.0218279
0.0216739
0.0219391
0.0220474
0.0220949
0.0230465
0.0398598
0.0511584
16.5275
0.0220737
8.1475
8.58878
0.0240848
1.34341
0.0222045
0.0940309
8.37008
0.02191
0.0942215
0.0215377
1.79407
0.0221976
0.204735
0.0218574
0.795541
0.0383428
5.16676
0.0218467
0.171486
0.0216021
0.0230541
0.267982
0.0218375
8.13829
5.55853
0.382084
9.47528
0.0952213
5.17906
0.038714
0.022016
0.0442465
0.04592
5.33167
0.0220776
0.0220172
0.0226222
0.047742
0.0219401
0.0222058
0.0221993
18.3054
2.23319
0.0219058
9.81674
0.0576323
0.0217259
0.0377457
0.0271806
2.42818
0.0295687
0.0217627
0.651018
0.022072
0.0219371
0.02209
0.124436
0.0624072
0.0217713
0.0264279
0.0221107
0.0222606
0.0217917
10.0859
0.0222857
0.0218134
3.59183
0.251568
0.0239262
0.0217969
1.8194
0.0280976
0.0231981
0.0219404
0.0509344
0.0230796
0.0267646
0.0246691
7.4998
0.0430095
0.0607597
0.0214808
0.0314689
0.0460763
0.0273649
0.0223625
8.91748
0.0222527
0.161168
0.021884
0.0221937
0.0307345
0.191655
0.0233808
0.024975
0.0221142
0.0367177
0.065609
0.0914525
0.0278331
0.0222923
0.0219649
0.0278935
0.087509
0.0219353
0.0435636
0.0220144
0.0219368
4.78233
0.0218866
7.73882
0.0219317
0.0269384
0.0728863
0.0219265
0.028102
0.104686
0.10378
0.0219357
0.0829519
0.0225003
0.0222634
0.0218933
4.99882
3.34043
0.0219026
0.0219261
0.0215879
0.0218083
0.0935168
4.12405
0.0219217
1.34768
0.0217288
0.0217969
0.021889
1.66201
0.0227626
0.0237814
0.0219442
0.021952
0.0219121
0.0222568
0.0222595
0.0319189
11.9217
0.0216036
0.021911
0.0412296
0.0687066
0.0217947
7.95233
0.0520136
0.021786
0.0214971
0.022094
0.115923
0.021727
0.0805147
0.0286025
0.0233491
0.0217835
0.045382
0.0215199
0.134066
0.0276069
0.022354
5.2062
1.95312
0.0214222
0.0218563
6.53983
0.121734
0.0774885
0.0238925
0.080573
0.0215297
6.12034
0.0661734
0.0216994
1.78853
3.71841
0.023147
0.0442664
0.0535184
0.0217575
9.67991
0.0221658
0.0266365
0.029759
0.0222373
0.0220494
0.0516009
0.0218666
0.0218883
0.0218658
5.70599
0.0218385
0.0219382
0.0217456
0.0218854
0.0218488
0.0222302
0.0538878
0.0450725
0.0234194
0.0222498
1.41672
0.0222453
0.0218342
0.0218933
0.021588
0.0220855
0.0219716
0.028465
0.0918845
0.0222241
0.0304197
0.0493689
0.0217304
0.027508
3.28182
0.0226427
0.0215215
0.0220805
0.0825129
0.022203
0.0222031
0.0242353
0.024746
7.79495
13.1953
0.0218225
0.0218626
0.0219408
0.0686274
0.0230127
0.0217943
0.0281667
0.0732872
0.0221529
0.0268037
0.0221335
0.106972
0.211879
0.0227716
0.12381
0.0257605
4.85693
0.0222053
0.0218896
6.44375
0.115682
0.0243248
0.166839
0.0906298
30.1113
0.045463
0.666999
0.0255807
0.0247409
5.11085
0.0266186
0.206155
0.0295799
0.125154
5.24326
0.0222933
0.0221222
0.0219748
0.350204
0.0214442
6.47375
0.0365919
23.0756
0.0229229
0.11703
0.205893
0.0219472
0.0221812
0.0788981
0.0295403
0.0220882
0.0245481
0.0767847
0.0771603
0.0774436
0.110386
12.2245
0.143939
0.0221154
0.0222015
5.20039
0.075477
0.0226094
0.0376251
3.95061
0.0222429
0.0236988
0.0219385
0.0286361
0.0220393
0.0221056
0.0385429
0.0220897
0.0226089
5.25168
30.6633
0.0217264
0.0256823
0.0266648
0.187805
0.042518
0.0223236
0.021925
0.102591
17.5468
0.0219266
0.0250706
0.0220498
6.1484
0.0218267
0.0299962
0.445922
0.363293
0.022272
0.137489
0.0867441
0.0577069
0.025575
0.022021
7.43184
0.0218125
0.0260345
0.0222189
0.0286676
0.021591
0.0216014
0.0220679
0.0665639
0.0218165
0.0219777
0.0217592
0.0219238
0.021864
0.0220076
0.0899275
9.1276
2.25742
0.0253741
0.0220564
0.0319259
0.0236018
7.18647
0.022285
0.183032
0.0216093
0.0219942
0.0223747
0.0347664
3.89957
0.0219562
4.83933
0.0222048
0.0215144
0.0230408
8.37155
0.0233301
0.0446626
6.88408
0.0222848
0.0221675
6.9766
0.0218818
10.867
0.0220883
0.0316774
11.0204
0.0225098
0.0220973
0.0218566
10.2456
0.0264259
0.0218655
0.791089
0.0219565
0.0226041
0.0829413
22.754
0.192007
5.20097
8.8761
0.0732723
0.0234546
0.182697
0.242573
0.0217696
0.0218546
0.022815
0.0265599
0.0785557
0.0219886
0.0253138
0.0219015
0.0219587
2.11763
0.0222252
9.1747
0.0215439
0.0314086
0.0641587
0.021825
0.0215081
5.08577
6.06838
0.0645266
0.022081
0.0249047
0.053609
0.0217637
0.0347202
0.101339
0.0398549
0.0231209
6.70981
24.7111
0.0215381
0.0221333
0.021646
0.0221945
0.0226535
0.0268811
19.6981
0.0221205
0.0219593
0.0442899
20.8082
0.0215523
1.63193
0.0215704
0.135769
0.0581728
7.3275
0.0700678
0.0532234
0.0559602
0.0214948
0.0215018
0.248239
0.0254942
0.0220878
0.863429
0.0218249
0.0220845
0.0216145
0.0493996
0.211789
0.580089
0.144591
0.0281248
0.0294209
0.0219264
11.4728
0.21255
0.0230202
0.0219712
0.0217253
0.0955162
8.87608
0.035824
9.95636
0.022854
0.0217653
4.7446
0.0219355
5.71831
10.3961
0.0216779
0.0296866
0.274199
0.0241629
0.0357021
0.0218176
4.9356
0.0262217
0.161042
5.39463
9.6679
0.0277471
0.0276524
0.0221364
0.149428
11.3978
0.022801
0.0238558
5.20047
0.0490631
0.0669407
0.0222635
4.87447
5.16653
0.0962859
0.0219387
0.0264013
0.0218922
2.47802
0.0745605
0.03374
9.48914
4.74226
0.0214928
0.156404
0.0221013
5.45731
0.0926484
0.0262602
0.0249325
0.921832
0.0213978
0.0646505
6.30808
4.62147
0.0229926
0.0220313
0.021787
0.0879608
1.82311
0.172864
5.39852
0.098155
0.0414456
0.0217532
4.91326
0.0805901
0.0283539
0.19004
5.53973
5.23689
5.09526
9.32228
5.45405
5.77572
0.022052
0.0288124
0.0329704
0.0218303
11.5325
0.81876
0.0220194
7.95385
0.0221301
0.02199
0.021769
0.0310079
0.021863
4.9599
0.0610771
0.230325
0.0216484
0.562079
0.047708
0.420119
5.08513
0.0225636
0.0276183
0.03782
0.0665778
0.0217386
0.0215991
0.0218874
4.69205
0.0217761
0.0217459
0.189386
0.0231728
20.2664
0.0220456
6.57558
0.021947
0.0220602
0.0219454
0.0219724
0.0265731
0.0244161
8.34854
0.0310446
0.036949
5.76775
0.0218113
7.06724
0.0217907
6.24665
2.20642
5.80205
0.0671874
0.0219623
0.0222725
6.47399
0.0219693
0.026045
0.0221121
0.0295975
6.36019
0.0218839
0.0218449
0.0218701
0.0222651
10.2918
10.4774
0.0218134
0.0214367
4.98251
9.65339
0.0218574
5.07448
0.0222642
8.31091
5.64605
0.0709227
0.353312
1.02222
0.0853497
4.79339
0.0827986
0.0219634
0.0215307
0.0217819
7.13151
9.8736
0.0229699
0.0282054
4.78488
0.0218316
5.29337
0.0217905
0.0218712
0.021607
7.34035
0.0764017
0.0217337
4.63552
0.0222526
7.6008
4.84602
0.0217201
0.0221104
0.120775
0.0219499
0.0218782
0.0218276
3.20718
0.031832
0.0220312
0.0221304
3.06758
0.0219286
0.0408771
0.0219837
5.87082
0.0221016
0.104227
0.0233334
4.94362
7.73161
0.0312264
0.0877228
0.0566074
0.0220747
0.0756152
5.35774
0.0217277
0.0843151
0.0217614
0.543317
0.021889
5.8084
3.1781
0.105888
4.74427
4.72979
0.0408125
0.0224392
2.15959
0.0219305
11.4403
0.0253093
0.986488
0.0218597
0.0326321
0.0476372
0.0303358
0.0220936
0.0219312
0.0221956
5.62597
0.0730572
4.59519
2.5414
0.0275177
0.0216078
0.0544376
11.8198
0.0335321
0.0217609
0.0220802
7.2211
4.77776
11.3683
5.67147
0.036158
0.0222571
0.0217735
0.052262
0.0514008
0.76654
0.0219977
0.0220694
34.2209
0.0666049
0.0222853
0.0644142
0.820224
0.107012
0.0215844
0.0483675
0.559366
1.07063
6.6565
0.26062
0.0218675
0.0222691
0.0220037
0.0222849
0.0219471
0.0220909
0.0333294
0.222136
0.0342481
0.027339
0.0288417
0.0221877
0.0260689
0.022435
0.0347763
0.0327106
0.0218111
0.0282926
0.0218881
0.0218394
0.0224786
0.0221205
0.393965
0.0215764
0.077726
0.648216
1.34256
8.64175
5.54592
0.0223479
0.0222368
0.0218972
6.28549
0.0217972
0.0214621
0.0221745
6.16324
0.0311558
0.0341165
0.415206
0.0233538
0.0220316
0.0296998
0.0218735
0.0482235
0.0222854
0.0342112
0.0217779
0.0219213
0.0229116
0.0234699
0.0249485
0.67818
0.0387087
0.112507
0.060663
0.129423
0.0442377
0.0690148
0.0217865
4.98883
0.0244437
0.026606
0.0219269
0.0225923
0.125631
0.0219816
0.0643098
6.88935
0.0292371
0.372952
0.104748
0.0539777
0.0697124
0.0602547
0.0219261
0.0286879
0.0220906
0.0789058
0.0515871
5.76039
0.0217543
0.0482441
0.0263565
3.81815
1.41596
0.046491
0.0220982
0.0524827
0.0215634
0.0685539
0.0227385
4.48816
0.0216431
0.0258066
0.0220161
0.0360631
0.133474
0.0307548
9.05807
0.0220389
0.0302506
0.0609091
0.022015
7.21321
7.71541
0.159551
0.0555448
0.0481029
0.0217666
0.0217365
9.26022
0.103007
0.0215953
0.0223915
0.0249467
0.021895
0.409157
0.0217692
6.71675
0.145101
0.148515
0.0374565
0.0223088
0.0216551
0.0217898
0.152407
0.0812562
0.0265641
5.02252
0.022174
0.0230862
0.0271927
8.64181
0.0214826
0.870436
0.0213982
5.63327
0.0219069
0.021894
0.0380671
0.0219843
0.022212
0.139304
0.022066
0.0222853
0.0217459
0.0445732
0.0255301
1.74821
0.0219893
0.0220876
0.0218454
0.131841
0.021801
0.0285309
0.0421882
6.00355
9.71465
10.9183
0.861585
0.395712
0.0414745
0.0625159
0.0272207
0.0222511
0.0221208
6.79552
0.0574732
0.021533
0.0219617
0.0219529
0.0276203
0.0817519
0.0222517
0.0301413
0.12051
0.171588
0.11632
0.0219647
0.0222376
2.65436
0.0235977
0.0215622
3.59137
7.94055
0.0216852
0.0214222
0.0268033
0.0220547
0.0379685
0.0222485
2.66544
0.0222726
1.72481
0.0219476
5.31784
0.0298599
0.021937
0.0633652
0.0215731
0.021907
0.0222647
0.0328287
0.508542
0.0218506
0.167496
0.0222855
0.0221997
0.11378
0.0216596
0.0221284
0.0221023
0.0214605
0.0219531
0.0214891
0.0221666
6.11113
0.0218536
0.0217231
0.0573399
0.0216154
0.0219323
0.0221677
0.0221468
9.25119
0.416834
0.021996
0.0227525
0.0218717
0.0222855
0.203068
0.0220552
0.0219831
7.93507
0.0219583
0.0458107
0.0584354
0.0380222
0.0218155
0.209
0.0219027
0.280172
0.0689258
0.0218349
8.6309
2.04721
0.028165
0.121384
0.0218278
0.0218655
0.0452487
0.227703
0.0217386
0.021855
0.0221781
0.041142
0.022104
0.0362358
0.0221114
0.0475961
1.9519
0.0392671
0.186767
0.0218372
0.0245058
0.0226966
0.0233355
0.021681
0.02189
0.0228638
0.0232235
0.0678638
0.0223407
0.0981972
0.0218344
5.94161
0.0215088
0.0217719
0.0739816
0.0222715
0.10538
0.0901707
0.0373841
0.0218747
0.0228766
0.021898
0.0374545
0.0220662
0.055497
0.0256269
0.0221446
0.0216618
0.0273902
7.64162
0.0319969
0.0519875
4.33154
1.18109
0.0389283
0.0215657
5.87938
0.0219412
0.0235337
0.0223807
0.105231
0.0218962
0.0354124
0.0277578
0.0235202
0.0221217
0.0253713
0.0222
0.061087
0.0219301
0.0221858
0.0219503
0.0284459
4.9549
0.021986
8.59886
0.0858994
0.021443
8.93835
0.285022
0.02177
0.0232577
0.0900732
0.0217871
0.0218962
3.5591
0.0220273
4.76483
0.02544
0.0246106
0.0226259
0.0223271
0.02191
0.0217882
0.0609896
0.0225033
0.0219593
0.0219068
0.022163
5.47062
0.0367263
0.0220367
0.0289417
0.150288
0.0662683
0.0218778
0.0219906
0.0219455
0.0249721
0.0227586
0.0223838
0.0272211
6.43121
0.0217667
0.023015
3.09441
0.0245693
0.10855
0.144935
0.0218663
0.02227
0.537894
0.0879298
0.18567
5.49308
4.7862
0.187331
6.96763
0.0217422
0.0231759
0.0216778
0.0221868
5.21633
0.0219775
0.0562369
0.0677702
0.0295538
0.0249695
0.615263
0.0218992
0.022117
0.0252938
0.0219319
0.0220486
0.0217377
0.0219813
0.070872
0.0219352
0.0221304
0.0217771
0.0457648
0.0221325
7.91109
0.0219122
0.0229357
0.0218128
0.0222521
0.0227363
0.0219454
0.0380575
0.0229149
0.0219265
0.0282142
0.0220136
0.0222646
0.0219831
0.0309995
0.0223034
0.0220329
0.0220465
0.0220599
0.0290152
0.0220194
0.0220067
0.109591
0.0220749
0.0219136
0.0238094
3.03355
0.0521922
0.0223239
0.0547679
10.9078
0.121706
0.232652
0.0239181
0.0227855
0.0269117
0.38208
0.0220526
0.238413
0.0224612
0.02189
0.0283453
0.0220516
0.0712539
0.0778964
0.0650862
0.0229499
0.0219435
0.0285433
0.0272456
0.022873
0.0243506
0.0233447
0.0442517
0.0749042
0.0762231
0.0219254
0.0238781
1.74997
0.0230811
0.0222853
5.97133
0.504435
0.0219419
0.0223958
0.0231262
0.0751604
9.68688
0.0219545
0.365402
7.66953
0.0383444
0.0595984
0.0216307
0.0236104
0.0226501
0.0843696
0.0222318
0.0295093
0.0234132
0.258074
0.0221937
0.0220615
7.14764
0.0235091
0.0229609
0.0221442
0.0222126
0.038085
4.76291
0.0278865
0.0220426
2.71825
0.0998339
0.022282
0.0219494
0.0218242
0.0241321
0.0216793
0.200972
0.0218572
0.0243651
0.0249425
0.0615451
0.0262417
0.0218217
0.027245
0.0242368
0.0218217
0.10066
0.021879
0.0234165
0.0216821
0.0222719
23.1109
0.0286045
0.0222638
4.71383
0.0227689
0.0219461
2.54118
0.0705979
4.59502
0.021916
0.0230151
0.0218702
0.0225629
0.0230015
5.58259
0.0224684
0.0914908
0.0217525
0.0220405
0.0235942
0.0219386
0.0366346
8.34565
0.524463
0.0219484
0.0217166
0.244332
0.0225244
0.0221225
0.0263159
0.0272304
0.406416
0.0836897
0.0227887
6.08356
0.0918069
0.0223947
0.0217224
0.0222024
0.0284046
4.84771
0.0222839
0.0680475
0.0227131
0.0220906
0.0215532
0.0222532
15.6215
0.0268917
0.0217508
0.0237433
0.022095
0.0252943
0.0214298
0.023134
0.0219479
0.0228876
0.430447
0.0220347
0.0222129
0.100038
0.0215926
0.0215474
7.33385
0.0218748
5.6491
5.53554
11.4606
0.0265614
0.022126
0.0214973
0.0221391
0.02147
0.023636
0.216997
0.0522081
0.425447
0.0846395
0.024119
0.0215778
0.0229577
0.0225966
0.0222726
0.0221189
0.0215378
0.0738653
0.0224998
22.7735
0.0222621
0.0227031
0.0222635
0.0220482
8.73438
0.140104
0.0285433
0.0214949
0.0538185
0.0230911
0.0219695
0.0842966
0.0214462
0.0233213
7.44379
0.0219565
0.0218907
0.0218895
6.2507
5.02722
0.0215944
0.0226076
0.0244911
0.0220921
0.0216115
0.0219511
0.0220759
0.0218994
0.0218432
0.0218983
0.0242209
5.04611
0.0381178
0.0219324
0.0219294
0.0222844
0.0221163
0.0221775
0.0259179
0.02748
15.1305
0.02588
0.0221729
0.0225703
0.0219439
0.0957952
0.0215891
0.0222236
0.0232125
0.0286941
0.0266399
8.0007
0.0221013
0.0308298
0.0226332
0.0225837
0.0221045
0.0215736
0.0229531
0.115991
0.189473
0.0217291
0.0374624
0.0754659
0.0222647
0.0405274
0.0384297
4.31992
0.0222495
0.0235614
0.0224997
0.0215809
0.0772047
0.0219566
0.021997
0.0539071
0.227725
0.209349
0.0217618
0.0219068
7.08124
4.6023
0.0215648
1.97166
5.23543
0.0218206
0.021569
0.0216773
0.022061
0.0221405
0.0215325
0.0284405
6.18018
0.0217703
0.0219573
0.0216869
0.022158
0.0217921
0.021836
0.0215239
5.80609
0.0220024
0.237572
0.0221535
0.0217985
0.0229715
0.021832
0.0221758
0.029326
0.0221552
0.0222947
6.81728
0.0219902
0.0251312
0.0220225
0.0219664
0.022141
0.0218101
0.121097
0.0220578
0.0221069
0.0219941
0.194376
0.0329502
0.0221425
0.0221754
0.021936
0.0230658
4.65033
0.0233683
0.0236516
0.0219482
0.0221235
0.0219377
0.0518803
0.023206
0.0228388
0.40303
0.044543
0.0218044
0.0252363
0.0220073
0.022374
0.0218157
5.14915
0.0219595
0.0220575
0.0218027
0.0296749
0.0234803
0.0227134
0.0219194
0.0217867
0.0622534
7.62353
0.0218144
0.0555831
0.0234626
0.0233623
10.3386
0.0217438
0.0219828
0.0219484
0.0237806
0.0232547
0.0217913
0.0243023
0.0219045
0.100525
0.0215001
0.0217147
0.0251887
0.0221427
0.0933792
0.025927
14.7463
0.0657442
0.022212
0.106154
4.83079
0.0224586
0.0246111
0.0220683
0.0252537
0.0217772
0.0398052
0.0441549
0.0218794
0.0290121
0.0217613
4.90321
0.0222156
0.0236023
6.07007
0.044944
0.0240863
0.152621
0.0221565
0.0219952
5.04342
0.0217399
10.4072
0.0218436
0.0218617
0.0777832
8.70927
0.0219091
0.0427717
11.4373
0.0218523
0.022175
0.021994
0.0276149
0.0256281
0.0228104
0.022004
4.63193
0.0219615
0.0225969
0.0219361
0.0218963
0.0220363
0.0234708
0.0284063
8.02453
0.0222314
7.32984
0.0219373
0.0226529
0.0245696
0.0226059
0.0635
0.0647217
0.022422
0.0219224
0.0218243
0.0956594
0.0217144
0.0218288
0.505836
0.122597
0.0217092
0.0220018
0.0217605
0.0220897
0.0246782
0.0798968
0.0219637
0.0221268
0.0217427
0.0221672
0.0219622
0.0214997
0.0272744
4.91485
0.0216935
0.0222122
7.49899
0.0219031
0.0385058
0.0220693
0.0304063
0.0558577
20.2559
0.0222613
0.0220548
0.0217869
0.0221434
0.0220415
0.0214409
0.0221446
0.0221269
0.0232612
0.058173
0.0250995
0.0235405
6.99079
0.0220279
0.143738
0.0217191
0.0218073
0.0220148
5.23181
0.0218373
0.0548296
0.0230191
0.0226208
0.0219341
0.0217465
0.0217744
0.0223461
0.0218494
0.0218146
0.0480802
0.271069
6.66739
0.0217896
0.050335
0.0223054
0.022085
0.0217461
0.0220798