/*--------------------------------*- C++ -*----------------------------------*\
| =========                 |                                                 |
| \\      /  F ield         | OpenFOAM: The Open Source CFD Toolbox           |
|  \\    /   O peration     | Version:  v2012                                 |
|   \\  /    A nd           | Website:  www.openfoam.com                      |
|    \\/     M anipulation  |                                                 |
\*---------------------------------------------------------------------------*/
FoamFile
{
    version     2.0;
    format      ascii;
    class       volVectorField;
    location    "800";
    object      cellDisplacement;
}
// * * * * * * * * * * * * * * * * * * * * * * * * * * * * * * * * * * * * * //

dimensions      [0 1 0 0 0 0 0];


internalField   nonuniform List<vector> 
10042
(
(0 -0.00103708 0)
(0 -0.000940852 0)
(0 -0.0010699 0)
(0 -5.01892e-05 0)
(0 3.17542e-05 0)
(0 -0.000883496 0)
(0 -6.90864e-05 0)
(0 -4.13469e-05 0)
(0 -0.00111963 0)
(0 -0.000851716 0)
(0 3.52319e-05 0)
(0 -9.50453e-05 0)
(0 -0.000699453 0)
(0 -0.000436011 0)
(0 -0.000283061 0)
(0 -0.000952391 0)
(0 -0.000971959 0)
(0 -0.000101932 0)
(0 -0.00104238 0)
(0 2.89933e-05 0)
(0 -0.000828539 0)
(0 -0.000142607 0)
(0 -0.000230915 0)
(0 -0.000837138 0)
(0 -0.000919168 0)
(0 -0.000496404 0)
(0 -0.00069523 0)
(0 -0.000434817 0)
(0 -0.000986788 0)
(0 -0.000524414 0)
(0 -0.000948124 0)
(0 3.52483e-05 0)
(0 -0.000825767 0)
(0 -0.00061886 0)
(0 -0.000398362 0)
(0 -0.000823759 0)
(0 -0.000502416 0)
(0 -0.000530858 0)
(0 -0.000783687 0)
(0 -0.000131064 0)
(0 2.97345e-05 0)
(0 -0.000324839 0)
(0 -7.6946e-05 0)
(0 -0.000689243 0)
(0 3.19502e-05 0)
(0 -0.000305116 0)
(0 -0.000487453 0)
(0 -0.000329042 0)
(0 -0.00047361 0)
(0 -0.000612988 0)
(0 -0.00012351 0)
(0 -0.00136843 0)
(0 -0.0003275 0)
(0 -0.00119222 0)
(0 -0.000490108 0)
(0 -0.00089925 0)
(0 -0.000985041 0)
(0 -0.000504806 0)
(0 -0.000636012 0)
(0 -0.000338905 0)
(0 -0.000939047 0)
(0 -0.00101699 0)
(0 -0.000375768 0)
(0 -0.00107322 0)
(0 -0.000471113 0)
(0 -0.000653149 0)
(0 -0.00058378 0)
(0 2.17161e-05 0)
(0 3.43957e-05 0)
(0 -0.000842764 0)
(0 -0.00121381 0)
(0 3.07779e-05 0)
(0 -0.000680873 0)
(0 -4.7622e-05 0)
(0 -0.000599507 0)
(0 -0.000873639 0)
(0 3.22734e-05 0)
(0 -0.00104388 0)
(0 -7.62907e-05 0)
(0 -5.05116e-05 0)
(0 -0.000491825 0)
(0 3.11567e-05 0)
(0 -0.00072205 0)
(0 -0.000376909 0)
(0 -0.000581294 0)
(0 -0.000375345 0)
(0 -0.00102941 0)
(0 1.45425e-05 0)
(0 -0.000754833 0)
(0 -0.0010332 0)
(0 -0.000772284 0)
(0 3.13084e-05 0)
(0 -0.000420045 0)
(0 -0.00137619 0)
(0 -0.000539686 0)
(0 -0.000856696 0)
(0 -0.00108038 0)
(0 -0.000865839 0)
(0 -0.000142691 0)
(0 -0.00102054 0)
(0 -1.90038e-05 0)
(0 -3.81174e-06 0)
(0 -5.4312e-05 0)
(0 -0.000401252 0)
(0 -0.000448194 0)
(0 -2.16046e-05 0)
(0 -0.000991523 0)
(0 -0.00108187 0)
(0 -0.000799687 0)
(0 -0.001355 0)
(0 -0.000257069 0)
(0 -0.000959109 0)
(0 -0.000291009 0)
(0 3.46751e-05 0)
(0 -0.00048338 0)
(0 -0.000970802 0)
(0 -0.000918659 0)
(0 -0.00103881 0)
(0 -0.000869703 0)
(0 3.49828e-05 0)
(0 -0.000767314 0)
(0 -4.82131e-05 0)
(0 -0.000670538 0)
(0 -0.000928759 0)
(0 -7.86942e-06 0)
(0 -0.000709424 0)
(0 -3.87995e-05 0)
(0 -0.000371534 0)
(0 -2.50117e-05 0)
(0 -0.00102757 0)
(0 -6.81836e-05 0)
(0 -0.000655622 0)
(0 3.51602e-05 0)
(0 -5.1332e-05 0)
(0 -0.00101947 0)
(0 -3.80235e-05 0)
(0 3.5171e-05 0)
(0 -0.000752217 0)
(0 -0.000307297 0)
(0 1.72413e-05 0)
(0 -0.000409697 0)
(0 -0.000908875 0)
(0 -0.000466888 0)
(0 -4.285e-06 0)
(0 -0.00139917 0)
(0 -0.000967594 0)
(0 -6.00896e-05 0)
(0 -0.00145913 0)
(0 -0.000847331 0)
(0 -0.000252124 0)
(0 -0.00113535 0)
(0 -4.32968e-05 0)
(0 -1.17423e-05 0)
(0 3.50072e-05 0)
(0 -0.000509137 0)
(0 -0.000650367 0)
(0 -0.000349814 0)
(0 -0.00101878 0)
(0 -3.15275e-05 0)
(0 3.51968e-05 0)
(0 3.52451e-05 0)
(0 -6.62325e-05 0)
(0 -0.000978636 0)
(0 -0.00112143 0)
(0 -0.000685866 0)
(0 -0.00067427 0)
(0 5.90036e-06 0)
(0 3.51328e-05 0)
(0 3.52535e-05 0)
(0 3.49099e-05 0)
(0 -0.00118803 0)
(0 -0.00104879 0)
(0 3.07094e-05 0)
(0 3.06466e-05 0)
(0 -2.86604e-05 0)
(0 -0.000146874 0)
(0 3.50806e-05 0)
(0 -0.000678432 0)
(0 2.39553e-05 0)
(0 -0.000173996 0)
(0 -0.000331138 0)
(0 3.52286e-05 0)
(0 -0.00056421 0)
(0 -0.000370805 0)
(0 -0.00033937 0)
(0 3.49332e-05 0)
(0 -2.14684e-05 0)
(0 -0.000717621 0)
(0 3.52046e-05 0)
(0 -0.000559569 0)
(0 3.49865e-05 0)
(0 -0.000457919 0)
(0 -1.68049e-05 0)
(0 2.97867e-05 0)
(0 -0.000132889 0)
(0 2.5621e-05 0)
(0 -0.000589283 0)
(0 -0.00101514 0)
(0 -0.00058884 0)
(0 -0.000430527 0)
(0 -2.94164e-05 0)
(0 -0.000708038 0)
(0 -0.000968359 0)
(0 3.07761e-05 0)
(0 -0.000560828 0)
(0 -0.00111874 0)
(0 3.50507e-05 0)
(0 -0.000636135 0)
(0 -0.000119541 0)
(0 -0.000280549 0)
(0 2.39048e-05 0)
(0 -0.000183656 0)
(0 2.72212e-06 0)
(0 2.9988e-05 0)
(0 -0.000365499 0)
(0 -1.60099e-05 0)
(0 -0.000657273 0)
(0 -0.00100955 0)
(0 -6.23496e-05 0)
(0 -0.00104923 0)
(0 -0.00028694 0)
(0 -0.00034166 0)
(0 2.89951e-05 0)
(0 -0.000516475 0)
(0 -0.000182599 0)
(0 -0.000494453 0)
(0 -3.75347e-05 0)
(0 -0.00096953 0)
(0 -3.20837e-05 0)
(0 -0.00121343 0)
(0 -0.00113038 0)
(0 2.87066e-05 0)
(0 -0.00104817 0)
(0 -0.00123278 0)
(0 -0.00105109 0)
(0 -0.000243871 0)
(0 -0.00108732 0)
(0 -0.00037947 0)
(0 -0.000777777 0)
(0 -0.00103095 0)
(0 -0.000971071 0)
(0 -0.000660956 0)
(0 -0.000709564 0)
(0 -0.000274521 0)
(0 -0.000983978 0)
(0 -0.000948424 0)
(0 -0.000261381 0)
(0 -0.000431695 0)
(0 -0.00119903 0)
(0 -7.82947e-05 0)
(0 -0.000426374 0)
(0 -0.00086267 0)
(0 -0.000272438 0)
(0 3.007e-05 0)
(0 -6.18042e-05 0)
(0 3.52395e-05 0)
(0 -2.27429e-05 0)
(0 -3.51674e-05 0)
(0 -0.000268554 0)
(0 -0.000269629 0)
(0 -0.000118725 0)
(0 -0.000797175 0)
(0 -0.00099615 0)
(0 -0.000367379 0)
(0 -0.000437613 0)
(0 -0.0010859 0)
(0 -0.000140571 0)
(0 -0.000995977 0)
(0 -0.00102375 0)
(0 -0.000242289 0)
(0 -2.40827e-05 0)
(0 -0.00118489 0)
(0 2.91824e-05 0)
(0 -2.91855e-05 0)
(0 1.30267e-05 0)
(0 -0.000537086 0)
(0 -0.00105144 0)
(0 -0.00107617 0)
(0 -0.000770508 0)
(0 -0.00137432 0)
(0 -0.000162543 0)
(0 -0.000817918 0)
(0 -0.000483407 0)
(0 3.50864e-05 0)
(0 -0.00111383 0)
(0 -0.0010385 0)
(0 -0.000110984 0)
(0 -0.000284143 0)
(0 -0.000739102 0)
(0 -0.000931492 0)
(0 -0.000291189 0)
(0 -0.000159956 0)
(0 -0.000156468 0)
(0 -2.96072e-06 0)
(0 -0.000104521 0)
(0 -0.000538478 0)
(0 -0.000961285 0)
(0 -0.00110082 0)
(0 -4.20713e-05 0)
(0 -0.000927378 0)
(0 -0.000950943 0)
(0 -0.00105683 0)
(0 -0.000653525 0)
(0 -0.000580918 0)
(0 -0.000272723 0)
(0 -2.17682e-06 0)
(0 2.91756e-05 0)
(0 -0.000360585 0)
(0 1.2374e-05 0)
(0 -0.00100363 0)
(0 -0.000786482 0)
(0 -0.000733934 0)
(0 3.52493e-05 0)
(0 -1.22497e-05 0)
(0 2.8457e-05 0)
(0 3.51333e-05 0)
(0 -0.000922938 0)
(0 -0.000999758 0)
(0 -0.000828653 0)
(0 -0.000274156 0)
(0 -0.000480431 0)
(0 -0.00023958 0)
(0 -0.000137019 0)
(0 -0.000267066 0)
(0 -0.000306091 0)
(0 -0.000669434 0)
(0 1.553e-06 0)
(0 -7.27979e-05 0)
(0 -0.00057924 0)
(0 -0.00069396 0)
(0 -0.000288213 0)
(0 3.49366e-05 0)
(0 -0.000991297 0)
(0 -0.000558023 0)
(0 -0.000332058 0)
(0 -0.00109705 0)
(0 -7.31352e-05 0)
(0 -0.000133867 0)
(0 -3.59228e-05 0)
(0 7.03043e-06 0)
(0 -0.000560395 0)
(0 -0.00038951 0)
(0 -0.000675215 0)
(0 -0.000441362 0)
(0 -0.000778433 0)
(0 -8.46994e-05 0)
(0 -4.12144e-06 0)
(0 -0.000812258 0)
(0 -0.000636241 0)
(0 -0.000410644 0)
(0 -0.000958724 0)
(0 -0.00025198 0)
(0 -0.000360291 0)
(0 -0.000389089 0)
(0 -0.00120827 0)
(0 -0.000194777 0)
(0 -3.19348e-05 0)
(0 -0.000139546 0)
(0 -0.000460527 0)
(0 -0.000993469 0)
(0 9.63842e-06 0)
(0 -5.79857e-05 0)
(0 -0.0010264 0)
(0 -8.14748e-05 0)
(0 -0.00104743 0)
(0 -0.00104248 0)
(0 -0.00104198 0)
(0 -0.000242031 0)
(0 2.69064e-05 0)
(0 -0.00103925 0)
(0 -0.00020435 0)
(0 -0.000373619 0)
(0 -2.19335e-05 0)
(0 -0.000139892 0)
(0 2.93546e-05 0)
(0 -0.00101015 0)
(0 -0.00122412 0)
(0 3.51294e-05 0)
(0 -0.000918997 0)
(0 -5.94984e-05 0)
(0 -5.24945e-06 0)
(0 -4.48107e-05 0)
(0 -0.000176082 0)
(0 3.5245e-05 0)
(0 -0.000172004 0)
(0 2.91866e-05 0)
(0 -0.000621552 0)
(0 -0.000582026 0)
(0 -4.39535e-05 0)
(0 -0.000522469 0)
(0 -0.000324157 0)
(0 -0.000847155 0)
(0 -0.000257271 0)
(0 3.52275e-05 0)
(0 -0.000167452 0)
(0 -0.000850116 0)
(0 6.71746e-06 0)
(0 3.47856e-05 0)
(0 -0.000673754 0)
(0 -0.00142305 0)
(0 3.52473e-05 0)
(0 -7.75015e-06 0)
(0 -0.00105208 0)
(0 2.08159e-05 0)
(0 3.52008e-05 0)
(0 -0.00105073 0)
(0 -0.00014635 0)
(0 -0.00116068 0)
(0 -0.00101246 0)
(0 -0.000355201 0)
(0 -0.00111582 0)
(0 9.7479e-06 0)
(0 -4.84387e-05 0)
(0 -0.000505308 0)
(0 2.8422e-05 0)
(0 -0.000368978 0)
(0 -0.000940898 0)
(0 2.60291e-05 0)
(0 -0.00109024 0)
(0 -5.26115e-05 0)
(0 -0.000146804 0)
(0 -0.000372823 0)
(0 -0.00127972 0)
(0 -0.00140632 0)
(0 2.23286e-05 0)
(0 -0.00117758 0)
(0 -0.000163749 0)
(0 -0.000510806 0)
(0 3.52094e-05 0)
(0 -0.000384575 0)
(0 2.95409e-05 0)
(0 -0.000300513 0)
(0 -0.000970549 0)
(0 -0.000962659 0)
(0 2.97618e-05 0)
(0 -0.000968816 0)
(0 -0.000147146 0)
(0 -0.000909576 0)
(0 -0.00121515 0)
(0 3.52181e-05 0)
(0 -0.000552211 0)
(0 -0.000921859 0)
(0 -0.000175088 0)
(0 3.52489e-05 0)
(0 -0.00102009 0)
(0 -0.000528935 0)
(0 -0.000425054 0)
(0 -0.00107982 0)
(0 2.70796e-05 0)
(0 -0.000161289 0)
(0 -0.000903695 0)
(0 -0.000509035 0)
(0 -0.00101019 0)
(0 -0.000477452 0)
(0 -0.000998325 0)
(0 -0.000901321 0)
(0 3.52412e-05 0)
(0 -0.000907082 0)
(0 -0.00022185 0)
(0 -0.000128826 0)
(0 -6.26869e-05 0)
(0 -7.94494e-05 0)
(0 -9.21025e-05 0)
(0 -0.000188479 0)
(0 3.5136e-05 0)
(0 -0.000570597 0)
(0 -0.000859417 0)
(0 -0.00100002 0)
(0 -4.66462e-05 0)
(0 -0.00104288 0)
(0 -0.000954049 0)
(0 -8.52387e-05 0)
(0 -0.00108938 0)
(0 -0.00111008 0)
(0 -0.000325371 0)
(0 -0.00103602 0)
(0 -3.71726e-05 0)
(0 -0.000980351 0)
(0 -0.000974372 0)
(0 3.52507e-05 0)
(0 -0.000746164 0)
(0 -0.00121786 0)
(0 -0.000827281 0)
(0 -0.000534475 0)
(0 -0.000148474 0)
(0 -0.000893377 0)
(0 -0.00110372 0)
(0 2.82516e-05 0)
(0 -0.000486848 0)
(0 -1.00614e-05 0)
(0 -0.000787298 0)
(0 -4.00421e-05 0)
(0 -3.04155e-05 0)
(0 3.90371e-06 0)
(0 -0.000845498 0)
(0 -0.000916593 0)
(0 -0.000393807 0)
(0 -0.00103895 0)
(0 -0.000134793 0)
(0 -5.30483e-05 0)
(0 -0.00101707 0)
(0 -3.69665e-05 0)
(0 3.51703e-05 0)
(0 -0.000588545 0)
(0 -0.000138018 0)
(0 -0.000940461 0)
(0 -0.00122278 0)
(0 -0.000407015 0)
(0 -0.00101823 0)
(0 3.43645e-05 0)
(0 3.52151e-05 0)
(0 -0.000817146 0)
(0 -0.000386171 0)
(0 -0.000736243 0)
(0 -0.000754923 0)
(0 -0.000578989 0)
(0 -0.000277612 0)
(0 -7.34411e-05 0)
(0 2.10042e-05 0)
(0 3.50568e-05 0)
(0 -0.00126761 0)
(0 -0.00119764 0)
(0 -0.00109696 0)
(0 -0.000934739 0)
(0 3.45052e-05 0)
(0 -0.000153492 0)
(0 -0.0010234 0)
(0 -0.000908123 0)
(0 -0.000142697 0)
(0 -0.000613026 0)
(0 -6.38311e-05 0)
(0 -0.000563436 0)
(0 -0.000669687 0)
(0 3.52546e-05 0)
(0 3.46157e-05 0)
(0 3.14412e-05 0)
(0 -2.25836e-05 0)
(0 -0.000980724 0)
(0 -0.000999884 0)
(0 -0.000643832 0)
(0 -7.65686e-05 0)
(0 3.32721e-05 0)
(0 3.50598e-05 0)
(0 -0.000208445 0)
(0 -0.000137423 0)
(0 -0.000358035 0)
(0 -0.000604546 0)
(0 -0.000520785 0)
(0 -0.000388732 0)
(0 3.52403e-05 0)
(0 -0.000299905 0)
(0 -0.00101152 0)
(0 -0.000357215 0)
(0 -0.000379283 0)
(0 -0.000187467 0)
(0 -0.000806588 0)
(0 -0.000138023 0)
(0 -0.000156068 0)
(0 -0.000275327 0)
(0 -0.000944349 0)
(0 -0.000403858 0)
(0 -0.000814581 0)
(0 -2.7385e-05 0)
(0 1.72358e-05 0)
(0 -8.28296e-05 0)
(0 -0.000634711 0)
(0 -0.000522144 0)
(0 -0.000859725 0)
(0 -0.000571782 0)
(0 -0.000756845 0)
(0 -0.00089003 0)
(0 -0.000195895 0)
(0 -8.56216e-05 0)
(0 -1.14766e-05 0)
(0 -0.000649851 0)
(0 -0.000463825 0)
(0 -0.000360826 0)
(0 -0.000925295 0)
(0 2.87028e-05 0)
(0 -0.000760789 0)
(0 -0.000414149 0)
(0 -0.000154081 0)
(0 -0.00100794 0)
(0 -6.80337e-05 0)
(0 -0.000580669 0)
(0 -0.000933883 0)
(0 3.49867e-05 0)
(0 -0.000327782 0)
(0 -0.000390303 0)
(0 -8.83712e-06 0)
(0 -0.00104072 0)
(0 -9.99416e-05 0)
(0 -0.000687979 0)
(0 -0.00094917 0)
(0 -3.56282e-05 0)
(0 -0.000510294 0)
(0 -0.00059308 0)
(0 3.43304e-05 0)
(0 -0.000416722 0)
(0 -0.00095022 0)
(0 -0.000689582 0)
(0 -0.000144158 0)
(0 -0.00037326 0)
(0 -0.000920107 0)
(0 -0.000871448 0)
(0 -0.000998457 0)
(0 -0.000560693 0)
(0 -0.000711579 0)
(0 -0.000146368 0)
(0 -0.00122833 0)
(0 -0.000294984 0)
(0 -0.00136887 0)
(0 -0.00104378 0)
(0 2.57907e-05 0)
(0 -0.00115269 0)
(0 2.73197e-05 0)
(0 -0.000907009 0)
(0 -0.0010024 0)
(0 -0.000735833 0)
(0 -0.000438965 0)
(0 -0.000800631 0)
(0 -0.000306511 0)
(0 -0.000756854 0)
(0 -1.23412e-05 0)
(0 -0.000175355 0)
(0 -8.87972e-05 0)
(0 -0.0014764 0)
(0 -0.000299428 0)
(0 -0.000141295 0)
(0 -0.000638986 0)
(0 -0.00103867 0)
(0 -0.000504126 0)
(0 -0.000901511 0)
(0 2.91976e-05 0)
(0 3.51432e-05 0)
(0 -0.000201587 0)
(0 -0.000740217 0)
(0 -4.27674e-05 0)
(0 -0.000968396 0)
(0 -4.13616e-05 0)
(0 -0.000317286 0)
(0 -0.000814541 0)
(0 -9.43318e-05 0)
(0 1.97454e-05 0)
(0 3.25475e-05 0)
(0 -0.000606856 0)
(0 3.14077e-05 0)
(0 -0.000385245 0)
(0 -0.000622816 0)
(0 -0.000293551 0)
(0 -0.000811462 0)
(0 -0.000527745 0)
(0 -0.000826597 0)
(0 -0.000886753 0)
(0 -0.000481035 0)
(0 -6.52359e-05 0)
(0 -3.63839e-05 0)
(0 -0.000922011 0)
(0 -0.000857493 0)
(0 2.93712e-05 0)
(0 -0.000316915 0)
(0 -0.000201544 0)
(0 -0.000668706 0)
(0 -0.000234798 0)
(0 -5.78774e-05 0)
(0 -0.000928849 0)
(0 -0.00105356 0)
(0 -0.000531884 0)
(0 -0.00107101 0)
(0 3.52464e-05 0)
(0 -0.000319765 0)
(0 3.0441e-05 0)
(0 -0.000154379 0)
(0 3.25668e-05 0)
(0 3.5032e-05 0)
(0 -1.09693e-05 0)
(0 -0.000820759 0)
(0 -0.000273178 0)
(0 -3.82944e-05 0)
(0 -4.28427e-05 0)
(0 -0.000691825 0)
(0 -0.000894751 0)
(0 -7.69256e-05 0)
(0 3.52558e-05 0)
(0 -0.000969295 0)
(0 -0.000117451 0)
(0 1.22962e-05 0)
(0 -0.000968727 0)
(0 -0.0010449 0)
(0 -0.000844439 0)
(0 -0.000392697 0)
(0 -0.00104358 0)
(0 -0.00121082 0)
(0 3.6298e-06 0)
(0 2.63478e-05 0)
(0 -0.00122231 0)
(0 -0.000994255 0)
(0 3.51836e-05 0)
(0 -2.11343e-05 0)
(0 -0.000960451 0)
(0 -0.000870273 0)
(0 -0.00014591 0)
(0 -0.00100942 0)
(0 2.72988e-05 0)
(0 -0.000335857 0)
(0 2.97852e-05 0)
(0 -0.000440704 0)
(0 -0.00105042 0)
(0 -0.00117253 0)
(0 -0.000316893 0)
(0 -0.000919214 0)
(0 -0.000489945 0)
(0 -0.000396225 0)
(0 3.02398e-05 0)
(0 -0.00100111 0)
(0 -0.000674265 0)
(0 -5.86867e-05 0)
(0 -0.000982933 0)
(0 -0.000735256 0)
(0 1.41711e-05 0)
(0 -0.000959115 0)
(0 3.52012e-05 0)
(0 3.0893e-05 0)
(0 -0.000613025 0)
(0 -0.00100844 0)
(0 1.13885e-05 0)
(0 3.52501e-05 0)
(0 -6.18662e-05 0)
(0 -0.00105559 0)
(0 -3.05276e-05 0)
(0 3.08158e-05 0)
(0 -0.000155227 0)
(0 -0.000710244 0)
(0 -0.000294899 0)
(0 -0.000793618 0)
(0 2.96637e-05 0)
(0 -0.000742649 0)
(0 2.53765e-05 0)
(0 -0.000108017 0)
(0 3.48623e-05 0)
(0 2.56126e-05 0)
(0 -0.000934679 0)
(0 -0.0010354 0)
(0 2.80426e-05 0)
(0 -0.000664831 0)
(0 -0.000749708 0)
(0 -0.000245967 0)
(0 3.48058e-05 0)
(0 3.05927e-05 0)
(0 2.45453e-05 0)
(0 -0.00122542 0)
(0 -0.000248161 0)
(0 -5.0546e-05 0)
(0 -0.000768042 0)
(0 -9.69743e-05 0)
(0 -0.000476777 0)
(0 2.88805e-05 0)
(0 -0.0003278 0)
(0 -0.000955749 0)
(0 -0.0002597 0)
(0 -0.000601724 0)
(0 -6.29335e-05 0)
(0 -0.000190253 0)
(0 -0.000788232 0)
(0 -0.000235188 0)
(0 -0.000610378 0)
(0 -6.04788e-05 0)
(0 -0.000358565 0)
(0 -0.000874892 0)
(0 -0.000282119 0)
(0 3.41981e-06 0)
(0 3.32463e-05 0)
(0 -0.000385533 0)
(0 -5.44919e-05 0)
(0 -1.99223e-05 0)
(0 -1.52645e-05 0)
(0 -0.000351836 0)
(0 3.52487e-05 0)
(0 3.52062e-05 0)
(0 -0.000978114 0)
(0 -0.00070138 0)
(0 -0.000425879 0)
(0 -0.00028677 0)
(0 2.54677e-05 0)
(0 -0.000418401 0)
(0 -0.00054198 0)
(0 -0.000343414 0)
(0 -1.54233e-05 0)
(0 -4.90408e-05 0)
(0 -0.00125429 0)
(0 -0.000476494 0)
(0 -0.000878008 0)
(0 -8.20458e-05 0)
(0 -0.000757466 0)
(0 -0.000111148 0)
(0 -0.000575879 0)
(0 -0.000407222 0)
(0 -0.000422865 0)
(0 -0.0010717 0)
(0 3.45869e-05 0)
(0 -0.00103036 0)
(0 -0.000425067 0)
(0 -0.000889633 0)
(0 -0.000528481 0)
(0 -1.20643e-06 0)
(0 -0.000410579 0)
(0 -0.000357215 0)
(0 -0.000852204 0)
(0 -0.000606064 0)
(0 3.43882e-05 0)
(0 -2.67307e-05 0)
(0 3.26615e-05 0)
(0 -0.000302686 0)
(0 2.80656e-05 0)
(0 -0.000231905 0)
(0 -0.000440354 0)
(0 -0.000605742 0)
(0 -5.12271e-05 0)
(0 8.19578e-06 0)
(0 -0.000404711 0)
(0 3.15924e-05 0)
(0 -0.000103925 0)
(0 -0.000406754 0)
(0 -0.000139036 0)
(0 -1.28885e-05 0)
(0 -0.000816782 0)
(0 -0.000209221 0)
(0 -0.0010583 0)
(0 -0.000235548 0)
(0 -0.000162431 0)
(0 -3.60107e-06 0)
(0 -3.54628e-05 0)
(0 1.52038e-05 0)
(0 -0.000170189 0)
(0 -8.61223e-05 0)
(0 -7.22678e-05 0)
(0 -0.000343094 0)
(0 2.82098e-05 0)
(0 -0.00082504 0)
(0 3.40489e-05 0)
(0 -0.00100125 0)
(0 -0.000341888 0)
(0 -5.31452e-05 0)
(0 1.17551e-05 0)
(0 -0.000622262 0)
(0 3.47175e-05 0)
(0 -0.000113036 0)
(0 -0.00100464 0)
(0 -0.000522228 0)
(0 -0.000648149 0)
(0 -0.000829273 0)
(0 -0.000149908 0)
(0 -1.53084e-05 0)
(0 -0.000692574 0)
(0 3.52557e-05 0)
(0 -0.00059542 0)
(0 3.51413e-05 0)
(0 -0.00103552 0)
(0 -0.00102617 0)
(0 -5.60641e-05 0)
(0 -0.000368168 0)
(0 3.03858e-05 0)
(0 -0.00103755 0)
(0 -0.000129329 0)
(0 -1.94692e-07 0)
(0 -0.000407739 0)
(0 -7.23425e-06 0)
(0 -4.68444e-05 0)
(0 -0.000666781 0)
(0 -4.30355e-05 0)
(0 3.11479e-05 0)
(0 -0.000715665 0)
(0 -0.000861912 0)
(0 -0.00104587 0)
(0 -0.000208612 0)
(0 -0.00104752 0)
(0 -0.00100915 0)
(0 -0.000667715 0)
(0 -0.00105274 0)
(0 -0.000648054 0)
(0 -0.000387154 0)
(0 -0.000237453 0)
(0 -8.11439e-05 0)
(0 -0.00091444 0)
(0 2.62127e-05 0)
(0 -0.000729781 0)
(0 3.19961e-05 0)
(0 -2.86921e-05 0)
(0 3.4276e-05 0)
(0 -0.000191922 0)
(0 -0.00101807 0)
(0 3.52498e-05 0)
(0 -0.000353239 0)
(0 3.06464e-05 0)
(0 -1.06952e-05 0)
(0 -9.10434e-05 0)
(0 -0.000374975 0)
(0 -0.00105515 0)
(0 -0.000425452 0)
(0 -4.6805e-07 0)
(0 -0.000841035 0)
(0 3.48274e-05 0)
(0 -0.000855754 0)
(0 3.503e-05 0)
(0 -9.67931e-05 0)
(0 -0.000702198 0)
(0 -0.000796022 0)
(0 3.50275e-05 0)
(0 3.48559e-05 0)
(0 -0.000277696 0)
(0 -0.000935042 0)
(0 -0.000182735 0)
(0 -0.000855316 0)
(0 -0.000655785 0)
(0 -0.000225431 0)
(0 -3.12547e-05 0)
(0 -0.000343394 0)
(0 -0.0008328 0)
(0 -0.000850587 0)
(0 -0.000406451 0)
(0 2.9344e-05 0)
(0 -0.000612701 0)
(0 -0.000635024 0)
(0 -0.000324118 0)
(0 -8.35635e-05 0)
(0 -0.000495219 0)
(0 -0.000946821 0)
(0 3.49468e-05 0)
(0 -0.000527876 0)
(0 -0.000926632 0)
(0 3.51544e-05 0)
(0 -0.000301883 0)
(0 -0.00067181 0)
(0 3.52527e-05 0)
(0 -0.000132541 0)
(0 3.48395e-05 0)
(0 -0.000930198 0)
(0 -0.000342487 0)
(0 -7.63831e-06 0)
(0 -0.00105351 0)
(0 -0.00089058 0)
(0 -7.14447e-05 0)
(0 -0.000892791 0)
(0 -0.000945392 0)
(0 -0.000175524 0)
(0 -0.00123104 0)
(0 2.53385e-06 0)
(0 2.98829e-05 0)
(0 -0.0010485 0)
(0 -0.000741448 0)
(0 -0.000798805 0)
(0 -0.000924345 0)
(0 -0.000449672 0)
(0 -0.000654761 0)
(0 -4.53743e-05 0)
(0 -0.000149224 0)
(0 -0.000736032 0)
(0 -0.00100774 0)
(0 -0.00104321 0)
(0 -0.000819622 0)
(0 -0.000678054 0)
(0 3.47331e-05 0)
(0 -0.000526114 0)
(0 -0.00144402 0)
(0 -0.000997619 0)
(0 -1.09951e-05 0)
(0 1.32676e-05 0)
(0 -0.000888657 0)
(0 -0.000793079 0)
(0 -0.000901414 0)
(0 -0.0013868 0)
(0 3.09757e-05 0)
(0 -0.000668563 0)
(0 -0.00016961 0)
(0 -0.00014784 0)
(0 -0.000382588 0)
(0 2.07167e-05 0)
(0 -0.000538476 0)
(0 -8.09444e-05 0)
(0 -0.000245672 0)
(0 -0.000897138 0)
(0 -0.000742542 0)
(0 -0.000493237 0)
(0 -9.18802e-05 0)
(0 -0.000141896 0)
(0 -0.000881777 0)
(0 -0.000364456 0)
(0 3.11725e-05 0)
(0 -0.000130275 0)
(0 -0.000142827 0)
(0 -0.00029788 0)
(0 -8.36587e-06 0)
(0 -0.000115896 0)
(0 -0.0012505 0)
(0 -0.000596013 0)
(0 -0.000359307 0)
(0 -0.000887368 0)
(0 -0.00140542 0)
(0 -0.000247195 0)
(0 -0.00103056 0)
(0 2.70551e-05 0)
(0 2.10199e-05 0)
(0 -0.000277607 0)
(0 -0.000813313 0)
(0 -0.000365411 0)
(0 -0.000144451 0)
(0 -0.000716536 0)
(0 -0.000718407 0)
(0 -6.52515e-05 0)
(0 -0.000321387 0)
(0 -0.000779557 0)
(0 -0.000942212 0)
(0 3.10589e-05 0)
(0 2.35984e-05 0)
(0 -0.000167701 0)
(0 -0.000672333 0)
(0 -0.000142522 0)
(0 -0.00116636 0)
(0 -0.000740395 0)
(0 -0.000862792 0)
(0 -0.000155841 0)
(0 -0.000576759 0)
(0 -0.000726451 0)
(0 3.52637e-05 0)
(0 -0.000549524 0)
(0 -0.000574893 0)
(0 -2.60854e-05 0)
(0 -0.000934698 0)
(0 2.87666e-05 0)
(0 -9.88712e-05 0)
(0 -0.000461878 0)
(0 -4.02016e-05 0)
(0 -0.000689148 0)
(0 -0.000684915 0)
(0 -0.00126174 0)
(0 -0.000635476 0)
(0 3.13186e-05 0)
(0 -0.00100868 0)
(0 -0.000476041 0)
(0 3.10591e-05 0)
(0 -0.000178841 0)
(0 -7.58303e-05 0)
(0 3.41976e-05 0)
(0 -3.65211e-05 0)
(0 -0.000317334 0)
(0 2.43725e-05 0)
(0 -0.00120502 0)
(0 2.55406e-05 0)
(0 -0.000589425 0)
(0 -0.000723006 0)
(0 -0.000226711 0)
(0 3.52517e-05 0)
(0 -0.00035638 0)
(0 -0.000495758 0)
(0 -0.000580862 0)
(0 -0.000451 0)
(0 -2.54807e-05 0)
(0 -0.000165638 0)
(0 -8.5479e-05 0)
(0 -0.000815633 0)
(0 -0.000507528 0)
(0 -0.000179223 0)
(0 -0.000231528 0)
(0 -0.00103139 0)
(0 -0.000389699 0)
(0 -0.000938147 0)
(0 -1.15892e-05 0)
(0 3.50618e-05 0)
(0 -0.000693263 0)
(0 -0.000310256 0)
(0 -0.000334917 0)
(0 -0.000256632 0)
(0 -0.000627495 0)
(0 3.52711e-05 0)
(0 -0.000904414 0)
(0 -0.00104361 0)
(0 -0.000208671 0)
(0 -0.000659514 0)
(0 -0.000631997 0)
(0 -4.40747e-05 0)
(0 -0.00100336 0)
(0 -0.000589733 0)
(0 -2.6958e-05 0)
(0 -0.000161601 0)
(0 -0.000877875 0)
(0 -0.000604046 0)
(0 -0.000869986 0)
(0 -3.79084e-05 0)
(0 -0.00105856 0)
(0 -0.000144779 0)
(0 -0.000523218 0)
(0 -0.00068951 0)
(0 -0.000273643 0)
(0 -0.000765647 0)
(0 -3.36037e-05 0)
(0 -0.000915475 0)
(0 -0.000159813 0)
(0 -0.00108305 0)
(0 1.03441e-05 0)
(0 -0.000501894 0)
(0 2.04065e-05 0)
(0 -0.000579478 0)
(0 -0.000944049 0)
(0 -0.00138422 0)
(0 -0.000574816 0)
(0 -6.23921e-05 0)
(0 -0.00103578 0)
(0 -0.000613592 0)
(0 -0.000179571 0)
(0 -0.000469386 0)
(0 -0.00104493 0)
(0 -0.000380967 0)
(0 -6.74024e-05 0)
(0 3.52569e-05 0)
(0 2.93836e-05 0)
(0 -0.000279592 0)
(0 3.52509e-05 0)
(0 -0.000294641 0)
(0 -0.000475008 0)
(0 -7.36226e-05 0)
(0 -5.38501e-05 0)
(0 -0.000763397 0)
(0 3.52447e-05 0)
(0 -0.000860437 0)
(0 -0.000170195 0)
(0 -0.00087599 0)
(0 -0.000595957 0)
(0 -0.000876884 0)
(0 -0.000692925 0)
(0 -0.00049263 0)
(0 -0.00102372 0)
(0 3.15804e-05 0)
(0 -0.000713435 0)
(0 -0.000669388 0)
(0 2.98509e-06 0)
(0 -0.00099515 0)
(0 -0.000337633 0)
(0 -0.00101091 0)
(0 -0.00023982 0)
(0 -0.000855832 0)
(0 -1.22451e-05 0)
(0 -0.00038978 0)
(0 -0.000781147 0)
(0 -0.000480687 0)
(0 3.46339e-05 0)
(0 -5.2097e-06 0)
(0 -0.00115681 0)
(0 -0.000840227 0)
(0 -0.000820263 0)
(0 -0.000993253 0)
(0 2.89046e-05 0)
(0 -0.00105451 0)
(0 -0.000781675 0)
(0 -0.00020147 0)
(0 -0.000736578 0)
(0 -0.000750609 0)
(0 -0.00104207 0)
(0 -0.00100711 0)
(0 -8.15174e-05 0)
(0 -0.000891115 0)
(0 -0.00111147 0)
(0 -0.000379681 0)
(0 -0.000915679 0)
(0 -0.00148306 0)
(0 -6.04994e-05 0)
(0 3.03855e-05 0)
(0 -0.000563761 0)
(0 -0.000650055 0)
(0 -0.00126876 0)
(0 -0.000246647 0)
(0 -0.000424578 0)
(0 -0.000320639 0)
(0 -0.000869402 0)
(0 -6.66649e-05 0)
(0 -0.00044007 0)
(0 -0.000871979 0)
(0 -0.000474912 0)
(0 -0.000799493 0)
(0 -0.000808702 0)
(0 2.19452e-05 0)
(0 -0.000101092 0)
(0 -0.000231767 0)
(0 -0.000270471 0)
(0 -9.31898e-05 0)
(0 -0.000165241 0)
(0 -0.000114799 0)
(0 -0.000104025 0)
(0 -0.000351278 0)
(0 8.10069e-06 0)
(0 -0.000709616 0)
(0 -0.000757974 0)
(0 -0.000735091 0)
(0 -6.20417e-05 0)
(0 -5.4743e-05 0)
(0 -0.000115613 0)
(0 2.70405e-05 0)
(0 3.52017e-05 0)
(0 -6.07983e-08 0)
(0 -0.000710922 0)
(0 -0.000386796 0)
(0 -5.88403e-05 0)
(0 -0.00122789 0)
(0 2.37218e-05 0)
(0 -2.47081e-05 0)
(0 3.07163e-05 0)
(0 -0.000377487 0)
(0 3.48306e-05 0)
(0 -0.000159073 0)
(0 -0.000137199 0)
(0 2.72381e-05 0)
(0 -0.000180776 0)
(0 -0.000839824 0)
(0 -0.000282853 0)
(0 -0.000997337 0)
(0 2.91199e-05 0)
(0 -0.000639197 0)
(0 -9.60589e-05 0)
(0 -0.00104639 0)
(0 -0.000236349 0)
(0 -0.000947788 0)
(0 3.51386e-05 0)
(0 2.824e-05 0)
(0 -0.000291875 0)
(0 3.52262e-05 0)
(0 2.7897e-05 0)
(0 -0.000236564 0)
(0 -0.000202827 0)
(0 -6.97086e-05 0)
(0 -0.00110265 0)
(0 3.46292e-05 0)
(0 -0.000722545 0)
(0 7.40649e-06 0)
(0 3.52293e-05 0)
(0 -0.000310844 0)
(0 -0.000822161 0)
(0 -0.000830374 0)
(0 -0.000304758 0)
(0 -0.000825711 0)
(0 -0.000223147 0)
(0 -6.55333e-05 0)
(0 -0.000566569 0)
(0 -0.000960242 0)
(0 -0.000382072 0)
(0 -0.000791082 0)
(0 -0.000515257 0)
(0 -0.000211402 0)
(0 -0.00105728 0)
(0 -0.000907132 0)
(0 -0.000369065 0)
(0 -9.1632e-05 0)
(0 -0.000953991 0)
(0 -1.70998e-05 0)
(0 -0.000988629 0)
(0 -0.000130944 0)
(0 -0.000257479 0)
(0 -3.31774e-06 0)
(0 -0.000901374 0)
(0 -0.00104186 0)
(0 -7.26175e-05 0)
(0 1.52579e-05 0)
(0 -0.00104755 0)
(0 -0.000337557 0)
(0 2.16739e-05 0)
(0 -0.000152423 0)
(0 3.5049e-05 0)
(0 -0.00104919 0)
(0 -0.000197465 0)
(0 3.40435e-05 0)
(0 3.05847e-05 0)
(0 -0.000811441 0)
(0 -0.000805999 0)
(0 -0.000348808 0)
(0 -0.000176822 0)
(0 -6.28126e-05 0)
(0 -0.000504859 0)
(0 3.40423e-05 0)
(0 -0.000196423 0)
(0 -2.62196e-05 0)
(0 -0.000654174 0)
(0 -0.000775849 0)
(0 3.52372e-05 0)
(0 -0.000348884 0)
(0 -0.000650716 0)
(0 -0.000125148 0)
(0 3.48232e-05 0)
(0 -0.000931252 0)
(0 -0.00127737 0)
(0 -0.0014272 0)
(0 -0.000642596 0)
(0 -0.000322889 0)
(0 -8.62719e-05 0)
(0 -0.000585654 0)
(0 -0.000830985 0)
(0 -0.00103455 0)
(0 -0.000478298 0)
(0 3.49143e-05 0)
(0 -2.59612e-05 0)
(0 -0.000236705 0)
(0 3.50837e-05 0)
(0 -8.06959e-05 0)
(0 -0.00114276 0)
(0 -0.000999522 0)
(0 -0.000863608 0)
(0 -4.57291e-06 0)
(0 -9.45222e-06 0)
(0 -8.52514e-05 0)
(0 -0.00127756 0)
(0 -0.000712247 0)
(0 -0.000947258 0)
(0 -0.000608481 0)
(0 -7.15767e-05 0)
(0 -0.000940662 0)
(0 -3.4435e-06 0)
(0 -0.000815764 0)
(0 -0.000652611 0)
(0 2.64206e-05 0)
(0 3.51978e-05 0)
(0 -0.000701231 0)
(0 1.23711e-05 0)
(0 -6.45388e-05 0)
(0 -0.000164639 0)
(0 -0.000167979 0)
(0 -0.00114253 0)
(0 3.50904e-05 0)
(0 -9.07063e-05 0)
(0 -0.000940369 0)
(0 -0.00106362 0)
(0 -0.000879991 0)
(0 -0.000368915 0)
(0 -0.000143748 0)
(0 -0.000213928 0)
(0 -0.000941691 0)
(0 -0.000900439 0)
(0 -0.000735721 0)
(0 6.53262e-07 0)
(0 3.47167e-05 0)
(0 -0.00136781 0)
(0 -0.000583253 0)
(0 1.97625e-05 0)
(0 3.1978e-05 0)
(0 -0.000209155 0)
(0 -7.3352e-05 0)
(0 3.3767e-05 0)
(0 -0.00144769 0)
(0 -0.00044289 0)
(0 -0.000558397 0)
(0 -0.00035079 0)
(0 2.37629e-05 0)
(0 -0.000958777 0)
(0 -5.49592e-05 0)
(0 1.5206e-05 0)
(0 -5.81332e-05 0)
(0 -0.000389371 0)
(0 -0.000865505 0)
(0 2.2037e-05 0)
(0 -5.13987e-05 0)
(0 -0.000873673 0)
(0 -1.15431e-05 0)
(0 -0.000164161 0)
(0 3.49421e-05 0)
(0 -0.000746423 0)
(0 -0.000565733 0)
(0 -1.71721e-05 0)
(0 -0.000315768 0)
(0 -0.000295499 0)
(0 -0.000164041 0)
(0 -0.00107506 0)
(0 -0.000176661 0)
(0 2.72414e-05 0)
(0 -0.000219322 0)
(0 -0.00102342 0)
(0 -0.000301961 0)
(0 3.52174e-05 0)
(0 -0.00116794 0)
(0 -0.00100081 0)
(0 -0.00120497 0)
(0 5.61542e-06 0)
(0 -0.00107244 0)
(0 -0.00057739 0)
(0 -0.000560108 0)
(0 -0.00107256 0)
(0 2.75659e-05 0)
(0 3.14989e-05 0)
(0 -0.000523021 0)
(0 -2.10583e-06 0)
(0 3.46027e-05 0)
(0 3.50052e-05 0)
(0 -0.00104414 0)
(0 -0.000725319 0)
(0 -0.00105112 0)
(0 -0.000974298 0)
(0 -0.000754281 0)
(0 -0.000660801 0)
(0 -0.00089494 0)
(0 -0.000560778 0)
(0 -0.000851709 0)
(0 -0.000222061 0)
(0 3.51356e-05 0)
(0 -6.25829e-05 0)
(0 -0.000233279 0)
(0 -0.000619805 0)
(0 -0.000932017 0)
(0 -0.000330073 0)
(0 -0.000131626 0)
(0 -0.000540941 0)
(0 -0.001047 0)
(0 -5.59913e-05 0)
(0 -0.000124999 0)
(0 2.39135e-05 0)
(0 -0.000340604 0)
(0 -0.00138213 0)
(0 2.87856e-05 0)
(0 -0.000447838 0)
(0 -0.00114761 0)
(0 -0.000876311 0)
(0 -3.87534e-05 0)
(0 -0.000269928 0)
(0 -0.000327001 0)
(0 -0.000273735 0)
(0 -0.0008194 0)
(0 -0.000785916 0)
(0 -6.41772e-05 0)
(0 -0.000362751 0)
(0 -0.000903653 0)
(0 -1.52815e-06 0)
(0 -0.000818388 0)
(0 -0.000108147 0)
(0 2.79343e-05 0)
(0 -6.77606e-05 0)
(0 -0.000247728 0)
(0 -7.56519e-05 0)
(0 -0.000649115 0)
(0 7.26698e-07 0)
(0 -4.37011e-05 0)
(0 -8.30302e-05 0)
(0 3.52568e-05 0)
(0 -0.0008946 0)
(0 -0.00149056 0)
(0 -0.000977375 0)
(0 -0.000887639 0)
(0 -0.00076929 0)
(0 -0.000479753 0)
(0 -0.000301371 0)
(0 -0.000683958 0)
(0 3.49067e-05 0)
(0 -0.000745552 0)
(0 1.20012e-05 0)
(0 2.18877e-05 0)
(0 -0.0010584 0)
(0 3.13255e-05 0)
(0 -0.000544434 0)
(0 -5.67647e-05 0)
(0 3.51087e-05 0)
(0 -0.000946413 0)
(0 -0.000119794 0)
(0 -0.0014317 0)
(0 3.49365e-05 0)
(0 -0.000341803 0)
(0 -6.6709e-05 0)
(0 -0.00101635 0)
(0 4.50984e-06 0)
(0 -0.000595057 0)
(0 3.52233e-05 0)
(0 -0.00103716 0)
(0 -7.54395e-05 0)
(0 -0.00141659 0)
(0 -0.000654731 0)
(0 -8.70168e-05 0)
(0 -0.00103743 0)
(0 3.52573e-05 0)
(0 3.43089e-05 0)
(0 -0.000216585 0)
(0 2.3815e-05 0)
(0 -0.000166874 0)
(0 3.48608e-05 0)
(0 -0.000110772 0)
(0 -0.000955506 0)
(0 -3.09237e-05 0)
(0 -0.000187458 0)
(0 -0.000132202 0)
(0 -0.000823449 0)
(0 -0.000109803 0)
(0 -0.000619366 0)
(0 -8.44704e-05 0)
(0 -0.000705223 0)
(0 -0.000531381 0)
(0 -0.000556681 0)
(0 3.49774e-05 0)
(0 -1.35206e-05 0)
(0 -0.00081755 0)
(0 2.54719e-05 0)
(0 2.33359e-07 0)
(0 -0.000896156 0)
(0 -7.80614e-05 0)
(0 -0.000153821 0)
(0 -4.005e-05 0)
(0 -0.00017957 0)
(0 -0.00100247 0)
(0 3.41656e-05 0)
(0 -0.000835918 0)
(0 -0.000944557 0)
(0 -0.000655866 0)
(0 -1.44215e-05 0)
(0 -0.000168969 0)
(0 -0.00103925 0)
(0 -0.000162988 0)
(0 -0.000714064 0)
(0 -0.000130852 0)
(0 -0.000776356 0)
(0 3.46204e-05 0)
(0 -7.51421e-05 0)
(0 -0.000350075 0)
(0 -0.000118171 0)
(0 -6.29589e-05 0)
(0 -0.000613194 0)
(0 -0.000940206 0)
(0 2.84714e-05 0)
(0 -0.000120759 0)
(0 -0.00032292 0)
(0 -0.000743322 0)
(0 4.61766e-07 0)
(0 -0.000624478 0)
(0 -0.000731002 0)
(0 -0.00028436 0)
(0 -7.00168e-06 0)
(0 -4.47384e-05 0)
(0 -0.000183496 0)
(0 -0.00135766 0)
(0 -0.000884761 0)
(0 -0.00062452 0)
(0 -0.00075297 0)
(0 -0.000474162 0)
(0 2.56586e-05 0)
(0 -4.50232e-05 0)
(0 -0.00018549 0)
(0 -0.00103953 0)
(0 -0.000486347 0)
(0 -0.000917331 0)
(0 -7.67148e-05 0)
(0 -0.000609585 0)
(0 -0.000533387 0)
(0 -0.000687954 0)
(0 -4.18317e-05 0)
(0 -0.000187915 0)
(0 -0.000333495 0)
(0 -0.000150217 0)
(0 -2.9436e-05 0)
(0 -0.000520827 0)
(0 -0.000104425 0)
(0 -0.000375945 0)
(0 -0.00107847 0)
(0 -0.000292605 0)
(0 -0.000969169 0)
(0 -0.00105118 0)
(0 3.51807e-05 0)
(0 -0.00095929 0)
(0 3.44949e-05 0)
(0 -0.000690076 0)
(0 -0.000124973 0)
(0 -0.000299547 0)
(0 -0.000764581 0)
(0 -0.000567386 0)
(0 -0.000412291 0)
(0 -6.70141e-05 0)
(0 -0.000752693 0)