/*--------------------------------*- C++ -*----------------------------------*\
| =========                 |                                                 |
| \\      /  F ield         | OpenFOAM: The Open Source CFD Toolbox           |
|  \\    /   O peration     | Version:  v2012                                 |
|   \\  /    A nd           | Website:  www.openfoam.com                      |
|    \\/     M anipulation  |                                                 |
\*---------------------------------------------------------------------------*/
FoamFile
{
    version     2.0;
    format      ascii;
    class       volScalarField;
    location    "200";
    object      k;
}
// * * * * * * * * * * * * * * * * * * * * * * * * * * * * * * * * * * * * * //

dimensions      [0 2 -2 0 0 0 0];


internalField   nonuniform List<scalar> 
10042
(
0.000295107
0.0170637
0.000270709
0.000141627
0.000141786
0.00376089
0.000306653
0.00653958
0.000134529
0.000193534
0.00119034
0.0175461
0.000166876
0.000140533
0.000145785
0.000140471
0.00635737
0.000894471
0.000152796
0.00015684
0.00016678
0.000244304
0.000141515
0.00677317
0.000140844
0.000148051
0.000190107
0.000133862
0.00409469
0.00822673
0.000155557
0.000168661
0.000134289
0.000134235
0.00591187
0.00521054
0.000149323
0.000135431
0.000148657
0.000144398
0.00732226
0.000134411
0.000675084
0.0117912
0.00014121
0.000140838
0.000132496
0.000145503
0.000198374
0.0610123
0.00129833
0.000140598
0.00569289
0.000152342
0.0177459
0.00218353
0.00016579
0.000231785
0.000146053
0.00013054
0.000198248
0.00281335
0.000184495
0.00753362
0.000266098
0.000144356
0.000154842
0.000539214
0.000132294
0.000462408
0.0142634
0.000149099
0.000136989
0.000145812
0.000143852
0.00821142
0.00029449
0.000132463
0.000319798
0.000152835
0.00804008
0.00686182
0.000165974
0.000139954
0.000174151
0.000238033
0.000153627
0.000236584
0.000140539
0.000237413
0.000159717
0.000145901
0.000188358
0.000244108
0.000208666
0.000143281
0.0631783
0.0001553
0.00476296
0.000145609
0.00015927
0.000220216
0.000146284
0.000165084
0.000154994
0.000145116
0.052107
0.000143313
0.000293961
0.000145435
0.000145366
0.000273842
0.000214872
0.00698763
0.000255524
0.000132236
0.000185616
0.000153699
0.000231796
0.000132078
0.000130524
0.0225625
0.0234934
0.000141305
0.000254038
0.000141127
0.000141368
0.0155617
0.000140813
0.000177267
0.000135362
0.000142249
0.000142705
0.000142621
0.000274347
0.00610984
0.000155176
0.0462077
0.000150216
0.00668796
0.000192068
0.000137723
0.0510304
0.000133903
0.000158238
0.000135458
0.000172184
0.000132186
0.000147456
0.00665511
0.000142729
0.000143823
0.00015113
0.000170441
0.000224833
0.000158715
0.000157475
0.00136254
0.000142773
0.000150467
0.000151609
0.000150781
0.00349645
0.000140802
0.000149115
0.00486186
0.000136904
0.000166205
0.00525648
0.000133995
0.000212178
0.0090593
0.0252807
0.000134095
0.000152325
0.0250328
0.000141168
0.000135366
0.000141791
0.0001323
0.000149959
0.000155432
0.000145847
0.000131968
0.00520977
0.000159435
0.000149467
0.000130961
0.0981308
0.000145349
0.0148973
0.000165782
0.000135517
0.000154947
0.0166563
0.000145831
0.0635625
0.000914413
0.0907049
0.000140096
0.00175803
0.000202832
0.000513682
0.000136318
0.00594153
0.000142254
0.00943229
0.000170348
0.000145088
0.000142871
0.000167685
0.000135288
0.00145004
0.000234844
0.000150246
0.000412431
0.000135795
0.00494482
0.000143586
0.00140115
0.125986
0.000250011
0.127487
0.00040877
0.000141602
0.000203642
0.000146187
0.000154206
0.000179669
0.000146518
0.000135401
0.000141761
0.000159572
0.00015968
0.000141132
0.00597835
0.000152925
0.0666774
0.000156781
0.0066677
0.000924335
0.0105943
0.000130468
0.000158642
0.0235444
0.000142463
0.00994004
0.000156112
0.000151371
0.000145828
0.000154282
0.000135632
0.00434804
0.0198733
0.000147021
0.000152181
0.00014878
0.000147071
0.0611901
0.000141584
0.000256367
0.000135884
0.000140484
0.0001326
0.000167558
0.0207051
0.000240805
0.00534386
0.00016138
0.00014185
0.000143388
0.0362555
0.000139549
0.0448683
0.000146752
0.000185116
0.000148975
0.000140976
0.000162196
0.0195783
0.000133846
0.00994058
0.0484806
0.000148706
0.000160007
0.0849125
0.000108972
0.000132917
0.000288116
0.00014708
0.000164759
0.000179717
0.000162454
0.0113546
0.000261444
0.000140264
0.0159513
0.000154065
0.000143473
0.000136281
0.000150873
0.000146854
0.000130984
0.0013752
0.000132127
0.00405182
0.000140365
0.000165081
0.0148458
0.0107894
0.000154177
0.00014199
0.000143142
0.000140248
0.000182025
0.000257018
0.000132636
0.00468578
0.00656488
0.000132149
0.000152197
0.0609508
0.000185055
0.00306645
0.00511855
0.000152987
0.000181748
0.000141593
0.000153105
0.000163699
0.000142231
0.000143733
0.00029015
0.000145858
0.00825836
0.000279898
0.0558523
0.00228905
0.000135789
0.00349237
0.000191649
0.000168101
0.000130492
0.000175825
0.000155868
0.000135294
0.000138844
0.000143047
0.000162616
0.0813433
0.000147395
0.000259581
0.000162168
0.00013763
0.00805538
0.00018198
0.000146307
0.000165222
0.0728159
0.000155876
0.000144807
0.000150305
0.000149083
0.00709943
0.00291246
0.000149413
0.000140961
0.000155198
0.000156423
0.00898047
0.000130652
0.000167519
0.000139888
0.000149314
0.000226403
0.000141465
0.000201614
0.000137757
0.0207892
0.000221954
0.000144055
0.000394116
0.000179555
0.000141328
0.000174704
0.000132162
0.000144781
0.000132002
0.000142977
0.000132908
0.000146718
0.0215936
0.000147369
0.000223084
0.00263978
0.0169412
0.000142074
0.00634771
0.000150104
0.000169091
0.000140707
0.115363
0.000139805
0.0137112
0.0521858
0.000137767
0.000190634
0.000140712
0.00048914
0.000146441
0.00995224
0.00016002
0.0109511
0.00014708
0.00753734
0.000149634
0.000161735
0.0111624
0.000132957
0.000148319
0.00014348
0.00262436
0.000135363
0.00013186
0.000192953
0.000154619
0.000180023
0.00942929
0.000141438
0.000168101
0.0001547
0.000132459
0.000160278
0.00515195
0.000139806
0.000148735
0.00389189
0.000200492
0.000151782
0.00433541
0.000134056
0.000179315
0.000173206
0.0950393
0.0152926
0.00720142
0.00733984
0.00114089
0.00711398
0.000131761
0.000176525
0.0170928
0.0174053
0.000174028
0.000141504
0.000139084
0.000261217
0.00896791
0.000131988
0.000134216
0.000157442
0.000141881
0.000140642
0.000141432
0.000142625
0.000162634
0.000336229
0.000148661
0.000180042
0.000228295
0.000695458
0.000134711
0.0936385
0.00489944
0.00316433
0.000144195
0.000156024
0.000151319
0.015127
0.000143469
0.00076811
0.000147058
0.00444815
0.0001392
0.000154263
0.000134121
0.000175816
0.0135831
0.000149752
0.000139466
0.000142305
0.01238
0.000135795
0.000219154
0.000217075
0.000190487
0.000136797
0.000203473
0.0122484
0.00057274
0.000144523
0.000156164
0.0102952
0.0141116
0.000176761
0.00309878
0.000146595
0.00252068
0.000167936
0.000163295
0.000154145
0.0104833
0.000136602
0.000141391
0.000145934
0.0118429
0.000141374
0.000423805
0.000141879
0.000144202
0.000134943
0.000161557
0.00356701
0.000146338
0.00014869
0.00569348
0.000893395
0.000181414
0.000146177
0.000142961
0.00295992
0.000616704
0.000144294
0.000133543
0.000201148
0.000143486
0.000143299
0.00473381
0.000135265
0.0213631
0.000140765
0.000183295
0.000153558
0.125525
0.000141456
0.000156986
0.000144659
0.000136553
0.00499195
0.000130464
0.00620014
0.000176457
0.000134531
0.00017038
0.0608929
0.00237322
0.000183704
0.00014554
0.000133501
0.000132104
0.000136712
0.000168719
0.000145563
0.0204436
0.000143044
0.00013433
0.000647973
0.00015517
0.000171126
0.000154389
0.000139171
0.000592799
0.00706121
0.000150047
0.0113457
0.000143352
0.000158085
0.000134426
0.000134599
0.000142694
0.000142038
0.000144655
0.000145743
0.1023
0.000146699
0.000179872
0.00014068
0.000145197
0.000132714
0.000191031
0.00324003
0.000134588
0.000140875
0.00456528
0.000215303
0.000132869
0.0222733
0.000141239
0.00023608
0.000135525
0.000150668
0.000136415
0.0688508
0.000132776
0.000140748
0.00014202
0.0244688
0.000152983
0.000142505
0.000145997
0.00122968
0.000142053
0.000141547
0.000137164
0.000141609
0.000154846
0.000141291
0.000143572
0.00013459
0.0571243
0.0121307
0.0130924
0.000146418
0.000153319
0.00014318
0.00306125
0.000149652
0.00662242
0.00502919
0.0107825
0.000209332
0.00943844
0.000143351
0.000143936
0.0134833
0.000829485
0.000176379
0.000181678
0.000145853
0.00776144
0.000139593
0.000144649
0.000134828
0.000135697
0.00015125
0.013318
0.000148686
0.000147105
0.0394356
0.000142616
0.00344859
0.000141045
0.000148439
0.000168646
0.000145094
0.00732195
0.000141723
0.000141677
0.000193912
0.000144399
0.000132486
0.00015677
0.000139989
0.00013915
0.00841053
0.00763503
0.0167592
0.000145266
0.000140292
0.000139956
0.0076625
0.000149646
0.000143574
0.000137564
0.000138575
0.0089938
0.0714452
0.000201294
0.000146506
0.000159762
0.0633435
0.00015768
0.00017078
0.000179578
0.0079187
0.0064534
0.00830389
0.000139495
0.000145541
0.000142053
0.00753986
0.000139387
0.000154469
0.000142591
0.000130521
0.000172269
0.000144839
0.0975398
0.0986695
0.000132786
0.000141117
0.00013175
0.00671556
0.000135608
0.00887607
0.000152198
0.0953107
0.00014015
0.000139768
0.000134631
0.000141305
0.000143557
0.000131994
0.000143562
0.000147299
0.000241688
0.000153587
0.0123801
0.000143383
0.00035109
0.00899944
0.000152613
0.000424853
0.000140409
0.000141728
0.000141686
0.000147543
0.0121196
0.000142558
0.000146125
0.000135096
0.0243648
0.000139327
0.00756311
0.00017225
0.000140368
0.000227898
0.0073511
0.000140589
0.00013715
0.000181529
0.000167414
0.00129688
0.000203055
0.000312535
0.000194231
0.000145051
0.000144764
0.000144191
0.000163298
0.000142955
0.00167739
0.000254283
0.000130531
0.000137292
0.00014867
0.000173277
0.00016755
0.00808488
0.000146353
0.00014455
0.00441828
0.000140045
0.000181129
0.000165075
0.000161027
0.00707087
0.000149667
0.000140613
0.000145812
0.000175352
0.000140792
0.0112719
0.000146983
0.000174786
0.000154826
0.0253667
0.000144922
0.000161437
0.00014705
0.000147551
0.000171142
0.00013401
0.000170258
0.000141022
0.000146866
0.000140137
0.000143572
0.000150581
0.000178325
0.000152871
0.000145498
0.00725033
0.000134136
0.000140235
0.000140757
0.000131865
0.000199789
0.000143283
0.000147908
0.000193852
0.00718816
0.000143448
0.000220281
4.55831e-05
0.000138416
0.000141717
0.000131742
0.00372176
0.0087265
0.000154566
0.0001401
0.000182714
0.000367446
0.0534747
0.000147276
0.00454383
0.000349295
0.0132578
0.000148995
0.000132324
0.000138547
0.00784399
0.000471568
0.000146766
0.0742934
0.000510537
0.0065802
0.0124382
0.000142375
0.00023931
0.00358909
0.000214188
0.0212884
0.000163171
0.081229
0.000147522
0.00760086
0.000144282
0.000183498
0.000153917
0.00018794
0.000131055
0.000144982
0.000141041
0.014028
0.000142006
0.000130617
0.000666107
0.000143748
0.000158615
0.000148493
0.00130096
0.000142233
0.000149071
0.000145055
0.000142781
0.000142522
0.00015564
0.000139241
0.00428282
0.000444014
0.000233169
0.00014224
0.017878
0.000138903
0.000181116
0.00623447
0.000149921
0.000142762
0.000132232
0.00014275
0.000150091
0.00484611
0.000192987
0.000140086
0.0227911
0.000142142
0.000145249
0.00758764
0.000132006
0.000145707
0.0183533
0.000139817
0.00927291
0.0001502
0.000198797
0.000158402
0.000185941
0.000173264
0.000143252
0.0475175
0.0579466
0.000140779
0.000167621
0.101108
0.00714384
0.000265137
0.000151423
0.000138073
0.000152333
0.000144925
0.000145115
0.0074924
0.000153336
0.00013208
0.000164608
0.00323836
0.00910932
0.000132209
0.000131757
0.000148337
0.000146166
0.00580783
0.00927153
0.000135897
0.000155216
0.00163156
0.000144484
0.000154899
0.0856435
0.000151114
0.00445927
0.000140934
0.000145427
0.000145368
0.000142212
0.000179312
0.00020667
0.00014344
0.0102451
0.00859227
0.0222935
0.000153819
0.000150527
0.0862381
0.00016708
0.0125222
0.000161805
0.000143836
0.000141435
0.0241509
0.00142355
0.000148362
0.00015473
0.000169518
0.000141504
0.000207963
0.000148473
0.000141329
0.000150516
0.000165595
0.000140509
0.000141071
0.125247
0.00013921
0.000137899
0.000179788
0.000156471
0.00926398
0.000154255
0.000146106
0.0227103
0.000182309
0.000155062
0.000169221
0.00816733
0.000140567
0.00013454
0.000156083
0.00162951
0.000139716
0.000144701
0.000141328
0.000138609
0.000140067
0.0183535
0.00014469
0.00544344
0.000144406
0.000177217
0.00013612
0.000146702
0.000198484
0.0110846
0.000264462
0.000142886
0.00015256
0.00279732
0.000261591
0.000146328
0.000148457
0.00831327
0.000140719
0.000159408
0.000197172
0.000137998
0.000150943
0.000140751
0.000198034
0.0535675
0.00544767
0.000138637
0.000148223
0.000157063
0.000194951
0.000138637
0.000137115
0.00017259
0.000131178
0.00013814
0.0058783
0.000144793
0.0170509
0.000135363
0.00013733
0.000134869
0.000170397
0.000145965
0.000141656
0.0015408
0.000138286
0.000145414
0.010829
0.000141762
0.000192052
0.000155944
0.010158
0.00823818
0.000153916
0.00450008
0.000157322
0.000144391
0.103144
0.00014816
0.000140914
0.000132415
0.000140511
0.000167541
0.0248181
0.000175879
0.00794333
0.012668
0.0052819
0.00011971
0.00735087
0.000152989
0.00488622
0.000133921
0.000158652
0.000145254
0.000146617
0.000147321
0.00412243
0.00844066
0.00014292
0.0108474
0.000137631
0.000256429
0.000144704
0.000153258
0.000150597
0.000194048
0.0105063
0.000142048
0.000133015
0.0322628
0.00018941
0.000165449
0.000155594
0.00940252
0.000145821
0.00610528
0.00261237
0.000139048
0.000137896
0.000140141
0.000156065
0.000141794
0.000149011
0.000150425
0.000139874
0.000146035
0.000145778
0.000138963
0.00490682
0.00893022
0.000133078
0.000839648
0.000150952
0.000169895
0.000187939
0.000478038
0.000138995
0.00017199
0.000197288
0.000135339
0.000180521
0.00852349
0.000146232
0.000138027
0.000150323
0.00813651
0.0122919
0.000135641
0.0071961
0.000145495
0.000145533
0.0198447
0.000139393
0.00013792
0.000137769
0.00013871
0.000144297
0.00610662
0.000167078
0.000139279
0.000142994
0.000139487
0.000141396
0.00723147
0.000132782
0.000165178
0.00824146
0.00614449
0.000137651
0.0120137
0.000137472
0.000846596
0.000149927
0.00021163
0.000133833
0.0127884
0.065307
0.0524529
0.000143901
0.000243816
0.00612459
0.00756159
0.000145672
0.00554144
0.000141171
0.00939523
0.00771111
0.000173681
0.0336521
0.00544719
0.0046985
0.0971331
0.000231679
0.00681292
0.000137781
0.000152424
0.00541307
0.00019918
0.000142893
0.00461605
0.000148428
0.000139285
0.000136845
0.000211071
0.000199358
0.000169252
0.00422849
0.00016321
0.008015
0.000149054
0.000140896
0.000140102
0.00496495
0.00457517
0.000162986
0.00797493
0.000146529
0.000147224
0.000166654
0.0081333
0.000179566
0.000139284
0.00598147
0.011367
0.000148711
0.000207157
0.000135539
0.000164663
0.000218251
0.00013901
0.00463534
0.00282217
0.000142629
0.000148998
0.000140142
0.0108752
0.000154825
0.00790389
0.00208116
0.000140457
0.000139784
0.000133587
0.000169203
0.000137616
0.000161919
0.000159295
0.000153853
0.00552563
0.000148011
0.000159214
0.00636317
0.000148494
0.000185876
0.000150941
0.00014402
0.0697156
0.00871685
0.000146656
0.0293037
0.000150712
0.00363153
0.000139361
0.000138347
0.000178509
0.000154461
0.000184706
0.00472749
0.000147215
0.000155364
0.000934277
0.000180938
0.000153327
0.00871113
0.000235018
0.00611988
0.000140244
0.000132543
0.000231427
0.000138233
0.00802388
0.00474192
0.000207344
0.00404293
0.000147129
0.000138833
0.00755295
0.00511196
0.000140875
0.0225384
0.000166672
0.000142063
0.000185979
0.000149011
0.000145101
0.000174361
0.000154097
0.000137534
0.000151879
0.000140673
0.000153634
0.00773242
0.000161776
0.00994335
0.000143196
0.000158156
0.000139947
0.000142717
0.00736916
0.000144826
0.00806393
0.00293054
0.000148913
0.00479956
0.000163778
0.00283232
0.000131858
0.00725401
0.000188921
5.45574e-05
0.000152572
0.000150191
0.000138774
0.00049498
0.00015325
0.00580512
0.000165341
0.000135933
0.00197901
0.0001316
0.106044
0.000140631
0.0105867
0.000142251
0.000137438
0.000134638
0.00775363
0.00013931
0.000135764
0.00013406
0.000139818
0.000143316
0.000199285
0.0023068
0.00013631
0.000156469
0.000145965
0.000140509
0.000138655
0.00560991
0.0587443
0.000155223
0.00014366
0.000138745
0.000134778
0.000155059
0.000154756
0.000134372
0.00925788
0.0127744
0.00394791
0.000135687
0.000139839
0.000142997
0.000151303
0.000137886
0.000148533
0.000143228
0.000139153
0.000189405
0.000149636
0.000174842
0.0342165
0.0618074
0.000138269
0.000140481
0.000141353
0.106854
0.000142158
0.000161074
0.00016663
0.000136987
0.00014336
0.000141136
0.0199882
0.00014393
0.00408429
0.00575589
0.000173359
0.000143059
0.000155554
0.0064566
0.000153148
0.000171109
0.000155748
0.000166537
0.000136733
0.000156054
0.000380507
0.00490148
0.000138344
0.000144708
0.0158448
0.000154034
0.000171921
0.000167599
0.00413736
0.000142825
0.000155574
0.00201128
0.00480419
0.000189024
0.000136682
0.000140863
0.000137408
0.000145618
0.000315998
0.0026187
0.00220546
0.000137788
0.112507
0.000154924
0.00825496
0.00894727
0.000141029
0.0336487
0.000690719
0.000138551
0.00020818
0.000166573
0.000145454
0.0083503
0.000139392
0.0402111
0.000153235
0.0187404
0.00702235
0.000174495
0.000143588
0.00015564
0.000148452
0.000139818
0.000135263
0.000135225
0.000444263
0.000147871
0.000172159
0.00729865
0.0582372
0.000172101
0.000165802
0.00013655
0.0545876
0.00013217
0.00804745
0.0675741
0.050803
0.0158344
0.00803382
0.000787194
0.00013396
0.000145146
0.000134653
0.000207848
0.000152034
0.0108199
0.00015399
0.121814
0.00015763
0.000136133
0.000135396
0.000145028
0.000133972
0.00438966
0.00547282
0.0674149
0.000138636
0.000167707
0.000153197
0.000150915
0.000208548
0.000144029
0.00249247
0.0103835
0.000148034
0.000139105
0.00803806
0.000157509
0.000352889
0.0100623
0.000146776
0.00341285
0.000153031
0.115733
0.000140377
0.00018786
0.000142721
0.00103158
0.000203573
0.0243383
0.00840398
0.104301
0.000184184
0.000219785
0.000137715
0.000140138
0.0114302
0.00609341
0.000204864
0.000157512
0.117735
0.00296543
0.00905319
0.000168895
0.0226033
0.000156436
0.00016691
0.00184146
0.00014744
0.000155138
0.000166696
0.000132598
0.000136916
0.000140333
0.000143241
0.0510013
0.000148107
0.00632294
0.00020996
0.000282226
0.00669718
0.00993438
0.000134929
0.000147325
0.00800563
0.000307881
0.000161935
0.00924101
0.0429529
0.0107176
0.000139373
0.000164793
0.000154134
0.000207786
7.75051e-05
0.00895726
0.0075038
0.000175255
0.000144914
0.000150896
0.000291962
0.000268834
0.000175039
0.00666219
0.000140409
0.000166914
0.000150798
0.0198063
0.000151862
0.00013606
0.000139961
0.000150493
0.0204126
0.00746589
0.000146848
0.0001966
0.0078323
0.000150408
0.000604301
0.000167224
0.000164956
0.000165503
0.000167165
0.00146237
0.000141354
0.000138933
0.000149181
0.000252801
0.000208366
0.000167993
0.000148707
0.000150903
0.000146465
0.0156786
0.00016975
0.000151872
0.000146081
0.000316841
0.00015592
0.00868752
0.000150314
0.000162985
0.00014086
0.00274986
0.000455884
0.000173385
0.0580337
0.000137657
0.000163314
0.00257464
0.00015667
0.00531948
0.00446724
0.000145661
0.000150363
0.0257649
0.000143038
0.0202954
0.000145694
0.0205155
0.00672741
0.00200548
0.000151355
0.000140584
0.000141766
0.000142944
0.00015449
0.000132209
0.000145517
0.000140401
0.000138407
0.000152503
0.000151098
0.000145553
0.000149976
0.0230637
0.000144879
0.0480659
0.000147884
0.000144806
0.00191744
0.000141274
0.0505993
0.00889703
0.0001446
0.0001486
0.00016921
0.00348027
0.000167219
0.0630327
0.000161596
0.000148801
0.0195207
0.000138116
0.129191
0.00014526
0.000296671
0.000133301
0.0043213
0.0710685
0.00992783
0.000147178
0.00015255
0.000139065
0.000151626
0.00125248
0.00014021
0.000143144
0.00017218
0.00016517
0.0202997
0.00295502
0.00014816
0.000175355
0.00014413
0.000157691
0.000149347
0.000143179
0.000148413
0.0512169
0.0283196
0.000248577
0.000151886
0.000148389
0.000150129
0.000168814
0.0493319
0.000193663
0.00526771
0.0038106
0.00015048
0.000152389
0.000194465
0.000139175
0.000152526
0.000166642
0.000150107
0.00675618
0.00015036
0.00980704
0.000135421
0.000148167
0.000190609
0.0001508
0.000152324
0.000153471
0.000158371
0.00661519
0.000149158
0.000138922
0.000145262
0.0844953
0.00396572
0.000153885
0.000145886
0.000138496
0.000151533
0.000143204
0.000201498
0.00014005
0.000136211
0.000144942
0.000165155
0.000160681
0.00014518
0.0642286
0.000147649
0.000148654
0.000475377
0.00015192
0.000153919
0.000281622
0.000147636
0.0198573
0.000139275
0.000138565
0.000148423
0.000167936
0.000136788
0.00494666
0.00014842
0.000141046
0.0035478
0.00805689
0.00527537
0.00572374
0.00867936
0.000157203
0.000137561
0.000151349
0.00591022
0.000160223
0.00830261
0.000149353
0.000162973
0.000198821
0.000170013
0.000138346
0.120185
0.00230895
0.000140397
0.000157007
0.000147042
0.000148793
0.000230231
0.000296962
0.00014491
0.000139049
0.000133848
0.00748482
0.000146543
0.00269446
0.000166394
0.000146179
0.000140256
0.000141098
0.0352827
0.000150949
0.0001398
0.00174383
0.00120747
0.00014824
0.00754033
0.00014578
0.000137655
0.00013835
0.000145051
0.000134672
0.000143853
0.000146486
0.000150259
0.000145716
0.000187306
0.000151296
0.00757572
0.000164416
0.000142733
0.000350117
0.000133779
0.000135765
0.000193415
0.000140213
0.00393514
0.000141028
0.000207647
0.097572
0.000137968
0.000435986
0.0050755
0.000144545
0.000147546
0.00014317
0.00035373
0.000145388
0.00833226
0.00907545
0.000148595
0.000159002
0.00017749
0.000660578
0.000144311
0.00181087
0.000146372
0.000879572
0.000320582
0.000155031
0.00852954
0.000139795
0.000200074
0.00653212
0.00020748
0.000144787
0.000175326
0.000150799
0.000174297
0.000136839
0.000155085
0.0300595
0.000157906
0.00106652
0.0010574
0.00016757
0.0064094
0.000137418
0.000231637
0.000145141
0.000156772
0.000304625
0.00676682
0.126519
0.000166172
0.000155797
0.0280541
0.000167372
0.000140515
0.000137344
0.000147903
0.000149644
0.00015501
0.000141258
0.021051
0.000156487
0.000141245
0.000134297
0.000142892
0.000142534
0.000264908
0.000138711
0.011126
0.000149378
0.0205486
0.000145478
0.00014468
0.00013152
0.000186009
0.000143888
0.0669522
0.0181383
0.00501603
0.00015603
0.000148421
0.000143635
0.000140152
0.00013967
0.00804746
0.000147122
0.000147766
0.00347435
0.000144057
0.000149416
0.111591
0.000390534
0.0218151
0.00013766
0.0282373
0.00225548
0.000140855
0.000138447
0.00016421
0.0168825
0.00129523
0.00883822
0.000292142
0.000143245
0.000138721
0.000816244
0.000159949
0.000147207
0.000171696
0.000146597
0.000151322
0.0086811
0.0023481
0.000176178
0.000157038
0.000155105
0.000181025
0.0186195
0.000145009
0.000140044
0.000143904
0.000696837
0.000139793
0.000154179
0.0197406
0.112526
0.000137066
0.000139923
0.000131666
0.000145206
0.000144366
0.000170533
0.000283069
0.00014903
0.000907613
0.00589625
0.000252831
0.000165938
0.000147858
0.000144447
0.000142008
0.000138926
0.000133759
0.000144989
0.00584575
0.0139238
0.00013768
0.000137492
0.000146392
0.000145468
0.00944423
0.000172504
0.0216684
0.00780841
0.000511297
0.000196547
0.00014274
0.000141984
0.000142308
0.000145315
0.0149849
0.00014303
0.000153464
0.000309484
0.0133087
0.00878692
0.000278904
0.00418948
0.00947914
0.000143182
0.000166832
0.0199924
0.00354311
0.000144103
0.000144907
0.000135833
0.000144243
0.000144603
0.00911781
0.000141357
0.000141371
0.00958935
0.000152861
0.0283754
0.000142551
0.000137987
0.000168077
0.000324994
0.000211469
0.0092243
0.000156337
0.019663
0.000169201
0.000140487
0.00916422
0.000141284
0.000152266
0.000145502
0.000137732
0.126413
0.00998619
0.11136
0.000230575
0.00734741
0.00246518
0.00947898
0.000139389
0.000145874
0.000415018
0.000143088
0.000146286
0.000152529
0.000143776
0.0165182
0.000145429
0.00924569
0.000324
0.000133877
0.0239222
0.000144915
0.000141745
0.000162576
0.000161728
0.000163667
0.000165932
0.000166663
0.00242523
0.000145451
0.000142617
0.000134954
0.000168377
0.000894227
0.000140012
0.000146454
0.000198352
0.0110277
0.000140947
0.00016752
0.000167891
0.000135849
0.000143343
0.000141802
0.0126266
0.016801
0.000167735
0.000149751
0.000143473
0.000163433
0.00507095
0.000145075
0.00458586
0.00668941
0.000145133
0.000164536
0.0342434
0.0239252
0.00017282
0.000134644
0.000138707
0.0146167
0.000123829
0.0302653
0.000157599
0.0061312
0.00018629
0.0145184
0.00572342
0.12094
0.000611918
0.020515
0.00865472
0.00833627
0.000147522
0.00875006
0.000143373
0.0112833
0.000150515
0.000148974
0.000167367
0.0161952
0.00482815
0.000150988
0.000144712
0.00256105
0.0134402
0.00420145
0.000138894
0.000140733
0.000142988
0.000155865
0.000144787
0.000167188
0.0201075
0.00809995
0.000154992
0.000140103
0.000183452
0.000146404
0.000143673
0.00186386
0.000143629
0.000153249
0.000134066
0.0048703
0.00018885
0.00863793
0.000144923
0.0019439
0.00223109
0.000163061
0.00679353
0.048101
0.00142362
0.0165018
0.000140841
0.000144759
0.000204503
0.000144174
0.000145432
0.000141686
0.000146561
0.00016141
0.000168807
0.000140663
0.00303836
0.000139171
0.00140985
0.000146934
0.00848862
0.0184727
0.000178855
0.0358286
0.023986
0.000204746
0.00181564
0.0301221
0.000147442
0.000145538
0.000189746
0.000160428
0.0133649
0.000140577
0.000146404
0.0166144
0.00014311
0.000138842
0.000146073
0.000133468
0.00402832
0.000145353
0.000165762
0.000146049
0.0550894
0.000142461
0.00887868
0.00230789
0.00257011
0.0257676
0.000134264
0.000166956
0.000146006
0.000143157
0.0121885
0.000954045
0.000320753
0.00338455
0.000133334
0.000149214
0.000154023
0.00014427
0.00346314
0.000140274
0.000162581
0.0283118
0.00477655
0.000239569
0.000142472
0.000146027
0.0253049
0.000172909
0.000328494
0.00550653
0.00746066
0.0236653
0.000149104
0.000140335
0.000140165
0.000145805
0.00168793
0.000150863
0.000374289
0.000143937
0.000145543
0.00268875
0.000133941
0.00106829
0.000164389
0.000145141
0.000167363
0.0168123
0.000138595
0.000148997
0.0155629
0.000144303
0.000144715
0.000170874
0.113836
0.000154701
0.000189349
0.000136939
0.0196476
0.00807531
0.000216671
0.000144305
0.000138601
0.000166649
0.000144769
0.00203607
0.00618021
0.00845576
0.0205137
0.000142736
0.000170018
0.000140661
0.000248125
0.000144176
0.0106815
0.00439141
0.00014392
0.00534868
0.000143015
0.0689625
0.000167853
0.000136696
0.000245058
0.000139363
0.000140131
0.000137903
0.0001326
0.00015398
0.0239939
0.000144528
0.000137749
0.000192855
0.000134359
0.000146099
0.000149027
0.000141867
0.000143848
0.0041948
0.000175827
0.000133144
0.00015006
0.000149903
0.000143522
0.022908
0.0114098
0.000143827
0.000140446
0.000145894
0.00025404
0.00014523
0.000147318
0.000149801
0.000201997
0.000133308
0.000150343
0.0046065
0.000144778
0.0018143
0.000142543
0.000144159
0.000140846
0.000141728
0.000138147
0.000143158
0.019893
0.00586049
0.000137893
0.000146831
0.000154132
0.00232765
0.000164414
0.000189328
0.000142791
0.000148368
0.000208409
0.00014813
0.00954151
0.000162927
0.000141203
0.000139851
0.0203444
0.000148153
0.0201671
0.000255723
0.000141113
0.00412472
0.0182574
0.00566115
0.000545439
0.000212934
0.000164105
0.000140667
0.119229
0.000144397
0.000152966
0.000174543
0.000134178
0.0001432
0.0114211
0.000138848
0.000546
0.0108062
0.000148128
0.000143936
0.00151789
0.000142439
0.000275557
0.000136465
0.00119917
0.00109077
0.00520985
0.000142584
0.000139743
0.00014871
0.0078323
0.00675533
0.00317926
0.0109597
0.000177329
0.000143093
0.000406477
0.0493347
0.000143543
0.000133677
0.000166973
0.000140938
0.071197
0.000255302
0.000136906
0.00380219
0.000139634
0.000139195
0.000136346
0.000142839
0.000143105
0.000493027
0.000141912
0.00390064
0.000139394
0.000148088
0.000146143
0.000145767
0.000141816
0.000142844
0.000224205
0.000138057
0.000737209
0.00719017
0.000230292
0.000166015
0.000252982
0.000175205
0.000142467
0.000134225
0.000142618
0.000134593
0.0501856
0.000938906
0.000152441
0.000150775
0.00470088
0.00014832
0.00379575
0.000144919
0.000140928
0.000144833
0.000223111
0.000320053
0.0208847
0.00224905
0.00016776
0.000227034
0.000232221
0.000143534
0.000141282
0.000138815
0.000162845
0.000164778
0.0434243
0.00657113
0.000166992
0.000140052
0.00017559
0.000141944
0.000220913
0.000141897
0.000508661
0.000148715
0.00268957
0.000163684
0.000147889
0.000167712
0.000247884
0.000161634
0.0216982
0.00014102
0.000138623
0.000143653
0.000142956
0.00580005
0.000137633
0.0001457
0.000158738
0.000133159
0.0210299
0.00541487
0.000187731
0.000144091
0.000144958
0.00551283
0.000345304
0.000141114
0.00014273
0.00186365
0.000142859
0.000143248
0.00161578
0.000166237
0.00552737
0.00484407
0.00462438
0.000169614
0.00014075
0.000144192
0.000161364
0.000141033
0.000140447
0.00858793
0.014777
0.00013656
0.000141542
0.000140144
0.000149447
0.0355419
0.000141405
0.00014938
0.000144683
0.00013656
0.000140815
0.000252379
0.000151072
0.000140202
0.000133926
0.00014765
0.000138589
0.000168015
0.00403944
0.000199838
0.000139088
0.000142116
0.000143824
0.00014106
0.00790167
0.000143568
0.00438555
0.00455481
0.000141115
0.000138184
0.0104797
0.000138465
0.000139545
0.000140315
0.00130008
0.000166392
0.000158702
0.000140483
0.000132958
0.000143733
0.00367667
0.000141414
0.000145877
0.000175501
0.00643625
0.00020977
0.000133309
0.00671656
0.000130702
0.00532611
0.000140311
0.000134506
0.000138315
0.000145552
0.000142718
0.0043867
0.000183756
0.00526684
0.000177658
0.000170146
0.037945
0.000143715
0.00667759
0.00193797
0.000147343
0.00747815
0.000190254
0.000547857
0.000142232
0.00992063
0.000145645
0.000138555
0.000136622
0.000211378
0.00788253
0.000154486
0.004459
0.0427228
0.00020513
0.000143029
0.000153261
0.000173473
0.0013979
0.00341448
0.000163058
0.000145138
0.000167268
0.00309164
0.000139721
0.0240356
0.000149705
0.000182137
0.000137927
0.00013703
0.00016156
0.000159993
0.0714403
0.0131133
0.000760791
0.000140219
0.000141864
0.00227077
0.0047254
0.0098858
0.000139417
0.000151882
0.000138647
0.000140629
0.000140879
0.00586704
0.000123195
0.000619442
0.00045643
0.00289307
0.00100062
0.000140021
0.000145265
0.0001391
0.000138024
0.000160857
0.000141384
0.000144278
0.000143506
0.00014001
0.000157769
0.00258883
0.000200663
0.000139422
0.000140752
0.00855306
0.000177161
0.000152724
0.000170665
0.00725072
0.00174964
0.000140949
0.000159985
0.00339075
0.000139513
0.00250361
0.000141731
0.000141065
0.000140087
0.00815543
0.000140129
0.000138738
0.000148327
0.000145618
0.000140468
0.000139439