/*--------------------------------*- C++ -*----------------------------------*\
| =========                 |                                                 |
| \\      /  F ield         | OpenFOAM: The Open Source CFD Toolbox           |
|  \\    /   O peration     | Version:  v2012                                 |
|   \\  /    A nd           | Website:  www.openfoam.com                      |
|    \\/     M anipulation  |                                                 |
\*---------------------------------------------------------------------------*/
FoamFile
{
    version     2.0;
    format      ascii;
    class       volVectorField;
    location    "50";
    object      cellDisplacement;
}
// * * * * * * * * * * * * * * * * * * * * * * * * * * * * * * * * * * * * * //

dimensions      [0 1 0 0 0 0 0];


internalField   nonuniform List<vector> 
10042
(
(0 -0.000939601 0)
(0 -0.000847751 0)
(0 -0.000980715 0)
(0 -4.50026e-05 0)
(0 -9.07453e-07 0)
(0 -0.000796251 0)
(0 -8.97025e-05 0)
(0 -6.53249e-05 0)
(0 -0.00102475 0)
(0 -0.000768365 0)
(0 2.17631e-06 0)
(0 -8.5789e-05 0)
(0 -0.000635697 0)
(0 -0.000396145 0)
(0 -0.000279029 0)
(0 -0.000858806 0)
(0 -0.000876492 0)
(0 -9.21769e-05 0)
(0 -0.000944013 0)
(0 -3.32829e-06 0)
(0 -0.000751332 0)
(0 -0.000154784 0)
(0 -0.000209143 0)
(0 -0.000762869 0)
(0 -0.000828275 0)
(0 -0.000470631 0)
(0 -0.000627179 0)
(0 -0.000414487 0)
(0 -0.000906276 0)
(0 -0.00049419 0)
(0 -0.000855667 0)
(0 2.19105e-06 0)
(0 -0.000744779 0)
(0 -0.000579711 0)
(0 -0.000384202 0)
(0 -0.000750952 0)
(0 -0.000476063 0)
(0 -0.000500434 0)
(0 -0.00071452 0)
(0 -0.000146164 0)
(0 -2.67375e-06 0)
(0 -0.000316085 0)
(0 -9.6633e-05 0)
(0 -0.000637548 0)
(0 -7.34295e-07 0)
(0 -0.000300002 0)
(0 -0.000458677 0)
(0 -0.000320026 0)
(0 -0.000450731 0)
(0 -0.000571698 0)
(0 -0.000111983 0)
(0 -0.00124314 0)
(0 -0.000317964 0)
(0 -0.00108712 0)
(0 -0.000465182 0)
(0 -0.000810459 0)
(0 -0.000904848 0)
(0 -0.000473894 0)
(0 -0.000595008 0)
(0 -0.000328061 0)
(0 -0.00084654 0)
(0 -0.000916912 0)
(0 -0.000364116 0)
(0 -0.000983801 0)
(0 -0.000443912 0)
(0 -0.000610368 0)
(0 -0.000542703 0)
(0 -9.7436e-06 0)
(0 1.43808e-06 0)
(0 -0.00077402 0)
(0 -0.0011062 0)
(0 -1.75287e-06 0)
(0 -0.000629996 0)
(0 -7.08386e-05 0)
(0 -0.000556532 0)
(0 -0.000795999 0)
(0 -4.46534e-07 0)
(0 -0.000944791 0)
(0 -9.61867e-05 0)
(0 -7.33198e-05 0)
(0 -0.000466956 0)
(0 -1.43858e-06 0)
(0 -0.000669211 0)
(0 -0.000361845 0)
(0 -0.000540576 0)
(0 -0.000338128 0)
(0 -0.000934064 0)
(0 -1.62388e-05 0)
(0 -0.00069296 0)
(0 -0.000937503 0)
(0 -0.00071679 0)
(0 -1.30473e-06 0)
(0 -0.000401548 0)
(0 -0.00125007 0)
(0 -0.000507523 0)
(0 -0.000790283 0)
(0 -0.000976233 0)
(0 -0.000796944 0)
(0 -0.00015653 0)
(0 -0.000936628 0)
(0 -1.72424e-05 0)
(0 -3.2525e-05 0)
(0 -7.67349e-05 0)
(0 -0.000361416 0)
(0 -0.000425612 0)
(0 -4.85636e-05 0)
(0 -0.000899656 0)
(0 -0.000978069 0)
(0 -0.000725014 0)
(0 -0.00122605 0)
(0 -0.00023531 0)
(0 -0.000877759 0)
(0 -0.000288817 0)
(0 1.68387e-06 0)
(0 -0.0004547 0)
(0 -0.000886902 0)
(0 -0.00083437 0)
(0 -0.000940661 0)
(0 -0.000801887 0)
(0 1.95516e-06 0)
(0 -0.000703855 0)
(0 -7.13794e-05 0)
(0 -0.000621824 0)
(0 -0.000841203 0)
(0 -3.61252e-05 0)
(0 -0.000657844 0)
(0 -6.30971e-05 0)
(0 -0.000360152 0)
(0 -5.15973e-05 0)
(0 -0.00093317 0)
(0 -8.90287e-05 0)
(0 -0.000605578 0)
(0 2.11287e-06 0)
(0 -7.42599e-05 0)
(0 -0.000935554 0)
(0 -6.30849e-05 0)
(0 2.12238e-06 0)
(0 -0.000698857 0)
(0 -0.000300753 0)
(0 -1.38332e-05 0)
(0 -0.000391317 0)
(0 -0.000825894 0)
(0 -0.00044152 0)
(0 -3.2873e-05 0)
(0 -0.00127042 0)
(0 -0.000885148 0)
(0 -8.25369e-05 0)
(0 -0.00132139 0)
(0 -0.000780518 0)
(0 -0.000253944 0)
(0 -0.00103862 0)
(0 -3.91906e-05 0)
(0 -3.91583e-05 0)
(0 1.97656e-06 0)
(0 -0.00045933 0)
(0 -0.000591067 0)
(0 -0.000337414 0)
(0 -0.000918813 0)
(0 -5.73143e-05 0)
(0 2.14517e-06 0)
(0 2.18827e-06 0)
(0 -8.75356e-05 0)
(0 -0.000884194 0)
(0 -0.00102637 0)
(0 -0.000638133 0)
(0 -0.000621929 0)
(0 -2.39237e-05 0)
(0 2.0884e-06 0)
(0 2.19568e-06 0)
(0 1.89001e-06 0)
(0 -0.00108397 0)
(0 -0.000954356 0)
(0 -1.83699e-06 0)
(0 -1.87116e-06 0)
(0 -5.43415e-05 0)
(0 -0.000158339 0)
(0 2.0392e-06 0)
(0 -0.000628412 0)
(0 -7.76951e-06 0)
(0 -0.000184721 0)
(0 -0.000320945 0)
(0 2.17357e-06 0)
(0 -0.000525516 0)
(0 -0.000359526 0)
(0 -0.000328824 0)
(0 1.91115e-06 0)
(0 -4.78918e-05 0)
(0 -0.000667514 0)
(0 2.1523e-06 0)
(0 -0.000527712 0)
(0 1.9591e-06 0)
(0 -0.000433487 0)
(0 -4.3622e-05 0)
(0 -2.6553e-06 0)
(0 -0.000146728 0)
(0 -6.3329e-06 0)
(0 -0.000553393 0)
(0 -0.000919605 0)
(0 -0.000535163 0)
(0 -0.000412509 0)
(0 -5.48873e-05 0)
(0 -0.000659081 0)
(0 -0.000886384 0)
(0 -1.75837e-06 0)
(0 -0.000522601 0)
(0 -0.00102145 0)
(0 2.01564e-06 0)
(0 -0.000573185 0)
(0 -0.00010796 0)
(0 -0.00025284 0)
(0 -7.85359e-06 0)
(0 -0.000167144 0)
(0 -2.67343e-05 0)
(0 -2.47794e-06 0)
(0 -0.000351189 0)
(0 -4.30667e-05 0)
(0 -0.000607034 0)
(0 -0.000910922 0)
(0 -8.43652e-05 0)
(0 -0.000958373 0)
(0 -0.000285218 0)
(0 -0.000330078 0)
(0 -3.36675e-06 0)
(0 -0.000487654 0)
(0 -0.000190233 0)
(0 -0.000468781 0)
(0 -6.2017e-05 0)
(0 -0.000886209 0)
(0 -5.73163e-05 0)
(0 -0.00110552 0)
(0 -0.00103423 0)
(0 -3.59909e-06 0)
(0 -0.000953301 0)
(0 -0.00112259 0)
(0 -0.000964171 0)
(0 -0.000246678 0)
(0 -0.000994001 0)
(0 -0.000345077 0)
(0 -0.00072083 0)
(0 -0.000941939 0)
(0 -0.000877466 0)
(0 -0.000613173 0)
(0 -0.000659043 0)
(0 -0.000274168 0)
(0 -0.00089853 0)
(0 -0.000855738 0)
(0 -0.000238829 0)
(0 -0.000411198 0)
(0 -0.00109348 0)
(0 -7.08516e-05 0)
(0 -0.000387246 0)
(0 -0.00079169 0)
(0 -0.000271209 0)
(0 -2.40904e-06 0)
(0 -8.36238e-05 0)
(0 2.1833e-06 0)
(0 -4.90841e-05 0)
(0 -6.01606e-05 0)
(0 -0.000266264 0)
(0 -0.000268464 0)
(0 -0.000133479 0)
(0 -0.000738132 0)
(0 -0.00090345 0)
(0 -0.000333942 0)
(0 -0.00041879 0)
(0 -0.000992584 0)
(0 -0.000152935 0)
(0 -0.000913513 0)
(0 -0.000929615 0)
(0 -0.000218421 0)
(0 -5.01585e-05 0)
(0 -0.00108078 0)
(0 -3.19582e-06 0)
(0 -5.48334e-05 0)
(0 -1.75687e-05 0)
(0 -0.000507714 0)
(0 -0.00096007 0)
(0 -0.000983725 0)
(0 -0.000713327 0)
(0 -0.0012486 0)
(0 -0.00017445 0)
(0 -0.00074908 0)
(0 -0.000459151 0)
(0 2.04727e-06 0)
(0 -0.00101691 0)
(0 -0.000953199 0)
(0 -0.000126647 0)
(0 -0.000281393 0)
(0 -0.000686591 0)
(0 -0.000840055 0)
(0 -0.000287781 0)
(0 -0.000169895 0)
(0 -0.00016819 0)
(0 -3.16941e-05 0)
(0 -9.47634e-05 0)
(0 -0.000489427 0)
(0 -0.00087904 0)
(0 -0.00100815 0)
(0 -6.60223e-05 0)
(0 -0.000845785 0)
(0 -0.000857193 0)
(0 -0.000961994 0)
(0 -0.000603811 0)
(0 -0.000544272 0)
(0 -0.00027027 0)
(0 -3.12021e-05 0)
(0 -3.16203e-06 0)
(0 -0.000347106 0)
(0 -1.79794e-05 0)
(0 -0.000915514 0)
(0 -0.000727565 0)
(0 -0.000661884 0)
(0 2.19138e-06 0)
(0 -3.99615e-05 0)
(0 -3.83608e-06 0)
(0 2.0876e-06 0)
(0 -0.000840502 0)
(0 -0.000916753 0)
(0 -0.000761737 0)
(0 -0.000272058 0)
(0 -0.000456423 0)
(0 -0.000215736 0)
(0 -0.000151671 0)
(0 -0.000244371 0)
(0 -0.000278934 0)
(0 -0.000620274 0)
(0 -2.78648e-05 0)
(0 -6.57447e-05 0)
(0 -0.000545211 0)
(0 -0.000639031 0)
(0 -0.000283991 0)
(0 1.91259e-06 0)
(0 -0.000904676 0)
(0 -0.000503206 0)
(0 -0.000301828 0)
(0 -0.00100478 0)
(0 -9.45058e-05 0)
(0 -0.000147567 0)
(0 -6.08575e-05 0)
(0 -2.27083e-05 0)
(0 -0.000526211 0)
(0 -0.000376189 0)
(0 -0.000622597 0)
(0 -0.000401126 0)
(0 -0.000722537 0)
(0 -7.66093e-05 0)
(0 -3.25602e-05 0)
(0 -0.000744306 0)
(0 -0.000595276 0)
(0 -0.000391763 0)
(0 -0.000877699 0)
(0 -0.000252731 0)
(0 -0.000347288 0)
(0 -0.000372694 0)
(0 -0.0011023 0)
(0 -0.000200984 0)
(0 -5.77713e-05 0)
(0 -0.00015395 0)
(0 -0.000439175 0)
(0 -0.000900446 0)
(0 -2.04017e-05 0)
(0 -8.0644e-05 0)
(0 -0.000941561 0)
(0 -0.000101933 0)
(0 -0.00094662 0)
(0 -0.000947925 0)
(0 -0.000941951 0)
(0 -0.000243848 0)
(0 -5.2124e-06 0)
(0 -0.000950702 0)
(0 -0.000184032 0)
(0 -0.00035861 0)
(0 -1.98623e-05 0)
(0 -0.000126326 0)
(0 -3.01031e-06 0)
(0 -0.000915061 0)
(0 -0.00111492 0)
(0 2.08549e-06 0)
(0 -0.000836508 0)
(0 -8.12767e-05 0)
(0 -3.35497e-05 0)
(0 -6.8363e-05 0)
(0 -0.000184164 0)
(0 2.18808e-06 0)
(0 -0.000182653 0)
(0 -3.16987e-06 0)
(0 -0.000560479 0)
(0 -0.000544309 0)
(0 -3.9655e-05 0)
(0 -0.000489318 0)
(0 -0.000314579 0)
(0 -0.000763788 0)
(0 -0.000257103 0)
(0 2.17232e-06 0)
(0 -0.000151498 0)
(0 -0.000770806 0)
(0 -2.29626e-05 0)
(0 1.78139e-06 0)
(0 -0.000628681 0)
(0 -0.00128956 0)
(0 2.1902e-06 0)
(0 -3.59718e-05 0)
(0 -0.000957551 0)
(0 -1.05357e-05 0)
(0 2.14478e-06 0)
(0 -0.000959961 0)
(0 -0.000131824 0)
(0 -0.00105781 0)
(0 -0.000921284 0)
(0 -0.00032331 0)
(0 -0.00101842 0)
(0 -2.03017e-05 0)
(0 -7.15636e-05 0)
(0 -0.000474291 0)
(0 -3.83413e-06 0)
(0 -0.000334975 0)
(0 -0.000857516 0)
(0 -5.99547e-06 0)
(0 -0.000998203 0)
(0 -7.5212e-05 0)
(0 -0.000159529 0)
(0 -0.000358147 0)
(0 -0.00116343 0)
(0 -0.00127461 0)
(0 -9.31131e-06 0)
(0 -0.00107456 0)
(0 -0.000175205 0)
(0 -0.00048133 0)
(0 2.15655e-06 0)
(0 -0.000367996 0)
(0 -2.87385e-06 0)
(0 -0.000294474 0)
(0 -0.00087837 0)
(0 -0.000879889 0)
(0 -2.68215e-06 0)
(0 -0.000876144 0)
(0 -0.000158669 0)
(0 -0.000831572 0)
(0 -0.00110839 0)
(0 2.1642e-06 0)
(0 -0.000520583 0)
(0 -0.000837585 0)
(0 -0.000160157 0)
(0 2.19155e-06 0)
(0 -0.000927278 0)
(0 -0.000499914 0)
(0 -0.000407616 0)
(0 -0.000987082 0)
(0 -5.02461e-06 0)
(0 -0.000171101 0)
(0 -0.000820448 0)
(0 -0.000477189 0)
(0 -0.000924926 0)
(0 -0.000433824 0)
(0 -0.000900427 0)
(0 -0.000817879 0)
(0 2.18462e-06 0)
(0 -0.000821587 0)
(0 -0.000201376 0)
(0 -0.0001435 0)
(0 -8.41424e-05 0)
(0 -9.96088e-05 0)
(0 -8.3242e-05 0)
(0 -0.000197668 0)
(0 2.08281e-06 0)
(0 -0.000535079 0)
(0 -0.000782822 0)
(0 -0.000905841 0)
(0 -7.01259e-05 0)
(0 -0.000956197 0)
(0 -0.000863204 0)
(0 -0.000104097 0)
(0 -0.000998095 0)
(0 -0.0010131 0)
(0 -0.000315711 0)
(0 -0.000942316 0)
(0 -6.21141e-05 0)
(0 -0.000889989 0)
(0 -0.000881002 0)
(0 2.19309e-06 0)
(0 -0.000681842 0)
(0 -0.0011104 0)
(0 -0.000745785 0)
(0 -0.000502292 0)
(0 -0.000161916 0)
(0 -0.00081079 0)
(0 -0.0010107 0)
(0 -4.0186e-06 0)
(0 -0.000460716 0)
(0 -3.76746e-05 0)
(0 -0.000729516 0)
(0 -3.62482e-05 0)
(0 -2.75628e-05 0)
(0 -2.5677e-05 0)
(0 -0.000772741 0)
(0 -0.000832889 0)
(0 -0.000356892 0)
(0 -0.000952503 0)
(0 -0.000148312 0)
(0 -7.55613e-05 0)
(0 -0.000924349 0)
(0 -6.19023e-05 0)
(0 2.12177e-06 0)
(0 -0.00055087 0)
(0 -0.000124456 0)
(0 -0.000852753 0)
(0 -0.00111517 0)
(0 -0.000366767 0)
(0 -0.000927303 0)
(0 1.41183e-06 0)
(0 2.16159e-06 0)
(0 -0.000736779 0)
(0 -0.000373146 0)
(0 -0.000681869 0)
(0 -0.000698476 0)
(0 -0.000538602 0)
(0 -0.000253965 0)
(0 -9.36735e-05 0)
(0 -1.04967e-05 0)
(0 2.02147e-06 0)
(0 -0.00115247 0)
(0 -0.00109294 0)
(0 -0.00100421 0)
(0 -0.000850619 0)
(0 1.53413e-06 0)
(0 -0.00016629 0)
(0 -0.000938805 0)
(0 -0.000836904 0)
(0 -0.00013119 0)
(0 -0.00056841 0)
(0 -8.51744e-05 0)
(0 -0.000530453 0)
(0 -0.000604433 0)
(0 2.19666e-06 0)
(0 1.63141e-06 0)
(0 -1.18568e-06 0)
(0 -4.94399e-05 0)
(0 -0.000884476 0)
(0 -0.000918247 0)
(0 -0.000598536 0)
(0 -9.72062e-05 0)
(0 4.50228e-07 0)
(0 2.02364e-06 0)
(0 -0.000212985 0)
(0 -0.000150078 0)
(0 -0.000322439 0)
(0 -0.000567724 0)
(0 -0.000487459 0)
(0 -0.000350066 0)
(0 2.18406e-06 0)
(0 -0.000273667 0)
(0 -0.000922092 0)
(0 -0.000346047 0)
(0 -0.000341889 0)
(0 -0.000194222 0)
(0 -0.000746742 0)
(0 -0.000151025 0)
(0 -0.000168659 0)
(0 -0.000248131 0)
(0 -0.000868138 0)
(0 -0.000389044 0)
(0 -0.000749684 0)
(0 -5.37219e-05 0)
(0 -1.38385e-05 0)
(0 -7.46329e-05 0)
(0 -0.000590818 0)
(0 -0.000493857 0)
(0 -0.000792409 0)
(0 -0.000514917 0)
(0 -0.000703245 0)
(0 -0.000804347 0)
(0 -0.000201926 0)
(0 -0.000105092 0)
(0 -3.89861e-05 0)
(0 -0.000587002 0)
(0 -0.000440336 0)
(0 -0.000327194 0)
(0 -0.000841243 0)
(0 -3.59238e-06 0)
(0 -0.000689204 0)
(0 -0.000397886 0)
(0 -0.000164946 0)
(0 -0.000916852 0)
(0 -8.96277e-05 0)
(0 -0.000542117 0)
(0 -0.000842415 0)
(0 1.95875e-06 0)
(0 -0.000320741 0)
(0 -0.000352162 0)
(0 -3.67486e-05 0)
(0 -0.000954845 0)
(0 -9.02543e-05 0)
(0 -0.000633727 0)
(0 -0.000859257 0)
(0 -3.22092e-05 0)
(0 -0.000483887 0)
(0 -0.000550982 0)
(0 1.37848e-06 0)
(0 -0.000397667 0)
(0 -0.000861117 0)
(0 -0.000642806 0)
(0 -0.000158037 0)
(0 -0.000361448 0)
(0 -0.000833857 0)
(0 -0.000802827 0)
(0 -0.000916929 0)
(0 -0.000526767 0)
(0 -0.000654501 0)
(0 -0.000159962 0)
(0 -0.00111892 0)
(0 -0.000289083 0)
(0 -0.00124154 0)
(0 -0.000944341 0)
(0 -6.13889e-06 0)
(0 -0.00105065 0)
(0 -4.81105e-06 0)
(0 -0.000823014 0)
(0 -0.000919844 0)
(0 -0.000672246 0)
(0 -0.000419559 0)
(0 -0.000721807 0)
(0 -0.000301848 0)
(0 -0.000702448 0)
(0 -3.98513e-05 0)
(0 -0.000158297 0)
(0 -0.000107083 0)
(0 -0.00133655 0)
(0 -0.000293812 0)
(0 -0.000127603 0)
(0 -0.00059103 0)
(0 -0.000938314 0)
(0 -0.000478364 0)
(0 -0.000814444 0)
(0 -3.1473e-06 0)
(0 2.09717e-06 0)
(0 -0.000206692 0)
(0 -0.000687288 0)
(0 -6.69537e-05 0)
(0 -0.00088696 0)
(0 -6.59808e-05 0)
(0 -0.000310714 0)
(0 -0.000734808 0)
(0 -0.000112141 0)
(0 -1.15984e-05 0)
(0 -1.87431e-07 0)
(0 -0.000565243 0)
(0 -1.21998e-06 0)
(0 -0.000372459 0)
(0 -0.000580253 0)
(0 -0.00026432 0)
(0 -0.000749679 0)
(0 -0.000499419 0)
(0 -0.000760433 0)
(0 -0.000807643 0)
(0 -0.000457399 0)
(0 -8.6681e-05 0)
(0 -3.29449e-05 0)
(0 -0.000838244 0)
(0 -0.000790316 0)
(0 -2.9818e-06 0)
(0 -0.000309292 0)
(0 -0.00020932 0)
(0 -0.000620489 0)
(0 -0.000211578 0)
(0 -7.98182e-05 0)
(0 -0.000846421 0)
(0 -0.000959745 0)
(0 -0.000501007 0)
(0 -0.000981868 0)
(0 2.18905e-06 0)
(0 -0.000312616 0)
(0 -2.04032e-06 0)
(0 -0.00014038 0)
(0 -1.88216e-07 0)
(0 1.99927e-06 0)
(0 -3.85967e-05 0)
(0 -0.000755357 0)
(0 -0.000271527 0)
(0 -6.28087e-05 0)
(0 -6.74542e-05 0)
(0 -0.000637129 0)
(0 -0.000818384 0)
(0 -9.67438e-05 0)
(0 2.19762e-06 0)
(0 -0.000888304 0)
(0 -0.000133358 0)
(0 -1.80071e-05 0)
(0 -0.000880281 0)
(0 -0.000946922 0)
(0 -0.00077882 0)
(0 -0.000376871 0)
(0 -0.000942601 0)
(0 -0.00110457 0)
(0 -2.59276e-05 0)
(0 -5.68698e-06 0)
(0 -0.00111471 0)
(0 -0.000897077 0)
(0 2.13363e-06 0)
(0 -4.7442e-05 0)
(0 -0.000879711 0)
(0 -0.00079209 0)
(0 -0.000132227 0)
(0 -0.000918303 0)
(0 -4.86764e-06 0)
(0 -0.000326774 0)
(0 -2.65813e-06 0)
(0 -0.000418832 0)
(0 -0.000952252 0)
(0 -0.00107128 0)
(0 -0.000308419 0)
(0 -0.000828599 0)
(0 -0.000464553 0)
(0 -0.000378471 0)
(0 -2.22448e-06 0)
(0 -0.000902878 0)
(0 -0.000607496 0)
(0 -8.16587e-05 0)
(0 -0.00090027 0)
(0 -0.000680274 0)
(0 -1.64947e-05 0)
(0 -0.000881345 0)
(0 2.14835e-06 0)
(0 -1.643e-06 0)
(0 -0.000571417 0)
(0 -0.000919079 0)
(0 -1.88412e-05 0)
(0 2.19214e-06 0)
(0 -8.43238e-05 0)
(0 -0.000967977 0)
(0 -5.57961e-05 0)
(0 -1.72734e-06 0)
(0 -0.000165805 0)
(0 -0.00065328 0)
(0 -0.000268111 0)
(0 -0.000718989 0)
(0 -2.76921e-06 0)
(0 -0.000689501 0)
(0 -6.52228e-06 0)
(0 -9.74684e-05 0)
(0 1.84774e-06 0)
(0 -6.36083e-06 0)
(0 -0.000847523 0)
(0 -0.00093367 0)
(0 -4.16572e-06 0)
(0 -0.000598921 0)
(0 -0.000684822 0)
(0 -0.000248142 0)
(0 1.79935e-06 0)
(0 -1.90704e-06 0)
(0 -7.24065e-06 0)
(0 -0.0011172 0)
(0 -0.000249567 0)
(0 -7.43263e-05 0)
(0 -0.000700422 0)
(0 -8.93182e-05 0)
(0 -0.000430522 0)
(0 -3.46821e-06 0)
(0 -0.000295272 0)
(0 -0.000866121 0)
(0 -0.000259797 0)
(0 -0.000558434 0)
(0 -8.49775e-05 0)
(0 -0.000172642 0)
(0 -0.000710469 0)
(0 -0.000215128 0)
(0 -0.000551587 0)
(0 -8.23586e-05 0)
(0 -0.000322927 0)
(0 -0.000802286 0)
(0 -0.000280282 0)
(0 -2.60874e-05 0)
(0 4.17875e-07 0)
(0 -0.000347706 0)
(0 -7.73418e-05 0)
(0 -4.63772e-05 0)
(0 -4.22593e-05 0)
(0 -0.000339642 0)
(0 2.19143e-06 0)
(0 2.15364e-06 0)
(0 -0.000888384 0)
(0 -0.000637525 0)
(0 -0.000405466 0)
(0 -0.000281761 0)
(0 -6.40798e-06 0)
(0 -0.000401726 0)
(0 -0.000488117 0)
(0 -0.000309298 0)
(0 -4.24051e-05 0)
(0 -7.28275e-05 0)
(0 -0.00114273 0)
(0 -0.000429152 0)
(0 -0.000798998 0)
(0 -0.000102437 0)
(0 -0.000692099 0)
(0 -0.00010212 0)
(0 -0.000540269 0)
(0 -0.000389572 0)
(0 -0.000382105 0)
(0 -0.000981993 0)
(0 1.60553e-06 0)
(0 -0.000946001 0)
(0 -0.000405667 0)
(0 -0.000804266 0)
(0 -0.000497384 0)
(0 -3.01565e-05 0)
(0 -0.000370199 0)
(0 -0.000344907 0)
(0 -0.000768938 0)
(0 -0.000568347 0)
(0 1.43038e-06 0)
(0 -2.41545e-05 0)
(0 -1.00461e-07 0)
(0 -0.000299202 0)
(0 -4.12595e-06 0)
(0 -0.000210348 0)
(0 -0.00042125 0)
(0 -0.000566649 0)
(0 -7.44529e-05 0)
(0 -2.16631e-05 0)
(0 -0.000385878 0)
(0 -1.05619e-06 0)
(0 -0.000120426 0)
(0 -0.000387339 0)
(0 -0.000127217 0)
(0 -4.02826e-05 0)
(0 -0.000737661 0)
(0 -0.000188394 0)
(0 -0.000967513 0)
(0 -0.000212096 0)
(0 -0.000173582 0)
(0 -3.26675e-06 0)
(0 -3.20656e-05 0)
(0 -1.55648e-05 0)
(0 -0.000181246 0)
(0 -7.76335e-05 0)
(0 -9.2766e-05 0)
(0 -0.000331394 0)
(0 -4.01796e-06 0)
(0 -0.000762649 0)
(0 1.12918e-06 0)
(0 -0.000911813 0)
(0 -0.000332544 0)
(0 -7.65359e-05 0)
(0 -1.84725e-05 0)
(0 -0.000583032 0)
(0 1.72171e-06 0)
(0 -0.000101915 0)
(0 -0.000919517 0)
(0 -0.000471804 0)
(0 -0.000602596 0)
(0 -0.000758363 0)
(0 -0.000161586 0)
(0 -4.23936e-05 0)
(0 -0.0006419 0)
(0 2.19768e-06 0)
(0 -0.000536159 0)
(0 2.09547e-06 0)
(0 -0.000946705 0)
(0 -0.000940945 0)
(0 -7.82887e-05 0)
(0 -0.000357013 0)
(0 -2.08948e-06 0)
(0 -0.000935829 0)
(0 -0.000143408 0)
(0 -2.92849e-05 0)
(0 -0.000392241 0)
(0 -3.52487e-05 0)
(0 -4.23375e-05 0)
(0 -0.0006068 0)
(0 -3.89254e-05 0)
(0 -1.44693e-06 0)
(0 -0.00064466 0)
(0 -0.000777546 0)
(0 -0.000956168 0)
(0 -0.000191114 0)
(0 -0.000947479 0)
(0 -0.000910366 0)
(0 -0.000623358 0)
(0 -0.000958059 0)
(0 -0.000584125 0)
(0 -0.000370332 0)
(0 -0.000240673 0)
(0 -0.000100647 0)
(0 -0.000828249 0)
(0 -5.75522e-06 0)
(0 -0.000674942 0)
(0 -6.95536e-07 0)
(0 -5.42898e-05 0)
(0 1.33317e-06 0)
(0 -0.000200306 0)
(0 -0.000931552 0)
(0 2.19243e-06 0)
(0 -0.000343637 0)
(0 -1.8924e-06 0)
(0 -3.82459e-05 0)
(0 -0.000110454 0)
(0 -0.000337687 0)
(0 -0.00096014 0)
(0 -0.000407087 0)
(0 -2.94962e-05 0)
(0 -0.00077558 0)
(0 1.81686e-06 0)
(0 -0.00078657 0)
(0 1.99691e-06 0)
(0 -0.000114136 0)
(0 -0.000650144 0)
(0 -0.000737537 0)
(0 1.99498e-06 0)
(0 1.84205e-06 0)
(0 -0.000273844 0)
(0 -0.000846901 0)
(0 -0.000164854 0)
(0 -0.000788692 0)
(0 -0.000596602 0)
(0 -0.000206352 0)
(0 -5.71097e-05 0)
(0 -0.000331483 0)
(0 -0.000751625 0)
(0 -0.000783847 0)
(0 -0.000387325 0)
(0 -3.05327e-06 0)
(0 -0.000570857 0)
(0 -0.000572105 0)
(0 -0.000318199 0)
(0 -0.000103054 0)
(0 -0.000467732 0)
(0 -0.000853858 0)
(0 1.92304e-06 0)
(0 -0.000495168 0)
(0 -0.000845335 0)
(0 2.10723e-06 0)
(0 -0.000297386 0)
(0 -0.000619809 0)
(0 2.19494e-06 0)
(0 -0.000145735 0)
(0 1.82806e-06 0)
(0 -0.000845855 0)
(0 -0.000332013 0)
(0 -3.56698e-05 0)
(0 -0.000963099 0)
(0 -0.000821326 0)
(0 -6.45385e-05 0)
(0 -0.000819697 0)
(0 -0.000852038 0)
(0 -0.000159344 0)
(0 -0.00112068 0)
(0 -2.66437e-05 0)
(0 -2.5681e-06 0)
(0 -0.000957346 0)
(0 -0.000680565 0)
(0 -0.000722033 0)
(0 -0.000851137 0)
(0 -0.000426458 0)
(0 -0.00059646 0)
(0 -6.90951e-05 0)
(0 -0.000162245 0)
(0 -0.000678478 0)
(0 -0.000910087 0)
(0 -0.000952965 0)
(0 -0.000740432 0)
(0 -0.000632734 0)
(0 1.73476e-06 0)
(0 -0.00049693 0)
(0 -0.00130787 0)
(0 -0.000904253 0)
(0 -3.85895e-05 0)
(0 -1.71378e-05 0)
(0 -0.000802648 0)
(0 -0.000716285 0)
(0 -0.000814601 0)
(0 -0.00125753 0)
(0 -1.60341e-06 0)
(0 -0.000620759 0)
(0 -0.000154411 0)
(0 -0.000134407 0)
(0 -0.000369848 0)
(0 -1.07457e-05 0)
(0 -0.000487174 0)
(0 -7.30155e-05 0)
(0 -0.000247674 0)
(0 -0.000828148 0)
(0 -0.00068835 0)
(0 -0.00046454 0)
(0 -0.000109806 0)
(0 -0.000155941 0)
(0 -0.000794855 0)
(0 -0.000354129 0)
(0 -1.42733e-06 0)
(0 -0.00014438 0)
(0 -0.000155183 0)
(0 -0.000294847 0)
(0 -3.63079e-05 0)
(0 -0.000104425 0)
(0 -0.0011396 0)
(0 -0.0005595 0)
(0 -0.00034756 0)
(0 -0.000809402 0)
(0 -0.00127605 0)
(0 -0.00022309 0)
(0 -0.000944799 0)
(0 -5.04217e-06 0)
(0 -1.04789e-05 0)
(0 -0.00027351 0)
(0 -0.00075301 0)
(0 -0.000331822 0)
(0 -0.000157713 0)
(0 -0.000661589 0)
(0 -0.000662956 0)
(0 -8.6333e-05 0)
(0 -0.000314656 0)
(0 -0.000722599 0)
(0 -0.000852968 0)
(0 -1.52589e-06 0)
(0 -8.13015e-06 0)
(0 -0.000152929 0)
(0 -0.000625932 0)
(0 -0.000155329 0)
(0 -0.00106582 0)
(0 -0.000669256 0)
(0 -0.000785823 0)
(0 -0.000167191 0)
(0 -0.000542787 0)
(0 -0.0006742 0)
(0 2.20348e-06 0)
(0 -0.000515428 0)
(0 -0.000518612 0)
(0 -5.18117e-05 0)
(0 -0.000847464 0)
(0 -3.56047e-06 0)
(0 -9.08448e-05 0)
(0 -0.000440381 0)
(0 -6.51144e-05 0)
(0 -0.000635171 0)
(0 -0.000616951 0)
(0 -0.0011494 0)
(0 -0.000595168 0)
(0 -1.29953e-06 0)
(0 -0.000914264 0)
(0 -0.00042882 0)
(0 -1.52121e-06 0)
(0 -0.00018697 0)
(0 -9.58062e-05 0)
(0 1.26223e-06 0)
(0 -6.18693e-05 0)
(0 -0.000285736 0)
(0 -7.46965e-06 0)
(0 -0.00109951 0)
(0 -6.39006e-06 0)
(0 -0.000531257 0)
(0 -0.000671134 0)
(0 -0.000206517 0)
(0 2.19406e-06 0)
(0 -0.000320913 0)
(0 -0.000466689 0)
(0 -0.000525248 0)
(0 -0.000430161 0)
(0 -5.12801e-05 0)
(0 -0.000177065 0)
(0 -0.000105193 0)
(0 -0.000747911 0)
(0 -0.000457045 0)
(0 -0.000188976 0)
(0 -0.000236032 0)
(0 -0.000938909 0)
(0 -0.000376572 0)
(0 -0.000854879 0)
(0 -3.90193e-05 0)
(0 2.02532e-06 0)
(0 -0.00062449 0)
(0 -0.000302419 0)
(0 -0.000302251 0)
(0 -0.000255043 0)
(0 -0.000565474 0)
(0 2.20991e-06 0)
(0 -0.000820165 0)
(0 -0.000957655 0)
(0 -0.000189696 0)
(0 -0.00061618 0)
(0 -0.000591856 0)
(0 -3.99035e-05 0)
(0 -0.000905865 0)
(0 -0.00054814 0)
(0 -5.26588e-05 0)
(0 -0.000172137 0)
(0 -0.000809417 0)
(0 -0.000566789 0)
(0 -0.000801838 0)
(0 -6.30207e-05 0)
(0 -0.000970908 0)
(0 -0.000156578 0)
(0 -0.000494769 0)
(0 -0.000635068 0)
(0 -0.000270242 0)
(0 -0.00070746 0)
(0 -3.04316e-05 0)
(0 -0.000829792 0)
(0 -0.000170603 0)
(0 -0.000991859 0)
(0 -1.99584e-05 0)
(0 -0.000475895 0)
(0 -1.10345e-05 0)
(0 -0.000539133 0)
(0 -0.000851301 0)
(0 -0.00125736 0)
(0 -0.000537153 0)
(0 -8.49753e-05 0)
(0 -0.000946156 0)
(0 -0.000575166 0)
(0 -0.000188474 0)
(0 -0.000443537 0)
(0 -0.000954413 0)
(0 -0.000368817 0)
(0 -6.10574e-05 0)
(0 2.19869e-06 0)
(0 -3.01544e-06 0)
(0 -0.000278471 0)
(0 2.19329e-06 0)
(0 -0.000288632 0)
(0 -0.000451275 0)
(0 -9.42275e-05 0)
(0 -7.72528e-05 0)
(0 -0.000705148 0)
(0 2.1879e-06 0)
(0 -0.000791087 0)
(0 -0.00017953 0)
(0 -0.000809322 0)
(0 -0.00055987 0)
(0 -0.000806961 0)
(0 -0.000638204 0)
(0 -0.000467711 0)
(0 -0.000938138 0)
(0 -1.05136e-06 0)
(0 -0.000660666 0)
(0 -0.000617799 0)
(0 -2.65969e-05 0)
(0 -0.000901398 0)
(0 -0.000328937 0)
(0 -0.000924938 0)
(0 -0.000242939 0)
(0 -0.000786708 0)
(0 -3.98061e-05 0)
(0 -0.000372356 0)
(0 -0.000708962 0)
(0 -0.00045654 0)
(0 1.64493e-06 0)
(0 -3.34591e-05 0)
(0 -0.00105749 0)
(0 -0.000773356 0)
(0 -0.000740426 0)
(0 -0.000911369 0)
(0 -3.43604e-06 0)
(0 -0.000960444 0)
(0 -0.000714184 0)
(0 -0.000208364 0)
(0 -0.000679925 0)
(0 -0.000695072 0)
(0 -0.000954984 0)
(0 -0.000908403 0)
(0 -0.000100674 0)
(0 -0.000821601 0)
(0 -0.00101405 0)
(0 -0.000367583 0)
(0 -0.000833136 0)
(0 -0.00134213 0)
(0 -5.47788e-05 0)
(0 -2.12529e-06 0)
(0 -0.000525584 0)
(0 -0.000585633 0)
(0 -0.00115315 0)
(0 -0.000247711 0)
(0 -0.000403015 0)
(0 -0.000315018 0)
(0 -0.000791784 0)
(0 -8.85434e-05 0)
(0 -0.000418777 0)
(0 -0.000795773 0)
(0 -0.000451754 0)
(0 -0.000720769 0)
(0 -0.000738956 0)
(0 -9.6496e-06 0)
(0 -0.000119388 0)
(0 -0.000236223 0)
(0 -0.000267397 0)
(0 -0.000112163 0)
(0 -0.00017569 0)
(0 -0.000130211 0)
(0 -0.000120707 0)
(0 -0.000339068 0)
(0 -2.17003e-05 0)
(0 -0.000652815 0)
(0 -0.000702851 0)
(0 -0.000666311 0)
(0 -5.61902e-05 0)
(0 -7.77126e-05 0)
(0 -0.000106279 0)
(0 -5.06043e-06 0)
(0 2.14955e-06 0)
(0 -2.89518e-05 0)
(0 -0.00064046 0)
(0 -0.000373924 0)
(0 -8.17887e-05 0)
(0 -0.00111523 0)
(0 -7.98711e-06 0)
(0 -5.13133e-05 0)
(0 -1.83306e-06 0)
(0 -0.000363557 0)
(0 1.82069e-06 0)
(0 -0.000170231 0)
(0 -0.000150158 0)
(0 -4.85222e-06 0)
(0 -0.000190715 0)
(0 -0.000775872 0)
(0 -0.000281511 0)
(0 -0.000914389 0)
(0 -3.20295e-06 0)
(0 -0.000598139 0)
(0 -0.000113701 0)
(0 -0.000955219 0)
(0 -0.00023951 0)
(0 -0.000853996 0)
(0 2.09398e-06 0)
(0 -3.97797e-06 0)
(0 -0.000263052 0)
(0 2.17147e-06 0)
(0 -4.33744e-06 0)
(0 -0.000237651 0)
(0 -0.000209668 0)
(0 -9.09238e-05 0)
(0 -0.00100597 0)
(0 1.64212e-06 0)
(0 -0.00066711 0)
(0 -2.23559e-05 0)
(0 2.174e-06 0)
(0 -0.000280072 0)
(0 -0.000753505 0)
(0 -0.000749412 0)
(0 -0.000298322 0)
(0 -0.000762165 0)
(0 -0.000228115 0)
(0 -8.68256e-05 0)
(0 -0.000510169 0)
(0 -0.000865256 0)
(0 -0.000369793 0)
(0 -0.000733907 0)
(0 -0.000465697 0)
(0 -0.00021762 0)
(0 -0.000962372 0)
(0 -0.000817742 0)
(0 -0.00035408 0)
(0 -0.0001104 0)
(0 -0.00085959 0)
(0 -4.38931e-05 0)
(0 -0.000907498 0)
(0 -0.000118641 0)
(0 -0.000255993 0)
(0 -3.18853e-05 0)
(0 -0.000819294 0)
(0 -0.000952592 0)
(0 -9.32422e-05 0)
(0 -1.55856e-05 0)
(0 -0.000960956 0)
(0 -0.000330146 0)
(0 -9.83797e-06 0)
(0 -0.000164611 0)
(0 2.01445e-06 0)
(0 -0.000958221 0)
(0 -0.000203314 0)
(0 1.1283e-06 0)
(0 -1.92804e-06 0)
(0 -0.000731865 0)
(0 -0.000738429 0)
(0 -0.00033848 0)
(0 -0.000185846 0)
(0 -8.53483e-05 0)
(0 -0.00047488 0)
(0 1.12378e-06 0)
(0 -0.000203894 0)
(0 -5.21214e-05 0)
(0 -0.000607555 0)
(0 -0.000700986 0)
(0 2.18115e-06 0)
(0 -0.00033652 0)
(0 -0.000586326 0)
(0 -0.000113634 0)
(0 1.81258e-06 0)
(0 -0.000846164 0)
(0 -0.00116163 0)
(0 -0.00129515 0)
(0 -0.000601425 0)
(0 -0.000290894 0)
(0 -0.000105031 0)
(0 -0.000544854 0)
(0 -0.00076762 0)
(0 -0.000942593 0)
(0 -0.00045431 0)
(0 1.89463e-06 0)
(0 -5.24028e-05 0)
(0 -0.000240199 0)
(0 2.04095e-06 0)
(0 -0.000100609 0)
(0 -0.00104146 0)
(0 -0.000916793 0)
(0 -0.000796712 0)
(0 -4.15171e-06 0)
(0 -3.74531e-05 0)
(0 -0.000104116 0)
(0 -0.00116348 0)
(0 -0.000658438 0)
(0 -0.00085798 0)
(0 -0.000554557 0)
(0 -9.23899e-05 0)
(0 -0.000856903 0)
(0 -3.21236e-05 0)
(0 -0.00075401 0)
(0 -0.000588365 0)
(0 -5.58039e-06 0)
(0 2.14634e-06 0)
(0 -0.000632125 0)
(0 -1.79552e-05 0)
(0 -8.642e-05 0)
(0 -0.000176266 0)
(0 -0.000151915 0)
(0 -0.0010408 0)
(0 2.05101e-06 0)
(0 -0.000109514 0)
(0 -0.000851835 0)
(0 -0.000972356 0)
(0 -0.00080081 0)
(0 -0.000358048 0)
(0 -0.000129526 0)
(0 -0.000217907 0)
(0 -0.000855365 0)
(0 -0.00081188 0)
(0 -0.000683144 0)
(0 -2.82412e-05 0)
(0 1.71788e-06 0)
(0 -0.00124024 0)
(0 -0.000542437 0)
(0 -1.16095e-05 0)
(0 -7.09535e-07 0)
(0 -0.000213568 0)
(0 -9.34681e-05 0)
(0 8.80982e-07 0)
(0 -0.0013131 0)
(0 -0.000399016 0)
(0 -0.000520602 0)
(0 -0.000339121 0)
(0 -7.90703e-06 0)
(0 -0.000864051 0)
(0 -4.95872e-05 0)
(0 -1.56314e-05 0)
(0 -8.05483e-05 0)
(0 -0.000352231 0)
(0 -0.000787849 0)
(0 -9.45632e-06 0)
(0 -4.64145e-05 0)
(0 -0.000787433 0)
(0 -3.93263e-05 0)
(0 -0.000174654 0)
(0 1.91857e-06 0)
(0 -0.000674297 0)
(0 -0.000529033 0)
(0 -4.41845e-05 0)
(0 -0.000309524 0)
(0 -0.000289409 0)
(0 -0.000175282 0)
(0 -0.000971355 0)
(0 -0.000159997 0)
(0 -4.89992e-06 0)
(0 -0.000224579 0)
(0 -0.000922734 0)
(0 -0.000298434 0)
(0 2.16359e-06 0)
(0 -0.00106131 0)
(0 -0.000915118 0)
(0 -0.0010945 0)
(0 -2.4247e-05 0)
(0 -0.000968477 0)
(0 -0.000520311 0)
(0 -0.000509016 0)
(0 -0.000968689 0)
(0 -4.63101e-06 0)
(0 -1.12001e-06 0)
(0 -0.000489714 0)
(0 -3.07477e-05 0)
(0 1.62035e-06 0)
(0 1.97525e-06 0)
(0 -0.000944296 0)
(0 -0.000666432 0)
(0 -0.00095734 0)
(0 -0.000885963 0)
(0 -0.000679983 0)
(0 -0.000595309 0)
(0 -0.000815675 0)
(0 -0.000505448 0)
(0 -0.000778279 0)
(0 -0.00022493 0)
(0 2.08773e-06 0)
(0 -8.50578e-05 0)
(0 -0.000234597 0)
(0 -0.000579182 0)
(0 -0.000840505 0)
(0 -0.000320814 0)
(0 -0.000146894 0)
(0 -0.000505406 0)
(0 -0.000953148 0)
(0 -7.92443e-05 0)
(0 -0.000140982 0)
(0 -7.87069e-06 0)
(0 -0.000332062 0)
(0 -0.00125235 0)
(0 -3.52774e-06 0)
(0 -0.000426863 0)
(0 -0.00104121 0)
(0 -0.000808443 0)
(0 -6.31014e-05 0)
(0 -0.000269386 0)
(0 -0.000317259 0)
(0 -0.000273445 0)
(0 -0.000740309 0)
(0 -0.000709073 0)
(0 -8.56458e-05 0)
(0 -0.000351734 0)
(0 -0.000829475 0)
(0 -3.02208e-05 0)
(0 -0.000738218 0)
(0 -9.85121e-05 0)
(0 -4.30374e-06 0)
(0 -8.97713e-05 0)
(0 -0.000249875 0)
(0 -9.58645e-05 0)
(0 -0.000607398 0)
(0 -2.86194e-05 0)
(0 -6.74808e-05 0)
(0 -0.000102739 0)
(0 2.19866e-06 0)
(0 -0.000822698 0)
(0 -0.00135056 0)
(0 -0.000884323 0)
(0 -0.0008015 0)
(0 -0.000695195 0)
(0 -0.000456248 0)
(0 -0.000297399 0)
(0 -0.000634202 0)
(0 1.88801e-06 0)
(0 -0.000671985 0)
(0 -1.82916e-05 0)
(0 -9.61161e-06 0)
(0 -0.000967511 0)
(0 -1.29121e-06 0)
(0 -0.00050965 0)
(0 -7.9319e-05 0)
(0 2.06737e-06 0)
(0 -0.000857815 0)
(0 -0.000135123 0)
(0 -0.00129766 0)
(0 1.91532e-06 0)
(0 -0.000307881 0)
(0 -8.78418e-05 0)
(0 -0.000925267 0)
(0 -2.49434e-05 0)
(0 -0.000556498 0)
(0 2.169e-06 0)
(0 -0.000943348 0)
(0 -9.56087e-05 0)
(0 -0.0012853 0)
(0 -0.000612333 0)
(0 -0.000105697 0)
(0 -0.000944132 0)
(0 2.19907e-06 0)
(0 1.36122e-06 0)
(0 -0.000219813 0)
(0 -7.91071e-06 0)
(0 -0.000176892 0)
(0 1.84684e-06 0)
(0 -0.000128069 0)
(0 -0.000862601 0)
(0 -5.68535e-05 0)
(0 -0.000195958 0)
(0 -0.000145368 0)
(0 -0.000742588 0)
(0 -0.000100072 0)
(0 -0.000580503 0)
(0 -0.000104338 0)
(0 -0.000648845 0)
(0 -0.00049743 0)
(0 -0.000521374 0)
(0 1.95078e-06 0)
(0 -4.07335e-05 0)
(0 -0.000748382 0)
(0 -6.44617e-06 0)
(0 -2.90302e-05 0)
(0 -0.000819354 0)
(0 -9.8971e-05 0)
(0 -0.000165791 0)
(0 -6.41213e-05 0)
(0 -0.000189726 0)
(0 -0.000919138 0)
(0 1.23402e-06 0)
(0 -0.000754707 0)
(0 -0.000854843 0)
(0 -0.000590771 0)
(0 -4.18541e-05 0)
(0 -0.000179179 0)
(0 -0.00095354 0)
(0 -0.000173528 0)
(0 -0.000645943 0)
(0 -0.000118049 0)
(0 -0.00070905 0)
(0 1.63315e-06 0)
(0 -6.76716e-05 0)
(0 -0.000320556 0)
(0 -0.000133012 0)
(0 -8.45067e-05 0)
(0 -0.00057508 0)
(0 -0.000865187 0)
(0 -3.76857e-06 0)
(0 -0.000135954 0)
(0 -0.000314715 0)
(0 -0.000686107 0)
(0 -2.86752e-05 0)
(0 -0.00058547 0)
(0 -0.00067767 0)
(0 -0.000282638 0)
(0 -3.50461e-05 0)
(0 -6.91986e-05 0)
(0 -0.000192141 0)
(0 -0.00123041 0)
(0 -0.000811983 0)
(0 -0.000582008 0)
(0 -0.00069689 0)
(0 -0.000447175 0)
(0 -6.25375e-06 0)
(0 -4.07823e-05 0)
(0 -0.000192793 0)
(0 -0.000943493 0)
(0 -0.000438718 0)
(0 -0.00084077 0)
(0 -9.67084e-05 0)
(0 -0.00057216 0)
(0 -0.000504033 0)
(0 -0.000620202 0)
(0 -6.62985e-05 0)
(0 -0.000195963 0)
(0 -0.000324087 0)
(0 -0.000162945 0)
(0 -2.65377e-05 0)
(0 -0.000472305 0)
(0 -0.000121049 0)
(0 -0.000361575 0)
(0 -0.000974363 0)
(0 -0.000289555 0)