/*--------------------------------*- C++ -*----------------------------------*\
| =========                 |                                                 |
| \\      /  F ield         | OpenFOAM: The Open Source CFD Toolbox           |
|  \\    /   O peration     | Version:  v2012                                 |
|   \\  /    A nd           | Website:  www.openfoam.com                      |
|    \\/     M anipulation  |                                                 |
\*---------------------------------------------------------------------------*/
FoamFile
{
    version     2.0;
    format      ascii;
    class       volScalarField;
    location    "50";
    object      ddt0(omega);
}
// * * * * * * * * * * * * * * * * * * * * * * * * * * * * * * * * * * * * * //

dimensions      [0 0 -2 0 0 0 0];


internalField   nonuniform List<scalar> 
10042
(
-1.05469e-05
-4.12306e-06
-5.23653e-05
-8.05965e-06
-0.00608324
-2.65205e-05
-0.920993
2.07083
2.10379e-05
-2.49679e-05
-0.549305
-3.19027e-06
-4.13709e-05
-8.00672e-05
-5.23532e-05
3.23641e-05
2.73339e-05
-1.02058e-05
-5.80351e-06
-0.0038902
7.10651e-05
-0.072729
-5.05141e-05
-8.97634e-05
-7.29746e-06
0.00022239
1.73703e-05
-5.1611e-05
2.26437e-05
-4.88168e-05
-2.82892e-06
-0.152819
-4.85826e-05
-2.35092e-05
-5.97208e-05
-9.52773e-05
0.000176389
0.000494237
-1.90312e-05
-0.00025575
-0.00411107
-5.80935e-05
-0.989093
-5.92592e-05
0.00806646
-0.000556374
-6.24104e-05
0.000252056
9.21597e-05
0.00132217
3.34284e-06
-2.51098e-05
-8.48934e-05
8.19409e-05
0.00017938
6.74879e-07
2.46885e-05
-5.80568e-05
-3.16605e-05
-8.82181e-05
3.19747e-06
2.51367e-05
-5.97418e-05
-4.69502e-05
-1.36162e-05
-2.80917e-05
-2.17924e-05
-0.00133705
-0.885929
-6.86849e-06
7.6937e-05
0.00502628
-5.87471e-05
-0.00016559
-5.36382e-05
-0.000143829
-0.0720749
-3.27539e-06
-0.000206574
-0.872983
0.000127286
-0.0374682
-6.34608e-05
-3.74666e-05
-2.96714e-05
-8.28228e-06
-4.32358e-05
-0.0139183
-6.33605e-05
-1.8762e-05
-7.37349e-06
-0.0128821
-5.3799e-05
-3.35957e-06
-4.87268e-05
-5.93355e-06
-2.79133e-06
-1.09212e-05
-0.000257334
2.38106e-05
6.60073e-09
-0.0101339
1.02021
-3.40635e-05
-3.59308e-05
-0.00054589
-4.89174e-05
-7.46369e-06
5.92692e-05
-1.89424e-05
-8.93873e-06
1.22883e-05
-0.000144737
-1.17468
-1.50613e-05
1.35868e-05
-9.42621e-06
-3.54094e-06
-2.08611e-06
0.133486
-7.07206e-05
3.01824
-3.81729e-05
3.68239e-06
-0.0102847
-4.76123e-05
1.91296
-8.32569e-05
-0.000515532
2.02728e-06
-0.000202702
-1.70187e-05
-0.426628
-0.00628745
1.81474e-05
-0.00211405
-0.253784
-3.49894e-05
-0.000188757
-0.0161287
-6.64333e-05
-1.11335e-05
-5.60994e-05
-0.0160043
-5.48521e-05
4.61098e-06
-0.0022809
-8.94329e-06
4.73501e-06
-0.00011881
1.79662e-06
-1.409e-05
-0.483248
-0.19731
7.06401e-05
-6.4461e-05
-3.25415e-05
3.05651e-05
-0.00216456
0.0368243
-0.867513
-0.00841427
-9.87154e-06
1.59513e-06
-7.34948e-05
-1.71502e-05
-0.00163532
0.823825
-0.371004
-0.0781271
3.54593e-05
-7.81411e-05
-0.0901111
-0.0581974
-0.000485135
-1.0245
-6.35275
-5.21315e-05
-0.00192736
-0.000220551
-3.65305e-05
0.381107
-5.73689e-05
-9.7842e-05
-6.38764e-05
0.458482
-0.00880696
-2.0372e-05
-1.26209
4.94657e-05
-0.0160167
-6.88878e-05
-0.444427
-0.642973
-0.00371914
-0.512903
0.00015043
-3.70722e-05
-6.37326e-05
-4.7009e-05
-0.000403892
-1.22785e-05
-1.86391e-05
0.0508158
-2.60521e-05
8.48813e-06
-0.137297
8.17472e-05
-2.24703e-05
-0.000118337
-0.969053
1.27587e-06
-0.00129079
-0.0143773
-3.48696e-05
-0.00506209
-5.2126e-05
-5.71263e-05
-0.00258172
-2.17647e-05
-0.000155001
-3.75437e-05
-0.0562654
0.00052759
-0.000138452
0.000245779
0.272381
1.6408e-05
-0.0122917
0.000109321
2.0365e-05
0.0175505
-7.88505e-05
0.00010439
-7.98531e-05
-0.000123245
3.31987e-05
-4.12533e-05
8.13496e-05
0.000535936
2.24612e-06
-5.31359e-05
-5.15984e-05
-0.000161962
5.06174e-05
-1.72494e-05
-6.10769e-05
-4.3204e-05
4.63884e-05
-6.36834e-06
-3.56131e-06
-2.33058e-06
-0.000126701
-0.111776
-0.00780071
-1.59136
-0.00047996
-0.00043625
-7.07469e-05
-0.000899709
-0.88733
5.36413e-05
-4.55505e-05
-4.28936e-05
-5.59975e-05
2.25686e-05
0.184485
9.52266e-05
-2.17453e-05
-0.000125441
-0.00037697
6.53511e-05
-0.0227025
-0.000458242
-0.0210109
4.73519e-05
0.000529152
1.70216e-05
0.000136841
-4.49344e-05
-0.000344279
-5.63534e-05
0.000207266
-0.412256
-2.72403e-05
-3.27868e-05
-0.666381
-0.000790903
-5.10712e-05
-2.40991e-05
-9.96716e-05
-1.08124
-0.00148776
-0.0172909
-4.79663e-06
-6.05956e-05
1.32316e-05
1.97309e-05
0.246383
-1.22696e-05
3.94565e-05
-2.49904e-05
-4.2965e-05
0.00070938
-8.5503e-05
-0.00354145
-0.869901
-8.91943e-05
-0.537228
8.10539e-05
0.00020574
1.57151e-05
-0.637829
-0.00783296
-2.05785
-6.91628
-0.000105815
9.81102e-05
-8.02997e-06
-0.000128412
0.000253726
9.29277e-07
-0.000285461
1.67986e-06
-5.77402e-05
-5.41743e-05
-0.00304306
2.13193e-05
9.13687e-06
-3.58704e-05
-9.95054e-05
-2.5469
5.10219e-05
7.07226e-05
-3.16767e-05
-5.47856e-05
-0.000853203
-0.00330924
-0.000424466
0.0789447
0.000684022
-1.16983e-05
-3.73042e-05
-7.55838e-05
1.06104e-05
-1.43996e-05
0.103233
-4.9539e-05
-2.05867e-05
0.00205828
-1.9796e-05
-0.000125783
-4.11283e-05
0.00130548
-3.29253e-05
-0.000126473
-0.00113512
-0.000351816
-3.81309e-05
-2.33334e-05
-0.30388
-0.00246593
7.7067e-06
-0.00066053
-8.57986e-05
-4.25318e-05
-6.35017e-05
-3.73677e-05
-0.351491
0.000257087
-1.52672e-05
-7.48397e-05
-1.91158e-09
2.18744e-05
0.00271737
-2.73549e-05
3.86772e-05
-0.182085
-3.17732e-05
-0.220277
0.923153
-0.000190793
-1.03742
-2.05655
-0.000158753
0.00951317
6.20274e-05
0.00114588
-1.26206e-08
-5.40277e-05
0.137745
-1.25244e-05
-9.36362e-05
0.308473
-1.73685e-05
0.000113762
-0.000644672
0.035682
-6.13605e-06
-3.00149e-05
-0.326639
-0.00940389
-0.000109938
-0.00124045
-2.0357
-6.47075e-06
-1.7279e-05
-3.08911e-06
4.23532e-05
-2.8985e-05
-3.51036e-05
-0.448404
1.40787
-5.58305e-05
-0.642784
-2.47868e-05
-9.25633e-06
-0.132513
-6.66633e-05
0.00825667
-0.00188268
-3.70695e-05
-5.27861e-05
-4.67401e-05
-0.00979056
4.07541e-05
-0.000186383
-4.94451e-05
-0.572197
-3.37263e-05
-1.49792
-6.52257e-05
-3.87746e-05
1.26682e-05
-0.0471099
-3.1524e-05
-5.4375e-05
-3.82747e-06
-1.20454e-05
0.532591
0.000146293
2.34455e-05
-2.43711e-05
-0.480357
3.56931e-05
0.000121428
-3.07032e-05
2.35077e-05
-0.48981
-0.964708
3.33411e-05
-1.13977e-05
0.000275496
1.14909e-05
4.99154e-05
4.77696e-06
-0.482172
-3.72569e-06
6.8213e-06
-0.00021123
1.91603
-0.00158686
-1.92926e-05
-0.000323356
-0.208892
0.000859318
8.04238e-06
-2.34593e-05
-0.0040222
-7.25964e-06
-1.03856e-05
-0.0001902
-2.09364e-06
-5.67753e-05
-4.026e-05
-2.73451e-05
-0.00104018
-4.92106e-05
-3.37553e-05
-0.620029
-5.19629e-05
5.38397e-06
-3.01884e-05
-6.23616e-05
-0.000237419
4.38295e-05
-3.1882e-05
-1.36328
-4.56099e-05
-0.813397
4.31517e-05
-4.3861e-06
7.42542e-06
-0.00988494
-9.30821e-05
3.8661e-06
3.17954e-05
4.34647e-05
-0.000135512
-0.93404
1.49934e-06
-0.000600051
-0.224349
0.000853109
-2.12044e-05
8.96887e-06
-5.07374e-05
-1.1551e-05
6.49552e-05
-0.0273235
-0.366301
-1.266e-05
-6.72779e-05
0.000539943
0.000527396
-3.1907e-05
-2.5787e-05
1.3456
-0.00823149
0.261938
-1.19042e-05
-4.30407e-05
-7.60409e-05
-5.76865e-05
-0.8121
-0.000418641
3.99116e-05
1.39806e-05
-1.29975e-05
-5.0199e-05
2.12108
0.000141899
-2.98166e-05
-0.539286
-0.0238937
0.00964287
-0.00142722
4.97508e-05
1.5998e-05
0.00161203
-0.00169772
-0.116647
0.421749
-0.000106576
-6.14686e-05
-1.51049e-05
1.90353e-05
-3.52838e-05
-2.81326e-05
-0.760717
-6.76621e-05
8.0178e-05
-0.000356602
1.47324e-05
0.58902
2.81097e-05
-0.00297601
-0.000270574
4.39953e-07
0.000107187
-4.95101e-05
0.00171682
-0.00201923
-0.00299892
-6.57584e-05
0.00125665
-4.96304e-05
-1.54559e-05
-3.25356e-05
-1.07123e-05
1.03876e-05
-0.000118454
-0.00165977
-0.000392288
-3.65503e-05
-3.86513e-05
8.06449e-06
-2.17201e-05
-0.0115343
3.0854e-05
-2.93825e-05
0.00311207
-2.34119e-05
-0.00152628
0.00145602
-1.2855e-05
0.591398
-0.000189169
3.58523e-05
-0.0317371
-5.81242e-05
-2.48446e-05
-2.0031e-05
2.4818e-05
-3.8096e-09
1.96728e-05
-4.60876e-05
-0.224761
-5.45412e-05
2.89984e-05
1.07843e-06
-0.000301508
1.07244e-05
1.64289e-05
0.000215801
1.66976e-05
0.000567223
-1.08402e-05
-0.00022954
4.90583e-05
-3.92686e-05
-4.56129e-05
-5.53005e-05
-0.984862
-9.94877e-08
-0.00293066
2.73183e-06
8.59336e-05
-1.609e-05
0.00026267
-2.91551e-05
-0.000437615
-3.15441e-05
-0.0227301
-2.61616e-06
-0.859602
-5.03902e-06
-6.87627e-05
4.83431e-05
-5.24187e-05
-7.45531e-05
1.45019e-05
5.9339e-06
-0.00251998
-0.799147
0.112329
0.00014651
-0.000438587
-3.78779e-05
-0.000446051
-0.000626866
-1.33978e-05
-0.000139375
-0.00312652
-0.188245
0.00144106
-2.3072
-5.62074e-05
-3.37633e-05
2.53984e-06
0.00021387
3.47504e-05
0.00156061
-0.000128225
-5.24575e-05
-0.00714405
-1.26443e-05
-7.38429e-06
0.000253617
-0.847646
-8.91224e-05
-0.000190813
0.00162783
-2.91386e-05
-0.871306
-6.77685e-05
-6.36489e-05
-3.63298e-05
-9.17641e-06
-0.580348
-0.000304428
-0.698702
1.78901e-05
5.88882
1.66759
0.917615
0.00151761
-0.000839859
-0.0123676
-0.000516502
-5.65853e-05
1.94643e-05
-0.000224876
-0.731742
-4.06485e-05
-0.000198962
-0.788329
-6.06892e-05
-4.92248e-05
-2.31517e-05
-7.02081e-05
-7.30652e-05
-3.87695e-05
-0.0109377
-0.402167
-2.10177e-05
-6.04634e-05
-0.436036
-0.279633
-3.15476e-05
9.01465e-06
1.20719e-07
3.67357e-05
-0.165474
-0.000306474
-0.0110813
-4.21454e-05
-7.23818e-05
2.22329e-05
-3.1366e-05
8.48646e-07
0.000409493
-6.48286e-05
-0.943162
1.60992e-05
-5.97248e-05
-0.000817394
1.25886e-05
0.00102675
-0.00149528
8.05477e-05
-1.80042
-0.470726
-4.33012e-05
6.58657e-05
-0.767905
-0.629534
-0.000173567
-7.27447e-05
1.13305
0.0147457
-8.26168e-05
-5.58364e-05
-2.95987e-05
5.94194e-05
-0.0383781
0.000136094
0.00541169
-1.44385e-05
-2.30278
-0.316634
2.03788e-05
-1.25618e-05
-0.00275128
7.55548e-05
-1.79565e-05
-0.000134885
-0.566303
-0.163807
-0.792366
-8.03579e-06
-0.00096752
-0.000752855
-1.77005e-05
1.22815e-05
3.2521e-05
-0.0486391
-8.63071e-06
1.46465e-05
-0.000984018
-2.92072e-05
-0.00234748
2.59199e-05
7.83981e-05
-4.14926e-06
-3.88123e-05
-0.0040158
1.75825e-05
-2.43556e-06
-0.000343725
-0.00131371
0.0121041
4.46794e-05
-0.00550196
-0.163301
-0.825634
-5.3791e-05
-0.524536
0.900502
-6.45379e-05
-3.72285e-05
-7.0892e-05
-4.86415e-05
0.0362975
-2.27407e-05
-1.22284e-05
-1.76855e-05
-0.289852
-0.00046113
-1.04593e-05
1.88755e-05
1.65397e-05
-0.000720862
-5.28598e-05
-5.85947e-05
0.00056012
-5.22887e-05
3.23701e-05
2.10437e-05
0.0371715
-3.34237e-05
-4.62915e-05
-1.08936e-05
-5.72079e-05
-0.0143825
2.26625e-05
-8.88214e-05
-7.88712e-06
0.000172575
-0.299581
-3.33638e-09
-0.098499
-0.000120739
-0.0474406
-4.80631e-05
-5.18502e-05
0.000588304
-0.00548859
-0.000654018
-6.22828e-05
-1.94855
-0.00483478
-1.57778e-05
-4.06898e-05
0.996706
3.75904e-05
-2.16684e-05
7.9981e-06
-9.10911e-06
-0.00115465
-3.23643e-10
-1.47683e-09
-0.00137833
-0.000219218
-3.59324e-05
-0.000246702
-3.99094e-05
-0.71684
9.56569e-05
-0.36074
4.39742e-05
-0.000294876
-0.000589583
-0.548941
0.000122596
-0.786995
-5.89053e-07
0.000396239
-9.43499e-07
-2.93225e-05
-6.62153e-05
-0.00279296
-0.000421178
0.00162965
-0.875638
-1.60277e-05
-1.13364
0.000453092
1.17582e-05
-0.000150635
-2.90864e-06
-0.402855
-2.81696e-06
-0.00016471
-0.00100596
-2.22416e-05
-0.000421631
-1.92869e-05
-1.84186e-05
-1.40042e-05
-0.0117772
-0.00010006
-2.47436e-05
3.14135e-05
-6.00949e-05
-7.00611e-05
-5.33321e-06
-2.5326e-05
5.27015e-05
0.000108785
-3.51985e-05
-0.000165985
-0.00023948
5.32763e-07
-0.1113
-2.5368e-05
13.9742
-0.000401716
-0.0582308
-0.000334231
0.000359543
-0.449551
-7.58131e-05
-0.0235028
-0.87911
-0.000757019
-1.42529e-05
-6.07394e-05
-6.11404e-05
-0.0176237
-8.88795e-06
-0.309289
-6.57237e-06
-5.66715
-0.986759
0.00199473
2.68563e-05
0.220132
-1.91733
-4.53247e-05
2.02249e-05
7.55178e-05
0.000218283
-1.33062e-05
-2.42815e-06
-0.001659
0.0619637
2.51129e-06
-1.56072e-05
-3.36143e-05
-0.0494688
0.00115201
-3.5611e-05
-6.90637e-05
-0.00466838
-5.17228e-05
-1.99664e-05
-0.343585
-6.22892e-05
-2.76219e-05
-0.442915
-9.50496e-05
-4.37713e-05
-0.0397306
-0.695851
0.871685
-4.46084e-05
-8.79116e-05
0.0396719
8.0321e-06
1.69838e-05
2.45847e-05
0.00080524
5.49181e-05
3.52793e-05
0.000132165
-0.00050566
-0.0201133
-3.64445e-05
-3.94795e-05
2.01389e-05
2.63752e-05
-5.45588e-05
1.30482e-05
-0.0103233
-0.000205833
-2.7392e-05
5.0304e-05
1.7851e-06
2.98909e-05
-1.11332e-05
-0.524986
0.000279749
-2.5486e-05
-3.57572e-05
-0.000401271
-0.363894
6.6068e-06
2.81156e-05
-1.04303e-05
-4.77579e-05
-1.99927
0.00165395
-8.72796e-05
1.86026e-05
-2.84193e-05
-0.00494333
-2.5855e-05
-2.86624e-05
-0.000147295
4.36586e-05
0.000238329
-6.37293e-05
-0.4785
-0.00044133
-2.46135e-05
-7.55877e-05
-0.0900935
-0.00014967
-0.00173841
-0.000132635
0.121547
-4.67767e-06
-4.00527e-05
0.000154285
-0.000147951
-8.82264e-05
-2.09064e-05
6.43887e-05
7.32232e-05
-0.027978
-0.00764308
3.27153
1.95359e-05
1.54767e-05
-0.000213714
-3.52211e-05
-5.884e-05
-0.444948
-0.000109712
-4.40768e-05
7.29858e-06
-0.0266032
-0.931318
1.86236e-05
-8.24964e-05
-0.00310442
1.49325e-05
5.69225e-05
1.72937e-05
-0.00279178
-5.03782e-05
0.000240046
1.08877
-6.53141e-05
6.303e-05
-0.145439
-5.99003e-05
-0.0108271
5.71268e-07
-3.86497e-05
-0.00056143
-6.13567e-05
-2.71133e-05
-1.7587e-05
4.26267e-05
-1.57137
-3.68843e-05
-3.84786e-05
-0.0382033
-0.000146875
0.190004
-0.808413
-0.00118536
-5.42576e-06
-0.0690618
-6.16779e-06
-0.368928
8.30125e-05
-5.92633e-05
-8.04703e-06
-0.548436
-8.95182e-06
-7.07913e-05
-2.6383e-05
0.000272289
-0.0393342
-0.000212505
-0.000916719
-3.09029e-05
-1.90944e-05
-0.000286972
-0.000270372
-2.08666e-05
-3.54371e-05
-9.08981e-06
-0.631987
-0.392134
-0.000126342
-2.56762e-05
3.54506e-05
4.16284
-3.73564e-05
2.31603
4.35401e-06
-1.90803e-05
-9.81801e-05
-1.91628e-05
8.79732e-05
1.3655e-05
5.97012e-05
-2.47174e-05
1.85154
-0.00264302
4.65436e-06
0.000142085
0.000186122
-0.000685249
-3.69137e-05
-3.67901e-05
-5.66296e-05
-2.7398e-05
-4.41479e-05
0.000738148
1.40572e-05
1.15771e-05
-0.000153367
2.44938e-05
-0.0154971
-3.42927e-05
-0.00660269
-1.64334e-05
5.13966e-06
-4.37238e-05
0.00138281
-0.000803394
2.02031e-05
0.000148644
-0.00199881
-6.01328e-05
-1.19603e-05
-4.54293e-05
-7.57401e-06
-0.686973
-0.0142039
-0.000103723
-0.664797
-2.54613e-05
0.000357924
-0.00520112
-0.000224697
0.00109474
-0.377028
0.000793046
-0.00343661
5.20554e-05
-4.25543e-05
-2.77707e-05
-1.186e-05
9.8733e-05
-3.75918e-05
-0.00392736
-2.33954e-05
-6.15958e-05
-0.00307971
-1.66825e-05
-0.000232004
0.00044709
-0.000132136
-1.03258e-05
-0.000515148
0.0099372
-6.48688e-05
0.000328437
-0.20833
-0.000464677
2.13913e-05
0.000790654
2.41727e-05
-1.32795e-05
-0.834534
-2.96621e-05
-4.03925e-05
-0.000978433
-2.62158e-05
0.000358632
-1.29193e-05
1.91605e-05
-0.828303
1.23227e-05
-3.25825e-05
-4.15053e-05
-3.21417e-05
4.58645e-06
-9.92564e-06
-1.00489
-5.48882e-05
-6.08334e-05
-3.11424e-05
-0.00149402
-1.50777e-05
-0.000109237
1.35097e-05
-0.000260118
-4.67692e-05
-8.02405e-05
-2.61184e-05
5.56454e-05
-7.50011e-05
-0.00778122
-0.000759215
-0.000308555
-5.78409e-05
-0.00108748
-0.00230927
-0.000137716
-0.000138149
-7.16413e-05
-0.873208
3.37719e-06
-7.43332e-05
4.58817e-05
-1.10855e-05
-0.000323335
5.07854e-06
-0.427012
-0.452742
-0.0217556
-2.13082e-05
-2.65857e-05
-0.000178941
-6.25392e-05
-0.00321881
-0.00128697
-0.0319894
-0.000215439
-0.473416
-0.0023217
0.0398932
0.0525125
-0.000234386
5.44325e-05
-0.000138429
-1.39996e-05
-0.273513
-2.8042e-06
-0.000172666
-4.0385e-05
-0.000159163
8.39105e-05
-0.921985
-0.415108
2.37434e-05
-0.321847
-0.123011
0.00602517
-0.000800971
-0.0022641
-4.464e-05
-0.436546
-4.12852e-05
-0.651151
-0.493976
2.26041e-05
-4.6057e-05
-1.3309e-05
-6.72807e-05
0.000214316
-0.000300315
-0.00338647
-1.65375e-06
6.43522e-05
-3.50835e-05
-3.72807e-06
1.2795e-05
-0.000168288
-3.22846e-05
-2.5182e-05
0.0151133
-0.00276258
-4.03013e-06
-0.853204
7.34617e-05
3.28611e-05
-4.64604e-05
-0.0406385
-5.3598e-06
1.33317e-05
-0.00681048
-0.0216065
7.86731e-06
-5.70132e-05
-0.260392
-0.0015348
-0.541913
-3.39373e-05
0.00610274
-0.686363
-0.620843
3.11233e-05
-5.98005e-05
-0.000254523
-0.000157036
-0.000827037
-5.7966e-05
-0.635948
-0.000983703
-0.0109973
-4.12689e-05
3.39916e-05
-0.420454
0.0309094
1.91725e-07
2.04349e-05
-0.0728989
-1.3878e-06
-1.57525e-05
-2.18414e-05
4.47035e-05
4.22059e-05
-0.000187989
-6.64743e-05
0.000166674
5.65028e-07
0.00032276
-1.18228
-0.00139863
-0.000295847
-4.93255
-0.00361935
-1.23299e-05
-1.29561e-05
1.37761e-06
2.42928e-06
-0.0120822
-0.00017859
-1.8564e-05
-4.00975e-05
2.34339e-05
3.7967e-05
-0.000288927
-6.60994e-05
-0.000813474
0.000190993
-1.126e-05
-0.498343
-1.0694
-2.38551e-06
-0.94998
-0.000208686
-0.000369919
6.58213e-05
5.03485e-05
1.24012
-0.00338278
-5.35161e-05
1.01866e-05
2.54418e-05
-7.22205e-05
-8.15396e-06
0.00226252
5.34366e-05
-2.67658e-05
-7.32513e-05
0.0356382
-0.0860098
-6.29834e-05
-3.92956e-05
-0.0127994
-0.0296624
-0.000102394
-0.863651
-0.71376
-3.32908e-06
-1.60184e-05
-3.40741e-05
-6.57098e-05
0.0418552
7.13758e-05
-1.5984e-05
-0.0217321
-0.00595704
-1.91591e-05
-1.20147e-05
-0.0011661
-2.45146e-05
-4.12659e-05
-0.00790361
-0.00283293
-0.189355
1.45729e-05
0.000946141
-0.00055958
-0.000499815
-2.77393e-05
-0.000174473
1.99616e-05
2.6818e-05
-0.00607024
-0.00015529
-1.01942e-05
-0.000137432
-0.482638
-9.10722e-05
2.06e-05
-9.69414e-05
-0.00361561
-3.98045e-05
-7.97893e-05
-6.71738e-05
2.1578e-05
-0.185194
-0.732283
-5.61615e-05
-0.285412
-0.895812
-0.408321
4.59507e-06
-4.0284e-05
-0.000108253
-1.03506e-05
8.10894e-05
-2.3637e-05
-0.000115353
-6.63584e-05
-2.59614e-05
-0.000105837
-4.56515
-0.000479777
0.480724
0.000495087
-5.52071e-05
-8.16973e-05
-0.000340682
-5.47589e-05
8.69226e-05
-0.000715401
-0.000344067
-0.101046
-0.000187558
-0.000112264
-0.250446
-5.84992e-05
-5.43856e-05
1.50964e-05
-0.200316
-0.000427191
-3.45526e-05
-0.000152785
3.23963e-05
1.75844e-05
-0.000277432
-4.47566e-05
0.000651167
-0.584273
1.65728e-05
4.08619e-05
-0.102844
-0.00067078
-0.00017581
-0.00653901
-5.8136e-06
-0.00241221
-0.0223548
-0.00353534
-0.603494
-3.018e-05
-1.59694e-05
-3.23807e-05
8.30601e-06
5.66063e-05
-2.69367e-05
-0.000237898
0.00180044
1.80737
1.45859e-05
-0.922885
-0.372577
0.000259815
-1.30863
-5.18785e-05
-0.00632015
1.00152
-4.4409e-05
-0.00393843
-1.70415e-05
0.303431
3.74462e-05
0.00875098
6.33102e-05
1.63373
0.000910163
-0.88305
-2.54861e-05
-0.00379841
1.497e-05
-3.38649e-06
0.116901
-3.0863e-05
-0.628037
-0.86068
0.860427
-0.387541
-0.00273147
-0.361998
-0.000620701
-5.77049e-06
-0.000834023
-0.000834516
-0.414449
-1.51515e-06
4.07037e-05
-2.87633e-06
-0.000856855
-2.10017e-05
-5.81384e-05
-8.33732e-05
2.1427
-0.050137
-6.78006e-05
-0.473599
-0.0017543
-6.97878e-05
-0.000643517
-0.00025256
-0.140662
-0.000267909
-3.25318e-05
-0.0420036
2.4941e-05
-3.5925e-05
-4.26883e-05
-0.0118055
-0.00175539
6.78309e-06
-0.000121873
5.89492e-05
-3.14803e-05
-4.09216e-05
0.784414
-6.57075e-05
3.96403e-05
1.96596
-0.0337062
0.000123366
1.09432e-05
0.0499441
-0.000160743
-0.000121132
-2.32902e-05
-0.00104191
-1.16619e-05
0.000419027
-9.43777e-05
-0.484071
-0.000695447
-0.0016596
-0.000112619
0.00111948
0.00133625
0.000454327
-7.29987e-05
-1.07629
-1.2785e-05
0.00886017
4.95206e-05
8.93965e-05
0.00111766
0.0046154
4.01621e-05
0.000102402
-7.70534e-06
-0.000609492
-0.00171442
-0.000689885
-0.000270969
-4.70875e-09
2.36435e-05
-0.000156922
0.000102092
-1.22542e-05
-0.000390354
-2.3207e-05
2.69807e-05
-0.806522
-2.24139e-05
0.163381
-2.48704e-05
-0.000128231
-0.00050225
-3.58101e-05
0.000334223
0.000693379
-0.00612842
2.42668e-06
0.000489247
1.83456e-05
5.56075e-05
-5.95199e-05
-0.270326
-0.428067
-2.29275e-05
2.40892e-06
7.47489e-06
-3.18813e-05
-0.00362528
-0.606303
-3.75828e-06
0.143129
2.88934e-05
-3.19838e-05
-2.58358e-05
2.9065
-2.29364e-05
-8.76808e-05
-1.82352e-05
-1.49393e-05
-6.00722e-05
-1.40159e-06
-1.38285e-05
-0.000229385
0.51325
-1.12229e-05
-1.96116e-05
-0.000463019
-0.00333103
-0.000100725
-0.48067
-0.00149978
-2.04079e-05
1.19676e-05
-1.73782e-05
-5.09017e-05
-2.08763e-05
8.75811e-05
-0.000214546
0.000128284
8.64623e-06
-0.000780312
4.45376e-05
-0.00598875
-0.000252691
-7.7745e-05
0.488653
0.846857
-4.35542e-05
2.64838e-05
-0.598913
-0.00816271
-0.00221263
0.000250448
9.4634e-06
-2.98895e-05
-0.760159
0.000916196
-5.13918e-06
0.00589088
-0.705333
-9.74325e-05
-0.00100395
-0.00138464
-5.85942e-05
-0.705693
-6.61674e-05
0.000207453
-0.000241906
-5.72544e-05
1.85474e-05
-0.00118454
4.37548e-05
3.74622e-05
-2.47224e-05
2.20287
-1.51651e-05
-1.91149e-05
-4.44311e-05
2.61873e-05
-1.20299e-06
6.61511e-05
-0.00019999
-0.000455983
0.000175063
5.52719e-05
-0.328171
-7.67372e-05
-3.37643e-05
-3.37019e-05
-1.64882e-05
-4.08288e-05
-8.9339e-06
0.000281878
-0.00240743
-1.89712e-05
-5.38145e-05
-0.00096234
-2.39838e-05
-7.67223e-05
-0.239906
-8.69306e-05
-2.02388e-05
-1.76127e-05
-0.00292292
2.88223e-05
1.22384e-05
-9.62274e-05
-0.000174073
-0.455964
0.550185
-5.80695e-06
4.2752e-05
-5.47968e-05
-0.00163948
-6.35809e-06
-1.63517e-05
-0.00016565
-0.0031011
-6.35149e-05
-0.000140983
-5.45899e-05
-0.00889558
0.00459686
6.01803e-05
-0.00697798
-0.000139524
-0.940189
8.96221e-05
-1.36825e-05
-0.832355
-0.00517573
-7.82729e-05
0.0233314
0.0151459
0.169393
-0.00079733
0.334176
0.000117577
0.000286103
-0.194401
-0.000146181
0.0224837
0.000758265
-0.0121003
-1.33079
-7.17513e-10
-8.14414e-05
-3.3829e-05
-0.0491468
-9.06275e-05
0.602194
0.000327172
1.4841
-6.99173e-05
-0.00719538
-0.0236586
-2.16628e-05
-9.23179e-05
-0.00115669
-0.000218216
2.01786e-05
0.000381721
-0.00235943
-0.00314376
-0.0046593
-0.000737385
1.34237
-0.0133731
-3.92321e-05
3.24486e-06
-0.606271
-0.00202316
-2.78379e-05
-0.000528947
-0.503648
-2.13869e-05
0.000194736
-3.89593e-05
-0.000310749
-5.61747e-05
-2.65628e-05
-0.000352853
-4.2396e-05
-1.43167e-05
-0.498157
-0.0539458
7.53699e-05
-0.000152599
0.000195609
-0.0213551
0.000398717
-1.11281e-05
-2.92385e-05
-0.00322396
-3.97048
5.24014e-06
-6.53247e-05
-3.36891e-05
-0.739812
6.23566e-05
-0.00019794
1.41213
0.98025
-6.96858e-05
-0.00688952
-0.0046995
-0.00165699
-0.000169007
-8.64472e-06
-0.723593
2.21145e-05
0.000324684
-5.55024e-05
0.000440715
1.28432e-05
-6.14501e-06
-1.07112e-05
-0.00271536
2.18277e-05
3.55036e-05
1.94441e-05
-2.75704e-05
7.0969e-05
-6.75031e-05
-0.00547635
-0.367071
-0.0593944
0.000125193
8.44742e-06
-0.000211556
8.71509e-05
0.230531
3.46597e-05
-0.0416889
-5.60197e-05
-7.75481e-06
1.01511e-05
-0.000359042
-0.57934
5.37262e-06
-0.702243
2.46357e-05
3.04499e-05
-2.41744e-05
-0.896989
-0.000101331
-0.000559212
-0.143059
4.31953e-05
-5.445e-05
-0.63279
-1.10655e-05
-0.284047
3.74459e-05
0.000249737
-6.01755
7.24285e-05
-5.79793e-05
2.40256e-05
1.28754
0.00021983
7.37065e-05
-0.137519
-4.9916e-06
3.95962e-05
-0.0047908
0.443533
-0.0127773
-0.855279
-0.379876
-0.00231224
-0.000115736
-0.0217412
-0.0244921
3.22551e-06
-1.75006e-05
-6.53258e-05
0.000470504
-0.0149685
-2.75282e-05
-0.00014458
-6.54996e-05
-2.89522e-05
0.0263341
-8.7512e-06
1.19476
-2.57812e-05
0.00113216
0.000946247
3.66166e-05
2.94496e-05
-0.871903
-0.426807
-0.00224012
-3.47985e-05
-7.7443e-05
0.00154665
2.78156e-06
0.000311378
-0.00616836
-0.000150856
-2.50773e-05
0.630343
0.516676
4.1675e-05
-4.89955e-05
-2.09189e-05
1.84716e-06
6.77206e-05
0.000533976
-1.07668
-4.04216e-05
1.84231e-05
0.00153693
1.66147
-3.17573e-05
-0.167246
-6.2514e-05
-0.00978858
-0.0016689
-0.944543
0.00114517
-0.00116816
-0.00103752
-6.2829e-05
6.39939e-05
-0.0311514
-0.000173196
-5.78238e-05
-0.304859
5.61041e-05
-2.11399e-05
-7.41368e-06
-0.00109967
-0.0159405
-0.118723
-0.0108546
0.000307842
-0.000250008
-2.66513e-05
1.37266
0.0495402
4.10531e-06
1.19389e-05
2.47728e-05
0.000262473
-0.643429
-0.000427581
-0.511592
-4.04245e-05
-1.15403e-05
-0.382263
-2.7798e-05
-0.855461
-0.377184
-9.79744e-05
-0.000324646
0.190512
-0.00012119
-0.000118341
-5.64911e-05
-0.434644
0.000250895
-0.00930436
-0.353197
-0.347882
0.000390906
0.000662635
1.99819e-05
-0.014342
1.03055
7.5398e-05
0.000110716
-0.292874
-0.000924924
-0.00177522
-6.30972e-06
0.615999
-0.253635
0.00646048
-3.81699e-05
0.00022902
-5.37677e-05
-0.524214
-0.0025971
-0.000325539
-0.566208
-0.828246
-7.65547e-05
-0.0127146
4.16157e-06
-0.296218
-0.00357776
0.000486881
0.000267414
-0.26461
-0.000102754
0.000534264
-0.55451
-0.604214
-1.47645e-05
-3.36218e-05
1.21798e-05
-0.00369357
-0.311646
-0.0188182
-0.847707
0.00114961
-0.000801471
-6.48391e-05
-0.857902
-0.00291728
-0.000207059
-0.0208236
-0.110787
-0.164998
-0.199549
1.08647
-1.6866
0.210918
-3.56106e-05
-0.000187023
-0.00020346
-5.6872e-05
1.63759
-0.30047
-2.85992e-05
-0.858623
-1.19393e-05
8.34012e-06
-2.59311e-05
-5.15325e-05
1.34013e-05
-1.0622
-0.00116036
0.0742483
-1.58911e-05
-0.097266
-0.000834498
0.123994
-0.303868
5.95432e-05
0.00022231
-0.000942294
-0.00156319
1.70686e-05
-1.91661e-05
-6.56616e-05
-0.745293
-2.0993e-07
2.76095e-05
0.0240545
0.000123565
1.16983
1.86574e-05
-0.110312
3.57321e-06
1.85731e-05
-2.2254e-05
-4.13795e-05
0.000465342
-4.32987e-05
0.412516
-0.000256239
0.0010387
-0.717623
-4.77362e-05
-0.645923
-4.00684e-05
-0.862007
4.46383
-0.375037
-0.00207059
-2.33855e-05
-9.52147e-07
-0.849715
-5.06051e-05
0.000333615
7.06636e-06
0.000513429
-0.497104
-6.16109e-06
-3.90674e-05
-4.13811e-05
-1.69693e-05
-0.338318
-0.3801
1.22163e-06
4.46954e-06
-1.08139
-0.543448
7.06876e-05
-1.01915
3.2751e-05
-0.636982
-0.744135
-4.30821e-06
-0.0499038
0.169395
-0.00322587
-0.42515
0.000598982
-4.79414e-05
-9.23893e-05
6.12086e-06
-0.79616
-0.576477
-1.30013e-05
-0.000157473
-0.415084
7.31706e-05
-0.481378
-8.20062e-06
-1.73173e-05
4.03227e-05
-0.314836
0.000251744
-2.39766e-05
-0.475243
-7.94372e-06
-0.5165
-0.730917
-2.60012e-05
4.68046e-05
-0.00719513
1.60533e-05
-2.45749e-05
1.86514e-06
-0.398325
-0.000285333
-1.41135e-05
-5.2765e-05
-0.400141
-3.91073e-05
-0.000780469
-3.2075e-05
-0.186583
-4.25041e-05
-0.00589459
-2.98472e-05
-0.33388
-0.845232
-0.000287106
0.000102986
-0.00129078
-2.18706e-05
-0.0035592
-0.39389
-2.47823e-05
-0.00339196
2.90071e-05
-0.0995143
5.10736e-05
-0.494871
-0.415695
-0.00473462
-0.482229
-0.434083
-0.000452083
4.90563e-05
-2.2049
2.97777e-05
0.951403
-0.000144697
-0.27465
1.21247e-07
-0.000292565
-0.00156823
-0.000234307
-6.73005e-05
-2.50792e-05
1.81372e-05
0.180898
-0.00338801
-0.49816
-0.0593924
-0.000129117
4.89717e-05
-0.00143293
-0.188094
-0.00039491
1.97645e-05
2.7963e-05
-0.900063
-0.112357
-0.319889
-0.544262
-0.0003601
-5.89473e-05
2.16887e-05
-0.00116057
-0.00170662
-0.291822
-2.6871e-05
-2.50779e-05
-0.281824
-0.00286242
-5.89238e-06
-0.000542257
-0.330894
-0.00605743
-1.41103e-05
-0.000989191
-0.0896383
-0.443782
-0.852852
-0.0371233
-3.07804e-05
-2.4005e-05
-1.89029e-05
-9.57799e-07
-4.51889e-05
-3.36074e-05
-0.000433566
-0.0295315
-0.000387615
0.000462059
-0.000267208
-2.37325e-05
-0.000170936
4.8377e-05
-0.000571629
-0.000306363
-4.72275e-05
-0.000218849
-5.98778e-05
-1.14799e-05
-5.04902e-05
6.0087e-05
-0.0478618
-1.39798e-05
-0.00232855
-0.149208
-0.552447
0.363111
-1.6261
-0.000101997
2.41399e-06
-2.71591e-05
-0.787382
-2.78045e-05
-2.40971e-07
-6.32944e-05
-0.848546
-0.000270704
-0.000316149
0.0565239
-9.54591e-05
-1.37901e-05
-0.000190335
-2.59545e-05
-0.00103033
2.04039e-05
-0.000551891
4.66353e-06
-2.05289e-05
-3.83488e-05
-0.000103627
0.000270388
-0.175284
6.03859e-06
-0.00715071
-0.00256209
-0.00341212
-0.000965461
-0.00355241
-4.39013e-05
-0.515871
-5.65247e-05
-0.000150224
-3.42431e-05
8.66041e-05
-0.00703483
-5.94176e-07
-0.00237126
-0.518212
-0.000132875
0.00693384
-0.00833744
-0.00145837
-0.00304525
-0.00198465
-2.23079e-05
-0.000280361
-2.4622e-05
-0.00929828
-0.00180214
-0.682533
-6.20281e-07
-0.00145102
-0.000125763
-0.28728
3.52761
-0.000767986
-1.22824e-07
-0.00167809
1.63087e-05
-0.00243024
-2.2149e-05
-0.404054
7.65871e-07
-0.000109463
1.63084e-05
-0.00089553
-0.00181175
-0.000222603
-0.424704
-1.33574e-05
0.000950429
-0.00201303
-3.12486e-05
-0.545466
-0.806872
-0.00935338
0.00110671
-0.00126888
1.23255e-05
2.15478e-05
-0.513384
-0.0062956
6.16796e-06
7.50625e-05
-6.18402e-05
-9.307e-05
-0.0805094
-1.08041e-05
-0.881139
-0.0141154
-0.00790477
-0.000412188
-6.17036e-05
-6.41965e-06
-2.17526e-05
-0.0143231
-0.00264586
-0.000106155
-0.453949
-2.89377e-05
-8.08181e-05
-0.000129501
-1.06703
-0.000105965
1.76089
-9.32945e-06
-0.825266
-4.8662e-05
2.86601e-05
-0.000339166
-3.52938e-06
-7.29869e-05
-0.011009
-8.54724e-05
-5.92407e-05
3.32186e-05
-0.00106713
-0.000133149
0.0603353
4.17495e-06
-7.97708e-05
4.46102e-05
-0.0061064
-0.000100973
-0.000143219
-0.000346141
-0.826371
-0.538502
0.171927
-0.149424
-0.059806
-0.000720347
-0.00177254
-0.000133147
7.40902e-05
4.64707e-05
-0.56726
-0.0013984
-8.35949e-06
-4.53299e-05
-1.00666e-05
0.000229012
-0.00293134
-1.69204e-05
-0.000186011
-0.00622994
-0.00518928
-0.00740667
-7.21336e-07
-7.89653e-06
-0.183033
0.000155116
-8.96822e-05
-0.525417
-0.803134
3.14374e-05
8.16419e-05
-0.000129182
-2.31272e-05
-0.000362972
2.02943e-05
2.52453
5.93913e-06
0.0595377
-1.77091e-05
-0.0353053
-0.000199605
-3.62385e-05
0.000416403
-1.73235e-05
-4.27916e-05
2.47365e-06
-0.000324123
-0.101744
-4.17464e-06
-0.00987324
-2.09183e-05
-9.82132e-06
-0.0118235
-5.50495e-06
1.67509e-05
-4.63983e-05
-4.91365e-05
-2.22335e-05
-0.000113423
-6.38979e-06
0.142719
-5.69052e-05
2.66914e-05
-0.00174895
1.01505e-05
-1.57237e-05
-3.30402e-05
2.14316e-06
-0.916748
-0.0291514
-1.25603e-05
7.42458e-05
-5.58757e-05
-7.07625e-07
0.0363782
1.29011e-05
2.05074e-05
-0.142431
-1.70773e-05
-0.000838843
0.00104395
-0.000718589
-3.7002e-05
0.00320458
-1.87085e-05
0.010629
-0.00149775
-5.43831e-05
-0.716357
-0.0212725
-0.000130515
-0.00632028
-3.11915e-05
-4.46143e-05
-0.000776071
-0.0119815
1.49963e-05
4.14304e-06
-2.0739e-05
-0.000684116
-5.57343e-05
-0.000474043
4.23771e-05
-0.00111665
2.09031
-0.000594426
0.019677
-1.67694e-05
0.000345897
-4.06674e-05
2.30753e-05
-8.21904e-05
-3.73149e-05
-5.81669e-05
-1.16182e-05
-0.00225609
-5.01053e-05
0.00119314
-5.00024e-06
-0.800506
-2.39442e-05
4.82661e-06
-0.00419591
3.98517e-05
-0.00919042
0.000902014
-0.000363428
-1.64631e-05
-5.59453e-05