/*--------------------------------*- C++ -*----------------------------------*\
| =========                 |                                                 |
| \\      /  F ield         | OpenFOAM: The Open Source CFD Toolbox           |
|  \\    /   O peration     | Version:  v2012                                 |
|   \\  /    A nd           | Website:  www.openfoam.com                      |
|    \\/     M anipulation  |                                                 |
\*---------------------------------------------------------------------------*/
FoamFile
{
    version     2.0;
    format      ascii;
    class       surfaceScalarField;
    location    "50";
    object      phi;
}
// * * * * * * * * * * * * * * * * * * * * * * * * * * * * * * * * * * * * * //

dimensions      [0 3 -1 0 0 0 0];
oriented        oriented;


internalField   nonuniform List<scalar> 
14907
(
-0.449662
0.309548
0.140129
-0.580611
0.367961
0.212688
-0.226678
-0.020135
0.246746
0.588954
-0.588252
-0.0439992
0.0196876
0.0243114
0.420628
-0.530371
0.109664
0.0762386
-0.0490812
-0.0271528
0.153888
-0.150329
-0.00356
0.399645
-0.224071
-0.175445
-0.379595
-0.0978805
0.477517
-0.00990935
-0.000559718
0.0104691
0.0665566
0.523191
0.350313
-0.611889
0.261783
0.644779
-0.344867
-0.299914
0.23033
-0.124341
-0.105994
0.543487
-0.356831
-0.186414
0.302483
0.241238
-0.292442
-0.298947
0.591373
-0.250776
-0.198849
-0.00755629
0.0658986
-0.0583434
-0.397301
-0.131814
0.529885
0.112975
0.0563995
-0.169375
0.394751
-0.623711
0.229281
-0.546955
0.290937
0.255856
-0.342178
-0.238414
-0.260509
0.139782
0.120747
0.630079
-0.362126
-0.267803
0.264969
-0.145903
-0.119085
0.396092
-0.196545
-0.199424
-0.29962
0.193906
0.105684
-0.181129
0.411839
-0.230694
-7.56315e-06
0.00632885
-0.0063213
0.204473
-0.584185
0.119473
0.13036
-0.249834
-0.101858
0.232366
-0.130535
-0.31292
-0.23423
-0.295527
0.157306
0.13824
0.0875265
0.123463
-0.210958
-0.580732
0.268129
-0.0955841
0.146981
-0.051417
0.0373467
-0.0449034
-0.228721
0.132053
0.0966552
0.0677479
0.0084953
-0.13755
0.284347
-0.146863
-0.0243421
-0.0196573
-0.152098
0.237891
-0.0857857
-0.279632
0.204178
0.0754213
-0.110291
-0.0859511
0.196255
-0.0594477
-0.149112
0.20856
-0.166404
0.273184
-0.106766
-0.583445
0.117232
0.46645
-0.0797203
-0.193935
-0.0352446
0.164506
-0.129294
0.371272
-0.265097
-0.106206
-0.112205
-0.183305
0.434611
-0.0139115
0.303101
0.0931097
-0.16532
-0.11436
0.273351
-0.153892
-0.179192
0.143897
0.289457
-0.494132
0.204719
0.311591
0.133709
-0.445152
-0.222115
0.120234
0.0828163
-0.309558
-0.26721
0.213954
0.0532609
-0.136353
-0.118855
0.255189
-0.0785855
0.23129
-0.152724
0.0856257
-0.074186
-0.0114412
-0.000817674
-0.0075598
0.00837739
-0.171509
0.349888
-0.178334
0.221367
0.149884
0.0587299
0.144302
-0.281917
0.128553
-0.15654
0.0279842
0.187668
0.0767107
-0.264449
0.49601
-0.20552
-0.00509992
0.0247874
0.415696
-0.210327
-0.205329
0.165828
-0.0916749
-0.07416
-0.0155688
0.0540959
-0.0385228
-0.183276
0.123842
-0.067705
0.0433624
-0.124442
-0.147253
0.271632
0.241488
-0.121637
-0.11985
-0.254679
0.176065
0.51798
0.0867825
-0.604776
0.0811318
-0.286574
0.205382
-0.00501272
-0.0984755
0.103487
-0.325225
0.104695
0.220455
0.350729
-0.269595
-0.145407
0.2756
-0.130185
-0.0354864
-0.0322189
0.182949
0.0820016
-0.286079
-0.159153
-0.140498
0.129826
-0.283123
0.153334
0.485953
-0.188858
-0.297035
0.169747
0.150602
-0.320314
-0.192954
0.0973434
-0.399278
0.132237
0.267149
0.396238
0.200777
0.108825
-0.124791
0.015962
-0.136373
0.0515894
0.0847817
0.546899
-0.0290997
0.257789
-0.141979
-0.115811
-0.123942
0.129177
-0.00523726
-0.389783
0.31466
0.075036
0.149094
0.336904
-0.589532
0.192981
-0.237019
-0.27128
0.572939
-0.303427
-0.269029
-0.468262
0.319718
0.148658
0.221548
-0.128866
-0.0927044
-0.00899717
0.00817946
-0.207704
-0.0595016
-0.250468
0.438911
-0.188323
0.269442
-0.350897
0.0814447
0.164953
0.296429
-0.166553
0.00124169
-0.00219601
0.000954183
-0.122693
-0.202635
0.0782833
0.0756043
-0.138249
0.284231
-0.146001
0.199456
0.179265
-0.378696
0.137651
-0.0288314
-0.265817
0.141343
-0.118262
-0.0320672
-0.223841
0.180156
0.043671
-0.0155958
-0.108348
-0.152256
0.369684
-0.217366
0.0509195
0.114902
-0.367263
0.209785
0.157474
0.0027262
-0.00928171
0.00655548
-0.178268
0.0967903
0.0814713
-0.218119
-0.181049
-0.0925147
-0.0629084
0.155415
-0.00386528
-0.00153624
0.00540144
0.132257
-0.277703
0.0709062
-0.181191
0.0884708
-0.0934845
0.140266
-0.252104
0.111807
0.018606
0.250824
-0.127601
0.247987
-0.120414
0.116059
-0.10872
-0.00734467
-0.232817
0.352489
-0.11977
-0.273247
-0.194927
0.136879
-0.0167814
-0.12011
0.445948
-0.226796
-0.219049
0.313698
-0.14389
0.233933
-0.126423
-0.107519
-0.363568
0.155421
0.208213
-0.00882994
0.529283
-0.520501
0.00894154
0.00265664
-0.0115955
0.000504076
-0.00295258
0.0024484
0.58206
-0.299823
-0.28177
-0.198799
0.549201
0.245896
-0.121594
-0.124317
-0.0419988
0.353729
-0.134717
0.0421981
0.00357688
-0.00584141
0.00226446
0.0114967
-0.00258004
-0.00891665
-0.184924
0.0933386
0.091579
-0.128731
-0.222313
0.351044
-0.197624
-0.165881
-0.147589
-0.127999
0.27552
-0.18426
-0.183007
-0.107595
0.00168018
0.105914
0.0236867
-0.02011
0.00696293
-0.00614445
-0.00168721
0.00219116
0.132169
0.155772
-0.287979
-0.4636
0.294119
0.169279
0.0173274
-0.0528143
0.0640684
-0.0638134
-0.000256083
0.0290578
0.0874191
-0.116482
0.107313
-0.0395091
-0.0677892
-0.0105764
0.00845657
0.00211979
0.279974
-0.143873
-0.13615
0.0588814
0.0267429
0.107859
0.0810128
-0.188886
0.11603
0.12985
0.00437598
-0.00438357
-0.0914306
-0.159126
0.250487
-0.0939424
-0.129916
-0.125555
-0.10318
-0.000562297
0.00180384
-0.109467
0.134633
-0.0251707
0.262998
-0.112437
-0.150563
0.000814687
0.00894573
-0.00976044
-0.106304
-0.134039
0.240364
0.05432
0.0138285
-0.0681486
-0.261162
0.133516
-0.0117311
0.0206752
-0.0661973
0.083524
0.167886
-0.0245692
-0.143317
0.010269
0.0611948
-0.0714645
-0.127074
-0.103628
0.230721
-0.210104
0.390002
-0.179968
0.362349
-0.561024
-0.290337
0.209424
0.0809027
0.0173666
0.100953
-0.118326
0.253046
0.00996036
-0.0893026
0.322962
-0.233628
0.0052743
0.058793
0.139835
-0.408643
0.449444
-0.0406229
0.00460327
0.0497167
0.40857
0.146745
-0.554789
-0.299821
-0.290697
0.590407
-0.531337
-0.00641912
0.537052
-0.096731
0.106999
-0.61519
0.605501
0.0105565
-0.106554
-0.00104122
0.0833303
-0.0899759
0.00664566
-0.256166
0.134553
0.0250953
-0.134563
-0.111999
0.29993
-0.188015
-0.316712
-0.14624
0.462789
-0.176412
0.146048
0.0303584
0.480713
-0.214113
-0.266545
0.139062
0.0824641
0.237143
-0.110113
-0.127039
0.0120806
-0.0962535
0.0841725
-0.108915
0.196477
-0.194079
0.151509
0.0425444
-0.223806
0.11708
0.106749
0.180058
-0.0894516
-0.0906069
0.459074
-0.246653
-0.212288
0.142292
-0.0181933
-0.124105
0.364735
-0.143384
0.202139
-0.0550845
-0.00740927
0.062493
-0.273775
-0.190014
0.208045
0.15667
0.191668
-0.211894
0.173193
0.060733
-0.185648
-0.200327
0.386207
-0.732226
0.478391
0.254181
-0.0987908
0.242489
-0.143675
0.285399
-0.162227
-0.123132
0.233062
-0.361771
0.141687
0.135158
-0.282796
-0.228191
0.0992928
-0.389483
0.139239
-0.417638
0.236491
0.556602
-0.00261577
-0.553778
0.10935
0.148437
0.0886513
-0.270574
0.181873
-0.693025
0.400568
-0.324589
-0.216619
0.541737
-0.343274
0.171821
-0.135073
-0.0564595
0.191496
-0.0667094
0.0787896
-0.0954245
-0.0895045
-0.00691811
0.00773279
0.112529
-0.0834748
0.027419
0.0895091
-0.116934
0.0793661
0.15096
-0.0243944
0.202614
-0.17821
-0.110622
0.105131
0.00549985
-0.276072
0.177284
-0.234673
-0.155207
-0.394929
-0.336998
-0.157986
-0.132363
-0.379834
0.194377
-0.0912601
0.204242
0.258577
-0.0575802
-0.201021
0.198467
-0.521253
-0.0108421
-0.0888917
0.106255
-0.176467
0.0863112
-0.00298081
0.114835
-0.0117422
-0.0931967
0.104937
-0.216953
0.11067
0.165257
0.120186
0.204476
0.191526
-0.395806
-0.00591872
0.138743
-0.132867
0.0538625
-0.286745
0.175666
-0.0678268
0.253904
0.0107445
-0.264716
-0.103184
0.00734251
-0.00461637
-0.00261057
-0.405973
-0.376772
0.238407
0.138328
-0.0819747
-0.0286375
-0.176489
0.189988
-0.302485
0.189202
0.262507
-0.451788
0.0964882
-0.231598
0.0406957
0.0666324
0.0428377
-0.161949
0.119091
0.124193
-0.00813831
0.00713644
-0.590435
-0.179149
0.541638
0.185933
0.110492
-0.334446
0.10046
0.0795986
-0.364534
0.236884
0.127669
-0.125836
0.415488
-0.33106
0.399782
-0.0686967
-0.315205
0.203135
-0.237879
0.142591
0.0953276
-0.128534
0.186563
-0.0580404
0.0180981
-0.107101
0.089002
-0.00827449
-0.0103345
0.0186084
-0.0664643
-0.112782
0.0223981
0.0357276
-0.0581266
0.232502
-0.406268
0.174086
0.159467
-0.165386
0.253171
0.377039
0.0115595
-0.0116223
-0.111559
0.131695
-0.0201401
0.000337998
-0.0908095
0.0904706
-0.0053204
-0.180693
-0.288995
0.469467
0.222537
0.0360173
0.130334
0.219593
0.100097
0.100043
-0.200166
-0.0840026
0.644608
-0.345249
-0.299282
-0.208449
0.13798
0.0704558
0.393123
0.180292
-0.584867
0.601922
-0.0168223
0.140426
-0.0814445
0.0995419
0.587797
-0.347026
-0.240589
0.149064
-0.283125
0.305001
-0.158955
-0.146087
-0.208568
0.0800096
0.00961267
-0.00959585
-1.68235e-05
-0.156762
0.262907
0.31959
-0.345741
-0.22664
0.572546
-0.223993
0.306732
0.0957174
0.0613156
-0.157046
0.144201
0.0236838
-0.0241994
0.113706
-0.00837828
0.106245
-0.0978676
-0.183449
-0.0543929
-0.232986
0.139024
0.120703
0.249872
-0.14128
0.27622
-0.134921
-0.596017
0.296986
0.136218
-0.0226403
-0.113578
-0.00694339
0.260797
0.136998
-0.0752586
-0.125718
0.200974
0.230436
-0.0301702
-0.122449
0.152594
0.115934
0.125403
-0.200658
-0.134332
0.25408
-0.119775
-0.125917
-0.0681932
0.11746
-0.133057
-0.123631
-0.0848327
-0.0674641
0.228082
-0.160644
-0.387432
0.216919
0.170479
0.0586052
-0.0669847
0.128812
0.00805749
0.00688272
0.192132
-0.199027
0.164904
-0.0692011
0.133714
-0.363355
0.229413
0.172767
-0.446581
0.393882
-0.260338
-0.152984
0.122795
0.0035197
0.0949486
-0.0984694
-0.150049
0.244207
-0.0941608
-0.601966
0.341666
0.26023
-0.186971
0.120472
0.301149
0.295866
0.338378
0.249592
0.00208406
0.172553
-0.3827
0.192079
-0.414319
0.222496
0.00201417
-0.00587954
-0.190795
-0.268919
0.459757
-0.121133
0.0393837
0.0817488
0.10881
0.0274077
0.112447
0.0161031
-0.101667
0.0327181
0.0689653
-0.00852892
-0.104284
0.185153
-0.0808884
-0.0737249
0.0186394
0.329298
-0.572474
0.243564
0.040821
-0.207205
0.32562
0.271395
0.291165
-0.164219
-0.126985
0.252118
-0.100773
-0.151331
-0.638682
0.231581
0.407155
0.206089
-0.106011
-0.023358
0.0729364
-0.151838
0.54705
0.371327
-0.502263
0.0707198
-0.0875182
0.0167952
-0.0346991
0.0485276
0.145859
-0.264698
-0.21587
0.415221
-0.19932
0.00119015
0.00577276
0.0260875
-0.136092
0.429905
-0.007699
-0.0664881
0.00331445
0.344508
0.136298
-0.318373
-0.283677
-0.448296
0.23598
0.212466
-0.167147
0.364985
-0.197657
-0.563584
-0.0208482
-0.366571
0.363982
0.0810023
-0.0580913
0.125806
-0.00707617
0.0340326
-0.0269569
-0.582187
0.237752
-0.179712
-0.184794
-0.0804733
-0.0213116
0.101783
-0.250726
0.296451
-0.0458519
-0.069544
-0.104365
0.147181
0.0997857
-0.22142
-0.224519
-0.160296
0.384779
-0.423788
0.207901
0.0902296
-0.0953085
0.00507848
-0.138444
0.07983
-0.184137
-0.123143
0.254829
-0.131708
0.000318279
-0.0102276
-0.127078
-0.129108
-0.0658602
0.0990112
-0.223365
-0.276616
-0.194797
0.471384
0.19236
0.115366
-0.0425372
-0.0728296
-0.182152
0.462792
-0.280637
0.13887
0.0525076
-0.191374
0.195894
-0.31228
0.116425
0.157225
-0.29155
-0.00587277
3.1297e-05
-0.0938107
0.228907
-0.135054
-0.0928291
-0.188877
0.281768
0.00780817
0.544094
-0.55135
-0.00995314
0.00341854
0.00653458
-0.164948
0.372822
-0.2077
-0.193858
0.100076
0.258038
-0.148831
-0.109197
-0.175159
-0.0494401
0.0423638
-0.0609568
-0.516786
0.412934
0.104155
-0.0340153
-0.173681
0.086969
-0.237014
-0.503136
-0.500123
0.207185
0.29323
0.173003
-0.387615
-0.00344745
0.00817348
-0.00472606
0.18431
-0.395792
-0.469113
-0.145379
0.0778901
-0.157044
0.0791528
-0.0739782
0.158759
0.162818
-0.0136091
-0.149217
-0.593185
0.293243
-0.103345
0.18434
0.00229848
0.24442
-0.101792
-0.358614
0.177681
0.180966
-0.188607
-0.198861
-0.0987385
-0.0795344
0.209061
-0.202202
0.192882
-0.469384
-0.0781644
0.166543
-0.0883888
-0.251617
0.362166
0.0614486
-0.428078
0.174156
0.062979
-0.230178
0.432677
-0.20237
-0.120079
0.0327859
0.0872859
0.225796
0.0887848
0.267429
-0.449597
0.00999564
-0.0105554
0.538592
-0.263765
-0.274801
-0.139545
0.295251
-0.585348
0.192647
0.392651
-0.275317
0.15212
0.195911
-0.057944
-0.354827
-0.161595
0.139739
-0.363762
-0.0872908
0.0855521
0.179468
-0.26504
0.0381444
-0.026106
-0.0120366
-0.118139
-0.157939
-0.296783
-0.398524
0.599393
-0.12725
0.022895
0.104352
0.169267
-0.310226
0.140801
-0.31039
0.217592
0.226256
-0.584331
0.358668
-0.309196
0.145424
0.163798
-0.00330426
0.119907
-0.116612
0.0503651
-0.0659303
0.204798
-0.129756
0.00966817
0.0231978
0.132089
0.11237
-0.330132
-0.262718
0.592742
-0.202634
-0.164156
0.366835
-0.163845
0.324734
-0.160986
-0.442433
0.529233
0.382556
-0.18644
-0.195854
-0.00748981
0.00771802
-0.00689797
0.0053617
-0.372081
-0.266544
0.0515446
0.128599
0.00206887
-0.160006
0.15796
-0.16582
0.167938
0.253504
-0.0658685
-0.313138
-0.280115
0.593677
-0.099505
-0.0644261
0.163932
-0.00471891
0.0949478
-0.0449508
0.215851
-0.440233
-0.326479
0.162545
-0.338651
0.0877791
0.252972
-0.443831
0.00749926
-0.000816552
-0.00668282
-0.0894931
-0.0852196
0.174695
-0.117047
-0.146248
-0.193474
0.339814
-0.302543
-0.261358
0.564375
0.258947
0.0645328
-0.323566
-0.173483
0.101869
0.135122
-0.497381
-0.00979793
0.00635048
0.0243503
-0.0590495
-0.0182571
-0.0568105
0.0750675
0.0817542
0.0474207
-0.197344
-0.358154
0.140118
0.247038
-0.118833
-0.128193
-0.114683
-0.05845
0.173118
-0.00289339
0.00746533
-0.00457197
0.00544507
0.0182415
0.205718
-0.118463
-0.0872789
0.171964
0.442413
0.133912
-0.576327
-0.10346
0.252527
-0.196108
0.162062
0.536658
-0.0943289
0.000637616
0.010859
0.441754
0.11496
-0.18757
-0.218382
-0.226057
0.124382
0.101678
0.129718
-0.571974
0.228609
-0.0733808
-0.155217
-0.268474
0.150328
0.091793
0.0542048
-0.146005
-0.089208
-0.0872595
0.176453
-0.507525
0.50113
-0.101241
-0.148756
0.250006
0.106193
0.126149
-0.154628
-0.024326
0.126907
-0.045157
0.0016843
-0.0836843
0.081999
-0.281746
0.60685
0.129614
0.143585
-0.262562
0.147185
0.115334
-0.0626503
-0.220448
-0.281974
-0.284558
0.566474
-0.26898
0.127691
0.288209
0.148796
-0.436953
0.0797779
0.0425203
0.120292
0.0522467
0.0625068
-0.114759
-0.579456
0.348697
0.230596
-0.129848
0.215387
0.534077
-0.307408
-0.133483
-0.180311
0.313767
-0.0576919
-0.016034
0.309654
0.224437
-0.533627
0.253738
-0.127246
-0.12648
0.149372
-0.0929691
0.191636
-0.421682
-0.131478
0.23929
-0.201675
-0.0375949
-0.228434
-0.00145176
0.00182948
-0.000377836
-0.0734952
0.199311
-0.125818
-0.563315
0.316989
0.246618
-0.0276232
-0.086533
0.114155
0.008043
-0.206231
0.198115
-0.596845
0.305981
0.153811
-0.309845
0.156017
-0.18334
0.375869
-0.19244
0.337258
0.259757
-0.241414
0.109871
0.131543
0.0357139
0.223177
-0.0321962
0.0565464
-0.100612
0.240858
0.181181
-0.383711
0.150572
-0.2975
0.146954
0.158319
0.0375775
-0.106169
-0.0913855
0.197553
-0.182108
0.381625
0.11025
-0.239045
0.128829
-0.177041
-0.181038
-0.0973522
0.220859
0.321555
-0.149407
-0.172156
-0.177959
0.0887277
0.403166
-0.210818
0.241047
-0.110657
0.191368
0.238181
-0.429551
-0.174107
-0.226411
0.400404
-0.00239884
0.0188421
-0.0164435
-0.26211
-0.186036
-0.0710418
0.0133482
0.387072
-0.214053
0.136906
0.138846
-0.275712
0.550332
-0.305031
-0.245067
0.234245
-0.131926
-0.102298
-0.294787
-0.290609
-0.185996
0.112497
-0.138934
0.328899
0.078705
-0.106329
-0.214355
0.552743
0.0905963
-0.0228419
0.283161
0.162878
-0.135979
-0.0726133
0.469567
0.173239
-0.642412
0.199993
0.0998555
-0.0355644
-0.328004
-0.164133
-0.0772824
-0.415936
0.2346
0.181368
-0.0590258
0.0176331
0.0263869
-0.0440202
0.117231
0.111391
-0.230905
0.192532
0.0384061
0.0955343
-0.119741
-0.137766
0.34291
-0.205169
-0.0546037
-0.0742258
0.128827
0.110537
0.127362
0.508498
-0.303909
-0.154941
0.0767691
-0.0792841
0.0809672
0.00455062
-0.00744403
0.0526504
0.0802344
-0.00888643
-0.0713487
-0.126811
-0.136051
-0.131877
0.267923
0.350229
0.294463
0.248218
-0.0887502
-0.198642
-0.0183025
-0.199265
0.00369843
0.195659
0.314962
-0.110455
-0.120498
0.230912
0.0243276
-0.119756
0.511554
-0.52042
-0.292832
0.159354
-0.137264
0.247545
-0.00389422
0.00472384
-0.000829923
-0.221836
0.0858261
0.099475
-0.202832
0.116357
0.130693
-0.0320788
-0.475607
0.0050198
0.512644
-0.275651
-0.237042
-0.173
-0.24109
0.413976
0.215116
-0.0212143
0.0653296
-0.316908
0.00237725
0.00918219
0.195581
-0.0854332
-0.110139
-0.0038731
-2.1388e-05
-0.630735
0.260674
0.370502
0.0554605
-0.0851786
0.0297177
0.000477628
-0.00169523
0.00121752
0.146989
-0.0381794
-0.019401
-0.179768
0.168955
0.0336636
-0.00114409
0.143429
-0.0541352
0.13067
-0.076535
-0.300731
0.141704
0.297735
-0.101758
0.0748586
0.0129759
-0.0118623
-0.201005
-0.149789
0.350767
-0.0746573
0.152542
0.0193065
-0.00459399
-0.014712
-0.353751
0.272407
0.0812519
0.258442
0.17444
-0.432966
-0.256229
0.193585
-0.248539
0.128853
0.11966
-0.325187
0.289444
-0.0372833
0.223312
-0.186075
-0.0873864
-0.0398654
-0.0324297
0.0936239
0.216783
-0.546972
0.230048
-0.00990788
0.000626139
-0.0174306
0.0021794
0.0152524
0.185187
-0.178862
-0.179715
-0.395402
0.512834
0.205835
-0.107101
0.0266265
0.0922092
0.103381
-0.0487298
-0.041246
-0.2426
-0.175057
0.433328
0.188041
-0.360059
0.172133
-0.264763
-0.229337
0.104567
-0.219735
0.115195
-0.22103
0.0340241
-0.0124091
0.00413409
0.261915
-0.50659
0.244828
-0.59363
0.257635
0.335787
-0.164812
0.152059
0.0127504
0.150885
-0.351775
0.133215
-0.215272
0.0821042
-0.0591927
0.0834874
-0.0242958
0.16745
-0.268686
-0.0133568
-0.02676
0.0401167
-0.00359315
-0.000279984
-0.272226
0.136152
0.195241
0.0541856
0.0136981
-0.0678845
-0.00944325
0.015
-0.00555679
0.0552784
-0.146548
0.0912704
0.199625
-0.149045
0.0307821
-0.00436791
0.0549679
-0.0506011
0.0960285
0.0715014
-0.167535
-0.156287
-0.144521
-0.557749
0.21216
-0.279167
0.0867868
-0.00047558
-0.213577
-0.0172956
0.0666365
0.00093232
-0.0675706
-0.591579
0.261372
0.00151321
0.00809944
-0.00866638
0.103614
0.199685
-0.363765
0.250385
0.160581
-0.410967
-0.00455098
0.0350265
0.373892
0.196176
0.354333
0.205597
-0.107812
-0.0978036
0.00496447
0.000579053
-0.00554357
0.000916144
0.00616144
-0.0070775
0.0318312
-0.0342306
0.160358
-0.29997
0.203362
-0.140754
-0.0626166
-0.146571
0.0924369
-0.435249
-0.145218
0.167187
-0.469165
-0.584417
0.284823
0.0852277
0.00155906
0.386845
0.238571
-0.625381
0.370643
-0.189401
0.144145
0.0592108
-0.177997
-0.127198
-0.0492192
0.282895
0.260132
-0.542657
0.267769
-0.49178
0.224408
0.401459
-0.324074
-0.255563
0.159513
-0.0627302
-0.153265
0.540332
-0.189369
-0.153854
0.0705611
0.113915
-0.184481
-0.103078
-0.0034767
0.00280446
-0.0478265
0.0450217
0.404736
0.201169
-0.60551
-0.160374
0.105258
0.0551148
-0.00996792
-0.00746101
0.0138059
0.0243403
-0.126846
0.226621
0.00630467
-0.0111616
0.0048569
-0.00149685
-0.128065
-0.192178
-0.419528
-0.12875
-0.123383
0.220731
-0.108877
-0.11186
-0.00091178
-0.00777295
0.00868442
0.100062
-0.563816
0.281919
0.431471
-0.584786
-0.00955051
0.0847018
-0.139308
-0.148808
0.309106
0.291406
0.271816
-0.562937
0.173985
0.171375
-0.34531
0.0999906
0.0649002
0.23358
-0.55141
0.00525046
0.546312
0.118326
-0.215624
-0.139216
-0.295426
-0.288754
-0.175032
0.375086
-0.199925
-0.03535
-0.0236996
-0.211836
-0.16497
-0.258596
0.112683
0.395517
-0.279115
0.119918
0.119842
-0.0159091
-0.103938
0.534681
0.228073
-0.113001
-0.115114
-0.32403
0.438514
-0.114497
-0.227802
0.124222
-0.0557726
0.0385079
0.0172646
0.304856
0.292159
-0.0569255
0.0597293
-0.0739052
0.212958
9.88393e-05
0.00637884
-0.00647743
-0.26131
-0.362139
0.141933
-0.0981037
0.216485
-0.0883094
-0.0720652
0.0840081
-0.0132912
-0.198308
-0.022752
0.0750277
0.00520599
-0.0805679
-0.058655
0.139231
-0.255756
0.102242
0.153524
-0.0102736
0.554703
0.0366325
0.110355
0.175469
0.289512
-0.464793
0.27317
-0.618535
-0.408243
0.215231
0.193171
0.614836
0.0610421
0.112982
-0.174038
0.383594
0.213421
0.249989
0.019816
-0.0790109
0.102235
-0.189507
-0.153906
-0.433958
-0.0497905
0.137252
-0.0874714
0.146207
-0.256338
0.0236976
-0.154004
0.251717
-0.0976817
-0.0550776
0.0228813
0.173061
0.192106
-0.115517
0.139982
-0.00705472
-0.00544178
0.0124964
0.110095
-0.241074
0.13103
0.000256743
0.00724242
0.33668
-0.599382
-0.0538398
0.196825
-0.14295
0.496311
-0.568749
0.0726953
0.154771
-0.286651
-0.146799
0.315971
0.1431
-0.0513177
0.0286521
-0.106976
0.0783211
-0.240048
0.127352
0.112709
-0.00681457
-0.283019
-0.325368
0.608446
-0.0583095
0.0449526
-0.273805
0.111624
0.164191
0.195021
-0.359089
-0.0887247
-0.0678187
-0.025078
0.15941
-0.134323
-0.00556672
0.00197352
-0.147793
0.39821
-0.104492
0.101176
-0.0962448
-0.00683393
0.104917
-0.0298024
0.0820445
-0.292156
0.548191
-0.406677
-0.141235
-0.300232
-0.0880054
0.060879
0.0271259
-0.407331
0.498586
-0.091678
-0.400455
0.302601
0.232709
0.190211
-0.422663
0.157767
-0.461064
0.219595
-0.405855
0.259669
0.275255
-0.124703
0.21143
0.18527
-0.396465
0.476642
-0.251014
0.123916
0.0835611
0.122017
0.0943214
-0.144124
0.399906
-0.215591
-0.00676624
0.00686501
0.315278
-0.137894
-0.177382
-0.0374494
0.0929095
0.129575
-0.0286286
-0.00850729
0.00520231
0.003305
-0.038617
-0.109189
0.147791
0.177504
-0.231328
0.00847414
-0.00402759
-0.00444657
0.0830939
-0.189269
-0.0669868
0.0526435
-0.00497265
-0.04767
0.166788
-0.0668063
0.565384
-0.467275
-0.129392
-0.0965045
0.225866
0.0111176
-0.347424
0.0912268
0.000987128
0.0020514
-0.0030386
0.284313
-0.292235
0.00796118
0.0694432
-0.0518102
0.00862908
-0.135456
-0.119079
-0.149408
-0.00801541
-0.00158043
0.141597
-0.193829
0.373169
0.507778
-0.0377321
-0.10419
-0.13482
0.432367
0.116125
0.162087
-0.474727
-0.0762151
-0.0585066
0.125713
0.126422
0.171808
-0.495815
-0.187987
-0.15941
-0.120442
-0.130593
0.0483993
0.0669656
0.119012
-0.237833
0.169145
0.398584
-0.567882
0.16171
-0.23562
-0.117275
-0.0539461
0.171219
0.109667
0.145141
-0.213491
0.471471
-0.257967
-0.0028408
0.00382786
0.183418
-0.298033
0.114571
-0.0112877
0.248159
-0.0537062
-0.111454
0.20791
-0.179018
-0.13626
-0.00639659
0.00731219
0.0640941
-0.0608264
-0.00325639
0.00702418
-0.00519485
0.173098
-0.316895
0.143722
0.127309
0.100724
0.132397
-0.110837
-0.0215606
-0.175369
-0.299351
0.153181
0.587459
-0.134828
-0.1055
0.240352
0.351121
-0.476664
0.454016
-0.170723
-0.136701
-0.0732111
-0.0143104
0.0101151
-0.0616915
0.0515759
0.494203
-0.265929
-0.228288
0.309284
-0.130803
-0.178535
0.266566
-0.486037
0.0704677
-0.263834
0.119211
-0.257308
-0.230983
0.488744
0.125129
-0.126279
-0.113145
0.0541607
-0.259216
0.205052
-0.390998
0.219264
0.171892
-0.23289
-0.180474
0.413527
-0.293493
-0.219111
0.51297
-0.145974
-0.0946243
0.240602
0.000740719
0.00422369
0.239146
-0.118366
0.188474
0.389405
0.0911566
-0.00723106
0.000176601
-0.231831
-0.184068
0.218386
-0.511523
0.383366
-0.232447
0.0647243
0.0103026
-0.110421
0.559196
-0.551887
-0.00727182
-0.359606
-0.270758
-0.13983
0.114748
0.0875325
-0.00371526
-0.0838179
0.564098
-0.306715
-0.257493
0.627587
-0.356426
0.19854
-0.105564
-0.0930095
-0.152556
-0.138404
0.291054
-0.235384
0.129319
0.10606
-0.216324
0.157963
0.0583318
-0.103404
0.0725383
-0.162048
0.468977
-0.229611
-0.239438
-0.0372417
-0.139011
0.176241
-0.0106838
0.0559107
-0.0452275
0.150724
-0.0308224
0.0122217
-0.140815
0.128588
0.100348
-0.206185
0.105802
0.109757
0.288054
-0.60643
0.163873
0.154583
-0.318538
-0.101589
-0.126167
0.214511
-0.122294
0.157128
0.160788
-0.318061
-0.190849
0.336558
-0.145684
0.583227
-0.281256
-0.30149
0.282314
-0.145381
-0.00440683
-0.0946216
0.0781588
0.0164624
-0.215906
0.158672
0.0572468
0.147629
-0.266715
0.307868
0.0989321
-0.171296
0.0723573
0.154966
-0.301852
-0.153423
0.207537
0.0383992
-0.105722
0.0673238
0.101072
-0.212565
0.155313
-0.294286
-0.377135
-0.0431953
-0.0448105
-0.00503612
-0.0916959
0.0257895
0.443026
-0.468338
0.142027
-0.270105
0.127478
-0.152047
0.349178
-0.161049
0.502151
-0.26558
-0.23628
0.351718
-0.0725007
0.199979
-0.0607629
0.194224
-0.133514
-0.156497
-0.078895
0.00317784
-0.000578576
-0.00259928
-0.1391
-0.136271
-0.309184
-0.023282
0.0133154
-0.261669
-0.214738
0.476301
-0.0640609
0.0741756
-0.532252
-0.0189381
0.551749
0.117602
0.0871103
0.04356
0.292786
-0.27535
-0.0175028
0.398583
0.157769
-0.556364
-0.312081
0.163216
0.257119
-0.122166
-0.134955
0.0742955
-0.00957206
0.155267
-0.277026
0.568331
0.0063726
-0.0606944
0.0543212
0.0541412
0.0973462
0.0958456
-0.160271
0.00317569
-0.0039924
-0.03299
0.150447
0.663511
-0.313214
0.0963001
-0.117614
0.165039
-0.319014
0.154004
0.00824483
0.0601271
-0.068372
-0.234634
-0.144817
0.279917
0.521564
0.0846782
-0.00459787
-0.00535529
0.315377
0.348152
0.0494851
-0.265847
0.239914
0.126854
0.107412
0.0806425
0.104489
-0.156387
0.0979271
-0.25985
0.0425473
0.217292
-0.291966
0.105227
-0.143855
-0.193508
0.0902578
0.103222
-0.178069
0.427973
-0.249846
0.162537
-0.218175
0.0556337
-0.346121
0.166431
0.0178123
-0.0151531
0.00450167
-0.0153986
-0.392408
0.169446
0.00470955
-0.263825
-0.299202
-0.0731321
-0.142762
0.321709
-0.5622
0.240354
0.000480922
0.0026969
-0.217799
-0.348927
0.137097
0.125641
0.433522
0.100518
-0.246497
0.111608
-0.245732
0.134152
-0.501088
-0.151749
0.652982
-0.133472
-0.257366
0.179117
-0.307426
-0.0981861
-0.0508591
-0.0729212
0.162188
-0.0892688
-0.137867
0.291704
-0.153778
0.232081
-0.121924
-0.247898
0.143743
-0.147985
0.0714494
0.303709
0.148537
-0.132056
-0.130548
-0.144187
0.297969
0.206161
-0.0645729
0.135734
-0.227998
0.092284
0.00459917
-0.505593
-0.503981
0.242597
0.0893877
-0.16936
0.0799659
-0.348828
0.173931
0.086452
-0.0981953
-0.0833702
0.230543
-0.00555104
0.095001
-0.0894503
0.142269
0.120369
-0.262632
0.46727
0.139441
-0.330326
0.0901407
-0.208619
0.118495
-0.111145
-0.0536711
0.187635
-0.420304
0.130555
-0.104335
-0.0748904
0.179223
-0.103226
-0.394478
0.125293
-0.556112
-0.0311924
0.587364
0.0100652
-0.0738714
0.0677635
0.00610778
-0.214957
0.0959608
0.118987
0.00212333
0.0108525
-0.0994719
-0.081943
0.181422
-0.107093
0.211688
-0.15585
0.0385723
-0.0591535
-0.0874157
-0.0783602
0.211629
0.00232966
-0.233454
0.0986397
-0.0595099
0.175984
-0.116482
0.134212
-0.286664
0.160704
-0.221519
-0.193212
0.343814
0.142528
0.0131482
-0.196413
-0.181096
0.375861
-0.194774
-0.0447528
0.0403841
0.235452
0.0798326
0.0340139
0.258706
-0.0550634
0.0950342
-0.03997
-0.372106
0.183481
-0.10993
0.210486
-0.10056
-0.0769477
-0.214589
0.0881518
0.0298849
0.254456
-0.0231048
-0.0764207
0.0995233
-0.267618
0.113092
0.154548
-0.26725
-0.260489
0.52777
-0.0861804
0.203285
0.00358472
-0.00153341
-0.0839704
0.0952361
-0.0112704
-0.204524
-0.14018
-0.0932584
-0.209654
0.506769
-0.296781
-0.372836
0.324102
0.0487715
-0.00788576
0.0914088
0.226791
0.241004
-0.50774
0.266799
-0.1877
0.0790605
0.10863
0.144852
0.146591
-0.291446
0.00523802
-0.173272
0.168051
-0.190018
0.354262
0.469264
-0.052124
0.0550512
-0.00292099
-0.138632
-0.160638
-0.299415
0.360905
0.193807
-0.0359465
-0.157862
-0.142234
0.315284
0.398646
-0.115342
0.43711
0.0921718
-0.0765449
-0.145655
0.261243
-0.115631
-0.263035
-0.330798
0.423207
-0.207299
0.095791
0.0820592
-0.177848
-0.124964
-0.130783
0.104348
0.110368
-0.214747
-0.152973
-0.153858
0.306871
-0.0891672
-0.0573796
-0.11017
0.311387
-0.154387
-0.250269
0.130584
0.119684
0.440156
-0.172129
-0.246148
0.487055
-0.00708946
-0.065986
-0.100319
0.1663
-0.105094
-0.0884411
0.0703485
0.150375
0.061654
0.102625
-0.164285
-0.165987
0.0616485
0.157678
-0.0757312
-0.0819587
-0.0822012
-0.0727472
0.0710316
-0.197901
0.0194293
-0.000121408
0.168389
-0.317774
0.143012
0.149295
-0.292392
-0.295437
0.520399
-0.516445
-0.0396539
-0.050851
0.152623
-0.101779
-0.11891
-0.412796
-0.0411954
0.00366488
0.0064472
-0.0101121
0.104202
-0.0771129
-0.02709
0.00311797
0.395476
0.0429941
0.150815
0.153062
-0.0568462
-0.0962159
-0.212184
-0.23676
0.448897
0.0731374
-0.0722066
-0.0278883
0.118503
-0.0906148
0.038932
-0.0814697
0.120628
0.0938916
0.00136142
0.0038613
-0.00522279
-0.0662153
-0.099776
0.11121
-0.098984
0.00683612
-0.00774797
0.184556
-0.0823269
0.144155
-0.298159
0.146838
-0.0465197
-0.187415
0.367061
-0.179596
0.00545406
-0.00453778
0.0947519
-0.233572
0.138818
0.0709268
-0.149835
0.0789038
0.39179
-0.221437
-0.17037
0.0906954
0.39838
0.0968394
-0.494805
0.000268586
-0.0102978
0.0100291
0.00371824
0.00173587
0.320497
0.263064
-0.583301
-0.00359654
0.00701503
-0.105751
0.0884751
0.0172749
-0.104713
-0.0994061
0.204126
-0.107769
0.182326
-0.0745672
0.132436
-0.44891
0.149491
0.000217087
0.00114425
0.289585
-0.134647
-0.0162846
0.0704693
-0.00560417
0.00926904
0.230861
0.342621
-0.573237
-0.0324229
-0.227465
0.298957
0.231047
0.110955
0.0646228
-0.142674
0.0780388
0.0919387
0.0675684
-0.567444
0.0353782
0.363268
-0.0626582
-0.155516
-0.144133
-0.131853
0.275973
0.00447229
0.492119
-0.198428
0.0808677
0.117537
-0.314758
0.246055
-0.467686
0.202849
-0.141884
0.00834952
0.127178
-0.135535
0.464839
0.0593399
-0.00669462
0.306296
0.383163
0.210832
-0.593764
0.0932257
0.112926
-0.0359028
0.101651
-0.0657488
-0.243812
0.262419
-0.231161
0.421571
-0.106881
0.131207
0.106753
-0.0737639
-0.0329904
-0.32678
0.183013
0.143845
-0.0146523
0.176366
0.0968838
-0.101921
-0.100926
-0.00749628
-0.000283955
0.0077802
0.227655
0.105092
-0.176979
0.0718815
-0.00867568
0.00111581
0.00354286
-0.0272641
0.0237207
0.326119
-0.542453
0.216591
-0.228392
0.239071
-0.0908766
0.215267
0.0802349
-0.175942
0.0956971
0.0348209
0.117233
0.241724
0.000953951
-0.00166421
0.000710137
-0.0758687
-0.111842
0.0788936
-0.097089
0.150785
0.133428
-0.299453
0.518249
0.00357558
-0.1082
0.230207
-0.121981
0.490928
0.326133
-0.582016
0.256033
-0.0010306
-0.000647206
0.00167771
-0.224528
-0.0682855
-0.300422
0.140194
0.207787
0.128798
0.118628
0.138489
0.551745
-0.0769222
0.147842
0.118067
-0.263782
0.0978864
0.141828
-0.239664
0.224044
0.233855
-0.457656
-0.0928534
-0.0510625
0.0565073
-0.115727
0.0395103
0.162358
-0.0977521
0.0107382
-0.0107551
0.0936742