/*--------------------------------*- C++ -*----------------------------------*\
| =========                 |                                                 |
| \\      /  F ield         | OpenFOAM: The Open Source CFD Toolbox           |
|  \\    /   O peration     | Version:  v2012                                 |
|   \\  /    A nd           | Website:  www.openfoam.com                      |
|    \\/     M anipulation  |                                                 |
\*---------------------------------------------------------------------------*/
FoamFile
{
    version     2.0;
    format      ascii;
    class       volVectorField;
    location    "700";
    object      cellDisplacement;
}
// * * * * * * * * * * * * * * * * * * * * * * * * * * * * * * * * * * * * * //

dimensions      [0 1 0 0 0 0 0];


internalField   nonuniform List<vector> 
10042
(
(0 -0.00208675 0)
(0 -0.00187455 0)
(0 -0.00220493 0)
(0 -0.000100653 0)
(0 7.00255e-05 0)
(0 -0.00176362 0)
(0 -0.000131034 0)
(0 -7.70738e-05 0)
(0 -0.00231233 0)
(0 -0.00173964 0)
(0 7.70741e-05 0)
(0 -0.00019469 0)
(0 -0.00142758 0)
(0 -0.000896852 0)
(0 -0.000566017 0)
(0 -0.00191757 0)
(0 -0.0019572 0)
(0 -0.000210721 0)
(0 -0.00209671 0)
(0 6.43963e-05 0)
(0 -0.00170544 0)
(0 -0.000280726 0)
(0 -0.000465266 0)
(0 -0.00171277 0)
(0 -0.00183065 0)
(0 -0.0010193 0)
(0 -0.00137276 0)
(0 -0.000882745 0)
(0 -0.00203082 0)
(0 -0.00106708 0)
(0 -0.00188399 0)
(0 7.71057e-05 0)
(0 -0.00168774 0)
(0 -0.00126927 0)
(0 -0.000819006 0)
(0 -0.00169144 0)
(0 -0.00103268 0)
(0 -0.00108092 0)
(0 -0.00160892 0)
(0 -0.000263497 0)
(0 6.59084e-05 0)
(0 -0.000651455 0)
(0 -0.000146654 0)
(0 -0.00139805 0)
(0 7.04175e-05 0)
(0 -0.000617386 0)
(0 -0.000976995 0)
(0 -0.000657186 0)
(0 -0.000975284 0)
(0 -0.00123092 0)
(0 -0.000254262 0)
(0 -0.0027729 0)
(0 -0.000652793 0)
(0 -0.00241749 0)
(0 -0.00100772 0)
(0 -0.00179718 0)
(0 -0.00202806 0)
(0 -0.00101221 0)
(0 -0.00130489 0)
(0 -0.000676313 0)
(0 -0.00187163 0)
(0 -0.00202175 0)
(0 -0.000771994 0)
(0 -0.00221394 0)
(0 -0.000938671 0)
(0 -0.00134166 0)
(0 -0.00116404 0)
(0 4.96069e-05 0)
(0 7.53995e-05 0)
(0 -0.00171388 0)
(0 -0.0024592 0)
(0 6.803e-05 0)
(0 -0.00137996 0)
(0 -8.95062e-05 0)
(0 -0.00119438 0)
(0 -0.00178668 0)
(0 7.10736e-05 0)
(0 -0.00209649 0)
(0 -0.000148536 0)
(0 -9.39908e-05 0)
(0 -0.00101267 0)
(0 6.88072e-05 0)
(0 -0.00147465 0)
(0 -0.000755482 0)
(0 -0.00115861 0)
(0 -0.000762361 0)
(0 -0.00207913 0)
(0 3.46841e-05 0)
(0 -0.00152139 0)
(0 -0.00208868 0)
(0 -0.00159269 0)
(0 6.91062e-05 0)
(0 -0.000853206 0)
(0 -0.00279056 0)
(0 -0.00109679 0)
(0 -0.00176095 0)
(0 -0.00216836 0)
(0 -0.00176896 0)
(0 -0.000287433 0)
(0 -0.00210203 0)
(0 -4.02858e-05 0)
(0 -3.19706e-06 0)
(0 -0.000102702 0)
(0 -0.000814801 0)
(0 -0.000906115 0)
(0 -3.8889e-05 0)
(0 -0.00198594 0)
(0 -0.00217273 0)
(0 -0.0016451 0)
(0 -0.00275861 0)
(0 -0.000523117 0)
(0 -0.00195447 0)
(0 -0.000593253 0)
(0 7.59627e-05 0)
(0 -0.000963045 0)
(0 -0.00198003 0)
(0 -0.00182268 0)
(0 -0.00208726 0)
(0 -0.00178826 0)
(0 7.65595e-05 0)
(0 -0.00154606 0)
(0 -9.08736e-05 0)
(0 -0.00136273 0)
(0 -0.00184018 0)
(0 -1.16307e-05 0)
(0 -0.00144768 0)
(0 -7.20924e-05 0)
(0 -0.000764325 0)
(0 -4.58519e-05 0)
(0 -0.0020821 0)
(0 -0.000132262 0)
(0 -0.00131494 0)
(0 7.69276e-05 0)
(0 -9.85753e-05 0)
(0 -0.00209955 0)
(0 -7.31694e-05 0)
(0 7.69462e-05 0)
(0 -0.00155058 0)
(0 -0.000613315 0)
(0 4.02117e-05 0)
(0 -0.000826432 0)
(0 -0.00180266 0)
(0 -0.000941753 0)
(0 -4.25501e-06 0)
(0 -0.00284856 0)
(0 -0.00197256 0)
(0 -0.000119521 0)
(0 -0.00296865 0)
(0 -0.00173099 0)
(0 -0.000512632 0)
(0 -0.00234475 0)
(0 -8.78547e-05 0)
(0 -1.70873e-05 0)
(0 7.66143e-05 0)
(0 -0.00100556 0)
(0 -0.00132765 0)
(0 -0.000691173 0)
(0 -0.00202465 0)
(0 -5.97032e-05 0)
(0 7.69898e-05 0)
(0 7.71014e-05 0)
(0 -0.000129964 0)
(0 -0.00194542 0)
(0 -0.00231574 0)
(0 -0.00140249 0)
(0 -0.00135284 0)
(0 1.70121e-05 0)
(0 7.68525e-05 0)
(0 7.71176e-05 0)
(0 7.64147e-05 0)
(0 -0.00241753 0)
(0 -0.00214227 0)
(0 6.78792e-05 0)
(0 6.77415e-05 0)
(0 -5.344e-05 0)
(0 -0.000285378 0)
(0 7.67851e-05 0)
(0 -0.00137806 0)
(0 5.41403e-05 0)
(0 -0.000354238 0)
(0 -0.000653847 0)
(0 7.7064e-05 0)
(0 -0.00112576 0)
(0 -0.000762517 0)
(0 -0.000680478 0)
(0 7.64571e-05 0)
(0 -3.79289e-05 0)
(0 -0.00147319 0)
(0 7.70201e-05 0)
(0 -0.00115106 0)
(0 7.65547e-05 0)
(0 -0.000922689 0)
(0 -2.71032e-05 0)
(0 6.59958e-05 0)
(0 -0.000265683 0)
(0 5.75001e-05 0)
(0 -0.00121162 0)
(0 -0.00203271 0)
(0 -0.00120462 0)
(0 -0.000879023 0)
(0 -5.46504e-05 0)
(0 -0.00145411 0)
(0 -0.00197489 0)
(0 6.79863e-05 0)
(0 -0.00111825 0)
(0 -0.00229479 0)
(0 7.66767e-05 0)
(0 -0.00125164 0)
(0 -0.000243669 0)
(0 -0.000551666 0)
(0 5.40001e-05 0)
(0 -0.000378876 0)
(0 1.05961e-05 0)
(0 6.63241e-05 0)
(0 -0.000723215 0)
(0 -2.68144e-05 0)
(0 -0.00130968 0)
(0 -0.00203475 0)
(0 -0.000124168 0)
(0 -0.00215149 0)
(0 -0.000585352 0)
(0 -0.000676439 0)
(0 6.42935e-05 0)
(0 -0.00105095 0)
(0 -0.000363055 0)
(0 -0.00101374 0)
(0 -6.9876e-05 0)
(0 -0.00197683 0)
(0 -6.00073e-05 0)
(0 -0.00245551 0)
(0 -0.00233401 0)
(0 6.36623e-05 0)
(0 -0.00214276 0)
(0 -0.00249313 0)
(0 -0.00216528 0)
(0 -0.000495607 0)
(0 -0.00223354 0)
(0 -0.000782692 0)
(0 -0.00159639 0)
(0 -0.00207539 0)
(0 -0.00192921 0)
(0 -0.00134261 0)
(0 -0.00145223 0)
(0 -0.000559214 0)
(0 -0.00200659 0)
(0 -0.00188604 0)
(0 -0.000532928 0)
(0 -0.000873585 0)
(0 -0.00243518 0)
(0 -0.000162824 0)
(0 -0.000874167 0)
(0 -0.00175499 0)
(0 -0.000552292 0)
(0 6.64833e-05 0)
(0 -0.000120947 0)
(0 7.70905e-05 0)
(0 -4.13562e-05 0)
(0 -6.68207e-05 0)
(0 -0.000537022 0)
(0 -0.000544775 0)
(0 -0.000229906 0)
(0 -0.00163622 0)
(0 -0.00199406 0)
(0 -0.000757 0)
(0 -0.000893477 0)
(0 -0.0022303 0)
(0 -0.000276233 0)
(0 -0.00203102 0)
(0 -0.00207235 0)
(0 -0.00048159 0)
(0 -4.37252e-05 0)
(0 -0.00240531 0)
(0 6.46991e-05 0)
(0 -5.44731e-05 0)
(0 3.1464e-05 0)
(0 -0.00110446 0)
(0 -0.0021152 0)
(0 -0.00221 0)
(0 -0.00157379 0)
(0 -0.00279874 0)
(0 -0.000330672 0)
(0 -0.00165524 0)
(0 -0.000993226 0)
(0 7.67772e-05 0)
(0 -0.00228419 0)
(0 -0.00214469 0)
(0 -0.000214574 0)
(0 -0.000574729 0)
(0 -0.00151804 0)
(0 -0.00185349 0)
(0 -0.000590615 0)
(0 -0.000311273 0)
(0 -0.000317854 0)
(0 -1.48668e-06 0)
(0 -0.000215531 0)
(0 -0.00110347 0)
(0 -0.00195929 0)
(0 -0.00227354 0)
(0 -7.90305e-05 0)
(0 -0.00187866 0)
(0 -0.00189619 0)
(0 -0.00215121 0)
(0 -0.00130067 0)
(0 -0.00117474 0)
(0 -0.000547138 0)
(0 7.46276e-07 0)
(0 6.4821e-05 0)
(0 -0.000719684 0)
(0 3.09848e-05 0)
(0 -0.00204725 0)
(0 -0.00160696 0)
(0 -0.00144892 0)
(0 7.71091e-05 0)
(0 -2.07157e-05 0)
(0 6.32687e-05 0)
(0 7.68841e-05 0)
(0 -0.00188362 0)
(0 -0.00203703 0)
(0 -0.00168572 0)
(0 -0.000553102 0)
(0 -0.000985966 0)
(0 -0.000481373 0)
(0 -0.000277461 0)
(0 -0.000542377 0)
(0 -0.000627125 0)
(0 -0.0013587 0)
(0 8.35745e-06 0)
(0 -0.00015028 0)
(0 -0.0011915 0)
(0 -0.00139067 0)
(0 -0.0005784 0)
(0 7.64966e-05 0)
(0 -0.00202172 0)
(0 -0.00110126 0)
(0 -0.000678971 0)
(0 -0.00226384 0)
(0 -0.000145152 0)
(0 -0.000267394 0)
(0 -6.8068e-05 0)
(0 2.00801e-05 0)
(0 -0.00113468 0)
(0 -0.000801146 0)
(0 -0.00135239 0)
(0 -0.000907018 0)
(0 -0.00160651 0)
(0 -0.000174789 0)
(0 -2.47685e-06 0)
(0 -0.00164494 0)
(0 -0.00130619 0)
(0 -0.000819434 0)
(0 -0.00195444 0)
(0 -0.000508685 0)
(0 -0.000722692 0)
(0 -0.000775847 0)
(0 -0.00248048 0)
(0 -0.000387648 0)
(0 -6.00136e-05 0)
(0 -0.00028249 0)
(0 -0.000941377 0)
(0 -0.00198454 0)
(0 2.53706e-05 0)
(0 -0.000115132 0)
(0 -0.0021038 0)
(0 -0.000162442 0)
(0 -0.00212464 0)
(0 -0.00213313 0)
(0 -0.00211617 0)
(0 -0.000488179 0)
(0 6.00402e-05 0)
(0 -0.00210328 0)
(0 -0.000410082 0)
(0 -0.000746442 0)
(0 -4.52999e-05 0)
(0 -0.00028829 0)
(0 6.51122e-05 0)
(0 -0.00202096 0)
(0 -0.0025184 0)
(0 7.68611e-05 0)
(0 -0.00189276 0)
(0 -0.000112716 0)
(0 -4.74542e-06 0)
(0 -8.40065e-05 0)
(0 -0.00034361 0)
(0 7.71017e-05 0)
(0 -0.000347821 0)
(0 6.46557e-05 0)
(0 -0.001226 0)
(0 -0.00116861 0)
(0 -8.98966e-05 0)
(0 -0.00104776 0)
(0 -0.000641994 0)
(0 -0.00170939 0)
(0 -0.000518544 0)
(0 7.70533e-05 0)
(0 -0.000337475 0)
(0 -0.0017523 0)
(0 1.9414e-05 0)
(0 7.61461e-05 0)
(0 -0.00138423 0)
(0 -0.00290081 0)
(0 7.71042e-05 0)
(0 -1.13618e-05 0)
(0 -0.0021467 0)
(0 4.78236e-05 0)
(0 7.70262e-05 0)
(0 -0.00215557 0)
(0 -0.000293486 0)
(0 -0.00238354 0)
(0 -0.00205783 0)
(0 -0.000729674 0)
(0 -0.00228921 0)
(0 2.56602e-05 0)
(0 -9.09656e-05 0)
(0 -0.00101316 0)
(0 6.32718e-05 0)
(0 -0.00076247 0)
(0 -0.00190518 0)
(0 5.81365e-05 0)
(0 -0.00224019 0)
(0 -9.90491e-05 0)
(0 -0.000297547 0)
(0 -0.000746956 0)
(0 -0.00262736 0)
(0 -0.00286796 0)
(0 5.07984e-05 0)
(0 -0.00239482 0)
(0 -0.000330562 0)
(0 -0.00103497 0)
(0 7.70288e-05 0)
(0 -0.000761504 0)
(0 6.5474e-05 0)
(0 -0.000601482 0)
(0 -0.00199184 0)
(0 -0.00196318 0)
(0 6.5851e-05 0)
(0 -0.00198391 0)
(0 -0.000286258 0)
(0 -0.00184962 0)
(0 -0.00249534 0)
(0 7.7039e-05 0)
(0 -0.00113675 0)
(0 -0.00183121 0)
(0 -0.000349916 0)
(0 7.71081e-05 0)
(0 -0.0020713 0)
(0 -0.00108914 0)
(0 -0.0008678 0)
(0 -0.00221805 0)
(0 6.05448e-05 0)
(0 -0.000314318 0)
(0 -0.00186814 0)
(0 -0.00101451 0)
(0 -0.00204483 0)
(0 -0.000977098 0)
(0 -0.00200928 0)
(0 -0.00178536 0)
(0 7.70918e-05 0)
(0 -0.00179317 0)
(0 -0.000457377 0)
(0 -0.00025785 0)
(0 -0.000119682 0)
(0 -0.000159676 0)
(0 -0.000188576 0)
(0 -0.000384215 0)
(0 7.69111e-05 0)
(0 -0.00115304 0)
(0 -0.00170278 0)
(0 -0.00199726 0)
(0 -8.91134e-05 0)
(0 -0.00213844 0)
(0 -0.00195819 0)
(0 -0.000166234 0)
(0 -0.0022506 0)
(0 -0.00227703 0)
(0 -0.000644048 0)
(0 -0.00212424 0)
(0 -7.06386e-05 0)
(0 -0.00196315 0)
(0 -0.00199322 0)
(0 7.71124e-05 0)
(0 -0.00154573 0)
(0 -0.00247787 0)
(0 -0.00167125 0)
(0 -0.0010839 0)
(0 -0.000301295 0)
(0 -0.00184726 0)
(0 -0.00227848 0)
(0 6.27855e-05 0)
(0 -0.000989086 0)
(0 -1.36942e-05 0)
(0 -0.00161634 0)
(0 -8.34736e-05 0)
(0 -6.3782e-05 0)
(0 1.27721e-05 0)
(0 -0.00170366 0)
(0 -0.00182035 0)
(0 -0.000810915 0)
(0 -0.00212801 0)
(0 -0.00026876 0)
(0 -9.92147e-05 0)
(0 -0.00206331 0)
(0 -7.03699e-05 0)
(0 7.69402e-05 0)
(0 -0.00118837 0)
(0 -0.000276656 0)
(0 -0.0018666 0)
(0 -0.00250256 0)
(0 -0.000824086 0)
(0 -0.0020721 0)
(0 7.53427e-05 0)
(0 7.70381e-05 0)
(0 -0.00164808 0)
(0 -0.000795144 0)
(0 -0.00148853 0)
(0 -0.00152677 0)
(0 -0.00115297 0)
(0 -0.000566949 0)
(0 -0.000141662 0)
(0 4.80751e-05 0)
(0 7.67045e-05 0)
(0 -0.0026016 0)
(0 -0.00245085 0)
(0 -0.0022555 0)
(0 -0.00192403 0)
(0 7.56035e-05 0)
(0 -0.000312183 0)
(0 -0.00209695 0)
(0 -0.00187051 0)
(0 -0.000301677 0)
(0 -0.00121919 0)
(0 -0.000122243 0)
(0 -0.0011589 0)
(0 -0.00131959 0)
(0 7.712e-05 0)
(0 7.58062e-05 0)
(0 6.92712e-05 0)
(0 -4.09145e-05 0)
(0 -0.00197372 0)
(0 -0.00205936 0)
(0 -0.00128976 0)
(0 -0.000154046 0)
(0 7.31545e-05 0)
(0 7.67034e-05 0)
(0 -0.000414468 0)
(0 -0.000266852 0)
(0 -0.000731163 0)
(0 -0.0012441 0)
(0 -0.00103853 0)
(0 -0.000793148 0)
(0 7.70915e-05 0)
(0 -0.000610736 0)
(0 -0.00206117 0)
(0 -0.000721475 0)
(0 -0.000767983 0)
(0 -0.000369111 0)
(0 -0.00165605 0)
(0 -0.000273798 0)
(0 -0.000315524 0)
(0 -0.00053811 0)
(0 -0.00193203 0)
(0 -0.000830543 0)
(0 -0.00163371 0)
(0 -5.07879e-05 0)
(0 4.01904e-05 0)
(0 -0.000168494 0)
(0 -0.0012741 0)
(0 -0.00106705 0)
(0 -0.00176305 0)
(0 -0.00115692 0)
(0 -0.00156172 0)
(0 -0.00176021 0)
(0 -0.000389266 0)
(0 -0.000172386 0)
(0 -1.7895e-05 0)
(0 -0.00127519 0)
(0 -0.000942423 0)
(0 -0.00074099 0)
(0 -0.00184281 0)
(0 6.36851e-05 0)
(0 -0.00156283 0)
(0 -0.000845732 0)
(0 -0.000303905 0)
(0 -0.00206475 0)
(0 -0.000136131 0)
(0 -0.00116168 0)
(0 -0.001857 0)
(0 7.65662e-05 0)
(0 -0.00067021 0)
(0 -0.000792954 0)
(0 -1.2564e-05 0)
(0 -0.00214189 0)
(0 -0.000202246 0)
(0 -0.00137445 0)
(0 -0.00188241 0)
(0 -7.29011e-05 0)
(0 -0.00104788 0)
(0 -0.00117902 0)
(0 7.52199e-05 0)
(0 -0.000841429 0)
(0 -0.00188637 0)
(0 -0.0014183 0)
(0 -0.000292485 0)
(0 -0.000767834 0)
(0 -0.00182288 0)
(0 -0.00177616 0)
(0 -0.00205687 0)
(0 -0.00114005 0)
(0 -0.00141552 0)
(0 -0.000295439 0)
(0 -0.00252926 0)
(0 -0.000581375 0)
(0 -0.0027979 0)
(0 -0.00212585 0)
(0 5.80238e-05 0)
(0 -0.00236498 0)
(0 6.08627e-05 0)
(0 -0.00179773 0)
(0 -0.00205263 0)
(0 -0.00152411 0)
(0 -0.000899779 0)
(0 -0.00161768 0)
(0 -0.000626589 0)
(0 -0.00155574 0)
(0 -1.97184e-05 0)
(0 -0.000362919 0)
(0 -0.000170387 0)
(0 -0.00300106 0)
(0 -0.000600741 0)
(0 -0.000277315 0)
(0 -0.00127364 0)
(0 -0.0021039 0)
(0 -0.00103449 0)
(0 -0.00178463 0)
(0 6.48232e-05 0)
(0 7.68538e-05 0)
(0 -0.000397475 0)
(0 -0.00151932 0)
(0 -8.21771e-05 0)
(0 -0.00197995 0)
(0 -7.94396e-05 0)
(0 -0.000641381 0)
(0 -0.00166706 0)
(0 -0.000184462 0)
(0 4.53264e-05 0)
(0 7.16996e-05 0)
(0 -0.00121344 0)
(0 6.92167e-05 0)
(0 -0.000792082 0)
(0 -0.00126595 0)
(0 -0.00059279 0)
(0 -0.0016569 0)
(0 -0.00108494 0)
(0 -0.0016587 0)
(0 -0.00181196 0)
(0 -0.000985263 0)
(0 -0.000128116 0)
(0 -7.46274e-05 0)
(0 -0.00183487 0)
(0 -0.0017463 0)
(0 6.53068e-05 0)
(0 -0.000636539 0)
(0 -0.00041117 0)
(0 -0.00133853 0)
(0 -0.000457602 0)
(0 -0.000108621 0)
(0 -0.00189567 0)
(0 -0.00214535 0)
(0 -0.00108327 0)
(0 -0.00221287 0)
(0 7.71033e-05 0)
(0 -0.000643596 0)
(0 6.74641e-05 0)
(0 -0.000321247 0)
(0 7.15945e-05 0)
(0 7.66577e-05 0)
(0 -1.63673e-05 0)
(0 -0.00164778 0)
(0 -0.000551277 0)
(0 -7.27402e-05 0)
(0 -8.23432e-05 0)
(0 -0.00138543 0)
(0 -0.00181883 0)
(0 -0.000149537 0)
(0 7.71223e-05 0)
(0 -0.00198519 0)
(0 -0.000234687 0)
(0 3.09102e-05 0)
(0 -0.00194263 0)
(0 -0.00213464 0)
(0 -0.00173074 0)
(0 -0.000794893 0)
(0 -0.00211083 0)
(0 -0.00248318 0)
(0 1.22431e-05 0)
(0 5.8988e-05 0)
(0 -0.00250728 0)
(0 -0.00200626 0)
(0 7.69757e-05 0)
(0 -3.54761e-05 0)
(0 -0.00196164 0)
(0 -0.00172248 0)
(0 -0.000299868 0)
(0 -0.00205097 0)
(0 6.07467e-05 0)
(0 -0.000675155 0)
(0 6.59215e-05 0)
(0 -0.000890244 0)
(0 -0.00214396 0)
(0 -0.00241946 0)
(0 -0.000624814 0)
(0 -0.00183129 0)
(0 -0.00100194 0)
(0 -0.00079177 0)
(0 6.69778e-05 0)
(0 -0.00201441 0)
(0 -0.00137368 0)
(0 -0.000114819 0)
(0 -0.00201248 0)
(0 -0.00148 0)
(0 3.39126e-05 0)
(0 -0.00196344 0)
(0 7.69654e-05 0)
(0 6.83747e-05 0)
(0 -0.00124549 0)
(0 -0.00205441 0)
(0 2.90564e-05 0)
(0 7.71102e-05 0)
(0 -0.000121326 0)
(0 -0.00217347 0)
(0 -5.54529e-05 0)
(0 6.80088e-05 0)
(0 -0.000303147 0)
(0 -0.00142243 0)
(0 -0.000603907 0)
(0 -0.00163064 0)
(0 6.56595e-05 0)
(0 -0.00152452 0)
(0 5.69214e-05 0)
(0 -0.000216627 0)
(0 7.6345e-05 0)
(0 5.74258e-05 0)
(0 -0.00185459 0)
(0 -0.00206394 0)
(0 6.24749e-05 0)
(0 -0.00130572 0)
(0 -0.00155155 0)
(0 -0.000499376 0)
(0 7.62121e-05 0)
(0 6.77812e-05 0)
(0 5.55005e-05 0)
(0 -0.00249576 0)
(0 -0.000502337 0)
(0 -9.80095e-05 0)
(0 -0.00157601 0)
(0 -0.00020771 0)
(0 -0.000944651 0)
(0 6.40708e-05 0)
(0 -0.000672103 0)
(0 -0.00189798 0)
(0 -0.000525943 0)
(0 -0.00119974 0)
(0 -0.000125515 0)
(0 -0.000394065 0)
(0 -0.00155371 0)
(0 -0.000475098 0)
(0 -0.0011981 0)
(0 -0.000117288 0)
(0 -0.000734707 0)
(0 -0.00177904 0)
(0 -0.000578154 0)
(0 1.20355e-05 0)
(0 7.29894e-05 0)
(0 -0.000781082 0)
(0 -0.000107226 0)
(0 -3.29742e-05 0)
(0 -2.40869e-05 0)
(0 -0.00070449 0)
(0 7.71084e-05 0)
(0 7.70153e-05 0)
(0 -0.0019612 0)
(0 -0.00142732 0)
(0 -0.000858483 0)
(0 -0.000567623 0)
(0 5.74757e-05 0)
(0 -0.000854196 0)
(0 -0.00109699 0)
(0 -0.000702355 0)
(0 -2.41906e-05 0)
(0 -9.51853e-05 0)
(0 -0.00255385 0)
(0 -0.0009644 0)
(0 -0.00173975 0)
(0 -0.000164205 0)
(0 -0.0015685 0)
(0 -0.000228839 0)
(0 -0.00117151 0)
(0 -0.000823702 0)
(0 -0.000838638 0)
(0 -0.00220986 0)
(0 7.57319e-05 0)
(0 -0.00212827 0)
(0 -0.000861959 0)
(0 -0.00175867 0)
(0 -0.0010728 0)
(0 2.12334e-06 0)
(0 -0.000831018 0)
(0 -0.000718765 0)
(0 -0.00168196 0)
(0 -0.00124614 0)
(0 7.53297e-05 0)
(0 -5.34347e-05 0)
(0 7.17859e-05 0)
(0 -0.000617784 0)
(0 6.27188e-05 0)
(0 -0.000466081 0)
(0 -0.000899604 0)
(0 -0.00123069 0)
(0 -0.000100626 0)
(0 2.23533e-05 0)
(0 -0.000807966 0)
(0 6.95953e-05 0)
(0 -0.000200797 0)
(0 -0.000809165 0)
(0 -0.000277989 0)
(0 -2.021e-05 0)
(0 -0.00160992 0)
(0 -0.000418812 0)
(0 -0.00217398 0)
(0 -0.000473474 0)
(0 -0.000331408 0)
(0 -7.60352e-06 0)
(0 -7.3634e-05 0)
(0 3.60519e-05 0)
(0 -0.000344665 0)
(0 -0.000173889 0)
(0 -0.000141431 0)
(0 -0.000678781 0)
(0 6.2857e-05 0)
(0 -0.00169311 0)
(0 7.4646e-05 0)
(0 -0.00203708 0)
(0 -0.000691343 0)
(0 -0.00010348 0)
(0 2.98275e-05 0)
(0 -0.0012796 0)
(0 7.60304e-05 0)
(0 -0.000226516 0)
(0 -0.00202897 0)
(0 -0.00107695 0)
(0 -0.00131735 0)
(0 -0.00166982 0)
(0 -0.000297997 0)
(0 -2.58486e-05 0)
(0 -0.00138945 0)
(0 7.71229e-05 0)
(0 -0.00120249 0)
(0 7.68488e-05 0)
(0 -0.00208815 0)
(0 -0.0021119 0)
(0 -0.000106415 0)
(0 -0.000758798 0)
(0 6.73571e-05 0)
(0 -0.00206718 0)
(0 -0.00025739 0)
(0 4.70326e-06 0)
(0 -0.000832672 0)
(0 -9.2629e-06 0)
(0 -9.57933e-05 0)
(0 -0.00136172 0)
(0 -8.88145e-05 0)
(0 6.86816e-05 0)
(0 -0.00140813 0)
(0 -0.00175789 0)
(0 -0.00214913 0)
(0 -0.000428329 0)
(0 -0.00213093 0)
(0 -0.00203095 0)
(0 -0.00137319 0)
(0 -0.00213634 0)
(0 -0.00127647 0)
(0 -0.000766568 0)
(0 -0.000482176 0)
(0 -0.000159556 0)
(0 -0.00180918 0)
(0 5.89911e-05 0)
(0 -0.00148621 0)
(0 7.04263e-05 0)
(0 -5.32828e-05 0)
(0 7.51679e-05 0)
(0 -0.000394565 0)
(0 -0.00205725 0)
(0 7.71101e-05 0)
(0 -0.000726599 0)
(0 6.76654e-05 0)
(0 -1.5125e-05 0)
(0 -0.000182794 0)
(0 -0.00076702 0)
(0 -0.00215021 0)
(0 -0.000867522 0)
(0 3.63906e-06 0)
(0 -0.00172148 0)
(0 7.62497e-05 0)
(0 -0.00174336 0)
(0 7.66229e-05 0)
(0 -0.000186213 0)
(0 -0.00140543 0)
(0 -0.00163536 0)
(0 7.66504e-05 0)
(0 7.63347e-05 0)
(0 -0.000547106 0)
(0 -0.00185346 0)
(0 -0.00035876 0)
(0 -0.0017469 0)
(0 -0.00133772 0)
(0 -0.000460215 0)
(0 -5.90109e-05 0)
(0 -0.000680022 0)
(0 -0.00164233 0)
(0 -0.00173957 0)
(0 -0.000805541 0)
(0 6.49869e-05 0)
(0 -0.00122715 0)
(0 -0.0012615 0)
(0 -0.000661449 0)
(0 -0.00016619 0)
(0 -0.00100384 0)
(0 -0.00190707 0)
(0 7.64924e-05 0)
(0 -0.0010651 0)
(0 -0.00187827 0)
(0 7.68825e-05 0)
(0 -0.000613155 0)
(0 -0.0013369 0)
(0 7.71132e-05 0)
(0 -0.000256644 0)
(0 7.62635e-05 0)
(0 -0.00185747 0)
(0 -0.000689477 0)
(0 -9.67472e-06 0)
(0 -0.00216539 0)
(0 -0.00183454 0)
(0 -0.000146981 0)
(0 -0.00179779 0)
(0 -0.00188557 0)
(0 -0.000363364 0)
(0 -0.00248575 0)
(0 1.09307e-05 0)
(0 6.60823e-05 0)
(0 -0.00214848 0)
(0 -0.00147987 0)
(0 -0.0015747 0)
(0 -0.00190327 0)
(0 -0.000907209 0)
(0 -0.00133688 0)
(0 -8.73722e-05 0)
(0 -0.000300751 0)
(0 -0.00149164 0)
(0 -0.00200469 0)
(0 -0.00214054 0)
(0 -0.00167856 0)
(0 -0.00139567 0)
(0 7.60639e-05 0)
(0 -0.00107928 0)
(0 -0.00293913 0)
(0 -0.00199438 0)
(0 -1.71073e-05 0)
(0 3.2902e-05 0)
(0 -0.00175782 0)
(0 -0.00162244 0)
(0 -0.00178382 0)
(0 -0.00283294 0)
(0 6.83373e-05 0)
(0 -0.00134211 0)
(0 -0.000347772 0)
(0 -0.000307067 0)
(0 -0.000788078 0)
(0 4.7425e-05 0)
(0 -0.00105762 0)
(0 -0.000167203 0)
(0 -0.000497895 0)
(0 -0.00185015 0)
(0 -0.00151328 0)
(0 -0.000994179 0)
(0 -0.000176701 0)
(0 -0.000287995 0)
(0 -0.00174752 0)
(0 -0.000747027 0)
(0 6.87976e-05 0)
(0 -0.000259764 0)
(0 -0.000282788 0)
(0 -0.000607045 0)
(0 -1.11135e-05 0)
(0 -0.000232299 0)
(0 -0.00255297 0)
(0 -0.0012257 0)
(0 -0.000722356 0)
(0 -0.00178608 0)
(0 -0.00286621 0)
(0 -0.000504003 0)
(0 -0.00210953 0)
(0 6.03482e-05 0)
(0 4.8102e-05 0)
(0 -0.000547047 0)
(0 -0.00167116 0)
(0 -0.000748974 0)
(0 -0.000290321 0)
(0 -0.0014534 0)
(0 -0.00145612 0)
(0 -0.000123812 0)
(0 -0.000653157 0)
(0 -0.0016034 0)
(0 -0.00186789 0)
(0 6.84998e-05 0)
(0 5.3358e-05 0)
(0 -0.000343867 0)
(0 -0.00137363 0)
(0 -0.0002855 0)
(0 -0.00240692 0)
(0 -0.00145723 0)
(0 -0.0017105 0)
(0 -0.000312681 0)
(0 -0.00118626 0)
(0 -0.00148194 0)
(0 7.70937e-05 0)
(0 -0.00111467 0)
(0 -0.00113517 0)
(0 -4.51367e-05 0)
(0 -0.00193102 0)
(0 6.38041e-05 0)
(0 -0.00020693 0)
(0 -0.000945365 0)
(0 -7.70069e-05 0)
(0 -0.00138346 0)
(0 -0.00138628 0)
(0 -0.00257164 0)
(0 -0.00130734 0)
(0 6.90463e-05 0)
(0 -0.0020204 0)
(0 -0.000963498 0)
(0 6.84801e-05 0)
(0 -0.000355882 0)
(0 -0.0001467 0)
(0 7.498e-05 0)
(0 -6.94197e-05 0)
(0 -0.000642497 0)
(0 5.47123e-05 0)
(0 -0.00247781 0)
(0 5.74329e-05 0)
(0 -0.00116056 0)
(0 -0.00148066 0)
(0 -0.000467706 0)
(0 7.71139e-05 0)
(0 -0.000724004 0)
(0 -0.000998634 0)
(0 -0.0011389 0)
(0 -0.000923578 0)
(0 -4.37862e-05 0)
(0 -0.000334928 0)
(0 -0.00017261 0)
(0 -0.00165538 0)
(0 -0.00102713 0)
(0 -0.000368101 0)
(0 -0.000472806 0)
(0 -0.0021136 0)
(0 -0.000798349 0)
(0 -0.00189828 0)
(0 -1.66724e-05 0)
(0 7.67264e-05 0)
(0 -0.00136621 0)
(0 -0.000613598 0)
(0 -0.000683038 0)
(0 -0.000505508 0)
(0 -0.00125004 0)
(0 7.70975e-05 0)
(0 -0.00179092 0)
(0 -0.00215641 0)
(0 -0.000421294 0)
(0 -0.00135677 0)
(0 -0.00130006 0)
(0 -8.87972e-05 0)
(0 -0.00199667 0)
(0 -0.00117066 0)
(0 -4.8372e-05 0)
(0 -0.000323066 0)
(0 -0.00180709 0)
(0 -0.00124239 0)
(0 -0.00177808 0)
(0 -7.22373e-05 0)
(0 -0.00218629 0)
(0 -0.000282335 0)
(0 -0.00107058 0)
(0 -0.00137843 0)
(0 -0.000539366 0)
(0 -0.00154445 0)
(0 -6.78114e-05 0)
(0 -0.00189268 0)
(0 -0.000319542 0)
(0 -0.00223182 0)
(0 2.59815e-05 0)
(0 -0.00102583 0)
(0 4.67968e-05 0)
(0 -0.00116158 0)
(0 -0.00187981 0)
(0 -0.00282404 0)
(0 -0.0011509 0)
(0 -0.000122313 0)
(0 -0.00212547 0)
(0 -0.00126153 0)
(0 -0.000362118 0)
(0 -0.000945319 0)
(0 -0.00214349 0)
(0 -0.000781028 0)
(0 -0.00013923 0)
(0 7.71251e-05 0)
(0 6.51049e-05 0)
(0 -0.000568665 0)
(0 7.71122e-05 0)
(0 -0.000582744 0)
(0 -0.000971105 0)
(0 -0.000145817 0)
(0 -0.000104734 0)
(0 -0.00153664 0)
(0 7.70993e-05 0)
(0 -0.00173271 0)
(0 -0.000339142 0)
(0 -0.00180682 0)
(0 -0.00122686 0)
(0 -0.00179268 0)
(0 -0.00137953 0)
(0 -0.00101572 0)
(0 -0.00210437 0)
(0 6.95807e-05 0)
(0 -0.00145299 0)
(0 -0.00134245 0)
(0 1.13644e-05 0)
(0 -0.00198569 0)
(0 -0.000684589 0)
(0 -0.00204004 0)
(0 -0.00048735 0)
(0 -0.00174432 0)
(0 -1.99678e-05 0)
(0 -0.000772622 0)
(0 -0.00159719 0)
(0 -0.000985053 0)
(0 7.58551e-05 0)
(0 -4.81478e-06 0)
(0 -0.0023881 0)
(0 -0.00169346 0)
(0 -0.00167844 0)
(0 -0.00204058 0)
(0 6.42092e-05 0)
(0 -0.00214649 0)
(0 -0.00161297 0)
(0 -0.000411311 0)
(0 -0.0014979 0)
(0 -0.00152433 0)
(0 -0.00214496 0)
(0 -0.00202634 0)
(0 -0.000155551 0)
(0 -0.00183587 0)
(0 -0.00227969 0)
(0 -0.000775831 0)
(0 -0.00182791 0)
(0 -0.00301139 0)
(0 -0.000123939 0)
(0 6.71959e-05 0)
(0 -0.00113209 0)
(0 -0.00132289 0)
(0 -0.0026037 0)
(0 -0.00049562 0)
(0 -0.0008448 0)
(0 -0.000653631 0)
(0 -0.00172581 0)
(0 -0.000131295 0)
(0 -0.000891321 0)
(0 -0.00175352 0)
(0 -0.000969839 0)
(0 -0.00157742 0)
(0 -0.00166723 0)
(0 4.99549e-05 0)
(0 -0.00020407 0)
(0 -0.00047314 0)
(0 -0.000534888 0)
(0 -0.000188349 0)
(0 -0.000332742 0)
(0 -0.000224583 0)
(0 -0.000203716 0)
(0 -0.000702691 0)
(0 2.24799e-05 0)
(0 -0.00141134 0)
(0 -0.00155589 0)
(0 -0.00151008 0)
(0 -0.000128094 0)
(0 -0.000106981 0)
(0 -0.000243351 0)
(0 6.04668e-05 0)
(0 7.70121e-05 0)
(0 5.84512e-06 0)
(0 -0.00143963 0)
(0 -0.000790822 0)
(0 -0.000115032 0)
(0 -0.00251971 0)
(0 5.35251e-05 0)
(0 -4.53865e-05 0)
(0 6.78061e-05 0)
(0 -0.000758215 0)
(0 7.62588e-05 0)
(0 -0.000320392 0)
(0 -0.000271241 0)
(0 6.10459e-05 0)
(0 -0.000366233 0)
(0 -0.00172356 0)
(0 -0.00057601 0)
(0 -0.0020445 0)
(0 6.48296e-05 0)
(0 -0.00131591 0)
(0 -0.000188756 0)
(0 -0.00213773 0)
(0 -0.00047926 0)
(0 -0.00188862 0)
(0 7.68856e-05 0)
(0 6.30645e-05 0)
(0 -0.000595451 0)
(0 7.70607e-05 0)
(0 6.19584e-05 0)
(0 -0.000468289 0)
(0 -0.000415426 0)
(0 -0.000139383 0)
(0 -0.0022624 0)
(0 7.58497e-05 0)
(0 -0.00146691 0)
(0 2.09989e-05 0)
(0 7.70683e-05 0)
(0 -0.000636719 0)
(0 -0.00166745 0)
(0 -0.0016987 0)
(0 -0.000610459 0)
(0 -0.00168314 0)
(0 -0.000460106 0)
(0 -0.000127432 0)
(0 -0.00114572 0)
(0 -0.0019132 0)
(0 -0.000782459 0)
(0 -0.00163129 0)
(0 -0.0010628 0)
(0 -0.000428807 0)
(0 -0.00215101 0)
(0 -0.001805 0)
(0 -0.000731229 0)
(0 -0.0001844 0)
(0 -0.0019002 0)
(0 -2.79655e-05 0)
(0 -0.0020231 0)
(0 -0.000260156 0)
(0 -0.000506922 0)
(0 -1.42439e-06 0)
(0 -0.00178651 0)
(0 -0.00214017 0)
(0 -0.000143289 0)
(0 3.61013e-05 0)
(0 -0.00216365 0)
(0 -0.000689172 0)
(0 4.94347e-05 0)
(0 -0.000310204 0)
(0 7.67037e-05 0)
(0 -0.00215012 0)
(0 -0.00039116 0)
(0 7.46915e-05 0)
(0 6.76463e-05 0)
(0 -0.00163458 0)
(0 -0.00162961 0)
(0 -0.000703352 0)
(0 -0.000354428 0)
(0 -0.000123415 0)
(0 -0.00101839 0)
(0 7.46606e-05 0)
(0 -0.000401271 0)
(0 -4.79833e-05 0)
(0 -0.00132919 0)
(0 -0.00158833 0)
(0 7.70834e-05 0)
(0 -0.000692619 0)
(0 -0.00129509 0)
(0 -0.000250163 0)
(0 7.62384e-05 0)
(0 -0.00185195 0)
(0 -0.00262283 0)
(0 -0.00290779 0)
(0 -0.00132196 0)
(0 -0.000658666 0)
(0 -0.000168883 0)
(0 -0.00117683 0)
(0 -0.00170306 0)
(0 -0.00211693 0)
(0 -0.000978876 0)
(0 7.63994e-05 0)
(0 -4.81167e-05 0)
(0 -0.000488139 0)
(0 7.67938e-05 0)
(0 -0.000161106 0)
(0 -0.00234212 0)
(0 -0.00205234 0)
(0 -0.0017771 0)
(0 -9.76089e-06 0)
(0 -1.49493e-05 0)
(0 -0.00016658 0)
(0 -0.00260828 0)
(0 -0.00144806 0)
(0 -0.001879 0)
(0 -0.00124204 0)
(0 -0.000140911 0)
(0 -0.00191901 0)
(0 -1.89789e-06 0)
(0 -0.00167187 0)
(0 -0.00131256 0)
(0 5.94097e-05 0)
(0 7.70057e-05 0)
(0 -0.00141639 0)
(0 3.10693e-05 0)
(0 -0.000127073 0)
(0 -0.000335185 0)
(0 -0.000333341 0)
(0 -0.00234179 0)
(0 7.67759e-05 0)
(0 -0.000181657 0)
(0 -0.00193868 0)
(0 -0.00218459 0)
(0 -0.00174479 0)
(0 -0.000757451 0)
(0 -0.000288422 0)
(0 -0.0004245 0)
(0 -0.00192719 0)
(0 -0.00178753 0)
(0 -0.00150881 0)
(0 7.97191e-06 0)
(0 7.60215e-05 0)
(0 -0.00279385 0)
(0 -0.0011586 0)
(0 4.54585e-05 0)
(0 7.03617e-05 0)
(0 -0.000415356 0)
(0 -0.000139336 0)
(0 7.41045e-05 0)
(0 -0.00294729 0)
(0 -0.000895988 0)
(0 -0.00111867 0)
(0 -0.000704878 0)
(0 5.40318e-05 0)
(0 -0.00191114 0)
(0 -0.000110159 0)
(0 3.59211e-05 0)
(0 -0.000114514 0)
(0 -0.00077262 0)
(0 -0.00171154 0)
(0 5.03009e-05 0)
(0 -0.000103851 0)
(0 -0.00173268 0)
(0 -1.92837e-05 0)
(0 -0.000329975 0)
(0 7.64801e-05 0)
(0 -0.00152596 0)
(0 -0.00113238 0)
(0 -3.0054e-05 0)
(0 -0.000639885 0)
(0 -0.000584186 0)
(0 -0.000330569 0)
(0 -0.002155 0)
(0 -0.00036443 0)
(0 6.06577e-05 0)
(0 -0.000444907 0)
(0 -0.00203734 0)
(0 -0.000615233 0)
(0 7.70435e-05 0)
(0 -0.00240148 0)
(0 -0.00204015 0)
(0 -0.00247489 0)
(0 1.67213e-05 0)
(0 -0.002155 0)
(0 -0.0011776 0)
(0 -0.00114513 0)
(0 -0.00214905 0)
(0 6.12902e-05 0)
(0 6.95015e-05 0)
(0 -0.00104825 0)
(0 1.74206e-06 0)
(0 7.58087e-05 0)
(0 7.66123e-05 0)
(0 -0.00209321 0)
(0 -0.00144862 0)
(0 -0.00214334 0)
(0 -0.00196364 0)
(0 -0.00148668 0)
(0 -0.0013123 0)
(0 -0.00182811 0)
(0 -0.001146 0)
(0 -0.00175297 0)
(0 -0.000441069 0)
(0 7.68944e-05 0)
(0 -0.000122545 0)
(0 -0.000460892 0)
(0 -0.00125987 0)
(0 -0.00187855 0)
(0 -0.000662736 0)
(0 -0.000265853 0)
(0 -0.0010842 0)
(0 -0.00212641 0)
(0 -0.000109199 0)
(0 -0.000251835 0)
(0 5.39357e-05 0)
(0 -0.000695824 0)
(0 -0.00281861 0)
(0 6.39637e-05 0)
(0 -0.000913374 0)
(0 -0.00236073 0)
(0 -0.00180522 0)
(0 -7.24915e-05 0)
(0 -0.000552489 0)
(0 -0.000646037 0)
(0 -0.000557244 0)
(0 -0.00161618 0)
(0 -0.00158252 0)
(0 -0.000125102 0)
(0 -0.000741133 0)
(0 -0.00182104 0)
(0 2.97736e-06 0)
(0 -0.00164636 0)
(0 -0.000224951 0)
(0 6.20766e-05 0)
(0 -0.000133209 0)
(0 -0.000503316 0)
(0 -0.00014899 0)
(0 -0.00133635 0)
(0 6.72344e-06 0)
(0 -8.26275e-05 0)
(0 -0.000166565 0)
(0 7.71246e-05 0)
(0 -0.00182959 0)
(0 -0.00302769 0)
(0 -0.00200304 0)
(0 -0.00175531 0)
(0 -0.00151518 0)
(0 -0.000980412 0)
(0 -0.000617737 0)
(0 -0.00137118 0)
(0 7.63991e-05 0)
(0 -0.00151068 0)
(0 3.03296e-05 0)
(0 5.00632e-05 0)
(0 -0.00214006 0)
(0 6.90533e-05 0)
(0 -0.001098 0)
(0 -0.000111571 0)
(0 7.68162e-05 0)
(0 -0.00195176 0)
(0 -0.00023932 0)
(0 -0.00291925 0)
(0 7.64586e-05 0)
(0 -0.000699558 0)
(0 -0.000129426 0)
(0 -0.00206715 0)
(0 1.48505e-05 0)
(0 -0.00119992 0)
(0 7.70569e-05 0)
(0 -0.00212324 0)
(0 -0.000147678 0)
(0 -0.0028911 0)
(0 -0.00134751 0)
(0 -0.000169289 0)
(0 -0.00212424 0)
(0 7.71257e-05 0)
(0 7.5215e-05 0)
(0 -0.000426914 0)
(0 5.39571e-05 0)
(0 -0.000334227 0)
(0 7.63189e-05 0)
(0 -0.000224044 0)
(0 -0.00189917 0)
(0 -5.80503e-05 0)
(0 -0.000383641 0)
(0 -0.000256778 0)
(0 -0.00165915 0)
(0 -0.000226976 0)
(0 -0.00127549 0)
(0 -0.000170332 0)
(0 -0.0014082 0)
(0 -0.00106783 0)
(0 -0.00112811 0)
(0 7.65408e-05 0)
(0 -2.01921e-05 0)
(0 -0.00165064 0)
(0 5.72979e-05 0)
(0 5.52553e-06 0)
(0 -0.00184274 0)
(0 -0.000154607 0)
(0 -0.000308561 0)
(0 -7.24525e-05 0)
(0 -0.000364423 0)
(0 -0.00205595 0)
(0 7.4878e-05 0)
(0 -0.0016486 0)
(0 -0.00194111 0)
(0 -0.00133158 0)
(0 -2.51785e-05 0)
(0 -0.000342141 0)
(0 -0.00214522 0)
(0 -0.000326241 0)
(0 -0.00140519 0)
(0 -0.000264341 0)
(0 -0.00159952 0)
(0 7.58156e-05 0)
(0 -0.000149678 0)
(0 -0.000719313 0)
(0 -0.000229678 0)
(0 -0.00012156 0)
(0 -0.00126139 0)
(0 -0.00193627 0)
(0 6.35237e-05 0)
(0 -0.000240578 0)
(0 -0.000649514 0)
(0 -0.00151254 0)
(0 6.04993e-06 0)
(0 -0.00128558 0)
(0 -0.00148393 0)
(0 -0.000578625 0)
(0 -8.06827e-06 0)
(0 -8.62458e-05 0)
(0 -0.000372091 0)
(0 -0.00277269 0)
(0 -0.00177552 0)
(0 -0.00125487 0)
(0 -0.00152451 0)
(0 -0.000951327 0)
(0 5.77797e-05 0)
(0 -9.30334e-05 0)
(0 -0.000367628 0)
(0 -0.0021047 0)
(0 -0.000960852 0)
(0 -0.0018412 0)
(0 -0.000149786 0)
(0 -0.00125428 0)
(0 -0.00109933 0)
(0 -0.00138665 0)
(0 -8.03687e-05 0)
(0 -0.000379606 0)
(0 -0.000666737 0)
(0 -0.000302348 0)
(0 -5.88125e-05 0)
(0 -0.00106336 0)
(0 -0.000204093 0)
(0 -0.000751493 0)
(0 -0.00216316 0)
(0 -0.000598359 0)
(0 -0.00195221 0)
(0 -0.00210628 0)
(0 7.697e-05 0)
(0 -0.00193442 0)
(0 7.55701e-05 0)
(0 -0.00137079 0)
(0 -0.000245148 0)
(0 -0.000602656 0)
(0 -0.00155133 0)
(0 -0.00116146 0)
(0 -0.000823393 0)
(0 -0.000132045 0)
(0 -0.0015333 0)
(0 -0.000800933 0)
(0 -0.00172633 0)
(0 -0.000332417 0)
(0 -0.00172123 0)
(0 7.6908e-05 0)
(0 -5.01023e-05 0)
(0 -0.00208604 0)
(0 -0.00175027 0)
(0 -0.00291366 0)
(0 -0.001966 0)
(0 -0.000251489 0)
(0 -4.16835e-05 0)
(0 -0.00155714 0)
(0 7.60637e-05 0)
(0 -0.00211736 0)
(0 -0.00154028 0)
(0 -0.00217094 0)
(0 -0.000154535 0)
(0 -0.000980843 0)
(0 -0.000611261 0)
(0 -0.00199516 0)
(0 -0.00152896 0)
(0 -0.00163412 0)
(0 -0.000196564 0)
(0 -0.000229038 0)
(0 -0.000607651 0)
(0 7.64161e-05 0)
(0 -0.00265802 0)
(0 -0.00159552 0)