/*--------------------------------*- C++ -*----------------------------------*\
| =========                 |                                                 |
| \\      /  F ield         | OpenFOAM: The Open Source CFD Toolbox           |
|  \\    /   O peration     | Version:  v2012                                 |
|   \\  /    A nd           | Website:  www.openfoam.com                      |
|    \\/     M anipulation  |                                                 |
\*---------------------------------------------------------------------------*/
FoamFile
{
    version     2.0;
    format      ascii;
    class       volScalarField;
    location    "700";
    object      ddt0(k);
}
// * * * * * * * * * * * * * * * * * * * * * * * * * * * * * * * * * * * * * //

dimensions      [0 2 -3 0 0 0 0];


internalField   nonuniform List<scalar> 
10042
(
-2.06902e-07
-1.93695e-07
8.57057e-07
-1.56023e-06
-0.0184744
1.34109e-07
-0.020306
-2.7562e-05
-7.03321e-07
-8.29274e-08
-0.0126021
-1.6977e-06
-8.28622e-07
-3.3989e-07
2.64345e-07
-9.12579e-07
-7.98367e-07
5.21246e-08
-2.92806e-07
-1.12376e-06
-2.02127e-06
-9.02116e-06
-8.51815e-07
2.92991e-07
-1.47873e-07
-4.215e-07
-4.70369e-07
4.90159e-07
-7.726e-07
5.9375e-07
-3.55364e-08
0.00218977
3.50126e-07
-1.52168e-07
7.80145e-07
3.59267e-07
-3.12137e-07
-1.43806e-06
-8.77074e-07
1.64807e-07
-2.20212e-07
4.39308e-07
-0.01982
6.07641e-07
-0.0189179
-2.72426e-07
6.49179e-07
-1.75869e-06
2.21502e-07
-1.11817e-06
-4.22374e-07
4.74931e-07
8.298e-07
2.42317e-07
-3.01512e-07
-3.41849e-07
-8.2899e-07
6.85194e-07
1.51527e-08
1.04031e-06
-2.4935e-07
-5.29282e-07
7.41771e-07
8.37974e-07
-6.57951e-08
-1.22326e-08
2.7857e-07
-6.80345e-07
-0.0212955
-3.7676e-07
1.87689e-07
-1.40638e-06
6.09661e-07
-2.36732e-08
7.91126e-07
1.22226e-06
-0.0181741
-2.67566e-07
5.67649e-08
-0.0447078
-4.3526e-08
-0.020476
9.16259e-07
2.22301e-07
2.81765e-07
1.20554e-08
4.1349e-07
-2.29007e-06
9.42749e-07
-6.68637e-08
-1.97034e-07
-0.0221019
4.01929e-07
1.35703e-07
6.33789e-07
-9.83972e-08
-2.89275e-07
-5.60495e-08
5.98971e-08
-8.5774e-07
-7.58356e-11
-3.41345e-07
2.74113e-05
4.06866e-07
3.29551e-07
-1.17591e-07
5.54498e-07
-2.55703e-07
-1.77416e-06
-6.82077e-07
-1.34677e-06
-6.89598e-07
4.38966e-08
-0.0125729
-4.03738e-08
-5.84234e-07
8.54762e-08
-2.90447e-07
-1.90325e-07
0.00198049
1.09946e-06
4.84565e-05
3.53096e-07
-1.49029e-08
-5.50259e-07
6.80396e-07
-4.25284e-05
7.34031e-07
-1.01023e-07
-3.75878e-07
3.16084e-08
2.28665e-08
-0.0115326
1.59161e-05
-7.58193e-07
2.66466e-07
-0.000731343
3.35673e-07
-2.02208e-06
-2.18747e-06
7.04525e-07
1.58548e-07
6.68339e-07
-1.01079e-06
4.20312e-07
-5.45508e-07
6.35054e-07
-7.29059e-07
-2.78026e-07
-3.49976e-07
-4.31563e-07
7.42115e-08
-0.0639645
-0.0128561
-1.37457e-06
-5.707e-07
2.84312e-07
-6.40572e-07
1.04498e-07
0.000943955
-0.0121673
3.4037e-06
1.43575e-07
-4.36888e-07
1.03317e-06
4.97203e-08
-2.9623e-07
0.00666805
0.00211624
-0.0124088
3.02233e-07
8.04351e-07
-0.0298338
-1.57652e-06
-1.03819e-07
-0.0110011
-0.00150801
5.76028e-07
1.50794e-07
2.38302e-07
2.9241e-07
0.00362756
6.63039e-07
7.39338e-07
4.74687e-07
0.0100335
1.88444e-05
-6.46359e-08
-0.00660034
-4.00827e-08
6.58517e-05
9.27845e-07
-0.0501924
-0.0389014
2.46217e-06
-0.00940266
-1.79546e-07
4.20651e-07
-6.45558e-07
-2.063e-07
-3.5137e-08
-2.4529e-07
-1.62669e-07
-2.74721e-06
2.85062e-07
-6.97758e-07
-6.15016e-05
-1.65475e-06
2.35791e-07
1.75072e-06
-0.0015909
-1.72002e-06
-2.84096e-07
-4.17786e-06
2.88543e-07
1.63569e-05
8.49622e-07
6.20299e-07
3.37062e-07
-2.24105e-07
1.4405e-07
3.00622e-07
-8.15112e-06
-1.74974e-06
7.42679e-07
-6.17079e-07
5.45513e-05
-7.40264e-07
3.4013e-06
1.65466e-07
-6.89355e-07
-6.64121e-07
8.01287e-07
2.13928e-07
1.20349e-06
-3.68928e-07
-1.12576e-06
-9.32413e-07
-1.92878e-07
-8.31006e-07
2.34686e-09
5.60147e-07
7.79495e-07
3.24177e-07
-1.20925e-06
8.56283e-08
-6.73163e-07
3.04899e-07
4.86393e-07
5.3662e-08
-1.79875e-06
-4.34879e-07
4.6403e-07
-9.91896e-06
2.84649e-06
-0.00332683
-1.68646e-07
-1.15895e-07
2.56778e-07
-1.30399e-08
-0.0043436
1.09676e-08
5.20202e-07
-8.70668e-07
-2.17801e-07
-9.43419e-07
-2.41001e-05
3.23154e-07
1.99463e-08
1.9327e-06
-1.10277e-07
1.39541e-07
-2.19496e-06
-2.50589e-07
-4.00813e-06
-1.77859e-07
-7.70141e-07
-8.12754e-07
1.23189e-06
4.5798e-07
5.3843e-07
7.6664e-07
-4.02795e-07
-0.011926
-2.07231e-07
4.50612e-07
-0.00404864
-5.09707e-08
5.29449e-07
1.92104e-07
4.87268e-07
-0.0134908
5.07964e-07
-9.08616e-07
-2.40665e-07
-7.25741e-07
-7.01411e-07
-8.05071e-07
4.70059e-05
6.24136e-08
-8.54944e-07
-1.17945e-08
6.86561e-07
-1.58157e-06
3.87254e-07
-1.28617e-07
0.0631086
1.12463e-06
0.00364333
-1.69397e-06
-5.4755e-08
-4.36148e-07
-0.00828193
-3.82076e-07
-0.00428403
-0.0012148
7.36871e-07
3.02064e-07
-3.49098e-07
4.9472e-07
-6.03695e-07
-1.49959e-07
2.3848e-07
-1.53592e-06
-5.70561e-07
6.05937e-07
-3.522e-07
-4.0848e-07
5.34874e-07
4.67932e-07
6.45035e-07
0.0120614
-1.18681e-06
-1.37858e-06
1.37128e-07
7.47738e-07
4.11935e-07
2.29689e-06
-2.47576e-07
0.00025327
-1.75815e-06
7.40594e-07
4.43661e-07
-3.84463e-07
-2.37852e-07
1.75937e-07
0.000106452
6.21278e-07
-1.70243e-07
2.23191e-06
-1.68633e-07
3.72307e-07
2.12752e-07
-1.62826e-06
2.34135e-07
7.4774e-07
-1.96442e-07
2.07114e-07
4.41231e-08
1.6207e-07
0.000687051
6.95106e-07
5.7606e-08
4.2015e-07
1.04871e-06
1.6755e-07
7.12778e-07
1.84301e-07
0.000202911
-8.91978e-08
1.37624e-07
7.69174e-07
1.31607e-10
-4.18208e-07
1.92733e-06
2.3575e-07
-1.42238e-06
-0.00089175
-2.61116e-07
0.000921018
0.000120076
-6.77169e-09
-0.0482648
-0.000829724
2.87883e-08
-2.36822e-06
-1.22246e-06
-1.26465e-06
8.80762e-10
5.45255e-07
-9.95995e-05
-2.85365e-07
2.8593e-07
0.000418228
-1.34833e-06
-2.66162e-06
6.37433e-09
2.19224e-05
-3.40611e-07
-3.45282e-07
0.00399709
-3.56718e-07
1.33015e-06
-1.30944e-07
7.75242e-05
-4.80364e-07
1.69811e-07
-6.54519e-07
-1.00125e-06
-1.07932e-06
1.43422e-08
0.000277584
0.000233799
5.7675e-07
0.0527505
-1.35931e-06
-3.71843e-09
-8.33797e-05
1.08469e-06
0.00092232
7.53371e-07
2.18253e-07
3.34593e-07
-4.06909e-08
-1.10673e-06
4.22435e-07
2.29085e-08
6.02358e-07
-0.0130569
2.75532e-07
-0.02953
4.36403e-07
5.70191e-08
-6.03304e-07
-2.23999e-05
-2.94676e-08
6.45939e-08
-2.36504e-07
-1.48866e-07
-0.00242961
-6.01486e-07
-5.18468e-07
-1.21276e-06
0.00154652
-9.15456e-07
-4.64346e-07
-5.90764e-07
-9.41937e-07
0.0593328
-0.0631166
-1.37666e-06
-9.2736e-08
-1.89411e-07
-2.02291e-06
-1.10258e-06
-2.40498e-08
0.000685277
2.24515e-07
-1.85275e-06
-4.60078e-07
9.38749e-05
5.10483e-07
2.53219e-07
4.13817e-07
-0.000420242
-1.85959e-06
-2.12805e-07
1.9873e-07
1.56317e-05
3.35261e-07
-4.10794e-07
2.35283e-07
-4.53286e-07
3.97896e-07
3.17588e-07
1.98502e-07
2.65895e-08
5.46843e-07
5.29079e-08
-0.0123882
-5.44835e-08
6.69829e-07
1.83743e-07
9.70865e-07
2.06244e-07
-1.53209e-06
1.94564e-07
-0.00404757
4.8261e-07
-0.0984595
1.27782e-07
2.16021e-08
-1.4522e-07
-1.37155e-06
1.53174e-06
-1.79267e-07
-1.22226e-06
-4.50249e-07
6.59328e-08
-0.0226402
-3.11628e-07
1.47215e-08
-8.73569e-05
-1.81321e-06
1.96994e-07
-1.79346e-07
7.33633e-07
-9.22654e-08
-1.39815e-06
0.00825741
-0.0026763
-2.80029e-07
6.99833e-07
-9.25653e-07
-1.42647e-06
4.29807e-07
-1.16346e-06
1.86266e-05
-8.17302e-07
6.30658e-06
-3.12736e-07
7.51028e-07
1.29077e-06
1.76739e-07
-0.0111624
6.32332e-07
-3.94002e-07
-7.51305e-07
-1.31853e-06
7.79249e-07
4.74595e-05
-5.41563e-07
2.91453e-07
-0.000592418
-1.9269e-05
-3.58213e-06
-4.91747e-08
-1.1226e-06
-7.06868e-07
-2.52352e-07
7.97355e-07
0.00952634
0.000576171
6.13817e-07
-5.37803e-09
-2.10292e-08
2.39742e-07
4.08858e-07
2.14238e-07
-0.01278
-5.55537e-07
-1.64255e-06
-4.01096e-07
-4.22266e-07
-5.22467e-05
1.42145e-07
1.25189e-07
-1.46106e-08
-1.17302e-07
-2.01757e-07
7.89253e-07
-2.43538e-06
4.67101e-08
-3.19493e-07
1.03342e-06
-1.37066e-06
2.83504e-07
8.06124e-08
2.28716e-07
9.12064e-08
-1.26561e-07
6.08099e-07
2.90822e-07
5.23639e-08
3.90327e-07
3.5026e-07
-5.81277e-07
9.34005e-08
-9.0683e-07
-1.24303e-06
-6.09227e-07
-1.29027e-05
-1.91984e-07
6.9463e-07
1.32221e-06
-2.57772e-08
0.0140783
-3.35349e-08
-5.93906e-07
1.20618e-05
9.39057e-07
3.50618e-07
3.02773e-07
-3.60141e-07
7.8548e-10
1.50535e-07
6.92374e-07
-2.05334e-05
5.45208e-07
-4.51628e-07
-4.59627e-07
3.09967e-07
-1.76414e-08
-1.95332e-07
-7.87113e-07
-7.21608e-07
-1.66673e-06
1.91544e-07
1.87707e-07
-1.49317e-06
2.48466e-07
-8.49795e-08
4.18364e-07
0.0832406
-6.95473e-07
1.41233e-06
9.56537e-09
-5.63141e-07
-6.30909e-07
-6.80198e-07
1.71867e-07
-4.2015e-08
1.66308e-07
1.46903e-05
-1.67647e-08
-0.00929083
-7.60119e-07
6.41776e-07
-8.78978e-07
8.20646e-07
9.05163e-07
1.70487e-07
-1.24489e-07
-1.3518e-07
0.000530582
-6.22661e-05
-5.75124e-07
-4.28428e-08
1.85716e-07
-2.51986e-07
-3.25883e-07
-3.08646e-07
1.18502e-07
2.36267e-08
-0.00196108
2.61197e-06
-0.0386786
7.0466e-07
3.13895e-07
-1.85451e-07
-1.58371e-07
1.73224e-08
-2.9576e-06
9.82043e-07
2.99398e-07
1.50506e-07
1.29096e-07
-1.28561e-07
-7.45689e-07
0.0110971
7.57333e-07
1.63001e-07
-8.5094e-07
4.1573e-07
-0.0368647
8.26249e-08
6.02461e-07
2.99378e-07
-3.63462e-07
-0.00855968
-5.42461e-07
-0.0168285
-1.03043e-06
-0.000219565
0.0043628
0.000107378
-3.10349e-06
4.73859e-09
4.85532e-06
-3.15579e-07
8.4353e-07
-6.29232e-07
2.22381e-07
-0.00927014
2.1753e-07
-2.87411e-07
-0.135691
7.49171e-07
2.63307e-07
1.8428e-07
5.91575e-07
8.3171e-07
4.00812e-07
-1.3349e-06
0.0154798
6.39998e-08
6.89153e-07
-0.0115762
-0.0235922
6.21459e-08
-2.11332e-07
-3.81926e-07
-9.02449e-07
-0.000114071
-5.85653e-07
-2.2772e-06
4.53875e-07
6.38118e-07
-7.91074e-07
2.02953e-07
-2.17236e-07
-1.042e-06
7.16638e-07
0.0488509
-5.67908e-07
5.96732e-07
-9.42634e-08
-7.01889e-07
-1.78208e-06
-1.7504e-07
-1.28792e-07
-0.00231816
-0.0245417
4.95906e-07
-1.41406e-06
0.00135845
-0.0111989
-4.59374e-07
9.89771e-07
4.75082e-05
1.02769e-06
1.91986e-07
8.77673e-07
-2.03932e-07
-1.77394e-06
-2.8019e-06
-5.86479e-07
-6.58412e-07
1.4398e-07
0.00797998
0.000132628
-3.48689e-07
9.5028e-08
-2.51562e-07
-1.51698e-06
-6.41375e-07
-3.87928e-08
-0.0124608
-0.00348377
0.080018
6.36837e-07
7.36435e-07
-4.1214e-07
-9.0856e-07
-1.76322e-06
-6.57664e-07
-2.64478e-06
-1.1924e-07
-2.23483e-07
6.09211e-07
3.82592e-07
3.90502e-07
-9.21253e-07
-1.50667e-06
-1.48508e-06
4.22834e-07
1.16194e-05
-5.86349e-07
-4.36585e-07
3.53328e-07
-3.20674e-07
-1.23151e-05
-7.52565e-07
-2.36418e-08
-0.00544301
-0.127167
4.35658e-07
-0.00611229
-0.00175099
7.98082e-07
-8.74071e-07
7.07227e-07
3.50074e-07
-0.0103484
-5.98581e-07
-1.43456e-07
6.64433e-08
-0.0338176
-2.52848e-07
5.34818e-07
-6.21005e-07
-3.40462e-07
4.91113e-07
-4.21931e-08
-3.56519e-07
-1.78722e-06
6.39147e-07
-6.5434e-07
-8.81091e-07
-1.04309e-05
4.50285e-07
3.62701e-07
3.07616e-07
7.90106e-07
-6.65656e-07
-6.06649e-07
8.84132e-07
3.235e-08
-8.22003e-07
1.21649e-05
2.23542e-10
-5.04119e-06
-8.5454e-08
0.00197028
-8.97142e-07
9.81836e-08
-1.79469e-06
6.81162e-08
-4.15875e-08
6.62995e-07
-0.0374418
-0.00115628
-4.68317e-08
-9.78955e-07
9.2313e-05
-6.50522e-07
2.62859e-07
-6.93972e-07
-1.42088e-08
3.43634e-07
-3.94735e-11
8.14325e-10
-1.00488e-08
-2.01306e-07
-1.08272e-06
6.92408e-08
3.05143e-07
0.0616338
-3.99875e-07
-1.95169e-05
-1.01538e-06
-3.32502e-07
-4.44672e-07
-0.121391
-6.84709e-07
-0.0133761
-6.11638e-08
-8.05988e-07
-4.42632e-07
2.71618e-07
1.05095e-06
4.984e-07
-1.115e-07
-1.89726e-06
-0.0121145
-3.82962e-08
-0.000363837
-8.26646e-07
-7.48103e-07
-2.72131e-09
-2.3727e-07
-0.0217061
-5.06097e-08
2.09933e-07
-2.72794e-07
-6.21658e-07
1.11552e-07
2.53266e-07
-1.22765e-06
1.70121e-07
-1.70924e-06
1.54478e-06
-4.32818e-08
-1.11452e-06
-4.47604e-07
8.04893e-07
-2.08114e-07
1.19427e-08
-1.28502e-06
-2.06955e-06
3.07946e-07
-8.0361e-08
9.31761e-08
1.28517e-07
-0.0101478
2.43659e-07
-0.000323991
-5.31696e-08
0.016864
7.90367e-07
-3.92296e-07
0.00141959
1.39941e-07
-3.85499e-06
-0.00894641
2.55186e-07
-3.45113e-08
5.60701e-07
4.24259e-07
-1.09892e-06
-4.68136e-08
-0.0136566
-2.57865e-07
-0.00846151
-0.00816422
-1.73162e-06
2.2983e-07
0.00646458
0.0126015
2.49211e-07
-3.03628e-07
-1.33839e-06
-8.00921e-07
-1.25635e-06
-1.5898e-06
1.00049e-07
-0.000162144
-6.76747e-08
7.25188e-08
2.89008e-07
-2.14472e-05
2.27432e-08
5.60608e-07
-2.40244e-07
4.56649e-07
5.52764e-07
-4.25791e-08
-0.0132812
7.3748e-07
3.56679e-07
0.000100695
3.79344e-07
7.21241e-07
-0.000572944
-0.0614485
0.0239344
4.55852e-07
8.49366e-07
4.31449e-05
-6.94539e-07
-7.32023e-07
-4.53522e-07
-8.67645e-07
-1.16327e-06
-1.14734e-06
1.994e-07
1.56785e-08
1.20275e-07
7.16598e-08
6.79188e-07
-2.93465e-07
-9.44914e-07
6.91122e-07
-1.54202e-06
3.07292e-06
3.42624e-08
-4.01236e-09
-8.5256e-07
-6.88903e-07
-1.10816e-06
-2.5771e-07
-0.0128594
-8.30127e-07
-4.22393e-07
3.12947e-07
-1.09051e-07
-0.085488
-1.52626e-07
-1.03228e-06
2.43827e-07
-5.30403e-09
-0.0395471
-1.44238e-06
-2.97358e-07
-1.03812e-06
3.21064e-07
-3.67805e-07
1.90202e-07
4.49875e-07
3.48413e-07
-9.92622e-07
-3.7317e-08
8.2546e-07
-0.00322057
5.01439e-07
1.58565e-07
3.3663e-07
-0.0378499
-1.43716e-07
-3.68802e-07
2.55556e-07
0.000108479
-7.36923e-09
7.81285e-07
-7.1662e-07
-4.80495e-07
1.45576e-06
-2.81411e-07
-1.03995e-06
-4.62964e-07
3.38139e-07
-6.0711e-07
0.000550546
1.40156e-07
-7.65963e-07
-2.58896e-07
2.03955e-07
5.84866e-07
-0.000672929
5.90735e-07
3.66896e-07
-1.07579e-07
-1.72153e-06
-0.00570239
-1.4515e-06
1.17729e-06
1.63785e-06
-6.41865e-07
-9.24622e-07
-3.80002e-07
1.50974e-06
1.17196e-06
4.28039e-08
0.00933516
9.66624e-07
-1.22936e-06
0.0091178
2.69372e-07
-4.98907e-07
-1.1841e-06
1.04521e-07
-2.63216e-07
7.46806e-07
1.87829e-07
5.68845e-07
2.434e-07
-0.07211
4.04976e-07
3.359e-07
-1.0602e-06
8.12543e-07
-2.02479e-05
-0.00730339
-4.65832e-08
-1.50795e-07
-3.21368e-05
-2.77089e-07
0.047233
-1.68547e-06
8.61001e-07
-1.57511e-06
0.000832066
-6.53219e-08
8.8711e-07
1.88498e-07
-8.29567e-07
0.0245371
-3.47852e-10
4.19515e-07
1.46232e-07
-2.69886e-08
5.02433e-07
6.72394e-07
-1.92529e-07
4.49593e-08
4.66996e-08
-0.0848292
-0.0123584
1.98843e-06
1.91249e-07
-5.85515e-07
9.77081e-06
2.76394e-07
0.00469424
-1.57109e-08
8.06405e-09
-1.18482e-07
-1.63573e-07
-2.69876e-07
-3.21942e-07
-9.74507e-07
3.505e-07
1.58045e-05
1.29613e-06
-3.87626e-07
-9.63044e-07
-7.97595e-07
-2.96011e-07
3.03292e-07
6.29248e-08
3.03226e-07
3.98294e-07
2.49959e-07
-9.27093e-07
-2.52004e-07
-9.38915e-07
-1.4065e-07
-9.27217e-07
-2.15988e-06
-8.49206e-08
-1.1762e-06
-1.54895e-07
-2.02183e-07
1.14954e-07
6.64944e-07
-9.77619e-08
-9.51424e-07
-9.95725e-07
9.84801e-07
9.02564e-07
-4.40497e-07
-6.09159e-08
-2.73296e-08
-0.00375291
-1.30162e-06
-3.265e-07
-0.00953546
1.01839e-07
-1.22636e-06
8.4097e-07
-4.3578e-07
-1.97861e-06
0.00263724
-7.24241e-07
-3.28568e-07
-1.20488e-06
8.54606e-07
2.64837e-07
1.96302e-07
-1.21161e-08
1.66218e-07
3.89069e-07
2.07019e-07
7.02891e-07
-4.16425e-07
1.43555e-07
-1.30196e-08
-7.53088e-07
-1.68427e-07
-1.77194e-07
-1.77367e-07
-0.00010425
-1.67679e-07
-7.90943e-07
-0.0150287
7.26548e-08
-7.75138e-07
-7.3825e-07
-9.80491e-07
-2.14977e-07
-0.0203797
4.34439e-08
-3.16116e-07
6.81203e-07
9.39815e-08
-5.89049e-07
-3.85332e-07
-6.08541e-07
-0.0222725
-6.49104e-07
-8.1713e-08
-1.99902e-07
3.09879e-07
-9.28666e-07
1.62726e-08
-0.0542461
5.49283e-07
6.2046e-07
4.82867e-08
-6.21212e-08
-4.22789e-08
1.06983e-07
-3.52038e-07
-4.68713e-07
4.42234e-07
1.35802e-06
-3.34114e-07
-1.11164e-06
1.01345e-07
-5.89679e-07
1.89151e-07
6.10906e-07
3.61525e-07
1.90987e-07
1.07305e-06
3.48204e-07
1.63728e-07
6.18407e-07
-0.0713112
-4.94428e-08
1.04902e-06
-1.51619e-06
3.69376e-08
-1.22897e-07
-1.32228e-06
0.0456108
-0.0116318
-9.9442e-05
1.05615e-07
-2.46682e-07
-2.98345e-07
-1.68362e-07
-2.60074e-07
-2.66289e-07
-2.61099e-05
-4.57967e-07
-0.0123992
9.20606e-07
1.55088e-06
-0.00860154
-4.13441e-07
5.04816e-08
6.24376e-07
-1.5004e-07
-0.0143632
-8.95842e-08
-8.83837e-08
1.24597e-07
3.31532e-07
-1.62392e-06
-0.0141632
-0.0331592
-6.31496e-07
0.00268398
-7.40184e-05
-2.62047e-05
6.00817e-07
1.91744e-07
1.35184e-07
-0.0128186
3.14316e-07
0.00219401
-0.0117129
-6.1771e-07
4.39764e-07
-3.06931e-07
5.16543e-07
-1.79861e-07
6.44547e-07
1.43473e-05
-2.91827e-07
-1.27352e-06
-1.16586e-07
2.7882e-07
-6.87126e-07
-3.34406e-09
1.29247e-07
1.44447e-07
-0.000130966
4.73407e-07
-1.92957e-07
-0.0126671
-4.12942e-08
-5.95186e-07
2.53662e-07
6.23258e-06
6.31544e-09
-8.09291e-07
-7.13816e-08
-3.34729e-06
-5.89712e-07
-3.75046e-07
-0.000102678
9.83691e-07
-0.0122067
2.63571e-08
-7.62972e-06
-0.0186656
0.016924
-1.029e-06
8.29036e-07
-5.2889e-07
-5.55752e-08
7.12203e-08
6.23463e-07
-0.0107364
4.28376e-07
6.83273e-06
3.98378e-07
-1.1846e-06
0.00217056
-6.22659e-06
-2.73826e-07
-3.81208e-07
-0.0144571
-2.17453e-07
-3.77453e-07
-2.85075e-07
2.22337e-07
-9.74879e-07
5.60057e-08
7.32601e-07
-9.86388e-07
-1.0051e-06
-9.92526e-07
-0.0104015
-6.88693e-08
7.33321e-07
0.00274329
-5.64281e-08
-4.80139e-07
-2.34498e-07
-2.98465e-07
-1.25082e-07
-4.25602e-07
-7.88454e-08
2.49088e-07
3.15321e-07
-3.54942e-07
-2.05166e-06
-1.28833e-07
5.54013e-08
-3.17562e-07
-9.00183e-07
7.0002e-08
-0.0531518
-0.00963685
-9.55188e-08
0.0198575
-2.79093e-07
5.21157e-07
-1.12563e-06
-1.73746e-06
0.00894628
6.41798e-08
2.5124e-07
-7.06998e-07
-5.86052e-07
8.14287e-07
-2.63632e-08
-7.30834e-06
-2.04196e-06
1.90953e-07
9.19513e-07
-0.00203491
-0.0152285
1.3167e-07
5.98915e-07
-8.83557e-07
-3.283e-06
6.63555e-07
-0.0235713
-0.00623098
-6.33508e-07
-5.11559e-08
1.88509e-07
5.63384e-07
-0.0158349
-1.39771e-06
1.68048e-07
-3.83909e-06
2.05375e-07
2.39045e-07
1.91415e-07
-2.11564e-07
3.45523e-07
4.20182e-07
-1.85475e-07
1.24135e-06
-0.0140501
-8.03198e-07
1.09639e-06
-1.8656e-07
5.88951e-08
1.74763e-07
4.908e-08
-6.82015e-07
-2.14014e-06
-7.19739e-07
1.15306e-07
6.39018e-08
2.41507e-07
-0.0115672
3.75234e-07
-8.85975e-07
3.56361e-07
-3.8254e-07
3.92717e-07
8.14612e-07
-4.26168e-07
-6.88578e-07
-6.01558e-05
0.0150626
5.48228e-07
-4.37303e-05
-0.0180659
-0.012146
-2.96024e-07
6.75615e-07
1.30187e-06
-3.60747e-08
-1.55971e-06
3.87627e-07
7.58657e-07
6.85951e-07
-6.16733e-07
6.57575e-07
0.0038031
-4.37463e-07
-1.64194e-05
-1.67499e-06
5.07317e-07
7.9365e-07
2.19956e-07
4.97514e-07
-1.81423e-06
-2.53962e-07
2.74922e-07
-7.98513e-05
-3.08334e-07
9.19282e-07
0.00650609
3.9918e-07
-2.5965e-08
-6.34847e-07
2.55444e-05
4.71933e-07
3.18436e-07
3.30377e-07
-5.45455e-07
-7.41534e-07
5.39075e-08
5.97754e-08
-5.41504e-07
-0.000745618
-7.31101e-07
-1.61826e-06
-4.80021e-05
-2.22372e-07
-1.74666e-07
4.92184e-06
6.19894e-07
-3.34032e-07
2.4107e-05
1.72224e-08
-0.00120762
2.73457e-07
-5.1239e-07
-2.92686e-08
-2.2457e-07
-9.14584e-07
-1.66462e-07
2.47762e-07
-1.71365e-06
-0.0336261
-4.90102e-07
0.00218387
0.0144925
-1.85436e-08
-0.000103287
6.94597e-07
-1.06058e-08
0.0110355
9.09378e-08
1.53931e-06
-5.3103e-07
-6.23177e-06
-9.08169e-07
1.45935e-05
-1.35988e-06
-0.000300896
-1.58517e-06
-0.0115112
-1.16459e-07
1.01056e-05
-1.02257e-06
6.30091e-07
-4.1626e-06
-1.773e-08
-0.00348432
-0.0121922
-2.50028e-05
0.0318875
1.67487e-06
-0.0129614
2.11582e-07
2.33482e-08
-2.2694e-07
4.48955e-07
-0.00281919
-5.53315e-07
-1.6125e-06
-3.1317e-08
5.65696e-07
3.43973e-07
7.21931e-07
1.15572e-06
-0.0342888
0.00685939
1.00012e-06
0.0572442
-3.2817e-07
7.15164e-08
2.87786e-07
-3.72789e-07
0.0209803
-4.18997e-07
1.52035e-07
1.27104e-05
-4.61103e-07
1.23732e-09
4.19624e-07
-3.38717e-07
1.16074e-06
-5.8488e-07
-2.98961e-07
-8.93547e-07
4.00655e-07
-3.06606e-07
0.0158703
1.0158e-06
-1.74197e-06
6.30891e-05
1.82087e-05
-7.02886e-07
-5.81731e-07
-0.00158636
-1.65197e-07
9.11195e-07
5.45894e-08
-3.39127e-07
6.8653e-07
-1.00804e-06
-3.26234e-07
0.000230069
-1.54133e-07
1.08326e-06
8.90215e-07
-1.61829e-06
-1.32381e-06
-9.79953e-07
9.42039e-07
0.0812186
9.49316e-08
-8.2452e-06
-1.23798e-06
-1.58582e-06
-1.20878e-06
1.10707e-05
2.24073e-07
-4.21374e-07
1.19809e-08
1.09913e-08
1.14985e-06
-5.13279e-07
-1.80467e-07
1.71667e-10
-1.14425e-06
3.22102e-07
-6.57703e-07
-1.64147e-07
2.49519e-07
3.53708e-08
-6.92057e-07
-0.0140921
2.05928e-07
-0.0142987
4.23414e-07
3.23957e-07
-4.66445e-07
1.0755e-07
-1.11909e-06
7.77533e-07
-1.14079e-06
-3.13692e-07
-1.70245e-07
2.79215e-07
-9.07136e-07
8.60937e-07
-0.0040619
-0.0330061
2.047e-08
-1.64796e-07
-8.33406e-07
9.84208e-08
1.62329e-06
-0.0653132
-3.44625e-07
-6.70765e-06
-1.08507e-06
-4.01572e-07
-8.38955e-08
4.24673e-05
-3.04768e-07
5.35807e-07
2.03432e-07
7.60452e-08
8.57687e-07
-8.33838e-08
1.05572e-07
3.49081e-07
-0.00123158
-5.05449e-07
-1.46784e-07
4.96652e-08
-9.36791e-08
1.11592e-06
-0.000623217
6.96397e-07
-1.11664e-07
-1.14983e-06
5.57844e-07
1.93152e-07
-2.05051e-07
-9.61165e-07
-2.69856e-07
6.09445e-07
-6.38611e-07
8.64967e-07
-1.92391e-06
-1.31895e-06
-3.53905e-07
1.06469e-06
-0.000109975
5.58753e-05
-4.80235e-07
-6.86378e-07
-0.00617665
5.17863e-06
1.07384e-06
-7.22753e-08
-9.15618e-07
-3.08721e-07
-0.0084417
4.78625e-08
-6.43815e-07
0.00692004
-0.0487954
8.01683e-07
3.9235e-07
6.15565e-07
5.84546e-07
0.0387006
8.06751e-07
-6.02672e-07
2.97108e-07
7.82684e-07
-9.98231e-07
-2.90272e-07
-1.1987e-06
-1.46477e-06
-6.20437e-08
0.0551928
-8.00535e-08
-6.28216e-07
2.82729e-07
-9.53917e-07
-2.424e-07
-1.06731e-06
1.07662e-08
6.53051e-08
-1.09264e-06
-9.00175e-07
-0.000113783
1.16708e-06
-7.67058e-07
1.9381e-07
-4.37207e-07
4.26145e-07
-5.19145e-07
-8.49374e-07
1.1953e-06
2.38869e-07
-1.65187e-07
-1.27533e-07
-1.69867e-07
-2.77897e-07
-0.00635365
8.17723e-07
-1.56661e-06
-4.3702e-08
1.942e-07
-5.45712e-07
-4.26759e-07
-1.65272e-07
4.32563e-07
-0.000271224
0.00836707
-7.14274e-07
-1.64907e-06
5.28399e-07
-1.64517e-07
-1.76809e-06
-2.15742e-07
-3.26273e-08
-3.72992e-07
8.25329e-07
2.17374e-07
7.08569e-07
-1.43665e-07
-4.53977e-05
-8.87345e-08
-7.29026e-07
-7.30016e-08
-0.0153061
-1.59039e-06
-2.91882e-07
-0.0030219
-7.05846e-07
-2.79851e-07
-1.30629e-05
-2.71595e-07
-0.00587825
-4.42229e-07
9.14827e-06
-3.75275e-07
-5.19394e-07
0.0049688
-7.03327e-08
-7.66554e-05
-7.95901e-07
-7.11602e-07
-0.00624895
3.78698e-10
1.06999e-06
3.89758e-07
-5.59402e-06
-3.01347e-07
0.00784321
-7.65407e-07
0.00449356
7.6318e-07
-1.22342e-07
7.56519e-07
-5.85217e-07
1.27673e-06
4.57696e-07
-1.02412e-07
-2.84211e-07
-4.02198e-07
-1.2091e-07
1.87323e-07
3.42587e-07
-1.86156e-07
0.0139937
-2.08768e-06
2.3234e-07
-2.84193e-07
-0.140927
-2.12306e-07
-3.004e-07
-4.17358e-07
0.00866751
-1.18718e-07
-9.40521e-07
3.63001e-07
-3.02441e-07
4.64675e-07
1.09202e-07
6.60872e-08
2.94615e-07
-1.73427e-06
-0.0119648
0.00138922
-2.57945e-06
4.70523e-07
-5.70185e-07
-3.06002e-06
-2.08169e-07
3.56566e-07
-1.29206e-07
-3.42305e-07
-0.00259006
-3.37508e-07
8.72254e-08
1.96388e-07
-0.011557
-1.54255e-06
-9.51711e-08
1.82273e-05
1.95542e-06
1.08477e-06
-9.20627e-07
-1.15123e-07
7.37694e-07
-1.44615e-08
-4.23884e-07
-0.00285031
-9.07074e-07
-5.27532e-07
6.08632e-07
-1.73491e-06
-7.96583e-07
-6.94632e-07
-2.61429e-07
3.10763e-07
-9.43769e-07
-1.21033e-06
-7.76701e-07
2.53672e-07
-1.631e-06
8.29392e-07
4.77505e-08
0.0318345
-0.00753684
-5.63994e-07
-2.36121e-07
1.04969e-07
-2.55569e-07
-0.00717435
-5.7915e-07
-8.92744e-07
-7.5956e-07
1.54434e-07
2.94507e-07
8.31678e-07
-0.0501673
-1.58525e-07
-0.0138834
-2.85501e-07
-1.07623e-06
-7.09435e-08
0.0178622
6.67312e-07
7.52007e-08
-0.0159698
-8.11999e-07
5.55743e-07
-0.00268947
4.27986e-08
0.00822548
-6.34633e-07
-5.35921e-07
0.002158
-4.72827e-07
6.34255e-07
-1.36161e-06
0.0122798
-5.04887e-07
-1.56419e-06
1.38505e-05
-1.79131e-07
2.95486e-08
5.62881e-07
-0.0294581
-1.44973e-06
-0.0187758
0.0246359
-2.65299e-07
6.64131e-07
-2.25751e-07
4.55038e-06
-4.46306e-07
-1.97596e-07
5.64477e-07
-5.11203e-07
-1.23658e-06
3.13695e-07
4.78163e-07
4.91576e-07
2.06852e-07
-0.013226
2.26197e-08
0.0267295
-1.99619e-07
-1.67264e-06
-4.25364e-07
-1.69366e-06
-1.10405e-06
-0.017056
-0.0135244
3.71169e-07
2.77262e-07
-2.75463e-07
-9.24987e-07
-7.0013e-07
-9.51737e-07
-8.84892e-07
-1.86287e-07
-1.55558e-06
0.0141137
-0.00056588
-2.55327e-06
4.31055e-07
-8.54751e-07
-3.00769e-07
-9.48735e-08
-3.63044e-07
-0.00567521
2.81011e-07
-3.13775e-07
-1.31695e-06
0.00776705
6.72875e-08
0.0209161
2.82367e-07
3.63333e-07
7.84041e-07
0.0372829
1.18713e-07
-2.67769e-07
-1.79011e-07
1.22581e-07
-2.07225e-06
2.34314e-06
2.47019e-07
6.2294e-07
0.000323731
-1.40539e-06
1.01474e-07
-8.62446e-07
4.01332e-07
-2.05511e-06
-6.97193e-05
2.16855e-07
-1.15374e-06
-2.04692e-07
2.41623e-07
0.031736
-0.000103306
-6.06655e-07
-2.18659e-07
-9.4037e-07
-6.03843e-08
0.00117707
-9.07778e-08
0.0143493
3.15122e-07
-2.02913e-07
-0.0129794
6.38376e-08
-0.00940794
0.0311601
-1.75704e-07
-2.15507e-07
-0.000181426
4.20044e-07
7.81151e-09
6.64227e-07
-0.0122699
-4.8201e-07
-2.6822e-07
0.00151254
0.0459318
-1.51721e-06
-6.42396e-07
-1.94385e-07
-2.07534e-06
0.0288356
1.31644e-07
-5.48093e-07
-0.0140491
-2.43908e-07
-2.34615e-07
-2.86124e-08
-0.000320857
0.00272143
-2.94334e-07
5.03096e-07
-5.68525e-07
2.74491e-07
-0.00500025
5.10464e-07
6.62447e-07
0.0558085
-0.0149092
3.26351e-07
5.31532e-07
-4.18765e-07
-0.0146195
-2.23608e-07
-6.25132e-07
-2.62071e-07
7.94189e-05
4.88082e-07
-5.07635e-07
-0.00180057
-0.0181725
-5.65128e-07
6.07557e-08
-9.69904e-07
-3.8709e-07
-0.0126743
7.44264e-08
-0.0126815
1.81071e-06
2.74619e-07
-7.03023e-07
-0.0172502
1.22134e-06
-1.4449e-07
-2.79215e-06
-0.000166551
-0.00440901
0.00552634
0.0251796
-0.00260825
0.00856338
4.15655e-07
7.75369e-08
8.29492e-07
4.53906e-07
0.0303806
0.000485267
-1.20108e-08
0.00604983
8.89542e-08
-1.09855e-07
-6.18352e-07
-2.01897e-07
-6.79072e-07
-0.013671
9.2185e-08
-7.83586e-05
-5.54196e-07
-6.53431e-05
-3.26392e-07
2.35985e-05
0.00393589
-5.41277e-08
-6.15717e-07
-3.99132e-07
-2.05945e-07
-8.16709e-07
-5.28764e-07
4.8038e-07
-0.014348
-6.27506e-07
-9.35039e-07
-7.73446e-05
-6.22916e-07
-0.052851
-9.38842e-07
-0.0156862
-6.28885e-08
-7.62637e-07
1.30107e-07
2.81956e-07
-5.03039e-07
-4.84035e-07
-0.00532451
-1.16858e-07
-1.92056e-06
-0.011905
5.20725e-07
-0.00847592
1.10571e-07
-0.00239965
-0.00529709
-0.0133195
8.79602e-07
1.61343e-07
-5.7022e-08
-0.0202742
7.41268e-07
-6.4558e-07
-4.64165e-07
-1.73508e-06
-0.0134972
-8.55508e-07
2.18405e-07
5.52417e-07
1.29329e-07
0.0255746
0.0208145
-2.51876e-07
-1.32694e-06
-0.0153625
0.00152905
-1.6045e-06
-0.00427253
-6.43544e-07
-0.00227329
-0.0109895
-5.18152e-07
-5.44065e-06
-6.24135e-06
-2.23196e-07
-0.011894
-1.0055e-07
5.73692e-07
2.41147e-07
-8.2842e-07
0.000340402
0.0342689
-5.94541e-07
-9.74674e-08
-0.0126427
-1.69099e-06
-0.0117235
-2.38459e-07
-1.46973e-08
-1.45209e-06
0.00878091
-4.56881e-07
-1.63929e-07
-0.0116755
-1.25885e-08
0.000597542
-0.0929745
-1.11213e-07
-8.23007e-07
3.3568e-06
-2.56473e-07
-1.28838e-06
-8.70755e-07
-0.0207806
-2.56571e-07
-2.70674e-07
7.99243e-07
-0.00810629
5.40133e-07
-2.97376e-07
3.67885e-07
-0.0150455
4.18526e-07
-6.60605e-07
-1.48965e-06
-0.0137612
0.00447666
2.62536e-07
-5.90018e-07
8.17855e-07
1.00095e-07
-4.38478e-07
-0.0127983
-1.63181e-07
8.14915e-07
-1.11696e-06
-0.000112547
-1.28649e-06
-0.0130739
0.0562768
-3.73163e-07
-0.0114648
-0.0118333
2.31215e-07
-1.20587e-07
-0.00502013
-1.21679e-06
0.0229072
7.86999e-07
5.96925e-05
-4.63425e-07
-3.11932e-07
4.68714e-07
-2.05696e-08
7.59244e-07
4.16211e-07
-5.68698e-07
0.00938419
9.38009e-09
-0.0118003
-0.00950621
-1.64019e-08
-1.70998e-06
-2.72013e-07
-0.0163511
-9.3306e-08
-7.73559e-07
-6.61495e-07
-0.0392766
0.0114221
0.00413217
-0.0121019
6.58587e-07
7.90547e-07
-9.77327e-07
4.98308e-07
7.33137e-07
-0.000800751
3.02777e-07
1.44212e-07
-8.95687e-05
2.88101e-07
1.15147e-08
-4.77392e-07
0.000192923
8.80897e-07
-5.52567e-07
-3.40432e-07
-0.000127998
-7.46932e-05
-0.0114913
1.67215e-05
3.29958e-07
3.62232e-07
-1.34225e-06
-5.47576e-08
6.47482e-07
3.35462e-07
-3.80257e-07
-1.08008e-06
8.44207e-07
-1.14009e-06
2.05758e-07
1.57355e-07
4.38583e-07
-1.24819e-07
-4.69258e-07
-2.53524e-07
5.493e-07
-2.6154e-07
8.87377e-07
-6.97164e-07
4.62839e-07
-9.2375e-07
-7.7854e-06
-3.00264e-07
-1.14012e-07
-0.000567343
-0.0102132
-0.0115618
-0.00116397
-3.62816e-07
-2.37677e-07
-5.97021e-08
0.00817553
-1.29192e-07
-9.50743e-07
8.14472e-07
-0.0980296
-3.49526e-08
5.82736e-07
7.3756e-07
8.44021e-07
1.67468e-07
-1.51937e-07
-6.68813e-08
-2.6066e-07
-3.815e-07
-3.4552e-07
-4.4729e-07
-1.81624e-07
-1.19159e-07
6.17016e-07
-2.67238e-07
0.000224658
1.15251e-07
-8.84211e-07
5.86541e-07
-3.31176e-07
3.12648e-07
3.61919e-07
2.26254e-07
-0.0124039
7.62777e-08
2.64302e-07
7.14917e-08
-5.71837e-07
-1.12649e-06
1.38744e-07
-3.31834e-07
0.000904853
2.44479e-07
-1.03975e-05
-2.20785e-07
-3.25817e-07
-1.77574e-07
-2.76112e-07
1.86261e-07
5.95853e-07
2.12835e-07
-2.04509e-07
5.77062e-07
-0.0358057
-5.97639e-07
5.45827e-07
3.72759e-07
-0.00450377
8.89836e-06
9.91616e-09
-2.24236e-07
7.16535e-07
-9.40127e-07
7.18481e-07
-2.59068e-07
-0.0493619
-6.61259e-07
4.13544e-07
-5.85731e-07
-2.38189e-07
-3.68474e-06
-5.12345e-08
0.0100419
1.28339e-07
-1.08417e-06
-2.8074e-07
2.66806e-07
0.000651342
0.00523871
8.49647e-06
-9.05367e-07
4.23079e-07
-5.72484e-07
-8.68326e-07
-0.00787397
-1.0936e-07
-9.00868e-07
-7.75726e-07
1.31321e-07
1.55665e-06
-1.84789e-05
-2.1029e-07
0.00469391
-1.40135e-07
6.90348e-06
2.16768e-07
7.92179e-07
-5.99243e-07
3.70185e-08
-1.98246e-06
-1.30847e-07
3.81972e-07
-0.011952
3.63244e-07
7.566e-07
-8.51771e-08
0.0815528
8.44327e-07
2.56374e-06
-1.10057e-06
-0.0103568
2.30703e-07
-8.97109e-07
1.10514e-07
-4.9192e-07
8.82272e-07
2.58852e-06
1.07699e-06
7.99322e-07
-1.09611e-06
2.84727e-07
-1.83684e-07
-0.0182635
-1.364e-08
1.02396e-06
-1.61991e-06
4.76323e-06
1.13471e-06
-4.24015e-08
1.6666e-07
-0.122753
0.0645528
0.000233302
1.13774e-05
-3.32996e-05
1.5694e-07
-2.57227e-07
3.52138e-07
-1.20761e-06
-8.33727e-07
-0.0123375
-2.96303e-07
-1.09963e-06
5.06682e-07
-4.0636e-07
-5.87328e-07
-2.06399e-07
1.31397e-07
4.01574e-07
2.69445e-06
1.0681e-05
-8.89754e-07
-2.99908e-07
-3.60142e-08
-0.0291155
-7.18731e-07
8.18353e-07
-0.0252903
0.00727411
-1.16662e-06
-2.36401e-06
-3.64236e-07
1.51631e-07
7.63938e-08
-4.72129e-07
-0.00538
-1.34963e-07
-0.0204027
-1.30667e-07
0.00514462
-3.20488e-07
1.90477e-07
-2.20158e-07
-2.93977e-07
4.99053e-07
-1.28728e-07
8.63856e-07
-7.22214e-05
-4.20335e-07
9.17338e-06
3.12483e-07