/*--------------------------------*- C++ -*----------------------------------*\
| =========                 |                                                 |
| \\      /  F ield         | OpenFOAM: The Open Source CFD Toolbox           |
|  \\    /   O peration     | Version:  v2012                                 |
|   \\  /    A nd           | Website:  www.openfoam.com                      |
|    \\/     M anipulation  |                                                 |
\*---------------------------------------------------------------------------*/
FoamFile
{
    version     2.0;
    format      ascii;
    class       volScalarField;
    location    "700";
    object      omega_0;
}
// * * * * * * * * * * * * * * * * * * * * * * * * * * * * * * * * * * * * * //

dimensions      [0 0 -1 0 0 0 0];


internalField   nonuniform List<scalar> 
10042
(
0.0219065
0.0220499
0.0217246
0.0226042
10.0806
0.0220687
3.0151
0.316626
0.0216534
0.0220086
7.39637
0.0225638
0.021516
0.0214774
0.0229126
0.0220328
0.0220243
0.0222585
0.0219083
0.11213
0.0219002
0.177018
0.0215584
0.0216023
0.0220563
0.0260974
0.0221319
0.0222923
0.0217072
0.0220819
0.0220199
5.894
0.0220192
0.0219902
0.024526
0.0216155
0.0255939
0.0288261
0.0216181
0.027733
0.120562
0.0226481
3.42319
0.0219066
10.1806
0.0498473
0.0221165
0.0848204
0.0250994
0.0401962
0.0221669
0.0218522
0.0227089
0.0222273
0.0256196
0.0220624
0.0217064
0.0220987
0.0219842
0.0225677
0.0220452
0.0220022
0.0246786
0.021717
0.0220673
0.0219976
0.0219395
0.0651102
10.1718
0.0218306
0.0221891
0.137708
0.0219104
0.0300379
0.0219275
0.021599
9.77106
0.0219169
0.0281996
4.16882
0.0246583
10.9687
0.0218609
0.0224076
0.0219422
0.0222134
0.0218885
0.138737
0.0218807
0.0218916
0.0219417
11.1498
0.0223342
0.0218112
0.0220585
0.0217668
0.0219279
0.0217896
0.0272683
0.0216974
0.0222907
0.0982269
0.29933
0.0222019
0.0222443
0.0463742
0.0219067
0.021921
0.0219082
0.0214019
0.0217037
0.0218014
0.024468
10.3759
0.0220592
0.0218189
0.0219313
0.0219132
0.0217618
6.83883
0.0218788
0.299218
0.0219167
0.0219779
0.0978913
0.0218672
0.313688
0.0257808
0.044862
0.0218835
0.0290075
0.0219166
6.61858
0.18379
0.0216984
0.0524484
6.57014
0.021948
0.0892187
0.155584
0.0223273
0.0219274
0.0221876
0.150033
0.0216565
0.021802
0.0526681
0.0214567
0.0217942
0.0241395
0.0216551
0.0222555
6.41041
6.47888
0.0221853
0.0215105
0.0223057
0.0219934
0.0538302
15.5441
8.42898
0.12361
0.0219834
0.0216608
0.0218817
0.0219081
0.0534892
30.6321
5.08467
6.56139
0.0220268
0.0218377
11.6977
0.136107
0.0351942
3.43835
22.8605
0.0219139
0.0750606
0.0293649
0.0224071
8.87286
0.0219663
0.0257424
0.0225667
7.66911
0.246461
0.0218702
8.76295
0.0229529
2.62926
0.0221918
6.2675
11.0429
0.0888091
7.06587
0.023813
0.0219168
0.0215165
0.0227525
0.0340956
0.0218927
0.0217947
0.154799
0.0219656
0.0216464
3.5507
0.0221561
0.0222603
0.0222426
2.62157
0.0217255
0.049882
0.236364
0.0222866
0.264685
0.0219038
0.021988
0.0594076
0.0217558
0.0245368
0.0223928
0.286177
0.0296205
0.0242691
0.0266672
0.265332
0.0218096
0.168791
0.0223145
0.0216487
0.114453
0.0218471
0.0222919
0.0217448
0.0242853
0.021673
0.0214585
0.0224843
0.0239671
0.0219908
0.021923
0.0218592
0.0245075
0.0218215
0.0220297
0.0216026
0.0222719
0.0221123
0.0222688
0.021517
0.021825
0.0233751
0.364908
0.124281
9.83213
0.0356353
0.0345643
0.023041
0.0565209
1.81129
0.0223695
0.0219093
0.0214736
0.0227034
0.0216755
0.206051
0.0224508
0.0218846
0.0222501
0.0357705
0.0221385
0.223398
0.0350992
0.174724
0.0230173
0.0239408
0.0216837
0.0235128
0.0216756
0.0304522
0.021863
0.0261475
6.57272
0.0216495
0.0217108
1.72601
0.0510781
0.0218495
0.0220438
0.0231635
3.83123
0.0486925
0.159454
0.0221818
0.0215119
0.021809
0.021663
0.252346
0.0218649
0.0220398
0.0218332
0.0219047
0.0294106
0.0230554
0.0687332
9.64636
0.0224604
1.22546
0.0218301
0.02338
0.0221233
10.3936
0.0993723
4.09072
24.4493
0.0215799
0.0224601
0.0218316
0.023156
0.0267231
0.0222414
0.0304806
0.021699
0.021457
0.0219184
0.0735818
0.0222838
0.0227593
0.0218993
0.0229457
13.6163
0.0218278
0.0221756
0.0219869
0.0216963
0.0385458
0.0894029
0.0344232
0.632505
0.0297447
0.0250824
0.0219067
0.0214609
0.0219851
0.0222679
0.478486
0.0218612
0.0219977
0.100833
0.0217962
0.0236482
0.0224851
0.109357
0.0216943
0.0241386
0.0423769
0.0302565
0.0226951
0.0219221
0.881603
0.0535454
0.0219269
0.0382398
0.0219439
0.0218516
0.0219413
0.0236129
0.94023
0.0230331
0.0222491
0.0224035
0.0222923
0.0222707
0.111518
0.0219203
0.0215685
6.48481
0.021835
0.278707
0.471036
0.0305827
5.01969
11.0771
0.0262066
0.118004
0.0221579
0.0415077
0.0222913
0.0220589
0.335718
0.0220637
0.0233336
11.8034
0.0218396
0.0219009
0.0455605
1.9132
0.021943
0.0214638
5.32953
0.0998353
0.0218325
0.0655235
13.6838
0.0217542
0.022264
0.0216028
0.0218624
0.0214485
0.0216438
0.937846
0.315423
0.0220822
9.45974
0.0214806
0.0218686
0.532164
0.0217897
0.338079
0.0524699
0.0224214
0.0215353
0.0214622
0.117251
0.0220848
0.0262011
0.0220959
7.09516
0.0222087
9.9018
0.0227805
0.0219314
0.0218166
0.472974
0.0219474
0.0246637
0.0218363
0.0216818
10.6695
0.0238891
0.0219199
0.0217208
5.60251
0.0218733
0.0240937
0.0226864
0.0216818
9.21056
4.84105
0.0218805
0.0220199
0.0231354
0.021517
0.022009
0.0219646
6.65545
0.0219907
0.0216416
0.0268419
0.279026
0.0534691
0.0222685
0.0289632
21.0188
0.030755
0.0219226
0.0219271
0.183083
0.0218911
0.0219378
0.0275851
0.0216761
0.0216459
0.0224977
0.0215404
0.0350197
0.021904
0.0219517
8.89885
0.0217562
0.0219754
0.0220658
0.0220625
0.0303259
0.0218846
0.0216848
2.48851
0.0221578
5.57458
0.0223505
0.022282
0.0222766
0.119925
0.0218728
0.0219239
0.0220116
0.0219695
0.0262003
2.94998
0.0218772
0.0348498
4.1021
0.0306191
0.022261
0.0219497
0.0217628
0.0222029
0.0218491
4.68604
6.95339
0.0220734
0.0257811
0.0256023
0.0252426
0.021932
0.0216432
0.238857
0.110847
2.9432
0.0215365
0.0217961
0.0217717
0.0218402
8.84999
0.0319143
0.0219746
0.0217406
0.021774
0.0219159
0.261754
0.0238771
0.0221393
7.5526
1.12616
0.317059
0.0473324
0.0220171
0.0217054
0.0459361
0.0480819
7.93331
29.0918
0.0237652
0.0249147
0.0222103
0.0227134
0.0220111
0.0221995
7.90836
0.0215966
0.0218368
0.0472759
0.0222098
0.252228
0.0222481
0.116584
0.0274621
0.0222447
0.0224036
0.0245147
0.0321394
0.0473382
0.0722996
0.0222823
0.0401161
0.0224094
0.0217708
0.0221177
0.022003
0.0220339
0.0239576
0.053668
0.0378602
0.0221427
0.02219
0.0220077
0.0219079
0.10966
0.0219264
0.0226574
0.160701
0.0215434
0.0481071
0.0618491
0.0220417
8.27856
0.0354457
0.0222094
0.297854
0.0217707
0.0222685
0.0219026
0.0219747
0.0222923
0.0230547
0.0219194
0.779044
0.0223216
0.0219558
0.0219457
0.0306973
0.0291139
0.0219724
0.0230066
0.0217057
0.028103
0.0218962
0.0275639
0.0215682
0.0225603
0.0214692
0.0219268
8.5258
0.0216107
0.0968713
0.0219595
0.0221574
0.0217365
0.0288424
0.0220742
0.0366496
0.0218488
0.267034
0.0222619
2.23217
0.0214513
0.0228353
0.0222715
0.0219105
0.0219562
0.0230275
0.0220337
0.10712
29.8736
0.25328
0.0228422
0.0335954
0.0217865
0.0353315
0.0497274
0.0220112
0.0272624
0.0759729
8.62436
0.0619433
9.21452
0.0250494
0.0219522
0.022231
0.0233204
0.0230254
0.0301171
0.0215869
0.0227325
0.110521
0.0222649
0.0219079
0.0232157
10.4524
0.0227273
0.0279692
0.0457472
0.0222513
4.55318
0.0216023
0.0218189
0.0220959
0.0216837
9.19609
0.0566905
10.567
0.0220557
2.14382
16.1598
0.413863
0.0299157
0.057009
0.166113
0.0371137
0.0219006
0.0218366
0.0282455
11.3536
0.0217768
0.0273875
7.26749
0.0218999
0.0219042
0.0217766
0.0224119
0.0219472
0.0217109
0.116782
8.0226
0.0217005
0.0219992
6.65144
6.14848
0.0217895
0.0219275
0.0221548
0.0218667
0.545624
0.0564553
0.216308
0.0222452
0.0218991
0.021638
0.0224252
0.0220535
0.0283311
0.0222975
9.85108
0.0220072
0.0220741
0.0374248
0.0217762
0.0285389
0.0586166
0.0223008
24.5121
10.1607
0.0219603
0.0218423
1.62685
8.72199
0.0327127
0.0217587
0.363222
0.152156
0.0246054
0.0218947
0.0219937
0.0219201
0.250598
0.0228271
0.0809689
0.0222685
12.8062
0.937178
0.021953
0.0219875
0.100092
0.0221494
0.0217336
0.0239429
7.38677
7.98548
8.11116
0.0219128
0.0500771
0.0356299
0.0216311
0.021817
0.0221935
0.242296
0.0222057
0.0219495
0.0502514
0.0219257
0.0585462
0.0221111
0.0221057
0.0216804
0.0221509
0.163021
0.022199
0.0218236
0.0355001
0.0500426
0.31639
0.0222097
0.0846409
6.13752
5.71127
0.022485
8.56571
13.713
0.0219005
0.0215272
0.0222833
0.0227682
5.93557
0.0227268
0.0221218
0.022206
6.22524
0.0343797
0.0218726
0.0221417
0.0219226
0.0385442
0.0217483
0.0218232
0.0274595
0.0223682
0.0222042
0.0216743
1.1752
0.0217129
0.022303
0.0220281
0.0220746
0.149648
0.0222026
0.0225226
0.0220707
0.0235331
0.643269
0.0222919
0.286569
0.0244987
6.46569
0.0216155
0.0227461
0.0270902
0.084119
0.0457849
0.0222925
10.0495
0.658217
0.0222326
0.0217515
0.402507
0.0220775
0.0222509
0.021708
0.0222415
0.0450145
0.0222928
0.022293
0.0579773
0.0265991
0.0224769
0.0292015
0.0223941
9.39389
0.0224314
0.662545
0.0218562
0.0473196
0.034067
7.71513
0.0230396
8.42638
0.0222694
0.0234935
0.0220414
0.0219248
0.0218728
0.112055
0.0368718
0.03842
9.9437
0.0221186
8.44246
0.0236434
0.0216921
0.029361
0.0270474
9.87348
0.0219802
0.0264748
0.0463225
0.0226958
0.0383145
0.0222837
0.02156
0.0222833
0.236562
0.0221331
0.0220032
0.0217194
0.0217196
0.0219313
0.0219884
0.0220026
0.0218455
0.0221505
0.0222076
0.0240597
0.0287839
0.0219855
6.95059
0.0218666
1.80553
0.0341625
7.28178
0.0326542
0.0233875
4.96902
0.0294916
0.247715
2.13786
0.0381185
0.022199
0.0218413
0.0223784
0.155843
0.0217847
6.81502
0.0218174
11.9902
2.5313
0.0434447
0.0222464
7.11988
13.912
0.0227093
0.0219734
0.0222638
0.0230115
0.0215502
0.0216541
0.0520075
0.362353
0.0220765
0.0217835
0.022139
0.479087
0.0484817
0.0221551
0.024016
0.0826991
0.0221295
0.0220285
6.63323
0.0220693
0.021859
9.65195
0.0231358
0.021899
6.07889
5.24702
10.9847
0.0219049
0.0225991
0.415193
0.0217164
0.0217481
0.0222843
0.0257188
0.0220446
0.0221112
0.0224172
0.0419767
0.149549
0.0217699
0.0218948
0.0220777
0.0217285
0.0222203
0.0215853
0.140489
0.0268349
0.0218834
0.0219802
0.0217539
0.0219737
0.0220894
7.432
0.0258269
0.0214549
0.0219189
0.0376347
7.57294
0.0220424
0.0219808
0.0220283
0.0214713
10.1667
0.0384263
0.0216742
0.022066
0.026591
0.0913502
0.022169
0.0222827
0.0238055
0.0218117
0.0238832
0.0221203
0.959492
0.0320923
0.0220687
0.0244012
12.1155
0.0265028
0.127748
0.0239703
0.421325
0.0222708
0.0217924
0.0235222
0.0534711
0.021882
0.0215958
0.0222434
0.0221034
0.0949974
0.103751
0.581637
0.0221492
0.0219909
0.0265299
0.0218904
0.0218869
0.604449
0.022905
0.0218173
0.0219784
0.228331
2.0205
0.0219896
0.0218883
0.079416
0.0216504
0.0221037
0.0219194
0.0769243
0.0224769
0.023905
17.3892
0.0220326
0.0221678
6.09347
0.0219037
0.138065
0.0218881
0.0227295
0.0384024
0.0219074
0.0220879
0.0218275
0.0226579
10.9676
0.0219128
0.0221345
0.176305
0.0244414
0.2175
9.04327
0.042747
0.0222118
0.388659
0.0216675
8.41282
0.0221672
0.0218512
0.0216151
6.15169
0.0222119
0.0221125
0.0221595
0.0288123
6.0901
0.0264262
0.0445687
0.0218538
0.0221345
0.0335877
0.0268254
0.0218313
0.0239493
0.0218737
6.46009
6.57404
0.0221378
0.0225245
0.0222226
0.641591
0.022156
30.0306
0.0219721
0.0217008
0.0216653
0.022093
0.0228336
0.0222715
0.0219874
0.0219192
0.362078
0.0895885
0.0217537
0.0232578
0.0228213
0.0375861
0.0217036
0.0247327
0.0223977
0.0219013
0.0227225
0.0265534
0.0222802
0.0219102
0.0252763
0.0216669
0.149162
0.0225408
0.118337
0.0219825
0.0220395
0.0216131
0.0562903
0.036456
0.0217569
0.0232651
0.0616706
0.0221666
0.0217594
0.0241302
0.0222247
10.2248
0.17836
0.0238447
9.87934
0.0226501
0.0292569
0.0853196
0.0347114
0.0282176
5.01779
0.0260233
0.110379
0.0218236
0.0224201
0.0217814
0.021898
0.0244652
0.0217076
0.158295
0.021873
0.0219111
0.0661089
0.0219319
0.0444393
0.023718
0.0241874
0.0218172
0.0387578
0.334845
0.0213975
0.0273955
7.06552
0.0385613
0.0216434
0.026041
0.0219924
0.0217154
9.85804
0.021825
0.0217779
0.0431792
0.0218736
0.0244183
0.0216861
0.0220019
4.56993
0.0217473
0.0216372
0.0236029
0.0219035
0.0214398
0.0222518
10.8908
0.0220062
0.0220833
0.0215277
0.0700126
0.022174
0.0235431
0.0219134
0.0320331
0.0222713
0.0218813
0.0223717
0.0220992
0.0217739
0.0997538
0.0381103
0.0267509
0.0228951
0.0411744
0.0640071
0.0260495
0.0265985
0.0224894
5.76926
0.0218967
0.0218226
0.0219207
0.0222384
0.0327264
0.0218876
9.04564
6.7372
0.626737
0.0220826
0.0236172
0.0358817
0.0214969
0.0775497
0.0428976
0.580469
0.0531909
7.10374
0.0643055
0.134712
5.39022
0.0265742
0.0223243
0.0239896
0.0217307
8.65468
0.0221869
0.0274421
0.0217848
0.0239282
0.0220455
8.09507
9.60467
0.0222035
5.4273
0.525944
0.185038
0.0404962
0.0590266
0.0216422
7.34001
0.0218837
1.18468
7.29381
0.0222041
0.0218546
0.0220004
0.0227604
0.0233269
0.0315742
0.162199
0.022124
0.022041
0.0239239
0.0220281
0.0220351
0.0246962
0.0218298
0.0220585
0.313898
0.0558628
0.0220427
1.5255
0.0222391
0.0222721
0.0228968
0.320508
0.0219269
0.0217147
0.103781
0.167746
0.0216909
0.0240472
0.656237
0.0479173
6.93745
0.0217661
0.139685
10.3801
9.70341
0.0220809
0.021867
0.0501818
0.0248479
0.0378038
0.0221003
8.86129
0.0432682
0.187942
0.0219241
0.0219745
6.15049
0.247543
0.0221487
0.0222722
6.72469
0.0219131
0.021542
0.021592
0.0226541
0.0221967
0.0278169
0.0219853
0.0227136
0.0215998
0.028314
17.5227
0.0538912
0.0307746
17.7751
0.0692374
0.021612
0.021716
0.0217603
0.0222837
0.125358
0.0279462
0.0217605
0.0218899
0.0219658
0.0215926
0.030101
0.0215963
0.0437771
0.0228952
0.0221224
9.53206
8.27589
0.0221006
4.61744
0.031392
0.030575
0.0222641
0.0215947
15.4655
0.0670953
0.0219185
0.0217057
0.0219195
0.0247176
0.0222623
0.134002
0.021501
0.0220587
0.0218425
6.15247
6.91544
0.0214598
0.021921
0.126264
0.350236
0.0236962
4.33621
9.16687
0.0215757
0.0221414
0.0219984
0.0225448
5.83716
0.0220396
0.0222844
0.173974
0.0866905
0.0222121
0.0219317
0.0650525
0.0222836
0.022073
0.101647
0.0704451
6.53428
0.0219815
0.0593469
0.0375966
0.0463942
0.0226553
0.0259039
0.021931
0.0218138
0.103311
0.0245528
0.0219958
0.0237728
7.30113
0.0215086
0.0217894
0.0214974
0.0671649
0.021941
0.0220852
0.0214245
0.0219393
0.569106
9.7168
0.0220558
0.586581
9.46171
6.62641
0.0219269
0.0218963
0.0218237
0.0218892
0.0221161
0.022149
0.0216088
0.0220816
0.0217745
0.0234834
16.7954
0.0333608
0.290092
0.0263695
0.0220319
0.0226346
0.0300292
0.0220277
0.021843
0.0368701
0.0297968
0.554062
0.0353308
0.0214414
9.77507
0.0222843
0.0214643
0.0217528
0.234281
0.0372651
0.022427
0.0244586
0.0220714
0.022092
0.0300927
0.0344422
0.0251617
0.725619
0.0220815
0.0220292
0.501888
0.0344684
0.0240517
0.1214
0.0225049
0.0588997
0.223901
0.0589943
8.74689
0.0217769
0.0215533
0.0219363
0.0220474
0.0220942
0.022559
0.0343255
0.0407788
21.3589
0.0220721
2.64365
5.14408
0.0230439
0.909848
0.022045
0.0899839
11.3277
0.0219073
0.0845391
0.0214773
1.69258
0.0221973
0.169855
0.0218546
0.556338
0.0320009
7.9449
0.0218464
0.146706
0.0215216
0.022503
0.199637
0.0218362
10.4462
9.58269
0.304978
7.109
0.0816389
6.7936
0.0359008
0.0220171
0.0411173
0.0413382
1.66357
0.0220756
0.0220158
0.0222697
0.0441061
0.0218982
0.0220577
0.0220241
23.2383
6.14863
0.0218668
8.18928
0.0527636
0.0217195
0.0352783
0.0258935
6.08592
0.0278095
0.0217214
0.58063
0.0220708
0.0219342
0.0220884
0.125595
0.0550955
0.0216946
0.0252318
0.0221109
0.0222606
0.0217883
10.0385
0.0222857
0.0218111
0.319263
0.186526
0.0230337
0.0217242
5.3449
0.0266936
0.0226915
0.0218702
0.0467782
0.0225329
0.0246372
0.0237609
0.61188
0.0399071
0.0532837
0.0214412
0.0274927
0.037253
0.0250202
0.0221566
8.89142
0.0222527
0.139694
0.0218868
0.0221933
0.0270721
0.157332
0.0227125
0.0237175
0.0221123
0.0343364
0.0571201
0.0761303
0.0264319
0.0222923
0.0219632
0.0266377
0.0722219
0.0219308
0.0370837
0.0220155
0.0219318
7.66878
0.0218866
7.40074
0.0218975
0.0258037
0.0601164
0.0218667
0.0255647
0.0903463
0.0985072
0.0218554
0.0676569
0.0221244
0.0222632
0.0218621
6.51895
6.07647
0.021902
0.0219164
0.0215117
0.0217812
0.0833422
6.05088
0.0218589
1.1815
0.0217175
0.0217937
0.0218899
0.263998
0.0223465
0.0230885
0.0219376
0.0218322
0.0218714
0.0222568
0.0222594
0.0287252
8.22355
0.0215519
0.0218561
0.038357
0.0628053
0.0217851
0.803396
0.0475673
0.0217617
0.0214364
0.0218296
0.0984018
0.0216824
0.0661132
0.0269197
0.0225977
0.0217619
0.0404221
0.021505
0.116194
0.0262414
0.0221494
0.31244
0.453204
0.0214046
0.0218508
9.0359
0.119164
0.0667426
0.0229308
0.066162
0.0214744
8.95463
0.0517686
0.02157
4.44812
5.42193
0.022651
0.0407831
0.0478821
0.0217178
9.68151
0.0220282
0.0247061
0.0277214
0.0220595
0.0220483
0.047393
0.0218692
0.0218859
0.0218677
4.49214
0.0217973
0.0219361
0.0217078
0.0218872
0.0218014
0.0222299
0.0442747
0.041808
0.0226587
0.0222496
0.947306
0.022051
0.0218294
0.0218952
0.0215185
0.0220835
0.0219698
0.0258113
0.0783414
0.022224
0.027473
0.0454607
0.0216811
0.0261685
8.58883
0.022274
0.0214989
0.0220783
0.0743521
0.0222026
0.0222028
0.0234221
0.0238038
0.738784
19.8296
0.0218201
0.0218603
0.0219372
0.0624734
0.0226255
0.0217717
0.0268368
0.0657545
0.0220165
0.0255754
0.022133
0.104562
0.19359
0.0222797
0.10719
0.024618
8.37962
0.022205
0.0218905
9.49332
0.101342
0.0235109
0.154461
0.0815994
31.7902
0.0420618
0.604668
0.024079
0.0234358
5.97924
0.025365
0.274054
0.026297
0.123644
8.84585
0.0222932
0.0219976
0.0219732
0.272583
0.0214279
10.7068
0.0311158
27.5914
0.0225536
0.10355
0.234132
0.0219453
0.0220257
0.0710668
0.0278416
0.0220874
0.0233392
0.0691624
0.069195
0.0721006
0.0937461
19.3023
0.128171
0.0221144
0.0222013
7.81695
0.068011
0.0222404
0.0350812
9.92
0.0220086
0.0228232
0.0219344
0.0271732
0.0220385
0.0221041
0.0360237
0.021981
0.0223291
7.28682
32.4625
0.0217228
0.024629
0.0247363
0.172285
0.0394412
0.0220465
0.021922
0.0906006
11.0523
0.0219216
0.0242895
0.0218765
1.73997
0.0218069
0.0280604
0.246746
0.224271
0.0222719
0.118927
0.0810009
0.0514745
0.0244911
0.0220197
9.43432
0.0217942
0.0242236
0.0220662
0.02584
0.0215532
0.0215491
0.0218943
0.060617
0.0217946
0.021976
0.021696
0.0217277
0.0218663
0.0218509
0.0848491
6.49504
6.16555
0.0239546
0.0220562
0.0301721
0.0228357
7.11861
0.022285
0.152592
0.0215875
0.021992
0.0220503
0.0319788
6.04234
0.0219492
7.39574
0.0219712
0.0214968
0.0225573
3.04829
0.0227806
0.0413997
7.44429
0.0222848
0.0220332
9.19443
0.0218787
9.80021
0.0220871
0.0279699
21.6737
0.0220998
0.0220948
0.0218544
17.3292
0.0245401
0.0218663
0.668265
0.0219531
0.0221771
0.0774554
25.1453
0.161446
10.0307
8.37401
0.0658584
0.022843
0.153229
0.284019
0.021652
0.0218201
0.0223861
0.0245239
0.0706448
0.0219887
0.0243104
0.0218999
0.0219559
6.20325
0.0222249
12.7176
0.0215115
0.0274606
0.0505756
0.0218229
0.0214902
8.86644
7.71673
0.0595643
0.0220787
0.023944
0.042615
0.0217555
0.0298602
0.0957863
0.0341028
0.0226974
8.74728
26.9573
0.0215254
0.0221326
0.0216365
0.0221943
0.0221838
0.0247215
15.6096
0.0221197
0.0219531
0.0360026
25.5557
0.0215196
2.05984
0.0215172
0.13646
0.0514722
9.12719
0.0551071
0.0487612
0.0512545
0.0214503
0.0214858
0.289308
0.0243905
0.0220854
0.891564
0.0218072
0.0220825
0.0215982
0.0443349
0.174492
0.532118
0.125855
0.0255643
0.027738
0.0217314
14.3294
0.22369
0.0225316
0.0219676
0.02167
0.0799691
9.59857
0.0335735
9.6963
0.0225364
0.021732
6.57343
0.02187
9.44222
9.54063
0.0216484
0.0278741
0.35574
0.0233707
0.0334535
0.0217781
6.85688
0.0243857
0.137547
5.04921
7.88105
0.025318
0.0251822
0.0221346
0.144089
12.5617
0.0222718
0.0229692
6.64347
0.0451759
0.0605075
0.0222635
0.488177
5.4089
0.0862144
0.0218881
0.0245173
0.0218907
2.69913
0.0667484
0.0302516
7.20512
7.84647
0.021443
0.162363
0.0220987
5.2975
0.0821506
0.0243331
0.0235545
0.923148
0.0213801
0.0512145
8.33615
10.4216
0.0225081
0.0220308
0.0217818
0.0782644
2.94131
0.188664
9.00022
0.0824469
0.0383577
0.02171
8.46421
0.0705191
0.0268771
0.158049
6.07133
6.51556
6.42221
12.0852
9.71625
7.15974
0.0219217
0.0273864
0.0304035
0.0216544
15.2006
0.880625
0.0220187
1.56849
0.0221282
0.0219872
0.0217644
0.0278303
0.0218652
8.65464
0.0557938
0.248093
0.0215389
0.536089
0.0439758
0.470394
5.97552
0.0221266
0.0253041
0.0353716
0.0604234
0.02168
0.0215434
0.021887
7.4323
0.0217681
0.0216902
0.282031
0.0225136
22.6289
0.0220445
7.15376
0.0219392
0.022059
0.0218687
0.0218918
0.0245273
0.0235605
7.63512
0.0293025
0.0310305
10.0203
0.0217711
9.0945
0.0217783
9.59572
1.35261
7.35104
0.0593491
0.0218745
0.0222726
6.71694
0.0217611
0.024234
0.0221097
0.0264044
8.12541
0.0218809
0.0218441
0.0218604
0.0222652
9.27936
9.76871
0.0217533
0.0214206
9.00785
9.66252
0.0218588
2.49662
0.0222643
9.49969
8.49784
0.057346
0.275233
0.881127
0.0763062
6.79219
0.0674326
0.0218992
0.0215083
0.0217762
9.58299
9.63631
0.022499
0.0268815
6.72214
0.0218111
7.52375
0.0216701
0.0217004
0.0215742
5.87021
0.0619709
0.021685
6.71374
0.0222526
0.553027
5.89102
0.0216774
0.0221103
0.112489
0.0219433
0.0217567
0.0218254
6.02408
0.0300008
0.0220305
0.022129
5.82623
0.0218853
0.0380703
0.0219832
6.82998
0.0221001
0.0922644
0.0228477
6.55462
0.987319
0.0292271
0.0725654
0.0496965
0.022073
0.0685008
7.03925
0.0216742
0.0759929
0.0217524
0.552838
0.0218915
7.72151
4.96544
0.0929684
6.80302
6.65653
0.0380927
0.0220539
3.74652
0.0219281
11.6924
0.0243101
0.931544
0.0218206
0.0307426
0.0440804
0.028695
0.0219821
0.0218972
0.0221954
8.52963
0.0669506
6.71746
6.56467
0.0262798
0.0215857
0.0499043
10.6175
0.0314741
0.0216979
0.0220783
8.6927
4.0628
10.3605
7.74864
0.0333868
0.0220852
0.0217649
0.046303
0.0471393
0.797265
0.0219987
0.0220684
33.6226
0.0607693
0.0222854
0.0525429
0.819083
0.100111
0.0215218
0.0446107
0.544859
0.95406
1.97459
0.181272
0.0218487
0.022269
0.0218322
0.0222849
0.021892
0.0220889
0.0313675
0.185265
0.0315448
0.0249947
0.0273075
0.0221874
0.0249442
0.0220507
0.0326601
0.0307738
0.0217662
0.026747
0.0218622
0.0218375
0.0221678
0.022121
0.316201
0.0215439
0.0698889
0.544601
1.3571
7.77239
9.49845
0.0221204
0.0222368
0.0218969
9.58299
0.0216312
0.0214393
0.0221736
5.07361
0.0294252
0.0306809
0.450986
0.0227993
0.0220331
0.0279283
0.0218759
0.044544
0.0222854
0.03205
0.0217439
0.0218631
0.0224504
0.0228717
0.023561
0.640365
0.0329569
0.0991955
0.0552737
0.109811
0.0408752
0.0631899
0.0216297
7.08668
0.0237637
0.0254379
0.0218678
0.0221563
0.108256
0.0219773
0.0589224
5.39476
0.0278606
0.321616
0.101055
0.0496581
0.0640823
0.0552366
0.021919
0.0268706
0.0220883
0.0722792
0.0479009
9.55033
0.0217425
0.0447366
0.0253191
9.67142
0.270491
0.0419441
0.0220955
0.048293
0.0215489
0.0612755
0.0223269
9.17463
0.0216209
0.024867
0.0220178
0.0337744
0.11616
0.0289209
5.20392
0.0220404
0.0267245
0.0556313
0.022017
0.435623
9.72805
0.147407
0.0442981
0.0441518
0.0216562
0.0216711
5.151
0.0956817
0.0215225
0.0220323
0.0241769
0.0218738
0.348147
0.0217286
9.94585
0.151839
0.131501
0.0349835
0.0221255
0.0216372
0.0217025
0.138943
0.0727678
0.0255254
7.10228
0.0221732
0.0226754
0.0259946
8.07252
0.0214335
0.251541
0.0213818
10.1186
0.0219043
0.0218958
0.0357309
0.0219829
0.0220539
0.142799
0.0219627
0.0220831
0.0216806
0.0411773
0.0244831
5.57272
0.0219862
0.0219762
0.0218434
0.119657
0.021792
0.0271678
0.0361479
6.48363
8.51341
10.0994
0.663231
0.395778
0.0383416
0.0567028
0.0260747
0.0222509
0.0221211
8.71788
0.052419
0.0215197
0.021959
0.0219505
0.025307
0.0759147
0.0222519
0.0286387
0.112122
0.144852
0.101591
0.0219626
0.0222376
6.23152
0.0227805
0.0215144
5.85849
1.15601
0.0216576
0.0213931
0.0255586
0.0220554
0.0355399
0.0222485
1.26493
0.0222726
5.62463
0.0218129
6.20975
0.0280113
0.021871
0.0504245
0.0215437
0.0217285
0.0222648
0.0299774
0.55283
0.0218151
0.160027
0.0222855
0.0221995
0.101642
0.021576
0.0221273
0.0221009
0.0214353
0.0218745
0.0214509
0.0221654
0.479779
0.021854
0.0216613
0.0526922
0.021589
0.0219265
0.0221667
0.0219445
9.30271
0.346405
0.0218438
0.0222505
0.0217275
0.0222855
0.162608
0.0220541
0.0219817
9.08862
0.0219552
0.0413342
0.0461828
0.0354657
0.0216908
0.173766
0.0218515
0.21702
0.0625576
0.0217053
2.07567
4.79065
0.0269063
0.105376
0.0217815
0.0218508
0.041876
0.167942
0.021679
0.0218532
0.021968
0.0380068
0.0221016
0.0339246
0.0221089
0.0436713
0.429464
0.0366157
0.161828
0.0217993
0.0232967
0.0223984
0.0228347
0.0216618
0.0218564
0.0224175
0.0227757
0.0612687
0.0221241
0.0821219
0.0216808
10.4569
0.0214807
0.0217641
0.0690392
0.0222714
0.102894
0.0743623
0.0349573
0.0217047
0.0224267
0.0217467
0.0349431
0.0219638
0.0509748
0.0240225
0.0220032
0.0216309
0.0260705
4.4745
0.0300647
0.0478588
5.69582
1.05113
0.0362724
0.0215522
10.0086
0.021851
0.0227753
0.022187
0.0890548
0.0217741
0.0332187
0.0264638
0.0228957
0.0221208
0.0243117
0.0221999
0.0533951
0.0219261
0.0221852
0.0218496
0.0268009
0.507592
0.0218575
13.6875
0.0772946
0.0214169
7.83739
0.229617
0.0216484
0.0226107
0.074049
0.0217673
0.0218921
6.87985
0.0220262
10.6251
0.0245797
0.02372
0.0223662
0.0219907
0.021853
0.0216744
0.0556882
0.022279
0.0219572
0.0218531
0.0218708
7.10719
0.0343226
0.0219645
0.0275638
0.134163
0.060124
0.0218802
0.0218429
0.0218973
0.0239987
0.0224604
0.0221923
0.0250256
0.719449
0.02166
0.02247
5.63385
0.0236816
0.0930683
0.151814
0.0218273
0.0222699
0.484765
0.076876
0.296406
6.65146
9.92074
0.154344
0.48262
0.0216459
0.0225161
0.0216718
0.0221862
5.05946
0.021915
0.0496429
0.0529321
0.0263256
0.0240431
0.551575
0.0218998
0.0221149
0.0242283
0.0219269
0.0220483
0.0216655
0.0217572
0.0612103
0.0219277
0.0220092
0.02174
0.042323
0.0221319
8.90737
0.0219075
0.0223479
0.0218102
0.0222522
0.0223248
0.0218248
0.0354548
0.0225674
0.0219209
0.0266705
0.0218542
0.0222645
0.0218928
0.0294003
0.0220268
0.0220339
0.0220471
0.0220594
0.0260997
0.02202
0.022006
0.0929516
0.0220733
0.0218524
0.022894
5.94948
0.0461613
0.0219892
0.0437201
9.94812
0.103894
0.164102
0.0231989
0.0223682
0.0248068
0.478854
0.021883
0.238754
0.022055
0.0218878
0.0267475
0.0220515
0.0648045
0.0713065
0.0589486
0.0224791
0.0218311
0.0268029
0.0259474
0.0225493
0.0235025
0.0225955
0.0409515
0.0675024
0.0617712
0.0218493
0.0229244
4.44811
0.0226855
0.0222852
7.35684
0.436508
0.0218389
0.022074
0.0224632
0.0694539
10.213
0.0219489
0.355202
0.805332
0.0359294
0.053968
0.021532
0.022917
0.0222138
0.0722462
0.0222319
0.028123
0.022655
0.199518
0.0221934
0.0220607
3.21378
0.0227179
0.0226049
0.0219389
0.0222125
0.0354795
7.92194
0.0264312
0.0220428
6.03408
0.083121
0.0220094
0.0218809
0.0218026
0.0233505
0.0215876
0.162134
0.0218328
0.0235321
0.0240038
0.0499642
0.0250659
0.0217475
0.0258978
0.023435
0.0217692
0.085786
0.0216831
0.0227588
0.0216649
0.0222719
18.8364
0.0262377
0.0219893
6.59852
0.0223152
0.0219372
3.86679
0.0569784
6.94208
0.0218582
0.0224268
0.0218722
0.0221794
0.0225266
7.89929
0.0220981
0.0780134
0.0216762
0.0217934
0.0227472
0.0218089
0.0343303
5.11573
0.557944
0.0219442
0.0217095
0.278722
0.0222943
0.02193
0.0251101
0.0250335
0.385677
0.077321
0.022388
3.18867
0.0751841
0.0221508
0.0216575
0.021972
0.0270139
6.8572
0.0222838
0.0531098
0.0222393
0.0220886
0.0215059
0.0219262
18.9545
0.0257568
0.0216898
0.0230593
0.0220938
0.0244413
0.0213965
0.0224675
0.0218136
0.0223424
0.378562
0.0219203
0.0222127
0.0844734
0.0215598
0.0215044
2.12327
0.0218777
6.65712
5.7038
13.5117
0.0253261
0.0220025
0.0214775
0.0221387
0.0214469
0.0229664
0.202573
0.0434575
0.385006
0.0775452
0.0233422
0.0215311
0.0223892
0.0222327
0.0222726
0.0219933
0.0214957
0.0663516
0.0221812
19.132
0.0220438
0.0223033
0.0222633
0.0218805
6.35394
0.120173
0.0272675
0.021473
0.0453231
0.0224622
0.0219674
0.0683881
0.0214301
0.0225969
7.21408
0.0219522
0.0218673
0.0218698
4.20838
6.45729
0.021506
0.0222413
0.0232805
0.0219795
0.0215161
0.0218403
0.0220749
0.0218507
0.0218052
0.0218958
0.0231331
9.05382
0.0357161
0.0219268
0.0219221
0.0220081
0.0219204
0.0221771
0.0247837
0.0263362
17.7532
0.0243885
0.0220158
0.0221237
0.0219391
0.0823224
0.0215592
0.0222231
0.0227742
0.026954
0.0255297
9.23486
0.0219618
0.0270714
0.0222614
0.0222217
0.022104
0.021504
0.0223871
0.0986953
0.244725
0.0216769
0.0322364
0.0681237
0.0222648
0.0334625
0.0356853
10.2261
0.0222494
0.0229138
0.0221219
0.0215519
0.0663311
0.0219528
0.0219971
0.0427811
0.199367
0.235915
0.0217046
0.0218548
5.71063
6.74019
0.0215104
3.43449
0.264991
0.0218166
0.0215221
0.0215657
0.0219598
0.0221396
0.0214949
0.0268243
8.26779
0.0216846
0.0219541
0.0216593
0.0221571
0.0217718
0.0217695
0.0214865
10.5029
0.0218488
0.266967
0.0220147
0.0217629
0.0224346
0.0217912
0.0221753
0.0263298
0.0221539
0.022128
1.25264
0.0219892
0.023669
0.0219759
0.0219103
0.0221402
0.0217893
0.103085
0.0220577
0.0221054
0.0218433
0.21569
0.0284489
0.0219405
0.0221747
0.021931
0.0225307
7.4777
0.0227867
0.0230053
0.0219437
0.0221225
0.0218913
0.0474486
0.0225711
0.0223272
0.412917
0.0409744
0.0217601
0.0238047
0.0218515
0.0220517
0.0217395
7.35992
0.0219569
0.022057
0.021781
0.0282289
0.0227301
0.0222125
0.0218521
0.0217558
0.0551515
8.86545
0.0217584
0.0509606
0.0228459
0.0227854
9.59056
0.0216945
0.0219822
0.0219446
0.0229086
0.0225656
0.0217879
0.0234875
0.0219025
0.0850899
0.0214515
0.0217006
0.0236873
0.0221413
0.0862702
0.0241335
16.4522
0.0573002
0.0222118
0.103033
6.83653
0.0220527
0.0234273
0.0220673
0.0242396
0.0217505
0.0340452
0.0405983
0.0218823
0.027526
0.0216085
6.95841
0.0219849
0.0227513
8.18085
0.0365253
0.023091
0.13218
0.0221552
0.0219939
7.08335
0.0216835
9.27697
0.0218413
0.021861
0.0627527
9.40971
0.0219069
0.0397168
10.3305
0.0218527
0.0221742
0.021896
0.0251548
0.0240282
0.0223461
0.0220044
6.80584
0.0219583
0.022208
0.0219301
0.021867
0.0220377
0.0228024
0.0271572
7.64759
0.0222313
8.49365
0.0219316
0.0221841
0.0236833
0.0221798
0.0496341
0.0529639
0.0220944
0.0218965
0.0218209
0.0804004
0.0216629
0.0218129
0.569685
0.119912
0.0216481
0.022003
0.0217252
0.022087
0.0237695
0.071445
0.0219614
0.0221271
0.0217298
0.0219352
0.0219597
0.0214815
0.02495
3.58595
0.0216753
0.0219278
0.739412
0.0219028
0.03576
0.0220682
0.0270087
0.0463151
12.5385
0.0222613
0.0220547
0.0217786
0.0219442
0.0220424
0.0214116
0.0221433
0.0221271
0.0226083
0.0459653
0.0237159
0.0227737
8.06798
0.0220288
0.125025
0.0216717
0.0216603
0.0220148
7.21116
0.0218245
0.0495935
0.0224683
0.0222511
0.0219319
0.0217025
0.0216445