/*--------------------------------*- C++ -*----------------------------------*\
| =========                 |                                                 |
| \\      /  F ield         | OpenFOAM: The Open Source CFD Toolbox           |
|  \\    /   O peration     | Version:  v2012                                 |
|   \\  /    A nd           | Website:  www.openfoam.com                      |
|    \\/     M anipulation  |                                                 |
\*---------------------------------------------------------------------------*/
FoamFile
{
    version     2.0;
    format      ascii;
    class       volVectorField;
    location    "700";
    object      U;
}
// * * * * * * * * * * * * * * * * * * * * * * * * * * * * * * * * * * * * * //

dimensions      [0 1 -1 0 0 0 0];


internalField   nonuniform List<vector> 
10042
(
(0.996173 0.00745703 3.13978e-23)
(0.99838 0.00158289 0)
(1.02579 0.0115874 0)
(1.00628 5.91363e-05 1.95276e-21)
(0.847329 0.171831 -1.64713e-19)
(0.998954 0.00139218 2.59154e-21)
(0.951753 -0.34632 2.63368e-20)
(1.10505 -0.245558 0)
(1.02137 0.0113045 -7.94165e-22)
(1.00072 0.00300691 2.00358e-21)
(-0.287095 0.0468521 2.48458e-19)
(1.00981 8.92103e-05 0)
(1.01175 0.00197207 -4.50329e-21)
(1.01208 0.0008441 0)
(0.96502 0.0441754 6.90249e-22)
(0.999136 0.00284056 2.94212e-21)
(0.999057 0.00321833 -8.1364e-21)
(1.00003 0.000243807 -5.61612e-21)
(0.9963 0.00712186 4.76492e-21)
(0.702165 0.270105 -1.3327e-21)
(1.00242 0.00376953 0)
(1.01606 -0.144883 0)
(1.01117 0.000428055 0)
(1.01046 0.00363845 -1.47551e-21)
(0.998477 0.0012827 -6.48419e-21)
(1.06103 0.00560213 1.54693e-20)
(0.999006 -0.000386546 0)
(0.99509 0.044679 0)
(1.01523 0.0172426 -3.90237e-22)
(1.00127 0.0393709 -3.20811e-21)
(0.997003 0.000579154 8.32843e-21)
(-0.130059 0.050725 0)
(1.00071 0.00273912 0)
(1.01506 0.0341521 0)
(1.05406 0.037124 1.27622e-20)
(1.01015 0.0037658 3.01171e-21)
(1.05978 0.00929774 6.77088e-21)
(1.05685 -0.0101052 0)
(1.00993 0.00352953 -4.25567e-21)
(1.00818 0.100188 0)
(0.673254 0.263514 3.12809e-20)
(0.972432 0.0438146 -3.23609e-21)
(0.916886 -0.3469 -3.97747e-21)
(0.992977 0.0257665 -4.03495e-21)
(0.834455 0.179249 7.96505e-20)
(1.06649 -0.0404965 0)
(0.979577 0.0292871 -1.08007e-20)
(1.02251 -0.0499768 1.14628e-21)
(1.05915 0.0191107 1.45651e-20)
(1.04022 -0.0214102 -2.38176e-21)
(1.00025 0.000286395 0)
(1.02813 -0.00106106 9.08525e-22)
(0.964378 0.0342055 0)
(1.03207 -0.00134724 1.48113e-21)
(1.06045 0.011085 2.17084e-20)
(0.998956 0.00157302 3.80134e-22)
(1.01585 0.0171697 7.4025e-22)
(0.980084 0.0282239 8.4332e-21)
(1.0155 0.0329638 6.88705e-22)
(0.966519 0.034392 0)
(0.997748 0.000707643 0)
(0.997155 0.00287834 -1.1718e-20)
(1.05539 0.0394068 -1.4647e-20)
(1.02513 0.0118055 -7.89584e-22)
(0.971017 0.0117698 3.5676e-20)
(1.01767 0.0320436 0)
(0.978002 0.0083114 0)
(0.750048 0.181759 -2.98587e-20)
(-0.147844 0.0119069 -5.50613e-20)
(0.999282 0.0214642 2.68817e-21)
(1.03152 -0.00166195 -2.57321e-21)
(0.656898 0.274974 -6.79149e-20)
(0.99196 0.0255537 0)
(0.876539 0.05539 0)
(0.979086 0.00542977 -8.05026e-21)
(1.01069 0.00384107 1.57159e-21)
(0.747214 0.158104 2.47151e-19)
(0.996251 0.00638661 -1.02264e-20)
(0.912577 0.0759729 -2.41069e-20)
(0.969907 -0.370419 6.12949e-20)
(1.05697 0.0190243 0)
(0.994171 0.192125 1.54748e-19)
(1.00475 0.0289367 0)
(0.974829 0.0380748 1.15578e-20)
(0.97793 0.00738229 -1.55587e-20)
(1.00002 0.000677782 0)
(0.996532 0.00922604 -6.18487e-21)
(1.17662 0.247343 -3.12773e-20)
(0.987732 0.0159738 6.10485e-21)
(0.996847 0.00930754 9.24275e-21)
(1.02441 0.0240276 1.72766e-21)
(0.99913 0.202032 2.53049e-19)
(0.996013 0.0462689 -5.42121e-21)
(1.02778 -0.000720461 0)
(1.00026 0.0382044 0)
(1.01112 0.0231908 2.26958e-21)
(0.998664 0.00635499 6.83608e-21)
(1.00665 0.0226433 0)
(1.00795 0.0967703 -1.99507e-22)
(1.01899 0.0153391 6.81894e-25)
(0.999994 6.17757e-05 -1.02809e-20)
(1.19609 0.169876 -2.92109e-20)
(1.06187 -0.257502 4.39589e-20)
(1.00003 0.000758118 0)
(0.989721 0.0413396 6.52681e-21)
(1.05369 0.180532 -3.31089e-21)
(0.994327 0.0066171 -7.18672e-21)
(0.998699 0.00663883 3.50995e-21)
(1.00233 0.0035392 -8.39129e-23)
(1.0165 0.00152641 -9.04303e-22)
(1.00708 0.00101634 3.05908e-21)
(1.00226 0.0169593 2.52134e-23)
(1.03377 0.0619843 1.74362e-21)
(-0.219987 0.031616 -1.89171e-19)
(0.971953 0.0109946 -1.08972e-20)
(1.00016 0.0154601 9.69213e-22)
(0.992841 0.001226 0)
(0.996098 0.00671308 -5.86458e-21)
(1.01158 0.0225201 -2.03582e-21)
(0.122692 0.0924446 -8.19927e-20)
(0.987899 0.0152059 0)
(1.09347 -0.242729 -5.09973e-20)
(0.99576 0.0285518 -2.45069e-21)
(0.995114 3.25537e-05 1.16741e-20)
(1.19544 0.15854 1.14112e-20)
(1.00411 0.0295004 0)
(1.11876 -0.239925 0)
(1.0642 0.0312869 2.24604e-20)
(1.04569 0.176972 1.7678e-20)
(0.997252 0.0102327 1.45831e-20)
(0.910089 0.081353 -2.66235e-20)
(0.982513 0.0150564 1.18136e-20)
(-0.116876 0.105882 0)
(1.17064 -0.142821 0)
(1.01838 0.0154998 -1.66488e-22)
(1.11703 0.145639 4.27294e-20)
(-0.00913536 0.0768698 0)
(1.0246 0.025155 -4.2347e-21)
(1.02111 -0.0550632 0)
(1.18325 0.257288 3.69595e-20)
(0.984535 0.0421609 0)
(0.992453 0.00113849 0)
(0.985381 0.0370396 3.27843e-22)
(1.26017 0.111771 1.49791e-19)
(1.02587 0.00111321 7.68026e-22)
(1.00203 0.0165059 3.73159e-21)
(1.13699 0.105229 0)
(1.01939 0.00215674 2.03808e-22)
(1.00664 0.0234739 0)
(1.01167 0.0699321 1.13321e-21)
(1.02287 0.0104532 0)
(1.00002 0.000100867 -5.57077e-21)
(0.682355 -0.393558 8.428e-20)
(0.0889941 0.121038 -4.51054e-20)
(0.99959 -3.13931e-05 6.25533e-22)
(1.01173 0.00174341 6.72707e-21)
(0.960571 0.00620482 -1.38619e-20)
(0.996922 0.00299817 1.00103e-20)
(1.11591 0.153706 -7.23411e-20)
(-0.0680361 0.0775155 -1.24902e-19)
(-0.302536 0.0107811 0)
(1.17892 -0.0812435 -1.9597e-20)
(0.996136 0.00180769 -1.11151e-20)
(1.02257 0.0109817 -2.49149e-21)
(1.00786 0.0308898 0)
(0.983176 0.0142066 0)
(0.962737 0.23034 0)
(0.472854 0.281707 0)
(-0.0981046 0.0278212 1.56142e-20)
(0.133045 0.126823 -7.77673e-20)
(1.03145 0.000812277 -2.26802e-21)
(1.00291 0.00913268 2.76905e-22)
(1.14547 0.227729 -3.18793e-19)
(0.706108 0.322769 -4.80449e-20)
(0.920016 0.140378 7.0255e-21)
(0.672949 -0.188635 0)
(-0.306783 0.359848 8.59428e-20)
(0.994257 0.0272623 9.33331e-21)
(0.735978 0.200783 -6.13356e-20)
(1.0596 0.080445 -2.22622e-20)
(0.958389 0.00665483 -1.68307e-20)
(-0.130919 0.0313102 0)
(0.976915 0.0104838 -1.50193e-20)
(1.06274 0.0328373 3.66431e-20)
(0.972451 0.0413985 1.59793e-20)
(0.14493 0.0826275 7.06938e-20)
(1.24781 -0.117963 -3.93747e-20)
(1.01548 0.0286742 -5.15827e-22)
(-0.303728 -0.0236018 -1.76659e-19)
(1.04212 0.0284099 6.97249e-21)
(0.792304 0.741047 -1.51603e-20)
(0.983708 0.0366216 -8.19807e-21)
(0.64389 -0.406528 6.36622e-20)
(1.30696 0.24775 7.70884e-21)
(1.11462 -0.0809493 -2.71883e-20)
(1.51842 0.0885103 0)
(1.051 0.0149537 -3.0754e-22)
(0.995105 0.00575606 -5.83639e-21)
(1.01148 0.00160423 2.31136e-21)
(1.02429 0.04675 3.11941e-22)
(0.898959 0.123959 0)
(1.01636 0.0289208 5.14186e-23)
(1.00336 0.0171364 3.18499e-21)
(0.730515 0.344962 8.63216e-20)
(0.976742 0.00937215 1.6266e-20)
(1.01303 0.00989695 -3.13965e-21)
(0.880274 0.769962 0)
(0.999353 0.000201139 1.05623e-20)
(1.00002 0.000283035 5.98078e-21)
(0.999904 0.0001957 1.75934e-20)
(1.5273 0.0891912 0)
(1.01163 0.000298945 0)
(0.957578 0.219809 6.94716e-21)
(1.05013 0.401146 -6.04769e-20)
(0.962078 0.00786872 1.38243e-20)
(1.26191 -0.119659 0)
(0.981961 0.00457764 1.31389e-20)
(0.999546 0.00440338 0)
(1.16243 0.0774065 2.69127e-20)
(1.0066 0.0113907 0)
(1.03667 0.0617062 -1.88907e-21)
(0.959399 0.013428 -1.51586e-20)
(1.13261 0.363626 0)
(1.05722 -0.0120521 9.69306e-21)
(0.950959 0.0571797 0)
(1.06141 0.001853 2.78375e-22)
(1.15524 -0.201474 0)
(1.00109 0.0160168 -7.45976e-21)
(1.23648 -0.0705457 0)
(1.0319 -0.00243006 2.95611e-21)
(1.02184 0.0108719 1.94362e-21)
(0.840242 0.350758 2.35443e-20)
(1.0026 0.00871662 -1.00431e-20)
(1.03153 -0.0026995 2.59468e-21)
(1.02625 0.0120797 3.04412e-21)
(1.01427 0.0713842 -1.44008e-23)
(1.01181 0.0115194 -6.40996e-22)
(1.01249 0.000563118 2.71535e-24)
(1.03956 0.0143048 5.18295e-21)
(1.03645 -0.00750612 -3.91375e-21)
(0.996105 0.0015329 -5.3594e-21)
(0.994661 0.0284818 9.28084e-21)
(1.00767 0.0297705 0)
(1.03327 0.0649289 -3.74779e-21)
(1.00043 0.0149625 -4.02695e-21)
(0.997165 0.000669959 0)
(1.00968 0.000831994 0)
(0.990301 0.0431531 3.90041e-22)
(1.03164 -0.000338415 2.71257e-21)
(1.00002 0.000193024 4.1698e-21)
(1.01144 0.00103068 0)
(0.999715 0.0207665 4.92063e-21)
(0.993776 0.0636195 9.17039e-21)
(1.14286 0.373133 -5.5826e-20)
(1.18671 -0.0747754 -2.35834e-20)
(-0.265524 -0.0174414 9.69999e-20)
(0.912772 0.144457 0)
(0.934982 0.141101 3.03416e-20)
(0.96452 0.0466626 0)
(1.06907 -0.0488354 0)
(0.845478 -0.256538 3.0128e-21)
(1.03827 0.0144549 1.94974e-21)
(0.99447 0.00622578 -6.01486e-21)
(1.01232 0.000572433 1.89505e-21)
(1.02243 0.0464128 1.82105e-21)
(1.01153 0.0111202 0)
(1.00396 -0.153665 -2.03186e-21)
(1.03663 0.00258473 4.36809e-21)
(0.996872 0.010052 -1.06307e-20)
(0.99995 0.000234294 -1.81184e-20)
(0.889372 0.124938 0)
(1.03215 -0.000682384 -3.17472e-21)
(1.06043 0.387091 6.31923e-20)
(0.928342 0.145524 0)
(1.22335 0.22053 7.60939e-20)
(1.04296 0.029733 -9.29968e-21)
(1.03586 -0.00783891 6.59063e-22)
(1.01076 0.0108615 9.70135e-24)
(1.04528 0.00266572 6.68086e-21)
(1.02637 0.00125353 -8.93808e-22)
(1.06324 0.0826361 3.50465e-20)
(0.991223 0.0165874 0)
(1.06179 0.00745829 -1.59947e-20)
(-0.0561165 0.120223 2.90788e-19)
(1.01265 0.00972316 4.26202e-21)
(1.02353 0.0134858 -2.34374e-21)
(0.881068 -0.265438 -3.3452e-21)
(1.07 -0.0431215 -8.77304e-21)
(1.01529 0.0278261 9.6906e-23)
(0.997582 0.000396678 6.5725e-21)
(0.994431 0.0610216 1.16883e-21)
(0.654422 -0.144494 -4.66807e-20)
(1.12615 0.00353251 1.84923e-20)
(1.27029 0.105585 -4.418e-20)
(1.00021 0.000230213 2.76959e-21)
(1.01153 0.00138367 -7.14706e-21)
(1.00137 0.0165295 -2.19667e-23)
(1.02156 0.0118229 -7.28392e-22)
(1.1417 -0.203928 1.49775e-19)
(0.9946 0.0134986 0)
(0.997725 0.0010382 2.4941e-22)
(1.00268 0.0101682 7.97946e-21)
(0.982015 0.00356402 0)
(1.05128 -0.0142218 5.62749e-21)
(0.971781 0.0526256 -1.70202e-20)
(1.10565 0.21218 0)
(0.920339 -0.122375 0)
(0.967814 0.0321374 4.20413e-22)
(1.33256 -0.311579 -9.39057e-20)
(1.00034 0.0138248 -3.94672e-21)
(1.04436 0.00303058 0)
(0.998854 -0.000496577 1.0413e-20)
(-0.138608 0.0775543 0)
(1.20487 0.139618 5.32987e-20)
(1.4194 0.278486 -1.48824e-19)
(-0.241988 0.414694 -1.81358e-19)
(1.01128 0.00396478 -1.66776e-21)
(1.0367 0.00209407 0)
(0.99964 0.0222405 -3.10196e-21)
(0.980945 0.0584963 2.17122e-20)
(1.06252 0.00370705 -2.86829e-20)
(1.00001 0.000451358 1.30653e-20)
(1.05326 0.0958368 -1.2084e-20)
(1.00738 0.00106457 1.13917e-21)
(1.01271 0.000399075 -8.50374e-22)
(0.993198 0.0271278 3.04921e-22)
(1.11071 0.22062 0)
(0.999993 0.000176479 0)
(1.04016 0.0283024 1.30967e-21)
(0.983549 0.0123446 0)
(0.973765 0.0512135 1.4831e-20)
(-0.278156 0.155227 2.87988e-19)
(1.00011 0.0143633 0)
(0.999499 2.57257e-05 -1.14149e-20)
(1.00143 0.00108825 -4.74068e-21)
(1.02469 0.011104 7.84783e-22)
(1.07842 0.124281 1.37919e-21)
(1.1101 -0.0843531 0)
(0.943404 0.144892 -2.26046e-20)
(1.30261 -0.240362 -6.54257e-20)
(1.05299 -0.0138995 7.59756e-21)
(1.05972 0.0326466 0)
(0.982819 0.0130171 -7.26202e-21)
(1.01226 0.000810749 0)
(1.02753 0.0226958 0)
(1.00002 0.00021441 5.6635e-21)
(1.2596 -0.202911 -1.1497e-19)
(0.99149 0.0171347 4.95608e-21)
(1.01704 0.0330611 2.53414e-22)
(1.01107 -0.0220959 -3.01628e-21)
(1.00288 0.0173833 3.4764e-21)
(0.984696 0.0646459 0)
(0.974637 0.0403319 -1.19963e-20)
(1.00503 -0.024519 5.25238e-21)
(1.02676 0.00629315 6.42164e-23)
(0.952378 0.0548903 0)
(1.04517 0.16913 -8.24297e-21)
(1.0487 0.0957235 -8.63435e-21)
(1.02626 0.0438243 0)
(0.994434 0.00495936 1.10587e-20)
(1.32865 -0.265658 -9.25301e-20)
(1.14331 0.102797 -1.61935e-20)
(1.03193 0.00859481 3.35242e-22)
(1.07863 0.117719 3.03849e-20)
(1.00014 0.00559904 -6.54374e-21)
(1.00259 0.00830279 4.15819e-21)
(1.00029 0.0055677 1.48115e-23)
(0.982021 0.0649092 -1.27121e-20)
(1.37479 0.265994 -4.04253e-20)
(1.03651 -0.00341259 -2.66413e-21)
(1.00002 0.000415336 4.11265e-22)
(0.969745 0.0323916 1.50773e-20)
(1 6.59624e-05 -3.31307e-23)
(0.99999 0.000269783 -8.03042e-21)
(0.719874 0.28791 -1.93149e-20)
(0.994968 0.00542086 1.87398e-20)
(1.01692 0.00714471 -9.93105e-22)
(0.0246539 0.0820028 0)
(1.0038 0.00589098 4.19132e-21)
(1.03438 -0.274964 0)
(1.24536 -0.214279 0)
(0.876543 0.0625308 -5.07197e-21)
(0.531459 -0.0711525 -4.68508e-20)
(-0.232219 -0.0143366 0)
(1.00801 0.0877016 0)
(0.818129 0.347951 -2.57001e-20)
(0.99933 -1.66385e-05 5.24295e-21)
(1.04034 -0.0224511 -1.65649e-21)
(0.999998 0.000100889 -6.48438e-21)
(0.979606 0.0253966 2.22945e-21)
(0.937673 0.00646563 0)
(0.999843 0.00204611 -4.18796e-21)
(0.978892 0.0601945 -1.21799e-20)
(0.653897 0.953337 9.44352e-21)
(1.01068 0.000395846 0)
(1.00233 0.00392353 3.46032e-23)
(0.793392 0.104977 4.9342e-20)
(0.826169 0.664196 -1.39761e-20)
(1.01714 0.0308454 2.34673e-22)
(1.01899 0.00256104 0)
(-0.10202 0.0189199 -1.52004e-19)
(1.20692 0.151362 -1.36078e-20)
(1.00293 0.00957682 5.99806e-22)
(0.745007 0.166625 1.49052e-20)
(-0.0118516 0.0528266 2.1126e-19)
(1.00698 0.0116015 -2.24442e-21)
(1.00001 0.000329961 -4.0858e-22)
(1.01427 0.00774855 -2.50618e-21)
(0.998159 0.012053 0)
(1.01268 0.000477546 1.1325e-22)
(1.01259 0.00913732 0)
(1.30811 -0.289027 2.34279e-19)
(1.07856 -0.257451 0)
(0.979026 0.0265945 -2.3197e-21)
(1.06246 -0.0883224 1.4379e-19)
(1.01195 0.000725396 0)
(0.994708 0.0127237 1.17417e-20)
(1.29271 0.284026 6.85734e-20)
(1.02876 0.00896813 0)
(1.05354 -0.274812 0)
(1.13139 0.000309569 -3.96186e-20)
(0.973113 0.0369782 5.28926e-22)
(1.01759 0.00566355 -7.17422e-23)
(1.01862 0.00262842 -5.43334e-22)
(1.06549 0.315003 0)
(1.03194 0.000416498 3.52165e-21)
(1.00412 0.0893626 -2.88673e-21)
(0.995206 0.0386617 5.30334e-21)
(-0.275277 0.0451746 -2.46468e-19)
(0.964018 0.0072305 1.3301e-20)
(1.38088 0.278227 -6.43362e-20)
(0.967712 0.0436863 1.40294e-20)
(1.00133 0.00481723 -3.32582e-21)
(1.00046 0.0160116 3.21345e-21)
(1.19524 0.347622 0)
(1.00102 0.00465327 0)
(0.922717 0.0179591 3.45365e-20)
(0.996785 0.0166545 -1.46772e-20)
(1.02623 0.00645207 0)
(-0.0753729 0.0887083 2.76181e-19)
(1.05222 0.0180079 1.12274e-20)
(0.99244 0.00233988 8.976e-21)
(1.00752 0.000639354 0)
(-0.0658754 0.0166958 0)
(0.99767 0.0111546 0)
(1.05382 0.0187106 -1.45261e-20)
(1.01903 0.0480197 -1.02847e-22)
(1.01105 0.0112252 1.57851e-21)
(1.23152 -0.0942438 0)
(0.533199 -0.125446 0)
(1.00277 0.00475059 -6.9667e-21)
(0.973528 0.0112603 0)
(1.03734 -0.00348138 0)
(1.01135 0.00120149 2.63659e-21)
(0.999128 0.00386259 -6.25462e-21)
(0.994441 -0.000823428 1.80271e-22)
(-0.066971 0.0433401 0)
(0.995579 -0.000996796 9.94353e-21)
(1.01194 0.000381057 -1.09266e-21)
(0.976786 0.0944593 -8.25588e-21)
(1.05909 -0.242387 -3.99155e-20)
(1.15042 0.0669962 2.56192e-20)
(1.00001 0.000232861 -5.70254e-21)
(1.06023 0.0754752 0)
(0.0409075 0.00588124 -1.78888e-19)
(1.05096 -0.016142 -3.69007e-21)
(0.991713 -0.000845702 -7.50425e-21)
(0.994725 0.00462704 7.36633e-22)
(1.18212 -0.13809 0)
(1.03113 0.0085824 4.48494e-21)
(1.00131 0.00458715 5.48145e-21)
(0.911226 0.0651058 -4.77818e-20)
(1.02236 0.0120991 2.14421e-21)
(1.01229 0.00901274 -3.61383e-23)
(0.95757 0.0147356 -9.13755e-21)
(1.01298 0.00400518 -1.69838e-21)
(0.965799 0.152146 0)
(0.993951 0.00692128 7.8045e-21)
(1.00089 0.00468657 0)
(-0.307992 0.0419474 -8.9036e-20)
(1.00598 0.00448349 0)
(1.03068 0.000631919 4.25239e-23)
(0.999986 0.0020492 -6.95398e-21)
(0.996093 0.0372796 -4.84248e-21)
(1.05545 0.0902447 1.06207e-20)
(1.00262 0.00457665 4.38425e-21)
(1.02401 0.0111773 0)
(1.40478 0.287248 1.96232e-19)
(0.998726 0.041762 3.85844e-21)
(1.06637 -0.352512 0)
(1.03777 0.0157753 -2.33339e-21)
(1 0.000114554 9.79808e-21)
(1.00001 9.99157e-05 5.60359e-21)
(1.20701 0.189776 0)
(0.990626 0.0135673 0)
(0.992433 0.0020488 -1.11762e-20)
(1.00116 0.0011711 0)
(1.03244 0.00742798 2.26984e-21)
(0.955719 0.0817173 1.33536e-20)
(1.03461 -0.341346 -1.82844e-20)
(0.997282 0.0109571 0)
(0.958913 0.149084 7.4494e-21)
(0.6939 0.764752 -1.29368e-20)
(1.04968 -0.0163504 -3.03789e-21)
(1.00001 0.00031944 -6.06619e-21)
(0.994034 0.00121747 1.25333e-20)
(1.02835 0.00407391 -2.73239e-22)
(1 0.000747319 4.73934e-22)
(0.999443 0.0125419 0)
(-0.00782362 0.223871 1.01443e-19)
(-0.0478539 0.0778189 -1.32213e-19)
(0.99986 0.00185435 0)
(1.06353 0.0288903 -3.54126e-20)
(1.0465 -0.0073613 0)
(1.04578 -0.00691212 3.60221e-22)
(0.978113 0.00485219 -4.48412e-21)
(1.00875 0.000982441 -1.02052e-23)
(1.06715 -0.213353 0)
(1.0745 0.306506 -3.50075e-20)
(0.72728 0.738906 1.46989e-20)
(1.01711 0.00569086 -8.72182e-23)
(1.02901 0.00431614 -2.63744e-21)
(1.02809 0.0092814 1.11827e-21)
(1.00367 0.00603815 -6.41947e-21)
(-0.0593585 0.0259502 1.35859e-19)
(1.07181 0.0823558 -1.67264e-20)
(1.03246 0.00816749 -3.13015e-21)
(1.01544 0.0201908 1.79404e-22)
(1.00599 0.00045645 -4.20643e-21)
(0.980065 0.0033721 0)
(1.07469 -0.227517 0)
(1.05238 0.016033 0)
(0.999072 -0.000456759 0)
(-0.0576741 0.0462966 -2.23117e-19)
(0.804834 0.626084 0)
(1.02549 0.437354 1.67191e-20)
(1.06243 0.178707 -6.99638e-22)
(0.999163 0.00348671 6.30631e-21)
(1.01836 0.0163186 0)
(1.03738 -0.0194656 0)
(1.12932 0.0939175 0)
(0.12551 0.0610106 -2.33362e-19)
(0.654194 0.319945 0)
(0.95149 0.0486407 0)
(0.91912 0.0159702 -2.82759e-20)
(1.00004 0.00068838 0)
(1.03951 0.026715 0)
(0.974411 0.0117191 2.10006e-20)
(1.00004 0.000774159 0)
(-0.306466 0.0172317 0)
(1.00993 0.000894059 -1.66206e-21)
(1.00009 0.0132496 -1.22074e-20)
(1.0575 -0.0364254 0)
(0.999999 0.000666422 -3.63062e-21)
(0.94521 -0.117807 -9.95067e-22)
(1.03653 0.0156665 4.1257e-21)
(1.07526 -0.117279 0)
(1.02063 0.0929319 1.7399e-21)
(0.999939 0.000139087 4.5601e-21)
(1.03739 0.00524743 0)
(1.05541 0.0349454 1.45086e-20)
(1.03851 -0.0170418 0)
(1.06628 0.173578 -8.0547e-21)
(0.962487 0.27868 1.73983e-21)
(0.999988 0.000168166 0)
(1.03926 -0.0206425 3.29217e-21)
(1.02458 0.0392451 2.05845e-21)
(1.01015 0.0230658 1.23067e-21)
(1.0003 0.00132327 6.92232e-21)
(1.02772 0.0236302 5.25557e-22)
(0.996924 -0.00161438 8.60019e-21)
(0.950077 0.0513844 1.2945e-20)
(1.14951 0.0617814 1.3841e-20)
(0.855256 0.116043 5.83918e-20)
(0.999067 -0.000675092 1.74513e-20)
(0.997861 0.0431643 5.24108e-21)
(1.00121 0.0011019 2.70353e-21)
(0.991962 0.00489212 7.17025e-21)
(0.80361 0.329706 0)
(1.00204 0.00316921 -6.45853e-21)
(1.0156 0.0492069 3.18979e-22)
(1.01735 -0.138047 3.07059e-20)
(1.0127 0.0038687 -1.81659e-21)
(1.12979 0.101222 0)
(1.03399 -0.0151594 1.29775e-21)
(0.997403 0.000319863 0)
(0.11607 0.0627722 0)
(1.0786 -0.011618 -1.59002e-20)
(0.999945 0.000630379 8.23557e-21)
(1.2948 -0.0900702 1.05809e-19)
(1.02752 0.0114985 0)
(1.00001 0.000248483 1.91703e-22)
(0.982925 0.00822063 0)
(0.995138 0.000914027 1.47249e-21)
(0.999996 9.70914e-05 -6.9969e-21)
(1.04166 0.0337541 4.66505e-21)
(0.979155 0.00308227 -4.47319e-21)
(0.850125 0.574777 0)
(0.986449 0.0425815 0)
(0.99435 0.00149678 -1.06096e-20)
(1.01926 0.0295437 7.5825e-22)
(1.05982 0.0902569 -6.70239e-21)
(1.07323 0.00780878 0)
(0.994884 -0.000224769 -2.2622e-20)
(1.04121 0.00218219 5.35282e-21)
(1.01782 0.0164766 2.71119e-22)
(1.05495 -0.00956961 0)
(0.984608 0.00322289 1.13955e-20)
(1.01744 0.0961684 -2.11143e-21)
(1.0174 0.0073094 6.89103e-22)
(0.953674 0.007789 1.29578e-20)
(1.01811 0.00300205 -7.19462e-22)
(1.00056 0.0058382 9.77306e-21)
(1.13475 -0.251236 0)
(1.01393 0.00792301 -4.05975e-22)
(0.806576 0.31175 0)
(0.994257 -0.000485418 0)
(1.03478 0.00595931 3.2669e-21)
(1.00644 0.00431145 2.50253e-21)
(1.06618 -0.00200721 0)
(0.999983 0.00187973 1.09507e-20)
(1.08186 -0.0125444 1.84797e-20)
(1.01611 0.0269748 7.12297e-22)
(1.28623 -0.0771115 6.06526e-20)
(0.999979 0.000290872 1.2504e-20)
(0.920297 -0.311879 -6.25813e-21)
(1.01941 0.00194955 -5.6193e-22)
(0.973035 0.0487502 0)
(0.999979 0.000114512 0)
(0.981035 0.00519784 2.04273e-20)
(1.00002 0.00530393 0)
(1.04058 0.034486 -4.63482e-21)
(0.996935 -0.00117542 5.93138e-22)
(0.666268 0.228369 0)
(0.872528 0.559455 0)
(0.939813 -0.103626 8.27336e-22)
(1.04349 0.0119548 -4.22995e-21)
(0.948398 0.139358 0)
(1.00446 0.0174327 1.47123e-21)
(0.984645 0.152811 -2.73486e-22)
(1.06281 -0.0406773 0)
(1.00079 0.00276784 -9.60279e-22)
(0.917322 0.0658537 2.56056e-20)
(0.957149 0.292984 -8.24059e-22)
(0.20852 0.00869204 1.71438e-19)
(1.03541 -0.0154587 -1.79623e-21)
(1.31358 0.355707 2.20102e-19)
(1.05822 0.0352348 -3.06429e-20)
(0.997438 0.0321091 -3.33191e-21)
(1.00001 0.000523683 6.41489e-23)
(1.0433 0.00264958 6.41993e-21)
(1.0424 0.0311769 -1.48199e-21)
(1.03854 -0.0154408 4.70758e-21)
(1.01104 0.00374777 3.05519e-21)
(1.02898 0.0414586 -6.73549e-21)
(1.18689 -0.062563 1.26279e-19)
(1.00002 8.87282e-05 0)
(0.991917 0.00438995 -1.39312e-20)
(1.04187 0.00134716 -5.93516e-21)
(0.590767 -0.181568 2.0151e-21)
(0.975033 0.0474476 0)
(1.0569 0.0729064 -9.23901e-21)
(1.03745 -0.0188811 0)
(0.999948 0.000166064 0)
(0.934212 -0.376117 -2.54174e-20)
(1.01092 0.00439021 -4.19395e-22)
(1.00334 0.0104326 5.12323e-21)
(1.00271 0.0393573 -1.21323e-21)
(1.02249 0.0126185 -1.83262e-21)
(-0.124892 0.080456 1.26978e-19)
(1.0531 -0.0467809 -1.39162e-20)
(0.443233 -0.133795 -1.74015e-19)
(1.00085 0.000356055 -1.33217e-23)
(1.23951 0.376729 -4.96291e-22)
(0.185962 0.0395252 0)
(1.23141 -0.206457 0)
(1.03921 -0.0153601 -3.95466e-21)
(1.06528 -0.0501452 0)
(1.22347 -0.0743581 6.93452e-21)
(1.01293 0.156033 6.55536e-21)
(0.983298 0.0113095 2.13427e-22)
(0.996404 0.0171621 7.37993e-21)
(0.908311 0.0701963 2.88179e-20)
(-0.202748 0.0717319 -1.33763e-19)
(1.00558 0.0175895 -3.2596e-21)
(0.974779 0.0985585 -1.01678e-20)
(1.06205 -0.33982 0)
(0.993723 0.00794179 0)
(1.00105 0.00644454 5.67939e-21)
(1.00977 0.0236657 -1.6657e-21)
(0.98965 0.0467135 7.05666e-21)
(0.999894 0.00536423 6.93014e-21)
(1.02748 0.00546891 -2.01341e-21)
(1.19536 0.194763 0)
(1.45474 0.0753886 -1.77451e-20)
(1.02689 0.00555741 4.87626e-22)
(0.999647 0.00414191 0)
(-0.150157 0.0981952 1.27391e-19)
(0.407423 -0.444682 6.96354e-20)
(1.00399 0.0176887 0)
(0.992232 -0.000890073 0)
(1.00025 0.000344417 0)
(0.997746 0.0118581 5.15522e-21)
(1.29002 0.299663 1.90122e-21)
(1.0493 -0.0450329 1.11631e-20)
(1.03011 0.398651 -2.77071e-20)
(0.987871 0.0410847 0)
(1.00101 0.00674507 -1.17694e-20)
(1.0228 0.00935788 -9.58885e-22)
(0.956892 0.00476834 1.65564e-20)
(0.997948 0.00042493 7.14831e-21)
(1.06116 -0.00549081 1.68242e-20)
(0.97132 0.0302036 2.3556e-20)
(0.760512 -0.0938704 0)
(0.998859 0.00376401 0)
(1.00047 0.00159194 0)
(1.05181 0.140711 0)
(1.00543 0.0168528 0)
(1.04327 -0.0142041 1.03805e-20)
(0.893715 0.244257 1.11152e-20)
(1.0365 0.00571662 6.75168e-21)
(0.917626 0.673653 0)
(0.370853 -0.0987278 -1.79594e-19)
(0.996188 0.0321394 1.1944e-21)
(0.999625 0.01317 4.44023e-21)
(1.29693 -0.331282 0)
(-0.280761 0.0636473 0)
(0.993867 0.136114 2.0127e-21)
(1.02683 0.0114129 0)
(1.1258 -0.250435 0)
(0.774678 0.377009 0)
(0.926243 0.0246297 5.98548e-20)
(0.984055 0.0106007 1.26858e-20)
(1.00134 0.000926036 4.5892e-21)
(1.00212 0.00341801 5.79074e-21)
(1.07783 0.389423 1.03838e-19)
(1.04283 0.0125732 0)
(0.793411 0.272493 8.70671e-20)
(1.00001 0.000266777 6.08325e-21)
(-0.273424 0.117114 -4.90712e-19)
(1.37653 0.244356 -4.2573e-20)
(0.99413 0.00088187 -1.26655e-20)
(0.997393 0.00381233 2.15051e-21)
(0.679543 0.215676 0)
(0.999312 0.000256106 -1.29231e-20)
(1.0067 0.00437392 -3.14325e-21)
(1.00067 0.0696958 0)
(-0.026024 0.100311 -2.55737e-19)
(0.336877 -0.0627187 0)
(1.24348 -0.257178 0)
(1.03024 0.0012078 0)
(1.08484 -0.0383986 -5.1855e-20)
(1.01268 0.148216 -4.03126e-21)
(1.00959 0.00361696 -1.79147e-21)
(1.00553 0.000262741 4.71863e-21)
(0.999625 -0.000151952 0)
(1.08747 0.376154 -5.08914e-20)
(1.00007 0.000648523 -6.33251e-21)
(0.994289 0.00185453 0)
(1.08062 -0.0388314 5.88699e-20)
(0.979038 0.00647752 0)
(1.15669 0.0836833 2.89002e-20)
(1.00047 0.000452223 -5.00205e-21)
(0.998665 -0.000482382 -3.41992e-23)
(1.00762 0.000877392 -3.73064e-21)
(0.999195 -0.000577209 0)
(1.16126 -0.133637 4.61295e-20)
(1.00006 0.000727218 7.0894e-21)
(0.9993 0.0198835 1.68762e-22)
(1.0884 -0.000903559 0)
(0.944228 0.218846 -1.88384e-20)
(0.841628 0.487291 1.69524e-21)
(0.999974 0.0006534 -3.59476e-21)
(1.19807 0.0280005 0)
(0.217102 -0.465413 1.27555e-19)
(1.07218 -0.353389 0)
(0.970983 0.0376442 5.20114e-22)
(-0.0835592 0.0870144 0)
(-0.0762041 0.0481532 -2.68507e-19)
(0.993997 0.00762268 7.66092e-21)
(1.01154 0.00204092 -5.46899e-23)
(0.984175 0.0401805 0)
(0.954512 0.0253995 0)
(0.328802 -0.189848 -1.89259e-19)
(1.02091 0.0484532 -1.6217e-21)
(1.0003 0.00126124 -7.08217e-21)
(1.00005 0.000674146 5.22582e-23)
(0.466413 -0.431974 -1.51099e-19)
(0.98589 0.145428 0)
(1.02957 0.00106972 2.66568e-21)
(1.00025 0.00112132 -8.19289e-22)
(0.991832 4.45424e-06 8.29964e-21)
(1.08578 0.114977 -1.20531e-20)
(1.00627 0.0045745 2.9101e-21)
(1.00432 0.000407142 -4.08336e-21)
(1.0545 -0.00796073 0)
(0.988917 0.0448615 4.216e-22)
(0.999706 -0.000192713 0)
(1.01943 0.0134087 3.13629e-24)
(0.748654 0.614046 0)
(1.02303 0.01391 1.53011e-22)
(0.993001 0.0449167 -3.97674e-22)
(0.996783 -0.00169829 -1.38686e-20)
(0.998565 0.0385245 4.05459e-21)
(1.25138 0.135485 8.05229e-20)
(0.999981 0.000731568 3.93682e-21)
(0.979016 0.0445425 -1.11064e-20)
(0.997917 -0.00135619 9.44959e-22)
(1.04946 0.0156944 9.79454e-21)
(0.667013 0.539691 0)
(1 7.95192e-05 0)
(0.85302 0.466081 -6.76677e-21)
(1.03769 0.0592702 -4.00238e-21)
(0.371587 -0.131487 0)
(1.01082 0.000426973 1.40163e-21)
(1.02587 0.0454968 0)
(1.05279 -0.00765694 1.59851e-21)
(1.19907 0.0342969 1.11953e-19)
(0.794729 0.117989 -7.80757e-20)
(0.971173 0.0289442 -3.54739e-20)
(1.26801 0.337731 6.95606e-20)
(0.930032 -0.257615 0)
(0.966819 0.0175899 -1.74223e-20)
(1.00743 0.00048173 0)
(1.21763 -0.214891 4.02037e-20)
(0.998023 -0.00188891 7.30965e-21)
(1.00001 0.00041753 -6.68801e-21)
(1.00933 0.0109585 3.37473e-21)
(1.00002 0.000450579 0)
(1.12138 0.0146438 3.21556e-20)
(1 1.2255e-05 0)
(0.999995 9.26033e-05 0)
(0.881115 0.24052 0)
(1.01952 0.0884804 2.44267e-21)
(1.00914 8.70534e-05 -2.41777e-21)
(0.931342 0.100122 3.29774e-20)
(0.959545 0.0112178 1.3179e-20)
(1.04805 -0.118234 0)
(1.03886 0.0118167 0)
(0.835546 0.547416 -5.05314e-22)
(0.998277 0.0127419 0)
(1.06102 -0.0369042 -1.28595e-20)
(0.99282 0.143433 0)
(0.90114 -0.329681 0)
(1.04542 0.0197961 -1.5501e-20)
(-0.117483 0.0283255 7.01367e-20)
(1.00001 0.000275696 -6.18124e-21)
(1.03754 -0.00548638 2.11637e-21)
(1.00084 0.00137539 2.98608e-21)
(0.998012 0.0308949 1.20286e-20)
(0.989911 0.0136163 0)
(1.07051 -0.11082 -5.21752e-21)
(0.871608 0.124964 -1.56817e-20)
(1.0391 -0.0191282 0)
(-0.275201 0.015412 -6.09857e-20)
(1.00025 0.00137994 0)
(1.04226 0.900137 0)
(1.03634 -0.00661737 0)
(1.01567 0.0157441 -4.76055e-23)
(0.882679 0.0520378 -3.40531e-20)
(1.06971 0.0223898 -2.74067e-20)
(0.38871 -0.10521 0)
(0.997162 0.00389316 -2.23853e-21)
(0.951616 0.0816126 0)
(0.940772 0.206743 2.18013e-20)
(1.01756 0.0497218 -7.17349e-22)
(0.845536 0.11835 -7.66734e-20)
(1.00001 0.000134299 5.64455e-21)
(1.0108 0.0022115 1.84875e-21)
(1.00001 0.000122743 -5.67201e-21)
(0.986135 0.432967 2.11078e-20)
(0.999191 0.00048878 1.7303e-20)
(1.00066 0.00305331 2.64334e-21)
(1.00859 0.0104772 3.36845e-21)
(1.00688 0.0008105 -4.47311e-21)
(1.00041 0.00584266 7.07109e-23)
(0.999428 0.00432734 -8.78577e-24)
(1.01991 0.0307657 -1.18846e-21)
(1.00133 0.0109792 8.87002e-21)
(0.99929 9.10806e-05 0)
(0.964519 0.00525317 -1.36636e-20)
(1.00309 0.0717137 0)
(0.937047 0.0982756 -2.19412e-20)
(0.995401 -0.000661825 0)
(0.44788 -0.176882 -1.15403e-19)
(1.00073 0.0276018 -1.18796e-20)
(1.23277 0.371367 4.85085e-20)
(0.905683 0.129595 0)
(-0.0225855 0.144082 1.29726e-19)
(1.08852 0.0544829 -2.17223e-20)
(1.0372 -0.00503942 -7.86481e-22)
(-0.0832246 0.0248679 1.30814e-19)
(1.07586 0.00837927 1.61871e-20)
(1.01697 0.419455 -3.85745e-20)
(1.17124 -0.325525 -4.32038e-20)
(1.08607 0.108872 0)
(1.00004 0.000744824 0)
(1.00263 0.0096682 -6.13032e-21)
(1.00312 0.0474093 8.93801e-21)
(1.2622 0.129051 -9.15683e-20)
(1.00898 0.0237862 3.19334e-21)
(0.0934662 0.14541 3.12769e-19)
(1.00216 0.0220857 -8.39214e-21)
(1.08234 0.691584 0)
(0.884544 -0.306487 8.48348e-22)
(1.03803 -0.0187679 -8.88379e-23)
(1.03599 0.0167935 4.17421e-21)
(0.0876515 0.0731174 0)
(-0.231978 0.23223 -1.68998e-19)
(0.951182 0.00818829 -1.49285e-20)
(0.994985 0.000363778 0)
(0.999979 0.000115987 1.22184e-21)
(1.04149 0.00321895 6.74926e-21)
(1.01095 0.00213286 -1.70314e-21)
(1.00853 0.000787999 3.53417e-21)
(1.10627 0.15835 4.37239e-20)
(0.942212 0.023871 0)
(0.998026 -0.00151723 -6.88802e-21)
(1.00826 0.0234286 2.96112e-21)
(0.966366 0.0048055 1.29064e-20)
(1.20289 0.344025 0)
(1.03618 -0.0199395 0)
(0.999517 0.000741733 0)
(1.03581 0.0564098 -4.29319e-21)
(1.17264 -0.0234019 0)
(0.996029 0.040116 0)
(0.999532 0.00311006 -6.90495e-21)
(0.0470043 0.137063 -2.11953e-19)
(0.987318 0.033062 3.12169e-21)
(0.99493 0.0139661 2.23117e-21)
(0.917672 0.928954 0)
(0.997102 0.0601435 -4.36395e-22)
(0.982979 0.00301643 0)
(-0.102848 0.0892789 -2.65056e-19)
(0.433929 -0.222195 0)
(0.211811 0.0694578 -8.38324e-20)
(0.992097 0.00603844 -4.1552e-22)
(0.979365 0.0468989 -2.13767e-20)
(1.27083 -0.169913 0)
(1.00886 0.0109201 -7.03827e-21)
(1.01519 0.0210642 9.77355e-22)
(0.999995 0.000183342 0)
(1.03962 -0.0103556 5.60349e-21)
(0.997911 0.00107132 0)
(1.0005 0.000421087 7.09847e-21)
(1.03181 -0.00342496 -2.79378e-21)
(0.8049 0.0967936 4.58462e-20)
(0.911804 0.396055 0)
(1.00585 0.011461 0)
(0.985201 0.00739152 1.55168e-21)
(0.998027 -0.00226505 7.19767e-21)
(1.01475 0.0196475 6.05943e-22)
(0.985615 0.0388321 0)
(1.01018 0.00240002 -9.09301e-22)
(1.21363 -0.0639506 2.25628e-20)
(1.00355 0.0939764 1.16074e-21)
(0.992859 0.0231619 8.94001e-21)
(0.996156 0.00290237 1.76378e-20)
(1.00679 0.010749 -3.90736e-21)
(1.00126 0.00320663 0)
(1.02532 0.0288376 0)
(0.0184989 0.115123 2.34565e-19)
(1.05869 0.00522504 1.15173e-22)
(1.01901 0.00223546 0)