/*--------------------------------*- C++ -*----------------------------------*\
| =========                 |                                                 |
| \\      /  F ield         | OpenFOAM: The Open Source CFD Toolbox           |
|  \\    /   O peration     | Version:  v2012                                 |
|   \\  /    A nd           | Website:  www.openfoam.com                      |
|    \\/     M anipulation  |                                                 |
\*---------------------------------------------------------------------------*/
FoamFile
{
    version     2.0;
    format      ascii;
    class       volVectorField;
    location    "650";
    object      U;
}
// * * * * * * * * * * * * * * * * * * * * * * * * * * * * * * * * * * * * * //

dimensions      [0 1 -1 0 0 0 0];


internalField   nonuniform List<vector> 
9793
(
(0.961929 -0.0157075 1.36132e-20)
(-0.168042 -0.00539251 1.13856e-19)
(0.992226 -0.0067269 -1.64333e-22)
(-0.0409172 0.105903 8.7612e-20)
(0.999951 -0.000607561 0)
(1.23131 -0.0263966 0)
(1.12156 -0.232121 0)
(-0.107716 0.0496341 1.29511e-19)
(1.02133 -0.038219 -7.80471e-21)
(-0.0639413 -0.00217802 -1.11244e-19)
(1.00005 -0.00194666 8.01388e-21)
(1.00004 -0.00209663 -1.05341e-21)
(1.0021 -0.00923999 -9.73552e-23)
(-0.0777605 0.145078 -1.03471e-19)
(1.01993 -0.0226504 -2.99524e-21)
(1.06706 -0.00329668 -2.10971e-20)
(1.13966 -0.0699382 2.77307e-22)
(0.994448 -0.00899135 9.49352e-21)
(-0.0673827 -0.0684572 -2.11915e-19)
(1.01773 -0.00498429 -6.08208e-22)
(1.02348 -0.00977788 2.88695e-21)
(0.999993 -0.000150371 -8.04064e-23)
(-0.0411645 0.154969 -2.9727e-20)
(-0.097837 0.0471841 -1.05815e-19)
(-0.0519247 0.142939 6.26289e-20)
(0.921293 -0.0574021 1.5608e-20)
(1 -0.00359714 0)
(1.00002 -0.000510772 0)
(1.01758 -0.00526329 -3.75811e-22)
(1.1651 -0.140581 0)
(-0.30532 0.0184503 -2.53391e-19)
(1.26789 -0.0451902 -2.33573e-20)
(0.996425 -0.00356187 0)
(0.997206 -0.0091447 -3.56754e-21)
(1.00542 -0.00054665 1.92069e-22)
(1.08187 -0.0326304 2.77764e-20)
(1.06175 -0.00812785 -4.73241e-21)
(0.914802 0.0034155 3.89971e-20)
(-0.145241 0.0558877 -6.46309e-20)
(1.07967 -0.0734795 0)
(1.1549 -0.138026 0)
(1.00967 0.0422409 7.41147e-20)
(-0.108128 0.0226395 -8.37537e-20)
(1.00002 -0.000367035 -3.23858e-22)
(0.992244 -0.000359249 1.52822e-20)
(0.996593 4.56165e-05 -3.82064e-21)
(-0.242351 0.043214 -2.34694e-19)
(1.00002 -0.000334797 -9.70149e-23)
(1.03197 -0.00772065 -1.03147e-20)
(0.994205 -0.008472 7.81379e-21)
(1.08172 -0.0299016 -4.34221e-20)
(1.00582 -0.000674581 2.66997e-21)
(1.10572 -0.0472689 0)
(1.00001 -0.000659169 -7.55496e-21)
(0.903349 -0.119375 2.15847e-20)
(-0.0487625 0.101412 2.8021e-20)
(1.00242 -0.0083633 0)
(1.1515 0.0197319 5.58596e-20)
(1.03182 -0.00845245 -1.17715e-22)
(1.00001 -0.000180312 1.46714e-20)
(0.899989 -0.0159093 1.18235e-20)
(0.837053 -0.333081 1.63322e-20)
(0.993898 -0.00653101 -9.69053e-21)
(1.08915 -0.00506732 1.28756e-20)
(1.00292 -0.00127005 -3.54178e-21)
(1.0205 -0.0366283 4.60112e-21)
(-0.212221 0.0248453 -1.62238e-19)
(1.05385 -0.0468866 0)
(1.06299 -0.00558333 0)
(0.0396164 0.00706117 0)
(0.978588 -0.0106923 -1.48022e-20)
(0.584577 0.0282015 2.23963e-19)
(-0.150673 0.0570844 1.49456e-21)
(0.477747 0.223481 0)
(0.158926 0.0466323 -9.75925e-20)
(0.999985 -0.000792943 1.74664e-21)
(0.801704 -0.132503 9.27386e-20)
(0.817749 0.020576 2.0722e-19)
(0.994637 -0.0034849 5.22655e-21)
(0.999981 -0.00056454 8.96192e-21)
(0.785859 -0.134886 -9.60662e-20)
(-0.0686725 -0.0638414 6.043e-20)
(1.13447 -0.0646224 0)
(0.981022 -0.0700261 3.449e-21)
(1.06334 -0.00707151 -2.08576e-20)
(1.25675 -0.154027 2.71068e-19)
(0.999967 -0.000696749 -6.61796e-21)
(1.10711 0.0314161 5.15637e-20)
(-0.151818 0.064273 6.47544e-20)
(0.822082 -0.314223 3.67014e-20)
(-0.0568891 0.131633 -5.11577e-20)
(1.35686 -0.180291 1.88727e-19)
(1.35408 -0.192463 -8.65336e-20)
(1.09095 -0.121433 -2.44757e-20)
(-0.098972 0.00678338 0)
(0.996014 -0.0125571 -3.9221e-21)
(0.205511 0.0491891 0)
(1.13165 -0.0902439 -2.63064e-21)
(1.04235 -0.0667649 2.39162e-20)
(0.999968 -0.000509625 1.94508e-21)
(-0.128323 0.108005 -3.02201e-20)
(1.10173 -0.0479862 4.09849e-20)
(-0.093111 0.226724 1.03458e-20)
(0.992793 -0.00033952 -2.83864e-21)
(0.0607503 0.0875678 0)
(0.502826 0.0439889 -2.70894e-19)
(0.573202 0.189575 0)
(1.00464 -0.00722396 0)
(0.994635 -0.00307762 -2.08764e-20)
(0.999986 -0.000272064 -2.09606e-21)
(1.0001 -0.00102308 -2.07321e-22)
(-0.047758 0.14782 -2.72322e-20)
(0.0919289 -0.115167 -1.35154e-19)
(-0.296707 0.0115216 -9.78277e-20)
(0.979504 -0.0112825 3.21415e-20)
(0.999093 -0.00256831 1.64671e-20)
(1.05686 0.00206733 2.20745e-20)
(0.996918 -0.00082647 8.25875e-21)
(-0.0633935 0.0871359 1.13051e-19)
(0.996021 0.000557134 -1.34756e-21)
(-0.0249674 0.103969 9.40765e-20)
(1.11274 0.0340728 -5.52723e-20)
(0.405643 0.0637428 0)
(1.11446 -0.0267781 2.5497e-20)
(1.06202 -0.00986391 2.10608e-20)
(0.996228 0.000701651 0)
(1.14874 -0.0831883 0)
(-0.284643 0.0190559 1.63765e-19)
(1.10276 0.100366 0)
(1.09354 0.1023 0)
(1.05831 -0.0237567 -2.16292e-20)
(1.00697 -0.0149028 -1.29093e-21)
(0.963721 -0.0167896 2.74279e-20)
(1.04843 -0.042056 0)
(1.07713 -0.0348009 5.90159e-20)
(1.19766 -0.233611 0)
(1.24912 0.0248747 0)
(1.05752 0.000753358 -1.3295e-20)
(1.00001 -0.000592411 1.57917e-21)
(1.15286 -0.0572476 0)
(-0.0653418 -0.0546028 6.39508e-20)
(1.08031 -0.0344392 -2.88751e-20)
(0.984499 -0.0196628 0)
(1.10437 0.0172007 -3.54122e-20)
(-0.22853 0.0463492 0)
(1.14219 -0.45318 -1.73098e-19)
(0.996267 0.00131626 -1.93011e-20)
(0.183524 0.0481377 -6.5027e-20)
(1.00668 -0.015276 1.54571e-21)
(0.996085 0.00112587 2.16724e-20)
(0.999143 -0.00388032 9.35046e-21)
(0.112743 -0.0538272 -2.04337e-19)
(1.04009 -0.064107 -3.12951e-20)
(0.999928 -0.00359683 2.75801e-25)
(0.985317 -0.00312204 -1.9256e-20)
(1.35864 -0.228112 0)
(1.14615 -0.0671873 0)
(0.993931 -0.00712941 5.7332e-22)
(1.27926 -0.0404036 -5.93857e-20)
(0.984449 -0.0114486 -1.47464e-20)
(1.10819 0.0244998 -4.69501e-20)
(1.05962 -0.025426 1.83107e-20)
(1.02318 -0.0102534 -3.73093e-21)
(0.58476 -0.427314 9.33561e-20)
(1.03921 -0.0175421 3.7109e-22)
(1.04215 -0.00194412 0)
(-0.0742328 0.191639 -9.88434e-20)
(1.04149 -0.0213448 -1.73363e-20)
(1.00468 -0.00661424 0)
(1.00001 -0.00161182 -7.05821e-21)
(0.983486 -0.0191078 1.83741e-22)
(-0.221931 0.000620986 2.84877e-19)
(0.313009 -0.173559 0)
(-0.213388 0.162584 0)
(1.00236 -0.00967265 3.54972e-21)
(1.22279 -0.0245392 5.91161e-20)
(1.02415 -0.364092 0)
(0.550492 -0.526787 -8.8943e-20)
(0.994166 -0.00441045 0)
(1.05524 -0.0422961 1.13816e-20)
(0.123284 0.0977902 0)
(-0.2471 0.0402742 1.3417e-19)
(1.11189 0.0398371 6.32701e-20)
(0.996273 -2.21355e-05 -1.33375e-20)
(0.997548 -0.000435929 0)
(1.00487 -0.00702272 -2.67913e-22)
(0.535779 0.073221 0)
(-0.174479 0.0529456 -9.99051e-20)
(0.820326 -0.395709 -1.74429e-19)
(-0.087085 0.252072 0)
(1.01839 -0.0346864 7.23441e-22)
(-0.0953833 0.301823 0)
(0.39765 -0.152668 2.77834e-19)
(0.913044 -0.0198836 4.00672e-20)
(1.03409 -0.00534145 4.37389e-21)
(0.961435 -0.0503766 -2.50753e-20)
(0.177935 0.0941994 -2.77555e-19)
(1.01534 -0.00515282 -8.53199e-22)
(0.994222 -0.00942528 -6.1303e-21)
(0.999771 -0.00149285 -8.46032e-21)
(0.976137 -0.0110783 1.45367e-20)
(1.02568 -0.00889986 2.76813e-21)
(1.08441 -0.0252891 1.30887e-21)
(1.06679 -0.0193391 4.25052e-20)
(-0.078477 0.00785256 0)
(0.981995 -0.00203491 1.95162e-22)
(1.07015 -0.0678666 -1.38876e-20)
(1.04262 -0.0202727 9.87974e-21)
(0.969476 -0.0284702 -9.28776e-21)
(0.803292 -0.56392 3.15669e-22)
(1.1469 -0.0585544 4.98633e-20)
(-0.0652067 -0.0509304 -1.27207e-19)
(1.01359 -0.00485489 6.23358e-22)
(0.00858557 -0.00374308 5.33523e-20)
(0.976617 -0.0701799 -4.64131e-21)
(1.07184 0.00998543 0)
(1.01996 -0.0236325 -3.23738e-21)
(1.20151 -0.221124 3.63406e-20)
(0.999189 -0.00242839 5.26322e-21)
(0.741285 -0.0524019 -5.29512e-20)
(1.13824 -0.0903376 -5.37053e-20)
(1.02558 -0.0093862 -2.24793e-21)
(0.366381 0.452413 0)
(-0.218731 0.221682 1.6359e-21)
(1.08388 -0.120637 0)
(0.995247 -0.0144982 8.39968e-21)
(1.1273 -0.0203341 3.28716e-20)
(-0.184155 0.261153 -1.71313e-19)
(0.756465 -0.0804045 -2.51853e-20)
(0.753978 -0.0911085 -7.81107e-21)
(-0.0914615 0.0520006 -8.87241e-20)
(1.11022 0.0761328 9.37606e-20)
(1.07229 0.0101604 0)
(1.09135 -0.00334102 -3.22316e-20)
(0.403742 -0.12832 -1.66637e-19)
(1.02824 -0.00379667 -1.77368e-21)
(-0.123488 0.201368 5.34559e-20)
(-0.276204 0.00951025 1.65716e-19)
(1.01501 -0.00498939 0)
(0.999828 -0.0011113 0)
(1.09909 0.0404901 0)
(0.987992 -0.0143892 6.81292e-21)
(1.00008 -0.000954064 4.13215e-21)
(1.1505 0.0368508 -5.5078e-20)
(1.1638 0.0339116 -1.8989e-19)
(1.01878 -0.0364557 3.09261e-21)
(1.0572 -0.0413912 1.41127e-20)
(1.07391 -0.0686505 2.88598e-20)
(0.949035 -0.172654 1.92779e-20)
(1.05945 -0.0348844 0)
(0.994154 -0.00392412 1.46222e-20)
(1.06769 -0.165118 5.49276e-20)
(-0.0371614 -0.00689693 0)
(1.02469 -0.00942729 3.48342e-21)
(-0.218789 0.186785 -1.25366e-19)
(1.00003 -0.000793368 -6.7523e-21)
(1.00001 -0.00241251 -9.41584e-22)
(1.01188 -0.000918621 -1.38374e-22)
(-0.0527925 0.090722 -2.75054e-20)
(0.993623 0.00114116 -1.2613e-20)
(1.37609 -0.222036 1.30835e-21)
(0.0114907 0.0272723 9.33077e-20)
(1.00065 -0.00281475 -8.64685e-21)
(0.999317 -0.00243926 -5.52385e-21)
(1.36499 -0.112997 -2.37395e-19)
(1.0118 -0.000569492 -5.10107e-23)
(0.999938 -0.00110557 0)
(1.01242 -0.000535252 0)
(-0.0117873 0.0186236 -5.4898e-20)
(0.587257 -0.391142 1.37084e-19)
(0.934394 -0.0528818 0)
(0.903422 -0.519676 9.05931e-22)
(1.15379 0.00910578 3.13518e-20)
(-0.101737 0.224665 0)
(-0.0482743 0.192286 0)
(1.04234 -0.0228785 1.80684e-20)
(-0.0978508 -0.217055 -2.73129e-19)
(1.00001 -0.000747611 8.83196e-23)
(-0.159153 0.25244 1.69912e-19)
(0.382739 -1.18042 1.15466e-19)
(-0.178066 0.100021 -1.32472e-19)
(-0.00485148 0.0945066 -1.14549e-19)
(1.11552 0.0724034 -9.8509e-20)
(1.05906 -0.021747 0)
(1.1284 -0.066692 4.71778e-21)
(1.06487 -0.0199164 -1.43599e-20)
(1.03498 -0.00404939 0)
(1.04546 -0.0156057 8.85772e-21)
(0.832185 -0.532981 -8.38765e-21)
(0.917763 -0.0604073 2.04796e-20)
(0.999389 -0.00229968 -6.42224e-21)
(1 -0.000118529 4.94894e-21)
(1.01393 -0.00503723 0)
(1.01669 -0.000122608 0)
(1.02443 -0.00989912 -3.67718e-21)
(-0.0557995 0.171659 0)
(1.00475 -0.00834227 -6.05091e-21)
(1.01794 -0.0222525 2.352e-22)
(1.0165 -0.000193204 0)
(1.00239 -0.00877912 -2.24908e-22)
(-0.0233285 -0.0567958 1.02305e-19)
(1.15777 -0.440707 5.99167e-20)
(0.685698 0.0699074 3.96207e-21)
(0.946966 -0.0134325 4.63283e-20)
(1.10832 0.0153398 -4.16216e-20)
(1.0158 -0.00011662 6.01827e-22)
(0.850238 0.121833 -7.52253e-21)
(0.0161826 -0.026445 2.369e-19)
(0.993089 0.000260634 0)
(0.055171 0.0296989 0)
(1.08902 -0.0106838 -5.18838e-20)
(0.991907 -0.000829599 -1.65512e-20)
(-0.0941797 0.000516722 -6.73329e-20)
(0.759883 0.157249 0)
(0.996739 -0.00364441 1.00851e-21)
(1.06813 -0.172813 1.72923e-20)
(0.370656 1.02817 -7.27575e-20)
(0.974752 -0.0262571 1.12673e-20)
(0.832654 0.0201802 0)
(1.01902 -0.0219965 4.17848e-21)
(0.969702 -0.0241951 1.78142e-20)
(-0.0712961 0.223768 4.84713e-20)
(0.899152 -0.174316 -3.20407e-20)
(0.997287 -0.00855939 -3.2417e-21)
(0.995845 -0.000574286 0)
(0.949672 -0.0128111 2.45175e-20)
(1.08914 -0.367091 5.76441e-20)
(0.0919029 -0.20298 5.02175e-21)
(0.99217 -0.00605553 1.25809e-20)
(1.00479 -0.00762844 0)
(1.02871 -0.015191 -1.44177e-21)
(-0.230639 0.00217306 -3.36874e-19)
(-0.110359 -0.112435 3.6348e-21)
(-0.0539047 -0.0153613 1.18788e-19)
(1.02746 -0.00465923 4.87908e-21)
(0.900678 -0.186923 -2.07651e-20)
(0.82783 0.0292454 0)
(0.846982 -0.740412 3.2327e-20)
(1.14957 -0.00714555 2.42696e-21)
(1.02882 -0.0015185 6.12874e-22)
(1.03049 -0.00358584 -3.7564e-22)
(1.02802 -0.0155672 1.596e-21)
(1.12415 -0.0622484 4.51198e-21)
(0.989997 -0.0354958 -5.05647e-22)
(-0.00454745 0.0133784 -3.3495e-20)
(0.998274 -0.00208138 1.82645e-20)
(1.00892 -0.0145327 -5.17893e-21)
(-0.149358 0.296462 -4.58494e-20)
(-0.0628343 0.172259 7.51441e-20)
(-0.0178778 -0.00560075 0)
(1.01643 -0.000119271 -1.49973e-21)
(-0.126321 0.101189 0)
(0.982699 -0.0804075 0)
(0.232712 -0.659739 -1.86556e-20)
(-0.0276494 0.01876 1.0285e-19)
(-0.0837344 0.04456 0)
(0.99318 -0.0682173 0)
(1.08206 -0.0765834 -3.9042e-20)
(1.25433 0.0196389 -8.75871e-20)
(-0.0616841 0.134762 -2.5444e-20)
(-0.0497833 0.137165 0)
(0.901336 0.0206743 1.86673e-20)
(1.00003 -0.000576926 -4.78567e-21)
(0.929651 -0.0525761 1.54693e-20)
(1.03121 -0.00638496 -3.37351e-21)
(1.00539 -0.00830251 0)
(0.989492 -0.033684 0)
(1.00012 -0.00395348 2.07725e-21)
(1 -4.69971e-05 0)
(0.055163 0.00617341 0)
(1.00002 -0.00183451 -7.70335e-21)
(1.14961 -0.0976893 1.61838e-21)
(1.08055 -0.0655411 0)
(1.05538 0.106897 0)
(1.02875 -0.00100919 4.84091e-21)
(0.98288 -0.0732027 2.97822e-21)
(-0.0210667 0.0515408 5.62625e-20)
(0.358596 -0.0269736 1.5666e-19)
(-0.0884766 0.163377 8.07912e-20)
(1.14515 -0.0100563 4.84857e-20)
(1.0086 -0.0138256 1.55574e-21)
(0.995348 -0.0705862 8.05805e-21)
(0.992796 -0.00687584 -1.02605e-20)
(1.22663 -0.331186 3.10892e-20)
(1.01419 -0.00154887 4.45349e-22)
(-0.0222632 -0.00184323 -9.00409e-20)
(0.969075 -0.40865 -9.43202e-21)
(1.11122 -0.240091 2.10047e-20)
(-0.107643 -0.00661447 0)
(-0.0621233 0.221485 0)
(1.00052 -0.00231778 0)
(0.996428 -0.0145201 -4.14287e-21)
(1.25936 0.0312325 -1.1985e-20)
(1.23525 -0.315987 0)
(0.982369 -0.00117039 -1.19303e-20)
(-0.0898859 0.0200777 0)
(1.00054 -0.00245313 0)
(0.999687 -0.00191407 0)
(0.503374 -0.86899 -7.24787e-22)
(1.0136 -0.00463292 -4.198e-22)
(1.15629 0.0151265 -6.17225e-20)
(1.02823 -0.00446174 -1.07941e-20)
(-0.0467032 0.184563 5.58586e-20)
(0.998479 -0.00210414 -1.7382e-20)
(1.03975 -0.0165751 8.16961e-21)
(-0.149921 0.276218 3.98989e-20)
(0.609012 0.0284179 -7.30841e-20)
(1.06918 0.0146277 -1.05274e-20)
(0.912795 -0.0242846 -2.11134e-20)
(1.00083 -0.00314029 1.62625e-21)
(1.00137 -0.0198975 3.76979e-21)
(0.332939 0.0587438 9.97332e-20)
(1.12824 -0.0974291 -3.98857e-20)
(1.02425 -0.00602336 0)
(0.999631 -0.00122319 -1.08118e-20)
(0.893919 -0.117738 0)
(0.832359 0.0478313 -2.94517e-20)
(1.06828 0.0127616 -8.33251e-21)
(-0.231574 0.0425442 0)
(0.999704 -0.00151461 1.01227e-20)
(0.996826 -0.00946806 1.4126e-20)
(0.658931 -0.472254 9.09495e-20)
(1.00089 -0.00308761 -7.79599e-21)
(-0.0438965 0.00299997 3.47198e-20)
(0.597576 -0.52212 5.5248e-20)
(0.99729 -0.000464886 8.76913e-21)
(0.997005 -0.00413837 7.54041e-21)
(1.04433 -0.0162466 -5.66178e-21)
(1.00064 -0.0026614 2.93692e-21)
(1.0284 -0.0140179 1.53254e-20)
(-0.13615 0.1087 1.08797e-19)
(0.73908 -0.0672346 3.0519e-20)
(1.33907 -0.10646 9.10696e-20)
(0.884251 0.0341423 -3.74953e-20)
(1.0542 -0.00620897 0)
(1.1152 -0.0307341 0)
(0.918839 0.00414825 0)
(-0.0698787 0.0938129 -1.30655e-19)
(0.903875 -0.0197192 0)
(0.999979 -0.000494574 0)
(1.05572 -0.0455522 0)
(1.16349 -0.409385 -5.63959e-20)
(0.980825 -0.0138261 0)
(0.983412 -0.0114748 4.18067e-22)
(0.977136 -0.0102533 1.43088e-20)
(1.01393 -0.00149053 1.80661e-22)
(0.998906 -0.00676018 0)
(1.01568 -0.0241763 1.01997e-21)
(0.996719 -0.000594579 0)
(1.0004 -0.00201204 -6.01198e-21)
(0.971271 -0.049006 0)
(1.06433 -0.0223964 4.48971e-20)
(1.1464 0.0407475 0)
(1.0151 -0.0003252 0)
(0.214544 0.117559 2.91647e-19)
(0.922371 -0.0466459 0)
(0.98018 -0.435701 8.5893e-21)
(-0.0544026 0.205693 0)
(1.03511 -0.00491075 -8.2051e-21)
(-0.115932 0.302181 -4.1363e-20)
(1.11936 -0.219016 2.42581e-20)
(1.03408 -0.00620084 0)
(1.01412 -0.00209869 0)
(0.985151 -0.0218632 -5.0523e-21)
(0.0509446 0.153503 -3.95012e-22)
(1.15791 0.00442831 -6.7072e-20)
(1.01429 -0.00197461 0)
(0.998728 -0.00131763 -6.70248e-21)
(0.999773 -0.00160882 0)
(0.707471 0.125922 0)
(1.01524 -0.389789 8.04561e-21)
(0.702935 0.031405 0)
(1.00269 -0.00123408 3.7077e-21)
(0.985461 -0.00233427 1.37e-20)
(0.860306 -0.0397012 0)
(-0.258807 0.0380905 1.37889e-19)
(-0.171789 0.096456 2.11423e-19)
(0.936797 -0.0257691 -5.11512e-20)
(1.05442 -0.0193787 1.17351e-21)
(-0.219 0.198685 -6.4635e-20)
(1.10658 -0.00108374 9.21608e-20)
(1.18085 0.0710388 1.8109e-21)
(0.977208 -0.0311527 2.10125e-20)
(1.00792 -0.0147713 2.40792e-21)
(-0.0874552 0.00990039 -4.8187e-20)
(0.994506 -0.0119591 0)
(1.0478 -0.358777 0)
(1.0209 0.0907799 -5.52166e-20)
(1.0238 -0.00558096 0)
(0.620191 -0.379053 -1.09901e-19)
(1.0659 -0.0629693 2.09649e-20)
(-0.103248 0.106889 -1.38962e-21)
(1.00165 -0.0193031 2.17213e-22)
(-0.0684435 -0.0519309 7.16013e-21)
(1.26469 -0.0862419 0)
(1.06602 -0.00467316 1.10143e-20)
(1.37139 -0.103836 0)
(0.995537 -0.0121686 8.87272e-21)
(0.877441 -0.692096 1.29262e-21)
(0.998291 -0.00163667 6.1256e-21)
(0.997522 -0.0144685 -9.74875e-22)
(1.00002 -0.00150944 7.44093e-21)
(0.9946 -0.00775273 1.18167e-21)
(0.0899437 0.0383844 1.75137e-19)
(0.995915 -0.0132908 -1.32712e-20)
(1.03066 -0.00928951 1.39455e-22)
(0.94978 -0.0196002 0)
(1.02734 -0.00527322 4.44385e-21)
(1.00762 -0.0151749 -4.93667e-21)
(1.05515 -0.187043 -3.85937e-21)
(0.984079 -0.0544935 1.10663e-20)
(1.09089 -0.00867427 7.35042e-20)
(1.00158 -0.00355679 -3.6986e-21)
(1.00145 -0.0034295 3.0686e-21)
(-0.0267186 0.0439739 4.54931e-20)
(0.646559 0.0341595 -1.39096e-19)
(0.939452 -0.0251177 1.32755e-20)
(-0.214398 0.173877 1.07026e-19)
(1.06231 -0.0228557 -2.66058e-20)
(0.98467 -0.0377089 0)
(0.993884 0.00154956 -6.70429e-21)
(1.02907 -0.013718 -3.69686e-21)
(0.0298514 -0.0211265 -1.89357e-23)
(1.03075 -0.00858036 -1.98721e-22)
(1.00138 -0.000513562 0)
(-0.299893 0.0270371 -8.32638e-22)
(1.07233 0.0328782 9.59147e-20)
(0.961091 -0.174522 -2.02938e-20)
(1.00211 -0.0088454 0)
(0.999991 -0.000292775 -8.40063e-21)
(1.03432 -0.0285242 0)
(0.999981 -0.00118125 0)
(-0.212841 0.187829 0)
(0.972829 -0.0263139 0)
(-0.0145085 0.2691 7.75192e-20)
(1.0602 -0.0125601 0)
(0.308143 0.440342 1.13033e-19)
(0.999973 -0.000707968 8.9483e-21)
(-0.302903 0.0295498 -2.14157e-19)
(1.00829 -0.000322149 0)
(1.10841 -0.379769 -6.23831e-20)
(0.993554 -0.0110411 -6.26922e-21)
(1.0709 0.0462917 3.24328e-20)
(-0.0255608 -0.00902039 -1.71933e-19)
(0.998483 -0.00158016 0)
(0.754565 0.0638837 1.69958e-19)
(0.990282 -0.0133437 6.38104e-21)
(1.00016 -0.000127474 0)
(1.02295 -0.00910372 0)
(0.285144 0.100106 0)
(-0.0736898 0.0147828 0)
(0.984165 -0.0211438 0)
(1.06932 -0.06405 -1.21142e-20)
(1.03106 -0.00711383 0)
(-0.219383 0.210203 -6.58651e-20)
(1.0156 -0.000408009 0)
(1.07412 -0.162169 -3.14897e-20)
(-0.0710849 -0.0442095 0)
(0.912265 0.00680266 -5.31695e-20)
(1.00183 -0.00089925 0)
(0.812879 -0.146016 -3.28582e-20)
(1.00011 -0.000600796 0)
(1.03574 -0.0285025 0)
(1.02767 -0.0171451 -3.2058e-21)
(1.13917 0.0397404 -5.26214e-20)
(1.003 -0.00350765 2.42284e-21)
(-0.215678 0.224955 1.31245e-19)
(1.0013 -0.00339593 0)
(0.992747 -0.0375566 0)
(1.08857 0.00416747 -1.65883e-20)
(0.773817 -0.250973 -5.65013e-21)
(1.2406 0.0762631 7.46068e-20)
(1.01727 -0.0212209 -5.93189e-22)
(-0.284664 0.0282244 1.64708e-19)
(0.996915 -0.0149361 0)
(1.03437 -0.409456 -2.21222e-20)
(0.986901 -0.00758893 -1.07124e-20)
(1.04191 -0.0188645 0)
(0.994868 -0.0124383 -8.29865e-21)
(1.00124 -0.00342899 0)
(0.999972 -0.000568315 0)
(1.02967 -0.43005 -1.39541e-20)
(1.07307 0.0104462 -1.27122e-20)
(0.684785 0.0612291 -9.55736e-20)
(1.20169 -0.100616 -5.88799e-20)
(0.837419 -0.0610087 0)
(0.914712 -0.134418 -2.99421e-20)
(0.571449 -0.839803 6.90669e-22)
(1.05074 -0.0429769 0)
(-0.208123 0.179917 -7.78408e-20)
(-0.124306 -0.0520137 0)
(1.10705 -0.402838 2.15707e-21)
(1.16995 -0.151374 7.92703e-20)
(1.14729 0.0864667 4.90989e-20)
(1.06587 -0.376727 -5.62853e-21)
(1.03645 -0.0278128 -1.37251e-20)
(0.0619058 -0.175879 6.20128e-20)
(1.08664 0.00537159 2.74074e-20)
(1.04017 -0.0187451 -3.28334e-21)
(1.127 -0.414504 -2.69082e-20)
(1.00007 -0.000539814 -4.01458e-22)
(0.876841 -0.545284 3.03357e-22)
(0.966832 -0.161127 -1.20903e-20)
(1.20614 0.0320872 0)
(0.888593 0.0249427 -1.03824e-20)
(-0.0645801 0.164221 -6.9644e-20)
(-0.166353 0.0146603 -1.66995e-19)
(1.08796 0.000960353 0)
(1.19971 0.0312425 0)
(0.999804 -0.0012355 -1.22711e-21)
(1.05834 -0.525333 0)
(0.947073 0.0112026 0)
(0.993845 -0.0105649 1.32178e-20)
(0.987664 -0.0331633 0)
(1.05309 0.00131945 0)
(1.12125 -0.0966561 0)
(-0.100614 0.0502086 1.55901e-19)
(0.894709 -0.478664 4.35872e-22)
(-0.186994 0.0554314 8.002e-20)
(1.04659 -0.043832 0)
(0.96062 -0.0529445 -1.69411e-20)
(-0.104586 0.110991 -3.96272e-20)
(0.417554 0.108182 -2.72924e-19)
(1.05208 -0.0212236 -1.67808e-20)
(1.14292 -0.0202611 -5.05754e-20)
(0.968137 -0.0296469 4.03218e-22)
(0.250063 -0.771342 -1.91612e-20)
(-0.130648 0.284731 -8.77564e-20)
(0.997204 -0.00074018 -8.57053e-21)
(0.689655 0.0830341 0)
(0.682272 -0.432445 -7.22403e-20)
(-0.16273 -0.0125596 1.39865e-19)
(1.00302 -0.00112899 1.67354e-21)
(0.927256 -0.0585835 0)
(0.296162 0.0569888 0)
(1.0814 -0.0240159 2.52211e-20)
(0.641074 0.0761013 3.53481e-20)
(1.07622 0.0495798 0)
(1.08277 0.111363 3.42531e-20)
(0.95287 -0.077973 1.99237e-20)
(1.0513 -0.0458304 -2.5333e-21)
(1.02043 -0.0301593 -3.50621e-21)
(0.985977 -0.00363824 1.83055e-20)
(1.08191 0.12428 -1.00356e-19)
(1 -0.000332898 -8.91762e-21)
(1.09145 0.131675 1.32351e-20)
(1.21497 -0.0739228 6.12964e-20)
(1.08237 -0.257937 -1.4667e-20)
(1.00004 -0.000264161 1.32937e-21)
(1.00015 -0.00108368 0)
(1.05534 -0.00385327 0)
(1.04093 -0.00182554 0)
(1.0059 -0.00101975 0)
(0.987473 -0.0134946 -7.79236e-21)
(1.19311 -0.102407 6.99971e-20)
(0.076351 0.169008 0)
(-0.0353481 0.138357 0)
(1.00002 -0.00035423 0)
(1.20609 -0.337997 0)
(1.00173 -0.00762359 0)
(-0.129133 -0.0742336 5.7579e-20)
(1.1057 0.00187268 4.04303e-20)
(0.785697 -0.0984211 2.35741e-21)
(0.835309 0.03836 0)
(1.26112 -0.0777081 0)
(1.00915 -0.00525367 0)
(0.999075 -0.00411629 -5.90222e-21)
(0.827951 -0.142787 0)
(0.993824 -0.0118893 -1.11204e-20)
(1.03295 -0.0278703 -1.00955e-20)
(1.14765 -0.0445057 1.27859e-19)
(-0.0963748 0.125491 6.18668e-20)
(1.0262 -0.00873239 0)
(1.09366 0.11693 0)
(-0.169566 0.0819003 1.04676e-19)
(1.06074 -0.0369068 8.25691e-21)
(-0.122647 0.239765 0)
(-0.164779 0.0765342 0)
(1.01616 -0.025287 -1.09383e-21)
(1.14104 -0.0823283 0)
(1.06873 -0.0031861 0)
(1.01703 -0.0343898 -8.52303e-22)
(1.02216 -0.00905872 -2.74354e-21)
(0.624023 -0.134724 1.11114e-19)
(-0.178196 0.0942934 -2.65383e-20)
(-0.149727 0.063843 0)
(0.979824 -0.0148255 0)
(0.995606 -0.000314159 -7.06877e-22)
(1.01978 -0.0120184 0)
(1.05781 0.00479985 -1.88599e-20)
(0.987075 -0.0542473 0)
(0.975225 -0.0663534 3.26779e-20)
(0.510112 0.423853 -1.19607e-19)
(1.1029 0.00415342 -3.60759e-20)
(1.00043 -0.00214272 6.54392e-21)
(1.25075 -0.0148677 -8.6483e-20)
(1.08468 -0.0280445 0)
(0.847569 -0.0630221 -1.07689e-20)
(1.033 -0.0264615 9.77485e-21)
(-0.348139 0.0177461 6.62744e-21)
(1.05767 -0.0203718 0)
(1.00388 -0.00268197 -2.61061e-21)
(1.09384 -0.255266 1.90033e-20)
(0.149767 0.103264 1.95091e-19)
(1.02506 -0.00608833 1.82687e-21)
(0.996817 -0.000258928 0)
(0.993366 -0.00634052 9.8631e-21)
(1.06423 -0.00427509 1.07835e-20)
(1.00921 -0.00496009 1.1664e-22)
(1.09025 -0.000366878 -3.14591e-20)
(1.26233 0.0062744 2.78599e-21)
(0.995119 -0.0409689 1.86682e-20)
(1.13593 0.0430619 3.01003e-20)
(1.05035 -0.0213642 0)
(1.03152 -0.0254557 -6.23243e-22)
(1.23806 0.0716164 -7.8693e-20)
(-0.0917395 -0.0782539 1.009e-19)
(1.16564 0.10689 0)
(0.999285 -0.00390592 -2.66524e-21)
(1.02622 -0.00590619 -5.14195e-21)
(0.781306 0.213394 0)
(0.909134 -0.0169821 -4.656e-20)
(1.07834 0.168686 -4.46301e-20)
(1.02472 -0.00486807 3.23916e-21)
(0.989443 -0.0133315 -8.79039e-22)
(-0.284775 0.0106405 -8.44161e-20)
(-0.0467767 0.249303 -6.1392e-20)
(1.0752 -0.0737663 0)
(1.15332 0.0260342 0)
(0.692595 0.0224211 3.6898e-20)
(0.995782 -0.0149911 4.49185e-21)
(1.00002 -0.000226402 -5.42691e-21)
(1.01366 -0.0336382 3.01568e-22)
(-0.0949977 -0.0290086 -4.95035e-20)
(1.0015 -0.000629818 -4.1988e-21)
(0.999996 -5.68507e-05 0)
(-0.0686901 0.128736 -9.79742e-20)
(0.893709 0.0252847 0)
(1.2664 -0.147309 -2.66382e-19)
(0.842299 0.0206115 0)
(1.0022 -0.00798442 -3.72821e-21)
(-0.0810188 -0.0800932 -1.59977e-19)
(1.00002 -0.000649195 1.51256e-20)
(0.988484 -0.00940504 -9.25406e-22)
(1.01248 -0.0330754 0)
(0.926068 -0.112178 4.82867e-20)
(-0.0310712 0.0936856 0)
(1.00008 -0.00253792 4.68026e-21)
(0.993121 0.00113218 0)
(0.993482 -0.0123212 1.22812e-20)
(0.995298 -0.0136513 8.70301e-21)
(1.00193 -0.00799095 0)
(1.02021 -0.0312172 0)
(1.07395 -0.140552 -1.82298e-19)
(0.919226 -0.11708 -3.81916e-20)
(0.971121 -0.0458939 0)
(1.00018 -0.00338852 0)
(0.910595 -0.112429 0)
(1.15253 -0.0786456 0)
(1.06633 -0.00181064 0)
(0.884224 0.0296217 8.17108e-20)
(1 -0.000103665 0)
(1.01975 -0.0114439 -1.93715e-21)
(1.00561 -0.0649121 5.60375e-22)
(-0.0553736 0.0030386 0)
(0.0291474 0.175507 1.27077e-19)
(1.05272 -0.00543344 0)
(-0.163677 0.0594221 -7.56314e-20)
(0.999776 -0.00112921 1.28482e-21)
(0.952435 -0.0728154 4.21604e-20)
(1.32557 -0.313078 9.04031e-20)
(0.153968 -0.167696 0)
(1.02133 -0.0213111 3.87898e-21)
(1.00001 -0.00221595 9.74852e-21)
(0.429845 0.205404 0)
(1.12603 -0.0170493 0)
(1.00412 -0.00275753 4.76145e-21)
(0.999949 -0.000953533 0)
(-0.208651 0.213824 -6.37866e-20)
(1.00003 -0.000164971 0)
(1.14795 -0.147173 -6.09784e-20)
(0.996712 -0.00406947 4.9472e-22)
(0.350247 0.010922 -1.47445e-19)
(0.99996 -0.00101515 9.16818e-21)
(1.00914 -0.000201056 5.52884e-22)
(0.998859 -0.00145996 6.66281e-21)
(1.05686 -0.0986387 0)
(1.03995 -0.00137992 0)
(0.936464 -0.047519 0)
(0.90511 0.0181825 -3.62065e-20)
(0.538092 0.0977892 2.91406e-19)
(1.00462 -0.00856356 -1.89456e-21)
(0.999134 -0.00662779 -4.03127e-21)
(1.00007 -0.000361928 -1.40156e-21)
(0.997921 -0.0148761 0)
(1.03715 -0.0255649 0)
(1.03835 -0.0105485 -7.15338e-24)
(1.0822 -0.069574 0)
(0.998551 -0.00133441 0)
(1.11368 0.00480502 0)
(-0.0598273 0.1628 -7.36128e-20)
(1.11863 -0.0636891 8.3859e-21)
(1.15359 -0.0468804 -5.43105e-20)
(0.999725 -0.00138171 1.16439e-20)
(1.02836 -0.0166902 3.92289e-21)
(-0.272779 0.00881354 1.78004e-19)
(0.375533 0.277721 1.16544e-19)
(1.02185 -0.00842101 2.8468e-21)
(-0.147584 0.235965 5.57021e-20)
(-0.306192 0.0190978 -1.72151e-19)
(1.02646 -0.00626462 6.20327e-21)
(0.992844 0.000688388 2.12653e-22)
(1.00146 -0.013154 1.08148e-20)
(1.14546 -0.217481 0)
(1.1126 0.0083653 -8.38932e-21)
(0.134652 -0.126779 4.0204e-19)
(1.00517 -0.00856563 2.48792e-21)
(1.02305 -0.0815548 -2.71641e-21)
(1.00538 -0.00631619 -3.76854e-21)
(0.968621 -0.025706 4.28874e-20)
(1.00837 -0.000284223 0)
(1.06538 -0.280517 2.64829e-20)
(1.0375 -0.0244641 2.92763e-22)
(1.25379 -0.165075 0)
(0.999507 -0.00353091 -5.50069e-21)
(0.927329 -0.25418 -1.10469e-20)
(1.00395 -0.00781976 2.53294e-21)
(0.964853 -0.0493688 2.2346e-20)
(0.986889 -0.00955117 2.77575e-20)
(1.07358 0.00931721 1.49408e-20)
(0.722522 0.126805 -5.42544e-20)
(-0.288398 0.0263502 1.41841e-19)
(0.0902051 0.159247 5.07222e-20)
(-0.175564 0.243125 0)
(1.12336 -0.0237357 0)
(0.989042 -0.0143359 -6.00268e-21)
(0.58677 -0.78142 3.09614e-20)
(0.0737139 -0.139395 -1.01921e-19)
(1.11824 0.0153575 2.62511e-20)
(1.03511 -0.0230201 -8.78678e-21)
(1.00003 -0.00388189 -4.88509e-21)
(0.167373 0.221627 -1.54519e-19)
(1.00173 -0.013676 -1.07004e-20)
(-0.0343463 0.10128 0)
(1.02896 -0.00348943 -2.74278e-21)
(1.07852 -0.0089178 2.63925e-20)
(1.0399 -0.0238785 2.50778e-20)
(0.99995 -0.00035278 0)
(1.02119 -0.0223497 -1.6322e-21)
(0.951822 0.0557743 -1.38241e-21)
(-0.0731701 -0.0238601 0)
(-0.0365762 0.114319 -1.46058e-19)
(0.663634 0.0412092 8.79517e-20)
(-0.235395 0.00403257 1.04357e-20)
(0.994469 -0.0072336 0)
(-0.0630158 0.161809 0)
(0.429166 0.0429041 1.31314e-19)
(1.00002 -0.000116247 -1.05362e-20)
(0.991995 -0.0358529 -6.76283e-21)
(1.01052 -0.00688026 -5.88217e-22)
(1.1884 0.103442 -3.49599e-20)
(1.02307 -0.00563226 -3.8287e-22)
(-0.110611 0.0669705 2.61587e-19)
(0.852634 -0.0457647 4.71189e-20)
(1.20831 -0.0305004 -2.59313e-20)
(1.00684 -0.0444084 0)
(1.27485 -0.350458 -7.63234e-20)
(-0.205035 0.0384013 0)
(0.168642 0.0189629 0)
(0.940669 -0.109976 -1.2107e-20)
(1.0901 -0.0577653 -3.5949e-20)
(1.00168 -0.000932145 1.31643e-21)
(0.440431 -0.143769 0)
(1.02426 -0.0039682 8.52841e-22)
(0.39917 0.29871 0)
(1.23707 -0.0220621 -1.0213e-19)
(0.815338 -0.251633 -3.70721e-20)
(0.587799 0.0563137 5.57161e-20)
(0.0580241 0.0165877 -1.22463e-19)
(1.05704 -0.0350037 -2.96432e-20)
(1.01137 -0.0644386 7.77577e-22)
(1.00311 -0.00380916 2.98448e-22)
(1.05913 0.0461883 1.17592e-20)
(-0.0999891 0.0581738 -1.37446e-21)
(-0.184712 -0.00496946 1.31963e-22)
(1.00978 -0.00653201 0)
(0.208921 0.60007 -6.64907e-21)
(1.0646 -0.00152836 -2.02662e-20)
(1.15836 0.039003 0)
(0.564026 0.101866 -9.12787e-20)
(-0.101065 0.127715 2.71588e-20)
(-0.0911026 0.13091 9.81013e-20)
(1.03047 -0.00289051 -6.17713e-21)
(0.919388 -0.0502582 0)
(1.0865 -0.0205561 -1.26263e-21)
(1.06032 -0.010962 0)
(1.05666 -0.00302866 -3.13753e-22)
(0.0813338 0.159911 -2.1649e-19)
(0.999809 -0.00169835 -1.85875e-20)
(0.661989 0.0182828 -1.53172e-19)
(1.01547 -0.000326722 0)
(1.02968 -0.00252069 1.70602e-22)
(1.12978 -0.201217 -9.74299e-20)
(1.1609 0.0274495 1.28592e-19)
(1.20763 0.108118 -1.29043e-19)
(1.04008 -0.0359479 -1.39979e-20)
(0.86264 -0.388767 -2.5369e-20)
(1.11523 -0.208432 -1.88026e-20)
(1.29267 -0.275715 2.25595e-19)
(0.897167 0.018925 0)
(1.00013 -0.000539377 6.93762e-21)
(1.03876 -0.0369342 0)
(1.00015 -0.000551545 -6.11372e-21)
(0.985199 -0.0106891 1.31615e-20)
(1.29288 -0.294564 -2.84911e-21)
(1.07779 0.160281 5.04743e-20)
(1.023 -0.038517 0)
(0.986058 -0.00810553 -7.06067e-21)
(1.08804 -0.015656 0)
(0.194084 -0.172567 -6.64757e-20)
(1.0156 -0.0882212 -2.09811e-21)
(0.986986 -0.00051449 2.82395e-21)
(0.383246 0.0974018 3.21082e-19)
(0.9934 -0.00773838 -5.72131e-22)
(0.999987 -0.000290104 3.9436e-22)
(1.02479 -0.00431317 0)
(1.10394 0.0219426 0)
(0.996188 -0.000451674 0)
(1.0646 -0.0124486 -1.71855e-20)
(-0.031363 0.174739 -9.353e-20)
(1.15235 -0.0922702 5.9149e-20)
(1.00526 -0.000182418 0)
(0.134799 0.574377 0)
(0.571487 0.0510569 -8.30946e-20)
(0.993541 -0.00843102 -8.70417e-21)
(1.05149 -0.00647594 1.25388e-20)
(1.09616 -0.0532174 4.25648e-20)
(1.00004 -0.000176784 4.06362e-21)
(1.00132 -0.00722288 3.89856e-21)
(1.01697 -0.0194483 -6.49966e-22)