/*--------------------------------*- C++ -*----------------------------------*\
| =========                 |                                                 |
| \\      /  F ield         | OpenFOAM: The Open Source CFD Toolbox           |
|  \\    /   O peration     | Version:  v2012                                 |
|   \\  /    A nd           | Website:  www.openfoam.com                      |
|    \\/     M anipulation  |                                                 |
\*---------------------------------------------------------------------------*/
FoamFile
{
    version     2.0;
    format      ascii;
    class       volScalarField;
    location    "200";
    object      p;
}
// * * * * * * * * * * * * * * * * * * * * * * * * * * * * * * * * * * * * * //

dimensions      [0 2 -2 0 0 0 0];


internalField   nonuniform List<scalar> 
10042
(
0.0052013
-0.0723041
0.00286725
0.00214803
0.00453772
-0.0117743
-0.00302088
-0.0256906
0.00457798
0.0135603
-0.00508284
-0.0890409
-0.0326782
0.00611948
-0.00548882
0.00609086
-0.0150671
-0.00408391
-0.0217904
0.00782396
-0.0300742
0.00509491
0.00224091
-0.0446052
0.00430337
0.00200355
0.0138182
0.00427543
-0.0126962
-0.0296219
0.00518956
-0.0660418
0.0044849
0.00446303
-0.0263583
-0.033065
0.00170299
0.00503873
0.00514416
0.000787481
-0.0334364
0.00454021
-0.0598868
-0.0605959
0.00301691
0.00434994
0.00328376
-0.0050188
0.00231289
-0.050335
-0.0571706
0.0035223
-0.0137024
-0.0204138
-0.0849231
-0.100487
-0.028199
0.00017672
-0.00350214
0.00026237
0.00461805
-0.0509959
-0.05663
-0.0171829
0.00389638
0.00551968
0.00702803
0.00362351
0.00311313
0.00438511
-0.0637912
0.00290146
0.00532512
-0.00341673
0.00541332
-0.065136
0.00445442
0.00326457
0.0047134
-0.0229127
-0.0578303
-0.0396019
0.00458898
0.00423817
0.0141114
0.00794672
0.00674052
0.000985183
0.00564647
0.00483222
-0.028645
-0.0058377
-0.0514673
0.00826185
0.00501992
0.00233998
-0.149757
0.00740606
-0.0349738
-0.00371581
-0.0273517
0.0161346
0.000853206
-0.0592724
-0.0202295
0.000310782
-0.0229993
0.00533915
-0.000424448
0.000105147
-0.00249522
0.000361275
0.0176662
-0.0167359
0.00457163
0.00304425
0.00919467
0.0047283
0.00152534
0.00283206
0.000346598
-0.076335
-0.0889661
0.00299638
0.00451375
0.00571878
0.00578298
-0.0887111
-0.0946233
0.00928735
0.00491552
0.00537578
0.00590138
0.00495396
0.00216905
-0.0400648
0.00638833
0.0115836
-0.0115258
-0.02884
-0.0447342
0.0044825
-0.0234503
0.00428898
-0.0043263
0.00503865
0.0134895
0.00303267
0.00400681
-0.0393162
0.00529483
0.00455331
-0.0127436
-0.0379405
0.0055701
-0.00304034
-0.0888235
-0.0852719
0.00591131
0.00191645
0.00414458
0.000604559
-0.0333745
0.00568164
-0.00963409
-0.0317928
0.00531763
-0.0594488
-0.0326814
0.00439476
0.0063804
-0.0283302
-0.0559614
0.00441487
-0.0195016
-0.0639226
0.00393075
0.00500184
0.00530571
0.0031728
-0.0106995
-0.0162824
-0.00383042
0.0027309
0.00377441
-0.0361859
0.00254739
0.000300213
-0.0778243
0.00516825
-0.065726
-0.0257292
0.00493436
-0.0159374
-0.0972392
-0.00561512
-0.137688
0.00746099
-0.150065
0.00417246
-0.101968
-0.0485617
0.00611584
0.00375686
-0.0412479
0.00588948
-0.0434402
-0.0347016
-0.00204434
0.00490342
-0.0647391
0.00369948
0.00518618
0.00542224
0.00176793
0.00804252
0.00343164
-0.0180449
0.00264058
-0.0953301
-0.143029
0.00649364
-0.147153
0.00790085
0.00212122
-0.0526849
0.00357359
0.00634459
0.0114244
0.000507305
0.0049998
0.00581268
-0.0343182
0.00484444
0.00402165
-0.0280786
0.00575242
-0.14729
-0.00526434
-0.0424506
-0.0101401
-0.00766095
0.000276125
0.000820747
-0.0596057
0.00443541
-0.00397888
-0.00417571
-0.0132168
0.0044704
-0.0201395
0.00492611
0.00542309
-0.0557904
0.00381209
0.0056699
0.00525989
0.00451268
-0.140575
0.00293282
0.00436339
0.00517943
0.00359661
0.00338418
-0.0354964
-0.0441532
0.00381371
0.00745426
0.00510077
0.00580675
-0.000289178
-0.0432883
0.00580245
-0.071604
0.00437543
0.00182622
-0.0142772
0.00353508
0.00537999
-0.0913268
0.00430653
-0.00790623
-0.141261
-0.0134085
0.00248352
-0.155721
0.00913378
0.003687
0.00489711
0.0046469
-0.0214291
0.00760395
0.00150454
-0.0164701
0.00365814
0.00611693
0.000403873
0.00596944
-0.000354147
0.0034548
-0.0115457
0.00529836
0.000192856
-0.0121414
0.0086779
-0.0419825
0.00588361
0.000630238
-0.00423872
-0.0156058
0.00159581
0.00489038
0.00217764
0.00613224
0.00770393
0.00414317
0.0034116
0.00282604
-0.0289626
0.00295212
0.00399428
-0.0696597
0.00268139
0.00276359
0.00526286
0.00182183
0.00720739
0.00537079
0.00599984
-0.0199951
0.00584212
-0.000156898
0.00648887
0.00505288
-0.0412703
0.00487766
-0.038334
0.00346499
0.00493956
-0.0260373
-0.0404126
-0.0224677
0.000345251
0.00703662
0.00394285
0.00495805
0.00569464
0.0040838
0.00688459
-0.15217
-0.00918871
0.00462878
0.00675224
0.0046774
-0.0672759
0.00756662
0.00337129
0.00461204
-0.118314
0.00381311
0.000130696
0.00157671
-0.00892927
-0.0123918
-0.0236975
-0.0105444
0.00399991
0.0064887
0.00659443
-0.085627
0.00035394
0.00391854
0.00581793
-5.69599e-05
0.00885468
0.00585763
0.00218217
-0.0053094
-0.0313499
0.00771255
0.000337457
-0.00712509
0.0128874
0.00531006
-0.0519328
0.00292934
0.00414692
0.00277055
0.00601894
0.00370733
0.00443964
-0.151349
-0.00885896
0.0076541
-0.0167078
-0.0433463
0.00153744
-0.0235051
0.00247601
-0.0633187
0.0034565
-0.153787
0.00299006
-0.0711136
-0.132786
0.00469851
-0.0377039
0.00507242
-0.00717372
0.00435157
-0.0122278
-0.00824836
-0.0110727
-0.00807307
-0.00673604
0.00633444
-0.00239547
-0.0831926
0.00369012
0.0063356
0.00489029
-0.0169267
0.00495515
0.00262647
-0.0491615
0.00627692
0.0140191
-0.0103114
0.00301996
-0.0252166
0.00631663
0.00331085
-0.00711903
-0.0323277
0.00504845
-0.00819352
-0.00742953
0.0010962
0.00378948
-0.122762
0.00434508
0.00743612
0.00527574
-0.0797026
-0.0458877
0.00326492
-0.00423149
-0.0306837
-0.0200015
0.00249475
0.00247699
-0.016888
-0.0187359
-0.0491749
0.00222212
0.00571064
0.00470138
-0.140979
0.00279628
0.000578472
0.00460667
0.00174189
0.00471788
0.00458916
0.0059427
0.00171778
0.00544026
-0.0140852
0.00728118
0.0058851
-0.0250891
0.00440805
-0.166724
-0.0082098
-0.0291036
0.00507892
-0.0371604
0.00406822
-0.0277676
-0.000793999
0.0072305
-0.00775541
-0.0238891
0.00453737
-0.0217666
0.000436213
0.00305364
-0.0216367
0.00360108
0.00501844
0.00484131
-0.0757712
0.00515698
0.00716099
0.00106452
-0.0336275
0.00473637
0.00724799
-0.0222687
-0.00499123
-0.00169421
0.00409584
-0.00700311
-0.0819053
-0.00520834
0.00108754
0.00518503
0.00116867
0.00927418
0.00427172
-0.00450318
-0.0509733
0.00472994
0.00241285
-0.000607422
-0.0260203
0.00280051
-0.00514319
0.00179147
-0.00191386
0.00450737
-0.001245
0.0011902
0.000132819
-0.00746211
-0.0100616
0.00696384
0.0131531
8.06864e-06
0.00548116
0.00193376
-0.00684136
0.000155535
0.00399308
0.00250293
0.00233751
0.000491579
0.0116624
0.00491183
-0.0607051
0.00392971
0.0126743
0.00444104
-0.150639
0.00269237
-0.0370487
0.00265443
0.00529793
-0.00266006
0.000269218
-0.0149548
-0.00726409
0.00458369
0.00695823
-0.0385726
-0.0132969
0.00593928
0.00492475
0.00395726
0.00289041
0.00334569
0.00344786
-0.000348768
-0.0367398
0.0017873
0.000309103
-0.0337247
-0.018863
0.00312472
0.00382432
0.00479089
-0.0343549
-0.00865687
0.0045767
-0.0500832
0.000142967
-0.0363954
0.00425493
0.00459551
0.00507592
0.00500404
-0.00042615
0.00526032
-0.15208
-0.00670174
0.021356
0.00367393
0.00488705
0.00349253
0.0144722
-0.013577
0.0046584
0.00355859
0.00378112
0.00695724
0.00362365
-0.036021
0.00409263
0.00542082
0.00507107
0.00310317
0.00525102
-0.122011
0.00350475
0.00572126
0.00590683
-0.0491561
5.54135e-06
0.00512099
0.00523664
-0.00223929
0.00154163
0.00344378
0.00448745
0.00338883
-0.00502246
0.00386651
0.00488444
0.00428522
-0.139026
-0.0522378
-0.0274248
0.00441194
-0.0287652
0.00272995
0.00866581
0.00238592
-0.0338225
0.0077444
-0.030793
0.0052222
-0.00286835
0.000298141
-8.22275e-05
-0.0236037
-0.00059747
0.00746
-0.0777474
-0.00481218
-0.00129237
0.00523912
-0.00132914
0.00441204
0.00512956
0.00402257
-0.0244741
-0.0129434
0.00202126
-0.161553
0.00214899
0.00875373
0.000564275
-0.0129763
0.00703351
0.00518592
-0.0320389
0.00570968
0.00478665
0.0222404
-0.00197661
0.000287637
0.00509239
0.00536975
0.00491678
-0.00104639
0.0131208
-0.049336
-0.00462551
0.00560653
0.00526805
-0.0043761
0.00345138
0.00555245
0.00335852
0.00561741
-0.00580713
-0.0496415
0.00152835
0.00391102
0.00170435
-0.129731
-0.037978
0.00701411
0.0134819
-0.00439863
-0.0356533
-0.00642203
0.00527725
0.00514452
0.005787
-0.0112121
0.00524636
-0.0317741
0.00602248
0.000343825
0.00739465
0.00617467
-0.122272
-0.145132
0.00356963
0.00313616
0.00246868
0.00457559
0.00509444
-0.0149791
0.00640644
-0.0660446
0.00554317
0.00589087
0.00469337
0.00241471
4.92282e-05
0.000283392
-0.000898749
-0.00771934
0.00739561
-0.0213666
-0.0137419
0.000891156
0.000889409
-0.015432
0.0021236
-0.0669018
0.00395912
0.00580133
0.00296023
0.00482216
-0.0545508
0.0059632
0.00434503
0.00450839
-0.0832962
0.00585823
-0.00873734
-0.0111577
0.00558319
0.0194371
-0.0137115
0.000351171
0.00540154
-0.0739002
0.00388381
-0.0108975
0.00720849
0.00457401
0.00736587
-0.0040848
-0.00204156
0.00540288
0.00897717
0.00290745
0.00368737
-0.00421041
0.000274152
0.00319251
0.00214916
0.00459547
0.00374615
-0.0136442
-0.00687487
0.000301478
0.00667257
0.00546083
-0.0709691
0.0047454
0.00272006
-0.00318329
0.00439993
0.00570928
0.00607596
0.011622
0.00588416
-0.0413677
-0.00700097
0.0126959
-0.0338912
-0.0544269
0.00604071
0.00304887
0.00257175
-0.00799359
-0.00969099
0.00434259
0.0102373
0.00574848
-0.00791409
0.00604325
0.00302363
-0.0134765
-0.00290834
0.00498013
-0.00487995
0.00223134
0.00431408
0.00551374
0.00349006
0.00259975
0.00224436
0.00523783
0.00496484
0.00477054
0.00167407
0.000328593
0.00245749
-0.00941059
0.00560284
0.00579114
0.00243857
0.00330487
-0.00647408
-0.0176002
0.00501015
0.00302641
-0.00774026
-0.165338
0.00627898
0.000398386
-0.0221722
-0.023572
0.00417513
0.000385278
0.00323424
-0.00778168
0.0134275
-0.00705183
-0.160826
0.00375128
-0.00120544
-0.0520312
0.00584784
0.00378141
-0.0154699
0.00220244
-0.0450634
0.00894387
-0.16554
0.00481133
-0.0106736
-0.00165854
0.00467991
0.00455143
0.00756301
0.000493011
-0.00160663
0.00334165
-0.0187515
0.00592786
0.000342058
-0.0436539
-0.0010295
-0.0240878
0.00642336
0.0040722
0.00126676
-0.00745599
0.0041872
0.00589066
0.00203566
-0.0349685
0.00493368
-0.00760393
0.00398398
0.00147144
0.00596749
-0.0419826
0.00503895
-0.0672025
0.00481205
0.00296357
0.00207573
0.00306778
0.00583796
0.00179367
-0.0178621
0.0118047
0.00532816
-0.0385564
0.0042733
0.00309427
-0.0462993
0.00258217
0.00172253
-0.034828
0.00430522
-0.00707064
-0.0123811
0.0189355
-0.0272349
0.0111586
0.00732013
0.00194426
-0.108236
-0.117926
0.00366024
0.0101738
-0.11448
-0.00711506
0.00192775
0.00256896
0.00562802
0.00258416
-0.000286567
0.00415939
0.00592298
-0.0280361
0.00286223
-0.047831
-0.0225215
-0.0103504
0.00298588
0.00240114
0.00246736
-0.00503255
-0.0178951
-0.00456725
0.00463
-0.0306517
-0.00425267
0.00533868
0.00286913
-0.147953
0.00409709
0.00733243
0.00372038
0.00518656
-0.0047714
0.00509534
0.0129244
0.00298482
0.00530703
-0.0281236
-0.0255253
-0.0407347
-0.0173532
0.00366299
-0.157467
-0.0516135
-0.0474031
-0.0496479
0.000240816
0.00546959
-0.0490791
-0.00990943
0.00614267
-0.028604
-0.0556059
0.0057922
0.00281937
0.00610619
0.00576897
0.00391319
-0.0511918
0.0056964
0.0034312
-0.160062
0.00576094
0.00558133
0.014292
-0.0269854
-0.0211172
0.00487418
0.00440812
-0.0472708
0.00514758
0.00305457
-0.00643173
0.00310043
0.00462882
0.00450763
-0.0314432
0.00747401
0.00527434
0.00611578
0.00551539
0.00025243
0.00603665
-0.0945185
0.00547668
0.00600403
-0.00134792
0.0108696
0.00427676
-0.00758067
0.00721597
-0.0268493
-0.00583387
0.0018724
0.00597685
-0.00176945
0.00423869
0.00283965
-0.0127712
0.00120095
0.00465643
0.00410547
0.00256549
0.00336081
-0.0163434
0.00341018
0.0034221
-0.0212088
0.00670665
0.00453718
0.00204124
-0.0289771
0.00467015
0.00565795
0.00545339
-0.0391524
0.000585579
0.00558393
0.00790185
0.00596089
-0.0201909
0.00478301
0.00551142
0.00439563
0.0101053
0.00615294
0.00392465
-0.00695799
0.00560287
0.00438314
-0.0118581
0.00580636
0.0042072
0.00353849
-0.00501872
-0.013718
0.00606316
-0.052135
0.00788894
-0.000206832
-0.132001
-0.0118115
0.00572816
0.00326762
0.00395161
0.00377784
-0.0544886
0.0131952
-0.0254385
-0.053152
-1.61082e-05
0.0101672
-0.0127283
-0.0198352
0.00797995
0.00432517
-0.0377616
-0.00436097
0.00469272
0.0015693
-0.0718549
-0.0243663
0.00222351
-0.0112098
0.0054902
0.00397761
0.00524794
-0.00503632
0.00657858
0.00445903
-0.0119411
0.00302975
0.00379085
-0.0321613
-0.0821015
0.003656
0.00423946
-0.0026509
0.00589947
-0.0391185
-0.0112307
0.00482536
0.0055649
0.00542261
-0.00251432
0.00114054
-0.00666021
0.00300242
0.00500259
0.00598968
0.0043491
0.00481294
0.00824192
-0.0219035
0.00271135
0.0213594
-0.0155093
-0.0550103
0.0162228
0.00436731
0.00505487
-0.0794475
0.0165466
0.00320781
-0.00249329
-0.00346745
-0.00659499
0.00558802
0.00267885
-0.0237299
-0.0417839
0.00462149
-0.00835578
0.00473746
-0.00259777
-0.0261591
0.0058892
0.00463418
0.00551801
0.00478391
0.00393909
0.00293854
0.00284996
0.00492886
0.00131492
0.0048054
0.00288702
-0.0276756
0.0035941
0.00889275
-0.0250774
-0.000281775
0.00527678
-0.0247641
0.00322132
0.0214098
0.00649031
0.00182358
0.0042015
-0.0137448
-0.0242844
-0.0128349
-0.00130919
0.00106938
-0.00451758
-0.00698014
0.0062744
-0.00230771
0.00576732
-0.0212139
-0.0230244
0.0072279
-0.106946
-0.0247179
-0.00365792
-0.166725
-0.0214211
-0.0249625
0.00560099
0.00149057
-0.000994666
-0.0280295
0.00117187
-0.0462545
-0.0119188
0.00527895
0.00471481
0.00202063
-0.0325119
0.00939607
-0.00504522
0.000109106
0.00209882
-0.0148298
0.00421219
0.00477416
-0.00806925
0.00109362
0.00163415
-0.0179304
0.00121977
0.00442358
-0.010136
0.00496359
0.00486906
0.00542131
0.010647
-0.0240995
0.00538704
0.00229301
0.00273144
-0.0455935
0.00460479
0.00585174
-0.00315229
0.00315586
0.00070282
-0.01286
0.00420537
-0.0268831
0.00442875
-0.054961
0.00812258
0.00469767
0.00514852
0.0040449
-0.00420362
0.00351607
0.00392965
0.00663129
0.00287842
0.00692753
0.00164599
-0.0256127
-0.0233727
0.00520935
0.00443965
0.00360296
-0.00158139
-0.147509
-0.0210302
0.00346616
-0.101014
0.00349174
0.00223468
0.00575415
0.00479381
0.00722094
0.00157156
0.012428
0.0078732
0.00582051
0.00473668
0.00561536
0.00486962
-0.00281653
-0.0227498
-0.0239689
-0.00335552
0.00420381
0.00339182
0.00215084
0.00264773
-0.0130422
0.00120136
0.0182554
-0.0230622
0.00124733
0.00460362
-0.0319916
0.0011248
0.00573998
-0.0530841
0.00442299
0.00498397
-0.0673851
-0.0134508
0.00409995
-0.0340749
-0.00309534
0.00487475
-0.0179999
0.00344054
0.00183341
-0.00180137
-0.0481987
-0.0361182
0.000748801
-0.0290795
0.00515946
0.000536113
-0.0219528
-0.00360538
-0.0135542
-0.00579225
-0.00441443
-0.0573934
-0.0564037
0.008034
0.00257354
-0.009689
-0.0878803
0.0103062
-0.00450555
0.00128652
0.00565633
-0.0285865
-0.00170567
0.0076385
-0.0538982
0.00493712
-0.000144047
0.00213322
-0.155871
0.00340784
-0.0532716
0.00583848
0.00551682
0.00455009
-0.0104939
0.0048287
0.00459463
0.0040874
0.00523138
0.000706196
0.00223954
-0.00327748
0.00410371
-0.025531
-0.00593195
0.00350098
0.0051385
-0.00329469
-0.160193
-0.0318136
0.00222253
0.00515431
0.00438072
-0.00237521
-0.0274128
0.00447292
-0.00946843
-0.0940041
0.00792812
0.00400824
0.00533004
0.00119483
-0.0176187
0.00559758
-0.003955
-0.000141147
0.0053941
0.0050995
0.00559002
0.00472135
-0.0403103
-0.136405
0.00295583
0.00371141
0.00576927
-0.158505
0.00572566
-0.0171275
0.00267869
0.00545206
0.00267911
0.00322967
-0.0896773
0.00524502
-0.0472814
-0.00553903
-0.0788442
0.000897333
-0.0265657
-0.0234991
-0.013391
-0.00655016
0.00320843
-0.0564009
0.00528925
-0.0301127
-0.00449373
-0.0224864
0.00576996
-0.00341949
-0.0167516
-0.0279221
-0.0771149
0.00320341
0.00116996
0.000973636
-0.0279732
0.00748262
-0.014091
-0.0306076
0.00440148
0.00586796
0.00156109
-0.00511626
0.00592129
-0.0114016
-0.0033437
0.00556744
-0.137737
0.00221999
-0.0451714
-0.0277046
0.00404357
-0.0338089
0.00666189
0.00553572
0.0184096
-0.00783148
0.00404222
-0.000640203
0.00477601
-0.156495
0.00378285
-0.135565
-0.0235312
-0.0370428
0.0026742
-0.0339682
-0.00326357
0.00512605
0.00478089
0.00438899
-0.00411621
-0.0112373
-0.00289797
-0.00629661
-0.12385
-0.000218002
0.00464882
0.0047086
-0.155833
0.000397348
0.00263595
-0.103536
-0.121213
-0.0939545
-0.0143699
-0.0389072
0.00417471
0.00381514
0.00460713
0.00980492
0.00482506
-0.0214134
-0.0289563
-0.158352
-0.0240588
0.00458201
0.00389712
-0.00407753
0.00436822
-0.000119015
-0.014777
-0.142412
0.00580006
0.00353337
-0.0122782
0.00570903
-0.0341731
-0.00122694
-0.0158646
-0.0199648
-0.00288477
0.00310414
0.000500265
-0.0258445
0.00203418
-0.0134204
0.00494878
-0.0120523
0.00438008
-0.155459
0.00368366
0.00276202
0.00423971
0.00426076
0.00450892
-0.0281769
-0.0172229
-0.150489
-0.078431
0.00150458
0.00306467
0.00492102
-0.0366269
-0.00138914
-0.0375251
-0.0338082
-0.156962
0.00860287
-0.0191929
-0.0497065
-0.0887913
0.00535779
-0.0207074
-0.00795167
0.00593154
0.00549182
0.00440424
0.000516227
0.00546936
0.0046789
0.00497133
-0.0229514
-0.0123455
-0.00290983
-0.0294561
-0.0460219
-0.0103118
-0.0210438
0.00381608
-0.00811779
-0.00379315
0.00378716
0.0088676
-0.0112747
-0.151842
-0.0284746
0.00533002
-0.0238005
-0.00104972
-0.0267166
0.00799847
-0.0201905
-0.0202066
-0.0767881
0.00346449
0.00234361
0.00892001
0.00394279
-0.0556477
0.00440026
0.00372877
0.00265586
-0.0179546
-0.0600283
-0.0169349
0.00478076
0.00428331
-0.0159466
0.00675455
0.00182869
-0.00754633
-0.0254532
-0.0110184
0.00659444
0.00289716
0.0027719
-0.00718021
0.00222212
-0.00361011
-0.0231891
0.00251279
0.00587471
0.00166455
-0.00135401
-0.0438306
-0.011182
-0.011329
-0.0105884
-0.00669213
0.00361636
-9.72052e-05
-0.0151296
-0.00575628
-0.00169028
0.00338923
-0.0204343
-0.00702383
-0.0100448
0.00445632
-0.0490436
0.00794131
-0.0756497
-0.0137872
0.00459931
0.0017666
-0.0147518
0.00421003
-0.0263977
-0.0258493
-0.00490112
-0.0184817
-0.0234475
0.000143187
0.00731778
-0.00411526
-0.0236909
-0.0410942
0.00853444
-0.0106104
0.00377231
0.00195142
0.000830118
-0.0127838
0.00252317
0.00359521
0.00365859
0.00551994
-0.0101178
0.00345149
0.00632733
0.0027139
-0.0345148
-0.00369665
-0.00508303
-0.0114412
-0.00331533
-0.00724447
0.00261518
-0.00547761
-0.0176017
0.00344121
-0.0053217
-0.0466555
0.0022708
0.00418571
-0.0206095
-0.0132727
0.0057501
-0.00892666
0.00571637
-0.156833
-0.00407459
-0.00122661
0.000748726
-0.112282
-0.166627
-0.0249256
-0.0087459
-0.00669362
0.00496242
-0.0197524
0.00637483
0.00567951
-6.64654e-05
-0.0490431
0.0021723
-0.0563933
0.00780701
-0.0114299
0.00335583
-0.00153512
-0.0326878
-0.0126492
0.000319643
-0.0098656
-0.0256808
-0.146771
0.00499502
-0.00814545
-0.00807221
-0.014043
-0.073445
-0.0950759
0.00473841
-0.00268006
0.00251171
-0.0166575
-0.0172755
-0.0679911
0.00525298
-0.0112435
0.00700044
-0.0147915
-0.010459
-0.0180082
-0.0140751
0.00266334
-0.00411915
-0.0727357
-0.0185874
-0.0228766
0.00267578
-0.00240941
0.00483389
0.00585863
0.00287412
0.00333954
-0.146599
0.00340526
-0.0121316
0.0034909
0.00515677
0.00378617
0.00564487
0.00309737
0.00428302
0.0026768
-0.00392443
0.00689115
-0.0486391
0.00369183
-0.0157922
-0.0108086
-0.00605864
-0.0247671
-0.00930927
-0.0108247
5.70141e-05
-0.00306039
-0.0694259
0.0053547
0.00516895
-0.0104279
0.0068673
0.00542589
-0.00323704
-0.00869716
0.004492
-0.00650944
-0.0208699
-0.127339
2.5412e-05
-0.000949706
-0.00202231
0.00554397
-0.00741596
-0.0241164
-0.0158568
-0.0167647
-0.00571987
-0.0470803
0.00210795
0.00494091
0.00514135
-0.148063
0.000559318
0.00388027
-0.000494137
-0.00214232
-0.014982
0.000349149
0.00484115
-0.00365232
0.00541175
0.00429208
-0.00973284
-0.00685418
0.00237891
-0.0434913
-0.00605051
0.00376907
0.00458438
0.011752
0.00549521
0.0043601
-0.00681045
-0.00632711
-0.00480747
-0.0277026
-0.00518463
0.00557027
0.00517552
-0.00109836
0.00370001
0.00574603
-0.00134443
-0.00609321
-0.00122522
-0.0721967
-0.00638885
-0.00564824
-0.0132621
0.00117991
0.00112903
0.00385999
0.00276991
0.00724857
0.00397698
-0.00792674
0.00315738
-0.0223645
-0.158434
0.00525418
-0.00399926
-0.0266219
-0.000929442
0.00206724
0.0051711
-0.0403472
-0.00436738
-0.00119265
-0.00834805
0.00161681
-0.0182173
0.00191111
0.0156097
0.0049848
0.00766678
-0.00604389
0.00635306
-0.00301911
0.00720539
0.00141145
0.00467379
-0.043045
0.00370084
-0.0399362
-0.00340849
-0.0733833
-0.00766507
-0.0573634
0.00540478
0.00241089
-0.0315691
-0.0204747
0.00180541
0.00693984
0.00366377
-0.00552703
0.00539465
0.00582922
-0.00425045
-0.0222113
-0.0796789
-0.006569
-0.15577
-0.0461038
-0.0234976
-0.0608083
0.0030532
0.00356774
0.00145513
-0.00227509
0.00552194
-0.0248687
0.00378137
-0.0221336
-0.0347401
0.00602903
0.00362755
0.0010586
0.00145635
0.0107465
0.00581954
-0.0878251
0.00533487
-0.00638021
0.00637311
0.00299222
0.0012102
-0.0628115
0.00628127
-0.0973083
-0.0241637
-0.00291309
-0.000421127
-0.0114435
0.00115109
0.00399041
0.00561737
-0.00216449
0.00189775
-0.00369121
-0.00935291
-0.000714183
-0.0065554
-0.109544
-0.0110435
-0.0815111
0.00285031
-0.0418816
-0.0111847
0.00347064
0.00576229
0.00817885
0.00403171
-0.0422615
-0.00741709
-0.0173282
0.00286176
0.00532746
0.00207358
0.00283465
-0.0027027
0.00635319
-0.00184425
-0.0184617
-0.0232037
-0.0138524
0.00505134
-0.0306584
0.00542458
0.00620127
-0.0218889
-0.00359236
0.00407067
-0.001453
0.0017773
0.00429723
-0.0255794
-0.0250502
-0.117377
0.00547201
0.00563665
0.00114807
-0.00153885
0.00484108
0.0127072
-7.77831e-05
-0.0116755
-0.0176272
0.00490796
-0.0615795
0.00241553
0.00236758
0.00066094
0.00164504
0.00538914
0.0034422
0.000703276
-0.0177623
-0.0218992
0.00440291
0.00541187
0.00220578
0.00373639
-0.00539021
0.0124796
-0.032016
0.000972277
0.00760928
-0.0215994
0.00126237
0.00516554
0.00122708
0.00315929
-0.0194286
0.00288699
-0.0260192
0.00799292
0.00405319
-0.0212678
0.0109607
-0.0179272
-0.0126555
0.000481463
0.0108698
-0.016252
-0.0198349
0.00110087
0.00644593
0.00258692
0.00154144
0.00115674
0.00156906
0.00492182
0.00567099
-0.0246681
-0.0262021
-0.0724701
0.000810467
0.00526257
0.0114821
0.00380405
0.00444399
-0.0318457
0.00704014
-0.00305358
-0.0296686
0.00378866
0.00356977
0.00282218
-0.0260251
-0.00181592
0.00564348
-0.159186
-0.00201729
-0.126832
-0.0170137
0.00407433
0.00675648
-0.0183904
0.00540189
0.0024827
-0.015615
0.000342001
-0.00197007
-0.00336263
0.00148178
-0.00447974
-0.00393785
0.00190446
0.00362179
0.00432133
-0.07063
0.00592202
0.00205032
0.00194277
0.00153412
0.00162409
0.00212407
0.00250045
-8.33133e-05
0.00271102
0.000759656
0.00238809
-0.060447
0.00435461
0.00408522
0.00403642
0.00770693
-0.00957285
0.00336646
0.00295374
0.00328449
0.00419986
0.001447
0.00581326
0.00134509
-0.0176437
0.00359702
-0.0129579
0.00117807
0.0097261
0.00284889
0.00290225
0.00183205
-0.000985397
-0.00413057
0.0103654
-0.0307522
-0.0255088
0.003373
0.00469287
0.00561268
0.00667769
0.00647122
-0.049915
-0.00686397
-0.00929581
0.00608739
-0.0174617
0.0024707
-0.137182
0.00458379
-0.0297568
-0.0202295
-0.0203002
0.00209246
-0.0216579
0.0063311
0.00296299
-0.0143598
-0.00518315
0.00407345
0.0137065
-0.0280881
0.00331399
0.00307422
0.0017541
0.00711279
-0.0114855
0.00499282
0.00576665
0.00143918
0.000861635
0.0058452
-0.0578508
-0.0276565
-0.0148784
-0.00120724
0.0016919
-0.047188
-0.00247684
-0.000497118
0.00135469
0.00488173
-0.00986638
0.00350914
-0.00873953
-0.0267645
-0.0207735
0.00640437
-0.00125617
-0.0123214
-0.0492834
0.00696951
-0.145243
-0.014124
-0.0262768
0.0032317
-0.000838182
-0.0354337
-0.0010469
0.00413021
0.00516815
0.00187336
0.00898822
0.00552492
0.00337112
0.00010872
0.00371956
0.00382697
0.00398744
-0.0221718
0.0134416
0.00555757
-0.0169342
-0.0685752
0.00505731
-0.0173463
-0.130439
-0.00197146
-0.00426725
0.00541084
0.00862529
-0.0404914
0.0036163
0.00620746
-0.0491027
0.00149122
0.00534748
0.00404878
0.00204921
-0.0128716
-0.000973025
-0.0145273
-0.00107949
-0.0845192
0.00100439
-0.09991
-0.0110684
0.00163702
-0.0571004
0.00381616
0.0043384
0.00218162
0.00251974
-0.0211521
0.00241848
-0.00294556
-0.00966455
0.00325885
0.0037689
7.37054e-05
-0.000663859
-0.0200114
0.0045981
-0.0141773
-0.0350192
-0.0167056
0.00172497
0.000965282
0.00304167
-0.0679187
0.0062461
0.00749783
0.00552042
-0.0159797
-0.0721395
0.00254952
0.0057724
0.00458233
0.00364814
0.000687799
0.00249615
0.00512163
-0.00122646
0.00245794
0.00103474
0.00201784
0.00252598
0.00180068
0.00268591
0.00400407
0.0151083
0.0050506
0.00600083
-0.0737833
0.00126212
0.000829682
-0.046733
-0.165015
-0.0104395
0.00518903
0.0054655
0.0107955
-0.00364696
0.010487
0.00323134
0.00508868
0.00483861
0.00288556
-0.0020393
-0.0115506
-0.0043654
-0.0543541
0.00145737
0.00812102
0.00430534
0.0204768
0.000795478
-0.0126818
-0.0233209
0.00163496
-0.0185003
0.000262805
-0.0786802
-0.0437028
0.00541023
0.0056432
0.00553149
0.00413304
0.00569472
0.00343218
0.00355094
-0.0542841
0.00357809
0.00527062
-0.0781026
0.00456546
0.00393555
-0.0110172
0.00182402
-0.000468066
-0.0119274
0.00446133
0.00338273
-0.0167873
-0.00807992
0.00157498
-0.0716599
-0.0168006
0.00120909
0.00484611
0.00627891
0.00391335
0.00330326
0.00227619
-0.00553415
0.00889655
0.00337523
-5.82111e-05
-0.0270405
0.00389482
-0.00619748
0.00091273
-0.0021024
0.00330014
0.00201707
0.00554691
0.00155305
-0.0803885
-0.00542548
0.00530755
0.00643241
0.00680652
0.00839742
0.00520449
0.00702702
0.00241907
-0.00678869
0.00621374
0.00493568
-0.0215718
0.00340836
0.0029373
0.00490296
-0.0859321
-0.0105667
-0.0620299
0.0115795
0.00291245
-0.0111375
-0.0356124
-0.0244577
-0.00389979
0.00300446
0.00506394
0.00359264
-0.133246
0.00306365
0.00541696
0.00745019
0.00373192
3.99675e-06
-0.00455976
0.00498304
-0.0501938
-0.0183518
-0.00905153
0.00189092
-0.0660676
0.00155664
-0.000747143
0.00536575
-0.0057037
0.0201353
-0.00227614
0.00154424
0.0050663
-0.00949053
-0.0199487
-0.0109536
-0.00647189
-0.0640533
0.00547918
0.00121092
-0.00250839
-0.0156609
0.00222896
0.00215801
0.0042575
0.00312557
-0.139027
0.00364984
0.00519191
-0.0159956
0.00503965
0.00550845
0.00533102
0.00273782
0.001576
-0.0228174
0.00323165
-0.014714
0.0058069
-0.00736598
0.00279182
0.00398746
0.00191432
0.00154798
0.00608958
0.00551422
0.00147933
-0.0047536
0.00148166
0.00214898
0.000258622
0.00500764
0.0051856
0.00448933
0.00136031
0.00466809
-0.0117355
0.00585062
0.00430955
-0.00583611
-0.00515262
0.00275538
-0.0328713
0.00585445
0.00306081
0.00378423
0.00354735
0.00812696
0.00016293
-0.0862282
0.00338151
0.00235396
0.00272574
0.00513521
0.00275383
0.00507704
-0.00801828
-0.0047843
-0.00272195
-0.111116
-0.00146385
0.00413873
0.00412001
0.00173308
0.00433732
0.00581736
0.00512592
-0.0118638
0.00675068
-0.0530312
-0.0105177
0.00315238
0.00571005
0.0079015
-0.0325787
0.00289304
0.00534711
0.00107828
0.00256445
-0.0204015
0.00564343
0.00299158
0.00819474
0.00326555
-0.0594299
-0.00512758
0.00307451
0.00480407
0.00330797
0.00716174
0.00271671
0.00298205
0.00136314
0.00896769
0.00146215
0.00108816
0.00234429
0.00258243
0.00447152
-0.0240552
-0.0290825
0.00182369
0.00510948
0.00472853
-0.0111449
0.0029571
0.00499004
-0.0114451
0.00536781
0.00281494
0.00527363
0.00392261
-0.00814802
-0.104251
0.00504379
-0.0112656
0.00428078
0.00537226
0.0042623
0.00653441
0.00591893
0.00488474
0.00191003
-0.0103266
0.00504787
0.00738465
-0.0342208
0.00521351
0.00578781
0.00510847
0.00459203
0.00508235
-0.00224947
0.00127745
-0.00534649
0.00648534
0.00274031
0.0054686
-0.0366012
0.00511352
0.00561663
0.00404284
0.001663
0.00449018
0.00338913
0.00453307
0.003313
0.000804833
-0.0183631
0.00469035
0.000950892
0.00142842
0.00307695
0.00800057
0.0039666
-0.00850472
0.000272778
0.00562787
0.00388935
0.00381292
0.00548509
-0.00518721
0.00468242
-0.00849712
-0.0679125
-0.00576652
-0.0741389
0.00627529
0.0079825
0.00323024
-0.0221038
0.000574663
0.00584374
0.00357415
0.00368145
-0.0032506
0.0013484
-0.0144543
0.00202127
0.00557586
0.00253186
-0.0360341
0.000484745
-0.0309107
-0.014655
-0.119682
0.00722429
0.00158604
-0.00627105
-0.0320601
0.00164641
0.00941586
0.00738289
-0.00343567
-0.0491728
-0.00547733
0.00517361
-0.080989
-0.00319084
-0.0028983
0.00549602
0.00548028
0.00143497
-0.00120804
-0.0624744
-0.0290233
0.00870326
0.00404952
0.00582621
0.00891427
-0.0149038
0.00183915
0.00455994
0.00664069
0.00509896
0.00333691
0.00304134
0.004939
0.00815817
0.0094777
0.00852776
0.00145949
-0.00614086
0.00478871
-0.00322161
0.00489612
0.00572036
0.00724206
0.00354532
0.00516324
0.00424271
0.00401981
0.00592318
-0.00320236
0.00791845
0.00546631
0.00419282
-0.00798583
0.00659989
-0.0135444
0.00658665
-0.00702668
0.00632201
0.00549936
0.000438848
0.00786045
0.00518472
-0.010447
0.00585719
0.00574878
0.00567099
-0.0318239
0.00394272
0.00502243
0.00651289
0.00320254
0.00566517
0.00557646
-0.0727546
-0.0480678
-0.0207114
0.00285925
0.00562413
-0.0524802
0.00225141
0.00566342
0.00486534
0.00295437
0.00151405
-0.0118849
0.00451414
0.00551591
0.012885
0.00504864
0.00548035
0.00323331
-0.0175327
-0.0110803
0.0049513
0.0022382
0.00462025
-0.00612036
0.00644336
0.00234137
-0.0164916
0.00517401
0.00538523
0.00262125
0.00592478
0.00805611
0.00495766
-3.35523e-06
0.00438556
0.00710056
-0.011092
0.00337774
0.00545693
-0.00144068
0.00114051
-0.0629544
-0.0047567
0.00708269
0.00498666
0.00490299
0.00506564
-0.021499
-0.0477722
0.00145174
0.00570687
0.00237679
0.0114702
0.00416011
0.00559933
0.00490287
0.0056032
0.00477654
-0.0139198
0.00579746
0.00416065
-0.0193475
-0.00857236
0.00557948
0.00575361
0.0076663
0.00937562
0.00485801
0.00532962
0.00162382
-0.00254559
0.00144124
0.0081888
-0.00472876
0.00509763
-0.0207425
-0.00279378
0.00584408
0.00653127
0.00314587
-0.00102765
1.15533e-05
0.00534917
0.00548817
-0.00762867
0.00485912
0.00493943
0.00594749
0.000821916
0.0036137
-0.00291983
-0.0353914
0.00552564
0.00722668
0.00666681
0.00565803
0.00490873
0.00387518
0.00493016
-0.0245765
-0.00343672
0.00696422
0.00497539
0.00373364
0.00546694
0.00522115