/*--------------------------------*- C++ -*----------------------------------*\
| =========                 |                                                 |
| \\      /  F ield         | OpenFOAM: The Open Source CFD Toolbox           |
|  \\    /   O peration     | Version:  v2012                                 |
|   \\  /    A nd           | Website:  www.openfoam.com                      |
|    \\/     M anipulation  |                                                 |
\*---------------------------------------------------------------------------*/
FoamFile
{
    version     2.0;
    format      ascii;
    class       pointVectorField;
    location    "200";
    object      pointDisplacement;
}
// * * * * * * * * * * * * * * * * * * * * * * * * * * * * * * * * * * * * * //

dimensions      [0 1 0 0 0 0 0];


internalField   nonuniform List<vector> 
10400
(
(0 0 0)
(0 0 0)
(0 0 0)
(0 0 0)
(0 0 0)
(0 0 0)
(0 0 0)
(0 0 0)
(0 0 0)
(0 0 0)
(0 0 0)
(0 0 0)
(0 0 0)
(0 0 0)
(0 0 0)
(0 0 0)
(0 0 0)
(0 0 0)
(0 0 0)
(0 0 0)
(0 0 0)
(0 0 0)
(0 0 0)
(0 0 0)
(0 0 0)
(0 0 0)
(0 0 0)
(0 0 0)
(0 0 0)
(0 0 0)
(0 0 0)
(0 0 0)
(0 0 0)
(0 0 0)
(0 0 0)
(0 0 0)
(0 0 0)
(0 0 0)
(0 0 0)
(0 0 0)
(0 0 0)
(0 0 0)
(0 0 0)
(0 0 0)
(0 0 0)
(0 0 0)
(0 0 0)
(0 0 0)
(0 0 0)
(0 0 0)
(0 0 0)
(0 0 0)
(0 0 0)
(0 0 0)
(0 0 0)
(0 0 0)
(0 0 0)
(0 0 0)
(0 0 0)
(0 0 0)
(0 0 0)
(0 0 0)
(0 0 0)
(0 0 0)
(0 0 0)
(0 0 0)
(0 0 0)
(0 0 0)
(0 0 0)
(0 0 0)
(0 0 0)
(0 0 0)
(0 0 0)
(0 0 0)
(0 0 0)
(0 0 0)
(0 0 0)
(0 0 0)
(0 0 0)
(0 0 0)
(0 0 0)
(0 0 0)
(0 0 0)
(0 0 0)
(0 0 0)
(0 0 0)
(0 0 0)
(0 0 0)
(0 0 0)
(0 0 0)
(0 0 0)
(0 0 0)
(0 0 0)
(0 0 0)
(0 0 0)
(0 0 0)
(0 0 0)
(0 0 0)
(0 0 0)
(0 0 0)
(0 0 0)
(0 0 0)
(0 0 0)
(0 0 0)
(0 0 0)
(0 0 0)
(0 0 0)
(0 0 0)
(0 0 0)
(0 0 0)
(0 0 0)
(0 0 0)
(0 0 0)
(0 0 0)
(0 0 0)
(0 0 0)
(0 0 0)
(0 0 0)
(0 0 0)
(0 0 0)
(0 0 0)
(0 0 0)
(0 0 0)
(0 0 0)
(0 0 0)
(0 0 0)
(0 0 0)
(0 0 0)
(0 0 0)
(0 0 0)
(0 0 0)
(0 0 0)
(0 0 0)
(0 0 0)
(0 0 0)
(0 0 0)
(0 0 0)
(0 0 0)
(0 0 0)
(0 0 0)
(0 0 0)
(0 0 0)
(0 0 0)
(0 0 0)
(0 0 0)
(0 0 0)
(0 0 0)
(0 0 0)
(0 0 0)
(0 0 0)
(0 0 0)
(0 0 0)
(0 0 0)
(0 0 0)
(0 0 0)
(0 0 0)
(0 0 0)
(0 0 0)
(0 0 0)
(0 0 0)
(0 0 0)
(0 0 0)
(0 0 0)
(0 0 0)
(0 0 0)
(0 0 0)
(0 0 0)
(0 0 0)
(0 0 0)
(0 0 0)
(0 0 0)
(0 0 0)
(0 0 0)
(0 0 0)
(0 0 0)
(0 0 0)
(0 0 0)
(0 0 0)
(0 0 0)
(0 0 0)
(0 0 0)
(0 0 0)
(0 0 0)
(0 0 0)
(0 0 0)
(0 0 0)
(0 0 0)
(0 0 0)
(0 0 0)
(0 0 0)
(0 0 0)
(0 0 0)
(0 0 0)
(0 0 0)
(0 0 0)
(0 0 0)
(0 0 0)
(0 0 0)
(0 0 0)
(0 0 0)
(0 0 0)
(0 0 0)
(0 0 0)
(0 0 0)
(0 0 0)
(0 0 0)
(0 0 0)
(0 0 0)
(0 0 0)
(0 0 0)
(0 0 0)
(0 0 0)
(0 0 0)
(0 0 0)
(0 0 0)
(0 0 0)
(0 0 0)
(0 0 0)
(0 0 0)
(0 0 0)
(0 0 0)
(0 0 0)
(0 0 0)
(0 0 0)
(0 0 0)
(0 0 0)
(0 0 0)
(0 0 0)
(0 0 0)
(0 0 0)
(0 0 0)
(0 0 0)
(0 0 0)
(0 0 0)
(0 0 0)
(0 0 0)
(0 0 0)
(0 0 0)
(0 0 0)
(0 0 0)
(0 0 0)
(0 0 0)
(0 0 0)
(0 0 0)
(0 0 0)
(0 0 0)
(0 0 0)
(0 0 0)
(0 0 0)
(0 0 0)
(0 0 0)
(0 0 0)
(0 0 0)
(0 0 0)
(0 0 0)
(0 0 0)
(0 0 0)
(0 0 0)
(0 -8.10578e-05 0)
(0 -8.15193e-05 0)
(0 -6.23711e-05 0)
(0 -5.02159e-05 0)
(0 -6.86535e-05 0)
(0 -3.43562e-05 0)
(0 -7.05851e-05 0)
(0 -7.06997e-05 0)
(0 -4.29152e-05 0)
(0 -6.03222e-05 0)
(0 -3.73862e-05 0)
(0 -3.91504e-05 0)
(0 -3.33032e-05 0)
(0 -3.01079e-05 0)
(0 -2.31004e-05 0)
(0 -2.09371e-05 0)
(0 -1.80956e-05 0)
(0 -1.70744e-05 0)
(0 -6.63293e-05 0)
(0 -5.78655e-05 0)
(0 -1.10566e-05 0)
(0 -1.19246e-05 0)
(0 -6.15486e-05 0)
(0 -5.00823e-05 0)
(0 -7.71241e-05 0)
(0 -8.13182e-05 0)
(0 -7.80624e-05 0)
(0 -7.0416e-05 0)
(0 -3.69494e-05 0)
(0 -4.69464e-05 0)
(0 -2.93305e-05 0)
(0 -3.56377e-05 0)
(0 -2.90737e-05 0)
(0 -5.71156e-06 0)
(0 -6.05406e-06 0)
(0 -7.87949e-05 0)
(0 -8.03059e-05 0)
(0 -8.40555e-05 0)
(0 -6.72271e-05 0)
(0 -6.50834e-05 0)
(0 -6.51741e-05 0)
(0 -6.06725e-05 0)
(0 -5.5185e-05 0)
(0 -1.31709e-05 0)
(0 -2.95907e-05 0)
(0 -4.64851e-05 0)
(0 -3.48007e-05 0)
(0 -1.44598e-05 0)
(0 -1.91099e-05 0)
(0 -2.09412e-05 0)
(0 -3.99816e-05 0)
(0 -2.46531e-06 0)
(0 -0.000978977 0)
(0 -0.00100978 0)
(0 -0.000964035 0)
(0 -0.000994729 0)
(0 -0.000949674 0)
(0 -0.000981287 0)
(0 -0.000935466 0)
(0 -0.000966063 0)
(0 -0.00092103 0)
(0 -0.000951072 0)
(0 -0.000907752 0)
(0 -0.000938176 0)
(0 -0.000895959 0)
(0 -0.000925793 0)
(0 -0.000885112 0)
(0 -0.00091514 0)
(0 -0.000874812 0)
(0 -0.00090582 0)
(0 -0.000865794 0)
(0 -0.00090284 0)
(0 -0.00085657 0)
(0 -0.000888945 0)
(0 -0.000847149 0)
(0 -0.00164527 0)
(0 -0.00165952 0)
(0 -0.00168038 0)
(0 -0.00167238 0)
(0 -0.00169255 0)
(0 -0.00170986 0)
(0 -0.00170278 0)
(0 -0.00171965 0)
(0 -0.00173468 0)
(0 -0.00172831 0)
(0 -0.00174282 0)
(0 -0.00174793 0)
(0 -0.00175567 0)
(0 -0.00174934 0)
(0 -0.0017614 0)
(0 -0.00176642 0)
(0 -0.00177157 0)
(0 -0.00177975 0)
(0 -0.00177513 0)
(0 -0.00178292 0)
(0 -0.00178587 0)
(0 -0.00178843 0)
(0 -0.00178396 0)
(0 -0.00178861 0)
(0 -0.00179196 0)
(0 -0.00179171 0)
(0 -0.00178727 0)
(0 -0.00178981 0)
(0 -0.00179282 0)
(0 -0.00179042 0)
(0 -0.00178909 0)
(0 -0.00178652 0)
(0 -0.00178503 0)
(0 -0.00178604 0)
(0 -0.00178166 0)
(0 -0.00177966 0)
(0 -0.00177563 0)
(0 -0.00177573 0)
(0 -0.00176991 0)
(0 -0.00176858 0)
(0 -0.00176254 0)
(0 -0.0017629 0)
(0 -0.00175516 0)
(0 -0.000878843 0)
(0 -0.000839599 0)
(0 -0.00174577 0)
(0 -0.00174529 0)
(0 -0.00173553 0)
(0 -0.00172358 0)
(0 -0.00172418 0)
(0 -0.00171226 0)
(0 -0.00171018 0)
(0 -0.00169886 0)
(0 -0.00169895 0)
(0 -0.00168529 0)
(0 -0.00168362 0)
(0 -0.00166989 0)
(0 -0.00165314 0)
(0 -0.00165326 0)
(0 -0.00163793 0)
(0 -0.00162081 0)
(0 -0.00162049 0)
(0 -0.00160415 0)
(0 -0.001602 0)
(0 -0.001586 0)
(0 -0.00158702 0)
(0 -0.00156808 0)
(0 -0.00156525 0)
(0 -0.00154715 0)
(0 -0.000871867 0)
(0 -0.000832969 0)
(0 -0.0015481 0)
(0 -0.00152727 0)
(0 -0.00152514 0)
(0 -0.00150553 0)
(0 -0.00148278 0)
(0 -0.00148458 0)
(0 -0.00146239 0)
(0 -0.00145902 0)
(0 -0.00143922 0)
(0 -0.00144094 0)
(0 -0.00141827 0)
(0 -0.0014151 0)
(0 -0.00139468 0)
(0 -0.00139598 0)
(0 -0.00137265 0)
(0 -0.00137029 0)
(0 -0.00134845 0)
(0 -0.00132339 0)
(0 -0.00132578 0)
(0 -0.00130102 0)
(0 -0.0012755 0)
(0 -0.00127765 0)
(0 -0.00125239 0)
(0 -0.00124939 0)
(0 -0.000867433 0)
(0 -0.000826967 0)
(0 -0.00125337 0)
(0 -0.00122826 0)
(0 -0.0012279 0)
(0 -0.00120319 0)
(0 -0.000860691 0)
(0 -0.000820586 0)
(0 -0.000787273 0)
(0 -0.000781838 0)
(0 -0.000748862 0)
(0 -0.000744864 0)
(0 -0.000711676 0)
(0 -0.000709819 0)
(0 -0.000676111 0)
(0 -0.000677184 0)
(0 -0.000642665 0)
(0 -0.000641676 0)
(0 -0.000610938 0)
(0 -0.000611625 0)
(0 -0.000581517 0)
(0 -0.000582918 0)
(0 -0.000553906 0)
(0 -0.000557202 0)
(0 -0.000527656 0)
(0 -0.000534102 0)
(0 -0.00050332 0)
(0 -0.000510971 0)
(0 -0.000480779 0)
(0 -0.000487745 0)
(0 -0.000459535 0)
(0 -0.000467097 0)
(0 -0.000440187 0)
(0 -0.00120159 0)
(0 -0.000447733 0)
(0 -0.00042236 0)
(0 -0.00117732 0)
(0 -0.000430416 0)
(0 -0.000406011 0)
(0 -0.000414779 0)
(0 -0.000390256 0)
(0 -0.00117447 0)
(0 -0.0008532 0)
(0 -0.000579876 0)
(0 -0.000639706 0)
(0 -0.00115051 0)
(0 -0.00114647 0)
(0 -0.00112257 0)
(0 -0.00111761 0)
(0 -0.00114036 0)
(0 -0.000495082 0)
(0 -0.00111042 0)
(0 -0.00113203 0)
(0 -0.00108807 0)
(0 -0.00108014 0)
(0 -0.00105813 0)
(0 -0.000451924 0)
(0 -0.00104954 0)
(0 -0.00102762 0)
(0 -0.00101858 0)
(0 -0.00112537 0)
(0 -0.000996711 0)
(0 -0.000987139 0)
(0 -0.000894283 0)
(0 -0.000885978 0)
(0 -0.000927693 0)
(0 -0.000918934 0)
(0 -0.000959932 0)
(0 -0.000950846 0)
(0 -0.000989912 0)
(0 -0.00098206 0)
(0 -0.00102507 0)
(0 -0.00101139 0)
(0 -0.00105037 0)
(0 -0.0010375 0)
(0 -0.00107474 0)
(0 -0.00106262 0)
(0 -0.00110345 0)
(0 -0.000965238 0)
(0 -0.000954852 0)
(0 -0.000974829 0)
(0 -0.00108598 0)
(0 -0.0011235 0)
(0 -0.0010501 0)
(0 -0.000941827 0)
(0 -0.000960299 0)
(0 -0.000922364 0)
(0 -0.00110577 0)
(0 -0.00114264 0)
(0 -0.000908655 0)
(0 -0.000889492 0)
(0 -0.000875167 0)
(0 -0.00112344 0)
(0 -0.00115963 0)
(0 -0.000856258 0)
(0 -0.000841432 0)
(0 -0.00113838 0)
(0 -0.00117431 0)
(0 -0.000822866 0)
(0 -0.000807673 0)
(0 -0.00115118 0)
(0 -0.00118674 0)
(0 -0.000789271 0)
(0 -0.000803076 0)
(0 -0.000773676 0)
(0 -0.000790577 0)
(0 -0.000856371 0)
(0 -0.00116165 0)
(0 -0.00119669 0)
(0 -0.00112536 0)
(0 -0.000756156 0)
(0 -0.000771513 0)
(0 -0.000739642 0)
(0 -0.00116971 0)
(0 -0.00120405 0)
(0 -0.00072185 0)
(0 -0.000705562 0)
(0 -0.00117493 0)
(0 -0.00120897 0)
(0 -0.000687811 0)
(0 -0.00117754 0)
(0 -0.00121153 0)
(0 -0.000671667 0)
(0 -0.000942616 0)
(0 -0.000653988 0)
(0 -0.00117778 0)
(0 -0.00121174 0)
(0 -0.000638209 0)
(0 -0.000620246 0)
(0 -0.00124412 0)
(0 -0.00124472 0)
(0 -0.00120931 0)
(0 -0.00124247 0)
(0 -0.00127661 0)
(0 -0.00127437 0)
(0 -0.00123747 0)
(0 -0.00126896 0)
(0 -0.00130592 0)
(0 -0.00129972 0)
(0 -0.00126056 0)
(0 -0.00129002 0)
(0 -0.00132949 0)
(0 -0.00131897 0)
(0 -0.00162193 0)
(0 -0.000604783 0)
(0 -0.000586635 0)
(0 -0.000600678 0)
(0 -0.00127537 0)
(0 -0.00130409 0)
(0 -0.00135163 0)
(0 -0.00133075 0)
(0 -0.00128599 0)
(0 -0.00131286 0)
(0 -0.00135522 0)
(0 -0.00133837 0)
(0 -0.00129316 0)
(0 -0.00131754 0)
(0 -0.00136215 0)
(0 -0.00134049 0)
(0 -0.000380443 0)
(0 -0.00138459 0)
(0 -0.00136279 0)
(0 -0.00131776 0)
(0 -0.0013391 0)
(0 -0.00108895 0)
(0 -0.00056689 0)
(0 -0.000579486 0)
(0 -0.000553318 0)
(0 -0.00138386 0)
(0 -0.00135914 0)
(0 -0.00130813 0)
(0 -0.00133375 0)
(0 -0.00137889 0)
(0 -0.00135206 0)
(0 -0.00130585 0)
(0 -0.00132101 0)
(0 -0.00136981 0)
(0 -0.00133979 0)
(0 -0.00122152 0)
(0 -0.00128882 0)
(0 -0.00130932 0)
(0 -0.00135675 0)
(0 -0.00132641 0)
(0 -0.00127835 0)
(0 -0.00129498 0)
(0 -0.00134185 0)
(0 -0.00131014 0)
(0 -0.000971648 0)
(0 -0.00114389 0)
(0 -0.000621206 0)
(0 -0.00126245 0)
(0 -0.00127727 0)
(0 -0.00132405 0)
(0 -0.00129087 0)
(0 -0.00133632 0)
(0 -0.00130273 0)
(0 -0.00125781 0)
(0 -0.00126919 0)
(0 -0.0013129 0)
(0 -0.0012787 0)
(0 -0.00123595 0)
(0 -0.0012441 0)
(0 -0.000533516 0)
(0 -0.000520281 0)
(0 -0.0012864 0)
(0 -0.00125039 0)
(0 -0.00120397 0)
(0 -0.0012143 0)
(0 -0.00125623 0)
(0 -0.00121895 0)
(0 -0.00117074 0)
(0 -0.00117982 0)
(0 -0.00122372 0)
(0 -0.00118453 0)
(0 -0.00113313 0)
(0 -0.00114457 0)
(0 -0.00118881 0)
(0 -0.00114892 0)
(0 -0.00109931 0)
(0 -0.00110949 0)
(0 -0.00115194 0)
(0 -0.00111251 0)
(0 -0.00107073 0)
(0 -0.00107351 0)
(0 -0.000500648 0)
(0 -0.00115293 0)
(0 -0.00048773 0)
(0 -0.00103062 0)
(0 -0.0010345 0)
(0 -0.000468323 0)
(0 -0.000990768 0)
(0 -0.000994949 0)
(0 -0.000455817 0)
(0 -0.000436518 0)
(0 -0.000447818 0)
(0 -0.0009504 0)
(0 -0.000954941 0)
(0 -0.000997778 0)
(0 -0.000958561 0)
(0 -0.000945663 0)
(0 -0.000914941 0)
(0 -0.000919246 0)
(0 -0.000424323 0)
(0 -0.00044329 0)
(0 -0.000405238 0)
(0 -0.000874885 0)
(0 -0.000879448 0)
(0 -0.000961186 0)
(0 -0.000393199 0)
(0 -0.000374608 0)
(0 -0.000834258 0)
(0 -0.00083914 0)
(0 -0.000793388 0)
(0 -0.000798599 0)
(0 -0.000362688 0)
(0 -0.000344692 0)
(0 -0.000752745 0)
(0 -0.000758385 0)
(0 -0.000802589 0)
(0 -0.000762958 0)
(0 -0.000719111 0)
(0 -0.000723905 0)
(0 -0.000745943 0)
(0 -0.000332976 0)
(0 -0.000315558 0)
(0 -0.000325785 0)
(0 -0.000766362 0)
(0 -0.000727614 0)
(0 -0.000685407 0)
(0 -0.000689505 0)
(0 -0.000297216 0)
(0 -0.00030594 0)
(0 -0.000988735 0)
(0 -0.000942946 0)
(0 -0.000647502 0)
(0 -0.000652056 0)
(0 -0.000511324 0)
(0 -0.000543563 0)
(0 -0.000515575 0)
(0 -0.000547222 0)
(0 -0.000518605 0)
(0 -0.000549719 0)
(0 -0.000520493 0)
(0 -0.000304048 0)
(0 -0.000319947 0)
(0 -0.000768286 0)
(0 -0.000809463 0)
(0 -0.000489459 0)
(0 -0.000490854 0)
(0 -0.000610171 0)
(0 -0.000614983 0)
(0 -0.000551055 0)
(0 -0.000905279 0)
(0 -0.000278036 0)
(0 -0.000285265 0)
(0 -0.000580418 0)
(0 -0.000573426 0)
(0 -0.000578281 0)
(0 -0.000459906 0)
(0 -0.000460913 0)
(0 -0.000291253 0)
(0 -0.000305669 0)
(0 -0.000581154 0)
(0 -0.000610594 0)
(0 -0.00056732 0)
(0 -0.000427003 0)
(0 -0.000441534 0)
(0 -0.000450504 0)
(0 -0.000434062 0)
(0 -0.000458574 0)
(0 -0.000474791 0)
(0 -0.000483423 0)
(0 -0.000499927 0)
(0 -0.000509197 0)
(0 -0.000525737 0)
(0 -0.000536503 0)
(0 -0.000517744 0)
(0 -0.000546681 0)
(0 -0.000565653 0)
(0 -0.000577903 0)
(0 -0.000556831 0)
(0 -0.000590024 0)
(0 -0.000596405 0)
(0 -0.000566443 0)
(0 -0.000600414 0)
(0 -0.000573769 0)
(0 -0.000607618 0)
(0 -0.000577548 0)
(0 -0.000611324 0)
(0 -0.00064262 0)
(0 -0.000646688 0)
(0 -0.000678717 0)
(0 -0.000683689 0)
(0 -0.000649553 0)
(0 -0.000687183 0)
(0 -0.000545092 0)
(0 -0.00065085 0)
(0 -0.000688545 0)
(0 -0.000715938 0)
(0 -0.000649518 0)
(0 -0.000686385 0)
(0 -0.00064438 0)
(0 -0.000680369 0)
(0 -0.000608566 0)
(0 -0.000722708 0)
(0 -0.000716515 0)
(0 -0.000671626 0)
(0 -0.000707472 0)
(0 -0.00061841 0)
(0 -0.000581842 0)
(0 -0.000541975 0)
(0 -0.000545635 0)
(0 -0.000258123 0)
(0 -0.000263816 0)
(0 -0.000505546 0)
(0 -0.000509587 0)
(0 -0.000429984 0)
(0 -0.000430731 0)
(0 -0.000660292 0)
(0 -0.000696213 0)
(0 -0.00116341 0)
(0 -0.00125193 0)
(0 -0.000277227 0)
(0 -0.000290226 0)
(0 -0.000923269 0)
(0 -0.000584242 0)
(0 -0.000469667 0)
(0 -0.00047409 0)
(0 -0.000610668 0)
(0 -0.000640258 0)
(0 -0.000566507 0)
(0 -0.000437704 0)
(0 -0.000759436 0)
(0 -0.000646621 0)
(0 -0.000682776 0)
(0 -0.000237193 0)
(0 -0.00023205 0)
(0 -0.000240859 0)
(0 -0.0002683 0)
(0 -0.000399696 0)
(0 -0.000400246 0)
(0 -0.0004306 0)
(0 -0.000399984 0)
(0 -0.00042958 0)
(0 -0.000398841 0)
(0 -0.000427562 0)
(0 -0.000396682 0)
(0 -0.000424479 0)
(0 -0.000393564 0)
(0 -0.000434927 0)
(0 -0.000439575 0)
(0 -0.000731647 0)
(0 -0.000718301 0)
(0 -0.000667326 0)
(0 -0.000704063 0)
(0 -0.000365756 0)
(0 -0.000362705 0)
(0 -0.000261943 0)
(0 -0.000273582 0)
(0 -0.000430732 0)
(0 -0.00067763 0)
(0 -0.000440732 0)
(0 -0.000369449 0)
(0 -0.000754099 0)
(0 -0.000741975 0)
(0 -0.000684955 0)
(0 -0.000723875 0)
(0 -0.000786071 0)
(0 -0.000762072 0)
(0 -0.000700455 0)
(0 -0.000740249 0)
(0 -0.000802931 0)
(0 -0.000778861 0)
(0 -0.00071571 0)
(0 -0.000755679 0)
(0 -0.000244014 0)
(0 -0.000271828 0)
(0 -0.000212009 0)
(0 -0.000207171 0)
(0 -0.000824972 0)
(0 -0.000792491 0)
(0 -0.000727211 0)
(0 -0.00076422 0)
(0 -0.000639554 0)
(0 -0.000669346 0)
(0 -0.000400709 0)
(0 -0.000405758 0)
(0 -0.000420406 0)
(0 -0.000829383 0)
(0 -0.000801455 0)
(0 -0.00073254 0)
(0 -0.00076889 0)
(0 -0.000477048 0)
(0 -0.000838039 0)
(0 -0.000805088 0)
(0 -0.000734988 0)
(0 -0.000771426 0)
(0 -0.000334808 0)
(0 -0.000331925 0)
(0 -0.000247057 0)
(0 -0.000699691 0)
(0 -0.000736043 0)
(0 -0.000807253 0)
(0 -0.000772295 0)
(0 -0.00084276 0)
(0 -0.000808912 0)
(0 -0.0007369 0)
(0 -0.000774579 0)
(0 -0.000845532 0)
(0 -0.000811652 0)
(0 -0.000738741 0)
(0 -0.000775834 0)
(0 -0.000847333 0)
(0 -0.000811326 0)
(0 -0.000738503 0)
(0 -0.000773659 0)
(0 -0.000302521 0)
(0 -0.000999217 0)
(0 -0.000845584 0)
(0 -0.000806854 0)
(0 -0.000734164 0)
(0 -0.000766918 0)
(0 -0.000367375 0)
(0 -0.000245444 0)
(0 -0.000234497 0)
(0 -0.000255755 0)
(0 -0.000188219 0)
(0 -0.000183456 0)
(0 -0.000838526 0)
(0 -0.000798476 0)
(0 -0.000725872 0)
(0 -0.000757573 0)
(0 -0.000683862 0)
(0 -0.000715409 0)
(0 -0.000788349 0)
(0 -0.000746507 0)
(0 -0.000270377 0)
(0 -0.000260851 0)
(0 -0.000288135 0)
(0 -0.000278273 0)
(0 -0.000305109 0)
(0 -0.000296103 0)
(0 -0.000322353 0)
(0 -0.000315388 0)
(0 -0.000341814 0)
(0 -0.000336653 0)
(0 -0.000367667 0)
(0 -0.000360058 0)
(0 -0.000389515 0)
(0 -0.000384583 0)
(0 -0.000414316 0)
(0 -0.000410889 0)
(0 -0.000381238 0)
(0 -0.000408288 0)
(0 -0.000378759 0)
(0 -0.00040614 0)
(0 -0.000377278 0)
(0 -0.00040544 0)
(0 -0.000376125 0)
(0 -0.000406032 0)
(0 -0.000376111 0)
(0 -0.000407125 0)
(0 -0.000377814 0)
(0 -0.000409383 0)
(0 -0.000380332 0)
(0 -0.000412705 0)
(0 -0.000383815 0)
(0 -0.000417354 0)
(0 -0.000446736 0)
(0 -0.000452202 0)
(0 -0.000423145 0)
(0 -0.000436244 0)
(0 -0.00048221 0)
(0 -0.000458878 0)
(0 -0.00042992 0)
(0 -0.000439527 0)
(0 -0.000466737 0)
(0 -0.000437369 0)
(0 -0.000476028 0)
(0 -0.000447838 0)
(0 -0.00050396 0)
(0 -0.000399643 0)
(0 -0.000486737 0)
(0 -0.000459381 0)
(0 -0.000349047 0)
(0 -0.000818314 0)
(0 -0.000777355 0)
(0 -0.000705031 0)
(0 -0.000736757 0)
(0 -0.00080783 0)
(0 -0.000767484 0)
(0 -0.000695595 0)
(0 -0.000725616 0)
(0 -0.000796425 0)
(0 -0.000753995 0)
(0 -0.000682582 0)
(0 -0.000710829 0)
(0 -0.000513866 0)
(0 -0.000780843 0)
(0 -0.000737881 0)
(0 -0.000667675 0)
(0 -0.000695257 0)
(0 -0.000624606 0)
(0 -0.000652761 0)
(0 -0.000721933 0)
(0 -0.000679904 0)
(0 -0.000274331 0)
(0 -0.0002449 0)
(0 -0.000610502 0)
(0 -0.000638148 0)
(0 -0.000705837 0)
(0 -0.000664606 0)
(0 -0.000451471 0)
(0 -0.000446454 0)
(0 -0.000477773 0)
(0 -0.000351917 0)
(0 -0.000597109 0)
(0 -0.00062418 0)
(0 -0.000667839 0)
(0 -0.000697825 0)
(0 -0.000698685 0)
(0 -0.000727338 0)
(0 -0.000727415 0)
(0 -0.00075637 0)
(0 -0.000755744 0)
(0 -0.00078493 0)
(0 -0.000783546 0)
(0 -0.000813053 0)
(0 -0.000810737 0)
(0 -0.000840632 0)
(0 -0.000837437 0)
(0 -0.000867554 0)
(0 -0.000863461 0)
(0 -0.000893813 0)
(0 -0.000919295 0)
(0 -0.000611187 0)
(0 -0.000165475 0)
(0 -0.00016086 0)
(0 -0.000497579 0)
(0 -0.000219918 0)
(0 -0.000303948 0)
(0 -0.000471748 0)
(0 -0.000503294 0)
(0 -0.000342704 0)
(0 -0.000301209 0)
(0 -0.000218124 0)
(0 -0.000207905 0)
(0 -0.000310479 0)
(0 -0.000556535 0)
(0 -0.000583797 0)
(0 -0.000419059 0)
(0 -0.000741242 0)
(0 -0.000813692 0)
(0 -0.000372711 0)
(0 -0.000334887 0)
(0 -0.000328188 0)
(0 -0.00014398 0)
(0 -0.000139503 0)
(0 -0.000440466 0)
(0 -0.000296433 0)
(0 -0.00014679 0)
(0 -0.000730345 0)
(0 -0.000695649 0)
(0 -0.000949547 0)
(0 -0.000515895 0)
(0 -0.000543082 0)
(0 -0.000609377 0)
(0 -0.000568792 0)
(0 -0.000502615 0)
(0 -0.000528381 0)
(0 -0.000592511 0)
(0 -0.000552369 0)
(0 -0.000488529 0)
(0 -0.000512551 0)
(0 -0.000191608 0)
(0 -0.000182196 0)
(0 -0.000273129 0)
(0 -0.000274899 0)
(0 -0.00027058 0)
(0 -0.000496175 0)
(0 -0.000527946 0)
(0 -0.000254096 0)
(0 -0.000123675 0)
(0 -0.000119491 0)
(0 -0.000303562 0)
(0 -0.000707427 0)
(0 -0.000743563 0)
(0 -0.000731349 0)
(0 -0.000766717 0)
(0 -0.000751267 0)
(0 -0.00078684 0)
(0 -0.000768891 0)
(0 -0.000804093 0)
(0 -0.000784086 0)
(0 -0.00082385 0)
(0 -0.000816884 0)
(0 -0.000794933 0)
(0 -0.00076301 0)
(0 -0.000772001 0)
(0 -0.000740229 0)
(0 -0.000747221 0)
(0 -0.000715708 0)
(0 -0.000721228 0)
(0 -0.000690556 0)
(0 -0.000802632 0)
(0 -0.000694951 0)
(0 -0.000665434 0)
(0 -0.000725148 0)
(0 -0.000449513 0)
(0 -0.000474061 0)
(0 -0.000487362 0)
(0 -0.000288162 0)
(0 -0.000297541 0)
(0 -0.000267263 0)
(0 -0.000240213 0)
(0 -0.000237305 0)
(0 -0.000266524 0)
(0 -0.000165943 0)
(0 -0.000157491 0)
(0 -0.000173948 0)
(0 -0.000697986 0)
(0 -0.000727927 0)
(0 -0.000546326 0)
(0 -0.000515101 0)
(0 -0.000514377 0)
(0 -0.000483838 0)
(0 -0.000480177 0)
(0 -0.000449381 0)
(0 -0.000442197 0)
(0 -0.000410215 0)
(0 -0.000417562 0)
(0 -0.000378194 0)
(0 -0.00038645 0)
(0 -0.000399414 0)
(0 -0.000347401 0)
(0 -0.000357383 0)
(0 -0.000318185 0)
(0 -0.000330877 0)
(0 -0.000288892 0)
(0 -0.000296949 0)
(0 -0.000661102 0)
(0 -0.000637101 0)
(0 -0.000104769 0)
(0 -0.000100837 0)
(0 -0.00030011 0)
(0 -0.00030389 0)
(0 -0.000614639 0)
(0 -0.000114008 0)
(0 -9.55855e-05 0)
(0 -0.000633358 0)
(0 -0.000610541 0)
(0 -0.000612898 0)
(0 -0.000587351 0)
(0 -0.000411484 0)
(0 -0.000436611 0)
(0 -0.000259162 0)
(0 -0.000267248 0)
(0 -0.000300819 0)
(0 -0.000273477 0)
(0 -8.35929e-05 0)
(0 -0.000586104 0)
(0 -0.000563746 0)
(0 -0.000273453 0)
(0 -0.000305022 0)
(0 -0.000238563 0)
(0 -0.000329331 0)
(0 -0.000333772 0)
(0 -0.000359234 0)
(0 -0.000519794 0)
(0 -0.000551911 0)
(0 -0.000256226 0)
(0 -0.000107211 0)
(0 -8.89525e-05 0)
(0 -9.8999e-05 0)
(0 -0.000564054 0)
(0 -0.000541671 0)
(0 -0.000541385 0)
(0 -0.000520434 0)
(0 -0.000520433 0)
(0 -0.000500054 0)
(0 -0.000500455 0)
(0 -0.000480658 0)
(0 -0.000481428 0)
(0 -0.00046223 0)
(0 -0.000726154 0)
(0 -0.000237515 0)
(0 -0.000499324 0)
(0 -0.000460988 0)
(0 -0.000399033 0)
(0 -0.000421953 0)
(0 -0.000482264 0)
(0 -0.000443011 0)
(0 -0.000384721 0)
(0 -0.000405932 0)
(0 -0.000461832 0)
(0 -0.000425479 0)
(0 -0.000369816 0)
(0 -0.000389874 0)
(0 -0.000363579 0)
(0 -0.000389944 0)
(0 -0.000210115 0)
(0 -0.000207364 0)
(0 -0.000290113 0)
(0 -0.000665116 0)
(0 -0.000692126 0)
(0 -0.000334631 0)
(0 -0.000355027 0)
(0 -0.000432417 0)
(0 -0.000385647 0)
(0 -0.0004203 0)
(0 -0.000370041 0)
(0 -0.000406358 0)
(0 -0.00035383 0)
(0 -0.000391125 0)
(0 -0.00031841 0)
(0 -0.000580712 0)
(0 -0.000393602 0)
(0 -0.000421535 0)
(0 -0.000428253 0)
(0 -0.000385354 0)
(0 -0.000200694 0)
(0 -0.000293024 0)
(0 -0.000244547 0)
(0 -0.000141219 0)
(0 -0.000392547 0)
(0 -0.000463178 0)
(0 -0.000699763 0)
(0 -0.000730005 0)
(0 -0.000758908 0)
(0 -0.000761689 0)
(0 -0.000791183 0)
(0 -0.000209326 0)
(0 -0.000216407 0)
(0 -0.000424406 0)
(0 -0.000454027 0)
(0 -0.000337056 0)
(0 -0.000374178 0)
(0 -0.000498887 0)
(0 -0.0002253 0)
(0 -0.000261006 0)
(0 -0.000229809 0)
(0 -0.000535009 0)
(0 -0.000308883 0)
(0 -0.00028164 0)
(0 -0.000265003 0)
(0 -0.000233636 0)
(0 -0.000172271 0)
(0 -0.000300383 0)
(0 -0.000320705 0)
(0 -0.00079492 0)
(0 -0.000824723 0)
(0 -0.000497879 0)
(0 -0.000753384 0)
(0 -0.000413486 0)
(0 -0.000182532 0)
(0 -0.000190261 0)
(0 -0.000350206 0)
(0 -0.000299673 0)
(0 -0.00027218 0)
(0 -0.000291354 0)
(0 -0.000262715 0)
(0 -0.000284288 0)
(0 -0.000255864 0)
(0 -0.000203175 0)
(0 -8.08259e-05 0)
(0 -8.9191e-05 0)
(0 -0.000929517 0)
(0 -0.000730654 0)
(0 -0.000878019 0)
(0 -0.000581495 0)
(0 -0.000540724 0)
(0 -0.000562909 0)
(0 -0.000762953 0)
(0 -0.000799838 0)
(0 -0.000875956 0)
(0 -0.000373575 0)
(0 -0.000339229 0)
(0 -0.000287076 0)
(0 -0.00030578 0)
(0 -0.000834694 0)
(0 -0.000859135 0)
(0 -0.000661091 0)
(0 -0.000687194 0)
(0 -0.000718385 0)
(0 -0.000712689 0)
(0 -0.000744069 0)
(0 -0.000680955 0)
(0 -0.000705945 0)
(0 -0.000780129 0)
(0 -0.000610885 0)
(0 -0.000897025 0)
(0 -0.000482754 0)
(0 -0.000771795 0)
(0 -0.000794173 0)
(0 -0.000835619 0)
(0 -0.000855863 0)
(0 -0.00081473 0)
(0 -0.000897023 0)
(0 -0.000873897 0)
(0 -0.00083344 0)
(0 -0.000876619 0)
(0 -0.000937017 0)
(0 -0.000916843 0)
(0 -0.000575239 0)
(0 -0.00136901 0)
(0 -0.00119194 0)
(0 -0.00119093 0)
(0 -0.00122895 0)
(0 -0.00122635 0)
(0 -0.00126348 0)
(0 -0.00125963 0)
(0 -0.00129573 0)
(0 -0.00129093 0)
(0 -0.00132623 0)
(0 -0.00132042 0)
(0 -0.00128543 0)
(0 -0.00131389 0)
(0 -0.00127938 0)
(0 -0.001355 0)
(0 -0.00130671 0)
(0 -0.0012727 0)
(0 -0.00136084 0)
(0 -0.00138886 0)
(0 -0.00139491 0)
(0 -0.00129869 0)
(0 -0.00126525 0)
(0 -0.00142176 0)
(0 -0.00142784 0)
(0 -0.00145352 0)
(0 -0.00145917 0)
(0 -0.00144616 0)
(0 -0.0012897 0)
(0 -0.00125692 0)
(0 -0.0014843 0)
(0 -0.00148962 0)
(0 -0.00151372 0)
(0 -0.00151906 0)
(0 -0.00132226 0)
(0 -0.00131163 0)
(0 -0.00154199 0)
(0 -0.00154739 0)
(0 -0.00152339 0)
(0 -0.00155183 0)
(0 -0.00134336 0)
(0 -0.00123167 0)
(0 -0.0012236 0)
(0 -0.00157473 0)
(0 -0.00157908 0)
(0 -0.00155517 0)
(0 -0.00158219 0)
(0 -0.00160475 0)
(0 -0.0016076 0)
(0 -0.00133113 0)
(0 -0.00158388 0)
(0 -0.00160905 0)
(0 -0.00163126 0)
(0 -0.00163218 0)
(0 -0.00160933 0)
(0 -0.00163202 0)
(0 -0.00160881 0)
(0 -0.00163085 0)
(0 -0.00165355 0)
(0 -0.00165217 0)
(0 -0.00162891 0)
(0 -0.0016493 0)
(0 -0.00167147 0)
(0 -0.00166728 0)
(0 -0.00164222 0)
(0 -0.00166135 0)
(0 -0.00168349 0)
(0 -0.00167624 0)
(0 -0.00164964 0)
(0 -0.00166686 0)
(0 -0.00168988 0)
(0 -0.00168032 0)
(0 -0.00165639 0)
(0 -0.00166908 0)
(0 -0.0016445 0)
(0 -0.00165619 0)
(0 -0.00167943 0)
(0 -0.00166658 0)
(0 -0.00164145 0)
(0 -0.00165132 0)
(0 -0.00167757 0)
(0 -0.00165903 0)
(0 -0.00163468 0)
(0 -0.0016411 0)
(0 -0.00166314 0)
(0 -0.00164491 0)
(0 -0.00162261 0)
(0 -0.00162454 0)
(0 -0.00164582 0)
(0 -0.00162444 0)
(0 -0.00160255 0)
(0 -0.00160134 0)
(0 -0.00162175 0)
(0 -0.00159786 0)
(0 -0.00157623 0)
(0 -0.00157219 0)
(0 -0.00159223 0)
(0 -0.00156616 0)
(0 -0.00154453 0)
(0 -0.0015373 0)
(0 -0.00155802 0)
(0 -0.00152833 0)
(0 -0.00154857 0)
(0 -0.00151847 0)
(0 -0.00153833 0)
(0 -0.00150736 0)
(0 -0.00148727 0)
(0 -0.00147538 0)
(0 -0.00149405 0)
(0 -0.00146136 0)
(0 -0.00147842 0)
(0 -0.00144088 0)
(0 -0.00146161 0)
(0 -0.00142706 0)
(0 -0.0014442 0)
(0 -0.00140806 0)
(0 -0.00142302 0)
(0 -0.0013814 0)
(0 -0.00139925 0)
(0 -0.00136226 0)
(0 -0.00137563 0)
(0 -0.00133807 0)
(0 -0.00132607 0)
(0 -0.0015151 0)
(0 -0.00139028 0)
(0 -0.00144329 0)
(0 -0.00135078 0)
(0 -0.00131168 0)
(0 -0.00119729 0)
(0 -0.00118913 0)
(0 -0.00121417 0)
(0 -0.00117974 0)
(0 -0.00115385 0)
(0 -0.00114465 0)
(0 -0.00111803 0)
(0 -0.00110841 0)
(0 -0.00108174 0)
(0 -0.00107155 0)
(0 -0.00156762 0)
(0 -0.00153504 0)
(0 -0.00149595 0)
(0 -0.00132466 0)
(0 -0.00104487 0)
(0 -0.00103459 0)
(0 -0.00128428 0)
(0 -0.00136368 0)
(0 -0.00136191 0)
(0 -0.00120343 0)
(0 -0.00143677 0)
(0 -0.00105832 0)
(0 -0.00100763 0)
(0 -0.000997757 0)
(0 -0.00129747 0)
(0 -0.00134808 0)
(0 -0.00143222 0)
(0 -0.000970447 0)
(0 -0.000960923 0)
(0 -0.00125591 0)
(0 -0.00124202 0)
(0 -0.000933304 0)
(0 -0.000924231 0)
(0 -0.000896268 0)
(0 -0.000887778 0)
(0 -0.000859583 0)
(0 -0.00085137 0)
(0 -0.000978981 0)
(0 -0.000823166 0)
(0 -0.000815228 0)
(0 -0.00118898 0)
(0 -0.00126983 0)
(0 -0.00109016 0)
(0 -0.00137792 0)
(0 -0.000839947 0)
(0 -0.00121271 0)
(0 -0.00119862 0)
(0 -0.00139189 0)
(0 -0.000786976 0)
(0 -0.000779322 0)
(0 -0.00136268 0)
(0 -0.00133317 0)
(0 -0.00140686 0)
(0 -0.00142112 0)
(0 -0.000948616 0)
(0 -0.00134631 0)
(0 -0.00131719 0)
(0 -0.000750963 0)
(0 -0.00074376 0)
(0 -0.00116868 0)
(0 -0.00115525 0)
(0 -0.00118523 0)
(0 -0.0011428 0)
(0 -0.00117286 0)
(0 -0.00113104 0)
(0 -0.00116075 0)
(0 -0.00111966 0)
(0 -0.00114922 0)
(0 -0.000715119 0)
(0 -0.000708534 0)
(0 -0.00067946 0)
(0 -0.000673335 0)
(0 -0.00064413 0)
(0 -0.000638156 0)
(0 -0.000609162 0)
(0 -0.00143505 0)
(0 -0.00144982 0)
(0 -0.000664161 0)
(0 -0.000601753 0)
(0 -0.00132873 0)
(0 -0.00130008 0)
(0 -0.000756717 0)
(0 -0.00146247 0)
(0 -0.00147765 0)
(0 -0.00118272 0)
(0 -0.001266 0)
(0 -0.0017018 0)
(0 -0.00135434 0)
(0 -0.00165323 0)
(0 -0.00156234 0)
(0 -0.00155371 0)
(0 -0.00157989 0)
(0 -0.00156988 0)
(0 -0.00159488 0)
(0 -0.00160448 0)
(0 -0.00161824 0)
(0 -0.00162781 0)
(0 -0.00141908 0)
(0 -0.00165084 0)
(0 -0.00167155 0)
(0 -0.00166773 0)
(0 -0.00168725 0)
(0 -0.0016818 0)
(0 -0.00169084 0)
(0 -0.00170517 0)
(0 -0.00170893 0)
(0 -0.000806983 0)
(0 -0.00140438 0)
(0 -0.000542611 0)
(0 -0.00051052 0)
(0 -0.000574944 0)
(0 -0.00170987 0)
(0 -0.00172083 0)
(0 -0.00172742 0)
(0 -0.0017375 0)
(0 -0.00174294 0)
(0 -0.00175157 0)
(0 -0.00174542 0)
(0 -0.000179837 0)
(0 -0.000176119 0)
(0 -0.000181635 0)
(0 -0.00131092 0)
(0 -0.00128376 0)
(0 -0.00132471 0)
(0 -0.00088762 0)
(0 -0.000927599 0)
(0 -0.000954449 0)
(0 -0.000993419 0)
(0 -0.00101899 0)
(0 -0.00105656 0)
(0 -0.00103089 0)
(0 -0.00090999 0)
(0 -0.00094131 0)
(0 -0.000973569 0)
(0 -0.00100276 0)
(0 -0.00103357 0)
(0 -0.00106082 0)
(0 -0.00102945 0)
(0 -0.00108605 0)
(0 -0.00105399 0)
(0 -0.000354747 0)
(0 -0.000640845 0)
(0 -0.000608405 0)
(0 -0.000564637 0)
(0 -0.000530936 0)
(0 -0.000486655 0)
(0 -0.000451599 0)
(0 -0.000495755 0)
(0 -0.000407046 0)
(0 -0.000442764 0)
(0 -0.000882504 0)
(0 -0.000107291 0)
(0 -0.000380028 0)
(0 -0.000806281 0)
(0 -0.000993589 0)
(0 -8.95818e-05 0)
(0 -9.04826e-05 0)
(0 -7.20631e-05 0)
(0 -0.000663133 0)
(0 -0.000626117 0)
(0 -0.000588847 0)
(0 -0.000550821 0)
(0 -0.000513457 0)
(0 -0.000474619 0)
(0 -0.000512128 0)
(0 -0.000437544 0)
(0 -0.000474998 0)
(0 -0.000434901 0)
(0 -0.000474182 0)
(0 -0.000395989 0)
(0 -0.000437356 0)
(0 -0.000506623 0)
(0 -0.00119734 0)
(0 -0.000312777 0)
(0 -0.000642241 0)
(0 -0.000512436 0)
(0 -0.0013796 0)
(0 -0.00141126 0)
(0 -0.00142 0)
(0 -0.00145052 0)
(0 -0.00145771 0)
(0 -0.0014408 0)
(0 -0.001479 0)
(0 -0.0014685 0)
(0 -0.000980552 0)
(0 -0.00113598 0)
(0 -0.00120261 0)
(0 -0.000503012 0)
(0 -0.000901268 0)
(0 -0.000893051 0)
(0 -0.00106367 0)
(0 -0.00034756 0)
(0 -0.0010046 0)
(0 -0.00106277 0)
(0 -0.00103466 0)
(0 -0.00109223 0)
(0 -0.00106469 0)
(0 -0.0014262 0)
(0 -0.0014442 0)
(0 -0.00146513 0)
(0 -0.00148155 0)
(0 -0.00150142 0)
(0 -0.00151588 0)
(0 -0.001496 0)
(0 -0.00104344 0)
(0 -0.00100581 0)
(0 -0.000595507 0)
(0 -0.00107018 0)
(0 -0.000705403 0)
(0 -0.000696811 0)
(0 -0.000737922 0)
(0 -0.000446791 0)
(0 -0.00041694 0)
(0 -0.000376616 0)
(0 -0.000552174 0)
(0 -0.000521792 0)
(0 -0.000478523 0)
(0 -0.000446747 0)
(0 -0.000403773 0)
(0 -0.000905262 0)
(0 -0.00164982 0)
(0 -0.00119611 0)
(0 -0.00026344 0)
(0 -0.000977789 0)
(0 -0.00101139 0)
(0 -0.00123704 0)
(0 -0.00120445 0)
(0 -0.000457646 0)
(0 -0.00163077 0)
(0 -0.000534536 0)
(0 -0.00142663 0)
(0 -0.00146293 0)
(0 -0.00143152 0)
(0 -0.000490671 0)
(0 -0.000413965 0)
(0 -0.000999712 0)
(0 -0.00152188 0)
(0 -0.0014923 0)
(0 -0.0014984 0)
(0 -0.00146865 0)
(0 -0.00147399 0)
(0 -0.00144408 0)
(0 -0.0014376 0)
(0 -0.00144851 0)
(0 -0.00147772 0)
(0 -0.00141329 0)
(0 -0.00140618 0)
(0 -0.00145061 0)
(0 -0.00147882 0)
(0 -0.00148505 0)
(0 -0.00059568 0)
(0 -0.001089 0)
(0 -0.00114185 0)
(0 -0.00110821 0)
(0 -0.00110387 0)
(0 -0.00107041 0)
(0 -0.00106415 0)
(0 -0.00107482 0)
(0 -0.00103732 0)
(0 -0.00104173 0)
(0 -0.00100474 0)
(0 -0.00100911 0)
(0 -0.00097292 0)
(0 -0.000976548 0)
(0 -0.000966459 0)
(0 -0.000935151 0)
(0 -0.00100987 0)
(0 -0.000976405 0)
(0 -0.00100653 0)
(0 -0.000972534 0)
(0 -0.00100019 0)
(0 -0.000966412 0)
(0 -0.000991518 0)
(0 -0.000941531 0)
(0 -0.000154842 0)
(0 -0.000204537 0)
(0 -0.000200663 0)
(0 -0.000223847 0)
(0 -0.000220461 0)
(0 -0.00175405 0)
(0 -0.00174111 0)
(0 -0.00174472 0)
(0 -0.00173067 0)
(0 -0.0017335 0)
(0 -0.00171832 0)
(0 -0.00172067 0)
(0 -0.00173551 0)
(0 -0.00170402 0)
(0 -0.00170121 0)
(0 -0.00172227 0)
(0 -0.00173627 0)
(0 -0.00173257 0)
(0 -0.00174707 0)
(0 -0.000268282 0)
(0 -0.000236752 0)
(0 -0.000202149 0)
(0 -0.00166221 0)
(0 -0.00163834 0)
(0 -0.00165097 0)
(0 -0.00162626 0)
(0 -0.00163794 0)
(0 -0.00160836 0)
(0 -0.000912041 0)
(0 -0.000445168 0)
(0 -0.000448813 0)
(0 -0.000476571 0)
(0 -0.000478872 0)
(0 -0.000508267 0)
(0 -0.000449252 0)
(0 -0.000510522 0)
(0 -0.000540449 0)
(0 -0.00053861 0)
(0 -0.000571423 0)
(0 -0.00057072 0)
(0 -0.000604393 0)
(0 -0.000604439 0)
(0 -0.000570722 0)
(0 -0.000605147 0)
(0 -0.000571328 0)