/*--------------------------------*- C++ -*----------------------------------*\
| =========                 |                                                 |
| \\      /  F ield         | OpenFOAM: The Open Source CFD Toolbox           |
|  \\    /   O peration     | Version:  v2012                                 |
|   \\  /    A nd           | Website:  www.openfoam.com                      |
|    \\/     M anipulation  |                                                 |
\*---------------------------------------------------------------------------*/
FoamFile
{
    version     2.0;
    format      ascii;
    class       volScalarField;
    location    "850";
    object      omega_0;
}
// * * * * * * * * * * * * * * * * * * * * * * * * * * * * * * * * * * * * * //

dimensions      [0 0 -1 0 0 0 0];


internalField   nonuniform List<scalar> 
10042
(
0.0219132
0.0220476
0.0218804
0.0232129
12.4234
0.0220689
5.92166
0.513646
0.0217505
0.0220082
5.69066
0.0231541
0.0215362
0.0214979
0.0235763
0.02203
0.0220215
0.0222586
0.0219156
0.137317
0.0219028
0.194328
0.0215942
0.0216231
0.0220548
0.0277766
0.0221319
0.0227135
0.0217917
0.0223809
0.0220188
5.81668
0.0220193
0.0222554
0.0256782
0.0216352
0.0271515
0.0311184
0.0216369
0.0294601
0.14719
0.0231906
5.78037
0.0220153
12.5749
0.0547185
0.0223374
0.0852503
0.0265065
0.0436077
0.0221671
0.0222426
0.0232164
0.0227515
0.0271782
0.0220616
0.0217915
0.0223066
0.0222464
0.0230366
0.0220432
0.0220012
0.0258747
0.0218618
0.0222587
0.0222556
0.02205
0.0749849
6.10325
0.0218915
0.022705
0.161221
0.0220186
0.0322082
0.0220258
0.0216204
11.955
0.0219252
0.0300608
6.16076
0.0258962
13.1306
0.0220032
0.0228167
0.0220564
0.0222141
0.0218932
0.168587
0.021954
0.0218949
0.0221498
13.3163
0.0227884
0.022175
0.0223355
0.0218694
0.0219337
0.0218644
0.0289716
0.0217888
0.0222908
0.111738
0.758123
0.0222028
0.0226036
0.0517888
0.0219154
0.0219277
0.0219112
0.0214571
0.0217143
0.0218368
0.0255551
5.7466
0.0222479
0.021849
0.0219437
0.0219211
0.0218672
6.25255
0.0219469
0.316336
0.0220466
0.0219835
0.109967
0.0220072
0.398772
0.0273268
0.0497875
0.0218874
0.0310584
0.0220202
5.04466
0.19152
0.0217894
0.0586072
5.18031
0.0221592
0.0891162
0.195517
0.0227216
0.0219412
0.0224896
0.157334
0.0219089
0.0218362
0.0578611
0.0215501
0.0218774
0.0252166
0.0217711
0.0222555
4.90759
5.58512
0.022186
0.0215311
0.0226154
0.021993
0.0596108
10.8454
6.58179
0.124981
0.0219859
0.0217721
0.0220654
0.022001
0.0612479
25.3936
6.32397
6.088
0.0224392
0.021843
13.5772
0.177873
0.0383285
4.85421
12.2863
0.0220324
0.0871269
0.0313916
0.0227595
5.63699
0.0221096
0.0272709
0.0230708
7.09404
0.238499
0.022061
5.88221
0.0235995
3.0871
0.0224871
4.68833
10.7155
0.0944304
3.43692
0.0248226
0.0219263
0.0215356
0.0233146
0.0372013
0.0220978
0.0218297
0.180131
0.022092
0.0216847
5.03221
0.022157
0.0222604
0.0222432
1.32623
0.0218875
0.0565523
0.363241
0.022587
0.249764
0.0219731
0.0219875
0.0648366
0.0217744
0.0256373
0.0227451
0.437548
0.0320623
0.0254141
0.028488
0.353735
0.0218426
0.162128
0.022893
0.0217499
0.143665
0.0218511
0.0228649
0.0219086
0.0253874
0.021712
0.0214838
0.0230052
0.0250693
0.0219931
0.022051
0.0220217
0.025634
0.021849
0.0220274
0.0216251
0.022666
0.0225741
0.0222689
0.0215373
0.021882
0.0242575
0.597945
0.125355
7.05704
0.0389584
0.0376328
0.0237615
0.0615581
4.95496
0.0228237
0.0219186
0.0215027
0.0232522
0.0217112
0.227294
0.0229979
0.0218894
0.0222509
0.0389406
0.0226143
0.328138
0.0382455
0.20463
0.0236882
0.0250349
0.0217151
0.024426
0.0219269
0.0326105
0.0219212
0.027834
5.11087
0.0216863
0.0218357
4.99362
0.0563936
0.0220306
0.0220421
0.0239819
4.73726
0.0528891
0.164521
0.022182
0.0215319
0.0218435
0.0217645
0.358808
0.0218887
0.0220371
0.0218413
0.0219742
0.0318159
0.0238007
0.0790739
10.3384
0.0228237
6.81256
0.0218509
0.0242451
0.0221233
8.03557
0.10981
2.55311
14.1309
0.0216057
0.0230186
0.0218966
0.0239707
0.028558
0.0222419
0.0326108
0.0217085
0.0214998
0.0220355
0.0858178
0.022284
0.0233237
0.0219813
0.0236399
6.39588
0.0218513
0.0221764
0.0219883
0.0218367
0.0419591
0.094273
0.0374989
0.976233
0.0321829
0.0264069
0.0219983
0.02148
0.0222166
0.0222681
0.432754
0.0219217
0.0222582
0.0938725
0.0218319
0.0246715
0.022936
0.0997354
0.0218782
0.0252126
0.0468253
0.032355
0.023226
0.0219323
2.30951
0.0587729
0.0222184
0.0415682
0.021947
0.0218546
0.021945
0.024595
1.06893
0.0238385
0.0222495
0.0228015
0.0222923
0.0222711
0.135424
0.0219301
0.0216219
5.26147
0.0218389
2.33507
0.413401
0.0328086
4.48303
8.20116
0.0277314
0.146782
0.0221588
0.0450749
0.0222914
0.0222463
0.206225
0.0220643
0.0242207
13.4461
0.0220212
0.0219042
0.0507642
2.41521
0.0221792
0.0215479
5.87009
0.111094
0.0218396
0.0754163
15.2851
0.0217733
0.0222642
0.0216434
0.021872
0.0214805
0.0216795
3.90373
1.03236
0.0222843
10.5678
0.0215
0.0218884
0.700231
0.0220084
2.48039
0.0569993
0.0228294
0.0215947
0.0215401
0.150399
0.0225244
0.0277374
0.0223825
5.20997
0.0224706
6.3791
0.0233829
0.0219345
0.0218492
0.795884
0.0219501
0.0257453
0.0218769
0.0218586
7.21636
0.0249194
0.0219331
0.0217487
6.36613
0.0218796
0.0252294
0.0232388
0.0217161
10.4666
4.52182
0.0218835
0.0221928
0.0239557
0.0215367
0.022007
0.0219725
6.11613
0.0219958
0.0217513
0.0284999
0.537538
0.0584055
0.0222686
0.0309841
21.0088
0.0333251
0.0219388
0.0219376
0.190516
0.022158
0.0219407
0.0293024
0.0217903
0.0216805
0.0228976
0.0215695
0.0384209
0.0219127
0.0219542
7.33486
0.0217638
0.0223821
0.0220664
0.0223161
0.0324348
0.0218877
0.0218165
2.43711
0.0224987
6.87806
0.0227976
0.022282
0.0222767
0.137937
0.0219153
0.0219382
0.0220128
0.0222827
0.0277419
6.34943
0.0218831
0.0381624
4.81184
0.0331913
0.0222613
0.0219592
0.0220175
0.0222036
0.0218615
2.03644
5.33975
0.0220743
0.0273514
0.0271204
0.0267068
0.0220345
0.0216613
0.307429
0.142381
3.53039
0.0215903
0.0220568
0.0219723
0.0218438
6.62645
0.0342739
0.0222889
0.0218482
0.0218017
0.0220013
0.300135
0.0249059
0.0221395
7.47304
1.53221
0.471545
0.0527642
0.0220145
0.021796
0.049615
0.0525562
3.83511
26.3731
0.024737
0.0260657
0.0222109
0.0232717
0.0221784
0.0222002
5.98981
0.0216186
0.021854
0.0518668
0.0222107
0.228186
0.0226452
0.124824
0.0291575
0.0222452
0.0229129
0.0256687
0.0345998
0.052783
0.085648
0.0222824
0.0435229
0.0228307
0.0218689
0.022119
0.0222448
0.0220345
0.0249941
0.0585811
0.0413129
0.0221429
0.0225522
0.0220087
0.0219198
0.131052
0.0219291
0.0232138
0.170701
0.0215713
0.0526628
0.0653833
0.0220394
6.93164
0.0388191
0.0222104
0.270937
0.0219596
0.0222687
0.0219742
0.0219801
0.0222924
0.0237078
0.0220089
1.08145
0.0227234
0.0219639
0.022176
0.0328852
0.0315176
0.0219788
0.023752
0.0217967
0.0302376
0.0219434
0.0293072
0.0216264
0.0229838
0.0215385
0.0219315
9.98613
0.0216497
0.117347
0.0219678
0.0225661
0.0217455
0.0311696
0.0220749
0.0404048
0.0220264
0.23816
0.0222624
5.52797
0.0215462
0.0234786
0.0222717
0.0219911
0.0219585
0.0236652
0.0220339
0.126944
34.4162
0.230014
0.0235032
0.0365775
0.0218224
0.0386181
0.0546301
0.0220117
0.0289829
0.0901549
4.28635
0.0659904
10.4512
0.0263638
0.0221279
0.0222317
0.0241701
0.0236906
0.0322726
0.0216098
0.0232637
0.113324
0.0222649
0.0219209
0.0240325
8.79731
0.0233184
0.0298655
0.049375
0.0222519
6.00918
0.0216257
0.0218298
0.0224055
0.0217968
6.95099
0.0614131
7.74338
0.0220569
5.03175
9.98135
0.407122
0.0321188
0.0617447
0.160297
0.0405391
0.0219818
0.0218812
0.0301226
9.02823
0.0218157
0.0291788
7.70015
0.0219075
0.0219079
0.0218756
0.0228758
0.0219505
0.0219194
0.13537
6.11128
0.0218949
0.0219981
5.04312
3.82708
0.021826
0.0219424
0.0221551
0.0218757
0.767254
0.0612613
0.312791
0.022603
0.0219021
0.0217505
0.0227877
0.022052
0.0305516
0.0226229
10.1839
0.0220051
0.0220752
0.0408074
0.0218108
0.0306066
0.0672949
0.0227688
34.1208
6.24167
0.0221335
0.0218581
8.12794
7.10774
0.0354126
0.0219357
0.501539
0.199218
0.0257005
0.0219642
0.021995
0.0219227
0.383497
0.0234808
0.0989695
0.0222687
6.03395
0.981275
0.021962
0.0219876
0.119713
0.0221503
0.0217428
0.0249966
5.83534
4.1222
9.89308
0.022276
0.055016
0.0388708
0.0216486
0.0218668
0.0221942
0.362029
0.0222063
0.0219586
0.0548451
0.0220234
0.0640649
0.0221116
0.0221063
0.0216942
0.0221512
0.172982
0.0221994
0.0218764
0.0388467
0.0567575
0.427109
0.0222105
0.0896705
3.28426
6.86899
0.0229402
6.39363
8.24866
0.021909
0.0215479
0.0226514
0.023295
2.7712
0.0232972
0.0221228
0.0222065
3.97966
0.0373624
0.0222281
0.0221425
0.0219382
0.0419055
0.0217565
0.0218344
0.0294485
0.0228127
0.0222048
0.0217583
1.54937
0.0218363
0.0227293
0.022029
0.0223513
0.160102
0.0222034
0.0230165
0.0220712
0.0244331
0.875366
0.0222919
0.40279
0.0255893
3.22557
0.0216726
0.0233084
0.0289851
0.0894384
0.0510508
0.0226137
11.2314
3.26093
0.022513
0.0218001
0.400023
0.0220788
0.0222514
0.0217331
0.0222421
0.0489681
0.0222928
0.0222931
0.0663466
0.0282006
0.0230057
0.0313078
0.0227493
10.4122
0.022929
0.941719
0.0218688
0.0519004
0.0368287
6.49062
0.0237488
6.10207
0.0222696
0.0244356
0.0220423
0.0220796
0.0219203
0.118266
0.0404488
0.0415789
8.51874
0.0221198
12.4066
0.0246418
0.0217668
0.0313832
0.0289693
5.76018
0.0219821
0.0279328
0.0520409
0.0232626
0.0418985
0.0222838
0.0215797
0.0222833
0.362168
0.0221339
0.0220033
0.0217405
0.0217286
0.0219358
0.0219877
0.0222544
0.0218527
0.0221512
0.0224692
0.0251547
0.0308067
0.0219906
3.73201
0.0219773
4.3946
0.0372189
3.51437
0.0352809
0.0242973
6.18661
0.0320269
0.380999
7.53025
0.0414432
0.0221996
0.0218473
0.0228555
0.16399
0.0218796
5.98121
0.0218792
18.921
5.50692
0.0468542
0.0226433
6.1956
5.70257
0.0231898
0.0219794
0.0222642
0.023756
0.0215699
0.0216733
0.0581707
0.201028
0.0220777
0.0218728
0.0223668
0.782846
0.0525693
0.0221565
0.0249553
0.0868969
0.0224434
0.0220262
5.54912
0.0222926
0.0218864
12.0502
0.0239375
0.021958
5.81466
4.33426
9.11876
0.0219171
0.02314
0.418815
0.0217395
0.0218576
0.0222845
0.0272385
0.0220423
0.0221118
0.0230537
0.0464386
0.197849
0.0217869
0.0219436
0.022079
0.0218227
0.0225421
0.0216037
0.137956
0.0284878
0.0219744
0.0219835
0.0217706
0.0219749
0.0223619
6.09823
0.0274472
0.0215416
0.0219287
0.0411917
5.62879
0.0220422
0.0219819
0.0220287
0.0215466
10.4527
0.0415444
0.0217418
0.022067
0.0283409
0.111644
0.0221695
0.0222829
0.0248541
0.0219702
0.0249341
0.0223581
4.97911
0.0344936
0.0220689
0.0254735
13.6699
0.0281522
0.139176
0.024915
0.429665
0.0222711
0.0220819
0.0244162
0.0581061
0.0219061
0.0217908
0.022244
0.022498
0.11191
0.129797
0.588788
0.0225031
0.0219923
0.0281498
0.0219859
0.0219817
4.95317
0.0236144
0.021976
0.0219837
0.323845
1.09211
0.0219909
0.022072
0.084465
0.0217737
0.0221036
0.0219357
0.081853
0.0229127
0.0249514
10.5235
0.0222661
0.0221686
3.17329
0.0219066
0.179722
0.0218949
0.02326
0.0420354
0.0220052
0.0220894
0.0221505
0.0232082
11.3084
0.0219221
0.0221354
0.23828
0.0256081
0.313269
7.34296
0.0472203
0.0222125
0.498385
0.0218265
8.80328
0.0221681
0.0220132
0.0217249
6.95657
0.0222126
0.0223534
0.0221601
0.0311391
2.79968
0.0280015
0.0485877
0.0219181
0.0221354
0.0363376
0.0285126
0.0218371
0.024909
0.0218919
5.64576
5.156
0.0221389
0.0229366
0.0222234
0.817807
0.0221572
16.5278
0.0219788
0.0218128
0.0217373
0.0223723
0.0234616
0.0222715
0.0219894
0.0220093
0.60335
0.0953163
0.0218612
0.0240447
0.0234939
0.0411329
0.0218308
0.0258159
0.0228196
0.0219743
0.0232189
0.0283108
0.0222802
0.0219131
0.0266808
0.0217448
0.172198
0.0230088
0.153043
0.022129
0.0220366
0.0218135
0.0601798
0.039637
0.0217726
0.0240614
0.0664658
0.022447
0.0217763
0.0251008
0.0222247
9.9624
0.244424
0.0248078
7.70396
0.0231224
0.031634
0.0895324
0.0376124
0.0302169
5.83472
0.0276306
0.113954
0.0219836
0.0228274
0.0218567
0.0219545
0.0256542
0.0217643
0.210794
0.0219977
0.0220114
0.0774232
0.0219424
0.0488249
0.0247369
0.025298
0.0218823
0.0426503
0.180587
0.0214221
0.0294013
6.9086
0.0424601
0.0217518
0.0276497
0.0219933
0.0217823
7.31259
0.0218349
0.0217848
0.0470026
0.0219693
0.0256284
0.0217582
0.0220001
5.35205
0.0218544
0.0216701
0.0244231
0.0219157
0.0215333
0.0222519
10.3197
0.0221661
0.0220845
0.0215808
0.0748875
0.0224204
0.0243708
0.0219299
0.0345133
0.0226614
0.021909
0.022822
0.0220997
0.0217812
0.125149
0.0413308
0.0283969
0.0234938
0.0448121
0.0688165
0.0274613
0.0281587
0.0229414
7.85111
0.0219438
0.021979
0.0219234
0.0222384
0.0354684
0.0218924
10.3656
5.09739
2.11276
0.022084
0.0244328
0.0388609
0.0215397
0.0918329
0.0475631
1.07541
0.0578719
5.80015
0.0689938
0.148072
2.3274
0.0281636
0.0227631
0.0249584
0.0217827
4.91144
0.0224973
0.0291858
0.0218036
0.025012
0.0220433
5.33158
6.10513
0.0222039
5.55632
0.77761
0.159271
0.0440185
0.0647098
0.0216738
6.50063
0.0219834
6.20088
5.67585
0.0222046
0.0219178
0.0220011
0.0233748
0.0241737
0.034192
0.174266
0.0221251
0.0220377
0.0248547
0.022297
0.022036
0.0259906
0.0218387
0.022058
0.18285
0.0608569
0.0220398
7.27491
0.0226855
0.0222723
0.0234619
0.286833
0.0219411
0.0217357
0.106964
0.204545
0.0217948
0.0249841
0.722963
0.052014
5.15475
0.0217847
0.136708
6.38293
10.8481
0.0220823
0.0219302
0.054904
0.0262103
0.0411955
0.0223392
8.12067
0.0470589
0.179926
0.0220644
0.0219759
5.76397
0.163613
0.02215
0.0222724
6.46917
0.0219252
0.0216063
0.0217927
0.0232069
0.0221971
0.029647
0.0221345
0.0233357
0.0216267
0.0305197
24.7279
0.0599298
0.0333304
10.6665
0.0746232
0.0216494
0.0217803
0.0218683
0.0222837
0.133021
0.0297983
0.0220419
0.0219974
0.0219727
0.0216107
0.0323566
0.0216203
0.0488722
0.0235876
0.0221238
6.86738
5.58443
0.0221021
8.50684
0.0339096
0.0327593
0.0222644
0.02163
9.55752
0.0723283
0.0219217
0.0217331
0.0219355
0.0259195
0.0222625
0.1276
0.0215269
0.0220584
0.0220138
2.58795
6.90738
0.0215277
0.0220126
0.16333
0.540753
0.0246334
5.51816
8.45589
0.0217698
0.0221422
0.0221518
0.0230397
2.64251
0.0220364
0.0222844
0.205802
0.0918304
0.0222126
0.0219457
0.0744595
0.0222837
0.0220737
0.111449
0.0755642
5.80584
0.0219827
0.0627228
0.0414016
0.0508846
0.0231301
0.0274062
0.0219374
0.0220074
0.127478
0.0257852
0.0219957
0.024718
5.48217
0.0215461
0.0218189
0.0215382
0.078931
0.021946
0.0220865
0.0214435
0.0219449
0.829661
10.3816
0.0222419
2.01857
6.26236
5.27316
0.0219356
0.0219541
0.0218327
0.0218968
0.0221162
0.0221501
0.0216306
0.0220826
0.0217823
0.0243502
10.4227
0.0361028
0.222056
0.0281152
0.0220299
0.0231767
0.0321001
0.0221979
0.0218518
0.0401082
0.0318416
0.623967
0.0386922
0.0215092
10.8505
0.0227106
0.0215007
0.0218611
0.327267
0.0408798
0.0227939
0.0255832
0.0220725
0.0220937
0.0323503
0.0376154
0.0265381
5.8615
0.022083
0.0220304
0.759647
0.0373906
0.0251231
0.126349
0.0229818
0.0674153
0.252717
0.0651506
8.83252
0.0218433
0.0217443
0.0219394
0.0220475
0.0220947
0.0230441
0.0375831
0.0440119
14.8222
0.022073
8.76114
5.54481
0.0238495
1.71982
0.0222501
0.0944151
7.5568
0.0219106
0.0890833
0.0215708
2.03537
0.0221979
0.18729
0.0218654
0.438608
0.0346857
5.58953
0.02185
0.158325
0.0216427
0.0229834
0.27242
0.0218411
8.74001
6.88934
0.232628
7.79322
0.0874161
5.80287
0.0387824
0.0220162
0.0452346
0.0448297
5.00134
0.0220766
0.0220172
0.0226147
0.0480939
0.021959
0.0222532
0.0222368
15.827
2.90149
0.0219234
9.72411
0.0599392
0.0217317
0.0381297
0.0273895
3.04079
0.0295885
0.0217781
0.746854
0.0220717
0.0219372
0.0220898
0.131398
0.0594913
0.021795
0.0266364
0.0221105
0.0222608
0.0217945
9.95587
0.0222857
0.0218149
0.93569
0.211457
0.0237352
0.021814
2.30663
0.0283678
0.0232843
0.0219629
0.0525908
0.0230142
0.0259196
0.0247235
3.80687
0.0438102
0.0575965
0.0215021
0.0293483
0.0403285
0.0263956
0.0224149
9.93479
0.0222527
0.137084
0.0218901
0.0221941
0.028841
0.173848
0.0232737
0.0246725
0.0221138
0.0373608
0.0616057
0.0786446
0.0280213
0.0222924
0.0219648
0.0282135
0.0747765
0.0219371
0.0407511
0.0220134
0.0219397
5.21143
0.0218962
8.40563
0.0219467
0.0272108
0.0647481
0.0219491
0.0271011
0.087546
0.102499
0.0219578
0.0705288
0.0224748
0.0222637
0.0219096
5.19455
4.29808
0.0219082
0.0219315
0.0216276
0.0218213
0.0878961
5.23834
0.0219438
1.53101
0.0217367
0.0217995
0.0218924
0.359383
0.0227929
0.0238706
0.0219476
0.0219753
0.0219291
0.0222569
0.0222596
0.0309866
15.4027
0.0216317
0.021932
0.0422417
0.0686681
0.0218008
4.81342
0.0517821
0.0217978
0.02153
0.0221482
0.103325
0.0217428
0.0695976
0.0285597
0.023253
0.0217944
0.043966
0.021531
0.146614
0.0278276
0.0224106
1.53811
0.484115
0.0214296
0.0218649
6.99323
0.119953
0.0719541
0.0237215
0.0696566
0.0215611
7.56417
0.0561943
0.0217686
1.85763
4.22858
0.0232365
0.0443515
0.0517449
0.0217713
10.6692
0.0222076
0.0259984
0.0295683
0.0222784
0.0220494
0.0533772
0.0218713
0.0218888
0.0218701
6.52036
0.0218543
0.0219382
0.0217594
0.0218891
0.0218657
0.0222307
0.048645
0.0461815
0.0232653
0.0222502
1.90402
0.0222835
0.0218349
0.0218994
0.0216246
0.0220844
0.0219715
0.0274428
0.0835388
0.0222245
0.0294323
0.0508781
0.021747
0.0276999
4.49065
0.0226512
0.0215362
0.0220791
0.0865254
0.0222034
0.0222032
0.0242737
0.0249186
3.14308
12.3488
0.0218251
0.0218634
0.0219416
0.0711754
0.0232712
0.0218058
0.0284785
0.0775806
0.022193
0.0270341
0.0221331
0.111687
0.18116
0.0227121
0.135594
0.0257667
5.43069
0.0222057
0.0218933
8.10418
0.124696
0.0243233
0.136071
0.0951982
30.8866
0.0467811
0.749807
0.0251837
0.0243309
5.33159
0.026812
0.182761
0.0279787
0.134097
5.76509
0.0222933
0.0221591
0.0219752
0.418047
0.0214519
5.71199
0.0338476
20.8296
0.0230204
0.124943
0.215625
0.0219471
0.0222201
0.0827733
0.0296274
0.0220881
0.0242787
0.0808304
0.0739272
0.0776404
0.0978426
10.3092
0.158425
0.0221153
0.0222016
6.95705
0.0792055
0.0226417
0.0381961
4.65105
0.0222582
0.0234948
0.0219399
0.0288614
0.0220389
0.0221055
0.0394428
0.0221251
0.0227357
5.64949
31.6623
0.0217306
0.0258577
0.0260343
0.212147
0.0435851
0.0223193
0.0219255
0.109355
22.087
0.0219303
0.025293
0.0220726
5.68532
0.021837
0.0299066
0.297859
0.288672
0.0222724
0.150403
0.0909172
0.0555188
0.0257735
0.0220209
9.16629
0.0218222
0.0253704
0.0222654
0.0274798
0.0216136
0.0216296
0.022084
0.0659871
0.0218281
0.0219775
0.0217797
0.0219793
0.021869
0.0220311
0.0893376
6.42465
2.96509
0.0250124
0.0220563
0.0323963
0.0234611
7.4471
0.0222851
0.197611
0.0216269
0.0219956
0.0223616
0.0344302
4.94143
0.0219591
5.24276
0.0222072
0.0215271
0.0230276
8.75623
0.0234218
0.0458538
7.91377
0.0222849
0.0222098
7.58422
0.0218923
10.4643
0.022088
0.0301086
13.356
0.0224963
0.0220962
0.0218575
8.54548
0.0257891
0.021873
0.877536
0.0219575
0.0225674
0.0825729
22.0793
0.215195
6.43462
6.25662
0.0771611
0.0235296
0.203887
0.248086
0.0218072
0.0218695
0.0228697
0.0257444
0.0825555
0.0219886
0.0255057
0.0219031
0.0219592
2.79576
0.0222255
8.22938
0.021565
0.0293037
0.0546949
0.0218264
0.0215207
5.98396
7.23982
0.0650832
0.0220797
0.0248707
0.0458951
0.0217698
0.0324307
0.100332
0.037196
0.0234055
6.21795
24.6135
0.0215482
0.0221334
0.0216537
0.0221947
0.0226263
0.0259911
22.5319
0.0221205
0.0219621
0.0389007
18.4513
0.0215735
1.16064
0.0215998
0.134218
0.0557226
9.21436
0.0591943
0.0551021
0.0578813
0.0215198
0.0215129
0.259383
0.0254855
0.0220866
0.948904
0.0218343
0.0220834
0.0216264
0.048102
0.239572
0.688623
0.15626
0.0271294
0.0294815
0.0219813
10.4957
0.18282
0.0230398
0.0219727
0.0217452
0.080703
10.3205
0.0364139
11.0406
0.0229523
0.0217779
5.08778
0.0219582
7.0805
10.9404
0.0217017
0.0296561
0.217933
0.0242538
0.0363372
0.0218323
5.54162
0.025581
0.176446
5.76875
7.54912
0.026782
0.0265711
0.022136
0.164986
10.8951
0.0227573
0.0236632
5.6974
0.0505361
0.0700074
0.0222636
2.42186
5.43251
0.10145
0.0219595
0.0257585
0.0218938
2.96548
0.0712482
0.0327772
9.39533
5.21115
0.0215204
0.157273
0.0221004
3.95137
0.0990582
0.0255114
0.0244879
1.06669
0.0214038
0.0555196
6.80366
5.92717
0.0230166
0.0220308
0.021791
0.0938622
1.85885
0.184421
6.52402
0.0817722
0.0416843
0.0217819
5.63776
0.0754711
0.0285445
0.213871
5.67964
5.37973
5.26424
8.50708
6.07295
5.60677
0.0220808
0.0291326
0.0326546
0.0219082
10.3186
0.882917
0.0220189
8.31382
0.0221296
0.0219912
0.0217729
0.0300099
0.0218676
5.53494
0.0633261
0.210748
0.0217126
0.660189
0.049088
0.448646
5.33736
0.0225478
0.0267937
0.0383916
0.0694413
0.0217585
0.0216285
0.0218894
5.11241
0.0217819
0.021765
0.164385
0.0230596
19.0849
0.0220456
7.38207
0.0219505
0.0220601
0.0219688
0.0219966
0.0257538
0.0243645
8.69877
0.031445
0.0335518
8.20314
0.0218261
8.74858
0.0217986
7.8402
1.02915
6.76846
0.0638414
0.0219872
0.0222727
8.07854
0.0220165
0.0253769
0.0221113
0.0281475
7.73344
0.0218843
0.0218494
0.0218818
0.0222652
9.72565
11.2943
0.0218302
0.0214441
5.67023
10.8901
0.0218629
4.97311
0.0222645
9.91161
6.81113
0.0617142
0.421347
1.14349
0.0904023
5.11421
0.0703414
0.0219881
0.0215469
0.0217861
8.91619
10.8543
0.0229964
0.0285155
5.1012
0.0218417
5.58345
0.0218239
0.0219227
0.0216267
4.15638
0.0656874
0.02175
5.11005
0.0222527
4.43843
6.00036
0.0217357
0.0221101
0.116401
0.0219534
0.0219517
0.0218299
4.09031
0.0322327
0.0220309
0.0221303
3.53795
0.0219486
0.0416314
0.0219837
6.49365
0.0221014
0.112836
0.0236569
5.35769
7.77463
0.0311973
0.0749633
0.0539759
0.0220736
0.0800161
6.12414
0.0217456
0.0802559
0.0217679
0.62924
0.0218947
6.91703
3.55441
0.114304
5.12098
5.22443
0.0418426
0.0224376
2.15448
0.0219306
11.1802
0.025492
1.14652
0.0218762
0.0330098
0.0481729
0.0307426
0.0221299
0.0219465
0.0221958
5.48076
0.0722828
4.99449
3.41409
0.0278168
0.0216229
0.0564742
12.3256
0.0340333
0.0217808
0.0220797
5.694
3.16842
11.1036
6.13532
0.0360517
0.0223066
0.0217796
0.0502704
0.0515426
0.797164
0.0219973
0.0220683
36.684
0.0661128
0.0222854
0.0576903
0.859543
0.103776
0.0216171
0.0498982
0.655909
1.28834
7.21449
0.203154
0.0218799
0.0222694
0.0220976
0.022285
0.0219689
0.0220898
0.0337491
0.25213
0.0340079
0.0263703
0.0289909
0.0221878
0.0262714
0.0224365
0.035259
0.033162
0.0218263
0.0283585
0.0219025
0.0218408
0.0225226
0.0221203
0.478613
0.021597
0.0819353
0.659114
0.909329
9.21588
6.11461
0.0224029
0.0222368
0.0219001
8.59741
0.0218809
0.0214743
0.0221747
7.33721
0.0315603
0.033261
0.444207
0.0234449
0.0220315
0.0297243
0.0218771
0.0497154
0.0222855
0.0346447
0.0217913
0.0219424
0.022948
0.0235639
0.0244963
0.676387
0.035944
0.122304
0.0601155
0.113195
0.0444862
0.0689131
0.021854
5.36684
0.0246578
0.0268073
0.021948
0.0225614
0.136336
0.0219835
0.0670589
7.54151
0.029602
0.388526
0.110206
0.0557425
0.0729036
0.0626184
0.0219309
0.0285581
0.0220895
0.0827847
0.0526206
8.0437
0.021762
0.0488201
0.0266063
4.76403
0.298227
0.0455186
0.0220971
0.0527522
0.0215748
0.0657557
0.0227729
6.22985
0.0216568
0.0260385
0.0220151
0.0365693
0.115366
0.0308253
6.52012
0.0220385
0.0284557
0.0635333
0.0220141
3.27558
9.46886
0.152086
0.0478124
0.0481165
0.0217991
0.0217577
7.98334
0.109469
0.0216322
0.0223851
0.0251618
0.0219095
0.490185
0.0217831
8.5651
0.153553
0.13947
0.0379033
0.0223537
0.0216667
0.0218132
0.169714
0.085998
0.0268234
5.32132
0.0221742
0.0231899
0.0274703
9.65424
0.0215089
0.298093
0.0214039
7.175
0.0219081
0.0218997
0.0387777
0.021984
0.0222544
0.139823
0.0221006
0.0223315
0.0217675
0.0448939
0.0255981
2.1756
0.0219908
0.0221235
0.0218467
0.125115
0.0218067
0.0288673
0.0397717
7.47302
9.99655
12.2533
0.950385
0.460942
0.04158
0.0653174
0.0275129
0.0222514
0.0221204
8.38401
0.0597158
0.0215435
0.0219624
0.0219529
0.0267908
0.0856882
0.0222519
0.0305328
0.11592
0.158549
0.127471
0.021965
0.0222377
3.55618
0.0234193
0.0215898
4.4887
7.52029
0.0216989
0.0214351
0.0270202
0.0220537
0.0389087
0.0222485
1.30118
0.0222728
2.13148
0.0219679
5.41174
0.0298281
0.0219603
0.0545903
0.0215924
0.0219517
0.0222649
0.0322911
0.568598
0.0218657
0.161015
0.0222856
0.0221998
0.121595
0.0216989
0.0221284
0.0221022
0.0214712
0.0219775
0.0215107
0.0221666
1.27853
0.0218576
0.021745
0.0594309
0.0216322
0.0219357
0.0221678
0.0221631
10.1874
0.435305
0.0220168
0.022706
0.0219012
0.0222856
0.162167
0.0220551
0.0219829
7.85893
0.0219588
0.0448314
0.0502183
0.0387641
0.0218466
0.189306
0.0219217
0.320245
0.0717948
0.021864
7.72538
2.13187
0.0284925
0.132519
0.0218435
0.0218772
0.0465326
0.189868
0.0217586
0.0218562
0.0221897
0.041182
0.022103
0.0367401
0.0221107
0.0475236
0.400747
0.0399819
0.152266
0.0218527
0.0241916
0.0228478
0.0236675
0.0216921
0.0219073
0.022906
0.0235212
0.0712494
0.0223885
0.0816662
0.021879
7.80265
0.0215236
0.0217776
0.0740095
0.0222717
0.110535
0.0758415
0.0378157
0.0219254
0.0229162
0.0219241
0.0378102
0.0221003
0.0573089
0.0251064
0.0221793
0.0216778
0.0276359
8.74682
0.0321484
0.0537019
5.37088
0.637502
0.0395135
0.0215766
7.48143
0.021964
0.0233903
0.0224416
0.0953013
0.021915
0.0358759
0.028055
0.023614
0.0221217
0.0254148
0.0222001
0.0578351
0.0219321
0.0221861
0.0219735
0.0284265
1.36354
0.0220113
7.48532
0.090094
0.021456
9.77355
0.291834
0.0218081
0.0231529
0.0756996
0.0217979
0.0219071
4.8914
0.0220272
6.39043
0.0256759
0.0246456
0.0227029
0.0223319
0.0219305
0.0218179
0.0632623
0.0225743
0.0219592
0.0219265
0.022231
5.48154
0.0372
0.0220478
0.0292982
0.141091
0.069195
0.021882
0.0220083
0.0219663
0.0249399
0.0228494
0.0224454
0.0264396
4.48372
0.0217987
0.0229425
3.52545
0.0246314
0.0897483
0.152853
0.0218826
0.0222702
0.292489
0.0815157
0.163929
5.47271
6.78313
0.173648
2.97165
0.0217731
0.0230616
0.0216839
0.0221871
6.2404
0.0220012
0.0537152
0.0571001
0.0279608
0.0251552
0.617468
0.0219043
0.0221165
0.0252892
0.0219349
0.0220492
0.0217617
0.0220424
0.0660477
0.0219394
0.02217
0.0217909
0.0470324
0.0221326
9.50434
0.0219194
0.0228835
0.0218149
0.0222523
0.0227687
0.0219683
0.0383741
0.0230144
0.0219304
0.0282758
0.0220344
0.0222648
0.0220088
0.0314164
0.0222988
0.0220329
0.0220461
0.0220593
0.0277904
0.0220199
0.0220076
0.097306
0.0220741
0.0219353
0.0235859
3.77981
0.0502059
0.0223281
0.047666
11.7493
0.106052
0.183435
0.0240278
0.0228086
0.0261449
0.253231
0.0220719
0.206318
0.0225104
0.0218904
0.0283737
0.0220503
0.0699055
0.0759783
0.0640812
0.0229788
0.0219659
0.0284601
0.0274834
0.0229722
0.0242883
0.0232519
0.0453824
0.0786905
0.0655557
0.0219495
0.0237112
1.86711
0.0231959
0.0222854
5.82146
0.610979
0.0219643
0.0223832
0.0230531
0.0748841
9.40288
0.0219569
0.39766
6.69413
0.0391769
0.058722
0.0216861
0.0235253
0.0226059
0.0774859
0.0222322
0.0298252
0.0232604
0.281451
0.0221939
0.0220612
8.20082
0.0233404
0.023063
0.0221652
0.0222129
0.038378
5.35016
0.0280043
0.0220431
3.42792
0.0824207
0.0222791
0.0219737
0.021835
0.0241836
0.0217228
0.165268
0.0218697
0.0243312
0.0251354
0.0547244
0.0264246
0.0218394
0.0273994
0.0242702
0.0218371
0.0855086
0.0219664
0.0233202
0.0216925
0.0222721
25.5224
0.0279034
0.0222582
5.0679
0.0227213
0.0219495
2.85954
0.0613559
4.99936
0.0219377
0.0229246
0.0218771
0.022533
0.0230219
5.89084
0.0224456
0.0831591
0.0217767
0.0221044
0.0234707
0.021957
0.0372952
10.233
0.597421
0.0219498
0.0217227
0.250239
0.022597
0.022137
0.0265249
0.0264388
0.478073
0.0877978
0.0227906
6.83494
0.0763904
0.0224454
0.0217447
0.0222057
0.0287129
5.44959
0.022284
0.0572187
0.0226602
0.0220897
0.0215806
0.0223235
14.3952
0.0271689
0.0217711
0.0238323
0.0220947
0.0255153
0.0214447
0.0230582
0.0219682
0.0228115
0.516209
0.0220646
0.0222134
0.0899393
0.0216128
0.021573
8.02516
0.0218794
6.12891
5.9147
10.7123
0.0267342
0.0221653
0.0215104
0.0221392
0.0214834
0.023695
0.180577
0.0478831
0.504543
0.0820533
0.0241772
0.0216049
0.0228749
0.022622
0.0222726
0.0221563
0.0215628
0.0780101
0.0224916
24.4932
0.0223004
0.0227401
0.0222637
0.022061
9.46788
0.153977
0.0288755
0.0215086
0.0498286
0.0229912
0.0219702
0.0708493
0.021454
0.0231876
7.89964
0.0219587
0.0219055
0.0219034
7.83214
5.2367
0.0216414
0.0226252
0.0241847
0.0221285
0.0216639
0.0219736
0.0220759
0.0219181
0.0218583
0.0218986
0.0239971
5.92472
0.0388303
0.0219361
0.0219346
0.0222808
0.0221255
0.0221776
0.0261113
0.0277554
14.2515
0.0255323
0.02221
0.0226272
0.021946
0.0878864
0.021608
0.022224
0.0233284
0.028612
0.0269014
9.64044
0.0221285
0.0288801
0.0226759
0.0226161
0.022104
0.0216113
0.0228742
0.103485
0.16277
0.0217468
0.0351229
0.0730281
0.0222649
0.0362443
0.038549
5.21795
0.0222494
0.0236262
0.0224743
0.0216
0.0717927
0.0219578
0.0219973
0.0462013
0.202871
0.185206
0.0217786
0.0219265
7.67314
5.06753
0.0215957
1.77255
1.14454
0.0218246
0.0215958
0.0217366
0.0220954
0.0221405
0.0215559
0.0284524
7.52657
0.0217946
0.0219581
0.0217003
0.0221579
0.0218028
0.0218528
0.0215466
6.49996
0.0220202
0.199708
0.0221906
0.0218121
0.0228993
0.0218482
0.0221759
0.0280789
0.0221552
0.0223488
6.69873
0.0219907
0.0246376
0.0220299
0.0219891
0.0221406
0.0218209
0.105254
0.0220567
0.022106
0.0220133
0.199108
0.0304379
0.02216
0.0221755
0.0219386
0.0230052
5.14371
0.023443
0.0237559
0.0219499
0.0221228
0.021958
0.0517553
0.0231017
0.0227695
0.465881
0.0445421
0.0218198
0.0248115
0.0220266
0.0223612
0.0218339
5.43286
0.0219599
0.0220579
0.0218138
0.0300899
0.023334
0.0227714
0.0219422
0.0217998
0.0594918
9.2284
0.021831
0.0573505
0.023533
0.0234417
10.4338
0.0217596
0.0219831
0.0219496
0.0235842
0.0231256
0.0217939
0.024325
0.0219064
0.0903053
0.021527
0.0217235
0.024683
0.0221427
0.090022
0.0252545
14.1676
0.0618039
0.0222125
0.111455
5.16037
0.022507
0.0242896
0.0220683
0.0254627
0.0217895
0.0372031
0.04407
0.0218857
0.0293419
0.0218348
5.19642
0.0222191
0.0234739
6.60143
0.0396054
0.0238423
0.171211
0.0221564
0.0219949
5.29081
0.0217573
10.713
0.0218493
0.0218692
0.0660811
7.45917
0.0219136
0.0438687
11.6529
0.0218572
0.0221752
0.02202
0.0265608
0.0251088
0.0227593
0.0220041
5.01973
0.0219624
0.0225667
0.0219393
0.0219127
0.0220351
0.0233669
0.0287439
8.91014
0.0222318
8.86136
0.0219402
0.02262
0.0246334
0.0225683
0.0536115
0.0579407
0.0224064
0.0219358
0.0218283
0.0808432
0.0217331
0.0218378
0.564783
0.131359
0.0217315
0.0220015
0.0217811
0.0220884
0.0247349
0.0849031
0.0219641
0.0221266
0.0217511
0.0221684
0.0219627
0.021512
0.0262879
5.41215
0.021704
0.0222269
7.15331
0.0219081
0.0386838
0.0220685
0.0289041
0.0508876
24.3649
0.0222612
0.0220543
0.0217927
0.0221559
0.0220414
0.0214545
0.0221445
0.0221266
0.0231525
0.0497768
0.024685
0.0233915
8.39096
0.022028
0.16148
0.0217364
0.0218567
0.0220154
6.8232
0.0218462
0.0540793
0.0229433
0.0226427
0.0219341
0.021761
0.0218197
0.0223335
0.0218536
0.0218207