/*--------------------------------*- C++ -*----------------------------------*\
| =========                 |                                                 |
| \\      /  F ield         | OpenFOAM: The Open Source CFD Toolbox           |
|  \\    /   O peration     | Version:  v2012                                 |
|   \\  /    A nd           | Website:  www.openfoam.com                      |
|    \\/     M anipulation  |                                                 |
\*---------------------------------------------------------------------------*/
FoamFile
{
    version     2.0;
    format      ascii;
    class       surfaceScalarField;
    location    "850";
    object      phi;
}
// * * * * * * * * * * * * * * * * * * * * * * * * * * * * * * * * * * * * * //

dimensions      [0 3 -1 0 0 0 0];
oriented        oriented;


internalField   nonuniform List<scalar> 
14907
(
-0.446273
0.317882
0.128391
-0.582736
0.359013
0.2238
-0.217226
-0.0304408
0.247708
0.587844
-0.588435
-0.0642296
0.0324447
0.0317851
0.431408
-0.529015
0.0976631
0.136415
-0.0703225
-0.066092
0.149919
-0.153226
0.00330895
0.400376
-0.235142
-0.165266
-0.368241
-0.112375
0.48056
-0.0136278
-0.0021247
0.0157525
0.0636794
0.523515
0.357684
-0.613204
0.25529
0.643614
-0.338116
-0.305661
0.230827
-0.116628
-0.114187
0.541027
-0.366108
-0.175055
0.313135
0.227761
-0.289948
-0.301283
0.59123
-0.261913
-0.184369
-0.0150871
0.0736367
-0.0585489
-0.381006
-0.14996
0.530564
0.111721
0.0469117
-0.158631
0.395657
-0.623537
0.22756
-0.54407
0.2796
0.264479
-0.334667
-0.24799
-0.258603
0.135848
0.122768
0.631232
-0.373052
-0.258318
0.266597
-0.154811
-0.111765
0.394878
-0.205513
-0.1894
-0.30113
0.20387
0.0972868
-0.165298
0.407602
-0.242332
0.000653097
0.00727622
-0.00792931
0.218237
-0.586461
0.132469
0.123177
-0.255624
-0.106469
0.233468
-0.126973
-0.300239
-0.243804
-0.294211
0.153556
0.140668
0.0829656
0.123909
-0.20687
-0.57773
0.277251
-0.091108
0.148443
-0.0573202
0.0350607
-0.0501474
-0.230964
0.125398
0.105582
0.0955847
0.0408309
-0.153655
0.288592
-0.134894
-0.0380774
-0.0261519
-0.146598
0.229736
-0.08313
-0.277862
0.209855
0.0680356
-0.10306
-0.0804991
0.18356
-0.054511
-0.151646
0.206179
-0.165396
0.262872
-0.0974694
-0.581887
0.113674
0.468041
-0.0719744
-0.199242
-0.0244806
0.160124
-0.135622
0.372223
-0.260732
-0.111466
-0.114271
-0.179928
0.433128
-0.00175722
0.310957
0.0838865
-0.173387
-0.104437
0.278293
-0.145794
-0.176698
0.15225
0.303118
-0.495082
0.191927
0.301927
0.145657
-0.447653
-0.224321
0.117878
0.0936005
-0.310778
-0.272649
0.209465
0.0631934
-0.148011
-0.108115
0.256153
-0.0924891
0.235841
-0.143337
0.0870537
-0.0826027
-0.00444995
1.33418e-05
-0.0103785
0.0103653
-0.15812
0.348739
-0.190619
0.216704
0.155541
0.0628521
0.133713
-0.287329
0.135889
-0.156273
0.0203866
0.177685
0.0891771
-0.266821
0.493714
-0.213952
-0.0055251
0.03797
0.415771
-0.223009
-0.192773
0.166333
-0.0984975
-0.0678273
-0.0502995
0.109154
-0.0588537
-0.181146
0.126649
-0.0925221
0.0544451
-0.138226
-0.136491
0.274759
0.243833
-0.131174
-0.112646
-0.256752
0.164288
0.524275
0.080634
-0.604904
0.100513
-0.295973
0.195496
-0.00363828
-0.10568
0.10932
-0.329568
0.116489
0.213119
0.355885
-0.255359
-0.1565
0.277582
-0.121069
-0.0512202
-0.0413016
0.191189
0.0754278
-0.284627
-0.168926
-0.132176
0.144084
-0.287636
0.14355
0.490612
-0.201699
-0.288923
0.158925
0.161338
-0.320268
-0.1959
0.104811
-0.398323
0.123997
0.274293
0.395204
0.201811
0.11157
-0.130966
0.0194005
-0.149605
0.0693517
0.0802552
0.546842
-0.0224815
0.259942
-0.151743
-0.108183
-0.127633
0.135323
-0.00768602
-0.393839
0.3073
0.0865862
0.161408
0.329199
-0.589872
0.208463
-0.245283
-0.263435
0.5724
-0.300318
-0.272444
-0.464616
0.329079
0.135494
0.224571
-0.135698
-0.0888439
-0.0122738
0.0122873
-0.202195
-0.0704424
-0.235326
0.438304
-0.20301
0.259361
-0.354005
0.0946448
0.153848
0.298472
-0.154393
0.00528763
-0.00381807
-0.00146948
-0.136293
-0.193222
0.0872293
0.0626911
-0.150724
0.286677
-0.135927
0.186848
0.192041
-0.3789
0.14443
-0.0328553
-0.272081
0.133882
-0.113863
-0.0393613
-0.223626
0.182294
0.0413527
-0.0130853
-0.114543
-0.170758
0.374529
-0.203789
0.0448813
0.121459
-0.36624
0.219603
0.146656
0.00431555
-0.0137678
0.00945225
-0.171926
0.0869222
0.0850082
-0.226808
-0.171547
-0.0960544
-0.0650749
0.161136
-0.00656877
-0.00233014
0.00889896
0.126042
-0.282509
0.0668456
-0.169902
0.0960023
-0.0996391
0.150205
-0.254934
0.104757
0.00551221
0.253855
-0.138436
0.250613
-0.112149
0.123954
-0.110983
-0.0129673
-0.239475
0.351065
-0.111552
-0.282803
-0.181845
0.141448
-0.0182647
-0.123175
0.443479
-0.217714
-0.225808
0.313409
-0.154498
0.236568
-0.13343
-0.10312
-0.363793
0.165575
0.198212
-0.00798458
0.528864
-0.520922
0.0496691
-0.0267
-0.0229689
-0.00139544
-0.0046905
0.00608601
0.581868
-0.307893
-0.274258
-0.191607
0.549109
0.24525
-0.112361
-0.132874
-0.0536605
0.355518
-0.140072
0.0440232
0.00271741
-0.00665278
0.00393541
0.0192603
-0.0063666
-0.0128936
-0.181186
0.0860694
0.0951228
-0.143238
-0.212521
0.355753
-0.188101
-0.175697
-0.138661
-0.138563
0.277266
-0.195003
-0.171216
-0.109973
-0.00284083
0.112816
0.0170514
-0.0143339
0.00916946
-0.00783078
-0.00523637
0.00384101
0.124096
0.161922
-0.285992
-0.463455
0.27784
0.185706
0.0152096
-0.0664294
0.0729688
-0.0648657
-0.00810237
0.0226514
0.0956325
-0.118279
0.142441
-0.0781627
-0.0642806
-0.0202305
0.0175005
0.00272994
0.283198
-0.157343
-0.125819
0.0666205
0.0204341
0.106864
0.0851142
-0.191962
0.106973
0.138293
0.0055043
-0.00485119
-0.10719
-0.148291
0.255523
-0.0906979
-0.132903
-0.118761
-0.112187
0.0015145
0.00377322
-0.101807
0.134474
-0.0326635
0.258939
-0.101918
-0.157005
-0.000728185
0.0148747
-0.0141465
-0.112426
-0.128809
0.241249
0.0581184
0.0193252
-0.0774436
-0.266128
0.127725
0.0130019
0.0366675
-0.084471
0.0996812
0.16505
-0.0277822
-0.137264
0.00065789
0.0837256
-0.0843829
-0.131324
-0.0983727
0.22971
-0.22372
0.391811
-0.168046
0.368866
-0.56068
-0.290248
0.214608
0.0756606
0.00982534
0.109207
-0.119027
0.256248
0.00270063
-0.108767
0.329256
-0.220494
0.0115108
0.0614586
0.128671
-0.399665
0.451189
-0.0516132
0.00104651
0.057072
0.414108
0.138822
-0.553239
-0.297871
-0.292404
0.590324
-0.528485
-0.00865696
0.537453
-0.10573
0.106389
-0.616888
0.603043
0.0131654
-0.114178
0.00420761
0.0927456
-0.0975109
0.00476585
-0.255777
0.143434
0.0315993
-0.133405
-0.124672
0.302379
-0.177658
-0.305
-0.159209
0.46429
-0.181119
0.147535
0.0335909
0.475051
-0.197978
-0.277096
0.145344
0.0792536
0.238435
-0.119881
-0.118539
0.0123074
-0.104738
0.092431
-0.109164
0.192132
-0.193604
0.156901
0.0367192
-0.221612
0.113093
0.10853
0.171768
-0.0923472
-0.0794192
0.456312
-0.258803
-0.197558
0.137262
-0.0103356
-0.126922
0.364573
-0.147848
0.212246
-0.0634865
-0.00246624
0.0659534
-0.258094
-0.205276
0.203231
0.161366
0.187597
-0.217988
0.179799
0.0567852
-0.173926
-0.211072
0.384893
-0.730933
0.482349
0.248222
-0.0914842
0.239612
-0.148108
0.28359
-0.156825
-0.126764
0.222021
-0.365282
0.132504
0.146676
-0.285301
-0.232673
0.0970057
-0.390311
0.154908
-0.41438
0.24907
0.554625
0.000192064
-0.55509
0.102126
0.157831
0.0802097
-0.267428
0.187253
-0.692877
0.402938
-0.329502
-0.212182
0.541256
-0.344164
0.186038
-0.13004
-0.0644893
0.194558
-0.0740344
0.0863424
-0.0980678
-0.0831137
-0.0141536
0.0134254
0.114173
-0.0915187
0.0203101
0.0972729
-0.117577
0.0727751
0.158063
-0.0244705
0.195733
-0.171256
-0.167971
0.137117
0.0308546
-0.274132
0.182672
-0.224423
-0.169362
-0.399602
-0.331655
-0.164101
-0.126122
-0.377315
0.203302
-0.0783346
0.190057
0.254434
-0.051957
-0.202454
0.185139
-0.52161
-0.00652018
-0.095807
0.105637
-0.180505
0.0933459
-0.000599781
0.115947
-0.0158363
-0.0966388
0.112477
-0.22007
0.107652
0.169324
0.114267
0.192503
0.20224
-0.394815
-0.00109745
0.134561
-0.133434
0.0462817
-0.285719
0.178735
-0.0718546
0.265092
-0.00411055
-0.260946
-0.105035
0.0116874
-0.00737185
0.00707431
-0.406781
-0.377455
0.248647
0.128837
-0.108517
-0.059454
-0.171059
0.199749
-0.301628
0.174675
0.276765
-0.451424
0.104906
-0.234918
0.0828991
0.05954
0.0454745
-0.162338
0.116876
0.127789
-0.00383219
0.00939699
-0.591404
-0.172607
0.541252
0.173471
0.0991423
-0.334311
0.088937
0.0828341
-0.363746
0.250876
0.112874
-0.112845
0.415855
-0.318779
0.403247
-0.0844761
-0.31686
0.192232
-0.233827
0.136981
0.0968514
-0.12238
0.187884
-0.0654912
0.0183799
-0.112453
0.0940751
-0.0164498
-0.0260116
0.0424619
-0.0558984
-0.120766
0.0214969
0.0661468
-0.0876427
0.217732
-0.407336
0.189483
0.162484
-0.163568
0.263264
0.36784
0.0160902
-0.0161795
-0.114114
0.137978
-0.0238606
0.00945955
-0.102695
0.0932367
-0.00940489
-0.171568
-0.294855
0.466476
0.223401
0.0310555
0.118971
0.229767
0.0929747
0.108905
-0.201856
-0.0857527
0.644468
-0.343697
-0.300799
-0.211994
0.142447
0.0695576
0.394599
0.177452
-0.587256
0.599881
-0.0129186
0.13128
-0.0866956
0.105077
0.587858
-0.34528
-0.242684
0.155435
-0.284212
0.30523
-0.170325
-0.134871
-0.210239
0.0878767
0.0138011
-0.0161841
0.002383
-0.172655
0.255154
0.32645
-0.33882
-0.234201
0.572816
-0.213626
0.307277
0.100249
0.0619913
-0.162229
0.138109
0.0269451
-0.0185636
0.11584
0.0013572
0.105591
-0.106947
-0.178085
-0.0557392
-0.233708
0.143036
0.110258
0.243852
-0.149991
0.277497
-0.127499
-0.595983
0.294738
0.132215
-0.0308043
-0.101408
0.00733077
0.257789
0.130304
-0.072865
-0.11284
0.185715
0.220311
-0.0400684
-0.118031
0.158121
0.125085
0.112697
-0.185559
-0.124668
0.251291
-0.126594
-0.132871
-0.0607132
0.124266
-0.137346
-0.128682
-0.0832993
-0.0762074
0.231462
-0.155221
-0.387993
0.229882
0.158137
0.084501
-0.0831427
0.131921
0.0095347
0.0149939
0.188399
-0.203377
0.169641
-0.0693799
0.151974
-0.369608
0.217729
0.189802
-0.447864
0.400053
-0.248009
-0.159026
0.118975
0.011908
0.0964225
-0.10833
-0.153638
0.242077
-0.0884178
-0.601935
0.339766
0.26222
-0.184101
0.128225
0.300406
0.296609
0.333301
0.254457
0.00877168
0.160194
-0.383883
0.181577
-0.413456
0.231774
0.00333027
-0.00989899
-0.206822
-0.256192
0.46298
-0.155337
0.0654501
0.0898884
0.0967509
0.0354652
0.111706
0.0241866
-0.127005
0.075359
0.0516449
-0.0146402
-0.111265
0.188435
-0.0771549
-0.0796269
0.0161411
0.337845
-0.572867
0.234806
0.0333256
-0.198718
0.323264
0.273751
0.291004
-0.172671
-0.1183
0.221796
-0.0897723
-0.132022
-0.637588
0.221335
0.416182
0.206144
-0.113151
-0.0231828
0.0805346
-0.151574
0.546846
0.359177
-0.509589
0.0773959
-0.0866246
0.00923063
-0.0352159
0.0545412
0.153383
-0.261489
-0.205335
0.413131
-0.207808
0.00217656
0.00699291
0.0303199
-0.151212
0.429189
-0.0167069
-0.0658949
0.00375225
0.351239
0.123773
-0.317566
-0.28431
-0.450244
0.246639
0.203526
-0.184386
0.36744
-0.183121
-0.561372
-0.0262779
-0.35735
0.364405
0.105999
-0.0623741
0.11765
-0.0190809
0.064943
-0.0458615
-0.581775
0.243285
-0.195575
-0.168169
-0.0837163
-0.0278614
0.111579
-0.241812
0.295798
-0.0539273
-0.0859835
-0.102176
0.147662
0.0921335
-0.223297
-0.212758
-0.172703
0.385476
-0.420953
0.215629
0.098999
-0.102675
0.00367664
-0.143304
0.0757717
-0.187021
-0.115004
0.256009
-0.140983
0.0020419
-0.0156696
-0.135977
-0.119783
-0.0750107
0.108342
-0.224954
-0.260269
-0.213413
0.473681
0.179474
0.126101
-0.0457333
-0.0803667
-0.198962
0.465143
-0.266199
0.130701
0.0605611
-0.191259
0.182394
-0.313729
0.131323
0.165334
-0.28999
-0.00700425
0.000351501
-0.0984276
0.229109
-0.130677
-0.106927
-0.180544
0.287446
0.00583416
0.544392
-0.55071
-0.0136406
0.00488843
0.00875221
-0.183541
0.376242
-0.192766
-0.195095
0.0966724
0.259122
-0.155535
-0.103571
-0.184901
-0.0818725
0.062792
-0.0441074
-0.509561
0.420706
0.0886907
-0.0198731
-0.182312
0.081233
-0.234853
-0.502569
-0.49926
0.195492
0.303615
0.186236
-0.387606
-0.00487747
0.0115325
-0.00665502
0.198188
-0.395821
-0.467213
-0.150217
0.0736446
-0.159885
0.0862466
-0.0785652
0.158822
0.164439
-0.0117459
-0.152685
-0.593163
0.295347
-0.101826
0.186957
0.00105057
0.23905
-0.102066
-0.359116
0.190328
0.16878
-0.201244
-0.186722
-0.100734
-0.0711877
0.213456
-0.198439
0.211616
-0.471961
-0.0716786
0.167632
-0.0959428
-0.263152
0.362295
0.0709047
-0.42823
0.167397
0.0710514
-0.222046
0.432702
-0.210756
-0.127523
0.0392144
0.0883133
0.232878
0.0744656
0.253631
-0.452604
0.0145288
-0.0166535
0.537481
-0.250538
-0.286987
-0.132493
0.294451
-0.587679
0.202539
0.385143
-0.276725
0.161754
0.198382
-0.0559221
-0.364467
-0.145292
0.149671
-0.363268
-0.0907866
0.0763361
0.189833
-0.266144
0.0784513
-0.0687223
-0.00972816
-0.11164
-0.162472
-0.297677
-0.398103
0.59988
-0.135141
0.027212
0.107932
0.154874
-0.309317
0.154519
-0.312598
0.205661
0.236385
-0.588079
0.351331
-0.310206
0.152126
0.158087
-0.0124864
0.124897
-0.112402
0.0711049
-0.121404
0.19097
-0.131866
0.00435062
0.0299227
0.125973
0.113082
-0.329003
-0.263608
0.592673
-0.190745
-0.177212
0.367936
-0.171125
0.324664
-0.153484
-0.448449
0.529045
0.383967
-0.202638
-0.181429
-0.00850998
0.0129091
-0.0100628
0.00773271
-0.380633
-0.257028
0.0552046
0.127108
0.00731719
-0.160414
0.153104
-0.161397
0.168716
0.254978
-0.0772701
-0.310081
-0.283454
0.593181
-0.0826837
-0.0683386
0.151025
-0.00279182
0.101792
-0.0475208
0.226572
-0.439396
-0.32706
0.155984
-0.337932
0.0961926
0.239893
-0.446696
0.00834828
-0.000229166
-0.00811902
-0.0930587
-0.0846353
0.177708
-0.1218
-0.15806
-0.183471
0.341508
-0.298011
-0.265948
0.563554
0.249442
0.0770738
-0.326467
-0.161247
0.0977907
0.124096
-0.497148
-0.0134585
0.00858105
0.0298857
-0.0651015
-0.0173732
-0.0641421
0.0815156
0.087439
0.0478879
-0.18628
-0.359259
0.13243
0.236498
-0.120757
-0.11574
-0.116918
-0.0604884
0.177416
-0.00153138
0.00769677
-0.00616523
0.00637157
0.0106799
0.20609
-0.12571
-0.0803614
0.171844
0.43584
0.140353
-0.576172
-0.0976727
0.253129
-0.190601
0.170752
0.536671
-0.100786
0.00287342
0.0163868
0.442559
0.111885
-0.20336
-0.204095
-0.218115
0.119173
0.098949
0.123521
-0.572079
0.205892
-0.0602645
-0.145627
-0.267272
0.155652
0.0822922
0.0573484
-0.139634
-0.0954631
-0.0845222
0.18
-0.509144
0.500443
-0.0945892
-0.152782
0.247388
0.103068
0.130426
-0.148072
-0.031593
0.132504
-0.0450593
-0.00254201
-0.087076
0.0896193
-0.282789
0.606291
0.131156
0.131722
-0.263931
0.141017
0.12295
-0.0773333
-0.210301
-0.276153
-0.289901
0.566081
-0.270317
0.120343
0.274617
0.16171
-0.436365
0.0732359
0.041322
0.123123
0.0460719
0.0699835
-0.116051
-0.578237
0.356761
0.221522
-0.138058
0.214417
0.536373
-0.300282
-0.146139
-0.168572
0.31473
-0.0578058
-0.0218203
0.296231
0.23756
-0.534055
0.255373
-0.121446
-0.133909
0.136972
-0.0900593
0.199467
-0.421642
-0.135173
0.231455
-0.187418
-0.0440351
-0.239723
-0.00484484
0.00366131
0.0011836
-0.0729527
0.195988
-0.123023
-0.563558
0.324326
0.239046
-0.0349983
-0.0799036
0.114904
0.0181428
-0.210926
0.192826
-0.596862
0.304543
0.166056
-0.311011
0.144974
-0.196183
0.376855
-0.180712
0.3358
0.261215
-0.243916
0.115003
0.128928
0.0237532
0.22572
-0.0317174
0.0616033
-0.0928711
0.2431
0.193852
-0.384638
0.141817
-0.297319
0.155511
0.162451
0.0359428
-0.107144
-0.0890065
0.196164
-0.195643
0.38247
0.10471
-0.237188
0.132485
-0.170293
-0.188985
-0.0923053
0.216217
0.322861
-0.161787
-0.161057
-0.181735
0.0862883
0.401804
-0.220333
0.239844
-0.101615
0.18005
0.248018
-0.428071
-0.192988
-0.210635
0.403672
-0.0115363
0.0433969
-0.0318602
-0.254642
-0.19568
-0.0783963
0.0205916
0.387917
-0.201685
0.142199
0.132487
-0.274686
0.546333
-0.316497
-0.22999
0.231016
-0.127978
-0.103029
-0.304878
-0.282801
-0.183305
0.110362
-0.129577
0.329351
0.0737636
-0.10876
-0.219885
0.553152
0.149084
-0.0534994
0.287345
0.156096
-0.129816
-0.0804055
0.471818
0.170147
-0.642198
0.189704
0.112723
-0.0524464
-0.317072
-0.161795
-0.0821048
-0.415546
0.222041
0.193478
-0.058506
0.0207547
0.0223952
-0.0431498
0.101068
0.104824
-0.226874
0.193413
0.0334706
0.103136
-0.121693
-0.1557
0.346529
-0.190815
-0.0517013
-0.0809729
0.132678
0.106913
0.122831
0.510099
-0.291951
-0.156152
0.0844823
-0.0871484
0.0846076
0.00407728
-0.00560845
0.0600116
0.0954324
-0.0153569
-0.0800749
-0.130617
-0.146922
-0.122895
0.269836
0.353576
0.29086
0.245457
-0.0829528
-0.197804
-0.0222556
-0.18947
-0.00373355
0.193186
0.322253
-0.118418
-0.114276
0.232731
0.0180188
-0.116082
0.512035
-0.520059
-0.294946
0.148813
-0.140647
0.245366
-0.00503894
0.0174536
-0.0124142
-0.223867
0.0940731
0.103762
-0.205571
0.119916
0.116585
-0.033873
-0.47522
0.0388313
0.511905
-0.267453
-0.244481
-0.187903
-0.227101
0.415058
0.216048
-0.0121647
0.054826
-0.317972
0.00334079
0.0127495
0.1871
-0.0814961
-0.1056
0.000843774
-0.00588231
-0.630678
0.25585
0.374537
0.0597392
-0.0942766
0.0345377
0.0029588
-0.00143969
-0.00151905
0.142541
-0.0457876
-0.0119386
-0.177547
0.162288
0.0334497
-0.0078711
0.145138
-0.0520717
0.134729
-0.0826533
-0.300966
0.130684
0.298985
-0.116619
0.0691429
0.0180721
-0.0164811
-0.188184
-0.164643
0.352843
-0.0818794
0.155531
0.0403584
0.00653545
-0.0468933
-0.347343
0.277833
0.0695587
0.243669
0.19234
-0.435972
-0.263104
0.185778
-0.250838
0.137809
0.113054
-0.334186
0.281805
-0.0273536
0.21837
-0.190984
-0.0908909
-0.0442472
-0.0375892
0.121315
0.223967
-0.54789
0.242974
-0.0142271
0.000459327
0.00480946
-0.0300225
0.0252137
0.173564
-0.191308
-0.167816
-0.39815
0.511676
0.191797
-0.115954
0.0322385
0.08864
0.0984635
-0.0549297
-0.0425809
-0.244597
-0.191728
0.435476
0.178323
-0.360264
0.181909
-0.277368
-0.217745
0.100377
-0.216376
0.116007
-0.227746
0.043668
-0.030259
0.0138097
0.273593
-0.506709
0.233047
-0.59476
0.266647
0.32819
-0.169503
0.158602
0.0109076
0.165608
-0.353837
0.135595
-0.210941
0.0753481
-0.0685249
0.0885819
-0.0200558
0.172651
-0.267222
-0.0108038
-0.0277766
0.0385804
0.00337298
-0.00252892
-0.274297
0.1274
0.180509
0.0823993
0.0342645
-0.116663
-0.0129248
0.0215605
-0.00863569
0.0522865
-0.150409
0.0981263
0.205785
-0.157506
0.043645
-0.0104431
0.0629184
-0.0524747
0.0887077
0.0792083
-0.16791
-0.168163
-0.132757
-0.55749
0.218519
-0.294024
0.0959138
-0.00256753
-0.214243
-0.0126218
0.0675986
0.00748436
-0.0750818
-0.591544
0.262579
0.00102851
0.0127727
-0.0163338
0.112757
0.18726
-0.364505
0.24051
0.172122
-0.41262
0.00141093
0.0412925
0.372609
0.184341
0.361872
0.208528
-0.1154
-0.0931081
0.00797378
-0.000336444
-0.00763727
0.00539242
0.00166324
-0.00705545
0.0530082
-0.064544
0.166417
-0.298876
0.197291
-0.137679
-0.0596032
-0.150893
0.0988248
-0.442432
-0.135503
0.170587
-0.469026
-0.584377
0.2763
0.0922968
0.00361756
0.380386
0.244583
-0.624978
0.371503
-0.17767
0.140457
0.0568427
-0.167551
-0.129064
-0.0520487
0.287955
0.255347
-0.543536
0.25844
-0.492355
0.233663
0.400029
-0.331955
-0.246232
0.154703
-0.0677756
-0.15997
0.540253
-0.176989
-0.167181
0.0696475
0.113142
-0.182778
-0.105584
-0.00859199
0.00782349
-0.0552789
0.0474556
0.411504
0.194131
-0.605856
-0.162046
0.109328
0.0527211
0.0194001
-0.0145902
0.0430944
0.0353575
-0.136147
0.228295
0.00867937
-0.0155878
0.0069084
-0.00149992
-0.114407
-0.197678
-0.415716
-0.121895
-0.133012
0.220289
-0.100947
-0.119334
-0.00740716
0.000834529
0.00657304
0.0950361
-0.563292
0.287082
0.424956
-0.584883
-0.01702
0.0917403
-0.143437
-0.141701
0.308151
0.296185
0.266443
-0.562798
0.162406
0.182658
-0.345081
0.103856
0.0657952
0.220944
-0.552489
0.00736916
0.544878
0.119567
-0.211874
-0.148687
-0.304105
-0.280464
-0.165198
0.375449
-0.210286
-0.0426179
-0.0224836
-0.203393
-0.174035
-0.260597
0.105804
0.395466
-0.280373
0.111477
0.12692
-0.0208028
-0.106113
0.534885
0.230471
-0.122302
-0.108136
-0.335285
0.437537
-0.102261
-0.22635
0.12798
-0.0613078
0.0464974
0.0148105
0.304554
0.292461
-0.059494
0.0673179
-0.0700091
0.215374
0.00815957
0.000123688
-0.00828305
-0.261734
-0.362061
0.138428
-0.0931515
0.212715
-0.0919233
-0.0701194
0.0836488
-0.00625108
-0.196171
-0.0315551
0.0862298
0.00920301
-0.0970095
-0.0833307
0.180341
-0.255232
0.09375
0.161488
-0.0102197
0.554266
0.044483
0.0980598
0.163179
0.301156
-0.464431
0.274904
-0.618522
-0.408582
0.203689
0.20483
0.614697
0.0629514
0.111557
-0.174498
0.383777
0.213238
0.251735
0.0155426
-0.0840662
0.108769
-0.193278
-0.15525
-0.433562
-0.043386
0.137914
-0.0945204
0.13617
-0.256033
0.038932
-0.147386
0.250875
-0.103476
-0.0605666
0.0288493
0.190027
0.177345
-0.111195
0.14403
0.00166114
-0.03075
0.0290895
0.10455
-0.240221
0.135677
-0.00126461
0.00961296
0.33577
-0.599376
-0.0472344
0.192302
-0.145064
0.504919
-0.564881
0.0597752
0.165824
-0.2887
-0.158166
0.31309
0.135422
-0.053121
0.0223524
-0.107395
0.0850454
-0.231656
0.115735
0.115927
-0.013244
-0.277106
-0.330758
0.607786
-0.0637387
0.0529349
-0.273422
0.116598
0.175383
0.183884
-0.3593
-0.0954834
-0.0607871
-0.0220517
0.158658
-0.136594
-0.00401082
0.00738414
-0.159483
0.399984
-0.109882
0.0974031
-0.103797
-0.00178479
0.0998543
-0.0375802
0.0836553
-0.292703
0.551132
-0.403861
-0.147497
-0.299338
-0.0955711
0.0689553
0.0266163
-0.40199
0.499722
-0.0975364
-0.407867
0.295439
0.220443
0.202653
-0.423208
0.160647
-0.461155
0.207139
-0.411952
0.252707
0.275686
-0.133843
0.19894
0.196703
-0.395741
0.476328
-0.250616
0.114657
0.0790949
0.129452
0.102685
-0.146063
0.400843
-0.202653
0.00319399
0.00496593
0.314523
-0.126211
-0.188297
-0.0430253
0.102765
0.131625
-0.0224138
-0.0111687
0.00618061
0.00498816
-0.0402212
-0.109373
0.149609
0.181616
-0.228837
0.0113873
-0.00549866
-0.00588861
0.0811206
-0.188251
-0.0723026
0.0888511
0.00730108
-0.096151
0.17109
-0.0672253
0.565319
-0.469938
-0.123253
-0.105605
0.228883
0.0159399
-0.344747
0.0816391
0.00311908
0.00325419
-0.00637321
0.293815
-0.289774
-0.00404487
0.074918
-0.0541633
0.0405678
-0.122146
-0.112185
-0.155067
-0.0126792
-0.00350482
0.14875
-0.181637
0.373646
0.507441
-0.0358906
-0.0984754
-0.138704
0.429602
0.121291
0.164128
-0.47459
-0.0798912
-0.0601748
0.111902
0.109895
0.160025
-0.495332
-0.175138
-0.16961
-0.110894
-0.139704
0.0517689
0.0743324
0.106097
-0.226851
0.177559
0.391656
-0.569172
0.167694
-0.237683
-0.112005
-0.0582171
0.170228
0.101388
0.154644
-0.201726
0.470469
-0.268779
-0.00440646
0.00752559
0.175854
-0.300684
0.124862
0.00446101
0.246429
-0.0626922
-0.105675
0.210606
-0.168129
-0.148686
-0.00777925
0.00852775
0.0970544
-0.0540887
-0.0429662
0.00660384
-0.00294242
0.161173
-0.317459
0.156327
0.120689
0.109813
0.133968
-0.10456
-0.029406
-0.188203
-0.301981
0.143901
0.587411
-0.137839
-0.0987176
0.236564
0.36221
-0.475203
0.454373
-0.166665
-0.141222
-0.0798314
-0.00679109
0.0154107
-0.0691426
0.0537325
0.493317
-0.252656
-0.240654
0.309876
-0.142279
-0.167566
0.278633
-0.486032
0.083271
-0.266773
0.128743
-0.250277
-0.237234
0.487209
0.119993
-0.127859
-0.120113
0.0395066
-0.257543
0.21805
-0.39439
0.210832
0.18348
-0.219227
-0.195603
0.414756
-0.282218
-0.232305
0.514314
-0.15346
-0.0875251
0.240994
0.00190777
0.00606609
0.236959
-0.114181
0.195396
0.390116
0.0923387
-0.0189881
0.0206497
-0.219472
-0.196104
0.230383
-0.51281
0.383754
-0.240887
0.0806559
0.00557443
-0.100495
0.558367
-0.552747
-0.00582895
-0.356576
-0.274347
-0.138554
0.116516
0.0919536
-0.000568054
-0.0913845
0.563049
-0.314553
-0.24848
0.628175
-0.354331
0.201418
-0.113505
-0.0878881
-0.161422
-0.129884
0.291281
-0.23489
0.125247
0.109661
-0.223115
0.155583
0.0675533
-0.150508
0.0722769
-0.165323
0.468379
-0.218262
-0.250108
-0.0326682
-0.143732
0.176421
-0.0195926
0.0741475
-0.0545545
0.148896
-0.0239914
0.0175224
-0.13472
0.117202
0.0959271
-0.2081
0.112202
0.103165
0.288843
-0.606403
0.170271
0.147701
-0.317926
-0.0960889
-0.130257
0.205108
-0.116464
0.144258
0.173437
-0.317627
-0.19836
0.335904
-0.137533
0.583532
-0.28622
-0.297577
0.281606
-0.139403
-0.0107966
-0.102398
0.0819895
0.0204098
-0.189935
0.143662
0.0462729
0.153827
-0.265997
0.301882
0.105975
-0.174197
0.0682312
0.168886
-0.303752
-0.162209
0.201745
0.0745221
-0.156663
0.0821418
0.109401
-0.21505
0.165784
-0.295332
-0.377842
-0.0442452
-0.0513254
-0.0156162
-0.090113
0.0206296
0.444981
-0.465921
0.13377
-0.272288
0.120445
-0.148224
0.349046
-0.170747
0.501867
-0.276299
-0.225705
0.352716
-0.0738351
0.194285
-0.0531945
0.191934
-0.138704
-0.15321
-0.0816653
0.00597591
-0.00166815
-0.00430776
-0.148835
-0.127856
-0.317927
0.000141674
0.0192591
-0.242663
-0.234343
0.477038
-0.066673
0.0820842
-0.534238
-0.0163839
0.550178
0.113073
0.0931382
0.0415955
0.285808
-0.279449
-0.00631633
0.39265
0.164645
-0.557316
-0.311285
0.169619
0.257115
-0.11648
-0.140614
0.0887879
-0.00813145
0.167427
-0.27241
0.568626
0.011471
-0.0685662
0.0570956
0.061886
0.0950284
0.0829237
-0.15126
0.0020885
-0.00231754
-0.0317982
0.15607
0.662829
-0.309277
0.10059
-0.128451
0.173599
-0.317994
0.144394
0.0209679
0.0803854
-0.101353
-0.227122
-0.134731
0.281447
0.522964
0.0794674
-0.00629424
-0.00734637
0.311936
0.350891
0.0424292
-0.265516
0.231111
0.127355
0.10367
0.0769039
0.111548
-0.160132
0.0996518
-0.270748
0.0577586
0.213002
-0.296884
0.105887
-0.146095
-0.195967
0.088402
0.107588
-0.195061
0.430383
-0.235349
0.161995
-0.222773
0.0607945
-0.347565
0.151993
0.0226219
-0.0493217
0.00728103
-0.00803044
-0.393732
0.171721
-0.0043167
-0.257437
-0.306304
-0.0602193
-0.129717
0.313535
-0.561722
0.248233
0.00213912
0.0038368
-0.205203
-0.350445
0.147062
0.124698
0.433539
0.0928398
-0.246286
0.106484
-0.245402
0.138929
-0.501538
-0.151281
0.652722
-0.143805
-0.250664
0.189041
-0.30563
-0.0998437
-0.0576609
-0.0736476
0.155666
-0.0820149
-0.151586
0.295488
-0.143914
0.230794
-0.126244
-0.245761
0.147291
-0.152989
0.0703396
0.303501
0.149271
-0.125881
-0.138015
-0.132326
0.298408
0.205252
-0.0564907
0.138052
-0.224571
0.0865259
0.00394598
-0.505534
-0.505767
0.26295
0.0973832
-0.171355
0.0739819
-0.349216
0.183977
0.0894852
-0.105319
-0.0905375
0.231578
-0.00468298
0.101842
-0.0971579
0.132523
0.130781
-0.263291
0.468655
0.131502
-0.329833
0.0771707
-0.196644
0.119477
-0.11704
-0.0524571
0.201582
-0.42091
0.134706
-0.0993403
-0.0756434
0.174989
-0.110527
-0.393629
0.129342
-0.557052
-0.0295358
0.586507
0.0138729
-0.0780027
0.0746562
0.00334691
-0.217447
0.102456
0.115011
0.00302315
0.015049
-0.108539
-0.0738456
0.182388
-0.107585
0.207968
-0.156192
0.0441923
-0.0567924
-0.0940965
-0.0720163
0.20761
0.00355651
-0.229717
0.091887
-0.0603909
0.166743
-0.106346
0.125789
-0.28724
0.168267
-0.221424
-0.181948
0.343294
0.154748
0.0162534
-0.197391
-0.170741
0.377491
-0.206736
-0.051336
0.0408934
0.244452
0.0700832
0.0231015
0.262748
-0.0602805
0.100629
-0.0403469
-0.373027
0.171799
-0.106808
0.203958
-0.0971393
-0.0811155
-0.217406
0.0839951
0.041478
0.252336
-0.0171604
-0.0836756
0.100838
-0.235921
0.103781
0.132139
-0.273946
-0.253608
0.527444
-0.087654
0.200757
0.00286879
0.000385479
-0.0907368
0.0943228
-0.00358313
-0.194721
-0.142813
-0.0868953
-0.223238
0.508036
-0.284994
-0.368988
0.329806
0.0391728
-0.0174051
0.117087
0.215344
0.228598
-0.507452
0.278805
-0.186642
0.0796878
0.106965
0.133925
0.158732
-0.292643
0.000122934
-0.169296
0.169187
-0.179928
0.355304
0.46901
-0.100879
0.071048
0.029831
-0.152126
-0.149876
-0.28916
0.360046
0.198645
-0.0410184
-0.157612
-0.154952
0.316153
0.394607
-0.107329
0.437663
0.0911613
-0.0946027
-0.136186
0.26249
-0.126271
-0.270217
-0.324466
0.422896
-0.196359
0.0901754
0.0798648
-0.170038
-0.132847
-0.122378
0.0998285
0.117375
-0.217177
-0.141738
-0.165198
0.306925
-0.0962709
-0.0541343
-0.102747
0.311112
-0.16679
-0.252048
0.124091
0.127979
0.440474
-0.1822
-0.258154
0.486784
-0.010444
-0.0665157
-0.103597
0.17012
-0.109764
-0.0861802
0.0630343
0.157262
0.0631661
0.104971
-0.168129
-0.162552
0.0632166
0.158751
-0.0692063
-0.0895353
-0.0898563
-0.0662869
0.0622963
-0.198425
0.0550649
-0.014706
0.15686
-0.318645
0.133258
0.159997
-0.293206
-0.284963
0.52223
-0.515743
-0.0413712
-0.0469632
0.157575
-0.110605
-0.123752
-0.410908
-0.0609041
0.00457851
0.00960988
-0.0141884
0.134583
-0.0950769
-0.039505
-0.00488542
0.39751
0.0484039
0.150255
0.157512
-0.0552689
-0.102238
-0.199504
-0.247287
0.446791
0.0809007
-0.0734153
-0.0257667
0.122348
-0.0965779
0.0438417
-0.0895746
0.114052
0.0910593
0.00262211
0.00582541
-0.00844746
-0.0677573
-0.0947888
0.107117
-0.0895935
-5.13885e-05
-0.00735549
0.188046
-0.0792646
0.149535
-0.2969
0.146857
-0.0509049
-0.174563
0.365678
-0.191131
0.00230983
0.00308284
0.0876066
-0.234393
0.1468
0.065237
-0.151445
0.0862132
0.392424
-0.209324
-0.183089
0.0860416
0.389873
0.107581
-0.49763
-0.00159731
-0.0138216
0.0154189
0.011521
-0.00921078
0.315848
0.267167
-0.583155
-0.00514442
0.0100329
-0.115691
0.094091
0.0216011
-0.0997958
-0.0872458
0.187043
-0.106885
0.181778
-0.0748803
0.135794
-0.447709
0.158549
-0.000337275
0.00295947
0.29215
-0.123237
-0.0340414
0.116442
-0.00844092
0.0130194
0.236048
0.336951
-0.573123
-0.0472452
-0.223479
0.286775
0.233757
0.104831
0.0666051
-0.144367
0.077774
0.0830346
0.0716731
-0.567099
0.0232807
0.366481
-0.0679045
-0.154853
-0.151961
-0.124091
0.276067
0.0145908
0.490141
-0.201365
0.0767521
0.124632
-0.323547
0.239075
-0.467635
0.190283
-0.12402
0.0114182
0.126519
-0.13793
0.466639
0.113494
-0.0246421
0.305156
0.387135
0.206599
-0.593864
0.0853548
0.119909
-0.0450169
0.103331
-0.0583119
-0.254312
0.259828
-0.219239
0.421808
-0.10829
0.126313
0.11404
-0.0765564
-0.0374819
-0.330482
0.174497
0.155969
-0.0100446
0.17775
0.0942507
-0.109866
-0.0993748
-0.00991544
-0.00172681
0.0116423
0.216224
0.0943274
-0.165319
0.0709973
-0.0100538
-0.000324557
0.0101718
-0.0502607
0.0400893
0.335839
-0.542784
0.206799
-0.233114
0.229037
-0.08761
0.206788
0.0747715
-0.178162
0.1034
0.0380355
0.120572
0.243434
0.00405533
-0.00408587
3.06661e-05
-0.0763681
-0.110264
0.0837163
-0.0940495
0.162702
0.124
-0.289115
0.519261
0.00523829
-0.0971937
0.205788
-0.108595
0.491038
0.330451
-0.581982
0.251445
0.000848968
-0.00386552
0.00301662
-0.213669
-0.0812762
-0.30457
0.131834
0.215566
0.12035
0.113381
0.143754
0.551692
-0.0848602
0.150104
0.128902
-0.265049
0.0923579
0.145953
-0.23831
0.215576
0.24143
-0.457143
-0.0890135
-0.049938
0.0563097
-0.120804
0.0409163
0.163549
-0.0969278
0.0209341
-0.0185511
0.0907339
0.061699
-0.152427
-0.428757
0.174048
-0.067286
-0.301712
0.146876
-0.159945
0.543696
0.127127
-0.14009
-0.15268