/*--------------------------------*- C++ -*----------------------------------*\
| =========                 |                                                 |
| \\      /  F ield         | OpenFOAM: The Open Source CFD Toolbox           |
|  \\    /   O peration     | Version:  v2012                                 |
|   \\  /    A nd           | Website:  www.openfoam.com                      |
|    \\/     M anipulation  |                                                 |
\*---------------------------------------------------------------------------*/
FoamFile
{
    version     2.0;
    format      ascii;
    class       volScalarField;
    location    "350";
    object      omega_0;
}
// * * * * * * * * * * * * * * * * * * * * * * * * * * * * * * * * * * * * * //

dimensions      [0 0 -1 0 0 0 0];


internalField   nonuniform List<scalar> 
9793
(
0.0223711
15.7971
0.0219369
2.62497
0.0222597
0.203777
0.0828062
5.20339
0.0221392
14.6008
0.0221966
0.0221873
0.0219177
1.75827
0.0217839
0.0265346
0.053129
0.0219322
2.18226
0.021557
0.0216248
0.0222917
2.6512
5.32567
1.84575
0.0265595
0.022099
0.022262
0.0215674
0.0797366
7.70724
0.37784
0.0220116
0.0219458
0.0218679
0.0284718
0.0245826
0.0249229
1.59885
0.0307247
0.0685815
8.81591
4.14301
0.0222717
0.0219608
0.0220421
5.86475
0.0222843
0.0217161
0.0219394
0.0281918
0.021851
0.0373685
0.0222686
0.0330688
2.19272
0.0219265
0.0901149
0.0217228
0.0222914
0.0270086
0.0972649
0.021952
0.0350792
0.0219629
0.0220657
25.6353
0.0242088
0.0250646
3.19956
0.0219717
0.101455
4.75242
4.11454
4.23677
0.0222624
0.0460879
10.6179
0.0219822
0.0222705
0.0495865
2.1238
0.0512764
0.023932
0.0250875
0.24244
0.0222612
0.0680351
1.61139
0.0935359
1.84248
1.44924
1.48168
0.0410469
3.89927
0.0219049
4.77018
0.0501453
0.0247146
0.0222685
1.45116
0.0355528
2.36379
0.0219661
3.50453
10.3332
4.08537
0.021878
0.0219862
0.0222835
0.0222335
2.17673
3.28677
7.39316
0.0219497
0.0221124
0.0244056
0.0220502
1.86776
0.0220278
3.0375
0.0727819
6.68358
0.042098
0.0246141
0.0220335
0.0605503
6.05598
0.18723
0.195422
0.0238312
0.0218011
0.022268
0.0234141
0.0273562
0.159996
0.607232
0.0244487
0.0222736
0.0607451
2.24899
0.0276169
0.0219296
0.0555528
5.66227
0.61449
0.0220342
4.58394
0.0217972
0.0220281
0.0220697
14.8341
0.0242565
0.0220921
0.0219184
1.45879
0.0566322
0.021947
0.548415
0.0219132
0.0639721
0.0239412
0.0216318
0.355217
0.0220849
9.57473
2.32665
0.0222819
0.0218792
0.0222173
0.0219428
6.17892
26.9352
1.95281
0.0219111
0.185213
0.136372
0.738343
0.0219671
0.0241484
3.88118
7.1298
0.0798968
0.0220349
0.0220729
0.0218726
7.20533
4.60723
21.646
2.48178
0.0219912
22.3338
0.413993
0.0254049
0.0217603
0.023286
1.98515
0.021594
0.0219302
0.0222039
0.0219901
0.0216251
0.0292852
0.0251641
1.7627
0.0219247
0.0280654
0.0222799
0.0223262
0.493665
0.0583874
2.40513
0.0216322
2.7763
0.0239483
0.0432381
0.0217966
0.154811
0.0221213
0.0503726
0.053612
0.0216284
1.42131
2.06196
0.0393444
0.02189
0.0510038
2.08896
0.0493968
0.050231
1.60497
0.138241
0.0409211
0.0357925
0.36793
0.021591
4.56034
6.30376
0.0215999
0.0222223
8.35296
0.021901
0.0222313
0.109232
0.12137
0.0220562
0.0241799
0.0291254
0.0381324
0.0242521
0.0219733
0.0439678
2.93826
0.0216257
1.97107
0.022262
0.02217
0.021659
2.12388
0.0219772
2.79555
2.79514
0.0221032
0.022131
3.36031
0.0218349
0.0222397
0.0218004
2.53394
0.271031
0.0249285
0.449257
0.0844917
2.29972
3.93475
0.0223041
21.3971
0.0222643
2.10227
7.81687
1.64608
3.13777
0.134635
0.0238609
0.0473937
0.0247718
0.0217945
0.0223857
0.469405
0.0267267
0.0221395
0.0222838
0.0216296
0.0216552
0.0216289
2.51026
0.0218685
0.0217747
0.0218416
0.0219196
5.41974
0.591331
0.0638664
0.0228626
0.0560625
0.0219478
3.33514
10.8647
0.0219713
3.23328
0.0332598
0.0219552
25.0637
4.05283
0.0220194
0.04615
13.2729
0.0221269
0.0339049
0.0217751
0.0222135
2.27204
0.0409544
0.0219552
0.0220214
0.0227356
0.172563
3.34549
0.0219409
0.021872
0.0217471
6.87767
4.55421
7.39922
0.021586
0.0432666
0.0347249
2.14744
0.068128
0.0215861
0.021644
0.0217475
0.0458725
0.0220514
7.09595
0.0220881
0.0217768
2.5984
2.4152
2.42794
0.0217269
1.44453
0.0246671
4.11108
6.37788
1.67918
0.0235963
0.0319491
0.720863
1.70997
2.09943
0.026474
0.0222634
0.0253059
0.0216833
0.0218527
0.0220328
0.0220813
0.022292
8.31022
0.0222065
0.0607569
0.0303237
6.12187
0.0215808
0.024019
5.34335
0.495877
1.87065
0.0662408
0.0217806
0.0236776
0.0219406
0.455293
0.0215651
2.35138
0.15846
0.0831461
5.94218
2.3161
0.0221373
0.02189
1.00266
0.417662
0.0219238
5.54092
0.0221313
0.0221756
6.75389
0.0216305
0.0918394
0.0216012
2.3948
0.0220934
0.022097
2.65599
0.0964072
0.0531469
0.0253936
0.0220746
0.0218321
6.07084
0.0498595
0.0215691
0.0221946
0.0342339
0.034745
0.0527133
6.8839
0.0221956
0.0219427
0.337943
0.0220811
2.55445
0.723621
0.0220646
0.0220165
0.0223525
0.0221163
0.021732
1.47228
0.050739
5.82058
0.0289122
0.0233977
0.0423081
0.0246384
1.7334
0.0262581
0.0222678
0.0242223
0.513757
0.0219385
0.0219166
0.0219709
0.021568
0.0219868
0.0217932
0.0220439
0.0221576
0.0228532
0.0247314
0.108411
0.0219317
1.4639
0.0256274
0.214594
5.03186
0.0218018
2.7685
0.0809519
0.0217694
0.0215683
0.021934
3.55677
0.0859441
0.0215649
0.0221205
0.0221972
0.0673831
0.152652
10.4807
0.0219762
0.0219202
0.0315917
6.49443
1.60319
0.0236726
0.0233154
2.04744
9.53421
0.247982
0.0221697
0.0217887
1.66767
0.0219097
0.134238
7.10175
0.0215575
0.238346
0.0269759
1.42887
0.0218331
1.93533
0.289745
0.0260345
2.48273
0.0219077
1.92221
0.0220945
0.0218864
0.022223
0.0219472
3.58087
0.0218995
0.0217052
0.0228144
0.0215955
0.0217894
0.0460711
0.0227744
0.0344478
0.0220338
0.0220382
4.13385
0.0746843
0.0236245
2.01519
0.0243222
0.0221739
0.0219817
0.0217309
9.34797
0.0216954
0.0220691
8.08542
8.58435
0.0388541
0.0219253
0.0222841
0.0221314
0.0222409
1.89052
0.0221729
2.84366
0.0242317
1.86657
0.022262
18.8662
0.022207
0.225133
0.0219163
0.0880645
4.10864
0.0221032
8.85041
0.0218993
0.0222182
0.0216147
4.81409
1.8102
0.0219426
0.0277649
0.0216908
1.99995
0.0218205
0.0446123
1.84821
0.0252249
0.0220264
0.0454643
0.0222451
0.0221802
0.0217644
0.101378
0.0219558
2.1805
0.0220518
0.0220684
0.0390472
0.0769002
1.52936
0.0217629
17.952
0.0218846
0.20091
0.0219151
0.0222351
0.0219051
0.0220496
0.0222682
0.217067
0.0410669
9.01343
0.109896
0.0351893
0.0341993
5.32823
0.0237046
1.83894
3.61997
0.260678
11.4658
5.30483
0.177799
0.0221867
3.4157
0.0387067
0.0221374
0.355401
0.0222509
0.467573
0.0358207
0.21481
0.027602
2.09217
4.60279
0.0368083
0.196648
0.022216
0.63835
0.0228613
0.0219197
0.0220376
0.0236242
0.0462368
1.55404
0.279951
4.67668
0.0234179
0.0233981
1.42032
0.355221
0.023069
0.0610852
0.0223491
4.92863
2.76005
0.0220586
0.0641617
0.270178
4.77542
0.0219578
0.0257863
7.83531
0.0286171
7.79444
0.0915569
6.11432
0.0256563
0.023812
0.0219149
0.021919
0.256557
0.0222842
0.312365
0.130643
0.0812783
0.0222596
0.0222238
0.0236675
0.0221193
0.0218328
0.0219029
0.100416
3.6831
1.88128
0.0222797
0.339212
0.0219505
4.10175
0.0462443
0.0465164
0.0341319
0.269792
0.0217475
0.0220604
0.0431463
0.0219087
0.0220808
0.0598638
1.48304
0.0216243
0.233961
1.70459
0.0244544
2.14348
1.78095
0.0218097
0.0544213
0.0271984
0.0219839
0.0216116
0.102532
1.69768
4.66004
0.0219524
0.0220158
0.0216594
0.0248295
0.0228044
0.0237877
0.574118
0.0459241
0.0221514
6.41928
0.02939
0.0335357
0.0220365
18.8734
0.023704
0.021918
0.082691
2.10779
0.0215735
0.0220498
0.0219473
0.0255085
0.0217432
0.0375334
0.611577
0.0221554
0.10085
0.0228696
0.0219854
2.15503
2.856
0.359832
0.0220749
0.0215874
5.24498
0.0258448
2.43604
0.0215518
0.0219001
6.57576
2.64266
0.0297128
0.0990208
0.0628502
0.0218862
0.0222717
0.021939
3.27852
0.0220571
0.0222928
1.58748
0.0274422
0.289954
0.0328038
0.0219359
2.59651
0.022268
0.0219105
0.0219281
0.0305463
3.45023
0.0221618
0.0219705
0.0219064
0.0218946
0.0219421
0.0219274
13.3191
0.0314547
0.022781
0.0221098
0.0316459
0.0607806
0.026482
0.0284783
0.0222839
0.0216529
0.0232935
2.16119
2.48855
0.0232474
4.54144
0.0222153
0.0252111
1.10876
2.20308
0.021775
0.0221804
0.345488
0.0508814
0.021907
0.0222486
2.25204
0.0222681
0.0684797
0.0220116
0.618032
0.0222475
0.0222418
0.0221268
0.0308253
0.0220718
0.0244714
0.0260976
0.163794
0.0218632
0.0219976
0.0222498
0.0218811
0.0221484
0.0219614
0.030638
0.0221112
0.0515582
1.9806
0.0427083
0.0628314
0.0222018
0.0217639
6.61495
4.46055
0.0216019
2.06388
7.36828
0.0215936
0.0219661
0.0218775
0.0953814
0.0535196
2.43916
0.0218566
0.0250526
0.0218594
0.0222578
0.022229
0.0856065
0.0221231
0.247228
0.0220931
0.0578419
0.0218938
0.0230844
0.0219101
0.0385807
0.0601128
6.871
2.8401
2.03255
0.0475166
0.0218989
2.96112
3.76919
0.0611275
0.0220352
0.0220847
1.98455
0.0218699
3.15342
0.0216063
0.0293823
0.0221986
0.0222698
0.0217814
8.52642
3.22542
2.90509
0.0723276
5.25164
0.0219518
3.03822
10.3461
0.0222705
0.0220534
0.0217269
3.43253
0.0215526
5.07277
0.0323736
0.141255
0.0222455
0.935237
7.85188
1.71191
0.0294474
0.0317978
0.0220407
18.7141
0.0215321
0.607782
0.219832
0.0686827
9.84368
3.3781
0.0238762
0.0233669
0.021949
0.0969527
5.29261
5.24059
0.0217419
3.94829
0.0260251
0.119891
0.122725
1.51024
1.55551
0.0216373
0.0259845
0.0303923
0.0242084
0.0239525
2.67167
0.0221968
11.3971
0.0217609
0.0216166
0.0782136
0.108956
3.08112
0.0226046
22.7559
14.194
0.729948
0.0268472
0.022233
0.022608
0.022227
0.0219111
0.861583
1.95386
0.0221638
0.0219151
0.0317195
1.71187
0.0258174
0.0219222
0.43505
0.0219396
0.0222749
0.0215417
0.0595752
0.0220293
0.0249699
4.35795
0.0606582
0.0222586
4.25848
0.128642
0.0219351
0.0230051
0.0336532
0.0222624
0.0219654
0.0217446
12.7601
2.13659
0.0221837
0.0352088
0.036155
0.63994
0.0219387
3.27471
0.0218617
0.0217498
0.694867
0.245394
0.0646113
0.0220128
0.021895
5.71982
1.51609
0.288003
2.85624
0.0221027
0.0238137
0.0220151
8.22338
0.0241829
2.3875
0.0226838
0.0219226
0.0236293
0.0216701
0.0218757
0.0640196
0.0217756
3.22386
0.021801
0.0221659
0.0215604
0.0249284
1.82949
2.79309
0.0519097
5.46116
0.021981
0.0359453
0.0233092
7.95716
0.0218268
0.0216254
2.66038
0.0345919
0.0327367
0.0221115
0.21949
8.55783
2.36826
0.0221097
0.0343794
0.915822
0.0313787
0.933847
0.122139
0.0808303
0.0217615
0.0225506
0.0607806
0.0766296
0.0219881
0.0998996
0.0217348
0.0221829
0.0222337
0.0217593
0.0219038
0.0219891
0.777
0.0256712
0.0229269
0.0458147
0.0217448
0.0219263
0.0380396
2.82994
0.0842548
0.0608368
2.33698
0.0222339
9.4071
0.029248
5.32863
0.0613335
0.0222018
0.0220857
0.0234577
8.79003
1.73964
0.050535
0.155569
0.0216498
0.0218908
0.022248
0.022201
7.66803
0.0255809
0.021961
0.156085
0.288476
5.88877
0.0227258
2.49207
0.0556802
0.0400835
0.0320472
0.427068
0.245926
0.022221
1.58697
0.28162
0.0386803
2.23224
0.0448661
0.0222082
0.0222638
0.0219108
0.0231043
0.0271307
18.839
0.0501291
0.0218705
0.293144
0.0220039
4.28723
3.35504
0.021957
27.9572
0.0217969
0.0217476
0.0220216
1.57206
14.7037
0.0483064
0.0312025
0.0217108
0.554352
0.0222313
0.0308289
0.0220906
0.0221247
0.0219078
5.20398
0.0227633
0.0420364
0.0289403
0.0222114
0.357233
0.132791
0.0340914
0.0252759
0.023762
1.76868
2.57794
0.0218857
0.0217563
0.021883
0.0225394
5.42077
12.8052
0.206932
0.0255638
0.0217795
9.333
5.12185
0.0221801
22.5017
0.0217064
0.0841007
11.8699
0.0217372
6.39193
7.9432
0.124883
6.24649
5.61268
0.0218384
0.0226404
2.47416
1.51806
0.0225177
4.86594
0.0248951
0.0219043
0.0222738
0.0231561
0.0398037
0.0251766
0.312054
6.43718
0.237727
0.0341857
0.0220789
0.0600283
2.182
0.0217524
3.64219
0.0474245
0.0222198
0.0245567
0.0222415
0.0221692
0.0314511
2.30062
0.0224761
0.0217881
5.17861
1.53581
0.0697247
0.0222613
0.0557291
0.0219273
0.0219312
4.1107
8.51958
0.0219211
0.0214857
2.79353
4.37216
0.0480787
0.02223
9.94966
0.0226954
0.0219278
0.0239571
0.0219321
0.0216436
0.0216182
9.68316
0.201709
0.0258477
1.61391
0.0448764
1.48809
8.46042
2.02982
0.157608
0.0219292
0.0222387
0.0223073
0.0219924
0.0748858
0.0218813
0.109027
0.0290768
2.93136
0.0220465
1.52102
0.0361969
5.13948
0.0219246
1.74335
0.0299171
0.175136
0.25835
0.0309567
0.0216151
8.98894
0.0558757
1.46424
0.0215991
5.28238
0.0220265
4.60526
0.503421
0.0430546
0.021921
0.0220886
1.87796
7.02728
0.0317537
0.0215593
1.41072
0.0851686
0.0446311
2.69966
0.0789076
0.0219082
3.70306
0.021915
0.0330871
0.0216118
8.78898
0.0216191
0.0236096
0.323435
3.56812
0.0222218
0.0669235
0.0243492
0.0787926
0.0218795
0.337984
0.0234052
0.0636746
0.0219244
0.0219852
2.01121
0.0285273
4.72589
4.41053
5.12542
0.0227026
0.0216365
0.0217537
0.0255986
0.0366494
0.0311945
5.56951
0.0235016
0.680078
0.0418065
0.022281
0.0219281
0.0687756
0.409886
8.87345
0.0219058
1.62121
0.0218625
5.25271
1.459
0.0464855
0.0219951
0.0217261
0.0428164
1.7505
0.0242806
0.0222686
0.0238226
0.0445206
0.0228938
1.51633
2.08838
3.90164
0.0221561
0.0262537
11.1122
0.0221866
0.0617482
0.0218006
0.824484
0.0363766
0.0219489
0.0431229
0.185349
0.0219309
2.17923
0.0219142
0.138169
0.252686
0.455136
0.335915
0.0221662
0.02218
19.2806
0.0221304
0.0398471
0.0822967
0.0235107
0.0215225
10.8834
0.0248626
0.405015
0.0234202
0.0663423
0.0225064
0.406611
0.0252154
0.0246187
2.3671
1.19186
0.0220889
0.022273
0.163768
2.1555
1.94129
0.790681
0.0293173
0.0219198
0.021796
1.85163
0.0221382
5.53119
0.0984455
2.51681
0.0221069
0.0217129
0.0217916
0.0428492
0.0459125
3.72359
1.56549
0.858124
0.223125
0.0216012
2.53276
0.0230023
0.0630327
0.0228715
0.0400961
0.0607661
0.0219239
0.0215696
0.064057
0.0216312
0.0391612
0.0707202
3.33383
4.28901
0.0377302
1.7945
0.0217365
0.0216301
0.0220738
0.199387
0.0614359
0.0462429
0.112031
3.98225
0.0394105
0.154412
0.0218057
0.0220778
15.431
0.0219094
0.281408
0.0214625
0.0218542
2.10806
0.331352
0.0218439
0.0798031
0.510698
3.49731
2.60236
0.025031
0.0667252
0.0490351
4.71969
0.0220409
4.92915
5.68993
0.0236965
0.0259957
0.0216057
0.513051
0.0217305
0.0219824
1.59111
0.0222095
0.0215589
0.201758
0.0588779
1.5273
1.51435
3.34361
1.85313
0.0216095
0.0219056
0.0218496
0.022205
8.42701
0.0220608
1.7496
0.0229812
4.57054
0.0244569
0.0221019
0.0216781
0.0222141
0.0303319
0.0220275
0.0215122
0.341334
0.0218158
0.0513096
0.0224409
7.01438
0.0245015
0.0220784
0.0219305
0.0529553
0.0219064
0.0217597
0.0220884
0.0222146
0.0245799
0.021842
0.0233663
0.0315196
3.7243
5.26558
4.57775
2.50704
0.021763
0.0220047
0.0219206
0.021425
0.021931
0.0217294
0.187082
0.021854
0.0222517
0.0220683
0.0220424
0.0219344
6.90708
0.0242041
0.0219717
19.846
0.0432284
0.0217089
8.0094
7.56228
0.0220194
0.45298
0.708866
0.0220269
0.0458804
0.0239331
0.021554
0.0273922
0.0220203
0.040049
0.0220122
0.0222473
0.0217401
27.8862
0.0284903
0.0455944
0.0220321
0.0222653
4.55955
0.0257523
0.0220356
0.023825
0.0241825
0.0222519
0.243347
11.7187
1.1665
1.5622
0.228696
0.0373816
0.0222597
12.0454
0.161189
0.0227322
0.0596207
0.0222932
0.0218953
0.0222464
2.92342
0.0461783
0.0219985
0.0220414
0.184503
0.0217247
0.445749
0.0219403
1.85808
0.229223
3.89792
0.0220792
0.0231902
0.031782
0.0355509
0.0222469
0.0387965
0.0854157
5.34303
0.0219757
0.486905
9.54155
0.0215619
1.88958
0.0433858
0.333669
0.105753
0.0219176
0.0277566
0.0404302
0.0216817
0.0250273
0.0215398
4.35846
1.77846
0.0325894
0.0218267
0.150332
0.0748101
2.82328
0.271654
0.0233327
0.0280998
0.0219467
0.0219139
0.0404997
0.0518165
20.0977
0.0218112
0.449623
0.0225517
9.68476
0.178241
2.3978
0.0215973
0.0229301
1.99548
1.80243
0.0430357
2.1683
0.0228836
0.231631
0.0219132
0.0218466
2.64847
0.531443
0.0248716
0.0220936
0.0751257
2.16361
0.195273
0.0661369
0.0217677
0.0220139
0.0217138
2.39413
4.85804
0.0217486
0.0447839
1.84951
0.0745511
0.279901
1.64374
5.65026
2.19826
0.0217645
0.0227806
1.60825
0.0218907
0.0492059
1.55606
9.72144
0.0233719
0.0302122
4.97988
0.627955
2.01564
5.02645
1.7244
1.48736
0.0221106
0.0216137
0.0219895
0.022562
25.1101
0.0547894
0.368095
0.465436
0.0563844
0.0219401
0.460747
0.0216993
0.0304779
0.0219216
0.0405917
7.11034
2.15846
0.022071
0.0215982
0.0386102
4.73998
0.187909
7.2516
0.0445971
0.022041
0.0830888
0.0214599
0.0952945
0.0320042
0.0219079
4.71343
0.172538
0.523789
0.0576494
0.0222254
0.0215736
6.17115
0.0252132
0.021617
0.022145
0.0222559
0.0216803
5.5693
9.63613
1.96232
1.40969
6.22529
0.0240065
0.0219416
2.97563
0.0243264
0.0858009
6.51434
0.0218661
5.2894
2.84638
0.0597049
0.0336587
0.795391
0.0230887
1.79491
0.037534
1.99932
0.0218166
0.0228464
0.0408228
3.24995
0.114541
0.0685988
4.90579
2.14482
0.0717532
0.160495
3.28838
0.0241879
0.364327
18.3816
0.0357682
0.0629097
3.1322
0.0321163
0.036829
0.0221033
0.0367463
0.0390095
0.0561121
0.0220881
8.58765
0.162507
1.81677
5.16303
2.15022
0.0396073
1.59842
8.66478
0.0218458
1.28435
3.02893
8.41456
0.0277912
0.0242106
1.64381
9.40168
0.0216071
0.239878
0.0217504
0.021909
4.1762
0.025381
2.29086
1.57013
1.88713
8.48202
0.0216175
0.0351604
0.0219833
0.0218429
0.11104
0.05689
0.0264836
2.79427
1.84148
0.0222731
0.0261306
1.34859
0.0234239
0.403376
0.0478432
1.48704
1.48782
0.402993
9.17753
7.0808
1.80686
1.50538
1.73165
0.0313269
0.0251576
0.116867
0.120093
1.82247
8.32477
0.0221318
0.0226072
5.50969
2.32351
0.024711
4.86329
0.0219212
0.820643
4.64743
4.75448
0.0219228
1.65115
1.54969
0.0267773
0.0346163
5.50824
4.87384
4.74275
3.61285
0.0219731
6.40249
1.61542
0.0407225
0.222536
0.108089
0.0217323
0.0265651
3.49687
2.34723
0.0245144
0.0221716
1.56113
0.0849112
1.81992
0.0740983
2.20633
1.53855
0.0219904
11.0744
0.0222852
0.0303187
0.0220405
0.0218218
0.0217018
0.0371558
0.28044
0.0214899
15.8919
0.0712344
6.84937
7.82177
1.98384
0.0219088
4.52133
1.52646
2.00759
0.0343374
0.0219236
3.52974
0.405611
2.11837
0.0550366
0.0234255
0.0216846
4.65838
5.35549
0.0333112
15.6378
0.0310135
0.0221583
1.45662
0.053992
19.9991
0.0218986
0.0295848
1.65912
4.6712
1.50273
0.221396
1.49244
1.702
5.95289
0.0220474
7.79293
0.047549
0.0218298
0.0215498
0.0219145
5.16555
0.0492964
1.50497
1.55912
0.0365538
0.153036
0.0786306
2.58314
0.263698
5.71756
4.90798
1.29797
0.0885412
0.0216452
0.705333
0.0562646
0.110978
1.44189
2.69039
1.71451
0.0220944
0.0240761
0.0486344
0.0220591
0.0219531
0.0276875
1.53184
0.0287134
0.0253343
1.41541
0.0723762
0.3164
4.14657
1.57913
0.430604
1.95545
4.81544
2.23186
0.0626461
0.0311115
0.0220885
1.30531
0.106389
0.22175
0.0628735
0.0607185
0.0214485
0.177246
6.14324
0.0265823
0.0215819
0.0230606
3.60105
0.0218745
0.0220252
0.0623133
1.54778
0.0284867
0.0544444
0.178281
0.0304644
0.0588188
0.0218489
0.0219824
0.0410421
0.225115
0.0222089
0.0311694
0.270768
6.86492
0.0221016
11.5374
0.0218686
1.57143
0.0232221
0.0233685
0.0215485
0.17902
0.0342838
5.59482
11.8634
0.0681336
0.0221618
0.021939
5.60282
2.93433
0.0218028
0.244937
1.60399
0.0523312
0.0767997
0.0214225
0.0226346
0.0219228
1.48089
0.0421779
0.0220502
6.43264
0.0223282
0.0575975
0.25756
0.0217338
0.0957142
0.0597741
18.4111
0.0223869
0.0261458
0.0233723
0.0541144
0.0213995
0.0219055
5.77958
0.326403
0.0748922
0.0218755
1.90514
0.0223336
0.0223311
0.0219574
0.450212
6.26961
0.0237194
9.95332
1.63793
0.0639213
2.98764
4.76406
5.08526
6.95787
0.052626
0.0629579
0.214743
0.0478299
0.0219505
0.0300518
0.0294981
7.90083
0.0220788
3.29872
0.0219774
0.410345
0.0905799
0.022778
0.022952
8.61042
11.5994
5.43369
1.57543
0.0218102
0.0667928
4.56788
0.0259026
9.74243
0.0406279
0.107129
1.66542
0.0341439
0.021993
0.123551
0.147594
0.0219128
1.50388
0.676589
0.0217058
0.0222394
0.0221212
0.0220094
6.58153
0.0219763
0.0473432
0.0220248
0.0223383
0.032277
0.0219379
1.50655
0.0836824
0.0221233
0.021622
0.109766
0.0232995
0.0551739
6.18298
4.81205
0.0531673
0.229069
0.0402934
0.021589
0.135745
10.4993
0.0377162
1.48127
6.06812
0.0746967
0.0385634
0.0280958
0.0665057
0.0377014
5.66272
0.0221131
0.0221365
0.0217983
2.40969
9.43913
0.0358024
0.0987875
0.0218642
0.0266195
0.106558
0.267809
0.0219028
0.0596979
1.86883
0.0874504
0.0219902
0.0219194
19.9523
5.54638
0.0219335
0.627133
0.0304223
0.197185
0.293469
0.02186
2.95937
0.0289571
0.0220247
2.7571
0.20212
0.0219207
0.0221622
0.261348
0.0217665
0.0220409
0.152438
0.0418166
0.0454814
6.36795
0.0251667
0.0415333
1.80692
0.0218347
9.12302
4.69496
0.0250334
0.0585472
0.177317
0.0219627
0.157829
0.0214645
2.21029
1.50554
0.0220037
6.46936
7.82613
0.0219296
0.0219318
0.569902
0.037843
1.58003
1.5324
0.022095
0.0428326
4.97536
0.0226207
0.0478709
0.0681079
0.0336423
3.06627
0.196779
0.02333
0.223031
5.71066
0.0452596
3.07418
0.0219116
0.0215469
0.0222674
0.0420226
4.91044
0.0220656
0.0331414
14.8559
2.67478
0.0222177
0.0296628
1.97145
1.57402
0.0222247
9.27593
0.0333917
0.0864303
0.0342931
0.0230377
0.0258271
0.0219481
0.0219616
6.09668
0.0219334
0.0519258
0.0219825
4.75594
0.0233175
0.0239629
0.0215856
0.0237121
0.0219832
0.0411719
5.22543
1.06151
0.0376733
0.0421901
0.0219673
0.031497
0.0510041
2.24434
5.25448
0.0218302
0.958012
0.0220228
2.31311
1.42338
5.06811
0.0218267
0.105807
0.0698527
5.86623
0.235741
0.0218395
2.52183
0.325919
0.0377339
3.3189
0.0221672
0.0219865
0.0391733
3.44387
0.0219191
6.98251
0.033836
2.50395
0.0896539
0.0223741
2.20021
0.0279451
0.0220795
0.269192
0.0219182
2.79886
10.3177
0.15545
0.0274786
0.152779
0.0219253
0.101026
0.0437851
9.62257
0.0220038
0.0216139
0.0267058
0.029364
0.042583
1.88576
3.67504
0.0356699
0.225708
0.0218007
3.24817
6.07157
0.180166
0.0219169
0.0222602
0.023154
2.80699
0.0220438
0.0261785
2.42621
0.0815312
0.0219716
0.263307
0.07663
0.0219878
0.0250113
0.117361
1.55425
0.0685073
0.0427892
1.98045
1.53425
0.425099
0.0265171
0.0220953
0.0242865
0.0245957
0.136705
0.0558216
0.0273085
0.0751773
5.28252
0.0240218
0.0219952
4.86602
0.281677
1.74004
0.177982
0.0255947
0.0236643
0.0235291
0.0217567
0.0218773
0.0426304
0.0215427
0.0228792
0.0220181
0.0228841
0.02347
0.0219469
0.0384194
0.0359635
0.0220672
0.0219341
0.022119
0.0226945
0.022308
0.246114
0.0220572
0.0233709
1.4291
0.0216873
0.0231515
0.0222226
0.0270181
4.85096
9.97426
2.57606
2.97544
2.91258
0.199411
0.021872
0.0576062
0.0219797
0.679616
0.0230956
0.0291982
0.0221511
0.0528564
0.0219598
0.0305434
0.0217805
2.53688
0.161084
0.0220785
4.31493
2.72055
0.02213
0.0876843
0.0219512
0.0215898
7.26303
0.0221008
0.0637553
0.18831
0.022105
0.0215493
0.0710377
1.66435
0.0249329
0.0233588
1.48689
0.021944
3.82552
0.0489562
9.20748
0.0216662
1.55278
0.0219104
0.0221339
0.230812
0.05695
2.3035
1.75384
6.62819
2.81116
0.16448
0.135012
0.0220461
0.132603
0.0220011
0.0218197
0.0924339
0.0219093
0.0219831
0.0215982
0.0216089
0.0546642
4.63022
1.50297
0.392041
2.64498
0.0234682
0.0301776
0.0227789
0.0226871
0.0724776
0.0220096
0.0217216
0.0218094
0.0235971
0.0231078
0.200429
0.0792415
0.0454008
0.0221088
0.0540816
0.0551543
1.99386
5.2333
0.0246263
0.0385443
0.0220883
11.8758
1.648
0.0219189
0.0219337
0.0243279
0.0222129
0.651579
0.270855
4.58063
0.0220964
3.4847
0.0220674
2.70033
0.0491812
0.0218103
0.0279034
3.70241
0.0268345
0.0276361
0.0296019
0.0796684
4.42173
0.0217546
0.0219153
0.0277837
0.155172
0.0218517
1.99023
3.52616
0.0219481
0.0214178
6.15888
0.062715
0.0219172
5.02727
15.4533
2.25449
3.66985
0.0276405
1.96184
0.0220711
4.70369
3.10944
0.821487
0.0623178
0.0237866
5.18432
0.0248651
0.0218673
0.0214466
0.548595
0.0216297
5.68398
0.0226225
0.0221242
0.0249131
1.51155
0.0237518
0.02274
0.0220735
9.58505
4.06143
11.2402
1.61501
0.0408959
0.0219201
0.0240584
0.234066
0.107147
0.0219875
0.0482635
0.200347
3.96537
0.0219302
4.05686
4.77073
0.0372525
0.0220629
0.0237068
0.0219515
0.0217306
0.0219386
0.0220318
0.0221588
0.0956218
0.0220954
0.118699
0.0225429
0.0226363
5.05712
0.0660268
0.0234037
0.0227271
2.1876
0.0215493
0.0227466
0.0259049
0.0218147
2.02956
0.0306627
0.022691
0.0439422
0.0219375
0.0270084
0.0218078
0.138545
0.0218191
0.0218977
6.40311
0.0234901
0.177113
0.0325936
0.0236849
0.0797269
0.0214037
0.022088
0.0225842
5.21459
0.0237257
0.0219166
1.91715
0.021962
0.0216178
0.021884
0.691531
0.0318774
0.131661
0.033259
0.0305325
0.0492966
0.0237582
0.026941
0.0470945
2.28845
0.0222081
0.0282083
0.0217934
0.250723
0.198008
0.0219046
0.028663
2.94766
0.0296897
0.0215412
7.23953
0.0257043
0.0808872
2.36929
0.0280632
0.0218866
0.029
0.0219178
0.0241961
0.0219052
0.0232514
0.0257685
0.0219701
0.0220681
0.0316492
0.0221184
0.08926
0.0218967
0.0236384
0.0219216
0.0292671
1.55653
0.0220524
0.0219752
0.0966925
0.0231025
0.0219295
0.25799
5.74736
2.97495
0.022042
0.0243338
0.0343258
0.0222447
0.022125
0.0330604
0.188336
0.0215309
0.052298
0.0219611
0.0218897
0.0217482
0.0215214
0.0227787
0.042209
0.0332454
0.0266144
1.67617
0.0240756
0.0278618
0.0217173
2.15369
3.669
2.57415
0.0220187
0.045785
0.0279338
0.0219887
0.02212
0.040923
1.536
2.39742
0.0219195
0.0273235
8.30388
0.0227154
0.176751
5.33521
1.62128
0.0288918
0.0219779
0.0378489
0.0429385
0.144741
11.1155
8.09913
1.57573
0.0226717
0.0221737
0.0219211
0.101177
0.0219068
0.0216817
0.0370452
0.0219027
0.0218659
0.0218775
0.0515605
0.0219456
0.0217755
0.0219725
2.4095
0.0215372
0.0220114
0.0221066
0.0225742
0.0219389
0.071297
0.0664282
6.78631
0.021575
0.0280805
0.108386
5.35394
2.38008
0.0221879
0.0222752
0.05167
0.094436
0.0256743
0.360766
0.0219299
3.86917
0.0222781
1.48359
0.0227575
0.0219125
0.0432819
0.0219366
0.0219758
0.0226868
0.685461
0.0243254
0.0224162
0.0221782
0.0219522
0.0389825
0.0219515
0.0219178
0.025797
0.101412
0.0241931
0.0218551
1.47365
6.34913
0.0219649
0.939934
0.022143
0.0297628
0.073747
0.204584
0.0233696
0.0229173
0.0220513
0.261226
0.0282159
0.0221647
0.0219023
0.0231626
0.154526
0.0220766
0.0341662
0.0237938
0.0347177
0.0500488
0.0370658
0.087234
3.59611
0.0248509
0.0220389
6.81913
0.321973
0.0219307
0.0214859
0.0220632
0.0219611
0.0219064
0.0238206
0.021669
0.0220785
4.74769
1.55769
0.0316182
0.0219337
3.08787
0.0237788
0.0216979
5.90141
0.0236968
0.0216437
0.0220943
0.0220369
0.0360046
0.0220307
0.0540356
0.021921
0.0217793
0.0219441
0.031797
0.0350883
0.0218937
0.0552412
1.50147
0.0231015
0.0218922
0.0602434
0.0217095
0.021983
0.0218602
0.0299745
0.0220521
4.61481
0.0222848
0.231661
3.14839
0.0546887
0.0232893
0.0222493
0.0220145
0.0219383
0.0292593
0.157826
0.112238
0.0218071
0.0237544
4.94193
0.0215807
0.167348
0.0219654
0.0231668
0.0305754
0.0609436
0.0219567
0.0331327
0.0279193
0.0578519
1.45498
7.61153
0.0218665
0.0219269
0.0323673
0.0227712
0.0225979
0.0488554
0.0226922
0.0977049
0.0217806
0.0687993
0.022106
0.0796567
0.0556983
1.47351
5.16306
0.0219221
0.0380466
0.908904
0.203031
0.0215904
0.0217742
0.124551
0.0219419
0.0219265
0.0217395
0.0215086
0.0698027
0.0707129
20.2282
0.0220201
0.0433744
0.022255
0.0215827
0.023011
1.7345
0.165382
0.0219122
0.0220994
0.0218373
6.76076
0.0220072
0.0219319
0.0224267
0.0219447
0.0427808
0.0218337
1.84843
0.0219859
0.0225785
0.0223314
0.0218893
0.0217371
0.0220075
12.1566
0.0217804
0.0219387
0.231133
0.0218828
0.0220425
0.0221115
0.0221559
0.0528486
0.0219027
0.0219749
2.46505
0.0235421
0.0220381
0.0222302
0.021515
1.55845
0.0229277
0.0221774
0.0218982
0.0258629
0.0219691
5.32465
0.0217941
0.0220108
6.07102
0.0219769
0.0608448
0.0221582
0.0214072
0.0215026
0.0304434
0.0370269
0.0218403
0.0222862
0.0239914
0.0219045
0.0221106
0.0220726
0.0218706
0.0217469
0.0218151
5.9263
0.021959
0.0218352
1.88166
0.0219366
0.0266413
0.120341
1.60561
0.0218132
0.0220448
0.0219596
0.0216317
0.0228971
0.0384965
0.0238278
0.0365088
0.0217632
0.0254606
0.021973
0.0214707
0.0280622
0.0576438
0.0234706
0.0290029
0.0220262
0.0219592
0.0221201
2.2479
0.0235067
0.0220117
3.78078
0.0229496
2.56679
0.0220632
0.0219331
0.0217308
1.6003
0.0219326
0.0248955
0.0229297
0.0220724
0.0219654
0.0220882
0.0220055
0.0242202
0.0218991
0.0386299
0.0222479
0.0385693
0.0214936
0.0216277
0.0238805
8.27973
0.0221482
0.0220483
0.0225552
0.0219239
0.0240543
2.10625
0.0226979
0.0270462
1.94622
0.698266
0.0226529
0.0227147
0.146467
0.089661
0.023148
0.0221146
0.0218787
3.95785
0.022627
6.04739
0.0216887
0.0215363
0.0221045
0.0219055
0.0231343
0.0215808
0.0219876
0.0222651
0.0583136
0.023717
0.0225262
0.0216233
0.34541
0.0619113
0.0215084
0.0221043
0.0233897
0.022239
0.0220585
0.0215845
1.48751
0.0215972
0.0219277
0.0661729
0.0215744
2.05819
0.0218215
0.0430358
0.0272608
0.0219685
0.021534
0.0219209
0.0221655
0.0220428
0.0217697
0.0216138
2.1598
1.62808
1.87819
0.0216073
4.91908
0.0219569
0.0547234
0.0219193
0.0219236
0.0221091
5.75926
0.0219474
0.0219061
0.0221259
0.0219535
1.69523
0.0219272
1.74614
0.0214442
0.0224902
2.5219
4.8499
0.0219827
0.0219571
0.0267522
0.0220163
0.13948
0.0217501
0.561653
0.0217629
0.0352427
0.0221391
0.021815
0.0219425
0.0219466
0.023124
0.0218721
0.0307521
0.0347579
0.117899
0.0217323
4.26595
0.0218952
12.6385
0.0219092
5.48248
1.0964
0.0217472
0.0219093
0.0215937
0.0218585
0.0220437
0.0220247
0.0215824
0.0224941
0.0214378
0.0860828
0.0221106
1.50568
0.0215742
0.0215279
0.0219254
0.02192
0.0226557
4.09134
0.0230152
3.00459
0.0215398
0.0221188
0.0347675
0.0215805
0.140708
0.0231906
0.0219295
0.0393536
0.0215037
0.0219717
0.0224092
0.0217025
0.0286294
0.0397568
0.0216317
0.0221124
0.0220457
6.35319
0.0233729
0.0215787
4.69211
0.0513943
0.0216214
0.0219179
0.1531
0.0228127
0.021436
3.8084
0.211977
0.0228224
0.0214423
0.0222398
0.0351376
0.021565
0.188351
0.0216134
0.0216764
0.0409558
0.0522738
0.0216074
0.0216078
0.0215019
0.0217299
0.0217417
0.0408009
0.0219702
0.0217496
0.022111
0.0218469
2.93456
0.0222722
3.15628
0.0262413
0.0277277
0.022142
1.75764
0.0219077
1.9271
0.0215263
0.0219596
0.453069
0.0219721
0.0227877
0.0216532
0.0247174
0.0217033
0.0269148
0.0215649
2.61723
0.0221574
0.0215725
0.0215326
0.0215713
0.100906
0.0217757
3.83817
0.0219164
0.0247758
0.0214977
0.0220168
0.212453
0.0219995
0.107274
0.0218145
0.0230352
0.0221217
0.0221329
0.0224191
0.0219164
0.0219825
0.255553
0.0215693
0.0219471
0.0225135
0.022057
0.0220541
0.0326639
0.0218601
0.0219172
0.0218473
0.0216189
0.0217613
0.0219963
10.5999
0.188242
3.6155
0.0214331
0.0236013
0.0221258
0.0263768
0.116397
0.22291
0.0318438
0.0215669
0.0219781
0.0219549
0.0221438
0.0221145
0.0219113
2.5997
0.0503976
0.0219285
0.515587
0.0221369
5.79106
0.0219627
0.0218916
0.0218028
0.0215627
0.0214807
0.021836
0.0216564
0.0217894
0.0414739
0.0228808
0.021916
1.75822
0.0215633
0.0227214
0.0219867
0.0215963
0.021924
0.300182