/*--------------------------------*- C++ -*----------------------------------*\
| =========                 |                                                 |
| \\      /  F ield         | OpenFOAM: The Open Source CFD Toolbox           |
|  \\    /   O peration     | Version:  v2012                                 |
|   \\  /    A nd           | Website:  www.openfoam.com                      |
|    \\/     M anipulation  |                                                 |
\*---------------------------------------------------------------------------*/
FoamFile
{
    version     2.0;
    format      ascii;
    class       surfaceVectorField;
    location    "350";
    object      Uf_0;
}
// * * * * * * * * * * * * * * * * * * * * * * * * * * * * * * * * * * * * * //

dimensions      [0 1 -1 0 0 0 0];


internalField   nonuniform List<vector> 
14470
(
(0.962823 -0.0160317 -9.50577e-21)
(0.960958 -0.0158062 1.14073e-20)
(0.962264 -0.0140309 2.33464e-20)
(-0.129411 -0.00169159 0)
(-0.13735 -0.00011903 0)
(0.992179 -0.00626404 -6.26225e-23)
(0.992516 -0.00668863 7.35291e-23)
(0.991902 -0.00697705 6.71152e-21)
(-0.0433331 0.110701 -6.58577e-20)
(-0.037569 0.109696 -3.72278e-20)
(-0.0391777 0.117615 7.74565e-21)
(0.999963 -0.000546373 4.01574e-21)
(0.999958 -0.000522798 3.81283e-21)
(0.999928 -0.000705353 3.65672e-21)
(1.22553 -0.0257099 0)
(1.23266 -0.0235793 0)
(1.23029 -0.0315911 -3.89219e-20)
(1.11432 -0.235199 -1.41607e-20)
(1.11974 -0.224836 -1.64803e-20)
(1.12961 -0.234359 1.02324e-20)
(-0.0964389 0.0486153 0)
(-0.0858518 0.0516536 7.61128e-20)
(-0.134082 0.0490358 -5.92651e-20)
(1.02076 -0.0374218 -5.35179e-23)
(1.02215 -0.0383512 0)
(1.02045 -0.039123 0)
(1.00005 -0.00200082 3.12989e-21)
(1.00004 -0.00186608 3.47131e-21)
(1.00005 -0.00186774 -8.89311e-22)
(1.00002 -0.00213184 -1.07637e-21)
(1.00007 -0.00214859 2.78515e-21)
(1.00219 -0.00943165 -3.04332e-21)
(1.00208 -0.00896812 9.15967e-22)
(1.00186 -0.00925575 -2.70503e-21)
(-0.0610254 0.148907 4.41425e-20)
(-0.0815132 0.148018 -1.80734e-21)
(-0.0809345 0.152375 6.61689e-20)
(1.01983 -0.0233531 3.38557e-21)
(1.01927 -0.0223989 7.82569e-22)
(1.02057 -0.0225009 1.73984e-21)
(1.06643 -0.00448598 0)
(1.06794 -0.00405668 0)
(1.06655 -0.00298586 1.25164e-20)
(1.13568 -0.0667975 -4.57519e-20)
(1.14189 -0.0688564 1.53492e-20)
(1.13751 -0.073783 1.63764e-20)
(0.994313 -0.00867155 5.07038e-21)
(0.994268 -0.00915576 4.15833e-21)
(0.994741 -0.0088554 -2.349e-21)
(-0.0674328 -0.0606425 8.79354e-21)
(-0.0662357 -0.0594174 -1.72224e-20)
(-0.0677169 -0.0703709 7.45073e-21)
(1.01761 -0.00516008 -3.88933e-22)
(1.01754 -0.00476931 1.53378e-21)
(1.01795 -0.00497908 -1.1433e-21)
(1.02324 -0.0100861 9.82108e-22)
(1.02394 -0.00987499 -1.90158e-21)
(1.02315 -0.00947025 0)
(0.99999 -0.000210029 -4.0338e-21)
(0.999991 -0.000219564 -1.42275e-22)
(-0.0450285 0.158169 4.04534e-21)
(-0.0412047 0.167865 -1.54159e-20)
(-0.0371897 0.158724 -1.22162e-20)
(-0.0662776 0.0445366 1.65448e-20)
(-0.11859 0.0458203 0)
(-0.0394988 0.14473 0)
(-0.036662 0.148162 3.26535e-20)
(0.919272 -0.0587599 -1.9871e-20)
(0.924276 -0.0575969 5.89483e-21)
(0.920192 -0.0530657 -1.8064e-20)
(0.999948 -0.00350401 -5.3819e-22)
(1.00002 -0.00369517 -1.6923e-21)
(1.00004 -0.00342967 1.05603e-21)
(1.00003 -0.000425253 -1.31074e-21)
(1.00003 -0.00048691 1.59456e-21)
(1.00006 -0.000600361 3.91489e-21)
(1.01735 -0.00527415 -3.40692e-22)
(1.01772 -0.00550744 2.57843e-22)
(1.15927 -0.139136 1.97554e-22)
(1.16728 -0.137277 -6.69694e-20)
(1.16522 -0.146601 2.50061e-20)
(-0.292558 0.0188491 -6.69534e-20)
(-0.294807 0.0189274 6.53228e-20)
(-0.325986 0.0190614 -3.17848e-22)
(1.27217 -0.0421733 0)
(1.26104 -0.0427286 0)
(1.26805 -0.0506519 4.28767e-20)
(0.996577 -0.00350937 3.51077e-21)
(0.99642 -0.00323605 -2.23759e-21)
(0.996235 -0.00367979 -1.06336e-21)
(0.997203 -0.00879096 7.10043e-21)
(0.996972 -0.00924821 -9.96413e-22)
(0.997366 -0.00928856 4.92182e-21)
(1.00557 -0.000625743 6.97528e-23)
(1.0053 -0.00061971 3.42016e-21)
(1.00514 -0.000353182 1.25941e-21)
(1.08143 -0.0318117 0)
(1.08042 -0.0339102 0)
(1.08288 -0.0332434 0)
(1.06244 -0.00798266 -1.05915e-20)
(1.06172 -0.00929612 7.73611e-21)
(1.06071 -0.00819941 1.16562e-21)
(0.917103 0.00405739 -1.96906e-20)
(0.91367 0.00577746 0)
(0.914068 0.00087408 0)
(-0.149101 0.0665752 0)
(-0.143743 0.0623466 -5.27752e-21)
(-0.141944 0.0564909 0)
(1.08043 -0.075778 -6.32108e-21)
(1.07658 -0.0738015 -4.05236e-21)
(1.08032 -0.0712724 2.01978e-21)
(1.15032 -0.142213 3.1443e-20)
(1.15207 -0.133443 5.06766e-20)
(1.05492 0.0424893 3.91193e-21)
(1.0503 0.0384053 5.55583e-20)
(0.894013 0.0538136 0)
(-0.099512 0.0183793 1.03457e-21)
(-0.0900248 0.0334324 -3.35672e-20)
(-0.121488 0.0250532 -1.6686e-19)
(1.00001 -0.000275641 -8.03388e-21)
(1.00002 -0.000401532 -5.45913e-21)
(0.992538 -0.000267959 9.105e-24)
(0.992096 -0.000536156 -7.04951e-21)
(0.992144 3.45175e-05 1.50274e-20)
(0.996431 0.000100865 7.19073e-21)
(0.996713 -3.58136e-05 2.07728e-21)
(0.996672 0.000304572 2.3713e-21)
(-0.242732 0.0409293 6.24415e-20)
(-0.248181 0.039886 -1.2215e-20)
(-0.226618 0.0465642 5.94822e-20)
(0.999997 -0.000490138 1.15758e-20)
(1.00001 -0.000252636 4.28387e-21)
(1.00002 -0.000247701 -5.35378e-22)
(1.03186 -0.00821462 -2.02196e-21)
(1.03144 -0.00749284 0)
(1.03251 -0.00765438 0)
(0.994391 -0.00802135 -4.97136e-21)
(0.993868 -0.00838019 4.03847e-21)
(1.08297 -0.0291193 0)
(1.07992 -0.0297393 -4.46326e-21)
(1.00582 -0.000867314 -1.3595e-21)
(1.00588 -0.000578794 -1.06789e-21)
(1.10284 -0.0482348 -1.21481e-20)
(1.10622 -0.0507221 -4.42382e-20)
(1.10567 -0.0460931 1.71311e-20)
(1.00001 -0.000710791 3.43347e-21)
(0.999995 -0.000738399 -7.62285e-22)
(0.897821 -0.11676 2.58529e-21)
(0.907197 -0.115159 -1.30545e-20)
(0.904489 -0.12536 -2.65055e-21)
(-0.0509075 0.102587 -4.35354e-22)
(-0.0525683 0.111249 -1.44709e-20)
(1.00236 -0.00855286 -8.92759e-22)
(1.00224 -0.00812145 2.92637e-21)
(1.00254 -0.00833012 3.39764e-21)
(1.15243 0.0163596 0)
(1.15086 0.0219215 -2.06222e-21)
(1.14679 0.0180642 0)
(1.03126 -0.00860494 -5.03784e-21)
(1.03224 -0.00882405 6.10843e-22)
(1.00001 -0.000261767 -3.55186e-21)
(0.902116 -0.0173687 -2.4502e-20)
(0.896815 -0.015947 -9.43162e-21)
(0.901385 -0.011706 -1.91132e-20)
(0.828745 -0.322633 8.19197e-21)
(0.846968 -0.33179 1.85588e-20)
(0.822015 -0.353161 2.16128e-20)
(0.993891 -0.00672816 9.93449e-21)
(0.99361 -0.00637584 9.82158e-21)
(0.994127 -0.00617491 1.47258e-20)
(1.0899 -0.00486315 0)
(1.08946 -0.00773081 0)
(1.08707 -0.00555762 -1.53379e-20)
(1.00276 -0.00124277 0)
(1.00294 -0.00116663 1.24438e-21)
(1.00297 -0.00140985 0)
(1.01946 -0.0364934 1.16513e-24)
(1.02089 -0.0359416 2.24081e-21)
(-0.256584 0.0274078 8.84316e-20)
(-0.248762 0.0267331 0)
(1.05444 -0.046223 8.92571e-21)
(1.05221 -0.0464098 -4.36568e-21)
(1.05376 -0.0485889 -1.27299e-20)
(1.06313 -0.00675807 -6.12401e-21)
(1.06355 -0.00532836 4.35792e-21)
(1.06192 -0.00561405 -1.08928e-20)
(0.0230333 0.00644216 0)
(0.0486985 0.0166394 -7.68615e-20)
(0.0573908 0.0141749 -3.1918e-20)
(0.979052 -0.010743 -6.82219e-21)
(0.977834 -0.010407 -6.61617e-22)
(0.978962 -0.00962076 -5.80162e-21)
(0.599269 0.0287532 -3.65314e-20)
(0.579584 0.0420898 -5.71812e-20)
(0.578059 0.0140079 7.69573e-21)
(-0.159166 0.0544375 5.08221e-20)
(-0.123322 0.0574221 -1.65747e-19)
(-0.157136 0.057556 5.34328e-20)
(0.505263 0.206783 5.89996e-21)
(0.383012 0.225613 4.74581e-21)
(0.499131 0.224561 1.70868e-20)
(0.18278 0.0517829 0)
(0.122697 0.0478702 -7.24579e-20)
(0.181212 0.0578404 1.76398e-20)
(0.999999 -0.000688895 1.16046e-21)
(0.999992 -0.000745121 3.72059e-22)
(1.00002 -0.000936285 -2.40479e-22)
(0.793012 -0.132454 -4.05334e-20)
(0.807793 -0.139491 3.39626e-20)
(0.805258 -0.123484 4.63754e-20)
(0.928004 0.0128017 -2.8287e-20)
(0.757519 0.0261154 -9.3986e-20)
(0.765779 0.0199787 4.74129e-20)
(0.994634 -0.00319418 2.66894e-21)
(0.99441 -0.00360886 4.42705e-22)
(0.994839 -0.00346357 -1.50678e-21)
(0.999973 -0.000625411 5.7719e-21)
(0.999977 -0.000630692 -2.62261e-22)
(0.999987 -0.000430075 1.77329e-20)
(0.782581 -0.138839 -3.63903e-20)
(0.781146 -0.121809 8.41948e-21)
(-0.0706771 -0.0606424 9.89202e-20)
(-0.0669579 -0.0524543 7.9524e-22)
(1.13027 -0.065839 -1.77301e-20)
(1.13407 -0.0613552 -9.76126e-20)
(0.978619 -0.0699199 -2.07154e-21)
(0.981777 -0.0714313 -1.91883e-23)
(0.982107 -0.0678481 -3.86735e-21)
(1.06417 -0.00781644 1.05376e-21)
(1.25973 -0.150308 -6.02823e-20)
(1.2537 -0.159186 4.19538e-20)
(1.25007 -0.147925 1.04772e-19)
(0.999967 -0.000623952 -2.93191e-21)
(0.999947 -0.000807215 -4.50452e-21)
(1.10905 0.0312384 -3.52385e-20)
(1.10681 0.0264277 -1.93162e-20)
(1.10345 0.0302532 3.83581e-20)
(-0.154198 0.0709606 -2.01335e-20)
(-0.154721 0.076012 0)
(0.824289 -0.301724 -5.29934e-20)
(0.800902 -0.322305 -5.38762e-20)
(-0.0594037 0.139632 3.85962e-20)
(-0.0532752 0.141112 -2.33689e-22)
(-0.058744 0.132913 3.0398e-20)
(1.35146 -0.1847 -1.62882e-20)
(1.34539 -0.172482 -5.23951e-20)
(1.36499 -0.1752 9.44278e-21)
(1.36717 -0.200279 -9.13116e-20)
(1.33553 -0.192855 3.53207e-20)
(1.08574 -0.120936 -1.08628e-20)
(1.09191 -0.126735 -1.03895e-20)
(1.0924 -0.118387 -1.1993e-20)
(-0.10378 -0.00230717 4.48186e-22)
(-0.0747137 0.0115237 9.62029e-20)
(0.995731 -0.0122937 1.14092e-21)
(0.995907 -0.0128858 -4.67523e-21)
(0.996267 -0.0123069 1.08824e-21)
(0.186448 0.0538173 0)
(0.259444 0.0586421 0)
(1.13409 -0.0902836 -2.18579e-20)
(1.12906 -0.0936661 -4.26915e-20)
(1.12863 -0.0870753 -1.83593e-20)
(1.04093 -0.0655227 1.10487e-21)
(1.04371 -0.0666723 1.22774e-22)
(1.04115 -0.0686823 -1.60033e-20)
(0.999988 -0.000383799 0)
(0.999962 -0.000593533 0)
(-0.127451 0.110296 8.74342e-20)
(-0.131218 0.114371 -8.89918e-21)
(-0.122638 0.117673 6.91879e-20)
(1.10042 -0.0511776 2.42696e-20)
(1.09942 -0.0465348 0)
(-0.0913834 0.232149 4.25264e-20)
(-0.0962514 0.218758 5.32882e-21)
(-0.0825456 0.202669 4.55476e-20)
(0.992959 7.93768e-05 -1.44286e-20)
(0.992975 -0.000456282 5.86684e-21)
(0.0847068 0.0978373 4.05989e-20)
(0.024417 0.0941252 5.7468e-20)
(0.0542742 0.0854928 -2.08304e-20)
(0.602261 0.0389678 -1.42418e-19)
(0.467613 0.0441535 -4.8228e-20)
(0.451296 0.0497908 2.70194e-20)
(0.660632 0.169158 1.11254e-21)
(0.524868 0.181361 4.40566e-21)
(1.00471 -0.00712084 -1.40157e-22)
(1.00467 -0.00742435 1.15275e-21)
(1.00441 -0.00709367 1.17289e-21)
(0.994412 -0.00290922 5.96872e-21)
(0.994857 -0.00279694 0)
(0.999987 -0.000187988 0)
(1.00008 -0.000957647 4.72973e-21)
(1.0001 -0.000934743 4.38501e-21)
(1.00012 -0.00111295 -1.83291e-21)
(-0.0489889 0.148525 -2.58993e-20)
(-0.0510657 0.155509 -4.12411e-20)
(0.114984 -0.11997 1.35753e-19)
(0.0799123 -0.127215 5.09006e-21)
(0.0842604 -0.0878655 1.10275e-21)
(-0.285303 0.0111571 8.08803e-20)
(-0.289078 0.0115433 1.96066e-19)
(-0.313653 0.0134465 -4.1582e-20)
(0.98021 -0.0108859 4.28927e-21)
(0.979331 -0.0115904 -2.97811e-21)
(0.999135 -0.0024316 4.87788e-21)
(0.999117 -0.00263204 -2.56952e-21)
(0.998979 -0.00250421 -6.19081e-21)
(1.05733 0.000960037 0)
(1.05624 0.00170527 9.16809e-21)
(1.05779 0.00256026 3.90943e-21)
(0.99682 -0.000614576 3.35391e-22)
(0.997071 -0.000690526 3.38395e-22)
(0.996868 -0.000909929 6.64209e-22)
(-0.0585815 0.0954401 1.32589e-20)
(-0.0666829 0.0969408 -1.27272e-20)
(-0.0651183 0.0884453 8.53856e-20)
(0.996136 0.000708 -1.86981e-21)
(0.996033 0.000425571 -8.8546e-21)
(0.995847 0.000659034 -2.27965e-20)
(-0.0150658 0.104154 2.38621e-20)
(-0.01228 0.115242 1.81647e-20)
(-0.0597624 0.109836 -4.08349e-20)
(1.11133 0.0356035 -1.08181e-20)
(1.11487 0.0311093 -2.43257e-20)
(0.461196 0.0721966 5.41852e-20)
(0.364016 0.0601603 0)
(0.389128 0.0669788 -1.65646e-20)
(1.11427 -0.0292982 -1.33431e-21)
(1.11512 -0.0251846 6.76008e-21)
(1.11137 -0.026301 -2.58907e-20)
(1.0609 -0.0108869 1.248e-20)
(1.06299 -0.0107861 2.04802e-21)
(0.996162 0.00101752 -2.47191e-21)
(0.996407 0.000743328 9.73859e-21)
(1.14374 -0.0828518 -5.58287e-21)
(1.15005 -0.0803048 -1.89565e-20)
(1.14956 -0.0879832 3.19256e-20)
(-0.293263 0.018976 3.07437e-20)
(-0.263943 0.0195112 -7.65645e-20)
(1.09781 0.0991274 -1.50826e-20)
(1.10207 0.0920025 -3.19345e-20)
(1.10709 0.0999636 0)
(1.09258 0.10713 2.87146e-20)
(1.08659 0.0979955 3.7018e-20)
(1.05869 -0.0248056 -2.58368e-21)
(1.05849 -0.0229888 -1.12247e-20)
(1.05705 -0.0241564 -1.09873e-20)
(1.00674 -0.0150815 1.83888e-21)
(1.00726 -0.0150422 1.6621e-24)
(1.00679 -0.0145589 5.94931e-22)
(0.964845 -0.0158265 -2.16785e-20)
(0.963711 -0.0175579 -6.15814e-21)
(1.04925 -0.0426239 -3.15651e-22)
(1.0472 -0.0430073 -8.46712e-21)
(1.0478 -0.040916 2.25502e-21)
(1.07843 -0.0350706 0)
(1.07565 -0.0340305 9.41101e-21)
(1.07596 -0.0369539 -1.37351e-20)
(1.19755 -0.226112 -1.40204e-20)
(1.18768 -0.233385 -9.17646e-20)
(1.20164 -0.240331 1.45283e-20)
(1.24958 0.0223167 4.45397e-20)
(1.25129 0.0282121 6.35695e-21)
(1.23845 0.0250572 0)
(1.05853 0.000542163 -8.38623e-21)
(1.05706 -0.000308335 3.81248e-21)
(1.00001 -0.000663133 5.12326e-21)
(0.999998 -0.000444246 -6.8852e-21)
(1.14905 -0.0581684 -8.44872e-20)
(1.15253 -0.0553796 -1.5541e-20)
(1.15366 -0.0612666 -2.1108e-20)
(-0.0640988 -0.0481613 -6.30954e-20)
(-0.0689752 -0.0551411 3.82994e-20)
(-0.0610088 -0.0453035 -3.083e-20)
(1.08039 -0.0367103 1.26619e-21)
(0.983887 -0.0190379 6.40287e-21)
(0.984205 -0.0203675 0)
(0.985113 -0.0192372 0)
(1.1057 0.0150702 -2.86061e-20)
(1.10343 0.0183726 3.81671e-20)
(1.10187 0.0148828 -2.23524e-20)
(-0.234969 0.0424854 -6.45012e-20)
(-0.227968 0.0435697 1.81058e-20)
(-0.216089 0.0499048 -8.16733e-21)
(1.15021 -0.444879 2.27307e-20)
(1.13366 -0.448611 -3.2861e-20)
(1.14072 -0.466894 2.18585e-20)
(0.996184 0.00129852 -5.51906e-21)
(0.996453 0.00134608 1.69434e-21)
(0.197337 0.0561049 5.83727e-20)
(0.154258 0.04586 -7.59499e-20)
(1.0063 -0.0151625 -1.63672e-21)
(1.00678 -0.0156237 4.35628e-22)
(0.995895 0.00124163 -1.69837e-20)
(0.99909 -0.0039359 -3.36756e-23)
(0.999217 -0.00380078 1.57692e-23)
(0.999112 -0.00364515 -3.34608e-21)
(0.0600479 -0.0429496 -2.30929e-20)
(0.283498 -0.0942319 1.00913e-19)
(0.136595 -0.0573088 8.96769e-20)
(1.03793 -0.0643188 2.37637e-22)
(1.04027 -0.0625448 7.79378e-21)
(0.999902 -0.00339457 -4.11785e-21)
(0.999887 -0.00360276 -2.93949e-21)
(0.985406 -0.00255019 5.62719e-22)
(0.985667 -0.00325582 4.80351e-21)
(0.984859 -0.00319759 -6.46222e-21)
(1.36597 -0.22226 6.60013e-21)
(1.33974 -0.220942 2.77189e-20)
(1.35432 -0.23587 9.00458e-20)
(1.1452 -0.0628337 -2.53453e-20)
(1.14802 -0.0707721 0)
(0.994192 -0.00710854 -2.02314e-22)
(0.993659 -0.00735673 -4.69337e-21)
(1.27648 -0.0340081 4.21983e-21)
(1.28783 -0.0421354 3.70211e-20)
(0.983916 -0.0113254 1.13178e-20)
(0.984789 -0.011008 -1.32159e-21)
(0.984692 -0.0120107 -8.05896e-21)
(1.10527 0.0219235 2.5986e-20)
(1.11004 0.0223837 -2.8367e-20)
(1.06044 -0.0254038 5.35021e-22)
(1.05892 -0.0266 1.7888e-20)
(1.02341 -0.0106023 -1.65213e-21)
(1.02274 -0.0102639 7.74508e-22)
(0.586394 -0.4117 0)
(0.597577 -0.442211 0)
(0.558278 -0.433668 0)
(1.03941 -0.0171489 2.77299e-21)
(1.03953 -0.0182155 3.31683e-21)
(1.03826 -0.0177607 2.18092e-21)
(1.08055 -0.00104431 8.20055e-20)
(1.10045 -0.0123611 1.02293e-20)
(-0.0844993 0.197927 2.20603e-20)
(-0.0527399 0.179526 -3.50139e-20)
(-0.0527554 0.163363 3.18359e-20)
(1.04199 -0.0209225 -1.15649e-20)
(1.04174 -0.0222237 -7.52975e-21)
(1.04047 -0.0214015 -8.12561e-21)
(1.00474 -0.00680673 2.60148e-22)
(1.00473 -0.00650169 2.90241e-22)
(1.00445 -0.00650198 3.4791e-21)
(1.00001 -0.00170736 -2.89154e-23)
(1.00001 -0.00153758 4.40984e-21)
(1.00001 -0.0015296 -3.76838e-21)
(0.983503 -0.0182163 2.60118e-21)
(0.982688 -0.0191458 5.02481e-21)
(-0.227012 0.00178742 -5.24228e-20)
(-0.202975 -0.00250035 2.1474e-19)
(-0.236149 0.0042028 1.28066e-19)
(0.545527 -0.276586 1.3561e-19)
(0.333856 -0.187434 -6.55972e-20)
(0.211059 -0.137268 1.15035e-19)
(-0.214072 0.172888 1.7146e-20)
(-0.212743 0.16829 3.23748e-20)
(-0.210068 0.160504 0)
(1.00219 -0.00999345 -4.7784e-23)
(1.00251 -0.0096879 -3.43787e-23)
(1.21764 -0.0284492 0)
(1.21989 -0.0208882 -2.81273e-20)
(1.01963 -0.374116 4.40662e-22)
(1.03666 -0.360478 -5.4424e-21)
(1.01653 -0.353395 1.39889e-20)
(0.573287 -0.523081 -2.68482e-20)
(0.534203 -0.559287 -9.64312e-21)
(0.53326 -0.494902 4.9639e-20)
(0.994153 -0.00406678 -2.49508e-21)
(0.994419 -0.00436892 0)
(0.993906 -0.00452721 -7.63767e-21)
(1.05597 -0.0418847 7.91417e-21)
(1.05514 -0.0441431 -1.06697e-21)
(1.05359 -0.0417666 -7.60085e-21)
(0.159482 0.0974751 5.69567e-21)
(0.127211 0.109793 1.33415e-19)
(-0.256334 0.0346652 8.60163e-20)
(1.10767 0.0388791 3.39738e-20)
(1.11394 0.0404943 5.81922e-20)
(0.996239 -0.000162236 7.83887e-23)
(0.996164 0.000186676 8.5997e-22)
(0.997425 -0.000361908 3.16081e-23)
(0.9976 -0.000218001 -4.5477e-21)
(0.997633 -0.000467422 0)
(1.00502 -0.00710268 -1.15624e-21)
(0.591578 0.0766848 2.37531e-21)
(0.557596 0.080539 6.61934e-20)
(-0.163779 0.0510946 -5.94242e-21)
(-0.188982 0.0507611 4.61219e-20)
(0.83919 -0.388027 1.19705e-20)
(0.982195 -0.47446 0)
(-0.0713741 0.245925 -2.85913e-20)
(-0.097272 0.255405 6.57922e-20)
(1.01838 -0.0355526 5.62576e-23)
(1.01727 -0.0345072 -6.00016e-22)
(1.01868 -0.0340124 4.50772e-23)
(-0.11928 0.261736 -4.6288e-20)
(-0.0547765 0.286691 -3.72573e-20)
(-0.148614 0.292482 2.54574e-20)
(0.40045 -0.140152 -2.96031e-20)
(0.378191 -0.155605 -4.30632e-20)
(0.409343 -0.166246 -6.25812e-20)
(0.912895 -0.0215487 0)
(0.911085 -0.0178979 1.27231e-20)
(0.915567 -0.0179785 1.14164e-20)
(1.03454 -0.00527555 -5.61304e-22)
(1.03406 -0.0059074 4.15088e-21)
(1.03357 -0.00522532 3.12766e-21)
(0.96092 -0.0516029 -1.081e-20)
(0.962992 -0.0496249 -7.06054e-21)
(0.96007 -0.048474 1.75175e-21)
(0.195796 0.106659 9.34568e-21)
(0.162042 0.0999765 -4.63993e-20)
(0.188062 0.0680352 -1.46274e-19)
(1.01513 -0.00510676 0)
(1.01553 -0.00522351 5.42798e-22)
(1.01529 -0.00541362 6.09924e-22)
(0.993972 -0.00958498 0)
(0.994417 -0.00965037 8.54004e-21)
(0.999735 -0.00147407 0)
(0.999769 -0.00151859 -6.58787e-22)
(0.999804 -0.00137812 1.01573e-20)
(0.976709 -0.0105752 1.05513e-20)
(0.975426 -0.0108351 -1.54222e-21)
(0.976454 -0.0118134 -8.83531e-21)
(1.02553 -0.00916188 0)
(1.02593 -0.00886389 2.10095e-21)
(1.02532 -0.00854422 -4.31582e-22)
(1.08241 -0.0250215 -4.19602e-22)
(1.08406 -0.0271092 1.18244e-20)
(1.08537 -0.0246413 1.55349e-20)
(1.06549 -0.0200817 1.304e-20)
(1.06726 -0.0206653 -1.84429e-20)
(1.0665 -0.0189574 1.05988e-20)
(-0.0831598 0.0151019 -3.27064e-21)
(-0.0764363 0.0183038 -1.12778e-19)
(-0.0742683 0.00662432 6.84856e-20)
(0.982214 -0.00156757 -1.01442e-20)
(0.981427 -0.00212931 -2.40244e-20)
(0.982408 -0.00240995 -8.66718e-21)
(1.07145 -0.0683735 -2.209e-21)
(1.06919 -0.0659004 -2.2371e-20)
(1.06807 -0.0693943 -3.18335e-20)
(1.04213 -0.0197433 3.59028e-21)
(1.04325 -0.0204758 3.70664e-21)
(0.96867 -0.0289763 4.85987e-21)
(0.968969 -0.0267889 2.13399e-21)
(0.970633 -0.0284538 1.42804e-20)
(0.816783 -0.546883 0)
(0.777313 -0.551853 0)
(0.808389 -0.59321 0)
(1.14352 -0.0573135 9.74072e-21)
(-0.0561623 -0.0393108 7.15714e-21)
(-0.0689341 -0.0471706 -2.82693e-20)
(1.01374 -0.00498651 -3.04693e-22)
(1.01356 -0.0047402 2.91884e-22)
(1.01334 -0.0049178 -1.02852e-22)
(-0.00395463 1.47694e-05 5.3557e-20)
(0.0043754 -0.00298003 -7.12395e-20)
(0.975696 -0.0679984 4.34016e-21)
(0.975035 -0.0716779 1.88871e-21)
(1.07251 0.00920688 6.75076e-21)
(1.07174 0.00926042 9.63571e-21)
(1.07218 0.00873055 6.03206e-21)
(1.01933 -0.0239876 1.16731e-21)
(1.02047 -0.0240255 5.58621e-22)
(1.20829 -0.21901 6.0588e-20)
(1.19639 -0.214 3.16536e-20)
(0.999243 -0.00237632 4.67007e-21)
(0.999171 -0.00229034 7.7537e-21)
(0.740351 -0.0601931 0)
(0.750364 -0.0492417 0)
(0.73149 -0.0452765 4.22984e-20)
(1.13833 -0.0865588 -2.72141e-20)
(1.13906 -0.0937631 2.57247e-21)
(1.0251 -0.00946516 1.56786e-21)
(1.02586 -0.00970105 0)
(0.332326 0.449719 0)
(0.381002 0.430635 -2.27785e-20)
(0.375951 0.484314 -3.96952e-20)
(-0.218786 0.21912 6.43598e-20)
(-0.21768 0.226676 -6.91727e-20)
(-0.216435 0.228641 -8.83901e-20)
(1.08179 -0.124471 -2.39733e-20)
(1.08138 -0.117773 0)
(0.995481 -0.0146856 4.36206e-21)
(0.995264 -0.0140081 -1.80742e-22)
(0.994779 -0.0147051 1.87411e-21)
(1.12549 -0.019035 1.4054e-20)
(1.12435 -0.0225935 1.73607e-20)
(1.12921 -0.0222004 -5.54672e-21)
(-0.169534 0.255072 7.63465e-22)
(-0.184239 0.255852 -3.50923e-20)
(-0.18918 0.266421 -1.06097e-19)
(0.755625 -0.0864288 3.59141e-20)
(0.747004 -0.0730929 -4.69673e-20)
(0.764658 -0.0769097 -4.79699e-20)
(0.743459 -0.0954923 6.05207e-20)
(0.760401 -0.0979274 4.93678e-20)
(-0.0877039 0.0544118 2.06679e-20)
(-0.0962598 0.057488 2.11603e-22)
(-0.0904081 0.0644099 -4.88324e-20)
(1.11202 0.0721996 -4.03716e-20)
(1.10518 0.0731505 4.53017e-20)
(1.11024 0.0792315 2.02301e-20)
(1.07293 0.00930162 -7.0574e-21)
(1.07265 0.00878294 -8.92496e-24)
(1.09017 -0.00270966 0)
(1.09238 -0.00474112 0)
(0.418702 -0.121398 -8.39876e-20)
(0.387576 -0.113363 3.84796e-20)
(1.02823 -0.0042281 -1.1248e-21)
(1.02858 -0.00374748 -2.80715e-21)
(1.02785 -0.00368182 2.09391e-21)
(-0.0973815 0.202204 -4.03532e-20)
(-0.258038 0.00917045 -1.64586e-19)
(-0.283239 0.0109434 -8.03255e-20)
(1.01477 -0.00501212 5.73013e-23)
(1.01502 -0.00484473 -3.18943e-22)
(0.999814 -0.00114916 0)
(0.9998 -0.00109894 0)
(0.99986 -0.00100445 5.06671e-21)
(1.04635 0.0463043 3.9789e-21)
(1.16878 0.0344877 -5.98969e-20)
(0.987673 -0.0137662 0)
(0.988533 -0.0142531 0)
(0.987563 -0.0149342 -9.35683e-21)
(1.00007 -0.000862505 2.32495e-21)
(1.00008 -0.00102513 2.19058e-21)
(1.14694 0.0375813 0)
(1.153 0.0366948 4.57533e-21)
(1.14751 0.0322792 2.00757e-21)
(1.15912 0.0353328 -2.97901e-20)
(1.16044 0.0293479 -3.591e-20)
(1.16655 0.0337585 1.03995e-20)
(1.01802 -0.0369392 8.08791e-22)
(1.05675 -0.0400708 1.97707e-20)
(1.05796 -0.0423423 6.77686e-21)
(1.07387 -0.0707607 1.93742e-20)
(1.07465 -0.06693 7.52393e-21)
(0.95493 -0.172962 -6.19629e-21)
(0.94631 -0.165652 1.82053e-21)
(0.945027 -0.177076 -2.26923e-21)
(1.05977 -0.0360668 -1.07052e-20)
(1.05799 -0.0350761 -3.37669e-21)
(1.05968 -0.0340283 2.13451e-20)
(0.993873 -0.00377666 -2.23239e-21)
(1.06731 -0.168266 1.14413e-20)
(1.0707 -0.162912 1.01037e-20)
(1.06297 -0.162254 1.91822e-21)
(-0.0406154 0.00457576 3.24805e-21)
(-0.0311515 -0.00191472 -6.5216e-20)
(-0.0399546 -0.00650575 -6.27007e-20)
(1.0245 -0.00971512 -1.16145e-22)
(1.02432 -0.00906848 7.23771e-22)
(-0.218925 0.197203 0)
(-0.217078 0.184539 1.96424e-20)
(-0.215605 0.192234 6.91931e-20)
(0.999974 -0.000913063 2.36909e-21)
(1.00001 -0.000701988 1.10802e-21)
(1.00004 -0.00243095 4.48204e-22)
(1.00002 -0.00227399 -1.28886e-22)
(0.999987 -0.00245068 5.15647e-22)
(1.01181 -0.000812104 1.90182e-22)
(1.01168 -0.00100796 -6.27654e-22)
(1.01202 -0.00101426 1.82226e-22)
(-0.0493278 0.0934449 4.68712e-21)
(0.993773 0.00143542 -5.40115e-21)
(0.993387 0.00121682 -5.52535e-21)
(0.993755 0.00101567 -5.89365e-21)
(1.37423 -0.212562 -1.78862e-19)
(1.37749 -0.226699 -1.03478e-19)
(-0.00283314 0.0289051 -7.43617e-21)
(0.0287924 0.0318116 1.17276e-19)
(0.00180727 0.0353447 5.70392e-20)
(1.00064 -0.00269843 -1.48772e-21)
(1.0006 -0.00275519 -6.46225e-21)
(1.0007 -0.00285979 -2.52465e-21)
(0.999361 -0.00230666 8.86439e-22)
(0.999326 -0.00246471 -5.33607e-21)
(1.3517 -0.114233 1.40959e-20)
(1.36392 -0.107746 -4.16341e-20)
(1.36719 -0.118213 -3.87513e-20)
(1.01131 -0.000487752 0)
(1.01175 -0.000491655 -6.92427e-24)
(0.999943 -0.00101612 0)
(0.999951 -0.00104393 0)
(0.99992 -0.00120517 4.9906e-21)
(1.01271 -0.000593219 1.37069e-22)
(1.01246 -0.000613966 -2.83989e-22)
(1.01147 -0.000363382 -5.81558e-23)
(-0.0131866 0.0211027 4.22481e-20)
(-0.0271977 0.0237328 -6.76385e-20)
(0.602229 -0.384986 0)
(0.566635 -0.375161 4.41859e-22)
(0.931845 -0.0523962 8.27347e-21)
(0.935441 -0.0498443 6.65181e-21)
(0.935951 -0.0545286 -1.5636e-20)
(0.889593 -0.532949 -9.04015e-21)
(0.899325 -0.49864 -8.27486e-21)
(0.925938 -0.522134 1.18689e-20)
(1.15345 0.0111995 7.41279e-21)
(1.15451 0.00579695 -1.91166e-21)
(1.14905 0.00775727 7.86332e-21)
(-0.10918 0.228475 3.281e-20)
(-0.0508341 0.204759 -1.93391e-20)
(-0.0392863 0.19945 -1.60632e-20)
(-0.0518038 0.190641 -4.83917e-20)
(1.04169 -0.02361 1.10957e-20)
(1.04325 -0.0229831 9.49055e-21)
(-0.107842 -0.163305 1.38114e-20)
(-0.0482996 -0.1937 -1.47261e-19)
(-0.165371 -0.178381 -6.5529e-20)
(1.00002 -0.000667165 3.72772e-22)
(1 -0.000899545 -8.22036e-23)
(1 -0.000635342 1.63389e-21)
(-0.134867 0.244103 6.0864e-20)
(-0.151105 0.251385 1.92688e-19)
(0.457644 -1.03961 -3.70965e-22)
(0.20813 -0.999555 2.26664e-20)
(0.448461 -1.14144 -9.4195e-20)
(-0.174687 0.104212 -7.85021e-20)
(-0.178681 0.103674 -1.34208e-19)
(-0.181066 0.112319 -1.35095e-20)
(-0.026608 0.0944395 9.03889e-20)
(1.11392 0.0659838 -4.99145e-20)
(1.11873 0.0718915 -1.71731e-20)
(1.05814 -0.0213128 0)
(1.05977 -0.0218116 3.82907e-22)
(1.12525 -0.0644223 7.11688e-21)
(1.12652 -0.0698436 3.88407e-20)
(1.06417 -0.0215427 1.28341e-20)
(1.06373 -0.0193635 1.36811e-20)
(1.03506 -0.00463477 -7.76424e-21)
(1.03541 -0.003877 -8.00567e-22)
(1.03438 -0.00391042 -9.24766e-21)
(1.04466 -0.0161602 5.25152e-22)
(1.04592 -0.0162819 1.34924e-21)
(1.04522 -0.0148869 5.14867e-21)
(0.857274 -0.539139 0)
(0.827601 -0.512149 0)
(0.918092 -0.0638521 1.13229e-20)
(0.914833 -0.0588808 1.55351e-20)
(0.999387 -0.00218189 -7.88781e-22)
(0.999432 -0.00224022 5.12842e-21)
(1.00001 -0.000174209 -4.76745e-21)
(1 -8.45498e-05 -2.48174e-21)
(1 -9.16122e-05 8.11075e-22)
(1.0141 -0.00509328 -4.08619e-23)
(1.01385 -0.00527463 -6.22348e-23)
(1.01652 -0.00012227 1.5349e-21)
(1.01633 -0.000199494 4.75265e-22)
(1.0168 -0.000213804 8.80673e-22)
(1.02468 -0.0102514 -1.7439e-21)
(-0.0593071 0.178938 4.00511e-21)
(-0.0550223 0.181569 -5.07034e-20)
(-0.0548367 0.174792 -8.76876e-20)
(1.00463 -0.00845886 1.24323e-21)
(1.00494 -0.00845046 4.27993e-21)
(1.00463 -0.00810395 1.41792e-21)
(1.01835 -0.0221216 -2.56889e-21)
(1.0175 -0.0217121 1.1022e-22)
(1.01757 -0.0227241 1.29186e-22)
(1.01625 -0.000188237 3.13645e-22)
(1.01617 -0.000213526 -7.94478e-22)
(1.01673 -0.000167783 -1.10206e-21)
(1.00221 -0.00876535 1.29628e-22)
(1.00253 -0.00898495 1.79069e-22)
(-0.0268365 -0.0535379 -2.00343e-20)
(-0.0256626 -0.0436261 -1.08571e-19)
(-0.01543 -0.0552377 -4.61413e-20)
(1.16017 -0.42479 2.56045e-20)
(1.17102 -0.447383 -2.27674e-20)
(0.688211 0.0781437 2.13482e-20)
(0.692059 0.0630566 3.51267e-20)
(0.672752 0.0660759 1.93826e-20)
(0.94841 -0.0129183 -5.87148e-21)
(0.946924 -0.0147658 6.70307e-21)
(0.945885 -0.0117236 -1.89374e-20)
(1.10987 0.0153489 -3.01885e-20)
(1.10755 0.0121013 -5.48537e-21)
(1.0143 -5.64859e-05 -1.0404e-22)
(0.790908 0.137533 -1.02765e-21)
(0.896735 0.1097 -1.90248e-21)
(0.815049 0.11367 3.64401e-21)
(-0.0431844 -0.0130703 -1.39321e-20)
(0.0218319 -0.0268218 -2.0435e-19)
(0.992979 0.000551173 -1.33192e-20)
(0.993364 0.00035789 -7.43617e-21)
(0.0728011 0.038613 -1.15558e-20)
(0.0646758 0.0344517 -3.52194e-21)
(1.08953 -0.0102655 0)
(1.08923 -0.0130304 0)
(1.0869 -0.0108625 0)
(0.991979 -0.00101028 -1.08379e-21)
(0.991609 -0.000780443 -5.86923e-21)
(-0.108175 -0.00404524 0)
(0.769302 0.159188 -1.32088e-20)
(0.996714 -0.00375983 -8.06954e-21)
(0.996871 -0.0033695 4.58626e-21)
(1.06215 -0.17499 0)
(1.07212 -0.175724 -1.39714e-20)
(0.295981 0.453569 0)
(0.348309 1.09666 -4.99977e-21)
(0.973725 -0.0261235 -3.66717e-21)
(0.975384 -0.0267854 -2.55012e-21)
(0.975123 -0.0249714 -1.07718e-20)
(0.830363 0.0250572 -2.28629e-20)
(0.837658 0.0208155 8.58618e-20)
(0.830512 0.0163511 -1.09548e-20)
(1.01906 -0.0213557 -1.49307e-21)
(0.969171 -0.0248511 -1.94243e-20)
(0.970717 -0.0241267 -2.49226e-21)
(0.969135 -0.022911 -1.17117e-20)
(-0.058105 0.218426 -7.24773e-20)
(-0.0901788 0.228419 -5.97866e-20)
(-0.0341471 0.210339 -1.46867e-20)
(0.899316 -0.180374 1.17862e-20)
(0.905002 -0.170502 1.62189e-20)
(0.891478 -0.171191 2.51385e-21)
(0.997467 -0.00834803 5.03809e-21)
(0.997114 -0.00829832 -1.76526e-21)
(0.995725 -0.000344726 1.37878e-21)
(0.996012 -0.000421325 5.13319e-21)
(0.995776 -0.000680611 -6.01393e-22)
(0.950086 -0.0108695 6.35159e-21)
(0.950894 -0.0138774 -1.59678e-20)
(1.09839 -0.372518 -1.06167e-21)
(1.07838 -0.37101 -2.77623e-21)
(1.08952 -0.354322 2.1711e-20)
(0.0780529 -0.18499 1.13658e-20)
(0.111292 -0.201856 4.06321e-20)
(0.0824198 -0.231305 -1.16291e-19)
(0.991851 -0.00591905 6.85198e-21)
(0.992454 -0.00571775 2.48843e-21)
(1.00495 -0.00772073 -2.21838e-21)
(1.00465 -0.00772572 -1.64102e-21)
(1.02829 -0.0154228 1.77359e-21)
(1.02846 -0.0146996 3.72812e-21)
(1.0291 -0.0155443 -3.63544e-21)
(-0.249711 0.007484 -1.46226e-19)
(-0.221644 0.000187568 -1.3469e-19)
(-0.0855816 -0.101253 9.32104e-20)
(-0.105055 -0.100103 -5.19152e-21)
(-0.0835545 -0.0110348 2.21534e-20)
(-0.0110714 -0.0149716 1.78758e-19)
(-0.0525113 -0.0142383 1.06216e-19)
(1.0278 -0.00466829 2.56065e-21)
(1.02738 -0.00504433 6.66093e-21)
(1.02709 -0.00452885 -3.28838e-22)
(0.908574 -0.189491 -1.23156e-20)
(0.892761 -0.19225 5.89334e-21)
(0.831596 0.0343134 -6.21793e-20)
(0.822952 0.0309136 -4.53746e-20)
(0.86236 -0.711532 -1.73683e-20)
(0.813863 -0.735192 5.35622e-21)
(0.872854 -0.76931 -1.57482e-20)
(1.14626 -0.00916145 -2.02656e-20)
(1.14741 -0.00572068 0)
(1.1512 -0.00951538 4.78698e-20)
(1.02878 -0.00135285 -1.0043e-22)
(1.02923 -0.00179907 3.16968e-21)
(1.02845 -0.0017896 -2.03451e-21)
(1.03047 -0.00333604 -1.46114e-21)
(1.03008 -0.00385947 -1.02731e-22)
(1.0309 -0.00392177 1.84178e-22)
(1.02811 -0.0162353 -1.30723e-21)
(1.02739 -0.0153351 -1.18341e-21)
(1.1204 -0.0631157 1.35597e-21)
(1.12387 -0.0594038 -5.41506e-20)
(0.98961 -0.0344603 7.03227e-21)
(0.990905 -0.0355973 5.89882e-21)
(0.989182 -0.0362671 4.24419e-21)
(0.0217098 0.0073335 8.26175e-20)
(-0.00181536 0.0142982 3.08079e-20)
(-0.0456366 0.0171896 -1.42065e-20)
(0.998398 -0.00199378 -2.27351e-22)
(0.998256 -0.00184148 1.72211e-21)
(0.998241 -0.00211376 -5.61893e-21)
(1.00869 -0.014185 3.08308e-22)
(1.00868 -0.0147576 -3.97721e-21)
(1.00926 -0.0146194 -8.25456e-22)
(-0.136826 0.298291 4.42334e-20)
(-0.154601 0.291509 -7.38841e-20)
(-0.164089 0.291303 2.2422e-20)
(-0.0647771 0.174439 3.9374e-20)
(-0.0687392 0.182723 -1.65115e-20)
(-0.0185837 0.00152209 -2.08379e-20)