/*--------------------------------*- C++ -*----------------------------------*\
| =========                 |                                                 |
| \\      /  F ield         | OpenFOAM: The Open Source CFD Toolbox           |
|  \\    /   O peration     | Version:  v2012                                 |
|   \\  /    A nd           | Website:  www.openfoam.com                      |
|    \\/     M anipulation  |                                                 |
\*---------------------------------------------------------------------------*/
FoamFile
{
    version     2.0;
    format      ascii;
    class       volScalarField::Internal;
    location    "1000";
    object      V0;
}
// * * * * * * * * * * * * * * * * * * * * * * * * * * * * * * * * * * * * * //

dimensions      [0 3 0 0 0 0 0];


value           nonuniform List<scalar> 
10042
(
0.0572187
0.111737
0.0375076
0.173523
0.00235601
0.12207
0.0078418
0.00552649
0.0597591
0.122368
0.00130313
0.176371
0.145775
0.153994
0.0226692
0.101129
0.109658
0.177444
0.0718932
0.00397158
0.142717
0.00848148
0.163276
0.135795
0.0989604
0.0199404
0.141125
0.0269096
0.0517027
0.0341807
0.0865043
0.00136566
0.140817
0.0339024
0.0207628
0.135172
0.0225933
0.0160354
0.145374
0.0126124
0.00292935
0.0227662
0.00755804
0.0438187
0.00238581
0.0151994
0.023689
0.0126291
0.0205322
0.0224634
0.17503
0.0396434
0.0199915
0.0381266
0.0199458
0.102193
0.0490711
0.0309623
0.0390543
0.0226278
0.10044
0.0887618
0.0179487
0.0467727
0.0279301
0.0374391
0.033048
0.0059503
0.00209784
0.0495084
0.0403627
0.00271285
0.0416306
0.0122422
0.0358881
0.122978
0.00179582
0.0672632
0.0122768
0.00691439
0.0180333
0.00300938
0.0401578
0.0251217
0.0389839
0.170224
0.0529279
0.00499383
0.0354898
0.0707828
0.0370837
0.00236416
0.023964
0.0432293
0.0340611
0.0418438
0.0864968
0.0425757
0.0187756
0.0465197
0.192294
0.00546855
0.00584409
0.158739
0.027716
0.00696843
0.051625
0.0833976
0.15637
0.090223
0.134464
0.0638563
0.0202755
0.00174132
0.0305307
0.066788
0.0592085
0.056738
0.0479023
0.001917
0.0413714
0.00583404
0.0359438
0.0671702
0.00698871
0.0346172
0.00599973
0.0141828
0.00859195
0.0649304
0.0112356
0.0431316
0.00170528
0.0071924
0.0539549
0.00855991
0.00171683
0.0320924
0.0117666
0.00448313
0.0261935
0.0452593
0.0290193
0.00537335
0.0514273
0.061067
0.00801675
0.0786813
0.0410102
0.0196881
0.0516442
0.172481
0.00596811
0.00187091
0.131593
0.146862
0.0271457
0.0693515
0.00807085
0.00150486
0.00137827
0.00804434
0.0657918
0.0494185
0.0332529
0.0462018
0.00610398
0.00189398
0.00140424
0.00211323
0.0407217
0.0978683
0.00233701
0.00456219
0.00899145
0.00950176
0.00134149
0.0365338
0.00527654
0.0148915
0.0265147
0.00121162
0.0404955
0.0177303
0.0227129
0.00221668
0.00533523
0.0301411
0.00133601
0.0247747
0.00210203
0.0270155
0.00703268
0.00288882
0.00789639
0.0026789
0.0233097
0.0634006
0.147918
0.0242462
0.00961684
0.0245255
0.0663121
0.00340612
0.0373861
0.0848498
0.0015667
0.124818
0.169352
0.144161
0.00349984
0.184545
0.00741732
0.00318416
0.0284286
0.00436516
0.0412921
0.104543
0.00902007
0.0859535
0.0185848
0.026744
0.00368466
0.0146671
0.0134218
0.0174168
0.00507305
0.0663422
0.00620769
0.0347949
0.0555909
0.00327258
0.0901903
0.0367622
0.0305814
0.0173897
0.0672826
0.174319
0.0275466
0.0240528
0.0703152
0.0342
0.0355688
0.0182362
0.0629664
0.0901781
0.16521
0.0264157
0.0405695
0.206709
0.135247
0.0525772
0.018317
0.00294578
0.00656488
0.00127271
0.00868395
0.0099138
0.0191686
0.014683
0.00782288
0.0337017
0.0621455
0.163014
0.0275176
0.0626981
0.00950123
0.0240495
0.060412
0.140959
0.0085755
0.0373786
0.00355199
0.00992765
0.0048938
0.0183022
0.0270404
0.0715776
0.0131393
0.040919
0.0144158
0.0394153
0.0186397
0.00201542
0.0707924
0.051838
0.00946395
0.01344
0.0404686
0.100089
0.0218664
0.0100052
0.0119687
0.004377
0.169817
0.14235
0.0567795
0.05259
0.00672003
0.0527874
0.086498
0.0824293
0.0444188
0.0179199
0.0165327
0.00584397
0.00259385
0.0213241
0.00354647
0.0647486
0.0160862
0.131562
0.00126198
0.00588401
0.00326356
0.00122923
0.107666
0.0228735
0.042532
0.0206161
0.0165301
0.168037
0.0116463
0.116118
0.16889
0.0355718
0.00548845
0.164824
0.0289361
0.0379513
0.0190206
0.00160453
0.0614448
0.122272
0.174857
0.0470925
0.010142
0.00703249
0.00849556
0.00431232
0.0147882
0.0204259
0.0359109
0.143128
0.0299615
0.175882
0.0045414
0.0371442
0.0333687
0.0167244
0.0625738
0.0175718
0.0241244
0.0148793
0.0340464
0.0173022
0.00958268
0.0140927
0.0278817
0.0636732
0.00329292
0.00645967
0.0289657
0.0118058
0.0818107
0.0918445
0.0907536
0.0175717
0.00358285
0.0248827
0.163032
0.0219472
0.175433
0.150954
0.0041485
0.0636523
0.0666678
0.00178753
0.0904462
0.00635297
0.00444032
0.0098753
0.011253
0.00146366
0.0147368
0.00287952
0.127619
0.0181852
0.191067
0.0297573
0.0141424
0.133161
0.0188608
0.00206445
0.146012
0.122744
0.0060423
0.00157224
0.0324192
0.0819218
0.00114965
0.00568501
0.0882535
0.00544221
0.00135747
0.0681956
0.164138
0.0782115
0.059864
0.160965
0.0634292
0.0039255
0.00410439
0.0285147
0.00319575
0.147295
0.0600608
0.00348587
0.0408346
0.0057454
0.0102669
0.0232629
0.0791172
0.0813586
0.00382165
0.0349147
0.0153034
0.0278113
0.00129414
0.028618
0.00266832
0.0237984
0.106371
0.0578052
0.00328332
0.0988402
0.0180861
0.0450451
0.0427504
0.00135182
0.0219059
0.0462775
0.189956
0.00148988
0.0656654
0.0168039
0.0233241
0.063509
0.00302596
0.0102131
0.0873112
0.0323118
0.0239228
0.1294
0.0933977
0.0692966
0.00125899
0.0786035
0.143948
0.0120259
0.0064459
0.0084174
0.172135
0.0145365
0.00157876
0.0160598
0.0580817
0.0637604
0.00576165
0.0305337
0.10754
0.0131558
0.0573564
0.0723303
0.0222867
0.0819516
0.00715023
0.0478774
0.0940311
0.00125323
0.108448
0.0384219
0.115863
0.0304872
0.0135534
0.0927942
0.0520138
0.00321573
0.0323598
0.00524861
0.0278129
0.214296
0.174344
0.00546186
0.0455678
0.0559531
0.170253
0.0358164
0.0131838
0.00647441
0.0624809
0.00903246
0.00178281
0.0173977
0.171415
0.063333
0.0424308
0.147709
0.0624294
0.00197663
0.00126797
0.138637
0.0138732
0.0187103
0.0197413
0.0327851
0.148166
0.00760953
0.00493522
0.00236751
0.084206
0.0405568
0.0464533
0.0883807
0.00176126
0.0121514
0.0253098
0.0483033
0.140198
0.045249
0.00728605
0.0205335
0.120352
0.00117515
0.00164865
0.00218209
0.00737149
0.0938678
0.0423439
0.0200244
0.0102446
0.00229809
0.00203935
0.0176997
0.0164945
0.15235
0.0261678
0.030278
0.144753
0.00141773
0.121057
0.0649171
0.0146463
0.153211
0.00937683
0.0283648
0.0082277
0.0135537
0.135179
0.0265697
0.0191014
0.0150775
0.00768327
0.00444441
0.178741
0.0220423
0.0281462
0.0475249
0.144367
0.029269
0.086568
0.0165948
0.00789682
0.00774869
0.117549
0.0241392
0.15995
0.0505391
0.00307227
0.135143
0.024077
0.00633952
0.079496
0.00813501
0.0182729
0.0842841
0.00174748
0.0148307
0.140363
0.00401514
0.0318694
0.166651
0.0406825
0.0659201
0.168527
0.0173084
0.0329649
0.00161128
0.025962
0.0655601
0.0342101
0.0121312
0.013773
0.069554
0.0230078
0.0377949
0.0174873
0.0453928
0.0135662
0.0633063
0.0253151
0.0872615
0.0925363
0.00221417
0.073202
0.00414317
0.0672779
0.0298184
0.117332
0.0171068
0.124416
0.0126697
0.0403608
0.00360771
0.145869
0.00790186
0.0603099
0.0189163
0.167615
0.0413833
0.0908692
0.0174345
0.0772248
0.00306614
0.00180925
0.0115291
0.0192005
0.00887047
0.0653557
0.00832507
0.0144385
0.12418
0.0123585
0.00431705
0.00246129
0.01947
0.00248701
0.0185811
0.0313286
0.151615
0.0239529
0.0146692
0.0184291
0.119459
0.025911
0.00578454
0.169077
0.0448636
0.0237047
0.00261529
0.0207809
0.0160105
0.0203757
0.125543
0.0073183
0.109195
0.0826876
0.0249906
0.0471939
0.00138983
0.0118075
0.00249476
0.153582
0.00219805
0.00174827
0.00493872
0.0180352
0.0107909
0.00657018
0.00833154
0.0372573
0.042618
0.011351
0.0012475
0.0561464
0.0116335
0.00394981
0.0434366
0.0868411
0.0408958
0.0243681
0.0791751
0.0342367
0.00509384
0.00255592
0.0408372
0.118819
0.00154403
0.00617576
0.0569451
0.0591393
0.160837
0.0595496
0.00250156
0.0123527
0.00243896
0.026002
0.0842322
0.0507498
0.0253985
0.0959176
0.0161157
0.023463
0.00204417
0.0950518
0.130332
0.00976858
0.0565027
0.0186314
0.00506866
0.0309423
0.00140977
0.00226911
0.0316381
0.0603449
0.00429296
0.00149267
0.0101062
0.0307239
0.00576764
0.00277175
0.0148237
0.0394167
0.162703
0.14838
0.00310552
0.0194096
0.00428508
0.170932
0.000945822
0.00349985
0.063522
0.0779125
0.00341108
0.089064
0.0895614
0.0175048
0.00168818
0.00261508
0.00262184
0.0382041
0.00998776
0.00959466
0.121331
0.125212
0.130526
0.00332803
0.163706
0.0635264
0.0110505
0.0348566
0.00821187
0.137173
0.100394
0.137793
0.121295
0.00731664
0.146347
0.0483615
0.0113535
0.00612709
0.00204359
0.159815
0.00558395
0.00626128
0.0044688
0.0234177
0.00125847
0.00139581
0.0479846
0.114926
0.0258457
0.0210284
0.00344372
0.0218412
0.141038
0.157131
0.00575937
0.00933527
0.0392093
0.152547
0.0520615
0.0100594
0.101276
0.161283
0.0179186
0.0255629
0.136781
0.0560709
0.00191379
0.0460106
0.0254122
0.0806449
0.032009
0.00474316
0.143526
0.0232655
0.0945119
0.0215526
0.00240364
0.175832
0.00256941
0.018615
0.00312208
0.128044
0.0236408
0.0177574
0.00513153
0.0057434
0.022068
0.00196715
0.00854015
0.0255653
0.162496
0.00522222
0.0977838
0.163478
0.0703257
0.164289
0.0119981
0.16345
0.165912
0.00463328
0.0149668
0.139278
0.0107002
0.0308875
0.00278984
0.0286947
0.00192079
0.0583407
0.0140337
0.00959548
0.00366829
0.0244872
0.00167043
0.170618
0.0212382
0.153518
0.0336864
0.0429476
0.00726063
0.00696247
0.019666
0.000956441
0.151732
0.00138831
0.0272475
0.0580419
0.011785
0.0139472
0.00274991
0.0760243
0.0115809
0.00662924
0.021841
0.00594275
0.173054
0.100623
0.17684
0.00289598
0.103353
0.0934973
0.0762037
0.122088
0.0834964
0.0789815
0.0326993
0.0618147
0.112224
0.027844
0.017058
0.0119769
0.077132
0.00361382
0.0411583
0.00231682
0.00962314
0.00164972
0.0114246
0.0278613
0.00130413
0.0131422
0.00198538
0.00583829
0.0106996
0.148832
0.0898031
0.0227922
0.00417847
0.0381034
0.00180167
0.039955
0.00188239
0.00823784
0.0213055
0.0288107
0.00175195
0.00129615
0.0230114
0.0655745
0.132163
0.0233176
0.104182
0.124469
0.00801908
0.0150933
0.103485
0.0491825
0.028517
0.00277471
0.01894
0.128603
0.0200282
0.00930157
0.02857
0.102798
0.00175995
0.0335035
0.0388061
0.00150736
0.0199333
0.0439708
0.00137361
0.00995586
0.00178277
0.0483428
0.0229481
0.00443969
0.0728375
0.0406791
0.16435
0.0218635
0.0953412
0.12124
0.0341083
0.00635899
0.00267255
0.081076
0.0404062
0.0998318
0.0415564
0.0253866
0.112735
0.00585792
0.0154703
0.0397756
0.0611127
0.0801329
0.119344
0.0241638
0.00189268
0.0190129
0.0748477
0.0637133
0.00626829
0.00368279
0.080015
0.119394
0.0739642
0.0804301
0.00246151
0.0196317
0.16848
0.128023
0.0117866
0.00446656
0.120947
0.190622
0.0175037
0.035244
0.0194896
0.019545
0.00742104
0.0108741
0.0936864
0.016641
0.00249753
0.0122881
0.00780059
0.019285
0.0045383
0.163826
0.0389909
0.0226356
0.013785
0.0433891
0.0482205
0.145474
0.0297242
0.00389077
0.00453706
0.0118039
0.0294587
0.146806
0.0132973
0.0424928
0.0292564
0.00690471
0.0203003
0.0374322
0.066806
0.00242414
0.00339875
0.135756
0.0319747
0.00779495
0.0484255
0.102867
0.0559352
0.0105501
0.0204234
0.0154437
0.00103828
0.0305408
0.124442
0.00670906
0.10821
0.00324549
0.160301
0.0231679
0.0082097
0.0350715
0.119588
0.0400284
0.0257959
0.0021001
0.0556341
0.147552
0.00259441
0.0107901
0.00718649
0.00190426
0.00895402
0.162679
0.00408129
0.0460189
0.0030503
0.131004
0.0366295
0.176095
0.00140533
0.0934844
0.0227715
0.117242
0.0168511
0.00626441
0.0158396
0.00946397
0.0348921
0.147483
0.0107722
0.0148095
0.0858334
0.0168853
0.0529529
0.00536736
0.00166349
0.088885
0.0188624
0.140327
0.0109036
0.127962
0.000902849
0.0676963
0.0450663
0.137052
0.0262797
0.0234027
0.153053
0.0541398
0.0404889
0.00576099
0.00816684
0.0422267
0.0228426
0.0234137
0.00889712
0.0440781
0.0137024
0.0266658
0.0404831
0.0197233
0.018743
0.115029
0.117797
0.0148858
0.0522723
0.00456743
0.0241691
0.00407132
0.0309793
0.0965248
0.0466043
0.0175455
0.0103341
0.0795883
0.0231108
0.00990029
0.0171723
0.0814152
0.0149251
0.172662
0.00109195
0.00274348
0.0185794
0.00143711
0.0189874
0.0154374
0.00893541
0.00978273
0.0184085
0.00137074
0.0205055
0.00894426
0.0341958
0.0258388
0.0465374
0.043899
0.012891
0.0565805
0.00235233
0.0355274
0.0336942
0.0050947
0.0601672
0.0138245
0.0228512
0.0173988
0.0349567
0.00692221
0.0163482
0.114662
0.0153385
0.00185497
0.00724097
0.0510713
0.0209919
0.121313
0.0456208
0.00321908
0.0741707
0.103376
0.0112365
0.0367993
0.0199033
0.0550432
0.0896786
0.00771725
0.0455276
0.0620649
0.0149522
0.0487656
0.0676564
0.115292
0.00261963
0.0309597
0.123899
0.0789152
0.00940001
0.0251042
0.0202435
0.0448882
0.0101355
0.0269065
0.0427565
0.0270508
0.0886502
0.0991206
0.00395887
0.0101474
0.0147458
0.0194208
0.0103441
0.00895264
0.0128549
0.0125103
0.0216649
0.00402364
0.045451
0.0372737
0.125261
0.175409
0.0110761
0.146527
0.00291604
0.00120828
0.00445382
0.0999338
0.0153174
0.00993641
0.089318
0.00443508
0.00697264
0.00219654
0.0140307
0.00165635
0.00911936
0.00590503
0.00286729
0.0146516
0.032744
0.0111527
0.0589809
0.00261842
0.0248039
0.0111489
0.063928
0.0168534
0.0941378
0.00148231
0.0027892
0.150478
0.00142973
0.00248462
0.0118187
0.0112919
0.00738437
0.0771711
0.00172797
0.0395726
0.00442882
0.00102305
0.149552
0.0349558
0.12059
0.0234955
0.0253123
0.0097708
0.00659543
0.144455
0.0772158
0.0168163
0.029746
0.117154
0.0160059
0.0593809
0.094664
0.0152862
0.00815593
0.0898362
0.00597597
0.033559
0.161806
0.0186509
0.00409561
0.0459267
0.076746
0.00622626
0.00453001
0.0480953
0.0150767
0.00370432
0.0104202
0.00144909
0.0709893
0.00899114
0.00210507
0.00246744
0.115992
0.0349376
0.0140997
0.0147887
0.00740965
0.0259997
0.00183322
0.0114097
0.00422212
0.034732
0.122143
0.00125738
0.0141169
0.116518
0.148953
0.00184467
0.0494688
0.0520359
0.0520484
0.0249304
0.143669
0.0114782
0.0313272
0.0225328
0.0905826
0.0161338
0.00176262
0.00565393
0.0124069
0.00159535
0.00773735
0.0803718
0.0443822
0.0461354
0.127645
0.00636132
0.0120856
0.0410456
0.0388396
0.065262
0.113574
0.00956946
0.0958517
0.00676619
0.0216806
0.131679
0.00281489
0.00132547
0.128084
0.00371537
0.00981439
0.0126516
0.152112
0.0787102
0.00173207
0.00846417
0.113028
0.0654249
0.0477537
0.0137376
0.171095
0.0101218
0.094038
0.0950098
0.0357945
0.00384838
0.00177547
0.0854887
0.0298967
0.00407478
0.00163138
0.0164715
0.0070959
0.00204344
0.0558032
0.143262
0.0307481
0.0244298
0.0031062
0.0792573
0.169592
0.00412266
0.00570435
0.13053
0.0623043
0.00467367
0.174373
0.0952052
0.00575179
0.00934537
0.00170292
0.124178
0.0152467
0.00780095
0.0126776
0.0159028
0.0151739
0.0750734
0.140602
0.0041365
0.0162631
0.0827686
0.0183719
0.00144017
0.0907584
0.0586569
0.0889327
0.00460812
0.0867789
0.0996903
0.110815
0.0762417
0.0021487
0.00231439
0.0291025
0.0045898
0.00170271
0.00192441
0.0665465
0.0384722
0.0799964
0.052747
0.104488
0.100494
0.107489
0.110382
0.101378
0.0175661
0.00120414
0.0101659
0.0103781
0.0177136
0.105254
0.0223908
0.0120454
0.0335998
0.0616344
0.0094055
0.0119429
0.00350729
0.013527
0.0817171
0.00215007
0.0242186
0.0895059
0.0425497
0.0044401
0.0106973
0.0314146
0.0115607
0.0928917
0.107102
0.00927229
0.0138557
0.0217394
0.00442224
0.111005
0.132216
0.00224213
0.0103135
0.0181763
0.00651069
0.0269121
0.00596467
0.00492441
0.00678292
0.0013475
0.0503719
0.0544138
0.10399
0.083959
0.0996589
0.0250736
0.0127212
0.0196465
0.00200715
0.107443
0.00375585
0.00324848
0.0270006
0.00243243
0.0361371
0.00558904
0.00121438
0.103362
0.0053899
0.0718707
0.00186237
0.150393
0.00646188
0.0627751
0.00394983
0.0163804
0.00126793
0.0872757
0.00682058
0.0630601
0.0265418
0.007206
0.0879067
0.00115326
0.00176339
0.0103007
0.00318242
0.0089686
0.00180556
0.0103931
0.0598278
0.00739092
0.0111309
0.00784249
0.101863
0.130204
0.0235589
0.00940031
0.0397396
0.0354725
0.0287146
0.00193403
0.00557802
0.0363559
0.00289581
0.00547538
0.0835918
0.00975706
0.0138359
0.00656151
0.0136536
0.039332
0.00235645
0.0969025
0.104999
0.128873
0.00669641
0.00915035
0.0350482
0.0144582
0.104275
0.158633
0.112765
0.00196516
0.152151
0.114629
0.00814248
0.00626122
0.0220658
0.0378459
0.00215531
0.0112149
0.020349
0.0390093
0.00655767
0.025718
0.0192966
0.0188757
0.00463082
0.0084574
0.0101393
0.0820725
0.0207543
0.0184357
0.0199858
0.0182132
0.0023828
0.159142
0.008747
0.0656951
0.128839
0.0229507
0.00686255
0.0244092
0.0222984
0.118344
0.00744027
0.00983605
0.0123972
0.0141365
0.164011
0.127096
0.0125886
0.0135084
0.0847996
0.0102249
0.112882
0.067343
0.00142716
0.0522571
0.00182621
0.0433104
0.0129221
0.0101192
0.0372088
0.0183553
0.0158249
0.00741404
0.041557
0.0138155
0.0299227
0.151521
0.0454388
0.00168506
0.00613582
0.0427931
0.0416617
0.0665627
0.052242
0.00632645
0.00665997
0.0405934
0.00156413
0.0796785
0.115647
0.0756526
0.00689214
0.025738
0.0235918
0.0611845
0.0377748
0.0319587
0.1833
0.172928
0.013117
0.00176001
0.0572508
0.0372939
0.0077474
0.00886533
0.0691181
0.00437835
0.0101766
0.0567635
0.0492253
0.0377264
0.00835106
0.0561459
0.013188
0.0142856
0.0248577
0.0575959
0.0110653
0.0862597
0.00337375
0.013595
0.0191146
0.00802587
0.00484484
0.111473
0.0610522
0.00103354
0.00484144
0.00971026
0.0284948
0.0122629
0.0722095
0.0020734
0.0137644
0.0534282
0.00187283
0.0109831
0.0210064
0.0103675
0.0114311
0.0458255
0.0030353
0.0304977
0.0188713
0.0144155
0.0289384
0.116336
0.00771487
0.0720428
0.112221
0.0773749
0.00183956
0.0447807
0.145033
0.0534531
0.0717874
0.0404187
0.146853
0.0133572
0.00679767
0.0245784
0.140208
0.00229706
0.02851
0.142776
0.0408055
0.0544167
0.0963319
0.124973
0.0196057
0.0096636
0.133869
0.0137697
0.00639403
0.0553831
0.0133953
0.00244619
0.0265381
0.125627
0.0942831
0.00448875
0.133373
0.14985
0.0190863
0.0165759
0.00440352
0.00130887
0.102963
0.124189
0.0760131
0.00494184
0.160835
0.0584145
0.01167
0.00479442
0.0301921
0.0118949
0.109955
0.00601464
0.0102082
0.0279123
0.00370318
0.0131827
0.00150107
0.132589
0.0704721
0.00200855
0.00378428
0.0197918
0.0112685
0.00423302
0.00177795
0.00685972
0.00233589
0.0126849
0.0220961
0.00149366
0.0143731
0.0128071
0.01865
0.00521797
0.00142322
0.162751
0.0307127
0.077875
0.00367091
0.089729
0.0011376
0.0146417
0.00192616
0.022765
0.00387495
0.00461216
0.122332
0.0299856
0.00460177
0.0134515
0.0977732
0.0274437
0.00496558
0.0073658
0.00663329
0.00987953
0.00157216
0.00438925
0.133285
0.14962
0.00360578
0.00461743
0.0260991
0.00935777
0.00196289
0.0355515
0.02378
0.0785909
0.0122565
0.124106
0.1095
0.00810606
0.0317036
0.155377
0.00136376
0.00155255
0.124262
0.0139655
0.0181614
0.00360529
0.0074412
0.0284139
0.108185
0.00469311
0.00177834
0.0613655
0.0171987
0.0328139
0.00672063
0.0583973
0.0136532
0.00684831
0.00744581
0.157489
0.00350524
0.00649918
0.0100458
0.0148164
0.118808
0.0020418
0.0584359
0.0203608
0.0339498
0.0177982
0.0763666
0.0543006
0.0331993
0.00888711
0.0607192
0.124914
0.0473761
0.0427688
0.0647456
0.0339619
0.00821593
0.00306209
0.00558599
0.0154395
0.087027
0.00910915
0.0233559
0.0019788
0.159677
0.00270692
0.129697
0.0725533
0.0306946
0.0142812
0.00623817
0.0630057
0.00131618
0.0317174
0.0786938
0.0244865
0.00366022
0.0194202
0.00669792
0.00186307
0.172818
0.0288202
0.00108032
0.0527421
0.00231474
0.092745
0.0163328
0.00152664
0.030983
0.1111
0.123623
0.00116959
0.0193398
0.0639788
0.00223547
0.0790767
0.0281652
0.00774739
0.00173335
0.00352503
0.00184956
0.00318151
0.00482959
0.0210349
0.00262673
0.0049952
0.0456918
0.0480165
0.0216269
0.0202046
0.00445309
0.0816318
0.0157967
0.0904856
0.0808276
0.00330816
0.148091
0.00159392
0.0775787
0.0196455
0.0143689
0.112003
0.0679929
0.00171602
0.00185327
0.00679905
0.112512
0.0218393
0.0193639
0.0794443
0.0151589
0.00762616
0.0163675
0.155717
0.00158667
0.00170838
0.129624
0.141331
0.112941
0.145195
0.0295471
0.0215992
0.00181308
0.140962
0.0611189
0.0186523
0.00165223
0.0764116
0.00384538
0.0670488
0.00500952
0.00944503
0.0027986
0.0167932
0.00587354
0.00562515
0.0816896
0.0912667
0.00444964
0.0129953
0.104417
0.00327602
0.0598758
0.0974422
0.0880951
0.0115672
0.00268875
0.00322328
0.00342653
0.0177904
0.0135961
0.0446635
0.00172866
0.0112936
0.0221669
0.0596872
0.0511472
0.0139829
0.00222419
0.0107812
0.0023425
0.0284112
0.0660435
0.00155743
0.0391465
0.00188845
0.00261101
0.15867
0.0137035
0.0102175
0.0135785
0.0100236
0.0493642
0.00161608
0.019109
0.00335024
0.00125294
0.00299566
0.0183808
0.0221048
0.117181
0.00458469
0.0019089
0.0325116
0.0233867
0.00173135
0.00616404
0.00550748
0.184785
0.0106345
0.00133627
0.00413942
0.0371207
0.0189012
0.0896301
0.00325418
0.00826629
0.0130664
0.00299106
0.00146733
0.0770701
0.00569011
0.112451
0.0035645
0.00393362
0.0214359
0.0210573
0.00332152
0.120882
0.0124027
0.00113127
0.00198259
0.0232664
0.124074
0.0900469
0.00438198
0.00314119
0.00451255
0.0017999
0.014734
0.00968167
0.148773
0.00161632
0.00904244
0.0139274
0.00332086
0.00115674
0.00152416
0.00144636
0.0016409
0.00137657
0.00153573
0.0321246
0.0108157
0.0128735
0.0536667
0.0017003
0.00334094
0.125015
0.00420244
0.116055
0.067784
0.0984105
0.010961
0.0744576
0.00154583
0.00524827
0.0107793
0.0547967
0.00340102
0.00677643
0.00390565
0.00140686
0.0303997
0.0190941
0.00977665
0.00490838
0.0592475
0.0489347
0.0883842
0.00141255
0.0815497
0.0289595
0.0140434
0.024966
0.00210568
0.118219
0.00186404
0.0587719
0.10459
0.0379768
0.0367644
0.0199749
0.0215858
0.00189778
0.00981236
0.0164357
0.00287166
0.0495332
0.00203407
0.0617226
0.00194535
0.0138595
0.00178586
0.00906717
0.0370386
0.146852
0.00343387
0.0422304
0.0180746
0.118605
0.0175253
0.00199631
0.147208
0.0831081
0.0544299
0.134355
0.0028094
0.00247386
0.0467511
0.115044
0.00154523
0.00229038
0.063696
0.00863936
0.141459
0.00213962
0.00180239
0.0134335
0.00383056
0.00137056
0.0043738
0.00128797
0.0142331
0.0428993
0.0856787
0.0871763
0.00206251
0.00254987
0.0245503
0.0121334
0.00147882
0.0604214
0.00122188
0.0429486
0.0448199
0.066452
0.00312601
0.0142546
0.0553679
0.00140722
0.165683
0.00478152
0.00637819
0.0562398
0.0973776
0.00677792
0.0566603
0.154039
0.101493
0.00633478
0.0100779
0.122207
0.132116
0.00999668
0.0390916
0.00874356
0.0807043
0.00181464
0.117052
0.0046905
0.154931
0.00162069
0.00443762
0.0139701
0.0135603
0.0105304
0.0936795
0.00516261
0.00174567
0.0537239
0.00783724
0.0790231
0.00353281
0.070901
0.00200358
0.0108865
0.00375776
0.00146146
0.00176412
0.00803447
0.0317595
0.00305168
0.122024
0.00202523
0.0148964
0.00314152
0.05246
0.0101244
0.0088657
0.0122938
0.0311347
0.0433218
0.149551
0.00136829
0.00818598
0.00134895
0.0035011
0.0124426
0.0767365
0.00669035
0.00259279
0.00977728
0.029077
0.0997464
0.00291816
0.00320917
0.00253015
0.00116647
0.0127875
0.031597
0.0783263
0.0109666
0.009118
0.00334586
0.0832372
0.0941106
0.000869142
0.00982937
0.161609
0.012642
0.00321497
0.00762874
0.0550744
0.00692796
0.00346182
0.00286293
0.00561696
0.00623801
0.0442157
0.161221
0.13421
0.165986
0.0395728
0.0970672
0.0102889
0.00211385
0.0124695
0.0195104
0.0155643
0.11849
0.0139496
0.0314024
0.0103556
0.00993959
0.0496523
0.0144622
0.0404368
0.112368
0.0330225
0.105886
0.00340509
0.0785091
0.00380553
0.00355286
0.00339501
0.00190077
0.00141049
0.145378
0.15328
0.0771215
0.00277132
0.0508538
0.0967413
0.124054
0.00552613
0.0115438
0.0107552
0.00384157
0.0210302
0.0774418
0.0134527
0.0759548
0.0070603
0.149758
0.0106558
0.0540245
0.0338704
0.0238238
0.0187023
0.0251313
0.00361975
0.0141242
0.00434417
0.0103037
0.00892105
0.009952
0.00689429
0.0496398
0.00131639
0.0160669
0.0139319
0.0356921
0.0282109
0.00399428
0.0726076
0.00603673
0.000906092
0.0108623
0.0023986
0.00599477
0.00567071
0.00590363
0.00526991
0.0603298
0.0150888
0.0987505
0.00541363
0.00726822
0.00288022
0.073818
0.00836346
0.0133084
0.00188071
0.00699636
0.0107649
0.10571
0.0103538
0.0795313
0.00888204
0.0244911
0.0028884
0.0626924
0.0137648
0.112092
0.0101256
0.00979043
0.0127849
0.00316859
0.0810348
0.019843
0.00549434
0.0872075
0.00512457
0.00211507
0.00715153
0.0180098
0.0095611
0.0477326
0.0566413
0.00292439
0.00406758
0.0528105
0.0316895
0.0158781
0.0438719
0.00366915
0.0445918
0.00195825
0.00595699
0.00672031
0.0106594
0.0178848
0.0797029
0.0451004
0.00508095
0.00410515
0.0130811
0.00152912
0.134144
0.016361
0.0125505
0.00309105
0.077733
0.00750175
0.123492
0.00193792
0.0926654
0.0819575
0.00936258
0.12589
0.0327455
0.00597581
0.0317016
0.0275318
0.0408015
0.00949037
0.012364
0.00296647
0.0713814
0.0311513
0.11402
0.00656404
0.0708762
0.0119577
0.0116328
0.00424573
0.00294821
0.00183486
0.00208972
0.00362535
0.0103328
0.00516153
0.0126705
0.144078
0.0972781
0.00167017
0.00572622
0.11536
0.0799942
0.109956
0.0200416
0.00557699
0.131322
0.00955201
0.0075642
0.00688513
0.00491643
0.079172
0.160562
0.00512112
0.0218576
0.0628741
0.00639846
0.00428899
0.0574234
0.0709499
0.0141563
0.0905586
0.00809242
0.16059
0.0128828
0.150753
0.00332231
0.0389872
0.00130421
0.013482
0.0370142
0.0118171
0.0780637
0.0460362
0.145298
0.0146237
0.00351969
0.0467152
0.00546827
0.154524
0.149267
0.00376638
0.0510446
0.134176
0.0964282
0.15407
0.0374054
0.0834683
0.119769
0.00481129
0.0923028
0.0529648
0.0057216
0.0712625
0.0676235
0.130706
0.034899
0.00263315
0.00235077
0.0379821
0.0329098
0.0369148
0.148499
0.0105964
0.108906
0.118202
0.00123105
0.0824321
0.0108605
0.0143758
0.00617335
0.042357
0.00617316
0.0386836
0.00596647
0.00500802
0.039172
0.00331999
0.00182886
0.0119313
0.00362096
0.0485363
0.0467871
0.0069931
0.00676621
0.056691
0.111922
0.021608
0.0105906
0.110192
0.01008
0.116433
0.00963429
0.00483375
0.0100461
0.00927805
0.0465123
0.0290394
0.157682
0.150595
0.0748439
0.0442497
0.0232286
0.15786
0.00521802
0.0276096
0.0144357
0.05004
0.00195815
0.167374
0.0801305
0.00642955
0.150372
0.00605296
0.0142192
0.0103664
0.0513857
0.0239154
0.0402092
0.00914523
0.0321201
0.00581027
0.0193748
0.0303513
0.0608594
0.013416
0.00347153
0.0112788
0.00746259
0.00651181
0.0140258
0.00951985
0.0950244
0.00185239
0.0407442
0.0239598
0.0235117
0.00837857
0.0387875
0.0100914
0.0120189
0.0194751
0.136561
0.0133256
0.14993
0.0102688
0.0826734
0.126311
0.040416
0.0146809
0.00478268
0.0389302
0.00144549
0.00378189
0.100475
0.00318477
0.00746313
0.0467167
0.0251365
0.0146398
0.0591509
0.0446223
0.00323002
0.154748
0.00194496
0.0141247
0.0175063
0.0239772
0.0312028
0.0404677
0.0452046
0.00520897
0.0264282
0.110018
0.0400272
0.0392934
0.00123462
0.0102751
0.147572
0.011956
0.00676613
0.00480463
0.067532
0.0368207
0.0398408
0.0191603
0.0223292
0.0282444
0.0184169
0.00656034
0.0479082
0.0260683
0.0113941
0.0190296
0.0157955
0.00493804
0.0461101
0.154927
0.0159908
0.0110598
0.0150676
0.00142417
0.00299992
0.00689968
0.00497186
0.049645
0.0247161
0.118618
0.12416
0.00608954
0.0371007
0.0105398
0.0188111
0.0223776
0.0188236
0.00355897
0.0816565
0.115034
0.0164542
0.0746391
0.0865116
0.0481858
0.040188
0.00995132
0.0545661
0.0323668
0.0530586
0.00674807
0.142233
0.00309523
0.0508541
0.0264451
0.112922
0.140984
0.0251788
0.0376166
0.0102152
0.0208529
0.0635945
0.0148261
0.0445562
0.149208
0.037792
0.00934599
0.0301376
0.0756792
0.0790686
0.0809231
0.0173492
0.0714053
0.0685059
0.00988687
0.0874123
0.0394174
0.0215661
0.00664277
0.0108409
0.0320934
0.0110969
0.00221529
0.00958029
0.00687831
0.0205459
0.0260816
0.0186493
0.0155073
0.0318157
0.0110103
0.0388395
0.119869
0.0144914
0.099737
0.00830062
0.00788799
0.00877327
0.0235445
0.0382636
0.014837
0.0140464
0.0187681
0.021209
0.0266844
0.00715477
0.00453059
0.0142685
0.041098
0.0283626
0.00188278
0.0218695
0.154364
0.00154168
0.0031778
0.0395136
0.0296376
0.0257511
0.00717254
0.00208745
0.0640906
0.00497653
0.00461806
0.00903593
0.00893769
0.0571523
0.0196058
0.0284535
0.00960912
0.133917
0.011003
0.0243682
0.00724899
0.121328
0.0849014
0.00423569
0.0234564
0.019885
0.0297215
0.126258
0.0110294
0.00154421
0.0153803
0.0853209
0.0066111
0.0154533
0.030646
0.0380524
0.0566038
0.0191686
0.0489089
0.00706344
0.0512059
0.019923
0.0163967
0.0139921
0.0146903
0.0455057
0.0150529
0.0194446
0.0486647
0.0129055
0.050548
0.0283901
0.074389
0.159426
0.00180263
0.0120361
0.0310596
0.00149801
0.0265029
0.0613117
0.00346604
0.0137729
0.00141121
0.0396544
0.0247253
0.0672223
0.0278549
0.0235067
0.00142751
0.0290882
0.00950961
0.0466346
0.0408471
0.0273429
0.0380214
0.0081952
0.00185763
0.00353454
0.077439
0.0828369
0.00503892
0.0285916
0.0330388
0.014645
0.0183561
0.00376196
0.00518948
0.0261219
0.00532735
0.0148324
0.0264139
0.0523831
0.0330322
0.0107889
0.00149155
0.165349
0.0197536
0.0269965
0.0953881
0.0702781
0.0386556
0.0017869
0.0129466
0.0572514
0.0221899
0.104319
0.0148727
0.090616
0.0251916
0.0384934
0.0257505
0.00413287
0.0357213
0.12917
0.0096621
0.0733294
0.0718236
0.00432854
0.0618735
0.00167844
0.00109751
0.00181045
0.014593
0.0307516
0.0941518
0.14296
0.0939687
0.0195101
0.0101577
0.0117659
0.00429862
0.00878035
0.0190571
0.0697647
0.0258923
0.0260852
0.141135
0.0309196
0.0729738
0.00488602
0.0261003
0.00184811
0.0312942
0.0247816
0.161366
0.0349316
0.00299992
0.00359825
0.0110238
0.0870086
0.0115902
0.0258921
0.0759346
0.0147851
0.0978627
0.0240075
0.00184773
0.0636164
0.0440091
0.0442823
0.00183162
0.00150106
0.0593436
0.0263252
0.030587
0.0313149
0.0583436
0.0389277
0.131553
0.0345113
0.0512211
0.126791
0.0273384
0.00162425
0.00886706
0.0649905
0.0607872
0.0304561
0.0336386
0.111984
0.0149874
0.0123651
0.00185428
0.0197427
0.0295615
0.0386514
0.0724278
0.0100582
0.0770553
0.152965
0.0179391
0.0145823
0.0130569
0.00210055
0.160947
0.0174228
0.0284257
0.0264617
0.101361
0.0655221
0.0254728
0.0083694
0.0139566
0.0537746
0.0131371
0.00791514
0.144909
0.0169979
0.0107871
0.00193704
0.151776
0.0200188
0.0293619
0.0760512
0.00964776
0.0766023
0.0676983
0.0194699
0.0100461
0.011244
0.0497707
0.0338119
0.00134017
0.00137481
0.0663916
0.00303386
0.00671084
0.0835271
0.0645777
0.0538529
0.031708
0.135384
0.0747664
0.0143069
0.00186101
0.0414193
0.0805708
0.0760508
0.116864
0.059808
0.0494762
0.0767222
0.00124795
0.0357669
0.0106296
0.0305704
0.0515588
0.0256013
0.047082
0.114108
0.0176204
0.117993
0.0286973
0.00536099
0.0571712
0.021981
0.146885
0.0454974
0.115617
0.0557774