/*--------------------------------*- C++ -*----------------------------------*\
| =========                 |                                                 |
| \\      /  F ield         | OpenFOAM: The Open Source CFD Toolbox           |
|  \\    /   O peration     | Version:  v2012                                 |
|   \\  /    A nd           | Website:  www.openfoam.com                      |
|    \\/     M anipulation  |                                                 |
\*---------------------------------------------------------------------------*/
FoamFile
{
    version     2.0;
    format      ascii;
    class       surfaceScalarField;
    location    "250";
    object      phi;
}
// * * * * * * * * * * * * * * * * * * * * * * * * * * * * * * * * * * * * * //

dimensions      [0 3 -1 0 0 0 0];
oriented        oriented;


internalField   nonuniform List<scalar> 
14470
(
-0.11673
0.254648
-0.137917
-0.00550978
0.00612679
-0.203377
-0.201334
0.404792
-0.0040051
-0.000245646
0.00425075
-0.365207
-0.213435
0.578802
0.0968199
0.0495806
-0.146399
-0.169118
0.0852063
0.0839146
0.00724166
-0.00710486
-0.000136802
-0.196109
0.353567
-0.157477
0.703292
-0.371132
-0.332052
0.318588
0.384797
0.65123
-0.406138
-0.245281
0.0137198
0.00153874
-0.0152599
-0.032767
-0.340586
0.373558
-0.226416
-0.0649936
0.291511
0.0988563
0.116018
-0.214856
-0.243221
0.468807
-0.225776
0.00362414
-0.00634729
0.00272317
-0.531053
0.0802003
0.450822
-0.524863
0.359206
0.165596
0.322021
0.274994
-0.00473888
0.00792893
-0.00319003
0.00105506
0.0061866
0.0127746
0.000943734
0.212941
-0.0881587
-0.12478
-0.0890176
0.481893
-0.392902
-0.568361
-0.0345975
0.602794
-0.46944
-0.0616333
-0.0633275
0.159237
-0.0959068
-0.0155373
0.0168939
-0.00135662
0.0672465
0.0763737
-0.14362
-0.253922
-0.188775
0.442915
-0.525758
0.343327
0.18246
0.573333
-0.587272
0.0138265
0.277647
-0.199669
-0.0779473
0.184516
-0.345202
0.160675
-0.225337
0.157625
0.0677271
-0.0140046
0.0113741
0.00263021
-0.0380426
-0.172919
0.210978
-0.173658
0.110332
0.0908552
-0.103347
0.0124929
-0.00863394
0.00286503
0.00576898
-0.6127
0.0443858
-0.458742
0.320157
0.13856
0.542513
-0.287645
-0.254933
-0.0133863
0.0153617
-0.0019754
0.597316
-0.354704
-0.242503
-0.494733
0.20411
0.290463
-0.454961
0.211578
0.178613
0.0990806
0.160659
0.412474
-0.103547
-0.0974508
0.201015
0.347564
0.249867
-0.0400785
-0.12305
0.163133
-0.00471682
0.000711743
0.38953
-0.573517
0.183733
-0.19067
0.119634
0.0710377
-0.296844
-0.198021
0.242311
-0.0886345
0.176346
-0.0877032
-0.128267
0.0892747
0.0389921
0.275088
0.154816
-0.429855
0.0848385
-0.238796
0.153982
-0.651377
0.329765
0.321067
-0.371318
0.175181
0.0138423
-0.0138423
0.309567
-0.180202
-0.129317
-0.336175
0.213827
0.122355
-0.0031448
0.00523493
-0.00208986
-0.0488875
0.254672
-0.205771
-0.0649054
0.043238
0.0216671
0.010921
-0.00255001
-0.00837104
0.0366516
0.0597357
-0.0963695
-0.0186896
0.000640809
0.0180486
-0.510968
-0.0202343
0.531297
0.0721944
0.0588248
-0.131017
-0.00162811
0.058871
-0.0572425
-0.203073
0.420991
-0.217854
0.290594
0.288215
-0.578729
0.0973652
-0.0251702
0.00689935
-0.00327516
-0.0998401
0.19871
-0.134343
0.294272
-0.159903
-0.15165
0.0840939
-0.153168
0.0690761
-0.272114
0.562934
-0.0836785
-0.135881
0.219612
-0.0128538
-0.00115123
-0.0947069
-0.0335598
0.00134346
0.00529834
-0.00664176
-0.145192
0.0968892
0.0483031
-0.0635553
-0.0816361
-0.181948
-0.0267411
0.208701
-0.00526875
-0.0033651
-0.241836
0.485186
-0.243418
-0.0184954
-0.000194221
0.0973127
-0.18962
0.0923188
-0.124489
0.264781
-0.140256
-0.634111
0.269033
0.00720786
-0.0158408
0.00863274
-0.202697
0.0991757
-0.0316944
0.0498338
-0.0181241
-0.241189
-0.217574
-0.00223622
0.00826221
-0.00602421
0.000454826
-0.0334384
0.0329838
-0.0813449
0.118013
0.19749
0.317606
-0.51515
0.2075
-0.410546
-0.311982
-0.246443
-0.27605
0.522532
-0.00737492
0.00263605
-0.00511285
0.0106325
-0.0055197
0.0137976
-0.0143288
0.000531245
-0.270726
0.221838
-0.639473
0.226764
0.412967
-0.405218
0.186975
0.218316
0.279071
-0.502101
0.222862
0.00466802
-0.000902953
-0.00376508
-0.41527
0.0274112
0.387833
-0.00440279
-0.00381606
0.00822025
0.130189
-0.213823
0.00958509
0.0199411
-0.0295254
-0.2346
0.139296
0.0953191
-0.209416
-0.135798
0.0448754
-0.460202
-0.053777
0.183616
-0.129827
-0.0148593
-0.000677948
0.1699
-0.0374131
-0.132484
0.0351171
0.134786
-0.14774
0.278296
-0.130587
-0.0857887
0.414009
-0.328194
-0.246932
0.130199
0.186261
-0.303036
0.116825
0.0811151
0.174476
-0.255568
0.157019
-0.121128
-0.0358885
-0.160708
0.109184
0.0515244
-0.133374
-0.271785
0.116096
-0.627033
-0.0612568
0.145469
-0.0842041
0.00758611
-0.0026023
-0.00498367
-0.118522
-0.0661531
0.312031
-0.246003
-0.222675
0.131615
0.0911023
0.0135673
-0.0113626
-0.00220477
0.122582
-0.0800659
-0.0425157
0.357082
-0.4645
-0.0136837
-0.0048118
-0.364381
0.278572
0.401919
0.603912
-0.299971
-0.303845
-0.000402217
0.0102688
-0.00986659
-0.291534
0.167071
-0.419111
0.330053
-0.118233
-0.215157
0.33341
0.0765929
0.047192
-0.123785
0.171601
-0.0555699
-0.18071
0.455752
0.123185
-0.0559385
0.245448
-0.384339
0.138914
0.0865965
-0.222432
0.140864
-0.288594
-0.148067
-0.376848
-0.0577426
0.0540146
0.00372811
0.381749
-0.179238
-0.202574
0.091517
-0.0931447
-0.0287355
0.0375294
-0.00877778
0.352491
-0.200199
-0.152331
0.322974
0.193457
-0.516671
0.671822
-0.348108
-0.323792
-0.274955
0.208746
0.0123071
0.000275575
-0.0125826
0.018225
-0.0250582
0.00683324
-0.0332122
0.0265943
0.00661975
0.267174
0.383886
-0.0730343
0.169858
-0.0495848
0.126169
-0.0765828
0.0289562
0.0221668
-0.051123
-0.225187
-0.221961
0.447175
0.315898
-0.186764
-0.129096
-0.0189641
0.0167299
0.000180986
0.211974
-0.0817465
0.209937
0.332505
0.510718
-0.252073
-0.258743
0.520324
-0.0486849
0.0582711
0.0098508
0.00107023
0.0661311
-0.0479061
-0.0485869
0.0169082
0.171089
-0.38309
0.211982
-0.00371129
-0.00924409
0.0129554
-0.0295741
0.0275586
0.00201541
0.0718914
0.109142
-0.181028
0.259835
-0.429437
0.169541
0.257919
-0.131442
-0.126468
-0.00583774
0.01172
-0.00588225
-0.116032
0.435374
-0.319624
0.330197
0.138469
0.254652
0.302852
-0.557572
-0.350762
0.235535
0.115218
-0.46274
0.383561
0.0791535
0.12093
-0.280672
0.159789
-0.138389
-0.130771
0.26918
-0.00546632
0.000831236
0.00463508
-0.148575
0.31143
-0.162889
0.135186
0.0844704
-0.219637
0.183951
0.168509
0.302922
-0.172233
-0.130682
0.0417646
-0.0796645
0.0379
0.110357
0.0021702
0.00541603
0.183292
0.253439
-0.4369
-0.00198174
-0.00116285
-0.270687
0.136372
-0.18358
-0.0775679
0.261183
-0.306887
0.274239
0.0953319
0.061689
-0.374276
-0.264988
0.0770819
-0.110744
0.0336612
0.173156
-0.0758305
-0.36302
-0.0997555
-0.00971922
-0.0281796
0.0378988
0.0385734
-0.0330466
-0.00551814
-0.154023
-0.0279163
0.256794
-0.482675
0.225803
0.223715
-0.123772
-0.0999234
0.0145649
0.0293777
-0.0439394
0.102062
0.00929093
-0.111354
0.0832844
0.0187767
0.00536871
-0.00712304
0.00175427
-0.19536
0.162588
0.0327782
-0.296389
0.112862
0.215997
-0.131134
-0.0334548
0.0038807
-0.453287
0.274689
0.178438
-0.00937182
0.000945387
0.0128522
-0.410667
0.294274
0.276888
0.278524
-0.555387
0.0961318
-0.0052759
-0.148003
-0.219947
0.367928
-0.506224
0.259853
0.220903
-0.112214
-0.108684
0.207053
-0.132929
-0.074117
-0.200255
0.230395
0.0855359
-0.0750524
0.210251
0.122804
-0.166193
0.0433985
-0.103697
-0.161595
0.265305
0.195864
-0.0483526
0.17028
-0.121921
-0.00380893
0.00174912
0.00205982
-0.556649
0.193562
-0.0387035
0.0126008
0.0261077
0.529422
-0.181693
0.393592
-0.635867
0.24197
-0.0107097
-0.39227
0.402808
-4.88307e-05
-0.229436
0.409901
-0.180485
0.11923
-0.0426364
-0.00048263
-0.000647822
0.00113093
-0.332186
-0.258518
0.59083
-0.588028
0.213819
-0.0451694
0.141096
-0.0959264
-0.489073
0.477772
-0.28454
-0.272187
0.556919
0.564646
-0.568095
0.0027725
0.000302772
-0.000785315
-0.021866
-0.0358765
0.125692
-0.212095
0.0863898
-0.0537787
-0.0428808
0.0966596
0.129189
-0.190514
0.0613269
0.0211133
0.0102621
-0.00592546
-0.0043366
-0.382304
0.182106
-0.00432434
-0.00892743
0.0132518
-0.202812
0.563813
-0.361349
0.0428807
-0.0283151
-0.0100501
-0.0394545
0.0495046
0.0189212
-0.00988638
-0.00903552
0.00386034
-0.0472349
-0.148121
0.147444
0.130822
0.096812
-0.196638
-0.258201
0.119821
-0.454779
0.300643
0.154152
-0.289566
0.0259549
0.263575
0.087851
-0.0460864
0.157198
0.055745
-0.189459
-0.398544
0.625948
-0.348137
-0.277864
0.403144
-0.220089
-0.636289
0.377531
0.258493
-0.197492
0.00710181
-0.00120659
-0.00589524
-0.0854621
0.477569
-0.392305
0.460453
-0.269129
-0.19113
0.563154
-0.463842
-0.0994424
-0.102264
0.491603
0.00419394
-0.00517378
0.000979843
0.0678709
0.0547116
0.0249154
-0.0768275
0.0519113
-0.28957
0.190804
0.0987888
-0.0620763
-0.16056
-0.0336377
-0.0579822
-0.0999098
0.157907
-0.00182841
0.00142623
0.177207
-0.418417
0.00724148
-0.00788921
0.140361
-0.250707
0.110369
-0.0485082
0.368689
-0.00550978
-0.139314
0.189855
-0.443541
-0.161147
0.112803
0.00202668
-0.0543266
0.182454
0.109106
-0.291543
0.0873209
-0.132346
0.0450201
0.12007
0.31736
-0.197203
-0.120142
-0.0172532
-0.0149501
0.0322021
0.183919
-0.0671579
-0.116758
-0.285713
-0.24002
0.255512
-0.472431
0.216875
-0.172101
-0.117442
0.0772598
-0.122031
0.0447715
-0.00600826
-0.00705026
0.0130585
0.187871
-0.391199
0.498337
-0.180716
-0.482395
0.283061
0.199264
-0.000593512
0.0129006
-0.00929675
0.00497243
-0.00522487
0.00244764
0.00277725
0.259975
-0.468061
0.207922
0.129106
0.054815
-0.0394005
0.126715
0.0582262
-0.0773703
0.0191442
-0.0752476
0.168915
-0.0936645
0.482611
-0.227835
-0.254976
0.442357
-0.260783
-0.181775
-0.251007
-0.231466
-0.103036
0.199857
-0.372933
0.183828
0.189069
-0.000106263
-0.000512046
0.000618375
-0.513568
0.0497534
0.464025
-0.283933
-0.165711
0.449556
-0.0514868
0.0321742
0.01932
0.000493045
0.00660875
-0.00209353
0.000111918
-0.40899
-0.227571
-0.00406789
0.0112757
0.176752
-0.279355
0.102605
0.0447025
-0.0262141
-0.0184885
2.03479e-05
0.000533616
-0.000553927
0.00455499
0.000813703
0.286989
-0.136567
-0.150374
-0.170995
0.132962
-0.079685
-0.0810228
-0.00613129
0.00747479
-0.00207656
-0.16226
0.132648
0.0296157
-0.580972
0.054884
0.525854
0.200523
-0.0748385
-0.441559
0.250681
0.190717
-0.200836
-0.304771
0.505742
-0.157071
-0.215893
-0.190561
-0.317061
0.507375
0.311808
0.285207
-0.00305039
0.00294423
0.300625
0.20549
-0.114847
-0.0906344
-0.0989675
-0.12026
0.219243
0.143659
-0.101155
-0.0425025
0.26254
0.2199
0.152118
0.142177
-0.00148618
0.000613158
0.000873025
0.009062
-0.028819
0.019757
0.00562714
0.0131868
-0.0188173
-0.183282
0.10804
0.193373
-0.477522
0.138063
0.148968
-0.438242
0.236951
0.135679
-0.0867196
-0.0489589
-0.591895
0.054035
0.537344
0.000314289
-0.00240768
0.0439514
0.0662685
-0.11022
-0.0364515
-0.132664
-0.00718306
0.00195821
0.0217026
-0.0389568
0.345078
-0.560578
0.215877
0.292999
0.133342
-0.426359
-0.0234131
0.132597
0.0555992
0.0800799
0.179293
-0.327944
0.00533004
-0.00530968
0.557989
-0.212446
-0.195248
-0.341672
0.536648
0.0382986
-0.0483488
0.444313
-0.191176
-0.0614784
-0.193469
0.0247651
0.0127804
-0.0229753
-0.490485
0.140741
0.240952
-0.0383979
0.0334968
0.00490574
-0.0342892
-0.0306166
0.259414
-0.0884532
-0.170947
-0.109626
0.181524
-0.0394339
-0.380187
0.419465
-0.202547
0.347049
-0.144618
0.0287031
-0.00876146
-0.099351
-0.0902569
0.278408
0.175865
-0.454569
-0.263076
-0.267175
0.530363
-0.130726
0.0906518
-0.0952634
0.137534
-0.0422743
0.137249
0.122178
-0.0125561
0.00119355
-0.28553
0.540007
-0.0142685
0.357665
-0.039572
-0.0257269
0.065299
0.395771
-0.435376
-0.00269473
-0.00111421
-0.0282879
0.0572442
0.282268
0.228357
0.268737
-0.475137
0.206603
-0.295474
0.00587974
0.226315
0.466382
-0.183457
-0.0103094
-0.00553137
0.0863721
-0.116437
0.0712677
-0.0494808
0.144963
0.164331
-0.309252
-0.137231
-0.0973556
-0.12082
-0.104503
-0.00599927
0.0050963
-0.168593
0.0799702
0.431419
-0.644773
0.122843
0.117073
-0.0492015
0.355868
-0.153512
-0.202373
-0.0162367
0.261696
-0.0960962
-0.0730167
-0.519421
-0.242923
0.483479
-0.240648
0.225615
-0.416137
0.190549
-0.199978
0.478928
0.363203
0.212985
-0.575989
-0.296271
0.177633
0.11864
-0.128121
-0.130075
0.127479
0.0934279
-0.526185
-0.0108686
0.53621
0.0103023
-0.0161401
0.218926
-0.133182
-0.0857448
-0.059103
0.103055
0.00847209
0.00178996
-0.194929
-0.0185459
-0.0329239
0.15633
-0.0711189
-0.178584
-0.25092
0.471431
0.00834449
-0.47996
-0.120796
-0.209496
0.330155
0.00495209
0.0153432
-0.020293
-0.120327
-0.0701837
0.525243
-0.254281
0.539268
-0.284719
0.53402
-0.231438
-0.0429017
-0.0101426
0.0530441
0.0805759
-0.13016
0.0593261
-0.438609
-0.21333
-0.296912
0.178673
0.148104
-0.062603
-0.0854982
0.00239651
0.0129652
0.00821568
0.0107051
-0.226527
0.171751
0.0547721
0.302969
-0.148012
-0.154891
-0.0101988
-0.0285001
0.0158901
0.0756275
0.16599
-0.162445
-0.00353801
-0.186108
-0.126989
0.313059
-0.167534
0.423553
-0.256003
-0.00574163
0.000275304
0.280707
0.157504
-0.438391
0.0682221
0.0579475
0.0257554
-0.100335
0.0745807
-0.253067
0.531259
-0.0684724
0.0466067
0.14551
0.0972361
-0.24272
-0.00354265
0.00813493
-0.00459232
0.176007
-0.378678
-0.00212655
0.00695451
-0.00482795
0.156093
-0.0349593
-0.121132
0.0880183
-0.314337
0.116808
0.0242886
0.19337
-0.435344
-0.0236855
0.0819118
-0.621502
0.246575
0.374988
0.121986
0.331843
-0.453895
-0.592048
0.244184
-0.254702
-0.200413
0.0078827
0.295829
0.18928
0.489966
-0.150725
-0.339371
-0.272224
0.190499
0.0817443
-0.232563
-0.23567
0.246538
0.0544692
0.106727
-0.161189
0.100991
-0.282437
0.181485
-0.0984172
-0.590765
0.417479
0.173359
-0.409845
-0.180901
-0.00194486
0.000458668
-0.0518944
-0.00204694
0.0539408
-0.13132
-0.0952092
-0.0206091
-0.268982
0.140868
0.35314
-0.205298
-0.14785
-0.399081
0.341515
0.124769
0.00375832
-0.00131062
0.192989
0.585981
-0.647867
0.061403
0.0162661
-0.0152676
-0.000998414
-0.0535716
-0.0497754
-0.0408228
0.163632
-0.5088
0.582291
-0.307144
0.297362
-0.13864
-0.158735
-0.281686
-0.25762
0.539267
0.0358879
-0.00977606
-0.103731
0.286177
0.0379537
-0.0507529
0.0128198
0.33569
-0.185662
-0.150054
0.0172596
-0.0269789
0.563486
-0.27514
0.00124968
0.0125926
-0.572354
0.0644286
0.50727
-0.0443654
0.121626
-0.440827
0.281249
0.159454
-0.252173
0.168426
0.0837864
-0.00122248
0.0029716
-0.334135
-0.287271
-0.0569668
0.00249982
0.0544676
0.220795
0.174825
-0.3955
-0.395271
-0.223973
0.619136
-0.274227
0.439716
-0.0347789
0.00261956
0.0321587
0.00367941
-0.00284818
0.191147
0.230005
-0.237599
0.0283811
-0.439499
-0.0875395
0.146922
0.0233607
-0.00674641
0.00461988
0.157033
0.000602857
-0.533656
-0.00769525
0.540652
-0.0623763
0.121203
-0.520297
0.531739
-0.0114873
0.335556
-0.0382138
0.445749
-0.265159
-0.180673
0.205324
-0.0778384
0.319883
-0.562954
0.242582
0.00140396
-0.0344456
0.000750476
-0.410766
-0.388273
0.24774
0.140527
0.271363
-0.177239
-0.0940902
0.0732765
0.0184635
-0.0917386
-0.148748
0.128481
0.0202687
0.174074
-0.442998
-0.0114458
0.41497
-0.0420955
0.122672
0.377041
-0.165337
-0.211649
-0.199426
0.383318
0.473957
-0.407827
0.408305
0.310314
-0.0883635
0.0462685
-0.138189
-0.158146
-0.0589364
0.00197027
-0.0620462
0.14322
-0.0811721
-0.0988013
0.120827
-0.0220222
-0.0855512
-0.0834117
0.16897
-0.0185032
0.0568019
-0.112243
0.298548
0.0175494
0.0183417
-0.00390714
0.00763903
-0.00373185
0.0706513
-0.115016
-0.072497
0.0943165
-0.0218193
0.127046
-0.101289
-0.0538078
0.111863
0.223686
-0.00977483
0.00376657
0.123979
0.147428
-0.378755
0.101495
-0.0308433
-0.0193326
-0.50095
0.0340724
0.15428
-0.195095
0.0803106
0.0743196
-0.154626
-0.154903
0.132643
0.0222596
-0.00652668
0.0070197
-0.0114831
0.00287933
0.00860386
-0.273937
0.0967284
-0.0835564
0.163875
0.5496
-0.272723
0.0830427
-0.0895933
0.00655076
0.105486
-0.195335
-0.245626
-0.352684
0.195549
-0.158793
0.331305
-0.172458
-0.195834
0.0964917
-0.0050417
-0.00208139
0.0506747
-0.0935556
-0.00321099
0.0118201
-0.00860909
-0.119396
-0.183593
0.195996
0.0619299
-0.0103381
0.00679538
0.0273617
0.00696007
-0.034322
-0.16896
-0.139312
0.308389
0.098353
-0.189571
0.0912267
0.222052
0.0808808
0.0339725
0.01073
0.00959964
-0.047988
-0.219995
-0.0339171
0.058832
-0.0819224
0.0423505
-0.00869606
-0.00278705
-0.171553
0.500986
0.112356
0.000112086
-0.0179775
0.0178656
0.270783
-0.149811
0.00634668
-0.0550305
-0.0680803
-0.184054
0.0159254
0.127736
-0.215912
0.104495
0.111421
-0.292405
-0.0858558
-0.264595
0.350439
-0.396284
0.181188
0.035404
-0.153932
0.118526
0.574755
-0.332465
-0.109232
0.144636
0.07828
0.0874458
-0.165724
0.164656
-0.075136
-0.089519
-0.33638
0.598851
-0.262521
-0.643837
0.36077
0.282856
0.144101
-0.300975
0.156903
0.198542
-0.336706
0.138181
-0.352328
0.51291
0.209936
-0.357988
0.0766899
-0.138733
-0.0151353
0.0200895
0.00591874
-0.0386457
-0.542416
0.0236257
-0.110345
0.616662
-0.305974
-0.311149
-0.00956015
0.00565303
0.273251
-0.145481
-0.127723
-0.0602798
-0.0612302
0.12151
-0.134669
0.0569141
0.0991791
0.0866405
-0.39243
0.305684
0.202343
0.401644
-0.126378
0.0640055
0.438632
0.222587
-0.361271
-0.0776244
-0.121439
0.199076
-0.0116576
0.000240763
0.0114162
0.24827
0.13528
-0.118817
-0.00849194
-0.00944362
0.0179349
0.142529
-0.246202
0.0279287
-0.0165341
0.00804113
0.411621
-0.186022
0.119395
-0.255445
0.190532
-0.13104
-0.252063
0.19556
-0.469897
-0.0250317
0.067931
-0.0428997
-0.0193307
-0.00672573
-0.00422658
0.0109523
0.201408
0.154448
0.419129
-0.163655
0.26311
-0.447955
0.184947
0.149387
-0.343985
0.194665
-0.182825
0.283855
-0.12398
-0.146679
0.0163425
-0.0471699
0.0308274
0.170985
0.102317
-0.196988
0.109389
-0.0934977
-0.102018
0.0563904
-0.155187
-0.199985
0.422566
0.000261058
-0.0118951
0.0116341
0.309244
-0.161828
0.562947
-0.285331
-0.278188
0.0808141
0.0838435
0.00905447
0.00266554
0.461774
-0.286146
-0.487758
-0.283393
0.301879
0.387129
-0.300557
-0.057913
0.0615324
-0.137377
0.0758451
0.361395
-0.220828
-0.140544
0.15366
0.0516709
-0.312771
0.143946
0.166548
-0.366574
-0.0250427
-0.123705
-0.0101539
0.00458769
0.00556621
0.096944
0.0842684
-0.181209
-0.49752
0.197657
-0.36027
-0.0749628
0.43512
0.10882
0.0242688
-0.133083
-0.0594387
0.118226
-0.148451
0.0302278
0.453384
-0.126177
-0.327323
0.38087
-0.160061
-0.012015
-0.00231383
-0.0106145
-0.247958
-0.0584509
0.178086
-0.0835967
0.0307293
0.0528673
0.390101
0.289513
-0.4007
0.280685
0.119994
-0.00257261
0.00632568
-0.00375302
0.509833
0.0756062
0.248878
0.00071724
-0.00684846
-0.107104
-0.0477981
-0.0455888
0.129684
-0.0872484
-0.0451035
-0.290004
-0.28373
-0.00429711
-0.00585667
0.244084
-0.447308
0.157828
-0.403298
0.245467
-0.225548
-0.17518
0.105084
0.0886842
-0.193756
0.00283444
-0.00374195
0.000907505
0.519537
-0.126254
0.230793
0.179087
0.335812
0.102735
-0.186908
0.326207
-0.282136
0.196293
-0.0684357
-0.00406102
-0.0632908
0.168387
-0.131051
-0.165224
0.356496
0.192259
-0.549016
-0.186334
0.142696
0.0409297
0.123223
0.168375
0.0831614
0.560725
-0.154478
0.417643
0.258375
-0.0543285
-0.203986
-0.00410336
0.00140863
0.0156305
0.00547832
-0.0211097
-0.169518
0.314507
-0.00993671
0.537994
-0.259483
-0.122826
-0.0930831
0.0431483
-0.124224
0.0810765
-0.00765413
-0.00802416
0.0156783
-0.149479
0.387069
-0.237565
-0.317525
-0.0208151
-0.00893158
0.0297465
0.142072
0.0816567
0.303341
0.259035
0.279076
-0.0312434
0.0326514
0.302213
-0.582406
0.280206
-0.0799388
-0.0937175
0.458784
0.0192482
-0.0101861
-0.558429
0.286319
-0.726234
0.439049
0.286277
-0.534687
0.280542
-0.100351
-0.116582
0.216935
0.334461
-0.135946
-0.129554
-0.0825542
-0.102925
-0.059331
-0.0464535
0.0426621
0.00379119
-0.33493
0.249222
-0.46841
0.225363
0.399302
0.199489
-0.00474275
0.33652
0.301041
-0.32139
0.0203418
0.183423
0.172235
-0.355703
0.112021
0.205386
0.204598
-0.074962
-0.129609
0.0191676
-0.0135438
-0.199324
0.0962922
0.0997563
-0.17737
0.264064
0.194671
0.00111803
-0.0137677
0.0126497
0.0635564
-0.0900513
0.0265069
-0.260113
0.455455
-0.0306855
-0.00120741
0.03189
-0.0152088
0.000349452
-0.347821
-0.0125145
0.407947
0.481317
-0.260036
-0.221246
-0.0644758
-0.0914751
0.155954
-0.023188
0.22782
-0.012767
0.276509
0.181401
-0.288213
0.106883
-0.180741
-0.330517
0.510971
0.145138
-0.288009
-0.439092
0.159928
-0.106368
-0.0535592
0.0736912
0.22733
-0.0726015
-0.0805655
0.260836
0.253685
-0.514579
0.141982
-0.0504717
-0.0915087
0.275841
-0.523682
0.247622
0.132376
-0.263813
-0.389743
0.24306
0.146713
-0.267237
0.129095
-0.0800366
0.0371347
0.00253001
0.013736
0.0247712
-0.0449543
-0.0382786
0.00759586
0.0957168
-0.219472
0.16094
0.0407367
-0.0592399
0.000857712
0.210626
-0.153386
-0.0572006
0.276309
-0.433839
0.157512
0.291218
0.000337477
-0.0126408
0.0123033
0.292419
0.18893
0.00258881
-0.166481
0.441004
-0.135006
0.270287
-0.13526
-0.39672
0.247647
0.149041
-0.522263
0.415451
0.106734
0.22421
0.0916019
-0.0891011
0.0024462
-0.00501873
0.00414707
0.000103677
-0.0608194
0.00892444
-0.0111684
0.0122864
-0.435441
-0.0100839
0.0198596
-0.00977346
-0.000171487
-0.0332667
0.255064
0.324424
-0.57947
-0.204446
-0.551005
0.265535
0.285543
0.155609
-0.139682
-0.458423
0.205173
-0.00783988
0.00361335
0.0823245
0.0657835
-0.0887582
0.174094
-0.0853308
-0.11328
-0.197246
0.310515
0.141864
-0.0807566
-0.0611069
0.00903831
0.00146547
-0.0105038
0.00965286
-0.00155346
-0.00809939
0.100931
0.097411
-0.198324
0.116122
0.100573
-0.216677
-0.453433
-0.0807949
0.033966
-0.0236971
-0.211125
0.458329
-0.247216
-0.0368174
0.0327979
0.00401941
0.124527
-0.0749452
0.0344788
-0.106825
0.072348
0.0557565
-0.0485334
-0.00722272
0.00383034
0.00140488
0.121604
-0.283181
-0.110565
-0.167223
0.277828
0.563199
-0.243833
-0.244914
0.10424
0.140707
0.00453619
-0.00708619
0.00938555
-0.00910998
-0.533896
0.331042
0.2029
-0.0217187
-0.0126832
0.0344019
0.305068
-0.181793
0.0948456
-0.0513617
0.00490785
-0.000514737
-0.0111436
-0.0129705
0.0124555
0.235239
0.206934
0.0941446
0.140827
-0.252631
0.111844
0.126243
-0.135031
0.279195
0.00199175
0.603129
-0.32645
-0.276885
0.0415163
-0.042798
0.00128189
0.388382
-0.620524
0.231123
0.475984
-0.240943
-0.091858
-0.0699078
0.161769
-0.191374
0.141927
0.0136846
-0.330552
0.16902
0.161571
0.0378324
0.0282987
0.0510548
0.0250402
-0.0760948
-0.122653
0.0402322
0.0824219
0.0255467
0.378131
-0.540137
0.161896
-0.192108
-0.138402
-0.108318
0.486363
-0.19869
-0.185614
-0.0795046
-0.063774
0.182005
0.259044
0.0945066
0.217417
0.159674
-0.247812
0.138316
0.109525
-0.0171426
0.00911841
-0.12819
-0.138321
0.266569
0.340957
-0.113682
-0.227312
0.0248607
0.00250095
0.289789
0.165917
0.00961014
-0.5319
0.242168
0.218253
-0.262538
0.324578
-0.249711
-0.0748499
-0.00532018
0.00736409
-0.00204391
0.0756698
-0.572822
-0.0276537
0.00593496
-0.00486068
0.0480983
0.501269
0.14702
-0.316505
0.0996091
-0.204939
0.10535
0.557271
0.587144
-0.281862
-0.305706
0.265164
-0.43893
0.173829
-0.0809402
0.0549733
0.0259671
0.078191
-0.178092
0.211522
0.149893
-0.103068
0.0381093
0.0885997
0.103279
-0.0202355
-0.0939488
-0.176776
0.00705102
-0.0108657
0.193578
-0.21194
-0.321849
-0.00595373
-0.0151655
0.0211192
0.0745296
-0.1465
0.0719729
-0.0849241
-0.201827
-0.150916
0.265138
0.18382
-0.448952
-0.00945022
-0.00310589
0.0154082
-0.00646838
-0.00893972
-0.0914464
0.115072
0.000256516
-0.0264706
-0.165085
0.521239
-0.307123
0.148428
-0.393649
0.205053
-0.0148394
0.00282442
-0.223744
0.094184
-0.1599
0.178474
-0.0185761
-0.242648
0.0705682
0.400084
-0.191732
-0.208397
-0.136615
0.377256
0.203137
-0.581081
0.487489
-0.29438
0.12621
0.0157729
0.462789
-0.269534
0.00526016
0.434509
0.129585
-0.300912
-0.386634
0.260303
0.188808
0.0167679
-0.00358337
0.000321236
0.00382585
0.236202
-0.145061
-0.00153023
0.0123649
-0.0108347
-0.31126
0.546972
-0.235947
0.0284604
0.125821
0.139541
0.163486
-0.0755238
0.0818718
0.370453
-0.0697797
-0.427376
0.0369556
0.0162806
-0.0532159
0.0775872
-0.148095
0.0817758
0.0663265
-0.558067
0.0454446
0.120552
0.0956182
0.000514406
-0.00178527
-0.000739901
0.00252506
-0.314118
0.127979
-0.148461
0.0806706
0.067791
-0.0026625
-0.0255172
-0.145497
-0.114533
0.26004
0.133016
-0.0858235
-0.082978
0.161261
-0.240627
-0.157744
0.398287
-0.09473
-0.147894
0.14859
0.107756
-0.532082
0.220441
-0.0764546
-0.219842
0.338477
0.108536
0.244598
0.441116
-0.253699
-0.187298
-0.235475
-0.0342902
0.26973
-0.18751
-0.0262532
0.0425956
0.229699
-0.0482474
-0.16079
0.309129
-0.148282
-0.106668
0.203314
-0.458448
0.255177
0.16612
0.182451
-0.348501
0.0780804
-0.181307
0.103234
0.00150123
-0.00110908
-0.000391447
-0.0742539
0.0492218
0.0942246
-0.174163
-0.0177394
-0.282882
-0.361144
0.00261116
0.00348664
-0.00609769
-0.224544
0.172898
0.0516463
0.00754473
-0.008161
0.00061627
-0.0260063
-0.107581
0.13359
-0.531962
0.268955
0.349914
0.16021
0.12611
-0.286295
-0.00145672
-0.00148772
0.00294451
0.0169759
-0.0166384
-0.0598645
0.166598
-0.0638909
0.300922
-0.455409
0.198932
0.176759
-0.375652
0.247873
0.270805
0.0153266
5.71963e-05
-0.0153838
-0.247503
0.133918
0.113613
-0.223044
0.389599
-0.161788
0.0188942
-0.0397094
0.0030675
-0.0564258
0.0533572
0.15092
-0.311655
0.0538797
-0.053804
-0.0297926
0.243137
-0.0603963
-0.182729
0.0980048
-0.243495
-0.0155227
-0.0212948
-0.133763
0.0423168
0.296502
-0.0499104
-0.246571
-0.0127522
-0.000218995
-0.0912752
0.165599
0.0310972
-0.095116
0.0640162
-0.0043997
0.00261449
0.235035
-0.169401
-0.217548
0.54198
-0.23188
0.310015
0.0610051
0.115347
-0.000348366
0.000766964
-0.000418604
0.0135108
0.12858
-0.479653
-0.107745
-0.151382
0.0599354
0.0914466
0.537507
-0.272697
-0.264747
-0.000827781
0.00502172
0.0144811
-0.00537833
-0.00910277
0.280774
-0.0212835
-0.00377474
-0.126439
-0.44215
0.154232
-0.395013
-0.165639
0.349031
-0.0111619
0.00952283
0.0016385
-0.0162677
0.0673228
-0.220407
0.0845899
-0.147193
0.433612
-0.183115
-0.0855889
0.125822
0.116876
-0.51224
0.208157
-0.0857574
-0.122394
0.203859
-0.321699
0.0781249
0.24356
-0.382343
0.159304
-0.0609206
0.0540311
0.0068898
-0.292997
0.161955
0.0838748
-0.0527804
-0.173549
-0.0509941
-0.273978
-0.263499
0.537404
0.0779521
-0.155677
0.0777274
0.251996
-0.0524483
0.229189
0.281831
-0.00350767
-0.00323872
0.0417804
0.383736
-0.17045
-0.213188
0.176149
0.265094
0.250826
0.132977
-0.0701672
0.216356
-0.146144
0.00740607
-0.010477
0.00307092
-0.0118502
-0.0690899
-0.0756617
0.144739
0.188601
-0.241057
0.257834
0.0219446
-0.00310836
-0.018836
-0.0155588
0.124383
0.365788
-0.154224
0.025115
0.0154393
-0.0405543
-0.557012
0.275811
0.28103
-0.0790869
0.149206
-0.0701161
-0.00427958
0.00393121
0.471688
-0.257441
-0.214329
0.0112441
-0.00220582
-0.000439132
-0.0705849
0.148539
-0.0139844
-0.00122436
-0.0575863
-0.00333516
0.312332
-0.413593
0.101305
-0.172601
-0.120392
-0.0389173
0.0391738
-0.00814338
0.00310162
-0.31205
0.139452
0.0100193
-0.0115495
0.209321
0.0554874
-0.395527
-0.47525
0.484804
0.158004
-0.297269
0.105919
-0.156239
0.262395
-0.10612
0.0209409
-0.0466282
0.0256871
0.0149297
0.000396934
-0.0280767
-0.0295904
0.0576673
-0.0661361
-0.203679
-0.444628
0.0778925
-0.151989
0.074102
0.00620347
0.00344939
-0.449333
0.195734
0.0193551
0.00414382
-0.0234989
0.174222
-0.132211
-0.0420065
0.262562
-0.536454
-0.127233
-0.559027
-0.302065
0.175045
-0.0647927
-0.0832961
-0.0210756
0.0204295
0.00064611
0.237695
-0.211708
-0.172436
-0.296482
0.468746
0.00485104
-0.00984261
0.00499157
-0.0163449
0.0047088
0.0116364
0.213099
-0.0828647
-0.130203
-0.2608
-0.297564
-0.190669
0.210367
-0.413014
0.202732
0.367272
-0.5825
0.214926
-0.0366916
0.0215607
-0.100084
0.0146515
0.0854332
-0.550339
0.303299
0.246674
-0.460736
0.390434
0.0701343
0.016565
0.00329566
-0.00288641
-0.00228737
0.02143
0.152797
0.155487
0.028112
-0.0313475
0.0032358
0.16601
0.144184
-0.310077
0.293005
0.221487
-0.514549
-0.332879
-0.229121
-0.321603
-0.171121
0.47201
0.477745
-0.074921
0.0275929
0.0281638
0.0827559
0.114176
-0.196927
0.168701
0.019897
0.0184112
0.0194876
0.201324
-0.107214
-0.0940839
0.00509861
0.0356393
-0.0355268
-0.00959804
0.00330023
0.00629729
-0.0803712
0.168379
-0.0879962
-0.257598
0.163662
-0.280751
-0.31107
-0.13466
0.317
-0.563794
0.246418
0.0261461
0.0800007
-0.106145
-0.218925
0.494498
-0.0591814
0.0376395
0.0215415
0.0900045
-0.0258927
0.154375
0.218673
0.254748
-0.473277
0.00763079
-0.00691349
0.0666294
0.0709013
0.00815129
-0.00282122
-0.0794015
0.446515
0.00783822
0.0214708
-0.029309
-0.249529
-0.16392
0.0750091
0.0680866
-0.143095
0.107809
0.0667
0.0159685
0.00373978
-0.019708
0.091592
-0.213017
-0.0905911
-0.0336327
-0.461239
0.200862
-0.0047198
0.058752
-0.238941
-0.236006
-0.0108776
0.00250659
0.0357614
0.0813115
0.0635357
-0.123812
0.40878
-0.196616
-0.212164
0.45931
-0.22039
-0.239166
0.0046434
0.0219513
0.00179391
-0.106957
-0.171248
-0.0410466
-0.118856
0.0847927
0.226279
-0.0930427
-0.133224
-0.00805388
0.0328411
0.0678069
-0.0493428
-0.172957
0.371903
-0.0238535
0.0506958
-0.0268246
-0.397218
-0.112375
-0.497476
0.264853
-0.00560123
-0.094483
-0.1731
-0.324428
0.156543
0.174808
-0.006601
0.0010813
0.23388
0.284831
-0.518835
-0.0870373
0.197372
0.0326484
-0.218326
-0.0685606
-0.573251
0.0522939
0.187116
-0.0786142
-0.108494
0.100207
0.215966
-0.359674
0.1436
-0.240365
0.556991
-0.00042395
0.122859
0.147966
-0.0071878
-0.00368984
-0.0137865
0.0773593
0.000668837
-0.00189132
-0.135481
-0.136725
0.327917
0.132172
-0.460068
0.439274
-0.142169
-0.105305
0.230444
-0.113156
-0.117262
0.230324
-0.114173
0.00117755
-0.00649773
-0.300691
0.181331
0.0730393
0.127621
-0.200655
-0.00389213
-0.107525
0.11142
0.0610923
-0.536342
0.391209
-0.204333
-0.186924
0.0737994
0.139333
-0.146853
0.0671687
0.0121434
-0.0118824
0.284901
0.139629
-0.424548
-0.00415276
-0.00184651
0.30646
-0.0317121
-0.00362748
0.0139298
-0.158051
0.171584
0.189271
0.214983
-0.404253
0.247579
0.172543
-0.420247
0.0982509
0.098541
-0.196783
-0.0837591
-0.0400249
-0.154604
0.269767
-0.115141
0.313933
-0.134769
-0.172252
0.128935
0.318777
-0.171771
-0.0341439
-0.0547394
0.0888834
0.000607229
0.0157702
-0.0212472
0.00547706
0.53708
-0.268318
-0.268446
0.24197
-0.108025
-0.00386457
0.0453809
0.261263
-0.0847808
0.00795275
0.461459
-0.254116
-0.207205
0.0512732
-0.0954835
-0.0707001
0.3425
-0.257443
-0.0850435
0.125215
-0.0345516
-0.0339204
0.361145
-0.169249
-0.191823
0.038437