/*--------------------------------*- C++ -*----------------------------------*\
| =========                 |                                                 |
| \\      /  F ield         | OpenFOAM: The Open Source CFD Toolbox           |
|  \\    /   O peration     | Version:  v2012                                 |
|   \\  /    A nd           | Website:  www.openfoam.com                      |
|    \\/     M anipulation  |                                                 |
\*---------------------------------------------------------------------------*/
FoamFile
{
    version     2.0;
    format      ascii;
    class       volScalarField;
    location    "350";
    object      ddt0(omega);
}
// * * * * * * * * * * * * * * * * * * * * * * * * * * * * * * * * * * * * * //

dimensions      [0 0 -2 0 0 0 0];


internalField   nonuniform List<scalar> 
10042
(
-1.43758e-05
-3.78284e-06
-5.2307e-05
-2.5098e-05
-0.257119
-2.48167e-05
-0.345867
0.647042
1.64132e-05
-2.31268e-05
-0.206642
-1.63953e-05
-3.06588e-05
-6.2462e-05
1.63287e-05
2.75126e-05
2.30519e-05
-9.08259e-06
-1.00505e-05
-0.000287227
6.30734e-05
0.0133761
-4.64288e-05
-8.00505e-05
-6.45816e-06
0.00031305
1.5593e-05
5.35792e-08
2.41421e-05
-9.89568e-06
-3.87162e-06
-0.0430532
-4.42177e-05
4.33671e-06
5.13961e-05
-8.50607e-05
0.000260129
0.000608168
-1.75056e-05
-9.08313e-06
0.00184779
-7.04203e-06
-0.59964
-4.66066e-05
-0.249054
-0.000186382
-2.80129e-05
-4.11706e-05
0.000175444
0.00146599
3.12398e-06
-3.5708e-05
-2.3211e-05
4.75986e-05
0.000261138
-1.07625e-06
2.55319e-05
-3.45464e-05
-5.04495e-06
-3.98493e-05
1.50242e-06
1.99447e-05
5.0384e-05
-4.8435e-05
1.90371e-06
-7.39549e-06
-1.70992e-05
-0.000562303
-0.475462
-1.37362e-06
4.47798e-05
-0.015925
-4.431e-05
2.1427e-05
-4.79097e-05
-0.000128116
-0.267194
-7.21872e-06
-8.1163e-06
-0.521891
0.000181798
-0.226716
-4.34385e-05
1.76275e-05
-2.54922e-05
-8.23244e-06
-4.43269e-05
-0.00917732
-5.89069e-05
-2.1782e-05
8.8022e-07
-0.198959
1.36771e-06
-2.53993e-05
-1.41088e-05
8.77623e-07
-3.80005e-06
-3.59406e-06
-4.6949e-05
2.32501e-05
6.28063e-09
0.0015438
1.7815
-3.13996e-05
8.1768e-06
-0.000927853
-4.86713e-05
-8.68417e-06
5.2227e-05
-2.01899e-05
-9.46308e-06
1.11713e-05
-3.69896e-06
-0.531023
-4.58841e-07
1.10114e-05
-9.12574e-06
-7.50452e-06
4.01742e-06
0.133788
-6.64493e-05
0.700671
-2.1346e-05
2.27681e-06
-0.000806866
-2.85533e-05
0.758541
0.000101225
-0.000659091
-2.46956e-06
-1.90924e-05
-1.06567e-05
-0.146622
-0.00316682
1.81302e-05
-0.000974952
-0.0404031
-2.51517e-05
-0.000393845
-0.0397646
-1.05213e-05
-8.13893e-06
-1.2036e-05
-0.0053456
-6.11601e-05
3.39763e-06
-0.000694997
-1.13239e-05
1.12339e-05
2.00346e-05
-2.28753e-06
-1.24435e-05
-0.48966
-0.0145848
6.36872e-05
-5.02729e-05
-1.2893e-05
2.41203e-05
-0.000941214
-0.202495
-0.307958
-0.00427232
-1.11638e-05
-2.25627e-06
-4.51958e-05
-1.23434e-05
-0.000598555
0.147745
-0.0871043
0.033852
8.18302e-06
-7.42994e-05
-0.230732
0.0199947
-0.000114329
-0.458385
-2.73956
-3.74209e-05
-0.000840676
-3.7119e-05
-1.28598e-05
0.158284
-4.61304e-05
9.20466e-05
-1.34294e-05
0.233235
-0.00565028
-3.7599e-06
-0.420781
8.45007e-05
-0.708926
-2.51076e-05
-0.476274
-0.460797
-0.00214216
0.266192
0.000180028
-3.72341e-05
-5.03774e-05
2.54145e-05
-9.05725e-05
4.5473e-06
-1.7961e-05
0.000918635
-1.76228e-05
6.87955e-06
0.867193
7.36517e-05
-2.02034e-05
-0.000105706
-0.22007
-2.96236e-07
-0.000436814
-0.00451559
-1.47392e-05
-0.00528681
-4.77104e-05
-5.27785e-05
-0.000565882
-2.16149e-05
-1.42896e-05
-5.09443e-06
-0.00240714
0.000668436
-1.62662e-05
0.000381824
-0.0559344
1.26746e-05
-0.00591279
6.52786e-05
1.55681e-05
-0.0378526
-7.49437e-05
6.09476e-05
-7.23643e-05
2.00256e-05
3.0458e-05
-3.51761e-05
7.6571e-05
0.00041669
3.90423e-07
-3.34536e-05
-3.19031e-05
-1.66616e-05
4.50874e-05
-1.7404e-05
-5.41216e-05
1.08334e-05
1.33301e-05
-5.63498e-06
4.73221e-06
1.26447e-06
-1.89163e-05
-0.142448
-0.00417257
-0.49243
-0.000115092
-9.67998e-05
4.55733e-06
-0.000342381
-0.166791
4.93469e-05
-4.51109e-05
-3.5726e-05
1.5325e-05
1.99359e-05
-0.00953614
6.8711e-05
-2.45683e-05
-0.000112105
-8.78741e-05
3.67811e-05
0.0103989
-0.000101169
-0.0112793
8.20006e-05
0.000413331
1.54302e-05
0.000122946
-5.37605e-05
-5.0057e-05
-5.56348e-05
0.0003137
-0.139427
-2.73879e-05
-3.14949e-05
0.107058
-0.000271394
-3.84794e-05
-2.29459e-05
-8.06414e-06
-0.400856
-0.000588142
-0.00616988
-4.28511e-06
-4.57151e-05
1.01832e-05
1.10993e-05
0.0314066
-1.49306e-05
3.35982e-05
-2.5913e-05
-4.00591e-05
0.00074826
-1.73727e-05
-0.00035927
-0.359295
-4.92133e-05
0.00387687
7.23635e-05
0.000190284
1.4075e-05
-0.206002
-0.00513001
-0.61826
-2.28465
-9.58751e-05
6.84738e-05
1.07673e-08
7.75415e-06
0.000377653
3.68707e-09
-8.89243e-05
-1.04523e-08
-4.97874e-05
-3.88582e-05
0.00448606
1.88751e-05
3.47478e-05
-3.19842e-05
-1.90503e-05
-1.05673
4.4595e-05
6.38696e-05
-3.08825e-05
-5.62796e-05
-0.000430922
-0.00194216
-6.79799e-05
0.999696
0.000755077
7.22751e-05
-3.13349e-05
-5.8924e-05
1.67178e-05
-1.28579e-05
0.14598
-4.85532e-05
2.86789e-06
0.000775183
-1.8451e-05
-1.50321e-05
1.93373e-05
0.00102461
-4.71974e-05
-1.89668e-05
-0.000157887
-6.13062e-05
8.69448e-06
-2.46027e-05
1.12676
-0.000733588
-8.06476e-07
-0.000357712
-7.96981e-05
-4.15869e-05
-5.94984e-05
-4.24415e-06
-0.113341
0.000199044
-1.43072e-05
-2.78123e-05
-1.14448e-09
1.93452e-05
-0.00493665
-2.79124e-05
3.46843e-05
-0.0102464
-3.01559e-05
0.854647
0.272648
1.1339e-05
-0.618573
-0.617477
-2.90906e-05
-0.00958528
5.60225e-05
0.00139225
-2.12285e-08
-3.03352e-05
0.0191592
-1.21127e-05
6.93987e-06
-0.0534751
-2.69622e-05
0.000101687
-0.000173888
0.881147
1.61988e-05
-3.00728e-05
-0.075304
-0.00364507
-0.000103339
-0.000578893
-1.07988
-7.23921e-06
-1.61308e-05
-3.74686e-06
3.46441e-05
-2.48537e-05
-3.4735e-05
0.403888
1.27943
-3.00427e-05
-0.309392
-1.28466e-05
-1.22099e-05
-0.0250376
-6.43518e-05
1.24873
-0.000857596
1.27428e-05
-5.32641e-05
-4.4045e-05
-0.000840975
1.18051e-05
-1.05257e-05
-1.39346e-05
-0.203907
-1.45722e-05
-0.928039
-8.78801e-06
-3.64963e-05
1.05371e-05
-0.05436
-2.99678e-05
3.20605e-05
-5.75569e-06
-1.92329e-05
0.312397
0.000195903
1.70259e-05
-2.46422e-05
-0.139748
2.86201e-05
0.000183966
3.21968e-05
2.06895e-05
-0.233315
-0.585471
2.8953e-05
-1.39475e-06
0.000213651
1.4729e-05
4.29171e-05
2.84516e-06
-0.133924
-4.57257e-06
-3.95111e-07
2.06567e-06
1.79375
-0.000800084
-1.72683e-05
-9.62975e-05
0.464138
0.000895272
8.26579e-06
-2.47635e-05
-0.00324661
-2.03832e-05
-1.06555e-05
-8.66178e-06
-6.9947e-06
-5.35979e-05
-2.90358e-06
-3.48012e-05
0.000672948
-5.01087e-05
-3.19897e-05
-0.250562
-4.85511e-05
-2.12119e-05
-2.71448e-05
-3.38533e-05
-6.06732e-05
3.8134e-05
-3.09378e-05
-0.291728
-3.00348e-06
-0.562142
4.32728e-05
-3.83304e-06
6.60145e-06
-0.00743089
-8.9049e-05
-1.5367e-06
2.78911e-05
3.17685e-05
8.93788e-06
-0.469159
-2.42624e-06
-5.51085e-05
-0.0873428
0.000882961
-1.95217e-05
7.01161e-06
-6.09003e-05
-1.11094e-05
5.64091e-05
-0.0558054
-0.0858802
-1.23725e-05
0.000109668
0.000509052
0.000491197
-2.73793e-05
-2.41075e-05
0.235655
0.0105616
-0.202868
-1.63381e-05
-5.4774e-05
-7.67623e-05
-5.35332e-05
-0.373872
-0.000131677
2.85004e-05
1.89481e-05
-1.49196e-05
-4.55668e-05
0.172055
0.000189979
-2.69265e-05
-0.153629
-0.0939903
0.0790677
-0.000694777
4.29659e-05
1.46444e-05
0.00174167
-0.000463598
-0.200601
0.029413
-8.52956e-06
4.83877e-06
-1.4437e-05
5.28888e-05
-2.9111e-05
-2.59108e-05
-0.271291
-6.02472e-05
7.05309e-05
6.56958e-05
1.25675e-05
0.174508
2.88379e-05
-0.000259782
-7.72204e-06
6.06157e-07
8.50504e-05
5.83512e-05
0.00147876
-0.000737192
-0.00125703
-5.8915e-05
0.00145744
-9.08164e-06
-7.12042e-06
-2.80589e-05
-5.66446e-06
8.44211e-06
-1.22847e-05
-0.000865942
-7.34968e-05
-3.32609e-05
1.89338e-06
5.42822e-06
-2.3611e-05
0.030834
2.66083e-05
3.59103e-05
0.00608185
-2.90607e-05
-0.000736114
0.00149318
-1.31529e-05
0.242965
0.000231184
3.16644e-05
-0.009623
-6.02932e-05
-2.23596e-05
-1.7713e-05
2.05349e-05
-3.2697e-09
4.61492e-05
-4.07235e-05
-0.00713747
-4.53279e-06
2.41356e-05
1.98137e-05
-5.48333e-05
0.000258162
1.413e-05
0.00018696
1.52291e-05
0.000644865
-1.03471e-05
-5.29747e-05
4.30838e-05
-6.08421e-06
-4.45161e-05
-5.22883e-05
-0.332436
-1.15348e-06
0.00383349
9.94764e-07
6.43024e-05
-1.67251e-05
0.000445161
-2.60486e-05
5.63276e-05
-2.00593e-05
-0.00807992
-2.54092e-06
-0.285879
-7.20733e-06
-1.57374e-05
4.37358e-05
-4.82906e-05
-6.95878e-05
4.0535e-05
4.27215e-06
-0.00110926
0.401876
-0.0263646
0.000142358
-0.000100801
-3.5574e-05
-2.66883e-05
-0.000231554
-1.2465e-05
-9.67707e-06
-0.00123777
-0.263767
0.00134688
-0.218678
5.87573e-05
-6.4369e-06
1.48802e-06
0.000191698
7.08785e-05
0.00136169
-0.000114918
-3.06397e-06
-0.00349458
-1.12746e-05
-1.10119e-05
0.000217922
-0.695503
-1.49358e-05
1.95412e-05
0.00175533
-2.59317e-05
-0.590093
-6.18556e-05
-6.10169e-05
7.73041e-06
-5.74271e-06
-0.180833
5.55259e-06
-0.575501
1.65899e-05
4.2497
0.423022
0.15307
0.00124398
-0.00028103
-0.00567373
3.10505e-05
-5.18203e-05
1.5993e-05
-1.17904e-05
-0.257304
-3.63309e-05
-1.61753e-05
-0.613128
-5.96351e-05
-4.69554e-05
-1.30674e-05
-7.76005e-06
-6.7647e-05
-4.84577e-05
-0.00563855
0.243508
-3.52583e-05
-5.59843e-05
-0.153616
-0.369598
-2.98161e-05
9.31627e-06
-3.72862e-08
2.92927e-05
-0.00152918
7.8418e-06
-0.0323355
2.34733e-06
-6.8277e-05
1.89412e-05
-7.93536e-06
-4.22631e-07
0.000528096
-2.6401e-05
-0.441812
1.23861e-05
-5.33539e-05
4.95571e-05
1.17432e-05
0.000926717
-0.000555417
6.06339e-05
-1.57642
-0.442621
-1.93217e-05
5.7258e-05
-0.221978
-0.258427
-1.67057e-05
-6.97807e-05
1.03722
-0.00542118
-7.78423e-06
-5.17843e-05
-2.68335e-05
5.24435e-05
-0.0121926
0.000134462
0.0014267
-1.3216e-05
-0.873421
-0.0957332
1.78954e-05
-1.3572e-05
-0.000511729
6.82604e-05
-1.83346e-05
-2.82657e-05
-0.230029
-0.247108
-0.268889
-2.92721e-05
-0.000411009
-0.000255283
-1.66158e-05
8.54004e-06
2.99432e-05
-0.00409903
-8.14236e-06
1.07503e-05
-0.000366287
-2.60301e-05
-0.000928008
2.32857e-05
7.0172e-05
-5.66965e-06
-3.53655e-05
-0.00480129
1.54183e-05
1.48926e-07
9.71744e-05
-0.000451479
-0.0434704
3.93579e-05
-0.00276697
-0.291576
-0.566499
-2.24012e-06
-0.153115
0.507651
-6.39807e-05
-2.69066e-05
-5.16065e-06
-5.58896e-06
-0.147875
4.0333e-05
-1.0934e-05
-1.63277e-05
-0.389122
1.01547e-05
-2.99211e-05
1.5639e-05
1.47386e-05
-0.000318303
-4.93077e-05
-5.40363e-05
0.000609767
-1.56069e-05
2.97194e-05
1.99433e-05
-0.0386402
-3.15568e-05
5.62656e-06
-1.07025e-05
-2.36746e-05
-0.00638909
1.94179e-05
-4.93091e-06
-7.62886e-06
0.000187959
0.0822758
-3.00248e-09
0.0368575
1.01804e-05
-0.158717
-4.54599e-05
1.48509e-05
0.000615876
-0.00259657
-0.000214097
-2.44434e-05
-0.766965
1.08593
8.10844e-06
-4.07366e-05
-0.0173994
3.3337e-05
-1.99702e-05
7.06267e-06
-9.05692e-06
-0.000420469
-6.95036e-10
-4.62986e-09
-0.000531646
-4.90574e-06
-5.04391e-05
-3.10844e-05
-9.65842e-06
-0.297881
8.54767e-05
0.0177585
3.59107e-05
0.000108615
-9.6903e-05
-0.533099
0.00013108
-0.341949
-9.92095e-07
0.000314137
-1.78491e-06
-6.76073e-06
-6.28972e-05
-0.00154506
-7.57812e-05
0.00156614
-0.33636
-1.60084e-05
2.55652
0.000350054
1.15464e-05
2.13947e-05
0.000167143
-0.397626
-5.21331e-06
-1.25772e-05
-0.000310826
3.89503e-05
-9.22088e-05
-1.72575e-05
-1.34788e-05
-1.24992e-05
-0.0643559
-9.05425e-05
-2.37772e-05
2.779e-05
-5.58349e-05
-6.53948e-05
-8.02183e-06
-8.88199e-06
4.46296e-05
9.71464e-05
-1.61105e-05
4.14916e-06
-3.28787e-05
-5.22303e-07
-0.204472
-1.18359e-05
1.44078
-8.82774e-05
-0.175503
-4.4317e-05
0.000283238
-0.102176
0.00019293
0.0207216
-0.521347
-0.000235583
-1.31814e-05
-5.84448e-05
-1.03479e-05
-0.00449009
6.33693e-07
-0.110407
-1.96553e-07
14.8453
-0.247048
0.00191651
2.28774e-05
0.143209
-0.994253
-5.26748e-06
1.78307e-05
6.82482e-05
0.000190619
-8.48906e-06
-3.73995e-06
-0.000958044
0.00637697
1.84947e-06
-6.60539e-06
-1.64081e-05
0.136156
0.00143137
-3.22081e-05
4.57681e-05
-0.00237707
-9.08208e-06
-2.03113e-05
-0.112928
-2.55445e-05
-2.8691e-05
-0.227145
-3.54451e-06
-4.16542e-05
0.0079885
-0.567471
0.311136
-4.28191e-05
-3.38217e-05
-0.00346665
6.83269e-06
2.10751e-05
2.17452e-05
0.000652662
4.74983e-05
3.18807e-05
7.57825e-05
-0.00019041
0.0148973
-3.56234e-05
-3.89262e-05
1.77115e-05
3.23445e-05
-8.38676e-06
1.19919e-05
-0.0042155
-4.72571e-05
-1.96832e-05
4.28271e-05
-4.92727e-07
2.6279e-05
1.43002e-05
-0.224137
0.000351335
-2.62866e-05
-3.63741e-05
-6.40031e-05
-0.442783
4.99866e-06
2.45166e-05
-1.0489e-05
-4.48768e-05
-1.02863
0.0015736
-8.09359e-05
1.72042e-05
0.000128512
-0.00137219
-2.41624e-05
-2.57344e-05
-2.98836e-05
4.49136e-05
0.000230724
-2.68361e-05
0.00814551
-9.14348e-05
-2.26351e-05
4.44666e-05
-0.271459
8.0667e-06
-0.00287268
-1.34024e-05
-0.0121426
-4.61864e-06
-5.25952e-05
0.000178362
0.000157472
-8.64562e-05
-2.57534e-05
5.71875e-05
5.38816e-05
-0.00982514
-0.00223453
1.08571
1.69825e-05
1.22544e-05
-3.19477e-05
-2.52519e-05
-4.69683e-05
0.0292751
-1.46681e-05
-2.97457e-05
5.25375e-06
-0.0485362
0.181923
1.78843e-05
-5.25819e-05
-0.00149301
9.64943e-06
5.11314e-05
1.74808e-05
-0.00148804
-3.10031e-05
0.000231367
0.265882
-3.28e-05
5.68223e-05
-0.291689
-5.49694e-05
-0.00221436
-3.99089e-07
6.63663e-06
-0.000194462
-5.24042e-05
-2.43101e-05
-3.65602e-05
4.46536e-05
-0.947799
-3.73137e-05
-3.39665e-05
-0.00190809
-2.19995e-05
0.0252981
-0.395939
0.000181133
-5.84853e-06
-0.0233244
-7.52745e-06
-0.0517371
7.46549e-05
-3.73162e-05
-8.24198e-06
-0.159813
-8.94903e-06
-3.31238e-05
-2.45561e-05
0.000442918
-0.250563
-2.4919e-05
-0.000574236
-3.01316e-05
-1.69099e-05
-4.23291e-06
9.54126e-06
-2.17048e-05
2.8916e-05
-1.19113e-05
-0.540807
-0.126881
-0.000113891
4.98096e-06
3.12525e-05
1.48542
-3.1753e-05
0.941758
2.38109e-06
-1.68544e-05
-9.07464e-05
1.37885e-05
9.48282e-05
1.23334e-05
5.13291e-05
-2.06897e-05
1.44437
-0.00163308
1.22953e-05
0.000163543
0.00016353
-0.000228288
-2.85372e-05
3.32884e-05
-1.86908e-05
-2.41619e-05
-3.44077e-06
0.000689006
1.26237e-05
1.00235e-05
1.73592e-05
2.32976e-05
-0.0110035
8.9024e-06
-0.0510708
-3.16599e-06
3.29967e-06
-4.75783e-05
0.00144585
-0.00043007
1.60097e-05
0.000170973
-0.00102859
-2.76844e-05
-1.33805e-05
4.25403e-05
-6.81809e-06
-0.193933
0.00147707
-5.05661e-06
-0.225517
1.37908e-05
0.000529537
-0.00230028
-6.47679e-05
0.000966282
-0.0897856
0.000661553
-0.00127533
5.30679e-05
-1.91248e-05
-2.08868e-05
-1.11864e-05
0.000169491
-3.31121e-05
-0.0410418
-4.54749e-06
-5.25063e-05
-0.000253454
-1.86006e-05
0.000156126
0.000353317
2.13876e-05
-3.12764e-06
-0.000122664
0.00176133
-6.01378e-05
0.000437832
-0.0909243
-0.000112109
1.86525e-05
0.000666813
2.11867e-05
-9.20699e-06
-0.176452
-2.99778e-05
-3.76134e-05
-0.000365899
-1.50111e-05
0.000340331
-9.95415e-06
1.5845e-05
-0.622171
1.76094e-05
-3.14207e-05
3.05021e-05
-3.30638e-05
1.96452e-06
-8.7107e-06
-0.882308
-3.44601e-05
-5.42574e-05
-3.42426e-05
-0.000738617
4.86043e-06
-1.40329e-05
1.20817e-05
0.000182414
2.71682e-06
-7.85792e-05
1.84644e-05
4.9567e-05
-6.84704e-05
-0.00417153
-0.000192236
-5.37894e-05
-4.3856e-07
-0.000331316
-0.0012756
-6.74675e-06
-2.51984e-06
-1.61345e-05
-0.576948
2.81008e-06
-5.46164e-05
3.9742e-05
-9.89353e-06
-7.47962e-05
3.67643e-06
-0.206371
-0.165292
1.85607
-1.8822e-05
4.7968e-05
-4.98563e-05
-5.57431e-05
-0.0010399
-0.000441083
-1.72599
0.000108746
-0.187792
-0.00133075
0.000950677
-0.0975509
-1.39758e-05
4.81895e-05
-1.79264e-05
-1.03026e-05
-0.314534
1.02305e-05
1.79142e-06
-3.9276e-05
-1.75355e-05
7.31348e-05
-0.333566
-0.429018
2.10644e-05
-0.0861891
0.0216719
0.000529441
-0.000287616
-0.00125677
-4.18588e-05
-0.198578
-2.60424e-05
0.078798
-0.194632
1.99253e-05
-4.27211e-05
-1.24306e-05
-9.52252e-07
0.000187921
9.4414e-06
-0.003839
-2.4376e-06
5.61625e-05
3.54628e-05
-1.15687e-06
1.01949e-05
-2.10221e-05
-3.25728e-05
-2.35989e-05
0.00915162
-0.00111348
-4.41173e-06
-0.395567
5.31243e-05
2.97781e-05
-4.76328e-06
-0.0101301
-7.23532e-06
1.11685e-05
-0.00310498
-0.00290579
7.89887e-06
6.27017e-05
0.0622454
-0.000565431
-0.197336
-3.27522e-05
-0.00156814
-0.461334
-0.324334
2.84658e-05
-5.66207e-05
0.000105989
4.10507e-06
0.00019352
-2.33666e-05
-0.349657
-0.000366907
-0.00460289
-1.85889e-05
2.97209e-05
-0.110068
0.00388613
6.4427e-07
1.8576e-05
0.0160517
-5.06465e-06
-1.8826e-05
-2.65976e-05
4.78281e-05
3.75261e-05
-9.3863e-06
-4.65857e-05
0.000156341
3.32905e-07
0.000493223
-0.711167
-0.000890848
6.03348e-07
-2.00533
-0.00160685
-1.22567e-05
-8.64387e-06
8.45249e-06
2.17482e-06
-0.00577559
-4.34928e-06
-3.25818e-05
-2.25829e-05
1.91676e-05
3.37671e-05
-3.63701e-05
-6.03917e-05
-0.000243871
0.000174924
-9.76093e-06
-0.50789
-0.371131
-2.04472e-06
-0.543329
4.68578e-05
1.79699e-05
5.98333e-05
4.65437e-05
0.304159
-0.0015489
-4.90515e-05
9.45231e-06
2.35967e-05
4.34781e-05
-8.01501e-06
-0.000616763
4.79502e-05
-2.47205e-05
-5.21548e-05
-0.164785
-0.0102945
-5.99241e-05
-3.49184e-05
0.0740331
-0.132429
-1.8274e-05
-0.592016
-0.38739
-8.38938e-06
-1.29412e-05
-1.89095e-05
-1.22817e-05
-0.126619
6.23374e-05
-1.45849e-05
-0.00516619
-0.00274344
-1.64079e-05
-1.1038e-05
-0.000525453
-2.2075e-05
-3.74717e-05
-0.00492138
-0.0013189
-0.024557
1.20768e-05
0.00129466
-0.000156752
-0.000216416
6.28507e-06
-5.6733e-05
1.36721e-05
1.55809e-05
-0.00166857
1.3594e-05
-1.09413e-05
-1.42041e-05
-0.16443
-8.11335e-05
1.73046e-05
-8.58871e-05
-0.000807726
-3.78358e-05
-7.46862e-05
-5.61648e-05
1.52046e-05
-0.0222155
-0.387666
-3.26547e-05
1.0329
-0.424724
-0.140855
-2.68188e-07
-3.8163e-05
-0.000101674
-1.4335e-05
7.26446e-05
-2.30154e-05
-0.000102701
-6.02911e-05
-2.4562e-05
-1.78515e-05
-1.97598
5.31729e-06
0.197046
0.000532963
-5.16521e-05
-2.0227e-05
-2.57229e-05
-3.23058e-05
7.56946e-05
-0.000969689
-6.65533e-05
-0.0513472
0.000234618
-0.000104895
-0.149532
-3.1263e-06
-5.095e-05
1.93275e-05
0.0033923
-0.000135325
-9.55162e-06
-7.80587e-06
2.86254e-05
1.84743e-05
-4.65377e-05
0.000346746
0.000526092
0.0350995
1.74708e-05
3.76319e-05
0.0105567
0.000203966
7.33382e-06
-0.00339247
7.28386e-06
-0.00107347
-0.00332433
-4.30444e-05
-0.172899
-2.25468e-05
-2.03094e-05
-3.08145e-05
6.78846e-06
5.07186e-05
1.38861e-05
0.000169764
0.00175457
0.485242
1.2137e-05
-0.358167
0.459083
0.000197403
0.372177
-2.63588e-05
-0.00294656
0.233708
-4.09091e-05
-0.00216141
-1.90309e-05
-0.115261
3.32053e-05
-0.00112205
5.46311e-05
0.140735
0.000964692
-0.296692
-2.61638e-05
-0.00316048
9.90068e-06
7.62772e-06
-0.0122375
-3.09536e-05
-0.178707
-0.448902
0.444219
0.130502
-0.00182687
-0.135535
-0.000141044
-6.64309e-06
-0.00126373
-0.000303844
-0.174651
-2.54432e-06
3.74843e-05
1.21708e-05
-0.000485831
-1.99183e-05
-3.50494e-05
-4.68036e-05
0.79252
-0.24047
-6.53179e-05
-0.162248
-0.00064055
-6.34673e-05
-0.000472032
2.51519e-05
-0.306507
-1.48941e-05
-2.67955e-05
-0.0403515
2.20236e-05
-3.34486e-05
-3.86407e-05
-0.00524102
-0.000876652
6.45201e-06
2.85357e-05
5.32528e-05
-2.84534e-05
-3.81135e-05
0.270868
-5.8881e-05
3.3433e-05
2.28322
0.00513425
0.000132281
1.48805e-05
-0.0953377
1.93065e-06
-3.19747e-05
-1.18514e-05
-0.00033563
8.34477e-06
0.000403102
2.19547e-06
0.701873
0.000714331
-0.000692563
-0.000105608
0.000961848
0.00139417
0.000442739
-3.9083e-05
-0.459983
-1.14334e-05
-1.26703e-05
4.11395e-05
8.09332e-05
0.000923506
-0.000797591
5.58246e-05
0.000157485
-6.63574e-06
-0.000219357
-0.000921682
-0.000166075
2.80975e-05
-4.14428e-09
2.00069e-05
-1.24611e-05
0.000226005
-1.19831e-05
8.52306e-05
-2.33195e-05
2.06659e-05
-0.283443
-2.52469e-05
0.0443625
-2.36516e-05
-1.49478e-05
-0.000229189
-2.53241e-05
0.000374897
0.00030758
-0.00382211
1.6558e-05
0.000490701
1.52292e-05
4.95561e-05
-5.82094e-05
-0.0414249
-0.442083
-2.56004e-05
2.30918e-07
2.88447e-06
-2.87995e-05
-0.00218436
-0.497497
6.40651e-06
-0.0972158
2.48122e-05
-3.02648e-05
-2.67208e-05
0.528459
1.7311e-05
-1.14845e-05
-2.00295e-05
-1.61938e-07
-5.61433e-05
-1.21536e-06
-1.23643e-05
6.49761e-05
-10.6284
-1.4025e-05
-1.137e-05
-0.000101333
-0.00126777
-9.42024e-05
0.212663
-0.000260702
-1.68847e-05
8.59382e-06
-3.60547e-05
-0.00146923
-1.80479e-05
0.000131706
7.42133e-05
8.52301e-05
9.34634e-06
-0.000281816
3.97803e-05
-0.00355135
3.2659e-05
-4.03013e-05
1.57926
0.401194
-3.84032e-05
2.0069e-05
-0.177532
-0.0036896
-0.00111636
0.00018222
0.000138709
-2.96611e-05
-0.378464
0.00111403
-1.10093e-05
-0.0473471
-0.576622
-3.13838e-05
-0.000293345
-0.000539274
-5.12286e-05
-0.316128
-4.09016e-05
0.00025711
-9.62187e-05
-2.20466e-05
1.63968e-05
-0.000398913
3.6666e-05
3.20888e-05
-2.54823e-05
-9.99351
-1.04742e-05
-1.72667e-05
-3.89266e-05
2.05202e-05
3.11994e-06
5.87733e-05
0.00021408
-0.000200626
0.000159382
4.92636e-05
0.274131
-4.19433e-05
-3.24494e-05
-3.52085e-05
-1.83287e-05
-3.69136e-05
-9.03722e-06
0.000349658
-0.00151739
-1.62909e-05
0.000195651
-0.000245131
-2.06221e-05
-2.65148e-05
-0.291127
-4.79042e-05
-1.78511e-05
-1.54613e-05
-0.000850603
2.49116e-05
1.09008e-05
2.61247e-05
-4.76224e-05
0.463504
-0.224725
-7.02808e-06
3.62328e-05
-5.27998e-05
-0.000519038
-1.23165e-05
-1.41391e-05
1.30908e-06
-0.00126451
-3.62939e-05
4.65279e-06
-4.94625e-05
-0.00354343
-0.00433858
5.0103e-05
-0.00166118
1.35904e-05
-0.358548
8.10265e-05
-1.87726e-05
-0.437666
-0.00375654
7.22583e-06
0.00406981
-0.00204185
-0.00414282
-0.000229125
-0.119674
0.000174504
0.000243222
-0.0473951
-4.11845e-05
0.00144155
0.000673698
-0.00388357
-0.475722
-9.42988e-09
-5.81283e-05
-3.27439e-05
-0.00598644
-7.35534e-05
0.286749
0.000570273
0.520212
-2.1661e-05
-0.00146608
-0.00909793
-1.95351e-05
-6.68167e-05
-0.000772284
3.66396e-06
1.78739e-05
0.000280168
-0.00091103
-0.00126274
-0.00248529
-0.00120213
0.569148
-0.0184033
-3.58031e-05
2.67743e-06
-0.568608
-0.000711494
1.79894e-05
-0.000113899
-0.363165
-7.07263e-07
0.00017333
-3.69769e-05
4.72559e-05
-5.07835e-05
-2.28413e-05
-0.00011957
-2.63765e-05
-2.3903e-05
-0.193696
0.0384773
6.54475e-05
-1.67613e-05
0.00024953
-0.0125249
-0.00045673
-5.26283e-06
-2.74784e-05
1.78144e-05
-1.18893
2.65979e-07
-5.95935e-06
-1.44141e-05
-0.195804
5.58342e-05
-5.54807e-06
0.0868522
0.0702027
-6.24224e-05
-0.00388651
-0.00181278
-0.000682049
2.76284e-06
-8.81029e-06
-0.422309
1.82317e-05
0.00030862
-2.83853e-05
0.000465758
9.24933e-06
-9.94488e-06
-2.15068e-07
-0.00125421
1.96275e-05
3.07133e-05
2.18079e-05
-3.79195e-05
6.12238e-05
-4.95694e-05
-0.00214398
0.293182
-0.232689
0.000176763
6.9866e-06
-4.61501e-05
9.15552e-05
0.133486
3.08751e-05
-0.00315221
-5.05789e-05
-8.28254e-06
6.23049e-06
-1.51081e-05
-0.486933
3.96863e-06
-0.242864
2.6368e-05
2.46242e-05
1.81344e-05
-0.338235
-4.86492e-06
-0.000148602
-0.100428
3.90947e-05
-3.19065e-05
-0.185188
-1.40597e-05
-0.0521646
3.33294e-05
0.000391102
-2.47741
5.35672e-05
-5.22487e-05
1.94619e-05
0.54898
0.000256267
6.36305e-05
0.10994
-7.19444e-06
3.18252e-05
-0.00186593
0.143736
-0.0114924
-0.464751
0.326045
-0.000907306
-2.09104e-05
0.0156027
-0.00905242
-1.75456e-06
-1.38163e-05
-1.66077e-05
0.000394838
-0.000663391
-2.68377e-05
-2.12915e-05
-6.17584e-05
-2.86562e-05
-0.183636
-8.72028e-06
0.338914
-2.77871e-05
0.000935044
0.00102736
3.07374e-05
2.38253e-05
-0.381348
-0.226473
-0.00123126
-3.21313e-05
4.20113e-05
0.00165988
3.91967e-07
0.00052196
-0.00288143
0.000216635
-2.54801e-05
0.229358
0.13592
3.74049e-05
-4.2613e-05
-1.88398e-05
1.49821e-06
4.65957e-05
0.000442522
5.34903
-3.77143e-05
1.56595e-05
0.00144426
0.671815
-3.49699e-05
-0.110557
-5.94139e-05
-0.00441402
-0.000628646
-0.670091
0.00111939
-0.000335433
-0.000299074
-5.97316e-05
5.66046e-05
-0.0101067
-4.73348e-06
-5.22546e-05
-0.00773753
4.95655e-05
-1.96167e-05
-6.67096e-06
-0.000410044
-0.0182723
-0.0217359
-0.000428304
0.000362663
-1.78645e-05
-3.78204e-05
0.374068
0.0102008
3.42111e-05
7.52633e-06
2.309e-05
0.000231375
-0.380493
-0.000198507
-0.29556
-7.52909e-06
-8.49192e-06
-0.118989
-1.78247e-05
-0.435301
-0.225011
-8.97555e-05
-1.70481e-05
0.0277127
-1.29999e-05
-0.000525666
-4.8637e-05
-0.162075
0.000266505
-0.00287758
-0.086581
0.154841
0.000406449
0.000541317
1.6442e-05
-0.00839344
0.322952
5.03926e-05
0.000129007
-0.0868846
-0.00024212
-0.00065091
-5.65262e-06
1.32168
-0.0532327
-0.00129871
-3.36758e-05
0.000259826
-5.09804e-05
-0.433039
-0.00116429
3.19692e-05
-0.167425
-0.302681
-7.11282e-05
-0.00599078
4.26588e-06
0.621301
-0.0014533
0.000404147
0.000233248
-0.112056
-9.37625e-05
0.000787801
-0.160131
-0.440907
3.71892e-05
-3.05885e-05
9.19551e-06
-0.001427
0.264682
-0.00858059
-0.405158
0.000828304
-0.000201377
-6.11912e-05
-0.354191
-0.00144258
-3.86532e-06
0.00182785
-0.014279
0.00382486
-0.0298821
0.32108
-0.603349
0.129455
-1.33447e-05
-1.15961e-05
-9.79415e-05
-6.31325e-05
0.414512
-0.0439829
-2.61376e-05
-0.306155
-1.20826e-05
6.1738e-06
-2.44714e-05
0.000154334
8.95957e-06
-0.407228
-0.000279401
-0.0162393
-1.98852e-05
-0.0336423
-0.000252546
-0.0200292
-0.0613497
3.61933e-05
0.000291616
-0.000188166
-0.000501807
1.57722e-05
-2.28856e-05
-6.19506e-05
-0.266203
-2.37765e-06
2.61021e-05
0.00349098
0.000112968
0.35064
1.66044e-05
-0.0500116
1.54987e-07
1.60607e-05
-9.90968e-06
-2.20687e-05
0.0003932
5.90401e-05
0.159263
-2.15627e-05
0.00101336
-0.657411
-4.04569e-05
-0.382282
-3.85502e-05
-0.455037
1.47807
-0.180048
-0.0010792
-8.25997e-06
-1.60656e-06
-0.612279
-6.10197e-05
0.000313313
7.13096e-06
0.000543649
-0.275022
-7.45977e-06
-3.89568e-05
-4.13325e-05
-1.67727e-05
-0.102515
-0.258807
6.351e-06
5.23148e-06
-0.42486
-0.329977
6.10668e-05
-0.112145
3.00252e-05
-0.403794
-0.335319
0.000197829
-0.005559
-0.171375
-0.00129032
-0.142452
0.000558735
-3.94525e-05
-8.09558e-05
3.42138e-06
-0.442058
-0.29103
3.18838e-05
7.23913e-06
-0.127403
6.49692e-05
-0.152476
-9.74845e-06
-2.81952e-05
3.62013e-05
0.808027
0.000326413
-2.06793e-05
-0.171325
-7.10647e-06
0.295683
-0.540375
-2.30242e-05
4.19442e-05
-0.00347066
1.1904e-05
-1.92652e-05
6.15795e-08
-0.426729
-2.16931e-05
-1.32104e-05
-4.70701e-05
-0.423827
-3.49811e-05
-0.000600994
-3.10732e-05
-0.0555943
-3.85245e-05
0.000470631
-3.05784e-05
-0.0963012
-0.25691
-2.88527e-05
0.000221027
-0.000567764
-2.04269e-05
4.62587e-05
-0.164735
-2.29964e-05
-0.00199451
2.42834e-05
-0.0482999
4.23452e-05
-0.241423
-0.501308
-0.00212135
-0.178862
-0.154889
-0.000152915
2.97334e-05
0.261055
2.54318e-05
0.293403
-3.59633e-05
-0.0843183
4.51553e-06
-7.39329e-06
-0.000274735
-2.24056e-05
-4.74033e-05
-2.39445e-05
1.61921e-05
0.0725084
-0.00158252
-0.18012
-0.185584
2.73675e-06
4.54955e-05
-0.000512679
-0.242679
-3.43314e-05
2.08188e-05
2.46895e-05
-0.192389
0.0908933
-0.0704493
-0.216896
-2.49569e-05
-3.07178e-05
1.70886e-05
-0.00043322
-0.000563586
-0.0779725
-2.60852e-05
-2.33881e-05
-0.593652
-0.0012016
-5.71023e-06
-0.000144319
0.154573
-0.00303206
-1.65656e-05
-0.000319127
-0.0386653
-0.0459982
-0.473514
-0.00672851
-3.04639e-05
-2.16051e-05
-8.96142e-06
-1.32281e-06
-4.02754e-05
-3.04462e-05
-0.000150762
0.0206101
-8.98773e-05
0.000448902
-3.42002e-05
-2.27121e-05
-6.13565e-06
2.97312e-05
-0.000515357
-3.59567e-05
-4.1144e-05
4.67082e-05
-5.89256e-05
-1.20113e-05
-3.37891e-06
5.43303e-05
-0.0179275
-1.78846e-05
-0.000917699
-0.0361431
-0.0353942
0.0980318
-0.583264
-9.33163e-05
2.17601e-06
-2.78558e-05
-0.70921
-3.5871e-05
-1.97364e-06
-5.53603e-05
-0.565512
-3.08224e-05
3.9404e-06
-0.0307359
-2.63928e-05
-1.35198e-05
-2.46167e-06
-2.6523e-05
-0.000343305
1.85657e-05
-0.000102298
6.10954e-06
-1.42668e-05
9.32017e-06
2.22548e-06
0.00023673
0.00664076
0.000338698
-0.0350198
-0.000766016
-0.000923984
-0.00035028
-0.00111261
-5.2155e-05
-0.193916
6.84929e-06
1.20509e-06
-2.67361e-05
6.6142e-05
-0.0273897
-1.4235e-06
-0.00087384
-0.133765
-1.26649e-05
-0.0382028
-0.00370065
-0.000510734
-0.00343751
-0.000718606
-2.24204e-05
-5.59338e-05
-2.27157e-05
-0.00174076
-0.000663918
-0.64879
-1.7791e-06
-0.000416102
-7.13344e-06
-0.328808
1.36984
-0.000305021
-8.34306e-07
-0.000454125
9.41406e-06
-0.00115259
2.23094e-05
-0.437024
-6.40659e-07
-5.94756e-06
1.27623e-05
-0.000766252
-0.00124717
-3.80342e-06
0.176346
-1.30374e-05
0.000802418
-0.000775692
-2.99112e-05
0.557996
-0.46089
-0.00411888
0.00138014
-0.000334187
5.83266e-06
2.05425e-05
-0.0171459
-0.00209635
-1.57972e-06
6.00367e-05
1.12243e-05
-8.94638e-05
-0.0194279
-6.83598e-06
-0.503431
-0.00604707
-0.00372671
-0.00039487
-3.50199e-05
-6.87273e-06
-1.95973e-05
-0.00492207
-0.00108665
-8.23589e-06
-0.150145
-2.56026e-05
-2.08017e-05
1.13214e-05
-0.475512
-9.94246e-05
0.496544
-1.02544e-05
-0.484933
-4.63162e-05
2.20494e-05
-7.0824e-05
-4.39902e-06
-3.71354e-05
-0.00501362
-6.75134e-05
-1.88014e-05
3.30421e-05
-0.000368882
1.86052e-08
-0.0680779
2.67996e-06
-5.76108e-05
3.79114e-05
-0.00328323
-9.50341e-05
2.32886e-06
-1.52994e-06
-0.58669
-0.204351
-0.178938
0.0781674
-0.0341742
-0.000187942
-0.000680806
-1.05082e-05
6.59732e-05
4.16786e-05
-0.337507
-0.000487134
-4.91303e-06
-4.31636e-05
-1.03054e-05
0.000296809
-0.00216488
-1.67481e-05
-3.03723e-05
-0.00348526
-0.00325815
0.00686864
-3.39836e-06
-7.11986e-06
-0.284817
0.000144301
-8.36787e-05
-0.453755
-0.176615
2.7154e-05
7.03397e-05
2.00413e-05
-2.17882e-05
-0.000133113
1.81733e-05
1.88966
5.08911e-06
-0.0680153
-6.06709e-06
0.00395672
6.26716e-05
-2.61503e-05
0.000734726
-1.98193e-05
-5.20018e-05
2.2215e-06
-1.57376e-05
-0.0353529
-6.46778e-07
-0.00534296
-1.90048e-05
-8.93611e-06
-0.00303865
-1.19816e-05
1.5212e-05
-3.9491e-05
-4.23627e-05
-1.06308e-05
-0.000106222
-5.35362e-06
1.72576
-5.50647e-05
2.4909e-05
-0.000639609
9.78484e-06
-1.92727e-05
-2.98615e-05
1.40351e-05
-0.345582
0.0330446
-2.16547e-07
5.44772e-05
-6.27266e-05
-1.34849e-06
0.00925581
1.06843e-05
1.78259e-05
-0.0930073
-1.72486e-05
-0.000284314
0.00121306
-0.000159708
-3.75275e-05
-0.00139612
-1.22825e-05
-0.0129661
-0.000429177
-5.6252e-05
-0.116227
-0.0350017
-2.98169e-05
-0.00281521
-2.34606e-05
-4.32234e-05
-0.000224397
-0.000862901
1.42923e-05
2.00602e-06
-7.54798e-06
-0.000178042
-4.93938e-05
-0.00031354
3.94393e-05
-0.000324792
0.572641
-0.000196878
0.00616926
-1.1038e-05
0.000263067
-4.92799e-05
2.13603e-05
-7.68101e-05
-3.63586e-05
-6.24514e-06
-1.58653e-05
-0.000832093
-1.31538e-05
0.00089496
-1.29005e-05
-0.523591