/*--------------------------------*- C++ -*----------------------------------*\
| =========                 |                                                 |
| \\      /  F ield         | OpenFOAM: The Open Source CFD Toolbox           |
|  \\    /   O peration     | Version:  v2012                                 |
|   \\  /    A nd           | Website:  www.openfoam.com                      |
|    \\/     M anipulation  |                                                 |
\*---------------------------------------------------------------------------*/
FoamFile
{
    version     2.0;
    format      ascii;
    class       surfaceVectorField;
    location    "400";
    object      Uf;
}
// * * * * * * * * * * * * * * * * * * * * * * * * * * * * * * * * * * * * * //

dimensions      [0 1 -1 0 0 0 0];


internalField   nonuniform List<vector> 
14470
(
(0.960362 -0.016345 7.23894e-21)
(0.958436 -0.0160905 -5.14515e-21)
(0.959844 -0.0142486 -2.80318e-21)
(-0.0902751 -0.0183387 -1.31832e-20)
(-0.102768 -0.0162549 -5.08496e-20)
(0.991414 -0.0054121 -8.28478e-21)
(0.991751 -0.00587884 -5.39368e-21)
(0.991091 -0.00617405 -1.1799e-20)
(-0.0456105 0.136293 2.65683e-20)
(-0.0391829 0.135359 5.05017e-20)
(-0.0416454 0.143723 -3.1095e-21)
(0.999959 -0.000503952 -1.20226e-21)
(0.999954 -0.000476193 -2.44851e-22)
(0.99992 -0.000641346 1.05804e-22)
(1.20838 -0.0572731 -2.03629e-20)
(1.21392 -0.0559869 -1.08503e-19)
(1.21171 -0.062407 -2.61531e-20)
(1.09614 -0.237518 0)
(1.10161 -0.227966 0)
(1.11048 -0.237255 0)
(-0.0690588 0.0397708 -7.2016e-20)
(-0.0590212 0.0422108 -3.53809e-20)
(-0.100789 0.0389383 8.69596e-20)
(1.01962 -0.0417045 1.61696e-21)
(1.02098 -0.0427029 -1.52122e-21)
(1.01914 -0.0434322 1.59598e-21)
(1.00003 -0.0019912 7.56132e-21)
(1.00002 -0.0018541 3.88409e-21)
(1.00003 -0.00186073 -3.56766e-22)
(0.999993 -0.00211867 4.16091e-21)
(1.00005 -0.00214127 -3.53908e-21)
(1.0019 -0.00968864 -1.53326e-21)
(1.0018 -0.00918277 -1.53176e-21)
(1.00155 -0.0094563 8.74858e-22)
(-0.0871646 0.140576 2.59361e-20)
(-0.103368 0.141177 -5.92237e-20)
(-0.103211 0.141837 -2.88018e-20)
(1.02009 -0.0268776 0)
(1.01963 -0.0258692 1.1493e-22)
(1.02097 -0.0260476 0)
(1.07156 -0.0126588 -2.90182e-21)
(1.07327 -0.0124136 5.84333e-21)
(1.07192 -0.0111383 -5.98126e-21)
(1.12717 -0.0828709 -3.22536e-20)
(1.13261 -0.0854246 1.93571e-20)
(1.12807 -0.0894226 -1.34949e-20)
(0.993567 -0.0081032 0)
(0.993489 -0.00863397 3.51173e-21)
(0.994011 -0.00833005 0)
(-0.0576831 -0.0340798 -4.59583e-20)
(-0.0576427 -0.0321564 -6.40783e-20)
(-0.0572571 -0.0420766 -6.00357e-20)
(1.01972 -0.00613019 -5.26763e-22)
(1.01967 -0.00565525 -1.69805e-21)
(1.02011 -0.00590834 -7.65817e-22)
(1.02544 -0.0120758 -8.55079e-22)
(1.02625 -0.0118661 -6.61409e-22)
(1.02542 -0.0113525 1.58327e-21)
(0.99999 -0.000199378 -3.00021e-21)
(0.99999 -0.000209365 5.29596e-22)
(-0.0554019 0.188785 2.33981e-20)
(-0.0518949 0.200545 6.82668e-20)
(-0.0454432 0.189839 -5.93682e-20)
(-0.0434395 0.0367818 -1.02481e-19)
(-0.0886496 0.0372321 -3.71669e-20)
(-0.0698386 0.13869 2.29403e-20)
(-0.0678996 0.13791 -1.02761e-20)
(0.914439 -0.058436 -7.89033e-21)
(0.91957 -0.0574268 -2.46582e-20)
(0.915537 -0.0527269 -4.52976e-20)
(0.999855 -0.00347756 6.55529e-21)
(0.999922 -0.00367364 6.4279e-21)
(0.999955 -0.00341268 -2.84496e-23)
(1.00003 -0.000437873 -1.0209e-21)
(1.00003 -0.000500538 -3.69038e-21)
(1.00006 -0.000616717 7.33911e-22)
(1.0194 -0.00627558 -4.61426e-22)
(1.0198 -0.00655463 -2.64522e-21)
(1.14219 -0.150559 0)
(1.14963 -0.149248 0)
(1.14721 -0.157678 -2.35816e-20)
(-0.25182 0.0113824 -6.76677e-20)
(-0.254477 0.0114305 0)
(-0.282071 0.0108564 1.04593e-19)
(1.24589 -0.0735257 2.24448e-20)
(1.23538 -0.0730081 1.4453e-20)
(1.24088 -0.0798732 1.42129e-20)
(0.996214 -0.00291959 -3.47981e-21)
(0.996054 -0.00261651 -3.53861e-21)
(0.99584 -0.00304601 -3.80139e-21)
(0.99663 -0.00844686 3.09102e-22)
(0.996362 -0.00891371 -4.00576e-21)
(0.996776 -0.00899115 1.04454e-20)
(1.00588 -0.000688249 9.27102e-23)
(1.00558 -0.000675938 1.09892e-21)
(1.00541 -0.00038617 -3.2438e-22)
(1.08183 -0.0424371 0)
(1.08048 -0.0442861 0)
(1.08292 -0.0441775 -5.11472e-21)
(1.06688 -0.0155333 1.53947e-21)
(1.06593 -0.0167475 3.63334e-21)
(1.06506 -0.0154963 1.27409e-20)
(0.913793 0.00538727 -3.97199e-20)
(0.910309 0.00724605 9.27345e-22)
(0.910623 0.00221416 3.37818e-20)
(-0.143011 0.0785708 -4.55383e-23)
(-0.138117 0.0764811 7.1071e-20)
(-0.135953 0.0701645 -1.93462e-20)
(1.07479 -0.0850044 -1.33208e-21)
(1.07134 -0.0827829 -1.33306e-21)
(1.07518 -0.0807472 -1.63081e-20)
(1.13387 -0.152849 0)
(1.13606 -0.144971 4.60675e-20)
(0.955237 0.00977335 -8.3281e-20)
(0.954765 0.00647708 1.29745e-19)
(0.798146 0.0253619 2.89735e-20)
(-0.0651195 0.0164895 -1.351e-20)
(-0.0562525 0.0275701 3.63338e-20)
(-0.0828532 0.0214131 7.57172e-20)
(1.00001 -0.000284635 5.88395e-21)
(1.00002 -0.000413922 -1.00344e-21)
(0.992021 0.000964552 9.27582e-21)
(0.991545 0.00070723 3.98733e-22)
(0.991612 0.0013121 1.08468e-20)
(0.996166 0.000851204 4.09307e-21)
(0.996463 0.000655449 -8.02568e-21)
(0.996429 0.00102707 1.76642e-21)
(-0.196875 0.0278184 -7.26787e-20)
(-0.201848 0.027167 5.1324e-20)
(-0.181123 0.0331269 1.63755e-19)
(0.999995 -0.000482405 -1.43968e-22)
(1.00001 -0.00024988 -3.85968e-21)
(1.00002 -0.000245502 3.27951e-22)
(1.03514 -0.0108632 -5.26293e-22)
(1.0348 -0.0100297 1.82898e-21)
(1.03595 -0.0103682 1.74238e-21)
(0.993683 -0.00740595 9.85569e-21)
(0.99311 -0.00776762 -4.04904e-21)
(1.08379 -0.0400668 -1.59468e-20)
(1.08072 -0.0401394 -4.54986e-21)
(1.00615 -0.000958635 -1.20683e-21)
(1.00622 -0.000641092 -1.13066e-21)
(1.09945 -0.0614476 2.36874e-23)
(1.10231 -0.0642971 1.70611e-20)
(1.10255 -0.0596928 3.74426e-20)
(1 -0.000698186 -2.69049e-21)
(0.999989 -0.000720662 -9.1445e-22)
(0.891113 -0.11541 -7.1538e-21)
(0.900519 -0.114086 -9.42889e-21)
(0.897552 -0.124082 1.97664e-21)
(-0.0527007 0.127705 0)
(-0.0556479 0.136885 -2.38473e-20)
(1.00213 -0.00879101 -1.20656e-22)
(1.00202 -0.00832012 0)
(1.00234 -0.00857978 -3.85528e-21)
(1.15418 -0.013552 -5.42628e-20)
(1.15389 -0.00880949 -2.07201e-20)
(1.14991 -0.0111553 -2.79396e-20)
(1.03443 -0.011193 -5.83391e-21)
(1.03545 -0.0115735 -1.96174e-21)
(1 -0.000258034 5.11011e-22)
(0.898115 -0.0160525 1.89854e-20)
(0.89273 -0.0144909 -9.37332e-21)
(0.897444 -0.0102858 -2.65054e-20)
(0.819102 -0.315964 3.38217e-23)
(0.836891 -0.325078 -1.35056e-20)
(0.812317 -0.345837 -5.95381e-21)
(0.993209 -0.00598689 4.4335e-21)
(0.992927 -0.00559207 0)
(0.993487 -0.00541197 5.67527e-21)
(1.09558 -0.017834 6.78129e-21)
(1.0945 -0.0205507 1.44847e-20)
(1.09265 -0.0179855 8.36734e-21)
(1.00287 -0.00129864 -7.22608e-22)
(1.00305 -0.00122154 -1.91823e-22)
(1.00308 -0.00147596 -1.84027e-21)
(1.01836 -0.0406934 -1.97477e-21)
(1.01991 -0.0401915 5.23346e-22)
(-0.216183 0.0166235 -8.78784e-20)
(-0.209785 0.0156802 7.18047e-20)
(1.053 -0.0531834 0)
(1.05073 -0.053143 -1.21559e-21)
(1.05199 -0.0555073 1.21202e-20)
(1.06781 -0.0144105 -2.6673e-20)
(1.06845 -0.0130563 -3.02122e-21)
(1.06675 -0.0130914 2.09471e-21)
(0.0157585 0.0149518 4.23183e-20)
(0.0353386 0.0218886 1.3568e-19)
(0.0457395 0.0183954 4.14701e-20)
(0.977428 -0.0106168 7.91386e-21)
(0.976173 -0.0102857 8.0919e-21)
(0.97736 -0.00942564 6.77236e-21)
(0.594434 0.0336045 -3.50042e-20)
(0.574868 0.0469565 -3.30909e-20)
(0.573293 0.0190051 -1.0649e-19)
(-0.12077 0.0423608 7.68364e-21)
(-0.0893804 0.0458074 1.92291e-19)
(-0.117878 0.0448002 4.12018e-20)
(0.429917 0.183585 -2.44298e-20)
(0.320868 0.191392 4.55865e-20)
(0.41416 0.187186 1.94243e-20)
(0.131412 0.0462314 0)
(0.0821836 0.0460012 1.29472e-19)
(0.127129 0.0520607 1.58942e-20)
(0.999997 -0.000694163 0)
(0.999989 -0.000749101 3.50534e-21)
(1.00002 -0.000940686 0)
(0.786548 -0.128517 -3.69957e-20)
(0.801101 -0.135711 -2.00111e-20)
(0.798833 -0.119839 3.34656e-20)
(0.865951 -0.00667067 9.78664e-20)
(0.698004 0.00985574 8.60469e-20)
(0.711494 0.00478834 -5.81413e-20)
(0.994145 -0.00232026 2.52601e-21)
(0.993892 -0.00273005 -5.05802e-21)
(0.994354 -0.00262989 -7.99085e-21)
(0.999968 -0.000593911 1.40177e-22)
(0.999973 -0.000602567 1.9667e-22)
(0.999986 -0.000412001 8.68345e-21)
(0.776056 -0.13475 -1.13266e-19)
(0.774788 -0.117807 -3.60584e-20)
(-0.0587649 -0.0354331 -1.22774e-20)
(-0.0577207 -0.0275718 1.41983e-20)
(1.12241 -0.0813796 0)
(1.12638 -0.077746 -3.84292e-20)
(0.974094 -0.0721744 1.20903e-21)
(0.977199 -0.0738443 -4.1191e-21)
(0.977732 -0.0702871 -6.16693e-21)
(1.06869 -0.0156401 -2.2105e-20)
(1.23133 -0.165035 -6.62028e-20)
(1.22581 -0.172749 7.72101e-20)
(1.22297 -0.162621 4.24332e-20)
(0.999962 -0.000590815 -5.01311e-21)
(0.999942 -0.00076101 -4.27885e-21)
(1.12271 0.00763926 -2.80175e-20)
(1.11975 0.00427897 1.67085e-20)
(1.11817 0.00821076 1.39967e-21)
(-0.147548 0.0809187 -9.61446e-21)
(-0.148817 0.0863879 -2.44628e-20)
(0.814909 -0.295533 -4.52156e-21)
(0.791902 -0.315415 1.37695e-20)
(-0.0692042 0.166826 3.66273e-20)
(-0.0620415 0.168982 -6.96627e-20)
(-0.0665492 0.159633 5.19197e-20)
(1.31354 -0.197324 5.95779e-20)
(1.308 -0.18627 -2.58243e-20)
(1.3268 -0.1894 1.00874e-19)
(1.32824 -0.211598 2.38398e-20)
(1.29809 -0.204132 -7.01394e-21)
(1.07537 -0.1286 -4.5956e-21)
(1.08083 -0.134582 -1.39595e-21)
(1.08196 -0.126678 -2.01005e-20)
(-0.0710021 0.00200701 -1.23811e-19)
(-0.0457997 0.0117422 2.04182e-20)
(0.99488 -0.0121918 -5.83036e-21)
(0.995027 -0.0128801 4.72169e-21)
(0.995446 -0.0122452 -1.09502e-21)
(0.137407 0.0467893 4.02203e-20)
(0.193383 0.0485623 0)
(1.1232 -0.10405 -6.66462e-20)
(1.11829 -0.106692 -1.82051e-20)
(1.11854 -0.100639 6.10931e-20)
(1.03724 -0.0714224 4.86623e-21)
(1.03989 -0.0727376 3.79131e-21)
(1.03715 -0.0745593 -9.80499e-22)
(0.999985 -0.000358509 -4.02786e-21)
(0.999958 -0.000551534 -8.93838e-22)
(-0.131536 0.123024 -1.32236e-20)
(-0.135829 0.124838 8.33054e-21)
(-0.129152 0.129447 -6.66836e-20)
(1.09677 -0.0638224 2.33406e-20)
(1.09652 -0.059443 0)
(-0.128905 0.21016 -7.30656e-22)
(-0.138206 0.203901 4.71804e-20)
(-0.126626 0.202245 6.47423e-20)
(0.992477 0.00130094 1.35595e-21)
(0.992478 0.000735214 1.40565e-21)
(0.0394889 0.0857467 2.82322e-20)
(-0.00739294 0.0833698 -5.27755e-20)
(0.016677 0.077339 7.71667e-20)
(0.550379 0.0253872 0)
(0.427325 0.0332577 0)
(0.408969 0.0381096 8.62635e-21)
(0.572666 0.160581 -3.36778e-20)
(0.459034 0.174236 -1.01475e-20)
(1.00472 -0.00761932 -1.16737e-22)
(1.00466 -0.00793709 -1.09532e-21)
(1.0044 -0.00754448 -1.11445e-21)
(0.993921 -0.00199927 4.99078e-21)
(0.994398 -0.00193492 4.67718e-21)
(0.999987 -0.000176496 -2.77841e-21)
(1.00008 -0.000976799 -6.70896e-22)
(1.0001 -0.000954467 -8.57994e-23)
(1.00012 -0.00113549 -1.3948e-21)
(-0.0584861 0.177527 -5.46336e-20)
(-0.063035 0.185283 5.21119e-20)
(0.113971 -0.113833 -1.15543e-22)
(0.0798606 -0.120866 -1.40317e-19)
(0.0826598 -0.0822846 -1.63306e-19)
(-0.254002 0.00435508 6.87426e-20)
(-0.256694 0.00466415 3.58307e-20)
(-0.28025 0.00567752 -5.46e-20)
(0.978642 -0.0107046 7.47101e-21)
(0.977699 -0.0115415 -2.13862e-21)
(0.999016 -0.00225043 7.82453e-21)
(0.998991 -0.00245376 -7.37266e-21)
(0.998847 -0.00230556 2.08499e-21)
(1.0631 -0.0062356 -1.41936e-21)
(1.06212 -0.00538742 -2.4902e-21)
(1.06377 -0.00477956 -1.03187e-20)
(0.996565 3.43599e-05 4.52929e-21)
(0.996833 -8.60966e-05 0)
(0.99661 -0.000284751 -3.0014e-22)
(-0.0598027 0.120219 -5.6526e-20)
(-0.0685032 0.121582 -1.93512e-20)
(-0.0656872 0.112774 -2.64263e-20)
(0.995861 0.00155088 -1.83902e-21)
(0.995747 0.0012626 1.69713e-21)
(0.995558 0.0015501 -6.47149e-21)
(-0.0386638 0.0909631 -4.86089e-20)
(-0.0371345 0.0978632 6.15382e-20)
(-0.0737322 0.0951377 9.25585e-20)
(1.12582 0.0104428 9.05261e-21)
(1.12737 0.00598328 2.00884e-20)
(0.363456 0.0536478 -7.79377e-20)
(0.28086 0.0448619 7.8989e-21)
(0.304171 0.0493081 -3.8865e-20)
(1.1132 -0.0457461 -1.08158e-20)
(1.11469 -0.0422314 -7.60441e-21)
(1.11106 -0.0424878 1.50306e-21)
(1.06488 -0.0182642 -1.0792e-20)
(1.06706 -0.0183917 7.36592e-21)
(0.995897 0.0018789 3.02305e-22)
(0.996155 0.0015393 -1.19915e-21)
(1.13263 -0.0982514 6.48029e-21)
(1.13864 -0.0964092 5.69169e-20)
(1.13751 -0.103408 2.01982e-20)
(-0.251588 0.0114032 -6.36444e-20)
(-0.226413 0.0126167 -1.23744e-19)
(1.13103 0.055453 -2.34752e-21)
(1.13022 0.0511561 5.80005e-20)
(1.13671 0.0547152 6.0618e-20)
(1.13462 0.0606064 -5.35706e-20)
(1.12427 0.057374 -1.82635e-20)
(1.06033 -0.0319061 1.22148e-20)
(1.0604 -0.0300117 1.16456e-20)
(1.05876 -0.0310151 1.13999e-20)
(1.00646 -0.0168066 0)
(1.00704 -0.0168491 -8.77888e-24)
(1.00654 -0.0162156 1.08411e-21)
(0.962447 -0.0161714 0)
(0.961208 -0.0179469 0)
(1.04824 -0.0490048 -3.09747e-22)
(1.04612 -0.0492008 4.29646e-21)
(1.047 -0.0471325 -8.42151e-21)
(1.07827 -0.0451427 0)
(1.07575 -0.0437646 -1.09124e-21)
(1.07559 -0.0466301 -1.42538e-20)
(1.17339 -0.231437 0)
(1.16419 -0.237866 0)
(1.17679 -0.24454 0)
(1.2402 -0.0231363 4.09018e-20)
(1.243 -0.0179074 5.88261e-21)
(1.23108 -0.0192734 0)
(1.06418 -0.00673006 8.42572e-21)
(1.06271 -0.00731882 -1.82788e-21)
(1.00001 -0.000669822 -1.00344e-21)
(0.999997 -0.000449277 0)
(1.14008 -0.0765853 2.86897e-21)
(1.14363 -0.0744395 1.68655e-20)
(1.14396 -0.079844 -9.60307e-21)
(-0.0515281 -0.0274444 8.9044e-20)
(-0.0562197 -0.0321982 1.92628e-20)
(-0.0509646 -0.0237834 7.33816e-20)
(1.07997 -0.0470258 -1.25545e-21)
(0.982108 -0.0197057 0)
(0.982394 -0.0211687 0)
(0.983382 -0.0199267 0)
(1.11568 -0.00453975 9.02644e-22)
(1.11478 -0.00119286 -2.10917e-20)
(1.11238 -0.0035988 -1.25757e-20)
(-0.189787 0.0289311 -6.74489e-20)
(-0.183482 0.0296939 5.40953e-20)
(-0.170932 0.0355356 7.56663e-21)
(1.12803 -0.435361 3.67898e-20)
(1.11221 -0.438933 -3.16399e-21)
(1.11919 -0.456387 1.40664e-19)
(0.995927 0.00217638 1.43524e-21)
(0.996215 0.00217806 -5.04138e-21)
(0.147592 0.0478641 1.0774e-19)
(0.112561 0.0422636 2.81631e-20)
(1.00597 -0.0168354 0)
(1.00646 -0.0174276 9.85166e-22)
(0.995622 0.00216395 8.01878e-21)
(0.998905 -0.0037714 2.00172e-21)
(0.999054 -0.00365945 -3.45577e-21)
(0.998944 -0.00348257 5.35372e-21)
(0.0814448 -0.0479256 -2.35184e-20)
(0.314868 -0.103418 3.31671e-21)
(0.162986 -0.0653542 1.14227e-19)
(1.03438 -0.0700044 -6.60136e-21)
(1.03692 -0.0684107 0)
(0.999812 -0.00336406 1.05091e-21)
(0.999786 -0.00356787 -1.05949e-21)
(0.984411 -0.00150241 -5.6486e-22)
(0.984655 -0.00224736 -4.5593e-22)
(0.983809 -0.00222006 1.49235e-22)
(1.32641 -0.231088 2.57033e-20)
(1.30114 -0.228921 -3.15432e-20)
(1.31472 -0.242664 0)
(1.13624 -0.0803917 2.01272e-20)
(1.13793 -0.0877459 5.45169e-20)
(0.993513 -0.0064136 -5.56992e-21)
(0.992936 -0.00665017 9.15595e-21)
(1.25122 -0.0672718 -8.62879e-20)
(1.26137 -0.0741624 -1.65306e-20)
(0.982492 -0.0111249 -1.03229e-21)
(0.983417 -0.010738 -1.60811e-20)
(0.983279 -0.0118564 -1.15021e-20)
(1.11736 0.00116756 2.82811e-20)
(1.12135 0.00026554 2.47659e-20)
(1.06201 -0.0327725 -1.43108e-20)
(1.06029 -0.0337722 -6.05599e-21)
(1.02555 -0.0126949 -1.97734e-21)
(1.02486 -0.0122702 -4.39202e-21)
(0.580486 -0.402411 -5.78787e-20)
(0.591507 -0.432435 -7.08274e-22)
(0.552792 -0.42402 0)
(1.04174 -0.0213761 7.17768e-21)
(1.04168 -0.0225263 -1.834e-21)
(1.04045 -0.0218856 -3.60511e-21)
(1.01344 -0.0249277 -2.32889e-21)
(1.03782 -0.0350793 -4.70797e-20)
(-0.134212 0.191215 5.27134e-20)
(-0.115037 0.179667 -1.22394e-20)
(-0.11563 0.17928 9.41808e-20)
(1.04385 -0.0256617 -8.75454e-21)
(1.0434 -0.027033 -3.39828e-21)
(1.04219 -0.026015 -3.68942e-21)
(1.00477 -0.00728944 1.46014e-21)
(1.00478 -0.0069652 -1.91597e-21)
(1.00447 -0.00692355 1.06049e-21)
(0.999999 -0.00169327 3.33766e-21)
(1 -0.00152742 3.3532e-21)
(0.999993 -0.00151551 -8.54731e-22)
(0.981764 -0.0187898 0)
(0.980861 -0.0198103 0)
(-0.210087 -0.00485818 -4.18532e-20)
(-0.187986 -0.00824392 -5.41514e-23)
(-0.217904 -0.00237591 6.2989e-21)
(0.583972 -0.294034 0)
(0.374586 -0.206407 0)
(0.254174 -0.157437 0)
(-0.20411 0.138564 0)
(-0.203904 0.137326 0)
(-0.199527 0.131582 -7.24731e-20)
(1.00187 -0.0103006 4.71224e-23)
(1.00222 -0.010005 3.39026e-23)
(1.20178 -0.058728 5.2817e-20)
(1.20436 -0.0527969 1.10952e-19)
(1.0035 -0.367635 2.31394e-20)
(1.01979 -0.354812 2.68115e-21)
(1.0007 -0.347887 1.04861e-20)
(0.567982 -0.512134 8.13489e-20)
(0.529535 -0.548174 8.3521e-21)
(0.528362 -0.484418 1.69068e-20)
(0.993601 -0.00318677 -2.48128e-21)
(0.993872 -0.00353287 0)
(0.993317 -0.00365388 3.75338e-21)
(1.05506 -0.0489164 5.68743e-21)
(1.05396 -0.0511419 -9.57906e-21)
(1.05269 -0.04859 -8.48e-22)
(0.09856 0.0840175 3.03964e-20)
(0.0714365 0.0931302 0)
(-0.212376 0.0221207 -1.13765e-19)
(1.12415 0.0135844 -2.83082e-20)
(1.12898 0.0132344 -1.69464e-20)
(0.995953 0.000610122 2.10736e-21)
(0.995884 0.000993128 4.431e-21)
(0.997228 0.000196259 -8.68714e-24)
(0.997416 0.000306508 -7.10489e-23)
(0.997442 4.42706e-05 4.17243e-21)
(1.00506 -0.00765104 1.08929e-21)
(0.478789 0.0541175 -1.03986e-20)
(0.44554 0.0589934 -8.10157e-20)
(-0.125735 0.039676 1.60303e-20)
(-0.147358 0.0383438 -1.00412e-19)
(0.864907 -0.396878 -8.95804e-20)
(0.99684 -0.477933 0)
(-0.105641 0.218053 -4.07187e-20)
(-0.128679 0.216746 3.70678e-21)
(1.01734 -0.0396584 6.89399e-22)
(1.01628 -0.0385273 6.29043e-22)
(1.01781 -0.0380901 -9.22871e-22)
(-0.14748 0.321153 1.40036e-19)
(-0.0644398 0.344689 5.98226e-20)
(-0.173567 0.363837 1.54962e-20)
(0.397175 -0.133819 1.09429e-20)
(0.374999 -0.148884 -1.4619e-21)
(0.405654 -0.159738 1.511e-19)
(0.908969 -0.0205808 1.15506e-20)
(0.907237 -0.0168437 -1.58106e-20)
(0.911778 -0.0170704 -2.0899e-20)
(1.03858 -0.00824367 -1.17726e-21)
(1.03793 -0.00881226 -4.58114e-21)
(1.03752 -0.0080228 -1.77676e-21)
(0.956985 -0.0529277 2.01825e-20)
(0.959215 -0.0510297 4.9635e-21)
(0.956255 -0.0497175 1.81385e-20)
(0.194399 0.111074 -5.24352e-20)
(0.160923 0.104705 5.30891e-20)
(0.186331 0.0729145 1.29205e-19)
(1.01687 -0.00613891 0)
(1.01732 -0.0062654 -2.0037e-22)
(1.01701 -0.006511 0)
(0.993157 -0.00908976 3.00522e-21)
(0.993629 -0.00918533 -7.13377e-22)
(0.999699 -0.00135911 0)
(0.999734 -0.00141242 0)
(0.999777 -0.00127972 0)
(0.974985 -0.0105075 -5.81808e-23)
(0.973632 -0.0108242 1.80183e-21)
(0.97467 -0.0118536 -1.22045e-20)
(1.0281 -0.0111677 -6.5391e-21)
(1.02856 -0.0108457 -1.8198e-21)
(1.02792 -0.0104378 -4.34552e-21)
(1.08394 -0.0359775 0)
(1.08519 -0.0383202 -1.50621e-20)
(1.08691 -0.0361575 4.25497e-21)
(1.06789 -0.0280396 -2.17496e-20)
(1.06959 -0.0290359 -7.42408e-21)
(1.06927 -0.0270965 -3.66918e-20)
(-0.079496 0.0391416 -8.23209e-21)
(-0.0733402 0.0426064 1.44914e-20)
(-0.0708541 0.0316869 -6.19918e-20)
(0.981077 -0.000624078 -5.11422e-21)
(0.980221 -0.00126355 -2.38732e-20)
(0.981251 -0.00151018 -4.12436e-21)
(1.06693 -0.0769553 0)
(1.06502 -0.074327 7.85239e-21)
(1.06353 -0.0776082 0)
(1.04418 -0.0244323 6.01555e-21)
(1.04524 -0.0253523 -1.19692e-21)
(0.965918 -0.0300504 -7.07249e-21)
(0.96631 -0.0277598 0)
(0.967977 -0.029549 0)
(0.806612 -0.534518 -6.22228e-21)
(0.768061 -0.539452 -1.19816e-21)
(0.798509 -0.5798 3.75867e-21)
(1.13531 -0.0753689 1.01204e-20)
(-0.0438742 -0.0210049 -6.106e-21)
(-0.0534494 -0.0278623 6.75439e-20)
(1.01525 -0.00604376 1.90042e-22)
(1.01507 -0.00574857 -1.86105e-22)
(1.01479 -0.00596991 6.46207e-22)
(-0.00776856 0.0111422 -9.61471e-20)
(0.00153365 0.00773407 -3.77258e-20)
(0.971234 -0.0701178 4.67396e-21)
(0.970358 -0.0737496 7.11456e-21)
(1.08118 0.00459573 -1.61538e-20)
(1.08115 0.00565664 5.46668e-21)
(1.08016 0.0050279 9.53924e-21)
(1.01942 -0.0275742 0)
(1.02071 -0.0276498 0)
(1.18334 -0.225262 -5.09144e-20)
(1.17271 -0.220347 0)
(0.999136 -0.00221409 1.07146e-20)
(0.99906 -0.00210874 -6.04876e-22)
(0.734809 -0.0559068 -4.07212e-20)
(0.744901 -0.0451036 -2.53606e-20)
(0.7261 -0.0409263 1.8212e-20)
(1.12739 -0.101076 -1.00696e-19)
(1.12741 -0.107658 -5.72703e-20)
(1.02758 -0.0114656 2.498e-21)
(1.02835 -0.011802 2.1261e-21)
(0.327769 0.450357 -3.09613e-20)
(0.376074 0.432105 6.17248e-20)
(0.370566 0.48501 8.05281e-20)
(-0.212698 0.163426 1.17972e-20)
(-0.210759 0.166927 -1.62763e-21)
(-0.212428 0.168459 4.37926e-20)
(1.07145 -0.131647 2.71399e-20)
(1.07149 -0.125412 2.6489e-20)
(0.994482 -0.0149176 2.99346e-21)
(0.994291 -0.014128 8.14183e-21)
(0.993743 -0.0149064 2.06885e-21)
(1.12513 -0.0385197 9.63736e-21)
(1.12346 -0.0415315 -1.70322e-20)
(1.12794 -0.0418878 5.346e-21)
(-0.185142 0.184803 -1.56746e-20)
(-0.194736 0.184888 4.90715e-20)
(-0.198463 0.192103 1.05844e-19)
(0.749809 -0.0822157 -2.35144e-20)
(0.741304 -0.0688339 3.9629e-20)
(0.758905 -0.0728388 6.06135e-20)
(0.737618 -0.0910984 -1.48659e-20)
(0.754436 -0.0937487 -5.31733e-20)
(-0.0855597 0.0768808 2.08078e-20)
(-0.0941365 0.0792936 1.15744e-21)
(-0.0889717 0.0866335 -6.58549e-20)
(1.13432 0.0360306 -1.99781e-20)
(1.12998 0.0383182 -6.57132e-21)
(1.13339 0.0410355 2.68975e-20)
(1.082 0.00374054 -7.60432e-21)
(1.08078 0.00338201 2.28264e-21)
(1.09654 -0.015865 6.97974e-22)
(1.09813 -0.0183869 -2.211e-20)
(0.415235 -0.115278 -4.06736e-20)
(0.384402 -0.10729 -1.46336e-19)
(1.03181 -0.00609953 -2.95723e-21)
(1.03231 -0.00566963 5.89764e-22)
(1.03151 -0.00546513 -5.39923e-21)
(-0.122049 0.249972 2.81961e-20)
(-0.230006 0.00312693 4.47648e-22)
(-0.252937 0.00409634 -1.50378e-20)
(1.01646 -0.00603338 -8.99541e-22)
(1.01677 -0.00582419 0)
(0.999791 -0.00104347 -3.99493e-21)
(0.999777 -0.000986708 6.47043e-22)
(0.999843 -0.000911632 -4.62396e-21)
(0.942299 0.0133337 1.49166e-20)
(1.08013 -0.002202 -1.25522e-19)
(0.986316 -0.0137657 -2.78255e-21)
(0.987197 -0.0143009 -2.40478e-21)
(0.986151 -0.0150787 1.34882e-20)
(1.00006 -0.00088001 6.70413e-22)
(1.00008 -0.00104447 4.36737e-21)
(1.15398 0.00419213 -3.24468e-20)
(1.15852 0.00238357 -4.51571e-21)
(1.15325 4.91782e-05 0)
(1.16308 0.000342938 -3.07819e-20)
(1.16307 -0.00448496 -2.65708e-20)
(1.16874 -0.00201478 1.72132e-20)
(1.01681 -0.0410654 5.45496e-22)
(1.05607 -0.0471824 -3.5219e-21)
(1.05704 -0.04966 1.18555e-20)
(1.06901 -0.0795072 -2.84019e-21)
(1.07018 -0.0758595 -7.36135e-21)
(0.945847 -0.172493 2.88635e-22)
(0.93757 -0.165051 -8.63253e-21)
(0.935917 -0.176233 1.42055e-20)
(1.0597 -0.0435048 1.64691e-21)
(1.05807 -0.0422834 -2.44159e-20)
(1.0599 -0.0414152 1.33505e-20)
(0.993315 -0.00285712 4.0185e-21)
(1.05479 -0.172644 9.7523e-21)
(1.05842 -0.167729 8.61217e-21)
(1.05108 -0.166631 -3.10536e-21)
(-0.0390962 0.0310099 2.78841e-20)
(-0.0300203 0.0247625 -2.17509e-20)
(-0.0382031 0.0204461 -9.16436e-21)
(1.02688 -0.0117117 2.00817e-21)
(1.02677 -0.0109523 3.46316e-21)
(-0.210091 0.151626 -1.53526e-20)
(-0.20745 0.144818 0)
(-0.208788 0.150268 6.51047e-20)
(0.999967 -0.000895026 -2.21749e-21)
(1.00001 -0.000691402 -5.65112e-21)
(1 -0.00241494 1.60995e-21)
(0.999982 -0.00225598 1.8851e-21)
(0.999946 -0.00242847 -5.84543e-21)
(1.01323 -0.00101861 8.92986e-23)
(1.01306 -0.00125774 8.45669e-22)
(1.01347 -0.00126373 4.85304e-22)
(-0.0499871 0.118262 1.58663e-20)
(0.993378 0.00266834 -1.02619e-20)
(0.992963 0.00247419 2.73359e-23)
(0.993346 0.00222258 6.57489e-21)
(1.33525 -0.222922 6.90911e-20)
(1.34008 -0.235989 -5.70651e-20)
(-0.0165094 0.0367494 4.76602e-20)
(0.00869904 0.0376476 9.8363e-20)
(-0.0148157 0.04176 3.89483e-20)
(1.00062 -0.00275905 2.8285e-21)
(1.00058 -0.00281288 4.97909e-21)
(1.00068 -0.00292239 -9.09456e-22)
(0.999267 -0.00216184 1.78335e-21)
(0.999224 -0.00232207 -2.43811e-21)
(1.31181 -0.134557 1.33248e-19)
(1.32521 -0.129248 7.36937e-20)
(1.32947 -0.138488 4.99444e-20)
(1.01264 -0.000624901 -8.52049e-22)
(1.01318 -0.00063168 8.44484e-24)
(0.999932 -0.000968829 4.05915e-21)
(0.99994 -0.00100126 -1.65005e-21)
(0.999905 -0.00114909 4.16978e-21)
(1.01435 -0.000748567 3.55484e-22)
(1.01404 -0.000774652 -3.65364e-22)
(1.01296 -0.000464359 -3.67541e-22)
(-0.0236174 0.0311238 -2.52553e-20)
(-0.0364311 0.0342107 -6.31408e-20)
(0.596131 -0.376078 -2.86441e-20)
(0.561012 -0.366354 -6.43334e-20)
(0.927394 -0.0524949 -1.68195e-21)
(0.931129 -0.0500514 6.36994e-21)
(0.931487 -0.0547808 3.63633e-21)
(0.877457 -0.520789 0)
(0.88692 -0.487518 2.76386e-21)
(0.912757 -0.510245 0)
(1.15416 -0.0179345 0)
(1.15413 -0.0225069 -3.45956e-20)
(1.14996 -0.0199777 5.34065e-20)
(-0.148458 0.201778 -6.6865e-22)
(-0.0646076 0.249377 -5.78367e-20)
(-0.0503647 0.240936 -4.95992e-20)
(-0.067559 0.228751 -1.07615e-20)
(1.04316 -0.0285031 7.43735e-21)
(1.04485 -0.0280053 2.58653e-21)
(-0.0829914 -0.117074 3.06992e-20)
(-0.0390246 -0.142734 -1.03742e-19)
(-0.132992 -0.121728 6.75029e-20)
(1.00002 -0.000661757 2.92397e-21)
(0.999995 -0.00088765 -4.04183e-21)
(1 -0.000629003 0)
(-0.159736 0.178029 -1.18235e-19)
(-0.172765 0.183809 -2.49093e-20)
(0.459269 -1.02088 -7.49565e-21)
(0.206829 -0.989391 0)
(0.453247 -1.13301 -7.57081e-21)
(-0.169187 0.105673 -2.46623e-20)
(-0.17192 0.103444 -1.22429e-19)
(-0.175376 0.110147 -3.21485e-20)
(-0.0470513 0.0852107 -6.56109e-20)
(1.13487 0.0317157 -2.82647e-20)
(1.13869 0.0345994 2.73645e-20)
(1.06032 -0.028276 0)
(1.06188 -0.0290027 4.02641e-22)
(1.118 -0.0794988 -2.11285e-21)
(1.11853 -0.0845794 -1.79958e-20)
(1.06642 -0.0294076 3.12492e-20)
(1.0662 -0.0271589 3.16302e-21)
(1.03924 -0.00767268 5.27089e-22)
(1.03977 -0.00699142 2.54904e-21)
(1.03865 -0.00683669 -3.02067e-21)
(1.04735 -0.0210098 3.86875e-21)
(1.04869 -0.0213168 8.57349e-21)
(1.04813 -0.0197537 -4.66743e-21)
(0.846042 -0.526938 -4.90789e-21)
(0.817152 -0.500748 1.13949e-21)
(0.913104 -0.0634939 1.01632e-20)
(0.909932 -0.0583487 9.19985e-21)
(0.9993 -0.00203169 -2.9864e-21)
(0.999349 -0.00210764 -5.46161e-22)
(1.00001 -0.000180805 -2.31176e-21)
(1 -8.80134e-05 -2.41874e-21)
(1 -9.53126e-05 3.52919e-22)
(1.01565 -0.00616327 3.989e-22)
(1.01535 -0.0063874 -4.23859e-22)
(1.0189 -0.000192716 1.0303e-21)
(1.01875 -0.000267763 3.38823e-22)
(1.01917 -0.000308252 2.14302e-22)
(1.027 -0.0123478 9.07718e-22)
(-0.0775175 0.214616 0)
(-0.0717852 0.217556 2.73395e-20)
(-0.071636 0.209396 0)
(1.00455 -0.00903838 -8.98594e-22)
(1.00489 -0.00908144 -9.69056e-22)
(1.00457 -0.00865396 -1.176e-21)
(1.01863 -0.025546 3.75307e-24)
(1.01774 -0.0250804 -1.14806e-22)
(1.01771 -0.0261867 -1.1654e-22)
(1.01869 -0.000261908 4.4272e-23)
(1.01861 -0.000287186 -3.68553e-22)
(1.01914 -0.000254646 -2.11251e-21)
(1.00195 -0.00899267 -1.13534e-22)
(1.00228 -0.00926946 3.77682e-21)
(-0.0244658 -0.0235713 -1.86667e-20)
(-0.023658 -0.0144886 -4.29414e-20)
(-0.0141693 -0.0243428 -1.12898e-19)
(1.13751 -0.41633 -6.42973e-21)
(1.14715 -0.436928 -4.48697e-20)
(0.683305 0.0828334 -1.15876e-19)
(0.68713 0.0676775 -2.50638e-20)
(0.667754 0.0707608 5.60644e-20)
(0.945552 -0.0128511 1.00589e-20)
(0.94396 -0.0146931 7.83475e-21)
(0.943004 -0.0115424 5.0214e-21)
(1.11926 -0.0054492 6.92829e-21)
(1.11639 -0.00758417 7.62418e-21)
(1.01664 -9.69713e-05 -8.46803e-22)
(0.705901 0.142612 1.95234e-20)
(0.844186 0.115706 2.64853e-20)
(0.747644 0.129588 2.76743e-20)
(-0.0282966 -0.0154303 -1.16509e-20)
(0.0401938 -0.0298216 -1.15144e-20)
(0.992512 0.00180171 6.80512e-21)
(0.992913 0.00156195 -6.01131e-21)
(0.0434712 0.0406525 1.24143e-19)
(0.0393953 0.0373389 -3.32237e-21)
(1.09395 -0.0230017 9.85174e-21)
(1.09303 -0.025617 -1.93694e-20)
(1.09119 -0.0230371 -1.32509e-20)
(0.991401 0.000206784 -1.05406e-20)
(0.991021 0.000472901 -1.05327e-21)
(-0.0618635 -0.0203183 1.44667e-19)
(0.668235 0.150074 -1.34005e-20)
(0.99635 -0.00319529 7.53551e-22)
(0.996535 -0.00282397 -4.59593e-21)
(1.04953 -0.178732 -1.16735e-20)
(1.0589 -0.179853 -8.02595e-22)
(0.269587 0.420288 3.20406e-20)
(0.337004 1.08415 3.85452e-20)
(0.971261 -0.0271908 3.67511e-21)
(0.972951 -0.0279319 4.86582e-25)
(0.97276 -0.0259953 3.70968e-21)
(0.825942 0.0284377 9.01773e-21)
(0.833267 0.0240425 5.88363e-20)
(0.826009 0.0196457 5.72436e-20)
(1.01948 -0.024718 1.02623e-22)
(0.966595 -0.0257256 8.47348e-21)
(0.968229 -0.0250026 -3.24227e-22)
(0.966637 -0.0236812 1.14655e-20)
(-0.103761 0.163368 2.23115e-20)
(-0.126486 0.168217 -1.89301e-20)
(-0.0840039 0.156719 4.46554e-20)
(0.890804 -0.178111 -4.15133e-20)
(0.89671 -0.168591 -1.36556e-20)
(0.883322 -0.168853 -1.43579e-20)
(0.996938 -0.00800675 -6.00449e-21)
(0.996567 -0.007915 -5.0918e-21)
(0.995398 0.000506458 0)
(0.995704 0.000377068 0)
(0.995443 0.000143617 -5.36782e-21)
(0.947343 -0.0107651 -2.86409e-21)
(0.948097 -0.013901 -5.54039e-22)
(1.07878 -0.366741 -5.10729e-20)
(1.05979 -0.365191 -1.50737e-21)
(1.07047 -0.349407 -2.17578e-20)
(0.0780785 -0.178147 5.60708e-20)
(0.110937 -0.195146 4.01831e-20)
(0.0825112 -0.223871 -1.06935e-20)
(0.991081 -0.00502507 3.82066e-21)
(0.991732 -0.00482998 4.71571e-21)
(1.00494 -0.0083007 0)
(1.00462 -0.00825352 0)
(1.03021 -0.0184126 4.27784e-21)
(1.03049 -0.0176144 7.32842e-21)
(1.03107 -0.0186121 -4.00133e-21)
(-0.232427 -0.000187461 8.5118e-20)
(-0.20566 -0.00631926 1.67999e-19)
(-0.0668184 -0.0713315 -1.02444e-19)
(-0.0802913 -0.0704358 2.65647e-21)
(-0.067654 -0.0138156 2.39302e-20)
(0.00494767 -0.0172885 4.95939e-20)
(-0.0370567 -0.0166475 -1.95743e-19)
(1.03127 -0.0065018 -5.49601e-22)
(1.03073 -0.0068284 -2.55354e-21)
(1.03049 -0.00625033 2.64077e-21)
(0.899703 -0.187268 2.74841e-21)
(0.88408 -0.189575 -3.46619e-22)
(0.827234 0.0377761 -1.56759e-20)
(0.818499 0.0344565 -6.98279e-20)
(0.852009 -0.694589 1.08283e-20)
(0.804921 -0.717998 2.49172e-21)
(0.862744 -0.750944 2.43679e-20)
(1.14491 -0.0336614 0)
(1.14645 -0.0309909 2.95075e-20)
(1.14907 -0.0346291 0)
(1.03301 -0.00324091 -3.68069e-21)
(1.03341 -0.003773 1.05398e-22)
(1.03254 -0.00362359 0)
(1.03449 -0.00555774 -4.0299e-21)
(1.03396 -0.00602403 2.17754e-22)
(1.03485 -0.00622812 -2.14522e-22)
(1.0299 -0.0193161 -2.26499e-21)
(1.02924 -0.0182693 2.0896e-21)
(1.11374 -0.077718 -1.78207e-20)
(1.11738 -0.0747262 -5.70867e-23)
(0.987315 -0.0367159 3.7791e-21)
(0.988595 -0.0379865 6.93947e-23)
(0.986775 -0.0385846 1.08723e-20)
(0.0319323 0.00484538 -1.72953e-20)
(0.0104415 0.0113784 7.78388e-20)
(-0.031191 0.0133133 6.80262e-20)
(0.99823 -0.00168027 -1.34441e-21)
(0.998078 -0.00150202 -2.00871e-21)
(0.998056 -0.00177693 6.43835e-21)
(1.00865 -0.0161275 3.00118e-22)
(1.00861 -0.0167616 -1.59129e-21)
(1.00926 -0.0166924 -8.0451e-22)
(-0.145378 0.211185 3.46892e-22)
(-0.160359 0.205689 -2.51922e-20)
(-0.172199 0.207695 2.7749e-20)
(-0.0857782 0.208895 0)
(-0.0892429 0.221924 0)