/*--------------------------------*- C++ -*----------------------------------*\
| =========                 |                                                 |
| \\      /  F ield         | OpenFOAM: The Open Source CFD Toolbox           |
|  \\    /   O peration     | Version:  v2012                                 |
|   \\  /    A nd           | Website:  www.openfoam.com                      |
|    \\/     M anipulation  |                                                 |
\*---------------------------------------------------------------------------*/
FoamFile
{
    version     2.0;
    format      ascii;
    class       volScalarField;
    location    "450";
    object      k_0;
}
// * * * * * * * * * * * * * * * * * * * * * * * * * * * * * * * * * * * * * //

dimensions      [0 2 -2 0 0 0 0];


internalField   nonuniform List<scalar> 
9793
(
0.000149433
0.0162786
0.000147621
0.0277054
0.000149704
0.000196589
0.000171631
0.044291
0.000148919
0.00518657
0.000149244
0.000149178
0.000147328
0.0434668
0.000147287
0.000159403
0.000171197
0.000147559
0.032537
0.000145043
0.000146211
0.000149939
0.0274202
0.0453851
0.0446702
0.000154687
0.000148545
0.000149722
0.000145098
0.000174587
0.0166529
0.000215238
0.000147976
0.000147585
0.000147031
0.000160039
0.000156038
0.000153204
0.039021
0.000160695
0.000172355
0.0535963
0.0429482
0.000149793
0.000147706
0.000148163
0.0242442
0.000149885
0.000147677
0.000147603
0.000159907
0.00014687
0.00016627
0.00014977
0.000158459
0.0296421
0.000147373
0.000184438
0.000147671
0.000149937
0.000154917
0.000168718
0.000147663
0.000167225
0.000147567
0.000148638
0.00744885
0.000153892
0.000157024
0.046531
0.00014815
0.000168727
0.0402133
0.110054
0.0565742
0.000149725
0.000161754
0.0646002
0.000147809
0.000149784
0.000162229
0.0334879
0.000170907
0.000152191
0.000157034
0.000193417
0.000149715
0.000180824
0.0394464
0.000168415
0.0306654
0.000276516
0.000318217
0.000164726
0.0425262
0.000147417
0.0588587
0.00016955
0.000154087
0.000149769
0.0364992
0.000164954
0.0714602
0.000147728
0.0581
0.0726211
0.107042
0.000147028
0.000147832
0.000149878
0.000149514
0.0290879
0.000413453
0.0133959
0.000148049
0.000148641
0.000156197
0.000148218
0.0318839
0.000148068
0.0561054
0.000182006
0.0690141
0.00016945
0.000156083
0.000148104
0.000172573
0.0203088
0.000115708
8.99999e-05
0.000153985
0.000146693
0.000149198
0.000152496
0.000158655
0.000182009
0.000470739
0.000156263
0.000149807
0.00017366
0.035352
0.000159134
0.000147928
0.000176916
0.0248885
0.000207783
0.000148106
0.0567508
0.000146702
0.000148067
0.000148343
0.0424003
0.0001534
0.000148498
0.000147733
0.000242875
0.000172161
0.000147636
0.000255396
0.000147796
0.000179455
0.000154192
0.000146245
0.000183851
0.000149403
0.0403795
0.0651758
0.000150053
0.00014703
0.000149396
0.000148007
0.0111588
0.0253195
0.0479882
0.000147291
0.000195082
0.00017378
0.000199268
0.000147732
0.000153895
0.0615299
0.0206288
0.000183836
0.000148116
0.000148367
0.000146989
0.0732241
0.0371866
0.0134222
0.0763595
0.000148305
0.0165266
0.000191002
0.000153646
0.000148145
0.000151238
0.000312853
0.000145216
0.000147554
0.000149298
0.000148258
0.000146502
0.000161204
0.00015657
0.0341333
0.000147858
0.000158346
0.000150105
0.000149305
0.000189982
0.000172895
0.0364767
0.000145408
0.0437202
0.000152223
0.000175492
0.000147352
0.00018192
0.000148702
0.000162324
0.000170437
0.000146485
0.000253963
0.0528085
0.000164027
0.000147401
0.000173072
0.0577488
0.000162525
0.000162681
0.0350217
0.000197008
0.0001739
0.000167841
0.000186813
0.000146746
0.0299774
0.0156682
0.00014522
0.000149432
0.048064
0.000147676
0.0001495
0.000189211
0.000191215
0.000148577
0.00015402
0.000159253
0.000160705
0.000154399
0.000147764
0.000164328
0.027439
0.00014637
0.0494946
0.000149722
0.000149052
0.000145712
0.0302941
0.00014777
0.000696837
0.0466917
0.000148572
0.000148772
0.00157839
0.000148269
0.000149558
0.000148085
0.0445987
0.000180434
0.000153206
0.000190254
0.000182539
0.0671609
0.0254796
0.000150103
0.0211885
0.000149738
0.0587247
0.00064709
0.0409736
0.0557589
0.000197057
0.000154156
0.000169564
0.000155835
0.000148425
0.000150658
0.000190579
0.000154831
0.000148833
0.000149881
0.0001454
0.000146948
0.000146366
0.0289237
0.000146981
0.000147152
0.000148993
0.000147331
0.0222463
0.000210137
0.000164684
0.00015048
0.000176841
0.000150115
0.0795264
0.0367068
0.000147747
0.0491965
0.000165579
0.000147688
0.0103056
0.0960543
0.000148023
0.000164735
0.000773264
0.00014874
0.000158343
0.00014717
0.000149028
0.062909
0.000161276
0.000147633
0.000148034
0.000150258
0.000177475
0.000411275
0.000147638
0.000146991
0.000147452
0.00937282
0.0279721
0.0370085
0.000146541
0.000161883
0.00015861
0.0002673
0.000177852
0.000146916
0.000147318
0.000147441
0.000169175
0.00014846
0.049525
0.000148471
0.000146549
0.0698766
0.0295561
0.0416189
0.000147668
0.0363018
0.000153235
0.000410651
0.0494656
0.0344299
0.0001518
0.000161411
0.000763627
0.0312055
0.0294412
0.000154543
0.000149732
0.000153598
0.000147486
0.000146875
0.000148363
0.00014842
0.000149941
0.054582
0.000149317
0.00017215
0.000160463
0.06531
0.000146915
0.000152376
0.0206814
0.000196766
0.0475769
0.000177278
0.000146542
0.000151946
0.00014763
0.000204525
0.000144866
0.0416961
0.000174528
0.00017138
0.032369
0.0639514
0.000148816
0.000147359
0.00217225
0.000199522
0.00014784
0.043962
0.000148772
0.000149092
0.000513843
0.000145394
0.000184269
0.000146745
0.0648696
0.000148509
0.000149478
0.0675987
0.000168151
0.000179425
0.000153722
0.000148367
0.000147117
0.0655221
0.000169022
0.000145817
0.00014923
0.000159057
0.00015868
0.000179397
0.0214498
0.000149236
0.000147572
0.000187589
0.000148413
0.029009
0.000198452
0.000148312
0.000148004
0.000150468
0.000148665
0.000147389
0.0371528
0.000162632
0.00333197
0.000156273
0.000153755
0.000169276
0.000152929
0.0325832
0.000154377
0.000149764
0.000153984
0.000203383
0.000147996
0.000147823
0.000148165
0.000144889
0.0001478
0.000147215
0.000148173
0.000148962
0.00015045
0.000155719
0.000189081
0.000149812
0.000263715
0.000153933
0.000178322
0.0246769
0.000148413
0.0744666
0.000171568
0.00014815
0.000144903
0.000147963
0.065896
0.000182466
0.000144876
0.000148698
0.000149248
0.000164896
0.000174754
0.0685585
0.00014766
0.000147743
0.000157476
0.0211169
0.0401117
0.000151727
0.000153098
0.0511269
0.0378557
0.000275212
0.000148858
0.000146623
0.0350532
0.000147475
0.000173842
0.0690931
0.000145685
0.000178352
0.000157186
0.034782
0.000147091
0.0333152
0.000200942
0.000158598
0.000937615
0.000147442
0.000257593
0.000148518
0.000147312
0.000149439
0.000147628
0.0523186
0.000147403
0.00014746
0.000150411
0.000146548
0.000146641
0.00016433
0.000150333
0.00016645
0.000148076
0.000148106
0.0233583
0.000166091
0.000151644
0.0493656
0.000154972
0.000148882
0.000147791
0.000147411
0.0448803
0.000147454
0.000148317
0.0175527
0.0469169
0.000160988
0.000147374
0.000149883
0.000149207
0.000149567
0.0485267
0.000148891
0.0897707
0.00015525
0.000281482
0.000149722
0.009183
0.000152723
0.000181254
0.00014752
0.000189413
0.0235723
0.000148576
0.0727871
0.000147587
0.000149404
0.000146054
0.0676676
0.0336423
0.000148
0.000158025
0.00014749
0.0512737
0.000148553
0.000164677
0.0343843
0.00015352
0.000148015
0.000161717
0.000149599
0.000149411
0.000147498
0.000187839
0.000147526
0.0545728
0.000148203
0.000148527
0.000170349
0.000166223
0.011561
0.000147021
0.0104873
0.000147328
0.000178602
0.000147701
0.000149981
0.000147447
0.000148188
0.000149767
0.000178899
0.000173818
0.0728112
0.000181228
0.000158859
0.000159002
0.000397072
0.00015304
0.0473288
0.0346493
0.00018349
0.014929
0.0514423
0.000177522
0.000149456
0.000484411
0.000170384
0.000149585
0.000190357
0.000149642
0.000190344
0.00016007
0.000198509
0.000155358
0.0308341
0.0354735
0.000168828
0.000199101
0.000149384
0.000204754
0.000150524
0.000147523
0.000148401
0.000154608
0.000168057
0.0357195
0.000181892
0.0331655
0.000152415
0.000151394
0.0348427
0.000185248
0.000152445
0.000175565
0.000149372
0.000471636
0.0707137
0.00014827
0.000164733
0.000179775
0.0344797
0.000147531
0.000154031
0.0667691
0.000160674
0.0748488
0.000189132
0.0653288
0.000154041
0.000153242
0.000148001
0.000147715
0.0013135
0.000149885
0.00456365
0.000185503
0.000170355
0.000149706
0.000149443
0.000154474
0.000150122
0.000146718
0.000147689
0.00017957
0.0693131
0.044511
0.00014985
0.000191462
0.000147532
0.0320884
0.000172951
0.000161846
0.00015847
0.00019994
0.000146149
0.000148283
0.00016111
0.000147496
0.000149002
0.00017419
0.0364845
0.000146509
0.000884642
0.0413461
0.000154625
0.0598976
0.0421711
0.000147349
0.000171074
0.000160248
0.000148256
0.000145917
0.000168803
0.0416401
0.0403118
0.000148067
0.000147996
0.000146146
0.000157096
0.000150361
0.000151933
0.00019835
0.000173006
0.000148917
0.0181652
0.000161244
0.000158268
0.000148844
0.00592222
0.000153876
0.000147262
0.000170794
0.000319722
0.000146048
0.000148214
0.000147649
0.000157848
0.00014612
0.000169006
0.000347877
0.000148794
0.000188125
0.000151913
0.000148621
0.0173225
0.0328336
0.00118057
0.00014838
0.000146314
0.0884656
0.000153986
0.0552879
0.000145786
0.000147614
0.015774
0.084098
0.000159724
0.000186255
0.00016459
0.000147381
0.000149793
0.000148033
0.0388873
0.000148233
0.000149947
0.0319965
0.000155228
0.000198389
0.000157894
0.000147433
0.0324211
0.000149766
0.000147644
0.00014798
0.000157352
0.0250088
0.000148992
0.000147737
0.000147495
0.000147399
0.000147478
0.000148099
0.0195038
0.000157848
0.00015025
0.000148621
0.000157871
0.000172865
0.000159397
0.000155836
0.000149883
0.000146084
0.000151405
0.0312361
0.0636693
0.000153458
0.0379106
0.000149379
0.000153592
0.000236002
0.000322045
0.000147271
0.000149127
0.000187453
0.000173172
0.000147188
0.000149623
0.0548452
0.000149767
0.000171902
0.000147973
0.000200603
0.000149615
0.000152858
0.000148743
0.000159522
0.000149914
0.000152754
0.000154299
0.000174932
0.000146948
0.000147867
0.000149633
0.000147276
0.000149369
0.000149074
0.000160737
0.000148633
0.000174785
0.0499484
0.000167965
0.000174569
0.000149283
0.000147507
0.0144283
0.0982741
0.000145807
0.0573091
0.017072
0.000146376
0.000147719
0.000147141
0.00017415
0.000175553
0.000318991
0.000146906
0.000154059
0.000146895
0.000149148
0.000152504
0.00017064
0.000149301
0.000193461
0.000148505
0.000164967
0.000147141
0.000150836
0.000147699
0.000171978
0.000164327
0.0201112
0.102294
0.0561372
0.000171611
0.000147639
0.000303685
0.000425715
0.000177939
0.000148972
0.000148446
0.000297372
0.000147103
0.0257744
0.000146923
0.00016242
0.00014967
0.000149778
0.0001473
0.0630947
0.0405944
0.0264769
0.000165848
0.0188446
0.000147657
0.06156
0.0724054
0.000149785
0.000148441
0.000146053
0.0378455
0.000145525
0.0452572
0.000157799
0.000189421
0.000149091
0.000226687
0.0216704
0.000286525
0.000156795
0.000162057
0.000148115
0.0388472
0.000145572
0.000203553
0.000197785
0.000165366
0.0727124
0.0482224
0.000153692
0.000151548
0.000147481
0.000192558
0.0456184
0.014976
0.000146141
0.000416881
0.00015882
0.000191099
0.000171251
0.0373228
0.0382016
0.000147335
0.000154244
0.000162553
0.000155217
0.000155153
0.0668688
0.000149246
0.0698155
0.00014784
0.000147138
0.000171826
0.000187604
0.0341802
0.000150661
0.0126281
0.0119711
0.000212712
0.000154807
0.00014951
0.000150636
0.000149466
0.000147755
0.000221625
0.0426689
0.000149006
0.000147733
0.000164007
0.000276552
0.00015484
0.000147675
0.000190374
0.000147613
0.000149816
0.000145719
0.000178392
0.00014808
0.000156573
0.0233241
0.000172405
0.000153078
0.000483645
0.000171158
0.000147591
0.000152781
0.000163523
0.000149724
0.000147632
0.000146854
0.0431775
0.0564848
0.000148885
0.000164635
0.000159144
0.000205762
0.000147977
0.0595451
0.000146926
0.000146194
0.000204896
0.00019796
0.000176558
0.000148299
0.000147238
0.0251667
0.0383647
0.000189935
0.000322771
0.000148569
0.000154995
0.000147997
0.0123609
0.000152386
0.0388436
0.00015015
0.000148013
0.00015434
0.000146519
0.000147004
0.000165806
0.000146506
0.062199
0.000148044
0.00014887
0.000145995
0.00015655
0.046164
0.0268025
0.000175915
0.0226697
0.000147737
0.000160116
0.000153149
0.073833
0.000148635
0.000147144
0.0798113
0.000159125
0.000157975
0.000148632
0.00018991
0.0574658
0.0445079
0.000148688
0.000158584
0.000219857
0.000164407
0.000255165
0.000184718
0.000171937
0.000147231
0.0001499
0.000178169
0.000166463
0.000147783
0.000191647
0.000146106
0.000149145
0.000149038
0.000146888
0.000147655
0.00014783
0.000210361
0.00015484
0.000151273
0.000164287
0.000146375
0.000147657
0.000162786
0.0484067
0.000167043
0.000170222
0.0565184
0.000149517
0.0570034
0.000157173
0.0140934
0.000165784
0.000149283
0.000149197
0.000152928
0.0478395
0.000285355
0.00016552
0.000174799
0.000145976
0.000147717
0.00014962
0.000149277
0.0169498
0.000155879
0.000148519
0.000190738
0.000183496
0.0743067
0.000150786
0.074728
0.000163402
0.000167922
0.000164813
0.000191734
0.000186257
0.000149012
0.0392215
0.000215518
0.000159956
0.0438034
0.000170671
0.000149683
0.000149735
0.000147667
0.00015082
0.000155014
0.0235068
0.000173309
0.000147001
0.000205297
0.000147874
0.0247145
0.000457559
0.000147579
0.0228231
0.000147925
0.000147073
0.000149379
0.0376251
0.0263052
0.000173516
0.000157301
0.000147714
0.000213181
0.000149497
0.000159385
0.000148484
0.000148769
0.000148248
0.0769415
0.000150255
0.00016077
0.000156976
0.000149354
0.000185204
0.000180401
0.00016652
0.000153762
0.000153534
0.0350503
0.0681876
0.000148931
0.000146898
0.000148934
0.000149874
0.0307641
0.0428036
0.000190059
0.000154098
0.000146581
0.0713987
0.0870761
0.000148896
0.0278822
0.000146087
0.000176636
0.0121178
0.00014627
0.025068
0.0517348
0.000179976
0.020049
0.0778703
0.000147275
0.000150031
0.000299308
0.0360196
0.000149749
0.0270598
0.000154332
0.000147633
0.000149808
0.000152621
0.000167999
0.00015498
0.000182085
0.0199402
0.000179094
0.0001585
0.000148389
0.000167564
0.000325745
0.000146791
0.000443054
0.000166446
0.000149415
0.000152958
0.000149572
0.000148871
0.000157485
0.000312563
0.000150955
0.000146493
0.0264938
0.0386807
0.000180337
0.000149717
0.000170889
0.000147659
0.000147348
0.0738126
0.014871
0.000147289
0.000144462
0.0585238
0.0238418
0.000166805
0.000149041
0.0725221
0.000151364
0.000147363
0.000155465
0.000147364
0.000145916
0.000145335
0.0723801
7.29805e-05
0.000154377
0.00025857
0.000171563
0.0376476
0.0714434
0.0433388
0.000196451
0.00014793
0.000149551
0.000150079
0.00014778
0.000166273
0.000147063
0.00016931
0.000159461
0.028178
0.000148193
0.0322545
0.00015917
0.0401228
0.000147311
0.000271832
0.000162798
0.000199602
0.000200273
0.000159758
0.00014531
0.0698525
0.000172775
0.000292754
0.000145705
0.0797911
0.000148064
0.0378633
0.00020432
0.000161096
0.000147627
0.000148475
0.0469371
0.0216482
0.000163814
0.000146724
0.0251842
0.000170752
0.000169837
0.0941339
0.000166843
0.000147805
0.095303
0.00014768
0.000165127
0.000146787
0.0227611
0.000146771
0.000154607
0.000209077
0.000488311
0.000149429
0.000172336
0.00015537
0.000166995
0.000147047
0.000189234
0.000151431
0.000165959
0.000147905
0.00014773
0.0321398
0.000160643
0.0404745
0.100922
0.020805
0.000150172
0.000146785
0.00014697
0.000155775
0.000165923
0.000161687
0.0205648
0.000152565
0.0181761
0.000161678
0.000149861
0.000147952
0.000180281
0.000214537
0.0132169
0.000147656
0.0335332
0.000146918
0.0695923
0.000261303
0.000171763
0.000147872
0.00014688
0.000166592
0.000295235
0.000153155
0.00014977
0.000154966
0.000170065
0.000152544
0.000239704
0.0325008
0.000482817
0.000148952
0.000156676
0.07182
0.000149172
0.000164323
0.000147332
0.000217562
0.000160081
0.000147667
0.000161992
0.000175232
0.00014907
0.0613267
0.000147633
0.000189138
0.000180151
0.000286257
0.000184506
0.000149024
0.000148953
0.0156935
0.000148712
0.00016129
0.00018269
0.000152523
0.000145514
0.0669455
0.000153174
0.000192136
0.000154201
0.000165158
0.000149738
0.00018905
0.000153514
0.00015419
0.0660679
0.000218425
0.000148474
0.000149803
0.000174511
0.0448921
0.000290648
0.000204328
0.000162375
0.000147695
0.000146864
0.0433405
0.000148824
0.0753655
0.000174208
0.0678952
0.000148594
0.000146115
0.000146521
0.00016772
0.000176579
0.000409598
0.0395449
0.000245916
0.000200083
0.000145154
0.000334658
0.000150823
0.000180012
0.000151847
0.000166551
0.000163889
0.000147659
0.000145114
0.000179244
0.000145667
0.000163455
0.000165013
0.028103
0.0634018
0.000170806
0.0418734
0.00014702
0.000146771
0.00014836
0.000175818
0.000164549
0.00016759
0.000177263
0.00273025
0.000160855
0.000173753
0.000147373
0.000151438
0.036412
0.000148222
0.000182114
0.000144428
0.000147319
0.0515066
0.000183221
0.000147393
0.000174841
0.000196196
0.0499484
0.0664637
0.000153949
0.000181453
0.000174377
0.00518574
0.000148414
0.0708355
0.0319889
0.000151783
0.000158806
0.00014565
0.000190946
0.000147936
0.000147799
0.0384549
0.00014898
0.000145464
0.000188496
0.000179071
0.0386405
0.0382116
0.000417089
0.0312151
0.000147157
0.000147664
0.000147414
0.000149306
0.061897
0.000148517
0.0321145
0.00015079
0.0379487
0.000152705
0.000148714
0.000145703
0.000149038
0.000157301
0.000148878
0.000145371
0.00021468
0.000146852
0.000175879
0.000149584
0.0178027
0.000152788
0.000148405
0.000149097
0.000172258
0.000147216
0.000146237
0.000148471
0.000149376
0.000156706
0.000147319
0.000151559
0.000157432
0.092665
0.0408959
0.0331533
0.0297359
0.000146429
0.000147865
0.00014771
0.000144146
0.000147648
0.000146236
1.75108e-05
0.000147279
0.000149647
0.000148322
0.000148166
0.000148069
0.049127
0.000155859
0.000147678
0.0382463
0.000171304
0.000145903
0.0428934
0.0196932
0.000147986
0.000194981
0.000203678
0.000148361
0.000161741
0.00015209
0.0001449
0.000155822
0.000150761
0.000172263
0.000147918
0.000149615
0.000146332
0.0073388
0.000162131
0.000161784
0.000148058
0.000149746
0.0403105
0.000154003
0.000148098
0.000152478
0.000153222
0.000149651
0.000178196
0.0283937
0.000273671
0.0363693
0.000177651
0.00016015
0.000149708
0.0136559
0.000183893
0.000150297
0.000174302
0.00014995
0.000147561
0.000149607
0.075389
0.000162708
0.000147851
0.000148159
0.0001953
0.000146188
0.000190157
0.000147991
0.00026609
0.00019816
0.0477201
0.000148411
0.000151029
0.000157605
0.000159604
0.0001491
0.000160479
0.000167191
0.0518009
0.000149917
0.000193327
0.0711959
0.000145579
0.0427335
0.00016144
0.000185605
0.000177314
0.00014764
0.000156322
0.000169051
0.000145723
0.000155003
0.000144838
0.0811651
0.000243687
0.000158369
0.000146678
0.000183456
0.000166053
0.00033887
0.000181832
0.000151486
0.000160364
0.000147665
0.000147839
0.000168772
0.000163044
0.0335026
0.00014682
0.000192241
0.000155136
0.0700714
0.000187144
0.0571263
0.000145131
0.000150578
0.000309036
0.000277124
0.000161059
0.0317241
0.000152534
0.000177656
0.000147259
0.000147297
0.0281714
0.00523951
0.000157162
0.00014851
0.000166385
0.000299236
0.000175263
0.000165194
0.000146469
0.000147956
0.000145933
0.000326169
0.0334158
0.000146846
0.000171731
0.0480583
0.000174555
0.00018587
0.0326046
0.0156048
0.0604941
0.000147006
0.000152298
0.0356599
0.000147219
0.000162557
0.000254325
0.0480737
0.000151342
0.000156907
0.0213006
0.00020795
0.00028349
0.0472585
0.0408196
0.0374477
0.000148626
0.000145604
0.000147836
0.000151247
0.00739383
0.000163246
0.000187005
0.000188723
0.000163867
0.00014824
0.00970763
0.000147007
0.000162503
0.000147325
0.000160717
0.0158699
0.0004914
0.000148335
0.00014557
0.000171788
0.0938017
0.000185323
0.043033
0.000161511
0.00014842
0.000166687
0.000144458
0.000168242
0.00015763
0.00014769
0.0964552
0.000174478
0.000216863
0.000167355
0.00014904
0.000146057
0.00156516
0.00015347
0.000145558
0.000148873
0.000149677
0.000145676
0.00856288
0.0485251
0.0326713
0.000263002
0.0360884
0.000155379
0.000147632
0.0765612
0.00015489
0.000190801
0.0781247
0.000146935
0.0476801
0.0287933
0.000170562
0.000158369
0.000210858
0.000150939
0.000292465
0.000162108
0.030112
0.000146902
0.000150474
0.000161408
0.000436579
0.000182355
0.000165269
0.0267189
0.0600427
0.000165529
0.000192674
0.000412381
0.000153371
0.000188848
0.0106009
0.000160471
0.000164604
0.06443
0.000164714
0.000160143
0.000148574
0.000166472
0.000168308
0.000167485
0.000148468
0.0741753
0.000173977
0.0308724
0.0223335
0.0315742
0.00016094
0.000266301
0.0737396
0.000146808
0.0349674
0.0965965
0.0551002
0.000156278
0.000152478
0.0375977
0.0288637
0.000145741
0.00017813
0.000146184
0.000147265
0.000466547
0.000153667
0.02978
0.0392083
0.0349289
0.0681133
0.000145295
0.000165422
0.000148232
0.000146786
0.000170337
0.000173786
0.000157533
0.000382305
0.0323489
0.000149804
0.000157344
0.000245721
0.000153203
0.000187872
0.000161954
0.0367303
0.037364
0.000218671
0.0728539
0.0164309
0.0311473
0.0380138
0.0345641
0.000166307
0.000153383
0.000171601
0.0001712
0.0469261
0.0670456
0.000148776
0.000155916
0.0366214
0.0286836
0.000156016
0.0293026
0.000147854
0.000218203
0.0725002
0.0982399
0.000147327
0.0313589
0.000260814
0.000155513
0.000159433
0.0481717
0.0449524
0.0306507
0.0393206
0.000148145
0.00545121
0.0339515
0.000160445
0.000182175
0.000169249
0.000146049
0.000156831
0.0249355
0.0463459
0.000154077
0.000149068
0.0358619
0.000167603
0.0337674
0.000171693
0.000267866
0.0388663
0.000147848
0.0642341
0.000149891
0.00016374
0.000148441
0.000148511
0.000145813
0.000162276
0.000181898
0.000144498
0.00395785
0.000183081
0.0226923
0.0471065
0.0303532
0.000147226
0.0691896
0.000270246
0.0314128
0.00015947
0.000147659
0.000903029
0.000201725
0.0451874
0.000163285
0.000151458
0.000145698
0.00133526
0.0159943
0.000158877
0.00333016
0.000157226
0.000148795
0.0363215
0.000162992
0.0121545
0.000148053
0.000164024
0.0321145
0.030523
0.0365342
0.000198416
0.0372137
0.0334511
0.0126699
0.000148199
0.0201532
0.000163235
0.00014714
0.000145363
0.000147839
0.0179742
0.0001623
0.0378566
0.0359682
0.000170022
0.000173585
0.000187583
0.0293849
0.000181271
0.0484446
0.0291291
0.000251686
0.000167958
0.000146275
0.00640455
0.000163728
0.000190575
0.036045
0.048146
0.000278836
0.000148516
0.000153392
0.000162371
0.000148261
0.000148257
0.000157276
0.0386363
0.000162869
0.000158095
0.0345243
0.00018338
0.000198398
0.00079672
0.039914
0.00020476
0.044346
0.0281726
0.0310235
0.000164702
0.00016183
0.000148629
0.000253927
0.000177047
0.000198123
0.000164475
0.000164018
0.000144098
0.000192526
0.0796389
0.00015982
0.000145058
0.000152493
0.00287762
0.00014706
0.000148058
0.000169661
0.0347021
0.000162226
0.000163189
0.000175325
0.000156945
0.000177211
0.000147427
0.000147788
0.000164468
0.000203441
0.000148992
0.000159736
0.000180404
0.077929
0.000148706
0.0706339
0.000148235
0.039612
0.0001511
0.000151288
0.000144903
0.000186939
0.000167529
0.0132071
0.052629
0.000164954
0.000148994
0.000148858
0.0638872
0.00149428
0.000148327
0.000185442
0.0355051
0.000168786
0.000166276
0.000144169
0.000150048
0.000147617
0.0370629
0.000166347
0.000148201
0.0513991
0.000149283
0.00016388
0.000206386
0.000146062
0.000168724
0.000170273
0.0430506
0.000149483
0.000154356
0.000151336
0.000168839
0.000143921
0.000147383
0.0818828
0.000195558
0.000174399
0.000149481
0.0423534
0.000149325
0.000149304
0.000147533
0.000210912
0.0510657
0.000152618
0.0719476
0.000346482
0.000169692
0.0266084
0.00666173
0.0339124
0.0251152
0.00017549
0.000179868
0.00019168
0.000167496
0.000147486
0.000156722
0.000161865
0.054338
0.000148408
0.0514021
0.000147776
0.000192302
0.000174573
0.000150486
0.000158741
0.00486068
0.0246049
0.0216757
0.0324399
0.00014661
0.000182249
0.0353429
0.000157158
0.0506887
0.000160479
0.000169415
0.0402718
0.000169148
0.0001478
0.000180178
0.000183505
0.000147727
0.0349354
0.000226975
0.000145925
0.000149557
0.0001487
0.000147918
0.0426974
0.000149226
0.000167462
0.000148023
0.000150559
0.000157697
0.000147621
0.0375675
0.000176795
0.000148691
0.000145617
0.000182023
0.000152331
0.000163345
0.0120962
0.0291273
0.000165943
0.000182559
0.000160483
0.000145242
0.000187413
0.0592012
0.000161538
0.0359147
0.0756353
0.000165949
0.000162575
0.000162167
0.000172487
0.000160293
0.0486095
0.000148646
0.000148785
0.000148336
0.0461622
0.031993
0.000159652
0.000190756
0.00014796
0.000159848
0.000190517
0.00020098
0.000147764
0.000167166
0.0409538
0.000167533
0.000147849
0.000147867
0.0291711
0.021045
0.00014764
0.000212186
0.000163754
0.000195244
0.000789928
0.000147008
0.0267834
0.000161516
0.000148005
0.0707424
0.00019435
0.000147594
0.000148997
0.000202615
0.000146822
0.000148154
0.000196011
0.000160771
0.000161638
0.0221663
0.000155041
0.000173074
0.0406557
0.000147762
0.070832
0.0388985
0.000154921
0.000179071
0.00019552
0.000148126
0.000190879
0.00014429
0.0617619
0.000258421
0.000147889
0.0470206
0.0706842
0.000147935
0.000147914
0.000198724
0.000170569
0.0318439
0.0319626
0.00014852
0.000166171
0.0254981
0.00015143
0.000173065
0.000181097
0.000158887
0.0765329
0.000199752
0.00015382
0.000195822
0.0105612
0.0001614
0.109038
0.000147254
0.000144844
0.000149762
0.000160811
0.0790809
0.000148295
0.00016669
0.00610657
0.0301093
0.000149397
0.000158263
0.000285817
0.0398747
0.000149449
0.0713579
0.000163171
0.000174258
0.000164413
0.000150924
0.000155905
0.000148058
0.000147715
0.0807965
0.000147368
0.00016259
0.000147812
0.0497586
0.000153805
0.000155425
0.000145227
0.000153158
0.000147773
0.000166395
0.0174638
0.0181692
0.00016291
0.000160842
0.000147605
0.000157422
0.000171153
0.0632696
0.033756
0.000146703
0.000242863
0.000148049
0.000365967
0.0350658
0.0234012
0.000146707
0.000171116
0.00017882
0.0482216
0.000178059
0.000147263
0.0708805
0.000183435
0.000159542
0.0717461
0.000149568
0.000148251
0.000160496
0.0683877
0.000147802
0.0757361
0.000158457
0.000302633
0.000167461
0.000153985
0.0618343
0.000156583
0.000148568
0.000201793
0.000147951
0.000332908
0.0684411
0.000197671
0.000155266
0.000173187
0.000147876
0.000177051
0.000166454
0.0627364
0.000148328
0.000146454
0.000155423
0.00015814
0.000170396
0.0492891
0.114144
0.000158997
0.000178175
0.000146901
0.114555
0.0385245
0.000179988
0.000147749
0.000149709
0.000153462
0.0733658
0.000148495
0.000157315
0.0660032
0.000182681
0.000148171
0.000179904
0.000180673
0.000147843
0.000153963
0.0001799
0.000281465
0.000169182
0.000165037
0.0440294
0.0384171
0.00367647
0.000155144
0.000148688
0.000153076
0.000152908
0.000182978
0.000172581
0.000159276
0.000180482
0.0509565
0.000152239
0.000147875
0.0271493
0.000182936
0.0319399
0.000199228
0.000154317
0.000151761
0.000151658
0.000146783
0.000147591
0.000170169
0.000145412
0.000150538
0.000149438
0.000150575
0.000151582
0.000147661
0.000159898
0.000169146
0.000149018
0.000147653
0.000148684
0.000150192
0.000149329
0.000181219
0.000148258
0.000151322
0.000252892
0.000146912
0.000151078
0.000149095
0.000158475
0.0263931
0.0560098
0.0285856
0.0637988
0.0811538
0.000200656
0.000147192
0.000170502
0.000148175
0.000448885
0.000153174
0.000156774
0.00014888
0.000172502
0.000147658
0.000161371
0.000146516
0.0667789
0.000186207
0.000148397
0.0489949
0.0752911
0.000149503
0.000189802
0.00014765
0.000145517
0.00961611
0.000149153
0.000172314
0.000189521
0.000148589
0.000145275
0.000174261
0.0351638
0.000153261
0.000152748
0.0322669
0.000147585
0.0283716
0.000170985
0.00955099
0.000145797
0.0338593
0.000147796
0.000148715
0.000202385
0.000174028
0.0337154
0.0340432
0.0162735
0.072516
0.000179875
0.000180272
0.00014816
0.000195598
0.000149161
0.00014667
0.000168139
0.000147396
0.000147812
0.000145504
0.000145233
0.000177428
0.101072
0.0335816
0.000194169
0.0465519
0.000152864
0.000156848
0.000151687
0.000150176
0.000179141
0.00014828
0.000147931
0.000146757
0.000153049
0.000150912
0.000175083
0.000186115
0.000167785
0.000148615
0.000163165
0.000163457
0.0346282
0.0257199
0.00015413
0.000167738
0.000148474
0.0450598
0.0382982
0.000147606
0.000147388
0.000153281
0.000149364
0.0152863
0.000206878
0.0330432
0.000148673
0.112241
0.000148496
0.0283753
0.000170719
0.000146569
0.000157046
0.0643085
0.000154818
0.000157092
0.000161911
0.000176417
0.0748708
0.000148175
0.000147268
0.000155829
0.000480472
0.000147417
0.032476
0.115808
0.000148045
0.000144071
0.0122446
0.000180672
0.00014776
0.000800484
0.00446099
0.0628068
0.113525
0.000159497
0.000281367
0.000148346
0.0292569
0.0780086
0.000205234
0.000180728
0.000152367
0.0271539
0.000153568
0.000147022
0.000144097
0.0107689
0.00014556
0.0307088
0.000151772
0.000148672
0.000153239
0.0356973
0.000152484
0.000150378
0.000148353
0.0716524
0.0230717
0.045593
0.0407716
0.000172049
0.000147818
0.000152268
0.00101787
0.000169566
0.000147839
0.000174349
0.00252323
0.0857779
0.000148307
0.0268259
0.0290693
0.000169772
0.000148277
0.000152532
0.000147681
0.000147135
0.000147654
0.000148098
0.000150356
0.000168493
0.000148522
0.000195387
0.000149878
0.000150042
0.0213551
0.000182079
0.000154185
0.000150289
0.0306324
0.000145624
0.000156956
0.000154825
0.0001466
0.0401273
0.000163238
0.000150195
0.000161171
0.000148006
0.000157828
0.000148706
0.000191467
0.000146747
0.000147719
0.0784664
0.00015414
0.00019919
0.00016313
0.000151751
0.0001839
0.000143918
0.00014847
0.000149918
0.0455676
0.000154003
0.000147711
0.000301106
0.000148094
0.000145525
0.00014705
0.000221323
0.000157778
0.000197859
0.000158155
0.000157011
0.00016232
0.000152418
0.000155774
0.000161944
0.0306594
0.000148967
0.000156885
0.000147191
0.00018044
0.000198271
0.000147174
0.000162714
0.0731537
0.000156571
0.000145309
0.0533104
0.000154567
0.000167293
0.0283588
0.000160361
0.000147649
0.000158325
0.000147704
0.000155887
0.000147215
0.000151252
0.000154636
0.00014762
0.000148312
0.000157477
0.000148717
0.000178697
0.000147977
0.00015172
0.000147891
0.000163439
0.0333989
0.00014847
0.000148513
0.000168122
0.000153175
0.000147938
0.000269313
0.0523089
0.0262359
0.00014849
0.000153199
0.000167352
0.000149595
0.000148728
0.00016415
0.000175744
0.000144719
0.000163068
0.00014811
0.000147198
0.000147318
0.000144764
0.000151755
0.00016665
0.000163992
0.000158222
0.0353604
0.000153321
0.000156289
0.000146818
0.0543457
0.0869502
0.0690099
0.000148385
0.000169454
0.000157311
0.000148223
0.000148693
0.000160717
0.0365222
0.0290497
0.0001489
0.00015925