/*--------------------------------*- C++ -*----------------------------------*\
| =========                 |                                                 |
| \\      /  F ield         | OpenFOAM: The Open Source CFD Toolbox           |
|  \\    /   O peration     | Version:  v2012                                 |
|   \\  /    A nd           | Website:  www.openfoam.com                      |
|    \\/     M anipulation  |                                                 |
\*---------------------------------------------------------------------------*/
FoamFile
{
    version     2.0;
    format      ascii;
    class       volScalarField;
    location    "450";
    object      omega;
}
// * * * * * * * * * * * * * * * * * * * * * * * * * * * * * * * * * * * * * //

dimensions      [0 0 -1 0 0 0 0];


internalField   nonuniform List<scalar> 
9793
(
0.0224412
17.6314
0.0219418
2.52189
0.0222596
0.191702
0.0796318
4.17856
0.0222067
15.6682
0.0221964
0.0221872
0.0219202
1.66536
0.0218118
0.0278333
0.0528163
0.0219363
1.98438
0.0215648
0.0216466
0.0222916
2.55198
4.31546
1.79797
0.0268151
0.0220996
0.022262
0.0215752
0.077118
6.74584
0.351762
0.0220134
0.0219491
0.0218713
0.0294771
0.0253591
0.0251876
1.35759
0.0312974
0.0670992
8.57266
3.22066
0.0222717
0.0219639
0.0220431
5.0402
0.0222843
0.0217818
0.0219437
0.0292377
0.021854
0.0384771
0.0222685
0.0334077
2.08685
0.0219287
0.0918776
0.0217868
0.0222914
0.0273264
0.095337
0.0219556
0.0374479
0.0219635
0.0221251
22.0988
0.0245894
0.0259922
2.58459
0.0219958
0.103685
3.85032
3.36943
3.24465
0.0222623
0.0464662
9.70664
0.0219844
0.0222704
0.0495416
1.92449
0.0511709
0.0240763
0.0260126
0.212443
0.022261
0.0718923
1.35994
0.0922878
1.74554
1.04648
1.17876
0.0412658
3.0675
0.0219114
3.59372
0.0500279
0.0250113
0.0222684
1.27577
0.036424
1.92844
0.0219688
2.66214
8.86274
3.54426
0.0218806
0.0219884
0.0222834
0.0222335
2.08127
3.23846
6.4983
0.0219713
0.0221128
0.0251971
0.0220512
1.75543
0.0220288
2.27919
0.0761168
5.01748
0.0433675
0.0254003
0.0220345
0.0597094
5.30043
0.27168
0.393572
0.0243286
0.0218091
0.0223351
0.0237156
0.0282077
0.145459
1.00136
0.0252504
0.0222736
0.060259
2.01075
0.0285189
0.0219541
0.0588478
4.92109
0.530458
0.022035
3.44962
0.0218056
0.0220291
0.0220706
16.7835
0.0245206
0.0220924
0.0219289
1.03367
0.0561276
0.0219512
0.565906
0.0219288
0.0673121
0.0244478
0.0216529
0.342718
0.0222182
9.35491
1.95966
0.0224586
0.0218816
0.0222171
0.0219716
5.60163
26.4405
1.54095
0.0219139
0.177089
0.128414
0.707794
0.0219704
0.0245378
2.94626
6.25825
0.0847961
0.0220359
0.0220734
0.0218752
5.61737
3.79072
18.2979
1.99549
0.0220406
25.1711
0.42006
0.0256207
0.0218458
0.023429
2.02082
0.0216007
0.0219348
0.0222038
0.0220196
0.0216536
0.0304996
0.0259776
1.60344
0.0219384
0.0286122
0.0224581
0.0223968
0.446801
0.0575634
2.12522
0.021638
2.32236
0.024095
0.0486038
0.0218219
0.141991
0.0221216
0.051425
0.0533501
0.0216551
1.50103
1.64343
0.0394927
0.0218986
0.0521915
1.78718
0.0505111
0.0514219
1.4571
0.147894
0.0457459
0.0382133
0.372195
0.0216348
4.57731
5.55464
0.0216062
0.0222222
8.37073
0.0219152
0.0222312
0.11463
0.126192
0.022112
0.0246032
0.0297161
0.0382615
0.0247366
0.021976
0.0440176
2.85493
0.0216512
1.56868
0.0222619
0.0221699
0.0216666
2.02434
0.0219793
1.84691
2.26119
0.0221036
0.0221312
3.0129
0.0218726
0.0222395
0.0218375
2.09285
0.26926
0.0251158
0.401378
0.0853738
1.90795
3.88603
0.0224743
13.3687
0.0222641
1.86259
9.25421
1.37274
2.37164
0.147365
0.0243801
0.0473546
0.0254679
0.0218926
0.0226111
0.43544
0.0269926
0.0221397
0.0222838
0.0216355
0.0216862
0.021653
2.36655
0.0218717
0.0217978
0.0218974
0.0219218
5.00268
0.504709
0.0660655
0.0229777
0.0589815
0.0220197
3.95238
12.7259
0.0219739
2.55405
0.0353256
0.0219588
27.4429
3.87811
0.0220211
0.0461724
14.2932
0.0221751
0.0344474
0.0217991
0.0222699
2.13497
0.0413091
0.0219581
0.0220228
0.0228419
0.158574
3.24742
0.0219456
0.0218747
0.0217919
6.1877
4.65794
7.68833
0.0216242
0.0436241
0.0353465
1.949
0.0685324
0.0216393
0.0217035
0.0217925
0.0461065
0.0220953
6.52771
0.0220887
0.0217856
1.9724
2.2586
2.0816
0.0217657
1.27219
0.0248385
4.20018
5.48383
1.53417
0.0237362
0.0323247
1.24818
1.61387
2.01034
0.0268204
0.0222633
0.0255481
0.0217441
0.0218561
0.022072
0.022082
0.022292
7.75596
0.0222063
0.0599405
0.0310157
6.211
0.0216345
0.0241697
5.49081
0.51255
1.78803
0.0665376
0.0217884
0.0238254
0.0219452
0.378577
0.0215686
2.01485
0.147219
0.0800712
5.95814
2.15533
0.0221374
0.0218975
2.25015
0.33812
0.0219369
4.72536
0.0221314
0.0221756
6.74296
0.0216363
0.0930338
0.0216441
2.05562
0.0220939
0.0222354
1.98848
0.0973975
0.0600491
0.0256422
0.0220749
0.021844
4.51441
0.0498866
0.0215922
0.0221946
0.0347868
0.0354069
0.0600331
6.0951
0.0221955
0.0219461
0.392386
0.0220814
2.46255
0.677233
0.0220653
0.0220182
0.0225604
0.0221165
0.0217781
1.28583
0.0519184
5.10341
0.0294004
0.0239031
0.0435418
0.0248857
1.62119
0.0265203
0.0222677
0.0246193
0.433216
0.0219612
0.0219331
0.0219968
0.0215715
0.0219888
0.0218153
0.0220448
0.0221576
0.0229484
0.0254259
0.113939
0.0219921
1.53389
0.0258584
0.194813
4.61822
0.0218993
2.08379
0.0778214
0.0218538
0.0215724
0.0219613
2.65996
0.0863331
0.0215686
0.0221207
0.0221971
0.0687751
0.144435
9.43732
0.0219768
0.0219297
0.0319876
5.73469
1.34848
0.0238473
0.0237439
1.60898
9.35072
0.391077
0.0222191
0.0217974
1.50197
0.0219159
0.126462
6.58067
0.0215806
0.235071
0.027478
1.28599
0.0218446
1.76478
0.256392
0.0271994
2.28728
0.021914
1.68939
0.022095
0.0218935
0.0222229
0.021951
2.77959
0.0219064
0.0217604
0.0229311
0.0216325
0.0217982
0.0460524
0.0228696
0.0365983
0.0220344
0.0220386
4.12165
0.0767212
0.0237897
1.57533
0.024912
0.0222285
0.0219836
0.0217778
9.8358
0.0217518
0.0220692
6.94728
8.64863
0.0391302
0.0219276
0.0222841
0.0222279
0.0222407
1.55403
0.0222324
2.26465
0.0249037
1.90988
0.0222619
15.5797
0.0222831
0.201894
0.0219226
0.0991922
4.18735
0.0221036
7.7492
0.02191
0.0222182
0.0216356
3.69655
1.66221
0.0219688
0.0283495
0.0217498
1.6097
0.0218666
0.0446777
1.67569
0.0254862
0.0220266
0.0458568
0.0222451
0.0222956
0.0218088
0.107315
0.0219567
1.68593
0.0220522
0.0221151
0.0420188
0.0744928
4.99142
0.0217832
14.861
0.021892
0.182272
0.0219262
0.0224084
0.0219115
0.0220501
0.0222681
0.193952
0.045908
7.66948
0.102571
0.0356751
0.0345388
5.24888
0.0240334
1.53111
3.02004
0.230499
9.7049
6.54784
0.162738
0.0223063
3.31882
0.0417297
0.0222811
0.307492
0.0222509
0.424897
0.0359836
0.221807
0.0280315
1.91608
3.42285
0.0395083
0.203973
0.0222159
0.574176
0.0229837
0.0219256
0.0220787
0.0242093
0.0463268
1.39471
0.260749
3.79771
0.0237014
0.0235411
1.27509
0.342193
0.0234342
0.061273
0.0224217
4.89174
2.05892
0.0220593
0.0661616
0.247194
3.40164
0.0219585
0.0259982
5.49926
0.0298226
6.26379
0.10259
6.07759
0.0258568
0.0241449
0.0219575
0.0219284
1.50903
0.0222842
3.35339
0.1217
0.0777202
0.0222596
0.0222237
0.0242564
0.0223111
0.0218358
0.0219173
0.094378
2.75235
1.86384
0.0222796
0.288157
0.0219522
3.48311
0.0488065
0.0471055
0.0347939
0.239035
0.0217523
0.0220615
0.0434912
0.0219154
0.0221751
0.0595622
1.33538
0.0216529
1.0087
1.4068
0.024934
1.97593
1.45367
0.0218355
0.0539839
0.0286599
0.0220303
0.0216294
0.103638
1.40021
3.68284
0.0219792
0.0220172
0.0216745
0.0257325
0.0229013
0.0239261
0.618735
0.0485757
0.0221514
7.09155
0.0305991
0.0339056
0.0221258
16.2049
0.0242007
0.0219192
0.0799233
2.12479
0.0216021
0.0220507
0.0219514
0.0265496
0.0217479
0.0401753
0.817254
0.0222086
0.106822
0.023183
0.0220662
4.92339
2.58022
1.51251
0.0220757
0.0216186
4.38293
0.0261437
4.7692
0.0215785
0.0219122
5.74811
2.12255
0.0302536
0.101487
0.0644441
0.0218955
0.0222717
0.0219756
2.72193
0.0220572
0.0222928
1.48499
0.0278454
0.251178
0.0333369
0.0219377
2.33926
0.0222679
0.0219199
0.0219635
0.0307721
3.41125
0.0221618
0.0219729
0.021914
0.0219024
0.0219441
0.0219692
11.7502
0.0318664
0.0228705
0.0221102
0.0319043
0.0599698
0.0277793
0.0289031
0.0222839
0.0216675
0.0234392
2.03037
2.48086
0.0237172
3.60807
0.0222152
0.0254025
0.905337
2.12175
0.0218047
0.0221802
0.370584
0.0521062
0.0219084
0.0222485
1.71181
0.0222681
0.0669122
0.0220134
0.6213
0.0222473
0.0223301
0.0221271
0.0311838
0.0222539
0.0246739
0.0264124
0.174247
0.0218662
0.0219993
0.0222498
0.0218884
0.0222707
0.0220848
0.0312523
0.0221115
0.0540758
1.95714
0.0430897
0.0622087
0.0222018
0.0218083
5.83527
3.32473
0.0216193
1.88088
6.45423
0.0216252
0.0219688
0.0218826
0.0907514
0.056027
2.20902
0.0218602
0.0252823
0.0218621
0.0223206
0.0223133
0.0826926
0.0222421
0.215802
0.0220937
0.0578672
0.0218963
0.0231987
0.021921
0.0427816
0.0621993
5.85046
2.41518
1.79443
0.0484909
0.0219119
2.83378
3.60136
0.0636707
0.0221379
0.0220854
2.05588
0.0218754
3.06448
0.0216551
0.0310982
0.0223421
0.0222698
0.0218107
8.02142
2.67124
2.82373
0.0741963
4.68105
0.0219555
2.24793
8.76327
0.0222705
0.0220983
0.0217327
5.7995
0.0215723
3.91274
0.0327782
0.135396
0.0223091
0.755
6.6973
1.75288
0.0296444
0.0325067
0.0220408
18.5496
0.021558
0.664164
0.206696
0.0678368
8.39551
2.68613
0.0242983
0.0235112
0.02195
0.116343
4.1862
4.93757
0.0217473
3.8545
0.0272299
0.125411
0.129952
1.35674
1.41324
0.0216987
0.0262369
0.0318549
0.0248769
0.0246155
2.6732
0.0221967
10.5039
0.0217983
0.0216726
0.0752891
0.111789
5.8026
0.0227879
19.4637
11.7491
0.54765
0.0271847
0.022233
0.0227874
0.0222269
0.0219248
0.674623
4.48244
0.0222324
0.0219271
0.0334776
1.67904
0.0260333
0.0219298
0.445621
0.0219441
0.0222748
0.0215685
0.0631388
0.0220304
0.0258072
4.27661
0.059863
0.0223373
4.14249
0.131316
0.0219401
0.0234051
0.034389
0.0222624
0.021967
0.0217627
11.8824
4.03163
0.0222368
0.0361715
0.036827
0.56805
0.0219614
2.4531
0.0218646
0.0217551
0.750939
0.260936
0.0647481
0.0220503
0.0218992
4.91027
1.30591
0.249065
2.80449
0.022103
0.0244468
0.0220169
7.2036
0.0243523
5.027
0.0227856
0.0219607
0.0242023
0.0216898
0.0218781
0.0635019
0.0217835
2.39894
0.0218384
0.0222174
0.0215907
0.0257633
1.73583
2.69071
0.0551975
4.73759
0.0219824
0.0360115
0.0237358
6.82985
0.021936
0.0216791
2.08876
0.034873
0.0331406
0.0221118
0.286133
8.27429
1.94592
0.0221591
0.0348618
0.99129
0.0334339
0.681208
0.114518
0.0776957
0.0217914
0.0226378
0.0633898
0.0747021
0.0219894
0.113731
0.0217405
0.0221828
0.0222952
0.0217756
0.0219154
0.0219908
0.813509
0.0259259
0.0231309
0.045764
0.0217542
0.0219329
0.0381843
2.25473
0.0854682
0.0599723
2.43017
0.0222339
9.05034
0.0294871
5.15745
0.0608144
0.0222018
0.022204
0.0238115
8.90349
1.7403
0.0501329
0.145885
0.021663
0.0219145
0.0222478
0.022201
6.70149
0.0260916
0.0220398
0.147989
0.317648
4.59613
0.0228971
1.97986
0.0570932
0.0411628
0.0340937
0.465178
0.21875
0.0222821
1.44037
0.351737
0.0394652
1.83414
0.046194
0.0223497
0.0222638
0.0219209
0.0232149
0.0274601
21.5365
0.0518068
0.0218727
0.285685
0.0220047
3.83163
3.37453
0.0219588
26.9959
0.0218319
0.0217717
0.0221648
1.45988
13.0697
0.0506559
0.0316492
0.0217795
0.431685
0.0222313
0.0311866
0.0220911
0.0221724
0.0219691
4.0348
0.0228578
0.0427326
0.0291696
0.0222114
0.361179
0.122413
0.0364819
0.0254643
0.0241821
1.59627
1.95091
0.0220091
0.0217736
0.0220062
0.022633
4.20389
11.8575
0.18329
0.0257397
0.0217886
7.17647
4.43086
0.022236
21.8559
0.0217153
0.0806486
12.7584
0.0217457
5.29127
7.50975
0.115649
5.44748
4.4183
0.0218543
0.0227291
2.42078
1.35597
0.0225942
4.30367
0.0251982
0.0219154
0.0222738
0.0235231
0.0409419
0.0255765
0.306141
5.58262
0.239685
0.0346548
0.0220789
0.0585757
2.20571
0.0217677
3.54091
0.0474252
0.0222197
0.0247206
0.0222415
0.0222215
0.0318305
2.28727
0.0227276
0.0217939
4.96977
1.34391
0.0722846
0.0222612
0.0554346
0.0219341
0.0219321
3.09389
8.524
0.0219224
0.0214932
2.06427
4.17077
0.0480716
0.0222866
8.31542
0.0229571
0.0219296
0.0246308
0.0219332
0.0216569
0.0216243
8.25679
1.00381
0.0260295
1.6952
0.0468277
1.29006
6.37632
1.6485
0.160669
0.0219487
0.0222384
0.022474
0.0219931
0.0728485
0.0218841
0.110307
0.0296957
5.57383
0.0220478
1.41744
0.0368371
4.40797
0.0219258
1.73326
0.0316166
0.176407
0.229532
0.0313346
0.021621
6.56261
0.0554861
1.16112
0.0216143
4.12688
0.0220281
3.74717
0.42311
0.0434708
0.0219282
0.0220889
1.51266
6.14039
0.0334288
0.0216103
4.90494
0.0823007
0.0455195
2.2559
0.0797792
0.0219348
2.77805
0.0219247
0.0349702
0.0216531
8.49809
0.021659
0.0241897
0.302899
3.74687
0.0222218
0.0655194
0.0250243
0.0767982
0.0218823
0.29093
0.0235743
0.0631192
0.0219505
0.0219859
1.87941
0.0297343
3.78114
3.3493
5.48037
0.0228019
0.0216734
0.0217732
0.0260984
0.0377947
0.0320565
5.43468
0.0237806
4.05984
0.0420268
0.022281
0.0219626
0.0717647
0.489199
7.63377
0.0219173
1.49823
0.0218651
4.05507
1.49964
0.048071
0.021997
0.0217486
0.0430813
1.38175
0.0245011
0.0222685
0.0244594
0.0453916
0.023276
1.32236
1.90773
3.82771
0.0221562
0.0268334
9.92706
0.0221865
0.0637546
0.0218258
0.652962
0.0365522
0.0219522
0.0435164
0.184632
0.02206
1.83715
0.0219225
0.133243
0.230803
0.586427
0.329849
0.0221662
0.0222387
16.1865
0.0221799
0.0399357
0.0840606
0.0237839
0.0215483
9.89443
0.0251063
0.416464
0.023956
0.0659472
0.0225917
0.437947
0.0254278
0.0249723
1.86301
1.06729
0.0220895
0.0222729
0.153884
1.72246
1.90603
0.700917
0.0310248
0.0219281
0.0218081
1.49184
0.0221384
4.31532
0.0932638
2.36442
0.0221069
0.0217215
0.0217973
0.0432036
0.0518213
3.63995
1.3651
0.769126
0.235526
0.021606
2.38385
0.0231221
0.0675255
0.0231807
0.0406018
0.062009
0.0219314
0.0215773
0.0672643
0.021641
0.0393138
0.0714067
3.0359
3.28336
0.0414053
1.47008
0.0217606
0.021668
0.0220741
0.199482
0.061909
0.0463643
0.105577
3.89887
0.0396688
0.143511
0.0218323
0.0221627
17.299
0.0219721
0.280249
0.0214741
0.0218682
2.16524
0.322913
0.021864
0.0771645
0.507165
2.74241
2.22766
0.0252411
0.0719995
0.0518401
4.90237
0.0220853
3.80275
5.53979
0.0238825
0.0271944
0.0216187
0.47273
0.0218088
0.0219845
1.47264
0.0222671
0.0215759
0.179441
0.0635566
1.3184
1.31854
3.33909
1.70187
0.0216668
0.0219178
0.0218693
0.0222049
7.89031
0.0221088
1.63983
0.0230955
3.67942
0.0246913
0.0221511
0.0216839
0.0222738
0.030603
0.0221267
0.0215369
0.391985
0.0218251
0.0548773
0.0225135
6.08911
0.0247509
0.0220788
0.0220599
0.0530837
0.0219084
0.0217643
0.022089
0.0222146
0.0254179
0.0218588
0.0235185
0.0321007
2.76912
4.59128
3.77545
2.33114
0.021771
0.0220052
0.0219293
0.0214373
0.0219371
0.0217383
0.595392
0.0218662
0.0222517
0.0220687
0.0220437
0.0219745
6.2397
0.024948
0.0219734
20.1793
0.045515
0.0217143
8.18027
6.55453
0.0220204
0.39615
0.631629
0.0220697
0.046911
0.0241366
0.0215598
0.0276193
0.0220911
0.0442833
0.0220127
0.0222472
0.0217492
23.7986
0.0303081
0.0459199
0.0220325
0.0222652
3.56236
0.0260167
0.0220365
0.02401
0.0244332
0.0222518
0.234926
14.5739
0.852356
1.46412
0.225711
0.0377575
0.0222597
10.4302
0.14581
0.0228283
0.0593128
0.0222931
0.0219069
0.0222462
2.82896
0.0465703
0.0219997
0.0220427
0.176606
0.0217333
0.393944
0.0219687
1.81077
0.211379
5.80205
0.0220797
0.0233233
0.0323042
0.0357853
0.0223107
0.0392282
0.0877148
6.40891
0.0220388
0.538739
7.62746
0.0215814
1.53354
0.0438136
0.371297
0.0998116
0.0219255
0.0280267
0.0419814
0.0216872
0.025461
0.0215465
4.57394
1.21395
0.0328483
0.02183
0.136636
0.0768477
2.7592
0.272168
0.0234744
0.0293618
0.0219508
0.0219375
0.0420497
0.052212
20.6779
0.0218207
0.493395
0.022694
8.63519
0.160053
1.79554
0.0216021
0.0230396
2.02204
1.7502
0.0434362
1.9832
0.0232637
0.213647
0.0219151
0.0218611
2.53452
2.50837
0.0257861
0.0220941
0.0740219
2.15537
0.190538
0.065419
0.021776
0.0220151
0.0217191
2.3517
3.80117
0.0217653
0.0467773
1.71799
0.072247
0.245774
1.53372
6.14526
1.78902
0.0217835
0.0231408
1.44052
0.0218952
0.0493557
1.53244
10.0984
0.0235344
0.030709
5.00154
0.656911
1.99421
3.77881
1.43093
1.30181
0.0221109
0.0216246
0.0219913
0.0228275
19.5794
0.0558849
0.370072
0.43325
0.0568028
0.0219964
2.6556
0.0217323
0.0319216
0.0219235
0.041065
8.81826
1.60763
0.0220712
0.0216106
0.0428171
4.09329
0.166856
7.22565
0.0453875
0.0220854
0.0837325
0.0214729
0.0978486
0.0325142
0.0219195
3.99502
0.177105
0.449922
0.056584
0.0222872
0.0216022
4.18008
0.0255472
0.0216267
0.0221452
0.0222558
0.021685
5.2544
9.21298
1.79917
1.38831
6.22648
0.0247038
0.0219457
2.86004
0.0249141
0.105499
5.32003
0.0218685
4.00463
2.60557
0.0590995
0.034083
0.868497
0.0232022
1.80691
0.037774
1.87387
0.0218266
0.0229504
0.040995
3.27987
0.106649
0.0680892
4.41407
1.81412
0.0728404
0.154566
3.23034
0.0244707
0.391468
15.365
0.0360613
0.0625346
2.31484
0.0341419
0.0369744
0.0221036
0.0379191
0.040768
0.0553299
0.0220887
7.25265
0.164708
1.69911
4.53318
1.97722
0.0399377
1.56248
7.17195
0.0218488
3.65991
2.42503
8.15925
0.0280427
0.0244456
1.56672
9.29989
0.0216221
0.233081
0.0217552
0.0219117
4.23037
0.0256848
2.17822
1.40311
1.71005
7.69744
0.0216228
0.0365299
0.0220074
0.021846
0.11799
0.0569908
0.0272198
2.71426
1.72272
0.022273
0.0269217
1.33095
0.0238547
0.355179
0.0486606
1.30896
1.29383
0.37281
7.39725
6.09972
1.7072
1.29688
1.56518
0.033968
0.0253845
0.112541
0.113399
1.69191
7.60024
0.0221319
0.0227569
5.14574
2.22645
0.0254708
4.3394
0.0219391
0.85721
3.56443
3.56587
0.0219245
1.54981
1.44537
0.026974
0.0348505
4.21555
3.72715
3.94828
2.92184
0.0220107
5.49454
1.48697
0.0409399
0.201434
0.10906
0.0217373
0.0270941
3.45615
1.86049
0.0248674
0.0221715
1.46471
0.0910533
1.6542
0.0716336
2.00129
1.31489
0.0219923
10.2007
0.0222852
0.0323028
0.0220828
0.0218668
0.0217063
0.0373969
0.264106
0.0214975
10.6286
0.0775311
7.87604
7.76622
1.87915
0.0219107
3.46196
1.55337
1.88707
0.0346253
0.0219305
2.60131
0.335244
1.67932
0.0565173
0.0235954
0.0216893
3.55667
5.21297
0.0336245
10.8749
0.0314936
0.0222088
1.29182
0.0552923
16.9044
0.0219492
0.0317847
1.55304
3.94686
1.32898
0.266477
1.3029
1.57384
7.1259
0.0220486
9.07253
0.0477606
0.0218434
0.0215662
0.0219356
4.79581
0.050362
1.29843
1.39316
0.0402392
0.159491
0.0920527
2.39831
0.286196
4.51062
4.43599
1.31074
0.0842579
0.021664
2.72054
0.0562853
0.11677
1.27652
2.13308
1.67627
0.0220948
0.0243831
0.0493641
0.0220597
0.0220072
0.0280299
1.31017
0.0306648
0.0263681
1.27654
0.0789364
0.326074
2.68237
1.34283
0.371157
1.55703
4.21362
2.07332
0.0635324
0.0319935
0.0221296
1.3245
0.100435
0.208001
0.0644512
0.0617186
0.0214548
0.16562
4.95749
0.0279528
0.0215872
0.0234273
4.04929
0.0218784
0.0220267
0.0611126
1.40946
0.0303196
0.0545495
0.166833
0.0307811
0.0611624
0.0218687
0.0219846
0.0412215
0.219931
0.0222668
0.0315293
0.277477
5.68188
0.02215
10.5354
0.0219007
1.33358
0.0233558
0.0235246
0.0215553
0.160553
0.0371568
5.67662
12.6471
0.0681876
0.0221619
0.0220463
4.20915
2.91954
0.021894
0.216953
1.44136
0.0521498
0.0792597
0.0214364
0.0227208
0.0219295
1.30662
0.0424536
0.0220509
5.31353
0.0223954
0.0590336
0.267094
0.0217388
0.0971651
0.0590121
18.2199
0.0224592
0.0264789
0.0235369
0.0537731
0.021412
0.0219109
4.6113
0.276123
0.0725654
0.02193
1.55821
0.0224002
0.0223986
0.0219582
0.410632
5.07998
0.0239599
8.20509
1.29975
0.062444
2.90681
5.77718
4.62206
7.85692
0.0554505
0.0672605
0.189955
0.0479118
0.0219514
0.0305087
0.0309051
7.13194
0.0220796
2.57544
0.0219797
0.424763
0.0865904
0.0228891
0.0231515
6.96244
15.4602
5.43029
1.46903
0.0218148
0.073238
3.81531
0.0267168
9.34676
0.0413053
0.110707
1.39194
0.0375504
0.0219939
0.114462
0.134355
0.0219253
1.36372
0.59806
0.0217119
0.0222392
0.0221212
0.0220104
6.3745
0.0221132
0.0474832
0.0220257
0.0225552
0.0328277
0.0219423
1.33655
0.0803958
0.0221737
0.0216328
0.102639
0.0235957
0.0568797
7.14007
4.25551
0.052315
0.284402
0.0407015
0.0215967
0.127417
10.3845
0.0378957
1.32234
5.4732
0.0759585
0.0387652
0.0298768
0.0651336
0.0381576
4.39509
0.0221135
0.0221931
0.0218899
1.9287
9.25474
0.036015
0.111012
0.0219139
0.0279969
0.1154
0.239283
0.0219247
0.0585135
1.56288
0.0898535
0.0219923
0.0219398
18.9209
4.82198
0.021939
0.467107
0.0324242
0.184379
0.963243
0.0218652
2.85112
0.0304118
0.0220251
2.70833
0.184115
0.0219274
0.0221623
0.250899
0.0217806
0.0220421
0.149623
0.0424965
0.0462424
5.49407
0.025579
0.0457303
1.51116
0.0218602
8.12321
3.86081
0.0254547
0.0635203
0.171996
0.0219839
0.149379
0.0214723
2.0092
1.48299
0.022005
7.45192
5.86537
0.0219511
0.0219473
0.567191
0.0415299
1.47922
1.43167
0.0220954
0.0430904
4.34723
0.0228943
0.0500232
0.0720377
0.0338252
3.04633
0.2032
0.0238357
0.205095
6.01351
0.0463626
2.62295
0.0219137
0.0215525
0.0222674
0.0428943
3.7779
0.0220657
0.0358713
11.6051
2.43841
0.0222175
0.0299974
1.88269
1.35822
0.0222245
8.06874
0.0342165
0.0827842
0.035319
0.0231522
0.0262903
0.0219721
0.0219647
5.00354
0.0219345
0.0528254
0.0219849
3.52509
0.0238208
0.0246404
0.0215936
0.0240712
0.021985
0.0414578
4.97552
3.89963
0.0379624
0.0430293
0.0219681
0.0318179
0.0509503
1.82895
4.87818
0.0218334
0.672787
0.0220243
2.53214
1.27611
4.70773
0.0218307
0.101567
0.0708283
4.81924
0.233277
0.0218541
1.95267
0.332086
0.0382528
4.41541
0.0223101
0.0220113
0.0395694
2.55502
0.0219327
6.07731
0.034497
1.63048
0.0908163
0.0224846
1.92798
0.0281899
0.0221227
0.278278
0.0219549
2.7211
9.39173
0.159246
0.0277777
0.15711
0.0219413
0.095454
0.0439941
8.89818
0.0220338
0.0216427
0.0269472
0.0296876
0.044343
1.58616
3.13553
0.0363049
0.23653
0.0218127
2.82685
7.41888
0.165027
0.0219286
0.0222601
0.0236173
2.64077
0.0220785
0.026949
2.22227
0.0836273
0.0219974
0.264852
0.0776741
0.0219904
0.0252335
0.109049
1.58584
0.066717
0.0429056
1.58477
1.35735
2.79414
0.0267221
0.022137
0.0244962
0.0248556
0.125182
0.0555168
0.0284124
0.0766227
3.86495
0.0242426
0.021997
4.33831
0.288024
1.60666
0.182988
0.0257947
0.023855
0.0237026
0.0217712
0.021896
0.044377
0.0215618
0.023006
0.0220413
0.0229833
0.0236034
0.0219513
0.0388152
0.0392454
0.0221674
0.0219399
0.0221192
0.0227993
0.0223738
0.275512
0.0220577
0.0235377
1.344
0.0217179
0.0232746
0.0222799
0.0279097
4.26737
10.018
2.47832
2.19351
2.21324
0.198082
0.0218792
0.057104
0.0220185
0.910332
0.0235347
0.0294758
0.0222
0.0529688
0.0219626
0.0315147
0.0217879
2.45816
0.145687
0.022079
3.26131
2.07776
0.0222706
0.101851
0.0219549
0.0216027
6.4761
0.0222072
0.0626244
0.168769
0.0221053
0.0215634
0.0690581
1.49708
0.0252248
0.0237201
1.38434
0.0219475
3.55227
0.049166
7.78637
0.0216747
1.42879
0.02193
0.0221854
0.232473
0.0570508
2.07199
1.60728
5.77025
2.74572
0.139703
0.124472
0.0220465
0.140737
0.0221288
0.0218241
0.0960572
0.0219143
0.0219854
0.02161
0.0216142
0.0588472
3.67895
1.38309
0.328471
2.14134
0.0238185
0.0306163
0.0230721
0.0227765
0.0731206
0.0220482
0.0218017
0.0218173
0.0239674
0.0232519
0.188594
0.0881157
0.0454858
0.0221091
0.0550893
0.056723
1.80564
4.48752
0.0249702
0.0399056
0.0220888
11.0779
1.5695
0.021926
0.0219351
0.0245566
0.0222129
3.72423
0.282763
3.87052
0.0221393
2.90735
0.0221133
2.58221
0.0493825
0.0218139
0.028178
4.96166
0.0270841
0.027953
0.0310249
0.0767214
3.3639
0.0218436
0.021917
0.0280265
0.443211
0.0218706
1.82639
3.07284
0.0219698
0.0214301
5.54019
0.0682554
0.0219289
3.59671
12.4587
2.03822
3.2882
0.0287022
1.92303
0.0220717
4.02848
3.07592
0.724762
0.0681835
0.0239644
4.92884
0.0250611
0.0218714
0.0214534
2.24554
0.0216383
7.23271
0.0229373
0.0221696
0.0250985
1.35562
0.023966
0.0228439
0.0220737
8.32954
3.98002
10.5903
1.36441
0.0444084
0.0219338
0.0242742
1.09122
0.112024
0.0219897
0.0513704
1.22139
4.2302
0.0219955
4.40725
4.06786
0.040413
0.0220631
0.0239352
0.0219556
0.0217622
0.021944
0.0220332
0.0223689
0.0998552
0.022096
0.131018
0.0226331
0.0227215
4.5365
0.0726412
0.0239344
0.0228176
2.06619
0.0215719
0.022915
0.0261153
0.0218182
5.07324
0.0323384
0.0227878
0.0448643
0.0219742
0.0276961
0.0219251
0.139851
0.0218254
0.0219174
5.38187
0.0240317
0.184863
0.0335212
0.0238522
0.0846946
0.0214151
0.0220886
0.0226682
4.06914
0.024239
0.0219272
1.98354
0.0219983
0.0216273
0.0218861
0.585288
0.0322698
0.149734
0.0338908
0.0309342
0.0505646
0.0239461
0.0271394
0.0480804
2.13559
0.0222636
0.0284475
0.0218153
0.22734
0.193804
0.021906
0.0306007
2.95378
0.03004
0.0215576
6.30986
0.0259242
0.0793328
2.2713
0.0293274
0.0219072
0.0293318
0.0219277
0.0249396
0.0219072
0.0233744
0.0259636
0.0219708
0.0220682
0.0321625
0.022167
0.0854564
0.0219429
0.0238226
0.021945
0.0313471
1.43782
0.0220986
0.0220478
0.0983346
0.023544
0.0219625
0.84419
4.21911
2.91591
0.0220772
0.0245548
0.0371513
0.0222446
0.0221253
0.0343514
0.175604
0.0215364
0.0526312
0.0219815
0.021894
0.0217845
0.0215293
0.0230716
0.0424599
0.0344891
0.0275479
1.50298
0.0243693
0.0281007
0.0217382
2.18259
3.87861
2.39646
0.0220523
0.0459804
0.0282232
0.0220236
0.0221203
0.0413737
1.35962
2.29691
0.0220368
0.0284177
5.80209
0.0228226
0.164035
3.90117
1.44569
0.0303393
0.0220039
0.0383976
0.045237
0.33764
10.3642
7.26597
1.39855
0.0228424
0.0221737
0.0219407
0.0960583
0.0219515
0.0216909
0.0385931
0.0219222
0.0219158
0.0218797
0.0527432
0.0220082
0.0217807
0.021975
2.28549
0.0215594
0.0220418
0.022107
0.0228666
0.0219399
0.0729584
0.0716794
7.29101
0.0216155
0.0283024
0.118703
5.30079
2.17719
0.0222415
0.0222752
0.0522099
0.0987171
0.0258568
0.398528
0.0219358
3.62606
0.0222781
1.28631
0.0228545
0.0219307
0.0474478
0.0219557
0.0221127
0.0227794
0.612404
0.0245276
0.022494
0.0221782
0.0219747
0.0407688
0.0221035
0.0219209
0.026275
0.0988984
0.0244846
0.0219814
1.3025
5.02057
0.0219998
4.26014
0.0221431
0.0320054
0.0713603
0.198189
0.0235133
0.0230199
0.0220874
0.259694
0.0284994
0.0223083
0.0219122
0.0232825
1.11725
0.0222605
0.0366112
0.0239956
0.0352727
0.0513132
0.0386146
0.0863199
3.60968
0.0250416
0.0220397
6.10078
0.345923
0.0219321
0.0214926
0.0220637
0.0219825
0.021925
0.0240024
0.0216774
0.0220789
4.11467
1.33762
0.033985
0.0219522
2.29767
0.0240036
0.0217025
6.16367
0.0242565
0.0216618
0.0220946
0.0220382
0.0392498
0.0220725
0.0539579
0.021929
0.0217849
0.0219621
0.0328817
0.0364503
0.0218977
0.0591114
1.36749
0.0232445
0.0218988
0.061857
0.0217285
0.0220217
0.0218681
0.031679
0.0220528
3.93048
0.0223457
0.260264
3.09355
0.0542163
0.0237484
0.0223826
0.0220549
0.0219433
0.0295849
0.153851
0.106343
0.0218144
0.0239568
4.41211
0.0216127
0.156965
0.0219674
0.0236343
0.0309451
0.0611055
0.0219585
0.0359359
0.0281639
0.0576344
1.30073
5.27652
0.021966
0.0219284
0.0329266
0.0231298
0.0226783
0.0487465
0.0229714
0.105134
0.0217855
0.0710788
0.022106
0.0809856
0.0550508
1.32222
4.87499
0.021925
0.039188
0.787151
0.185123
0.021605
0.0218766
0.118291
0.0219468
0.0219865
0.0217476
0.0215211
0.0688873
0.0779399
18.6636
0.0220208
0.0475139
0.022255
0.0215951
0.0231322
1.63855
0.160203
0.0219316
0.0221415
0.0218464
7.22545
0.0220177
0.021947
0.0225051
0.0219626
0.0432046
0.0218366
1.68772
0.0219881
0.0228711
0.0224761
0.021913
0.0217542
0.0220089
9.18885
0.0217856
0.0219576
0.211484
0.0219323
0.0220432
0.0221119
0.022156
0.0525598
0.0219204
0.0219777
2.40446
0.0240752
0.0220385
0.0222874
0.0215538
1.33633
0.0230444
0.0222353
0.0219158
0.0266876
0.0219716
6.79592
0.0217979
0.0220126
4.50315
0.0219775
0.059896
0.0222076
0.0214198
0.0215273
0.0309091
0.0372341
0.0218578
0.0222861
0.0246321
0.021915
0.0221109
0.0221109
0.021971
0.0218376
0.0219302
5.44554
0.021962
0.0218451
1.69396
0.0219557
0.0273073
0.11282
1.37925
0.0218231
0.0220829
0.021963
0.0216414
0.0230237
0.0389192
0.0239949
0.0402048
0.0217781
0.0265025
0.0220104
0.0214798
0.0298391
0.0566006
0.0236078
0.031007
0.0220268
0.0219622
0.0221201
1.75301
0.0240549
0.0220131
3.04688
0.0233557
2.38325
0.0220637
0.0219372
0.0217466
1.42818
0.0219659
0.0250846
0.0232901
0.0220727
0.0219686
0.0220884
0.0220818
0.0248286
0.0219154
0.0389333
0.0222477
0.0399212
0.0215262
0.0216366
0.0244652
6.6464
0.0221483
0.022049
0.022647
0.0219375
0.0246476
2.17857
0.0228056
0.0272639
1.84934
3.64852
0.0227492
0.0230456
0.145218
0.0945442
0.0235759
0.0221149
0.0219906
3.41978
0.0229425
4.83041
0.0217257
0.0215419
0.0221047
0.0220478
0.0232801
0.0215877
0.0219881
0.022265
0.0641408
0.0239062
0.0227734
0.0216381
0.355279
0.0686588
0.0215215
0.0221044
0.0235581
0.022239
0.0220588
0.0216015
1.35092
0.0216174
0.0219497
0.0655666
0.021589
1.77795
0.0218255
0.0483559
0.0288159
0.0219715
0.0215532
0.021929
0.022379
0.0220435
0.0218773
0.0216267
5.61535
1.53204
1.71881
0.0216179
6.33787
0.0219908
0.0597392
0.0219281
0.0219306
0.0221094
4.64575
0.0219517
0.0219157
0.0221262
0.0219867
4.2763
0.0219427
1.57543
0.0214559
0.0227655
1.96385
4.26428
0.0219832
0.0219607
0.027481
0.022018
0.129284
0.0217557
0.613104
0.0217762
0.0355439
0.0221391
0.0218214
0.0219471
0.0219788
0.0232699
0.0218911
0.0324484
0.0379271
0.113468
0.0218289
3.17457
0.0219021
11.8128
0.021919
5.59502
0.977931
0.0217528
0.0219174
0.0216117
0.0218825
0.0220439
0.0221993
0.0215971
0.0227701
0.0214488
0.0825402
0.0221108
1.39081
0.0215869
0.0215501
0.0219321
0.0219287
0.0229598
5.29367
0.0234181
2.4706
0.0215798
0.0221191
0.038014
0.0215868
0.138175
0.0234886
0.0219355
0.0397374
0.02151
0.0219723
0.0225014
0.021773
0.0288393
0.0400899
0.0216471
0.0221124
0.0220459
4.78252
0.0235274
0.0216252
3.9879
0.0557197
0.0216346
0.0219229
0.141748
0.023157
0.0214482
3.54015
0.220285
0.0231702
0.0214555
0.0222396
0.0355015
0.0215719
0.184557
0.0216251
0.0217119
0.0429909
0.052129
0.021618
0.0216327
0.0215389
0.0217504
0.0217615
0.0414023
0.0219729
0.0217728
0.0221113
0.021855
2.28032
0.0222722
4.2319
0.0271769
0.0287701
0.022142
1.43282
0.0219557
1.84198
0.0215687
0.0219628
0.454813
0.0219748
0.0229131
0.0216617
0.024897
0.0217338
0.0280097
0.0216057
2.13133
0.0222067
0.021608
0.0215483
0.0215782
0.0954259
0.0217897
2.89437
0.0219218
0.0249526
0.0215042
0.0220186
0.294787
0.0220013
0.103046
0.0218216
0.023149
0.0221704
0.022133
0.0225089
0.0219345
0.0219849
0.253129
0.0215758
0.0219506
0.0225981
0.0220577
0.0220547
0.0335909
0.021984
0.0219224
0.0218597
0.0216364
0.0217667
0.0219983
9.64062
0.171795
5.70403
0.0214438
0.0241055
0.022126
0.0270855
0.108309
0.244093
0.0329275
0.0215785
0.0219805
0.0221071
0.0221439
0.0221148
0.0219168
3.18549
0.0501678
0.0219299
2.52466
0.0221371
5.23042
0.0219657
0.0218973
0.0218082
0.0215989
0.0214875
0.021933
0.0216653
0.0218078
0.0423985
0.023067
0.0219281
1.5771
0.0215693
0.0230541
0.0219889
0.0216458
0.0219365
0.261102
0.0218011
5.04066