/*--------------------------------*- C++ -*----------------------------------*\
| =========                 |                                                 |
| \\      /  F ield         | OpenFOAM: The Open Source CFD Toolbox           |
|  \\    /   O peration     | Version:  v2012                                 |
|   \\  /    A nd           | Website:  www.openfoam.com                      |
|    \\/     M anipulation  |                                                 |
\*---------------------------------------------------------------------------*/
FoamFile
{
    version     2.0;
    format      ascii;
    class       volScalarField;
    location    "50";
    object      ddt0(omega);
}
// * * * * * * * * * * * * * * * * * * * * * * * * * * * * * * * * * * * * * //

dimensions      [0 0 -2 0 0 0 0];


internalField   nonuniform List<scalar> 
9793
(
-2.65999e-06
-1.41664
2.51407e-05
-0.053431
2.35931e-05
0.00878526
0.00310697
1.74292
-1.74264e-05
2.80883
2.67394e-05
2.71847e-05
-6.64806e-06
0.082385
7.33388e-05
-0.00083583
0.00156899
-4.29187e-05
0.135655
5.46751e-05
2.04226e-05
2.27745e-08
-0.0236414
1.60366
0.0666361
-1.84627e-05
1.23165e-05
-9.17867e-06
5.63645e-05
0.00441365
1.40177
0.0556106
5.96375e-05
1.95853e-05
6.13139e-05
-0.000107768
-0.000547406
-3.76072e-05
-0.0807719
0.000372005
0.00345543
-0.202905
3.05976
1.36989e-05
-9.55334e-06
-1.47537e-05
1.51628
1.50524e-05
-4.44364e-05
-2.94304e-05
-0.000162975
4.98096e-05
0.000853294
1.63269e-05
-8.45935e-05
-0.0119079
-1.35466e-05
0.00796149
-4.12534e-05
2.22044e-08
-2.45831e-05
0.00299398
1.6534e-05
-0.000136342
-1.82079e-05
-1.58931e-05
3.99381
-0.000104156
-0.000647883
2.60255
9.60701e-06
-0.000934387
2.08107
-2.06567
1.92609
2.11659e-05
0.000226082
0.535421
1.55146e-05
1.32044e-05
0.00318532
0.216898
0.00231256
3.42284e-05
-0.000641046
0.0285214
3.09823e-05
0.00517373
-0.0673969
-0.0102871
0.0109617
0.912479
3.35386
0.000735283
2.91119
-3.33091e-06
1.89006
0.00171731
5.15221e-06
2.24593e-05
0.0387011
0.00074271
0.355439
-7.4441e-06
1.07642
0.323689
-2.03879
3.50952e-05
1.01769e-05
2.11169e-05
2.28388e-05
-0.000675655
-0.202052
1.06273
1.1811e-05
5.1604e-05
-0.000604364
-3.69484e-05
-0.0136372
-6.5559e-06
0.615035
0.00559497
0.211024
0.0015862
-0.00054081
-1.31721e-05
0.00218354
1.16931
-0.00720284
-0.00885098
-0.000292616
3.92351e-05
-1.84291e-06
-9.19548e-05
-0.000144315
0.0116261
0.00152531
-0.000613879
9.15776e-06
0.00284686
0.558814
-0.000135203
-3.68271e-05
0.00300177
1.33059
0.0369782
-9.44132e-06
2.03853
2.81953e-05
-1.5221e-05
3.2394e-05
-1.59945
-3.86783e-05
1.09337e-05
9.54393e-06
3.42719
0.00187636
-6.63735e-06
0.0530447
1.42227e-05
0.00483247
-0.000279241
1.95073e-05
-0.00896808
-8.22522e-05
0.478763
-0.11051
-9.75306e-05
4.46478e-06
2.0545e-06
-1.72051e-05
0.457927
-0.236746
0.163021
-6.63054e-06
0.00710299
0.00800443
0.0531589
8.48198e-06
-0.000119313
1.30208
1.39778
0.00499587
-1.85845e-05
-2.08816e-05
2.02328e-05
-1.99033
1.86446
2.73585
0.570687
-6.29558e-06
-5.70519
0.00420151
5.24476e-06
-2.71101e-05
-7.10433e-06
0.0745839
1.86537e-06
-4.07407e-05
-6.76496e-06
-2.96461e-06
2.24298e-05
-0.000128155
-0.000420001
-0.0630731
-1.51707e-05
0.000118311
-0.000100559
-2.18862e-06
-0.174992
0.00150231
0.879163
2.98339e-05
2.05903
2.61021e-05
-0.00135379
5.59594e-05
0.0139695
4.00524e-05
-9.34661e-06
0.00203154
2.21207e-05
-0.0990069
0.400657
0.000578647
-8.14419e-06
0.00312282
0.541842
-0.000208247
-0.00011611
-0.0356666
0.00368491
-0.00113141
-8.45524e-05
-0.00390642
-1.87156e-05
0.438161
0.908082
-1.3079e-05
5.43832e-06
0.320127
1.22307e-06
2.44219e-05
0.00666033
0.0103348
-1.23649e-05
-0.000138309
0.000187637
0.000319905
-0.000200854
1.34658e-05
0.000949431
0.104455
1.57624e-05
0.241624
2.29539e-05
-3.84723e-05
6.14986e-05
-0.0350712
-7.02388e-06
-5.2387
1.31384
4.47422e-05
1.96625e-05
-0.82392
3.00851e-06
3.59876e-05
-8.4765e-06
0.963017
0.00674414
6.94831e-06
-0.0651199
0.00817771
0.185347
-0.1131
-8.29551e-05
2.64875
-3.93489e-05
0.447888
-0.287205
0.013613
0.764949
-0.00136898
-0.000314473
0.00182352
-0.000372653
-9.36504e-06
-0.000139837
-0.0409872
-1.45665e-05
1.4547e-05
-2.48785e-06
4.56197e-06
6.54755e-05
2.04294e-05
-0.0421714
5.43178e-06
7.7698e-05
8.39121e-05
-2.21365e-06
0.166129
0.0722982
-0.000615575
7.36999e-06
0.00352589
0.00011896
-6.53231
-1.59132
-8.75338e-06
1.84791
-0.000272406
3.43886e-06
-3.06343
-6.85696
6.49441e-05
0.00112288
-0.576863
1.30989e-05
-0.000157096
7.66506e-05
8.69606e-06
0.133481
0.000406045
1.78067e-05
-1.06067e-05
1.12723e-05
0.0152531
-0.0199479
1.70587e-05
5.05441e-05
-1.92343e-05
0.525056
-0.941379
-0.375281
-1.67896e-05
0.000576066
-0.000167283
0.304775
0.00607294
-3.90947e-05
-4.94612e-05
-1.9127e-05
0.00212789
-6.51692e-06
-0.276766
5.62451e-05
1.75139e-05
1.09872
-0.0376619
1.31102
6.96828e-05
0.0324723
2.51484e-05
-0.0352514
0.326453
-0.0387722
3.6475e-05
0.000533363
0.00180212
0.0170446
-0.00939295
-3.60497e-05
-2.27195e-05
-3.28713e-05
-4.49368e-05
6.81017e-05
-3.58845e-06
-2.11607e-05
-6.93866e-10
-0.359885
3.09114e-06
0.00231863
0.000266422
-0.875764
-3.82096e-05
4.13676e-05
0.835622
-0.0615376
0.110768
0.00585819
-9.85706e-06
3.72514e-05
1.69162e-05
0.497237
8.27861e-06
0.99914
0.00946558
0.00379197
-0.247303
0.131727
9.02625e-05
1.15172e-05
0.0283304
-0.560909
-3.68354e-05
0.590542
0.000105832
-3.83838e-05
0.00214209
2.85554e-06
0.005419
-1.94934e-05
-0.278169
3.22087e-05
-8.55462e-05
0.962329
-0.000344458
0.000924376
-4.22803e-05
1.05311e-06
-1.72445e-05
0.570569
0.00154087
-2.52477e-05
2.08244e-05
2.90778e-05
-0.000218723
0.000769167
1.1809
-2.55353e-05
3.35715e-05
0.471648
2.29866e-06
0.0302858
-0.0366949
-2.08914e-05
5.70812e-05
-0.000129166
0.000104408
-3.52902e-05
0.0434857
-0.000571351
1.43563
-0.000113585
-0.000345718
0.00164192
-2.90725e-05
-0.00396707
-4.21452e-05
9.5075e-06
-0.000111545
-0.00346692
-4.16108e-06
7.49916e-06
-8.87854e-08
3.79402e-06
-2.94107e-06
3.26197e-05
-2.79967e-05
5.37582e-05
4.71226e-08
-0.000351527
0.00792625
-3.46269e-05
0.0690105
-1.25966e-05
-0.036527
-0.313658
-1.02688e-05
1.24195
0.00326645
-3.04814e-05
5.48506e-05
-5.10198e-05
0.78606
0.00794296
4.99716e-05
6.12771e-05
-4.01715e-05
-0.000533929
-0.00287918
0.565954
-2.08592e-05
-3.27407e-06
-5.02831e-05
1.35532
0.00853306
-1.49072e-05
-0.000223004
0.302088
0.345059
0.0194696
-1.35859e-05
3.94719e-05
-0.0738138
-3.76675e-05
0.00832734
-0.741643
-2.90853e-06
0.08675
2.66589e-05
0.03249
-1.70007e-05
0.00385384
0.0516023
-0.000706633
0.753991
-2.3565e-05
0.359747
1.87607e-05
3.72292e-07
4.75821e-05
-3.08997e-05
1.82889
-9.01514e-06
-2.92695e-05
1.05063e-05
-1.70899e-05
5.04641e-05
0.00124372
2.38266e-05
-0.000145445
5.13412e-05
3.68673e-05
0.514342
-0.000947181
-1.91491e-05
0.208671
-0.00031949
8.98415e-06
1.4635e-05
-2.74736e-05
-0.566646
-3.30885e-05
-2.31024e-05
1.87266
-0.0874873
-0.000305877
-4.91105e-05
1.85964e-05
-4.03647e-05
3.34388e-06
0.22849
-7.04517e-06
0.720845
-0.000458206
-0.0393775
2.34308e-05
4.5456
-2.26023e-05
0.0252797
-3.16795e-05
0.00141042
0.377278
2.50666e-05
-2.58928
4.69461e-05
4.24887e-06
1.59669e-05
1.37083
-0.0542898
-2.97233e-05
5.81768e-05
-4.30806e-05
0.333167
-6.2603e-05
0.00101941
0.00551922
-4.27584e-05
-5.64178e-05
0.00138661
2.0609e-06
-5.68821e-05
-1.99073e-05
0.00690205
-4.02588e-05
0.461029
3.75026e-06
3.15478e-06
0.000178055
0.00743018
-0.0329833
8.45535e-05
4.65487
9.67501e-06
0.0222779
2.35889e-05
-0.000107689
-1.5895e-05
-1.28057e-05
1.70816e-05
0.0310627
-0.00108527
-1.37717
0.00857856
-8.35059e-06
0.000180312
-0.117052
-0.000105109
0.211109
1.76037
0.0442042
4.86502
-0.394682
0.0162394
-5.36045e-05
-0.0838404
0.000105071
-9.88049e-05
0.0720167
9.90954e-06
-0.107824
0.000350472
0.0298035
-8.97377e-05
-0.0221958
2.32116
-7.02823e-05
0.000373308
-3.01609e-06
0.261094
-3.40743e-05
-3.81108e-05
-1.94732e-05
-0.000435353
0.000828524
-0.0424007
-0.0129271
1.81164
-8.36241e-05
-1.17429e-05
0.0377742
0.00415869
-0.000143068
0.00497618
4.93217e-06
0.0194597
1.06813
-3.69247e-05
-0.00064574
0.109564
2.37299
9.33494e-07
-2.14061e-06
0.241284
-0.000250389
-3.62072
0.00204178
-0.577918
-1.11726e-05
-9.34778e-05
3.72877e-07
1.98782e-05
-0.0313714
3.79388e-06
-0.0298544
0.0129361
-0.000748316
2.58099e-06
-2.21404e-05
-0.000430778
-7.90986e-05
6.4649e-05
-1.00237e-05
0.00745586
0.69302
0.057516
-1.11313e-05
0.0074617
-5.57491e-05
1.23773
0.00184209
-0.004857
-9.00471e-05
0.0395043
4.32475e-05
3.32448e-05
-1.88112e-05
-2.50549e-05
-4.7434e-05
0.00368869
0.0610929
2.98103e-05
-0.0259887
-0.0384903
-0.000153754
0.310108
-0.0604135
1.48962e-05
0.00196729
-0.000824579
-3.97992e-06
1.65966e-05
0.00334412
-0.00827183
2.38181
-2.22012e-06
-1.07893e-05
6.51282e-05
-0.00072069
2.24188e-05
2.18062e-05
-0.164429
0.00179018
9.26357e-05
0.47573
-0.000120675
1.6465e-05
-2.76003e-05
2.43792
-0.000314543
-5.5525e-05
0.0102405
0.0785573
-1.89443e-05
-3.40311e-05
1.49074e-05
-0.000734575
5.0178e-05
5.32346e-05
0.0464322
1.49598e-05
0.0064358
-0.000101373
-3.34819e-05
-0.0730323
0.567534
-0.00342015
4.19883e-05
-2.93814e-06
-1.88217
-5.9029e-05
-0.0819497
1.38377e-05
1.27165e-05
1.05262
0.572937
0.000280968
0.0115722
-6.95898e-05
7.21089e-06
-3.54037e-06
-4.40346e-07
2.28919
-2.85478e-05
1.68136e-09
0.0241311
-8.55341e-05
0.0160167
-0.000133966
-1.39065e-05
0.378465
-6.73738e-05
3.68923e-06
8.40306e-08
6.30586e-05
-0.218121
-3.75865e-05
-7.95101e-06
-1.83828e-05
-6.38884e-06
-5.59493e-05
1.34216e-05
0.512019
-6.25606e-05
2.94052e-07
-2.09599e-05
5.21291e-05
0.00218539
-0.000849673
-0.000104872
1.05871e-05
5.52368e-05
2.27413e-05
-0.0228038
-0.0799234
-0.000324694
2.22602
3.76756e-06
0.000138222
3.18217
-0.0634729
2.67338e-05
-3.60334e-05
-0.016059
0.00314216
-5.54909e-05
2.34561e-05
0.437929
7.15983e-06
0.00334797
5.2958e-05
-0.0650583
2.30647e-05
-7.28688e-05
3.28817e-05
0.000334234
-9.16996e-05
-2.00584e-05
-7.07254e-05
-0.00482986
-2.46365e-05
-7.36948e-06
5.31319e-07
-4.48818e-06
-5.4669e-05
-6.72437e-05
0.000342532
6.16622e-05
0.00265358
0.0842613
0.00168224
0.0035796
-2.49945e-06
-1.99856e-05
0.831537
-4.46027
-1.13771e-05
0.342445
1.43526
8.80008e-06
-1.97785e-05
3.43433e-05
0.00712656
0.00308842
-0.0719507
-2.03388e-06
6.65361e-05
-5.08492e-07
8.02494e-06
-6.7948e-05
0.00299257
-6.25966e-05
0.0164004
5.89596e-06
-0.00187998
6.44448e-07
8.21043e-06
1.6603e-05
-0.00122718
-0.000985611
1.70248
0.18608
0.423864
0.00252691
1.39013e-05
0.0485065
-0.197922
0.00452928
-4.04607e-05
-4.6807e-06
0.0698055
3.39229e-05
-0.11635
-2.51772e-05
-0.000642287
-7.95206e-05
-2.30641e-05
6.31196e-05
-1.12111
2.62285
-0.111203
-1.40922e-06
0.651577
9.37239e-07
0.425509
0.454778
7.4558e-06
5.91095e-06
7.12506e-05
-0.197756
1.226e-07
2.59378
-4.09878e-05
0.0142438
-6.52184e-06
2.4302
1.05892
0.0171679
0.000154878
0.000432607
-5.47566e-05
0.118412
4.07166e-05
-0.0153229
0.000423184
0.00102461
-0.198012
2.54124
-0.000171257
9.88256e-06
-4.43105e-05
-0.00283021
2.12073
0.274409
6.48114e-05
-0.000967354
-0.000861562
0.005809
-0.00355681
0.065105
0.0694281
-4.84711e-05
-2.33563e-05
-0.000181872
-0.000455861
-0.000480203
-0.211672
-2.41448e-05
0.678343
-8.13302e-05
-4.36299e-05
0.00428406
0.0140756
-0.129685
-5.42574e-05
3.31132
2.97317
-1.16247
-3.55714e-05
-1.02203e-05
-5.17085e-05
-4.40364e-06
1.76624e-05
-0.298521
-0.0742854
-2.30241e-05
2.24184e-05
-0.000273237
0.0279739
0.000103369
-1.92274e-05
-0.000856553
-6.40493e-06
-7.14343e-06
1.71276e-05
0.00382811
-1.06771e-05
-0.000520161
-0.203255
0.00231248
6.70068e-06
0.0397528
0.00484738
-1.5738e-05
-0.000258553
0.00059637
8.88809e-06
-5.26711e-05
4.57451e-05
2.11238
-2.43903
1.57932e-05
0.000671421
-0.00016124
0.132021
1.09153e-05
0.680128
5.01715e-05
7.95166e-05
-0.000662684
0.0450443
0.00539053
-2.12232e-05
2.76456e-05
1.3289
0.0324343
0.0570691
0.073981
-3.26031e-05
-0.000436572
5.86766e-05
1.26948
5.60373e-06
-0.121625
7.03859e-06
-9.21534e-06
-0.000407966
-1.19466e-05
-2.08435e-05
0.00158886
1.05087e-05
0.540372
-1.25009e-05
1.28277e-05
-8.91083e-06
-0.000515899
0.102708
-0.0848397
0.00246536
0.988671
-2.00924e-05
0.000236256
-0.000220109
-2.71559
-1.0649e-05
-1.56358e-05
0.858308
1.20034e-05
2.94224e-05
5.707e-06
0.0156329
-0.530259
0.38703
-6.84665e-06
-4.02709e-05
0.0731532
-0.000586398
-1.83127
0.0115846
0.00366898
-8.02329e-06
1.62314e-06
0.00453928
0.00853687
-4.92078e-05
-0.00339795
8.12022e-05
-4.24251e-05
-3.98874e-07
6.41363e-05
-1.72534e-05
1.49235e-05
-0.38703
7.99071e-05
-3.85355e-05
0.00111688
4.96459e-05
2.98557e-05
0.000211159
0.986093
-0.00020763
0.00259901
-0.0404755
-2.22362e-05
-0.451843
9.03615e-05
0.168535
0.00116793
1.20606e-05
-8.10271e-05
-0.00015639
-0.638008
0.0447536
0.00143207
0.00432194
3.95932e-05
2.9614e-05
1.98104e-05
3.3158e-06
1.55343
-7.85317e-05
-1.45392e-05
0.0171214
-0.0120323
-0.767326
-3.02008e-05
0.702132
-0.000293294
0.00129415
-0.000474946
-0.0136824
0.023802
1.10537e-05
0.0741787
0.00472632
-0.000107596
0.136651
0.0020133
-7.20994e-05
1.10106e-05
1.73124e-05
-1.05157e-05
-2.44219e-05
-3.10512
0.0025766
5.72577e-05
0.0682589
4.61444e-05
0.228271
0.0395016
-5.24036e-05
-0.105983
1.33035e-05
-2.88734e-05
-7.60007e-05
0.0647613
2.0525
0.00229122
-7.10924e-05
-5.69383e-05
0.469701
2.07644e-07
0.000205271
-3.21416e-05
-1.49323e-05
-5.89906e-06
0.300532
7.61838e-06
-7.88123e-05
6.9558e-05
4.05048e-06
-0.0783367
0.00929552
-0.000366829
-1.17801e-05
-0.000192004
-0.0483215
1.04825
5.04578e-06
6.48671e-05
5.75906e-06
2.31657e-05
1.74314
1.50567
0.0240073
4.73131e-05
3.39703e-05
0.199521
-2.09353
2.28524e-05
-0.0442249
-2.20856e-06
0.00513648
-1.32543
2.17912e-05
1.33654
-0.453759
0.00882283
1.30148
-0.301128
3.4752e-05
9.73912e-06
0.00540571
-0.0339416
-1.38307e-06
0.71304
-1.15068e-07
1.0436e-05
-6.49032e-06
-0.000178983
0.00121985
-3.14773e-05
-0.0253793
1.39133
0.0979532
-4.63467e-05
-1.87096e-05
0.0027169
0.0615849
5.88865e-05
0.0435617
0.00103723
2.54055e-05
1.68571e-05
-8.65068e-06
-9.6373e-06
-1.2966e-05
-0.0384161
-0.000127111
5.56074e-06
0.114338
0.0709335
0.00574918
2.0782e-05
0.00159487
2.97008e-05
9.42792e-06
0.763879
0.646859
-1.92737e-05
3.74995e-05
0.313683
0.289432
0.0011041
-5.00762e-06
0.248575
-7.71941e-05
2.48784e-05
-0.000521836
-2.04367e-05
3.31227e-05
-5.10586e-06
-0.254875
-0.0262897
6.02133e-05
-0.112218
0.00179367
0.0312769
-0.693904
-0.0921578
0.0138976
1.02426e-05
4.75921e-05
-8.53053e-05
-2.17297e-05
0.00184261
-1.65675e-05
-0.00601966
0.00018927
-0.107927
4.43007e-05
0.029604
-0.00033406
0.67453
3.50311e-05
-0.141124
-0.000537223
0.0181064
0.0288193
0.000243682
-9.76063e-06
0.288177
0.00239588
0.190413
-2.02296e-05
-0.149871
5.64461e-05
1.97162
-0.0526103
0.00129655
3.80337e-06
-6.3771e-05
0.150909
1.10635
-0.000202023
-4.55045e-05
-0.0567253
0.00393095
0.00208593
0.227604
0.00333981
1.76167e-05
-0.332994
2.954e-06
-0.00017337
9.09087e-06
0.369946
1.06371e-05
-0.000434713
0.0382652
-0.33006
-2.07621e-05
0.00337641
-0.000453463
-0.00490654
1.32011e-06
0.0625332
-2.34961e-05
0.00201776
-2.99136e-05
-2.06726e-05
-0.03776
-0.000242178
2.21694
-5.39281
0.54369
8.65615e-06
2.74647e-05
3.69343e-05
-6.64797e-05
0.000844954
0.000294041
-0.285371
-8.02337e-05
-0.0311981
0.000338583
-1.01143e-06
-6.29192e-06
0.00566194
0.020478
1.56551
-2.15825e-06
0.00102406
-5.553e-06
0.476425
0.0700557
0.0022153
-2.08987e-08
-1.29803e-05
0.000717429
2.32844
-1.05732e-05
3.16113e-06
-0.000451947
0.00205206
-0.000271852
0.319234
0.0445216
0.0659343
6.53805e-05
-5.6458e-05
0.538127
-2.43281e-05
-0.000579409
5.82567e-05
-1.7654
0.000253011
4.64296e-06
0.000493098
0.0139498
-1.0239e-05
0.605106
5.26242e-06
0.0106501
-0.0133991
0.0501269
-0.537085
-3.77883e-05
9.67637e-06
2.96071
-1.68573e-05
0.000182305
0.00829857
-7.54175e-05
3.96053e-05
0.901484
-3.05301e-05
-0.0271452
-0.000399293
-0.000270698
3.53717e-06
0.0189849
-1.69734e-05
-4.07054e-05
0.865044
0.262747
3.28645e-05
5.26041e-06
0.0138722
-0.0197522
-0.060737
0.263554
-0.000663563
-2.06435e-05
3.16199e-05
-0.0408768
3.20778e-05
-0.201349
0.00745293
-0.181995
-3.41334e-05
-4.29501e-06
1.99874e-05
0.00162802
-0.000562551
0.00920325
0.0788398
-2.5702
0.0491777
5.99069e-05
0.02062
1.3911e-05
0.00380425
-0.000100402
0.00132953
-0.000461057
1.81754e-05
5.92947e-05
0.00485149
6.15733e-06
0.000442429
-0.000287479
0.102908
1.56453
-0.000879552
-0.0891637
-2.84855e-06
3.21204e-05
-1.52145e-05
-0.0118596
-0.000403891
0.00101612
0.00669146
0.309716
0.000119583
-0.00187036
5.74798e-05
4.80787e-05
-1.64908
-7.21819e-06
0.106343
1.68788e-05
3.86017e-05
0.0324974
-0.026384
4.74844e-05
0.00450913
0.0327511
2.17335
-0.512428
9.11404e-05
0.00424859
0.00218811
0.243801
2.24133e-05
0.961273
-0.134724
-3.37534e-05
-0.000865002
-1.72087e-05
-0.286398
-6.53151e-05
1.23004e-05
0.0668459
2.03833e-05
-1.09772e-05
0.0118009
0.00292505
0.0578739
0.0605781
0.00202155
0.00372707
-4.28271e-05
-3.18585e-07
6.87675e-05
-6.20772e-06
-0.680144
5.6577e-06
0.00382278
1.73983e-05
2.09359
-3.22444e-05
-6.51686e-06
6.54937e-05
-9.20961e-06
0.000172903
-3.69462e-05
4.58815e-05
-0.0019747
4.31919e-05
0.00225096
-5.79622e-06
1.32845
-4.20648e-05
-6.29727e-05
-1.05578e-05
0.00313164
2.97843e-05
4.51965e-05
5.12479e-05
1.37889e-05
-0.000705411
7.41277e-05
2.40658e-05
-0.000115523
-0.51892
0.396592
1.72203
0.0276341
2.01127e-05
-1.95524e-05
-2.49957e-06
9.51717e-05
2.93387e-05
1.89329e-05
-0.0280098
1.42759e-05
7.59377e-06
-1.70164e-05
6.10399e-05
-9.97731e-06
-0.0945974
-0.000579498
-1.9526e-05
-0.40371
0.00135032
9.76819e-05
-0.564089
1.72176
2.88104e-05
0.19522
0.186329
2.83626e-05
-0.000140945
-3.03642e-05
2.64402e-05
7.12863e-05
-6.57025e-05
-0.000549107
-1.94017e-05
-4.03983e-05
5.05679e-05
4.95193
-0.00106166
-0.000468054
-2.84955e-05
-2.96406e-08
2.56602
-2.16421e-06
-5.9784e-06
-6.9717e-06
-3.56689e-05
1.77444e-05
-0.232041
-2.72061
2.09328
0.0625631
0.0562611
0.000142632
-2.68232e-05
9.20854
0.0186804
1.31402e-05
0.0037538
1.07748e-08
3.71603e-05
-6.40112e-05
-0.345394
0.000419319
-4.98258e-05
4.38263e-05
0.0219621
5.73589e-06
-0.0669921
-6.441e-05
-0.0530213
0.0302305
-0.256145
-1.74464e-05
-2.72102e-05
-0.000104744
0.000245679
9.21296e-06
0.000215928
0.00125896
-0.195255
-1.36357e-05
0.304167
0.325352
-8.69146e-07
-0.100789
0.00021939
-0.00672003
0.00617423
3.12933e-06
6.77392e-05
0.00113438
7.17777e-05
-6.65068e-05
-8.73759e-06
-0.614139
-2.39481
0.000242115
1.64346e-05
0.0141252
-0.0026843
0.0535684
0.25518
3.2666e-05
-0.000368231
5.62023e-06
-3.45377e-05
0.00115491
0.00330696
-0.820939
1.58784e-05
0.00726387
-0.000116064
-0.70075
0.0155937
0.490878
3.82069e-05
-1.98317e-07
-0.167999
-0.075882
-0.000526021
-0.0441192
-0.000266778
0.474063
5.43005e-05
4.42601e-05
-0.0104558
-0.0236625
-0.000728746
2.94255e-05
0.0069764
-0.0345675
-0.00583342
0.000457312
6.33629e-06
-1.4005e-05
8.84229e-05
-0.0566041
1.93766
5.02675e-05
0.00174126
0.150149
0.00425658
0.0388948
0.0091892
-0.445926
0.710518
8.50305e-05
-0.000264973
-0.0759255
1.91934e-05
0.000323367
-0.0793577
-0.590568
-2.91835e-05
-9.26643e-05
0.288256
-0.0405089
-0.0375576
3.10351
-0.0977251
0.052186
-2.02307e-05
-1.13547e-05
1.25454e-05
-0.000136328
3.53096
-0.000209246
-0.0108669
-1.433
0.00249192
-1.79864e-05
-0.0345847
-5.49616e-06
-0.000171967
9.10063e-06
0.000608006
-1.57262
-3.66543
-1.56323e-05
-8.3272e-06
-0.00114134
-1.7937
0.0110904
-0.504666
0.000678267
2.61279e-05
0.000889867
-4.82749e-05
-0.00109526
-7.34175e-05
1.11571e-05
-1.76716
-0.140681
1.64669
0.00222426
1.67552e-05
-1.63287e-05
-1.80459
-7.88493e-05
4.46651e-06
6.57175e-05
-1.55036e-06
-6.14682e-06
0.234629
0.180188
-0.0399318
0.090593
-0.437652
-0.000489953
9.61143e-06
-0.308476
-0.00030431
-0.00327968
-4.02566
3.3468e-07
2.72232
0.0707722
0.00256415
-1.2446e-05
0.0565232
1.3255e-05
-0.0437368
0.000341451
0.00910598
4.4855e-05
2.255e-05
0.000262852
0.119423
0.00899782
-0.000193178
0.563671
0.600309
0.00136047
0.0193493
0.0158379
-4.18499e-05
-0.0477793
3.93129
0.000253496
-0.00143527
0.469134
-0.00043272
0.000323251
-3.52944e-05
0.0008271
0.000846707
0.00180039
1.58097e-05
-3.19594
-0.0465134
0.0100702
0.799991
-0.00603335
9.76096e-05
-0.0841779
-1.9109
-4.12396e-06
-0.809045
0.722452
-0.378241
7.24472e-07
-4.16951e-05
0.0634511
0.718451
-2.24134e-05
0.0364476
7.12927e-05
-2.68444e-06
0.00955265
-4.00809e-05
-0.0359799
0.0777539
0.0875597
-1.5495
2.00054e-05
0.000537271
-5.03632e-07
1.4269e-05
0.00349093
0.00376666
-0.000173371
-0.1927
-0.0193424
5.13545e-07
-0.000256012
-0.131246
-0.000260077
-0.0177677
-1.39078e-05
-0.0271622
-0.014162
0.0497256
-0.911833
1.27355
0.0076221
-0.000776353
-0.08276
-0.00186515
-1.29883e-05
0.00414274
0.0072756
0.137733
-0.902243
4.7707e-05
-0.000118316
-0.0102299
-0.0329282
-0.000453131
0.586098
9.73209e-06
-0.0379382
1.03343
-4.22409
2.95298e-05
0.0236678
0.0370076
8.64678e-05
0.000297601
2.36855
2.87275
1.61373
2.48815
3.07681e-05
-2.98562
-0.00705988
0.00052283
0.0248407
0.0040979
3.74994e-05
-1.83459e-05
-0.04104
0.129503
-5.72276e-05
-2.46534e-05
0.0618818
0.00893742
-0.0596654
0.00397092
0.290742
0.0226537
-5.6559e-06
0.792831
6.99399e-06
-0.000758711
-3.16676e-05
-7.49986e-05
-8.97872e-05
0.000182082
0.0100754
9.37448e-06
3.944
0.00319557
0.0258665
-0.572776
0.00336518
3.82758e-05
1.40011
0.0494272
-0.0234005
0.000309014
3.23101e-05
5.86952
-0.126223
-0.0340858
-0.000311671
-3.5147e-05
-4.98816e-05
10.395
0.194043
0.000153429
1.60538
-0.000132314
-8.1421e-06
0.0532015
-0.000207809
1.76685
-4.70268e-06
-0.0016674
0.017207
1.5522
-0.0378391
0.0112617
-0.0286514
-0.0140644
0.00508436
1.45931e-05
-1.04208
-7.24116e-05
-1.76348e-05
2.11308e-07
-1.3282e-05
0.344261
-0.000206634
-0.0105648
-0.0564921
-0.00115471
0.0382763
-0.00410312
0.0755769
-0.00629122
1.65255
0.475134
0.0251299
0.00522525
7.69061e-06
-0.0165598
-0.0029507
-0.000194062
0.0462897
0.640446
-0.0479848
-5.69705e-05
-6.84304e-05
-0.00443342
-9.25599e-06
4.01041e-06
0.000175131
0.0026191
-0.00149207
-0.000852213
0.0472871
0.00338376
0.0165457
-19.5908
0.0499064
-0.0709462
-0.0456489
0.802217
-0.00558473
-0.00321959
0.000272946
-7.60053e-06
0.010254
0.00633193
0.0492803
-0.000320293
0.000155018
5.90162e-05
0.0241224
-3.5525
-0.00101564
-3.36527e-05
-0.000144236
0.0582093
3.06566e-05
6.42531e-05
0.00238226
-0.00664381
-0.00114404
-0.00179571
0.0315055
3.72004e-06
0.00425455
7.78986e-05
-3.24417e-05
0.000756509
0.00800822
-1.92058e-05
0.000269897
-0.00181903
-2.75666
-8.5528e-06
0.77413
-4.76486e-05
0.0279008
-2.56735e-05
-1.53847e-05
-5.1001e-06
0.0137755
-0.000702598
-0.0696628
-0.580904
7.85038e-05
1.28902e-05
-6.57142e-05
1.1438
0.117181
-6.85603e-06
0.030289
-0.0586956
0.00153928
-0.00575707
4.25692e-05
1.27725e-05
2.05984e-05
0.0569458
0.000835011
-2.80592e-05
0.669334
1.14211e-05
-0.000408329
0.0110248
3.36971e-05
-0.0113762
0.00250743
0.020456
2.9284e-06
-4.37836e-06
-3.39739e-05
0.00162279
5.22129e-05
-1.3704e-06
-3.34375
0.473539
0.00427355
9.56644e-05
-0.120422
-6.4469e-06
1.16094e-05
-6.00828e-05
-0.50433
0.973007
-5.88402e-05
0.402325
-0.786463
0.00247626
-0.104444
0.295954
0.323478
0.0741429
0.00272467
0.00388669
0.0109076
0.00112902
-4.39598e-05
-5.98116e-05
-0.000272051
-0.122251
5.31372e-05
1.49724
-8.68153e-06
-0.025395
0.00568776
-8.84255e-06
3.91976e-05
-8.47465
-3.4051
-0.201727
0.0221716
3.24951e-05
0.00302972
1.58733
-0.000300267
0.0977626
0.000396075
-0.00087688
-0.0794715
-0.00210417
4.47152e-05
0.00914428
0.0127836
3.13805e-05
0.000874851
-0.296821
4.94682e-05
-4.21354e-05
-3.4246e-05
2.75052e-05
-0.368361
-4.85091e-05
0.0011529
-7.07353e-06
-0.000128265
-0.000140409
-7.78299e-06
0.0650344
0.00497291
2.48703e-05
-1.08181e-06
0.00877024
-9.7817e-05
-0.000414716
-0.812658
0.673774
0.000905706
-0.00301322
0.000251351
5.55603e-06
0.0143201
-0.472196
0.000344813
-0.0113327
-1.37143
-0.000315376
0.000360307
-0.00138963
0.00330926
0.000125157
2.07152
9.01589e-05
-1.43365e-05
-4.15647e-06
0.238031
0.469842
0.000199997
-0.000564256
1.18293e-05
-0.00100896
0.00483532
0.00923004
-1.8254e-05
0.00156957
-0.145535
-0.00110204
-7.44862e-06
3.91658e-06
0.720145
0.992726
3.91912e-05
0.430841
-0.000740512
0.0370511
-0.00457395
-3.14538e-05
-0.0480906
-0.000424336
-1.71412e-05
-0.324974
0.020943
3.70367e-05
4.03749e-05
0.0262209
3.37093e-05
2.2326e-05
-0.00447196
0.000200639
0.000534207
1.56367
-3.72481e-05
0.000152641
-0.147402
-6.14446e-05
-1.85751
1.77752
-5.92871e-05
0.00284549
0.00754181
-8.32646e-07
0.0176323
6.71436e-05
0.292258
-0.178401
-1.32968e-05
-0.219071
-0.742447
-3.32487e-07
-1.95589e-05
0.00525916
-0.000730126
0.0267121
0.0314319
-1.30612e-05
0.000710683
0.924853
-0.00011192
0.00225473
0.00526224
-7.39963e-05
-0.3531
0.00782475
-0.000368449
0.0155965
-0.333261
-0.000140857
0.294911
2.83099e-05
1.91186e-06
2.89776e-06
-0.000180502
0.221388
-4.36836e-05
-0.000931463
-15.087
0.0987386
-7.38236e-06
0.000146542
0.0604655
0.07929
1.60826e-05
-0.967377
0.000499422
0.00473313
0.000602622
2.18838e-05
-3.44634e-05
-4.39248e-06
4.14044e-05
-5.10483
-4.66219e-05
-2.63282e-05
3.09146e-05
3.52305
-0.000364262
-0.000522239
5.07216e-06
-0.000120871
7.74384e-06
0.000966084
0.245306
-0.0514516
0.000332767
-9.33922e-05
-4.17073e-05
2.06978e-06
0.00252256
0.718346
0.107364
6.48315e-06
-2.11472
3.91035e-05
-0.137822
0.0495171
0.335868
8.38593e-05
0.00530802
0.00651418
0.963285
0.0234334
3.72173e-05
1.02279
0.00809382
-0.000102818
-0.246409
-9.84987e-05
-1.1938e-05
-4.30283e-05
0.609932
1.45496e-05
-1.31792
-0.000120871
-2.6858
-0.00278509
-9.74001e-05
0.382877
0.000109698
-1.0462e-05
0.0161694
-1.26189e-05
-0.075171
0.249791
0.00256193
-3.46246e-06
0.0086823
9.9947e-06
0.00602162
0.000878636
-0.383892
-1.1451e-05
3.15361e-05
0.000113806
0.000288002
0.0013916
0.26149
-0.0714591
-0.000112785
-0.00164056
2.96592e-05
0.229617
-0.235402
0.0134284
1.15046e-05
-6.53251e-05
-0.000345013
-0.36107
6.15804e-06
-0.000239081
-0.054452
0.00639428
-1.14281e-05
0.0560945
0.00657117
4.62927e-05
6.52321e-05
0.00911994
-0.0554447
0.00397485
0.000833852
-0.0683254
0.0710317
-0.0137089
7.31627e-05
1.72106e-05
1.7e-05
-5.62307e-05
0.011468
0.00270479
-0.000346956
0.00608746
2.92167
-4.32449e-05
-1.63974e-05
0.61926
0.0930663
0.00826315
0.0115415
7.23802e-05
-2.06498e-05
1.57781e-05
5.50987e-05
4.08621e-05
0.00142794
1.07578e-05
-2.32599e-05
-3.04653e-05
2.20115e-05
1.29293e-05
3.18422e-05
5.97929e-05
-0.000776253
-3.30382e-05
3.63272e-05
5.00554e-05
-2.93498e-05
1.11794e-06
-0.0160319
-2.10022e-05
-2.62999e-05
0.0205348
-2.67489e-06
2.27733e-05
1.27271e-05
-0.000245478
0.791432
-0.58074
-0.00721679
0.458319
1.40477
0.00547425
-2.39501e-05
0.00220219
5.26543e-06
0.031694
-0.000315499
1.85507e-06
1.24787e-05
0.00327402
-1.99062e-05
0.000158459
-1.1792e-05
-0.173792
0.0153678
-5.60972e-07
3.50787
1.23874
-9.22493e-05
-0.00210124
-1.86256e-05
-4.23339e-06
0.608783
-4.18535e-05
0.00294631
0.00943859
-1.31531e-05
-1.23866e-05
0.00368539
-0.0879336
-6.08608e-05
-0.00017198
0.0362376
1.66078e-05
-0.0935725
0.00282054
-5.25294
1.45731e-05
0.00809587
-1.4495e-05
2.30012e-07
0.00534583
0.00411838
0.442431
-0.0531336
1.1334
-0.341017
-0.00478574
0.0106314
9.9148e-05
-0.00509604
-8.48893e-05
3.18952e-05
-0.000371961
4.09449e-06
-8.06094e-06
1.23824e-05
3.70368e-05
0.00268427
-4.79794
0.0201199
-0.0315429
0.887293
-0.000153644
-6.6871e-05
-9.05585e-05
2.57118e-05
0.00637823
2.68231e-05
-6.40913e-05
1.94212e-06
-0.000148164
-2.92421e-05
0.00335824
0.000917626
0.00110977
-1.41826e-05
-0.000132435
-0.000299866
0.20135
1.36106
-3.51386e-05
0.0009058
-1.78221e-05
0.932342
0.0642764
2.47414e-05
4.91622e-05
-1.35567e-05
-2.59592e-05
-0.0363605
0.0462449
1.42442
-1.35268e-05
0.284101
1.78417e-05
0.100258
0.0027169
5.01268e-06
0.00022621
-0.242755
2.23042e-05
0.000186451
-0.000293086
0.0045156
0.945848
-4.7182e-05
5.32377e-05
0.00028182
-0.0777883
7.79585e-05
-0.0349669
0.171311
5.4571e-06
6.49696e-05
0.515069
0.00338055
1.48233e-05
-0.41992
2.48747
0.238494
0.013696
-0.000247383
-0.124045
-6.43842e-06
1.42242
-0.32304
0.200231
0.00354132
-3.44408e-06
0.138147
7.16169e-05
1.55901e-05
1.81835e-05
-5.01292
-3.399e-05
-0.187658
-0.00023665
-5.32021e-06
2.89978e-05
-0.0205821
-4.37215e-05
-6.83796e-06
-4.00457e-05
-0.665166
-0.333357
1.74978
0.055808
0.000248591
9.7215e-06
-2.69008e-05
-0.0367097
-0.00859718
2.79813e-05
0.002032
0.288695
-1.20876
-1.81279e-05
-0.323849
1.32072
-0.000395902
2.28515e-05
-5.01105e-05
4.83707e-05
4.65318e-06
3.62286e-05
6.17246e-05
-0.000113315
-0.00100232
4.51427e-05
0.000519668
-1.29691e-05
1.58142e-05
0.61883
0.00341516
-0.000388901
9.14713e-06
-0.0202369
-1.90295e-06
-8.88338e-05
8.8193e-05
1.41568e-05
-0.0867483
-0.000386178
1.45459e-05
-0.000101389
-7.46779e-06
-7.81278e-05
-9.91988e-06
0.0202481
1.59877e-05
-1.65411e-05
-4.57668
-0.000369035
0.0109324
0.00043794
-2.80709e-05
0.00480054
7.05359e-05
5.84954e-05
1.4093e-05
2.32274
-0.000327665
1.21472e-05
0.0568889
3.33928e-05
-1.34952e-05
3.24864e-05
0.726449
5.68121e-05
-0.00232183
-0.000146047
-2.47559e-05
-0.000260379
-1.7152e-05
0.000133463
-8.59302e-05
0.000759231
-9.8355e-06
0.000161819
3.28224e-05
-0.0159413
0.0225868
4.19155e-05
-0.00143637
-0.354069
-8.44175e-06
1.08717e-06
0.10545
6.7752e-05
-0.00668389
-0.0260106
-0.000389144
2.74527e-05
0.000263858
1.28527e-06
-0.000564578
2.96491e-07
2.07569e-05
6.73978e-05
-6.37664e-05
-7.45446e-05
-6.37255e-05
-9.46994e-06
0.00593052
4.91615e-06
-3.44879e-05
-1.1195e-05
-0.00142751
0.0140213
2.01903e-05
-3.02888e-05
-0.0202423
-0.000318087
-1.53628e-05
-0.000336011
2.40797
-0.126063
-1.256e-05
9.03202e-06
-0.000672969
7.72537e-06
-1.93996e-05
0.000323409
-0.0244
2.90204e-05
0.000433233
-1.42761e-05
4.12798e-05
-1.69017e-05
-7.68567e-05
-9.45407e-05
0.000526729
0.000381094
-0.000308549
-0.10079
-6.42233e-05
8.44379e-05
2.15945e-05
0.0358938
-3.1723
-0.306641
-6.82348e-06
0.0021935
0.00022821
-5.32183e-05
-1.15396e-05
0.000234438
-0.0633876
-0.0545107
-3.97079e-05
-0.000329198
0.328484
-2.09524e-05
0.020094
0.386958
-0.101278
-0.000435164
-1.07836e-05
0.00106179
0.00126555
0.00731385
1.32174
-1.32328
-0.0859189
-3.71979e-05
4.12587e-05
-2.4259e-06
0.0081256
7.51391e-06
2.82833e-05
0.000659065
-2.07607e-05
8.90081e-06
-4.87492e-06
-8.43088e-05
-1.86079e-05
6.43565e-05
-3.24955e-05
0.0203928