/*--------------------------------*- C++ -*----------------------------------*\
| =========                 |                                                 |
| \\      /  F ield         | OpenFOAM: The Open Source CFD Toolbox           |
|  \\    /   O peration     | Version:  v2012                                 |
|   \\  /    A nd           | Website:  www.openfoam.com                      |
|    \\/     M anipulation  |                                                 |
\*---------------------------------------------------------------------------*/
FoamFile
{
    version     2.0;
    format      ascii;
    class       pointVectorField;
    location    "50";
    object      pointDisplacement;
}
// * * * * * * * * * * * * * * * * * * * * * * * * * * * * * * * * * * * * * //

dimensions      [0 1 0 0 0 0 0];


internalField   nonuniform List<vector> 
10232
(
(0 0 0)
(0 2.20392e-06 0)
(0 2.20392e-06 0)
(0 2.20392e-06 0)
(0 2.20392e-06 0)
(0 0 0)
(0 2.20392e-06 0)
(0 2.20392e-06 0)
(0 2.20392e-06 0)
(0 2.20392e-06 0)
(0 0 0)
(0 0 0)
(0 0 0)
(0 0 0)
(0 0 0)
(0 0 0)
(0 0 0)
(0 0 0)
(0 0 0)
(0 0 0)
(0 0 0)
(0 0 0)
(0 0 0)
(0 0 0)
(0 0 0)
(0 0 0)
(0 0 0)
(0 0 0)
(0 0 0)
(0 0 0)
(0 0 0)
(0 0 0)
(0 0 0)
(0 0 0)
(0 0 0)
(0 0 0)
(0 0 0)
(0 0 0)
(0 0 0)
(0 0 0)
(0 0 0)
(0 0 0)
(0 0 0)
(0 0 0)
(0 0 0)
(0 0 0)
(0 0 0)
(0 0 0)
(0 0 0)
(0 0 0)
(0 0 0)
(0 0 0)
(0 0 0)
(0 0 0)
(0 0 0)
(0 0 0)
(0 0 0)
(0 0 0)
(0 0 0)
(0 0 0)
(0 0 0)
(0 0 0)
(0 0 0)
(0 0 0)
(0 0 0)
(0 0 0)
(0 0 0)
(0 0 0)
(0 0 0)
(0 0 0)
(0 0 0)
(0 0 0)
(0 0 0)
(0 0 0)
(0 0 0)
(0 0 0)
(0 0 0)
(0 0 0)
(0 0 0)
(0 0 0)
(0 0 0)
(0 0 0)
(0 0 0)
(0 0 0)
(0 2.20392e-06 0)
(0 2.20392e-06 0)
(0 2.20392e-06 0)
(0 2.20392e-06 0)
(0 2.20392e-06 0)
(0 2.20392e-06 0)
(0 2.20392e-06 0)
(0 2.20392e-06 0)
(0 2.20392e-06 0)
(0 2.20392e-06 0)
(0 2.20392e-06 0)
(0 2.20392e-06 0)
(0 2.20392e-06 0)
(0 2.20392e-06 0)
(0 2.20392e-06 0)
(0 2.20392e-06 0)
(0 2.20392e-06 0)
(0 2.20392e-06 0)
(0 2.20392e-06 0)
(0 2.20392e-06 0)
(0 2.20392e-06 0)
(0 2.20392e-06 0)
(0 2.20392e-06 0)
(0 2.20392e-06 0)
(0 2.20392e-06 0)
(0 2.20392e-06 0)
(0 2.20392e-06 0)
(0 2.20392e-06 0)
(0 2.20392e-06 0)
(0 2.20392e-06 0)
(0 2.20392e-06 0)
(0 2.20392e-06 0)
(0 2.20392e-06 0)
(0 2.20392e-06 0)
(0 2.20392e-06 0)
(0 2.20392e-06 0)
(0 2.20392e-06 0)
(0 2.20392e-06 0)
(0 2.20392e-06 0)
(0 2.20392e-06 0)
(0 2.20392e-06 0)
(0 2.20392e-06 0)
(0 2.20392e-06 0)
(0 2.20392e-06 0)
(0 2.20392e-06 0)
(0 2.20392e-06 0)
(0 2.20392e-06 0)
(0 2.20392e-06 0)
(0 2.20392e-06 0)
(0 2.20392e-06 0)
(0 2.20392e-06 0)
(0 2.20392e-06 0)
(0 2.20392e-06 0)
(0 2.20392e-06 0)
(0 2.20392e-06 0)
(0 2.20392e-06 0)
(0 2.20392e-06 0)
(0 2.20392e-06 0)
(0 2.20392e-06 0)
(0 2.20392e-06 0)
(0 2.20392e-06 0)
(0 2.20392e-06 0)
(0 2.20392e-06 0)
(0 2.20392e-06 0)
(0 2.20392e-06 0)
(0 2.20392e-06 0)
(0 2.20392e-06 0)
(0 2.20392e-06 0)
(0 2.20392e-06 0)
(0 2.20392e-06 0)
(0 2.20392e-06 0)
(0 2.20392e-06 0)
(0 2.20392e-06 0)
(0 2.20392e-06 0)
(0 2.20392e-06 0)
(0 2.20392e-06 0)
(0 2.20392e-06 0)
(0 2.20392e-06 0)
(0 2.20392e-06 0)
(0 2.20392e-06 0)
(0 2.20392e-06 0)
(0 2.20392e-06 0)
(0 2.20392e-06 0)
(0 2.20392e-06 0)
(0 2.20392e-06 0)
(0 2.20392e-06 0)
(0 2.20392e-06 0)
(0 2.20392e-06 0)
(0 2.20392e-06 0)
(0 2.20392e-06 0)
(0 2.20392e-06 0)
(0 2.20392e-06 0)
(0 2.20392e-06 0)
(0 2.20392e-06 0)
(0 2.20392e-06 0)
(0 2.20392e-06 0)
(0 2.20392e-06 0)
(0 2.20392e-06 0)
(0 2.20392e-06 0)
(0 2.20392e-06 0)
(0 2.20392e-06 0)
(0 2.20392e-06 0)
(0 2.20392e-06 0)
(0 2.20392e-06 0)
(0 2.20392e-06 0)
(0 2.20392e-06 0)
(0 2.20392e-06 0)
(0 2.20392e-06 0)
(0 2.20392e-06 0)
(0 2.20392e-06 0)
(0 2.20392e-06 0)
(0 2.20392e-06 0)
(0 2.20392e-06 0)
(0 2.20392e-06 0)
(0 2.20392e-06 0)
(0 2.20392e-06 0)
(0 0 0)
(0 0 0)
(0 0 0)
(0 0 0)
(0 0 0)
(0 0 0)
(0 0 0)
(0 0 0)
(0 0 0)
(0 0 0)
(0 0 0)
(0 0 0)
(0 0 0)
(0 0 0)
(0 0 0)
(0 0 0)
(0 0 0)
(0 0 0)
(0 0 0)
(0 0 0)
(0 0 0)
(0 0 0)
(0 0 0)
(0 0 0)
(0 0 0)
(0 0 0)
(0 0 0)
(0 0 0)
(0 0 0)
(0 0 0)
(0 0 0)
(0 0 0)
(0 0 0)
(0 0 0)
(0 0 0)
(0 0 0)
(0 0 0)
(0 0 0)
(0 0 0)
(0 0 0)
(0 0 0)
(0 0 0)
(0 0 0)
(0 0 0)
(0 0 0)
(0 0 0)
(0 0 0)
(0 0 0)
(0 0 0)
(0 0 0)
(0 0 0)
(0 0 0)
(0 0 0)
(0 0 0)
(0 0 0)
(0 0 0)
(0 0 0)
(0 0 0)
(0 0 0)
(0 0 0)
(0 0 0)
(0 0 0)
(0 0 0)
(0 0 0)
(0 0 0)
(0 0 0)
(0 0 0)
(0 0 0)
(0 0 0)
(0 0 0)
(0 0 0)
(0 0 0)
(0 0 0)
(0 0 0)
(0 2.20392e-06 0)
(0 2.20392e-06 0)
(0 2.20392e-06 0)
(0 2.20392e-06 0)
(0 2.20392e-06 0)
(0 2.20392e-06 0)
(0 2.20392e-06 0)
(0 2.20392e-06 0)
(0 2.20392e-06 0)
(0 2.20392e-06 0)
(0 2.20392e-06 0)
(0 2.20392e-06 0)
(0 2.20392e-06 0)
(0 2.20392e-06 0)
(0 2.20392e-06 0)
(0 2.20392e-06 0)
(0 2.20392e-06 0)
(0 2.20392e-06 0)
(0 2.20392e-06 0)
(0 2.20392e-06 0)
(0 2.20392e-06 0)
(0 2.20392e-06 0)
(0 2.20392e-06 0)
(0 2.20392e-06 0)
(0 2.20392e-06 0)
(0 2.20392e-06 0)
(0 2.20392e-06 0)
(0 2.20392e-06 0)
(0 2.20392e-06 0)
(0 2.20392e-06 0)
(0 2.20392e-06 0)
(0 2.20392e-06 0)
(0 2.20392e-06 0)
(0 2.20392e-06 0)
(0 2.20392e-06 0)
(0 2.20392e-06 0)
(0 2.20392e-06 0)
(0 2.20392e-06 0)
(0 2.20392e-06 0)
(0 2.20392e-06 0)
(0 2.20392e-06 0)
(0 2.20392e-06 0)
(0 2.20392e-06 0)
(0 2.20392e-06 0)
(0 2.20392e-06 0)
(0 2.20392e-06 0)
(0 2.20392e-06 0)
(0 2.20392e-06 0)
(0 2.20392e-06 0)
(0 2.20392e-06 0)
(0 2.20392e-06 0)
(0 2.20392e-06 0)
(0 2.20392e-06 0)
(0 2.20392e-06 0)
(0 2.20392e-06 0)
(0 2.20392e-06 0)
(0 2.20392e-06 0)
(0 2.20392e-06 0)
(0 2.20392e-06 0)
(0 2.20392e-06 0)
(0 2.20392e-06 0)
(0 2.20392e-06 0)
(0 2.20392e-06 0)
(0 2.20392e-06 0)
(0 2.20392e-06 0)
(0 2.20392e-06 0)
(0 2.20392e-06 0)
(0 2.20392e-06 0)
(0 2.20392e-06 0)
(0 2.20392e-06 0)
(0 2.20392e-06 0)
(0 2.20392e-06 0)
(0 2.20392e-06 0)
(0 2.20392e-06 0)
(0 2.20392e-06 0)
(0 2.20392e-06 0)
(0 2.20392e-06 0)
(0 2.20392e-06 0)
(0 2.20392e-06 0)
(0 2.20392e-06 0)
(0 2.20392e-06 0)
(0 2.20392e-06 0)
(0 2.20392e-06 0)
(0 2.20392e-06 0)
(0 2.20392e-06 0)
(0 2.20392e-06 0)
(0 2.20392e-06 0)
(0 2.20392e-06 0)
(0 2.20392e-06 0)
(0 2.20392e-06 0)
(0 2.20392e-06 0)
(0 2.20392e-06 0)
(0 2.20392e-06 0)
(0 2.20392e-06 0)
(0 2.20392e-06 0)
(0 2.20392e-06 0)
(0 2.20392e-06 0)
(0 2.20392e-06 0)
(0 2.20392e-06 0)
(0 2.20392e-06 0)
(0 2.20392e-06 0)
(0 2.20392e-06 0)
(0 2.20392e-06 0)
(0 2.20392e-06 0)
(0 2.20392e-06 0)
(0 2.20392e-06 0)
(0 2.20392e-06 0)
(0 2.20392e-06 0)
(0 2.20392e-06 0)
(0 2.20392e-06 0)
(0 2.20392e-06 0)
(0 2.20392e-06 0)
(0 2.20392e-06 0)
(0 2.20392e-06 0)
(0 2.20392e-06 0)
(0 2.20392e-06 0)
(0 2.19313e-06 0)
(0 2.19797e-06 0)
(0 2.19862e-06 0)
(0 2.17159e-06 0)
(0 2.19953e-06 0)
(0 2.22098e-06 0)
(0 2.20395e-06 0)
(0 2.198e-06 0)
(0 2.2041e-06 0)
(0 2.20837e-06 0)
(0 2.19735e-06 0)
(0 2.24486e-06 0)
(0 2.18294e-06 0)
(0 2.19389e-06 0)
(0 -2.26893e-05 0)
(0 -4.70212e-05 0)
(0 -1.68749e-05 0)
(0 -6.87755e-05 0)
(0 -4.06435e-05 0)
(0 -8.64948e-05 0)
(0 2.21406e-06 0)
(0 2.20237e-06 0)
(0 -3.85886e-05 0)
(0 2.19847e-06 0)
(0 2.19638e-06 0)
(0 -2.22901e-05 0)
(0 -3.3849e-05 0)
(0 -2.91058e-05 0)
(0 -1.63401e-05 0)
(0 2.19766e-06 0)
(0 2.20122e-06 0)
(0 2.20398e-06 0)
(0 2.20276e-06 0)
(0 2.20017e-06 0)
(0 2.20211e-06 0)
(0 -1.60505e-05 0)
(0 -8.50605e-06 0)
(0 -8.18774e-05 0)
(0 -6.50733e-05 0)
(0 -5.27777e-05 0)
(0 -2.57361e-05 0)
(0 -1.49759e-05 0)
(0 2.19409e-06 0)
(0 2.19365e-06 0)
(0 2.196e-06 0)
(0 2.19816e-06 0)
(0 2.22277e-06 0)
(0 2.20086e-06 0)
(0 -8.63346e-06 0)
(0 -7.31853e-06 0)
(0 -8.23067e-05 0)
(0 -4.90386e-05 0)
(0 -2.35674e-05 0)
(0 -4.00434e-05 0)
(0 -3.42669e-05 0)
(0 -2.00826e-05 0)
(0 -1.24868e-05 0)
(0 -1.96876e-05 0)
(0 -3.21164e-06 0)
(0 -0.000641896 0)
(0 -0.000655211 0)
(0 -0.000616509 0)
(0 -0.00062945 0)
(0 -0.000591797 0)
(0 -0.000604845 0)
(0 -0.000568981 0)
(0 -0.000581985 0)
(0 -0.000547936 0)
(0 -0.000561078 0)
(0 -0.000528385 0)
(0 -0.000542113 0)
(0 -0.000510366 0)
(0 -0.000524243 0)
(0 -0.000493738 0)
(0 -0.000478775 0)
(0 -0.000464277 0)
(0 -0.000479126 0)
(0 -0.000451665 0)
(0 -0.000466429 0)
(0 -0.000441485 0)
(0 -0.000448315 0)
(0 -0.000615759 0)
(0 -0.0004552 0)
(0 -0.000431588 0)
(0 -0.00044544 0)
(0 -0.000422051 0)
(0 -0.00043664 0)
(0 -0.000414796 0)
(0 -0.000399097 0)
(0 -0.000393949 0)
(0 -0.000377222 0)
(0 -0.000373804 0)
(0 -0.000389901 0)
(0 -0.000371886 0)
(0 -0.000356595 0)
(0 -0.000459513 0)
(0 -0.00038762 0)
(0 -0.000372 0)
(0 -0.000386997 0)
(0 -0.000372753 0)
(0 -0.000386744 0)
(0 -0.000373564 0)
(0 -0.000385999 0)
(0 -0.000374587 0)
(0 -0.000361498 0)
(0 -0.000365234 0)
(0 -0.000351616 0)
(0 -0.00035779 0)
(0 -0.00034365 0)
(0 -0.000351735 0)
(0 -0.000336522 0)
(0 -0.000346267 0)
(0 -0.00032772 0)
(0 -0.0003413 0)
(0 -0.000324836 0)
(0 -0.00033809 0)
(0 -0.000319948 0)
(0 -0.000337091 0)
(0 -0.000321716 0)
(0 -0.000339013 0)
(0 -0.00032427 0)
(0 -0.000343459 0)
(0 -0.000356641 0)
(0 -0.000363347 0)
(0 -0.000374926 0)
(0 -0.000383749 0)
(0 -0.000369445 0)
(0 -0.000393749 0)
(0 -0.000404286 0)
(0 -0.000412497 0)
(0 -0.000424323 0)
(0 -0.000430667 0)
(0 -0.000329146 0)
(0 -0.000442951 0)
(0 -0.000447498 0)
(0 -0.000459227 0)
(0 -0.00046222 0)
(0 -0.000473009 0)
(0 -0.000473653 0)
(0 -0.000438957 0)
(0 -0.000310184 0)
(0 -0.000483593 0)
(0 -0.000482029 0)
(0 -0.000473675 0)
(0 -0.0004807 0)
(0 -0.000491419 0)
(0 -0.000473582 0)
(0 -0.000479635 0)
(0 -0.000472051 0)
(0 -0.000477179 0)
(0 -0.000468242 0)
(0 -0.000471985 0)
(0 -0.000815937 0)
(0 -0.0008138 0)
(0 -0.000803773 0)
(0 -0.000800875 0)
(0 -0.000791378 0)
(0 -0.000787832 0)
(0 -0.000461705 0)
(0 -0.00046401 0)
(0 -0.000474691 0)
(0 -0.000465419 0)
(0 -0.000474823 0)
(0 -0.000778225 0)
(0 -0.000773244 0)
(0 -0.000601522 0)
(0 -0.000762633 0)
(0 -0.000464583 0)
(0 -0.00047264 0)
(0 -0.000494452 0)
(0 -0.000502571 0)
(0 -0.000452758 0)
(0 -0.000460545 0)
(0 -0.000467405 0)
(0 -0.000453037 0)
(0 -0.000458282 0)
(0 -0.000756638 0)
(0 -0.000745568 0)
(0 -0.000763512 0)
(0 -0.00044185 0)
(0 -0.000445102 0)
(0 -0.000746756 0)
(0 -0.000750531 0)
(0 -0.000426606 0)
(0 -0.000445856 0)
(0 -0.000733635 0)
(0 -0.000734858 0)
(0 -0.000428559 0)
(0 -0.000408222 0)
(0 -0.00039866 0)
(0 -0.000446354 0)
(0 -0.000717425 0)
(0 -0.000716143 0)
(0 -0.000429782 0)
(0 -0.000446238 0)
(0 -0.000699777 0)
(0 -0.000695519 0)
(0 -0.000700255 0)
(0 -0.000429908 0)
(0 -0.000445115 0)
(0 -0.000681013 0)
(0 -0.000673854 0)
(0 -0.000746285 0)
(0 -0.000729772 0)
(0 -0.000428962 0)
(0 -0.000443624 0)
(0 -0.000450542 0)
(0 -0.000441583 0)
(0 -0.00043927 0)
(0 -0.000431021 0)
(0 -0.000428401 0)
(0 -0.00042072 0)
(0 -0.000417708 0)
(0 -0.00041044 0)
(0 -0.000407749 0)
(0 -0.000400469 0)
(0 -0.000399034 0)
(0 -0.000390721 0)
(0 -0.000391839 0)
(0 -0.000388549 0)
(0 -0.00038151 0)
(0 -0.000385027 0)
(0 -0.000372377 0)
(0 -0.000376851 0)
(0 -0.000660666 0)
(0 -0.000650803 0)
(0 -0.000665201 0)
(0 -0.000639463 0)
(0 -0.000653646 0)
(0 -0.000626017 0)
(0 -0.000639452 0)
(0 -0.000611056 0)
(0 -0.000623873 0)
(0 -0.000593959 0)
(0 -0.000605792 0)
(0 -0.000574958 0)
(0 -0.000586266 0)
(0 -0.000554665 0)
(0 -0.000543344 0)
(0 -0.00052344 0)
(0 -0.000533756 0)
(0 -0.000502209 0)
(0 -0.000511542 0)
(0 -0.000480147 0)
(0 -0.000489296 0)
(0 -0.000458711 0)
(0 -0.000467762 0)
(0 -0.000437216 0)
(0 -0.000445981 0)
(0 -0.000415587 0)
(0 -0.000424344 0)
(0 -0.000394024 0)
(0 -0.000402983 0)
(0 -0.00037308 0)
(0 -0.000382537 0)
(0 -0.000352871 0)
(0 -0.00034407 0)
(0 -0.000324446 0)
(0 -0.000333324 0)
(0 -0.000305428 0)
(0 -0.000314463 0)
(0 -0.000287008 0)
(0 -0.000278736 0)
(0 -0.000260838 0)
(0 -0.000253276 0)
(0 -0.000268925 0)
(0 -0.000243507 0)
(0 -0.000251321 0)
(0 -0.000226861 0)
(0 -0.000234634 0)
(0 -0.000210954 0)
(0 -0.000218649 0)
(0 -0.000196126 0)
(0 -0.000181773 0)
(0 -0.000175917 0)
(0 -0.000428697 0)
(0 -0.000208349 0)
(0 -0.000179114 0)
(0 -0.000198963 0)
(0 -0.000230192 0)
(0 -0.000220867 0)
(0 -0.000190482 0)
(0 -0.000212728 0)
(0 -0.000183296 0)
(0 -0.000206049 0)
(0 -0.000177101 0)
(0 -0.000200762 0)
(0 -0.000172645 0)
(0 -0.000197007 0)
(0 -0.000169927 0)
(0 -0.000193694 0)
(0 -0.000168421 0)
(0 -0.000228611 0)
(0 -0.000191241 0)
(0 -0.000167645 0)
(0 -0.000190401 0)
(0 -0.000166587 0)
(0 -0.000191016 0)
(0 -0.000167599 0)
(0 -0.000193206 0)
(0 -0.000170603 0)
(0 -0.000219138 0)
(0 -0.00019654 0)
(0 -0.000174156 0)
(0 -0.000201169 0)
(0 -0.000179383 0)
(0 -0.000207244 0)
(0 -0.000186053 0)
(0 -0.000214387 0)
(0 -0.000193829 0)
(0 -0.000166653 0)
(0 -0.000175538 0)
(0 -0.000150126 0)
(0 -0.000158953 0)
(0 -0.000133064 0)
(0 -0.000145097 0)
(0 -0.000124432 0)
(0 -0.000135507 0)
(0 -0.00011573 0)
(0 -0.00012637 0)
(0 -0.000104389 0)
(0 -0.000117114 0)
(0 -9.87306e-05 0)
(0 -0.000109897 0)
(0 -9.31559e-05 0)
(0 -0.000104186 0)
(0 -8.80914e-05 0)
(0 -9.92388e-05 0)
(0 -8.20674e-05 0)
(0 -9.50888e-05 0)
(0 -8.11416e-05 0)
(0 -9.34477e-05 0)
(0 -7.99446e-05 0)
(0 -9.2292e-05 0)
(0 -7.9056e-05 0)
(0 -9.0869e-05 0)
(0 -7.84716e-05 0)
(0 -8.99112e-05 0)
(0 -7.8275e-05 0)
(0 -8.94915e-05 0)
(0 -7.8553e-05 0)
(0 -8.98895e-05 0)
(0 -7.93332e-05 0)
(0 -0.000105261 0)
(0 -9.07252e-05 0)
(0 -8.06295e-05 0)
(0 -0.000139277 0)
(0 -9.21243e-05 0)
(0 -8.2402e-05 0)
(0 -7.15965e-05 0)
(0 -7.37958e-05 0)
(0 -9.39054e-05 0)
(0 -6.35994e-05 0)
(0 -6.62763e-05 0)
(0 -0.00025405 0)
(0 -5.65257e-05 0)
(0 -5.95088e-05 0)
(0 -0.000201906 0)
(0 -0.000237388 0)
(0 -0.000101183 0)
(0 -6.76654e-05 0)
(0 -5.00919e-05 0)
(0 -5.25703e-05 0)
(0 -0.000148783 0)
(0 -6.35305e-05 0)
(0 -5.83412e-05 0)
(0 -6.85499e-05 0)
(0 -6.32774e-05 0)
(0 -5.36753e-05 0)
(0 -5.86557e-05 0)
(0 -4.93341e-05 0)
(0 -5.49584e-05 0)
(0 -0.000142257 0)
(0 -4.59577e-05 0)
(0 -5.22602e-05 0)
(0 -4.34212e-05 0)
(0 -5.01565e-05 0)
(0 -4.06984e-05 0)
(0 -4.85287e-05 0)
(0 -4.0579e-05 0)
(0 -4.82637e-05 0)
(0 -4.08798e-05 0)
(0 -4.94106e-05 0)
(0 -4.02914e-05 0)
(0 -5.11402e-05 0)
(0 -5.82462e-05 0)
(0 -0.000107437 0)
(0 -6.87601e-05 0)
(0 -4.33882e-05 0)
(0 -5.39203e-05 0)
(0 -6.22365e-05 0)
(0 -6.57147e-05 0)
(0 -7.41918e-05 0)
(0 -7.88165e-05 0)
(0 -0.00051066 0)
(0 -7.34219e-05 0)
(0 -8.71143e-05 0)
(0 -9.3264e-05 0)
(0 -0.000413015 0)
(0 -3.72928e-05 0)
(0 -4.68074e-05 0)
(0 -0.000102636 0)
(0 -0.000109447 0)
(0 -0.000612814 0)
(0 -0.000497903 0)
(0 -0.000120552 0)
(0 -0.000127305 0)
(0 -0.000361326 0)
(0 -0.000364489 0)
(0 -0.00042676 0)
(0 -0.000442105 0)
(0 -0.000409167 0)
(0 -0.000139214 0)
(0 -0.0001339 0)
(0 -0.000146544 0)
(0 -0.000724914 0)
(0 -0.000708624 0)
(0 -9.93197e-05 0)
(0 -0.000348968 0)
(0 -0.000353204 0)
(0 -0.000343714 0)
(0 -3.37931e-05 0)
(0 -0.000158908 0)
(0 -0.000166896 0)
(0 -0.000336648 0)
(0 -0.000341868 0)
(0 -0.000423883 0)
(0 -0.000441127 0)
(0 -0.000507036 0)
(0 -3.71978e-05 0)
(0 -4.08173e-05 0)
(0 -0.000698966 0)
(0 -0.000683187 0)
(0 -0.000515738 0)
(0 -3.17807e-05 0)
(0 -3.54111e-05 0)
(0 -2.71173e-05 0)
(0 -3.06804e-05 0)
(0 -2.34652e-05 0)
(0 -2.69864e-05 0)
(0 -2.03515e-05 0)
(0 -2.40352e-05 0)
(0 -3.12341e-05 0)
(0 -2.86193e-05 0)
(0 -3.6508e-05 0)
(0 -3.41376e-05 0)
(0 -2.64667e-05 0)
(0 -4.28792e-05 0)
(0 -3.21599e-05 0)
(0 -2.49015e-05 0)
(0 -3.05294e-05 0)
(0 -2.39551e-05 0)
(0 -1.73571e-05 0)
(0 -2.93433e-05 0)
(0 -2.32281e-05 0)
(0 -2.87017e-05 0)
(0 -2.27754e-05 0)
(0 -2.93565e-05 0)
(0 -2.25097e-05 0)
(0 -0.000179248 0)
(0 -0.000188809 0)
(0 -0.000324789 0)
(0 -0.000331552 0)
(0 -0.000348088 0)
(0 -0.000340411 0)
(0 -0.0004213 0)
(0 -0.000440186 0)
(0 -0.000521494 0)
(0 -0.000530713 0)
(0 -1.7449e-05 0)
(0 -1.73586e-05 0)
(0 -2.23646e-05 0)
(0 -1.75081e-05 0)
(0 -0.000322487 0)
(0 -0.000334168 0)
(0 -0.000353331 0)
(0 -0.00035 0)
(0 -0.00037086 0)
(0 -0.000373809 0)
(0 -0.000393381 0)
(0 -0.000398788 0)
(0 -0.000378271 0)
(0 -0.000404826 0)
(0 -0.000426908 0)
(0 -0.000435012 0)
(0 -0.000455804 0)
(0 -0.000465518 0)
(0 -0.000443262 0)
(0 -0.000474206 0)
(0 -0.00049524 0)
(0 -0.000503994 0)
(0 -0.000523886 0)
(0 -0.000532219 0)
(0 -0.000552053 0)
(0 -0.000559994 0)
(0 -0.000580553 0)
(0 -0.000588709 0)
(0 -0.000565298 0)
(0 -0.000594736 0)
(0 -0.000619164 0)
(0 -0.000627197 0)
(0 -0.000651869 0)
(0 -0.000662978 0)
(0 -0.000687059 0)
(0 -0.000450726 0)
(0 -0.000672312 0)
(0 -0.000200587 0)
(0 -0.000212157 0)
(0 -0.000402409 0)
(0 -1.85567e-05 0)
(0 -0.000668301 0)
(0 -0.000653829 0)
(0 -0.000667642 0)
(0 -0.000638777 0)
(0 -0.000650983 0)
(0 -0.000622418 0)
(0 -0.000634757 0)
(0 -0.000605981 0)
(0 -0.000618793 0)
(0 -0.00059013 0)
(0 -0.000617175 0)
(0 -0.000315431 0)
(0 -3.49754e-05 0)
(0 -0.000222917 0)
(0 -0.000236109 0)
(0 -2.27324e-05 0)
(0 -1.79246e-05 0)
(0 -0.00024632 0)
(0 -0.000260756 0)
(0 -0.000270685 0)
(0 -1.30146e-05 0)
(0 -0.000286152 0)
(0 -0.000295968 0)
(0 -0.000418346 0)
(0 -0.000404732 0)
(0 -0.000384689 0)
(0 -0.000378477 0)
(0 -0.000357797 0)
(0 -0.00034922 0)
(0 -0.0003286 0)
(0 -0.00031868 0)
(0 -0.000298676 0)
(0 -0.000308742 0)
(0 -0.000279137 0)
(0 -0.000289474 0)
(0 -0.00025857 0)
(0 -0.000268373 0)
(0 -0.000288618 0)
(0 -0.000307696 0)
(0 -0.000537593 0)
(0 -0.000546696 0)
(0 -0.000568673 0)
(0 -0.000601836 0)
(0 -0.00057338 0)
(0 -0.000397723 0)
(0 -0.000395941 0)
(0 -0.000193276 0)
(0 -4.74846e-05 0)
(0 -0.000312162 0)
(0 -0.000540938 0)
(0 -0.000235871 0)
(0 -0.000243628 0)
(0 -0.000327615 0)
(0 -0.000633385 0)
(0 -0.000588311 0)
(0 -0.000554894 0)
(0 -0.000153692 0)
(0 -0.000225708 0)
(0 -2.34375e-05 0)
(0 -1.87313e-05 0)
(0 -1.35244e-05 0)
(0 -1.49112e-05 0)
(0 -1.96899e-05 0)
(0 -0.000104418 0)
(0 -0.000105874 0)
(0 -0.000117357 0)
(0 -0.000118515 0)
(0 -0.000130841 0)
(0 -0.00013205 0)
(0 -0.000145076 0)
(0 -0.000146313 0)
(0 -0.000160135 0)
(0 -0.000161526 0)
(0 -0.000175926 0)
(0 -0.00017529 0)
(0 -0.000177839 0)
(0 -0.000164124 0)
(0 -0.000191502 0)
(0 -0.000192029 0)
(0 -0.000181873 0)
(0 -0.000168199 0)
(0 -0.000208598 0)
(0 -0.000210403 0)
(0 -0.00018637 0)
(0 -0.000173109 0)
(0 -0.000407565 0)
(0 -0.00040247 0)
(0 -2.88025e-05 0)
(0 -0.000322113 0)
(0 -0.000338583 0)
(0 -0.000278038 0)
(0 -0.00029573 0)
(0 -0.000554686 0)
(0 -0.000541866 0)
(0 -0.000562637 0)
(0 -0.000412488 0)
(0 -0.000210764 0)
(0 -0.000216243 0)
(0 -0.000392664 0)
(0 -0.000370741 0)
(0 -0.000646971 0)
(0 -0.000227261 0)
(0 -0.000229875 0)
(0 -0.000348382 0)
(0 -0.000365381 0)
(0 -0.000190885 0)
(0 -0.000179084 0)
(0 -0.000266427 0)
(0 -0.00028278 0)
(0 -0.000184594 0)
(0 -0.000188601 0)
(0 -0.000583868 0)
(0 -0.000608244 0)
(0 -0.000555448 0)
(0 -0.000540758 0)
(0 -0.000606843 0)
(0 -0.000571594 0)
(0 -0.000308832 0)
(0 -0.000522163 0)
(0 -0.000589714 0)
(0 -0.000374175 0)
(0 -0.000392089 0)
(0 -0.000392611 0)
(0 -1.10151e-05 0)
(0 -1.57596e-05 0)
(0 -1.26524e-05 0)
(0 -1.80892e-05 0)
(0 -1.47549e-05 0)
(0 -2.20497e-05 0)
(0 -1.73314e-05 0)
(0 -2.40897e-05 0)
(0 -2.00211e-05 0)
(0 -1.41452e-05 0)
(0 -1.68637e-05 0)
(0 -2.32113e-05 0)
(0 -1.99654e-05 0)
(0 -1.42377e-05 0)
(0 -1.71684e-05 0)
(0 -1.19356e-05 0)
(0 -1.47089e-05 0)
(0 -2.05695e-05 0)
(0 -1.81135e-05 0)
(0 -1.26477e-05 0)
(0 -1.60242e-05 0)
(0 -2.20499e-05 0)
(0 -1.98258e-05 0)
(0 -1.42574e-05 0)
(0 -1.79455e-05 0)
(0 -1.2851e-05 0)
(0 -1.6405e-05 0)
(0 -1.17712e-05 0)
(0 -1.53615e-05 0)
(0 -1.09936e-05 0)
(0 -1.4784e-05 0)
(0 -1.05317e-05 0)
(0 -1.45698e-05 0)
(0 -1.0455e-05 0)
(0 -1.46156e-05 0)
(0 -1.01469e-05 0)
(0 -1.50224e-05 0)
(0 -1.13767e-05 0)
(0 -1.95108e-05 0)
(0 -1.60069e-05 0)
(0 -1.2595e-05 0)
(0 -1.73787e-05 0)
(0 -1.40505e-05 0)
(0 -2.65602e-05 0)
(0 -1.97803e-05 0)
(0 -2.43766e-05 0)
(0 -9.8483e-06 0)
(0 -1.13479e-05 0)
(0 -7.69959e-06 0)
(0 -9.247e-06 0)
(0 -6.03582e-06 0)
(0 -7.50418e-06 0)
(0 -4.70643e-06 0)
(0 -6.14466e-06 0)
(0 -3.49603e-06 0)
(0 -5.16532e-06 0)
(0 -3.16551e-06 0)
(0 -4.50677e-06 0)
(0 -2.69856e-06 0)
(0 -4.02366e-06 0)
(0 -2.32249e-06 0)
(0 -3.64822e-06 0)
(0 -2.03624e-06 0)
(0 -3.35175e-06 0)
(0 -1.81418e-06 0)
(0 -3.0641e-06 0)
(0 -1.62685e-06 0)
(0 -2.88226e-06 0)
(0 -1.5199e-06 0)
(0 -2.75613e-06 0)
(0 -1.49517e-06 0)
(0 -2.69566e-06 0)
(0 -1.47012e-06 0)
(0 -2.65605e-06 0)
(0 -1.23657e-06 0)
(0 -2.56554e-06 0)
(0 -1.40603e-06 0)
(0 -4.14719e-06 0)
(0 -2.62578e-06 0)
(0 -1.53198e-06 0)
(0 -2.83126e-06 0)
(0 -1.6698e-06 0)
(0 -5.57955e-06 0)
(0 -3.04223e-06 0)
(0 -1.86296e-06 0)
(0 -8.01848e-06 0)
(0 -3.30126e-06 0)
(0 -2.14153e-06 0)
(0 -4.25293e-06 0)
(0 -3.61527e-06 0)
(0 -2.43263e-06 0)
(0 -1.33142e-05 0)
(0 -5.08644e-06 0)
(0 -4.04053e-06 0)
(0 -2.79884e-06 0)
(0 -9.46182e-07 0)
(0 -0.000399468 0)
(0 -0.000418605 0)
(0 -0.000412453 0)
(0 -0.00040527 0)
(0 -8.44492e-06 0)
(0 -4.60382e-06 0)
(0 -3.32315e-06 0)
(0 -0.000253695 0)
(0 -0.000267828 0)
(0 -0.000159946 0)
(0 -0.000503217 0)
(0 -0.000483826 0)
(0 -3.46713e-07 0)
(0 -0.000202596 0)
(0 -0.000237765 0)
(0 -1.72865e-06 0)
(0 -2.20736e-06 0)
(0 -8.84311e-06 0)
(0 -4.75908e-07 0)
(0 -0.00036363 0)
(0 -0.000341833 0)
(0 -0.00045899 0)
(0 -0.000733232 0)
(0 -0.000247061 0)
(0 -0.00025027 0)
(0 -0.000232878 0)
(0 -0.000254248 0)
(0 -0.000236638 0)
(0 -0.00025914 0)
(0 -0.000241552 0)
(0 -0.000265373 0)
(0 -0.000247926 0)
(0 -0.000273148 0)
(0 -0.000255554 0)
(0 -0.000281994 0)
(0 -0.000299568 0)
(0 -0.000308957 0)
(0 -0.000292477 0)
(0 -0.000323884 0)
(0 -0.000304444 0)
(0 -0.000334301 0)
(0 -0.000317582 0)
(0 -0.000349271 0)
(0 -0.000333045 0)
(0 -0.00036592 0)
(0 -0.000350763 0)
(0 -0.000386045 0)
(0 -0.00037053 0)
(0 -0.000408733 0)
(0 -0.000392782 0)
(0 -0.000434162 0)
(0 -0.000419611 0)
(0 -0.00046272 0)
(0 -0.000447685 0)
(0 -0.000326798 0)
(0 -0.000421067 0)
(0 -0.000197083 0)
(0 -0.000186487 0)
(0 -0.000355988 0)
(0 -0.000619645 0)
(0 -0.000163275 0)
(0 -0.000189652 0)
(0 -0.000421167 0)
(0 -0.000424435 0)
(0 -0.000444336 0)
(0 -0.000302707 0)
(0 -0.000244272 0)
(0 -0.000536802 0)
(0 -0.000138451 0)
(0 -0.000574974 0)
(0 -0.000205402 0)
(0 -7.24162e-06 0)
(0 -7.69913e-07 0)
(0 -0.000367326 0)
(0 -4.18352e-05 0)
(0 -3.92319e-05 0)
(0 -0.00023864 0)
(0 -0.000250144 0)
(0 -3.98651e-06 0)
(0 -2.82254e-06 0)
(0 -0.000161064 0)
(0 -0.000277381 0)
(0 -0.000461201 0)
(0 -0.000442364 0)
(0 -0.000610449 0)
(0 -0.000592184 0)
(0 -8.65203e-07 0)
(0 -3.53618e-06 0)
(0 -0.000414168 0)
(0 -0.000406148 0)
(0 -0.000399729 0)
(0 -0.000424019 0)
(0 -0.000168619 0)
(0 -0.000177423 0)
(0 -0.000195129 0)
(0 -0.000187088 0)
(0 -0.000169965 0)
(0 -0.00018063 0)
(0 -0.000164197 0)
(0 -0.000176101 0)
(0 -1.58875e-06 0)
(0 -0.000254937 0)
(0 -0.000264756 0)
(0 -0.000164685 0)
(0 -0.00018871 0)
(0 -0.000286888 0)
(0 -0.000332852 0)
(0 -0.000312255 0)
(0 -4.54236e-05 0)
(0 -5.28081e-05 0)
(0 -0.00016028 0)
(0 -0.000173548 0)
(0 -0.000533079 0)
(0 -0.000333622 0)
(0 -0.000220882 0)
(0 -0.00023138 0)
(0 -0.000465894 0)
(0 -0.000586279 0)
(0 -0.000260278 0)
(0 -0.00024198 0)
(0 -0.00021229 0)
(0 -0.000223885 0)
(0 -4.87481e-06 0)
(0 -3.69679e-06 0)
(0 -0.000538291 0)
(0 -0.000527061 0)
(0 -0.000425598 0)
(0 -0.000438379 0)
(0 -0.000400255 0)
(0 -0.000395575 0)
(0 -0.000133575 0)
(0 -0.000449153 0)
(0 -0.000468969 0)
(0 -0.000416697 0)
(0 -0.000400306 0)
(0 -0.00043222 0)
(0 -0.000261774 0)
(0 -0.000458111 0)
(0 -0.00011549 0)
(0 -3.45361e-05 0)
(0 -3.19596e-05 0)
(0 -0.000382895 0)
(0 -0.000320685 0)
(0 -0.000292375 0)
(0 -0.000205037 0)
(0 -0.000224044 0)
(0 -0.000788534 0)
(0 -0.000277342 0)
(0 -0.0003845 0)
(0 -0.000409484 0)
(0 -0.000283071 0)
(0 -0.000189545 0)
(0 -0.000188234 0)
(0 -0.00046582 0)
(0 -0.000490078 0)
(0 -0.000609609 0)
(0 -0.00059215 0)
(0 -0.000119642 0)
(0 -0.000807245 0)
(0 -0.000574606 0)
(0 -0.000575394 0)
(0 -0.000192201 0)
(0 -0.000205764 0)
(0 -0.00016428 0)
(0 -0.000439838 0)
(0 -0.000454092 0)
(0 -0.000280779 0)
(0 -0.000261955 0)
(0 -3.70124e-05 0)
(0 -2.99205e-05 0)
(0 -0.000479303 0)
(0 -0.000314684 0)
(0 -0.000627576 0)
(0 -6.02217e-06 0)
(0 -7.52475e-06 0)
(0 -4.8258e-06 0)
(0 -2.69444e-06 0)
(0 -0.000548159 0)
(0 -0.000237975 0)
(0 -0.00022104 0)
(0 -0.000187416 0)
(0 -0.000203895 0)
(0 -0.000157988 0)
(0 -0.000623487 0)
(0 -3.86915e-06 0)
(0 -1.95788e-06 0)
(0 -6.18003e-06 0)
(0 -0.000465537 0)
(0 -5.56397e-05 0)
(0 -6.3949e-05 0)
(0 -0.000487325 0)
(0 -0.000476019 0)
(0 -6.13511e-05 0)
(0 -7.33404e-05 0)
(0 -7.11245e-05 0)
(0 -8.39862e-05 0)
(0 -8.65317e-05 0)
(0 -9.81465e-05 0)
(0 -0.00010081 0)
(0 -0.000113653 0)
(0 -8.20625e-05 0)
(0 -0.000116086 0)
(0 -0.000130307 0)
(0 -0.000132652 0)
(0 -0.00014803 0)
(0 -0.000150676 0)
(0 -0.000166325 0)
(0 -0.000170144 0)
(0 -0.000188154 0)
(0 -0.000596781 0)
(0 -0.000169353 0)
(0 -0.000186968 0)
(0 -3.36715e-06 0)
(0 -1.41165e-06 0)
(0 -5.02328e-07 0)
(0 -1.08215e-07 0)
(0 -9.70547e-07 0)
(0 1.69762e-07 0)
(0 -7.64827e-07 0)
(0 2.90711e-07 0)
(0 -7.26276e-07 0)
(0 2.71033e-07 0)
(0 -8.31943e-07 0)
(0 1.00223e-07 0)
(0 -1.10271e-06 0)
(0 -2.17079e-07 0)
(0 -1.54221e-06 0)
(0 -6.40062e-07 0)
(0 5.27308e-07 0)
(0 -0.000128367 0)
(0 -0.000371712 0)
(0 -0.000358032 0)
(0 -0.000109808 0)
(0 -0.00038893 0)
(0 -0.000473074 0)
(0 -0.000190908 0)
(0 -0.00021011 0)
(0 -2.78751e-05 0)
(0 -0.000420152 0)
(0 -0.000204475 0)
(0 -0.000204111 0)
(0 -0.000279961 0)
(0 -0.00030258 0)
(0 -0.000395462 0)
(0 -0.000392505 0)
(0 -0.000144895 0)
(0 -3.53675e-05 0)
(0 -2.83745e-05 0)
(0 -0.000312558 0)
(0 -9.41266e-05 0)
(0 -9.95505e-05 0)
(0 -0.000365499 0)
(0 -0.000377431 0)
(0 -8.16897e-05 0)
(0 -0.000212874 0)
(0 -0.00023296 0)
(0 -0.000236348 0)
(0 -0.000257389 0)
(0 -0.00014269 0)
(0 -0.000384528 0)
(0 -0.00048878 0)
(0 -0.000512952 0)
(0 -2.10104e-06 0)
(0 -1.15711e-06 0)
(0 7.11915e-08 0)
(0 -4.25609e-07 0)
(0 5.96042e-07 0)
(0 1.21987e-07 0)
(0 -3.28308e-06 0)
(0 1.01315e-06 0)
(0 5.44084e-07 0)
(0 -0.000724196 0)
(0 -0.000247197 0)
(0 -0.000229667 0)
(0 -0.000454851 0)
(0 -0.000470193 0)
(0 -0.000300572 0)
(0 -0.000454535 0)
(0 -0.000255961 0)
(0 -0.000459389 0)
(0 -0.000639711 0)
(0 -0.000632407 0)
(0 -3.36953e-05 0)
(0 -2.72369e-05 0)
(0 -3.79075e-07 0)
(0 9.35395e-08 0)
(0 8.62075e-07 0)
(0 4.82517e-07 0)
(0 -4.23863e-07 0)
(0 -2.04102e-08 0)
(0 8.95246e-07 0)
(0 3.69618e-07 0)
(0 -0.000667878 0)
(0 -0.000322169 0)
(0 -0.000338127 0)
(0 -0.000391879 0)
(0 -0.000356585 0)
(0 -0.000302006 0)
(0 -0.00032215 0)
(0 -7.0287e-07 0)
(0 -2.80428e-07 0)
(0 6.81306e-07 0)
(0 1.00232e-07 0)
(0 -0.000449865 0)
(0 -0.000471858 0)
(0 -3.20262e-05 0)
(0 -2.62383e-05 0)
(0 -3.08619e-05 0)
(0 -2.52358e-05 0)
(0 -2.99611e-05 0)
(0 -2.43356e-05 0)
(0 -2.93401e-05 0)
(0 -2.38516e-05 0)
(0 -2.90678e-05 0)
(0 -2.228e-05 0)
(0 -0.00026094 0)
(0 -0.000283308 0)
(0 -0.000434066 0)
(0 -0.000422789 0)
(0 -7.97387e-05 0)
(0 -8.53896e-05 0)
(0 -0.000746814 0)
(0 -2.92322e-06 0)
(0 -1.10214e-06 0)
(0 -6.61501e-07 0)
(0 4.27073e-07 0)
(0 -2.80328e-07 0)
(0 6.77499e-07 0)
(0 7.92732e-09 0)
(0 -0.000405315 0)
(0 -0.00012963 0)
(0 1.02183e-06 0)
(0 -6.69745e-05 0)
(0 -0.000477275 0)
(0 -0.000399488 0)
(0 -0.000393946 0)
(0 -0.000725024 0)
(0 -0.000694954 0)
(0 -0.000151741 0)
(0 -0.000170958 0)
(0 -0.000204775 0)
(0 -0.00019089 0)
(0 -2.06572e-06 0)
(0 -0.000306813 0)
(0 -0.000577651 0)
(0 -0.000286112 0)
(0 -0.000692428 0)
(0 -0.000664346 0)
(0 -0.000666972 0)
(0 -0.000637876 0)
(0 -0.000641364 0)
(0 -0.000613263 0)
(0 -0.000616769 0)
(0 -0.00059019 0)
(0 -0.000585501 0)
(0 -0.000593084 0)
(0 -0.000569307 0)
(0 -0.000127615 0)
(0 -0.000141811 0)
(0 -0.000130005 0)
(0 8.32151e-07 0)
(0 -0.000754895 0)
(0 -0.000154693 0)
(0 -0.000175436 0)
(0 -0.000380662 0)
(0 -7.22142e-05 0)
(0 -2.35544e-05 0)
(0 -2.90096e-05 0)
(0 -8.81503e-05 0)
(0 -0.000103154 0)
(0 -0.000266429 0)
(0 -0.000286361 0)
(0 -0.000209365 0)
(0 -0.000195174 0)
(0 -0.000220512 0)
(0 -0.000221152 0)
(0 -0.000205284 0)
(0 -0.000223593 0)
(0 -0.00022166 0)
(0 -0.000572011 0)
(0 -0.000309703 0)
(0 -0.000311113 0)
(0 -2.32451e-05 0)
(0 -0.000326333 0)
(0 -0.000315265 0)
(0 -0.000778745 0)
(0 -0.000135015 0)
(0 -0.000646813 0)
(0 -0.000636968 0)
(0 -0.000139384 0)
(0 -0.000468821 0)
(0 -0.000204307 0)
(0 1.04102e-06 0)
(0 -5.92183e-07 0)
(0 -0.000299175 0)
(0 -0.000323287 0)
(0 -0.000277747 0)
(0 -0.0001595 0)
(0 -0.000178827 0)
(0 -0.000134371 0)
(0 -2.39467e-05 0)
(0 -0.000440514 0)
(0 -0.000347585 0)
(0 -0.000306313 0)
(0 -0.000558477 0)
(0 -0.00060872 0)
(0 -0.000468947 0)
(0 -7.40408e-06 0)
(0 -0.0003163 0)
(0 -0.000212616 0)
(0 -0.000196101 0)
(0 -0.000161923 0)
(0 -0.000178594 0)
(0 -9.62688e-06 0)
(0 -0.000133145 0)
(0 -8.27435e-05 0)
(0 -0.000147658 0)
(0 -0.000215049 0)
(0 -0.000378567 0)
(0 -0.000388402 0)
(0 -0.000365825 0)
(0 -0.000409143 0)
(0 -0.000352135 0)
(0 1.08764e-06 0)
(0 -0.000346439 0)
(0 -0.000478617 0)
(0 -0.00047994 0)
(0 -0.00065937 0)
(0 -0.000637712 0)
(0 -0.000647762 0)
(0 -0.000625654 0)
(0 -0.000163116 0)
(0 -0.000667374 0)
(0 -1.97605e-05 0)
(0 -3.51893e-05 0)
(0 -3.54483e-05 0)
(0 -2.92803e-05 0)
(0 -3.60479e-05 0)
(0 -0.000230809 0)
(0 -0.000250106 0)
(0 -0.000304267 0)
(0 -0.000266803 0)
(0 -0.000315506 0)
(0 -0.000278484 0)
(0 -0.000231483 0)
(0 -0.00024437 0)
(0 -0.000201165 0)
(0 -0.00028545 0)
(0 -0.000335779 0)
(0 -0.000336574 0)
(0 -1.90757e-05 0)
(0 -2.30218e-05 0)
(0 -2.51136e-05 0)
(0 -2.98303e-05 0)
(0 -3.22788e-05 0)
(0 -3.77921e-05 0)
(0 -4.02525e-05 0)
(0 -3.55396e-05 0)
(0 -4.44211e-05 0)
(0 -4.24179e-05 0)
(0 -5.20873e-05 0)
(0 -5.08703e-05 0)
(0 -6.30536e-05 0)
(0 -6.07976e-05 0)
(0 -0.000150643 0)
(0 -4.99492e-05 0)
(0 -6.03981e-05 0)
(0 -2.99564e-05 0)
(0 -3.70787e-05 0)
(0 -0.000643862 0)
(0 1.24137e-06 0)
(0 -0.000385879 0)
(0 -0.000459753 0)
(0 -0.000510135 0)
(0 -0.000439361 0)
(0 -5.11905e-05 0)
(0 -0.000434244 0)
(0 -0.000545749 0)
(0 -4.99045e-05 0)
(0 -6.07896e-05 0)
(0 -0.000580674 0)
(0 -0.00018642 0)
(0 -0.000161533 0)
(0 -0.000213599 0)
(0 -0.000269529 0)
(0 -0.000286834 0)
(0 -0.000299093 0)
(0 -3.11936e-05 0)
(0 -2.43813e-05 0)
(0 -5.57319e-05 0)
(0 -7.88748e-06 0)
(0 -6.04724e-06 0)
(0 -4.85794e-06 0)
(0 -3.37785e-06 0)
(0 -2.52566e-06 0)
(0 -1.45036e-06 0)
(0 -8.01026e-07 0)
(0 -2.3866e-08 0)
(0 -6.66702e-07 0)
(0 4.05872e-07 0)
(0 -2.84356e-07 0)
(0 7.45243e-07 0)
(0 1.34606e-07 0)
(0 1.01367e-06 0)
(0 4.56605e-07 0)
(0 6.02233e-07 0)
(0 2.3993e-07 0)
(0 -4.13238e-06 0)
(0 1.2647e-06 0)
(0 1.21983e-06 0)
(0 7.03193e-07 0)
(0 -2.69027e-05 0)
(0 -0.000393003 0)
(0 -0.000424199 0)
(0 -0.000336734 0)
(0 -0.00032352 0)
(0 -0.000346865 0)
(0 1.61043e-07 0)
(0 9.55371e-07 0)
(0 -4.00269e-06 0)
(0 -0.000366708 0)
(0 -0.000163793 0)
(0 -0.000354186 0)
(0 -0.000265587 0)