/*--------------------------------*- C++ -*----------------------------------*\
| =========                 |                                                 |
| \\      /  F ield         | OpenFOAM: The Open Source CFD Toolbox           |
|  \\    /   O peration     | Version:  v2012                                 |
|   \\  /    A nd           | Website:  www.openfoam.com                      |
|    \\/     M anipulation  |                                                 |
\*---------------------------------------------------------------------------*/
FoamFile
{
    version     2.0;
    format      ascii;
    class       volScalarField;
    location    "600";
    object      nut;
}
// * * * * * * * * * * * * * * * * * * * * * * * * * * * * * * * * * * * * * //

dimensions      [0 2 -1 0 0 0 0];


internalField   nonuniform List<scalar> 
10042
(
0.00985647
0.0050811
0.00346121
0.0067121
0.00674759
0.00497283
0.00870665
0.014092
0.00670645
0.00143264
0.0121217
0.00494812
0.000902003
0.00686245
0.00677803
0.00686106
0.0114465
0.0131012
0.00235732
0.00326256
0.000903206
0.00973185
0.00671173
0.0211226
0.00673326
0.0069929
0.00157186
0.00668898
0.00752189
0.0195198
0.00697661
0.000676324
0.00669866
0.00669668
0.0123594
0.0102581
0.00681282
0.00669561
0.00687776
0.00732498
0.0197655
0.00670003
0.0010963
0.00801459
0.00672026
0.00673514
0.00668341
0.00677108
0.00114265
0.00171981
0.0011276
0.0067119
0.00972615
0.00271002
0.00290598
0.017761
0.000985181
0.00876552
0.0067968
0.00667801
0.00122919
0.00510392
0.000969237
0.0158012
0.0072814
0.00683666
0.00368442
0.0126147
0.006684
0.0122901
0.00137019
0.00675334
0.00673107
0.00679433
0.00682468
0.00133219
0.00684301
0.00668361
0.0067384
0.00222719
0.0101898
0.0215348
0.00706434
0.0067104
0.00192074
0.00207999
0.00408628
0.00347151
0.00677382
0.00716006
0.00122962
0.00677678
0.000977346
0.00512881
0.00703208
0.00678254
0.0299683
0.0035185
0.0137665
0.00678941
0.00143547
0.00337515
0.00681149
0.000768371
0.00215154
0.00680743
0.0234134
0.00681249
0.00317025
0.00680954
0.00679283
0.00424436
0.003239
0.0138776
0.00736962
0.00668856
0.00521995
0.00694088
0.00817719
0.00669097
0.00667729
0.00414397
0.00404326
0.00672256
0.00704999
0.00679146
0.00679461
0.00310211
0.000795611
0.00394879
0.00671192
0.00678921
0.0068273
0.00679357
0.00516622
0.00165214
0.00398742
0.0365133
0.00488728
0.0156539
0.000763389
0.00676188
0.0258316
0.00668937
0.00224804
0.00669828
0.00180423
0.00668407
0.00679538
0.00529002
0.00679866
0.00688294
0.00455631
0.000787786
0.00716515
0.00216968
0.000806529
0.024109
0.00682639
0.0069895
0.00689131
0.00737885
0.00160802
0.00678079
0.00679258
0.00478541
0.00673201
0.000686591
0.0107482
0.00669274
0.00891944
0.0182026
0.00390865
0.0066942
0.00271791
0.00404224
0.00673535
0.00669762
0.00677535
0.00668384
0.00565711
0.00218705
0.00679299
0.00668475
0.0122966
0.00108576
0.00674495
0.00668874
0.00157781
0.00685689
0.00563405
0.00102233
0.00671556
0.00268894
0.00305256
0.00677635
0.00107553
0.00406772
0.0252133
0.00671253
0.000938196
0.000856389
0.00666334
0.00675738
0.0159841
0.00682604
0.0140291
0.000772121
0.00678855
0.00680025
0.000659347
0.00673432
0.0123161
0.000824247
0.00682844
0.0105535
0.00675224
0.0047399
0.00675145
0.000926951
0.00193243
0.00852686
0.00170962
0.0107363
0.00671308
0.000821189
0.00683701
0.00436094
0.00146383
0.0068067
0.00670229
0.00680516
0.00121196
0.00702384
0.0067358
0.0130249
0.0051993
0.0284589
0.00262194
0.0184693
0.0038632
0.0164751
0.00667687
0.00756838
0.0021157
0.00675773
0.0163306
0.00306298
0.00402745
0.00681217
0.00227405
0.00672202
0.0155248
0.00256945
0.00681116
0.00561373
0.00691456
0.006821
0.0305777
0.00672097
0.00709558
0.00670052
0.0067106
0.00668358
0.000814615
0.00104361
0.00713343
0.0158626
0.00701326
0.00680888
0.00672655
0.00186315
0.00680131
0.00153321
0.00683668
0.00854966
0.00423874
0.00672357
0.0070192
0.00273723
0.0066885
0.0106886
0.00114027
0.00497547
0.00688015
0.0110923
0.00467428
0.00668767
0.00973083
0.00694534
0.00109773
0.00677669
0.00688619
0.0133148
0.00709403
0.00685634
0.0102271
0.00454207
0.00672735
0.0067615
0.00444142
0.00327847
0.00668964
0.00302056
0.00448585
0.00526013
0.00683893
0.00744779
0.0122278
0.0109887
0.00685276
0.00677498
0.00677483
0.00685517
0.0068241
0.00924784
0.00668344
0.0117358
0.0156603
0.00668773
0.00698016
0.00163321
0.00861887
0.0159451
0.0137341
0.00685566
0.00705326
0.00677389
0.00488331
0.00117741
0.00682675
0.00676872
0.00855462
0.00688718
0.0151112
0.01122
0.0147841
0.0151595
0.00672749
0.004339
0.000779643
0.000956564
0.00667721
0.00811559
0.00696128
0.00670109
0.0067654
0.00676337
0.00701752
0.0275124
0.00680009
0.00722701
0.00702161
0.00684434
0.00388136
0.0066898
0.00683108
0.00705356
0.00133911
0.00697663
0.00680253
0.00681908
0.00679281
0.0151259
0.0042686
0.00604206
0.00672619
0.00696044
0.00697201
0.0041415
0.00668022
0.00707491
0.00681535
0.00698473
0.00188204
0.00687307
0.00836472
0.0102493
0.00836796
0.00117794
0.00678431
0.00520563
0.00153171
0.006766
0.00070079
0.00669251
0.00679459
0.00668758
0.00680717
0.00668681
0.00684223
0.0100798
0.00680105
0.00368035
0.00379799
0.00291982
0.00671587
0.0132822
0.00683955
0.000613375
0.00671273
0.00408734
0.00731089
0.00346051
0.0299004
0.00685417
0.00077076
0.00706339
0.00299077
0.00685242
0.019814
0.00173061
0.0157487
0.00679757
0.0171509
0.00692882
0.00178481
0.00364627
0.00668412
0.00690619
0.00686196
0.00378005
0.00670697
0.00668483
0.000753403
0.00696908
0.00175422
0.0210747
0.00671906
0.000936985
0.00697968
0.00668423
0.00172953
0.0107898
0.00695379
0.00679527
0.0291395
0.0082389
0.00699313
0.0150331
0.00669069
0.00686
0.00349015
0.00161735
0.00163671
0.0149617
0.0168816
0.00154862
0.015152
0.00668578
0.00869754
0.00738524
0.00648269
0.000707751
0.00671148
0.00677506
0.00752545
0.0151388
0.00668583
0.00682071
0.00699151
0.00671618
0.00706482
0.00711456
0.00680203
0.00408776
0.0113187
0.00428071
0.00694503
0.00777635
0.00177327
0.00671954
0.0031194
0.0247294
0.0104623
0.00685607
0.00133179
0.0070051
0.00328826
0.00673279
0.00568542
0.0067985
0.0126112
0.00679376
0.0021821
0.00682126
0.00858301
0.0251826
0.00698649
0.00671864
0.00678235
0.00798553
0.00669983
0.00753109
0.0038867
0.000815527
0.00680582
0.00768968
0.0153274
0.010185
0.00677728
0.00696686
0.0135439
0.00663748
0.00102052
0.00772065
0.0068721
0.00979524
0.00167807
0.00183672
0.00410188
0.0138337
0.00679973
0.0067113
0.00680648
0.0133016
0.00672062
0.000181493
0.00671524
0.00676393
0.00672608
0.00184241
0.00789924
0.00680769
0.00679462
0.00633582
0.00664376
0.0020269
0.00680817
0.00680396
0.0104762
0.00379298
0.00679052
0.00669845
0.00393181
0.00679164
0.00675783
0.00658936
0.00670649
0.00177092
0.00672136
0.00157064
0.00775344
0.00389218
0.00672143
0.00133809
0.0067696
0.0067196
0.00656553
0.00667733
0.0168108
0.000977696
0.00670153
0.0075823
0.00874312
0.00424742
0.00735191
0.00688888
0.00669871
0.00668366
0.0069657
0.00837473
0.0068063
0.00536706
0.00676581
0.00677757
0.0167155
0.00214569
0.00853545
0.00699597
0.00670644
0.0151217
0.0144751
0.00761459
0.0126166
0.00672292
0.0012877
0.00671808
0.00670577
0.00679668
0.00677714
0.00679405
0.00686684
0.00887368
0.00679537
0.0092375
0.00671787
0.00729064
0.00668354
0.00204994
0.0040497
0.00670013
0.00672119
0.0129118
0.00872827
0.0066836
0.00343892
0.00673301
0.00839793
0.00669555
0.00686715
0.00671593
0.00135649
0.00668354
0.00681031
0.00689529
0.00186249
0.00701525
0.00679119
0.00687649
0.00342228
0.0067173
0.00673769
0.0067512
0.0067384
0.00335675
0.00673862
0.00724348
0.00672196
0.030864
0.00897342
0.0246993
0.00686023
0.00188791
0.00674569
0.00454927
0.00682209
0.0171513
0.0146472
0.0216685
0.00795916
0.0164359
0.00672201
0.00677544
0.0165438
0.00359997
0.00709384
0.000568247
0.00678816
0.0139989
0.0067266
0.00678436
0.0067255
0.00669815
0.00688454
0.0160524
0.00508463
0.00697051
0.00785021
0.00675397
0.00495204
0.00716812
0.00461374
0.00826428
0.00684618
0.0147223
0.00678503
0.00676684
0.00362579
0.00676987
0.00673084
0.00699335
0.00673936
0.00670708
0.0141937
0.00810464
0.00677921
0.00676516
0.006765
0.00673363
0.0145488
0.00673466
0.0068174
0.00679435
0.00674684
0.0165702
0.00183104
0.00498829
0.00683118
0.00686327
0.035006
0.00124383
0.00708577
0.00188855
0.0146571
0.00459935
0.0158161
0.00672574
0.00687408
0.00679198
0.0158709
0.0067236
0.00162442
0.0068112
0.00667855
0.00824717
0.0068516
0.00137874
0.00145499
0.00669014
0.00671972
0.00668417
0.0144217
0.00669725
0.0151257
0.00693792
0.00162874
0.00675571
0.00683632
0.00670128
0.00671136
0.00676263
0.00672687
0.00673382
0.00680042
0.0042657
0.00232152
0.023691
0.00671853
0.00339932
0.0168296
0.00684395
0.0286861
0.006716
0.00686567
0.00745752
0.00693092
0.0121393
0.0068088
0.00686303
0.0067325
0.00254365
0.00681487
0.0160077
0.00102601
0.00676294
0.00339263
0.0142043
0.00712509
0.00673676
0.000641009
0.00706844
0.016881
0.00464838
0.00669584
0.0070226
0.00676044
0.00678264
0.00683494
0.00237878
0.00754166
0.015808
0.0013998
0.00667957
0.00699701
0.00681119
0.00353475
0.00706758
0.0140098
0.00678529
0.00679735
0.0141622
0.00674643
0.00063844
0.00161121
0.00687977
0.017484
0.00710446
0.00679297
0.00687413
0.00155935
0.00685464
0.00375878
0.00679695
0.00151017
0.00149416
0.00404129
0.00686995
0.00200176
0.00793586
0.00680048
0.00107572
0.00669017
0.00145168
0.00682711
0.00679413
0.00685501
0.00675805
0.0045409
0.00103217
0.00693617
0.00677734
0.015034
0.00669264
0.00675373
0.00671618
0.00668549
0.00513635
0.00731052
0.00679209
0.00553267
0.0153503
0.00676306
0.00791215
0.0152929
0.00674116
0.00682391
0.00668492
0.00537107
0.0152051
0.00234432
0.00672948
0.0011066
0.00714481
0.00418795
0.00688644
0.00773237
0.00166117
0.0247795
0.00713461
0.00673373
0.00706781
0.0144991
0.00410451
0.0067943
0.003931
0.00626916
0.0168572
0.0110892
0.00688467
0.00710011
0.0172459
0.00452656
0.000414522
0.00223943
0.0083827
0.00681558
0.0156621
0.00677106
0.00574723
0.00694153
0.00661486
0.00668868
0.00679106
0.00672143
0.0161743
0.00680653
0.00668159
0.01161
0.00675483
0.00147606
0.00689707
0.0151069
0.00691841
0.00678884
0.00686241
0.00684378
0.00674814
0.00144589
0.00670958
0.0316259
0.0063694
0.00379488
0.0068093
0.00697585
0.00670621
0.000650336
0.014664
0.00774217
0.00675882
0.00668621
0.00684434
0.00682434
0.0043037
0.00219752
0.00673909
0.00404692
0.00686605
0.00678916
0.016951
0.00668449
0.00677098
0.00425809
0.00670864
0.0042118
0.004857
0.00256876
0.00143819
0.00228965
0.00750686
0.00677578
0.0398264
0.0385956
0.00672031
0.00165024
0.00142907
0.0314794
0.00451527
0.00701463
0.00676354
0.00826741
0.0068
0.00713282
0.0142916
0.00190841
0.00668415
0.000843784
0.0097667
0.016492
0.00668382
0.00668423
0.00698486
0.00679085
0.0118333
0.0160473
0.00677044
0.00161129
0.00798387
0.00684291
0.00691997
0.00171699
0.00668414
0.00866024
0.00709477
0.00685859
0.00677117
0.00719998
0.00385821
0.00454973
0.00681581
0.0234194
0.00437785
0.00473497
0.00288548
0.00670648
0.00190667
0.000715499
0.00944586
0.000888909
0.00677713
0.00677176
0.00433371
0.00517016
0.00690869
0.00174883
0.000703431
0.00684176
0.00355551
0.00691566
0.00681649
0.00698393
0.000783979
0.00679511
0.00672453
0.016786
0.0067858
0.0067566
0.00180886
0.0016776
0.0166553
0.00695441
0.00687174
0.00468534
0.00104749
0.0069265
0.00109764
0.0142907
0.00673217
0.00671008
0.00152431
0.00385828
0.00672933
0.0068488
0.00677239
0.00703318
0.00685129
0.00263778
0.00684592
0.0146241
0.006779
0.00226079
0.00680387
0.0067928
0.00659109
0.0185178
0.00113406
0.00676078
0.00695727
0.00835462
0.00833469
0.00763348
0.00526134
0.0144184
0.00673628
0.00800321
0.00395741
0.00700396
0.00361204
0.00671457
0.00440272
0.021299
0.0149863
0.0069278
0.0067776
0.00140792
0.00668859
0.00675543
0.00672654
0.000730223
0.00669133
0.00673418
0.0130979
0.00686995
0.0126062
0.00672879
0.00673234
0.00672835
0.00241649
0.0068756
0.0070999
0.0225379
0.00673887
0.0068701
0.0199035
0.00682253
0.00448744
0.00695036
0.00407633
0.0151917
0.0069562
0.011722
0.00324777
0.00678809
0.00124539
0.00555551
0.00680181
0.00668403
0.00671886
0.00707126
0.0041185
0.00195683
0.0181665
0.0105209
0.0162181
0.00260696
0.0161119
0.00247571
0.0124015
0.00669198
0.00115401
0.0067717
0.00683184
0.00679848
0.037427
0.0191024
0.00676724
0.0193879
0.00674925
0.00734169
0.00684921
0.00450013
0.00720374
0.00630898
0.0190251
0.00673167
0.00668592
0.00162398
0.000727838
0.00827617
0.00784791
0.0169497
0.00689876
0.0106954
0.00243668
0.00670478
0.00672742
0.00674542
0.00305416
0.00690879
0.00678808
0.00685945
0.00700112
0.00689754
0.00686984
0.00693803
0.0125086
0.0226846
0.0067061
0.0206529
0.00375975
0.000672554
0.00189188
0.00289899
0.00670861
0.000575551
0.00183441
0.00674977
0.000962596
0.0143411
0.00678363
0.00673149
0.00700087
0.0229642
0.00847753
0.00675736
0.000645666
0.00681542
0.00679607
0.00203566
0.00681052
0.00687552
0.00675433
0.0069147
0.00713912
0.0131008
0.00701131
0.00691484
0.00671369
0.00695005
0.00672345
0.0169321
0.0066878
0.00268051
0.00594932
0.0108128
0.00670119
0.0176781
0.0068004
0.0192168
0.00692608
0.00404872
0.00668907
0.0246945
0.00283872
0.0249346
0.0067594
0.00774261
0.0128195
0.0126327
0.00685858
0.0134107
0.00682414
0.0122863
0.0223125
0.00710334
0.00122507
0.0190806
0.00227398
0.00412243
0.0013019
0.0214636
0.00672797
0.0070092
0.0145104
0.000900347
0.00671378
0.0141681
0.00549294
0.00672261
0.00683862
0.00804588
0.000860159
0.00246788
0.00388374
0.0016747
0.0114784
0.00386286
0.00673217
0.00700041
0.00380286
0.0166419
0.00171534
0.0218626
0.00680878
0.00681498
0.00120031
0.0146885
0.00114451
0.00673191
0.00587157
0.0043941
0.00692755
0.00417103
0.00677271
0.000845045
0.00727526
0.00679163
0.00988064
0.0148128
0.00672208
0.00496007
0.00671392
0.0102514
0.00695252
0.00144133
0.00862701
0.00673024
0.00689704
0.00668727
0.00118291
0.0067911
0.00809051
0.00734221
0.00803537
0.0104143
0.00678534
0.00141862
0.0201437
0.00690674
0.00429839
0.00688029
0.00675899
0.0019479
0.0217907
0.00682042
0.00120952
0.00729119
0.0157853
0.00678858
0.00687934
0.00698566
0.00687109
0.00206112
0.0107362
0.00693599
0.00700982
0.0153783
0.00449639
0.00484775
0.0202499
0.00134238
0.0136191
0.00671681
0.00668399
0.0068201
0.00683244
0.0222551
0.0160464
0.00108553
0.0169501
0.00680351
0.00694249
0.0019504
0.016077
0.00680782
0.00158526
0.00706934
0.00676219
0.000657873
0.00471428
0.00685919
0.000756829
0.00400342
0.00683801
0.0029704
0.00671237
0.00686516
0.0132557
0.000914363
0.0129671
0.006758
0.00130286
0.00672939
0.00672341
0.0232431
0.00676135
0.0115225
0.0119921
0.00678357
0.0126668
0.00081788
0.0117185
0.00668434
0.0105821
0.00074239
0.00263652
0.00520186
0.00699387
0.00675704
0.0129156
0.00501205
0.0128633
0.000771613
0.0067365
0.00581138
0.00668369
0.0236939
0.00671103
0.0095441
0.00684162
0.00671601
0.00671229
0.0122878
0.00670793
0.00675916
0.00669568
0.00673023
0.00672033
0.0035675
0.00665625
0.00683268
0.00165223
0.00677451
0.00671056
0.00670566
0.0111631
0.00819378
0.00160206
0.00679441
0.00670801
0.00672416
0.00348591
0.00177664
0.00670303
0.00844701
0.00327627
0.0119953
0.00680918
0.00673487
0.0067141
0.00318995
0.00673049
0.00678799
0.00672649
0.00672811
0.00733488
0.00693783
0.00607657
0.00237762
0.0330894
0.00718253
0.00671321
0.00684551
0.00181781
0.00695169
0.00140874
0.00699282
0.00672105
0.00679012
0.00672231
0.00435056
0.0068297
0.0128773
0.0160096
0.000571836
0.00675324
0.00176755
0.023563
0.00318227
0.0010535
0.00693996
0.000776515
0.00672677
0.0015505
0.0257932
0.0179245
0.00675933
0.00676126
0.00609359
0.00183751
0.000575462
0.00704219
0.0145974
0.00674396
0.00168125
0.0107372
0.00692818
0.000800235
0.00682439
0.00685198
0.00683936
0.00677626
0.00289088
0.0161128
0.00847781
0.00672495
0.00140357
0.00689725
0.0111983
0.0130577
0.00673346
0.00224673
0.00286569
0.00673484
0.00139587
0.00116517
0.00685996
0.00938198
0.00670837
0.0100804
0.00724902
0.00960995
0.00217501
0.00071819
0.00679917
0.00144761
0.00678867
0.0067267
0.00672185
0.00674007
0.0158912
0.00575807
0.00113864
0.0132098
0.0357635
0.00113054
0.00643099
0.00681458
0.00301833
0.00672153
0.0104121
0.00143303
0.0310883
0.00114686
0.0168294
0.014008
0.00669232
0.006856
0.0067095
0.00146447
0.00691978
0.0042263
0.00180142
0.00166241
0.00163183
0.00677387
0.00680517
0.0067659
0.00669181
0.0136024
0.00434043
0.0251377
0.00677513
0.00705872
0.00343252
0.00693762
0.000983806
0.00673462
0.0157065
0.00923379
0.0067932
0.00718545
0.0118584
0.00151782
0.00680236
0.00953281
0.00684215
0.0164869
0.00691938
0.0192866
0.00671009
0.00755101
0.00686973
0.012674
0.00732482
0.00914329
0.0214144
0.00166045
0.000826598
0.00445446
0.00708284
0.00703838
0.00823741
0.0171406
0.00103823
0.00132514
0.0037229
0.0104519
0.0210602
0.000731557
0.00447011
0.00526046
0.00104551
0.00458781
0.00693295
0.00581531
0.00706561
0.00673207
0.00671329
0.00672747
0.00681061
0.00305565
0.00490856
0.0169164
0.00100924
0.00115799
0.0143965
0.0116159
0.00678773
0.00679987
0.0118665
0.0072391
0.00268914
0.00778953
0.00421009
0.011268
0.00672719
0.00108064
0.00438815
0.000985678
0.00252358
0.0218664
0.0225793
0.000563481
0.00684523
0.00684753
0.0281609
0.00718547
0.000610736
0.0096497
0.00671116
0.00642453
0.0032637
0.00485558
0.00318982
0.00671496
0.00671056
0.00376982
0.0237794
0.0159098
0.00679568
0.00088151
0.0116989
0.00693139
0.00905356
0.0069163
0.0013186
0.00694663
0.00129794
0.00186449
0.00671282
0.00679002
0.00699736
0.00153644
0.000914625
0.00109248
0.00595529
0.0051339
0.0067912
0.0125478
0.00121314
0.00338708
0.00678724
0.0107158
0.00694631
0.0219884
0.00676272
0.00140075
0.00673638
0.00132297
0.00353979
0.000566186
0.0214919
0.00686007
0.0069019
0.0156186
0.00697558
0.0229781
0.00176745
0.00678305
0.00323129
0.00227978
0.00672435
0.0268555
0.00678792
0.013769
0.0119588
0.00984533
0.00474713
0.00671731
0.00671383
0.00674758
0.00267615
0.00668914
0.00684811
0.00671069
0.00673065
0.00395254
0.00687973
0.00707427
0.00684992
0.00186822
0.0067556
0.029253
0.00559621
0.00675089
0.0149173
0.00671287
0.034076
0.0177125
0.00683734
0.00679057
0.000749462
0.0151312
0.00707511
0.0117558
0.00146627
0.00697694
0.00537998
0.00675032
0.0111068
0.00677874
0.0104806
0.00675149
0.0212867
0.00300353
0.0233904
0.00679891
0.00469121
0.00670673
0.00290161
0.00329242
0.00678526
0.00672559
0.000658401
0.00693343
0.00587948
0.0113847
0.00579296
0.00114271
0.00673621
0.00145682
0.00505048
0.00672148
0.00680096
0.00218047
0.00795681
0.00679099
0.00488413
0.00679851
0.00434549
0.000853522
0.0044662
0.00116423
0.0346306
0.0153848
0.00359744
0.00304737
0.000752125
0.00672062
0.00382551
0.00793674
0.00413685
0.0135719
0.00336207
0.00968086
0.00697018
0.00679331
0.000737356
0.0031598
0.00255762
0.00689621
0.00225585
0.0081054
0.00697261
0.00725271
0.00684441
0.0239657
0.00132951
0.00300002
0.006842
0.00670358
0.00701064
0.00680957
0.00739791
0.00671323
0.00705559
0.0067603
0.00776206
0.000935622
0.00685019
0.0140917
0.00583233
0.00679094
0.0118456
0.0045391
0.00327066
0.00904438
0.00679688
0.00437847
0.00672631
0.00670534
0.00666027
0.0079004
0.00671031
0.0129738
0.00679916
0.00674209
0.034167
0.0227714
0.0170945
0.0165762
0.0158324
0.00276967
0.00671926
0.00579289
0.0231342
0.00156394
0.0163372
0.00677861
0.000865037
0.00670954
0.00729383
0.00670257
0.00151253
0.00975963
0.00671404
0.00278545
0.00680082
0.00436807
0.00655532
0.00656133
0.00676703
0.00672764
0.0066897
0.0104308
0.00679036
0.00222325
0.000820736
0.00678576
0.00670946
0.00674485
0.0375721
0.00769876
0.00670828
0.0317076
0.00457998
0.00679316
0.017273
0.00678148
0.00672418
0.00670286
0.00679723
0.00678593
0.00682282
0.00680394
0.00675995
0.00680344
0.000674466
0.00612305
0.0137482
0.00125203
0.00674332
0.0283504
0.00669452
0.006996
0.00128511
0.00671162
0.00538144
0.00671445
0.0010317
0.00241753
0.00670217
0.0239705
0.0235827
0.00678657
0.00679744
0.00680911
0.00979962
0.00677737
0.0104497
0.00805464
0.0069801
0.00162233
0.00104482
0.00444936
0.00686408
0.0113809
0.00679027
0.00568084
0.0106261
0.00275519
0.0155375
0.00700041
0.00100774
0.00704303
0.00118176
0.00676734
0.000572944
0.00620715
0.000635586
0.00671723
0.00690486
0.00516661
0.00170665
0.0104146
0.0037788
0.00706605
0.0127652
0.00670235
0.00758951
0.0067658
0.00179795
0.00096231
0.0110489
0.00158207
0.000812468
0.00182974
0.00350552
0.00702805
0.006711
0.00684665
0.00679433
0.006927
0.00189721
0.00673481
0.0042341
0.0013393
0.00688421
0.0067722
0.00671441
0.00671224
0.0162905
0.00677436
0.00115456
0.00690028
0.0144832
0.00708085
0.00677628
0.00671003
0.000687637
0.00702694
0.00137487
0.0155435
0.00983981
0.00332911
0.00587228
0.00671937
0.00670981
0.00676512
0.00545374
0.0068034
0.00679563
0.032502
0.00677424
0.00677972
0.00144485
0.0180689
0.00319005
0.00714718
0.00042973
0.0339611
0.00671864
0.00676264
0.00278164
0.0237113
0.00141165
0.0070384
0.00189531
0.00678918
0.00671803
0.00834233
0.00228756
0.00679875
0.00685927
0.00680164
0.00310861
0.0231303
0.02912
0.00732014
0.00144625
0.00595323
0.005258
0.00613144
0.00677297
0.00670948
0.00673613
0.0083691
0.00670789
0.00197097
0.00440746
0.00139957
0.00672087
0.00677434
0.00671809
0.00679468
0.0068688
0.00196301
0.00271803
0.00563593
0.00209273
0.00951628
0.00618617
0.00696202
0.00678673
0.00679987
0.00671321
0.00672455
0.00675835
0.00681067
0.0158956
0.00928778
0.00687937
0.00670445
0.00681572
0.00685412
0.0121412
0.00204288
0.00415503
0.00900295
0.00458818
0.000906252
0.0067128
0.00677847
0.00671636
0.00683957
0.0172771
0.00678062
0.00199104
0.0307753
0.00703807
0.0210516
0.0244705
0.000802877
0.00799508
0.00672119
0.00221294
0.00715356
0.0226517
0.00679524
0.0070638
0.00705473
0.00680411
0.00680864
0.0199248
0.00675759
0.0067796
0.016802
0.00205856
0.00286682
0.00672151
0.00670263
0.00212704
0.0313204
0.00739101
0.00936257
0.00699434
0.0142567
0.000889543
0.00671452
0.00553081
0.00671828
0.00212855
0.0067995
0.00673496
0.00653395
0.0247128
0.00139836
0.00133259
0.00953878
0.0124246
0.0150804
0.00673208
0.00682587
0.0164084
0.00672176
0.00680234
0.00545516
0.00678928
0.0174782
0.00678443
0.00511216
0.00934626
0.00669142
0.00406062
0.00689228
0.00671401
0.00305882
0.00355743
0.00409685
0.004538
0.00592055
0.0123493
0.00683273
0.00672009
0.00698339
0.000625265
0.00587675
0.00670859
0.00683615
0.00670199
0.0196897
0.00671928
0.00702691
0.00704844
0.00680029
0.00677331
0.00679584
0.026714
0.00507974
0.00706345
0.00477197
0.00671789
0.00242093
0.00442456
0.00683587
0.00382588
0.0319889
0.00677242
0.00238321
0.00145527
0.0111726
0.00121725
0.00669676
0.0067484
0.0099596
0.0026583
0.00172844
0.00234152
0.0263065
0.00493208
0.00416277
0.00244659
0.00134196
0.00728588
0.00534583
0.0221535
0.021184
0.00679547
0.0208146
0.00702166
0.0327925
0.00412734
0.00678382
0.00707564
0.0312633
0.0232999
0.00687511
0.0068352
0.00301061
0.0314577
0.0286868
0.00670499
0.00683263
0.00675911
0.00334504
0.00689316
0.000731583
0.00424835
0.0151317
0.00368679
0.00689486
0.00103364
0.00680014
0.00676133
0.0186986
0.00682131
0.00372275
0.00677076
0.00854793
0.000812643
0.022495
0.00706764
0.00352562
0.0334629
0.000871493
0.0136626
0.00304785
0.0330072
0.00806517
0.00671374
0.00679157
0.000900571
0.00677288
0.0068664
0.00677113
0.00681257
0.00268321
0.00726777
0.00671183
0.00803356
0.00704108
0.0139257
0.00681456
0.0129665
0.0325187
0.00735913
0.00736044
0.00433501
0.00699551
0.0230623
0.00787249
0.00679794
0.00678255
0.00709676
0.00281632
0.000928647
0.00671313
0.00686313
0.00271728
0.00671364
0.00672006
0.00685194
0.00683568
0.0159779
0.00680097
0.00115095
0.00680384
0.00324721
0.00671833
0.0165206
0.015839
0.00980597
0.00410107
0.0067057
0.00707262
0.00682283
0.006781
0.0190254
0.00294116
0.0045532
0.0159508
0.00674585
0.00674637
0.00449362
0.00677994
0.0162857
0.00672435
0.00133814
0.00375068
0.0157003
0.00496429
0.00672008
0.00683058
0.0041603
0.00702375
0.00430422
0.0164927
0.0226232
0.00320468
0.00699065
0.00681782
0.00672219
0.00684828
0.00906155
0.00685191
0.00677153
0.00673381
0.00682885
0.0179066
0.0068808
0.0174114
0.00427125
0.00683139
0.00707177
0.0321397
0.0067029
0.00705541
0.00696116
0.00680161
0.00680573
0.000726679
0.00288231
0.00292479
0.00740861
0.00671642
0.0312608
0.0153252
0.00186362
0.00682877
0.0067032
0.00411111
0.00683095
0.00779559
0.00423075
0.00678906
0.00442065
0.00674825
0.00364119
0.00672855
0.0107608
0.00679331
0.0235464
0.0216117
0.00679781
0.0213885
0.00672262
0.0021323
0.000779692
0.00670952
0.00755645
0.00674651
0.0067122
0.00674057
0.00668386
0.00746118
0.00411951
0.00683969
0.00670151
0.000747714
0.00669421
0.00684535
0.00603297
0.00671236
0.00676777
0.00442937
0.00383445
0.00672349
0.00363559
0.00677512
0.00678121
0.00391943
0.00416068
0.00678846
0.00673286
0.00685269
0.00926991
0.00679169
0.00679911
0.00676846
0.00140148
0.00673477
0.00673004
0.0230737
0.00685122
0.00416809
0.0067185
0.00675769
0.0067146
0.00671167
0.00672991
0.00676666
0.00310642
0.0138136
0.00670324
0.00711513
0.00696835
0.00983627
0.0044498
0.00118197
0.0067658
0.00679558
0.00565598
0.00678298
0.016317
0.00749256
0.00671816
0.00695583
0.0407679
0.00654295
0.00533502
0.0100954
0.00671472
0.00426757
0.00417346
0.0237258
0.00476095
0.00865081
0.00448138
0.00671579
0.0013178
0.00682687
0.00624174
0.00282652
0.00675601
0.00672396
0.0335635
0.0067037
0.00123091
0.0199718
0.00680106
0.00680037
0.0277219
0.00671258
0.00464824
0.00670244
0.00420109
0.0135567
0.0176979
0.00671406
0.00672286
0.00679818
0.00440908
0.0167549
0.0164034
0.00903556
0.00739852
0.00675941
0.00468099
0.0178931
0.00671519
0.00683609
0.00706877
0.00671336
0.00170047
0.0028972
0.0067498
0.0113118
0.0067209
0.00674046
0.00670001
0.006772
0.00671362
0.0168493
0.00673164
0.00450168
0.00679687
0.00679873
0.00682752
0.00685568
0.0067119
0.00675451
0.00744728
0.00672421
0.00327027
0.00717712
0.00447231
0.00504604
0.00440074
0.00448541
0.00679143
0.00669253
0.00671228
0.00669538
0.0258247
0.0142359
0.00690526
0.00674724
0.033675
0.00677124
0.0168058
0.00691588
0.00671273
0.00684825
0.00526928
0.00622284
0.0164501
0.0264546
0.0070513
0.00449739
0.00508535
0.00681778
0.00671675
0.00670591
0.00145648
0.00137908
0.0309166
0.0220943
0.00127703
0.00670993
0.00386585
0.00671246
0.00539112
0.00686165
0.00547024
0.00563481
0.0118754
0.000826438
0.00639983
0.0070376
0.00405916
0.00307442
0.00415533
0.006712
0.00671743
0.00678
0.00677333
0.0138219
0.00673242
0.00683544
0.00316743
0.00673357
0.00475336
0.03234
0.00375766
0.0068368
0.00684029
0.0142803
0.0075037
0.00671597
0.00671267
0.0264314
0.00671295
0.00676521
0.0180184
0.00697694
0.00601137
0.0229612
0.0187089
0.00122725
0.0067459
0.00684005
0.00155112
0.00671258
0.00673602
0.0154984
0.0208166
0.00705389
0.00676829
0.00670935
0.00678533
0.0352722
0.00676184
0.00565729
0.00679393
0.00670642
0.00672686
0.00285999
0.00708528
0.0067279
0.00687062
0.00632245
0.00670266
0.00306689
0.0182092
0.00740957
0.00678413
0.00678136
0.0068286
0.00675324
0.00498709
0.00671797
0.0170547
0.0121749
0.00671159
0.00672194
0.00774089
0.00670273
0.0067656
0.00671538
0.00993896
0.00706176
0.0074104
0.00672805
0.00671645
0.00677927
0.0154294
0.00675592
0.00681308
0.00111021
0.00789884
0.00586635
0.00668839
0.0145167
0.00668652
0.0149959
0.00671154
0.0067686
0.00672504
0.00676678
0.00679441
0.0283587
0.000827154
0.0187031
0.000548548
0.00577379
0.0356304
0.00676333
0.00584027
0.0101015
0.00696105
0.0102678
0.00303645
0.00415851
0.00671465
0.014345
0.00677242
0.00674069
0.00711201
0.0011264
0.0127267
0.00169815
0.00471694
0.029726
0.00304535
0.00671435
0.00424107
0.000787583
0.00857725
0.0107313
0.00697323
0.00677859
0.000755572
0.00406126
0.0067256
0.00435173
0.00676016
0.00835544
0.00672093
0.00671761
0.00198415
0.00213476
0.0013768
0.00406654
0.00573465
0.0067125
0.00679212
0.00912999
0.0153774
0.0333798
0.00670533
0.00694644
0.00670438
0.00671062
0.00671125
0.00979986
0.00153429
0.00765309
0.0060303
0.0154204
0.00475502
0.0067223
0.00678421
0.00691442
0.00674744
0.00311877
0.00672684
0.0068398
0.00677164
0.00670822
0.00296403
0.00428397
0.00683401
0.00673847
0.00672496
0.0195687
0.0056395
0.00335713
0.00587827
0.012553
0.0120376
0.00676418
0.00214507
0.00982447
0.00672252
0.0042722
0.00681004
0.0067934
0.00678676
0.00646923
0.00670893
0.0067037
0.00714986
0.00683962
0.00677621
0.00675531
0.00507407
0.00461728
0.00500705
0.00681843
0.0067698
0.0170132
0.00672458
0.00674031
0.00670595
0.00945745
0.0067131
0.0158007
0.00669313
0.00674041
0.00213211
0.00550427
0.00673876
0.00452439
0.00439429
0.00424676
0.00672075
0.00668426
0.00670453
0.00257342
0.00717967
0.00548154
0.0242339
0.00676099
0.00670059
0.00680415
0.00683553
0.0330698
0.00673232
0.0067564
0.00672791
0.00341023
0.0137345
0.00676447
0.00672897
0.00673634
0.0084121
0.000720204
0.0197729
0.00698193
0.0123078
0.00685923
0.00674139
0.0151995
0.00242873
0.00671258
0.0067806
0.017642
0.00220941
0.00670796
0.00676265
0.00670437
0.00677307
0.00673488
0.01815
0.00692784
0.00706934
0.0160435
0.00469571
0.00679821
0.00546308
0.00679806
0.00845642
0.00703758
0.0049021
0.0067216
0.0152595
0.00671443
0.00689393
0.0182259
0.0071494
0.00115597
0.0173546
0.00679773
0.00691844
0.014634
0.0172496
0.00674736
0.00672298
0.00671102
0.0157079
0.00672542
0.0067034
0.00708766
0.00398563
0.00670965
0.013336
0.012091
0.00672932
0.00698511
0.00690022
0.00677641
0.00683328
0.00670868
0.00681468
0.00713305
0.0067733
0.00695635
0.00670275
0.0067423
0.00673364
0.00673436
0.00757528
0.00485081
0.00681509
0.0152412
0.00678854
0.00672084
0.00245785
0.0067047
0.0066912
0.00695102
0.00425998
0.00671989
0.00890735
0.00716112
0.010864
0.00681647
0.0167472
0.00932148
0.0165841
0.00698648
0.00674822
0.00852137
0.00677178
0.0174725
0.0067147
0.00713723
0.00701621
0.00675614
0.019511
0.0117192
0.0211837
0.0228472
0.00712328
0.00670404
0.00670517
0.00548203
0.00895935
0.00671033
0.00672739
0.00674004
0.00675207
0.00670744
0.0187232
0.00672081
0.006706
0.00679051
0.00692493
0.00459941
0.00158243
0.00701341
0.0067031
0.00670104
0.0046897
0.00712667
0.00670212
0.0223655
0.00653394
0.00710092
0.00711582
0.0056045
0.00676009
0.00703962
0.00871747
0.00777135
0.00523123
0.00673001
0.00672797
0.0156992
0.0132173