/*--------------------------------*- C++ -*----------------------------------*\
| =========                 |                                                 |
| \\      /  F ield         | OpenFOAM: The Open Source CFD Toolbox           |
|  \\    /   O peration     | Version:  v2012                                 |
|   \\  /    A nd           | Website:  www.openfoam.com                      |
|    \\/     M anipulation  |                                                 |
\*---------------------------------------------------------------------------*/
FoamFile
{
    version     2.0;
    format      ascii;
    class       volVectorField;
    location    "600";
    object      U;
}
// * * * * * * * * * * * * * * * * * * * * * * * * * * * * * * * * * * * * * //

dimensions      [0 1 -1 0 0 0 0];


internalField   nonuniform List<vector> 
10042
(
(1.03248 -0.0404706 -6.12881e-22)
(0.878686 0.27457 -1.19901e-20)
(1.04274 0.066023 -7.72267e-23)
(1.01669 0.0016885 3.33647e-22)
(1.01237 0.00056943 -2.12862e-22)
(0.973002 -0.181653 -3.25292e-21)
(0.817326 0.0625885 7.36363e-21)
(0.921817 0.225395 2.22157e-21)
(1.01316 0.000452163 0)
(0.998153 -0.0566416 -4.57686e-21)
(1.07211 0.0627313 -2.49554e-21)
(0.894527 0.280647 -1.31153e-20)
(1.01991 0.0603746 -5.29022e-21)
(1.0102 -1.33166e-05 1.89354e-21)
(1.02775 0.00321931 -3.88423e-21)
(1.01011 -0.00052726 0)
(0.993266 -0.211874 -6.70543e-21)
(1.07538 0.0485684 0)
(1.03721 0.0213742 3.10005e-21)
(1.0437 0.00946573 8.67039e-22)
(1.01494 0.0579159 -4.65886e-21)
(1.0389 -0.0342931 -3.71313e-22)
(1.01649 0.00162385 -1.35601e-22)
(0.872835 -0.0861642 6.52134e-21)
(1.01387 0.00348556 6.88599e-22)
(1.00927 -5.11605e-05 -5.28215e-22)
(1.00563 -0.0516536 1.58713e-21)
(1.01253 0.000103249 0)
(0.97717 -0.196293 -2.17548e-21)
(0.861257 0.0689193 -7.82528e-21)
(1.00867 0.000134567 0)
(1.07366 0.0809718 -7.36428e-21)
(1.01296 0.000331863 0)
(1.01287 0.000288015 0)
(0.926101 0.2207 0)
(0.936339 0.243607 0)
(1.01798 0.000507508 0)
(1.01304 -0.000480873 0)
(1.01021 0.000262079 -6.79492e-22)
(1.01513 -0.00999885 0)
(0.850299 0.0103736 2.43033e-20)
(1.01304 0.000384568 0)
(0.96635 0.186166 0)
(1.06588 0.285511 0)
(1.01586 0.00275756 3.75182e-23)
(1.01378 0.00358939 0)
(1.01296 -0.000296688 0)
(1.02712 0.00301045 -7.34642e-22)
(0.941829 -0.00305597 0)
(0.867054 0.229068 -9.78929e-21)
(0.952814 0.190043 0)
(1.01434 0.00133021 -1.40424e-22)
(0.994313 -0.198082 -3.02457e-21)
(1.03605 0.0197826 6.13014e-21)
(0.861691 -0.326692 1.14205e-20)
(0.345422 0.296604 3.37103e-20)
(1.0153 0.0524869 8.85376e-21)
(1.06416 0.0364036 9.14431e-23)
(1.02441 0.00592114 2.7239e-21)
(1.01476 -0.00111327 -5.82283e-24)
(0.94388 -0.0133061 -7.14922e-21)
(0.80661 -0.362366 -1.10209e-20)
(0.973997 0.172346 3.10027e-20)
(0.900395 0.184404 0)
(1.01267 0.0485066 -1.55151e-21)
(1.01046 0.00457765 -1.54249e-21)
(1.04035 0.0130953 -1.86773e-21)
(0.990443 -0.0696632 0)
(1.01322 -0.000382659 0)
(1.00055 -0.0645589 -2.14828e-22)
(0.939133 0.216977 1.70946e-20)
(1.02679 0.00417431 1.73433e-22)
(1.01448 -0.00191924 0)
(1.0244 0.00565732 -2.65289e-21)
(1.01085 0.00415509 -1.40868e-21)
(0.952581 0.211944 -1.79317e-20)
(1.04606 0.0247412 0)
(1.01303 -0.000322852 1.18873e-22)
(1.04999 0.0225492 -1.08819e-21)
(1.03923 0.0213489 -1.05972e-20)
(1.06756 0.299207 4.64451e-21)
(0.875514 -0.0283219 -3.37868e-20)
(1.00539 0.000119765 -9.89028e-22)
(1.01296 0.00104843 1.8102e-22)
(1.04461 -0.0300402 -1.84495e-21)
(0.884515 -0.032266 9.4868e-22)
(1.03791 0.0133758 8.61937e-22)
(1.03575 0.0680463 -3.90392e-22)
(1.0144 0.00020591 1.68105e-21)
(1.03102 0.0350866 -9.87895e-22)
(1.02987 0.04273 1.00073e-20)
(1.0283 0.00291612 0)
(0.96763 0.162293 -3.1686e-20)
(0.872855 -0.0433116 0)
(0.991439 0.0418635 -5.37963e-21)
(1.0199 0.00521462 -5.58038e-22)
(0.142416 -0.0355691 -9.62574e-20)
(1.0411 0.0102656 -9.66284e-22)
(1.04052 0.227673 8.83165e-21)
(1.0247 0.00543885 2.72421e-21)
(1.02935 0.0397157 1.31182e-20)
(0.979184 -0.0961111 1.49822e-21)
(1.02368 0.0053674 4.31325e-22)
(1.07184 0.0643273 1.09031e-20)
(1.02898 0.0260148 0)
(1.02274 0.00524564 -1.03469e-21)
(0.502173 0.363382 -5.02468e-21)
(1.01145 0.00457698 2.60337e-21)
(0.802437 0.0506132 -4.81528e-21)
(1.023 0.00530142 -1.0102e-21)
(1.02377 0.00540424 9.0671e-22)
(0.822113 0.0257538 -1.1479e-20)
(0.992535 -0.0912788 9.59005e-22)
(0.91149 0.177434 0)
(1.01027 0.0416657 2.1249e-21)
(1.01365 -0.000428412 6.50331e-22)
(0.986094 -0.0266902 -1.86719e-21)
(1.00935 0.000222124 9.91944e-22)
(1.05694 0.0331746 3.41245e-22)
(1.01376 -0.000415935 -1.96816e-22)
(1.01468 -0.00122577 -1.88512e-24)
(0.9171 0.250535 -1.38332e-20)
(0.926059 0.246968 -1.21294e-20)
(1.01604 0.00295961 2.54606e-23)
(1.03635 0.034505 2.29102e-21)
(1.01502 -9.02031e-05 -1.52539e-21)
(1.01514 -0.000320215 0)
(0.879295 -0.338466 -9.69189e-21)
(1.0525 0.203395 -4.40058e-20)
(0.989701 -0.0311337 8.49541e-24)
(1.01403 -0.000123346 1.32742e-21)
(1.01179 0.00273431 0)
(1.01731 -0.000582863 -1.68471e-21)
(1.01294 0.00545491 3.83589e-23)
(0.809867 0.0143377 1.32541e-20)
(0.891305 0.183403 1.32656e-20)
(1.03615 0.0206862 0)
(0.489739 0.314774 0)
(1.02803 0.0129053 3.09434e-21)
(1.05829 0.195076 9.72288e-21)
(0.987429 0.122931 -2.82933e-21)
(1.01222 5.26085e-05 0)
(0.511901 0.357427 1.37122e-20)
(1.01252 0.000109898 6.36353e-23)
(1.01149 0.00874481 6.97272e-22)
(1.01328 -0.000510612 3.93751e-22)
(1.04193 -0.0262771 1.61241e-21)
(1.0132 -0.000384983 0)
(1.02708 0.00718703 8.01263e-24)
(0.917628 -0.212162 -7.1957e-21)
(1.01173 0.00420235 -2.10025e-21)
(1.01101 1.50973e-05 -1.28531e-21)
(1.02772 0.0149108 3.92929e-21)
(1.0187 0.0747645 0)
(0.99202 0.0348517 2.67637e-21)
(1.01042 0.0067947 4.56179e-22)
(1.04515 0.19423 4.6416e-20)
(0.237256 0.24654 0)
(1.01714 -0.00104959 0)
(1.00744 -0.000196946 7.09955e-22)
(1.01157 0.000404786 -6.09081e-22)
(1.0161 -0.0113153 -1.41049e-23)
(0.877694 0.17067 -3.37135e-21)
(1.01456 4.09546e-05 1.76612e-21)
(1.0278 0.0105066 5.42841e-21)
(0.925108 -0.206296 5.24199e-21)
(1.01476 -0.00184736 -1.28364e-21)
(1.06949 0.0702258 1.10052e-20)
(0.935531 0.238691 0)
(1.01272 0.000204404 -7.60897e-22)
(0.975402 0.0265211 2.95475e-21)
(0.8512 0.106756 0)
(0.933202 0.220026 1.91747e-20)
(1.0128 0.000238302 6.44332e-22)
(1.0343 0.0197319 0)
(0.936504 0.229148 -1.67764e-20)
(1.0148 0.0038397 0)
(1.01332 -0.000433487 -1.66041e-21)
(1.01203 0.00265177 -7.18365e-22)
(1.01314 -0.000369557 6.35645e-22)
(1.02755 0.0121169 2.81203e-21)
(1.02245 0.0232132 5.49226e-21)
(1.02473 0.00571447 0)
(1.01333 -0.000429986 0)
(0.958273 -0.0614673 -4.35495e-22)
(1.04434 0.0450123 0)
(1.02637 0.00376129 0)
(1.01468 -0.000884504 4.68953e-24)
(0.902141 0.277185 2.73075e-20)
(1.0105 4.56029e-05 0)
(0.865838 0.291933 2.76625e-21)
(1.01121 0.0498516 0)
(1.01428 -0.000182392 1.38369e-21)
(1.02362 0.022271 4.33773e-21)
(0.907227 -0.315934 -5.35337e-21)
(1.02827 0.00243185 4.57719e-21)
(1.12999 0.272392 -2.71505e-20)
(0.966642 0.0049762 3.05712e-21)
(0.437725 0.0810577 -8.57688e-20)
(1.0131 0.000961222 7.60992e-22)
(1.05521 0.22992 9.83375e-22)
(0.977736 0.141382 -7.00936e-21)
(0.90223 -0.0114843 -4.1112e-21)
(1.01209 -3.02166e-05 8.50899e-23)
(1.0329 0.22851 -8.69274e-21)
(1.01679 -0.000195698 0)
(0.842674 -0.195264 0)
(1.01582 0.0700883 1.31934e-21)
(1.02342 0.00521276 1.62774e-21)
(1.01315 0.00587892 0)
(1.07496 0.0751725 0)
(1.01234 -3.4326e-05 6.50401e-22)
(0.88202 -0.0139975 0)
(0.921218 0.00447358 3.25495e-22)
(1.017 0.00043626 0)
(1.00332 -0.0489064 0)
(1.01221 -7.4864e-05 0)
(0.928747 0.157408 -2.549e-21)
(1.01593 0.000900939 -1.2922e-22)
(1.04464 0.220396 -1.17854e-20)
(1.13547 0.323224 -9.85647e-20)
(0.97849 0.0204111 -2.97171e-21)
(1.11829 0.341743 7.15551e-20)
(1.00688 -0.0531055 0)
(1.01679 0.00179857 0)
(0.981483 0.150808 0)
(1.02449 0.00768313 1.0847e-23)
(1.03375 0.0200925 -9.40386e-22)
(1.0103 -0.0370029 1.09388e-21)
(1.02375 0.0052727 -5.82734e-22)
(1.01355 -0.000432217 1.36773e-21)
(1.01564 -0.000619457 2.03878e-21)
(1.04121 0.0442537 0)
(1.00754 0.000205528 0)
(1.0146 0.00386639 -6.01805e-22)
(0.927896 0.234319 8.20344e-21)
(1.02692 0.0218426 0)
(0.228862 0.00927423 1.31457e-19)
(1.0138 0.00884073 -2.79527e-22)
(0.846778 -0.108079 2.65499e-21)
(0.904121 0.126695 0)
(0.858289 0.160373 -6.42022e-21)
(1.01479 -0.00138598 3.4249e-24)
(1.01499 -0.0126397 2.62637e-22)
(0.85311 -0.273115 6.39957e-21)
(1.01239 0.000600508 9.59496e-22)
(0.857176 0.135354 0)
(1.01513 0.00782763 2.38512e-22)
(1.02732 0.0155659 -1.00219e-20)
(1.01169 0.000386613 -9.57204e-22)
(1.03057 0.0244839 0)
(1.01457 -6.82876e-05 -1.3484e-21)
(0.949128 -0.100003 -1.54892e-22)
(0.834608 -0.292638 0)
(1.02634 0.00745542 6.89983e-23)
(1.02553 0.020727 -4.56948e-22)
(1.00954 4.65881e-05 2.19832e-22)
(1.02616 0.00977698 0)
(0.0764253 -0.0508649 1.65974e-20)
(1.01549 0.00112447 0)
(1.02921 0.0423498 3.51954e-22)
(1.01311 -0.000800773 0)
(1.01418 0.00130867 3.63221e-22)
(1.01295 -0.00030362 -2.27404e-21)
(1.02107 0.0649615 0)
(0.839165 -0.277307 0)
(1.02342 0.042424 4.63786e-22)
(0.960228 -0.0942525 0)
(1.00444 -0.000124028 -2.53069e-21)
(1.01602 -0.000562436 -2.8258e-21)
(1.02123 0.00163115 -1.49416e-21)
(0.866388 0.209847 3.41104e-21)
(1.01197 0.00129738 -2.293e-23)
(0.938078 0.238971 1.84557e-20)
(1.02512 0.00969389 0)
(1.03606 0.0350933 7.75392e-22)
(1.03564 0.00916117 0)
(1.01509 0.00307299 4.23361e-22)
(1.00436 -5.62224e-05 0)
(0.913039 -0.294491 1.16019e-20)
(1.01258 0.000119513 0)
(0.91778 0.164144 7.08124e-22)
(1.14082 0.26167 2.82384e-20)
(1.03465 0.00847631 -5.6882e-21)
(1.01502 0.000143251 -7.71996e-22)
(0.836992 0.313734 0)
(1.00912 -0.0375873 0)
(1.01343 -0.000491588 6.92336e-22)
(1.04996 -0.0209205 0)
(1.01003 2.60911e-05 1.55266e-21)
(1.00815 0.042535 6.12411e-21)
(1.01238 -0.0242537 -1.33709e-21)
(1.0134 0.000241964 8.93308e-22)
(0.903387 0.206553 0)
(1.01962 0.049464 -1.37869e-21)
(1.01061 -0.00269028 -2.38271e-21)
(1.18244 0.0383054 0)
(1.03138 0.0217308 0)
(1.0214 0.00149343 1.63395e-21)
(1.01214 -6.35784e-05 1.06025e-21)
(1.02699 0.0138708 -3.37573e-21)
(0.90535 0.00254477 1.40505e-21)
(1.01476 -0.00088891 0)
(0.916263 0.134389 0)
(1.00402 -0.0351315 0)
(0.782447 -0.341275 0)
(1.01172 0.00183858 9.01467e-22)
(1.01633 -0.0143984 -2.68562e-22)
(1.18094 0.0517268 0)
(0.916807 0.199133 1.18393e-21)
(1.01648 0.000215386 -6.97471e-23)
(1.01291 0.00461253 1.47277e-21)
(1.01981 0.00499319 4.83233e-22)
(1.01049 -0.00214967 2.55263e-21)
(1.01594 -0.0243728 -1.871e-22)
(1.05332 -0.0133766 0)
(1.01288 -0.000269368 2.74933e-21)
(0.969413 -0.0571147 1.62214e-21)
(0.807637 -0.0916929 2.95795e-20)
(1.01362 -0.000426412 2.17895e-22)
(1.00736 -5.75457e-05 6.08881e-22)
(0.922055 0.244694 -1.81596e-20)
(1.03216 0.0312436 0)
(0.895505 -0.0421507 -7.34646e-22)
(0.933857 -0.0597438 1.29646e-21)
(1.01607 0.000306128 0)
(0.992556 -0.0129544 5.48739e-21)
(1.01209 0.00222834 2.39927e-21)
(1.02939 0.020814 0)
(1.00931 0.0385787 -6.28974e-21)
(1.01695 0.000206082 0)
(1.02172 0.00443808 1.205e-21)
(1.0285 -0.0368697 1.94524e-22)
(1.01035 -8.69651e-05 -7.44629e-22)
(0.834069 -0.166386 -1.59332e-20)
(1.04986 -0.0287483 -3.56818e-23)
(0.628437 0.335233 3.88875e-21)
(0.909181 -0.0458608 0)
(1.01488 -0.000122852 0)
(0.928585 -0.192122 -5.12155e-21)
(0.977485 0.117775 -7.2671e-21)
(1.00197 0.0486123 9.49168e-23)
(1.01472 -0.00148983 -8.85938e-23)
(0.989906 -0.000245293 -2.66762e-21)
(1.01084 0.000348516 -5.10687e-22)
(1.01357 -0.00033042 -2.64866e-21)
(1.01237 0.000977417 -1.80477e-21)
(1.01312 0.000671047 -1.16548e-21)
(1.02024 -0.0124351 0)
(0.316046 0.0322903 -5.30673e-20)
(1.03096 0.00564863 5.96151e-21)
(0.997876 0.0453095 -2.39145e-21)
(1.02234 -0.011417 0)
(1.01288 -0.00265421 1.49975e-21)
(0.847892 -0.376696 1.59183e-20)
(0.988451 -0.0126048 -2.69597e-21)
(1.02477 0.00716264 -1.07692e-23)
(1.00313 8.74501e-05 4.45811e-22)
(1.05158 0.27451 0)
(1.00417 3.20124e-05 -1.04217e-21)
(1.02257 0.00515531 8.37728e-22)
(1.01792 0.000494092 -1.07381e-21)
(1.02703 0.0102252 -5.05795e-21)
(0.793737 0.018528 0)
(0.936925 -0.192372 -5.28306e-21)
(1.02823 0.0112614 -9.30113e-21)
(1.01348 0.000891024 -2.32256e-22)
(1.02359 -0.00816955 -2.1283e-21)
(1.02204 -0.00939842 0)
(0.918007 -0.375933 2.52181e-21)
(1.01466 -0.000988442 5.45292e-23)
(1.00669 0.00018642 1.60788e-23)
(1.01206 0.00165307 2.92555e-21)
(1.01063 -0.000287306 0)
(0.902148 -0.0336843 -8.66166e-22)
(1.01262 0.00302726 1.99312e-21)
(1.04328 0.033143 0)
(0.859438 0.101735 -1.34621e-22)
(0.844368 -0.275789 -1.02499e-20)
(0.907259 -0.0210451 0)
(1.02182 0.00480291 9.18827e-22)
(0.874538 0.111924 -5.76285e-23)
(1.0179 -0.0386544 -5.12312e-21)
(1.01226 0.00212344 -1.49215e-21)
(1.02969 0.0980243 1.35979e-20)
(1.01379 -0.000413132 2.04248e-22)
(1.01263 0.000578118 6.52224e-22)
(1.01359 -0.000429734 7.91667e-22)
(1.01354 -0.00165134 0)
(1.01325 -0.000432125 5.74217e-22)
(1.02444 0.0104174 -3.51634e-22)
(0.67222 0.372425 -6.99407e-20)
(1.03032 0.00596021 0)
(0.997162 -0.0256548 0)
(0.943096 -0.181927 4.22286e-21)
(0.821735 -0.303131 -1.49301e-21)
(1.01791 0.00201805 -4.90477e-22)
(0.92148 0.208005 0)
(1.01766 0.000168334 -5.71522e-22)
(1.06815 0.0826847 2.72501e-20)
(1.0145 0.00120614 2.74188e-23)
(1.0494 0.359371 0)
(1.01454 0.00685476 6.8587e-23)
(0.847873 -0.35036 -5.79462e-21)
(0.07556 -0.0222615 5.14283e-20)
(1.01247 -0.00258468 -1.60702e-21)
(0.978743 0.106684 -9.72563e-21)
(1.01047 -0.003835 -4.04679e-22)
(0.906572 0.110175 -1.23825e-22)
(1.02349 0.0101344 3.47553e-22)
(1.05824 -0.125199 -1.69117e-20)
(1.00854 0.0170674 0)
(0.880198 0.174425 -7.15778e-21)
(1.02958 0.0056009 6.36198e-22)
(0.874645 0.109276 7.70202e-22)
(1.00637 1.69906e-05 1.49322e-21)
(1.00576 0.00492926 -8.63267e-22)
(0.891784 -0.370354 0)
(1.01277 -0.000233645 7.34713e-23)
(1.00708 0.000646364 -1.65353e-21)
(1.01109 -6.27042e-06 1.0944e-21)
(0.951953 -0.185483 0)
(1.01381 -0.000300605 1.39679e-21)
(1.01333 -0.00044806 -7.42058e-22)
(0.98965 0.132067 7.98214e-21)
(1.00205 0.008278 7.29615e-22)
(1.03424 -0.0391004 -7.74597e-21)
(1.05963 -0.116036 6.33838e-21)
(1.01535 0.00111979 1.63197e-23)
(1.00609 0.0522422 -7.44074e-21)
(1.00218 0.00686812 -7.96163e-22)
(1.01315 -0.000385735 -1.58422e-22)
(1.00723 0.0149747 1.87191e-21)
(0.936062 0.242636 -1.42395e-20)
(1.01063 -0.00276664 8.63227e-22)
(1.02676 0.00947281 0)
(0.599235 0.228794 -5.73936e-21)
(1.04925 0.0370394 0)
(1.00741 -1.46603e-05 0)
(0.425953 0.316292 -3.51062e-20)
(1.01255 0.0001183 1.21257e-21)
(1.01792 -0.0210054 0)
(1.03462 0.0427887 -1.13208e-22)
(0.921025 0.268762 -2.08871e-20)
(0.889313 0.201022 -4.34089e-21)
(0.943516 -0.0910425 -7.5239e-23)
(0.876346 0.0908543 1.77658e-21)
(0.883487 0.152348 3.57697e-21)
(0.9065 0.200117 -8.33277e-21)
(1.01343 -0.000489078 8.70476e-22)
(1.02604 0.0318221 -1.11497e-21)
(1.16059 0.120966 -2.02065e-21)
(1.14437 0.121049 -3.77875e-21)
(1.0287 0.0931306 2.12575e-20)
(1.01643 0.00147333 1.78003e-22)
(1.01254 0.00120909 1.85461e-21)
(1.00409 0.0399465 2.30579e-21)
(0.512648 0.312093 1.10507e-19)
(1.01344 -0.000431674 -7.94011e-22)
(1.0155 -0.00610829 2.17668e-22)
(1.0094 0.000318393 -7.62166e-22)
(1.01757 0.00208889 -7.00915e-22)
(1.02202 0.00491079 8.53469e-24)
(1.02351 0.00510347 1.20677e-21)
(1.01372 -0.00131534 1.25924e-21)
(1.00865 0.000123978 -9.15823e-22)
(1.04403 -0.0370978 3.64316e-23)
(1.03668 0.00712647 5.06298e-21)
(1.0207 -0.0211381 0)
(0.979627 0.0328264 -2.79076e-21)
(0.871995 0.138982 -1.03267e-21)
(1.0131 -0.000305794 -7.69631e-22)
(1.01505 0.403133 0)
(0.645593 0.206273 2.9506e-22)
(1.00468 0.221241 3.5551e-21)
(1.01089 -0.000105939 1.80509e-21)
(1.05592 0.0305102 1.95511e-20)
(1.00847 -5.34122e-05 0)
(0.808064 -0.287806 1.94444e-21)
(1.02176 0.00233859 1.56251e-21)
(0.971674 0.000148406 -1.73552e-21)
(1.02901 0.00585662 -6.25547e-22)
(1.0607 0.194694 -1.40612e-20)
(1.01183 5.04239e-05 -2.34462e-23)
(1.03289 0.0251888 0)
(1.01609 -0.00630575 3.31553e-22)
(1.02369 0.0282009 1.83212e-21)
(1.08178 0.0300744 0)
(1.00868 5.31305e-06 -1.04461e-21)
(1.01182 0.000364379 0)
(1.0131 0.00513323 -3.69737e-23)
(1.00858 0.323346 3.22721e-20)
(1.01322 -0.000764785 -3.19398e-21)
(0.981912 -0.000163591 2.75389e-21)
(1.0133 0.0690242 1.06105e-21)
(0.970842 0.100498 -1.76395e-20)
(1.01309 -0.002074 -1.61751e-21)
(0.978429 0.00325746 -1.31366e-21)
(0.900056 0.229312 1.10149e-20)
(0.747759 0.109245 -4.61626e-21)
(1.02303 0.00475165 1.67138e-21)
(1.01045 0.00032562 1.24747e-21)
(0.897572 0.159143 3.80473e-21)
(0.993095 0.299608 -3.08689e-20)
(0.973727 0.0180511 1.50936e-23)
(0.925242 -0.125519 2.08981e-21)
(1.01007 0.000122654 0)
(0.993248 -0.0447303 1.04515e-22)
(1.02293 -0.0226558 -5.92651e-21)
(1.01253 -0.0101938 0)
(1.01819 0.00805833 -2.6889e-21)
(0.863285 -0.219325 0)
(1.01292 -0.00164033 2.25813e-21)
(1.01617 0.00142739 4.3415e-22)
(1.0233 0.00544027 1.22902e-21)
(0.911658 0.240644 -1.64745e-20)
(1.01627 0.00277155 -3.57686e-23)
(0.894633 0.100722 -3.49933e-22)
(1.01742 0.00200647 -1.18526e-21)
(1.02311 0.00423934 2.0595e-21)
(1.013 0.00023524 0)
(1.00722 0.00213618 -7.68466e-22)
(0.916656 -0.126573 0)
(1.02362 0.00532049 -1.34235e-21)
(1.02613 0.00915442 9.17063e-23)
(0.878453 -0.158765 0)
(0.968526 0.0127517 0)
(1.0642 -0.0147892 -4.65677e-22)
(1.02345 0.00536618 1.95687e-21)
(1.01117 0.0031481 -1.66228e-21)
(0.984612 -0.0478978 0)
(0.786344 0.0927588 7.02304e-21)
(1.02213 0.00491899 -1.22943e-24)
(1.01354 -0.000620464 -1.80231e-23)
(1.01089 0.0618947 -8.87485e-22)
(1.02027 0.00540502 -3.61867e-22)
(1.02087 0.00418217 2.1151e-22)
(1.15048 -0.0209634 0)
(1.0138 -0.000190324 -2.93834e-21)
(0.845681 -0.279411 2.09508e-21)
(1.01362 0.000963815 6.88461e-22)
(1.00437 -0.0419782 0)
(1.00713 0.0135887 0)
(1.09462 0.350537 2.922e-20)
(1.01647 0.0027792 -2.5955e-23)
(1.05239 0.0350967 0)
(1.01585 0.000778155 0)
(1.01417 -0.00143622 -1.69516e-21)
(0.883095 -0.148185 0)
(1.01489 -0.00167882 9.48731e-23)
(0.784126 0.157734 -1.87066e-20)
(0.973466 0.0229277 -4.92048e-22)
(1.01319 0.000385823 0)
(1.00428 -0.0184175 2.43282e-21)
(0.684912 0.3201 3.24574e-21)
(0.940933 0.134256 1.80646e-22)
(0.987225 0.0306908 2.79895e-21)
(1.01045 -4.43083e-05 -1.37493e-21)
(1.01367 -0.000669839 -1.95677e-21)
(1.01313 -0.000374916 0)
(1.01901 0.00256285 3.69701e-24)
(1.0172 0.0243076 -1.28603e-21)
(1.02308 0.00532559 0)
(1.08712 0.186221 -1.70696e-21)
(1.01995 0.00463333 0)
(1.01385 -0.000539467 0)
(0.79107 -0.18622 3.16712e-20)
(1.02684 0.0251131 5.40143e-21)
(1.01866 0.0277911 2.1781e-21)
(1.00681 -5.58677e-05 0)
(1.01203 0.000622854 -1.51661e-22)
(0.756642 -0.187195 -6.23508e-21)
(0.795609 -0.00463003 8.16135e-22)
(1.00752 0.0112463 -2.31995e-21)
(0.871967 -0.233039 0)
(1.02084 0.0010213 1.47782e-21)
(1.04815 0.0394751 -3.57813e-21)
(1.01369 -0.000968851 0)
(1.01329 0.000445187 0)
(1.01246 0.00512077 3.29605e-22)
(1.01261 0.00443876 -7.18937e-22)
(1.02258 0.00502659 1.16621e-21)
(1.01004 -4.41897e-06 -1.42172e-21)
(0.921688 0.324113 0)
(1.02781 0.00568959 4.29089e-21)
(1.0621 -0.10906 0)
(1.01455 0.0026465 -5.75295e-23)
(1.00585 0.00537089 -1.80995e-21)
(1.01288 -0.000277221 0)
(1.06842 -0.0209302 -2.27143e-21)
(0.915598 0.151029 2.05077e-21)
(1.0132 0.000322362 -1.50153e-21)
(1.01492 0.00287703 -6.73319e-22)
(0.947141 -0.0575937 -4.5416e-23)
(0.976012 0.0141577 3.04982e-21)
(1.0128 -0.00024896 -1.33277e-21)
(0.847813 -0.268278 -1.18286e-20)
(1.01324 0.000778457 -5.23044e-22)
(1.04098 -0.0265416 4.05722e-22)
(1.01299 -0.000532276 0)
(1.01391 0.000515686 -5.57336e-23)
(1.01403 -0.00128144 1.59823e-21)
(1.06973 0.276017 -4.06614e-20)
(1.0128 -0.000239046 0)
(1.0151 0.00148749 0)
(1.01228 0.00339994 0)
(0.850845 -0.268365 4.9691e-21)
(1.009 -0.000146559 -1.08928e-23)
(1.01233 0.00472241 4.14112e-22)
(1.01013 -6.22746e-05 -2.19726e-21)
(1.05258 0.0886785 -5.55079e-22)
(1.01798 0.0021563 0)
(1.01599 0.00401499 8.21637e-23)
(1.01227 5.29194e-05 0)
(1.01621 0.00408702 0)
(1.01705 0.0089303 -3.79973e-22)
(1.01501 0.004034 0)
(1.00677 0.00404777 3.26055e-21)
(1.01372 -0.00105173 -7.80294e-22)
(0.0486391 -0.0466135 0)
(1.09833 0.257673 -1.41309e-20)
(1.06788 0.109094 1.22968e-20)
(1.0227 0.0106742 4.41485e-22)
(1.04918 0.020639 -1.11443e-20)
(1.01585 0.000903244 -1.75686e-23)
(1.13232 0.0238086 0)
(1.01811 -3.96818e-05 -2.29467e-23)
(0.821605 -0.0728306 -1.40374e-20)
(0.902458 -0.0589846 7.06126e-22)
(1.06314 0.153695 -1.28763e-21)
(1.04529 -0.0206557 0)
(0.840335 0.113399 -4.70269e-21)
(1.0206 0.000983134 -1.48088e-21)
(1.02184 0.00460844 0)
(0.899231 0.258155 1.17018e-20)
(1.04627 0.0826554 4.59999e-22)
(0.994975 -0.0167108 2.59772e-21)
(1.05941 0.144222 -1.17503e-20)
(1.02586 0.00528432 -3.35558e-21)
(0.817193 -0.00437524 0)
(1.01269 0.000967292 1.47889e-21)
(1.02288 0.00493561 -1.51345e-21)
(1.01314 -0.00046149 2.33178e-21)
(1.01307 -0.000667869 3.41488e-21)
(1.01193 0.000427884 -5.82659e-22)
(0.901509 0.263585 4.75385e-21)
(1.03367 0.0088599 -6.19008e-21)
(1.00929 -7.05386e-05 0)
(0.777144 0.39091 -5.06953e-21)
(1.01895 0.00436124 0)
(1.13636 0.00827243 0)
(1.0159 -0.00918676 0)
(1.03543 0.00680851 0)
(0.986833 0.00224379 2.85879e-21)
(1.01064 9.66693e-05 1.30486e-21)
(0.814674 -0.135042 1.75945e-20)
(1.01288 0.000108711 0)
(1.01305 0.00434278 6.66063e-22)
(1.06452 -0.0971853 9.04384e-22)
(1.0232 0.00449216 -1.84902e-21)
(1.01432 -0.000637433 -6.09305e-23)
(1.00737 -2.21913e-06 0)
(1.01296 0.000862107 3.12713e-21)
(1.0122 0.00109734 -1.24367e-21)
(1.08152 -0.0101349 -2.43358e-21)
(1.15483 -0.0376671 0)
(1.08515 0.236151 1.31981e-20)
(1.02688 0.00246195 1.76586e-22)
(1.01406 0.000303053 -1.81419e-21)
(1.01275 0.00114484 -1.51347e-21)
(0.806834 0.0158761 0)
(1.02767 0.0038733 -9.10911e-24)
(1.01076 0.00347343 1.74261e-21)
(1.01179 -9.94347e-05 -2.52523e-22)
(1.01256 0.00083219 0)
(0.823989 0.112617 6.19175e-21)
(0.848162 0.236136 -3.71949e-21)
(1.01066 -0.0249017 -1.44106e-22)
(1.02511 0.00827204 0)
(1.0134 1.50087e-05 5.8457e-22)
(-0.0434679 -0.0955499 0)
(1.05179 0.0380077 4.01808e-21)
(1.02006 -0.0149326 -2.69658e-22)
(1.05154 -0.0307422 3.49184e-21)
(0.910957 -0.192116 0)
(0.798008 -0.336154 3.28313e-21)
(0.810951 0.0791903 3.28134e-21)
(1.01273 0.000871658 1.44234e-21)
(1.0102 -5.54403e-05 1.42966e-21)
(1.01272 -4.64361e-05 0)
(0.891846 0.149 -4.09226e-21)
(1.01265 0.000853227 -2.28385e-23)
(1.05123 0.024625 1.23461e-20)
(1.0155 -0.00162937 -1.09592e-21)
(1.01486 -0.00178962 -1.10047e-22)
(0.990159 -0.00442057 0)
(1.01874 -0.00322833 0)
(1.03991 0.294435 -7.05017e-21)
(1.14067 0.289155 -1.16417e-19)
(1.01364 -0.0005242 1.03866e-21)
(1.01563 0.00274889 2.82091e-23)
(1.01328 -0.000466572 -1.47036e-21)
(0.94295 -0.0783445 3.34041e-22)
(1.01315 -0.000620789 1.32635e-21)
(1.04061 -0.164036 1.51327e-20)
(1.02304 -0.00646334 2.19906e-21)
(0.884289 0.263588 1.00614e-21)
(1.01364 0.000409284 2.17753e-21)
(1.01284 -0.0045409 0)
(1.01328 0.000330681 2.57596e-21)
(1.01613 0.00152136 0)
(1.02139 0.00429722 -1.0853e-21)
(1.01592 -0.00397079 -4.9575e-24)
(1.02197 0.0022155 1.80485e-21)
(1.02843 0.00669105 -5.60107e-21)
(0.9933 -0.0218584 0)
(1.0342 0.0233789 0)
(1.08909 0.0528655 0)
(1.02008 0.000433059 -9.57284e-22)
(1.0488 0.0712497 1.50557e-22)
(0.923722 -0.192098 -1.20177e-21)
(1.01694 -1.30028e-05 -1.50839e-21)
(0.215838 0.232356 -9.81778e-21)
(1.01394 0.00249453 7.09332e-22)
(1.01436 0.00320308 2.11199e-21)
(1.0153 0.00829757 0)
(1.01002 -0.000105861 -1.58489e-21)
(0.89075 -0.247287 1.1821e-20)
(1.01507 -0.00155119 6.27226e-22)
(1.02185 0.01027 -3.48712e-22)
(1.01296 0.000149242 -8.43037e-22)
(0.900836 -0.279122 -4.04699e-21)
(1.01319 -0.00426698 1.07862e-21)
(0.889739 0.130763 -7.9531e-22)
(0.983622 0.02947 -3.1488e-21)
(1.01391 0.000278554 0)
(0.973476 -0.108594 -1.03582e-20)
(0.908473 0.161126 -1.09436e-21)
(1.01703 -0.00913887 0)
(1.01452 -0.00214941 -3.47354e-23)
(1.05014 0.143087 -1.80454e-20)
(1.00397 0.000104561 0)
(0.810231 0.150479 -4.0923e-21)
(1.00117 -0.0241152 2.1563e-21)
(1.05007 0.01659 9.96628e-22)
(0.986616 -0.00784558 2.90419e-21)
(1.02623 0.0023779 0)
(1.02336 0.00493598 -1.9937e-21)
(1.01119 0.00563868 -9.50413e-22)
(1.03961 -0.0117314 -5.99376e-22)
(1.01217 0.00865005 -1.08445e-21)
(0.930903 -0.092194 0)
(0.852652 0.0472139 -4.12563e-21)
(1.01506 -0.00199352 9.98855e-23)
(1.0183 0.00378712 -1.03241e-21)
(1.01812 6.02974e-05 1.52895e-21)
(1.03012 0.0442371 -8.96141e-22)
(1.0042 8.92627e-05 3.77596e-22)
(1.02697 -0.182496 -1.60587e-20)
(1.02912 0.00367155 -3.51646e-21)
(1.02229 0.00505694 -9.82681e-22)
(0.89394 -0.0521629 1.25961e-22)
(1.01326 0.000605553 1.38191e-21)
(1.04685 0.134014 0)
(1.00894 -0.0115109 2.68236e-21)
(1.01398 0.00022288 0)
(0.86648 0.0657705 2.19759e-21)
(1.02641 -0.00401389 1.02476e-21)
(1.01503 0.000849736 -3.68118e-21)
(1.02109 -0.00170696 0)
(1.02208 -0.0332859 5.00238e-21)
(1.01186 0.0022764 -2.95252e-21)
(0.818223 -0.331823 -1.5833e-21)
(1.02782 0.00628494 -2.68303e-22)
(1.02939 -0.0323914 1.01182e-21)
(1.05359 0.0259073 0)
(0.995681 0.191915 5.90442e-21)
(1.0202 -0.000979077 -2.04196e-21)
(1.01292 -0.00631073 0)
(1.00461 -0.00352825 1.02349e-21)
(1.02836 0.0073136 5.03548e-21)
(0.986425 0.0254755 1.23781e-21)
(1.01254 0.000129928 -7.14053e-23)
(1.01936 -0.0263636 3.0732e-21)
(1.01507 0.00202457 1.95612e-21)
(1.03001 0.00453879 -2.58718e-21)
(1.01206 -0.00452757 0)
(1.0152 0.000843648 4.03624e-24)
(1.02976 0.0141916 0)
(0.970474 0.00925575 0)
(1.00962 0.00021386 0)
(1.02648 0.00406734 0)
(0.9568 -0.0953481 7.9041e-23)
(1.01256 0.000101706 -1.44515e-21)
(1.01348 0.000452759 -4.42069e-22)
(1.01482 0.00251172 0)
(1.01344 -0.000460803 5.62039e-22)
(1.00683 -0.0269146 6.47087e-23)
(1.00726 -0.00273401 2.01013e-21)
(1.02814 0.0109472 0)
(1.03986 -0.00801354 -7.67144e-22)
(0.966888 -0.10916 0)
(1.02118 0.00433088 0)
(1.04893 0.0223404 -1.84776e-22)
(0.831039 0.137311 2.24193e-21)
(1.01239 0.000697236 0)
(1.0164 0.000826103 1.88358e-21)
(1.01335 -0.000493076 -9.3686e-23)
(0.909274 -0.139553 -1.85534e-21)
(0.903577 -0.182405 2.63291e-21)
(1.02598 0.0230064 -5.98747e-21)
(1.01184 0.000338216 -3.56833e-22)
(0.969593 -0.00806146 5.79774e-22)
(0.809888 0.0809775 -1.08572e-20)
(0.890861 0.422117 -3.89764e-21)
(1.02066 -0.00466578 -2.14655e-21)
(0.8977 -0.138898 -8.95351e-22)
(0.878071 0.123166 2.25931e-21)
(1.0803 0.0724782 0)
(1.02668 -0.00241987 0)
(1.0158 -0.00426351 6.95969e-23)
(1.01828 0.00482354 1.01467e-21)
(1.09885 0.0698267 -8.10471e-21)
(1.11755 -0.015344 0)
(1.02834 0.00551163 -2.73001e-22)
(0.955114 0.408626 4.56464e-20)
(1.06017 0.00979333 0)
(0.871628 0.0502967 5.97148e-22)
(0.897979 -0.247161 -9.29243e-21)
(1.01429 0.00375015 -1.0929e-21)
(1.03811 0.0293723 -1.25011e-21)
(0.802374 0.185942 0)
(0.978224 0.0609393 -1.4152e-21)
(0.844155 -0.270574 -3.03009e-21)
(1.0377 -0.0140733 0)
(0.886635 0.353009 6.24599e-20)
(1.02683 0.0108389 0)
(0.801426 0.0644357 0)
(1.02294 0.00451861 -1.70759e-21)
(1.037 -0.00570894 7.64155e-22)
(1.00962 0.000211938 0)
(0.989935 -0.0118968 -2.22519e-21)
(1.0145 -0.000830072 0)
(1.02317 0.00514716 4.17124e-21)
(1.01536 0.00291917 0)
(0.837645 -0.296157 -1.16239e-20)
(1.01551 -0.000948023 5.48469e-22)
(1.01504 -0.00212225 1.6188e-23)
(0.892076 -0.281554 -3.25616e-20)
(1.02215 0.00395828 1.55962e-21)
(1.02585 0.0351917 -3.6595e-21)
(1.0211 -0.0059232 2.20889e-21)
(0.943967 -0.0859888 0)
(1.01113 -0.000209556 1.86459e-22)
(1.02563 0.00953307 6.4762e-22)
(1.01901 0.00905697 4.10681e-22)
(1.01772 0.000383526 0)
(1.01888 0.00413475 0)
(1.05335 0.0290028 -1.77463e-20)
(1.01228 0.00117949 1.13888e-21)
(0.541571 0.243462 0)
(1.05832 0.0149244 0)
(1.02053 0.0700688 -1.88603e-22)
(1.01571 -0.00121896 -5.7795e-22)
(1.10475 0.211396 0)
(1.01208 0.000846784 8.47762e-23)
(1.03739 0.133223 3.03998e-20)
(0.930244 -0.0718596 -3.34055e-22)
(1.01043 0.00961377 -1.19879e-21)
(1.01932 0.00453892 0)
(1.01348 -0.00042742 -4.73805e-22)
(1.01767 0.000900382 0)
(1.0172 0.000400567 2.70485e-22)
(0.941049 0.147867 0)
(1.07653 0.001231 -1.23683e-21)
(1.01286 0.000997279 -2.96318e-23)
(0.995581 0.174509 -4.56276e-21)
(1.01102 4.72228e-05 1.37495e-21)
(1.01478 0.000735014 -6.10477e-23)
(0.848779 -0.155018 -2.35534e-20)
(1.01317 -0.000361765 -8.07473e-22)
(1.01765 0.000584526 5.65046e-22)
(0.981564 0.167948 -2.82548e-21)
(1.01283 0.0010046 6.14321e-22)
(1.08969 0.0937551 -1.86885e-21)
(1.02923 0.0132093 0)
(1.07318 -0.058543 4.07426e-21)
(1.03196 0.0376448 -6.38483e-21)
(1.07039 0.00546555 1.22821e-21)
(1.00137 -0.0193553 -2.57077e-21)
(1.02012 0.00490934 -6.61894e-22)
(-0.0322594 -0.106658 -6.69119e-21)
(-0.0481597 -0.110444 0)
(1.0147 0.0028413 -4.52676e-22)
(1.02758 -0.0223589 -3.2761e-21)
(1.01823 0.290283 5.58569e-20)
(0.552965 0.267058 0)
(0.819278 -0.00902642 0)
(1.0076 2.2819e-05 0)
(1.01417 -0.00315348 1.15868e-21)
(1.00324 -0.00496651 -5.9747e-22)
(1.0227 0.00514999 -1.01705e-21)
(1.02508 -0.00145551 0)
(0.880948 -0.00676641 -2.0407e-21)
(1.04713 0.0215799 0)
(1.01322 -0.000397579 8.90185e-22)
(1.05102 0.0640952 0)
(1.0016 0.200551 -2.22408e-21)
(0.913086 -0.187702 5.79409e-21)
(1.01312 -0.000365046 0)
(1.01326 -0.000460218 5.04456e-24)
(1.00879 -4.31016e-05 0)
(1.0259 0.0057108 2.18822e-22)
(0.97865 -0.220997 1.49009e-20)
(1.09447 0.0238653 -1.81692e-22)
(1.01274 0.000640201 -9.06602e-22)
(1.04576 0.0290937 0)
(1.06972 0.0889148 1.21221e-21)
(1.01138 0.0062205 3.53217e-23)
(1.01329 0.000438133 -1.59871e-22)
(0.955666 0.392206 -1.61796e-21)
(1.02893 0.00261471 0)
(0.931324 0.00827608 3.15699e-21)
(1.02299 0.00137653 1.65095e-23)
(1.01053 -1.39432e-05 0)
(1.0267 0.00329973 6.97767e-22)
(1.00848 -0.00296269 -4.89166e-22)
(1.11798 -0.00128084 2.77946e-23)
(0.979068 0.0531792 -4.09176e-22)
(1.01159 0.0052093 1.60402e-21)
(1.024 0.0969447 6.21791e-21)
(0.93263 0.17059 4.82415e-21)
(1.06341 0.180876 1.73125e-21)
(1.02704 0.021851 -7.96115e-21)
(1.028 0.00302006 1.17572e-23)
(0.9787 0.40357 1.64744e-21)
(1.05152 0.0736185 -5.6086e-21)
(0.915539 -0.243795 6.22823e-21)
(1.0631 0.0523281 0)
(1.02166 0.00462859 0)
(1.01231 0.001457 1.23811e-21)
(1.02804 0.189183 -4.9289e-21)
(0.928776 0.126707 -1.99201e-22)
(1.00708 0.00210865 0)
(1.04382 0.0272903 2.66422e-21)
(1.05335 0.08277 1.65112e-20)
(1.01528 0.00243931 0)
(1.03087 0.0621958 6.32951e-22)
(1.00678 0.0028609 -8.24393e-22)