/*--------------------------------*- C++ -*----------------------------------*\
| =========                 |                                                 |
| \\      /  F ield         | OpenFOAM: The Open Source CFD Toolbox           |
|  \\    /   O peration     | Version:  v2012                                 |
|   \\  /    A nd           | Website:  www.openfoam.com                      |
|    \\/     M anipulation  |                                                 |
\*---------------------------------------------------------------------------*/
FoamFile
{
    version     2.0;
    format      ascii;
    class       volVectorField;
    location    "150";
    object      ddt0(U);
}
// * * * * * * * * * * * * * * * * * * * * * * * * * * * * * * * * * * * * * //

dimensions      [0 1 -2 0 0 0 0];


internalField   nonuniform List<vector> 
9793
(
(0.000605575 -0.0015477 1.74163e-17)
(0.011065 0.00274258 -4.76234e-17)
(0.00134719 -1.95319e-05 5.45903e-18)
(-0.00323907 -0.0436103 7.8036e-17)
(0.000952098 -0.000127177 -2.67422e-18)
(0.0129055 0.0201713 -4.75881e-18)
(0.0117956 -0.000430207 -1.73952e-17)
(-0.0138268 0.00320457 -5.18476e-17)
(0.00130044 0.0010723 -1.90252e-19)
(-0.00625416 0.00854995 3.30837e-17)
(0.00106251 -0.000219256 -6.5238e-19)
(0.00108687 -0.000233839 -2.40699e-18)
(3.23225e-05 0.000157221 -5.3748e-18)
(-0.0495905 -0.0184216 -2.72691e-17)
(0.00383358 0.000630574 -1.86186e-19)
(-0.00347634 0.000679123 8.53637e-19)
(0.00771517 0.0101775 1.40711e-17)
(-0.00148743 5.27357e-05 8.33866e-18)
(0.0108266 -0.0319049 -3.06223e-17)
(0.00230043 0.000157121 1.17821e-21)
(0.000983053 0.000350238 -3.3622e-20)
(-5.60529e-07 -2.25346e-05 -1.69138e-19)
(-0.00452083 -0.0376523 -2.75404e-17)
(-0.0135059 0.00243937 -2.31751e-17)
(-0.0544941 -0.0151114 8.52726e-18)
(0.00161054 -0.00220041 1.16458e-17)
(0.000514297 -0.000197511 -3.12367e-18)
(-0.0003568 -3.31075e-05 -5.10809e-18)
(0.00237227 0.000172726 -4.42313e-21)
(0.0123989 0.00593962 2.15947e-17)
(-0.0146704 -0.00221632 2.9384e-17)
(0.0188489 0.0220089 2.51139e-18)
(0.00260249 3.50077e-05 1.57159e-18)
(0.0011647 0.000130262 -2.88045e-18)
(0.00271911 4.92799e-06 -1.43656e-18)
(0.00053159 0.00639718 -6.32129e-19)
(-0.00411142 0.000931723 -2.14141e-17)
(0.000424489 -0.00229962 7.11956e-18)
(0.00727479 -0.0421614 3.3108e-17)
(0.00416954 0.00521776 -5.72805e-18)
(0.0114004 0.00584375 -2.40064e-19)
(0.0701765 0.0218211 1.44655e-17)
(-0.00637505 0.00273575 2.75632e-17)
(0.000540875 -2.24402e-05 4.44318e-18)
(-0.000234949 6.29991e-05 5.21109e-20)
(-0.0004641 -0.000108876 -1.37389e-18)
(-0.0188484 0.00339457 -4.32566e-17)
(0.00059329 -3.54367e-05 -7.81954e-19)
(-0.00132319 -1.89169e-05 -4.20495e-19)
(-0.00093695 5.42533e-05 -2.90373e-19)
(0.00028546 0.0063391 -4.15531e-18)
(0.00225566 4.19596e-06 1.2167e-18)
(0.00297548 0.00885415 1.41748e-17)
(0.00063994 -8.02176e-05 3.53205e-18)
(0.00301073 -0.00282905 -7.7766e-18)
(-0.00386987 -0.04348 -6.19055e-17)
(-0.000287489 0.000164825 1.44637e-18)
(0.00242891 0.0223173 3.53709e-19)
(-0.00117355 7.65214e-05 -3.1149e-18)
(1.36535e-06 -1.91123e-05 -1.04593e-18)
(0.00064227 -0.0025884 -1.57643e-17)
(0.00485761 -0.00668453 2.12008e-18)
(0.00101271 6.22831e-05 -6.4713e-18)
(-0.00622199 0.00888116 3.23218e-19)
(-0.00058611 3.28535e-05 2.75218e-18)
(0.00113629 0.00100214 3.4055e-19)
(-0.0162558 0.00148443 -7.72069e-18)
(0.00255897 0.0033449 8.75188e-18)
(-0.00449628 0.00036673 2.01304e-18)
(0.0328382 -0.0211073 4.12959e-17)
(0.000671017 -0.000986967 2.48728e-18)
(-0.000667164 -0.00688406 -1.87461e-17)
(-0.015286 0.0050845 -4.03903e-17)
(0.113573 0.138996 1.81827e-18)
(0.0579052 -0.0202868 2.70394e-18)
(0.000828999 -7.24286e-05 5.53832e-18)
(0.00212441 -0.00477888 -5.35939e-18)
(0.0426847 0.0144379 1.3948e-16)
(0.000837538 0.000100937 2.11865e-18)
(0.000576296 -8.57133e-05 -3.04069e-18)
(0.00191561 -0.0049185 1.17534e-17)
(0.0127604 -0.030105 4.69764e-17)
(0.00670588 0.0102656 3.84824e-18)
(0.00316792 -0.000562088 3.02848e-18)
(-0.00426214 0.000908045 1.12932e-17)
(0.0207519 0.00612423 7.87888e-17)
(0.00127132 -0.000117753 2.14426e-19)
(-0.00706323 0.0236718 -5.41224e-19)
(0.00496117 -0.0436557 -1.17715e-17)
(0.00453604 -0.00652914 1.82471e-17)
(-0.00710313 -0.0384223 3.41882e-17)
(0.0303498 0.0060388 -6.06583e-17)
(0.0296588 0.0038079 5.90737e-17)
(0.00761398 0.00392814 9.04711e-19)
(-0.0029439 -0.00207392 -3.16106e-17)
(0.000162351 -4.58716e-05 1.80063e-18)
(0.0573786 -0.0159666 3.52525e-17)
(0.00828612 0.00807158 1.70943e-17)
(0.00380466 0.00259404 3.87301e-18)
(0.000896475 -9.6247e-05 2.23387e-18)
(-0.0158818 -0.0384842 2.48566e-17)
(0.00322133 0.00835767 -3.14316e-19)
(0.017371 0.227424 9.82832e-18)
(-0.000157383 7.52451e-05 4.73112e-19)
(0.0691969 -0.0276041 -8.36315e-17)
(0.0337751 0.0112254 -9.35754e-17)
(0.107198 0.118504 -1.20405e-18)
(0.00162448 6.01029e-05 -7.92431e-19)
(0.000577472 9.01613e-05 2.4757e-19)
(0.000851299 -4.45516e-05 -2.04776e-18)
(0.000916344 -7.90484e-05 -3.63032e-18)
(-0.00587663 -0.03698 -2.28721e-17)
(-0.000197556 -0.00913452 4.31446e-17)
(-0.00587376 -0.00128014 -1.00177e-17)
(0.000509887 -0.000973279 8.10919e-18)
(0.00228293 -0.000337599 3.31728e-18)
(-0.00225516 -0.0027152 1.70614e-18)
(-0.0013366 -0.000128718 -3.5746e-18)
(-0.00397029 -0.0439199 -3.03528e-17)
(-0.000218227 -3.02348e-05 -6.12318e-19)
(0.0605606 -0.0276482 -4.36108e-18)
(-0.00558995 0.0253045 2.18344e-18)
(0.0636616 -0.00588719 -3.41016e-19)
(0.00102055 0.0117033 -6.19431e-18)
(-0.00401738 0.0014198 9.99889e-18)
(-0.000449515 -6.35129e-05 -7.45114e-19)
(0.00920543 0.00962472 -2.80541e-17)
(-0.0149042 -0.00270091 -3.5413e-18)
(-0.00463362 0.0501041 4.30297e-17)
(-0.00735715 0.0538721 -1.03604e-17)
(-0.0022573 0.00280556 7.98847e-18)
(0.00202271 -0.000142666 -1.86635e-19)
(0.000482958 -0.00152665 -1.47039e-17)
(0.00228596 0.0028499 -5.18259e-19)
(0.00014185 0.00574954 7.30739e-20)
(0.0159202 -9.72633e-05 3.26308e-18)
(0.00135865 0.0237789 1.46129e-17)
(-0.00244371 -0.00224063 -3.36631e-18)
(0.000364794 -5.02845e-05 -4.65198e-18)
(0.00769351 0.0121383 -6.7455e-18)
(0.0148128 -0.0253946 -1.36199e-17)
(0.00097728 0.00605538 -1.08517e-18)
(-0.00119257 -0.000804193 -3.33352e-18)
(-0.00674573 0.0183645 -9.79438e-18)
(-0.0171369 0.00448267 1.38245e-17)
(0.0124791 -0.00879674 -1.12248e-16)
(-0.000337774 -6.26352e-05 1.14992e-18)
(0.0535065 -0.0156221 -5.15293e-17)
(0.00149325 -0.000138068 -1.56375e-18)
(-0.000553414 -3.93466e-05 2.10589e-18)
(0.00149383 -0.000166959 -1.08176e-18)
(-0.0114576 0.00214666 9.04498e-17)
(0.00317175 0.00250246 -7.06879e-18)
(0.000545917 -0.000208267 -5.77769e-19)
(0.000521411 -0.00045929 -3.78778e-19)
(0.0281237 -0.00498367 -9.59493e-17)
(0.007984 0.0107848 3.29711e-18)
(6.64876e-05 6.26647e-05 3.14917e-18)
(0.0170656 0.0238597 1.16884e-17)
(0.000919221 -0.000686584 1.22023e-19)
(-0.00635724 0.0214346 -1.06851e-17)
(-0.000964723 0.00304155 -5.42531e-18)
(0.00100371 0.000377691 -1.48937e-19)
(0.00251185 -0.00902572 9.11578e-18)
(-0.000899713 0.00101585 2.33469e-18)
(0.0486456 0.0188293 -4.10684e-17)
(-0.00639328 0.238801 2.40856e-18)
(-0.000654651 0.00142975 1.27159e-18)
(0.000371597 6.81095e-05 2.72715e-18)
(9.10761e-05 -0.000186784 4.83995e-18)
(-0.000292892 -0.00083835 -4.63971e-18)
(-0.00214678 0.000110848 2.18305e-17)
(-0.023901 0.00731236 7.59976e-17)
(0.000376768 -0.0212844 4.53357e-17)
(3.43314e-05 0.000140542 -4.71149e-18)
(0.0121351 0.019752 1.64018e-17)
(0.00926498 -0.00603572 -9.62711e-18)
(0.00214202 -0.00992392 3.16533e-17)
(0.000655061 9.90033e-05 2.77141e-18)
(0.00187452 0.00341131 -1.86246e-18)
(0.0775637 -0.0229022 5.71964e-17)
(-0.0185867 0.00340192 1.44395e-17)
(-0.00590915 0.0272088 1.54143e-17)
(-0.000598239 -7.32742e-05 -1.55865e-18)
(-0.000663289 -0.000242213 -8.25538e-20)
(0.00102014 5.3323e-05 -9.90242e-19)
(0.0744018 -0.00388225 -1.82436e-17)
(-0.0165848 0.00398072 7.67472e-17)
(-0.0134519 0.00104712 -1.81256e-17)
(0.0254888 0.216321 8.34971e-18)
(0.00125785 0.000803858 2.28051e-20)
(0.000717776 -0.0367865 4.17879e-17)
(-1.7444e-05 -0.00929084 -1.78662e-17)
(0.000682587 -0.00235953 -1.22295e-17)
(-9.93646e-05 -0.000352753 -5.04238e-18)
(0.00183236 -0.00125259 -3.76745e-18)
(-0.000166931 -0.00906159 -7.91829e-17)
(0.000114487 0.00015929 -2.32868e-19)
(-0.00135228 3.24404e-05 -8.56559e-18)
(-0.000208074 -0.000310527 -1.32793e-19)
(0.000212347 -0.00109162 -9.86335e-19)
(0.00109647 0.00025456 5.58135e-19)
(-0.000298238 0.0068317 -9.7469e-18)
(-0.00196643 0.00342227 -1.61233e-18)
(0.00390858 -0.0452554 5.48779e-17)
(-0.000565239 -0.000711289 -4.46979e-18)
(0.00378613 0.00460632 1.22224e-17)
(-0.000642867 0.00135121 -1.85715e-19)
(0.00122889 -0.00129433 1.47587e-18)
(0.00523562 -0.0103425 1.28887e-17)
(0.007456 0.0116589 -1.34657e-18)
(0.0144693 -0.0234119 -2.50732e-17)
(0.00136742 0.000100178 -1.23629e-18)
(0.0305767 -0.0223707 -4.8202e-17)
(0.00329579 -0.000727625 3.9727e-18)
(-0.0230267 -0.00376577 1.73649e-18)
(0.00316298 0.000658098 2.91327e-19)
(0.0162009 0.000760882 -1.00682e-17)
(0.00180082 -0.000359376 -1.40172e-17)
(0.000335924 -0.00522777 -5.39713e-17)
(0.00909489 0.00839115 -7.36706e-18)
(0.001059 0.000295411 -9.44576e-19)
(-0.00210612 -0.0101871 -7.91324e-18)
(-0.00408065 0.0172698 -1.04398e-17)
(0.00715774 0.00359425 9.08298e-18)
(2.06868e-05 -0.00018932 9.37717e-19)
(0.00204749 0.0139814 9.45743e-18)
(-0.0231119 0.0843662 2.15677e-17)
(0.000770797 -0.00510492 -1.6346e-17)
(0.00104946 -0.0052159 1.31155e-17)
(-0.00133432 -0.0457792 -1.05531e-17)
(-0.0054113 0.0405674 -1.02932e-17)
(-0.0202195 -0.0027121 1.28435e-18)
(-0.00634393 0.0094904 -1.39383e-17)
(-0.00026095 -0.00747207 -1.91429e-17)
(-0.000522415 -0.000277269 7.86718e-20)
(0.00482454 -0.0318153 -3.6682e-17)
(-0.00536338 -0.00147916 -4.62556e-17)
(-0.000478687 0.00015924 9.89256e-20)
(0.000271547 -0.000263381 -8.06336e-19)
(0.0728521 0.0211547 7.7862e-17)
(0.000433669 -0.000556502 8.16543e-18)
(0.000971553 -7.38366e-05 6.0225e-18)
(0.00270702 0.0256951 -1.22302e-18)
(0.00529663 0.0245347 -5.83583e-17)
(0.00119497 0.000873435 -3.51192e-21)
(0.00178938 0.0035036 8.99432e-19)
(0.00365628 0.00490872 -1.57211e-17)
(0.00527083 -0.0024987 3.76172e-20)
(0.000345387 0.00357913 6.56454e-18)
(0.000770507 9.68697e-05 1.52355e-19)
(0.0080909 0.0012112 6.83454e-18)
(0.000390058 -0.0458637 1.84447e-17)
(0.000711828 0.000310028 -3.22682e-19)
(-0.00571358 -0.00860946 -3.19447e-17)
(0.000900998 -9.57974e-05 -4.06169e-19)
(-0.00151101 -0.000259634 1.29472e-18)
(0.00269439 1.08899e-05 3.95174e-19)
(-0.00351048 -0.044236 -5.40132e-17)
(-0.000315987 9.18297e-05 1.26359e-18)
(0.0245505 -0.00403055 9.47784e-17)
(0.0450889 -0.0299215 -6.92938e-17)
(0.00198546 -0.000127494 2.42525e-18)
(0.000961912 -0.00036069 1.03345e-17)
(0.0333806 0.0112171 4.10954e-17)
(0.000767987 1.13532e-05 1.22799e-18)
(0.0014635 -0.000180858 1.15273e-20)
(0.000147822 1.22644e-05 5.20572e-19)
(0.0412909 -0.0307755 5.89338e-17)
(0.00242162 -0.00871938 -2.53346e-17)
(0.00098471 -0.00189063 -8.86566e-18)
(0.00676747 -0.00958516 3.40685e-18)
(0.00309388 0.0205293 -2.35726e-17)
(0.00788782 0.227613 -1.46628e-17)
(-0.00251411 -0.0353226 -5.39009e-17)
(5.72705e-05 0.00155486 3.54797e-18)
(0.00169322 -0.0428017 7.1731e-17)
(-0.00152548 -8.16138e-05 2.06887e-18)
(-0.0347271 0.0948592 -1.62708e-17)
(0.000617992 -0.0144524 -7.72155e-18)
(-0.00327436 -0.0409333 2.56034e-17)
(0.061767 -0.0280398 -3.85422e-18)
(-0.00438857 0.0380875 9.86867e-18)
(-0.00255731 0.00266163 -2.12469e-18)
(0.00642363 0.00959914 -2.23105e-17)
(-0.00203152 0.00317908 4.11974e-19)
(0.00097161 -0.000589434 5.19569e-19)
(-0.00126031 0.000922751 -3.9883e-18)
(0.00559327 -0.00981172 -5.53978e-18)
(0.00165309 -0.00223724 2.11521e-18)
(0.000749984 -0.000373503 3.05867e-18)
(-9.14368e-05 -5.74476e-06 -1.77672e-19)
(0.000298177 0.000114839 3.54638e-19)
(0.00236385 -4.85581e-06 -6.14063e-21)
(0.000943817 0.000346625 1.52458e-18)
(-0.0049312 -0.0325041 -6.26896e-18)
(0.000429472 5.2446e-05 -1.81899e-19)
(0.00396325 0.000448996 1.27743e-19)
(0.003067 -4.15572e-06 -3.61024e-20)
(0.000223518 0.000154556 -2.7163e-18)
(0.000745607 -0.0457923 -5.65751e-17)
(0.0129569 -0.00827578 1.455e-17)
(-0.00132397 -0.00594167 6.97218e-17)
(0.00108196 -0.00177095 8.2191e-18)
(-0.00512825 0.0183991 -1.58803e-17)
(0.00441655 -2.40313e-06 5.84804e-21)
(0.0725824 0.0833883 3.99451e-18)
(-0.00818448 0.000597828 -1.16383e-16)
(-0.000281065 8.42371e-05 -6.44421e-19)
(0.0475259 -0.0269678 -1.82317e-17)
(-0.00458826 0.00831578 1.82905e-17)
(0.000369402 4.86066e-05 -5.51843e-18)
(0.00542211 0.00300635 -3.63493e-18)
(0.12151 0.0908574 -3.04744e-18)
(0.00291673 1.60368e-05 -3.67814e-18)
(0.00852143 0.000986903 -1.26686e-17)
(0.00146531 -0.0106677 5.14608e-17)
(0.00136539 -0.00116725 5.93039e-18)
(-0.00107886 -0.00372322 -1.31038e-17)
(0.00392469 0.000466169 9.45008e-20)
(0.00120828 -0.00130121 -6.36174e-18)
(-0.0693823 0.101331 -1.91308e-18)
(0.00403483 -0.00350368 -6.98389e-18)
(0.00108627 0.000142044 2.55459e-18)
(-0.000277575 -1.05263e-05 -4.56853e-18)
(0.00115322 -0.00175042 1.34056e-17)
(0.0110564 -0.00586308 9.32866e-18)
(-0.000197769 -0.00905788 -7.88561e-17)
(0.00104065 -1.52019e-05 -1.01933e-17)
(0.00227323 4.49587e-05 1.48141e-19)
(-0.000199025 0.000680644 -1.88622e-19)
(-0.00183079 -1.50869e-05 -9.98363e-17)
(-0.00380851 -0.0300584 -6.95664e-17)
(-0.00390459 -0.00298695 2.55745e-17)
(-0.000520861 -0.000167161 2.06693e-18)
(0.00428476 -0.00361006 -3.12493e-19)
(-0.00137233 -0.00379968 7.77922e-18)
(0.00545065 -0.01292 -9.86044e-18)
(0.00297613 0.0176983 4.11425e-17)
(-0.00121822 -0.000497966 4.24494e-19)
(-0.00153629 -0.000398912 1.32353e-18)
(-0.00014208 0.00070406 -1.04124e-18)
(0.00533218 0.00964966 1.55473e-17)
(0.000814202 -0.000572974 4.80891e-18)
(-0.00828967 -0.00792474 1.93902e-17)
(0.00238114 -0.000284978 -6.748e-20)
(0.00101601 -8.96843e-05 3.66869e-19)
(0.0325891 0.108988 -1.66825e-17)
(-0.0056598 -0.03144 -2.9652e-17)
(0.030334 -0.0246964 -2.12889e-17)
(0.00254216 -4.32627e-06 -5.35504e-20)
(-0.0132592 -0.0400302 -5.78523e-17)
(0.00278656 -0.000400693 2.06217e-19)
(0.000198631 -0.00988848 -1.69909e-18)
(-0.0101174 -0.00471244 2.59487e-17)
(-0.00061147 -0.0463321 -1.61375e-17)
(0.0039494 -0.000123325 -9.35926e-19)
(0.00432735 0.0053329 -9.99389e-18)
(0.00387523 0.0248233 1.56983e-17)
(-0.00879478 -0.036781 -2.81501e-17)
(-0.00602516 -0.0385837 2.57607e-17)
(-0.00039649 -0.00245131 1.14335e-17)
(-0.000892912 -3.89437e-05 -1.24545e-18)
(0.0011498 -0.00198415 1.9037e-17)
(-0.00127159 -0.000126975 3.38999e-19)
(0.00301926 1.21703e-06 -2.1375e-19)
(0.000847451 -0.000629933 -2.80382e-18)
(-0.000654931 -0.000135114 1.80319e-18)
(5.13851e-08 -2.03794e-06 9.60018e-19)
(-0.00643819 -0.00899538 -1.933e-17)
(0.000138992 -0.000214857 2.9129e-19)
(0.00977173 0.0085349 1.37313e-17)
(0.00351851 0.00558756 -2.81561e-17)
(0.110399 0.00945195 3.29182e-17)
(-0.00119686 -0.000541044 7.84386e-19)
(0.00330638 -0.000476733 1.53871e-18)
(-0.000144914 -0.0478413 -4.68846e-19)
(7.11265e-05 -0.00827451 -1.10795e-16)
(-0.0576011 -0.0102535 -1.46766e-17)
(0.00288973 0.0170291 -2.40943e-17)
(-0.000157089 -7.84765e-05 -9.41779e-20)
(0.00403155 -1.08677e-05 3.3504e-18)
(0.00103072 1.46554e-05 5.09699e-18)
(0.0158798 -0.00506196 -2.76593e-17)
(0.000359617 5.00158e-05 -5.46132e-22)
(0.0317052 -0.0267101 -2.97692e-17)
(0.00788316 -0.00727933 -2.98594e-19)
(0.0113535 -0.000972226 1.64854e-17)
(-0.00380279 -0.00314993 -6.52434e-18)
(-0.0669206 0.117339 -2.20968e-17)
(0.00363369 -0.000142571 2.88986e-19)
(0.000822978 -0.000146858 -9.23387e-19)
(0.00784034 0.0221419 -2.07579e-17)
(0.0163562 -0.00463432 3.36209e-17)
(-0.00137064 -0.000684829 -1.12128e-17)
(-0.0126966 -0.00456739 2.13475e-18)
(0.00431956 -0.00014913 1.14824e-18)
(-0.00143 -0.000352774 2.16607e-18)
(-0.00149834 -0.0129165 1.20597e-17)
(0.000318978 0.00010434 1.09429e-18)
(0.00334485 0.0214795 3.40618e-17)
(-0.00053268 -0.0002108 -2.06929e-18)
(-0.0218789 0.231891 -2.13626e-17)
(0.00142571 -0.000310888 1.62905e-18)
(-0.00104037 0.000903895 -2.15014e-18)
(0.0362591 0.0696656 2.55969e-17)
(-0.000662962 -0.00670047 -1.71869e-17)
(-0.029926 0.00528806 -6.25484e-18)
(0.000814141 -0.00234553 -1.96823e-18)
(0.000249669 -8.02506e-05 -3.09747e-18)
(-0.000315133 -0.00025423 2.95443e-18)
(0.0607572 -0.00851921 1.70336e-18)
(0.00847458 0.00734418 -4.49059e-17)
(-0.00108322 8.499e-05 -1.58918e-19)
(0.000922613 -0.00036032 -9.10061e-18)
(0.00296697 -0.0030215 -3.14481e-17)
(-0.00155939 -0.00371549 2.94202e-18)
(-0.0311747 0.00232176 1.35471e-17)
(-0.0162773 0.00465485 1.99307e-18)
(-0.000926183 -0.000337986 -3.83523e-18)
(0.00172795 0.000107315 2.95117e-18)
(0.00328976 -0.00927365 -6.87925e-17)
(0.000136262 -7.34956e-05 2.21891e-18)
(0.000801006 -0.0463121 -1.85824e-17)
(0.00262645 -0.0098503 -1.1927e-19)
(-0.000665244 -0.000198044 2.2615e-18)
(0.00249554 2.25935e-05 -8.82819e-18)
(-0.00107237 0.000989952 3.52722e-18)
(0.00427257 -0.00013403 -3.98897e-19)
(-0.000889449 0.000625017 5.80783e-19)
(-0.0160314 -0.0384675 9.66962e-19)
(0.000542585 -0.00531392 3.32013e-18)
(0.0299535 0.010492 3.03371e-17)
(-0.00117017 -0.0029143 1.02177e-17)
(-0.00159507 -0.00039272 3.1262e-18)
(0.00165296 0.0114366 2.57132e-17)
(0.000372844 -0.00223611 2.28488e-17)
(-0.0051922 -0.0429812 7.093e-18)
(0.000967797 -0.00253726 1.28469e-17)
(0.00038178 -0.00010611 -9.40585e-19)
(0.00237533 0.00348069 -4.98967e-18)
(0.0132525 -0.00735304 5.66239e-18)
(0.000286588 -0.000910174 4.65191e-19)
(0.00073185 -0.000745925 2.09599e-18)
(0.000244976 -0.00105045 -6.11725e-18)
(0.000167971 4.80955e-05 1.44906e-20)
(0.000256087 0.000138208 -4.90806e-18)
(0.00208828 0.000362745 4.32124e-19)
(-0.00097826 -0.000111025 1.83612e-18)
(0.00211298 -0.000138746 -4.26913e-18)
(0.00172201 -0.00100272 3.70166e-18)
(-0.00174525 0.00336716 1.01152e-17)
(0.00200367 0.0268795 -2.20798e-17)
(-0.00162394 9.12314e-06 9.46304e-20)
(-0.000473615 -0.00970444 8.06818e-17)
(0.00115193 -0.00215969 -4.88859e-18)
(0.00823903 -0.00786108 -3.32556e-18)
(-0.00167758 -0.0349331 4.76708e-17)
(0.000876581 -0.000464142 3.93886e-18)
(0.0427155 0.113932 2.59414e-17)
(0.0116812 0.000103382 2.89666e-18)
(-0.000254536 -0.000251925 -2.74414e-18)
(0.00234259 6.98693e-05 1.85432e-21)
(-0.00159003 -0.000757129 6.22599e-18)
(0.0799876 -0.0119096 -2.05729e-17)
(0.00395658 0.0198729 -3.88422e-17)
(0.00209192 6.90078e-05 6.09863e-21)
(0.00250637 -0.000406081 -3.49201e-18)
(-0.00152241 -0.000321425 1.90466e-18)
(-0.00216383 -0.00586133 6.57632e-18)
(0.00897783 -0.00667279 -1.10618e-17)
(0.0417592 0.0143259 -4.78765e-17)
(-0.000688032 3.17337e-05 -9.63327e-19)
(-3.79365e-05 -0.000443252 -5.60316e-18)
(0.000834739 -0.0032846 -9.89756e-18)
(-0.0199516 0.00244723 5.29593e-17)
(-0.00435581 -0.0413299 -3.22155e-17)
(0.000521258 -0.00189527 2.3964e-17)
(0.00055079 0.00190824 -5.82359e-18)
(-0.0012264 -0.00253182 4.51039e-17)
(0.0537114 0.0208854 3.34976e-18)
(0.011825 0.0284688 -1.67969e-18)
(0.000355344 -0.00104134 -1.76251e-19)
(0.00191114 -0.000126512 2.31715e-18)
(0.00530453 -0.0443231 -3.09538e-17)
(-0.00120764 -8.06592e-05 -3.43144e-18)
(0.00990484 -0.00572208 1.75646e-17)
(0.103517 0.00485664 -4.42322e-17)
(-0.000128244 5.77837e-05 9.86977e-20)
(0.00260056 -0.00850864 4.54477e-17)
(0.00350293 0.00434122 -4.10014e-18)
(-0.0127783 -0.0392069 1.15983e-17)
(-0.000312809 -0.000235281 1.94841e-18)
(0.0117183 -0.0352047 1.49854e-17)
(0.0209886 0.0144569 -2.59204e-17)
(-0.00294933 0.000831444 -5.0309e-18)
(0.0335073 0.01335 -4.30873e-17)
(-0.000618588 -2.35111e-05 -3.88334e-18)
(0.0063817 -0.0122486 -2.44043e-18)
(0.000840513 -0.000324747 -1.1429e-18)
(0.000339391 -0.000101773 1.59942e-18)
(0.00188199 -0.000169563 -6.79666e-18)
(-0.00100644 9.22484e-05 -6.18876e-18)
(0.0537408 -0.0238461 6.28935e-17)
(-5.80943e-05 -9.12493e-05 5.10802e-18)
(-0.000683902 0.000196322 -2.07515e-18)
(0.00108965 -0.00175124 -2.5382e-18)
(-0.000530507 -9.98214e-05 8.79764e-19)
(0.00249747 -0.000140238 -1.12021e-18)
(0.00843893 3.60564e-05 -1.29693e-17)
(0.00286101 -0.000591073 -7.20278e-18)
(-0.00514197 0.00893899 -2.91906e-17)
(0.00222356 3.0442e-05 6.60193e-19)
(0.00163544 1.32891e-05 7.15289e-19)
(0.000211909 -0.0473606 -4.46973e-18)
(-0.000856036 -0.00642643 -3.32621e-17)
(0.000579843 -0.00187814 1.66399e-17)
(0.000674592 -0.0145592 -4.34542e-17)
(-0.00155449 0.00314038 -2.89718e-18)
(0.00133343 -0.000729044 2.76081e-18)
(0.000560857 9.13626e-05 -3.42142e-19)
(-0.000557284 0.000582984 -1.47232e-18)
(-0.00496194 -0.00315109 -2.02985e-17)
(-0.000854654 0.000122049 4.2342e-18)
(-0.000801742 -4.74578e-06 -2.99928e-19)
(-0.0220185 -0.000354451 -3.0819e-17)
(0.0689772 0.0233773 1.4895e-17)
(0.0052306 -0.00217283 -6.1999e-18)
(-0.00170545 0.000178432 6.90039e-18)
(0.000755806 -4.35678e-05 -5.64156e-18)
(0.000653054 0.00153417 -1.65701e-18)
(0.000162279 -0.000152304 -1.9401e-18)
(-0.0142332 -0.00817469 -2.82947e-17)
(0.00083813 -0.00119278 -1.40872e-18)
(0.0402021 0.202928 3.76557e-18)
(-0.00383353 0.00163603 -3.18428e-18)
(-0.00178182 -0.00978809 -2.78359e-18)
(0.000987786 -0.000107571 2.44977e-18)
(-0.0242612 0.00129337 -3.41171e-17)
(0.000165652 2.68826e-06 4.32535e-19)
(0.0116297 -0.00631644 -1.28333e-17)
(-0.000987324 -7.87567e-05 -5.39351e-18)
(-0.0258893 0.0311531 -3.3843e-17)
(0.000286006 -0.0458982 -4.47088e-17)
(0.00109224 -0.000359802 3.06952e-18)
(0.0692736 0.0121634 -7.31771e-18)
(0.0022991 -0.000411769 -1.04066e-19)
(0.000199871 -7.87575e-06 2.86023e-18)
(0.000688466 0.000322171 -7.59547e-20)
(0.085544 -0.0164864 -5.60128e-17)
(0.00244937 -0.0453047 5.68394e-18)
(-0.000910475 -0.000852434 -3.57341e-18)
(0.00359978 0.00461662 6.37417e-18)
(-0.00113446 -3.63785e-05 -9.66953e-20)
(-0.00798513 0.00864929 5.91472e-17)
(-0.00279226 1.17174e-05 -1.07928e-19)
(0.00792217 0.0016001 -3.73965e-18)
(0.0140252 -0.0345752 2.69052e-17)
(0.000275846 -0.00235263 -4.56235e-18)
(-0.00211438 9.37012e-06 -1.44719e-18)
(0.00248699 -0.00471102 5.67352e-18)
(0.000107663 -3.95922e-05 -1.11243e-19)
(0.000353556 0.00161105 -1.10788e-18)
(-0.000112944 0.000782555 2.98747e-20)
(0.000346951 0.0268947 2.01968e-18)
(-0.00147946 9.72878e-05 -1.57875e-18)
(0.00642537 0.0189901 -1.0697e-16)
(0.000304121 -2.63965e-06 -4.97684e-18)
(0.00143749 -0.000452555 -9.75224e-18)
(-0.00879245 0.0100998 -2.67905e-18)
(0.00342517 -0.00623604 -5.25874e-19)
(0.0367277 0.0187958 -2.59203e-17)
(0.00417585 0.0003655 -2.883e-20)
(-0.0221704 0.00162783 1.69923e-17)
(0.000746083 -0.000168059 2.44035e-19)
(0.0094749 -0.00724004 1.29562e-17)
(0.00122434 -0.000431141 5.05811e-18)
(-0.00111308 0.00120996 -4.32561e-18)
(-0.00029644 -8.70182e-05 3.56914e-18)
(-0.000348266 1.72255e-06 2.85759e-19)
(0.000697153 -9.70038e-05 -6.49297e-19)
(0.00935438 -0.00771579 1.57225e-17)
(-0.0195962 -0.000335671 4.12701e-18)
(0.0649296 0.0130062 1.79346e-17)
(0.0140423 0.010829 -3.57081e-17)
(0.00126917 -0.00379398 1.27425e-17)
(0.00365958 -0.00274378 -1.49849e-17)
(0.000124501 -0.0133074 -1.73405e-18)
(0.00224261 0.00303653 -1.09155e-19)
(-0.0172792 -0.0130712 4.50628e-17)
(0.00207042 -0.0189696 4.37315e-17)
(0.0115834 -0.00708718 -2.7743e-17)
(0.00374524 0.00306804 2.39941e-17)
(0.0947349 0.00980296 -1.21858e-17)
(0.0104172 -0.00621053 -1.37061e-17)
(0.000567633 0.00155759 -1.64373e-18)
(0.000306295 -0.0091783 4.09149e-17)
(-0.00956765 0.00950053 -2.2427e-18)
(-0.0013765 0.00114791 3.82817e-18)
(0.012224 -0.007645 3.27188e-17)
(0.000397542 -3.47338e-05 2.66101e-19)
(0.00637758 -0.0100454 6.79422e-21)
(0.00516041 -0.00178022 -5.53675e-18)
(0.0104962 0.0218445 3.56127e-17)
(-0.000723705 -0.00265238 6.97661e-18)
(-0.00767664 -0.0288255 -6.76517e-18)
(-0.0128065 0.000932724 5.84481e-18)
(-0.00818691 0.0092855 9.77156e-18)
(0.0106997 0.0221469 -5.68661e-17)
(-4.95906e-05 -0.000282937 4.88723e-18)
(0.00991512 -0.00993079 1.37134e-17)
(-0.000696804 -0.00176038 -3.64026e-18)
(-0.00126878 -3.56168e-05 -1.55015e-18)
(0.000184762 -0.000672408 3.09923e-18)
(-0.0011546 -0.00242062 2.41032e-18)
(0.00767971 0.00702595 2.37467e-17)
(-0.000851895 -0.0453245 2.73356e-20)
(0.00652647 -0.00885126 1.76626e-18)
(-0.015079 0.00745674 -1.94856e-17)
(0.00249746 0.00274121 4.77268e-19)
(0.00195297 -0.00125669 7.19717e-18)
(-0.0148028 -0.0380674 -5.16068e-17)
(-0.00181418 -0.00763833 3.41495e-17)
(0.00220729 0.00189329 -5.91985e-18)
(0.00360761 0.015481 -9.91944e-18)
(0.00142826 -0.00129232 3.13216e-18)
(-1.35296e-05 -0.0105876 -1.37307e-17)
(0.0442009 0.0818655 -1.76511e-17)
(-0.00134198 -0.000173734 -5.86917e-18)
(-0.00157805 -0.00601449 -7.77819e-18)
(0.00339212 -0.00888182 5.00453e-17)
(-0.00982943 -0.00621536 2.84799e-17)
(0.000192325 2.67823e-05 -2.56286e-18)
(0.00125179 -0.00205778 -9.47177e-18)
(0.0369224 0.00555538 -3.57153e-17)
(-0.000661911 0.0063083 3.70685e-18)
(0.0769466 -7.54772e-05 1.92517e-17)
(-0.0222425 0.032795 3.75907e-17)
(0.114911 0.0128056 -1.16645e-17)
(0.00253967 -0.00140972 -9.41396e-18)
(0.0023561 0.00314494 -7.98778e-18)
(0.00137069 0.000820903 -7.60185e-20)
(0.00100257 -0.000419138 6.86223e-19)
(-0.0179056 0.0654869 8.23352e-18)
(0.000165483 -3.76269e-05 -1.53268e-18)
(-0.0202847 0.0681692 2.13924e-17)
(0.0141096 0.0142685 -2.72655e-17)
(0.0102853 -0.00210897 9.79654e-19)
(0.000114189 -1.51586e-05 -4.0185e-18)
(-0.000859646 -8.02272e-05 -1.13256e-18)
(-0.00223825 -0.000952313 -7.05554e-19)
(0.000411673 -0.001178 -2.97409e-18)
(0.00285525 1.96021e-06 -2.23532e-18)
(-7.90267e-05 -0.000558511 -1.88553e-18)
(0.0135801 0.0102831 2.112e-17)
(0.0858119 -0.00550693 -4.58697e-17)
(-0.0549349 -0.0137399 2.53799e-17)
(-0.000433037 -2.18431e-05 -1.50774e-19)
(0.0150031 -0.00484695 4.02005e-18)
(-0.00201537 0.000194619 7.08313e-19)
(0.00156724 -0.0240189 -3.72471e-17)
(-0.0035163 0.0144682 -2.22624e-17)
(0.0013732 -0.00472233 2.75832e-17)
(-0.00142483 -0.0036957 -5.18716e-19)
(0.0203039 0.0159673 -3.31307e-17)
(0.00201114 -3.86803e-05 6.29568e-20)
(0.00154961 -0.000120705 3.33878e-18)
(0.00270455 -0.00443857 1.42684e-17)
(-0.000666251 -0.00010153 6.26277e-18)
(0.00022791 0.00146305 5.19184e-19)
(0.00627449 0.013069 1.14359e-17)
(-0.0298378 -0.0306507 -4.53578e-19)
(0.00125311 0.000220372 -2.05844e-19)
(-0.00981069 0.0581858 2.73586e-17)
(0.00567099 -0.0422579 3.59209e-17)
(0.000973818 0.00375349 -9.86761e-18)
(-0.0533699 0.0893713 1.52019e-17)
(0.0115996 -0.042006 1.43068e-17)
(0.00144717 0.000430316 -4.79924e-19)
(0.00885961 0.00923866 1.31815e-17)
(-0.00403872 0.00116505 -7.7335e-19)
(0.00131601 0.000689682 1.05521e-19)
(0.000750273 0.000322337 -1.93729e-19)
(0.000947642 -0.00677059 -6.94149e-17)
(0.00190528 -0.0412279 -2.36016e-17)
(-0.0140056 0.00816026 -5.9761e-17)
(0.00039626 -0.000967849 1.09775e-17)
(-0.000312699 7.74231e-06 5.14658e-18)
(0.00299717 0.000374861 1.8617e-20)
(-0.00229948 -0.00375903 -4.05494e-18)
(0.0028228 -0.00046181 1.32823e-19)
(0.00311817 -0.000793164 -2.89124e-18)
(-0.00305946 -0.0096268 4.89912e-17)
(-0.00476572 0.0144544 2.76279e-17)
(0.00371134 -0.000149461 3.51602e-18)
(0.0510897 0.0257142 -8.88744e-17)
(0.000153717 0.00685803 7.28678e-19)
(0.00142787 -0.00361981 -5.92969e-18)
(0.000831742 0.00138479 -1.59597e-18)
(-0.0112018 -0.000760809 -1.42228e-17)
(-0.0024903 0.00238861 4.31374e-19)
(-0.00209309 6.25802e-05 1.38247e-18)
(0.0106642 -0.00184904 -1.79317e-17)
(-0.000305219 -0.00944031 -6.43673e-17)
(-0.000782225 6.41903e-05 -5.50089e-19)
(-0.00121183 -0.000138474 -6.15103e-19)
(0.000904608 5.66124e-05 5.90828e-18)
(-0.00419339 0.000277089 -1.24259e-18)
(0.00227814 -3.76501e-05 -4.19277e-19)
(-0.00730864 0.0099064 -6.49672e-18)
(0.00476655 0.0264553 -6.92926e-17)
(0.00214716 -0.000327002 4.92406e-18)
(-0.000152078 0.0280845 -1.90131e-17)
(0.00272583 0.001773 -3.19267e-18)
(0.000281219 0.00129247 1.9084e-18)
(0.0440476 0.0158059 2.03092e-17)
(0.00679275 -0.0249708 -3.74611e-17)
(0.0115102 0.0406729 -1.11555e-17)
(0.00187664 -0.000178448 1.2284e-18)
(-1.74141e-05 -6.85235e-06 7.32507e-19)
(0.177631 0.0546744 1.38261e-17)
(0.000916617 -0.00243932 8.77546e-18)
(0.0866006 0.0756247 -2.4057e-17)
(0.000583237 -4.05964e-05 1.47371e-18)
(0.000998905 -0.000457328 4.74276e-19)
(-0.00683067 -0.00167634 1.06694e-17)
(0.0300303 0.216819 -7.77688e-18)
(0.00389058 0.00487179 1.28744e-17)
(0.00279905 0.0234139 -4.62689e-18)
(-0.000691778 -0.00587009 -7.21995e-18)
(0.000683042 -0.000201614 7.65545e-19)
(-0.00013191 -1.24544e-05 3.25084e-18)
(0.00119659 0.000507829 -2.32002e-19)
(0.00471063 -0.0140297 -1.27246e-16)
(-0.00100977 -5.14981e-07 -2.54726e-18)
(-1.37259e-07 -2.50328e-06 -1.26023e-18)
(-0.0101387 -0.0368947 -6.03801e-17)
(-0.000679714 -0.00264286 2.18196e-17)
(0.0219135 0.00653533 -1.00349e-17)
(-0.00110353 -0.00355168 -5.8084e-18)
(-0.000302456 0.000173343 -1.42982e-18)
(0.0085096 -0.0278581 3.56179e-17)
(-0.00261664 -6.62445e-05 -7.39701e-18)
(0.000466685 -0.000361694 -2.30076e-18)
(0.00115538 0.000406174 -6.3862e-20)
(0.00353217 -0.00229964 -5.94505e-18)
(-0.00182047 -0.0456725 1.49225e-17)
(-0.00143982 -0.000257622 -2.4453e-19)
(-0.000350205 8.4557e-05 4.88898e-18)
(-0.000382947 -0.000140685 -1.01708e-17)
(8.3068e-05 -0.000140893 -4.81799e-19)
(-0.00202656 0.000195823 2.99431e-19)
(0.00189098 0.00083082 1.88796e-19)
(-0.00406569 0.000129886 -7.06303e-17)
(0.0036691 -0.00250295 -2.50552e-18)
(0.00148935 -0.00105022 6.96488e-19)
(-0.000680635 -0.000193271 -2.01874e-18)
(0.00312346 -0.00264468 1.1046e-17)
(0.00928137 0.010204 -1.98379e-18)
(-0.00367877 -2.77861e-05 -2.24535e-19)
(-0.000896502 -0.00289531 -1.8186e-17)
(0.000420524 -4.99934e-06 6.06008e-19)
(0.00255587 0.000373725 3.91312e-21)
(0.00411338 0.000438718 5.5991e-19)
(0.00113534 -0.0462097 -3.66085e-17)
(-0.0962785 0.0482783 1.14031e-17)
(-0.00155419 -0.000601181 -3.7957e-18)
(-0.0143803 0.00788611 -4.01376e-17)
(0.000240387 -0.000292081 2.81226e-18)
(0.00227504 -0.00140254 -1.76413e-18)
(0.0241703 -0.00532027 -8.96412e-18)
(0.000149773 -0.0085428 -6.32911e-17)
(0.00188651 0.000667467 1.46588e-19)
(-0.00142276 -0.000250977 -1.00048e-18)
(-0.00127694 -0.00833551 2.28415e-18)
(0.00144346 0.014377 3.54405e-18)
(-0.00209569 5.87509e-05 8.18999e-19)
(0.000989268 -0.000157342 3.67591e-18)
(0.0124706 0.0106945 7.06256e-17)