/*--------------------------------*- C++ -*----------------------------------*\
| =========                 |                                                 |
| \\      /  F ield         | OpenFOAM: The Open Source CFD Toolbox           |
|  \\    /   O peration     | Version:  v2012                                 |
|   \\  /    A nd           | Website:  www.openfoam.com                      |
|    \\/     M anipulation  |                                                 |
\*---------------------------------------------------------------------------*/
FoamFile
{
    version     2.0;
    format      ascii;
    class       surfaceVectorField;
    location    "150";
    object      ddtCorrDdt0(Uf);
}
// * * * * * * * * * * * * * * * * * * * * * * * * * * * * * * * * * * * * * //

dimensions      [0 1 -2 0 0 0 0];


internalField   nonuniform List<vector> 
14470
(
(0.000417179 -0.00152849 2.14423e-18)
(0.000389462 -0.00153907 6.54797e-18)
(0.000368134 -0.00152221 1.50501e-17)
(0.00843784 0.00257486 -2.40418e-17)
(0.00916134 0.00210511 5.04718e-17)
(0.000125825 -4.89772e-06 -3.13084e-18)
(0.000138954 3.73533e-06 5.20691e-18)
(0.000142238 -4.14974e-05 5.95454e-18)
(-0.00342411 -0.0435768 2.71693e-17)
(-0.00285638 -0.0443168 4.93344e-17)
(-0.00333424 -0.0434492 5.14143e-17)
(1.73231e-06 -0.000109567 -2.32897e-19)
(1.53504e-06 -0.000112724 -1.77795e-18)
(3.26314e-06 -0.000157968 8.20865e-20)
(0.011913 0.0200077 5.0415e-18)
(0.0126517 0.0207364 4.73166e-17)
(0.0129125 0.0198305 2.66812e-17)
(0.0110284 -0.00061347 9.90502e-19)
(0.0111253 -6.12721e-05 -7.43773e-18)
(0.0117481 -0.000375123 -1.56318e-17)
(-0.0135658 0.00279553 -3.59326e-17)
(-0.0126229 0.00385452 -3.3568e-17)
(-0.0151693 0.00300683 -8.49644e-18)
(0.000619896 0.00105714 7.52754e-20)
(0.000630019 0.00114567 -1.28274e-19)
(0.000701302 0.00106526 -6.34368e-20)
(3.71952e-05 -0.000225266 -1.60209e-18)
(3.14714e-05 -0.000215527 -1.69692e-19)
(3.0801e-05 -0.00020747 -5.23563e-19)
(4.08653e-05 -0.000243154 -1.70453e-18)
(4.43313e-05 -0.000234485 3.33672e-19)
(0.000119293 0.000147628 -5.02667e-18)
(0.000116549 0.000160441 1.0566e-18)
(0.000124158 0.000160064 -2.17503e-18)
(-0.0521555 -0.0163542 -8.51173e-18)
(-0.0466324 -0.020521 -1.4669e-17)
(-0.0500506 -0.0175459 7.12611e-18)
(0.000149429 0.000611152 6.99843e-20)
(8.67164e-05 0.000603586 -2.67075e-19)
(0.000120581 0.000728674 -1.74654e-19)
(-0.00676088 0.000776958 -2.10024e-18)
(-0.00730905 0.000964628 8.46861e-20)
(-0.00715796 0.000301053 2.73437e-19)
(0.00571505 0.0103438 8.35328e-18)
(0.00635591 0.0106153 7.87221e-18)
(0.00636276 0.00988184 4.4213e-18)
(0.000172795 4.20388e-05 4.28127e-18)
(0.000181193 2.65733e-05 -1.12285e-18)
(0.000177215 5.95667e-05 1.80495e-18)
(0.0117314 -0.0311222 4.78077e-18)
(0.0107032 -0.0329204 -1.74824e-17)
(0.00946733 -0.0321342 -1.37597e-17)
(-0.000140475 0.000176405 -2.16296e-21)
(-0.000140813 0.000160361 1.08467e-20)
(-0.000151592 0.000163245 3.17075e-20)
(-0.000285948 0.000377101 -1.00606e-19)
(-0.000320331 0.000360944 7.6407e-19)
(-0.000291222 0.000342535 -5.92676e-20)
(-6.17407e-07 -3.30831e-05 -1.11e-18)
(1.61271e-08 -3.341e-05 -2.97147e-18)
(-0.00507318 -0.0373411 -2.53088e-17)
(-0.00426861 -0.0370728 -1.65935e-17)
(-0.00402906 -0.038775 9.82034e-18)
(-0.0121287 0.00192659 3.10199e-17)
(-0.0145456 0.00177169 -4.81145e-17)
(-0.0545633 -0.0145183 1.75789e-17)
(-0.0582364 -0.0126323 -6.02391e-18)
(0.0013747 -0.00220544 6.18633e-18)
(0.00136541 -0.00212322 1.19212e-18)
(0.0012473 -0.0022012 9.52511e-18)
(0.000107571 -0.000200679 -1.73842e-18)
(0.000113008 -0.000176478 -8.80137e-19)
(0.000107643 -0.000205506 5.14467e-19)
(2.15269e-06 -2.70085e-05 -2.1894e-20)
(2.32197e-06 -3.19478e-05 -1.56926e-18)
(4.78713e-06 -4.05108e-05 -2.64373e-18)
(-0.000128543 0.000184989 4.66926e-20)
(-0.000139524 0.000192801 9.96724e-20)
(0.0114453 0.0059548 1.1921e-17)
(0.0119368 0.00633594 -1.7268e-17)
(0.0121018 0.0055893 8.85611e-18)
(-0.014831 -0.00240505 1.41531e-17)
(-0.0140751 -0.00230477 3.0883e-17)
(-0.0151759 -0.00148212 8.49298e-18)
(0.0178446 0.0231139 7.85781e-18)
(0.0179265 0.0215462 -4.29655e-17)
(0.0194632 0.0216326 -9.26126e-18)
(0.000106227 3.61416e-05 -1.07523e-18)
(9.41436e-05 3.25971e-05 1.2039e-18)
(0.000105293 5.91481e-05 2.35019e-19)
(0.000174442 0.000144723 -2.62933e-19)
(0.000177975 0.000129893 4.64086e-19)
(0.000180337 0.000138691 9.59292e-19)
(-1.97158e-05 6.00339e-06 -1.24752e-19)
(-1.75374e-05 7.02579e-06 -1.15678e-18)
(-5.5422e-06 5.70502e-06 -1.977e-18)
(-0.00181296 0.00642599 -2.14837e-18)
(-0.0015128 0.00628301 -9.19244e-19)
(-0.00153027 0.00672961 1.71328e-18)
(-0.00503883 0.000911214 -4.65417e-18)
(-0.00466223 0.00115993 -6.99518e-18)
(-0.00459847 0.000711875 -5.02206e-18)
(-0.000215061 -0.00227047 1.5127e-17)
(-0.00025913 -0.0023322 4.46695e-19)
(-0.000127007 -0.00233487 5.25696e-18)
(0.00522027 -0.0431965 1.05326e-17)
(0.00633762 -0.0431144 -2.13699e-17)
(0.00824207 -0.0453363 3.1152e-17)
(0.00308164 0.00534488 -8.13324e-18)
(0.00281898 0.00512926 3.20677e-18)
(0.00271079 0.00552498 3.68665e-18)
(0.0109118 0.00544587 2.26414e-17)
(0.0107126 0.00613187 -7.50344e-18)
(0.0712553 0.02149 4.42343e-17)
(0.0691262 0.022667 1.43327e-17)
(0.0665151 0.0201826 2.728e-17)
(-0.00472346 0.000608553 1.03571e-18)
(-0.00535333 0.00526376 2.83167e-17)
(-0.00863261 0.00257556 -3.69693e-17)
(5.50227e-07 -1.61196e-05 1.42248e-18)
(1.88184e-06 -2.48648e-05 1.22347e-18)
(-2.0026e-06 6.88119e-05 2.47106e-19)
(1.08637e-06 5.68394e-05 -2.88628e-18)
(-7.44388e-06 5.78864e-05 2.11259e-18)
(1.22023e-05 -8.92669e-05 -1.46766e-18)
(1.61646e-05 -0.000124441 -9.62249e-19)
(5.4018e-06 -0.000120617 1.78562e-18)
(-0.0187292 0.00338951 -1.32785e-17)
(-0.0194201 0.00288865 7.6547e-18)
(-0.0183335 0.00389015 -5.22702e-17)
(1.32954e-06 -5.69903e-05 1.35921e-18)
(2.29334e-06 -2.6893e-05 -9.10512e-19)
(2.7963e-06 -2.52153e-05 7.85311e-19)
(-0.000715907 2.80623e-05 -1.89496e-18)
(-0.000684519 -4.20212e-05 -2.76039e-19)
(-0.000753032 -5.06328e-05 1.51788e-18)
(0.000163233 6.46836e-05 -3.36438e-18)
(0.000169378 3.16402e-05 1.90007e-18)
(-0.0022652 0.00670008 -1.57177e-18)
(-0.00223174 0.00615939 -1.64154e-18)
(-2.11897e-05 5.84241e-06 -5.39679e-19)
(-2.03925e-05 5.61134e-06 9.81966e-20)
(0.001429 0.00866783 7.31352e-18)
(0.00192211 0.00888344 -6.29041e-18)
(0.00127974 0.00904949 -1.09291e-17)
(7.39721e-06 -8.64306e-05 1.36823e-18)
(5.6765e-06 -9.49735e-05 1.79822e-18)
(0.0025926 -0.0028849 -2.14817e-17)
(0.00264894 -0.0026894 1.55112e-18)
(0.002816 -0.00283907 7.80676e-18)
(-0.00368587 -0.0438824 -5.79774e-17)
(-0.00440969 -0.0428958 -1.96413e-17)
(0.000102793 0.000158206 -7.87322e-19)
(0.000103927 0.000166138 -1.11908e-19)
(9.86224e-05 0.00015518 8.87573e-19)
(0.0024846 0.0218809 1.77899e-17)
(0.00218527 0.022867 -2.26787e-18)
(0.00137584 0.0221201 3.30773e-18)
(-0.000681277 9.58849e-05 4.33338e-19)
(-0.000750769 8.60733e-05 -1.47241e-18)
(1.50987e-06 -2.88584e-05 -1.30355e-18)
(0.00026056 -0.00254585 -1.32749e-18)
(0.000222405 -0.00260229 -2.30522e-18)
(0.000142612 -0.00255186 -1.56058e-17)
(0.00464072 -0.00658517 9.68938e-18)
(0.00495986 -0.00656394 6.68641e-18)
(0.00471314 -0.00701419 -7.47487e-18)
(0.000138219 6.54537e-05 -1.83619e-18)
(0.000127123 6.09894e-05 -2.33122e-19)
(0.000128842 8.64539e-05 -3.64029e-19)
(-0.00788757 0.00924881 -7.50532e-18)
(-0.00706315 0.00892561 -1.56418e-17)
(-0.00795087 0.0084539 -1.23205e-18)
(3.38825e-05 3.14876e-05 9.18206e-19)
(2.84338e-05 2.92598e-05 -1.76843e-20)
(2.94782e-05 3.57701e-05 2.49439e-18)
(0.000621694 0.000957336 1.68136e-19)
(0.000561316 0.00103145 -1.50524e-20)
(-0.0204672 0.00134624 -2.13226e-17)
(-0.0192247 0.00153386 4.93001e-18)
(0.000252424 0.0035184 1.35599e-18)
(0.000327511 0.00333766 4.12896e-19)
(0.000484828 0.00350389 4.88679e-18)
(-0.00542497 0.00064894 6.77235e-18)
(-0.00575615 0.000344687 3.06273e-19)
(-0.00532409 0.000139506 1.73103e-18)
(0.0311349 -0.0209769 -9.01321e-18)
(0.0337733 -0.0221762 3.67915e-17)
(0.0330079 -0.0179779 1.58513e-17)
(0.000236012 -0.000976824 5.20223e-18)
(0.000215516 -0.00101573 -1.73881e-18)
(0.000201652 -0.000954257 -2.27114e-19)
(-0.000622191 -0.00678569 -1.79963e-17)
(-0.000734301 -0.00698515 -4.88927e-17)
(-0.000438843 -0.00697595 1.99268e-17)
(-0.0159499 0.00452645 1.92636e-17)
(-0.0141125 0.00523969 3.18814e-17)
(-0.0156261 0.00552411 -5.04517e-17)
(0.11138 0.127593 1.58374e-19)
(0.0991861 0.144995 -1.95517e-18)
(0.127364 0.125108 2.15853e-18)
(0.0576502 -0.0180339 1.95502e-17)
(0.0557533 -0.0222075 3.38076e-17)
(0.0613475 -0.0199264 -4.57722e-18)
(2.31066e-06 -6.12031e-05 7.12192e-19)
(2.15009e-06 -6.88576e-05 1.29817e-18)
(6.56532e-06 -8.85716e-05 1.25549e-18)
(0.00184889 -0.00484838 5.35709e-18)
(0.00210618 -0.00471124 6.72408e-19)
(0.00182679 -0.00460368 2.07567e-17)
(0.0453841 0.0167608 5.43082e-17)
(0.0423119 0.0144887 3.56578e-17)
(0.0379998 0.0130381 -1.62937e-17)
(7.82677e-05 9.81115e-05 1.19041e-18)
(8.61324e-05 0.00010159 1.18595e-18)
(8.4722e-05 0.000101923 -6.60962e-19)
(2.98683e-06 -0.000100548 -1.42653e-18)
(2.68329e-06 -9.67786e-05 -2.69791e-19)
(6.67218e-07 -6.30182e-05 -2.82629e-18)
(0.00190377 -0.00500508 1.80254e-17)
(0.00171355 -0.0049074 -5.17819e-18)
(0.0121267 -0.0286231 2.90527e-17)
(0.0139627 -0.0302483 2.43184e-17)
(0.00515229 0.0100056 -9.28028e-18)
(0.00512085 0.0106758 1.19468e-18)
(0.0020096 -0.000563727 3.52376e-18)
(0.00207754 -0.000432208 2.18542e-18)
(0.00196132 -0.000440691 6.50023e-19)
(-0.00546763 0.00115014 5.61067e-18)
(0.0209419 0.0063318 3.11227e-17)
(0.0200938 0.00567373 4.19645e-17)
(0.0198053 0.00681118 1.46648e-17)
(2.5768e-06 -0.000107481 -1.99515e-19)
(4.96686e-06 -0.000144062 1.83518e-18)
(-0.00953002 0.0244584 8.21021e-19)
(-0.0100413 0.0224281 -5.63848e-18)
(-0.0116637 0.0237956 4.84275e-18)
(0.00664083 -0.0433454 1.86516e-17)
(0.0029643 -0.0438803 -1.56811e-17)
(0.00442804 -0.00630425 1.91853e-17)
(0.00419225 -0.00680778 8.44254e-18)
(-0.00793924 -0.0375819 2.72394e-18)
(-0.0064558 -0.0385247 2.96578e-17)
(-0.00694116 -0.0392764 -3.21729e-17)
(0.0296876 0.0051032 -8.36501e-18)
(0.0297716 0.00559061 -1.52113e-17)
(0.0284857 0.00638433 4.2274e-18)
(0.027727 0.00129833 -1.26866e-19)
(0.0289511 0.00261529 1.34289e-17)
(0.00628087 0.00385872 5.68012e-18)
(0.00682969 0.00394437 4.7295e-18)
(0.0063777 0.00432344 1.24728e-17)
(-0.00196167 -0.00594102 1.9985e-17)
(4.72299e-05 -0.00195837 -2.00761e-17)
(0.000223074 -4.4557e-05 -1.14685e-18)
(0.000235439 -7.23136e-05 3.54566e-18)
(0.000223399 -2.12593e-05 1.17601e-18)
(0.053953 -0.01549 -2.23817e-17)
(0.0600685 -0.0134566 -3.30685e-17)
(0.00721125 0.00837149 3.75089e-18)
(0.0070618 0.00782743 -1.40734e-17)
(0.00660534 0.00828915 1.1876e-17)
(0.00183214 0.00266026 -9.61749e-19)
(0.00190634 0.0028112 2.1501e-18)
(0.00202921 0.00264215 3.50503e-18)
(9.91505e-07 -6.94618e-05 5.93348e-20)
(1.67187e-06 -0.000113529 2.12865e-18)
(-0.0143792 -0.0392762 -1.98455e-17)
(-0.015994 -0.0384567 1.37025e-17)
(-0.0171936 -0.0375483 2.42864e-19)
(0.00166571 0.00820665 -3.8312e-18)
(0.00104583 0.00840775 -5.2881e-18)
(0.0214395 0.221192 9.04682e-18)
(0.0129335 0.226937 -2.03441e-18)
(0.0141334 0.236294 -7.05734e-19)
(-5.13707e-06 8.05276e-05 -1.5208e-19)
(6.79779e-06 7.61099e-05 -3.74076e-19)
(0.0726936 -0.0252059 -2.05111e-17)
(0.0654285 -0.0279068 -4.25473e-17)
(0.0663636 -0.0280787 -2.35679e-17)
(0.0375074 0.0125857 -7.18684e-17)
(0.029563 0.0100414 9.56809e-18)
(0.0314045 0.0112053 -1.10986e-17)
(0.114897 0.103866 -2.37497e-18)
(0.0917167 0.124749 -8.16674e-19)
(3.71725e-05 6.5831e-05 -8.96964e-19)
(4.0712e-05 6.64656e-05 -3.25559e-19)
(4.1665e-05 8.14599e-05 1.58528e-20)
(7.1403e-05 9.69494e-05 -7.94444e-19)
(7.16958e-05 8.99327e-05 -1.33599e-18)
(-1.44177e-06 -3.09569e-05 2.41006e-19)
(9.04142e-06 -7.40813e-05 1.79849e-18)
(1.04977e-05 -7.09811e-05 -1.42709e-18)
(1.3284e-05 -8.64313e-05 1.10024e-18)
(-0.005758 -0.0381982 3.03438e-18)
(-0.00672225 -0.0361341 -1.87071e-17)
(-9.03886e-05 -0.00944899 5.57495e-17)
(-0.00026431 -0.00909491 -2.94852e-17)
(0.000611751 -0.00919487 1.01434e-17)
(-0.00566965 -0.00139728 -2.66238e-17)
(-0.00624432 -0.00148146 -3.51458e-19)
(-0.00512661 -0.000822813 2.90465e-17)
(0.000239867 -0.000929291 3.02388e-18)
(0.000267642 -0.000972507 -2.60492e-18)
(8.09752e-05 -0.000343834 -5.13112e-18)
(8.9365e-05 -0.000322472 -3.51103e-18)
(8.3246e-05 -0.000320434 -2.01806e-18)
(-0.00463189 -0.00246596 -1.13427e-18)
(-0.00428309 -0.00275169 5.17005e-18)
(-0.00481166 -0.00302338 2.01564e-18)
(4.00663e-05 -0.00012031 -8.19663e-19)
(4.33566e-05 -0.000152631 -4.74871e-18)
(4.59975e-05 -0.000120294 -2.00481e-18)
(-0.00375331 -0.0440698 -4.17421e-17)
(-0.0045584 -0.0434556 -1.21395e-17)
(-0.00354061 -0.044248 -5.47763e-17)
(-6.2994e-06 -4.37989e-05 -6.78744e-19)
(7.35322e-06 -3.24483e-05 1.72627e-18)
(6.53062e-08 -1.29691e-05 -4.69163e-18)
(0.0609277 -0.0280056 -4.3791e-18)
(0.0636892 -0.0252517 2.51821e-17)
(0.0540194 -0.0291283 1.78544e-17)
(-0.00869285 0.0262091 9.30441e-18)
(-0.00723861 0.0247451 7.75167e-18)
(0.0682165 -0.00520205 -8.33498e-18)
(0.0618954 -0.00755169 1.89276e-18)
(0.0614947 -0.00473279 -3.89653e-18)
(-4.49223e-06 0.0116086 1.05119e-17)
(-0.000420277 0.0121816 -5.58927e-18)
(-0.000702165 0.0115169 -1.60461e-17)
(-0.00439709 0.00145416 3.7115e-18)
(-0.00473754 0.00157563 2.21231e-18)
(-1.18055e-05 -5.06937e-05 7.68711e-19)
(-7.96348e-06 -8.58127e-05 -3.37397e-18)
(0.0075159 0.00954383 -7.7439e-18)
(0.00782888 0.0100806 -1.28002e-17)
(0.00825965 0.00946117 -1.27932e-17)
(-0.0156801 -0.00233652 6.01906e-18)
(-0.0144318 -0.00303852 1.64788e-17)
(-0.00656917 0.0517108 1.90191e-17)
(-0.0056882 0.048461 2.51061e-17)
(-0.00325009 0.0493914 -7.9346e-18)
(-0.00887086 0.0557681 8.48717e-18)
(-0.0105248 0.0546795 -9.92025e-18)
(-0.00215717 0.00293872 1.22212e-18)
(-0.00235821 0.00273238 2.92988e-18)
(-0.00211133 0.00271263 -5.91093e-19)
(0.000179225 -0.000117182 -9.42114e-19)
(0.000172482 -0.000110355 -6.82202e-19)
(0.000163242 -0.000112355 -2.04418e-19)
(0.00038117 -0.00150996 -5.03138e-18)
(0.000435061 -0.00148583 -1.09573e-17)
(8.42058e-05 0.0030329 -3.0822e-19)
(0.000177665 0.00288796 -8.54942e-21)
(-1.21451e-05 0.00288799 3.87685e-18)
(-0.00132089 0.00600984 -6.07028e-19)
(-0.00151765 0.00565946 -2.94255e-18)
(-0.00106227 0.00567055 2.11117e-18)
(0.015525 0.000429056 -3.50866e-18)
(0.0149081 -7.13724e-06 -2.09253e-17)
(0.0157132 -0.000461454 -5.51957e-18)
(0.0030921 0.0243257 1.51667e-17)
(0.00429437 0.022489 -4.06893e-18)
(0.00236827 0.0231713 1.23351e-17)
(-0.00503149 -0.0022618 -2.40644e-18)
(-0.00448827 -0.00201581 2.32213e-18)
(2.75138e-06 -5.68858e-05 -2.11681e-18)
(5.08739e-07 -3.64966e-05 -4.11884e-18)
(0.00622864 0.0120289 -4.45999e-18)
(0.00633215 0.012497 -3.51704e-18)
(0.00688886 0.0120293 -6.90932e-18)
(0.0146719 -0.024316 -1.91144e-17)
(0.0129159 -0.0260507 6.16393e-19)
(0.0161939 -0.0264204 1.86692e-17)
(-0.00106453 0.00622688 2.16468e-18)
(0.000457246 -0.000825872 -3.92589e-18)
(0.000444391 -0.000832737 -3.47897e-18)
(0.000442946 -0.000820361 -8.83368e-19)
(-0.00884244 0.0183545 -1.29401e-17)
(-0.010163 0.019114 -8.89348e-18)
(-0.0101281 0.0176365 3.28836e-18)
(-0.0179245 0.00395768 1.40614e-17)
(-0.0166087 0.00461844 7.47595e-18)
(-0.0170717 0.00555112 3.63241e-17)
(0.0125393 -0.00844233 -4.45892e-17)
(0.0119927 -0.00873814 -2.90677e-18)
(0.0121531 -0.00928135 -1.01064e-16)
(-1.85467e-05 -4.92191e-05 1.66346e-18)
(-2.19693e-05 -8.55766e-05 1.47009e-18)
(0.0528878 -0.0135806 -8.23208e-18)
(0.0514911 -0.0173635 -3.06793e-18)
(0.000186763 -0.00011937 8.16449e-19)
(0.0001951 -0.000122436 -5.35227e-19)
(-1.80805e-05 -1.8527e-05 1.34934e-18)
(0.000128639 -0.000135385 1.40179e-18)
(0.000123621 -0.000163991 1.71883e-19)
(0.000120458 -0.00018288 3.53149e-19)
(-0.00912436 0.00189032 -2.37503e-17)
(-0.0151643 0.00458415 7.26923e-17)
(-0.0123503 0.00363951 4.76182e-17)
(0.00176913 0.00246229 -4.04347e-18)
(0.00163687 0.00261903 -6.65973e-19)
(0.000100956 -0.000219979 -2.46192e-18)
(0.00011285 -0.000196291 -5.40365e-19)
(2.91084e-05 -0.000442567 -3.36329e-18)
(5.15182e-05 -0.000436811 1.17956e-19)
(4.61973e-05 -0.000499378 9.66452e-19)
(0.0263486 -0.00408906 4.24153e-18)
(0.0271885 -0.00466268 -5.13453e-17)
(0.0269945 -0.00456288 -2.04247e-17)
(0.00624568 0.0113242 9.30232e-19)
(0.00696833 0.0108059 5.5967e-18)
(0.000148832 7.61534e-05 2.90524e-18)
(0.000151918 4.23457e-05 -2.4598e-19)
(0.0155193 0.0243277 2.92999e-17)
(0.0179737 0.0253346 -4.3177e-18)
(0.00024846 -0.000713084 1.38092e-18)
(0.000239025 -0.000650835 -2.6084e-18)
(0.000263594 -0.000683528 2.12958e-18)
(-0.0100582 0.0206548 -9.35498e-18)
(-0.00849791 0.0213593 -5.24414e-18)
(-0.00221154 0.00318042 -9.98765e-19)
(-0.00195922 0.00310798 -2.34448e-18)
(-0.000290868 0.000404237 -3.6043e-20)
(-0.000261164 0.000390468 5.56053e-19)
(0.00243772 -0.00888086 -5.17028e-18)
(0.00261657 -0.00911476 1.19879e-17)
(0.00222636 -0.00915199 -4.52339e-18)
(-0.00115844 0.000959278 -9.88746e-20)
(-0.00110658 0.00107687 3.10195e-18)
(-0.00104039 0.000998291 4.86484e-19)
(0.0509546 0.0200014 -1.78291e-17)
(0.0475067 0.0192766 -5.23795e-18)
(-0.000352239 0.231375 -5.88567e-18)
(-0.0147092 0.234946 -1.09788e-17)
(-0.0110541 0.248574 4.62894e-18)
(-0.00115207 0.00139934 4.9524e-19)
(-0.00106358 0.0015031 2.40621e-18)
(-0.00102252 0.00139152 1.44525e-18)
(3.32206e-05 6.52644e-05 8.16727e-19)
(3.03765e-05 6.51359e-05 -8.65392e-19)
(3.44334e-05 7.97902e-05 -4.00628e-19)
(2.22342e-05 -0.000201552 2.46117e-18)
(1.85528e-05 -0.000177008 -1.19512e-18)
(1.83262e-05 -0.000180235 1.21427e-18)
(0.000417142 -0.00083706 1.79646e-19)
(0.000459496 -0.000876137 -2.00513e-18)
(-0.00207225 0.000113368 -4.41147e-17)
(-0.00231149 0.000167401 -1.05542e-17)
(-0.00190191 -5.52498e-05 5.78603e-17)
(-0.019086 0.00647986 3.37007e-17)
(-0.0202586 0.00762536 -1.46864e-18)
(-0.020957 0.00620393 3.58532e-18)
(-0.000249167 -0.0179187 3.66949e-18)
(-0.00434187 -0.0199491 2.30945e-18)
(0.00429078 -0.0229481 4.79489e-17)
(0.000123149 0.000130522 -1.55104e-18)
(0.000114132 0.000128855 1.84337e-18)
(0.0112982 0.0191984 -1.60649e-17)
(0.0109709 0.0199358 -5.35096e-18)
(0.00891066 -0.00625922 -1.04025e-17)
(0.00936242 -0.00579736 4.15445e-18)
(0.00876418 -0.00568351 -3.84514e-18)
(0.00235712 -0.00983085 1.69141e-17)
(0.00204698 -0.0100004 1.98569e-17)
(0.00202705 -0.00965461 3.21059e-18)
(9.46307e-05 0.000101397 1.42163e-18)
(0.000103198 0.00010584 3.91591e-19)
(0.000102438 9.88288e-05 1.11263e-18)
(-0.000157187 0.0035417 -3.49281e-19)
(5.80884e-05 0.00353705 -3.57669e-18)
(-0.000111893 0.00337574 1.05482e-18)
(0.0783355 -0.0217473 2.41138e-17)
(0.0793078 -0.0211103 6.37889e-17)
(-0.019111 0.00286537 -3.67198e-17)
(-0.00987782 0.0274883 -1.50905e-18)
(-0.00777762 0.0277832 8.74226e-18)
(1.92664e-05 -4.26586e-05 -2.28688e-18)
(2.15587e-05 -4.78505e-05 1.61055e-18)
(3.53812e-05 -0.000219678 1.12263e-18)
(2.79895e-05 -0.000264278 -1.07796e-18)
(3.01676e-05 -0.000255753 -4.15276e-19)
(3.31595e-05 5.16035e-05 -7.53235e-19)
(0.0758323 -0.00163533 1.73789e-18)
(0.0765882 -0.00370082 -5.38301e-18)
(-0.0163526 0.00348147 5.04062e-17)
(-0.0172165 0.00380408 2.48475e-17)
(-0.0147041 0.000587898 3.28266e-17)
(-0.00720828 -0.00232861 -2.47325e-17)
(0.0276766 0.21657 2.88719e-19)
(0.0274286 0.207208 2.26721e-17)
(0.000601605 0.000853337 -4.67345e-20)
(0.000582414 0.000763912 1.37159e-20)
(0.000528878 0.000852962 -7.90672e-20)
(0.00351107 -0.0343032 5.97305e-18)
(-0.000180362 -0.0323863 1.71915e-17)
(0.00221218 -0.0352665 -1.44084e-17)
(-0.000523413 -0.00782122 -1.846e-17)
(0.00095521 -0.00937182 -3.45903e-17)
(0.00127078 -0.00647411 1.19216e-17)
(0.000428782 -0.00240641 -7.13796e-18)
(0.000296412 -0.00240795 -8.14412e-19)
(0.000344109 -0.00231486 8.14204e-18)
(-0.000837712 -0.000400041 -4.48815e-19)
(-0.000822148 -0.00029766 -3.86117e-18)
(-0.000758276 -0.000366783 -2.90596e-18)
(0.00139065 -0.0012277 2.56527e-18)
(0.00130574 -0.00118791 -2.87673e-18)
(0.00128062 -0.00130019 2.2354e-18)
(-0.000241005 -0.00945554 -4.35734e-19)
(-0.000333365 -0.00928089 -7.09236e-17)
(-0.000360036 -0.00951167 -9.68055e-17)
(-5.53501e-05 0.000159261 -2.39772e-20)
(-6.80815e-05 0.000164352 -6.75438e-20)
(-6.05091e-05 0.000166986 -5.46349e-20)
(0.000187302 -8.21018e-06 -3.34204e-18)
(0.000190273 1.71483e-05 -5.33254e-18)
(2.34139e-05 -0.000325448 -2.02477e-18)
(2.58979e-05 -0.000317207 9.12968e-19)
(1.92373e-05 -0.000289048 -3.37935e-18)
(0.000227101 -0.00107015 -3.5105e-18)
(0.000230525 -0.0011226 -1.77587e-19)
(0.000268347 -0.00108441 1.03416e-18)
(-0.000400357 0.000289328 -1.17516e-19)
(-0.000409977 0.000244765 1.34024e-19)
(-0.000377813 0.000257375 -3.97886e-19)
(-0.00302129 0.00663068 -2.94475e-18)
(-0.00260804 0.00691411 -4.28513e-18)
(-0.00303302 0.00719485 -1.44847e-18)
(-0.00332275 0.00328415 -5.58207e-19)
(-0.00334695 0.00372012 3.66187e-19)
(-0.00371795 0.00332424 3.09162e-18)
(0.00447867 -0.0447705 1.32929e-17)
(0.00332993 -0.0457351 2.84583e-17)
(0.00383121 -0.0448071 1.74238e-17)
(8.68702e-06 -0.000697343 -7.66431e-18)
(2.88596e-05 -0.000739222 -3.67278e-18)
(3.09409e-05 -0.000676447 -6.65738e-19)
(0.00228494 0.00485364 -2.63779e-18)
(0.00203669 0.00472971 9.37269e-18)
(0.00231156 0.0045535 1.11239e-17)
(-0.00122207 0.00129502 -2.08089e-18)
(-0.00128575 0.00140739 1.87116e-18)
(0.000765703 -0.00127618 2.42765e-18)
(0.000707505 -0.00129328 9.51415e-19)
(0.000756725 -0.00124969 -2.16148e-20)
(0.0053575 -0.0100884 4.97517e-18)
(0.00479137 -0.0101674 -5.57803e-18)
(0.00525748 -0.0108011 6.14841e-18)
(0.00564117 0.0117335 -8.70379e-19)
(0.0159785 -0.0224145 -3.43044e-17)
(0.012712 -0.0221878 -2.36771e-17)
(-2.00025e-05 0.000111832 -3.78285e-19)
(-2.0897e-05 0.000105539 -7.05449e-20)
(-1.33614e-05 9.78257e-05 -5.30651e-19)
(0.0305276 -0.0233499 -3.45334e-17)
(0.0283957 -0.0216781 -2.51011e-17)
(0.00193571 -0.000671299 4.40736e-19)
(0.00205373 -0.000684254 6.12069e-18)
(-0.023678 -0.00320897 1.57784e-18)
(-0.0261576 -0.00290896 6.06543e-19)
(-0.024939 -0.0052659 3.95957e-18)
(0.000241805 0.000642718 2.22853e-19)
(0.000123295 0.000713083 1.07306e-19)
(0.016259 0.000898972 -1.24011e-17)
(0.0154221 0.00124675 2.39246e-18)
(7.27781e-05 -0.000356823 -1.22826e-18)
(7.25351e-05 -0.000363468 -1.81205e-18)
(0.000578811 -0.005372 -2.26159e-17)
(0.000486652 -0.00513801 -7.31037e-19)
(0.000280501 -0.00540053 5.42642e-18)
(0.00732304 0.00891788 1.97886e-18)
(0.00779283 0.00837817 -8.08408e-18)
(-0.000372588 0.000312329 -6.70919e-19)
(-0.000401362 0.000329988 4.61511e-21)
(-0.00186048 -0.0100376 -5.66631e-18)
(-0.00214556 -0.0100702 3.68117e-17)
(-0.00213536 -0.0102368 -6.52656e-18)
(-0.00569635 0.0125227 2.60839e-17)
(0.00148829 0.0177761 -5.9465e-17)
(-0.00796755 0.0222267 -2.68906e-17)
(0.00617912 0.00346328 -2.72909e-18)
(0.00591193 0.00390626 2.6894e-18)
(0.000266385 -0.000197566 8.39676e-19)
(0.000263438 -0.000169147 2.11092e-19)
(0.00027426 -0.000217653 -1.06414e-18)
(2.61197e-05 0.0142391 6.06886e-18)
(0.000363044 0.0135966 1.23608e-17)
(0.000938605 0.0141975 3.60548e-18)
(-0.0280946 0.0900026 2.71737e-18)
(-0.0220243 0.0752781 3.70799e-17)
(-0.0132817 0.0866527 -1.07124e-19)
(0.00106897 -0.00523121 7.26454e-19)
(0.000711563 -0.00531146 -5.81736e-18)
(0.000931807 -0.00498785 -3.997e-18)
(0.00113571 -0.00536584 1.5378e-17)
(0.00123032 -0.00515497 -1.78418e-17)
(-0.000801026 -0.0459908 -1.35834e-17)
(-0.00117551 -0.0455185 -5.27582e-18)
(-0.00212837 -0.0454459 5.2153e-17)
(-0.00565992 0.0391984 2.9755e-19)
(-0.00827599 0.0410743 -1.57191e-17)
(-0.00444835 0.0421624 -2.29294e-17)
(-0.0223276 -0.00155993 2.6912e-18)
(-0.0214941 -0.00370216 6.00992e-18)
(-0.00864753 0.00968917 -1.02848e-17)
(-0.00765489 0.0100568 6.17725e-18)
(-0.000210896 -0.00780109 3.66604e-17)
(-0.000119347 -0.0076249 -7.25782e-18)
(-0.000418514 -0.000244227 -1.00279e-18)
(-0.000416442 -0.000302773 6.24992e-19)
(-0.000387616 -0.000284313 3.69128e-19)
(-0.000945602 -0.0321542 -2.32656e-17)
(-0.00512198 -0.00183119 9.88422e-18)
(-0.00501537 -0.00126208 1.21693e-17)
(-4.81687e-05 0.000147007 -1.94224e-19)
(-5.90715e-05 0.000154719 1.41683e-19)
(1.36195e-05 -0.000273395 2.09937e-18)
(1.21416e-05 -0.00027795 1.06399e-18)
(9.05825e-06 -0.000235603 1.54902e-18)
(0.0735666 0.0193948 1.53061e-17)
(0.0665251 0.0225239 4.61318e-17)
(0.000300412 -0.000548136 2.65461e-18)
(0.00031124 -0.000527634 1.55903e-18)
(0.000322169 -0.000587263 3.05079e-18)
(7.22097e-06 -6.58781e-05 6.70389e-18)
(9.56033e-06 -8.08609e-05 2.6401e-18)
(0.00170868 0.0263152 -1.23701e-17)
(0.00294585 0.0257381 9.23959e-18)
(0.00165304 0.0250221 -9.52278e-18)
(0.00404095 0.0251858 -1.78749e-17)
(0.00402914 0.0240335 -1.20296e-17)
(0.00517133 0.0245066 -2.62766e-17)
(0.000676407 0.000867738 6.6219e-20)
(-0.000329686 0.00358037 -1.38542e-19)
(-0.000182616 0.00375776 4.01213e-18)
(0.00254976 0.00497733 -2.47259e-18)
(0.00224007 0.00515016 -3.1301e-18)
(0.00459927 -0.00220641 -3.1031e-18)
(0.00431967 -0.00231049 -3.52485e-18)
(0.00452586 -0.00247686 7.28781e-19)
(-0.000891159 0.00372728 -2.07227e-18)
(-0.000944182 0.00352264 3.16522e-18)
(-0.00111001 0.00362559 1.55366e-17)
(8.89818e-05 9.5487e-05 -1.48831e-18)
(0.00741562 0.00124168 -2.92527e-18)
(0.00730625 0.00154799 9.14337e-19)
(0.00704127 0.0012554 8.64188e-19)
(0.000647961 -0.0460447 -5.09619e-19)
(0.000199568 -0.0458717 -1.53139e-17)
(0.000548428 -0.0455503 6.33857e-18)
(-0.000348847 0.000339191 5.99507e-19)
(-0.000347037 0.000301474 1.66228e-19)
(-0.00363532 -0.00540784 7.4494e-18)
(-0.00194213 -0.011743 -3.79872e-17)
(-0.0100663 -0.00833366 -3.00998e-17)
(5.43923e-06 -0.000115521 1.65044e-19)
(6.93906e-06 -8.1555e-05 4.8796e-19)
(5.59098e-05 -0.000261241 4.76511e-19)
(4.89861e-05 -0.000258324 7.0091e-20)
(5.48972e-05 -0.000270211 -4.33552e-18)
(-4.98685e-06 1.24025e-05 7.71341e-19)
(4.29941e-06 1.35479e-05 3.28401e-19)
(-1.07222e-06 1.63404e-05 -7.85163e-21)
(-0.00295699 -0.0446604 6.3674e-18)
(-3.01309e-05 9.14594e-05 4.39594e-19)
(-2.64049e-05 8.84215e-05 3.11473e-18)
(-1.90933e-05 9.0141e-05 -1.57672e-18)
(0.0247101 -0.0018916 2.56758e-17)
(0.0213822 -0.00299012 1.80812e-17)
(0.042811 -0.0302172 9.51251e-19)
(0.0460897 -0.0285447 -4.87779e-17)
(0.0460164 -0.0310098 -1.50993e-17)
(7.93354e-05 -0.000122839 1.02172e-18)
(8.01943e-05 -0.000131993 1.47801e-19)
(8.52263e-05 -0.000111002 1.64302e-19)
(6.83846e-05 -0.000366686 6.42748e-18)
(7.49033e-05 -0.000353495 6.37579e-18)
(0.031427 0.0108567 3.6153e-17)
(0.0332071 0.0122963 -2.77418e-19)
(0.0333508 0.0103619 -1.08303e-17)
(-1.91228e-05 8.79398e-06 -6.9845e-19)
(-2.37629e-05 1.07769e-05 4.75777e-19)
(7.93856e-06 -0.000168534 1.84762e-18)
(8.37311e-06 -0.000165099 -1.50903e-19)
(1.17633e-05 -0.000204183 -3.14577e-18)
(-3.11441e-05 1.45293e-05 2.40268e-19)
(-2.87721e-05 1.4047e-05 1.7544e-19)
(-4.34624e-05 8.58384e-06 9.25516e-20)
(0.0401473 -0.0297798 7.3375e-17)
(0.0397313 -0.0326166 5.18468e-17)
(0.00245632 -0.00861234 5.96695e-18)
(0.00215847 -0.00867807 7.85579e-18)
(0.00127827 -0.00194916 6.02467e-18)
(0.00122871 -0.00188659 -3.13094e-18)
(0.00135143 -0.00186515 -5.10794e-18)
(0.00652734 -0.00984811 1.61711e-18)
(0.00662703 -0.00920956 2.62043e-18)
(0.00713279 -0.00962841 -5.44062e-18)
(0.00272159 0.0209887 5.71121e-18)
(0.00302333 0.020182 -3.17019e-17)
(0.00202869 0.0202982 -1.13652e-18)
(0.00842964 0.215766 2.91795e-17)
(-0.00206239 -0.0351693 -1.69748e-18)
(-0.00227027 -0.0369722 -2.42366e-17)
(-0.00333505 -0.0345413 -2.21464e-17)
(-0.000985375 0.00160583 1.44683e-18)
(-0.00113474 0.00163622 -1.37276e-18)
(-0.00247689 -0.0368531 9.95879e-18)
(0.00128625 -0.036795 -1.28534e-17)
(-0.00215181 -0.0407584 -8.36262e-18)
(6.21748e-06 -7.19658e-05 -3.45325e-18)
(6.65124e-06 -0.000105771 1.09299e-18)
(4.58117e-06 -7.0388e-05 1.65682e-18)
(-0.0444343 0.0909553 8.4834e-19)
(-0.032069 0.1044 -2.87244e-18)
(-0.000839784 -0.0139228 2.63733e-18)
(0.000597425 -0.00975773 4.97158e-18)
(-0.0022217 -0.00865034 3.81347e-18)
(-0.00395343 -0.0411014 -6.49646e-18)
(-0.000795713 -0.0410082 1.7552e-18)
(-0.00537777 -0.0399074 -7.12132e-19)
(0.0576179 -0.0300922 3.89385e-17)
(-0.00568225 0.0369071 1.65625e-17)
(-0.00343199 0.0380187 -2.79682e-18)
(-0.00252913 0.00253138 -8.93008e-19)
(-0.00262089 0.00275081 6.4169e-19)
(0.00464137 0.00972075 -3.54352e-18)
(0.00517584 0.00938781 -2.5986e-17)
(-0.00304429 0.00329698 5.58299e-18)
(-0.00326964 0.00303869 -1.34508e-18)
(-0.000835086 -0.000518765 2.29361e-18)
(-0.000807198 -0.000639045 2.91596e-19)
(-0.000753285 -0.000570571 -8.50449e-19)
(-0.00164333 0.000970871 -5.31841e-19)
(-0.0017692 0.00100613 -3.65253e-18)
(-0.00173672 0.000833715 -1.71459e-18)
(0.0059717 -0.00990971 -2.5904e-18)
(0.00545431 -0.00949565 3.95254e-18)
(0.0014726 -0.00223713 5.82287e-19)
(0.00136607 -0.00232247 3.18571e-18)
(6.24987e-05 -0.000378989 7.28563e-19)
(6.06216e-05 -0.000370017 -1.17154e-18)
(7.03665e-07 -9.28723e-06 1.62071e-18)
(7.56157e-08 -3.9863e-06 -7.16491e-19)
(1.28953e-07 -4.32432e-06 1.68675e-18)
(-2.84695e-05 0.000124093 5.25065e-19)
(-1.97913e-05 0.000116574 7.3073e-20)
(-0.000107132 -4.42993e-06 -4.87044e-20)
(-0.000103458 -4.95055e-06 -6.39588e-20)
(-0.000111113 -6.30525e-06 9.83559e-22)
(-0.000352466 0.000376534 1.0857e-18)
(-0.00525489 -0.0320907 -1.61224e-17)
(-0.00396199 -0.033269 -4.58155e-18)
(-0.005397 -0.0328257 2.31381e-18)
(5.58382e-05 5.85222e-05 -1.2223e-18)
(5.2001e-05 4.29445e-05 -8.8325e-19)
(5.22459e-05 6.35797e-05 5.72232e-19)
(0.000140156 0.000539362 1.16078e-19)
(0.000163606 0.000486232 6.30795e-20)
(0.00019526 0.000528406 -2.53743e-20)
(-9.47478e-05 -3.37642e-06 2.1158e-21)
(-0.000101795 -3.28332e-06 -4.46544e-20)
(-0.000101695 -8.5734e-06 -5.21231e-20)
(0.000107709 0.000159475 2.04086e-18)
(0.000102199 0.000144495 7.06567e-20)
(0.00188499 -0.0445232 1.4744e-17)
(0.000313784 -0.0453807 -1.11375e-17)
(0.000402307 -0.0482022 -2.39759e-17)
(0.0129417 -0.00784717 1.06013e-17)
(0.013466 -0.0090314 -2.69754e-17)
(-0.00136346 -0.00592808 2.71404e-17)
(-0.00117865 -0.00582559 2.37162e-17)
(-0.00108819 -0.00601448 -7.60291e-18)
(0.000313637 -0.00175078 1.06402e-17)
(0.000372756 -0.00180782 -1.0149e-17)
(0.00024315 -0.00181478 1.41935e-17)
(-0.00762543 0.0191092 -6.51461e-18)