/*--------------------------------*- C++ -*----------------------------------*\
| =========                 |                                                 |
| \\      /  F ield         | OpenFOAM: The Open Source CFD Toolbox           |
|  \\    /   O peration     | Version:  v2012                                 |
|   \\  /    A nd           | Website:  www.openfoam.com                      |
|    \\/     M anipulation  |                                                 |
\*---------------------------------------------------------------------------*/
FoamFile
{
    version     2.0;
    format      ascii;
    class       surfaceScalarField;
    location    "150";
    object      meshPhiCN_0;
}
// * * * * * * * * * * * * * * * * * * * * * * * * * * * * * * * * * * * * * //

dimensions      [0 3 -1 0 0 0 0];
oriented        oriented;


internalField   nonuniform List<scalar> 
14470
(
-0.00398222
0.00127033
0.00271891
-0.000715354
-0.000471214
0.00239869
-0.00228249
-7.2634e-06
-0.000350673
-0.000468283
0.000818961
-0.00136113
0.00161321
-7.48399e-05
-0.0021977
0.0022066
-6.03741e-06
0.00153832
-0.0030388
0.00150488
-0.000310572
-0.000842963
0.00115355
-0.00433329
0.000733902
0.00363326
5.61393e-05
0.000749872
-0.000639818
0.000625727
-0.000426746
-1.32763e-05
-0.00151393
0.001515
0.00224289
-0.00103253
-0.00121186
0.00533196
-0.00366811
-0.00133929
-0.00266168
0.00336978
-0.00058105
-0.00316152
0.00317811
6.22449e-06
0.002314
-0.000767673
-0.00169104
-0.00126414
0.00106365
0.000200513
0.00103422
-0.00183061
0.00108251
0.00160022
0.00169319
-0.00316391
0.000328551
-0.000328551
-0.000199831
0.000991307
-0.000791468
-0.00100942
0.000698862
0.00144778
0.000793488
0.0009583
-0.00382233
0.00287085
-0.00148153
0.00057361
0.0009649
-0.000665087
0.000751303
-0.000159315
-0.000885959
0.00216302
-0.00261175
0.000653277
0.00196285
-0.000641274
-0.000265178
0.000906454
0.00215017
-0.00193958
-0.000210145
-0.00189119
0.00212165
2.62172e-05
0.000407804
0.00181599
-0.00212305
0.000290255
0.000350776
-0.000185175
-0.00169968
-0.00133461
0.00307792
0.00236881
0.00032618
-0.00267308
0.00047104
0.00257541
-0.00303237
0.000650961
0.000849598
-0.00150086
0.00410318
-0.0028552
-0.00122165
-2.60401e-05
-0.00258205
-0.00109144
-0.0005969
0.00168923
0.00039168
-0.00103199
0.000640396
2.21272e-05
-0.000592723
-0.000350733
-0.00233087
0.00266246
-0.000366611
-0.00217391
0.00248679
0.000564071
0.000468245
-0.00103232
-4.09601e-06
7.64142e-05
2.80669e-05
0.000610228
-0.00225634
0.00160077
0.000126412
0.00207903
0.00220349
-0.00384069
0.000684316
-5.07896e-05
-0.00418414
0.00293601
0.00127281
7.28771e-05
3.31595e-05
0.00374481
-0.00254625
-0.00119231
-0.00124853
0.000897879
0.00183531
4.83004e-05
-0.00193607
0.000208376
0.00246391
-0.00266793
-0.00153948
0.00211941
7.64142e-05
-0.00353549
0.00065651
0.00288765
0.00106877
-0.00205645
0.000987928
-0.00205676
0.00215552
-1.65375e-05
0.0038131
-0.000674572
-0.00310146
0.000127985
-0.000965996
0.000734478
-0.000123294
-0.00417811
-0.000467899
-0.000474532
4.91543e-05
-0.00333498
0.00335512
0.000209738
0.00242927
-0.00260263
0.00164905
-0.000493498
-0.0011552
-0.00425113
0.00189564
0.00237717
0.000202759
0.00135769
-0.00156082
0.000690784
-0.00123775
0.000546972
-0.00339577
0.00329081
0.000124331
-0.00132188
0.00202958
-0.000707782
-0.000118478
0.000269223
-1.67565e-05
0.00232473
-0.00281616
0.000494421
-0.00185381
0.000748147
0.00110611
0.00271913
-0.000672679
-0.00198168
0.000536268
-0.000455502
9.17572e-06
0.000155228
0.00217042
-0.000980455
-0.00028363
-0.00278875
-0.000355206
0.00400079
-0.000885027
-0.00307808
0.00261547
0.00172184
0.000170157
-0.00188987
0.000862668
-0.000124845
0.00346857
-0.00283921
-0.000570735
-0.000816338
0.0014669
-0.000615893
0.00168505
0.000866684
0.000276908
-0.00114356
6.91638e-05
-0.00123378
0.00116518
0.00155942
-0.00148953
-0.00187631
0.00318623
-0.00129352
0.00120718
-0.000815382
0.00290717
-0.000546057
-0.00236735
0.000565935
-0.00188765
0.00282388
-7.27479e-05
-0.00273586
-0.00379365
0.000675101
0.0031705
-8.55025e-05
-0.00110753
-0.000802904
-0.000738615
0.00154129
-0.00085738
-0.0032928
-0.00297368
0.00334689
-0.000357866
0.00228887
-0.00265343
-0.00239118
0.00185912
0.000534126
-0.0014848
0.000701787
0.000783319
-0.00313263
-0.000245075
-0.00120654
0.00129305
0.00011108
0.00226426
0.000498511
0.0003968
-0.000190993
0.000326225
-5.31631e-06
-0.00103889
0.000839071
-0.000308702
-0.000811134
0.00111983
-0.000737118
-0.000194383
0.000931503
-0.00104332
-0.00319433
0.000432048
-0.000973893
0.000827919
0.000992485
-0.00261154
0.00172664
0.00248702
-4.95058e-05
-0.00257461
0.000335794
0.000826183
-0.00116199
0.00200926
-0.00241509
0.000387764
-0.000884006
-0.00113791
0.00202356
0.00341076
0.000107042
-0.00198886
0.00183215
0.000157655
0.000358673
0.00274619
-0.00308267
-0.00291008
0.00326168
0.00225779
-0.000289614
-0.00323302
0.00111639
0.00213182
0.000501712
-0.00114298
0.00213122
-0.00303433
0.000907603
0.003296
-0.00115877
0.00332141
7.00655e-06
-0.00332993
0.00333221
-0.000986654
-0.00215789
-0.000304153
-0.00367589
0.00341278
0.000259686
-0.00359526
0.0039081
-0.00336787
-0.000500053
-0.000943265
-0.000973328
0.00191914
-5.08606e-05
0.00189567
-0.0018439
0.00237632
-0.00129577
-7.40745e-05
2.02187e-05
-0.00303004
0.00114072
0.00189933
-0.0014803
0.00107844
0.000402022
0.00261724
0.00472282
-0.00149458
-0.0033309
0.000391136
0.00271704
-0.00305973
0.000440103
0.00062965
-0.00106975
-0.000568048
-0.000885624
0.0014543
-0.00230189
8.39467e-05
-0.000473966
0.00103991
0.00176839
0.00167432
-8.88143e-05
-0.000115832
0.000875431
-0.000561787
0.00110321
-0.00144515
0.000342
0.000140015
-0.00388541
-0.000565069
-0.00086532
0.00345168
-0.00321031
-0.000213347
0.00120502
-0.00173996
0.000535534
0.000135164
0.00305935
-0.002019
-4.54561e-05
0.000449311
0.00170088
0.00252799
0.000551434
-0.00303986
-0.00308648
0.000297983
0.00297783
0.000379283
0.00279341
-0.00109425
0.000216486
-0.00108805
0.00087165
-0.000794123
0.00349907
-0.00269311
-0.000806052
-0.00104709
-0.00321918
0.00286677
0.000368225
-0.000360673
0.00321737
-0.00283552
0.0010283
-0.00114244
0.000159673
6.70832e-05
-0.000942908
0.000887593
0.00250347
0.00218226
0.000780894
-0.00121621
0.000435315
-0.00134128
0.000839614
0.000501675
-0.000756828
0.0021359
-0.00137712
0.00153939
-0.00156364
-0.00208658
-0.000106146
0.00218988
-0.000963951
-0.00122442
-0.00155363
0.000367573
0.00118615
0.00283946
-0.00209769
-0.00068626
0.000832127
0.00278913
-0.0035586
-0.00165587
-0.000732982
0.00100417
0.000671084
0.00278259
-0.00229396
0.00186584
1.48708e-05
0.0026973
-0.00278223
-5.25154e-05
-0.00140094
-0.000586561
-0.000454069
0.00114485
-0.000680984
-0.000660247
-0.00312858
0.000170851
0.00424832
-0.000894236
-0.00331593
0.000214104
-0.000793189
0.000579075
0.00131228
-0.000218586
-0.00109374
-0.00358975
0.00349173
0.00010531
0.00156086
0.00027747
-0.00179216
0.000342581
-0.00408607
0.00376061
0.000983413
0.000116521
-0.00109993
-0.0031052
0.0012364
0.00188668
0.000993544
-0.00186411
0.00101648
-0.00114764
9.69931e-05
0.00144197
0.00214607
-0.00358973
0.000795538
0.00110076
-0.00180411
-0.00310308
0.000680563
0.0024816
-0.0034887
0.00275006
0.000781034
-0.000425163
0.00127308
-0.000847925
0.00368996
-0.000793161
-0.00292756
0.00321671
-0.00355222
0.000366387
-0.00292193
0.00258768
0.000914781
0.0030387
-0.00393278
-0.00176027
0.00130292
0.000457529
-0.00287907
-0.00111864
-0.000361519
0.00336321
-0.00339431
0.000180343
0.0012795
0.000369828
0.000852432
0.00318758
-0.00289044
0.00333251
-0.000393326
0.00285644
0.00268332
0.00127741
-0.00221803
-0.000909774
0.00157815
-0.00256839
0.000504795
0.00206268
0.000398008
0.00244179
-0.00160725
0.0025148
-0.000996175
-7.21303e-05
0.00106824
0.0010839
-0.00262701
0.00155217
0.00108257
-0.0029471
-0.00320138
0.000737069
0.00244248
0.000551945
-0.00328065
0.00275343
0.00283636
6.98245e-06
-0.00284043
-0.00215766
0.00221986
-6.3457e-05
-1.96964e-05
-0.0021385
-0.000793157
-0.000493294
0.00128639
-0.00190141
-0.000954989
0.00286378
0.000269515
-0.0030923
0.00142915
0.002419
0.000250454
0.00106178
0.000144352
0.00207988
-0.00223272
-0.000708277
-0.00116527
0.000428158
-0.00103204
-0.00211596
-0.00147566
0.00148122
3.44439e-05
0.000924784
-0.00201521
0.00399479
-0.00350681
-0.000478765
-1.67004e-05
-6.22196e-05
0.000514061
0.00205087
-0.00255804
0.000185673
-0.00252375
0.00234718
0.00415783
-0.00201278
0.00289654
0.00340626
-0.000166358
-0.0030067
-5.84289e-05
0.00307743
0.00336055
-0.00287971
-0.000445466
0.00223095
0.00334457
-0.00191385
-0.00142124
0.000971272
9.36061e-05
-0.00106488
0.00086979
-0.00238056
-0.00116082
-0.00141281
0.00257869
3.94303e-05
0.000160069
-0.000391964
3.76977e-05
0.000109293
0.000718638
-0.000191193
-0.000173509
-0.000912768
0.00220137
-4.1837e-05
-0.00218194
-0.000282553
0.00148808
0.00121132
-0.00183006
0.000619307
0.000348787
7.19256e-05
-0.000111418
0.000385085
-0.0011824
0.0017907
-0.000774427
-0.00101577
0.000448001
0.00039551
0.000811773
-0.000589703
3.53785e-06
6.83792e-05
-0.000183799
0.00014426
3.24062e-05
0.00117904
-0.0011908
0.00140744
0.00354855
0.000242047
-0.00379851
0.00171731
-0.000934364
-0.000782844
0.00227383
0.000314249
-0.00258307
0.000142726
0.000990828
-0.000835807
-0.000155031
0.000789668
0.00248336
-0.000308825
0.00081616
-0.000507323
-9.83312e-05
-5.69375e-06
-0.000165903
0.00299766
-0.000161373
-0.00029267
0.000787904
-0.000495225
0.00092496
-0.0020498
0.00112412
0.000976247
-0.00287541
0.0009812
-0.00324206
0.00324756
-0.00295535
0.000184653
-0.000349499
-0.00310453
0.000163867
0.00164198
-0.00167908
-0.00180976
0.00281382
-0.000986423
-0.000916125
-0.000844063
-0.00187339
0.00283632
0.00122417
-0.000764019
2.38416e-05
-0.000196556
0.000157083
0.000903042
0.00248738
8.3763e-05
-0.000349388
0.000595625
0.00267789
0.00113489
-0.000448488
-0.000686414
0.0020004
-0.000554408
-0.00139883
-0.000242049
-0.00359163
0.00414218
-0.000759541
-7.99327e-05
0.00118271
0.00189885
-4.95861e-05
-0.000996905
0.00103862
-4.17111e-05
-0.00142607
0.00085857
0.00224808
-0.00127089
-0.000978044
-0.000555423
-0.00271182
0.00329203
0.00292358
-0.00248722
-0.000702317
0.00314639
-0.00279158
-0.00033837
0.00122555
-0.000122293
0.00227848
-1.01016e-05
-0.000963327
-0.000866515
0.00349558
-0.000234305
-0.00322491
-0.00308886
0.000785856
0.000227076
2.83785e-05
-0.00151871
-9.1163e-05
0.00136324
0.00199225
-0.00047121
-0.000797146
0.00358287
-0.00404932
0.000498354
0.00222441
0.000385984
-0.00261567
-0.00358986
-0.000157352
-0.00326915
0.00345193
-0.000297962
-0.00232327
0.00261931
0.000234554
-0.0026093
0.00237881
-0.00164561
0.0021546
0.00232196
1.80922e-05
-0.00236683
0.00297947
-0.0035057
0.0011218
0.000887196
-0.00200809
0.000850572
-1.4742e-05
-0.000835832
0.00187631
0.000592029
-8.85235e-05
0.00164709
-0.000396468
-0.00201863
0.00243201
0.000957303
-0.00017641
0.000708235
-0.00101704
0.00111314
-0.00138931
0.000276202
0.00196953
8.17256e-05
-0.00206107
-0.00210992
0.00234815
0.00269008
-0.000472262
-0.00151519
0.000868333
0.000646958
-0.00314562
0.0013231
0.00182776
0.000148096
0.001717
-0.00193547
-8.83062e-05
-0.00199344
0.00200609
0.00250238
-0.00287901
-0.00276259
-0.000179575
0.000653912
-0.00443692
0.00377715
-0.00101927
0.000135037
0.000884316
-0.00145091
0.00226271
-0.000568483
-0.00160659
0.00201085
-0.000313185
-0.0026577
0.000718801
0.00194681
0.000541429
0.000593435
0.000608361
0.000671303
-0.000692484
0.00117387
-0.00153159
0.000728602
0.00299271
0.000939009
-0.00391948
-0.000975639
0.000331532
0.000644114
0.00136064
-0.000795741
-0.000564843
0.000465278
-0.00125846
-0.00021697
-0.00337671
0.00365563
0.00206829
0.00205183
-0.00181909
0.00176911
-0.000344304
0.00121103
-0.00076196
-0.000520215
-0.00189107
0.00241475
-0.000148191
2.19739e-05
-5.23336e-05
0.000261608
0.0032843
0.000393146
0.00173965
-0.00217491
0.00219427
-0.00160196
-0.000205812
0.00436719
-0.00371413
-0.00184742
0.00148114
0.000259817
0.000135825
-0.000135825
0.000311914
-0.00133107
0.000833729
4.13759e-05
-0.00252497
0.00249482
0.00377682
-0.00336289
-0.000388294
-0.000633415
-0.00173859
0.00237467
-0.00131625
0.00140347
0.00273878
-0.00359003
-0.000995725
-3.06253e-05
0.00102635
0.00150436
-0.000554947
-0.000949395
0.0017307
0.000269436
-0.00200381
-0.000381202
-0.00275511
-0.00177996
0.000142643
-0.00333569
0.00317537
-0.000256225
-0.00194473
-0.00114372
-0.000684353
0.0018285
0.000133357
-0.00020685
0.000135707
-0.000798876
0.00140742
0.00149982
-0.00229717
0.000797942
0.00207261
-0.00053128
0.00018488
0.00092829
0.00243725
-0.00273699
-0.000457678
5.17138e-05
0.000920002
-0.00304964
0.00290325
0.000196913
0.00200645
-0.000110174
-0.00192577
0.000782615
0.00302785
0.000584776
0.000782041
0.000578626
-2.96074e-05
0.000187835
0.00140567
-0.00125031
-0.000358104
-0.00102911
0.000736455
-0.000886201
-0.0024751
0.00248657
0.002106
0.00280937
7.35377e-05
-0.00183554
0.000533404
-0.00282779
0.00204115
-0.00145171
0.00230536
-0.000848594
0.00151685
-0.00131443
-0.000645511
0.00277984
-0.00211062
-0.00289379
-0.000688489
0.00132515
-0.000618972
-0.00068344
-0.00311747
8.11641e-05
0.00299448
0.000743996
0.00108889
-0.00279662
0.00273899
-0.00251828
0.00244885
-4.54682e-06
0.00102485
-0.000894601
-5.2094e-06
0.00199902
0.001752
-0.00239325
-3.88469e-05
0.00242779
0.00239677
-0.00301817
-0.000295811
0.000925462
0.000914963
-3.27284e-05
0.00251462
-0.000579379
-0.000937333
0.00168822
-0.00075076
0.00065033
0.000681599
-0.000115931
0.0010872
-0.000600396
-0.000953106
-0.00246463
0.00241293
0.00131786
-5.21861e-05
-0.00101822
0.000865506
-0.00265369
0.000999974
0.00108032
-0.00312822
-0.00180133
0.00106272
-0.000349157
0.000402126
0.00138899
-0.00337913
-0.00290224
0.00302303
-4.05519e-05
-0.0025215
0.00290045
-0.00246883
0.00295241
-0.000415876
0.00124204
-0.000408581
-0.00311399
0.00127451
0.000409681
0.00289751
4.31627e-05
-0.00146881
-0.000422504
-0.00290604
0.00332681
0.00337822
-0.000827821
0.00333922
0.000115399
5.15023e-05
-0.00170179
0.000430464
0.00128347
0.00422405
0.000200661
-0.00430207
0.00238901
7.51157e-07
-0.000618732
0.000949665
-3.69987e-06
0.000498179
0.00363876
-0.00412226
-0.00315034
0.00283008
-0.00170901
0.00222861
-0.000113827
-0.000133443
4.21162e-05
0.00126667
-0.000283254
-0.000162086
-0.00309396
0.00325764
0.00174179
-0.000241288
0.0010692
-7.83786e-05
0.00184195
-0.000261511
-0.00237879
-0.000911814
-0.00212094
0.00191631
-0.00160244
-0.00011463
0.000467682
-6.52296e-05
0.00425157
-0.0033123
-0.00105273
-0.000949721
0.00246254
-0.00151008
-0.00199204
0.0023113
-3.02729e-05
-0.000964433
8.78465e-05
0.00116096
-0.00012252
-0.00124103
0.00144542
-0.00211016
0.000664457
0.0011164
0.00107447
-0.000736222
-0.000361812
0.000368606
0.00154108
0.00190794
-0.000449799
0.00292683
-0.00247353
0.00095745
-0.000489205
0.00169454
-0.000770041
-0.000844255
-0.00176856
0.00261145
-0.000114519
-0.00290024
0.00311107
0.00133913
-0.00249518
-0.00181247
0.00100709
-0.00106061
-0.0013081
0.00237722
-0.00312525
0.00430011
-0.00119829
0.00256383
-0.000765697
-0.00163703
0.000846487
-0.00127165
-0.00268187
0.0024219
0.000133891
0.00121411
-0.0021767
-0.00214041
0.000650888
0.0014914
-0.00215685
-0.000342244
0.000610799
-0.0018013
0.00318923
-0.00348481
0.000334447
0.000815168
0.000420643
-0.00123584
-0.00322022
5.76096e-05
-0.00060338
-0.000588733
0.00119213
-0.000956057
0.00182998
-0.000872502
-0.00278063
0.000242069
0.00100852
-0.00178242
0.00250349
0.000330589
-0.000708949
-0.000806096
-0.000348156
0.0024292
-0.00198277
0.00266501
-0.00250457
-0.000153186
4.64417e-06
-0.00065675
0.00194424
-0.00192273
0.00106681
0.00200316
-0.00257443
-0.000970917
0.00271368
-0.00174595
0.000569029
0.00298453
-0.00353213
0.00211994
-0.00204747
0.00178631
-0.00320616
0.00195703
0.00125862
-0.00556266
0.00222787
0.00339314
0.0028506
0.000409943
0.000567246
-0.000750045
-0.00054291
0.00115635
-0.000206797
-0.000788932
0.00149152
-0.00196171
0.000469655
0.00260953
-0.00345381
-0.00216722
5.3982e-05
-0.00317221
0.000137925
-0.00408968
0.00396909
0.000155312
-0.00151223
0.00258965
-0.000540625
-0.000848604
-0.00252536
-4.41989e-05
-0.00012433
2.6066e-05
-0.000570926
-0.000371503
0.00094243
0.000847617
-0.00144387
-0.00307009
7.08625e-05
0.000169615
-2.82267e-05
-0.000171248
0.00112645
-0.0040141
0.00292521
-0.000253375
0.000279402
-1.89268e-06
0.00124364
0.00133928
0.00359578
-6.39039e-06
0.00266104
-0.00338802
0.000748785
0.000120316
0.00260033
-0.00271535
7.91301e-06
-0.00100412
-1.62912e-05
-0.000288047
-0.000943364
0.000475466
-0.000126764
8.48236e-05
7.2252e-05
0.00192705
-0.000804602
-0.000465469
-0.00146913
0.00185374
0.00121
0.00203441
-0.00320025
0.000959557
-0.00086595
0.00147879
-0.00169152
0.000844876
-0.00181189
0.000967803
0.00326171
-0.00305577
-5.4032e-05
2.92116e-05
3.39856e-06
-9.35529e-07
-0.00260696
-0.000465684
-0.00146778
0.00232109
-0.000853615
5.55939e-05
0.00121748
0.00268686
-0.00032716
-0.00189517
0.00242975
0.000185421
-0.000607809
0.00056318
-0.00247207
0.000763597
-0.00136694
-0.000584706
0.00317014
-0.000148902
-0.000128752
-5.49796e-05
-0.0022532
-0.000560304
0.000188056
3.52839e-05
-0.000210027
-0.00185426
0.00300644
-2.86959e-05
-0.00300412
0.00304974
0.00110515
-0.00280503
-0.000922851
-5.05341e-05
0.000775422
-0.00178287
-0.00083901
-0.00113113
0.000618252
0.000597477
0.00366509
-0.0042363
-0.000777972
-0.00184746
0.00266813
-0.00201928
0.00195546
6.56074e-05
0.000852355
0.00148237
-0.00233273
-0.00355635
0.000281356
0.000482919
-0.000345139
0.00215231
-0.00103491
0.000200694
-0.0031349
0.00300483
-0.00304125
0.000125848
-0.000227232
-0.000556475
-0.000637381
0.000952293
0.0013614
0.000791626
-0.00294694
0.00328513
-0.000912033
0.00175776
-0.00227923
0.000183989
0.00209819
-0.00248922
-0.000629047
0.00312239
0.00352007
-0.00307698
-0.000433259
-0.000358373
-0.000670705
0.00354283
-5.91935e-05
-0.000780938
0.0020279
0.00110893
-0.000687788
-0.000421097
0.00120242
0.00072544
0.00107212
1.01425e-05
-0.00108197
-0.000686301
-0.00145239
0.00210245
-0.00351437
0.00170025
0.00100197
-0.000151403
-0.00302639
0.00230275
0.000441816
-0.000312369
0.00151535
0.000311409
-6.95973e-05
0.000801335
-0.0028458
-0.000213901
-0.00215744
0.00201867
0.000144483
0.00158323
0.00103007
-0.00261429
-0.000396809
0.000938204
0.000779908
-0.00135828
0.000578419
0.00133798
-0.00314492
-0.00221829
7.01193e-05
-9.73957e-05
-0.00138786
-0.00181484
0.000524363
0.0012907
-0.00311022
-0.00186328
0.00130415
0.000676961
0.0036548
0.0023725
-0.000286592
-0.00199075
0.00010681
-0.00289053
0.000851731
-0.00134507
-0.00177717
0.00084292
-0.00110975
0.000380419
0.000729332
0.00353858
-0.00320479
-0.00264467
0.00299985
-0.000449642
0.00126477
-0.000956898
0.00169128
-0.000734567
-0.00307701
0.0032358
-7.97308e-06
0.00265836
-1.84355e-05
-0.00262816
-0.00204281
0.00297837
-0.000983543
7.90554e-06
0.00169774
-0.0031394
-0.00264492
0.00161608
0.000631478
0.00084204
-0.00177914
-0.000281047
0.00106101
-0.000868048
-7.55328e-05
-0.0035642
-0.00166647
0.000830675
0.000836167
-0.000506733
-0.0025399
-0.00194628
0.000546774
0.00294349
-0.00169067
-0.00234241
0.00171203
0.000931464
0.00276761
-0.00368915
0.000272547
0.00476597
-0.00342071
-0.00128277
8.78952e-05
-0.00323446
0.00318631
-0.000684503
-0.00250121
1.33696e-05
9.04685e-05
0.00179079
0.0013971
-0.00250541
0.00165371
0.00085457
-0.000458999
0.00200704
-0.00154586
0.000371378
7.16179e-05
-0.000425466
-3.76855e-05
-0.000411535
0.000316808
0.00313146
-0.000538814
-0.00252695
-0.00181062
9.8847e-05
0.00178751
0.000938956
0.000163206
0.00256083
0.00140877
-0.00250758
0.000233182
-0.0024426
0.0014954
0.000119872
-0.000281845
7.41605e-05
-0.00224903
0.00156515
1.38576e-05
0.00125112
-0.00153685
0.000739879
0.000369078
-8.26481e-05
0.00283949
-0.00270183
-0.00243741
0.00247133
-3.32689e-05
0.000291468
-0.00205915
0.00110418
0.00198336
-0.000477461
-0.0012972
-9.02666e-05
0.000134097
0.000428006
-0.0026768
0.000885258
-0.00381639
-0.00017157
0.00324672
-0.00281277
-0.000417192
-0.000330801
-0.00113497
0.00146513
-0.000847801
0.00202626
0.00261138
-0.00191361
0.00132328
0.00058965
0.00265667
0.000745777
0.000671912
-0.000674515
-0.00124015
-0.000143693
0.00444351
-0.00281596
0.00132217
0.00214812
-0.00321976
0.00235721
-0.00271809
0.000205517
-0.00170437
-2.14203e-05
0.00172541
-0.00072725
0.000736602
-0.00126027
0.000523687
0.00284489
-0.00326448
-6.14788e-05
0.00235725
-0.0025058
0.000216318
0.00255574
-0.00222061
0.000453137
0.00186478
-0.00396903
-0.00153397
0.00405269
-0.00316193
-0.000710572
-0.000574462
0.00128497
0.00289215
-0.00291607
-4.40995e-05
-0.000762688
-0.00104871
0.00293705
-0.00288095
0.000397806
-0.00348365
-0.000259091
-0.00110296
0.000482002
0.000620958
-0.000204247
-0.0030358
-1.25898e-05
-0.000470133
0.00023567
0.00123459
-0.00169181
0.000902045
-0.000785521
0.000608088
0.00180253
9.6864e-05
0.00197058
-0.000290194
0.000813618
0.00140049
0.00280364
-0.00189335
-7.54109e-05
0.00197
-7.13403e-05
-0.00384747
0.0039728
-0.00126777
0.00238149
0.00013483
-0.00304115
-0.00364499
0.000192328
0.00222313
-0.00136936
0.00104765
0.000277126
-0.00132472
0.00262187
-0.00232032
-0.000296597
0.0001762
0.000916956
0.00150017
-0.00183127
0.000357231
-0.00161529
0.00249758
-0.000875538
0.00309569
-0.00189985
-0.000489395
0.00239359
-0.000447453
0.00250729
-0.0019754
0.000132914
0.00318058
0.000897379
-0.00109176
-0.000447981
0.000574091
0.00254985
-8.19789e-05
0.00034562
-0.00231043
0.00196463
-0.000264819
0.000374608
-0.00088481
-0.00231837
0.00322838
-0.00081906
-0.000238468
0.00105759
-6.65329e-05
-0.000154026
-0.000196556
0.000885933
-0.00123018
-0.00134406
0.00292736
0.00197136
-0.000248244
-0.00234355
0.00272372
0.00174611
-0.00174425
-9.80626e-05
0.00114579
-0.000312809
-0.000108955
0.00309441
-0.00013919
-0.0029353
0.0033613
-0.00421457
0.00297365
-0.00334787
0.000389694
0.00096729
-0.000896641
-7.06489e-05
1.03693e-05
-0.000611579
-0.00225236
0.00218667
-0.00128364
0.00212667
0.00272572
0.0014935
0.002422
0.00241122
-0.000174598
0.00124696
0.00332479
-0.000335918
0.0040337
-0.00352567
-0.000961497
0.000839754
1.02726e-05
0.000788082
-0.00114558
0.00227323
-0.00285275
0.00237955
-0.00234998
6.56667e-06
-0.00215598
-0.000130678
-0.00152227
0.00467612
-0.00307304
0.000979929
-0.00109586
0.0014839
0.000867014
-0.00235233
-0.00245837
-0.000375536
-0.000373129
6.48795e-05
0.00144906
-0.00274453
0.003684
-0.00168581
0.000844139
0.000842294
0.00114004
-0.000284076
-0.00085597
0.00403382
-0.000533243
-0.00336129
0.00046312
0.00075932
-0.00114657
0.000387116
-0.00188
0.00245013
0.00013963
-0.000398629
0.000947452
-0.0028009
0.00102239
-0.00022612
3.04198e-06
0.000270662
-0.00244851
0.00242589
3.34117e-05
0.000238955
0.00126541
-4.23855e-05
-0.000408618
2.8695e-05
0.000180306
-0.000454653
-1.71884e-05
-0.000790292
0.00364172
-0.00315423
-0.000478029
-6.44048e-05
-0.00171252
-0.00338156
0.00361553
0.00194209
-0.00245814
0.000849197
0.000767844
-0.00161727
0.000897217
0.00103515
-0.00017622
-0.00153451
-0.000338381
0.000414639
-0.00283253
0.000318965
-0.00199983
-0.000298404
0.00233147
0.00219875
-0.00218063
1.2308e-06
0.00257414
0.00183526
0.00153777
-0.00288711
0.00137947
0.00233832
-0.000611493
0.000201137
-0.00295402
0.00220036
0.00106029
0.000811646
0.00248862
-0.00100096
0.000597494
0.000403466
-0.000941743
-0.00157082
0.00252542
-0.00252437
-0.000212001
-0.00324411
0.00141814
0.00182274
-0.00047235
0.000974065
-0.000323747
0.00186922
-2.98932e-05
-0.000140357
-0.00240757
0.00268788
-0.00170941
0.00230577
-0.000591737
0.00246845
-0.000891447
0.000831336
0.00165107
0.00315989
0.00079413
-0.00386751
0.000951035
-0.000801412
-0.000132046
0.00290217
-0.000378315
0.000177828
-0.000929376
-0.00120033
0.00213101
-0.00318417
0.00120666
-0.00150978
0.00168183
-0.00137968
0.00136014
5.50994e-05
0.000130546
-0.0022667
0.00213849
0.00157921
0.00010854
-0.00166714
-0.00457496
0.000504301
-0.000166215
-0.00269943
0.00291428
-0.000115371
-0.00277052
7.53794e-05
0.00136967
-0.00111103
0.000540101
0.00310371
-0.00297602
-0.00197571
-0.00126596
-0.00349227
0.000235861
-0.00331857
-0.00112373
0.000765398
0.000190841
-0.000342972
-0.00254351
0.00293043
0.00276629
0.000632109
-0.00333979
-0.00130514
0.000748059
-0.00111051
0.000362455
0.00235656
-0.00236279
0.000499017
0.00214119
-8.39322e-05
0.00306568
-0.000309529
-0.00271865
0.00132983
0.00186856
-0.00317854
-0.000607899
-0.000464645
0.000968923
0.00292044
-0.000816328
-0.000994338
-0.00132297
0.000504009
0.0010945
-0.00027554
-0.000206208
0.00169709
-0.000475146
-0.000525805
-5.80378e-05
-0.00165395
0.0024155
-0.00075904
0.00135399
-0.000651961
0.000148323
-0.000112594
1.01829e-05
-0.00380691
5.35234e-05
-0.000303032
0.000600919
-0.000897374
-0.0014424
0.000178537
-0.00231365
-0.000544145
-0.000716059
0.0024581
-0.00290383
0.00237604
-0.000304468
-0.00206471
0.00489686
-0.00414877
-0.000717588
-0.0008197
0.00169279
-0.000872515
-0.000738109
0.000916018
-0.000177904
0.000347327
-0.00117493
0.000827611
0.00290986
-0.0034211
0.00053348
-0.00347749
0.00326321
0.000241849
6.7736e-05
-0.000493005
-0.000598983
-0.00084608
0.00211896
-0.00025702
-0.001688
-0.000282752
0.00113932
-0.000856666
0.000903395
0.00130446
0.00184011
0.000168325
-0.00200601
-7.86089e-05
-0.00118573
0.00126481
0.00117972
-0.00167282
-0.00359125
0.000754871
0.00451058
-0.00356189
-0.000886631
4.11228e-05
-0.00118492
0.000791371
-0.0031887
0.00243651
-0.000593688
-0.000644031
-0.000694653
-0.000521549
-9.98745e-05
-8.56328e-05
0.000487645
-0.000922006
2.76664e-05
0.000894324
-0.000341364
-0.00243367
0.00224476
-0.000782131
0.00163093
0.00134386
-0.00167539
-0.000597063
0.00194056
-0.00183241
0.00167584
0.00271025
0.00268603
0.000377969
-0.00301124
-0.00278479
0.00249095
0.000736354
-0.000545175
-9.70946e-05
0.00129879
-0.00133779
0.000921984
0.000476068
-0.00139789
0.000998118
-0.000187064
-0.00123794
4.14393e-05
-0.00194181
0.00261614
-0.00190121
-0.000710301
3.44325e-05
0.00153599
-0.00243054
-3.12274e-06
0.00268028
-0.00260784
-0.00133174
0.0006508
0.00103257
-0.00154774
0.000515506
0.000824082
-0.00193421
0.00111097
-0.00323318
-0.000201689
-3.04626e-05
0.000185799
-0.00285928
0.00293097
-0.000221446
3.74488e-06
0.00337009
-0.00276552
-0.000861011
-0.00217327
0.000279517
-0.00202281
0.0027745
-0.00290747
0.00317239
0.000185648
0.00281899
-0.00296338
0.000808014
-0.00109209
-0.00396273
0.00355754
0.000476583
0.000274043
-0.00279364
0.0024824
0.000480173
-0.00143713
-0.00209341
0.00204038
-0.000825542
0.000184702
0.00175585
-0.000321924
-0.00230377
-0.000917528
-0.0019195
0.00288138
-0.000838116
0.000840925
-2.81037e-06
0.00218289
0.000106515
-0.000937736
1.57276e-05
0.00184293
-0.000485673
-6.76641e-05
-0.00260802
0.000224868
0.00366363
-0.000504098
-0.00313035
-2.36489e-05
-6.32185e-05
0.00068417
-0.000871554
0.00323105
0.00031881
-0.00336043
0.000750576
0.000647112
-0.00139744
-0.0031079
0.000327285
-0.00341222
0.00338717
0.00283341
-0.0025233
0.00204491
-0.000674748
-0.00113958
-0.0038136
0.00278367
0.00125921
-0.00239544
-0.00141454
6.95138e-08
0.000231761
0.00125128
-0.0014028
0.000151503
-0.00233211
6.32012e-05
0.00227209
0.00228466
-0.00362207
0.0042677
0.00268428
-0.00255018
-2.584e-05
0.000805893
-0.0011017
0.000554066
0.00110655
-0.00166056
-0.00131394
-0.000934479
-0.000539423
0.000870961
-0.00111614
-1.4867e-05
0.000466353
0.0020449
0.000482246
0.0018334
6.08812e-05
0.0008365
0.000341624
-0.0037247
-0.00167516
-0.000782124
0.00245551
-0.000239836
0.00324258
0.000914847
-0.00430032
0.00340893
0.00254688
-0.000157795
0.00011104
1.31075e-05
-0.00031106
-0.000915648
-0.00205827
0.00219104
-0.000226251
-0.00149809
0.000809718
-0.000220029
0.000295269
0.00036047
0.00124333
0.00126903
0.00240267
0.00151109
-0.00124417
0.000568983
0.000525531
-0.000408205
-0.00260629
-0.00109616
0.000480797
0.000615365
-0.00034623
-4.34506e-05
0.000308475
-0.00335953
0.000517681
0.00259828
-0.00262645
-0.00126141
-0.000683216
-0.000216795
0.00197773
0.000165459
0.00295778
0.000244544
-0.00318145
0.00233503
0.000446027
0.00245274
-0.00289079
-0.000126821
-0.00262106
0.00156821
-0.000853838
0.00177967
0.00163514
-0.00140722
-0.000228011
0.000862087
-0.00400244
0.000122522
-0.00157265
0.00145054
0.000981429
-0.00105362
0.00328517
-0.00293563
-0.000324402
-0.00049627
-0.00124302
-0.00211055
-0.000390349
-0.00299482
0.00350741
-0.00048719
-0.0032188
0.00300461
0.00262618
-0.000177877
4.28096e-05
-0.000610705
0.002863
0.000340372
0.00104715
0.00371231
-0.00355834
-0.000335672
-0.0035078
0.00407967
-0.00330299
0.00254654
0.000732752
-0.00222516
-0.00129024
0.000579577
-0.000654919
0.00387719
-0.00325057
-5.58327e-05
0.00339308
-0.00183073
-0.00133704
0.000246347
0.00128144
-0.00283225
0.00283942
6.71675e-05
0.00297947
0.000247664
-0.00321542
0.00109938
-0.00188599
0.000787427
0.000237117
-0.00194177
-0.00251731
7.1434e-05
-0.00224423
-0.00025228
9.65509e-05
0.000828914
-0.00127062
0.000441828
0.00235446
0.00132429
-0.0036731
-0.000661185
-0.00046722
0.00112841
0.00294679
-0.00143598
-0.00150716
0.000118556
0.000977135
-0.000440123
0.00314155
-0.00345378
0.000364727
0.00062647
0.000659113
-0.0012855
0.00104025
-0.000292208
0.00280162
-0.000835819
-0.00122164
-0.00213792
0.00015946
0.00430158
-0.00440922
0.000185244
-0.000107279
-0.000800879
-0.000620108
0.000942431
-0.00032232
0.000508335
0.00296217
-0.0034282
-0.00335471
-0.000206458
0.000295485
0.00145447
-0.000695247
0.00214657
-0.00132333
-0.000824025
-0.00328516
0.000120562
0.00314471
-0.0017508
0.00209648
-0.000687138
0.00287228
-0.00216726
0.002865
0.000441767
0.000902075
-0.00118492
0.000700312
-0.00201363
-0.00159548
0.0052459
-0.00359065
-0.00182145
0.00122363
0.00190212
0.000121772
0.0027959
-0.000954446
-0.00184408
0.000514904
0.00112033
-0.000716882
0.00256345
-3.98179e-05
-1.02659e-05
0.00298361
-0.000916625
0.00226332
-0.00160097
0.0012508
-0.000897384
-0.000353421
-0.00351946
0.00166218
-0.000449843
0.00121426
0.000123241
-0.00174465
0.00162158
1.22769e-05
0.000276035
-6.23489e-05
-0.000197728
-0.000799179
0.000716897
6.67835e-05
-0.000783683
0.000954037
-6.6714e-05
0.000906339
-0.000359942
0.000335392
-0.00353875