/*--------------------------------*- C++ -*----------------------------------*\
| =========                 |                                                 |
| \\      /  F ield         | OpenFOAM: The Open Source CFD Toolbox           |
|  \\    /   O peration     | Version:  v2012                                 |
|   \\  /    A nd           | Website:  www.openfoam.com                      |
|    \\/     M anipulation  |                                                 |
\*---------------------------------------------------------------------------*/
FoamFile
{
    version     2.0;
    format      ascii;
    class       volScalarField;
    location    "200";
    object      ddt0(omega);
}
// * * * * * * * * * * * * * * * * * * * * * * * * * * * * * * * * * * * * * //

dimensions      [0 0 -2 0 0 0 0];


internalField   nonuniform List<scalar> 
10042
(
-7.45437e-06
-3.03895e-06
-7.11757e-05
-1.97358e-05
0.802269
-1.5524e-05
-0.0443523
-0.193137
-9.64149e-06
-1.40183e-05
0.616959
-1.04039e-05
-1.44628e-05
-3.53435e-05
1.60049e-06
1.91768e-05
1.56212e-05
-6.43973e-06
-4.75389e-06
0.00428833
4.40936e-05
-0.0295919
-2.14025e-05
-4.53213e-05
-4.78248e-06
-0.000198053
1.1634e-05
-1.31189e-05
5.6939e-06
-1.8575e-05
-3.91195e-06
0.151561
-2.8719e-05
-2.31755e-05
-9.2157e-05
-4.85603e-05
-0.000169918
-0.000364001
-2.2452e-06
3.69286e-05
0.00317093
2.28363e-06
0.068235
-2.16619e-05
0.180243
0.000317011
-2.08526e-05
-0.000493979
-0.000140518
-0.000993814
2.96242e-06
-0.000155372
-1.89433e-05
-0.00022267
-0.000180973
1.09001e-06
5.86781e-06
-2.2557e-05
-2.89055e-05
-1.47535e-05
8.20459e-07
1.33655e-05
-8.22286e-05
-6.35447e-05
-9.85461e-07
-3.60499e-05
-5.98088e-06
0.000193682
1.29225
-1.74991e-06
-0.000217475
-0.00729786
-2.1219e-05
3.76067e-05
-2.75621e-05
-7.92163e-05
0.308354
-2.70872e-06
2.6939e-05
0.343777
-0.000125044
-2.58681
-3.02043e-05
8.23299e-06
-1.22204e-05
-3.47243e-06
-2.59913e-05
0.00597751
-2.92054e-05
-1.26635e-05
-3.76413e-05
3.57487
-1.09334e-05
-0.000124577
-1.74259e-05
-8.41894e-06
-6.23645e-06
-3.78056e-06
5.50998e-05
2.77099e-06
8.71396e-09
0.00285754
-0.354659
-1.96872e-05
5.71882e-06
0.0010198
-3.04404e-05
-8.59335e-06
3.7106e-05
-7.2334e-06
-8.53902e-07
1.1158e-05
-1.30278e-05
1.13487
-2.31975e-06
6.81786e-06
-5.64609e-06
-2.80787e-06
-5.54941e-06
-0.174803
-3.36167e-05
-0.0354962
-1.42175e-05
9.31459e-07
0.0030922
-1.92178e-05
0.0850909
-8.11562e-05
-0.000212395
-9.20394e-07
3.89131e-05
-7.39473e-06
0.473339
0.00273674
-5.15479e-08
0.000433784
0.150584
-5.31767e-05
-0.00014005
0.00753667
-1.78844e-05
-8.51907e-06
-1.25739e-05
0.00627298
-8.72125e-05
6.74686e-06
0.000936579
-1.05947e-05
3.08828e-06
1.23795e-05
-2.25146e-05
-8.77951e-06
0.723849
0.0254462
4.52843e-05
-2.79616e-05
-9.87857e-06
1.70353e-05
0.00131489
-0.220549
0.70804
0.00343072
-7.88308e-06
-2.24732e-05
-3.57722e-05
-8.80857e-06
0.000706381
-0.345894
0.308879
-0.106141
-0.000160547
-4.42283e-05
3.28432
-0.00260635
0.000142236
0.179816
2.4036
-2.23425e-05
-0.000204848
7.03682e-05
-9.22183e-06
-0.20465
-2.15845e-05
-6.55267e-05
-2.34615e-06
-0.29552
0.00531685
-2.56905e-05
0.594972
-8.23668e-05
0.215118
-1.8432e-05
0.679679
-4.16588
0.00151898
0.0408949
-0.000170577
-2.45976e-05
-2.70034e-05
-2.99043e-05
0.000117201
-2.11281e-05
-6.72204e-06
0.0391482
-8.65297e-06
1.03167e-05
-0.352492
5.29496e-05
-1.4309e-05
-7.29947e-05
0.0363996
1.66016e-05
0.000540417
-0.0989496
-8.22221e-06
0.00713304
-2.8704e-05
-3.59181e-05
0.000748169
-8.91932e-06
-1.52635e-05
-6.67976e-06
0.0588405
-0.000354022
-2.46091e-05
-0.00022734
0.00551352
1.32967e-05
0.00504552
-0.000256915
-1.01024e-05
-0.00667046
-4.46769e-05
-0.000255284
-8.35361e-05
1.37221e-05
2.30516e-05
-1.3437e-05
-0.000122841
-0.000554687
-9.93307e-07
-1.77633e-05
-3.02162e-05
-2.37769e-05
2.60634e-05
-1.20822e-05
-2.86343e-05
1.0696e-06
-0.000193541
-4.05652e-06
1.66701e-05
-2.27252e-07
-9.91174e-06
0.089618
0.00340563
0.589405
0.000157562
0.000135793
1.73794e-05
0.000641931
-0.580997
-0.000113686
-2.85722e-05
-1.42075e-05
-2.88497e-05
1.58086e-05
-0.019619
-0.000213873
-1.41572e-05
-7.77507e-05
0.000108811
-0.000191179
0.155879
0.000151246
0.00832051
-7.26626e-05
-0.00056468
1.00824e-05
-0.000303838
-9.20886e-05
0.000146938
-2.46926e-05
-0.000200646
0.430283
-6.55807e-06
-4.35879e-05
-0.593432
0.00047346
-3.82786e-05
-1.64763e-05
-5.77842e-06
0.0626628
0.000806122
0.00662457
-2.22177e-06
-2.3004e-05
1.15829e-05
-9.67507e-06
-0.046806
-6.65937e-06
2.30741e-05
-1.45702e-05
-2.3277e-05
-0.000480126
-1.19334e-05
0.00160416
0.182639
-3.33195e-05
-0.617859
4.21603e-05
-0.000261171
1.05675e-05
0.658991
0.00322617
0.0134537
3.5005
-5.54014e-05
-0.000224295
-1.84619e-06
-7.76472e-06
-0.000226843
1.92405e-06
6.55049e-05
6.75596e-06
-2.53267e-05
-1.75005e-05
0.00180477
1.36921e-05
-9.2891e-05
-1.97813e-05
-2.52125e-07
1.02408
2.56185e-05
4.53808e-05
-1.38495e-05
-6.14428e-05
0.000166065
0.00141321
0.000142967
-0.043856
-0.00045615
-8.22153e-05
-1.92438e-05
-3.31436e-05
-4.12004e-05
-9.2071e-06
-0.00918943
-2.03161e-05
-2.96596e-05
-0.0013119
-6.78505e-06
1.8162e-05
4.36514e-07
-0.000378823
-7.71175e-05
2.22082e-06
-1.29298e-06
8.9133e-05
-5.3009e-05
-1.71133e-05
-0.136699
0.000958253
-9.35709e-05
3.58301e-05
-5.15321e-05
-2.44081e-05
-3.86149e-05
9.33421e-06
0.0375983
-0.000380178
-8.98347e-06
-7.9602e-06
4.33907e-09
1.4088e-05
0.00349545
-1.89049e-05
2.13666e-05
0.0311485
-1.74164e-05
-1.68514
-0.0165601
3.64381e-05
0.517601
0.622546
1.73356e-05
0.00187609
3.96501e-05
-0.00084396
3.80487e-08
-1.95499e-05
0.00855312
-5.42539e-06
7.75898e-06
0.386697
-9.75776e-06
6.98002e-05
-8.11044e-05
-0.253624
-1.71328e-05
-2.1714e-05
0.272541
0.00302712
-6.27198e-05
3.12811e-06
0.530839
-6.80081e-07
-1.0301e-05
4.97601e-06
2.18473e-05
-7.45579e-06
-1.02895e-05
-0.12305
-0.465816
-2.00356e-05
-0.157835
1.27342e-06
-6.27575e-06
0.00554957
-0.000101045
-1.56747
0.00094488
1.72361e-06
-3.1101e-05
-3.2126e-05
0.00459045
-0.000178545
8.05143e-05
-1.57506e-05
0.59134
-1.09512e-05
-0.222982
5.58058e-06
-2.28113e-05
6.99206e-06
-0.0422794
-1.81179e-05
1.31798e-05
1.28449e-06
-5.5529e-05
-0.291373
-0.000140437
1.267e-05
-1.17011e-05
0.42218
1.85483e-05
-0.000125972
-2.29134e-05
1.66317e-05
-0.520849
0.33131
2.14661e-05
-3.25008e-07
-0.000366203
2.35888e-05
2.92156e-05
2.39031e-06
0.405615
-3.71194e-06
1.75984e-05
4.34743e-05
-0.134827
0.000552616
-1.23325e-05
0.000147106
-0.115054
-0.000568349
2.09142e-06
-1.73545e-05
0.00278426
-9.32084e-05
-5.65633e-06
1.21959e-05
-2.42441e-05
-2.4564e-05
-7.41954e-06
-7.25072e-06
0.000125789
-3.07286e-05
-1.96193e-05
0.753762
-2.68347e-05
-0.000166381
-1.88547e-05
-2.55974e-05
9.40933e-05
2.83061e-05
-4.14764e-05
0.0662746
-1.31187e-05
0.576705
-0.000112662
-2.82512e-06
4.86407e-06
0.00466688
-4.82684e-05
-1.03852e-07
2.23198e-05
-9.33338e-05
4.97995e-05
0.0676852
-3.15979e-07
0.00168032
0.0648958
-0.000581597
-1.30156e-05
4.67487e-06
-0.000108684
-5.76405e-06
3.37093e-05
0.0886365
0.316042
-5.5553e-06
-6.61543e-05
-0.00049139
-0.000462816
-1.70098e-05
-8.37651e-06
0.023521
0.00361691
-0.0859942
-6.46761e-06
-0.000109196
-9.67217e-05
-3.32924e-05
1.02468
0.000109978
-9.45615e-05
-1.28173e-06
-4.0872e-06
-2.61535e-05
0.0553254
-0.000150655
-1.69362e-05
0.486859
0.273835
-0.0648305
0.00142205
2.92441e-05
-1.61032e-06
-0.00112057
0.000633092
1.00849
-0.18147
-5.89716e-07
4.29047e-06
-8.76111e-06
-8.55926e-05
-1.26085e-05
-1.71255e-05
0.644918
-3.24171e-05
4.0848e-05
8.20461e-05
1.0568e-05
-0.000903148
-0.000102067
-0.000129497
7.86011e-05
8.69828e-07
-0.000169331
-9.86007e-05
-0.00125213
0.00176556
0.00145591
-4.08409e-05
-0.000986249
-5.33293e-05
-1.05181e-05
-2.25207e-05
-5.10646e-05
5.2927e-06
5.88793e-07
0.00060178
0.000126245
-2.13978e-05
-1.51489e-05
9.82349e-06
-1.56264e-05
0.00900799
2.01374e-05
-2.57397e-05
-0.00819556
-1.15699e-06
0.000618822
-0.0010314
-9.15968e-06
-0.293979
-6.57584e-05
2.41883e-05
0.00836751
-7.75965e-05
-1.57873e-05
-1.06751e-05
1.2254e-05
1.44407e-08
-7.14325e-05
-2.30399e-05
0.282337
-1.22274e-05
1.33944e-05
-2.28362e-05
8.91604e-05
-0.000108399
6.55448e-06
-0.000240886
-1.02289e-06
-0.000391688
-8.5606e-06
4.78523e-05
2.54124e-05
-7.31729e-06
-2.91975e-05
-3.33658e-05
-0.225153
6.9235e-06
-0.0137486
6.34593e-07
-0.000121252
-4.64424e-06
-0.000217941
-1.8107e-05
7.37381e-05
-3.14692e-05
0.0075396
-9.93768e-07
-0.401935
-9.17508e-06
-1.36334e-06
3.0662e-05
-2.85427e-05
-4.49188e-05
-7.16691e-05
2.08719e-06
0.00235002
0.503055
0.01745
-0.000154351
0.000137829
-1.49317e-05
0.000560491
0.000312912
-7.2773e-06
1.70277e-05
0.00156868
1.20785
-0.000717674
0.567677
-7.60953e-05
-8.89429e-06
2.98634e-06
-0.000259803
-7.66554e-05
-0.00108589
-6.86613e-05
-6.03487e-05
0.00307979
-7.88371e-06
-7.75093e-06
-0.000259075
1.12916
-7.71625e-06
0.000120866
-0.00112781
-1.78145e-05
0.254477
-3.2131e-05
-3.60298e-05
-1.18677e-05
-2.64332e-05
0.576177
0.000281174
1.49813
1.25725e-05
-1.24149
-0.589438
-0.012272
-0.00103329
0.000532742
0.00534131
0.000387591
-2.94503e-05
1.33539e-05
2.59594e-05
0.773378
-1.7584e-05
5.3427e-05
0.713446
-3.67247e-05
-2.96268e-05
-1.28117e-05
-1.24955e-05
-4.10082e-05
-8.40672e-05
0.0042442
-0.00648962
-7.41954e-05
-3.6886e-05
0.509284
0.494236
-1.21754e-05
2.76617e-06
1.28046e-06
1.93519e-05
-0.674839
0.000274522
-0.17585
2.22614e-06
-4.27069e-05
-1.1825e-05
-6.00365e-06
-3.91703e-07
-0.0002918
-1.18518e-05
0.369517
8.99248e-06
-3.68308e-05
0.000207291
1.16297e-05
-0.000769143
0.000684695
-0.000153581
1.44807
1.60074
-1.70909e-05
3.45794e-05
-1.67603
0.763569
0.000160645
-8.29058e-05
0.0498005
0.00286573
1.83448e-06
-2.99687e-05
-1.63526e-05
3.73036e-05
0.103295
-0.000143313
0.00562733
-8.89567e-06
1.03146
0.0371621
1.05621e-05
-9.29623e-06
0.00265938
4.95771e-05
-5.56075e-06
1.33002e-05
0.653329
1.04667
-0.569088
-0.000144555
0.000563653
0.000277427
-1.18132e-06
1.09666e-05
2.1254e-05
-0.0158397
-5.11315e-06
4.36396e-06
0.000585626
-1.56023e-05
0.000642793
1.77932e-05
4.87172e-05
3.50532e-06
-2.2674e-05
0.00162898
1.13937e-05
-4.80647e-07
0.000103313
0.000552959
-0.0493999
2.98174e-05
0.00236966
0.375446
0.509882
-2.82315e-06
0.499254
-0.564985
-3.88001e-05
-1.18932e-05
-1.62068e-05
1.01904e-06
0.562892
-2.0862e-05
-7.52743e-06
-1.0747e-05
0.556149
0.000215084
-0.000139371
1.29518e-05
6.12975e-06
9.94939e-05
-2.73818e-05
-3.30728e-05
-0.000346489
-8.10594e-06
2.10773e-05
-2.19307e-06
0.0961947
-4.22555e-05
-8.22453e-06
-7.38308e-06
-1.66284e-05
0.00621989
1.55008e-05
-2.00635e-05
-5.72616e-06
-0.000133953
-0.248468
5.60315e-09
0.0459845
-1.14838e-05
0.730161
-2.13875e-05
-2.89069e-05
-0.000401579
0.00239567
7.82676e-05
-1.03718e-05
1.20036
-1.48298
5.15229e-06
-2.55215e-05
-0.00234138
2.29249e-05
-1.29589e-05
5.34865e-06
-4.84845e-06
0.000683537
2.65929e-09
1.80474e-08
0.000627159
6.39564e-05
-3.79133e-05
4.98053e-05
-2.86373e-06
-0.0368323
-0.00012766
0.34483
2.33059e-05
8.10085e-05
-0.000151748
0.976138
-0.000115217
0.911171
1.06459e-07
-0.000444915
2.15754e-06
-1.00146e-05
-3.36612e-05
-0.00105761
0.00012812
-0.00117949
0.843129
-5.84284e-06
2.50189
-0.000483795
8.90722e-07
3.19763e-05
-7.72178e-05
1.53563
-3.05312e-06
-4.63839e-06
0.000405465
-2.15979e-05
0.000119784
-1.23548e-05
2.49629e-07
-8.97833e-06
0.0483575
-5.97861e-05
-1.15549e-05
1.93982e-05
-3.27575e-05
-4.30065e-05
-3.59746e-06
-4.04908e-05
2.84346e-05
6.83771e-05
-1.41973e-05
1.46744e-05
5.17164e-05
-1.87131e-06
0.841689
-8.22739e-06
0.26538
0.000111114
0.820002
0.000241189
-0.000416323
0.331447
-6.0998e-05
-0.16992
-0.0279862
0.000160489
-8.44773e-06
-3.52913e-05
-2.14925e-05
0.00655237
-2.20191e-06
0.25405
-1.85365e-06
24.7865
-0.0586482
-0.00143354
-9.87707e-05
-0.204579
1.03774
-1.14136e-05
1.04413e-05
4.75118e-05
-0.00023341
3.38611e-06
5.89348e-06
0.000553515
0.0450365
1.26654e-06
-6.20478e-06
-1.24638e-05
0.185504
-0.000709069
-1.97017e-05
-2.30639e-05
0.00219237
-1.5572e-05
-1.09042e-05
0.284622
-1.6393e-05
-1.44877e-05
0.431179
-1.87791e-05
-2.4782e-05
0.0491996
0.456293
-0.405007
-2.77585e-05
-1.39955e-05
0.0118058
5.43909e-06
9.98983e-07
1.58844e-05
-0.00072499
3.31046e-05
2.36563e-05
-0.000295562
-0.000258257
0.00600685
-1.87601e-05
-2.10779e-05
1.24756e-05
5.96911e-06
-1.49449e-05
1.79148e-05
0.00433125
4.59687e-05
-6.91821e-06
2.78202e-05
4.23848e-06
1.93804e-05
-3.75281e-05
0.6243
-0.000217323
-1.91855e-05
-2.30764e-05
0.000137582
1.01712
2.46439e-06
1.85844e-05
-7.58261e-06
-3.30154e-05
6.72522
-0.00118728
-4.84304e-05
1.3082e-05
-9.64913e-05
0.00148997
-1.47923e-05
-1.76416e-05
4.87122e-06
-1.15758e-05
-0.000295318
-1.49868e-05
-1.33363
0.000127016
-1.6504e-05
-5.29246e-05
-5.85365
5.11235e-05
-0.000809723
-2.69687e-05
0.0116509
-2.49699e-06
-0.000118173
-0.000136705
0.000117203
-4.7088e-05
-5.7412e-05
4.19669e-05
-0.000120637
0.0197154
0.00516768
-2.14299
-8.77392e-05
1.38937e-05
1.42703e-06
-1.28921e-05
-2.26749e-05
-2.00755
-2.23613e-05
-3.39851e-05
4.18727e-06
-0.0710775
0.0267432
1.22896e-05
-3.62867e-05
0.00143954
-1.8669e-05
3.52941e-05
8.17518e-06
0.00129415
-8.0865e-05
-0.000292131
-0.632442
-2.17145e-05
4.02125e-05
0.341916
-3.60759e-05
0.00518036
5.59631e-06
-5.77758e-05
0.000623768
-2.92499e-05
-1.48414e-05
-0.000122502
-9.62135e-05
-5.8352
-2.46663e-05
-2.43234e-05
0.00881911
-1.51178e-05
-0.00762326
0.99736
0.000230608
-2.07939e-06
0.0174343
-3.96749e-05
-0.301865
5.3719e-05
-3.23289e-05
9.12233e-06
0.477434
-4.43081e-06
-1.59943e-05
-1.51698e-05
-0.000230637
0.276119
3.10165e-05
0.000343491
-1.15978e-05
-1.20679e-05
0.000402018
5.47835e-05
-1.166e-05
-6.27781e-05
-6.00735e-06
0.774988
0.365618
-7.69412e-05
-1.14418e-06
2.38352e-05
-1.11438
-2.12958e-05
-1.03796
2.15012e-06
-2.92914e-05
-5.48424e-05
-3.9706e-05
-0.000105034
8.94166e-06
3.35223e-05
-1.43169e-05
-0.0816028
0.000845655
-2.9786e-06
-0.000112801
-0.000202159
-9.41096e-05
-4.43328e-05
7.95203e-06
-5.13075e-05
-1.52769e-05
-6.15537e-06
-0.000647295
9.09727e-06
6.64075e-06
4.20919e-05
3.92954e-06
0.00638211
-4.47219e-05
0.00492334
-2.99411e-06
1.51771e-06
-6.77687e-05
-0.000879205
-1.10816e-05
1.43629e-05
-0.000116691
0.00110491
-1.26728e-05
-3.83039e-06
-6.61443e-05
-4.31283e-06
0.656831
0.0139281
1.17895e-05
0.689573
9.11563e-06
-0.000260356
0.00254381
0.000369131
-0.000741279
0.31137
-0.00074797
-0.000280958
-6.81211e-06
-7.71952e-05
-1.11062e-05
-8.31e-06
-0.000124224
-2.06293e-05
0.0316415
-6.83065e-06
-2.97137e-05
0.0017908
-1.32112e-05
2.12621e-06
-0.000483349
4.96084e-06
-3.87185e-06
0.000195913
0.0393468
-3.21665e-05
-0.000254929
0.183253
0.00022256
-1.2209e-05
-0.000686781
1.60925e-05
-6.74454e-06
0.442141
-1.71764e-05
-2.08107e-05
0.000631033
-8.23397e-06
-0.000353091
-1.17706e-05
1.06071e-05
0.367555
3.28511e-07
-9.85309e-06
-5.98816e-05
-2.01976e-05
-2.39975e-06
-6.08544e-06
1.56453
-2.12639e-05
-3.76505e-05
-1.68853e-05
0.000668106
2.48297e-06
-3.07825e-05
4.66813e-06
3.52504e-05
-3.69248e-07
-4.40966e-05
-2.44031e-05
3.41747e-05
-4.09686e-05
0.000315932
0.000195399
2.74342e-05
4.48573e-06
0.000251919
0.00127429
8.73352e-06
2.19115e-05
-2.89672e-06
0.537894
-2.95384e-07
-4.29266e-05
2.99218e-05
-6.70137e-06
4.13044e-05
7.71398e-06
-0.573537
0.540908
-0.217855
-1.22016e-05
-4.97418e-05
0.0005676
-3.2993e-05
0.00176279
-0.000651375
-1.19377
0.000139618
0.546082
0.00126396
0.00035909
0.388102
2.40516e-05
-0.000120669
-3.00275e-05
-5.24824e-06
1.25341
-4.67535e-05
3.99879e-05
-2.10093e-05
7.37582e-06
5.02517e-05
0.677362
1.46436
1.54463e-05
0.300893
-0.0382668
-0.0151452
0.000518511
0.000794243
-1.8861e-05
0.493568
-1.52211e-05
-0.568581
0.601999
1.45833e-05
-2.01195e-05
-7.37511e-06
6.57839e-06
-0.000284538
0.000191954
0.00183751
1.02136e-06
3.80208e-05
-4.75305e-05
-6.58622e-05
1.1058e-05
4.50969e-05
-1.86434e-05
-1.66521e-05
0.0174941
0.00101865
-3.11385e-06
-0.751514
-0.000150115
2.06399e-05
1.50709e-06
0.0101542
-6.65465e-06
9.48667e-06
0.00280162
0.00769285
-1.03003e-05
-1.77543e-05
0.0341598
0.00073771
0.612469
-1.70774e-05
-0.002061
1.46014
0.249947
1.95963e-05
-2.64093e-05
0.000160941
5.97621e-05
0.000256361
-1.67219e-05
0.701774
0.000612255
0.0031893
-1.3812e-05
2.2387e-05
0.351929
-0.000244553
2.72336e-06
1.28231e-05
-0.0381239
-3.95969e-06
-1.00688e-05
-5.69717e-05
-0.000101117
2.72793e-05
3.36131e-05
-2.76807e-05
-0.000164615
7.22925e-06
-0.000245843
-1.23374
0.000286959
0.000144968
1.2732
0.00159806
7.26509e-07
-5.23965e-06
-3.73682e-06
1.7324e-06
0.00461342
2.6317e-05
-0.000100897
-1.39861e-05
1.15003e-05
3.38202e-05
6.83959e-05
-3.08709e-05
0.000308364
-0.000182589
-5.26679e-06
1.31504
0.608384
-3.76631e-08
0.367494
0.000120825
8.63519e-05
4.13242e-05
3.3666e-05
-0.151441
0.00158071
-3.25829e-05
6.066e-06
1.15411e-05
-7.76897e-05
-4.43617e-06
-0.002369
4.25494e-05
-1.79915e-05
-4.39309e-05
0.228802
0.0217247
-3.9244e-05
-2.06131e-05
0.00489275
0.11009
1.3525e-06
0.29022
0.701205
-4.1862e-05
-1.02015e-05
-1.08219e-05
-9.05166e-06
0.478543
4.25222e-05
-9.92405e-06
0.00806964
0.0024058
-1.13816e-05
-8.0491e-06
-0.000302077
-1.55885e-05
-2.65543e-05
0.00324903
0.00134049
0.000974268
1.08963e-05
-0.000757983
0.000206309
0.000199657
4.31695e-06
3.74819e-05
9.0458e-06
3.0884e-05
0.00272146
2.61535e-05
-7.69958e-06
-1.86745e-05
0.515464
-4.89807e-05
1.70931e-05
-5.29199e-05
0.00160757
-2.70259e-05
-4.23563e-05
-3.08688e-05
1.00824e-05
0.522459
0.351902
-1.94297e-05
-0.216425
1.14159
0.404001
1.12131e-06
-2.07177e-05
-6.12917e-05
-9.42629e-06
5.05949e-05
-1.16286e-05
-6.14839e-05
-3.89465e-05
-1.18788e-05
-2.19398e-07
1.07242
-5.81506e-05
-0.0159185
-0.000377003
-3.18237e-05
-8.41613e-06
6.80506e-05
-1.9865e-05
4.78549e-05
0.000240667
5.06407e-05
0.0309342
-7.91935e-05
-6.69262e-05
0.0860911
-2.44362e-05
-2.71224e-05
1.55124e-06
-0.00543515
0.000199679
-9.39666e-06
-1.94307e-05
1.94558e-05
9.64403e-06
5.98311e-05
-0.000178146
-0.000640612
-1.74932
8.89597e-06
2.68854e-05
-0.0662377
0.000105697
1.47116e-05
0.00281536
-9.84559e-05
0.00110962
-0.000959901
0.00148805
0.561435
-1.25532e-05
-4.26071e-05
-1.87372e-05
3.47996e-06
3.49757e-05
-4.78203e-05
2.60543e-05
-0.00131571
-0.805932
1.16324e-05
-0.662526
-0.418097
-0.000382567
0.309597
-1.63078e-05
0.00258714
-0.16886
-2.72108e-05
0.00188476
-1.77063e-05
0.224137
2.4068e-05
0.000367723
3.32028e-05
-0.00028259
-0.000676664
0.592295
-1.43001e-05
0.0010628
-6.31516e-06
-0.000103228
-0.0197411
-1.75011e-05
0.597447
1.21539
-0.0127764
-0.487431
0.00122881
0.331657
0.000107543
-5.50704e-06
0.00132532
0.000596607
-0.490416
1.59606e-06
2.67917e-05
-4.75253e-05
0.000207005
-1.15191e-05
-1.95605e-05
-2.80187e-05
-0.615284
0.283748
-3.20407e-05
-0.660201
0.000848262
-3.51681e-05
-6.22662e-05
8.01006e-05
0.318541
5.5058e-05
-1.5394e-05
-0.108574
1.44334e-05
-2.14834e-05
-2.67755e-05
0.0046949
0.000973474
-1.13579e-05
8.42713e-05
3.67858e-05
-1.99518e-05
-2.1175e-05
-0.249867
-4.08834e-05
2.90508e-05
-0.806114
-0.00185179
-0.00010841
-2.82657e-06
0.389046
4.99843e-05
-1.34898e-05
-5.27607e-06
0.000417764
-9.59741e-05
-0.000385138
8.89093e-06
-1.20645
0.00066586
0.000895869
-6.54772e-05
-0.000942558
-0.000974001
-0.000419659
-2.43997e-05
0.0955308
-7.8542e-06
-0.00317175
2.54182e-05
5.67062e-05
-0.000882869
-8.80543e-05
-9.15581e-05
-0.000115475
-3.09012e-06
-0.000377634
0.00101105
-0.000102787
9.34683e-05
8.98239e-09
1.74969e-05
2.04332e-05
-0.00017975
-1.06811e-05
8.00483e-05
-1.32791e-05
1.40203e-05
0.620518
-1.44741e-05
-0.015413
-1.47687e-05
1.4372e-05
0.000380895
-1.22169e-05
-0.000247109
-0.00115591
0.00328665
4.20274e-06
-0.000359634
-8.81153e-05
3.57947e-05
-2.86728e-05
0.179378
0.542432
-1.49809e-05
-1.78424e-06
-1.41375e-05
-1.19018e-05
0.00172285
0.697573
4.2e-06
0.109457
1.93019e-05
-1.65828e-05
-1.72946e-05
0.0136846
-1.8837e-05
-5.35848e-06
-1.41207e-05
-1.1465e-05
-2.9143e-05
-7.06624e-07
-8.82081e-06
3.58101e-05
-17.5378
-1.55377e-05
-6.03018e-06
0.000223445
0.00124643
-5.60881e-05
-1.20465
0.000409553
-9.20428e-06
2.34918e-06
-0.000121962
0.000153508
-1.29799e-05
-0.000113084
9.42873e-05
-0.000297794
6.49898e-06
0.000537202
3.88197e-05
0.00443659
4.02086e-05
-2.39491e-05
-1.69815
0.030492
-2.06097e-05
1.36343e-05
0.561673
0.00363701
0.00112693
-0.000385002
-5.66987e-05
-2.29574e-05
0.849165
-0.000548208
-4.17073e-05
0.0680327
0.489225
-8.84018e-06
0.000241894
0.000768888
-3.07966e-05
0.152067
-2.33644e-05
-0.000199262
8.15616e-05
-1.7448e-05
1.34901e-05
0.000524905
2.25673e-05
2.45801e-05
-1.67947e-05
-20.7324
-6.39804e-06
-9.17017e-06
-2.28638e-05
1.34084e-05
1.05966e-07
4.3204e-05
-2.13627e-05
-0.000519582
-0.000165255
3.5687e-05
-0.0666525
-2.9156e-05
-1.67016e-05
-2.14344e-05
-2.47396e-05
-2.60853e-05
-3.15513e-06
-0.000211592
0.000981752
-1.13495e-05
-7.52924e-05
0.00036045
-1.53372e-05
4.84481e-05
1.21577
-5.5883e-05
3.17392e-06
-1.04252e-05
9.66325e-05
1.99564e-05
8.2473e-06
2.1823e-06
2.3932e-05
-0.253989
-0.22607
-1.11626e-06
2.90062e-05
-3.45126e-05
0.000719584
-2.4409e-06
-5.80284e-06
3.42257e-05
0.00137788
-2.2217e-05
2.63494e-05
-3.24837e-05
0.00350161
-0.00629178
-0.00011622
0.00604548
1.42324e-05
0.762356
5.67497e-05
-7.8091e-06
0.889022
0.00340077
-2.92198e-05
-0.00485862
-0.00798644
-0.126315
0.000351629
0.0950105
-0.000124108
-0.000309341
0.233468
3.41662e-05
0.0201436
-0.000644382
0.00441134
0.683575
2.20997e-08
-2.85563e-05
-2.27003e-05
0.0073377
-4.67575e-05
-0.346326
-0.000277026
-0.664261
-8.50818e-06
0.00398697
0.0079688
-1.06991e-05
-2.90316e-05
0.000870867
2.10304e-05
1.25612e-05
-0.000499886
0.00111374
0.00157246
0.00163533
6.84231e-05
-0.732844
0.00548264
-2.26591e-05
2.80258e-06
0.94625
0.000961527
-1.12115e-05
0.00025689
1.12126
-3.80571e-05
-0.000197012
-2.662e-05
0.000104975
-3.38494e-05
-1.83141e-05
1.36827e-05
-1.69226e-05
-2.86072e-05
0.60455
0.450393
5.29945e-05
2.89989e-05
-0.000185556
0.00813321
0.000871422
-6.63019e-05
-1.76096e-05
-0.000123579
7.7894
1.45135e-06
3.28638e-06
-2.92743e-05
-0.944981
3.67658e-05
0.00010177
0.0555414
0.0160259
-4.32547e-05
0.00456809
0.00215507
0.000905933
4.52146e-05
-2.27114e-06
0.591943
1.77275e-05
-0.000310273
-1.79953e-05
-0.000311294
5.01143e-06
-1.19204e-05
-2.98432e-05
0.001215
1.61519e-05
2.4247e-05
3.03631e-06
-9.15794e-05
3.80411e-05
-4.34225e-05
0.00283368
-0.307034
0.301453
-0.000118153
3.49206e-06
4.06263e-05
-9.7798e-05
-0.138544
2.22158e-05
-0.0215855
-2.58698e-05
-5.09066e-06
-8.16016e-05
0.000217876
0.639923
3.06156e-06
0.612655
-4.28958e-05
2.58887e-05
-4.74391e-05
-1.15773
-1.14815e-05
0.000391696
0.165866
2.75182e-05
-1.97255e-05
0.569238
-7.78932e-06
-0.100925
2.2965e-05
-0.000219687
1.63772
-0.000124282
-3.41238e-05
1.72339e-05
-0.775576
-0.000223994
3.84796e-05
-0.350251
-5.70608e-06
-0.000109533
0.00219886
-0.215131
0.0331746
1.30811
-0.13694
0.00109749
-2.07365e-05
0.0066405
0.00951309
-3.46097e-05
-8.16879e-06
-2.23634e-05
-0.000472256
0.00252352
-1.87256e-05
2.96371e-05
-3.86725e-05
-1.89826e-05
0.286218
-3.88217e-06
-0.42081
-1.32408e-05
-0.000842685
-0.000598693
2.70924e-05
2.53267e-05
0.988322
0.465775
0.000623532
-2.02214e-05
-1.44293e-05
-0.0012061
3.66689e-06
-0.000247331
0.0028686
-4.9383e-05
-6.24222e-06
-0.249798
-0.103844
4.25738e-05
-2.99088e-05
-3.65443e-06
2.02182e-06
-0.000158536
-0.000576769
9.64047
-2.30055e-05
9.24732e-06
-0.00110183
-0.609929
-1.71862e-05
0.0319318
-4.74666e-05
0.00408493
0.000928591
0.629492
-0.000729907
0.000509161
0.000452302
-3.89848e-05
4.88691e-05
0.0113916
-2.33509e-05
-3.41909e-05
0.0397306
3.19328e-05
-1.32988e-05
2.94181e-06
0.000662683
0.0219071
0.12601
-0.00961877
-0.000248807
5.72354e-05
-9.20487e-05
-0.522321
-0.0129017
-2.72418e-05
6.19362e-06
5.04829e-06
-0.000422298
0.395788
-1.15064e-05
0.161696
-5.04928e-06
-4.5774e-06
0.348317
-8.23456e-06
1.17069
-0.316829
-5.4337e-05
0.000125686
0.0162458
-7.26282e-06
-0.000153574
-2.60694e-05
0.469096
-0.000249835
0.00101285
0.334191
-0.0937512
-0.00026759
-0.000614248
1.49959e-05
0.00627056
-0.346493
-0.000184223
-0.000121907
0.16901
0.000358687
0.000812862
-3.75595e-06
-1.54981
0.292574
-0.00223155
-1.94552e-05
-0.000234135
-3.22094e-05
0.247402
0.00142927
0.000106408
-1.00924
0.669416
-4.8929e-05
0.00539195
3.2091e-06
-0.0823156
0.00163079
-0.000459342
-0.000323061
0.0326752
-5.934e-05
-0.000389393
0.492394
1.43472
-2.03219e-05
-1.97124e-05
9.69822e-06
0.00185666
0.0164216
0.00777576
1.06393
-0.00120497
0.0002074
-3.52403e-05
0.872242
0.0013387
3.76613e-05
0.000730141
0.100706
0.00787831
0.14187
-0.421144
0.755999
-0.00727483
-1.45007e-05
3.46772e-05
0.000187092
-8.71992e-05
-0.534437
0.0346749
-1.67599e-05
-1.05582
-4.79634e-06
4.87519e-06
-1.17767e-05
-5.01907e-05
5.24602e-06
0.770047
0.000743036
-0.00527425
-4.06279e-05
0.0367039
0.000325438
0.0156187
0.245427
-0.000154079
-0.000197555
-9.42321e-05
0.000565365
4.79707e-07
-1.69564e-05
-3.86197e-05
0.61866
1.38522e-06
8.82092e-06
0.0113985
-0.000153478
-0.0522432
1.3308e-05
0.0907323
1.66779e-07
1.42529e-05
-6.02104e-06
-1.32933e-05
-0.000462499
-2.70742e-05
-0.107017
5.95938e-05
-0.000693776
1.12674
-2.10007e-05
0.613029
-2.04816e-05
1.06632
-2.62252
0.404157
0.00113483
-5.12405e-06
-6.61022e-07
0.65446
-0.000108044
-0.000329006
5.06799e-06
-0.0003624
0.516413
1.81873e-06
-2.27003e-05
-2.47759e-05
-1.04581e-05
-0.297856
-0.0831405
-1.3976e-06
1.21327e-05
0.872544
0.35441
3.81579e-05
-0.0291167
2.0775e-05
0.439049
0.874189
-3.48e-06
0.0114828
-0.0587718
0.00193457
0.474976
-0.000335317
-2.33874e-05
-5.00755e-05
6.25843e-06
0.694116
0.033212
-2.28137e-05
3.14263e-05
0.392241
4.05792e-05
0.480363
-3.89303e-05
-7.77202e-05
2.27018e-05
-0.0803602
-0.000208219
-1.50125e-05
0.53888
-4.74515e-06
-1.43735
0.782605
-1.33034e-05
2.92072e-05
0.00292294
5.04579e-06
2.82238e-06
3.31172e-06
0.49244
8.44087e-05
-7.39922e-06
-3.12548e-05
0.478075
-2.03151e-05
0.000758965
-2.14214e-05
0.0817491
-2.6508e-05
0.00197878
-1.06112e-05
0.242633
-1.35643
0.000125887
-0.000231111
0.000769392
-1.39913e-05
0.00171073
0.412202
-1.86665e-05
0.00176811
1.93908e-05
0.0281151
2.56469e-05
0.564819
0.538783
0.00241249
0.566763
0.476787
0.000106264
-0.000130477
-0.11148
2.01848e-05
-0.230846
-1.09132e-06
0.0200429
1.65544e-06
3.91305e-05
0.000352589
7.35942e-05
-2.60347e-05
-1.54686e-05
1.2146e-05
-0.00485213
0.00156231
0.560046
0.723099
1.98596e-05
3.27434e-05
0.000640136
0.669697
0.000112064
2.23111e-06
1.80731e-05
0.495069
-0.0755107
-0.124795
0.655037
0.000239198
-1.76018e-05
1.51225e-05
0.000700609
0.000758811
0.0337986
-1.81533e-05
-1.63822e-05
0.397833
0.00121303
-3.29109e-06
0.000419979
0.0328786
0.00273687
-2.23635e-05
0.000451025
0.0229664
0.311122
-0.288825
0.000781056
-1.60839e-05
-1.46071e-05
1.21084e-05
-1.63297e-07
-2.42375e-05
-2.09145e-05
0.000184774
0.0158128
0.00021664
-0.000415558
6.73185e-05
-1.36e-05
2.59218e-05
-0.000132438
0.000204023
0.000131873
-2.13006e-05
5.95268e-05
-2.97515e-05
-5.84695e-06
-1.79855e-05
3.75543e-05
-0.0120754
-7.6411e-06
0.00111464
0.0255712
0.021291
-0.0322825
0.67646
-7.94897e-05
1.96883e-06
-1.8229e-05
1.05011
-7.04369e-05
4.44072e-06
-3.7453e-05
0.360161
7.16349e-05
0.000133271
0.00497533
-1.41309e-05
-1.04146e-05
5.61848e-05
-1.77246e-05
0.000468928
1.27864e-05
8.54274e-05
4.56932e-06
-6.03872e-06
-2.42979e-05
-3.94542e-06
-0.000298926
0.0221688
-0.000143802
0.00293009
0.000958273
0.00049098
0.000233812
0.0014056
-7.3801e-05
0.589347
4.17103e-06
2.10906e-05
-1.09003e-05
-0.00011402
0.00409771
-2.38e-06
0.00113982
0.406562
2.30439e-05
-0.0129994
0.00330298
0.000677977
0.00147409
0.000971694
-1.60163e-05
5.56359e-05
-1.49223e-05
0.0014958
0.000707652
1.09004
1.97448e-06
0.00037527
1.76921e-05
1.2882
-0.00559842
0.000589163
1.66506e-06
0.000650441
2.22495e-05
0.00126997
-1.72857e-05
1.36563
8.79569e-06
4.60541e-06
9.42383e-06
0.000232356
-0.00176231
0.000101491
-0.455054
-9.98139e-06
-0.000759461
0.00093147
-1.94121e-05
-1.20529
0.573852
0.00368307
-0.000869303
0.000386103
-2.49162e-05
-2.58176e-06
-0.707983
0.0028738
-1.09482e-05
-9.79993e-05
9.60314e-06
-4.91335e-05
0.0503027
-3.72242e-06
0.896302
0.00594457
0.00282407
9.41062e-05
-2.27443e-05
2.66303e-06
-3.09285e-05
0.00614773
0.00111608
1.0304e-05
0.466911
-1.60404e-05
-4.59575e-06
3.54702e-05
0.0814706
-6.43051e-05
-0.00327757
3.13232e-06
1.3637
-2.9437e-05
1.38628e-05
9.46584e-05
4.09211e-07
-2.42165e-05
0.00441969
-3.50128e-05
-1.77058e-05
7.13751e-06
0.000277134
2.28404e-05
0.277
1.00931e-06
-2.88128e-05
2.89071e-05
0.00285901
-5.64856e-05
2.0717e-05
9.47369e-05
0.644353
-0.990597
0.447609
-0.104379
0.0127719
0.000181105
0.000815552
1.61312e-05
4.78192e-05
2.90763e-05
0.563284
0.000628318
4.98865e-06
-2.91689e-05
-5.35967e-06
-0.000198926
0.00217501
-1.04135e-05
1.36267e-05
0.00280638
0.00146796
0.00296597
-4.37284e-07
-4.60328e-06
0.476837
-0.000152064
-5.95409e-05
0.532994
-2.00213
2.29087e-05
5.52387e-05
2.42856e-05
-1.55201e-05
0.000117749
1.34042e-05
-1.97707
3.66577e-06
0.235267
-2.06789e-05
0.14715
0.000141118
-1.30685e-05
-0.000352883
-9.13383e-06
-9.47104e-05
1.69777e-06
0.000179752
0.0302083
-1.03877e-06
0.00332378
-1.29995e-05
-5.52409e-06
0.0082557
-2.35903e-05
1.20178e-05
-3.19089e-05
-2.02767e-05
-5.87232e-06
-6.60779e-05
-8.28947e-07
-0.256517
-3.33699e-05
7.38152e-07
0.000615679
9.20721e-06
-1.09771e-05
-1.80942e-05
-2.97224e-05
-0.0029646
0.0273489
-2.10245e-05
-0.000158028
-7.8918e-05
-5.07482e-07
-0.00816802
1.09471e-05
1.37163e-05
0.00732154
-1.15366e-05
0.000575127
-0.000613878
0.000495858
-5.52363e-05
0.000445404
-6.82245e-06
-0.0305636
0.000853818
-6.8454e-05
-1.30316
0.138692
-5.2359e-06
0.00318675
-1.22868e-05
-2.51177e-05
0.000340103
-0.000614538
-6.22708e-07
3.79104e-06
-3.98569e-05
0.000158313
-3.22652e-05
0.000388954
2.58435e-05
0.000190655
0.0502074
4.98176e-05
-0.007348
-5.87261e-06
-0.000434771
-4.55273e-05
3.14989e-05
-3.9736e-05
-1.71571e-05
-2.33595e-05
-3.86788e-06
0.00100658
-9.38996e-06
-0.00126817
-6.3514e-05
1.30992
-2.52352e-06
4.80985e-06
0.00161111
2.56567e-05
0.00341059
-0.000674698
0.000115373
-7.75637e-05
-2.32015e-05
-8.51593e-05
5.26451e-05
-2.87901e-05
0.000449635
-0.000224953
-2.84799e-05
2.27164e-05
3.97489e-05
0.171812
6.89297e-05
0.000578893
0.622743
-1.73436
0.000112823
-1.81776e-05
1.2866
-5.82662e-06
-0.00010967
-8.03693e-06
0.000790957
-1.42593e-05