/*--------------------------------*- C++ -*----------------------------------*\
| =========                 |                                                 |
| \\      /  F ield         | OpenFOAM: The Open Source CFD Toolbox           |
|  \\    /   O peration     | Version:  v2012                                 |
|   \\  /    A nd           | Website:  www.openfoam.com                      |
|    \\/     M anipulation  |                                                 |
\*---------------------------------------------------------------------------*/
FoamFile
{
    version     2.0;
    format      ascii;
    class       volScalarField;
    location    "200";
    object      k_0;
}
// * * * * * * * * * * * * * * * * * * * * * * * * * * * * * * * * * * * * * //

dimensions      [0 2 -2 0 0 0 0];


internalField   nonuniform List<scalar> 
10042
(
0.000147407
0.000148169
0.000148045
0.000159082
0.040384
0.000148316
0.0389187
0.000172528
0.00014723
0.00014788
0.0307284
0.000158966
0.000144693
0.000144427
0.000151301
0.000148041
0.000147983
0.000149698
0.000147421
0.000171149
0.000147149
0.000204848
0.000145642
0.000145326
0.000148219
0.000157834
0.000148774
0.000149888
0.000147121
0.000149179
0.000148001
0.00725147
0.000147957
0.000148907
0.000154703
0.000145413
0.000157069
0.000161421
0.000145409
0.000157203
0.000172076
0.000150716
0.0462164
0.000148165
0.040736
0.0001741
0.000149143
0.000185263
0.000156068
0.000171063
0.000149028
0.000150405
0.000150767
0.000151819
0.000157067
0.000148263
0.00014714
0.000149061
0.000148865
0.000150467
0.000148148
0.000147867
0.000154896
0.00014795
0.000148997
0.000148885
0.000148399
0.000165728
0.063509
0.000147596
0.000151769
0.000173539
0.00014819
0.000157425
0.000148306
0.000145326
0.0527515
0.000147459
0.000156573
0.0521658
0.000155437
0.0173362
0.000148075
0.000150107
0.000148417
0.000149374
0.000147344
0.000180619
0.000147973
0.000147333
0.000148724
0.0202344
0.000150035
0.000150162
0.000149077
0.00014751
0.00014744
0.000147437
0.000156541
0.000147242
0.000149933
0.000176245
8.01901e-05
0.00014929
0.000149659
0.00016461
0.000147476
0.000147408
0.000147205
0.000144647
0.000145941
0.000147142
0.000153982
0.0569756
0.000148967
0.000147193
0.000147616
0.000147443
0.00014747
0.0435749
0.000147939
0.000157366
0.000148254
0.00014779
0.000176278
0.000148085
0.000172151
0.000156545
0.000164304
0.000147301
0.000157038
0.00014827
0.0394613
0.000195246
0.000147232
0.000167767
0.0278537
0.000148782
0.000186129
0.000182816
0.000149906
0.000147609
0.000149433
0.000184292
0.000148855
0.000147132
0.000168683
0.000145985
0.000147514
0.000153395
0.000147448
0.000149676
0.0702678
0.0454225
0.000149164
0.000144649
0.000149803
0.000147818
0.000167717
0.0158757
0.0265872
0.000185544
0.000147789
0.000147413
0.000148295
0.000148202
0.000165035
0.0182565
0.00687704
0.05259
0.000150795
0.000146856
0.00429839
0.00017397
0.0001599
0.0540187
0.0353784
0.000148215
0.000167016
0.000159025
0.000150072
0.010684
0.000148602
0.000156412
0.000150529
0.0479895
0.000198523
0.000148347
0.0347593
0.000152
0.000316485
0.000149448
0.0702962
0.000576214
0.000182731
1.63492e-05
0.000154263
0.000147493
0.000144667
0.000151102
0.0001594
0.000148432
0.000147105
0.000174139
0.000148535
0.000146073
0.000379295
0.000148953
0.000149712
0.000149587
0.000239508
0.000148704
0.000164242
0.000187421
0.000149743
0.000199275
0.000148083
0.000147752
0.000171407
0.000146487
0.000154122
0.000150036
0.000196141
0.000162153
0.00015337
0.000158651
0.000213492
0.000147163
0.000189495
0.000152312
0.000147265
0.00017198
0.000146901
0.000152281
0.000148175
0.000153604
0.000146247
0.000144411
0.000151375
0.000156345
0.000147837
0.000148286
0.00014815
0.000154045
0.000147155
0.000148048
0.000145424
0.0001498
0.000151274
0.000149773
0.000144694
0.000147533
0.00015219
0.000205502
0.000185589
0.0285962
0.000160071
0.000159833
0.000151521
0.000176312
0.0265661
0.000150964
0.00014748
0.000144584
0.000150994
0.000146204
0.000209638
0.000151982
0.000147323
0.000149644
0.000159957
0.000151438
0.000185465
0.000159947
0.000185702
0.000152118
0.000156384
0.000146179
0.000154341
0.000148941
0.000159644
0.000147786
0.000157855
0.0455058
0.000146048
0.000147706
0.0242065
0.000174556
0.000148208
0.000148144
0.000151847
0.0567916
0.000170971
0.000185177
0.000149137
0.00014465
0.00014718
0.0001473
0.000215598
0.000147507
0.000148105
0.000146884
0.000148083
0.000162317
0.000151575
0.000169496
0.0513853
0.00015014
0.000232424
0.000147114
0.00015405
0.000148713
0.0172391
0.000176921
0.000309125
0.0293278
0.000145254
0.000152071
0.000147629
0.000151812
0.000158659
0.000149578
0.000159484
0.000145891
0.000144717
0.000148241
0.000170629
0.000149885
0.000151541
0.000148122
0.000151363
0.045741
0.000147153
0.000149095
0.00014773
0.000147821
0.000163478
0.000182937
0.000159801
0.000217513
0.000162506
0.000155601
0.00014819
0.000144286
0.000149019
0.000149767
0.000220503
0.000147798
0.000148908
0.000189594
0.000147125
0.000152629
0.00015031
0.000190602
0.000148319
0.000153153
0.000163659
0.000159227
0.000151018
0.000147533
0.000194108
0.000168933
0.000149605
0.000163181
0.000147488
0.000146914
0.000147473
0.000152575
0.000258935
0.000154031
0.000149633
0.000150073
0.000149944
0.00014979
0.000171093
0.00014751
0.000145895
0.0319684
0.000146754
0.000168483
0.000220191
0.000157716
0.0691584
0.0261493
0.000155559
0.000172277
0.000148966
0.000171722
0.000149938
0.000148925
0.0001968
0.000148281
0.000152149
0.00081591
0.000149591
0.000147163
0.000162348
0.000283219
0.000148742
0.000145811
0.00796976
0.000176887
0.000146847
0.000165741
0.0128694
0.000146487
0.00014974
0.00014579
0.000147239
0.00014447
0.000145976
0.000226818
0.000153951
0.000149021
0.0330469
0.000144451
0.000147485
0.000227516
0.000148773
0.000796322
0.000172255
0.000150123
0.000145786
0.00014566
0.000174813
0.000151039
0.000155678
0.000149184
0.0346551
0.000149502
0.000213456
0.000150979
0.000147381
0.000147206
0.000224845
0.000147486
0.00015367
0.000147476
0.000148209
0.0128016
0.000154334
0.000147587
0.000146541
0.0121785
0.000147269
0.000154646
0.000150934
0.000146217
0.010945
0.0668566
0.000147036
0.000148807
0.000154251
0.00014468
0.000147884
0.000147732
0.0164711
0.000147861
0.000147261
0.000155958
0.000151888
0.000170272
0.000149771
0.00015872
0.0163827
0.000163621
0.00014762
0.000147546
0.000194945
0.00014937
0.000147421
0.000156147
0.00014746
0.000145967
0.000150299
0.000145054
0.000160244
0.00014748
0.000147515
0.0246227
0.000146241
0.000150626
0.000148296
0.000149027
0.000159575
0.000147058
0.000147698
0.000303694
0.00014945
0.0608404
0.000150847
0.000149868
0.000149831
0.000178927
0.000147738
0.000147617
0.00014791
0.000149871
0.000155298
0.037535
0.000147294
0.000160185
0.000390137
0.000163542
0.000149718
0.000147668
0.000149094
0.000149296
0.000147154
0.0341944
0.023286
0.00014835
0.000156579
0.000158232
0.000157801
0.000148338
0.000145606
0.000207196
0.000174852
0.000326921
0.000145661
0.000149239
0.000148613
0.000146791
0.0669725
0.000160736
0.00014984
0.000147435
0.0001469
0.000148206
0.000196147
0.000154372
0.000148828
0.0120381
0.000233104
0.00019173
0.000165076
0.000147934
0.000147252
0.000174576
0.000167612
0.0577017
0.0266333
0.000152667
0.000153932
0.00014935
0.000151436
0.00014881
0.000149272
0.0285111
0.000145355
0.000147119
0.000173354
0.000149349
0.000211261
0.00015052
0.000189491
0.000156752
0.000149601
0.000151639
0.000154759
0.00016592
0.000165136
0.000168155
0.000149873
0.000171125
0.000150278
0.000147482
0.000148677
0.000149101
0.000148108
0.000152942
0.000170349
0.000160415
0.000148854
0.000149609
0.000147877
0.00014758
0.000171446
0.000147325
0.000150865
0.000199408
0.000145053
0.000167657
0.000181126
0.000148123
0.0422955
0.000165961
0.000149346
0.000200463
0.000148455
0.000149772
0.000148081
0.000147766
0.000149945
0.000152048
0.000148238
0.00021764
0.000149906
0.000147688
0.000148737
0.000159767
0.000160703
0.000147762
0.000153368
0.000147241
0.00016077
0.00014791
0.000156887
0.00014601
0.000150466
0.000145505
0.000147385
0.0368134
0.000145821
0.000170183
0.000147708
0.000150743
0.000146125
0.000160833
0.000148356
0.000166711
0.000148193
0.000196945
0.000149728
0.0305223
0.000145972
0.000151142
0.000149795
0.000148164
0.00014756
0.000151986
0.000148102
0.000170729
0.0131148
0.000214538
0.000152407
0.000159576
0.000147065
0.000160532
0.000174174
0.000147903
0.000155924
0.000168464
0.0613212
0.00018137
0.00146495
0.000155487
0.000148506
0.000149503
0.00015391
0.000152091
0.000164044
0.000145255
0.00015106
0.000183458
0.000149742
0.000147577
0.000153812
0.0794956
0.000150917
0.000157884
0.000174576
0.000149651
0.05801
0.000145383
0.000146808
0.000149221
0.000147489
0.0197121
0.000177104
0.0797933
0.000148227
0.000507166
0.0356223
0.000219613
0.000163848
0.000176555
0.000189445
0.000161547
0.00014812
0.00014751
0.000156567
0.018074
0.00014703
0.000156423
0.0677383
0.000147486
0.000147236
0.000147544
0.000150201
0.000147508
0.000148598
0.000178289
0.00146345
0.000148451
0.00014782
0.0372233
0.0682965
0.000147104
0.000147619
0.000148944
0.000147263
0.000231728
0.000177108
0.000183352
0.000149677
0.000147207
0.000147384
0.000150131
0.000148206
0.000160653
0.000149763
0.0679518
0.000147874
0.00014836
0.000162378
0.000146971
0.00016207
0.000165165
0.000151259
0.00671443
0.0744032
0.000148534
0.000147149
0.00359211
0.0241497
0.000159693
0.000148341
0.000148734
0.000175155
0.000153566
0.000148045
0.000147781
0.000147282
0.000189817
0.000152337
0.000168521
0.000149772
0.0490223
0.000254652
0.000147678
0.000147779
0.000170106
0.000148903
0.000146109
0.000153051
0.0600874
0.0594403
0.0215939
0.000150285
0.000173481
0.000161111
0.000145489
0.00014767
0.000149224
0.000188633
0.000149317
0.00014766
0.000173466
0.000148298
0.000170837
0.000148628
0.000148591
0.000145857
0.000148914
0.000193347
0.000149265
0.000147495
0.00016538
0.00016415
0.000187967
0.000149348
0.000177393
0.0653666
0.0608268
0.000150323
0.0183274
0.0159845
0.00014748
0.000144773
0.000149773
0.000150904
0.049742
0.000151042
0.000148706
0.000149318
0.0679491
0.000160235
0.000150107
0.00014885
0.000147625
0.000163764
0.000146197
0.000146834
0.000160069
0.00015006
0.000149303
0.00014712
0.000235661
0.00014768
0.000149923
0.000148068
0.000149109
0.000183838
0.000149295
0.000150441
0.000148348
0.000153717
0.000205835
0.000149941
0.000187606
0.000154105
0.0528573
0.000146389
0.000151123
0.000159764
0.000177154
0.000162405
0.000149742
0.00171752
0.00590521
0.000149567
0.000147304
0.000221957
0.000148408
0.000149646
0.00014625
0.000149579
0.000169397
0.000149948
0.00014995
0.000165112
0.000156205
0.000157799
0.000157308
0.000150045
0.0358745
0.000151297
0.000213068
0.000147238
0.000173217
0.0001602
0.0716398
0.000152535
0.0606127
0.000149779
0.000155241
0.000148121
0.000148366
0.000147785
0.000188776
0.000160293
0.000170225
0.0207088
0.000148682
0.000146515
0.000155676
0.000146988
0.000157105
0.000158228
0.0713638
0.000147747
0.000155487
0.000163347
0.000150963
0.000160549
0.000149882
0.00014499
0.000149879
0.000185183
0.000148784
0.000147846
0.000146263
0.000146078
0.000147415
0.000147754
0.000148913
0.000147002
0.00014891
0.000149502
0.00015328
0.000157058
0.000147828
0.0568357
0.000147999
0.000454733
0.000159484
0.0520743
0.00016221
0.000154935
0.00894591
0.000160989
0.000187486
0.0356281
0.000163463
0.000149267
0.000146902
0.000150192
0.000184425
0.000147537
0.0606658
0.00014751
0.00687939
0.0366942
0.000173458
0.000150427
0.0392399
0.0472351
0.000150777
0.000147763
0.00014974
0.000153254
0.000144921
0.000145798
0.000167062
0.000193238
0.000148397
0.000147507
0.000149276
0.000225919
0.000175712
0.000148948
0.000153402
0.000178702
0.000149329
0.000148011
0.0537977
0.000148987
0.000147501
0.000554839
0.000151772
0.000147999
0.00525026
0.0733915
0.0536113
0.00014758
0.000150642
0.000218871
0.000146279
0.000147497
0.000149888
0.000158913
0.00014814
0.000148625
0.000152831
0.000161514
0.00017607
0.000146565
0.000147927
0.000148411
0.000147326
0.000149562
0.000145155
0.000186575
0.000156254
0.000148013
0.000147768
0.000146441
0.000147645
0.000149285
0.0639826
0.000157557
0.000145811
0.000147511
0.000160427
0.0701506
0.000148155
0.000147693
0.000148065
0.000145658
0.000695352
0.00017009
0.000147096
0.000148301
0.00015758
0.000171125
0.000149046
0.000149877
0.000152847
0.000148184
0.00015506
0.000149194
0.0110615
0.000160968
0.000148325
0.000154315
0.00578266
0.000155657
0.000192407
0.000153234
0.000219801
0.00014979
0.000149478
0.000153588
0.00017627
0.00014764
0.000148162
0.000149593
0.000150557
0.000169467
0.000172968
0.000904926
0.000150116
0.000147762
0.000155841
0.000148062
0.000148057
0.00516504
0.000151398
0.000148019
0.000147787
0.000182766
0.000235489
0.000147751
0.000148326
0.000180748
0.000147525
0.00014858
0.000147622
0.000180522
0.000150657
0.000155063
0.00612624
0.000148899
0.000149037
0.0658025
0.00014719
0.00017502
0.000147146
0.000151095
0.000162102
0.000148194
0.000148463
0.000149826
0.000151412
0.00248185
0.000147483
0.000148798
0.00017785
0.000153567
0.000219756
0.0746008
0.000163774
0.000149363
0.00021013
0.000147984
0.00220751
0.000149033
0.000148114
0.000147027
0.011733
0.000149363
0.000149146
0.000148978
0.000160961
0.0631163
0.000155967
0.000166864
0.000147768
0.000148798
0.000162973
0.000156785
0.000146798
0.000153561
0.000147501
0.0712804
0.0469872
0.000148821
0.00015037
0.000149441
0.00184518
0.000148954
0.00972984
0.000147763
0.000147536
0.000147106
0.000149339
0.000152004
0.000149792
0.000147803
0.000148237
0.000199102
0.000184072
0.000147461
0.000152964
0.000152821
0.000161612
0.000147679
0.000153772
0.000150197
0.000148094
0.000150821
0.000159774
0.000149855
0.000147229
0.000154525
0.000147018
0.000182602
0.000150585
0.000176257
0.000148611
0.000148102
0.00014828
0.000178895
0.000161879
0.000146437
0.000153095
0.000176592
0.00014936
0.000146483
0.000153859
0.000149448
0.0127992
0.000179645
0.000153017
0.0207891
0.000150661
0.000161473
0.000179034
0.000160635
0.000161674
0.0093648
0.000159348
0.000188816
0.00014825
0.000150451
0.000147394
0.00014798
0.000155081
0.000146808
0.000176273
0.000148068
0.000148224
0.00016867
0.000147571
0.000171713
0.000155711
0.000153461
0.000147525
0.000161039
0.000209537
0.000143926
0.000159483
0.0690181
0.000160626
0.000147346
0.000159196
0.000147773
0.000146959
0.000154602
0.000146847
0.000146382
0.000169138
0.000147981
0.000156273
0.000146938
0.000147839
0.0645551
0.000147447
0.000145871
0.000152822
0.000147596
0.000145868
0.000149649
0.000268581
0.000148707
0.000148427
0.000145564
0.000180746
0.000149381
0.000152565
0.000147632
0.000159253
0.000149781
0.000147676
0.000150173
0.000148544
0.000146364
0.00017225
0.000163708
0.000156675
0.000151188
0.000165526
0.000176862
0.000155002
0.000155452
0.000150297
0.0603782
0.000147909
0.000147997
0.000147284
0.000149549
0.000159275
0.000147101
0.0111283
0.0355659
0.000277366
0.000148422
0.000152886
0.000161442
0.000145099
0.000167715
0.000163467
0.000241911
0.000176259
0.060382
0.000176763
0.000193824
0.0459007
0.000156019
0.000150936
0.000153391
0.000146881
0.0652223
0.00014967
0.000156137
0.000146699
0.00015311
0.000148143
0.0414121
0.0731174
0.000149299
0.0161554
0.000230315
0.000202813
0.00016733
0.000171537
0.000145878
0.0684216
0.000148039
0.002527
0.0307617
0.000149304
0.00014776
0.000147829
0.000150986
0.000154048
0.00016147
0.000193671
0.000148723
0.000148104
0.000153464
0.000149328
0.000148075
0.000154142
0.000146877
0.00014825
0.00020366
0.000171659
0.000148116
0.0242246
0.000151048
0.000149799
0.000151167
0.000201406
0.000147616
0.000146222
0.000182445
0.000184673
0.000147381
0.000153431
0.000240761
0.000170286
0.0484914
0.000146561
0.000194374
0.0688989
0.0539215
0.000148411
0.000147836
0.000174762
0.000154131
0.000162559
0.000149108
0.0810848
0.000168771
0.000191942
0.000148324
0.00014765
0.0165948
0.00021209
0.000148901
0.000149799
0.059649
0.000147573
0.000145931
0.000148227
0.000151491
0.000149249
0.000156373
0.000148607
0.000152353
0.000145453
0.00016046
0.016727
0.000167239
0.000160934
0.0377136
0.000175385
0.000145775
0.000146937
0.000147519
0.000149877
0.000181398
0.000156411
0.000149336
0.000148081
0.000147728
0.000145199
0.000157952
0.000145354
0.000162545
0.000152769
0.000148712
0.0747449
0.0359343
0.000148554
0.0518439
0.000158825
0.000160134
0.000149741
0.00014563
0.023124
0.000175037
0.000147291
0.000146275
0.000147624
0.000154894
0.000149727
0.000193517
0.000144701
0.000148256
0.00014814
0.055823
0.0656066
0.000145365
0.000148252
0.000177697
0.00019557
0.000152555
0.0604386
0.082276
0.000148112
0.000148847
0.000148692
0.000150483
0.0496673
0.000148096
0.000149887
0.000185557
0.000178338
0.00014936
0.000147629
0.000165651
0.000149881
0.000148361
0.000177584
0.000178684
0.0517202
0.000147698
0.000179883
0.0001607
0.000172422
0.000150671
0.000155348
0.000147473
0.000149854
0.000171008
0.000153836
0.000147829
0.000152982
0.0310186
0.000145024
0.000146956
0.00014503
0.000168965
0.000147503
0.000148441
0.000144035
0.000147511
0.000236121
0.0696158
0.00014892
0.000202797
0.0618297
0.0511396
0.000147505
0.000147982
0.00014681
0.000147448
0.00014866
0.000148901
0.000145406
0.000148415
0.00014638
0.000152254
0.0354445
0.000160117
0.000195645
0.000158885
0.000148038
0.000150707
0.000158907
0.000148805
0.00014701
0.00016199
0.000158609
0.000224785
0.000165961
0.000145205
0.00939269
0.000149903
0.000144658
0.000147501
0.000203785
0.000166583
0.000150126
0.000153953
0.000148364
0.000148491
0.000157797
0.000165428
0.000158154
0.00060137
0.000148415
0.000148036
0.000229375
0.000160906
0.000153244
0.000186782
0.000150938
0.000166905
0.000202288
0.000172617
0.0111098
0.000147317
0.000148012
0.000147416
0.000148193
0.000148518
0.000150683
0.000164757
0.000171759
0.051498
0.000148346
0.0231544
0.00103453
0.00015419
0.000320554
0.000148882
0.000178786
0.0241762
0.00014722
0.000181139
0.000146162
0.000253938
0.000149254
0.000196184
0.000147181
0.000221094
0.000164846
0.0324741
0.00014688
0.000192031
0.00014707
0.000150992
0.000212233
0.00014683
0.0116095
0.0689389
0.00017734
0.00135191
0.000182271
0.0588124
0.000162915
0.000147978
0.000162985
0.00016782
0.0236692
0.000148367
0.000147943
0.000149918
0.000166214
0.000148021
0.000148925
0.000148834
0.0424072
0.0614747
0.000147802
0.00795954
0.000165223
0.000146074
0.000161581
0.00015517
0.0673195
0.000157376
0.000146876
0.000197865
0.000148357
0.000147396
0.000148465
0.000181525
0.000173783
0.000147353
0.000154505
0.00014863
0.000149714
0.000146442
0.0683697
0.000149896
0.000146537
0.000317007
0.0001993
0.000152414
0.000147297
0.0453893
0.000155804
0.000150872
0.000147947
0.000163358
0.000150983
0.00015655
0.000152856
0.000539358
0.000163115
0.000173264
0.000145072
0.00016131
0.000169173
0.000157175
0.000149288
0.0491213
0.000149651
0.000194375
0.000147281
0.000149224
0.000160834
0.000194676
0.000151533
0.000153805
0.000148639
0.000160059
0.000175052
0.000183333
0.000155817
0.000149945
0.000147567
0.000155448
0.000182626
0.000147464
0.000166737
0.000147925
0.000147517
0.0380185
0.000147477
0.0737586
0.000147919
0.000154796
0.000177985
0.000147897
0.000157314
0.000187134
0.000181284
0.000147912
0.000181426
0.000150017
0.000149737
0.000147709
0.0308288
0.0709656
0.000147402
0.000147623
0.00014691
0.000147083
0.000181101
0.0705908
0.000147863
0.000232346
0.000146211
0.00014647
0.000147188
0.000180405
0.000150082
0.000151659
0.000147589
0.000147976
0.000147839
0.000149685
0.000149706
0.000159593
0.00406714
0.000146453
0.000147823
0.000160589
0.000173688
0.000146636
0.00115921
0.000168881
0.000146889
0.000145857
0.000149739
0.0001863
0.000146738
0.000180604
0.000156715
0.000152812
0.000146834
0.000167653
0.000144736
0.000172766
0.000155546
0.000149288
0.000256348
0.000223775
0.000143991
0.00014721
0.0181293
0.000184134
0.000178271
0.000153953
0.000180377
0.000145975
0.0764106
0.000177052
0.000148151
0.0343709
0.0757185
0.000150789
0.000165291
0.00017052
0.000146818
0.046259
0.000148792
0.00015588
0.00015769
0.000148946
0.000148173
0.000163683
0.000147084
0.000147051
0.000147059
0.00126411
0.000147361
0.000147378
0.000146735
0.000147179
0.000147429
0.000149496
0.000171809
0.000161453
0.000152219
0.000149638
0.000323861
0.000148955
0.000146779
0.000147362
0.000146782
0.000148433
0.000147614
0.000157624
0.000181797
0.000149448
0.000158709
0.000162839
0.000146836
0.000155485
0.0623481
0.000149882
0.000145004
0.00014839
0.000167022
0.000149295
0.000149293
0.000152364
0.000152971
7.30206e-05
0.0136427
0.000146662
0.00014687
0.000147462
0.00016602
0.000159665
0.000146928
0.000155695
0.000167781
0.000148753
0.000154842
0.000148782
0.00017884
0.000205981
0.000150796
0.000173614
0.000154073
0.046146
0.000149309
0.000147209
0.0795804
0.000170869
0.000152519
0.000196411
0.000167793
0.0200535
0.00016216
0.000199327
0.000154535
0.000154396
0.0200685
0.000154729
0.000213883
0.000159369
0.000180749
0.039139
0.000149952
0.000148652
0.000147697
0.000193452
0.000144095
0.0134059
0.00016313
0.0244957
0.000150472
0.000170482
0.000192999
0.000147441
0.000148806
0.000166677
0.000157357
0.000148473
0.000155174
0.000167262
0.00017732
0.000175079
0.000185738
0.0232384
0.000178777
0.000148652
0.000149281
0.0717868
0.000166352
0.000149798
0.00016068
0.0574544
0.00014895
0.00015271
0.00014747
0.000156303
0.000148099
0.000148579
0.000159858
0.000148602
0.000156567
0.0300457
0.0165358
0.000145996
0.000153827
0.000155862
0.000185157
0.000162052
0.000149409
0.000147318
0.000169374
0.00791239
0.000147483
0.000153303
0.000148364
0.0210704
0.000147085
0.000157872
0.000216335
0.000215931
0.000149801
0.000172878
0.000173108
0.000172
0.00015374
0.000147966
0.0829795
0.000146957
0.000155759
0.000148944
0.00015805
0.000145926
0.000146478
0.000148485
0.000173629
0.000147056
0.00014766
0.000147102
0.000149057
0.000147083
0.000148195
0.000178442
0.00161767
0.0607843
0.00015432
0.000148249
0.000157616
0.0001519
0.0615348
0.000149893
0.000175559
0.0001457
0.000147858
0.000149738
0.000161407
0.0713739
0.000147668
0.0348714
0.000149081
0.000144775
0.000150679
0.019861
0.000151068
0.000161386
0.0754882
0.000149891
0.000148818
0.0144947
0.000147479
0.00352121
0.000148471
0.000160003
0.0313325
0.000150629
0.000148511
0.000146832
0.0192932
0.000155696
0.000147213
0.000205435
0.000147585
0.000150473
0.000176856
0.0521847
0.000178202
0.0658027
0.000759452
0.000166991
0.00015125
0.00017632
0.000197505
0.000147883
0.00014744
0.000150221
0.000156716
0.000166974
0.000147781
0.000153457
0.000147203
0.000147579
0.0571798
0.000149458
0.0318662
0.000145445
0.000161108
0.000176217
0.000146617
0.000144733
0.0578956
0.0747659
0.000170976
0.000148393
0.00015326
0.000172655
0.000146396
0.000162107
0.000180618
0.000164775
0.000160554
0.0298791
0.038957
0.000144812
0.000148784
0.000145523
0.000149231
0.000151053
0.00015731
0.0115852
0.00014869
0.000147682
0.000168425
0.0323264
0.00014554
0.000243985
0.000146246
0.000186194
0.000172499
0.0684822
0.000178238
0.000163668
0.000163974
0.000145341
0.000144636
0.000197504
0.00015381
0.000148442
0.000254112
0.00014703
0.000148425
0.000145469
0.000168919
0.00018041
0.000226488
0.00017271
0.000157433
0.000157188
0.000149014
0.0513411
0.000210409
0.000150589
0.000147714
0.000146977
0.000184787
0.0746491
0.000159762
0.0452094
0.000150404
0.000146817
0.0426336
0.000147928
0.0711336
0.0150168
0.000146652
0.000157533
0.000189778
0.000152217
0.000159572
0.000147224
0.0563405
0.000155551
0.000175114
0.0124424
0.0025871
0.000157113
0.000158014
0.000148799
0.000182041
0.0644232
0.000151412
0.000152405
0.0553187
0.000162818
0.000165866
0.00014974
0.0031304
0.0159342
0.000168435
0.000148013
0.000155753
0.000147138
0.000342149
0.000176862
0.000160743
0.00524679
0.0426758
0.000145478
0.000188395
0.00014854
0.000560097
0.000168559
0.000156433
0.000154677
0.000256721
0.000143783
0.000176274
0.015429
0.0667358
0.00015053
0.000148039
0.000146467
0.000169281
0.000292398
0.00018841
0.0649593
0.000185833
0.000164011
0.000147503
0.0523497
0.000178634
0.0001562
0.000177365
0.00683718
0.0363491
0.0243205
0.0383864
0.0424435
0.0241342
0.000148349
0.000156121
0.000160141
0.000148917
0.043772
0.000249377
0.000147956
0.0156208
0.000148752
0.000147828
0.000146322
0.000159173
0.000147055
0.0448489
0.000164278
0.000214106
0.000147797
0.000225965
0.000162583
0.000222847
0.0201088
0.000150851
0.000156829
0.000161054
0.000165167
0.000147023
0.000146497
0.000147116
0.0393995
0.000146473
0.000146981
0.000210127
0.00015181
0.0577354
0.000148146
0.0708472
0.000147633
0.000148251
0.000147971
0.000148098
0.000156607
0.00015268
0.0696939
0.000157455
0.000164164
0.0775072
0.000147175
0.0826859
0.000146677
0.0782015
0.00384341
0.0708768
0.000175133
0.000148035
0.000149801
0.0645007
0.000149144
0.00015575
0.000148619
0.000158831
0.0779012
0.000147017
0.000146929
0.000147437
0.000149746
0.00358282
0.0214222
0.00014727
0.000144069
0.0497027
0.062697
0.000147058
0.0394573
0.000149742
0.0807898
0.0696856
0.000177864
0.000193799
0.000216064
0.000167611
0.0360987
0.000181635
0.000148141
0.000145084
0.000146446
0.0829462
0.0378037
0.000150484
0.000155708
0.0375841
0.000147123
0.0287263
0.000147913
0.000148739
0.000145899
0.000449772
0.000179559
0.000146819
0.0480755
0.000149657
0.000150168
0.0675759
0.000146669
0.000148625
0.00018468
0.000147639
0.000149339
0.000146685
0.0713534
0.000157908
0.00014804
0.00014876
0.0783101
0.000147961
0.000162024
0.000147746
0.0634091
0.000148549
0.000171982
0.000161918
0.0488884
0.0107864
0.000158643
0.000182407
0.000172163
0.000148358
0.000169479
0.0639084
0.00014693
0.000178996
0.000146396
0.000225018
0.000147298
0.0724346
0.0814825
0.000170047
0.0356272
0.0498502
0.000160456
0.000150461
0.000303442
0.000147333
0.0695127
0.00015348
0.000264061
0.000147493
0.000158382
0.000165866
0.000157042
0.000148595
0.000147924
0.000149239
0.0139194
0.000175347
0.0400837
0.0548103
0.00015524
0.000145592
0.000164445
0.0101367
0.000158665
0.000147104
0.000148392
0.00134953
0.000385618
0.00666328
0.0283637
0.000162426
0.000149039
0.000146469
0.000170218
0.000167876
0.000242344
0.000147834
0.00014832
0.0109639
0.000173368
0.000149894
0.000175568
0.000248055
0.000182462
0.000146576
0.000162895
0.000225777
0.000277148
0.0297465
0.000198813
0.000147463
0.000149778
0.000150665
0.000149891
0.000148062
0.000148473
0.000158819
0.000178532
0.000161094
0.000157182
0.000156548
0.000149179
0.000154173
0.000150542
0.000159664
0.000158402
0.000147199
0.00015641
0.000147658
0.000146734
0.000149483
0.000148697
0.000202817
0.000145692
0.00016724
0.00024035
0.0002244
0.0747695
0.0378594
0.000153697
0.000149534
0.000147228
0.0753822
0.000148784
0.000144451
0.000149081
0.055768
0.000157506
0.000160946
0.000222879
0.000151106
0.000148075
0.000157569
0.000147094
0.000162993
0.000149895
0.000159265
0.000146921
0.000147878
0.000150361
0.000151273
0.000154536
0.000237325
0.000164171
0.000173368
0.000171905
0.000188836
0.000164934
0.000173519
0.00014857
0.0326303
0.000152597
0.000154622
0.000147911
0.000150647
0.000174756
0.00014779
0.000167077
0.00620701
0.000156257
0.000185629
0.000177587
0.000164422
0.000168524
0.000165961
0.000147561
0.000156781
0.000148468
0.00017101
0.00016645
0.0754283
0.000146414
0.000166046
0.000154342
0.062247
0.000161832
0.000167877
0.000148518
0.000168178
0.000145046
0.000175376
0.000150047
0.073346
0.000145819
0.00015388
0.00014794
0.000160441
0.000190447
0.000158201
0.000775244
0.000148126
0.000160142
0.000166005
0.000147935
0.000370203
0.0822085
0.000190379
0.000173188
0.000167157
0.000147776
0.00014716
0.00362058
0.000175589
0.000146915
0.00015024
0.000153081
0.000147698
0.000206888
0.000146902
0.0813873
0.000184747
0.000189287
0.000161379
0.000149172
0.000145794
0.000147507
0.000180743
0.000167211
0.000154544
0.0318301
0.000149078
0.000150725
0.00015502
0.048449
0.000145321
0.000186941
0.000143771
0.0727622
0.000147229
0.000147329
0.000159655
0.000147706
0.000148896
0.000186247
0.000148497
0.000149075
0.000147171
0.000165177
0.000153861
0.0462429
0.000147828
0.000148551
0.00014677
0.000186731
0.000146663
0.000155896
0.000166203
0.0648496
0.00799134
0.000518868
0.000211559
0.000208998
0.000164248
0.000165493
0.00015498
0.000149648
0.000148697
0.0816526
0.000164534
0.000144793
0.000147611
0.000147501
0.000156726
0.00017182
0.000149649
0.000156754
0.000184683
0.000192194
0.000173447
0.000147611
0.00014955
0.0634119
0.000152299
0.000146064
0.0724782
0.0103403
0.000146192
0.000144274
0.000154844
0.000148219
0.000159669
0.000149627
0.00529479
0.000149801
0.046508
0.000147975
0.0129771
0.000157754
0.000147952
0.000175704
0.000145589
0.000148805
0.000149745
0.000160001
0.000222025
0.000147417
0.000191096
0.000149896
0.000149268
0.000170263
0.000147347
0.000148747
0.000148556
0.000144441
0.000148006
0.000145113
0.000149023
0.000123095
0.000146967
0.000147082
0.000165246
0.000145769
0.000147518
0.000149031
0.000148722
0.044639
0.000188495
0.000148184
0.000151183
0.000148259
0.000149895
0.000198899
0.000148214
0.0001477
0.00973382
0.000147581
0.000167427
0.000174078
0.000160567
0.000147979
0.000196113
0.000147772
0.000208883
0.000165411
0.000148066
0.00506149
0.0373433
0.00015562
0.000171707
0.000147296
0.000147426
0.000162216
0.000197588
0.000147061
0.000146836
0.000148815
0.00016399
0.000148559
0.000160513
0.000148615
0.000166935
0.000232674
0.000161142
0.000198225
0.000147337
0.000154886
0.000157402
0.000162293
0.000145984
0.000147698
0.000150288
0.000161047
0.00016646
0.000149216
0.000185943
0.000148437
0.0777475
0.000144873
0.000146437
0.000174284
0.000149795
0.000178275
0.000183507
0.000161285
0.000148693
0.000150293
0.000148339
0.00016155
0.000148511
0.000163624
0.000154933
0.000148694
0.000146166
0.000155287
0.043627
0.000158964
0.000163868
0.0701413
0.00219536
0.000161552
0.000145042
0.0747417
0.000147931
0.000151878
0.000149402
0.000184172
0.000147956
0.000160056
0.000155432
0.000151347
0.000148698
0.000153667
0.000149271
0.000173613
0.000147438
0.000149166
0.00014797
0.000156541
0.000179345
0.000148099
0.0184296
0.000167385
0.000144373
0.0380115
0.000217737
0.000147947
0.00015139
0.000183659
0.000146828
0.000147597
0.0679246