/*--------------------------------*- C++ -*----------------------------------*\
| =========                 |                                                 |
| \\      /  F ield         | OpenFOAM: The Open Source CFD Toolbox           |
|  \\    /   O peration     | Version:  v2012                                 |
|   \\  /    A nd           | Website:  www.openfoam.com                      |
|    \\/     M anipulation  |                                                 |
\*---------------------------------------------------------------------------*/
FoamFile
{
    version     2.0;
    format      ascii;
    class       surfaceScalarField;
    location    "200";
    object      phi;
}
// * * * * * * * * * * * * * * * * * * * * * * * * * * * * * * * * * * * * * //

dimensions      [0 3 -1 0 0 0 0];
oriented        oriented;


internalField   nonuniform List<scalar> 
14907
(
-0.448762
0.311431
0.13734
-0.581162
0.366081
0.2151
-0.223992
-0.022446
0.24639
0.588542
-0.588145
-0.0921585
0.0518399
0.0403183
0.423082
-0.530168
0.107034
0.136456
-0.0668519
-0.069603
0.141349
-0.1458
0.00445031
0.39919
-0.22612
-0.173015
-0.377097
-0.101118
0.478233
-0.0099537
-0.00134016
0.0112939
0.0658966
0.523118
0.351464
-0.612006
0.260697
0.644442
-0.343475
-0.300921
0.231113
-0.121984
-0.10914
0.543069
-0.358862
-0.18407
0.304733
0.238466
-0.291719
-0.299649
0.591352
-0.253276
-0.195463
-0.0130535
0.0727727
-0.05972
-0.393512
-0.135928
0.52989
0.106701
0.044598
-0.151299
0.394898
-0.623595
0.228901
-0.546269
0.288708
0.257487
-0.34058
-0.240575
-0.255416
0.136471
0.118943
0.630415
-0.365093
-0.265235
0.265977
-0.148518
-0.117477
0.395432
-0.198253
-0.197126
-0.300361
0.196501
0.103836
-0.177673
0.410877
-0.233203
0.00035862
0.0077615
-0.00812014
0.207616
-0.584793
0.122041
0.128931
-0.250988
-0.100635
0.23088
-0.13027
-0.310252
-0.236111
-0.290418
0.154119
0.136298
0.0827582
0.121744
-0.204495
-0.57998
0.269942
-0.0965338
0.149136
-0.0526168
0.0364856
-0.0495394
-0.229975
0.130184
0.0997768
0.0898671
0.0465902
-0.142142
0.285679
-0.143581
-0.0569737
-0.035185
-0.142816
0.224162
-0.0813483
-0.279345
0.206125
0.0731921
-0.102056
-0.075239
0.177299
-0.0587268
-0.147013
0.205726
-0.166955
0.26056
-0.093601
-0.583092
0.116261
0.466965
-0.0765313
-0.196708
-0.0314651
0.163157
-0.131716
0.372045
-0.262793
-0.109273
-0.110295
-0.180126
0.434392
-0.0112718
0.304391
0.091092
-0.167955
-0.111429
0.274208
-0.152194
-0.178565
0.147066
0.292519
-0.494363
0.201866
0.309662
0.136074
-0.445654
-0.220841
0.120183
0.0850809
-0.309122
-0.268932
0.212321
0.0566056
-0.138532
-0.116651
0.255158
-0.0829455
0.232617
-0.149686
0.0879504
-0.0809551
-0.00699639
0.00360013
-0.00188086
-0.00171937
-0.168008
0.349591
-0.181574
0.218851
0.153179
0.0630337
0.141384
-0.283565
0.132993
-0.1569
0.0239049
0.184398
0.0805358
-0.264979
0.495496
-0.207042
-0.00510143
0.0569412
0.415621
-0.213124
-0.202472
0.167102
-0.0954
-0.0717104
-0.0564356
0.113942
-0.0575048
-0.18106
0.122328
-0.120986
0.0640116
-0.127824
-0.144645
0.272423
0.242708
-0.124968
-0.117751
-0.255156
0.172186
0.520153
0.0847108
-0.604868
0.0858343
-0.288764
0.202894
0.00219385
-0.106527
0.104332
-0.326461
0.108083
0.218334
0.351903
-0.266073
-0.147212
0.275328
-0.128124
-0.0679719
-0.0530141
0.18541
0.0805496
-0.285938
-0.161756
-0.13863
0.133025
-0.284006
0.150988
0.486825
-0.191434
-0.295374
0.167159
0.153068
-0.320218
-0.195572
0.0990192
-0.398538
0.1304
0.268192
0.395946
0.201068
0.105065
-0.128494
0.0234241
-0.141155
0.0669857
0.0741681
0.546958
-0.0269159
0.258895
-0.144951
-0.113953
-0.129382
0.133048
-0.00366951
-0.390625
0.312842
0.0777315
0.151581
0.335254
-0.589487
0.196412
-0.238309
-0.27012
0.572686
-0.30271
-0.269687
-0.467206
0.321947
0.145318
0.222333
-0.129188
-0.0931701
-0.00183725
0.00543733
-0.205739
-0.0632001
-0.246461
0.438632
-0.19212
0.267099
-0.351422
0.0843185
0.162364
0.296684
-0.163646
0.000163339
-0.00242318
0.00225975
-0.126577
-0.199944
0.0834312
0.0579168
-0.141735
0.285059
-0.143346
0.196774
0.181845
-0.378609
0.142262
-0.0372014
-0.26742
0.139569
-0.106559
-0.0392421
-0.221941
0.177829
0.0440946
-0.018117
-0.111268
-0.156822
0.370799
-0.213948
0.0483666
0.118728
-0.366906
0.212733
0.154158
0.00188998
-0.0097995
0.00790949
-0.16481
0.081717
0.0830888
-0.219542
-0.178941
-0.0901644
-0.0681794
0.158337
-0.00588837
-0.00181991
0.00770823
0.130804
-0.278046
0.0617142
-0.163769
0.0981086
-0.095916
0.14341
-0.253442
0.110005
0.0157108
0.251378
-0.130978
0.249159
-0.118205
0.123259
-0.105962
-0.0173009
-0.235155
0.352363
-0.117242
-0.275581
-0.19158
0.141467
-0.0224895
-0.118986
0.445691
-0.225357
-0.220279
0.31355
-0.146371
0.235697
-0.12813
-0.107582
-0.363011
0.157453
0.205584
-0.00858884
0.529179
-0.520625
0.0605963
-0.0392407
-0.021355
3.74875e-05
-0.00292246
0.00288489
0.582043
-0.302303
-0.279457
-0.197547
0.549096
0.245396
-0.118069
-0.127342
-0.0443134
0.354055
-0.138338
0.0481683
0.00454195
-0.00727856
0.00273657
0.0140052
-0.00509979
-0.00890544
-0.174451
0.0809353
0.0935101
-0.131726
-0.220236
0.351958
-0.195206
-0.16778
-0.14551
-0.13048
0.275945
-0.187437
-0.179487
-0.112147
0.000783495
0.111362
0.0261454
-0.0216035
0.00911917
-0.00784308
-0.000647501
0.000684899
0.128327
0.1584
-0.286747
-0.463363
0.290192
0.173054
0.0106906
-0.0786629
0.0718792
-0.0662137
-0.00566627
0.0267985
0.0921001
-0.118903
0.119636
-0.0748468
-0.0447839
-0.00827328
0.0089715
-0.000698231
0.281023
-0.147688
-0.13337
0.0651202
0.0228291
0.110484
0.0797802
-0.190278
0.11247
0.132912
0.00572778
-0.00536918
-0.0964796
-0.155588
0.252024
-0.0940125
-0.12795
-0.123597
-0.106394
-0.00109443
0.00125767
-0.0959122
0.129676
-0.0337666
0.261987
-0.110201
-0.151801
-0.000679049
0.00945403
-0.008775
-0.106119
-0.13289
0.239006
0.0605842
0.0173756
-0.0779599
-0.263029
0.132018
0.0255583
0.0350386
-0.0880269
0.0987169
0.160215
-0.0281729
-0.132045
-0.00414028
0.0820618
-0.0779221
-0.126127
-0.101689
0.227814
-0.213111
0.390314
-0.177248
0.363437
-0.560877
-0.290644
0.210104
0.0805239
0.013908
0.106047
-0.11996
0.2535
0.00847909
-0.0940956
0.324395
-0.230288
0.00940934
0.0624692
0.13612
-0.406647
0.449507
-0.0427446
0.00362193
0.0569623
0.410249
0.144439
-0.554367
-0.2992
-0.291277
0.590401
-0.530264
-0.00740077
0.537229
-0.10063
0.0964893
-0.615418
0.604949
0.011037
-0.112143
-5.92862e-06
0.0901235
-0.0985692
0.00844535
-0.255785
0.137698
0.0322066
-0.12812
-0.115669
0.300442
-0.184827
-0.314398
-0.148817
0.463105
-0.178508
0.141742
0.0367607
0.47912
-0.210175
-0.268912
0.139142
0.0831666
0.237547
-0.113715
-0.123846
0.0174838
-0.106375
0.0888907
-0.107068
0.189836
-0.194653
0.154168
0.0404673
-0.218916
0.113764
0.105152
0.164426
-0.0892705
-0.0751567
0.45824
-0.249707
-0.208463
0.13068
-0.00710847
-0.123576
0.365249
-0.146411
0.204035
-0.0616459
-0.0052813
0.0669266
-0.269989
-0.193484
0.205348
0.159885
0.190233
-0.21273
0.174868
0.0608151
-0.183086
-0.202476
0.385696
-0.731848
0.478991
0.253107
-0.0966052
0.240135
-0.143535
0.28447
-0.157355
-0.127104
0.230729
-0.362447
0.139259
0.137853
-0.2834
-0.229245
0.100028
-0.389577
0.143222
-0.416901
0.239209
0.556226
-0.0021792
-0.553906
0.10763
0.151256
0.0843162
-0.268889
0.184539
-0.69299
0.401257
-0.32546
-0.215713
0.54156
-0.343483
0.175489
-0.134541
-0.0586389
0.193152
-0.0701805
0.0876639
-0.0962392
-0.0782155
-0.0105056
0.00982656
0.115069
-0.0882735
0.0251544
0.0937445
-0.118904
0.0772599
0.153843
-0.0240371
0.190461
-0.166424
-0.159093
0.124856
0.0342392
-0.273915
0.177298
-0.232253
-0.15843
-0.395719
-0.335909
-0.1589
-0.131765
-0.379078
0.1961
-0.0741567
0.180859
0.255488
-0.054853
-0.200654
0.195073
-0.521402
-0.00933063
-0.0933252
0.107229
-0.17849
0.0949344
-0.00481129
0.117251
-0.0211892
-0.0903552
0.111543
-0.216015
0.109897
0.169978
0.114505
0.201792
0.193679
-0.395371
-0.00363843
0.135397
-0.131784
0.0513348
-0.286523
0.176646
-0.0661783
0.257061
0.00655
-0.263649
-0.101299
0.00727806
-0.00538813
-0.000683903
-0.405907
-0.376151
0.240178
0.135947
-0.099679
-0.0594114
-0.166858
0.191867
-0.302112
0.185972
0.265679
-0.451706
0.0988273
-0.233397
0.077481
0.0421606
0.047972
-0.159572
0.111588
0.123344
-8.86264e-05
0.00776988
-0.590783
-0.177913
0.541478
0.182715
0.107816
-0.333887
0.0836849
0.0807396
-0.364245
0.240601
0.123647
-0.122946
0.415577
-0.328086
0.4004
-0.0723059
-0.315435
0.19972
-0.231248
0.135279
0.0959774
-0.12699
0.187645
-0.0606663
0.023319
-0.11327
0.0899493
-0.0241337
-0.0379712
0.0621044
-0.0629148
-0.115686
0.0190031
0.069971
-0.0889749
0.228616
-0.406407
0.17795
0.159398
-0.163044
0.255811
0.374681
0.0145838
-0.0148065
-0.108366
0.13602
-0.0276575
0.0158738
-0.0990924
0.0832178
-0.0046181
-0.179113
-0.289898
0.468895
0.222035
0.0334338
0.127357
0.222242
0.0984716
0.102962
-0.201456
-0.0824458
0.644589
-0.34452
-0.30002
-0.211213
0.138514
0.0726888
0.393306
0.179668
-0.585048
0.6015
-0.0162847
0.13796
-0.0818593
0.105177
0.58782
-0.346466
-0.241242
0.148912
-0.281826
0.30499
-0.162285
-0.142738
-0.209742
0.082734
0.00358006
-0.00694868
0.00336859
-0.160858
0.260603
0.321705
-0.344025
-0.228476
0.572609
-0.221187
0.306221
0.0940107
0.0650613
-0.159083
0.133085
0.0271275
-0.0227436
0.116485
0.00342023
0.0974586
-0.10088
-0.176197
-0.0550411
-0.231171
0.137137
0.117522
0.248779
-0.142552
0.275628
-0.133075
-0.596014
0.296309
0.127857
-0.0315008
-0.0963575
-0.0029165
0.259948
0.135658
-0.0772274
-0.103253
0.180474
0.22786
-0.032996
-0.121839
0.154815
0.119102
0.103604
-0.18083
-0.131624
0.252921
-0.121329
-0.129021
-0.0656544
0.119509
-0.13763
-0.124166
-0.0870591
-0.0683201
0.22838
-0.160091
-0.387451
0.219772
0.167653
0.0798969
-0.0764775
0.128443
0.0130164
0.00902313
0.190364
-0.199399
0.167016
-0.0730169
0.137585
-0.364635
0.226916
0.176684
-0.446699
0.395164
-0.257682
-0.155429
0.122417
0.0177504
0.0892703
-0.107022
-0.152502
0.242403
-0.0899169
-0.601967
0.340874
0.261049
-0.18622
0.123281
0.300917
0.296098
0.336805
0.251121
0.00655826
0.169731
-0.382871
0.189934
-0.413918
0.224127
0.00240439
-0.00829281
-0.194458
-0.265825
0.46031
-0.148632
0.064633
0.0839978
0.0921068
0.0357494
0.112523
0.0204661
-0.0984079
0.0701562
0.0282571
-0.0100826
-0.10612
0.187381
-0.0812755
-0.0796857
0.018039
0.331795
-0.572627
0.241067
0.0290792
-0.196028
0.324865
0.27215
0.291326
-0.16697
-0.124389
0.206542
-0.0783131
-0.128224
-0.63859
0.22932
0.409304
0.207056
-0.108601
-0.0251692
0.0830076
-0.15174
0.546913
0.368418
-0.50383
0.0755959
-0.0875859
0.0119879
-0.0375284
0.0549039
0.147223
-0.263881
-0.214125
0.41495
-0.20081
0.00186434
0.00725481
0.0338928
-0.13953
0.429545
-0.0140524
-0.0669035
0.00238409
0.345924
0.133247
-0.317972
-0.284048
-0.448443
0.237906
0.21064
-0.171521
0.365514
-0.193901
-0.563104
-0.0216523
-0.364528
0.363877
0.0988991
-0.0577251
0.123338
-0.0263673
0.0879336
-0.0615668
-0.582015
0.238859
-0.18389
-0.180348
-0.0774592
-0.0330732
0.110531
-0.247822
0.29547
-0.0477202
-0.0816467
-0.0974035
0.145364
0.097407
-0.222383
-0.222292
-0.162481
0.384754
-0.423321
0.209177
0.0944463
-0.101948
0.00750093
-0.140588
0.0802377
-0.186373
-0.12122
0.255525
-0.134325
0.000825878
-0.0107796
-0.130163
-0.12564
-0.0721539
0.102414
-0.224414
-0.272863
-0.198986
0.471828
0.188969
0.122654
-0.0399836
-0.0826715
-0.185884
0.46327
-0.277387
0.135045
0.0562228
-0.191269
0.192214
-0.312619
0.120424
0.159037
-0.290667
-0.00706121
-0.000217387
-0.0930878
0.226282
-0.133185
-0.09597
-0.18694
0.282945
0.00749084
0.543937
-0.551087
-0.0133931
0.00465797
0.00873514
-0.169613
0.37359
-0.203886
-0.191771
0.0986877
0.258579
-0.15
-0.10859
-0.177175
-0.0990326
0.0726651
-0.0209219
-0.514919
0.41462
0.100477
-0.0293043
-0.176441
0.0823898
-0.234902
-0.502959
-0.500012
0.204821
0.295358
0.175723
-0.387444
-0.00457931
0.0110936
-0.00651436
0.187082
-0.395657
-0.468637
-0.146324
0.0776041
-0.159318
0.0817092
-0.0760778
0.150245
0.158697
-0.00780579
-0.150899
-0.593184
0.293905
-0.105482
0.185247
-0.00161304
0.236511
-0.101222
-0.358515
0.180481
0.178044
-0.191337
-0.196141
-0.0980022
-0.0668113
0.209524
-0.20052
0.197119
-0.469919
-0.0755154
0.167885
-0.0923806
-0.253712
0.361547
0.0633503
-0.427891
0.171521
0.066014
-0.228778
0.432592
-0.203724
-0.12445
0.0349686
0.0894766
0.227429
0.0853646
0.264345
-0.45024
0.0113546
-0.0126947
0.538119
-0.260556
-0.277542
-0.136456
0.294822
-0.586057
0.19498
0.391033
-0.276027
0.154774
0.198649
-0.0601461
-0.356986
-0.157717
0.141734
-0.362937
-0.0813428
0.0834442
0.182269
-0.265734
0.0880429
-0.0820003
-0.00604248
-0.116137
-0.157792
-0.297045
-0.398409
0.599532
-0.134214
0.031632
0.102579
0.165262
-0.309923
0.144572
-0.310747
0.214789
0.228751
-0.585316
0.356917
-0.308281
0.146891
0.161393
-0.00661101
0.122543
-0.11594
0.0691794
-0.125614
0.201215
-0.132803
0.00834567
0.0285132
0.124002
0.112517
-0.32967
-0.263135
0.592735
-0.200033
-0.166868
0.366927
-0.165895
0.324285
-0.158447
-0.444529
0.529246
0.382796
-0.190507
-0.192157
-0.00249972
0.0048888
-0.00926924
0.00744931
-0.374197
-0.264359
0.0502069
0.127606
0.00670292
-0.159099
0.1524
-0.160851
0.167567
0.253764
-0.0693902
-0.312537
-0.280696
0.593496
-0.0775433
-0.0668182
0.14436
-0.00774054
0.102186
-0.0494467
0.217686
-0.439897
-0.32605
0.160105
-0.337542
0.0896379
0.249818
-0.444315
0.00147414
-0.00426666
0.00279244
-0.0878578
-0.0878232
0.175668
-0.117916
-0.148672
-0.19111
0.339816
-0.301416
-0.262278
0.563988
0.255799
0.0683154
-0.324167
-0.153622
0.100162
0.132158
-0.497332
-0.0131147
0.00853535
0.028661
-0.0661895
-0.0204706
-0.0623877
0.082858
0.0818039
0.0512411
-0.195111
-0.357904
0.1384
0.235076
-0.12458
-0.110489
-0.111308
-0.0638119
0.175109
0.00477645
-0.00362192
-0.00115464
0.00569012
0.0204552
0.20652
-0.121615
-0.0849239
0.171837
0.440385
0.135944
-0.576338
-0.102275
0.251175
-0.194226
0.164899
0.536744
-0.0964194
0.00196567
0.0120395
0.441822
0.114483
-0.191558
-0.214692
-0.21319
0.1158
0.0973883
0.127643
-0.572065
0.194528
-0.0571738
-0.137351
-0.266701
0.150551
0.0785064
0.0558091
-0.134321
-0.0903319
-0.0883459
0.178664
-0.508242
0.500854
-0.0982138
-0.149385
0.247592
0.106052
0.124806
-0.147174
-0.0348145
0.130549
-0.0487502
0.00104122
-0.088379
0.0873367
-0.282122
0.606671
0.133637
0.126926
-0.262664
0.14641
0.116219
-0.0660051
-0.218
-0.28046
-0.286117
0.566511
-0.268489
0.125922
0.285222
0.151532
-0.436729
0.0774811
0.0367623
0.121929
0.049263
0.0672732
-0.11654
-0.579124
0.350867
0.228157
-0.132133
0.215558
0.534665
-0.30566
-0.136427
-0.177471
0.313877
-0.0597315
-0.0199549
0.306641
0.227275
-0.533647
0.254462
-0.126557
-0.127916
0.130709
-0.0861105
0.192919
-0.42159
-0.133806
0.23357
-0.182658
-0.0509058
-0.230937
-0.00130988
0.00186123
-0.000551435
-0.0697098
0.192268
-0.122566
-0.56345
0.319405
0.244224
-0.0361066
-0.0745636
0.110669
0.0103299
-0.206714
0.19634
-0.596858
0.305474
0.15736
-0.310027
0.152651
-0.185937
0.375952
-0.189969
0.33677
0.260245
-0.240554
0.109677
0.130868
0.032001
0.223763
-0.0342816
0.0629425
-0.0986381
0.242027
0.183795
-0.383777
0.148765
-0.297201
0.148433
0.158888
0.0397492
-0.10293
-0.0901008
0.193022
-0.184851
0.381651
0.106627
-0.23639
0.129768
-0.175476
-0.182394
-0.0922419
0.213998
0.321687
-0.152756
-0.168945
-0.180359
0.09001
0.40266
-0.212578
0.240334
-0.107059
0.189417
0.239845
-0.42927
-0.178208
-0.222914
0.401052
-0.0163246
0.0588941
-0.0425699
-0.260573
-0.187769
-0.0775094
0.0177766
0.387076
-0.211347
0.138151
0.135933
-0.274069
0.549181
-0.307619
-0.241415
0.227944
-0.12824
-0.0997032
-0.297275
-0.288825
-0.179248
0.109531
-0.136857
0.328698
0.0691648
-0.105273
-0.21608
0.55289
0.14484
-0.0549709
0.283965
0.161771
-0.134398
-0.0753624
0.470391
0.172177
-0.642327
0.196712
0.103677
-0.039037
-0.325724
-0.163416
-0.0771484
-0.415772
0.231845
0.18394
-0.0596593
0.0199623
0.0283855
-0.0483479
0.0967376
0.0977942
-0.227923
0.191094
0.0368326
0.0995675
-0.122318
-0.142143
0.343666
-0.201534
-0.0554617
-0.0770922
0.13255
0.104621
0.119538
0.508911
-0.301235
-0.156188
0.0806637
-0.0850016
0.0860417
-0.00230568
0.00708201
0.0672034
0.105236
-0.0216199
-0.0836164
-0.125139
-0.139034
-0.129615
0.268633
0.351478
0.293162
0.24473
-0.085343
-0.197641
-0.0183775
-0.187805
-0.00636469
0.194207
0.31619
-0.111106
-0.119811
0.230881
0.0148189
-0.111062
0.511704
-0.520321
-0.293206
0.156776
-0.137949
0.244578
-0.0070507
0.0337333
-0.0266829
-0.223067
0.0886473
0.0984198
-0.203916
0.12456
0.110523
-0.0329104
-0.475432
0.0470912
0.512399
-0.27412
-0.23829
-0.176356
-0.237748
0.414031
0.2156
-0.0191082
0.0628785
-0.316579
0.00269253
0.0118912
0.182249
-0.0800459
-0.102201
0.0127889
-0.0198399
-0.630831
0.259514
0.371568
0.0525113
-0.0932594
0.0407477
0.000244875
-0.0026647
0.00241976
0.137887
-0.0457812
-0.00966632
-0.178101
0.158008
0.0324517
-0.0101961
0.140872
-0.0559958
0.134568
-0.0785758
-0.300698
0.138365
0.29804
-0.105787
0.0724763
0.0155953
-0.0143674
-0.197739
-0.153398
0.351122
-0.0774112
0.155009
0.0491203
0.0147787
-0.0638991
-0.352093
0.273666
0.0783719
0.255026
0.178463
-0.433541
-0.257708
0.191697
-0.249765
0.131554
0.11819
-0.326991
0.287857
-0.0344806
0.221553
-0.187107
-0.0861241
-0.0480922
-0.0357016
0.117763
0.218413
-0.547224
0.232692
-0.0108814
0.0010819
0.0177423
-0.037349
0.0196067
0.182246
-0.181521
-0.176983
-0.396226
0.5126
0.202152
-0.112814
0.0353539
0.0876258
0.094624
-0.0529897
-0.0455798
-0.243602
-0.178761
0.433687
0.18554
-0.35956
0.174071
-0.267665
-0.226683
0.100516
-0.213724
0.113212
-0.22352
0.0372766
-0.0486648
0.0245308
0.264338
-0.50667
0.242417
-0.594054
0.259861
0.334053
-0.169044
0.154222
0.014817
0.154455
-0.352133
0.136254
-0.209938
0.0736965
-0.0650509
0.0882507
-0.0232009
0.168489
-0.266708
-0.0140853
-0.0297916
0.0438768
0.0206335
-0.00784479
-0.272991
0.133935
0.191367
0.085885
0.0400886
-0.125974
-0.0102613
0.0169514
-0.00669012
0.0562044
-0.150003
0.0937966
0.200518
-0.149313
0.0427532
-0.00814114
0.0616798
-0.0535394
0.0927095
0.0750335
-0.167748
-0.159709
-0.14104
-0.55772
0.21377
-0.282431
0.0935213
0.00141281
-0.211877
-0.016042
0.0690678
0.00479112
-0.0738602
-0.591568
0.26185
-0.0013462
0.00492625
-0.0213645
0.110634
0.196958
-0.363786
0.248425
0.162861
-0.411289
-0.000397915
0.036891
0.373572
0.19331
0.355982
0.20739
-0.109947
-0.0974613
-0.000809731
0.00111191
-0.000302233
0.00917316
-0.0115909
0.0024176
0.0641305
-0.0804555
0.16278
-0.299267
0.191814
-0.134688
-0.0571321
-0.150492
0.0944937
-0.436672
-0.143126
0.167893
-0.468959
-0.584435
0.282269
0.0941587
-0.000637901
0.384931
0.240404
-0.625323
0.370699
-0.186879
0.137203
0.0546049
-0.174644
-0.123895
-0.0546185
0.284272
0.258941
-0.542995
0.265452
-0.491953
0.226736
0.401119
-0.326284
-0.25295
0.14871
-0.0669977
-0.155329
0.540387
-0.186126
-0.157343
0.0704114
0.109161
-0.179581
-0.10702
-0.00512491
0.00523155
-0.0542523
0.0490205
0.407044
0.198883
-0.605683
-0.157167
0.108317
0.0488475
0.0241733
-0.00643061
0.0520877
0.0359554
-0.130222
0.227615
0.00840591
-0.0146661
0.00626016
-0.00133346
-0.124729
-0.193017
-0.418854
-0.127004
-0.126463
0.220699
-0.105918
-0.114788
-0.00562916
0.00934385
-0.00371499
0.0996699
-0.563801
0.283372
0.42951
-0.584877
-0.0117906
0.0874838
-0.142949
-0.14595
0.308699
0.29283
0.270347
-0.563012
0.171233
0.173856
-0.345069
0.0981964
0.0688099
0.230518
-0.551403
0.00568724
0.545801
0.117503
-0.209727
-0.142159
-0.298066
-0.286227
-0.172812
0.374614
-0.201742
-0.0416328
-0.0245568
-0.209585
-0.16659
-0.259677
0.111145
0.395395
-0.279787
0.118001
0.125296
-0.0245147
-0.100785
0.534822
0.229396
-0.116162
-0.113266
-0.32662
0.438254
-0.111648
-0.225191
0.123514
-0.0619859
0.0453762
0.0166096
0.304716
0.292299
-0.0613325
0.0665636
-0.0743554
0.21348
0.0116121
-0.0108101
-0.000802105
-0.261302
-0.362127
0.141758
-0.0932445
0.210767
-0.091434
-0.065735
0.0845638
-0.00896988
-0.197758
-0.0257833
0.0900382
0.0151971
-0.0904464
-0.0805015
0.17095
-0.255553
0.0992163
0.156334
-0.0103521
0.554498
0.0445477
0.0933374
0.172583
0.292184
-0.464657
0.273947
-0.618541
-0.408098
0.212488
0.195692
0.61482
0.0649964
0.106296
-0.171303
0.383651
0.213364
0.250549
0.0184169
-0.083469
0.103338
-0.191696
-0.1542
-0.433742
-0.0476958
0.138887
-0.0911988
0.14231
-0.256042
0.0499619
-0.151369
0.249763
-0.0983925
-0.0612663
0.0269846
0.177401
0.188205
-0.108571
0.143686
0.0104614
-0.0459535
0.0354918
0.108483
-0.239011
0.130537
0.00137324
0.000100831
0.33626
-0.599384
-0.0481296
0.192854
-0.144716
0.498493
-0.567897
0.0695553
0.157738
-0.287367
-0.149913
0.31512
0.130135
-0.051636
0.025578
-0.108315
0.0827339
-0.230423
0.111386
0.119041
-0.010529
-0.28144
-0.326939
0.608424
-0.0660711
0.0519857
-0.273781
0.116439
0.16628
0.192551
-0.358776
-0.0925446
-0.0643581
-0.0257652
0.157154
-0.131395
0.00494089
0.0156924
-0.150094
0.398536
-0.107186
0.100567
-0.101445
-0.00557679
0.104452
-0.0345508
0.0838104
-0.292346
0.548623
-0.406113
-0.14232
-0.29997
-0.0964434
0.0667315
0.0297113
-0.40585
0.498966
-0.0933722
-0.402148
0.301051
0.22976
0.192949
-0.42257
0.15831
-0.460944
0.216846
-0.407098
0.258307
0.275027
-0.126288
0.208411
0.187862
-0.396149
0.476593
-0.250602
0.120421
0.083372
0.124
0.0984506
-0.146155
0.399947
-0.212869
0.015262
-0.00365007
0.315181
-0.134932
-0.18026
-0.0462465
0.0987574
0.132262
-0.0262194
-0.0018086
-0.000167948
0.0019765
-0.0348914
-0.110813
0.145691
0.180936
-0.229068
0.0112965
-0.00548383
-0.00581268
0.0821796
-0.185119
-0.0734604
0.095528
0.0120985
-0.107627
0.168663
-0.0704743
0.565446
-0.467691
-0.128254
-0.0988021
0.227032
0.0193308
-0.346682
0.0889851
0.000817543
-0.000879578
6.19764e-05
0.286676
-0.291584
0.00491735
0.0784593
-0.058497
0.0451629
-0.117111
-0.117085
-0.149631
-0.00398248
-0.00296623
0.144312
-0.19125
0.373135
0.507668
-0.0369856
-0.100877
-0.135508
0.43183
0.116996
0.16238
-0.474608
-0.0743052
-0.0640379
0.111665
0.0948808
0.169059
-0.495668
-0.184952
-0.161725
-0.116947
-0.133675
0.046564
0.0760898
0.0998802
-0.224455
0.171667
0.396608
-0.568368
0.161881
-0.236252
-0.10571
-0.0593321
0.165038
0.107752
0.147753
-0.211095
0.471346
-0.260246
-0.00155383
0.00237132
0.181476
-0.299129
0.117622
-0.00705632
0.247645
-0.0624492
-0.110612
0.209415
-0.17574
-0.139744
-0.00770467
0.00887875
0.0799515
-0.0309137
-0.0490341
0.0127345
-0.0108734
0.170127
-0.316922
0.146749
0.125635
0.103731
0.129015
-0.098896
-0.0301201
-0.178253
-0.299644
0.151003
0.587449
-0.138413
-0.0982749
0.236692
0.353585
-0.47636
0.454199
-0.169694
-0.140203
-0.0778698
-0.00971849
0.0123345
-0.0679209
0.055586
0.493729
-0.262624
-0.231113
0.309301
-0.133969
-0.175367
0.269344
-0.485965
0.0731712
-0.264236
0.122133
-0.255961
-0.232132
0.488383
0.114123
-0.124324
-0.11535
0.050036
-0.25881
0.208765
-0.391632
0.217499
0.174222
-0.229544
-0.183959
0.413595
-0.291021
-0.222024
0.513256
-0.146975
-0.0931915
0.240158
-0.00224291
0.00143311
0.2344
-0.115454
0.189617
0.389461
0.0928485
-0.0231166
0.0335779
-0.229072
-0.186686
0.221016
-0.511831
0.383354
-0.23393
0.0909573
-0.000919712
-0.0967817
0.558989
-0.551936
-0.00701717
-0.358907
-0.271712
-0.138342
0.112566
0.0941277
-0.00470695
-0.0894216
0.563797
-0.308991
-0.254872
0.62778
-0.355773
0.200327
-0.107932
-0.0924204
-0.153994
-0.136361
0.290393
-0.232602
0.125793
0.106799
-0.218585
0.157486
0.0610783
-0.145416
0.0753702
-0.16324
0.468845
-0.226963
-0.241934
-0.0376989
-0.138151
0.175833
-0.0283702
0.0929847
-0.0646149
0.151362
-0.0288253
0.0172927
-0.129408
0.112112
0.100788
-0.20718
0.106364
0.0975127
0.288446
-0.60642
0.166006
0.151954
-0.318006
-0.0998699
-0.125311
0.200202
-0.112574
0.153647
0.164139
-0.317867
-0.193074
0.336542
-0.143474
0.583363
-0.282924
-0.300141
0.280927
-0.142766
-0.00844274
-0.100942
0.0849344
0.016007
-0.174419
0.125723
0.0487012
0.148121
-0.265219
0.306451
0.101242
-0.17361
0.0723607
0.158878
-0.302483
-0.155961
0.205968
0.0757417
-0.153618
0.0778757
0.103291
-0.21393
0.157387
-0.294275
-0.377167
-0.0468003
-0.0496435
-0.0197086
-0.0809226
0.0244482
0.443539
-0.467722
0.140153
-0.270683
0.115426
-0.143601
0.34859
-0.163009
0.502031
-0.268233
-0.233626
0.351739
-0.0728358
0.188259
-0.059657
0.193354
-0.133732
-0.153309
-0.0793021
0.00460343
-0.00134561
-0.00325783
-0.141849
-0.134212
-0.311793
0.0148242
0.00934926
-0.257151
-0.219262
0.476342
-0.0685328
0.0808667
-0.532532
-0.0183619
0.551232
0.117248
0.0889719
0.0455935
0.290716
-0.276552
-0.0142091
0.397235
0.159508
-0.556754
-0.311591
0.16561
0.255532
-0.120763
-0.134781
0.0960622
-0.00510554
0.158021
-0.275791
0.568541
0.00872768
-0.0674313
0.0587031
0.0572347
0.0969188
0.0783203
-0.14514
-0.0110052
0.00673838
-0.0356773
0.155181
0.663352
-0.311835
0.0944246
-0.127499
0.166846
-0.318228
0.151397
0.0259065
0.079773
-0.10568
-0.232317
-0.142434
0.280244
0.52167
0.0837662
-0.00621891
-0.00717423
0.314267
0.349094
0.0474443
-0.266057
0.237445
0.124078
0.103867
0.0813587
0.106006
-0.158162
0.0943426
-0.262927
0.0468239
0.216091
-0.293451
0.106896
-0.141799
-0.194141
0.0918415
0.102277
-0.181994
0.428345
-0.246321
0.162304
-0.21757
0.0552544
-0.34642
0.162535
0.0201348
-0.0593748
0.0057242
-0.0132778
-0.392863
0.170247
0.00126768
-0.261765
-0.301508
-0.0575424
-0.116872
0.319339
-0.562153
0.242727
0.00112078
0.00348264
-0.21509
-0.348614
0.139026
0.125548
0.433424
0.0990627
-0.246048
0.110178
-0.243939
0.133762
-0.501213
-0.151622
0.652923
-0.135573
-0.255968
0.181983
-0.306557
-0.0925173
-0.0567967
-0.0718621
0.150287
-0.0784278
-0.14086
0.29231
-0.151431
0.229766
-0.121266
-0.245164
0.144294
-0.152402
0.0738231
0.30304
0.148931
-0.131164
-0.131534
-0.140637
0.297972
0.205638
-0.0613373
0.137896
-0.223564
0.0856733
0.00442454
-0.50558
-0.504288
0.247292
0.0925281
-0.171107
0.0785695
-0.348464
0.175719
0.0843247
-0.105516
-0.0841604
0.23055
-0.00903576
0.102589
-0.0935543
0.139251
0.123634
-0.262893
0.467565
0.137114
-0.330215
0.0695983
-0.193199
0.123607
-0.11272
-0.0563292
0.190807
-0.420226
0.129913
-0.0951005
-0.0750133
0.170111
-0.105563
-0.394073
0.124595
-0.556412
-0.0307242
0.587165
0.0133473
-0.0804092
0.0736796
0.00672918
-0.216337
0.0970098
0.11931
0.00212426
0.013471
-0.102948
-0.0788346
0.181781
-0.104785
0.205306
-0.151721
0.0460067
-0.0606671
-0.089827
-0.0707883
0.207059
0.00345339
-0.229438
0.0910264
-0.0583532
0.160328
-0.101982
0.132171
-0.286123
0.161194
-0.220886
-0.190513
0.343576
0.145933
0.0130709
-0.194134
-0.178672
0.375934
-0.197272
-0.0504776
0.0423359
0.237777
0.0773963
0.030755
0.259917
-0.0550937
0.0992815
-0.0441886
-0.372209
0.180857
-0.104201
0.199526
-0.0953315
-0.0809209
-0.216361
0.0882149
0.032781
0.253899
-0.0209233
-0.0809937
0.101915
-0.221813
0.106467
0.115354
-0.268028
-0.259531
0.527595
-0.0845691
0.198335
0.00811093
-0.00899059
-0.0886136
0.0953798
-0.00676942
-0.202056
-0.143024
-0.0864114
-0.212702
0.507072
-0.294178
-0.371714
0.325099
0.0466321
-0.0218919
0.120608
0.224042
0.238049
-0.50746
0.269452
-0.182728
0.0802962
0.102423
0.141934
0.149907
-0.29185
0.00175315
-0.169078
0.167322
-0.18779
0.354094
0.46925
-0.100264
0.0618214
0.0384447
-0.14151
-0.158103
-0.297176
0.360566
0.193761
-0.0358221
-0.15795
-0.145288
0.315385
0.398184
-0.114146
0.437281
0.0918937
-0.100525
-0.142849
0.261775
-0.118962
-0.264864
-0.329328
0.423012
-0.205288
0.0877683
0.0769879
-0.164756
-0.127693
-0.127864
0.104513
0.111209
-0.215746
-0.150245
-0.15645
0.306712
-0.0920211
-0.0579845
-0.108437
0.311241
-0.157668
-0.250854
0.129733
0.121105
0.440239
-0.174637
-0.248788
0.486785
-0.00681504
-0.0695984
-0.0983131
0.167905
-0.104436
-0.0897271
0.0675208
0.153172
0.0664777
0.0994093
-0.165894
-0.157922
0.0628173
0.158708
-0.0730153
-0.0857029
-0.0860508
-0.070146
0.0681359
-0.198377
0.0705822
-0.0214619
0.165014
-0.317768
0.140797
0.151604
-0.292458
-0.29311
0.520695
-0.516266
-0.0401449
-0.0507571
0.156669
-0.105919
-0.119947
-0.412258
-0.0731264
0.00414167
0.00666665
-0.0108083
0.126552
-0.0877377
-0.0388154
0.00117807
0.396057
0.0429383
0.150813
0.15708
-0.059209
-0.0978745
-0.209894
-0.238569
0.448441
0.0795383
-0.0747483
-0.0298901
0.123092
-0.0932042
0.0469826
-0.0869667
0.109564
0.0906399
-0.00124899
0.00259373
-0.00134479
-0.0675843
-0.0903411
0.102775
-0.0854815
-0.00645073
0.00082139
0.186502
-0.0831743
0.144578
-0.295957
0.147562
-0.0467975
-0.184378
0.36652
-0.182116
-0.00728193
0.016455
0.0934184
-0.233232
0.139804
0.068942
-0.151454
0.0825066
0.391746
-0.218452
-0.173309
0.0903566
0.396567
0.0991706
-0.495497
-0.000739782
-0.00781887
0.00855862
0.0195327
-0.0268148
0.31913
0.264341
-0.583317
-0.00502632
0.00968426
-0.114179
0.0888697
0.0253086
-0.0929863
-0.084587
0.177575
-0.102072
0.17827
-0.0762092
0.133931
-0.448441
0.151278
0.00496001
-0.00620907
0.290406
-0.131552
-0.0343993
0.120283
-0.00622821
0.0103699
0.232446
0.34096
-0.573262
-0.0366126
-0.22634
0.296268
0.232581
0.106771
0.0613126
-0.140624
0.0792995
0.078368
0.0703377
-0.567479
0.0327505
0.363971
-0.0621643
-0.155415
-0.145154
-0.129812
0.274949
0.00694913
0.491711
-0.200347
0.0809441
0.119384
-0.316653
0.244339
-0.467695
0.199978
-0.11014
0.0149189
0.120931
-0.135857
0.465269
0.123148
-0.0276206
0.304416
0.384457
0.209485
-0.5938
0.0899614
0.115665
-0.0464522
0.0996567
-0.0532061
-0.246
0.261705
-0.228352
0.421409
-0.105861
0.120677
0.112291
-0.0702919
-0.0420005
-0.32703
0.180875
0.146189
-0.0147764
0.176651
0.0881225
-0.107832
-0.0945872
-0.0058611
-0.000123075
0.00598414
0.224814
0.0910378
-0.158133
0.0670909
0.00360797
-0.00548894
0.0179991
-0.0735138
0.0555143
0.328495
-0.542679
0.214332
-0.229708
0.236221
-0.0861919
0.201993
0.0791191
-0.177732
0.0986046
0.033845
0.120373
0.242531
0.0128459
-0.0164709
0.00362491
-0.0773574
-0.10538
0.0823766
-0.0894871
0.154056
0.130981
-0.297206
0.518461
0.00487471
-0.0977108
0.194948
-0.0972296
0.491052
0.327483
-0.582007
0.254614
-0.00142718
0.00221537
-0.000788269
-0.221949
-0.0712527
-0.301037
0.138597
0.210157
0.126379
0.117243
0.138278
0.551807
-0.0809433
0.149879
0.121382
-0.264275
0.0951338
0.142206
-0.237327
0.222492
0.235092
-0.457433
-0.0896427
-0.0584891
0.064179
-0.118186
0.0438783
0.160351
-0.0990536
0.010727
-0.00735845
0.0854304
0.0630567
-0.148492
-0.42541
0.164927
-0.0746532
-0.297042
0.155842
-0.159989
0.543664