/*--------------------------------*- C++ -*----------------------------------*\
| =========                 |                                                 |
| \\      /  F ield         | OpenFOAM: The Open Source CFD Toolbox           |
|  \\    /   O peration     | Version:  v2012                                 |
|   \\  /    A nd           | Website:  www.openfoam.com                      |
|    \\/     M anipulation  |                                                 |
\*---------------------------------------------------------------------------*/
FoamFile
{
    version     2.0;
    format      ascii;
    class       pointVectorField;
    location    "200";
    object      pointDisplacement;
}
// * * * * * * * * * * * * * * * * * * * * * * * * * * * * * * * * * * * * * //

dimensions      [0 1 0 0 0 0 0];


internalField   nonuniform List<vector> 
10356
(
(0 0 0)
(0 0 0)
(0 0 0)
(0 0 0)
(0 0 0)
(0 0 0)
(0 0 0)
(0 0 0)
(0 0 0)
(0 0 0)
(0 0 0)
(0 0 0)
(0 0 0)
(0 0 0)
(0 0 0)
(0 0 0)
(0 0 0)
(0 0 0)
(0 0 0)
(0 0 0)
(0 0 0)
(0 0 0)
(0 0 0)
(0 0 0)
(0 0 0)
(0 0 0)
(0 0 0)
(0 0 0)
(0 0 0)
(0 0 0)
(0 0 0)
(0 0 0)
(0 0 0)
(0 0 0)
(0 0 0)
(0 0 0)
(0 0 0)
(0 0 0)
(0 0 0)
(0 0 0)
(0 0 0)
(0 0 0)
(0 0 0)
(0 0 0)
(0 0 0)
(0 0 0)
(0 0 0)
(0 0 0)
(0 0 0)
(0 0 0)
(0 0 0)
(0 0 0)
(0 0 0)
(0 0 0)
(0 0 0)
(0 0 0)
(0 0 0)
(0 0 0)
(0 0 0)
(0 0 0)
(0 0 0)
(0 0 0)
(0 0 0)
(0 0 0)
(0 0 0)
(0 0 0)
(0 0 0)
(0 0 0)
(0 0 0)
(0 0 0)
(0 0 0)
(0 0 0)
(0 0 0)
(0 0 0)
(0 0 0)
(0 4.40785e-06 0)
(0 4.40785e-06 0)
(0 0 0)
(0 0 0)
(0 0 0)
(0 0 0)
(0 0 0)
(0 0 0)
(0 0 0)
(0 0 0)
(0 0 0)
(0 0 0)
(0 0 0)
(0 0 0)
(0 0 0)
(0 0 0)
(0 0 0)
(0 0 0)
(0 0 0)
(0 0 0)
(0 0 0)
(0 0 0)
(0 0 0)
(0 0 0)
(0 0 0)
(0 0 0)
(0 0 0)
(0 0 0)
(0 0 0)
(0 0 0)
(0 0 0)
(0 0 0)
(0 0 0)
(0 0 0)
(0 0 0)
(0 0 0)
(0 0 0)
(0 0 0)
(0 0 0)
(0 0 0)
(0 0 0)
(0 0 0)
(0 0 0)
(0 0 0)
(0 0 0)
(0 0 0)
(0 0 0)
(0 0 0)
(0 0 0)
(0 0 0)
(0 0 0)
(0 0 0)
(0 0 0)
(0 0 0)
(0 0 0)
(0 0 0)
(0 0 0)
(0 0 0)
(0 0 0)
(0 0 0)
(0 0 0)
(0 0 0)
(0 0 0)
(0 0 0)
(0 0 0)
(0 0 0)
(0 0 0)
(0 0 0)
(0 0 0)
(0 0 0)
(0 0 0)
(0 0 0)
(0 0 0)
(0 0 0)
(0 0 0)
(0 4.40785e-06 0)
(0 4.40785e-06 0)
(0 4.40402e-06 0)
(0 4.42294e-06 0)
(0 4.38378e-06 0)
(0 4.40521e-06 0)
(0 -4.72921e-05 0)
(0 -5.72427e-05 0)
(0 -5.94466e-05 0)
(0 -6.1162e-05 0)
(0 -7.36681e-05 0)
(0 4.4299e-06 0)
(0 -5.23603e-05 0)
(0 -8.09402e-05 0)
(0 4.40381e-06 0)
(0 -4.23723e-05 0)
(0 -5.03839e-05 0)
(0 -4.18904e-05 0)
(0 -3.43253e-05 0)
(0 4.40734e-06 0)
(0 4.41726e-06 0)
(0 -2.02792e-05 0)
(0 -2.26857e-05 0)
(0 -6.25815e-05 0)
(0 -6.26157e-05 0)
(0 -5.39797e-05 0)
(0 4.40281e-06 0)
(0 4.40455e-06 0)
(0 -1.33346e-05 0)
(0 -1.43964e-05 0)
(0 -5.1623e-05 0)
(0 -5.52718e-05 0)
(0 -5.38698e-05 0)
(0 -4.35484e-05 0)
(0 -7.5211e-05 0)
(0 -8.86902e-05 0)
(0 -4.77575e-05 0)
(0 -3.57115e-05 0)
(0 -2.82741e-05 0)
(0 -3.82619e-05 0)
(0 -5.84985e-06 0)
(0 -5.25809e-05 0)
(0 -0.000102925 0)
(0 -0.000103478 0)
(0 -0.000151552 0)
(0 -0.000153949 0)
(0 -0.000199203 0)
(0 -0.000197026 0)
(0 -0.000241482 0)
(0 -0.00024598 0)
(0 -0.000285298 0)
(0 -0.000291344 0)
(0 -0.000327623 0)
(0 -0.000333807 0)
(0 -0.000367365 0)
(0 -0.000372992 0)
(0 -0.000403331 0)
(0 -0.00040781 0)
(0 -0.000434554 0)
(0 -0.000437967 0)
(0 -0.000461766 0)
(0 -0.000458091 0)
(0 -0.000481922 0)
(0 -0.000477345 0)
(0 -0.000497524 0)
(0 -0.000492392 0)
(0 -0.000509367 0)
(0 -0.000503446 0)
(0 -0.000518256 0)
(0 -0.000511609 0)
(0 -0.000523989 0)
(0 -0.000517185 0)
(0 -0.000527009 0)
(0 -0.000520122 0)
(0 -0.000527712 0)
(0 -0.000520285 0)
(0 -0.000534697 0)
(0 -0.000533558 0)
(0 -0.000541025 0)
(0 -0.000538002 0)
(0 -0.000546002 0)
(0 -0.000541115 0)
(0 -0.000549225 0)
(0 -0.000542875 0)
(0 -0.000551137 0)
(0 -0.000543549 0)
(0 -0.000552104 0)
(0 -0.000543332 0)
(0 -0.000534442 0)
(0 -0.000552099 0)
(0 -0.000542293 0)
(0 -0.000551127 0)
(0 -0.000540379 0)
(0 -0.000549304 0)
(0 -0.000537348 0)
(0 -0.000546331 0)
(0 -0.000533254 0)
(0 -0.000541965 0)
(0 -0.000528579 0)
(0 -0.000537427 0)
(0 -0.000523519 0)
(0 -0.00051337 0)
(0 -0.000533123 0)
(0 -0.0005184 0)
(0 -0.000528423 0)
(0 -0.000512945 0)
(0 -0.000523528 0)
(0 -0.000507634 0)
(0 -0.000518398 0)
(0 -0.000502151 0)
(0 -0.000512722 0)
(0 -0.000496568 0)
(0 -0.000506796 0)
(0 -0.000487899 0)
(0 -0.000501918 0)
(0 -0.000484727 0)
(0 -0.000497746 0)
(0 -0.000479711 0)
(0 -0.000493385 0)
(0 -0.000474645 0)
(0 -0.000489618 0)
(0 -0.000470283 0)
(0 -0.000528693 0)
(0 -0.000486605 0)
(0 -0.000466876 0)
(0 -0.000505447 0)
(0 -0.000482926 0)
(0 -0.000464208 0)
(0 -0.000483391 0)
(0 -0.000480636 0)
(0 -0.000462505 0)
(0 -0.000480206 0)
(0 -0.000461802 0)
(0 -0.000479728 0)
(0 -0.000461862 0)
(0 -0.000480375 0)
(0 -0.000462796 0)
(0 -0.000482045 0)
(0 -0.00046494 0)
(0 -0.00049789 0)
(0 -0.000484418 0)
(0 -0.000468392 0)
(0 -0.000488633 0)
(0 -0.000473397 0)
(0 -0.000553791 0)
(0 -0.000494422 0)
(0 -0.00047957 0)
(0 -0.000500877 0)
(0 -0.000487231 0)
(0 -0.00050904 0)
(0 -0.000496326 0)
(0 -0.000518376 0)
(0 -0.00050655 0)
(0 -0.000530278 0)
(0 -0.000528679 0)
(0 -0.000517558 0)
(0 -0.000494698 0)
(0 -0.000506408 0)
(0 -0.000482999 0)
(0 -0.00049533 0)
(0 -0.000518249 0)
(0 -0.000508176 0)
(0 -0.000484755 0)
(0 -0.000498503 0)
(0 -0.000521505 0)
(0 -0.000512923 0)
(0 -0.000489236 0)
(0 -0.000504773 0)
(0 -0.000528384 0)
(0 -0.000521413 0)
(0 -0.000545072 0)
(0 -0.000539033 0)
(0 -0.000514964 0)
(0 -0.000533559 0)
(0 -0.000509188 0)
(0 -0.000528876 0)
(0 -0.000552892 0)
(0 -0.000548972 0)
(0 -0.000524672 0)
(0 -0.000545314 0)
(0 -0.000520582 0)
(0 -0.000542071 0)
(0 -0.000566368 0)
(0 -0.000563589 0)
(0 -0.000539052 0)
(0 -0.000560702 0)
(0 -0.000536098 0)
(0 -0.000558376 0)
(0 -0.000533521 0)
(0 -0.000556807 0)
(0 -0.000531348 0)
(0 -0.000553868 0)
(0 -0.000529173 0)
(0 -0.000551991 0)
(0 -0.000527933 0)
(0 -0.000552479 0)
(0 -0.000528019 0)
(0 -0.000552576 0)
(0 -0.000528344 0)
(0 -0.000553358 0)
(0 -0.000529043 0)
(0 -0.000554522 0)
(0 -0.000530094 0)
(0 -0.000556151 0)
(0 -0.000531807 0)
(0 -0.000558372 0)
(0 -0.00053441 0)
(0 -0.000562233 0)
(0 -0.000538013 0)
(0 -0.000567551 0)
(0 -0.000542805 0)
(0 -0.000572902 0)
(0 -0.00054847 0)
(0 -0.000579181 0)
(0 -0.000554958 0)
(0 -0.000590527 0)
(0 -0.000577742 0)
(0 -0.000587459 0)
(0 -0.000505876 0)
(0 -0.000504024 0)
(0 -0.000454194 0)
(0 -0.000517594 0)
(0 -0.000447084 0)
(0 -0.000463851 0)
(0 -0.00051307 0)
(0 -0.000512612 0)
(0 -0.000505805 0)
(0 -0.000504539 0)
(0 -0.000440937 0)
(0 -0.000560859 0)
(0 -0.000859863 0)
(0 -0.00084047 0)
(0 -0.00083588 0)
(0 -0.00087529 0)
(0 -0.000815304 0)
(0 -0.00081172 0)
(0 -0.000790356 0)
(0 -0.000787539 0)
(0 -0.000765664 0)
(0 -0.000764039 0)
(0 -0.000783164 0)
(0 -0.000762107 0)
(0 -0.000778593 0)
(0 -0.000759985 0)
(0 -0.000774329 0)
(0 -0.000757383 0)
(0 -0.000741895 0)
(0 -0.000739296 0)
(0 -0.000753081 0)
(0 -0.000735247 0)
(0 -0.000719943 0)
(0 -0.000716419 0)
(0 -0.000729221 0)
(0 -0.000711774 0)
(0 -0.000697448 0)
(0 -0.000695363 0)
(0 -0.000679464 0)
(0 -0.000679581 0)
(0 -0.000693759 0)
(0 -0.000679793 0)
(0 -0.000663837 0)
(0 -0.00066477 0)
(0 -0.000678857 0)
(0 -0.000664753 0)
(0 -0.00064824 0)
(0 -0.00064814 0)
(0 -0.000661726 0)
(0 -0.000645513 0)
(0 -0.000629227 0)
(0 -0.000627036 0)
(0 -0.00064101 0)
(0 -0.000623539 0)
(0 -0.000636166 0)
(0 -0.00061998 0)
(0 -0.000631617 0)
(0 -0.000617313 0)
(0 -0.000603881 0)
(0 -0.000602631 0)
(0 -0.000615545 0)
(0 -0.000601862 0)
(0 -0.00061428 0)
(0 -0.000601951 0)
(0 -0.000613935 0)
(0 -0.00060341 0)
(0 -0.000589678 0)
(0 -0.000592591 0)
(0 -0.000605647 0)
(0 -0.0005957 0)
(0 -0.000607496 0)
(0 -0.000598551 0)
(0 -0.000608837 0)
(0 -0.000601537 0)
(0 -0.00059052 0)
(0 -0.000594637 0)
(0 -0.000604641 0)
(0 -0.000598336 0)
(0 -0.00058701 0)
(0 -0.000590483 0)
(0 -0.000601004 0)
(0 -0.000592466 0)
(0 -0.000602386 0)
(0 -0.000593722 0)
(0 -0.000603057 0)
(0 -0.000594901 0)
(0 -0.000584239 0)
(0 -0.000585449 0)
(0 -0.000595878 0)
(0 -0.000585869 0)
(0 -0.000595924 0)
(0 -0.000584821 0)
(0 -0.000573503 0)
(0 -0.000594661 0)
(0 -0.000582051 0)
(0 -0.000591553 0)
(0 -0.000577723 0)
(0 -0.00058698 0)
(0 -0.000571609 0)
(0 -0.000580908 0)
(0 -0.000563627 0)
(0 -0.000554191 0)
(0 -0.000544627 0)
(0 -0.000534932 0)
(0 -0.000602611 0)
(0 -0.000145979 0)
(0 -0.000135986 0)
(0 -0.000121681 0)
(0 -0.000126503 0)
(0 -0.000112707 0)
(0 -0.000117562 0)
(0 -0.00010407 0)
(0 -0.000109117 0)
(0 -0.000123065 0)
(0 -0.000114704 0)
(0 -0.000101134 0)
(0 -0.000106801 0)
(0 -9.37679e-05 0)
(0 -9.948e-05 0)
(0 -8.69951e-05 0)
(0 -9.27916e-05 0)
(0 -0.000105725 0)
(0 -9.91991e-05 0)
(0 -8.66257e-05 0)
(0 -9.33113e-05 0)
(0 -8.11186e-05 0)
(0 -8.77286e-05 0)
(0 -7.63067e-05 0)
(0 -8.24937e-05 0)
(0 -7.20914e-05 0)
(0 -7.86101e-05 0)
(0 -6.83106e-05 0)
(0 -7.52543e-05 0)
(0 -6.52347e-05 0)
(0 -7.23482e-05 0)
(0 -6.29331e-05 0)
(0 -7.0401e-05 0)
(0 -6.10186e-05 0)
(0 -6.8957e-05 0)
(0 -5.96639e-05 0)
(0 -6.80194e-05 0)
(0 -5.88445e-05 0)
(0 -6.75976e-05 0)
(0 -5.87096e-05 0)
(0 -6.79492e-05 0)
(0 -5.93051e-05 0)
(0 -6.88977e-05 0)
(0 -6.06178e-05 0)
(0 -7.04495e-05 0)
(0 -6.25864e-05 0)
(0 -7.28675e-05 0)
(0 -6.5197e-05 0)
(0 -7.59483e-05 0)
(0 -6.85984e-05 0)
(0 -7.95546e-05 0)
(0 -7.24007e-05 0)
(0 -8.38529e-05 0)
(0 -7.67304e-05 0)
(0 -8.85793e-05 0)
(0 -8.20687e-05 0)
(0 -9.42257e-05 0)
(0 -8.80912e-05 0)
(0 -0.000101003 0)
(0 -9.46902e-05 0)
(0 -9.66368e-05 0)
(0 -7.7088e-05 0)
(0 -8.21022e-05 0)
(0 -8.86883e-05 0)
(0 -7.65211e-05 0)
(0 -8.31055e-05 0)
(0 -9.58469e-05 0)
(0 -9.02503e-05 0)
(0 -7.79857e-05 0)
(0 -8.51792e-05 0)
(0 -7.32703e-05 0)
(0 -8.0633e-05 0)
(0 -9.29107e-05 0)
(0 -8.86479e-05 0)
(0 -7.7169e-05 0)
(0 -8.48076e-05 0)
(0 -8.6642e-05 0)
(0 -9.70931e-05 0)
(0 -9.30241e-05 0)
(0 -8.07914e-05 0)
(0 -8.91839e-05 0)
(0 -7.70922e-05 0)
(0 -8.57566e-05 0)
(0 -7.41606e-05 0)
(0 -8.25374e-05 0)
(0 -7.16319e-05 0)
(0 -8.00276e-05 0)
(0 -6.96499e-05 0)
(0 -7.96603e-05 0)
(0 -6.83388e-05 0)
(0 -7.59476e-05 0)
(0 -6.65718e-05 0)
(0 -7.39639e-05 0)
(0 -6.47413e-05 0)
(0 -7.28572e-05 0)
(0 -6.39086e-05 0)
(0 -7.2813e-05 0)
(0 -6.36173e-05 0)
(0 -7.3153e-05 0)
(0 -6.38509e-05 0)
(0 -7.36911e-05 0)
(0 -6.45818e-05 0)
(0 -7.48713e-05 0)
(0 -6.58797e-05 0)
(0 -7.6687e-05 0)
(0 -6.77758e-05 0)
(0 -7.88733e-05 0)
(0 -7.03e-05 0)
(0 -8.20161e-05 0)
(0 -7.35992e-05 0)
(0 -8.67186e-05 0)
(0 -7.77028e-05 0)
(0 -9.15011e-05 0)
(0 -8.23495e-05 0)
(0 -9.6371e-05 0)
(0 -8.77126e-05 0)
(0 -0.000102412 0)
(0 -9.38893e-05 0)
(0 -0.000109542 0)
(0 -0.000101404 0)
(0 -0.000117665 0)
(0 -0.000110006 0)
(0 -0.00012708 0)
(0 -0.000119271 0)
(0 -0.000137643 0)
(0 -0.000129533 0)
(0 -0.000149341 0)
(0 -0.000141078 0)
(0 -0.00012173 0)
(0 -0.000133524 0)
(0 -0.000114807 0)
(0 -0.000126989 0)
(0 -0.000108742 0)
(0 -0.000140502 0)
(0 -8.30092e-05 0)
(0 -8.80924e-05 0)
(0 -0.000112722 0)
(0 -6.58802e-05 0)
(0 -6.36255e-05 0)
(0 -9.8443e-05 0)
(0 -0.000110955 0)
(0 -5.76029e-05 0)
(0 -7.95153e-05 0)
(0 -0.000145997 0)
(0 -8.11308e-05 0)
(0 -5.63593e-05 0)
(0 -5.39794e-05 0)
(0 -5.07082e-05 0)
(0 -6.21509e-05 0)
(0 -5.52399e-05 0)
(0 -0.000572246 0)
(0 -0.00052376 0)
(0 -0.00051364 0)
(0 -0.000500952 0)
(0 -0.000490363 0)
(0 -0.000515238 0)
(0 -0.000439948 0)
(0 -0.000465035 0)
(0 -0.000527949 0)
(0 -0.000440269 0)
(0 -0.000465901 0)
(0 -0.000440275 0)
(0 -0.000475561 0)
(0 -0.000464853 0)
(0 -0.000478783 0)
(0 -0.00044885 0)
(0 -0.00046549 0)
(0 -0.00043602 0)
(0 -0.000449146 0)
(0 -0.000419808 0)
(0 -0.000430052 0)
(0 -0.000400204 0)
(0 -0.000407649 0)
(0 -0.000375794 0)
(0 -0.000381849 0)
(0 -0.000350747 0)
(0 -0.000486731 0)
(0 -0.000741396 0)
(0 -0.000740173 0)
(0 -0.000713612 0)
(0 -0.000709411 0)
(0 -0.000616562 0)
(0 -0.000609052 0)
(0 -0.000610414 0)
(0 -0.000591149 0)
(0 -0.000645244 0)
(0 -0.000679583 0)
(0 -0.000579465 0)
(0 -0.000594852 0)
(0 -0.00058783 0)
(0 -0.000151085 0)
(0 -0.000577582 0)
(0 -0.000577671 0)
(0 -0.000582208 0)
(0 -0.000672091 0)
(0 -0.000543185 0)
(0 -0.000514102 0)
(0 -0.000498749 0)
(0 -0.00057956 0)
(0 -0.000508356 0)
(0 -9.09214e-06 0)
(0 -6.64753e-06 0)
(0 -9.74033e-06 0)
(0 -7.18925e-06 0)
(0 -1.03559e-05 0)
(0 -7.83673e-06 0)
(0 -0.000355653 0)
(0 -0.000385254 0)
(0 -8.4148e-05 0)
(0 -0.000445286 0)
(0 -0.000585203 0)
(0 -0.000598401 0)
(0 -0.000323882 0)
(0 -4.95589e-06 0)
(0 -5.69337e-06 0)
(0 -0.000486128 0)
(0 -0.000356822 0)
(0 -0.000385879 0)
(0 -0.000639712 0)
(0 -0.000589027 0)
(0 -0.000600571 0)
(0 -0.000406913 0)
(0 -0.000628552 0)
(0 -8.73864e-06 0)
(0 -6.62422e-06 0)
(0 -3.90249e-06 0)
(0 -4.82676e-06 0)
(0 -8.16836e-05 0)
(0 -0.000590661 0)
(0 -0.000578325 0)
(0 -0.000601676 0)
(0 -0.000609624 0)
(0 -0.000341444 0)
(0 -0.00035384 0)
(0 -0.000382936 0)
(0 -0.000591803 0)
(0 -2.42697e-06 0)
(0 -3.3528e-06 0)
(0 -5.82794e-06 0)
(0 -4.45536e-06 0)
(0 -2.18007e-06 0)
(0 -3.3908e-06 0)
(0 -1.31038e-06 0)
(0 -2.5249e-06 0)
(0 -6.95383e-07 0)
(0 -1.93894e-06 0)
(0 -2.50321e-07 0)
(0 -1.52744e-06 0)
(0 4.5399e-08 0)
(0 -1.27801e-06 0)
(0 2.11403e-07 0)
(0 -1.1112e-06 0)
(0 5.04588e-07 0)
(0 -1.0286e-06 0)
(0 3.1884e-07 0)
(0 -1.12075e-06 0)
(0 1.51942e-07 0)
(0 -1.33527e-06 0)
(0 -8.97011e-08 0)
(0 -1.61802e-06 0)
(0 -3.90014e-07 0)
(0 -1.94378e-06 0)
(0 -6.95664e-07 0)
(0 -2.32622e-06 0)
(0 -1.11833e-06 0)
(0 -2.77632e-06 0)
(0 -1.58431e-06 0)
(0 -3.23922e-06 0)
(0 -2.00015e-06 0)
(0 -3.82869e-06 0)
(0 -2.46086e-06 0)
(0 -4.57742e-06 0)
(0 -3.09489e-06 0)
(0 -4.74752e-06 0)
(0 -5.38432e-06 0)
(0 -3.85199e-06 0)
(0 -6.28618e-06 0)
(0 -4.67061e-06 0)
(0 -2.73079e-06 0)
(0 -8.08541e-06 0)
(0 -2.49558e-06 0)
(0 -3.2463e-06 0)
(0 -5.58394e-06 0)
(0 -4.08498e-06 0)
(0 -6.60209e-06 0)
(0 -5.01876e-06 0)
(0 -2.75353e-06 0)
(0 -3.61433e-06 0)
(0 -6.07779e-06 0)
(0 -4.60183e-06 0)
(0 -1.57827e-06 0)
(0 -7.30068e-06 0)
(0 -5.74625e-06 0)
(0 -6.46941e-07 0)
(0 -3.11305e-06 0)
(0 -3.44994e-06 0)
(0 -6.06379e-06 0)
(0 -8.71584e-06 0)
(0 -7.05382e-06 0)
(0 -4.30523e-06 0)
(0 -5.55333e-06 0)
(0 -3.07015e-06 0)
(0 -4.24967e-06 0)
(0 -1.05271e-05 0)
(0 -2.03901e-06 0)
(0 -3.10882e-06 0)
(0 -5.56718e-06 0)
(0 -4.35975e-06 0)
(0 -7.12758e-06 0)
(0 -5.84876e-06 0)
(0 -3.28218e-06 0)
(0 -4.7456e-06 0)
(0 4.00265e-07 0)
(0 -2.44096e-06 0)
(0 -3.84391e-06 0)
(0 -6.46125e-06 0)
(0 -5.43889e-06 0)
(0 -3.02231e-06 0)
(0 -4.66068e-06 0)
(0 -2.35049e-06 0)
(0 -4.16329e-06 0)
(0 -1.91309e-06 0)
(0 -3.83561e-06 0)
(0 -1.68466e-06 0)
(0 -3.72276e-06 0)
(0 -1.68031e-06 0)
(0 -3.8328e-06 0)
(0 -1.85774e-06 0)
(0 -4.1926e-06 0)
(0 -2.27855e-06 0)
(0 -4.80951e-06 0)
(0 -2.94837e-06 0)
(0 -5.67019e-06 0)
(0 -3.83302e-06 0)
(0 -6.78383e-06 0)
(0 -4.84653e-06 0)
(0 -8.22718e-06 0)
(0 -7.83911e-06 0)
(0 -1.21427e-05 0)
(0 -6.29959e-06 0)
(0 -6.87383e-06 0)
(0 -0.000664039 0)
(0 -0.000615103 0)
(0 -0.000651955 0)
(0 -0.000601961 0)
(0 -0.000592353 0)
(0 -0.000464484 0)
(0 -0.000553651 0)
(0 -0.000594852 0)
(0 -0.000608707 0)
(0 -1.22524e-05 0)
(0 -1.43477e-05 0)
(0 -0.000349164 0)
(0 -0.000376278 0)
(0 1.28726e-06 0)
(0 -0.000624202 0)
(0 -0.000129144 0)
(0 -0.000532461 0)
(0 -0.000598263 0)
(0 -0.000320914 0)
(0 -0.000162226 0)
(0 -9.75231e-05 0)
(0 -0.000408256 0)
(0 -0.000411853 0)
(0 -0.000440802 0)
(0 -0.000411371 0)
(0 -0.000340433 0)
(0 -0.000366078 0)
(0 -0.000401748 0)
(0 -0.000391268 0)
(0 -0.000353406 0)
(0 -0.000378694 0)
(0 -0.000562317 0)
(0 -0.000578815 0)
(0 -0.000439979 0)
(0 -0.000409527 0)
(0 -0.000437663 0)
(0 -0.000406224 0)
(0 3.61812e-07 0)
(0 -0.000601347 0)
(0 -0.000592448 0)
(0 -4.55971e-07 0)
(0 -1.64336e-05 0)
(0 -1.88251e-05 0)
(0 -0.00053019 0)
(0 -0.000547217 0)
(0 -0.000426582 0)
(0 -0.00033892 0)
(0 -0.000363981 0)
(0 1.23331e-06 0)
(0 -0.000314181 0)
(0 -0.000328093 0)
(0 -0.000300153 0)
(0 -0.00031482 0)
(0 -0.000287232 0)
(0 -0.000302305 0)
(0 -0.000275075 0)
(0 -0.000292075 0)
(0 -0.000264385 0)
(0 -0.000282374 0)
(0 -0.000255709 0)
(0 -0.000276401 0)
(0 -0.000247847 0)
(0 -0.000265115 0)
(0 -0.000240301 0)
(0 -0.000258587 0)
(0 -0.000234131 0)
(0 -0.000252788 0)
(0 -0.000229005 0)
(0 -0.000248071 0)
(0 -0.00022533 0)
(0 -0.000244482 0)
(0 -0.000222808 0)
(0 -0.000241983 0)
(0 -0.00022107 0)
(0 -0.000240422 0)
(0 -0.000262095 0)
(0 -0.000260634 0)
(0 -0.000239531 0)
(0 -0.000260145 0)
(0 -0.000239312 0)
(0 -0.000260534 0)
(0 -0.000239922 0)
(0 -0.000262055 0)
(0 -0.000241504 0)
(0 -0.000263811 0)
(0 -0.000243728 0)
(0 -0.00026538 0)
(0 -0.000246494 0)
(0 -0.000268008 0)
(0 -0.000250113 0)
(0 -0.000271907 0)
(0 -0.000254869 0)
(0 -0.000275509 0)
(0 -0.000259953 0)
(0 -0.000281233 0)
(0 -0.000265463 0)
(0 -0.000291076 0)
(0 -0.000269489 0)
(0 -0.000292655 0)
(0 -0.000274427 0)
(0 -0.000298285 0)
(0 -0.000281478 0)
(0 -0.000305077 0)
(0 -0.000289298 0)
(0 -0.000288647 0)
(0 -0.000265086 0)
(0 -0.000273848 0)
(0 -0.000300211 0)
(0 -0.000282692 0)
(0 -0.000260283 0)
(0 -0.000269482 0)
(0 -0.000291018 0)
(0 -0.000278705 0)
(0 -0.000255297 0)
(0 -0.000266902 0)
(0 -0.000289338 0)
(0 -0.000277168 0)
(0 -0.000253172 0)
(0 -0.000265708 0)
(0 -0.000244287 0)
(0 -0.000255356 0)
(0 -0.000233957 0)
(0 -0.000246158 0)
(0 -0.000225129 0)
(0 -0.000238641 0)
(0 -0.000217874 0)
(0 -0.00023211 0)
(0 -0.000211937 0)
(0 -0.000226693 0)
(0 -0.000207131 0)
(0 -0.000222306 0)
(0 -0.000203385 0)
(0 -0.000219101 0)
(0 -0.000238277 0)
(0 -0.00023551 0)
(0 -0.000217025 0)
(0 -0.000233806 0)
(0 -0.000215898 0)
(0 -0.000233186 0)
(0 -0.000215843 0)
(0 -0.000233978 0)
(0 -0.000253815 0)
(0 -0.000277021 0)
(0 -0.000216883 0)
(0 -0.000235792 0)
(0 -0.000218814 0)
(0 -0.000238184 0)
(0 -0.000221579 0)
(0 -0.000242031 0)
(0 -0.000225059 0)
(0 -0.000246236 0)
(0 -0.000229177 0)
(0 -0.000250012 0)
(0 -0.000233861 0)
(0 -0.000254727 0)
(0 -0.000240268 0)
(0 -0.000263944 0)
(0 -0.000247741 0)
(0 -0.000268853 0)
(0 -0.000253023 0)
(0 -0.000276687 0)
(0 -0.000264726 0)
(0 -0.000285596 0)
(0 -0.000289945 0)
(0 -0.000252702 0)
(0 -0.000260008 0)
(0 -0.000270551 0)
(0 -0.000283155 0)
(0 -0.000282619 0)
(0 -0.000309159 0)
(0 -0.000273334 0)
(0 -0.000294637 0)
(0 -0.000248998 0)
(0 -0.000283929 0)
(0 -0.000313829 0)
(0 -0.000198364 0)
(0 -0.000345823 0)
(0 -0.000282402 0)
(0 -0.000304035 0)
(0 -0.000316572 0)
(0 -0.000325898 0)
(0 -0.000338673 0)
(0 -0.000347771 0)
(0 -0.000335375 0)
(0 -0.000357203 0)
(0 -0.000344803 0)
(0 -0.000366615 0)
(0 -0.000354218 0)
(0 -0.000375979 0)
(0 -0.00023269 0)
(0 -0.000205788 0)
(0 -0.000219392 0)
(0 -0.000363724 0)
(0 -0.000385642 0)
(0 -0.000379412 0)
(0 -0.000221898 0)
(0 -0.000198209 0)
(0 -0.000230217 0)
(0 -0.00021066 0)
(0 -0.000202647 0)
(0 -0.000254708 0)
(0 -1.17445e-07 0)
(0 -0.000372776 0)
(0 -0.000394227 0)
(0 -0.000259893 0)
(0 -0.00038096 0)
(0 -0.000401799 0)
(0 -0.000226385 0)
(0 -0.000511034 0)
(0 -0.000458758 0)
(0 -0.000381071 0)
(0 -0.000497033 0)
(0 -0.000515464 0)
(0 -0.00038857 0)
(0 -0.000409511 0)
(0 -0.000434568 0)
(0 -0.000402574 0)
(0 -0.000791685 0)
(0 -0.000581412 0)
(0 -0.000582371 0)
(0 -0.000322464 0)
(0 -0.000347372 0)
(0 -0.00038815 0)
(0 -0.000372217 0)
(0 -0.000411757 0)
(0 -0.000396674 0)
(0 -0.000356492 0)
(0 -0.000381803 0)
(0 -0.000420326 0)
(0 -0.000406657 0)
(0 -0.000367131 0)
(0 -0.000393255 0)
(0 -0.000352467 0)
(0 -0.000379723 0)
(0 -0.000421785 0)
(0 -0.000429163 0)
(0 -0.000371848 0)
(0 -0.000368172 0)
(0 -0.000419052 0)
(0 -0.000407216 0)
(0 -0.000365746 0)
(0 -0.000395739 0)
(0 -0.000359847 0)
(0 -2.12877e-05 0)
(0 -0.000599394 0)
(0 -0.000605811 0)
(0 -0.00030021 0)
(0 -0.000351196 0)
(0 -0.000382734 0)
(0 -0.000429712 0)
(0 -0.000412442 0)
(0 -0.00029697 0)
(0 -0.000297371 0)
(0 -0.00041774 0)
(0 -0.000436639 0)
(0 -2.3963e-05 0)
(0 -2.13716e-05 0)
(0 -2.68786e-05 0)
(0 -2.40818e-05 0)
(0 -0.000367326 0)
(0 -0.000398398 0)
(0 -3.01579e-05 0)
(0 -2.72585e-05 0)
(0 -0.000601832 0)
(0 -0.000606216 0)
(0 -0.00046192 0)
(0 -0.000482628 0)
(0 -0.000537721 0)
(0 -0.000500819 0)
(0 -0.000447807 0)
(0 -0.000467501 0)
(0 -0.000515033 0)
(0 -0.000482694 0)
(0 -0.000331725 0)
(0 -0.000439133 0)
(0 -0.0004277 0)
(0 -0.000382736 0)
(0 -0.000415056 0)
(0 -1.04961e-06 0)
(0 -2.47856e-07 0)
(0 4.98886e-07 0)
(0 1.16871e-06 0)
(0 1.68869e-06 0)
(0 2.24177e-06 0)
(0 2.60839e-06 0)
(0 3.02694e-06 0)
(0 3.28442e-06 0)
(0 2.71554e-06 0)
(0 2.92469e-06 0)
(0 3.48815e-06 0)
(0 3.18876e-06 0)
(0 3.65227e-06 0)
(0 3.36798e-06 0)
(0 -0.000334486 0)
(0 -0.00033152 0)
(0 -0.000365141 0)
(0 -0.000329005 0)
(0 -0.000569399 0)
(0 -0.000570846 0)
(0 -0.000426084 0)
(0 -2.68426e-05 0)
(0 -2.40314e-05 0)
(0 3.79204e-06 0)
(0 3.52514e-06 0)
(0 3.90299e-06 0)
(0 3.67829e-06 0)
(0 -0.000426091 0)
(0 -0.00044439 0)
(0 -0.0004405 0)
(0 -0.000366099 0)
(0 -0.000278997 0)
(0 -0.000527945 0)
(0 -0.0004343 0)
(0 -0.000451933 0)
(0 -0.00046197 0)
(0 -0.000468929 0)
(0 -0.000458595 0)
(0 -0.00047475 0)
(0 -0.000464325 0)
(0 -0.000479845 0)
(0 3.99584e-06 0)
(0 3.80057e-06 0)
(0 3.40097e-06 0)
(0 3.55652e-06 0)
(0 3.90478e-06 0)
(0 3.68654e-06 0)
(0 3.99253e-06 0)
(0 3.79894e-06 0)
(0 3.41181e-06 0)
(0 3.55321e-06 0)
(0 3.89767e-06 0)
(0 3.6802e-06 0)
(0 2.98369e-06 0)
(0 -0.000359278 0)
(0 3.9797e-06 0)
(0 3.78628e-06 0)
(0 4.04554e-06 0)
(0 3.8822e-06 0)
(0 3.37037e-06 0)
(0 3.11261e-06 0)
(0 -0.000362052 0)
(0 -0.000326221 0)
(0 -0.00023793 0)
(0 -3.37956e-05 0)
(0 -3.09205e-05 0)
(0 -0.000497224 0)
(0 3.06427e-06 0)
(0 -0.000600818 0)
(0 -0.000603586 0)
(0 -0.000596744 0)
(0 -0.00060945 0)
(0 -0.000605465 0)
(0 -0.00061134 0)
(0 -0.000606228 0)
(0 -0.000612267 0)
(0 -0.000606065 0)
(0 -0.000612086 0)
(0 -0.00060515 0)
(0 -0.000610945 0)
(0 -0.000603427 0)
(0 -0.000609323 0)
(0 -0.0006015 0)
(0 -0.000607636 0)
(0 -0.000599358 0)
(0 -0.000606186 0)
(0 -0.000597492 0)
(0 -0.000605171 0)
(0 -0.000596596 0)
(0 -0.000604534 0)
(0 -0.000596579 0)
(0 -0.000604593 0)
(0 -0.000597408 0)
(0 -0.00060548 0)
(0 -0.000598711 0)
(0 -0.000611704 0)
(0 -0.000606928 0)
(0 -0.000600528 0)
(0 -0.000614981 0)
(0 -0.000608738 0)
(0 -0.000602334 0)
(0 -0.000610922 0)
(0 -0.000604661 0)
(0 -0.000613513 0)
(0 -0.000607629 0)
(0 -0.000613838 0)
(0 -0.000616748 0)
(0 -0.00061139 0)
(0 -0.000600759 0)
(0 -0.000605749 0)
(0 -0.000616122 0)
(0 -0.000611804 0)
(0 -0.000621819 0)
(0 -0.0006187 0)
(0 -0.000628166 0)
(0 -0.000626121 0)
(0 -0.000634868 0)
(0 -0.000633535 0)
(0 -0.000592196 0)
(0 -0.000641821 0)
(0 -0.000641212 0)
(0 -0.000631149 0)
(0 -0.000640258 0)
(0 -0.000649322 0)
(0 -0.000649627 0)
(0 -0.000657966 0)
(0 -0.000658979 0)
(0 -0.000648889 0)
(0 -0.000659046 0)
(0 -0.000647558 0)
(0 -0.000658713 0)
(0 -0.000669223 0)
(0 -0.000669866 0)
(0 -0.000657716 0)
(0 -0.000669806 0)
(0 -0.000680996 0)
(0 -0.00068216 0)
(0 -0.00066935 0)
(0 -0.000683202 0)
(0 -0.000668897 0)
(0 -0.000684648 0)
(0 -0.000697875 0)
(0 -0.000701488 0)
(0 -0.000686722 0)
(0 -0.000705909 0)
(0 -0.000718964 0)
(0 -0.000725016 0)
(0 -0.000711096 0)
(0 -0.000731088 0)
(0 -0.000716474 0)
(0 -0.000737544 0)
(0 -0.000750818 0)
(0 -0.000757852 0)
(0 -0.000743811 0)
(0 -0.000764112 0)
(0 -0.000749505 0)
(0 -0.000769991 0)
(0 -0.000754473 0)
(0 -0.000783466 0)
(0 -0.000775925 0)
(0 -0.00075954 0)
(0 -0.000782557 0)
(0 -0.000765634 0)
(0 -0.000789759 0)
(0 -0.000772063 0)
(0 -0.000805137 0)
(0 -0.000796577 0)
(0 -0.000778067 0)
(0 -0.00075203 0)
(0 -0.00075833 0)
(0 -0.000788015 0)
(0 -0.000765057 0)
(0 -0.000733764 0)
(0 -0.000737097 0)
(0 -0.000743691 0)
(0 -0.000771817 0)
(0 -0.000750882 0)
(0 -0.000778525 0)
(0 -0.000758988 0)
(0 -0.000606131 0)
(0 -0.000586732 0)
(0 -0.000718206 0)
(0 -0.000590768 0)
(0 -0.000464449 0)
(0 -0.000461725 0)
(0 -0.00029489 0)
(0 -0.000297672 0)
(0 -0.000455811 0)
(0 3.53569e-06 0)
(0 3.6565e-06 0)
(0 3.96986e-06 0)
(0 3.76718e-06 0)
(0 4.04273e-06 0)
(0 3.8642e-06 0)
(0 4.10497e-06 0)
(0 3.94589e-06 0)
(0 3.51716e-06 0)
(0 -0.00025292 0)
(0 -0.000469075 0)
(0 -0.000488224 0)
(0 -8.95224e-07 0)
(0 3.774e-06 0)
(0 -0.000483835 0)
(0 -0.000542369 0)
(0 4.12916e-06 0)
(0 -7.49892e-05 0)
(0 4.00449e-06 0)
(0 -0.000629778 0)
(0 1.04991e-06 0)
(0 -7.05154e-05 0)
(0 -5.73864e-05 0)
(0 3.65146e-06 0)
(0 3.43522e-06 0)
(0 -0.000511129 0)
(0 -0.000496725 0)
(0 -5.07707e-05 0)
(0 -5.32223e-05 0)
(0 -0.000466485 0)
(0 -9.93944e-06 0)
(0 -6.47254e-05 0)
(0 -5.54113e-05 0)
(0 2.91683e-08 0)
(0 -0.000605408 0)
(0 -0.000446608 0)
(0 -6.65456e-05 0)
(0 -0.00055628 0)
(0 -0.000442196 0)
(0 -0.000188356 0)
(0 -0.000490372 0)
(0 -0.000595376 0)
(0 -0.000415644 0)
(0 -0.000738521 0)
(0 -5.75113e-05 0)
(0 -0.000539624 0)
(0 -0.000588742 0)
(0 -0.000727788 0)
(0 -0.000502423 0)
(0 -0.000200655 0)
(0 -0.000695089 0)
(0 -0.000483958 0)
(0 -0.000465162 0)
(0 -0.000458236 0)
(0 -0.000439668 0)
(0 -0.000432234 0)
(0 -0.000413843 0)
(0 -0.000422337 0)
(0 -0.000562807 0)
(0 -0.000568292 0)
(0 -0.000586175 0)
(0 -0.000590935 0)
(0 -0.000654039 0)
(0 -0.000636281 0)
(0 -3.00451e-05 0)
(0 -2.71298e-05 0)
(0 -0.00050642 0)
(0 -8.93422e-06 0)
(0 -0.000108332 0)
(0 -0.000114871 0)
(0 -0.000123052 0)
(0 -0.000129905 0)
(0 -0.000139 0)
(0 -0.000146419 0)
(0 -0.00015598 0)
(0 -0.000148693 0)
(0 -0.000166249 0)
(0 -0.000159119 0)
(0 -0.000163931 0)
(0 -0.000154576 0)
(0 -6.96224e-05 0)
(0 -0.00021321 0)
(0 -0.000414455 0)
(0 -0.000597686 0)
(0 -0.000554108 0)
(0 -0.000529595 0)
(0 -0.000103081 0)
(0 -0.000692327 0)
(0 -0.00059438 0)
(0 -0.0005544 0)
(0 -0.000632841 0)
(0 -0.000223176 0)
(0 -0.000666445 0)
(0 -0.000620832 0)
(0 -0.00078514 0)
(0 -0.000800922 0)
(0 -0.000791917 0)
(0 -0.000806461 0)
(0 -0.000590699 0)
(0 -9.50809e-05 0)
(0 -0.000604196 0)
(0 -0.000736906 0)
(0 -0.00010626 0)
(0 -0.000770206 0)
(0 -0.000592901 0)
(0 -0.000245592 0)
(0 -0.000265192 0)
(0 -0.000252979 0)
(0 -0.000593409 0)
(0 4.15845e-06 0)
(0 4.01725e-06 0)
(0 3.73157e-06 0)
(0 3.82401e-06 0)
(0 4.085e-06 0)
(0 3.90634e-06 0)
(0 3.07998e-06 0)
(0 3.59544e-06 0)
(0 -3.78291e-05 0)
(0 -3.48407e-05 0)
(0 -2.82222e-05 0)
(0 -3.20851e-05 0)
(0 -2.57607e-05 0)
(0 -2.9583e-05 0)
(0 -2.34475e-05 0)
(0 -2.72822e-05 0)
(0 -2.09512e-05 0)
(0 -2.53851e-05 0)
(0 -3.15402e-05 0)
(0 -2.96503e-05 0)
(0 -2.38887e-05 0)
(0 -2.78718e-05 0)
(0 -2.25675e-05 0)
(0 -2.61367e-05 0)
(0 -2.1401e-05 0)
(0 -2.4927e-05 0)
(0 -2.03472e-05 0)
(0 -2.42683e-05 0)
(0 -1.96989e-05 0)
(0 -2.35821e-05 0)
(0 -1.91645e-05 0)
(0 -2.30528e-05 0)
(0 -1.87234e-05 0)
(0 -2.29713e-05 0)
(0 -1.87074e-05 0)
(0 -3.16544e-05 0)
(0 -2.31597e-05 0)
(0 -1.90217e-05 0)
(0 -2.3732e-05 0)
(0 -1.95951e-05 0)
(0 -0.000560332 0)
(0 -0.00035913 0)
(0 -0.000323471 0)
(0 -0.000288906 0)
(0 -0.000286414 0)
(0 -0.000320431 0)
(0 -0.00028314 0)
(0 -0.000315915 0)
(0 -0.000278239 0)
(0 -0.000309607 0)
(0 -0.000271353 0)
(0 -0.000393463 0)
(0 -0.000616665 0)
(0 -0.000572813 0)
(0 -0.000443155 0)
(0 -0.000455924 0)
(0 -0.000475682 0)
(0 -0.000487379 0)
(0 -0.000503957 0)
(0 -0.000493409 0)
(0 -0.00049188 0)
(0 -0.000403222 0)
(0 -0.000346311 0)
(0 -0.000312531 0)
(0 -0.000172904 0)
(0 -0.00044454 0)
(0 -0.000300418 0)
(0 -0.0001015 0)
(0 -1.61626e-05 0)
(0 -2.00234e-05 0)
(0 -2.08462e-05 0)
(0 -2.51485e-05 0)
(0 -2.61821e-05 0)
(0 -3.09698e-05 0)
(0 -2.96719e-05 0)
(0 -3.22604e-05 0)
(0 -3.63084e-05 0)
(0 -2.73911e-05 0)
(0 -4.22226e-05 0)
(0 -4.86789e-05 0)
(0 -3.37614e-05 0)
(0 -2.90803e-05 0)
(0 -5.71895e-05 0)
(0 -0.000619617 0)
(0 -0.000433725 0)
(0 -0.000451842 0)
(0 -0.000445273 0)
(0 -3.61526e-05 0)
(0 -0.000573194 0)
(0 -0.000679835 0)
(0 -0.000530846 0)
(0 -8.2672e-06 0)
(0 -0.000722061 0)
(0 -0.000737199 0)
(0 -0.000608871 0)
(0 -0.000320888 0)
(0 -0.000303751 0)
(0 -0.000273471 0)
(0 -0.000312897 0)
(0 -0.000324068 0)
(0 -0.000336035 0)
(0 -0.000347377 0)
(0 -0.000325737 0)
(0 3.21091e-06 0)
(0 -0.000798718 0)
(0 -0.000656151 0)
(0 -9.20128e-06 0)
(0 -0.000729735 0)
(0 -0.00011058 0)
(0 -0.000120634 0)
(0 -0.00012522 0)
(0 -0.000136068 0)
(0 -0.000140929 0)
(0 -0.000131556 0)
(0 -0.000147783 0)
(0 -0.000143393 0)
(0 -0.000172725 0)
(0 -0.000163518 0)
(0 -0.000689669 0)
(0 -0.000700018 0)
(0 -0.000696222 0)
(0 -0.000335584 0)
(0 -0.000359403 0)
(0 -0.000348114 0)
(0 -0.000371837 0)
(0 -0.000360913 0)
(0 -0.00038436 0)
(0 -0.000374065 0)
(0 -0.000369952 0)
(0 -0.000350194 0)
(0 -0.00036415 0)
(0 -0.000616768 0)
(0 3.07722e-06 0)
(0 -0.000301917 0)
(0 -0.000263146 0)
(0 -0.000292872 0)
(0 -0.000253531 0)
(0 -3.89771e-05 0)
(0 -0.000611472 0)
(0 -0.000567177 0)
(0 -0.000271652 0)
(0 -0.000439582 0)
(0 -0.000401367 0)
(0 -0.000340455 0)
(0 -0.00035509 0)
(0 -0.000332012 0)
(0 -0.000347466 0)
(0 -0.000325203 0)
(0 -0.000343783 0)
(0 -0.000368897 0)
(0 -3.65192e-05 0)
(0 -4.52002e-05 0)
(0 -4.15229e-05 0)
(0 -5.10662e-05 0)
(0 -4.71884e-05 0)
(0 -3.80544e-05 0)
(0 -4.39396e-05 0)
(0 -3.51507e-05 0)
(0 -4.13474e-05 0)
(0 -3.2828e-05 0)
(0 -3.90386e-05 0)
(0 -3.12781e-05 0)
(0 -3.69578e-05 0)
(0 -2.98835e-05 0)
(0 4.18219e-06 0)
(0 -9.03299e-05 0)
(0 -0.000641458 0)
(0 -0.0003599 0)
(0 -0.000351731 0)
(0 -0.000373184 0)
(0 -0.000365417 0)
(0 -0.000387533 0)
(0 -0.000379625 0)
(0 -0.000576118 0)
(0 -0.000293742 0)
(0 -0.00032211 0)
(0 -0.000478659 0)
(0 -8.49588e-06 0)
(0 -0.000171124 0)
(0 -7.85652e-05 0)
(0 2.29076e-06 0)
(0 -0.00023377 0)
(0 -0.000251625 0)
(0 -2.47257e-05 0)
(0 -2.06047e-05 0)
(0 -0.000126168 0)
(0 3.51954e-06 0)
(0 2.5786e-06 0)
(0 -8.77728e-05 0)
(0 -7.88209e-05 0)
(0 -0.00050395 0)
(0 -9.44378e-05 0)
(0 4.1396e-06 0)
(0 3.97491e-06 0)
(0 -0.000375076 0)
(0 -0.000395677 0)
(0 -2.91595e-05 0)
(0 -8.40397e-05 0)
(0 -0.000244135 0)
(0 -2.72533e-05 0)
(0 2.88779e-06 0)
(0 -3.83644e-06 0)
(0 -0.000254112 0)
(0 -6.00988e-06 0)
(0 -0.00058746 0)
(0 -0.00058468 0)
(0 -0.000614205 0)
(0 -0.000490183 0)
(0 -0.000817153 0)
(0 -0.000821227 0)
(0 -0.00055816 0)
(0 -0.000571153 0)
(0 -0.000558623 0)
(0 -0.000570079 0)
(0 -0.00060923 0)
(0 -0.000401769 0)
(0 -0.000394086 0)
(0 -0.000371866 0)
(0 -0.000386772 0)
(0 -0.000364725 0)
(0 -0.000380382 0)
(0 -0.000358386 0)
(0 -0.000374638 0)
(0 -0.00035264 0)
(0 -0.000369583 0)
(0 -0.000347759 0)
(0 -0.000365529 0)
(0 -0.000343733 0)
(0 -0.000362548 0)
(0 -0.00034063 0)
(0 -0.000360287 0)
(0 -0.000338324 0)
(0 -0.000358446 0)
(0 -0.000336755 0)
(0 -0.000357974 0)
(0 -0.000550432 0)
(0 2.80588e-06 0)
(0 3.15053e-06 0)
(0 4.14066e-06 0)
(0 -3.56208e-05 0)
(0 -3.11875e-05 0)
(0 3.45008e-06 0)
(0 -0.000402039 0)