/*--------------------------------*- C++ -*----------------------------------*\
| =========                 |                                                 |
| \\      /  F ield         | OpenFOAM: The Open Source CFD Toolbox           |
|  \\    /   O peration     | Version:  v2012                                 |
|   \\  /    A nd           | Website:  www.openfoam.com                      |
|    \\/     M anipulation  |                                                 |
\*---------------------------------------------------------------------------*/
FoamFile
{
    version     2.0;
    format      ascii;
    class       volVectorField;
    location    "200";
    object      U;
}
// * * * * * * * * * * * * * * * * * * * * * * * * * * * * * * * * * * * * * //

dimensions      [0 1 -1 0 0 0 0];


internalField   nonuniform List<vector> 
10042
(
(0.996249 0.0112433 5.58794e-21)
(0.998627 0.00453421 0)
(1.03478 0.0174887 1.23644e-23)
(1.00966 8.04764e-05 2.53917e-21)
(1.10279 0.0329323 -1.3915e-19)
(0.999299 0.00445763 9.87093e-21)
(0.937263 -0.143568 -1.30888e-19)
(1.2015 -0.0750138 0)
(1.02916 0.0164376 -4.31304e-21)
(1.00186 0.00474327 -2.81404e-21)
(-0.245423 -0.00344358 7.37475e-20)
(1.01493 0.000113176 -1.86169e-21)
(1.01704 0.00274656 3.00254e-21)
(1.01744 0.00118224 -4.09395e-23)
(0.962325 0.0568063 -9.78468e-22)
(0.99979 0.00551015 0)
(0.999714 0.00577246 0)
(1.00005 0.000525609 8.21265e-21)
(0.996381 0.0108161 0)
(0.702654 0.319846 2.45259e-20)
(1.00424 0.00551786 0)
(1.14702 -0.0892814 -8.90338e-20)
(1.01622 0.000621428 1.23594e-21)
(1.01515 0.00524001 2.54423e-21)
(0.998715 0.00432091 -6.57212e-21)
(1.07547 0.0200246 -3.12399e-20)
(0.998915 0.00195146 0)
(0.996525 0.0554048 2.22075e-22)
(1.0206 0.0235222 0)
(1.00346 0.0491055 -3.9887e-21)
(0.996577 0.00293692 -4.5164e-21)
(-0.171358 0.0192086 -1.70556e-19)
(1.00182 0.00447615 -2.3846e-21)
(1.01949 0.0438022 -7.5914e-21)
(1.06199 0.0502633 2.32736e-20)
(1.01471 0.00538027 0)
(1.0732 0.0232996 -2.53039e-20)
(1.07622 0.00275078 -1.01192e-20)
(1.01441 0.00502821 0)
(1.01293 0.115693 1.45217e-21)
(0.672317 0.313633 -3.36114e-20)
(0.970688 0.0556458 0)
(0.893825 -0.152362 2.00898e-19)
(0.993287 0.0333159 -1.46226e-20)
(1.09362 0.0339191 -7.21676e-20)
(1.10205 -0.0196247 6.40196e-20)
(0.977668 0.0383271 0)
(1.08571 -0.0620323 8.11765e-21)
(1.07011 0.0327518 -2.76409e-20)
(1.05904 -0.0230198 9.67829e-21)
(1.00054 0.00057422 0)
(1.04253 0.00348907 5.42086e-21)
(0.96046 0.0454468 0)
(1.04681 0.00508009 1.39132e-20)
(1.07348 0.025189 -2.84586e-20)
(0.999382 0.00461055 -1.21586e-20)
(1.0214 0.0235391 0)
(0.978145 0.0370886 -9.13586e-21)
(1.02005 0.0424207 4.57385e-21)
(0.962986 0.0455068 2.53304e-20)
(0.997648 0.00354124 -6.40651e-21)
(0.997106 0.0051242 -1.20974e-20)
(1.06307 0.0527908 -3.99414e-20)
(1.0339 0.0176606 2.06115e-21)
(0.965657 0.018954 2.81848e-20)
(1.02259 0.0415893 0)
(0.973461 0.0138845 1.0223e-20)
(0.748247 0.225401 -4.52167e-20)
(-0.00927258 -0.0476532 -1.14381e-19)
(1.00077 0.0278659 1.88926e-21)
(1.0465 0.00454864 -1.32029e-20)
(0.656309 0.326835 1.95244e-20)
(0.992058 0.0331434 7.86619e-21)
(0.867642 0.0802154 0)
(0.974305 0.0101591 0)
(1.01548 0.00553349 -2.80864e-21)
(0.975673 0.0142167 1.50741e-19)
(0.99625 0.00983119 3.12652e-22)
(0.908453 0.0977784 0)
(0.841022 -0.129625 -1.53141e-19)
(1.06781 0.032371 0)
(1.29237 0.0619832 -1.08669e-19)
(1.00748 0.036656 -1.38622e-21)
(0.972922 0.048882 1.53044e-20)
(0.973152 0.0127741 0)
(1.00017 0.00195149 0)
(0.996793 0.0133082 5.90868e-21)
(1.20046 0.224478 0)
(0.986287 0.021896 1.96836e-20)
(0.997235 0.0133748 4.22432e-21)
(1.03115 0.0327579 1.96762e-20)
(1.28553 0.0699282 1.31295e-19)
(0.997641 0.0572402 -2.46835e-22)
(1.04187 0.00365062 -4.98304e-21)
(1.00226 0.0477301 0)
(1.0152 0.0301188 -7.96427e-22)
(0.999401 0.00938808 0)
(1.00979 0.0290978 -9.27247e-23)
(1.01252 0.112199 -2.46183e-21)
(1.02556 0.021619 -2.60437e-21)
(0.99999 0.000108735 7.46269e-21)
(1.19095 0.15528 0)
(1.20813 -0.0899238 0)
(1.0002 0.00208574 0)
(0.990215 0.0516372 0)
(1.06652 0.192767 -5.1585e-21)
(0.993792 0.0104055 -1.47813e-20)
(0.999475 0.00982679 -6.26147e-21)
(1.00411 0.00518433 -1.29072e-21)
(1.02434 0.00233312 0)
(1.01051 0.00139577 2.57967e-22)
(1.00438 0.0222021 -3.07366e-23)
(1.03899 0.0751038 -1.37645e-20)
(-0.0646264 -0.0428869 -4.32769e-20)
(0.96657 0.0179702 -2.59635e-20)
(1.00169 0.0203438 -2.94092e-21)
(0.991137 0.00360426 -3.97891e-21)
(0.99609 0.0102967 -6.32968e-21)
(1.01578 0.0293488 -5.15497e-22)
(-0.00492646 0.0447726 1.88035e-19)
(0.986396 0.020925 0)
(1.19038 -0.0790312 7.82176e-20)
(0.996723 0.0364217 7.1869e-21)
(0.993842 0.00135654 -1.32544e-20)
(1.18759 0.146805 5.2645e-20)
(1.00671 0.0373905 -1.29054e-21)
(1.19582 -0.0713527 0)
(1.07304 0.0457661 2.97325e-20)
(1.05804 0.18998 0)
(0.997804 0.0143804 1.31069e-20)
(0.906351 0.103881 -2.27986e-21)
(0.97979 0.021355 1.36566e-20)
(-0.182362 0.00729758 1.81203e-19)
(1.19148 -0.0285979 5.86949e-20)
(1.02474 0.0218012 6.65928e-21)
(1.12127 0.150668 -5.73241e-20)
(-0.144403 0.0343389 -2.71683e-19)
(1.0313 0.0341384 -1.1453e-20)
(1.09063 -0.0649318 4.20708e-20)
(1.21135 0.231882 0)
(0.984331 0.0528505 7.46133e-21)
(0.990609 0.00359773 0)
(0.984967 0.0468665 -1.44827e-20)
(1.22101 0.102737 -4.01165e-20)
(1.03829 0.00502571 1.49957e-20)
(1.00406 0.0216437 -2.18727e-21)
(1.13443 0.114066 0)
(1.02865 0.00403054 6.11332e-21)
(1.00976 0.0301018 0)
(1.01547 0.0836727 -3.64107e-21)
(1.03127 0.0155524 -6.67559e-21)
(1.00004 0.000204295 0)
(0.420635 -0.0821412 9.57184e-20)
(-0.0558856 0.03161 1.22549e-19)
(0.999611 0.00197176 1.05562e-20)
(1.01699 0.00242019 -4.45587e-21)
(0.952445 0.0139271 -1.4588e-21)
(0.996783 0.00517526 1.29663e-20)
(1.12135 0.15778 6.14422e-20)
(-0.113148 0.0280231 1.71802e-19)
(-0.250092 -0.00190048 0)
(1.18002 -0.0029196 4.85445e-20)
(0.995541 0.00371052 0)
(1.03079 0.0161773 -1.30478e-20)
(1.01112 0.0392028 0)
(0.980495 0.0202394 0)
(0.978129 0.25667 2.74997e-21)
(0.274273 0.185107 -3.12469e-19)
(-0.190527 0.0258432 3.32722e-19)
(0.00516925 0.029796 -3.38575e-19)
(1.04509 0.00706676 -1.33436e-20)
(1.00509 0.0123013 0)
(1.42649 0.0972826 -3.11049e-19)
(0.710241 0.37523 5.95346e-20)
(0.922931 0.165742 0)
(0.727259 -0.210859 5.77775e-21)
(-0.147783 0.0497653 5.71837e-20)
(0.994889 0.0349975 -4.48835e-22)
(0.734811 0.246195 1.74236e-20)
(1.06469 0.0939241 3.64428e-20)
(0.950018 0.0147468 -1.82465e-20)
(-0.154385 0.0171481 -2.18601e-19)
(0.97243 0.016691 8.96757e-21)
(1.07125 0.0470777 3.9935e-20)
(0.970479 0.0528997 -1.34499e-20)
(0.0359706 0.0480781 -2.2381e-19)
(1.21352 -0.00606474 -4.14668e-20)
(1.0202 0.0373768 8.92436e-21)
(-0.200375 -0.0211634 6.36823e-20)
(1.05059 0.0395267 -3.79202e-21)
(0.800198 0.813917 3.7319e-20)
(0.983024 0.0464951 -4.00608e-22)
(0.405857 -0.0874425 -8.21958e-20)
(1.42034 0.108543 1.22593e-19)
(1.14983 -0.0210913 8.45803e-20)
(1.33815 0.0393988 -1.16856e-19)
(1.06262 0.0268748 -6.56372e-22)
(0.9947 0.00918821 1.48278e-20)
(1.01665 0.00222782 -1.39882e-21)
(1.02939 0.058539 -6.19675e-22)
(0.89881 0.150631 -1.81761e-20)
(1.02125 0.0377539 -6.96008e-21)
(1.00575 0.0224189 0)
(0.736696 0.3975 6.09486e-22)
(0.972051 0.015373 9.61656e-21)
(1.01832 0.0139445 0)
(0.886552 0.854178 -4.89608e-20)
(0.999373 0.00235865 -1.10281e-20)
(1.00005 0.000617396 0)
(0.999896 0.00134912 1.74511e-20)
(1.29145 0.0392266 -8.67234e-20)
(1.01708 0.000401363 0)
(0.971421 0.245948 4.15816e-21)
(1.09985 0.440192 -3.3515e-20)
(0.954462 0.0156429 -1.68105e-20)
(1.21848 -0.00495925 -6.33446e-21)
(0.977704 0.00868493 -8.35015e-21)
(1.00042 0.00664381 4.67902e-21)
(1.15253 0.0911252 6.57533e-20)
(1.00985 0.0151159 -5.01318e-22)
(1.04201 0.0748615 8.48865e-21)
(0.952265 0.0224367 0)
(1.19991 0.375189 5.99577e-20)
(1.07737 0.000834874 -1.17795e-20)
(0.948058 0.0728797 -1.63672e-20)
(1.07682 0.016432 -5.67069e-22)
(1.20486 -0.0500457 1.90551e-20)
(1.00287 0.0210352 4.79694e-21)
(1.20323 0.0105288 0)
(1.04725 0.00395973 0)
(1.02985 0.0159219 1.09216e-20)
(0.855357 0.398016 2.0621e-20)
(1.00467 0.0118455 1.15604e-22)
(1.04707 0.00351151 3.99546e-22)
(1.03525 0.0182354 -8.54674e-21)
(1.01829 0.0851593 6.81613e-21)
(1.0166 0.0156937 -3.59649e-21)
(1.01799 0.00079863 -2.70567e-21)
(1.05031 0.023597 0)
(1.05288 0.000868898 1.09244e-20)
(0.995461 0.00338991 0)
(0.995404 0.0363955 -7.53488e-21)
(1.01091 0.0378344 5.19132e-22)
(1.03841 0.0782119 1.57397e-20)
(1.00202 0.0197105 1.86122e-22)
(0.996836 0.00312511 -4.25421e-21)
(1.01409 0.00120847 -1.66916e-21)
(0.990965 0.0537312 0)
(1.0458 0.00587753 0)
(1.00003 0.000394952 -3.06537e-21)
(1.01657 0.00143746 0)
(1.00128 0.0270114 0)
(0.995896 0.0771555 4.49627e-21)
(1.21738 0.385547 -1.01955e-19)
(1.18227 0.00141151 5.8075e-20)
(-0.224783 -0.0148021 -6.99242e-20)
(0.915827 0.170783 -4.18081e-20)
(0.938927 0.164993 -2.92052e-21)
(0.962034 0.0596828 0)
(1.10899 -0.0238583 8.70341e-21)
(0.986746 -0.177049 1.16183e-19)
(1.04882 0.0235049 -2.02487e-20)
(0.993921 0.00991678 1.2443e-20)
(1.01777 0.000817007 -2.81963e-21)
(1.02733 0.0581404 -1.82385e-20)
(1.01625 0.0151184 3.02308e-21)
(1.14833 -0.0965869 7.87399e-20)
(1.05012 0.0106264 2.0631e-20)
(0.997299 0.0142135 -1.46461e-20)
(0.99994 0.00122239 -1.78397e-20)
(0.88876 0.1524 0)
(1.04668 0.00566253 -1.51491e-20)
(1.11069 0.42107 7.43993e-20)
(0.932318 0.17036 3.2421e-20)
(1.22803 0.183956 4.55242e-20)
(1.05131 0.0411239 0)
(1.05242 0.000567683 2.72605e-20)
(1.01526 0.0146364 2.69865e-21)
(1.05947 0.0127806 -1.70609e-20)
(1.03885 0.00539176 -1.19888e-20)
(1.06821 0.0960691 -5.79971e-20)
(0.990546 0.0223107 -4.25086e-21)
(1.07565 0.0220825 0)
(-0.134275 0.00826488 -1.56985e-19)
(1.01782 0.0136397 2.02944e-22)
(1.0316 0.0195532 -2.83712e-20)
(1.03547 -0.166747 -9.95406e-20)
(1.10618 -0.0202549 -6.4421e-20)
(1.02004 0.0363543 0)
(0.997375 0.00315694 -1.08094e-22)
(0.996469 0.0742365 -3.76339e-21)
(0.700988 -0.218919 -5.52689e-21)
(1.1308 0.0341237 2.35084e-20)
(1.22534 0.0976494 0)
(1.00046 0.000480583 0)
(1.0167 0.00192179 5.68613e-21)
(1.00325 0.0216725 2.78541e-21)
(1.02931 0.0171393 -6.41281e-21)
(1.20329 -0.0545637 -1.65448e-20)
(0.994616 0.0182565 -1.39837e-20)
(0.99767 0.00381003 2.609e-22)
(1.00478 0.0136055 2.22118e-21)
(0.977606 0.00742318 1.49016e-20)
(1.07183 -0.00387749 0)
(0.970665 0.0658471 0)
(1.12292 0.2143 2.20086e-20)
(0.948223 -0.055635 1.16214e-19)
(0.964253 0.0426906 9.088e-21)
(1.29021 -0.0450847 0)
(1.00189 0.0182763 -6.225e-21)
(1.05829 0.0130493 -2.6612e-20)
(0.998732 0.00198617 5.72486e-21)
(-0.294066 0.0149317 -1.81028e-19)
(1.19051 0.130995 9.57109e-20)
(1.33504 0.115374 4.95311e-20)
(-0.142994 0.0810891 0)
(1.01631 0.00572179 3.75567e-21)
(1.05048 0.0101768 0)
(1.00124 0.0287832 -2.17693e-21)
(0.981326 0.0718782 -1.97438e-20)
(1.07746 0.0185817 3.81398e-20)
(1.00006 0.00123829 0)
(1.05863 0.109206 0)
(1.01091 0.00146038 -4.43359e-22)
(1.01836 0.000536111 0)
(0.993609 0.0348842 3.87437e-21)
(1.12974 0.221317 -4.86272e-20)
(0.999988 0.000396342 0)
(1.04851 0.0391767 0)
(0.98073 0.0179226 -3.01159e-20)
(0.97278 0.064052 -7.03242e-21)
(-0.121462 -0.0123536 4.59632e-20)
(1.00161 0.0189597 5.97677e-21)
(0.999517 0.00207587 0)
(1.0027 0.00163565 -2.79221e-21)
(1.0335 0.0167178 -4.09909e-21)
(1.084 0.135224 0)
(1.14982 -0.0241802 -9.32023e-20)
(0.948216 0.168301 -2.61802e-20)
(1.23212 -0.032041 6.06377e-20)
(1.07364 -0.00293277 0)
(1.06826 0.0465091 -8.07422e-22)
(0.979925 0.0188462 8.24471e-21)
(1.01768 0.00114202 3.2108e-21)
(1.03501 0.0313949 0)
(1.00004 0.000439183 -4.16946e-21)
(1.22853 -0.02895 0)
(0.991002 0.0230277 1.05003e-20)
(1.0218 0.0427089 -3.37077e-21)
(1.05633 -0.0710926 -4.6446e-20)
(1.00514 0.0227361 0)
(0.985805 0.078666 -2.51039e-21)
(0.972848 0.0514753 2.14554e-20)
(1.05843 -0.0768941 8.2583e-20)
(1.03728 0.0115978 6.24962e-21)
(0.949323 0.0701712 -2.60475e-20)
(1.05629 0.182116 0)
(1.05412 0.109259 1.45533e-20)
(1.03167 0.0554392 0)
(0.993722 0.00823303 -1.24064e-20)
(1.25179 -0.0351031 -7.98384e-20)
(1.13937 0.111625 -2.08598e-20)
(1.04294 0.0155559 1.16726e-21)
(1.08381 0.128932 -1.50562e-20)
(1.00125 0.00809492 -5.16382e-21)
(1.00465 0.0113604 -2.42865e-22)
(1.00147 0.00804856 -4.44318e-21)
(0.982891 0.0789934 1.31487e-20)
(1.32675 0.13617 0)
(1.05199 0.00458402 0)
(1.00006 0.00104456 5.33338e-21)
(0.966484 0.042925 0)
(1 0.000117093 -6.19238e-23)
(0.999998 0.000758086 0)
(0.723337 0.338354 5.87901e-20)
(0.994476 0.00874683 -5.77998e-21)
(1.02395 0.010329 -6.41582e-21)
(-0.116186 0.0346733 2.61303e-19)
(1.00618 0.00803554 -2.44659e-21)
(1.23408 -0.102027 9.47427e-21)
(1.22595 -0.0334952 0)
(0.8686 0.0878288 5.8899e-21)
(0.530962 -0.236429 1.48631e-19)
(-0.226309 -0.0144775 -3.12188e-20)
(1.01212 0.102665 -2.01539e-21)
(0.831367 0.396638 5.40006e-21)
(0.999315 0.00211648 5.44481e-21)
(1.06119 -0.0253133 0)
(0.999997 0.000243433 6.33355e-21)
(0.977364 0.0338879 2.40415e-21)
(1.0447 -0.131899 3.34122e-20)
(1.00054 0.00464026 3.57387e-21)
(0.97915 0.0739035 1.12441e-20)
(0.631329 1.03746 0)
(1.01576 0.000542889 0)
(1.00412 0.00573898 1.85749e-21)
(0.785911 0.141484 2.85137e-20)
(0.837804 0.744557 0)
(1.02205 0.0401339 3.10877e-21)
(1.0279 0.0045619 -5.96611e-21)
(-0.171854 0.0218051 -4.22623e-19)
(1.1945 0.139158 -6.59053e-20)
(1.00511 0.0128428 -1.04702e-21)
(0.740789 0.210129 -1.82515e-20)
(-0.183758 -0.0122632 0)
(1.01035 0.0153715 0)
(1.00003 0.000751245 0)
(1.02022 0.0111946 9.70732e-22)
(0.999056 0.0163363 0)
(1.01829 0.000648326 0)
(1.0178 0.0128835 -3.64808e-21)
(1.26701 -0.0395091 1.98726e-19)
(1.21139 -0.0838245 0)
(0.976807 0.0352981 -2.98205e-21)
(1.1173 -0.0367791 -4.72416e-20)
(1.01725 0.00101289 -1.53143e-21)
(0.994702 0.0173463 6.92922e-21)
(1.30873 0.188117 0)
(1.03903 0.0151458 -2.34242e-20)
(1.2303 -0.0938057 -1.02898e-20)
(1.13534 0.0326296 0)
(0.970844 0.0477723 -2.39622e-20)
(1.02508 0.00841448 0)
(1.02731 0.00456563 0)
(1.10438 0.332757 0)
(1.04581 0.00683291 2.34628e-20)
(1.00812 0.104597 4.78135e-21)
(0.996446 0.0483125 0)
(-0.221618 -0.00655632 -7.13747e-20)
(0.956587 0.0145932 3.2095e-20)
(1.40076 0.122616 6.23023e-20)
(0.965336 0.0559488 -2.95159e-20)
(1.0028 0.00697669 7.14311e-23)
(1.0021 0.0210372 0)
(1.27847 0.320556 -2.1101e-20)
(1.00238 0.00669668 0)
(0.911955 0.0332536 1.59957e-22)
(0.997512 0.0219916 0)
(1.03652 0.0116427 0)
(-0.13761 0.0300091 -3.27673e-19)
(1.06327 0.0303315 -1.14622e-20)
(0.990812 0.00522968 -1.01482e-20)
(1.01113 0.000897033 0)
(-0.221242 0.0302761 0)
(0.998391 0.0153718 8.08212e-21)
(1.06468 0.0312381 4.42277e-20)
(1.02352 0.0597986 -5.42124e-21)
(1.01561 0.0151443 1.24345e-21)
(1.26437 -0.0214577 1.44407e-19)
(0.550054 -0.228916 0)
(1.00478 0.00683329 -2.21831e-21)
(0.968417 0.0180101 2.39799e-20)
(1.0528 0.00472729 3.70457e-21)
(1.01645 0.00167756 -3.5875e-21)
(0.999839 0.00623705 5.55714e-21)
(0.992787 0.000327598 -2.09833e-22)
(-0.217612 0.0280606 9.26988e-20)
(0.994272 0.000124618 1.15496e-20)
(1.01743 0.000513391 -1.54891e-21)
(0.979276 0.111678 6.4559e-21)
(1.19378 -0.089727 0)
(1.14345 0.0835001 -3.3863e-20)
(1.00003 0.000480437 4.52007e-21)
(1.06528 0.0890065 -2.28116e-21)
(-0.146573 -0.00336012 0)
(1.07224 -0.00637403 9.5106e-21)
(0.989287 0.0012398 8.94136e-21)
(0.994061 0.00769753 0)
(1.19424 -0.0243073 -6.96657e-20)
(1.04195 0.0153882 -9.80853e-21)
(1.00276 0.00662479 2.90437e-21)
(0.905724 0.0862241 0)
(1.03031 0.0176077 1.70899e-20)
(1.01739 0.0126543 2.46588e-21)
(0.950375 0.0241479 0)
(1.01874 0.00566373 -3.04251e-21)
(0.972706 0.173692 1.1837e-20)
(0.993325 0.0108084 8.07485e-21)
(1.00221 0.00674339 0)
(-0.275621 -0.000768374 0)
(1.00907 0.00604765 3.33523e-23)
(1.04431 0.00660883 1.31738e-20)
(1.00074 0.00452338 -1.9224e-21)
(0.997417 0.0466587 0)
(1.06067 0.103632 -1.70935e-20)
(1.00456 0.00663428 9.09505e-23)
(1.03262 0.0166592 0)
(1.32911 0.130067 1.3848e-21)
(1.00058 0.0519382 -3.03277e-22)
(0.771614 -0.0919554 1.02964e-19)
(1.04802 0.0248578 0)
(1 0.000206614 -7.11278e-21)
(1.00001 0.000178979 4.00738e-21)
(1.20472 0.166799 2.82542e-21)
(0.989611 0.0186551 0)
(0.990715 0.00483288 2.56134e-20)
(1.0023 0.00188442 1.52541e-21)
(1.04389 0.0145545 -2.3605e-20)
(0.955431 0.0998011 9.87012e-21)
(0.989399 -0.126944 8.06585e-20)
(0.997872 0.0151842 4.53694e-21)
(0.965156 0.171065 -9.57318e-21)
(0.696167 0.833088 0)
(1.07072 -0.00733681 2.65282e-20)
(1.00003 0.00071419 0)
(0.992643 0.00314886 -7.15412e-21)
(1.04002 0.00961647 9.60859e-21)
(1.00018 0.00214155 4.0947e-22)
(1.00071 0.0167818 -1.00249e-20)
(-0.0204653 0.0837146 -9.60296e-20)
(-0.190144 0.0298942 1.78302e-19)
(1.00052 0.00443838 6.90503e-21)
(1.07271 0.0433137 -4.13167e-20)
(1.0636 0.00230613 1.68894e-21)
(1.06244 0.00277528 -2.64027e-20)
(0.973064 0.00963546 1.10282e-20)
(1.01276 0.00139142 0)
(1.18195 -0.0833806 0)
(1.11224 0.321224 -5.25954e-20)
(0.733902 0.81001 -3.40914e-20)
(1.02442 0.00837258 0)
(1.04075 0.0101214 -8.49927e-21)
(1.03806 0.015377 1.99647e-20)
(1.00601 0.00825589 3.45759e-21)
(0.0431691 -0.0355769 -1.0289e-19)
(1.07637 0.0957833 0)
(1.0437 0.0153394 1.06569e-20)
(1.02064 0.0271439 1.03802e-21)
(1.00911 0.000645878 0)
(0.975197 0.0075095 0)
(1.18496 -0.0837927 -3.13025e-20)
(1.06397 0.0284145 -1.19674e-20)
(0.998963 0.00181295 0)
(-0.25471 0.0211809 -1.00648e-19)
(0.819307 0.698131 -8.2672e-21)
(1.0727 0.486393 5.62606e-20)
(1.07485 0.189272 -2.27314e-20)
(0.999865 0.00594247 0)
(1.02464 0.0228526 -5.53893e-21)
(1.04886 -0.0267278 2.58907e-20)
(1.12723 0.105049 1.54331e-21)
(0.0480449 0.00963887 -1.54603e-19)
(0.412339 0.214139 2.34065e-19)
(0.94771 0.0632598 2.5535e-20)
(0.907645 0.0313679 3.75971e-22)
(1.00019 0.00180974 -5.71625e-21)
(1.04802 0.037341 -1.67624e-21)
(0.969643 0.0185733 2.48902e-20)
(1.00021 0.00199368 6.01845e-21)
(-0.248355 -0.00410281 -6.6099e-20)
(1.01445 0.00130021 -6.25111e-22)
(1.00155 0.0175792 6.28705e-21)
(1.09285 -0.0226517 -2.93486e-20)
(1.00014 0.00200711 3.17718e-21)
(1.11993 -0.119801 1.7782e-20)
(1.04662 0.024488 1.11738e-20)
(1.14817 -0.0532853 0)
(1.02555 0.10756 6.49997e-21)
(0.99999 0.00127189 -9.49705e-21)
(1.05017 0.013541 0)
(1.06362 0.0482105 -2.63125e-20)
(1.05148 -0.0112241 -6.98477e-21)
(1.07757 0.183654 -1.13121e-20)
(0.983631 0.308921 1.0932e-20)
(0.999971 0.000432278 -1.73116e-21)
(1.05611 -0.0226013 3.18679e-21)
(1.03007 0.0502863 0)
(1.01404 0.029831 -3.73066e-22)
(1.00083 0.00276943 -6.41543e-22)
(1.03509 0.0325171 5.85884e-21)
(0.996094 0.000386094 4.27376e-21)
(0.946495 0.0664912 1.2908e-20)
(1.14273 0.0796655 -1.77847e-20)
(0.852056 0.146785 7.90776e-21)
(0.998915 0.00147908 6.30879e-21)
(0.999615 0.0535785 -1.50479e-21)
(1.00237 0.00174905 3.1441e-21)
(0.990503 0.0084886 -1.01923e-20)
(0.814893 0.377603 -2.62149e-20)
(1.00367 0.00461687 1.65443e-21)
(1.01968 0.0610069 3.30879e-21)
(1.14046 -0.0873619 5.4847e-20)
(1.01835 0.00547759 9.65823e-21)
(1.12806 0.111075 -6.39007e-20)
(1.04015 -0.0412731 0)
(0.997126 0.00296797 1.34994e-20)
(0.0121784 0.0512295 -2.81954e-19)
(1.09781 0.00970173 0)
(1.00007 0.00210697 7.18811e-21)
(1.22757 0.00744174 -1.872e-19)
(1.03688 0.0177199 -1.42219e-20)
(1.00003 0.000516966 0)
(0.97943 0.0129753 0)
(0.994035 0.00247896 -1.3206e-20)
(0.999992 0.000201024 0)
(1.04947 0.0453157 0)
(0.973993 0.00729884 -5.45944e-21)
(0.869561 0.644473 0)
(0.986535 0.0532375 -1.63133e-20)
(0.993099 0.00341821 1.17723e-20)
(1.02463 0.038823 7.72666e-21)
(1.06496 0.103459 -1.05295e-20)
(1.08672 0.0253896 -1.98902e-20)
(0.993489 0.00102503 1.30669e-20)
(1.05522 0.011444 1.73856e-20)
(1.02395 0.0229776 0)
(1.07399 0.00268235 0)
(0.980791 0.00671159 1.36592e-20)
(1.0224 0.111101 -6.48844e-21)
(1.02458 0.0105976 -1.95923e-21)
(0.944795 0.0167641 0)
(1.02642 0.00501441 5.07853e-21)
(1.00185 0.00848683 -5.26718e-21)
(1.04356 -0.0527062 0)
(1.01973 0.0114391 2.8837e-21)
(0.816785 0.3577 -2.23119e-20)
(0.992621 0.000806923 0)
(1.04698 0.0136294 -3.38003e-22)
(1.00967 0.005811 2.02019e-23)
(1.08283 0.0141299 2.57275e-20)
(1.00068 0.00434554 1.79608e-21)
(1.10093 0.0099677 -3.49946e-20)
(1.02107 0.0354423 0)
(1.22333 0.0115276 1.36723e-21)
(0.999999 0.000952037 0)
(0.99991 -0.154932 -1.2879e-19)
(1.02879 0.00372213 -3.89642e-21)
(0.971752 0.0612834 0)
(0.999969 0.000630893 5.9829e-21)
(0.976644 0.00957291 -3.05491e-23)
(1.0011 0.00765198 0)
(1.04813 0.0459997 0)
(0.996192 0.000953675 0)
(0.664261 0.279304 0)
(0.700505 0.502625 2.88919e-20)
(1.11047 -0.123316 -1.49057e-20)
(1.05531 0.0219787 0)
(0.953066 0.16194 1.55952e-20)
(1.0071 0.0227481 0)
(0.992506 0.172537 -3.49041e-22)
(1.09985 -0.0221962 0)
(1.00194 0.00440672 -2.60459e-21)
(0.912299 0.0863283 -2.69619e-20)
(0.979357 0.325129 -2.97746e-21)
(0.0932731 0.00190424 1.16122e-19)
(1.03628 -0.0386751 1.23137e-20)
(1.43383 0.211482 2.03205e-19)
(1.06642 0.0488792 -1.65512e-22)
(0.998817 0.0405192 -3.11862e-21)
(1.0001 0.00150228 0)
(1.0573 0.0124947 3.52116e-20)
(1.05056 0.0425587 3.0923e-21)
(1.05321 -0.00852813 0)
(1.01598 0.00540467 3.23309e-21)
(1.03478 0.0529547 9.98767e-21)
(1.18005 0.00659449 1.65356e-20)
(1.00004 0.000179541 0)
(0.990362 0.00788173 2.05315e-20)
(1.05615 0.0107608 5.58994e-22)
(0.476962 -0.0583488 1.08683e-19)
(0.973889 0.0596144 0)
(1.06213 0.0866108 1.89041e-20)
(1.0457 -0.0251871 0)
(0.999982 0.00111362 1.01977e-20)
(0.802406 -0.139171 -6.12719e-22)
(1.01578 0.00632914 -4.36928e-22)
(1.00564 0.0138741 -3.03803e-22)
(1.0051 0.0491512 3.38943e-21)
(1.03041 0.0183058 -1.03127e-20)
(-0.272671 0.0179858 1.63683e-19)
(1.09735 -0.0333303 0)
(0.338345 -0.0405716 0)
(1.00174 0.00068439 -2.3865e-23)
(1.37689 0.32159 1.47468e-19)
(0.063323 0.0656851 1.08727e-19)
(1.22344 -0.0340685 4.69011e-20)
(1.05426 -0.00863503 0)
(1.10822 -0.026844 -1.1868e-20)
(1.19811 0.00744342 0)
(1.02218 0.172785 0)
(0.980304 0.0166877 1.55473e-20)
(0.99706 0.0226545 -3.30417e-21)
(0.903179 0.0920751 3.307e-20)
(-0.307259 0.0104709 0)
(1.0085 0.0229318 0)
(0.977414 0.116246 0)
(0.714199 -0.0689995 0)
(0.993122 0.0119653 -8.73499e-21)
(1.00255 0.00937306 0)
(1.01355 0.0305404 -1.32376e-21)
(0.990392 0.0579093 -5.69739e-21)
(1.00092 0.00773829 5.68881e-21)
(1.03846 0.0108121 -1.29491e-20)
(1.19777 0.174579 0)
(1.35351 0.0355651 5.56722e-20)
(1.03765 0.0107996 0)
(1.00056 0.00638401 0)
(-0.201342 0.00562287 0)
(0.273734 -0.0893598 4.7612e-20)
(1.00649 0.0231271 0)
(0.989952 0.00103542 0)
(1.00055 0.000686351 0)
(0.99852 0.0161574 -4.46854e-21)
(1.31773 0.198061 5.50278e-20)
(1.09377 -0.0354265 7.46555e-20)
(1.07529 0.43918 -1.29927e-20)
(0.98806 0.0514187 6.98631e-21)
(1.00252 0.00978634 -1.01591e-21)
(1.03138 0.014162 6.48869e-21)
(0.947971 0.0128483 0)
(0.997877 0.00340145 6.59338e-21)
(1.079 0.00900006 -1.41316e-21)
(0.968205 0.0402011 -3.34982e-20)
(0.810392 -0.0561994 -2.15507e-19)
(0.999472 0.00618476 5.92816e-21)
(1.00126 0.00331955 5.43126e-21)
(1.0598 0.153324 0)
(1.00834 0.0220384 8.79376e-22)
(1.06105 -0.00682468 -2.65129e-20)
(0.904839 0.279022 0)
(1.04899 0.0138222 -2.10423e-20)
(0.811339 0.646184 3.75723e-20)
(0.243758 -0.0254353 -3.03975e-20)
(0.997338 0.0405923 0)
(1.00096 0.0175175 -4.36385e-22)
(1.25369 -0.0502241 -4.51118e-20)
(-0.282027 0.00816923 -1.35896e-19)
(1.0006 0.154119 1.92499e-21)
(1.03602 0.0175386 2.07871e-20)
(1.2062 -0.0688118 -1.23639e-19)
(0.785194 0.428908 -2.1601e-20)
(0.91674 0.039933 5.17565e-20)
(0.981152 0.0157236 0)
(1.00257 0.00141943 2.90842e-21)
(1.00379 0.00499975 -4.65919e-23)
(1.1339 0.421225 -9.77424e-20)
(1.05431 0.0225282 7.59611e-21)
(0.800407 0.316855 -3.3201e-20)
(1.00003 0.000562068 -5.92848e-22)
(-0.110166 -0.0210992 -3.36694e-20)
(1.32064 0.126576 8.51755e-20)
(0.992708 0.00266152 -7.31015e-21)
(0.997495 0.00609117 0)
(0.676124 0.265736 0)
(0.999369 0.00246479 1.15564e-20)
(1.01004 0.0058873 0)
(1.00363 0.0836408 0)
(-0.0118132 -0.0113882 0)
(0.141315 0.000740156 0)
(1.15789 -0.046608 0)
(1.04359 0.00705859 -1.15828e-20)
(1.11425 -0.00883042 7.36122e-20)
(1.02117 0.164746 -1.12201e-20)
(1.01393 0.00510083 1.07553e-21)
(1.00855 0.00039723 0)
(0.999633 0.00180734 1.31735e-22)
(1.14347 0.402731 1.55867e-19)
(1.00023 0.00162146 4.95858e-21)
(0.993088 0.00392688 -1.38788e-20)
(1.11167 -0.0102263 -2.38474e-20)
(0.9744 0.0114305 1.97328e-20)
(1.14844 0.0959235 -3.62177e-20)
(1.00098 0.000894773 4.30759e-21)
(0.998549 0.00226743 -9.095e-22)
(1.01122 0.00121286 9.53778e-22)
(0.999074 0.00150471 -6.11023e-21)
(1.18565 -0.0282894 3.51907e-21)
(1.00024 0.00178919 -5.55207e-21)
(1.00075 0.0259497 4.25967e-21)
(1.10276 0.0217951 -2.8007e-20)
(0.956881 0.246552 -7.88915e-22)
(0.861754 0.548461 0)
(1.00012 0.00206417 -5.89808e-21)
(1.1765 0.0579533 0)
(0.178333 -0.0837746 -1.42248e-19)
(0.796697 -0.0981798 6.00048e-20)
(0.968517 0.0487426 2.86026e-20)
(-0.257743 0.020073 1.80814e-19)
(-0.119204 0.00687313 3.60435e-19)
(0.993427 0.0116177 0)
(1.01675 0.00285903 -1.83778e-21)
(0.983793 0.0505735 0)
(0.948306 0.0366375 5.98603e-21)
(0.110014 0.00219724 -4.0747e-20)
(1.02559 0.0603347 0)
(1.00081 0.00260112 0)
(1.00021 0.00172466 -4.16823e-23)
(0.291382 -0.0825629 -1.01505e-19)
(0.993072 0.164574 3.12783e-22)
(1.04286 0.00661988 -1.52088e-21)
(1.00065 0.00227045 0)
(0.989593 0.00230018 -1.4921e-22)
(1.09026 0.125946 1.73303e-20)
(1.00946 0.00617075 2.68061e-23)
(1.00688 0.00058075 1.31405e-23)
(1.0728 0.00416723 8.53678e-21)
(0.98947 0.0557855 0)
(0.999715 0.00166332 1.01187e-20)
(1.02633 0.0191482 0)
(0.758347 0.68446 7.39364e-21)
(1.03089 0.0200384 9.35766e-22)
(0.994137 0.0557117 -4.92144e-21)
(0.99586 0.000117189 5.31895e-21)
(1.00031 0.0480964 3.26203e-22)
(1.22041 0.118339 -4.55821e-20)
(1.00015 0.00219358 3.56765e-21)
(0.978228 0.055999 -1.04545e-20)
(0.997539 0.00150645 0)
(1.06079 0.0272527 -2.66543e-20)
(0.673063 0.604635 0)
(0.999999 0.000143465 4.50527e-21)
(0.873594 0.524314 0)
(1.04318 0.0723562 -9.32947e-21)
(0.132679 0.00452687 8.91105e-20)
(1.01578 0.000617802 1.43076e-21)
(1.03116 0.0572768 8.21099e-21)
(1.07078 0.00400371 0)
(1.17698 0.0617051 6.42587e-20)
(0.788923 0.154818 -5.94933e-20)
(0.967799 0.0387682 2.37115e-20)
(1.43243 0.199597 -1.59718e-19)
(1.1714 -0.144776 -1.65245e-19)
(0.961439 0.026249 0)
(1.01111 0.000684367 0)
(1.22134 -0.0386322 8.95067e-20)
(0.997546 0.000836063 8.70873e-21)
(1.00005 0.00107632 3.48972e-22)
(1.01339 0.0145576 -1.33102e-21)
(1.00007 0.00120377 0)
(1.12564 0.0415201 0)
(1 2.0785e-05 0)
(0.999989 0.00019664 0)
(0.891363 0.275068 1.54408e-20)
(1.02421 0.102978 0)
(1.01397 0.000107177 0)
(0.931191 0.121783 1.18912e-20)
(0.952022 0.0199054 -3.30087e-20)
(1.08369 -0.0415089 1.01078e-19)
(1.0501 0.0208344 0)
(0.853445 0.614942 0)
(0.99923 0.0171212 0)
(1.09584 -0.0205787 -3.15669e-20)
(1.00013 0.161867 -2.02539e-21)
(0.540995 -0.0632016 0)
(1.05562 0.0307453 1.67576e-20)
(-0.01875 -0.0292756 0)
(1.00002 0.000585291 0)
(1.05372 0.00273509 1.68551e-20)
(1.00181 0.00251519 0)
(0.999469 0.039077 -2.42743e-21)
(0.988716 0.0187597 -5.1337e-21)
(1.14326 -0.0527806 0)
(0.869923 0.154412 1.54463e-20)
(1.05259 -0.0190609 2.51649e-20)
(-0.268794 0.000446727 1.46965e-19)
(1.00076 0.00291914 5.18366e-21)
(1.01206 0.992717 0)
(1.05271 0.00163262 0)
(1.02125 0.0217613 3.12508e-21)
(0.873658 0.0757599 4.04017e-20)
(1.07993 0.0382647 0)
(0.231459 -0.0218273 -2.5792e-20)
(0.997194 0.00615074 0)
(0.95101 0.0997777 4.24585e-21)
(0.95197 0.233842 0)
(1.02184 0.061639 6.39591e-21)
(0.842147 0.149805 -2.76372e-21)
(1.00001 0.000243608 4.23488e-21)
(1.01569 0.003162 -9.14059e-22)
(1.00001 0.000221345 -4.21952e-21)
(1.02411 0.483177 0)
(0.99925 0.00289204 0)
(1.00177 0.00484883 9.44608e-21)
(1.01245 0.0139052 0)
(1.01026 0.00112853 -5.46739e-22)
(1.00164 0.0084872 9.49568e-21)
(1.00026 0.00659746 -6.1501e-21)
(1.02528 0.0403178 -9.19639e-21)
(1.00308 0.0147489 4.65023e-21)
(0.999295 0.00228229 -1.25689e-20)
(0.956883 0.0122463 -1.70352e-20)
(1.0063 0.085766 1.66652e-21)
(0.936926 0.119273 0)
(0.994106 0.000495302 1.46852e-21)
(0.17469 -0.00729137 0)
(1.00264 0.0351089 8.25573e-22)
(1.35338 0.31338 -2.01754e-19)
(0.906729 0.155957 0)
(-0.0296694 0.0151149 -8.41898e-20)
(1.09293 0.0706226 -4.93965e-20)
(1.05304 0.00307994 -2.50323e-20)
(-0.193223 0.0325894 0)
(1.08914 0.0265002 2.76403e-20)
(1.06114 0.464797 -6.22412e-20)
(1.0215 -0.0854582 -1.88008e-19)
(1.09022 0.120212 0)
(1.00021 0.00187902 0)
(1.00473 0.0130173 1.33196e-21)
(1.00572 0.058611 8.23408e-22)
(1.22508 0.112489 -1.02624e-19)
(1.01262 0.0305823 0)
(0.0132829 0.0109755 0)
(1.00429 0.0285182 -1.63899e-21)
(1.04364 0.740893 0)
(0.946332 -0.16564 3.03847e-20)
(1.04538 -0.0219021 2.59429e-21)
(1.0458 0.0256299 0)
(-0.0341547 0.0423198 0)
(-0.104491 0.00481886 -1.09192e-19)
(0.941981 0.0175312 0)
(0.993735 0.00177409 1.35689e-20)
(0.999994 0.000820745 -1.13772e-20)
(1.05523 0.0126186 -1.72838e-20)
(1.01591 0.00303751 0)
(1.01247 0.00111762 -7.89976e-22)
(1.11332 0.163251 0)
(1.03355 -0.13119 5.6897e-20)
(0.997629 0.00131211 9.48608e-22)
(1.01172 0.0301117 -6.73879e-23)
(0.959002 0.0114856 1.2731e-22)
(1.28335 0.310105 -4.56109e-20)
(1.04953 -0.0302144 2.85932e-20)
(0.999659 0.0028788 0)
(1.04138 0.0692902 2.43995e-20)
(1.16583 0.0253477 -4.77102e-21)
(0.997444 0.0500155 0)
(1.00032 0.005607 -6.06863e-21)
(-0.0510405 0.0115809 1.23859e-19)
(0.987007 0.0421682 -2.98419e-21)
(0.995076 0.0188011 1.69172e-20)
(0.898383 1.02784 0)
(0.999341 0.0731198 0)
(0.978733 0.00663687 0)
(-0.162583 0.0378329 1.82194e-19)
(0.447814 -0.215371 1.01165e-19)
(0.151171 0.0714382 3.99159e-19)
(0.990825 0.00985233 -1.8848e-22)
(0.978781 0.0586755 0)
(1.22928 -0.0190469 0)
(1.01278 0.0144787 -4.23003e-24)
(1.02027 0.0281859 -8.55234e-22)
(0.999993 0.000400108 0)
(1.0561 -0.0018993 4.60639e-21)
(0.99791 0.00394347 1.46689e-20)
(1.00104 0.000841934 -4.88178e-21)
(1.04771 0.00300408 -1.15297e-20)
(0.797229 0.131768 2.68928e-20)
(0.937456 0.443684 -3.20413e-21)
(1.00888 0.0152226 -2.08223e-21)
(0.982155 0.0116926 1.43288e-20)
(0.997474 0.000358658 -8.14336e-21)
(1.01981 0.0263789 3.85086e-21)
(0.985347 0.0489192 0)
(1.0148 0.0034694 1.40759e-21)
(1.19254 0.0106002 3.46955e-20)
(1.00774 0.109546 -4.24582e-21)
(0.993016 0.0302767 1.23475e-20)
(0.995722 0.00496213 -1.8607e-20)
(1.0101 0.0143023 0)
(1.0026 0.00467034 -2.47636e-21)
(1.03171 0.0385007 0)
(0.019646 -0.0112901 0)