/*--------------------------------*- C++ -*----------------------------------*\
| =========                 |                                                 |
| \\      /  F ield         | OpenFOAM: The Open Source CFD Toolbox           |
|  \\    /   O peration     | Version:  v2012                                 |
|   \\  /    A nd           | Website:  www.openfoam.com                      |
|    \\/     M anipulation  |                                                 |
\*---------------------------------------------------------------------------*/
FoamFile
{
    version     2.0;
    format      ascii;
    class       surfaceScalarField;
    location    "350";
    object      meshPhiCN_0;
}
// * * * * * * * * * * * * * * * * * * * * * * * * * * * * * * * * * * * * * //

dimensions      [0 3 -1 0 0 0 0];
oriented        oriented;


internalField   nonuniform List<scalar> 
14907
(
-0.00726718
-0.0157762
0.0229992
0.00411678
0.020169
-0.0247516
-0.0197198
0.0216752
-0.00216887
0.00137872
0.000996611
-0.000312723
0.00282959
-0.00251778
-0.0240063
-0.00369773
0.0277557
0.00195634
0.00393794
-0.00589506
-0.0025301
-0.00188088
0.00440304
-0.00127459
0.0222201
-0.0207408
-0.0230677
0.0288647
-0.00551972
-0.00178709
0.00271116
-0.000924109
0.00539173
-0.00130751
-0.01665
0.00329755
0.0145764
0.00167359
-0.0126851
0.0118439
0.00136788
-0.0119401
0.010533
0.00609837
0.0195174
-0.0247546
-0.0224019
0.0293441
-0.00484353
0.00452349
0.000295593
0.0215221
-0.0287983
0.00429971
-0.00332146
-0.000982242
-0.0327335
0.0357058
-0.00098843
0.00606821
-0.00617137
8.89504e-05
-0.00231973
9.14532e-05
0.00357836
-0.00646268
0.0253586
-0.0190211
-0.0175023
0.0211504
0.000728429
0.00940928
-0.0101875
-0.00235963
0.0240783
-0.0211276
0.00043749
0.013156
-0.0136883
0.00348783
0.016081
-0.0193077
-0.000357304
-0.0155154
0.0157558
-0.0320305
0.00864975
0.0234774
-0.0028439
0.00154445
0.00129939
-0.0269928
0.00380639
-0.0234364
0.0147691
0.00860634
0.0121077
-0.000834968
-0.0114069
-0.0276038
0.0209155
0.00197056
0.00884839
-0.0108677
0.00964873
-0.00823055
-0.00142686
-0.00664487
-0.0199174
-0.0108623
0.00258984
0.00819726
0.00199289
0.00230497
0.00127804
0.0108422
-0.0121883
-0.00352449
0.00548088
0.0272063
-0.00570632
-0.0217303
-0.00285706
0.00254338
0.00770995
-0.000182336
-0.0075531
-0.004405
-0.00784021
0.0121046
0.00682131
-0.00752326
0.000706789
-0.0147875
0.00916968
0.00553073
0.00816695
0.000528265
-0.00871332
-0.00330098
0.00719848
-0.00305019
-0.0165435
0.0119737
-0.0155218
0.00710344
0.00831986
-0.00442623
-0.00752602
0.0118308
0.00951958
-0.0075936
0.00401022
-0.0275746
-0.0139225
0.0176622
0.0120579
-0.0166535
-0.00702811
-0.0164955
-0.00465106
-0.0110356
-0.0276928
0.00162377
0.0261408
0.0206741
-0.025235
0.00487014
0.00325306
0.00873358
-0.022524
0.00254438
0.00849393
0.00701616
-0.0155531
0.0210741
-0.0213559
0.000184769
0.0229835
-0.007529
-0.015553
0.000423347
0.00439678
-0.00482573
0.00342783
-0.0022469
-0.00118141
-0.0251604
0.0037299
0.0215023
0.00823221
-0.0127623
-0.00122973
0.0190753
0.00790421
-0.00594985
-0.00101695
0.00695214
0.0163606
-0.020852
0.00427303
0.0053594
0.0191685
0.00293513
-0.000106325
0.000407524
0.0248151
-0.0252215
0.00143603
0.00610288
-0.00757963
-0.00558327
0.00186924
0.0037149
-0.00525944
-0.00957031
0.000299978
-0.00315865
0.0240042
-0.0204461
-0.00374577
-0.00156704
0.0133387
-0.0118219
0.00361168
0.0192372
-0.00928799
0.00919435
6.6756e-05
-0.0371628
0.0176653
0.0192698
0.00538517
-0.00157655
-0.00381478
0.0068023
-0.0204501
0.0134245
-0.00925735
-0.0279952
0.0215491
-0.00276218
-0.0188068
-0.00220332
0.002502
-0.0116481
0.012
-0.00241141
0.0153782
-0.0158542
-0.0254299
0.0068714
0.0186544
-0.00907982
0.026977
-0.0177811
0.0205833
-0.0188931
-0.00160017
-0.00103408
-0.00992444
-0.00279506
0.0163959
-0.0134105
0.00209992
-0.00209992
-0.00534737
0.000506665
0.0048213
0.000196533
0.00468451
-0.00489073
0.000273984
-0.00991359
-0.000849145
0.0145318
-0.013728
-0.00324755
-0.00222463
0.00545828
0.00732382
0.0143602
-0.0219641
-0.025729
0.0167328
0.000249096
-0.031022
0.0195193
-0.0177614
0.00134135
-0.00783121
0.00836024
-0.00830535
-0.0164208
0.0249855
-0.00130254
0.0118467
-0.010677
0.00195243
0.00147515
-0.0087166
0.0171552
-0.028965
0.00243988
0.0267617
0.019099
0.00609381
-0.025217
0.0219296
-0.00236595
-0.0229442
-0.00140584
0.00275571
-0.0013503
0.0236327
-0.0171285
0.00325099
-0.00578864
0.0208044
-0.00235466
-0.0185692
0.0247371
-0.0253124
0.000589054
0.000497155
-0.00586631
0.00946037
0.0144393
0.00336372
-0.00525241
-0.00223509
-0.00656221
0.00870176
-0.00730411
0.00403867
0.0351079
-0.00851898
-0.026499
0.0067125
-0.00531537
-0.00241717
-0.0161935
0.018539
-0.00346107
0.00147578
0.00198516
0.00133841
-0.00577192
0.00440831
0.0162612
-0.0188723
0.0065995
-0.00549441
-0.00113908
-0.00224733
0.00288615
-0.000639058
0.0132562
0.00815791
0.00768335
-0.000868773
0.00260356
0.00277608
-0.0144881
0.00208299
0.012264
0.0249563
-0.0058955
0.0163957
-0.00207704
-0.0144323
0.00304179
0.00260246
-0.00566263
0.015509
0.00250525
-0.0182545
0.0169614
-0.0250751
0.00364551
-0.00713337
0.00344404
0.00553772
-0.0219689
0.0167457
0.00212459
0.0186152
0.000702726
0.00955521
-0.0103382
0.000385794
-0.0209698
0.0206692
-0.00197941
0.00102192
0.0011645
0.00120345
-0.00461133
0.0034084
-0.00311085
0.00272789
0.000382622
0.000622403
0.0176177
-0.0168579
-0.0155752
-0.000157031
0.000400785
-0.0131497
0.0126605
0.024434
-0.00346287
0.000320062
0.00625514
-0.00305339
0.00112278
0.00193039
-0.000688717
0.00254574
-0.00185708
0.00124373
-0.00602066
0.0047495
0.0290948
-0.0197827
-0.00932957
-0.019523
0.0199907
-0.0172678
0.0181298
-0.00106636
0.0180654
-0.020562
-0.00264348
0.00517651
-0.00254118
-0.00246637
-0.000587448
-0.00112051
-0.00164148
0.000106354
-0.00321759
0.0168132
-0.0143566
-0.00257254
-0.000926559
0.0321348
-0.0316442
-0.00415375
0.00194877
-0.00382015
-0.000827885
0.00464397
0.00725302
-0.00635201
-0.000921468
0.000254951
-0.00542861
0.00517669
0.00183045
0.0005419
-0.00237238
-0.00382994
0.0225316
-0.018882
-0.0039399
0.00435801
0.00914697
-0.00897198
-0.00024595
0.0124907
-0.0121757
-0.0014406
-0.00140341
0.0257362
-0.0178855
-0.00809629
-0.0114032
0.00904848
-0.0110845
0.012294
0.00182203
-0.00322833
0.00415074
0.000901383
-0.00506879
0.00949698
-0.0205416
0.0110104
0.00269189
-0.000902828
-0.00178914
0.0144078
-0.0131565
-0.00128107
-0.000133858
-0.00275738
0.00289097
0.00590558
0.0103304
0.00517854
-0.00397569
-0.00167761
-0.00247876
0.00350723
-0.00634073
0.00281804
-0.00432006
0.00268854
0.00162887
0.013207
-0.0134559
0.000206453
0.026228
-0.00308845
-0.0234357
-0.014048
-0.00044769
-0.00453207
-0.00748069
0.0119275
0.00747688
-0.00603022
-0.00147327
-0.00428645
0.0137764
0.0360079
-0.0106455
-0.0252792
-0.00380278
-2.06225e-05
0.0180893
-0.0182947
-0.0028896
0.0215736
0.00200869
-0.00214275
-0.0130283
0.0183496
-0.00381862
-0.00386261
0.00340343
0.000178537
-0.00657894
0.00601419
-0.000923524
-0.00175455
-0.0025693
0.00407027
0.00416201
-0.00528523
0.00356782
-0.00621982
-0.00370468
0.000424092
0.00327938
-0.000165116
-0.0130906
0.00395016
0.000193317
0.0218177
-0.00447979
-0.0176012
-0.0256446
0.0278543
-0.00253094
-0.00157577
-0.00463002
0.00617866
0.0113648
-0.0305143
0.0193017
-0.0111115
0.00968253
-0.00180332
0.0139745
-0.0122567
0.00399067
-0.000545026
-0.00344794
0.00808183
0.001574
-0.00264285
-0.00519636
0.00775519
0.000123332
0.00977438
-0.00994172
-0.000641661
-0.00323331
0.00386669
0.00658536
0.021861
-0.0281666
-0.00348725
0.00573898
-0.00227161
-0.00196598
0.0100908
-0.0206148
0.0040447
-0.00400716
-4.07044e-05
-0.0307714
0.0294375
0.00833569
-0.0104216
0.00853228
0.0128797
-0.0081654
0.00879696
-0.0224102
0.0198041
0.00313424
-0.00172267
-0.00873976
0.0120354
-0.0172835
0.0056946
0.0115258
-0.000903753
-0.0070882
0.00801666
0.0222013
0.00697541
0.0168237
-0.019969
0.00254797
0.00388945
0.00780772
0.00049302
-0.0289637
-0.00675238
-0.0252947
0.00512714
-0.00763917
0.0038378
0.0129904
-0.0138837
0.0175715
-0.00507149
-0.0126738
-0.000283784
-0.00460871
0.0102967
-0.00880962
0.000574242
0.000180952
-0.0252355
-0.0104844
0.0118204
-0.00147983
0.00362334
0.000365045
-0.00373597
0.00495753
0.00110477
0.00158709
0.00123972
0.00600014
0.00841028
-0.0061577
-0.00227878
0.0097814
-0.0084468
-0.00926677
0.00457099
0.00467994
-0.00312414
-0.00218747
0.0053123
-0.00361508
-0.013759
-0.0199518
0.0269552
0.00970181
-0.0100066
0.00971913
-0.0143509
-0.00532116
-0.0166671
0.00547995
0.000584842
0.00669482
-0.012452
0.00562889
0.0257538
0.000781354
-0.00909315
0.0049041
0.00255347
0.00996449
0.000289245
-0.00399526
0.00204136
-0.00535994
0.00455895
0.000793801
0.0063212
0.00807618
-0.00873212
0.00784869
0.0227075
-0.0199076
-0.00242416
-0.0119345
0.00781166
0.00396349
0.0169283
-0.00162882
-0.000498788
0.00956419
-0.0191989
0.0265319
-0.00753249
0.00952924
-0.00109643
-0.00236483
-0.0192169
0.00101363
0.00102584
-0.0207305
0.019575
0.00363706
-0.00675771
-0.00158968
-0.0171289
-0.00358481
0.0295698
-0.0287741
-0.00096481
-0.0121649
0.0015365
0.00573338
-0.00547489
0.00945768
-0.00228913
-0.00723029
-0.00119649
0.00422335
-0.0044895
0.00176322
-0.0133826
0.000419755
0.0237639
0.0229828
-0.00056822
-0.00507672
0.00442454
-0.00229115
-0.0251503
0.0274326
-0.0268178
-0.000453593
-0.0247086
-0.0061608
0.0309785
0.0032732
0.0183042
0.00269216
0.00661709
-0.00930225
-0.0103201
0.000310601
0.00995735
0.00586595
-0.00170125
-0.00417222
0.00359904
-0.00377028
0.000168662
-0.0158916
0.0110649
-0.00526748
0.00333421
0.00192916
0.0283598
0.00101565
-0.0286399
-0.0103191
-0.00168028
-0.0223636
0.0205483
-0.00148678
-0.000821249
0.00428991
0.000980365
-0.00528611
0.00436804
-0.00143299
-0.00293835
-0.000543515
-0.0214409
0.0139176
0.00724755
-0.00443584
0.0110077
0.0212116
-0.0174191
0.0120698
-0.011959
-0.000232053
0.00949085
0.00025599
-0.00206695
0.00190245
-0.0018488
-0.00501695
0.00681369
-0.00437161
0.00749574
0.00647473
0.00357789
-0.00881041
0.0166571
0.00502533
0.000833942
-0.000107478
-0.00322041
0.00390583
-0.0144657
0.00116428
5.11741e-06
0.0193545
-0.0195159
0.000162744
-0.0105728
-0.00231896
-0.000151407
0.00247023
0.0293348
0.0173101
-0.0153996
-0.0144024
0.0155601
-0.000196372
-0.0215317
-0.00125112
-0.00851027
0.00580888
0.00264544
-0.00214732
0.00563881
-0.00721466
0.00104254
0.00505419
-0.00363078
-0.00142856
-0.00487121
0.00757838
0.000252889
-0.0117833
0.0179226
0.0121851
0.017429
-0.00171571
-0.015713
-6.60118e-05
0.00439156
0.00119949
-0.00446598
0.00326015
-0.0255632
0.006209
0.0139952
0.0091355
-0.00875915
-0.000416443
0.0196281
0.0144534
-0.00870192
-0.00586445
-0.0127001
0.0065356
0.00258901
-0.0211172
0.0056059
0.0153815
0.00767721
-0.010425
-0.00597491
-0.00134829
0.00640988
-0.0083215
0.0171027
-0.00396838
-0.0132804
0.000796653
-0.0248477
0.0238889
0.00254263
0.00250645
-0.00194717
0.00555549
-0.0186461
0.00779421
0.0108012
-0.00138891
-0.00717803
-0.0372969
0.012426
0.0243882
-0.0328239
0.00190815
-0.0119995
-0.0256404
0.00659502
0.00777052
0.00437418
-0.00332873
-0.00104923
0.00946705
0.00108094
-0.0106166
-7.16762e-05
0.00289909
-0.00313072
-0.00530517
-0.0107082
0.00157515
-0.00157515
0.00905662
-0.00862369
-0.00415332
0.0240746
0.0019444
0.0218194
-0.001986
-0.0192579
-0.00275266
0.000505069
0.0306606
-0.0246163
-0.00588533
-0.000333809
0.00513098
-0.00480508
-0.0032079
0.00440167
0.00138038
-0.00734695
-0.000660946
0.00630553
-0.00563695
-0.00186116
0.00892827
-0.000259923
-0.0087451
0.00161086
0.00243019
-0.0190822
0.000660229
0.0194949
0.00936643
-0.00120175
0.00457202
-0.00457202
0.0016688
0.0128526
-0.0146834
0.00210685
-0.00748426
0.00537459
-0.00313565
0.0217962
-0.018273
0.00301485
0.00896616
-0.00098047
-0.00219023
-0.000740454
-5.71847e-05
0.0239733
0.0139906
-0.00412148
-0.00135858
0.00546888
-0.00118047
-0.0015771
-0.0132581
-0.00808113
-0.0249172
0.00456837
0.020496
-0.00236947
0.00124891
0.00476937
0.0294238
0.00204763
0.00559284
-0.00120016
-0.0024588
-0.0119298
0.0235315
-0.00141706
0.00100782
0.0035966
-0.0218145
0.0185042
0.0322734
-0.00380484
-0.0280768
-0.00382623
0.0119971
-0.018826
-0.00039249
-0.00272982
0.00344076
0.0135687
-0.00407412
0.00106455
0.00300721
-0.000302639
-0.010568
0.0289019
-0.0311873
0.00354755
-0.00412009
0.000566914
-0.0190626
0.000667536
0.0180598
0.00434385
0.00598074
0.00341436
0.0120461
0.00126503
-0.0254614
0.0269081
-0.00156049
-0.00622717
-0.0187072
-0.00518017
0.00138072
0.00379629
0.0116058
0.0091433
-0.000295339
-0.0150096
0.000518762
0.0144024
-0.00264059
0.000853454
0.0134343
-0.0137067
0.00268731
-0.0124182
0.000418553
-0.0324956
0.0364746
-0.00395703
0.0245008
-0.00265158
0.00408424
-0.00143617
0.0332418
-0.00408874
-0.0290427
0.00903591
-0.00902167
-1.87813e-05
0.0253207
0.0016956
-0.0269539
-0.0182426
-0.00289829
-0.00118372
0.00230632
0.0138054
-0.00249177
-0.0112991
0.0267859
-0.0158694
-0.0107931
0.0066467
-0.00192132
-0.00221606
0.000545836
-0.00257574
0.00202984
0.0350362
-0.00569937
-0.028966
0.00460294
0.00920036
0.00183654
0.0106127
-0.012492
0.0178203
-0.00141941
-0.00265588
0.00507942
-0.014288
-0.0146367
0.0297322
-0.0226346
0.0138647
0.0103679
-0.000966686
-0.000921
-0.00261429
0.0254379
-0.0219483
-0.0257929
0.000315067
0.00246558
-0.000519096
-0.00194657
-0.0277735
0.000341487
-0.00306255
0.00940972
0.00782664
0.000321445
-0.00816457
-0.00489118
-8.23606e-06
-0.0043317
0.00635813
-0.0020593
-4.02386e-05
-0.00410749
-0.00945275
0.000403045
-0.00260705
-0.000912791
0.00754742
0.00137025
-0.0240054
0.0226853
0.0244627
-0.0238323
-0.00328087
0.00459819
-0.0108685
-0.0078789
-0.0366295
0.00453837
-0.00759242
0.000448308
0.00709062
0.0231536
-7.4328e-05
-0.0188015
-0.000240045
0.00944711
-0.0113211
-0.0187698
-6.19894e-05
0.0192988
0.00500368
-0.00701287
0.00198158
-0.0131447
0.0272521
0.0278975
0.00542913
0.00195416
0.000756989
0.00231257
-0.0260218
0.0237168
-0.0147511
0.000182465
0.00401399
-0.0199081
0.0160386
-6.73885e-05
-0.0150976
0.00393276
-0.0090079
0.0182424
-0.0315598
-0.0205697
-0.00105925
0.00293772
0.0167458
-0.015943
-0.00089945
-0.00179774
-0.00284416
0.00464108
-0.0150308
0.0113303
0.00182832
-0.000954468
-0.000998276
-0.00116058
0.0049859
-0.0038369
0.026209
-0.00228043
-0.0243655
0.00429208
0.0225374
-0.0199212
0.00686501
0.0147414
0.00384108
-0.0161277
0.0123115
0.0114825
-0.0041889
-0.00733212
-0.0040728
-0.00151198
0.02661
-0.00170309
0.0066735
-0.00306847
0.00712831
-0.00802707
-0.00235182
0.00182688
0.00015651
-0.0230254
0.0253446
-0.00223649
0.016825
-0.000980196
-0.0161618
0.00902057
0.000469762
-0.00177515
0.0303737
-0.0279962
0.000961402
-0.00313736
0.00141963
0.00146641
0.0176219
-0.0203652
-0.0121657
0.00551641
-0.012289
0.00651256
0.00576781
-0.00532968
-0.00692059
-0.00275291
0.0189856
-0.00839523
0.00891099
0.001222
0.00591568
-0.00600311
7.79571e-05
-0.00516158
-2.32673e-05
-0.000177817
-0.0233176
-0.00184632
0.00253863
0.0140027
-0.00092402
-0.0185536
0.0253791
0.00518681
0.00215515
-0.00293046
0.000774905
0.00794689
-0.00796988
-4.68177e-05
0.0116474
0.0214092
-0.0193649
-0.00182824
-0.00925964
0.00975124
0.00154793
0.0155119
-0.0211955
0.00541766
0.0010162
0.0107203
0.0246349
-0.000639767
0.000732198
0.00173334
-0.00240645
0.0012256
-0.00266199
0.00284622
-0.000185382
-0.00711562
0.00487356
-0.0241316
0.00116269
0.0152527
0.000424187
0.00803505
-0.008475
0.00609208
-0.00721157
0.00106736
-0.00212897
-0.00120146
0.00332994
-0.00287258
0.000405727
0.00136195
0.00833416
-0.0097845
-4.98642e-05
0.0102631
-0.010121
-0.000342856
-0.0138775
-0.000662474
-0.00897575
-0.013797
0.000152176
0.00984094
-0.00250088
0.00181212
-0.00225488
0.0082184
0.0294193
-0.0276771
-5.4722e-05
0.00744827
-0.00741616
0.00959291
3.31892e-05
-0.000782326
0.00526507
-0.00447402
-0.00218735
-0.0129211
-0.00671612
0.00702878
-0.000342459
0.00867371
-0.00821826
-0.000522934
0.00427429
0.0019951
-0.0146979
0.0109916
0.00363736
0.0104352
-0.0113942
-0.00366298
0.00899685
-0.00151432
-0.00562587
0.00473441
-0.00102388
-0.00371579
0.00231498
0.00108036
-0.00812317
0.00863247
-0.00027779
0.0143967
-0.0142921
0.0265363
-0.0195935
-0.01176
0.0101634
0.00127698
0.00160514
0.0157626
0.027574
-0.0264035
-0.00102168
0.00895481
-0.00683791
0.00248176
0.00582108
-0.00540921
-0.000433645
-0.00283481
-0.0181471
0.0206622
0.0124957
0.00415942
-0.00426303
-0.0142667
0.0238102
-0.0222384
-0.00167586
-0.00180914
0.00341593
0.0275782
-0.0267851
0.000464185
0.000793706
-0.0127714
0.0119334
-0.0026632
-0.00350959
-0.0180952
-0.000119585
-0.0010883
-0.00519872
-0.00342177
0.00862677
0.0228375
0.000930993
-0.00287817
0.00194682
0.00945043
-0.000533995
-0.00895822
0.000254065
-0.0120005
0.0128512
-0.00446014
0.00397582
0.000477544
-0.0217091
0.0102263
0.0112608
3.45954e-05
0.00293818
-0.0210277
0.00200729
0.0189217
0.0255076
-0.00203757
-0.0232818
0.00261978
-0.00261978
0.00398448
-0.011441
0.00739913
0.0199575
-0.00462284
-0.00181203
-0.000595031
-0.0135291
-0.00106899
-0.0247003
0.00187635
0.0180661
-0.00253257
-0.0155057
-0.00381499
0.0076902
0.00945628
-0.00845129
-0.00106061
0.0267247
-0.00189789
0.0114513
-0.000753142
-0.0106978
-0.0134164
0.0147191
-0.010255
0.00204444
-0.00264145
0.021883
-0.0193304
0.000799377
0.00778778
0.00298209
0.0194073
0.00114988
-0.0122765
0.0260124
-0.0229465
-0.00301365
0.0378931
-0.032115
-0.00598969
-0.0038935
0.00111353
0.00277829
-0.0158043
0.0196878
0.00297705
-0.0047924
-0.00195169
-0.0238398
-0.0132696
0.0136806
-0.00037365
0.00803107
0.0224387
-0.0299076
0.000622505
-0.00960144
0.00894682
0.0205511
-0.0163564
0.00236877
0.00703998
-0.0184227
0.00119962
-0.00326557
-0.00120024
0.0100159
-0.000697831
0.002302
-0.00582534
-0.0107031
0.0164934
-0.0104108
0.0104843
-0.00543252
0.00725297
-0.000570831
0.0171597
-0.0218959
0.0352387
-0.0232644
-0.00694425
0.0108657
-0.000693042
0.0255202
-0.0247182
-0.00118846
-0.00307535
0.000264843
0.00281015
-0.0065708
0.0057978
-0.0081292
-0.00399439
0.0121114
-0.00609301
-0.00115311
0.0328062
-0.00553807
-0.027322
-0.0063455
0.00614168
0.000187007
-0.00722316
0.00701722
-0.00260017
-0.023977
-0.00010967
-0.00752547
0.00374165
0.00098721
-0.0030629
0.000933343
-0.0093777
0.00142171
-0.00350853
0.00208445
0.010573
0.0177796
-0.0166233
-0.00122912
-0.00477253
0.00514826
0.00224908
-0.0126482
-0.00330209
0.00959189
-0.00732511
0.00920073
-0.00172528
-0.0166542
0.0153978
-0.01457
-0.00099585
-0.00652035
0.00276576
-0.0010061
-0.000796231
0.00393923
0.0198494
0.0106283
0.000819228
0.00417741
-0.00171312
-0.0024661
0.000778317
-0.0113044
-0.00895652
-0.000565071
-0.00806241
0.00846792
0.00519395
-0.00114101
0.00580955
0.00192965
-0.0191917
0.0173955
0.0289916
-0.0277677
-0.00143985
0.000627044
-0.0161804
0.0214062
0.00182864
-0.00282339
0.00133658
-0.000131898
0.00701696
-0.00689393
0.00275914
0.00141672
-0.000544163
0.0096222
-0.00763423
-0.00394427
0.00152821
0.00241435
-0.00285891
0.00258054
0.000278069
0.00147458
-0.00469025
-0.00938604
0.00221405
-0.00252833
0.00708006
-0.00565227
0.00214042
-0.00648268
0.000474719
0.00599383
0.000134389
0.0189958
-0.00126846
0.026755
0.00650462
-0.00147648
-0.00087925
-0.0242657
0.0268594
-0.00264966
0.0080434
-0.000245977
-0.00296146
0.004821
-0.00186025
-0.0125258
-0.00984193
0.0220889
0.0296139
-0.0351259
0.00536233
0.0112633
0.0152865
0.000891189
-0.0130944
0.0120939
0.0184704
0.0163983
-0.0220067
0.0103984
0.0114261
0.00365743
-0.00482853
0.00281954
-0.000133391
-0.0165194
0.00112034
-0.0271425
-0.00122743
0.00270309
0.00531359
-0.00160833
-0.00370724
0.0221556
0.0238757
-0.0224481
0.00536427
0.00253758
0.0269187
0.0011101
0.00243355
-0.00720407
0.00706303
0.0027666
-0.00234345
0.00094143
0.0328943
-0.00365366
0.0203009
0.000453534
-0.0205283
0.0256787
-0.0240096
0.00953773
-0.000869252
-0.00868922
0.00893352
-0.0143537
0.000892621
0.00270437
-0.0246515
-0.000472655
0.0255879
0.00163144
-0.0174693
0.0153875
-0.00100259
-0.0051267
0.0061063
-0.0267424
0.00276093
-0.00879129
0.000217458
0.00861171
0.0061047
-0.00140381
-0.00470548
-0.0136359
-0.00113567
-0.00175422
0.00258342
-0.000829428
0.000483158
0.00227512
0.0015655
0.0161036
0.0282324
-0.00381392
0.00417104
-0.000361387
-0.00221172
-0.000192081
0.00240377
0.00676194
-2.70818e-06
-0.00676881
-0.0134142
-0.0015418
0.00489894
0.0038163
-0.00346138
-0.000358509
0.0083301
-0.00865119
0.000291493
0.0204308
-0.0205347
-0.000889457
-0.0127623
0.0296885
-0.00319641
0.00348449
0.003387
-0.0115298
0.00119279
-0.00461734
0.0034181
-7.21458e-05
-0.00250183
-0.00198831
-0.000330736
-0.00413454
0.000801702
0.0239209
0.00157366
0.0212408
-0.0243951
0.00307638
-0.00363465
-0.0154275
0.00335977
0.0234376
-0.0149685
-0.000519388
0.0102808
-0.00985582
-0.00157402
0.00256721
-0.000993421
-0.00240179
-0.00102027
0.00342162
-0.00266904
-0.00122663
-0.0140715
-0.000883954
-0.00469191
-0.00268698
0.00733477
-0.000180163
-0.00631125
0.0154565
-0.0211958
-0.00684724
-0.000214137
-0.000229793
0.0187525
0.000678054
-0.00387606
0.0108709
-0.0101366
-0.000794587
-0.00169165
-0.0229192
0.00323756
-0.00796996
-0.017368
0.0042586
-0.00585896
-0.00995181
0.00962864
0.00146873
0.0208005
0.00109528
-0.0207166
0.00429776
0.0177825
-0.0209531
-0.000114199
-0.00568387
0.0109196
0.000296172
-0.0234376
0.0237161
0.00788578
-0.0072641
-0.000669038
-0.0016727
0.00523402
-0.00337934
0.0029478
0.000430272
-0.0105727
0.0113794
0.00039549
0.000973378
0.00349515
-0.00447968
0.00173124
0.00358213
0.0026782
-0.00447606
0.0127022
-0.000715882
0.00221318
-0.000198906
-0.00201431
-0.00262448
-0.0260005
0.01303
-0.00872806
-0.0121798
0.0141304
0.0012221
-0.0111378
0.00988175
0.0031046
0.000975461
-0.00408178
0.0115172
-0.00145091
-0.0102547
0.0105733
3.84744e-05
0.00356855
-0.00670424
0.000342027
-0.0150168
0.000751851
-0.00956701
0.0107586
-0.000601754
0.0216419
-0.0214447
-0.000114531
-0.00749845
0.00605877
0.024751
0.00281919
-0.00485097
0.00330599
-0.00910986
-0.00110369
0.0137649
0.0188627
-0.0181462
-0.0197504
-0.000164629
0.0201629
0.00292445
-0.0016993
-0.0172698
0.0181785
0.000420139
0.0126704
-0.000122897
-0.000488561
0.015727
0.00162056
-0.00484523
0.00320698
-0.000138422
-0.00127581
0.0129327
-0.0118352
0.0238491
0.00206884
-0.025948
-0.00218793
-0.0112331
0.00139996
-0.00338251
0.00198194
0.00083922
-0.00083922
-0.000689489
-0.00269207
-0.0106933
-0.000511354
-0.00257907
-0.00123983
0.00381876
0.00172753
-0.000549402
0.00949679
-0.00983548
0.000778426
-0.00326811
0.00423155
0.00113187
-0.00526354
-0.00416581
0.0130041
-0.00131674
0.00273642
0.00488783
-0.00595211
0.00106638
-0.00114188
0.0127924
-0.0116668
-0.00168359
0.00156907
0.00490496
-0.00343903
0.0257214
-0.0245954
-0.000711259
-0.00243584
-3.75187e-05
4.76308e-05
0.0215858
-0.0212737
0.000267527
0.00866448
-0.00756759
-0.00114568
-0.000321389
0.000321389
-0.00322041
0.00431739
0.00178053
-0.00927875
0.00100034
0.00278377
-0.000332881
-0.00818798
0.00191148
0.00623643
0.0140799
-0.000217344
-0.00270779
-0.0150085
0.000267426
0.014722
0.00119061
-0.00300338
-0.0315793
0.0281674
-0.00729944
5.01655e-05
0.00479937
-0.0021309
-0.00267048
0.0140317
-0.00162352
-0.0123745
0.00275995
-0.000605137
0.00178683
-1.62264e-05
-0.0118568
0.00547043
0.00640358
-0.0160284
-0.00780508
0.0246905
-0.0182512
0.00154452
0.0200856
0.00584296
-0.000774471
-0.00597963
0.00590833
-0.00131025
-0.00461331
-0.000517347
0.00862139
-0.00811801
0.000536077
-0.0113326
0.00965831
0.00179318
0.0011933
-0.00294774
0.0033324
-0.0103899
-0.0207707
0.0216003
-0.000584672
0.00598402
-0.00701563
-0.0118096
0.00170853
0.0100661
0.00320209
-0.00272
0.0245719
-0.00331152
0.0050532
0.00638892
0.00413827
-0.00581905
0.0113666
0.00596562
-0.000162271
0.00125143
-0.00681403
-0.00626055
0.0141935
-0.00182832
0.000978571
-0.00354389
0.00256287
-0.0131055
-0.00239478
0.0145919
0.0143541
0.014757
0.0229504
-0.0227906
0.000450544
-0.00713306
0.000314965
0.0255253
0.0126066
0.0154967
0.00125259
0.0167183
0.0249957
-0.0222098
-0.002205
0.000938452
-4.87712e-05
0.0133787
0.00942315
-0.010035
-0.0078737
-0.000356422
-0.00213223
-0.0256887
0.00140778
-0.00398792
0.00340864
-0.0218248
0.0183736
-0.00213618
-0.00180987
0.000800735
-0.00685303
0.00126642
-0.00288976
0.00162313
0.0103353
-0.0064967
-0.00391179
-0.0104698
-0.00142048
-0.000698112
0.00234201
-0.00164397
0.00833474
0.0010561
0.000103858
-0.00398976
0.00565796
-0.00167118
-0.000750987
-0.00678614
0.000273987
0.0045065
-0.0123797
0.0144872
-0.00222511
0.00420728
-0.00666239
0.0180078
0.00219033
-0.00299954
0.000808958
-0.0160023
-0.0058446
0.0219352
-0.00238481
-0.000691056
0.00594074
-0.00870812
-0.015653
0.0133767
0.00188393
-0.00203544
-0.00982328
-0.0240748
-0.00109811
0.000856425
-0.00487855
-0.0122163
0.0114654
0.00625483
-0.0118839
-0.00624607
-0.000253684
0.00646752
-0.00617147
-0.0059788
0.00808351
0.0249351
-0.00105551
-0.0243902
0.0178001
-0.0142364
0.0140807
-0.0037791
0.00112435
0.00834133
-0.000330896
-0.0177824
0.0152749
0.00245326
-0.0102221
-0.000553215
0.00678306
-0.00648025
-0.000324569
0.015167
-0.0147348
-0.0254782
0.00285842
0.0228493
0.00297733
-0.000787235
0.0138224
0.00223806
-0.016196
-0.0290254
0.0038065
0.00320181
-0.0114354
-0.000852837
-0.0186286
0.0216567
-0.00156826
-0.000891365
0.00209947
0.0041331
-0.0062295
-0.00205303
-0.000825639
0.0223741
0.000854378
-0.0234316
0.0113255
-0.0127733
0.00138514
0.00299056
-0.00438299
0.0233706
0.00361503
0.0179689
9.14339e-05
0.00819132
-0.009099
0.000904078
-0.0228156
-0.0033864
-0.0004358
-0.00829768
0.00968764
0.0043683
-0.00573922
-0.00404161
0.00294352
0.00109584
0.00247895
-0.0253887
0.0229062
-0.000997493
0.020152
-0.0193299
-0.0252408
0.000115799
-0.0235253
0.004415
-0.0143612
-0.0163523
0.0143453
0.00342514
-0.0039013
-0.00177401
0.00803069
0.0259523
-0.00416732
-0.0218548
0.00667532
0.0171767
-0.0235038
-0.0259456
0.0280597
-0.00171295
-0.0232148
0.0264261
-0.00218573
0.0141764
-0.0149632
0.000767821
-0.00318128
0.00160696
3.9684e-05
-0.0102402
-0.0172237
-0.00101336
0.000486245
0.00294172
0.00185628
-0.0253395
0.0247655
-0.0242903
0.00208068
-0.000945986
0.0197594
0.00239956
-0.0037191
-0.00865023
0.00182767
0.00241524
-0.00334404
-0.00624893
0.00691704
-0.00431047
-0.00755596
0.0017465
-0.00481855
0.00306822
0.00238684
0.0175518
-0.0201329
-0.0010664
-0.00390583
-0.000670876
0.0106251
-0.0100845
0.0174974
-0.0175145
0.000222894
0.00399507
0.00745588
-0.0115398
0.00947278
0.00505531
-0.0146231
-0.000937498
0.00723971
0.00064424
0.0014423
-0.0240119
0.0224718
-0.0127151
0.0101671
0.00246309
-0.00380661
0.000990034
0.0028147
0.00529394
-0.00951069
0.00687655
-0.00134076
-0.00555814
0.0116546
-0.000784556
-0.0110144
-0.00308665
-0.00143716
-4.71077e-05
-0.0147989
0.0146241
-0.000111284
-0.0140936
0.0119351
1.55986e-07
-0.00721941
0.0236478
-0.022746
-0.00130311
0.0172394
0.000918742
-0.0181837
-0.000393152
0.00776179
-0.00596062
-0.000386581
-0.0128458
0.00416413
0.00235205
0.00261297
-0.0049683
0.000199961
0.00660665
-0.00681545
-0.0143387
-0.00136401
0.0126541
-0.00827044
-4.85851e-06
0.0082401
-0.0236345
0.00178016
0.014638
0.0111446
0.00541921
-0.000737652
-0.00468789
-0.0123404
0.000771347
-0.0187698
0.00023137
0.00151882
-0.00191927
0.00289607
-0.00449906
0.00274097
0.0103652
-0.00374692
-0.00510299
0.0160323
0.00187141
-0.00599794
-0.000353089
0.000118659
0.0203488
0.000535139
0.0228936
-0.0228131
-0.0022612
-0.00675208
0.000738704
-0.0170537
0.00656529
0.010302
-0.00521673
0.00913632
0.000761279
-0.00223733
0.001476
0.0153248
-0.0155482
0.0190297
0.00558609
-0.00385614
-0.0367926
0.0376213
-0.000973315
-0.00113739
-0.00290642
0.00412975
-0.00536058
0.00346215
0.011308
-0.00585753
0.00631846
0.0126679
0.00639664
-0.0192828
0.01226
-0.0135265
0.00130794
-0.000448399
-0.0147852
0.000293582
-0.0136247
0.0132401
-0.000590687
0.00298746
-0.0232994
-0.00966238
-0.000194509
-0.00370358
0.00309077
0.000610499
-0.00933792
0.00407087
-0.00520309
-0.000808471
-0.000638129
-0.00229289
-0.00603461
3.58998e-05
0.00113579
-0.00585972
-0.0033857
-0.000740304
-0.0189729
-0.00178167
0.0207849
0.00392797
-0.00280109
-0.00112816
-0.017602
-0.0193262
-0.00082247
-0.00383873
0.0106635
-0.0019754
0.00252117
0.00515532
-0.00404229
0.0117207
-0.00237869
0.0199759
-0.00870865
0.00930027
0.00922386
-0.00956662
-0.000764835
-0.0064844
0.0185826
-0.0271259
0.00848793
0.00924108
0.00554299
0.00473257
2.85158e-05
0.00901197
-0.00915327
0.032605
-0.00411902
-0.0283069
0.00400576
0.00799201
-0.0120646
0.00197864
0.0269136
-0.00457262
-3.77208e-05
0.00188074
-0.0170429
0.00292989
-0.00314328
0.0125518
-0.0101424
0.011497
0.0063416
-0.00615014
0.0174059
-0.00131147
-0.0161899
-0.001239
0.00200023
-0.0245415
0.00258314
-0.0198605
0.00303777
-0.000679835
0.0163644
-0.00222677
0.0127674
-0.000696563
-0.0120897
0.00124185
-0.00144887
0.000659474
0.0208667
-0.0138343
-0.0169887
-0.00232783
0.00351616
-0.00506375
-0.00631213
0.000267413
0.00603071
0.0245499
-0.00566762
-0.0187479
0.00230774
0.011791
-0.00179181
-0.0104102
0.00032155
0.00565992
0.000596297
-0.000701206
-0.0138158
0.0133722
-0.020532
-0.00062378
0.00094581
-0.0108322
-0.00877891
0.000789661
0.00797206
0.00167515
-0.000197229
0.00297681
-0.0389502
-0.00921753
-0.000158664
0.00934149
0.000167786
-0.0196646
-0.00377218
-0.0015948
0.0136428
0.000660885
-0.00437511
0.000510216
0.0038617
0.0164458
-0.0167382
0.000269696
-0.00254413
0.017577
-0.00047307
0.00933776
-0.00151396
-0.00783114
0.00570906
-0.00673685
-0.0260297
0.00060179
-0.0117172
0.00657739
-0.00683657
0.000241019
0.0108722
-0.00218399
-0.00876427
0.00181913
-0.00320084
0.00175335
8.0195e-05
-0.00131431
-0.00212813
0.00344098
-8.97732e-05
-0.0102917
0.0103009
-0.00279234
0.00131582
0.0123875
-0.0112351
-0.00116769
0.00866353
0.000860626
-0.000174359
0.00693685
-0.00666013
0.00647058
-0.00851227
-0.000221969
-0.00233966
-0.000451403
0.00861866
-0.00636719
0.00029916
0.00603971
0.0174201
0.000310906
-0.0153875
-0.00186427
-0.0214641
0.00257677
-0.0213581
-0.00912379
0.00383997
-0.019361
-0.00196741
0.021299
0.00280472
0.00100886
-0.0145706
0.0179554
0.0186531
-0.00619629
0.00610692
-0.00129528
-0.00481423
0.00156705
0.022779
0.00789973
-0.000198811
-0.00774411
0.00880937