/*--------------------------------*- C++ -*----------------------------------*\
| =========                 |                                                 |
| \\      /  F ield         | OpenFOAM: The Open Source CFD Toolbox           |
|  \\    /   O peration     | Version:  v2012                                 |
|   \\  /    A nd           | Website:  www.openfoam.com                      |
|    \\/     M anipulation  |                                                 |
\*---------------------------------------------------------------------------*/
FoamFile
{
    version     2.0;
    format      ascii;
    class       volScalarField;
    location    "350";
    object      nut;
}
// * * * * * * * * * * * * * * * * * * * * * * * * * * * * * * * * * * * * * //

dimensions      [0 2 -1 0 0 0 0];


internalField   nonuniform List<scalar> 
10042
(
0.0067215
0.00672008
0.00650611
0.00459896
0.00161807
0.0067209
0.000951237
0.000349994
0.00674696
0.00671884
0.00587919
0.00689602
0.00671072
0.00670979
0.00109991
0.00671937
0.00671911
0.00672539
0.00672147
4.4717e-05
0.00671719
0.000439204
0.00672771
0.00671424
0.00672033
0.00154647
0.00672231
0.00170972
0.00674346
0.00219363
0.00672013
0.00118434
0.00671908
0.00283609
0.0012964
0.00671427
0.0015469
0.00152833
0.00671404
0.000532079
4.46722e-05
0.00126484
0.00086315
0.00368188
0.00177423
0.000879186
0.00230579
0.00253416
0.00154981
0.00116108
0.00672289
0.0067597
0.00120222
0.00671746
0.00161839
0.00672056
0.00674416
0.00235592
0.00287043
0.00135932
0.00672015
0.00671914
0.0012263
0.00672798
0.00225586
0.00298881
0.00313271
7.53311e-05
0.00739937
0.00570634
0.00672291
4.49772e-05
0.00345644
0.000274841
0.00343728
0.00671429
0.00276669
0.00672154
0.00035812
0.000822279
0.00138076
0.000186908
0.00414727
0.00153977
0.00314025
0.00672416
0.00672208
0.000115963
0.00435162
0.00672143
0.00361175
0.000483055
0.00160789
0.0067639
0.00241079
0.00540018
0.00672017
0.00566013
0.000614166
0.00674589
0.00672622
0.000174445
0.000509436
0.00672385
0.00183848
0.000185675
0.00672226
0.00672026
0.0067173
0.00671419
0.00671597
0.0067271
0.0010311
0.00633637
0.00258197
0.00672818
0.00672256
0.00672155
0.00510475
0.0041574
0.00447079
0.000441798
0.00346136
0.00672038
0.000181659
0.00352785
0.00037817
0.00125642
0.000207969
0.00672206
0.000322432
0.00354579
0.00584507
0.000201449
0.00670709
0.000260261
0.00330457
0.00356264
0.0023998
0.000106597
0.00164276
0.00672275
0.00198708
0.000179422
0.00676873
0.00672698
0.000273242
0.00672958
0.00527147
0.000909585
0.00675292
0.00672534
0.00140887
0.00316774
0.0067236
0.00671048
0.00155005
0.00671929
0.00022317
0.000690058
0.00422589
0.00022313
0.0067199
0.00675125
0.00353323
0.00352631
0.000114841
0.000680519
0.000942734
0.00376845
0.00674068
0.00671915
0.000383455
3.92814e-05
0.000217799
0.0105815
0.00148092
0.00350187
6.3109e-05
0.000609878
0.00142511
0.0017432
0.00308081
0.00119126
0.0013521
0.00350558
0.000159974
0.00362035
0.0049577
0.00204121
3.45669e-05
0.00189149
0.00151584
0.000175846
0.000332506
9.54959e-05
0.00203029
0.00672196
0.00671017
0.00155845
0.000204426
0.0030812
0.00672621
4.17295e-05
0.00275131
0.00672351
4.19377e-05
0.00672269
0.00672544
0.00672496
0.000468182
0.00677677
0.000135624
4.77001e-05
0.0016565
0.00015523
0.00398982
0.00671874
0.000268979
0.00671937
0.00102214
0.00151186
6.31525e-05
0.00148744
0.000723273
0.00150604
0.000240269
0.00672769
0.000157106
0.00670627
0.00674851
4.99173e-05
0.00671874
0.00670965
0.00621909
0.000898156
0.00672424
0.00671189
0.00344607
0.00637597
0.00671982
0.00347114
0.00365879
0.000965942
0.00672769
0.00671995
0.00671699
0.00174628
0.00673141
0.00672563
0.00671112
0.00573838
0.00105023
7.33658e-05
0.000188376
0.00311867
0.000206873
0.000222526
0.00101802
0.000715959
0.00183369
0.00326826
0.00672211
0.00671418
0.00164863
0.00672312
0.000561208
0.00669326
0.00672246
0.00672522
0.000216964
0.00672854
5.49884e-05
0.00021471
0.000136415
0.00179666
0.00601153
0.00672155
0.00363203
0.00676852
0.000598288
0.00476352
0.00148758
0.0057319
0.00672276
0.00649649
0.000520736
0.000744752
0.00407911
0.00672016
0.00113227
0.0116272
0.00040936
0.000193671
0.00672327
0.00671059
0.00672829
0.0067489
0.000289912
0.0067308
0.00671988
0.00672062
0.00397019
0.00159188
0.00100197
0.000149505
0.00552117
0.0013422
0.000311982
0.00672635
0.00277744
0.0067222
0.000537735
0.000185177
0.000410032
0.000825609
0.00671516
0.00591472
0.00512817
0.00100087
0.0014775
0.00672497
0.000496532
0.00671502
0.00671903
0.00357869
0.000152227
0.00672608
0.00219044
0.00380873
0.0010918
0.00271784
0.0067275
0.00672325
0.00671839
0.00675763
0.000326105
0.000316248
0.000232424
9.18085e-05
0.00136627
0.00119924
0.00368031
0.00670836
0.00381193
0.00672562
0.000182458
0.00493229
0.00299974
0.00104112
0.00672661
0.000881642
0.00140996
0.000901868
0.00676356
0.000759266
0.000242694
0.000500267
0.00185311
0.00672224
0.000209083
0.000279363
0.00558129
0.00034233
0.00671912
0.00671836
0.00671914
0.000949181
0.000409766
0.00661149
0.00672516
0.00143092
0.00672625
0.00672576
4.56942e-05
0.00672204
0.00672547
0.00361363
0.00671706
0.000577966
0.000186134
0.00024303
0.0133273
0.00232089
0.000649027
4.11795e-05
0.00672272
0.00130163
0.00672625
0.0025107
0.000684574
0.00672066
0.00105561
4.95235e-05
0.00678445
0.00671748
0.000116082
3.56325e-05
0.00309203
0.00672761
0.00120089
0.000181943
0.00671981
7.56498e-05
0.000423215
0.00671931
0.00672555
0.00672221
0.00672421
0.00671426
0.00672196
0.000239826
0.000455922
0.00229923
0.00394564
0.00670994
0.00672918
0.000165699
0.00655751
0.000555144
0.000499379
0.00154746
0.0067254
0.00672552
8.03777e-05
0.00673402
0.000622703
0.00222359
0.00692666
0.00172683
0.000275669
0.0011223
0.00671838
0.0067289
0.00011228
0.00671851
0.000576329
0.00638486
0.00676357
0.00151392
0.00184973
0.00672288
0.00672579
0.00134359
0.006723
0.00164312
0.00161602
0.0067225
0.00179049
0.0132415
0.00671706
0.0023538
0.00659926
0.0067108
0.0067188
0.00672076
0.00185599
0.00672032
0.0067554
0.000507001
0.000509346
0.000349801
0.00672564
0.000644597
0.00057171
0.00162019
0.00672317
0.00672214
0.000158087
0.00516608
0.00671838
0.000379136
0.00675158
0.00672176
0.00130861
0.00671471
0.000229645
0.00672236
0.00671852
0.00396716
0.00671584
0.00674564
0.00672067
0.00234182
0.000517201
0.00671709
0.00675654
0.000424367
0.00203908
0.00090696
0.00332996
0.00672598
0.00672591
0.00015885
0.00523036
0.00672317
0.00671911
0.00578648
0.000488674
0.000582196
0.00672292
0.000227567
2.34273e-05
0.00160306
0.00672546
0.00672164
0.0067629
0.00672386
0.00672446
0.00566617
0.00235657
0.00672086
0.00113615
0.00296314
0.00300004
0.00320068
0.00671577
0.000456095
8.26024e-05
4.33871e-05
0.00672357
0.00676119
0.00640495
0.00671714
0.0079952
0.000528527
0.00630286
0.00529312
0.00672569
0.00347305
0.000451632
0.00198337
0.00672238
0.00110832
2.14607e-05
4.01007e-05
0.000210672
0.00671892
0.00669062
0.000940212
0.000331665
0.00755166
0.00104679
0.000804681
0.000578566
0.00672406
0.00233503
0.00278042
0.00672376
0.00497198
0.00671617
0.00672562
0.00103131
0.00672409
0.000747125
0.00354945
0.000347699
0.000580323
0.00672499
0.00539882
0.0013335
0.00162032
0.000240113
8.85567e-05
0.00672601
0.00117692
0.00213432
0.0054978
0.00672188
0.00357617
0.00672062
0.000744299
0.000321904
0.000162097
0.00672243
0.00207739
0.0067189
0.00672407
4.89922e-05
0.00671764
0.00159144
0.000497747
0.00671437
0.00029292
0.000702249
0.00672003
0.00351614
0.000961514
0.00672406
0.000143973
0.00528397
0.00672566
0.0039364
0.00672042
0.00672626
0.00185762
0.00335875
2.30468e-05
0.00169491
0.00672134
0.00316141
0.000512044
0.00107405
0.00672048
0.00417509
0.00674593
0.00164317
0.00478533
0.000568742
0.00672709
0.0012278
0.00672363
0.00671908
0.00416689
0.00672195
5.84653e-05
0.00672104
0.00563967
0.00671557
0.00128711
0.00672096
0.000792001
0.0038071
0.000147282
0.00672555
0.000743945
0.00672916
0.0011484
0.00672579
0.00372277
0.00671906
0.00200234
0.00672052
4.80284e-05
0.000432626
0.000701504
0.00312995
0.00025376
0.00672541
0.000246586
0.0009583
0.0067189
0.000402296
8.03161e-05
0.00923622
0.000665925
0.000162408
0.0011915
0.00303273
0.00672467
0.00330032
0.0019409
0.00159895
0.00671438
0.00172719
0.000223141
0.00672547
0.00672383
0.00408469
0.00656488
0.00120664
0.000673988
0.000874589
0.00672526
0.000955749
0.00671534
0.00672089
0.00228619
0.00675206
0.000535051
0.00102247
0.00704425
0.00672017
0.00016521
0.00231366
0.000211644
0.00157429
0.000810811
0.000182241
0.000254752
0.00378751
0.00608185
0.000358104
0.00134327
0.00672515
0.00046854
0.00279645
0.00672311
0.00671851
0.00542883
0.00154157
0.00671907
0.00676504
0.000154999
0.000287756
0.00676444
0.00671868
0.00620935
0.00179953
0.00672613
0.00672272
0.00672272
0.00672405
0.000162921
0.00114303
4.28184e-05
0.0017939
0.00671839
0.0067516
0.0013912
0.00672028
0.00144623
0.00164618
0.00601322
0.00671877
0.00672081
0.000309775
0.00672433
0.0019635
9.58941e-05
0.00476917
0.000267727
0.00950512
0.00298453
0.00672549
0.000552096
0.00373735
0.000307248
0.0061359
0.000322442
4.23431e-05
0.000623058
0.00408254
0.00671864
0.0067175
5.33937e-05
0.00320233
6.27555e-05
0.00672567
0.003447
0.000321101
0.00672136
0.00671924
5.50764e-05
0.00672252
0.0067155
0.000907761
0.00779436
0.00915665
0.00301637
0.00675288
0.000559485
0.000276749
0.00671415
0.00673265
0.00672377
5.55301e-05
0.00672398
0.00672171
0.00066848
0.00329271
0.000288136
0.00672167
0.00672207
0.0067168
0.00672259
0.000212677
0.00672376
0.0058714
0.000783936
0.000124107
2.83518e-05
0.00672408
0.000250563
0.00666998
0.000883554
0.0014149
0.000671707
0.00161825
0.00672309
0.0067112
0.00173523
0.00112047
0.00714206
0.00152167
0.00672195
0.00672397
0.00167992
0.000276333
0.00675486
0.00672233
0.00672339
0.000350562
0.00671567
0.00672002
0.00180776
0.00162393
0.00672408
0.00674385
2.5052e-05
0.00664564
0.00169655
0.00672057
0.00231512
0.000182138
0.00672385
0.00138707
0.00672082
0.00212777
2.40007e-05
0.00672625
3.48881e-05
0.00106558
0.00828406
0.00673782
0.00167858
0.00185591
0.000254852
0.000115241
0.00186037
0.00015002
0.000694115
0.00179481
0.00673867
0.000223143
0.00672107
0.00672522
0.00671975
0.00672496
0.000461539
0.0067263
0.00672627
9.14146e-05
0.000639175
0.00688176
0.000359315
0.00146676
0.00420753
0.00360807
2.95553e-05
0.00672542
0.000981217
0.000287901
0.00337639
0.00227332
0.00850369
0.0067257
0.00623241
0.00671981
0.0032859
0.00553343
0.000372123
0.00017477
0.00112729
0.00278381
0.00672187
2.88262e-06
0.00649797
0.00674044
0.000300553
0.00104443
0.00946598
0.00671941
0.000516303
0.000138859
0.00152058
0.000156115
0.00672605
0.00671221
0.00672604
4.25386e-05
0.00672237
0.00671888
0.00671858
0.00671619
0.00671913
0.00671875
0.00298081
0.00672155
0.00672256
0.00177546
0.000870975
0.000360423
0.00672023
0.00792377
0.00405187
0.000217998
0.000222493
0.00635244
0.000640038
0.00656423
0.00122933
0.00104014
4.28172e-05
0.000592876
0.000367447
0.0067238
0.00671969
0.00170012
0.000182681
0.00485066
0.00460308
0.00481987
0.00045783
0.000906368
0.000932586
0.00351782
0.00404992
0.0023588
0.00115035
0.00672042
0.00672554
0.00394703
0.00671182
0.00671841
0.000229669
0.000599464
0.00672111
0.00535875
0.00189433
0.000123009
0.000896695
0.00672261
0.00119765
0.000264447
0.00211301
0.00671917
0.00453907
0.00241562
0.00673169
4.47157e-05
0.00113406
0.00429365
0.000864844
0.0132677
0.00371458
0.00672424
0.00132745
0.000166477
0.00671899
0.00531635
0.0067261
0.00310426
0.00672005
0.00672149
0.00669283
0.000128693
4.55989e-05
0.00671976
0.00470627
0.00672103
0.00631094
0.0019257
0.0067128
0.000188074
0.000565441
0.0037455
0.00671978
0.00671853
0.00671833
0.00292987
0.00662606
0.00165119
0.00672722
0.00672234
0.000162535
0.00377308
0.00672052
0.00671844
0.00672045
0.00672572
0.000161743
0.00116084
0.00674575
0.00672044
0.0011156
7.75409e-05
0.00672319
0.00672606
0.000932854
0.00486186
0.00257657
0.00216359
0.00063606
0.000487345
0.0067208
0.00121538
0.000219884
0.000617807
0.000393937
0.00117865
0.000188857
0.00672574
0.00676118
0.00226078
0.00117706
0.00657322
0.00676472
0.00672499
0.00595782
5.45344e-05
8.08178e-05
0.000393218
0.00372809
0.00671859
0.000562086
0.00406117
0.00401571
0.00057231
0.00120035
0.00397749
0.00672025
3.64293e-05
0.00033212
0.00671852
0.00323367
0.000356382
0.00675419
0.00672174
0.00672352
0.000378087
0.0020695
0.00258832
0.00054603
0.00248293
0.00672305
0.00973823
0.00671759
4.95979e-05
0.00671863
0.00172354
0.000249051
0.00330241
0.00672127
0.00675922
0.00248762
0.00011395
0.00672204
0.00672219
3.87843e-05
0.000640348
0.000423013
0.0077618
0.000229359
0.00672418
0.00014098
0.00676189
0.00071419
0.006723
0.00369504
0.00675257
0.00131888
0.00672415
0.00223266
0.00672287
0.00128463
0.0118648
0.000600571
0.000347904
0.00486508
0.00672222
0.000514514
0.000776583
0.00671887
0.0013625
0.0067285
0.00106999
0.00531587
0.00672238
0.00127151
0.0067244
0.00106544
0.00672263
0.000268632
0.00672052
0.0065883
0.00674739
0.00292655
0.00239205
0.00672573
0.00671957
0.00378766
0.000300508
0.000409789
0.00558393
0.00215925
0.00407456
0.000261819
0.0065061
0.000588694
0.00213782
0.00387013
0.00109004
0.00246302
0.00672592
0.00671768
0.000608378
0.00674147
0.000142187
0.00193469
8.42166e-05
0.00279783
0.00671994
0.00676625
0.000982559
0.000307389
0.00671858
0.00221509
0.000465438
0.00195582
0.0067189
0.00132205
0.00672441
0.000605292
4.53173e-05
0.00111105
0.00139547
0.00116444
0.0013584
0.000259328
0.000295696
0.00200646
0.00136411
0.0028336
0.000405474
0.0047226
0.00249472
0.00590695
0.00447509
0.00163542
0.00673162
3.98487e-05
0.0035791
0.00356427
0.000147021
0.00672207
0.000946942
0.00518789
0.000863627
0.00558421
0.000168114
0.000442696
0.00670651
0.00145697
0.00453064
0.000147846
0.00675011
0.00282402
0.00671858
0.0067355
0.000288943
0.00672089
0.00671624
0.000565322
0.00422857
0.00303072
0.00673873
0.00671875
0.00379324
0.00521857
0.0067208
0.00156254
0.00672503
0.00672785
0.00672522
0.000216317
0.00265719
0.00672108
0.00672265
0.000742922
0.00190239
0.00117139
0.00672424
0.000327743
0.00178621
0.00616925
0.00190862
0.00672182
0.00671631
7.14057e-05
0.000384233
0.000789354
0.00112864
0.000362156
0.000427599
0.000466054
0.000427107
0.00137232
0.00200837
0.00493748
0.00408206
0.00671748
0.0067248
0.00027598
0.00671793
0.00180379
0.00653082
0.000164288
0.00672104
0.00136426
0.000297593
0.00671716
6.66667e-05
0.000209379
0.000116263
0.00122695
0.00627737
0.000402877
0.000328833
0.0071433
0.000665148
0.0038121
0.000876384
0.00672916
0.00902334
0.00277573
0.000408075
0.00672112
0.000866844
0.00671994
0.00743022
0.00887201
0.00672391
0.00222003
0.000160597
0.000664041
0.000584242
0.00028618
0.00672034
0.00575135
0.00414693
0.000495205
0.00523822
0.00672393
0.00463713
0.00671868
0.0011896
0.00378495
0.000618911
0.000217708
0.00672202
0.00671974
0.00155799
0.00372025
0.00671961
0.000779769
0.00672093
0.00672052
0.000505772
0.000296756
0.00671982
0.000546837
0.00531947
0.00672577
0.00105318
0.000139206
0.00672292
0.00671819
0.000233545
0.000131619
0.006749
0.00126214
0.000214833
0.000441117
0.00811111
0.00671978
0.000517277
0.00780729
0.00481901
0.00672132
0.00465798
0.00101039
0.000648217
0.000302213
0.00227357
0.00596073
0.00056492
0.000167761
0.00333566
0.00671833
0.00195094
0.000489762
0.00672255
0.00672575
0.00381082
0.0067235
0.00672714
0.00676645
0.0024988
0.00672372
0.000382815
0.00281962
0.003718
0.00671654
0.00146998
0.000816828
0.000225514
0.000723793
0.00163703
0.000293531
0.00672136
0.00673445
0.0054338
0.00672587
0.000176557
0.000376697
0.00676342
0.00393118
0.00672072
0.00671281
0.000333341
0.00671518
0.000145193
0.00361799
0.00672215
0.00805088
0.00581218
0.0067217
0.00190381
0.00030586
0.000574859
0.00672557
0.00671983
0.00167706
0.000311844
0.00671796
0.00672037
0.00672371
0.00131179
0.00672549
0.000616766
0.00671174
0.0067206
0.00377339
0.00345454
0.00410367
0.00672252
0.00341786
8.86462e-05
4.18358e-05
0.000788252
0.00116695
0.00664682
0.00676406
0.00672232
0.00268021
0.00136461
0.00649262
0.00671979
0.00672606
0.000131443
0.000270468
0.00672419
0.00672241
6.54996e-05
0.00672605
0.00672105
0.000188813
0.000412294
0.00364187
0.00671839
0.000747266
0.000178107
0.000871689
0.00119142
0.000626825
0.00672053
0.00679231
5.77247e-05
0.000813335
0.00671908
0.00108123
0.00370452
0.00671606
0.00672446
0.00671664
0.000135699
0.0067199
0.00672108
0.00670659
0.0067204
0.000192566
0.00628545
0.00242856
0.000137333
0.00772248
0.00614099
0.00672158
0.00441748
0.00672011
0.00672418
0.00672215
0.00672248
0.00671489
0.00672098
0.00671656
0.000860519
0.00157639
0.000317142
0.000838515
0.00192182
0.00671944
0.00128233
0.000502514
0.00257342
0.00672211
0.000279917
0.000487085
0.000212033
0.000962029
0.0067209
0.00102768
0.00185381
0.00671315
0.00536209
0.000219713
0.000797115
0.00136102
0.000881795
0.00672085
0.00672167
0.00030745
0.00098345
0.00343723
0.000259349
0.00672137
0.00671957
0.000167013
0.000327647
0.000906275
0.000214978
0.00259912
0.000148377
0.000267618
0.000293949
0.000976285
0.00627777
0.00676226
0.0067185
0.00672058
0.00672151
0.00186972
0.000806993
0.00105841
0.00271117
0.00672094
0.00114818
0.000713552
0.00661154
0.000232686
0.00250459
0.000244428
0.00212806
0.0067178
0.000281412
0.0067318
1.71798e-05
0.00672373
0.0002108
0.00672434
0.000146539
0.00152524
0.00566208
0.00671843
0.000222793
0.00674488
0.00261145
0.000403285
0.00671884
0.000667289
0.0079499
0.000828598
0.000683765
0.000419346
0.004961
0.000413339
0.00671982
0.000226062
0.000537947
0.000683498
0.00672104
0.00671933
0.00264187
0.000335663
0.00426221
0.00254109
0.00257712
0.00218162
0.0074615
0.00470501
0.00173765
0.000137693
0.00671585
0.000358881
0.000593016
0.0120519
0.000650258
0.00673095
2.18514e-05
0.00672087
0.00671829
0.00672123
0.000202928
0.00046995
0.00674815
0.000602927
0.00672185
0.00672545
0.00671633
0.00420996
0.00672609
0.0067153
0.00071983
0.000245494
0.00223744
0.00674607
0.00750067
0.000502744
0.00122005
0.00427237
0.000140337
0.0024945
0.00289301
0.00105106
0.000244344
0.000256209
0.00049417
0.00671904
0.00218144
0.00122945
0.0025948
0.0019841
0.00490847
0.00672508
0.000516543
0.00672066
0.00672376
0.00243025
0.000241949
0.0022692
0.00167446
0.00672196
0.000263591
0.000491464
0.00246294
0.000575454
0.00672627
0.006718
0.000433207
0.00226167
0.00672029
0.000738117
0.00671896
0.00672131
0.00721596
0.00672529
0.0047498
0.00483783
0.00050122
0.000915525
0.00446182
0.00182843
0.00119985
0.000226786
0.0043387
0.00175554
0.00396693
0.00672556
0.00510284
0.00316503
0.00128736
0.00672153
0.00672387
0.00674189
0.00672585
0.000295133
0.00133285
0.0044559
2.08239e-05
0.00671797
0.00671624
0.00671895
0.000595899
0.0019521
0.00106162
0.00672183
0.00396309
0.00462509
0.00672531
0.00672543
0.000886082
0.000417101
0.0067332
0.0046272
0.000156504
0.000290919
0.00672024
0.000343301
0.000360857
0.00672397
0.00672743
0.00675808
0.000443944
0.00673378
0.00171211
0.000687393
0.0066707
0.00672311
0.000589552
0.006712
5.26985e-05
0.000568006
0.00191616
0.000691284
0.00019422
0.00670689
0.0067255
0.000646124
0.000221532
0.000472686
0.00662396
0.00150333
0.0067292
0.00691696
0.0010373
0.00676568
0.0057596
0.0137205
0.00130197
0.000388998
0.000474924
0.00672995
0.00467512
0.00263511
0.00192353
0.000735069
0.00237699
0.00671999
0.000147594
0.00671947
0.0067168
0.00671914
0.000243955
0.00612585
0.00671746
0.00672958
0.00671895
0.00571351
0.00672463
0.00100627
0.00013338
0.00394621
0.00672519
0.000254539
0.002427
0.00671801
0.00672124
0.0067392
0.00672138
0.0067181
0.00169934
0.000450541
0.00672447
0.0010349
0.000143311
0.00673632
0.00058045
0.00932088
0.00226716
0.00672093
0.00672129
6.30922e-05
0.00672384
0.00672389
0.00112615
0.000866704
0.000173716
0.000337384
0.00671709
0.00671625
0.00671959
0.000113503
0.00689849
0.00672392
0.00043719
0.000118203
0.00253544
0.000539882
0.00672226
0.000205111
0.000615743
0.0041536
7.26601e-05
0.000945477
0.00813952
0.00672406
0.00671921
0.0070117
5.69436e-05
0.00122223
0.000665544
6.2049e-05
0.00066037
0.000161892
2.39133e-05
0.00185417
0.0038058
0.00282226
0.000631358
0.000480144
0.00246165
0.00018413
0.00565026
0.00672629
0.00280225
0.00671938
5.58216e-05
0.00670754
0.0016227
0.00124436
0.00114844
0.0013637
5.25511e-05
0.000161507
0.00671765
0.00253293
6.9086e-05
0.000589001
0.00672124
0.00656309
8.55984e-05
0.000360272
0.000258411
0.000513738
0.0016673
0.000116811
0.00672172
0.00672385
0.00363564
7.43342e-05
0.00207239
0.00026978
0.00570499
0.00296937
0.003986
0.00672001
0.000526504
0.00671975
0.00672159
0.000173622
0.00278507
0.00687802
0.0056671
0.000479894
0.00671446
0.000664808
0.00178264
0.000112724
0.000206276
0.00352584
0.00671816
5.97486e-05
0.000497879
0.00672161
0.000645678
0.00339117
0.000649323
0.00672669
0.000664864
0.000511438
0.00051332
0.0067258
5.05991e-05
0.00018148
0.000470542
0.000707609
0.00671925
0.00665278
0.00672459
0.00261832
0.00228175
0.00200994
0.00672674
0.00673352
0.00413631
0.000330104
0.0067259
0.0067183
0.00674312
0.00676508
0.00671984
0.00364691
0.000241167
0.000823611
0.00370262
0.00176727
0.0067206
0.000301927
0.00232839
0.00453566
0.00672611
3.74309e-05
0.00672533
0.0067201
0.00408491
0.000569658
0.00134635
0.00672162
0.00677696
0.00385128
0.00671304
0.00196248
0.00157291
0.00118946
0.000136966
0.00454311
0.00672608
0.00255704
0.00102036
0.0067268
0.000303463
0.00672132
0.00136428
0.00108262
0.0061129
0.00672188
0.00671617
0.00197053
0.00196554
0.00672314
2.36801e-05
0.00672005
0.00429191
0.000272267
0.00212038
5.01842e-05
0.00731448
0.000142364
9.94738e-05
0.00116932
4.31756e-05
0.000146767
0.00676048
0.00633905
0.00158998
0.00337276
6.89431e-05
0.00671902
0.000696608
0.00671826
0.00671947
0.00266701
0.0067245
0.00257119
0.00672165
0.0022951
0.000983373
0.00671565
0.00671278
0.00806896
0.00568633
0.000267769
0.00672131
0.00109445
0.00106365
0.00671814
0.00130857
0.000255298
0.00100792
0.00690375
0.00305575
0.00161058
0.00671287
0.00672214
0.00671426
0.00672367
0.00632875
0.00364158
0.000602132
0.00672182
0.00672144
0.00133922
0.0016509
0.00672244
0.000274184
0.00673189
0.000193772
0.000481329
0.00616673
0.000981901
0.000117906
0.000113471
0.00672214
0.00671152
0.000151479
0.000842155
0.00672151
0.000448667
0.00672614
0.00672136
0.00671697
0.000506216
5.19529e-05
0.000188537
4.20192e-05
0.00190112
0.000625863
0.00676459
0.0030728
0.000692935
0.00175963
0.00672047
0.00674015
0.00195009
0.00627741
0.000305315
0.00398427
0.001401
0.00672689
0.00457755
0.00430066
0.00774873
0.00168559
0.00673828
0.000664773
0.000814627
0.000931951
0.000272977
0.0067136
0.00595516
0.0021286
5.09591e-05
0.00168062
0.000901011
0.00201427
0.0033731
0.00672234
0.000153127
0.00371335
0.00603842
0.00246677
0.00427224
0.000135376
9.36893e-05
0.00672576
0.000809327
0.00232749
5.75112e-05
0.00423027
0.00198192
0.00671799
0.000385283
0.000361947
0.000788647
0.00140902
0.00802564
0.00672359
0.000167879
0.00672189
0.000309967
6.49876e-05
0.00374886
0.00366589
0.00032363
0.00670562
0.0011079
0.00121397
0.00742005
0.0016944
0.00671945
0.0067175
9.05385e-05
0.000442588
0.000176105
0.00819325
0.00108914
0.000366741
0.00675047
0.00910625
0.000417348
0.000562191
5.31819e-05
0.00116189
0.00334252
0.00323077
0.00304522
0.00538038
0.00312256
0.00331662
0.000406146
0.000635247
0.00677043
0.00268287
0.000272968
0.00671919
0.000689151
0.00672232
0.00672006
0.00671645
0.0010383
0.0067195
0.00745958
9.0156e-05
0.000681131
0.00675917
0.000191772
0.00013977
0.000172286
0.00273776
0.00673007
0.0017588
0.000291853
8.39992e-05
0.0067413
0.00673432
0.00671788
0.00774711
0.00671867
0.00586329
0.00042985
0.00416003
0.00250512
0.00671994
0.00428891
0.00672231
0.00672032
0.00410147
0.00374873
0.00318864
0.0012432
0.00401246
0.000349962
0.00159908
0.00821167
0.00673004
0.00676964
0.00672101
0.00751785
0.00183895
0.00528545
0.000460088
0.00388777
0.00672575
0.00320446
0.00676308
0.00286117
0.00672211
0.00194481
0.00615226
0.00671699
0.00671996
0.00672934
0.00672556
0.000714586
0.00194058
0.00632024
0.00670734
0.00787228
0.00503702
0.0067206
0.00506205
0.00672557
0.0063107
0.00769681
0.00131387
6.32463e-05
2.15885e-05
6.25904e-05
0.00485005
0.00152534
0.00363698
0.00671642
0.00671757
0.00665453
0.00390153
0.00175658
0.000440632
0.00385863
0.00672737
0.00222101
0.00676071
0.00676558
0.00672535
0.000234618
0.0015384
0.00673577
0.00700056
0.00672534
0.000220885
0.000779446
0.00673277
0.00672193
0.0002359
0.00672204
0.00678567
0.00671683
0.0038793
0.000342141
0.00671952
0.0067222
0.010545
0.00439901
0.000264164
0.00671908
0.00432346
0.00672149
8.99218e-05
0.00406532
0.00405725
0.000489965
0.000627443
0.00206954
0.000510789
0.00672104
0.000127074
0.00547142
0.00673899
0.000331822
0.00671811
0.000210583
0.00672042
0.00611583
0.0116724
5.93002e-05
0.00682378
0.00674431
0.000170754
0.00645043
0.000431324
0.00671756
0.00396309
0.000690982
0.000380367
0.00585209
0.000336813
0.000322432
0.000375602
0.0028128
0.00469702
0.0067237
0.0016627
0.000302405
0.00766299
0.00746127
0.000466957
0.00672007
0.000152961
0.000153353
0.000293417
0.00674285
0.00672111
0.000282163
0.000309904
0.000236807
0.00511196
0.000557455
0.00239352
0.00671849
0.000552464
0.000332953
0.000220808
0.00671898
0.00672083
0.000334828
0.000330543
0.00672608
0.000983623
0.000483541
0.000249081
0.00673649
0.000151006
0.0002054
0.000347776
0.00053897
0.000264131
0.00673217
0.00672572
0.00680123
0.00672607
0.00385708
0.0067216
0.000343907
3.70271e-05
0.000593951
0.00215914
0.000554006
0.00672381
0.000606226
0.00673898
0.0003248
0.000328604
0.00660765
0.000648633
0.00547659
0.00671628
0.00199602
0.00672203
8.82732e-05
0.00672367
7.74034e-05
0.000185622
0.000197898
0.00413394
0.00468382
0.00682855
0.0067246
0.00671894
0.00724683
0.00676995
0.00671149
0.00672307
0.000901507
0.0003611
0.000762896
0.000155015
0.00117514
0.00672008
0.000610227
0.00671869
0.000152066
0.00672611
0.000304479
0.00672744
0.00439503
0.00170343
0.00119038
0.00368379
0.000166301
0.00104603
9.40635e-05
0.000351689
0.000456005
0.000360404
0.00031727
0.00676841
0.0064273
0.000755614
0.00060886
0.00413133
0.00549072
9.07941e-05
0.00672044
0.000145096
0.000638987
0.00036329
2.85606e-05
0.000196869
0.00014449
0.000147114
0.000146939
0.00672287
0.000734755
0.00672161
0.000169912
0.000265604
0.00728514
0.00671874
0.00030644
0.000541726
0.00692151
0.000645599
0.000503823
0.00672188
0.000322954
0.00671403
0.000402589
0.00182342
0.00793151
0.00672115
0.000592898
0.00671902
0.000336173
0.000640642
0.000563494
0.000563279
0.00672032
0.00260974
0.000140133
0.00671898
0.00027496
0.00676592
0.000204782
0.00119011
0.000354092
0.00675932
0.00674531
0.00134722
0.000180853
0.00674115
0.00604526
0.000665946
0.0055878
0.000122336
0.00673021
0.00704978
0.000182027
0.000226497
0.000349757
0.00190952
0.00671923
0.00675077
0.000131468
7.33151e-05
0.000505691
0.00352274
0.00672306
0.00110713
0.000498
0.00437226
0.00672221
0.000658096
0.0067053
0.0077935
0.00671837
0.00672077
0.000182324
0.00671842
0.00238271
0.000186575
0.00301514
0.0023606
0.00674511
0.000340772
0.000776989
0.00603045
0.0067201
0.00290031
0.00671623
0.000221259
0.0067204
0.000401167
0.000917573
0.00158108
0.00167654
4.03324e-05
2.3114e-05
0.000175537
0.000388964
0.000111509
0.00047503
0.00672523
0.00672208
0.00584623
0.000120164
0.00671182
0.00671975
0.00671842
0.00181408
0.000178129
0.00672518
0.000318079
0.000239752
0.000231799
8.95986e-05
0.00671918
0.00672506
0.0023065
0.00316057
0.00672909
0.0031701
0.000580826
0.00672477
0.00671057
0.000611727
0.00672036
0.000178528
0.00672524
0.00286628
0.00672576
0.00535811
0.0042618
0.00207129
0.000637279
0.00428584
0.00111063
0.00672219
0.00676445
0.00672557
0.000672937
0.00020807
0.00620071
0.000208876
0.00672611
0.00672381
4.85846e-05
0.00675077
0.00672211
0.0067215
0.0067151
0.00402823
0.00671939
0.00672287
0.00018827
0.00671927
0.00674308
0.000143999
0.00672262
0.00672179
0.00672292
0.00338197
0.00502999
2.49602e-05
0.00402982
0.00596157
0.00676122
0.0067261
0.000478798
0.00672016
0.00671834
0.00121444
0.00671962
0.00054245
0.00120158
0.000246656
0.00676054
0.000208813
0.00487711
0.00031037
8.02372e-05
0.00676119
0.000870687
0.00610326
0.000416267
5.87187e-05
0.00637275
0.00673085
0.000161219
0.000263488
0.00674236
0.00671637
0.00328021
0.000414141
0.006722
0.000316452
0.00672206
0.00038551
0.00020275
0.000246434
0.000554498
0.00623455
0.00657668
0.00688995
0.00691159
0.00672053
0.0056885
0.00163893
0.00416461
0.000106231
0.00215396
0.000897091
0.00676491
0.00746238
0.00672003
0.0067182
0.000278158
0.00672577
0.000203651
0.00153161
0.000338764
0.00676507
0.00167485
0.00637716
0.000358124
0.00298078
0.000106641
0.00225323
0.0027607
0.00672625
0.000529199
0.00246367
0.000471656
0.000147403
0.00112809
0.00152326
0.000280185
0.00671375
0.00757294
0.00476729
0.00257148
0.0018504
0.000441335
0.00524056
0.000329068
0.000455918
0.00113209
0.00672187
0.00111073
0.00672382
0.000504977
0.00672026
0.00672342
0.00419638
0.000729497
0.000185891
0.00368955
0.00221594
5.88699e-05
0.0067112
0.00412258
0.000541259
0.00676189
0.0026792
0.00122541
0.00672269
0.00672716
0.00246982
0.0067194
0.0071867
0.000605508
0.00104472
0.00151239
0.00632402
0.00470579
0.00675943
8.87594e-05
0.00167944
0.00671838
0.00479402
0.00675664
0.00184558
0.000341979
0.00673832
0.00037793
0.000225665
8.12978e-05
0.00671917
0.00425041
0.00413067
0.00109221
0.00140947
0.00177733
0.00191818
0.000543553
0.00675784
0.00275795
0.0109957
0.00102157
0.000559408
0.000188964
0.00582898
0.00672573
0.000305674
0.000418685
0.000408402
0.00271428
0.00890496
0.000245331
0.000262361
0.00675583
0.00396069
0.00671378
0.00672348
0.000717796
0.00346015
0.000498042
0.000876375
0.00271942
0.000750539
0.000149952
0.00672048
0.00672212
0.000997021
0.00672132
0.0067207
0.0067468
0.00676372
0.000491533
0.0067226
0.00262214
0.00672851
0.000141582
0.00672207
0.00596971
0.00672366
0.00670515
0.00671618
0.00672518
0.00189737
0.00413075
0.000385521
0.00132779
0.00672189
0.000683494
0.00384814
0.00672559
0.00383435
0.000296629
0.00373655
0.00672019
0.00672036
0.00672065
0.00180997
0.00672013
0.00672008
0.000536224
0.00672108
0.00459083
0.00363717
0.011282
0.000533062
0.00661888