/*--------------------------------*- C++ -*----------------------------------*\
| =========                 |                                                 |
| \\      /  F ield         | OpenFOAM: The Open Source CFD Toolbox           |
|  \\    /   O peration     | Version:  v2012                                 |
|   \\  /    A nd           | Website:  www.openfoam.com                      |
|    \\/     M anipulation  |                                                 |
\*---------------------------------------------------------------------------*/
FoamFile
{
    version     2.0;
    format      ascii;
    class       volVectorField;
    location    "350";
    object      U;
}
// * * * * * * * * * * * * * * * * * * * * * * * * * * * * * * * * * * * * * //

dimensions      [0 1 -1 0 0 0 0];


internalField   nonuniform List<vector> 
10042
(
(0.996951 0.00807869 -4.17303e-23)
(0.998818 0.00295349 5.37828e-21)
(1.02386 0.0109268 3.03921e-21)
(1.00631 5.58557e-05 -2.68342e-21)
(1.26466 0.0449799 -7.06429e-20)
(0.9993 0.00279524 4.79116e-21)
(0.742539 -0.045071 5.32868e-20)
(0.970487 -0.227137 -2.42961e-20)
(1.02021 0.0108431 8.85302e-22)
(1.00105 0.00313442 0)
(-0.442384 -0.052368 -8.07386e-20)
(1.00985 8.53313e-05 2.49687e-21)
(1.01176 0.00193292 -3.19966e-21)
(1.01208 0.000815619 0)
(0.970376 0.0445595 -7.56393e-22)
(0.999619 0.00366852 2.69149e-21)
(0.999562 0.00381055 -2.56514e-21)
(1.00004 0.000367474 -6.27493e-22)
(0.997047 0.00773334 4.29452e-21)
(0.723748 0.302881 2.06481e-20)
(1.00268 0.00389932 3.11117e-22)
(0.990391 -0.0672528 -4.20321e-21)
(1.01121 0.000425822 -7.55075e-22)
(1.01039 0.00372446 0)
(0.998885 0.00278189 -6.04005e-21)
(1.05005 0.00239471 -1.25865e-20)
(0.999162 -5.24312e-05 -1.03671e-20)
(0.998667 0.041995 -3.53571e-21)
(1.01482 0.016278 -6.20523e-23)
(1.0038 0.0364265 0)
(0.997415 0.00166043 0)
(-0.223207 -0.02436 0)
(1.00103 0.00297331 -3.04202e-21)
(1.01578 0.0312997 0)
(1.04917 0.0291438 -1.69412e-21)
(1.01008 0.00378911 0)
(1.04956 0.00559603 0)
(1.0439 -0.0100019 0)
(1.00987 0.00353281 1.07915e-21)
(1.01866 0.0925699 -1.86977e-21)
(0.693273 0.296421 -9.00477e-20)
(0.977397 0.0433621 -2.74146e-21)
(0.748292 0.00192561 -2.72407e-20)
(0.99504 0.0251699 -2.34061e-22)
(1.25461 0.0397163 0)
(1.05015 -0.0353638 0)
(0.98274 0.0292916 0)
(1.03076 -0.0434475 -1.86326e-21)
(1.0507 0.0135407 0)
(1.0222 -0.024017 0)
(1.00032 0.000279167 -4.7672e-21)
(1.02689 0.00134845 -5.26524e-22)
(0.968594 0.0350632 0)
(1.02868 0.00188094 0)
(1.05039 0.00692369 0)
(0.999345 0.00297212 -3.51866e-22)
(1.01539 0.0162992 6.51434e-23)
(0.983094 0.0283393 0)
(1.01609 0.0302264 -6.28188e-22)
(0.970712 0.0351312 -6.76697e-21)
(0.998159 0.00222116 6.45632e-21)
(0.997716 0.00308857 3.63375e-21)
(1.05057 0.0309077 8.012e-21)
(1.02332 0.0111113 -2.39449e-21)
(0.973075 0.0140087 -1.09527e-20)
(1.01793 0.0294367 1.58686e-21)
(0.97945 0.0101912 0)
(0.769752 0.207583 -6.62592e-20)
(-0.00140135 -0.0589744 1.09242e-19)
(1.0006 0.0208116 0)
(1.02846 0.00166775 0)
(0.676836 0.310061 -1.67641e-20)
(0.994068 0.0250929 7.27266e-21)
(0.885789 0.0664398 6.41932e-20)
(0.980228 0.00717283 2.35568e-20)
(1.01062 0.00393914 0)
(1.15384 0.0249959 0)
(0.996962 0.00693031 -9.67616e-21)
(0.923531 0.0824515 2.14645e-20)
(0.706936 -0.131083 3.01671e-20)
(1.04892 0.013609 1.43076e-20)
(1.39022 0.0624219 0)
(1.0061 0.026498 3.07559e-21)
(0.979087 0.037684 -1.9135e-21)
(0.979243 0.00928449 1.49116e-20)
(1.0001 0.00113456 -1.18475e-20)
(0.997345 0.0096071 0)
(1.21848 0.164615 8.5034e-20)
(0.989385 0.0165654 -1.14132e-20)
(0.997674 0.00966786 -1.23402e-20)
(1.02322 0.0222021 2.25935e-21)
(1.37291 0.0603388 2.74862e-21)
(0.999687 0.0434488 3.72555e-21)
(1.02662 0.00145132 -4.08549e-22)
(1.00277 0.0353984 4.7386e-21)
(1.01141 0.0210747 6.89954e-22)
(0.999259 0.00650935 -6.15842e-21)
(1.0074 0.0207513 0)
(1.01772 0.0895632 -5.40045e-22)
(1.01815 0.0148698 -2.93556e-22)
(0.999994 7.09897e-05 9.21694e-21)
(1.19546 0.0982061 0)
(0.911286 -0.191173 -5.14011e-21)
(1.00013 0.0011458 1.27127e-20)
(0.993329 0.0392599 0)
(1.07931 0.157805 2.27778e-20)
(0.995142 0.00743492 -6.62451e-21)
(0.999305 0.00689938 -3.15121e-21)
(1.00258 0.0036418 0)
(1.01643 0.00110849 -5.38139e-22)
(1.00719 0.000952562 -4.91245e-21)
(1.00313 0.0164735 2.91378e-21)
(1.03552 0.0540492 1.63754e-20)
(-0.149693 -0.0480934 0)
(0.973824 0.0132544 1.02844e-20)
(1.00105 0.0150729 6.55327e-21)
(0.993357 0.00206748 3.32626e-21)
(0.996839 0.00732238 5.87322e-21)
(1.01178 0.0204914 1.28012e-21)
(-0.0798749 -0.0507433 1.42829e-19)
(0.989471 0.0157537 4.84784e-21)
(0.961245 -0.206215 9.80039e-21)
(0.997825 0.0272024 -5.39224e-21)
(0.995467 8.30369e-05 -1.15089e-20)
(1.19063 0.0903577 1.32769e-20)
(1.00554 0.0271053 0)
(0.997453 -0.230359 -4.50312e-21)
(1.05652 0.0227302 2.82446e-20)
(1.07066 0.15589 -3.16927e-20)
(0.998088 0.0103953 8.54128e-21)
(0.921737 0.0881876 0)
(0.984318 0.0162094 1.12151e-20)
(-0.210918 -0.00591076 0)
(1.1089 -0.139975 5.61029e-20)
(1.01762 0.0150304 1.06208e-21)
(1.12514 0.106636 1.07333e-19)
(-0.293015 -0.0741584 -3.10307e-19)
(1.02342 0.0231397 0)
(1.03044 -0.0441157 0)
(1.23147 0.169991 1.01036e-19)
(0.988599 0.04054 0)
(0.99297 0.00210342 0)
(0.98886 0.0357041 -6.00068e-21)
(1.21922 0.0405674 7.86301e-20)
(1.02484 0.00231167 -7.66619e-22)
(1.00286 0.0160557 1.24546e-22)
(1.13074 0.0681989 -3.2107e-20)
(1.01917 0.00208869 0)
(1.00744 0.0214797 -6.37574e-22)
(1.01703 0.0644001 2.63307e-21)
(1.0215 0.0100002 0)
(1.00003 0.000141681 1.54927e-22)
(0.552402 -0.439659 1.7166e-20)
(-0.117219 -0.0464576 -2.64363e-19)
(0.999701 0.00053289 -1.00368e-20)
(1.01174 0.00170118 4.00056e-21)
(0.962416 0.00916345 0)
(0.997481 0.00307576 0)
(1.12714 0.113789 -2.7919e-20)
(-0.135479 -0.0122376 -1.78719e-19)
(-0.513781 -0.0801631 0)
(1.12817 -0.0856086 0)
(0.996614 0.00192431 0)
(1.02125 0.0104795 -1.05846e-21)
(1.00903 0.0281772 0)
(0.984879 0.0152966 1.03023e-20)
(0.999187 0.230445 0)
(0.222017 0.125728 -2.66639e-19)
(-0.263973 -0.0221259 0)
(0.0206973 -0.0615988 1.20008e-19)
(1.02833 0.00309213 5.72464e-22)
(1.00335 0.00881972 3.72116e-21)
(1.39815 0.0601544 3.02275e-19)
(0.731876 0.359447 7.95004e-20)
(0.939252 0.145747 5.27254e-21)
(0.924361 0.244903 0)
(-0.571877 0.332325 0)
(0.996341 0.0262918 2.87493e-22)
(0.756163 0.228681 -4.76291e-20)
(1.06084 0.0654363 -8.228e-22)
(0.960361 0.00966959 0)
(-0.197227 -0.0166557 -2.1666e-19)
(0.978556 0.0124231 -7.4878e-21)
(1.05569 0.0241999 1.5219e-20)
(0.977122 0.0410756 2.74707e-21)
(-0.00291594 -0.0396908 -1.2852e-19)
(1.18702 -0.122998 0)
(1.01575 0.0263624 -1.02044e-21)
(-0.465733 -0.126066 2.42778e-19)
(1.03822 0.0235618 0)
(0.825553 0.813749 4.48644e-21)
(0.987279 0.0355019 0)
(0.534155 -0.371357 2.58575e-20)
(1.32753 0.0572134 -7.32272e-21)
(1.07726 -0.0717391 -8.4428e-21)
(1.31517 0.00721789 1.24677e-19)
(1.04368 0.0113452 0)
(0.995829 0.00644005 -2.65517e-21)
(1.0115 0.00157408 8.2886e-22)
(1.02532 0.0420939 3.95367e-21)
(0.915815 0.132344 1.40331e-20)
(1.01656 0.026661 4.18321e-22)
(1.00414 0.0165202 2.50404e-21)
(0.759088 0.381895 0)
(0.978296 0.0113638 1.54372e-20)
(1.01273 0.00968773 2.31128e-21)
(0.91385 0.857659 -6.31998e-20)
(0.999491 0.000334986 -1.5037e-20)
(1.00003 0.000431764 5.3846e-21)
(0.999938 0.000938454 2.05396e-21)
(1.32001 0.00463874 0)
(1.01165 0.000285129 0)
(0.991676 0.220339 2.82845e-21)
(1.14234 0.413276 -3.82845e-20)
(0.964022 0.0106942 -1.33553e-20)
(1.19959 -0.124566 0)
(0.98294 0.0059338 1.25902e-20)
(1.00004 0.0043181 4.93925e-21)
(1.14328 0.0405033 -2.84393e-20)
(1.00686 0.0109244 2.81701e-21)
(1.03814 0.0532403 2.74299e-21)
(0.961977 0.016068 -1.08771e-20)
(1.24859 0.328609 0)
(1.04396 -0.0117641 -1.04126e-20)
(0.95852 0.0589292 -6.66543e-21)
(1.04975 -0.000671612 0)
(1.07335 -0.201667 7.80061e-20)
(1.00195 0.0156172 -6.10649e-21)
(1.17821 -0.0829876 6.80593e-21)
(1.02865 0.00137485 0)
(1.02062 0.0104152 9.42432e-22)
(0.8814 0.380297 0)
(1.00305 0.00847544 -6.53191e-23)
(1.02854 0.00124979 1.31139e-21)
(1.02422 0.0113187 2.91209e-21)
(1.0196 0.0653638 5.76063e-21)
(1.0116 0.010755 4.24761e-22)
(1.01247 0.000531288 -2.30039e-21)
(1.0347 0.0122957 -5.05698e-21)
(1.0285 -0.00111384 3.90973e-23)
(0.996578 0.00169732 -5.09235e-21)
(0.996794 0.0272668 7.40805e-21)
(1.00877 0.0271277 0)
(1.03556 0.0568345 -1.01335e-20)
(1.00128 0.0145557 -6.97151e-21)
(0.997593 0.00182521 3.74518e-21)
(1.00969 0.000845461 1.51985e-23)
(0.994047 0.0409203 -4.75118e-21)
(1.02849 0.00241607 0)
(1.00002 0.0002716 -4.27211e-21)
(1.01146 0.00100799 1.81852e-21)
(1.00096 0.0201627 0)
(0.999795 0.060443 -4.45239e-21)
(1.27073 0.338289 8.96402e-20)
(1.13644 -0.0810936 0)
(-0.507789 -0.135138 -1.73325e-19)
(0.932847 0.150798 2.51414e-20)
(0.954423 0.14414 1.48398e-20)
(0.970206 0.0470413 1.45548e-20)
(1.05132 -0.0412609 0)
(0.856428 0.107646 0)
(1.03371 0.0125289 9.24189e-21)
(0.995244 0.00704398 0)
(1.01231 0.000550387 0)
(1.02365 0.0419396 -3.91984e-22)
(1.01134 0.0103547 -9.93065e-22)
(0.980018 -0.0617382 9.1793e-21)
(1.03141 0.00418349 5.11872e-21)
(0.997714 0.0102762 9.50826e-21)
(0.999965 0.000861964 0)
(0.906342 0.134234 -1.74698e-20)
(1.02878 0.00223519 2.33539e-21)
(1.15275 0.391105 9.85775e-20)
(0.948459 0.149595 -1.4837e-20)
(1.2366 0.119221 0)
(1.03909 0.024602 -5.31958e-21)
(1.02812 -0.000812212 0)
(1.01064 0.0100064 2.00857e-21)
(1.03736 0.00301411 -1.05836e-20)
(1.02516 0.00255261 1.23082e-21)
(1.06442 0.0664654 -1.33306e-20)
(0.992689 0.0167931 5.70037e-22)
(1.05098 0.00373581 0)
(-0.0990951 -0.00142748 -3.40379e-19)
(1.01236 0.00945127 -2.75983e-21)
(1.02203 0.0127258 -1.56959e-21)
(0.84134 0.07093 0)
(1.05241 -0.0372715 0)
(1.01548 0.0255772 1.07666e-21)
(0.997978 0.00192722 4.73081e-22)
(1.00004 0.0579208 3.32932e-22)
(0.965423 0.258304 0)
(1.10131 -0.00926435 -1.50763e-20)
(1.22352 0.0353964 -9.31399e-20)
(1.00028 0.000245352 2.44376e-21)
(1.01155 0.00135284 -2.45494e-21)
(1.00225 0.0161131 1.35217e-22)
(1.02038 0.0113368 -1.71922e-21)
(1.0542 -0.198119 5.65905e-20)
(0.995734 0.0134006 0)
(0.998166 0.00240635 -7.50186e-21)
(1.00317 0.00979562 3.3875e-21)
(0.982916 0.00492002 0)
(1.03803 -0.0130677 -1.22598e-20)
(0.977749 0.0520523 6.46243e-21)
(1.13806 0.169483 0)
(1.11554 -0.114934 -1.49281e-19)
(0.971772 0.0327792 2.10952e-20)
(1.3287 -0.306873 7.32018e-20)
(1.00115 0.0133996 0)
(1.03676 0.00335585 -2.14404e-21)
(0.999023 8.81859e-05 -8.70737e-21)
(-0.3433 0.0138215 -2.07515e-19)
(1.19094 0.0739366 9.12635e-20)
(1.29844 0.0558282 0)
(-0.495082 0.401163 0)
(1.01121 0.00409629 -4.13317e-23)
(1.03133 0.00387588 0)
(1.00099 0.0214301 0)
(0.987046 0.056783 8.16748e-21)
(1.05097 0.000645891 0)
(1.00004 0.000862829 0)
(1.05842 0.0803651 1.6641e-20)
(1.00746 0.000988101 0)
(1.01266 0.000344268 0)
(0.995339 0.0262762 -3.75317e-21)
(1.14624 0.175223 5.16264e-20)
(0.999991 0.000260596 6.88305e-21)
(1.03657 0.023748 5.72839e-21)
(0.985083 0.0134062 0)
(0.979458 0.0504273 -5.59614e-21)
(-0.411831 0.0582428 0)
(1.00095 0.0139515 -3.71578e-21)
(0.999623 0.000391383 -4.49095e-21)
(1.00162 0.00106725 0)
(1.02299 0.0105289 0)
(1.08649 0.0994154 3.05181e-20)
(1.07217 -0.0731819 0)
(0.963427 0.146772 5.91737e-21)
(1.26196 -0.232566 -5.6497e-20)
(1.0397 -0.0129591 5.10035e-21)
(1.05322 0.0244471 1.56653e-20)
(0.984441 0.0141786 -1.31886e-20)
(1.01225 0.000778949 -7.26045e-22)
(1.02574 0.0206402 -5.31445e-21)
(1.00002 0.000300996 -1.59513e-22)
(1.21236 -0.206863 -8.80867e-20)
(0.993038 0.0173818 -2.86031e-22)
(1.01748 0.0303591 -4.89747e-23)
(1.02897 -0.0497188 -2.54513e-21)
(1.0037 0.0167859 0)
(0.991179 0.0624437 0)
(0.97906 0.039804 2.49986e-21)
(1.03128 -0.04973 -1.70751e-21)
(1.02476 0.00679452 -1.20019e-21)
(0.959496 0.0564816 9.78908e-21)
(1.06758 0.148464 2.09412e-20)
(1.05433 0.0810549 -1.27555e-20)
(1.02662 0.0392118 9.50315e-21)
(0.995128 0.00568439 5.57834e-21)
(1.29454 -0.246366 0)
(1.13508 0.0649957 9.2856e-20)
(1.0286 0.00859131 0)
(1.08519 0.0934832 -1.29492e-20)
(1.00059 0.00548593 -5.78141e-21)
(1.00303 0.00812004 -3.54932e-21)
(1.00074 0.00547202 7.84794e-23)
(0.988843 0.0626549 0)
(1.30917 0.0657301 -8.98587e-20)
(1.03032 0.000550693 4.5045e-21)
(1.00004 0.000726717 0)
(0.973613 0.0330289 -1.35368e-20)
(1 7.57552e-05 0)
(0.999998 0.00052395 0)
(0.745063 0.321781 -1.64916e-20)
(0.995672 0.00607711 -1.33319e-21)
(1.01644 0.00701232 -3.7288e-22)
(-0.255567 -0.0748653 2.9762e-19)
(1.00408 0.00571375 3.54751e-21)
(0.861793 -0.16281 1.11549e-21)
(1.19825 -0.224432 0)
(0.886646 0.0735541 -8.35958e-20)
(0.984253 0.316623 0)
(-0.491731 -0.143768 0)
(1.01625 0.0812173 -2.30355e-21)
(0.856643 0.379733 0)
(0.999462 0.000152556 4.98967e-21)
(1.02339 -0.0260376 0)
(0.999998 0.000156942 0)
(0.982422 0.0259093 -8.04322e-21)
(1.08208 -0.0399969 7.00631e-22)
(1.00015 0.00301044 0)
(0.985336 0.0586103 -8.85019e-21)
(0.644491 1.04384 0)
(1.01072 0.000389886 1.64502e-21)
(1.00259 0.00404225 0)
(0.807127 0.124718 -7.2269e-20)
(0.865342 0.743385 3.81772e-20)
(1.01737 0.0283806 -6.85733e-22)
(1.01874 0.00255386 3.98962e-24)
(-0.243325 -0.0222818 0)
(1.19641 0.0815645 -7.8895e-20)
(1.00338 0.00922626 -4.62807e-21)
(0.762055 0.192421 5.77424e-20)
(-0.151097 -0.0345636 0)
(1.00723 0.0110571 -5.32827e-21)
(1.00002 0.000527018 0)
(1.01395 0.00786959 -9.07213e-22)
(0.999024 0.0118479 -4.4199e-21)
(1.01265 0.000424647 7.53355e-23)
(1.01233 0.0089619 0)
(1.28749 -0.289258 -1.8858e-19)
(0.927136 -0.211826 0)
(0.981996 0.0269916 0)
(1.25037 -0.0783372 1.19133e-19)
(1.01196 0.000702228 0)
(0.995793 0.0126653 0)
(1.30808 0.102975 -4.29052e-20)
(1.02622 0.00885822 6.30205e-21)
(0.876406 -0.192111 4.00912e-21)
(1.10486 -0.0127168 3.70593e-20)
(0.977384 0.0368733 -1.07422e-20)
(1.01712 0.00559073 -1.63474e-22)
(1.01839 0.00260623 -2.82907e-22)
(1.13699 0.295066 0)
(1.02859 0.00286192 -1.3571e-21)
(1.013 0.0832849 2.40286e-21)
(0.998177 0.0362437 7.92051e-21)
(-0.389578 -0.0546663 1.5883e-19)
(0.965821 0.0100008 1.27058e-20)
(1.30218 0.0538372 0)
(0.972891 0.0437807 -1.13601e-20)
(1.00167 0.00479507 -3.89243e-21)
(1.00137 0.0156307 0)
(1.32874 0.246098 -2.316e-20)
(1.00138 0.00450397 -9.75167e-21)
(0.926983 0.023983 1.27024e-22)
(0.99797 0.016426 -5.85514e-21)
(1.02434 0.00687658 0)
(-0.155959 0.000986731 4.76457e-20)
(1.045 0.01354 1.06776e-20)
(0.993056 0.00339022 -1.21489e-23)
(1.00759 0.000595164 2.08412e-21)
(-0.34073 -0.0246019 8.97563e-20)
(0.998526 0.0111224 2.06086e-21)
(1.04637 0.0140084 -6.64368e-21)
(1.02077 0.0436814 -2.83021e-21)
(1.0109 0.0103582 0)
(1.3703 -0.0647817 0)
(0.936474 0.314526 0)
(1.00307 0.00487402 1.9907e-21)
(0.97533 0.0133703 0)
(1.03068 0.000375261 -4.84331e-21)
(1.01137 0.001182 -7.12093e-22)
(0.999636 0.00406226 0)
(0.99474 -0.000683318 0)
(-0.355134 -0.0543844 0)
(0.995848 -0.000782531 -2.56265e-22)
(1.01197 0.000367129 -7.5211e-22)
(0.9881 0.0921366 4.00654e-21)
(0.928525 -0.168772 0)
(1.13197 0.0351354 -2.78069e-20)
(1.00002 0.000329293 1.27719e-22)
(1.0607 0.0611086 0)
(-0.114743 -0.0240977 -2.18175e-19)
(1.03744 -0.0149636 2.07538e-21)
(0.992087 0.000326791 0)
(0.995391 0.00521963 0)
(1.12194 -0.136993 0)
(1.028 0.00855367 0)
(1.00165 0.00451032 3.85228e-21)
(0.920882 0.0718935 -2.52717e-20)
(1.02104 0.01152 2.08056e-21)
(1.01204 0.00878307 0)
(0.960354 0.0174059 -4.34506e-21)
(1.01289 0.00397131 2.37121e-21)
(0.98716 0.15017 0)
(0.994791 0.00773563 7.2107e-21)
(1.00127 0.00451255 2.25723e-21)
(-0.521874 -0.0567642 1.70533e-19)
(1.00614 0.00438309 5.73492e-24)
(1.0279 0.00286306 2.03596e-21)
(1.00028 0.00293235 1.05714e-20)
(0.998856 0.0348774 -3.49729e-21)
(1.05955 0.0748044 6.49773e-22)
(1.00291 0.00472107 3.78865e-21)
(1.02243 0.0106173 0)
(1.30131 0.0606544 2.02517e-19)
(1.00168 0.0388973 2.84296e-21)
(0.81858 -0.478011 -1.2231e-20)
(1.03341 0.0136109 6.77496e-21)
(1 0.000137241 -8.26653e-21)
(1.00001 0.00011731 -5.01596e-21)
(1.21092 0.107254 1.11565e-19)
(0.991933 0.013804 6.25104e-21)
(0.993007 0.00307037 -7.09593e-21)
(1.00137 0.00124022 0)
(1.02888 0.00773233 0)
(0.966061 0.0829014 2.7875e-21)
(0.744718 -0.140392 0)
(0.998142 0.0109869 2.04067e-23)
(0.979849 0.148085 3.15967e-21)
(0.715468 0.831589 0)
(1.03593 -0.0150495 5.2036e-21)
(1.00002 0.000499818 5.53107e-21)
(0.994496 0.0015384 0)
(1.0261 0.00517301 0)
(1.00012 0.00116688 -7.38883e-21)
(1.00025 0.0121926 -3.79074e-21)
(-0.148644 0.100254 -3.34298e-19)
(-0.347077 -0.0821705 2.06125e-19)
(1.00014 0.00278378 0)
(1.05563 0.0208576 -1.21745e-20)
(1.03543 -0.00507064 6.6727e-21)
(1.03518 -0.00460886 0)
(0.979263 0.00676773 -1.72684e-20)
(1.00874 0.000947558 6.10262e-22)
(0.967921 -0.148837 0)
(1.14356 0.281866 -5.15836e-22)
(0.756653 0.80943 0)
(1.01668 0.00559558 -3.28567e-22)
(1.02653 0.0054116 -2.23172e-21)
(1.02568 0.00909855 -4.7608e-21)
(1.00396 0.00587227 -9.13028e-21)
(0.151491 -0.0625729 1.27293e-19)
(1.07182 0.0644704 1.94091e-20)
(1.02893 0.0082643 0)
(1.01515 0.0188388 -4.06599e-23)
(1.00614 0.00044194 3.46015e-21)
(0.981018 0.00503945 0)
(0.95993 -0.169575 -2.25589e-21)
(1.04499 0.0119897 -1.11498e-20)
(0.99921 -0.000174379 1.08311e-20)
(-0.359963 -0.0621754 -1.11986e-19)
(0.846616 0.693613 -1.05324e-20)
(1.11496 0.465473 -6.63234e-20)
(1.08686 0.152558 -2.16939e-20)
(0.999662 0.00390401 -5.76187e-21)
(1.01758 0.0157197 1.2172e-22)
(1.01256 -0.0271086 3.12406e-22)
(1.12123 0.0608899 0)
(0.178225 -0.0381727 -4.84546e-20)
(0.36269 0.161716 1.85885e-19)
(0.95797 0.0504792 -2.00986e-20)
(0.923236 0.0222256 2.99528e-22)
(1.00013 0.00104414 -6.36869e-21)
(1.0359 0.0224908 -6.33921e-21)
(0.97629 0.0138732 0)
(1.00014 0.0010901 5.01344e-21)
(-0.499865 -0.0743254 0)
(1.00994 0.000920154 0)
(1.00088 0.0128348 6.9201e-21)
(1.0437 -0.0327031 0)
(1.00009 0.00116466 6.74976e-21)
(0.995123 -0.014122 0)
(1.03244 0.0136316 -2.57298e-22)
(1.03804 -0.0845323 0)
(1.02871 0.0839368 -6.08872e-21)
(0.99999 0.00089452 0)
(1.03221 0.00595423 0)
(1.05003 0.0270812 1.70958e-20)
(1.01779 -0.0105291 0)
(1.08821 0.146594 1.15714e-20)
(1.00869 0.282773 -1.52068e-20)
(0.999979 0.000284153 -6.59095e-21)
(1.01947 -0.0235326 0)
(1.02463 0.0354302 1.86978e-22)
(1.01055 0.0209247 -6.11447e-22)
(1.00041 0.0014272 0)
(1.02597 0.0214584 4.77278e-21)
(0.997183 -0.000151709 8.30486e-21)
(0.956983 0.053367 0)
(1.1296 0.031315 -1.41615e-20)
(0.87118 0.129764 0)
(0.999192 -0.000438657 8.31925e-21)
(1.00106 0.0402439 -4.96153e-21)
(1.00141 0.00114854 -4.78082e-21)
(0.992727 0.00593505 -7.7127e-21)
(0.839408 0.360495 -1.57126e-20)
(1.00227 0.00317652 2.70175e-21)
(1.01784 0.0450332 1.86361e-21)
(0.99965 -0.0647926 0)
(1.01262 0.00385858 -2.51826e-21)
(1.12374 0.0666646 -2.8876e-20)
(1.00737 -0.0422664 0)
(0.99781 0.00178444 -1.19169e-20)
(-0.032442 -0.021864 -1.64179e-19)
(1.06176 -0.0141072 2.44685e-20)
(1.00004 0.00119561 2.38195e-22)
(1.22476 -0.0978263 6.50903e-20)
(1.02528 0.0108284 2.10921e-22)
(1.00002 0.000354697 -1.72873e-22)
(0.984159 0.00938567 0)
(0.995558 0.000921257 -1.40708e-21)
(0.999995 0.000129161 -6.47841e-21)
(1.03845 0.028345 5.48586e-21)
(0.980093 0.00487028 4.32459e-21)
(0.899696 0.637924 -5.65531e-21)
(0.990417 0.0407457 0)
(0.994824 0.00170958 0)
(1.01914 0.0272425 5.00182e-22)
(1.06323 0.0740901 -2.55704e-20)
(1.06029 0.00222497 1.30846e-20)
(0.995224 -0.000176856 1.22988e-20)
(1.03432 0.00332889 -4.60393e-21)
(1.0171 0.0158207 -5.30055e-22)
(1.0423 -0.00917922 0)
(0.985404 0.00431995 -1.09683e-20)
(1.02637 0.0875116 0)
(1.01686 0.00715479 9.39341e-23)
(0.955926 0.0109919 -1.24384e-20)
(1.01786 0.00302501 -6.37047e-23)
(1.001 0.0058886 0)
(1.22271 -0.19442 0)
(1.01362 0.00804914 1.00586e-21)
(0.840873 0.339928 3.26594e-20)
(0.994592 -0.000306902 1.29334e-20)
(1.03047 0.00662769 2.77472e-21)
(1.00658 0.00418023 2.09673e-21)
(1.05304 -0.00456312 -2.02825e-21)
(1.00024 0.00272715 -1.97203e-21)
(1.06422 -0.015164 -2.30074e-20)
(1.01611 0.0248813 -4.46814e-22)
(1.21653 -0.0881338 4.30066e-22)
(1 0.000676217 -4.88045e-21)
(0.786919 0.0180614 -2.46504e-20)
(1.01924 0.00182762 0)
(0.978482 0.048092 0)
(0.999979 0.000433695 1.09847e-20)
(0.982079 0.00667714 0)
(1.00049 0.00510066 -5.31909e-21)
(1.03773 0.0290771 0)
(0.997225 0.000257831 5.70196e-22)
(0.685288 0.261836 5.82258e-20)
(0.669313 0.448492 -2.1677e-19)
(1.00735 -0.00914483 0)
(1.03732 0.0101312 0)
(0.967566 0.14049 -5.66454e-21)
(1.00515 0.0166296 -4.77868e-21)
(1.0056 0.147228 5.97839e-21)
(1.04748 -0.0355636 -8.04784e-21)
(1.00111 0.00291601 -3.39382e-21)
(0.926861 0.0719372 2.12596e-20)
(1.00547 0.299499 -5.86597e-21)
(0.281712 -0.090201 -2.24971e-20)
(1.00386 -0.0410967 2.35724e-21)
(1.38942 0.0792883 1.30996e-19)
(1.05232 0.0268776 -3.22583e-20)
(0.999632 0.030063 4.14087e-21)
(1.00007 0.000999639 0)
(1.03584 0.00320029 0)
(1.03882 0.025979 1.61358e-21)
(1.02043 -0.00886784 0)
(1.01098 0.00386566 2.24594e-21)
(1.02871 0.0368142 0)
(1.13843 -0.0701311 4.51474e-20)
(1.00003 0.000124788 -5.20629e-21)
(0.992634 0.0054684 8.66133e-21)
(1.03459 0.00260796 -4.89145e-21)
(0.755886 -0.209514 2.75669e-21)
(0.980206 0.0465925 0)
(1.05745 0.0593383 -2.82034e-21)
(1.00909 -0.0259005 2.64379e-21)
(0.999984 0.00079252 0)
(0.70284 -0.0751347 -5.75823e-20)
(1.01083 0.00449384 0)
(1.00378 0.0100348 0)
(1.00506 0.0363758 0)
(1.02117 0.0120047 -1.49874e-21)
(-0.361648 0.0060421 2.24085e-19)
(1.0414 -0.0395506 0)
(0.626449 -0.179499 -3.41264e-19)
(1.00099 0.000441812 -1.00803e-20)
(1.44157 0.211468 -8.03045e-20)
(0.0523 0.0629085 0)
(1.17634 -0.217249 0)
(1.02194 -0.00915958 0)
(1.04848 -0.0417685 0)
(1.1668 -0.0851778 0)
(1.03381 0.14426 0)
(0.984766 0.0124043 0)
(0.997641 0.0169744 0)
(0.918605 0.0773718 3.15556e-21)
(-0.450071 0.00578539 9.02946e-20)
(1.00618 0.0166002 0)
(0.986767 0.0964376 0)
(0.99442 -0.553533 0)
(0.994629 0.00860275 0)
(1.0015 0.00666975 0)
(1.01025 0.0214662 -1.55481e-21)
(0.993826 0.0443972 0)
(1.00036 0.0051532 -6.23897e-21)
(1.0254 0.00619007 -1.8193e-21)
(1.2058 0.116173 -3.82431e-20)
(1.35296 0.0147605 6.07282e-20)
(1.02492 0.00623297 -4.84952e-22)
(1.00014 0.00416734 -4.22489e-21)
(-0.259523 -0.0115013 0)
(0.4102 -0.263506 -1.90839e-20)
(1.00471 0.0169499 -5.68e-21)
(0.992594 0.000136689 0)
(1.00033 0.000331923 0)
(0.998627 0.0117154 2.17547e-21)
(1.3194 0.108156 -5.67681e-20)
(1.03911 -0.0389866 6.02293e-21)
(1.11543 0.413776 -1.5143e-20)
(0.991564 0.0391903 7.49659e-22)
(1.00148 0.00699345 -5.19701e-21)
(1.02146 0.00904408 1.09323e-21)
(0.958735 0.00794841 -2.08477e-21)
(0.998328 0.00211909 -6.68751e-21)
(1.04834 -0.0066567 -1.70005e-20)
(0.975032 0.0308028 0)
(0.99609 -0.105216 8.98919e-20)
(0.999374 0.00401276 0)
(1.00066 0.00209744 1.08896e-20)
(1.06682 0.120696 3.15355e-20)
(1.00603 0.0159971 0)
(1.02903 -0.0108846 -3.25995e-21)
(0.926893 0.257648 0)
(1.03165 0.00633381 7.56723e-22)
(0.801591 0.60769 -7.86979e-20)
(0.524182 -0.168081 4.54634e-20)
(0.998481 0.0302147 -2.71004e-21)
(1.00044 0.0127784 0)
(1.29698 -0.368785 -6.0252e-20)
(-0.495102 -0.0306855 0)
(1.01149 0.129104 5.14296e-21)
(1.02472 0.0107286 -2.1845e-22)
(0.99989 -0.258584 -1.44706e-20)
(0.809646 0.41346 0)
(0.931015 0.0300072 -3.88121e-20)
(0.985443 0.0115961 0)
(1.00154 0.000927467 0)
(1.00236 0.00346895 -5.0006e-21)
(1.17907 0.389111 -1.24885e-19)
(1.03694 0.0106116 0)
(0.823381 0.298865 2.10583e-20)
(1.00002 0.000385653 0)
(-0.359717 0.0269887 -3.17014e-21)
(1.30514 0.0613699 8.53297e-20)
(0.994567 0.00113911 1.21306e-20)
(0.997957 0.00376297 -7.94449e-21)
(0.697386 0.247961 -5.12236e-20)
(0.999473 0.000359676 1.22172e-20)
(1.00684 0.00420831 5.12777e-21)
(1.00693 0.0654934 0)
(0.11733 -0.0234836 -2.59922e-19)
(0.377446 -0.203267 0)
(1.30731 -0.187915 0)
(1.0276 0.00321716 -2.04534e-21)
(1.06347 -0.035424 0)
(1.032 0.13675 -1.40702e-20)
(1.00954 0.00354703 2.75136e-21)
(1.00568 0.000258311 -1.92034e-21)
(0.999723 0.000543106 0)
(1.1878 0.367457 1.18341e-19)
(1.00015 0.000937672 0)
(0.994796 0.00212512 0)
(1.06012 -0.0355514 0)
(0.980268 0.00820836 0)
(1.14015 0.0466154 9.31842e-20)
(1.00054 0.00046486 7.39603e-21)
(0.998871 0.000550224 -7.30373e-21)
(1.00769 0.000813699 9.45234e-23)
(0.999313 -0.000393465 -8.10578e-21)
(1.1025 -0.128707 -2.70032e-20)
(1.00015 0.00098599 0)
(1.00053 0.0194302 0)
(1.07104 -0.00694362 2.36689e-20)
(0.977225 0.222081 -1.38044e-21)
(0.89087 0.53708 4.18215e-21)
(1.00007 0.001184 0)
(1.15905 -0.00333945 0)
(0.310138 -0.2163 5.62486e-20)
(0.789444 -0.432472 4.97778e-21)
(0.975444 0.0377257 0)
(-0.352992 -0.0818553 -2.05999e-19)
(-0.150569 -0.0122402 3.79912e-19)
(0.994857 0.00834094 -7.04413e-21)
(1.01155 0.00202316 1.04043e-21)
(0.988064 0.0387109 6.74734e-21)
(0.958422 0.0276224 4.7329e-21)
(0.236294 -0.454835 2.35179e-19)
(1.02251 0.043905 -3.90296e-21)
(1.00041 0.0013083 -6.29567e-21)
(1.00013 0.000997943 0)
(0.437639 -0.349141 -3.19462e-20)
(1.00551 0.139731 -3.96026e-21)
(1.02722 0.00302795 0)
(1.00035 0.00106648 -5.8377e-21)
(0.992262 0.00113522 -1.23092e-22)
(1.09083 0.0893114 -1.56607e-20)
(1.00643 0.0044539 -4.73567e-21)
(1.00451 0.000396531 0)
(1.04224 -0.00764569 2.68202e-21)
(0.992943 0.0426934 5.6727e-21)
(0.999789 0.000689607 -5.99186e-23)
(1.01852 0.0130451 0)
(0.78287 0.678826 1.43067e-20)
(1.02162 0.0131684 -1.44515e-21)
(0.99674 0.0423672 -4.43441e-21)
(0.997027 -0.000398694 -4.44838e-21)
(1.00125 0.0358308 -5.04529e-21)
(1.21974 0.056911 4.59221e-20)
(1.00009 0.00119259 0)
(0.983684 0.0433959 -2.14982e-21)
(0.998173 0.000596103 0)
(1.04253 0.0122465 -9.16918e-21)
(0.693838 0.596214 -9.81082e-21)
(0.999999 9.29009e-05 4.23268e-23)
(0.9032 0.511589 -1.81611e-20)
(1.0386 0.0510003 5.57348e-21)
(0.325749 -0.346974 0)
(1.01087 0.000430252 -1.04326e-21)
(1.02654 0.040713 -2.32544e-21)
(1.04085 -0.00707187 0)
(1.16164 0.000732401 -5.52095e-20)
(0.810104 0.137739 4.97796e-20)
(0.974657 0.0296668 -9.60924e-21)
(1.3937 0.0707381 -2.39804e-19)
(0.851913 0.000254768 4.56158e-20)
(0.969486 0.0195987 1.64047e-20)
(1.00749 0.000445577 -2.58352e-21)
(1.15827 -0.229675 8.49721e-20)
(0.998217 1.42744e-05 -1.40919e-20)
(1.00004 0.000751828 0)
(1.00935 0.0100419 0)
(1.00005 0.00083747 -7.46783e-22)
(1.09956 -0.000150364 0)
(1 1.34592e-05 -2.58729e-21)
(0.999992 0.000126057 0)
(0.913511 0.25381 0)
(1.02696 0.0799963 9.77801e-21)
(1.00919 8.34767e-05 4.40591e-21)
(0.94509 0.104022 1.89047e-20)
(0.961868 0.0139919 1.30556e-20)
(1.2279 -0.0980737 0)
(1.03387 0.0104672 -4.45189e-21)
(0.882826 0.606876 -7.26254e-21)
(0.999161 0.0124597 0)
(1.0463 -0.0328019 1.65545e-20)
(1.01183 0.136496 -5.41511e-21)
(0.835594 -0.594882 0)
(1.03986 0.0159791 -7.80298e-21)
(0.0397748 -0.0613476 0)
(1.00001 0.00040164 -5.72889e-21)
(1.03002 -0.000614138 -3.36016e-21)
(1.00104 0.00166545 -1.31925e-21)
(1.00007 0.0289424 2.80849e-21)
(0.99125 0.0138983 -8.7588e-21)
(1.0377 -0.0791429 0)
(0.888318 0.136692 -2.36188e-20)
(1.0166 -0.019694 -1.04308e-21)
(-0.537261 -0.0850019 0)
(1.00036 0.00147126 6.01844e-21)
(1.03231 0.997606 0)
(1.02896 -0.0008024 -1.18819e-21)
(1.01519 0.0150328 0)
(0.891423 0.062294 0)
(1.05962 0.0145591 -1.27219e-20)
(0.518217 -0.193105 -3.88848e-20)
(0.997738 0.0037806 4.17585e-21)
(0.962223 0.0827158 1.05884e-20)
(0.971559 0.209738 0)
(1.01965 0.0453434 0)
(0.861733 0.132607 0)
(1.00001 0.00016101 -1.64278e-22)
(1.0108 0.0022731 6.22553e-22)
(1.00001 0.000146093 5.22397e-21)
(1.06184 0.463995 0)
(0.999367 0.000718627 1.33161e-20)
(1.001 0.00320662 0)
(1.00867 0.00969137 2.56154e-21)
(1.007 0.000766144 3.38779e-21)
(1.00086 0.00585995 5.56835e-21)
(0.99992 0.00428582 -1.30598e-20)
(1.01979 0.0283042 0)
(1.00194 0.0106331 -7.59836e-21)
(0.999437 0.000213167 5.60674e-21)
(0.966143 0.00812073 0)
(1.00943 0.0670743 0)
(0.950141 0.101497 0)
(0.995704 -0.000540828 9.75082e-21)
(0.407817 -0.399935 1.12976e-19)
(1.00233 0.02578 3.52075e-21)
(1.40539 0.204845 7.64969e-20)
(0.92359 0.137147 0)
(-0.0264136 0.0515438 -6.70808e-20)
(1.0803 0.0372754 -2.37814e-20)
(1.03012 -0.000371953 4.85899e-21)
(-0.285729 -0.0119249 -2.0022e-19)
(1.06252 0.00229173 -1.37049e-20)
(1.10143 0.442084 7.34075e-20)
(0.931958 -0.441956 1.24941e-20)
(1.08948 0.0839118 0)
(1.00014 0.00102856 2.00207e-22)
(1.00311 0.00934666 -4.15238e-21)
(1.00634 0.0440902 -2.08036e-21)
(1.22393 0.0507442 5.03058e-20)
(1.00956 0.0215833 0)
(0.178541 -0.0094041 3.70864e-19)
(1.00327 0.0209715 -3.96741e-21)
(1.05838 0.725631 0)
(0.797841 0.0618498 1.13091e-20)
(1.00869 -0.0223646 -2.41809e-21)
(1.03211 0.0145767 0)
(-0.114795 -0.0511897 0)
(-0.334027 0.159854 1.6092e-19)
(0.953512 0.011481 -4.73228e-21)
(0.995367 0.000386507 1.14269e-20)
(0.999994 0.000583468 -8.11021e-21)
(1.0347 0.00399376 0)
(1.01096 0.00217122 -3.52975e-23)
(1.00854 0.000754612 -2.96163e-21)
(1.11989 0.121266 -5.45784e-20)
(1.08899 -0.0560758 -1.90625e-21)
(0.998249 0.000365756 -8.1999e-22)
(1.00887 0.0212939 0)
(0.967905 0.00764659 0)
(1.32918 0.23241 -5.21682e-20)
(1.01329 -0.0304732 0)
(0.999683 0.000817673 0)
(1.03662 0.0489022 -1.62606e-20)
(1.1331 -0.0383952 3.16767e-21)
(0.999069 0.0375438 0)
(0.999986 0.00373517 5.08057e-21)
(0.0597385 -0.00578348 -2.54612e-19)
(0.990354 0.0319935 -1.30241e-20)
(0.99608 0.0138403 0)
(0.919554 1.03901 0)
(1.00234 0.0567621 3.008e-21)
(0.983818 0.00427929 0)
(-0.18977 -0.0110973 1.97225e-19)
(0.827897 0.326224 0)
(0.183455 0.016815 1.54858e-19)
(0.992946 0.00697243 -4.89246e-22)
(0.984249 0.0456007 1.09478e-20)
(1.21288 -0.169973 0)
(1.00892 0.0100518 -2.67828e-21)
(1.01495 0.0195699 4.8138e-23)
(0.999995 0.000264107 0)
(1.02819 -0.00465274 1.60752e-21)
(0.99833 0.00251834 1.33417e-20)
(1.00057 0.000451429 -3.77687e-21)
(1.02866 0.00106895 -6.9906e-22)
(0.81829 0.115272 2.13025e-20)
(0.96823 0.425166 0)
(1.00617 0.0110908 5.22179e-23)
(0.9863 0.00828505 0)
(0.99819 -0.000334014 0)
(1.0145 0.0182734 0)
(0.989257 0.0373066 -1.33636e-20)
(1.01017 0.00248154 0)
(1.15999 -0.0754907 4.79682e-20)
(1.01319 0.0878014 6.44523e-22)
(0.994733 0.0229675 1.14907e-20)
(0.996704 0.00283702 5.56586e-21)
(1.00702 0.0103042 3.13306e-21)
(1.00155 0.00306827 -3.3949e-21)
(1.02435 0.026326 0)
(0.185254 -0.0172805 4.12073e-19)
(1.04816 0.00251046 1.32469e-20)
(1.0188 0.00215546 -3.00226e-23)
(0.995275 0.00608502 0)
(0.878763 0.1388 0)
(0.722499 -0.609647 1.41224e-19)
(0.997463 0.000304663 -5.51234e-22)
(1.0015 0.00288607 8.46607e-22)
(0.997067 2.25874e-05 6.07069e-22)