/*--------------------------------*- C++ -*----------------------------------*\
| =========                 |                                                 |
| \\      /  F ield         | OpenFOAM: The Open Source CFD Toolbox           |
|  \\    /   O peration     | Version:  v2012                                 |
|   \\  /    A nd           | Website:  www.openfoam.com                      |
|    \\/     M anipulation  |                                                 |
\*---------------------------------------------------------------------------*/
FoamFile
{
    version     2.0;
    format      ascii;
    class       surfaceVectorField;
    location    "350";
    object      Uf_0;
}
// * * * * * * * * * * * * * * * * * * * * * * * * * * * * * * * * * * * * * //

dimensions      [0 1 -1 0 0 0 0];


internalField   nonuniform List<vector> 
14907
(
(0.996978 0.00792904 0)
(0.997056 0.00829952 -2.85251e-23)
(0.996753 0.00815953 -3.86454e-21)
(0.998858 0.00285765 -3.50683e-21)
(0.998726 0.00294731 2.14191e-21)
(0.998872 0.00304241 3.98463e-22)
(1.02362 0.0110434 3.57773e-22)
(1.02408 0.0112207 -1.83648e-21)
(1.02395 0.0105899 -8.06702e-22)
(1.00806 7.27473e-05 -6.54712e-22)
(1.00797 0.000100274 -6.25846e-23)
(1.25147 0.0465166 -3.37088e-20)
(1.19613 0.0400329 5.57355e-21)
(1.3076 0.0580559 3.52562e-20)
(0.999318 0.00288594 5.7732e-22)
(0.999347 0.002651 0)
(0.999219 0.00279781 4.87175e-21)
(0.747466 -0.0167247 1.45209e-20)
(0.725801 -0.0550102 2.66868e-20)
(0.762417 -0.0521384 -3.07873e-22)
(0.967327 -0.214357 1.67572e-20)
(0.983743 -0.227278 4.54478e-21)
(0.951255 -0.240589 1.02198e-20)
(1.02044 0.0106268 7.78437e-22)
(1.02032 0.0111269 -7.4219e-22)
(1.01988 0.0107555 -5.64948e-22)
(1.00104 0.00305558 1.40286e-21)
(1.00102 0.00315589 2.62909e-21)
(1.00112 0.00319989 -1.92843e-21)
(-0.419184 -0.0525398 -6.60715e-22)
(-0.486458 -0.0534647 -2.06536e-19)
(-0.426514 -0.0468524 -8.29735e-20)
(1.01073 0.000197948 2.00305e-23)
(1.0079 4.4406e-05 5.51561e-22)
(1.01174 0.00180901 6.61715e-22)
(1.01162 0.0019776 -3.48705e-22)
(1.01189 0.00202067 -1.78165e-21)
(1.01217 0.000795672 6.02019e-22)
(1.01202 0.000754034 1.02224e-21)
(1.01205 0.000934011 4.7746e-22)
(0.970267 0.0458781 -8.19782e-21)
(0.971593 0.0441295 -6.14985e-21)
(0.969118 0.0435693 1.64494e-20)
(0.999577 0.00373072 2.39686e-21)
(0.999558 0.0035913 -2.84944e-22)
(0.999669 0.0036486 3.63276e-22)
(0.999617 0.00385706 5.34663e-21)
(0.999493 0.00381247 -2.44333e-21)
(1.00003 0.000323955 3.27361e-21)
(1.00003 0.000336159 2.85223e-22)
(1.00005 0.000431852 2.26926e-21)
(0.996925 0.00750519 0)
(0.997227 0.00770868 -3.47504e-21)
(0.706352 0.298851 -2.733e-20)
(0.73303 0.31077 9.79732e-21)
(0.73334 0.28763 -2.43175e-22)
(1.00263 0.00378423 1.07858e-21)
(1.00263 0.00395653 0)
(1.0028 0.00398155 3.33973e-21)
(0.98726 -0.0648557 3.03399e-22)
(0.99692 -0.0649209 -8.00448e-22)
(0.990982 -0.0733883 -3.86869e-22)
(1.01096 0.000419603 -8.98349e-23)
(1.01098 0.000426214 6.62827e-22)
(1.01132 0.000551084 -8.55663e-23)
(1.01024 0.00375859 0)
(1.01051 0.00384752 5.79218e-22)
(1.01045 0.00358355 -6.06172e-22)
(0.998965 0.00276691 3.70408e-21)
(0.998845 0.00269298 -4.21772e-21)
(1.05057 0.0031647 -6.11742e-21)
(1.05059 0.00153297 -1.14435e-21)
(1.04914 0.00253493 6.03821e-22)
(0.999089 1.91183e-05 -6.54537e-21)
(0.999179 -0.000131981 -8.84708e-22)
(0.999212 5.71562e-06 -3.60846e-21)
(0.999184 0.0427664 -2.65766e-23)
(0.997665 0.0422157 1.0245e-22)
(0.999045 0.0411026 6.12714e-22)
(1.0151 0.0163059 -1.03632e-22)
(1.01471 0.0166559 -1.07206e-22)
(1.01461 0.0160122 -2.47299e-22)
(1.00321 0.0359177 3.12234e-21)
(1.00444 0.0363344 1.0704e-21)
(1.00357 0.037503 -1.79833e-22)
(0.997505 0.0017167 -1.82726e-21)
(0.997281 0.00160731 -1.68068e-21)
(0.997461 0.00152172 -4.07791e-21)
(-0.210244 -0.0188863 2.45538e-20)
(-0.221637 -0.026346 4.75784e-20)
(-0.233602 -0.0288865 -7.37207e-20)
(1.00107 0.00294032 3.82622e-23)
(1.00097 0.00291827 4.35562e-21)
(1.01589 0.0307816 6.80246e-22)
(1.01625 0.0319183 -1.29208e-22)
(1.01488 0.0312063 1.8071e-22)
(1.04994 0.0302361 8.20636e-21)
(1.04963 0.0281406 1.29778e-22)
(1.04801 0.0293942 -6.48194e-21)
(1.00998 0.00368124 0)
(1.01004 0.00394409 -7.59658e-22)
(1.05011 0.00638518 1.7549e-21)
(1.05043 0.00460412 -4.98519e-21)
(1.04867 0.00565544 7.54334e-21)
(1.04401 -0.0108582 3.74687e-21)
(1.0432 -0.0095768 -5.11653e-21)
(1.04475 -0.0094814 6.54209e-21)
(1.00968 0.00354586 7.34388e-22)
(1.00991 0.00337776 9.05932e-23)
(1.01797 0.0917333 -1.14042e-21)
(1.02089 0.0935287 -7.54186e-22)
(1.01649 0.0943817 6.52902e-22)
(0.685449 0.303053 -6.13892e-20)
(0.690543 0.280409 5.44625e-20)
(0.977214 0.0421954 -5.33364e-21)
(0.976405 0.0440616 -6.76801e-21)
(0.978531 0.0438275 -7.53994e-22)
(0.771593 0.0140557 -4.19385e-21)
(0.73581 0.021973 -4.96437e-21)
(0.994497 0.0250496 -3.95291e-21)
(0.995183 0.02577 -1.94826e-21)
(0.995371 0.0246121 2.85761e-21)
(1.3177 0.0478178 -1.97327e-20)
(1.16933 0.0397299 -1.62484e-20)
(1.05151 -0.0363563 2.00861e-21)
(1.04919 -0.0354011 -4.76357e-21)
(1.05106 -0.0333995 -8.58945e-21)
(0.982836 0.0288671 5.12685e-21)
(0.983166 0.0298744 4.05077e-21)
(0.981937 0.0294965 2.41002e-21)
(1.031 -0.0441306 3.45396e-22)
(1.03156 -0.0436451 -1.42698e-22)
(1.03074 -0.043938 1.37004e-21)
(1.0497 0.0139486 -1.42249e-20)
(1.05147 0.0145643 6.13101e-21)
(1.05086 0.0128018 -1.15358e-20)
(1.02282 -0.025224 2.97437e-22)
(1.02092 -0.023783 1.05107e-22)
(1.02314 -0.022485 9.32401e-22)
(1.00029 0.000264283 -9.53867e-22)
(1.00032 0.000303658 -2.04652e-21)
(1.00034 0.000265222 -3.02568e-21)
(1.0268 0.00141493 -8.54869e-24)
(1.02708 0.00145543 -3.9325e-22)
(0.9696 0.0348653 -3.11798e-21)
(0.967756 0.0354065 4.99128e-21)
(0.968258 0.0333692 5.3437e-21)
(1.02867 0.00178523 9.66568e-22)
(1.02876 0.00207127 -3.87174e-22)
(1.02895 0.00175316 -8.95067e-22)
(1.05157 0.00684331 3.91176e-22)
(1.04989 0.00782616 -1.38534e-20)
(0.999273 0.00308423 3.05684e-21)
(0.999368 0.00295621 7.9548e-21)
(1.01544 0.0161033 1.7006e-23)
(1.01564 0.0167046 1.96459e-23)
(0.982524 0.027637 -9.91474e-23)
(0.983864 0.0282597 -3.48213e-21)
(1.01683 0.0303255 -8.48635e-23)
(1.01555 0.0296943 3.06309e-22)
(0.971264 0.0338826 -6.58825e-21)
(0.971128 0.0357696 2.80503e-21)
(0.998162 0.00231308 -1.25578e-22)
(0.99825 0.00216161 0)
(0.998051 0.00215634 -2.61132e-21)
(0.997591 0.00305947 7.47711e-22)
(0.997751 0.00319874 5.26325e-21)
(0.997783 0.00300062 3.77345e-21)
(1.05016 0.0320324 1.02315e-20)
(1.05184 0.0308129 -8.46919e-22)
(1.02316 0.0108018 0)
(1.02319 0.0114164 1.06496e-21)
(0.973423 0.0136265 4.91075e-21)
(0.972369 0.0141863 0)
(0.973395 0.0149147 0)
(1.01764 0.0298612 -4.04357e-22)
(1.01759 0.0289527 0)
(1.01871 0.0294011 0)
(0.979357 0.00979535 -6.81853e-21)
(0.978925 0.010744 -1.46162e-20)
(0.980008 0.010296 -4.32102e-21)
(0.76243 0.218661 1.15594e-20)
(0.764685 0.198351 3.71476e-21)
(0.781327 0.209137 -1.99345e-20)
(-0.0831391 -0.0527308 1.4389e-19)
(0.0611938 -0.065642 -2.7175e-20)
(0.027524 -0.0686595 -1.57e-19)
(1.00077 0.0204887 -1.2178e-21)
(1.00079 0.0211436 2.80234e-21)
(1.00017 0.0208124 1.29902e-21)
(1.02865 0.00148296 2.92615e-22)
(1.02843 0.00174178 1.59724e-21)
(0.677973 0.322635 3.20786e-20)
(0.993646 0.0256213 -5.7146e-22)
(0.993783 0.024436 -3.01397e-21)
(0.886381 0.0704211 -4.89967e-21)
(0.889042 0.0642201 -2.4916e-20)
(0.880827 0.0644962 4.60296e-21)
(0.979716 0.00696238 -1.38052e-21)
(0.980239 0.00767737 -1.17737e-20)
(0.980658 0.00676478 -7.42522e-21)
(1.01082 0.00389982 -1.76703e-21)
(1.01059 0.00412823 -1.675e-22)
(1.04731 0.0150227 7.79252e-21)
(1.15302 0.0275441 1.04911e-20)
(0.996893 0.00714556 -4.27273e-21)
(0.996857 0.00674896 2.23773e-22)
(0.997123 0.00687506 -8.91532e-21)
(0.922721 0.0853617 2.24095e-20)
(0.920991 0.0798137 2.39284e-20)
(0.926582 0.0822069 -1.05501e-20)
(0.728462 -0.132133 -1.45542e-20)
(0.705714 -0.0984239 1.01254e-20)
(0.693441 -0.148065 -2.33964e-20)
(1.04851 0.0149613 -1.17366e-20)
(1.04815 0.0131998 2.32458e-21)
(1.37213 0.0652741 7.33564e-20)
(1.39446 0.0750076 0)
(1.00573 0.0266926 6.34079e-22)
(1.00601 0.026054 -1.79066e-21)
(1.00651 0.0267941 5.20728e-23)
(0.979027 0.0387415 -4.85961e-21)
(0.978168 0.0372179 -1.23831e-20)
(0.980032 0.0371447 -1.07591e-22)
(0.979774 0.00871086 -1.5315e-20)
(0.978642 0.00910493 1.0417e-21)
(1.0001 0.001116 0)
(1.00011 0.00115141 -3.70154e-21)
(1.00007 0.00109822 3.60124e-21)
(0.997465 0.00956359 3.21131e-21)
(0.997279 0.0092981 3.4685e-21)
(0.997168 0.00978418 -5.07889e-23)
(1.22433 0.167891 -4.80549e-20)
(1.21176 0.170293 -2.0662e-20)
(1.21685 0.158708 -4.19229e-20)
(0.989425 0.0161954 7.46767e-21)
(0.989729 0.0168694 -3.12196e-22)
(0.988978 0.0167925 2.59798e-21)
(0.997696 0.0099988 0)
(0.997829 0.00946928 0)
(1.02332 0.0227137 -8.55698e-22)
(1.02375 0.0219459 1.69583e-21)
(1.0227 0.0220828 1.3215e-21)
(1.38839 0.0624721 1.43242e-19)
(1.34747 0.0662135 -4.96315e-20)
(1.00045 0.0434393 -9.51678e-23)
(0.99914 0.0446368 1.69666e-22)
(1.02658 0.00162498 2.68474e-22)
(1.00198 0.0356578 2.15232e-21)
(1.00291 0.0346503 -1.37761e-21)
(1.01157 0.0207994 0)
(1.01102 0.0210234 -3.20631e-22)
(1.0117 0.0214048 -4.47056e-22)
(0.999272 0.00671057 -5.61475e-23)
(0.999135 0.00645851 3.11517e-21)
(0.999363 0.00633529 -6.943e-21)
(1.00741 0.0211203 -1.28083e-21)
(1.0077 0.0205591 -1.09411e-21)
(1.00706 0.020614 -2.67117e-21)
(1.015 0.0886073 0)
(1.01978 0.0881198 0)
(1.01791 0.0149559 4.11638e-22)
(1.01844 0.0151754 0)
(1.01816 0.0145931 0)
(1 9.72103e-05 -2.19582e-21)
(1 9.71424e-05 -1.30614e-21)
(1.19327 0.0957522 -1.64206e-20)
(1.19245 0.103431 -7.17967e-20)
(1.20055 0.0981571 0)
(0.921209 -0.20103 -2.65043e-21)
(0.894341 -0.189783 -2.06162e-21)
(0.920415 -0.177435 -1.5108e-21)
(1.00011 0.00114724 0)
(1.0001 0.00110332 0)
(0.993629 0.0401024 -2.53998e-21)
(0.992401 0.039232 3.43349e-21)
(0.993817 0.0384674 -3.05489e-22)
(1.07482 0.157082 -3.98874e-21)
(1.0821 0.154981 3.25748e-20)
(1.07951 0.164435 8.21017e-21)
(0.995174 0.00725529 -2.12527e-21)
(0.994969 0.0075816 -2.50947e-21)
(0.995279 0.00767033 -6.23346e-21)
(0.999429 0.00696089 0)
(0.999195 0.00709287 0)
(1.00246 0.00355605 1.12268e-21)
(1.00265 0.00358582 -6.86194e-22)
(1.01658 0.00117284 -1.47513e-23)
(1.01628 0.00115321 0)
(1.00733 0.000973145 -1.49227e-21)
(1.0071 0.000847169 2.31319e-22)
(1.00709 0.00112564 -1.53257e-21)
(1.00295 0.0162725 -1.16466e-21)
(1.0034 0.0166287 -2.86265e-21)
(1.00295 0.0169793 1.82087e-23)
(1.03685 0.0536701 0)
(1.03541 0.0554199 3.01008e-21)
(1.03431 0.0533311 0)
(-0.184997 -0.031026 -1.43254e-19)
(-0.217324 -0.0578551 5.64457e-20)
(0.974509 0.0133158 5.28507e-21)
(0.973577 0.0124972 -2.29136e-21)
(1.00117 0.0148049 1.11972e-22)
(1.0012 0.0153813 -1.91589e-21)
(1.00074 0.015076 2.36447e-21)
(0.993159 0.0020653 -1.79426e-21)
(0.993543 0.00189202 -6.50598e-22)
(0.993373 0.00235453 -6.90557e-22)
(0.99666 0.00739045 0)
(1.01229 0.0205528 -6.0185e-22)
(1.01154 0.0201358 -3.84605e-23)
(-0.0427326 -0.0473935 4.27356e-20)
(-0.155979 -0.0681636 -6.30598e-20)
(-0.0344583 -0.0500182 4.90967e-21)
(0.989119 0.0154718 6.64064e-23)
(0.989929 0.0154995 3.92266e-21)
(0.940053 -0.206416 -5.63367e-21)
(0.967242 -0.195327 -2.14096e-21)
(0.997282 0.0272311 -1.30601e-21)
(0.998086 0.0276824 6.87958e-21)
(0.998068 0.0266956 3.55302e-21)
(0.995346 -5.06446e-05 1.08328e-20)
(0.995412 0.000224163 -3.84786e-22)
(0.995634 4.45727e-05 5.71136e-21)
(1.19369 0.0859848 9.44199e-21)
(1.18482 0.0913004 6.04087e-20)
(1.00481 0.0266965 6.40507e-22)
(1.00552 0.0277825 9.94645e-22)
(0.997475 -0.243503 -6.41959e-21)
(1.00809 -0.220257 -9.15499e-21)
(1.05615 0.0234711 1.63309e-20)
(1.05602 0.0218331 1.92507e-21)
(1.05766 0.0225843 -9.09415e-21)
(1.06895 0.15236 -1.85528e-20)
(1.06658 0.160561 -2.54355e-20)
(0.997886 0.0103285 0)
(0.99811 0.0106987 0)
(0.998236 0.0101831 0)
(0.917375 0.0883077 1.88077e-21)
(0.924175 0.0909043 -1.44825e-20)
(0.984589 0.0157649 -1.47417e-22)
(0.984632 0.0167907 0)
(0.983671 0.0160975 3.95486e-21)
(-0.158984 0.00233508 1.80164e-20)
(-0.235578 -0.00592884 1.35105e-19)
(-0.248598 -0.00140355 5.90185e-20)
(1.11717 -0.13778 -4.68522e-20)
(1.10652 -0.132585 -1.9373e-20)
(1.10597 -0.147785 -2.13685e-20)
(1.01759 0.0154153 1.40818e-22)
(1.01734 0.0147786 2.22684e-22)
(1.12596 0.110653 1.63502e-20)
(1.12049 0.106057 9.90829e-21)
(1.12778 0.104211 8.23846e-20)
(-0.27211 -0.0763561 -9.83364e-21)
(-0.321836 -0.080458 6.63757e-21)
(-0.266692 -0.0627613 -5.64109e-20)
(1.024 0.023334 -2.58781e-21)
(1.02293 0.0233921 -1.50182e-21)
(1.03062 -0.0443194 8.38784e-23)
(1.03101 -0.0448573 -1.94124e-21)
(1.23592 0.166708 -2.28528e-20)
(1.2308 0.179437 3.62123e-20)
(0.989488 0.04064 -2.98715e-21)
(0.988294 0.0396061 -3.57291e-21)
(0.987852 0.0413963 9.81223e-22)
(0.992913 0.00185751 -6.46439e-21)
(0.992803 0.00231565 -8.48309e-22)
(0.987989 0.0355282 1.06515e-22)
(0.989017 0.0365418 -3.29317e-21)
(0.989403 0.0350118 -3.99178e-23)
(1.22158 0.0384526 1.90187e-20)
(1.22166 0.0470207 0)
(1.21405 0.0409703 -2.48852e-22)
(1.02507 0.00245564 -1.37618e-22)
(1.02492 0.002111 -7.90949e-22)
(1.02466 0.00241906 -4.02162e-22)
(1.00256 0.0161102 -3.60026e-22)
(1.00297 0.0158318 1.44826e-21)
(1.13279 0.0667793 1.06472e-20)
(1.12712 0.0675596 6.84232e-21)
(1.13147 0.0729927 0)
(1.01923 0.00192958 7.93381e-24)
(1.01899 0.00211422 -2.5015e-23)
(1.01935 0.00225567 4.85157e-23)
(1.00778 0.0216455 1.10507e-21)
(1.00709 0.0217031 2.95895e-21)
(1.01831 0.0649293 -1.43482e-21)
(1.01569 0.0656563 -7.04657e-22)
(1.01674 0.0628387 1.45655e-21)
(1.02138 0.010251 -1.12862e-21)
(1.02136 0.00974755 5.07129e-23)
(1.02181 0.0100201 1.7287e-23)
(1.00003 0.000128679 8.91487e-23)
(1.00004 0.000174669 2.31424e-21)
(1.00002 0.000123933 -2.4586e-21)
(0.546481 -0.400636 1.22844e-20)
(0.606434 -0.443705 1.42101e-20)
(0.504372 -0.466308 2.74347e-21)
(-0.0516129 -0.0566695 -2.12305e-20)
(-0.167129 -0.0215022 6.99065e-20)
(-0.118483 -0.0500136 1.97777e-19)
(0.999663 0.000443153 0)
(0.999711 0.000520442 0)
(0.999727 0.000588445 4.82127e-21)
(1.01161 0.00164933 2.26819e-21)
(1.01186 0.00166063 1.96643e-21)
(0.96142 0.00938434 -6.32462e-21)
(0.963186 0.00989529 -7.94729e-21)
(0.962625 0.00807242 -1.42563e-20)
(0.99742 0.00292822 1.33899e-21)
(0.997401 0.00319612 -9.73455e-21)
(1.12339 0.117679 -2.94513e-20)
(1.13137 0.115282 -2.70416e-20)
(0.0242842 0.0464831 -4.74373e-20)
(-0.149705 -0.00277849 -4.69967e-20)
(-0.148463 0.0120794 2.17521e-20)
(-0.510953 -0.0766953 0)
(-0.534018 -0.0795929 0)
(-0.490627 -0.0863556 0)
(1.13361 -0.0827338 -5.39073e-20)
(1.12498 -0.0818648 -2.89407e-20)
(1.12866 -0.0919856 5.70035e-21)
(0.996594 0.00180423 0)
(0.996746 0.00196047 0)
(0.996497 0.00197367 0)
(1.02096 0.0104648 6.33261e-23)
(1.02141 0.0107296 -1.11886e-21)
(1.0089 0.0276671 -5.88457e-22)
(1.00862 0.0284861 -1.2461e-21)
(1.00948 0.0283998 -1.31876e-21)
(0.984609 0.0146474 7.39772e-21)
(0.985473 0.0154175 -5.7214e-21)
(0.995081 0.22593 -4.70189e-21)
(0.994096 0.2386 -1.8677e-21)
(1.00638 0.230859 -3.22665e-22)
(0.298538 0.151305 -6.55389e-20)
(0.354034 0.200006 -1.27129e-19)
(-0.252502 -0.0229182 -9.72439e-20)
(-0.266116 -0.0162562 -9.63542e-21)
(0.0034854 -0.0510398 -5.26894e-20)
(0.105455 -0.0649244 5.20099e-21)
(1.02852 0.00294701 4.7821e-22)
(1.02815 0.00297489 -1.36389e-21)
(1.02842 0.0033521 -1.49544e-21)
(1.00318 0.00864629 3.40858e-23)
(1.00336 0.00904685 2.63715e-22)
(1.00351 0.00880014 0)
(1.36709 0.0663904 8.28396e-20)
(1.39146 0.0660442 -1.14587e-20)
(0.747854 0.372519 1.78978e-20)
(0.738866 0.339592 -2.56386e-20)
(0.713505 0.360541 -5.27846e-20)
(0.935925 0.148236 0)
(0.943604 0.147545 -3.42552e-21)
(0.938743 0.140519 0)
(0.948083 0.251565 -1.77169e-20)
(0.941028 0.216527 -1.04891e-20)
(0.903686 0.26043 -6.0619e-21)
(-0.546081 0.37326 -5.22541e-20)
(-0.590122 0.264643 0)
(-0.486011 0.276857 4.81444e-20)
(0.996555 0.0267861 -3.76643e-21)
(0.99582 0.0262803 -8.18578e-22)
(0.996618 0.0257665 1.11339e-21)
(0.766146 0.240279 0)
(0.744031 0.228243 3.04157e-20)
(1.06237 0.0663098 -2.39628e-21)
(1.06062 0.0631643 1.40231e-20)
(1.05889 0.0667913 1.39782e-20)
(0.959507 0.00879163 -5.26884e-22)
(0.960101 0.0108074 8.38189e-21)
(-0.177064 -0.0135889 1.16985e-19)
(-0.184884 -0.015016 4.66759e-20)
(0.978406 0.0118329 -9.5317e-21)
(0.979299 0.0124143 6.46717e-21)
(0.977967 0.0128654 5.74387e-21)
(1.05452 0.0244497 7.59746e-21)
(1.05646 0.0254755 -2.32162e-20)
(0.97805 0.0404167 1.93607e-21)
(0.976095 0.0406069 5.42865e-21)
(-0.066086 -0.0511007 -5.80147e-20)
(0.134613 -0.0195312 2.56603e-19)
(1.1944 -0.12353 0)
(1.18335 -0.129688 0)
(1.18434 -0.115955 -5.31165e-20)
(1.01617 0.0265598 -1.63358e-22)
(1.0156 0.0261121 -2.08685e-22)
(1.01538 0.0268753 2.54956e-22)
(-0.492387 -0.129587 -9.87445e-21)
(-0.454643 -0.118829 1.21279e-19)
(-0.453088 -0.126149 8.2465e-20)
(1.03881 0.0244086 0)
(1.03741 0.0237785 -1.99523e-21)
(1.0387 0.0229104 -4.80619e-21)
(0.854496 0.837896 3.29328e-20)
(0.853069 0.765942 5.4155e-21)
(0.791817 0.808513 2.36763e-20)
(0.987037 0.0346667 -6.37881e-21)
(0.98645 0.0362479 1.33908e-22)
(0.482509 -0.351281 -3.35763e-20)
(0.568148 -0.32637 2.43501e-20)
(1.31301 0.0597851 6.27587e-20)
(1.32267 0.0601167 -5.24741e-20)
(1.0753 -0.0724562 -1.04484e-20)
(1.078 -0.0675989 -9.50352e-21)
(1.08046 -0.0732869 3.19624e-20)
(1.31976 0.00792507 -1.41988e-19)
(1.33662 0.0138801 -5.2424e-20)
(1.32523 0.0195397 -3.79017e-20)
(1.04442 0.0117618 -1.27921e-21)
(1.04309 0.0119311 4.57167e-21)
(1.04361 0.0106202 4.4507e-21)
(0.995742 0.00625521 3.30025e-21)
(0.99571 0.00667647 6.45077e-22)
(0.996018 0.00640091 -5.29688e-21)
(1.01152 0.00144916 -6.3644e-22)
(1.01136 0.00160072 2.58019e-21)
(1.02444 0.0420696 0)
(1.02576 0.0413416 0)
(1.0256 0.0435204 -3.621e-21)
(0.910795 0.133159 -8.51306e-21)
(0.919607 0.134587 -5.53841e-21)
(0.916955 0.126553 8.51327e-21)
(1.01688 0.0265563 0)
(1.01648 0.0274758 0)
(1.0039 0.016633 0)
(1.00445 0.0167592 2.94484e-21)
(1.00409 0.0161567 -1.42345e-21)
(0.774406 0.371287 3.49707e-20)
(0.757607 0.397682 9.19819e-21)
(0.977516 0.0112903 -1.51487e-20)
(1.01251 0.00958927 0)
(1.01291 0.00960763 0)
(1.01281 0.0100199 0)
(0.919995 0.948013 -1.11374e-20)
(0.953052 0.824039 0)
(0.999475 0.00033604 -1.86633e-21)
(0.999462 0.000261377 4.718e-21)
(0.999541 0.000359526 2.80019e-21)
(1.00003 0.000380578 -1.67027e-23)
(1.00003 0.00039491 1.2524e-22)
(1.00004 0.000508601 -2.56174e-21)
(0.999964 0.000887424 0)
(0.999964 0.000893799 0)
(0.999959 0.000986904 -2.66914e-21)
(1.31933 0.0116272 2.28215e-20)
(1.32199 0.00172608 -7.43692e-20)
(1.01184 0.000336028 0)
(1.01201 0.000277608 1.40578e-22)
(1.01069 0.000168175 0)
(0.98399 0.221364 -1.54777e-21)
(0.994542 0.214677 6.89894e-22)
(1.14653 0.401179 4.68453e-20)
(1.1251 0.41264 5.92521e-20)
(1.14972 0.428366 -2.19977e-20)
(0.964968 0.0103175 4.91145e-22)
(0.963931 0.0116452 6.80513e-21)
(1.20355 -0.131898 -2.47571e-20)
(1.20292 -0.118103 -2.06734e-20)
(0.982929 0.00545373 -5.08236e-21)
(0.982506 0.00630469 -2.94778e-21)
(0.983364 0.00614813 1.30606e-21)
(1.00009 0.00423368 -1.96436e-21)
(0.999958 0.00426662 0)
(1.00006 0.00443687 0)
(1.14153 0.0440179 8.38243e-21)
(1.14061 0.0375815 4.0401e-22)
(1.14783 0.0404218 -1.02466e-19)
(1.00706 0.0110027 1.28642e-21)
(1.0068 0.0107274 -1.67009e-21)
(1.0067 0.0111173 -6.52603e-22)
(1.03833 0.0521834 0)
(1.03934 0.0544383 0)
(0.961082 0.0167643 0)
(0.96191 0.0150547 0)
(0.963015 0.0165731 -8.09103e-21)
(1.259 0.335279 -4.98479e-20)
(1.23611 0.33306 -2.98549e-20)
(1.24755 0.314623 0)
(1.04487 -0.0120823 3.80416e-21)
(1.04325 -0.0121007 -8.89409e-22)
(0.958885 0.0578353 2.69868e-21)
(0.959464 0.060484 1.43143e-20)
(0.95655 0.0593725 6.93913e-21)
(1.05041 8.07831e-05 4.3116e-21)
(1.05013 -0.00151689 -5.55117e-22)
(1.04893 -0.000484689 0)
(1.06652 -0.199199 -1.35022e-22)
(1.08051 -0.191415 -1.67974e-20)
(1.07731 -0.213955 3.86338e-20)
(1.00207 0.0158971 -4.38021e-22)
(1.00164 0.0156428 -3.78909e-22)
(1.00207 0.015373 1.49322e-21)
(1.17326 -0.0835948 2.76109e-20)
(1.18445 -0.086269 6.89508e-20)
(1.17949 -0.0751545 3.39952e-20)
(1.02868 0.00131166 -7.21508e-22)
(1.02888 0.00134949 -1.29374e-21)
(1.02046 0.0101262 9.43051e-22)
(0.867913 0.378684 2.10352e-20)
(0.888306 0.370007 -7.02512e-21)
(0.888596 0.393178 -5.64999e-21)
(1.00304 0.00830204 3.72167e-21)
(1.00292 0.00852231 -2.15656e-21)
(1.02866 0.00115562 -3.16914e-22)
(1.02853 0.00129537 1.51648e-21)
(1.02451 0.0110189 -1.8927e-21)
(1.02427 0.0115612 1.83088e-23)
(1.02037 0.0647459 3.93538e-21)
(1.01971 0.0675758 -2.40627e-21)
(1.01146 0.010566 1.63767e-22)
(1.01151 0.0109614 1.97335e-22)
(1.01186 0.010795 3.85988e-22)
(1.01238 0.000541301 6.42043e-22)
(1.01248 0.000466784 3.95597e-22)
(1.0125 0.000631572 -1.02553e-21)
(1.03426 0.0124867 2.4797e-21)
(1.03482 0.0119988 -4.23414e-21)
(1.03506 0.0128422 -3.51977e-21)
(1.02842 -0.000948006 -7.10261e-22)
(1.02881 -0.000956846 -7.12818e-22)
(1.02856 -0.00135082 1.62044e-22)
(0.996435 0.00161137 0)
(0.996718 0.00161022 0)
(0.996505 0.0277527 -5.5414e-21)
(1.00911 0.0268275 4.94717e-23)
(1.00828 0.0269105 0)
(1.03376 0.0571192 2.21823e-21)
(1.03664 0.0581794 -5.35999e-21)
(1.00111 0.0142591 -1.77407e-21)
(1.00155 0.0145544 3.65774e-21)
(0.997702 0.00179277 2.62984e-22)
(0.99756 0.00188013 -1.84143e-21)
(1.00983 0.000893716 -1.27485e-21)
(1.0096 0.000657912 8.83013e-22)
(1.00956 0.000917948 1.5431e-21)
(0.993469 0.0417936 3.12275e-22)
(0.994933 0.0408843 3.20408e-22)
(1.0287 0.00230395 9.08414e-22)
(1.02857 0.00266218 1.62419e-21)
(1.02832 0.00230208 -1.91897e-22)
(1.00001 0.000206154 -2.00817e-21)
(1.00003 0.000308275 2.50086e-22)
(1.01142 0.00109714 1.5637e-22)
(1.01139 0.00092437 2.87549e-23)
(1.01157 0.00097895 -4.59352e-22)
(1.00072 0.019782 2.35472e-21)
(1.00133 0.0201124 0)
(0.999852 0.0593022 5.33042e-22)
(0.998479 0.0608861 -6.31474e-21)
(1.00089 0.0613114 5.4163e-22)
(1.27239 0.352886 2.88552e-20)
(1.28266 0.328976 -4.1364e-20)
(1.13707 -0.0745214 5.17708e-21)
(1.14141 -0.0845885 -2.54281e-20)
(-0.508014 -0.137294 -9.3194e-20)
(-0.511168 -0.125531 7.4059e-20)
(0.933962 0.15646 1.12947e-20)
(0.92858 0.149081 0)
(0.951445 0.146538 -6.044e-21)
(0.95937 0.145734 6.26683e-21)
(0.95288 0.139006 -7.14332e-21)
(0.968573 0.0476297 -6.71786e-21)
(0.971244 0.0479239 6.59928e-21)
(1.0521 -0.0388864 1.10331e-20)
(1.05024 -0.0416302 0)
(1.05366 -0.0421691 0)
(0.853119 0.093676 0)
(0.881821 0.115154 9.07261e-21)
(0.850625 0.135921 0)
(1.03357 0.0131543 3.75474e-21)
(1.03333 0.0121962 1.59942e-22)
(0.995454 0.00695075 8.34645e-21)
(0.995124 0.00687145 3.39172e-21)
(1.01228 0.000674865 -1.08239e-22)
(1.01224 0.000483499 5.38715e-22)
(1.02301 0.0430994 0)
(1.02323 0.0411116 0)
(1.01112 0.0103639 1.55259e-21)
(1.01144 0.0102069 3.63161e-22)
(0.974873 -0.0648961 -2.68616e-21)
(0.982022 -0.0556776 0)
(1.03147 0.00401791 -9.1331e-22)
(1.03126 0.00434493 -1.88233e-21)
(1.03173 0.00435343 2.20573e-21)
(0.997543 0.0104496 0)
(0.999982 0.000733557 4.91127e-21)
(0.999994 0.000887663 -3.65609e-21)
(0.903441 0.129557 -8.07551e-21)
(0.904753 0.137757 -6.65737e-21)
(1.02898 0.00231363 -1.00413e-21)
(1.16624 0.38925 4.46835e-20)
(1.14629 0.37992 -5.36426e-20)
(0.950411 0.155079 1.61608e-21)
(1.22999 0.120325 0)
(1.23855 0.125332 3.11072e-20)
(1.23944 0.113747 -1.7627e-19)
(1.03894 0.0254148 0)
(1.04011 0.0245105 -6.5071e-23)
(1.02829 -0.000542556 2.12818e-23)
(1.02788 -0.000916582 4.0581e-22)
(1.01078 0.0102005 7.66424e-22)
(1.01072 0.00984747 -1.82965e-21)
(1.01041 0.0100172 -1.52484e-21)
(1.03714 0.00316906 3.05019e-21)
(1.03729 0.00282226 3.38087e-21)
(1.03765 0.00324121 5.68056e-21)
(1.02543 0.00250709 -6.44951e-22)
(1.02511 0.00278447 4.66513e-22)
(1.06622 0.0648433 -4.20644e-21)
(1.0648 0.0691375 -1.27738e-20)
(0.992818 0.017067 -2.74237e-22)
(0.992259 0.0168018 5.26415e-23)
(0.992855 0.0162951 2.40462e-21)
(1.05211 0.00373724 0)
(-0.0740938 0.00241218 2.57622e-20)
(-0.0488454 -0.000592289 -2.47228e-20)
(1.01235 0.00922567 -8.53463e-22)
(1.01219 0.00956917 9.86657e-22)
(1.0218 0.0129685 -3.46911e-21)
(1.02195 0.0124148 -3.41252e-22)
(1.02244 0.012819 -3.58568e-21)
(0.823848 0.0697428 0)
(0.857185 0.058407 -1.35539e-20)
(1.05463 -0.0364555 1.90124e-20)
(1.01581 0.0252796 -5.62727e-23)
(1.01494 0.0254503 1.56027e-23)
(0.997885 0.0018389 5.18256e-21)
(0.997963 0.00199591 6.91875e-22)
(0.998083 0.00187196 -4.44929e-21)
(1.00119 0.0572979 1.29325e-21)
(0.998889 0.0571249 1.55789e-21)
(0.959258 0.283753 -9.95948e-21)
(1.00039 0.238592 1.44344e-20)
(1.10325 -0.010734 1.33049e-20)
(1.10247 -0.00563016 -5.63734e-21)
(1.09841 -0.009799 -1.54419e-21)
(1.22143 0.0312933 1.65036e-20)
(1.22803 0.0367258 -5.04639e-20)
(1.00028 0.000216334 2.27996e-21)
(1.00025 0.00025418 5.48069e-21)
(1.01146 0.00126875 -1.32034e-21)
(1.01168 0.00132418 -2.00732e-21)
(1.00208 0.0165306 5.86807e-22)
(1.02071 0.0114314 9.94773e-22)
(1.02015 0.0115609 6.54804e-24)
(1.05284 -0.186311 1.1663e-20)
(1.04653 -0.209119 1.93357e-20)
(0.995761 0.0130608 0)
(0.995927 0.013661 0)
(0.995417 0.0136015 -3.71752e-21)
(0.998242 0.00244894 -5.65324e-21)
(0.998049 0.00242977 4.14087e-21)
(1.00313 0.00959286 4.9885e-22)
(1.00335 0.00998937 2.49404e-21)
(1.00305 0.00988955 0)
(0.983375 0.00459876 5.90362e-21)
(0.982466 0.00464496 1.54156e-21)
(1.03924 -0.0129187 -6.11134e-21)
(1.03783 -0.014062 0)
(1.03786 -0.0121373 0)
(0.97854 0.0512402 4.55952e-22)
(0.978168 0.0533337 -2.41785e-23)
(0.976276 0.0514625 8.18099e-21)
(1.14137 0.173619 9.49116e-21)
(1.13186 0.172037 -4.71158e-20)
(1.13902 0.164194 1.9759e-20)
(1.04637 -0.11283 9.02864e-20)
(1.16844 -0.109174 -7.30173e-20)
(1.10129 -0.127029 -2.74434e-20)
(0.972712 0.0326938 2.66249e-21)
(0.971229 0.0316262 -1.04966e-20)
(1.30862 -0.298962 0)
(1.32125 -0.324001 4.1299e-20)
(1.34038 -0.295079 0)
(1.00105 0.0136854 2.7488e-21)
(1.001 0.0131261 8.50608e-21)
(1.00138 0.0134236 3.13895e-21)
(1.03649 0.00338586 0)
(1.03692 0.00402336 -2.81386e-21)
(0.999017 0.000229467 5.44071e-22)
(0.998964 8.72095e-05 -1.26618e-21)
(-0.344246 0.00734456 -8.63146e-20)
(-0.358076 0.0207807 6.66809e-20)
(1.19333 0.0782759 -7.09289e-21)
(1.19318 0.0701784 6.4484e-20)
(1.1857 0.0745026 -5.96584e-20)
(1.29981 0.0582008 7.01443e-20)
(1.29975 0.0613276 -1.01944e-19)
(1.2994 0.0569883 -2.55354e-20)
(-0.42152 0.361229 -5.1146e-20)
(1.0111 0.00399843 -2.75307e-21)
(1.01116 0.00427625 2.23157e-22)
(1.01138 0.00408076 5.91957e-22)
(1.03119 0.00367689 0)
(1.03159 0.00361092 0)
(1.00073 0.0218648 -2.28879e-21)
(1.00134 0.0214996 -7.04364e-22)
(0.986127 0.0576987 -8.35786e-22)
(0.988465 0.0569046 7.41176e-21)
(0.986366 0.0552392 9.23427e-22)
(1.05202 0.00063375 -5.59878e-22)
(1.00006 0.000932268 -3.71587e-23)
(1.00004 0.00080402 0)
(1.00004 0.000817141 3.50752e-21)
(1.05631 0.0807539 -4.32671e-21)
(1.05857 0.0776554 4.31414e-21)
(1.05967 0.0827502 1.45052e-20)
(1.00755 0.000891817 0)
(1.00749 0.00116858 0)
(1.01266 0.000385296 4.43894e-24)
(1.01274 0.000325598 -7.53804e-23)
(1.01254 0.000272322 5.17796e-22)
(0.994987 0.0267491 -4.23117e-21)
(1.14539 0.181598 -9.12313e-21)
(1.15197 0.171694 8.17638e-20)
(0.999996 0.000399622 4.49033e-21)
(0.999993 0.000192393 -7.48342e-23)
(0.999995 0.00019793 -8.47608e-23)
(1.03619 0.0230763 1.50503e-21)
(1.03616 0.0243586 3.03973e-21)
(0.984755 0.0138023 1.26866e-20)
(0.984912 0.0128951 6.04823e-21)
(0.985561 0.0134839 3.2985e-23)
(0.978946 0.0492392 3.18784e-21)
(0.980741 0.0507678 -5.60335e-21)
(-0.369083 0.02567 2.00408e-21)
(-0.363729 0.111047 -8.98201e-20)
(-0.505755 0.0811557 0)
(1.00069 0.0139446 -3.48492e-21)
(0.999588 0.000300539 0)
(0.999606 0.000386208 -2.27861e-21)
(1.00158 0.000997284 2.97626e-22)
(1.00158 0.00113802 -1.36085e-21)
(1.00173 0.00109258 5.5451e-21)
(1.02273 0.0105941 0)
(1.02309 0.0102419 1.0665e-21)
(1.0857 0.0967471 -2.16676e-21)
(1.0899 0.10072 1.35969e-20)
(1.08285 0.101442 1.85877e-20)
(1.07033 -0.0718487 -2.609e-20)
(1.07173 -0.0780439 6.7829e-21)
(0.965419 0.143453 7.1604e-21)
(0.965109 0.151266 1.16828e-20)
(1.2803 -0.242683 2.44552e-20)
(1.24933 -0.23466 3.4069e-20)
(1.26628 -0.216315 -7.65036e-21)
(1.04033 -0.0121703 -2.57627e-22)
(1.04036 -0.0140247 -7.79441e-22)
(1.05279 0.0257982 7.4959e-21)
(1.0524 0.0238805 1.59789e-20)
(0.983907 0.0140828 -1.78575e-21)
(1.01231 0.000853318 -6.80231e-22)
(1.02585 0.0210663 -3.43611e-22)
(1.02608 0.0203409 -1.37929e-21)
(1.02529 0.0205196 0)
(1.00001 0.000224397 -2.52976e-21)
(1.00003 0.000350481 -2.33835e-21)
(1.20554 -0.216469 1.03682e-19)
(1.20755 -0.196715 8.18169e-20)
(1.22146 -0.208888 1.00045e-20)
(0.99335 0.0172957 0)
(0.992803 0.0179101 0)
(1.01797 0.0309395 -3.40177e-22)
(1.03022 -0.0505255 -1.53024e-21)
(1.02833 -0.0490549 8.53649e-22)
(1.02777 -0.0523486 1.22073e-21)
(1.00378 0.0171727 0)
(0.989935 0.0621345 -4.33774e-21)
(0.991484 0.0603723 0)
(0.992506 0.0629151 0)
(0.980129 0.0402406 -3.82328e-21)
(1.03296 -0.0521718 -3.84514e-21)
(1.03226 -0.0484647 -2.51316e-21)
(1.0246 0.00683339 -6.48115e-22)
(1.02483 0.00655067 -9.37769e-22)
(1.02492 0.00701687 -5.84487e-22)
(0.958185 0.0548637 -1.07947e-20)
(0.961279 0.0561845 -5.30857e-21)
(1.07013 0.145335 0)
(1.06249 0.147858 -1.45004e-20)
(1.05343 0.0839909 2.11329e-21)
(1.0528 0.0791015 -1.10243e-20)
(1.02658 0.0402229 0)
(1.02766 0.03889 3.11308e-21)
(1.02579 0.038868 2.10229e-21)
(0.995258 0.00545432 5.39645e-21)
(0.995195 0.00588302 0)
(0.994916 0.00567667 -6.29947e-21)
(1.29053 -0.267131 0)
(1.31205 -0.243583 4.39581e-20)
(1.13432 0.0612062 9.51409e-21)
(1.13786 0.0673423 2.09654e-20)
(1.02834 0.00869543 -2.7189e-21)
(1.02881 0.00843242 -2.47069e-21)
(1.02874 0.00894019 5.03704e-22)
(1.0882 0.0913556 -2.84792e-20)
(1.08168 0.0927771 -1.99641e-20)
(1.00065 0.00547392 -1.25014e-21)
(1.00054 0.00531008 -3.66794e-21)
(1.00057 0.00562346 -8.78758e-21)
(1.00314 0.00807946 9.79815e-22)
(1.00289 0.00796609 3.92847e-21)
(1.0008 0.00568125 4.93368e-21)
(1.00076 0.00528547 2.1111e-21)
(0.987443 0.0615553 1.10218e-21)
(0.988656 0.0641547 -3.89278e-21)
(1.30428 0.0657304 -4.32672e-20)
(1.30656 0.0662932 1.09191e-19)
(1.30823 0.0724911 4.18366e-20)
(1.03058 0.00047703 2.04853e-21)
(1.03022 0.000515246 2.83486e-21)
(1.03041 0.000786752 1.06557e-22)
(1.00003 0.000627627 -2.95771e-21)
(1.00005 0.000779856 1.86452e-22)