/*--------------------------------*- C++ -*----------------------------------*\
| =========                 |                                                 |
| \\      /  F ield         | OpenFOAM: The Open Source CFD Toolbox           |
|  \\    /   O peration     | Version:  v2012                                 |
|   \\  /    A nd           | Website:  www.openfoam.com                      |
|    \\/     M anipulation  |                                                 |
\*---------------------------------------------------------------------------*/
FoamFile
{
    version     2.0;
    format      ascii;
    class       surfaceScalarField;
    location    "200";
    object      meshPhiCN_0;
}
// * * * * * * * * * * * * * * * * * * * * * * * * * * * * * * * * * * * * * //

dimensions      [0 3 -1 0 0 0 0];
oriented        oriented;


internalField   nonuniform List<scalar> 
14885
(
-0.000312773
-0.000925853
0.00123543
-0.00553989
0.00302988
0.00259919
-0.000225676
0.00211293
-0.00176297
0.00114798
-0.00155223
0.000315752
8.76882e-05
-0.000663176
0.000840838
0.00362234
-0.000769996
-0.0028742
0.000726149
0.00283736
-0.00340856
-0.00218539
0.00260014
-0.000404414
-0.00105914
0.000768348
0.000359414
-0.00191065
0.000763016
0.00121419
0.000501368
0.00210113
-0.00264238
-0.00264595
-0.00282258
-0.000391194
0.00264609
-0.00213717
0.000603957
-0.00141818
0.000882403
-0.00203613
0.000590563
0.00137471
0.00151323
-0.00085118
-0.00290594
0.00264239
0.000229979
-0.00205114
0.0025076
-0.00123965
0.000294053
0.00107433
0.000401138
-0.000134216
-0.000273463
-0.00234372
0.00206195
0.000858451
-0.00116509
0.00182441
-0.000594848
0.000288903
-0.00290122
0.00259304
-0.000418468
9.21404e-05
0.000396799
-4.89709e-05
1.4458e-05
5.69971e-05
-0.00150882
-0.00023586
6.12542e-06
2.35824e-05
1.85556e-07
0.000512187
0.00308276
-0.00076067
-0.0017053
0.00248732
0.000141284
-8.28985e-06
-0.000127024
-0.00331939
0.000532663
0.00284956
-0.000913561
0.000275756
0.000772948
-0.000258773
-0.000478942
-0.00252635
0.0003392
-0.00241136
0.00214411
0.000243476
0.00131365
-0.000269053
-0.000804998
0.000212297
-1.98013e-05
-0.000229401
7.57322e-05
0.000143285
0.000220117
-0.000233239
8.43891e-06
0.00253621
-0.00326957
-0.000656859
0.00311446
-0.0037009
0.0006302
0.00506059
-0.00439163
-0.000515479
-0.000196702
2.57046e-05
0.000206841
-0.0001652
-0.000328194
0.000131477
8.73225e-06
-0.000148183
-0.00193744
-0.000251475
-0.000264064
0.00232037
-0.00192885
-0.00416764
0.00447795
-0.000210604
0.0034702
-0.000300874
7.61338e-06
-0.000358798
0.000353323
-0.00241331
-0.000118806
-0.00101933
0.00502593
-0.00458154
-0.000337845
0.00495677
-0.00450221
-0.000354603
-0.000328759
-0.00194638
-0.00314757
0.00104704
0.00225292
-0.000460575
0.000448836
5.1819e-05
-1.14019e-06
2.04787e-06
4.02857e-07
-0.00230115
0.00218401
-0.00472391
0.00453812
0.000353904
-0.00324349
-0.000394067
-0.00205749
0.00239444
-0.000338033
-0.00146359
0.000206764
0.00127251
-0.000738264
0.000214461
0.000594488
0.000185116
-9.76617e-05
-0.000104735
-0.00116921
0.00148813
-0.000288307
-4.20029e-05
-9.14367e-05
0.000137774
-0.00135341
0.000218229
-0.0034371
0.00362962
-0.000126716
2.5567e-05
0.00011583
-0.000298554
0.000133185
0.000709883
-0.000784712
-9.31465e-05
-0.00033372
-0.000453223
-0.000138706
8.35109e-05
0.000642919
-0.00136785
0.000759004
0.000134827
-3.39454e-06
-0.000709683
0.00138638
-0.00101209
0.00143256
0.00459074
0.000561907
0.00280988
-1.87789e-06
7.46812e-05
-3.0725e-05
0.000296301
9.3251e-06
-0.000414493
-0.000904247
0.000363479
0.00067158
0.0029124
-0.00292771
0.000113171
0.000176452
2.88136e-05
-0.00213809
0.00203655
0.000854028
-0.0010409
4.89249e-05
0.000472022
0.00107015
-0.00156732
-0.00235853
0.00167548
0.000786779
-0.000972391
0.00151941
-0.00322293
5.48454e-05
-0.000323196
0.00335535
-0.00160222
0.000168676
0.00137165
-0.000202546
0.00011983
-2.90576e-05
-0.00334014
0.00328902
0.000288565
-0.00237579
0.00285751
-0.000424261
0.000570431
-8.27869e-05
-0.000536298
-0.00162909
-0.000597393
-0.00201308
0.00234105
-0.000167756
0.000132424
0.000268716
-0.000203551
0.00244262
-0.00326173
-0.00133068
0.000142485
0.00130606
-5.79042e-05
3.50466e-05
5.07342e-09
-0.00163224
0.00450532
-0.00277518
-0.000430167
9.99721e-05
-0.00260094
0.00346386
-5.75757e-06
8.35167e-06
-0.000460846
0.000458863
-8.15204e-05
0.000895894
-0.00336004
-0.00209324
0.000213126
-0.00243046
0.000374187
-0.000202573
-0.00128189
-1.47541e-06
-8.16235e-05
5.8375e-05
0.000904743
-0.00229787
0.0014877
-0.0001638
6.91323e-05
0.000196606
-0.0007594
-0.00216741
-1.13603e-05
6.41306e-05
-7.94592e-05
2.88054e-07
3.56128e-08
-0.00473651
0.00255526
0.0022821
-0.00330417
-0.0013511
-8.37612e-05
-0.000211359
-0.000708797
0.00115831
0.00077195
-0.000910093
9.52139e-05
0.00101364
-0.000100399
0.000349709
0.0047832
-0.00320886
0.00302818
0.000227558
0.00248645
-0.00148945
0.000555667
-0.000541031
3.23693e-05
-0.000153682
7.48362e-05
6.81227e-05
8.46633e-05
-0.000766899
0.000628063
0.00011575
-0.000238663
8.90816e-05
-0.00201963
0.00302779
-0.000253639
0.00355479
-0.00319809
-0.000445982
6.53307e-05
0.000397814
-0.00273884
-0.00320743
-0.00148333
0.00145982
0.000176563
-0.00289941
0.000565696
-0.000366026
0.00312002
-0.00268812
-0.000174964
2.85501e-05
0.000200742
-0.00520063
0.00368595
-3.32278e-07
3.3655e-05
0.000455425
-0.000671328
0.000266687
4.12831e-05
0.000119064
-0.000371846
-0.000386494
-0.000159707
0.000123368
0.00071003
-1.8202e-05
-0.000564122
0.000750003
-0.00282345
0.00212637
-0.000317667
-0.000126554
4.47852e-05
-5.40509e-05
-2.19521e-06
0.00156384
-0.00135575
-0.000254345
-0.00253152
0.00283441
-0.000240408
-0.000221182
-0.00144837
-0.000137971
0.00063856
-0.00293309
-0.000230727
0.00401478
0.0010279
0.000763988
-0.000722343
-5.41367e-06
-3.01437e-05
-0.000283841
0.000240994
6.20451e-05
0.000194404
1.15599e-05
-0.00339145
0.00324436
-1.86821e-05
-8.4203e-05
0.00101024
-0.00071868
-0.00283653
0.00366098
-0.000838319
0.00104506
0.00339287
-0.000865837
-0.000217809
-0.00218825
0.000530222
-0.000167834
-0.00022313
-0.00192151
0.000231251
0.00162554
0.00162258
-0.00331453
0.00330217
0.00072125
-0.00392415
0.000454405
0.000966483
-0.000997339
0.00412171
-0.000713025
-7.43917e-05
-9.34115e-05
0.00021879
0.000281374
-0.00030267
-5.93815e-06
-0.000109694
7.47947e-05
-0.000150963
-0.00112409
-0.000143195
-0.00152705
0.00063578
0.000989344
0.000502252
-1.21124e-05
7.88223e-05
-0.000133139
-0.000277196
8.52543e-05
0.000224287
-0.00145815
-0.000768
0.00232733
-0.000372745
0.000253881
2.83534e-06
-3.71382e-06
1.03925e-06
-0.00351595
0.000142019
0.00345531
0.000507522
-0.000438374
-8.05389e-05
-0.000868928
0.00204091
-0.00230014
0.000657915
6.49684e-06
-0.000338276
-0.00112551
0.00510083
-0.0052531
0.000271817
-0.00170318
0.000679683
-0.00213144
0.0037589
-0.00159022
-0.00218707
0.000260167
0.00196594
0.00343842
-0.00318993
-0.000230491
0.000216526
-2.67629e-06
-0.00283137
0.00336125
-0.00047048
0.00325093
-0.003102
-7.10506e-05
0.00298579
-0.00051804
-0.00246093
-1.16744e-05
-4.96033e-05
-3.01014e-06
0.00250591
0.000415325
-6.64268e-05
-0.000785108
0.000228266
0.00269537
-0.00297855
-0.00262486
0.000194634
-0.000668427
-4.30975e-06
0.000131398
-2.83756e-05
0.000150877
-5.34717e-05
-6.21435e-06
0.0027036
0.00028611
0.00303178
-0.002789
-0.000190496
-0.000710626
0.00195136
-0.000896369
0.00104607
0.000285664
-0.00129837
1.85663e-05
-0.000280606
0.000247603
0.000512905
-0.00312998
0.00275996
0.00122731
-3.6192e-05
-0.00133436
0.000255461
0.00334996
0.000259709
-0.00357916
-0.000226925
-0.00171136
0.00364592
-0.000251917
-0.000290861
-0.000734382
-0.000934506
0.000107904
-0.000108306
-0.00101919
0.00117281
-0.000155003
-0.000208452
-0.000171912
0.00143795
-0.00101009
-0.000192481
0.000443215
5.87884e-05
0.000200204
0.000660368
0.000422576
-0.00214378
0.00080027
-2.92052e-06
-0.000127383
0.000101295
-9.97798e-05
0.00239117
-0.000787582
0.000259263
0.000648026
-0.00352094
0.000206535
-0.000552648
-8.21365e-05
-0.00268065
-0.000259756
0.000274553
-0.00289379
0.00273081
-0.00279481
0.000346698
0.00257683
1.62212e-07
2.28909e-07
0.00016464
2.92483e-05
-0.00414808
-0.000268975
0.0045407
-0.000681811
0.00103335
-0.000403719
-0.00228097
-0.000563111
3.55995e-05
0.000852476
0.000665382
-0.000490542
1.51901e-05
0.000129345
-0.00133832
0.000734285
3.32186e-05
-0.0033891
0.00163979
0.00183888
-0.00121113
-0.00238206
0.00373108
0.000824571
0.000100003
-0.0002469
-0.000474324
5.96166e-05
0.000395298
0.000727274
-0.000415031
-0.000147476
0.00196282
0.0013482
3.18583e-05
-0.00109445
0.000910636
-0.000270993
0.00132746
1.59285e-05
0.000298156
-0.000272595
-6.47917e-05
6.91258e-05
-0.000157102
0.000158372
0.000144181
0.003707
-0.00471863
0.00112507
-0.00141052
-0.00144709
-0.00188309
2.55017e-05
6.93735e-05
-0.000340592
-0.000184832
0.00084186
0.000555955
-0.00282174
0.00204087
-0.00376165
-0.000272603
0.0015224
-0.00142985
-8.3649e-06
0.0035214
0.000188314
0.000145408
0.000685804
-0.00258756
0.000711085
0.00207524
-0.0017048
0.000555193
0.0011032
0.000632494
-3.84067e-05
-0.000469625
-0.00045294
0.000245629
0.000525293
4.65252e-05
3.6597e-05
-0.000282324
0.00270981
-0.00227596
-0.00344926
0.00134805
-0.000199954
-0.00142769
0.00220715
-0.000692446
-0.000406459
-0.0033928
-9.33269e-05
0.0035053
-0.000814494
-0.00138813
0.00227975
-0.00017434
-1.89186e-05
0.000220366
-0.00011487
0.000936924
-0.000798526
3.11123e-06
1.07866e-05
-0.00215352
0.00193565
0.000297128
8.31563e-05
-0.00151421
0.00159294
-2.68763e-05
0.000627275
-0.000276272
-0.00196921
0.00296051
-0.000879438
0.00134467
-0.000740084
0.00140268
-0.000689264
0.00305014
0.000166656
-0.00301222
-0.000700873
0.000652848
-0.00217581
0.00253659
-0.000201608
0.000205356
0.000140722
0.00251693
3.71503e-06
-2.25826e-06
0.00286008
-0.00248113
0.00114678
-0.00190047
-0.00183414
-0.00275449
-0.00162765
0.00184342
-0.000131186
-3.62128e-06
0.000164713
0.00304504
0.000134587
-0.00273709
0.000834398
0.0012528
3.12341e-05
9.8718e-05
0.000250072
-0.000429638
1.44067e-05
-0.000234923
0.000558267
-0.00131935
-0.00137067
0.00161549
-0.00085357
0.000759531
-1.3833e-05
-0.000143839
-0.000164961
-0.000101717
0.00295092
-0.000252237
-0.0026715
-3.17671e-05
3.99121e-06
-2.65473e-05
-1.53349e-05
2.89031e-05
0.00357386
3.14818e-05
-0.000661946
-0.00173402
-0.00173216
0.000209934
0.00152541
-0.000413195
0.000382567
4.37712e-05
0.00076014
-0.00113679
0.00208045
-0.000227797
-0.00174299
-1.69643e-05
1.28354e-05
-0.000327878
-0.000269337
-0.00179063
0.000777111
-0.000936536
0.00074965
-0.000999326
5.5413e-05
0.000505659
-0.0014244
5.89632e-05
-6.6912e-05
3.04249e-05
-0.00278775
0.00295729
0.000157328
0.000820743
-0.00537925
0.00364676
0.00190412
-0.00147205
-0.000254405
0.000883053
5.03945e-05
0.000390104
-0.00312193
-0.00286773
0.00256227
0.000302784
-0.00231228
0.00207144
-1.98759e-06
3.32138e-07
0.00191341
-0.000206656
-0.00164091
0.000406345
-0.000305732
-0.000223125
0.000383116
-0.000350787
0.00132811
-0.00144188
9.83639e-05
0.000209471
-0.000588072
0.000382453
-0.00011189
0.00101222
-0.000791318
-8.31368e-05
-0.000931167
0.000945079
-0.00136561
0.00147495
-0.000817478
0.000816181
0.00079269
-0.0009464
0.000198612
-1.93137e-05
0.00470882
0.000240741
0.00191269
-0.00104685
0.000998402
9.60251e-07
0.000411448
0.00306881
-0.0034018
-1.03601e-05
9.6778e-06
-5.4259e-06
-6.10978e-05
5.76076e-06
-0.00127052
0.00122786
-0.000599817
0.000706063
-0.00293347
0.000382284
0.00261004
-0.00218191
0.00266504
4.11526e-05
-0.000584484
0.000832595
-0.000346402
8.28654e-05
-0.000802853
0.000738318
-0.000717914
-0.00517374
0.00467335
0.000603608
5.66503e-08
0.00011739
8.67512e-05
-1.79853e-05
4.09738e-06
-4.09738e-06
-0.00198412
-0.000782404
0.00161898
-0.00154847
-6.03584e-05
0.00273917
-0.00182711
0.000368103
-0.00289288
0.00267511
0.000373607
-0.0040882
0.00392783
-0.00264066
0.000771816
0.000389126
-0.000483164
-1.91903e-05
-0.00251856
0.00302672
-0.00114213
0.00122818
1.08659e-05
2.52913e-06
-0.00345327
0.00133994
0.00217333
-6.30172e-05
-4.67483e-05
-1.59345e-06
3.87625e-07
-0.000403362
0.000361726
3.61688e-05
-0.000165291
2.16774e-06
0.000644774
-0.000383122
0.00373276
-0.00369619
7.16906e-07
-0.000901079
0.000749514
0.00026828
-0.00249404
0.00230877
0.000399065
-0.00256056
-0.00470569
0.00245106
-0.00171813
0.000106963
0.00162237
-0.000392666
-0.00212769
0.00119253
0.00194874
-0.00192121
0.00250275
-0.000459478
6.63779e-05
-0.00341943
0.00368597
-0.000227667
0.000458249
-0.000422376
-2.40256e-05
-0.00444993
0.000941923
0.00317622
-0.00407157
-0.000182022
0.00102134
-0.000194564
-0.00259764
-0.000958544
-0.000132715
0.00106194
-0.000302071
-0.00249631
0.000108768
0.000579748
-0.00359247
0.00173528
0.0018694
0.000485969
-0.00087637
0.000500386
-0.00238085
0.00285683
-6.25155e-05
-0.000992586
-0.00238327
0.000319021
0.00207337
-0.0011488
0.000138965
0.0010726
-0.000170285
0.000865591
-0.000572208
-0.00471558
-4.86426e-06
-8.27517e-05
9.96315e-05
-0.000426349
-0.000688655
-0.000142353
0.000172666
3.0645e-05
-0.00179022
0.00221419
9.85298e-05
0.000334927
9.60047e-05
-0.000171753
7.29342e-05
-0.00104076
-0.000417143
0.00155396
-0.0010841
8.44911e-05
0.00117708
-0.00153187
-0.00202257
0.000524143
-0.000625269
0.00240068
0.000313954
-0.00126303
8.28175e-05
7.19023e-05
-0.000423191
0.00100768
0.000861282
0.00127612
0.000106529
-0.00107774
-5.03442e-05
-0.000432981
-0.00347969
-0.000184335
0.00372333
0.00218354
4.97866e-05
2.37415e-05
-4.2632e-05
-0.00397011
-0.000446092
5.30498e-05
-4.20583e-05
-1.17516e-06
0.000392506
-0.00154487
-0.000107966
-0.00126667
0.00150258
0.000149793
-0.000100118
-0.000299322
1.14538e-05
0.000289318
-0.00050739
-0.00183625
-0.000150907
-0.00315782
0.00201104
1.48362e-05
-0.000154693
8.81545e-05
-0.00239375
0.00190701
-0.00215133
0.00289728
-0.000625503
0.000665934
-0.00272717
-0.00247209
-0.000901001
0.00083312
0.0011266
0.00130038
-6.64262e-06
-0.00159254
0.00403729
-0.000262762
1.84299e-06
-1.36557e-05
0.000153566
-0.000119479
0.000140643
0.00014649
0.00186669
-0.000953297
-0.00086941
0.00178739
-0.00181682
-2.84106e-06
9.39202e-05
0.00167441
-7.70125e-05
-0.000308822
2.16025e-05
0.00105783
-0.00163273
0.00166025
-0.000824744
0.00138761
-0.00156079
0.0017244
-0.00324976
0.00318488
0.000789489
-0.000693436
-8.02219e-05
0.00364307
-2.85917e-05
-0.00358531
-0.00368596
0.000284458
-0.00316885
0.000517423
0.00272696
-2.83157e-05
9.66248e-05
-0.0021012
0.00197845
1.18417e-05
-4.68297e-05
-0.00132888
-0.00323913
0.000230527
-0.0019829
0.00156701
-0.00199352
-0.000108352
-0.000955813
0.000739212
-0.00244367
-0.000396808
-0.000146547
1.08984e-06
-0.00115511
0.00139309
-7.71437e-05
8.22939e-05
-0.00061209
-0.00162275
-0.000448106
0.00251092
-0.00203451
-6.89639e-05
0.000161934
-0.000398358
0.000301968
1.78139e-05
-0.000161376
-0.00305104
-0.00131393
0.00441219
-0.000134689
0.0001919
0.00213436
-0.00189641
-0.000172819
-0.0023424
0.000218187
0.002255
0.00266466
-0.00278389
-0.000655839
-0.000232579
0.000195335
0.00259464
0.000416422
-0.00299649
-0.000432034
0.00353562
0.000802539
-0.00094622
1.12316e-05
-0.000202404
0.000330787
-0.00252137
0.0014684
-0.00445559
0.00149324
0.000819044
-0.00216522
-0.000160468
0.00247631
-0.00232071
-0.00060087
-0.000358368
0.000916461
0.000146822
-1.52269e-05
-0.000124058
0.000643798
-6.16326e-05
-0.000392994
0.000437243
-0.000284532
-3.77043e-05
0.000553873
-0.000481355
-2.08612e-05
-0.000268327
0.00285253
-0.000782168
0.000185857
-0.00221538
0.00184521
0.000478435
-0.000154728
-7.02533e-06
0.000198017
-4.65374e-05
0.00267237
-0.00015372
-0.000419785
0.000285693
-0.00272331
0.000658581
0.000949139
0.00094906
-0.00109206
3.76484e-05
0.000851398
-0.000794776
-4.99742e-05
0.000493476
-0.000539142
0.00207045
-0.00223588
-0.000380241
0.000320223
0.000553881
-0.000491054
-0.00421982
0.00227177
0.00213943
-0.0017312
0.00202861
0.000514849
-5.07634e-05
-0.000202913
-5.98368e-05
-0.000186484
0.000426305
-2.19393e-05
-0.000270948
0.000131778
1.76353e-05
-0.00358765
0.000687684
0.000233177
1.96402e-05
0.000116969
0.000124368
-0.000169402
-0.000315484
-0.0019718
6.33529e-06
1.47305e-05
0.000696123
-2.99032e-05
-0.000567077
0.00206144
-6.31871e-05
-0.00178644
-0.000401049
-0.00440105
0.000375413
0.000321109
-0.000983183
0.000160889
-0.00167071
0.00018799
0.00157891
0.000264105
0.000579886
-0.00104864
0.00226979
-0.00231695
0.000156942
0.00125029
-0.000296406
-0.000655857
0.000658547
2.3778e-05
-0.00183045
-0.00228112
-2.63466e-06
2.96257e-07
0.000417168
0.00366506
-0.00393006
0.002356
-0.000722298
0.000823883
-0.000267111
-0.000492575
0.00218073
-0.00201987
-7.27263e-05
-0.00261244
-0.00267788
0.00309228
-0.000398801
-0.00254853
-0.00185212
7.55834e-05
9.94334e-05
-0.000109494
-0.000111463
0.000292274
0.000146986
1.17741e-05
-0.000178451
0.000442477
2.65835e-06
-0.000438556
0.00223649
-0.000391882
-0.00167629
-0.000102335
0.00338419
-0.000367712
-0.00286475
3.41321e-05
4.11465e-05
-5.10609e-06
-3.18226e-06
3.2261e-06
1.97591e-06
-0.00433085
0.00410284
0.000325108
-0.00108552
0.00134265
0.0017776
5.17167e-06
-1.04648e-05
0.000580327
-0.000445844
-5.0612e-05
-0.000448889
-0.00376576
-0.00269136
-0.00019854
-0.000237781
-0.00139446
0.00251904
-0.00289577
-0.00423618
0.00186894
0.00219019
-0.000299716
0.00248934
-0.00210149
0.000721908
-0.000257536
-0.000410015
0.00035393
0.000514519
-0.00019544
0.000285682
0.000306815
-0.000130443
0.000229671
-0.000367398
1.82619e-05
-0.000172553
0.000345717
-0.000159894
0.000321609
0.000782809
4.24437e-05
-0.00103763
-0.00175875
0.0021023
-0.000171338
-0.00120644
0.000131013
0.00103808
-0.00155085
0.00016859
0.00141251
-0.000165285
0.000151872
0.000652744
9.63213e-05
0.00351721
0.000312172
-0.000541212
0.000104901
0.00061182
-0.000301078
-0.00197386
-0.000120009
0.000126733
0.00432771
-0.00375036
-0.000225771
-0.00047061
-0.000109063
-0.00104924
0.000114018
-0.000172883
0.00015216
4.0847e-05
-9.6017e-05
-1.91706e-05
-0.000556324
0.00314445
-0.00266661
-2.29889e-05
-0.000140234
0.00151407
-3.42756e-05
-0.00149854
0.00141777
0.00018077
0.00418166
2.35228e-06
1.44728e-06
7.18208e-05
2.60034e-05
-6.37063e-05
1.94015e-05
-0.0024062
0.00236627
0.00016723
-0.000392759
-0.00125274
0.000417075
-0.000508207
0.000175497
-0.000201773
0.000278686
0.000633058
-0.000165156
3.56562e-05
5.90547e-05
-9.52943e-05
-0.000243639
-0.00127037
0.000396636
0.000343977
0.00293422
-0.003787
-0.000408068
-0.000613885
-0.00191863
0.00256717
0.000361129
-0.000216122
-0.000226824
0.000721094
-0.000884216
0.000201281
-0.00205984
0.00207662
0.00239779
0.000297305
0.00160922
-0.0026225
0.0010613
-0.00290403
0.00232576
-0.000905557
0.00227181
-0.00256726
-0.002109
-0.00234805
-3.99494e-06
0.000630677
-0.0016881
0.00291385
-0.00125837
-0.00204962
-0.000250231
0.00205844
-0.00217509
-0.00118414
0.00290277
-0.00169203
0.000847794
-0.00095523
-3.98253e-05
0.00277411
-0.00254989
-0.000183107
-1.78132e-05
0.000168276
-0.000221509
0.000765955
-0.000886725
-5.07331e-05
6.57765e-05
0.000742329
8.65008e-06
-0.000139548
-0.000618823
-0.00284611
0.00113724
-0.00138675
0.0012432
9.22484e-05
-5.67942e-05
-0.0038395
0.000150751
0.000177384
5.10319e-05
-1.45402e-06
-0.00171415
0.00213423
-5.74769e-05
-0.000167361
-8.21922e-05
-0.00141785
6.35843e-05
-0.000965885
0.000312144
-0.00301729
0.000141124
-1.77355e-05
-0.000150838
-0.000153511
-0.000227032
0.000190011
-0.00180014
5.22964e-06
0.000816563
-1.60458e-06
-2.43373e-06
-3.5858e-05
3.15063e-05
2.67213e-05
-0.000415306
0.000316583
-0.000248015
-4.81755e-07
0.000165371
0.00197541
-0.00196352
6.83874e-05
0.000106439
0.00218358
-0.00340999
-0.000161687
-0.00213641
6.68858e-05
-9.43126e-05
-0.000954469
-0.00047004
0.000369933
4.91508e-06
0.000140908
-3.2428e-05
-9.35103e-07
0.00042427
-0.000360529
7.19901e-05
-0.00163942
0.00153261
-3.26521e-05
-0.000416634
0.00276333
0.00184009
0.00271779
0.000235043
-2.31279e-05
-0.000212178
0.000148764
-0.00105058
3.16553e-05
-0.000101913
-0.000177322
-0.00391129
0.00206312
0.00189278
0.00204933
0.00113442
0.000112104
-0.000285756
0.000768904
-1.15927e-06
0.000102117
-0.000101682
0.0019291
-0.00363865
0.00237501
-0.00271153
-0.000472574
0.000378985
0.000106028
-0.000141948
7.66634e-05
1.12492e-05
0.000100365
-0.00239137
0.000489716
0.0019
-2.95178e-05
-0.000350028
0.00213307
-0.000272689
-0.000506971
-0.000587522
0.0010518
-9.3903e-06
-3.54339e-07
0.00167444
-0.00182438
-6.2488e-05
0.000766365
-0.000715828
-0.000316059
0.00347558
0.00269929
0.00108586
-0.000231227
0.000283322
-2.09801e-05
-0.000178585
0.000257284
0.000175772
-0.000217148
4.82292e-06
-3.52618e-05
-0.000248793
0.000128855
-0.000702854
0.00244273
-0.000742847
-4.71e-05
-0.0032522
0.00347566
0.000488853
-2.08156e-05
-0.000400602
-0.00213231
0.000791111
0.00130544
-0.000183572
0.000523351
-0.000749033
-0.00142097
-0.000106383
-0.000951757
5.33904e-06
-5.30321e-08
-8.98487e-07
0.00172164
-0.00167031
-0.000680982
0.000556291
3.95188e-05
0.00240658
-0.00116596
0.000144235
-0.0028272
0.000963766
0.00193533
0.00478028
-0.00458417
-0.000445827
0.000175206
-0.000243338
0.000170867
6.73458e-05
0.00123889
0.000203168
-0.000726201
-0.000152159
-0.00148842
0.00137425
0.000114814
0.00147895
-2.02181e-05
-0.00142143
0.000446959
2.51101e-05
-0.000118534
-3.60797e-06
-0.000242424
0.00266062
-0.000908964
0.000386683
3.36801e-05
0.000341933
3.08925e-05
0.000825307
-0.00490151
-0.00125235
-0.000864546
-0.00206526
-0.00237694
0.000158326
0.00238406
0.000382205
0.00149568
0.00100568
-0.00194381
-9.9036e-05
5.94638e-05
0.000897827
-0.0001911
-0.00328431
0.0021339
-9.07422e-05
-0.00311119
-0.000346962
0.00372343
-0.00222011
-0.000180262
0.000982012
-0.00162989
0.00199313
-0.00204865
-0.000208946
-2.34047e-05
0.000154359
-0.000394743
0.000299853
7.99516e-05
4.9301e-06
2.19435e-05
0.000538725
-0.000561267
5.33836e-05
-0.00163687
0.00136001
0.000298487
0.00324256
-0.000116809
-0.00306295
-1.47659e-05
-1.80467e-08
0.000402574
-1.44759e-05
-0.000387646
-0.00051996
0.00260124
0.00150861
-0.00148925
-0.000128681
-0.000101281
-0.00325307
0.00256042
0.00138241
-0.00133823
-0.000115599
-5.237e-06
-0.000909614
0.00256905
-8.94284e-05
2.01733e-05
7.98882e-05
-0.00036794
-0.00290174
7.11964e-05
0.00050998
0.000699889
-0.000904592
-0.00210565
0.00163384
-5.05511e-06
-0.000678342
0.000724491
2.63378e-05
0.00137192
-0.00150072
-0.000655658
5.56595e-05
0.00062871
-0.00012457
-0.00077483
1.18884e-05
0.00185466
0.00451767
-2.19391e-05
-0.000924996
0.00185682
-0.00322204
0.000356765
0.00305002
-6.01183e-05
-0.000562491
-0.000256835
4.21358e-05
0.000415762
-0.000398314
2.93582e-05
-2.5893e-06
0.000548418
-0.000323193
-0.00187674
7.52371e-05
9.01567e-05
0.00157351
-2.76421e-05
-0.00152616
-0.00113874
-0.000112883
0.0011113
-0.000799265
0.0015757
-5.38668e-06
-0.000397153
0.000238809
-0.00151376
4.31868e-05
0.00147541
0.0026307
-0.00164686
0.000427048
-0.000279901
-0.0018936
0.00028511
0.00152022
0.000110906
-0.000100315
-7.45081e-05
-1.04862e-06
-5.96255e-05
0.000555752
-0.000737984
6.787e-05
5.93219e-05
0.000220969
1.21358e-05
-0.00103598
0.000942391
8.77792e-05
0.000368448
-6.75951e-05
-0.000211641
-0.000898204
0.0007543
0.000128213
0.000110906
0.000527847
0.00224205
-0.000242191
-0.00187213
-0.00324557
0.000375358
-8.77919e-05
-0.00164415
-0.00120277
1.12388e-05
0.00109696
-1.21571e-05
-0.00083514
0.00298004
-0.000119185
0.000117326
-0.00135149
-5.65035e-05
-0.000385438
-0.000245405
-0.0019598
0.00238018
-0.000650486
-0.000183572
-0.0036365
0.000780841
-0.000707532
-6.0633e-05
-0.00259428
-0.00305251
-0.000139822
-0.0023396
-0.000650305
0.000685262
2.41137e-05
4.72941e-07
-8.31869e-06
0.000408712
0.00238691
-0.00219887
-6.79849e-05
-0.000170492
0.00175938
-0.00138058
-0.00112042
0.00373583
-7.80137e-05
0.000415428
-0.00129844
0.00094869
-0.000350029
-0.00171185
0.00233632
-0.0026811
0.00141546
8.54144e-05
-0.00137371
0.000643625
-0.00364686
0.00421505
-0.0028221
0.000352625
0.0025129
-0.000500272
-4.23955e-05
0.000215164
-0.00336557
0.00329104
5.58134e-05
0.00281398
-0.00106961
-0.00080694
-0.0001096
-4.13852e-07
-7.62379e-05
0.000132568
0.00273738
-0.00138015
-0.00122798
-4.61856e-06
7.28092e-06
-1.35777e-06
0.000539842
-0.000250933
-3.30036e-05
0.000367589
0.000355715
-0.00385839
0.00369001
0.00138611
-0.000882688
-3.47522e-05
-2.21135e-06
0.00392776
0.000259986
0.0013013
-0.00126005
-0.000106251
0.00200424
-0.00157038
-0.000298916
4.28185e-05
-0.000315958
-0.00130199
-1.06297e-05
-7.94234e-06
6.37567e-06
-5.31199e-05
0.000684318
2.21054e-05
7.31103e-06
-7.46484e-05
-5.77914e-05
0.000773008
-2.16162e-05
0.000425073
-0.000178044
-2.59754e-05
-0.000198294
0.000153353
-0.00378351
0.00372436
0.00145946
-0.00199577
0.00232983
0.000814499
0.000154229
0.000155452
-0.000195425
-8.14052e-06
0.00258131
-0.00293609
0.000364598
-1.21382e-05
0.000577243
-3.38786e-06
0.000161381
1.14077e-05
-0.000100141
-0.00110762
0.000984421
-0.000428418
0.00134839
0.000142299
-0.0004762
6.56802e-05
0.000730927
-0.000515679
-0.000262598
-0.00278809
9.69875e-07
-9.54434e-06
2.92292e-05
0.000131135
0.00265534
-0.000254446
1.98767e-05
0.00023188
0.000914763
0.00103806
-0.0028941
0.00280382
0.000371075
-0.000449377
0.00186819
-0.00256588
0.000816572
-0.00120518
-0.00121888
-3.42384e-05
0.00141172
0.000251197
-0.00178613
-0.000118607
-4.70938e-05
9.66811e-05
3.98348e-05
-0.00283614
-0.000368194
-0.00338638
0.000580435
-0.00101352
-0.000394116
0.000510534
-0.00341835
0.0031973
-0.00377694
0.00402696
-0.00389716
0.00197758
7.02656e-05
1.94097e-05
-6.66772e-05
-0.00154527
0.0012543
0.000486585
6.07837e-06
0.00044338
0.000144238
-6.05832e-06
-0.000615121
0.00249665
-0.00231946
-0.000148951
0.00161629
-0.00177423
-9.95097e-06
0.00011043
0.00285411
-0.000290316
-0.00246621
-0.000631748
-0.00241627
-0.000120828
-0.000108477
-0.000168347
-0.000225311
-1.61584e-05
8.1187e-06
8.58585e-05
3.28728e-05
0.000737667
0.00274487
-9.90023e-05
-0.00211808
4.41722e-05
0.00217437
-0.00090027
-8.38917e-06
0.000931624
-0.00184663
0.00175287
0.000191381
0.000106428
-0.00188321
0.00186194
-0.000234964
0.000462812
-0.000151792
0.000150599
-0.00017328
0.000102387
0.003572
-0.00363189
0.000174048
-2.8707e-05
-0.000212872
0.00223245
-0.000121067
-0.00207202
7.01459e-06
-0.000512228
0.000523146
7.25106e-05
-0.000217876
0.0016887
-0.00206006
-0.000154223
-0.000918353
-0.00167658
-0.00257785
-0.00023218
-0.000220276
-0.00206131
-0.000126231
0.00218433
0.00343498
-0.000555467
0.00291579
-0.00312649
-0.000511478
-0.000823301
4.77357e-07
-0.00355548
0.00369966
-0.00255837
-0.000318333
0.00294621
0.000198077
-0.00250787
0.00222294
-0.000309725
-0.00229691
0.00269464
-0.000610437
-1.60293e-05
-5.16384e-05
8.22289e-05
0.000413664
0.00299005
-0.00321461
-0.00274382
0.00065079
-0.00101707
-0.000201643
-0.0015263
0.00125117
-0.0025108
0.0012995
6.05633e-05
0.00154082
-0.000244855
-0.00175113
0.000957484
-0.000250805
-0.00123484
-1.70006e-05
5.17001e-05
0.000372719
0.0014046
-0.00147989
-0.000186726
0.00318349
-0.00328331
4.04228e-06
-0.00139568
-0.000241693
-0.00111826
0.000899515
0.00172512
-0.00011903
-0.00150686
-0.00215394
3.50723e-05
0.00208122
-1.43384e-05
7.13711e-05
5.32723e-05
-6.99355e-07
0.00351241
-0.00186576
0.00177758
-3.59967e-05
3.16526e-05
-0.000211805
0.00185261
-0.00150377
0.00260508
-0.00241696
-0.000152437
-0.000193512
1.10442e-05
0.000250244
0.000143389
-0.000946738
0.000848525
-0.000212988
0.00208213
-0.00167339
-0.000174006
-2.59751e-06
-7.65006e-05
0.000633507
-0.000705384
-0.000155613
0.000157039
-3.12822e-05
-6.70341e-05
-0.001447
0.000625877
-0.000365459
0.000556626
-0.00100218
-0.00168009
0.00269691
-0.00101093
9.35446e-05
-2.12154e-06
0.000681936
-7.47744e-05
-0.000599257
0.000168657
0.0014473
0.00141714
-0.00115871
0.00277115
-9.93108e-05
0.000148781
0.00151403
-0.00138021
-4.46071e-05
0.00195838
-0.000114736
-0.00177181
-0.000771522
-8.27828e-05
0.00049973
-0.000495728
3.81232e-05
-0.00137704
0.000117977
-5.50205e-05
-8.89731e-06
-0.00179808
0.000320822
0.00163557
0.00207018
-0.00233072
0.000427696
-8.10658e-05
0.0010636
-0.00106408
0.000586097
-3.62399e-05
-0.00271348
0.000161337
-0.00140114
-0.00241202
7.54086e-05
-0.000657006
0.00057618
-0.00054135
-3.75247e-05
0.000525742
0.00170248
0.000110736
-0.000866677
8.79072e-05
-0.000202583
-0.00134921
0.00101656
-0.00108004
1.46654e-05
0.00190351
0.000993787
-6.61553e-06
4.93e-06
0.00161511
-2.72505e-05
-0.00162495
-0.00245959
0.000146502
0.0023421
0.000670601
-0.000705845
-0.00354689
-0.000511012
-2.74967e-06
0.000558644
-4.05596e-05
0.00107147
-0.000821785
0.000626931
0.000216467
1.41583e-05
0.000240258
0.000720367
0.000577978
-0.000553278
-0.00340319
-0.000244617
0.00144378
0.000117621
-1.28543e-05
-0.000305689
-0.00343575
-0.0010222
-0.00248361
-0.000229311
-7.44957e-05
0.000191981
-1.68708e-05
-0.000617661
0.00259866
-0.00190503
0.00226047
-0.000412972
0.00118624
0.00323625
-0.00289837
-0.000301765
-0.000406636
0.000270679
-0.000477398
0.00324673
-5.3722e-05
-0.00109003
-0.000134708
7.97287e-07
0.000175651
-0.000109641
-0.00128135
-0.000436149
0.00352318
-0.000597664
0.000451781
0.00111503
0.0001524
-0.00127215
0.00245145
0.000150092
-0.0010751
0.0010056
0.00161412
-0.000146835
-0.00120874
0.000318683
-0.0022937
-0.000132157
-0.000155418
-0.00227947
-0.000340023
-1.12818e-05
0.000508392
0.0018237
-0.0018234
-0.000141495
-3.14952e-06
-0.000114105
0.00026266
0.000584223
-0.000455102
-5.44272e-05
0.000295503
-0.00416699
-0.000162714
0.00129438
-3.51959e-05
0.00251573
1.69511e-05
0.00113218
-0.000182575
-0.000838394
-0.00272509
-0.00108522
2.49158e-05
-1.5793e-05
-0.000422067
-9.00062e-06
0.00140994
-0.00147101
5.43889e-05
-0.000125953
-0.000211557
-7.32075e-05
-9.11475e-05
1.78238e-06
8.28122e-05
-0.000361472
-0.00349514
0.00397277
0.00293676
-0.000121492
-0.00276302
-0.00189081
0.00165486
-0.00151324
0.000110738
0.00192698
6.53927e-05
0.000929175
-0.000971877
-0.00176356
-0.000190459
-0.00258682
2.95598e-05
0.000629208
0.00162583
-4.39812e-05
-0.00162344
-0.000388842
-0.000457535
0.000519903
-2.46731e-05
4.59464e-06
-0.000554363
0.000584829
-0.000312445
-0.000900965
0.000106815
0.000788377
0.000764261
9.19437e-05
-8.2952e-06
-0.000116962
-0.000767774
-0.00246764
0.00233756
-0.000223195
-0.00170427