/*--------------------------------*- C++ -*----------------------------------*\
| =========                 |                                                 |
| \\      /  F ield         | OpenFOAM: The Open Source CFD Toolbox           |
|  \\    /   O peration     | Version:  v2012                                 |
|   \\  /    A nd           | Website:  www.openfoam.com                      |
|    \\/     M anipulation  |                                                 |
\*---------------------------------------------------------------------------*/
FoamFile
{
    version     2.0;
    format      ascii;
    class       volScalarField;
    location    "200";
    object      nut;
}
// * * * * * * * * * * * * * * * * * * * * * * * * * * * * * * * * * * * * * //

dimensions      [0 2 -1 0 0 0 0];


internalField   nonuniform List<scalar> 
10042
(
0.00953551
0.0180674
0.00456822
0.00670769
0.00674489
0.0097902
0.002167
0.0195747
0.00669553
0.00161931
0.00539378
0.0187214
0.0016185
0.00678631
0.00677322
0.00678543
0.0130174
0.00527587
0.00290254
0.00362158
0.00154185
0.0084309
0.00670704
0.0168258
0.00672059
0.00696178
0.00169939
0.00668502
0.00990355
0.0187697
0.00697796
0.00436901
0.00669134
0.00669029
0.0182182
0.0163665
0.00681422
0.00668952
0.00687578
0.00695473
0.0175526
0.00669155
0.00263472
0.015467
0.00671141
0.00672214
0.00667837
0.00676698
0.0013968
0.0236928
0.0030604
0.00670571
0.0123052
0.00321848
0.017421
0.00162179
0.00160825
0.00861059
0.0067947
0.00667514
0.00141034
0.00491499
0.000787888
0.0219223
0.00686761
0.00681513
0.00447382
0.0111563
0.00667766
0.0109752
0.00821763
0.00680801
0.00672091
0.00678924
0.00680334
0.00630626
0.00675221
0.00667828
0.00663685
0.00291172
0.0115583
0.0168542
0.00707479
0.00670544
0.00161842
0.00202194
0.00526795
0.00430249
0.00674957
0.0071354
0.00199669
0.00677419
0.00109782
0.00194214
0.00683716
0.00675362
0.025463
0.0040535
0.0125381
0.0067825
0.00227331
0.00195934
0.0068071
0.00385489
0.00271007
0.00678511
0.0281463
0.00678996
0.00218862
0.00679208
0.00678132
0.00221644
0.00196797
0.020709
0.00710237
0.00667901
0.00593295
0.0069426
0.00799296
0.00668003
0.00667442
0.023697
0.024729
0.00671354
0.00704283
0.00676331
0.00676824
0.0159849
0.000748525
0.00476994
0.0066978
0.00677059
0.00679329
0.00676859
0.00223488
0.00556507
0.00525285
0.0248172
0.00406552
0.0145167
0.00105837
0.00675197
0.0270495
0.00668529
0.00208607
0.00669025
0.00186952
0.00667705
0.00678353
0.0125504
0.00677825
0.0068647
0.00382175
0.00146688
0.00799602
0.00215484
0.000983829
0.00154114
0.00679088
0.00696393
0.0068909
0.00720895
0.00464094
0.00675608
0.00505793
0.0111566
0.00672024
0.00330937
0.0165298
0.00668778
0.00304184
0.0199321
0.0260402
0.00668847
0.00307266
0.0260563
0.00672204
0.00669044
0.00675804
0.00667746
0.00437056
0.00244491
0.00678799
0.00667685
0.0199212
0.00206741
0.006809
0.00668364
0.0373174
0.00684728
0.0159946
0.00152116
0.00670038
0.00265778
0.0166214
0.00677201
0.0188672
0.00452225
0.0370738
0.00670743
0.00227214
0.00105616
0.00478861
0.00674889
0.014028
0.00678728
0.0218018
0.00153475
0.00677489
0.00677373
0.00454254
0.00672692
0.00476231
0.00261612
0.0068331
0.00936244
0.00674283
0.0103039
0.00674653
0.00234057
0.0404233
0.00396998
0.0433139
0.0100134
0.0067082
0.000970582
0.00679487
0.00615818
0.00149961
0.00680852
0.00669184
0.00677673
0.00228744
0.00702757
0.0067223
0.0182317
0.00669311
0.0275581
0.00231371
0.0167421
0.00599168
0.0215258
0.00667452
0.0074261
0.0185991
0.00675489
0.0207204
0.00257467
0.00358012
0.00681123
0.00263214
0.00670462
0.00913875
0.018067
0.00678509
0.0067161
0.00690258
0.00677714
0.0226484
0.00671548
0.00719065
0.00669411
0.00670441
0.00667895
0.00154364
0.0178165
0.00726086
0.0106092
0.00703056
0.00677775
0.0067211
0.015675
0.00675465
0.0169791
0.00678389
0.0077857
0.00427743
0.00671332
0.00703953
0.0183641
0.00668479
0.0202023
0.0143107
0.00490332
0.00689208
0.0352874
0.00416716
0.00668332
0.0045185
0.00692271
0.00155244
0.00684173
0.00691803
0.0221233
0.0068264
0.00678447
0.0164892
0.00628821
0.00672176
0.00675162
0.00393481
0.00115882
0.0066848
0.00688572
0.00450933
0.00693184
0.00677569
0.00769351
0.0157271
0.0212946
0.00686524
0.00675417
0.00674848
0.00678371
0.00698603
0.00366302
0.0066791
0.0185052
0.016632
0.00667924
0.00696884
0.0233341
0.0076779
0.0111977
0.0196861
0.00686299
0.00637513
0.00675567
0.0066811
0.00162767
0.00678987
0.00674787
0.0097265
0.00687978
0.0197307
0.00364329
0.0282825
0.00981322
0.00670759
0.0098044
0.00097529
0.00138168
0.00667453
0.00712224
0.00695617
0.00669143
0.00673354
0.00675815
0.00693836
0.0339816
0.00645346
0.00852607
0.00693734
0.00679343
0.0102969
0.00548755
0.00679444
0.00706444
0.023312
0.00696773
0.00677791
0.00682236
0.00515831
0.0173887
0.00912815
0.00457001
0.00672028
0.0069018
0.00691524
0.0110738
0.00667677
0.00708627
0.00676317
0.00700944
0.00184879
0.0067983
0.00763479
0.00112142
0.0156225
0.00181475
0.00675998
0.00353224
0.0015548
0.00674909
0.00141189
0.00667979
0.00679035
0.00667794
0.0067929
0.00668267
0.00678593
0.00939077
0.00656166
0.00487659
0.00853381
0.0166508
0.00671096
0.0192599
0.00683235
0.0039065
0.00670667
0.0441003
0.0068803
0.0147134
0.0174847
0.00679466
0.00103775
0.00685397
0.00466827
0.0067923
0.0178888
0.00191047
0.02171
0.0067965
0.0216483
0.00690989
0.00183694
0.0129843
0.00668101
0.00688772
0.0068506
0.00847108
0.00669439
0.00667646
0.000946809
0.00689468
0.00167576
0.0171477
0.00671349
0.00144517
0.00690955
0.0066786
0.00185312
0.0161789
0.00683363
0.00559615
0.00472417
0.00771738
0.00697683
0.00225605
0.0066859
0.00698097
0.00349718
0.0351557
0.00793832
0.0251439
0.0210745
0.00327686
0.020975
0.00667677
0.0077883
0.0184997
0.0188468
0.00158821
0.00670679
0.00673876
0.00734272
0.0038559
0.00667741
0.00677654
0.0069939
0.00671088
0.00681892
0.00683142
0.00678668
0.0045107
0.00529032
0.00444053
0.00704164
0.00455347
0.00278339
0.00671545
0.0393622
0.0055313
0.00974233
0.00684829
0.0024988
0.00698988
0.0154918
0.00672567
0.00530916
0.00680019
0.0122333
0.00678159
0.00264276
0.00677514
0.00769475
0.023021
0.00695934
0.00671536
0.00675992
0.0156831
0.00669317
0.00401918
0.00389114
0.00103017
0.00677353
0.0033497
0.0234506
0.00252198
0.00676129
0.00696367
0.0207846
0.0171343
0.00123892
0.00833411
0.00685961
0.0118226
0.00174275
0.00183456
0.00298244
0.0234606
0.00676964
0.00670645
0.00680003
0.0228559
0.00671258
0.00477278
0.00671036
0.00674991
0.00671558
0.00186407
0.00902605
0.00680728
0.00570065
0.0118849
0.00568771
0.00199406
0.0068047
0.00678576
0.0130188
0.00264677
0.00676523
0.00669577
0.00378428
0.0067593
0.00674038
0.0081882
0.00669377
0.0176127
0.00671529
0.0014884
0.00717186
0.0452491
0.00671286
0.00247889
0.0067646
0.00671137
0.0110908
0.00667491
0.01231
0.00118437
0.00669159
0.00720843
0.0293451
0.00818866
0.00698773
0.00687932
0.00669541
0.00667672
0.00679592
0.00758641
0.00679244
0.0228133
0.00674307
0.00675921
0.0023206
0.0025241
0.00772846
0.00698311
0.00670297
0.00247532
0.0173665
0.00706024
0.0249241
0.00671829
0.00243983
0.00671543
0.00669454
0.00677297
0.00675656
0.00677164
0.00685943
0.0408959
0.00679793
0.00233723
0.00670895
0.00694402
0.00667942
0.00216619
0.00903088
0.00669009
0.00671138
0.0181076
0.00320159
0.00668028
0.016867
0.00672747
0.00749174
0.00668948
0.00685869
0.00670865
0.0219955
0.00667988
0.0067679
0.00680941
0.0186676
0.00705205
0.00676865
0.00687055
0.00508401
0.00671159
0.00672412
0.00674212
0.0067242
0.00271086
0.00672413
0.00690251
0.00672014
0.0196477
0.0159064
0.0220244
0.00679513
0.0027492
0.00674061
0.00535327
0.00681615
0.0167154
0.0101002
0.0187074
0.00700445
0.0202341
0.00671763
0.00675413
0.025697
0.0049644
0.00666826
0.00112715
0.00678384
0.0183269
0.00671693
0.00676687
0.00671979
0.0066914
0.00688261
0.025378
0.00476365
0.00693424
0.0173
0.00673577
0.00711006
0.00690595
0.00477915
0.00696314
0.00683448
0.018077
0.00676572
0.00674698
0.00187096
0.00675566
0.0067187
0.00699389
0.00672595
0.00670178
0.0156357
0.00977137
0.0201888
0.00675991
0.00674275
0.00672236
0.0181787
0.00679685
0.00679875
0.00677957
0.00672233
0.0197996
0.028232
0.0058441
0.00678827
0.00688742
0.0197349
0.00247002
0.00695469
0.00172033
0.0263639
0.00874085
0.0189675
0.00671604
0.00686778
0.00677347
0.0218182
0.00671448
0.00263265
0.00678731
0.00667559
0.00741553
0.00680974
0.0320015
0.0293255
0.00668298
0.00671144
0.00667586
0.0239409
0.00669097
0.0162837
0.00688147
0.0363504
0.00673592
0.0067802
0.00669065
0.00670634
0.00674428
0.00671997
0.00672669
0.00680479
0.00474062
0.00285641
0.0213632
0.00671459
0.00442062
0.0294947
0.00684812
0.000739336
0.00670748
0.00679842
0.00692776
0.00691679
0.0260466
0.00678633
0.00679896
0.00672078
0.0210341
0.00677115
0.0217025
0.00133465
0.00674233
0.00190453
0.0214288
0.00689265
0.00672436
0.00106142
0.00708029
0.00467483
0.00569323
0.00649695
0.00517905
0.00675536
0.00676664
0.00680961
0.0023438
0.00683489
0.0104536
0.00193955
0.00667688
0.00681446
0.00680668
0.00349747
0.00708022
0.015293
0.00678419
0.00677187
0.00945841
0.00673017
0.00121324
0.00166702
0.00690459
0.0205875
0.00704037
0.00675955
0.00682415
0.00160251
0.00678513
0.012808
0.0068013
0.00160221
0.00254412
0.0265365
0.0068159
0.00194854
0.00702045
0.00679318
0.00130012
0.00668555
0.00158025
0.00677718
0.0067916
0.00678358
0.00675113
0.00394337
0.00140491
0.00693608
0.00677082
0.0253048
0.00668795
0.00673596
0.00670798
0.00667693
0.00584742
0.00691034
0.00675565
0.00878748
0.0252548
0.00674308
0.00787669
0.00043599
0.00671948
0.00678378
0.0066763
0.00946425
0.0281217
0.0026446
0.00672666
0.00137991
0.00222429
0.0244545
0.00683495
0.010448
0.00204074
0.0224698
0.00701211
0.00672768
0.0068473
0.0145003
0.00257651
0.00679595
0.0324925
0.00598433
0.0192946
0.0265882
0.00681188
0.00706839
0.00916792
0.0040281
0.0172602
0.0021185
0.0341797
0.00676702
0.0180605
0.00675445
0.00825885
0.00694355
0.00671093
0.00668263
0.00677453
0.00671218
0.0118935
0.00677826
0.00667793
0.00263402
0.00674161
0.00209784
0.0068459
0.0101496
0.00689074
0.00541875
0.00680216
0.00679671
0.00673193
0.00259035
0.00670378
0.00491027
0.00608637
0.0044049
0.00678266
0.020965
0.00670089
0.00114326
0.0226894
0.00664163
0.00673848
0.00667881
0.0067997
0.00682949
0.0102145
0.00233971
0.00672667
0.0234848
0.00685223
0.00678111
0.018477
0.00667765
0.00677079
0.0189331
0.00670379
0.0122975
0.00399961
0.0020419
0.0023296
0.00244926
0.00715068
0.00674994
0.0136338
0.0168476
0.00671106
0.00175447
0.0338694
0.00581452
0.00229292
0.00698812
0.00674374
0.00704203
0.00677852
0.00694368
0.0173162
0.00274861
0.00667689
0.00241164
0.00981827
0.0294677
0.00667722
0.006676
0.00695037
0.00679097
0.0125037
0.0165429
0.00673935
0.00256656
0.00845803
0.00681406
0.00691298
0.0382795
0.00613346
0.0118756
0.0068663
0.00685173
0.00676528
0.00688476
0.00101516
0.00416723
0.00679187
0.02472
0.0124767
0.0242636
0.00279788
0.00650823
0.037891
0.00251067
0.0268275
0.00252331
0.00675344
0.00675447
0.0258883
0.00728486
0.00688757
0.00264636
0.00329856
0.00678745
0.00381546
0.00688764
0.00677571
0.00696223
0.00255104
0.00675952
0.00671377
0.0432921
0.00674509
0.0067397
0.00157591
0.00246674
0.0231358
0.006955
0.00680277
0.024953
0.00135657
0.00691849
0.00135232
0.0186211
0.00672042
0.00669957
0.00252814
0.00475379
0.00671895
0.00680999
0.00675396
0.00685443
0.00678314
0.0176568
0.00682094
0.0106144
0.00676011
0.00243587
0.00676992
0.0067915
0.00650849
0.0224267
0.00185006
0.00674018
0.00689372
0.00930898
0.00416176
0.00675703
0.00512328
0.0189103
0.00672344
0.00735109
0.00369736
0.00683058
0.00362677
0.00670755
0.00412037
0.026903
0.0106667
0.00683646
0.006813
0.00228158
0.00730864
0.00672691
0.00671845
0.00142514
0.00668452
0.00671511
0.0143574
0.00681725
0.0131506
0.00670584
0.00672303
0.00672511
0.00246458
0.00682421
0.00687977
0.00347087
0.00671773
0.00680521
0.0101308
0.00678138
0.00441277
0.00694294
0.0130177
0.0213287
0.00688975
0.0122941
0.00364301
0.00676558
0.0322269
0.00527955
0.00676655
0.00667823
0.00670972
0.00708348
0.026544
0.00168963
0.0239566
0.0268486
0.017762
0.00180215
0.0196584
0.00296091
0.0126316
0.00668782
0.00239696
0.00676492
0.00683165
0.00681121
0.00243779
0.0250167
0.00674394
0.0188112
0.00673457
0.00225955
0.00684427
0.00321996
0.00694917
0.00753824
0.0180201
0.00672527
0.00668272
0.0141117
0.000958731
0.00755639
0.00721308
0.0172656
0.00683318
0.0179788
0.00797966
0.00670122
0.00671149
0.00673065
0.00255586
0.00688096
0.0055872
0.00685193
0.00685009
0.00683138
0.00680317
0.00682806
0.0125677
0.024631
0.0066976
0.00377132
0.00367797
0.00254017
0.00181527
0.00304195
0.00670278
0.00378389
0.00203021
0.00673802
0.0012172
0.0154887
0.00678142
0.00671374
0.00697266
0.0230851
0.0269217
0.0067317
0.0162501
0.00681533
0.00678552
0.0101948
0.006761
0.0068081
0.00673802
0.00682814
0.00691804
0.0223875
0.0070354
0.00679436
0.00671028
0.00679876
0.0067139
0.0224467
0.00668263
0.00279471
0.0106745
0.0122797
0.00669508
0.0238197
0.00678187
0.00213852
0.00691331
0.00403719
0.00668536
0.0220294
0.0272521
0.0250333
0.00674455
0.0081588
0.020137
0.0183781
0.00681782
0.0184067
0.00677761
0.0219877
0.022254
0.00703058
0.0130597
0.0173156
0.0122608
0.0399918
0.00141732
0.020339
0.00671274
0.00699636
0.018103
0.00109167
0.00671024
0.0124893
0.00501895
0.00671345
0.00676075
0.00808452
0.00109616
0.00253701
0.00827131
0.00179275
0.0187056
0.00407024
0.00671956
0.00680759
0.0128777
0.0140243
0.00171209
0.0238026
0.00680641
0.00677791
0.00150006
0.0183769
0.00136723
0.00671879
0.00839825
0.0137267
0.00684864
0.00403532
0.00675228
0.00227972
0.00725339
0.00675157
0.011059
0.011387
0.00671535
0.00455948
0.00670604
0.0245976
0.00695305
0.00553412
0.00737808
0.00671906
0.00679889
0.00668443
0.0013711
0.0067788
0.00739655
0.00710366
0.00682902
0.0135968
0.0068173
0.00213024
0.0192383
0.00682446
0.00445563
0.00687234
0.0067461
0.0329151
0.0254357
0.00679392
0.0108241
0.00720215
0.0119511
0.00674683
0.00680934
0.00701999
0.00688026
0.00227582
0.0121779
0.0068532
0.00700894
0.00632688
0.00485916
0.00338588
0.0255368
0.00139894
0.0201112
0.00670832
0.0066789
0.00204056
0.00680276
0.00895817
0.016401
0.00168156
0.0141876
0.00681398
0.0068358
0.00635544
0.0173926
0.0067684
0.0113634
0.00708025
0.00676015
0.00106259
0.00449703
0.00679916
0.00122994
0.0030912
0.00679196
0.00323456
0.00670566
0.00687272
0.0183739
0.00262585
0.0227906
0.00673927
0.0021182
0.00671929
0.00671683
0.0225979
0.00675455
0.021148
0.0103583
0.00621061
0.0127584
0.00318194
0.00863238
0.00667634
0.0196055
0.00086278
0.000581039
0.00361
0.0069778
0.00672891
0.0024547
0.00347008
0.0142563
0.0030669
0.00671271
0.00707076
0.00667571
0.041177
0.00670462
0.014031
0.00679225
0.00670499
0.00669998
0.0208854
0.00670301
0.00674524
0.00669221
0.00671994
0.00671543
0.0034302
0.0078012
0.0067828
0.00235808
0.00677173
0.0067041
0.00669996
0.016361
0.0253997
0.00262951
0.00676126
0.00670178
0.00672014
0.00285206
0.00260895
0.00669519
0.0216155
0.0140743
0.0108621
0.00676544
0.00672324
0.00671086
0.0034066
0.00671393
0.00682184
0.00672035
0.00671663
0.00721449
0.00686016
0.00774999
0.0249089
0.0200215
0.00684566
0.00670616
0.00678717
0.042987
0.0068281
0.00176616
0.00701979
0.00671399
0.00675823
0.00671247
0.020942
0.00680027
0.0116036
0.0190815
0.00358064
0.00673677
0.0025844
0.0207454
0.00311134
0.00137839
0.00693163
0.00365269
0.00671661
0.00243605
0.00240634
0.0160827
0.0067362
0.0067531
0.0158455
0.00269985
0.0037945
0.00705899
0.0148196
0.00673041
0.00251952
0.00744175
0.00778177
0.00109173
0.00678511
0.00678512
0.00680855
0.00677174
0.00324448
0.0112046
0.00913167
0.00671024
0.0438251
0.00689934
0.012432
0.021126
0.00672048
0.0243786
0.00361231
0.00671625
0.00214227
0.00143289
0.00679902
0.0195443
0.00670272
0.0167303
0.00726734
0.00920414
0.00623208
0.00126363
0.00676366
0.00252878
0.00682711
0.0067172
0.00670242
0.00673493
0.00227088
0.00542763
0.00137035
0.017776
0.0176902
0.00135786
0.00748242
0.00675351
0.0259474
0.00671052
0.0187977
0.0234295
0.0159092
0.00829869
0.0252391
0.00234599
0.00668857
0.00679796
0.00669692
0.00163289
0.00692173
0.0134014
0.00269972
0.0449417
0.00219492
0.00675643
0.00676002
0.00675884
0.0066872
0.0152509
0.0100534
0.0278387
0.00674484
0.00707589
0.00305338
0.00686615
0.00114932
0.00672926
0.0104504
0.0237678
0.00682598
0.00686527
0.018852
0.00233117
0.00561039
0.0203193
0.00684078
0.0133357
0.00692171
0.0430059
0.00670363
0.00531585
0.00685509
0.00682544
0.00726981
0.0180424
0.0246845
0.0428003
0.000845076
0.00413155
0.0068263
0.00684919
0.0255834
0.0198055
0.0010561
0.00238139
0.034097
0.00877459
0.0248355
0.0021803
0.0241351
0.00670088
0.00144312
0.00701707
0.00684963
0.00674309
0.00707727
0.00671861
0.00670679
0.00671696
0.00678256
0.0209963
0.00499786
0.0204317
0.00116801
0.00177728
0.0219473
0.0229799
0.00674789
0.00680048
0.019059
0.00788694
0.00269924
0.0219492
0.0206114
0.024285
0.00671685
0.00160006
0.00321919
0.00116901
0.0014704
0.0247748
0.0229018
0.00247332
0.00679297
0.0068472
0.00243109
0.00742958
0.00152211
0.0161488
0.00670447
0.00702392
0.00350745
0.0208114
0.00335579
0.00670856
0.00670401
0.00377859
0.0176981
0.0257374
0.00679546
0.00112535
0.020865
0.00691933
0.00283365
0.00703698
0.00153344
0.0069784
0.00145288
0.00368891
0.00670752
0.00675218
0.00697085
0.00185803
0.00106974
0.00135697
0.00501593
0.00407303
0.0067912
0.0159768
0.00143133
0.00329913
0.00678474
0.00623876
0.00693818
0.025485
0.00455909
0.00161269
0.00672316
0.00398477
0.0035759
0.00349632
0.0260413
0.00680683
0.00693251
0.0105496
0.00697428
0.0185226
0.00542409
0.00677716
0.00367165
0.0124288
0.00671799
0.0172854
0.00678234
0.015801
0.0193339
0.00688433
0.00383158
0.00670883
0.00670904
0.00673256
0.00287094
0.00668226
0.00679542
0.00670409
0.00671378
0.00328424
0.00687126
0.00688794
0.00684341
0.0106209
0.00675048
0.0228966
0.0054099
0.00674615
0.00401512
0.00670734
0.0272389
0.0224845
0.00678768
0.00637427
0.00183545
0.0130251
0.00708596
0.0266784
0.00177075
0.00687399
0.0178005
0.00673066
0.0424219
0.00676948
0.0093912
0.00673315
0.00257186
0.0319542
0.0241543
0.00669829
0.00345343
0.00670209
0.00337604
0.00383407
0.00675215
0.00671998
0.00185575
0.00696701
0.0233203
0.00910622
0.00529502
0.00135702
0.00673084
0.00254317
0.00445677
0.00671602
0.00544397
0.0209359
0.0130703
0.00629005
0.00357188
0.00593276
0.00401849
0.000574596
0.0263723
0.00143951
0.00730295
0.0140545
0.00372795
0.0031848
0.00110375
0.00671173
0.00331851
0.00736169
0.00398827
0.0221815
0.00364095
0.0226469
0.00677897
0.00682508
0.00101306
0.00353769
0.00314642
0.00689051
0.00223681
0.0161411
0.0068716
0.00686254
0.00679521
0.0348732
0.0108972
0.00291409
0.0067948
0.00669877
0.00699321
0.00679334
0.00512306
0.00670604
0.00679631
0.0067543
0.00722948
0.00257481
0.00679516
0.0283824
0.00564527
0.00614612
0.00275692
0.00346998
0.00289396
0.00885812
0.00682476
0.0207421
0.00671585
0.00670013
0.0053728
0.00734971
0.00670463
0.0165877
0.00577367
0.00672753
0.00591883
0.0240444
0.00287171
0.0188975
0.0193651
0.00238872
0.00670707
0.00395656
0.0197053
0.00188382
0.0142307
0.00542697
0.00255332
0.0084581
0.0050847
0.00669764
0.045189
0.0100906
0.00670678
0.00238487
0.0068184
0.00456087
0.0014982
0.00593336
0.00675891
0.00671551
0.00668591
0.0201227
0.00678999
0.00846405
0.00201618
0.00678488
0.0067031
0.0067299
0.0175178
0.00260942
0.0067027
0.00343542
0.00652337
0.00682023
0.0232064
0.00677786
0.00671065
0.00669785
0.00677888
0.0067428
0.00680688
0.00680942
0.00465768
0.00679459
0.000977209
0.00401318
0.0142041
0.0015436
0.00672947
0.00238304
0.00669176
0.00678416
0.00146024
0.00670482
0.00958952
0.00670864
0.00119053
0.0264429
0.00669626
0.00223321
0.0177592
0.0067664
0.00679847
0.0067837
0.00235025
0.00677057
0.0195199
0.0213814
0.00695056
0.00205081
0.00125534
0.00246043
0.00685504
0.00691849
0.00679122
0.00502056
0.00214509
0.00257183
0.0191606
0.00680383
0.00108066
0.0152174
0.00120651
0.00675746
0.00210006
0.00415557
0.00208126
0.00671125
0.00690433
0.0218552
0.002194
0.00690347
0.00452245
0.00707976
0.0210549
0.00669541
0.00776286
0.00675996
0.0022807
0.00120232
0.0188023
0.0437032
0.00220938
0.00247035
0.0218798
0.00704809
0.00670439
0.00681268
0.0068279
0.00685139
0.00262518
0.00672149
0.0177427
0.00237586
0.00679855
0.00673305
0.00671107
0.00670877
0.00256612
0.00674342
0.00575753
0.00682449
0.0168566
0.00688127
0.00676917
0.00669407
0.00099449
0.00685696
0.023165
0.0142947
0.0168992
0.00262809
0.00515147
0.00671573
0.00670343
0.00673821
0.0195209
0.0068099
0.00682304
0.00599373
0.0067538
0.00527715
0.0394172
0.00212344
0.0188114
0.0068303
0.0210476
0.00484762
0.00671024
0.00673685
0.00280608
0.0140362
0.0028702
0.0211855
0.00180675
0.00675727
0.00670807
0.00611174
0.00216209
0.00681899
0.00659899
0.00680952
0.00344885
0.0238031
0.00443494
0.00714866
0.00241954
0.00675077
0.00593936
0.0207233
0.0067636
0.00670325
0.00672997
0.00562882
0.00670239
0.002685
0.0215625
0.0393265
0.00671424
0.00674439
0.00669863
0.00678031
0.00685893
0.00191465
0.0046186
0.00477666
0.00317096
0.0148749
0.000657042
0.00699197
0.00680973
0.0067715
0.00670904
0.00671354
0.00672082
0.0067844
0.00833121
0.0165676
0.00681226
0.00669688
0.00680378
0.00679777
0.0115213
0.00195367
0.0234044
0.0183903
0.00404955
0.00114186
0.00670924
0.00675878
0.00671161
0.00679316
0.0124091
0.00675213
0.00277537
0.00254235
0.014744
0.0257374
0.00256744
0.0052906
0.022344
0.00671574
0.00212938
0.0164508
0.00712571
0.00676528
0.00687146
0.00678794
0.00677115
0.0067778
0.0109528
0.00674013
0.00675946
0.014843
0.00282865
0.0226231
0.00671529
0.00669659
0.00217364
0.00250715
0.0073522
0.0219754
0.00697085
0.0177089
0.00138841
0.00670658
0.0121788
0.00671059
0.00295426
0.0067875
0.00672054
0.0383431
0.00947083
0.0439086
0.00139487
0.017323
0.00833504
0.0148762
0.00671994
0.00679898
0.00211731
0.00671635
0.00680449
0.0036194
0.00675931
0.0136176
0.00677584
0.0115098
0.00413089
0.00668739
0.0248956
0.0068235
0.0067092
0.00335833
0.00391607
0.004522
0.00501513
0.00652145
0.00693452
0.00679519
0.00671456
0.0067704
0.00275013
0.00574873
0.00670266
0.00678939
0.00400984
0.0100712
0.00671034
0.00704909
0.00706871
0.00676527
0.00674819
0.00677362
0.0112506
0.00973337
0.00707792
0.00424641
0.00671424
0.00241754
0.00860707
0.00679228
0.00741706
0.00781938
0.00676384
0.00248032
0.0244053
0.0178206
0.00141929
0.00668824
0.00672404
0.0153653
0.0021719
0.0228414
0.00212477
0.00766087
0.00547994
0.0165579
0.013866
0.0433474
0.00543694
0.0224388
0.0252503
0.00958891
0.00678973
0.0255296
0.00684789
0.0119693
0.00381893
0.0060039
0.00708643
0.0157913
0.0173898
0.00686636
0.00678815
0.0064242
0.0120133
0.0066307
0.00670058
0.0067756
0.00673898
0.0026864
0.00682649
0.00289466
0.0216799
0.0256478
0.00285791
0.00685913
0.000811919
0.00680488
0.00674363
0.00916554
0.00679024
0.00311994
0.00672831
0.010878
0.00107083
0.0252896
0.00687721
0.00554175
0.00485141
0.002645
0.0159553
0.0240637
0.00360425
0.0190682
0.00670688
0.00677206
0.00107212
0.00675503
0.00680256
0.0067528
0.00680425
0.00281914
0.0070917
0.00670518
0.00900122
0.00683848
0.00682625
0.00678447
0.0113388
0.0170327
0.00718311
0.0154412
0.0260942
0.00659733
0.00331089
0.0152152
0.00682199
0.00677651
0.00680117
0.00287248
0.0151928
0.00670607
0.00685696
0.0180567
0.00671035
0.00671012
0.00679479
0.00673776
0.0122227
0.00678621
0.00146661
0.00680043
0.0292571
0.00671309
0.0054705
0.00988372
0.00739201
0.0266634
0.00670222
0.00708342
0.00679884
0.00675217
0.0117228
0.00496976
0.00478986
0.0129982
0.00671169
0.00679462
0.00324189
0.00676002
0.0127679
0.00671429
0.00167411
0.020957
0.0165475
0.00456113
0.00671408
0.00679773
0.0268373
0.00691438
0.00405417
0.0110293
0.00853114
0.0192777
0.00695306
0.00676617
0.00671255
0.00679638
0.00825842
0.00684956
0.0055592
0.00672832
0.00679431
0.0101485
0.00675116
0.00787685
0.00471784
0.00679045
0.007083
0.0162659
0.00669858
0.00692029
0.0191283
0.0067709
0.00677805
0.0018266
0.0441034
0.0027051
0.00725476
0.00670999
0.0171775
0.0186447
0.00173176
0.00678244
0.00669878
0.00449819
0.00678645
0.00879377
0.00960466
0.0203526
0.021684
0.00673225
0.00305942
0.006717
0.00236114
0.00676555
0.0192017
0.0160247
0.00676476
0.00870205
0.00671701
0.0340396
0.00181566
0.00670405
0.00782606
0.00672633
0.00670543
0.00672414
0.00667912
0.007315
0.0246179
0.00678879
0.00669537
0.000965068
0.00668751
0.00679242
0.00490019
0.00670816
0.00674909
0.00874845
0.00382453
0.00670204
0.00380959
0.00472669
0.00675403
0.0239412
0.0131486
0.00675954
0.00672143
0.00684693
0.00463568
0.00678326
0.00680572
0.00512861
0.00155845
0.00670808
0.00563286
0.0167025
0.00679549
0.00671376
0.00671323
0.00674638
0.00670736
0.00670744
0.00671253
0.00674444
0.0180613
0.0194549
0.00669673
0.00691118
0.0069517
0.00663211
0.00512022
0.00140751
0.00674215
0.00626471
0.0047315
0.00675723
0.0287393
0.00705197
0.00671077
0.00680461
0.00667881
0.00553607
0.0232536
0.00241442
0.00670832
0.00829362
0.0186337
0.0189465
0.00550817
0.00449453
0.00519306
0.00670822
0.0401485
0.00678204
0.00675233
0.0029772
0.00672665
0.00671902
0.00682947
0.00669967
0.00204416
0.0105234
0.00593485
0.00676609
0.00180425
0.0067091
0.00498666
0.00669743
0.00626054
0.00477139
0.0176927
0.00671063
0.00671414
0.00530904
0.0118083
0.0129145
0.0124341
0.0138732
0.00721114
0.00674015
0.00527491
0.0209509
0.00671221
0.00674187
0.00708026
0.00670695
0.0341308
0.00325858
0.00672777
0.0119726
0.00671256
0.0067231
0.00669507
0.00674627
0.00671034
0.00205139
0.00672486
0.00921091
0.00675303
0.00642827
0.00679748
0.00679644
0.00670773
0.00673637
0.00811165
0.00670899
0.00465146
0.0173772
0.00448961
0.00557348
0.00474944
0.00492266
0.00676942
0.00668662
0.00670869
0.00668786
0.0222454
0.00810165
0.00690618
0.00438778
0.0066717
0.0068035
0.0136928
0.00683418
0.00670637
0.00679344
0.00441982
0.00237159
0.0179121
0.0023381
0.00706916
0.0045741
0.00424467
0.00679123
0.00671005
0.00670111
0.00164721
0.00150922
0.020142
0.00311058
0.00146349
0.00670363
0.00385021
0.00670829
0.00446398
0.00679818
0.00536904
0.0049401
0.00881626
0.00288107
0.00565472
0.0070592
0.00521161
0.0031908
0.0230398
0.00670607
0.00670707
0.00675364
0.00674764
0.013536
0.00671963
0.00679509
0.00330228
0.00670544
0.0220375
0.00744291
0.00352543
0.00679786
0.00679081
0.0107289
0.00428059
0.00670892
0.0067092
0.00342483
0.0067095
0.00674312
0.00846056
0.00700466
0.0136
0.0170627
0.0155782
0.00143191
0.0067321
0.00679774
0.00181264
0.00670656
0.00672412
0.0143913
0.0150411
0.00680388
0.00675034
0.00670309
0.00498898
0.0108467
0.00674428
0.00469088
0.0067908
0.00670154
0.00672188
0.00531726
0.00694342
0.00671778
0.00675261
0.00580827
0.0066984
0.00316151
0.0143426
0.00733092
0.00674573
0.00676104
0.00678883
0.00673766
0.0191203
0.00671472
0.0156798
0.00974335
0.006706
0.00670793
0.0239621
0.0066981
0.006737
0.00670737
0.0075057
0.00707373
0.00749914
0.00671701
0.00669796
0.00675439
0.0136476
0.00673836
0.00679846
0.00133608
0.0160503
0.00663975
0.0066854
0.0218459
0.00668247
0.0108865
0.00670475
0.00673462
0.00671022
0.00676327
0.00676665
0.00599521
0.000950191
0.0183647
0.00170032
0.00672417
0.0186252
0.00675573
0.0129084
0.00895926
0.00685997
0.0175598
0.00364132
0.00537188
0.00671035
0.0151751
0.00677139
0.00671904
0.00679186
0.00121918
0.0184931
0.00268981
0.0110108
0.0133525
0.00344712
0.00671108
0.00322833
0.0013628
0.00755695
0.00803092
0.00696099
0.0067691
0.00230165
0.0090357
0.00671626
0.0257625
0.00566396
0.00153503
0.00670675
0.00671057
0.00188184
0.00197963
0.0342421
0.0151541
0.00331608
0.00670516
0.00677307
0.00676677
0.0134191
0.00998765
0.00670091
0.00693196
0.00669966
0.00670425
0.00670523
0.0147973
0.00223417
0.0026116
0.00333768
0.00720056
0.00640022
0.00671319
0.00677438
0.00682463
0.00673029
0.00322688
0.00671999
0.00680711
0.0067676
0.00670227
0.00268369
0.00787204
0.00686485
0.00672343
0.00671989
0.0103863
0.0066523
0.00309171
0.00676357
0.0199052
0.00739979
0.00674625
0.00207186
0.00832069
0.0067137
0.00831172
0.00677873
0.00676434
0.00675143
0.0140652
0.00670279
0.00669942
0.00690533
0.00679619
0.00675054
0.00673119
0.00510036
0.0182487
0.0119225
0.00680007
0.00674406
0.0140434
0.00672116
0.00672552
0.00670147
0.011503
0.00670979
0.0121273
0.00668674
0.00672165
0.0022418
0.00470849
0.00672222
0.00464145
0.0190468
0.0101384
0.00671237
0.00667635
0.00670047
0.00848926
0.00692719
0.00604777
0.00743734
0.0067444
0.00669563
0.00680372
0.00677276
0.0163852
0.0067214
0.00673963
0.00671665
0.00381697
0.0226694
0.00675653
0.00671482
0.00673166
0.00692114
0.0010206
0.0144447
0.00696739
0.0113223
0.00676881
0.00672872
0.0153208
0.0177826
0.00670906
0.00676047
0.0134865
0.00232119
0.0067023
0.00673742
0.00670025
0.00675306
0.00672288
0.013422
0.00684468
0.00708034
0.0193797
0.00706442
0.00678058
0.00690059
0.00688347
0.00744106
0.007052
0.00601852
0.00671853
0.0045691
0.0067102
0.00695041
0.0204036
0.0068709
0.00128096
0.0150212
0.00677297
0.00690886
0.0132064
0.0179221
0.00647997
0.00671304
0.00670202
0.0144755
0.00671584
0.00669943
0.00700398
0.00301289
0.0067033
0.0163324
0.0242394
0.00671248
0.00697241
0.00689599
0.00674447
0.00675827
0.00670259
0.00674973
0.01975
0.00604433
0.00694666
0.00669872
0.00671733
0.00671833
0.00672335
0.00697323
0.00570737
0.00677988
0.0118143
0.00676689
0.00671181
0.00228666
0.00670058
0.00668865
0.00688515
0.00776264
0.00671175
0.00895326
0.00701578
0.0114272
0.0068038
0.0097607
0.00712781
0.0223826
0.00677536
0.00673384
0.00991967
0.00675327
0.0141554
0.00670835
0.00700693
0.00689526
0.00673983
0.0163835
0.010254
0.0181701
0.0171966
0.00714308
0.00669971
0.00670087
0.0156271
0.0106153
0.00670422
0.00672315
0.00672529
0.00674708
0.00670105
0.0173124
0.00670924
0.00669986
0.00677975
0.00684066
0.0055217
0.0018211
0.00699307
0.006699
0.00669457
0.0255354
0.00707459
0.00668612
0.00808077
0.0057726
0.00702973
0.00706924
0.00669256
0.00673365
0.00682883
0.0107058
0.00879039
0.00454102
0.00671842
0.00671126
0.0152957
0.0214463
0.00698085
0.00677457
0.00698516
0.00673747
0.00601386
0.00690573
0.00694437
0.00669348
0.00676184
0.00669782
0.00674975
0.00674434
0.00689494
0.0067081
0.00120839
0.0119561
0.00669581
0.00674488
0.00671296
0.00676591