/*--------------------------------*- C++ -*----------------------------------*\
| =========                 |                                                 |
| \\      /  F ield         | OpenFOAM: The Open Source CFD Toolbox           |
|  \\    /   O peration     | Version:  v2012                                 |
|   \\  /    A nd           | Website:  www.openfoam.com                      |
|    \\/     M anipulation  |                                                 |
\*---------------------------------------------------------------------------*/
FoamFile
{
    version     2.0;
    format      ascii;
    class       volScalarField;
    location    "200";
    object      omega;
}
// * * * * * * * * * * * * * * * * * * * * * * * * * * * * * * * * * * * * * //

dimensions      [0 0 -1 0 0 0 0];


internalField   nonuniform List<scalar> 
10042
(
0.0309482
0.944446
0.0592592
0.0211142
0.0210213
0.384149
0.139961
0.334083
0.0200923
0.0474512
0.220688
0.937218
0.033419
0.0207082
0.0215237
0.0207018
0.488376
0.16954
0.023306
0.0241791
0.0332982
0.0289772
0.0210994
0.402546
0.0209571
0.0212663
0.0439911
0.0200241
0.413457
0.438299
0.0222925
0.038604
0.020069
0.0200641
0.324503
0.318367
0.0219135
0.0202453
0.0216205
0.0207626
0.417162
0.0200867
0.256226
0.76235
0.0210403
0.0209513
0.0198395
0.0215019
0.0559822
2.57514
0.424236
0.0209669
0.46264
0.0230869
1.01865
1.34637
0.0319968
0.0269186
0.0214951
0.0195562
0.0559261
0.572402
0.103567
0.343651
0.0387468
0.0211818
0.0235862
0.0483326
0.0198115
0.042132
1.73571
0.0219005
0.0203825
0.021477
0.0211444
1.30211
0.0436139
0.0198349
0.0481853
0.0233552
0.695608
0.407128
0.0234599
0.0208717
0.032518
0.0869004
0.023218
0.0499102
0.0208219
0.0332726
0.0273261
0.0215378
0.101623
0.088411
0.0255111
0.0212154
2.48118
0.0237001
0.379878
0.0214684
0.0269135
0.0647077
0.0214899
0.0334635
0.0242262
0.0213874
1.85129
0.0211066
0.134313
0.0214125
0.0214363
0.119123
0.0623872
0.33742
0.0359773
0.0197988
0.0312856
0.0221385
0.029
0.0197721
0.0195559
0.952125
0.950035
0.0210477
0.0360704
0.0208666
0.020887
0.973526
0.121004
0.0281222
0.0202099
0.0210098
0.0210067
0.0210711
0.118524
1.09789
0.0235624
1.86192
0.0222501
0.460707
0.067751
0.0203974
1.88656
0.0200295
0.0252001
0.020247
0.0313211
0.0197971
0.0217374
0.530269
0.021057
0.0209511
0.0225317
0.0376049
0.0281182
0.0254521
0.115543
0.884111
0.0210242
0.0216066
0.0220014
0.0209159
0.753393
0.0208408
0.0219757
0.435784
0.0203719
0.0348413
0.317999
0.0200357
0.0697533
0.454508
0.970835
0.0200487
0.023058
0.96072
0.0210008
0.0202327
0.0209811
0.0198129
0.0221724
0.02427
0.0214861
0.019765
0.261519
0.0274219
0.0219514
0.0195943
2.62962
0.0212272
0.931392
0.0319286
0.0202253
0.0240598
1.0021
0.0215343
3.36894
0.202203
2.4466
0.0208867
0.773735
0.0836068
0.107272
0.0201986
0.423548
0.0209589
0.432639
0.0371992
0.0214156
0.0210919
0.0369143
0.0201115
0.304483
0.0345356
0.0219879
0.0440517
0.0201392
0.479897
0.021283
0.598635
3.11668
0.0629755
2.94334
0.0408221
0.0211088
0.0862738
0.0215143
0.0232479
0.036936
0.0215197
0.0202337
0.0209189
0.0275419
0.0227219
0.0209946
0.327909
0.0228482
2.41952
0.0245111
0.398259
0.15427
0.492169
0.0195471
0.0213627
1.26589
0.0210904
0.479722
0.0241645
0.0226069
0.02141
0.0238935
0.0202296
0.47578
1.09998
0.0216682
0.0226591
0.0215542
0.0217011
2.70174
0.0210832
0.0356528
0.020299
0.020954
0.0198534
0.0344615
1.16213
0.0331649
0.503699
0.0229541
0.0209288
0.021334
2.31295
0.0206597
2.64256
0.0216324
0.0237764
0.0220183
0.0209995
0.0230407
1.06612
0.0200225
0.492052
3.38771
0.0219557
0.0232161
2.40631
0.0248551
0.0198878
0.0637637
0.021246
0.0307528
0.0262677
0.0234827
0.51324
0.0382989
0.0206742
0.967382
0.0231723
0.0213445
0.020185
0.0224324
0.0242942
0.0195944
0.199718
0.0293009
0.584523
0.020716
0.0214571
0.943963
0.506672
0.0224577
0.0210226
0.021211
0.0206743
0.0260556
0.0701655
0.0198583
0.253214
0.394713
0.019785
0.0218397
2.61209
0.0241023
0.273847
0.260008
0.0222916
0.0285088
0.0209591
0.0229161
0.0296941
0.0209476
0.0213004
0.0298308
0.0212009
0.418554
0.0768255
1.9748
0.233262
0.0202442
0.356204
0.0668201
0.0337912
0.0195508
0.0246867
0.0224071
0.020219
0.0206198
0.0211665
0.0234373
2.39375
0.021693
0.0304455
0.0233761
0.0202593
0.78231
0.0331624
0.0215334
0.0233879
3.12354
0.0223711
0.0213646
0.0220312
0.0219516
0.408279
0.319064
0.0220481
0.0209755
0.0224866
0.0226201
0.810964
0.0195681
0.0236399
0.0206838
0.0213018
0.0767536
0.0208088
0.0264073
0.032171
1.33072
0.0746054
0.02131
0.0578304
0.0366299
0.0209402
0.0452864
0.0197853
0.0213216
0.0197668
0.0210481
0.0198885
0.0216209
2.29944
0.0216772
0.045746
0.309332
1.01744
0.0211705
0.329582
0.0219696
0.0389807
0.0209801
2.61593
0.0203197
0.931883
2.98465
0.0202758
0.0626881
0.02053
0.10478
0.0215599
0.55634
0.0264839
0.504428
0.0216406
0.348172
0.0216551
0.0271205
0.859684
0.0199007
0.0215339
0.0209441
0.309802
0.0202203
0.01975
0.071293
0.0224258
0.0362512
0.549888
0.0210678
0.0338708
0.0223894
0.0198334
0.0265404
0.318436
0.0204585
0.0218756
0.823827
0.0259793
0.0217552
1.92168
0.0200506
0.0256863
0.0289773
2.70338
1.92643
0.286408
0.348281
0.348166
0.339165
0.0197343
0.0226655
0.923953
0.923514
0.0434823
0.0210987
0.0206394
0.035575
2.32576
0.0197664
0.019806
0.0225114
0.0211419
0.0206253
0.0207032
0.0210154
0.0235178
0.0635556
0.0219583
0.0255681
0.0501364
0.24986
0.0200599
2.37889
0.885767
0.324802
0.0210556
0.0252367
0.0216483
0.976456
0.0213316
0.144676
0.0216255
0.363612
0.0205262
0.0239306
0.0197961
0.0228489
0.590031
0.0215182
0.0207682
0.0210513
0.789386
0.0202886
0.0545271
0.0430427
0.0622673
0.0201959
0.0607435
0.522307
0.2271
0.0213751
0.0224255
0.49533
0.823584
0.0395827
0.371819
0.0213708
0.213208
0.0296591
0.0274595
0.0233525
0.446846
0.0201786
0.0210829
0.0214607
0.518153
0.0210611
0.0887964
0.0211433
0.0213636
0.020094
0.0268072
0.39519
0.0214973
0.0218492
0.479053
0.157075
0.0346228
0.0214818
0.0210677
0.227357
0.233002
0.0213288
0.0199444
0.0378288
0.0212279
0.0212599
0.578126
0.0202076
1.21294
0.0209619
0.0397967
0.0214111
2.77409
0.0210724
0.0258139
0.0213848
0.0203466
0.4501
0.0195455
0.503668
0.0395757
0.0201045
0.0236363
2.07506
0.289818
0.0262895
0.0211561
0.0199392
0.0197857
0.0201168
0.0222397
0.0214302
0.896128
0.0212135
0.0198736
0.279226
0.024255
0.0221423
0.0221089
0.0207625
0.239483
0.4066
0.0212523
0.45521
0.0213375
0.0264863
0.0200175
0.0201058
0.0210682
0.0210223
0.0213618
0.0212471
2.50149
0.0215799
0.0769596
0.020969
0.0209096
0.0198691
0.0396803
0.358772
0.0201175
0.0209905
0.25212
0.0672486
0.0198898
1.32053
0.0209943
0.0315121
0.0202595
0.0219674
0.0203342
3.13022
0.0198769
0.0207964
0.0208565
1.31077
0.0216934
0.0210537
0.0212497
0.241873
0.0211653
0.0210506
0.0203444
0.0210596
0.0236195
0.0210126
0.0207999
0.0200278
2.90743
0.762631
0.594449
0.0215475
0.0236752
0.0212414
0.571847
0.0219555
0.396187
0.497929
0.576376
0.0298856
0.466462
0.0213396
0.0213108
0.524702
0.167087
0.0264505
0.0670037
0.0215
0.423501
0.0207822
0.021376
0.0200643
0.0202793
0.0219757
0.524784
0.0219361
0.0212142
2.27951
0.0211729
0.485029
0.0204237
0.0219061
0.0242198
0.0212297
0.405042
0.0209472
0.0209985
0.0592488
0.0213746
0.019719
0.0224152
0.0208132
0.0207632
0.537905
0.781368
0.830124
0.0214893
0.0208063
0.0208195
0.421511
0.022017
0.0211176
0.0202909
0.0206141
0.454243
2.53064
0.0344439
0.0215822
0.0231962
3.20972
0.0263034
0.0245561
0.0352007
0.300361
0.738304
0.437795
0.0207705
0.0211918
0.0209719
0.345577
0.0207591
0.0242812
0.0210085
0.019552
0.0232308
0.0212694
3.04798
3.36463
0.0198693
0.0210263
0.0197352
0.280506
0.0202673
0.545089
0.0221171
2.622
0.0208064
0.0206142
0.0201223
0.0210704
0.0212858
0.0196421
0.0213421
0.0216463
0.0509823
0.0236206
0.579506
0.0213539
0.0794211
0.305121
0.0222854
0.574642
0.0209332
0.0208472
0.0204519
0.0213311
0.465304
0.0210066
0.0214923
0.0201013
1.15835
0.0205765
0.34849
0.0362521
0.0208188
0.069587
0.343047
0.020397
0.0203959
0.0654404
0.0236451
0.277418
0.035666
0.0481048
0.0375033
0.0214719
0.0213938
0.0211746
0.0266915
0.0209154
0.16046
0.109836
0.0195498
0.0201471
0.0218418
0.0288867
0.0236645
0.528667
0.0215726
0.0213457
0.467127
0.0208085
0.0613364
0.0284923
0.0233218
0.343454
0.0212584
0.0208021
0.0213671
0.0340578
0.02075
0.880065
0.021611
0.033549
0.0245224
0.955919
0.0212624
0.0264173
0.020946
0.0216875
0.0348264
0.0200447
0.0311294
0.0208084
0.0216247
0.0206583
0.0212663
0.0223842
0.0407669
0.0220399
0.021489
0.286519
0.0200564
0.0208189
0.0209835
0.0197493
0.0341671
0.0207346
0.0218939
0.0220601
0.284625
0.0212733
0.0279662
0.104551
0.0205993
0.0208905
0.0197329
0.393244
0.310312
0.0239165
0.0208276
0.0424676
0.165197
2.1867
0.0215475
0.434901
0.15728
0.59003
0.0212483
0.0196686
0.0202339
0.540956
0.183026
0.021596
2.28648
0.0853122
0.341038
0.46781
0.020901
0.0338563
0.391483
0.0407853
1.23338
0.026664
2.37653
0.0218002
0.420855
0.021361
0.0222183
0.022167
0.0280051
0.0196112
0.0214011
0.0210127
1.17947
0.0209502
0.0195595
0.252886
0.0213225
0.0263298
0.0216908
0.128178
0.0206412
0.0219292
0.0213248
0.0210074
0.0211711
0.0249566
0.0207706
0.872216
0.0729522
0.0473722
0.0209712
0.852755
0.020729
0.0610489
0.274775
0.022573
0.021186
0.0197987
0.0209935
0.021977
0.474433
0.0381259
0.0208254
0.97046
0.0207439
0.0214197
0.410653
0.0197683
0.0215199
0.969376
0.0208565
0.754047
0.0222602
0.0514778
0.0264751
0.0352397
0.0242305
0.0212227
3.48528
3.43946
0.0209772
0.0292805
2.98524
1.22862
0.111065
0.0216686
0.0204743
0.0216319
0.02138
0.0208988
0.432681
0.0236589
0.0197816
0.0323581
0.32983
0.309129
0.0198
0.0197359
0.0213423
0.0215236
0.464488
0.560454
0.0201646
0.0246353
0.192901
0.0212038
0.022407
2.23732
0.0222871
0.375498
0.0205255
0.0212248
0.0214873
0.0206561
0.176635
0.037876
0.0211194
0.414446
0.688666
0.918804
0.0235703
0.0221513
2.27595
0.0352308
0.466766
0.0298712
0.0212982
0.0209395
0.93289
0.195412
0.0215406
0.0243184
0.0387356
0.0208479
0.0411086
0.0215564
0.0208582
0.021619
0.0335829
0.0207868
0.0210122
2.89307
0.0206388
0.0204608
0.0358328
0.0251418
0.400418
0.0221791
0.0214775
0.910122
0.0419346
0.0224127
0.0328475
0.438606
0.0209163
0.0200818
0.0250829
0.342782
0.0207944
0.0212484
0.0209252
0.0202218
0.0206494
1.03946
0.0212126
0.512833
0.0213615
0.0324306
0.0201066
0.0216008
0.0304962
0.494259
0.120434
0.0211991
0.0221302
0.300497
0.0628558
0.0216557
0.0218993
0.439616
0.0209297
0.021685
0.0362511
0.0202029
0.0225422
0.020984
0.0352738
1.99114
0.510715
0.0202791
0.021756
0.025568
0.0266741
0.0206093
0.0204088
0.0404109
0.0196242
0.0205715
0.409427
0.0212392
1.29658
0.0201858
0.0204268
0.0200546
0.0295409
0.0213893
0.0205902
0.443923
0.0205853
0.021368
1.06892
0.0209046
0.0330709
0.0224608
0.780321
0.386248
0.0223399
0.366037
0.0242963
0.021342
3.20055
0.0218389
0.0208251
0.0198279
0.0209415
0.0236523
0.934979
0.0331747
0.331572
0.471829
0.297371
0.0664263
0.37393
0.0233378
0.386826
0.0200246
0.0269365
0.0214716
0.0214614
0.0216292
1.69105
0.337401
0.0211924
0.576648
0.0204365
0.103209
0.0211424
0.0230485
0.0216713
0.0257418
0.58303
0.0211215
0.0199043
2.28624
0.0898544
0.0218952
0.021571
0.544581
0.0213402
0.339582
0.327378
0.0207497
0.0205462
0.0208213
0.0240766
0.0206067
0.0218979
0.0219538
0.0204193
0.0213771
0.0214279
0.0203518
0.390431
0.36256
0.0198695
0.22264
0.0225204
0.03912
0.0401387
0.157148
0.0207369
0.0454531
0.0440536
0.0200859
0.0426398
0.550305
0.0215636
0.0205589
0.0215589
0.352456
0.456579
0.0201496
0.442835
0.0213483
0.0214476
1.94656
0.0206172
0.0202582
0.0204465
0.0203145
0.0208581
0.272769
0.0237482
0.0204992
0.0213097
0.0205165
0.0210602
0.322162
0.0198698
0.0273787
0.772067
0.500377
0.02056
0.504359
0.0202705
0.395879
0.0216867
0.0407467
0.0200188
0.580516
2.39641
2.09532
0.0213359
0.0298838
0.304146
0.411445
0.0213663
0.301055
0.020829
0.427295
0.346505
0.0247037
2.5768
0.314583
0.383214
2.42882
0.104673
0.334968
0.0205254
0.0217862
0.299015
0.0701094
0.0212948
0.369601
0.0218817
0.0207472
0.0202411
0.026108
0.0703478
0.0290921
0.511223
0.0278393
0.428482
0.0220529
0.020968
0.0205803
0.385547
0.326231
0.0274692
0.335045
0.0215281
0.0217212
0.0311854
0.442583
0.0393556
0.0207305
0.712228
0.828093
0.021714
0.039366
0.020073
0.0323093
0.0300895
0.0205893
0.419145
0.247843
0.0212393
0.021996
0.0208979
0.442123
0.0222672
1.42821
0.282073
0.0209042
0.0205598
0.0199849
0.0326817
0.0203009
0.0218911
0.0224244
0.0225293
0.406392
0.0217111
0.0268536
0.330755
0.0217591
0.03098
0.0219635
0.0213486
2.11804
0.342702
0.0215863
2.70727
0.020926
0.303865
0.0206557
0.0203172
0.0254287
0.0224499
0.0359846
0.388202
0.0214812
0.0221665
0.147668
0.0292886
0.0230159
0.341121
0.117423
0.304301
0.020906
0.019845
0.113413
0.0203202
0.895705
0.289125
0.0556916
0.284962
0.0215922
0.0203097
1.18842
0.293915
0.0208136
1.98343
0.0235404
0.0210148
0.0679947
0.0220139
0.021341
0.0419228
0.0232732
0.0202496
0.02288
0.0209782
0.0223542
0.420837
0.0298405
0.436291
0.021248
0.0263175
0.0208277
0.0212476
0.3261
0.0214413
0.381309
0.282917
0.0218418
0.376188
0.0319909
0.328105
0.0197501
0.369999
0.0979678
0.0938963
0.0228129
0.0215242
0.0206235
0.201646
0.0229374
0.407197
0.0334889
0.0202501
0.279886
0.0197133
2.57531
0.0209753
0.754525
0.0209431
0.0204979
0.0200953
0.371246
0.0207832
0.0201273
0.0200322
0.0208064
0.0213413
0.0380247
0.295698
0.0200964
0.0250685
0.0215551
0.0209587
0.020695
0.342884
2.31279
0.0246476
0.0212475
0.0207026
0.0200559
0.0236593
0.024312
0.02007
0.428299
0.907635
0.363457
0.020056
0.0207993
0.0213083
0.0226732
0.0205373
0.0217731
0.0213126
0.0207177
0.0262534
0.0218124
0.0225602
1.37366
3.08705
0.020198
0.0209481
0.0208264
2.48573
0.0208196
0.0276465
0.0237372
0.0204031
0.0212127
0.0210259
0.954455
0.0211654
0.351985
0.301647
0.0484156
0.0212355
0.0246774
0.31123
0.0232398
0.034754
0.0224692
0.0350381
0.0203574
0.0250435
0.158127
0.304768
0.0205374
0.0214284
0.999957
0.0239718
0.045308
0.0237426
0.279181
0.0212208
0.0247074
0.27027
0.617365
0.0583195
0.0201445
0.0207606
0.0201817
0.0215038
0.0973957
0.233716
0.241518
0.020534
2.56719
0.0224549
0.664008
0.423519
0.020985
1.38025
0.191212
0.0206292
0.0497496
0.0310063
0.0213934
0.427249
0.0207964
2.40349
0.0210854
2.03609
1.12681
0.0422508
0.0212293
0.0249411
0.0217446
0.0208149
0.0201812
0.0200781
0.195635
0.0217833
0.0346983
0.41059
3.29205
0.0344337
0.0221589
0.0202191
2.10378
0.019696
0.428108
2.88415
3.19332
1.90806
0.318308
0.335549
0.0200282
0.0213515
0.0201067
0.0617071
0.0219648
0.807373
0.0239808
2.71049
0.0257883
0.0201486
0.0200289
0.0214576
0.0200341
0.28783
0.544375
2.42162
0.0205544
0.0237012
0.0232152
0.0219796
0.0847784
0.0214034
0.238505
0.436873
0.0216869
0.0202621
0.426378
0.0257759
0.0628992
0.495208
0.0214561
0.255919
0.0221088
2.69109
0.0209404
0.0353395
0.0208196
0.151138
0.0280025
1.34895
0.340456
2.43693
0.0930832
0.0426179
0.0201742
0.0204604
0.44678
0.307662
0.0905482
0.0260836
3.45294
0.337956
0.364527
0.037117
0.936534
0.0233456
0.0324161
0.262426
0.0215252
0.023007
0.0235537
0.019736
0.0204146
0.0208923
0.021119
2.42906
0.0218371
0.309467
0.0848208
0.158797
0.305148
0.432307
0.0199957
0.0216639
0.420044
0.0390368
0.0260046
0.421018
2.08394
0.441325
0.0207498
0.0308286
0.0232507
0.0779712
0.0527102
0.361547
0.327651
0.0519028
0.021333
0.0220377
0.120095
0.0292065
0.0465112
0.412549
0.0209426
0.0237636
0.0225319
0.951704
0.0228411
0.0202816
0.0208772
0.0224039
1.15338
0.29008
0.0216098
0.0648875
0.37538
0.0217373
0.213259
0.0237636
0.0297726
0.0237164
0.0310871
0.396422
0.021074
0.020576
0.0214007
0.106554
0.0855901
0.0325182
0.0219145
0.0224176
0.021567
0.98133
0.0325987
0.0228193
0.0215308
0.0507859
0.0224727
0.340888
0.022203
0.028509
0.0209515
0.690091
0.127488
0.0482269
2.22853
0.0202234
0.0235577
0.244051
0.022464
0.287188
0.823591
0.0214929
0.0224143
2.073
0.0212918
1.17414
0.0214814
1.29836
0.347959
0.29131
0.0225598
0.0209551
0.0211306
0.0212318
0.023765
0.019785
0.0214139
0.0209426
0.0206154
0.0229129
0.0219898
0.0211316
0.0219155
2.17155
0.0214621
2.09926
0.0217956
0.021465
0.477556
0.0210626
1.85761
0.395696
0.0213033
0.0217966
0.0369693
0.267196
0.0235986
2.36269
0.0278045
0.021647
1.09664
0.0205204
3.04538
0.021458
0.0315903
0.0197977
1.68023
2.22408
0.411017
0.0216592
0.0228389
0.0207496
0.0228323
0.326672
0.0207652
0.0213013
0.0415517
0.0237075
0.870472
0.324505
0.0218282
0.0365826
0.0214134
0.0261208
0.022068
0.021319
0.0218385
2.44637
2.16672
0.0395191
0.0226562
0.0218032
0.0222781
0.0860704
1.8706
0.0510124
0.721313
0.271131
0.0224172
0.0230564
0.0863099
0.020736
0.0229648
0.0226364
0.022289
0.304586
0.0224055
0.43304
0.0199766
0.0217092
0.0840184
0.0225405
0.0231364
0.0222729
0.02513
0.409836
0.0217065
0.0202435
0.0213771
2.42293
0.363922
0.0234839
0.0214702
0.0206749
0.0216686
0.0210801
0.0393315
0.0208842
0.0200418
0.0214592
0.0228447
0.0289068
0.0213651
2.26298
0.021754
0.0218251
0.17243
0.0227094
0.0234511
0.0317925
0.0216324
0.957341
0.0207382
0.020681
0.0218554
0.0228493
0.020402
0.298213
0.0218259
0.0209656
0.599409
0.335084
1.83702
0.302884
0.448195
0.0245868
0.0205098
0.0224917
0.299931
0.0269736
0.583431
0.0219539
0.0307867
0.0235066
0.0334361
0.0206559
2.65962
0.228823
0.0209336
0.024385
0.0215655
0.0219896
0.153672
0.0500496
0.0214398
0.0207057
0.0200194
0.371959
0.0215822
0.318342
0.0339117
0.0215449
0.020924
0.0209659
2.0141
0.0578476
0.0208573
0.507604
0.185098
0.0217354
0.324924
0.0215083
0.0205128
0.0206558
0.0213975
0.0199728
0.0211335
0.0215122
0.0221641
0.0214459
0.0728058
0.0224408
0.533349
0.0297516
0.0212101
0.146921
0.0199915
0.020012
0.0506738
0.0209123
0.410359
0.0210219
0.0777512
3.68991
0.0206037
0.195229
0.285795
0.0213622
0.0217028
0.0211049
0.150507
0.0214735
0.42686
0.424456
0.0213789
0.0263246
0.0392462
0.268481
0.0210519
0.261744
0.0215532
0.175194
0.149449
0.0360105
0.44516
0.0205466
0.0921499
0.429253
0.12574
0.0214262
0.0517165
0.0223287
0.0460056
0.0203895
0.022462
1.37539
0.0257562
0.15449
0.23381
0.0236689
0.304414
0.0205242
0.0298391
0.0214706
0.0251927
0.253365
0.359893
2.89496
0.0338653
0.0246926
1.28219
0.0237471
0.0209587
0.0201601
0.0216616
0.0218414
0.02435
0.0210158
1.18646
0.0254381
0.0207758
0.0199459
0.021292
0.021246
0.103233
0.0205699
1.93242
0.0218885
1.21902
0.0211411
0.0213733
0.0196472
0.0671055
0.0209843
2.89023
1.26889
0.296821
0.0239811
0.0218673
0.0213879
0.0209075
0.0207281
0.412249
0.0216041
0.0216569
0.579664
0.0213297
0.0219873
2.83103
0.183916
1.15968
0.0201544
1.34159
0.465275
0.0209911
0.0205508
0.026904
1.20278
0.451269
0.417183
0.135906
0.0211987
0.0206797
0.133553
0.0256752
0.0215879
0.0260185
0.0215282
0.0226958
0.364704
0.529456
0.0246449
0.0256138
0.0229758
0.0278873
0.898483
0.0214396
0.0208919
0.0213826
0.123798
0.0208572
0.02398
0.915506
2.86133
0.0204142
0.0207466
0.0196557
0.0214159
0.0210479
0.030264
0.0612888
0.0219885
0.286227
0.396388
0.384802
0.0237326
0.0217128
0.0213316
0.0211667
0.0206934
0.0199022
0.021371
0.701668
0.840424
0.0202106
0.0205307
0.0215162
0.0213994
0.819717
0.0313088
0.925825
0.424594
0.12626
0.0647184
0.0212752
0.0210073
0.0212033
0.0213913
1.20758
0.0211829
0.0236733
0.121732
0.902652
0.341407
0.108631
0.791873
0.424236
0.0213204
0.0282721
1.21528
0.497229
0.0213003
0.0210882
0.0200109
0.0213026
0.0213349
0.832467
0.0209725
0.0209145
0.646053
0.0234287
1.25427
0.0212279
0.0206056
0.0288919
0.129627
0.0287627
0.419755
0.0224272
1.11035
0.0354065
0.0209476
0.752473
0.0210539
0.0231852
0.0214368
0.0204941
3.2969
1.05442
2.53618
0.101113
0.424141
0.295761
0.637192
0.0207427
0.0214553
0.196012
0.0213045
0.0214984
0.0227568
0.0212709
1.21301
0.0214629
0.803292
0.0784334
0.0200194
0.9609
0.0212377
0.0211269
0.0235762
0.0234583
0.023613
0.0238048
0.0237756
0.349733
0.021405
0.0212399
0.0199329
0.0375439
0.155552
0.020889
0.021571
0.0494663
1.09498
0.0210045
0.0237648
0.0237513
0.0200803
0.0212418
0.0209344
1.1223
1.72613
0.0236983
0.0221675
0.0213684
0.0267188
0.58916
0.0213588
0.618286
0.855491
0.0214572
0.027177
1.40311
1.34256
0.0343957
0.0201315
0.0206286
0.951283
0.0379287
1.32502
0.0250087
0.800328
0.0293214
0.876827
0.412767
2.79002
0.112548
0.914263
0.342757
0.869365
0.0217273
0.342741
0.0209368
0.942686
0.0223843
0.0218732
0.023618
1.02558
0.277643
0.0219895
0.0213184
0.398657
1.11878
0.633636
0.0207287
0.0207706
0.0212181
0.0238357
0.0212096
0.0359188
0.927472
0.315815
0.0235645
0.0204258
0.0947771
0.0215145
0.021305
0.203355
0.0211522
0.0231857
0.0199257
0.447719
0.0580218
0.341561
0.021073
0.350773
0.459885
0.0309293
0.425785
1.9989
0.394983
0.865412
0.0209995
0.0213759
0.0765895
0.0213432
0.021379
0.0209818
0.0215396
0.025853
0.0238034
0.0209783
0.337549
0.0203512
0.206533
0.0216574
0.748634
1.08454
0.0248994
2.32032
0.919208
0.0310346
0.548385
1.97974
0.0216128
0.0214768
0.0278991
0.0255039
0.879688
0.0209626
0.0213512
0.920125
0.0213268
0.0206914
0.0214978
0.019809
0.329578
0.0214188
0.0310313
0.0214764
1.88294
0.0212213
1.62301
0.233505
0.347688
0.966404
0.0200328
0.0235699
0.0214751
0.0212016
1.03973
0.19197
0.066965
0.260385
0.0198659
0.0219606
0.0231594
0.0213417
0.271239
0.0208919
0.0285479
1.35095
0.288657
0.0472141
0.0212199
0.0214817
0.942901
0.0250072
0.0810261
0.499263
0.874521
1.2276
0.0214443
0.0207407
0.020881
0.0214533
0.204389
0.0220253
0.0673279
0.0213927
0.0214214
0.26494
0.0198397
0.135623
0.023674
0.0213742
0.0236288
1.03359
0.0206903
0.0215304
0.813607
0.0213122
0.0213506
0.0392096
2.58111
0.0237596
0.0261
0.0204083
1.1438
0.433115
0.0664546
0.0212762
0.0206904
0.0262617
0.0213321
0.231536
0.64346
0.415463
0.94603
0.0212019
0.0555721
0.0209411
0.0793332
0.0213103
0.556279
0.274041
0.021275
0.614646
0.0212914
2.02595
0.0354084
0.0203901
0.031313
0.0207191
0.0208981
0.0205086
0.019853
0.0210498
0.974653
0.0212892
0.0205738
0.0924675
0.0200911
0.0215092
0.0219734
0.0211484
0.0213136
0.47949
0.0292372
0.0198662
0.0223089
0.0221222
0.0212498
0.956845
0.867763
0.0212776
0.0208952
0.021308
0.054801
0.0214101
0.0216463
0.0220558
0.0561766
0.0198727
0.0220932
0.275797
0.0213051
0.270236
0.0212332
0.0213683
0.0209987
0.0211299
0.0205804
0.0212261
1.10142
0.301234
0.0205911
0.0212455
0.0221719
0.350967
0.0253658
0.0465446
0.0211788
0.0217857
0.0440471
0.0219217
0.332002
0.0231037
0.0210412
0.0205524
3.04612
0.021815
0.867269
0.0945689
0.0210356
0.497337
0.979805
0.298796
0.0990236
0.0473763
0.0252536
0.0209694
2.96969
0.0212911
0.0226538
0.0293501
0.0199472
0.0213126
1.67232
0.0207246
0.267103
1.02687
0.0217838
0.0212732
0.841284
0.0212307
0.0552315
0.0203757
0.191545
0.228607
0.294463
0.0212475
0.0208133
0.0218846
0.663287
0.523081
0.255689
0.789993
0.024591
0.02123
0.0770586
2.35478
0.0213853
0.0198278
0.0235829
0.0210138
2.086
0.0783477
0.0203493
0.317574
0.0208019
0.020704
0.0203652
0.021173
0.0213261
0.240338
0.0211026
0.42348
0.0206416
0.0217488
0.0214995
0.0214475
0.0211422
0.0212049
0.0276399
0.020578
0.15849
0.41377
0.0456611
0.0237786
0.0514169
0.0275235
0.0210457
0.0200737
0.0212586
0.0201249
2.256
0.115891
0.0220731
0.0222995
0.704599
0.0218005
0.277207
0.021205
0.021014
0.0213195
0.0417961
0.134953
1.16596
0.961912
0.0237312
0.044852
0.0446215
0.0211351
0.0210552
0.0207152
0.0283006
0.0294156
2.1559
2.11251
0.0307088
0.020892
0.029053
0.0211595
0.041382
0.0208729
0.0947397
0.0219314
0.30507
0.0316906
0.0217772
0.0237579
0.0475638
0.0258551
0.941774
0.0210288
0.0206682
0.0212704
0.0211861
0.428491
0.0204822
0.021442
0.0248889
0.0198583
0.954281
0.727521
0.0333497
0.0211965
0.0213462
0.513829
0.0806674
0.0210338
0.0212739
0.544157
0.0212921
0.0212436
0.190977
0.0237323
0.406424
0.283897
0.296849
0.0321869
0.0209073
0.0212118
0.0274946
0.0210291
0.020887
0.596744
0.982436
0.0200709
0.0209681
0.0209074
0.0220116
3.27675
0.0209666
0.0220538
0.0213057
0.0203775
0.0209487
0.0474641
0.0217575
0.0208703
0.0198332
0.0217444
0.0206898
0.0274249
0.281638
0.0272595
0.0206187
0.0210198
0.0211854
0.020936
0.413261
0.021381
0.279695
0.467479
0.0210431
0.0206001
0.437344
0.0206723
0.0207132
0.0209196
0.173212
0.0235226
0.0211626
0.0209145
0.0198505
0.0212799
0.2694
0.0209864
0.0214574
0.0368961
0.401004
0.031593
0.0199403
0.307452
0.019559
0.489241
0.0209271
0.0199723
0.0206126
0.021521
0.0210913
0.731701
0.0878815
0.286792
0.0560044
0.0253037
2.03729
0.0212731
0.517306
0.21631
0.0214787
0.425867
0.0468068
0.101986
0.0211959
0.653744
0.0215088
0.0206213
0.0201156
0.107603
0.426242
0.0242743
0.404967
3.19962
0.0332944
0.0213123
0.0230927
0.0400374
0.184981
0.425166
0.0234246
0.0214412
0.0351676
0.342158
0.0208034
0.932966
0.0219956
0.0353349
0.0205654
0.0204199
0.0266621
0.0259592
2.08633
0.865331
0.229425
0.0209122
0.0209452
0.335576
0.352139
0.989802
0.0208057
0.0219104
0.0206946
0.020976
0.0210103
0.396493
0.0278414
0.237188
0.136751
0.401784
0.156341
0.0208576
0.0214432
0.020382
0.0205078
0.0255485
0.0210394
0.0211952
0.0212049
0.02089
0.0244324
0.328864
0.0292305
0.0207367
0.0209455
0.823495
0.0266315
0.0230827
0.025233
0.364262
0.236445
0.020893
0.0258141
0.407508
0.0207803
0.301214
0.0209082
0.0208542
0.0207492
0.579831
0.0209061
0.020709
0.02148
0.0214264
0.0208084
0.0207154
0.605482
0.948821
0.451659
0.0215458
0.020777
0.412678
0.0211895
0.0204922
0.0207631
0.454312
0.0213098
0.830462
0.0200804
0.020691
0.0381167
0.0391943
0.0207241
0.0414058
0.914841
0.366373
0.020824
0.0197249
0.0207906
0.331966
0.0215244
0.023774
0.696773
0.0209452
0.0203983
0.0216217
0.020679
1.13803
0.0208732
0.0212791
0.0209302
0.0248543
0.30288
0.0212582
0.0206722
0.0214431
0.179692
0.0774674
0.26521
0.0229494
0.467432
0.0203943
0.0208921
0.668409
0.92547
0.0212595
0.0209004
0.500554
0.0322571
0.0208729
0.0207461
0.0207431
0.0208945
0.0209076
0.337583
0.0213092
0.0236048
0.306575
0.222052
0.021044
0.026873
0.0264476
0.381418
0.0233244
0.0245647
0.021272
0.249198
0.0211849
0.0286591
0.312659
0.020537
0.0854536
0.275885
0.0209237
0.021726
0.490518
0.337457
0.0219799
0.0207147
0.0204749
0.604748
0.0208582
0.0207247
0.0246498
0.0235059
0.0209421
0.345438
0.442628
0.020603
0.0227492
0.0216657
0.0207283
0.0203678
0.0209087
0.0203403
1.34612
0.0218971
0.0220594
0.0207078
0.0199329
0.0206977
0.0208321
0.020974
0.0253947
0.0224303
0.494701
0.0209087
0.020869
0.0251093
0.0207434
0.0199499
0.0217689
0.331665
0.0207908
0.434871
0.0238752
0.478615
0.0200737
0.474617
0.343414
0.348562
0.0199598
0.0209197
0.451134
0.020909
0.283335
0.0210483
0.0240482
0.021934
0.0209498
0.276559
0.47814
0.274909
0.273163
0.0237227
0.0207092
0.0208057
0.881905
0.35099
0.0208628
0.0214165
0.0199694
0.0214479
0.020431
0.370684
0.0206574
0.0202382
0.0214454
0.0213464
0.044314
0.0268252
0.0218173
0.0207065
0.0205054
0.901944
0.0239058
0.019661
0.668484
0.032876
0.0239443
0.0237378
0.0265187
0.0203673
0.0202836
0.28784
0.355593
0.142196
0.0209274
0.0205682
0.538791
0.30307
0.0231505
0.0206999
0.0232731
0.0206021
0.0217197
0.0207643
0.0226026
0.019846
0.0206481
0.0204086
0.0207134
0.0206023
0.0218811
0.0206229
0.0715191
0.477931
0.0205876
0.0207617
0.0198905
0.0209213
0.0213721
0.0208799
0.4551
0.583776
0.0208291
0.0216851
0.389994
0.0211226
0.102202
0.326839
0.287722
0.0205696
0.291484
0.0254844
0.176248
0.0232235
0.0206767
0.460683
0.417005
0.30868
0.0217989
0.020353
0.291343
0.367077
0.0205882
0.0206738
0.0206991
0.0226927
0.0246626
0.0214442
0.0206932
0.0205436
0.566676
0.0723517
0.0307996
0.0201567
2.89424
0.27527
0.0204869
0.133445
0.0209923
0.0207227
0.0207911
0.135904
0.0207915
0.039606
0.0207126
0.0206594
0.0207162
0.0204696
0.0209938
0.0241683
0.0198849
0.0205899
0.0304563
0.0205397
0.0214117
0.020539
0.0202166
0.416139
0.161352
0.0207807
0.40565
0.0208729
0.0205874
0.0276891
0.0222488
0.267364
0.0199
0.0205239
0.0213933
0.0205849
0.0254124
0.0204865
0.0207601
0.0302739
0.0196276
0.0210193
0.0209236
0.0206609
0.0238521
0.0210268
0.0603072
0.336539
0.160445
0.871652
0.0198023
0.0205123
0.0737559
0.0207293
0.43917
0.0199127
0.481758
0.484933
0.0200782
0.0205053
0.0211668
0.466339
0.0208162
0.0208691
0.325935
0.0188154
0.408575
0.0212431
0.197683
0.0196407
0.352879
0.525229
0.350129
0.338105
0.242787
0.303039
0.0205493
0.0207302
0.0268208
0.328494
0.0211756
0.0206846
0.0206185
0.426315
0.0200226
0.0200957
0.358344
0.0205175
0.348266
0.0207342
0.4467
0.042902
0.0226289
0.0212143
0.0207772
0.0208391
0.0292884
0.210891
0.337416
0.0349232
0.403706
0.43193
0.0210669
0.022691
0.478447
0.0214523
0.0205538
0.395746
0.310125
0.461623
0.403333
0.418891
0.0264252
0.0209598
0.0209582
0.2797
0.313951
0.427051
0.518813
0.0196731
0.0212466
0.0216129
0.223942
0.421889
0.0206057
0.0226607
0.568799
0.0213727
0.0221548
2.02303
0.470869
0.0619058
0.0217851
0.0207585
0.307497
0.0208183
0.0196489
0.397133
0.0213048
0.0202013
0.427295
0.020144
0.0205212
0.39802
0.857939
0.343312
0.0202254
0.409977
0.0204542
0.453537
0.400119
0.146624
0.0209243
0.424354
0.0237678
0.240367
0.0199939
0.0203209
0.281894
0.121186
0.33621
0.0206227
0.0206676
0.0203579
0.0205827
0.031254
0.0207492
0.249952
0.021984
0.427884
0.020179
0.408675
0.0210786
0.0203777
0.020618
0.420061
0.419491
0.0196279
0.0197942
0.0203999
0.0200277
0.0618471
0.0205222
0.210692
0.023217
0.0356583
0.411322
0.454137
0.870832
0.416947
0.0294346
0.0288546
2.6272
0.16916
0.232257
0.151194
0.409737
0.0205211
0.0303732
0.435916
0.0204818
0.432685
0.377168
0.413787
0.320529
0.0204741
0.425881
0.144301
0.507618
0.0212908
0.0205839
0.180288
0.0523802
0.420951
0.0207406
0.334364
0.0208421
0.408672
0.487786
0.454413
0.0207238
0.0220849
0.442059
0.380156
0.0203869
0.959843
0.116002
0.427941
0.0209825
0.141671
0.0204574
0.435418
0.318448
0.418105
0.18223
0.409703
0.0232312
0.188218
0.0224023
0.0976795
0.0212905
0.10306
0.0212527
0.0205681
0.0272971
2.45829
0.0213114
0.40824
0.423335
0.0498149
0.0981853
0.264795
0.0201436
0.16075
0.0249658
0.419667
0.020635
0.0212746
0.0214102
0.391015
0.0203862
0.391544
0.381239
0.026688
0.0214588
0.0221055
0.0197487
0.0465476
0.451952
0.0199934
0.0710809
0.944806
0.513861
0.334645
0.0205671
0.0205804
0.0205556
0.0233702
0.0211907
0.0205528
0.0289166
0.0224956
0.0212969
0.0197803
0.0205371
0.0224547
0.168229
0.0212618
0.314929
0.0206047
0.0205965
0.0216532
0.0236504
0.0214135
0.0207084
0.0204636
0.0566307
0.364572
0.0205842
0.464771