/*--------------------------------*- C++ -*----------------------------------*\
| =========                 |                                                 |
| \\      /  F ield         | OpenFOAM: The Open Source CFD Toolbox           |
|  \\    /   O peration     | Version:  v2012                                 |
|   \\  /    A nd           | Website:  www.openfoam.com                      |
|    \\/     M anipulation  |                                                 |
\*---------------------------------------------------------------------------*/
FoamFile
{
    version     2.0;
    format      ascii;
    class       volScalarField::Internal;
    location    "200";
    object      V0;
}
// * * * * * * * * * * * * * * * * * * * * * * * * * * * * * * * * * * * * * //

dimensions      [0 3 0 0 0 0 0];


value           nonuniform List<scalar> 
10042
(
0.190988
0.0799026
0.0870344
0.136315
0.171424
0.145099
0.0585203
0.158392
0.188548
0.0524336
0.142
0.0787581
0.0492089
0.15251
0.0844461
0.154009
0.116593
0.131653
0.0657724
0.0996903
0.0484044
0.199814
0.144075
0.132383
0.165093
0.175855
0.0678299
0.195839
0.14329
0.110292
0.153344
0.0346614
0.175881
0.165684
0.156093
0.142099
0.172307
0.154332
0.145408
0.205029
0.141367
0.17646
0.0387051
0.107925
0.138993
0.122645
0.169341
0.103135
0.0509102
0.0442432
0.0403839
0.164675
0.111523
0.0607558
0.0643275
0.0338815
0.0467235
0.167104
0.0838375
0.19261
0.0577318
0.062856
0.0390495
0.149879
0.138207
0.151167
0.0877196
0.142419
0.126583
0.140208
0.0367712
0.105123
0.160819
0.0859973
0.150783
0.0349383
0.116947
0.160587
0.111245
0.0598581
0.0987001
0.126653
0.187005
0.165332
0.0729405
0.0498953
0.0927583
0.0875491
0.139949
0.138829
0.0454094
0.07792
0.0380843
0.0588769
0.133006
0.113293
0.0148283
0.0892934
0.115789
0.0856183
0.0502319
0.0596715
0.0982402
0.0351052
0.0595795
0.0995013
0.0330793
0.159699
0.0547379
0.10176
0.114274
0.0543171
0.0744154
0.148572
0.137915
0.165447
0.109692
0.172705
0.158787
0.171916
0.17087
0.064832
0.0652191
0.137414
0.107639
0.158132
0.119459
0.0621026
0.0239333
0.117388
0.171117
0.128141
0.153906
0.134305
0.0466454
0.0427297
0.0899754
0.0339891
0.0749964
0.123858
0.0429998
0.166625
0.0394078
0.198233
0.0615619
0.145297
0.0716458
0.164414
0.0929052
0.0847175
0.143445
0.164462
0.0636461
0.035676
0.134681
0.0604482
0.0280186
0.0325997
0.146134
0.130728
0.165947
0.185489
0.0427402
0.14091
0.0790469
0.116017
0.188947
0.0423519
0.168779
0.135454
0.138388
0.105793
0.0813641
0.160259
0.0578491
0.0754437
0.114036
0.172887
0.143535
0.116733
0.0788401
0.0501908
0.0801096
0.173325
0.180198
0.042324
0.0955346
0.141105
0.0355586
0.154653
0.0695259
0.0477898
0.164703
0.0578584
0.0620164
0.072027
0.0206102
0.145218
0.0180593
0.141941
0.0235605
0.0411298
0.0937595
0.128493
0.117518
0.135672
0.132303
0.0439829
0.113433
0.0980943
0.0371646
0.13316
0.0927394
0.0991704
0.176302
0.147061
0.153022
0.0994061
0.146937
0.0280824
0.0220833
0.137598
0.0271899
0.132847
0.111545
0.0362122
0.101203
0.0848127
0.0770472
0.0715301
0.167736
0.120492
0.0426856
0.131885
0.110154
0.182533
0.0903399
0.0207457
0.0605061
0.13674
0.0967148
0.13333
0.17752
0.162624
0.06647
0.171137
0.139163
0.0778989
0.0491728
0.144826
0.0648705
0.158347
0.105179
0.0526385
0.111427
0.0954975
0.128694
0.101892
0.0102111
0.150232
0.13121
0.151866
0.151962
0.173783
0.0407018
0.0696166
0.137031
0.10249
0.154651
0.10856
0.100884
0.0421817
0.145234
0.0348542
0.106379
0.161613
0.0669071
0.130119
0.147399
0.0571195
0.140213
0.143291
0.0187627
0.0744322
0.17515
0.0227972
0.108517
0.154699
0.164726
0.136344
0.04728
0.111516
0.173801
0.132733
0.129382
0.120451
0.0694068
0.100998
0.0957085
0.151933
0.0685027
0.0927902
0.127243
0.0911586
0.0930532
0.0480611
0.156529
0.164343
0.0660117
0.123255
0.142022
0.130353
0.130916
0.112053
0.109688
0.164884
0.113911
0.143148
0.137662
0.16049
0.147879
0.0354588
0.155395
0.128213
0.177384
0.168823
0.135681
0.128551
0.091936
0.0460304
0.135424
0.110986
0.161065
0.157268
0.135259
0.163455
0.0331747
0.126848
0.155268
0.118375
0.0415691
0.0480909
0.172183
0.144225
0.162678
0.172159
0.144309
0.156759
0.125468
0.017091
0.0720614
0.135198
0.120697
0.144998
0.070821
0.140105
0.101964
0.16983
0.0261265
0.16695
0.106097
0.158571
0.0765665
0.141234
0.107128
0.0730875
0.144549
0.127847
0.125553
0.0603878
0.14512
0.162441
0.14022
0.164122
0.0545591
0.130731
0.155944
0.0950036
0.0651116
0.0462888
0.113704
0.0921627
0.078048
0.138197
0.0285278
0.165428
0.154817
0.16552
0.10533
0.148209
0.111593
0.026587
0.0730197
0.143195
0.106161
0.0525905
0.136218
0.153911
0.1298
0.0266198
0.144732
0.0235452
0.148567
0.0707123
0.0238663
0.135197
0.0398722
0.147825
0.100193
0.112918
0.109256
0.0542293
0.134565
0.0766039
0.149989
0.101121
0.0740804
0.0609642
0.143853
0.0909622
0.152493
0.0952063
0.163353
0.166362
0.0360656
0.101218
0.0852576
0.108472
0.126824
0.0470577
0.100179
0.139922
0.0536007
0.099032
0.137476
0.0751378
0.0416397
0.152567
0.156917
0.0326316
0.163544
0.114472
0.0894047
0.0319226
0.0380427
0.173403
0.141414
0.0403179
0.147985
0.169461
0.153891
0.0658672
0.0724803
0.0336945
0.109501
0.140255
0.140219
0.0261964
0.164988
0.137085
0.147966
0.119609
0.158968
0.158868
0.0984868
0.169407
0.159964
0.0648251
0.0911397
0.138272
0.0409904
0.135005
0.0267657
0.0402342
0.123483
0.126561
0.0405808
0.12956
0.0515612
0.10025
0.137461
0.0779809
0.122637
0.140738
0.0571719
0.121765
0.152536
0.120578
0.159428
0.137101
0.139361
0.0800522
0.145992
0.147186
0.0935907
0.0402291
0.135984
0.148051
0.115311
0.0466981
0.104439
0.15698
0.141402
0.0840835
0.0524727
0.111785
0.158374
0.140202
0.071793
0.0694731
0.0774181
0.136715
0.145668
0.132975
0.0948035
0.122029
0.12
0.0990361
0.123429
0.102475
0.129759
0.0718982
0.100126
0.0776414
0.0752137
0.106204
0.139505
0.0775516
0.106525
0.136327
0.11482
0.0376935
0.10953
0.141513
0.0933609
0.0842733
0.111189
0.0716183
0.153905
0.0661392
0.122618
0.0773692
0.137658
0.0225818
0.122588
0.0436519
0.153607
0.132197
0.108952
0.173166
0.0922551
0.0501856
0.148491
0.134026
0.0269572
0.102324
0.137832
0.1648
0.13839
0.160944
0.161029
0.158431
0.095514
0.0870274
0.118535
0.173275
0.0434641
0.057731
0.145992
0.145116
0.133625
0.0474077
0.138198
0.137744
0.137109
0.0947777
0.0441788
0.140407
0.144938
0.141194
0.11584
0.106135
0.163019
0.0209124
0.0836226
0.0649814
0.133195
0.145369
0.119819
0.0761575
0.104225
0.14458
0.129959
0.162996
0.136542
0.133035
0.0629266
0.116036
0.183285
0.152139
0.159961
0.140344
0.0223696
0.131869
0.137209
0.118813
0.0654315
0.125931
0.113675
0.152267
0.0709947
0.127884
0.0988913
0.166583
0.0970175
0.0745534
0.103112
0.139464
0.129366
0.0158922
0.0816663
0.109517
0.109714
0.0463677
0.126912
0.0795924
0.123032
0.14667
0.091479
0.124535
0.167339
0.13151
0.0898046
0.108644
0.0977471
0.0886487
0.137733
0.0278365
0.081404
0.135148
0.136766
0.108244
0.133015
0.144569
0.162977
0.0978526
0.0654418
0.168484
0.0267709
0.121787
0.0796123
0.150522
0.0762855
0.134773
0.125672
0.137444
0.106046
0.0893409
0.0632784
0.101014
0.167937
0.133821
0.135243
0.1379
0.11953
0.0694865
0.0834414
0.105678
0.129466
0.134996
0.13675
0.0814084
0.129696
0.155155
0.154588
0.132036
0.0320816
0.146586
0.104072
0.138518
0.0181572
0.0390245
0.135526
0.0660659
0.138969
0.0487375
0.134962
0.141719
0.160243
0.103609
0.141061
0.144579
0.0454169
0.113756
0.165035
0.139244
0.126751
0.0270168
0.0157035
0.159459
0.132863
0.157865
0.156369
0.152576
0.0940773
0.12382
0.0346911
0.129448
0.133582
0.125754
0.0989301
0.108429
0.139196
0.0945427
0.0762178
0.141038
0.0615802
0.117146
0.128304
0.0874998
0.139957
0.12642
0.0274406
0.131307
0.129217
0.151387
0.132019
0.136513
0.0995603
0.109603
0.126973
0.0619483
0.124914
0.145176
0.057461
0.132683
0.0464501
0.141274
0.158501
0.110553
0.0306896
0.161133
0.0938022
0.13931
0.103318
0.13988
0.0928674
0.0985465
0.108203
0.068286
0.156306
0.131381
0.0500263
0.155621
0.148972
0.11266
0.0866708
0.161722
0.121301
0.0762592
0.106109
0.0866576
0.138351
0.0326122
0.0696031
0.142739
0.133389
0.158587
0.134194
0.125878
0.0775112
0.141771
0.0526239
0.0804021
0.0895494
0.043451
0.0903024
0.128423
0.0701636
0.143371
0.0751146
0.062667
0.175992
0.0752428
0.132289
0.0795541
0.131322
0.163411
0.0639723
0.0515641
0.163238
0.0916832
0.164819
0.15651
0.127331
0.135048
0.166102
0.141101
0.130271
0.100207
0.152295
0.166962
0.107403
0.150927
0.0927483
0.15308
0.134352
0.159603
0.109448
0.131457
0.0524393
0.129763
0.0656994
0.0399899
0.026303
0.126593
0.0974533
0.0410247
0.1138
0.153513
0.136632
0.151756
0.128179
0.0784558
0.0810499
0.0254201
0.0931707
0.138344
0.137884
0.123668
0.0889041
0.0933809
0.101777
0.063595
0.0612206
0.0222052
0.101118
0.130407
0.102232
0.147676
0.165139
0.0943489
0.135664
0.119126
0.132163
0.0664152
0.117815
0.16022
0.0470195
0.100253
0.0503649
0.123077
0.132787
0.131091
0.0735048
0.106061
0.135103
0.11993
0.0396795
0.13665
0.0414993
0.0957859
0.0866847
0.111701
0.0823875
0.139019
0.0304392
0.156351
0.147401
0.117927
0.151233
0.136304
0.13027
0.0945169
0.0802144
0.131083
0.0890275
0.142141
0.15029
0.136177
0.149703
0.120952
0.0906413
0.146385
0.0661585
0.0659169
0.0726217
0.0511428
0.0808022
0.132998
0.137765
0.0164798
0.015118
0.131459
0.0677736
0.0282297
0.0421646
0.0410021
0.121531
0.110736
0.138683
0.107765
0.152109
0.130618
0.0457673
0.15183
0.0362628
0.120867
0.127899
0.183524
0.15782
0.119031
0.0797032
0.109454
0.119451
0.126497
0.0446486
0.121079
0.119243
0.158866
0.0292204
0.0695305
0.129148
0.149185
0.127499
0.0892479
0.128165
0.0794659
0.101638
0.122191
0.123822
0.0687846
0.0857854
0.0380594
0.0698778
0.0286392
0.0347882
0.12998
0.0336037
0.108476
0.106773
0.0900908
0.0923724
0.102176
0.0460055
0.0263535
0.128239
0.0882945
0.081102
0.135632
0.147307
0.0325696
0.133036
0.127997
0.0183362
0.14321
0.122377
0.0700192
0.0472494
0.137273
0.168699
0.103091
0.0893995
0.0590992
0.154586
0.0561615
0.130288
0.1218
0.160226
0.0462352
0.0821886
0.135268
0.126337
0.1077
0.135107
0.11931
0.0625451
0.110799
0.0942251
0.106004
0.0824082
0.151895
0.0650462
0.08355
0.0919769
0.0484031
0.113268
0.104157
0.119754
0.150456
0.13644
0.0784209
0.127295
0.122658
0.142786
0.0958045
0.152791
0.0569718
0.134969
0.0993504
0.0406402
0.0922967
0.155124
0.0755907
0.045445
0.1511
0.135996
0.14356
0.0324812
0.129835
0.143207
0.132419
0.129061
0.0648394
0.13101
0.146635
0.126382
0.0829175
0.126796
0.147839
0.0428321
0.142608
0.106012
0.0673843
0.13768
0.0998851
0.149092
0.0636868
0.120859
0.0871071
0.119864
0.0703612
0.10837
0.0255524
0.0683058
0.13149
0.109709
0.129923
0.160675
0.0880446
0.0778843
0.1467
0.13013
0.150187
0.0823263
0.126554
0.0550166
0.131928
0.172164
0.0380428
0.0930503
0.145677
0.0855796
0.0233339
0.150186
0.120114
0.140918
0.118499
0.0464703
0.129567
0.0712662
0.130653
0.154254
0.128635
0.12744
0.142046
0.0394235
0.0265005
0.140529
0.144704
0.113392
0.125139
0.134279
0.103018
0.13504
0.143926
0.131205
0.0853414
0.130753
0.0744893
0.156521
0.151255
0.124883
0.107685
0.153371
0.131938
0.142117
0.152685
0.0662216
0.0566899
0.0267849
0.0619833
0.0858349
0.137984
0.0257496
0.0690235
0.115069
0.0475717
0.118193
0.0710612
0.142884
0.143495
0.141724
0.129168
0.126706
0.121242
0.150347
0.0826748
0.0373416
0.149325
0.151432
0.121199
0.150937
0.152504
0.163613
0.159032
0.151188
0.127669
0.147115
0.12113
0.147252
0.152422
0.0867406
0.0513665
0.114919
0.142582
0.0877229
0.108657
0.0649288
0.100259
0.0947556
0.141895
0.093298
0.0347028
0.0396753
0.0987679
0.165667
0.15302
0.130976
0.123814
0.153377
0.132918
0.131471
0.147452
0.109353
0.0292059
0.145701
0.124597
0.0245355
0.0404954
0.14863
0.144932
0.125441
0.152732
0.0419315
0.12472
0.116282
0.0657495
0.137001
0.130322
0.145289
0.0406522
0.08528
0.0762675
0.0652494
0.132514
0.0457982
0.103018
0.137814
0.118188
0.13373
0.0735311
0.147469
0.0841931
0.110661
0.0537205
0.129622
0.0622684
0.134963
0.0760225
0.0904345
0.102304
0.0957773
0.141493
0.0366776
0.144516
0.139313
0.116753
0.150688
0.117683
0.0625541
0.131966
0.130746
0.1817
0.0343602
0.134361
0.128451
0.136724
0.139205
0.0548722
0.160973
0.138298
0.129909
0.132586
0.128443
0.0849548
0.0447192
0.145662
0.0929509
0.0982921
0.146777
0.10094
0.0286968
0.148319
0.0981628
0.0331566
0.147761
0.136952
0.140611
0.164364
0.0950401
0.132902
0.0822322
0.131104
0.128508
0.16187
0.153184
0.0987237
0.0734074
0.148736
0.040186
0.151739
0.132635
0.165643
0.124092
0.129177
0.0681547
0.149694
0.0511157
0.144754
0.0870241
0.153168
0.0408153
0.150088
0.133785
0.034276
0.15676
0.130784
0.0293508
0.0627658
0.108204
0.0464702
0.0746072
0.128761
0.0577734
0.137936
0.154258
0.131639
0.0348033
0.127021
0.107693
0.0522862
0.132716
0.11089
0.150386
0.0915967
0.136446
0.132929
0.0764984
0.117494
0.0273869
0.133743
0.154703
0.133819
0.0243766
0.0829059
0.0715236
0.128385
0.138415
0.0478387
0.072654
0.132545
0.0378786
0.144103
0.125002
0.152576
0.0176817
0.13771
0.0797862
0.130025
0.142316
0.160067
0.141641
0.134098
0.119439
0.150835
0.133783
0.0901095
0.088733
0.122421
0.151198
0.0487608
0.0586577
0.138905
0.137954
0.140583
0.0241562
0.0431604
0.0867433
0.138609
0.157694
0.0745435
0.0468137
0.159768
0.131756
0.056953
0.132596
0.151312
0.134247
0.124208
0.0571729
0.143428
0.0775722
0.108831
0.135032
0.132818
0.0981842
0.146213
0.060123
0.0141074
0.152281
0.134851
0.131901
0.0259007
0.135975
0.0485526
0.156848
0.144539
0.111782
0.130978
0.0656258
0.112448
0.124065
0.150521
0.0270846
0.110796
0.0476796
0.149448
0.0539769
0.0603826
0.153573
0.0438703
0.146429
0.0461162
0.0501687
0.143924
0.139337
0.0917009
0.0612514
0.046553
0.0268911
0.154926
0.151132
0.112435
0.0465414
0.134032
0.0386425
0.0399879
0.147738
0.125154
0.155245
0.0901714
0.084665
0.145029
0.122135
0.143451
0.0270387
0.138454
0.0766089
0.134679
0.0856753
0.0607354
0.0845834
0.137632
0.0670158
0.0555585
0.106232
0.131106
0.131358
0.0254148
0.148191
0.0284723
0.0389305
0.0408859
0.107543
0.0402539
0.0763276
0.131772
0.123643
0.120606
0.0493161
0.0657438
0.0565389
0.132409
0.017655
0.0579638
0.141191
0.129197
0.0267042
0.151812
0.131059
0.0284828
0.0200358
0.0326534
0.149312
0.0367075
0.149375
0.104704
0.135398
0.0698877
0.161969
0.0891781
0.0463333
0.0242043
0.0504316
0.11322
0.150821
0.0903633
0.106445
0.151955
0.0905636
0.0194758
0.140352
0.153318
0.058862
0.0999612
0.038058
0.0987948
0.145033
0.130711
0.0793489
0.153212
0.131335
0.0502265
0.140047
0.110809
0.125655
0.144669
0.14792
0.0186244
0.136596
0.149506
0.122137
0.156485
0.147714
0.0665267
0.146864
0.027094
0.0290757
0.0958437
0.149623
0.147343
0.130085
0.152288
0.0373196
0.0418095
0.0188903
0.133306
0.141866
0.0351755
0.0668012
0.0951767
0.0477355
0.0901378
0.126388
0.0957807
0.154271
0.170568
0.147091
0.130288
0.0792942
0.0343341
0.0643668
0.152797
0.039627
0.0383528
0.153518
0.130732
0.150797
0.0740895
0.130144
0.133664
0.0638711
0.13158
0.028272
0.12975
0.134547
0.0470487
0.0731343
0.0406246
0.0824858
0.142149
0.149363
0.0275155
0.104222
0.133295
0.0472411
0.135619
0.0307801
0.132369
0.136376
0.157159
0.0517906
0.0823303
0.0533068
0.150367
0.137156
0.0582458
0.0639949
0.160395
0.0824368
0.0413916
0.139692
0.0717344
0.124167
0.156953
0.058312
0.149266
0.0603213
0.0410932
0.119209
0.135022
0.161388
0.0545206
0.0371878
0.0520751
0.0658778
0.0689729
0.079973
0.0682832
0.0613065
0.0479477
0.0813722
0.114823
0.150111
0.149458
0.0702588
0.0663717
0.0986741
0.0383021
0.135883
0.0275796
0.0415998
0.150281
0.158744
0.145181
0.157769
0.151651
0.0411184
0.0862158
0.0435771
0.0364899
0.115088
0.0649355
0.0853051
0.0683169
0.134296
0.133433
0.0771043
0.132802
0.109962
0.111138
0.0619141
0.15051
0.102422
0.137448
0.138011
0.0638413
0.149061
0.130172
0.169372
0.0388396
0.0921392
0.0327689
0.0654497
0.0872492
0.0411443
0.115165
0.0321561
0.125723
0.105254
0.0770889
0.0331479
0.150493
0.160586
0.0350354
0.05258
0.125176
0.0717243
0.141725
0.0189668
0.0902492
0.102628
0.136103
0.0268638
0.0257109
0.120819
0.0693604
0.066223
0.140915
0.0580504
0.0839463
0.133122
0.113703
0.0336937
0.143361
0.0829453
0.132551
0.066544
0.0612589
0.0966634
0.0430044
0.0633414
0.125839
0.067553
0.0354478
0.0279564
0.118825
0.0671153
0.0742289
0.0617246
0.0295757
0.0284049
0.0555558
0.0699562
0.148405
0.0570435
0.0533428
0.0306961
0.135154
0.0628122
0.13402
0.059693
0.153382
0.0470714
0.131254
0.151235
0.0797576
0.0285449
0.0506197
0.0434778
0.177001
0.068993
0.131743
0.12419
0.152715
0.103168
0.0182996
0.12617
0.0588499
0.102008
0.144321
0.141948
0.117986
0.149237
0.135913
0.152336
0.0912147
0.130248
0.0319427
0.103445
0.0395564
0.0643812
0.0754088
0.0491901
0.0655509
0.0591656
0.108588
0.0823576
0.086284
0.137156
0.141364
0.0667401
0.133054
0.146981
0.150175
0.0750275
0.0919735
0.070703
0.150131
0.0304154
0.149732
0.128679
0.0819255
0.140277
0.0688035
0.151407
0.0516689
0.0938534
0.074334
0.0358936
0.135152
0.134829
0.142736
0.0249261
0.151096
0.135135
0.0697697
0.0827603
0.0427298
0.12313
0.102265
0.0922871
0.136327
0.121308
0.139075
0.0785707
0.12683
0.0368555
0.0807331
0.137057
0.105763
0.0382209
0.137124
0.1382
0.0432541
0.0906033
0.0781434
0.148097
0.0830976
0.143126
0.142463
0.0973127
0.152014
0.117292
0.0863495
0.0712779
0.0943509
0.0282149
0.0699571
0.117174
0.0521125
0.111072
0.0481524
0.145338
0.151879
0.0605364
0.134925
0.118222
0.121595
0.04148
0.018228
0.143562
0.0439741
0.149208
0.102142
0.12863
0.139615
0.0497587
0.0876782
0.130383
0.131025
0.166601
0.0481113
0.0603776
0.0756023
0.136483
0.133396
0.0807568
0.135819
0.04887
0.0852653
0.124959
0.139637
0.03688
0.125043
0.0361618
0.0918971
0.0277432
0.0683025
0.0289293
0.144329
0.136328
0.0640258
0.0484918
0.151294
0.137893
0.157233
0.148869
0.143494
0.131658
0.0880345
0.0524463
0.028827
0.138241
0.0266607
0.0365254
0.0533538
0.0614455
0.152733
0.138711
0.170518
0.075484
0.0994329
0.0476485
0.0999149
0.0753236
0.0411179
0.116303
0.151533
0.122834
0.125045
0.0485299
0.139869
0.0285836
0.0928617
0.0630607
0.132346
0.171548
0.154157
0.0318594
0.133396
0.0285333
0.0654446
0.150565
0.0705481
0.0652386
0.11334
0.135882
0.133699
0.132228
0.0896205
0.0816666
0.0700345
0.104584
0.0732569
0.0279288
0.0523995
0.0614804
0.155472
0.0655796
0.0720067
0.133722
0.139054
0.0853518
0.0652506
0.0383071
0.131798
0.0418256
0.110356
0.138174
0.149498
0.0703187
0.0846341
0.119502
0.0865038
0.0548765
0.141856
0.0730757
0.131522
0.0437552
0.0990435
0.101263
0.0917296
0.0906301
0.136531
0.0965488
0.149927
0.138342
0.0498106
0.0800102
0.0273293
0.1458
0.134132
0.152985
0.112745
0.141935
0.0758558
0.0903241
0.0647115
0.0401772
0.131766
0.0570813
0.15142
0.0778161
0.100487
0.126211
0.13686
0.152172
0.0974231
0.0722751
0.0821023
0.150345
0.142802
0.0932613
0.101768
0.0588549
0.0891268
0.0861531
0.130613
0.135261
0.0423736
0.124787
0.129739
0.115534
0.101149
0.0666623
0.112738
0.0486633
0.0488767
0.0730304
0.147395
0.0481927
0.0389303
0.130638
0.125013
0.0881722
0.0634416
0.0684875
0.102632
0.132999
0.151699
0.0941243
0.0945491
0.0577684
0.127522
0.116327
0.0930196
0.0457147
0.0627333
0.111722
0.142744
0.0851508
0.0477263
0.130072
0.127956
0.114242
0.0619695
0.0474604
0.138052
0.0756893
0.123639
0.0461387
0.0961352
0.141238
0.0182901
0.0673259
0.0275655
0.041438
0.131445
0.133911
0.0959024
0.134257
0.0957287
0.0486003
0.115979
0.0899876
0.0722277
0.105503
0.0635875
0.0912732
0.075042
0.14144
0.126653
0.0833183
0.124049
0.116797
0.147788
0.161833
0.157134
0.13674
0.153514
0.110642
0.0982372
0.121055
0.152682
0.0233276
0.142567
0.137507
0.100439
0.136043
0.06651
0.133936
0.154691
0.15295
0.151159
0.110761
0.12064
0.0662842
0.0384483
0.157776
0.062974
0.11766
0.0801238
0.0778535
0.100943
0.0880315
0.0684918
0.0913466
0.0838383
0.062329
0.065035
0.0632997
0.1632
0.13932
0.0725889
0.0846392
0.0606776
0.0522566
0.0683944
0.100508
0.0892558
0.12481
0.0261663
0.142816
0.0820435
0.148418
0.0673016
0.122286
0.147171
0.132505
0.0670747
0.0573172
0.075774
0.15722
0.0633791
0.149492
0.151892
0.104007
0.0925913
0.0669781
0.0694325
0.142841
0.129769
0.112265
0.0709317
0.126066
0.028575
0.0826756
0.148554
0.0727872
0.154688
0.0365689
0.0835403
0.105414
0.134387
0.0933353
0.0629223
0.151753
0.114901
0.0411673
0.149848
0.132119
0.0866389
0.0709284
0.0350847
0.130253
0.0281181
0.0719852
0.091995
0.134654
0.0999545
0.0402934
0.102642
0.107586
0.141916
0.0897049
0.0783213
0.125414
0.134116
0.1183
0.146979
0.152784
0.117248
0.075047
0.06358
0.127027
0.0379015
0.0789123
0.120354
0.0736087
0.0282045
0.0782769
0.085723
0.120814
0.089866
0.084335
0.137922
0.116117
0.0846793
0.129811
0.137661
0.102997
0.152563
0.131578
0.0969476
0.050186
0.0892388
0.0300127
0.119221
0.0289908
0.14505
0.102173
0.0814156
0.15134
0.153193
0.0943984
0.10783
0.0665324
0.0833073
0.0978067
0.145119
0.152162
0.0818614
0.073106
0.103913
0.145084
0.13089
0.0516362
0.0666786
0.144961
0.0936852
0.11484
0.100672
0.0779792
0.1151
0.139987
0.120027
0.0680032
0.0601432
0.113756
0.13077
0.131225
0.103488
0.151222
0.127496
0.142789
0.100561
0.0970782
0.134235
0.152964
0.135415
0.152984
0.0996953
0.157678
0.0654949
0.141835
0.127708
0.0928407
0.0952999
0.097993
0.0310346
0.0230836
0.0599414
0.131929
0.143791
0.065681
0.129734
0.0647915
0.105673
0.141781
0.0907621
0.102429
0.117508
0.0956463
0.131725
0.10164
0.112342
0.107107
0.155286
0.0619755
0.102995
0.101252
0.149236
0.0966362
0.0672954
0.115447
0.0309111
0.0346256
0.145675
0.137023
0.133426
0.133328
0.140978
0.145229
0.148135
0.0863733
0.106682
0.140991
0.0272979
0.146663
0.102165
0.0663722
0.121778
0.104077
0.0891495
0.0797676
0.151145
0.0539547
0.0702927
0.108464
0.0798211
0.0971147
0.10379
0.126067
0.11643
0.141441
0.145092
0.0902924
0.0728434
0.0586534
0.151307
0.0754938
0.147892
0.107781
0.0860787
0.122189
0.0976776
0.13851
0.143787
0.142879
0.11117
0.0597216
0.150197
0.139533
0.131683
0.114415
0.0938505
0.0893908
0.0605239
0.115225
0.0761258
0.0956953
0.0887992
0.150361
0.150935
0.136197
0.143762
0.0186192
0.0663121
0.0850544
0.0520549
0.131224
0.0864631
0.0896021
0.148226
0.0918886
0.136637
0.0971184
0.133369
0.0261653
0.104699
0.091884
0.0853106
0.150965
0.112168
0.0410537
0.143622
0.0393291
0.0683185
0.0701423
0.0971323
0.0274528
0.133104
0.0934002
0.146299
0.0900131
0.0672029
0.145564
0.130352
0.131818
0.0710413
0.0914594
0.0964313
0.145267
0.0798299
0.126532
0.108011
0.0927595
0.0377397
0.124422
0.1524
0.154046
0.132358
0.0285789
0.0839141
0.142944
0.117263
0.132625
0.133826
0.146445
0.112723
0.130118
0.0450479
0.130327
0.093413
0.138948
0.074058
0.0977403
0.103715
0.119221
0.112351
0.12897
0.140532
0.0815999
0.131745
0.0969085
0.147099
0.0957961
0.0984903
0.0989328
0.150466
0.128661
0.17445
0.0380106
0.151947
0.152577
0.070493
0.0694033
0.0914491
0.143339
0.126258
0.133362
0.106947
0.0943897
0.119148
0.0629252
0.0234352
0.151257
0.0975341
0.095012
0.107152
0.121253
0.140182
0.0654044
0.0578204
0.036814
0.0212079
0.0608839
0.136176
0.0903672
0.11884
0.0966515
0.130651
0.142514
0.0639195
0.1333
0.0348481
0.0690798
0.154187
0.100509
0.0861356
0.0879464
0.133658
0.137346
0.104839
0.113839
0.118735
0.141263
0.0999043
0.0902885
0.152027
0.0792194
0.0685897
0.0939205
0.125823
0.10389
0.09347
0.140357
0.137612
0.127666
0.0566892
0.132322
0.106392
0.134543
0.152189
0.125371
0.148537
0.144096
0.0629218
0.124369
0.10994
0.0565014
0.132405
0.126836
0.0981381
0.0610173
0.151308
0.13944
0.136942
0.0735987
0.0184646
0.121821
0.0656752
0.143108
0.146118
0.153957
0.102589
0.127158
0.128732
0.153053
0.0682909
0.143133
0.0861526
0.143917
0.126536
0.141002
0.0921841
0.110678
0.122912
0.132147
0.114792
0.145768
0.110992
0.128038
0.139799
0.129071
0.143617
0.133486
0.134354
0.150578
0.154292
0.148842
0.126884
0.151508
0.104954
0.14508
0.0970085
0.103527
0.0595928
0.132176
0.105647
0.142311
0.149622
0.151571
0.11162
0.13732
0.150516
0.139307
0.0655173
0.126791
0.070309
0.0304312
0.152696
0.0290149
0.103033
0.0410913
0.140858
0.0885488
0.150626
0.125763
0.130435
0.0859633
0.0906623
0.120848
0.0956867
0.130795
0.138616
0.152108
0.0371307
0.131309
0.0448213
0.10019
0.0191421
0.10077
0.133515
0.0661292
0.0494728
0.149245
0.107723
0.112104
0.0884728
0.0361456
0.101476
0.133435
0.0827068
0.0737009
0.0940522
0.141327
0.143532
0.0729775
0.0668359
0.0305159
0.0893996
0.102513
0.136717
0.0998401
0.119985
0.130706
0.0677413
0.131959
0.125222
0.139038
0.128606
0.136142
0.131921
0.102686
0.114373
0.103245
0.110622
0.0918765
0.130021
0.0874994
0.172871
0.140698
0.0872609
0.155112
0.084228
0.14208
0.138077
0.0726142
0.104296
0.113014
0.133273
0.128252
0.0678746
0.103121
0.0408226
0.1036
0.13945
0.133871
0.115482
0.0686118
0.107801
0.13281
0.093287
0.124384
0.168082
0.136315
0.0854885
0.13785
0.140563
0.135618
0.100922
0.135181
0.133804
0.0518322
0.102805
0.0994478
0.0936223
0.130312
0.113235
0.136042
0.14067
0.139627
0.111717
0.132013
0.0653617
0.144712
0.13469
0.0783771
0.0985273
0.134132
0.0976845
0.083489
0.100782
0.132156
0.152745
0.132819
0.102345
0.135578
0.151775
0.0688219
0.12517
0.145938
0.0922147
0.132544
0.066463
0.127967
0.105245
0.153577
0.0863639
0.14934
0.142564
0.13618
0.0921132
0.149787
0.0314176
0.15185
0.112906
0.115213
0.142765
0.125388
0.0948351
0.0885872
0.130565
0.12193
0.112107
0.0828895
0.137508
0.132175
0.136765
0.114708
0.124644
0.132708
0.127104
0.156767
0.14471
0.091566
0.118407
0.135885
0.107591
0.11793
0.154372
0.0978966
0.128592
0.093533
0.128301
0.110793
0.145673
0.144798
0.041346
0.145294
0.111284
0.129134
0.111949
0.135832
0.0781948
0.136743
0.14421
0.0950515
0.129148
0.140622
0.118484
0.0719205
0.141522
0.13957
0.129333
0.139626
0.11344
0.115209
0.132683
0.141767
0.138002
0.143931
0.0645867
0.0738205
0.114213
0.138131
0.15042
0.135309
0.131589
0.146417
0.0980854
0.0935351
0.112766
0.11764
0.130299
0.0684061
0.143585
0.143162
0.099328
0.107737
0.132844
0.110445
0.121344
0.114078
0.142791
0.131321
0.109681
0.149478
0.15236
0.123617
0.108471
0.115883
0.144759
0.122701
0.120959
0.124636
0.122503
0.151815
0.11129
0.151764
0.149273
0.124939
0.141744
0.135406
0.078884
0.131589
0.135152
0.0974104
0.147473
0.0900528
0.144196
0.13019
0.137768
0.149978
0.0911821
0.127571
0.101244
0.0532133
0.180042
0.141772
0.145411
0.0797057
0.121316
0.152168
0.0678127
0.116998
0.119021
0.11953
0.103532
0.142833
0.154642
0.140089
0.113313
0.107811
0.147577
0.142549
0.112583
0.149737
0.12298
0.140442
0.122214
0.137907
0.0650049
0.135725
0.124514
0.151153
0.130055
0.1455
0.131639
0.137029
0.124972
0.138921
0.042103
0.109629
0.141975
0.134398
0.150858
0.116525
0.0969364
0.160121
0.116959
0.103301
0.14147
0.089688
0.132255
0.142079
0.121326
0.145932
0.145295
0.137891
0.110622
0.125699
0.12018
0.163285
0.135598
0.133099
0.131601
0.132647
0.0777008
0.146358
0.148923
0.116118
0.140134
0.143715
0.134473
0.123979
0.13617
0.0918432
0.139688
0.142677
0.104056
0.121147
0.133668
0.151713
0.0191986
0.10607
0.141681
0.141143
0.132788
0.130176
0.136242
0.115511
0.134107
0.0981681
0.132706
0.136916
0.131291
0.142409
0.133796
0.0825696
0.150702
0.139935
0.13306
0.138996
0.103688
0.142565
0.153134
0.0499752
0.150607
0.134259
0.128305
0.13724
0.140821
0.0903019
0.124716
0.116824
0.146526
0.145357
0.0980963
0.144246
0.124109
0.142934
0.131177
0.110298
0.153531
0.134611
0.137423
0.138465
0.141064
0.134558
0.122729
0.149268
0.126258
0.0678272
0.153096
0.140435
0.112517
0.133152
0.12223
0.1506
0.132956
0.13527
0.151147
0.145563
0.111509
0.123308
0.129862
0.129886
0.127048
0.125457
0.11802
0.144906
0.133196
0.153304
0.142976
0.117297
0.142877
0.138739
0.126959
0.149389
0.130469
0.131907
0.120686
0.132872
0.125583
0.136074
0.134696
0.112192
0.152289
0.151287
0.128422
0.147639
0.116593
0.131597
0.132947
0.139162
0.153358
0.122517
0.137983
0.132786
0.130575
0.0542784
0.135224
0.140408
0.163033
0.131003
0.138106
0.100764
0.111692
0.0884705
0.140927
0.133634
0.134759
0.111832
0.130369
0.129654
0.099282
0.134923
0.146327
0.130205
0.133238
0.130016
0.120368
0.151484
0.116629
0.12602
0.132504
0.147306
0.144474
0.0891053
0.121837
0.116018
0.125226
0.0383357
0.128185
0.150085
0.0955816
0.139804
0.131672
0.147024
0.152661
0.133461
0.116761
0.153504
0.130755
0.150325
0.146089
0.133515
0.0936741
0.111079
0.16116
0.129162
0.143598
0.132377
0.131808
0.136454
0.137306
0.12994
0.110438
0.0388868
0.151412
0.143988
0.135046
0.0552868
0.13964
0.137144
0.136285
0.141797
0.137603
0.0923121
0.124182
0.132151
0.110667
0.130289
0.145183
0.13085
0.127229
0.140588
0.147717
0.130858
0.131992
0.153816
0.153068
0.143909
0.152986
0.134817
0.146356
0.13191
0.142754
0.0364113
0.131424
0.131843
0.0848044
0.130889
0.0891021
0.0669344
0.0184712
0.0864919
0.11382
0.134555
0.129736
0.139996
0.127945
0.128505
0.136496
0.110645
0.1102
0.0912846
0.145867
0.142113
0.129016
0.120402
0.130938
0.107755
0.137496
0.0702567
0.0924639
0.13096
0.137964
0.137934
0.129124
0.131673
0.111146
0.13199
0.139633
0.0709906
0.128971
0.132552
0.146412
0.0868437
0.0420298
0.128824
0.124963
0.0524869
0.143017
0.10965
0.14277
0.129926
0.117513
0.131066
0.119857
0.11443
0.0869494
0.136347
0.104965
0.14122
0.10662
0.139041
0.127255
0.0189152
0.107546
0.131462
0.129116
0.141926
0.0918162
0.132936
0.13921
0.148693
0.111503
0.126683
0.137008
0.106813
0.0930831
0.131488
0.14621
0.131491
0.132324
0.135607
0.156087
0.143841
0.153474
0.14294
0.124635
0.152142
0.119051
0.0879806
0.0948627
0.125231
0.139934
0.140104
0.143567
0.118565
0.113316
0.138468
0.150304
0.146914
0.105245
0.153652
0.138784
0.137917
0.0291593
0.106826
0.145899
0.142967
0.146425
0.149574
0.125467
0.0935043
0.139163
0.143566
0.0948074
0.132931
0.138863
0.126129
0.128642
0.0976304
0.114379
0.070976
0.132204
0.132896
0.141596
0.0419778
0.124469
0.130452
0.097098
0.150994
0.15131
0.141046
0.141748
0.102646
0.146438
0.151796
0.141054
0.126332
0.144482
0.114895
0.130164
0.129781
0.144848
0.137249
0.137755
0.0696386
0.151409
0.123619
0.134481
0.147509
0.134389
0.144014
0.146974
0.14124
0.101826
0.142753
0.0750837
0.145837
0.134376
0.153634
0.151834
0.10362
0.115707
0.153277
0.131605
0.126391
0.125768
0.139269
0.141353
0.113129
0.144862
0.113769
0.0655079
0.133892
0.135549
0.135185
0.139704
0.117499
0.129417
0.129413
0.14582
0.13574
0.10803
0.13191
0.139218
0.0960051
0.0910449
0.141751
0.0926056
0.151136
0.139083
0.152793
0.138109
0.104843
0.142705