/*--------------------------------*- C++ -*----------------------------------*\
| =========                 |                                                 |
| \\      /  F ield         | OpenFOAM: The Open Source CFD Toolbox           |
|  \\    /   O peration     | Version:  v2012                                 |
|   \\  /    A nd           | Website:  www.openfoam.com                      |
|    \\/     M anipulation  |                                                 |
\*---------------------------------------------------------------------------*/
FoamFile
{
    version     2.0;
    format      ascii;
    class       surfaceVectorField;
    location    "550";
    object      ddtCorrDdt0(Uf);
}
// * * * * * * * * * * * * * * * * * * * * * * * * * * * * * * * * * * * * * //

dimensions      [0 1 -2 0 0 0 0];


internalField   nonuniform List<vector> 
14885
(
(0.00367056 0.0103041 -8.5878e-19)
(0.00611568 0.00757178 -2.22802e-18)
(0.00344589 0.010408 -1.54453e-18)
(0.0335459 -0.0590152 6.93905e-19)
(0.0348788 -0.0140044 1.51491e-17)
(0.0279768 -0.101571 -4.08471e-18)
(-0.0362179 -0.0109283 9.01718e-20)
(-0.0374916 -0.00495013 2.24494e-19)
(-0.0303678 -0.00635655 3.16207e-19)
(-0.000188392 -4.15255e-05 1.54951e-20)
(-0.000205573 -4.57882e-05 2.91624e-19)
(-0.000198679 -3.30415e-05 3.08712e-19)
(-0.000125865 5.47161e-05 7.43062e-21)
(-0.00013143 4.81274e-05 2.25517e-19)
(-0.000144964 6.30118e-05 -1.95359e-19)
(-0.0846254 -0.136989 -8.14608e-18)
(-0.0912506 -0.110141 -1.36119e-18)
(-0.0634428 -0.125667 1.26144e-19)
(0.0411531 0.0919304 -8.15055e-19)
(0.0575424 0.0950473 2.56078e-19)
(0.0487318 0.0755846 -1.71976e-18)
(-0.0213448 -0.00730989 -7.46475e-20)
(-0.0262666 0.002065 -8.01928e-19)
(-0.0305441 0.0102904 2.79922e-19)
(0.000262717 -0.000207003 -5.14537e-20)
(0.000269625 -0.000234974 -2.18476e-20)
(0.000243844 -0.000206611 -3.53347e-21)
(-0.00847992 0.0120939 2.81332e-19)
(-0.00814425 0.0135272 6.26532e-19)
(-0.010019 0.0127268 1.19543e-18)
(-0.0125336 0.00541924 9.49455e-20)
(-0.0141368 0.00243906 -3.50416e-19)
(-0.0110243 0.00227745 -6.17148e-20)
(0.043895 -0.0933384 -1.22016e-17)
(0.0334427 -0.010924 8.65523e-18)
(0.00483721 -0.00518262 8.1546e-20)
(0.0040092 -0.00631174 5.52785e-20)
(0.00351138 -0.00505211 -6.44598e-20)
(0.000605912 -0.00253805 -3.34559e-20)
(0.000389861 -0.00238851 -1.038e-19)
(0.000369365 -0.00284401 -2.98443e-19)
(9.66733e-05 0.00034293 2.94751e-20)
(0.000122888 0.000360431 4.69435e-20)
(0.000103422 0.000363118 7.05231e-20)
(0.000918934 -0.00266132 2.32394e-19)
(0.000758442 -0.00224358 6.63027e-20)
(-0.0702605 -0.160058 4.51542e-18)
(-0.085118 -0.177816 -4.3443e-18)
(-0.0627983 -0.153377 -2.53164e-19)
(-0.0100821 0.00746146 3.31201e-20)
(-0.0133389 0.00875514 5.51238e-20)
(0.000844275 0.000214389 4.88487e-19)
(0.000802855 0.000161822 -4.61406e-19)
(0.000912323 0.000110941 8.60852e-20)
(-0.00674149 0.000931048 7.6323e-20)
(-0.00674021 0.00148178 3.67819e-19)
(-0.0073588 0.00114543 -1.24768e-18)
(0.00528247 -0.00403957 -1.22497e-19)
(0.00619756 -0.00519539 -2.58854e-19)
(0.00191348 0.0120768 -1.18021e-19)
(0.00310867 0.00998849 6.58478e-19)
(-0.000174011 -4.02469e-05 1.99209e-19)
(-0.000182619 -4.75926e-05 1.54041e-19)
(-0.0551523 0.0939737 1.29206e-19)
(-0.0531782 0.0984417 -1.76844e-18)
(-0.0519241 0.0954993 4.544e-19)
(0.000282909 -0.000342148 3.08174e-19)
(0.000218015 -0.000346442 9.70863e-20)
(0.000244178 -0.000291839 -1.92835e-19)
(-0.000107934 2.35858e-05 -8.80744e-21)
(-0.000109843 3.225e-05 -1.53872e-19)
(-0.000131443 3.48767e-05 1.11237e-21)
(-0.00717612 0.011321 -2.19543e-18)
(-0.00868053 0.0105446 -6.39266e-20)
(0.000324321 -9.91268e-05 -1.8747e-20)
(0.000330931 -0.000111682 -1.00748e-20)
(0.000339089 -9.45458e-05 -5.09548e-21)
(-0.0789245 -0.152141 -3.383e-18)
(-0.0966541 -0.145235 -8.54146e-19)
(-0.0541353 0.0666354 -9.91691e-19)
(-0.05321 0.0451485 1.41605e-17)
(-0.0551141 0.052699 -6.06155e-18)
(-0.00026002 8.91003e-06 1.45442e-19)
(-0.000250769 9.93944e-06 -8.83968e-20)
(-0.000238778 5.00187e-06 1.5889e-19)
(-0.010193 -0.000615658 2.5152e-19)
(-0.0108514 -0.00237804 -6.99881e-19)
(-0.0121157 -0.000398169 -6.69296e-19)
(0.000294154 -0.000196319 3.32332e-20)
(0.000279262 -0.000203059 -5.93714e-20)
(0.000304698 -0.000214877 -4.19067e-20)
(0.000307864 -0.000185287 -2.67707e-20)
(0.000285123 -0.000181773 7.52923e-20)
(-0.0145637 -0.0153956 -1.78253e-19)
(-0.0125396 -0.0244954 2.80589e-19)
(-0.0161992 -0.0181686 1.24871e-19)
(-0.0162094 -0.0122361 2.57864e-18)
(-0.0115145 -0.0277447 5.69068e-19)
(-0.00020232 3.74911e-05 1.59011e-19)
(-0.000183175 4.44409e-05 -1.59401e-19)
(-0.00018476 5.74581e-05 1.07792e-19)
(0.000193332 -8.17463e-05 -2.96677e-22)
(0.000189096 -7.07448e-05 2.85342e-20)
(0.000184526 -8.34238e-05 2.25794e-20)
(-0.000262956 -6.37509e-07 -1.64669e-20)
(-0.000264837 1.18435e-05 6.91323e-20)
(-0.000669728 -0.00286257 -1.61927e-19)
(-0.00064744 -0.00252416 -1.76101e-19)
(-0.00103903 -0.00267918 -3.97542e-20)
(-0.0548628 0.0854567 -1.16675e-18)
(-0.0505539 0.0822327 7.19479e-18)
(0.000257297 -0.000188736 8.37081e-21)
(0.0705036 -0.106893 -2.81566e-18)
(0.05002 -0.0927947 3.43515e-19)
(0.0528183 -0.11971 1.32805e-19)
(0.0228649 0.318151 4.87668e-19)
(-0.00371569 0.296321 -3.21897e-18)
(-0.016522 0.23434 -5.34676e-18)
(-0.00017102 -0.000156807 8.88461e-20)
(-0.000148931 -0.000133396 1.25291e-20)
(-0.000160454 -0.000141048 4.12195e-19)
(0.000332371 -0.000321743 3.82415e-19)
(0.000307377 -0.000389909 1.55456e-19)
(0.000185381 0.000229486 -1.28189e-20)
(0.000206594 0.000225696 -1.35579e-20)
(0.000185211 0.000204527 1.5263e-21)
(8.05141e-05 0.000324862 -4.09799e-21)
(6.98915e-05 0.000345968 1.00767e-20)
(0.00715119 0.0224355 2.57523e-18)
(0.00992138 0.023722 3.72901e-19)
(0.00897466 0.0203199 1.09813e-18)
(0.246878 0.0146194 1.14184e-18)
(0.294138 0.040932 2.55326e-18)
(0.290741 -0.0296979 2.14374e-20)
(0.0979884 -0.121378 8.13339e-19)
(0.0876592 -0.0905476 5.06498e-20)
(-7.04324e-05 -5.08694e-05 1.35317e-19)
(-7.491e-05 -3.72864e-05 -1.22581e-19)
(-7.55897e-05 -4.27969e-05 7.7311e-20)
(-0.0464853 -0.134777 -9.48061e-19)
(0.00089905 0.00030237 2.50858e-19)
(0.000783598 0.000304543 6.1766e-20)
(-0.0977575 0.0395126 -2.98132e-18)
(-0.10328 0.0422989 1.15496e-18)
(-0.097201 0.0542525 -1.74704e-18)
(0.0777757 -1.13079 2.76106e-17)
(0.0425959 -1.13012 1.68341e-17)
(0.0558906 -1.16268 2.76542e-17)
(0.00566696 -0.00295248 -3.25415e-19)
(0.00462353 -0.00321646 1.61317e-19)
(-0.00550421 0.00226896 2.9966e-19)
(-0.00577824 0.00350201 2.43254e-20)
(-0.00648159 0.0022091 -6.30251e-19)
(-0.000373726 0.00107289 3.71334e-20)
(-0.000357188 0.00114375 2.74863e-20)
(-0.000433386 0.00107817 2.76143e-19)
(-8.39786e-05 -0.000202983 -5.98577e-21)
(-7.79891e-05 -0.000173171 4.11266e-22)
(-5.58242e-05 -0.000181078 2.62399e-21)
(0.00461391 0.0211939 -3.72858e-19)
(0.00435265 0.0246751 5.55232e-19)
(-0.108894 0.0336727 -1.14202e-18)
(-0.115629 0.0253849 -2.74091e-19)
(-0.123361 0.0169611 -9.11895e-20)
(0.0460438 -0.0768002 5.01896e-19)
(0.0295198 -0.0872733 -3.72185e-19)
(-0.0088896 -0.0054645 2.37536e-19)
(-0.0160521 0.000662859 -6.25296e-19)
(-0.0161153 0.00702867 -5.58694e-19)
(-0.0319962 -0.0349893 -9.49674e-19)
(-0.0411473 -0.0323274 6.21952e-19)
(-0.0385839 -0.0431669 -8.67774e-19)
(0.00224513 -0.000192804 5.5811e-19)
(0.00232413 -0.000566574 4.60402e-19)
(0.00259147 -0.000166961 -1.23284e-19)
(-0.00678358 -0.000162356 -7.4403e-19)
(-0.00681969 0.000421889 5.19552e-19)
(-0.0074302 -3.77221e-06 5.95287e-19)
(0.00248708 0.000504325 7.15574e-20)
(-0.000719543 -0.000204694 3.66669e-19)
(0.00252146 -0.00405485 -5.25794e-20)
(0.000111133 0.000292189 -1.58808e-21)
(0.000129033 0.000279711 1.32901e-21)
(0.000128479 0.000308503 5.11066e-21)
(0.00573567 0.00107896 -1.07171e-19)
(0.00262833 0.00474522 3.08517e-19)
(0.126975 -0.141625 -8.51568e-19)
(0.163385 -0.159593 -2.01273e-18)
(0.15202 -0.111686 -8.43773e-19)
(-0.00259253 0.00138857 5.55591e-19)
(-0.00281523 0.00135005 1.60823e-19)
(-0.00261127 0.00116534 -1.76214e-19)
(0.00048534 0.000117156 2.34022e-21)
(0.000532976 0.000104109 3.56673e-21)
(0.000472078 7.51641e-05 -8.11761e-21)
(-0.000317588 0.0010465 -2.7928e-20)
(-0.000388778 0.00100311 1.02944e-19)
(0.00196386 -0.000219401 -4.3695e-19)
(0.00215866 0.000111642 1.82589e-19)
(0.101764 -0.164569 3.82257e-19)
(-0.0292114 0.0172433 -1.57704e-19)
(-0.0277707 0.011598 2.06154e-18)
(-0.032881 0.0132611 1.82436e-18)
(0.000187471 0.000256951 1.4089e-20)
(0.000162618 0.000239467 -6.45035e-22)
(-0.0251387 0.0194002 -1.93532e-18)
(-0.0288721 0.0231493 4.15117e-19)
(0.000736346 0.00024159 -5.83188e-20)
(0.000734602 0.000135541 -4.18481e-19)
(0.0503899 0.339075 -1.02084e-18)
(0.0585021 0.365103 3.11527e-19)
(-0.0552038 0.086533 1.1858e-18)
(-0.000102892 9.92259e-06 -2.20635e-19)
(-0.000122393 8.40936e-06 1.48148e-19)
(-9.60284e-05 2.98501e-06 -1.96522e-19)
(-4.0765e-05 4.49188e-05 -2.03293e-19)
(-5.3294e-05 6.69898e-05 -1.23117e-20)
(-4.00094e-05 5.82381e-05 -5.99294e-19)
(-0.00679406 0.00529703 -4.53031e-19)
(-0.00720277 0.00498647 -3.17106e-20)
(-0.00732435 0.00554352 3.31728e-18)
(-0.00033362 0.0458285 -8.12834e-19)
(0.00180736 0.0405982 -4.26503e-19)
(0.00498413 0.0458187 -9.63358e-19)
(-0.00626418 -0.000237745 -6.20372e-20)
(-0.00670199 -0.000736253 -3.57285e-19)
(-0.0313438 -0.0164158 -6.69449e-19)
(-0.0411777 -0.0169797 -5.8197e-19)
(-0.000812315 0.00131422 2.72355e-19)
(-0.000777466 0.00115516 -4.18738e-20)
(-0.000951631 0.00114419 -3.77476e-19)
(-0.036215 -0.00124556 -2.96519e-18)
(-0.0381256 -0.00817586 5.6427e-19)
(-0.0322836 -0.00598237 1.97631e-19)
(0.0019502 -0.00163996 1.30713e-19)
(0.00222209 -0.00204734 4.45755e-20)
(0.00158417 -0.00206386 1.42064e-19)
(0.000137646 0.000377534 -6.16357e-20)
(0.000154644 0.000387093 -4.61413e-20)
(0.0396403 -0.0648907 -4.13158e-19)
(0.0564815 -0.0629353 3.20874e-19)
(-0.00709324 0.0450241 -8.61094e-19)
(-0.0043618 0.0521817 3.58122e-18)
(-0.00560896 -0.0432112 2.56726e-18)
(-0.0138477 -0.0476621 -5.47798e-19)
(-0.00675869 -0.0527632 -8.25563e-19)
(-0.000860028 -0.000277115 -8.96589e-20)
(-0.000934316 -0.000300927 -2.71615e-19)
(-0.000862978 -0.000363172 9.7665e-20)
(-0.196467 0.550046 2.72999e-17)
(-0.113818 0.580166 5.4943e-17)
(-0.00630151 0.00080021 7.5248e-19)
(0.00412528 0.167953 -2.70346e-18)
(0.0310439 0.175506 4.54182e-18)
(-3.99816e-05 0.106527 -8.07631e-18)
(-0.000273896 0.00101723 -6.20653e-20)
(-0.00022847 0.000969571 -4.10749e-20)
(-0.000288198 0.000962115 1.54834e-19)
(0.00181325 -0.00128762 -5.71272e-21)
(0.00232558 -0.00117604 1.90447e-19)
(-0.015615 0.017592 8.94756e-20)
(-0.0175901 0.0195439 9.05568e-19)
(-0.0138333 0.0200872 -8.02993e-19)
(-0.00146388 0.000689055 -5.36736e-19)
(-0.00159741 0.000662039 8.94835e-20)
(-0.00148726 0.000569573 -6.7056e-19)
(-0.00662222 -0.000144705 7.65826e-20)
(-0.00553398 0.000205742 4.94729e-19)
(0.00151595 0.000315822 -2.42122e-20)
(0.00168417 0.000463704 1.35054e-20)
(0.00163243 0.000148661 1.10442e-19)
(-0.00111974 0.000445538 1.61443e-19)
(-0.00106113 0.000386298 -5.66954e-20)
(-0.00114548 0.000369319 -7.05689e-20)
(0.132688 0.192068 -2.80448e-17)
(0.0778314 0.15837 -3.3784e-17)
(0.108408 0.204136 -1.92438e-18)
(0.00168059 -0.000228322 -3.26674e-20)
(0.00175218 -0.000549004 4.5976e-19)
(0.0279237 0.0867033 3.58272e-18)
(0.0319618 0.104632 -5.43339e-18)
(-0.00108038 0.000522099 3.44509e-19)
(-0.00118139 0.000518639 1.3932e-19)
(-0.000523935 0.000860153 2.04366e-19)
(-0.000507538 0.00092949 -8.39824e-20)
(-0.00045187 0.000937795 -1.45607e-19)
(0.0161272 0.0789166 -5.24726e-19)
(0.0253012 0.0706623 -5.75801e-19)
(-0.0133264 0.015528 -1.93967e-18)
(-0.0166074 0.0144142 9.96375e-19)
(-0.00322842 -0.00981786 5.55042e-19)
(-0.00419622 -0.0180187 -8.07638e-19)
(-0.0236723 -0.034722 6.83982e-21)
(-0.0260187 -0.0280654 -3.45254e-18)
(3.46087e-05 0.000414893 -2.02327e-21)
(6.67148e-05 0.000383852 2.5516e-20)
(6.6236e-05 0.000426795 1.65577e-21)
(0.0119015 0.012118 2.02363e-19)
(0.012289 0.0103711 -1.08072e-19)
(0.0136128 0.0122422 -4.56106e-19)
(-0.000201356 5.00578e-06 -9.36284e-20)
(-0.000229291 1.15856e-05 -2.70001e-19)
(-0.000233666 2.47621e-05 5.61517e-20)
(-0.00523811 0.00140533 9.19656e-20)
(-0.00463671 0.00222191 2.59691e-19)
(-3.90772e-05 0.000481473 -1.11993e-20)
(-6.75837e-05 0.000467967 1.70652e-20)
(-8.44863e-05 0.00051662 6.45835e-21)
(-8.79154e-05 -0.000231109 -4.87596e-21)
(-0.00011339 -0.000219583 -2.37613e-21)
(0.0442017 -0.155127 1.05562e-17)
(0.0522947 -0.12385 -4.76801e-18)
(0.042731 -0.176066 7.12141e-18)
(0.0372192 -0.143417 -9.37839e-18)
(0.0268766 -0.210441 9.62273e-18)
(-0.00019549 -0.000179197 1.12643e-19)
(-0.000182314 -0.000175076 1.35651e-19)
(-0.0342017 0.00369946 -7.77375e-19)
(-0.0394109 0.00303207 -2.5522e-18)
(-0.000884835 0.00173849 6.07724e-20)
(-0.000860604 0.00149771 -3.36026e-19)
(-0.00106492 0.00152656 -3.98672e-19)
(-0.0009079 0.00193471 5.0429e-19)
(-0.000666906 0.00184129 3.87956e-19)
(-0.0996199 0.0179128 -4.30685e-18)
(-0.0873049 0.0334081 -1.74804e-18)
(-0.0769084 -0.0911051 -4.54592e-19)
(-0.0905265 -0.107052 -2.15873e-18)
(-0.0953585 -0.080022 -1.99888e-18)
(0.0110361 0.0139072 -1.73487e-18)
(0.0105018 0.0121078 2.10151e-19)
(0.000191286 -5.83378e-05 -1.88465e-20)
(0.000190863 -6.28316e-05 5.30386e-21)
(0.000185619 -4.38648e-05 2.09652e-20)
(0.00136723 0.000594705 3.19665e-20)
(0.00153454 0.000700331 -1.22024e-20)
(0.00151723 0.000451795 -5.75217e-19)
(-0.00162697 0.002589 -2.89701e-19)
(-0.00178763 0.00224038 -2.91014e-19)
(-0.00201959 0.00261195 9.97327e-20)
(0.00101385 -0.00100462 7.35835e-20)
(0.000988539 -0.000829422 -3.65624e-19)
(0.00115053 -0.000802122 4.448e-20)
(0.00842694 0.0726641 1.88947e-18)
(0.00909576 0.0857905 1.93095e-18)
(0.150973 -0.0110114 -4.65183e-19)
(0.17185 -0.0259992 -1.08775e-18)
(0.137716 -0.0350842 -9.92632e-20)
(-0.00730956 -0.00258024 6.32797e-19)
(-0.00762985 -0.00191258 1.33797e-19)
(-0.00815761 -0.00256148 -6.14416e-19)
(0.139462 0.0407607 -2.07755e-19)
(0.16538 0.0835609 4.15186e-18)
(0.000560653 0.00128125 -2.73537e-20)
(0.000656689 0.00132853 -6.14044e-20)
(0.000618171 0.00112556 6.86467e-20)
(-0.0227981 0.160898 5.33071e-18)
(0.00805285 0.214907 2.22918e-18)
(0.0252458 -0.0331825 -2.36797e-19)
(0.0210198 -0.0397365 -5.23883e-19)
(0.0175373 -0.0330368 9.09364e-19)
(0.000192043 -1.86286e-05 3.44979e-20)
(0.00019821 -2.70814e-05 -9.5361e-21)
(0.00019442 -2.40065e-05 9.02172e-20)
(0.196724 0.18821 2.17654e-17)
(0.167068 0.116899 -2.06176e-17)
(0.000309252 -0.000102054 4.44072e-20)
(0.000315821 -8.57525e-05 2.91589e-21)
(0.00121918 0.00478513 2.26094e-19)
(0.00124579 0.00442855 7.00395e-19)
(0.00160434 0.0046516 -4.77884e-19)
(0.000196118 -8.91191e-05 -3.11059e-21)
(0.000203584 -7.69124e-05 -1.75604e-20)
(-0.00630841 0.00538299 -2.05976e-19)
(-0.00636488 0.00499665 -1.41712e-18)
(8.55661e-05 0.000279029 -4.24769e-21)
(8.03421e-05 0.000313864 -3.41035e-22)
(-0.00301908 1.01614e-05 1.169e-19)
(-0.00303388 0.000280429 1.40309e-19)
(-0.00324866 6.62444e-05 -3.63429e-19)
(-0.0220656 0.219859 4.88097e-18)
(-0.00746827 0.227459 -3.13667e-19)
(-0.00543267 0.263466 -4.20163e-19)
(0.00147467 -0.000245242 7.80931e-20)
(0.00164772 6.98336e-06 7.21129e-19)
(0.000186203 -4.32096e-06 -8.36941e-20)
(0.000182549 -3.7568e-06 3.73958e-20)
(0.000184844 -5.50884e-06 1.36215e-20)
(0.00086331 0.00131458 1.21364e-19)
(0.000758961 0.00133666 -4.58316e-20)
(0.000798095 0.00113617 8.96286e-20)
(0.00484987 -0.00930345 1.19229e-19)
(0.00475121 -0.010851 6.53292e-20)
(0.00308864 -0.00984362 2.55531e-19)
(0.00163912 -0.0374238 5.30273e-19)
(-0.00396087 -0.0353259 2.52647e-18)
(0.000862943 0.00496642 -2.00581e-19)
(0.00138479 0.00521348 -5.30084e-19)
(-0.0643564 -0.0748766 7.91948e-19)
(-0.0588935 -0.094769 6.59193e-19)
(0.0917705 -1.10809 -2.5068e-17)
(0.133633 -0.99568 3.24867e-17)
(-0.0014354 0.00298174 3.32653e-19)
(-0.00130434 0.00257661 6.69177e-20)
(-0.000105081 1.69217e-05 -1.15432e-20)
(-7.12135e-05 1.50896e-05 -3.69333e-21)
(-4.96998e-05 6.26133e-06 1.42967e-19)
(-6.02928e-05 -3.58009e-06 -1.21623e-19)
(-6.24789e-05 3.50132e-06 2.61197e-19)
(-0.000753198 -0.00324204 7.35793e-20)
(-0.000290767 -0.00296269 2.0004e-20)
(0.132116 0.0036881 -1.70168e-19)
(0.153742 0.0147892 8.59277e-19)
(-0.000656171 0.0014618 3.00459e-19)
(0.000342857 0.0012685 3.77346e-20)
(0.000407398 0.00116221 -2.92768e-20)
(0.000339112 0.00110465 6.99007e-20)
(-0.0502689 0.148459 1.0885e-18)
(-0.0293458 0.182859 -3.25035e-18)
(0.000432229 0.000117654 -2.73838e-20)
(0.000475564 0.000158826 2.92559e-20)
(-0.00835801 -0.000631889 2.91524e-19)
(-0.00707223 -0.00176894 -2.97024e-19)
(-0.0213297 -0.00823259 -1.14561e-18)
(-0.0139328 -0.0265138 -1.15693e-18)
(0.000318373 -0.000169556 -1.2454e-19)
(0.00032648 -0.000157737 7.30909e-20)
(0.000306794 -0.000159165 1.75097e-21)
(0.0180737 -0.0302912 -1.52245e-18)
(0.0150246 -0.038009 3.7891e-19)
(0.0216411 -0.0359265 2.84933e-18)
(-0.0515138 0.0171272 1.98658e-18)
(-0.0464474 0.0283466 2.41799e-18)
(-0.0133265 -0.299963 2.79235e-18)
(-0.0405575 -0.361466 1.70148e-17)
(-0.0358437 -0.334625 1.28634e-17)
(0.000331589 -0.000185142 1.36408e-20)
(0.00101088 0.000319831 6.96484e-20)
(0.000910581 0.000394338 5.76432e-20)
(0.00731052 -0.261398 -1.47368e-17)
(0.0147433 -0.2169 -7.112e-18)
(8.20977e-05 -0.000363796 2.81209e-20)
(5.02104e-05 -0.000345483 -5.25924e-20)
(4.4703e-05 -0.00031001 -1.59866e-19)
(0.000199413 -9.41127e-05 1.18994e-20)
(0.000192525 -9.49376e-05 4.7678e-21)
(0.00122163 0.000698169 -1.70672e-19)
(0.00117933 0.000530017 -4.40657e-20)
(0.000156113 0.000281522 -2.58806e-21)
(0.000142864 0.000258559 -2.73216e-21)
(0.000483844 0.00121179 2.53412e-20)
(0.000487189 0.0014176 4.11824e-20)
(0.00196437 0.00137451 4.84487e-20)
(0.00214912 0.00154053 -1.53145e-19)
(0.00212032 0.00118023 -1.64616e-19)
(-0.000255613 0.00107618 -2.14102e-21)
(-6.68183e-05 0.000368069 -1.18688e-21)
(-4.01935e-05 0.00038415 -5.64065e-21)
(-3.1037e-05 0.000344356 2.13112e-21)
(-0.00969792 -0.027885 -2.21132e-19)
(-0.0150153 -0.0292778 3.00229e-21)
(-0.0120847 -0.0312297 2.09551e-19)
(7.18579e-05 -0.00173983 2.28779e-19)
(-0.000217023 -0.00138586 3.93691e-19)
(-0.00035099 -0.00198512 -1.03911e-19)
(-0.00238274 0.00141287 -7.59477e-20)
(-0.00255649 0.00162906 1.22871e-19)
(-6.03422e-05 -0.000135192 5.4947e-21)
(-7.71736e-05 -0.000153742 -1.70743e-21)
(-8.05063e-05 -0.000133041 2.94445e-22)
(0.219115 -0.31024 -5.89822e-18)
(0.289015 -0.228007 -6.50909e-18)
(0.193555 -0.411506 -6.10043e-18)
(-7.73266e-05 -6.37548e-05 8.32069e-20)
(-6.72947e-05 -8.6316e-05 2.1791e-19)
(-5.01122e-05 -7.45675e-05 4.93135e-20)
(0.0380463 0.0941218 2.32065e-17)
(0.00678948 -0.00257839 -4.52038e-19)
(0.00582669 -0.0019038 1.48965e-19)
(0.000187697 -5.17198e-05 -1.03134e-20)
(0.000196063 -6.87836e-05 -1.39803e-20)
(0.00175572 0.00114509 2.09215e-19)
(0.00175982 0.00149405 1.54983e-19)
(-0.0586571 0.0190753 -3.24892e-19)
(-0.0737352 0.0278287 -1.42206e-18)
(-0.0761491 -0.00076074 2.62512e-20)
(0.000139699 0.00038653 -4.81736e-20)
(0.000148509 0.000420107 4.84722e-20)
(-0.284552 0.0506104 4.54823e-18)
(-0.304935 0.0365578 1.02638e-18)
(-0.296316 -0.0113763 -6.86315e-19)
(0.0266149 -0.010708 1.41063e-18)
(0.0287183 -0.0162898 1.13896e-18)
(0.0315227 -0.010326 4.85957e-19)
(-0.362743 0.434935 1.44285e-17)
(-0.405845 0.421959 3.37871e-18)
(-0.406625 0.256254 3.08558e-18)
(-4.55212e-05 4.11238e-05 3.57695e-19)
(-3.79182e-05 2.8241e-05 -1.96253e-19)
(-0.11291 -0.131292 -5.29778e-18)
(-0.146936 -0.146392 1.4009e-18)
(-0.132855 -0.107909 -2.37202e-19)
(0.0316056 -0.0556271 5.66394e-19)
(0.0262902 -0.0466453 4.68567e-20)
(0.0388298 -0.0465501 3.16085e-19)
(0.042178 0.0334921 -9.99116e-19)
(0.0462586 0.0270768 -3.61716e-19)
(0.0390056 0.0282583 -5.29851e-19)
(0.000293503 4.7038e-05 1.43413e-20)
(0.000282691 3.97683e-05 7.72195e-21)
(0.0002958 3.2591e-05 2.23063e-20)
(0.061242 0.179448 4.76681e-18)
(0.0592517 0.229439 5.87171e-18)
(-0.00195393 0.00192928 1.37708e-19)
(-0.00162032 0.00196579 -3.83699e-19)
(-0.0430815 0.0833397 1.00148e-18)
(-0.032492 0.0609548 -1.23614e-18)
(-0.037339 0.0730424 -1.51045e-18)
(0.00459579 -0.00754753 6.9718e-21)
(0.00629582 -0.00796137 9.86366e-20)
(-0.00052134 0.000783838 1.97892e-19)
(-0.000590098 0.000758215 3.67066e-19)
(0.00106229 -0.00114158 3.41456e-19)
(0.000887773 -0.00112058 2.82251e-20)
(-0.00943933 0.0012663 8.54567e-19)
(0.000304036 5.57081e-05 4.08034e-20)
(0.000289985 6.21708e-05 7.03839e-21)
(0.0456114 0.0382847 9.71316e-19)
(0.0384332 0.0394161 1.23648e-19)
(0.0489415 0.021622 1.4107e-18)
(0.0439935 0.0174928 -3.00444e-19)
(0.0512781 0.0157242 4.26242e-20)
(-0.000231824 1.51077e-05 -6.68137e-20)
(-0.000213146 1.14115e-05 -2.85891e-19)
(-0.000229469 1.38494e-05 -3.47938e-20)
(0.00901893 -0.00139927 -1.36452e-19)
(0.00950381 -0.0053406 2.01077e-19)
(0.0101051 -0.00269886 1.29466e-19)
(0.000233936 8.75061e-05 -1.18286e-20)
(0.000217107 8.31288e-05 8.54095e-20)
(0.000225789 0.000101707 3.35503e-21)
(0.0222896 -0.300174 4.83101e-18)
(0.00708429 -0.317457 -4.92757e-18)
(-0.0176994 -0.364672 2.34073e-17)
(-0.000131411 -3.50221e-05 -1.59014e-19)
(-0.000113018 -4.55878e-05 -4.43989e-21)
(-0.000115406 -5.01968e-05 -3.6687e-19)
(-0.0878886 -0.140665 -1.25783e-18)
(-0.345503 -0.020133 1.0579e-18)
(-0.337723 0.0382098 -3.07598e-18)
(-0.337223 -0.0236289 -2.26239e-18)
(0.0202352 -0.0239267 -7.64499e-19)
(0.0149845 -0.0260674 -1.99376e-19)
(-0.351276 -0.010879 3.16285e-18)
(-0.358428 -0.0928388 -1.08177e-18)
(0.00751976 0.00228522 -2.30291e-19)
(-0.000229542 -4.85675e-05 1.22129e-19)
(-0.000213793 -5.93145e-05 5.00689e-19)
(0.0229386 -0.0625368 1.33181e-18)
(-0.00242628 -0.000306178 -3.20691e-19)
(-0.00254602 -0.000504242 -4.84041e-19)
(-0.00231278 -0.000506504 -1.45856e-19)
(-0.00693802 -0.00309138 4.48081e-19)
(-0.00663708 -0.0023985 -2.33779e-19)
(-0.00623555 0.00913318 3.63653e-18)
(-0.00592129 0.0102499 2.07798e-18)
(-0.00500246 0.00942582 1.45347e-18)
(-0.00137259 0.000736299 -3.31776e-19)
(-0.00148122 0.000810739 -1.93003e-19)
(0.000198894 -9.40196e-05 6.43705e-21)
(0.000203543 -9.14265e-05 4.19248e-21)
(-0.00111143 0.00210347 -7.26979e-20)
(-0.000871581 0.0022253 2.26634e-20)
(0.000341741 -0.00153636 8.30608e-20)
(0.000331533 -0.00198588 1.98821e-20)
(-0.000191048 6.60958e-06 1.05995e-20)
(-0.000163933 1.80914e-06 -2.94392e-20)
(0.000113719 -0.00037876 1.57079e-20)
(0.000137548 -0.000420811 -2.02828e-19)
(-0.0286645 0.0102054 2.39848e-19)
(-0.00510161 -0.00456545 3.22225e-19)
(-0.0057386 -0.00414031 -2.38759e-20)
(-0.00574477 -0.00503282 5.95372e-19)
(-0.294859 0.483386 -3.21495e-17)
(-0.274666 0.275885 -5.07072e-17)
(0.000898871 0.00418551 5.17457e-19)
(0.00126721 0.00404701 4.38529e-20)
(-0.0504213 0.0988415 -1.95122e-19)
(-0.0514395 0.0965398 -1.36594e-18)
(0.0882576 -0.153674 -8.17115e-18)
(0.108555 -0.0863349 -1.10679e-17)
(0.0883258 -0.0927556 -3.14941e-18)
(0.00386134 -0.123175 5.28298e-18)
(-0.00962951 -0.169323 3.70683e-18)
(-0.00559454 -0.127894 -4.60879e-18)
(-9.30918e-05 -0.000261626 8.54935e-21)
(-6.08317e-05 -0.000238784 1.34616e-21)
(-0.00078549 -0.00367086 1.11206e-19)
(-0.00122489 -0.00344204 -2.58292e-20)
(-0.120166 0.0553487 6.23515e-18)
(-0.125038 0.028148 -5.63444e-18)
(-0.108427 0.0649337 -2.17516e-18)
(-0.000108087 4.88794e-05 -2.5926e-19)
(-0.000122124 6.66167e-05 -6.29779e-19)
(0.0183346 -0.0815734 -2.77172e-18)
(0.0144911 -0.118023 -8.26703e-19)
(0.000579547 0.00383929 -1.05368e-18)
(0.000489251 0.00415029 -6.01353e-19)
(0.000959639 0.00123241 7.94184e-21)
(0.000927772 0.00141884 1.34039e-19)
(-0.000124967 3.65067e-05 -3.61857e-19)
(-0.000142036 4.42437e-05 1.79576e-19)
(0.0013254 0.000208709 -9.6626e-20)
(0.00138834 0.000444007 -9.42119e-20)
(0.000182917 -4.49778e-05 1.68927e-20)
(0.000177918 -3.42105e-05 6.59189e-21)
(-0.00819073 -0.00726068 3.61409e-19)
(-0.0114179 -0.0155763 2.38574e-19)
(-0.0164006 -0.00522051 -1.02797e-18)
(-0.106535 0.0455991 3.07776e-18)
(-0.0999775 0.0462928 -2.85131e-18)
(-0.105869 0.0526543 1.21844e-18)
(-0.00275566 -3.7772e-05 1.1751e-20)
(-0.00295388 -0.000254989 4.13192e-19)
(-0.00443767 -0.00478175 4.21032e-19)
(-0.00466968 -0.00409485 -4.23607e-19)
(-0.000108651 -5.39107e-05 1.19795e-19)
(-9.67969e-05 -4.50173e-05 1.1466e-19)
(-0.00302782 -0.00107764 7.70077e-20)
(-0.00333854 -0.00115075 8.07741e-20)
(-0.00321677 -0.000835461 1.38908e-19)
(-0.0584883 0.474401 1.61749e-17)
(-0.0866507 0.679597 2.14787e-17)
(-8.49897e-05 -4.76399e-05 -8.39539e-21)
(-9.12775e-05 -5.34659e-05 -2.93096e-20)
(-8.58831e-05 -4.98728e-05 4.40702e-20)
(-0.0402184 -0.0151754 2.34241e-19)
(-0.0450807 -0.0102486 9.54092e-19)
(0.000234894 -1.07325e-05 -4.3391e-21)
(0.000253121 -1.22274e-06 1.10612e-20)
(0.000229343 -1.03794e-05 2.46395e-21)
(-6.53464e-05 -6.15197e-05 1.02351e-19)
(-6.32212e-05 -5.31083e-05 -8.86062e-20)
(0.000229224 0.000220169 3.36745e-20)
(0.00023331 0.000246946 -2.41034e-20)
(0.00288373 -0.00697788 3.82009e-20)
(-0.118733 0.040641 1.74804e-18)
(-0.10778 0.0343265 5.79013e-19)
(-0.0406357 -0.0236296 -4.20825e-19)
(-0.0338422 -0.019201 1.95306e-19)
(-0.00714067 -0.000294216 4.83104e-20)
(-0.00142708 -0.0065705 2.45901e-19)
(-0.000196441 2.25221e-06 1.91248e-20)
(-0.000146386 1.05615e-06 -8.27286e-20)
(-0.000252709 6.30176e-06 4.10604e-19)
(-0.0013162 0.00201131 -3.44875e-19)
(-0.00121362 0.0023117 1.38678e-19)
(-9.91817e-05 0.000225602 1.07172e-19)
(-0.000110773 0.000242205 -3.1859e-20)
(-0.000115837 0.000267764 8.02645e-21)
(0.203516 -0.0127418 7.02352e-19)
(0.209216 0.0262054 -4.2191e-19)
(-0.00103009 -0.00185985 1.24867e-19)
(-0.000937489 -0.00165417 -2.2809e-19)
(-0.000794643 -0.0018443 -2.97529e-19)
(0.195882 -0.19639 2.81925e-19)
(0.148969 -0.235712 4.06359e-19)
(-0.00284185 -0.00127646 -6.51481e-19)
(-0.00275183 -0.000994568 3.1752e-19)
(-0.00385197 -0.000468677 2.69266e-19)
(-0.00433472 5.63618e-05 1.19814e-19)
(-0.00428896 -0.000922112 -2.67683e-19)
(0.000485337 0.000529011 2.3598e-19)
(0.000518956 0.00056959 -8.24651e-19)
(0.000507207 0.000532699 -1.16299e-19)
(-6.2486e-05 -0.000144256 -3.57693e-19)
(-8.22789e-05 -0.000149437 -1.94374e-19)
(-5.29661e-05 -0.000174391 -5.05059e-19)
(-0.00024924 -2.38835e-06 1.5763e-19)
(-0.000168603 3.64126e-06 2.56522e-20)
(-0.042125 0.0387879 1.53166e-18)
(0.000339031 -0.000120579 6.03302e-21)
(0.000322911 -0.000125221 -3.93742e-20)
(-0.0283752 -0.22982 -6.22885e-18)
(-0.0457952 -0.260593 -1.10517e-18)
(-0.0455402 -0.241112 -2.74323e-18)
(-0.263612 0.0545022 8.90535e-19)
(-0.270794 0.100411 1.76372e-18)
(0.000466979 0.000514685 5.78947e-19)
(0.000449299 0.000537939 -2.64205e-19)
(2.56966e-05 2.0632e-05 -4.50824e-19)
(6.11732e-05 1.0168e-05 -2.73783e-21)
(5.69005e-05 4.88418e-06 2.37096e-19)
(-0.312821 -0.00656155 4.87107e-18)
(-0.299215 -0.0751726 7.0447e-18)
(-0.276555 -0.00843462 -2.36239e-17)
(0.0071151 0.0121688 3.33387e-19)
(0.00625238 0.011779 6.31524e-20)
(0.00622133 0.0129614 -1.60302e-18)
(0.000357601 0.000309299 5.05208e-21)
(0.000335041 0.000335409 -7.09567e-21)
(0.000372682 0.000335741 -2.19571e-21)
(-0.00069008 0.00986546 2.99848e-20)
(-2.7383e-05 0.0113057 1.22447e-18)
(0.00059915 0.0101167 1.80268e-19)
(0.000186606 -4.59606e-06 -4.78083e-21)
(0.000188685 -4.51761e-06 -4.79494e-21)
(0.00585664 7.50785e-06 5.16932e-19)
(0.00676784 -0.000335944 3.12899e-19)
(0.00595539 -0.000940288 4.13049e-19)
(0.0047636 0.00987485 -2.0253e-19)
(0.00523384 0.00917923 3.60492e-20)
(0.00552799 0.0100982 -7.35418e-20)
(-0.000149675 -1.45409e-06 -1.80985e-21)
(-0.000194041 7.83541e-06 -2.27766e-19)
(-0.000129865 -4.21503e-06 -3.37981e-19)
(-0.0376725 -0.274351 -5.522e-18)
(-0.0306798 -0.27211 -1.13138e-17)
(-0.0309653 -0.24156 8.44699e-18)
(-0.0498686 -0.0287229 5.36443e-19)
(0.00138043 -0.00159507 3.04404e-20)
(0.00163589 -0.00158387 6.38942e-20)
(0.00142595 -0.00131942 -7.87625e-21)
(0.0395538 0.0182579 -1.80858e-18)
(0.0294617 0.0109934 -2.72032e-18)
(0.0243999 0.0209338 -3.58388e-19)
(-0.00633588 -0.00377154 1.9062e-20)
(-0.00717278 -0.00403743 1.06768e-19)
(-8.46718e-05 0.000187003 1.55413e-19)
(-8.93786e-05 0.000209815 1.12321e-19)
(0.000242474 7.56802e-05 1.01701e-19)
(0.000252382 9.24922e-05 -4.15086e-20)
(0.000698145 0.00152037 -8.06018e-20)
(0.0545184 0.0263223 -2.71104e-18)
(-5.04522e-05 -0.000114681 -2.39534e-21)
(-4.39245e-05 -0.000130471 2.45265e-21)
(0.0567086 -0.222529 2.26416e-18)
(0.0769933 -0.198077 1.88581e-18)
(0.00808279 0.0124866 2.00609e-19)
(0.00738075 0.0112513 -5.73411e-19)
(-0.0980705 0.0408117 -3.73772e-18)
(-0.100022 0.0351573 -2.27692e-18)
(-0.0011017 -0.00208568 2.08255e-19)
(-0.00121515 -0.00238489 1.63578e-19)
(-0.000890732 -0.00236001 -3.76015e-20)
(-0.00034443 -0.00383662 -2.76115e-20)
(-0.000859705 -0.0041731 2.56306e-20)
(0.0549628 0.0127595 1.47246e-18)
(0.0515856 0.0251742 -6.81066e-19)
(-0.0455167 -0.274011 1.7157e-18)
(-0.0409098 -0.28969 2.46504e-18)
(-0.000214876 2.31298e-05 5.21749e-19)
(-0.000204336 2.54789e-05 4.41539e-19)
(0.000950942 -0.000653827 1.69642e-19)
(0.00103553 -0.000466039 9.25914e-20)
(0.000904978 -0.000461589 4.49172e-19)
(-0.000844228 -0.000191602 1.11124e-19)
(-0.000786733 -0.00025614 -7.14878e-19)
(0.00129625 -0.00186484 4.66625e-20)
(0.00118137 -0.0015703 5.26417e-20)
(0.00399927 0.00974826 1.85543e-19)
(0.00449179 0.0105201 2.79591e-21)
(-0.00125873 0.00834008 2.42278e-19)
(-0.000872018 0.00859745 -5.671e-20)
(0.000246919 0.000217159 2.1545e-20)
(0.000228885 0.000202943 1.84061e-20)
(-0.00856549 -0.0248111 -1.45156e-18)
(-0.00493582 -0.0254326 -8.02979e-19)
(-0.0440297 0.0977469 -2.48236e-18)
(-0.0416935 0.0980728 -8.59263e-19)
(-0.0330136 0.0936877 8.1848e-19)
(-6.06634e-07 0.000448076 -2.93098e-22)
(9.63302e-06 0.000404858 -6.64285e-21)
(0.000243514 -3.30506e-06 4.29225e-20)
(0.000242897 -1.64498e-07 -6.85067e-20)
(0.000214342 -1.21081e-06 -1.34112e-20)
(0.209749 -0.23954 5.57508e-18)
(0.239249 -0.138983 1.26713e-18)
(-0.00338973 -0.000810543 2.46409e-19)
(-0.00335702 -0.00014054 3.64348e-19)
(-0.0084967 -0.00995914 -3.90321e-19)
(-0.00896132 -0.00770261 3.3454e-19)
(-0.0117914 -0.00860166 -3.12817e-19)
(-0.018799 -0.0293049 -8.58006e-20)
(-0.020538 -0.0315364 -3.81667e-20)
(-0.0218331 -0.0263848 1.45758e-19)