/*--------------------------------*- C++ -*----------------------------------*\
| =========                 |                                                 |
| \\      /  F ield         | OpenFOAM: The Open Source CFD Toolbox           |
|  \\    /   O peration     | Version:  v2012                                 |
|   \\  /    A nd           | Website:  www.openfoam.com                      |
|    \\/     M anipulation  |                                                 |
\*---------------------------------------------------------------------------*/
FoamFile
{
    version     2.0;
    format      ascii;
    class       pointVectorField;
    location    "550";
    object      pointDisplacement;
}
// * * * * * * * * * * * * * * * * * * * * * * * * * * * * * * * * * * * * * //

dimensions      [0 1 0 0 0 0 0];


internalField   nonuniform List<vector> 
10400
(
(0 0 0)
(0 0 0)
(0 0 0)
(0 0 0)
(0 0 0)
(0 0 0)
(0 0 0)
(0 0 0)
(0 0 0)
(0 0 0)
(0 0 0)
(0 0 0)
(0 0 0)
(0 0 0)
(0 0 0)
(0 0 0)
(0 0 0)
(0 0 0)
(0 0 0)
(0 0 0)
(0 0 0)
(0 0 0)
(0 0 0)
(0 0 0)
(0 0 0)
(0 0 0)
(0 0 0)
(0 0 0)
(0 0 0)
(0 0 0)
(0 0 0)
(0 0 0)
(0 0 0)
(0 0 0)
(0 0 0)
(0 0 0)
(0 0 0)
(0 0 0)
(0 0 0)
(0 0 0)
(0 0 0)
(0 0 0)
(0 0 0)
(0 0 0)
(0 0 0)
(0 0 0)
(0 0 0)
(0 0 0)
(0 0 0)
(0 0 0)
(0 0 0)
(0 0 0)
(0 0 0)
(0 0 0)
(0 0 0)
(0 0 0)
(0 0 0)
(0 0 0)
(0 0 0)
(0 0 0)
(0 0 0)
(0 0 0)
(0 0 0)
(0 0 0)
(0 0 0)
(0 0 0)
(0 0 0)
(0 0 0)
(0 0 0)
(0 0 0)
(0 0 0)
(0 0 0)
(0 0 0)
(0 0 0)
(0 0 0)
(0 0 0)
(0 0 0)
(0 0 0)
(0 0 0)
(0 0 0)
(0 0 0)
(0 0 0)
(0 0 0)
(0 0 0)
(0 0 0)
(0 0 0)
(0 0 0)
(0 0 0)
(0 0 0)
(0 0 0)
(0 0 0)
(0 0 0)
(0 0 0)
(0 0 0)
(0 0 0)
(0 0 0)
(0 0 0)
(0 0 0)
(0 0 0)
(0 0 0)
(0 0 0)
(0 0 0)
(0 0 0)
(0 0 0)
(0 0 0)
(0 0 0)
(0 0 0)
(0 0 0)
(0 0 0)
(0 0 0)
(0 0 0)
(0 0 0)
(0 0 0)
(0 0 0)
(0 0 0)
(0 0 0)
(0 0 0)
(0 0 0)
(0 0 0)
(0 0 0)
(0 0 0)
(0 0 0)
(0 0 0)
(0 0 0)
(0 0 0)
(0 0 0)
(0 0 0)
(0 0 0)
(0 0 0)
(0 0 0)
(0 0 0)
(0 0 0)
(0 0 0)
(0 0 0)
(0 0 0)
(0 0 0)
(0 0 0)
(0 0 0)
(0 0 0)
(0 0 0)
(0 0 0)
(0 0 0)
(0 0 0)
(0 0 0)
(0 0 0)
(0 0 0)
(0 0 0)
(0 0 0)
(0 0 0)
(0 0 0)
(0 0 0)
(0 0 0)
(0 0 0)
(0 0 0)
(0 0 0)
(0 0 0)
(0 0 0)
(0 0 0)
(0 0 0)
(0 0 0)
(0 0 0)
(0 0 0)
(0 0 0)
(0 0 0)
(0 0 0)
(0 0 0)
(0 0 0)
(0 0 0)
(0 0 0)
(0 0 0)
(0 0 0)
(0 0 0)
(0 0 0)
(0 0 0)
(0 0 0)
(0 0 0)
(0 0 0)
(0 0 0)
(0 0 0)
(0 0 0)
(0 0 0)
(0 0 0)
(0 0 0)
(0 0 0)
(0 0 0)
(0 0 0)
(0 0 0)
(0 0 0)
(0 0 0)
(0 0 0)
(0 0 0)
(0 0 0)
(0 0 0)
(0 0 0)
(0 0 0)
(0 0 0)
(0 0 0)
(0 0 0)
(0 0 0)
(0 0 0)
(0 0 0)
(0 0 0)
(0 0 0)
(0 0 0)
(0 0 0)
(0 0 0)
(0 0 0)
(0 0 0)
(0 0 0)
(0 0 0)
(0 0 0)
(0 0 0)
(0 0 0)
(0 0 0)
(0 0 0)
(0 0 0)
(0 0 0)
(0 0 0)
(0 0 0)
(0 0 0)
(0 0 0)
(0 0 0)
(0 0 0)
(0 0 0)
(0 0 0)
(0 0 0)
(0 0 0)
(0 0 0)
(0 0 0)
(0 0 0)
(0 0 0)
(0 0 0)
(0 0 0)
(0 0 0)
(0 0 0)
(0 0 0)
(0 0 0)
(0 0 0)
(0 0 0)
(0 0 0)
(0 0 0)
(0 0 0)
(0 0 0)
(0 0 0)
(0 0 0)
(0 0 0)
(0 0 0)
(0 0 0)
(0 0 0)
(0 0 0)
(0 0 0)
(0 0 0)
(0 0 0)
(0 0 0)
(0 0 0)
(0 0 0)
(0 0 0)
(0 0 0)
(0 0.000277754 0)
(0 0.000279634 0)
(0 0.000210057 0)
(0 0.000166184 0)
(0 0.000226229 0)
(0 0.000107577 0)
(0 0.000233782 0)
(0 0.000239317 0)
(0 0.000139742 0)
(0 0.000195851 0)
(0 0.000117663 0)
(0 0.000113918 0)
(0 0.000107046 0)
(0 9.47196e-05 0)
(0 7.39218e-05 0)
(0 6.59956e-05 0)
(0 5.75818e-05 0)
(0 5.37046e-05 0)
(0 0.000220935 0)
(0 0.000193625 0)
(0 3.50447e-05 0)
(0 3.76862e-05 0)
(0 0.000208217 0)
(0 0.000142772 0)
(0 0.000261604 0)
(0 0.000275396 0)
(0 0.00026332 0)
(0 0.000232854 0)
(0 0.000118946 0)
(0 0.000154308 0)
(0 9.22634e-05 0)
(0 0.000111937 0)
(0 9.33778e-05 0)
(0 1.79742e-05 0)
(0 1.92326e-05 0)
(0 0.000271086 0)
(0 0.000274868 0)
(0 0.000286166 0)
(0 0.000220992 0)
(0 0.000216699 0)
(0 0.000219054 0)
(0 0.000203981 0)
(0 0.000183498 0)
(0 4.17741e-05 0)
(0 9.31762e-05 0)
(0 0.000152399 0)
(0 0.000109131 0)
(0 4.55848e-05 0)
(0 6.01701e-05 0)
(0 6.6911e-05 0)
(0 0.000129511 0)
(0 7.7718e-06 0)
(0 0.00348566 0)
(0 0.00359601 0)
(0 0.00342854 0)
(0 0.00353811 0)
(0 0.00337309 0)
(0 0.00348573 0)
(0 0.00331789 0)
(0 0.00342573 0)
(0 0.00326136 0)
(0 0.00336698 0)
(0 0.00320886 0)
(0 0.0033162 0)
(0 0.00316203 0)
(0 0.00326791 0)
(0 0.00311928 0)
(0 0.00322601 0)
(0 0.00307874 0)
(0 0.00318873 0)
(0 0.003042 0)
(0 0.00317387 0)
(0 0.00300389 0)
(0 0.00311934 0)
(0 0.00296592 0)
(0 0.00587142 0)
(0 0.00591621 0)
(0 0.00598718 0)
(0 0.00595615 0)
(0 0.00602408 0)
(0 0.00608051 0)
(0 0.00605375 0)
(0 0.00610797 0)
(0 0.00615538 0)
(0 0.00613145 0)
(0 0.00617705 0)
(0 0.0061965 0)
(0 0.00621683 0)
(0 0.00619262 0)
(0 0.00622929 0)
(0 0.00624887 0)
(0 0.00625868 0)
(0 0.00628015 0)
(0 0.00626192 0)
(0 0.00628117 0)
(0 0.00629346 0)
(0 0.0062917 0)
(0 0.00627454 0)
(0 0.0062809 0)
(0 0.00629486 0)
(0 0.00628192 0)
(0 0.00626377 0)
(0 0.00626264 0)
(0 0.00627591 0)
(0 0.00625475 0)
(0 0.0062404 0)
(0 0.00622967 0)
(0 0.00621507 0)
(0 0.00622083 0)
(0 0.00619417 0)
(0 0.00618675 0)
(0 0.00616361 0)
(0 0.00616467 0)
(0 0.00613542 0)
(0 0.00613156 0)
(0 0.00610289 0)
(0 0.00610399 0)
(0 0.00607018 0)
(0 0.00307906 0)
(0 0.00293511 0)
(0 0.00602958 0)
(0 0.00602865 0)
(0 0.00598626 0)
(0 0.00593549 0)
(0 0.00593948 0)
(0 0.00588879 0)
(0 0.00587947 0)
(0 0.0058321 0)
(0 0.00583365 0)
(0 0.00577575 0)
(0 0.00576848 0)
(0 0.00571163 0)
(0 0.0056433 0)
(0 0.0056442 0)
(0 0.00558192 0)
(0 0.00551421 0)
(0 0.00551337 0)
(0 0.00544904 0)
(0 0.00544075 0)
(0 0.0053779 0)
(0 0.00538203 0)
(0 0.00530732 0)
(0 0.00529652 0)
(0 0.00522505 0)
(0 0.00305038 0)
(0 0.00290745 0)
(0 0.00522921 0)
(0 0.0051475 0)
(0 0.005139 0)
(0 0.00506256 0)
(0 0.00497505 0)
(0 0.00498186 0)
(0 0.00489699 0)
(0 0.00488561 0)
(0 0.00481058 0)
(0 0.00481698 0)
(0 0.00473279 0)
(0 0.00472172 0)
(0 0.00464576 0)
(0 0.00465113 0)
(0 0.00456501 0)
(0 0.00455622 0)
(0 0.00447615 0)
(0 0.00438485 0)
(0 0.00439417 0)
(0 0.0043039 0)
(0 0.00421151 0)
(0 0.00422007 0)
(0 0.0041284 0)
(0 0.00411743 0)
(0 0.00303046 0)
(0 0.00288155 0)
(0 0.00413332 0)
(0 0.00404198 0)
(0 0.00404251 0)
(0 0.00395282 0)
(0 0.00300166 0)
(0 0.00285403 0)
(0 0.00273543 0)
(0 0.00271136 0)
(0 0.00259376 0)
(0 0.00257526 0)
(0 0.00245651 0)
(0 0.00244628 0)
(0 0.00232537 0)
(0 0.00232545 0)
(0 0.0022027 0)
(0 0.00219595 0)
(0 0.00208736 0)
(0 0.00208651 0)
(0 0.00198041 0)
(0 0.0019819 0)
(0 0.00187944 0)
(0 0.00188739 0)
(0 0.00178278 0)
(0 0.00180157 0)
(0 0.00169259 0)
(0 0.00171553 0)
(0 0.00160898 0)
(0 0.00162977 0)
(0 0.00153072 0)
(0 0.00155383 0)
(0 0.00146018 0)
(0 0.0039493 0)
(0 0.00148347 0)
(0 0.00139568 0)
(0 0.00386178 0)
(0 0.00142079 0)
(0 0.0013363 0)
(0 0.00136406 0)
(0 0.00127931 0)
(0 0.00385398 0)
(0 0.00297024 0)
(0 0.00197782 0)
(0 0.00218576 0)
(0 0.00376808 0)
(0 0.00375619 0)
(0 0.00367115 0)
(0 0.0036562 0)
(0 0.00373751 0)
(0 0.00165165 0)
(0 0.00363393 0)
(0 0.00371164 0)
(0 0.00355454 0)
(0 0.00353003 0)
(0 0.00345217 0)
(0 0.00150729 0)
(0 0.00342571 0)
(0 0.00334841 0)
(0 0.00332059 0)
(0 0.00367909 0)
(0 0.00324342 0)
(0 0.00321388 0)
(0 0.00312151 0)
(0 0.00308726 0)
(0 0.00324105 0)
(0 0.00320538 0)
(0 0.00335707 0)
(0 0.00332047 0)
(0 0.00346534 0)
(0 0.00343358 0)
(0 0.0035929 0)
(0 0.00353978 0)
(0 0.00368335 0)
(0 0.00363388 0)
(0 0.00377068 0)
(0 0.00372434 0)
(0 0.00387417 0)
(0 0.00313661 0)
(0 0.00310438 0)
(0 0.00317506 0)
(0 0.00380872 0)
(0 0.00394613 0)
(0 0.0036768 0)
(0 0.00306329 0)
(0 0.00312882 0)
(0 0.00299453 0)
(0 0.00388034 0)
(0 0.00401493 0)
(0 0.00295127 0)
(0 0.00288376 0)
(0 0.00283833 0)
(0 0.00394395 0)
(0 0.00407546 0)
(0 0.00277185 0)
(0 0.00272463 0)
(0 0.00399706 0)
(0 0.00412719 0)
(0 0.00265962 0)
(0 0.00261119 0)
(0 0.00404206 0)
(0 0.00417081 0)
(0 0.00254718 0)
(0 0.00259085 0)
(0 0.00249741 0)
(0 0.00255626 0)
(0 0.00301715 0)
(0 0.00407854 0)
(0 0.00420566 0)
(0 0.00394706 0)
(0 0.00244114 0)
(0 0.0024949 0)
(0 0.00238384 0)
(0 0.00410683 0)
(0 0.0042317 0)
(0 0.00232674 0)
(0 0.00227036 0)
(0 0.00412505 0)
(0 0.00424879 0)
(0 0.00221355 0)
(0 0.00413363 0)
(0 0.00425721 0)
(0 0.00215791 0)
(0 0.00332331 0)
(0 0.00210145 0)
(0 0.00413353 0)
(0 0.00425675 0)
(0 0.00204724 0)
(0 0.00199001 0)
(0 0.00437528 0)
(0 0.004376 0)
(0 0.00424627 0)
(0 0.00436595 0)
(0 0.00449086 0)
(0 0.00448039 0)
(0 0.0043461 0)
(0 0.00445847 0)
(0 0.00459259 0)
(0 0.00456662 0)
(0 0.00442482 0)
(0 0.00452768 0)
(0 0.00467109 0)
(0 0.00462973 0)
(0 0.0057916 0)
(0 0.00193713 0)
(0 0.00187963 0)
(0 0.00192774 0)
(0 0.00447176 0)
(0 0.00457112 0)
(0 0.00474289 0)
(0 0.004662 0)
(0 0.00450099 0)
(0 0.00459274 0)
(0 0.00474554 0)
(0 0.00467848 0)
(0 0.00451665 0)
(0 0.00459864 0)
(0 0.00475755 0)
(0 0.00467571 0)
(0 0.00124769 0)
(0 0.00483226 0)
(0 0.00475077 0)
(0 0.00459225 0)
(0 0.00466408 0)
(0 0.00382495 0)
(0 0.00181701 0)
(0 0.00186041 0)
(0 0.00177087 0)
(0 0.00482076 0)
(0 0.0047293 0)
(0 0.00455215 0)
(0 0.00463467 0)
(0 0.00479137 0)
(0 0.00469052 0)
(0 0.00453103 0)
(0 0.00457639 0)
(0 0.00474443 0)
(0 0.00463396 0)
(0 0.00429731 0)
(0 0.00445919 0)
(0 0.00452335 0)
(0 0.00468603 0)
(0 0.00457654 0)
(0 0.00441157 0)
(0 0.00446344 0)
(0 0.00462514 0)
(0 0.00451082 0)
(0 0.00315557 0)
(0 0.00401073 0)
(0 0.00198933 0)
(0 0.00434646 0)
(0 0.00439259 0)
(0 0.00455408 0)
(0 0.00443476 0)
(0 0.00459152 0)
(0 0.00447081 0)
(0 0.00431694 0)
(0 0.00435148 0)
(0 0.00450071 0)
(0 0.00437896 0)
(0 0.00423363 0)
(0 0.00425628 0)
(0 0.00170811 0)
(0 0.00166338 0)
(0 0.00439899 0)
(0 0.00427123 0)
(0 0.00411499 0)
(0 0.00414304 0)
(0 0.00428371 0)
(0 0.00415122 0)
(0 0.00398939 0)
(0 0.00401202 0)
(0 0.00415928 0)
(0 0.00401977 0)
(0 0.00384728 0)
(0 0.00387817 0)
(0 0.00402653 0)
(0 0.00388532 0)
(0 0.00371913 0)
(0 0.00374609 0)
(0 0.00388832 0)
(0 0.0037497 0)
(0 0.00361087 0)
(0 0.00361439 0)
(0 0.00160121 0)
(0 0.00388417 0)
(0 0.00155763 0)
(0 0.00347281 0)
(0 0.00348012 0)
(0 0.00149637 0)
(0 0.00333518 0)
(0 0.00334305 0)
(0 0.00145428 0)
(0 0.00139334 0)
(0 0.00143136 0)
(0 0.00319441 0)
(0 0.00320378 0)
(0 0.00334585 0)
(0 0.00321012 0)
(0 0.0031844 0)
(0 0.0030655 0)
(0 0.00307502 0)
(0 0.00135232 0)
(0 0.00141126 0)
(0 0.00129206 0)
(0 0.00292773 0)
(0 0.00293827 0)
(0 0.0032133 0)
(0 0.00125151 0)
(0 0.00119307 0)
(0 0.00278751 0)
(0 0.00279923 0)
(0 0.00264617 0)
(0 0.00265925 0)
(0 0.00115314 0)
(0 0.00109668 0)
(0 0.0025056 0)
(0 0.00252029 0)
(0 0.00266765 0)
(0 0.00253105 0)
(0 0.00238473 0)
(0 0.00239662 0)
(0 0.00248649 0)
(0 0.00105771 0)
(0 0.00100291 0)
(0 0.0010369 0)
(0 0.00253754 0)
(0 0.00240446 0)
(0 0.00226466 0)
(0 0.00227411 0)
(0 0.000944846 0)
(0 0.000973851 0)
(0 0.00350435 0)
(0 0.0032888 0)
(0 0.00213553 0)
(0 0.00214687 0)
(0 0.00161947 0)
(0 0.00172403 0)
(0 0.00163334 0)
(0 0.00173611 0)
(0 0.00164348 0)
(0 0.00174462 0)
(0 0.0016501 0)
(0 0.000964744 0)
(0 0.00101461 0)
(0 0.00253856 0)
(0 0.00283106 0)
(0 0.00154935 0)
(0 0.00155439 0)
(0 0.00200931 0)
(0 0.00202183 0)
(0 0.00174965 0)
(0 0.00321015 0)
(0 0.000883959 0)
(0 0.000908009 0)
(0 0.00184468 0)
(0 0.00188574 0)
(0 0.00189851 0)
(0 0.0014544 0)
(0 0.00145806 0)
(0 0.000922635 0)
(0 0.000967824 0)
(0 0.00184796 0)
(0 0.00194329 0)
(0 0.0018688 0)
(0 0.00136717 0)
(0 0.0014227 0)
(0 0.00145393 0)
(0 0.0013924 0)
(0 0.00148284 0)
(0 0.00154392 0)
(0 0.00157417 0)
(0 0.00163671 0)
(0 0.00166839 0)
(0 0.00173086 0)
(0 0.001768 0)
(0 0.00169762 0)
(0 0.00180413 0)
(0 0.00187498 0)
(0 0.00192025 0)
(0 0.00184234 0)
(0 0.00196715 0)
(0 0.00198935 0)
(0 0.00188103 0)
(0 0.00200925 0)
(0 0.00191232 0)
(0 0.00203923 0)
(0 0.00192921 0)
(0 0.00205514 0)
(0 0.00217107 0)
(0 0.00218889 0)
(0 0.00230798 0)
(0 0.00232989 0)
(0 0.00220356 0)
(0 0.00234698 0)
(0 0.00180969 0)
(0 0.00221349 0)
(0 0.0023564 0)
(0 0.0024491 0)
(0 0.00221426 0)
(0 0.00235256 0)
(0 0.00220014 0)
(0 0.00233347 0)
(0 0.00206609 0)
(0 0.00248731 0)
(0 0.00246718 0)
(0 0.00230351 0)
(0 0.00243617 0)
(0 0.0020297 0)
(0 0.00190694 0)
(0 0.00177677 0)
(0 0.00178553 0)
(0 0.000820636 0)
(0 0.000839768 0)
(0 0.00165469 0)
(0 0.00166459 0)
(0 0.00135868 0)
(0 0.00136139 0)
(0 0.00226406 0)
(0 0.00239684 0)
(0 0.00409159 0)
(0 0.00413038 0)
(0 0.000876984 0)
(0 0.000917704 0)
(0 0.00324196 0)
(0 0.00191129 0)
(0 0.00153429 0)
(0 0.00154555 0)
(0 0.00194455 0)
(0 0.00204045 0)
(0 0.00191682 0)
(0 0.00144343 0)
(0 0.00262465 0)
(0 0.00221761 0)
(0 0.00235051 0)
(0 0.000754254 0)
(0 0.000737168 0)
(0 0.000767003 0)
(0 0.000855367 0)
(0 0.00126204 0)
(0 0.0012641 0)
(0 0.00136137 0)
(0 0.00126363 0)
(0 0.00135846 0)
(0 0.00126039 0)
(0 0.00135238 0)
(0 0.00125386 0)
(0 0.00134277 0)
(0 0.00124412 0)
(0 0.00141776 0)
(0 0.00142999 0)
(0 0.00252903 0)
(0 0.00248254 0)
(0 0.00229926 0)
(0 0.00243511 0)
(0 0.00115537 0)
(0 0.00114586 0)
(0 0.000827637 0)
(0 0.000864102 0)
(0 0.0014073 0)
(0 0.00233471 0)
(0 0.00141751 0)
(0 0.00116599 0)
(0 0.00261567 0)
(0 0.00257631 0)
(0 0.0023713 0)
(0 0.00251552 0)
(0 0.00273925 0)
(0 0.00265636 0)
(0 0.00243402 0)
(0 0.00257997 0)
(0 0.00280502 0)
(0 0.00271901 0)
(0 0.002491 0)
(0 0.00263307 0)
(0 0.000778361 0)
(0 0.00086792 0)
(0 0.000673918 0)
(0 0.000658034 0)
(0 0.00288294 0)
(0 0.0027635 0)
(0 0.00252747 0)
(0 0.00265823 0)
(0 0.00203931 0)
(0 0.00213613 0)
(0 0.00130308 0)
(0 0.00131691 0)
(0 0.00132996 0)
(0 0.00289389 0)
(0 0.0027895 0)
(0 0.00254109 0)
(0 0.00266916 0)
(0 0.00155204 0)
(0 0.00291739 0)
(0 0.00279577 0)
(0 0.00254497 0)
(0 0.00267219 0)
(0 0.00105699 0)
(0 0.00104809 0)
(0 0.000789232 0)
(0 0.00241655 0)
(0 0.00254199 0)
(0 0.00279603 0)
(0 0.00266747 0)
(0 0.00291908 0)
(0 0.00279691 0)
(0 0.00254071 0)
(0 0.00267569 0)
(0 0.00292798 0)
(0 0.00280966 0)
(0 0.00255057 0)
(0 0.00268454 0)
(0 0.00293721 0)
(0 0.00281052 0)
(0 0.00255383 0)
(0 0.00267712 0)
(0 0.000956224 0)
(0 0.00350255 0)
(0 0.00293011 0)
(0 0.00279155 0)
(0 0.00253677 0)
(0 0.00264906 0)
(0 0.00119185 0)
(0 0.000774742 0)
(0 0.00074042 0)
(0 0.000807107 0)
(0 0.00059838 0)
(0 0.000582821 0)
(0 0.00289985 0)
(0 0.00275646 0)
(0 0.00250278 0)
(0 0.00261031 0)
(0 0.00235288 0)
(0 0.00245933 0)
(0 0.00271456 0)
(0 0.00256514 0)
(0 0.000881829 0)
(0 0.000850426 0)
(0 0.000946138 0)
(0 0.000913397 0)
(0 0.00100773 0)
(0 0.000977339 0)
(0 0.00106972 0)
(0 0.00104601 0)
(0 0.00113932 0)
(0 0.00112193 0)
(0 0.00123204 0)
(0 0.00120647 0)
(0 0.00131172 0)
(0 0.00129581 0)
(0 0.00140217 0)
(0 0.00139123 0)
(0 0.0012853 0)
(0 0.00138295 0)
(0 0.00127779 0)
(0 0.00137669 0)
(0 0.00127402 0)
(0 0.00137596 0)
(0 0.00127158 0)
(0 0.00137988 0)
(0 0.00127333 0)
(0 0.00138543 0)
(0 0.00128129 0)
(0 0.00139548 0)
(0 0.00129247 0)
(0 0.0014099 0)
(0 0.00130744 0)
(0 0.00142931 0)
(0 0.00153379 0)
(0 0.00155602 0)
(0 0.00145245 0)
(0 0.00148801 0)
(0 0.00166306 0)
(0 0.00158194 0)
(0 0.00147865 0)
(0 0.00149456 0)
(0 0.00161155 0)
(0 0.00150681 0)
(0 0.00164599 0)
(0 0.00154537 0)
(0 0.00174569 0)
(0 0.00137043 0)
(0 0.00168532 0)
(0 0.0015877 0)
(0 0.00116348 0)
(0 0.00281611 0)
(0 0.00267106 0)
(0 0.0024191 0)
(0 0.00252933 0)
(0 0.00277606 0)
(0 0.00263549 0)
(0 0.00238559 0)
(0 0.00248816 0)
(0 0.00273371 0)
(0 0.00258369 0)
(0 0.00233603 0)
(0 0.00243123 0)
(0 0.00168929 0)
(0 0.00267316 0)
(0 0.00252209 0)
(0 0.00227941 0)
(0 0.00237272 0)
(0 0.00212763 0)
(0 0.00222326 0)
(0 0.00246223 0)
(0 0.00231444 0)
(0 0.000877084 0)
(0 0.000783402 0)
(0 0.00207439 0)
(0 0.00216756 0)
(0 0.00240026 0)
(0 0.00225552 0)
(0 0.00142952 0)
(0 0.00141373 0)
(0 0.00151466 0)
(0 0.00119157 0)
(0 0.00202445 0)
(0 0.00211515 0)
(0 0.0021324 0)
(0 0.00223011 0)
(0 0.00223194 0)
(0 0.00232671 0)
(0 0.00232616 0)
(0 0.00242223 0)
(0 0.00241947 0)
(0 0.00251676 0)
(0 0.00251168 0)
(0 0.00261038 0)
(0 0.00260246 0)
(0 0.0027027 0)
(0 0.0026921 0)
(0 0.00279319 0)
(0 0.0027798 0)
(0 0.00288174 0)
(0 0.00296812 0)
(0 0.00208905 0)
(0 0.000526133 0)
(0 0.000511071 0)
(0 0.00172532 0)
(0 0.000702209 0)
(0 0.000959068 0)
(0 0.00149552 0)
(0 0.00159753 0)
(0 0.00115276 0)
(0 0.000950627 0)
(0 0.000688144 0)
(0 0.000656189 0)
(0 0.00102932 0)
(0 0.00188413 0)
(0 0.0019754 0)
(0 0.00141713 0)
(0 0.00255917 0)
(0 0.00261313 0)
(0 0.00120677 0)
(0 0.00108395 0)
(0 0.00106446 0)
(0 0.00045777 0)
(0 0.000443229 0)
(0 0.00139481 0)
(0 0.00095916 0)
(0 0.000467203 0)
(0 0.00248018 0)
(0 0.00222418 0)
(0 0.0030705 0)
(0 0.0017434 0)
(0 0.00183406 0)
(0 0.00206011 0)
(0 0.00191944 0)
(0 0.00169376 0)
(0 0.00177955 0)
(0 0.00199715 0)
(0 0.00185814 0)
(0 0.00164254 0)
(0 0.001721 0)
(0 0.000604353 0)
(0 0.000575133 0)
(0 0.00086138 0)
(0 0.000866626 0)
(0 0.000853494 0)
(0 0.00157475 0)
(0 0.00167778 0)
(0 0.000828595 0)
(0 0.000393242 0)
(0 0.000379714 0)
(0 0.00098022 0)
(0 0.00241426 0)
(0 0.00254996 0)
(0 0.00250146 0)
(0 0.00263324 0)
(0 0.00257291 0)
(0 0.00270502 0)
(0 0.00263572 0)
(0 0.00276677 0)
(0 0.00269041 0)
(0 0.00284271 0)
(0 0.00281309 0)
(0 0.00272962 0)
(0 0.00261036 0)
(0 0.00264295 0)
(0 0.0025248 0)
(0 0.0025508 0)
(0 0.00243418 0)
(0 0.00245572 0)
(0 0.0023422 0)
(0 0.00275772 0)
(0 0.0023602 0)
(0 0.00225057 0)
(0 0.00247266 0)
(0 0.00150967 0)
(0 0.0015896 0)
(0 0.0016477 0)
(0 0.00093447 0)
(0 0.000939063 0)
(0 0.000843089 0)
(0 0.000757324 0)
(0 0.000748235 0)
(0 0.000860275 0)
(0 0.000523532 0)
(0 0.000497413 0)
(0 0.000548414 0)
(0 0.0023743 0)
(0 0.00248616 0)
(0 0.00181731 0)
(0 0.00170558 0)
(0 0.00170682 0)
(0 0.00160048 0)
(0 0.00159131 0)
(0 0.00148503 0)
(0 0.0014626 0)
(0 0.0013509 0)
(0 0.00137317 0)
(0 0.00123818 0)
(0 0.00126375 0)
(0 0.00131443 0)
(0 0.00113143 0)
(0 0.00116284 0)
(0 0.00103115 0)
(0 0.00106878 0)
(0 0.000928863 0)
(0 0.000947807 0)
(0 0.00223307 0)
(0 0.00214563 0)
(0 0.00033313 0)
(0 0.000320413 0)
(0 0.000959302 0)
(0 0.00097265 0)
(0 0.00206786 0)
(0 0.000362121 0)
(0 0.000303559 0)
(0 0.00213019 0)
(0 0.00204763 0)
(0 0.00205827 0)
(0 0.00196461 0)
(0 0.00138097 0)
(0 0.00146245 0)
(0 0.000822973 0)
(0 0.000838983 0)
(0 0.000950629 0)
(0 0.000850038 0)
(0 0.000265475 0)
(0 0.0019578 0)
(0 0.0018783 0)
(0 0.000881058 0)
(0 0.000986414 0)
(0 0.000732708 0)
(0 0.00105391 0)
(0 0.00106959 0)
(0 0.00115095 0)
(0 0.00165175 0)
(0 0.00175617 0)
(0 0.000805711 0)
(0 0.000340397 0)
(0 0.00028235 0)
(0 0.000314139 0)
(0 0.00188213 0)
(0 0.00180036 0)
(0 0.00179655 0)
(0 0.00172259 0)
(0 0.00171982 0)
(0 0.00164801 0)
(0 0.00164671 0)
(0 0.00157728 0)
(0 0.00157754 0)
(0 0.00151059 0)
(0 0.00232137 0)
(0 0.000765011 0)
(0 0.00167062 0)
(0 0.00154056 0)
(0 0.00133482 0)
(0 0.00140839 0)
(0 0.00160817 0)
(0 0.00147579 0)
(0 0.00128243 0)
(0 0.00135049 0)
(0 0.00153556 0)
(0 0.00141277 0)
(0 0.00122802 0)
(0 0.00129237 0)
(0 0.0011665 0)
(0 0.00125084 0)
(0 0.000662107 0)
(0 0.000653499 0)
(0 0.000977506 0)
(0 0.00212462 0)
(0 0.00221377 0)
(0 0.00110887 0)
(0 0.00117474 0)
(0 0.00142981 0)
(0 0.00126617 0)
(0 0.00138867 0)
(0 0.00121284 0)
(0 0.00134327 0)
(0 0.00116236 0)
(0 0.00129834 0)
(0 0.00103506 0)
(0 0.00184748 0)
(0 0.00126454 0)
(0 0.00135401 0)
(0 0.00135288 0)
(0 0.00129508 0)
(0 0.000637182 0)
(0 0.000924779 0)
(0 0.000786713 0)
(0 0.000445694 0)
(0 0.00127859 0)
(0 0.00151178 0)
(0 0.00238442 0)
(0 0.00249721 0)
(0 0.0026015 0)
(0 0.00261482 0)
(0 0.00272103 0)
(0 0.000673209 0)
(0 0.000695487 0)
(0 0.00136558 0)
(0 0.00146054 0)
(0 0.00111594 0)
(0 0.00125194 0)
(0 0.0016469 0)
(0 0.000708112 0)
(0 0.000820939 0)
(0 0.000722439 0)
(0 0.00170052 0)
(0 0.00104556 0)
(0 0.000947792 0)
(0 0.000833633 0)
(0 0.000734581 0)
(0 0.000544552 0)
(0 0.000993311 0)
(0 0.00105901 0)
(0 0.00273769 0)
(0 0.00284527 0)
(0 0.0016773 0)
(0 0.00261453 0)
(0 0.00136732 0)
(0 0.000586634 0)
(0 0.000611295 0)
(0 0.00117638 0)
(0 0.00101286 0)
(0 0.000914476 0)
(0 0.000983113 0)
(0 0.000880056 0)
(0 0.000956883 0)
(0 0.000854372 0)
(0 0.000654183 0)
(0 0.000256351 0)
(0 0.000282687 0)
(0 0.00330468 0)
(0 0.00249279 0)
(0 0.00310367 0)
(0 0.0019344 0)
(0 0.0017998 0)
(0 0.00188062 0)
(0 0.00263465 0)
(0 0.0027729 0)
(0 0.00304188 0)
(0 0.00123413 0)
(0 0.00111821 0)
(0 0.000945934 0)
(0 0.00100582 0)
(0 0.00293239 0)
(0 0.00296219 0)
(0 0.00211238 0)
(0 0.00219861 0)
(0 0.00230069 0)
(0 0.00228316 0)
(0 0.0023862 0)
(0 0.00217901 0)
(0 0.00226221 0)
(0 0.0026862 0)
(0 0.00204308 0)
(0 0.00289243 0)
(0 0.00153041 0)
(0 0.00262645 0)
(0 0.00269815 0)
(0 0.00284482 0)
(0 0.00290877 0)
(0 0.0027633 0)
(0 0.00305447 0)
(0 0.00296465 0)
(0 0.00282238 0)
(0 0.00298874 0)
(0 0.00319409 0)
(0 0.00312844 0)
(0 0.00182703 0)
(0 0.00470996 0)
(0 0.00402189 0)
(0 0.00400981 0)
(0 0.00414411 0)
(0 0.00412611 0)
(0 0.00425774 0)
(0 0.0042357 0)
(0 0.00436454 0)
(0 0.00433967 0)
(0 0.00446589 0)
(0 0.00443779 0)
(0 0.00431285 0)
(0 0.00440772 0)
(0 0.00428483 0)
(0 0.00456164 0)
(0 0.00437615 0)
(0 0.00425549 0)
(0 0.00459005 0)
(0 0.00468333 0)
(0 0.00471263 0)
(0 0.00434238 0)
(0 0.00422444 0)
(0 0.00480244 0)
(0 0.00483163 0)
(0 0.00491822 0)
(0 0.00494578 0)
(0 0.00488419 0)
(0 0.00430611 0)
(0 0.00419116 0)
(0 0.00503091 0)
(0 0.00505731 0)
(0 0.00513938 0)
(0 0.00516528 0)
(0 0.00442112 0)
(0 0.00437932 0)
(0 0.00524427 0)
(0 0.00527051 0)
(0 0.00518845 0)
(0 0.00529413 0)
(0 0.00449124 0)
(0 0.00410743 0)
(0 0.00407548 0)
(0 0.00537356 0)
(0 0.00539691 0)
(0 0.00531486 0)
(0 0.00541642 0)
(0 0.00549555 0)
(0 0.00551356 0)
(0 0.004444 0)
(0 0.00543083 0)
(0 0.00552601 0)
(0 0.00560472 0)
(0 0.00561505 0)
(0 0.00553441 0)
(0 0.00562248 0)
(0 0.00554061 0)
(0 0.00562705 0)
(0 0.00570763 0)
(0 0.00571135 0)
(0 0.00562893 0)
(0 0.00570938 0)
(0 0.00578857 0)
(0 0.00578217 0)
(0 0.00569249 0)
(0 0.00576894 0)
(0 0.0058483 0)
(0 0.00583016 0)
(0 0.00573449 0)
(0 0.00580459 0)
(0 0.00588716 0)
(0 0.00586122 0)
(0 0.00577529 0)
(0 0.00582943 0)
(0 0.00574054 0)
(0 0.00579097 0)
(0 0.00587527 0)
(0 0.0058364 0)
(0 0.00574587 0)
(0 0.00579004 0)
(0 0.00588392 0)
(0 0.00582613 0)
(0 0.00573885 0)
(0 0.00576897 0)
(0 0.00584766 0)
(0 0.005789 0)
(0 0.00570963 0)
(0 0.00572272 0)
(0 0.005799 0)
(0 0.00572799 0)
(0 0.00564951 0)
(0 0.00564967 0)
(0 0.00572387 0)
(0 0.00564224 0)
(0 0.00556342 0)
(0 0.00555375 0)
(0 0.00562755 0)
(0 0.00553691 0)
(0 0.00545748 0)
(0 0.00543538 0)
(0 0.00551202 0)
(0 0.00540714 0)
(0 0.00548283 0)
(0 0.00537648 0)
(0 0.0054515 0)
(0 0.00534186 0)
(0 0.00526607 0)
(0 0.00522845 0)
(0 0.00529935 0)
(0 0.00518311 0)
(0 0.00524819 0)
(0 0.00511432 0)
(0 0.00519262 0)
(0 0.00506942 0)
(0 0.00513489 0)
(0 0.00500492 0)
(0 0.00506308 0)
(0 0.00491249 0)
(0 0.00498191 0)
(0 0.00484768 0)
(0 0.00490018 0)
(0 0.00476335 0)
(0 0.00471592 0)
(0 0.00535418 0)
(0 0.00493704 0)
(0 0.00511416 0)
(0 0.00481259 0)
(0 0.00466935 0)
(0 0.00398817 0)
(0 0.00395567 0)
(0 0.00403903 0)
(0 0.00391871 0)
(0 0.00383232 0)
(0 0.00379491 0)
(0 0.00370684 0)
(0 0.00366692 0)
(0 0.0035801 0)
(0 0.00353795 0)
(0 0.00555487 0)
(0 0.00521261 0)
(0 0.00531557 0)
(0 0.00471989 0)
(0 0.00345188 0)
(0 0.00340943 0)
(0 0.00457158 0)
(0 0.00486281 0)
(0 0.00455256 0)
(0 0.00399736 0)
(0 0.00511756 0)
(0 0.00348623 0)
(0 0.00332266 0)
(0 0.00328235 0)
(0 0.00462334 0)
(0 0.0044998 0)
(0 0.0048551 0)
(0 0.00319436 0)
(0 0.00315602 0)
(0 0.00447055 0)
(0 0.00441633 0)
(0 0.00306696 0)
(0 0.00303073 0)
(0 0.0029405 0)
(0 0.00290676 0)
(0 0.00281591 0)
(0 0.00278351 0)
(0 0.00323008 0)
(0 0.00269294 0)
(0 0.00266158 0)
(0 0.00399454 0)
(0 0.00452515 0)
(0 0.0036155 0)
(0 0.0046054 0)
(0 0.002741 0)
(0 0.00431199 0)
(0 0.00425727 0)
(0 0.00465913 0)
(0 0.00257121 0)
(0 0.00254069 0)
(0 0.00454745 0)
(0 0.00444296 0)
(0 0.00470878 0)
(0 0.0047642 0)
(0 0.00310957 0)
(0 0.00448523 0)
(0 0.00438193 0)
(0 0.00245011 0)
(0 0.0024212 0)
(0 0.00415076 0)
(0 0.00409862 0)
(0 0.00420527 0)
(0 0.00404996 0)
(0 0.0041569 0)
(0 0.00400366 0)
(0 0.00410947 0)
(0 0.00395873 0)
(0 0.00406405 0)
(0 0.00232968 0)
(0 0.00230326 0)
(0 0.0022104 0)
(0 0.00218608 0)
(0 0.00209266 0)
(0 0.00206941 0)
(0 0.00197641 0)
(0 0.00481059 0)
(0 0.00486855 0)
(0 0.00215243 0)
(0 0.00194791 0)
(0 0.00441873 0)
(0 0.00431705 0)
(0 0.00247419 0)
(0 0.00491101 0)
(0 0.00497113 0)
(0 0.00420546 0)
(0 0.00427531 0)
(0 0.00593865 0)
(0 0.00453473 0)
(0 0.00569041 0)
(0 0.00531515 0)
(0 0.00527705 0)
(0 0.00537641 0)
(0 0.00533367 0)
(0 0.00542891 0)
(0 0.00547025 0)
(0 0.00551825 0)
(0 0.00555994 0)
(0 0.00474907 0)
(0 0.00567492 0)
(0 0.00575619 0)
(0 0.00573561 0)
(0 0.00581239 0)
(0 0.00578627 0)
(0 0.00583273 0)
(0 0.00588363 0)
(0 0.00590563 0)
(0 0.00267129 0)
(0 0.00490876 0)
(0 0.00172661 0)
(0 0.00162244 0)
(0 0.00183203 0)
(0 0.0059592 0)
(0 0.00600737 0)
(0 0.00602249 0)
(0 0.0060671 0)
(0 0.00607823 0)
(0 0.00611687 0)
(0 0.00610255 0)
(0 0.000566429 0)
(0 0.00055477 0)
(0 0.000572017 0)
(0 0.0046761 0)
(0 0.00457988 0)
(0 0.00473021 0)
(0 0.00305751 0)
(0 0.00320151 0)
(0 0.0032899 0)
(0 0.00343108 0)
(0 0.00351441 0)
(0 0.00365077 0)
(0 0.00356622 0)
(0 0.00315897 0)
(0 0.00327483 0)
(0 0.00338448 0)
(0 0.00349227 0)
(0 0.00359629 0)
(0 0.00369698 0)
(0 0.00359133 0)
(0 0.00379172 0)
(0 0.00368287 0)
(0 0.00113498 0)
(0 0.00219899 0)
(0 0.00208979 0)
(0 0.00193389 0)
(0 0.00182035 0)
(0 0.00166368 0)
(0 0.00154552 0)
(0 0.00170097 0)
(0 0.00138884 0)
(0 0.00151002 0)
(0 0.00294321 0)
(0 0.000341425 0)
(0 0.00120721 0)
(0 0.00261144 0)
(0 0.00324165 0)
(0 0.000284963 0)
(0 0.000288085 0)
(0 0.000228629 0)
(0 0.00228425 0)
(0 0.00215609 0)
(0 0.002025 0)
(0 0.0018921 0)
(0 0.00176478 0)
(0 0.0016286 0)
(0 0.00175628 0)
(0 0.00150424 0)
(0 0.00163514 0)
(0 0.00149033 0)
(0 0.00162566 0)
(0 0.00135498 0)
(0 0.00150119 0)
(0 0.00161652 0)
(0 0.00393691 0)
(0 0.00103831 0)
(0 0.00212155 0)
(0 0.00164117 0)
(0 0.00474105 0)
(0 0.00485605 0)
(0 0.00488037 0)
(0 0.0049919 0)
(0 0.00500987 0)
(0 0.00496331 0)
(0 0.00509625 0)
(0 0.00506453 0)
(0 0.00337559 0)
(0 0.00375775 0)
(0 0.0039494 0)
(0 0.00164972 0)
(0 0.00292053 0)
(0 0.00290143 0)
(0 0.00346864 0)
(0 0.00116729 0)
(0 0.00348993 0)
(0 0.00369534 0)
(0 0.00359332 0)
(0 0.00379735 0)
(0 0.0036976 0)
(0 0.00498039 0)
(0 0.00505127 0)
(0 0.00511901 0)
(0 0.00518444 0)
(0 0.00524825 0)
(0 0.00530738 0)
(0 0.00524321 0)
(0 0.00359366 0)
(0 0.0034592 0)
(0 0.00202843 0)
(0 0.00349885 0)
(0 0.00234632 0)
(0 0.00232076 0)
(0 0.00246284 0)
(0 0.00150739 0)
(0 0.00140717 0)
(0 0.00126846 0)
(0 0.00187518 0)
(0 0.00177158 0)
(0 0.00161908 0)
(0 0.00151062 0)
(0 0.00136039 0)
(0 0.00304301 0)
(0 0.00587866 0)
(0 0.0042076 0)
(0 0.00083376 0)
(0 0.00319116 0)
(0 0.00330509 0)
(0 0.00435177 0)
(0 0.00401747 0)
(0 0.0014753 0)
(0 0.0056834 0)
(0 0.00176198 0)
(0 0.00489578 0)
(0 0.0050192 0)
(0 0.00490362 0)
(0 0.00166667 0)
(0 0.00139981 0)
(0 0.00349464 0)
(0 0.00537507 0)
(0 0.00527103 0)
(0 0.00528982 0)
(0 0.00518453 0)
(0 0.00520111 0)
(0 0.00509456 0)
(0 0.00507325 0)
(0 0.00510867 0)
(0 0.00521225 0)
(0 0.00498437 0)
(0 0.00496062 0)
(0 0.00511419 0)
(0 0.00521296 0)
(0 0.00518327 0)
(0 0.00203944 0)
(0 0.00381825 0)
(0 0.00400211 0)
(0 0.0038811 0)
(0 0.00386406 0)
(0 0.0037448 0)
(0 0.00372111 0)
(0 0.00376192 0)
(0 0.00362696 0)
(0 0.00364391 0)
(0 0.00351099 0)
(0 0.00352763 0)
(0 0.00339888 0)
(0 0.00341239 0)
(0 0.00337429 0)
(0 0.00326539 0)
(0 0.00353039 0)
(0 0.00341175 0)
(0 0.0035183 0)
(0 0.00339785 0)
(0 0.00349589 0)
(0 0.00337524 0)
(0 0.00346474 0)
(0 0.00328643 0)
(0 0.000491699 0)
(0 0.000662423 0)
(0 0.000650417 0)
(0 0.000732173 0)
(0 0.000721885 0)
(0 0.00620093 0)
(0 0.00616122 0)
(0 0.00616474 0)
(0 0.00612096 0)
(0 0.00612123 0)
(0 0.00607326 0)
(0 0.00607212 0)
(0 0.00611908 0)
(0 0.00601864 0)
(0 0.00601826 0)
(0 0.00606964 0)
(0 0.00611347 0)
(0 0.00603253 0)
(0 0.00608466 0)
(0 0.000844048 0)
(0 0.000744478 0)
(0 0.000614192 0)
(0 0.00591726 0)
(0 0.00583451 0)
(0 0.00587427 0)
(0 0.00578819 0)
(0 0.00582467 0)
(0 0.00572977 0)
(0 0.00319509 0)
(0 0.00151217 0)
(0 0.00152254 0)
(0 0.0016237 0)
(0 0.0016287 0)
(0 0.00173645 0)
(0 0.00152071 0)
(0 0.0017414 0)
(0 0.00185107 0)
(0 0.00184756 0)
(0 0.00196423 0)
(0 0.00196532 0)
(0 0.00208489 0)
(0 0.00208909 0)
(0 0.00196885 0)
(0 0.00209548 0)
(0 0.00197425 0)
(0 0.00210542 0)
(0 0.00222674 0)
(0 0.00224044 0)
(0 0.00211759 0)
(0 0.0022548 0)
(0 0.00213264 0)
(0 0.00226801 0)
(0 0.00215235 0)
(0 0.00228826 0)
(0 0.00217758 0)
(0 0.00231682 0)
(0 0.00220616 0)
(0 0.00234718 0)
(0 0.00223717 0)
(0 0.00238041 0)
(0 0.00226897 0)
(0 0.00241813 0)
(0 0.00231093 0)
(0 0.00246074 0)
(0 0.00235969 0)
(0 0.0022107 0)
(0 0.00250597 0)
(0 0.00239424 0)
(0 0.00261454 0)
(0 0.00392642 0)
(0 0.00305658 0)
(0 0.00609417 0)
(0 0.00179148 0)
(0 0.00384196 0)
(0 0.00369442 0)
(0 0.00381801 0)
(0 0.00366459 0)
(0 0.00378667 0)
(0 0.00354453 0)
(0 0.00362493 0)
(0 0.00333982 0)
(0 0.00342068 0)
(0 0.000786572 0)
(0 0.000837252 0)
(0 0.00089683 0)
(0 0.00538053 0)
(0 0.00564748 0)
(0 0.00558822 0)
(0 0.00252887 0)
(0 0.00155793 0)
(0 0.00245813 0)
(0 0.00341281 0)
(0 0.00150472 0)
(0 0.00142419 0)
(0 0.00157695 0)
(0 0.000743761 0)
(0 0.00191652 0)
(0 0.00185902 0)
(0 0.000976403 0)
(0 0.00333184 0)
(0 0.00326893 0)
(0 0.00366021 0)
(0 0.00595898 0)
(0 0.00366999 0)
(0 0.00353858 0)
(0 0.00487422 0)
(0 0.00484855 0)
(0 0.00493096 0)
(0 0.00482002 0)
(0 0.00220624 0)
(0 0.00116428 0)
(0 0.00297079 0)
(0 0.00391776 0)
(0 0.00401948 0)
(0 0.0041677 0)
(0 0.00411517 0)
(0 0.0042655 0)
(0 0.0042072 0)
(0 0.00435702 0)
(0 0.00429536 0)
(0 0.00444277 0)
(0 0.00437813 0)
(0 0.00452267 0)
(0 0.00445533 0)
(0 0.00459564 0)
(0 0.00452464 0)
(0 0.00159081 0)
(0 0.0034606 0)
(0 0.00250005 0)
(0 0.00463438 0)
(0 0.00478537 0)
(0 0.00448056 0)
(0 0.00487642 0)
(0 0.00493225 0)
(0 0.00501969 0)
(0 0.00507225 0)
(0 0.00515754 0)
(0 0.00271884 0)
(0 0.00577333 0)
(0 0.00128549 0)
(0 0.00221338 0)
(0 0.00107565 0)
(0 0.00215148 0)
(0 0.000734896 0)
(0 0.00519482 0)
(0 0.00516218 0)
(0 0.00227933 0)
(0 0.00262458 0)
(0 0.00099827 0)
(0 0.00062196 0)
(0 0.00239042 0)
(0 0.00228096 0)
(0 0.00106638 0)
(0 0.00119679 0)
(0 0.00465752 0)
(0 0.00612154 0)
(0 0.00489254 0)
(0 0.00573756 0)
(0 0.00536064 0)
(0 0.00238979 0)
(0 0.00323171 0)
(0 0.00502146 0)
(0 0.00490574 0)
(0 0.00325221 0)
(0 0.000806766 0)
(0 0.00182467 0)
(0 0.00374285 0)
(0 0.00137269 0)
(0 0.00149978 0)
(0 0.0039003 0)
(0 0.00380073 0)
(0 0.000934734 0)
(0 0.000835419 0)
(0 0.00458497 0)