/*--------------------------------*- C++ -*----------------------------------*\
| =========                 |                                                 |
| \\      /  F ield         | OpenFOAM: The Open Source CFD Toolbox           |
|  \\    /   O peration     | Version:  v2012                                 |
|   \\  /    A nd           | Website:  www.openfoam.com                      |
|    \\/     M anipulation  |                                                 |
\*---------------------------------------------------------------------------*/
FoamFile
{
    version     2.0;
    format      ascii;
    class       volScalarField;
    location    "350";
    object      k_0;
}
// * * * * * * * * * * * * * * * * * * * * * * * * * * * * * * * * * * * * * //

dimensions      [0 2 -2 0 0 0 0];


internalField   nonuniform List<scalar> 
10042
(
0.00014734
0.000148239
0.000148442
0.0001585
0.0767597
0.000148374
0.0845843
0.0611677
0.000147471
0.000147926
0.0274286
0.000158354
0.00014466
0.000144413
0.000151587
0.000148111
0.000148056
0.000149697
0.000147364
0.000171687
0.000147187
0.000594998
0.000145441
0.000145253
0.000148286
0.0001608
0.000148787
0.000150254
0.000147306
0.000149523
0.000148045
0.00601347
0.000147998
0.000149436
0.000156538
0.000145334
0.000159739
0.0001659
0.00014533
0.000158227
0.000172636
0.000150977
0.0844517
0.000148088
0.0765185
0.000179386
0.000149191
0.000195148
0.000158399
0.000178567
0.000149028
0.000150664
0.00015096
0.000152648
0.000159781
0.000148326
0.00014735
0.000149084
0.000149387
0.000150618
0.000148205
0.000147934
0.000156748
0.000148331
0.000148964
0.000149455
0.000148325
0.000166128
0.0445927
0.000147459
0.000152518
0.000174045
0.000148111
0.000157662
0.000148237
0.000145254
0.0768197
0.000147427
0.000156939
0.0788125
0.000157646
0.0751897
0.000148209
0.000150284
0.000148344
0.000149371
0.000147219
0.000184423
0.000147776
0.000147216
0.000149364
0.0743274
0.000150453
0.000150345
0.000149371
0.000147688
0.000147454
0.000147467
0.000157565
0.000147505
0.000149933
0.000179796
0.0797819
0.000149289
0.000149915
0.000165801
0.000147388
0.000147413
0.000147244
0.000144545
0.000145881
0.000147004
0.000155325
0.039138
0.000148932
0.000147014
0.000147605
0.000147396
0.000147651
0.0317202
0.000147738
0.0628532
0.00014825
0.000147813
0.000179801
0.000148211
0.0541442
0.000158865
0.000165487
0.000147161
0.00015742
0.000148125
0.0334993
0.000213418
0.000147489
0.000169552
0.0222724
0.000149405
0.000196081
0.000186591
0.000150169
0.000147588
0.000149579
0.00018957
0.000148939
0.000146992
0.000170712
0.00014582
0.000147565
0.000154373
0.000147706
0.000149676
0.0555802
0.034848
0.000149166
0.000144623
0.00014982
0.000147878
0.000169423
0.012653
0.022141
0.000192912
0.000147831
0.000147676
0.000148553
0.000148052
0.000165943
0.0145403
0.00569358
0.0383083
0.000151444
0.000146803
0.0697828
0.00017466
0.000160461
0.0916085
0.0257702
0.000148175
0.000167461
0.000160675
0.000150102
0.00870535
0.000148521
0.000158655
0.000150746
0.0325457
0.000222147
0.000148776
0.0228081
0.000153376
0.000308753
0.000149586
0.0567929
0.0518551
0.0001891
0.0433549
0.000156235
0.000147446
0.000144637
0.000152035
0.000159861
0.000148881
0.000146985
0.000174645
0.000148457
0.000146106
0.00037112
0.000148961
0.00014971
0.000149581
0.0127206
0.000148449
0.000165068
0.000191181
0.000149758
0.00022226
0.000148006
0.000147818
0.00017386
0.000146424
0.000155517
0.000150071
0.0002012
0.000166881
0.000153793
0.000161922
0.00337435
0.000146999
0.000198777
0.000153187
0.0001475
0.000172916
0.000146855
0.00015312
0.000148631
0.000154688
0.00014628
0.000144398
0.000152573
0.000158961
0.000147882
0.000148269
0.00014836
0.000155399
0.000146987
0.000148101
0.000145313
0.000150115
0.00015198
0.000149772
0.000144659
0.000147383
0.00015285
0.000210333
0.000193043
0.016618
0.000160617
0.000160461
0.000151828
0.000181466
0.0910005
0.000152076
0.000147402
0.000144558
0.000151898
0.000146224
0.00199486
0.00015319
0.000147187
0.000149637
0.000160419
0.000152137
0.000188593
0.000160545
0.000189906
0.000153469
0.00015892
0.000146175
0.000156333
0.000149043
0.000161273
0.000147571
0.000160823
0.0373389
0.000146069
0.000148068
0.0914387
0.000179519
0.000148609
0.000148198
0.000152529
0.0930978
0.000173586
0.000190567
0.000149136
0.000144622
0.00014702
0.000147558
0.001156
0.000147287
0.000148168
0.000146804
0.000148012
0.000167308
0.000151961
0.000171422
0.0892491
0.000150268
0.0942203
0.000146952
0.000155978
0.000148729
0.0149905
0.000180382
0.0075132
0.0246197
0.00014519
0.000153265
0.000147507
0.000152316
0.000161931
0.000149574
0.000160857
0.000145828
0.000144704
0.000148193
0.000172555
0.000149882
0.000152807
0.000147968
0.000151723
0.0296115
0.000146981
0.000149098
0.000147755
0.000148169
0.000164846
0.000189583
0.000160435
0.0597577
0.000167503
0.00015766
0.000148042
0.000144284
0.000149743
0.000149766
0.0105291
0.000147578
0.000149463
0.00020488
0.000147022
0.000153253
0.000150515
0.0002085
0.000148627
0.000153554
0.000164797
0.00016055
0.00015201
0.000147497
0.0783124
0.000171012
0.000150246
0.000164593
0.000147531
0.000146879
0.000147515
0.00015324
0.000393301
0.000155817
0.000149629
0.000150191
0.000149943
0.000149786
0.000171657
0.000147475
0.000145962
0.0249108
0.000146752
0.0885687
0.0121823
0.000157982
0.0917911
0.0126891
0.000156604
0.000173177
0.000148973
0.00017904
0.000149936
0.000148915
0.00550734
0.000148328
0.000152696
0.000755355
0.000149218
0.000147196
0.000162613
0.00027854
0.000149259
0.0001457
0.00649807
0.000180506
0.000146782
0.000166102
0.00321043
0.000146426
0.000149737
0.000145813
0.000147072
0.000144461
0.000145984
0.088061
0.075954
0.000149023
0.0921544
0.00014443
0.000147272
0.000252746
0.000149248
0.0872792
0.000175012
0.000150283
0.000145816
0.000145552
0.000177216
0.000151761
0.000156673
0.000149427
0.0301422
0.000149505
0.0303074
0.000151236
0.000147424
0.000147029
0.000242422
0.000147534
0.000153793
0.000147258
0.000148487
0.0100676
0.000156307
0.000147548
0.000146548
0.00991192
0.000147115
0.000156664
0.000151784
0.000146223
0.09018
0.0901084
0.00014706
0.000148753
0.000156072
0.000144647
0.000147957
0.000147744
0.0134802
0.000147879
0.000147035
0.000156686
0.0604461
0.000172476
0.00014977
0.00016038
0.00829354
0.000169057
0.00014761
0.000147527
0.00021385
0.000149964
0.000147467
0.000156467
0.000147757
0.000145965
0.00015035
0.000145012
0.000160974
0.000147377
0.000147566
0.0226934
0.000146208
0.000151205
0.000148338
0.000149251
0.000160986
0.000147087
0.000148019
0.00282231
0.000149809
0.0671733
0.000151965
0.000149868
0.000149831
0.000183163
0.00014752
0.000147584
0.000147929
0.000150565
0.000155855
0.0838961
0.000147142
0.000160902
0.000381572
0.000169019
0.000149716
0.000147675
0.000149446
0.000149294
0.000146995
0.0319741
0.0191398
0.000148395
0.000158913
0.000161627
0.000160918
0.000148276
0.000145507
0.0232441
0.000176603
0.000320979
0.000145696
0.000149639
0.000149057
0.000146787
0.0523916
0.000162392
0.000150564
0.000147694
0.000147072
0.000148147
0.0362595
0.000156361
0.000148838
0.00992589
0.000233878
0.000195417
0.000166344
0.000148007
0.000147514
0.000183232
0.00016951
0.0377983
0.023885
0.000153026
0.000154057
0.000149348
0.000152701
0.000148757
0.00014927
0.0241175
0.00014525
0.000146957
0.000178858
0.000149346
0.00806168
0.000151535
0.00020118
0.000157911
0.000149595
0.000152812
0.00015662
0.000172755
0.000166423
0.000169216
0.00014987
0.000178609
0.000151149
0.00014763
0.000148688
0.000149815
0.000148127
0.000153301
0.000172555
0.000160794
0.000148861
0.00015001
0.000147898
0.000147492
0.000172245
0.000147365
0.000151661
0.000108573
0.000145007
0.000169567
0.000191732
0.000148181
0.0289863
0.000170212
0.000149343
0.000226195
0.000148886
0.000149771
0.000147959
0.000147796
0.000149944
0.00015339
0.000148184
0.000219283
0.000150165
0.000147704
0.000149282
0.000161201
0.000164234
0.000147782
0.000155046
0.000147498
0.00016514
0.000147832
0.00015796
0.000146095
0.000150504
0.00014544
0.000147418
0.0914298
0.000145839
0.000171142
0.00014772
0.000151648
0.00014608
0.000164765
0.000148397
0.000170923
0.000148601
0.000213939
0.000149723
0.0885924
0.000145792
0.000151466
0.000149791
0.00014808
0.000147612
0.000153288
0.000148128
0.000171186
0.0114339
0.00570271
0.000153904
0.00016024
0.000146975
0.000161342
0.00017939
0.000147943
0.000156265
0.00016951
0.0391771
0.000192081
0.0238994
0.000157515
0.000148607
0.000149499
0.000155817
0.000153447
0.000170106
0.000145189
0.000152088
0.000189628
0.000149742
0.000147493
0.000155674
0.0581285
0.000151229
0.000159817
0.000183184
0.000149645
0.0789927
0.000145314
0.00014673
0.000149575
0.000147793
0.017047
0.000183327
0.0525744
0.000148235
0.00213731
0.0234088
0.00881061
0.000169801
0.000182107
0.00019879
0.000162468
0.000147973
0.000147291
0.000156905
0.016441
0.000146963
0.000157158
0.0614497
0.000147363
0.000147251
0.0001477
0.000150586
0.000147558
0.000148891
0.000182088
0.0542777
0.000148736
0.000147888
0.0321716
0.0553958
0.000147012
0.000147614
0.000148944
0.000147095
0.000261639
0.000183295
0.000186562
0.000149934
0.000147211
0.000147604
0.000150158
0.000148262
0.000164788
0.000149841
0.084335
0.000147946
0.000148382
0.000163545
0.00014689
0.000167166
0.000165859
0.000152298
0.00608273
0.0462481
0.000148625
0.000146986
0.0942456
0.0228671
0.000160548
0.000148792
0.0694111
0.000176071
0.000153721
0.000147897
0.000147802
0.000147323
0.000194238
0.000153813
0.000169268
0.00014977
0.0319608
0.000390543
0.00014769
0.000147843
0.000170549
0.000148915
0.000146062
0.000153867
0.0475054
0.0386465
0.0953433
0.000150764
0.000177856
0.000162065
0.000145407
0.000148124
0.000149224
0.000192237
0.000149316
0.000147674
0.000177904
0.000148222
0.000173287
0.00014863
0.000148616
0.000145783
0.000148918
0.000210509
0.000149265
0.000147329
0.000169128
0.000164956
0.000189654
0.000149345
0.000180835
0.0532889
0.0696028
0.000150487
0.0153909
0.0120895
0.000147369
0.000144737
0.00014998
0.000151016
0.0377404
0.000151931
0.000148716
0.000149317
0.0540544
0.000161057
0.000150538
0.000148855
0.000147602
0.000165209
0.000146158
0.000146975
0.000164047
0.00015038
0.000149301
0.000147364
0.000235941
0.000148047
0.00015029
0.000148086
0.000149398
0.000188693
0.000149293
0.000150721
0.000148377
0.00015555
0.000208567
0.000149941
0.000189375
0.00015552
0.0373037
0.000146134
0.000152086
0.000163746
0.00018058
0.000162707
0.000149814
0.0310294
0.0906478
0.000149578
0.000147296
0.00852262
0.000148421
0.000149643
0.000146219
0.000149575
0.000171776
0.000149948
0.000149949
0.000165781
0.000157392
0.000157146
0.000157802
0.000150069
0.0924337
0.000152503
0.000214572
0.000147059
0.000178711
0.000161023
0.0533911
0.000154029
0.0483195
0.000149777
0.000157366
0.00014814
0.000148438
0.000147576
0.000200491
0.000160706
0.000177891
0.0177189
0.000148695
0.000228589
0.000157907
0.000147171
0.000157346
0.000161097
0.0443339
0.000147808
0.000156038
0.00016409
0.000151799
0.000160917
0.000149881
0.000144933
0.000149878
0.000187948
0.000148804
0.000147893
0.000146216
0.000146049
0.00014745
0.000147824
0.000149521
0.000146892
0.000148921
0.000149508
0.000154224
0.000157585
0.000147848
0.0388143
0.000148022
0.0016366
0.000159973
0.0355104
0.000164402
0.000157
0.00735488
0.000164762
0.000191212
0.0798801
0.00016497
0.000149267
0.000146838
0.000150733
0.000189515
0.00014765
0.0452203
0.000147432
0.0063091
0.0882852
0.000182232
0.000151451
0.0284252
0.0317581
0.000150834
0.000147788
0.000149735
0.000154945
0.000144868
0.000145699
0.000168673
0.00374641
0.000148418
0.000147609
0.000149272
0.000241612
0.000184063
0.00014896
0.000154718
0.000182732
0.000149618
0.00014808
0.0416892
0.000149056
0.000147274
0.000540917
0.000152427
0.000147931
0.00468045
0.0836
0.0338757
0.000147472
0.000150967
0.000374886
0.000146241
0.000147749
0.000149886
0.000162814
0.0001482
0.000148627
0.000153781
0.000161778
0.000177623
0.000146495
0.000147797
0.000148419
0.000147546
0.000149766
0.000145084
0.000194138
0.00015721
0.000147876
0.000147819
0.00014638
0.000147688
0.000150027
0.0491315
0.000160538
0.000145658
0.000147468
0.000160826
0.0490584
0.00014818
0.000147734
0.00014809
0.000145586
0.02801
0.000177686
0.000146778
0.000148307
0.000160352
0.000172546
0.000149048
0.000149874
0.000153608
0.000148694
0.000157356
0.000149299
0.0911693
0.000162413
0.000148369
0.000155968
0.0647624
0.000156271
0.000215787
0.000154429
0.000143447
0.000149788
0.000149819
0.000155374
0.000182649
0.000147438
0.000148183
0.000149588
0.000151405
0.000170217
0.000174758
0.0688475
0.000151042
0.000147785
0.000156713
0.000147953
0.000147942
0.0900103
0.000152067
0.000148387
0.000147815
0.000185136
0.00345206
0.000147773
0.000148573
0.000186253
0.000147772
0.000148586
0.000147603
0.000186057
0.000151667
0.000157328
0.00544526
0.000149079
0.000149042
0.054425
0.000147223
0.000176557
0.00014726
0.00015212
0.000163088
0.000148033
0.000148484
0.000150182
0.000152678
0.036424
0.000147423
0.000148804
0.000179369
0.000154011
0.00479603
0.0579815
0.000164909
0.000149361
0.000227281
0.00014825
0.0792457
0.000149039
0.000148345
0.000146866
0.00961524
0.000149361
0.000149227
0.000148981
0.000165121
0.0528375
0.000157055
0.000168661
0.000147555
0.000148805
0.000164754
0.000158785
0.000146755
0.000155079
0.000147293
0.0592391
0.0379491
0.000148838
0.00015042
0.000149437
0.0698129
0.000148965
0.00816646
0.000147778
0.000147866
0.000146779
0.000150076
0.000153386
0.000149792
0.000147858
0.000148199
0.0602855
0.000191781
0.000147678
0.000154591
0.000154339
0.000162526
0.000148029
0.000153921
0.00015102
0.000147962
0.000150879
0.000163848
0.000149855
0.000147266
0.000155115
0.000147233
0.000186859
0.000151496
0.00017843
0.000148522
0.00014816
0.000148337
0.000188317
0.000163017
0.000146376
0.000154737
0.00018086
0.000149469
0.000146419
0.000155438
0.000149448
0.0108054
0.000181926
0.000154072
0.0187299
0.000150734
0.000165778
0.00018292
0.000161523
0.000166744
0.00769694
0.000163265
0.00020077
0.000148771
0.000151461
0.00014744
0.000147897
0.000157204
0.000146894
0.000177049
0.000148135
0.000148073
0.00017018
0.00014756
0.000176831
0.000158061
0.00015448
0.000147449
0.000161581
0.00092359
0.000143927
0.000163089
0.0491894
0.000160905
0.000147576
0.000163212
0.000147815
0.000147062
0.0409605
0.000146766
0.000146361
0.000171984
0.000147909
0.000158782
0.000147116
0.000147913
0.0801566
0.000147687
0.000145863
0.000154142
0.000147483
0.00014564
0.000149648
0.043099
0.000148642
0.000148447
0.000145581
0.000187256
0.000149375
0.000153652
0.000147589
0.000160062
0.000150093
0.000147474
0.000150898
0.000148569
0.000146338
0.00017384
0.000165305
0.000158368
0.000151327
0.000167191
0.000181102
0.000155271
0.000155758
0.000150468
0.0667772
0.000147839
0.000148281
0.000147324
0.000149549
0.000159989
0.000147176
0.0870541
0.0311217
0.0793473
0.000148447
0.000154231
0.000162494
0.000145075
0.000168415
0.000164564
0.000270252
0.000182591
0.0465659
0.00018089
0.000223118
0.0366338
0.000157235
0.000152023
0.000154678
0.000146918
0.0409198
0.000150494
0.000156566
0.000146611
0.000153981
0.000148208
0.0315465
0.045353
0.000149298
0.0129685
0.000261413
0.00013949
0.000170122
0.000173961
0.000145865
0.0507572
0.00014795
0.093736
0.0276216
0.000149303
0.000147551
0.000147871
0.000151256
0.000155969
0.000164163
0.000210226
0.000148733
0.000148173
0.000154941
0.00015012
0.000148095
0.000155187
0.000146789
0.000148301
0.00193635
0.000173982
0.000148188
0.0841634
0.000152053
0.000149796
0.00015123
0.000228359
0.000147599
0.000146177
0.00018798
0.000188796
0.000147673
0.000154763
0.000220259
0.000172825
0.0401347
0.000146492
0.000217258
0.0476054
0.0867791
0.000148454
0.00014763
0.000180659
0.00015475
0.000163727
0.000149207
0.0611453
0.000171666
0.000202595
0.000148347
0.000147691
0.0135092
0.000390753
0.000148915
0.000149797
0.0422861
0.0001475
0.000145975
0.000148221
0.000152749
0.000149248
0.000156772
0.000148533
0.000153769
0.000145397
0.000164433
0.0162731
0.000168841
0.00016351
0.0222285
0.000178407
0.000145779
0.000147025
0.000147727
0.000149877
0.000185853
0.000156795
0.00014962
0.000148025
0.000147751
0.000145126
0.000158585
0.000145287
0.000163204
0.000154346
0.00014873
0.0488312
0.0257204
0.000148579
0.0731516
0.000159568
0.000161737
0.000149737
0.000145621
0.0186995
0.000178062
0.00014733
0.000146254
0.000147593
0.000156723
0.000149725
0.000214242
0.000144675
0.000148302
0.000148458
0.0462977
0.0460602
0.000145295
0.000148211
0.000180459
0.000199282
0.00015285
0.0798915
0.0645054
0.000148064
0.000148852
0.000148613
0.000150745
0.0383537
0.000148164
0.000149886
0.000189763
0.000182096
0.000149358
0.000147628
0.000165967
0.00014988
0.000148403
0.000181273
0.000183554
0.0386356
0.000147735
0.000189415
0.000161263
0.000177314
0.000150736
0.000156259
0.00014749
0.000149497
0.000172026
0.000154735
0.0001479
0.000154112
0.0272623
0.000145
0.000146841
0.000145004
0.000170487
0.000147539
0.000148458
0.000144046
0.00014754
0.000270423
0.0825434
0.000148888
0.0849538
0.0464349
0.0407147
0.000147496
0.000147848
0.000146742
0.000147283
0.000148681
0.000148914
0.000145334
0.000148428
0.000146352
0.000152545
0.0189647
0.000161032
0.0102468
0.000162444
0.000148102
0.000150986
0.000160164
0.000148762
0.000146891
0.000163074
0.000159791
0.000263368
0.000170464
0.000145111
0.0777238
0.000150414
0.000144632
0.000147735
0.000454576
0.0001702
0.000150152
0.000155271
0.000148376
0.000148532
0.000158316
0.000169929
0.000161528
0.0924499
0.000148461
0.000148049
0.000253448
0.000161973
0.000154134
0.000195603
0.000152086
0.000168274
0.000252441
0.000175242
0.00927181
0.000147346
0.000147895
0.000147462
0.000148219
0.000148527
0.000151601
0.000168607
0.000179883
0.0347985
0.000148378
0.08609
0.0734583
0.00015591
0.000334747
0.000148922
0.000182689
0.017883
0.000147254
0.000186558
0.000146056
0.000252029
0.000149254
0.000220841
0.000147022
0.0127328
0.000170733
0.0253859
0.000146844
0.000207668
0.000147011
0.00015214
0.00276597
0.000146787
0.0096811
0.0524634
0.0186205
0.0800308
0.000188666
0.0447641
0.000164352
0.000148028
0.000164033
0.000170296
0.0937544
0.000148414
0.000147959
0.000150803
0.000167954
0.000147895
0.000148937
0.000148965
0.031989
0.0505977
0.00014759
0.0889803
0.000166279
0.000146015
0.000162775
0.000155929
0.0567447
0.000158775
0.000146934
0.000199901
0.000148375
0.00014744
0.000148484
0.000185749
0.000177114
0.000147643
0.000155116
0.000148634
0.000149712
0.000146428
0.0433527
0.000149895
0.000146547
0.0749703
0.000232746
0.000153922
0.000147515
0.0360721
0.000156412
0.000151208
0.000147882
0.00016409
0.000152122
0.000159432
0.000153819
0.0906136
0.000164249
0.000176718
0.000144984
0.000166193
0.000176231
0.000160308
0.000149366
0.0863414
0.000149651
0.000210163
0.00014717
0.000149223
0.000165633
0.000214116
0.0001528
0.000155594
0.000148661
0.000160804
0.00017895
0.000192036
0.000156695
0.000149944
0.0001476
0.000155746
0.000191489
0.000147484
0.000170785
0.000147994
0.000147521
0.0304914
0.000147301
0.050205
0.000147875
0.000155096
0.000184112
0.000147762
0.000160261
0.000198865
0.000186314
0.000147926
0.000190407
0.000150935
0.000149732
0.000147484
0.0249977
0.0592812
0.000147314
0.000147586
0.00014684
0.000147004
0.000186507
0.0620202
0.000147792
0.000233035
0.00014616
0.000146461
0.000147156
0.0475741
0.00015076
0.000152243
0.000147592
0.000148171
0.000147633
0.000149684
0.000149704
0.000162543
0.00436096
0.000146531
0.000147678
0.000160839
0.000176476
0.000146558
0.0925015
0.000170925
0.000146847
0.000145613
0.000150139
0.000195872
0.000146859
0.000188352
0.000158272
0.000154147
0.000146787
0.000170397
0.000144706
0.000174066
0.000156334
0.000149364
0.0868508
0.0388507
0.000143988
0.000147034
0.0153792
0.000190447
0.000183165
0.000155631
0.000188232
0.000145862
0.0592646
0.000185511
0.000148076
0.0324853
0.0846245
0.000151178
0.000167054
0.000173301
0.000146876
0.0898927
0.00014878
0.000158321
0.000159457
0.000149037
0.000148186
0.000164527
0.00014701
0.000147085
0.000146997
0.00134375
0.000147314
0.000147413
0.000146805
0.000147132
0.000147395
0.000149491
0.000177014
0.000161689
0.000153618
0.000149634
0.000430016
0.000149125
0.000146874
0.000147247
0.000146743
0.000148472
0.000147647
0.000160577
0.000188213
0.000149444
0.000161698
0.000163444
0.000146989
0.00015631
0.0397135
0.00015066
0.000144933
0.000148441
0.000167434
0.000149292
0.000149293
0.000153316
0.000153738
0.087593
0.0118744
0.000146654
0.000146901
0.000147502
0.00016678
0.000159152
0.00014686
0.000156083
0.000169113
0.000148755
0.000155397
0.000148792
0.000182752
0.00045662
0.000151856
0.000175352
0.000155295
0.0350682
0.000149307
0.000147166
0.0624009
0.000171869
0.00015361
0.0001936
0.000168405
0.016703
0.000162862
0.000201134
0.00015652
0.000156436
0.0158872
0.000155506
0.000637829
0.000163431
0.00018511
0.0258614
0.000149951
0.000148634
0.000147759
0.000197854
0.000144095
0.0103893
0.000167708
0.0203784
0.00015063
0.000171137
0.00020289
0.000147474
0.000148876
0.000167067
0.000158647
0.000148479
0.000157255
0.000168161
0.000181206
0.000178154
0.000194836
0.0173023
0.000182479
0.000148659
0.000149281
0.0549298
0.000166938
0.000150437
0.000161567
0.037955
0.000149584
0.000154251
0.000147497
0.000157135
0.000148131
0.000148593
0.000160104
0.000148516
0.000156139
0.0272192
0.0132371
0.000145942
0.000154321
0.000158272
0.00018927
0.000162954
0.000150202
0.000147359
0.000170199
0.00770728
0.00014746
0.000153422
0.000148765
0.0879295
0.000146933
0.000159574
0.0231389
0.0132388
0.000149796
0.000174135
0.000176193
0.000174959
0.000154335
0.000147987
0.0691738
0.000146831
0.000158179
0.000148936
0.000161296
0.000145983
0.000146538
0.000149046
0.00017638
0.000146929
0.000147697
0.000147317
0.000149307
0.000146995
0.000148545
0.000182354
0.0728546
0.0494645
0.000156236
0.000148275
0.000157976
0.000153285
0.0420941
0.00014989
0.000176617
0.000145534
0.000147887
0.000150564
0.000163373
0.0625496
0.000147678
0.0292397
0.000149797
0.000144748
0.000151642
0.0891441
0.000151462
0.000161678
0.0531625
0.000149888
0.000148778
0.0122199
0.000147283
0.0720431
0.000148482
0.000163833
0.019263
0.000151459
0.000148553
0.000146861
0.0144653
0.0001581
0.000147064
0.000207187
0.00014763
0.00015143
0.00018029
0.0426907
0.000180308
0.0475544
0.05986
0.000167913
0.000151859
0.000177802
0.000213648
0.000148118
0.000147268
0.000150754
0.000159583
0.000167599
0.000147851
0.000153943
0.000147215
0.00014763
0.0462736
0.000149454
0.0220948
0.000145441
0.000166037
0.000184304
0.000146634
0.000144707
0.0448593
0.0545811
0.000173485
0.000148445
0.000154512
0.000180736
0.000146338
0.00016662
0.000185291
0.000169099
0.000160146
0.0217209
0.0368984
0.000144761
0.000148788
0.000145443
0.000149231
0.000151958
0.000160367
0.0107048
0.000148695
0.000147693
0.000175531
0.0284484
0.000145549
0.00891897
0.000146258
0.000193551
0.00017552
0.0683177
0.000187023
0.00016435
0.000164611
0.000145248
0.000144611
0.000212199
0.000155036
0.00014849
0.000331202
0.000146889
0.000148467
0.000145421
0.000171557
0.000183087
0.000259853
0.000173486
0.000160396
0.000158495
0.000149291
0.0319925
0.000970749
0.000151398
0.000147752
0.000147183
0.000194971
0.0788697
0.000160524
0.0864869
0.000150444
0.000146845
0.0350083
0.000147826
0.0546772
0.085441
0.000146381
0.000159038
0.00918699
0.000152903
0.000160249
0.000147214
0.043933
0.000157935
0.000176724
0.0100748
0.0727962
0.000160023
0.000161528
0.000148818
0.000186109
0.0404403
0.000152424
0.000153919
0.0420153
0.000163448
0.000166696
0.000149739
0.0882158
0.0128091
0.000169003
0.000147835
0.000158208
0.000147149
0.00389932
0.000180772
0.000163431
0.0932998
0.0337626
0.000145346
0.000196774
0.000148577
0.0422967
0.000169427
0.00015927
0.000156803
0.000364193
0.000143783
0.000183848
0.0128083
0.0448154
0.00015128
0.000148074
0.00014643
0.000170501
0.00427179
0.000195003
0.0506858
0.000197633
0.000165513
0.000147182
0.0410267
0.000183422
0.00015715
0.000179209
0.00585953
0.0282461
0.019109
0.0258381
0.0268936
0.0183669
0.000148437
0.000156557
0.000162201
0.000148948
0.0280362
0.000331644
0.000147994
0.0877215
0.000148775
0.00014786
0.000146289
0.000162388
0.00014698
0.0325594
0.000164578
0.00182935
0.000147667
0.000250883
0.000163243
0.000402264
0.0161083
0.000151683
0.000159531
0.000162031
0.000165667
0.000147239
0.000146548
0.000147117
0.0323211
0.000146413
0.000147162
0.000537376
0.000153045
0.0425294
0.000148161
0.0496195
0.000147632
0.000148266
0.000147946
0.000148031
0.000159529
0.000153892
0.0468041
0.000158043
0.000169915
0.0549545
0.000147174
0.0652576
0.000146593
0.0606296
0.0823509
0.0514612
0.000178729
0.000148051
0.000149799
0.0644315
0.000149467
0.000158289
0.000148651
0.000162409
0.0578408
0.00014706
0.000146853
0.000147222
0.000149745
0.0784993
0.0861883
0.000147362
0.000144069
0.0363973
0.0831065
0.000146959
0.0938782
0.000149738
0.0743067
0.0547683
0.000184859
0.000197341
0.000218197
0.000168333
0.0309927
0.000190366
0.000147974
0.000145062
0.000146402
0.0679991
0.0895506
0.000151249
0.000156091
0.0316743
0.000146968
0.0250498
0.000148194
0.000148971
0.000145968
0.0550116
0.000187365
0.000146964
0.0394731
0.000149657
0.0911063
0.0671503
0.000146796
0.000148633
0.000191796
0.000147644
0.000149137
0.000146686
0.0602671
0.000158549
0.000148072
0.000148775
0.0727643
0.000147776
0.000163015
0.000147815
0.0457357
0.000148565
0.00017371
0.000161636
0.0385642
0.0887823
0.000160208
0.000191464
0.000175438
0.000148404
0.000171158
0.0477852
0.000147121
0.000183542
0.000146337
0.000253568
0.0001472
0.0537816
0.0791276
0.000171077
0.0313497
0.0402758
0.000160763
0.000151235
0.00766896
0.000147372
0.0450354
0.000153936
0.000392395
0.000147362
0.000159076
0.000167523
0.000157576
0.000148521
0.000147872
0.000149239
0.0111767
0.000178471
0.0344294
0.0388727
0.000155582
0.000145585
0.000165374
0.0748655
0.000159325
0.000147316
0.000148425
0.0402088
0.0419446
0.0693479
0.0259345
0.000164238
0.000149061
0.000146407
0.000173244
0.000169866
0.000289658
0.000147907
0.000148368
0.00921276
0.000176045
0.000149893
0.000181188
0.000281896
0.000188117
0.000146582
0.000163661
0.000261645
0.000400261
0.0824084
0.000165508
0.000147236
0.000149774
0.000150618
0.00014989
0.000147893
0.000148509
0.000159569
0.000179986
0.000163006
0.000160216
0.000157632
0.000149179
0.000154698
0.000151296
0.000160539
0.00015909
0.000147216
0.000157704
0.000147437
0.000146751
0.000149859
0.0001487
0.000208431
0.000145727
0.000168103
0.00010547
0.00632889
0.0509872
0.0226713
0.000154207
0.000149533
0.000147207
0.0593157
0.000148786
0.000144428
0.000149087
0.0713447
0.000158085
0.000163998
0.000357701
0.000151487
0.000148123
0.000158964
0.000147042
0.00016378
0.000149893
0.000160064
0.000146932
0.000147711
0.000151022
0.000151725
0.000156662
0.000256878
0.00016845
0.000175451
0.000174293
0.000200385
0.000166596
0.000176255
0.000148612
0.0290053
0.000152691
0.000155156
0.00014775
0.000151565
0.00017716
0.000147809
0.000168413
0.0050745
0.000156514
0.000187179
0.000181075
0.000165382
0.000170245
0.00016715
0.000147516
0.000158698
0.000148508
0.000173443
0.000168062
0.0555042
0.000146362
0.000167682
0.000154604
0.04032
0.0530607
0.000170127
0.00014856
0.000170181
0.000144997
0.000178958
0.000150655
0.0465867
0.000145821
0.000154107
0.000148015
0.000161459
0.000209276
0.000159532
0.0809032
0.000148169
0.000164593
0.000167184
0.000148011
0.0898827
0.0725185
0.000201853
0.000180776
0.000169003
0.000148031
0.000147409
0.0909336
0.00017906
0.000146863
0.000150999
0.000153205
0.000147487
0.000218006
0.000146951
0.0648779
0.000189913
0.00020032
0.00016255
0.000149228
0.000145759
0.000147836
0.000184451
0.000167951
0.000154781
0.0277282
0.000149083
0.000150882
0.000155403
0.0835201
0.000145193
0.0339129
0.000143771
0.0536146
0.000147251
0.000147239
0.000159998
0.000147741
0.000148925
0.000193471
0.000148411
0.000149196
0.000147422
0.000166774
0.000154985
0.0378879
0.000147854
0.000148508
0.00014679
0.000195596
0.000146588
0.000156247
0.000170184
0.0639641
0.0922858
0.000514164
0.000213357
0.000224264
0.000165795
0.00016636
0.000155241
0.000149643
0.000148703
0.061864
0.000165302
0.000144758
0.000147664
0.00014755
0.000159433
0.000174634
0.000149648
0.000157045
0.000191765
0.000207741
0.000175521
0.000147669
0.000149549
0.0496793
0.000153759
0.000146061
0.0644635
0.0905031
0.000146244
0.000144217
0.00015553
0.000148272
0.000159932
0.000149627
0.0812181
0.0001498
0.0386188
0.000148344
0.0105206
0.00015927
0.000147841
0.000182957
0.000145608
0.000149104
0.000149742
0.0001625
0.000256054
0.000147273
0.000202635
0.000149894
0.000149268
0.000170969
0.000147399
0.000148757
0.00014857
0.00014444
0.000147977
0.000145043
0.000149031
0.0810544
0.000146908
0.000147311
0.000166283
0.000145801
0.000147502
0.000149037
0.000149302
0.0908495
0.000189996
0.000148618
0.000152161
0.000148655
0.000149894
0.000137844
0.000148232
0.000147744
0.00841669
0.000147632
0.000169965
0.000181519
0.000161362
0.000148308
0.000220225
0.000147605
0.00206449
0.000165834
0.000148423
0.0948148
0.0323988
0.00015588
0.000172956
0.0001473
0.000147207
0.000162927
0.000183703
0.000147286
0.000146859
0.000149445
0.000165683
0.000148598
0.000161501
0.000148645
0.000168846
0.0505933
0.000162012
0.000173736
0.000147268
0.000156841
0.000156826
0.000162098
0.000145963
0.000147469
0.000150886
0.000160658
0.000167448
0.00014936
0.000197502
0.000148673
0.0571619
0.000144837
0.000146379
0.00017704
0.000149792
0.000181736
0.000193799
0.000162429
0.00014897
0.000150901
0.000148773
0.000162767
0.000148414
0.000164156
0.000157135
0.000148733
0.000146262
0.000155914
0.0768528
0.000160163
0.000164739
0.0677158
0.0586082
0.000162565
0.000144991
0.0563181
0.000147987
0.000153256
0.000149407
0.00019197
0.00014841
0.000160997
0.000155861
0.000151873
0.000148705
0.000154824
0.00014927
0.000177143
0.000147449
0.000149168
0.000148063
0.000157992
0.073893
0.000148284
0.0147005
0.000167789
0.00014434
0.0889794
0.0113753
0.000148165
0.000152646
0.000193801
0.000146769
0.000147424
0.0493839
0.00014803
0.0477062
0.000153778
0.000153938
0.000149988
0.000150805
0.000147706
0.000148117
0.000164864
0.00014972
0.000147593
0.000147654
0.00015058