/*--------------------------------*- C++ -*----------------------------------*\
| =========                 |                                                 |
| \\      /  F ield         | OpenFOAM: The Open Source CFD Toolbox           |
|  \\    /   O peration     | Version:  v2012                                 |
|   \\  /    A nd           | Website:  www.openfoam.com                      |
|    \\/     M anipulation  |                                                 |
\*---------------------------------------------------------------------------*/
FoamFile
{
    version     2.0;
    format      ascii;
    class       volScalarField;
    location    "350";
    object      omega;
}
// * * * * * * * * * * * * * * * * * * * * * * * * * * * * * * * * * * * * * //

dimensions      [0 0 -1 0 0 0 0];


internalField   nonuniform List<scalar> 
10042
(
0.0219129
0.022052
0.0219813
0.0231704
8.96122
0.0220721
4.00145
6.65508
0.0217965
0.0220109
4.66633
0.0231031
0.0215337
0.0214976
0.0236586
0.0220345
0.0220263
0.0222585
0.0219159
0.132821
0.0219056
0.427341
0.0215825
0.0216177
0.0220589
0.0305403
0.0221324
0.0227999
0.021814
0.0224587
0.0220223
5.0938
0.0220215
0.0223778
0.0269285
0.0216295
0.0295066
0.0361696
0.0216313
0.0301948
0.145629
0.0232496
3.83148
0.0219999
9.18456
0.0656502
0.0223439
0.112844
0.0283944
0.0550538
0.022167
0.0225046
0.0232678
0.0233777
0.0295786
0.0220652
0.0218172
0.0223095
0.0223669
0.0230565
0.0220471
0.0220064
0.0271308
0.0219544
0.0222443
0.0223934
0.0220371
0.0739048
3.50475
0.0218768
0.0232898
0.157211
0.0220068
0.0322575
0.0220151
0.021615
8.3656
0.0219268
0.0302497
3.75708
0.0275821
10.3197
0.0220203
0.0228455
0.0220433
0.0222136
0.0218893
0.161569
0.0219332
0.0218913
0.0223096
10.6778
0.0228938
0.0224005
0.022401
0.021892
0.0219374
0.0218663
0.0296375
0.0218278
0.0222908
0.112579
6.32123
0.0222023
0.0226556
0.0525624
0.0219138
0.0219308
0.021914
0.0214571
0.0217115
0.0218245
0.026292
3.64372
0.0222328
0.0218367
0.0219446
0.0219221
0.0218907
4.95399
0.0219263
6.62524
0.0220401
0.0219854
0.111421
0.022023
6.75911
0.0291526
0.0507275
0.0218821
0.0312443
0.0220004
4.05965
0.276109
0.0218272
0.0607733
4.49163
0.0223177
0.118444
0.185281
0.0227837
0.0219413
0.0225118
0.160776
0.0220139
0.0218244
0.0606151
0.0215549
0.0218817
0.0256979
0.0218259
0.0222555
2.5062
4.43982
0.0221855
0.0215292
0.0226093
0.0219981
0.0609141
10.733
5.39953
0.146821
0.0219896
0.021827
0.0221087
0.021983
0.0609865
24.2503
5.52456
4.66877
0.0228673
0.0218417
11.6968
0.171676
0.0386736
3.38867
6.06128
0.0220221
0.0856391
0.0328773
0.0227571
5.21135
0.0220878
0.0289925
0.0231126
5.50979
0.324164
0.022143
5.10851
0.0243103
2.76933
0.0225099
2.47827
11.8498
0.114835
10.489
0.0262693
0.0219271
0.0215336
0.0236747
0.0373862
0.022184
0.0218187
0.170342
0.0220765
0.0216855
4.38765
0.0221568
0.0222603
0.0222426
8.54134
0.0218613
0.0565127
0.327408
0.0225805
0.345125
0.0219646
0.0219924
0.0690515
0.0217693
0.0264175
0.0227409
0.39061
0.0375401
0.0255818
0.0317024
2.79467
0.0218303
0.192688
0.0236067
0.0217959
0.135215
0.0218503
0.0235609
0.0220295
0.0259277
0.0217116
0.021484
0.0236279
0.0274249
0.0219968
0.0220447
0.0220543
0.0263715
0.0218374
0.0220313
0.0216185
0.0227358
0.0230825
0.0222688
0.0215348
0.0218673
0.0245344
0.511615
0.148444
6.11804
0.0392137
0.0380141
0.0238443
0.0741788
4.08734
0.0233626
0.0219175
0.0215016
0.0235859
0.0217102
1.55119
0.0237745
0.0218839
0.0222502
0.0392412
0.023146
0.298237
0.0386
0.195302
0.0243799
0.027376
0.0217126
0.0259682
0.0220467
0.034079
0.0219014
0.0306067
4.02678
0.0216859
0.0219111
4.28894
0.0672051
0.0221054
0.0220459
0.0242206
3.34485
0.0582899
0.168474
0.022182
0.0215299
0.021831
0.0218116
2.54985
0.0218753
0.0220413
0.0218381
0.0219663
0.0376292
0.0239056
0.0789947
6.87275
0.0228633
7.5378
0.0218411
0.0256891
0.022124
7.1945
0.111634
8.80724
7.75598
0.0216009
0.0237979
0.0218833
0.024152
0.0317742
0.0222415
0.0338488
0.0217051
0.0214994
0.0220266
0.084354
0.0222838
0.02394
0.0219635
0.0237417
4.36415
0.0218407
0.022176
0.0219894
0.0219204
0.0435851
0.115816
0.0378769
8.2432
0.0380715
0.0279014
0.0219793
0.021481
0.0224168
0.022268
5.51672
0.0219007
0.0223911
0.129003
0.0218211
0.0248949
0.0229768
0.140449
0.0219915
0.0253717
0.0476914
0.0335458
0.023624
0.0219333
8.07969
0.0616357
0.0224985
0.0431805
0.0219512
0.0218545
0.0219492
0.0248461
2.03241
0.0252318
0.0222492
0.0228053
0.0222923
0.0222708
0.130642
0.0219312
0.0216283
4.48693
0.0218401
5.76387
6.6859
0.032928
2.98975
7.06511
0.0283331
0.13883
0.0221586
0.0568526
0.0222913
0.022241
2.11608
0.0220667
0.0244223
12.1158
0.0220026
0.0219069
0.0505775
2.13652
0.0223001
0.0215531
5.17922
0.112546
0.0218373
0.0742728
11.675
0.0217681
0.022264
0.0216442
0.0218643
0.0214809
0.0216783
7.74663
6.43076
0.0222783
7.7488
0.0214991
0.0218767
0.750088
0.0221757
5.93849
0.0632636
0.0228542
0.0216016
0.0215438
0.143667
0.0230037
0.028333
0.0224282
4.27697
0.022462
12.0425
0.0234394
0.021938
0.0218363
0.741741
0.0219538
0.0258014
0.0218605
0.02196
7.09793
0.0263175
0.0219333
0.0217517
5.59008
0.0218731
0.0267059
0.0235502
0.0217142
8.32143
3.01083
0.021886
0.0221669
0.0254307
0.0215343
0.022012
0.0219734
5.43326
0.021997
0.0217332
0.0289042
6.20167
0.0622892
0.0222685
0.0324347
19.0442
0.0400312
0.0219386
0.0219397
0.270235
0.0223955
0.0219442
0.0294557
0.0218495
0.0216791
0.0228956
0.0215666
0.0386976
0.0219102
0.021958
5.96201
0.0217627
0.0227601
0.0220685
0.0223609
0.0337501
0.0218903
0.0218881
5.3665
0.0225841
3.74914
0.0233209
0.0222819
0.0222767
0.137477
0.0218983
0.0219383
0.0220136
0.0226023
0.0280145
4.23563
0.0218767
0.0384957
4.35916
0.0398907
0.0222611
0.0219609
0.0221949
0.022203
0.0218537
1.6874
4.73637
0.0220765
0.0291896
0.0305734
0.0297996
0.0220237
0.0216557
4.97088
0.134694
3.16786
0.0215954
0.0222556
0.0221188
0.021845
4.26736
0.0359102
0.0226093
0.0218839
0.0218112
0.0219923
6.01909
0.0263172
0.0221398
6.63459
1.33982
0.421069
0.0535588
0.0220194
0.021834
0.0632784
0.0553255
2.03472
24.2112
0.0248598
0.0261094
0.0222105
0.0238728
0.0221611
0.0221997
4.98126
0.0216122
0.0218452
0.0625896
0.0222102
2.78277
0.0230926
0.167162
0.0299354
0.0222447
0.0236193
0.0269468
0.0430174
0.053425
0.0839284
0.0222823
0.0548968
0.0231274
0.0218878
0.0221192
0.0224477
0.0220361
0.0251181
0.0625614
0.0414849
0.0221431
0.022659
0.0220096
0.0219174
0.12912
0.0219317
0.0234995
0.296133
0.021568
0.055371
0.0842537
0.0220434
5.49565
0.0449741
0.0222097
0.361675
0.0220889
0.0222686
0.0219607
0.0219829
0.0222924
0.0243799
0.0220005
0.976832
0.0227787
0.0219662
0.0222985
0.0342592
0.0353672
0.0219805
0.024947
0.0218339
0.0350067
0.0219364
0.0300424
0.0216347
0.0229824
0.0215423
0.0219353
6.73822
0.0216503
0.114946
0.0219689
0.0230392
0.0217434
0.0355666
0.0220768
0.0462839
0.0221049
0.29496
0.022262
4.1635
0.0215492
0.0235654
0.0222714
0.0219802
0.0219631
0.0243134
0.0220359
0.125408
30.7589
2.7807
0.0244123
0.0369693
0.0218128
0.0391237
0.0654599
0.0220138
0.0291391
0.0881133
2.06778
0.0845288
13.0135
0.0278372
0.0221401
0.0222313
0.0256
0.0243831
0.0394383
0.0216048
0.023682
0.130485
0.0222649
0.0219185
0.0254302
3.76203
0.0234012
0.0312842
0.0629762
0.0222514
3.62207
0.0216207
0.0218261
0.0224855
0.0218546
6.19305
0.0759679
3.31131
0.022057
6.19693
8.91691
4.65536
0.0391367
0.0750112
0.190893
0.0413431
0.021965
0.0218641
0.0302981
7.90351
0.0218071
0.0296105
3.86644
0.0219038
0.0219108
0.0218922
0.0229794
0.021955
0.0220469
0.133201
10.2747
0.0220126
0.0220028
4.08368
2.15014
0.0218168
0.0219424
0.022155
0.0218681
0.809984
0.0758074
0.284139
0.0226575
0.0219046
0.0218011
0.0227842
0.0220556
0.0349916
0.0226275
6.30919
0.0220102
0.0220761
0.0419386
0.0218021
0.0363974
0.0666057
0.0233512
29.4378
2.73169
0.0221458
0.0218491
6.83187
5.69636
0.0360639
0.0220636
6.89855
0.18679
0.0257295
0.0219484
0.0219959
0.0219255
0.345952
0.0243568
0.0961681
0.0222685
4.0576
1.48373
0.0219639
0.0219931
0.118145
0.0221504
0.0217405
0.0253678
4.20909
1.93707
7.32752
0.0225876
0.0643842
0.0396585
0.021643
0.0218882
0.0221936
0.325334
0.022206
0.021961
0.0641226
0.0220121
0.067941
0.0221116
0.0221076
0.0216901
0.0221512
0.243805
0.0221991
0.0218605
0.043875
0.0566689
0.3998
0.0222099
0.0955481
1.92262
3.80731
0.0229638
5.7479
8.34982
0.0219054
0.0215451
0.0226925
0.0233095
1.53697
0.0236391
0.022123
0.0222062
2.1617
0.037968
0.0225101
0.0221424
0.021938
0.0436965
0.0217551
0.0218417
0.0337042
0.0228912
0.0222043
0.021797
1.3743
0.021911
0.0228163
0.0220303
0.0224155
0.160487
0.0222029
0.0230814
0.0220732
0.025679
0.802924
0.0222919
0.37885
0.0264116
1.65711
0.0216589
0.0236798
0.0331424
0.0954488
0.0508829
0.0226159
12.9999
4.96434
0.0224997
0.0218068
5.88011
0.02208
0.0222511
0.0217295
0.0222417
0.0534914
0.0222928
0.0222931
0.0657657
0.0289816
0.0229668
0.0316041
0.0227393
7.44657
0.0235507
0.863335
0.0218599
0.0626793
0.0374645
3.11328
0.0246202
4.15831
0.0222695
0.0262881
0.022043
0.0220876
0.0219042
0.160143
0.0406906
0.0526112
6.89379
0.02212
10.6899
0.0266616
0.0217876
0.0314874
0.0316044
2.55818
0.0219876
0.0282899
0.0521692
0.0235784
0.0420281
0.0222838
0.0215753
0.0222833
0.319665
0.0221345
0.022006
0.0217364
0.0217272
0.0219396
0.0219928
0.0224047
0.0218482
0.0221513
0.0224619
0.025583
0.0310999
0.0219921
1.79776
0.0219781
4.77848
0.0374253
2.22486
0.0377761
0.0260535
5.39204
0.0358231
0.342391
4.76835
0.0433
0.0221993
0.0218453
0.02302
0.165727
0.0218922
4.37293
0.0218696
16.1365
3.95813
0.059851
0.0230812
4.96527
3.54778
0.0231981
0.0219816
0.0222638
0.0249488
0.0215658
0.0216683
0.0597377
2.02734
0.0220792
0.0218827
0.0223579
0.718538
0.0666488
0.0221564
0.0256649
0.0967966
0.0225037
0.0220304
4.21071
0.0222948
0.0218727
10.8784
0.0241837
0.0219508
5.25506
2.76801
7.35051
0.0219134
0.0232249
1.17763
0.0217353
0.0218936
0.0222843
0.0311073
0.0220464
0.0221117
0.0238649
0.0463452
0.185661
0.0217819
0.0219324
0.0220799
0.0218522
0.0225832
0.0215986
0.160441
0.0290793
0.0219559
0.0219881
0.021766
0.0219775
0.0225729
4.31092
0.0301805
0.0215445
0.0219297
0.0413921
2.69524
0.0220442
0.0219843
0.0220306
0.0215518
13.0098
0.0526149
0.0217293
0.0220671
0.0306756
0.107502
0.0221693
0.0222827
0.0251778
0.022083
0.0267635
0.0223831
4.64843
0.0361014
0.0220717
0.0264925
12.1492
0.0284813
0.224056
0.0255156
1.51576
0.0222709
0.0222882
0.0256231
0.0718528
0.0218938
0.0218539
0.0222435
0.0229414
0.10829
0.124388
4.58584
0.0228705
0.0219934
0.0286489
0.0219705
0.0219668
5.08944
0.0238515
0.0220398
0.0219861
0.289383
5.93662
0.0219919
0.0221153
0.100916
0.0218342
0.0221043
0.0219353
0.0982349
0.0233025
0.0267832
10.0279
0.0222956
0.0221683
1.91175
0.0219096
0.169363
0.0219001
0.0236807
0.0428839
0.0219837
0.0220902
0.0223902
0.0238155
13.0301
0.0219222
0.0221354
0.220593
0.0258048
3.37334
4.56525
0.0480887
0.0222121
0.485993
0.0219122
9.06633
0.0221678
0.0220494
0.0217088
6.1061
0.0222122
0.0223578
0.02216
0.0355777
1.7703
0.0286857
0.0513703
0.0218971
0.0221354
0.0385715
0.0298011
0.0218361
0.0257973
0.0218806
2.90212
4.06264
0.0221392
0.0229342
0.0222227
4.64369
0.0221572
16.9115
0.0219798
0.0218742
0.0217221
0.0225851
0.0242049
0.0222715
0.0219942
0.0220031
7.06773
0.121064
0.0218904
0.025061
0.024513
0.0417765
0.0219035
0.0258556
0.0230936
0.02196
0.0232215
0.0326029
0.0222802
0.0219162
0.0269561
0.0217758
0.167336
0.0233423
0.144729
0.0221092
0.0220406
0.0218894
0.0771517
0.040576
0.0217685
0.0250916
0.0776265
0.0224584
0.0217715
0.0260358
0.0222247
8.84982
0.226454
0.0253049
6.66209
0.0231242
0.0365065
0.0986344
0.0383345
0.0358606
5.09889
0.0317054
0.155496
0.0220988
0.0232139
0.0218596
0.0219465
0.0272319
0.02177
0.198402
0.0220049
0.0219907
0.0765606
0.0219446
0.0584388
0.0268182
0.0257781
0.0218724
0.0429192
0.923376
0.0214251
0.0331224
4.78122
0.0424074
0.0218026
0.0317181
0.0219957
0.021791
11.5057
0.0218313
0.0217846
0.0519719
0.0219572
0.0279195
0.0217804
0.0220054
3.24196
0.0218866
0.0216683
0.0251099
0.0219115
0.0215347
0.0222518
12.2101
0.0221486
0.0220852
0.0215852
0.0928606
0.0224087
0.0248805
0.0219289
0.03509
0.0227317
0.0218966
0.0230493
0.0221012
0.0217807
0.120294
0.043358
0.0296315
0.0235152
0.0472631
0.0796283
0.0275772
0.0282884
0.0229645
4.18748
0.0219375
0.0220254
0.0219261
0.0222384
0.0359609
0.0218965
8.58498
4.14403
7.62808
0.022085
0.025144
0.0398226
0.0215407
0.0897044
0.0483464
0.93059
0.0714282
4.21169
0.0797292
0.232835
1.44163
0.0288991
0.0232962
0.0255515
0.0217832
2.18833
0.0227583
0.0294122
0.0217975
0.0253973
0.0220476
4.30435
2.70082
0.0222037
4.86199
0.775938
0.323765
0.0483442
0.0685618
0.0216715
4.49135
0.0219692
7.05433
4.59419
0.0222043
0.021897
0.0220036
0.02343
0.0256128
0.0368734
0.247741
0.0221253
0.0220423
0.0256863
0.0225428
0.0220367
0.026484
0.021835
0.0220613
1.18167
0.0650868
0.0220445
5.0251
0.0232415
0.0222721
0.0234657
0.371043
0.0219415
0.0217315
0.121687
0.194376
0.0218428
0.0257165
1.90697
0.057159
3.98104
0.0217794
0.215807
3.33424
7.44193
0.0220844
0.0219107
0.066919
0.0264813
0.042313
0.0223511
5.02514
0.0519888
0.226359
0.0220641
0.0219783
5.12008
0.504766
0.0221501
0.0222723
4.77371
0.0219241
0.0216141
0.0218568
0.0238263
0.0221969
0.0298493
0.0221178
0.0242145
0.0216224
0.0347751
21.5266
0.0609817
0.0360329
7.21751
0.0808324
0.0216488
0.0217871
0.0218964
0.0222837
0.136373
0.0299868
0.0222236
0.0219854
0.0219752
0.0216055
0.0327523
0.0216153
0.0490235
0.0246226
0.0221243
3.06298
4.74051
0.022103
4.78335
0.034421
0.0344145
0.0222641
0.021629
8.9472
0.0789983
0.021925
0.0217297
0.0219349
0.0271572
0.0222624
0.195824
0.0215255
0.0220615
0.0220678
1.62908
4.89552
0.0215307
0.0220058
0.15531
0.483503
0.0247202
3.37874
5.15098
0.0218192
0.0221421
0.022134
0.0231014
1.5244
0.0220409
0.0222843
0.196976
0.0992379
0.0222121
0.0219457
0.0733726
0.0222836
0.0220764
0.113523
0.0886819
4.48206
0.0219848
0.0808536
0.0415775
0.0603051
0.0231261
0.0279342
0.0219414
0.0219756
0.122527
0.0262268
0.0220012
0.0252269
4.57631
0.0215458
0.021809
0.0215386
0.0782478
0.0219505
0.0220871
0.0214466
0.0219493
0.880351
6.70683
0.0222295
7.40094
3.93163
4.05566
0.0219384
0.0219414
0.02183
0.0218902
0.0221172
0.0221501
0.0216253
0.022083
0.0217816
0.0244354
7.47266
0.0369307
2.94231
0.0317045
0.0220338
0.0232467
0.0331718
0.0221861
0.0218466
0.0411619
0.0328174
0.724567
0.0448554
0.0215107
9.49141
0.0228532
0.0215011
0.0218942
0.518579
0.0460455
0.0227866
0.0262892
0.0220736
0.0220955
0.0326502
0.044015
0.0298591
6.66513
0.0220852
0.0220308
0.746876
0.0383677
0.0255476
0.156923
0.0234835
0.0673281
0.405658
0.0699168
7.79393
0.0218457
0.0217798
0.021943
0.0220495
0.0220955
0.0233894
0.0427344
0.0560436
13.3768
0.0220745
5.81274
8.91042
0.025261
1.76055
0.022245
0.10237
6.69593
0.0219137
0.10521
0.0215789
1.81165
0.0221976
0.289302
0.0218576
6.84422
0.0422567
4.71455
0.0218498
0.222737
0.021667
0.0234956
2.05999
0.0218403
7.83638
4.06564
4.21568
8.84777
0.107317
4.27046
0.0406707
0.0220199
0.0460869
0.0489377
4.17299
0.0220789
0.0220177
0.0229123
0.0505845
0.0219468
0.0222488
0.0222567
14.6814
1.77507
0.0219048
8.44735
0.0598928
0.0217284
0.0393695
0.0277763
1.88916
0.0306351
0.0217812
0.671788
0.0220733
0.0219407
0.0220905
0.135646
0.0672907
0.0218435
0.0269318
0.022111
0.0222606
0.0217947
7.59512
0.0222857
0.0218163
5.48058
0.299893
0.0246002
0.0218448
1.43607
0.0287006
0.0233743
0.021951
0.0526627
0.0235126
0.0284987
0.0251621
6.84047
0.0449334
0.0654114
0.0215035
0.0346305
0.0506696
0.0292538
0.0224201
6.11325
0.0222527
0.20987
0.0218871
0.0221935
0.0338627
0.266539
0.0238972
0.0258449
0.0221145
0.0378749
0.0711512
0.102117
0.0285383
0.0222923
0.0219666
0.0283422
0.0968231
0.0219411
0.0466932
0.0220179
0.021943
4.27521
0.0218883
5.70748
0.0219423
0.0273364
0.0801455
0.0219304
0.0298092
0.117357
0.114966
0.0219583
0.0911571
0.0228345
0.0222633
0.0218917
4.45494
2.38184
0.0219071
0.0219312
0.021647
0.021812
0.104516
2.80799
0.021933
1.35967
0.0217326
0.0218
0.0218934
5.91544
0.0230002
0.0240865
0.0219504
0.0220048
0.0219117
0.0222568
0.0222595
0.0336912
12.8376
0.0216481
0.021914
0.0422004
0.0740623
0.0217962
6.96441
0.0554747
0.0217916
0.021531
0.0223901
0.136825
0.0217537
0.0888139
0.0296421
0.0242092
0.021788
0.0483797
0.0215293
0.139817
0.028259
0.0224112
5.36619
7.54017
0.0214322
0.0218559
6.21708
0.1376
0.0852575
0.0250335
0.0888209
0.0215665
4.72107
0.0711584
0.0218168
1.54585
2.71008
0.0233426
0.0469038
0.0573047
0.0217739
7.45509
0.0221981
0.0279877
0.0310047
0.0222875
0.0220498
0.0534372
0.0218696
0.0218915
0.0218688
5.98524
0.0218482
0.02194
0.021763
0.0218893
0.0218604
0.0222301
0.0582462
0.0460714
0.0241265
0.0222498
1.91456
0.0223149
0.0218408
0.021897
0.021642
0.0220867
0.0219732
0.0301579
0.103121
0.022224
0.0321646
0.050952
0.0217622
0.028159
2.06432
0.0228929
0.021532
0.0220819
0.0850265
0.0222028
0.022203
0.0246889
0.0252236
7.51521
12.0342
0.0218259
0.0218658
0.0219461
0.070798
0.0232115
0.0217976
0.0286654
0.0767184
0.0221849
0.0273177
0.0221335
0.115511
0.55793
0.0232272
0.12959
0.026437
4.20281
0.0222051
0.0218938
4.79413
0.119988
0.0248468
0.196754
0.0929875
28.234
0.046943
0.682804
0.0265998
0.0259443
4.65894
0.0271939
0.763751
0.032144
0.136096
4.87582
0.0222933
0.0221507
0.0219808
0.371859
0.0214539
5.46969
0.0396428
20.1051
0.0230444
0.12115
0.240351
0.0219488
0.0222279
0.0813749
0.0305944
0.0220888
0.0260214
0.0794851
0.0838486
0.0834532
0.129226
10.1171
0.152713
0.0221154
0.0222014
3.33839
0.0778991
0.0228209
0.0389586
2.75362
0.0224165
0.024509
0.0219441
0.0293742
0.0220404
0.0221058
0.0394053
0.022107
0.022761
4.6159
28.9272
0.0217281
0.0260681
0.028
0.201233
0.0441731
0.0225692
0.0219288
0.106221
18.8078
0.0219325
0.0253307
0.022148
4.60491
0.0218254
0.0312181
5.42081
3.91479
0.022272
0.143119
0.0929938
0.0618919
0.0260158
0.0220218
5.50029
0.0218121
0.0274786
0.022254
0.0305822
0.021621
0.0216463
0.0222092
0.0716976
0.0218166
0.0219796
0.0218068
0.022135
0.0218665
0.0220934
0.0978753
9.14096
1.77175
0.0263515
0.0220583
0.0325912
0.0241905
5.45489
0.022285
0.188981
0.0216173
0.0219979
0.0226676
0.0365383
2.68976
0.0219608
4.33184
0.0224178
0.021526
0.023388
6.16732
0.0235375
0.0457892
5.16513
0.0222848
0.0221951
6.6924
0.0218822
9.95139
0.0220891
0.0339898
9.01138
0.0229359
0.0220982
0.0218599
8.50258
0.0277737
0.0218668
0.79558
0.0219625
0.0229975
0.0896238
20.3539
0.201089
3.70582
10.0534
0.0760325
0.0237317
0.190796
0.300478
0.0218849
0.0218541
0.0230211
0.0283619
0.0811618
0.0219943
0.025686
0.0219058
0.0219641
1.68347
0.0222251
7.15366
0.0215684
0.0345638
0.069274
0.0218281
0.0215199
4.03463
4.76421
0.0691872
0.0220825
0.0255223
0.0585467
0.0217661
0.0376004
0.111991
0.0427792
0.0233391
5.23506
22.6582
0.0215446
0.0221334
0.0216482
0.0221945
0.0231485
0.0288665
19.4942
0.0221206
0.0219635
0.0489636
17.5592
0.0215777
6.86499
0.021612
0.156088
0.0625912
4.62713
0.0754914
0.0550287
0.0577496
0.0215217
0.0215121
0.300328
0.0261501
0.0220891
1.94275
0.0218241
0.0220858
0.0216223
0.0527136
0.222566
0.752572
0.149776
0.0298343
0.0304373
0.0221373
8.80504
0.862979
0.0233236
0.0219768
0.0217739
0.106182
6.56091
0.0369287
7.78865
0.0229478
0.0217777
4.1101
0.021942
4.24086
8.72994
0.02169
0.0307878
3.05198
0.0245308
0.0368277
0.0218298
4.1309
0.0275731
0.167077
5.06457
9.39285
0.0294573
0.0299105
0.0221364
0.159462
8.745
0.0233719
0.0245315
4.30364
0.0506413
0.0693189
0.0222635
5.02798
4.74309
0.0991281
0.0219412
0.0277603
0.0218964
5.64333
0.0812656
0.0356904
8.06868
4.17234
0.021522
0.180216
0.022102
9.75794
0.0959904
0.0280394
0.0261801
1.41941
0.0214072
0.0698143
6.04331
3.068
0.0232757
0.0220326
0.0217896
0.0916021
5.9559
0.193832
4.15213
0.108552
0.0436676
0.0217715
4.0528
0.0886637
0.0291147
0.199147
5.13533
4.49948
4.59245
7.22324
4.95586
4.81093
0.0220902
0.0293672
0.0345964
0.0220121
8.90094
1.39685
0.0220209
5.82661
0.0221302
0.0219939
0.0217717
0.032797
0.0218657
4.34614
0.062803
1.49512
0.0217415
0.723478
0.0492423
1.63036
4.69628
0.0230343
0.0291321
0.0391076
0.0686097
0.0217885
0.0216445
0.0218915
4.15291
0.0217784
0.0217852
0.574972
0.0237836
17.3862
0.0220461
5.01713
0.0219521
0.0220606
0.0219628
0.0219863
0.0283692
0.0249772
6.14875
0.0317908
0.0407592
3.55891
0.0218251
5.32845
0.0217922
4.58015
4.40583
4.60819
0.0728818
0.0219863
0.0222726
4.15916
0.0221941
0.0275236
0.0221125
0.0317405
4.92976
0.021887
0.0218469
0.021869
0.0222651
9.30347
8.47816
0.0218397
0.0214464
4.18025
7.29076
0.0218596
3.76942
0.0222642
6.11272
4.47671
0.0774916
0.372054
1.04413
0.0882525
4.1951
0.0909412
0.0219677
0.021547
0.0217843
5.26785
7.84085
0.0232497
0.028701
4.19136
0.0218303
4.77081
0.0219078
0.0220502
0.021633
9.63515
0.0837734
0.0217634
3.97391
0.0222527
6.54308
3.24985
0.0217453
0.0221107
0.137907
0.0219555
0.0219242
0.0218311
2.32392
0.0326569
0.0220325
0.0221306
2.20919
0.0219303
0.0423991
0.0219894
4.66615
0.0221019
0.109545
0.0235942
4.18919
5.78618
0.0325012
0.0972217
0.0609906
0.0220765
0.0796022
4.36707
0.0217698
0.092508
0.0217637
0.719147
0.0218926
4.63181
2.26831
0.10993
4.15077
4.02436
0.0417963
0.0228539
8.30731
0.0219331
8.7373
0.0256812
1.97455
0.0218622
0.0334978
0.050349
0.0310174
0.022112
0.0219413
0.0221956
4.95408
0.0789888
3.99989
1.7134
0.0279662
0.0216222
0.0564609
10.2709
0.0344525
0.0218083
0.0220811
11.0567
9.48171
10.4366
4.98605
0.0381131
0.0222963
0.0217755
0.0560283
0.0547849
1.37875
0.022003
0.0220713
32.8545
0.0716995
0.0222853
0.0699119
1.8815
0.119897
0.0216341
0.0500263
0.737852
1.97855
4.76369
0.242441
0.0218652
0.0222691
0.0220723
0.0222849
0.02195
0.022092
0.0342727
0.234012
0.0360386
0.0292079
0.0296935
0.0221876
0.0265033
0.022851
0.0358627
0.0335954
0.0218259
0.0292429
0.0218867
0.0218428
0.0226136
0.0221206
0.427864
0.0216021
0.0804423
1.92809
6.43886
6.28766
5.30489
0.0224762
0.0222368
0.0219018
3.94608
0.0219645
0.0214756
0.0221742
4.15021
0.0319022
0.0360445
1.02574
0.0235562
0.0220349
0.0308255
0.0218769
0.0498928
0.0222854
0.0352501
0.0217899
0.0219228
0.0231619
0.0237032
0.026187
1.32456
0.0416873
0.11848
0.0649158
0.152737
0.0467354
0.0742641
0.021941
4.39388
0.0246548
0.0270639
0.021929
0.0230323
0.130638
0.0219849
0.0672173
6.54158
0.0297184
0.384003
0.112436
0.0560158
0.0737325
0.062745
0.0219314
0.0297842
0.0220917
0.0842934
0.0544408
3.64073
0.0217573
0.0509514
0.0267089
2.54267
5.9269
0.0494773
0.0220991
0.0559011
0.0215711
0.0744081
0.0229563
2.82001
0.0216559
0.0261186
0.0220202
0.0373605
0.173717
0.0319207
8.65505
0.0220417
0.0331069
0.0634216
0.0220193
6.40826
5.59989
0.194381
0.0606499
0.0511534
0.0218721
0.0217974
8.17493
0.110353
0.0216542
0.0227613
0.0251871
0.021895
0.469624
0.0217851
4.78895
0.160833
0.17976
0.039075
0.0223618
0.0216635
0.0218744
0.161408
0.0840152
0.0269174
4.45524
0.0221737
0.0232148
0.0276381
5.80796
0.0215099
5.32235
0.0214073
3.88636
0.0219114
0.0218979
0.0388809
0.0219859
0.0222517
0.159837
0.0220822
0.0223461
0.0218047
0.0470649
0.0261553
1.43008
0.0219929
0.0221091
0.0218488
0.155788
0.0218024
0.0290361
0.045207
3.89001
8.19643
10.9397
0.877963
0.465945
0.0437493
0.0649051
0.0276216
0.022251
0.0221209
5.17566
0.0595379
0.0215409
0.0219676
0.0219564
0.0291394
0.087842
0.0222518
0.0306846
0.13822
0.220622
0.122064
0.02197
0.0222376
1.95718
0.0243022
0.0215992
2.54107
6.11473
0.0217002
0.0214364
0.0273566
0.0220572
0.0388488
0.0222485
4.43643
0.0222726
1.43102
0.0220326
4.77839
0.0310402
0.0219446
0.0685653
0.0215958
0.0220971
0.0222647
0.0344781
0.702879
0.0218517
0.203886
0.0222855
0.0221997
0.118054
0.0217385
0.0221285
0.0221026
0.0214722
0.0219709
0.0215124
0.0221664
7.24064
0.0218562
0.0217827
0.0595992
0.0216344
0.0219381
0.0221674
0.0222986
6.82692
0.432085
0.0221005
0.0232634
0.0220203
0.0222855
0.242823
0.0220558
0.0219854
7.5638
0.0219639
0.0487902
0.0632699
0.039264
0.0219392
0.281476
0.0219024
1.54841
0.0710004
0.0219622
7.10606
1.68832
0.0286114
0.126396
0.0218424
0.0218637
0.0467102
0.260031
0.0217886
0.0218584
0.0223475
0.0434132
0.0221047
0.0375848
0.0221118
0.0506379
7.51508
0.0406478
0.236961
0.0218443
0.0258663
0.0228558
0.023597
0.0216893
0.0218875
0.0230905
0.0234627
0.0705434
0.0224096
0.108495
0.0219893
3.93582
0.0215212
0.0217741
0.079132
0.0222715
0.112954
0.0993638
0.0389667
0.0220552
0.0231051
0.0220533
0.0391238
0.0220801
0.0571095
0.0268111
0.0221789
0.0216831
0.0279718
5.10942
0.0331758
0.0538652
2.97817
4.36649
0.0405014
0.0215727
4.12843
0.0219709
0.0241187
0.0224289
0.121451
0.0220094
0.0366443
0.0282553
0.0237861
0.0221217
0.0259931
0.0222
0.0659341
0.0219358
0.0221855
0.0219869
0.02943
7.43981
0.0220385
7.12485
0.0885835
0.0214574
6.3456
4.44107
0.0218871
0.0237631
0.0991355
0.0217905
0.0218984
2.41059
0.0220279
3.03125
0.0257181
0.0251434
0.0227025
0.0226864
0.0219162
0.021896
0.0627284
0.0225666
0.0219626
0.0219089
0.0225063
4.95359
0.0382017
0.0220939
0.0294424
0.182846
0.0683168
0.0218815
0.0221087
0.0219513
0.0256124
0.0228468
0.0224355
0.0287485
5.25311
0.0218704
0.0234541
2.23955
0.0250397
0.119146
0.162855
0.021866
0.02227
4.3649
0.0976133
0.438404
4.75594
2.94429
0.26811
6.6941
0.0218339
0.0237867
0.0216792
0.0221865
3.56958
0.0219911
0.0603477
0.0728354
0.0323976
0.0252999
1.32478
0.0219037
0.0221173
0.0259291
0.021938
0.0220504
0.0218064
0.0222256
0.0773423
0.0219408
0.0221521
0.0217906
0.0471416
0.0221325
5.02771
0.0219168
0.0235911
0.0218161
0.0222521
0.0229566
0.0219991
0.0398132
0.0230173
0.021932
0.0290948
0.0221195
0.0222645
0.0220014
0.0315928
0.0225501
0.0220361
0.0220491
0.022062
0.0309302
0.0220229
0.0220103
0.128854
0.0220765
0.0219256
0.024623
2.23037
0.055982
0.0226838
0.059494
8.82404
0.1437
0.225795
0.0242153
0.0230442
0.0284789
3.37272
0.0221864
1.70635
0.02297
0.0218931
0.0292697
0.022054
0.0769836
0.0846401
0.0700282
0.0232114
0.0219882
0.0295847
0.0278465
0.0229697
0.0249323
0.0242041
0.0456195
0.077335
0.0836401
0.021948
0.0250212
1.47682
0.0232033
0.0222852
4.87807
0.591853
0.0219789
0.0226817
0.023881
0.0808968
7.40642
0.0219607
1.2573
6.02475
0.0392059
0.0639014
0.0217138
0.024139
0.023041
0.0935391
0.0222318
0.0299923
0.0241247
2.00716
0.0221936
0.0220633
4.81682
0.0242149
0.0230694
0.0222797
0.0222125
0.039852
4.04844
0.028686
0.0220445
2.05593
0.108937
0.0225282
0.0219551
0.0218236
0.0245909
0.0217694
0.2842
0.0218548
0.024897
0.0252891
0.0665348
0.0267584
0.0218583
0.027921
0.0247266
0.0218413
0.113327
0.0220869
0.0239187
0.0216892
0.0222719
22.8621
0.0300454
0.0225118
4.08434
0.0231579
0.0219501
8.20677
0.077112
4.02072
0.0219228
0.0235488
0.0218719
0.0228957
0.0233045
5.03661
0.0228051
0.102404
0.0218236
0.0223151
0.0245825
0.0220365
0.0375276
9.25748
0.708898
0.0219545
0.0217191
0.302078
0.0225905
0.022275
0.0268498
0.0287513
0.471555
0.0894107
0.0230829
4.29124
0.100304
0.0224795
0.0217837
0.0224112
0.0289569
4.0844
0.0222839
0.0730241
0.0231641
0.0220917
0.0215888
0.0226559
12.3596
0.027289
0.0217997
0.0240496
0.0220957
0.0255716
0.0214455
0.0238886
0.0220251
0.0234117
0.492127
0.0220635
0.0222128
0.114361
0.0216183
0.0215797
5.16101
0.0218779
4.5676
5.11866
8.78308
0.0271269
0.0221512
0.0215102
0.0221391
0.0214842
0.0239675
0.432478
0.056275
0.49175
0.0925527
0.0245389
0.0216167
0.0234899
0.0228116
0.0222726
0.0221461
0.0215687
0.0768968
0.022771
22.0543
0.0223456
0.0229089
0.0222634
0.0221951
6.19803
0.145936
0.0289844
0.0215088
0.057903
0.0236982
0.0219756
0.0920678
0.0214561
0.0240166
5.56853
0.0219625
0.0218897
0.0218888
6.57947
4.5761
0.0216618
0.0228361
0.025838
0.0221142
0.0216876
0.0219948
0.0220761
0.0218975
0.0218497
0.0219011
0.0255286
3.99889
0.0389949
0.0219382
0.0219348
0.0225354
0.0222955
0.0221774
0.0263893
0.02786
11.9989
0.0268404
0.0222178
0.0231468
0.0219502
0.108013
0.0216118
0.0222234
0.0233538
0.0297454
0.0270372
5.92192
0.0221814
0.0337189
0.0228031
0.0227823
0.0221049
0.0216256
0.0234882
0.13616
0.35208
0.0217689
0.0402104
0.0820176
0.0222647
0.0447036
0.0403269
3.00324
0.0222494
0.0238691
0.0228387
0.0216032
0.0849587
0.0219628
0.0220019
0.05881
0.909722
0.676276
0.0217963
0.0219074
6.76032
3.96239
0.0216071
8.29019
5.82682
0.0218231
0.0216057
0.021779
0.0220775
0.0221406
0.0215603
0.0294589
4.83345
0.0218501
0.0219632
0.0217008
0.0221578
0.0217949
0.0218636
0.0215503
5.34061
0.0221202
1.77042
0.0221904
0.021809
0.023419
0.0218427
0.0221756
0.0312462
0.0221551
0.0223402
5.06611
0.0219952
0.0263772
0.0220455
0.0219814
0.0221409
0.0218105
0.14083
0.0220603
0.0221074
0.0221069
0.233599
0.0364586
0.0222853
0.0221752
0.0219422
0.0234889
4.02359
0.0236192
0.0239025
0.0219544
0.0221236
0.0219417
0.0553495
0.0237195
0.0233009
0.478643
0.0472742
0.0218217
0.0262775
0.0221185
0.0226621
0.0218564
4.68934
0.0219648
0.0220589
0.0218043
0.0301735
0.0240737
0.02338
0.021937
0.0217957
0.0670783
5.67833
0.0218385
0.0571492
0.0237403
0.0236136
7.76049
0.0217722
0.0219887
0.0219542
0.0244696
0.0238693
0.0217943
0.0247872
0.0219089
0.115045
0.0215298
0.0217196
0.0265876
0.0221427
0.103038
0.0274914
11.7166
0.0712823
0.0222119
0.114378
4.23064
0.0229563
0.0254936
0.0220686
0.0256367
0.021785
0.0427452
0.0468727
0.021882
0.0296275
0.0219082
4.36812
0.0224245
0.0245914
5.33861
0.0492295
0.0248617
0.163786
0.0221563
0.0219969
4.66359
0.0217816
7.73588
0.0218449
0.0218625
0.0848975
10.8876
0.0219141
0.0440889
10.0754
0.0218544
0.0221747
0.0220208
0.0296433
0.0267941
0.0232018
0.0220089
4.0508
0.0219676
0.0229376
0.0219418
0.0218951
0.0220394
0.0239691
0.0288294
5.84621
0.0222314
5.46686
0.0219433
0.0231448
0.02504
0.0229957
0.0683975
0.0703329
0.0227111
0.0219306
0.0218269
0.106597
0.0217572
0.0218277
0.702521
0.132683
0.0217685
0.0220068
0.0217789
0.0220908
0.0251892
0.0833915
0.0219691
0.0221269
0.0217466
0.0223788
0.0219678
0.0215115
0.0293007
3.51677
0.0217007
0.0225176
5.71342
0.0219077
0.040413
0.022071
0.0325762
0.0602921
21.1391
0.0222612
0.022057
0.0217887
0.0223206
0.0220443
0.0214559
0.0221445
0.022127
0.0237755
0.0631232
0.0261185
0.024137
5.26712
0.022031
0.15429
0.0217526
0.0219566
0.0220182
3.37344
0.0218362
0.058663
0.0234665
0.0228464
0.0219361
0.0217692
0.0219035
0.0226369
0.021852
0.0218156
0.0506314
0.987439
5.07793
0.0217913
0.0543511
0.0223545
0.0220862
0.0218584
0.02208
0.865013
0.0218765
0.0219192
0.0545254