/*--------------------------------*- C++ -*----------------------------------*\
| =========                 |                                                 |
| \\      /  F ield         | OpenFOAM: The Open Source CFD Toolbox           |
|  \\    /   O peration     | Version:  v2012                                 |
|   \\  /    A nd           | Website:  www.openfoam.com                      |
|    \\/     M anipulation  |                                                 |
\*---------------------------------------------------------------------------*/
FoamFile
{
    version     2.0;
    format      ascii;
    class       volVectorField;
    location    "100";
    object      ddtCorrDdt0(U);
}
// * * * * * * * * * * * * * * * * * * * * * * * * * * * * * * * * * * * * * //

dimensions      [0 1 -2 0 0 0 0];


internalField   nonuniform List<vector> 
9793
(
(-0.069274 -0.0598965 -3.33926e-18)
(-0.00276018 -0.0457297 2.60102e-20)
(-0.0738957 -0.0521943 -4.11592e-19)
(1.11301e-05 8.05833e-05 7.00712e-20)
(-0.0825661 -0.52768 -3.27071e-18)
(0.0052174 0.00141364 3.021e-18)
(0.000285869 -1.79959e-05 -3.86066e-19)
(0.000598261 0.0001412 4.37179e-19)
(0.000349376 -0.00134246 -6.6115e-22)
(-0.0634682 -0.481534 3.5661e-18)
(0.0301564 -0.0274071 6.65477e-19)
(0.0697823 -0.0334919 -7.78482e-19)
(2.62892e-05 7.55881e-05 -2.74464e-19)
(0.00124226 -0.00620895 2.27227e-19)
(6.91976e-05 -7.03512e-06 -8.43197e-20)
(-0.000393259 -0.00603652 -2.3333e-19)
(-0.000180164 -0.00524469 -3.72357e-19)
(2.32661e-05 -0.00603639 -2.28334e-19)
(-0.0378169 -0.0404315 -2.44648e-19)
(0.000252239 -0.0066873 1.56475e-19)
(0.0899586 0.054924 -5.89345e-19)
(-0.00836417 -6.50732e-05 1.02173e-19)
(-0.0169888 0.153275 -5.57037e-18)
(0.00116695 4.33922e-05 3.39129e-21)
(-0.00355515 0.0018745 -4.13199e-19)
(2.15635e-05 4.92732e-05 3.4888e-21)
(-0.00304899 -0.00718047 -2.98454e-19)
(0.00042126 -0.00243324 3.05497e-19)
(0.00308826 -0.0395592 -5.92468e-20)
(0.00024716 -0.00131375 1.28199e-19)
(0.0227301 -0.00991215 -4.75278e-19)
(-0.00979101 0.140611 -3.92794e-19)
(-0.0177435 0.113641 -3.07984e-18)
(-0.000131425 7.59624e-06 7.66119e-20)
(-0.000771419 -0.0454755 7.74136e-20)
(0.0168426 0.184049 -1.4433e-18)
(0.000271791 -9.72514e-06 7.65281e-20)
(-0.00821014 0.000844615 3.1473e-19)
(0.000858663 0.000381352 2.31848e-19)
(-0.00011725 -5.12871e-05 4.34567e-19)
(0.0203865 -0.0113381 -1.03749e-19)
(7.90584e-05 -1.29032e-05 -9.38869e-19)
(1.9444e-05 2.80372e-05 -2.33089e-19)
(0.000260954 -2.81229e-05 2.16365e-19)
(1.69704e-07 2.3031e-05 3.43085e-19)
(2.81322e-05 4.98922e-05 2.80888e-19)
(0.00404231 -0.0422466 -7.56018e-20)
(0.0323184 -0.0116878 1.10919e-18)
(-0.00671827 -0.0666913 9.60613e-19)
(9.95784e-06 8.66636e-05 -3.28625e-19)
(-0.000779329 -0.0485954 8.50154e-20)
(0.0292123 -0.0351367 -2.46954e-18)
(0.0047308 0.00416363 2.9762e-21)
(-0.00114876 -0.0015469 -1.22287e-18)
(0.0447468 -0.0917857 3.60575e-19)
(0.127289 -0.0544749 1.09682e-18)
(9.18673e-05 -0.000417112 1.10198e-20)
(0.0523807 -0.0191236 8.12523e-19)
(-0.0394422 -0.241894 -8.78379e-18)
(0.000831061 0.000311254 2.20496e-19)
(-0.000160891 -2.00274e-05 -2.68294e-20)
(0.00249437 0.00601403 5.44624e-19)
(-0.0270142 -0.170264 -5.0475e-19)
(-0.000139124 6.78476e-06 -1.60574e-19)
(0.0740915 -0.233562 2.12973e-18)
(-0.00917727 0.0707759 4.83923e-19)
(-0.0451648 -0.140944 4.58283e-19)
(-0.0413866 -0.102175 -8.81381e-20)
(0.0627495 -0.0339223 2.55094e-19)
(0.0275782 -0.0285885 -6.90448e-19)
(0.0384725 -0.103138 -1.31339e-18)
(0.000701518 3.96186e-05 -2.37027e-20)
(4.18263e-05 0.000240488 -2.63421e-19)
(0.01656 -0.0156337 -4.50793e-20)
(-0.00373394 -0.0540208 -5.70838e-19)
(-0.0665754 -0.187485 3.19855e-18)
(4.81518e-05 -0.000477353 -4.85384e-20)
(0.00206403 -0.00149116 -5.31186e-20)
(0.0014508 -0.000742984 8.16807e-20)
(0.00119797 -0.00201101 -2.41596e-19)
(-0.0222649 0.0703635 -2.80724e-19)
(0.00128567 -0.00102352 1.80255e-19)
(-0.0231591 -0.0595476 -4.10038e-20)
(0.0354849 0.00674843 8.52483e-20)
(0.017591 -0.0083753 -1.45723e-18)
(0.0355636 -0.00692907 2.69505e-20)
(0.00145862 -0.00216955 4.20183e-19)
(-1.68068e-05 -0.000545304 2.02643e-19)
(0.00189936 0.00451162 1.53198e-19)
(0.00146333 -0.00146172 6.50992e-19)
(0.000680119 -0.0381556 -1.16389e-19)
(0.169785 -0.0174988 -3.31089e-18)
(-0.000826216 0.00248043 8.01983e-19)
(0.00919816 0.125743 -8.25297e-18)
(0.00182558 0.00541521 -9.43167e-19)
(0.0374727 0.0110303 5.08441e-19)
(0.12924 -0.0346741 -1.88246e-18)
(-0.0172502 -0.053073 -2.02027e-20)
(-0.000795968 0.00207142 5.09216e-20)
(0.00101731 0.00126625 2.06002e-19)
(0.00115031 0.00108725 2.05024e-20)
(0.00242801 -0.00121174 1.83321e-19)
(-0.00140139 -0.000525384 -5.55101e-19)
(-0.00121911 -0.000503731 -4.7687e-19)
(0.00220433 -0.00119276 3.32972e-20)
(0.0153621 -0.00916714 1.17046e-18)
(0.00131202 0.00418967 -8.41947e-20)
(-9.90642e-06 -3.4638e-05 -2.02155e-19)
(0.00382557 0.00380457 -5.7088e-19)
(0.0265083 -0.00964009 4.86793e-19)
(0.000635635 2.67241e-05 2.71349e-20)
(0.0863466 0.00779009 1.5487e-19)
(7.06467e-05 -0.00028793 -3.78238e-20)
(0.0818768 0.116622 4.32668e-18)
(0.0273849 -0.0382503 1.89671e-18)
(8.22357e-05 -0.000462374 -1.61768e-19)
(0.0233265 0.0783822 1.39998e-18)
(-0.00869956 -0.0536527 -1.50911e-18)
(0.00117468 -0.000972352 6.09649e-20)
(0.015575 0.107581 6.25825e-18)
(0.026215 -0.0139867 -7.76039e-19)
(0.000316429 4.82464e-06 1.25786e-20)
(-0.000385817 -0.000281669 -6.17632e-20)
(0.00612932 0.00104003 -1.47739e-18)
(-0.00180112 -0.00299207 2.11093e-19)
(0.0960863 0.0393093 6.75906e-19)
(0.0226616 -0.00872385 2.93637e-18)
(0.0389232 -0.00602406 -5.46119e-19)
(0.00149539 -0.000549506 -9.00128e-19)
(-0.000166286 0.000223364 -2.19427e-19)
(0.000532527 3.35635e-05 -2.20239e-21)
(3.09568e-05 -0.000539672 1.17892e-19)
(-0.000164611 0.000240618 1.2174e-19)
(0.00337826 -1.27621e-05 -1.52688e-20)
(0.000242353 -0.00117564 1.32526e-18)
(-9.29529e-05 -0.000604552 -3.22963e-19)
(-0.000143278 3.95515e-06 7.14044e-20)
(0.00025369 -3.16789e-05 -3.87103e-19)
(5.25149e-05 -0.000272007 1.12563e-19)
(-0.000590224 0.000111832 1.20386e-19)
(-0.000374986 -0.000244555 2.79575e-20)
(-0.00270794 0.00260342 -1.01825e-19)
(0.000235808 6.49399e-05 -6.30231e-19)
(0.00223777 0.000628793 5.32941e-19)
(0.00205694 -0.00675033 -1.36544e-19)
(0.0033949 -0.0086893 -4.95714e-19)
(0.00921954 -0.0203142 3.07318e-21)
(0.00216059 0.000936562 7.41136e-19)
(-0.0013148 0.00127731 5.32111e-20)
(0.157814 -0.0060304 1.02706e-19)
(-0.0250133 0.153753 1.58006e-18)
(0.000486546 3.40654e-05 2.39082e-20)
(-0.0548702 0.132283 -3.48188e-18)
(-0.110754 -0.491281 1.81494e-18)
(-0.00119324 0.0010409 3.51625e-20)
(0.00045788 1.38924e-05 4.52241e-21)
(-0.000308272 0.000120427 -5.1334e-22)
(-0.00214944 0.00256997 4.7238e-19)
(0.00166932 0.00094193 -7.05304e-20)
(0.000250528 6.38071e-05 -3.22184e-19)
(0.00064848 0.000147279 1.00522e-19)
(0.000164463 -0.00268769 -2.99118e-19)
(-0.00368152 -0.00422593 -2.18687e-19)
(-0.0640027 -0.0155034 -1.47978e-18)
(0.0147296 -0.0209139 -2.2018e-20)
(0.0824923 0.0871924 4.45569e-18)
(0.0356229 -0.0113481 1.26253e-18)
(-0.0110454 -0.0126712 -3.26593e-20)
(-0.00337522 -0.00613909 -1.36953e-20)
(0.00198296 -0.000710507 2.96832e-20)
(-0.00019565 -0.000328609 -8.62365e-19)
(0.000904749 -0.16995 -5.27588e-20)
(0.0158393 -0.0231809 -6.08523e-20)
(0.0227034 -0.144091 -6.52833e-19)
(-0.0012432 -0.00286959 1.47352e-19)
(-0.0481049 -0.0356675 1.45342e-19)
(-4.01041e-05 -0.000600935 7.6029e-20)
(0.0011975 0.000265221 -1.60036e-20)
(-0.00011608 0.0003183 6.53301e-20)
(0.00349958 -0.0170207 2.59908e-18)
(0.112821 -0.0180959 9.06528e-18)
(0.00191089 -0.00406943 1.49472e-19)
(0.0015289 0.00119763 -3.41508e-19)
(-0.00297495 0.00199055 -4.43587e-21)
(-0.073166 -0.0317256 -7.73291e-18)
(2.30982e-05 0.000219975 8.43115e-19)
(0.0561986 -0.020303 2.04861e-18)
(-9.0477e-05 0.000306389 4.45258e-19)
(-0.000459734 -0.000140659 1.53059e-20)
(-0.00285173 -0.00453327 6.65996e-21)
(-0.00100217 -0.0029961 -2.15243e-19)
(-5.16452e-05 -0.000125628 1.97331e-20)
(-0.0195228 -0.0648896 1.41245e-18)
(0.09082 0.0158578 1.0147e-19)
(-0.0321279 -0.122697 5.44072e-22)
(0.00337568 -0.0160263 -4.91492e-19)
(-0.0698524 -0.0671081 4.26235e-19)
(0.00149712 -0.000892374 -9.09937e-19)
(-0.159842 -0.506888 3.18626e-18)
(-0.000560554 0.000115129 -1.23465e-19)
(0.000161454 -0.00114523 -1.55989e-18)
(-0.110383 0.0500277 2.45855e-18)
(0.141026 -0.0500517 -6.01046e-18)
(-0.000193844 0.000193109 -5.47426e-20)
(-0.000128163 -0.000661442 2.15282e-20)
(0.00189895 -0.000964038 -7.03901e-20)
(0.0803883 0.102776 -3.17533e-18)
(0.00211902 -0.00284758 -1.26417e-19)
(0.0132411 -0.00671437 -2.24938e-19)
(-0.00202158 -0.00539484 -2.23338e-18)
(-0.00135273 -0.0240234 -2.54008e-19)
(-0.0230068 -0.0543221 -7.1446e-19)
(0.00105532 -0.0760234 -1.03349e-18)
(-0.00112926 -0.00174703 4.36078e-19)
(-0.0814081 -0.0733416 -1.99273e-18)
(-0.000269077 0.000133756 -1.24908e-20)
(0.00238791 -0.000343551 2.55798e-19)
(-0.0829635 -0.0153517 -2.84437e-18)
(0.00198211 -0.000733012 7.92399e-20)
(0.0952721 -0.132826 3.42283e-19)
(-0.0263287 -0.0696113 -3.93699e-18)
(-0.000240372 -0.000438734 2.01787e-19)
(-0.0015126 -0.00315822 3.37255e-20)
(-4.18523e-05 -0.000110276 -5.73392e-22)
(0.0396239 0.0015693 9.68874e-19)
(-0.0850221 0.00498597 2.54274e-18)
(0.00499209 0.00231076 -2.91828e-19)
(-0.0012372 0.000618384 -1.55138e-19)
(-0.0182863 -0.0688385 -1.06768e-18)
(0.0217429 -0.0293091 -2.96224e-18)
(0.00127414 4.24348e-05 -5.80477e-21)
(0.00121136 0.000142453 -7.88979e-22)
(0.00223774 -0.0041884 -3.21257e-19)
(-0.000495038 0.000121657 7.10226e-21)
(0.0257682 -0.0147211 -3.25745e-18)
(0.0815141 -0.139618 2.62932e-18)
(1.14151e-05 -0.000272652 6.99535e-20)
(-0.000206274 -7.60341e-06 6.40085e-19)
(0.111909 -0.0250613 2.39738e-18)
(0.0017977 -0.00121692 6.68846e-20)
(0.0114318 -0.0072634 2.12787e-19)
(0.00279064 -0.00506784 4.03041e-20)
(-0.000339596 0.000223773 5.74187e-19)
(-0.0192746 0.0973179 -5.82916e-19)
(-0.000155005 0.000114531 7.42298e-19)
(-0.00105178 0.00153379 1.38016e-20)
(0.000586023 9.37999e-05 -2.73519e-19)
(-0.00173208 0.00300518 4.93445e-19)
(-0.00113347 0.00184659 -1.98021e-19)
(-0.000144381 1.03315e-05 -1.66274e-19)
(-0.0025787 0.000401464 -6.61734e-20)
(-0.00132619 -0.0105084 -1.38331e-18)
(0.0234987 -0.0378263 -7.46859e-19)
(0.024214 -0.0115023 2.93565e-18)
(-0.000201973 0.000337631 -3.75739e-19)
(-0.00953906 0.00462164 -1.58746e-19)
(2.04449e-05 -0.000214092 -9.3055e-19)
(-0.00159184 -0.0113716 6.67717e-20)
(0.00445639 -0.00319973 -1.60663e-18)
(0.00211116 -0.0019032 -3.35333e-20)
(0.00456844 -0.0378441 3.45164e-19)
(-0.000140143 4.69685e-05 -1.1343e-18)
(0.0211391 -0.0408534 -9.31545e-19)
(-0.000293303 -3.0782e-05 -1.10556e-20)
(-0.0108819 -0.0142291 -1.13779e-19)
(0.00152999 -0.000315823 1.99426e-20)
(0.0015787 -0.000184243 -1.32373e-20)
(-0.00346402 -0.0241653 3.82685e-21)
(-0.112899 0.0780083 -5.91932e-18)
(0.00131968 0.00328392 2.28703e-19)
(0.00237515 -0.00153463 3.113e-20)
(-0.00173625 -0.00184744 1.2946e-19)
(-0.0192851 5.83034e-05 4.39061e-19)
(-0.00018174 -0.000496888 -1.16546e-19)
(0.0136933 -0.0295683 1.82818e-20)
(0.0137223 -0.03206 -1.01987e-19)
(-0.000193222 0.000213997 4.70791e-20)
(0.109363 0.0160225 7.54908e-20)
(-8.01558e-05 -4.60453e-05 -1.26675e-19)
(0.0243036 -0.00934981 -1.18428e-17)
(-0.0012629 0.00284448 -2.92633e-19)
(0.00145037 3.90108e-05 1.32775e-20)
(3.37214e-05 -2.29842e-05 1.83074e-19)
(-0.000133905 -4.91018e-05 -1.18518e-18)
(0.0220699 -0.00698159 -3.74939e-18)
(-0.000268146 -0.000425049 2.03239e-19)
(-0.00249131 0.000655302 1.8689e-19)
(-0.00713908 -0.0134931 2.77473e-19)
(0.000306389 -1.10644e-05 -1.10445e-19)
(-0.000187472 -0.000654281 -2.82755e-19)
(2.60453e-05 -0.000287347 -9.10379e-20)
(0.0101138 0.0918608 1.69581e-19)
(0.00290257 0.00277894 6.68902e-21)
(0.000259772 -1.54015e-05 -4.3104e-19)
(0.000427596 4.15172e-05 3.27013e-21)
(0.00333098 -0.000415669 -3.96382e-20)
(-0.00314657 -0.00298878 6.55676e-19)
(-0.00757309 -0.0143904 5.15799e-19)
(-0.000113381 -2.39989e-05 -1.2641e-19)
(-0.0449846 0.0426689 -2.07398e-19)
(-0.00137195 0.000777949 -2.22347e-19)
(-0.0677987 0.00838082 -1.03888e-18)
(0.0119562 0.118279 2.39411e-18)
(-1.98226e-05 -2.29706e-05 -4.09031e-20)
(0.000144254 -3.37266e-05 1.56324e-20)
(0.0025621 -0.000223632 8.26542e-19)
(-0.0214237 0.000362344 3.18598e-19)
(-0.0106412 -0.00710097 1.68327e-19)
(-0.000472411 0.00283234 3.87545e-19)
(-0.0661655 0.0246716 -7.46607e-19)
(-6.49563e-05 -3.03552e-05 3.84478e-20)
(0.00241879 -0.000539039 -4.50131e-19)
(-0.0115557 -0.00692015 1.1595e-19)
(-0.0025312 0.00190018 -5.611e-20)
(-0.00165213 -0.000234565 -1.66525e-19)
(0.00158269 -0.00132936 -5.31631e-19)
(0.0367155 -0.000978079 3.51382e-19)
(-0.000608345 0.000783141 -1.30409e-19)
(-0.0166493 -0.00255249 -7.60585e-19)
(-0.00178729 -0.00589741 2.8096e-18)
(-0.000215224 0.000660106 3.77904e-19)
(0.017304 -0.0185417 1.75421e-20)
(-0.0724938 -0.00991668 1.46685e-19)
(0.0133043 -0.0149843 1.04475e-19)
(0.00180294 -0.000530317 -3.07898e-20)
(0.105799 -0.0179983 -8.65805e-18)
(-0.0039578 -0.00279261 -4.88278e-19)
(-0.0208071 -0.299406 -1.65901e-17)
(-0.0101344 -0.0613291 1.26571e-19)
(-0.00300169 -0.00254828 -1.66104e-19)
(0.00480304 -0.00451849 -6.18192e-19)
(-0.0160352 -0.0616576 2.69604e-18)
(0.00232485 -0.000946481 8.05655e-19)
(0.00991292 -0.00530867 9.08257e-19)
(0.0339859 -0.0323962 -4.89061e-19)
(0.000576992 4.25047e-06 -3.62019e-19)
(2.84977e-05 3.01225e-05 -3.20132e-19)
(0.000144282 -0.00105857 -8.15444e-19)
(-0.000134748 -3.99401e-06 -4.09378e-19)
(0.000712041 -0.00248998 -3.11205e-19)
(-0.0526873 -0.0712638 1.39464e-18)
(-5.55243e-05 0.000325779 7.11654e-19)
(-0.00016486 0.000597698 7.78717e-20)
(-0.0450706 0.102987 -1.85728e-17)
(0.00195982 -0.00117827 3.92729e-19)
(-0.00134824 -0.00614714 1.30884e-19)
(0.00163164 -0.000506379 5.46728e-20)
(-0.00564904 -0.000612071 -5.33087e-20)
(0.000609403 3.98985e-05 -3.64785e-19)
(-0.0540376 -0.0812078 1.64587e-18)
(-0.00241389 -0.00306151 -1.14954e-18)
(-0.000655183 -0.00039719 1.64768e-19)
(-0.00181257 0.00143846 -4.03717e-19)
(0.00220176 -0.0013206 -7.34918e-19)
(-0.0124138 -0.120183 6.02912e-19)
(-0.000977384 -0.00146008 8.44406e-19)
(-0.00164591 0.0302413 3.98847e-19)
(0.00124492 0.000210731 7.95398e-21)
(0.00988643 -0.0275917 -9.52332e-20)
(0.0587689 -0.104693 -1.27473e-19)
(0.055881 -0.0244468 -4.14443e-19)
(0.0110695 -0.0288188 -3.57092e-19)
(-0.00528481 -0.000205737 5.65595e-20)
(0.00431926 -0.000120498 1.29752e-19)
(-0.0923579 -0.0505151 -9.04322e-19)
(-0.000148344 -2.17883e-05 -2.04536e-19)
(0.00642771 -0.0421707 -4.53654e-19)
(0.00148655 -0.00117017 8.1806e-19)
(-0.000464998 0.000125637 6.44882e-21)
(0.0269324 0.0898544 4.30553e-19)
(0.00847894 -0.0056301 -1.28163e-18)
(-0.0677225 0.00638634 -3.30179e-19)
(-0.000626163 -0.000415593 -1.57516e-19)
(0.0273733 -0.0157011 1.11794e-17)
(-0.0416224 0.24414 2.32628e-18)
(-0.00464608 -0.00395726 -3.83282e-19)
(-1.42495e-05 0.000203775 1.03209e-19)
(-0.0030077 0.11103 -7.02796e-19)
(0.00500474 -0.0119286 8.17978e-18)
(0.0112416 -0.0195635 -2.72476e-20)
(-0.0100229 0.00346715 1.75223e-18)
(-0.000687309 -0.00141866 4.46763e-19)
(-0.0332186 -0.00190766 4.16272e-18)
(-0.000115566 -1.72584e-05 2.34577e-19)
(-0.00484166 -0.00242156 -2.32754e-20)
(-0.000337655 -1.39526e-06 1.39551e-19)
(-0.000105622 -3.82322e-05 1.84718e-19)
(-0.00187582 -0.00726772 -1.96198e-19)
(-0.000798169 -0.00154411 2.73924e-19)
(-0.0089385 0.00254238 -1.6186e-18)
(-0.0101617 -0.132177 3.96791e-19)
(-0.000787057 -0.0025241 -5.73168e-19)
(0.086163 -0.0609784 -1.33469e-18)
(0.043915 0.057211 -7.96548e-18)
(-0.0895865 -0.0337901 -1.51371e-19)
(0.022934 -0.0268055 1.60718e-18)
(0.0079458 -0.0126935 4.99145e-20)
(-0.000206709 -7.23825e-06 2.30478e-19)
(0.00018888 -0.00098471 2.50717e-19)
(0.0234822 -0.168468 -3.01449e-18)
(0.049105 0.0296817 2.24124e-18)
(0.00345048 -0.00448539 1.05635e-19)
(0.00100694 -0.00238294 9.62777e-20)
(-0.0858101 0.295312 -2.92972e-17)
(-0.00206391 -0.00165816 -1.47868e-19)
(0.0305901 0.260899 8.5269e-18)
(-0.000177844 -9.72292e-05 -1.38077e-18)
(-0.00920977 0.00151862 -6.78164e-19)
(-0.00202535 -0.00134246 -1.5764e-19)
(-0.00651586 -0.0274624 1.67709e-19)
(-3.6108e-05 0.000307102 -3.60266e-19)
(0.00536619 -0.0128496 -1.83959e-18)
(0.110778 0.031571 1.09434e-18)
(0.00245897 -0.00244719 2.30762e-19)
(-0.0316332 0.159939 -8.49212e-19)
(0.00104127 0.00998994 1.26252e-19)
(-0.00280562 -0.00329002 1.35922e-19)
(-0.000742342 0.0102022 -2.25125e-20)
(0.00152989 -0.00108096 -5.35499e-19)
(0.00107959 0.00372621 -5.09154e-19)
(0.00447851 -0.00776741 2.18174e-20)
(-0.139665 0.0615225 2.81327e-18)
(-8.10805e-05 -4.60626e-05 -1.08724e-19)
(-0.00179876 -0.000202373 1.4074e-19)
(0.0327403 -0.0352655 -6.615e-19)
(-0.000436799 -0.0013513 -8.58854e-19)
(0.00382954 -0.00395338 -3.11492e-19)
(-0.00360855 -0.00318734 -3.61594e-20)
(-0.00369972 -0.00349348 2.33784e-19)
(0.00281635 -0.0186059 -3.23175e-18)
(0.000285167 4.69991e-05 1.57429e-19)
(-0.00183501 2.14717e-05 -4.98913e-20)
(-0.00210621 -0.000345492 1.62398e-19)
(-0.0634132 0.0616055 7.11057e-18)
(0.00218265 -0.00807111 -2.67299e-19)
(-0.0604685 0.0294129 -1.0173e-17)
(0.00208141 -0.000573581 6.96264e-19)
(-0.0470217 -0.0442336 -1.29526e-19)
(2.16636e-05 2.26603e-05 3.75331e-19)
(0.00206708 -0.000897657 -1.2488e-18)
(0.000189069 -2.29338e-05 -5.48295e-19)
(-0.000918204 -0.00237387 -8.1333e-19)
(-0.0814051 -0.117762 6.44754e-18)
(0.00141633 -0.000906788 1.54322e-19)
(0.0691464 -0.0941846 1.52298e-19)
(-0.00264366 -0.00528094 -1.31134e-21)
(-0.000258007 -0.00043246 2.4487e-19)
(-0.00449403 -0.00294017 4.46777e-19)
(-0.0743279 0.354013 3.21474e-17)
(0.0255016 -0.0112711 8.82849e-19)
(0.0594066 -0.0804582 3.52609e-20)
(-0.0309507 -0.0483906 4.2842e-19)
(0.00539519 0.00321689 2.41751e-19)
(-0.000185353 -9.66205e-05 -1.18845e-20)
(0.001026 0.0414995 -3.61835e-19)
(0.00131757 -0.0189472 -1.05328e-18)
(-0.00769005 -0.0248721 -7.25358e-20)
(-0.0110167 -0.0541756 -5.75525e-21)
(0.0074989 -0.2287 7.89695e-18)
(-7.23696e-05 -3.05003e-05 2.24884e-19)
(-0.000292454 0.00748849 1.38447e-19)
(0.027244 -0.0186001 -2.76295e-18)
(-0.000442467 -0.000290492 2.21099e-20)
(0.0013251 -0.00131579 -2.38307e-19)
(-0.000446609 -0.000195993 -2.9382e-20)
(-0.00148817 -0.000330908 -2.80892e-21)
(-0.000150858 -1.27412e-05 -6.80498e-20)
(0.113358 -0.0421229 -4.86456e-18)
(0.00438997 -0.0137464 -4.98076e-19)
(-0.0707134 -0.00549851 1.42916e-17)
(-0.00172015 -0.000307349 -6.50358e-19)
(-0.0220144 0.0035216 -1.12622e-18)
(0.00114541 0.000248051 -1.40088e-21)
(-0.0001359 7.72794e-06 1.75061e-19)
(9.94844e-05 6.38863e-05 -1.36015e-20)
(0.00131622 -0.00114356 -1.79656e-19)
(0.00538475 0.0391505 -1.10183e-18)
(0.00231183 -0.00055177 -5.36401e-19)
(-0.000742267 0.00635087 -6.2526e-19)
(-0.00283515 -0.000817389 3.62205e-20)
(-0.000118848 1.27554e-05 -4.69838e-19)
(0.00323091 -0.00573817 1.037e-18)
(0.0284007 -0.0153966 4.91205e-19)
(0.000310516 -4.1122e-06 7.69409e-19)
(-0.000164979 -9.74549e-05 -1.62115e-20)
(0.000291994 0.145401 -5.69384e-19)
(0.00734856 -0.00409924 1.07836e-18)
(-0.00211944 -0.0032728 6.08206e-19)
(-0.0291499 -0.194623 -1.83133e-18)
(-0.0410781 -0.0527447 -7.92424e-20)
(-0.000389454 5.0107e-06 1.37163e-19)
(-0.000251327 -1.97218e-05 3.6164e-20)
(-0.0054479 -0.00249692 -1.02136e-20)
(0.00421816 -0.00510597 -2.59031e-19)
(-0.001986 5.36868e-05 6.26171e-20)
(-5.1311e-05 2.00895e-05 5.72732e-20)
(-0.000146716 -7.38898e-06 6.29491e-19)
(0.00161837 -0.000954139 2.37051e-19)
(-6.99699e-06 -0.000328305 4.78409e-20)
(-0.000230369 0.000289203 8.19856e-20)
(0.0050939 -0.018727 1.07967e-21)
(0.0232165 -0.0446475 -2.67074e-19)
(-0.000382979 9.70519e-05 1.57722e-19)
(-0.071337 -0.0927377 -1.84081e-17)
(-0.034092 -0.00921303 -1.24527e-18)
(3.85226e-05 0.0017589 3.48161e-19)
(0.00242619 0.00330297 -7.71725e-19)
(0.00132781 -0.000794081 6.30475e-19)
(0.075821 0.00629106 1.55312e-19)
(-0.000805307 0.00308127 -6.76194e-19)
(0.0890872 -0.033557 5.29667e-18)
(-0.0029966 -0.00308609 1.63715e-19)
(-0.000283668 0.000143545 -5.40031e-19)
(0.0236635 -0.0319669 -6.38273e-19)
(-0.00042669 -0.000113658 2.76112e-21)
(0.0119313 -0.0203304 -6.16552e-18)
(0.0351963 0.0606433 -6.48119e-18)
(-0.018741 -0.0025098 1.36289e-18)
(0.000305829 0.00175278 5.26935e-19)
(0.0948504 -0.0511561 -5.43311e-18)
(0.00622046 -0.00430804 -1.52671e-18)
(0.000218822 -0.000676736 3.15237e-19)
(-0.000977123 0.00010388 -5.63762e-19)
(0.0331797 -0.00727365 1.35015e-18)
(0.000319476 0.000737262 5.85863e-19)
(0.000152452 -0.000643761 7.95947e-21)
(-0.000107897 -4.14012e-05 3.01059e-19)
(0.000303632 0.000688687 1.03275e-19)
(-0.00654699 0.0846472 -1.08319e-18)
(0.0260045 -0.012393 -4.47235e-18)
(-0.0314613 -0.00794186 -9.7957e-19)
(0.00363784 0.00297903 3.37686e-19)
(-0.000876005 0.000258901 -2.89068e-19)
(-0.000381817 0.000725251 2.14086e-19)
(-0.000630461 -0.0010695 2.52658e-20)
(0.00049452 7.38652e-05 9.51331e-22)
(-9.37886e-05 -4.47801e-05 1.52034e-19)
(0.0611507 0.0086081 4.84437e-19)
(0.0590314 -0.0265002 -2.52337e-18)
(-0.00168514 -0.00218557 -2.85281e-19)
(0.00506111 0.00260044 -5.13561e-20)
(0.0401654 -0.18723 2.88035e-18)
(-8.74263e-05 0.000925728 -4.53127e-19)
(0.0212115 -0.0146314 4.45665e-20)
(-0.00469577 0.0330965 -9.33884e-19)
(0.000540757 7.18133e-05 -1.45036e-21)
(0.0322014 -0.0292985 5.48458e-19)
(-0.0486297 0.00731779 -2.27056e-18)
(-0.000223871 -0.000487589 -1.59357e-19)
(0.0674683 0.00115008 -3.92847e-19)
(0.00154439 9.63111e-05 1.00188e-19)
(0.132152 0.0162828 3.02769e-18)
(-0.00536033 -0.0127809 4.16424e-20)
(-0.069959 -0.02212 -5.19039e-18)
(-3.25406e-06 0.000221164 -3.43257e-19)
(-0.000304287 0.000294587 -1.97835e-19)
(0.000466206 -0.00447576 1.05717e-18)
(-0.00246528 -0.0271139 1.26497e-19)
(0.00465172 0.000213755 4.26737e-19)
(-0.0439589 -0.199706 4.7079e-19)
(-0.0331031 0.0786017 9.85565e-20)
(0.164418 -0.0513514 -1.03655e-18)
(0.0127013 -0.0215119 1.00618e-18)
(0.0867106 -0.0318208 -7.74825e-19)
(-0.0104925 -0.0246408 7.10312e-19)
(9.83569e-05 -1.21483e-05 6.72297e-21)
(0.0121184 -0.014344 4.12564e-19)
(0.00474161 0.00197506 -1.08928e-19)
(0.00763144 -0.0204453 1.93065e-18)
(-0.00143523 -0.00108478 -4.44241e-19)
(-0.0592479 -0.0356245 2.30025e-19)
(-0.00220417 0.00125414 1.09814e-20)
(0.0319155 -0.00938553 4.42937e-19)
(2.64352e-05 -3.06152e-05 3.08366e-19)
(0.00171386 -0.00252474 2.41637e-18)
(-0.000311595 0.000647566 -9.80777e-19)
(0.0728528 -0.00496211 1.69849e-17)
(-0.00277587 0.000536767 1.12258e-20)
(-0.000449003 -3.68889e-05 3.57563e-20)
(0.000829295 -0.004741 1.10102e-18)
(-0.00316484 -0.00619182 3.96428e-20)
(0.00473304 -0.0148128 -7.62306e-19)
(3.22377e-05 0.000262516 -4.6767e-19)
(-0.000343259 -3.89685e-05 -8.00536e-20)
(-0.000173447 0.000823955 -1.84174e-19)
(-0.000125335 0.00073005 9.04447e-19)
(-0.0355804 -0.0278429 -1.43099e-18)
(-1.03073e-05 9.8215e-05 2.56074e-19)
(0.0131669 -0.218789 -5.35719e-18)
(-0.0389653 0.395618 3.45651e-18)
(-5.28349e-06 9.19301e-05 9.15938e-19)
(4.39381e-06 -3.34712e-05 3.89861e-19)
(-0.0244664 0.00378005 9.53246e-19)
(0.000851935 -0.00253769 -2.31889e-18)
(-0.000394194 -0.000202276 4.91623e-20)
(-0.0025699 0.00122155 -6.22331e-20)
(-0.00383376 -0.00472676 -7.53744e-20)
(-0.00442428 -0.013343 -2.09096e-19)
(0.00235087 -0.00339363 -2.06503e-19)
(-0.0026861 -0.00655137 2.11613e-19)
(7.9041e-05 -0.00043515 9.92093e-20)
(0.00123755 -0.00080424 -4.20354e-19)
(-0.00463611 -0.000379379 9.67113e-21)
(-0.00291517 -0.0116964 -3.19576e-19)
(-0.00220058 0.00182913 3.98789e-20)
(-0.00628436 -0.000645439 -2.27672e-19)
(0.0166956 0.228794 4.17938e-18)
(-0.000611621 0.000634148 1.56221e-19)
(-0.120035 0.0366496 -1.44546e-18)
(0.00546917 -0.0101534 -1.12857e-18)
(0.000289421 -1.56792e-05 1.12645e-19)
(-0.000366966 -5.96837e-05 -1.14993e-20)
(0.00069649 -0.000150385 -2.78344e-19)
(0.00369058 -0.0016582 -9.83718e-19)
(0.00429503 -0.00175906 8.2958e-19)
(-0.00020795 0.000166306 6.53187e-20)
(-0.00470136 0.00435241 -1.39508e-19)
(0.00107576 0.00016208 -7.06743e-21)
(-0.000503736 0.000689854 3.27507e-19)
(-0.00408098 0.00513366 3.83512e-19)
(-0.000146621 1.70872e-05 -4.15635e-20)
(-0.00765321 0.00575238 -2.91718e-19)
(-0.000607384 0.000239838 -3.01171e-21)
(0.00155739 -0.0027533 1.26805e-18)
(-0.000164616 5.70562e-06 -3.68596e-19)
(-0.000524873 -0.00146362 1.10021e-18)
(-0.00651122 0.00567052 2.97638e-20)
(0.00251766 -0.00358361 1.80775e-18)
(0.0129263 -0.0155311 -1.71652e-18)
(0.000132671 -2.1753e-05 -2.06376e-20)
(-9.58537e-05 0.000275529 -7.43541e-19)
(-0.000364252 -9.78935e-05 -5.70435e-21)
(0.000220404 -0.000470059 -5.75588e-19)
(-0.00137429 0.0037754 2.55378e-19)
(-0.000326446 7.67741e-05 -1.21856e-19)
(-0.00180032 0.00416167 -2.36572e-20)
(-9.08481e-05 0.000594683 -1.89708e-19)
(-0.000671148 0.000591526 -1.21875e-19)
(-0.00268569 0.000888583 2.71477e-20)
(4.19211e-06 -0.0283391 -1.19989e-19)
(-0.000203569 -1.3822e-05 5.72341e-20)
(7.68012e-05 -2.49268e-05 1.05815e-18)
(-0.000363086 -0.000357881 1.97195e-19)
(-0.0564122 -0.0280479 1.76718e-19)
(-5.77385e-05 0.00011162 -5.12015e-19)
(-0.00225391 -0.0010966 -4.64601e-20)
(0.0304362 -0.0237247 -1.20696e-18)
(0.00153325 0.000210767 -2.24706e-20)
(0.000919445 -0.00142521 -5.93673e-19)
(0.0764436 -0.00598498 -5.28995e-18)
(-0.00365308 0.00123107 8.79436e-19)
(9.51774e-05 3.21555e-05 1.37817e-20)
(0.000148523 6.71309e-05 -1.30183e-22)
(0.0521676 -0.0156087 1.76394e-18)
(0.000693859 -0.000109123 -1.83749e-19)
(0.0292193 -0.0199547 6.9666e-18)
(0.147758 -0.117779 -8.0993e-18)
(0.028551 0.0231395 -6.82295e-18)
(-0.00734658 0.0475102 1.10929e-19)
(0.000887884 -0.00113072 3.43378e-19)
(-0.000436972 -0.000389265 4.82004e-20)
(0.019972 -0.16793 9.8936e-19)
(-0.00602118 -0.00595374 8.6778e-19)
(-0.00227407 -0.000555061 1.41608e-21)
(0.00823395 -0.0151011 3.1846e-20)
(-0.0556294 -0.0436601 -2.36932e-19)
(0.0964238 -0.157897 -7.13574e-19)
(-0.000388017 -0.000129354 5.34355e-22)
(0.0355954 -0.00805959 -1.24826e-17)
(-0.000410368 -0.000397138 -1.48729e-19)
(-0.000360846 -0.000316122 -1.44644e-19)
(0.096192 0.0591288 -2.9989e-17)
(-0.000148655 8.44846e-06 2.99989e-19)
(0.038044 -0.0185222 1.32369e-19)
(0.0065286 0.0110386 1.0755e-19)
(0.0205935 -0.047829 -1.32607e-18)
(-7.99659e-05 0.000303092 4.69822e-19)
(-0.00700476 -0.00653988 -4.03724e-19)
(-0.0042621 -5.8801e-05 1.53814e-20)
(0.0714677 -0.000256102 1.38438e-17)
(0.0762651 -0.0281166 -2.28489e-18)
(-0.000273264 -0.000202237 1.14299e-18)
(0.00499447 0.0103186 -1.05571e-19)
(0.010245 -0.00826557 7.04875e-18)
(-6.16933e-05 0.000543007 2.17936e-19)
(0.00542208 -0.0031798 1.90926e-18)
(0.0283549 -0.0225211 1.14911e-18)
(0.0939626 -0.031321 -4.37821e-18)
(-7.41073e-06 0.000196824 -1.74295e-19)
(0.0229628 -0.0151324 -2.45681e-20)
(-0.00507768 -0.0063539 -5.20008e-19)
(0.0488353 0.014071 2.69883e-18)
(0.0205159 -0.0154766 2.47029e-20)
(0.0127798 0.111157 -6.26904e-18)
(-0.0383449 -0.13447 1.31826e-19)
(0.00144217 -0.00134622 6.37931e-20)
(0.0161188 0.00522757 2.35772e-19)
(-0.0641132 -0.00816818 2.85186e-18)
(-5.59338e-05 0.000123599 1.38861e-18)
(-0.000147089 3.28819e-05 -6.21833e-20)
(-6.57143e-05 -2.03871e-05 4.91643e-19)
(0.00194511 -0.000909902 1.2594e-19)
(-0.00246063 0.000337375 -4.95772e-20)
(0.126107 -0.0800289 1.18832e-17)
(-0.00216305 -8.30553e-05 1.08091e-19)
(0.0126701 -0.235042 -2.31681e-18)
(0.00428626 -0.00453483 1.53365e-18)
(0.0489717 -0.00543212 -2.13366e-18)
(0.0268685 -0.0317815 3.01106e-18)
(-0.000608301 -0.00118586 1.98286e-19)
(0.0537984 -0.075992 -5.63423e-20)
(0.0576642 -0.0647574 3.74103e-18)
(-0.0018229 -0.00265454 -7.83174e-19)
(-0.0425582 -0.0144598 -9.32563e-18)
(0.0144447 0.00594345 -7.01938e-19)
(0.043041 -0.0113761 -1.19114e-17)
(-0.00247084 2.52324e-05 -1.18827e-19)
(0.00144718 0.00024049 1.4012e-20)
(-0.00564985 -0.0274778 6.60658e-19)
(0.00052018 0.000687156 3.25743e-19)
(0.0831977 -0.0089415 -5.27869e-19)
(0.000272495 6.95968e-05 -2.93485e-19)
(-0.0349857 -0.135958 2.00581e-19)
(-0.000600905 -0.00109807 -4.14918e-19)
(0.0311616 -0.0146123 -6.20029e-19)
(-0.0121241 -0.0391951 -9.75807e-20)
(0.00147259 -0.00153861 6.85204e-19)
(0.10222 -0.0579179 4.05947e-18)
(-8.25408e-05 -3.7028e-05 6.64417e-20)
(0.00119288 -0.00496824 1.64949e-18)
(0.0109553 -0.0246036 3.5961e-18)
(0.0141265 0.395282 -1.34962e-17)
(-0.0113762 0.453454 -1.24861e-17)
(-2.63749e-05 0.00436306 6.20993e-19)
(-0.000704152 -0.00124333 4.24152e-19)
(-0.00263816 -0.0011659 -6.59116e-20)
(0.0281053 0.0529064 -6.91649e-18)
(-0.0643511 0.207804 -2.63086e-18)
(-0.000158718 -5.84464e-06 -2.35842e-19)
(0.00911292 0.00438977 2.89393e-18)
(0.0230796 -0.0120864 -7.97067e-20)
(-0.00263492 -0.000525827 -1.00087e-19)
(-1.06231e-05 0.000207318 -3.18591e-19)
(0.00371986 0.000180557 -4.20645e-20)
(0.0424622 -0.0155005 -3.77971e-19)
(-0.00909939 -0.00517894 -1.19037e-18)
(0.000764429 0.00085698 -3.95754e-19)
(-0.000142036 -1.24833e-05 4.66917e-19)
(0.000764302 0.000188916 8.61009e-21)
(-0.018322 0.0526447 -1.23059e-19)
(0.0784847 -0.151698 2.72556e-19)
(-0.00507079 -0.0611308 -2.34883e-20)
(0.000221067 -0.000529676 3.90147e-19)
(0.000151744 0.00010633 1.17476e-19)
(-0.0614712 -0.0194475 -1.51691e-19)
(-0.000152296 2.44167e-05 1.82776e-19)
(-0.0618411 -0.0191901 -8.18895e-19)
(0.00567098 -0.036799 5.37745e-19)
(0.0166428 -0.230964 -4.34201e-18)
(0.024939 -0.00689036 -2.55922e-19)
(-0.0378185 -0.138626 1.15233e-18)
(0.000368379 0.00049658 2.48644e-20)
(-0.000482945 -0.00123188 7.27488e-19)
(0.000847525 -0.00838299 3.72189e-18)
(0.000600592 -0.00415774 3.07399e-19)
(-0.00320353 -0.0125176 -5.45114e-20)
(-0.000131787 -1.44974e-05 2.42623e-19)
(0.035753 -0.0104512 2.94361e-18)
(0.0278223 -0.152431 -2.76061e-18)
(-0.000906718 -0.000789644 1.09399e-18)
(0.0576915 -0.0652628 -1.76707e-19)
(0.000755236 0.000135967 2.06495e-20)
(0.0271883 -0.0460563 -3.54311e-19)
(0.000273763 -0.0018256 -5.35259e-19)
(0.0160276 -0.0114128 -1.4403e-19)
(-0.00769699 0.00972664 1.72647e-19)
(0.00439278 -0.000578157 -1.70888e-18)
(4.62459e-05 0.000177314 -2.56237e-20)
(0.00376872 0.00699335 1.76491e-19)
(0.0187218 -0.0189704 1.98012e-19)
(0.0250715 -0.0877417 8.31079e-19)
(-0.0685553 -0.0271258 -2.2518e-18)