/*--------------------------------*- C++ -*----------------------------------*\
| =========                 |                                                 |
| \\      /  F ield         | OpenFOAM: The Open Source CFD Toolbox           |
|  \\    /   O peration     | Version:  v2012                                 |
|   \\  /    A nd           | Website:  www.openfoam.com                      |
|    \\/     M anipulation  |                                                 |
\*---------------------------------------------------------------------------*/
FoamFile
{
    version     2.0;
    format      ascii;
    class       surfaceScalarField;
    location    "100";
    object      meshPhiCN_0;
}
// * * * * * * * * * * * * * * * * * * * * * * * * * * * * * * * * * * * * * //

dimensions      [0 3 -1 0 0 0 0];
oriented        oriented;


internalField   nonuniform List<scalar> 
14516
(
-0.000854679
-0.00258778
0.00329182
-2.85761e-07
-3.52272e-05
1.98478e-05
0.00284283
-0.00386294
0.000843622
-0.0012863
0.000215781
0.00615493
-0.00439617
-0.00186051
-0.0045688
0.000569235
0.00388933
0.000646302
-7.01689e-05
-0.00100801
-0.00507374
0.00465209
0.000422769
0.00363028
0.000371179
-0.00399034
0.00253746
0.00349847
0.00249188
-0.00318687
0.000634413
0.00452081
-0.000340224
-0.0042159
0.000789872
-0.000133569
-3.49256e-05
-0.000514343
0.000570309
-0.000278322
-0.000194157
-0.000562704
-1.25301e-05
0.000572603
-0.00213042
0.000757162
0.00141763
-0.000748947
-0.00147213
0.00503107
-0.000505336
-0.00460994
-0.000577128
-0.000389608
-0.00431079
0.00466101
0.000296799
-0.00231779
0.00212388
0.00177254
-0.000599559
-0.00118684
-6.68485e-05
6.68485e-05
0.00556764
-0.000747043
-0.0049128
0.000502427
0.00016315
0.000552225
4.76738e-06
-0.000573174
-5.60285e-05
-0.00180494
0.00187703
-0.00325444
0.0010777
0.00208346
0.0039866
-0.000285606
0.00406315
-0.00493085
0.00076261
0.000342807
0.00138837
0.0035024
-0.000744886
-0.00286702
-0.000103859
-8.86714e-05
0.000149918
0.00119459
-0.00368056
0.0024265
0.00506899
-0.000563831
-0.00457814
8.39136e-06
0.00040351
-0.00228593
0.00268822
0.00481705
-0.00377297
-0.0012519
2.46695e-05
-1.62102e-05
0.000128862
0.00513772
-0.00117872
-0.000932542
0.000191854
0.000310546
-0.00049947
7.9276e-05
-7.34477e-05
0.000600038
-0.000822468
0.000455056
-0.000221432
-0.000117271
-0.00210039
0.000128509
-0.00140896
0.00127695
-0.000683983
-0.00448751
0.00522325
-0.000397809
-0.00111511
-0.001703
-0.00204477
4.86833e-05
-0.00255442
0.00247738
0.00452014
-0.00110431
-0.0034396
-0.00335262
0.00341325
-0.000131998
0.000441001
-0.00277377
0.00230289
0.00514508
-0.00540051
0.000159333
-0.00330173
0.00344872
-0.00381401
0.000979449
0.00280508
0.00482599
0.000173311
-0.00510692
0.00324912
0.00159467
-1.91282e-07
8.69736e-05
-9.0678e-05
0.00375127
-0.000613886
-0.00314935
0.00411828
-0.00469456
0.000572091
0.000736712
-0.00197081
0.000801456
0.00326764
0.00177366
-0.000436018
-0.00312421
0.00354825
0.00511244
-0.00103761
-0.004482
0.00501419
-0.000512774
0.000600286
0.00387786
-0.000197031
0.0026634
-0.00282157
0.00323238
-1.26199e-05
3.53341e-14
1.22256e-05
0.00515919
-0.000879665
-0.00409929
7.52046e-05
-5.30432e-05
-8.60583e-06
0.000791019
-0.00258773
-0.00010322
0.00483047
-0.000423855
-0.00301212
0.0033882
0.000120692
-6.33497e-09
-0.000125228
-0.00311772
0.000786634
0.00239721
-0.00300684
0.000973107
0.00200381
-0.00311934
0.00266408
-0.00372219
0.000867504
0.00281828
7.41217e-05
1.08135e-06
-8.76172e-05
-1.39999e-05
-0.00117077
0.00116569
0.00469521
0.000379899
9.34283e-05
-0.00130737
0.00118908
-0.00210931
-0.000869375
6.95391e-06
-0.00303889
0.0030123
-0.00340717
0.0034825
-0.000157828
0.00423094
-0.000967199
-0.00335855
2.6364e-06
-1.67649e-05
-0.000409604
-0.00356045
0.00392842
0.000668648
-0.000549918
-0.000144064
0.00177407
-0.00146764
0.000329228
-0.00118594
0.0011527
0.00522119
-0.000112474
4.89851e-05
2.55097e-06
0.00017394
0.000436578
0.000181213
-0.000781548
0.000565366
-0.000708129
0.000846683
0.00392432
-0.00071909
-0.00328411
0.000287586
-7.84033e-05
-0.000314226
0.000136986
4.32221e-05
8.59076e-05
5.64955e-06
0.0050369
-0.000351406
0.00404006
-0.000551249
0.000199692
-2.52465e-06
-0.000214947
0.00370461
0.000711015
-0.000235119
-0.00106195
0.00133038
-5.26466e-08
-1.44926e-05
0.000191865
0.00483514
-0.00501137
0.00321834
-0.00307586
-0.00124845
0.00621469
-0.00510226
0.00248125
-0.00246002
-0.00379224
0.000486621
-0.00308332
0.00249947
-0.00172239
0.00242052
-0.00064885
-0.003111
0.00140983
0.000280955
0.000931448
-0.00113506
1.13959e-05
-2.77199e-06
-2.69122e-06
0.00188767
-0.00220196
6.92583e-05
-0.000157247
-0.00448577
-0.000123383
-0.00237494
0.00244917
-0.00493941
0.00451086
-0.00319382
0.000759665
0.00236716
0.00120789
-0.00113862
-0.000487005
-0.00258815
-0.00429261
0.00104884
0.00326017
5.75546e-08
-1.01787e-05
2.02627e-06
-0.00302333
-0.0021135
-0.0021095
-0.000385589
-0.00344157
0.00383148
0.00311894
0.00084197
0.000128594
-0.00316862
0.00300403
0.000958391
-0.000520141
0.00047453
-0.000828479
0.000280033
0.00235475
0.000103327
-0.000121639
-8.75612e-07
1.04493e-05
0.00170304
0.00577195
-0.000565793
-0.00528594
8.54882e-05
-0.00170222
0.00133605
-0.000170275
0.000777276
-0.000585051
-0.000507152
2.01603e-05
3.51391e-05
0.000471296
-0.000507098
-3.39476e-07
-1.56201e-05
-3.92697e-06
0.000765478
-0.000913753
0.000548642
-0.000170364
-0.000461772
0.00304549
-0.0034915
0.00401844
0.000921447
-0.00503345
-1.48839e-05
6.46548e-06
0.00508493
-0.00118309
-0.00187423
0.00428883
0.000133001
0.000325779
8.33643e-06
6.18267e-06
6.33153e-06
-7.91284e-05
1.95655e-05
0.000785459
0.00492636
-0.00020415
0.000946365
-0.00165586
0.00150816
-0.00349072
-0.00148184
0.00150714
-0.00154848
4.11211e-05
0.000558445
-0.000586611
-0.000966561
0.00593347
-0.0050107
9.05421e-06
-1.20401e-05
-2.15797e-05
-0.00524899
0.000810312
-0.00118319
-0.00213745
0.00192771
0.000176634
0.00058487
-3.91043e-05
0.000630933
-0.00389219
0.00324399
-0.00728506
0.00198282
0.00501229
0.00252846
-0.00504272
0.00247864
-1.69949e-05
-1.82164e-05
-0.00194683
0.00440282
-0.000251069
-0.0020115
0.00224753
0.00402982
-0.00294524
-0.000125183
9.294e-05
1.7889e-05
0.000714103
-0.00331612
0.00257244
0.0027683
-0.00124123
-0.00153812
0.00372625
-0.00282089
-0.000930533
-0.00342967
0.0031869
0.000231176
-0.00093318
0.00493361
0.00470099
0.000101268
-0.00490231
0.00522686
3.36035e-06
-0.000838744
-0.00302273
-0.00258908
0.00327561
-4.79475e-05
0.00213724
-0.00235668
-0.000538753
0.000592605
-0.00240007
0.00212733
-0.000158506
4.59727e-06
0.000150116
0.00455702
-0.00518309
-0.00476185
0.00496587
0.000674144
0.000704064
0.00208737
-0.00579367
0.00143739
0.0042785
-0.000360131
-0.00317854
0.00348793
-0.0049746
0.00296907
9.93284e-06
6.34044e-05
0.00368575
-0.000584319
-0.00184033
-0.00340483
0.00517608
-9.23237e-06
-0.0055251
-0.00387229
0.00298742
0.000886378
-0.000223907
-0.00300335
7.3058e-05
1.37216e-06
-0.000206813
2.01972e-05
0.00054833
-0.000548759
0.00460157
0.000477801
-0.00207321
-4.95326e-05
0.00223894
0.000115412
0.00177263
-0.0019538
-0.000331127
0.00497507
0.000511124
-0.00498825
-0.00246701
-0.000866351
-0.00261392
-0.00323749
-9.62677e-05
4.86138e-05
-0.000502675
-0.00335586
0.00389431
-0.000272578
0.00489964
6.82629e-05
-4.86869e-06
0.00497543
-0.00476561
-0.000272658
-0.000188709
0.00291279
-0.0029055
-0.00122356
-0.00251088
0.00370097
-0.00218127
5.70187e-08
-0.000133252
-4.71779e-05
-0.00113695
0.00404651
-0.00417451
0.00462913
-0.000442474
0.00028057
0.000112932
0.00235467
-0.00270456
0.000257137
-0.00250935
0.00223508
-3.13661e-05
-3.31811e-05
2.2429e-05
3.43945e-05
-0.000893206
-0.00250008
4.48571e-05
-0.000122437
2.82626e-05
-0.00313962
0.000620441
0.00248679
0.00452812
0.000420032
-0.00208164
0.00170285
2.07421e-05
0.0045193
-0.00466409
-0.000113755
0.000161091
0.00502105
0.00089573
0.00305983
-0.0040627
0.00507032
-0.000380168
3.21274e-05
-0.000533586
0.000512043
3.00251e-05
0.00466328
-0.00492819
0.00319473
0.000279133
-0.00425032
-8.73544e-06
0.00413058
-0.000616257
0.00035943
1.17563e-05
0.00470135
0.00572275
-0.00502359
-0.000502861
-0.000222686
9.14852e-05
0.000398443
0.00247273
-0.00292053
-0.00205999
0.000245232
0.00178966
-0.000218945
0.00268097
0.000493004
-0.00302803
0.00250378
-0.0040344
0.00412894
-0.000415958
-0.000121969
0.00274512
-0.00256293
-0.00607965
0.00495658
0.000932824
-0.000554992
-0.0015148
-0.000328466
-0.00424292
0.00443624
-0.000109603
-0.000556789
0.000704341
0.000801362
0.000247618
-0.00101662
0.00018078
-0.00262008
0.00238459
-1.30918e-05
1.47305e-05
-4.56979e-07
-0.000473177
-0.0017095
4.66061e-05
-4.86906e-05
5.28169e-06
-7.91936e-06
6.72805e-05
-0.00170489
0.00175901
0.00172926
-0.00519597
-0.00331499
-0.000693075
0.00379639
-0.000569033
0.000488424
-5.41872e-05
-0.000432875
0.000421825
-0.00273915
0.000725537
0.00193036
-0.000452962
-0.0029058
0.00336219
-4.42669e-07
-7.32653e-06
2.10844e-05
-4.22594e-06
1.30112e-05
-0.00272726
0.000216528
-0.00496134
-2.93388e-05
0.000318528
-0.000270709
-0.0027346
0.000425183
0.005199
-3.49947e-05
0.000120591
-7.3115e-05
-0.000263219
0.00039052
-0.000225588
0.000168972
-3.07473e-05
0.00143213
-0.00267369
-0.0026235
0.00296478
-0.00239895
0.000996038
0.00137851
7.76669e-05
0.00164952
-0.00210712
0.00294473
-0.00322284
-0.00226767
-0.00218736
0.00259268
0.000529075
-0.00422791
0.00343987
0.000369407
-4.5327e-05
2.67315e-05
-3.48883e-06
0.00326982
-0.00365889
0.000182976
-0.002755
0.00258077
-0.00113389
-0.00126949
-1.91305e-05
8.78287e-05
-7.90876e-09
-0.00372329
-0.00188841
0.00545213
-0.00038363
-0.00164108
-0.00201693
0.00370259
0.0026631
0.000195457
-0.00277115
0.000217778
-3.8e-05
0.00034581
-9.91327e-06
-0.000488918
0.000229309
0.000465737
-0.000663729
-0.000910367
-0.00189048
-0.00113351
-0.000639178
0.00176469
-0.00440161
0.00424452
6.17605e-05
0.00133231
-0.00294198
1.6227e-05
-0.000829426
0.000896393
-0.000456907
0.000715328
0.000565542
-0.0017078
0.00324512
-0.000155019
-0.00311196
-0.00377047
0.00300234
0.000730029
0.00349674
0.000625344
0.00114663
0.00503636
-0.00467398
-0.000427027
-0.00234721
0.00196456
0.000336184
-0.00220669
0.000224686
0.00435866
-0.00409235
-0.00031613
4.14462e-05
-0.0061207
0.00274507
0.00332187
1.67456e-06
-5.01411e-05
3.8933e-05
2.89876e-05
0.00143705
0.00225768
0.000270822
-0.00276808
0.00253587
-0.00492402
0.00499242
0.00059088
-0.00243672
-0.000520599
0.000575026
-7.23887e-05
0.00262565
-0.00224764
0.00278986
0.00351617
0.000393059
0.00475165
0.000398315
0.000429357
0.00154725
-0.00203246
-0.00542602
0.0046963
0.000805329
0.000390392
-0.000356208
0.0024568
0.00104992
-6.88768e-07
-3.15058e-05
-7.16257e-06
-0.00203565
0.000218713
-0.00507311
0.00303852
0.00191955
0.00108644
-0.00360642
0.00397596
0.000263978
0.00214608
-0.00301348
0.00380428
-0.00054256
0.000527723
-9.70916e-06
0.00268556
-0.00297639
0.000384196
-0.00535017
-0.00370231
-0.00266889
8.63077e-05
0.00253949
0.00195685
-0.0025619
0.000515152
0.00328488
-0.00329362
-3.19766e-05
-0.00381757
-0.00534995
0.00111418
0.00431041
0.00076577
0.00262361
-0.00346428
0.0036151
-0.000197071
-0.000113158
-0.00295562
0.00124106
0.00160548
0.000351463
-0.00321689
-0.00351154
0.00263567
-0.00142112
-0.00164244
0.00328641
-0.000531859
-0.00294795
0.00388498
-0.00102982
0.00180585
-0.00447711
-1.64125e-05
1.50149e-05
-0.000341085
0.00116447
0.00401695
-0.000578133
2.96239e-05
-3.32332e-05
-0.000204019
0.00295908
0.00516461
-0.00034517
-0.00286809
-0.00330215
0.00232624
-0.000428032
-0.0007778
-0.00240728
0.00325756
-0.00388458
0.000229263
-0.00483273
0.00461959
-0.00461348
-0.000310484
0.00498477
-0.00303123
-0.00253777
0.000340279
0.00216641
-4.2625e-05
0.00232368
-0.00238877
-0.00350725
0.00068558
0.00287972
0.00024824
0.00442693
-1.34658e-05
0.000202681
0.000304778
-0.00275288
0.00253047
-2.30537e-05
-3.10929e-05
5.00086e-06
9.40403e-05
4.65277e-06
-0.000553418
-0.00273907
-0.000322703
0.00274412
-0.0022718
-0.0031024
0.00149647
-0.00237564
0.000925545
0.000252532
0.00345846
4.33655e-05
0.00126719
-0.00132984
0.00448682
0.00238981
-0.00214568
3.5644e-05
-1.07771e-05
-1.15703e-06
2.98406e-05
0.000661023
-0.000750612
0.00305395
-0.00072597
-0.00362581
0.00377023
-0.000176286
-0.00117592
0.0012006
0.000546627
-0.000504101
-0.000443134
0.00332925
-0.00290169
-0.00265456
-0.00214617
0.0047458
0.000363711
-0.000482419
-0.00550147
0.00413343
-0.00493934
-2.74995e-05
-0.00250125
-3.54497e-05
0.000332338
0.00191707
0.00010042
-0.002117
-0.0020466
0.00321737
-0.000661595
-0.00187308
-0.00470935
-0.000517658
-0.00129463
0.000677054
0.000428035
0.00508053
-0.00555886
-0.00247927
-0.00521042
0.00558564
0.000689413
0.00323622
0.000645299
-0.0004718
0.000508082
-0.00402601
0.0046013
-0.000650342
0.000249564
-0.000242064
-0.00122726
-0.0025546
-0.00219215
-0.00366961
0.0034367
0.000322465
-0.00480128
0.00434509
-0.00244224
0.000601114
-4.92135e-05
0.000530586
-0.00180763
0.00133228
-0.00282853
0.00115133
-0.00407011
0.00283412
-0.000104102
-7.11073e-06
0.000101265
-0.000821253
0.00168904
-0.000894425
-2.25549e-05
0.000742762
-0.0015664
-0.00320006
0.00381893
0.000269416
-0.00473005
0.00449969
3.08472e-05
0.000250294
-0.000430158
-0.00024314
0.000235993
-0.000221619
-0.000767191
0.00232232
-0.00479256
0.00459107
0.00324563
-0.00366023
0.00347099
-0.00316944
4.81071e-05
-0.00419647
-0.00313174
-0.00237897
-0.00611995
0.00341654
-0.00350573
-0.00147477
0.00343538
-0.000358723
-0.00310927
-0.00476743
0.00452154
-0.0052886
0.0024711
-0.00144161
-0.00134849
0.00221459
-0.0038483
0.00159484
-0.00156209
0.00205213
-7.55472e-05
0.00186956
2.10819e-07
-0.0021546
0.00249245
-0.000361805
-0.000314921
0.000401678
0.00522635
-0.00485082
-0.000534039
-0.00302517
0.00220442
-0.00255293
0.000120545
0.00274509
-0.0037847
0.00182506
-0.00214463
-0.000515354
0.000317467
0.00010152
-4.49778e-05
1.25911e-05
0.00535638
-0.00555698
-0.00257036
0.00192157
-0.00484532
0.00450016
-0.000479131
-0.000169479
-0.00292394
0.00193168
-1.6204e-06
8.60754e-05
-0.000211632
8.20415e-05
-6.90759e-06
2.23155e-05
-2.90232e-05
0.0035819
0.00397038
-0.00176208
-0.00366263
0.000468242
0.00458628
3.00266e-05
0.000213697
-0.000298953
-0.00147236
-0.000772188
0.000506466
-0.00484247
0.00425462
0.00143321
-0.000480671
-0.00170523
0.00142815
0.00090789
0.00114869
-0.00272566
0.00300664
0.00464878
0.000455645
-0.00233003
-0.0039214
-0.000845058
-0.00445633
-2.46819e-05
-2.12645e-05
6.63243e-06
-1.67577e-05
-0.00227649
-0.000362181
-0.00438545
-0.00202017
-0.00208871
0.000694758
-0.00050465
-0.000542757
0.000729709
-0.000541316
-0.000105157
-0.00365631
0.000403574
-0.00433348
-0.00458016
0.000291774
-1.56201e-05
-0.000224555
-0.00247008
-3.8936e-05
-1.68927e-07
-2.82311e-06
-0.00478886
0.00339208
-0.0017925
-0.00162936
-0.000176647
0.000607673
-0.000458139
-0.00381665
0.00407753
-0.00279071
0.00363542
0.00508879
-0.000235507
-0.00405973
8.60157e-06
0.0045071
-0.00452989
8.1851e-05
0.00419953
-0.00439734
-0.00225416
-0.000267066
0.00187316
4.32713e-05
-0.00263887
0.00213311
0.000445386
-0.00268678
0.00257288
-0.00169019
0.000516133
-0.00072272
0.00361963
0.00494712
-0.000387065
0.00159785
0.000358432
-0.00202095
0.00515881
0.000151892
-0.00533
-0.0027661
0.00254033
0.00494599
-0.00204249
-0.0029964
0.00180266
-0.000291693
-0.00037621
0.000102083
0.000180615
0.00103482
0.0037249
2.71018e-05
-0.0024402
0.00137771
0.00195338
-0.000741858
0.00516931
-6.45961e-07
0.00477398
-0.00455545
-0.000305935
-0.0030758
0.00323133
-0.000127603
-2.59865e-06
-5.98248e-05
-0.000181837
-0.000157644
-0.00483619
-0.000414443
0.00520474
-0.00301281
-0.000551254
4.4017e-05
-0.000552004
0.00423896
-0.00439089
0.000118328
0.000180531
-0.00384159
0.00281434
-0.00266554
-7.59172e-05
-0.00017879
-0.00112495
0.00126724
0.000573977
-0.00414396
-3.64365e-05
-0.00169196
-0.00462529
-0.00294892
-0.00333457
0.00301668
9.1617e-05
-0.000115931
0.00605428
-0.000822552
0.00180511
-0.00437392
-0.000338917
0.0047659
0.000742095
-0.000204928
-0.000900902
0.00167347
-2.69912e-05
1.72449e-06
6.20881e-06
-0.00418203
0.00118147
0.000540202
-0.004568
0.000284634
-0.00337591
0.000616856
0.00353504
-0.00419072
-0.00111311
-0.00157595
0.00448587
-0.00449135
-0.00213245
0.00192684
-0.000635118
0.00011237
-0.00232617
0.00204186
0.000238229
0.00456848
-0.000344255
-0.00103506
5.26442e-05
0.0010415
-0.00311507
0.00274674
0.000291075
0.00446215
0.000356428
-0.00478638
9.64635e-06
-9.85799e-05
0.00010767
-0.00111905
0.00133271
-0.000197908
0.000103297
-0.000434055
-0.000292153
0.000514909
-0.00335013
0.000600747
0.00272171
-2.33785e-06
2.97604e-05
-3.39605e-05
-4.39024e-05
4.08704e-05
3.33675e-06
-0.00264039
0.00258967
5.04564e-05
-0.00119325
-0.000865031
0.00213363
-0.00183833
-0.00345801
0.00270652
-0.00229292
3.78045e-05
0.00225486
0.00274499
0.000191753
0.00304654
-0.000142597
0.00380566
-0.00438543
0.0018118
-0.00107137
-0.000912726
-0.00252328
0.000358863
0.00564416
-0.00348657
-0.00219383
0.00120707
0.000168603
-0.000187266
-0.00170644
-0.00126397
0.00273266
-0.00319838
0.00165982
-0.00302651
-0.000437937
0.00340666
-0.00446666
0.00470756
0.000894339
-0.00174748
-0.00390066
0.00291573
-0.00184814
0.000730096
-0.00119098
0.00109105
-9.98957e-05
-0.00347086
0.00302102
0.000280054
-0.00211667
0.00154235
0.00316007
7.76117e-05
-0.00177295
-0.00112072
0.00511303
-0.000704657
-0.00442091
-0.000328034
0.00323806
-0.00292687
-0.00469444
0.000599673
0.00213563
-0.00257184
0.000402158
0.0006462
-0.00105147
1.60513e-05
-0.00234763
-1.78795e-05
-0.0030398
0.00311814
-0.00349742
-0.000326501
0.00366368
0.000455741
-0.00418182
0.00406741
-0.000598559
-0.000440506
0.00100674
-2.45124e-05
2.45124e-05
0.000423094
-0.00118522
0.000527359
-0.000299486
-0.0018774
0.00190772
0.00289703
3.19506e-05
-0.00288546
0.000186113
-2.92275e-05
-0.00015634
-0.00310399
0.002836
-0.000346746
0.000363697
-0.000173794
-0.00294424
-0.000115546
0.00302791
-0.0017832
-0.00206483
-0.000387907
-0.00199766
0.000255787
-3.17249e-05
0.00334289
0.000450624
-0.00383679
-0.00182326
0.00180217
-0.00201421
0.00163816
0.000232001
-0.000146802
-2.00359e-05
0.00016395
-2.44138e-07
-5.92903e-05
1.63495e-05
-0.000177093
0.00425503
-0.000286304
0.00210952
-0.0024396
2.98148e-05
-4.12221e-05
-0.00189405
0.00194375
-0.000135546
-0.000512885
0.000488155
-0.000777764
-0.000310801
-0.00233325
0.00212761
9.34611e-05
-0.000401385
0.00487231
-0.00336149
0.000906609
0.00235484
-0.000339516
0.000242237
0.00291936
-0.00232578
0.000204731
-0.000107241
0.00445913
-0.00367313
-0.000851296
-0.00090832
-0.00246403
0.00347277
-0.00429305
0.00124138
-0.000852371
-0.000801039
-8.89457e-05
6.66199e-05
-0.00158412
0.00254612
0.00342388
-0.00338435
-0.000681845
-0.00239108
0.00384749
0.000218869
0.00236788
-0.00271856
-0.000722561
0.0034027
0.00371302
0.000680335
0.00164741
0.000536881
-0.00227497
-0.00215797
0.00242304
-0.000278002
0.000308844
-0.00133071
0.000943331
-0.000182134
1.99035e-05
3.6761e-05
4.16002e-07
-0.00434302
0.0037004
-0.00354274
-0.000185993
-2.41333e-05
-0.00017718
-0.0026129
-0.000767444
0.00198125
-0.00527083
0.000654926
-0.00123556
-0.000258715
0.00428525
-0.00398276
0.00098043
-7.92539e-05
-0.000907464
-0.00280068
0.00250288
0.00364306
-0.000387966
-0.00246755
0.00107426
0.00139143
0.00325011
-0.000256034
0.00353634
0.00117373
-0.000292213
0.0010204
-5.15128e-05
-0.00216669
0.00219503
-7.81858e-05
0.000334509
0.0038643
0.000519338
0.00218684
0.00264178
-0.00291283
0.00023633
-0.00500387
0.00475671
0.00109968
-0.00130916
-0.000702052
0.000944378
-0.00247068
-0.00017991
0.00267533
-0.000131552
0.00119466
0.00274326
-0.00304028
0.000241111
5.33542e-05
-0.000671973
0.000632288
-0.000865083
-0.00188615
0.00272567
0.00317195
-0.00338145
0.000188954
0.00192285
-0.00395432
-0.00333898
-0.000433052
-0.000353423
-0.00235639
0.00257046
-0.000170963
0.000258522
-0.000133952
0.00056919
-0.00257827
0.00205222
3.32039e-06
2.34583e-05
-0.000342882
-6.5159e-05
4.85731e-05
-0.00240559
0.000273012
0.00213211
0.00267461
-9.16986e-06
0.00126276
-0.000138582
-0.00113884
2.92146e-05
-0.00307109
-2.28206e-05
0.00346413
0.000151179
-0.00387924
0.0036974
-5.22771e-05
0.00246055
0.00476894
-0.000328657
-0.000250198
0.00337201
-9.96247e-05
-0.00273728
0.00278542
-6.37822e-05
7.24493e-05
0.00013545
-0.000105557
0.000939417
-0.000773502
-0.002439
-0.000178906
0.00256671
-0.0010685
0.00458924
-0.00077993
-0.00156272
0.00221259
0.000671574
-8.7141e-05
-0.000575351
-0.00143125
0.00103458
0.000347035
-0.00111576
-0.000273142
-0.000943435
0.000897493
0.00134059
-0.00222308
-8.63205e-05
0.003622
-2.98138e-07
0.00022008
-0.00255129
-6.56544e-05
-0.00115303
0.00229923
0.000414172
-0.00554274
0.00498066
-0.00491762
0.00518654
3.06525e-05
-0.000285579
0.000246759
-0.000200829
-0.00129329
-0.000365234
0.00660531
-0.00457781
1.06931e-05
0.000653119
-0.00462492
0.00218435
0.00256651
0.000165354
-0.00134408
-1.66165e-05
-0.00426113
-0.000138715
0.00411453
0.000412279
0.00328854
-0.00350864
0.000343636
0.00463895
-0.00497838
0.00268644
-0.00252046
-0.000270225
5.25697e-06
-4.77703e-05
0.00246637
0.000897449
-0.00328194
-0.00373977
0.000949413
0.00384555
9.36008e-05
-0.00078634
0.000694281
-0.000209752
-0.00190958
-6.58488e-05
-0.00196426
0.00195878
-0.00494256
0.00455247
-0.00229196
0.000384069
-0.0010607
0.00207064
-0.00209708
-0.000329552
-0.00142043
0.000393298
0.000570299
0.000108149
0.00343675
-0.0032733
-0.000188864
0.00349964
0.00179924
0.000227194
-0.00203183
-0.00269718
0.00291151
-0.000241518
-0.00125331
0.000281939
-0.000229973
-2.4906e-05
-0.00277493
0.00257248
-0.00255173
0.000387506
-0.000534564
0.000103175
0.000302955
-0.00362732
0.00374893
0.00331844
-0.000762944
-0.00399938
-0.000453135
0.0045071
-0.00365063
0.0020669
0.0015971
-0.000596932
-0.000560371
0.00118203
-0.00273332
0.00290759
-0.000186008
0.000232875
0.00222445
-0.00250009
0.000214244
0.00446906
-0.00467561
4.93252e-05
-0.000425963
0.000381483
-0.000788117
-6.23669e-05
0.000819428
0.000198004
0.00212021
-0.00235527
-0.00108345
0.00300159
-0.000184071
-0.00272446
0.00296538
-0.000146845
-0.00207589
-0.00144231
0.000507648
0.000879307
0.000718207
-0.00238741
-0.00127514
-0.00120758
-0.00117653
0.00258337
-0.000516989
8.25891e-05
0.000184063
0.00268199
-0.00283318
0.00351334
-5.46081e-05
-0.00232141
9.61682e-05
0.00462014
1.68765e-05
0.00016409
0.000146059
-0.000609302
-0.00188779
0.00175045
2.91346e-05
-0.00363094
-4.3263e-05
0.00222896
-0.00243174
0.00252068
-0.00207014
-0.000361127
0.000428232
-0.000143991
-2.74959e-07
1.84496e-05
5.78622e-05
-0.000222881
0.00255824
-0.00248567
-1.12466e-05
-7.51501e-05
9.27898e-05
-0.000193063
-0.00388117
0.000466154
0.000213271
-0.00457034
6.03539e-05
-0.000567209
0.000529681
-0.00436748
0.00349687
0.000653833
-0.000293714
0.00475909
-0.000521093
-0.000104608
-0.00111675
0.000953828
4.82105e-05
-0.000121837
-0.00166875
0.00500754
-6.84115e-07
-5.28972e-05
-0.00469489
0.00432216
0.00309515
0.00010574
0.000136733
-0.000113847
0.00224835
-0.00217585
8.4516e-05
0.000607284
-0.000500445
0.00058397
-0.00417896
0.000202116
0.000166297
0.00292704
-0.00313589
0.000447588
0.00455458
-0.00501323
0.00247553
-0.00270461
-0.000226917
0.00203795
-2.46446e-06
-2.80763e-05
-6.269e-06
6.86229e-05
-5.2878e-05
-0.000860292
-0.000127314
-0.00109341
0.0012091
0.00238827
-0.00276127
-0.000388679
0.00327703
-0.00291833
0.00282015
-0.00193274
-0.000793603
6.84207e-05
-0.000593586
0.000536641
0.000429525
-0.00477919
0.00432024
0.00175412
-0.000290878
-0.00151984
-1.74235e-05
0.000366824
-0.00275073
-0.000412928
-0.000484002
0.00414179
-0.00079338
0.000139552
0.000263224
0.00281839
0.000113023
4.328e-05
0.00458897
-0.00470314
-2.95643e-05
-0.00247905
0.00269004
-0.000272681
-0.000100494
-0.000209107
0.000185051
-0.000144734
0.000126429
0.000852621
-0.00101649
-0.00234872
-0.00409187
0.00345696
-0.00267961
0.000268296
-0.00211681
0.000132021
-0.000130271
0.000153743
-0.00124151
0.00529687
-0.00515152
-0.000191184
-0.000125978
-0.000191985
-0.000413263
8.40425e-05
-0.000774529
0.000671007
0.00177641
-0.00150954
-0.000339166
-9.03602e-05
9.27162e-05
-0.000404052
-6.42224e-05
-1.2627e-05
0.00257485
-7.8213e-05
-0.000517548
-0.000658332
0.000579754
-0.000655297
0.00299822
-0.00232985
0.00375693
-0.00424938
0.00046011
-0.00316435
0.000212882
-0.00219126
0.00246362
-0.000279871
-0.0033869
0.00216492
-0.000398528
-0.000355622
0.00461221
0.000435369
-0.000188069
-0.000322817
0.00390764
-0.00205068
0.00378837
-0.00168008
-0.000108004
0.000102938
-0.000968191
-0.000530739
-0.000173448
0.00340476
-0.00327024
0.00240569
-0.00199944
-0.000423582
-0.000229991
-0.00277008
4.0239e-05
-0.000396182
0.000347138
-0.0032066
0.00274635
0.000330825
-0.00320521
-0.00268049
0.000232469
-0.00258708
0.00232967
-0.00376334
0.000468967
-0.0027426
0.00160593
-0.000304259
0.000335226
1.03563e-05
0.000120003
0.000343745
-0.00315368
0.00268721
0.000192973
0.00147584
-0.00174938
-0.000112805
0.0018358
0.000237281
-0.00065111
0.000550476
7.92394e-05
0.000687777
-0.000595873
-7.93326e-05
0.00140398
0.00417957
5.16668e-05
-0.000440915
0.000391019
-3.43945e-05
1.84499e-06
1.99237e-05
6.54572e-05
0.000526689
-0.000608922
0.00240728
-0.00285307
-0.00111532
0.00486969
0.00296507
-0.00273881
-0.00254559
0.000340773
-0.00168928
-0.000805849
-0.00260589
-0.00180399
0.00441848
-0.00289944
-0.000381235
0.00324054
-0.00308986
-0.00145937
-0.00209552
0.00171701
0.00035842
0.00308506
-0.00351297
0.00473739
-0.00452223
0.00361392
0.000266285
0.00457906
-0.00387728
-0.00214451
0.000165513
-0.000365549
-0.00306177
-0.00460638
-0.000186251
0.00489702
-0.000305074
0.000137291
-0.000943225
0.000802933
0.000248201
0.000230799
0.00237998
0.000342966
-0.00276137
-1.10827e-06
-0.00218466
0.00223075
-0.0040278
0.00146193
-0.000203561
-0.000283794
0.00239427
-0.000304937
-0.000236377
0.000576275
0.000379136
0.00360014
-0.00414437
0.000161108
-0.00472265
0.000752471
-0.000684015
-0.00333087
0.00325947
7.89908e-05
-0.00147275
0.00326253
0.000347134
0.00302483
-0.00289793
0.000111245
0.00314578
-0.00325553
0.0020667
-0.00205001
-0.00437634
-0.000478765
0.00496542
0.00259017
-0.000227349
-0.00290903
0.000165094
-0.00234451
0.00210226
-7.76215e-05
-0.00113687
0.00121964
-0.00240571
0.0027084
-0.00125928
-8.28956e-05
-0.0031156
0.00287274
0.000186512
0.00269843
0.000206867
-0.00248457
0.00269041
0.000704443
-0.00019172
-0.0044997
0.000661644
-0.000594999
-0.0022054
0.00416401
-0.00456311
-0.00102709
-0.00293434
0.00329051
-0.000319121
-0.000433694
-0.000101408
0.0027148
-0.00267894
-0.000203836
0.00283677
-0.00297843
0.00311117
-0.00022701
-0.000357575
0.0020616
0.000405292
0.00238388
1.46789e-05
-0.00240263
0.00301864
0.00020296
-0.000782068
0.001705
0.00270662
-9.29043e-05
-0.000452105
-0.001054
-0.000766692
0.00173741
0.000334825
0.0031169
-0.00355176
-0.000948444
0.000114375
6.06504e-07
1.72532e-05
-1.50117e-05
-0.00324939
0.00284513
0.00116383
-0.000465003
-0.000641829
0.00127588
-1.85251e-05
-0.00350737
0.00329513
0.00500018
-0.00467568
-0.0002966
0.0046593
0.000361653
0.00270249
-0.000179423
-0.000185236
-0.00311954
-0.000257305
0.0033307
-0.00232482
0.000244291
0.00203718
0.00161708
0.00364007
0.00295271
0.000207282
-0.00444105
0.00517638
-0.00092076
-0.00419886
0.0030378
-0.0028188
-0.000304595
-1.33922e-05
4.84874e-06
1.39843e-05
0.00275692
-0.00276564
-0.000493615
0.00502167
-0.000191686
0.00429434
-0.000154962
-0.00439395
0.000122301
-0.00265168
0.0025587
0.00047236
6.28516e-05
0.00264094
0.000147261
-0.00282209
0.0036259
0.000506344
-0.00419112
0.00376747
-0.000165919
-0.00353069
-0.00011218
-0.000778519
-0.00115063
-0.00186172
0.00529502
-0.00129363
-0.00458358
0.00493223
-0.000678086
-0.00300437
0.00293009
-0.000181696
-0.0039576
0.00347073
0.00330911
-0.00321942
0.000613632
-0.00355735
9.26662e-05
-0.000494524
-0.00233767
0.00119564
-0.00520335
0.00101816
0.0041722
-0.000342612
0.00214735
-0.000143251
0.0028513
-0.00275367
-0.000135057
3.98581e-05
0.002333
-0.00246768
-0.000191418
0.00301444
-0.00363804
0.00431588
-0.00460156
-0.00480318
0.00511364
-0.00462079
-0.000455847
0.000394421
0.00442525
-0.00478924
-0.00100635
-0.00197941
-9.34989e-05
-0.00379022
0.00396788
0.00448354
-0.00244392
0.00199475
0.000155984
0.0045287
-0.00471642
-0.000631619
0.00075047
-0.000119771
-0.00466155
0.000435496
0.00346017
-0.000293008
0.00194235
-0.00226052
0.00437574
-0.000204373
0.00463056
-0.00452597
9.26814e-05
-0.000717001
0.00275956
-0.00286539
0.00286466
-0.00281792
-6.22881e-05
0.00319234
-0.000136342
-0.00294868
0.000161633
-0.000212172
0.00348772
-0.00400996
0.0014194
0.0001575
-0.000301881
0.00469122
-0.000200485
0.00286687
-0.000158985
0.00254473
-0.00253326
1.24549e-06
-3.30159e-05
-6.24184e-06
0.00301375
-0.00295451
-0.000184599
1.09481e-07
0.000495735
-0.000467979
-0.00282753
0.00327072
0.000145942
0.00274285
-0.000146061
0.00280819
0.00302577
0.000226558
0.00476775
-0.000130335
0.000355559
0.0022879
-0.000152932
0.00291287
-5.58589e-05
0.00267273
-0.00285382
0.00260244
0.00280749
-0.00290972
0.00202337
-0.00121287
-0.00026921
0.00341927
0.000990531
-0.000861489
0.000125365
0.00285757
-0.00300751
-0.00333423
0.000154358
-0.000254253
2.05897e-05
0.000216864
-0.00261032
-0.000202509
-0.000234658
0.00251451
9.22667e-05
0.000195809
0.0015068
-0.00060086
-0.00162106
0.00243288
-7.4186e-05
-0.00234079
-0.000155152
0.00283076
-0.00165204
-0.000202805
0.00181667
0.000485348
-0.00317147
-0.00333009
0.000371445
-0.00370121
0.00489063
-0.000474788
-0.00447329
-0.000531394
0.00436059
-0.00389249
0.000203503
-0.00190287
-0.00109158
0.00121135
-0.00014284
2.36973e-05
-0.000257474
0.000217791
-0.0020961
-1.9102e-05
-0.000212063
0.000232565
1.8115e-05
-0.000228959
0.000201253
-0.00293799
0.00303949
-0.000301002
0.00397265
-0.00436603
0.00030554
-0.00297128
-0.000215025
0.000196761
0.000343465
0.00461199
-0.00498143
1.62141e-06
9.63407e-06
4.54679e-07
-0.00168951
-0.00199405
0.00201685
-0.00150161
-4.67698e-05
-0.00406658
-0.00449603
0.00431883
0.000257952
-0.00020619
-0.000170517
0.00366218
-0.00354918
0.000138727
-0.00419455
-0.000536081
0.00465405
-0.00276736
-0.000162074
0.00302024
-0.00240228
0.0005023
0.000427958
0.00342106
-0.00380598
0.00316009
-0.000377713