/*--------------------------------*- C++ -*----------------------------------*\
| =========                 |                                                 |
| \\      /  F ield         | OpenFOAM: The Open Source CFD Toolbox           |
|  \\    /   O peration     | Version:  v2012                                 |
|   \\  /    A nd           | Website:  www.openfoam.com                      |
|    \\/     M anipulation  |                                                 |
\*---------------------------------------------------------------------------*/
FoamFile
{
    version     2.0;
    format      ascii;
    class       surfaceScalarField;
    location    "100";
    object      meshPhi;
}
// * * * * * * * * * * * * * * * * * * * * * * * * * * * * * * * * * * * * * //

dimensions      [0 3 -1 0 0 0 0];
oriented        oriented;


internalField   nonuniform List<scalar> 
14516
(
-0.00111011
-0.00333044
0.0044399
-1.91026e-06
-7.01117e-05
7.29722e-05
0.00372826
-0.00483881
0.00133364
-0.00180434
0.000301424
0.00658308
-0.00459058
-0.00199104
-0.00540324
0.000673678
0.00468274
0.000330339
-2.77627e-05
-0.000421312
-0.00284633
0.00248275
0.000254896
0.00482737
0.000478328
-0.00537002
0.00272906
0.00385832
0.00398748
-0.00498238
0.000989985
0.00460478
-0.000342132
-0.00427316
0.00134052
-0.000223246
-5.98635e-05
-0.000925707
0.000962871
-5.28428e-05
-3.68631e-05
-0.000891152
-1.91504e-05
0.000888534
-0.00322557
0.00108445
0.00208856
-0.00112085
-0.00214128
0.00564378
-0.000566497
-0.0050802
-0.000974289
-0.000426841
-0.00488269
0.00529602
0.000559394
-0.00469867
0.00410168
0.00222752
-0.000755898
-0.00148081
-1.87133e-05
1.87133e-05
0.00441956
-0.000600721
-0.00387374
0.000853585
0.000256894
0.000825536
7.09708e-06
-0.000852034
-7.00146e-05
-0.00222264
0.00224025
-0.00575703
0.00192596
0.00382414
0.00513746
-0.000384643
0.0046396
-0.00553764
0.000880991
0.000434343
0.00177772
0.00327893
-0.000691909
-0.0025839
-7.09265e-05
-6.93582e-05
8.8746e-05
0.00212476
-0.00653171
0.00439729
0.00561442
-0.000626331
-0.00499661
4.65039e-06
0.00021854
-0.00420298
0.00472369
0.00344141
-0.00263103
-0.000884114
-7.49804e-05
0.000362737
-0.000381248
0.00593938
-0.00132408
-0.000179523
3.7564e-05
0.000517907
-0.000900766
0.000167228
-3.75267e-05
0.000326384
-0.000411832
0.000496072
-0.000253868
-0.000230101
-0.00364088
0.000130351
-0.00139435
0.00125305
-0.000678732
-0.00448769
0.00514542
-0.000480826
-0.00146992
-0.00300102
-0.00353887
7.65091e-05
-0.00403526
0.00395139
0.00545558
-0.00130796
-0.00418961
-0.00583223
0.00599826
-0.000232097
0.000573429
-0.00360108
0.00302413
0.00527084
-0.00543576
0.000160877
-0.00370229
0.00388847
-0.00457992
0.00117182
0.00340407
0.00451701
0.00015974
-0.00467395
0.00226652
0.00109781
6.5175e-06
0.000174785
-0.000254305
0.00525749
-0.000836588
-0.00446219
0.004301
-0.00491609
0.000603635
0.000473849
-0.0011576
0.000396418
0.00367107
0.00195003
-0.000400555
-0.00298177
0.00336885
0.00537191
-0.00108194
-0.00465438
0.00517139
-0.000534262
0.00062017
0.00397352
-0.00031858
0.00429803
-0.00358923
0.00415836
9.81636e-06
9.7321e-21
-1.10382e-05
0.00449594
-0.000833676
-0.00378474
-0.000152954
0.00013
2.05102e-05
0.00137146
-0.00437789
-9.79345e-05
0.00461561
-0.000528019
-0.00398817
0.00439726
5.22903e-05
-3.15667e-09
-5.19662e-05
-0.00272108
0.000657948
0.00201898
-0.00337719
0.00104004
0.00228529
-0.00273961
0.00232826
-0.00303791
0.00069849
0.00229681
7.25642e-05
5.76104e-07
-7.15138e-05
-1.76326e-05
-0.00143644
0.00143875
0.00545932
0.000449109
0.000103018
-0.00137085
0.00125743
-0.0023797
-0.00105001
9.81411e-06
-0.00430752
0.00418668
-0.00473786
0.00490712
-0.00021542
0.0032679
-0.000746737
-0.00255962
-0.000110116
0.00010904
-0.000494088
-0.0042146
0.00470676
0.00144808
-0.00117852
-0.000299629
0.00222805
-0.00180863
0.00047633
-0.00149802
0.00146512
0.00537628
-0.00011543
6.97548e-05
4.64923e-06
0.000413742
0.00100674
0.000209508
-0.000932418
0.000694546
-0.000786345
0.000965083
0.00330332
-0.000600441
-0.00274781
0.00167843
-0.000355805
-0.00135904
0.00128283
0.00035695
5.00283e-05
2.7021e-06
0.00582055
-0.000397087
0.00564399
-0.000784684
0.000225731
-3.96135e-06
-0.000311999
0.00452036
0.000892809
-0.000236386
-0.00108421
0.00130902
4.06846e-08
7.31949e-06
0.000193544
0.00490659
-0.0051167
0.00500376
-0.0041289
-0.0012628
0.00625178
-0.00499016
0.00388218
-0.00381278
-0.00434318
0.000466115
-0.0028859
0.00242123
-0.00293954
0.0043055
-0.000536907
-0.00254259
0.00185559
0.000359255
0.000935416
-0.00118199
-5.47525e-06
1.19652e-06
1.38133e-06
0.00431281
-0.00456266
0.000143319
-0.000187344
-0.00525534
-0.000241797
-0.00448142
0.00468282
-0.00522819
0.00478783
-0.00421813
0.00100198
0.00321154
0.00139525
-0.00130248
-0.000440905
-0.00232276
-0.00484857
0.001193
0.0035226
1.97814e-06
1.06152e-05
-1.76349e-05
-0.00408338
-0.00241365
-0.00253485
-0.000339091
-0.00298958
0.00327664
0.00400034
0.0010668
0.000181824
-0.00446165
0.00417693
0.00052965
-0.000350109
0.000289087
-0.000447336
0.000512706
0.004353
0.000179609
-0.000198832
-2.9436e-06
2.56474e-05
0.00418151
0.0044814
-0.000440752
-0.00410013
3.4031e-05
-0.00076374
0.000580509
-0.000199436
0.000882687
-0.00071202
-0.000988034
3.86158e-05
7.43952e-05
0.000965699
-0.00106012
1.41143e-06
2.43138e-05
-2.5471e-05
0.000844952
-0.00107737
0.00176326
-0.000506074
-0.00129079
0.00374534
-0.00424122
0.00396547
0.000909525
-0.00487329
-1.84805e-05
1.50389e-05
0.00514151
-0.00117287
-0.00201014
0.00474435
0.000470124
0.00125742
-4.42805e-06
-3.12905e-06
-9.34883e-06
8.75239e-05
-9.49732e-05
0.000605219
0.0038127
-0.00022529
0.00103548
-0.000587766
0.000494395
-0.00214277
-0.000808726
0.00190772
-0.00202475
5.69369e-05
0.00074346
-0.000822103
-0.00107508
0.00654404
-0.00547852
-0.000109653
3.60095e-05
7.65799e-05
-0.00582549
0.000932619
-0.00125069
-0.00552847
0.00506383
0.000443509
0.000863901
-5.76694e-05
0.000512101
-0.00322762
0.00265825
-0.0058414
0.00168679
0.00409443
0.00194434
-0.00384962
0.00190718
-7.59647e-05
-3.15348e-05
-0.00152081
0.00346718
-0.000501287
-0.00401343
0.00446984
0.00456061
-0.00422642
-4.13871e-05
3.34764e-05
6.14569e-06
0.000791368
-0.00381987
0.00293471
0.00609622
-0.0027965
-0.00331411
0.00416949
-0.00313855
-0.00103112
-0.00513697
0.00475042
0.000353958
-0.00104474
0.00392117
0.00446274
9.45819e-05
-0.0045556
0.00436438
2.73866e-06
-0.00100611
-0.00357535
-0.00278852
0.00348959
-0.000103826
0.00436046
-0.00435646
-0.000772917
0.000808771
-0.0046974
0.00414962
0.00285904
-4.3928e-05
-0.00299414
0.00452104
-0.00522188
-0.00485921
0.00503682
0.000701196
0.00148309
0.0045937
-0.0067156
0.00168761
0.00502161
-0.00028543
-0.00257543
0.00281154
-0.00518269
0.00317937
1.2465e-05
0.000150684
0.00470102
-0.000758262
-0.00201996
-0.00373448
0.00574899
-9.19764e-06
-0.0054267
-0.00409312
0.00308643
0.000892051
-0.000311057
-0.00424071
4.9186e-05
9.10924e-07
-0.000225471
3.1965e-05
0.000835671
-0.000893783
0.00522252
0.000558075
-0.00483573
-0.000115031
0.00490659
0.000259453
0.00402643
-0.00429704
-0.00032561
0.00481968
0.000510265
-0.00501668
-0.00435606
-0.00152889
-0.00300189
-0.00371972
7.91008e-05
-0.00010573
-0.00040384
-0.00273627
0.00308231
-0.000261505
0.00472402
5.17165e-05
-3.19719e-06
0.00496339
-0.00470125
-0.000267774
-0.000288258
0.00452455
-0.00423422
-0.00175213
-0.00342013
0.00505429
-0.00429161
9.86265e-06
0.00259505
-5.66238e-05
-0.00139263
0.00451895
-0.00487727
0.00550275
-0.00163043
0.00118544
0.000406275
0.00374465
-0.00403117
0.000420981
-0.00404289
0.00361489
-9.64383e-06
-1.15302e-05
6.85388e-06
1.18752e-05
-0.00133446
-0.00383569
7.30496e-05
-0.000152102
6.33321e-05
-0.00445529
0.000859958
0.00358925
0.00453338
0.000422519
-0.00411896
0.00394287
4.15253e-05
0.00427664
-0.00424087
-0.000101801
0.000166532
0.00519984
0.000726123
0.00245299
-0.00322316
0.00559377
-0.000415007
5.7258e-05
-0.000969772
0.000889678
2.50683e-05
0.00373881
-0.0038318
0.00301667
0.000255619
-0.00402148
-8.21177e-06
0.00394682
-0.00159334
0.00105838
5.50764e-06
0.0023511
0.00452981
-0.00398836
-0.00121083
-0.000172578
5.81562e-05
0.00059148
0.00366376
-0.00429546
-0.00547777
0.000636766
0.0048204
-0.000339299
0.00421308
0.000660638
-0.00413076
0.00346375
-0.00350798
0.00380043
-0.00035568
-0.000219451
0.00487885
-0.00469594
-0.00540861
0.0044734
0.000862511
-0.00151401
-0.00398241
-0.000343661
-0.00462083
0.0049253
-0.000152775
-0.000840866
0.000962772
0.000976436
0.000318755
-0.00130129
0.000173788
-0.00404185
0.00369444
8.50138e-05
-0.000111683
-5.64475e-06
-0.00124523
-0.00430157
3.13216e-05
-3.62951e-05
3.8833e-06
-4.34812e-06
3.35072e-05
-0.00377241
0.00402127
0.00189887
-0.00563903
-0.00468069
-0.00100721
0.00564143
-0.000813711
0.000636323
-8.29344e-05
-0.000634759
0.000699243
-0.00627308
0.00172002
0.00453478
-0.000606225
-0.00393198
0.00442709
7.24449e-05
4.96358e-05
-0.000124035
-2.97347e-05
0.000100841
-0.00301182
0.000223755
-0.00509923
-8.32823e-05
0.0012596
-0.00143741
-0.00356397
0.000348229
0.00412524
-1.33649e-05
4.07024e-05
-2.9954e-05
-0.000150101
0.000157887
-9.79866e-05
-0.000432537
0.00027035
0.00215362
-0.00399851
-0.00394602
0.00449439
-0.00660612
0.00278983
0.0037971
2.41791e-05
0.000480907
-0.000633237
0.00410912
-0.00451052
-0.0037228
-0.00206981
0.00253786
0.000711063
-0.0053934
0.00464641
0.000221512
-1.97292e-05
1.48117e-05
-1.175e-06
0.00284543
-0.00323499
0.000327474
-0.00497664
0.00460855
-0.00309844
-0.00352681
0.00166991
-0.00199776
6.71355e-05
-0.00367949
-0.00184936
0.00553495
-0.00119243
-0.00158266
-0.00194763
0.00352686
0.0026028
0.000189306
-0.00280115
0.000175788
-3.2655e-05
0.000261592
-1.29761e-05
-0.000352453
0.000283293
0.000568735
-0.000877148
-0.00203181
-0.00425741
-0.00287832
-0.00161718
0.00447557
-0.0037235
0.00362347
5.43776e-05
0.00128049
-0.00286735
-2.22217e-05
0.000882097
-0.00118088
-0.000580254
0.000838355
0.00144028
-0.00433867
0.00490145
-0.000236972
-0.00471213
-0.00544536
0.00434487
0.00105009
0.0027403
0.000483435
0.00132588
0.00400217
-0.00371763
-0.000355023
-0.00570769
0.0048537
0.000829602
-0.00539299
0.000517152
0.00352589
-0.00333966
-0.000263524
-0.000114352
-0.00695293
0.00312818
0.00381785
-3.57985e-06
0.000131295
2.92165e-05
2.04584e-05
0.00162598
0.00254389
0.00049987
-0.00513194
0.00459095
-0.00447348
0.00463598
0.000971504
-0.0039132
-0.000663914
0.00074127
-9.59319e-05
0.00435619
-0.00380499
0.00471404
0.00292036
0.000327163
0.00510249
0.000444589
0.000669527
0.00241185
-0.0030839
-0.00240132
0.00195095
0.00033796
0.000549967
-0.000568916
0.0032445
0.00140383
-8.54207e-05
-0.000105941
0.000151775
-0.00253315
0.000260495
-0.00602267
0.00369087
0.00232773
0.00117866
-0.00406681
0.00324265
0.000210898
0.00215982
-0.0024734
0.00315751
-0.000829544
0.000789839
-8.49463e-06
0.00451646
-0.00524937
0.000688607
-0.00253001
-0.00434051
-0.0047811
0.000157748
0.00458363
0.00363892
-0.00466823
0.000960971
0.00496771
-0.00497379
-4.71477e-05
-0.00311592
-0.00423535
0.000876387
0.00334244
0.00132819
0.00459997
-0.00516608
0.00542824
-0.000286061
-3.46225e-05
-0.00538463
0.00232923
0.00305024
0.00043556
-0.00402851
-0.0042392
0.0032314
-0.00251423
-0.00287339
0.00531533
-0.000847577
-0.00252016
0.00338536
-0.000901421
0.00206298
-0.0050703
0.000156842
-0.00021022
-0.000399846
0.00137039
0.00314613
-0.000452401
0.000105443
-4.71203e-05
-0.000200846
0.00279279
0.00541407
-0.000357727
-0.00324892
-0.00370969
0.00434881
-0.000781397
-0.00112268
-0.00333702
0.0036082
-0.00424053
0.000202729
-0.00428824
0.0040398
-0.00360934
-0.000231381
0.00372162
-0.00275753
-0.00477677
0.000632047
0.0041298
7.82655e-05
0.00420988
-0.00446235
-0.00579491
0.00106296
0.00466074
0.000241039
0.00438963
-0.000226733
0.00161795
0.000577421
-0.00525897
0.00463863
-4.38344e-05
-3.36134e-05
5.14847e-05
0.000264857
2.01841e-05
-0.000841033
-0.00453916
-0.000579488
0.00475025
-0.00177662
-0.00246126
0.00285279
-0.00462273
0.00172651
0.000270906
0.00379448
5.11166e-05
0.00146468
-0.00152371
0.00518592
0.00391764
-0.0035037
-7.25378e-05
6.43469e-05
5.91011e-06
1.16852e-05
0.00020958
-0.000287172
0.00413603
-0.00093682
-0.00431751
0.00452201
-0.000209472
-0.00140585
0.0014492
0.000953286
-0.000918236
-0.000603194
0.00437679
-0.00380702
-0.0027414
-0.00222559
0.00496723
0.000596601
-0.000698159
-0.00557249
0.00430845
-0.00427458
-2.50751e-05
-0.00482208
-6.36186e-05
0.000642267
0.00415114
0.000215353
-0.00437808
-0.00217864
0.00327138
-0.0012748
-0.00351599
-0.0050207
-0.00083337
-0.00161431
0.000850148
0.000299087
0.00347709
-0.00381415
-0.00449253
-0.00372929
0.00398945
0.000544947
0.00255473
0.00092061
-0.000979956
0.00103505
-0.00464806
0.00539339
-0.000751381
0.00102275
-0.00133884
-0.00179032
-0.00370401
-0.00336938
-0.00549004
0.00495688
0.000458538
-0.004845
0.0044621
-0.00451693
0.000789188
-6.53855e-05
0.00120455
-0.00401209
0.000367232
-0.000814483
0.000305456
-0.00603638
0.00418737
-0.000525672
-4.64818e-05
0.000551834
-0.000967082
0.0019859
-0.00102603
-4.33788e-05
0.000924261
-0.0019007
-0.00255948
0.00301804
0.000268332
-0.00466943
0.00437923
3.33798e-05
0.000344831
-0.000360892
-0.00018584
0.00021592
-0.000138764
-0.00147716
0.00428591
-0.00451187
0.0044146
0.0024923
-0.00282763
0.00428655
-0.00385474
7.00133e-05
-0.00343568
-0.00246541
-0.00459661
-0.00628079
0.00353884
-0.00389505
-0.00165752
0.00447235
-0.00046571
-0.00400853
-0.00474201
0.0043896
-0.00623697
0.00422604
-0.00226962
-0.00208695
0.00312277
-0.00545325
0.00231124
-0.00356459
0.00475614
-0.000167401
0.00430796
1.749e-07
-0.00218302
0.00254226
-0.000363908
0.000754754
-0.00106761
0.0038323
-0.00347936
-0.000380312
-0.00445771
0.00333051
-0.00492015
0.000253643
0.00218112
-0.0029638
0.00430993
-0.00451337
-0.00183343
0.00143701
0.000147524
-3.96442e-05
1.18114e-05
0.0050923
-0.00509825
-0.00516293
0.00387213
-0.00465362
0.00439176
-0.00138327
-0.000483635
-0.00622798
0.00417978
-6.06479e-07
3.2912e-05
-0.00019847
7.7353e-05
-5.19008e-06
3.28724e-05
-4.0742e-05
0.00284066
0.00548297
-0.0023812
-0.00301998
0.000354675
0.00345108
5.82951e-05
0.000555917
-0.000631312
-0.000979008
-0.000432481
0.00049716
-0.00469807
0.00416442
0.00141967
-0.000492787
-0.000582359
0.000487972
0.00182846
0.0022647
-0.00262529
0.00280588
0.00487911
0.000495727
-0.00436084
-0.00403897
-0.000879345
-0.00449573
4.08073e-05
-0.000111416
-1.40154e-05
6.83213e-05
-0.00459548
-0.000706529
-0.00438474
-0.0030109
-0.0030738
0.000420141
-0.000330658
-0.000305237
0.000687377
-0.000818301
-0.000151161
-0.00295563
0.000331644
-0.00377455
-0.00383661
0.000261896
2.43138e-05
-0.000337134
-0.00370974
8.84871e-05
-2.02903e-05
-8.32015e-05
-0.00441557
0.00634382
-0.00333303
-0.00302557
-0.000315776
0.00117623
-0.000888612
-0.00505501
0.00572772
-0.00236032
0.0029706
0.00513058
-0.000240361
-0.00342247
8.48814e-06
0.00448811
-0.00450317
0.00010473
0.00376776
-0.00380857
-0.00362578
-0.000424436
0.00417528
8.14479e-05
-0.00488106
0.00406009
0.000813048
-0.00274071
0.00252902
-0.00400349
0.000839811
-0.00118431
0.00390008
0.00523535
-0.000394714
0.00158921
0.000333814
-0.00197823
0.00382176
0.000112202
-0.00399401
-0.00349284
0.00322735
0.00365757
-0.00151377
-0.00220319
0.00185416
-0.000317724
0.0022677
-0.000714339
-0.00175117
0.000775194
0.00281463
2.64894e-05
-0.00327619
0.00262007
0.00370929
-0.000908321
0.00375873
-4.76582e-07
0.00380282
-0.00361319
-0.000255711
-0.00481159
0.00495376
-0.000212383
-1.45171e-06
-2.30437e-05
0.00123828
0.000804277
-0.00490175
-0.000423035
0.00531044
-0.00357213
-0.000667849
6.06161e-05
-0.000713498
0.00323896
-0.00335717
8.70955e-05
0.000215157
-0.00453628
0.00490709
-0.00484142
-0.000146016
-0.000177489
-0.00114103
0.00130803
0.000866686
-0.00605066
-2.51417e-05
-0.00257377
-0.00441506
-0.00412805
-0.00394164
0.00359453
3.47758e-05
-5.02703e-05
0.00624242
-0.002317
0.00508668
-0.00433255
-0.000334227
0.00465581
0.000621313
-0.000159367
-0.00129321
0.00233889
0.000169195
-1.55774e-05
-0.00015187
-0.00354932
0.000998463
0.000545656
-0.00458711
0.000240341
-0.00298834
0.000701294
0.00408019
-0.00478309
-0.00207168
-0.002816
0.00439837
-0.0043964
-0.00452112
0.00434264
-0.000149111
3.6992e-05
-0.00413642
0.00370893
0.0004189
0.00348055
-0.000273049
-0.00135744
6.68064e-05
0.00128141
-0.00495973
0.00442425
0.000483101
0.00427377
0.000348031
-0.00464097
6.32037e-05
-0.000507749
0.000426259
-0.00112522
0.00132493
-0.000210305
8.91608e-05
-0.000315966
-0.000381967
0.000399105
-0.00394676
0.00070974
0.00323598
-5.31188e-05
0.000527375
-0.000490845
0.000125105
-0.000152176
-4.17203e-06
-0.00431738
0.00420455
8.48561e-05
-0.00309525
-0.00225475
0.0053142
-0.00369598
-0.00352614
0.0026007
-0.00406543
5.86728e-05
0.00387924
0.00452208
0.000300876
0.00467522
-0.000243465
0.00430884
-0.00487781
0.00197517
-0.00115957
-0.00093508
-0.00255701
0.000368681
0.00591837
-0.00362677
-0.00229287
0.0013612
0.000188828
-0.000268915
-0.00354093
-0.00270223
0.00380192
-0.00443826
0.00422873
-0.00459873
-0.000667937
0.00521474
-0.00407268
0.00423104
0.00247741
-0.0048124
-0.00555048
0.00408157
-0.00502452
0.00189429
-0.00152617
0.0016205
-0.000148341
-0.00293802
0.00480118
0.000469892
-0.00584848
0.00431411
0.00473596
0.000115213
-0.00314984
-0.0021271
0.00441871
-0.000608719
-0.00381363
-0.000414718
0.0040054
-0.00365854
-0.00534646
0.000692702
0.00401004
-0.0047697
0.00074464
0.000228641
-0.000347556
3.23788e-05
-0.00422186
-1.10674e-05
-0.00205292
0.00198182
-0.00291922
-0.000270432
0.00315862
0.000375754
-0.0033206
0.00368014
-0.000934836
-0.000664843
0.0015775
-1.01452e-05
1.01452e-05
0.000321774
-0.00177353
0.000819468
-0.00042407
-0.00183523
0.00209073
0.00507588
5.65372e-05
-0.00517079
0.000211498
-3.27917e-05
-0.000198136
-0.00421118
0.0037981
-7.86943e-05
7.56709e-05
-3.86727e-05
-0.00449425
-0.000202507
0.00524067
-0.00261975
-0.00295821
-0.000691806
-0.00345119
0.000185067
-1.3775e-05
0.00328573
0.000432872
-0.00381247
-0.00411965
0.00403177
-0.00182039
0.00156522
0.000197777
-0.000432921
-5.10416e-05
0.000471526
3.5079e-07
7.30307e-05
5.18683e-05
-0.000497028
0.00339275
-0.000231297
0.00279221
-0.00326111
0.00045758
-0.000527318
-0.00388185
0.00415465
-0.000282723
-0.00025623
0.000208806
-0.00019492
-8.05052e-05
-0.00415466
0.00391793
0.000161535
-0.000379045
0.00463414
-0.0026215
0.00061678
0.00186403
-0.000627445
0.000546079
0.00446281
-0.00347755
7.63016e-05
-4.41753e-05
0.00505455
-0.00415627
-0.000938757
-0.00106815
-0.00287951
0.0028261
-0.00346932
0.000300265
-0.000248472
-0.00022423
-4.07968e-05
2.29904e-05
-0.0018733
0.00304222
0.00189262
-0.00198249
-0.00102543
-0.00343643
0.00437077
0.000229562
0.00244857
-0.00245755
-0.000668435
0.00311238
0.00421419
0.000792707
0.00294592
0.00100921
-0.00403377
-0.00227255
0.00255276
-0.000289783
0.000463532
-0.00188342
0.00140261
-0.000603618
6.02058e-05
-7.25699e-05
-6.67907e-07
-0.00434021
0.00440611
-0.00418849
-0.00022153
-6.00474e-05
-0.000225361
-0.00327169
-0.00129332
0.00396595
-0.00497269
0.001946
-0.00255336
-0.000196926
0.00318703
-0.00301249
0.00135057
-0.000108844
-0.00126027
-0.00416738
0.00382479
0.00359067
-0.000396543
-0.00622891
0.00271044
0.00349192
0.0051518
-0.000391713
0.00328486
0.00108211
-0.000237658
0.00140495
-7.1722e-05
-0.00360437
0.00372562
-0.000130772
0.000265982
0.00304135
0.000582777
0.00343343
0.00305006
-0.00332161
0.000271456
-0.00375853
0.00340839
0.00111153
-0.00130031
-0.0010741
0.00152396
-0.00248836
-0.000186007
0.00266625
-0.000136313
0.0012366
0.00251541
-0.00273979
0.000219496
8.75318e-05
-0.00110088
0.00100474
-0.000823437
-0.001699
0.00248614
0.00424491
-0.00451556
0.000251682
0.00180134
-0.00374837
-0.0023815
-0.000357537
-0.000294456
-0.00209729
0.00221233
-0.000107358
0.000131747
-0.00010024
0.000522422
-0.00244721
0.00188557
4.35515e-05
0.000465222
-0.000329102
-0.000535615
0.000469585
-0.00244094
0.000272888
0.00216274
0.00434637
-1.53766e-05
0.00155945
-0.000165923
-0.00140458
4.3333e-05
-0.00492415
-2.9417e-05
0.00449667
0.000127642
-0.00324241
0.00311266
-9.69281e-05
0.00473796
0.00471365
-0.000329773
-0.000339128
0.00455941
-0.0001226
-0.00332994
0.00345023
-0.000511063
2.37291e-05
4.95149e-05
-0.000162097
0.00140175
-0.00124701
-0.00451236
-0.000323313
0.00476873
-0.000994744
0.00427899
-0.000260188
-0.000504371
0.000638649
0.00113817
-0.000144759
-0.000999598
-0.00180098
0.00135269
0.000405963
-0.00113471
-0.000268706
-0.00143362
0.00126394
0.00135233
-0.00220665
-9.12386e-05
0.00387413
-1.19939e-05
0.00105133
-0.00424292
-0.000105486
-0.00214808
0.00447117
0.000401213
-0.00515434
0.00475904
-0.00480332
0.00521012
5.66756e-05
-0.000440707
0.000373277
-0.000272894
-0.00157038
-0.000586064
0.00676505
-0.00460276
8.71554e-06
0.000439117
-0.00599471
0.0027673
0.00318079
0.000168419
-0.00131881
-6.44349e-05
-0.00276005
-9.83852e-05
0.00275028
0.000349745
0.00253881
-0.0027549
0.000309869
0.00412512
-0.00447283
0.00482418
-0.00440516
-0.000473309
-0.000250685
0.00012475
0.0015214
0.000568005
-0.00214984
-0.00328992
0.000826696
0.00461757
0.000127365
-0.00104689
0.000908185
-0.000205464
-0.00167157
-3.3805e-05
-0.00101686
0.000897386
-0.0046637
0.00426525
-0.00230051
0.000376082
-0.00187432
0.00379591
-0.00210664
-0.000336055
-0.0015032
0.000407222
0.00094427
0.000187214
0.00263198
-0.00257161
-0.000143966
0.00493006
0.00415576
0.00049512
-0.00467336
-0.00440688
0.00477918
-0.000405267
-0.00338735
-0.00277927
0.00202084
0.000499818
-0.00353555
0.00330596
-0.0026947
0.000413493
-0.001688
0.000293448
0.00135418
-0.00304966
0.00317517
0.00192067
-0.000457072
-0.00336181
-0.000374395
0.00371726
-0.00569527
0.00326791
0.00238576
-0.000713995
-0.00063356
0.00133867
-0.00476619
0.00505388
-0.000317401
0.000233987
0.00233911
-0.00260239
0.000172229
0.00356755
-0.00383909
5.33747e-05
-0.000437465
0.000375271
-0.00105079
-8.96e-05
0.00112817
0.000213678
0.0023039
-0.00251964
-0.000989907
0.00279038
-0.000273395
-0.0045152
0.00471654
-0.000303643
-0.00422763
-0.00237974
0.000831004
0.00152147
0.00123937
-0.00442771
-0.00321841
-0.00303171
-0.00134252
0.00296886
-0.000437271
0.000100409
0.000117356
0.00335417
-0.00347911
0.00257969
-4.13727e-05
-0.00377108
0.000158453
0.00438844
2.01505e-05
0.000171171
3.57512e-05
-0.0001508
-0.00115963
0.000963182
3.38717e-05
-0.00424961
-3.90245e-05
0.00228722
-0.00241516
0.00540693
-0.00466469
-0.000781817
0.000263596
-9.23755e-05
-2.86379e-07
1.02217e-05
0.000502936
-0.000403224
0.00483123
-0.00443073
1.32727e-05
9.8026e-05
-0.000150931
-0.000257639
-0.00300283
0.000362303
0.000133194
-0.00300888
0.000124556
-0.00117057
0.00104029
-0.00276187
0.00221023
0.000384322
-0.000302863
0.00507787
-0.00133464
-0.00039086
-0.00120934
0.0010614
7.38867e-05
-0.000211549
-0.00131557
0.00382731
-3.35862e-06
0.000104113
-0.00470681
0.00435387
0.00474935
0.000166306
0.000252192
-5.99287e-05
0.0010857
-0.00118007
0.000129061
0.000914133
-0.00107193
0.00119088
-0.00354977
0.000171338
0.000213241
0.0038057
-0.00402007
0.000420351
0.00418017
-0.00461636
0.00440316
-0.00479398
-0.000552265
0.00468358
2.1018e-05
0.000148327
-4.29777e-05
0.000534443
-0.000507745
-0.00119339
-0.000171034
-0.00140465
0.00146178
0.00438745
-0.00479347
-0.000515987
0.00433626
-0.00382621
0.00555602
-0.00401775
-0.00157478
0.000139165
-0.00113209
0.000988556
0.000416541
-0.00461538
0.00416118
0.00213776
-0.000347967
-0.00179119
-0.000123674
0.000769321
-0.00437342
-0.000637882
-0.00103593
0.00408405
-0.00067658
0.000163373
0.000174318
0.00489911
-0.00138072
-0.0015749
0.00334942
-0.00335381
-2.17808e-05
-0.00354049
0.00393187
-0.000396987
7.24446e-05
-0.000452467
0.000389191
-0.000230069
0.000142483
0.00103831
-0.00119087
-0.00422579
-0.00534811
0.0044688
-0.00276468
0.000267024
-0.00122501
0.000507593
-0.000467754
0.000149606
-0.00128651
0.00583103
-0.00562637
-0.000211444
-0.000175503
-0.000409138
-0.000612935
0.000119444
-0.00106148
0.000930881
0.00187056
-0.00155679
-0.000356324
-0.000510358
0.000451574
-0.000374308
-0.000470568
-5.4331e-05
0.00480373
-0.00013691
-0.000997927
-0.00108629
0.000946474
-0.000574887
0.00250478
-0.00197279
0.00317934
-0.00357793
0.000392107
-0.00406822
0.000214555
-0.00227259
0.00254902
-0.000289883
-0.00382398
0.00248265
-0.000386118
-0.000278484
0.00470837
0.000443105
-0.00028905
-0.000225854
0.00270366
-0.00265921
0.00479911
-0.00221905
0.000103337
-0.000125261
-0.00152331
-0.000880092
-0.000187968
0.00372178
-0.00353371
0.0026712
-0.00220019
-0.000507356
-0.000212175
-0.00253669
5.13587e-05
-0.000457216
0.000396898
-0.0050517
0.00449179
0.000552705
-0.00488216
-0.00372023
0.000228657
-0.00258509
0.00232437
-0.00318608
0.000391101
-0.00469431
0.0028163
-0.000439607
0.000482013
4.4595e-05
0.000448652
0.000489967
-0.00443628
0.00394613
0.000232843
0.00178672
-0.00204111
-0.000256562
0.00427175
0.000246964
-0.000774048
0.000660173
9.20862e-05
0.00116518
-0.00103408
-0.000136988
0.00148236
0.00443369
5.44488e-05
-0.000436074
0.00037428
-1.18752e-05
7.69956e-07
8.39563e-06
9.03188e-05
0.000701925
-0.000807937
0.00219652
-0.00267957
-0.00126517
0.00556861
0.0042818
-0.00379201
-0.00263744
0.000352699
-0.00356698
-0.00109208
-0.00252605
-0.00168291
0.00415954
-0.00470386
-0.000608186
0.00528901
-0.00407054
-0.00196617
-0.00523568
0.00435135
0.000864835
0.00406673
-0.00458831
0.00386211
-0.00379016
0.00346379
0.000259406
0.00539887
-0.00447635
-0.00422364
0.000333558
-0.000409577
-0.00341406
-0.00347951
-0.000139432
0.00350317
-0.00031959
0.000192115
-0.00137706
0.0011821
0.000129014
0.000135852
0.00355225
0.000491445
-0.00404999
-1.94711e-06
-0.00396336
0.00394294
-0.00451828
0.000440991
-5.89424e-05
-0.000538085
0.00453218
-0.000604544
-0.000470483
0.00106828
0.000297914
0.00286117
-0.00318805
0.000121098
-0.00371208
0.00106316
-0.000954735
-0.00485794
0.00475868
8.93571e-05
-0.00166956
0.00316436
0.000324331
0.00385174
-0.00363963
0.000162442
0.00460438
-0.0048181
0.00372611
-0.00361739
-0.0033359
-0.000361254
0.00366991
0.00389502
-0.000350352
-0.00508905
0.000294228
-0.0046843
0.00437028
-0.000100309
-0.0014797
0.00156596
-0.00199726
0.00223183
-0.00161307
-0.000479681
-0.00504617
0.00467404
0.000315092
0.004417
0.000329881
-0.0024281
0.00262469
0.000211285
-5.82949e-05
-0.00425944
0.00108125
-0.00100191
-0.00382849
0.00336314
-0.00375693
-0.00107681
-0.00278846
0.00307055
-0.000302181
-0.000673912
-0.000162591
0.003885
-0.0039542
-0.000258827
0.00361001
-0.0018686
0.00194478
-0.000138927
-0.000320118
0.0021178
0.000419289
0.001227
8.30182e-06
-0.00139089
0.00459077
0.000291455
-0.000238814
0.000473498
0.00315677
-0.000107562
-0.000379359
-0.00249572
-0.00182386
0.0043058
0.000503448
0.00461902
-0.00513311
-0.00120152
0.000139857
6.47157e-07
1.65838e-05
-1.78783e-05
-0.00360723
0.00319801
0.00144557
-0.000643633
-0.000813619
0.00386094
-5.44542e-05
-0.00379105
0.00360315
0.00403792
-0.00380982
-0.000244406
0.00333018
0.00027166
0.00462849
-0.00030152
-0.000406429
-0.00465928
-0.000376494
0.0050668
-0.00432394
0.000458206
0.00385171
0.00177613
0.00404905
0.0042928
0.000292653
-0.00431959
0.00427915
-0.00077585
-0.00351648
0.00512659
-0.00467278
-0.000495357
1.01912e-05
-3.76276e-06
2.55215e-05
0.00494323
-0.00500071
-0.000444169
0.00460898
-0.000328675
0.00352477
-0.00012623
-0.00342898
0.000154328
-0.00480475
0.00466545
0.000640133
8.17542e-05
0.0046933
0.000261488
-0.00499686
0.00267088
0.000368826
-0.00313744
0.00585359
-0.000249615
-0.00565401
-0.000167329
-0.00127219
-0.000970276
-0.00151359
0.00428383
-0.001479
-0.00417886
0.00445143
-0.000945305
-0.00378485
0.00389314
-0.000229761
-0.00319622
0.0028934
0.004953
-0.0047472
0.00101349
-0.0027816
0.00011413
-0.000389001
-0.00536645
0.00285518
-0.00452851
0.000904021
0.00357952
-0.000412537
0.00397959
-0.000264203
0.0036487
-0.00361416
-0.000166234
5.43099e-05
0.00319343
-0.0032468
-0.000299199
0.00491205
-0.00230022
0.00424015
-0.00458545
-0.00375153
0.00433404
-0.00395509
-0.00039059
0.000393009
0.00430096
-0.00473048
-0.00030846
-0.000626078
-7.44935e-05
-0.00310847
0.00316119
0.00387096
-0.00440416
0.00370516
0.000157332
0.00462413
-0.00478909
-0.000910399
0.00103002
-0.000155521
-0.00370411
0.000338656
0.00336881
-0.000302451
0.00375074
-0.00383701
0.004541
-0.00019688
0.00452749
-0.00432926
0.00015085
-0.00109784
0.00467201
-0.00495348
0.0020519
-0.00207632
-4.48443e-05
0.00530493
-0.000231105
-0.00352667
0.000194547
-0.000310041
0.00522243
-0.00400078
0.00143008
0.000227107
-0.000326685
0.00346569
-0.000143232
0.00464894
-0.000265599
0.00437431
-0.00470747
-3.03787e-05
0.000132216
-0.000119327
0.00282528
-0.00275204
-0.00018819
-0.000638314
0.00237126
-0.000439759
-0.00264075
0.00306453
0.00025911
0.00476394
-0.00015664
0.0039491
0.00267547
0.0001806
0.00384149
-0.000172954
0.000519031
0.0034063
-0.00026565
0.00486635
-7.63303e-05
0.00383371
-0.00365706
0.0033951
0.00485009
-0.00508918
0.000501943
-0.000322341
-0.000394599
0.00494409
0.00138795
-0.0011981
0.000156139
0.00361666
-0.00377548
-0.00410678
0.000198946
-0.000363736
3.04316e-05
0.000318147
-0.00328181
-0.000257207
-0.000429764
0.00481086
2.87306e-05
0.000241822
0.00189136
-0.00115698
-0.00307303
0.00463041
-0.000135989
-0.00456193
-0.000268665
0.00491562
-0.00184305
-0.000229271
0.00205047
0.000786565
-0.00538584
-0.00533331
0.000608481
-0.00347253
0.00349832
-0.000343848
-0.00319587
-0.000540282
0.00446331
-0.00393261
0.0002229
-0.00208696
-0.00113108
0.00126304
-0.000145116
3.26874e-05
-0.000361421
0.00031472
-0.00399667
-3.14373e-05
-0.000348458
0.000361526
2.99644e-05
-0.000364466
0.000317788
-0.00358914
0.0037426
-0.000241822
0.00443242
-0.00477821
0.000332706
-0.00455846
-0.000363936
0.000314237
0.000317575
0.00424172
-0.00458942
3.35621e-05
-4.75995e-05
-1.34417e-06
-0.00271126
-0.00302322
0.00278978
-0.00291722
-0.000103148
-0.00532142
-0.00355531
0.00333168
0.000204355
-0.000350658
-0.000224105
0.00482553
-0.00466879
0.000201427
-0.00425258
-0.000542389
0.00475258
-0.004444
-0.000258896
0.00464695
-0.00237932
0.000803543
0.000433465
0.00327758
-0.0038322
0.00482846
-0.000553524
-0.00434298
0.000459822
-0.000412665
1.21309e-05
-1.10842e-05
-8.68986e-06
-0.000450555
0.00451559
0.00455521
0.000570087
-0.000344909