/*--------------------------------*- C++ -*----------------------------------*\
| =========                 |                                                 |
| \\      /  F ield         | OpenFOAM: The Open Source CFD Toolbox           |
|  \\    /   O peration     | Version:  v2012                                 |
|   \\  /    A nd           | Website:  www.openfoam.com                      |
|    \\/     M anipulation  |                                                 |
\*---------------------------------------------------------------------------*/
FoamFile
{
    version     2.0;
    format      ascii;
    class       pointVectorField;
    location    "100";
    object      pointDisplacement;
}
// * * * * * * * * * * * * * * * * * * * * * * * * * * * * * * * * * * * * * //

dimensions      [0 1 0 0 0 0 0];


internalField   nonuniform List<vector> 
10142
(
(0 0 0)
(0 0 0)
(0 0 0)
(0 0 0)
(0 0 0)
(0 0 0)
(0 0 0)
(0 0 0)
(0 0 0)
(0 0 0)
(0 0 0)
(0 0 0)
(0 0 0)
(0 0 0)
(0 0 0)
(0 0 0)
(0 0 0)
(0 0 0)
(0 0 0)
(0 0 0)
(0 0 0)
(0 0 0)
(0 0 0)
(0 0 0)
(0 0 0)
(0 0 0)
(0 0 0)
(0 0 0)
(0 0 0)
(0 0 0)
(0 0 0)
(0 0 0)
(0 0 0)
(0 0 0)
(0 0 0)
(0 0 0)
(0 0 0)
(0 0 0)
(0 0 0)
(0 0 0)
(0 0 0)
(0 0 0)
(0 0 0)
(0 0 0)
(0 0 0)
(0 0 0)
(0 0 0)
(0 0 0)
(0 0 0)
(0 0 0)
(0 0 0)
(0 0 0)
(0 0 0)
(0 0 0)
(0 0 0)
(0 0 0)
(0 0 0)
(0 0 0)
(0 0 0)
(0 0 0)
(0 0 0)
(0 0 0)
(0 0 0)
(0 0 0)
(0 0 0)
(0 0 0)
(0 0 0)
(0 0 0)
(0 0 0)
(0 0 0)
(0 0 0)
(0 0 0)
(0 0 0)
(0 0 0)
(0 0 0)
(0 0 0)
(0 0 0)
(0 0 0)
(0 0 0)
(0 0 0)
(0 0 0)
(0 0 0)
(0 0 0)
(0 0 0)
(0 0 0)
(0 0 0)
(0 0 0)
(0 0 0)
(0 0 0)
(0 0 0)
(0 0 0)
(0 0 0)
(0 0 0)
(0 0 0)
(0 0 0)
(0 0 0)
(0 0 0)
(0 0 0)
(0 0 0)
(0 0 0)
(0 0 0)
(0 0 0)
(0 0 0)
(0 0 0)
(0 0 0)
(0 0 0)
(0 0 0)
(0 0 0)
(0 0 0)
(0 0 0)
(0 0 0)
(0 0 0)
(0 0 0)
(0 0 0)
(0 0 0)
(0 0 0)
(0 0 0)
(0 0 0)
(0 0 0)
(0 0 0)
(0 0 0)
(0 0 0)
(0 0 0)
(0 0 0)
(0 0 0)
(0 0 0)
(0 0 0)
(0 0 0)
(0 0 0)
(0 0 0)
(0 0 0)
(0 0 0)
(0 0 0)
(0 0 0)
(0 0 0)
(0 0 0)
(0 0 0)
(0 0 0)
(0 0 0)
(0 0 0)
(0 0 0)
(0 0 0)
(0 0 0)
(0 0 0)
(0 0 0)
(0 0 0)
(0 0 0)
(0 0 0)
(0 0 0)
(0 0 0)
(0 0 0)
(0 0 0)
(0 0 0)
(0 0 0)
(0 0 0)
(0 0 0)
(0 0 0)
(0 0 0)
(0 0 0)
(0 0 0)
(0 0 0)
(0 0 0)
(0 0 0)
(0 0 0)
(0 0 0)
(0 0 0)
(0 0 0)
(0 0 0)
(0 0 0)
(0 0 0)
(0 0 0)
(0 0 0)
(0 0 0)
(0 0 0)
(0 0 0)
(0 0 0)
(0 0 0)
(0 0 0)
(0 0 0)
(0 0 0)
(0 0 0)
(0 0 0)
(0 0 0)
(0 0 0)
(0 0 0)
(0 0 0)
(0 0 0)
(0 0 0)
(0 0 0)
(0 0 0)
(0 0 0)
(0 0 0)
(0 0 0)
(0 0 0)
(0 0 0)
(0 0 0)
(0 0 0)
(0 0 0)
(0 0 0)
(0 0 0)
(0 0 0)
(0 0 0)
(0 0 0)
(0 0 0)
(0 0 0)
(0 0 0)
(0 0 0)
(0 0 0)
(0 0 0)
(0 0 0)
(0 0 0)
(0 0 0)
(0 0 0)
(0 0 0)
(0 0 0)
(0 0 0)
(0 0 0)
(0 0 0)
(0 0 0)
(0 0 0)
(0 0 0)
(0 0 0)
(0 0 0)
(0 0 0)
(0 0 0)
(0 0 0)
(0 0 0)
(0 0 0)
(0 0 0)
(0 0 0)
(0 0 0)
(0 0 0)
(0 0 0)
(0 0 0)
(0 0 0)
(0 0 0)
(0 0 0)
(0 0 0)
(0 0 0)
(0 0 0)
(0 0 0)
(0 0 0)
(0 0 0)
(0 0 0)
(0 0 0)
(0 0 0)
(0 0 0)
(0 0 0)
(0 0 0)
(0 0 0)
(0 0 0)
(0 0 0)
(0 0 0)
(0 0 0)
(0 0 0)
(0 0 0)
(0 -0.000155791 0)
(0 -0.000172385 0)
(0 -0.000118444 0)
(0 -0.000140844 0)
(0 -9.54809e-05 0)
(0 -0.000143446 0)
(0 -8.12011e-05 0)
(0 -0.000154317 0)
(0 -6.49999e-05 0)
(0 -0.000110727 0)
(0 -7.07988e-05 0)
(0 -4.88756e-05 0)
(0 -4.7783e-05 0)
(0 -0.000146371 0)
(0 -4.53351e-05 0)
(0 -3.51926e-05 0)
(0 -3.4272e-05 0)
(0 -0.000167738 0)
(0 -0.000105641 0)
(0 -8.99365e-05 0)
(0 -2.72928e-05 0)
(0 -1.86208e-05 0)
(0 -0.000143721 0)
(0 -0.000173822 0)
(0 -0.000153183 0)
(0 -0.000155253 0)
(0 -0.000124898 0)
(0 -5.20321e-05 0)
(0 -6.7023e-05 0)
(0 -6.19947e-05 0)
(0 -5.54518e-05 0)
(0 -1.81049e-05 0)
(0 -1.13106e-05 0)
(0 -9.75913e-06 0)
(0 -0.00015645 0)
(0 -0.000176542 0)
(0 -0.000150329 0)
(0 -0.000136059 0)
(0 -0.000148156 0)
(0 -0.000108459 0)
(0 -7.5234e-05 0)
(0 -9.02574e-05 0)
(0 -0.000125041 0)
(0 -3.13914e-05 0)
(0 -8.58988e-05 0)
(0 -5.96189e-05 0)
(0 -4.4597e-05 0)
(0 -3.66024e-05 0)
(0 -2.53512e-05 0)
(0 -4.35292e-05 0)
(0 -4.87855e-06 0)
(0 -0.000963771 0)
(0 -0.000924848 0)
(0 -0.000977186 0)
(0 -0.00093765 0)
(0 -0.000991269 0)
(0 -0.000951607 0)
(0 -0.00100652 0)
(0 -0.000967112 0)
(0 -0.00102338 0)
(0 -0.000984396 0)
(0 -0.00104147 0)
(0 -0.00100319 0)
(0 -0.00106001 0)
(0 -0.00102278 0)
(0 -0.00108068 0)
(0 -0.00104255 0)
(0 -0.00110182 0)
(0 -0.00106407 0)
(0 -0.0011247 0)
(0 -0.00108973 0)
(0 -0.00115348 0)
(0 -0.00111721 0)
(0 -0.00118275 0)
(0 -0.00114721 0)
(0 -0.00121166 0)
(0 -0.00117954 0)
(0 -0.00124417 0)
(0 -0.00121332 0)
(0 -0.00128049 0)
(0 -0.00124924 0)
(0 -0.00131717 0)
(0 -0.00128723 0)
(0 -0.0013555 0)
(0 -0.00132699 0)
(0 -0.00139599 0)
(0 -0.00136884 0)
(0 -0.00143888 0)
(0 -0.00141309 0)
(0 -0.00148253 0)
(0 -0.00145724 0)
(0 -0.00152516 0)
(0 -0.00150181 0)
(0 -0.00157069 0)
(0 -0.00154704 0)
(0 -0.00161685 0)
(0 -0.0015927 0)
(0 -0.00166351 0)
(0 -0.00164127 0)
(0 -0.00171321 0)
(0 -0.00169133 0)
(0 -0.00176294 0)
(0 -0.00174128 0)
(0 -0.00181391 0)
(0 -0.00166676 0)
(0 -0.00171916 0)
(0 -0.00183351 0)
(0 -0.0018833 0)
(0 -0.00151516 0)
(0 -0.00125045 0)
(0 -0.00108061 0)
(0 -0.00190473 0)
(0 -0.00195242 0)
(0 -0.00197568 0)
(0 -0.0020221 0)
(0 -0.00204424 0)
(0 -0.00208987 0)
(0 -0.00211316 0)
(0 -0.00216003 0)
(0 -0.00218307 0)
(0 -0.00222925 0)
(0 -0.00224832 0)
(0 -0.00229383 0)
(0 -0.0023104 0)
(0 -0.00235732 0)
(0 -0.00237135 0)
(0 -0.00241833 0)
(0 -0.00242823 0)
(0 -0.00247255 0)
(0 -0.00247944 0)
(0 -0.00251983 0)
(0 -0.00252418 0)
(0 -0.00256094 0)
(0 -0.00255847 0)
(0 -0.00259902 0)
(0 -0.00259668 0)
(0 -0.00263719 0)
(0 -0.00263361 0)
(0 -0.00267377 0)
(0 -0.00266844 0)
(0 -0.00270753 0)
(0 -0.00270296 0)
(0 -0.00274138 0)
(0 -0.00273678 0)
(0 -0.00277453 0)
(0 -0.00276793 0)
(0 -0.00280334 0)
(0 -0.0027949 0)
(0 -0.00282898 0)
(0 -0.00281905 0)
(0 -0.00285276 0)
(0 -0.00287312 0)
(0 -0.00288164 0)
(0 -0.00290082 0)
(0 -0.00291669 0)
(0 -0.00270852 0)
(0 -0.0029244 0)
(0 -0.00294012 0)
(0 -0.00296077 0)
(0 -0.00297345 0)
(0 -0.00299084 0)
(0 -0.00299956 0)
(0 -0.00300456 0)
(0 -0.00301286 0)
(0 -0.00301789 0)
(0 -0.00302266 0)
(0 -0.00302648 0)
(0 -0.00303136 0)
(0 -0.00303031 0)
(0 -0.00303109 0)
(0 -0.00302681 0)
(0 -0.00302814 0)
(0 -0.00302366 0)
(0 -0.00301647 0)
(0 -0.00301748 0)
(0 -0.00300978 0)
(0 -0.00299892 0)
(0 -0.00298875 0)
(0 -0.00297549 0)
(0 -0.00296146 0)
(0 -0.00248601 0)
(0 -0.00295918 0)
(0 -0.00294428 0)
(0 -0.00292639 0)
(0 -0.00292166 0)
(0 -0.00290484 0)
(0 -0.00288121 0)
(0 -0.00286183 0)
(0 -0.00283561 0)
(0 -0.00281208 0)
(0 -0.00280661 0)
(0 -0.00278315 0)
(0 -0.00275672 0)
(0 -0.00275262 0)
(0 -0.00272711 0)
(0 -0.00269823 0)
(0 -0.00269471 0)
(0 -0.00266712 0)
(0 -0.0012994 0)
(0 -0.00263183 0)
(0 -0.00260106 0)
(0 -0.00256354 0)
(0 -0.00253021 0)
(0 -0.00252448 0)
(0 -0.00249174 0)
(0 -0.00245716 0)
(0 -0.00245135 0)
(0 -0.00241752 0)
(0 -0.00237619 0)
(0 -0.00234136 0)
(0 -0.00230008 0)
(0 -0.00226293 0)
(0 -0.00225719 0)
(0 -0.00222038 0)
(0 -0.00218205 0)
(0 -0.00217654 0)
(0 -0.00213887 0)
(0 -0.00209484 0)
(0 -0.00111405 0)
(0 -0.000983009 0)
(0 -0.00252961 0)
(0 -0.00249309 0)
(0 -0.00253605 0)
(0 -0.00250009 0)
(0 -0.00254135 0)
(0 -0.00250499 0)
(0 -0.00255019 0)
(0 -0.00250754 0)
(0 -0.00254412 0)
(0 -0.0025081 0)
(0 -0.00254013 0)
(0 -0.00250486 0)
(0 -0.00253416 0)
(0 -0.00249854 0)
(0 -0.00252617 0)
(0 -0.00248995 0)
(0 -0.00251362 0)
(0 -0.00247488 0)
(0 -0.00249525 0)
(0 -0.00245329 0)
(0 -0.00247059 0)
(0 -0.00251407 0)
(0 -0.00248527 0)
(0 -0.00252896 0)
(0 -0.00249661 0)
(0 -0.00253893 0)
(0 -0.00242634 0)
(0 -0.00240885 0)
(0 -0.00250481 0)
(0 -0.00254605 0)
(0 -0.00238106 0)
(0 -0.00236333 0)
(0 -0.00250875 0)
(0 -0.00254848 0)
(0 -0.00233524 0)
(0 -0.00231686 0)
(0 -0.00249926 0)
(0 -0.0025468 0)
(0 -0.00228813 0)
(0 -0.00226775 0)
(0 -0.00223978 0)
(0 -0.00221871 0)
(0 -0.0024999 0)
(0 -0.00254125 0)
(0 -0.00219148 0)
(0 -0.00217224 0)
(0 -0.0024896 0)
(0 -0.00253076 0)
(0 -0.00214386 0)
(0 -0.0021277 0)
(0 -0.00245151 0)
(0 -0.00209738 0)
(0 -0.00208404 0)
(0 -0.00247293 0)
(0 -0.00251557 0)
(0 -0.00210776 0)
(0 -0.00205243 0)
(0 -0.00204108 0)
(0 -0.00245123 0)
(0 -0.00249514 0)
(0 -0.00200915 0)
(0 -0.00199826 0)
(0 -0.00242549 0)
(0 -0.00246918 0)
(0 -0.00196601 0)
(0 -0.00195493 0)
(0 -0.00275647 0)
(0 -0.00239535 0)
(0 -0.00243916 0)
(0 -0.00192137 0)
(0 -0.00191126 0)
(0 -0.00193935 0)
(0 -0.00189623 0)
(0 -0.00186694 0)
(0 -0.001853 0)
(0 -0.00215031 0)
(0 -0.002362 0)
(0 -0.00240585 0)
(0 -0.00182225 0)
(0 -0.00180883 0)
(0 -0.00183464 0)
(0 -0.00179214 0)
(0 -0.00176333 0)
(0 -0.0017486 0)
(0 -0.00171772 0)
(0 -0.00170472 0)
(0 -0.00232555 0)
(0 -0.0023686 0)
(0 -0.0024467 0)
(0 -0.00240888 0)
(0 -0.00232775 0)
(0 -0.00236828 0)
(0 -0.00235326 0)
(0 -0.00177258 0)
(0 -0.000910113 0)
(0 -0.00167259 0)
(0 -0.00166219 0)
(0 -0.00244785 0)
(0 -0.00240796 0)
(0 -0.00232561 0)
(0 -0.00236569 0)
(0 -0.00228045 0)
(0 -0.00232045 0)
(0 -0.00240373 0)
(0 -0.00235839 0)
(0 -0.00227214 0)
(0 -0.00230956 0)
(0 -0.00192754 0)
(0 -0.00239388 0)
(0 -0.00234537 0)
(0 -0.00225839 0)
(0 -0.00229554 0)
(0 -0.00220611 0)
(0 -0.0022438 0)
(0 -0.00233389 0)
(0 -0.002281 0)
(0 -0.00219045 0)
(0 -0.00222562 0)
(0 -0.00231171 0)
(0 -0.00225816 0)
(0 -0.0021704 0)
(0 -0.00220414 0)
(0 -0.00162905 0)
(0 -0.00162135 0)
(0 -0.00163549 0)
(0 -0.00211339 0)
(0 -0.00214652 0)
(0 -0.00223329 0)
(0 -0.00217683 0)
(0 -0.00208855 0)
(0 -0.00211916 0)
(0 -0.00246862 0)
(0 -0.00256502 0)
(0 -0.00220357 0)
(0 -0.00214654 0)
(0 -0.00206033 0)
(0 -0.0020887 0)
(0 -0.00200071 0)
(0 -0.00202966 0)
(0 -0.00211207 0)
(0 -0.00205418 0)
(0 -0.00196943 0)
(0 -0.00199586 0)
(0 -0.00207838 0)
(0 -0.00202172 0)
(0 -0.00193462 0)
(0 -0.00195982 0)
(0 -0.00187074 0)
(0 -0.00189369 0)
(0 -0.00197551 0)
(0 -0.00191288 0)
(0 -0.00182942 0)
(0 -0.0018504 0)
(0 -0.00193062 0)
(0 -0.00186931 0)
(0 -0.00178789 0)
(0 -0.00180759 0)
(0 -0.00172559 0)
(0 -0.00174566 0)
(0 -0.00182267 0)
(0 -0.00176312 0)
(0 -0.00168398 0)
(0 -0.00170162 0)
(0 -0.00158775 0)
(0 -0.00158104 0)
(0 -0.00161108 0)
(0 -0.00157168 0)
(0 -0.00159595 0)
(0 -0.00155823 0)
(0 -0.00153209 0)
(0 -0.00152033 0)
(0 -0.00149311 0)
(0 -0.00148244 0)
(0 -0.00177687 0)
(0 -0.00171648 0)
(0 -0.00164058 0)
(0 -0.00165644 0)
(0 -0.00157987 0)
(0 -0.00159583 0)
(0 -0.00166748 0)
(0 -0.00160792 0)
(0 -0.00153556 0)
(0 -0.00154912 0)
(0 -0.00162547 0)
(0 -0.00155938 0)
(0 -0.00149048 0)
(0 -0.00149869 0)
(0 -0.00156274 0)
(0 -0.00150464 0)
(0 -0.00143783 0)
(0 -0.00144468 0)
(0 -0.00150926 0)
(0 -0.00144955 0)
(0 -0.00151165 0)
(0 -0.00145193 0)
(0 -0.00151125 0)
(0 -0.00145171 0)
(0 -0.00139269 0)
(0 -0.00139282 0)
(0 -0.00144898 0)
(0 -0.00139032 0)
(0 -0.00133443 0)
(0 -0.0013318 0)
(0 -0.00138499 0)
(0 -0.00132629 0)
(0 -0.00137696 0)
(0 -0.00131796 0)
(0 -0.00136624 0)
(0 -0.00130719 0)
(0 -0.00135298 0)
(0 -0.00129411 0)
(0 -0.00124851 0)
(0 -0.00123588 0)
(0 -0.00127898 0)
(0 -0.00122116 0)
(0 -0.00126178 0)
(0 -0.00120457 0)
(0 -0.00124283 0)
(0 -0.00118591 0)
(0 -0.00122196 0)
(0 -0.00114802 0)
(0 -0.00116525 0)
(0 -0.00119896 0)
(0 -0.00114267 0)
(0 -0.00117409 0)
(0 -0.00111818 0)
(0 -0.00114745 0)
(0 -0.00109166 0)
(0 -0.00111881 0)
(0 -0.00127645 0)
(0 -0.0010625 0)
(0 -0.00106307 0)
(0 -0.00108824 0)
(0 -0.00103257 0)
(0 -0.00105581 0)
(0 -0.00220985 0)
(0 -0.00145448 0)
(0 -0.00144532 0)
(0 -0.00100005 0)
(0 -0.00102136 0)
(0 -0.00157663 0)
(0 -0.00117452 0)
(0 -0.00141614 0)
(0 -0.00140792 0)
(0 -0.0021354 0)
(0 -0.00096557 0)
(0 -0.000984954 0)
(0 -0.000944327 0)
(0 -0.00104048 0)
(0 -0.0010023 0)
(0 -0.00105746 0)
(0 -0.00101763 0)
(0 -0.00127938 0)
(0 -0.00258728 0)
(0 -0.0013769 0)
(0 -0.00143342 0)
(0 -0.00137903 0)
(0 -0.000962616 0)
(0 -0.000976494 0)
(0 -0.00107218 0)
(0 -0.00141187 0)
(0 -0.000921554 0)
(0 -0.000934097 0)
(0 -0.00087913 0)
(0 -0.0008905 0)
(0 -0.000835385 0)
(0 -0.000845655 0)
(0 -0.000900238 0)
(0 -0.00085435 0)
(0 -0.000908253 0)
(0 -0.00257833 0)
(0 -0.0007904 0)
(0 -0.000779689 0)
(0 -0.00230244 0)
(0 -0.00228686 0)
(0 -0.000734553 0)
(0 -0.000723596 0)
(0 -0.00143469 0)
(0 -0.00280751 0)
(0 -0.0015711 0)
(0 -0.00137747 0)
(0 -0.00119063 0)
(0 -0.00266133 0)
(0 -0.00164609 0)
(0 -0.00134569 0)
(0 -0.00114351 0)
(0 -0.00101486 0)
(0 -0.000678418 0)
(0 -0.000667271 0)
(0 -0.00200095 0)
(0 -0.000621909 0)
(0 -0.000610492 0)
(0 -0.00247072 0)
(0 -0.00105966 0)
(0 -0.000838128 0)
(0 -0.000791202 0)
(0 -0.00245338 0)
(0 -0.00140056 0)
(0 -0.00144429 0)
(0 -0.00149528 0)
(0 -0.00148688 0)
(0 -0.00153825 0)
(0 -0.00152797 0)
(0 -0.00157986 0)
(0 -0.00156773 0)
(0 -0.00161995 0)
(0 -0.00160639 0)
(0 -0.00165827 0)
(0 -0.00164321 0)
(0 -0.00169539 0)
(0 -0.00167941 0)
(0 -0.00173035 0)
(0 -0.00171019 0)
(0 -0.00176178 0)
(0 -0.00173654 0)
(0 -0.00178974 0)
(0 -0.00175697 0)
(0 -0.00181728 0)
(0 -0.00179015 0)
(0 -0.00184504 0)
(0 -0.00181604 0)
(0 -0.00187032 0)
(0 -0.000654812 0)
(0 -0.000597874 0)
(0 -0.000641025 0)
(0 -0.000584076 0)
(0 -0.000625995 0)
(0 -0.000568968 0)
(0 -0.00060966 0)
(0 -0.000552762 0)
(0 -0.000592141 0)
(0 -0.000535671 0)
(0 -0.000573665 0)
(0 -0.000517815 0)
(0 -0.000554326 0)
(0 -0.000499206 0)
(0 -0.000534063 0)
(0 -0.000479886 0)
(0 -0.000513037 0)
(0 -0.000566873 0)
(0 -0.000544139 0)
(0 -0.000491305 0)
(0 -0.000520365 0)
(0 -0.000573024 0)
(0 -0.000547326 0)
(0 -0.000496016 0)
(0 -0.000520626 0)
(0 -0.000571699 0)
(0 -0.000542574 0)
(0 -0.000493327 0)
(0 -0.000513109 0)
(0 -0.000562162 0)
(0 -0.000530661 0)
(0 -0.000483116 0)
(0 -0.000498093 0)
(0 -0.000545361 0)
(0 -0.000510188 0)
(0 -0.000556614 0)
(0 -0.000464994 0)
(0 -0.000519325 0)
(0 -0.000565093 0)
(0 -0.000525705 0)
(0 -0.000571057 0)
(0 -0.000529464 0)
(0 -0.000575162 0)
(0 -0.000530593 0)
(0 -0.000576217 0)
(0 -0.000486734 0)
(0 -0.000528832 0)
(0 -0.000573854 0)
(0 -0.000604293 0)
(0 -0.000524405 0)
(0 -0.000569411 0)
(0 -0.000623572 0)
(0 -0.000517626 0)
(0 -0.000562492 0)
(0 -0.00047435 0)
(0 -0.000508099 0)
(0 -0.000552749 0)
(0 -0.000609009 0)
(0 -0.000599157 0)
(0 -0.000657216 0)
(0 -0.000647329 0)
(0 -0.000586642 0)
(0 -0.000634554 0)
(0 -0.000696913 0)
(0 -0.000683931 0)
(0 -0.000618704 0)
(0 -0.000668027 0)
(0 -0.000599689 0)
(0 -0.000649054 0)
(0 -0.000719263 0)
(0 -0.000700312 0)
(0 -0.000971086 0)
(0 -0.00103303 0)
(0 -0.000627189 0)
(0 -0.00067837 0)
(0 -0.000752993 0)
(0 -0.000730856 0)
(0 -0.000806886 0)
(0 -0.000784607 0)
(0 -0.000705654 0)
(0 -0.000759233 0)
(0 -0.000564888 0)
(0 -0.000575371 0)
(0 -0.00085507 0)
(0 -0.000807572 0)
(0 -0.000745239 0)
(0 -0.000762144 0)
(0 -0.000701581 0)
(0 -0.000718559 0)
(0 -0.000822706 0)
(0 -0.000660319 0)
(0 -0.000677614 0)
(0 -0.00155546 0)
(0 -0.000677401 0)
(0 -0.000730737 0)
(0 -0.000937928 0)
(0 -0.00100469 0)
(0 -0.000495889 0)
(0 -0.0018393 0)
(0 -0.00189435 0)
(0 -0.00167893 0)
(0 -0.000813912 0)
(0 -0.000785324 0)
(0 -0.000699258 0)
(0 -0.000753914 0)
(0 -0.000841333 0)
(0 -0.000810006 0)
(0 -0.00143468 0)
(0 -0.000898427 0)
(0 -0.000866947 0)
(0 -0.00077547 0)
(0 -0.000831956 0)
(0 -0.000924354 0)
(0 -0.000889095 0)
(0 -0.000793714 0)
(0 -0.00085082 0)
(0 -0.000947047 0)
(0 -0.000908779 0)
(0 -0.000809328 0)
(0 -0.000867296 0)
(0 -0.000967769 0)
(0 -0.00092645 0)
(0 -0.00102784 0)
(0 -0.000986744 0)
(0 -0.000882132 0)
(0 -0.000942427 0)
(0 -0.00104805 0)
(0 -0.00100375 0)
(0 -0.000894576 0)
(0 -0.000955986 0)
(0 -0.00106618 0)
(0 -0.00101877 0)
(0 -0.00112956 0)
(0 -0.00108248 0)
(0 -0.000968297 0)
(0 -0.001032 0)
(0 -0.00114665 0)
(0 -0.00109623 0)
(0 -0.000978155 0)
(0 -0.00104293 0)
(0 -0.00116182 0)
(0 -0.00110952 0)
(0 -0.00122878 0)
(0 -0.00117745 0)
(0 -0.00105523 0)
(0 -0.00112355 0)
(0 -0.00124502 0)
(0 -0.00119126 0)
(0 -0.00106657 0)
(0 -0.00113527 0)
(0 -0.00125947 0)
(0 -0.00120377 0)
(0 -0.00107511 0)
(0 -0.00114383 0)
(0 -0.00127216 0)
(0 -0.00121265 0)
(0 -0.00134011 0)
(0 -0.00128133 0)
(0 -0.00115113 0)
(0 -0.00122064 0)
(0 -0.00134966 0)
(0 -0.00128992 0)
(0 -0.00115794 0)
(0 -0.00122856 0)
(0 -0.0013597 0)
(0 -0.00129975 0)
(0 -0.00142949 0)
(0 -0.001371 0)
(0 -0.00123843 0)
(0 -0.00131126 0)
(0 -0.00144117 0)
(0 -0.00138268 0)
(0 -0.00124833 0)
(0 -0.00132125 0)
(0 -0.00145453 0)
(0 -0.00139228 0)
(0 -0.00125271 0)
(0 -0.00132217 0)
(0 -0.00145987 0)
(0 -0.00138928 0)
(0 -0.00152497 0)
(0 -0.00145495 0)
(0 -0.00131597 0)
(0 -0.00138189 0)
(0 -0.00151945 0)
(0 -0.00144664 0)
(0 -0.00130577 0)
(0 -0.00137105 0)
(0 -0.00151039 0)
(0 -0.00143496 0)
(0 -0.00157133 0)
(0 -0.00149613 0)
(0 -0.00135736 0)
(0 -0.00141913 0)
(0 -0.00155411 0)
(0 -0.00147794 0)
(0 -0.00160851 0)
(0 -0.00153374 0)
(0 -0.00166018 0)
(0 -0.00158671 0)
(0 -0.00145754 0)
(0 -0.0015118 0)
(0 -0.00163621 0)
(0 -0.00156425 0)
(0 -0.00168339 0)
(0 -0.00161483 0)
(0 -0.00172869 0)
(0 -0.00166243 0)
(0 -0.00154777 0)
(0 -0.00159721 0)
(0 -0.00170656 0)
(0 -0.00164225 0)
(0 -0.00153214 0)
(0 -0.00157794 0)
(0 -0.00146616 0)
(0 -0.00151261 0)
(0 -0.00174656 0)
(0 -0.00139881 0)
(0 -0.00144513 0)
(0 -0.00155407 0)
(0 -0.00148714 0)
(0 -0.00137505 0)
(0 -0.00141725 0)
(0 -0.00134744 0)
(0 -0.00159115 0)
(0 -0.00138116 0)
(0 -0.0013027 0)
(0 -0.00134525 0)
(0 -0.00122848 0)
(0 -0.0012724 0)
(0 -0.00138405 0)
(0 -0.00131218 0)
(0 -0.00141735 0)
(0 -0.00134669 0)
(0 -0.00124091 0)
(0 -0.00127652 0)
(0 -0.00137711 0)
(0 -0.00130909 0)
(0 -0.00120724 0)
(0 -0.0012434 0)
(0 -0.00118196 0)
(0 -0.00113911 0)
(0 -0.0011796 0)
(0 -0.00140565 0)
(0 -0.00127986 0)
(0 -0.0024081 0)
(0 -0.000444539 0)
(0 -0.000903421 0)
(0 -0.000974461 0)
(0 -0.00179552 0)
(0 -0.00256957 0)
(0 -0.0018616 0)
(0 -0.00191663 0)
(0 -0.00107308 0)
(0 -0.0018817 0)
(0 -0.00193739 0)
(0 -0.00196978 0)
(0 -0.00199256 0)
(0 -0.00195484 0)
(0 -0.00201075 0)
(0 -0.00204846 0)
(0 -0.00206613 0)
(0 -0.00202498 0)
(0 -0.00208059 0)
(0 -0.00212074 0)
(0 -0.00213523 0)
(0 -0.00217436 0)
(0 -0.00218913 0)
(0 -0.00214724 0)
(0 -0.00220158 0)
(0 -0.00224238 0)
(0 -0.00225526 0)
(0 -0.00221176 0)
(0 -0.00226577 0)
(0 -0.00230785 0)
(0 -0.0023184 0)
(0 -0.00235911 0)
(0 -0.00237015 0)
(0 -0.0023268 0)
(0 -0.00237878 0)
(0 -0.00242047 0)
(0 -0.00242947 0)
(0 -0.00238485 0)
(0 -0.00243584 0)
(0 -0.00247901 0)
(0 -0.00248571 0)
(0 -0.00243922 0)
(0 -0.00248943 0)
(0 -0.00253411 0)
(0 -0.00253807 0)
(0 -0.00258101 0)
(0 -0.00258528 0)
(0 -0.00253923 0)
(0 -0.00258656 0)
(0 -0.00263072 0)
(0 -0.00263201 0)
(0 -0.00267395 0)
(0 -0.00267554 0)
(0 -0.00263132 0)
(0 -0.00267471 0)
(0 -0.00271689 0)
(0 -0.00271574 0)
(0 -0.00267118 0)
(0 -0.00271217 0)
(0 -0.00275439 0)
(0 -0.00275102 0)
(0 -0.00270605 0)
(0 -0.00274519 0)
(0 -0.00278756 0)
(0 -0.00278199 0)
(0 -0.00282219 0)
(0 -0.00281727 0)
(0 -0.00277465 0)
(0 -0.00281071 0)
(0 -0.00285071 0)
(0 -0.00284465 0)
(0 -0.00280248 0)
(0 -0.00283696 0)
(0 -0.00287618 0)
(0 -0.00286812 0)
(0 -0.00290365 0)
(0 -0.00289541 0)
(0 -0.00285732 0)
(0 -0.00288504 0)
(0 -0.00292347 0)
(0 -0.00290845 0)
(0 -0.00287151 0)
(0 -0.00289369 0)
(0 -0.0029258 0)
(0 -0.00291034 0)
(0 -0.00293809 0)
(0 -0.00292109 0)
(0 -0.00289173 0)
(0 -0.00290111 0)
(0 -0.00292766 0)
(0 -0.00290617 0)
(0 -0.00292969 0)
(0 -0.00290718 0)
(0 -0.00287023 0)
(0 -0.00292833 0)
(0 -0.00290499 0)
(0 -0.00288233 0)
(0 -0.0028798 0)
(0 -0.00289996 0)
(0 -0.00287471 0)
(0 -0.00285362 0)
(0 -0.00284788 0)
(0 -0.00286608 0)
(0 -0.00283819 0)
(0 -0.000621653 0)
(0 -0.000640497 0)
(0 -0.000603829 0)
(0 -0.000696188 0)
(0 -0.000659909 0)
(0 -0.000717075 0)
(0 -0.000681071 0)
(0 -0.000625177 0)
(0 -0.00064651 0)
(0 -0.000588233 0)
(0 -0.000615738 0)
(0 -0.000671531 0)
(0 -0.000640525 0)
(0 -0.000588066 0)
(0 -0.00061049 0)
(0 -0.000561298 0)
(0 -0.000581649 0)
(0 -0.000535052 0)
(0 -0.000557352 0)
(0 -0.000586107 0)
(0 -0.000517726 0)
(0 -0.000527491 0)
(0 -0.00257294 0)
(0 -0.00294907 0)
(0 -0.00107199 0)
(0 -0.00158908 0)
(0 -0.00110532 0)
(0 -0.00180366 0)
(0 -0.00282691 0)
(0 -0.000700908 0)
(0 -0.00102831 0)
(0 -0.00173092 0)
(0 -0.00104449 0)
(0 -0.00113773 0)
(0 -0.00095027 0)
(0 -0.00285379 0)
(0 -0.00282491 0)
(0 -0.00161178 0)
(0 -0.0015864 0)
(0 -0.00161897 0)
(0 -0.00158925 0)
(0 -0.00161843 0)
(0 -0.00158554 0)
(0 -0.00161283 0)
(0 -0.00157691 0)
(0 -0.00160071 0)
(0 -0.00156319 0)
(0 -0.00158453 0)
(0 -0.00154143 0)
(0 -0.00154445 0)
(0 -0.00156661 0)
(0 -0.0015225 0)
(0 -0.00154538 0)
(0 -0.00159148 0)
(0 -0.00157044 0)
(0 -0.00161829 0)
(0 -0.00159708 0)
(0 -0.00164602 0)
(0 -0.00162517 0)
(0 -0.00167493 0)
(0 -0.00165511 0)
(0 -0.00170452 0)
(0 -0.00168456 0)
(0 -0.00173446 0)
(0 -0.0017145 0)
(0 -0.00176519 0)
(0 -0.00174412 0)
(0 -0.00179575 0)
(0 -0.00177271 0)
(0 -0.00182572 0)
(0 -0.00180402 0)
(0 -0.00185732 0)
(0 -0.00183669 0)
(0 -0.00189057 0)
(0 -0.00187033 0)
(0 -0.00192472 0)
(0 -0.00190478 0)
(0 -0.00195952 0)
(0 -0.00193993 0)
(0 -0.00152125 0)
(0 -0.00160229 0)
(0 -0.00171512 0)
(0 -0.00199611 0)
(0 -0.00197658 0)
(0 -0.00181275 0)
(0 -0.00190937 0)
(0 -0.00195525 0)
(0 -0.00187436 0)
(0 -0.00203344 0)
(0 -0.00178712 0)
(0 -0.00189587 0)
(0 -0.00193489 0)
(0 -0.00204898 0)
(0 -0.00208759 0)
(0 -0.00187352 0)
(0 -0.00191263 0)
(0 -0.00197557 0)
(0 -0.00210023 0)
(0 -0.0021399 0)
(0 -0.00195335 0)
(0 -0.00201712 0)
(0 -0.00169436 0)
(0 -0.00181047 0)
(0 -0.00105456 0)
(0 -0.00155967 0)
(0 -0.00245944 0)
(0 -0.00188837 0)
(0 -0.00192924 0)
(0 -0.000512767 0)
(0 -0.000469131 0)
(0 -0.000478365 0)
(0 -0.000459356 0)
(0 -0.00111207 0)
(0 -0.000567281 0)
(0 -0.000550368 0)
(0 -0.000834449 0)
(0 -0.00192883 0)
(0 -0.000959911 0)
(0 -0.00163981 0)
(0 -0.000629726 0)
(0 -0.00283842 0)
(0 -0.00286735 0)
(0 -0.00280799 0)
(0 -0.0027945 0)
(0 -0.00189509 0)
(0 -0.00214842 0)
(0 -0.00210964 0)
(0 -0.0021891 0)
(0 -0.00218123 0)
(0 -0.00111312 0)
(0 -0.0012033 0)
(0 -0.000974806 0)
(0 -0.00277643 0)
(0 -0.00276281 0)
(0 -0.000910091 0)
(0 -0.000419182 0)
(0 -0.000427899 0)
(0 -0.00171027 0)
(0 -0.00183822 0)
(0 -0.00186266 0)
(0 -0.00100672 0)
(0 -0.000890706 0)
(0 -0.00091907 0)
(0 -0.00051576 0)
(0 -0.000502567 0)
(0 -0.00090971 0)
(0 -0.000888438 0)
(0 -0.00190496 0)
(0 -0.00223076 0)
(0 -0.00222338 0)
(0 -0.0021541 0)
(0 -0.00211536 0)
(0 -0.00232544 0)
(0 -0.00118092 0)
(0 -0.00126696 0)
(0 -0.0012792 0)
(0 -0.00124741 0)
(0 -0.00129336 0)
(0 -0.00126363 0)
(0 -0.00131056 0)
(0 -0.00128055 0)
(0 -0.00132883 0)
(0 -0.0012983 0)
(0 -0.00134828 0)
(0 -0.00131728 0)
(0 -0.00126517 0)
(0 -0.00128395 0)
(0 -0.0013373 0)
(0 -0.00130403 0)
(0 -0.00135765 0)
(0 -0.00132493 0)
(0 -0.00137927 0)
(0 -0.00134646 0)
(0 -0.00140225 0)
(0 -0.0013688 0)
(0 -0.00142443 0)
(0 -0.00139293 0)
(0 -0.00144924 0)
(0 -0.00141865 0)
(0 -0.00147484 0)
(0 -0.00144456 0)
(0 -0.00150097 0)
(0 -0.00147172 0)
(0 -0.00153098 0)
(0 -0.00150056 0)
(0 -0.00281939 0)
(0 -0.00112629 0)
(0 -0.00116632 0)
(0 -0.00036785 0)
(0 -0.000376118 0)
(0 -0.0015628 0)
(0 -0.00153231 0)
(0 -0.000535045 0)
(0 -0.000488695 0)
(0 -0.00128419 0)
(0 -0.00134298 0)
(0 -0.00132667 0)
(0 -0.000934722 0)
(0 -0.00081869 0)
(0 -0.00145917 0)
(0 -0.00126834 0)
(0 -0.000472119 0)
(0 -0.000482083 0)
(0 -0.00274403 0)
(0 -0.00273073 0)
(0 -0.00274679 0)
(0 -0.00112219 0)
(0 -0.00121541 0)
(0 -0.00150281 0)
(0 -0.00202518 0)
(0 -0.000835547 0)
(0 -0.00158397 0)
(0 -0.00088377 0)
(0 -0.00215676 0)
(0 -0.00211778 0)
(0 -0.00182193 0)
(0 -0.00179523 0)
(0 -0.00175684 0)
(0 -0.00275428 0)
(0 -0.00147136 0)
(0 -0.00149515 0)
(0 -0.00155692 0)
(0 -0.00157574 0)
(0 -0.00151665 0)
(0 -0.00163302 0)
(0 -0.00159208 0)
(0 -0.00153462 0)
(0 -0.00160509 0)
(0 -0.00154812 0)
(0 -0.00118025 0)
(0 -0.00122042 0)
(0 -0.00113859 0)
(0 -0.00294524 0)
(0 -0.00296475 0)
(0 -0.00295874 0)
(0 -0.00297691 0)
(0 -0.00298216 0)
(0 -0.0029685 0)
(0 -0.00183633 0)
(0 -0.00190094 0)
(0 -0.00193795 0)
(0 -0.00200051 0)
(0 -0.00203318 0)
(0 -0.00209527 0)
(0 -0.00212108 0)
(0 -0.00206157 0)
(0 -0.00205972 0)
(0 -0.00214148 0)
(0 -0.00208104 0)
(0 -0.00215683 0)
(0 -0.00209735 0)
(0 -0.00216749 0)
(0 -0.00210921 0)
(0 -0.00203857 0)
(0 -0.00205168 0)
(0 -0.00198055 0)
(0 -0.00199533 0)
(0 -0.00206265 0)
(0 -0.00200803 0)
(0 -0.00193961 0)
(0 -0.0019543 0)
(0 -0.00188574 0)
(0 -0.00190051 0)
(0 -0.00183251 0)
(0 -0.00279283 0)
(0 -0.000944459 0)
(0 -0.00269808 0)
(0 -0.0010239 0)
(0 -0.00117959 0)
(0 -0.00164395 0)
(0 -0.00253832 0)
(0 -0.00166019 0)
(0 -0.00159243 0)
(0 -0.0016535 0)
(0 -0.00171655 0)
(0 -0.00177411 0)
(0 -0.0018315 0)
(0 -0.00188856 0)
(0 -0.00148657 0)
(0 -0.00109342 0)
(0 -0.00285615 0)
(0 -0.00191844 0)
(0 -0.00139626 0)
(0 -0.00221959 0)
(0 -0.0015547 0)
(0 -0.00160864 0)
(0 -0.0016751 0)
(0 -0.00101196 0)
(0 -0.0029518 0)
(0 -0.00203672 0)
(0 -0.000740461 0)
(0 -0.000777282 0)
(0 -0.000802393 0)
(0 -0.000839599 0)
(0 -0.00146306 0)
(0 -0.0015142 0)
(0 -0.00157965 0)
(0 -0.00282479 0)
(0 -0.00285749 0)
(0 -0.00285794 0)
(0 -0.00288874 0)
(0 -0.00288733 0)
(0 -0.00291581 0)
(0 -0.00291669 0)
(0 -0.00294118 0)
(0 -0.0029417 0)
(0 -0.00127733 0)
(0 -0.00134413 0)
(0 -0.00138858 0)
(0 -0.00145438 0)
(0 -0.00092162 0)
(0 -0.00257351 0)
(0 -0.00261899 0)
(0 -0.00260842 0)
(0 -0.00265236 0)
(0 -0.00263928 0)
(0 -0.0026811 0)
(0 -0.00234566 0)
(0 -0.00239532 0)
(0 -0.00237913 0)
(0 -0.00242738 0)
(0 -0.00240833 0)
(0 -0.00215674 0)
(0 -0.00220928 0)
(0 -0.00218782 0)
(0 -0.00224128 0)
(0 -0.00117314 0)
(0 -0.00123652 0)
(0 -0.0012756 0)
(0 -0.00133752 0)
(0 -0.0010655 0)
(0 -0.00118039 0)
(0 -0.000926804 0)
(0 -0.000618525 0)
(0 -0.000843575 0)
(0 -0.00112621 0)
(0 -0.00116006 0)
(0 -0.0012213 0)
(0 -0.000984513 0)
(0 -0.00100977 0)
(0 -0.00106809 0)
(0 -0.00108991 0)
(0 -0.00244013 0)
(0 -0.000495736 0)
(0 -0.000825907 0)
(0 -0.000880778 0)
(0 -0.000896455 0)
(0 -0.000952165 0)
(0 -0.00096448 0)
(0 -0.00102134 0)
(0 -0.00103086 0)
(0 -0.000973945 0)
(0 -0.00103671 0)
(0 -0.000980649 0)
(0 -0.00104006 0)
(0 -0.000984376 0)
(0 -0.000764701 0)
(0 -0.00147546 0)
(0 -0.000664873 0)
(0 -0.00123035 0)
(0 -0.00143559 0)
(0 -0.00131982 0)
(0 -0.00122725 0)
(0 -0.000697684 0)
(0 -0.000602459 0)
(0 -0.0015198 0)
(0 -0.00178449 0)
(0 -0.00156737 0)
(0 -0.00162718 0)
(0 -0.00162001 0)
(0 -0.000426246 0)
(0 -0.000390277 0)
(0 -0.000373116 0)
(0 -0.000336407 0)
(0 -0.000320409 0)
(0 -0.000352064 0)
(0 -0.00029742 0)
(0 -0.000311613 0)
(0 -0.00257869 0)
(0 -0.00154666 0)
(0 -0.00251149 0)
(0 -0.00048147 0)
(0 -0.00162545 0)
(0 -0.000611662 0)
(0 -0.00057425 0)
(0 -0.000522649 0)
(0 -0.000482589 0)
(0 -0.000355496 0)
(0 -0.000304008 0)
(0 -0.000337384 0)
(0 -0.000287244 0)
(0 -0.000318871 0)
(0 -0.000270259 0)
(0 -0.000300049 0)
(0 -0.000253061 0)
(0 -0.000280983 0)
(0 -0.000235731 0)
(0 -0.00026172 0)
(0 -0.000218325 0)
(0 -0.000242322 0)
(0 -0.000200914 0)
(0 -0.000222837 0)
(0 -0.000263314 0)
(0 -0.000241717 0)
(0 -0.000203378 0)
(0 -0.000220065 0)
(0 -0.000183989 0)
(0 -0.0001984 0)
(0 -0.000233594 0)
(0 -0.000209602 0)
(0 -0.000244019 0)
(0 -0.000217678 0)
(0 -0.000185687 0)
(0 -0.000191404 0)
(0 -0.000222603 0)
(0 -0.00016194 0)
(0 -0.000193979 0)
(0 -0.000224438 0)
(0 -0.000193452 0)
(0 -0.000223249 0)
(0 -0.000189906 0)
(0 -0.000219096 0)
(0 -0.000162652 0)
(0 -0.000254854 0)
(0 -0.000250082 0)
(0 -0.000212007 0)
(0 -0.000242343 0)
(0 -0.000201979 0)
(0 -0.00023168 0)
(0 -0.000274414 0)
(0 -0.000263189 0)
(0 -0.000218162 0)
(0 -0.000249376 0)
(0 -0.000255522 0)
(0 -0.000270249 0)
(0 -0.000288179 0)
(0 -0.000164691 0)
(0 -0.0012765 0)
(0 -0.000552293 0)
(0 -0.000359141 0)
(0 -0.000530378 0)
(0 -0.00048515 0)
(0 -0.000460567 0)
(0 -0.000417576 0)
(0 -0.000390491 0)
(0 -0.000349403 0)
(0 -0.00198041 0)
(0 -0.00198921 0)
(0 -0.0019322 0)
(0 -0.00193768 0)
(0 -0.00188032 0)
(0 -0.00199505 0)
(0 -0.00194054 0)
(0 -0.00199819 0)
(0 -0.000526739 0)
(0 -0.00100745 0)
(0 -0.00136819 0)
(0 -0.000707823 0)
(0 -0.00066 0)
(0 -0.000604226 0)
(0 -0.00055355 0)
(0 -0.00110908 0)
(0 -0.000306062 0)
(0 -0.00229243 0)
(0 -0.000452951 0)
(0 -0.000783476 0)
(0 -0.000729299 0)
(0 -0.0017607 0)
(0 -0.000857657 0)
(0 -0.000798091 0)
(0 -0.000734842 0)
(0 -0.000673008 0)
(0 -0.00238892 0)
(0 -0.00238727 0)
(0 -0.00233482 0)
(0 -0.00233021 0)
(0 -0.00227656 0)
(0 -0.00207755 0)
(0 -0.000736769 0)
(0 -0.00255493 0)
(0 -0.00194498 0)
(0 -0.00265692 0)
(0 -0.00264667 0)
(0 -0.00260364 0)
(0 -0.00259094 0)
(0 -0.00254623 0)
(0 -0.00253108 0)
(0 -0.00257629 0)
(0 -0.00259563 0)
(0 -0.00262395 0)
(0 -0.000943192 0)
(0 -0.000877187 0)
(0 -0.000808328 0)
(0 -0.000739579 0)
(0 -0.00139636 0)
(0 -0.00282798 0)
(0 -0.00102167 0)
(0 -0.000953844 0)
(0 -0.00283033 0)
(0 -0.00281431 0)
(0 -0.00278529 0)
(0 -0.00276763 0)
(0 -0.0027364 0)
(0 -0.0027167 0)
(0 -0.00274717 0)
(0 -0.00216771 0)
(0 -0.00224783 0)
(0 -0.000438049 0)
(0 -0.000610436 0)
(0 -0.000688466 0)
(0 -0.00303081 0)
(0 -0.00110847 0)
(0 -0.00103232 0)
(0 -0.000960388 0)
(0 -0.000881086 0)
(0 -0.000808827 0)
(0 -0.00187501 0)
(0 -0.00285636 0)
(0 -0.00141283 0)
(0 -0.000627749 0)
(0 -0.00116098 0)
(0 -0.00107976 0)
(0 -0.00222742 0)
(0 -0.000666365 0)
(0 -0.000536439 0)
(0 -0.00302532 0)
(0 -0.0030269 0)
(0 -0.00288387 0)
(0 -0.00285306 0)
(0 -0.00197183 0)
(0 -0.00194902 0)
(0 -0.00201655 0)
(0 -0.00282998 0)
(0 -0.00280283 0)
(0 -0.00280312 0)
(0 -0.00277528 0)
(0 -0.00277263 0)
(0 -0.00132926 0)
(0 -0.00271461 0)
(0 -0.00067054 0)
(0 -0.00061329 0)
(0 -0.000534061 0)
(0 -0.00242797 0)
(0 -0.00228166 0)
(0 -0.00228074 0)
(0 -0.000865821 0)
(0 -0.000903743 0)
(0 -0.00224097 0)
(0 -0.0021945 0)
(0 -0.0021517 0)
(0 -0.00241064 0)
(0 -0.00259125 0)
(0 -0.00256374 0)
(0 -0.000156826 0)
(0 -0.000132219 0)
(0 -0.000794625 0)
(0 -0.000722306 0)
(0 -0.000676473 0)
(0 -0.00255939 0)
(0 -0.000881608 0)
(0 -0.000810938 0)
(0 -0.000738525 0)
(0 -0.00156123 0)
(0 -0.000887949 0)
(0 -0.000397168 0)
(0 -0.00037978 0)
(0 -0.00301912 0)
(0 -0.00301889 0)
(0 -0.003026 0)
(0 -0.001165 0)
(0 -0.00186983 0)
(0 -0.00101223 0)
(0 -0.000928803 0)
(0 -0.000860067 0)
(0 -0.00245398 0)
(0 -0.0022352 0)
(0 -0.000774967 0)
(0 -0.00139016 0)
(0 -0.00131257 0)
(0 -0.00263526 0)
(0 -0.0027282 0)
(0 -0.000774422 0)
(0 -0.000860554 0)
(0 -0.00142169 0)
(0 -0.00220564 0)
(0 -0.001703 0)
(0 -0.00211305 0)
(0 -0.00201442 0)
(0 -0.00201878 0)
(0 -0.000341046 0)
(0 -0.000320972 0)
(0 -0.000284655 0)
(0 -0.00194149 0)
(0 -0.000432886 0)
(0 -0.000472759 0)
(0 -0.0013544 0)
(0 -0.00184432 0)
(0 -0.00196905 0)