/*--------------------------------*- C++ -*----------------------------------*\
| =========                 |                                                 |
| \\      /  F ield         | OpenFOAM: The Open Source CFD Toolbox           |
|  \\    /   O peration     | Version:  v2012                                 |
|   \\  /    A nd           | Website:  www.openfoam.com                      |
|    \\/     M anipulation  |                                                 |
\*---------------------------------------------------------------------------*/
FoamFile
{
    version     2.0;
    format      ascii;
    class       volScalarField;
    location    "500";
    object      ddt0(k);
}
// * * * * * * * * * * * * * * * * * * * * * * * * * * * * * * * * * * * * * //

dimensions      [0 2 -3 0 0 0 0];


internalField   nonuniform List<scalar> 
9793
(
1.84448e-08
0.00386972
-1.77364e-07
0.020482
-2.73365e-07
-9.27363e-06
6.73095e-07
0.000646351
5.04807e-07
0.00344339
-2.72146e-07
-2.78206e-07
5.43963e-07
0.0807997
-6.219e-07
2.79544e-07
-2.57262e-07
8.32149e-07
0.0304898
1.43115e-07
2.29357e-07
-1.20417e-09
0.000128838
0.000959556
0.073062
1.07577e-07
2.61468e-08
2.3705e-07
1.21831e-07
5.18553e-07
0.0167618
1.74371e-05
-7.28387e-07
-5.48947e-08
2.34198e-07
1.5482e-07
9.41665e-07
-2.67436e-07
0.0290408
-1.05883e-07
3.48358e-07
-0.0094571
-0.0164386
-1.30763e-07
1.39113e-07
2.55856e-07
0.00118946
-2.42815e-07
7.19652e-07
6.29047e-07
1.00127e-07
4.32571e-07
2.11129e-08
-2.65167e-07
2.74905e-07
0.025612
7.02241e-07
-8.66597e-07
6.75656e-07
-1.74876e-09
-1.20376e-07
1.57288e-06
-7.99001e-08
1.34351e-06
1.09208e-06
4.83298e-07
0.00599508
-2.24819e-07
9.21755e-07
0.00744717
-9.77009e-08
-9.36354e-08
-0.00662166
3.10957e-05
-0.114649
-2.72377e-07
-3.39392e-07
-0.011382
-2.85851e-07
-8.25381e-09
6.16425e-07
0.0293086
-1.07173e-07
-9.40598e-08
8.92973e-07
1.03939e-05
-2.84248e-07
5.8549e-07
0.0267097
2.55038e-06
0.00905159
-0.000288088
0.000217901
2.89055e-08
-0.0159335
3.2677e-07
-0.119295
-1.82365e-07
1.06078e-07
-2.5996e-07
0.0619056
4.03168e-09
4.84979e-05
9.88635e-08
-0.109634
-0.095005
4.71591e-06
1.47147e-07
-1.95028e-07
-2.18536e-07
-1.50369e-07
0.00256159
-1.34847e-05
0.0038212
-2.86821e-08
-6.16232e-07
2.2866e-07
6.12691e-07
0.0344322
1.33168e-07
-0.0968981
3.22394e-07
-0.0489352
-3.2347e-08
9.25947e-07
2.45443e-07
-4.68912e-08
0.0177255
8.88506e-06
9.14071e-06
7.12637e-07
7.03988e-08
7.19637e-08
-1.96727e-07
1.77418e-07
2.94044e-06
-3.05199e-05
2.78287e-07
-9.49666e-08
-1.08364e-08
0.0202819
9.01418e-08
7.12898e-07
3.72496e-07
-0.00417427
-9.85944e-06
1.29885e-07
-0.110898
1.88474e-07
1.98773e-07
-2.10233e-07
-0.024532
2.92523e-07
6.7675e-08
-8.72579e-08
0.00035488
2.89548e-10
2.49462e-07
3.21964e-05
-1.53344e-07
2.52502e-07
3.32809e-07
2.86369e-07
5.87162e-06
4.83839e-07
-0.00236624
3.12857e-05
3.79353e-07
6.38109e-07
1.21667e-07
3.98115e-07
0.00203063
-0.0124493
0.0110361
5.47171e-07
-9.903e-06
2.16887e-06
4.04943e-07
-1.00068e-07
-1.69322e-07
-0.0880556
0.000622056
7.69423e-07
3.09404e-07
4.62444e-07
3.86276e-07
0.00141017
-0.00262945
0.0381286
0.00014743
2.68275e-07
-0.0086343
3.9791e-06
-1.0278e-07
4.95871e-07
-1.91033e-07
8.42232e-06
9.13205e-07
8.3015e-07
2.13932e-07
8.88065e-08
1.85754e-07
2.30864e-07
5.48124e-07
0.0462503
2.91771e-07
2.76275e-08
3.85336e-07
-2.62836e-08
-1.01314e-05
1.39778e-07
0.0167379
4.8315e-07
0.0160578
-1.95801e-07
2.97421e-06
-3.87393e-07
2.08357e-06
-4.87129e-07
1.05398e-07
-1.66501e-07
1.62501e-07
-1.24463e-05
0.0338365
1.12785e-07
3.40436e-07
2.04867e-09
0.00940074
3.3634e-07
2.42386e-07
0.0493949
4.52482e-06
2.53419e-06
1.28092e-06
1.88796e-06
7.80145e-07
0.0133575
0.00513789
1.1697e-06
6.31353e-08
-0.00608188
6.07606e-08
-2.47656e-07
-5.02022e-07
-2.30445e-06
3.95912e-07
-1.89686e-07
5.80178e-08
2.88253e-07
3.68465e-08
-2.33201e-07
1.71441e-07
0.0371422
2.534e-07
-0.000761874
-4.39889e-07
6.39532e-07
3.2861e-07
0.0299342
8.16579e-08
0.000817715
0.0198286
-3.73032e-07
-2.30641e-07
7.19739e-05
1.2857e-06
-4.21313e-07
1.39949e-06
0.0276613
-2.71138e-06
1.91904e-07
7.52127e-06
-1.0202e-06
-6.21533e-06
-0.0036925
1.58765e-07
0.000163185
6.36416e-07
0.00746881
8.28657e-05
0.0228179
-0.0981904
3.93983e-06
7.82546e-07
-1.28602e-07
6.20863e-07
1.53266e-07
5.34802e-07
-1.8151e-06
1.18888e-07
-1.55583e-07
9.63939e-08
9.10606e-07
4.54739e-07
1.91324e-07
0.000502397
5.21192e-07
-7.19767e-07
1.85717e-07
6.69309e-07
0.0256881
-3.60085e-05
3.65005e-08
-2.71818e-07
3.86755e-07
-3.7296e-07
-5.25938e-06
-0.0114196
8.6216e-08
-0.00398653
1.305e-06
-6.51926e-09
0.00672356
9.29525e-06
-7.41853e-07
1.08647e-07
0.000602613
-2.00183e-08
3.28291e-07
-6.82902e-07
-3.01707e-08
0.00651811
1.8603e-07
-6.02336e-08
2.06211e-07
-2.33822e-07
2.97531e-06
-4.40106e-05
-1.7507e-07
-8.5749e-08
5.8204e-07
0.00129847
0.00734965
-0.00416854
7.85963e-07
4.09398e-07
2.42565e-07
3.62046e-05
-3.57245e-07
9.25856e-07
1.00594e-06
5.73762e-07
-1.88341e-08
2.61726e-07
0.0177908
-6.91565e-07
3.81307e-07
0.0018655
0.00282854
0.0231874
3.94631e-07
0.0606148
2.82332e-07
2.40844e-06
0.00580069
0.0481981
-2.40622e-07
5.80576e-08
-2.87235e-05
0.00608148
0.00746102
-8.17721e-09
4.07296e-07
1.56562e-07
8.135e-07
-3.25452e-07
2.70786e-07
5.83333e-07
-9.17936e-11
0.024162
1.09702e-07
8.16286e-10
-1.10284e-07
0.0134725
9.34344e-07
-1.31092e-07
0.021508
1.15695e-06
0.0587116
-1.55779e-07
7.74358e-07
-1.97908e-07
-2.66954e-08
-2.78703e-05
1.12844e-06
0.0269268
2.60589e-06
9.13519e-07
0.00202614
0.00467196
-1.10264e-06
1.7249e-07
-2.16426e-05
3.94238e-05
5.6482e-07
0.0139492
-1.31101e-06
5.52479e-07
9.35794e-06
1.02211e-06
-9.09433e-07
7.86184e-07
0.000204176
-3.46408e-07
5.34912e-07
0.0121639
-5.18464e-08
2.69586e-06
-1.67061e-07
3.56044e-07
7.07845e-07
-0.0760978
-1.03627e-07
9.82907e-07
-9.91857e-08
2.0276e-07
4.51114e-08
2.80716e-06
-0.00320671
5.41428e-07
-2.30063e-07
2.2707e-05
3.26466e-07
0.0397536
-1.46455e-06
4.50643e-07
-7.35257e-07
4.4468e-07
-1.28072e-06
8.04571e-07
0.0638686
1.90816e-07
0.000139888
1.01803e-07
3.23969e-07
4.13533e-07
-2.68606e-07
0.0341642
-1.98957e-07
-1.35654e-07
-2.36266e-07
3.53912e-05
1.23454e-07
-5.68447e-08
4.49904e-08
1.17815e-06
3.02319e-07
-1.17881e-07
4.69359e-07
-5.88872e-07
-1.96809e-07
5.75834e-07
-2.28607e-07
1.89574e-06
9.44624e-06
7.3621e-08
8.01588e-06
-0.00168778
1.60989e-07
0.000472961
4.10718e-07
5.53519e-07
4.57018e-07
9.67073e-07
-0.00757143
-1.31664e-06
4.91146e-07
-8.92519e-07
6.23149e-07
2.63512e-08
2.2936e-06
-0.0350081
1.13338e-06
9.0136e-08
4.56449e-08
0.00469465
0.020295
-7.5658e-09
-1.86793e-07
0.00175395
-0.000745346
-9.06174e-06
3.42415e-07
-3.60291e-08
0.0459042
8.15375e-07
2.26198e-06
0.0330376
6.71445e-07
-4.06123e-06
1.61735e-08
0.041947
6.60057e-07
0.038586
1.60651e-05
2.27333e-07
0.000279044
6.61039e-07
4.67288e-05
-1.90707e-07
3.31568e-07
-6.2074e-07
6.26759e-07
-0.0529321
3.82332e-07
5.88115e-07
-2.24838e-07
7.90596e-07
-1.15237e-07
1.44936e-07
-4.25309e-07
1.23334e-06
-3.05852e-07
-1.05591e-07
0.0262594
9.71293e-08
-1.21797e-08
-0.00261787
5.17141e-07
-9.55815e-09
-1.83661e-07
7.09072e-07
-0.0110634
6.13793e-07
9.55896e-07
0.0129401
-0.00680661
3.8844e-07
1.22714e-06
-1.97512e-07
3.23633e-07
2.82546e-08
0.00557424
2.1229e-07
1.04713e-05
9.60342e-07
-1.07497e-05
-1.65592e-07
0.0077568
1.66166e-06
4.43219e-06
7.35554e-07
2.68317e-06
0.0307451
-2.87589e-07
0.019814
-5.24151e-07
1.95067e-07
4.28777e-07
-0.0228131
0.0466064
6.40303e-07
-1.39617e-07
7.86156e-07
0.01182
2.29619e-06
2.64606e-07
0.0389615
-2.05076e-07
1.53997e-06
2.70452e-07
8.99041e-08
4.0503e-07
5.67122e-07
1.02477e-06
1.21953e-06
0.0392292
3.59288e-07
-2.34456e-09
1.17116e-06
2.2157e-07
0.000321868
-8.31748e-07
0.00645516
1.28316e-07
3.86028e-06
-2.59508e-07
5.09691e-07
5.81459e-07
6.36018e-07
-1.67688e-07
9.6621e-06
2.34392e-06
-0.00341637
7.12699e-07
1.0086e-07
2.33319e-07
0.000175538
-1.62108e-07
0.0183447
-0.0032306
4.93758e-06
0.0211651
0.00996256
3.09856e-06
2.6258e-07
-1.64601e-05
1.2496e-06
5.75503e-07
2.70266e-06
-5.97048e-08
-6.7268e-07
3.20584e-07
-1.59271e-05
8.93812e-08
0.00243844
-0.00206589
1.25247e-06
-1.38542e-05
2.03321e-07
2.62683e-05
1.81643e-07
8.20968e-07
5.15793e-07
1.92079e-07
-7.24056e-08
0.0504973
1.18369e-05
-0.00136419
-1.41045e-07
-1.86778e-07
0.0415354
-1.0541e-06
-7.27776e-07
-2.43889e-07
-1.02226e-07
2.63015e-05
0.00494551
6.22729e-07
4.69944e-09
-6.71795e-06
-0.0061137
8.22745e-07
2.41401e-07
-0.0320146
3.17743e-07
0.0619073
2.14771e-06
0.0089057
1.60502e-07
-1.32627e-07
2.84214e-07
-2.51457e-07
6.88531e-06
-2.36745e-08
1.19375e-05
-2.32259e-07
9.03051e-07
8.53791e-08
4.46832e-07
4.31483e-07
9.66756e-08
1.51441e-07
2.49844e-07
1.1211e-06
0.0680006
0.0533479
2.17149e-07
2.68791e-05
1.24066e-06
-0.00100337
1.36548e-07
-2.63525e-07
1.59257e-07
8.96997e-06
3.80433e-07
-2.17822e-07
5.1799e-08
6.57277e-07
5.06765e-07
-4.98793e-07
0.0461741
1.15912e-07
1.34603e-05
0.0328613
-1.36798e-07
0.00823253
0.0365623
9.57367e-08
-2.07233e-07
3.78678e-07
2.40877e-07
4.44756e-07
1.24521e-07
0.0300792
-0.023626
1.0146e-07
2.01777e-07
-2.034e-07
2.45534e-07
-4.42522e-07
-2.12667e-07
2.87401e-06
9.16462e-08
-1.13988e-06
-0.000134711
2.41995e-07
1.14592e-07
2.8606e-07
0.00767442
7.78334e-07
1.6263e-06
6.31473e-07
9.35572e-06
8.53105e-07
5.70113e-07
-6.92158e-09
7.1693e-07
2.45397e-07
9.56999e-07
-9.48112e-06
-3.39566e-07
8.85107e-07
-8.79337e-07
4.76027e-07
0.000581265
0.00839067
8.1917e-07
-2.59473e-07
5.45101e-07
0.000102969
-2.50464e-07
5.34399e-05
4.17949e-07
-5.20143e-08
0.00614974
6.86844e-05
1.45668e-07
-3.88475e-07
7.86302e-08
1.90213e-07
1.12652e-07
1.36557e-07
-0.00810364
1.08347e-06
-9.74349e-11
0.00734976
5.25289e-08
2.27297e-05
2.80516e-07
7.00187e-07
0.0181173
1.11072e-06
3.04943e-08
1.09938e-07
1.92633e-07
0.0185725
7.31663e-07
1.01306e-07
5.51068e-07
3.17772e-07
1.25642e-06
1.5229e-07
0.0314711
1.1826e-07
-1.4215e-07
5.81024e-07
2.58871e-07
-1.63606e-07
2.92136e-07
6.34754e-08
-9.75945e-08
-4.91548e-08
-1.97813e-07
0.0440321
0.0199942
3.93694e-07
-0.0144588
2.06079e-07
1.32075e-07
-0.00178032
-2.02448e-05
8.53007e-08
6.01061e-07
-1.15983e-06
1.97983e-08
1.62464e-06
-1.57322e-07
0.0379448
-4.00834e-08
4.14093e-07
-6.18055e-07
-1.75188e-06
-2.11325e-07
2.3679e-06
-4.49803e-07
4.60953e-07
4.19633e-07
1.17887e-07
-2.69121e-08
-3.7942e-07
9.42106e-07
3.73949e-07
1.18457e-07
3.9325e-07
2.83041e-07
5.72513e-07
1.10715e-07
-8.75987e-07
2.47662e-07
0.0710946
4.06533e-08
-3.98274e-07
1.89794e-07
5.62514e-07
0.00349805
-1.01096e-05
8.25764e-07
0.0159127
0.018403
3.90835e-07
2.60729e-07
-1.46872e-07
7.38204e-07
1.62451e-07
-1.18945e-05
6.50916e-07
-7.82105e-08
7.28526e-07
-3.91694e-08
2.28473e-06
9.15893e-07
3.22867e-07
1.08589e-05
1.38255e-07
1.0671e-07
5.45477e-07
-1.98552e-07
-1.73995e-07
2.18447e-06
-7.31948e-09
0.0137258
-6.67191e-07
0.0170997
1.90787e-07
-8.83757e-08
-3.33216e-05
-2.89661e-06
-1.08402e-08
2.18514e-07
2.92456e-07
4.66081e-07
-1.57296e-07
0.0176014
8.17375e-07
1.10793e-06
3.13384e-07
2.74819e-07
-4.14992e-07
0.0130464
-0.00363333
0.0144558
4.74391e-08
0.00621829
1.51939e-07
-0.0116537
-0.0841342
-5.29721e-08
-8.31508e-09
-2.25069e-07
0.000676529
6.81878e-07
-0.0273572
8.81209e-08
-5.53939e-06
-4.44374e-08
-0.000737319
0.0238707
6.1417e-06
7.03436e-08
3.6016e-08
1.4679e-06
-0.00233435
4.48387e-08
-9.65981e-07
-9.30653e-06
2.94947e-07
-0.0790683
0.00519692
-1.54827e-08
9.79972e-08
1.27318e-06
2.01948e-06
-0.00675896
0.00541002
-1.58271e-07
-3.05627e-06
5.94364e-07
-1.88676e-06
-9.60366e-08
0.0575437
0.0555649
9.9171e-07
9.2169e-08
4.73868e-07
9.84331e-07
1.86971e-07
0.0284981
3.77442e-07
-0.0120729
2.56512e-06
9.74502e-07
7.60474e-07
-1.59885e-06
0.000330193
-7.35781e-08
0.0195167
0.0699599
-0.000112958
4.09152e-08
3.02074e-07
-5.62567e-08
2.64084e-07
-2.00523e-07
-0.00071216
3.86512e-05
5.84457e-07
-2.5505e-07
9.48168e-07
-1.63171e-05
-1.58717e-08
2.88027e-07
-1.26999e-07
2.71008e-07
1.03149e-07
3.78188e-07
5.36415e-07
2.04304e-07
6.87348e-07
-0.00266961
-4.1438e-09
1.23221e-06
-2.34529e-06
-3.74002e-07
4.10843e-07
2.50793e-07
7.51016e-08
-6.41393e-09
1.14244e-06
-2.33009e-07
0.0210809
7.34861e-06
-3.53244e-07
-1.39892e-07
2.43352e-07
3.70706e-05
-8.41193e-08
-0.074398
-7.0631e-08
-3.94918e-07
-2.2575e-06
-1.91849e-05
-4.16864e-08
5.56404e-07
1.1296e-08
-0.00246774
0.0350955
5.83252e-06
5.20623e-06
8.67815e-07
-1.96664e-07
-7.9082e-07
0.00533051
3.10346e-08
1.25941e-05
-2.49306e-07
4.2697e-07
3.86927e-07
1.56227e-06
9.95677e-07
4.97495e-07
5.06485e-07
-0.0228887
1.47035e-06
-7.27619e-08
7.54715e-07
6.66163e-07
0.0720903
0.0132918
4.1366e-07
0.0109361
6.59092e-07
4.40282e-07
-1.63774e-07
0.0911198
7.52429e-08
6.50196e-07
0.000186717
2.70786e-07
9.76562e-08
1.69062e-07
-1.20557e-05
-0.00440693
0.0332837
3.58298e-07
1.29482e-07
4.94697e-06
1.55489e-06
6.01718e-05
-9.14255e-07
4.30447e-07
6.10514e-07
-2.93079e-07
-1.15672e-08
1.31069e-06
1.06781e-06
2.05206e-06
-3.90403e-07
6.3707e-07
-5.74654e-08
-4.89377e-07
3.19003e-07
-1.80907e-07
-4.90545e-05
4.75156e-09
-1.3698e-07
1.06395e-07
-6.88418e-08
-3.7924e-07
2.64302e-07
0.0144712
1.97491e-08
3.10695e-07
0.0744565
4.49415e-07
0.0260854
6.03953e-07
0.00546678
3.23245e-07
-4.55435e-08
6.715e-07
-7.95798e-08
-0.000487022
-7.43482e-07
2.55243e-07
2.23562e-06
1.83699e-07
-3.66698e-08
-3.94638e-07
2.08831e-07
0.0184624
-1.16684e-07
1.60333e-07
-5.57648e-06
-5.99862e-07
0.051645
-6.46241e-08
0.000199498
3.72566e-09
2.15489e-07
1.65893e-06
-1.44069e-06
5.87214e-06
-3.38574e-07
0.0711285
-1.90795e-05
1.76073e-07
0.0397777
3.623e-07
2.35904e-07
-3.96382e-08
-1.7715e-07
-1.80553e-07
-1.25125e-07
-0.0279009
2.07722e-07
2.75256e-07
1.35302e-06
-1.97203e-07
0.0279585
8.97123e-06
1.15008e-06
-0.0137655
1.11075e-06
9.22639e-07
5.08604e-07
0.0200468
0.0808846
2.2984e-07
1.2403e-07
9.56834e-07
0.000183783
1.94376e-07
3.64648e-07
8.68949e-07
2.09221e-07
2.01154e-07
0.151571
-2.41087e-07
1.84276e-07
5.8631e-07
1.84892e-07
1.19414e-05
1.51666e-06
1.79716e-06
5.36347e-07
6.11105e-09
0.0407649
0.00377086
-3.60829e-07
-5.11168e-07
-3.60018e-07
-6.53098e-07
0.0380498
0.0226355
6.65546e-06
4.86969e-07
5.18888e-08
-0.0574985
8.83702e-05
-4.41697e-07
-0.0170747
6.02644e-07
2.13782e-07
-0.00480688
3.54735e-07
0.0188464
0.0205441
1.33671e-06
0.0186557
0.130334
-5.91309e-08
-1.69806e-07
-1.54151e-06
0.0510039
-1.44547e-07
0.00959285
7.95565e-08
-9.05469e-10
1.99871e-07
-1.13419e-07
1.72225e-07
-8.4711e-08
1.37456e-06
0.0185671
-4.58425e-06
1.26221e-07
8.63325e-07
7.02156e-07
1.29403e-05
-3.98247e-07
-3.34229e-05
1.06113e-07
-2.32736e-07
2.43551e-07
2.13269e-07
2.81791e-07
5.70322e-08
8.43537e-06
4.34484e-08
6.084e-07
0.00550753
0.0652068
-8.40841e-08
-1.89979e-07
-4.92434e-08
-3.50021e-07
7.72329e-07
0.15459
-2.46348e-05
9.66872e-07
4.78775e-07
-0.033898
0.029539
4.46232e-08
1.48035e-07
-0.102528
-8.38496e-07
1.74197e-07
3.85054e-07
9.81907e-07
2.33663e-07
1.05185e-06
-0.0880592
1.29425e-05
4.69215e-07
-1.41969e-06
2.76502e-07
0.0501036
-0.00013475
0.0471379
-1.0541e-05
-5.46683e-08
-6.23586e-07
1.73421e-07
9.05262e-07
2.7903e-07
7.627e-07
-3.41795e-07
4.55499e-08
0.000656961
-5.00863e-07
0.00278127
1.01137e-07
0.0158192
4.25253e-07
-2.49485e-06
1.18905e-06
-1.20996e-05
5.26922e-06
4.05159e-07
1.11813e-06
-0.0157635
-2.49786e-08
-0.000480644
9.71394e-07
0.0997342
-7.06331e-07
-0.0113922
1.9992e-05
4.0608e-07
5.9276e-08
1.00977e-06
0.0180647
0.00433677
7.35671e-07
1.12677e-06
1.04408e-05
8.91601e-07
-9.14322e-08
-3.15202e-05
1.38821e-06
1.81154e-07
0.000124878
2.85253e-08
1.04103e-06
4.53635e-07
0.000190138
4.43763e-07
2.47016e-07
7.95533e-06
7.06874e-06
4.35045e-07
2.76181e-07
9.50313e-07
8.37629e-07
5.78639e-07
2.57211e-05
-1.20101e-07
4.06983e-07
7.41277e-07
8.91422e-07
0.0449654
3.43908e-07
-0.0173752
0.000275677
0.0257676
-1.648e-07
-5.80202e-08
-1.46785e-07
-1.01838e-07
-1.1791e-07
-3.52173e-07
-0.00208687
-3.20953e-09
2.43012e-05
2.90974e-07
1.46347e-08
1.24352e-07
1.44385e-07
-2.09408e-05
0.0121969
1.18841e-07
0.0382666
7.95182e-07
-0.021409
-2.17752e-06
2.42242e-07
1.63485e-08
7.26043e-07
-2.79614e-09
0.00119728
3.43262e-07
-1.18417e-08
-1.7037e-07
-6.24538e-08
5.79679e-07
-5.28139e-05
0.0353681
-1.81863e-06
-9.08523e-07
-1.28374e-07
-0.0388752
3.73694e-07
4.20996e-08
-5.0595e-07
0.0015844
3.20802e-07
-2.45598e-08
3.79654e-07
1.44828e-06
-2.56863e-07
0.00160737
2.07624e-08
-6.16062e-06
-2.46535e-06
-2.01768e-05
1.83398e-05
5.30001e-07
-2.54252e-08
0.0082157
2.75826e-07
3.08785e-07
-3.11309e-07
4.38599e-09
6.24271e-08
-0.0190345
-1.3033e-07
-2.005e-06
3.81082e-07
-3.44104e-07
-4.57427e-07
9.67049e-06
1.35305e-07
-4.93333e-08
0.000974659
-1.09137e-06
-1.24045e-07
-4.40459e-08
2.95967e-06
0.0440332
9.98419e-06
1.89004e-05
1.12816e-06
3.12408e-07
1.80432e-07
0.0409274
-4.50143e-07
0.130716
2.49278e-07
0.00324407
1.04356e-06
6.36563e-07
3.71617e-07
5.51942e-09
3.09738e-06
-5.4584e-06
0.0496895
0.00115824
-1.82132e-05
2.02197e-07
-3.823e-05
-1.59087e-07
8.70088e-07
-8.92074e-07
2.27902e-07
2.38568e-08
-1.66608e-07
7.07176e-08
2.96801e-07
6.56605e-07
3.48743e-07
4.53331e-08
0.0252336
-0.0781295
2.02898e-06
0.0355981
5.72026e-07
-8.58694e-08
6.23221e-07
-1.23689e-06
6.24202e-07
-3.10932e-09
1.56228e-06
0.000356479
1.93918e-07
2.76641e-06
-4.59626e-07
7.23536e-07
-0.0172013
2.1826e-07
5.87165e-06
6.64669e-07
-2.05349e-07
0.0831653
3.40219e-06
-2.09115e-07
5.58742e-07
2.73753e-06
-0.0117084
-1.39404e-05
-2.51802e-07
7.23275e-07
2.00817e-07
0.000246151
-4.16641e-07
0.0156286
0.00322123
-1.23431e-07
5.49328e-07
9.7711e-07
-3.66925e-06
1.08246e-06
-2.06017e-07
0.0375754
-4.35546e-07
8.52008e-07
5.43222e-06
9.46525e-07
0.0394029
0.0605433
-5.33367e-06
-0.00209025
9.72067e-07
1.64709e-07
-4.52598e-07
1.71665e-07
0.00838699
-1.55825e-07
0.0282107
-2.37839e-07
-0.0217366
-1.80613e-07
1.33827e-07
-2.84291e-08
8.825e-08
5.53144e-08
2.60179e-07
-6.35204e-09
-2.29805e-05
-1.07471e-07
3.97452e-07
-1.31027e-07
0.0162711
-1.88542e-08
9.89752e-07
-2.54428e-07
8.95905e-08
1.60919e-07
3.23993e-07
-5.87091e-07
-7.7399e-08
5.14526e-07
-4.86073e-07
-1.52257e-07
2.10647e-07
-2.07328e-05
0.0133249
-0.0133549
0.0388312
4.15709e-07
8.76461e-07
6.82466e-08
-3.90366e-07
-3.28076e-07
3.81443e-07
1.00574e-05
6.1044e-08
-3.53953e-09
6.49064e-07
-7.27734e-07
4.44766e-07
0.0153264
1.34216e-07
6.52673e-07
-0.0132698
-3.04323e-07
-4.93162e-07
-0.00349236
0.00772004
-5.06791e-08
1.35701e-05
1.20296e-05
-4.62027e-07
1.65456e-07
-1.42801e-07
6.10513e-07
6.09352e-07
2.36512e-06
2.16804e-06
8.75467e-07
6.63604e-07
-1.31951e-07
-0.0012465
1.2323e-06
3.76938e-07
9.91075e-07
4.10961e-08
-0.00417932
-1.91728e-07
4.01121e-07
3.43307e-07
3.24954e-07
-1.90853e-07
-2.80693e-07
-0.00106138
0.0016732
-0.0143816
-1.49943e-06
2.53428e-07
4.48277e-07
0.016114
3.21157e-06
-2.11609e-07
-4.16961e-07
-1.21983e-09
-3.65616e-07
1.01481e-06
0.00383584
2.2341e-07
1.08502e-06
-4.97018e-07
-9.90978e-06
5.55897e-07
1.33699e-06
1.17859e-06
-3.07676e-06
1.40438e-07
0.000154944
4.49276e-07
-6.31278e-09
2.31341e-07
2.6483e-07
-2.91162e-07
2.22739e-07
1.30358e-07
0.00495369
1.62002e-06
-8.15643e-07
-0.0875179
6.90774e-07
0.0395888
1.97252e-07
-2.30741e-07
1.01815e-06
5.55376e-08
6.53233e-07
3.6573e-08
-1.32785e-07
-2.3676e-07
1.04375e-06
1.94697e-05
0.00127372
1.7446e-07
5.37076e-07
2.61579e-06
1.40963e-07
5.92204e-06
4.83869e-06
-2.97196e-07
4.3424e-07
3.38154e-08
7.47239e-07
6.44121e-08
-5.57141e-08
-0.0205527
3.52837e-07
-9.41076e-07
3.07557e-06
-0.0514748
3.57474e-06
0.0436503
5.19586e-07
-1.18279e-07
3.26442e-07
8.06622e-06
2.97663e-07
0.00912394
4.74158e-07
-1.78074e-05
-2.13452e-07
-2.22729e-07
0.0315773
1.37462e-05
2.03954e-07
-2.19489e-07
2.16178e-07
3.68355e-06
8.92443e-07
4.07677e-07
5.63586e-07
5.77675e-07
-3.62991e-07
-8.29765e-06
0.0460671
-3.10519e-07
-3.01891e-08
0.0166582
3.33329e-07
1.37117e-05
0.0273478
0.00494483
0.00361922
-8.54236e-07
6.65391e-07
0.0464761
9.29974e-08
3.43087e-07
-2.04899e-06
-0.00652737
5.08208e-08
2.8826e-07
0.0183633
-4.7701e-06
-2.30198e-06
-0.010707
0.030847
0.0646081
5.75393e-07
1.48409e-06
-2.02803e-07
4.81137e-08
0.034031
3.4627e-08
3.07988e-06
2.52947e-05
1.61703e-07
5.35198e-07
1.29154e-05
5.27797e-07
4.53334e-07
3.97729e-07
1.30059e-07
0.00408754
0.000625361
7.1211e-07
8.47829e-07
2.07666e-06
7.45916e-05
3.88006e-06
0.00146349
5.25943e-07
-4.76131e-07
-4.03884e-08
1.63806e-06
3.90118e-07
9.28299e-08
-7.53484e-08
4.93996e-05
4.52875e-06
-1.05458e-05
4.39348e-07
-3.95067e-07
8.28158e-07
0.0157814
3.84968e-08
7.17873e-07
-9.19083e-07
5.27728e-08
1.17882e-06
0.00511069
-0.00411504
0.0441475
-1.06336e-05
-0.00150076
-1.00156e-07
-1.3435e-07
0.00303611
3.94479e-07
2.24825e-06
0.103701
7.27415e-07
-0.0267475
0.0330002
1.79492e-07
5.07979e-08
2.87198e-06
-1.86327e-07
1.93317e-05
1.94393e-07
-0.00194919
-1.52745e-07
-3.84695e-07
2.82615e-07
1.22206e-05
1.26343e-07
-8.98404e-07
0.0065021
0.0025408
-3.49784e-07
-8.79922e-06
-1.15095e-05
2.44007e-07
2.34716e-06
-0.000937549
3.07498e-07
5.16191e-07
0.0362453
1.60055e-06
2.66864e-07
7.58939e-07
-7.75208e-09
-9.9068e-08
3.16851e-07
-1.79788e-08
0.0570508
2.00886e-06
-0.00418701
0.00719536
0.0414007
2.27678e-07
9.20385e-06
0.0201802
7.9366e-07
5.03927e-06
3.01444e-05
-0.00413122
5.94291e-07
8.5341e-09
-0.0184058
0.000640507
1.00826e-06
1.09053e-06
-1.39063e-07
6.83945e-07
1.13308e-05
-1.77881e-08
0.0340761
0.0753853
0.0361059
0.0433277
7.34167e-07
-6.38315e-08
-4.79846e-08
5.48104e-07
1.89199e-07
1.74961e-08
1.19962e-07
1.3838e-05
0.0388789
-1.43413e-07
1.4552e-07
-1.06697e-06
4.70834e-07
1.71852e-05
8.16368e-08
0.0488809
0.0435837
2.12986e-05
-0.0189709
0.0107689
0.0154931
0.0341791
0.0450556
1.73048e-06
-1.03837e-07
1.0819e-06
9.56032e-07
0.0317082
0.0335559
-4.91365e-07
3.12447e-06
0.00501898
0.0149769
6.41499e-07
0.00776089
-3.15237e-08
-6.82245e-06
0.0805249
3.01634e-05
1.36514e-07
-0.00771261
-2.02506e-05
7.6628e-07
2.28843e-07
-0.021745
-0.0202885
-0.00528317
-0.0130763
-4.3256e-07
0.000266709
0.0430623
3.08354e-07
3.24965e-06
4.46925e-08
3.288e-07
-2.02566e-07
0.0228311
0.0370858
-9.21379e-08
7.35179e-07
-0.0226318
7.81979e-07
0.0448332
8.8717e-07
1.96058e-05
0.0246491
5.01622e-08
-0.00974575
-3.71889e-08
1.45804e-06
6.64676e-07
2.48314e-06
2.47365e-06
3.00248e-07
5.02342e-06
9.58899e-07
0.0627145
1.42956e-06
-0.000687997
0.00453564
0.0192925
6.19811e-08
0.00289289
8.61115e-07
0.0379766
3.6263e-07
-3.76257e-07
0.0101535
-0.000120651
0.0454373
2.06056e-08
6.20861e-08
1.83813e-06
0.00281436
0.00585503
2.42672e-07
-0.00351053
1.25173e-07
1.29707e-07
0.0589558
1.0806e-07
0.0147862
4.30757e-07
1.5055e-06
0.0184809
-0.00923359
0.0491358
-1.28571e-05
0.0435457
0.0425267
0.000129688
-6.29264e-08
0.00359652
1.51676e-07
7.48418e-07
7.20131e-07
3.4156e-07
0.00573791
3.44634e-08
0.0349169
0.0485094
1.905e-06
4.40052e-06
1.82044e-06
0.0389034
-2.61771e-07
-0.00608622
0.00626963
2.45526e-06
3.25574e-07
4.53351e-07
-7.06215e-07
1.37353e-07
2.28316e-06
0.0588137
0.0160921
-9.34205e-06
1.01426e-06
1.11623e-07
-9.38885e-07
4.57564e-07
3.20726e-07
1.73293e-07
0.0259086
1.47629e-06
1.61799e-07
0.0279847
1.42497e-06
-2.13614e-05
0.00113622
0.0181933
-0.000141437
0.042268
0.0137744
0.0423046
-4.70669e-07
-5.77115e-08
1.77427e-07
-3.42875e-06
1.26796e-06
-3.71582e-06
-1.34003e-07
3.36695e-07
3.74985e-07
-3.28346e-06
0.0637183
6.67553e-07
1.72902e-06
-6.83508e-07
0.000180174
7.94176e-08
-8.73683e-07
5.90221e-07
0.047199
1.24391e-06
1.07533e-06
-3.06915e-07
4.71935e-08
9.37902e-08
-6.0216e-07
5.88709e-07
2.42616e-07
-1.66878e-05
2.88941e-07
2.95042e-07
-2.4953e-07
0.0874329
1.60237e-07
-0.0229078
1.93072e-06
0.0174417
4.47966e-08
-2.53502e-08
9.97238e-07
4.05439e-06
1.85136e-06
0.00568258
-0.0128242
2.66799e-08
-6.95998e-09
6.28996e-07
-0.0898289
0.000320972
2.11073e-07
6.89133e-06
0.0479841
1.17358e-07
4.99773e-07
3.15028e-07
-2.98743e-07
-1.33714e-07
0.0677701
-4.26742e-08
7.97047e-07
-0.0063846
-2.53962e-07
4.5547e-08
-1.72329e-05
5.21938e-07
1.21321e-06
1.98203e-07
0.00377802
-6.77642e-08
-2.24632e-07
2.36502e-08
8.77423e-08
2.36719e-07
3.36735e-07
0.0315043
-1.36015e-05
3.41716e-07
5.26827e-08
0.0424802
1.81216e-07
-2.64318e-07
1.5695e-06
0.000171419
-0.00601481
5.03426e-07
-0.0922971
0.000122559
5.83885e-07
0.0244904
5.89353e-05
0.0069429
-0.00127933
2.68925e-07
6.54913e-07
8.53143e-06
7.31265e-08
1.3533e-06
1.98909e-07
7.11718e-07
0.0213405
-6.17714e-07
-0.0216946
8.41907e-08
-1.90817e-06
1.16001e-06
1.94109e-07
8.35251e-07
0.00485024
-0.00171017
-0.00510882
0.0146743
1.64701e-07
1.41884e-06
0.00306009
1.18855e-07
-0.00708124
6.396e-08
-3.95475e-08
0.0272627
2.13174e-06
-1.85208e-07
1.65243e-06
2.67666e-06
-4.05195e-07
0.0477862
0.000170855
1.37302e-07
7.05561e-07
1.04086e-06
-4.34565e-08
0.00507019
1.93246e-07
7.90244e-08
4.11321e-07
4.57211e-07
2.02494e-07
1.02803e-07
0.0680132
7.36421e-08
-4.55481e-07
7.50542e-07
-2.9416e-07
-2.669e-07
4.72472e-08
0.00637345
0.0104932
2.34844e-07
-1.72139e-06
2.14935e-07
7.09114e-07
-2.96226e-06
0.025953
1.69555e-07
0.0528844
0.00233162
-2.23507e-07
2.30214e-07
1.07937e-06
2.44079e-07
2.34701e-07
-0.0120541
-1.0935e-06
1.14383e-07
1.77103e-07
0.0344682
3.85488e-06
3.05616e-07
1.54602e-06
9.59242e-08
6.94327e-07
2.66895e-06
8.10862e-06
4.76144e-07
7.33388e-07
0.0429815
2.96622e-08
9.25732e-08
4.53476e-08
0.0134188
0.00997798
-4.58642e-07
1.15267e-06
1.4611e-06
-5.83165e-06
4.51359e-06
9.17555e-07
-0.00157592
8.2028e-07
8.42877e-07
0.0131797
-6.3686e-07
-3.70072e-07
-4.44588e-07
-6.66391e-06
1.76669e-08
-1.81874e-07
5.798e-06
3.5446e-07
9.95599e-08
0.00784025
-1.38318e-07
1.77846e-06
0.0391824
2.0298e-06
-0.0234303
0.000670877
-1.36421e-07
9.2302e-07
-1.02182e-05
-3.05195e-08
-4.9179e-06
7.91481e-08
0.00348642
-3.04614e-06
5.51188e-07
0.0135954
-0.0253568
4.32559e-08
3.43143e-07
2.48331e-08
1.97801e-06
-0.0111709
-0.00435695
3.26672e-07
9.22348e-08
0.0162827
-3.27961e-07
1.61587e-07
-2.50021e-07
1.12632e-07
0.00985086
-1.41305e-05
3.47884e-07
4.86773e-06
-3.29475e-05
8.70076e-08
-5.19273e-05
1.56485e-07
9.81542e-07
2.53168e-08
1.28369e-07
0.105786
1.18196e-06
1.92333e-06
-0.00627538
0.0290511
2.17379e-07
3.44056e-07
-4.73428e-06
0.0277305
-4.70739e-08
-0.033446
-2.5962e-07
9.63708e-07
-4.08824e-07
-1.50884e-07
-8.26976e-08
1.67358e-07
-5.49072e-07
0.034997
1.43419e-06
2.16198e-07
-4.19826e-07
-0.0935379
3.23511e-07
3.44483e-07
7.29658e-07
-2.05281e-07
5.48263e-08
-1.58161e-07
0.0054601
2.25568e-05
1.84442e-07
9.04936e-08
1.24208e-06
6.85288e-08
-4.92698e-08
0.000825493
0.00535737
6.535e-07
-0.000129266
-4.64141e-07
7.72786e-06
0.0400332
0.00627697
-5.52464e-07
8.79891e-07
-4.24733e-08
0.000772321
-3.39399e-07
-1.1349e-07
0.000362808
-3.39676e-06
2.20616e-07
3.21513e-05
7.32436e-07
1.1144e-07
2.0471e-07
0.0840008
-1.98754e-07
0.0389708
2.29086e-07
0.000979983
-9.72883e-09
2.66921e-06
0.00119676
5.07585e-07
3.76427e-07
-2.05277e-05
3.60479e-07
-9.87303e-06
-0.0225597
-6.86603e-06
-5.82081e-08
1.68213e-06
-1.34084e-07
9.99652e-07
7.08731e-08
-0.0156971
1.63743e-07
1.70387e-07
5.59857e-07
3.07322e-07
-4.84237e-08
0.00851819
-1.31309e-05
2.68909e-07
1.95828e-07
1.07147e-07
-2.60836e-05
0.00447915
3.34576e-06
-1.34096e-07
1.02561e-06
6.08535e-07
0.00147013
-1.39075e-07
7.0566e-08
0.00160336
-4.78524e-08
1.63676e-07
-1.21024e-07
-3.21335e-07
-6.17735e-07
-6.2275e-08
1.90319e-06
2.60886e-06
5.46154e-07
2.01474e-07
0.0427395
0.0753563
1.21047e-05
6.77529e-07
-3.17895e-07
2.03906e-07
9.24711e-08
3.07943e-06
-1.58014e-07
2.19266e-07
-1.08926e-07
-0.0507169
-2.43876e-08
2.45311e-07
0.0074442
1.26418e-05
-0.0040073
-8.45692e-06
4.78454e-07
-1.09512e-07
-8.73362e-08
-3.1812e-07
-2.98682e-07
1.38794e-07
5.48991e-07
5.70859e-08
1.86897e-06
-3.8348e-07
-2.12885e-07
-4.47479e-07
-1.9962e-08
1.80945e-06
2.16099e-07
-4.87924e-07
-5.22265e-07
1.34715e-07
-1.68265e-07
-3.25941e-07
2.84661e-07
-3.01502e-08
-1.77412e-06
4.63244e-07
-3.58313e-07
-3.11321e-07
1.23726e-07
0.0130159
0.018346
0.0348345
0.0492685
9.93304e-05
-1.47745e-05
6.62135e-07
1.30973e-07
-9.86788e-08
-5.43952e-06
4.48535e-07
1.68259e-07
-2.76519e-07
2.13068e-07
4.63323e-07
-4.05946e-07
8.3575e-07
0.012279
2.96171e-06
3.59901e-07
-0.0565976
0.000304044
5.81222e-07
2.08741e-06
4.4912e-07
7.80716e-07
0.000966814
2.67193e-07
1.41828e-07
5.49688e-06
3.16354e-07
9.22829e-07
1.38954e-07
0.0453126
7.94831e-08
-8.79017e-08
-0.00921273
4.59852e-08
0.0165155
6.77176e-08
0.00535817
4.74487e-07
0.037941
3.50613e-07
-4.85415e-08
-1.69671e-05
3.64248e-07
0.0206357
0.0468201
0.0086398
0.00943826
4.9226e-06
1.84678e-06
-1.00346e-06
4.81575e-06
6.98983e-07
1.73089e-07
-2.37376e-08
2.58707e-07
9.61267e-08
5.90839e-07
3.99081e-07
6.48649e-07
5.71673e-05
0.0296987
2.42792e-05
0.0220596
-6.55135e-08
1.13702e-07
-1.00957e-06
-4.41635e-07
-3.73574e-07
-3.06222e-07
1.0755e-06
5.39494e-07
-1.38784e-07
3.18166e-08
1.3844e-06
1.97873e-06
-1.29482e-07
3.70126e-07
-7.73432e-08
5.70532e-08
0.0329889
0.0140113
2.3048e-08
3.59608e-07
4.60742e-07
0.00360445
-0.00588402
-2.15957e-07
-1.45405e-07
3.3847e-07
5.00974e-07
2.26068e-05
-1.60595e-05
0.0076513
2.32011e-07
-4.88023e-05
-2.56469e-07
0.0369993
3.32362e-08
7.60144e-07
2.70248e-07
4.34516e-05
-7.85593e-08
1.96504e-07
6.98798e-07
-2.74262e-09
0.128498
8.07329e-07
-1.67931e-07
1.3568e-07
1.28211e-05
-6.25398e-07
0.0448252
-0.00016781
-7.20812e-08
5.54697e-08
0.00212889
1.28551e-06
-1.88721e-07
-0.205056
0.0288804
0.00223687
-0.000119434
1.42141e-07
-1.06796e-05
4.13429e-07
0.00159217
0.00647686
2.04186e-06
1.23061e-06
2.96127e-07
0.00548604
-1.88189e-07
3.15302e-07
9.11702e-07
-3.60987e-05
1.25142e-06
0.000357744
7.83934e-07
1.6026e-07
6.25087e-08
0.052406
5.17374e-07
1.23174e-07
1.0847e-06
-0.0556204
0.0120134
0.00214303
0.015032
1.20245e-06
-1.32617e-07
-1.46958e-07
1.13089e-05
4.6789e-08
-4.15186e-07
1.71399e-07
-1.4872e-06
2.84687e-05
4.16171e-07
0.00537383
0.0105324
1.70358e-06
1.74482e-07
5.26388e-07
-6.42703e-07
4.12276e-07
-4.84704e-07
-7.48704e-07
5.38117e-07
4.52037e-09
-4.95969e-07
4.3308e-06
-2.86821e-08
-3.47739e-07
0.00667958
1.19072e-06
3.98788e-07
-1.10495e-07
0.0392354
6.61331e-07
2.71293e-06
1.8826e-07
5.72958e-07
1.42569e-05
1.21211e-06
-2.7232e-07
6.73371e-08
1.75422e-07
-2.19238e-07
8.70354e-08
-5.58713e-06
3.41986e-07
4.57755e-07
0.0630778