/*--------------------------------*- C++ -*----------------------------------*\
| =========                 |                                                 |
| \\      /  F ield         | OpenFOAM: The Open Source CFD Toolbox           |
|  \\    /   O peration     | Version:  v2012                                 |
|   \\  /    A nd           | Website:  www.openfoam.com                      |
|    \\/     M anipulation  |                                                 |
\*---------------------------------------------------------------------------*/
FoamFile
{
    version     2.0;
    format      ascii;
    class       volScalarField;
    location    "500";
    object      k_0;
}
// * * * * * * * * * * * * * * * * * * * * * * * * * * * * * * * * * * * * * //

dimensions      [0 2 -2 0 0 0 0];


internalField   nonuniform List<scalar> 
9793
(
0.000148555
0.00543294
0.000147391
0.0738531
0.000149714
0.00018747
0.000167681
0.0986163
0.000147932
0.0166754
0.000149253
0.000149188
0.000147226
0.0974951
0.000146382
0.000155175
0.000167298
0.000147359
0.031923
0.000144499
0.00014491
0.000149939
0.0697494
0.0999966
0.107715
0.000153394
0.000148571
0.000149724
0.00014457
0.000169736
0.0432562
0.000198252
0.000147866
0.000147463
0.000146896
0.000157712
0.000152416
0.000151785
0.0440472
0.000158308
0.000167933
0.00421834
0.0156076
0.000149794
0.000147582
0.000148125
0.0652337
0.000149887
0.000145383
0.000147406
0.000157511
0.000146747
0.000163509
0.000149775
0.000156632
0.0755132
0.000147294
0.000183983
0.000145465
0.000149938
0.000153457
0.000165794
0.000147521
0.0001649
0.000147545
0.000147746
0.0245807
0.000151687
0.000153087
0.0259365
0.000147568
0.000165738
0.0947697
0.000326334
0.0450106
0.00014973
0.000159595
0.00393781
0.0001477
0.000149789
0.00016031
0.0309592
0.000167175
0.000151224
0.000153166
0.00018994
0.000149724
0.000182296
0.0456301
0.000165561
0.0761616
0.000309849
0.000325683
0.000161366
0.0161711
0.000147082
0.0561929
0.000165526
0.000152215
0.000149775
0.0698585
0.0001624
0.000482972
0.000147615
0.0445112
0.034475
0.000311484
0.000146918
0.000147719
0.000149879
0.000149518
0.0721412
0.000393763
0.030203
0.000147493
0.000148686
0.000151671
0.000148176
0.0749126
0.000148027
0.0374555
0.000183813
0.0913376
0.000166888
0.000152472
0.000148071
0.000168408
0.0513067
0.000222363
0.000224466
0.00015138
0.000146356
0.000148348
0.000150351
0.000156357
0.000176988
0.000212399
0.000151752
0.00014981
0.000169749
0.0278986
0.000156729
0.000147345
0.000176179
0.0657848
0.000200458
0.000148082
0.0478213
0.000146336
0.000148035
0.00014833
0.0580774
0.000151617
0.000148524
0.000147347
0.000310187
0.000168247
0.000147475
0.000204782
0.000147258
0.00018033
0.000151617
0.000144978
0.000180179
0.000147352
0.00146701
0.000534654
0.000147957
0.000146929
0.000149407
0.000147378
0.0218245
0.0530326
0.0306027
0.000147168
0.000187141
0.000170636
0.000196036
0.000147608
0.000151642
0.0586448
0.0583878
0.000186806
0.000148073
0.000148351
0.000146876
0.0876753
0.0894686
0.0401584
0.000483542
0.000147518
0.0347675
0.000182932
0.000152351
0.000145563
0.000150235
0.000302241
0.000144788
0.000147323
0.00014931
0.000147644
0.00014489
0.000158821
0.000153531
0.0518569
0.000147423
0.000156275
0.000147976
0.00014836
0.000183941
0.000169091
0.0269874
0.00014508
0.0253774
0.000151256
0.000172627
0.000146491
0.00017665
0.000148745
0.000159917
0.000166368
0.00014493
0.000224745
0.0290606
0.000160749
0.000146957
0.000170454
0.004495
0.000160037
0.00016019
0.0609022
0.000206749
0.000170395
0.000165542
0.000181334
0.000144547
0.0582556
0.0348614
0.000144834
0.000149445
0.00173843
0.000147131
0.000149505
0.000190897
0.000191866
0.000147723
0.000151719
0.000157092
0.000158506
0.000152008
0.00014765
0.00016122
0.0532944
0.000144903
0.0314017
0.00014973
0.000149061
0.000145296
0.0749511
0.00014768
0.000590847
0.0226899
0.000148587
0.000148811
0.000385647
0.00014669
0.000149573
0.000146355
0.0235311
0.000175966
0.000152073
0.000186673
0.000181386
0.000532346
0.0590376
0.000148044
0.0103691
0.000149745
0.00362793
0.000597497
0.0509455
0.0346847
0.000204724
0.00015145
0.00016578
0.000153001
0.000145722
0.000148231
0.000185581
0.000153516
0.000148865
0.000149881
0.00014506
0.00014542
0.000144948
0.061762
0.000146838
0.000146325
0.00014674
0.000147242
0.0360478
0.000207661
0.000161922
0.000149444
0.000176296
0.000147537
0.000282871
0.0503363
0.000147642
0.023621
0.000163136
0.000147544
0.00458929
0.000288497
0.00014792
0.000161629
0.000624176
0.000147913
0.000156495
0.000146321
0.000148169
0.00455499
0.000158937
0.000147529
0.000147968
0.000149248
0.000174073
0.000403637
0.000147427
0.000146875
0.000145785
0.0180492
0.0166673
0.0713866
0.000144548
0.000159484
0.000156777
0.00028909
0.000175613
0.000144463
0.000144833
0.00014579
0.000165747
0.000147582
0.0991959
0.000148482
0.000146155
0.000899981
0.0605038
0.02549
0.000145895
0.0680112
0.000152154
0.00040669
0.0978772
0.0607467
0.000150871
0.000158629
0.000215566
0.0761056
0.0748469
0.000152948
0.000149734
0.000152389
0.000145135
0.000146726
0.000147504
0.000148433
0.000149941
0.100963
0.000149328
0.000167939
0.00015823
0.00207355
0.00014443
0.000151408
0.0566557
0.000186196
0.0660256
0.000174928
0.000146201
0.000150983
0.000147431
0.00020091
0.000144588
0.0254523
0.000171718
0.0001675
0.0650878
0.00325163
0.000148826
0.000146953
0.000240617
0.000200502
0.000147422
0.0955797
0.000148788
0.000149102
0.000500816
0.000145064
0.000183916
0.000144622
0.000591316
0.000148533
0.000147405
0.00278223
0.000165098
0.000180792
0.000152395
0.000148374
0.000146649
0.0853694
0.000165044
0.000144508
0.000149238
0.000157039
0.000156725
0.00018074
0.058659
0.000149245
0.000147438
0.000181161
0.000148421
0.0569112
0.000195961
0.000148287
0.0001479
0.000148159
0.00014868
0.000145662
0.0648321
0.000160261
0.000525771
0.000154495
0.00015018
0.000166651
0.00015152
0.0759046
0.000153006
0.000149769
0.000151745
0.000203909
0.000147429
0.000147293
0.000147578
0.000144618
0.000147704
0.000146467
0.000148133
0.000148969
0.000149513
0.000152904
0.000191096
0.000147216
0.000259105
0.000152681
0.000175778
0.0562084
0.000145796
0.000656575
0.000167643
0.000145659
0.000144613
0.000147357
0.0564198
0.000181212
0.000144582
0.000148738
0.000149256
0.000162621
0.000171629
0.0113312
0.000147644
0.000147371
0.000155777
0.0595595
0.0509856
0.000150555
0.000150369
0.0341203
0.000892338
0.000220863
0.000147972
0.00014625
0.0491464
0.000147128
0.000170613
0.00634004
0.000144434
0.000174061
0.000155071
0.0798649
0.000146634
0.0357205
0.000193873
0.000154573
0.000366393
0.000147113
0.000286316
0.00014854
0.000146922
0.000149449
0.000147472
0.0258864
0.000147033
0.000145387
0.000149367
0.000144617
0.000146255
0.000161351
0.000149494
0.000164187
0.000148063
0.000148095
0.0595153
0.000163231
0.000150486
0.0310371
0.000152299
0.000147971
0.000147707
0.00014565
0.0824766
0.000145301
0.000148322
0.0489985
0.00184345
0.000158681
0.000147284
0.000149886
0.00014747
0.00014958
0.0324443
0.000148013
0.00046279
0.000151924
0.000241019
0.00014973
0.0278049
0.00015029
0.000178655
0.000147182
0.000194695
0.0485424
0.000148606
0.0491775
0.000147065
0.000149404
0.000144847
0.0716987
0.0553885
0.000147395
0.000155933
0.000145221
0.0319845
0.00014642
0.000161522
0.0343209
0.000152066
0.000148013
0.000159585
0.0001496
0.000147629
0.00014592
0.000190141
0.000147497
0.0300668
0.000148196
0.000147644
0.000168528
0.000163947
0.000300277
0.000146227
0.0330197
0.000146912
0.000175628
0.000147245
0.000147815
0.00014708
0.000148181
0.000149772
0.000176415
0.00017065
0.0594699
0.000176016
0.000157016
0.000157103
0.000402132
0.000150847
0.034302
0.011845
0.000180615
0.00630373
0.00176178
0.000174342
0.000147602
0.000433332
0.000168448
0.000147539
0.00019259
0.000149643
0.000185607
0.000157897
0.000201986
0.000153668
0.0606806
0.00774978
0.000166732
0.000199118
0.000149397
0.000205234
0.00014948
0.000147218
0.000147546
0.000150252
0.000164139
0.0572508
0.000179029
0.0684193
0.00015032
0.000150398
0.0816307
0.000182286
0.000149897
0.000172822
0.000148418
0.000472327
0.00146019
0.00014824
0.000162008
0.000176482
0.00678475
0.000147509
0.000152833
0.114672
0.000158149
0.0827562
0.000195238
0.00146125
0.000152887
0.000151079
0.0001471
0.000147321
0.000239294
0.000149886
0.000243926
0.000179797
0.000166732
0.000149707
0.000149447
0.000150602
0.000147096
0.0001466
0.000147137
0.000174673
0.047047
0.11395
0.000149851
0.000202247
0.000147475
0.0123388
0.000171521
0.000159533
0.000156593
0.000191846
0.000145935
0.000148255
0.000158974
0.000147118
0.000147345
0.000170687
0.095893
0.000144883
0.000232476
0.0456424
0.000152268
0.00562236
0.0417407
0.000146585
0.000166973
0.000156127
0.000147475
0.000144838
0.000165739
0.0476234
0.0983049
0.000147481
0.000147928
0.000145239
0.000152196
0.000149527
0.000150972
0.000186406
0.000171606
0.000148926
0.000538095
0.000158884
0.000156538
0.000147171
0.0136449
0.000151135
0.00014722
0.000167101
0.000321417
0.000144524
0.000148179
0.000147482
0.000153716
0.000145901
0.000167018
0.000204838
0.000147945
0.0001906
0.000149487
0.000146986
0.000349667
0.0221402
0.000243405
0.000148379
0.000144597
0.000394906
0.000152573
0.00028573
0.000144373
0.000147091
0.0352
0.000468296
0.000157523
0.000187052
0.000161912
0.000146923
0.000149794
0.000147325
0.0181871
0.000148236
0.000149947
0.078378
0.000153567
0.000195229
0.000156116
0.000147369
0.0264308
0.000149771
0.000147172
0.000147275
0.000155731
0.0691437
0.000149007
0.000147637
0.00014709
0.000146991
0.000147415
0.000147223
0.00922393
0.000156134
0.000149282
0.000148651
0.000156124
0.00016872
0.000155051
0.000154173
0.000149883
0.000145183
0.000150435
0.0562561
0.0342643
0.000149815
0.0866244
0.000149391
0.000152503
0.000304729
0.000304651
0.000146236
0.000149136
0.000178273
0.000170697
0.000147139
0.000149636
0.034139
0.000149768
0.000167561
0.000147863
0.000187696
0.000149627
0.000150137
0.000148781
0.000157078
0.000146884
0.000151612
0.000152735
0.000168987
0.000146805
0.000147771
0.000149634
0.000146883
0.000147506
0.000146798
0.000158488
0.000148669
0.00017309
0.0715908
0.000164497
0.000170933
0.000149293
0.000145919
0.0314875
0.000419265
0.000144769
0.0115743
0.0449368
0.000144639
0.00014761
0.000146876
0.000169928
0.000174364
0.00030812
0.000146751
0.00015255
0.000146778
0.00014826
0.000150063
0.000167053
0.000147408
0.000190165
0.000148532
0.000162102
0.000147036
0.000149858
0.0001472
0.00016828
0.000161744
0.0541509
0.000467193
0.0118826
0.000168949
0.000147108
0.000308658
0.00040268
0.000177507
0.000147152
0.000148463
0.000295452
0.000146818
0.0706123
0.000144623
0.000159191
0.00014769
0.000149783
0.000146319
0.0179484
0.0207576
0.0726034
0.000162934
0.0407644
0.000147511
0.0500962
0.0409692
0.000149785
0.000147572
0.000145771
0.000351091
0.000144416
0.111007
0.000156101
0.000183626
0.000148352
0.00027807
0.0297574
0.00027474
0.000155237
0.000159796
0.000148117
0.0694635
0.000144245
0.000189766
0.000188662
0.000162896
0.0350973
0.0244982
0.00015135
0.000150506
0.000147449
0.00019956
0.101794
0.0295622
0.000145889
0.000392967
0.000154329
0.00019195
0.000166938
0.094768
0.10016
0.000144777
0.000152954
0.000160081
0.0001519
0.000151047
0.0348447
0.000149256
0.0100509
0.00014601
0.000144653
0.000167832
0.000187927
0.000333646
0.000148726
0.0468958
0.018632
0.00024779
0.000153218
0.000149511
0.000148734
0.000149467
0.00014723
0.000263772
0.000275689
0.000147973
0.000147257
0.000161561
0.000274953
0.000153393
0.000147365
0.000187571
0.000147416
0.000149819
0.000144305
0.000178812
0.000148027
0.000153162
0.0605565
0.000168237
0.000150796
0.000462099
0.000167851
0.000147362
0.000149438
0.000161107
0.000149724
0.000147577
0.00014604
0.00889718
0.000264499
0.000148069
0.000162015
0.000157206
0.000202183
0.00014743
0.0478096
0.000146795
0.000145949
0.000193073
0.000201069
0.000173938
0.000147474
0.000147022
0.0605629
0.0543305
0.00018957
0.000316764
0.000148604
0.000150644
0.000147901
0.0285822
0.000151277
0.000284988
0.000149178
0.000147227
0.000150575
0.000145358
0.0001469
0.000162885
0.000146153
0.0521654
0.000146331
0.00014804
0.000144422
0.000153089
0.0699767
0.0730053
0.000175409
0.0523018
0.000147675
0.000157921
0.000150379
0.0464314
0.000145879
0.000144737
0.000511846
0.000157206
0.000156258
0.00014867
0.000219788
0.00927755
0.023001
0.00014785
0.000156757
0.000200391
0.000161349
0.000260334
0.000179068
0.000167921
0.000146082
0.00014896
0.000178189
0.000164032
0.000147719
0.00019993
0.000145831
0.000149152
0.000148122
0.000146129
0.000147124
0.000147756
0.000199427
0.000153232
0.000149407
0.000161284
0.000145903
0.000147331
0.000159796
0.0213576
0.000164088
0.00016619
0.0822317
0.000149521
0.101081
0.000155444
0.0263952
0.000162828
0.000149291
0.000147283
0.000150609
0.0935732
0.000272762
0.000162422
0.000171725
0.000145172
0.000147066
0.000149631
0.000149286
0.0461359
0.000153648
0.00014687
0.000183969
0.000175999
0.0688518
0.00014902
0.000508446
0.000160887
0.000165213
0.000162022
0.000182213
0.00018057
0.000148236
0.095466
0.000209955
0.000158038
0.0256962
0.000168243
0.000147723
0.000149735
0.000147193
0.000149866
0.000153537
0.0173061
0.000170418
0.000146892
0.000192922
0.000147835
0.0367368
0.000415174
0.000147521
0.0409338
0.000146316
0.000145999
0.000146991
0.106743
0.0354867
0.000171815
0.000155581
0.000145295
0.000224308
0.000149497
0.000156996
0.000148507
0.000148041
0.000146704
0.0347887
0.000149284
0.000158668
0.00015529
0.000149359
0.000179925
0.000175316
0.000164003
0.000152647
0.000151175
0.0354441
0.00120799
0.000146251
0.000146128
0.00014623
0.000149004
0.0133093
0.0107805
0.000185656
0.000152926
0.000146178
0.0909909
0.00038123
0.000148083
0.059504
0.000145627
0.000171795
0.010219
0.000145844
0.0424433
0.100329
0.000174995
0.0514768
0.0358947
0.000146724
0.000149042
0.000292604
0.0577941
0.000148801
0.0613241
0.000152426
0.000147118
0.000149812
0.00015012
0.000165347
0.00015289
0.000178676
0.0518985
0.000174207
0.000156685
0.000148394
0.000164221
0.000333566
0.000146051
0.000453105
0.000162936
0.000149421
0.00015193
0.000149576
0.000148002
0.000155826
0.000305138
0.000148499
0.000146251
0.053927
0.0668127
0.000180808
0.000149726
0.000166749
0.000147322
0.000147315
0.034968
0.000816156
0.000147243
0.000144029
0.0455912
0.0400702
0.000163243
0.000148145
0.0498041
0.000149079
0.000147304
0.000150677
0.000147326
0.000145119
0.000144975
0.0365158
0.000234173
0.000153165
0.000228998
0.000169511
0.0574702
0.105434
0.0312548
0.000194735
0.000147396
0.000149562
0.000148047
0.00014776
0.000163688
0.000146943
0.000166356
0.000157347
0.000364129
0.000148138
0.0788626
0.000157243
0.0889559
0.000147273
0.000260514
0.00015984
0.000195725
0.00018994
0.000157193
0.00014495
0.117171
0.000169165
0.000440926
0.000144761
0.0199497
0.000147974
0.0913685
0.000207158
0.000159043
0.000147255
0.000148473
0.0337889
0.0502921
0.000161533
0.000144298
0.000278154
0.000167108
0.000166948
0.00047934
0.000164126
0.000147129
0.000465112
0.000147221
0.000162861
0.000144714
0.00112927
0.000144779
0.00015023
0.000194115
0.00038235
0.000149439
0.000167973
0.000152198
0.000164319
0.000146928
0.000193502
0.000150195
0.000162995
0.000147286
0.000147708
0.0576453
0.000158098
0.0970041
0.00040218
0.0467784
0.000149146
0.000144946
0.000146136
0.00015359
0.000163552
0.000159508
0.057158
0.000150497
0.000252373
0.000159305
0.000149862
0.000147231
0.000180941
0.000202295
0.0328132
0.000147137
0.0751856
0.000146802
0.0742457
0.000261551
0.000169534
0.000147789
0.000145812
0.000162825
0.000407535
0.000151658
0.000149776
0.000150662
0.000167309
0.000149115
0.000250469
0.0342796
0.000457571
0.000148967
0.000154474
0.0206384
0.000149181
0.000161594
0.000146533
0.00021957
0.000157965
0.000147496
0.000159553
0.000171147
0.000146514
0.00114712
0.000147192
0.000183645
0.000176434
0.000202905
0.000179026
0.00014904
0.000148154
0.0456165
0.000147809
0.000159023
0.000182556
0.000150502
0.000144183
0.00718351
0.000151725
0.000180744
0.000149831
0.00016279
0.000148845
0.000183619
0.000152307
0.000152137
0.000876352
0.000221629
0.000148495
0.000149804
0.000171924
0.0273634
0.00028604
0.000204555
0.000159166
0.000147364
0.000146321
0.0378055
0.000148857
0.0538446
0.000169999
0.00277946
0.000148598
0.000145673
0.000146278
0.000164306
0.000175585
0.000396549
0.0608076
0.000268276
0.000200752
0.000144853
0.000329589
0.000149957
0.00018144
0.000149454
0.00016318
0.00016164
0.000147307
0.000144593
0.000179647
0.000145043
0.000160299
0.000163024
0.0308493
0.0642569
0.00016774
0.0407279
0.000145894
0.000144898
0.000148363
0.000171765
0.000162004
0.000163757
0.000172527
0.000389556
0.000158617
0.00017116
0.000146549
0.000148386
0.0505157
0.000146709
0.000178513
0.000143866
0.000146816
0.0897053
0.000180488
0.000146678
0.000169999
0.000187557
0.0246021
0.000634382
0.000152571
0.000184396
0.000173335
0.000399087
0.000147632
0.0683735
0.0661252
0.000150518
0.000154269
0.000144818
0.000184846
0.000145374
0.00014771
0.107482
0.000148198
0.000144473
0.000183764
0.000180205
0.0565033
0.062589
0.000398502
0.0625579
0.000144602
0.000147136
0.000146741
0.000149319
0.010264
0.000147773
0.07743
0.000149972
0.0928566
0.00015134
0.000147977
0.000145413
0.000148224
0.000155665
0.00014709
0.000144121
0.000200721
0.000146484
0.000175352
0.000148615
0.0448852
0.000151336
0.000148392
0.000146511
0.000168976
0.000147136
0.00014603
0.000148493
0.000149387
0.000151679
0.000146735
0.000150523
0.00015562
0.000463596
0.0893094
0.0798571
0.043177
0.000146047
0.000147849
0.000147364
0.000143634
0.000147348
0.000145788
0.000227386
0.000146789
0.000149652
0.000148321
0.0001481
0.00014725
0.0975305
0.000151206
0.000147616
0.0621533
0.000169518
0.000145639
0.0852941
0.0555047
0.000147946
0.000202946
0.00020475
0.000147522
0.000159412
0.00015083
0.00014449
0.000154316
0.000147809
0.000169839
0.000147905
0.000149625
0.000145866
0.0298373
0.000157721
0.000159521
0.000148052
0.000149752
0.0860928
0.000152616
0.000148069
0.0001511
0.000151485
0.000149653
0.000173336
0.029979
0.000345655
0.100969
0.000173815
0.000158023
0.000149709
0.00481713
0.000178715
0.000149512
0.000170979
0.00014995
0.000147039
0.000149616
0.00499423
0.000160126
0.00014779
0.000148093
0.000187264
0.000145754
0.00018662
0.000147346
0.000258971
0.000188159
0.000321791
0.000148401
0.000149935
0.000155832
0.000157602
0.00014834
0.000158269
0.000164658
0.00100855
0.000147562
0.000184148
0.0691052
0.00014448
0.0370059
0.000159143
0.000178792
0.00017242
0.000147231
0.000154673
0.000166729
0.00014544
0.000152802
0.000144388
0.000307034
0.000664043
0.000156557
0.000146534
0.000178518
0.000163363
0.000328637
0.000178783
0.000150533
0.000157599
0.000147483
0.000147254
0.000166362
0.000160656
0.0518669
0.000146452
0.000184114
0.000151501
0.0187053
0.00018209
0.0352292
0.000144822
0.000149515
0.000285589
0.000275085
0.000159028
0.0587195
0.000149094
0.000175158
0.00014719
0.00014678
0.0694487
0.000251645
0.000152285
0.000148535
0.000163655
0.0002903
0.000171904
0.000162653
0.000146087
0.000147896
0.000145678
0.00030784
0.0342822
0.000146057
0.00016978
0.0525222
0.00016997
0.000186135
0.0784084
0.0262608
0.00178266
0.00014622
0.000148802
0.0496117
0.000146981
0.000160159
0.000245485
0.089143
0.000150156
0.000155209
0.0600412
0.00019031
0.00027428
0.106362
0.0428417
0.068899
0.000148655
0.000144948
0.000147755
0.000148712
0.0345759
0.000160889
0.000182004
0.000180706
0.000161356
0.000146962
0.00024449
0.000145468
0.000160143
0.000147257
0.000158529
0.0217491
0.000484309
0.000148338
0.000144766
0.000168329
0.000323281
0.000180659
0.0878502
0.000159226
0.000147618
0.000164015
0.00014384
0.000165138
0.000155838
0.000147173
0.000323355
0.000170182
0.000201259
0.000163991
0.000148265
0.000144512
0.00382445
0.000151959
0.00014493
0.000148895
0.000149686
0.000145427
0.0140496
0.00155068
0.0441964
0.000248557
0.074847
0.000151047
0.000147451
0.00352819
0.000152249
0.000197377
0.0178271
0.000146829
0.116495
0.0373852
0.000166455
0.000156611
0.000195359
0.000150087
0.000267497
0.000159323
0.0675194
0.000146498
0.000149669
0.00015909
0.000517543
0.000177168
0.000162962
0.0579908
0.0014655
0.000162943
0.000186593
0.000404721
0.000151504
0.000182837
0.0413151
0.000158126
0.000162151
0.0469453
0.000162053
0.000158063
0.000148602
0.000164071
0.000166167
0.000164017
0.000148487
0.0688498
0.000169814
0.0662631
0.049146
0.0425052
0.000158667
0.000262297
0.0758458
0.000146677
0.000258262
0.000418096
0.0047202
0.000154629
0.000151082
0.103673
0.000903931
0.000144819
0.000175299
0.000145963
0.000147154
0.000427288
0.000152155
0.0720402
0.0828581
0.0324375
0.0296643
0.000144971
0.000163183
0.000147682
0.000146654
0.000166682
0.000170663
0.000155207
0.000330342
0.0726909
0.000149807
0.000154913
0.00023539
0.000150618
0.000183043
0.000159839
0.0545099
0.0520465
0.000199879
0.0796575
0.038879
0.0776134
0.0512904
0.0429128
0.000160185
0.000152109
0.000168397
0.000168393
0.0577178
0.0184663
0.000148794
0.000151872
0.0791687
0.0755123
0.000152752
0.0651354
0.000147329
0.000199135
0.0570474
0.000400201
0.000147265
0.069323
0.000259865
0.000154042
0.000157388
0.110872
0.108093
0.0684737
0.0132721
0.000147312
0.000781639
0.0721003
0.000158473
0.000177914
0.000166204
0.000145814
0.000154707
0.0674815
0.0235844
0.000151998
0.000149069
0.0960178
0.000164232
0.0422175
0.000167581
0.000289683
0.051979
0.000147759
0.0058704
0.000149891
0.000160292
0.000147661
0.000146434
0.000145588
0.000159379
0.000178597
0.000144055
0.024946
0.00018794
0.000550708
0.0948957
0.0769174
0.000147154
0.0666975
0.000268928
0.0716789
0.000157384
0.000147324
0.00140534
0.000208242
0.0282689
0.000160936
0.000150243
0.000145459
0.000838404
0.0298782
0.000156954
0.0189682
0.000155472
0.000147908
0.0834435
0.000160732
0.0522954
0.000146847
0.000158483
0.0787588
0.0753542
0.0538818
0.000215376
0.0512559
0.0712872
0.000397187
0.000148143
0.0298552
0.000160563
0.000146627
0.000144416
0.000147279
0.0360304
0.000160006
0.0501379
0.0531775
0.000166351
0.000169639
0.000195293
0.0456082
0.000175272
0.103195
0.0635424
0.000241207
0.000165441
0.000145091
0.000256986
0.000161396
0.000205402
0.0796167
0.0212195
0.000259647
0.000148525
0.000151368
0.000159994
0.000148252
0.000147094
0.000155316
0.0503619
0.000157531
0.00015281
0.0885906
0.00018821
0.00020086
0.00354938
0.0533937
0.00020457
0.0333568
0.0654132
0.0484572
0.000162123
0.000159705
0.000147913
0.000236373
0.000172245
0.000188197
0.000161943
0.000161688
0.000143809
0.000184964
0.0082883
0.000154934
0.000144721
0.000149909
0.00033465
0.000146873
0.000147973
0.000165818
0.0700427
0.000157684
0.000161012
0.000172598
0.000155381
0.000176517
0.000146737
0.000147686
0.000161091
0.000194975
0.000148093
0.000157154
0.00017599
0.0191426
0.000147965
0.017458
0.000147037
0.0520089
0.000149995
0.000150138
0.000144448
0.000182152
0.000164231
0.0223723
0.0881632
0.000162566
0.000149006
0.000146776
0.0785691
0.000329211
0.000145929
0.000181452
0.052933
0.00016487
0.00016347
0.000143614
0.000149273
0.000147269
0.0791759
0.000162721
0.000148179
0.0990772
0.000148399
0.000161478
0.000194726
0.000145828
0.00016587
0.000166222
0.0757397
0.00014859
0.000152877
0.000150144
0.000164985
0.000143478
0.000147086
0.00319032
0.000193165
0.000169748
0.000146985
0.0355266
0.000148386
0.000148421
0.000147507
0.000214458
0.101517
0.000150836
0.0524287
0.000305976
0.000165865
0.0708312
0.000363686
0.0740282
0.000732418
0.000174137
0.000181439
0.000186892
0.000163699
0.000147457
0.000155046
0.000159258
0.0974872
0.000148414
0.023368
0.00014768
0.000180838
0.000170062
0.000149554
0.00015374
0.00205705
0.0251155
0.0556969
0.0795469
0.000146414
0.000186467
0.0868014
0.000154607
0.00243911
0.000158469
0.000166165
0.0454788
0.000163113
0.000147756
0.000175168
0.00017853
0.000147232
0.0709235
0.000233815
0.000145614
0.000149568
0.000148702
0.000147873
0.0890909
0.000146755
0.000163666
0.000147986
0.000148041
0.000155898
0.000147428
0.0836441
0.000172033
0.000147891
0.00014497
0.000176824
0.000150173
0.000160682
0.0175535
0.0661536
0.000162849
0.000175006
0.000158432
0.000144731
0.000181325
0.101485
0.00015896
0.0631827
0.00045855
0.000163089
0.000159701
0.000156603
0.000168157
0.000158099
0.105922
0.000148689
0.00014805
0.000145855
0.0233794
0.00122617
0.000157661
0.000203283
0.000146568
0.000155021
0.000194289
0.000190996
0.000147198
0.000163986
0.034327
0.000164381
0.000147755
0.000147299
0.0681649
0.0486391
0.000147368
0.000217234
0.000160342
0.00018644
0.000237154
0.00014676
0.0657288
0.00015867
0.000147997
0.0168942
0.000186425
0.000147245
0.000149007
0.000190389
0.000146112
0.000148089
0.000212497
0.000158686
0.000159345
0.0608958
0.000152909
0.000171389
0.0364294
0.00014676
0.0326999
0.0922201
0.000152761
0.000180066
0.000190562
0.000147611
0.000183842
0.000143898
0.00207493
0.000247619
0.000147822
0.00504164
0.102631
0.000147376
0.000147451
0.00019284
0.000167781
0.0692155
0.0762833
0.000148533
0.000162546
0.0612465
0.000148814
0.000171289
0.000183123
0.000156975
0.0124761
0.000202847
0.000149821
0.000188091
0.000449324
0.000159212
0.000381143
0.000147178
0.000144442
0.000149765
0.000158616
0.0170346
0.000148299
0.000163038
0.0277188
0.0320886
0.00014941
0.000156083
0.000271505
0.0565231
0.000149463
0.0440126
0.00016069
0.000169694
0.000162047
0.000150058
0.000153783
0.000147495
0.000147588
0.00464822
0.000147333
0.00016045
0.000147699
0.0442905
0.000149803
0.000150714
0.000144699
0.00015093
0.000147688
0.000162854
0.0336585
0.000264248
0.000159851
0.000158683
0.00014758
0.000155799
0.000167403
0.000838882
0.0724039
0.00014656
0.000263726
0.000147968
0.000286386
0.0885475
0.0489191
0.000146533
0.000167851
0.000177165
0.0999872
0.00017505
0.000146728
0.000650429
0.000178059
0.00015761
0.000285633
0.000147565
0.000147692
0.000158282
0.0459056
0.000147328
0.00632898
0.000156602
0.000965839
0.000164609
0.000150852
0.00104247
0.000154848
0.000147754
0.000199837
0.000147225
0.000312065
0.00613068
0.000195275
0.00015381
0.000169237
0.000147383
0.000172099
0.00016272
0.00415977
0.000147726
0.000144802
0.00015393
0.000156025
0.000168244
0.0318017
0.000326748
0.000157078
0.000173933
0.000146371
0.000367688
0.00293787
0.000175901
0.000147294
0.000149717
0.000149415
0.00193091
0.000147858
0.000154897
0.00139688
0.000182529
0.000147603
0.000176087
0.000179664
0.000147725
0.000152511
0.000174848
0.000245189
0.000165598
0.000161709
0.0329704
0.0776398
0.0002515
0.000153751
0.000148007
0.000151697
0.000151427
0.000177918
0.000168976
0.000156579
0.000179631
0.098893
0.000150854
0.000147786
0.0602045
0.000178932
0.0622879
0.000202564
0.000153053
0.000150475
0.000150621
0.000146058
0.00014703
0.000167899
0.000144353
0.000149479
0.000148961
0.000149792
0.000150693
0.00014748
0.00015799
0.000165865
0.000147264
0.00014738
0.000148703
0.000149209
0.000148524
0.00017305
0.000148237
0.000150131
0.00023946
0.000145377
0.000150215
0.000148334
0.000156002
0.0615413
0.101396
0.068357
0.0448631
0.000530251
0.000194385
0.000146824
0.000166369
0.000147387
0.00020606
0.000149445
0.000155204
0.000148159
0.000169149
0.000147557
0.000159274
0.000146192
0.0167242
0.000181178
0.000148405
0.0332802
0.000629537
0.000147478
0.000197593
0.0001475
0.000144701
0.0192884
0.000147355
0.000168028
0.000184448
0.000148613
0.000144414
0.000169826
0.0459072
0.000151733
0.000150426
0.077037
0.000147445
0.0240191
0.000167485
0.00205833
0.000145331
0.0762068
0.000147244
0.000147832
0.000194452
0.000170942
0.0280825
0.0561858
0.037992
0.0120973
0.00021861
0.000175219
0.000148155
0.000207389
0.000146997
0.000146485
0.000164808
0.000147129
0.00014771
0.000144771
0.000144909
0.00017754
0.000334652
0.0797164
0.000200548
0.0222349
0.000150591
0.000155187
0.000149236
0.000149326
0.000177258
0.000147415
0.000145288
0.000146427
0.00015077
0.000149794
0.000172723
0.000192371
0.000163988
0.000148656
0.000160796
0.000160933
0.0307583
0.067449
0.000152132
0.00016533
0.000148475
0.00350119
0.10787
0.000147227
0.000147341
0.000151722
0.000149372
0.00025636
0.000194534
0.0830106
0.000147966
0.000340866
0.000147626
0.0588426
0.000167332
0.000146413
0.000155052
0.000304649
0.000153451
0.000155049
0.000159323
0.000171885
0.0385746
0.00014547
0.000147204
0.000154419
0.000224335
0.000146795
0.0470053
0.000364643
0.000147504
0.000143592
0.0249198
0.00018318
0.000147308
0.000614598
0.021387
0.00155423
0.000339277
0.000156959
0.000256835
0.000148346
0.0750996
0.00869901
0.000205931
0.000183039
0.000151049
0.0557602
0.000152374
0.00014682
0.000143793
0.000246122
0.000145045
0.00140582
0.0001485
0.000147778
0.000152118
0.0624154
0.00015091
0.000149504
0.000148356
0.0345442
0.0661252
0.00216591
0.0538
0.000170582
0.000147352
0.000150915
0.00023435
0.000166526
0.000147721
0.000173284
0.000236662
0.00029798
0.000146828
0.0578981
0.0748121
0.000167208
0.000148279
0.000150828
0.000147517
0.000145749
0.000147413
0.000148021
0.000147133
0.000164997
0.000148553
0.000201695
0.000148952
0.000149281
0.0459872
0.000186316
0.000149783
0.000149499
0.0682145
0.000144374
0.000152519
0.000153402
0.000146445
0.000285435
0.000160563
0.000149407
0.000159037
0.000147283
0.000155636
0.000145621
0.000189977
0.000146488
0.000147169
0.00965605
0.000150198
0.000200445
0.000160961
0.000150539
0.000187183
0.000143505
0.000148485
0.000149122
0.105139
0.000151171
0.000147283
0.000289928
0.000147235
0.000144945
0.000146966
0.000229315
0.000156012
0.000205126
0.000156273
0.000155413
0.000159959
0.000150967
0.000154198
0.000159713
0.0513866
0.000148049
0.000155059
0.000146444
0.00017866
0.000190657
0.000147125
0.000157539
0.0237147
0.000154991
0.000144351
0.0974147
0.000153218
0.000164491
0.0744448
0.000157591
0.000147084
0.000156077
0.000147269
0.000151189
0.000147131
0.000150388
0.000153293
0.000147599
0.000148316
0.000155719
0.000147874
0.000174071
0.000146865
0.000150481
0.000147306
0.000158429
0.0785577
0.000147701
0.000146974
0.000165214
0.00014946
0.000147163
0.000236439
0.127421
0.0711501
0.000147841
0.000151749
0.000164269
0.000149606
0.000148772
0.000162057
0.000172144
0.000144331
0.000160673
0.000147608
0.000146976
0.000145859
0.000144258
0.000149292
0.000162924
0.000161784