/*--------------------------------*- C++ -*----------------------------------*\
| =========                 |                                                 |
| \\      /  F ield         | OpenFOAM: The Open Source CFD Toolbox           |
|  \\    /   O peration     | Version:  v2012                                 |
|   \\  /    A nd           | Website:  www.openfoam.com                      |
|    \\/     M anipulation  |                                                 |
\*---------------------------------------------------------------------------*/
FoamFile
{
    version     2.0;
    format      ascii;
    class       surfaceScalarField;
    location    "500";
    object      meshPhi;
}
// * * * * * * * * * * * * * * * * * * * * * * * * * * * * * * * * * * * * * //

dimensions      [0 3 -1 0 0 0 0];
oriented        oriented;


internalField   nonuniform List<scalar> 
14470
(
-0.0129767
0.00408169
0.00890129
-0.00178835
-0.00117802
0.0154656
-0.0153692
-4.72614e-05
-0.000876739
-0.00117075
0.00204748
-0.00313786
0.00336217
-0.00016207
-0.00553557
0.00555228
-1.51868e-05
0.00388493
-0.00768138
0.00379841
-0.000776403
-0.00210734
0.00288377
-0.0144976
0.00245933
0.0120993
0.000452365
0.00456973
-0.00491326
0.00491337
-0.00436778
-0.000102423
-0.0122198
0.012506
0.00563606
-0.00259457
-0.00304191
0.0199528
-0.0143204
-0.00544925
-0.0103708
0.0126779
-0.0022541
-0.00827623
0.00826849
1.62333e-05
0.0152557
-0.00487191
-0.0103623
-0.00316069
0.00265937
0.000501323
0.00577043
-0.0120877
0.00674596
0.0077221
0.00866931
-0.0161562
0.00102109
-0.00102109
-0.000499573
0.00247821
-0.00197864
-0.00252345
0.00174707
0.00364179
0.00199381
0.00253653
-0.0101612
0.00762952
0.0113779
-0.00349689
-0.00777381
-0.00130722
0.00182967
-0.000436163
-0.00452264
0.0106485
-0.00664475
0.0016601
0.00498709
-0.00160316
-0.000662934
0.0022661
0.00539575
-0.00486767
-0.00052735
-0.0135751
0.0134925
0.000175086
0.00265076
0.011035
-0.013588
0.0011382
0.00104317
-0.00137947
-0.00511914
-0.00401118
0.00915138
0.00965965
0.00130576
-0.0109207
0.00126048
0.0068337
-0.00809305
0.00163085
0.00212796
-0.00375885
0.0110382
-0.00771538
-0.00330757
-6.63027e-05
-0.00657557
-0.00273699
-0.00149645
0.00423386
0.000979433
-0.00258061
0.00160121
3.80468e-05
-0.00126484
-0.00171044
-0.0110191
0.0127201
-0.00182585
-0.010448
0.0122535
0.00141015
0.00117059
-0.00258074
-0.000155873
0.000916755
-0.000744139
0.00356469
-0.0133117
0.00986158
0.000846131
0.0144437
0.00667854
-0.0117704
0.0029542
-0.00106667
-0.011323
0.00789306
0.00344253
-0.0025405
0.00240841
0.00962372
-0.00656118
-0.00305973
-0.00312176
0.00224503
0.0127471
0.000302766
-0.0128401
0.000546385
0.00644826
-0.00699046
-0.00845822
0.0121268
0.000916755
-0.00933661
0.00172452
0.0076136
0.0026817
-0.00515815
0.0024768
-0.0145862
0.0147415
-0.000112114
0.0121369
-0.00214709
-0.00996946
0.000670163
-0.00367485
0.00350263
-0.000411072
-0.0140183
-0.00116972
-0.00118631
0.000149612
-0.0102133
0.0100994
0.000864587
0.0100355
-0.0108598
0.00412545
-0.00123458
-0.00289072
-0.0163487
0.00718396
0.00917769
0.000509023
0.00340739
-0.00391651
0.00172691
-0.00309429
0.0013674
-0.00909373
0.00876734
0.000331331
-0.00330972
0.00508364
-0.00177372
-0.00185415
0.0023568
-0.000422457
0.00586806
-0.00711549
0.00124848
-0.00463912
0.00187212
0.0027672
0.0147873
-0.00381787
-0.0109657
0.00245601
-0.00250212
6.84116e-05
0.000391924
0.00547663
-0.00245149
-0.000709186
-0.00733639
-0.000932169
0.010904
-0.00241563
-0.00846973
0.010563
0.00432578
0.000427997
-0.00475289
0.00289202
-0.000422843
0.00940548
-0.00781891
-0.00157111
-0.00204598
0.00367679
-0.00154618
0.00422823
0.00216706
0.000692329
-0.00285939
0.000173322
-0.003092
0.00291894
0.00390712
-0.00373345
-0.00486361
0.00822375
-0.00335243
0.00301858
-0.0020391
0.0153051
-0.00291892
-0.0123204
0.00141606
-0.00472553
0.00731457
-0.000188416
-0.00711997
-0.0111608
0.00196367
0.00922476
-0.000222701
-0.00282927
-0.0020111
-0.00185085
0.00386188
-0.00232473
-0.00898304
-0.00758889
0.00850635
-0.0009154
0.0118105
-0.0135294
-0.00601485
0.00467325
0.00134218
-0.00371479
0.00175538
0.00195953
-0.00842908
-0.000659256
-0.0118925
0.0112453
0.000964213
0.0121881
0.00261682
0.000886424
0.00261883
-0.00252281
4.35506e-05
-0.00259731
0.00209774
-0.000771759
-0.00202781
0.00279957
-0.00184277
-0.000485949
0.00232872
-0.00407804
-0.0122511
0.00304152
-0.0095243
0.00655226
0.00468445
-0.0130934
0.00847094
0.0109277
-0.000202049
-0.0107396
0.000839634
0.00206607
-0.00290571
0.0101071
-0.0120189
0.00190276
-0.00222213
-0.00286231
0.00508491
0.00913212
0.000286716
-0.00498058
0.00458627
0.000394647
0.000971714
0.00744463
-0.00840497
-0.0114108
0.0127689
0.0116048
-0.00151265
-0.00835105
0.00287864
0.00547808
0.00125426
-0.00285742
0.00550144
-0.00783282
0.0023348
0.00850665
-0.00300109
0.0113841
2.42283e-05
-0.0113729
0.0182583
-0.00588748
-0.0121657
-0.0010089
-0.0119627
0.0107863
0.00082455
-0.0115669
0.0117735
-0.0102429
-0.0015046
-0.00237483
-0.00244985
0.00482573
-0.000127969
0.00477143
-0.00464252
0.0106622
-0.0059274
-0.00192741
0.000128921
-0.00785759
0.00295374
0.00490789
-0.003702
0.00269666
0.00100538
0.00778355
0.0169945
-0.00520549
-0.0117759
0.0011072
0.00769813
-0.00879055
0.00110024
0.0015741
-0.00267433
-0.00142235
-0.00221742
0.00364
-0.0120186
0.000453421
-0.00118566
0.00260181
0.00921988
0.00919704
-0.000446873
0.00300168
-0.0120605
0.00921304
0.00275815
-0.00361315
0.000855033
0.000416163
-0.0115452
0.00547026
0.00602383
0.0135707
-0.012736
-0.000827896
0.00301919
-0.00436089
0.00134197
0.000351374
0.00792352
-0.0142285
-0.000323067
0.00112769
0.00426858
0.010579
0.00237047
-0.0129265
-0.00862489
0.000820013
0.0101446
0.00127651
0.0129651
-0.00505919
0.000541818
-0.00272269
0.00218091
-0.00347442
0.0150106
-0.0114498
-0.002018
-0.00262081
-0.00814742
0.00721538
0.000932795
-0.00154137
0.0137297
-0.0121228
0.0110214
-0.0122729
0.00157485
0.000381381
-0.00450569
0.00422722
0.00915557
0.00785665
0.00195219
-0.00304046
0.00108826
-0.00335311
0.00209898
0.00125415
-0.0018927
0.00534497
-0.00345197
0.011517
-0.0114532
-0.00526551
-0.000267942
0.00548675
-0.00241666
-0.00306941
-0.00388602
0.000919243
0.00296681
0.016688
-0.0124986
-0.00415713
0.00259579
0.00859703
-0.0111565
-0.00416839
-0.00184578
0.00251039
0.00179409
0.00734975
-0.0110645
0.00921803
5.62133e-05
0.00992653
-0.00998711
-0.000561242
-0.00351031
-0.00146972
-0.00113514
0.00286205
-0.00170246
-0.00165062
-0.00802255
0.0004353
0.0142463
-0.00301861
-0.0111601
0.00053526
-0.00198295
0.00144768
0.00328411
-0.000546937
-0.00273718
-0.00961626
0.00933558
0.000282921
0.0111215
0.00188041
-0.0128818
0.000945192
-0.0113648
0.010432
0.00245881
0.000291318
-0.00275013
-0.0129566
0.00549445
0.00782409
0.00649749
-0.0113506
0.00638725
-0.00683745
0.000469553
0.00543097
0.0080145
-0.0134376
0.00443562
0.00622383
-0.0105066
-0.00960231
0.00206658
0.00755959
-0.0123847
0.00963751
0.00278227
-0.00106319
0.00318343
-0.00212024
0.0144574
-0.003112
-0.0113537
0.00877949
-0.00976239
0.00100007
-0.0127335
0.0112543
0.00298688
0.0100575
-0.0130266
-0.00440359
0.00325929
0.00114439
-0.00750007
-0.00279787
-0.000904099
0.0110378
-0.0112146
0.000591996
0.00320029
0.000925266
0.00231891
0.00860258
-0.00965849
0.011
-0.0013186
0.0101703
0.00991559
0.00321623
-0.00558995
-0.00661464
0.00971077
-0.00648636
0.00127493
0.00521119
0.00103019
0.00629013
-0.00883976
0.0134648
-0.00249112
-0.0001804
0.0026715
0.00267249
-0.00648364
0.00381232
0.00280207
-0.00765985
-0.0161134
0.00382816
0.0123425
0.00147364
-0.00877914
0.00731614
0.00690883
1.70222e-05
-0.00692617
-0.00544456
0.00560469
-0.000160118
-4.97186e-05
-0.00539482
-0.00198359
-0.00123384
0.00321741
-0.00490446
-0.00246944
0.00737847
0.000903554
-0.0105325
0.00454183
0.00761327
0.000626895
0.00265721
0.000858079
0.0121782
-0.0128673
-0.00177072
-0.00291314
0.00107038
-0.00394019
-0.00863139
-0.00585741
0.00577916
0.000101105
0.00231969
-0.00505619
0.0171427
-0.015081
-0.00202322
0.000765041
0.00192744
0.00133574
0.00533575
-0.00666764
0.000483097
-0.0065805
0.00610144
0.0139031
-0.00633099
0.00895695
0.00924911
-0.000454784
-0.00771612
-0.000150162
0.00787102
0.0106078
-0.0091634
-0.00141408
0.0128756
0.00857197
-0.00491709
-0.00365038
0.00242823
0.000234015
-0.00266225
0.00466239
-0.0133
-0.00288714
-0.00352673
0.00641461
-0.000619449
-0.00193391
-0.00712067
0.000613056
0.00651553
-0.00342999
0.00217022
0.00197584
-0.00228214
0.0121339
-0.000232713
-0.0119203
-0.000707858
0.00372727
0.00302964
-0.00457923
0.00154978
-0.00818584
0.00692709
0.00152712
0.00254349
-0.00910636
0.00448348
-0.0019392
-0.00254397
-0.00134007
-0.001193
0.00403601
-0.00397436
1.80791e-05
0.00130108
0.00119134
-0.00163279
8.10383e-05
0.00294868
-0.00298099
0.00352287
0.00949847
0.000650449
-0.0101455
0.00429615
-0.00233757
-0.00195844
0.00596429
0.000824744
-0.00678493
0.000360405
0.00247703
-0.00208947
-0.000387571
0.0033293
0.0104661
-0.000772072
0.00204038
-0.00126831
-0.00249261
0.000270391
0.0022386
0.00730065
-0.000393108
-0.00073167
0.00196973
-0.00123805
0.00232516
-0.00515436
0.00282911
0.00245148
-0.0074247
0.00252445
-0.0113132
0.0113729
-0.00781579
0.000487111
-0.00123114
-0.0111182
0.00117135
0.0119224
-0.0129498
-0.00850817
0.0133484
-0.00477864
-0.00229175
-0.00211172
-0.00494591
0.00748593
0.00752368
-0.00492989
3.91491e-05
-0.000288691
0.000289775
0.00304053
0.0083208
0.00035236
-0.0021019
0.00250359
0.0135349
0.00283722
-0.0011212
-0.00171603
0.0146393
-0.00390736
-0.0104556
-0.000930427
-0.0138068
0.0149191
-0.00155148
-0.000508833
0.0026937
0.0133403
-0.000370263
-0.00249224
0.00259652
-0.000104276
-0.00357183
0.00214969
0.00566561
-0.00320309
-0.00246281
-0.00161643
-0.00784979
0.00947015
0.00814747
-0.00702655
-0.00156852
0.0085014
-0.00757756
-0.000918824
0.00306392
-0.000305748
0.0118517
-5.52101e-05
-0.00241126
-0.00216778
0.011071
-0.000738273
-0.0103121
-0.0146854
0.0036644
0.000567681
7.63317e-05
-0.0127541
-0.000721857
0.00348379
0.00509277
-0.00117801
-0.00199289
0.0121755
-0.0138817
0.00172782
0.00565489
0.000981418
-0.00663768
-0.0150625
-0.000525071
-0.0110044
0.0115441
-0.000726118
-0.00566203
0.00638687
0.000596948
-0.00665072
0.00605604
-0.011902
0.0146556
0.0110328
8.56629e-05
-0.0111206
0.0087508
-0.0103624
0.00281194
0.0022242
-0.00503564
0.00212641
-3.68547e-05
-0.00208955
0.0116882
0.0038091
-0.000732367
0.0123069
-0.00178393
-0.00936996
0.0112526
0.00239321
-0.000441015
0.00177065
-0.00254272
0.00278294
-0.00347345
0.000690528
0.01185
0.000496474
-0.0121707
-0.00536751
0.00596649
0.00685429
-0.00120096
-0.00378897
0.00217133
0.00161768
-0.00826825
0.00347873
0.00479377
0.000992289
0.011174
-0.0120376
-0.000550679
-0.01197
0.0126508
0.0109077
-0.0125802
-0.00733296
-0.000475335
0.00204509
-0.0138096
0.0117977
-0.00254873
0.000337654
0.00221111
-0.00749199
0.0103709
-0.00280015
-0.0139891
0.0172098
-0.00300474
-0.00653391
0.00176269
0.0047725
0.00135361
0.00148361
0.00152142
0.00167894
-0.00203751
0.00324274
-0.00383564
0.00182452
0.0080798
0.00254317
-0.0106093
-0.00243911
0.000828837
0.00161027
0.00340176
-0.00198952
-0.0014122
0.0011635
-0.00314709
-0.000610254
-0.0095921
0.0102272
0.00554107
0.00550752
-0.00457602
0.00444896
-0.000860967
0.00302802
-0.00190499
-0.00135129
-0.00491122
0.00626083
-0.000775857
0.00208013
-0.00128679
0.000697144
0.00880549
0.002367
0.0107751
-0.0130215
0.0141292
-0.0123641
-0.00140952
0.0136231
-0.0115449
0.0108959
-0.00923983
-0.00152174
0.000246952
-0.000246952
0.000779994
-0.00332869
0.00504597
0.000106107
-0.00648099
0.00637959
0.0102489
-0.00917606
-0.00105712
-0.00159597
-0.00437807
0.00597531
-0.00913032
0.0102313
0.00742099
-0.00982006
-0.00248928
-7.65617e-05
0.00256584
0.00376409
-0.00138875
-0.00237535
0.00432597
0.000674227
-0.00500103
-0.00100206
-0.00726022
-0.0148665
0.00107585
-0.00942181
0.0088344
-0.0017687
-0.0135478
-0.00286593
-0.00171481
0.00458105
-0.00380208
0.0059577
-0.00144707
-0.00199773
0.00351925
0.00375426
-0.00575095
0.00199714
0.00522862
-0.00134223
0.000462211
0.00232074
0.00594333
-0.00667072
0.00646088
-0.00063891
-0.00553495
-0.015672
0.0147248
0.00103267
0.00504967
-0.000277465
-0.00482693
0.00196132
0.0121187
0.00231305
0.00195518
0.0014466
0.000612149
0.00615395
0.00808007
-0.00613404
-0.00193957
-0.00257283
0.00184116
-0.00285197
-0.00796327
0.0065146
0.012874
0.00703253
0.000183919
-0.0101454
0.00271517
-0.0125208
0.00912096
-0.00356618
0.0056566
-0.0020896
0.00380939
-0.00330046
-0.00205827
0.0087694
-0.00669774
-0.00777439
-0.00184079
-0.010151
0.00499374
0.00536474
-0.0138262
0.000366884
0.0135333
0.00186221
0.00272438
-0.00724217
0.00705987
-0.0146116
0.0148775
-2.68473e-05
0.0066865
-0.00659657
-5.28201e-05
0.00514004
0.00448645
-0.00610892
-9.91627e-05
0.00620654
0.00765836
-0.00970221
-0.000739513
0.00231361
0.00670163
-0.00030769
0.0143856
-0.00327335
-0.002346
0.00422458
-0.00187851
-0.0047991
-0.00514996
-0.000289842
0.00271807
-0.00150198
-0.00238399
-0.00979761
0.00984961
0.0129601
-0.000603105
-0.012263
0.00397125
-0.0124231
-0.00723418
0.00510407
-0.0143596
-0.00451608
0.00266521
-0.000881819
0.00100678
0.00347694
-0.00873673
-0.0128333
0.0130739
-0.000173682
-0.00683242
0.00781461
-0.00667971
0.00794104
-0.00104014
0.00310621
-0.00108616
-0.0082469
0.00252833
0.000838912
0.00877721
0.000108127
-0.00367971
-0.00159166
-0.0111137
0.0127189
0.0139846
-0.00339218
0.0126237
-0.00478817
0.00168657
-0.0147373
0.00355832
0.0112887
0.013391
0.00064138
-0.0139143
0.010911
3.50535e-06
0.00559162
-0.00539852
3.8118e-05
0.00140634
0.0101999
-0.0115891
-0.0109875
0.0097874
-0.00443931
0.0057783
0.00151583
-0.00153358
0.000743496
0.00316708
-0.000708271
-0.000432434
-0.00830173
0.00873684
0.00435854
-0.000603936
0.00267297
-0.000195944
0.0124265
-0.0006467
-0.00588452
-0.00230782
-0.00537106
0.0126544
-0.01066
-0.00537927
0.00701209
-0.000999879
0.0145405
-0.0110278
-0.00350179
-0.00239254
0.00619976
-0.00380642
-0.00522181
0.00605024
0.00125612
-0.00883749
0.000562579
0.00835236
-0.000765311
-0.00608003
0.00364575
-0.00532076
0.00167478
0.00279628
0.00269105
-0.00184249
-0.00276786
0.0039302
0.00613726
0.00743059
-0.00113703
0.00741144
-0.00627372
0.00239358
-0.00122299
0.00425867
-0.00193358
-0.00234886
-0.00489143
0.00724175
-0.000412494
-0.0103771
0.0108463
0.00331848
-0.00620485
-0.0045397
0.00252199
-0.00270627
-0.00333325
0.00604246
-0.0102924
0.0141998
-0.00389321
0.0173387
-0.00585766
-0.0112933
0.00211693
-0.00318011
-0.0149347
0.0141999
0.000770434
0.00304363
-0.00545963
-0.00538076
0.00163465
0.00374695
-0.012323
-0.00201217
0.00152961
-0.00451048
0.0088373
-0.00974494
0.000927556
0.00204101
0.00105304
-0.00309407
-0.0139983
0.000250356
-0.00150865
-0.00147197
0.00298062
-0.00240183
0.0045941
-0.00219148
-0.0112684
0.000949768
0.00252505
-0.00446391
0.0136106
0.00174938
-0.00177303
-0.00201588
-0.00161822
0.0102135
-0.00854424
0.0138662
-0.0129696
-0.000810808
2.50249e-05
-0.00440832
0.0137673
-0.012891
0.00267266
0.0105908
-0.0134578
-0.00505275
0.0137379
-0.00854603
0.00167968
0.008683
-0.0103565
0.0130832
-0.0124015
0.0116454
-0.00815977
0.00497137
0.00319239
-0.0158204
0.00629633
0.0095548
0.00894151
-0.00280628
-0.0036943
0.00673417
0.00493999
-0.00748285
-0.000516987
-0.0019723
0.00375129
-0.00493166
0.00118022
0.00733347
-0.00968004
-0.005419
0.000186093
-0.0111387
0.000430099
-0.0128658
0.0124674
0.00082417
-0.0071212
0.0123316
-0.00135169
-0.00212173
-0.0133848
0.00103705
0.000780314
-0.00144155
-0.00142729
-0.000928741
0.00235603
0.0021242
-0.00362036
-0.00789359
0.000181321
0.00126916
-0.000109829
-0.000909375
0.00421104
-0.0150524
0.0109018
0.00376539
-0.00373295
4.01163e-05
0.00309463
0.0033205
0.0122144
-2.14715e-05
0.00686272
-0.00878672
0.0019276
0.000460849
0.00983491
-0.0102526
1.97859e-05
-0.00251092
-8.55972e-05
-0.00237145
-0.00235837
0.00118864
-0.00051354
0.0017627
-0.000373114
0.00482929
-0.00201692
-0.0029921
-0.0090071
0.0120327
0.00339655
0.00576969
-0.00915329
0.00239887
-0.00216486
0.0083865
-0.00994282
0.00211772
-0.00454319
0.00242585
0.0145557
-0.014244
-0.000250993
-0.00036756
0.000523314
2.01855e-05
-0.0133624
-0.00254663
-0.00369363
0.00584408
-0.00215005
0.000139008
0.00304442
0.0093468
-0.000906478
-0.0108225
0.00599187
-0.000612986
0.00271109
0.00144572
-0.00635958
0.00190936
-0.00341799
-0.00154068
0.00837482
0.00192067
-0.00258991
0.00102652
-0.00569807
-0.00141641
0.0012622
0.000290509
-0.00148067
-0.00697157
0.0112339
-0.00012201
-0.0125319
0.0127672
0.00287295
-0.00730786
0.00677712
0.000275731
-0.00676754
-0.00441403
-0.00206917
0.0106441
-0.00546697
0.00186579
0.0113454
-0.0131733
-0.00245832
-0.00586921
0.00834489
-0.00507498
0.00491064
0.000164913
0.00214644
0.00373587
-0.00588101
-0.0147158
0.00108376
0.00120727
-0.00173737
0.00538901
-0.00259222
0.00083589
-0.0134316
0.0126199
-0.0132203
0.000556998
-0.00125824
0.00499078
0.00587443
0.00278514
0.00340774
0.00198159
-0.00993264
0.010866
-0.00228582
0.0044039
-0.00575797
0.000464537
0.00529514
-0.00627964
-0.00158533
0.00786599
0.00903268
-0.00791675
-0.00111167
-0.000895987
-0.00167683
0.0110139
-0.000186386
-0.00194884
0.00504385
0.00277255
-0.00171964
-0.00105289
0.00301235
0.00181733
0.00268346
2.53876e-05
-0.00270873
-0.0017268
-0.00365298
0.0052684
-0.0133894
0.00647416
0.00250491
-0.000378501
-0.00970828
0.00727083
0.00186718
-0.000782634
0.00379527
0.00161747
-0.000296256
0.00200453
-0.00733547
-0.000553
-0.00547023
0.00510684
0.000365548
0.00410219
0.0026661
-0.00677037
-0.000992078
0.00234567
0.00194992
-0.00339599
0.00144609
0.00425331
-0.0101029
-0.00564582
0.000178445
-0.000511303
-0.00535317
-0.00453921
0.00131145
0.0032279
-0.0089189
-0.0114924
0.00852752
0.00212203
0.011527
0.0128085
-0.00164223
-0.011099
0.000276243
-0.00751207
0.0021307
-0.00336454
-0.00444627
0.00210887
-0.00277434
0.000951033
0.00182332
0.0110634
-0.010197
-0.00726318
0.00821734
-0.00112599
0.00316698
-0.00239519
0.00423461
-0.00183948
-0.011228
0.0113253
-2.8777e-05
0.00698564
-4.84795e-05
-0.00693116
-0.00656643
0.00956689
-0.00245887
1.97636e-05
0.00416549
-0.00773015
-0.0100127
0.00407469
0.00159074
0.0021083
-0.00445417
-0.00070268
0.00265262
-0.00299421
-0.000251286
-0.0094597
-0.00417328
0.00207975
0.00209371
-0.00159732
-0.00797987
-0.00487994
0.00137015
0.00809755
-0.00468912
-0.00591296
0.00431841
0.00248552
0.00739653
-0.00987405
0.000837668
0.0164045
-0.0118168
-0.00450164
0.000360727
-0.013088
0.00826239
-0.00177186
-0.00648814
0.000139722
0.000836357
0.0046385
0.00362641
-0.00632882
0.00417367
0.00215687
-0.00115685
0.0050525
-0.00389445
0.000708422
0.000157616
-0.000780534
0.00031795
0.00246032
-0.00272058
0.0138496
-0.00235232
-0.0114382
-0.0117344
0.000594483
0.011219
0.00285819
0.000784948
0.0110027
0.00616265
-0.00634563
0.000589821
-0.00615588
0.00376418
0.000301746
-0.00100928
0.000253356
-0.00563594
0.00392148
9.7362e-05
0.0109268
-0.0108742
0.00184983
0.000922726
-0.00024017
0.0081003
-0.00784256
-0.00614194
0.00622639
-8.39126e-05
0.00074376
-0.00517436
0.00277327
-0.0107837
0.00333933
0.00784697
0.00991399
-0.00678626
0.00108359
-0.00678032
0.00524056
-0.0143317
-0.000642287
0.00843554
-0.00733996
-0.00108848
-0.000830544
-0.00284696
0.00367733
-0.00491786
0.0112607
0.00673738
-0.00480496
0.00332496
0.00147996
0.00830006
0.00233546
0.00163737
-0.00169398
-0.00311108
-0.000456404
0.0139537
-0.00731407
0.00485801
0.00786023
-0.0109559
0.00799094
-0.0141102
0.00099892
-0.00427386
-5.36839e-05
0.00432753
-0.00182948
0.0018415
-0.00315068
0.0013092
0.0106743
-0.012252
-0.000292904
0.0113199
-0.0142328
0.00126994
0.0131958
-0.0118693
0.00229081
0.00963389
-0.0113996
-0.00438925
0.011021
-0.00868468
-0.00177792
-0.0014376
0.00321548
0.00840268
-0.00862399
0.00523991
-0.00191157
-0.00262773
0.00876678
-0.00728332
0.00100529
-0.0132492
-0.000987039
-0.00275735
0.00120498
0.00155237
-0.000719308
-0.0105554
-0.000202855
-0.00470976
0.00523757
0.00311252
-0.00426839
0.00225517
-0.00196386
0.00375859
0.0113395
0.000437215
0.0130241
-0.00119
-0.00356328
-0.00682181
0.0088128
-0.00476055
-0.000189525
0.00495093
-0.000217163
-0.0118477
0.0121062
-0.00329581
0.00617291
0.000499913
-0.0116556
-0.0138883
0.000722263
0.00559518
-0.00344762
0.00261949
0.000692878
-0.00331236
0.00666583
-0.00590809
-0.000755243
-0.00154791
-0.0103472
0.00941102
-0.011432
0.00218726
-0.00413746
0.00638012
-0.00224051
0.00825294
-0.00490597
-0.00126314
0.006171
-0.00271899
0.0149703
-0.0120011
0.000587879
0.0140179
0.00224341
-0.00272936
-0.00115727
0.00154883
0.00666637
-0.00021417
0.000871792
-0.00582097
0.00494898
-0.00130798
0.000782979
-0.00296782
-0.00783769
0.0108611
-0.00204824
-0.000596304
0.00264457
-0.00112327
0.00255605
-0.000288691
0.00221566
-0.00307663
-0.00348432
0.00758445
0.00494963
-0.000623189
-0.00596397
0.00694388
0.0108627
-0.010383
-0.000245195
0.00286471
-0.00188613
-0.000589757
0.0135165
-0.000608993
-0.0128805
0.0111458
-0.0140418
0.00772434
-0.00873599
0.00101749
0.00241829
-0.00224167
-0.000176622
0.000262073
-0.00732084
-0.0119751
0.0117236
-0.00725275
0.0125344
0.0144676
0.0111063
0.00819105
0.0082805
-0.000437015
0.00312056
0.00859808
-0.000868185
0.0115394
-0.0101168
0.00908712
-0.00879907
-0.000144204
0.00204096
-0.00295956
0.00584236
-0.0113116
0.00910302
-0.00607291
1.05715e-05
-0.0133035
-0.000702544
-0.00456719
0.0138335
-0.00923193
0.00245009
-0.00273993
0.00363935
0.00212651
-0.00576685
-0.0110626
-0.00170735
-0.000932828
0.000339068
0.0054942
-0.00732631
0.00981956
-0.00422344
0.00211417
0.00210951
0.00285019
-0.000710228
-0.00213996
0.0171559
-0.00232218
-0.0146866
0.00552981
0.0019013
-0.00287033
0.000969008
-0.00503936
0.00652101
0.00511759
-0.00499613
0.00399754
-0.00695367
0.00254017
-0.00059966
5.9708e-06
0.000646545
-0.00623616
0.00617256
0.000290199
0.000597786
0.00316631
-0.000397257
-0.00348314
-9.03094e-05
-0.000434854
0.00128117
-0.000240092
-0.00854801
0.0096537
-0.00837775
-0.00126534
-0.000442193
-0.011217
-0.00913635
0.00978994
0.00505116
-0.00640404
0.00213051
0.00192567
-0.00405624
0.00711258
0.00771453
-0.00159744
-0.0130195
-0.000965546
0.00120166
-0.0145149
0.00160834
-0.00801795
-0.00116564
0.00923098
0.0113173
-0.0112515
6.2863e-06
0.00695388
0.00902193
0.00431869
-0.00813076
0.00382143
0.00585098
-0.00152605
0.000534723
-0.00786039
0.00569595
0.0027452
0.00618571
0.0108835
-0.00250236
0.00149371
0.00100865
-0.00241675
-0.00402608
0.0064458
-0.0127516
-0.00113347
-0.0079032
0.00345715
0.00444519
-0.00118086
0.00243512
-0.00204834
0.0115983
-0.000150437
-0.000717969
-0.0121838
0.013047
-0.00432402
0.00582169
-0.0014959
0.00684248
-0.00251214
0.00207843
0.0104764
0.0087982
0.00223603
-0.0110043
0.0127405
-0.00973344
-0.00265759
0.00954485
0.001134
-0.000495663
-0.00233748
-0.00301922
0.00535769
-0.0129439
0.0049741
-0.00380145
0.00423023
0.0107468
-0.0102173
-0.000422275
0.000328528
-0.00571474
0.00538756
0.0127828
0.000910955
-0.0134197
-0.0127649
0.00141487
-0.000716889
-0.0118127
0.0125573
-0.00039084
-0.00951709
0.000190229
0.00345521
-0.00277752
0.00135023
0.00812995
-0.00782734
-0.00481632
-0.00308729
-0.00939921
0.000631727
-0.0144422
-0.00280967
0.0019137
0.000477095
-0.000941016
-0.00696889
0.00792235
0.0110692
0.00252561
-0.0135051
0.00748628
0.00187025
-0.0027764
0.000906157
0.0120695
-0.012647
0.00124755
0.012821
-0.000487403
0.0100739
-0.00102779
-0.00902133
0.00557498
0.00791443
-0.0134292
-0.00129495
-0.00105897
0.0022965
0.0118497
-0.00204805
-0.00249464
-0.00330872
0.00126051
0.00273633
-0.000688852
-0.00051906
0.00427015
-0.00118786
-0.0013145
-0.000410047
-0.00416163
0.00606943
-0.00190724
0.00338616
-0.00163067
0.000436884
-0.000417732
2.64439e-05
-0.0119035
0.00275929
-0.0110701
0.0087035
-0.00226879
-0.00364275
0.00099649
-0.0130764
-0.00136043
-0.00179022
0.0062012
-0.00733747
0.00600887
-0.000771898
-0.00523435
0.0155359
-0.0132028
-0.00228335
-0.00205304
0.00423879
-0.0021855
-0.00184525
0.00229001
-0.000444755
0.000868354
-0.00293758
0.00206923
0.00764531
-0.00904628
0.00140827
-0.00948519
0.00884504
0.000654796
-0.000832866
0.00303824
-0.00149765
-0.00211546
0.0133637
-0.00176356
-0.0113479
-0.000707565
0.00285067
-0.00214314
0.002274
0.00327919
0.00462754
0.000423953
-0.00505075
-0.000196801
-0.00296839
0.00316539
0.00295068
-0.00418508
-0.0115409
0.00241196
0.0136936
-0.0109449
-0.00271381
-0.000431598
0.0074934
0.00226653
-0.00927994
0.00702562
-0.0014842
-0.00161007
-0.0017366
-0.00130385
0.00297448
0.00742017
-0.0100365
-0.00230506
6.91703e-05
0.00223589
-0.00136813
-0.00989897
0.00582243
-0.00196334
0.00409372
0.00337762
-0.00420837
-0.00150195
0.00487936
-0.0115085
0.0110783
0.00719941
0.00826236
0.00115677
-0.00939676
-0.0109022
0.0106476
0.00325993
-0.00133704
-0.000450006
0.0061586
-0.00568244
0.00230567
0.00119057
-0.00349615
-0.00178753
0.000251795
0.00214415
0.000263127
-0.0116437
0.00662977
-0.00482572
-0.00180185
8.99373e-05
0.0038881
-0.00615536
-1.0917e-05
0.00932986
-0.00927497
-0.00332942
0.001627
0.00258355
-0.00387322
0.00128979
0.00206528
-0.00484922
0.00278428
-0.00839719
-0.00124234
-0.000132722
0.00143868
-0.0100285
0.010065
-0.00120468
4.01314e-05
0.0144862
-0.0120885
-0.00215787
-0.00562653
0.000722849
-0.00684209
0.00934041
-0.0122038
0.0130623
0.000575884
0.008805
-0.00936059
0.00202028
-0.00273051
-0.010835
0.0095678
0.00129181
0.00113486
-0.0117187
0.0105688
0.00120157
-0.00359678
-0.0149503
0.0146621
-0.00170128
0.000389686
0.0108669
-0.000912802
-0.0109813
-0.0034911
-0.00722347
0.0107563
-0.00209523
0.00210226
-7.02571e-06
0.00558825
0.000431508
-0.00234438
3.93186e-05
0.00462572
-0.00121844
-0.000475272
-0.0120037
0.00100605
0.00993237
-0.00136596
-0.00855238
-7.65691e-05
-0.000702821
0.0113165
-0.0104767
0.0138322
0.00138048
-0.0150445
0.00187824
0.00161924
-0.00349737
-0.00845929
0.000886388
-0.0103973
0.0102154
0.00762037
-0.00640412
0.00520177
-0.00168799
-0.00285101
-0.015154
0.0110933
0.00316921
-0.00603095
-0.0127515
0.00964409
-0.00633587
0.0031308
-0.00350977
0.000378961
-0.00588882
0.000159464
0.00573108
0.00598846
-0.0112274
0.0133751
0.0126179
-0.0123586
-0.000122537
0.0020147
-0.00275421
0.0013898
0.00277866
-0.00416849
-0.00329312
-0.00234231
-0.00134859
0.00217743
0.00914033
0.000103411
0.00234539
0.0105378
0.0029549
0.0105879
0.000152201
0.00209121
0.000929918
-0.0100615
-0.0042752
-0.00200046
0.00627712
-0.00071114
0.00946537
0.00310017
-0.0145873
0.0115616
0.0107765
-0.00215048
0.00286233
6.08606e-05
-0.00324147
-0.00877131
-0.00517576
0.00550559
-0.00221054
-0.0124511
0.00203858
-0.000963801
0.00293847
0.00122727
0.00749784
0.0076545
0.00932588
0.00378688
-0.00311324
0.00142251
0.00131383
-0.00118924
-0.00758587
-0.00274038
0.00120199
0.0015384
-0.010318
-0.00094269
0.0114128
-0.00865938
0.00132706
0.00936164
-0.00972306
-0.00316512
-0.00171418
-0.00160851
0.0136523
0.00100195
0.00750967
0.00061952
-0.00812644
0.00597582
0.00113269
0.00621748
-0.00734826
0.00148897
-0.00670489
0.00400157
-0.0021419
0.00446205
0.00409146
-0.00352107
-0.000570342
0.00288094
-0.0131554
0.000308865
-0.00396303
0.00365411
0.00245492
-0.00263535
0.0106697
-0.00958754
-0.00106071
-0.00124408
-0.00311648
-0.0053391
-0.000987438
-0.0131302
0.0153398
-0.00208703
-0.00976019
0.00905286
0.0072194
-0.000446903
0.00127971
-0.0114701
0.00804724
0.0105527
0.0073057
0.0114276
-0.0109695
-0.00127011
-0.0132666
0.0147012
-0.0144177
0.0112011
0.00322609
-0.0115522
-0.00322782
0.00144986
-0.00181484
0.0106358
-0.010545
-0.000180049
0.0107718
-0.00467135
-0.0136937
0.00259303
0.0113076
-0.013228
0.0129279
0.000314417
0.00770509
0.000642666
-0.00834107
0.00275379
-0.00472466
0.00197114
0.000595005
-0.00486884
-0.00641522
0.000181922
-0.00558258
0.00206482
-0.00169361
0.00207287
-0.00317772
0.00110489
0.00622291
0.00347588
-0.00969136
-0.00165293
-0.00116803
0.00282096
0.00741528
-0.00361858
-0.00379491
0.000578456
0.00611545
-0.00181107
0.0101897
-0.0113402
0.00119136
0.00156638
0.00164802
-0.00321436
0.00260084
-0.000730595
0.00710054
-0.00212551
-0.00305932
-0.0141967
0.00113518
0.0129952
-0.0135087
0.000570513
0.00313777
-0.00620795
-0.00155024
0.00235603
-0.000805787
0.00146161
0.00850664
-0.00994509
-0.0129809
-0.000809429
0.000745635
0.00364266
-0.0017414
0.00539873
-0.00332563
-0.00207279
-0.0108901
0.000393205
0.0079466
-0.0044187
0.0052903
-0.00186028
0.00773063
-0.00586021
0.00926216
0.00142652
0.0022581
-0.0029657
0.00175508
-0.00504768
-0.00502212
0.0163548
-0.0112827
-0.00458074
0.00307856
0.00480083
0.000308009
0.00705956
-0.00240903
-0.00465125
0.00128862
0.00280291
-0.00194166
0.0105942
-0.000279589
-5.6335e-05
0.0128301
-0.00254723
0.00591891
-0.00419339
0.00312693
-0.0022434
-0.000883525
-0.00950612
0.00447523
-0.00115157
0.00295202
0.000309263
-0.00437948
0.00407091
-0.00075949
-0.0080199
0.00901258
-0.000494318
-0.00199792
0.00179223
0.000166958
-0.00195918
0.0103532
-0.00016678
0.00226577
0.00319837
-0.00117992
-0.0152225
0.00221042
0.0117162
-0.000325522
-0.00202656
0.00417584
-0.0021495
0.0032276
-0.000643962
-1.68128e-05
0.00598814
0.00142338
-0.00205331
0.0129376
-0.00294077
-0.00190803
-0.000274543
2.42202e-05
-0.00253714
0.00982846
-0.00728119
-0.00898932
-0.00213072
0.0102218
-0.00808846
0.00124341
-0.0141246
-0.00366645
-0.00215409
0.00582125
0.00175356
0.0098015
0.00242012
0.00463886
-0.00304936
0.00927939
-0.00333977
0.00322143
0.000234337
-0.00531293
0.00120745
0.00410681
-0.000687705
0.0103113
-0.00222186
-0.00131352
0.0031923
-0.00128293
0.00592922
0.0034967
0.00983163
-0.0132202
-0.0147399
0.013638
-0.00578578
0.00936056
-0.0149596
0.00481164
0.0101745
-0.00235561
0.000501012
0.0018546
0.00342086
-0.00154251
-0.0046187
-0.000133293
0.0071398
0.0031815
0.0115382
0.00264988
-0.00404659
0.00139686
-0.00607773
0.00194196
0.00318379
-0.0135313
-0.00330243
0.00178828
0.00151418
0.00173056
0.010009
-0.0115425
-0.00560739
-0.000729461
0.00633935
0.00205808
0.00106886
-0.00153244
-0.0115271
0.0132796
0.000492232
-0.00233748
0.0028529
-0.00468452
-0.000627058
0.00128516
-0.00246602
0.00214679
-0.00581268
0.0103275
0.001706
-0.0119637
-0.00957719
0.0113456
0.00172792
-0.0030765
-0.00115906