/*--------------------------------*- C++ -*----------------------------------*\
| =========                 |                                                 |
| \\      /  F ield         | OpenFOAM: The Open Source CFD Toolbox           |
|  \\    /   O peration     | Version:  v2012                                 |
|   \\  /    A nd           | Website:  www.openfoam.com                      |
|    \\/     M anipulation  |                                                 |
\*---------------------------------------------------------------------------*/
FoamFile
{
    version     2.0;
    format      ascii;
    class       surfaceVectorField;
    location    "500";
    object      Uf_0;
}
// * * * * * * * * * * * * * * * * * * * * * * * * * * * * * * * * * * * * * //

dimensions      [0 1 -1 0 0 0 0];


internalField   nonuniform List<vector> 
14470
(
(0.971037 -0.0215675 -7.45415e-21)
(0.969366 -0.0216364 4.48978e-22)
(0.97022 -0.0198634 1.66169e-20)
(-0.191331 0.0494117 -2.17611e-20)
(-0.183833 0.0504258 -2.01606e-20)
(0.994816 -0.00972204 -1.81633e-21)
(0.995192 -0.0100031 4.42898e-21)
(0.994713 -0.0103393 9.68092e-21)
(-0.179267 -0.176362 -5.5873e-20)
(-0.152672 -0.159333 -4.55234e-20)
(-0.159091 -0.131492 4.61985e-21)
(0.999966 -0.000664734 -3.37816e-21)
(0.999959 -0.00065385 3.55576e-21)
(0.999937 -0.00100245 1.47111e-21)
(1.26352 0.0189729 -2.02405e-21)
(1.26753 0.017379 -6.60057e-20)
(1.26342 0.0148259 -2.29204e-20)
(1.19229 -0.216478 -1.27384e-20)
(1.19578 -0.202394 8.37847e-21)
(1.21068 -0.210694 9.03314e-21)
(0.0331644 0.162094 -4.44484e-21)
(0.060752 0.166684 3.538e-20)
(-0.0453278 0.156258 1.40622e-20)
(1.02724 -0.0252764 2.60559e-22)
(1.02877 -0.0257098 1.68112e-22)
(1.02753 -0.0269546 5.39555e-23)
(1.00016 -0.00265281 3.08272e-21)
(1.00012 -0.00246926 3.29141e-21)
(1.00013 -0.00243559 -2.40944e-22)
(1.00015 -0.00285385 -5.03221e-22)
(1.00019 -0.0028459 3.77557e-22)
(1.00387 -0.00902354 -3.59717e-21)
(1.00368 -0.0086617 -1.52511e-21)
(1.00356 -0.00900637 1.03679e-21)
(-0.488541 -0.566033 2.86974e-20)
(-0.537667 -0.581064 -8.10571e-21)
(-0.552255 -0.566301 3.40039e-20)
(1.021 -0.013577 -8.08382e-22)
(1.02025 -0.0129654 -1.1774e-22)
(1.02122 -0.0126773 -2.77861e-23)
(1.03895 0.0352473 3.89682e-21)
(1.03951 0.0378996 2.49751e-21)
(1.03652 0.0366905 -1.42449e-21)
(1.16951 -0.0123469 2.19774e-20)
(1.17726 -0.0135046 -1.77451e-20)
(1.17312 -0.0202426 2.19328e-20)
(0.997125 -0.0111524 8.77109e-21)
(0.997205 -0.0115221 7.3352e-21)
(0.997525 -0.011172 1.66741e-21)
(0.0792527 -0.604091 -1.86952e-20)
(0.0604763 -0.61545 0)
(0.0612674 -0.612472 -3.10741e-20)
(1.01283 -0.00158615 -2.41718e-22)
(1.01266 -0.00142043 8.90052e-22)
(1.01294 -0.00142216 4.66987e-22)
(1.01774 -0.00264686 7.63661e-23)
(1.01802 -0.00226172 4.32587e-23)
(1.01741 -0.00233426 -9.16379e-23)
(0.999987 -0.000177006 -5.49579e-23)
(0.999993 -0.000186931 -3.71709e-21)
(-0.141122 0.0248526 4.61102e-20)
(-0.115112 0.0760769 -6.28949e-20)
(-0.118141 0.0435483 5.29449e-20)
(0.094152 0.161633 -6.04396e-20)
(-0.0204671 0.157982 -4.3687e-20)
(-0.414054 -0.553532 -2.43914e-20)
(-0.441594 -0.549794 -4.71473e-20)
(0.937459 -0.0690173 2.40979e-20)
(0.942006 -0.0670704 5.27215e-21)
(0.937428 -0.0633011 1.98878e-20)
(1.00047 -0.00530544 -2.64518e-21)
(1.00059 -0.00554167 -2.50086e-21)
(1.00052 -0.00511283 0)
(1.00002 -0.000414497 1.79864e-22)
(1.00002 -0.000485266 -8.40661e-21)
(1.00006 -0.000629509 -4.76647e-21)
(1.01274 -0.00171241 3.12271e-22)
(1.013 -0.00172611 -6.03586e-22)
(1.21523 -0.0887929 3.76973e-20)
(1.22318 -0.0845942 -1.20496e-20)
(1.22395 -0.0952169 1.42951e-20)
(-0.587413 0.0718252 5.41019e-20)
(-0.601456 0.0682706 0)
(-0.676537 0.0620827 1.0993e-19)
(1.26835 0.011656 1.66503e-20)
(1.2694 0.00871778 -6.53386e-21)
(1.27164 0.0107087 2.67747e-20)
(0.997982 -0.00693098 -3.07141e-21)
(0.997805 -0.00676325 7.22496e-21)
(0.997739 -0.00701298 4.07063e-21)
(0.999588 -0.0103759 -2.82435e-21)
(0.999489 -0.0108349 -2.43306e-21)
(0.99982 -0.0107339 0)
(1.00539 -0.000485243 -1.84743e-21)
(1.00517 -0.000493774 -1.91771e-21)
(1.00507 -0.000282255 -4.11919e-21)
(1.08529 0.0149644 4.35928e-21)
(1.08509 0.0114403 3.76175e-21)
(1.08845 0.0142024 -1.29988e-21)
(1.04005 0.0264836 -5.07725e-21)
(1.04107 0.0244894 4.33996e-21)
(1.03886 0.0242569 3.91221e-21)
(0.926412 -0.00951473 -1.43335e-20)
(0.923063 -0.00842846 1.90087e-21)
(0.923983 -0.0129081 -3.68506e-20)
(-0.215761 -0.623033 -5.02736e-20)
(-0.246913 -0.646195 -2.20971e-20)
(-0.159606 -0.628718 -3.00511e-20)
(1.10475 -0.0398943 7.62549e-21)
(1.09957 -0.0388104 -3.93198e-21)
(1.10299 -0.0344143 -4.6311e-21)
(1.20605 -0.09502 2.21754e-20)
(1.20525 -0.0843545 2.2822e-20)
(1.27126 -0.0660394 0)
(1.25872 -0.0568686 1.65402e-20)
(1.18326 -0.0664622 0)
(-0.211181 -0.256676 8.27764e-22)
(-0.202188 -0.106143 -1.17734e-20)
(-0.249557 -0.0526322 -1.23193e-20)
(1.00001 -0.000248113 4.84241e-21)
(1.00002 -0.000387286 5.89072e-21)
(0.993973 -0.00476262 -3.44311e-21)
(0.993643 -0.00508289 7.06984e-21)
(0.993586 -0.00460249 -5.09177e-21)
(0.997184 -0.0045998 -3.38724e-21)
(0.997426 -0.00474392 -1.92929e-21)
(0.997338 -0.00447707 -5.1567e-21)
(-0.297279 0.137494 -2.567e-20)
(-0.314432 0.125917 8.10219e-21)
(-0.260697 0.151063 -2.44512e-20)
(1 -0.000482061 1.01519e-20)
(1.00001 -0.000216969 3.40362e-22)
(1.00002 -0.00020308 3.376e-21)
(1.02138 0.00153892 7.16016e-22)
(1.02077 0.00164463 7.29486e-22)
(1.02142 0.00206301 -2.02802e-22)
(0.997052 -0.0106092 -4.15738e-21)
(0.996683 -0.0110232 0)
(1.08567 0.019595 4.44859e-21)
(1.08173 0.0167464 -6.80199e-21)
(1.00556 -0.000659822 0)
(1.00562 -0.000439089 2.5744e-21)
(1.12278 0.00262392 -1.07258e-20)
(1.12784 0.000753607 9.29112e-21)
(1.12509 0.00640972 1.50047e-20)
(1.00002 -0.000769968 2.77278e-21)
(0.999999 -0.000808012 2.47919e-21)
(0.925111 -0.131007 0)
(0.934378 -0.128039 -3.89435e-21)
(0.933066 -0.138941 -1.04052e-20)
(-0.211534 -0.231527 -6.16695e-20)
(-0.220003 -0.201214 1.69698e-20)
(1.00383 -0.00815636 9.95922e-23)
(1.00364 -0.00781959 2.18532e-21)
(1.00392 -0.00788799 9.79825e-23)
(1.19894 0.109082 2.8227e-20)
(1.19817 0.119863 1.98178e-20)
(1.18888 0.114304 -1.69415e-20)
(1.0213 0.00112338 5.71387e-22)
(1.02196 0.00149952 1.43568e-22)
(1 -0.000224005 5.31383e-22)
(0.914952 -0.0316699 -1.4372e-20)
(0.909795 -0.030935 0)
(0.913634 -0.0263516 0)
(0.872268 -0.360869 -1.25114e-20)
(0.892798 -0.369765 -9.56789e-21)
(0.866138 -0.394274 -1.66628e-20)
(0.996373 -0.00969628 2.37317e-22)
(0.996052 -0.00948498 0)
(0.996454 -0.00918752 -4.76926e-21)
(1.07852 0.0636061 -5.51411e-21)
(1.08038 0.0580314 -3.05801e-20)
(1.07436 0.0603562 1.70056e-21)
(1.00304 -0.00115669 0)
(1.0032 -0.0010661 -1.55029e-21)
(1.00324 -0.00128579 0)
(1.02575 -0.0248895 4.38491e-22)
(1.02672 -0.0238735 0)
(-0.393565 0.0763549 4.31784e-20)
(-0.364975 0.0779491 0)
(1.06265 -0.0177691 -7.02758e-21)
(1.06052 -0.0191937 0)
(1.06322 -0.0207041 0)
(1.03895 0.0282172 -8.86116e-21)
(1.03747 0.030009 -2.34449e-21)
(1.03652 0.0275918 0)
(0.41165 -0.388515 -7.17066e-21)
(0.473964 -0.348396 -6.52878e-20)
(0.443134 -0.337503 -9.96517e-21)
(0.98441 -0.014435 -1.0725e-20)
(0.983283 -0.0142908 1.11149e-20)
(0.984098 -0.0134766 -1.03923e-20)
(0.612878 -0.00550393 6.19267e-20)
(0.592767 0.00734516 -1.43852e-20)
(0.591949 -0.0209218 6.57411e-20)
(-0.0946262 0.165208 2.20219e-21)
(-0.0148177 0.174026 4.8393e-20)
(-0.091464 0.179718 4.34498e-20)
(0.848683 0.394747 -6.18297e-21)
(0.836208 0.410551 1.50231e-21)
(0.863877 0.413633 0)
(0.765585 -0.177224 1.6938e-20)
(0.72285 -0.198986 -7.95796e-20)
(0.79733 -0.143328 0)
(1 -0.000699768 -1.06036e-21)
(0.999996 -0.000772797 -2.0428e-21)
(1.00003 -0.00102822 -5.76114e-21)
(0.818349 -0.159286 3.60895e-20)
(0.834201 -0.165279 -9.23464e-21)
(0.83014 -0.148782 -1.42467e-20)
(1.23937 0.0597432 2.84463e-22)
(1.18258 0.0632246 1.18505e-21)
(1.19954 0.0805636 -7.59058e-21)
(0.996301 -0.00672957 2.19151e-21)
(0.996188 -0.00707977 3.75986e-22)
(0.996528 -0.00689892 7.78283e-21)
(0.999984 -0.000705873 2.9475e-21)
(0.999984 -0.000698895 -3.89478e-21)
(0.999988 -0.000424526 3.93557e-21)
(0.808352 -0.166536 3.84477e-20)
(0.80562 -0.149129 -2.21274e-20)
(0.0932378 -0.582693 1.73473e-20)
(0.104555 -0.587713 -2.06837e-20)
(1.16263 -0.0122091 0)
(1.16643 -0.00583362 -1.28761e-20)
(0.997313 -0.0682812 -2.16502e-21)
(1.00079 -0.0689994 3.27423e-22)
(1.00024 -0.0653827 1.69987e-21)
(1.04144 0.0288275 -3.77412e-21)
(1.32502 -0.0512483 2.07943e-20)
(1.32502 -0.065132 1.10181e-19)
(1.31384 -0.0571073 3.44272e-20)
(0.999979 -0.000729437 -9.94957e-22)
(0.999966 -0.00104559 7.34927e-23)
(1.11373 0.1488 -1.67619e-20)
(1.10851 0.13842 1.96284e-21)
(1.10153 0.147327 0)
(-0.174568 -0.588816 1.56523e-20)
(-0.275122 -0.623538 1.4391e-19)
(0.866496 -0.337843 -2.07262e-21)
(0.84138 -0.361746 -2.17238e-21)
(-0.219537 -0.112 2.03363e-20)
(-0.196544 -0.0784637 0)
(-0.230378 -0.134365 1.30643e-19)
(1.43471 -0.0246457 2.02867e-21)
(1.41102 -0.0158344 -6.00778e-21)
(1.44367 0.00216837 5.11668e-21)
(1.47055 -0.0346969 -9.38873e-20)
(1.43068 -0.0463423 2.68584e-20)
(1.12631 -0.0905054 6.32317e-21)
(1.13473 -0.0950007 -2.71073e-20)
(1.13268 -0.0855311 -1.57246e-20)
(-0.147023 -0.391424 -1.78119e-20)
(-0.112133 -0.303278 9.03991e-21)
(0.999078 -0.013447 5.93185e-21)
(0.999357 -0.0137775 2.30084e-21)
(0.999537 -0.0133195 2.85438e-21)
(0.730867 -0.195194 -2.5921e-20)
(0.830204 -0.141287 -4.34867e-20)
(1.1729 -0.0408221 -3.02433e-20)
(1.16787 -0.04607 1.45715e-20)
(1.16573 -0.0383212 2.9631e-20)
(1.0576 -0.044511 -4.61576e-21)
(1.06088 -0.0447094 -8.28853e-21)
(1.05896 -0.0478363 -3.8652e-21)
(0.999984 -0.000396532 -1.68021e-23)
(0.999967 -0.000716484 0)
(-0.559018 -0.607272 -1.15875e-19)
(-0.578404 -0.62287 -1.16018e-20)
(-0.55682 -0.591405 -1.01661e-19)
(1.12025 -0.00220251 -1.15921e-20)
(1.11741 0.00412837 -1.1961e-20)
(0.7278 0.485842 0)
(0.714378 0.487399 -7.95486e-22)
(0.720447 0.477267 1.90811e-22)
(0.994269 -0.00438063 -6.30372e-21)
(0.994374 -0.00482759 1.01055e-20)
(0.861791 0.0617868 -1.08825e-19)
(0.791129 0.0445855 -4.5044e-20)
(0.800356 0.00232213 -7.33568e-21)
(1.06497 0.0719264 -2.5021e-21)
(0.958154 0.102167 4.96662e-20)
(0.924947 0.0902702 -2.49565e-20)
(0.864068 0.373246 1.08974e-21)
(0.83364 0.372136 -5.22245e-21)
(1.00544 -0.00594262 -3.67173e-22)
(1.00546 -0.0062144 1.96314e-22)
(1.0052 -0.00604751 -4.62339e-21)
(0.996054 -0.0065399 -4.85488e-21)
(0.996407 -0.00641702 1.12247e-20)
(0.999984 -0.00014796 7.04311e-23)
(1.00009 -0.00108404 0)
(1.00011 -0.00105406 3.47577e-21)
(1.00014 -0.00128514 -1.8457e-21)
(-0.170697 -0.0287213 -1.85444e-20)
(-0.155916 -0.00533312 -1.90271e-20)
(0.121228 -0.160823 -1.12226e-19)
(0.0845922 -0.17111 7.44623e-20)
(0.089792 -0.1294 -1.39849e-19)
(-0.613553 0.0215472 -3.17477e-20)
(-0.624415 0.0245799 -2.79288e-20)
(-0.681616 0.0292479 -2.33936e-19)
(0.985426 -0.0143552 -1.31785e-20)
(0.984834 -0.0151161 5.82682e-21)
(0.999598 -0.00486742 -7.40618e-21)
(0.999615 -0.00520189 -3.76615e-21)
(0.99949 -0.00522886 3.60855e-21)
(1.02463 0.0250622 -1.27434e-21)
(1.0232 0.0238329 0)
(1.02288 0.0262056 1.11357e-22)
(0.997609 -0.00518121 1.60329e-22)
(0.997815 -0.00523161 2.91458e-22)
(0.997698 -0.00539747 -3.48203e-21)
(-0.244519 -0.286688 -1.4927e-19)
(-0.28059 -0.313717 -8.16725e-21)
(-0.268646 -0.340735 -6.75742e-20)
(0.996813 -0.00404291 -5.75453e-22)
(0.996787 -0.00424154 7.73186e-21)
(0.996594 -0.00399917 -9.98936e-21)
(0.74841 0.0591704 3.77284e-21)
(0.779777 0.130583 3.88466e-20)
(0.68632 0.0680086 -2.91604e-22)
(1.11943 0.158541 1.46214e-20)
(1.12706 0.148118 -1.40712e-20)
(0.973196 -0.0944349 -9.04966e-20)
(0.883826 -0.124731 3.3918e-20)
(0.877786 -0.125767 2.89895e-20)
(1.13237 0.0337516 0)
(1.13272 0.0402093 0)
(1.12713 0.0374487 0)
(1.0422 0.0224298 -1.93635e-21)
(1.04383 0.024547 0)
(0.996783 -0.00379133 2.8898e-22)
(0.997036 -0.00408351 7.38308e-21)
(1.18279 -0.0300987 0)
(1.18912 -0.0262622 0)
(1.19007 -0.0346637 -2.25384e-20)
(-0.577735 0.0726332 -1.13818e-19)
(-0.520863 0.0826564 1.23895e-20)
(1.10902 0.296221 -3.76553e-21)
(1.1154 0.281089 2.08653e-20)
(1.12787 0.294727 1.30022e-20)
(1.09976 0.312963 -1.2572e-22)
(1.08737 0.2979 1.44351e-20)
(1.05334 0.00733807 -5.73539e-21)
(1.05173 0.00892939 0)
(1.05125 0.00679108 4.21599e-21)
(1.00869 -0.0114386 6.21219e-23)
(1.00905 -0.0112395 -2.03127e-21)
(1.00858 -0.0110282 0)
(0.972806 -0.0211073 -1.70625e-20)
(0.972126 -0.0227829 -1.1074e-20)
(1.05557 -0.0167576 0)
(1.05378 -0.0182722 -2.06535e-21)
(1.05324 -0.0157503 -2.82106e-21)
(1.08348 0.00888946 0)
(1.07954 0.00872833 5.61267e-22)
(1.08168 0.00506203 -7.76452e-21)
(1.29344 -0.177341 2.05273e-20)
(1.28356 -0.190529 3.82256e-21)
(1.30422 -0.194082 4.43857e-20)
(1.31935 0.0125933 0)
(1.33328 0.0145406 0)
(1.32239 0.0279841 -2.30287e-20)
(1.02579 0.0267218 1.24348e-21)
(1.0261 0.0243108 6.28663e-21)
(1.00001 -0.000663463 4.50721e-21)
(0.999993 -0.000409561 5.89542e-21)
(1.18466 5.73114e-05 2.15309e-21)
(1.18832 0.00364159 1.13455e-20)
(1.19031 -0.0030914 -4.69779e-21)
(0.126767 -0.541032 1.33342e-20)
(0.10831 -0.563593 1.46943e-20)
(0.14244 -0.550753 -7.01116e-20)
(1.08689 0.00780402 6.91325e-22)
(0.99034 -0.0205688 8.38243e-23)
(0.990905 -0.0216265 0)
(0.99144 -0.0204995 0)
(1.10625 0.113361 1.20084e-20)
(1.10098 0.120688 1.27945e-20)
(1.0975 0.112702 4.91206e-21)
(-0.269437 0.155152 0)
(-0.246125 0.175105 8.33454e-22)
(-0.230565 0.188846 0)
(1.27386 -0.489316 -9.09478e-20)
(1.25063 -0.495025 3.08546e-20)
(1.26158 -0.520444 -5.19699e-20)
(0.996758 -0.00355892 2.02545e-21)
(0.996973 -0.00358176 5.89415e-21)
(0.725835 -0.19804 -6.90421e-20)
(0.682028 -0.233541 -6.78042e-20)
(1.00837 -0.0116262 -4.11019e-21)
(1.00886 -0.0118521 3.0852e-21)
(0.996527 -0.00352869 -8.43755e-23)
(1 -0.00675068 0)
(1.00005 -0.00652099 -2.58144e-21)
(0.999924 -0.00647352 0)
(0.00578168 -0.0985053 -4.3286e-20)
(0.236669 -0.139106 1.1234e-19)
(0.0719609 -0.107586 9.98318e-20)
(1.054 -0.0444881 4.20431e-22)
(1.05566 -0.0416251 7.42078e-21)
(1.00038 -0.00515507 -2.331e-21)
(1.00044 -0.00552474 4.27589e-21)
(0.988315 -0.00725584 -9.18595e-21)
(0.988682 -0.00783271 4.37023e-21)
(0.98797 -0.00778498 8.78061e-21)
(1.50022 -0.073609 1.57288e-20)
(1.46235 -0.0855607 -8.34975e-20)
(1.49488 -0.103898 2.25663e-21)
(1.18052 -0.00614704 -4.5333e-20)
(1.18478 -0.0151467 -2.64733e-20)
(0.996701 -0.00992216 4.93227e-22)
(0.996295 -0.0102581 3.93685e-21)
(1.26597 0.00959277 -2.13704e-21)
(1.26466 0.0131431 0)
(0.988749 -0.014269 -1.04894e-20)
(0.98943 -0.0139164 6.61913e-22)
(0.989529 -0.0147131 4.57457e-21)
(1.10497 0.128884 -1.54744e-21)
(1.11521 0.129605 8.64546e-21)
(1.05554 0.00803157 1.5467e-21)
(1.05492 0.005704 -1.12385e-20)
(1.01806 -0.00285259 0)
(1.01753 -0.00294517 0)
(0.611485 -0.464466 -3.8873e-20)
(0.623485 -0.49723 -1.51691e-20)
(0.581462 -0.488212 -2.59415e-20)
(1.03153 0.000562186 2.07279e-21)
(1.03239 -0.000106247 1.40083e-21)
(1.03116 -0.000524804 -5.51682e-23)
(1.25791 0.0434693 -9.58256e-21)
(1.26711 0.0575955 -5.93815e-21)
(0.702411 0.484022 -7.95251e-22)
(0.687165 0.477149 5.37066e-21)
(0.70258 0.476086 1.48809e-21)
(1.03598 -0.000736449 -3.05932e-21)
(1.03666 -0.00180854 -1.52592e-21)
(1.03518 -0.00192289 -1.86273e-21)
(1.0054 -0.00566561 2.18026e-21)
(1.00533 -0.00540647 -2.25292e-21)
(1.00512 -0.00552211 -1.44866e-21)
(1.00007 -0.00224531 0)
(1.00005 -0.00196992 -3.59669e-21)
(1.00004 -0.00198034 -2.4513e-22)
(0.989774 -0.0199326 6.76518e-21)
(0.989253 -0.0208531 -6.77683e-21)
(-0.413844 -0.00572727 1.62659e-20)
(-0.367631 -0.0217605 3.03393e-19)
(-0.440852 -0.00194529 8.40546e-20)
(0.413344 -0.250704 -2.20924e-19)
(0.183204 -0.170157 6.8604e-20)
(0.0796372 -0.132809 -1.08388e-19)
(0.212319 0.11112 0)
(0.121539 0.0223016 7.09641e-20)
(0.204564 0.0482937 0)
(1.00396 -0.0094687 7.91417e-22)
(1.00418 -0.00910413 1.11901e-22)
(1.25801 0.0207501 -2.76783e-20)
(1.26266 0.0248036 -1.34671e-22)
(1.09848 -0.405289 0)
(1.1183 -0.386749 2.47951e-20)
(1.09277 -0.380072 0)
(0.596384 -0.583212 3.51308e-20)
(0.554319 -0.620444 3.94389e-21)
(0.554283 -0.552883 1.24581e-20)
(0.996062 -0.00748873 -5.66003e-21)
(0.996347 -0.00765866 1.12761e-21)
(0.99595 -0.00790363 -6.19232e-21)
(1.06196 -0.0124025 9.93226e-21)
(1.06231 -0.0152155 -4.70641e-21)
(1.05958 -0.0134872 2.82769e-21)
(0.936255 0.0859852 -1.14365e-21)
(0.942803 0.14458 -2.25999e-21)
(-0.316847 0.118826 0)
(1.11245 0.167422 1.19232e-20)
(1.12662 0.168297 2.55428e-20)
(0.997068 -0.00475362 -1.75344e-21)
(0.996948 -0.0044637 7.56367e-21)
(0.998035 -0.00488037 -6.98838e-21)
(0.998143 -0.00466243 2.6005e-22)
(0.998207 -0.00484652 -3.35878e-21)
(1.00568 -0.00579205 5.76909e-21)
(1.09721 -0.0626703 -1.45149e-20)
(1.09739 -0.046182 -1.23837e-20)
(-0.10747 0.156363 -5.33932e-20)
(-0.166749 0.15432 -7.3471e-20)
(0.745103 -0.385783 1.19773e-19)
(0.919373 -0.488992 1.26282e-20)
(0.738888 0.482011 0)
(0.736076 0.498499 0)
(1.02441 -0.0244626 4.25191e-22)
(1.02307 -0.0238236 0)
(1.02411 -0.022916 6.16324e-22)
(-0.14961 0.29909 -9.20836e-20)
(-0.0799708 0.360244 1.54054e-20)
(-0.207791 0.345389 -1.55441e-19)
(0.413056 -0.182353 -2.51045e-20)
(0.390424 -0.199053 3.12656e-20)
(0.423233 -0.209117 7.96667e-20)
(0.925834 -0.0341622 -7.79581e-21)
(0.923552 -0.0309266 5.07018e-21)
(0.927781 -0.0303464 0)
(1.02098 0.00393775 0)
(1.02116 0.0034581 -9.84448e-22)
(1.02051 0.0034523 0)
(0.976354 -0.0543103 -4.63083e-21)
(0.977801 -0.0519532 -5.82124e-21)
(0.974861 -0.0515121 -1.86928e-21)
(0.199933 0.0706973 0)
(0.163207 0.0619156 -7.24727e-20)
(0.187802 0.0296397 6.08026e-20)
(1.01156 -0.00216833 7.80328e-22)
(1.01181 -0.00215101 -7.43425e-22)
(1.01177 -0.00232037 -2.49953e-23)
(0.997031 -0.0119317 -6.12969e-21)
(0.997404 -0.0118583 -3.08526e-21)
(0.999837 -0.00252679 0)
(0.999873 -0.0025331 -1.69477e-21)
(0.999882 -0.00226397 0)
(0.982347 -0.0146442 3.4679e-21)
(0.981282 -0.0151003 -1.43791e-20)
(0.982342 -0.0157465 -4.52693e-21)
(1.0185 -0.00127668 -1.88868e-22)
(1.01859 -0.00103753 2.16729e-22)
(1.01815 -0.00110626 -1.96281e-22)
(1.08231 0.0249947 -9.75748e-21)
(1.08602 0.0232444 7.36838e-22)
(1.08628 0.0275234 5.55161e-21)
(1.05635 0.0175439 3.51062e-21)
(1.05889 0.018346 -1.21038e-20)
(1.05625 0.0197911 2.4845e-21)
(-0.174203 -0.635408 -1.50449e-21)
(-0.179207 -0.609706 -2.25295e-20)
(-0.144759 -0.622439 -6.04337e-20)
(0.985418 -0.00648734 -6.98596e-21)
(0.98485 -0.00699277 1.01774e-20)
(0.985726 -0.0071717 -6.90547e-21)
(1.09183 -0.0346899 4.63838e-21)
(1.08821 -0.0327302 -1.68705e-21)
(1.0884 -0.0373165 7.7931e-21)
(1.03524 0.000240619 0)
(1.03657 0.000445244 0)
(0.978836 -0.0319726 9.00713e-21)
(0.978661 -0.030007 3.5319e-21)
(0.980443 -0.031174 3.87679e-21)
(0.863835 -0.613443 0)
(0.819525 -0.618436 1.17911e-21)
(0.853554 -0.664819 -1.31347e-20)
(1.17782 0.000552392 8.11303e-21)
(0.152258 -0.50747 5.32141e-20)
(0.107342 -0.542577 1.27871e-20)
(1.01081 -0.00232771 -9.70135e-22)
(1.01066 -0.00221686 9.29455e-23)
(1.01059 -0.00233889 -1.43719e-23)
(0.380539 -0.420606 -1.05823e-20)
(0.362048 -0.413142 3.56448e-20)
(0.994025 -0.0670399 -1.23095e-20)
(0.994303 -0.0708691 2.6364e-21)
(0.999793 0.0793861 2.33088e-21)
(0.995202 0.0844886 -3.81219e-21)
(0.993134 0.0776193 2.0442e-22)
(1.02092 -0.0142357 9.6909e-22)
(1.02182 -0.0139262 -2.62805e-22)
(1.3039 -0.162932 2.73059e-20)
(1.28665 -0.162577 1.75462e-20)
(0.999656 -0.00453522 -2.82889e-21)
(0.999595 -0.00459264 5.44038e-21)
(0.759246 -0.0896529 -4.7365e-21)
(0.768763 -0.0777568 1.80612e-21)
(0.749034 -0.0749309 1.43431e-20)
(1.17682 -0.0355242 -5.72215e-20)
(1.17952 -0.0435549 -3.71525e-20)
(1.01844 -0.00159833 0)
(1.01901 -0.00143696 2.29476e-23)
(0.343563 0.420745 0)
(0.392464 0.399861 0)
(0.388771 0.454613 8.39913e-21)
(0.33718 0.454705 -8.43941e-20)
(0.442048 0.559125 -1.3465e-19)
(0.379682 0.546819 1.35888e-20)
(1.12256 -0.0958663 2.54712e-20)
(1.1205 -0.0877551 1.85832e-20)
(0.999382 -0.0150289 0)
(0.99905 -0.0146482 4.06928e-21)
(0.998785 -0.0151977 -1.28705e-21)
(1.14751 0.0522344 -1.30668e-20)
(1.14646 0.0460328 0)
(1.15381 0.0473261 0)
(0.553601 0.721849 -1.54607e-21)
(0.532285 0.74209 0)
(0.602871 0.754222 4.18634e-20)
(0.77633 -0.115278 3.62785e-21)
(0.766554 -0.102116 1.43533e-20)
(0.78498 -0.104766 5.83076e-20)
(0.76448 -0.125322 -3.29107e-20)
(0.782338 -0.126388 6.00515e-20)
(-0.299909 -0.551603 -9.93348e-20)
(-0.327979 -0.577311 6.1356e-20)
(-0.32938 -0.532898 -1.24288e-19)
(1.13176 0.238176 -8.48265e-21)
(1.11646 0.242949 0)
(1.13007 0.25451 0)
(1.00584 0.0795263 2.45822e-21)
(1.00317 0.0737822 2.53975e-22)
(1.07715 0.0682983 0)
(1.08336 0.0658108 -1.65349e-21)
(0.431797 -0.162544 -6.95354e-20)
(0.398934 -0.154498 -6.20462e-20)
(1.01744 0.0014328 -1.26178e-22)
(1.01737 0.00171785 1.32777e-23)
(1.01702 0.00146199 -1.41275e-23)
(-0.122306 0.196876 -4.33772e-20)
(-0.55373 0.0142148 1.85506e-19)
(-0.605902 0.0191617 7.99222e-20)
(1.01135 -0.0021916 1.9988e-21)
(1.01142 -0.00204207 1.23509e-21)
(0.999874 -0.00196366 1.1588e-22)
(0.999856 -0.0019377 -5.20724e-21)
(0.999897 -0.00164274 4.00737e-21)
(1.28336 -0.0748898 -2.89423e-20)
(1.30118 -0.0608716 -2.41706e-20)
(0.992512 -0.0156693 3.86574e-21)
(0.993329 -0.0159419 -4.48703e-21)
(0.992633 -0.0165642 1.74006e-21)
(1.00007 -0.000952174 -3.98074e-21)
(1.00009 -0.00117008 1.88413e-21)
(1.1974 0.153056 -1.55855e-20)
(1.20933 0.147971 -1.55383e-20)
(1.19612 0.141493 2.72596e-21)
(1.22065 0.142179 0)
(1.21988 0.129669 6.18282e-22)
(1.23391 0.134703 -2.88314e-20)
(1.02467 -0.0258146 -8.06096e-22)
(1.06182 -0.00988931 -1.78336e-21)
(1.06418 -0.0115075 5.90481e-21)
(1.09553 -0.0365748 -6.19144e-21)
(1.09493 -0.031772 3.59827e-22)
(0.994094 -0.180642 -4.67006e-21)
(0.983816 -0.174421 -4.84809e-21)
(0.984577 -0.186702 -1.72628e-21)
(1.06248 -0.00375618 4.53152e-21)
(1.05992 -0.00378583 -5.29901e-21)
(1.06104 -0.00166627 -3.22843e-21)
(0.995759 -0.00731358 -1.8318e-21)
(1.11835 -0.149599 6.12729e-22)
(1.12049 -0.142469 -1.52192e-20)
(1.11147 -0.144074 2.83226e-21)
(-0.101596 -0.547927 -7.20348e-21)
(-0.0769964 -0.546121 2.03596e-20)
(-0.0845975 -0.571236 -2.58819e-20)
(1.01822 -0.00195892 -3.75691e-23)
(1.01786 -0.00168523 -6.03638e-23)
(0.268248 0.27378 -5.05149e-21)
(0.233507 0.186514 1.07354e-19)
(0.158112 0.181828 1.10888e-19)
(1 -0.00106366 -4.18273e-21)
(1.00002 -0.000720009 -1.21665e-21)
(1.00021 -0.00329188 4.15118e-22)
(1.00016 -0.00307416 -1.19362e-22)
(1.00017 -0.00335492 4.77243e-22)
(1.00919 -0.000336457 -1.61848e-21)
(1.0091 -0.000433129 1.53801e-21)
(1.00927 -0.000436864 -1.32048e-21)
(-0.203088 -0.263556 2.84646e-22)
(0.994715 -0.00314432 -8.42854e-23)
(0.994425 -0.00337952 4.90656e-21)
(0.994774 -0.00349506 9.9709e-21)
(1.50286 -0.0479989 -2.34506e-20)
(1.54662 -0.0617487 2.19651e-20)
(0.531452 -0.349434 3.2556e-20)
(0.592152 -0.30983 6.20284e-21)
(0.578762 -0.314482 -1.04588e-19)
(1.0009 -0.00345427 1.46752e-21)
(1.00087 -0.00354178 -5.58582e-21)
(1.00101 -0.00371805 -1.19051e-21)
(0.999729 -0.00421462 -5.3038e-21)
(0.999726 -0.00450189 -9.35844e-21)
(1.3646 0.0729773 4.58091e-20)
(1.33475 0.0599596 -1.15215e-20)
(1.34807 0.0510411 8.29822e-20)
(1.00892 -0.000173444 0)
(1.00914 -0.000170643 0)
(0.999964 -0.00136111 -8.05218e-21)
(0.999969 -0.00137718 4.55986e-21)
(0.999952 -0.00170801 -3.71838e-21)
(1.00956 -0.000222335 -7.27577e-22)
(1.00947 -0.000237533 0)
(1.00872 -0.00013603 1.21753e-21)
(0.486733 -0.390758 6.92026e-20)
(0.48231 -0.389213 4.41221e-20)
(0.628122 -0.435747 -1.97589e-20)
(0.589952 -0.425635 -4.16551e-20)
(0.948537 -0.060666 -5.43719e-21)
(0.951545 -0.0575902 1.01281e-20)
(0.95285 -0.0620918 1.23442e-21)
(0.947598 -0.598797 0)
(0.959007 -0.558792 1.68917e-21)
(0.989916 -0.586419 -3.07656e-21)
(1.1987 0.0994306 1.12988e-20)
(1.19879 0.0900152 -3.80787e-20)
(1.1897 0.094944 -1.88331e-20)
(0.703777 0.497333 1.62054e-20)
(-0.08336 0.184282 -2.47488e-20)
(-0.0736372 0.172708 1.04651e-19)
(-0.0923571 0.148149 8.77679e-20)
(1.03745 -0.00294437 1.68694e-21)
(1.03832 -0.00153411 1.4931e-21)
(0.0776963 -0.574978 -5.61299e-20)
(0.034701 -0.441354 4.0671e-20)
(0.112046 -0.373292 -2.92503e-20)
(1.00003 -0.000682865 2.60947e-21)
(1.00001 -0.0010227 -6.21787e-21)
(1.00001 -0.000646719 -3.54294e-21)
(0.506836 0.6856 -1.50951e-21)
(0.575761 0.685224 1.05694e-20)
(0.452475 -1.13154 -2.91063e-21)
(0.213272 -1.05744 0)
(0.431167 -1.19251 0)
(-0.330557 -0.535467 3.27203e-20)
(-0.232757 -0.473262 0)
(-0.302005 -0.482588 8.86991e-20)
(0.713194 0.00306109 -2.11281e-19)
(1.13465 0.224401 -2.81885e-21)
(1.14562 0.234129 2.82945e-20)
(1.04994 0.0103642 -5.30065e-22)
(1.05194 0.0111376 -1.76959e-22)
(1.15614 -0.0115879 1.37652e-21)
(1.15892 -0.0180373 0)
(1.05641 0.0150304 2.02991e-21)
(1.05403 0.0168225 7.2834e-21)
(1.02084 0.00440428 -1.31709e-21)
(1.02054 0.00488378 -2.04768e-24)
(1.02012 0.00430581 -8.02298e-22)
(1.03451 0.00445072 5.29945e-22)
(1.03535 0.00515142 -4.47051e-21)
(1.03404 0.0056407 4.1099e-21)
(0.910148 -0.605006 0)
(0.876452 -0.573717 0)
(0.937023 -0.0742421 1.62305e-20)
(0.933128 -0.0700196 1.96023e-21)
(0.999718 -0.00400651 6.22764e-22)
(0.999757 -0.00393761 -4.79324e-22)
(1.00001 -0.00015686 0)
(1 -7.00208e-05 2.69087e-21)
(1 -7.56639e-05 0)
(1.01103 -0.00234041 -2.38736e-21)
(1.01095 -0.002481 2.82117e-23)
(1.01085 0.000114852 1.2332e-22)
(1.01061 1.73715e-05 -3.06692e-22)
(1.0111 6.06411e-05 3.98276e-22)
(1.01861 -0.00216501 -1.93623e-22)
(-0.0971369 0.106811 0)
(-0.0958792 0.121888 0)
(-0.105233 0.0913742 3.41003e-20)
(1.00563 -0.00708716 -3.25269e-21)
(1.00586 -0.00694072 -2.17771e-21)
(1.00555 -0.0068055 1.26449e-21)
(1.01951 -0.0130487 -1.67722e-24)
(1.01871 -0.0129811 8.65916e-23)
(1.01912 -0.0137525 1.16748e-22)
(1.01047 1.80095e-06 6.99278e-22)
(1.01043 -7.28606e-06 8.66961e-23)
(1.01094 5.97661e-05 4.96768e-23)
(1.00374 -0.00841102 0)
(1.00405 -0.00847312 0)
(-0.0183047 -0.621454 0)
(-0.0273084 -0.611256 0)
(-0.0112067 -0.622869 5.10388e-20)
(1.28605 -0.46059 -1.08004e-20)
(1.30628 -0.495377 -8.24921e-20)
(0.699891 0.0462137 3.41236e-20)
(0.704297 0.0313523 -2.73391e-20)
(0.685163 0.0338371 -1.55098e-20)
(0.957562 -0.0208619 7.24921e-22)
(0.956483 -0.0228053 -2.97367e-22)
(0.955083 -0.0201504 3.12427e-21)
(1.11512 0.114094 -3.56293e-21)
(1.11045 0.10694 -3.92081e-21)
(1.00894 5.45632e-05 -4.50511e-22)
(0.876869 0.356074 6.74042e-21)
(0.889259 0.338257 0)
(0.865146 0.336224 -8.2905e-21)
(-0.116084 -0.0684642 5.50042e-20)
(-0.0345378 -0.0830091 -3.55266e-22)
(0.994202 -0.00399364 -5.05737e-21)
(0.994564 -0.00408944 -2.51477e-20)
(0.656775 -0.250582 -1.27795e-20)
(0.609492 -0.284877 6.44462e-20)
(1.08238 0.0533185 -1.23535e-20)
(1.08408 0.0483867 1.12751e-20)
(1.07841 0.0502858 1.96886e-20)
(0.993648 -0.00548654 1.46498e-20)
(0.993272 -0.00539074 5.26617e-21)
(-0.193429 0.0485358 8.88339e-20)
(0.890016 0.375602 6.41005e-21)
(0.998142 -0.00707535 -2.84977e-21)
(0.998186 -0.00688912 4.05484e-22)
(1.11417 -0.158749 -2.3059e-21)
(1.12575 -0.157128 -1.23462e-20)
(0.401966 0.554872 3.56009e-20)
(0.392106 1.11024 3.63768e-20)
(0.982779 -0.0285698 3.81584e-21)
(0.984398 -0.0288629 0)
(0.98378 -0.0273332 3.53239e-21)
(0.84205 0.00154666 6.30378e-21)
(0.849488 -0.00198305 -9.26144e-21)
(0.842942 -0.00693245 1.94027e-20)
(1.01975 -0.0122347 -7.73805e-23)
(0.978477 -0.0283106 -1.01285e-20)
(0.979694 -0.0273817 -5.26892e-21)
(0.978045 -0.026611 -8.00796e-21)
(0.500903 0.614662 9.17052e-21)
(0.467974 0.636823 1.54679e-21)
(0.426492 0.579364 1.46181e-21)
(0.935769 -0.197557 1.00089e-20)
(0.940333 -0.186016 1.04597e-20)
(0.926008 -0.18898 -8.64857e-21)
(0.999722 -0.00991732 -3.15478e-21)
(0.999405 -0.0100025 -2.97791e-21)
(0.996678 -0.00474796 -6.25645e-22)
(0.996929 -0.00488165 4.14038e-21)
(0.996784 -0.00500711 -4.55575e-22)
(0.958766 -0.0187392 8.24954e-21)
(0.959927 -0.0213338 -1.65209e-20)
(1.1983 -0.395496 4.00874e-21)
(1.1723 -0.395706 -4.99684e-20)
(1.18465 -0.372881 -3.09538e-20)
(0.0811904 -0.229406 4.70846e-20)
(0.115072 -0.245709 -1.3775e-19)
(0.0848344 -0.277018 -1.06394e-19)
(0.994457 -0.00951844 2.91493e-22)
(0.99494 -0.00923659 -6.42848e-21)
(1.00573 -0.00633707 3.25894e-21)
(1.00551 -0.00648111 6.80963e-21)
(1.02337 -0.00407325 -7.10283e-22)
(1.02312 -0.00348838 4.99904e-22)
(1.02389 -0.00372077 -1.17104e-21)
(-0.450523 0.0133643 -2.90835e-19)
(-0.396715 -0.00590998 -1.42356e-19)
(0.0584541 -0.63679 -1.5554e-20)
(0.0612101 -0.640741 1.25494e-20)
(-0.195253 -0.0456428 -9.53704e-20)
(-0.0486589 -0.0559357 -4.17909e-24)
(-0.131298 -0.0591581 -1.95626e-19)
(1.01745 0.00116199 3.91535e-23)
(1.01745 0.00088834 4.64073e-22)
(1.01707 0.000950101 0)
(0.946868 -0.205997 -1.14704e-22)
(0.930197 -0.211205 -1.02399e-21)
(0.842676 0.0106416 -5.24208e-21)
(0.834471 0.0066409 1.45082e-20)
(0.90837 -0.801366 0)
(0.853151 -0.824273 0)
(0.915991 -0.865873 0)
(1.18047 0.0676197 3.26693e-20)
(1.183 0.0728138 1.84184e-20)
(1.18846 0.0663425 -1.21385e-20)
(1.01628 0.00240685 0)
(1.0167 0.00249837 4.43411e-22)
(1.01637 0.00217513 2.40694e-22)
(1.01799 0.00261239 -3.2675e-22)
(1.0181 0.00229308 9.19016e-23)
(1.0185 0.00262617 9.20094e-23)
(1.02366 -0.00472402 5.82665e-22)
(1.02279 -0.00442185 -6.513e-22)
(1.14979 -0.0110754 -1.20307e-21)
(1.15324 -0.00553594 -2.25709e-20)
(0.998957 -0.0322102 3.45598e-21)
(1.0004 -0.0328655 2.95674e-21)
(0.999007 -0.0339091 -2.0313e-21)
(0.155338 0.125714 -2.20823e-20)
(0.105221 0.142761 -8.2833e-20)
(-0.0212136 0.135836 -1.55518e-20)
(0.999007 -0.00549564 8.62678e-22)
(0.998899 -0.00550012 5.79599e-21)
(0.99895 -0.00579317 9.7362e-21)
(1.00993 -0.0100928 9.65507e-22)
(1.01006 -0.0105378 8.91883e-22)
(1.01046 -0.0102318 1.16117e-21)
(0.776015 0.663407 -1.36435e-20)
(0.776504 0.707375 0)
(0.739562 0.671481 2.53075e-20)
(-0.0953665 0.0846284 -5.76445e-20)
(-0.0951881 0.126027 0)
(0.373516 -0.4464 -1.25058e-20)
(0.330158 -0.467832 -3.0825e-20)
(1.01059 0.000157657 6.7338e-22)
(1.011 1.94458e-05 4.11711e-22)
(-0.545689 -0.616502 -3.78443e-20)
(-0.535766 -0.581015 3.08187e-20)
(1.0033 -0.0802999 2.08219e-21)
(1.00187 -0.0761335 -3.9468e-21)
(1.00614 -0.0765821 0)
(0.241113 -0.766041 0)
(0.266172 -0.692148 -4.95319e-21)
(0.163907 -0.701793 0)
(0.0205458 0.175049 1.90343e-19)
(0.159308 0.176884 1.19559e-20)
(0.167155 0.183676 8.45997e-20)