/*--------------------------------*- C++ -*----------------------------------*\
| =========                 |                                                 |
| \\      /  F ield         | OpenFOAM: The Open Source CFD Toolbox           |
|  \\    /   O peration     | Version:  v2012                                 |
|   \\  /    A nd           | Website:  www.openfoam.com                      |
|    \\/     M anipulation  |                                                 |
\*---------------------------------------------------------------------------*/
FoamFile
{
    version     2.0;
    format      ascii;
    class       surfaceVectorField;
    location    "350";
    object      ddtCorrDdt0(Uf);
}
// * * * * * * * * * * * * * * * * * * * * * * * * * * * * * * * * * * * * * //

dimensions      [0 1 -2 0 0 0 0];


internalField   nonuniform List<vector> 
14516
(
(0.0979469 0.118373 -3.22426e-18)
(0.0875451 0.145174 2.0736e-18)
(0.0696068 0.118612 6.13304e-20)
(-0.0120054 0.00169766 -4.44416e-19)
(-0.0204979 -0.00920002 1.85333e-20)
(-0.00954793 -0.00402039 -6.47708e-20)
(0.102043 0.098165 9.77639e-18)
(0.130105 0.118624 2.32736e-18)
(-0.000124367 -6.12705e-05 9.75028e-20)
(-0.000117267 -7.12263e-05 -1.4042e-19)
(-0.000110973 -6.47673e-05 -1.49584e-19)
(-0.112659 0.492656 -3.72698e-17)
(-0.0620904 0.515065 -1.32224e-17)
(-0.0168628 0.289852 7.05126e-19)
(0.00125597 -0.00445821 -3.45695e-19)
(0.00154563 -0.0043377 -1.51006e-19)
(0.00126404 -0.00407937 2.1255e-20)
(-7.85323e-05 1.85542e-05 -4.07342e-20)
(-7.57933e-05 2.55429e-05 -2.37684e-19)
(-4.95084e-05 3.09115e-05 1.14656e-19)
(-0.00034323 0.000475935 -2.56849e-19)
(-0.000309842 0.000442265 -3.17633e-20)
(-0.000357858 0.000421836 -2.16911e-19)
(-0.000738232 0.000815402 -7.4147e-20)
(-0.000779447 0.000802175 -1.6068e-19)
(-0.000830526 0.000857906 2.73115e-20)
(-0.17506 0.637156 -2.85646e-17)
(-0.16048 0.429343 -8.67664e-19)
(-0.0151873 -0.032482 -1.82158e-19)
(-0.0122407 -0.0370422 -5.79575e-19)
(-0.00963072 -0.0308125 1.23976e-18)
(0.0226703 0.0384499 -1.34799e-19)
(0.00891888 0.0565435 -1.00519e-19)
(0.0241998 0.0553767 1.18002e-18)
(-0.000122045 -5.63135e-05 6.97749e-20)
(-0.000129187 -6.18208e-05 3.77107e-20)
(0.0011507 -0.000814893 -5.52962e-20)
(0.00131087 -0.000744499 -3.54076e-20)
(0.00115405 -0.00063476 -5.21102e-20)
(7.48532e-06 2.38965e-06 -1.49019e-20)
(2.58802e-06 7.64387e-06 3.66623e-19)
(0.000987717 -0.000878428 5.43143e-20)
(0.000836846 -0.000889856 3.52806e-20)
(0.000868491 -0.000747219 -5.67922e-20)
(0.00135963 -0.00342427 -1.64585e-19)
(0.00149428 -0.00305603 -3.46731e-19)
(0.00103735 -0.00320605 -2.92805e-19)
(0.00122371 -0.00386171 1.35671e-19)
(0.00175514 -0.00369477 -1.17877e-19)
(0.0883463 -0.099463 6.54379e-19)
(0.0900421 -0.13871 2.59509e-18)
(0.068493 -0.106632 -2.82046e-18)
(0.00110829 -0.00101135 -4.97128e-20)
(-0.0296605 -0.0688197 6.32396e-20)
(-0.0154779 -0.0825795 2.36714e-18)
(-0.0159898 -0.0652127 -4.94141e-19)
(0.00539104 0.00552539 -4.34499e-19)
(0.0051614 0.00629644 -3.23406e-19)
(0.00469726 0.0057122 4.98321e-19)
(-0.0616772 0.0497785 3.03124e-18)
(-0.0717149 0.0427033 1.09503e-18)
(-0.0696823 0.0612022 -4.67417e-19)
(0.00070597 9.89335e-05 2.29395e-20)
(0.000661682 8.67045e-05 -1.91374e-20)
(-0.00246994 -0.000447403 -1.15688e-19)
(-0.00252883 -0.000679644 4.44451e-19)
(-0.00265897 -0.000432498 1.37944e-19)
(-0.000121514 -5.44199e-05 -9.56357e-20)
(-0.000119925 -5.71857e-05 -3.86544e-19)
(0.000552101 -0.00109911 5.34478e-20)
(0.000702862 -0.00114718 -1.24632e-20)
(0.00059794 -0.00127001 -3.3286e-20)
(0.00134729 -0.00174513 -5.91244e-19)
(0.00157318 -0.00171559 4.55285e-20)
(0.00135206 -0.00152428 -2.66241e-19)
(-0.0480135 0.0107792 2.93367e-19)
(-0.0424103 0.00766236 2.51447e-19)
(-0.0423115 0.0139407 -5.95736e-19)
(-0.000658715 0.000776012 1.28462e-19)
(-0.000696104 0.000826493 2.68978e-20)
(-0.00101909 -0.00412653 -7.81691e-19)
(-0.00118621 -0.00373983 -7.62261e-19)
(-0.00156157 -0.00454489 -1.31703e-18)
(-0.0490164 0.0535308 9.39059e-19)
(-0.0514227 0.0403596 5.46748e-19)
(0.014107 -0.0805869 -1.14907e-18)
(0.00637946 -0.0763902 8.35878e-19)
(0.018655 -0.0972505 -8.44796e-19)
(-6.56198e-05 1.94963e-05 -3.61337e-20)
(-5.76277e-05 2.05627e-05 -6.11186e-20)
(-7.63429e-05 1.07636e-05 -2.06156e-19)
(-0.0534731 0.0162645 -2.35161e-18)
(-0.0584563 0.023058 -5.53215e-19)
(-0.0506371 0.0256163 -8.13312e-19)
(-0.00685775 -0.134833 -8.42103e-19)
(0.0254151 -0.139668 -9.00919e-20)
(-0.00269647 -0.1721 2.36673e-18)
(-8.01237e-05 1.34384e-05 -3.92561e-21)
(-9.8392e-05 1.29573e-05 5.27579e-19)
(0.0061081 0.00530626 3.70992e-19)
(0.00547579 0.00474929 6.8548e-20)
(-0.000540924 0.000683114 -4.86488e-20)
(-0.000581611 0.000761875 5.30818e-20)
(-0.000628307 0.000674039 -1.5071e-19)
(-0.000103431 -2.53977e-05 -1.83367e-19)
(-9.59111e-05 -2.43784e-05 -9.71646e-20)
(-0.0001012 -3.18965e-05 -3.06652e-19)
(-0.000825503 -0.00452257 6.26052e-19)
(-0.000572704 -0.0042027 1.60143e-18)
(4.37344e-05 2.07824e-06 1.32205e-19)
(1.86831e-06 -2.28049e-06 1.43981e-19)
(-8.0954e-05 -3.48265e-05 -3.97353e-19)
(-0.000104869 -5.05318e-05 -7.9813e-20)
(-9.5622e-05 -4.69773e-05 -1.37174e-19)
(-3.54245e-05 1.92274e-05 -7.26005e-20)
(-6.32861e-05 1.3759e-05 -1.94675e-19)
(-2.88444e-05 2.89338e-05 -5.14143e-19)
(-7.60549e-06 -2.22504e-05 -3.98311e-19)
(-5.94226e-05 -3.01573e-05 1.84251e-19)
(-0.000125444 -5.24427e-05 7.1321e-20)
(-0.0542757 0.00654922 5.27948e-19)
(0.0261221 0.000771981 -3.97582e-20)
(0.0267727 -0.00364258 1.15291e-18)
(0.0228474 -0.00209729 5.2218e-19)
(-0.0096298 -0.0218047 2.97137e-20)
(-0.00600389 -0.0239663 4.15436e-19)
(-0.00578749 -0.0198354 4.02192e-19)
(-0.000103996 -7.17569e-05 -1.43759e-19)
(-0.000117453 -8.25299e-05 -9.0121e-20)
(-0.0660847 0.0292782 1.20516e-18)
(-0.0679549 0.0168982 -5.18784e-19)
(-0.0312045 -0.0413129 2.87817e-19)
(-0.0241891 -0.0455273 3.18883e-18)
(-0.0251703 -0.0373647 1.43983e-18)
(0.00265798 -0.00445606 4.85919e-19)
(0.00240886 -0.00474604 8.39198e-19)
(0.00288261 -0.00488856 -1.68175e-19)
(-4.6822e-05 0.00194054 -8.05445e-20)
(-7.73788e-06 0.0018066 -1.05499e-19)
(0.00011949 0.00194101 1.24403e-19)
(-0.249708 -0.126662 -2.42176e-18)
(-0.231554 -0.180282 -9.13877e-18)
(-0.219538 -0.136006 -4.06795e-18)
(-0.184704 -0.0131672 -9.78271e-19)
(-0.199285 -0.0171925 -1.15544e-18)
(-0.199216 0.0575005 2.45445e-19)
(-0.000159237 0.000387711 5.86603e-20)
(-0.000137194 0.000365868 -1.88322e-20)
(0.0523629 -0.0367963 6.42811e-19)
(0.0462057 -0.0285681 3.83397e-20)
(0.0409083 -0.038832 -1.33439e-18)
(-0.0574434 -0.144035 -3.73449e-19)
(-0.0356808 -0.16911 -1.33223e-18)
(-0.0671391 -0.175517 -2.24019e-18)
(-0.000508511 0.000631106 -1.27308e-19)
(-0.000476538 0.000676892 8.91844e-20)
(-0.000106573 -9.69609e-06 8.34417e-20)
(-0.00010745 -6.63432e-06 -1.61963e-19)
(-0.000104866 -9.16837e-06 2.03647e-19)
(0.00407051 -0.00369739 1.75798e-19)
(0.00389019 -0.00412043 2.80624e-19)
(0.00444944 -0.00410114 2.20785e-19)
(0.0075439 -0.0410105 3.40255e-18)
(0.0147004 -0.0469856 1.31508e-18)
(0.0130598 -0.043867 -1.53744e-19)
(0.000206319 1.80316e-07 9.61103e-20)
(0.000162645 -1.36839e-05 2.35176e-19)
(0.000205436 -8.15336e-06 -4.84665e-20)
(-0.00999397 -0.0499559 6.62652e-18)
(0.0359619 -0.00941817 -2.31709e-17)
(0.0203587 -0.0564977 3.55441e-19)
(0.0106438 -0.0569408 -1.38631e-18)
(0.00957147 -0.045346 -3.46421e-18)
(-0.000516629 -0.0351787 2.36256e-19)
(0.0019275 -0.0355006 -1.14078e-18)
(-0.00652229 -0.0325359 -6.75008e-19)
(-0.0107998 -0.0300713 -4.37415e-19)
(-0.00970577 -0.0278019 -5.09505e-19)
(0.0316418 0.0237202 7.38157e-20)
(0.0199877 0.0270818 1.04824e-18)
(-0.0202747 -0.03213 -1.30398e-18)
(-0.0167789 -0.0266053 -1.1828e-18)
(-0.280627 -0.107658 5.73293e-19)
(-0.269919 -0.0689362 1.75816e-18)
(0.000261201 -7.09131e-06 7.04912e-21)
(0.000266084 -1.24901e-05 -2.29913e-21)
(0.000277266 -5.13882e-06 -2.08293e-20)
(0.000231444 -0.000726765 -2.01065e-19)
(0.000300329 -0.000784518 -7.37169e-20)
(0.000253628 -0.000786752 -4.02954e-19)
(0.022514 0.0212675 6.61587e-19)
(0.0201011 0.0181385 1.14772e-19)
(0.0181224 0.0215677 7.80713e-19)
(-0.068251 0.0412235 -6.0781e-19)
(-0.0804702 0.0366394 3.04013e-19)
(-0.0747221 -0.114433 -3.31832e-19)
(-0.0481408 -0.115079 -2.05548e-18)
(-0.000156748 0.00037884 -7.26354e-20)
(-0.000150958 0.00037448 5.66566e-20)
(-0.000122971 0.000344681 6.62596e-20)
(0.00147465 0.000696874 1.81344e-19)
(0.00161278 0.000638588 -3.07185e-20)
(0.00165466 0.000810799 -1.59025e-20)
(0.00375402 0.000974329 3.02682e-20)
(0.00342853 0.00122753 -2.91876e-20)
(0.00334768 0.000765211 -8.89813e-20)
(0.00228315 -0.00156214 3.67847e-19)
(0.00224689 -0.00131758 1.84047e-19)
(0.0019766 -0.00149929 -8.70217e-21)
(0.028661 -0.0667461 -3.05626e-20)
(0.0280308 -0.0551872 -1.71218e-20)
(0.00296344 0.00242047 1.11434e-19)
(0.00254148 0.00244168 8.68831e-20)
(0.00264975 0.00206178 8.09856e-20)
(-0.0328354 -0.014754 -8.51136e-19)
(-0.0344116 -0.0178482 2.40241e-19)
(-0.0345965 -0.0159546 -1.90013e-19)
(0.0110346 0.0162213 -1.50715e-19)
(0.0143244 0.0154741 1.07286e-19)
(0.0112651 0.0128906 1.89551e-19)
(-0.000781343 -0.0047128 -1.63144e-19)
(-0.00101859 -0.00503742 -3.96344e-19)
(0.0228586 0.00820311 6.68053e-20)
(0.0245 0.00446844 -4.24929e-19)
(0.0206126 0.00458954 -1.25936e-19)
(0.00260969 -0.00163025 -1.33228e-19)
(0.00232187 -0.00183136 1.6496e-19)
(-0.000145137 0.000377896 1.25604e-19)
(-0.000134353 0.000387531 6.74337e-20)
(-0.000107404 0.000354904 3.64673e-20)
(0.00377653 -0.00334975 2.96379e-20)
(0.00346863 -0.00296989 -1.13667e-19)
(0.00328907 -0.00334867 1.28922e-19)
(0.00171897 0.00298097 1.10566e-19)
(0.0021261 0.00311106 -7.37513e-20)
(0.00181697 0.00345597 9.99047e-20)
(-0.0140575 0.00640086 -1.60993e-19)
(-0.00273037 0.0133291 3.01183e-18)
(-0.191669 -0.240308 -6.18707e-18)
(-0.166812 -0.182907 -4.18015e-18)
(-0.19126 -0.204838 1.07975e-18)
(-0.00124445 0.000513964 3.08176e-19)
(-0.0014121 0.00056135 -4.79758e-20)
(-0.0012778 0.000684095 -1.35205e-19)
(-0.0361789 0.0564433 5.77738e-19)
(-0.0434349 0.0684602 5.33569e-19)
(0.00428121 -0.00326792 -2.12875e-20)
(0.00950404 0.0204695 -1.31616e-18)
(0.00788169 0.0168258 -1.48515e-18)
(-0.164399 -0.00635935 -1.84553e-18)
(-0.165155 -0.0706816 -2.12451e-19)
(-0.0280729 -0.0127184 1.66968e-19)
(-0.0293575 -0.00783928 -5.04998e-19)
(-0.00120632 0.00038471 6.99786e-19)
(-0.00109877 0.000490562 -1.32927e-19)
(-0.000221198 0.000839332 -3.19172e-19)
(-0.000303724 0.0009218 -1.83606e-19)
(-0.000291094 0.000786771 1.0846e-19)
(-0.000135115 0.000902881 -1.01081e-19)
(-0.000140728 0.000765917 -1.96559e-20)
(-8.02194e-05 0.00246699 1.1578e-19)
(0.000113793 0.00268911 -8.37544e-20)
(-0.00022402 0.00280365 -7.32581e-22)
(-0.00051629 -0.000478699 -4.21091e-20)
(-0.000604713 -0.000464656 1.42524e-19)
(-0.000545736 -0.000565517 4.25557e-20)
(-0.00048128 -0.000402414 -1.02792e-19)
(-0.000431737 -0.000484328 1.88141e-19)
(0.00133078 0.000577168 2.29759e-20)
(0.00134184 0.000741817 2.26484e-20)
(-0.000659924 -0.00479853 2.20169e-19)
(-0.000672244 -0.00466907 2.25046e-19)
(0.00334224 -0.00269628 5.98624e-20)
(0.00374234 -0.00264823 -1.86079e-20)
(-1.86101e-05 -1.70871e-05 1.47198e-19)
(-6.9486e-06 -2.21775e-05 2.52884e-19)
(-1.63867e-05 -2.9807e-05 -4.26e-20)
(0.0024748 -0.00405522 2.63911e-19)
(0.00290899 -0.00409442 -6.70591e-19)
(0.02141 -0.0208027 2.19928e-19)
(0.0181574 -0.023777 6.73478e-19)
(0.01747 -0.018624 -1.96682e-18)
(0.000260788 -2.05086e-06 -4.83651e-21)
(0.000243999 -6.1643e-06 -6.47507e-20)
(-0.0789171 -0.0206826 6.73543e-19)
(-0.068998 -0.000504247 -5.46748e-20)
(-0.0944941 -0.000894085 -8.32357e-20)
(-7.68879e-05 0.000279433 -6.19509e-20)
(-8.16906e-05 0.000296557 -1.05878e-19)
(-0.0955537 -0.332132 2.46617e-18)
(-0.148169 -0.230352 -3.33087e-19)
(-0.145522 -0.26676 7.41131e-18)
(-0.03771 -0.0372761 -3.35093e-19)
(-0.0390446 -0.0463864 1.34491e-19)
(-0.000188323 0.000414929 -1.94234e-20)
(-0.00860683 -0.0354463 -1.31809e-18)
(-0.0127438 -0.021003 -8.63282e-19)
(-0.0126277 -0.0124102 2.94925e-18)
(-0.0703235 0.0551729 -9.34339e-19)
(-0.0581877 0.0461575 -4.73863e-19)
(0.00339815 0.00227191 -6.58079e-20)
(0.00326641 0.00280081 -5.94365e-20)
(-0.0297617 0.0457182 5.06204e-19)
(-0.0234699 0.0541059 -3.72018e-20)
(0.0245847 -0.0164958 1.86676e-19)
(0.0256805 -0.0227006 -3.26024e-19)
(0.000205184 -1.19132e-06 -4.7437e-21)
(0.000151675 6.31198e-07 -2.91338e-20)
(0.000158244 -2.45926e-08 4.17007e-20)
(0.000307333 0.000521079 1.49441e-19)
(0.000321319 0.00056962 6.84164e-20)
(0.000273886 0.000553076 4.0196e-19)
(0.000915908 -0.00445419 -3.29264e-20)
(0.00121343 -0.00479747 1.88573e-19)
(-0.000692008 0.00308311 4.16277e-20)
(-0.000577989 0.00338701 1.85351e-19)
(-0.000426925 0.00310853 -5.33126e-20)
(-0.0500712 -0.0727687 1.42035e-18)
(-0.0391808 -0.0555517 1.64039e-18)
(-0.00350427 -0.00764791 -4.10603e-19)
(-0.0037464 -0.0065925 -5.11526e-20)
(-0.00458864 -0.00739378 1.32015e-21)
(0.0201927 0.0113979 3.5135e-19)
(0.0239848 0.012733 7.33952e-19)
(0.00409479 0.000609288 -8.06908e-20)
(0.00419469 0.00115733 -1.36129e-19)
(0.000433621 -0.000423014 8.93852e-20)
(0.000436934 -0.000367302 -9.13577e-20)
(0.000395595 -0.000408715 -1.5734e-19)
(0.000244175 2.51772e-06 -1.14008e-19)
(0.000241501 7.24959e-07 8.15804e-20)
(0.000259361 4.76659e-06 5.20007e-22)
(-0.000181201 0.000405715 6.02263e-20)
(0.000446744 -0.000467932 1.60805e-19)
(0.000489926 -0.000418838 -2.00279e-19)
(-0.00132989 0.00242054 2.16921e-22)
(-0.00153577 0.00237066 4.98807e-20)
(-0.00131284 0.00219908 2.90105e-20)
(-0.000590418 0.000728605 -9.38677e-20)
(-0.000641448 0.000733294 2.47825e-20)
(-0.000121745 0.000412115 8.62274e-20)
(-0.000104356 0.000449304 -9.58014e-20)
(-8.00555e-05 0.000407363 1.11606e-19)
(0.000229609 3.86951e-06 2.16501e-19)
(0.000206366 4.48552e-06 1.68816e-19)
(-3.70139e-05 1.59252e-05 2.27878e-19)
(-1.04863e-05 2.63989e-05 -2.29244e-19)
(-5.75915e-05 0.000244883 1.48141e-19)
(-6.52144e-05 0.000267689 8.47217e-20)
(-5.37912e-05 6.02413e-06 -1.32939e-20)
(-5.71844e-05 3.8608e-06 2.55379e-20)
(-5.32009e-05 7.68322e-06 -8.34117e-20)
(0.000337919 0.000471089 -2.56257e-19)
(0.000296305 0.000480218 -4.44628e-20)
(-0.00233722 -5.84376e-05 -9.67936e-20)
(-0.00241054 -0.000253186 -1.14271e-19)
(-0.00250321 -3.21945e-05 5.76934e-20)
(-0.000220531 -1.1146e-06 5.69089e-21)
(-0.000228165 1.01282e-07 -1.46875e-19)
(-0.000226521 -1.02834e-05 -5.28333e-20)
(0.000223107 0.000966716 -4.57678e-19)
(0.000243775 0.000821636 -1.14111e-19)
(0.000330521 0.000923633 2.58823e-19)
(0.0014813 -0.000877629 -2.21208e-20)
(0.0014926 -0.000645762 9.03773e-20)
(0.00193225 -0.00092001 1.38664e-19)
(0.00168449 -0.00104073 5.73378e-20)
(0.00188931 -0.00121953 -4.988e-20)
(0.0268539 0.00896517 3.15387e-19)
(0.0259081 0.0031104 -5.02737e-18)
(0.0266734 0.00258759 3.64052e-18)
(9.17424e-05 0.000964717 -1.25682e-19)
(0.000148299 0.0011097 -1.94064e-19)
(-0.00103975 7.13412e-05 -5.04579e-20)
(-0.00110286 0.000165926 -5.04196e-20)
(-0.00115883 5.15767e-05 -6.15636e-20)
(-0.201351 -0.308087 6.82657e-18)
(-0.19749 -0.289236 3.04721e-18)
(-0.168762 0.493597 3.97177e-18)
(-0.191369 0.294424 2.25753e-17)
(-0.209409 0.435449 5.37437e-19)
(0.000246424 1.16948e-05 -4.96437e-20)
(0.000227319 1.85328e-06 -5.55291e-20)
(-0.136993 0.542504 -7.91586e-18)
(-0.155694 0.653534 -2.69483e-17)
(-0.185053 0.778857 2.95289e-17)
(-0.215323 0.696517 -3.78658e-17)
(-0.000970305 4.42953e-06 2.138e-19)
(-0.000924007 8.8063e-05 -2.17391e-19)
(0.000231478 -1.39441e-06 3.90007e-20)
(0.000227278 -3.29887e-06 -2.26599e-19)
(-1.01974e-05 2.05918e-05 -7.2326e-20)
(-2.17906e-06 1.51406e-05 -5.77478e-21)
(-2.32892e-05 1.89342e-05 -9.92014e-20)
(-0.00226356 8.92778e-05 -2.74142e-19)
(-0.00217439 -9.03454e-05 -1.5134e-19)
(-3.25718e-05 0.000938226 1.09953e-19)
(3.15997e-05 0.000823289 8.88143e-20)
(-0.000211277 1.30223e-05 2.17735e-19)
(-0.00021253 -7.78968e-07 -3.1402e-20)
(-0.000383869 0.000505119 -2.76746e-20)
(-0.000331549 0.00051725 -1.06129e-19)
(0.00111895 -0.00174924 4.50697e-19)
(0.00127413 -0.00195563 -3.58234e-19)
(0.000332764 -0.000781974 -1.08033e-20)
(0.000230201 -0.000726887 2.13102e-20)
(0.000252107 -0.000834985 4.20208e-22)
(0.085397 -0.0823634 -8.41437e-19)
(0.0876014 -0.0673392 -3.94401e-18)
(0.0758416 -0.0677018 2.3922e-18)
(0.0273915 0.0161479 -3.08055e-19)
(0.0256313 0.0193925 1.27335e-20)
(0.026394 0.0138672 6.81152e-19)
(-0.0140643 -0.104582 -3.61675e-18)
(0.00242179 -0.0905885 8.26443e-19)
(0.0285871 0.00433107 1.40971e-18)
(-0.00374193 0.0160527 -3.72429e-19)
(-0.00300613 0.01462 3.88168e-20)
(-0.0020183 0.015857 -8.0529e-19)
(0.000493788 -0.000954097 1.70823e-20)
(0.000409486 -0.00102748 -2.36158e-21)
(-9.05222e-05 0.00182418 3.68725e-20)
(7.37617e-05 0.00196139 -7.3923e-20)
(0.000114276 0.00173442 6.63288e-20)
(-0.000671281 -0.00133565 -2.29633e-19)
(-0.000529271 -0.00125997 2.11314e-20)
(-0.00064017 -0.00124558 6.35828e-20)
(0.0262472 0.209089 -3.92187e-19)
(0.0310656 0.236937 4.1589e-18)
(0.0269537 0.261081 4.97008e-19)
(0.0277944 0.0187811 1.00061e-18)
(0.0276517 0.0119395 -2.21509e-18)
(0.0195409 0.147771 2.64747e-18)
(0.0122306 0.172596 -1.09087e-17)
(-0.000862388 0.0025598 2.29771e-19)
(-0.00079427 0.00283274 1.06951e-19)
(-0.00065783 0.00258986 1.16453e-19)
(0.10314 -0.0930249 3.36026e-18)
(-0.000165291 0.000424373 -8.58813e-20)
(0.000584441 0.000127573 4.71907e-20)
(0.000550613 0.000105672 -2.07239e-20)
(0.000543252 0.000139754 4.22347e-21)
(0.000508794 -0.000611734 4.14045e-20)
(0.000570658 -0.000608165 1.48624e-19)
(0.000520335 -0.000546113 1.37418e-20)
(-0.0124633 0.00374348 -1.39745e-18)
(-0.0136311 0.00413893 -2.561e-19)
(-0.013325 0.00278818 9.2197e-19)
(0.354672 0.0512611 1.13708e-18)
(0.411672 0.0335613 2.05324e-18)
(0.402297 0.0778339 -5.44689e-18)
(-0.00316177 0.00134983 2.73789e-19)
(-0.00293004 0.00133002 4.09825e-21)
(-0.00304809 0.00151211 4.80621e-19)
(-0.000113139 0.00105054 1.28458e-19)
(-0.00229276 -0.000466065 -5.49633e-20)
(-0.117929 -0.0702783 -1.00422e-18)
(-0.118381 -0.0957845 5.63334e-19)
(-0.129155 -0.0763774 -1.99173e-18)
(0.000203065 -0.000664648 2.00126e-19)
(0.000157782 -0.000657787 1.72634e-19)
(0.0581107 -0.0491147 -2.46686e-18)
(0.0653338 -0.0360999 -1.32517e-18)
(0.000492941 -0.000674049 -3.94209e-20)
(0.000460018 -0.000617053 -3.16757e-19)
(0.000437109 0.000429968 4.631e-20)
(0.000458104 0.000353124 4.18892e-21)
(0.000490077 0.000390547 -9.69348e-21)
(0.000444264 -0.000834166 2.72717e-20)
(0.000390298 -0.000727169 1.73633e-20)
(-0.00109013 0.00256101 -1.9136e-20)
(-0.000939872 0.00230697 1.38105e-19)
(5.32583e-05 8.53211e-05 -2.58622e-21)
(5.96781e-05 9.47231e-05 -4.25505e-20)
(5.80058e-05 9.1945e-05 1.658e-19)
(-0.0125892 -0.0195963 1.61077e-18)
(-0.0137548 -0.0233 -1.09486e-18)
(-0.0783231 -0.0445094 2.63678e-18)
(-0.0607667 -0.0344249 -4.17576e-19)
(-0.00285951 -0.0368781 -6.10023e-19)
(-0.0115164 0.00294922 -7.40783e-19)
(-0.0115735 0.00423902 -1.67197e-19)
(0.205735 0.146065 -1.13011e-17)
(0.171086 0.180635 4.89743e-19)
(0.203369 0.102524 -1.33155e-18)
(0.00102575 0.00170349 -7.58781e-20)
(0.000872819 0.00182193 8.40207e-20)
(0.000814929 0.00161697 -2.60057e-20)
(-0.166816 0.839617 -1.86399e-17)
(-0.182633 0.859767 3.02479e-17)
(-5.28041e-05 6.68222e-06 6.89183e-20)
(-4.6631e-05 7.06702e-06 3.28312e-20)
(-0.000528285 0.000683114 -5.51197e-20)
(-0.000542802 0.000740669 -1.41033e-19)
(0.088292 -0.064452 9.8356e-19)
(0.0865869 -0.0643775 -7.60028e-19)
(0.0862992 -0.0628076 -2.3703e-19)
(-0.193092 -0.11463 -2.24374e-18)
(-0.207275 -0.0261664 1.19163e-18)
(0.000431882 -0.000323433 9.34122e-20)
(0.000394396 -0.000312284 -2.45946e-20)
(0.000428241 -0.000285807 1.5271e-19)
(-8.50276e-05 0.000495079 -1.11185e-19)
(-0.000131269 0.000487742 -7.05747e-20)
(0.00120362 0.00049734 -1.75923e-21)
(0.00130687 0.00044745 -6.12861e-21)
(-0.0363323 -0.11561 -1.6987e-18)
(0.000955211 7.68721e-05 -7.42502e-20)
(0.000876877 -2.70004e-05 -3.03258e-20)
(0.00102149 -3.46811e-05 -1.01122e-19)
(-0.000590884 -0.00474713 -3.51569e-20)
(-0.000576572 -0.00504614 8.48777e-19)
(-0.00222856 0.0044147 -1.87188e-20)
(-0.00188571 0.00462985 3.95727e-20)
(-0.00193843 0.00413116 -5.74958e-20)
(-0.0193434 0.0125464 -1.00449e-18)
(-0.0178143 0.0101854 -1.2632e-18)
(-0.0205418 0.0104849 -2.99737e-19)
(-0.0147792 -0.0164884 8.25829e-19)
(-0.0108691 -0.0158829 1.28872e-18)
(-0.00194159 -0.0251374 3.50495e-19)
(-0.00651087 -0.0287275 -1.48768e-18)
(-7.24192e-05 0.00213359 1.85652e-19)
(-0.000207006 0.00194281 1.30854e-19)
(0.220403 0.10889 6.84333e-18)
(0.17115 0.227265 -1.30733e-17)
(3.02815e-06 2.26149e-05 -1.14607e-20)
(-1.71912e-05 2.98941e-05 4.59408e-20)
(-0.000498059 0.0019697 -7.21994e-20)
(-0.000705874 0.00202475 1.08374e-19)
(-0.000573267 0.0018317 -1.01375e-19)
(-0.117641 -0.054278 -1.72503e-19)
(-0.104225 -0.0630598 3.15333e-19)
(0.0010963 0.000440584 -5.06894e-20)
(0.00112747 0.000547391 2.13901e-20)
(0.054062 -0.0834303 8.19618e-19)
(0.0670598 -0.0886443 2.37525e-19)
(0.0640695 -0.0887821 8.13547e-21)
(-0.0658122 0.111163 2.30903e-19)
(-0.0409605 0.111551 -4.67811e-18)
(-0.0539073 0.137811 -2.74797e-18)
(0.000104675 0.000479721 6.67959e-20)
(6.8566e-05 0.000462881 1.52824e-19)
(8.23331e-05 0.000434393 3.0982e-20)
(-0.000943412 0.0031096 -1.96823e-19)
(4.98971e-05 8.05893e-05 -2.07168e-19)
(5.46192e-05 8.00221e-05 -2.93924e-19)
(0.0175916 0.0137483 2.12295e-19)
(0.0171647 0.0183546 2.73863e-19)
(0.0939359 -0.0658986 3.9474e-18)
(0.00192935 -0.00458615 -3.09332e-20)
(0.00181091 -0.00415428 -1.8348e-19)
(-0.00090712 -4.96644e-05 -2.4016e-20)
(-0.000811533 -2.36006e-05 -4.06051e-20)
(-0.000838366 -8.69019e-05 -4.4871e-20)
(-0.0692975 0.0906976 -6.00934e-19)
(-0.0900961 0.111288 3.79953e-19)
(-0.0212142 -0.0216572 -7.16741e-19)
(-0.0254726 -0.0243243 -7.1989e-19)
(-0.0250048 -0.0197446 7.84077e-19)
(0.000709729 0.00015847 4.66059e-21)
(0.000763694 0.000112742 -1.90916e-21)
(0.000625027 0.000116515 2.22652e-22)
(0.000622331 6.1117e-05 -2.24845e-20)
(-0.00326107 0.00122355 7.40039e-20)
(-0.00339526 0.00138166 1.1022e-19)
(-4.37452e-05 9.25645e-06 3.62429e-21)
(-5.03958e-05 7.79703e-06 1.91993e-20)
(-4.05503e-05 7.55335e-06 3.02713e-20)
(-0.0037588 -0.014605 8.91998e-19)
(-0.00344496 -0.0125035 -1.91993e-19)
(-0.00560411 -0.0135089 -1.9276e-18)
(0.0456058 -0.074702 -7.2458e-19)
(0.0423955 -0.0728968 -1.95678e-19)
(-3.04621e-05 0.000210917 8.19444e-20)
(-2.18381e-05 0.000201795 1.44866e-20)
(-1.79781e-05 0.000192874 1.07747e-19)
(-0.000509279 -0.000983544 4.70292e-20)
(-0.000556334 -0.00106192 -1.78278e-19)
(-0.00061001 -0.00102565 6.6041e-19)
(-0.158907 0.0418427 -6.03322e-20)
(-0.144565 -0.00455693 -1.26666e-18)
(0.00069688 0.0024515 -3.13755e-20)
(0.000962673 0.00233886 -2.04223e-19)
(0.00100503 0.00270016 8.07685e-20)
(-0.000501107 -0.00466402 -3.14526e-19)
(-0.000652476 -0.00461425 2.85873e-19)
(0.00144307 -0.000252289 -1.34863e-19)
(0.00146735 -0.000438468 4.01985e-21)
(0.00129017 -0.000366275 -6.93136e-20)
(-0.000701467 -0.000931965 -4.07102e-19)
(-0.000739773 -0.000871193 6.11467e-20)
(-0.000802008 -0.000945745 7.91815e-20)
(0.0119604 -0.0678246 -1.43425e-18)
(0.0239286 -0.0822649 -1.54815e-18)
(-0.000476004 -0.000900049 1.66067e-19)
(-0.000527115 -0.000871285 4.24816e-19)
(-0.000441918 -0.000824892 4.51226e-20)
(-0.00115507 0.000255916 4.63049e-19)
(-0.00102507 0.000259324 1.08221e-19)
(-0.000261187 0.000438362 2.15321e-19)
(-0.000279839 0.000398792 2.99455e-19)
(-0.00218891 0.000228088 8.32757e-21)
(-0.00233302 0.000263455 -6.80103e-20)
(-0.00130058 0.000261413 -1.05783e-20)
(-6.34408e-05 2.51875e-05 1.61026e-19)
(-7.5288e-05 1.60565e-05 3.37189e-20)
(0.00228332 0.00139538 -2.21369e-19)
(0.00208383 0.00150079 2.07279e-19)
(0.00227855 0.00163317 -1.61057e-19)
(-0.00634229 0.00639865 5.31123e-19)
(-0.00614385 0.00558315 -2.00814e-19)
(-0.00562635 0.0062734 -4.56156e-19)
(-0.0433687 -0.0308221 2.96044e-18)
(-0.0363827 -0.0290443 -2.56031e-19)
(-0.00329476 -0.00914859 -9.10934e-19)
(-0.00333898 -0.0106516 -3.01015e-19)
(-0.00473975 -0.00991563 6.80285e-21)
(-0.000640831 -0.000749738 -1.20977e-19)
(-0.000600603 -0.000694681 -1.30589e-19)
(-0.000672899 -0.000680459 2.99152e-19)
(0.00853375 0.00414699 -5.77772e-19)
(0.00834566 0.00317795 1.58506e-19)
(0.00939177 0.00354818 -1.12306e-19)
(-0.000422008 -0.00119024 2.51184e-19)
(-0.000403639 -0.00109907 -4.23051e-19)
(-0.000309879 -0.00112866 2.04787e-19)
(-0.00647583 0.00727566 8.83138e-19)
(-0.00708335 0.00642658 8.8002e-19)
(-0.000352021 -0.00348632 -2.85617e-19)
(-0.000178344 -0.00368713 2.15311e-19)
(-0.00012453 -0.00343706 -2.38648e-19)
(0.000783721 0.000268991 -4.83497e-20)
(0.000875364 0.00017142 -4.26219e-20)
(0.000742217 0.000157712 -2.18101e-20)
(0.0242788 -0.0272411 8.30706e-19)
(0.0210394 -0.0377199 9.82752e-19)
(0.0156587 -0.0341749 -3.20237e-19)
(-0.000410519 -0.000911078 -2.41672e-19)
(-0.0520971 -0.0332794 -2.38643e-18)
(-0.0480006 -0.0246283 1.83474e-18)
(1.19641e-05 4.26519e-06 1.80725e-19)
(7.29119e-06 2.8375e-06 1.32534e-19)
(1.22072e-05 4.23839e-06 -1.4215e-19)
(-0.00559284 0.0159616 -3.59904e-19)
(-0.0044225 0.018045 -2.94402e-19)
(0.000927319 0.000280394 1.89349e-20)
(0.00100543 0.00030125 -9.38484e-22)
(0.000962392 0.0002393 -2.35771e-20)
(0.00087932 0.000316697 3.24238e-21)
(0.000858961 0.000246983 1.04383e-20)
(-0.0204554 0.0151079 1.1054e-18)
(-0.0175277 0.0142766 -6.21809e-19)
(0.088054 -0.0681889 1.43395e-18)
(0.0854512 -0.0646482 -3.17127e-18)
(0.00306289 -0.00253813 2.26529e-19)
(0.00277817 -0.00271236 -1.84513e-19)
(0.00278947 -0.00231773 -2.73741e-20)
(0.00084969 0.00037009 -1.20064e-19)
(0.000706881 0.000351175 8.9161e-20)
(0.000136812 -0.000333934 4.9505e-20)
(0.000192606 -0.000368804 1.26192e-20)
(0.000161375 -0.000317585 3.106e-20)
(0.0129315 0.0134132 6.9673e-20)
(0.0109094 0.0136775 -8.21488e-20)
(0.0119095 0.0117737 -7.02034e-20)
(3.37796e-05 0.000441831 7.15709e-20)
(-3.28371e-06 0.000424955 -5.44929e-20)
(1.35538e-05 0.000389762 -6.04542e-20)
(0.012469 0.0178483 1.64362e-18)
(0.0153045 0.0263947 -3.1436e-20)
(0.00706741 0.0190866 1.39051e-18)
(0.0105087 0.00924243 7.83478e-19)
(0.0173842 0.016319 -8.91453e-19)
(0.000475861 -0.000327297 1.30454e-20)
(-0.0739928 -0.0700274 7.92668e-19)
(-0.100653 -0.0628392 -2.51644e-18)
(0.00010808 6.2378e-05 -1.8741e-19)
(0.000101174 5.36348e-05 1.89076e-20)
(9.3306e-05 6.76212e-05 -2.06799e-19)
(-0.00227629 -0.00809027 6.43785e-20)
(-0.00210821 0.000338564 -5.98142e-20)
(-0.00204449 0.000198047 -1.05548e-20)
(0.000744688 0.000253322 -2.67727e-20)
(0.000733254 0.000202122 -4.23709e-21)
(0.000793579 0.000223744 -6.82791e-21)
(2.26572e-05 -1.53464e-05 -4.26745e-19)
(5.30309e-06 -8.49653e-06 9.00371e-20)
(3.30188e-05 -1.2459e-05 -1.93326e-20)
(-0.00011052 -2.48263e-05 1.8187e-19)
(-0.00010439 -1.88353e-05 -1.00383e-19)
(0.000136325 0.000506759 1.22521e-19)
(0.000126703 0.000535192 -5.46581e-20)
(0.00248961 0.00125937 -3.37594e-19)
(0.00227553 0.00114877 3.03436e-20)
(-0.00613772 0.013105 -2.72073e-19)
(-0.00598348 0.0118316 -5.65474e-19)
(-0.0049066 0.0128668 1.06998e-19)
(-8.49807e-05 5.21604e-05 2.18976e-19)
(-7.4618e-05 4.76756e-05 -8.77633e-20)
(-6.39671e-05 6.50074e-05 6.0822e-20)
(-4.09571e-05 0.000506872 1.9815e-19)
(-6.10215e-05 0.000549115 8.9009e-20)
(-3.93327e-05 0.000236802 -9.69688e-20)
(-0.00208428 -0.0566084 4.95507e-18)
(-0.00450385 -0.0448152 -1.31807e-18)
(0.0024751 -0.00338265 -1.95773e-19)
(0.00227614 -0.00368182 -6.38373e-20)
(0.00212801 -0.00337382 -3.24651e-19)
(-8.87464e-05 6.77543e-06 -4.00687e-20)
(0.000235932 1.70789e-05 -5.601e-20)
(0.000223087 9.83296e-06 1.07035e-20)
(0.00022281 1.37655e-05 3.4546e-21)
(-0.0010609 0.00244264 -1.07862e-19)
(-0.00130141 0.00266282 -7.52775e-20)
(9.44027e-06 0.00418033 9.13381e-20)
(0.000275881 0.00444857 -7.89778e-20)
(0.000340338 0.00409438 -5.03622e-19)
(-0.00639259 0.0145234 -2.94459e-19)
(-0.00765939 0.0132637 1.00536e-18)
(0.000157471 3.55234e-05 -1.00789e-19)
(0.000161634 4.28915e-05 1.26771e-19)
(0.000153132 5.29726e-05 -9.58561e-20)
(0.0557026 0.0645849 4.55352e-18)
(0.0327725 0.0419915 -9.6268e-18)
(0.0626382 0.0373608 -4.33374e-18)
(-0.000999464 -8.3785e-05 -6.55677e-20)
(0.0280944 -0.0826937 -1.0756e-18)
(0.0138234 -0.0442283 4.96682e-18)
(0.0387066 -0.0661509 8.14319e-19)
(-0.0329107 -0.00622495 3.03568e-19)
(-0.0274883 -0.0435994 -9.17528e-20)
(-0.0356434 -0.0162522 -3.71448e-19)
(-4.33246e-05 -8.81585e-06 2.00234e-19)
(-3.38916e-05 -1.28811e-05 -2.8526e-19)
(4.7187e-05 1.37741e-05 1.16313e-19)
(5.07472e-05 1.65712e-05 -1.0791e-20)
(7.37126e-05 1.48807e-05 -9.93169e-20)
(0.000572175 0.00064918 -1.46108e-20)
(0.000488887 0.000731814 -1.74637e-19)
(0.000602454 0.000788664 7.35319e-20)
(0.0149324 0.0129241 4.31318e-19)
(0.013757 0.015338 -1.11869e-19)
(0.00162284 0.0122675 3.06154e-20)
(0.000697709 0.0122584 -2.99458e-19)
(0.00112676 0.0111634 1.53845e-19)
(-0.00203529 0.000421559 -5.71562e-20)
(-0.00190779 0.000397494 -5.16601e-20)
(-0.00196064 0.000496456 9.36281e-20)
(0.0331077 -0.100185 -1.00732e-18)
(0.020431 -0.0881386 1.13227e-18)
(7.98062e-05 3.53626e-05 1.95654e-19)
(6.24381e-05 2.63556e-05 3.72966e-19)
(7.63932e-05 4.26039e-05 1.45099e-19)
(0.000644214 0.000546171 4.46914e-19)
(0.000556075 0.000507148 -1.12318e-19)
(0.00257652 0.0122708 3.60234e-19)
(0.00216387 0.0135106 6.40928e-20)
(0.00313348 0.000470726 1.63902e-20)
(0.0031956 0.000735042 1.11917e-19)
(0.00342174 0.000525917 -1.47836e-19)
(0.00131197 0.00137551 -2.07418e-19)
(0.00124948 0.001239 9.7975e-20)
(0.00116415 0.00142622 -4.57215e-19)
(0.00159939 0.00260626 8.30113e-20)
(0.00131799 0.00283706 -4.30461e-20)
(0.0166709 0.0101297 -4.82507e-19)
(-0.0011667 -0.000445007 1.33895e-19)
(-0.00125368 -0.000489277 -1.58074e-20)
(-0.00123772 -0.000334726 2.19405e-19)
(0.00922479 0.0138082 4.39493e-19)
(0.00849338 0.0123356 -3.23659e-20)
(0.00742602 0.0137693 5.16121e-19)
(-0.00251248 0.00462172 -9.50179e-20)
(-0.00254409 0.00412855 2.33374e-19)
(-0.00087791 -0.000293585 -2.49334e-19)
(-0.000943072 -0.000326689 6.49924e-20)
(-0.000931418 -0.000209548 1.17922e-19)
(0.0245348 0.0244925 -1.68437e-18)
(0.21955 -0.09437 9.43677e-20)
(0.237276 -0.0535048 -1.69934e-17)
(0.203388 -0.0897129 -1.36977e-18)