/*--------------------------------*- C++ -*----------------------------------*\
| =========                 |                                                 |
| \\      /  F ield         | OpenFOAM: The Open Source CFD Toolbox           |
|  \\    /   O peration     | Version:  v2012                                 |
|   \\  /    A nd           | Website:  www.openfoam.com                      |
|    \\/     M anipulation  |                                                 |
\*---------------------------------------------------------------------------*/
FoamFile
{
    version     2.0;
    format      ascii;
    class       surfaceScalarField;
    location    "350";
    object      meshPhiCN_0;
}
// * * * * * * * * * * * * * * * * * * * * * * * * * * * * * * * * * * * * * //

dimensions      [0 3 -1 0 0 0 0];
oriented        oriented;


internalField   nonuniform List<scalar> 
14516
(
0.00232289
0.00703188
-0.00909367
1.53876e-07
3.1886e-05
-1.83907e-05
-0.00773104
0.0103419
-0.0046278
0.00671304
-0.00119941
-0.014145
0.00993246
0.00423955
0.013197
-0.00165365
-0.0113001
-0.00138396
0.000151477
0.00222509
0.0131583
-0.0118764
-0.001101
-0.0170421
-0.00172029
0.0186084
-0.00588994
-0.00819466
-0.00797793
0.0100586
-0.00202646
-0.0113599
0.000854644
0.0105219
-0.00476814
0.000736074
8.30692e-05
0.00125109
-0.00135666
0.00100365
0.000700145
0.00129453
2.81901e-05
-0.00130352
0.00708302
-0.00250726
-0.00474833
0.00247351
0.00480958
-0.0120109
0.00120171
0.0108489
0.00135608
0.000996825
0.0109706
-0.011993
-0.00111292
0.00889078
-0.00812302
-0.00477161
0.0016207
0.00318485
7.10417e-05
-7.10417e-05
-0.0148996
0.00201046
0.0130459
-0.00317906
-0.00100857
-0.00118196
-1.04062e-05
0.00122951
0.000188627
0.00602403
-0.00634268
0.0105721
-0.00354259
-0.00686955
-0.0187115
0.00134943
-0.0108352
0.0130919
-0.00204336
-0.000921369
-0.00375982
-0.00954746
0.00202583
0.00773208
0.000299754
0.000268078
-0.000415565
-0.00384814
0.0117433
-0.00782742
-0.0126081
0.00139301
0.0112525
-1.84319e-05
-0.000838731
0.0083879
-0.00985261
-0.0139481
0.0109912
0.0036151
7.16208e-05
-0.000290936
0.000183875
-0.0137678
0.00312951
0.00340312
-0.000710422
-0.00224005
0.00362373
-0.000678945
0.000181132
-0.00139688
0.00192809
-0.00276512
0.00126979
0.000815926
0.00675019
-0.000325635
0.00350501
-0.00317046
0.00172675
0.0113266
-0.0132399
0.00204987
0.00564339
0.00537912
0.00645266
-0.000152158
0.00797674
-0.00784166
-0.0133136
0.00322437
0.0101128
0.0158722
-0.0164079
0.000625811
-0.00117581
0.0073263
-0.00618748
-0.0125282
0.0130303
-0.000385707
0.0159864
-0.0168529
0.0109817
-0.00283274
-0.00812191
-0.0122527
-0.000437716
0.012989
-0.0092406
-0.00457763
-1.32301e-05
-0.000563674
0.00074058
-0.0114478
0.00185598
0.00959574
-0.0102552
0.0116834
-0.00141975
-0.00327563
0.00841775
-0.00327358
-0.00748912
-0.00402012
0.0011968
0.00858595
-0.00976287
-0.0127193
0.0025888
0.0111802
-0.0125362
0.00128118
-0.00150646
-0.00979577
0.00063175
-0.00864442
0.00743514
-0.00866257
3.26908e-05
7.90444e-14
-3.81425e-05
-0.016581
0.00288465
0.0131028
-0.000116153
8.47059e-05
1.38864e-05
-0.00246293
0.00797392
0.000262617
-0.0122001
0.00213886
0.0155142
-0.0174621
-0.000117707
6.12482e-09
0.000136136
0.00855524
-0.00215046
-0.00654071
0.00940429
-0.00305545
-0.00645285
0.00852183
-0.00728603
0.0102623
-0.00240027
-0.00776452
-5.75067e-05
-8.04676e-07
6.19701e-05
3.8315e-05
0.00317767
-0.00317324
-0.0126274
-0.00102639
-0.000246602
0.00337377
-0.00307389
0.00647697
0.00273632
-3.65847e-05
0.0158242
-0.0157117
0.0104144
-0.0107141
0.000480869
-0.0117837
0.00268835
0.00932259
-1.2396e-05
2.45933e-05
0.00100313
0.0086438
-0.00968323
-0.00301573
0.00247649
0.000623231
-0.00476594
0.00391944
-0.00101457
0.00323812
-0.00315686
-0.0128391
0.000275621
-3.86675e-05
-1.85788e-06
-0.000845984
-0.00203482
-0.000534354
0.00234144
-0.00172382
0.00203026
-0.00246454
-0.0110797
0.00201858
0.00923805
-0.00344874
0.000749797
0.00290176
-0.00255135
-0.000721311
-7.11888e-05
-5.56738e-06
-0.0136018
0.000941262
-0.0124827
0.00170886
-0.00114445
2.08382e-05
0.00152692
-0.0109578
-0.00211851
0.000576195
0.00261348
-0.00323719
1.26875e-07
2.87902e-05
-0.000489421
-0.0123567
0.0126869
-0.0189701
0.0167613
0.0029551
-0.0148482
0.0120437
-0.0077748
0.00760593
0.0183593
-0.00133776
0.00843778
-0.00688692
0.00526598
-0.0075875
0.00178706
0.00860508
-0.00381723
-0.000755515
-0.00228313
0.00281385
-1.95896e-05
4.55665e-06
4.76223e-06
-0.0114217
0.0126222
-0.000400349
0.000451773
0.0128903
0.000572395
0.0106805
-0.0112094
0.0125726
-0.0116023
0.0103575
-0.00247435
-0.00779363
-0.00322767
0.0030353
0.00134309
0.00714997
0.0167673
-0.00418967
-0.0126697
1.63279e-06
2.38437e-05
-1.84596e-05
0.0155485
0.00818381
0.0083988
0.00110645
0.00984804
-0.0110083
-0.0147947
-0.00396863
-0.000663924
0.0161593
-0.0153157
-0.00410645
0.00234514
-0.00126785
0.00212477
-0.00183632
-0.0154723
8.24526e-05
-5.51347e-05
-1.93712e-06
-6.57387e-05
-0.0108261
-0.0153982
0.00150742
0.0139735
-0.00024508
0.00505068
-0.00397616
0.000469605
-0.00211588
0.00160949
0.00126754
-5.03407e-05
-9.17164e-05
-0.00120523
0.00131708
5.77491e-07
2.24128e-05
2.40167e-06
-0.00211716
0.00255341
-0.00349677
0.00100539
0.00266764
-0.00750215
0.00846851
-0.00915539
-0.00210339
0.0113163
4.06879e-06
4.95532e-06
-0.0117516
0.00269189
0.0043664
-0.0101869
-0.000931285
-0.00238441
-1.54784e-05
-1.13026e-05
-3.02383e-05
0.000309816
-0.000236336
-0.00209394
-0.0132377
0.000574511
-0.00263036
0.00460199
-0.00415481
0.00934048
0.00388308
-0.00517846
0.00525127
-8.45267e-05
-0.0011173
0.00119185
0.00231722
-0.0143239
0.0119207
-2.36145e-05
1.94958e-05
3.60922e-05
0.0132066
-0.00204949
0.00305901
0.00856711
-0.00786456
-0.000699221
-0.00124834
8.19088e-05
-0.0017995
0.0110586
-0.00923585
0.0208396
-0.00577227
-0.014438
-0.00699956
0.0139322
-0.00685824
1.36576e-05
2.01789e-05
0.00538367
-0.0121936
0.00120886
0.00951932
-0.010806
-0.00976403
0.0153371
0.00013059
-9.3425e-05
-1.85884e-05
-0.00262246
0.0123691
-0.00971096
-0.0111021
0.00495812
0.00608739
-0.0100375
0.00752347
0.00249584
0.0144595
-0.0135393
-0.000982887
0.00266107
-0.0133246
-0.0121843
-0.000261561
0.0127579
-0.0169021
-1.06103e-05
0.00240209
0.0086486
0.00928433
-0.0118799
0.000275227
-0.0119241
0.0124357
0.00113499
-0.00122936
0.0114066
-0.0102672
-0.00810033
0.000110836
0.0084301
-0.0115131
0.0130372
0.0121094
-0.0127456
-0.00167841
-0.00281373
-0.00842129
0.0147969
-0.00371054
-0.0110384
0.00100898
0.00892614
-0.00982971
0.0114134
-0.00696626
3.69539e-06
0.000114323
-0.0176306
0.00278344
0.00446404
0.00824397
-0.0126925
2.21939e-05
0.0132072
0.0152865
-0.011793
-0.00347816
0.00112812
0.0153194
-5.85848e-05
-9.47416e-07
0.000517585
-5.13714e-05
-0.0013759
0.00137794
-0.012495
-0.00130293
0.00978339
0.000231662
-0.0104181
-0.000429155
-0.00670222
0.00721497
0.00083713
-0.0126219
-0.0012898
0.0125359
0.0116357
0.00414249
0.00662361
0.0082092
0.000321147
-0.000307799
0.00144039
0.00964206
-0.0112035
0.000709628
-0.0126558
-5.62189e-05
4.35274e-06
-0.0122511
0.011687
0.00066948
0.000546156
-0.00846028
0.00826778
0.00614669
0.0124026
-0.0184038
0.0101355
-3.12079e-05
-0.00742368
0.000127369
0.00308573
-0.00989252
0.0121344
-0.0135342
0.00325678
-0.0023077
-0.000832478
-0.00691324
0.00777331
-0.000845243
0.00813531
-0.00732601
3.25191e-05
3.31476e-05
-2.32812e-05
-3.43849e-05
0.00375932
0.0105279
6.17724e-05
-7.06023e-05
6.33057e-05
0.0101652
-0.00200806
-0.0081548
-0.0111867
-0.00103646
0.0144239
-0.013266
-0.000146797
-0.0133384
0.0136327
0.000329628
-0.000397085
-0.0124557
-0.00250586
-0.00856505
0.0113404
-0.0138378
0.00102782
-7.95668e-05
0.00131573
-0.00125107
-8.67919e-05
-0.0134446
0.0140951
-0.00877339
-0.000759843
0.0125693
2.57633e-05
-0.0123217
0.00323048
-0.00205365
-2.92281e-05
-0.0116992
-0.0153823
0.0134017
0.00252697
0.00067292
-0.000259721
-0.00155773
-0.00976975
0.0113378
0.00933844
-0.00111819
-0.00824788
0.000685519
-0.00848617
-0.00159732
0.00980767
-0.00820603
0.0118855
-0.0123915
0.00123042
0.000423532
-0.00947898
0.00878541
0.0180087
-0.0147494
-0.0028031
0.00250648
0.00677219
0.000914638
0.0118461
-0.0124978
0.00027781
0.00142063
-0.00177815
-0.00226423
-0.000705985
0.00295036
-0.000539456
0.00813354
-0.00747741
-5.99285e-05
7.23314e-05
6.13218e-06
0.00190487
0.0066801
-4.52599e-05
4.45168e-05
-3.71461e-06
9.02085e-06
-7.41725e-05
0.00621403
-0.00656506
-0.00418485
0.0124402
0.0103219
0.0021588
-0.0120203
0.00144468
-0.00122829
0.000111188
0.000914863
-0.000920593
0.00978268
-0.00265816
-0.00700882
0.00223119
0.0144787
-0.0166469
3.51224e-06
1.05924e-05
-3.01819e-05
4.34413e-06
-1.33549e-05
0.0108207
-0.000548273
0.0124839
0.000198894
-0.00277336
0.00308146
0.00876913
-0.00115122
-0.0140599
4.14537e-05
-0.000134705
8.19883e-05
0.00138656
-0.00179726
0.00105845
0.000487042
-0.000439887
-0.00732868
0.0135732
0.0101581
-0.0116898
0.0101155
-0.00429912
-0.00583309
-0.000171812
-0.00369054
0.00477483
-0.0147601
0.0161622
0.0139279
0.00599534
-0.0071546
-0.00159996
0.0126059
-0.0103613
-0.000878638
4.13251e-05
-2.07993e-05
3.38414e-06
-0.00936366
0.0104338
-0.000773162
0.0115134
-0.0108495
0.0046838
0.00534861
-0.00374806
0.0041527
-0.000152243
0.00823686
0.00417957
-0.0121625
0.00247941
0.00436954
0.00541325
-0.0100204
-0.00720744
-0.000526477
0.00750357
-0.00095516
0.000157421
-0.00182825
6.27491e-05
0.00241083
-0.000597321
-0.00124016
0.00176883
0.0031881
0.00667891
0.00461
0.00260605
-0.00726212
0.0119922
-0.0116337
-0.000169268
-0.00354461
0.0077585
5.9199e-06
-0.0002154
0.000735459
0.00117156
-0.00183633
-0.00229161
0.0068558
-0.0119373
0.00057368
0.0112745
0.0156601
-0.0125861
-0.00305872
-0.00975978
-0.00174275
-0.00306358
-0.0143965
0.0132997
0.00122742
0.00877423
-0.00745749
-0.00127941
0.0105432
-0.00106672
-0.0127843
0.0119152
0.000933568
-6.77642e-05
0.0151733
-0.00687837
-0.00829659
-2.53723e-06
8.07426e-05
-3.47671e-05
-2.82703e-05
-0.00388914
-0.00614426
-0.0011259
0.0113904
-0.0104361
0.0123847
-0.0125316
-0.00176695
0.00724828
0.00101326
-0.00110674
0.00013705
-0.0110487
0.0094414
-0.00841429
-0.00995851
-0.00111535
-0.0130314
-0.00109741
-0.00133016
-0.00482934
0.00621855
0.0133184
-0.011306
-0.00196026
-0.00273406
0.00252366
-0.0120625
-0.00517967
8.26008e-05
0.00017178
-0.000131952
0.00664448
-0.000717425
0.0132435
-0.00802629
-0.00507477
-0.00381918
0.0128347
-0.0117732
-0.000770628
-0.00473078
0.00844817
-0.0106966
0.00120826
-0.00116232
5.49033e-06
-0.0102783
0.0114457
-0.00150826
0.0134483
0.00956677
0.011441
-0.000378087
-0.0110283
-0.0103901
0.0133589
-0.00271569
-0.0126314
0.0124864
0.000119759
0.0106645
0.0148524
-0.00309914
-0.0119377
-0.00370703
-0.0127249
0.00989574
-0.0104462
0.000559028
0.000120253
0.01019
-0.0043719
-0.00562565
-0.000916201
0.00834169
0.0100078
-0.00755995
0.00480766
0.00558764
-0.0125545
0.00199327
0.00828977
-0.0110293
0.00291334
-0.00454968
0.0112002
-0.000276437
0.000393494
0.000960833
-0.00322489
-0.0111882
0.00160918
0.000153582
-3.76384e-05
0.000554897
-0.00800481
-0.0142077
0.000940958
0.0070376
0.0081312
-0.0124501
0.00226463
0.00251554
0.00768724
-0.00808563
0.00952934
-0.000630967
0.0133408
-0.0127882
0.0149384
0.000992936
-0.0162407
0.00821535
0.00996108
-0.00133864
-0.00859854
6.31291e-05
-0.00822615
0.00840082
0.0168717
-0.00325558
-0.0138644
-0.000654737
-0.0117485
0.000560865
-0.00445342
-0.00124921
0.0112004
-0.0102329
-1.76941e-06
2.67838e-05
2.89642e-05
-0.000394526
-1.50892e-05
0.00123368
0.0130669
0.00115818
-0.00972536
0.0062975
0.00863745
-0.00730917
0.0116048
-0.00451519
-0.000609739
-0.00831971
-0.000119625
-0.00346199
0.00363766
-0.01139
-0.00794515
0.00705549
-5.27682e-05
1.91151e-05
2.0368e-06
-8.45205e-05
-0.00175962
0.0020878
-0.0152779
0.00351777
0.00919838
-0.00965813
0.000446957
0.00325419
-0.00331872
-0.00135912
0.0012648
0.0019238
-0.0143397
0.0124073
0.00596261
0.00480278
-0.0108012
-0.000722545
0.000938021
0.0128595
-0.00978025
0.0143446
8.1248e-05
0.00918019
6.74993e-05
-0.000679915
-0.00685058
-0.000357993
0.00738551
0.00706375
-0.0111959
0.00260245
0.00730377
0.0118583
0.00132241
0.00350011
-0.00183613
-0.00113822
-0.013524
0.0148014
0.0105672
0.0138122
-0.014802
-0.00192519
-0.0090118
-0.00202475
0.00123616
-0.00131172
0.0102307
-0.0118444
0.0016528
-0.0021035
0.00271027
0.00506629
0.0105425
0.0067082
0.0173903
-0.0162276
-0.0015186
0.0132782
-0.012117
0.0102076
-0.00118558
9.58122e-05
-0.00210077
0.00706113
-0.00326605
0.00707063
-0.00291439
0.0166896
-0.0116979
0.000137361
4.39532e-06
-0.000117536
0.00227292
-0.00464499
0.00245097
5.61043e-05
-0.00207895
0.00436678
0.00914615
-0.0109366
-0.000680212
0.0119573
-0.0113949
-0.000188676
-0.00182145
0.00121583
0.000960011
-0.00102418
0.000787146
0.00373765
-0.0112998
0.0122899
-0.0117134
-0.00904601
0.0101675
-0.00910366
0.00818319
-0.000103521
0.0120709
0.00891937
0.00985387
0.0136174
-0.00773178
0.00926907
0.00391738
-0.00909974
0.000942591
0.00813172
0.0120292
-0.0114578
0.0153456
-0.0141283
0.00787691
0.0073173
-0.006112
0.0105525
-0.00444467
0.00609681
-0.00819642
0.000271815
-0.00688876
-1.91035e-07
0.00600162
-0.0069397
0.00100568
-0.000522798
0.00102031
-0.0138851
0.012865
0.00142221
0.00976917
-0.00722504
0.0140275
-0.000687719
-0.00762896
0.0104817
-0.0110974
0.0121724
0.00397861
-0.00300091
-0.000535581
0.000184757
-2.96741e-05
-0.0126952
0.0130339
0.01018
-0.00766446
0.0127182
-0.0117737
0.0031398
0.00109099
0.00994707
-0.00663711
1.57856e-06
-8.50198e-05
0.000673719
-0.000260927
-4.65892e-06
6.28663e-05
-6.7944e-05
-0.00994902
-0.011026
0.00481748
0.0104537
-0.00124264
-0.0122245
-5.10739e-05
-0.000334277
0.000481459
0.00648526
0.00321158
-0.00139175
0.0132421
-0.0117248
-0.0035146
0.00119197
0.00370166
-0.0030197
-0.00565502
-0.00708393
0.00731162
-0.00806368
-0.012836
-0.00126609
0.0103375
0.00976855
0.00209807
0.0112241
8.76627e-05
-8.18677e-05
1.55381e-06
-4.3916e-05
0.00935909
0.00146793
0.0120333
0.00820393
0.00848631
-0.00319259
0.0023882
0.00244589
-0.0039486
0.00362003
0.000670642
0.010234
-0.00113609
0.0127319
0.0133423
-0.000860843
2.24128e-05
0.000685923
0.00753438
0.000244645
-4.0588e-05
-0.000166958
0.0123324
-0.0110855
0.00577807
0.00529254
0.00067048
-0.00243919
0.00184527
0.0115585
-0.0124892
0.00766559
-0.00993185
-0.0131027
0.000601902
0.0109876
-2.08831e-05
-0.0109902
0.0109407
-0.000163655
-0.0122662
0.0127262
0.00723358
0.000854732
-0.0110824
-0.000233494
0.00951468
-0.00780646
-0.00161488
0.00735269
-0.00703513
0.00620973
-0.00184386
0.00259893
-0.00884593
-0.0137295
0.00106358
-0.0063522
-0.00138218
0.00784934
-0.0145446
-0.000427644
0.0149763
0.00852369
-0.00788111
-0.0140321
0.00575977
0.00851878
-0.00740161
0.00121079
-0.00353406
0.00121683
0.00290035
-0.00296059
-0.0105686
-7.46153e-05
0.00780954
-0.00453872
-0.00648407
0.00218558
-0.0145814
1.81845e-06
-0.0137539
0.013039
0.000890028
0.01495
-0.0157604
0.000635759
2.2583e-06
5.88812e-05
-0.00185448
-0.001247
0.0125422
0.00107571
-0.013604
0.00851998
0.00156084
-9.41368e-05
0.00112477
-0.0115974
0.0119902
-0.000321718
-0.000457719
0.00964089
-0.0110769
0.0104149
0.000297358
0.00041185
0.00262962
-0.00296611
-0.00165143
0.0117067
2.8176e-05
0.00527238
0.012137
0.0146625
0.00956046
-0.00868514
-0.000110437
0.000141688
-0.0146013
0.00360849
-0.00794787
0.0115791
0.00090212
-0.0125887
-0.0024469
0.000590141
0.00297038
-0.00555645
3.32673e-05
-2.56563e-06
-7.46794e-06
0.0116832
-0.00331193
-0.00135198
0.0114051
-0.00077287
0.00919472
-0.00143138
-0.00831645
0.00968231
0.00398737
0.0055983
-0.0109467
0.010856
0.00748425
-0.00696527
0.00237985
-0.000454376
0.00855173
-0.00762488
-0.00088067
-0.0125365
0.000949355
0.00288967
-0.000145589
-0.00281908
0.0138883
-0.0124491
-0.00133885
-0.0113431
-0.000903369
0.0121627
1.70303e-05
-0.000114257
8.52178e-05
0.00267704
-0.00315531
0.000472091
-0.000677203
0.00257508
0.00122957
-0.00147512
0.00955535
-0.0017192
-0.00779417
-1.39085e-05
0.000109982
-6.52602e-05
3.80872e-05
-2.97393e-05
-3.8137e-06
0.0113029
-0.011155
-0.000218586
0.00564863
0.00402872
-0.00997395
0.00724102
0.0114438
-0.00899787
0.0123837
-0.000193024
-0.0121527
-0.010838
-0.000755112
-0.0119639
0.000559522
-0.00915754
0.0104023
-0.00915825
0.00530328
0.00454099
0.00702362
-0.00100056
-0.0131529
0.00804248
0.00504851
-0.00624136
-0.00121203
0.00157573
0.00569741
0.0042969
-0.01197
0.0139015
-0.0106284
0.0113661
0.00167636
-0.0130499
0.012337
-0.0130391
-0.00394775
0.00756531
0.0163334
-0.012182
0.00889569
-0.00352268
0.0058962
-0.00613916
0.000554443
0.00956728
-0.0115632
-0.00109537
0.0094472
-0.00698549
-0.011772
-0.000283065
0.00676469
0.00439096
-0.0146531
0.00202
0.0126997
0.00128908
-0.0126658
0.0113284
0.0117654
-0.00152189
-0.00854935
0.0101811
-0.00160222
-0.00140156
0.00232629
-9.1893e-05
0.0126188
4.77506e-05
0.00830606
-0.00836139
0.00977808
0.000911725
-0.0103029
-0.0012701
0.0115805
-0.0119777
0.0021292
0.00154317
-0.00363393
2.30247e-05
-2.30247e-05
-0.00119946
0.00410766
-0.00188321
0.00159553
0.00843648
-0.00906199
-0.00986038
-0.000109692
0.00974795
-4.64408e-06
6.27557e-07
3.40619e-06
0.0131546
-0.0120515
0.000831858
-0.000873977
0.000420411
0.0139406
0.000389146
-0.0103633
0.00750634
0.00863762
0.00141722
0.00723031
-0.00132212
0.000138312
-0.0103773
-0.00138541
0.0118032
0.0109676
-0.0109212
0.00799225
-0.0067736
-0.000903145
-7.36131e-06
1.20666e-07
2.21199e-05
1.13323e-06
0.000245363
-1.70927e-07
2.46966e-05
-0.0126555
0.000855984
-0.00852006
0.00974528
0.000145538
-0.000124018
0.00669629
-0.00703688
0.00048065
0.00156507
-0.00142861
0.00300034
0.00121896
0.0125625
-0.0116776
-0.000500613
0.00102246
-0.0123795
0.0137484
-0.00358839
-0.00991822
0.000610765
-0.00044129
-0.00936552
0.00736028
-0.000240691
0.000129146
-0.0131793
0.0108013
0.00250319
0.00258191
0.00699974
-0.00942948
0.0115651
-0.00398936
0.00271538
0.00258765
1.1617e-05
-2.31055e-05
0.00457415
-0.00739258
-0.00890005
0.00894169
0.00219869
0.00761304
-0.00897797
-0.000603198
-0.00654628
0.00746541
0.0019981
-0.00940198
-0.0110457
-0.00202429
-0.00881762
-0.00292992
0.0120542
0.00602714
-0.00675948
0.000775638
-0.00103506
0.00435447
-0.00316866
0.000266327
-3.32682e-05
-5.4557e-05
-5.94028e-07
0.0109742
-0.00936873
0.00885972
0.000469504
0.000151916
0.000543977
0.00799176
0.00401878
-0.0113727
0.0123121
-0.00548873
0.00812304
0.000707676
-0.0117004
0.0108773
-0.00288717
0.000230978
0.00266149
0.00846778
-0.00770007
-0.0114758
0.00122381
0.0105439
-0.00465984
-0.0059728
-0.0125345
0.000965404
-0.00849709
-0.00283585
0.000833251
-0.00304052
0.000154403
0.00819311
-0.00843972
0.000296452
-0.000994014
-0.0115944
-0.00145778
-0.00712284
-0.00720979
0.0078554
-0.000642065
0.0157077
-0.0150315
-0.00252439
0.00300291
0.00235255
-0.00325655
0.00683166
0.000499591
-0.00738161
0.000301094
-0.00274699
-0.00744797
0.00818087
-0.000652567
-0.000152948
0.0019616
-0.00179214
0.00256666
0.00543405
-0.00803496
-0.00901724
0.00956551
-0.000534105
-0.00519347
0.0105136
0.012964
0.00178057
0.00148392
0.0101289
-0.0110186
0.000265451
-0.000369629
0.000199175
-0.00158337
0.0072234
-0.0057535
6.01877e-06
0.000126549
0.000815394
-1.03543e-05
3.80364e-05
0.0067099
-0.000759025
-0.00594863
-0.0112721
3.88109e-05
-0.00343541
0.000374241
0.00309884
-0.000139111
0.0149011
6.07921e-05
-0.00927236
-0.000420177
0.0107986
-0.0102798
0.000235568
-0.0114377
-0.0126514
0.000877187
0.00071622
-0.00964621
0.000296086
0.00811801
-0.00834822
1.6604e-05
-8.32377e-05
-0.00015643
0.000320726
-0.00282089
0.00243695
0.00837567
0.000607519
-0.00892368
0.0025556
-0.0110388
0.0021085
0.00413117
-0.005814
-0.00201896
0.000261796
0.00173977
0.00546292
-0.0040862
-0.0012883
0.00280032
0.000671572
0.00285584
-0.0025944
-0.00408793
0.00660476
0.000214716
-0.00912867
2.0792e-05
-0.00208135
0.0108848
0.000278656
0.00409284
-0.0083046
-0.000930584
0.0124759
-0.0113545
0.0109036
-0.01165
-1.0768e-05
0.000147648
-0.00011445
0.000788247
0.00477203
0.000656054
-0.0146603
0.0100431
-5.59927e-05
-0.00313602
0.0132782
-0.00630116
-0.00734847
-0.000391814
0.00313639
2.06979e-05
0.0135735
0.000453189
-0.0135705
-0.0011722
-0.00900537
0.00961094
-0.000935575
-0.0127381
0.0135737
-0.00906481
0.00837383
0.000892737
0.000216451
-7.4085e-06
-0.00678446
-0.00247578
0.00922556
0.0102364
-0.00259719
-0.00984222
-0.000218782
0.00182213
-0.0015504
0.000855426
0.00734745
0.000217353
0.00644113
-0.00629856
0.0126329
-0.0116298
0.0103045
-0.00101121
0.00349402
-0.00692495
0.0058496
0.000922631
0.00353196
-0.000970667
-0.00169391
-0.000323247
-0.00961632
0.00924017
0.000524032
-0.0165556
-0.00826031
-0.00101798
0.00918698
0.0117669
-0.0128448
0.00106503
0.0055204
0.00485122
-0.00359129
-0.000991308
0.00847594
-0.00791752
0.007136
-0.00108353
0.00396277
-0.000717649
-0.00307431
0.010066
-0.01039
-0.00892294
0.00208891
0.0108166
0.00122603
-0.0121685
0.0174756
-0.0100204
-0.0075641
0.00153219
0.00142221
-0.00297734
0.00882339
-0.00945017
0.000594912
-0.000675643
-0.00651667
0.00731434
-0.000649758
-0.0135038
0.0140465
-4.51524e-05
0.000397197
-0.000347593
0.00188028
0.000150293
-0.00195654
-0.000554709
-0.00594725
0.00659157
0.00293616
-0.00820947
0.000687632
0.010225
-0.011253
0.000506269
0.00713137
0.00512082
-0.00183374
-0.00323681
-0.00269164
0.00910179
0.0054175
0.00507643
0.00318609
-0.00706939
0.00257032
-0.00048299
-0.000824319
-0.00800014
0.00836194
-0.00976855
0.000154476
0.00862724
-0.000362244
-0.013859
1.96179e-07
1.69135e-06
-0.000345631
0.00145599
0.00639406
-0.00580947
-6.99987e-05
0.00866683
0.000185768
-0.0101089
0.010726
-0.0105098
0.00870541
0.00149054
-0.00117447
0.000410358
9.66434e-08
-1.29844e-05
0.00014997
0.000682551
-0.0080069
0.00759311
1.63e-05
0.00010885
-0.000105497
0.000805282
0.0109908
-0.00133081
-0.000672299
0.0142573
-0.000190365
0.00178236
-0.00164918
0.0169585
-0.0137975
-0.0024769
0.000758004
-0.0123486
0.00321428
0.000874764
0.00257354
-0.00220247
-0.000174865
0.000462216
0.00456397
-0.0136764
1.40132e-06
5.712e-05
0.0117584
-0.0108971
-0.0121162
-0.000419267
-0.000471978
0.000379999
-0.00724227
0.00730377
-0.000225975
-0.00162353
0.00158416
-0.00183123
0.0113328
-0.000546919
-0.000430513
-0.00758678
0.0080215
-0.00115107
-0.0117952
0.0130244
-0.00837433
0.00904171
0.00106709
-0.0094753
2.82686e-06
3.67846e-05
-8.7019e-06
0.000110466
-9.60293e-05
0.00247552
0.000357975
0.00307538
-0.00330178
-0.00734151
0.0082933
0.00107123
-0.00914768
0.00801804
-0.0113363
0.00784211
0.00316042
-0.000212175
0.00177718
-0.00160843
-0.00116959
0.0129525
-0.0117912
-0.00497997
0.000819439
0.00429066
1.14715e-05
-0.00153469
0.0121122
0.00179335
0.00152133
-0.00922052
0.00376711
-0.000659137
-0.00125376
-0.00979902
0.00242502
0.00304777
-0.0123237
0.0126257
7.92469e-05
0.00842165
-0.00926807
0.000934054
0.00031294
4.1302e-05
-2.45157e-05
0.000623989
-0.000294244
-0.00201075
0.00239543
0.00821579
0.0122409
-0.0103574
0.00741509
-0.000737876
0.00723684
2.94977e-05
2.78992e-06
-0.000368789
0.00300185
-0.0130613
0.01255
0.000467686
0.000423297
0.00134684
0.00263583
-0.000200499
0.00181121
-0.00154186
-0.00649682
0.00541488
0.00121068
-8.11452e-05
7.96935e-05
0.00109911
-0.000120602
-1.02338e-05
-0.0102527
0.000224204
0.00153033
0.00182742
-0.00162909
0.00185107
-0.00841623
0.00644944
-0.0102512
0.0117237
-0.00126243
0.00825189
-0.000551943
0.00606155
-0.0068267
0.000775531
0.00908258
-0.00587007
0.00209624
0.00171426
-0.011572
-0.00109055
0.000719228
0.000879913
-0.0107699
0.00865056
-0.015915
0.00707816
0.000162607
-0.000131112
0.00335838
0.00187241
0.000441011
-0.00876967
0.00832876
-0.00722735
0.00594783
0.00129239
0.00062003
0.00744509
-3.49398e-05
0.000356993
-0.00029937
0.00952922
-0.00831408
-0.00100533
0.011858
0.00895688
-0.000663921
0.00746802
-0.00669185
0.0108065
-0.00135203
0.00896212
-0.00533447
0.00026322
-0.000274664
4.03845e-06
4.3805e-05
-0.0010069
0.0091229
-0.00791613
-0.000590429
-0.00452848
0.00528675
0.000433464
-0.00711044
-0.000710726
0.00135466
-0.00116039
-0.000167999
-0.00208234
0.00180895
0.000241347
-0.00330823
-0.00982449
-5.12261e-05
0.00044357
-0.000383667
3.43849e-05
-1.81342e-06
-2.06077e-05
-0.000130657
-0.00102968
0.00118903
-0.00664047
0.00792696
0.00271563
-0.0118906
-0.00876299
0.00795077
0.00704023
-0.000942474
0.00600574
0.00233326
0.00762741
0.00528757
-0.0129232
0.0087312
0.00114095
-0.00984291
0.00885149
0.00421348
0.00952903
-0.0079625
-0.00163213
-0.00853124
0.00956085
-0.0146516
0.0139076
-0.0110519
-0.00081051
-0.011688
0.0097812
0.00741373
-0.00058338
0.000970662
0.008121
0.0141592
0.000569229
-0.0151088
0.000848274
-0.000389012
0.00270264
-0.00227224
-0.00104617
-0.00100653
-0.00801457
-0.00113888
0.009171
4.68745e-06
0.00926742
-0.00945432
0.00974241
-0.00320215
0.000460701
0.00114193
-0.00969642
0.000917175
0.00072074
-0.00169075
-0.00104968
-0.00998158
0.0114461
-0.000495586
0.0143894
-0.00178892
0.00165207
0.0121883
-0.0120944
-0.00036066
0.00665473
-0.0103685
-0.00108559
-0.00793879
0.00750818
-0.000398729
-0.0111954
0.0114522
-0.00837758
0.00815548
0.0117894
0.00128654
-0.0133531
-0.00881345
0.00077416
0.00931108
-0.000537077
0.00793546
-0.00726521
0.000212317
0.00310913
-0.00333188
0.0065455
-0.00738983
0.00344215
-5.74536e-05
0.0142973
-0.0133452
-0.000884057
-0.0120009
-0.000910188
0.00706815
-0.00761585
-0.00186891
0.000503062
0.0115386
-0.0018524
0.00171534
0.00927044
-0.0112544
0.0123548
0.00236768
0.00814812
-0.00916069
0.00088631
0.00192924
0.000297799
-0.0133113
0.0131631
0.000610219
-0.00855309
0.00898571
-0.00942265
0.000695982
0.000807569
-0.00574325
-0.00113146
-0.0077298
-5.00603e-05
0.00818381
-0.0148571
-0.000976511
0.00186812
-0.00411521
-0.0074592
0.000254126
0.00123304
0.00401207
0.00293122
-0.00679707
-0.00097629
-0.00907626
0.0101901
0.00224117
-0.000268327
-7.94393e-07
-2.34763e-05
1.87673e-05
0.00855253
-0.00757097
-0.00292698
0.00121077
0.00163121
-0.012148
0.000169882
0.00879175
-0.00835368
-0.0139766
0.013105
0.000828065
-0.0152681
-0.00120019
-0.00915348
0.000598488
5.03858e-05
0.0118482
0.000986217
-0.0131598
0.00936033
-0.000996352
-0.00831543
-0.00401232
-0.00906991
-0.0115351
-0.000814386
0.0120602
-0.0145422
0.0025801
0.0118067
-0.0148849
0.0135408
0.00146561
2.7065e-05
-1.00237e-05
-4.7129e-05
-0.00921978
0.00914393
0.00128617
-0.0129535
0.000943893
-0.0119435
0.000429438
0.0120939
-0.000334507
0.0116673
-0.0114261
-0.000914326
-0.000124965
-0.0113479
-0.000633948
0.0119703
-0.0111842
-0.00155151
0.0128266
-0.0138092
0.000594098
0.0129257
0.000337856
0.00247469
0.0031358
0.00509916
-0.0144914
0.00344987
0.0123981
-0.0134363
0.0016433
0.0155574
-0.0158166
0.000937323
0.0109964
-0.00969728
-0.012121
0.0116499
-0.00184691
0.00990885
-0.000489592
0.00199175
0.00870348
-0.00454896
0.0145273
-0.0028867
-0.0116723
0.000316586
-0.00888339
0.000585461
-0.0134739
0.012977
0.000619053
-0.00011495
-0.00678361
0.00705625
0.000871709
-0.0141728
0.013835
-0.0115462
0.0123399
0.0149538
-0.0145469
0.013198
0.00129824
-0.00105182
-0.0118046
0.0127142
0.00257763
0.00494116
0.000254882
0.0103386
-0.0108636
-0.0125929
0.00888785
-0.00737426
-0.000381577
-0.0111187
0.0114822
0.00217378
-0.00254415
0.00038753
0.0125696
-0.00117508
-0.011167
0.00095447
-0.0135396
0.014351
-0.00983841
0.000513901
-0.0115786
0.0113466
-0.000342807
0.00251748
-0.0138375
0.0143172
-0.00805159
0.00799376
0.000177644
-0.0156772
0.000668672
0.00865334
-0.000478234
0.000767935
-0.0128952
0.0117464
-0.00414858
-0.000973471
0.00159276
-0.0125964
0.00053913
-0.0128059
0.000712401
-0.00987699
0.00988679
-4.1931e-05
0.000216754
-0.000130417
-0.0105612
0.0100927
0.000655909
0.00124683
-0.00593534
0.00130792
0.00786066
-0.00912971
-0.000483732
-0.00900482
-2.68916e-05
-0.00932398
-0.00835351
-0.000631567
-0.0132383
0.000312702
-0.00123019
-0.00798536
0.000773415
-0.0146826
0.000267959
-0.013306
0.00850265
-0.00783948
-0.00934772
0.00963114
-0.00516508
0.00314216
0.000950149
-0.0122976
-0.00281368
0.00247513
-0.000345492
-0.00787839
0.00823501
0.0168254
-0.000811936
7.59929e-05
-5.64145e-06
-5.22323e-05
0.0078976
0.000614108
0.000721007
-0.00789098
-0.00010407
-0.00055727
-0.00428003
0.00204261
0.00549841
-0.00922474
0.000279676
0.00874861
0.000659372
-0.0122087
0.00482677
0.000593224
-0.0053721
-0.00230936
0.015176
0.00994907
-0.00112613
0.0102097
-0.0134366
0.00131026
0.0122189
0.00137066
-0.0113061
0.00999592
-0.000595112
0.00550689
0.00255029
-0.00282592
0.000328759
-8.00701e-06
8.0067e-05
-5.16588e-05
0.0113856
5.48888e-06
8.30144e-05
-0.000100328
-3.38337e-06
4.67676e-05
-3.92271e-05
0.00809189
-0.00842755
0.000908349
-0.0102497
0.0111837
-0.00078806
0.00869082
4.54531e-05
-5.01158e-05
-0.000907196
-0.0122812
0.0131655
9.22085e-05
-0.000136121
-4.15458e-06
0.00812603
0.0093718
-0.0131252
0.0116862
0.000412654
0.012242
0.012508
-0.0119748
-0.00071711
4.5399e-05
0.000824395
-0.01798
0.0171761
-0.00041256
0.0118164
0.00152083
-0.0132591
0.0135119
0.000788762
-0.0146071
0.00692795
-0.0024505
-0.0017536
-0.0136755
0.0153856
-0.0169122
0.00197753
0.0155805
-0.000402602
0.000359646
-7.76422e-05
5.78212e-05
4.89635e-05
0.000934647
-0.00933265
-0.0118297
-0.00146866
9.02121e-05
-0.0169306
-0.000205033
6.01409e-05
0.00831254
0.000971397
-0.000104581
-0.0145964
0.0151257
0.0086231
-0.00782593
0.00736358
0.00106769
-0.0026116
0.000287947
0.00230461
-0.0153874
0.00193801
0.0134221
0.00335844
-0.0038468
0.000632567
-0.00787428
0.00876848
-0.000919529
-0.00126827
0.0158647
-0.000634236
0.00418076
-0.000216869
0.00180916
-0.00157696
-0.00651421
0.00603832
-0.00520681
0.0119322
-0.00722311
0.00839337
0.000168983
-0.00955464
-0.000565373
-0.00585682
-0.000870406
0.00188711
-0.0093406
-0.0131136
0.00244802
0.00112583
-0.00168532
-0.0129167
-0.000108147
6.65034e-05
4.04451e-05
-0.00156257
-0.00244606
-0.000301645
0.000700086
-0.00899131
0.00810854
0.00037656
-0.00296188
0.00177636
0.0102596
-0.0118049
-0.00592467
0.0103921
-0.0139868
-0.000925009
0.0150521
0.00507377
0.00473051
0.00787814
-0.0078138
-0.00246099
0.0031128
-0.000483879
0.00168797
-0.00188901
0.0004408
0.00810906
0.00016178
-0.0108628
0.000471031
0.00787249
-0.00834209
-6.71432e-05
-0.006725
0.00678976
0.00278023
-0.000828954
-0.000566636