/*--------------------------------*- C++ -*----------------------------------*\
| =========                 |                                                 |
| \\      /  F ield         | OpenFOAM: The Open Source CFD Toolbox           |
|  \\    /   O peration     | Version:  v2012                                 |
|   \\  /    A nd           | Website:  www.openfoam.com                      |
|    \\/     M anipulation  |                                                 |
\*---------------------------------------------------------------------------*/
FoamFile
{
    version     2.0;
    format      ascii;
    class       volScalarField;
    location    "350";
    object      omega;
}
// * * * * * * * * * * * * * * * * * * * * * * * * * * * * * * * * * * * * * //

dimensions      [0 0 -1 0 0 0 0];


internalField   nonuniform List<scalar> 
9793
(
0.294991
0.317507
0.205663
0.0209858
1.91849
0.0217957
0.0215683
0.0207376
0.0214718
1.95752
0.04884
0.53515
0.0210164
0.0201538
0.0229384
0.0201073
0.0209986
0.0211249
0.163588
0.0201411
0.165884
0.0226196
0.462425
0.0196014
0.021336
0.0210842
0.0201267
0.0207142
0.0397427
0.0214628
0.0247338
0.427185
0.5828
0.0218649
0.0475094
0.958304
0.0222716
0.0225818
0.020792
0.0208433
0.0244889
0.0229563
0.0217454
0.021769
0.0217477
0.0212099
0.0464119
0.0800849
0.0418882
0.0209637
0.0633799
0.0619554
0.0219925
0.0214595
2.19526
1.27902
0.02139
0.0892733
0.772019
0.0207785
0.0213715
0.0220719
0.554441
0.0215623
1.36634
0.502998
0.549614
0.377226
0.334967
0.0492019
2.2018
0.0211425
0.0210589
0.293591
0.061913
0.678775
0.0213791
0.020242
0.0214723
0.0208794
0.473871
0.0214335
0.307072
0.0544117
0.0237095
0.0763707
0.0209648
0.0213694
0.0217807
0.0215916
0.317808
1.41043
0.0203085
0.424933
0.0219117
0.0644612
1.29033
0.316088
0.0202858
0.0201885
0.0201744
0.0212983
0.0203381
0.0203324
0.0202592
0.0235414
0.0217015
0.0214159
0.0218375
0.0642629
0.0213924
0.675912
0.0213792
1.31034
0.0621584
0.0213887
0.542935
0.0627242
0.0217221
0.383564
0.0852758
0.0230595
0.0212747
0.0219026
0.0216765
0.252969
0.0303376
0.0945286
0.0217617
0.021101
0.0219421
0.0213785
0.0210973
0.0213072
0.0214478
0.0213608
0.0217633
0.0215754
0.0213737
0.0199352
0.0212666
0.021277
0.0210888
0.0201756
0.0201969
0.0203716
0.293354
0.020183
0.0202881
1.52044
1.86915
0.0218992
1.87192
1.99364
0.0202747
0.022532
0.02071
0.0212261
0.0201742
0.021049
0.0207343
0.0206931
0.0200131
0.122801
0.297635
0.170149
0.0958658
0.0249499
0.0200883
0.0209861
0.0210513
0.596546
0.299889
0.605105
0.0216289
0.127821
0.021369
0.0195917
0.0211039
0.0246149
1.27353
0.0218877
0.0201871
0.0212829
0.624854
0.0210481
0.10851
0.0210965
0.021244
0.020024
0.0216343
0.0213073
0.0409304
0.617337
0.410855
0.0244302
1.0591
0.0209518
1.99479
0.0200006
0.021441
0.109705
1.29192
0.0211117
0.0213622
0.0202582
0.716877
0.0201012
0.0229952
0.0220581
0.0275792
0.045248
0.0412701
0.0214778
1.24489
0.0205782
0.0210544
0.571751
0.0202666
0.440136
0.138396
0.0213137
0.0216806
0.0213109
0.0822903
0.11732
0.021839
0.0202766
0.199685
0.0397945
0.0196424
0.0196021
0.0219257
0.0201388
0.0347599
0.3903
0.0213554
0.0210097
1.2164
0.0212093
0.0228491
0.0201729
0.0209786
0.57222
0.0209894
0.0202782
0.0207255
0.0212189
0.0202944
0.0215979
0.0214829
0.0229872
0.0563502
0.0324797
0.0209506
0.023116
0.0210456
0.023209
0.0217042
0.020099
0.258533
0.0209994
0.0557769
0.0214969
0.0252171
0.0198267
0.0197622
0.0274941
0.107927
0.0215552
0.0201176
0.0199415
0.0259818
0.0213325
0.312641
0.31286
0.0211115
0.880848
0.0213201
0.0324964
0.0211764
0.0196763
0.0219009
0.0207341
0.0303376
0.0213115
0.0214688
0.0242013
0.0209676
0.0213537
0.0213607
0.557206
0.0216136
0.0223026
0.0220553
0.0212984
0.021798
0.0245755
0.02122
0.398004
0.0202853
0.593317
0.561525
0.0219848
0.0216183
0.0201503
0.026773
0.0237607
0.0211325
0.572535
0.0215832
0.0201376
0.0239364
0.0215322
0.0213724
0.0213626
0.0677075
0.0209746
0.0250965
0.0220913
0.0209231
0.295255
0.596835
0.291187
0.0200631
0.495935
0.0218833
0.802874
0.068949
0.0199585
0.0222964
0.0518577
0.0211594
0.0224934
0.0641242
0.0206998
0.0216632
0.0214282
0.0209204
0.0207724
0.86825
0.0210938
0.020917
0.599761
0.0212119
0.0200936
0.0200205
0.0220261
0.0207125
1.42653
0.0217345
0.0212938
0.0214087
0.0212967
0.589105
0.0214424
0.0299117
0.0196072
0.0307482
2.02693
0.116205
0.0323117
0.0219438
0.0215815
1.09281
0.0215457
0.284618
0.0212497
0.0201862
0.548044
0.0223638
0.691245
0.0212988
0.0375158
0.736007
0.0217418
0.0210391
0.574612
0.0235689
0.297169
0.0231511
0.0214284
0.55802
0.0212327
0.0219872
0.0220981
0.0210447
0.020144
0.0214473
0.0228065
0.583551
0.0215576
2.47504
0.403283
0.914564
0.040023
0.282074
0.0207675
0.0214299
2.08483
0.401714
0.0201987
0.0216273
1.16455
0.019931
1.32475
0.021021
0.0228508
0.0199203
0.0293406
0.0210869
0.0238589
0.714469
0.02012
0.465099
0.0221532
0.0218018
0.0221581
0.0211365
0.0216031
0.0203761
0.0852151
0.021303
0.021386
0.0657842
0.0214209
0.0216772
0.0218866
0.0199924
0.0252399
0.0210479
0.021381
0.0198825
0.506817
0.0202803
0.505758
0.0209939
0.173414
0.0223334
0.0210785
0.0220704
0.0215573
0.642758
0.020946
2.0499
0.0200504
0.0210582
0.0219889
1.26279
0.0254469
2.23403
0.0412978
0.0219662
0.0212294
0.0340704
0.0251831
0.0287096
0.316901
0.457523
0.0215105
0.0217654
0.0376789
0.0212749
0.0215725
0.0212554
0.0203263
0.022006
1.25187
0.0239414
0.558961
0.0203359
0.027185
0.0195687
0.0216067
0.0220881
0.021449
0.0341192
0.0210482
0.0215856
0.0199054
0.0212796
0.0218128
0.0921235
0.0210616
0.0212302
0.547534
0.0220823
0.0217366
0.628045
0.148843
0.0216773
0.0222708
0.0221018
0.0218266
0.0213922
0.0218842
0.0217172
0.0210048
0.0210543
0.0209607
0.270117
0.0685924
0.0206493
0.671353
0.0333459
0.0202402
0.0216398
0.0214898
0.445912
0.021171
1.1935
0.0199728
0.0209879
0.0469917
0.0212361
0.0276678
0.541345
0.0258686
0.0202322
2.56727
0.0219832
0.0204929
0.0210506
0.0415664
0.0208509
0.0204785
0.0212439
0.0208497
0.542745
0.0346909
0.0320646
0.0217265
0.0210301
0.0209462
0.0213876
0.0212673
0.0212552
0.0772987
0.127403
0.0199531
0.0216535
2.02452
0.0211898
0.027655
0.0313215
0.0210926
0.0528672
0.557276
0.0213276
0.101199
0.0196977
1.307
0.0239049
0.552569
0.0210477
0.0209681
0.0210157
0.316599
0.0215962
0.640479
0.523091
1.16397
0.0283231
1.17271
0.0286743
0.022927
0.0257309
0.0215928
0.213046
0.0214247
0.403286
0.0198515
0.0278247
0.0217988
0.0217095
0.0209364
0.130149
0.0198738
0.0206549
0.0219177
0.0222739
0.0242837
0.0210683
0.0212112
0.021179
0.0211654
0.2263
0.020963
0.444112
1.36086
0.0209736
0.0215901
0.0279261
0.0216269
0.0212553
0.0214949
0.0217575
0.0238725
0.0218518
0.0222741
0.0204526
0.0216979
0.0218204
0.023344
0.0214865
0.0221259
0.684606
0.0212062
0.0924304
0.0232752
0.0217467
0.0212175
0.0206669
0.0217221
0.021821
0.0209798
0.0206718
0.0195373
0.0209605
0.0206663
0.0211505
0.0228332
0.0198438
0.0217093
0.0219927
0.0214347
0.0226182
0.0218879
0.0265107
0.022161
0.0209525
0.0212295
0.0204863
0.0198947
0.0210947
0.01992
0.0209043
0.0212144
0.0198675
0.0301867
0.0208684
0.0219982
0.0212911
0.294635
0.0210137
0.0199106
0.0463018
0.0196832
0.0212266
0.137273
0.021345
0.0220091
0.0219692
0.0859653
0.0206776
0.0418538
1.24014
0.562956
0.280516
0.0212017
0.0212924
0.349479
0.02104
0.0198916
0.28865
0.348128
1.8903
0.0212363
0.0459839
0.0212963
0.021285
1.24369
0.0211636
0.270129
0.0217738
0.0734313
0.0209425
0.0228865
0.0217526
0.117837
0.849822
0.0210372
0.0215803
0.0239687
0.0209017
0.0218053
0.0425497
0.266134
0.021028
0.027602
0.0210581
0.44359
0.0258544
0.549601
0.273094
0.0209833
0.0239478
0.606744
0.0210134
0.0211362
0.0219849
0.0214457
0.0198683
1.26797
0.0198738
0.466536
0.0222387
0.167358
0.0490321
0.0213999
2.21333
0.772653
0.0216364
0.565118
0.0237744
0.0607888
0.0198769
0.019673
0.309289
0.021168
0.870992
0.0209066
0.313946
0.0204168
0.097552
0.322186
0.0209717
2.28887
0.0213546
0.0219608
0.0297017
1.20394
1.23789
0.0199116
0.0204258
0.0199148
0.569742
0.989905
0.0221222
0.0225904
0.0300795
0.0198952
0.0209598
0.0213504
0.149398
0.0224537
0.0212067
0.0207273
0.0207565
0.286334
1.99153
0.0202565
0.0204878
0.0209014
0.344117
0.0211478
0.548533
0.0388157
0.463646
0.0624944
0.305813
0.0208173
0.0214077
0.0225186
0.0218156
0.0235007
0.0211952
0.0457098
0.353906
0.020365
0.719789
0.0207478
0.749684
0.0215093
0.153904
0.0235862
0.022626
0.0210274
0.020336
0.0228372
0.416581
0.633485
0.021232
0.0310326
0.0207
0.0222371
0.0231112
0.393337
0.0229721
0.0612573
0.0208136
0.0241606
0.02103
0.0198651
0.0218259
0.0209239
1.28751
0.0211218
0.0223702
0.0221524
0.0224616
0.0198572
0.0540534
0.0214018
0.0217744
0.0208304
0.0209673
0.350813
0.0210279
0.182019
0.0203695
0.0254867
0.0207101
0.0137476
0.021061
0.636467
0.0213742
0.0211866
0.020866
0.318748
0.348378
0.76451
2.43652
0.452664
0.0211543
0.022462
0.315237
0.0198784
0.264387
0.206416
0.0561765
1.87819
0.0222371
0.352966
0.021981
0.50548
0.317993
0.0222166
0.0214459
0.35528
0.156693
0.0229602
0.0228549
0.0211806
0.0214112
0.0277208
0.0210683
0.0198894
0.0218485
0.0228821
0.029655
0.0220185
0.473382
0.0208816
0.0199201
0.0291782
0.0759608
0.0282778
0.021692
0.0200391
0.0204587
0.019871
0.540363
0.019859
0.0221189
0.34789
0.337691
0.0211261
0.796433
2.20562
0.112673
0.209808
0.366936
0.0218447
0.145856
0.0214446
0.0208033
0.021245
0.0215771
0.0207546
2.1188
0.0212662
0.548454
0.0203439
0.0399642
0.0215427
0.0281919
0.0223881
0.0211117
0.0385658
0.0203205
0.0198879
0.180582
0.0218727
0.0260663
0.021073
0.0199767
0.325649
1.35873
0.0223507
0.0195616
0.0195413
0.020079
0.0217112
0.313898
0.129195
0.267476
0.029399
0.247465
0.0211976
0.0260643
0.02295
0.0227215
2.01864
0.0210371
0.0209461
0.0818941
0.0303691
0.446613
0.0210084
0.503273
0.3427
0.0229078
0.0313976
0.0224213
0.482224
0.0212824
0.0231436
0.304534
0.0222065
0.0210166
0.020737
0.0213983
0.0204628
0.0209411
2.39049
0.0214283
0.0233643
0.66417
0.0305919
0.0239788
0.0309634
0.111915
0.480138
0.0938748
0.0198913
0.0213902
0.0217657
0.0224241
0.0210866
0.430915
0.265574
0.0224296
0.749643
0.025483
0.321268
0.0214067
0.285241
0.0211995
0.328773
0.0595468
0.0205872
1.17962
0.434972
0.0208399
0.0213772
0.0212191
0.20941
0.785119
0.0256623
0.0440256
0.0232267
0.129111
0.37605
0.170874
0.0211381
0.0213582
2.42888
0.141694
0.0210395
0.0211376
0.0199162
0.0215072
0.0213482
0.0230347
0.107632
0.0211578
0.0219966
0.314131
0.0215282
0.0221939
0.02352
0.371839
0.0214137
0.0219196
0.122467
0.021634
0.0199482
0.0216852
0.0208762
0.0220552
0.336417
0.375814
0.0212638
0.137141
0.022453
0.0208257
0.0213127
0.0216889
0.021937
0.0214388
0.315599
0.0213813
0.0219169
0.0256872
0.0214427
0.020456
0.0232505
0.0211758
0.115206
0.0213734
0.0210273
0.585907
0.0210277
0.614919
0.0227077
0.0208989
0.455122
0.021859
0.0265376
1.19847
0.0201692
0.70302
0.020932
0.0213434
0.996125
0.687796
0.0201823
0.0213789
0.0206422
0.0215107
0.0612345
0.0218385
0.0212009
0.021743
0.0213585
0.0217343
0.0211541
0.020213
0.0209283
0.0211656
0.053561
0.0231791
0.0199781
0.0314609
0.0214973
0.11238
0.022184
0.0267874
0.021367
0.0211933
0.0602876
0.0225948
0.0212292
0.0213906
0.337684
0.203294
0.0213199
0.0197995
0.0517434
0.0534772
0.0196511
0.508044
0.0341172
0.0212386
0.0216412
0.0228445
0.0214637
0.0269164
0.375462
0.0212637
0.133221
0.0233116
0.0238697
0.0197987
0.0212825
0.0198214
0.0198042
0.140282
0.021017
0.0352882
0.0442059
0.0198119
0.0216872
0.024028
0.02213
0.0215164
0.0213606
0.0217374
0.61933
0.0198128
0.0214046
0.279925
0.0215014
0.0214774
0.0228459
0.0210366
0.0214934
0.0211405
0.0214133
0.0214819
0.0223869
1.75401
0.0422392
0.0198061
0.0213715
0.0198078
0.832447
0.0209807
0.0235471
0.021201
0.020124
0.0230559
0.0203618
0.0250837
0.0213438
0.0203737
0.0859052
0.427323
0.0216095
0.0215074
0.0209296
0.203861
0.124648
0.021364
0.486675
0.625165
0.0219798
0.0222292
0.351531
0.0232257
0.315886
0.0346843
0.0218894
0.0211519
0.0249225
0.129313
0.0203174
0.084419
0.893569
0.0213524
0.803274
2.43209
0.0232316
0.326557
0.0198032
0.0243825
0.0452021
0.0212134
0.336154
0.0198062
0.0328595
0.0966376
0.0197999
0.0383729
0.0214606
0.0217225
0.0274291
0.0225637
0.245647
2.57419
0.0199841
0.0229412
1.74293
0.0206763
0.0229284
0.0207817
0.341875
0.140213
0.020406
0.0211365
0.0230292
0.304339
2.49137
0.0248388
0.0198058
0.020866
2.61545
0.737454
0.158262
0.0223732
0.0223715
0.0235244
0.0199641
0.0219112
0.0229859
0.0224022
0.020827
0.0230071
0.486954
0.0726145
0.020936
0.196778
0.0232047
0.0636506
1.29517
0.0407529
0.681845
1.18602
0.019809
0.0889331
0.0898042
0.563487
0.131651
0.0211456
0.107903
0.350172
0.0422647
0.0244337
0.13127
0.107397
0.0210326
0.0232427
0.0228362
0.0211783
0.0538302
0.021204
0.0227978
0.0205926
0.0198154
0.0214195
0.0212755
0.0221917
0.0232457
0.285463
0.0229766
0.353673
0.0207925
0.023641
0.0214412
1.69311
0.588504
0.0211457
0.0446196
0.0212363
0.0201735
0.021263
0.0201162
0.0210072
1.20179
0.0214716
0.150901
0.0209539
0.0209226
0.467319
0.0218412
0.0216256
0.0211043
0.0211414
0.687671
0.0531714
0.503917
0.198318
0.390979
0.0214174
0.0215838
0.0211792
0.0227404
0.0351176
0.0604726
2.497
0.0209117
0.0416707
0.0218179
0.0926506
1.61667
0.0229309
0.806998
1.92822
0.0221617
0.0398608
0.020851
0.0368019
0.0217061
0.0834268
0.0357892
0.0198139
1.72957
0.508366
0.0215061
0.0221416
0.0216602
0.237817
0.0207947
0.0215489
0.649564
0.0207808
1.17486
0.0227309
0.0229026
0.0217983
0.0216011
0.0371543
0.0211049
0.145248
0.0228283
0.021214
0.0206869
0.0310265
0.0220623
2.59234
0.0215738
0.022962
0.0241378
0.0876418
0.0222338
0.0212082
0.166521
0.0215488
0.0203722
0.026146
0.153143
0.0228956
0.0204748
0.0214951
0.51297
0.0641882
0.021133
0.0250447
0.0201032
1.91317
0.0209237
0.0216888
0.0210741
0.0999678
0.0209237
0.0207131
0.0213313
0.0705183
2.50837
0.0209543
0.0228939
0.0216035
0.0217528
0.349024
0.0242016
0.0217522
0.0215641
0.0209896
0.176102
1.50589
1.10581
0.021182
0.126017
0.0201649
0.0201021
0.0215786
0.0217201
0.0383388
0.0213138
0.0209557
0.393684
2.4516
0.0227373
0.0214049
0.0214283
0.0366509
0.0205803
0.0211257
0.034044
0.0213831
0.0211948
0.0218311
0.0230354
0.0199391
0.940851
0.0337469
0.0230394
0.0224802
0.0206018
0.0223442
2.00511
0.0213165
0.0212129
0.021396
0.0209975
0.0213775
0.0208263
2.17373
0.729762
0.0214556
0.0218186
0.021111
0.0232506
0.0223846
0.0530757
0.0217884
0.973568
0.0212653
0.0216391
0.0207141
0.0884946
0.0214072
2.19751
0.0214195
0.0214063
0.0195496
2.59429
0.0224728
0.0224188
2.54555
0.0216815
0.0213981
0.0210822
0.0213517
0.0208498
0.0217082
0.0231914
0.597129
0.0214622
0.0637833
2.1409
0.0226636
0.147397
0.0213486
0.0224851
0.0209334
0.0203064
0.0201762
0.021309
0.293617
0.122838
0.020803
0.759596
0.0616374
0.0212184
0.0681235
0.020285
0.033776
0.0216717
0.0209915
0.158945
0.0213619
0.0220949
0.0236168
0.0579358
0.0690796
0.0217409
0.0209319
0.0220407
1.84267
0.704474
0.029641
0.0238252
0.0213663
0.0213507
0.392893
0.0214051
0.0261009
0.0206143
0.663991
0.0213589
0.0288366
0.0213151
0.0215912
0.0323439
0.0262912
0.0315893
0.0217989
0.0216615
0.0238758
0.310735
0.0365913
0.020361
0.0231326
0.0729354
0.0226796
0.0382404
0.0214879
0.0215605
0.0213019
0.0236163
0.24287
0.0582915
0.0213354
0.308659
0.0231533
0.024387
0.0214167
0.0213009
0.0213265
0.0200235
0.0527389
0.0222572
0.0220662
0.0217876
0.0212653
0.0213575
0.226988
0.0213773
0.0213433
0.0215919
0.0457141
2.14556
0.021359
0.0210438
0.0214097
0.110209
0.0217424
2.11294
0.0213692
0.0484915
0.0213573
0.021377
0.0338109
0.0215323
0.0274141
0.0215516
0.0213565
0.0202955
0.0221882
0.16627
0.021473
0.0217338
0.299164
0.0213355
0.0219271
0.0217658
0.0213978
0.0210956
0.0217441
0.04997
0.0207247
0.0207917
0.0209235
0.245423
0.0233036
0.420676
0.0213988
0.0214554
0.0378075
0.215879
0.300847
0.0235041
0.0280698
0.312427
0.0213784
0.495076
0.0215402
0.0893601
0.0209239
0.026465
0.626127
0.0195623
0.0232166
0.0218551
0.0219383
0.0199486
0.0741092
0.0208658
0.305469
0.0215255
0.0213442
0.0215963
0.019941
0.0215978
0.168555
0.0212748
0.0211094
0.0210982
0.0213534
0.0213269
0.589054
0.541415
0.464171
0.0213667
0.0200724
0.0226524
0.0214044
0.021254
0.0783165
0.0327358
0.021694
0.0212937
0.67553
0.0223609
0.55932
0.385579
0.0223464
0.020264
0.021259
0.0230568
0.877688
0.0212334
0.0211694
0.0302987
0.110121
0.0365422
0.542217
0.0212336
0.0229291
0.0229219
0.0198541
0.0215758
0.18592
0.419197
0.393768
0.0212243
0.158006
0.0215622
0.0213266
0.0229592
0.0216906
0.0230029
0.0246204
0.0211761
0.021418
0.0212193
0.0208561
0.0199003
0.0210293
0.0242145
0.124223
0.0237898
0.0195511
0.0199283
0.0212469
0.0216335
0.0212543
0.0225708
0.0217217
0.0217535
0.0217024
0.306268
0.0212066
0.022842
0.0963793
0.0212661
0.0212139
0.860411
0.021079
0.021325
0.0211976
2.3355
0.0240471
0.0393957
0.0215982
0.0968499
0.0200428
0.0200989
0.0203725
0.0211847
0.0282395
0.0212266
0.0215317
0.0357182
0.0212661
0.478726
0.0219725
0.0269864
0.0215745
0.48409
0.026051
0.0213489
0.0211072
0.0215826
0.0214487
0.0212444
0.400839
0.0209518
0.0381289
0.0211225
0.0212829
1.73204
0.0210203
1.32992
0.0715143
0.0212239
0.0993275
0.0211042
0.0216174
0.0212098
0.021594
0.020701
0.021245
0.0211845
0.0212043
2.10557
0.0213919
0.0209483
0.0216281
0.0207698
0.0211648
0.0211631
0.0213736
0.0204749
0.0212828
0.0211686
0.0213405
0.0211947
0.021691
1.28503
0.0210293
0.0215748
0.0306251
0.194541
0.0199796
0.0227301
0.0209488
0.0211027
0.0212141
0.0212301
0.656376
0.192848
0.0210881
0.0222001
0.339699
0.0213712
0.00850715
0.56719
0.0198693
1.28053
0.0213857
0.125705
0.0235872
0.032361
0.100341
0.598168
0.0209622
0.0210641
0.0199566
0.0241283
0.0575446
0.0220513
0.104526
0.688719
0.0213117
2.60828
0.0284906
0.0204099
0.0203627
0.0322421
0.0314385
0.021198
0.0209788
0.0200973
0.0229831
0.0230219
0.0230289
0.0230705
0.0229712
0.0414664
0.0210079
0.0211276
0.0211173
0.25089
0.0229642
0.0230444
2.39392
0.0303996
0.0242629
0.0209879
0.0229862
0.0211684
0.027669
0.021321
0.0218154
0.0289156
0.0225459
0.07208
0.0198202
0.2972
0.0270788
0.0883961
0.296703
0.24468
0.0210679
0.0213077
0.0212954
0.0740221
0.0213619
0.0208675
0.0212895
0.0288349
1.21702
0.305399
0.0230573
0.0217151
0.0327071
0.0364861
0.294502
0.0268208
0.0277181
0.0305147
0.0331286
0.31229
0.0210905
0.0211031
0.0210772
0.0386065
0.0221051
0.0273453
0.0211461
0.0211759
0.0210968
0.25434
0.0211345
0.0210705
0.0210093
0.0339343
0.0209138
0.0211159
0.0202743
0.0233712
0.0803981
0.0259778
0.0229282
0.0214182
1.88423
0.0227853
0.0200235
0.021299
0.0165671
0.0293146
0.0213573
0.0213666
2.29059
0.0210448
0.0209604
0.0209228
0.0212053
0.0309896
0.0209759
0.0214169
0.021076
0.02143
0.0211351
0.0210861
0.0210428
0.0211487
0.0211815
0.204444
0.021215
0.0206449
0.0314896
0.0482462
0.0260349
0.047835
0.0209423
0.545552
0.0212633
0.0234407
0.0210467
0.0365174
0.0210229
0.0211919
0.0200866
0.0347005
0.0229895
0.021151
0.074072
0.0211031
0.0200767
0.0210997
0.0217418
0.0250497
0.0209145
0.529094
0.0213676
0.0217377
0.0306901
0.0211733
0.0268124
0.020983
0.0205686
0.0211475
1.17751
0.0225045
0.0237269
0.027385
0.118427
0.023654
0.0273263
0.0230273
0.0212073
0.0197856
2.49432
0.0325497
0.0209562
0.0264327
0.0208458
0.0209689
0.477012
0.0204503
0.021173
0.407744
0.0268698
0.51339
0.0211529
0.0209907
0.0264312
0.0209044
0.0199762
0.0679726
0.0210814
0.0236138
0.0747519
1.20186
0.0212781
0.0218341
0.0210876
0.0199087
0.0207817
0.0214695
0.0213702
0.0295534
0.0206458
0.0226287
0.0211934
0.021937
0.0232301
0.548383
0.022961
0.0213916
0.155639
0.336979
0.0211089
0.0320018
0.021365
0.0211627
0.0211584
0.0209269
0.0231204
0.0250182
0.0304862
0.0210558
0.02309
0.0214305
0.0197493
0.0209789
0.0211248
0.022199
0.0207967
0.0210306
0.0214799
0.0212193
0.535225
0.0213354
0.0215361
0.0543875
0.0216016
0.020183
0.132568
0.8339
0.591649
0.340846
0.052074
0.0204956
0.02175
0.0593256
1.17056
0.0332371
0.23525
0.242844
0.0213858
0.322237
0.51528
0.0213226
0.0305043
0.0216876
0.499164
0.0303584
1.20658
0.0216815
0.0209415
0.0481095
0.0211244
0.0211646
0.0301978
1.19959
0.0212642
0.0213606
0.0210062
1.29717
0.0210032
0.0209905
0.0211887
0.0209734
0.0209711
0.0297431
0.0216292
0.0209242
0.0211804
0.0269386
0.0351992
0.478068
0.0211684
0.0210327
0.0222009
0.0211787
0.0209528
0.0211053
1.70212
0.0211137
0.0327014
0.0211002
0.0212178
0.0202639
0.0211918
0.555389
0.0291321
0.0204981
0.0213247
0.311603
0.641096
0.0256257
0.5072
0.0211651
0.0270832
0.0210622
0.0197408
0.0210193
0.0200897
0.0210214
0.0211872
0.0213855
2.16854
0.0198611
0.167731
0.501187
0.0198815
0.0241861
0.0405406
0.0216279
0.0210861
0.021182
0.0210273
0.0209588
0.336997
0.0197946
0.0209826
0.0330094
0.0210507
0.0212248
0.020955
0.0354766
0.0213262
0.0213185
0.492053
0.0206346
0.0205689
0.0210097
0.0256303
0.0211867
0.0196272
0.0210512
0.019871
0.0953526
0.0272664
0.0209785
0.030866
0.019773
0.0211584
0.0213723
0.194583
0.734946
0.0199671
0.0219328
0.0212443
0.0210862
0.0210123
0.0210568
0.263228
0.312886
0.0211527
0.0216316
0.0208687
0.0209374
0.0209983
0.0229212
0.0266337
0.446495
0.0211644
0.0228923
0.681669
0.0210685
0.0231913
0.0628674
0.0849452
0.0206948
0.0209049
0.0208915
0.0210204
0.0209346
0.295118
0.0209883
0.666127
0.0332939
0.021653
0.0230902
0.32005
0.0202609
0.0300817
0.265477
0.02067
0.02348
0.0211337
0.0219016
0.259423
0.0207996
0.0239967
0.0209139
0.019958
0.0200426
0.0200859
0.0210802
0.838019
0.0213434
0.491996
0.138431
0.0722725
0.535087
0.0197624
0.021338
0.0220973
0.0303102
0.0211281
0.0770032
0.0229745
0.0199571
0.0208954
0.293469
0.0208858
0.0235656
0.232269
0.0210018
0.340779
0.0215861
0.0264036
0.0633049
0.0213364
0.0205582
0.0259692
0.0787222
0.0210691
0.0223785
0.0201483
0.020404
0.0208343
0.452122
0.0209362
0.0199769
0.0303406
0.020053
0.329128
0.021354
0.021148
0.0210138
0.0659928
0.0209169
0.0208555
1.30636
0.0630231
0.103061
0.0211291
0.0200648
0.024589
0.0693592
0.133732
0.218557
0.0229716
0.0230294
0.0213249
0.0212055
0.0230214
0.0215508
0.0209914
0.0203418
0.0240865
0.0230661
0.0208856
0.0196103
0.0213117
0.0205459
0.0210673
0.0230381
0.0289736
0.269665
0.0239292
2.14443
0.43166
0.0206009
0.0209055
0.0217505
0.0340468
0.0201579
0.0211724
0.0208762
0.0209317
0.0210929
0.0464143
0.0211379
0.0336429
0.0212198
0.0208026
0.101293
0.0369984
0.0211647
0.020828
0.0208135
0.274077
0.0175598
0.0213017
0.0201842
0.0211615
0.0208954
0.0211805
0.02096
0.15881
0.0209692
0.0208129
0.0314434
0.0204283
0.0790874
0.0232142
0.0209693
0.0212242
0.229882
0.0270144
0.197724
1.06853
0.0232875
0.0218574
0.0215388
0.0212086
0.0220629
0.0207809
0.107192
0.626963
0.0220633
0.0267328
0.274895
0.0208041
0.496427
0.0219492
2.4019
0.0214159
0.0207482
0.0207624
0.0215615
0.021034
0.0267974
0.400395
0.0250807
0.0210534
0.0208553
0.0208239
0.0273882
0.0219531
0.140769
0.0208451
0.0210533
0.0247576
0.0209496
0.0329465
0.0282919
0.0208353
0.0211992
0.0197278
0.0210455
0.233906
0.205105
0.0208239
0.0209804
0.0206268
0.322663
0.0211108
0.0225681
0.162569
0.0296061
1.97921
0.0286983
0.084402
0.021202
0.0250353
0.0214365
0.0209933
0.0221826
0.0220182
0.0204179
0.0210088
0.0257085
0.0211078
0.0199961
0.339064
0.019948
0.0209704
0.0263837
0.190247
0.0199494
0.020163
0.048476
0.198454
0.0315211
0.557397
0.0204614
0.262936
0.0209509
0.023176
0.0260069
0.0734611
0.699786
0.021913
0.456057
0.0246445
0.333041
0.0205705
0.0209924
0.0201539
0.0211304
0.0271825
0.0207367
0.0554112
0.0200257
0.0212747
0.0211423
0.439727
0.021292
0.259454
0.0221885
0.0238851
0.0227696
0.0226829
0.0451575
0.0197099
0.0372195
0.0211412
0.0513506
0.0211895
0.0292301
0.408482
0.0248522
0.530958
0.0207588
0.109572
0.0232762
0.0239237
0.0212947
0.0522188
0.0212485
0.0208563
0.0211582
0.0340043
0.021295
0.0235483
0.064461
0.0225143
0.0412786
0.0208155
0.0199477
0.225108
0.028454
0.330461
0.764734
0.0208081
0.017675
0.456291
0.0525502
0.0206375
0.029887
0.236615
0.020737
0.0210258
0.0197722
0.0547331
0.37312
0.311881
0.0321069
0.0207695
0.020624
0.0215306
0.0201421
0.0214637
0.0231229
0.0217531
0.02032
0.731371
0.0213987
0.0210499
0.0205267
0.152081
0.0321084
0.0217114
0.0240123
0.021825
0.534108
0.0207493
0.354137
0.0212748
0.0306428
0.594214
0.021225
0.765036
0.0203625
0.0198592
0.0207622
0.0208023
0.0206131
0.0207851
0.0197545
0.0377234
0.0232836
0.0209502
0.717237
0.0208341
0.0210935
0.0206035
0.638959
0.020965
0.0222158
0.0354135
0.0671218
0.0208829
0.0197632
0.507638
0.0210849
0.513318
1.1847
0.0210908
0.0215052
0.024247
0.238329
0.570043
0.0201091
0.0206015
0.0221266
0.0250532
0.022286
0.335683
0.0678905
0.0212487
0.0215605
0.022052
0.021747
0.0132243
0.751924
0.0205104
0.45051
0.0235661
0.0212486
0.0208869
0.0208335
0.0208109
0.0206114
0.0209505
0.0207138
0.021475
0.188059
0.0217764
0.0211351
0.0223489
0.0230185
0.0205482
0.0206778
2.13513
0.0216741
0.023486
0.0205338
0.0212235
0.0205096
0.0199272
0.693709
0.0212907
0.0210407
0.717826
0.76835
0.548121
0.0208452
1.19509
0.021321
1.25766
0.726488
0.0213637
0.709533
0.0206441
0.0202549
0.53532
0.0208177
0.0566859
1.2929
0.716628
0.023186
0.028455
0.0210814
0.0207875
0.0217683
0.0206125
0.689262
0.651924
0.0208353
0.704868
0.0376991
0.0197194
0.0206261
0.200167
0.122411
0.0334296
0.0224025
0.290119
0.5169
0.0211177
0.656972
0.49545
0.258901
0.660128
0.019417
0.714019
0.0197491
0.0386794
0.0894495
0.0197917
1.0395
0.681049
0.0329022
0.0196226
0.544688
0.0203505
0.0206329
2.04356
0.565769
0.0206439
0.0212764
0.02067
0.0198137
0.0230677
0.0207597
0.0259074
0.0247995
0.021818
0.0213466
0.0978598
0.0249218
0.542191
0.0531063
0.0206529
0.315051
0.021005
0.359304
0.0225045
0.0199688
0.684708
0.0211281
0.146625
0.0212886
2.00164
0.0210182
0.0210677
0.0201931
0.0212049
0.0204314
0.0212594
2.37452
0.490985
0.0205573
1.94253
0.212643
0.0202753
0.0205213
0.532988
0.0249193
0.155709
0.47382
0.748085
0.020522
0.0210891
0.134983
0.023997
0.359846
0.0235308
0.0205897
0.0211234
0.0205482
0.0197813
0.0205517
0.0357284
0.0205347
0.311987
0.0208675
0.0212986
0.0644909
0.0197534
0.0349172
0.504205
0.0207625
0.0207479
0.0209164
0.0232174
0.0196227
0.0200942
0.116572
0.361092
0.0247543
0.0211473
0.030683
0.0204868
0.021029
0.0211956
0.882499
0.0276323
0.198868
0.034248
0.0282371
0.0315092
1.11475
0.0209781
0.0218154
0.0196287
0.0196462
0.0239422
0.0207808
0.488553
0.294214
0.0220068
0.454227
0.0215728
0.699314
0.062693
0.0199674
0.0231023
0.022414
0.0917222
0.021234
0.0204059
0.0200756
0.0252009
0.691909
0.473249
0.474421
0.0209365
2.07304
0.0205451
0.130349
0.261012
0.0204176
0.0216611
0.0209567
0.577059
0.32837
0.0215189
0.019619
0.0262629
0.0221221
0.0478562
0.0213187
0.020883
0.507518
0.302624
0.0204661
0.0251673
0.0206481
0.0232527
0.0212336
0.457653
0.0206738
0.0213299
0.0371459
0.0212961
0.020814
0.2977
0.0384986
0.0213455
0.0210903
0.0215265
0.0205563
0.0204413
0.0601155
0.396341
0.0207945
0.0221202
0.0207913
0.0213233
0.0213092
0.0210588
0.493532
0.3153
0.0256535
0.403411
0.0207262
0.0251925
0.0208154
0.0212938
0.033824
0.0211676
0.0287335
0.0206896
0.125086
0.0212449
0.0829429
0.170055
0.0200723
0.020806
0.0445682
0.0352734
1.26867
0.342518
0.0353632
0.49786
0.0230281
0.0211521
0.11448
0.0207255
0.115403
0.01988
0.0565456
0.0278215
0.0207846
0.0208835
0.0208252
0.0228285
0.333635
0.0210468
0.0251823
0.0210053
0.0265751
0.0204302
0.0228447
0.0617023
0.0203962
0.0430338
0.128292
0.020152
0.441371
0.0811478
0.00585282
0.0204174
0.48036
0.0205506
0.0201637
0.0287965
0.0204064
0.757625
0.0199172
0.0207708
0.020444
0.0233019
0.263917
0.0207157
0.392354
0.0197639
0.0238117
0.395679
0.0208048
0.248069
0.04163
0.0256163
0.121001
0.0211585
0.0204983
0.916332
0.0204188
0.0203175
0.0205583
1.37201
0.309837
0.6695
2.11136
0.0200523
0.0209834
0.0200926
0.245613
0.0206222
0.706974
0.0276723
0.0211992
0.392638
0.518887
0.325613
0.0203278
0.0200497
0.0225508
0.0212147
0.0488959
0.678172
0.0202751
0.022057
0.0206552
0.46658
0.0409811
0.0207093
0.618037
0.0209413
0.0211387
0.0197896
0.0200615
0.127862
0.242988
0.0203959
0.0352598
0.471707
0.0198389
0.483437
0.0205609
0.0208646
0.0481743
0.0202778
0.694312
0.0197876
0.025077
0.059652
0.0197487
0.0200309
0.0210526
2.00296
0.0226701
1.86817
0.0915853
0.0229869
0.0232164
0.101102
0.0204673
0.500245
0.0505866
0.0206012
0.300614
0.0924644
0.0625847
2.07171
0.0695478
0.0203172
0.493063
0.0573225
0.300003
0.152135
0.0204299
0.0202585
0.0207096
0.669174
0.0202446
0.0200977
0.0848318
0.022862
0.0211865
0.0203083
0.0207947
0.0202333
0.0201167
0.0323515
0.0207978
0.131606
0.143415
0.019704
0.0219078
0.0205917
0.020329
0.271557
0.0279091
0.498161
0.517959
0.020464
0.020636
0.0379661
0.239184
0.321268
0.0203502
0.646449
0.425586
0.0198711
0.0257939
0.0253792
0.0200969
0.0208028
0.0205397
0.0207936
0.0200424
0.0481146
0.683616
0.0206296
0.30939
0.02119
0.029814
0.0208816
0.0212795
0.0233943
0.0217143
0.0238038
0.0202877
0.0197899
0.0202342
0.0202265
0.403137
0.0236193
0.457705
0.0780635
0.114613
0.0222611
0.0202474
0.0220707
0.0619142
0.0211309
0.233162
0.0219049
0.0197483
0.0204445
0.255888
0.0213055
0.0230141
0.023242
0.667913
0.0260602
0.0202238
0.0233141
0.0206715
0.250353
0.0206194
0.353153
0.406968
0.112097
0.0650825
0.0264022
0.0236495
0.20829
0.0208243
0.0202531
0.0205548
0.0207495
0.316639
0.0205792
0.0205832
0.0217895
0.0209058
0.0201327
0.0616199
0.298807
0.338121
0.020151
0.528722
0.265066
0.0472997
0.0206582
0.0202699
0.0215582
0.0201194
0.125403
0.0219492
0.020224
0.0238385
0.0205341
0.475009
0.0531157
0.0205686
0.175898
0.141654
0.0203086
0.32602
0.442072
0.0292356
0.0206049
0.197526
0.286553
0.0196264
0.0204674
0.288092
0.024476
0.0208259
0.393553
0.0210395
0.0203021
0.0204534
0.0202848
0.332156
0.0201205
0.0202804
0.332528
0.0265483
0.0204291
0.0207114
0.184969
0.256601
0.0209833
0.0254521
0.0203417
0.359957
0.061506
0.0214446
0.0201738
0.664717
0.591157
0.0215798
0.0200417
0.49252
0.0226392
0.0201367
0.599899
0.0208763
0.0272548
0.0204332
0.480087
0.158081
0.0615445
0.332152
0.020375
0.184796
0.020721
0.0233779
0.151267
0.0201091
0.0272076
0.0199474
0.453197
0.0206542
0.0202962
0.0199328
0.020409
0.0201571
0.0200634
0.057902
0.0213452
0.122975
0.0216012
0.0197386
0.0219901
0.442533
0.0205116
0.253068
0.0202235
0.0209997
0.565103
0.0212636
0.311961
0.023321
0.0786339
0.0200195
0.0200751
0.0213951
0.0213968
0.0201573