/*--------------------------------*- C++ -*----------------------------------*\
| =========                 |                                                 |
| \\      /  F ield         | OpenFOAM: The Open Source CFD Toolbox           |
|  \\    /   O peration     | Version:  v2012                                 |
|   \\  /    A nd           | Website:  www.openfoam.com                      |
|    \\/     M anipulation  |                                                 |
\*---------------------------------------------------------------------------*/
FoamFile
{
    version     2.0;
    format      ascii;
    class       volVectorField;
    location    "500";
    object      ddt0(U);
}
// * * * * * * * * * * * * * * * * * * * * * * * * * * * * * * * * * * * * * //

dimensions      [0 1 -2 0 0 0 0];


internalField   nonuniform List<vector> 
9793
(
(0.000767787 -0.00200569 1.08979e-17)
(0.00766149 0.0062354 -2.94872e-17)
(0.00151497 -0.000270088 -1.78433e-18)
(-0.00197396 -0.0648307 -1.64754e-17)
(0.00106091 -0.000147244 6.40708e-19)
(0.0223164 0.0205908 -1.05984e-18)
(0.0157518 -0.00310647 -2.54514e-18)
(-0.0191619 0.00131696 8.86848e-18)
(0.00193077 0.0013027 -8.60966e-19)
(-0.0138109 0.0158282 -6.26949e-17)
(0.00122344 -0.000286743 -6.35868e-19)
(0.00125097 -0.000313132 9.91067e-19)
(9.01966e-06 0.000105596 1.09269e-18)
(-0.0477797 -0.0391298 -5.78015e-17)
(0.00456074 0.000799662 1.90383e-18)
(-0.00404275 0.00351859 1.20359e-17)
(0.0121384 0.0116031 1.88278e-18)
(-0.0015598 -0.000157688 9.71997e-19)
(0.00333102 -0.0501204 2.17625e-17)
(0.00232274 0.000216739 -4.22131e-19)
(0.000913567 0.000531982 -5.65238e-19)
(-7.13713e-07 -2.51133e-05 8.59432e-19)
(-0.00224054 -0.0604235 -1.07581e-19)
(-0.0193309 0.0002143 5.56139e-17)
(-0.0539771 -0.0358586 2.54822e-17)
(0.0021446 -0.00326333 2.05193e-17)
(0.00062232 -0.000381455 1.87564e-18)
(-0.000386924 -3.92334e-05 -4.91391e-18)
(0.00243899 0.000235318 -8.29623e-21)
(0.0174573 0.00544592 -2.74323e-17)
(-0.0321946 -0.00134536 1.90631e-17)
(0.0251969 0.0178313 -2.89507e-17)
(0.00290015 -0.000299411 -1.75801e-19)
(0.00138382 -5.86475e-05 1.45092e-18)
(0.00291925 7.90891e-06 1.80956e-18)
(0.00226234 0.00857547 -1.50598e-17)
(-0.00480575 0.00298871 -1.26486e-17)
(0.000534398 -0.00332341 -1.50957e-17)
(0.0111855 -0.0597227 5.69536e-17)
(0.00666016 0.00597754 -7.62044e-18)
(0.0161757 0.00540165 1.82408e-18)
(0.0632155 0.0110825 3.92847e-17)
(-0.0279586 -0.00974218 9.27683e-17)
(0.000615544 -2.6358e-05 4.90947e-18)
(-0.000318086 -0.000256052 -3.2478e-18)
(-0.000661726 -0.000477906 8.02313e-18)
(-0.0310695 0.00383562 -5.2734e-17)
(0.000675122 -3.97257e-05 5.47822e-19)
(-0.00174101 0.000341548 3.80354e-18)
(-0.000954428 -0.000167516 4.92376e-18)
(0.00192822 0.00863177 -1.27452e-17)
(0.0024073 9.11391e-06 -1.28269e-18)
(0.00597344 0.0108808 -1.52106e-17)
(0.000734811 -9.30252e-05 -1.91412e-18)
(0.00387667 -0.00433809 2.94189e-18)
(-0.00243457 -0.0643874 -4.03272e-17)
(-0.000340431 0.000116772 1.58636e-18)
(0.00668874 0.0282126 -1.83122e-17)
(-0.00155455 0.000432568 -1.32154e-18)
(1.60038e-06 -2.21134e-05 -7.6434e-19)
(0.000867288 -0.00375753 1.76696e-17)
(0.005368 -0.00937644 -1.5371e-17)
(0.00115174 -0.000195267 9.66194e-19)
(-0.00504581 0.0129946 -6.2821e-19)
(-0.000709844 2.08931e-05 -1.63174e-18)
(0.00171357 0.00122782 1.484e-18)
(-0.0207373 0.00182434 3.50195e-17)
(0.00393056 0.00421411 4.9612e-18)
(-0.00530842 0.00267734 2.44941e-18)
(0.0227206 -0.0276041 -9.09053e-17)
(0.000867854 -0.00126139 1.26759e-18)
(-0.000566439 -0.0088346 -1.84228e-16)
(-0.0254279 0.00255175 -3.63556e-17)
(0.214201 0.116846 -1.12261e-17)
(0.0613147 -0.0143684 5.76487e-18)
(0.000938662 -8.43543e-05 -2.32236e-18)
(0.00263658 -0.0067089 2.43389e-17)
(0.0397991 0.00895147 -7.76247e-18)
(0.000953013 -0.000219656 -5.34689e-19)
(0.000488001 -9.98464e-05 4.83998e-18)
(0.00232233 -0.00691755 -3.18856e-17)
(0.00404859 -0.0477269 -2.25819e-17)
(0.0109005 0.0118652 -4.57613e-18)
(0.00417955 -0.00114337 4.83917e-18)
(-0.00490861 0.00319882 7.26084e-18)
(0.0280635 0.00652993 1.68661e-17)
(0.00127599 -0.000135535 3.19636e-19)
(-0.00372111 0.0295986 2.88618e-17)
(0.0098431 -0.0612606 2.19409e-17)
(0.00505898 -0.00909152 3.34476e-17)
(-0.00487793 -0.0598812 -6.2675e-19)
(0.0465157 0.00697763 8.59453e-17)
(0.045539 0.00234916 1.50913e-17)
(0.0108632 0.00363584 -1.68805e-18)
(-0.0242194 -0.0153593 -3.81439e-17)
(0.000304377 -0.000162711 -5.50702e-18)
(0.0628093 -0.0087755 -1.15532e-17)
(0.0124605 0.00885177 2.09867e-17)
(0.00544742 0.0028679 5.32626e-18)
(0.00100412 -0.000110435 -6.45123e-19)
(-0.012924 -0.0584189 2.24162e-17)
(0.00609815 0.010306 7.92585e-18)
(0.0352349 0.209133 2.4115e-19)
(-0.000227414 -0.000251805 6.20756e-18)
(0.0880043 -0.0308222 3.66186e-17)
(0.0362092 0.00266772 -8.74653e-17)
(0.206822 0.0998366 9.25485e-18)
(0.00185254 8.58203e-05 3.8383e-18)
(0.000644465 -0.000233511 -9.58864e-19)
(0.000940119 -4.85982e-05 3.49304e-18)
(0.00104992 -9.76386e-05 -6.56754e-19)
(-0.00313908 -0.0593366 -4.90397e-18)
(0.000447667 -0.0105078 8.29784e-17)
(-0.0189159 -0.00343913 4.17822e-17)
(0.00070539 -0.00127007 6.48182e-18)
(0.00243045 -0.000578463 -1.8393e-18)
(-0.00371157 -0.00102623 1.72171e-18)
(-0.00161753 -0.000501876 4.10332e-18)
(-0.00221781 -0.0643654 3.26351e-17)
(-0.000326363 -0.000402177 5.80255e-18)
(0.0815312 -0.0393576 9.98867e-18)
(-0.00222913 0.0311304 6.8163e-19)
(0.0839811 0.00379414 -3.53419e-17)
(0.00408071 0.0148393 -1.66639e-17)
(-0.00442777 0.00341217 -1.0385e-17)
(-0.000668419 -0.000434323 -5.18488e-18)
(0.013905 0.0105913 -2.7541e-18)
(-0.0315158 -0.00156322 -6.00268e-17)
(0.00164373 0.0512057 -3.54517e-17)
(0.00132082 0.0541718 2.62116e-17)
(-0.0018429 0.00432832 -3.25065e-18)
(0.00229673 -2.46495e-05 9.32727e-20)
(0.000707692 -0.00191508 -7.73743e-18)
(0.00345285 0.00365576 1.65105e-18)
(0.00169436 0.00766643 5.33097e-18)
(0.0218906 -0.0032026 -5.75221e-18)
(0.0236199 0.0304598 5.75853e-17)
(-0.00379485 -0.000418619 1.40721e-17)
(0.000408076 -5.80921e-05 1.22656e-18)
(0.0125468 0.0140168 -3.89912e-17)
(0.00277626 -0.0416058 -2.52532e-17)
(0.00269526 0.00806287 -6.78761e-18)
(-0.00108717 -0.000958841 -1.85677e-18)
(-0.00397 0.0239917 1.77811e-17)
(-0.0308702 0.00510212 -1.86236e-17)
(0.0134622 -0.01373 -6.21737e-17)
(-0.000535053 -0.000435106 -4.39258e-18)
(0.0552101 -0.0113601 5.51619e-17)
(0.00173319 -2.27443e-05 -2.69732e-20)
(-0.000767007 -0.000413213 7.86569e-18)
(0.00166408 -0.000422496 5.86303e-18)
(-0.0230121 0.00245828 7.45025e-17)
(0.00466817 0.00278246 -2.21033e-18)
(0.000668673 -0.00039913 -6.89724e-19)
(0.000543966 -0.000717716 9.57979e-18)
(0.0457056 -0.00732039 7.87697e-18)
(0.0126103 0.012294 -4.4693e-18)
(0.000118313 -0.000180824 -7.60236e-19)
(0.0245876 0.0183456 -3.86463e-17)
(0.00120023 -0.00091271 4.36591e-18)
(-0.0032192 0.0272652 -3.97929e-17)
(-0.000367316 0.00458204 2.5059e-18)
(0.000859815 0.000566032 -2.34933e-18)
(0.00243463 -0.011329 -4.48372e-17)
(-0.000967499 0.0017138 -5.19861e-18)
(0.0410023 0.0119988 -1.02198e-17)
(-0.00779807 0.219754 4.07035e-17)
(-0.000505032 0.00222187 -2.07022e-18)
(0.000424029 9.38971e-05 5.02234e-19)
(0.000102264 -0.000233975 -2.37579e-18)
(-8.93523e-05 -0.0010671 -1.30341e-21)
(-0.00187465 -0.00120294 -2.51087e-17)
(-0.0480876 0.0217384 2.59944e-17)
(0.00893184 -0.0432825 4.52148e-17)
(1.50931e-05 0.00010464 3.52946e-18)
(0.0215331 0.0209727 9.99169e-18)
(0.0108118 -0.00983635 3.67107e-18)
(0.00180147 -0.0122074 7.16567e-18)
(0.000739934 -0.000205813 2.41963e-18)
(0.00311136 0.00441067 -1.16637e-18)
(0.101198 -0.0248737 2.22405e-17)
(-0.0303231 0.00395858 6.63013e-17)
(-0.0024217 0.033064 2.00309e-18)
(-0.000815306 -0.000433771 -2.66085e-18)
(-0.000953939 -0.000590022 -1.86519e-18)
(0.00115547 8.51039e-05 -9.39687e-19)
(0.0992671 0.00875695 2.04954e-17)
(-0.0270053 0.00273339 5.54838e-17)
(-0.0236799 0.00663536 -1.08264e-16)
(0.0509656 0.19592 -1.39537e-17)
(0.00181787 0.000992867 -1.01278e-18)
(0.00594502 -0.0703264 8.94227e-18)
(0.000221233 -0.0104041 2.52285e-17)
(0.000948463 -0.00338021 -3.2557e-18)
(-0.000539269 1.96987e-05 2.27969e-18)
(0.00250397 -0.00190985 1.38617e-18)
(-0.000522073 -0.0114591 -9.77153e-17)
(-3.30042e-05 0.000218113 3.7642e-19)
(-0.00141189 -0.000164564 -2.79827e-18)
(-0.000306282 -0.000399488 1.72028e-18)
(0.000331752 -0.00139142 1.23865e-18)
(0.00107075 0.000459172 5.63681e-19)
(0.00135168 0.00945052 1.08981e-17)
(-0.00159381 0.00545422 1.60357e-17)
(0.00531625 -0.0625557 -8.61808e-17)
(-0.000677597 -0.000976332 1.29666e-17)
(0.00595675 0.00537603 8.67556e-18)
(-0.000524966 0.00217453 -4.66913e-19)
(0.00165012 -0.00171526 -9.84431e-19)
(0.00480449 -0.0135429 5.35454e-18)
(0.0121473 0.0134861 2.69109e-17)
(0.000696857 -0.0391171 -6.65205e-18)
(0.00137542 0.000158178 -3.51845e-19)
(0.0188409 -0.0308155 1.19275e-16)
(0.0043133 -0.00135566 -3.93693e-18)
(-0.0263775 0.00386511 -2.50769e-18)
(0.00376215 0.00085135 1.34849e-19)
(0.0223364 -0.0019428 2.36943e-17)
(0.00190041 -0.000585557 -2.54134e-18)
(0.000622395 -0.00709807 -2.48703e-18)
(0.0134929 0.00917652 6.13892e-19)
(0.00106516 0.000506599 -2.60354e-18)
(-0.00197568 -0.0117732 3.64752e-17)
(0.00227152 -0.0104947 -1.75453e-17)
(0.0102793 0.00331268 -1.14481e-17)
(0.00018651 -0.000271046 4.88668e-18)
(0.00573241 0.0175372 1.42894e-17)
(-0.020715 0.0549782 7.32958e-17)
(0.00105521 -0.00697903 3.4939e-17)
(0.00128473 -0.00706077 -3.89104e-17)
(0.000974479 -0.0648049 -3.47488e-17)
(-0.00186753 0.0445069 -1.2263e-17)
(-0.0230934 0.004237 3.80982e-18)
(-0.00507137 0.0137878 -1.49549e-17)
(8.52141e-05 -0.0100247 -4.42357e-17)
(-0.00098799 -8.58283e-05 1.4583e-18)
(0.0171485 -0.0581946 -3.71081e-17)
(-0.0172369 -0.00492342 -7.89654e-17)
(-0.000724607 0.000214978 -1.10235e-19)
(0.000244661 -0.000327476 2.48296e-18)
(0.0651315 0.0153963 3.17374e-17)
(0.000652026 -0.000730564 -1.44497e-20)
(0.0011074 -9.06034e-05 -2.34913e-20)
(0.00625513 0.0322377 -2.49464e-17)
(0.00950057 0.0317241 -1.08656e-17)
(0.00176561 0.00106234 1.93425e-19)
(0.0030251 0.00458143 2.16022e-18)
(0.00588358 0.00572414 -6.65602e-18)
(0.00669168 -0.0042048 1.0621e-17)
(0.00134173 0.00488024 3.45993e-18)
(0.000882551 -0.000217745 3.85885e-18)
(0.0110291 -5.17216e-05 -4.58467e-18)
(-0.00110051 -0.0641552 -4.73197e-18)
(0.000661261 0.000505858 1.21738e-18)
(0.00302319 -0.033087 -9.10333e-17)
(0.00102211 -0.000111251 4.43983e-19)
(-0.00165638 -0.000363165 4.03685e-19)
(0.00280917 2.71091e-05 4.98184e-20)
(-0.0019124 -0.0648484 6.11739e-17)
(-0.000427105 -0.000249938 9.25281e-18)
(0.0423317 -0.00636978 -3.3439e-17)
(0.043484 -0.0320601 -1.74184e-17)
(0.00222869 -0.00023014 8.11133e-19)
(0.000987159 -0.000565965 6.84218e-18)
(0.0363171 0.0218104 3.72374e-17)
(0.000628026 2.41912e-05 1.87536e-20)
(0.00154875 -0.000217342 4.00729e-18)
(-7.54478e-05 2.28569e-05 -2.58637e-20)
(0.0380659 -0.0359734 4.3789e-18)
(0.00239442 -0.0110066 9.63392e-17)
(0.00144534 -0.00282656 6.41775e-19)
(0.00659103 -0.0132222 2.95796e-18)
(0.00772144 0.0259157 -5.8646e-19)
(0.0153274 0.204661 -2.05731e-17)
(0.00179992 -0.0616797 -1.10042e-16)
(0.000339076 0.00237114 -2.11907e-18)
(-0.00803357 -0.0779407 3.3073e-17)
(-0.00174314 -9.40775e-05 -1.2826e-18)
(-0.0342864 0.0662993 -7.1012e-17)
(-0.000642572 -0.0155281 -7.54857e-17)
(0.00270707 -0.0599957 8.8628e-17)
(0.0811728 -0.0368279 1.39002e-17)
(-0.00136434 0.0424655 -1.42139e-17)
(-0.00224062 0.00427672 2.17824e-18)
(0.0104042 0.0111008 6.56606e-18)
(-0.00171696 0.00519234 -6.28375e-18)
(0.000546976 -0.000181964 1.02844e-18)
(-0.00141011 0.00187877 1.69841e-18)
(0.00526206 -0.0130711 1.1172e-18)
(0.00219492 -0.00334726 -8.66141e-18)
(0.000740173 -0.000562029 -2.97811e-18)
(-0.00010548 -6.86018e-06 4.38758e-19)
(0.00012609 0.000176084 2.01273e-19)
(0.00233036 -1.6429e-06 7.03533e-21)
(0.000938178 0.000546172 1.36953e-18)
(-0.000224827 -0.0550927 4.24194e-17)
(0.000525109 8.97911e-05 2.90499e-18)
(0.00465028 0.000644073 -5.67038e-19)
(0.003046 -1.95325e-06 -2.70299e-19)
(0.000156563 0.000111782 -1.65334e-18)
(0.00106605 -0.0646204 -1.12571e-16)
(0.0139493 -0.0134928 -7.67376e-17)
(-0.00129244 -0.00791242 2.96514e-17)
(0.00132263 -0.0024552 1.27633e-18)
(-0.00223207 0.0238122 1.3108e-17)
(0.00454662 1.44218e-07 -1.55673e-19)
(0.13206 0.0826353 4.86214e-19)
(-0.0154411 -0.00174743 -7.65761e-17)
(-0.000371558 -0.00024798 -6.48157e-18)
(0.0455665 -0.0263726 -3.46444e-17)
(-0.0032966 0.0119829 -1.28469e-17)
(0.000342542 -0.000265333 1.13704e-17)
(-0.00356682 0.00656187 7.03094e-17)
(0.207396 0.0798658 1.16472e-18)
(0.00319633 -0.000315472 5.6284e-18)
(0.0115265 -0.000525214 1.68266e-17)
(0.00411681 -0.00956986 -8.08489e-17)
(0.0018175 -0.00152256 -3.74351e-18)
(-0.00112152 -0.00529282 1.50355e-17)
(0.00463109 0.000722796 -1.74513e-18)
(0.0015969 -0.00171111 -6.41776e-18)
(-0.0807407 0.0802774 1.56499e-17)
(0.0050454 -0.00539631 -4.07815e-18)
(0.00128555 -6.07594e-05 5.40639e-19)
(-0.000421017 -0.000378771 -2.67063e-18)
(0.00139327 -0.0023982 -1.28618e-18)
(0.0131869 -0.0103008 -8.90642e-18)
(-0.000379099 -0.0109633 7.72182e-17)
(0.00121601 -0.000272746 1.09416e-17)
(0.00258811 7.58654e-05 -2.49999e-18)
(-0.000247186 0.00102775 3.25488e-18)
(-0.00114614 -0.00107471 3.51556e-18)
(-0.0236204 -0.052079 -1.60762e-17)
(-0.0105697 -0.0143036 -3.49228e-17)
(-0.00094015 2.42564e-05 1.97094e-19)
(0.00532619 -0.00558166 -1.40324e-17)
(-0.00143812 -0.00540591 -3.68071e-18)
(0.00368011 -0.0160706 4.61878e-18)
(0.00752839 0.0220813 1.53689e-17)
(-0.00179144 -0.000340168 2.8109e-18)
(-0.0020864 -0.000154944 1.22248e-18)
(-0.000168079 0.00104151 2.86668e-19)
(0.00909156 0.0112896 -1.22487e-18)
(0.00128767 -0.000754905 -3.50429e-19)
(-0.0282308 -0.00423965 2.46674e-17)
(0.00266978 -0.000588356 7.06241e-18)
(0.0011799 5.27628e-05 -1.39512e-18)
(0.053132 0.079804 3.77991e-17)
(-0.000567572 -0.0539272 -4.46324e-18)
(0.0210321 -0.0342431 -1.91639e-18)
(0.00253266 -4.59953e-08 1.37585e-20)
(-0.0103516 -0.0597261 1.98749e-17)
(0.00384982 -0.00106113 1.35288e-18)
(-0.000235135 -0.0112245 2.12959e-17)
(-0.0174369 0.00248086 -8.64227e-17)
(0.00130814 -0.0655489 6.50574e-17)
(0.00507046 -0.000574506 3.0465e-18)
(0.0069062 0.00604923 1.61413e-17)
(0.0250906 0.0290111 -2.69714e-17)
(-0.00620428 -0.0580957 1.04907e-17)
(-0.00372566 -0.0605897 3.6687e-17)
(-0.000446668 -0.00362002 3.91693e-18)
(-0.000989894 -4.59033e-05 1.88174e-18)
(0.00162681 -0.00296066 -2.95242e-18)
(-0.00174787 0.000177382 4.64619e-19)
(0.00341635 5.19433e-05 6.13372e-19)
(0.00130161 -0.000804329 8.84334e-19)
(-0.000717761 -0.000324109 -6.51005e-19)
(5.1644e-08 -2.69081e-06 -1.23744e-18)
(-0.019466 -0.00221284 -2.2998e-17)
(0.00015681 -0.00027519 -8.97821e-18)
(0.0144314 0.00912408 -2.1345e-17)
(0.00589928 0.00659807 2.32353e-18)
(0.144652 0.0312493 -6.73162e-17)
(-0.00179268 -0.00039696 -6.91431e-19)
(0.00436762 -0.00106844 4.69717e-18)
(0.000531889 -0.0672462 1.22129e-17)
(7.37831e-06 -0.0102997 -1.61581e-16)
(-0.0561974 -0.0314983 -2.78647e-18)
(0.0073143 0.0212074 -1.33489e-17)
(-0.000152683 6.06446e-05 2.06239e-18)
(0.00519951 -0.000470398 2.04774e-18)
(0.0011562 -0.000241482 -3.85291e-18)
(0.0207332 -0.0121515 -7.40559e-17)
(0.000161331 6.81837e-05 8.57523e-20)
(0.0243286 -0.0364072 -2.77717e-17)
(0.0087754 -0.0110395 -8.02678e-18)
(0.0150413 -0.00378943 2.75444e-17)
(-0.0113948 -0.0123954 9.53953e-17)
(-0.0802844 0.0961962 -1.693e-17)
(0.00438764 -0.000223007 -1.01348e-18)
(0.00104184 -0.000237537 1.38293e-18)
(0.0243445 0.0324398 -6.0185e-17)
(0.0218309 -0.0113477 5.66881e-17)
(-0.00156224 -0.000954245 1.22135e-17)
(-0.0213382 0.0015058 -1.71887e-16)
(0.00504904 -0.000236922 1.37946e-18)
(-0.00166455 -0.000479921 8.91747e-19)
(-0.00402414 -0.0152513 2.14539e-18)
(8.23865e-05 0.000159397 2.05996e-19)
(0.00797257 0.0272885 -2.24848e-17)
(-0.000978506 -7.20866e-07 1.0543e-18)
(-0.0348998 0.211612 -4.87819e-17)
(0.00158237 -0.000604872 -6.53301e-18)
(-0.00114999 0.00162105 -8.78445e-19)
(0.0589809 0.0388273 1.76047e-18)
(-0.00054396 -0.00862959 -3.16312e-17)
(-0.0309556 0.0150726 1.34684e-17)
(0.00110779 -0.00337897 -3.92057e-18)
(0.000199046 -0.000189697 -4.1781e-18)
(-0.000277493 -0.000205239 2.31202e-18)
(0.0770179 0.00028933 2.51399e-17)
(0.012576 0.00791304 -1.41424e-17)
(-0.00149578 0.000228547 -9.03285e-19)
(0.000916836 -0.000470824 -5.76352e-18)
(0.00379964 -0.00455782 -6.93158e-19)
(-0.0016434 -0.00532634 1.25617e-17)
(-0.0330216 0.0122789 -8.68036e-18)
(-0.0295341 0.00509696 2.70359e-18)
(-0.0011237 -0.000440418 2.52009e-18)
(0.00200754 -7.73666e-05 2.0642e-18)
(0.00318985 -0.0117865 3.79165e-17)
(0.000281163 -0.000179907 2.34241e-18)
(0.000380324 -0.066894 4.05011e-17)
(0.00229222 -0.012232 -1.11118e-17)
(-0.00094842 -0.000567501 -3.9368e-18)
(0.00282922 -0.000295762 1.45139e-18)
(-0.00116746 0.00189501 2.37417e-18)
(0.00500145 -0.000230441 1.18134e-18)
(-0.00105379 0.000955387 -1.20655e-18)
(-0.0130788 -0.0586864 -6.00145e-17)
(0.00087877 -0.00724411 -2.63456e-17)
(0.0353615 0.0248142 8.4056e-18)
(-0.00134549 -0.00413683 -1.14623e-17)
(-0.00225207 0.00113862 -5.09506e-19)
(0.00481061 0.0143707 -2.35214e-17)
(0.000474187 -0.00322076 -4.55518e-18)
(-0.00339874 -0.0634163 -7.22187e-18)
(0.00123896 -0.00369708 -5.20018e-18)
(0.000428116 -0.000122708 5.54085e-19)
(0.00373957 0.0044349 -5.47234e-18)
(0.0144934 -0.0128014 5.9201e-17)
(0.000506107 -0.00115532 3.39975e-18)
(0.000934 -0.000976032 -2.0064e-18)
(0.00038138 -0.00134065 6.55124e-18)
(-3.67253e-05 6.48661e-05 -4.6373e-20)
(0.000253326 -9.79932e-05 1.13127e-17)
(0.00254197 0.000552428 9.41998e-20)
(-0.00122188 -0.000475955 -9.69609e-20)
(0.00260963 -0.000202911 -9.75172e-19)
(0.00238391 -0.00152573 -1.152e-17)
(-0.0013279 0.00523726 7.18641e-18)
(0.00526069 0.0332934 4.37627e-17)
(-0.00218883 1.35961e-05 -3.11765e-19)
(-0.000615137 -0.011391 3.94344e-17)
(0.00157707 -0.00318098 -1.75565e-17)
(0.00902372 -0.011892 1.09444e-17)
(0.0018936 -0.0638646 4.07579e-17)
(0.000523948 -4.27474e-05 -9.94164e-19)
(0.0695225 0.0837071 -6.01593e-17)
(0.0156527 -0.00230716 1.01718e-17)
(-0.000671971 0.000137745 -9.92013e-19)
(0.00240805 9.18692e-05 -9.42389e-20)
(-0.00150221 -0.00100588 -8.98298e-19)
(0.115096 -0.0268793 -1.46269e-16)
(0.00892259 0.0250841 5.99898e-18)
(0.00214395 8.8103e-05 7.99145e-20)
(0.0028337 -0.000660809 1.95536e-19)
(-0.00176467 -0.000418011 -4.04726e-18)
(-0.00225872 -0.00779311 -1.14696e-17)
(0.0103131 -0.0105997 -6.0784e-18)
(0.0404123 0.00570132 6.31392e-17)
(-0.000829969 1.71363e-05 -1.24161e-18)
(-6.31821e-05 -0.000704372 -2.05308e-18)
(0.00120738 -0.00484756 -2.16462e-18)
(-0.0314195 0.00302918 8.81583e-18)
(0.00107568 -0.0603705 -2.19689e-18)
(0.000783483 -0.00270558 2.25296e-17)
(0.000922152 0.00330422 -1.18104e-17)
(0.00770423 -0.0263123 9.14401e-18)
(0.0438031 0.0112952 -5.03841e-17)
(0.0134894 0.0395495 -5.01384e-18)
(0.000668525 -0.00134479 4.1255e-19)
(0.0022037 3.83766e-06 -1.46798e-18)
(0.00678304 -0.0619053 1.74214e-17)
(-0.00124223 -0.000218949 -4.473e-18)
(0.0117015 -0.00973056 1.55308e-17)
(0.147189 0.0292232 -2.01395e-17)
(-0.000414759 0.000185789 5.28698e-19)
(0.00266961 -0.010865 -7.58177e-17)
(0.00551375 0.00513839 1.4625e-17)
(-0.0104378 -0.0591499 1.64443e-17)
(-0.000258794 -0.000184766 -1.72347e-18)
(0.00710402 -0.0530583 3.0346e-19)
(0.02609 0.0149059 8.30793e-18)
(-0.00341048 0.00348641 -1.64319e-17)
(0.0333701 0.0218908 -4.462e-18)
(-0.000583902 -0.000179789 5.86053e-19)
(0.00398595 -0.0166862 1.17676e-17)
(0.000938167 -0.000615711 -1.98452e-18)
(0.00051412 -0.000187018 -4.36711e-18)
(0.00211664 -0.000209811 1.51666e-18)
(-0.0010392 -0.000143853 -2.3879e-18)
(0.05498 -0.0219576 6.2435e-17)
(6.35492e-05 -0.000188147 7.6595e-19)
(-0.00101632 0.000527269 -1.2415e-18)
(0.00145868 -0.0023827 -3.15317e-19)
(-0.000933521 0.000100746 -2.58073e-18)
(0.002831 -1.34314e-05 1.95979e-18)
(0.011191 -0.00169725 -2.03299e-18)
(0.00367157 -0.00098571 6.22003e-18)
(-0.00376921 0.0127916 9.40175e-18)
(0.00251239 -6.07188e-05 -6.51821e-19)
(0.00184067 -7.84573e-05 -2.00583e-18)
(0.000862812 -0.0668189 -2.28721e-18)
(-0.000698436 -0.00824874 -4.77255e-17)
(0.000839433 -0.00266355 -4.4981e-18)
(0.0110579 -0.0384969 4.91488e-17)
(-0.00108741 0.00490241 -2.39594e-18)
(0.0018477 -0.00100102 -3.3537e-18)
(0.000550229 -0.000255574 -4.29424e-18)
(-0.000684594 0.000924886 -3.28685e-18)
(-0.0146513 -0.0153704 4.76529e-17)
(-0.00123336 0.00044482 2.37367e-18)
(-0.000953807 -1.82641e-05 -1.02044e-18)
(-0.0342069 0.000911562 7.36181e-17)
(0.0590284 0.0113439 -7.99324e-17)
(0.00666304 -0.00388765 -1.1461e-17)
(-0.00195853 0.000124007 -2.92961e-18)
(0.000777805 -4.87571e-05 -2.80537e-18)
(0.00106874 0.00207162 3.88307e-18)
(0.000145446 -0.000183349 9.76265e-19)
(-0.00915394 -0.0326021 -2.88906e-17)
(0.00123826 -0.00157353 8.71232e-19)
(0.0830073 0.184703 9.52333e-20)
(-0.00405333 0.00353835 6.55172e-18)
(-0.00146271 -0.0111912 -7.70712e-17)
(0.00094904 -0.00012543 -7.38545e-18)
(-0.0326315 0.00183942 -5.10156e-17)
(3.20223e-05 9.14111e-06 4.67522e-19)
(0.0136997 -0.011085 -9.61863e-20)
(-0.000984327 -0.000243417 4.45086e-18)
(-0.020862 0.0397996 1.77942e-17)
(-0.00126216 -0.0630101 -4.46929e-17)
(0.00121769 -0.000638043 5.7868e-18)
(0.0793902 0.0111962 -3.87281e-17)
(0.00267006 -0.000577668 4.89157e-19)
(0.000197256 -9.89874e-06 1.64039e-18)
(0.000644496 0.000487831 1.41639e-18)
(0.113423 -0.00776551 -6.54374e-17)
(0.00309488 -0.0649552 1.06467e-16)
(-0.000770106 -0.00101524 -3.41734e-18)
(0.00570873 0.00546986 -9.85667e-18)
(-0.00157996 0.000277349 3.95836e-19)
(-0.00188155 -0.0184119 9.91839e-17)
(-0.00343487 1.77473e-05 1.92323e-19)
(0.0109616 0.000411539 8.20141e-18)
(0.00909503 -0.0515473 -1.1072e-17)
(0.000359621 -0.00340041 1.619e-17)
(-0.00243255 -9.60163e-06 -1.04837e-18)
(0.00306431 -0.00667989 1.05603e-17)
(0.000108504 -4.8228e-05 -2.48064e-18)
(0.000752662 0.00219363 -2.76884e-18)
(-0.000117931 0.00112875 -9.05141e-19)
(0.00363415 0.0329735 -3.7144e-18)
(-0.00161833 6.95476e-05 -8.87836e-19)
(0.0176913 -0.00903241 1.04475e-16)
(0.000338444 -9.9111e-05 1.39548e-18)
(0.00194014 -0.00061125 -2.73819e-18)
(-0.00763631 0.0151291 1.42043e-17)
(0.00390707 -0.00853487 -1.58074e-17)
(0.0191036 0.0425116 -6.00689e-19)
(0.0048612 0.000576237 4.49459e-19)
(-0.0300552 0.00235822 -4.11049e-17)
(0.00101221 -0.000246314 2.05627e-18)
(0.0108063 -0.0114125 1.53648e-17)
(0.00142453 -0.000657922 1.221e-17)
(-0.00111576 0.00200548 5.18815e-18)
(-0.000256781 -0.000235565 8.4815e-18)
(-0.000421204 -0.000103331 1.7611e-18)
(0.000708406 -0.000110845 -6.34269e-19)
(0.0105335 -0.0120237 -3.80303e-17)
(-0.0218627 0.00653944 6.93327e-18)
(0.0725447 0.00808675 -1.22941e-17)
(0.0198644 0.0111207 -3.39887e-17)
(0.00152526 -0.00537345 2.73143e-17)
(0.00464911 -0.00430166 1.31876e-18)
(-0.00179945 -0.0161745 3.13593e-18)
(0.00342224 0.00389415 7.57152e-20)
(-0.0127295 -0.0366578 5.08264e-17)
(-0.0169424 -0.0355763 -6.87778e-17)
(0.0133511 -0.0119342 5.22809e-17)
(0.00219877 0.00438295 -2.00958e-17)
(0.108109 0.0350824 1.97757e-17)
(0.0122432 -0.010528 -2.17687e-17)
(0.000976184 0.00215887 -8.26723e-18)
(0.000217356 -0.01124 -6.2687e-17)
(-0.00861049 0.0147052 6.49288e-18)
(-0.00142368 0.00188234 -6.60292e-19)
(0.0138171 -0.0126715 -6.42756e-17)
(0.000451612 -4.17307e-05 2.63171e-18)
(0.00610889 -0.0135431 -8.6138e-19)
(0.00665888 -0.00338681 4.66493e-19)
(0.0199585 0.0320504 -2.36169e-17)
(-0.000879566 -0.00393474 9.55024e-18)
(-0.00220223 -0.0506765 2.30685e-17)
(-0.0370553 -0.0109672 4.23073e-17)
(-0.00713517 0.013971 -4.04837e-18)
(0.0186114 0.0318624 3.66805e-17)
(-0.000146004 -0.000355179 -6.15975e-20)
(0.0106959 -0.0147825 -1.46816e-17)
(-0.000873799 -0.00246227 2.49582e-18)
(-0.00130233 -0.000212143 -2.04029e-18)
(0.000582345 -0.000868544 -2.15641e-18)
(-0.0024944 -0.00110168 4.74818e-18)
(0.0115509 0.00757855 8.25882e-18)
(0.00187363 -0.0639664 2.6963e-17)
(0.00663897 -0.0124147 7.0221e-19)
(-0.0337113 0.00434935 4.80953e-17)
(0.00369043 0.00347225 3.90179e-18)
(0.00262228 -0.0019427 6.52812e-18)
(-0.0122778 -0.0581083 -2.28614e-17)
(-0.000318729 -0.0104866 7.92304e-17)
(0.00279028 0.00313293 -6.02092e-18)
(0.00800836 0.0191277 -1.56512e-17)
(0.00188522 -0.00173732 1.22305e-17)
(-0.000687865 -0.0118712 -1.24712e-17)
(0.0666649 0.0501541 1.92328e-17)
(-0.00160852 -0.000542927 2.34896e-18)
(-0.00165571 -0.00797967 -5.58358e-18)
(0.00339047 -0.0114519 2.2945e-17)
(-0.0340096 -0.0223263 -6.80394e-17)
(0.000132216 1.70881e-05 2.15527e-18)
(0.00175482 -0.00307905 -1.44233e-17)
(0.0391659 -0.00181854 -5.07461e-17)
(0.000791446 0.00886431 -8.89999e-19)
(0.102842 0.0112479 -2.59314e-17)
(-0.0171402 0.0405704 -4.20058e-18)
(0.146379 0.0339461 1.12556e-17)
(0.0034029 -0.0023409 -4.98628e-18)
(0.00364171 0.00396435 -3.39495e-18)
(0.00184018 0.00106637 1.19123e-18)
(0.00113941 -0.000671503 -4.8843e-18)
(-0.00564015 0.0629681 -5.00872e-18)
(0.00018764 -4.22236e-05 -1.41986e-18)
(-0.0132038 0.0642458 9.04761e-19)
(0.0205216 0.0146458 4.99761e-17)
(0.0133298 -0.00504307 9.44347e-18)
(0.000123577 -1.79439e-05 4.10467e-18)
(-0.000937941 -0.000101739 9.88312e-19)
(-0.0031624 0.000653028 -7.43461e-18)
(-0.000268026 -0.000603107 -5.84616e-18)
(0.00305126 1.00404e-05 -3.52565e-19)
(7.7644e-05 -0.000744147 1.26376e-18)
(0.0192963 0.0105826 4.38462e-17)
(0.12506 -0.0224474 5.58431e-17)
(-0.0544983 -0.0323332 3.85041e-18)
(-0.000477422 -2.52775e-05 -1.30734e-18)
(0.0191556 -0.0113926 1.62559e-17)
(-0.00223438 0.000106402 -1.41476e-18)
(-0.0163387 -0.0426363 -4.14467e-17)
(-0.000942946 0.0191326 -3.14904e-17)
(0.00171399 -0.00656015 3.89898e-17)
(-0.00149511 -0.00528445 -5.30112e-18)
(0.02538 0.015421 3.98297e-17)
(0.00214619 3.60033e-05 -3.98614e-20)
(0.00173086 -0.000380775 -1.16976e-18)
(0.00333163 -0.00633417 -2.2239e-17)
(-0.000653938 -0.000257241 -5.21302e-18)
(0.00056263 0.00198332 5.50526e-18)
(0.0109779 0.015504 -5.78859e-17)
(-0.0260729 -0.0500712 1.12482e-17)
(0.001229 0.000432788 -2.6907e-18)
(-0.000424313 0.0552172 7.09291e-18)
(0.0123101 -0.0600868 -1.41994e-17)
(0.00214776 0.00505476 -1.11868e-17)
(-0.0573171 0.0632026 -1.04805e-17)
(0.0190648 -0.0590426 -6.03134e-17)
(0.00184576 0.000628685 9.32587e-20)
(0.0133631 0.0102349 -1.9909e-17)
(-0.00451929 0.00418743 -5.51703e-18)
(0.00186061 0.000866566 3.93304e-19)
(0.000678925 0.000476213 6.02146e-20)
(0.000989555 -0.00884628 6.94354e-17)
(0.008645 -0.0598642 3.31433e-17)
(-0.0302888 0.00260653 3.65905e-17)
(0.000624112 -0.00122226 6.78407e-18)
(-0.000456164 -0.000356398 1.57781e-18)
(0.00315943 0.000549716 2.87035e-19)
(-0.00414433 -0.00207956 -8.84912e-18)
(0.00365133 -0.000833774 1.5541e-18)
(0.0040731 -0.00141129 -4.63351e-18)
(-0.00252413 -0.0116229 3.77969e-17)
(-0.00236015 0.0193307 -3.44597e-17)
(0.00448089 -0.000221532 2.30109e-18)
(0.0392561 0.013489 1.74876e-17)
(0.00190452 0.00934163 1.32701e-17)
(0.00175531 -0.00510589 -1.67398e-17)
(0.00121919 0.00189499 -4.60047e-18)
(-0.0302605 -0.00112734 9.22451e-17)
(-0.00230739 0.00395254 -2.46014e-18)
(-0.00234584 6.11863e-05 1.11714e-18)
(0.0139486 -0.00477494 -1.78446e-18)
(-0.00074858 -0.0116275 -4.04102e-18)
(-0.00116325 0.00022236 1.32324e-18)
(-0.00153388 -0.000494068 -3.09297e-18)
(0.00101953 -0.000213638 -2.78101e-18)
(-0.00497407 0.00274543 1.64045e-18)
(0.00245475 3.309e-05 3.25995e-19)
(-0.00603077 0.0144831 2.25466e-17)
(0.0261414 0.0243306 -2.04007e-17)
(0.0027531 -0.000483577 -4.9825e-18)
(0.00296788 0.0340699 7.01599e-18)
(0.00331379 0.00292673 -1.29656e-19)
(0.000569926 0.00175276 -4.73047e-18)
(0.0328583 0.0414915 -6.69042e-17)
(-0.00665957 -0.0430538 -1.06903e-16)
(0.00447725 0.0454856 3.62779e-17)
(0.00210543 -0.000427173 -9.46199e-18)
(-0.000325694 0.000173727 -1.16192e-18)
(0.244836 0.0361759 -5.9545e-17)
(0.00121627 -0.00356181 9.15657e-19)
(0.0799534 0.0625948 1.49929e-17)
(0.000376753 8.99753e-05 1.27617e-18)
(0.00120647 -0.000627895 2.54792e-19)
(-0.020907 -0.00436568 -9.15837e-17)
(0.0674917 0.199293 1.38789e-17)
(0.00622507 0.0055757 1.48081e-18)
(0.0069057 0.0296736 -1.34257e-17)
(-0.000583646 -0.0077329 -1.79224e-17)
(0.000898068 -0.00027155 -6.98931e-19)
(-0.000151481 -1.47314e-05 -2.5719e-18)
(0.00172472 0.000625296 -6.16556e-21)
(-0.0152135 -0.0275211 1.80021e-17)
(-0.00119919 -1.6407e-05 3.60021e-19)
(-1.84748e-07 -3.2988e-06 8.38792e-19)
(-0.00755455 -0.0578404 -3.84007e-17)
(-0.000792953 -0.00386772 2.29918e-18)
(0.0292414 0.00777211 -2.35502e-17)
(-0.00115797 -0.00506769 -3.83586e-18)
(-0.000362954 0.000109447 2.79688e-19)
(-0.00331345 -0.0462541 1.05713e-16)
(-0.00299404 -7.60959e-05 2.78315e-18)
(0.000644069 -0.000570002 3.90882e-19)
(0.00168816 0.000538997 2.24002e-19)
(0.00451412 -0.00364268 -3.4246e-18)
(-0.0014598 -0.0665356 -6.54018e-18)
(-0.0016143 -0.000368227 4.68465e-19)
(-0.000465806 -0.00024871 9.55207e-18)
(-0.000341941 -0.000290141 8.5982e-19)
(0.000230411 -0.000242436 6.11563e-19)
(-0.00224139 0.000121004 -6.52259e-19)
(0.00245972 0.00107134 8.88358e-19)
(-0.012974 0.00230494 1.55216e-17)
(0.00463812 -0.00392241 5.27091e-18)
(0.00212087 -0.00154716 6.25969e-18)
(-0.000802819 -0.000351384 9.21151e-19)
(0.00399229 -0.00409305 -4.38122e-18)
(0.0140889 0.0113156 4.38517e-17)
(-0.00448168 0.0028001 1.32751e-17)
(-0.00100454 -0.00413416 -3.18442e-17)
(0.000472433 -5.95775e-06 -2.70599e-18)
(0.00270424 0.000537034 2.58401e-20)
(0.00532549 0.000162481 -4.04911e-19)
(0.0013817 -0.0641118 -2.34889e-17)
(-0.107989 0.0288893 -5.2813e-17)
(-0.00227266 0.00081413 -3.36297e-18)
(-0.0329451 0.00266226 -4.04638e-17)
(0.0001532 -0.000367119 4.58048e-18)
(0.00308623 -0.00230857 1.32276e-17)
(0.0363448 -0.0164945 -3.11423e-17)
(3.86271e-05 -0.0103969 -4.50399e-17)
(0.00227379 0.000927546 3.46479e-19)
(-0.00155643 -0.000338044 -7.23579e-19)
(-0.00136014 -0.0105605 -1.12841e-17)
(0.00504546 0.0181667 -4.29912e-18)
(-0.00234893 6.19808e-05 -3.40855e-19)
(0.000950965 -0.000188113 -4.65316e-18)
(0.025972 -0.0166365 -1.47485e-16)
(0.000320798 -1.06598e-05 1.09848e-18)
(0.0158264 0.00429882 3.65851e-17)
(0.0027031 -0.000281527 -2.03458e-18)
(9.31657e-05 -0.0106304 1.0978e-16)
(0.00100123 -0.000184274 2.62777e-18)
(-0.00208824 8.64606e-06 2.60793e-19)