/*--------------------------------*- C++ -*----------------------------------*\
| =========                 |                                                 |
| \\      /  F ield         | OpenFOAM: The Open Source CFD Toolbox           |
|  \\    /   O peration     | Version:  v2012                                 |
|   \\  /    A nd           | Website:  www.openfoam.com                      |
|    \\/     M anipulation  |                                                 |
\*---------------------------------------------------------------------------*/
FoamFile
{
    version     2.0;
    format      ascii;
    class       volVectorField;
    location    "500";
    object      ddtCorrDdt0(U);
}
// * * * * * * * * * * * * * * * * * * * * * * * * * * * * * * * * * * * * * //

dimensions      [0 1 -2 0 0 0 0];


internalField   nonuniform List<vector> 
9793
(
(0.000593016 -0.00200286 1.08979e-17)
(0.00766101 0.00623539 -2.94872e-17)
(0.000249429 -0.000261539 -1.78433e-18)
(-0.00197381 -0.0648312 -1.64754e-17)
(2.06592e-06 -0.00014662 6.40733e-19)
(0.0217627 0.0206038 -1.06023e-18)
(0.015159 -0.0029837 -2.5452e-18)
(-0.0191609 0.00131652 8.86846e-18)
(0.00127635 0.00132723 -8.61007e-19)
(-0.013811 0.0158282 -6.26949e-17)
(4.15761e-05 -0.000284487 -6.35916e-19)
(4.92712e-05 -0.00031066 9.91093e-19)
(0.000268863 0.000103186 1.09278e-18)
(-0.0478046 -0.0390757 -5.78013e-17)
(0.000401175 0.000892556 1.90393e-18)
(-0.00800284 0.0035323 1.20363e-17)
(0.010422 0.011711 1.88264e-18)
(0.000326326 -0.00017471 9.71953e-19)
(0.00333217 -0.0501193 2.17625e-17)
(-0.000206765 0.000229164 -4.22148e-19)
(-0.00036237 0.000544206 -5.65349e-19)
(-7.13713e-07 -2.51133e-05 8.59432e-19)
(-0.00224033 -0.0604244 -1.07578e-19)
(-0.0193302 0.000213963 5.56139e-17)
(-0.0539953 -0.0357957 2.54823e-17)
(0.00186704 -0.00324612 2.05196e-17)
(0.00015233 -0.000379772 1.87568e-18)
(2.49351e-06 -3.94295e-05 -4.91399e-18)
(-0.000189359 0.000248957 -8.23324e-21)
(0.0168118 0.00552438 -2.74329e-17)
(-0.032194 -0.0013454 1.90631e-17)
(0.0250982 0.0178348 -2.8951e-17)
(0.000174854 -0.000289728 -1.75806e-19)
(0.000332997 -4.90051e-05 1.45101e-18)
(4.26943e-05 9.47471e-06 1.80957e-18)
(-0.00012885 0.00865009 -1.50594e-17)
(-0.00540507 0.00299336 -1.26493e-17)
(-0.000145312 -0.00332627 -1.50957e-17)
(0.0111716 -0.0597165 5.69536e-17)
(0.00523756 0.00607549 -7.62051e-18)
(0.0157441 0.00545354 1.82448e-18)
(0.0629773 0.0110729 3.92849e-17)
(-0.0279529 -0.00974346 9.27684e-17)
(1.46319e-06 -2.61345e-05 4.90952e-18)
(2.07207e-05 -0.000256167 -3.24781e-18)
(3.38661e-05 -0.000477838 8.02313e-18)
(-0.0310695 0.00383562 -5.2734e-17)
(4.21287e-06 -3.95049e-05 5.47822e-19)
(-0.000986178 0.000335863 3.80382e-18)
(0.000310809 -0.000178277 4.92371e-18)
(-0.000718984 0.00870777 -1.27459e-17)
(3.25862e-05 1.07077e-05 -1.28274e-18)
(0.00433985 0.0109528 -1.52114e-17)
(7.37202e-06 -9.25553e-05 -1.91412e-18)
(0.00351242 -0.00429015 2.94191e-18)
(-0.00243402 -0.0643887 -4.03272e-17)
(0.000241114 0.000111895 1.58654e-18)
(0.00621008 0.0282053 -1.83124e-17)
(-0.000961314 0.000427662 -1.32167e-18)
(1.60038e-06 -2.21134e-05 -7.6434e-19)
(0.000414908 -0.00374977 1.76696e-17)
(0.00532759 -0.00936037 -1.5371e-17)
(0.000251273 -0.000189359 9.66164e-19)
(-0.00665292 0.0130044 -6.28053e-19)
(9.29545e-05 1.98698e-05 -1.63201e-18)
(0.00118894 0.00124668 1.48399e-18)
(-0.0207371 0.00182432 3.50195e-17)
(0.00153417 0.00432205 4.96145e-18)
(-0.00634412 0.00268296 2.44961e-18)
(0.0227163 -0.0276053 -9.09055e-17)
(0.000406527 -0.00125642 1.2676e-18)
(-0.000509176 -0.0088317 -1.84228e-16)
(-0.0254275 0.00255158 -3.63556e-17)
(0.213619 0.11658 -1.12263e-17)
(0.0613168 -0.0143675 5.7649e-18)
(2.02284e-06 -8.36219e-05 -2.32239e-18)
(0.00241472 -0.00667247 2.43391e-17)
(0.0396893 0.00894882 -7.76228e-18)
(0.000155944 -0.000216875 -5.34698e-19)
(2.66927e-06 -9.9575e-05 4.84e-18)
(0.00221643 -0.00689948 -3.18858e-17)
(0.00405063 -0.0477252 -2.2582e-17)
(0.00940553 0.0119526 -4.57585e-18)
(0.00292674 -0.00105404 4.8393e-18)
(-0.00601165 0.00320641 7.26111e-18)
(0.0275629 0.0065919 1.68661e-17)
(6.80352e-06 -0.000134669 3.19653e-19)
(-0.00754321 0.0295056 2.88622e-17)
(0.0098237 -0.0612513 2.19409e-17)
(0.00499727 -0.00906798 3.34476e-17)
(-0.00487696 -0.0598836 -6.26746e-19)
(0.0462694 0.00701073 8.59453e-17)
(0.0452919 0.0023846 1.50913e-17)
(0.0096346 0.00377338 -1.68816e-18)
(-0.0242136 -0.0153598 -3.81439e-17)
(0.000416879 -0.000164122 -5.50716e-18)
(0.0628001 -0.00877776 -1.15533e-17)
(0.0109908 0.00897076 2.09868e-17)
(0.00336676 0.00300206 5.32609e-18)
(2.76943e-07 -0.000109937 -6.45132e-19)
(-0.0129337 -0.0584099 2.24162e-17)
(0.00405263 0.0103978 7.92643e-18)
(0.0353392 0.208923 2.41153e-19)
(2.34366e-05 -0.000251886 6.20755e-18)
(0.0879838 -0.0308609 3.66188e-17)
(0.036148 0.00266237 -8.74655e-17)
(0.206265 0.0996586 9.25497e-18)
(0.000152878 9.80562e-05 3.83862e-18)
(0.000141286 -0.000231962 -9.58855e-19)
(-9.84263e-07 -4.83476e-05 3.49301e-18)
(1.2639e-05 -9.6588e-05 -6.56772e-19)
(-0.00313864 -0.0593381 -4.90397e-18)
(0.000448065 -0.0105083 8.29784e-17)
(-0.0189153 -0.00343915 4.17822e-17)
(0.000429956 -0.00126693 6.48181e-18)
(0.000114976 -0.000572638 -1.83932e-18)
(-0.00624036 -0.00103166 1.72168e-18)
(6.6407e-05 -0.000503177 4.10332e-18)
(-0.00221826 -0.0643647 3.26351e-17)
(1.34038e-05 -0.000401972 5.80252e-18)
(0.0815407 -0.0393868 9.98879e-18)
(-0.00540906 0.0310463 6.82088e-19)
(0.0838684 0.00377595 -3.53422e-17)
(0.00259176 0.0148776 -1.66645e-17)
(-0.0050196 0.00341774 -1.0386e-17)
(6.69003e-07 -0.000433816 -5.18483e-18)
(0.0123902 0.0107032 -2.75409e-18)
(-0.0315152 -0.00156327 -6.00268e-17)
(0.00112872 0.0511612 -3.54522e-17)
(0.000733325 0.0541197 2.62122e-17)
(-0.00180447 0.00432714 -3.25079e-18)
(0.000362303 3.97997e-06 9.33141e-20)
(0.000650901 -0.00191409 -7.73748e-18)
(0.00102863 0.00375413 1.6511e-18)
(9.67141e-05 0.00771943 5.33102e-18)
(0.0213319 -0.00309344 -5.75224e-18)
(0.0234211 0.030456 5.75855e-17)
(-0.00628754 -0.000420683 1.40727e-17)
(2.05804e-06 -5.78543e-05 1.22656e-18)
(0.0111112 0.0140905 -3.89917e-17)
(0.00278269 -0.041601 -2.52532e-17)
(0.000161959 0.00814614 -6.78837e-18)
(0.000730965 -0.000994863 -1.85673e-18)
(-0.00724416 0.0239506 1.77817e-17)
(-0.0308701 0.00510211 -1.86236e-17)
(0.0132407 -0.0136424 -6.21738e-17)
(-2.21028e-05 -0.000434402 -4.39259e-18)
(0.0552083 -0.0113605 5.51619e-17)
(0.000386591 -2.3094e-06 -2.70669e-20)
(-1.02215e-05 -0.000412326 7.86566e-18)
(0.000178268 -0.000416775 5.86325e-18)
(-0.0230151 0.00245967 7.45026e-17)
(0.00311485 0.0028788 -2.21045e-18)
(0.000150903 -0.00039728 -6.89803e-19)
(9.58953e-05 -0.000716344 9.57981e-18)
(0.0454674 -0.00728022 7.87701e-18)
(0.010994 0.0123913 -4.46946e-18)
(0.000268419 -0.000181897 -7.602e-19)
(0.0245864 0.0183454 -3.86466e-17)
(0.000425728 -0.000903816 4.36592e-18)
(-0.00670396 0.0272009 -3.97932e-17)
(-0.00160683 0.00461229 2.50546e-18)
(-0.000327537 0.000577953 -2.34943e-18)
(0.00241002 -0.011311 -4.48372e-17)
(-0.00110415 0.00171599 -5.19909e-18)
(0.0408165 0.0119994 -1.02198e-17)
(-0.00771806 0.219583 4.07033e-17)
(-0.000923196 0.00223037 -2.07033e-18)
(0.000136545 9.57835e-05 5.02201e-19)
(2.29958e-05 -0.000233846 -2.3758e-18)
(0.0007166 -0.0010826 -1.1465e-21)
(-0.00187465 -0.00120294 -2.51087e-17)
(-0.0480897 0.0217396 2.59944e-17)
(0.00899979 -0.0433356 4.52148e-17)
(0.000274534 0.000102122 3.52957e-18)
(0.020687 0.0209917 9.99237e-18)
(0.0105204 -0.00973297 3.67107e-18)
(0.00177721 -0.0121843 7.16567e-18)
(0.000184386 -0.000203354 2.41968e-18)
(0.000990899 0.00449683 -1.16693e-18)
(0.101157 -0.024911 2.22404e-17)
(-0.0303231 0.00395858 6.63013e-17)
(-0.00565904 0.0329624 2.00291e-18)
(4.10246e-05 -0.000433751 -2.66085e-18)
(4.30839e-05 -0.000590377 -1.86518e-18)
(0.000142889 9.21846e-05 -9.39688e-19)
(0.0991041 0.00873434 2.04956e-17)
(-0.0270054 0.00273343 5.54838e-17)
(-0.0236976 0.00664388 -1.08264e-16)
(0.0510771 0.195657 -1.39537e-17)
(0.00112376 0.00101655 -1.01282e-18)
(0.00594392 -0.0703228 8.94228e-18)
(0.00023171 -0.010408 2.52285e-17)
(0.000620125 -0.0033732 -3.25572e-18)
(-0.00120614 2.31414e-05 2.28006e-18)
(0.00194011 -0.00188041 1.38619e-18)
(-0.000522866 -0.0114595 -9.77153e-17)
(-9.18369e-05 0.000218373 3.76419e-19)
(0.000342014 -0.000181156 -2.79826e-18)
(2.79698e-05 -0.000399957 1.72031e-18)
(0.000418104 -0.00139237 1.23857e-18)
(-0.000505637 0.00047289 5.63752e-19)
(-0.00148782 0.00952009 1.0899e-17)
(-0.00317694 0.00548374 1.60357e-17)
(0.00531611 -0.0625557 -8.61808e-17)
(7.84507e-05 -0.000977781 1.29666e-17)
(0.00422924 0.00548682 8.67601e-18)
(-0.00110808 0.00218585 -4.67036e-19)
(0.0011222 -0.00169986 -9.84411e-19)
(0.00474779 -0.0135031 5.35455e-18)
(0.0105288 0.0135715 2.69115e-17)
(0.000702113 -0.0391135 -6.65206e-18)
(-3.64896e-05 0.000164945 -3.51872e-19)
(0.0188402 -0.0308155 1.19276e-16)
(0.00289179 -0.00125367 -3.9371e-18)
(-0.0283843 0.00384688 -2.50742e-18)
(0.000452848 0.000928435 1.34781e-19)
(0.0217953 -0.00184298 2.36947e-17)
(0.000102279 -0.000581287 -2.54129e-18)
(0.00071749 -0.00710465 -2.48703e-18)
(0.0116609 0.00932431 6.14158e-19)
(-0.000490999 0.000520889 -2.60371e-18)
(-0.00196144 -0.0117556 3.64752e-17)
(0.00253765 -0.010764 -1.75453e-17)
(0.00916017 0.00343791 -1.14481e-17)
(0.000497571 -0.000275555 4.88684e-18)
(0.00390473 0.017574 1.42895e-17)
(-0.0206651 0.0549091 7.32955e-17)
(0.00118642 -0.00699275 3.49391e-17)
(0.00136589 -0.00707044 -3.89104e-17)
(0.000971953 -0.0648032 -3.47488e-17)
(-0.00261274 0.0444592 -1.22633e-17)
(-0.0256392 0.00421365 3.80982e-18)
(-0.00693481 0.0137964 -1.49555e-17)
(9.31045e-05 -0.0100271 -4.42357e-17)
(-0.000703301 -8.68488e-05 1.4582e-18)
(0.0171469 -0.0581918 -3.71081e-17)
(-0.0172362 -0.00492344 -7.89654e-17)
(-8.71894e-05 0.00021178 -1.10229e-19)
(1.36236e-05 -0.000327219 2.48299e-18)
(0.0648699 0.0153872 3.17374e-17)
(0.000527554 -0.000728755 -1.44572e-20)
(1.01891e-05 -8.95685e-05 -2.35275e-20)
(0.00551762 0.0322166 -2.49472e-17)
(0.0084946 0.0316984 -1.08657e-17)
(0.00121963 0.0010819 1.93435e-19)
(0.000876413 0.00466676 2.16036e-18)
(0.00449681 0.0058138 -6.65649e-18)
(0.00582068 -0.00404665 1.06212e-17)
(-7.61482e-05 0.00492764 3.46026e-18)
(0.000166273 -0.000214928 3.85885e-18)
(0.0101255 8.82703e-05 -4.58499e-18)
(-0.00110045 -0.0641552 -4.73197e-18)
(-0.000446025 0.000516069 1.21737e-18)
(0.00316434 -0.0332096 -9.10334e-17)
(1.1382e-05 -0.000110466 4.43975e-19)
(6.20661e-05 -0.000367229 4.03706e-19)
(-2.54279e-05 2.96871e-05 4.98201e-20)
(-0.00191328 -0.0648467 6.11739e-17)
(-2.19059e-05 -0.000249466 9.25273e-18)
(0.0420909 -0.00633071 -3.3439e-17)
(0.0434829 -0.0320667 -1.74185e-17)
(0.000112909 -0.000224224 8.11278e-19)
(9.86569e-05 -0.000563836 6.84227e-18)
(0.0361424 0.0218252 3.72374e-17)
(-3.63987e-05 2.45619e-05 1.8782e-20)
(1.05624e-05 -0.000215682 4.00732e-18)
(-6.96106e-05 2.28485e-05 -2.58681e-20)
(0.0380667 -0.0359747 4.37888e-18)
(0.00236449 -0.0109867 9.63393e-17)
(0.00182664 -0.00284794 6.4166e-19)
(0.00656316 -0.0132061 2.95797e-18)
(0.00716609 0.0259123 -5.86685e-19)
(0.0154341 0.204463 -2.05731e-17)
(0.00179953 -0.0616781 -1.10042e-16)
(-0.00084005 0.00239722 -2.11924e-18)
(-0.00803252 -0.0779385 3.3073e-17)
(6.74683e-06 -9.53603e-05 -1.28272e-18)
(-0.0342889 0.066303 -7.10116e-17)
(-0.000645899 -0.0155179 -7.54857e-17)
(0.00267522 -0.0599761 8.8628e-17)
(0.0811763 -0.0368506 1.39001e-17)
(-0.00214586 0.0424184 -1.42141e-17)
(-0.00220206 0.00427562 2.17826e-18)
(0.00881983 0.0111966 6.56601e-18)
(-0.0028213 0.00521341 -6.28322e-18)
(-0.00130596 -0.000174772 1.02847e-18)
(-0.00181924 0.00188483 1.69832e-18)
(0.00524175 -0.0130581 1.1172e-18)
(0.00194658 -0.003331 -8.66171e-18)
(8.42092e-05 -0.000560543 -2.97815e-18)
(1.98906e-07 -6.87253e-06 4.38761e-19)
(-4.11725e-05 0.000176884 2.01307e-19)
(-0.000175753 -1.34249e-06 7.02861e-21)
(-0.000417485 0.000559318 1.36972e-18)
(-0.00022585 -0.0550894 4.24194e-17)
(0.000177282 9.26758e-05 2.90517e-18)
(0.000449127 0.000736338 -5.67087e-19)
(-0.000170255 -1.3443e-06 -2.70426e-19)
(0.000246519 0.000110977 -1.65362e-18)
(0.00106604 -0.0646204 -1.12571e-16)
(0.0137241 -0.0134073 -7.67378e-17)
(-0.00116982 -0.00789972 2.96513e-17)
(0.000484174 -0.00244363 1.27632e-18)
(-0.00550637 0.0237767 1.31083e-17)
(-0.000169626 6.83211e-07 -1.55629e-19)
(0.131131 0.0825105 4.8624e-19)
(-0.0154416 -0.00174677 -7.65762e-17)
(8.69948e-06 -0.000247873 -6.48154e-18)
(0.0455636 -0.0263744 -3.46445e-17)
(-0.00487294 0.0120004 -1.28472e-17)
(3.86246e-05 -0.000265087 1.13704e-17)
(-0.00356701 0.00656187 7.03094e-17)
(0.206637 0.0797144 1.16474e-18)
(0.000179589 -0.000304513 5.62853e-18)
(0.0104757 -0.000354934 1.68267e-17)
(0.0041259 -0.00954457 -8.08488e-17)
(0.00103404 -0.00150161 -3.74366e-18)
(-0.000622128 -0.00528024 1.50355e-17)
(0.000407234 0.000814438 -1.74521e-18)
(0.000952316 -0.00169518 -6.41786e-18)
(-0.0807525 0.0803201 1.56498e-17)
(0.0047527 -0.00533972 -4.07818e-18)
(0.000312882 -5.24052e-05 5.40643e-19)
(5.84467e-05 -0.00037903 -2.67064e-18)
(0.000481799 -0.00238625 -1.28617e-18)
(0.0129702 -0.0102279 -8.90648e-18)
(-0.000378961 -0.0109636 7.72182e-17)
(0.000229277 -0.00026675 1.09417e-17)
(0.000158505 9.43348e-05 -2.50018e-18)
(-0.000459759 0.00103082 3.25492e-18)
(-0.00114618 -0.00107471 3.51556e-18)
(-0.023619 -0.0520776 -1.60762e-17)
(-0.0105686 -0.0143033 -3.49228e-17)
(-0.000657782 2.29867e-05 1.97227e-19)
(0.00503098 -0.00552055 -1.40325e-17)
(-0.000836754 -0.00538406 -3.68074e-18)
(0.00363287 -0.0160294 4.61878e-18)
(0.00690555 0.0220861 1.53691e-17)
(-0.000672755 -0.000341712 2.81109e-18)
(-0.000858499 -0.000159141 1.22235e-18)
(-0.000394861 0.00104488 2.86603e-19)
(0.00796984 0.0113531 -1.22429e-18)
(0.00141744 -0.000759523 -3.50366e-19)
(-0.0282307 -0.00424039 2.46674e-17)
(0.000109476 -0.000583195 7.06247e-18)
(0.000323122 6.51078e-05 -1.39512e-18)
(0.0532789 0.0795397 3.77992e-17)
(-0.00056886 -0.0539235 -4.46323e-18)
(0.0210337 -0.0342429 -1.91631e-18)
(-0.000176984 2.7016e-07 1.36576e-20)
(-0.0103558 -0.0597222 1.98749e-17)
(0.00341114 -0.00102525 1.3529e-18)
(-0.00023667 -0.0112202 2.12959e-17)
(-0.0174361 0.0024803 -8.64227e-17)
(0.0013071 -0.0655482 6.50574e-17)
(0.00295219 -0.000429 3.04643e-18)
(0.00570737 0.00613499 1.61416e-17)
(0.0248897 0.0290082 -2.69716e-17)
(-0.00620308 -0.0580986 1.04907e-17)
(-0.00372508 -0.0605914 3.6687e-17)
(-0.000695536 -0.00362588 3.91693e-18)
(3.77105e-06 -4.64696e-05 1.88174e-18)
(0.00178886 -0.00296971 -2.95241e-18)
(-0.000930559 0.000172312 4.6468e-19)
(0.000162424 7.88406e-05 6.13506e-19)
(0.00133302 -0.00080537 8.84426e-19)
(0.000175146 -0.00032759 -6.50833e-19)
(5.16462e-08 -2.69081e-06 -1.23744e-18)
(-0.0194696 -0.0022132 -2.2998e-17)
(3.44735e-05 -0.000274967 -8.97836e-18)
(0.0132671 0.00922451 -2.13451e-17)
(0.00449411 0.00668447 2.32362e-18)
(0.14425 0.0312095 -6.73163e-17)
(-0.000642939 -0.000397965 -6.91526e-19)
(0.00308988 -0.000973354 4.69729e-18)
(0.000531862 -0.0672461 1.22129e-17)
(5.58843e-06 -0.0102996 -1.61581e-16)
(-0.0562541 -0.0313779 -2.78646e-18)
(0.00644057 0.0212167 -1.33489e-17)
(0.000303031 5.43938e-05 2.06237e-18)
(0.00309428 -0.000321051 2.04771e-18)
(0.000261575 -0.000235301 -3.8529e-18)
(0.0205964 -0.0121146 -7.40562e-17)
(-0.000112362 6.85894e-05 8.58052e-20)
(0.0243302 -0.0364074 -2.77718e-17)
(0.00866059 -0.0109912 -8.02683e-18)
(0.0145215 -0.00367709 2.75445e-17)
(-0.0113929 -0.0123953 9.53953e-17)
(-0.080293 0.0962325 -1.69299e-17)
(8.3777e-05 -0.000213139 -1.01364e-18)
(0.00047249 -0.000229243 1.38292e-18)
(0.0241921 0.032436 -6.01852e-17)
(0.0216509 -0.0113017 5.66882e-17)
(3.27745e-05 -0.000955922 1.22133e-17)
(-0.0213368 0.00150549 -1.71887e-16)
(9.13666e-05 -0.000224886 1.37963e-18)
(5.13342e-05 -0.000483089 8.91769e-19)
(-0.00403038 -0.0152406 2.14539e-18)
(-4.45868e-05 0.000159943 2.06006e-19)
(0.00745811 0.0272828 -2.24852e-17)
(-0.000701547 -1.90516e-06 1.05451e-18)
(-0.0348433 0.211412 -4.87818e-17)
(0.000106876 -0.000601869 -6.53303e-18)
(-0.00123761 0.00162233 -8.78128e-19)
(0.0590849 0.0386505 1.7605e-18)
(-0.000486236 -0.00862677 -3.16312e-17)
(-0.0322072 0.0150574 1.34686e-17)
(0.000738141 -0.00336931 -3.92057e-18)
(0.000129701 -0.000189462 -4.17837e-18)
(0.00064083 -0.000223435 2.31213e-18)
(0.0769277 0.000272843 2.51406e-17)
(0.0111103 0.00804126 -1.41425e-17)
(-0.000481307 0.000222535 -9.03442e-19)
(2.4264e-05 -0.000469766 -5.76357e-18)
(0.00330995 -0.0044936 -6.93094e-19)
(-0.00125332 -0.00530356 1.25616e-17)
(-0.0341846 0.0122664 -8.68066e-18)
(-0.0295339 0.00509692 2.70359e-18)
(3.02533e-05 -0.000442078 2.52009e-18)
(0.000331377 -6.14402e-05 2.06423e-18)
(0.00316341 -0.0117676 3.79165e-17)
(0.000131579 -0.000179439 2.34265e-18)
(0.000380181 -0.0668939 4.05011e-17)
(0.00225873 -0.0122028 -1.11117e-17)
(5.24436e-05 -0.000567891 -3.93684e-18)
(0.000197113 -0.000284895 1.45152e-18)
(-0.00168409 0.00190303 2.3744e-18)
(0.000105667 -0.00021753 1.18148e-18)
(-0.000496446 0.000947631 -1.20652e-18)
(-0.0130796 -0.0586856 -6.00145e-17)
(0.000962552 -0.00725159 -2.63456e-17)
(0.0351982 0.0248276 8.4057e-18)
(-0.00109628 -0.00412706 -1.14624e-17)
(-0.00427348 0.00115067 -5.09665e-19)
(0.00333766 0.0144138 -2.35215e-17)
(-0.000163607 -0.00322393 -4.55511e-18)
(-0.00339952 -0.0634152 -7.22186e-18)
(0.000518972 -0.00368174 -5.20011e-18)
(4.82445e-06 -0.000122506 5.54085e-19)
(0.00134903 0.00453942 -5.47209e-18)
(0.014353 -0.0127521 5.92011e-17)
(0.000526237 -0.0011556 3.39978e-18)
(0.00042477 -0.000970163 -2.00637e-18)
(0.000382056 -0.00134064 6.55133e-18)
(-0.00010147 6.49481e-05 -4.63967e-20)
(0.000273543 -9.81256e-05 1.13136e-17)
(0.00061104 0.000598529 9.42038e-20)
(5.4925e-05 -0.00047665 -9.69614e-20)
(6.27085e-05 -0.000197848 -9.75225e-19)
(0.00195638 -0.00150421 -1.15202e-17)
(-0.00237608 0.0052597 7.18672e-18)
(0.00457703 0.0332715 4.37632e-17)
(-0.000177647 1.29447e-05 -3.11857e-19)
(-0.000615429 -0.0113911 3.94344e-17)
(0.00154539 -0.00317935 -1.75566e-17)
(0.00885623 -0.0118177 1.09445e-17)
(0.00189328 -0.0638634 4.07579e-17)
(-0.00131938 -3.40365e-05 -9.94502e-19)
(0.0697734 0.0831345 -6.01595e-17)
(0.0148689 -0.00215362 1.0172e-17)
(-0.00120285 0.000140926 -9.92236e-19)
(-0.000106755 9.70845e-05 -9.41607e-20)
(0.000846652 -0.00105762 -8.98258e-19)
(0.115082 -0.0269402 -1.46269e-16)
(0.00828905 0.0250828 5.9994e-18)
(-0.000114697 9.2509e-05 7.98569e-20)
(6.15715e-05 -0.000657389 1.9553e-19)
(3.57655e-05 -0.000420798 -4.04729e-18)
(-0.00218991 -0.00778076 -1.14695e-17)
(0.0101303 -0.0105296 -6.07847e-18)
(0.0403028 0.0056965 6.31393e-17)
(9.69683e-05 1.59895e-05 -1.24156e-18)
(7.85043e-05 -0.000704695 -2.05307e-18)
(0.000961346 -0.00483638 -2.16461e-18)
(-0.0314196 0.00302919 8.81582e-18)
(0.00105162 -0.0603556 -2.19687e-18)
(0.000899777 -0.00270871 2.25298e-17)
(-0.00223359 0.00336343 -1.18102e-17)
(0.00784509 -0.0264411 9.14403e-18)
(0.0435836 0.0112957 -5.03844e-17)
(0.0122427 0.0394804 -5.0138e-18)
(0.00123367 -0.00136267 4.12592e-19)
(0.000343122 3.11099e-05 -1.46825e-18)
(0.00678292 -0.0619052 1.74214e-17)
(0.000418115 -0.00023886 -4.4731e-18)
(0.0114205 -0.00963452 1.55308e-17)
(0.146781 0.0291876 -2.01395e-17)
(-0.000462915 0.000186033 5.28823e-19)
(0.00261899 -0.0108342 -7.58178e-17)
(0.0035661 0.0052548 1.46254e-17)
(-0.0104399 -0.0591475 1.64443e-17)
(0.00061068 -0.000201477 -1.72356e-18)
(0.0071046 -0.0530579 3.0346e-19)
(0.0257177 0.0149318 8.30804e-18)
(-0.00729797 0.00350488 -1.64324e-17)
(0.0331939 0.0219044 -4.46213e-18)
(0.000430155 -0.000192154 5.86036e-19)
(0.00392441 -0.0166378 1.17676e-17)
(8.64131e-05 -0.000614382 -1.98457e-18)
(0.000474611 -0.000186435 -4.36734e-18)
(1.8705e-05 -0.000206702 1.51669e-18)
(0.00029079 -0.000154206 -2.3879e-18)
(0.0549685 -0.0219633 6.24351e-17)
(0.000431338 -0.000193041 7.6607e-19)
(-0.00083931 0.000525627 -1.24134e-18)
(0.000727439 -0.00236788 -3.15296e-19)
(-0.000663638 9.93582e-05 -2.58093e-18)
(0.000361149 2.377e-05 1.95993e-18)
(0.010228 -0.00152643 -2.03314e-18)
(0.0022445 -0.000906788 6.22033e-18)
(-0.00525193 0.0128054 9.40189e-18)
(0.000156776 -5.23531e-05 -6.52004e-19)
(0.000151561 -7.2675e-05 -2.00603e-18)
(0.000862721 -0.0668187 -2.28721e-18)
(-0.000606235 -0.00824369 -4.77254e-17)
(0.000882129 -0.00266466 -4.49813e-18)
(0.0111338 -0.0385595 4.91488e-17)
(-0.00219672 0.00492671 -2.39626e-18)
(0.00151734 -0.000988384 -3.3536e-18)
(-3.83367e-05 -0.000256504 -4.29418e-18)
(-0.000543473 0.000922899 -3.28704e-18)
(-0.0146526 -0.0153696 4.76529e-17)
(-0.000868679 0.00044174 2.37382e-18)
(9.0083e-05 -1.87951e-05 -1.02042e-18)
(-0.0342064 0.000911519 7.36181e-17)
(0.0587765 0.0113365 -7.99327e-17)
(0.00611111 -0.00378759 -1.14612e-17)
(0.000256532 0.000104399 -2.92978e-18)
(1.69111e-06 -4.85342e-05 -2.80536e-18)
(0.000186803 0.00209602 3.88319e-18)
(1.24688e-05 -0.00018319 9.76281e-19)
(-0.00902827 -0.0327159 -2.88906e-17)
(0.00103587 -0.00156808 8.71265e-19)
(0.0830496 0.184306 9.52252e-20)
(-0.00416239 0.00353946 6.552e-18)
(-0.00145595 -0.0111815 -7.70712e-17)
(3.92612e-06 -0.000124773 -7.38549e-18)
(-0.0326313 0.0018394 -5.10156e-17)
(6.16573e-06 9.14803e-06 4.67659e-19)
(0.013535 -0.0110287 -9.6132e-20)
(0.000392698 -0.000258671 4.45119e-18)
(-0.0234294 0.0397022 1.77946e-17)
(-0.00126216 -0.0630101 -4.46929e-17)
(8.00502e-05 -0.000636335 5.78682e-18)
(0.0792087 0.011181 -3.87281e-17)
(0.000470858 -0.000548188 4.89241e-19)
(1.14203e-05 -9.87477e-06 1.64044e-18)
(-0.000357608 0.000496756 1.41648e-18)
(0.113437 -0.00775978 -6.54376e-17)
(0.0030946 -0.0649551 1.06467e-16)
(0.00079629 -0.00104863 -3.41744e-18)
(0.00379481 0.00558591 -9.85688e-18)
(-0.000920091 0.000272773 3.95928e-19)
(-0.00167108 -0.0186151 9.9184e-17)
(-0.000174151 1.64279e-05 1.92386e-19)
(0.0103608 0.000502422 8.2015e-18)
(0.00909626 -0.0515466 -1.1072e-17)
(-0.000270911 -0.00340544 1.61899e-17)
(9.9363e-05 -1.18716e-05 -1.04856e-18)
(0.00284113 -0.00664001 1.05603e-17)
(8.51952e-06 -4.81675e-05 -2.48059e-18)
(9.98402e-05 0.00221161 -2.76904e-18)
(-0.000279516 0.00113136 -9.05081e-19)
(0.00264546 0.0329427 -3.71435e-18)
(0.000121326 6.34381e-05 -8.87898e-19)
(0.0178449 -0.00919036 1.04475e-16)
(0.000147858 -9.84582e-05 1.39545e-18)
(0.00150803 -0.000594907 -2.73816e-18)
(-0.010136 0.015124 1.42051e-17)
(0.0036622 -0.00845577 -1.58073e-17)
(0.0187207 0.0424895 -6.00689e-19)
(0.000425694 0.000669176 4.49497e-19)
(-0.030055 0.0023582 -4.11049e-17)
(0.000513556 -0.000238846 2.05648e-18)
(0.0106007 -0.0113312 1.53649e-17)
(0.00027218 -0.000649162 1.22101e-17)
(-0.00118626 0.00200662 5.1884e-18)
(0.000426247 -0.00024407 8.48171e-18)
(0.00014823 -0.000105268 1.7613e-18)
(4.43108e-06 -0.000110454 -6.34282e-19)
(0.0102972 -0.0119252 -3.80306e-17)
(-0.0244171 0.00651611 6.93353e-18)
(0.0723675 0.00807101 -1.22942e-17)
(0.0193133 0.0111676 -3.39889e-17)
(0.00121236 -0.00535092 2.73143e-17)
(0.00406541 -0.00421615 1.31893e-18)
(-0.00181249 -0.0161554 3.13594e-18)
(0.00111048 0.00398982 7.57321e-20)
(-0.0126117 -0.0367632 5.08264e-17)
(-0.0169376 -0.0355744 -6.87779e-17)
(0.0131308 -0.0118542 5.22811e-17)
(0.00203502 0.00440438 -2.0096e-17)
(0.107727 0.0350546 1.97762e-17)
(0.0119837 -0.0104365 -2.17688e-17)
(-2.02642e-05 0.00218573 -8.26776e-18)
(0.000217419 -0.0112402 -6.2687e-17)
(-0.0113691 0.0146964 6.49347e-18)
(-0.00106329 0.0018756 -6.60117e-19)
(0.0136122 -0.0125963 -6.4276e-17)
(5.85354e-06 -4.14919e-05 2.63168e-18)
(0.00606108 -0.0135134 -8.61382e-19)
(0.00600633 -0.00327822 4.6653e-19)
(0.0188937 0.032026 -2.36177e-17)
(-0.000739875 -0.00393076 9.55008e-18)
(-0.00220406 -0.0506716 2.30685e-17)
(-0.0370508 -0.0109676 4.23073e-17)
(-0.00918998 0.0139726 -4.04884e-18)
(0.0170849 0.0318285 3.66811e-17)
(1.78475e-05 -0.00035536 -6.16087e-20)
(0.0106079 -0.0147389 -1.46815e-17)
(-0.000410213 -0.00245664 2.49578e-18)
(0.000374277 -0.000229919 -2.04044e-18)
(0.00131285 -0.00089297 -2.15649e-18)
(-0.00484362 -0.00110499 4.74862e-18)
(0.0104024 0.00767873 8.25885e-18)
(0.00187121 -0.0639649 2.6963e-17)
(0.00660796 -0.0123982 7.02211e-19)
(-0.0337106 0.00434915 4.80953e-17)
(0.00124326 0.00357585 3.90223e-18)
(0.00205597 -0.0019116 6.52824e-18)
(-0.0122804 -0.0581054 -2.28613e-17)
(-0.000293457 -0.0104799 7.92304e-17)
(-0.00176197 0.00322654 -6.02145e-18)
(0.0067985 0.0191515 -1.56515e-17)
(0.00116612 -0.00171545 1.22307e-17)
(-0.000688182 -0.0118702 -1.24712e-17)
(0.0668041 0.0498797 1.92327e-17)
(7.50907e-05 -0.000544069 2.34899e-18)
(-0.00155843 -0.00796778 -5.58356e-18)
(0.00335052 -0.0114266 2.29451e-17)
(-0.0340036 -0.0223259 -6.80395e-17)
(8.85556e-05 1.71342e-05 2.15546e-18)
(0.00194549 -0.00309096 -1.44235e-17)
(0.0391228 -0.00182701 -5.07465e-17)
(-0.0019524 0.00892822 -8.90079e-19)
(0.102606 0.0112196 -2.59318e-17)
(-0.0199634 0.0404558 -4.20086e-18)
(0.145932 0.0339013 1.12557e-17)
(0.00291814 -0.00230132 -4.98637e-18)
(0.00142056 0.0040623 -3.39515e-18)
(0.00079508 0.00109735 1.19127e-18)
(0.000114638 -0.000667822 -4.88431e-18)
(-0.00569259 0.0629612 -5.00864e-18)
(2.02481e-06 -4.21626e-05 -1.41984e-18)
(-0.0133718 0.064225 9.04819e-19)
(0.0200217 0.0146769 4.99767e-17)
(0.0129741 -0.00495835 9.44358e-18)
(2.38573e-06 -1.79118e-05 4.10472e-18)
(1.81871e-05 -0.000102761 9.88416e-19)
(-0.00488667 0.000659352 -7.43498e-18)
(-0.00206117 -0.000600106 -5.84657e-18)
(3.2043e-05 1.31038e-05 -3.52602e-19)
(0.000502499 -0.000749904 1.26372e-18)
(0.0184367 0.0106577 4.38463e-17)
(0.125038 -0.022507 5.58433e-17)
(-0.0545072 -0.0322846 3.85035e-18)
(1.47692e-06 -2.54452e-05 -1.30735e-18)
(0.019021 -0.011355 1.62559e-17)
(0.000246832 8.74605e-05 -1.4149e-18)
(-0.0163353 -0.0426345 -4.14467e-17)
(-0.00408925 0.019135 -3.14912e-17)
(0.00166535 -0.00655408 3.89899e-17)
(-0.0010272 -0.00526252 -5.30112e-18)
(0.0251105 0.015438 3.98296e-17)
(5.27388e-05 4.69085e-05 -3.98891e-20)
(0.000193741 -0.000374485 -1.16983e-18)
(0.00294494 -0.00626786 -2.22391e-17)
(0.000415804 -0.000269993 -5.2132e-18)
(0.000174864 0.00199373 5.50594e-18)
(0.00954681 0.0155621 -5.78867e-17)
(-0.0260937 -0.0500412 1.12482e-17)
(-0.000546496 0.000447943 -2.69102e-18)
(-0.000401784 0.0552178 7.09349e-18)
(0.0122825 -0.060072 -1.41994e-17)
(0.000208281 0.00512339 -1.11867e-17)
(-0.0573469 0.0632623 -1.04804e-17)
(0.0190182 -0.0590187 -6.03134e-17)
(0.000651619 0.000658473 9.3248e-20)
(0.011521 0.0103705 -1.99093e-17)
(-0.00833269 0.00420052 -5.51733e-18)
(0.00111482 0.000891832 3.93335e-19)
(-0.000318412 0.000485055 6.02313e-20)
(0.00104479 -0.00885807 6.94354e-17)
(0.00861416 -0.0598462 3.31433e-17)
(-0.0302874 0.00260593 3.65905e-17)
(0.000555787 -0.00122123 6.78418e-18)
(4.33025e-05 -0.000356539 1.57782e-18)
(-9.10175e-05 0.000588219 2.87102e-19)
(-0.00684053 -0.00209267 -8.84978e-18)
(0.00225516 -0.000757117 1.55415e-18)
(0.00271451 -0.00131902 -4.63362e-18)
(-0.00250609 -0.0116079 3.77969e-17)
(-0.0054773 0.0193266 -3.44606e-17)
(7.05862e-05 -0.000212192 2.30133e-18)
(0.0388727 0.0134941 1.74875e-17)
(-0.000877385 0.00941681 1.32705e-17)
(0.00135147 -0.00507618 -1.67397e-17)
(3.82395e-05 0.00192541 -4.60094e-18)
(-0.0302601 -0.00112736 9.22451e-17)
(-0.00234727 0.00395307 -2.46029e-18)
(8.59238e-05 5.4661e-05 1.11724e-18)
(0.0135858 -0.0046903 -1.78446e-18)
(-0.00074886 -0.0116277 -4.04102e-18)
(-0.000524474 0.000218532 1.3233e-18)
(4.28547e-05 -0.00049439 -3.09297e-18)
(0.000245764 -0.000208709 -2.78104e-18)
(-0.00696098 0.00275388 1.64034e-18)
(5.05631e-05 4.49137e-05 3.25987e-19)
(-0.00805028 0.0144872 2.25474e-17)
(0.0258322 0.0243297 -2.04005e-17)
(0.00165703 -0.000438473 -4.98269e-18)
(0.0019233 0.0340343 7.01637e-18)
(-0.00161376 0.00302876 -1.29619e-19)
(4.48058e-05 0.00176569 -4.73079e-18)
(0.0325703 0.0414757 -6.69045e-17)
(-0.00665673 -0.0430515 -1.06903e-16)
(0.00386585 0.0454327 3.62784e-17)
(0.000174231 -0.000419694 -9.46246e-18)
(-0.000597628 0.000175281 -1.16208e-18)
(0.244257 0.0360155 -5.95452e-17)
(0.000502368 -0.00354883 9.15617e-19)
(0.0793598 0.062506 1.4993e-17)
(-0.00050347 9.41537e-05 1.2763e-18)
(0.000472876 -0.000618055 2.54792e-19)
(-0.0209063 -0.00436571 -9.15837e-17)
(0.0675649 0.199007 1.38789e-17)
(0.00500549 0.00566024 1.4808e-18)
(0.00645291 0.0296642 -1.34257e-17)
(-0.000557366 -0.007732 -1.79224e-17)
(0.000523545 -0.000265907 -6.9902e-19)
(1.56885e-06 -1.47655e-05 -2.5719e-18)
(0.00115875 0.000644094 -6.16346e-21)
(-0.0152091 -0.0275199 1.80021e-17)
(9.28992e-05 -1.72153e-05 3.60113e-19)
(-1.84753e-07 -3.2988e-06 8.38792e-19)
(-0.00755238 -0.0578448 -3.84007e-17)
(-0.000744454 -0.00386634 2.2992e-18)
(0.0288968 0.00781261 -2.35503e-17)
(-0.000629385 -0.00505428 -3.83586e-18)
(0.000240832 0.000104612 2.79675e-19)
(-0.00330943 -0.0462505 1.05713e-16)
(6.14174e-06 -7.8008e-05 2.78339e-18)
(0.000333439 -0.000567074 3.90816e-19)
(0.00114232 0.000556841 2.24048e-19)
(0.00367342 -0.00354117 -3.42478e-18)
(-0.0014598 -0.0665356 -6.54018e-18)
(7.57178e-05 -0.000372425 4.68456e-19)
(-2.37378e-05 -0.000248198 9.55199e-18)
(0.000424834 -0.00029961 8.59708e-19)
(0.000455552 -0.000245509 6.11513e-19)
(0.000248235 0.000101086 -6.52404e-19)
(0.000875747 0.00112 8.8836e-19)
(-0.0131177 0.00232389 1.55218e-17)
(0.00370515 -0.00380398 5.27118e-18)
(0.00183042 -0.00153346 6.25984e-18)
(0.000139368 -0.000354517 9.21195e-19)
(0.00345157 -0.00402655 -4.38121e-18)
(0.0124621 0.0114291 4.38522e-17)
(-0.00840069 0.00280782 1.32751e-17)
(-0.000878178 -0.00412988 -3.18438e-17)
(2.43762e-07 -5.90912e-06 -2.706e-18)
(-0.000111351 0.000568783 2.58614e-20)
(0.0028929 0.000319749 -4.04933e-19)
(0.00138165 -0.0641118 -2.34889e-17)
(-0.107977 0.0289305 -5.28128e-17)
(-0.0040848 0.000823554 -3.3633e-18)
(-0.0329434 0.00266165 -4.04638e-17)
(1.47874e-05 -0.000366949 4.5806e-18)
(0.00270481 -0.00227947 1.32277e-17)
(0.036079 -0.0164319 -3.11425e-17)
(3.94816e-05 -0.0103978 -4.50399e-17)
(0.000268291 0.000969613 3.46527e-19)
(5.16174e-05 -0.000341537 -7.23602e-19)
(-0.0013256 -0.0105439 -1.12841e-17)
(0.00325551 0.0181976 -4.29928e-18)
(8.04294e-05 5.52816e-05 -3.4093e-19)
(8.31602e-06 -0.000187232 -4.65319e-18)
(0.0260996 -0.0167654 -1.47485e-16)
(1.80794e-06 -1.06075e-05 1.09847e-18)
(0.0153987 0.00435393 3.65848e-17)