/*--------------------------------*- C++ -*----------------------------------*\
| =========                 |                                                 |
| \\      /  F ield         | OpenFOAM: The Open Source CFD Toolbox           |
|  \\    /   O peration     | Version:  v2012                                 |
|   \\  /    A nd           | Website:  www.openfoam.com                      |
|    \\/     M anipulation  |                                                 |
\*---------------------------------------------------------------------------*/
FoamFile
{
    version     2.0;
    format      ascii;
    class       volVectorField;
    location    "500";
    object      U_0;
}
// * * * * * * * * * * * * * * * * * * * * * * * * * * * * * * * * * * * * * //

dimensions      [0 1 -1 0 0 0 0];


internalField   nonuniform List<vector> 
9793
(
(0.961919 -0.0157015 0)
(-0.167907 -0.00536377 1.13477e-19)
(0.992224 -0.00673299 -2.47462e-22)
(-0.0408328 0.106157 -1.75092e-19)
(0.999951 -0.000607294 -8.422e-21)
(1.2312 -0.0263968 1.39918e-19)
(1.12148 -0.232136 -2.58636e-20)
(-0.107842 0.049328 -1.29245e-19)
(1.02133 -0.038246 -3.65262e-21)
(-0.0638565 -0.00224367 0)
(1.00005 -0.00194624 -7.1086e-21)
(1.00004 -0.00209623 0)
(1.0021 -0.009246 6.28515e-21)
(-0.0772509 0.145246 1.40282e-22)
(1.01994 -0.0226678 0)
(1.06717 -0.00332097 -5.16449e-21)
(1.1396 -0.0700383 7.35907e-20)
(0.994447 -0.00899817 9.65335e-21)
(-0.0676219 -0.0680597 -7.09032e-20)
(1.01774 -0.00498785 0)
(1.02349 -0.00978613 2.87681e-21)
(0.999993 -0.00015036 0)
(-0.0410729 0.155117 -2.96557e-20)
(-0.0979674 0.0468185 0)
(-0.0514111 0.143083 0)
(0.921277 -0.0574121 4.51915e-20)
(1 -0.00359949 8.31129e-21)
(1.00002 -0.000510845 -1.06388e-20)
(1.01759 -0.0052674 1.02607e-21)
(1.16501 -0.140651 -4.06096e-20)
(-0.305113 0.0184085 -2.52627e-19)
(1.26794 -0.0451745 1.85529e-19)
(0.996424 -0.00357039 -7.97398e-21)
(0.997206 -0.00915301 3.48708e-21)
(1.00543 -0.000546881 2.34554e-21)
(1.0819 -0.0327195 -5.51551e-20)
(1.06183 -0.00814862 -1.81329e-20)
(0.914787 0.00341367 -9.45045e-21)
(-0.145074 0.0563489 4.19978e-23)
(1.07965 -0.0735514 0)
(1.15482 -0.138094 0)
(1.00999 0.0424672 0)
(-0.108612 0.0228058 0)
(1.00002 -0.000367103 1.03698e-20)
(0.992242 -0.000366301 -6.184e-21)
(0.996591 3.98682e-05 0)
(-0.242835 0.0431072 1.20281e-19)
(1.00002 -0.000334812 7.57906e-21)
(1.032 -0.00771975 3.36285e-21)
(0.994204 -0.00847905 9.97817e-21)
(1.08175 -0.0299907 -5.18994e-22)
(1.00582 -0.000674806 -2.67098e-21)
(1.10571 -0.0473758 4.54637e-20)
(1.00001 -0.000659104 -7.54497e-21)
(0.903328 -0.11939 0)
(-0.0486635 0.101673 2.73238e-20)
(1.00242 -0.00836921 0)
(1.15137 0.0194446 5.78071e-20)
(1.03184 -0.00845338 -3.75754e-21)
(1.00001 -0.000180316 0)
(0.899973 -0.0159151 4.82708e-20)
(0.837036 -0.333086 0)
(0.993896 -0.00653899 -9.52663e-21)
(1.08924 -0.00520162 -2.43236e-20)
(1.00292 -0.0012713 0)
(1.0205 -0.036654 4.57298e-21)
(-0.212559 0.024805 0)
(1.05386 -0.0469417 7.0863e-22)
(1.06308 -0.00559887 -1.66748e-20)
(0.0392412 0.00778426 -8.86233e-20)
(0.978582 -0.0106848 0)
(0.584558 0.0281806 -7.44659e-20)
(-0.150972 0.0568554 0)
(0.476238 0.222641 -6.60116e-21)
(0.158732 0.0473523 0)
(0.999985 -0.000792946 0)
(0.801685 -0.132517 6.30973e-20)
(0.817511 0.0204466 -2.06865e-19)
(0.994635 -0.00349402 5.2564e-21)
(0.999981 -0.000564432 -8.94942e-21)
(0.785841 -0.1349 -1.20697e-19)
(-0.0689599 -0.0634331 6.02686e-20)
(1.13442 -0.0647258 -7.55846e-20)
(0.981008 -0.0700449 7.77692e-21)
(1.06343 -0.0070938 -2.48888e-21)
(1.2566 -0.154172 1.13654e-19)
(0.999967 -0.000696546 -8.97215e-23)
(1.10721 0.0310689 0)
(-0.151622 0.064738 -1.2875e-19)
(0.822065 -0.31423 -2.53511e-21)
(-0.0567603 0.131831 0)
(1.35644 -0.180555 2.58511e-19)
(1.35365 -0.192652 9.34755e-21)
(1.0909 -0.121492 0)
(-0.0994827 0.00704427 0)
(0.996014 -0.0125611 -3.91702e-21)
(0.205317 0.0499637 0)
(1.1316 -0.0903295 8.76385e-20)
(1.04234 -0.0668138 9.81419e-21)
(0.999968 -0.000509465 0)
(-0.128022 0.108328 -2.98033e-20)
(1.10172 -0.0480895 -6.27558e-20)
(-0.0935607 0.224638 1.0329e-20)
(0.992791 -0.00034713 -5.66717e-21)
(0.0605676 0.0878026 5.72774e-20)
(0.502647 0.0437773 -1.67922e-20)
(0.571911 0.188807 0)
(1.00464 -0.00722657 0)
(0.994633 -0.00308664 0)
(0.999986 -0.000272043 0)
(1.0001 -0.00102311 0)
(-0.0476501 0.147982 -2.71678e-20)
(0.0919251 -0.115193 0)
(-0.296625 0.011586 0)
(0.979498 -0.0112752 6.31673e-21)
(0.999093 -0.00256959 1.64463e-20)
(1.05694 0.00209907 1.04099e-20)
(0.996917 -0.000831984 8.83787e-21)
(-0.0632787 0.0874216 -1.12783e-19)
(0.99602 0.000550426 -2.15534e-20)
(-0.0251239 0.104122 -1.16391e-20)
(1.11281 0.0337013 -5.85771e-20)
(0.405575 0.0645914 1.67086e-19)
(1.11445 -0.0269215 -2.77583e-20)
(1.06209 -0.00989052 7.76558e-22)
(0.996227 0.000695406 2.15287e-20)
(1.14867 -0.0832797 0)
(-0.284438 0.0189995 1.6327e-19)
(1.10299 0.0996235 0)
(1.09385 0.101578 -5.58526e-20)
(1.05835 -0.0238018 -2.25466e-20)
(1.00697 -0.0149029 0)
(0.963711 -0.0167838 2.43687e-20)
(1.04844 -0.0421052 8.46182e-21)
(1.07715 -0.034882 0)
(1.19752 -0.233618 0)
(1.24878 0.0250702 -7.59865e-20)
(1.0576 0.000777201 2.68937e-20)
(1.00001 -0.000592448 0)
(1.15279 -0.0573578 0)
(-0.0657277 -0.054175 6.38057e-20)
(1.08033 -0.0345238 2.97196e-20)
(0.984494 -0.0196579 4.68065e-21)
(1.10446 0.0169322 6.20812e-20)
(-0.229071 0.0462529 -1.2391e-19)
(1.14211 -0.453137 0)
(0.996266 0.00131025 0)
(0.183309 0.0489554 0)
(1.00668 -0.0152761 0)
(0.996084 0.00111942 -2.01559e-21)
(0.999143 -0.00388465 -4.56098e-21)
(0.112871 -0.0540071 1.0202e-19)
(1.04008 -0.0641544 0)
(0.999928 -0.00359917 0)
(0.985313 -0.00311931 0)
(1.35808 -0.228322 0)
(1.14608 -0.0672888 -9.52247e-20)
(0.99393 -0.00713713 5.72406e-22)
(1.27932 -0.0403672 2.10047e-21)
(0.984445 -0.0114439 4.91558e-21)
(1.10827 0.024186 2.59281e-20)
(1.05966 -0.0254746 2.3003e-20)
(1.02319 -0.0102625 -7.39285e-21)
(0.584753 -0.427326 0)
(1.03924 -0.0175617 0)
(1.04199 -0.00200796 0)
(-0.0746399 0.189581 5.59266e-20)
(1.04152 -0.0213713 -2.56914e-20)
(1.00469 -0.00661671 -4.21853e-21)
(1.00001 -0.00161144 0)
(0.983481 -0.0191026 -1.7258e-20)
(-0.222116 0.0005887 2.84137e-19)
(0.312294 -0.172714 -1.22399e-19)
(-0.213116 0.162764 7.82199e-20)
(1.00236 -0.00967807 -3.43959e-21)
(1.22266 -0.0245528 -1.22222e-19)
(1.02411 -0.364076 -3.04513e-20)
(0.550488 -0.526799 0)
(0.994165 -0.00441933 9.0763e-21)
(1.05526 -0.0423512 1.10556e-20)
(0.123051 0.0979395 9.33989e-20)
(-0.247642 0.0401935 -1.23555e-21)
(1.11197 0.0394326 3.01292e-20)
(0.996272 -2.85707e-05 0)
(0.997547 -0.000439375 8.10546e-21)
(1.00487 -0.00702496 4.16088e-21)
(0.5357 0.0740555 0)
(-0.174778 0.0527309 0)
(0.820999 -0.395246 0)
(-0.0875741 0.250143 -5.55485e-21)
(1.01839 -0.0347089 0)
(-0.0952846 0.301749 -4.07067e-23)
(0.397642 -0.152691 9.14099e-20)
(0.913029 -0.0198882 -2.40162e-21)
(1.03412 -0.00533377 6.2888e-21)
(0.961422 -0.0503848 -1.17813e-20)
(0.177926 0.0941678 -3.11332e-20)
(1.01535 -0.00515724 0)
(0.99422 -0.00943142 -1.22308e-20)
(0.99977 -0.00149175 9.53702e-21)
(0.97613 -0.0110703 1.41346e-20)
(1.0257 -0.00890521 -1.34287e-21)
(1.08445 -0.0253858 -1.19913e-20)
(1.06684 -0.0193931 -1.38048e-20)
(-0.0784342 0.0082977 -1.50786e-19)
(0.98199 -0.00202858 -6.23057e-21)
(1.07014 -0.0679341 1.38407e-20)
(1.04265 -0.0202977 0)
(0.969466 -0.0284681 0)
(0.803289 -0.563924 3.16124e-22)
(1.14683 -0.0586627 -4.9702e-20)
(-0.0656405 -0.0505025 9.37541e-22)
(1.01359 -0.00485846 0)
(0.00822343 -0.00306826 0)
(0.976602 -0.0701977 -3.80035e-21)
(1.07219 0.00995299 -1.50862e-20)
(1.01996 -0.0236505 5.07059e-22)
(1.20138 -0.221145 3.22148e-20)
(0.999188 -0.00242904 -2.59386e-20)
(0.741266 -0.052417 -4.92566e-20)
(1.13818 -0.0904243 -1.43028e-19)
(1.02559 -0.00939267 0)
(0.366349 0.452366 -1.709e-19)
(-0.218544 0.221578 3.10914e-20)
(1.08384 -0.120693 -2.72127e-20)
(0.995246 -0.0144997 8.38879e-21)
(1.12727 -0.0204987 3.27571e-20)
(-0.183996 0.26065 0)
(0.756447 -0.0804191 0)
(0.753959 -0.0911231 1.03401e-21)
(-0.0913373 0.0523801 2.23299e-19)
(1.11035 0.0755049 0)
(1.07261 0.0101262 3.02295e-21)
(1.09144 -0.00348412 -1.20172e-21)
(0.403732 -0.128344 -8.25907e-20)
(1.02826 -0.00378852 1.99722e-21)
(-0.123344 0.201385 -5.55591e-20)
(-0.276131 0.00961457 -1.65257e-19)
(1.01501 -0.0049937 -7.52044e-22)
(0.999828 -0.00111037 -9.82223e-21)
(1.09941 0.0407707 8.32018e-21)
(0.987988 -0.0143861 0)
(1.00008 -0.000954097 4.12835e-21)
(1.15034 0.0364717 -2.7532e-20)
(1.16357 0.0335793 7.75567e-21)
(1.01878 -0.0364795 -1.50345e-21)
(1.05722 -0.0414474 2.75377e-20)
(1.0739 -0.0687203 -2.87613e-20)
(0.949007 -0.172671 -7.69306e-22)
(1.05948 -0.0349404 1.45625e-20)
(0.994152 -0.00393302 -1.44418e-20)
(1.06765 -0.165155 2.28949e-20)
(-0.0371485 -0.00651908 5.24528e-20)
(1.0247 -0.00943421 3.47167e-21)
(-0.218508 0.186873 -1.23512e-19)
(1.00003 -0.000793282 -6.74371e-21)
(1.00001 -0.00241224 0)
(1.01188 -0.000919041 9.64131e-23)
(-0.0526933 0.0910027 1.37525e-19)
(0.993621 0.00113342 0)
(1.37554 -0.222266 1.29961e-21)
(0.0112983 0.0279697 -1.16134e-19)
(1.00065 -0.00281628 -2.97394e-21)
(0.999317 -0.00243955 5.67499e-21)
(1.36485 -0.113492 1.5732e-19)
(1.0118 -0.000569758 -1.24341e-22)
(0.999938 -0.00110511 -8.76492e-21)
(1.01242 -0.00053556 0)
(-0.0120037 0.0193054 1.63887e-19)
(0.587249 -0.391154 1.36734e-19)
(0.934378 -0.0528906 0)
(0.903425 -0.519674 9.03793e-22)
(1.15366 0.00886504 4.39344e-20)
(-0.102136 0.222704 -1.23765e-20)
(-0.0481916 0.192356 1.18046e-19)
(1.04237 -0.0229074 -5.53676e-22)
(-0.0981392 -0.217055 -1.1944e-21)
(1.00001 -0.000747567 -6.20151e-21)
(-0.158955 0.2519 5.01917e-20)
(0.382775 -1.18045 -1.15254e-19)
(-0.177758 0.100429 1.054e-19)
(-0.00499896 0.0947152 5.62401e-20)
(1.11561 0.0717947 -2.44964e-20)
(1.05911 -0.0217905 0)
(1.12835 -0.0667927 7.79493e-20)
(1.06492 -0.0199679 2.74336e-20)
(1.035 -0.00403797 2.75106e-21)
(1.0455 -0.0156231 0)
(0.832183 -0.532981 0)
(0.917746 -0.0604179 2.0432e-20)
(0.999388 -0.0022995 7.5613e-23)
(1 -0.00011856 -3.83526e-23)
(1.01394 -0.00504104 0)
(1.0167 -0.00012193 8.63843e-22)
(1.02444 -0.00990714 -3.66481e-21)
(-0.0556896 0.171749 4.68034e-20)
(1.00476 -0.00834465 4.82582e-21)
(1.01794 -0.0222675 2.33467e-22)
(1.01651 -0.000192505 5.30551e-22)
(1.00239 -0.00878489 -2.24741e-22)
(-0.0233405 -0.0564139 -1.01994e-19)
(1.1577 -0.440681 -6.49081e-20)
(0.685676 0.0698896 -1.90373e-19)
(0.946955 -0.0134294 1.88437e-20)
(1.10839 0.0150743 4.06709e-20)
(1.01581 -0.000116086 7.88613e-22)
(0.849597 0.121261 0)
(0.0162613 -0.026576 -1.77157e-19)
(0.993087 0.000252946 1.31668e-20)
(0.0549538 0.0304252 -1.17618e-19)
(1.08909 -0.0108063 0)
(0.991905 -0.000836317 1.32217e-20)
(-0.0941346 0.000531402 -2.01078e-19)
(0.758728 0.156718 0)
(0.996737 -0.00365266 8.15751e-21)
(1.06808 -0.172848 0)
(0.370557 1.02797 0)
(0.974744 -0.0262537 -8.09946e-21)
(0.832635 0.0201698 -1.50817e-20)
(1.01902 -0.0220125 -1.26667e-21)
(0.969693 -0.0241912 -1.77793e-20)
(-0.0708764 0.223256 -2.44282e-20)
(0.899128 -0.17433 -5.86958e-21)
(0.997287 -0.00856819 3.32146e-21)
(0.995844 -0.000581679 -9.79977e-21)
(0.94966 -0.0128071 0)
(1.08909 -0.367066 0)
(0.0919021 -0.202999 0)
(0.992168 -0.00606188 1.25634e-20)
(1.00479 -0.00763082 0)
(1.02872 -0.0152062 9.25353e-21)
(-0.230829 0.00214071 -3.36043e-19)
(-0.110715 -0.112232 1.0083e-19)
(-0.0539129 -0.0149481 0)
(1.02748 -0.00465366 -4.56798e-21)
(0.900654 -0.186937 -1.6472e-20)
(0.82781 0.0292348 -3.2421e-20)
(0.846993 -0.740408 -3.22432e-20)
(1.14948 -0.00734013 0)
(1.02884 -0.00150499 -4.84427e-21)
(1.03051 -0.00357574 3.74711e-22)
(1.02804 -0.015583 -1.5901e-21)
(1.12411 -0.0623514 -4.49729e-21)
(0.98999 -0.0354994 5.0463e-22)
(-0.00401143 0.0132042 -2.66633e-19)
(0.998274 -0.00208417 0)
(1.00892 -0.0145335 -3.43777e-21)
(-0.14991 0.295637 4.64378e-20)
(-0.0627116 0.172341 0)
(-0.0182144 -0.0049681 2.11711e-19)
(1.01644 -0.000118673 0)
(-0.126045 0.101527 0)
(0.982683 -0.0804297 -2.01502e-20)
(0.232716 -0.659762 -8.63258e-20)
(-0.0274272 0.018351 -1.042e-19)
(-0.0836357 0.0449489 -1.50697e-19)
(0.993167 -0.0682396 0)
(1.08204 -0.0766557 0)
(1.25406 0.0198478 -5.34548e-21)
(-0.0615398 0.134952 2.53858e-20)
(-0.0496709 0.137352 0)
(0.90132 0.0206712 0)
(1.00003 -0.000577 -4.78072e-21)
(0.929635 -0.0525851 -3.81949e-21)
(1.03123 -0.00638122 7.05964e-21)
(1.00539 -0.00830407 -4.75182e-21)
(0.989486 -0.0336863 -7.44179e-21)
(1.00012 -0.00395685 -1.03553e-20)
(1 -4.70089e-05 0)
(0.0555197 0.00598065 3.12481e-19)
(1.00002 -0.00183406 -7.69378e-21)
(1.14954 -0.0977738 -5.38872e-20)
(1.08054 -0.0656168 5.86137e-20)
(1.05459 0.106657 -1.50452e-19)
(1.02877 -0.000994651 0)
(0.982864 -0.0732231 8.56015e-22)
(-0.0210514 0.0518847 -4.36773e-20)
(0.358583 -0.0269997 -1.53615e-19)
(-0.0878807 0.16354 2.02189e-20)
(1.14507 -0.0102452 0)
(1.00861 -0.0138261 4.95551e-21)
(0.995334 -0.0706102 0)
(0.992795 -0.00688251 -2.28347e-20)
(1.22657 -0.331091 -8.75293e-20)
(1.0142 -0.00155001 -3.65184e-22)
(-0.0225709 -0.00118502 -8.9764e-20)
(0.969055 -0.408632 9.40823e-21)
(1.11115 -0.240103 6.72605e-20)
(-0.107587 -0.00628045 0)
(-0.0617728 0.220847 -2.12238e-20)
(1.00052 -0.00231853 -9.68556e-21)
(0.996427 -0.014522 -1.01975e-21)
(1.25899 0.0314925 0)
(1.23517 -0.315887 -9.24328e-20)
(0.982364 -0.00116421 1.16771e-20)
(-0.0896562 0.0197201 0)
(1.00054 -0.00245402 6.45129e-21)
(0.999687 -0.00191301 0)
(0.503411 -0.868986 -7.27534e-22)
(1.01361 -0.00463641 5.15544e-22)
(1.15614 0.0148674 0)
(1.02824 -0.00445527 5.57359e-21)
(-0.0470038 0.182699 -6.56199e-20)
(0.998478 -0.00210637 3.44953e-21)
(1.03978 -0.0165926 0)
(-0.150466 0.275642 7.0201e-20)
(0.608992 0.0283976 0)
(1.06957 0.014465 1.94822e-20)
(0.912779 -0.0242899 2.10649e-20)
(1.00083 -0.00314268 0)
(1.00137 -0.0198967 -7.69691e-21)
(0.332822 0.0595446 -2.00165e-19)
(1.12819 -0.0975099 -4.24057e-20)
(1.02426 -0.00602354 0)
(0.999631 -0.00122175 -1.05384e-20)
(0.893899 -0.117753 3.26366e-20)
(0.832339 0.0478213 0)
(1.06869 0.0126287 -1.55613e-20)
(-0.23217 0.0424721 0)
(0.999704 -0.00151337 6.36783e-22)
(0.996825 -0.00947595 -4.72808e-21)
(0.658924 -0.472262 1.39986e-19)
(1.00089 -0.00308994 0)
(-0.0438774 0.00339766 -5.21772e-20)
(0.597571 -0.522131 0)
(0.997289 -0.000469136 1.36345e-22)
(0.997004 -0.00414671 -7.52916e-21)
(1.04437 -0.0162652 5.64631e-21)
(1.00063 -0.00266272 2.84179e-21)
(1.02842 -0.0140315 9.03595e-21)
(-0.135829 0.109036 -5.44684e-20)
(0.739061 -0.06725 1.25414e-19)
(1.3386 -0.107079 4.64967e-20)
(0.884234 0.034137 0)
(1.05427 -0.00620866 -4.09098e-22)
(1.11519 -0.0308711 -8.39163e-20)
(0.918825 0.00414729 -2.85145e-20)
(-0.0697462 0.0940881 7.83242e-20)
(0.903859 -0.019725 -3.75322e-20)
(0.999979 -0.000494372 7.85053e-21)
(1.05573 -0.0456086 -2.70865e-20)
(1.16344 -0.40937 5.62566e-20)
(0.980819 -0.0138195 -1.22273e-20)
(0.983407 -0.0114695 -6.24246e-21)
(0.977129 -0.0102453 7.30419e-21)
(1.01394 -0.00149166 6.37166e-22)
(0.998906 -0.006769 5.57978e-21)
(1.01568 -0.0241898 -1.00503e-21)
(0.996718 -0.000600441 6.08145e-23)
(1.0004 -0.0020124 -2.99896e-21)
(0.971259 -0.0490144 -1.87553e-20)
(1.06438 -0.0224496 0)
(1.14625 0.0403364 3.10193e-20)
(1.01511 -0.000325182 0)
(0.214535 0.117526 0)
(0.922355 -0.046654 4.30002e-20)
(0.980162 -0.435679 8.56915e-21)
(-0.0543297 0.205735 -1.80993e-19)
(1.03513 -0.00490169 -7.15054e-21)
(-0.116664 0.301321 0)
(1.11929 -0.219037 -5.41765e-20)
(1.0341 -0.00619533 -6.27379e-21)
(1.01413 -0.00210039 -2.29169e-22)
(0.985146 -0.0218585 -1.49269e-20)
(0.0504956 0.153282 -8.03659e-20)
(1.15777 0.00421094 5.00905e-20)
(1.01429 -0.00197618 2.53184e-22)
(0.998727 -0.00131787 -6.69239e-21)
(0.999773 -0.00160768 -1.64233e-20)
(0.707446 0.125905 6.25573e-20)
(1.01521 -0.389768 2.20482e-20)
(0.702745 0.0312866 1.46173e-20)
(1.00269 -0.00123536 -3.70637e-21)
(0.985457 -0.00233168 0)
(0.860288 -0.0397123 2.02505e-20)
(-0.259287 0.0380015 0)
(-0.171487 0.0968654 -1.20495e-19)
(0.936783 -0.0257711 -1.72963e-20)
(1.05446 -0.0194119 -3.62083e-20)
(-0.21879 0.1987 2.27622e-19)
(1.10652 -0.00101763 0)
(1.1803 0.0704652 0)
(0.977199 -0.0311518 -3.44187e-20)
(1.00793 -0.0147716 2.41054e-21)
(-0.087408 0.0103529 4.75279e-20)
(0.994504 -0.011963 0)
(1.04775 -0.358759 6.77618e-20)
(1.02063 0.0910094 5.52449e-20)
(1.02381 -0.00558043 0)
(0.620182 -0.379064 -1.64363e-19)
(1.06589 -0.0630346 0)
(-0.103019 0.107179 0)
(1.00165 -0.0193024 7.1043e-21)
(-0.0686081 -0.0514911 0)
(1.26468 -0.0863665 0)
(1.06612 -0.00469758 0)
(1.37141 -0.104168 -1.49824e-19)
(0.995536 -0.0121728 -2.17794e-21)
(0.87746 -0.692061 -3.06869e-20)
(0.99829 -0.00163883 1.8604e-20)
(0.997521 -0.0144707 -6.66404e-21)
(1.00002 -0.00150915 -1.17186e-22)
(0.994598 -0.00776062 -1.04493e-20)
(0.0897605 0.0390956 0)
(0.995914 -0.013294 1.3121e-20)
(1.03068 -0.00929307 0)
(0.949769 -0.0195981 -3.5003e-20)
(1.02736 -0.00526924 -6.25079e-23)
(1.00762 -0.0151752 3.31817e-24)
(1.0551 -0.187072 0)
(0.984068 -0.0545072 5.83938e-21)
(1.09097 -0.00880563 0)
(1.00158 -0.00356062 0)
(1.00145 -0.00343303 3.06546e-21)
(-0.0267042 0.0443238 0)
(0.646539 0.0341406 -5.94222e-20)
(0.939438 -0.025119 -3.8756e-20)
(-0.21416 0.173999 0)
(1.06236 -0.0229058 1.26987e-20)
(0.984662 -0.0377128 -1.8648e-20)
(0.993882 0.0015419 0)
(1.02909 -0.0137308 -3.68268e-21)
(0.0298994 -0.0206593 1.16994e-19)
(1.03078 -0.00858218 6.45856e-21)
(1.00139 -0.00051399 0)
(-0.300087 0.0269599 0)
(1.07261 0.0330906 0)
(0.961061 -0.174541 -7.48658e-21)
(1.00211 -0.00885158 -7.47567e-21)
(0.999991 -0.000292757 9.34942e-21)
(1.03433 -0.0285552 7.63587e-21)
(0.999981 -0.00118096 -1.25165e-22)
(-0.212469 0.187942 0)
(0.97282 -0.0263107 1.71231e-20)
(-0.0151916 0.26734 -7.66763e-21)
(1.06027 -0.0125902 1.81557e-20)
(0.308116 0.440293 2.11907e-19)
(0.999973 -0.000707812 8.93593e-21)
(-0.303357 0.0294925 0)
(1.00829 -0.000322245 -1.02746e-21)
(1.10835 -0.37974 -2.05796e-21)
(0.993553 -0.011045 -6.37015e-21)
(1.07122 0.0458727 0)
(-0.0255624 -0.00865021 -2.15659e-20)
(0.998482 -0.00158154 1.17587e-20)
(0.754961 0.0643004 0)
(0.990279 -0.0133428 0)
(1.00016 -0.000127489 2.09993e-21)
(1.02296 -0.00911117 0)
(0.284937 0.100271 -5.24796e-20)
(-0.0736398 0.0152184 6.25742e-20)
(0.984159 -0.021139 0)
(1.06932 -0.0641177 1.20729e-20)
(1.03108 -0.00711203 0)
(-0.219121 0.210177 -1.34133e-19)
(1.01561 -0.000407979 0)
(1.07407 -0.162209 0)
(-0.0712704 -0.0437423 0)
(0.91225 0.00680063 0)
(1.00183 -0.000900147 0)
(0.81286 -0.14603 6.13124e-20)
(1.00011 -0.000600863 -6.3395e-21)
(1.03576 -0.0285343 0)
(1.02769 -0.0171629 0)
(1.13908 0.0393308 0)
(1.00301 -0.00351092 3.10962e-22)
(-0.215622 0.224801 1.63102e-19)
(1.0013 -0.00339926 5.57683e-21)
(0.992741 -0.0375627 -1.30446e-20)
(1.0887 0.00400789 -1.65367e-20)
(0.7738 -0.250984 3.32805e-21)
(1.2395 0.0760525 -1.48244e-19)
(1.01728 -0.0212346 0)
(-0.285205 0.0281685 0)
(0.996914 -0.0149376 0)
(1.03433 -0.409433 8.72105e-21)
(0.986897 -0.00758756 0)
(1.04194 -0.0188869 1.51884e-20)
(0.994867 -0.0124418 2.11263e-21)
(1.00124 -0.0034324 1.25818e-20)
(0.999972 -0.000568163 7.32554e-21)
(1.02963 -0.43002 7.15111e-20)
(1.07337 0.0103853 -2.88427e-20)
(0.685159 0.0615771 -8.59216e-20)
(1.20161 -0.100706 6.10342e-20)
(0.837401 -0.0610209 -2.05093e-20)
(0.91469 -0.134435 -6.73443e-20)
(0.57145 -0.839797 1.55618e-21)
(1.05075 -0.0430282 0)
(-0.207709 0.180072 -9.55382e-21)
(-0.124859 -0.0517414 -1.15249e-19)
(1.107 -0.402804 3.52375e-20)
(1.16941 -0.151475 -7.66881e-20)
(1.14667 0.0865349 -9.56394e-20)
(1.06583 -0.376701 -3.45846e-20)
(1.03647 -0.0278441 4.41564e-21)
(0.0619041 -0.175898 0)
(1.08679 0.00521683 -2.65056e-20)
(1.0402 -0.0187668 -1.73846e-20)
(1.12694 -0.414471 0)
(1.00007 -0.00053989 4.75539e-21)
(0.876844 -0.545282 -1.02249e-21)
(0.966803 -0.161148 6.69992e-21)
(1.20572 0.0319934 0)
(0.888576 0.0249378 4.1854e-20)
(-0.064446 0.164312 6.95684e-20)
(-0.166927 0.014749 -2.50143e-19)
(1.08808 0.00081454 2.69226e-20)
(1.19932 0.0310989 0)
(0.999804 -0.00123446 8.50823e-21)
(1.05835 -0.525233 -5.75015e-20)
(0.947062 0.0112092 0)
(0.993844 -0.0105696 -1.29338e-20)
(0.987657 -0.0331648 0)
(1.05316 0.00135057 0)
(1.1212 -0.0967355 0)
(-0.100479 0.0506051 4.46783e-20)
(0.894705 -0.478655 -2.26136e-21)
(-0.187531 0.0553516 2.63029e-20)
(1.0466 -0.0438804 8.67685e-21)
(0.960607 -0.0529538 -8.94202e-21)
(-0.104341 0.111275 3.95329e-20)
(0.417536 0.108155 3.89756e-19)
(1.05212 -0.0212572 -1.67271e-20)
(1.14285 -0.0204269 9.87099e-20)
(0.968127 -0.0296456 -1.18393e-20)
(0.250068 -0.771365 0)
(-0.131306 0.284078 4.20022e-20)
(0.997203 -0.000744923 -2.77091e-22)
(0.689633 0.0830162 -1.12472e-19)
(0.682264 -0.432453 5.78359e-21)
(-0.163326 -0.0123759 1.39528e-19)
(1.00302 -0.00113007 -5.38529e-22)
(0.927239 -0.0585936 2.00327e-21)
(0.29616 0.0574837 -2.79182e-20)
(1.08145 -0.0241065 4.90751e-20)
(0.641058 0.0768732 3.52086e-20)
(1.07651 0.0491439 0)
(1.08175 0.110762 0)
(0.952852 -0.0779884 8.90819e-21)
(1.05131 -0.0458832 0)
(1.02044 -0.0301814 -3.48362e-21)
(0.985973 -0.00363639 0)
(1.08248 0.12356 0)
(1 -0.000332905 0)
(1.09226 0.130982 0)
(1.21489 -0.0740028 -5.99051e-20)
(1.08231 -0.257942 -4.23241e-20)
(1.00004 -0.000264213 -1.3283e-21)
(1.00015 -0.00108371 0)
(1.05542 -0.00384549 -1.31389e-20)
(1.04097 -0.00180571 -7.19825e-21)
(1.0059 -0.00102001 -1.31506e-21)
(0.987469 -0.0134916 8.03738e-21)
(1.19303 -0.102495 0)
(0.0757648 0.168649 1.17106e-19)
(-0.0348694 0.138468 0)
(1.00002 -0.000354296 0)
(1.20603 -0.337935 5.4678e-20)
(1.00174 -0.0076306 0)
(-0.129626 -0.0740002 5.7453e-20)
(1.10575 0.001669 -4.02908e-20)
(0.785678 -0.0984353 0)
(0.835289 0.0383501 0)
(1.2611 -0.077814 -3.61493e-21)
(1.00916 -0.00525385 -1.10364e-21)
(0.999074 -0.00412142 6.75091e-23)
(0.827931 -0.142801 -3.28429e-20)
(0.993823 -0.0118928 0)
(1.03296 -0.0279005 -5.58538e-21)
(1.14759 -0.044628 4.37244e-20)
(-0.0960349 0.125716 0)
(1.02622 -0.008737 -3.88252e-21)
(1.0941 0.116153 -8.97392e-20)
(-0.169333 0.0823475 -1.04316e-19)
(1.06076 -0.0369652 -3.345e-20)
(-0.12229 0.239308 -4.55294e-20)
(-0.164589 0.0769908 0)
(1.01617 -0.0253017 9.89235e-22)
(1.14098 -0.0824194 -1.13731e-20)
(1.06884 -0.00321779 0)
(1.01703 -0.0344106 0)
(1.02218 -0.00906638 -3.39443e-22)
(0.624007 -0.134741 0)
(-0.177923 0.0947138 1.55785e-19)
(-0.150155 0.063713 1.35424e-19)
(0.979818 -0.0148188 1.26173e-20)
(0.995605 -0.000321778 0)
(1.01979 -0.0120295 0)
(1.05791 0.00484595 6.07323e-21)
(0.987064 -0.0542617 9.16718e-21)
(0.975211 -0.0663696 -1.44708e-20)
(0.510077 0.423816 0)
(1.10297 0.00394599 -3.59524e-20)
(1.00043 -0.00214317 6.53733e-21)
(1.25085 -0.0147488 1.70696e-19)
(1.08472 -0.0281404 4.19379e-20)
(0.847551 -0.0630345 0)
(1.03302 -0.0264904 0)
(-0.347925 0.0177557 -6.60582e-21)
(1.05772 -0.0204112 0)
(1.00388 -0.00268384 2.62775e-21)
(1.09378 -0.255272 5.51868e-20)
(0.149761 0.103231 3.86666e-20)
(1.02508 -0.006088 -1.83996e-21)
(0.996816 -0.000264313 -8.94196e-21)
(0.993364 -0.00634809 1.23615e-20)
(1.06433 -0.0042907 2.07003e-20)
(1.00921 -0.00496028 1.06936e-21)
(1.09036 -0.000518593 -3.13661e-20)
(1.26218 0.00646773 9.07616e-20)
(0.995112 -0.0409784 -6.57456e-21)
(1.13586 0.0426247 0)
(1.05038 -0.0213962 0)
(1.03154 -0.0254828 0)
(1.23707 0.0715994 -7.85871e-20)
(-0.092148 -0.077947 -1.00647e-19)
(1.16534 0.105778 8.34896e-20)
(0.999284 -0.00390994 1.33965e-20)
(1.02623 -0.00590445 -5.12582e-21)
(0.778777 0.212144 -9.33401e-20)
(0.909118 -0.0169869 1.14554e-20)
(1.07796 0.167827 -8.40338e-20)
(1.02473 -0.00486506 1.09089e-22)
(0.98944 -0.0133299 0)
(-0.284633 0.0107191 -8.47475e-20)
(-0.0473265 0.247314 -1.51052e-20)
(1.07519 -0.0738354 0)
(1.15316 0.0257196 -5.937e-20)
(0.692574 0.0224038 0)
(0.995781 -0.0149924 0)
(1.00002 -0.000226451 -5.42243e-21)
(1.01366 -0.0336556 3.66108e-22)
(-0.0955369 -0.02866 4.6516e-20)
(1.0015 -0.000630394 0)
(0.999996 -5.68648e-05 -3.41033e-23)
(-0.0685291 0.128942 1.2225e-19)
(0.893692 0.0252804 -3.85931e-20)
(1.26625 -0.147483 -1.33397e-19)
(0.84228 0.0206018 7.01087e-20)
(1.0022 -0.00799081 0)
(-0.0813829 -0.0797612 1.94526e-19)
(1.00002 -0.000649179 1.51051e-20)
(0.98848 -0.00940477 0)
(1.01248 -0.0330914 0)
(0.926046 -0.112195 -2.31024e-20)
(-0.0310098 0.0939687 0)
(1.00008 -0.00253782 0)
(0.993118 0.00112478 -2.6913e-20)
(0.99348 -0.0123239 6.25514e-21)
(0.995297 -0.0136537 0)
(1.00193 -0.00799768 0)
(1.02021 -0.0312397 -2.73905e-21)
(1.07361 -0.140635 4.5835e-20)
(0.919205 -0.117096 1.03469e-20)
(0.971109 -0.0459007 -1.8063e-20)
(1.00018 -0.00339035 0)
(0.910574 -0.112445 1.07618e-20)
(1.15246 -0.07874 0)
(1.06644 -0.00182545 5.95e-21)
(0.884207 0.0296162 -3.97857e-20)
(1 -0.000103692 -5.20335e-21)
(1.01976 -0.0114545 -2.23845e-21)
(1.0056 -0.064939 -5.67065e-22)
(-0.0553468 0.00344869 1.61367e-20)
(0.0298048 0.175457 -1.44951e-19)
(1.05278 -0.00542925 -1.26806e-20)
(-0.164158 0.0593352 7.5494e-20)
(0.999776 -0.0011281 1.01956e-20)
(0.952419 -0.0728298 9.97195e-21)
(1.32524 -0.31264 2.04811e-19)
(0.153965 -0.167721 -2.64311e-19)
(1.02134 -0.0213291 0)
(1.00001 -0.00221552 0)
(0.429825 0.205374 -1.24809e-20)
(1.126 -0.0172229 0)
(1.00412 -0.00275923 4.19009e-21)
(0.999949 -0.000953176 -8.98702e-21)
(-0.208643 0.213709 -6.36049e-20)
(1.00003 -0.000165007 2.42686e-23)
(1.14787 -0.147236 6.07936e-20)
(0.996711 -0.00407808 4.93953e-22)
(0.350234 0.0108933 0)
(0.99996 -0.00101482 9.26062e-21)
(1.00915 -0.000201046 0)
(0.998859 -0.00146 6.24092e-21)
(1.05683 -0.0986917 0)
(1.03999 -0.00135934 7.18971e-21)
(0.936448 -0.0475266 2.49442e-20)
(0.905094 0.0181798 -3.17705e-22)
(0.538072 0.0977651 0)
(1.00462 -0.00856608 -3.78384e-21)
(0.999134 -0.00663647 -1.10277e-20)
(1.00007 -0.000361984 1.40043e-21)
(0.997921 -0.0148779 9.61391e-21)
(1.03717 -0.0255947 8.51402e-21)
(1.03838 -0.010553 0)
(1.08219 -0.0696494 1.8398e-21)
(0.99855 -0.00133532 0)
(1.11372 0.00457745 -1.09728e-19)
(-0.0592034 0.162935 0)
(1.11859 -0.0637894 3.31339e-20)
(1.15351 -0.0469991 2.25981e-21)
(0.999725 -0.0013805 1.16273e-20)
(1.02837 -0.0167075 3.90843e-21)
(-0.27279 0.00890889 1.1836e-20)
(0.373472 0.276977 0)
(1.02186 -0.00842777 2.67772e-21)
(-0.147178 0.235696 -5.61085e-20)
(-0.306039 0.01904 -1.7164e-19)
(1.02648 -0.00626369 6.24079e-21)
(0.992842 0.000681036 4.66125e-22)
(1.00146 -0.013157 6.62526e-22)
(1.14537 -0.217503 -4.54689e-20)
(1.11264 0.00812346 7.29617e-20)
(0.134648 -0.126806 0)
(1.00517 -0.00856747 0)
(1.02303 -0.0815933 1.83673e-21)
(1.00539 -0.0063177 -3.76905e-21)
(0.968612 -0.0257029 0)
(1.00837 -0.000284224 0)
(1.06532 -0.280517 6.25921e-21)
(1.03752 -0.0244927 -1.51054e-20)
(1.25363 -0.165209 7.0494e-20)
(0.999506 -0.00353364 6.14458e-22)
(0.927301 -0.254189 0)
(1.00396 -0.0078234 4.9538e-21)
(0.96484 -0.0493766 2.23018e-20)
(0.986886 -0.00954912 0)
(1.07386 0.00926256 -1.95745e-21)
(0.722497 0.126789 6.72751e-21)
(-0.288551 0.0262468 0)
(0.0900051 0.156711 3.11258e-20)
(-0.175226 0.242843 0)
(1.12334 -0.0238914 0)
(0.989039 -0.0143334 0)
(0.586765 -0.781436 -7.60587e-22)
(0.073709 -0.139418 0)
(1.11827 0.0150802 -3.426e-20)
(1.03513 -0.0230463 -1.75047e-20)
(1.00003 -0.00388504 0)
(0.167366 0.221589 0)
(1.00173 -0.0136783 -6.8158e-22)
(-0.034275 0.101547 0)
(1.02898 -0.00348009 -5.22336e-21)
(1.07861 -0.0090035 -5.09362e-21)
(1.03992 -0.0239074 1.63753e-20)
(0.99995 -0.000352561 -1.32058e-20)
(1.0212 -0.0223681 0)
(0.952226 0.0561701 0)
(-0.0736996 -0.0234706 8.63503e-20)
(-0.0364974 0.114559 4.87729e-20)
(0.663613 0.0411911 0)
(-0.235399 0.00417842 3.2272e-19)
(0.994467 -0.00724173 5.87955e-22)
(-0.0633631 0.161681 0)
(0.428922 0.042619 0)
(1.00002 -0.000116273 -1.0528e-20)
(0.991988 -0.0358575 1.3031e-20)
(1.01052 -0.00688135 0)
(1.18718 0.10264 0)
(1.02308 -0.00563242 3.81596e-22)
(-0.110963 0.0668237 -4.35657e-20)
(0.852616 -0.045776 6.94527e-20)
(1.20818 -0.0305569 -1.05974e-19)
(1.00684 -0.0444271 -6.91915e-21)
(1.27484 -0.350251 0)
(-0.205706 0.0383804 3.75644e-20)
(0.168633 0.0189361 1.33744e-19)
(0.940648 -0.109994 0)
(1.09009 -0.0578521 3.58301e-20)
(1.00168 -0.000933058 0)
(0.440707 -0.144006 1.90794e-19)
(1.02427 -0.00396342 0)
(0.399145 0.298673 0)
(1.23696 -0.0220434 2.02231e-19)
(0.815319 -0.251643 0)
(0.587901 0.056275 4.19139e-20)
(0.0576881 0.0173476 -1.62943e-19)
(1.05706 -0.0350573 -2.35943e-20)
(1.01136 -0.0644685 -6.22977e-23)
(1.00312 -0.00381258 2.45675e-21)
(1.05951 0.0457553 -2.71546e-20)
(-0.100195 0.0579005 -1.74621e-19)
(-0.184892 -0.00500865 1.45581e-19)
(1.00978 -0.0065325 -8.71101e-22)
(0.208897 0.600002 1.14472e-19)
(1.06471 -0.00153519 0)
(1.15815 0.0386269 -8.53592e-21)
(0.564005 0.101843 -8.58149e-20)
(-0.100698 0.12795 8.04261e-20)
(-0.0907157 0.131123 -4.94728e-20)
(1.03049 -0.00287878 6.16217e-21)
(0.919371 -0.0502672 4.60324e-21)
(1.08655 -0.0206607 7.22461e-21)
(1.06039 -0.0109872 1.92204e-20)
(1.05673 -0.00302009 -8.01156e-21)
(0.0819449 0.159837 1.62638e-19)
(0.999808 -0.00169733 1.16246e-21)
(0.661523 0.017819 1.52858e-19)
(1.01548 -0.000326741 1.4476e-21)
(1.0297 -0.00250867 -1.70184e-22)
(1.1297 -0.201248 -6.34552e-20)
(1.1607 0.0271438 2.00381e-21)
(1.20647 0.107063 -1.28297e-19)
(1.0401 -0.0359878 -1.39479e-20)
(0.862868 -0.388796 0)
(1.11579 -0.208129 -1.54447e-19)
(1.2923 -0.275508 2.24954e-19)
(0.897151 0.018921 5.83922e-20)
(1.00013 -0.000539435 0)
(1.03877 -0.0369736 0)
(1.00015 -0.0005516 0)
(0.985195 -0.0106852 -1.31396e-20)
(1.29259 -0.29429 -2.41358e-20)
(1.07786 0.159554 5.02926e-20)
(1.02301 -0.0385453 -7.44044e-21)
(0.986054 -0.00810307 0)
(1.0881 -0.0157691 -2.84847e-20)
(0.19408 -0.172594 2.69042e-19)
(1.01559 -0.0882567 -5.85471e-21)
(0.986982 -0.000513692 2.8186e-21)
(0.38323 0.0973716 -3.20236e-19)
(0.993399 -0.00774515 -5.71216e-22)
(0.999987 -0.000289986 1.22788e-20)
(1.02481 -0.0043087 -1.86558e-21)
(1.10404 0.0216498 -7.71799e-20)
(0.996187 -0.000458536 -1.49853e-22)
(1.06467 -0.0124874 0)
(-0.0313005 0.174851 -1.86976e-19)
(1.15228 -0.0923574 6.26266e-20)
(1.00526 -0.000182473 -1.65596e-22)
(0.134784 0.574311 -1.19829e-19)
(0.571467 0.0510347 0)
(0.993539 -0.00843745 -7.64536e-21)
(1.05154 -0.00647334 1.29751e-20)
(1.09615 -0.053312 -3.22071e-20)
(1.00004 -0.000176821 1.08497e-20)
(1.00132 -0.00723031 -2.94472e-21)
(1.01698 -0.0194607 7.24127e-22)
(0.934983 -0.0695075 0)
(0.957775 0.0989765 -2.85543e-21)