/*--------------------------------*- C++ -*----------------------------------*\
| =========                 |                                                 |
| \\      /  F ield         | OpenFOAM: The Open Source CFD Toolbox           |
|  \\    /   O peration     | Version:  v2012                                 |
|   \\  /    A nd           | Website:  www.openfoam.com                      |
|    \\/     M anipulation  |                                                 |
\*---------------------------------------------------------------------------*/
FoamFile
{
    version     2.0;
    format      ascii;
    class       volScalarField;
    location    "100";
    object      ddt0(omega);
}
// * * * * * * * * * * * * * * * * * * * * * * * * * * * * * * * * * * * * * //

dimensions      [0 0 -2 0 0 0 0];


internalField   nonuniform List<scalar> 
9793
(
1.79896e-05
-1.1691
8.09644e-05
-0.489341
5.2459e-05
-0.0526153
0.00434136
-0.484461
6.27898e-05
9.37124
7.40178e-05
7.4734e-05
-1.79787e-05
0.283775
0.000208423
0.000921253
-0.000942888
-8.7762e-05
1.20989
0.000136781
6.54107e-05
-5.45014e-08
-0.562594
0.18475
0.0897129
0.000130777
3.39479e-05
-1.23886e-05
0.000135673
0.00516328
-0.00881218
0.0330486
0.000143218
5.81192e-05
0.000171131
0.000744456
0.000344216
5.53039e-05
0.142456
0.000426907
0.00294268
-1.46455
6.00566
4.05343e-05
-2.65389e-05
-5.41505e-05
-1.56945
3.67252e-05
-4.40176e-05
-6.01086e-05
0.000822702
0.000149462
0.000684897
4.18541e-05
0.000256914
-0.655291
-3.26896e-05
-0.00668021
-3.56676e-05
-9.21751e-08
4.23082e-05
0.000331328
4.97316e-05
0.00232369
-2.79526e-05
5.20509e-05
2.01994
0.000301711
0.000440839
0.198549
2.10517e-05
0.000814042
-2.64246
0.0854923
-8.11307
6.10077e-05
0.00322511
-5.15801
3.15282e-05
-3.9033e-06
0.00139742
1.14302
-0.000708495
0.000122592
0.000456294
0.133448
3.1996e-05
0.00791535
-0.018586
0.00834998
-0.800274
-1.8326
1.59699
0.000691401
7.45969
5.27726e-06
-8.23167
0.000224961
0.000285939
5.48838e-05
0.376542
0.000674767
-0.0396191
-2.31993e-05
-6.35842
1.8538
0.0338715
9.68239e-05
1.57756e-05
5.06431e-05
6.7845e-05
-0.661578
-0.300731
2.21864
6.01095e-06
0.00010145
0.000375819
-0.000101105
-0.467118
-2.90758e-05
-5.19133
0.00585973
-4.9625
0.000277932
0.000349159
-5.3547e-05
-0.000577466
-1.25237
0.0503012
0.0517711
0.000227104
0.000102385
1.96266e-05
0.000238559
0.000585352
0.0177024
-0.0979902
0.0003948
2.69909e-05
-0.00266399
0.759698
0.000653292
-8.09617e-05
0.00479055
-3.09863
0.115323
-4.21694e-05
-7.91386
6.89813e-05
-5.45241e-05
8.05938e-05
-10.8507
0.000259001
3.9219e-05
1.92994e-05
1.31182
-0.00121009
-3.14323e-06
0.0925708
3.5255e-05
0.00562685
0.000295791
6.09755e-05
-0.00750397
3.48004e-05
-5.67977
0.122811
6.16766e-05
2.38309e-05
1.28005e-05
-3.20626e-05
2.15684
-11.502
0.402598
-1.75263e-05
-0.0533042
0.0195948
0.167481
2.41119e-05
0.000294047
-5.78864
-1.96159
0.0105142
-6.14964e-05
-7.31253e-05
6.16235e-05
-3.09226
-2.06926
-0.650905
0.204565
3.65492e-05
3.00879
0.0662788
1.42858e-06
2.85758e-05
-3.48516e-05
0.160242
2.1657e-05
-7.9979e-05
-3.0315e-05
-3.75583e-06
7.55848e-05
0.000988252
0.000492965
0.699199
-4.43372e-05
0.000366878
6.8196e-05
3.66005e-05
-0.129865
-0.00204483
0.7725
8.7655e-05
0.468072
9.31902e-05
0.00575986
0.000165872
0.0525395
7.51798e-05
7.74209e-05
2.43602e-06
7.79891e-05
-0.169777
0.0941505
0.000782782
-8.37334e-06
0.000152058
1.7507
-0.000902747
-0.00205378
0.139165
0.0302237
0.00505423
0.00230208
0.0290256
-1.60036e-05
0.188896
1.45516
-9.79742e-06
-5.00393e-06
-0.620685
9.82366e-06
6.58049e-05
-0.00305489
-0.0118965
4.27586e-05
0.000306462
0.000369104
0.00101344
0.000301317
2.6903e-05
0.00121477
0.724542
5.6677e-05
0.901782
5.21853e-05
-8.45955e-05
0.000175639
-0.52211
-3.17203e-05
0.950265
1.11236
0.000125512
3.48692e-05
1.20029
7.97271e-05
7.99581e-05
3.65747e-05
1.08365
-0.042346
-1.0393e-05
-0.0182003
-0.00927318
0.14972
0.394945
0.000101336
-1.66111
-9.36801e-05
1.71805
-0.557216
-0.505985
-5.31022
0.0244937
0.000220248
-6.50384e-05
0.000404687
8.86242e-05
7.08654e-05
-0.0178927
0.000137774
2.36266e-05
-3.05228e-06
2.59564e-05
0.0001434
6.75454e-05
0.0227561
2.36747e-05
0.000206004
0.00017892
-1.36421e-05
0.755686
0.135339
0.000152938
6.02454e-05
0.0037132
0.000253305
0.0510885
-8.42487
-2.99185e-05
0.424218
0.00175717
1.06828e-05
-2.36204
0.0708286
0.000161486
0.00120859
0.248106
5.76096e-05
6.63957e-05
0.00020814
4.81849e-05
1.74144
0.000540212
5.17913e-05
-3.64958e-05
5.24029e-05
0.0309148
-0.422621
5.17375e-05
0.000132212
8.09864e-06
1.91622
9.3388
-4.61008
-1.75675e-05
0.00105165
7.42565e-05
0.00809906
-0.0051882
-4.07218e-05
-5.96127e-05
8.87906e-06
-0.000165053
-9.9743e-06
0.190927
0.000136771
4.80922e-05
2.22014
0.147936
0.551395
0.000154006
0.334946
0.000186432
-0.0485786
3.01574
0.172339
0.000191748
0.000503441
-0.0776759
-0.830988
-0.827502
2.07505e-05
-5.31776e-05
1.10395e-05
-3.31199e-05
0.000170211
5.21771e-06
-2.8304e-05
-8.08257e-09
-0.467839
1.52573e-05
-0.000315281
0.000458071
10.4323
-4.24303e-05
0.000159627
-0.172927
-0.0536956
0.532877
-0.00461175
-1.67716e-05
0.000204219
5.86746e-05
-0.0717052
3.915e-05
0.727369
0.0207142
0.00377743
-2.1974
1.59586
0.000251813
3.77639e-05
0.659688
-0.566847
-9.13331e-05
2.15677
0.000286492
-9.16606e-05
-0.708061
2.21764e-05
-0.00770843
-1.51912e-05
0.285325
7.86852e-05
3.45032e-05
5.54341
0.00296604
0.00802521
5.66028e-06
1.17194e-05
-4.01734e-05
-5.87317
0.000428127
-4.73389e-05
2.36554e-05
0.000491375
-0.000838658
0.00811263
-3.61409
-7.89473e-05
9.27286e-05
0.367939
1.99248e-05
0.606901
0.133069
-7.40867e-05
0.000129248
7.18651e-05
0.000283203
-2.82396e-05
0.522812
-0.000350211
0.39719
-5.17579e-05
0.000254587
0.000463444
5.40879e-05
-0.500272
1.5877e-05
2.04816e-05
0.000309058
0.152225
1.72873e-06
2.44232e-05
-1.20623e-07
3.08084e-05
1.15109e-06
7.75917e-05
-8.06584e-05
0.000157188
-2.35687e-05
0.000378734
-0.00207158
-6.94933e-05
0.149445
2.86298e-05
0.0194155
0.772624
8.86204e-05
1.86121
0.0064412
2.34014e-05
0.000151775
-9.80827e-05
-2.60891
-0.0092106
0.000138533
0.000155334
-9.93385e-05
0.000194083
0.0198316
-2.28518
-3.47413e-05
-1.39148e-05
0.000139368
-1.08131
-0.208772
-2.44047e-05
0.000319829
0.224221
-8.18748
-0.0188522
-1.05205e-05
9.37328e-05
0.564261
-7.17769e-05
0.0197561
3.0867
4.33391e-06
-0.0444451
0.000327463
-0.266481
-3.77768e-05
1.22713
0.0616008
0.000792649
2.52252
-4.01021e-05
0.162589
5.33034e-05
1.26807e-05
0.000124945
-6.50685e-05
-3.03432
-8.20389e-06
-8.52319e-06
7.26819e-05
-1.73196e-05
0.000125422
0.00140979
3.08695e-05
0.00196606
0.000141463
0.00010419
-0.118962
9.17961e-05
-3.25049e-05
0.654781
0.000339494
1.07685e-05
1.75824e-05
-8.26763e-06
-6.65574
-2.08463e-05
-3.73867e-05
-0.880715
-2.77006
0.000843792
-0.000119597
2.04512e-05
7.04326e-05
9.14524e-06
0.543088
3.12993e-05
0.133661
0.000291006
-0.00993493
2.95901e-05
1.27457
8.5445e-05
0.0599379
-5.8594e-05
0.0199555
0.612388
6.75994e-05
0.58998
0.000118149
1.90744e-05
4.87339e-05
-4.44219
0.517386
-6.35674e-05
0.000380124
-2.29986e-05
0.560389
-0.000131762
0.00135429
1.20296
3.08469e-05
-0.000117718
0.00135061
1.16532e-05
6.43543e-05
8.08979e-06
0.00478978
-7.50051e-05
-0.424787
2.41775e-05
6.52503e-06
0.00312373
-0.0122722
3.07564
0.000211157
-0.212662
3.07753e-05
0.0361405
5.91476e-05
3.99321e-05
-2.49618e-05
-2.08686e-05
1.61788e-05
0.0295396
0.00519284
0.804121
0.00238478
0.00036963
0.000712705
-0.36588
0.000262133
-0.00051727
10.703
0.079485
10.5397
9.68737
0.0331254
8.09672e-05
-0.454372
0.00367086
1.0422e-05
0.128029
2.84247e-05
-0.0495085
0.000596777
-0.0740224
-1.03172e-05
0.134332
-11.6254
0.00287576
-0.0721953
-3.41271e-05
0.273543
-1.14099e-05
-7.19677e-05
-2.18883e-05
0.000251479
0.000467113
0.193858
0.0150415
-4.71012
0.000243095
1.40459e-05
-0.264439
0.0226294
0.000355373
-0.00353082
4.68365e-05
-0.305236
3.85829
-0.000100239
3.99971e-05
-0.0190499
-11.5321
1.60116e-05
2.68603e-05
-2.40261
0.000982087
-1.735
0.0174783
10.6207
0.000115589
0.000261665
5.6679e-05
4.74841e-05
0.0778795
2.06061e-05
0.0877669
-0.00785163
0.0148864
1.27655e-05
-4.26619e-05
0.000263138
9.74186e-05
0.000177619
-2.27635e-05
0.000603527
-1.32028
-0.0710499
-2.3983e-05
0.230198
-0.000128928
9.25252
0.00248399
0.000721993
0.000259734
0.0453961
0.000119569
8.26776e-05
0.000423637
-4.28946e-05
4.32351e-05
-0.00315817
-0.315384
8.44608e-05
0.0624721
-0.251858
0.000325928
1.73885
-0.0755797
4.33596e-05
-0.000614219
0.0010575
3.56818e-05
5.1297e-05
0.000976997
-0.415255
-6.9556
8.24911e-06
-3.61905e-05
0.000149247
0.000418866
2.61381e-05
5.39326e-05
0.239631
0.00241922
0.00025942
-4.32504
0.000918108
0.000338498
7.88881e-05
12.0204
0.000217132
-0.000112451
0.0128915
0.0466046
-3.20595e-05
-0.000103928
5.07984e-05
0.000586905
0.000136125
0.00259321
-0.130243
1.9921e-05
0.00637614
0.000344691
4.40888e-05
4.81204
3.32596
0.0288297
0.000105254
8.2746e-06
0.714748
-3.08307e-05
0.114142
4.59048e-05
4.8008e-05
1.70756
0.116336
0.000405468
-0.0049132
-0.000117114
2.24946e-05
-5.70554e-06
1.39656e-05
5.88456
-5.06069e-05
-4.91186e-09
-0.860749
1.47989e-05
0.0670087
-0.000126422
-3.46597e-05
0.982772
-0.000156931
1.9242e-05
1.21701e-05
0.00061609
-0.0153466
-8.49001e-05
-3.29707e-05
-2.80469e-05
-3.25895e-06
-0.000128066
8.30461e-05
12.0841
0.000589267
-1.31055e-05
-3.18825e-05
0.000275197
-0.0012417
0.000892712
-1.88495e-05
2.87967e-05
0.000131405
0.000217681
0.6043
-0.0265631
0.000212021
-6.57007
-1.54365e-05
5.28971e-05
3.47199
-0.254813
0.000106523
-7.87867e-05
-0.00606852
0.000192114
-0.00011223
2.99468e-05
-0.78656
2.01319e-05
0.00360864
0.000125866
0.0221962
5.98794e-05
-3.04448e-05
7.61838e-05
0.000454666
4.70561e-05
-4.91836e-05
5.29208e-05
-0.00708443
-4.94533e-05
-6.33215e-06
7.45864e-06
-2.96363e-06
7.91145e-05
2.97978e-05
0.00042609
0.000157556
0.00277003
0.258961
3.79047e-05
-0.00385079
-3.18181e-05
7.93145e-06
1.87114
0.204325
-1.48044e-05
1.32846
-0.858113
3.5021e-05
-5.75982e-05
9.09274e-05
0.0128095
0.00283652
-0.243204
1.92361e-06
0.000436586
1.30476e-05
4.57314e-05
-3.70366e-05
0.00832214
5.63956e-05
0.0637832
2.50055e-05
0.00013715
1.34774e-05
-1.90635e-05
4.37548e-05
0.00435732
-0.000314786
-1.28548
0.280514
1.17839
7.13154e-05
4.93599e-05
-0.0692545
-0.346808
0.00331843
6.65189e-05
-7.80815e-07
0.0711785
8.91594e-05
-0.392573
-2.1713e-05
0.00135952
5.72508e-05
-6.32673e-05
0.000188497
1.20374
2.16315
-0.40921
-0.000318084
0.822012
9.49394e-06
-3.03094
1.76273
2.06873e-05
1.44148e-05
0.000183361
5.36026
1.17787e-05
-5.37733
0.000192083
-0.0377266
9.86231e-06
-0.37389
-4.4863
0.0372103
0.000500304
0.000388365
-0.00011403
-7.58611
0.000106069
0.00189949
-0.0332034
0.00747026
1.30354
0.438761
0.000257123
0.000214884
-8.35126e-05
0.016948
-1.50617
1.02341
0.000170311
-0.0631718
0.000715056
-0.012869
0.000393858
-0.117335
-0.211393
-5.92666e-05
5.60192e-05
0.00114426
0.000272798
0.000349685
-0.0997363
-5.48956e-05
-3.19915
-0.000170713
-4.82716e-05
0.00731429
-0.0158493
4.36933
0.000173611
-2.57558
9.4404
1.96414
-1.78202e-05
-1.81119e-05
0.000173801
-2.06282e-06
4.34531e-05
-1.38704
0.114846
5.79959e-05
5.50054e-05
0.00143796
-0.23152
0.000443537
-5.36385e-05
0.0248252
-1.47743e-06
-2.24047e-05
5.27837e-05
0.00544165
-3.69856e-05
0.000460143
0.247573
-0.000499705
0.000135891
0.193632
-0.0120403
-2.65576e-05
0.000205825
0.00050839
2.66068e-05
-0.000122048
0.000121525
7.10016
0.0517576
2.18137e-05
0.000516605
9.9377e-05
0.190982
8.29629e-06
-4.60244
0.000130959
0.000207469
0.0187717
-0.0874338
-0.00482165
-1.05083e-05
8.31561e-05
-5.16235
0.486541
0.0996059
-0.139248
-6.19125e-05
0.00034916
0.00013573
2.74547
-1.6333e-05
0.158134
4.83273e-05
1.77487e-05
0.000266711
9.98705e-06
-3.24627e-05
0.00185129
3.10101e-05
-3.43501
2.69736e-05
6.23569e-05
-6.75961e-06
0.000468698
0.536198
-0.579452
0.00415189
-0.328971
-4.82429e-05
0.000284391
0.000315964
-0.214435
9.803e-05
2.02743e-06
0.365343
0.000587002
0.00045894
1.36309e-05
-0.0253447
0.500066
1.4926
8.97905e-06
0.000195723
0.164639
0.0017353
0.989034
-0.0134019
0.00718505
2.62639e-05
5.60805e-05
0.00357564
-0.00620438
-0.00011319
0.0169813
0.000208404
-0.000105111
3.10552e-06
0.000150585
-2.9707e-05
1.77256e-05
-1.18858
0.000475085
0.000228322
0.00147194
0.000122608
6.37758e-05
0.000940392
0.714769
-0.0010968
0.0020204
-0.0427033
-4.28312e-05
-2.28519
0.00052075
0.667611
0.00223483
6.70187e-06
-6.90653e-06
0.000241411
-5.35384
0.0741706
0.00202934
0.0209665
9.01657e-05
7.89103e-05
4.77321e-05
-1.67859e-05
-1.1119
0.000337013
8.76043e-05
-0.0339187
-0.00801881
-2.30892
0.000205187
0.304115
9.33015e-05
0.000465417
0.00169924
-0.0108876
0.0573107
2.92462e-05
0.177603
-0.0620509
0.000243744
1.23591
0.00086157
7.59597e-05
3.15006e-05
4.714e-05
-9.35794e-06
6.95586e-05
-15.4644
0.000648685
0.000158698
-0.0334558
0.000110819
0.688824
0.144595
-0.000120409
-12.9339
9.19787e-05
-2.76829e-05
4.83957e-05
-0.633883
7.49543
0.00244853
0.000154983
-6.69805e-05
-0.425834
6.87982e-06
0.00056453
-5.98151e-05
4.78455e-07
8.72987e-05
-0.754131
-3.6906e-06
-3.23592e-05
0.000511405
1.55672e-05
-0.0199902
0.0239442
0.00225617
9.1674e-05
0.000265814
1.1296
3.21315
0.000162657
0.0001546
0.00015854
5.71773e-05
-10.5311
7.24665
0.081233
0.000145453
8.06523e-05
2.2825
0.323375
4.2344e-05
-5.20026
-2.88201e-07
-0.000241181
-10.7083
5.74295e-05
-5.24816
-1.35832
0.0205808
-1.57099
0.0401157
8.78327e-05
-2.4967e-06
-0.0338929
0.184951
5.80475e-07
-0.369163
0.000287334
3.29891e-05
-1.9153e-05
0.000261553
0.000417855
0.000313966
-0.012075
-1.64907
-0.0611047
0.000146547
-2.72404e-05
0.00503491
0.0547069
0.00013398
-0.0611176
0.000945526
6.56333e-05
0.000156356
-1.4523e-05
-2.64812e-06
0.000279479
-0.0120418
0.000166886
1.99679e-05
-0.481041
0.676593
0.00258702
5.65091e-05
-0.000166486
7.78638e-05
4.13408e-05
-0.545751
-1.58904
-2.17802e-05
8.94525e-05
-2.91452
0.589954
0.000965077
1.92239e-05
2.27215
0.000300232
6.61478e-05
0.000239058
-2.48408e-05
8.12278e-05
4.80735e-06
1.43458
0.0586445
0.000230928
-0.0447798
0.00134889
0.506461
-1.35612
1.03486
-0.0440826
2.03883e-05
0.000125023
9.61083e-05
-3.51244e-05
-0.00795496
-2.88157e-05
0.00972218
0.000350874
5.68543
0.000100677
-0.939261
-0.000197308
1.01588
9.35807e-05
-0.107429
0.00133598
-0.0618982
0.00328856
0.000493745
-1.37456e-06
1.36451
-0.00195731
7.99778
-3.51755e-05
3.44421
0.000128522
-4.30562
0.0686391
-0.00101527
2.19645e-05
-0.000169411
0.178958
-4.73595
0.00139208
-7.31986e-05
0.126308
0.00884504
9.06075e-05
0.0139061
0.00595042
6.23316e-05
0.445636
1.53684e-05
0.00152686
3.86616e-05
-2.75035
4.26746e-05
0.000234123
0.0144466
-0.215921
-6.6484e-05
0.0013294
0.000324003
-0.000949106
1.51799e-05
0.127275
3.63129e-05
0.00221075
-5.32131e-05
-3.03435e-05
0.508509
0.000974299
-5.28633
0.23337
0.565917
3.46469e-05
0.000103562
0.000107897
0.000333619
0.000724653
0.000531232
0.442033
0.00022829
0.102425
0.000974989
-4.55382e-06
-1.35846e-05
0.00420446
-0.0971867
2.30343
-9.40079e-07
-0.425973
1.06202e-06
-4.25673
0.125861
0.00114205
-9.01931e-06
-1.77082e-06
0.000495784
3.17514
0.00028851
1.65651e-05
0.000358888
0.00011777
0.00012898
0.374178
1.25393
0.0626162
0.000148867
0.000385955
-0.999533
-5.56046e-05
8.09486e-05
0.000158137
-2.69543
0.000995442
2.14573e-05
0.001099
0.00930612
0.0001587
1.15391
2.43091e-05
-0.0380568
0.0192845
-0.0996765
-0.422504
-8.97894e-05
5.8808e-05
2.02779
-1.4889e-05
0.00105263
-0.00242199
0.000229798
0.000102598
-4.82433
1.62298e-05
-0.00661771
0.000183701
0.00652839
2.76946e-05
-0.0481447
3.30006e-06
0.00031355
1.78356
0.142658
8.3506e-05
1.35094e-05
0.0296232
1.38733
-0.0471885
0.2738
0.00137112
-5.67929e-05
5.96722e-05
0.0871337
7.38718e-05
-1.98871
0.0160759
1.63115
-6.58234e-05
-3.76938e-06
5.34608e-05
3.06663e-05
0.00684194
0.0247748
0.77306
0.389136
-0.07645
0.000154868
-0.202348
0.000141665
0.008035
0.000345112
0.000162121
0.00014164
3.89459e-05
0.000146425
0.00504864
2.35289e-05
0.000838938
0.000364928
1.14707
-5.74623
0.00411127
0.0930205
2.79659e-05
0.000112511
-2.69836e-05
-0.00634112
0.00287167
0.000655717
0.016646
0.52807
0.000840876
0.0158375
0.000166456
8.37419e-05
-11.1357
8.62671e-05
0.0971653
4.11001e-05
8.94007e-05
0.0926811
0.016121
0.00011835
0.00357077
0.0634203
0.147257
0.307565
0.000464881
0.0102133
0.00311925
-0.54613
5.12464e-05
-3.28163
-1.91402
3.9751e-05
0.000711627
-3.14688e-05
-0.245462
-7.47682e-05
1.603e-05
-0.489756
3.45869e-05
-1.80093e-05
0.0555209
0.00706957
0.546137
0.700602
-0.0128782
-0.165439
-4.963e-05
-1.4501e-06
0.000166469
-1.70024e-05
1.4865
2.97338e-05
-0.692124
0.000141326
-6.70924
1.23735e-05
1.36163e-05
0.00017138
7.27362e-06
0.000288744
7.16694e-05
0.000114761
-0.0901766
9.7854e-05
0.00455704
8.31792e-06
-0.29362
5.06138e-05
-0.000168651
0.000153863
-0.00116434
8.28274e-05
0.000126952
0.00012571
1.07228e-05
0.000321225
0.000172236
0.000241456
-7.21116e-05
0.619843
0.790812
-6.24741
1.16642
5.46207e-05
-2.98832e-05
-1.255e-05
0.000232012
7.74469e-05
5.07847e-05
0.048906
3.87066e-05
2.10206e-05
-3.1152e-05
0.000145748
2.08433e-05
1.45868
0.000340887
-4.67356e-05
-12.6173
0.00181748
0.000248592
-5.06367
-0.37567
8.62261e-05
0.202616
0.249189
5.83269e-05
2.21719e-05
-2.95029e-06
7.42476e-05
0.000354363
-0.000136643
0.00463866
-3.22974e-05
-9.74653e-05
0.00012126
-3.18888
0.00125605
0.000687863
-5.51846e-05
2.28912e-06
-5.91092
9.19141e-05
1.46125e-05
0.000256006
0.000262799
4.81904e-05
-0.171961
-7.20165
-0.453225
-0.817747
-0.0342166
0.000601395
-5.59713e-05
17.3703
0.0383002
8.24455e-05
-0.00299611
-3.86085e-08
8.59782e-05
-0.000155562
1.60852
0.000999107
-0.00011467
9.84049e-05
-0.0537435
1.75439e-05
-0.00667844
-0.000116748
0.0335056
-0.0184487
4.57222
-7.42561e-05
6.88777e-06
0.000233153
0.000508885
3.70173e-05
0.000512044
0.00204965
11.5323
3.59783e-05
0.185303
2.43223
1.00744e-05
0.437376
0.000971922
-0.00121476
0.0138352
1.96513e-05
0.000342827
0.000650118
0.00018818
0.000331467
-1.66955e-05
0.182384
1.36735
0.000876669
5.5023e-05
0.0308682
-0.000395718
0.0545049
0.249352
0.000229332
0.000967268
1.99992e-05
-6.34347e-05
0.000782351
0.00307938
-11.9969
4.27291e-05
3.58722e-05
-0.000150333
0.713039
0.0477341
-0.928449
0.000103775
-3.82149e-06
-0.0523064
-0.0324237
0.000181262
0.757722
0.000134318
0.356328
0.000142867
0.000103562
-0.117559
0.0864919
0.000456634
6.00145e-05
0.00781709
-0.0224501
0.00197198
0.0086746
2.27072e-05
-3.23876e-05
0.000228631
-0.0457364
-1.89568
0.000127275
0.00147205
0.189771
0.000613459
0.0830717
-0.691895
0.195085
2.44211
0.000209906
8.80018e-05
0.434737
6.05144e-05
0.00116443
-0.0876175
-6.59376
1.53387e-05
-4.40411e-05
-1.03538
-0.0311041
-0.0599989
-1.98424
0.0179282
0.538311
-4.8288e-05
5.60486e-07
1.63397e-05
0.000188489
-1.94192
0.000175253
0.0345887
-1.076
0.00320927
5.25873e-05
0.0754934
2.77901e-05
0.00118179
3.19436e-05
0.000696639
-0.738221
1.33345
-2.33657e-05
-8.85284e-06
0.00438475
0.163456
0.0549506
-3.54564
0.000544689
5.52637e-05
-0.00222352
-0.000109362
-0.00377707
-3.99541e-05
2.88814e-05
0.177261
0.0664278
1.00309
0.00386618
4.39035e-05
-2.41495e-05
3.24071
6.42375e-06
2.2579e-05
0.000148799
-9.80061e-06
7.74658e-06
1.57443
-7.69672
1.14753
-0.090624
-3.17582
0.00037998
1.30394e-05
1.52016
0.000339124
0.0158439
0.444434
1.39829e-05
-3.68271
1.09997
0.00103146
0.000329609
0.42188
4.33374e-05
0.0614354
0.00106468
-0.468298
0.000103428
8.06924e-05
0.00090263
-0.118933
-0.000872375
0.00885951
-0.167512
2.23334
0.000389132
-0.0511113
-0.0375265
0.000273973
-0.0589946
-1.08988
0.00102366
0.00442137
-1.64301
0.00171311
0.00126553
-6.58248e-05
0.000718332
0.00103324
0.00282496
4.79867e-05
-0.410176
0.013805
-0.476545
0.131718
1.21129
0.000793401
-0.0711014
-0.0585676
2.14252e-06
0.0360624
0.119105
1.16596
0.000431612
3.38749e-05
-0.500315
-5.68653
-3.92269e-05
-0.00807888
0.000184912
-1.42365e-05
0.216066
3.21889e-05
-0.180715
0.464432
1.11974
0.925604
6.36727e-05
0.000891219
1.27003e-05
4.84573e-05
0.00641336
-0.00260051
0.000462516
0.0239982
-0.305812
-2.07288e-06
0.000517894
-0.151055
0.000208679
0.0163679
0.000254012
0.257636
0.28436
0.0476258
1.28139
1.00466
-0.857686
0.288892
0.987244
0.00187395
0.000121008
0.0142477
0.0119452
0.419977
0.934244
0.00013218
-0.000152237
-0.833729
-0.88018
0.000420398
-0.290208
1.36166e-05
-0.040999
-1.95613
0.304623
7.95621e-05
-0.699846
-0.0820102
0.000287477
0.00139839
-3.98232
-3.27553
-5.01525
11.8483
6.71741e-05
2.37956
-0.290522
0.000983142
0.0589928
0.00309084
0.000107418
0.000372773
0.0162045
1.58905
0.00031062
-4.7128e-05
-0.892213
-0.00138371
1.1348
0.00612832
0.0148601
0.216151
-2.1984e-05
-6.56785
1.9725e-05
0.00166385
-4.11281e-05
-0.000155929
-0.000200987
0.000848336
0.0596059
1.65026e-05
14.2626
0.0116735
-5.65336
-3.64595
-0.879425
0.000107684
-3.18013
0.0499828
-0.261956
0.000972966
7.20117e-05
3.79229
0.477614
1.17212
0.00025244
-4.7379e-06
-0.000100262
9.89399
0.566596
0.000834201
14.5422
-0.000114664
-2.91286e-05
0.0819432
-4.50911e-06
-2.0244
6.82976e-05
0.00148367
-0.769499
-5.08994
0.244034
-0.0403214
0.27136
-0.282171
-2.77008
2.93799e-05
-1.83383
0.00172471
-3.72491e-05
7.82542e-06
-2.46224e-05
0.982632
0.000237846
0.252248
0.280849
0.00366653
0.043959
0.0134401
1.09309
-0.00401506
0.120962
-0.299873
0.0229599
-0.00103036
3.05669e-05
0.0999595
-0.00154224
0.0158508
0.113448
0.975076
-0.00447436
-0.000166678
0.000256159
0.006785
3.05319e-06
9.39777e-05
0.000437592
0.207799
0.00118023
0.000511852
-0.646797
0.0125279
-0.0925499
36.1698
0.154738
0.192709
0.595035
-0.910972
1.06149
0.0109261
0.000514014
1.42972e-05
-0.0186282
0.0143028
-0.0250539
0.000149831
0.000346473
0.000146594
-0.0177249
3.82225
0.000798994
-5.91815e-05
0.000353061
0.585461
7.48171e-05
0.000148002
0.00286543
-0.172119
0.00127821
-0.00229101
0.0244022
0.000177837
0.00329712
0.000186077
-7.19784e-05
0.00108874
-0.0828258
-9.27743e-06
0.00053775
-0.00222004
1.3226
1.66763e-05
-1.17693
-3.99708e-05
-0.0118376
8.56779e-06
-2.39584e-06
-7.66222e-06
0.0393387
0.00266736
0.186616
-8.49434
0.00121462
4.81691e-06
6.45925e-06
-6.67713
-0.75473
9.52248e-05
0.086339
0.358034
0.000739596
0.00252223
0.00010087
2.94626e-05
6.07233e-05
0.333932
0.000260313
-5.99451e-05
3.75362
-3.97245e-06
-1.70528e-05
-0.074993
0.000101081
0.0189583
0.00132187
-6.97203
3.04606e-05
7.22195e-05
1.52291e-05
0.000803487
0.000125275
1.5161e-05
8.56997
-0.137587
0.00119379
0.000213083
0.5739
-1.85516e-05
9.87784e-06
-0.000122472
1.12594
3.06825
0.000206871
2.37679
-1.1967
0.00372942
-0.216436
-1.53023
-0.148603
-4.25865
0.00369621
0.00736974
0.0232274
0.000887978
-8.32954e-05
-7.15483e-05
0.00111817
1.52664
0.00013028
-1.22129
-3.0597e-05
-0.00391554
0.00995353
0.00012594
0.000124146
-0.17791
-11.2791
0.654102
-0.78526
8.48817e-05
0.0102818
-1.15269
0.000549355
-6.58181
0.00152838
-0.000182623
-0.106515
0.00280111
0.000107318
0.0190727
0.0289203
7.56908e-05
-0.133435
2.02742
0.000131643
-0.000101534
-6.61574e-05
8.31482e-05
-2.00385
9.99415e-05
0.000656053
1.23608e-05
8.7804e-05
-0.000121188
-2.6421e-05
0.271347
-0.000860405
4.72496e-05
7.96382e-06
-0.00512924
0.000243662
-4.28559e-05
0.57762
-0.462419
0.00219874
-0.0528824
-0.000759285
2.68124e-05
-0.024895
-3.69164
0.000809914
0.147542
11.7117
-0.000908378
0.00103861
0.00104607
0.000946889
0.000695845
-1.52656
0.000201445
9.9091e-07
9.81287e-05
1.53781
-2.1061
0.000633123
0.0155631
0.000112728
0.000825448
0.0143931
0.0212641
-2.51962e-05
0.00353206
0.762867
-0.000893644
-2.76782e-05
9.82654e-06
-3.8091
-0.296837
9.73825e-05
-1.13731
0.00160149
-0.0296242
0.0387027
-7.23681e-05
-0.298436
0.00112096
-2.68312e-05
0.768448
-0.0134533
0.000108344
7.3551e-05
-0.0193487
6.66351e-05
5.28574e-05
0.0332996
0.000364696
0.000473555
-0.575642
0.000325042
0.00512324
0.648345
-7.17699e-05
1.33913
-1.35634
0.000329463
0.00792232
-0.0645311
1.03749e-05
-0.0310806
0.000161487
1.51145
-0.146966
-3.06424e-05
1.53469
-2.90355
5.00076e-06
-5.04569e-05
0.0621942
0.00389012
-0.726069
-0.975318
-5.20099e-05
0.000542538
-1.36778
0.000258268
0.00187835
0.00729966
-6.06821e-05
0.987559
-0.0667786
0.000198321
0.0155204
-1.59632
4.90145e-05
-0.220653
7.72608e-05
1.84621e-05
8.23614e-06
-0.00013736
2.49371
-9.14791e-05
0.00236103
6.47339
1.11768
-3.27071e-05
0.000548055
0.0897683
0.501735
1.44064e-05
1.21034
0.000488511
0.00859664
0.000721917
0.000142362
0.00032409
-9.25e-06
9.23135e-05
5.58642
-9.18481e-05
0.000453138
6.95977e-05
2.10295
0.000193844
0.000257514
2.52331e-05
0.000256053
2.69915e-05
0.000363479
0.718885
0.0956841
0.000935424
1.11581e-05
-7.87909e-05
0.000307231
-0.000593881
1.40638
-0.583162
2.83648e-05
-0.25281
8.93106e-05
-0.00358218
-0.440659
0.0666877
0.000207597
0.0105622
-0.00540703
2.28693
0.00567205
8.84071e-05
1.23024
-0.0156004
4.27779e-05
0.12114
-1.35817e-05
-1.48005e-05
0.000397016
-1.34286
3.4408e-05
2.74264
0.000122297
0.266608
0.00284046
-0.000106752
1.02429
0.00040751
7.83591e-07
-0.0904785
-3.99706e-06
0.130906
-1.67096
-0.0397835
7.02146e-05
0.000770493
2.41399e-05
0.0118529
0.000680656
-1.48231
-1.56229e-05
8.40132e-05
0.000467142
0.000541541
0.00102997
0.358996
0.0389006
5.59539e-05
0.00105224
6.51273e-05
-0.191241
1.00953
0.043189
2.95408e-05
-0.000156814
0.000119577
1.59736
2.52142e-05
0.000507497
1.01742
-0.00232664
-2.13481e-05
-0.0364181
-0.00449747
0.000104858
0.000446506
0.0153189
0.00382121
0.00574874
0.00103529
0.744044
0.476519
0.0892588
0.000319279
5.28295e-05
0.000285638
2.9972e-05
0.0209337
-0.00202785
0.000796547
-0.0050472
1.19197
3.54061e-05
-4.77484e-05
-0.207503
0.0784742
-0.00840364
-0.0335586
0.000298321
3.66584e-05
1.9237e-05
0.000123558
9.88233e-05
0.00101202
3.35212e-05
5.4888e-06
-2.73958e-05
0.000100862
0.000107537
6.41328e-05
0.000871154
0.00336018
8.08693e-05
8.42469e-05
0.000139244
-7.85328e-06
3.17943e-05
-0.00772703
-6.87138e-05
2.79736e-05
0.0710999
2.41763e-05
0.00011689
5.24772e-05
0.000628404
-0.841302
-4.64225
0.118239
-1.41164
0.831746
-0.0799847
-4.46159e-05
0.000587396
1.25353e-05
-0.149981
0.000156824
0.000491438
4.77276e-05
-0.000896486
-3.83623e-05
0.000654063
-2.34702e-05
0.887523
0.029234
1.57717e-05
-1.26286
1.29478
9.15247e-06
0.0148974
-3.94643e-05
7.23156e-08
2.27219
7.94043e-05
0.000318406
0.0350052
-5.21643e-05
-2.43265e-05
-0.000715633
0.645784
4.19488e-05
0.000239045
-1.0755
5.79528e-05
1.22952
-0.000430359
4.4233
5.69185e-05
-0.433893
-3.51388e-05
-1.59354e-05
-0.0816077
-0.00135077
0.972522
0.428426
0.999172
1.23876
0.0281302
0.0262661
0.000255141
0.0283527
2.29524e-06
8.36544e-05
-0.00152717
2.72806e-05
-2.88754e-05
3.73793e-05
9.32974e-05
0.0058689
0.197104
-0.560823
-0.0337674
1.45532
0.000240255
0.000142037
0.000361087
1.82702e-05
-0.00605615
4.45483e-05
-7.38367e-05
6.92895e-06
0.000251443
7.89427e-06
0.0306598
0.0151563
0.00044161
-4.7954e-05
0.000294933
7.8114e-05
1.14871
-1.78224
0.000305883
0.000724912
-7.43503e-05
0.682978
-0.553267
7.31063e-05
0.000137898
0.00029392
-8.0246e-05
0.101992
-0.0714075
-1.05788
-1.20715e-05
0.046198
3.54197e-05
0.516553
-0.000525734
2.94746e-05
0.000486228
0.170206
0.000136531
0.000443605
0.00114106
-0.00253348
-0.237313
-1.57635e-05
0.000146176
0.000423802
0.0225202
0.000185364
1.0916
-0.168386
2.03692e-05
0.000153155
1.95381
0.00891851
3.50282e-05
3.4331
4.73118
0.901248
-0.0795529
0.000762906
0.0194654
1.09032e-05
-1.37613
1.41075
0.212371
0.00900008
0.000253188
-0.52865
0.000387577
3.70824e-05
5.24245e-05
-0.00247169
-6.01538e-05
-0.910815
5.07646e-05
-1.94909e-05
1.7512e-05
0.112318
0.000196712
0.000116825
-8.17998e-05
1.07789
-0.298944
-4.21047
-0.141726
0.00432624
2.45539e-05
4.22985e-05
0.0554353
0.00698077
6.21313e-05
0.00329111
0.0137302
0.114526
5.95402e-05
1.37342
-1.35649
0.00355311
6.88908e-05
0.000209903
0.000112171
5.27712e-05
8.48022e-05
0.000146556
4.24283e-05
-0.00186697
0.000113193
0.024971
1.71958e-05
4.90977e-05
0.516634
0.010575
0.000172747
0.00010301
0.0361579
5.62064e-06
-0.000111672
0.000450728
4.85943e-05
0.150643
0.00132432
7.15446e-05
0.000190343
-1.33428e-05
0.000500498
9.49053e-05
-0.035174
4.2967e-05
-3.33869e-05
5.99847
0.000278971
-0.0620401
0.000587224
-4.72918e-06
0.0108587
0.000169181
0.000131141
1.72154e-05
-3.3544
0.000219088
3.13349e-05
0.131092
7.59659e-05
-1.44442e-05
9.42012e-05
0.654279
0.000269242
0.0268672
8.86254e-05
0.000229065
-1.00611e-05
0.000227507
0.000455629
0.000158757
0.90982
1.87304e-06
0.000492373
7.5982e-05
0.0205576
-0.0670231
0.000108398
0.00121388
-0.0982024
8.94634e-05
8.87941e-06
2.90538
0.000384046
0.00328104
-0.847878
0.000941094
6.97169e-05
0.000506625
1.08507e-05
0.000306863
1.29898e-05
0.000145675
0.000263344
-0.000131617
-0.000166314
6.12921e-05
-4.14745e-06
-0.00590458
8.17082e-05
1.02234e-05
-2.4927e-05
0.00139642
-0.579452
5.16836e-05
4.50556e-05
0.00312566
0.00015747
-3.74833e-05
0.0365422
-0.439113
-0.62783
-1.87015e-05
0.000299182
0.00257116
1.108e-05
-3.29938e-05
0.000841888
-0.0635023
8.1545e-05
-0.000111334
-2.5415e-05
0.000111562
6.54753e-06
-0.000167067
0.000364015
0.000525605
0.000856945
0.000695408
0.960726
0.000252329
0.000369022
7.19022e-05
0.119075
-0.0091017
1.3423
2.73053e-06
-0.000132117
0.000476599
-9.01987e-05
-4.28761e-05
0.000634985
0.308816
-0.337065
7.63777e-05
0.000823612
0.953306
7.24326e-06
-0.0227315
9.6654
0.619375
0.00110468
-1.83403e-05
0.000188363
0.00167794
0.00774237
-9.38378
0.498111
0.446606
0.000190809
0.000124293
-3.75553e-07
-0.00996865
8.493e-05
8.03588e-05
0.000989968
-3.70424e-05
0.000105013
2.33711e-06
-2.72446e-05
5.41558e-05
0.000164201
-7.10001e-05
0.345932
6.25273e-05
2.37257e-05
0.000223528
0.000112264
-7.22309e-05
0.00137409
0.00994218
2.56781
-6.82565e-06
0.000388145
0.0194605
-0.119728
1.18378
-1.94978e-05
2.30826e-05
-0.00206743
-0.00244237
0.000253819
-0.00357336
6.41426e-05
0.0148085
5.31972e-05
0.418617
0.000120284
4.01269e-06
0.00512551
1.8401e-05
9.78304e-05
6.1156e-05
0.287458
0.000360856
7.0958e-05
0.000124195
-2.26535e-05
0.00110247
4.78461e-05
9.18526e-05
0.000330705
-0.00238407
0.000271465
8.37542e-05
0.260292
-2.20046
5.87725e-05
0.129909
5.63649e-05
0.0014203
0.00584853
-0.0659706
0.000205524
8.90481e-05
5.12431e-05
-0.0297247
0.000479515
-1.181e-05
0.000120766
7.32518e-05
0.0241713
4.48559e-05
0.0023568
0.000233686
-4.73421e-05