/*--------------------------------*- C++ -*----------------------------------*\
| =========                 |                                                 |
| \\      /  F ield         | OpenFOAM: The Open Source CFD Toolbox           |
|  \\    /   O peration     | Version:  v2012                                 |
|   \\  /    A nd           | Website:  www.openfoam.com                      |
|    \\/     M anipulation  |                                                 |
\*---------------------------------------------------------------------------*/
FoamFile
{
    version     2.0;
    format      ascii;
    class       surfaceScalarField;
    location    "100";
    object      meshPhiCN_0;
}
// * * * * * * * * * * * * * * * * * * * * * * * * * * * * * * * * * * * * * //

dimensions      [0 3 -1 0 0 0 0];
oriented        oriented;


internalField   nonuniform List<scalar> 
14470
(
-0.0102313
0.00325659
0.0069898
-0.00178803
-0.00117781
0.00762387
-0.00729679
-2.28174e-05
-0.000876517
-0.00117048
0.00204701
-0.0040244
0.00468716
-0.000222867
-0.00550332
0.00552454
-1.51163e-05
0.0038502
-0.00760648
0.00376627
-0.000776303
-0.00210707
0.00288339
-0.0114348
0.00193409
0.0095554
0.000328019
0.003923
-0.0037148
0.00354644
-0.00275966
-4.44044e-05
-0.00525188
0.00515865
0.00560392
-0.00258024
-0.00302809
0.0147335
-0.0101893
-0.0037262
-0.00693679
0.00876272
-0.00151392
-0.00795649
0.00799235
1.56558e-05
0.00742674
-0.0024255
-0.00536915
-0.00315995
0.00265877
0.000501209
0.00345325
-0.00632755
0.0036314
0.00483854
0.00511641
-0.00964724
0.000954887
-0.000954887
-0.000499482
0.00247779
-0.00197829
-0.00252315
0.00174685
0.00361705
0.00198222
0.00240762
-0.00960783
0.00721346
-0.000716202
0.000557754
0.000360918
-0.00241615
0.00293631
-0.000632467
-0.00292601
0.00699772
-0.00654449
0.00163677
0.00491714
-0.00160287
-0.000662816
0.0022657
0.00537912
-0.00485295
-0.000525748
-0.00702158
0.00760046
9.40757e-05
0.00135557
0.00586694
-0.00695986
0.000970771
0.00110873
-0.000775158
-0.00434551
-0.00341377
0.00785907
0.00621105
0.000855477
-0.00702178
0.00118893
0.00649544
-0.00764511
0.0016276
0.00212416
-0.00375258
0.0103695
-0.00721946
-0.00308974
-6.52552e-05
-0.0064715
-0.00272976
-0.00149281
0.00422454
0.000979114
-0.00257977
0.0016008
7.89563e-05
-0.00217557
-0.00105543
-0.00696966
0.00792564
-0.00117043
-0.00694493
0.00783771
0.00140991
0.00117039
-0.0025803
-0.000107276
0.000772602
-0.000383209
0.00176
-0.00654507
0.00461075
0.000410764
0.00672383
0.00563148
-0.00983353
0.00237373
-0.000370389
-0.0105835
0.00742164
0.00321873
-0.00119213
0.00141343
0.00938405
-0.00638355
-0.00298824
-0.00312075
0.00224428
0.00641933
0.000167081
-0.00679846
0.000524364
0.00620075
-0.00671676
-0.00443194
0.00606007
0.000772602
-0.00887418
0.00164736
0.00724961
0.0026724
-0.00514201
0.00247007
-0.00679858
0.00705483
-5.47205e-05
0.00973803
-0.0017234
-0.00793267
0.000437486
-0.00306565
0.00241266
-0.000325843
-0.011065
-0.00116952
-0.0011861
0.000126236
-0.00857507
0.00860555
0.00054954
0.00635838
-0.00682791
0.0041237
-0.00123416
-0.00288887
-0.0112766
0.00501021
0.00631255
0.000506691
0.0033929
-0.0039006
0.00172666
-0.00309386
0.00136719
-0.00850625
0.00823685
0.000311516
-0.00330762
0.0050783
-0.00177122
-0.00123502
0.00193375
-0.000253
0.0058134
-0.00704338
0.00123642
-0.004635
0.00187049
0.00276542
0.00878336
-0.00217731
-0.00646663
0.00230351
-0.00238208
5.38835e-05
0.000388193
0.0054271
-0.00245086
-0.000709005
-0.00702269
-0.000894348
0.0101201
-0.00223965
-0.00779504
0.00684244
0.00430752
0.000425702
-0.00472861
0.00299664
-0.000464213
0.0087697
-0.00718478
-0.00144437
-0.00204118
0.00366772
-0.00154007
0.00421325
0.0021663
0.00069214
-0.00285836
0.000172939
-0.00308505
0.00291333
0.00389904
-0.00372452
-0.00471592
0.00800353
-0.00325106
0.00301765
-0.00203834
0.00863207
-0.0016127
-0.0070223
0.00141591
-0.00472335
0.00709558
-0.0001828
-0.00687859
-0.00969095
0.00172244
0.0080893
-0.000244546
-0.0033136
-0.00200711
-0.00184639
0.00385283
-0.00216949
-0.00833554
-0.00738605
0.00830395
-0.000887496
0.00695438
-0.00809894
-0.00598564
0.00465337
0.00133688
-0.00371209
0.00175443
0.00195828
-0.00785423
-0.000613827
-0.00433195
0.00448438
0.000394338
0.00725148
0.00160927
0.00112137
0.000783521
-0.000353889
6.70519e-06
-0.00259672
0.00209728
-0.000771604
-0.00202744
0.00279902
-0.00184244
-0.000485863
0.00232831
-0.00278142
-0.00847451
0.00193208
-0.00511694
0.00378432
0.00261649
-0.00690082
0.00456173
0.00805967
-0.000159605
-0.00835671
0.000839331
0.0020651
-0.00290446
0.00625249
-0.00756566
0.00120119
-0.00221258
-0.0028483
0.00506443
0.00861596
0.000270384
-0.00497688
0.00458447
0.000394453
0.000906378
0.0069393
-0.00779502
-0.0076313
0.00853835
0.00692463
-0.000898841
-0.00812192
0.00280408
0.0053521
0.00125404
-0.00285691
0.00536542
-0.00764081
0.00228402
0.00829634
-0.00291858
0.00862686
1.82127e-05
-0.00864629
0.009662
-0.00291557
-0.00628562
-0.000783409
-0.0094406
0.00881503
0.000671136
-0.00930455
0.0100018
-0.00862871
-0.00128014
-0.00235978
-0.00243497
0.00480048
-0.000127316
0.00474557
-0.00461679
0.0062554
-0.00341122
-0.00113917
0.000121356
-0.00761711
0.00286702
0.00477199
-0.00370054
0.00269585
0.001005
0.00668943
0.0123715
-0.00389463
-0.00871183
0.000991387
0.0068875
-0.00776351
0.00110005
0.00157383
-0.00267388
-0.00142012
-0.00221406
0.00363558
-0.00698798
0.000252923
-0.00118575
0.00260158
0.00506316
0.00485402
-0.000270686
0.000403547
-0.000715723
0.00081458
0.00275751
-0.00361223
0.000854843
0.000358195
-0.00993973
8.20406e-05
-0.00059887
0.00951243
-0.00887911
-0.000585341
0.00301284
-0.00435052
0.00133897
0.000339887
0.00768867
-0.00668214
-0.000148758
0.00112403
0.00425465
0.0068802
0.00151154
-0.00829034
-0.00781705
0.000753959
0.00772836
0.000983316
0.00835446
-0.0032991
0.00054115
-0.00271977
0.00217882
-0.00213463
0.0093902
-0.00724278
-0.00201546
-0.0026181
-0.00797934
0.00709795
0.000911173
-0.000960439
0.00855758
-0.00756726
0.00379242
-0.00424542
0.000593164
0.000348613
-0.00461839
0.004365
0.00657619
0.0057102
0.00195185
-0.00303993
0.00108807
-0.00335256
0.00209864
0.00125395
-0.00189345
0.00534306
-0.00344538
0.00497681
-0.00514546
-0.00522629
-0.000265852
0.00547576
-0.00241053
-0.0030619
-0.00388346
0.000918776
0.00296489
0.00920932
-0.0068658
-0.00222681
0.00214147
0.00717153
-0.00917041
-0.00414549
-0.00183507
0.00250995
0.00169514
0.00702229
-0.0073426
0.00589544
4.65232e-05
0.00835363
-0.00874424
-0.000188029
-0.00350592
-0.00146804
-0.00113497
0.00286161
-0.00170215
-0.00165031
-0.00777798
0.000424939
0.0112482
-0.00237232
-0.00881238
0.000535157
-0.00198259
0.00144741
0.00328005
-0.000546362
-0.00273383
-0.00901267
0.00876753
0.000264445
0.00444889
0.000789997
-0.00516057
0.000865777
-0.0103345
0.00950633
0.00245804
0.000291246
-0.00274927
-0.00995398
0.00399953
0.00605807
0.00313443
-0.0058247
0.00485454
-0.00548299
0.000422245
0.00379886
0.00563542
-0.00944674
0.00237313
0.00328593
-0.00543933
-0.00793815
0.00173812
0.00633477
-0.00905255
0.00712406
0.00202715
-0.00106277
0.00318225
-0.00211951
0.00991325
-0.00212594
-0.00789243
0.00814879
-0.0090063
0.000928172
-0.00779254
0.00687753
0.00234434
0.00780032
-0.0100937
-0.00440013
0.00325687
0.00114366
-0.00724234
-0.00279654
-0.000903734
0.0104615
-0.0105807
0.000562753
0.00319949
0.000924748
0.002155
0.00805277
-0.00742077
0.00854138
-0.00101004
0.00785669
0.00738847
0.00319567
-0.00554952
-0.00428603
0.00668775
-0.00641972
0.00126161
0.0051552
0.00100002
0.00613167
-0.00482585
0.00748179
-0.00248992
-0.000180287
0.00267003
0.00271175
-0.00657309
0.00388244
0.00272049
-0.0074103
-0.00914529
0.0021296
0.00696796
0.00139296
-0.00828022
0.00694526
0.00708259
1.74433e-05
-0.00709601
-0.00539397
0.00554903
-0.000158623
-4.92425e-05
-0.00534635
-0.00198261
-0.00123307
0.00321552
-0.00478949
-0.00240636
0.00721125
0.000692181
-0.00795754
0.00364971
0.00617065
0.00062601
0.00265392
0.000427473
0.00610448
-0.00659225
-0.00177035
-0.00291262
0.00107019
-0.0032658
-0.00673673
-0.00547791
0.00532459
0.00011534
0.00231308
-0.00504061
0.0109324
-0.00958877
-0.00129731
0.000340426
0.00078685
0.00129377
0.00515944
-0.00643764
0.000466892
-0.00634561
0.00589931
0.010969
-0.0051837
0.00744316
0.00862081
-0.000421371
-0.00753753
-0.000146507
0.0077126
0.00865855
-0.00743017
-0.00114924
0.00716087
0.00838836
-0.00480145
-0.00356595
0.00242773
0.000233971
-0.0026617
0.00262705
-0.00721537
-0.00290442
-0.00353496
0.0064505
-0.000214301
-0.000643352
-0.00351603
0.000326232
0.0025938
0.00127307
-0.000101892
-0.000103443
-0.0022815
0.00670471
-0.000127125
-0.00668306
-0.00070645
0.00372039
0.00302982
-0.00457792
0.00154922
-0.002007
0.00273498
0.000194948
0.00178318
-0.00586078
0.00447743
-0.00193646
-0.00253996
0.000935947
0.000836425
0.00403606
-0.00349711
1.72213e-05
0.000433601
-0.000264357
6.36173e-05
8.10503e-05
0.00294891
-0.00297667
0.00351816
0.00892661
0.000609138
-0.00955726
0.00429283
-0.00233571
-0.00195694
0.00572103
0.000790583
-0.00650195
0.000354316
0.00247659
-0.00208911
-0.000387503
0.00209707
0.00658079
-0.000771927
0.00204002
-0.00126808
-0.00165789
0.000127482
0.000790085
0.00748128
-0.000402749
-0.000731534
0.00196938
-0.00123782
0.00231285
-0.00512598
0.00281099
0.00244318
-0.00724492
0.00247059
-0.00843443
0.00845143
-0.00744695
0.000465072
-0.000907299
-0.00807524
0.000465424
0.00465459
-0.00483485
-0.00479748
0.00743882
-0.00261133
-0.00229005
-0.00210993
-0.00470615
0.00712246
0.00549896
-0.0035886
8.11171e-05
-0.000653247
0.000548937
0.00281225
0.00775421
0.000253156
-0.00108367
0.00175912
0.00802333
0.00283667
-0.001121
-0.0017157
0.00654051
-0.00177357
-0.00464145
-0.00067323
-0.0100046
0.0114473
-0.00212099
-0.000243876
0.00330862
0.00650485
-0.00017258
-0.00249179
0.00259604
-0.000104257
-0.00356529
0.0021464
0.0056161
-0.00317494
-0.00244351
-0.00140953
-0.00687223
0.00834397
0.00740174
-0.00630273
-0.00198139
0.00789457
-0.00701006
-0.000848968
0.0030633
-0.000305676
0.00688899
-3.10263e-05
-0.00241007
-0.00216762
0.00893083
-0.000598714
-0.00825282
-0.0092716
0.00233461
0.00056758
7.1212e-05
-0.00593297
-0.000354245
0.00341814
0.00499482
-0.00117779
-0.00199249
0.00922415
-0.0104243
0.00128502
0.00555101
0.000963294
-0.00652865
-0.0100625
-0.000404225
-0.00841218
0.00887532
-0.000742775
-0.00579476
0.00652906
0.000587436
-0.00653617
0.00595726
-0.00569932
0.00731648
0.0073626
5.78537e-05
-0.00757034
0.00757125
-0.00890713
0.00280506
0.00221849
-0.0050216
0.00212602
-3.68478e-05
-0.00208917
0.00589319
0.00189099
-0.00029621
0.00549798
-0.00112541
-0.00576198
0.00688799
0.00239279
-0.000440938
0.00177029
-0.00254219
0.00278235
-0.00347265
0.000690378
0.00590308
0.000248088
-0.00621742
-0.00528429
0.00587942
0.00671238
-0.00117854
-0.00378733
0.00217046
0.00161711
-0.0079205
0.00333134
0.00459914
0.000439921
0.00511055
-0.00570295
-0.000257929
-0.00579419
0.00584329
0.00706007
-0.0081823
-0.00696493
-0.000452663
0.00167064
-0.0113516
0.00965852
-0.00254777
0.000337536
0.00221041
-0.00519752
0.00784055
-0.0020105
-0.00531497
0.00660298
-0.00107642
-0.00664756
0.00179809
0.00486627
0.00135331
0.0014833
0.00152126
0.00167853
-0.00210383
0.00347878
-0.0038287
0.00182134
0.00756526
0.0023742
-0.00991367
-0.00243863
0.000828671
0.00160998
0.00340101
-0.00198902
-0.00141187
0.00116301
-0.00314569
-0.00055178
-0.00859923
0.00928884
0.00522385
0.00518353
-0.00455349
0.0044276
-0.000860599
0.00302699
-0.00190454
-0.00130415
-0.00473908
0.00604492
-0.00082179
0.00115098
-0.00080445
0.0006578
0.00826
0.00113863
0.00504041
-0.0062982
0.00689282
-0.00523047
-0.000649068
0.0111399
-0.00947909
-0.00204506
0.00153928
0.000315081
0.000468351
-0.000468351
0.000779663
-0.00332716
0.0043737
0.000103847
-0.00633759
0.00625907
0.00955836
-0.00851606
-0.000983407
-0.00158729
-0.00435652
0.00594968
-0.0038994
0.00420601
0.00692582
-0.00908879
-0.00248883
-7.65483e-05
0.00256538
0.00376004
-0.00138705
-0.00237298
0.00432301
0.000673102
-0.00500616
-0.000959835
-0.00694147
-0.00586918
0.000452604
-0.00848965
0.00806387
-0.000833096
-0.00624464
-0.00285966
-0.00171111
0.0045717
-0.000353007
0.000528079
9.11802e-05
-0.00199776
0.00351932
0.00374969
-0.00574336
0.00199493
0.0051868
-0.00132977
0.000462113
0.00232029
0.00607076
-0.00682162
0.00143427
-0.00013751
0.00034678
-0.00874512
0.00831434
0.000570628
0.00502218
-0.000275833
-0.00481519
0.00195678
0.00810513
0.00157473
0.00195475
0.00144631
0.000157601
0.00315761
0.00654063
-0.00549001
-0.00161538
-0.00257228
0.00184078
-0.00275659
-0.00772441
0.00625391
0.00627405
0.006948
0.000182174
-0.00672761
0.00190625
-0.00760021
0.00547368
-0.00363339
0.00576785
-0.00212452
0.00379043
-0.00328466
-0.00164728
0.00708704
-0.00538612
-0.00726638
-0.0017287
0.000673728
-0.000193564
-0.0004113
-0.00848351
0.000220778
0.0081387
0.00186168
0.00272428
-0.00702785
0.00687889
-0.00784835
0.00764153
-1.42048e-05
0.0040216
-0.0038515
-2.52252e-05
0.00500921
0.00438888
-0.00597098
-9.69204e-05
0.00605635
0.00611587
-0.00770916
-0.000739385
0.00231321
0.00453576
-0.000185974
0.0079981
-0.00182154
-0.00234308
0.00422002
-0.00187667
0.000478571
0.000316678
-0.000289775
0.0027175
-0.00150077
-0.0023824
-0.00787306
0.00759383
0.00547369
-0.000236012
-0.00462444
0.00229965
-0.00706101
0.000230277
0.00309189
-0.00897142
-0.00450312
0.0026566
-0.000872801
0.00100543
0.00347285
-0.0084366
-0.00756684
0.00789744
-0.00010557
-0.00637256
0.0073252
-0.0062381
0.00746267
-0.00103952
0.00310456
-0.00102592
-0.00781493
0.00369841
0.00116286
0.00743167
0.000107914
-0.0036723
-0.00111625
-0.00771785
0.00883751
0.00917409
-0.00223741
0.00880607
-0.000583143
0.000440576
-0.00684111
0.00167313
0.00519325
0.0114697
0.00054582
-0.0117476
0.00770589
2.44093e-06
0.000782749
0.000338623
7.08947e-06
0.00126224
0.0092157
-0.0104449
-0.00817874
0.00733012
-0.00430284
0.00560905
-8.20203e-05
-0.000593077
0.000216185
0.00316603
-0.000707989
-0.00040728
-0.00777818
0.00818593
0.00435439
-0.000603232
0.00267248
-0.000195909
0.00517758
-0.000653856
-0.00595224
-0.00228272
-0.00531009
0.00541349
-0.00456919
-0.0012607
0.00246337
-0.000349885
0.0110307
-0.00857883
-0.00271888
-0.00237821
0.0061656
-0.00378121
-0.00501082
0.00581135
0.00014278
-0.00425667
0.000340838
0.0047274
-0.000594419
-0.00551586
0.00361013
-0.00527081
0.00165968
0.00279135
0.00268656
-0.0018407
-0.00139235
0.00156353
0.00425681
0.00522766
-0.00112436
0.0073164
-0.00618501
0.00239316
-0.00122278
0.00423688
-0.00192543
-0.00212748
-0.00445376
0.00657684
-0.000298248
-0.00755295
0.00809532
0.00335057
-0.00624462
-0.00453218
0.00251818
-0.00266289
-0.00328363
0.00596585
-0.00800903
0.0110257
-0.00306677
0.00781373
-0.0024178
-0.00501434
0.00211598
-0.00317878
-0.00800069
0.00727904
0.00040527
0.00303601
-0.00544356
-0.00536182
0.00163021
0.00373582
-0.00675373
-0.00107046
0.00152686
-0.00450285
0.00809375
-0.00885395
0.000848921
0.00203767
0.00105147
-0.00308923
-0.00876529
0.000156685
-0.00150828
-0.00147164
0.00297993
-0.00239221
0.00457824
-0.00218312
-0.00726562
0.000631154
0.00252183
-0.0044572
0.00745967
0.000989281
-0.0017721
-0.00201492
-0.00121504
0.00827253
-0.00676984
0.00765348
-0.00717233
-0.000443351
2.4699e-05
-0.00377146
0.00645697
-0.00632772
0.00266928
0.00585715
-0.00752063
-0.0027877
0.00774391
-0.00500809
0.00144488
0.00756474
-0.00895909
0.00639945
-0.00622099
0.00540405
-0.00803637
0.0049039
0.00315395
-0.014153
0.00566284
0.00862233
0.00727214
0.000473118
0.00071118
-0.000501978
-0.000310315
0.00140263
-0.000516894
-0.00197195
0.00372676
-0.00490179
0.00117354
0.00658525
-0.00871518
-0.00542325
0.000140093
-0.00825162
0.000352416
-0.0104505
0.0101344
0.000471595
-0.00432799
0.00737575
-0.00135133
-0.00212114
-0.00730921
0.000138832
-0.00014166
-0.000279787
-0.00142704
-0.000928577
0.00235562
0.0021197
-0.00361109
-0.00769961
0.00017763
0.000591629
-9.40347e-05
-0.000702417
0.00301019
-0.0107524
0.00781958
0.00112001
-0.00107013
1.32419e-05
0.00311015
0.00334927
0.00925828
-1.6428e-05
0.00662399
-0.00844145
0.00186581
0.000314736
0.00679685
-0.00709311
1.97785e-05
-0.00250978
-8.34562e-05
-0.00209295
-0.00235795
0.00118843
-0.000523037
0.00081788
7.85837e-05
0.00481831
-0.00201189
-0.00143904
-0.00445963
0.00569798
0.00306236
0.00514921
-0.00810679
0.00239843
-0.00216446
0.00547015
-0.00629701
0.00211317
-0.00453223
0.00242076
0.00905297
-0.00850098
-0.00015179
-4.50836e-05
0.000183746
4.1398e-06
-0.00800288
-0.00142996
-0.00367522
0.00581133
-0.00213753
0.000138963
0.00304327
0.00698069
-0.000830265
-0.00549454
0.00607734
0.000391145
-0.00120688
0.00141274
-0.00620362
0.00190884
-0.00341709
-0.00147245
0.00799224
2.07668e-05
-0.000909102
6.46558e-05
-0.00563616
-0.00140151
0.00100217
0.000205309
-0.00113819
-0.00494733
0.0080053
-8.0562e-05
-0.00844672
0.0085225
0.00278377
-0.00706538
-0.00133528
-8.79722e-05
0.00097937
-0.00446215
-0.00209939
-0.000483763
0.000323415
0.00153361
0.00941154
-0.0109045
-0.00198911
-0.0047236
0.00681405
-0.00504925
0.0048892
0.00016405
0.00213589
0.00371513
-0.00584682
-0.0100039
0.000785327
0.00120706
-0.000979925
0.00538111
-0.00258756
0.000560062
-0.00881574
0.00842573
-0.00814115
0.000336255
-0.000672457
-0.000276133
-0.000346603
0.00302699
0.00340361
0.00197911
-0.0075732
0.00842314
-0.00228104
0.00439608
-0.00571012
0.00046092
0.00525562
-0.00622284
-0.00157246
0.00780403
0.00882343
-0.007716
-0.00108611
-0.000895765
-0.00167645
0.00913014
-0.000152746
-0.00195314
0.00507044
0.0027719
-0.00171923
-0.00105261
0.00300631
0.00181376
0.00268021
2.53559e-05
-0.00270492
-0.00171953
-0.00363851
0.005257
-0.00939044
0.00452648
0.00250445
-0.000378434
-0.00774535
0.00588641
0.00118342
-0.000780993
0.00378851
0.00148781
-0.000310473
0.0020031
-0.00714078
-0.000536779
-0.00540921
0.00506027
0.00036216
0.003959
0.00257394
-0.00654006
-0.000991835
0.00234507
0.00194947
-0.00339522
0.00144581
0.00341892
-0.00804559
-0.00556334
0.000175865
-0.00041134
-0.00529664
-0.00453664
0.00131076
0.00322634
-0.00789649
-0.0057485
0.00407837
0.0017269
0.00933308
0.00629091
-0.000762862
-0.00529449
0.000268417
-0.00726786
0.00212909
-0.00336231
-0.00444265
0.00210714
-0.00277389
0.000950876
0.00182301
0.00913322
-0.00828759
-0.00668134
0.00757474
-0.00112398
0.00316153
-0.00239161
0.00422704
-0.0018359
-0.0080258
0.00842359
-2.07854e-05
0.00669361
-4.64191e-05
-0.00662148
-0.00522706
0.0076222
-0.00245839
1.97601e-05
0.00424804
-0.00786047
-0.00846781
0.00403704
0.00157756
0.00210493
-0.00444749
-0.000702516
0.00265208
-0.00273426
-0.000232634
-0.008961
-0.00416752
0.00207721
0.00209104
-0.00129785
-0.00650846
-0.00487086
0.00136816
0.00744224
-0.00427804
-0.00587114
0.0042906
0.0023472
0.00697307
-0.00930009
0.000701432
0.012802
-0.00922341
-0.00346088
0.000245347
-0.00898418
0.00801681
-0.00172267
-0.00629702
0.000125894
0.000802907
0.00450256
0.00351397
-0.00627628
0.00414191
0.00214045
-0.00114869
0.00502242
-0.00386888
0.00129622
0.000256344
-0.00146252
4.55341e-05
6.42418e-06
-0.000343665
0.00821556
-0.00141054
-0.00662707
-0.00491861
0.000265508
0.00482374
0.00297282
0.00058603
0.00699067
0.00388187
-0.00628321
0.000584211
-0.00611743
0.00374485
0.000299488
-0.00131461
0.000345978
-0.00562347
0.00391339
4.92194e-05
0.00479532
-0.00559114
0.00184941
0.000922542
-0.00020986
0.00720066
-0.00685901
-0.00609344
0.00617765
-8.31766e-05
0.000727183
-0.00515292
0.00276279
0.00377386
-0.000833474
-0.00236415
0.00198978
-0.00118042
0.00107072
-0.00669713
0.00264637
-0.0102537
-0.000461109
0.00816336
-0.00707696
-0.00104949
-0.000826834
-0.00283693
0.003662
-0.0025407
0.00601057
0.00656901
-0.00478555
0.0033092
0.0014745
0.0068359
0.00191918
0.00167677
-0.00168694
-0.00310141
-0.00038988
0.012012
-0.00707864
0.0034323
0.00557512
-0.00856313
0.00624536
-0.00841086
0.000631288
-0.00426004
-5.35391e-05
0.00431253
-0.00181877
0.00184121
-0.0031502
0.001309
0.00749419
-0.00859729
-0.000193743
0.00742384
-0.00800362
0.000697471
0.00789367
-0.00589475
0.00119917
0.00494519
-0.0101118
-0.00390688
0.0102434
-0.00800235
-0.00177597
-0.00143575
0.00321152
0.0073441
-0.00741326
0.0023234
-0.00190726
-0.00262246
0.0074907
-0.00720424
0.000994627
-0.00939946
-0.000696695
-0.00275686
0.00120477
0.00155209
-0.00053174
-0.00789417
-5.67071e-05
-0.0017981
0.00124944
0.00308951
-0.00423423
0.00225467
-0.00196342
0.00188932
0.00561446
0.00030877
0.00641705
-0.000759173
0.00163768
0.00277277
0.00715588
-0.00473829
-0.000188696
0.00492956
-0.000184007
-0.00993129
0.0102227
-0.0031942
0.00599765
0.000352199
-0.00795709
-0.00986814
0.000520194
0.00556972
-0.00343103
0.00261877
0.000692711
-0.00331139
0.00658243
-0.00582772
-0.000744663
5.14243e-05
-0.000196994
0.00459053
-0.00565431
0.0010888
-0.00405291
0.00626472
-0.00219652
0.0077744
-0.00477223
-0.00122914
0.00601086
-0.0013957
0.00778277
-0.00617946
0.000366339
0.00884749
0.00224301
-0.00272887
-0.0011136
0.0014518
0.00641424
-0.000206316
0.000863517
-0.00577292
0.00490855
-0.000749209
0.00133778
-0.00233984
-0.00614101
0.00852485
-0.00204749
-0.000596113
0.00264371
-0.000445263
0.000202139
-0.000653247
0.00221442
-0.00307487
-0.00336411
0.00731863
0.00493116
-0.000621021
-0.00584943
0.00679702
0.0060037
-0.00602212
-0.000245127
0.00286405
-0.00188246
-0.000643761
0.00872156
-0.000394032
-0.00827514
0.00886666
-0.0111518
0.00746322
-0.00840644
0.000978397
0.00241776
-0.00224117
-0.000176588
0.000114747
-0.00415763
-0.00678828
0.00655365
-0.0037823
0.00632125
0.00795816
0.00532173
0.00648376
0.00645809
-0.000436478
0.00311722
0.00834005
-0.000842731
0.0102246
-0.00894094
3.22375e-05
-0.000222274
-1.48593e-05
0.00197656
-0.00287801
0.00570732
-0.00744428
0.00619511
-0.00586966
2.21549e-05
-0.00710118
-0.000410291
-0.00390033
0.011963
-0.00787586
0.00244941
-0.00273919
0.00369917
0.00216216
-0.00586781
-0.0064138
-0.000983402
-0.000932676
0.000251698
0.00497005
-0.00691723
0.00927987
-0.0042148
0.00211041
0.00210578
0.00284953
-0.00071005
-0.00213951
0.0112624
-0.00149122
-0.00942553
0.00338665
0.00189778
-0.00286565
0.000967539
-0.00474719
0.00618298
0.000959864
-0.0016208
0.00416031
-0.00701051
0.00255889
-0.000840454
1.06806e-05
0.000979515
-0.00613617
0.00607813
0.000130627
0.000597256
0.00316278
-0.000326446
-0.00277633
5.62173e-05
0.000395006
-0.000937876
-9.36594e-05
-0.00375579
0.00918848
-0.00796362
-0.00120628
-0.000176848
-0.00467504
-0.00851425
0.00910156
0.00487167
-0.00617286
0.00212223
0.00191895
-0.00404178
0.00300972
0.00334257
-0.000734902
-0.00612568
-0.00127789
0.00158371
-0.00808667
0.000904092
-0.00535427
-0.000798226
0.00622085
0.00588031
-0.00585769
3.30521e-06
0.0065111
0.00657576
0.00389547
-0.0073155
0.00349106
0.0058396
-0.00152719
0.000507208
-0.00745193
0.00552908
0.00266475
0.00392018
0.00697624
-0.00250191
0.00149345
0.00100847
-0.00236071
-0.00393876
0.00632847
-0.00781973
-0.00065658
-0.0081024
0.00354027
0.00455136
-0.00118065
0.00243469
-0.000996324
0.00567892
-8.92578e-05
-0.000398265
-0.00685998
0.00762439
-0.00427905
0.00577069
-0.00148111
0.0062467
-0.00225871
0.00207793
0.00512936
0.0080246
0.00201913
-0.00984288
0.00360958
-0.00296859
-0.000565476
0.00744411
-0.000730263
0.000336065
-0.00232544
-0.00300355
0.0053316
-0.00853582
0.00322622
-0.00377742
0.00420725
-0.000590391
0.000704539
1.96648e-05
0.000326606
-0.00567203
0.00535044
0.00556468
0.000399031
-0.00589697
-0.0115771
0.0012765
-0.000465825
-0.00753845
0.0081264
-0.00029654
-0.00713342
0.000188258
0.00342069
-0.00277703
0.00134999
0.00770765
-0.00740088
-0.00493543
-0.00316315
-0.00881901
0.000595302
-0.00905196
-0.00280881
0.00191314
0.000477009
-0.000867322
-0.0064307
0.0074024
0.00743633
0.00170458
-0.00902068
-0.0014995
0.00186977
-0.00277573
0.000905958
0.00665743
-0.0067049
0.0012473
0.00627103
-0.000245145
0.00790154
-0.00079872
-0.00701624
0.00354912
0.00497619
-0.0084911
-0.0016866
-0.0012917
0.00265548
0.00810529
-0.00204215
-0.00248732
-0.00330729
0.00125996
0.00273572
-0.000688717
-0.000515215
0.00424021
-0.00118764
-0.00131426
-0.000194709
-0.00414078
0.00604693
-0.00190042
0.00338476
-0.00162986
0.000569038
-0.000464395
3.8564e-05
-0.00976322
0.00048593
-0.00224319
0.0027218
-0.00224974
-0.0036158
0.000558137
-0.00725907
-0.00136018
-0.00178989
0.00614345
-0.00725949
0.00595264
-0.000762932
-0.00517388
0.0127435
-0.0108166
-0.00186773
-0.00204934
0.00423204
-0.00218142
-0.00184492
0.0022896
-0.000444677
0.000868149
-0.00293675
0.00206862
0.00731045
-0.00860069
0.00134095
-0.00881166
0.00826271
0.00061241
-1.50456e-05
-0.000643779
-0.0014972
-0.00211484
0.00664983
-0.00081902
-0.00538979
-0.000706707
0.00284761
-0.00214117
0.00226165
0.00326525
0.00460164
0.000420995
-0.00501724
-0.000196551
-0.0029647
0.00316228
0.0029505
-0.00418391
-0.00928128
0.00194832
0.0115681
-0.0091464
-0.00227475
3.91268e-05
-0.00187439
0.00200301
-0.00807711
0.00616605
-0.00148399
-0.00160983
-0.0017363
-0.00130362
9.1801e-05
0.000680544
6.40036e-05
-0.00230456
6.91522e-05
0.00223537
-0.000891741
-0.00636294
0.00564498
-0.00195457
0.00407574
0.00335885
-0.0041877
-0.00149224
0.00484998
-0.00539911
0.00495144
0.00680686
0.00685768
0.000964878
-0.00770037
-0.00729816
0.0065295
0.00193367
-0.00135847
-0.000421234
0.00574716
-0.00569413
0.00230485
0.00119011
-0.00349467
0.00236655
-0.000460247
-0.00295627
0.000122954
-0.00569587
0.00655022
-0.00476117
-0.0017786
8.65733e-05
0.00385117
-0.00609489
-8.18511e-06
0.00701339
-0.00684878
-0.00332874
0.0016267
0.00258119
-0.00386907
0.00128864
0.00206042
-0.00483626
0.00277772
-0.00810408
-0.000983856
-0.000132092
0.00101889
-0.0075036
0.00766423
-0.00101711
2.35997e-05
0.00928896
-0.00764067
-0.00215277
-0.00546105
0.000702291
-0.00533755
0.00729624
-0.00808351
0.00879742
0.0004741
0.0072016
-0.00758177
0.00201964
-0.00272968
-0.0100481
0.00900653
0.00120726
0.000757323
-0.00778437
0.00690019
0.00120013
-0.0035919
-0.006777
0.00659642
-0.00231404
0.000508755
0.00546525
-0.00081617
-0.00744033
-0.00239753
-0.00501346
0.00751325
-0.00209488
0.0021019
-7.02456e-06
0.00547781
0.000439487
-0.00234388
3.93112e-05
0.00460552
-0.00121375
-0.000216239
-0.00680778
0.000584425
0.00927139
-0.00127604
-0.00792949
-9.20386e-05
-0.000268118
0.0035554
-0.00396547
0.00912873
0.000905542
-0.00956863
0.00187636
0.00161771
-0.00349355
-0.00781026
0.000822499
-0.00881049
0.00871881
0.00716471
-0.00629782
0.0051033
-0.00168673
-0.00284877
-0.0102235
0.00746167
0.00315216
-0.00599685
-0.00478508
0.00117235
-0.000156222
0.00312744
-0.00350616
0.00037867
-0.00584423
0.000158345
0.00569277
0.00574917
-0.00923149
0.010889
0.0076869
-0.00730968
-7.44773e-05
0.00201435
-0.00275374
0.00138516
0.00276641
-0.00415157
-0.00328549
-0.00233666
-0.0013483
0.00217699
-0.000343526
-1.11405e-05
0.00123249
0.00540762
0.0017246
0.00637758
0.000152174
0.00209084
0.000860752
-0.00938186
-0.00420461
-0.00196332
0.00616147
-0.000610025
0.00823761
0.0024461
-0.0115151
0.00909106
0.00665664
-0.000870866
0.000879608
4.67012e-05
-0.00111508
-0.00331247
-0.00514923
0.00548058
-0.000788963
-0.0049586
0.00202708
-0.00077261
0.00134109
0.000928945
0.00384654
0.00391508
0.00627859
0.00377501
-0.0031088
0.00142218
0.00131357
-0.00103686
-0.00661928
-0.00273986
0.00120176
0.00153812
-0.00275895
-0.000269062
0.0027824
-0.00843239
0.00129858
0.0067632
-0.00684246
-0.003157
-0.00171013
-0.000614027
0.00553477
0.00048329
0.00736648
0.000609692
-0.00792868
0.00585032
0.0011159
0.00613531
-0.0072335
0.000101114
-0.00658321
0.00393779
-0.00213574
0.00445117
0.00408983
-0.00352002
-0.000570279
0.00221208
-0.0102505
0.00030618
-0.00393037
0.00362439
0.00245302
-0.00263348
0.00843889
-0.00755701
-0.000834217
-0.00124091
-0.00310813
-0.00528819
-0.000978026
-0.00842138
0.0098346
-0.00136741
-0.00820163
0.00765359
0.00664267
-0.00044479
0.000359427
-0.00371401
0.00723994
0.00219242
0.00526453
0.00947631
-0.00909017
-0.0009413
-0.00986963
0.0113783
-0.00918897
0.00710751
0.00203076
-0.0067982
-0.00322484
0.0014486
-0.00166199
0.00983027
-0.00844365
-0.000144837
0.0087915
-0.00459051
-0.00494446
0.000912962
0.00451505
-0.0081989
0.0081718
0.000195212
0.00748436
0.000622377
-0.00808084
0.0027505
-0.00471874
0.00196987
0.000592683
-0.00485359
-0.00630995
0.000179028
-0.00560259
0.000310743
-0.000526527
0.00207196
-0.00317608
0.0011044
0.00593001
0.003333
-0.00925374
-0.00165264
-0.00116782
0.00282047
0.00737296
-0.00359358
-0.00377144
0.000416658
0.00364266
-0.00118164
0.00812781
-0.00895115
0.000944533
0.0015659
0.0016475
-0.00321321
0.0026001
-0.000730371
0.00701817
-0.0020943
-0.00305455
-0.00728751
0.000557656
0.010993
-0.0112912
0.000474545
0.00120438
-0.00370478
-0.00154997
0.00235562
-0.000805644
0.00129612
0.00754964
-0.00874929
-0.00912244
-0.000560039
0.00074013
0.00363512
-0.0017376
0.00537523
-0.00331396
-0.00206375
-0.00855759
0.000313642
0.00782483
-0.00437417
0.00523745
-0.00173676
0.00725545
-0.00547831
0.00734123
0.00113315
0.0022546
-0.00296156
0.00175114
-0.00503533
-0.00414885
0.0136146
-0.00934121
-0.00455254
0.00305817
0.00476691
0.000305253
0.00698118
-0.0023832
-0.00460532
0.00128791
0.00280191
-0.00181148
0.00683318
-0.000216819
-4.84692e-05
0.00839545
-0.00231963
0.0056777
-0.0040153
0.0031264
-0.00224303
-0.000883382
-0.008891
0.00419872
-0.00137559
0.00366103
0.000308388
-0.00436618
0.00405757
-0.000120798
-0.000924076
0.00162191
-0.000494226
-0.00199756
0.00179189
0.000166926
-0.00195882
0.00389265
-0.000166753
0.00226541
-0.000368931
0.00067738
-0.00995845
0.00141449
0.00610815
-0.000168032
-0.00201469
0.00415159
-0.00213861
0.00322518
-0.000643362
-1.51403e-05
0.00591461
0.00140163
-0.000914514
0.00573229
-0.00293183
-0.00190223
-6.41713e-06
7.65622e-06
-0.0024131
0.00935889
-0.00691831
0.00116942
-0.00154735
0.00750711
-0.00599209
0.000888299
-0.00982502
-0.00363827
-0.00213617
0.00577532
0.00153834
0.00873362
0.00239225
0.00458152
-0.0028899
0.00883184
-0.00168167
0.00165568
0.00011433
-0.00526161
0.00119708
0.00407246
-0.00054486
0.00963238
-0.00207749
-0.00105181
0.00319139
-0.00128254
0.00606007
0.001565
0.004698
-0.00588067
-0.0102436
0.00989489
-0.00246012
0.00429199
-0.0132124
0.00431404
0.00903759
-0.00235517
0.000500917
0.00185427