/*--------------------------------*- C++ -*----------------------------------*\
| =========                 |                                                 |
| \\      /  F ield         | OpenFOAM: The Open Source CFD Toolbox           |
|  \\    /   O peration     | Version:  v2012                                 |
|   \\  /    A nd           | Website:  www.openfoam.com                      |
|    \\/     M anipulation  |                                                 |
\*---------------------------------------------------------------------------*/
FoamFile
{
    version     2.0;
    format      ascii;
    class       volVectorField;
    location    "100";
    object      U_0;
}
// * * * * * * * * * * * * * * * * * * * * * * * * * * * * * * * * * * * * * //

dimensions      [0 1 -1 0 0 0 0];


internalField   nonuniform List<vector> 
9793
(
(0.968691 -0.018984 -2.35729e-20)
(-0.249404 0.0234425 2.05808e-19)
(0.994362 -0.00903814 2.01259e-20)
(-0.145317 0.0839204 -3.04742e-19)
(0.99995 -0.000531918 -7.72223e-21)
(1.26284 -0.0322933 1.13719e-19)
(1.16929 -0.217909 0)
(-0.0505659 0.160807 1.3112e-19)
(1.02595 -0.0288383 0)
(-0.0891625 0.000386467 1.94232e-19)
(1.00008 -0.00211404 0)
(1.00009 -0.00229662 0)
(1.00315 -0.00884538 -8.6848e-21)
(-0.258057 -0.510774 0)
(1.02035 -0.0151584 -6.04986e-21)
(1.04591 0.0299386 1.79886e-21)
(1.16756 -0.0381899 1.57724e-22)
(0.996584 -0.0105335 -9.64025e-21)
(-0.0267377 -0.543022 7.84968e-20)
(1.01359 -0.00195978 -2.80474e-21)
(1.01878 -0.00364845 -1.50031e-21)
(0.999996 -8.00532e-05 -7.9393e-21)
(-0.0763936 0.231196 -9.85152e-20)
(-0.0288546 0.152203 2.77735e-21)
(-0.123829 -0.496024 -7.11837e-20)
(0.934443 -0.0620114 -1.50229e-20)
(1.00029 -0.00466927 -1.19793e-20)
(1.00002 -0.000448099 -1.40638e-20)
(1.01359 -0.00216213 2.24737e-21)
(1.19987 -0.110925 0)
(-0.552668 0.0609223 -1.39935e-19)
(1.25391 -0.047294 -1.18749e-20)
(0.997526 -0.00595746 -7.77863e-21)
(0.998954 -0.0100569 0)
(1.00512 -0.000451355 5.31355e-21)
(1.08793 0.0020763 0)
(1.04587 0.0189856 8.10085e-21)
(0.923928 -0.00462082 7.69393e-21)
(-0.456225 -0.553037 -9.42475e-20)
(1.09701 -0.049229 0)
(1.18902 -0.109733 0)
(1.07978 -0.107429 -2.07113e-20)
(-0.289192 -0.296413 -9.82497e-21)
(1.00001 -0.000302377 1.3712e-20)
(0.993604 -0.00364614 -8.0538e-21)
(0.997223 -0.00349787 -6.94401e-21)
(-0.288578 0.181236 4.68312e-20)
(1.00001 -0.00021424 0)
(1.02351 0.000232172 0)
(0.996299 -0.0101528 0)
(1.08637 0.00567202 0)
(1.00543 -0.000543205 0)
(1.12445 -0.0120593 -1.23051e-20)
(0.999998 -0.00054179 0)
(0.922086 -0.125551 -5.39286e-21)
(-0.177222 0.0512913 3.95849e-20)
(1.0033 -0.00793028 0)
(1.21067 0.0884096 -3.49752e-20)
(1.02374 -0.000198191 0)
(1.00001 -0.000114319 -7.75476e-21)
(0.911031 -0.0237488 4.05054e-20)
(0.862813 -0.353343 -1.6747e-20)
(0.995769 -0.00855333 0)
(1.08562 0.048753 -6.03533e-21)
(1.00297 -0.00115715 0)
(1.02479 -0.0274999 1.91301e-21)
(-0.270267 0.0837374 0)
(1.06057 -0.0263683 0)
(1.04429 0.0225661 8.15233e-22)
(0.273568 -0.409395 0)
(0.983004 -0.012999 0)
(0.598137 0.0151976 3.0726e-20)
(-0.141257 0.206595 -4.93657e-20)
(0.870497 0.399599 6.92569e-21)
(0.557261 -0.273257 -3.59155e-20)
(0.999988 -0.000686882 -1.62098e-20)
(0.81936 -0.144705 8.26623e-20)
(1.05738 0.0155839 -7.8514e-20)
(0.996012 -0.00585294 0)
(0.999982 -0.000437212 1.8083e-20)
(0.803832 -0.147503 -7.42137e-20)
(-0.0100606 -0.539233 -4.78451e-20)
(1.16166 -0.0320203 0)
(0.993812 -0.0672906 -1.36851e-20)
(1.04641 0.0216759 -7.65201e-21)
(1.28753 -0.0950533 1.31475e-19)
(0.99997 -0.000603527 -1.78863e-20)
(1.12341 0.130034 3.57018e-20)
(-0.477798 -0.55369 1.92174e-19)
(0.846951 -0.333442 3.13449e-20)
(-0.143727 0.123986 -2.67682e-19)
(1.3818 -0.0616194 9.33915e-21)
(1.39614 -0.0756751 5.84379e-20)
(1.11819 -0.101625 2.16553e-22)
(-0.21057 -0.417438 3.71666e-20)
(0.998436 -0.0130717 0)
(0.583977 -0.264501 0)
(1.15923 -0.0616164 5.12069e-20)
(1.05448 -0.0515592 -7.38684e-22)
(0.99997 -0.000396312 1.91308e-21)
(-0.521448 -0.389702 1.56496e-19)
(1.11937 -0.0134817 -1.05283e-20)
(0.744629 0.468921 2.35234e-20)
(0.994074 -0.00351661 1.23751e-20)
(0.595365 -0.0836572 -9.13309e-20)
(0.720971 0.069026 8.9126e-20)
(0.869048 0.373353 -2.34813e-21)
(1.00501 -0.00626328 -5.14851e-21)
(0.995951 -0.00554268 0)
(0.999984 -0.000138657 -9.92948e-21)
(1.00009 -0.00100649 2.66333e-22)
(-0.0927542 0.198436 0)
(0.094725 -0.123824 2.93034e-19)
(-0.570471 0.0297577 0)
(0.983859 -0.0134143 2.32975e-20)
(0.999392 -0.00412359 1.11903e-20)
(1.03104 0.0213226 2.75423e-21)
(0.997575 -0.0041896 0)
(-0.248754 -0.046122 -8.51564e-20)
(0.996684 -0.00296122 2.42715e-21)
(0.497374 -0.0471717 1.55301e-19)
(1.13667 0.135453 -3.41791e-20)
(0.689466 -0.202142 8.90987e-20)
(1.13456 0.0187235 2.16976e-20)
(1.04792 0.0176207 -7.3452e-21)
(0.996842 -0.00289047 4.25297e-21)
(1.17789 -0.0533544 0)
(-0.502994 0.0653491 1.37447e-19)
(1.14026 0.282017 0)
(1.12289 0.290681 0)
(1.05464 0.000915575 -7.96498e-21)
(1.00809 -0.0119838 2.57737e-21)
(0.970419 -0.0198423 1.91925e-20)
(1.05318 -0.0231879 0)
(1.0829 -0.00284568 0)
(1.25704 -0.202919 0)
(1.34696 -0.0462906 -4.65015e-20)
(1.03266 0.0213449 0)
(1 -0.000481558 1.47137e-20)
(1.18358 -0.0246951 2.10148e-20)
(0.0234228 -0.519837 -8.63493e-20)
(1.0863 -0.0015241 0)
(0.989379 -0.0201527 4.57961e-21)
(1.11473 0.100109 -6.77206e-21)
(-0.233875 0.238986 0)
(1.21591 -0.485392 1.50046e-19)
(0.996823 -0.00238171 -1.70332e-20)
(0.526051 -0.298739 1.85456e-19)
(1.00794 -0.0123419 -3.08745e-21)
(0.996677 -0.00248291 1.61261e-20)
(0.999701 -0.00581643 4.98619e-21)
(0.0565251 -0.0931271 -1.99857e-19)
(1.05144 -0.0492673 3.76134e-21)
(1.00021 -0.00468556 -2.94628e-21)
(0.987983 -0.00635028 0)
(1.4322 -0.124023 0)
(1.17507 -0.0353561 3.47019e-21)
(0.995884 -0.00905936 8.26429e-21)
(1.25091 -0.0477969 -5.78119e-20)
(0.988224 -0.013163 0)
(1.12435 0.115862 -4.03779e-20)
(1.05689 -0.000141975 1.44469e-21)
(1.01877 -0.00404933 2.96899e-21)
(0.59731 -0.452049 8.53398e-20)
(1.03358 -0.00342411 8.62758e-22)
(1.18716 -0.0117344 -6.95212e-20)
(0.721041 0.468185 -6.06686e-21)
(1.03747 -0.00555018 -3.16699e-21)
(1.00496 -0.00571253 3.77652e-21)
(1.00001 -0.00172493 6.88038e-21)
(0.988402 -0.0197773 -1.677e-20)
(-0.375904 -0.00494332 -2.66344e-19)
(0.152099 -0.142945 2.87458e-20)
(-0.142954 -0.177732 7.6183e-21)
(1.00343 -0.00915709 9.43335e-21)
(1.2613 -0.0261813 -1.0254e-19)
(1.07169 -0.380924 0)
(0.559411 -0.554163 1.05456e-19)
(0.99572 -0.00667486 0)
(1.06044 -0.0208284 -4.02714e-21)
(0.686933 -0.0318195 1.35549e-19)
(-0.263902 0.185429 -5.58906e-20)
(1.13662 0.148521 4.58165e-20)
(0.99697 -0.00350254 8.05207e-21)
(0.998034 -0.00368816 -1.192e-22)
(1.00517 -0.00601088 4.01613e-21)
(0.811922 -0.16301 -5.38521e-20)
(-0.180917 0.186946 9.65192e-20)
(0.714502 -0.379523 -2.11831e-20)
(0.755245 0.47443 -2.67962e-20)
(1.02231 -0.026243 1.17719e-21)
(-0.103175 0.464616 1.1259e-19)
(0.406192 -0.167182 1.61366e-19)
(0.923642 -0.0265707 -5.0176e-20)
(1.02374 0.00228179 2.18905e-22)
(0.972313 -0.0507938 -4.0696e-20)
(0.180129 0.0862124 -2.67789e-20)
(1.01221 -0.00264668 5.09701e-21)
(0.996445 -0.0109427 6.25953e-21)
(0.999819 -0.0018609 -9.6525e-21)
(0.980886 -0.0136154 0)
(1.01987 -0.00237696 8.77172e-22)
(1.08837 0.0133848 0)
(1.06102 0.010728 1.05842e-20)
(-0.259273 -0.417721 0)
(0.984986 -0.00538601 1.63189e-20)
(1.08502 -0.0449737 -1.48209e-20)
(1.03774 -0.00417825 0)
(0.977001 -0.0296725 1.73333e-20)
(0.824783 -0.601245 0)
(1.17709 -0.0258123 2.45222e-20)
(0.0275735 -0.510056 0)
(1.01107 -0.00272724 2.72185e-21)
(0.217308 -0.443778 0)
(0.989568 -0.0680938 1.54584e-20)
(1.00998 0.0729342 4.80642e-21)
(1.02067 -0.0159799 3.54949e-21)
(1.25756 -0.187162 -2.51035e-20)
(0.99946 -0.00373772 5.29743e-21)
(0.756225 -0.0655824 -1.32876e-19)
(1.16638 -0.0612732 -9.18155e-20)
(1.02 -0.00269468 -7.10788e-22)
(0.384442 0.453946 1.71542e-20)
(0.184347 0.181508 5.56576e-20)
(1.11058 -0.101893 0)
(0.998087 -0.0145635 0)
(1.15417 0.0279613 8.57888e-21)
(0.520244 0.504859 4.9322e-20)
(0.772107 -0.0935073 -2.68829e-20)
(0.769903 -0.104704 -8.97716e-22)
(-0.371377 -0.301422 2.1603e-19)
(1.14906 0.2305 2.15394e-20)
(1.0162 0.0703488 -1.01281e-21)
(1.0878 0.0528482 0)
(0.412815 -0.14233 -1.45602e-19)
(1.01945 0.000957525 5.57532e-22)
(-0.1284 0.306146 8.7801e-20)
(-0.529902 0.0230219 1.67678e-19)
(1.01195 -0.00260343 -2.63961e-21)
(0.999856 -0.001368 2.9176e-22)
(1.16822 -0.122627 2.92182e-21)
(0.99173 -0.0152693 0)
(1.00007 -0.000926494 0)
(1.22063 0.123252 0)
(1.24502 0.107376 4.93949e-21)
(1.02313 -0.0277937 2.74536e-21)
(1.06197 -0.0190013 1.48234e-20)
(1.08954 -0.0449899 6.08344e-21)
(0.973806 -0.176079 -9.05121e-21)
(1.06177 -0.0106847 0)
(0.995652 -0.00627878 0)
(1.09941 -0.152407 1.24399e-20)
(-0.124122 -0.351817 -1.39039e-20)
(1.01944 -0.00300735 -1.23843e-23)
(-0.0723868 -0.0858326 2.71306e-20)
(1.00002 -0.000677383 7.25424e-21)
(1.00008 -0.00267854 0)
(1.00951 -0.000484925 -4.81101e-21)
(-0.201695 5.82472e-05 -1.82388e-19)
(0.994613 -0.00216704 3.4741e-22)
(1.46259 -0.100071 3.20505e-21)
(0.341808 -0.399494 1.35251e-19)
(1.00075 -0.00320385 1.13082e-20)
(0.99956 -0.00351619 0)
(1.31978 0.000475051 0)
(1.0095 -0.000272165 3.93856e-21)
(0.999943 -0.00115777 9.1445e-21)
(1.00975 -0.000265423 1.45929e-23)
(0.27341 -0.442866 -1.2999e-19)
(0.600467 -0.414601 0)
(0.946641 -0.0563682 0)
(0.935422 -0.556835 2.56829e-21)
(1.20843 0.0679134 8.80148e-21)
(0.728445 0.476725 0)
(-0.0431131 0.308814 4.01587e-19)
(1.03884 -0.00650021 1.68257e-21)
(0.0211684 -0.534028 -3.31828e-21)
(1 -0.000626023 0)
(0.515451 0.478266 -4.36895e-20)
(0.377951 -1.21917 1.07089e-20)
(-0.585092 -0.547242 0)
(0.517055 -0.0818911 -9.72462e-20)
(1.1592 0.218765 3.3375e-20)
(1.05413 0.00342042 -3.04426e-23)
(1.1544 -0.034508 0)
(1.05937 0.00893368 -1.05757e-20)
(1.02366 0.00333214 2.84184e-22)
(1.03746 0.00102314 -2.61154e-21)
(0.857044 -0.56893 -1.13712e-21)
(0.931337 -0.0654168 -7.10834e-22)
(0.999598 -0.00319405 -6.54857e-21)
(1 -8.70681e-05 0)
(1.01131 -0.00280541 -3.42413e-21)
(1.01159 0.000105295 -1.43061e-21)
(1.01946 -0.00339146 -1.82222e-23)
(-0.0369415 0.24623 0)
(1.00526 -0.00717655 -2.10835e-21)
(1.01862 -0.0152326 -4.32236e-22)
(1.0113 1.68873e-05 -8.64937e-22)
(1.00334 -0.00831691 -3.21459e-22)
(-0.0490221 -0.460896 6.78498e-20)
(1.23543 -0.46887 1.30621e-22)
(0.699753 0.0565242 -7.76937e-20)
(0.954892 -0.0180921 -3.17159e-20)
(1.1231 0.0952121 7.18671e-21)
(1.0107 3.58144e-05 0)
(0.897102 0.336798 2.46021e-20)
(-0.0427066 -0.0690785 2.58143e-19)
(0.994257 -0.00296953 -1.13978e-20)
(0.415732 -0.361682 -1.58337e-19)
(1.0884 0.0385151 0)
(0.993363 -0.00410279 0)
(-0.144509 0.0296601 -1.21236e-19)
(0.89794 0.360129 -2.57625e-20)
(0.997786 -0.00605622 6.97325e-21)
(1.10118 -0.160943 1.31832e-20)
(0.444587 1.1016 -9.09524e-20)
(0.981511 -0.0271582 -2.20013e-20)
(0.845026 0.0080236 0)
(1.01945 -0.0147685 6.65252e-21)
(0.976701 -0.0258765 -8.48521e-21)
(0.380873 0.328577 -1.40395e-21)
(0.92192 -0.182221 -2.52919e-20)
(0.998942 -0.00950768 6.91631e-21)
(0.996673 -0.00380357 1.41163e-22)
(0.957253 -0.017257 -1.38678e-20)
(1.1482 -0.380739 0)
(0.091933 -0.2151 0)
(0.994226 -0.00847404 -2.3939e-20)
(1.00519 -0.00656217 0)
(1.02457 -0.00596005 -9.87997e-22)
(-0.382794 0.00192705 2.36872e-19)
(0.0323845 -0.595191 -5.66238e-20)
(-0.141828 -0.039071 0)
(1.01931 0.000319515 9.22546e-22)
(0.924385 -0.195333 -2.33415e-20)
(0.840196 0.0167513 1.18941e-21)
(0.862623 -0.793122 -1.18561e-21)
(1.19153 0.0434687 3.57047e-20)
(1.01889 0.00219371 0)
(1.02072 0.00180905 2.69273e-22)
(1.02425 -0.00652907 1.13807e-21)
(1.14924 -0.0292467 -3.57905e-20)
(0.996807 -0.0330377 0)
(0.0100539 0.11395 -2.46643e-19)
(0.99876 -0.00457281 0)
(1.00961 -0.0111812 -1.33449e-20)
(0.801793 0.669927 1.08631e-19)
(-0.0303782 0.238553 0)
(0.191651 -0.464714 -1.00265e-19)
(1.01144 0.000119964 -2.65629e-21)
(-0.52308 -0.374251 -1.46799e-19)
(0.997112 -0.0773946 8.58489e-21)
(0.232118 -0.680702 0)
(0.0248317 0.134378 0)
(-0.338753 -0.299489 -2.15279e-19)
(1.00538 -0.0635997 -2.07008e-20)
(1.1006 -0.0523945 0)
(1.33209 -0.0598855 -4.43664e-20)
(-0.136551 0.10664 2.78691e-19)
(-0.12218 0.164937 9.95546e-20)
(0.910835 0.0106115 -3.01676e-20)
(1.00003 -0.000498179 -6.16753e-21)
(0.942106 -0.0565337 3.46493e-21)
(1.0224 0.000661755 0)
(1.00577 -0.00692094 -9.67418e-22)
(0.99604 -0.0315274 0)
(1.00048 -0.00515894 0)
(1 -3.42421e-05 0)
(0.121282 0.109226 1.91696e-19)
(1.00004 -0.00199766 1.0781e-21)
(1.17901 -0.0685194 0)
(1.09653 -0.03966 1.07689e-20)
(1.47854 0.202511 2.89048e-21)
(1.01864 0.00239432 0)
(0.996146 -0.0701643 1.47058e-20)
(-0.0823712 -0.0902123 -5.54995e-21)
(0.367745 -0.0393748 2.68686e-19)
(-0.407544 -0.568196 0)
(1.18432 0.0401334 0)
(1.00925 -0.0106854 1.34793e-20)
(1.00795 -0.0655647 7.54449e-21)
(0.994867 -0.00907543 -1.95233e-20)
(1.31994 -0.319545 1.10683e-19)
(1.01083 -0.000660293 0)
(0.189475 -0.481174 -1.65349e-20)
(1.01012 -0.433386 0)
(1.15925 -0.229294 0)
(-0.235927 -0.0177652 0)
(0.490059 0.416625 -9.81863e-21)
(1.00056 -0.00248577 1.26409e-20)
(0.999117 -0.0144016 7.92281e-21)
(1.37488 -0.0550142 7.06208e-21)
(1.32842 -0.296665 -7.78369e-20)
(0.985233 -0.00465472 -9.97743e-21)
(-0.0852607 0.125307 -1.73075e-19)
(1.00059 -0.00266451 -8.39465e-21)
(0.999776 -0.00238178 5.17762e-21)
(0.48399 -0.90761 -1.83181e-20)
(1.01103 -0.00259244 0)
(1.21658 0.076764 -1.91768e-20)
(1.0197 0.00064573 -2.25647e-22)
(0.713156 0.479861 7.50336e-21)
(0.998873 -0.00436812 8.45996e-22)
(1.03347 -0.00239713 -1.34695e-21)
(0.788172 0.729746 -1.04745e-19)
(0.622729 0.0154063 -3.23188e-20)
(1.0119 0.103507 -7.66313e-21)
(0.923736 -0.0308269 -4.26834e-22)
(1.00101 -0.00366474 -1.0801e-20)
(1.00426 -0.0174664 5.32001e-21)
(0.651162 -0.21967 1.85044e-19)
(1.15594 -0.0697323 -5.00487e-20)
(1.01786 -0.00114162 0)
(0.999701 -0.00173164 0)
(0.912338 -0.124387 3.73227e-20)
(0.844508 0.0348334 2.33587e-20)
(1.00503 0.0984218 5.61489e-21)
(-0.186443 0.247923 0)
(0.999765 -0.00194678 0)
(0.998694 -0.0104322 0)
(0.674465 -0.500096 -3.88471e-20)
(1.00105 -0.00359252 1.03682e-20)
(-0.155931 -0.330499 0)
(0.608387 -0.55064 -1.13928e-20)
(0.997834 -0.00383277 -7.97584e-21)
(0.998068 -0.00636891 1.51416e-20)
(1.03702 -1.8114e-06 1.36744e-21)
(1.00072 -0.00297848 0)
(1.02393 -0.00514919 -4.63252e-22)
(-0.567752 -0.438673 9.10209e-20)
(0.754014 -0.0801582 1.34031e-19)
(1.35009 0.0193182 3.15432e-20)
(0.894232 0.0228422 -1.45384e-20)
(1.03771 0.0137139 0)
(1.13605 0.0125754 -7.38666e-21)
(0.927666 -0.0036341 2.31328e-20)
(-0.271178 -0.0471773 1.55945e-19)
(0.914874 -0.0271553 -2.08425e-20)
(0.999971 -0.000392183 7.64972e-21)
(1.06201 -0.0241068 0)
(1.24166 -0.429138 -4.80807e-20)
(0.985355 -0.015527 0)
(0.987343 -0.013252 0)
(0.981685 -0.0127691 -6.47212e-21)
(1.01068 -0.000679635 0)
(1.00006 -0.0076535 -9.66147e-21)
(1.01726 -0.0173604 0)
(0.997391 -0.00400687 -4.03813e-24)
(1.00043 -0.00209358 -3.86471e-21)
(0.981359 -0.0482178 -2.83706e-20)
(1.06037 0.00597537 5.93123e-21)
(1.21494 0.134753 -3.77547e-20)
(1.01071 -6.70759e-05 0)
(0.220184 0.110921 0)
(0.934595 -0.0514893 -1.42195e-20)
(1.02266 -0.464154 4.53754e-21)
(-0.0487444 0.329578 -2.33765e-19)
(1.02416 0.00294609 -1.79932e-22)
(0.825121 0.646587 -5.12725e-20)
(1.16492 -0.203565 3.83691e-20)
(1.02415 0.00185327 0)
(1.01084 -0.000965644 0)
(0.990284 -0.0219969 1.00192e-20)
(0.738608 0.234078 -1.28392e-19)
(1.21288 0.0574483 -9.82805e-21)
(1.01091 -0.000902648 0)
(0.999003 -0.00303788 8.09164e-22)
(0.999824 -0.00199433 1.66664e-20)
(0.722301 0.111879 0)
(1.06228 -0.410496 1.49383e-20)
(0.931807 0.0256289 0)
(1.00276 -0.0011463 3.09414e-21)
(0.987999 -0.0057003 1.20428e-20)
(0.873963 -0.0490933 -1.89611e-20)
(-0.323154 0.148329 0)
(-0.611297 -0.555555 -4.81577e-20)
(0.946487 -0.0303822 -1.47055e-20)
(1.04793 0.00298202 5.80193e-21)
(0.0669652 0.0368363 -3.6229e-19)
(1.21664 -0.0367886 3.07843e-20)
(1.32777 0.181228 0)
(0.984393 -0.0311454 6.87835e-21)
(1.00884 -0.0116369 -5.24746e-21)
(-0.288487 -0.450733 0)
(0.997036 -0.0128621 1.59939e-22)
(1.09889 -0.373387 0)
(1.3813 0.0823744 1.19521e-19)
(1.01739 -0.00102885 1.25843e-21)
(0.634789 -0.402339 0)
(1.07891 -0.0405404 -1.16206e-20)
(-0.383982 -0.215678 1.67814e-19)
(1.00439 -0.0169067 -4.96103e-21)
(-0.0614253 -0.540581 0)
(1.26248 -0.0505348 0)
(1.04663 0.0272117 0)
(1.29857 -0.00533285 0)
(0.997976 -0.0128613 0)
(0.897634 -0.743593 1.10959e-21)
(0.998715 -0.00409033 1.49198e-20)
(1.00004 -0.0141488 0)
(1.00002 -0.00157764 -8.68958e-21)
(0.996541 -0.00945608 0)
(0.488184 -0.315531 -1.25681e-19)
(0.998465 -0.0136021 1.92268e-22)
(1.02337 -0.00108735 1.88464e-22)
(0.957945 -0.0234928 -7.48503e-21)
(1.0195 4.69662e-07 1.0194e-21)
(1.00867 -0.0120388 0)
(1.0889 -0.17818 1.12082e-20)
(0.994355 -0.0514977 6.19103e-21)
(1.09049 0.0429663 -7.81225e-21)
(1.00185 -0.00388346 0)
(1.00171 -0.00379993 0)
(-0.105183 -0.130773 0)
(0.660671 0.0205747 -5.69559e-20)
(0.948914 -0.0294105 1.18129e-20)
(-0.0494509 -0.0836707 3.39088e-19)
(1.05832 0.00421569 0)
(0.992283 -0.0358392 -3.16595e-20)
(0.994791 -0.00180853 -5.79221e-21)
(1.02423 -0.00464426 4.02562e-22)
(0.000345953 -0.0436371 -1.27835e-19)
(1.0231 -0.000672264 -5.60423e-22)
(1.00143 -0.000569243 -1.63449e-21)
(-0.469905 0.0764185 0)
(1.143 -0.104533 5.18531e-20)
(0.986376 -0.176823 1.45047e-20)
(1.0031 -0.00845298 1.03251e-20)
(0.999992 -0.000162997 9.40012e-21)
(1.03442 -0.0155427 -6.27926e-22)
(0.999987 -0.00119874 -8.79247e-21)
(-0.200592 -0.172667 -2.22266e-19)
(0.979792 -0.0274135 1.63067e-20)
(0.789506 0.464851 -8.15527e-21)
(1.04866 0.0137095 0)
(0.323633 0.443661 0)
(0.999972 -0.000598309 -9.21145e-21)
(-0.417472 0.094553 -7.971e-20)
(1.00721 -0.000211271 -5.71524e-21)
(1.17224 -0.394961 -1.76651e-21)
(0.996114 -0.0123085 -1.27896e-20)
(1.04972 0.182326 1.55563e-21)
(-0.0871129 -0.334812 1.63611e-20)
(0.998845 -0.00374088 8.52081e-21)
(0.846067 -0.135917 8.55976e-21)
(0.993577 -0.0142755 0)
(1.00015 -0.000125768 1.02782e-20)
(1.01822 -0.00331096 0)
(0.84107 0.00131337 7.30443e-20)
(-0.2656 -0.373389 5.97602e-20)
(0.989275 -0.021475 0)
(1.08306 -0.0407111 1.00175e-20)
(1.02264 0.000251938 0)
(0.0503409 0.0501396 2.61602e-19)
(1.01116 -7.81671e-05 0)
(1.10574 -0.148073 0)
(-0.0513989 -0.547379 0)
(0.921531 -0.00157019 -1.29935e-21)
(1.00192 -0.000938547 3.48094e-21)
(0.831366 -0.157963 0)
(1.00009 -0.000571004 8.86827e-21)
(1.03564 -0.0148119 0)
(1.0246 -0.00798792 0)
(1.19805 0.136518 3.46139e-20)
(1.00318 -0.00320052 4.01389e-21)
(0.292886 0.270292 0)
(1.00154 -0.00383673 5.18833e-22)
(0.999688 -0.0343131 -7.79611e-21)
(1.07968 0.0681279 7.95338e-21)
(0.794293 -0.267607 -4.59e-20)
(1.47517 0.141435 -1.35371e-19)
(1.01781 -0.0144901 1.89447e-21)
(-0.335204 0.106 -6.29379e-20)
(0.999566 -0.0145859 -9.62701e-21)
(1.08475 -0.43356 -6.98375e-21)
(0.98988 -0.00999554 0)
(1.0364 -0.00334495 2.69728e-21)
(0.99743 -0.01316 8.98324e-21)
(1.00149 -0.00390945 -5.21255e-22)
(0.999977 -0.00045564 7.35947e-21)
(1.07919 -0.457205 1.11536e-20)
(1.02206 0.0735004 1.03905e-20)
(0.764596 -0.133099 3.45553e-21)
(1.22814 -0.0687878 0)
(0.852469 -0.0713686 -2.35468e-20)
(0.93482 -0.139899 0)
(0.560559 -0.883515 -1.51178e-21)
(1.05586 -0.0232701 0)
(-0.33415 -0.279837 2.07952e-19)
(-0.045432 -0.611313 7.57537e-20)
(1.17178 -0.423279 1.84639e-21)
(1.42139 -0.0137965 -2.10222e-21)
(1.4779 0.115519 9.62909e-20)
(1.12121 -0.393729 4.60609e-21)
(1.03588 -0.0138147 -6.62165e-22)
(0.0620544 -0.187929 -4.27295e-20)
(1.07427 0.0700361 -1.28139e-20)
(1.03495 -0.00402091 -2.4913e-21)
(1.19645 -0.43763 -2.37865e-20)
(1.00006 -0.000493224 -1.07601e-20)
(0.905483 -0.58423 1.28589e-21)
(0.991223 -0.162368 9.06809e-21)
(1.32637 0.0471528 4.28748e-20)
(0.898464 0.0141119 9.3761e-22)
(-0.0150482 0.199732 -1.40004e-19)
(-0.185823 -0.203076 6.79119e-20)
(1.07967 0.0606669 1.24381e-20)
(1.31316 0.0584697 -4.50766e-21)
(0.99984 -0.00154271 1.21749e-21)
(1.11077 -0.570072 -5.74658e-21)
(0.953188 0.0043417 0)
(0.996294 -0.0119046 0)
(0.994291 -0.0314058 0)
(1.03 0.0171254 5.72387e-21)
(1.1482 -0.0696352 0)
(-0.409489 -0.35469 0)
(0.926689 -0.511419 -6.85626e-21)
(-0.244982 0.369672 0)
(1.05194 -0.0257811 -2.42324e-21)
(0.971832 -0.0534273 2.1118e-20)
(-0.375936 -0.232497 -2.60474e-19)
(0.429242 0.0991031 1.25364e-19)
(1.0468 -0.000114667 -5.14561e-21)
(1.17797 0.0256015 1.40471e-21)
(0.975937 -0.0309112 -1.18645e-20)
(0.246829 -0.794606 0)
(0.82962 0.728082 3.87253e-20)
(0.997787 -0.00409651 8.17452e-21)
(0.70374 0.0696026 0)
(0.698798 -0.459174 6.61153e-20)
(-0.108674 -0.379836 -1.94792e-19)
(1.00306 -0.00102003 -9.3804e-22)
(0.940265 -0.0626496 -2.99588e-20)
(0.396384 -0.196291 4.20389e-20)
(1.08354 0.0136517 0)
(0.878353 -0.140802 0)
(1.06343 0.186734 -3.45238e-20)
(1.49925 0.258196 4.3046e-20)
(0.967309 -0.0789865 -2.03433e-20)
(1.0575 -0.0261279 0)
(1.02289 -0.0216093 1.94672e-21)
(0.988613 -0.00680541 0)
(1.0954 0.330693 -1.78635e-20)
(0.999997 -0.000210026 -1.07784e-21)
(1.08865 0.347818 0)
(1.238 -0.0492865 0)
(1.12856 -0.253149 -2.02349e-20)
(1.00003 -0.000228797 -7.3993e-21)
(1.00014 -0.00109398 0)
(1.03628 0.0162495 3.53351e-21)
(1.02584 0.00724283 0)
(1.00549 -0.000808633 -6.19107e-21)
(0.991156 -0.0145868 0)
(1.2214 -0.0711853 0)
(0.834988 0.352199 1.22844e-19)
(-0.0229281 -0.464587 0)
(1.00001 -0.000277297 8.87848e-21)
(1.29162 -0.331768 0)
(1.00259 -0.00740555 0)
(-0.00285533 -0.584559 -3.21612e-20)
(1.11754 0.0669381 -2.34375e-20)
(0.802148 -0.110494 -1.27491e-19)
(0.847408 0.0257547 2.36179e-20)
(1.25902 -0.0491206 -5.36039e-20)
(1.00821 -0.00365587 -3.82511e-21)
(0.999699 -0.00610793 -5.16435e-23)
(0.846628 -0.153999 0)
(0.99645 -0.0129104 1.61513e-22)
(1.03301 -0.0153767 1.75501e-22)
(1.17941 -0.00853493 -4.68245e-20)
(-0.277817 -0.343897 0)
(1.02014 -0.00213356 1.00516e-21)
(1.12307 0.316809 1.74632e-20)
(-0.454806 -0.530919 -8.29424e-20)
(1.0641 -0.0123305 3.48522e-21)
(0.392094 0.360056 1.28138e-20)
(-0.341937 -0.498245 -1.98995e-19)
(1.01794 -0.0182224 0)
(1.16956 -0.0525676 -2.61654e-20)
(1.04812 0.0322038 -5.13006e-21)
(1.02098 -0.0262453 1.77955e-21)
(1.01769 -0.00350802 2.00393e-21)
(0.638449 -0.149923 -3.17869e-21)
(-0.499434 -0.522785 8.21301e-20)
(-0.23298 0.303079 2.29053e-20)
(0.984594 -0.0165082 1.19725e-20)
(0.996449 -0.00353423 -6.38927e-22)
(1.01708 -0.00656281 0)
(1.02859 0.0231324 -1.57548e-21)
(0.997181 -0.0508747 5.40438e-21)
(0.987635 -0.0645152 -5.24168e-21)
(0.532533 0.419115 0)
(1.11164 0.0719968 -1.71414e-20)
(1.00046 -0.00224692 4.22353e-21)
(1.24206 -0.0489401 -3.74296e-20)
(1.08998 0.00956769 -1.34562e-20)
(0.862429 -0.0728931 -9.29435e-21)
(1.03246 -0.0140563 0)
(-0.668615 0.0479714 5.94436e-21)
(1.05175 0.0040324 0)
(1.00389 -0.00237397 0)
(1.14162 -0.248568 -2.83209e-20)
(0.150604 0.0935932 -1.01217e-19)
(1.01838 -0.000988106 6.04095e-22)
(0.997437 -0.00374907 0)
(0.995275 -0.00850574 0)
(1.04418 0.0251788 0)
(1.00821 -0.00343029 0)
(1.0853 0.0591683 0)
(1.29394 -0.0654645 -2.94446e-21)
(1.00245 -0.0369254 0)
(1.19313 0.146939 0)
(1.04525 -0.00120883 0)
(1.03086 -0.0137527 0)
(1.48539 0.10876 -3.62783e-20)
(-0.00402666 -0.582529 6.52217e-20)
(1.29076 0.294618 0)
(0.99981 -0.0057091 -5.72677e-21)
(1.01902 -0.000609652 0)
(1.14883 0.531522 -5.18192e-21)
(0.919762 -0.0241779 3.90842e-20)
(1.11074 0.42243 0)
(1.01769 -0.000502969 1.25412e-21)
(0.992829 -0.014317 0)
(-0.547634 0.0290679 1.6324e-19)
(0.771937 0.460226 -5.90563e-21)
(1.09196 -0.0504548 6.11685e-21)
(1.21843 0.099303 3.82987e-20)
(0.706999 0.00910261 0)
(0.998602 -0.0148344 0)
(1.00002 -0.000186766 0)
(1.01785 -0.0263431 -4.41732e-21)
(-0.0899772 -0.531048 -1.17714e-19)
(1.00156 -0.000692539 6.53425e-21)
(0.999997 -4.13566e-05 0)
(-0.168324 0.0513634 9.70823e-20)
(0.903311 0.0148011 6.25451e-20)
(1.29366 -0.0833281 -2.10471e-19)
(0.854393 0.00870214 -4.5395e-20)
(1.00305 -0.00763989 -5.22894e-21)
(-0.000840098 -0.555376 -9.13963e-20)
(1.00002 -0.000518376 -5.50424e-21)
(0.991478 -0.0113867 8.70049e-22)
(1.0167 -0.0260324 0)
(0.944284 -0.116207 0)
(-0.114653 0.0616063 1.4626e-20)
(1.00015 -0.00281111 4.77013e-21)
(0.994185 -0.00224039 -3.61881e-22)
(0.996219 -0.0132656 0)
(0.998002 -0.0139482 -9.485e-21)
(1.00282 -0.00771201 0)
(1.02307 -0.0225971 0)
(1.37553 -0.0155302 -2.26055e-20)
(0.937864 -0.121741 0)
(0.980776 -0.0453038 0)
(1.00038 -0.00417617 0)
(0.928719 -0.117907 0)
(1.18151 -0.0484732 0)
(1.04288 0.0304151 1.76624e-21)
(0.894295 0.0185949 3.31037e-20)
(1 -7.66301e-05 0)
(1.01689 -0.00611981 2.73909e-21)
(1.01699 -0.0581363 -2.12432e-21)
(-0.191953 -0.359881 -1.22731e-19)
(-0.188357 -0.375527 0)
(1.03596 0.013188 0)
(-0.302473 0.32589 0)
(0.999811 -0.00146669 1.25717e-21)
(0.966356 -0.0739252 2.14433e-20)
(1.446 -0.268511 -1.08851e-19)
(0.156785 -0.179731 1.16263e-19)
(1.02107 -0.0136597 6.86395e-22)
(1.00007 -0.00243621 -9.76893e-21)
(0.443233 0.197513 -2.46617e-19)
(1.15271 0.0342368 -1.10554e-20)
(1.0041 -0.00241914 -4.17599e-21)
(0.999952 -0.000948679 0)
(0.294039 0.247549 0)
(1.00002 -0.00013852 0)
(1.18302 -0.120207 -3.97976e-20)
(0.997825 -0.00629523 -1.54544e-20)
(0.360333 -0.000342799 -1.70591e-19)
(0.999959 -0.00100636 -2.42703e-21)
(1.00762 -7.77057e-05 -4.5112e-21)
(0.999108 -0.00299513 0)
(1.07695 -0.0823432 -1.316e-20)
(1.02505 0.00696899 0)
(0.948143 -0.0509709 -2.26993e-20)
(0.914453 0.00864573 0)
(0.551877 0.0861191 4.12876e-20)
(1.00519 -0.00740458 3.25421e-21)
(1.00021 -0.00751963 -6.11713e-21)
(1.00006 -0.000335202 3.90888e-21)
(1.00045 -0.0143296 -1.3887e-21)
(1.03559 -0.0114099 0)
(1.02919 0.00114688 0)
(1.09921 -0.0439548 -3.45623e-20)
(0.99887 -0.00337333 -8.61431e-22)
(1.13171 0.0734354 3.74258e-20)
(-0.311342 -0.558034 0)
(1.14251 -0.0312914 5.14505e-20)
(1.18609 -0.0123142 -3.13449e-20)
(0.99978 -0.00179306 8.96583e-21)
(1.02491 -0.00730365 -1.33885e-21)
(-0.519981 0.0189527 -1.84952e-19)
(0.962406 0.525743 -2.34373e-20)
(1.01726 -0.00314636 -3.98832e-21)
(0.220303 0.199754 -2.5667e-20)
(-0.541072 0.0605 1.40325e-19)
(1.01934 -0.000698687 -4.29217e-22)
(0.994005 -0.00265262 -3.7029e-22)
(1.00322 -0.0121772 -7.27026e-21)
(1.19423 -0.196588 -9.85303e-20)
(1.13059 0.0807907 -3.47322e-20)
(0.138963 -0.137486 -1.14394e-19)
(1.00563 -0.00721553 -4.53679e-21)
(1.03775 -0.0714519 -7.21777e-22)
(1.0055 -0.00524181 7.25913e-21)
(0.975905 -0.0273412 4.9074e-22)
(1.00702 -0.00015619 0)
(1.11314 -0.281433 -2.40946e-20)
(1.03537 -0.0103298 -5.44717e-22)
(1.29068 -0.105135 0)
(0.999886 -0.00504714 0)
(0.957403 -0.264667 2.11446e-20)
(1.00452 -0.00700534 8.07808e-21)
(0.975339 -0.049403 2.19606e-20)
(0.990101 -0.0115223 1.54646e-20)
(1.0272 0.0686009 5.79774e-21)
(0.73754 0.112318 -4.33942e-20)
(-0.448504 0.0765373 -9.00975e-20)
(0.75061 0.392364 4.26517e-20)
(0.262311 0.249976 0)
(1.14799 0.0230934 3.72516e-21)
(0.992613 -0.0151544 0)
(0.586746 -0.817334 2.10319e-21)
(0.074187 -0.15319 -2.33709e-19)
(1.14323 0.0937234 -1.93758e-20)
(1.03285 -0.00995658 -8.47238e-22)
(1.00038 -0.00509261 5.63103e-21)
(0.173518 0.21901 1.31954e-19)
(1.00354 -0.01246 0)
(-0.119267 0.0852329 7.86278e-20)
(1.01976 0.00133948 3.52042e-22)
(1.06908 0.0345186 -8.6933e-21)
(1.03713 -0.00862869 2.83195e-21)
(0.999976 -0.000259403 -1.2507e-20)
(1.02123 -0.0145848 0)
(1.03806 -0.133716 -6.35585e-20)
(-0.0491477 -0.476163 8.48111e-20)
(-0.122416 0.128763 1.32799e-19)
(0.678177 0.0276184 2.783e-20)
(-0.451392 0.00770895 -1.66932e-19)
(0.996353 -0.00903344 -9.43317e-21)
(0.568512 0.204788 1.61194e-19)
(0.665197 0.0925813 3.89487e-21)
(1.00002 -9.61942e-05 0)
(0.9987 -0.0329732 0)
(1.00944 -0.00457499 0)
(1.48208 0.268669 -2.9266e-20)
(1.01697 -0.00122628 -1.69743e-21)
(-0.179467 0.252707 -1.34301e-20)
(0.866664 -0.0554544 5.93563e-20)
(1.24856 -0.0189354 0)
(1.01399 -0.037841 0)
(1.39217 -0.338724 2.22706e-19)
(0.144209 0.247586 2.95356e-20)
(0.171934 0.00722478 1.17818e-19)
(0.958755 -0.112507 1.25157e-20)
(1.10622 -0.0280686 0)
(1.00176 -0.00099348 0)
(0.376 -0.167344 3.8962e-21)
(1.01709 -0.000199227 1.39579e-21)
(0.413818 0.293912 0)
(1.26785 -0.0345683 -5.25892e-20)
(0.838033 -0.267285 -4.81217e-20)
(0.711554 0.00717855 4.0729e-20)
(0.331548 -0.391764 -1.43713e-19)
(1.05911 -0.0118742 -8.21361e-21)
(1.02258 -0.0565678 -2.66947e-21)
(1.00331 -0.00346555 4.51052e-21)
(1.02442 0.192035 -7.24763e-21)
(-0.0529643 0.190225 -8.24905e-20)
(-0.306619 -0.022494 1.38049e-19)
(1.00886 -0.00449722 0)
(0.223477 0.615736 9.35898e-20)
(1.04089 0.0283546 -1.18497e-20)
(1.23831 0.121922 -5.44337e-21)
(0.578248 0.0898771 9.03203e-20)
(-0.316606 -0.389781 0)
(-0.25269 -0.401965 -8.95888e-20)
(1.02041 0.00214604 -5.67421e-22)
(0.932026 -0.0553215 -1.15626e-21)
(1.08929 0.0212642 -1.37166e-20)
(1.04726 0.0151488 0)
(1.03638 0.0178582 -2.32461e-21)
(-0.108907 -0.356605 0)
(0.999855 -0.00204429 0)
(0.980384 0.0863688 1.12409e-21)
(1.01125 1.12529e-05 8.91788e-22)
(1.01979 0.00204086 7.50183e-22)
(1.17343 -0.181759 0)
(1.23405 0.0966895 1.23299e-21)
(1.45149 0.292942 6.40753e-20)
(1.04257 -0.0202068 2.73365e-21)
(0.744185 -0.370328 1.82144e-19)
(1.34158 -0.145574 0)
(1.39336 -0.220868 -6.84953e-20)
(0.906842 0.00891939 -8.86731e-22)
(1.00011 -0.00052771 -4.82359e-21)
(1.04164 -0.0217495 0)
(1.00014 -0.000545984 1.13441e-20)
(0.988788 -0.0124679 0)
(1.40023 -0.248618 1.72868e-19)
(1.09128 0.401741 0)
(1.02751 -0.0287336 -2.73116e-21)
(0.989212 -0.0104071 -1.6839e-20)
(1.08933 0.029633 1.40663e-20)
(0.197478 -0.185617 0)
(1.03157 -0.0798313 2.93829e-21)
(0.989129 -0.0042221 -7.16438e-21)
(0.393826 0.0889816 -6.94625e-20)
(0.995509 -0.00967528 -8.5384e-21)
(0.999988 -0.000158536 1.16243e-20)
(1.01752 -0.000230118 0)
(1.11456 0.110725 1.44742e-20)
(0.996941 -0.00379803 -1.36719e-22)
(1.05287 0.017158 -8.41027e-21)
(-0.0453315 0.292359 -1.50804e-19)
(1.18156 -0.0626241 0)
(1.00464 -0.000123319 4.40627e-21)
(0.143087 0.588224 -9.80044e-20)
(0.585296 0.0385895 -3.39423e-20)
(0.995728 -0.0102411 0)
(1.0358 0.0114785 0)
(1.11301 -0.021212 -2.67643e-20)
(1.00003 -0.000153458 0)
(1.00218 -0.00715424 -5.05702e-21)
(1.0171 -0.0130602 0)
(1.27173 0.0735156 1.04818e-19)
(0.921806 0.325987 0)
(1.00371 -0.0382684 9.7925e-21)
(1.11828 -0.0210092 3.50901e-20)
(0.830455 0.0188747 3.66168e-22)