/*--------------------------------*- C++ -*----------------------------------*\
| =========                 |                                                 |
| \\      /  F ield         | OpenFOAM: The Open Source CFD Toolbox           |
|  \\    /   O peration     | Version:  v2012                                 |
|   \\  /    A nd           | Website:  www.openfoam.com                      |
|    \\/     M anipulation  |                                                 |
\*---------------------------------------------------------------------------*/
FoamFile
{
    version     2.0;
    format      ascii;
    class       volVectorField;
    location    "550";
    object      cellDisplacement;
}
// * * * * * * * * * * * * * * * * * * * * * * * * * * * * * * * * * * * * * //

dimensions      [0 1 0 0 0 0 0];


internalField   nonuniform List<vector> 
9793
(
(0 0.00330772 0)
(0 0.000196521 0)
(0 0.0033715 0)
(0 0.00124994 0)
(0 0.00259373 0)
(0 0.00518213 0)
(0 0.000525295 0)
(0 0.00345221 0)
(0 0.00317287 0)
(0 0.00263252 0)
(0 0.0019293 0)
(0 0.00551884 0)
(0 0.00113259 0)
(0 0.00219053 0)
(0 9.07993e-05 0)
(0 0.00207776 0)
(0 0.0042308 0)
(0 0.00429376 0)
(0 0.0038095 0)
(0 0.00214935 0)
(0 0.00490725 0)
(0 0.00404258 0)
(0 0.00409298 0)
(0 2.87163e-05 0)
(0 0.00553879 0)
(0 0.000921964 0)
(0 0.00202343 0)
(0 0.00407915 0)
(0 0.00265622 0)
(0 0.00319344 0)
(0 0.00549919 0)
(0 0.0040506 0)
(0 0.00560572 0)
(0 0.000235472 0)
(0 0.00271199 0)
(0 0.00480905 0)
(0 0.000370728 0)
(0 0.004098 0)
(0 0.00414351 0)
(0 0.000590514 0)
(0 0.00552478 0)
(0 0.000170593 0)
(0 0.000579437 0)
(0 0.000522885 0)
(0 0.000460409 0)
(0 0.000788891 0)
(0 0.00263461 0)
(0 0.00332144 0)
(0 0.00593449 0)
(0 0.00141428 0)
(0 0.00268778 0)
(0 0.00204751 0)
(0 0.00506367 0)
(0 0.00361275 0)
(0 0.00230952 0)
(0 0.0051692 0)
(0 0.0027318 0)
(0 0.00143884 0)
(0 0.00601796 0)
(0 0.00403143 0)
(0 0.000387425 0)
(0 0.00490546 0)
(0 0.00598582 0)
(0 0.000507446 0)
(0 0.00233579 0)
(0 0.00556986 0)
(0 0.00600437 0)
(0 0.0060048 0)
(0 0.00554106 0)
(0 0.0020033 0)
(0 0.00237932 0)
(0 1.67011e-05 0)
(0 0.00392974 0)
(0 0.000315163 0)
(0 0.00273037 0)
(0 0.00604078 0)
(0 0.00283254 0)
(0 0.000118172 0)
(0 0.00478703 0)
(0 0.00429581 0)
(0 0.00561208 0)
(0 0.00486711 0)
(0 0.000157378 0)
(0 0.00347083 0)
(0 0.00549563 0)
(0 0.00337413 0)
(0 0.00436489 0)
(0 0.00293024 0)
(0 0.00488131 0)
(0 0.00499736 0)
(0 0.000272187 0)
(0 0.00221308 0)
(0 0.00286935 0)
(0 0.00398535 0)
(0 0.00486878 0)
(0 0.00352476 0)
(0 0.00514032 0)
(0 0.000197852 0)
(0 0.00280658 0)
(0 0.00237042 0)
(0 0.00232866 0)
(0 0.00503884 0)
(0 0.00290969 0)
(0 0.00282862 0)
(0 0.000145995 0)
(0 0.00551413 0)
(0 0.00483591 0)
(0 0.000427179 0)
(0 0.00502578 0)
(0 0.00321056 0)
(0 1.75192e-05 0)
(0 0.00518214 0)
(0 0.002473 0)
(0 0.00497899 0)
(0 0.00211359 0)
(0 0.00280436 0)
(0 0.00547994 0)
(0 0.00279975 0)
(0 0.00493187 0)
(0 0.00393696 0)
(0 0.00326844 0)
(0 6.54423e-06 0)
(0 0.00312889 0)
(0 0.00522602 0)
(0 0.00356752 0)
(0 0.0049773 0)
(0 0.00173932 0)
(0 0.00342496 0)
(0 0.00485046 0)
(0 0.00337042 0)
(0 3.37121e-05 0)
(0 0.00290574 0)
(0 0.00346656 0)
(0 0.00521223 0)
(0 0.00317023 0)
(0 0.00302348 0)
(0 0.000415707 0)
(0 0.000532222 0)
(0 0.00240759 0)
(0 0.000426743 0)
(0 0.00307442 0)
(0 0.00548689 0)
(0 0.000857135 0)
(0 0.00236508 0)
(0 0.00226507 0)
(0 0.00236734 0)
(0 7.77631e-05 0)
(0 0.00240699 0)
(0 0.00279569 0)
(0 0.00212468 0)
(0 0.0032029 0)
(0 3.74516e-05 0)
(0 0.00315637 0)
(0 0.00272978 0)
(0 0.00272826 0)
(0 1.22494e-05 0)
(0 0.0002001 0)
(0 0.00543157 0)
(0 0.00235144 0)
(0 0.000854631 0)
(0 0.00357974 0)
(0 0.00404239 0)
(0 0.00181714 0)
(0 0.00396161 0)
(0 0.000209074 0)
(0 0.00484508 0)
(0 0.00337295 0)
(0 0.00341058 0)
(0 0.00195438 0)
(0 0.00480215 0)
(0 0.00487749 0)
(0 0.00614707 0)
(0 0.000191459 0)
(0 0.00616208 0)
(0 0.00350301 0)
(0 0.00386402 0)
(0 0.00299492 0)
(0 0.000104883 0)
(0 0.00372137 0)
(0 0.00272089 0)
(0 0.000972811 0)
(0 0.00291146 0)
(0 0.00239005 0)
(0 0.00548366 0)
(0 0.00610451 0)
(0 0.00383881 0)
(0 0.00142598 0)
(0 0.00372714 0)
(0 0.00321897 0)
(0 0.00185629 0)
(0 0.0034521 0)
(0 0.00152509 0)
(0 0.00597057 0)
(0 0.005115 0)
(0 0.00598599 0)
(0 0.00274268 0)
(0 0.00335956 0)
(0 0.00463612 0)
(0 0.00279776 0)
(0 0.00037842 0)
(0 0.00318776 0)
(0 0.0041099 0)
(0 0.00511744 0)
(0 0.00322736 0)
(0 0.00308414 0)
(0 0.000112317 0)
(0 0.00486303 0)
(0 0.00217108 0)
(0 0.00547987 0)
(0 0.00339093 0)
(0 0.00286251 0)
(0 0.00597736 0)
(0 0.00591837 0)
(0 0.00359543 0)
(0 0.00335139 0)
(0 0.000197537 0)
(0 0.0049346 0)
(0 0.00612248 0)
(0 0.000140241 0)
(0 0.005804 0)
(0 0.00296801 0)
(0 0.00299233 0)
(0 0.00351497 0)
(0 0.00140957 0)
(0 0.00347335 0)
(0 0.0040106 0)
(0 0.0051316 0)
(0 0.00268839 0)
(0 0.00289512 0)
(0 0.00215193 0)
(0 5.12091e-05 0)
(0 4.89805e-05 0)
(0 0.00286325 0)
(0 0.000312635 0)
(0 0.00180667 0)
(0 0.0058272 0)
(0 0.00235552 0)
(0 0.00464944 0)
(0 0.00518658 0)
(0 0.00489847 0)
(0 0.00549401 0)
(0 0.00228101 0)
(0 0.00458058 0)
(0 0.00560793 0)
(0 0.00445517 0)
(0 0.00276772 0)
(0 0.00331517 0)
(0 0.00542992 0)
(0 0.00283354 0)
(0 0.000288597 0)
(0 0.00413181 0)
(0 0.00310499 0)
(0 0.00219117 0)
(0 0.00176817 0)
(0 0.00428846 0)
(0 0.00425151 0)
(0 0.00475778 0)
(0 0.00309722 0)
(0 0.00538961 0)
(0 0.00217189 0)
(0 0.00349911 0)
(0 0.00454254 0)
(0 0.00225963 0)
(0 0.000212148 0)
(0 0.00335235 0)
(0 8.25644e-05 0)
(0 0.000108161 0)
(0 0.00291869 0)
(0 0.00416531 0)
(0 0.0048329 0)
(0 0.00221452 0)
(0 0.00154471 0)
(0 0.00393412 0)
(0 0.00298742 0)
(0 0.000300965 0)
(0 0.00024776 0)
(0 0.00332874 0)
(0 0.0050671 0)
(0 0.000796118 0)
(0 0.00171253 0)
(0 0.00536694 0)
(0 0.00011183 0)
(0 0.000316228 0)
(0 0.000597435 0)
(0 0.00170302 0)
(0 0.00303111 0)
(0 0.00416992 0)
(0 0.00327935 0)
(0 0.000818878 0)
(0 0.00311473 0)
(0 0.00242736 0)
(0 0.00552125 0)
(0 0.00499358 0)
(0 0.000367024 0)
(0 4.71438e-05 0)
(0 0.00519917 0)
(0 0.00370107 0)
(0 0.00325304 0)
(0 0.00107924 0)
(0 0.00411567 0)
(0 0.00275789 0)
(0 0.00590931 0)
(0 0.00548806 0)
(0 0.000318581 0)
(0 0.000446839 0)
(0 0.00232015 0)
(0 0.00393015 0)
(0 0.00364122 0)
(0 0.00529738 0)
(0 0.00588515 0)
(0 0.000484378 0)
(0 0.00226507 0)
(0 0.00366868 0)
(0 0.00434133 0)
(0 0.00392025 0)
(0 0.00493579 0)
(0 0.0034212 0)
(0 0.00479603 0)
(0 0.00386318 0)
(0 0.00333759 0)
(0 0.00442727 0)
(0 0.000290847 0)
(0 0.00356201 0)
(0 0.000267728 0)
(0 0.000127965 0)
(0 0.00100371 0)
(0 0.00377109 0)
(0 0.00598188 0)
(0 0.00281615 0)
(0 0.00165232 0)
(0 0.00254354 0)
(0 0.00288334 0)
(0 0.0049713 0)
(0 0.00545771 0)
(0 0.0019224 0)
(0 0.00314982 0)
(0 0.000519676 0)
(0 0.00317083 0)
(0 0.000359237 0)
(0 0.00417431 0)
(0 0.00327588 0)
(0 0.00382878 0)
(0 0.00432424 0)
(0 0.00417458 0)
(0 0.00491873 0)
(0 0.00203666 0)
(0 8.9582e-05 0)
(0 0.00402396 0)
(0 0.00330196 0)
(0 0.00326503 0)
(0 0.00363258 0)
(0 0.00343874 0)
(0 0.00430461 0)
(0 0.00501423 0)
(0 0.00608787 0)
(0 0.00358136 0)
(0 0.00466047 0)
(0 9.39507e-05 0)
(0 0.00247025 0)
(0 0.00239758 0)
(0 0.00149348 0)
(0 0.00243714 0)
(0 0.00406683 0)
(0 0.00536431 0)
(0 0.00341492 0)
(0 0.000387338 0)
(0 0.00352868 0)
(0 0.00484529 0)
(0 0.000285817 0)
(0 0.00545464 0)
(0 0.00546556 0)
(0 0.00354353 0)
(0 0.00339514 0)
(0 0.0017869 0)
(0 0.00473322 0)
(0 0.00564996 0)
(0 0.00362982 0)
(0 0.00556259 0)
(0 0.00265533 0)
(0 0.000155335 0)
(0 0.00419177 0)
(0 0.0035035 0)
(0 0.00617699 0)
(0 0.000935294 0)
(0 0.00384315 0)
(0 0.00013594 0)
(0 0.000476767 0)
(0 0.00206561 0)
(0 0.00352984 0)
(0 0.00417358 0)
(0 0.0061033 0)
(0 0.00345979 0)
(0 0.00151029 0)
(0 0.00381527 0)
(0 0.00349568 0)
(0 0.00209212 0)
(0 0.000182755 0)
(0 0.0005232 0)
(0 0.00313956 0)
(0 0.00288407 0)
(0 0.00376334 0)
(0 0.00232662 0)
(0 0.00305577 0)
(0 0.00441921 0)
(0 0.00151276 0)
(0 0.00489298 0)
(0 0.00472209 0)
(0 0.00411536 0)
(0 0.00144333 0)
(0 0.00297407 0)
(0 0.00382136 0)
(0 0.00264023 0)
(0 0.0049955 0)
(0 0.00221214 0)
(0 0.00414965 0)
(0 0.00581499 0)
(0 0.00364255 0)
(0 0.00581777 0)
(0 0.00478067 0)
(0 0.00481364 0)
(0 0.00241368 0)
(0 0.00410071 0)
(0 0.000811275 0)
(0 0.0039552 0)
(0 0.00197868 0)
(0 0.0034241 0)
(0 0.0054226 0)
(0 0.00371099 0)
(0 0.0017495 0)
(0 0.00274925 0)
(0 0.000814503 0)
(0 0.00400729 0)
(0 0.00124997 0)
(0 0.0044289 0)
(0 0.0022942 0)
(0 0.00447695 0)
(0 0.00482216 0)
(0 0.00606236 0)
(0 0.000364611 0)
(0 0.00487518 0)
(0 0.000352387 0)
(0 0.00349623 0)
(0 0.0060695 0)
(0 0.00461083 0)
(0 0.00247396 0)
(0 0.00192552 0)
(0 0.00495574 0)
(0 0.00378105 0)
(0 0.00448428 0)
(0 0.00550743 0)
(0 0.00216762 0)
(0 0.00600701 0)
(0 0.0051178 0)
(0 0.00221684 0)
(0 0.00467145 0)
(0 0.00280852 0)
(0 0.00304401 0)
(0 0.000156535 0)
(0 0.00494806 0)
(0 0.000500917 0)
(0 0.00571941 0)
(0 0.00184576 0)
(0 0.00320889 0)
(0 0.0049747 0)
(0 0.00318755 0)
(0 0.00288818 0)
(0 0.000283294 0)
(0 0.00508529 0)
(0 0.00269705 0)
(0 0.00614674 0)
(0 0.00296397 0)
(0 0.00400057 0)
(0 7.82979e-05 0)
(0 0.000284426 0)
(0 8.50435e-05 0)
(0 0.00488644 0)
(0 0.00473025 0)
(0 0.00491944 0)
(0 0.00566663 0)
(0 0.00141659 0)
(0 0.000703123 0)
(0 0.00549493 0)
(0 0.00329019 0)
(0 0.000810316 0)
(0 0.00211316 0)
(0 0.00553132 0)
(0 0.00542795 0)
(0 0.00357707 0)
(0 0.00598675 0)
(0 0.00603389 0)
(0 0.000165469 0)
(0 0.000155208 0)
(0 0.00385377 0)
(0 0.00546353 0)
(0 0.00403498 0)
(0 0.000425122 0)
(0 0.000480772 0)
(0 0.00472756 0)
(0 0.00484232 0)
(0 0.00438117 0)
(0 3.82444e-05 0)
(0 0.00225039 0)
(0 0.000210583 0)
(0 0.0060765 0)
(0 0.00367278 0)
(0 0.00258199 0)
(0 0.00493945 0)
(0 0.0048136 0)
(0 0.0052236 0)
(0 0.00536517 0)
(0 0.00536004 0)
(0 0.00171947 0)
(0 0.00457143 0)
(0 0.00213559 0)
(0 0.00315679 0)
(0 0.00236538 0)
(0 0.0054081 0)
(0 0.00386232 0)
(0 0.00254901 0)
(0 0.00143515 0)
(0 0.00543145 0)
(0 0.00321891 0)
(0 0.00501834 0)
(0 0.00146596 0)
(0 0.00426045 0)
(0 0.00309968 0)
(0 0.00115983 0)
(0 0.0041669 0)
(0 0.00556427 0)
(0 0.00174646 0)
(0 0.00370345 0)
(0 0.005036 0)
(0 0.00494483 0)
(0 0.0046205 0)
(0 0.00348004 0)
(0 6.09294e-05 0)
(0 0.00100892 0)
(0 0.00524153 0)
(0 0.00148755 0)
(0 0.00161491 0)
(0 0.00554948 0)
(0 0.00281612 0)
(0 0.00433344 0)
(0 0.00296203 0)
(0 0.0046041 0)
(0 5.52741e-05 0)
(0 0.00190052 0)
(0 0.00615299 0)
(0 0.00302481 0)
(0 0.0010158 0)
(0 0.000151913 0)
(0 0.00502966 0)
(0 0.00323931 0)
(0 0.00619921 0)
(0 0.00372604 0)
(0 0.00448664 0)
(0 0.00424656 0)
(0 0.000386485 0)
(0 0.00542284 0)
(0 0.00600521 0)
(0 0.00565053 0)
(0 0.00220123 0)
(0 0.00234175 0)
(0 0.00541483 0)
(0 0.00310692 0)
(0 0.000160454 0)
(0 0.00228683 0)
(0 0.00549029 0)
(0 0.00334781 0)
(0 0.00372916 0)
(0 0.00610829 0)
(0 0.00113091 0)
(0 0.00292978 0)
(0 0.000389058 0)
(0 0.00291036 0)
(0 0.00452695 0)
(0 0.00107382 0)
(0 0.00125674 0)
(0 0.000280919 0)
(0 0.00305997 0)
(0 0.00342529 0)
(0 0.00267931 0)
(0 0.00392717 0)
(0 0.00294959 0)
(0 0.00425186 0)
(0 0.00421396 0)
(0 0.00371964 0)
(0 0.00160896 0)
(0 0.00498986 0)
(0 0.00472814 0)
(0 0.00148049 0)
(0 0.00042799 0)
(0 0.00398486 0)
(0 0.00309312 0)
(0 0.00310278 0)
(0 0.00425543 0)
(0 0.005632 0)
(0 0.00317688 0)
(0 0.00281972 0)
(0 0.00337073 0)
(0 0.00263368 0)
(0 0.00490324 0)
(0 0.00405013 0)
(0 0.00315702 0)
(0 0.00434653 0)
(0 0.00402318 0)
(0 0.0063026 0)
(0 0.00402979 0)
(0 0.00402854 0)
(0 0.00260909 0)
(0 0.000533659 0)
(0 0.00302332 0)
(0 0.00334753 0)
(0 0.00530607 0)
(0 0.00538521 0)
(0 0.00446193 0)
(0 0.00341975 0)
(0 1.85988e-05 0)
(0 0.00470796 0)
(0 0.00339764 0)
(0 0.0016188 0)
(0 0.00435401 0)
(0 0.000500777 0)
(0 0.00294653 0)
(0 0.000233289 0)
(0 0.00345337 0)
(0 0.00439211 0)
(0 0.00279666 0)
(0 0.00227009 0)
(0 0.000314192 0)
(0 0.00404277 0)
(0 0.00299701 0)
(0 0.00289938 0)
(0 0.0011117 0)
(0 0.000170072 0)
(0 0.00116674 0)
(0 0.00421708 0)
(0 0.00400305 0)
(0 0.00122431 0)
(0 0.00278745 0)
(0 0.000523256 0)
(0 0.000332615 0)
(0 0.00312079 0)
(0 0.0061089 0)
(0 0.00226214 0)
(0 0.0014122 0)
(0 0.0018722 0)
(0 0.000181132 0)
(0 0.00519962 0)
(0 0.00107032 0)
(0 0.00553667 0)
(0 0.00041573 0)
(0 8.37665e-05 0)
(0 0.00139005 0)
(0 0.00336169 0)
(0 0.00182658 0)
(0 0.00228774 0)
(0 0.00534944 0)
(0 0.00555244 0)
(0 0.00514192 0)
(0 0.00323506 0)
(0 0.00496477 0)
(0 0.0040298 0)
(0 0.00131558 0)
(0 0.000149721 0)
(0 0.00608431 0)
(0 0.00266957 0)
(0 0.00306585 0)
(0 0.00145024 0)
(0 0.00318985 0)
(0 0.00308589 0)
(0 0.00500813 0)
(0 0.0016264 0)
(0 0.00609631 0)
(0 0.00329825 0)
(0 0.00231988 0)
(0 0.00394162 0)
(0 0.00359521 0)
(0 0.00408538 0)
(0 0.00101406 0)
(0 0.00564844 0)
(0 0.00481832 0)
(0 0.00328382 0)
(0 0.00224433 0)
(0 0.00410984 0)
(0 0.00539191 0)
(0 0.00188855 0)
(0 0.00121755 0)
(0 0.00364561 0)
(0 0.00290825 0)
(0 0.00406113 0)
(0 0.0052848 0)
(0 0.00284454 0)
(0 0.00551512 0)
(0 0.00268533 0)
(0 0.00443401 0)
(0 0.0052542 0)
(0 0.00594484 0)
(0 0.0024027 0)
(0 0.00176861 0)
(0 0.000292904 0)
(0 0.00469742 0)
(0 0.001225 0)
(0 0.0051391 0)
(0 0.00122083 0)
(0 0.0049214 0)
(0 0.00260114 0)
(0 0.00354312 0)
(0 0.00205802 0)
(0 0.00347796 0)
(0 0.00215457 0)
(0 0.00622559 0)
(0 0.00360687 0)
(0 0.00619296 0)
(0 0.00522312 0)
(0 0.00141946 0)
(0 0.00125609 0)
(0 0.000172388 0)
(0 0.00336323 0)
(0 0.00457276 0)
(0 0.00562233 0)
(0 0.000995292 0)
(0 0.00271968 0)
(0 0.00316689 0)
(0 0.00331999 0)
(0 0.00330217 0)
(0 0.00441542 0)
(0 0.00122429 0)
(0 0.000658343 0)
(0 0.00300981 0)
(0 0.00243647 0)
(0 0.0048117 0)
(0 0.00472868 0)
(0 0.00104645 0)
(0 0.00325094 0)
(0 0.00144862 0)
(0 0.00539632 0)
(0 0.00428226 0)
(0 0.000326195 0)
(0 0.0051868 0)
(0 0.00302467 0)
(0 0.00135106 0)
(0 0.00296928 0)
(0 0.00529008 0)
(0 0.00611304 0)
(0 0.00577627 0)
(0 0.00468136 0)
(0 0.000393504 0)
(0 0.00383413 0)
(0 0.00559819 0)
(0 0.00273294 0)
(0 0.0024655 0)
(0 0.00300676 0)
(0 0.0011997 0)
(0 0.0061284 0)
(0 0.00177275 0)
(0 0.00618527 0)
(0 0.00260674 0)
(0 0.00490435 0)
(0 0.0031893 0)
(0 0.0027287 0)
(0 0.0038454 0)
(0 0.0034309 0)
(0 0.0029989 0)
(0 0.00311182 0)
(0 0.00313842 0)
(0 0.0012719 0)
(0 0.00150535 0)
(0 0.0050124 0)
(0 0.00289957 0)
(0 0.00621078 0)
(0 0.00374929 0)
(0 0.00610964 0)
(0 0.00322551 0)
(0 0.00312496 0)
(0 0.00445678 0)
(0 0.00486194 0)
(0 0.00399459 0)
(0 0.00108262 0)
(0 0.00261019 0)
(0 0.00517545 0)
(0 0.00596677 0)
(0 0.00434854 0)
(0 0.00310244 0)
(0 0.00385228 0)
(0 0.00405547 0)
(0 0.00357456 0)
(0 0.00106213 0)
(0 0.000194119 0)
(0 0.00147353 0)
(0 0.00372115 0)
(0 0.00217942 0)
(0 0.00469158 0)
(0 0.000460011 0)
(0 0.000283083 0)
(0 0.00120612 0)
(0 0.00223688 0)
(0 0.00194058 0)
(0 0.00380896 0)
(0 0.000389022 0)
(0 3.12078e-05 0)
(0 0.00116287 0)
(0 0.00310075 0)
(0 0.000260696 0)
(0 0.0028491 0)
(0 0.00396161 0)
(0 0.00309842 0)
(0 0.00271813 0)
(0 0.00209732 0)
(0 0.00502657 0)
(0 0.00298382 0)
(0 0.00279074 0)
(0 0.000409967 0)
(0 0.0060966 0)
(0 0.000226514 0)
(0 0.00546622 0)
(0 0.00425582 0)
(0 0.00460939 0)
(0 0.00137166 0)
(0 0.00246254 0)
(0 0.00278128 0)
(0 0.00614022 0)
(0 0.00180396 0)
(0 0.00616757 0)
(0 0.00460616 0)
(0 0.00306012 0)
(0 0.000416345 0)
(0 0.0012402 0)
(0 0.00333424 0)
(0 0.003408 0)
(0 0.00317611 0)
(0 0.0023783 0)
(0 0.00392426 0)
(0 0.00263434 0)
(0 0.00556268 0)
(0 0.00459534 0)
(0 0.000311359 0)
(0 0.00379983 0)
(0 0.00376084 0)
(0 0.00269779 0)
(0 0.00401847 0)
(0 0.000196158 0)
(0 0.00429083 0)
(0 0.00141861 0)
(0 0.00553335 0)
(0 0.00190554 0)
(0 0.000163618 0)
(0 0.00107315 0)
(0 0.00306036 0)
(0 0.00274516 0)
(0 0.00237288 0)
(0 0.00495697 0)
(0 0.00532367 0)
(0 0.00137632 0)
(0 0.0012057 0)
(0 0.00298546 0)
(0 0.00441634 0)
(0 0.00178433 0)
(0 0.000396681 0)
(0 0.00251342 0)
(0 0.00331899 0)
(0 0.001203 0)
(0 0.00547579 0)
(0 0.0011566 0)
(0 0.00391569 0)
(0 0.0026126 0)
(0 0.00254874 0)
(0 0.00456111 0)
(0 0.00617381 0)
(0 0.00224503 0)
(0 0.00519939 0)
(0 0.00495633 0)
(0 0.00110683 0)
(0 0.00039756 0)
(0 0.00598194 0)
(0 0.00430338 0)
(0 0.00359051 0)
(0 0.00370542 0)
(0 0.00026006 0)
(0 0.00391768 0)
(0 0.00126135 0)
(0 0.00451647 0)
(0 0.00550839 0)
(0 0.00112797 0)
(0 0.00385035 0)
(0 0.00429323 0)
(0 0.00183478 0)
(0 0.00485519 0)
(0 0.00503001 0)
(0 0.00253816 0)
(0 0.00117542 0)
(0 0.00118706 0)
(0 0.00245746 0)
(0 0.00415978 0)
(0 0.00286856 0)
(0 0.00446121 0)
(0 0.00171924 0)
(0 0.00264365 0)
(0 0.00475963 0)
(0 0.00107892 0)
(0 3.93431e-05 0)
(0 3.444e-05 0)
(0 0.00189344 0)
(0 0.00482053 0)
(0 0.00368608 0)
(0 0.002385 0)
(0 0.00500966 0)
(0 0.00291449 0)
(0 0.00344421 0)
(0 0.0052381 0)
(0 0.00460252 0)
(0 0.00519431 0)
(0 0.00304688 0)
(0 0.00245174 0)
(0 0.0039717 0)
(0 0.00417778 0)
(0 0.00476751 0)
(0 0.0027211 0)
(0 0.00110811 0)
(0 0.00368115 0)
(0 0.00531211 0)
(0 0.00311519 0)
(0 0.000205534 0)
(0 0.00189996 0)
(0 0.00257558 0)
(0 0.00360208 0)
(0 0.000672614 0)
(0 0.00267797 0)
(0 0.00288628 0)
(0 0.00530276 0)
(0 0.00378376 0)
(0 0.00256669 0)
(0 0.00435012 0)
(0 0.00275959 0)
(0 0.00381457 0)
(0 0.00172986 0)
(0 0.00444199 0)
(0 0.00223023 0)
(0 0.00599335 0)
(0 0.00197214 0)
(0 0.00441216 0)
(0 0.00317036 0)
(0 0.00364708 0)
(0 0.00568435 0)
(0 0.00359091 0)
(0 0.00122511 0)
(0 0.00369856 0)
(0 0.00311528 0)
(0 0.00489334 0)
(0 0.000422006 0)
(0 0.0061481 0)
(0 0.00274311 0)
(0 0.00252696 0)
(0 0.00608716 0)
(0 0.00279936 0)
(0 0.00545619 0)
(0 0.00373787 0)
(0 0.00267746 0)
(0 0.00296903 0)
(0 0.00252581 0)
(0 0.00153825 0)
(0 0.00322974 0)
(0 0.00482718 0)
(0 0.00495547 0)
(0 0.00154784 0)
(0 0.00343179 0)
(0 0.000705643 0)
(0 0.00126984 0)
(0 0.00614889 0)
(0 0.0035622 0)
(0 0.00393223 0)
(0 0.00267361 0)
(0 6.47434e-05 0)
(0 0.00117112 0)
(0 0.00294364 0)
(0 0.00480156 0)
(0 0.00225405 0)
(0 0.00133051 0)
(0 0.00626021 0)
(0 0.00351017 0)
(0 0.00455981 0)
(0 0.00108757 0)
(0 0.00421019 0)
(0 0.00425125 0)
(0 0.00257054 0)
(0 0.0044641 0)
(0 0.00412809 0)
(0 0.00553214 0)
(0 0.00628287 0)
(0 0.0032795 0)
(0 2.16647e-05 0)
(0 0.00433162 0)
(0 0.00616564 0)
(0 0.00351743 0)
(0 0.00549123 0)
(0 0.00353894 0)
(0 0.00365926 0)
(0 0.00161921 0)
(0 0.00373118 0)
(0 0.00365767 0)
(0 0.00414741 0)
(0 0.00328174 0)
(0 0.00561795 0)
(0 0.00547476 0)
(0 0.00348799 0)
(0 0.00575531 0)
(0 0.00252026 0)
(0 0.00256369 0)
(0 0.00527865 0)
(0 0.00412476 0)
(0 0.00439496 0)
(0 0.00265779 0)
(0 0.00496871 0)
(0 0.00043117 0)
(0 0.00360541 0)
(0 0.00551978 0)
(0 0.00113134 0)
(0 0.00229258 0)
(0 0.00281471 0)
(0 0.00175599 0)
(0 0.00369679 0)
(0 0.00224298 0)
(0 0.00621809 0)
(0 0.00376253 0)
(0 0.00630098 0)
(0 0.00567366 0)
(0 0.000998385 0)
(0 0.00616293 0)
(0 0.00541159 0)
(0 0.00232372 0)
(0 0.00527936 0)
(0 0.00214813 0)
(0 0.00603395 0)
(0 0.00370524 0)
(0 0.00238118 0)
(0 0.00432064 0)
(0 0.00599895 0)
(0 0.00224369 0)
(0 0.003521 0)
(0 0.00342414 0)
(0 0.00331064 0)
(0 0.00135745 0)
(0 0.00416323 0)
(0 0.00524825 0)
(0 0.000456915 0)
(0 0.00547078 0)
(0 0.00316547 0)
(0 0.00425169 0)
(0 0.000326148 0)
(0 0.00301301 0)
(0 0.0014784 0)
(0 0.00548246 0)
(0 0.0044358 0)
(0 0.000366786 0)
(0 0.00184311 0)
(0 0.00472912 0)
(0 0.0062489 0)
(0 0.00268229 0)
(0 0.00192539 0)
(0 0.0035131 0)
(0 0.0028825 0)
(0 0.00159626 0)
(0 0.00445059 0)
(0 0.000710499 0)
(0 0.00443936 0)
(0 0.00317749 0)
(0 0.00170152 0)
(0 0.00262844 0)
(0 0.000870648 0)
(0 0.00149273 0)
(0 0.00324797 0)
(0 9.71713e-05 0)
(0 0.00460373 0)
(0 0.0027 0)
(0 0.00446712 0)
(0 0.00376875 0)
(0 0.00418745 0)
(0 0.00350305 0)
(0 0.00455115 0)
(0 0.00551272 0)
(0 0.00532301 0)
(0 0.00540465 0)
(0 0.00426401 0)
(0 0.00288464 0)
(0 0.0008685 0)
(0 0.0032476 0)
(0 0.000883435 0)
(0 0.000867349 0)
(0 0.00162942 0)
(0 0.00390234 0)
(0 0.00559397 0)
(0 0.00385528 0)
(0 0.000859019 0)
(0 0.00367379 0)
(0 0.00587563 0)
(0 9.15459e-05 0)
(0 0.00321852 0)
(0 0.00158621 0)
(0 0.00492989 0)
(0 0.00604009 0)
(0 0.000893404 0)
(0 0.00327055 0)
(0 0.00337816 0)
(0 0.00542528 0)
(0 0.00332462 0)
(0 0.00489952 0)
(0 0.00385864 0)
(0 0.00329629 0)
(0 0.00313195 0)
(0 0.00311777 0)
(0 0.0011315 0)
(0 4.8788e-05 0)
(0 0.002529 0)
(0 0.00590717 0)
(0 0.000897998 0)
(0 0.00278256 0)
(0 0.000898418 0)
(0 0.00245465 0)
(0 0.00295345 0)
(0 0.004268 0)
(0 0.000762803 0)
(0 0.00214145 0)
(0 0.00593945 0)
(0 0.00272166 0)
(0 0.00224757 0)
(0 0.00302296 0)
(0 0.00283491 0)
(0 0.00247073 0)
(0 0.00522567 0)
(0 0.000361709 0)
(0 0.000477584 0)
(0 0.00286613 0)
(0 0.00494814 0)
(0 0.0034482 0)
(0 0.00144583 0)
(0 0.00417089 0)
(0 0.00629607 0)
(0 0.000169935 0)
(0 0.00255671 0)
(0 0.0031346 0)
(0 0.00370905 0)
(0 0.00325772 0)
(0 0.0051042 0)
(0 0.00611707 0)
(0 0.002984 0)
(0 0.00524825 0)
(0 0.00182413 0)
(0 0.00264087 0)
(0 0.00252782 0)
(0 0.00118053 0)
(0 0.00217537 0)
(0 0.001065 0)
(0 0.000962786 0)
(0 0.000203803 0)
(0 0.00319516 0)
(0 0.000848149 0)
(0 0.00281718 0)
(0 0.00280026 0)
(0 0.00219848 0)
(0 0.00269121 0)
(0 0.00082964 0)
(0 0.0020108 0)
(0 0.00303444 0)
(0 0.000861022 0)
(0 0.00591543 0)
(0 0.00453297 0)
(0 0.000345847 0)
(0 0.00243684 0)
(0 0.00261164 0)
(0 0.00110846 0)
(0 0.001346 0)
(0 0.00175632 0)
(0 0.00303915 0)
(0 0.00130167 0)
(0 0.0032356 0)
(0 0.00242067 0)
(0 0.00345499 0)
(0 0.00321935 0)
(0 0.00606236 0)
(0 0.00195202 0)
(0 0.00517405 0)
(0 0.00230947 0)
(0 0.00122431 0)
(0 0.00138545 0)
(0 0.00231401 0)
(0 0.0008923 0)
(0 0.00353816 0)
(0 0.0014747 0)
(0 0.00604934 0)
(0 0.00489091 0)
(0 0.00413551 0)
(0 0.00436804 0)
(0 0.00259537 0)
(0 0.00164688 0)
(0 0.000509408 0)
(0 0.000212977 0)
(0 0.00448385 0)
(0 0.00429144 0)
(0 0.000225832 0)
(0 0.00471701 0)
(0 0.00468254 0)
(0 0.00314271 0)
(0 0.0012392 0)
(0 0.00437314 0)
(0 0.00475588 0)
(0 0.000993003 0)
(0 0.00399867 0)
(0 0.00630016 0)
(0 0.00533762 0)
(0 0.00088122 0)
(0 0.00111539 0)
(0 0.00106721 0)
(0 0.00584742 0)
(0 0.00246928 0)
(0 0.00407881 0)
(0 0.00117039 0)
(0 0.00288705 0)
(0 0.00295178 0)
(0 0.00379222 0)
(0 0.00241206 0)
(0 0.0029343 0)
(0 0.0034073 0)
(0 0.00255396 0)
(0 0.00253447 0)
(0 0.00269788 0)
(0 0.001427 0)
(0 0.00342561 0)
(0 5.91205e-05 0)
(0 0.00300847 0)
(0 0.000805467 0)
(0 0.00453357 0)
(0 0.00343502 0)
(0 0.00428693 0)
(0 0.00233911 0)
(0 0.00496441 0)
(0 0.000103971 0)
(0 0.00282408 0)
(0 0.00358804 0)
(0 0.00225898 0)
(0 0.00336339 0)
(0 0.00209297 0)
(0 0.00622641 0)
(0 0.0028933 0)
(0 0.00287362 0)
(0 0.00510611 0)
(0 0.00202048 0)
(0 0.000930954 0)
(0 0.00208248 0)
(0 0.00392544 0)
(0 0.00238211 0)
(0 0.00336679 0)
(0 0.00131918 0)
(0 0.00433831 0)
(0 0.00272814 0)
(0 0.00474014 0)
(0 0.00039592 0)
(0 0.00297698 0)
(0 0.00226459 0)
(0 0.00420332 0)
(0 0.00596772 0)
(0 0.00137365 0)
(0 0.0053705 0)
(0 0.00118694 0)
(0 0.00618036 0)
(0 0.00334556 0)
(0 0.00302312 0)
(0 0.00525446 0)
(0 0.0026495 0)
(0 0.00516242 0)
(0 0.00124785 0)
(0 0.0015681 0)
(0 0.00104163 0)
(0 0.00302442 0)
(0 0.00316403 0)
(0 0.00138025 0)
(0 0.00124642 0)
(0 0.00237162 0)
(0 0.0011282 0)
(0 0.00325735 0)
(0 0.000406375 0)
(0 0.00309717 0)
(0 0.00430809 0)
(0 0.00197825 0)
(0 0.00548485 0)
(0 0.00151122 0)
(0 0.00205119 0)
(0 0.000864706 0)
(0 0.00101787 0)
(0 0.00572298 0)
(0 0.00335779 0)
(0 0.002612 0)
(0 0.0032612 0)
(0 0.00131357 0)
(0 0.00356987 0)
(0 0.00333666 0)
(0 0.00600707 0)
(0 0.00331671 0)
(0 0.00490685 0)
(0 0.00564159 0)
(0 0.000203151 0)
(0 0.00301518 0)
(0 0.00330213 0)
(0 0.00603356 0)
(0 0.00302284 0)
(0 0.00544248 0)
(0 0.00248401 0)
(0 0.00356563 0)
(0 0.00325298 0)
(0 0.00561745 0)
(0 0.00432157 0)
(0 0.00141705 0)
(0 0.00544035 0)
(0 0.000196008 0)
(0 0.00385176 0)
(0 0.00231682 0)
(0 0.00264795 0)
(0 0.00392541 0)
(0 0.00240841 0)
(0 0.00306022 0)
(0 0.00253835 0)
(0 0.00192163 0)
(0 0.00235073 0)
(0 0.000222864 0)
(0 0.00299246 0)
(0 0.00545487 0)
(0 0.00344396 0)
(0 0.00317742 0)
(0 0.00192523 0)
(0 0.00294998 0)
(0 0.00193743 0)
(0 0.00260689 0)
(0 0.00201993 0)
(0 0.00316619 0)
(0 0.00321965 0)
(0 0.00174689 0)
(0 0.00345424 0)
(0 0.00302943 0)
(0 0.00250365 0)
(0 0.00146265 0)
(0 0.00129282 0)
(0 0.00215318 0)
(0 0.000206422 0)
(0 0.00302162 0)
(0 0.00297579 0)
(0 0.00309424 0)
(0 0.00585056 0)
(0 0.000163917 0)
(0 0.00306283 0)
(0 0.00359211 0)
(0 0.00509228 0)
(0 0.00336057 0)
(0 0.00345561 0)
(0 0.00290611 0)
(0 0.00122956 0)
(0 0.00207604 0)
(0 0.00199373 0)
(0 0.00535366 0)
(0 0.00307104 0)
(0 0.0027382 0)
(0 0.00245939 0)
(0 0.00207116 0)
(0 0.00386981 0)
(0 0.000949812 0)
(0 0.00259761 0)
(0 0.00334986 0)
(0 0.00337692 0)
(0 0.00288459 0)
(0 0.00287272 0)
(0 0.00447477 0)
(0 0.00384021 0)
(0 0.00361127 0)
(0 0.00336496 0)
(0 0.00421827 0)
(0 9.71565e-05 0)
(0 0.00150404 0)
(0 0.0010528 0)
(0 0.00188241 0)
(0 0.000222972 0)
(0 0.00272359 0)
(0 0.00206308 0)
(0 0.00268434 0)
(0 0.00307159 0)
(0 0.00290774 0)
(0 0.00284232 0)
(0 0.00330976 0)
(0 0.00370037 0)
(0 0.00334579 0)
(0 0.0042528 0)
(0 0.00245252 0)
(0 0.00231228 0)
(0 0.0033876 0)
(0 0.000292698 0)
(0 0.00441894 0)
(0 0.000102075 0)
(0 0.00430699 0)
(0 0.00379384 0)
(0 0.00326799 0)
(0 0.00128809 0)
(0 0.00262612 0)
(0 0.00382317 0)
(0 0.00350168 0)
(0 0.00184912 0)
(0 0.00319274 0)
(0 0.0013703 0)
(0 0.00304178 0)
(0 0.00356338 0)
(0 6.79738e-05 0)
(0 0.0014576 0)
(0 0.00311708 0)
(0 0.00197278 0)
(0 0.00154954 0)
(0 0.00406213 0)
(0 0.00322904 0)
(0 0.00332242 0)
(0 0.00291644 0)
(0 0.00210319 0)
(0 0.000400553 0)
(0 0.0027338 0)
(0 0.00603725 0)
(0 0.00330326 0)
(0 0.00381094 0)
(0 0.0026227 0)
(0 0.00311182 0)
(0 0.0018306 0)
(0 0.00406534 0)
(0 0.00267213 0)
(0 0.00395995 0)
(0 0.00253381 0)
(0 0.00209761 0)
(0 0.00276001 0)
(0 0.000190464 0)
(0 0.00189677 0)
(0 0.00345583 0)
(0 0.00629865 0)
(0 0.0056147 0)
(0 0.00230419 0)
(0 0.00406158 0)
(0 0.00240419 0)
(0 0.00391134 0)
(0 0.000510714 0)
(0 0.00294783 0)
(0 0.00351806 0)
(0 0.0037394 0)
(0 0.000423053 0)
(0 0.00378023 0)
(0 0.00372468 0)
(0 0.00158641 0)
(0 0.00380399 0)
(0 0.0035697 0)
(0 0.00420802 0)
(0 0.00120724 0)
(0 0.00609424 0)
(0 0.00181264 0)
(0 0.00215006 0)
(0 0.00342319 0)
(0 0.00298771 0)
(0 0.00382007 0)
(0 0.00458119 0)
(0 0.0028101 0)
(0 0.0021138 0)
(0 0.00598085 0)
(0 0.00364559 0)
(0 0.00198943 0)
(0 0.00410442 0)
(0 0.00390805 0)
(0 0.00397443 0)
(0 0.00245053 0)
(0 0.00378307 0)
(0 0.00296935 0)
(0 0.00321307 0)
(0 0.00282652 0)
(0 0.00535847 0)
(0 0.0052421 0)
(0 0.00262525 0)
(0 0.00240348 0)
(0 0.00130484 0)
(0 0.00317217 0)
(0 0.00280697 0)
(0 0.00338499 0)
(0 0.00367433 0)
(0 0.00259753 0)
(0 0.00414116 0)
(0 0.00614475 0)
(0 0.00388032 0)
(0 0.00387355 0)
(0 0.00343962 0)
(0 0.00020802 0)
(0 0.00287748 0)
(0 0.00326924 0)
(0 0.00269882 0)
(0 0.00232777 0)
(0 0.00079128 0)
(0 0.0038709 0)
(0 0.00533021 0)
(0 0.00344779 0)
(0 0.00321519 0)
(0 0.00347128 0)
(0 0.00355258 0)
(0 0.00130534 0)
(0 0.0023093 0)
(0 0.0028745 0)
(0 0.00359177 0)
(0 0.00610653 0)
(0 0.0026946 0)
(0 0.00337064 0)
(0 0.0046333 0)
(0 0.00307412 0)
(0 0.00224149 0)
(0 0.00413913 0)
(0 0.00254095 0)
(0 0.00360327 0)
(0 0.00393919 0)
(0 0.00346009 0)
(0 0.00448316 0)
(0 0.00528027 0)
(0 0.00360571 0)
(0 0.00249696 0)
(0 0.00329058 0)
(0 0.000686657 0)
(0 0.00251285 0)
(0 0.00410908 0)
(0 0.00123352 0)
(0 0.00448533 0)
(0 0.00321437 0)
(0 0.00254503 0)
(0 0.00429292 0)
(0 0.00429687 0)
(0 0.00306574 0)
(0 0.00411898 0)
(0 0.0046877 0)
(0 0.00374495 0)
(0 0.00566014 0)
(0 0.00317291 0)
(0 0.00331602 0)
(0 0.00258027 0)
(0 0.00459454 0)
(0 0.00328436 0)
(0 0.00404266 0)
(0 0.00365306 0)
(0 0.00425545 0)
(0 0.0060346 0)
(0 0.00308072 0)
(0 0.00116854 0)
(0 0.00232197 0)
(0 0.00463919 0)
(0 0.00134156 0)
(0 0.00378586 0)
(0 0.004732 0)
(0 0.00489121 0)
(0 0.00117018 0)
(0 0.00385316 0)
(0 0.00197518 0)
(0 0.0059226 0)
(0 9.09358e-05 0)
(0 0.00377208 0)
(0 0.0042037 0)
(0 0.00424042 0)
(0 0.000829621 0)
(0 0.00553468 0)
(0 0.00339692 0)
(0 0.00127575 0)
(0 0.00337056 0)
(0 0.00279393 0)
(0 0.00374724 0)
(0 0.000871086 0)
(0 0.00385338 0)
(0 0.00176724 0)
(0 0.00336187 0)
(0 0.00238115 0)
(0 0.00292389 0)
(0 0.00438766 0)
(0 0.00277866 0)
(0 0.00597144 0)
(0 0.00625607 0)
(0 0.00574632 0)
(0 0.00382989 0)
(0 0.00191238 0)
(0 0.00271216 0)
(0 0.00315167 0)
(0 0.00335368 0)
(0 0.00111638 0)
(0 0.00206616 0)
(0 0.00508368 0)
(0 0.00184767 0)
(0 0.00605559 0)
(0 0.00357767 0)
(0 0.00614635 0)
(0 0.00541325 0)
(0 0.00419121 0)
(0 0.00227464 0)
(0 0.00176288 0)
(0 0.00590171 0)
(0 0.00628612 0)
(0 0.00490562 0)
(0 0.00304357 0)
(0 0.00566123 0)
(0 0.00122645 0)
(0 0.00192173 0)
(0 0.00622233 0)
(0 0.00333366 0)
(0 0.00019339 0)
(0 0.000139911 0)
(0 0.00110962 0)
(0 0.00334246 0)
(0 0.00453291 0)
(0 0.00523549 0)
(0 0.00468815 0)
(0 0.0028234 0)
(0 0.00613931 0)
(0 0.0036236 0)
(0 0.00405909 0)
(0 0.000229708 0)
(0 0.00312028 0)
(0 0.000213433 0)
(0 0.00573985 0)
(0 0.00323074 0)
(0 0.0029964 0)
(0 0.00380964 0)
(0 0.00326511 0)
(0 0.00134429 0)
(0 0.00456461 0)
(0 0.00340478 0)
(0 0.00229832 0)
(0 0.00329201 0)
(0 7.81845e-05 0)
(0 0.00143248 0)
(0 0.0017878 0)
(0 0.00330487 0)
(0 0.00343064 0)
(0 0.00202527 0)
(0 0.00302535 0)
(0 0.00293463 0)
(0 0.00326256 0)
(0 0.0012343 0)
(0 0.00275415 0)
(0 0.00370674 0)
(0 0.00575318 0)
(0 0.00251414 0)
(0 0.00330403 0)
(0 0.00347101 0)
(0 0.00462955 0)
(0 0.00243055 0)
(0 0.00114625 0)
(0 0.00188981 0)
(0 0.00334285 0)
(0 0.00316987 0)
(0 0.00369295 0)
(0 0.00469686 0)
(0 0.00184407 0)
(0 0.00193172 0)
(0 0.00264078 0)
(0 0.00339614 0)
(0 0.00518342 0)
(0 0.00271833 0)
(0 0.00309522 0)
(0 0.00210713 0)
(0 0.00353947 0)
(0 0.00450626 0)
(0 0.00552054 0)
(0 0.00304751 0)
(0 0.00325214 0)
(0 0.00592438 0)
(0 0.00189909 0)
(0 0.00382647 0)
(0 0.00212054 0)
(0 0.000495128 0)
(0 0.00332013 0)
(0 0.00346464 0)
(0 0.00455255 0)
(0 0.00198947 0)
(0 0.00518023 0)
(0 0.00308038 0)
(0 0.00502834 0)
(0 0.0025243 0)
(0 0.00354228 0)
(0 0.00476816 0)
(0 0.00151786 0)
(0 0.00344921 0)
(0 0.00558805 0)
(0 0.00314451 0)
(0 0.000507145 0)
(0 0.00264228 0)
(0 0.00354046 0)
(0 0.0030192 0)
(0 0.00354641 0)
(0 0.00401866 0)
(0 0.00436456 0)
(0 0.00260921 0)
(0 0.0035654 0)
(0 0.00183607 0)
(0 0.00321269 0)
(0 0.00317749 0)
(0 0.00283843 0)
(0 0.00295641 0)
(0 0.00270302 0)
(0 0.0027727 0)
(0 0.00170144 0)
(0 0.00388808 0)
(0 0.00219742 0)
(0 0.00326995 0)
(0 0.0038425 0)
(0 0.00448747 0)
(0 0.00500824 0)
(0 0.000497036 0)
(0 0.00597038 0)
(0 0.00221885 0)
(0 0.000748283 0)
(0 0.00588228 0)
(0 0.00298152 0)
(0 0.00453329 0)
(0 0.00339414 0)
(0 0.00470869 0)
(0 0.00623579 0)