/*--------------------------------*- C++ -*----------------------------------*\
| =========                 |                                                 |
| \\      /  F ield         | OpenFOAM: The Open Source CFD Toolbox           |
|  \\    /   O peration     | Version:  v2012                                 |
|   \\  /    A nd           | Website:  www.openfoam.com                      |
|    \\/     M anipulation  |                                                 |
\*---------------------------------------------------------------------------*/
FoamFile
{
    version     2.0;
    format      ascii;
    class       volScalarField;
    location    "550";
    object      k_0;
}
// * * * * * * * * * * * * * * * * * * * * * * * * * * * * * * * * * * * * * //

dimensions      [0 2 -2 0 0 0 0];


internalField   nonuniform List<scalar> 
9793
(
0.000585914
0.00727837
0.000368451
0.000140656
0.0333632
0.000147082
0.000147633
0.000138703
0.000145203
0.0370113
0.000179781
0.0155355
0.000141061
0.000138032
0.000161292
0.000136818
0.000149914
0.000154364
0.000374089
0.000137714
0.00789355
0.000151842
0.0109502
0.000130975
0.000143632
0.000141887
0.000137116
0.000141724
0.000172403
0.000145103
0.000162758
0.0111451
0.00859815
0.000158024
0.000180718
0.0257729
0.00015239
0.000151796
0.000139116
0.00014314
0.000160201
0.000161977
0.00014932
0.000148859
0.000149445
0.000143363
0.000179832
0.000308633
0.000228094
0.000140417
0.000194604
0.000188318
0.000148495
0.000145655
0.0358763
0.0280842
0.000143729
0.000207568
0.00743289
0.000139013
0.000150802
0.00014946
0.000367816
0.000147009
0.0162245
0.00365136
0.000336222
0.000328975
0.00953095
0.00017988
0.0380533
0.000145798
0.000141461
0.00126506
0.000181584
0.00581962
0.000143678
0.000139692
0.000144076
0.000142921
0.00302463
0.000143042
0.00870736
0.000568632
0.000153281
0.000414122
0.000143769
0.000143646
0.000147968
0.000143224
0.00738795
0.00893485
0.000139762
0.00929766
0.000148833
0.000714246
0.0304848
0.008731
0.000138568
0.000136599
0.000136313
0.000141939
0.000137429
0.000137122
0.00013781
0.000152542
0.000147634
0.000149642
0.000147892
0.00145446
0.000147968
0.0241487
0.000143554
0.024818
0.000186569
0.000143758
0.00832792
0.000193027
0.000144327
0.0078414
0.00141396
0.000158266
0.000142975
0.000147265
0.000147562
0.0126945
0.000163013
0.000545226
0.000146407
0.000141638
0.000152382
0.000143725
0.000141638
0.000142053
0.00014483
0.000143637
0.000149357
0.000147281
0.00014348
0.000133584
0.00014288
0.000143085
0.000142209
0.000136916
0.000139328
0.000142417
0.00166594
0.00013702
0.000137947
0.0077723
0.0186659
0.000151997
0.0217728
0.041008
0.000137432
0.000155764
0.00014321
0.000142738
0.000136611
0.00014183
0.000138686
0.000141642
0.000134862
0.000324039
0.00213371
0.0111898
0.000410209
0.000157013
0.000136366
0.000140617
0.000141776
0.0214791
0.00281245
0.0214118
0.000147228
0.000327666
0.000143707
0.000130634
0.000141757
0.000155444
0.00142436
0.000148482
0.00013688
0.00014322
0.004285
0.000141359
0.000212475
0.00014171
0.000142748
0.000135014
0.000147234
0.000142884
0.000245387
0.0218599
0.000345732
0.000155102
0.00367762
0.000140322
0.0416691
0.000134434
0.000144748
0.000300432
0.0259689
0.000141687
0.000143724
0.000136124
0.0232118
0.000135817
0.000150199
0.000149394
0.000160459
0.000229095
0.000255929
0.000145904
0.00574038
0.000141712
0.000140934
0.00336682
0.000135252
0.00477724
7.89375e-05
0.000143243
0.000147569
0.0001429
0.000646877
0.000298363
0.000147332
0.000137133
0.000296194
0.000172388
0.000131371
0.000130839
0.000148652
0.000136272
0.000167747
0.00291063
0.000143331
0.000141244
0.0313535
0.000141583
0.000149737
0.000138216
0.000140875
0.00744569
0.000140982
0.000137922
0.000138616
0.000142609
0.000138639
0.000154285
0.000146285
0.000152371
0.000184052
0.000165332
0.000140548
0.000153557
0.000141711
0.000152884
0.000146227
0.000135558
0.00677876
0.000141112
0.00018324
0.000153788
0.000157508
0.000133063
0.000132729
0.000160478
0.000270428
0.000146577
0.000135919
0.000133364
0.00015983
0.000143389
0.00585095
0.00568691
0.000141708
0.0276375
0.000143263
0.00016517
0.000142306
0.000131867
0.000154588
0.000141705
0.000162853
0.000143213
0.000146196
0.000155416
0.000141344
0.000143661
0.000143395
0.00808231
0.000146645
0.000153387
0.000154087
0.000142037
0.000148313
0.000156171
0.000142285
0.00310871
0.00013749
0.0240003
0.0102784
0.0001569
0.000149859
0.000136435
0.000161197
0.000154668
0.000141911
0.0222451
0.000146276
0.000136224
0.000155088
0.000146895
0.000144839
0.000142333
0.000523338
0.000140848
0.000157914
0.000149564
0.000140308
0.00200852
0.00118773
0.000945419
0.00013402
0.00059475
0.000148799
0.0081584
0.00015932
0.000133835
0.000149882
0.000143954
0.00014144
0.000148457
0.000192541
0.000138439
0.000148518
0.00014454
0.000145279
0.000142168
0.00260167
0.00014171
0.000140234
0.00548103
0.000141603
0.000136475
0.00013407
0.000149591
0.000138529
0.00662962
0.000147923
0.000143387
0.000145542
0.000141938
0.0188318
0.000145406
0.000169244
0.000130835
0.000163562
0.0284692
0.000224317
0.000165297
0.000149272
0.000142965
0.00414271
0.000153091
0.00726747
0.000141963
0.000136893
0.0106648
0.000148163
0.0017192
0.000143418
0.0001697
0.020867
0.00014672
0.000141214
0.00883481
0.000153154
0.00160476
0.000153598
0.000145115
0.00267448
0.000142528
0.000149331
0.000159282
0.000145946
0.00013746
0.000145389
0.0001526
0.0199801
0.000146615
0.034893
0.00468121
0.00248748
0.000172512
0.000347675
0.000142573
0.000144534
0.0417408
0.00367334
0.000138616
0.000146935
0.0190656
0.000133276
0.0261705
0.000141389
0.000152657
0.000133157
0.000163138
0.000141657
0.000153673
0.024181
0.000136184
0.0111546
0.000146439
0.000148317
0.000146773
0.000141294
0.000146969
0.00014339
0.000262696
0.000143071
0.000145024
0.000191688
0.000144873
0.000146184
0.00014877
0.00013447
0.000156609
0.000141871
0.000145023
0.000132824
0.00915433
0.000140707
0.009453
0.000140622
0.000289147
0.000155321
0.000141033
0.000152931
0.000146619
0.00512009
0.000140297
0.0316264
0.000135552
0.00014187
0.000149253
0.0222268
0.000166716
0.0320404
0.000244391
0.000148154
0.000142381
0.00017933
0.000156628
0.00016251
0.00759986
0.0190799
0.000145502
0.000144881
0.000170677
0.000143027
0.000143255
0.000142838
0.000137463
0.00015918
0.0244433
0.000154018
0.0029385
0.00013787
0.000162139
0.000130445
0.000154349
0.000155148
0.000143008
0.000179761
0.000140949
0.000144118
0.000133118
0.000143585
0.000146703
0.000718203
0.000142192
0.000142368
0.00872529
0.000147347
0.000147928
0.000614767
0.000290416
0.000155639
0.000161684
0.000149776
0.000146721
0.000145186
0.000150969
0.00014857
0.000140653
0.000141841
0.00014066
0.00114995
0.000202933
0.00014266
0.00510906
0.000170363
0.00013734
0.000146943
0.000143897
0.0171266
0.000142209
0.0312858
0.000134081
0.000140978
0.000178501
0.000142654
0.000159531
0.0113964
0.000159402
0.00013723
0.0369397
0.000147114
0.000137383
0.000141682
0.000172986
0.000139613
0.000137286
0.000142431
0.000139599
0.00593398
0.000167394
0.000168712
0.000147147
0.000141452
0.000140548
0.000144479
0.000147124
0.000142578
0.00365582
0.000237781
0.000133506
0.000143603
0.0409948
0.000142964
0.000187263
0.000171051
0.000146101
0.000182543
0.00276753
0.000143346
0.000209216
0.000132011
0.0254521
0.000154674
0.00217981
0.000141312
0.000140753
0.000148419
0.00827256
0.000143094
0.00177351
0.00447016
0.0076203
0.000160413
0.0311376
0.000162621
0.00016106
0.00015671
0.000143269
0.00525963
0.000145359
0.000267451
0.000132764
0.000567377
0.000152954
0.000147429
0.000140441
0.000226971
0.000132924
0.000142614
0.000148701
0.000150268
0.000154613
0.000141542
0.000142373
0.000142796
0.000142631
0.000432377
0.000140375
0.0183736
0.0284283
0.000140473
0.000151535
0.000163475
0.000146982
0.000142799
0.000146508
0.00014678
0.000154537
0.000148244
0.000150266
0.000136986
0.000144354
0.000148671
0.00015329
0.000146413
0.000150036
0.00905282
0.000142899
0.000261134
0.00015242
0.000148515
0.000142455
0.000138253
0.00014333
0.000143723
0.000140874
0.000154509
0.000130165
0.000140695
0.000153851
0.000141757
0.000152718
0.000132538
0.000147469
0.000159838
0.000145103
0.000151979
0.000148414
0.000157754
0.00015383
0.000140519
0.000142536
0.000137198
0.000134068
0.000147696
0.000134359
0.000140108
0.000142971
0.000132898
0.0001636
0.00014394
0.000154234
0.000143106
0.000267729
0.000140786
0.000133087
0.000177827
0.000131729
0.000143749
0.000231477
0.000143797
0.000151403
0.000155434
0.000202322
0.000138321
0.000173384
0.0122088
0.0128228
0.00101072
0.000143557
0.000143185
0.0145294
0.000161713
0.000132917
0.000686239
0.000282676
0.0346686
0.000142627
0.000175865
0.000143205
0.000143048
0.0232998
0.000141853
0.000211116
0.00018165
0.00020346
0.000140412
0.000152387
0.00014833
0.000217003
0.0139307
0.000141592
0.000179182
0.000153641
0.000140068
0.000146558
0.000173918
0.00160982
0.000141132
0.000177231
0.000160621
0.00866139
0.000180201
0.0092303
0.00848902
0.000142618
0.00015542
0.0265061
0.000140793
0.000141663
0.000158018
0.000145964
0.000132798
0.0256275
0.000132768
0.018505
0.000149697
0.00102732
0.00018003
0.00014466
0.038745
0.0025451
0.000147311
0.00249103
0.000154817
0.000186085
0.000132849
0.000131556
0.00559183
0.000142825
0.0162557
0.000140408
0.013344
0.000137427
0.000392478
0.00604501
0.000143068
0.0397374
0.000143676
0.000148895
0.000161989
0.0254453
0.026673
0.000134656
0.000137708
0.000133202
0.0122706
0.0133267
0.000153229
0.000150412
0.000186761
0.00013301
0.000140431
0.000142279
0.000214184
0.000149659
0.000143297
0.000142731
0.000138844
0.0012992
0.0388489
0.000221577
0.000137261
0.000140048
0.000257125
0.000141751
0.00244238
0.000171512
0.0178821
0.00190813
0.0122257
0.000139318
0.000144675
0.000150964
0.000148204
0.000153753
0.000142069
0.000176374
0.0128789
0.000137089
0.00600751
0.000138783
0.000167163
0.000145862
0.00274763
0.000154843
0.000158209
0.000141234
0.000140221
0.000174959
0.0113653
0.0257279
0.000143459
0.000165666
0.000150696
0.000150467
0.000152995
0.000497803
0.000162342
0.000186621
0.000139282
0.00015411
0.000141506
0.000132776
0.000157126
0.000140261
0.00946691
0.000141571
0.000150771
0.000152769
0.000156232
0.000132786
0.000185063
0.000152234
0.000147791
0.000139428
0.000140516
0.01264
0.000140882
0.00905256
0.000137328
0.000174608
0.00014246
0.000192143
0.000147626
0.0186084
0.000145124
0.000143054
0.000139698
0.0133997
0.0132326
0.000425068
0.0344736
0.000471588
0.000142714
0.000150769
0.00744109
0.000133402
0.00514766
0.00557579
0.000194439
0.0287669
0.000150364
0.011988
0.000147409
0.00898815
0.00835176
0.000150211
0.00014564
0.0123543
0.00031097
0.00016068
0.000152748
0.000141966
0.000143042
0.000159784
0.000147461
0.000134048
0.000148402
0.000170507
0.00016208
0.000149105
0.0102097
0.000139844
0.000134377
0.000700292
0.00196204
0.000160498
0.00014791
0.000191874
0.000137584
0.00013337
0.00885504
0.000132937
0.000149924
0.0123833
0.0124484
0.000143068
0.000677958
0.0307338
0.00631823
0.00315902
0.00087241
0.000150662
0.000320796
0.000145974
0.000139197
0.000143052
0.000154223
0.000152392
0.0385279
0.000146282
0.00943348
0.000138848
0.000179333
0.000146952
0.000160452
0.000152869
0.000141256
0.000171207
0.000138914
0.000133788
0.000629198
0.000199288
0.000158202
0.00014465
0.000133788
0.0132393
0.0289501
0.000146531
0.00013038
0.00013017
0.000137046
0.000146466
0.00058201
0.000790715
0.00271408
0.000163035
0.00607976
0.00014339
0.000160844
0.000151799
0.000151599
0.0330828
0.000141325
0.00014048
0.00440349
0.000163554
0.000433632
0.000140982
0.0114888
0.0101546
0.000160825
0.000164283
0.000150299
0.000985715
0.000144268
0.000152167
0.0103378
0.000144224
0.000141077
0.00017665
0.000145456
0.00013706
0.000140374
0.0398629
0.000145815
0.000152494
0.000649836
0.000163326
0.000155905
0.000165714
0.00155777
0.00432399
0.00116466
0.000133817
0.00014484
0.000147946
0.000152577
0.000147056
0.000420062
0.0068038
0.000150263
0.00153809
0.000172024
0.000778901
0.000145101
0.0112135
0.000142294
0.0131676
0.000185885
0.000137722
0.0242488
0.0182714
0.000139464
0.000144295
0.000143507
0.00180401
0.000608667
0.000158536
0.000185229
0.000172926
0.000150644
0.00308402
0.00140021
0.000141307
0.00014334
0.0409612
0.000748629
0.000141182
0.000142515
0.000134673
0.000146583
0.000144774
0.000151833
0.00341618
0.000142491
0.00014743
0.00179692
0.00014618
0.000153515
0.000154703
0.000402971
0.000144894
0.000144082
0.000988204
0.00014734
0.000133577
0.00014769
0.000139797
0.000149808
0.00717259
0.00160757
0.00014334
0.000755558
0.000149724
0.000218831
0.000143063
0.000143296
0.000149277
0.00014591
0.0133054
0.000142363
0.000150972
0.000158756
0.000145064
0.000140347
0.000152169
0.000142077
0.000243656
0.000144599
0.000140885
0.00210067
0.00014117
0.0064716
0.000150229
0.000140393
0.000274713
0.000143736
0.000157914
0.0305869
0.000135541
0.000377979
0.000140279
0.000143255
0.0142601
0.00500997
0.000135783
0.000144451
0.000138111
0.000145969
0.000186124
0.000148834
0.000143465
0.000150081
0.000142703
0.000147752
0.000142519
0.000137118
0.000140173
0.000141861
0.000488977
0.000153751
0.000134231
0.000164254
0.000145878
0.000557726
0.000171351
0.000158473
0.000144279
0.000142218
0.000186173
0.000151927
0.000143628
0.000145375
0.00888418
0.000351619
0.000143136
0.00013223
0.000180321
0.000191443
0.000131433
0.00993781
0.0001675
0.000143604
0.00014741
0.000141801
0.000145596
0.000162612
0.000909905
0.000142063
0.00506822
0.000116044
0.000202418
0.000132336
0.000143113
0.000132261
0.000132185
0.000203349
0.000141126
0.00046051
0.000185343
0.000132196
0.000147668
0.0001573
0.000157488
0.000145992
0.000143276
0.000147634
0.0189345
0.000132251
0.000144393
0.00548202
0.000145478
0.000145531
0.000157986
0.000141264
0.000145735
0.000141889
0.000144295
0.000146324
0.000156689
0.0246905
0.000207409
0.000132363
0.000143601
0.000132284
0.0067536
0.000140607
0.000154732
0.000142792
0.000135477
0.000150754
0.000136809
0.00015572
0.000143484
0.000136939
0.000592776
0.00992907
0.000146316
0.000145141
0.000140174
0.000894282
0.000257086
0.00014329
0.0106607
0.00451311
0.000159258
0.000171193
0.00984921
0.000153369
0.00607565
0.000185332
0.000200391
0.000141943
0.000158485
0.00023347
0.000136716
0.000672947
0.0154888
0.000143281
0.000575034
0.00237515
0.000159854
0.00774087
0.000132644
0.000155048
0.000178506
0.000142247
0.0133552
0.000132863
0.000165726
0.000114721
0.000132472
0.000198109
0.000146141
0.000147652
0.000158957
0.000150724
0.000264884
0.040644
0.000133989
0.000152134
0.0321307
0.000138299
0.000151508
0.000139023
0.00820277
0.000263095
0.000142243
0.000141455
0.000151725
0.0037505
0.0416798
0.000155138
0.000132489
0.000139703
0.0350844
0.00160179
0.00076125
0.000151043
0.000151146
0.000152873
0.000133614
0.000149734
0.000162618
0.000151215
0.000139395
0.000162284
0.0109299
0.000175482
0.000140256
0.000323054
0.000153791
8.25821e-05
0.00135945
0.00018217
0.00835817
0.0309184
0.000132658
0.00020114
0.00020005
0.0165775
0.0025611
0.000142352
0.000215235
0.0129652
0.000176338
0.000156359
0.00267951
0.00105683
0.000141101
0.000152204
0.000151346
0.000142075
0.000181864
0.000142487
0.000161777
0.000137745
0.000133155
0.000145683
0.000143202
0.000150452
0.000152211
0.0104004
0.000161781
0.0128929
0.000139111
0.00015305
0.000145082
0.00926425
0.0017704
0.000141876
0.000177834
0.00014175
0.000135234
0.000142658
0.000135158
0.00014103
0.0100586
0.000145532
0.00038548
0.000144173
0.000140099
0.0116277
0.0001504
0.000146876
0.000141478
0.000142368
0.000842236
0.000180575
0.0103626
0.000318018
0.000413647
0.00014468
0.000146525
0.000141743
0.000151207
0.000188775
0.000185196
0.0325421
0.000140429
0.000175837
0.00014828
0.000434818
0.0295426
0.000151443
0.00916274
0.0167627
0.000152019
0.000175141
0.000139614
0.000169972
0.000146395
0.000205892
0.000168745
0.00013288
0.00169493
0.00628029
0.00014599
0.00014936
0.000147339
0.000377358
0.00016363
0.000146453
0.0171715
0.000139016
0.0234786
0.000150244
0.000159428
0.000148079
0.000146905
0.000210424
0.000141591
0.000309192
0.00015123
0.000142649
0.000138367
0.000280633
0.000149906
0.0367786
0.000145824
0.00016198
0.000155798
0.00017801
0.000149737
0.000142837
0.0054419
0.000146165
0.000136637
0.000203408
0.00569254
0.000161579
0.0001372
0.000145474
0.00124402
0.000135455
0.000141657
0.000208921
0.000137281
0.0253847
0.000197025
0.00014749
0.000141384
0.000229382
0.000140178
0.000138521
0.00014319
0.000192553
0.0403337
0.000155859
0.000160368
0.000146695
0.000147777
0.0106284
0.000157189
0.000156308
0.000146341
0.000140791
0.00994896
0.00763719
0.00422319
0.000142145
0.000230358
0.000135325
0.000134898
0.000142948
0.00014764
0.000171654
0.000143053
0.000194958
0.00599461
0.00341571
0.000151081
0.00014451
0.000144881
0.000170891
0.000137657
0.000142335
0.0001722
0.000144634
0.000142389
0.000148835
0.00016115
0.000133259
0.00133598
0.000166625
0.000160231
0.00015059
0.000177847
0.000150138
0.0380845
0.000143207
0.000142366
0.000144348
0.000140888
0.000144171
0.000139389
0.0378672
0.00680925
0.000145316
0.000148705
0.000142177
0.000159985
0.000151169
0.000195196
0.000148149
0.0173276
0.000142717
0.000147447
0.000156421
0.000205072
0.000144319
0.0397026
0.000144272
0.000144881
0.000130226
0.0374893
0.000150889
0.000197597
0.0318122
0.000147906
0.000144252
0.000141474
0.000143488
0.000154617
0.000147839
0.000152427
0.0020884
0.000145306
0.000206559
0.0387383
0.000151422
0.000230861
0.000144637
0.000150502
0.000140326
0.000136542
0.000135419
0.000143094
0.000934586
0.00022435
0.00013919
0.00927624
0.00114897
0.000142305
0.000219774
0.000136309
0.000172005
0.000148646
0.000140695
0.000313457
0.000144521
0.000151626
0.000154516
0.000198355
0.000192548
0.000148052
0.000140262
0.000149797
0.0344117
0.000180574
0.000162207
0.000153466
0.000144146
0.000143543
0.00490905
0.000145532
0.00015811
0.000174292
0.0184068
0.000144366
0.000161369
0.000144221
0.000147164
0.000170305
0.000157547
0.000168501
0.000148031
0.000147313
0.000154105
0.000595999
0.000111456
0.000136685
0.000151894
0.000193794
0.000151552
0.00017178
0.000145761
0.00014679
0.000142994
0.000102861
0.000240424
0.000203208
0.000144298
0.0005937
0.000160138
0.000155272
0.000144544
0.000143012
0.00014312
0.000135077
0.000194997
0.000144243
0.000149477
0.000148092
0.000143125
0.00014423
0.000271369
0.000143497
0.000143406
0.000147004
0.000204119
0.0387175
0.000144002
0.000141668
0.000144202
0.00393279
0.000148332
0.0361551
0.00014443
0.000191589
0.000144105
0.000145246
0.000138319
0.00014647
0.000159205
0.000146422
0.000143825
0.00013648
0.000150363
0.00024818
0.00014626
0.000147801
0.0124805
0.000144665
0.000149328
0.000147888
0.000145334
0.000142233
0.000148049
0.000776731
0.000138603
0.000139098
0.000140096
0.0149463
0.000153265
0.0102122
0.000144881
0.000146057
0.00023123
0.00292207
0.00839186
0.00015268
0.000165155
0.0087983
0.000144773
0.0119841
0.000146361
0.000201697
0.000140229
0.000209869
0.000901971
0.000130349
0.000153438
0.000189203
0.000149342
0.000134433
0.000702559
0.000139692
0.0085738
0.000146214
0.00014338
0.000147117
0.000134455
0.000147146
0.000145161
0.000143116
0.000141523
0.000141516
0.000144941
0.000143238
0.000106744
0.00120679
0.00704181
0.000144683
0.000136088
0.000150974
0.000144221
0.000142904
0.000192941
0.00016563
0.000146886
0.00014281
0.000159254
0.000150632
0.000256485
0.000749003
0.000151008
0.000136046
0.000142544
0.000151728
0.00899498
0.000143664
0.000142083
0.000226468
0.000216491
0.000169344
0.00152522
0.000142705
0.000159798
0.000159427
0.000133178
0.00014669
0.014363
0.00855174
0.0134093
0.000142444
0.000231605
0.000146754
0.000144323
0.000162369
0.000147465
0.000162652
0.000157552
0.000142185
0.000144192
0.000142869
0.000139605
0.000132976
0.000141486
0.0001555
0.00396034
0.000239082
0.000130228
0.000133144
0.000142448
0.000147165
0.000142979
0.000198719
0.000147608
0.000147735
0.00014759
0.00864799
0.000142293
0.000152297
0.00127573
0.000142711
0.00014252
0.00276324
0.000142051
0.000143122
0.000142147
0.0170612
0.000256428
0.000174755
0.000147081
0.00576985
0.000135483
0.000134713
0.000136738
0.000142313
0.000179037
0.000142442
0.00014597
0.000168694
0.000143166
0.012449
0.000144156
0.000160112
0.000146646
0.000115637
0.00015736
0.000144425
0.00014148
0.000147449
0.000145098
0.000142891
0.015736
0.000140288
0.000113426
0.000141742
0.00014417
0.0249887
0.000141042
0.0282521
0.000193085
0.000142677
0.00245297
0.000141606
0.000146834
0.000142296
0.00014697
0.00013844
0.000142958
0.000142682
0.00014315
0.0353596
0.00014467
0.000140261
0.00014707
0.000138927
0.000142006
0.000142014
0.000143576
0.00013712
0.000142709
0.000142444
0.000143198
0.000142347
0.000147773
0.0227034
0.000140854
0.000147054
0.000168613
0.00804575
0.000135901
0.000148427
0.000140344
0.000143468
0.000142569
0.000143575
0.00658358
0.00846636
0.000141347
0.00015048
0.0136614
0.000144963
0.00015713
0.00160742
0.000133093
0.0345343
0.000144326
0.00342538
0.000154525
0.000231868
0.000290606
0.0192867
0.000140437
0.00014131
0.000135335
0.000155849
0.000146835
0.000149883
0.00380214
0.0175297
0.00014328
0.0363586
0.00018247
0.000142118
0.000136533
0.000170575
0.000168412
0.000142652
0.000140699
0.000136818
0.00016076
0.000160564
0.00016278
0.000160541
0.000161423
0.000201677
0.000141082
0.00014229
0.000141659
0.000324847
0.000162411
0.000163056
0.0361306
0.000205742
0.000176679
0.000140827
0.000162149
0.000142102
0.000159771
0.000143062
0.000148477
0.000192523
0.000150605
0.000209748
0.000133177
0.00818633
0.000169146
0.000206526
0.0127348
0.00025138
0.000141391
0.000142986
0.000142922
0.00137918
0.000143525
0.000139645
0.000142967
0.000165007
0.024272
0.00361731
0.00016094
0.000172554
0.000199795
0.000171036
0.00801529
0.00015743
0.000175798
0.000163317
0.000218159
0.00113195
0.000141349
0.000141446
0.000141524
0.000419257
0.000182221
0.000174827
0.000146791
0.000142222
0.000142145
0.000481477
0.000141802
0.000141887
0.000140955
0.00016968
0.000140097
0.00014167
0.000136217
0.00015403
0.000238311
0.000160821
0.000159521
0.000144458
0.0302903
0.000151136
0.000135101
0.00014284
0.000160739
0.000269405
0.000144845
0.00014506
0.0170869
0.00014163
0.000140516
0.000140195
0.000143391
0.000174027
0.000140533
0.000145137
0.000141375
0.000145719
0.00014225
0.000141561
0.000140985
0.000142251
0.000142943
0.00101155
0.000142245
0.000138292
0.000173185
0.000192044
0.000160632
0.000177332
0.000140341
4.14372e-05
0.00014256
0.000153587
0.000141157
0.000195421
0.000141374
0.000142149
0.000134511
0.000191228
0.000162197
0.00014196
0.00022477
0.000142047
0.000134507
0.000142084
0.00014819
0.000156473
0.000140144
0.00136351
0.000144045
0.000179704
0.000186178
0.000142954
0.00015847
0.00014055
0.000137748
0.000141867
0.0228535
0.000147193
0.000149164
0.000169209
0.000258034
0.000153059
0.000171692
0.000162969
0.000142727
0.000132448
0.0235419
0.000189801
0.000140356
0.000167186
0.000139564
0.000140627
0.00800701
0.000137409
0.000142557
7.85675e-05
0.000172009
0.00114552
0.000142621
0.000140776
0.000278512
0.000140027
0.000135858
0.000225942
0.00014198
0.00015414
0.000232175
0.0184091
0.000142921
0.000148865
0.000141441
0.000134195
0.000161084
0.00014531
0.000143423
0.000169174
0.000138113
0.000182534
0.000143058
0.000149366
0.000159324
0.00165012
0.000160959
0.000145308
0.000246891
0.0105593
0.000142237
0.000184797
0.000145083
0.000142466
0.000142848
0.000140292
0.000160387
9.05283e-05
0.000183964
0.000141738
0.000161253
0.000145582
0.000131926
0.000140768
0.000142521
0.000148596
0.000139115
0.000141493
0.000145858
0.000143479
0.0018175
0.000143145
0.000146073
0.000192374
0.000146267
0.000135178
0.0058307
0.00600836
0.00356418
0.000727361
0.000180531
0.000137628
0.000148391
0.00021224
0.0246405
0.000165565
0.00627583
0.00745659
0.000144211
0.00837777
0.00153693
0.000144418
0.000179056
0.000147804
0.000988553
0.000190379
0.0232977
0.000147946
0.000140461
0.000188369
0.00014241
0.00014301
0.000441847
0.0313111
0.000142998
0.000143558
0.000141187
0.0264774
0.000141129
0.000140935
0.000142145
0.000140526
0.000140605
0.000178369
0.000147042
0.000140174
0.000143111
0.000162816
0.000194335
0.000872569
0.000142591
0.000141485
0.000150459
0.000142528
0.000140427
0.000141448
0.0115265
0.000142139
0.000166862
0.000141514
0.000143591
0.000135894
0.000142824
0.000361402
0.000195432
0.000137212
0.000144458
0.00113746
0.00502877
0.000170551
0.00131469
0.000142738
0.000163137
0.000141318
0.000131863
0.000141264
0.000134721
0.00014102
0.000142233
0.000145212
0.0386639
0.000133195
0.000192709
0.0011493
0.00013419
0.000157791
0.000181972
0.00014753
0.000141449
0.00014201
0.000140832
0.000140657
0.0116106
0.00013266
0.000140923
0.00019342
0.000141261
0.000142607
0.000140358
0.000319688
0.000143265
0.000143157
0.00102431
0.000138035
0.00013758
0.00014116
0.000253939
0.00014226
0.00013094
0.000141242
0.000133566
0.000211712
0.0061418
0.000140721
0.000263508
0.000132267
0.000142338
0.000142473
0.00584688
0.0151689
0.000133334
0.000147619
0.000142795
0.000141585
0.000141234
0.000141232
0.00012993
0.01211
0.000142559
0.000147514
0.000170771
0.000140194
0.000140982
0.00016126
0.000161342
0.000787924
0.000142677
0.00015285
0.0207397
0.000141422
0.000159973
0.000948423
0.000247716
0.000143103
0.000140049
0.000142316
0.000141378
0.000140256
0.00805138
0.000140866
0.0196564
0.000226227
0.000147069
0.000160189
0.00331268
0.000137699
0.000186332
0.0146898
0.000179651
0.000154355
0.000141818
0.000150244
0.000307681
0.000139131
0.000152037
0.00014011
0.000133361
0.000133822
0.000134388
0.000141476
0.00945036
0.000144844
0.00943042
0.000653799
0.000194394
0.00035416
0.000132088
0.000143194
0.000149199
0.000252503
0.000141732
0.000869814
0.00012011
0.000133297
0.000139935
0.00802566
0.000139877
0.000153843
0.00806967
0.000140865
0.00953404
0.000147162
0.000163028
0.000212522
0.000143301
0.000137527
0.000160413
0.000212436
0.000141962
0.000150683
0.000134606
0.000142361
0.000139438
0.0148247
0.000140378
0.000135352
0.000169385
0.000134177
0.00936836
0.000143444
0.000141771
0.000141285
0.000216984
0.00014019
0.000139618
0.0337679
0.000213951
0.000831307
0.000142302
0.000134357
0.000157696
0.000984762
0.000297483
0.000153131
0.000159673
0.000160836
0.000144578
0.000142427
0.000162962
0.000146821
0.000141018
0.000136357
0.000158159
0.000163053
0.000139862
0.000130712
0.000144345
0.000137446
0.000141139
0.000163527
0.000185455
0.00624977
0.000152484
0.0401379
0.0101956
0.000137817
0.000140017
0.00014818
0.000169503
0.000136433
0.0001427
0.000139769
0.000140361
0.00014155
0.000178551
0.000142444
0.000175684
0.000142371
0.000139196
2.47481e-05
0.000176749
0.000142409
0.00013941
0.000139273
0.000376971
0.000253979
0.000144127
0.000135331
0.000163959
0.000139946
0.000142154
0.000140529
0.000110661
0.000140459
0.000139262
0.000179596
0.000136922
0.000122819
0.000160142
0.000140659
0.00014274
0.000447547
0.000171278
0.00742717
0.027369
0.000159538
0.000149394
0.000146145
0.00014228
0.000155142
0.000139027
0.000306787
0.00379161
0.000149903
0.000169298
0.000112015
0.00013921
0.00420934
0.000145239
0.0286601
0.000171028
0.000138774
0.000138882
0.000146827
0.000141089
0.00017655
0.0121385
0.000163051
0.000141783
0.000139655
0.000139344
0.000177934
0.000145463
0.00023233
0.000139518
0.000141369
0.000161732
0.00014056
0.000265546
0.00017362
0.000139455
0.000143169
0.000131713
0.000141673
0.010282
0.000382096
0.000139349
0.000140814
0.000138001
0.00457628
0.000141589
0.000150645
0.000292932
0.000173901
0.0280751
0.000182609
0.000200938
0.00014222
0.00015665
0.000144885
0.000141
0.000149557
0.000188915
0.000136837
0.000141224
0.000166477
0.000142324
0.000135502
0.010281
0.000134624
0.000140789
0.000164675
0.000268957
0.000133349
0.000135073
0.000184963
0.0139438
0.000183525
0.00346985
0.00014749
0.000373715
0.000140301
0.000186789
0.000170265
0.000241762
0.0198886
0.000207393
0.000924936
0.000196919
0.00536483
0.000137601
0.000140606
0.000136107
0.000142264
0.00393562
0.000138683
0.00018902
0.000135918
0.000142115
0.000142757
0.0187645
0.00014278
0.000289716
0.000148497
0.000148181
0.000200462
0.000179314
0.000345004
0.000131484
0.000176896
0.000142247
0.000394807
0.000143292
0.000165322
3.71541e-05
0.000176206
0.00429928
0.000138846
0.000262643
0.000159841
0.000173148
0.000143481
0.000689595
0.00014385
0.000139601
0.000141937
0.000506041
0.000143946
0.000153044
0.000168525
0.000149852
0.000870947
0.000139252
0.000133266
0.00134926
0.000179854
0.00949274
0.00357488
0.000139241
0.000221636
0.0187046
0.000186877
0.000138069
0.000167466
0.00982677
0.000138688
0.000159095
0.000131976
0.000184699
0.010721
0.00848683
0.000168584
0.000138922
0.000137961
0.00014651
0.000134811
0.00019218
0.000160979
0.00014793
0.00013692
0.00756359
0.000142565
0.000141305
0.000150891
0.00830141
0.000284858
0.000141109
0.000152412
0.00019889
0.00246739
0.000138783
0.00212469
0.00014265
0.000163567
0.00156279
0.000141827
0.00841661
0.000136447
0.000133761
0.000138887
0.000139171
0.000137898
0.000139055
0.000131817
0.000185678
0.000159881
0.000140439
0.010023
0.000139454
0.000141567
0.000137821
0.00388752
0.000140497
0.00015053
0.000170043
0.00016387
0.000139761
0.000131905
0.00141717
0.000141934
0.00690473
0.00594557
0.00014152
0.000146199
0.000156248
5.76585e-05
0.00022998
0.000135222
0.000137802
0.000151866
0.00015822
0.000149946
0.00018883
0.000164265
0.000187258
0.000146354
0.000145866
0.000148203
0.000159947
0.00412938
0.000137271
0.00759928
0.00015784
0.000142489
0.000139852
0.000139461
0.00013927
0.000137863
0.000140463
0.00013852
0.00014257
8.02825e-05
0.000146735
0.000141622
0.000150077
0.000151685
0.000137493
0.000138288
0.037363
0.000146375
0.000145404
0.000137377
0.000141802
0.000137233
0.000133078
0.0153815
0.000142948
0.000140973
0.00346923
0.00215671
0.000590346
0.000139527
0.0248889
0.000144164
0.0293385
0.00719438
0.000144616
0.00626561
0.000138087
0.000135742
0.000530152
0.000139283
0.000191858
0.0248418
0.00486879
0.000160392
0.000200674
0.000141129
0.000139081
0.000154552
0.000137879
0.00414718
0.000840455
0.000139431
0.0106531
0.000194593
0.000131579
0.000137985
0.000116372
8.54169e-05
0.000191706