/*--------------------------------*- C++ -*----------------------------------*\
| =========                 |                                                 |
| \\      /  F ield         | OpenFOAM: The Open Source CFD Toolbox           |
|  \\    /   O peration     | Version:  v2012                                 |
|   \\  /    A nd           | Website:  www.openfoam.com                      |
|    \\/     M anipulation  |                                                 |
\*---------------------------------------------------------------------------*/
FoamFile
{
    version     2.0;
    format      ascii;
    class       volScalarField;
    location    "550";
    object      p;
}
// * * * * * * * * * * * * * * * * * * * * * * * * * * * * * * * * * * * * * //

dimensions      [0 2 -2 0 0 0 0];


internalField   nonuniform List<scalar> 
9793
(
-0.0218973
-0.000949631
-0.0342093
0.0045847
-0.301064
0.00585575
0.00317584
0.00322594
0.00429994
-0.330125
0.0307079
-0.019469
0.00454041
0.00109086
0.00249108
0.0010057
0.00213373
0.00208073
-0.0562617
0.00112134
0.00847165
0.00608555
-0.033385
-2.7204e-05
0.00362138
0.00457952
0.000995422
0.00228608
0.0227703
0.00443437
0.0061153
-0.026863
0.0178814
0.0011168
0.021557
-0.0147632
0.00303908
0.00601279
0.00308872
0.00171742
0.00567582
0.00230793
0.00440269
0.00279187
0.00457451
0.00449621
0.023191
0.00159504
0.00547842
0.00458508
0.0228846
0.036527
0.00602671
0.00512574
0.00689859
-0.0485483
0.00596913
0.0365316
0.00181553
0.00311571
0.00168502
0.00611058
0.00662855
0.00545753
-0.206496
0.0166557
0.00737001
0.0074554
-0.00920575
0.0302416
-0.00268849
-9.31463e-05
0.00499426
-0.0014504
0.016869
0.00486531
0.00580394
-4.56128e-05
0.00313228
0.00270188
0.0171235
0.00299662
-0.000553092
0.000490976
0.00578369
0.00105065
0.00272703
0.00565641
0.00602079
0.00281551
-0.00211798
-0.108995
0.000733035
-0.0196885
0.00609494
-0.000625
-0.0281633
-0.000974074
0.000762978
0.000940337
0.000926522
0.0025463
0.0014472
0.00149439
6.2007e-05
0.00570772
0.00597289
0.00217781
0.00598724
0.00255324
-8.34297e-05
0.00751336
0.00642213
-0.0872652
0.0382278
0.00583614
0.0107549
0.0128554
0.00302965
-0.0161196
0.00249924
-3.53058e-05
0.0056324
0.00585001
0.00518863
0.0119046
0.00933554
-1.8718e-05
0.00319636
0.00523455
6.97887e-05
0.00567231
0.00522232
0.0023835
0.00453095
0.00555412
0.00558886
0.00294807
0.00645229
0.000414278
0.00565571
0.00345313
0.00378152
0.000882974
0.00119912
0.00136936
0.000146991
0.000865007
0.000932679
-0.0846699
-0.176933
-0.000160632
-0.218714
-0.368874
0.000992845
1.19139e-06
0.000194134
0.00341699
0.000863352
0.00378449
0.00318393
0.00224394
0.000788725
-0.0432015
-0.000776032
0.00941361
0.000703606
0.00795228
0.00089579
0.00265171
0.00453758
-0.0146824
-0.000871262
-0.0155307
0.00495925
-0.0493206
0.0055485
2.05163e-05
0.00522517
0.0114104
-0.0235171
0.00292638
0.000862323
0.00359483
0.000872404
0.00494277
0.0390667
0.00519544
0.0055968
0.000812526
0.00480997
0.00655977
0.00649505
0.00719643
0.00799992
0.01045
-0.0693428
0.00272826
-0.379262
0.000402315
0.0046626
-0.0294106
-0.056689
0.00528929
0.00546391
4.20039e-05
-0.00447384
0.000978311
0.00570618
0.00554012
0.0136236
0.00588566
0.00584196
0.00516226
-0.0868584
0.000269913
0.00257961
0.00453756
6.15359e-05
-0.00799984
-0.00340417
0.0057185
0.00509059
0.00662872
-0.000868573
-0.0376766
0.00584687
0.00110578
0.00370458
0.028127
9.3021e-07
7.53879e-05
0.00280695
0.000404735
0.0171054
-0.00554433
0.00641397
0.00444867
-0.0182275
0.0027081
0.00563432
0.00113346
0.00425061
0.0194979
0.00443308
0.000864143
0.00320893
0.00329145
0.000832667
0.00120977
0.00565938
0.00737164
0.0343013
0.0127882
0.00420428
0.00586095
0.00463349
0.00774618
0.00533714
0.000977046
-0.00125236
0.00448271
0.0346288
0.000852436
0.00842963
-9.7971e-06
9.14091e-05
0.0133196
-0.0312543
0.00580999
0.000977902
0.00068042
0.00518065
0.00568872
-0.00262646
-0.00220307
0.00527426
0.00832113
0.00640372
0.0107033
0.00327919
4.9629e-05
0.00223926
0.00179635
0.00712081
0.00568699
0.00566869
0.00866875
0.00324944
0.00546251
0.00636024
0.0111838
0.00581619
0.00301369
0.000207813
0.0023386
0.00560901
0.00920296
0.00595841
-0.0634655
0.00105857
0.00557894
-0.00212709
0.00198332
0.00269881
0.000965386
0.00494346
0.00646645
0.0031546
0.0110179
0.00663546
0.000969291
0.00652882
0.00574882
0.00548094
0.00276088
0.000389393
0.003841
0.00572738
0.00559348
0.00386467
-0.00113697
-0.0790914
-0.000746898
7.48485e-06
-0.0168106
0.00577739
-0.00130987
0.0131917
0.000669225
0.00123692
0.00844085
0.00254627
0.00562507
0.0378793
0.00313747
0.00452464
0.00469385
0.000978751
0.00240083
-0.0647955
0.00516361
0.00390782
-0.0667357
0.00265801
0.00101868
3.23e-05
0.00598203
0.00316041
-0.0730446
0.00540672
0.00541998
0.00566503
0.00258947
-0.0113094
0.00506337
0.00665878
5.14622e-05
0.020238
-0.0209691
0.0429944
0.021909
0.00596569
0.00227701
-0.0726375
0.00159924
-0.00147599
0.00278031
0.000394429
-0.00115318
0.0055444
-0.0914692
0.00541855
0.019123
-0.0176257
0.0043489
0.00492202
0.0156926
0.00770989
-6.16214e-05
0.00593017
0.00497197
-0.00349688
0.00591907
0.00590646
0.000543005
0.00182938
0.00101429
0.00498325
0.00596131
-0.0139798
0.00480754
-0.22872
-0.00858578
-0.0568233
0.0262717
-0.000405772
0.00145525
0.00469236
-0.200389
-0.00332192
0.00107765
0.00313281
-0.083198
0.000653953
-0.0958518
0.00449461
0.00606463
0.00061134
0.0133702
0.00513697
0.00843099
0.00220242
0.000966024
-0.04026
0.00223709
0.00554739
0.00244119
0.00279179
0.00581387
0.00130144
-0.0192296
0.00632288
0.00549243
0.039347
0.00489909
0.00522423
0.00575095
0.000714862
0.0117631
0.00361382
0.00554033
0.000489831
-0.0563664
0.00122522
-0.0517299
0.00263347
0.00701869
0.00438901
0.00259819
0.00273885
0.00488896
0.00613795
0.00276876
-0.046947
0.000908465
0.00451713
0.00591647
-0.101365
0.00549941
0.0308896
0.0065838
0.00599595
0.00594652
0.00641112
0.0117638
0.0121778
-0.00114176
0.00126931
0.00653202
0.00259368
0.0214835
0.00561228
0.00289625
0.00561726
0.00137372
0.0014665
-0.0910927
0.00906499
0.00308326
0.00130044
0.00474647
2.07753e-05
0.000949406
-3.68402e-05
0.00289735
0.0073244
0.00257597
0.00271833
0.000526261
0.00544545
0.0050933
0.00226414
0.00322549
0.00596961
-0.000484147
0.00552982
0.00531685
0.012754
0.00651257
0.000385735
0.000631237
0.00601674
0.00522957
0.00553413
0.00484119
0.00578318
0.0027044
0.00462499
0.00424909
-0.000361869
0.0370183
0.000393415
0.00100516
0.00290355
0.000833797
0.00580336
0.00306926
0.00641349
0.00315519
-0.0811562
0.000734131
0.00432602
0.0306638
0.0056125
0.0156236
-0.00357769
0.00556044
0.000823198
-0.206268
0.00543608
0.00237429
0.00413898
0.0138701
0.0034514
0.00232031
0.00612964
0.00348744
0.0144332
0.0147079
0.0031708
0.00585551
0.00408907
0.00385064
0.00514103
6.04399e-05
0.00613915
0.00930708
0.0455041
0.000721822
0.00201968
-0.233379
0.00540818
0.00255279
0.00587041
1.95674e-05
0.0344894
-0.000688685
0.00566833
0.0168776
1.99172e-05
-0.0583535
0.00829717
0.00284506
0.00497331
0.00420886
0.00208432
-0.00523625
0.00215776
0.0107829
0.0214399
-0.16907
0.0172394
-0.0926821
0.0112338
0.00271732
0.0107889
0.00211407
-0.00192596
0.00529908
0.00700881
0.000272983
0.00464249
0.00211014
0.00231092
0.00390145
0.0225714
0.000368552
0.000614525
0.00400914
0.00614391
0.00982025
0.00505504
0.00563545
0.00540414
0.00536541
-0.0639297
0.00463379
0.000560371
-0.120224
0.00463384
0.00209226
0.00415435
0.00332314
0.00564824
0.00571126
0.00444212
0.00859446
0.00209006
0.00615255
0.0022886
0.00312378
0.00582345
0.00796563
0.00572937
0.00595808
-0.0421698
0.00548075
-0.0243936
0.00626411
0.00311159
0.00562497
0.00296419
0.00222989
0.00206081
0.00436405
-1.6217e-05
-1.08793e-05
0.00388996
-0.000170162
0.00561591
0.00585433
0.000356007
0.00256671
0.0012418
0.00487901
0.00592749
0.00204936
0.0120359
0.00259099
0.00434317
0.00565788
0.0024071
2.40484e-05
0.000337782
-3.0487e-06
0.00387815
0.00551917
0.000329009
0.0156949
0.00136654
0.00236813
0.00569097
0.00603561
0.00488136
0.000580262
0.0285233
-6.46308e-05
0.00491968
0.0223069
0.00370397
0.00415758
0.000181128
0.0334381
0.00299676
0.0235235
-0.190878
-0.00564129
0.0123676
0.0049306
0.00553016
0.00196365
0.00101612
0.000516757
-0.000247986
0.00696362
-0.216739
0.00564534
0.016183
0.00555674
0.00571529
-0.092746
0.00567373
-0.00219201
-0.000438913
0.0372092
0.00429909
0.00670092
0.00581386
0.0181673
-0.0647271
0.00446731
-0.000520561
0.00420313
0.00391936
0.00542633
0.0259866
0.015853
0.00487204
0.00290347
0.00109765
-0.00204954
0.00275414
0.00961972
0.00526508
0.00283436
0.00710058
-0.0129311
0.00486016
0.00552675
0.00191635
0.0031591
0.000391056
-0.0743522
0.000450015
-0.00182406
0.00149652
-0.00119738
0.0339865
0.00507044
0.0419539
-0.010973
0.00519441
-0.000853661
0.00693301
0.0240508
0.000430551
-4.91926e-05
-0.00346348
0.00528188
-0.075208
0.00370715
0.00257097
0.00193173
0.0015783
-0.00384781
0.00281302
-0.128586
0.00649563
0.00390661
0.0178483
-0.132391
-0.139465
-0.000108896
0.00190352
0.000562288
-0.00577291
-0.0766503
0.00607133
0.00636238
0.00257475
0.000496905
0.00455037
0.00229405
-0.00182539
0.00429604
0.00534873
0.00091559
0.00312153
0.0122367
-0.199806
0.00284068
0.00238137
0.00412706
0.00578666
0.00557576
0.00291267
0.0213482
-0.000673037
0.0026735
0.00443561
0.00349096
0.00500786
0.0058834
0.00392199
0.00843432
0.00586155
0.0190255
0.00270101
0.00171007
-0.00764358
0.00311628
-0.00467273
0.00401675
0.00585899
0.00585651
0.00363621
0.00481957
-0.000459976
0.00250454
-0.00206521
-0.00985179
0.00550286
0.0113385
0.00124406
0.00613536
0.00696135
0.00176075
0.00521369
0.026991
0.00353428
0.00406261
0.00457222
0.000361081
0.00112059
0.00417026
-0.140512
0.00544155
0.00616574
0.00283311
0.000104091
0.000320313
0.00322434
0.000966666
0.00200656
0.00350939
0.00458335
-0.00600514
0.00495586
0.0108498
0.00166755
0.00305798
0.00103639
-0.00105749
0.000574999
-0.0146014
0.00563791
0.00534131
0.00403613
-0.0139276
-0.00404959
-0.00586296
0.0364958
0.0051084
0.00524274
0.00579327
-0.00529761
0.000222193
-0.00150311
-0.00260353
-0.000947254
0.0217688
0.00605155
-0.0102407
0.00495879
-0.0415227
-0.00315388
0.00603709
0.005336
-0.00869443
-0.0532915
0.00605271
0.00585982
0.00582931
0.00251294
0.00795762
0.000309007
-2.91004e-05
0.00380831
0.00359726
0.0179637
0.00611956
-0.00353853
0.0040868
4.72748e-05
0.00464555
-0.0228778
0.00563565
0.00607219
0.00282842
0.00211012
0.000172513
0.00784423
0.00024991
0.00598714
-0.0128665
-0.0133073
0.00294765
-0.00727539
0.0171899
0.0115445
0.00279355
0.000674826
0.00521166
0.0071616
0.00569881
0.00352168
0.0055535
0.000846115
0.00132651
-0.0724134
0.00289319
0.00513616
-0.00037366
-0.000878096
0.00574827
0.00777984
0.00355801
0.00250957
0.0231406
-0.000321154
8.71684e-05
0.0338132
0.000460901
0.0128579
0.00284303
0.000792189
-0.000255863
-0.0976072
-0.000688166
3.48094e-05
2.93138e-05
0.000795277
0.00327128
-0.0567172
0.0364978
0.00350387
0.0140155
-0.0043589
0.00463464
0.00605072
0.00655796
0.00662795
0.019447
0.00486818
0.00423953
0.0062701
0.0173626
-0.0138575
0.00475767
-0.00453515
-0.00509542
0.00556508
0.0150476
0.00221773
-0.0713458
0.00317018
0.0061997
0.00740115
0.00232586
0.00479723
0.00276236
0.00566437
0.00231564
0.0043281
0.0376729
0.00571201
0.00163519
-0.00231581
0.0147251
0.00574351
0.00995414
-0.00261077
0.0205569
-0.00110631
0.00013912
0.00530889
0.00378705
0.00353925
0.00140972
0.00562374
0.00591162
0.00157984
-0.00545773
0.00333601
0.0100685
0.0053326
0.00348287
0.00559687
-0.0148632
0.027385
0.00268664
-0.126506
0.00156886
0.00394702
0.00515158
0.00355737
0.0278321
-0.00728219
0.00667671
-0.00221786
0.00294866
0.000100726
-0.0144589
0.00731153
0.00272477
0.00652347
-0.0884093
-0.005208
0.00493875
0.00518419
-6.31421e-05
0.00571395
0.00562476
0.00491659
-0.0163492
0.00536361
0.00509589
-0.00847602
0.0042017
4.7592e-05
0.00575263
0.00428393
0.00507215
0.00191583
-0.000612941
0.00528566
0.000686677
0.00547072
0.00392959
0.00590915
-0.00374524
0.0151272
0.00376084
0.000407576
0.00436721
0.00281596
0.00606542
0.00228544
0.00585649
0.00570345
0.00163664
0.00265612
0.00262327
0.00624238
0.00442075
-0.000422427
0.00194281
0.00555871
0.0513074
0.00535212
0.00493508
0.00162864
0.00485076
-0.0224153
0.00485084
0.00361667
-0.00340521
0.00203339
0.0132155
-0.0468766
0.000958535
-0.00367537
0.00428968
0.00633045
-0.0745673
0.00687126
0.000934575
0.00518964
0.00283065
0.00432407
0.0244503
0.00584955
0.00469879
0.0026189
0.00255281
0.0039442
0.00533673
0.000389391
0.00436924
0.00572391
0.00929376
0.00587395
0.000357999
0.0129697
0.00314805
-0.00505339
0.00317619
0.00663088
0.00526099
0.00559943
0.0306083
0.00594889
0.00368655
0.00567592
-0.00313306
0.061125
0.00602724
0.000218243
0.0216891
0.00101
6.0771e-05
-0.0375081
0.0181033
0.00550756
0.0054756
-0.000578422
0.00486942
0.00587962
0.0131419
0.00247312
0.00340557
-0.000330592
0.00225132
0.000166072
0.00560786
0.000347695
0.000268875
0.0584445
0.00477889
0.00108951
-0.00217712
0.000317202
0.00540001
0.0045867
0.000353943
0.00396917
0.0069661
0.0059295
-0.00860115
0.000300772
0.00495484
-0.00357788
0.00495972
0.00444794
0.00368287
0.00488634
0.00429716
0.00539937
0.00504829
-0.000657381
8.06737e-05
0.0126523
0.00533521
0.000198986
0.00591314
0.000250927
0.0298938
0.00466643
0.00579233
0.00531239
0.000885806
0.0018294
0.0017777
0.00842687
0.00562011
0.00180606
0.00323966
-0.00164299
0.00730352
0.00704268
0.00439838
0.00308914
-0.0224087
0.00706372
-0.0454653
-0.0171227
0.000781616
0.00268418
-0.0075043
0.00675189
-0.00213504
0.00968119
-0.000744265
0.00545477
0.00657025
0.0522653
0.00151771
0.00329103
-0.0332696
0.00655308
-0.0519869
-0.0866052
0.00361964
-0.00257094
5.99374e-05
0.00990118
0.016578
0.00584408
-0.00105143
7.46429e-06
0.0184647
0.000866719
0.000112663
0.0052124
0.00574161
0.00708086
0.0149436
0.00326946
0.0170922
-0.131582
0.000787764
0.00707967
-0.0235653
0.00302639
0.00259906
0.00344266
-0.00497888
0.00597054
0.000742667
0.00261618
0.00140986
0.00222094
-0.0643318
0.00830091
0.000145727
0.00389671
-0.124239
-0.00476107
0.00227666
0.00599072
0.0059066
0.00695003
0.000741543
0.0036901
0.0048363
0.00595697
0.00321439
0.00456302
-0.0169012
0.00559518
0.00440393
0.0366563
0.00582793
0.00773407
-0.0359183
-0.000356764
-0.030577
-0.0615056
9.22258e-05
0.0211238
0.0188994
0.0124432
0.00214494
0.00532574
0.0268612
-0.00552807
0.0137015
0.00620805
0.00167177
0.00591505
0.00490566
0.00549986
0.00361205
0.00558693
0.0212952
0.00550857
0.000143975
0.00275962
-4.55213e-05
0.0057026
0.00553093
0.00589321
0.00290931
0.00304868
0.00554534
-0.00768832
0.00346188
0.00338405
0.00470216
-0.0528867
0.00057141
0.00544228
0.0142918
0.00244871
0.00103603
0.00620939
0.000884964
0.00472175
0.0362811
0.00455381
-0.00118428
0.00259415
0.00436454
-0.0103081
0.00534909
0.00269677
0.0053286
0.00529455
-0.0024416
0.0182699
-0.00292419
0.0319752
0.00357498
0.00485052
0.00304512
0.00256361
0.00442481
0.00999709
0.0178229
-0.195298
0.00376608
0.0109196
0.0042233
-0.0015569
-0.0424838
0.00173589
-0.0512496
-0.188311
0.00363064
0.00990039
0.0033944
0.0233859
0.00502838
0.0371593
0.0222789
3.77635e-05
-0.0745984
0.025108
0.00442946
0.00127548
0.00419942
0.0390523
0.000292825
0.00431878
-0.00637842
0.00348179
-0.113441
0.00497341
0.00632543
0.0033091
0.00425258
0.00528373
0.00527452
0.00956966
0.00282783
0.00550452
0.00306025
0.00331778
0.00593448
-0.152051
0.00503213
0.00532583
0.00623742
0.038647
0.00212407
0.00552402
-3.05072e-05
0.00336439
0.00190269
-0.00124166
-0.000863878
0.00505178
0.00234305
0.00485673
-0.0462544
-0.00385294
0.00548929
0.00234154
0.000854602
-0.000164796
3.03835e-05
0.00383217
0.00511871
0.0487861
0.00428317
0.00323254
0.00616294
0.0300584
-0.151828
0.0010564
0.00554979
0.00297505
0.00287866
-0.00585209
0.00458343
0.000656075
0.00329358
0.00466338
0.0135465
-0.125906
-0.100405
0.00556304
0.0327671
0.000973992
0.000895496
0.00213836
0.00340373
0.0194741
0.00614351
0.000374863
-0.0101239
-0.0656563
0.00374488
0.00495907
0.00482239
0.0157427
0.00273572
0.00518698
0.00239988
0.00524583
0.00550561
0.0058632
0.00616066
0.00069241
-0.0277055
0.0170142
0.00407065
0.00402071
0.000534735
0.00303467
-0.269445
0.00579771
0.00566708
0.00499462
0.00470121
0.00514201
0.00318308
0.00383252
0.0405142
0.00467931
0.00715836
0.0051319
0.00363956
0.00591135
-0.00683275
0.00457037
-0.0012988
0.0058992
0.00552668
0.000389378
0.0440403
0.00499414
-0.0327155
0.00516193
0.00512908
2.11556e-05
-0.0766799
0.00611724
-0.000581
-0.139129
0.00574497
0.00502036
0.00516224
0.0057433
0.000891129
0.00648431
0.00685261
0.00895167
0.00448269
-0.0125134
-0.0693387
0.00648132
0.0554747
0.0055615
0.00340652
0.00423212
0.00149211
0.0010135
0.00590543
-0.00050403
0.0496999
0.00356151
-0.0497061
0.00050741
0.0058581
-0.011095
0.00142252
0.00160846
0.0048978
0.00472117
-0.0309134
0.00538179
0.0038957
0.00658162
-0.0103027
0.0339867
0.00563187
0.00432015
0.00585573
-0.0918941
-0.00433654
0.00951297
0.00211192
0.00523374
0.00564804
-0.00684884
0.00570519
0.0129182
0.000782651
-0.00422786
0.00533277
0.012975
0.00555929
0.00556208
0.00289766
0.0137352
0.00365613
0.00297038
0.00397635
0.0092594
0.00788343
0.00993714
0.0018117
0.00314226
0.0275146
0.00672672
0.017358
0.0045604
0.00521963
0.00601013
-0.000742097
0.00455456
-0.00866202
0.00547171
-0.0398605
0.00388517
0.0102565
0.00484307
0.00593833
0.00629005
-0.000199732
-0.00657734
0.00223261
0.00564843
0.00433939
0.0055123
0.00529574
0.040114
0.00656522
0.00580941
0.00508752
0.00354855
-0.0665182
0.00525759
0.00472485
0.00514181
-0.00228082
0.00577523
-0.0385102
0.00529891
-0.00368345
0.00526995
0.00567526
0.0085529
0.00508241
0.0160039
0.00417349
0.0062421
0.00142854
0.00610607
0.03718
0.00573429
0.004199
-0.000394069
0.00561766
0.00589293
0.0034975
0.0056752
0.00497068
0.00558724
-0.000426642
0.00324818
0.00353854
0.0043927
-0.00700467
0.00757492
-0.0155701
0.00526466
0.00568268
0.00603471
0.00512963
-0.0125571
0.00356069
0.00642322
-0.00572638
0.00540472
-0.0165541
0.00583677
0.0245543
0.00419072
-0.000741538
-0.0015696
3.17186e-05
0.00640468
0.000688278
0.00592594
-0.000154792
0.0108676
0.003932
-0.00889903
0.00443886
0.00589427
0.00537905
-0.000124815
0.00553082
0.0610145
0.00552893
0.00534842
0.00525359
0.00564582
0.00590646
-0.00211318
-0.00223492
0.0232736
0.00542961
0.000870559
0.00446939
0.0050414
0.00554629
0.0186511
0.0201914
0.00584821
0.0063937
-0.00285788
0.00612645
-0.00381709
0.00969572
0.00590267
0.00135872
0.00620464
0.00320132
-0.0437402
0.00527565
0.00550236
0.0022095
0.0310857
0.0213215
0.00201247
0.00555417
0.00648175
0.00717748
0.000133917
0.00437281
-0.00931363
-0.00169075
-0.0125291
0.00570376
0.00384338
0.00515089
0.00554648
0.00481099
0.00358587
0.0046874
0.00474758
0.0054898
0.00524193
0.0054777
0.00390202
0.000549301
0.0046753
0.00755004
-0.00151634
-9.31731e-05
2.61154e-05
0.000652325
0.0061045
0.0043243
0.00553399
-0.000120044
0.0031087
0.0025971
0.00430086
-0.00941536
0.0056709
0.00634706
-0.00159557
0.00594876
0.00553758
-0.0833093
0.00490994
0.00620271
0.00583174
0.0132939
-0.000270115
0.007352
0.00531028
-0.00442471
0.000768063
0.000898168
0.00186995
0.00548015
0.00881298
0.00574348
0.00360251
0.0238612
0.00549357
-0.0319027
0.00192116
0.0116768
0.00402311
-0.000911873
0.00379213
0.00545878
0.00535647
0.00542713
0.00461425
0.00552933
-0.0160182
0.00455611
0.00984608
0.00534064
0.00530428
-0.177164
0.00483332
-0.128387
0.0341587
0.00551047
-0.00372217
0.00526374
0.00625859
0.00570694
0.00495994
0.00318654
0.00553229
0.00542396
0.00544122
-0.0202438
0.00519674
0.00452661
0.00391174
0.00346255
0.00551817
0.00549354
0.00603094
0.00235885
0.00632309
0.00540743
0.00646061
0.00552054
0.00562624
-0.110651
0.00273684
0.00568484
0.00486611
-0.00696662
-0.000244031
0.0014743
0.00449176
0.00293751
0.00552532
0.00540994
-0.0131065
-0.00612596
0.00525568
0.00593852
-0.00158133
0.00559557
-0.00111726
0.00903872
0.000251513
-0.133906
0.0051094
-0.000646666
0.00625581
0.00261769
-0.0271575
-0.0123712
0.00457875
0.00507545
-0.000141595
0.00593846
-0.00904043
0.00590797
-0.000151722
-0.000967915
0.00621927
-0.0531629
0.00328285
-0.000506357
0.00186859
0.00270614
0.00274022
0.00547797
0.00460558
-0.000224109
0.00595631
0.00643118
0.00531929
0.0071099
0.00549954
0.00321716
0.00470049
0.00522709
0.00534058
0.0197747
0.00492354
0.00476428
0.0404169
0.00460081
0.00274809
0.00462196
0.0044567
0.0054828
0.00967743
0.00631951
0.00574555
0.00358405
0.00637251
-0.0188302
-1.48925e-05
-0.014025
0.00803605
0.0402491
0.000986684
0.00491653
0.00508329
0.00616929
0.0060379
-0.000838831
0.00585985
0.00411606
0.00583335
0.00448783
-0.122079
6.57139e-05
0.00416691
0.00162812
0.00469459
0.0141805
-0.0168682
0.00335365
0.00409967
0.0164883
0.00537741
-0.00336822
0.00528283
0.00533497
0.00510327
0.00217697
0.00169757
0.00415148
0.000160494
0.00547405
0.00503205
0.031351
0.00540072
0.00492096
0.00478
0.00791187
0.00422041
0.00532018
0.00135798
0.00663305
-0.016376
0.00639683
0.0065708
0.00489357
-0.12122
0.00415945
-0.000175051
0.00645081
-0.00108895
0.00413316
0.00557931
0.00564591
0.0179466
0.00480755
0.00450825
0.00422485
0.0052718
0.00500874
0.00466139
0.00520533
0.00513685
0.00563623
0.00529554
0.00517206
0.00503666
0.00535637
0.00536592
0.0046329
0.00587555
0.00295426
0.00520435
-0.00335866
0.00453622
0.0158071
0.00441094
-0.000950143
0.00625866
0.00338146
0.00499593
0.00589002
0.00469643
0.00566297
0.000907931
0.00533738
0.00537657
0.00543593
-0.0153128
0.0051385
0.000892983
0.00508814
0.00697495
0.0110774
0.00412504
0.00868265
0.00523126
-0.000562704
0.00844318
0.00524457
0.00498478
0.00472102
0.00256092
0.005466
-0.109559
0.00162632
-0.000742183
0.0066966
-0.0320692
0.00232165
0.00472767
0.00510421
0.00547756
4.52674e-05
0.0177277
0.00573395
0.00457059
0.00774205
0.00335782
0.00452182
-0.000489312
0.00213507
0.00541283
-0.000129687
0.00453353
0.00770138
0.00528137
0.00468605
0.000129707
0.00412439
-0.000183274
-0.00935418
0.004975
-0.000904724
-0.0116114
-0.103439
0.00576609
0.00587986
0.00520737
-0.000126651
-0.000330563
0.0043859
0.0066146
0.00769932
0.00291701
0.00227192
0.00539525
0.00590079
0.00352968
0.0036515
0.00582043
0.00566757
0.0266087
-0.0057164
0.00508123
0.00518615
0.00564636
0.00538676
0.00520291
0.00412824
0.00381792
-0.00163761
0.00534738
0.00486593
0.00414713
0.0056905
9.19135e-05
0.00453845
0.00508706
0.00415743
0.00374745
0.00439501
0.00571692
0.00531532
0.0109932
0.00648314
0.00570139
-0.00255735
0.00571012
0.00110041
-0.00424646
-0.0219289
0.00854446
-0.0461989
0.0244501
0.0023034
0.00584704
0.00413349
-0.113459
0.00323581
-0.00314414
-0.00911742
0.0050978
-0.00122804
0.00928227
0.00558956
0.00479902
0.00565097
0.00621451
0.00403928
-0.108802
0.00579641
0.00413238
-0.00472801
0.00514107
0.00515203
-0.00236923
-0.0291461
0.00554892
0.00575937
0.00426531
-0.116471
0.0045792
0.00455837
0.00562862
0.00463569
0.00456829
0.00482899
0.00372484
0.00431369
0.005201
0.00692072
0.00278156
0.00463315
0.00538834
0.00475742
0.00587856
0.00543263
0.0044718
0.00536445
-0.143235
0.0051775
0.0152019
0.0052759
0.00522448
0.00139428
0.00542416
0.0116846
0.00384435
0.00246043
0.00531131
-0.00378639
0.00851469
0.00192969
0.00760187
0.00531427
0.00640034
0.00505785
6.71428e-05
0.00472528
0.000884364
0.00485306
0.00554074
0.00560624
-0.0113965
0.000181755
0.00788311
0.00573779
-0.000142865
0.0012515
-0.000171351
0.00573502
0.00518775
0.00575561
0.00268015
0.00413233
-0.00390078
2.81391e-05
0.00414064
0.00240665
0.00499336
0.00556348
0.0045453
0.00188527
0.00582787
0.00595067
0.00375251
0.00290421
0.002703
0.00466591
0.000548404
0.0055202
1.6502e-05
0.0050111
0.000105551
0.00282432
-0.00550064
0.00458201
-0.00189605
6.4438e-05
0.00538399
0.00230179
-0.00175967
-0.058465
0.000766951
0.00429733
0.00557424
0.00514556
0.00464449
0.00504432
-0.00184107
-0.00226405
0.00531136
0.00566762
-0.000430459
0.00447902
0.00464224
0.00542496
0.00486276
0.00301432
0.00534214
0.00594074
-0.00234115
0.0050698
0.00368587
-0.000581947
-0.0173769
0.000296524
0.00409124
0.00269514
0.0046082
0.00437507
-0.0170677
0.00459882
-0.00251508
0.00663668
0.00263804
0.00395979
-0.00488072
-0.000328428
0.00213417
-0.0115676
0.00340552
0.00644533
0.00538332
0.00399136
-0.0014278
0.00377405
-0.000841526
0.00418792
0.000737965
0.00088253
0.000914842
0.00513657
-0.0555157
0.00562984
-0.000894739
0.00101969
0.0367209
0.00962901
7.91338e-05
0.00636354
0.00164775
0.00765426
0.00538468
0.00118393
-0.000873538
0.000745074
0.00412391
-0.0189856
0.00399313
0.00254202
-0.00866009
0.00474213
-0.00210563
0.00566499
0.00449832
-0.0102756
0.00594787
0.00264953
0.00503538
-0.017233
0.00485063
0.00628231
0.00114005
0.00083533
0.00374295
-0.0228361
0.00419779
-0.000187392
0.00479694
0.000879012
-0.00445254
0.00593259
0.00555303
0.00433996
0.00437469
0.00408978
0.00383366
-0.126647
-0.00889426
0.00704124
0.00379449
0.000884655
0.00483157
7.05848e-05
0.00345133
0.0448223
0.00732557
0.00636747
0.00561037
0.00554448
0.00483747
0.00556565
0.00421364
0.0017856
0.00158127
0.00466553
0.00402673
3.68427e-05
0.00558632
0.00261893
0.00269337
0.00370079
0.00172965
-0.0127917
0.00266376
-0.0918807
-0.017751
0.00271136
0.00418566
0.00574491
0.00973565
0.000397298
0.00385314
0.00402927
0.00409088
0.00521474
0.0317432
0.00522537
-0.000696443
0.0057516
0.00324007
0.001853
0.000719654
0.00351053
0.00341006
0.00362053
0.00293042
-0.00150861
0.00556795
0.00107655
0.00106426
0.00409005
0.00553771
0.00448292
0.0583599
0.00462767
0.00365627
0.00499729
0.00216476
0.0371157
0.00378994
0.00449657
0.00550105
-0.00162505
8.22293e-05
0.00255621
-0.0874955
0.0032617
0.00369611
0.00366426
0.00586727
0.00204448
0.00326501
0.00647733
-0.0084278
0.0059342
0.00478434
-0.00210745
0.00333189
0.0073253
0.002149
-0.204134
0.00102896
0.00331784
0.00329301
0.00539727
0.00492523
0.00120607
0.000299124
0.00100477
0.0047909
0.0035595
0.00375372
0.00162213
0.00230224
0.00242181
0.00384046
0.00323952
0.000615125
0.00409059
0.00366531
0.000532738
0.00370775
0.00537132
8.10045e-05
0.00434418
-0.00414648
-0.0397294
0.00371713
0.00451403
0.00275667
-0.0057167
0.00532127
0.00259732
0.043993
0.00432369
-0.24526
0.00338623
0.00234914
0.00570846
0.0111856
0.00463682
0.00453216
0.00238989
-0.000747191
0.00212371
0.00455388
0.000368634
0.00502442
0.000151135
-0.00718352
-0.000173317
0.00409255
-3.36134e-05
0.00353671
0.000712794
0.00105355
0.00320493
-0.0120116
0.00862598
0.010781
-0.000166545
0.00218966
0.0045384
0.00257341
0.00228538
-0.00964536
0.00344597
-0.000129408
0.00196565
-0.000865975
0.0277148
0.00268193
0.00475203
0.000808483
0.00526301
-0.0044333
0.00334002
0.0140281
-0.000220093
0.00238922
0.00508129
0.000696837
0.00642282
-0.000175141
0.00406215
0.00229015
0.00210496
0.00245647
0.00106888
0.000101701
0.000696366
0.00532699
0.000178703
0.00514777
0.00446162
0.000363078
0.00365432
-0.0167642
0.00340903
0.00801973
0.00354027
0.00334809
0.00545148
0.00359993
0.0052267
0.00393702
0.00550813
-0.00218539
0.00554902
0.00237506
-0.000758272
0.0039886
0.0120903
0.00386002
0.00072055
0.00293765
0.00787982
-0.00860298
-0.00727691
0.0032928
-0.00133267
0.000577782
0.00958777
0.00285699
-0.000738054
-0.00559422
0.00329961
0.00145192
0.000192759
0.00397722
0.00206575
-0.000996078
-0.00025037
0.00349935
0.00287024
0.00524927
0.00103084
-0.000611847
0.00412044
0.00464476
0.0014631
-0.00720595
0.00224019
0.00314427
-0.000210882
0.000586179
-0.00142813
-0.000475365
0.00361232
-0.000204555
0.00482569
0.00328032
-0.00212791
0.00632776
0.0189248
-0.071146
0.00241338
-0.0362885
0.00190018
-9.98692e-05
0.00325043
0.00367016
0.00273836
0.00322639
0.000169125
0.000833573
0.00358356
0.00442089
-0.00597997
0.00359527
0.00306089
0.00279056
-0.0066327
0.00279372
0.0059336
-0.000498955
-0.000327201
0.00420256
0.000164026
0.00390402
0.00503472
0.00531253
-0.0877497
0.00296477
0.00513062
0.00481965
0.00165469
-0.0031674
0.000883842
0.00281441
0.00331484
0.00423584
0.00322417
-0.00187478
-0.000268525
-0.000377086
0.00345905
0.00180134
0.00574999
1.0196e-05
-0.00767691
0.0024974
-0.0012901
0.000164703
0.00606231
0.00409057
0.00346785
0.00339079
0.00287453
0.004393
0.00327342
0.00230111
0.000131602
0.00410512
0.00289615
0.0024267
0.0041447
0.00259937
0.00313064
-0.0372334
0.00568864
0.00244956
0.00258581
0.0024656
0.00251801
0.000664627
-0.0021778
0.00589084
0.00500949
-0.00397364
-0.00991261
0.000653614
0.00380484
-0.101941
0.0055249
-0.0624288
-0.00688824
0.00452319
-0.00879271
0.00296556
0.00139251
0.009518
0.00386288
0.0116651
-0.127695
-0.00317922
0.00387153
0.00649518
0.0025626
0.0033188
0.00206849
0.00284796
-0.0010836
-0.000965031
0.00381353
-0.00354261
-0.000639078
9.16482e-05
0.00284393
3.11729e-05
0.00277898
0.00457902
0.00209024
-0.00215561
0.00442308
0.00521787
-0.0294841
0.0117024
0.000842033
-0.00919217
-0.000286248
-0.00487018
0.000185309
0.00698138
0.0044923
7.41071e-05
-0.0989839
0.00278893
0.00327145
5.63404e-05
-0.00036126
0.00181101
0.00292969
-0.248876
-0.00378771
0.00299736
0.00300158
0.00213332
-5.84323e-05
0.00207316
0.00337092
0.00125595
0.00536849
0.00499841
0.0054149
0.00569657
0.00188222
-0.0105384
0.00606175
0.00199226
-0.00252501
0.00483539
-0.010138
0.00482362
0.000151077
0.000840312
0.00348339
0.00190997
0.00608452
-0.239594
0.00474461
0.00263105
0.00116856
0.00546724
0.00211405
0.00418231
0.0394102
0.00661423
0.0026738
-0.199578
0.00368469
0.00148684
0.00257557
0.00233823
-0.00127653
0.0430497
0.00853612
-0.0185745
0.00255462
0.00508924
0.00634664
0.00265064
0.00748242
0.00431182
0.00281676
0.00525789
0.000356795
0.000189181
0.00258303
0.00199012
0.00256782
-0.00945813
0.00399768
0.00579025
-0.0132401
0.00018179
0.00208034
-0.000212069
0.00297376
0.00339046
0.00427867
0.00408472
5.25543e-05
0.000874617
0.00376673
-0.0178467
0.00382414
0.00287615
0.00363511
0.00242423
0.00288272
0.00562974
-0.033239
0.00630193
-0.00864847
0.00853091
0.00691283
0.000489195
0.0250546
0.00464076
0.00222648
5.95738e-05
1.06759e-05
0.00381586
0.00355446
0.00127407
-0.00246457
0.00393089
0.00954609
0.00178107
0.000435596
0.00568958
0.00076082
0.00438653
0.00410888
0.00145586
0.00553471
0.00207717
0.000920118
0.00689308
0.00516088
0.0121833
-0.00116497