/*--------------------------------*- C++ -*----------------------------------*\
| =========                 |                                                 |
| \\      /  F ield         | OpenFOAM: The Open Source CFD Toolbox           |
|  \\    /   O peration     | Version:  v2012                                 |
|   \\  /    A nd           | Website:  www.openfoam.com                      |
|    \\/     M anipulation  |                                                 |
\*---------------------------------------------------------------------------*/
FoamFile
{
    version     2.0;
    format      ascii;
    class       pointVectorField;
    location    "550";
    object      pointDisplacement;
}
// * * * * * * * * * * * * * * * * * * * * * * * * * * * * * * * * * * * * * //

dimensions      [0 1 0 0 0 0 0];


internalField   nonuniform List<vector> 
10142
(
(0 0 0)
(0 0 0)
(0 0 0)
(0 0 0)
(0 0 0)
(0 0 0)
(0 0 0)
(0 0 0)
(0 0 0)
(0 0 0)
(0 0 0)
(0 0 0)
(0 0 0)
(0 0 0)
(0 0 0)
(0 0 0)
(0 0 0)
(0 0 0)
(0 0 0)
(0 0 0)
(0 0 0)
(0 0 0)
(0 0 0)
(0 0 0)
(0 0 0)
(0 0 0)
(0 0 0)
(0 0 0)
(0 0 0)
(0 0 0)
(0 0 0)
(0 0 0)
(0 0 0)
(0 0 0)
(0 0 0)
(0 0 0)
(0 0 0)
(0 0 0)
(0 0 0)
(0 0 0)
(0 0 0)
(0 0 0)
(0 0 0)
(0 0 0)
(0 0 0)
(0 0 0)
(0 0 0)
(0 0 0)
(0 0 0)
(0 0 0)
(0 0 0)
(0 0 0)
(0 0 0)
(0 0 0)
(0 0 0)
(0 0 0)
(0 0 0)
(0 0 0)
(0 0 0)
(0 0 0)
(0 0 0)
(0 0 0)
(0 0 0)
(0 0 0)
(0 0 0)
(0 0 0)
(0 0 0)
(0 0 0)
(0 0 0)
(0 0 0)
(0 0 0)
(0 0 0)
(0 0 0)
(0 0 0)
(0 0 0)
(0 0 0)
(0 0 0)
(0 0 0)
(0 0 0)
(0 0 0)
(0 0 0)
(0 0 0)
(0 0 0)
(0 0 0)
(0 0 0)
(0 0 0)
(0 0 0)
(0 0 0)
(0 0 0)
(0 0 0)
(0 0 0)
(0 0 0)
(0 0 0)
(0 0 0)
(0 0 0)
(0 0 0)
(0 0 0)
(0 0 0)
(0 0 0)
(0 0 0)
(0 0 0)
(0 0 0)
(0 0 0)
(0 0 0)
(0 0 0)
(0 0 0)
(0 0 0)
(0 0 0)
(0 0 0)
(0 0 0)
(0 0 0)
(0 0 0)
(0 0 0)
(0 0 0)
(0 0 0)
(0 0 0)
(0 0 0)
(0 0 0)
(0 0 0)
(0 0 0)
(0 0 0)
(0 0 0)
(0 0 0)
(0 0 0)
(0 0 0)
(0 0 0)
(0 0 0)
(0 0 0)
(0 0 0)
(0 0 0)
(0 0 0)
(0 0 0)
(0 0 0)
(0 0 0)
(0 0 0)
(0 0 0)
(0 0 0)
(0 0 0)
(0 0 0)
(0 0 0)
(0 0 0)
(0 0 0)
(0 0 0)
(0 0 0)
(0 0 0)
(0 0 0)
(0 0 0)
(0 0 0)
(0 0 0)
(0 0 0)
(0 0 0)
(0 0 0)
(0 0 0)
(0 0 0)
(0 0 0)
(0 0 0)
(0 0 0)
(0 0 0)
(0 0 0)
(0 0 0)
(0 0 0)
(0 0 0)
(0 0 0)
(0 0 0)
(0 0 0)
(0 0 0)
(0 0 0)
(0 0 0)
(0 0 0)
(0 0 0)
(0 0 0)
(0 0 0)
(0 0 0)
(0 0 0)
(0 0 0)
(0 0 0)
(0 0 0)
(0 0 0)
(0 0 0)
(0 0 0)
(0 0 0)
(0 0 0)
(0 0 0)
(0 0 0)
(0 0 0)
(0 0 0)
(0 0 0)
(0 0 0)
(0 0 0)
(0 0 0)
(0 0 0)
(0 0 0)
(0 0 0)
(0 0 0)
(0 0 0)
(0 0 0)
(0 0 0)
(0 0 0)
(0 0 0)
(0 0 0)
(0 0 0)
(0 0 0)
(0 0 0)
(0 0 0)
(0 0 0)
(0 0 0)
(0 0 0)
(0 0 0)
(0 0 0)
(0 0 0)
(0 0 0)
(0 0 0)
(0 0 0)
(0 0 0)
(0 0 0)
(0 0 0)
(0 0 0)
(0 0 0)
(0 0 0)
(0 0 0)
(0 0 0)
(0 0 0)
(0 0 0)
(0 0 0)
(0 0 0)
(0 0 0)
(0 0 0)
(0 0 0)
(0 0 0)
(0 0 0)
(0 0 0)
(0 0 0)
(0 0 0)
(0 0 0)
(0 0 0)
(0 0 0)
(0 0 0)
(0 0 0)
(0 0 0)
(0 0 0)
(0 0 0)
(0 0 0)
(0 0 0)
(0 0 0)
(0 0 0)
(0 0 0)
(0 0 0)
(0 0 0)
(0 0 0)
(0 0 0)
(0 0 0)
(0 0 0)
(0 0 0)
(0 0 0)
(0 0 0)
(0 0 0)
(0 0.000312141 0)
(0 0.000350786 0)
(0 0.000237524 0)
(0 0.000276371 0)
(0 0.00018577 0)
(0 0.000284266 0)
(0 0.000158756 0)
(0 0.00030655 0)
(0 0.000122149 0)
(0 0.000212086 0)
(0 0.000137186 0)
(0 9.16675e-05 0)
(0 9.26213e-05 0)
(0 0.00028759 0)
(0 8.4909e-05 0)
(0 6.77187e-05 0)
(0 6.40563e-05 0)
(0 0.000342086 0)
(0 0.00020983 0)
(0 0.00017456 0)
(0 5.16765e-05 0)
(0 3.49433e-05 0)
(0 0.000292668 0)
(0 0.000355101 0)
(0 0.000304499 0)
(0 0.000307182 0)
(0 0.000236249 0)
(0 0.000100389 0)
(0 0.000130591 0)
(0 0.000116314 0)
(0 0.000104109 0)
(0 3.39501e-05 0)
(0 2.14369e-05 0)
(0 1.84986e-05 0)
(0 0.000313571 0)
(0 0.000356799 0)
(0 0.000301577 0)
(0 0.000270566 0)
(0 0.000299584 0)
(0 0.000214721 0)
(0 0.000147823 0)
(0 0.000176294 0)
(0 0.000247554 0)
(0 5.98614e-05 0)
(0 0.00016675 0)
(0 0.000111804 0)
(0 8.35473e-05 0)
(0 6.84502e-05 0)
(0 4.74561e-05 0)
(0 8.38488e-05 0)
(0 9.2636e-06 0)
(0 0.00200371 0)
(0 0.00191862 0)
(0 0.00203217 0)
(0 0.001946 0)
(0 0.00206193 0)
(0 0.00197528 0)
(0 0.00209384 0)
(0 0.00200722 0)
(0 0.00212864 0)
(0 0.00204256 0)
(0 0.00216589 0)
(0 0.00208122 0)
(0 0.00220466 0)
(0 0.00212234 0)
(0 0.00224881 0)
(0 0.00216512 0)
(0 0.00229479 0)
(0 0.00221224 0)
(0 0.00234464 0)
(0 0.00226742 0)
(0 0.00240705 0)
(0 0.0023264 0)
(0 0.00247042 0)
(0 0.00239022 0)
(0 0.00253159 0)
(0 0.00245842 0)
(0 0.00260029 0)
(0 0.00252937 0)
(0 0.00267657 0)
(0 0.0026044 0)
(0 0.00275386 0)
(0 0.00268431 0)
(0 0.00283507 0)
(0 0.00276832 0)
(0 0.00292088 0)
(0 0.00285731 0)
(0 0.00301218 0)
(0 0.00295164 0)
(0 0.00310493 0)
(0 0.00304539 0)
(0 0.00319524 0)
(0 0.00314023 0)
(0 0.0032924 0)
(0 0.00323722 0)
(0 0.00339123 0)
(0 0.00333476 0)
(0 0.00349082 0)
(0 0.00343764 0)
(0 0.00359614 0)
(0 0.00354322 0)
(0 0.00370076 0)
(0 0.00364855 0)
(0 0.00380809 0)
(0 0.00348566 0)
(0 0.00359601 0)
(0 0.00385587 0)
(0 0.00396081 0)
(0 0.00318064 0)
(0 0.00261935 0)
(0 0.00225252 0)
(0 0.00401134 0)
(0 0.00411209 0)
(0 0.00416567 0)
(0 0.00426383 0)
(0 0.00431477 0)
(0 0.00441071 0)
(0 0.00446374 0)
(0 0.00456168 0)
(0 0.00461374 0)
(0 0.00471025 0)
(0 0.00475377 0)
(0 0.0048479 0)
(0 0.00488611 0)
(0 0.00498235 0)
(0 0.00501508 0)
(0 0.00511215 0)
(0 0.00513583 0)
(0 0.00522778 0)
(0 0.00524506 0)
(0 0.00532755 0)
(0 0.00533943 0)
(0 0.00541367 0)
(0 0.0054053 0)
(0 0.00549068 0)
(0 0.00548239 0)
(0 0.00556779 0)
(0 0.00555656 0)
(0 0.00564098 0)
(0 0.00562586 0)
(0 0.00570806 0)
(0 0.00569413 0)
(0 0.00577503 0)
(0 0.0057605 0)
(0 0.00584026 0)
(0 0.0058208 0)
(0 0.00589553 0)
(0 0.00587142 0)
(0 0.00594322 0)
(0 0.00591621 0)
(0 0.00598718 0)
(0 0.00602408 0)
(0 0.00604675 0)
(0 0.00608051 0)
(0 0.00610797 0)
(0 0.00571376 0)
(0 0.00612796 0)
(0 0.00615538 0)
(0 0.0061965 0)
(0 0.00621683 0)
(0 0.00624887 0)
(0 0.00625868 0)
(0 0.00627158 0)
(0 0.00628015 0)
(0 0.00628117 0)
(0 0.00629346 0)
(0 0.0062917 0)
(0 0.00629486 0)
(0 0.00628192 0)
(0 0.00627591 0)
(0 0.00625475 0)
(0 0.00626139 0)
(0 0.0062404 0)
(0 0.00621507 0)
(0 0.00622083 0)
(0 0.00619417 0)
(0 0.00616467 0)
(0 0.00613542 0)
(0 0.00610399 0)
(0 0.00607018 0)
(0 0.00526175 0)
(0 0.00606633 0)
(0 0.00602958 0)
(0 0.00598626 0)
(0 0.0059755 0)
(0 0.00593549 0)
(0 0.00587947 0)
(0 0.0058321 0)
(0 0.00576848 0)
(0 0.00571163 0)
(0 0.00569927 0)
(0 0.0056433 0)
(0 0.00558192 0)
(0 0.00557282 0)
(0 0.00551421 0)
(0 0.00544904 0)
(0 0.00544075 0)
(0 0.0053779 0)
(0 0.00270401 0)
(0 0.00529652 0)
(0 0.00522505 0)
(0 0.005139 0)
(0 0.00506256 0)
(0 0.00505026 0)
(0 0.00497505 0)
(0 0.00489699 0)
(0 0.00488561 0)
(0 0.00481058 0)
(0 0.00472172 0)
(0 0.00464576 0)
(0 0.00455622 0)
(0 0.00447615 0)
(0 0.00446374 0)
(0 0.00438485 0)
(0 0.0043039 0)
(0 0.00429182 0)
(0 0.00421151 0)
(0 0.00411743 0)
(0 0.00231526 0)
(0 0.00203531 0)
(0 0.00535401 0)
(0 0.00528024 0)
(0 0.00537168 0)
(0 0.00529921 0)
(0 0.00538688 0)
(0 0.00531407 0)
(0 0.00540943 0)
(0 0.00532454 0)
(0 0.00540201 0)
(0 0.0053313 0)
(0 0.00539823 0)
(0 0.0053284 0)
(0 0.00538823 0)
(0 0.00531663 0)
(0 0.00537214 0)
(0 0.00529888 0)
(0 0.00534649 0)
(0 0.00526786 0)
(0 0.00531016 0)
(0 0.00522384 0)
(0 0.00526016 0)
(0 0.00534729 0)
(0 0.00528755 0)
(0 0.00537371 0)
(0 0.00530689 0)
(0 0.00539088 0)
(0 0.00516843 0)
(0 0.00513091 0)
(0 0.00532077 0)
(0 0.00540335 0)
(0 0.00507432 0)
(0 0.00503696 0)
(0 0.00532563 0)
(0 0.00540429 0)
(0 0.00497988 0)
(0 0.00494115 0)
(0 0.00529987 0)
(0 0.00539378 0)
(0 0.00488165 0)
(0 0.00483727 0)
(0 0.00477863 0)
(0 0.004731 0)
(0 0.00529236 0)
(0 0.00537451 0)
(0 0.00467448 0)
(0 0.004629 0)
(0 0.005263 0)
(0 0.00534603 0)
(0 0.00456907 0)
(0 0.0045293 0)
(0 0.00518684 0)
(0 0.00446272 0)
(0 0.00443016 0)
(0 0.00522104 0)
(0 0.0053086 0)
(0 0.00448954 0)
(0 0.00435856 0)
(0 0.00433301 0)
(0 0.00516982 0)
(0 0.00526054 0)
(0 0.00426002 0)
(0 0.00423833 0)
(0 0.00511104 0)
(0 0.00520045 0)
(0 0.00416479 0)
(0 0.00414351 0)
(0 0.0057916 0)
(0 0.00504418 0)
(0 0.00513319 0)
(0 0.00406743 0)
(0 0.00404626 0)
(0 0.0041096 0)
(0 0.00401192 0)
(0 0.00394597 0)
(0 0.003915 0)
(0 0.00457835 0)
(0 0.0049709 0)
(0 0.00505987 0)
(0 0.00384646 0)
(0 0.00381721 0)
(0 0.00387404 0)
(0 0.00378076 0)
(0 0.003717 0)
(0 0.00368602 0)
(0 0.00361726 0)
(0 0.00359085 0)
(0 0.00489022 0)
(0 0.00497726 0)
(0 0.00514347 0)
(0 0.00505964 0)
(0 0.0048846 0)
(0 0.00496607 0)
(0 0.00495717 0)
(0 0.00374024 0)
(0 0.00188471 0)
(0 0.00351916 0)
(0 0.00349795 0)
(0 0.00513732 0)
(0 0.00504329 0)
(0 0.00486691 0)
(0 0.00494359 0)
(0 0.00476193 0)
(0 0.0048387 0)
(0 0.00501609 0)
(0 0.00491355 0)
(0 0.00473012 0)
(0 0.00480437 0)
(0 0.00407846 0)
(0 0.00498435 0)
(0 0.00487449 0)
(0 0.00468921 0)
(0 0.00476054 0)
(0 0.00457098 0)
(0 0.00464359 0)
(0 0.00483439 0)
(0 0.00471595 0)
(0 0.00452488 0)
(0 0.00459254 0)
(0 0.00477344 0)
(0 0.00465325 0)
(0 0.00446814 0)
(0 0.00453124 0)
(0 0.00342409 0)
(0 0.00340702 0)
(0 0.00343771 0)
(0 0.00433815 0)
(0 0.00440006 0)
(0 0.0045835 0)
(0 0.00445567 0)
(0 0.00426839 0)
(0 0.00432676 0)
(0 0.00524746 0)
(0 0.00541063 0)
(0 0.0045051 0)
(0 0.00437951 0)
(0 0.00419924 0)
(0 0.00425524 0)
(0 0.00407218 0)
(0 0.0041295 0)
(0 0.00430055 0)
(0 0.0041768 0)
(0 0.00400126 0)
(0 0.00405229 0)
(0 0.00422248 0)
(0 0.00410035 0)
(0 0.00392099 0)
(0 0.00396691 0)
(0 0.00378323 0)
(0 0.00382507 0)
(0 0.00399327 0)
(0 0.00385928 0)
(0 0.00368788 0)
(0 0.00372577 0)
(0 0.00388995 0)
(0 0.00375898 0)
(0 0.00359286 0)
(0 0.0036277 0)
(0 0.00346075 0)
(0 0.00349541 0)
(0 0.00365263 0)
(0 0.00352433 0)
(0 0.00336367 0)
(0 0.00339362 0)
(0 0.00333238 0)
(0 0.00331672 0)
(0 0.00338248 0)
(0 0.00329482 0)
(0 0.00334841 0)
(0 0.00326573 0)
(0 0.00320829 0)
(0 0.00318497 0)
(0 0.00312496 0)
(0 0.00310623 0)
(0 0.00354606 0)
(0 0.00341875 0)
(0 0.0032663 0)
(0 0.00329423 0)
(0 0.00314133 0)
(0 0.00316954 0)
(0 0.00331282 0)
(0 0.00318969 0)
(0 0.00304486 0)
(0 0.00306681 0)
(0 0.00321813 0)
(0 0.00308155 0)
(0 0.00294515 0)
(0 0.00295676 0)
(0 0.00308342 0)
(0 0.00296386 0)
(0 0.00283129 0)
(0 0.00283983 0)
(0 0.00296724 0)
(0 0.00284409 0)
(0 0.0029656 0)
(0 0.00284348 0)
(0 0.00295879 0)
(0 0.00283807 0)
(0 0.00272368 0)
(0 0.00271929 0)
(0 0.00282785 0)
(0 0.00270971 0)
(0 0.00260154 0)
(0 0.00259211 0)
(0 0.0026946 0)
(0 0.00257712 0)
(0 0.00267415 0)
(0 0.00255646 0)
(0 0.0026485 0)
(0 0.00253087 0)
(0 0.00261814 0)
(0 0.00250057 0)
(0 0.00241293 0)
(0 0.00238339 0)
(0 0.00246644 0)
(0 0.00235039 0)
(0 0.00242884 0)
(0 0.00231455 0)
(0 0.00238831 0)
(0 0.00227525 0)
(0 0.00234446 0)
(0 0.00220252 0)
(0 0.0022325 0)
(0 0.00229709 0)
(0 0.00218646 0)
(0 0.00224657 0)
(0 0.0021371 0)
(0 0.00219316 0)
(0 0.00208421 0)
(0 0.00213615 0)
(0 0.0024848 0)
(0 0.00202818 0)
(0 0.00202748 0)
(0 0.00207535 0)
(0 0.00196674 0)
(0 0.00201094 0)
(0 0.00466627 0)
(0 0.00304305 0)
(0 0.0030273 0)
(0 0.0019023 0)
(0 0.00194297 0)
(0 0.00330794 0)
(0 0.00224509 0)
(0 0.00295867 0)
(0 0.00294249 0)
(0 0.00451453 0)
(0 0.00183448 0)
(0 0.0018717 0)
(0 0.00179374 0)
(0 0.00197975 0)
(0 0.00190525 0)
(0 0.00201276 0)
(0 0.00193517 0)
(0 0.00245892 0)
(0 0.00548051 0)
(0 0.00286793 0)
(0 0.00300274 0)
(0 0.00287246 0)
(0 0.00182803 0)
(0 0.00185506 0)
(0 0.00204174 0)
(0 0.00273528 0)
(0 0.0017483 0)
(0 0.00177275 0)
(0 0.0016663 0)
(0 0.0016886 0)
(0 0.00158197 0)
(0 0.00160217 0)
(0 0.00170806 0)
(0 0.00161947 0)
(0 0.00172403 0)
(0 0.00547262 0)
(0 0.00149531 0)
(0 0.00147462 0)
(0 0.00491075 0)
(0 0.00487512 0)
(0 0.00138792 0)
(0 0.00136693 0)
(0 0.00299179 0)
(0 0.00590979 0)
(0 0.00308193 0)
(0 0.00270675 0)
(0 0.00229637 0)
(0 0.00560691 0)
(0 0.00345904 0)
(0 0.00281999 0)
(0 0.00238662 0)
(0 0.00211439 0)
(0 0.00128042 0)
(0 0.00125918 0)
(0 0.00421385 0)
(0 0.00117265 0)
(0 0.00115097 0)
(0 0.00524978 0)
(0 0.00220116 0)
(0 0.00168532 0)
(0 0.0015877 0)
(0 0.00519953 0)
(0 0.0026921 0)
(0 0.0027798 0)
(0 0.00288174 0)
(0 0.00286537 0)
(0 0.00296812 0)
(0 0.00294837 0)
(0 0.0030522 0)
(0 0.00302882 0)
(0 0.00313346 0)
(0 0.00310695 0)
(0 0.00321168 0)
(0 0.00318151 0)
(0 0.00328783 0)
(0 0.0032556 0)
(0 0.00335997 0)
(0 0.00331949 0)
(0 0.00342541 0)
(0 0.00337486 0)
(0 0.00348447 0)
(0 0.00341898 0)
(0 0.00354371 0)
(0 0.00348948 0)
(0 0.00360433 0)
(0 0.00354641 0)
(0 0.00366131 0)
(0 0.00123553 0)
(0 0.0011269 0)
(0 0.00120921 0)
(0 0.00110051 0)
(0 0.00118042 0)
(0 0.00107173 0)
(0 0.00114923 0)
(0 0.00104095 0)
(0 0.00111588 0)
(0 0.00100835 0)
(0 0.00108065 0)
(0 0.000974178 0)
(0 0.00104384 0)
(0 0.000938703 0)
(0 0.00100531 0)
(0 0.000902006 0)
(0 0.000965389 0)
(0 0.00106836 0)
(0 0.00102525 0)
(0 0.000924262 0)
(0 0.000980213 0)
(0 0.0010811 0)
(0 0.0010323 0)
(0 0.000933928 0)
(0 0.000981521 0)
(0 0.00107982 0)
(0 0.00102459 0)
(0 0.000929778 0)
(0 0.000968744 0)
(0 0.00106352 0)
(0 0.00100379 0)
(0 0.00091185 0)
(0 0.000941855 0)
(0 0.00103354 0)
(0 0.000966555 0)
(0 0.00105674 0)
(0 0.000878977 0)
(0 0.000985553 0)
(0 0.00107445 0)
(0 0.000999222 0)
(0 0.00108748 0)
(0 0.00100805 0)
(0 0.0010972 0)
(0 0.00101195 0)
(0 0.00110107 0)
(0 0.000926504 0)
(0 0.0010102 0)
(0 0.00109819 0)
(0 0.00114918 0)
(0 0.00100308 0)
(0 0.00109103 0)
(0 0.00119353 0)
(0 0.000991373 0)
(0 0.00107933 0)
(0 0.000907028 0)
(0 0.00097485 0)
(0 0.00106249 0)
(0 0.00117039 0)
(0 0.00115318 0)
(0 0.00126415 0)
(0 0.00124719 0)
(0 0.00113106 0)
(0 0.0012253 0)
(0 0.00134458 0)
(0 0.00132252 0)
(0 0.00119747 0)
(0 0.00129424 0)
(0 0.00116309 0)
(0 0.00125958 0)
(0 0.00139419 0)
(0 0.00135942 0)
(0 0.00201152 0)
(0 0.00214622 0)
(0 0.00121885 0)
(0 0.00131878 0)
(0 0.00146261 0)
(0 0.00142206 0)
(0 0.00156891 0)
(0 0.00152841 0)
(0 0.00137546 0)
(0 0.00148181 0)
(0 0.00106416 0)
(0 0.00108411 0)
(0 0.00172532 0)
(0 0.00162651 0)
(0 0.00149242 0)
(0 0.00153216 0)
(0 0.00140184 0)
(0 0.00144161 0)
(0 0.00166297 0)
(0 0.00131592 0)
(0 0.00135656 0)
(0 0.00300505 0)
(0 0.00132271 0)
(0 0.00142928 0)
(0 0.00194472 0)
(0 0.0020858 0)
(0 0.000932802 0)
(0 0.00360066 0)
(0 0.0037165 0)
(0 0.00325628 0)
(0 0.00159146 0)
(0 0.00153926 0)
(0 0.00137059 0)
(0 0.00147975 0)
(0 0.00165143 0)
(0 0.00159116 0)
(0 0.00276064 0)
(0 0.00176532 0)
(0 0.00170506 0)
(0 0.0015243 0)
(0 0.00163785 0)
(0 0.00182121 0)
(0 0.0017536 0)
(0 0.00156384 0)
(0 0.00167954 0)
(0 0.00187119 0)
(0 0.00179712 0)
(0 0.00159901 0)
(0 0.00171653 0)
(0 0.00191668 0)
(0 0.00183667 0)
(0 0.00203901 0)
(0 0.00196063 0)
(0 0.00175191 0)
(0 0.00187684 0)
(0 0.00208799 0)
(0 0.00200349 0)
(0 0.00178478 0)
(0 0.00190971 0)
(0 0.00213076 0)
(0 0.00203678 0)
(0 0.00225981 0)
(0 0.00216706 0)
(0 0.00193798 0)
(0 0.00206838 0)
(0 0.0022989 0)
(0 0.00219854 0)
(0 0.00196102 0)
(0 0.0020898 0)
(0 0.00232989 0)
(0 0.0022233 0)
(0 0.00246611 0)
(0 0.00236392 0)
(0 0.00211495 0)
(0 0.00225837 0)
(0 0.00250703 0)
(0 0.00240121 0)
(0 0.00214567 0)
(0 0.00228806 0)
(0 0.00254175 0)
(0 0.00242719 0)
(0 0.00216402 0)
(0 0.0023038 0)
(0 0.00256663 0)
(0 0.00244629 0)
(0 0.00270852 0)
(0 0.00259178 0)
(0 0.0023229 0)
(0 0.0024707 0)
(0 0.00273751 0)
(0 0.00261769 0)
(0 0.00234452 0)
(0 0.00249428 0)
(0 0.00276756 0)
(0 0.002649 0)
(0 0.00292232 0)
(0 0.00280834 0)
(0 0.00252897 0)
(0 0.00269094 0)
(0 0.0029646 0)
(0 0.00284779 0)
(0 0.00256388 0)
(0 0.00272115 0)
(0 0.00300286 0)
(0 0.00287735 0)
(0 0.00257987 0)
(0 0.00273403 0)
(0 0.00303102 0)
(0 0.00288412 0)
(0 0.00317711 0)
(0 0.00302974 0)
(0 0.00272923 0)
(0 0.00287582 0)
(0 0.00317247 0)
(0 0.00301987 0)
(0 0.00271693 0)
(0 0.00285927 0)
(0 0.00316001 0)
(0 0.0029962 0)
(0 0.00329126 0)
(0 0.00312538 0)
(0 0.00282635 0)
(0 0.00295555 0)
(0 0.00324685 0)
(0 0.0030815 0)
(0 0.00336515 0)
(0 0.00320671 0)
(0 0.00348254 0)
(0 0.00332569 0)
(0 0.00304398 0)
(0 0.00316066 0)
(0 0.00342963 0)
(0 0.00326797 0)
(0 0.00352688 0)
(0 0.00337366 0)
(0 0.00362492 0)
(0 0.00347675 0)
(0 0.00322435 0)
(0 0.00333261 0)
(0 0.00357328 0)
(0 0.00343294 0)
(0 0.0031932 0)
(0 0.00329616 0)
(0 0.00305368 0)
(0 0.00315701 0)
(0 0.00366217 0)
(0 0.00291156 0)
(0 0.00301405 0)
(0 0.00324989 0)
(0 0.0031104 0)
(0 0.00286769 0)
(0 0.00296625 0)
(0 0.00279874 0)
(0 0.00333681 0)
(0 0.002879 0)
(0 0.00271768 0)
(0 0.0028143 0)
(0 0.00256241 0)
(0 0.00265293 0)
(0 0.00289164 0)
(0 0.00272924 0)
(0 0.00295595 0)
(0 0.00279867 0)
(0 0.00257146 0)
(0 0.00264607 0)
(0 0.00286455 0)
(0 0.0027194 0)
(0 0.00249786 0)
(0 0.00257801 0)
(0 0.00245613 0)
(0 0.0023538 0)
(0 0.00244305 0)
(0 0.0029294 0)
(0 0.0026584 0)
(0 0.00508712 0)
(0 0.00083479 0)
(0 0.00187158 0)
(0 0.00201974 0)
(0 0.0037724 0)
(0 0.00545247 0)
(0 0.00365301 0)
(0 0.00376794 0)
(0 0.00221989 0)
(0 0.00369979 0)
(0 0.00381616 0)
(0 0.00387927 0)
(0 0.00393191 0)
(0 0.00385783 0)
(0 0.00397511 0)
(0 0.00404946 0)
(0 0.0040912 0)
(0 0.00400935 0)
(0 0.00412553 0)
(0 0.00420551 0)
(0 0.00424011 0)
(0 0.00431801 0)
(0 0.00435433 0)
(0 0.00427093 0)
(0 0.00438705 0)
(0 0.00446872 0)
(0 0.00450252 0)
(0 0.00441555 0)
(0 0.0045317 0)
(0 0.00461577 0)
(0 0.00464513 0)
(0 0.00472547 0)
(0 0.00475627 0)
(0 0.0046704 0)
(0 0.00478252 0)
(0 0.00486438 0)
(0 0.00489161 0)
(0 0.00480337 0)
(0 0.00491293 0)
(0 0.00499763 0)
(0 0.00501923 0)
(0 0.00492809 0)
(0 0.00503516 0)
(0 0.00512245 0)
(0 0.0051398 0)
(0 0.00522473 0)
(0 0.00524397 0)
(0 0.00515218 0)
(0 0.0052571 0)
(0 0.00534566 0)
(0 0.00535821 0)
(0 0.00544243 0)
(0 0.00545456 0)
(0 0.00536547 0)
(0 0.00546046 0)
(0 0.00554503 0)
(0 0.00554972 0)
(0 0.00546043 0)
(0 0.00554958 0)
(0 0.0056336 0)
(0 0.00563435 0)
(0 0.00554502 0)
(0 0.00563048 0)
(0 0.00571552 0)
(0 0.00571244 0)
(0 0.00579529 0)
(0 0.00579405 0)
(0 0.00570621 0)
(0 0.00579025 0)
(0 0.00587315 0)
(0 0.00587141 0)
(0 0.00578475 0)
(0 0.00586739 0)
(0 0.00594791 0)
(0 0.00594331 0)
(0 0.00601569 0)
(0 0.0060106 0)
(0 0.00593191 0)
(0 0.0059998 0)
(0 0.00608047 0)
(0 0.00605931 0)
(0 0.00598103 0)
(0 0.00603634 0)
(0 0.00610463 0)
(0 0.00607849 0)
(0 0.006137 0)
(0 0.006107 0)
(0 0.00604553 0)
(0 0.00607089 0)
(0 0.00612506 0)
(0 0.00608549 0)
(0 0.00613277 0)
(0 0.0060915 0)
(0 0.00600761 0)
(0 0.00613441 0)
(0 0.0060923 0)
(0 0.00604543 0)
(0 0.00604577 0)
(0 0.00608764 0)
(0 0.00604063 0)
(0 0.00599758 0)
(0 0.0059907 0)
(0 0.00602728 0)
(0 0.00597435 0)
(0 0.00123531 0)
(0 0.00127909 0)
(0 0.00119406 0)
(0 0.00139982 0)
(0 0.00132397 0)
(0 0.00144794 0)
(0 0.00137245 0)
(0 0.00125065 0)
(0 0.00129919 0)
(0 0.00117201 0)
(0 0.00123367 0)
(0 0.00135554 0)
(0 0.00128959 0)
(0 0.0011748 0)
(0 0.00122589 0)
(0 0.00111859 0)
(0 0.0011654 0)
(0 0.00106429 0)
(0 0.00111528 0)
(0 0.00117923 0)
(0 0.000974658 0)
(0 0.000993422 0)
(0 0.00545 0)
(0 0.00617106 0)
(0 0.0022199 0)
(0 0.0030705 0)
(0 0.0022991 0)
(0 0.00353303 0)
(0 0.00594915 0)
(0 0.00142106 0)
(0 0.00212539 0)
(0 0.00362997 0)
(0 0.0021616 0)
(0 0.00235293 0)
(0 0.00196874 0)
(0 0.00600598 0)
(0 0.00595022 0)
(0 0.00338615 0)
(0 0.00333357 0)
(0 0.00340607 0)
(0 0.00334425 0)
(0 0.00340904 0)
(0 0.00334024 0)
(0 0.003401 0)
(0 0.00332439 0)
(0 0.00337827 0)
(0 0.00329662 0)
(0 0.00334546 0)
(0 0.00324691 0)
(0 0.00325825 0)
(0 0.00330875 0)
(0 0.00321376 0)
(0 0.00326515 0)
(0 0.00336457 0)
(0 0.00332103 0)
(0 0.00342398 0)
(0 0.00338 0)
(0 0.00348392 0)
(0 0.00344124 0)
(0 0.00354618 0)
(0 0.00350645 0)
(0 0.00361116 0)
(0 0.00357136 0)
(0 0.00367791 0)
(0 0.00363789 0)
(0 0.00374676 0)
(0 0.00370367 0)
(0 0.00381463 0)
(0 0.00376687 0)
(0 0.00388068 0)
(0 0.00383571 0)
(0 0.00394962 0)
(0 0.00390668 0)
(0 0.00402163 0)
(0 0.00397967 0)
(0 0.00409593 0)
(0 0.00405434 0)
(0 0.00417151 0)
(0 0.00412973 0)
(0 0.00321476 0)
(0 0.00339411 0)
(0 0.00364206 0)
(0 0.00425035 0)
(0 0.00420755 0)
(0 0.00385637 0)
(0 0.00406358 0)
(0 0.00416003 0)
(0 0.00398435 0)
(0 0.00432998 0)
(0 0.00379051 0)
(0 0.00403222 0)
(0 0.00411328 0)
(0 0.00436446 0)
(0 0.00444685 0)
(0 0.00398066 0)
(0 0.004062 0)
(0 0.00419791 0)
(0 0.00447468 0)
(0 0.00455951 0)
(0 0.00414711 0)
(0 0.00428512 0)
(0 0.00358568 0)
(0 0.00352567 0)
(0 0.00218266 0)
(0 0.00327755 0)
(0 0.0052357 0)
(0 0.00400679 0)
(0 0.00409253 0)
(0 0.00101315 0)
(0 0.000882882 0)
(0 0.000900722 0)
(0 0.000864036 0)
(0 0.00211953 0)
(0 0.00111759 0)
(0 0.00107929 0)
(0 0.00171827 0)
(0 0.00406749 0)
(0 0.00199102 0)
(0 0.00346211 0)
(0 0.0011877 0)
(0 0.00597806 0)
(0 0.00603442 0)
(0 0.00591901 0)
(0 0.00589237 0)
(0 0.00370951 0)
(0 0.00457848 0)
(0 0.00449507 0)
(0 0.0046651 0)
(0 0.00464692 0)
(0 0.00230281 0)
(0 0.00249012 0)
(0 0.00202073 0)
(0 0.00585905 0)
(0 0.0058321 0)
(0 0.00188723 0)
(0 0.000788817 0)
(0 0.000805711 0)
(0 0.0033185 0)
(0 0.00390646 0)
(0 0.00394851 0)
(0 0.00208945 0)
(0 0.00185438 0)
(0 0.0018933 0)
(0 0.00100675 0)
(0 0.000977506 0)
(0 0.00172607 0)
(0 0.00168541 0)
(0 0.0040373 0)
(0 0.00475222 0)
(0 0.00473424 0)
(0 0.00459124 0)
(0 0.0045076 0)
(0 0.00492183 0)
(0 0.00244609 0)
(0 0.0026297 0)
(0 0.00269028 0)
(0 0.00262335 0)
(0 0.00272201 0)
(0 0.00265831 0)
(0 0.00275939 0)
(0 0.00269451 0)
(0 0.00279899 0)
(0 0.00273279 0)
(0 0.00284161 0)
(0 0.00277381 0)
(0 0.00266109 0)
(0 0.00270082 0)
(0 0.00281728 0)
(0 0.00274376 0)
(0 0.00286172 0)
(0 0.00278903 0)
(0 0.00290867 0)
(0 0.00283581 0)
(0 0.0029586 0)
(0 0.00288493 0)
(0 0.00300734 0)
(0 0.00293811 0)
(0 0.00306225 0)
(0 0.00299429 0)
(0 0.00311857 0)
(0 0.00305122 0)
(0 0.00317583 0)
(0 0.00311061 0)
(0 0.00324079 0)
(0 0.00317263 0)
(0 0.0059422 0)
(0 0.0021476 0)
(0 0.00222589 0)
(0 0.000692234 0)
(0 0.000708112 0)
(0 0.00330886 0)
(0 0.00324049 0)
(0 0.00104556 0)
(0 0.000947792 0)
(0 0.00266204 0)
(0 0.00279502 0)
(0 0.00276597 0)
(0 0.00194576 0)
(0 0.00170606 0)
(0 0.00308365 0)
(0 0.00266573 0)
(0 0.000914232 0)
(0 0.00093666 0)
(0 0.00579711 0)
(0 0.0057708 0)
(0 0.00580019 0)
(0 0.00233013 0)
(0 0.00255405 0)
(0 0.00316798 0)
(0 0.00429973 0)
(0 0.00172308 0)
(0 0.00330468 0)
(0 0.00182905 0)
(0 0.00459705 0)
(0 0.00451219 0)
(0 0.00386269 0)
(0 0.00380206 0)
(0 0.00372076 0)
(0 0.00581624 0)
(0 0.00307028 0)
(0 0.00312386 0)
(0 0.00325811 0)
(0 0.00329904 0)
(0 0.00317161 0)
(0 0.00342384 0)
(0 0.00333357 0)
(0 0.00321273 0)
(0 0.00336257 0)
(0 0.00324588 0)
(0 0.00225331 0)
(0 0.00233233 0)
(0 0.00217192 0)
(0 0.00616783 0)
(0 0.00620123 0)
(0 0.00619336 0)
(0 0.00622405 0)
(0 0.006231 0)
(0 0.00621154 0)
(0 0.00386311 0)
(0 0.00400475 0)
(0 0.00408686 0)
(0 0.00422324 0)
(0 0.00429532 0)
(0 0.00443038 0)
(0 0.00448737 0)
(0 0.0043531 0)
(0 0.00435244 0)
(0 0.00453165 0)
(0 0.00439876 0)
(0 0.00456645 0)
(0 0.00443887 0)
(0 0.00459643 0)
(0 0.0044742 0)
(0 0.00431561 0)
(0 0.00435483 0)
(0 0.00419333 0)
(0 0.00423394 0)
(0 0.00438693 0)
(0 0.00426711 0)
(0 0.00410957 0)
(0 0.00414483 0)
(0 0.00398804 0)
(0 0.00402171 0)
(0 0.00386937 0)
(0 0.00577701 0)
(0 0.00195498 0)
(0 0.00553678 0)
(0 0.00212406 0)
(0 0.00242912 0)
(0 0.00344748 0)
(0 0.00516019 0)
(0 0.00348008 0)
(0 0.00331395 0)
(0 0.00345221 0)
(0 0.00357772 0)
(0 0.00370879 0)
(0 0.00382073 0)
(0 0.00394895 0)
(0 0.00303384 0)
(0 0.00221427 0)
(0 0.00595726 0)
(0 0.00406215 0)
(0 0.00282182 0)
(0 0.00443911 0)
(0 0.00318652 0)
(0 0.00329142 0)
(0 0.00344023 0)
(0 0.00203384 0)
(0 0.00615927 0)
(0 0.00403815 0)
(0 0.00150139 0)
(0 0.0015782 0)
(0 0.00163554 0)
(0 0.00171295 0)
(0 0.00296216 0)
(0 0.00306561 0)
(0 0.00320403 0)
(0 0.00579175 0)
(0 0.00586898 0)
(0 0.0058603 0)
(0 0.00593353 0)
(0 0.00592081 0)
(0 0.00598807 0)
(0 0.00600069 0)
(0 0.00604955 0)
(0 0.00606239 0)
(0 0.00256454 0)
(0 0.00270284 0)
(0 0.00279183 0)
(0 0.00292993 0)
(0 0.00184542 0)
(0 0.00519981 0)
(0 0.0053005 0)
(0 0.00526941 0)
(0 0.00536856 0)
(0 0.00533242 0)
(0 0.00542821 0)
(0 0.00469059 0)
(0 0.00479604 0)
(0 0.0047562 0)
(0 0.0048587 0)
(0 0.00481321 0)
(0 0.00427691 0)
(0 0.0043876 0)
(0 0.00433787 0)
(0 0.00445113 0)
(0 0.00234598 0)
(0 0.00247616 0)
(0 0.00255239 0)
(0 0.00268038 0)
(0 0.002112 0)
(0 0.00245386 0)
(0 0.0018191 0)
(0 0.00118004 0)
(0 0.00168467 0)
(0 0.00223653 0)
(0 0.00230225 0)
(0 0.0024281 0)
(0 0.00193483 0)
(0 0.00198169 0)
(0 0.00209929 0)
(0 0.00213862 0)
(0 0.00493825 0)
(0 0.000953165 0)
(0 0.00160306 0)
(0 0.0017116 0)
(0 0.00173913 0)
(0 0.00184994 0)
(0 0.00187112 0)
(0 0.00198523 0)
(0 0.00200095 0)
(0 0.00188676 0)
(0 0.00200928 0)
(0 0.0018969 0)
(0 0.00201262 0)
(0 0.00190121 0)
(0 0.00151207 0)
(0 0.00309112 0)
(0 0.00130479 0)
(0 0.00235741 0)
(0 0.00279164 0)
(0 0.00254518 0)
(0 0.00255177 0)
(0 0.00131763 0)
(0 0.00117241 0)
(0 0.0031745 0)
(0 0.00371231 0)
(0 0.00306839 0)
(0 0.00319234 0)
(0 0.00317193 0)
(0 0.000800211 0)
(0 0.000732217 0)
(0 0.000699893 0)
(0 0.000630814 0)
(0 0.000600642 0)
(0 0.000660302 0)
(0 0.000557547 0)
(0 0.000584411 0)
(0 0.00544929 0)
(0 0.00324023 0)
(0 0.00528582 0)
(0 0.000913465 0)
(0 0.003146 0)
(0 0.00119908 0)
(0 0.00112716 0)
(0 0.00102487 0)
(0 0.000947136 0)
(0 0.000666698 0)
(0 0.000569715 0)
(0 0.000632565 0)
(0 0.000538105 0)
(0 0.000597653 0)
(0 0.0005061 0)
(0 0.00056218 0)
(0 0.000473751 0)
(0 0.000526287 0)
(0 0.000441221 0)
(0 0.000490102 0)
(0 0.000408615 0)
(0 0.000453744 0)
(0 0.000376044 0)
(0 0.00041729 0)
(0 0.000493384 0)
(0 0.000452972 0)
(0 0.00038088 0)
(0 0.000412451 0)
(0 0.000344564 0)
(0 0.000371878 0)
(0 0.000438313 0)
(0 0.000393393 0)
(0 0.000458557 0)
(0 0.000409228 0)
(0 0.000348553 0)
(0 0.000359966 0)
(0 0.000419327 0)
(0 0.000304006 0)
(0 0.000365638 0)
(0 0.000423717 0)
(0 0.000365539 0)
(0 0.000422399 0)
(0 0.000359697 0)
(0 0.000415363 0)
(0 0.00030757 0)
(0 0.000482665 0)
(0 0.000474433 0)
(0 0.000402538 0)
(0 0.000460406 0)
(0 0.000383922 0)
(0 0.000440718 0)
(0 0.000521992 0)
(0 0.000501359 0)
(0 0.000415616 0)
(0 0.000475724 0)
(0 0.000481984 0)
(0 0.000507661 0)
(0 0.000546481 0)
(0 0.000308401 0)
(0 0.00248886 0)
(0 0.00106974 0)
(0 0.000675667 0)
(0 0.0010294 0)
(0 0.000940119 0)
(0 0.000894076 0)
(0 0.000809163 0)
(0 0.000757898 0)
(0 0.0006768 0)
(0 0.00392089 0)
(0 0.00394364 0)
(0 0.00382535 0)
(0 0.00384153 0)
(0 0.00372251 0)
(0 0.00396088 0)
(0 0.00385262 0)
(0 0.00397328 0)
(0 0.000991345 0)
(0 0.00191883 0)
(0 0.00269291 0)
(0 0.00139675 0)
(0 0.00130348 0)
(0 0.00119039 0)
(0 0.0010913 0)
(0 0.00212204 0)
(0 0.000573661 0)
(0 0.00454102 0)
(0 0.000869215 0)
(0 0.00156236 0)
(0 0.00145579 0)
(0 0.00343045 0)
(0 0.00171888 0)
(0 0.00159727 0)
(0 0.00147237 0)
(0 0.0013461 0)
(0 0.00482839 0)
(0 0.00483299 0)
(0 0.00472001 0)
(0 0.00471866 0)
(0 0.00460315 0)
(0 0.00427087 0)
(0 0.00147175 0)
(0 0.00512148 0)
(0 0.00391396 0)
(0 0.00544667 0)
(0 0.00543333 0)
(0 0.00533826 0)
(0 0.00531925 0)
(0 0.00522114 0)
(0 0.00519705 0)
(0 0.00529737 0)
(0 0.0052349 0)
(0 0.0052918 0)
(0 0.00189394 0)
(0 0.00175821 0)
(0 0.00161798 0)
(0 0.00147634 0)
(0 0.00291851 0)
(0 0.00575122 0)
(0 0.00206226 0)
(0 0.00192592 0)
(0 0.00589507 0)
(0 0.00587006 0)
(0 0.0058026 0)
(0 0.00577425 0)
(0 0.00570391 0)
(0 0.00567034 0)
(0 0.00574003 0)
(0 0.00449757 0)
(0 0.00444553 0)
(0 0.000842606 0)
(0 0.00122253 0)
(0 0.00129963 0)
(0 0.0062789 0)
(0 0.00227533 0)
(0 0.00211855 0)
(0 0.00196586 0)
(0 0.00180298 0)
(0 0.00165202 0)
(0 0.00370651 0)
(0 0.00584814 0)
(0 0.00298074 0)
(0 0.00126552 0)
(0 0.00240751 0)
(0 0.00223768 0)
(0 0.00454989 0)
(0 0.00125756 0)
(0 0.00101069 0)
(0 0.006259 0)
(0 0.0062741 0)
(0 0.0059051 0)
(0 0.00583301 0)
(0 0.00418153 0)
(0 0.00412913 0)
(0 0.00427443 0)
(0 0.00594972 0)
(0 0.00590108 0)
(0 0.00589545 0)
(0 0.00584515 0)
(0 0.00583371 0)
(0 0.0027986 0)
(0 0.00573871 0)
(0 0.00133629 0)
(0 0.00122324 0)
(0 0.00104856 0)
(0 0.00505096 0)
(0 0.00460497 0)
(0 0.004799 0)
(0 0.00177255 0)
(0 0.00185115 0)
(0 0.00471087 0)
(0 0.00461621 0)
(0 0.00452082 0)
(0 0.00508626 0)
(0 0.00546757 0)
(0 0.00544624 0)
(0 0.000297341 0)
(0 0.000250111 0)
(0 0.00163424 0)
(0 0.00146961 0)
(0 0.00137564 0)
(0 0.00524137 0)
(0 0.00177315 0)
(0 0.00163215 0)
(0 0.00148085 0)
(0 0.00310799 0)
(0 0.00181438 0)
(0 0.00076248 0)
(0 0.000730836 0)
(0 0.00624974 0)
(0 0.00626137 0)
(0 0.00628445 0)
(0 0.00239424 0)
(0 0.00392642 0)
(0 0.00208939 0)
(0 0.00191414 0)
(0 0.00176577 0)
(0 0.00522128 0)
(0 0.00476363 0)
(0 0.00161679 0)
(0 0.00293405 0)
(0 0.00276013 0)
(0 0.00556749 0)
(0 0.0057634 0)
(0 0.00158751 0)
(0 0.00176611 0)
(0 0.00298148 0)
(0 0.00470536 0)
(0 0.00342027 0)
(0 0.0043749 0)
(0 0.0042719 0)
(0 0.00413588 0)
(0 0.000655071 0)
(0 0.000617951 0)
(0 0.000547127 0)
(0 0.00413035 0)
(0 0.000848733 0)
(0 0.000925581 0)
(0 0.00281462 0)
(0 0.00373394 0)
(0 0.00400895 0)
(0 0.00387878 0)
(0 0.00217915 0)
(0 0.00625257 0)
(0 0.00281463 0)
(0 0.00110698 0)
(0 0.00133687 0)
(0 0.00484057 0)
(0 0.00482308 0)
(0 0.0025843 0)
(0 0.000504405 0)
(0 0.0045979 0)
(0 0.0047121 0)
(0 0.00442052 0)
(0 0.00452365 0)
(0 0.00397916 0)
(0 0.00098143 0)
(0 0.0018523 0)
(0 0.00154623 0)
(0 0.00469306 0)
(0 0.00300666 0)
(0 0.00150105 0)
(0 0.00507225 0)
(0 0.0038986 0)
(0 0.0037463 0)
(0 0.00274531 0)
(0 0.00179716 0)
(0 0.00154655 0)
(0 0.0046824 0)
(0 0.00347904 0)
(0 0.00462173 0)
(0 0.00563182 0)
(0 0.00570044 0)
(0 0.00248536 0)
(0 0.0023613 0)
(0 0.00329675 0)
(0 0.00625596 0)
(0 0.000502179 0)
(0 0.00360265 0)
(0 0.00328959 0)
(0 0.00575163 0)
(0 0.00364867 0)
(0 0.00576377 0)
(0 0.00121344 0)
(0 0.00131518 0)
(0 0.00232009 0)
(0 0.00220467 0)
(0 0.00337938 0)
(0 0.00331125 0)
(0 0.00432283 0)
(0 0.0038592 0)
(0 0.00398163 0)
(0 0.00246984 0)
(0 0.00182467 0)
(0 0.00186461 0)
(0 0.00319709 0)
(0 0.00626799 0)
(0 0.00624091 0)
(0 0.000416106 0)
(0 0.000863525 0)
(0 0.00031124 0)
(0 0.00158227 0)
(0 0.00173482 0)
(0 0.00512095 0)
(0 0.00514174 0)
(0 0.00121577 0)
(0 0.00556304 0)
(0 0.000577229 0)
(0 0.000560937 0)
(0 0.000753941 0)
(0 0.000830412 0)
(0 0.00316924 0)
(0 0.00324235 0)
(0 0.00473945 0)
(0 0.00578166 0)
(0 0.00576424 0)
(0 0.00581842 0)
(0 0.00574043 0)
(0 0.00218057 0)
(0 0.00352177 0)
(0 0.00588586 0)
(0 0.00581342 0)
(0 0.00305184 0)
(0 0.00610504 0)
(0 0.000620675 0)
(0 0.000700775 0)
(0 0.00618186 0)
(0 0.00619557 0)
(0 0.00448525 0)
(0 0.00448709 0)
(0 0.00406703 0)
(0 0.000384834 0)
(0 0.00519688 0)
(0 0.00570611 0)
(0 0.00373916 0)
(0 0.00230158 0)
(0 0.00240905 0)
(0 0.00579614 0)
(0 0.00570852 0)
(0 0.00567759 0)
(0 0.00568994 0)
(0 0.00567984 0)
(0 0.00524802 0)
(0 0.00392392 0)
(0 0.00386678 0)
(0 0.000587243 0)