/*--------------------------------*- C++ -*----------------------------------*\
| =========                 |                                                 |
| \\      /  F ield         | OpenFOAM: The Open Source CFD Toolbox           |
|  \\    /   O peration     | Version:  v2012                                 |
|   \\  /    A nd           | Website:  www.openfoam.com                      |
|    \\/     M anipulation  |                                                 |
\*---------------------------------------------------------------------------*/
FoamFile
{
    version     2.0;
    format      ascii;
    class       volVectorField;
    location    "350";
    object      U;
}
// * * * * * * * * * * * * * * * * * * * * * * * * * * * * * * * * * * * * * //

dimensions      [0 1 -1 0 0 0 0];


internalField   nonuniform List<vector> 
10042
(
(0.990686 0.0114067 0)
(0.828765 -0.235961 0)
(1.06339 -0.0230101 0)
(1.01545 0.00138377 3.07228e-22)
(1.01233 0.000424156 2.87559e-22)
(0.958467 -0.259832 -6.04056e-21)
(1.09821 0.230522 1.04106e-20)
(0.915876 -0.274193 0)
(1.01275 -0.000954723 0)
(0.969323 0.0632057 2.93301e-21)
(0.940887 0.0150157 1.58428e-21)
(0.865261 -0.236454 7.90438e-20)
(1.06852 0.0286769 5.37439e-21)
(1.01299 -0.000562979 0)
(1.02718 0.00214587 -5.64203e-21)
(1.01313 -0.000810992 0)
(0.971584 -0.264288 1.33523e-20)
(0.943966 0.0262319 1.57046e-21)
(1.04626 0.0116178 -9.35181e-21)
(1.0081 -0.00625191 0)
(1.0675 0.0318435 0)
(0.989935 0.00499511 0)
(1.01531 0.00132562 -2.9088e-22)
(0.906377 -0.313129 4.45948e-21)
(1.01397 0.00232508 5.41633e-22)
(1.0108 -0.000122428 -3.52604e-22)
(0.971374 0.057149 -1.93587e-21)
(1.01247 -0.000624131 -3.29839e-21)
(0.95839 -0.279278 0)
(0.899277 -0.286375 -3.62432e-20)
(1.00897 0.000132571 8.4742e-22)
(1.07262 0.00921381 0)
(1.01272 -0.00090625 -3.10827e-21)
(1.01263 -0.000860814 1.6471e-21)
(0.914656 -0.27116 -2.64902e-21)
(0.915274 -0.27064 -2.02299e-20)
(1.01647 0.000440835 -1.60042e-21)
(1.01171 -4.24452e-05 1.89535e-21)
(1.01039 0.00026163 9.03626e-22)
(1.01769 -0.00576497 2.96019e-22)
(0.89862 -0.302604 2.61995e-20)
(1.01264 -0.000903047 0)
(1.19588 -0.0119446 9.48732e-23)
(0.968405 -0.266391 -7.8187e-21)
(1.01483 0.00201669 0)
(1.014 0.00237297 7.77527e-22)
(1.01353 -0.000889411 2.21712e-21)
(1.02646 0.0020687 0)
(1.02866 0.101684 -4.60475e-22)
(0.982826 -0.0726422 1.08898e-20)
(1.20271 -0.00955857 0)
(1.01374 0.00100326 2.57811e-22)
(0.984878 -0.256802 0)
(1.04468 0.0115015 -4.88935e-21)
(0.819387 0.343226 1.79627e-20)
(0.702629 -0.41214 3.25579e-20)
(1.06417 0.0319331 -5.12564e-21)
(0.985318 0.00451165 2.57138e-21)
(1.02367 0.00781663 4.47393e-21)
(1.01686 -0.00107044 0)
(1.01919 0.101469 -1.92552e-23)
(0.848899 0.305667 0)
(1.16435 -0.00260683 2.10924e-21)
(0.956094 -0.226575 -2.72604e-21)
(0.995142 0.0301228 -2.92372e-21)
(1.01402 0.00377348 0)
(1.01261 -0.00588605 9.08178e-23)
(1.00009 0.0432385 3.11467e-22)
(1.01387 -0.00119739 -7.40034e-22)
(0.995269 0.0363503 0)
(1.13036 -0.0505045 0)
(1.01391 0.00870691 0)
(1.01289 5.82997e-05 0)
(1.02366 0.00722981 -1.01897e-21)
(1.01397 0.00344276 0)
(1.16234 -0.0406584 0)
(1.03228 0.023798 -6.02286e-22)
(1.0136 -0.000964385 -2.49366e-21)
(1.03635 0.0229155 -9.81003e-22)
(1.04727 0.0103829 0)
(0.947739 -0.284283 0)
(0.907862 -0.311989 -2.35622e-20)
(1.00576 9.3876e-05 -8.10101e-22)
(1.01279 0.000747498 7.57661e-22)
(0.975487 0.0145108 0)
(1.01298 0.155917 0)
(1.01384 -0.00452961 2.2999e-21)
(1.06704 -0.0147847 0)
(1.01403 0.000742982 2.12894e-21)
(1.01657 0.0278421 0)
(1.05758 0.0226664 -1.21701e-22)
(1.02765 0.00162824 1.78724e-21)
(1.1623 0.00884855 -2.65499e-21)
(1.00143 0.165323 1.51446e-22)
(0.983666 0.0116634 -3.49456e-21)
(1.0167 0.00389271 -2.91661e-22)
(0.0665147 -0.00264074 1.81003e-19)
(1.01019 -0.00504365 -2.47749e-21)
(0.956006 0.271508 0)
(1.02412 0.00652031 2.36826e-21)
(1.05587 0.0223097 5.74678e-21)
(0.949291 0.092765 -5.72874e-22)
(1.01769 0.00785514 -1.32841e-22)
(1.07031 0.00941756 -8.49822e-21)
(1.04639 0.0193331 -4.33972e-21)
(1.01865 0.00671849 -5.27503e-26)
(0.570822 -0.352228 -1.54458e-20)
(1.01418 0.00344546 1.76112e-21)
(1.07744 0.237561 6.02272e-21)
(1.01886 0.00720431 4.91661e-22)
(1.02239 0.00707505 6.37551e-22)
(1.05935 0.21421 -6.10334e-21)
(0.94647 0.0818292 0)
(0.955603 -0.225282 -3.87289e-21)
(0.996776 0.0235178 3.57312e-21)
(1.0143 -0.00156556 0)
(0.988155 -0.002796 2.45409e-21)
(1.00962 0.000194009 0)
(0.989492 0.0018498 3.95363e-21)
(1.01472 -0.0017639 -1.01933e-21)
(1.01682 -0.00118502 0)
(0.948251 -0.110877 0)
(0.982137 -0.0989275 4.54629e-20)
(1.01495 0.00215436 1.94538e-22)
(1.0211 0.0294083 0)
(1.01443 0.000628354 2.77319e-23)
(1.01452 0.000514723 -3.23627e-21)
(0.829348 0.348675 0)
(1.09477 -0.0608987 9.51311e-21)
(0.988898 -0.0072706 -2.36204e-21)
(1.0121 -0.000291679 0)
(1.01369 0.00237814 0)
(1.01571 0.00047088 -2.08524e-21)
(1.01469 0.00346081 9.50147e-22)
(1.04354 0.216468 0)
(1.2271 0.0673542 1.72378e-20)
(1.01943 -0.00609302 0)
(0.544438 -0.25811 0)
(1.03446 0.0133936 2.39212e-21)
(0.980444 0.253589 3.64767e-21)
(1.11722 0.0264216 0)
(1.01152 -0.000164851 1.61273e-21)
(0.56986 -0.322844 0)
(1.01238 -0.000573628 3.2707e-21)
(1.02636 0.033575 -4.9823e-22)
(1.01181 -4.76106e-05 -5.04308e-22)
(0.980459 0.0141635 -8.65409e-21)
(1.01394 -0.00120731 -5.56243e-22)
(1.01473 0.00444352 0)
(0.839589 -0.297878 -9.12539e-21)
(1.01407 0.00316307 -2.65953e-23)
(1.01028 -6.74228e-05 0)
(1.03617 0.0151242 -3.04062e-21)
(1.07662 0.0279387 -8.48091e-22)
(0.988211 0.00740449 3.44927e-21)
(1.02421 0.0346384 3.26798e-22)
(1.09845 -0.0513973 -8.12375e-21)
(0.726248 -0.418216 -2.22462e-21)
(1.01564 0.000188861 0)
(1.0088 -0.00026017 4.36141e-22)
(1.01135 0.000309953 1.01277e-21)
(1.01775 -0.00672065 -4.52311e-22)
(1.2466 0.110543 0)
(1.01416 0.000667035 2.16119e-21)
(1.03194 0.0112057 -4.42152e-21)
(0.852405 -0.321589 -4.52164e-21)
(1.01288 0.000103203 -1.62345e-21)
(1.07104 0.00997056 -6.04732e-21)
(0.91077 -0.277728 3.61517e-20)
(1.01259 -0.000798719 0)
(0.983616 -0.00995482 3.55566e-21)
(0.888919 -0.263135 2.5985e-20)
(1.04165 0.0498371 -1.27342e-20)
(1.01269 -0.000848648 0)
(1.04382 0.0127157 -4.68483e-21)
(1.02133 -0.00745461 0)
(1.01447 0.00251994 0)
(1.01181 -8.41041e-05 4.26466e-22)
(1.01365 0.00223263 0)
(1.01376 -0.00111757 0)
(1.03331 0.0130343 -4.58759e-21)
(1.04241 0.0238638 1.22016e-22)
(1.02425 0.00706372 -6.33959e-21)
(1.01443 -0.00139837 0)
(0.955675 -0.0249886 0)
(1.06111 0.0151559 0)
(1.01408 0.00980259 0)
(1.01673 -0.000866325 7.76736e-23)
(0.756693 -0.204399 1.09226e-20)
(1.01029 0.000118596 1.82722e-21)
(0.821736 -0.278841 -7.43042e-21)
(1.06257 0.0349254 4.33845e-21)
(1.01217 -0.000260023 -2.81245e-23)
(1.04168 0.0226053 -3.15779e-21)
(0.844827 0.355658 -1.31404e-20)
(1.02749 0.00108496 0)
(0.655987 -0.0264404 9.02458e-21)
(0.995187 -0.0286559 -3.09567e-21)
(0.00297013 0.0441676 0)
(1.01289 0.000694418 -1.20438e-21)
(1.06683 -0.092419 0)
(1.13551 0.0195223 0)
(0.941975 0.0502101 1.50421e-21)
(1.01243 -0.000282691 -9.92547e-22)
(0.948796 0.291167 0)
(1.01541 0.000676607 8.72849e-22)
(0.940826 -0.255268 -7.12532e-21)
(1.07478 0.0298687 0)
(1.02178 0.00671893 -1.29072e-21)
(1.0149 0.00362644 6.15188e-22)
(1.07195 0.00945961 0)
(1.01271 -0.000318765 0)
(0.9251 0.0543285 0)
(0.96354 0.0581623 2.67661e-21)
(1.01563 0.000374154 -7.16108e-22)
(1.00479 0.0279526 2.3766e-21)
(1.01279 -0.000338437 1.34719e-21)
(1.10133 0.209454 -1.23359e-20)
(1.01489 0.000724662 0)
(1.09339 -0.0837611 0)
(0.388019 -0.0530483 3.08394e-20)
(0.989944 -0.011124 -3.5751e-21)
(0.340284 -0.0778611 -2.0792e-20)
(0.999105 0.028965 -2.62413e-21)
(1.01552 0.00146499 -2.23031e-22)
(1.13775 0.0103267 5.79758e-22)
(1.01596 0.00426955 7.4695e-22)
(1.01971 -0.00455571 1.17499e-21)
(0.982687 0.0481791 -2.39819e-21)
(1.01802 0.00838575 -2.43576e-22)
(1.0119 -9.67337e-05 0)
(1.0148 0.000376826 6.42903e-22)
(1.06022 0.0165713 0)
(1.00791 0.000179938 -9.16815e-22)
(1.01438 0.00252657 -1.09455e-21)
(0.911131 -0.278381 7.51165e-21)
(1.02234 -0.000892885 2.06616e-21)
(0.0433287 -0.0109095 -1.0589e-19)
(1.02669 0.0309314 2.22011e-21)
(0.909757 -0.309458 -2.12911e-21)
(1.04224 0.213123 0)
(0.810957 -0.0505383 0)
(1.01696 -0.00131033 1.09207e-22)
(1.01674 -0.00685315 0)
(0.775294 0.310379 -5.27755e-20)
(1.01233 0.000442698 -2.88035e-22)
(0.819831 -0.0627945 0)
(1.02488 0.0292238 -1.56749e-21)
(1.03667 0.0160589 -3.91633e-21)
(1.01169 0.000275825 0)
(1.04566 0.0177257 3.90977e-21)
(1.01227 -0.000314439 1.87853e-21)
(0.95311 -0.0982964 0)
(0.770441 0.292129 -5.88223e-21)
(1.01522 0.00432564 0)
(1.02187 6.5418e-05 8.98467e-22)
(1.00942 0.000104838 -1.9208e-21)
(1.01599 0.00278143 -1.20567e-21)
(0.163643 -0.0541979 0)
(1.0146 0.0008768 1.01334e-22)
(1.01199 0.03312 0)
(1.01192 1.60745e-06 0)
(1.01363 0.000983836 4.27622e-23)
(1.01345 -0.000886528 3.13893e-21)
(1.07124 0.0278123 0)
(0.741615 0.27795 0)
(1.00718 0.0303656 2.66541e-21)
(0.966763 -0.0901351 0)
(1.00487 -0.000109468 0)
(1.01499 0.000426149 -6.73083e-22)
(1.01976 0.00137261 -3.03384e-21)
(1.09658 -0.00286385 0)
(1.01283 0.000704037 2.21474e-21)
(0.992246 -0.0967913 0)
(1.01627 0.00299139 -9.64732e-22)
(0.997043 -0.0111365 -9.48383e-23)
(1.03762 0.00450277 0)
(1.01441 0.00214139 1.74806e-21)
(1.00485 -3.12248e-05 0)
(0.857082 0.358359 3.74211e-20)
(1.01251 -0.000682916 9.12491e-22)
(0.82005 0.076616 -2.76649e-21)
(0.69973 -0.0129478 9.41643e-21)
(1.03649 0.00441468 0)
(1.01356 0.000105251 0)
(0.163564 -0.188302 -4.08551e-22)
(1 -0.0205896 -4.59301e-21)
(1.01355 -0.00108886 1.79832e-22)
(0.989265 -0.00752259 2.50819e-21)
(1.00938 -2.79914e-05 0)
(1.05734 0.0373281 3.87722e-21)
(1.00803 -0.0128312 -2.16091e-21)
(1.01226 0.000207943 -8.88298e-22)
(0.808352 0.0776887 6.50708e-21)
(1.00035 0.0347037 -4.18826e-21)
(1.01388 -0.0012667 4.00998e-21)
(0.896897 -0.129456 -2.25007e-21)
(1.02141 -0.00343749 -2.91812e-21)
(1.01994 0.0012026 1.71642e-21)
(1.01268 -0.000321167 0)
(1.0348 0.0149846 2.65078e-21)
(0.951677 0.0620704 -4.37671e-21)
(1.01681 -0.000860216 -3.65902e-23)
(1.06797 0.216412 0)
(0.997009 -0.0168064 3.94216e-21)
(0.84499 0.291441 7.95248e-21)
(1.01284 0.000789705 -1.05191e-21)
(1.01665 -0.00819167 0)
(0.892102 -0.147732 1.15877e-22)
(0.808282 0.111202 2.99759e-21)
(1.01509 0.000185276 1.28052e-21)
(1.01434 0.00304877 -1.66931e-21)
(1.01676 0.00388699 1.2738e-22)
(1.01366 -0.00113686 -1.42385e-21)
(1.01061 -0.0139514 2.41403e-22)
(0.991023 -0.0134205 0)
(1.01338 -0.000809471 -3.61711e-21)
(0.965887 -0.026854 -1.80606e-21)
(0.918061 -0.291451 -1.26197e-20)
(1.01441 -0.0015909 0)
(1.00759 -0.000115677 0)
(0.946972 -0.116552 0)
(1.00038 -0.0110188 -2.64384e-21)
(1.06032 0.0616321 0)
(0.941686 -0.00186218 -1.21402e-21)
(1.01476 0.000265495 7.46838e-22)
(1.01725 -0.0140744 5.3439e-21)
(1.01356 0.00198304 0)
(1.02118 -0.00216071 4.11832e-21)
(1.05425 0.0365782 -3.05191e-21)
(1.01547 0.000923554 -2.02362e-21)
(1.01924 0.00500248 0)
(0.996656 0.0127003 -7.43502e-22)
(1.00971 -7.59089e-06 1.85365e-21)
(0.929031 -0.283195 1.39566e-20)
(0.982557 -0.00457303 -5.09495e-21)
(0.600563 -0.321869 2.26968e-20)
(1.05531 0.0607745 -9.3683e-22)
(1.01235 -0.000275799 8.55246e-24)
(0.859367 -0.306558 1.10213e-20)
(1.11946 0.0360774 0)
(1.06258 0.0417401 0)
(1.01694 -0.0014133 -1.31348e-22)
(1.00856 -0.0119435 0)
(1.01057 0.000274074 0)
(1.0119 -0.000154765 1.71157e-21)
(1.01275 0.000816556 2.16825e-21)
(1.01282 0.000501439 2.02124e-21)
(1.01633 -0.00686093 -2.95736e-21)
(-0.00709632 0.0510388 -3.59212e-20)
(1.03157 0.0035591 0)
(0.985738 0.0185412 0)
(1.0179 -0.00645951 0)
(1.01548 -0.000352458 -1.92971e-21)
(0.839929 0.317172 -7.84688e-21)
(1.01648 -0.0169675 -2.59957e-21)
(1.01583 0.00469412 6.20508e-22)
(1.00341 6.64575e-05 0)
(0.741534 -0.104191 -8.48801e-21)
(1.0045 1.56067e-05 1.27963e-21)
(1.01891 0.00648276 5.40469e-22)
(1.01641 0.000419464 1.80781e-21)
(1.031 0.0117772 3.99599e-21)
(0.882838 -0.238867 9.7396e-21)
(0.87696 -0.31176 1.13418e-20)
(1.03308 0.0115423 4.47119e-21)
(1.01312 0.000665017 4.62667e-22)
(1.01916 -0.00440812 0)
(1.018 -0.00510428 0)
(0.84343 0.338239 -2.37436e-21)
(1.01675 -0.00097092 0)
(1.00673 0.000152338 0)
(1.01289 0.000871049 -3.45126e-21)
(1.01244 -0.000290155 0)
(1.00794 0.139852 0)
(1.01308 0.00155641 2.50164e-21)
(0.994516 -0.00598327 -2.60762e-21)
(0.967548 0.175076 3.36405e-21)
(0.725468 0.114776 2.11631e-20)
(1.01704 0.133143 0)
(1.01865 0.00542245 0)
(0.988682 0.188675 -1.35472e-21)
(0.978421 0.041967 -4.56939e-21)
(1.01352 0.00185074 0)
(1.08506 0.0169835 0)
(1.01459 -0.00173869 0)
(1.01239 0.000433837 -1.04684e-21)
(1.01466 -0.00165014 2.54857e-22)
(1.01387 8.68882e-05 1.54192e-21)
(1.01344 -0.00100329 -4.8051e-23)
(1.01668 0.00282708 -2.0814e-21)
(0.57201 -0.466918 0)
(1.03108 0.00421478 -2.56682e-21)
(1.0266 -0.0136506 2.13502e-21)
(0.893364 -0.287188 0)
(0.789235 0.277829 4.04132e-21)
(1.01646 0.0017482 -1.25154e-21)
(0.924993 -0.262302 0)
(1.01604 0.000118019 -8.48894e-22)
(1.07303 0.00956475 0)
(1.01387 0.000916748 -7.58644e-23)
(0.209042 -0.120724 0)
(1.02179 -0.00449547 -1.34427e-21)
(0.821664 0.324253 -1.91586e-21)
(0.311714 -0.214507 3.69536e-20)
(1.01574 -0.00032093 2.0678e-21)
(1.11134 0.0410518 -4.99795e-22)
(1.01725 0.000444025 4.76826e-22)
(1.03041 0.181046 -2.48529e-21)
(1.0168 0.00304202 4.9684e-22)
(1.06134 -0.0523313 2.16912e-20)
(1.03518 0.0364447 0)
(0.807001 0.00463547 -1.36374e-20)
(1.03012 0.00416084 3.0294e-21)
(1.03251 -0.11202 1.99756e-21)
(1.01136 0.00319618 -1.83082e-21)
(1.02315 0.0406013 1.30016e-21)
(0.841017 0.337401 0)
(1.01312 -0.000735023 0)
(1.01192 0.00324005 3.9178e-21)
(1.01026 1.52374e-06 1.86316e-21)
(0.910975 -0.28936 -1.1066e-20)
(1.01199 -0.000178174 -9.01842e-22)
(1.01455 -0.00141417 9.66025e-22)
(1.12171 0.0203224 0)
(1.01323 0.00912085 9.29908e-22)
(0.971853 0.0277382 3.98757e-21)
(1.07774 -0.0459566 -6.73133e-21)
(1.0145 0.000872811 -5.62634e-22)
(1.06477 0.0384441 4.14993e-21)
(1.01259 0.00827919 0)
(1.01363 -0.00109609 -1.46137e-21)
(1.03317 0.0378041 1.49608e-21)
(0.920118 -0.273416 -8.90427e-21)
(1.01709 -0.000101174 0)
(1.02995 0.0111897 -4.0727e-21)
(1.06642 0.431453 7.9401e-20)
(0.990514 -0.00476265 -1.38653e-21)
(1.0078 -6.86673e-05 1.42591e-21)
(0.686882 -0.444539 -2.09028e-20)
(1.01227 -0.000514539 -2.51785e-23)
(1.01289 -0.0121452 0)
(1.03802 -0.00998561 -2.69557e-21)
(0.798386 -0.174484 -7.27639e-21)
(1.17336 0.0235749 -1.94174e-20)
(0.931318 -0.0476116 -1.69753e-21)
(1.04662 -0.0873321 2.73215e-21)
(1.23227 0.121358 0)
(0.93866 -0.245717 1.17648e-20)
(1.01485 -0.00155643 2.33477e-22)
(1.00375 -0.0144782 -2.57156e-21)
(0.944035 -0.151513 0)
(0.962491 -0.143373 6.15441e-24)
(1.08296 0.0187806 3.69878e-21)
(1.01528 0.00119749 0)
(1.01287 0.000949139 -1.40519e-24)
(0.993141 0.0186076 -7.36198e-22)
(0.624211 -0.492447 0)
(1.01446 -0.00150642 0)
(1.01846 -0.00404514 -5.57397e-23)
(1.00951 0.000258032 1.00731e-21)
(1.01615 0.00175981 6.14904e-22)
(1.01186 -0.00119082 -2.0492e-21)
(1.01149 -0.000843411 -2.35627e-21)
(1.01395 0.00017726 0)
(1.00788 0.000111828 0)
(0.982309 0.00261733 -1.31205e-21)
(1.03736 0.00235294 4.34899e-21)
(1.01496 -0.0129592 0)
(0.981701 -0.00277544 3.46729e-21)
(1.21922 0.14709 1.6828e-20)
(1.01391 -0.00102551 0)
(0.282424 -0.265159 -3.85965e-23)
(1.10306 0.397056 -3.64423e-20)
(0.905698 0.222346 -3.59573e-21)
(1.01022 -9.40986e-06 -1.14906e-21)
(1.05833 0.0068904 0)
(1.00865 -0.000134 0)
(0.796413 0.25865 -4.14545e-21)
(1.02033 0.00218016 1.5334e-21)
(1.00177 -0.026469 3.27403e-21)
(1.02964 0.00475774 -5.7125e-22)
(0.982429 0.231586 0)
(1.01112 -0.000115002 -1.94378e-21)
(1.0471 0.01623 -9.96701e-21)
(1.01875 -0.00428657 2.5164e-22)
(1.00616 -0.0133936 2.59332e-21)
(1.04423 0.16044 -5.9477e-21)
(1.00912 -7.63721e-05 -3.89621e-23)
(1.01199 0.000365223 1.81741e-21)
(1.01457 0.00327905 1.69758e-21)
(0.963014 -0.30579 1.08431e-20)
(1.01192 1.49599e-06 2.02324e-21)
(1.00642 -0.017963 2.90406e-21)
(1.06835 0.011456 1.10679e-21)
(1.11015 0.0500921 -3.51945e-21)
(1.01517 -0.000586887 0)
(1.00272 -0.0194633 -2.88811e-21)
(0.815266 0.0757407 2.34781e-20)
(1.11694 0.307038 -9.7368e-21)
(1.02131 0.00578437 0)
(1.01027 0.000253178 9.88544e-22)
(0.812111 0.0331414 4.7859e-21)
(0.985775 -0.281059 -1.22539e-20)
(1.04059 0.0695648 1.36366e-21)
(0.89688 -0.140855 -1.75975e-22)
(1.01003 0.0001883 0)
(0.988533 -0.0276862 1.7016e-22)
(0.990699 0.0308357 0)
(1.00627 0.0364731 6.47549e-22)
(1.02481 0.0249559 9.39966e-23)
(0.930019 -0.244927 -2.64547e-21)
(1.01515 -0.000723704 1.40091e-21)
(1.01508 0.00114016 0)
(1.01968 0.00811016 -1.53151e-21)
(0.828761 0.114599 -9.34886e-21)
(1.01508 0.00207096 2.95448e-22)
(1.00729 0.171985 -2.46124e-21)
(1.01604 0.00168501 3.82424e-22)
(1.02168 0.00479861 -2.03348e-22)
(1.01385 -0.0011828 1.03916e-21)
(1.02007 0.0394873 0)
(0.878158 -0.131064 -7.46497e-23)
(1.01855 0.00846891 4.88088e-22)
(1.02898 0.0115758 -4.07678e-23)
(0.786102 -0.110439 0)
(0.989456 -0.0235161 0)
(0.979265 -0.010004 -5.93397e-21)
(1.01884 0.00819595 0)
(1.01369 0.00280866 0)
(0.980772 -0.0271134 1.99184e-22)
(1.1377 0.280158 1.97894e-20)
(1.0189 0.00580272 0)
(1.01361 -0.00101184 8.44192e-22)
(1.05888 0.0135551 0)
(1.01678 0.00405546 9.71257e-23)
(1.01837 0.00432647 1.34619e-22)
(0.926433 -0.067951 0)
(1.01201 -0.000246659 9.43151e-22)
(0.759827 0.317527 1.98659e-20)
(1.01324 0.000716647 2.88405e-22)
(0.980494 0.0557441 3.21711e-21)
(1.01923 -0.00959312 1.70719e-21)
(0.234254 -0.0768286 -4.77297e-21)
(1.01522 0.00209233 -2.43301e-22)
(1.05894 0.00974749 0)
(1.01477 0.000634723 1.87114e-24)
(1.01255 4.84981e-05 2.13951e-21)
(0.806082 -0.104 5.0008e-22)
(1.01713 -0.00155074 -1.10807e-22)
(0.882244 0.268897 0)
(1.04534 0.0697313 0)
(1.01243 -0.00082131 2.83095e-21)
(1.02182 -0.00757191 -1.46877e-22)
(0.62729 -0.301653 2.49871e-20)
(1.10781 0.170574 1.26975e-21)
(0.988163 0.00137673 -3.47524e-21)
(1.00972 7.60742e-06 -1.75021e-21)
(1.01366 -0.00105532 1.70709e-21)
(1.01405 -0.00112914 -9.60372e-22)
(1.01712 -0.00522967 0)
(1.0111 -0.0136558 -2.31231e-21)
(1.01939 0.00752772 7.68764e-22)
(0.999107 -0.175984 -5.29847e-21)
(1.01704 0.00392294 0)
(1.01588 -0.000532591 -8.43484e-23)
(0.855869 0.371929 0)
(1.04513 0.0207559 0)
(1.00954 -0.0152788 -2.57583e-21)
(1.00713 -9.52523e-05 1.00546e-22)
(1.0122 0.000470081 -2.54773e-21)
(0.867404 0.357671 2.87543e-21)
(0.899373 -0.226691 -8.27865e-22)
(1.01912 -0.00803996 0)
(0.939256 -0.199167 2.6367e-21)
(1.01934 0.000710779 0)
(1.05964 0.0125005 6.86884e-21)
(1.01398 -0.000982544 0)
(1.01255 -0.000870638 0)
(1.01452 0.00342613 -4.33096e-22)
(1.01422 0.00301576 3.19816e-21)
(1.01961 0.00637708 -7.40268e-22)
(1.0098 6.15082e-05 -1.73812e-21)
(0.152791 -0.129094 0)
(1.02826 0.00516849 -3.63267e-21)
(0.904126 0.0297446 0)
(1.01403 0.00187044 9.12129e-22)
(1.0205 -0.00458432 0)
(1.01332 -0.000813899 -8.91231e-22)
(0.971567 -0.0101742 1.34219e-21)
(1.07946 0.235863 0)
(1.0123 -0.000735314 -9.63751e-22)
(1.01428 0.0020227 -1.0807e-21)
(0.951609 -0.00915728 7.1591e-24)
(0.993442 -0.0163619 3.40507e-21)
(1.01317 -0.000756817 0)
(0.73053 0.211476 0)
(1.01295 0.000573628 0)
(0.994215 0.00150334 0)
(1.01171 -2.12875e-05 1.93444e-21)
(1.01308 0.000408377 0)
(1.01242 4.34816e-05 -2.15001e-21)
(0.722031 -0.0902765 -1.90634e-20)
(1.01326 -0.000737818 0)
(1.01427 0.00155995 0)
(1.01292 0.00157738 -3.48844e-22)
(0.766404 0.248708 4.77996e-20)
(1.01066 -0.000153056 0)
(1.01432 0.00325978 5.88532e-22)
(1.00976 1.61198e-05 2.75885e-21)
(1.08785 -0.0428862 -2.24501e-22)
(1.01649 0.00186845 3.94701e-22)
(1.01502 0.00266852 0)
(1.01162 -0.000187338 0)
(1.01514 0.00269897 0)
(1.02595 0.026777 0)
(1.01461 0.00261962 0)
(1.01985 -0.00372755 -5.26055e-22)
(1.0141 -0.000969989 0)
(0.277759 -0.14965 -1.67231e-19)
(0.963405 -0.241322 1.0329e-20)
(1.00656 0.235393 -1.82275e-20)
(1.01709 0.00303221 -5.0508e-22)
(1.05175 0.00530611 -1.86836e-20)
(1.01484 0.000723316 0)
(0.972546 -0.0840267 0)
(1.01644 -7.83239e-05 -8.98937e-22)
(0.907159 -0.303871 3.64907e-21)
(0.915087 -0.0016121 -1.96613e-21)
(0.992988 0.259577 -3.79459e-21)
(0.994766 -0.00393054 0)
(0.831974 -0.103708 -1.93803e-21)
(1.01909 0.000686659 0)
(1.01915 0.00528432 7.56192e-22)
(0.88544 -0.0580873 1.92438e-20)
(1.08555 -0.0321221 1.48275e-21)
(1.01997 -0.0133179 -4.93753e-21)
(1.08049 -0.0106104 0)
(1.02573 0.00561408 -2.96556e-21)
(0.913698 -0.181422 3.95962e-22)
(1.01297 0.000890762 1.94795e-21)
(1.02076 0.0062341 1.00766e-21)
(1.01407 -0.00101064 -2.47374e-22)
(1.01181 -3.47245e-06 2.47218e-22)
(1.01163 0.00032879 -1.01062e-21)
(0.870833 0.00019144 0)
(1.03591 0.00531976 0)
(1.01076 -0.000154092 3.67511e-22)
(0.458187 -0.435855 -5.03217e-22)
(1.01654 0.00339832 3.5169e-23)
(0.95819 -0.0766345 0)
(1.01829 -0.00567168 2.23212e-22)
(1.03623 0.00257188 -7.62976e-21)
(1.00604 -0.0130279 0)
(1.01053 0.000175573 1.10214e-21)
(0.932916 -0.280413 -1.59596e-20)
(1.01362 0.000856 1.40233e-21)
(1.01426 0.00289656 9.83181e-22)
(0.918548 0.0343999 9.30699e-22)
(1.02174 0.00524168 0)
(1.01634 -0.000629087 0)
(1.00773 4.60378e-06 -1.70193e-21)
(1.01327 0.00091178 0)
(1.01244 0.000810119 0)
(1.09025 0.00751359 1.30085e-21)
(0.903082 -0.0671889 4.84007e-22)
(0.984654 -0.220376 -5.7434e-22)
(1.02603 0.00150597 0)
(1.01383 0.000762368 -2.29761e-21)
(1.01317 0.00102637 0)
(0.89306 -0.193843 0)
(1.01299 0.0083043 0)
(1.01372 0.00311211 0)
(1.01242 -0.000325597 -1.99932e-21)
(1.01268 0.000900826 -3.96648e-21)
(0.836342 -0.144692 -6.93055e-21)
(0.923615 -0.10004 3.75018e-21)
(1.00845 -0.0102433 -1.53102e-22)
(1.01587 0.00380496 -9.00322e-22)
(1.01218 -1.20649e-05 1.06349e-21)
(0.46112 -0.214601 2.00018e-19)
(1.06 0.0106642 2.81149e-21)
(1.01575 -0.00844007 2.85982e-22)
(0.971742 0.00890149 -5.2495e-21)
(0.874641 -0.0886925 8.17256e-22)
(0.834462 0.281687 -8.7493e-21)
(0.853392 -0.178094 -3.57915e-21)
(1.01297 0.000856834 0)
(1.00974 2.74458e-05 -1.82904e-21)
(1.01359 0.000864666 0)
(0.99433 -0.177645 2.07059e-21)
(1.01287 0.000832284 2.31837e-22)
(1.05434 0.00631925 0)
(1.01478 -0.000122715 -1.41261e-21)
(1.01715 -0.00165311 1.16208e-22)
(1.01126 -0.0130718 2.73598e-21)
(1.01652 -0.0010624 0)
(0.646197 -0.129466 1.10363e-20)
(0.54048 -0.0153244 3.21479e-20)
(1.01373 -0.00124429 6.82768e-22)
(1.01468 0.001994 -5.35914e-22)
(1.01467 -0.00131926 0)
(0.936381 -0.0328849 1.88067e-21)
(1.01181 -1.39193e-05 -2.16868e-21)
(1.03722 -0.117674 -1.71638e-20)
(1.01896 -0.00324953 0)
(0.815758 -0.178974 -4.20115e-20)
(1.01361 0.000764745 0)
(1.01461 -0.000844605 -3.01825e-22)
(1.01228 -0.00071881 2.75775e-24)
(1.01503 0.00121333 1.0343e-22)
(1.01895 0.00469724 0)
(1.0185 -0.00307182 1.39921e-24)
(1.02056 0.00201943 0)
(1.02949 0.00611425 0)
(1.02369 -0.0157191 2.41016e-21)
(1.04631 0.0145733 1.04623e-20)
(1.06591 0.150474 8.53442e-21)
(1.01852 0.000147395 1.41765e-21)
(1.06958 -0.0311826 -1.50427e-21)
(0.887031 -0.0236247 9.14607e-22)
(1.01544 -2.64238e-05 3.95607e-22)
(0.736113 -0.382911 0)
(1.01365 0.00174696 -1.27205e-21)
(1.01382 0.00214879 -2.51623e-21)
(1.02254 -0.00525588 1.31909e-21)
(1.0093 -9.52791e-05 -2.15532e-21)
(0.921519 -0.174949 1.94609e-20)
(1.01456 -7.00005e-05 0)
(1.01708 0.00322023 1.95517e-21)
(1.01404 -0.00119225 -1.208e-21)
(0.867048 0.350783 2.04615e-20)
(1.01442 -0.000731357 -9.53591e-22)
(1.01349 -0.152465 4.5392e-21)
(1.04956 0.0594263 0)
(1.01378 0.000726066 0)
(0.940158 0.101119 7.31707e-22)
(0.973819 -0.205128 8.75763e-21)
(1.01892 -0.00605583 -8.64923e-23)
(1.01305 4.8462e-05 0)
(1.08617 -0.00876275 -3.2292e-21)
(1.00401 8.65618e-05 8.2477e-22)
(0.924217 0.232494 -1.29278e-21)
(1.02551 -0.0106503 2.02478e-21)
(1.03768 0.0172615 1.32087e-21)
(1.01295 -0.0169606 9.90212e-23)
(1.0253 0.00156277 -7.33709e-22)
(1.0218 0.00611413 1.48416e-21)
(1.0145 0.00400356 1.34301e-21)
(0.993131 0.00925396 -1.93802e-21)
(1.02375 -0.00341032 -1.21958e-21)
(1.02171 0.0851619 4.87172e-23)
(1.08572 0.184569 6.50009e-21)
(1.01737 -0.00179337 0)
(1.01828 -0.00544696 -2.88171e-21)
(1.01653 2.49668e-05 0)
(1.04004 -0.00603646 3.2634e-22)
(1.0042 7.27889e-05 0)
(1.02642 -0.172157 1.14636e-20)
(1.0288 0.00218932 -4.61122e-21)
(1.0187 0.00604972 -5.98043e-22)
(0.912757 0.0118601 4.51406e-21)
(1.01342 0.000819542 -2.06767e-21)
(1.08735 -0.00364934 3.36173e-21)
(1.00611 0.0407203 9.0482e-22)
(1.01272 0.000187477 2.78271e-22)
(1.05884 -0.0488057 1.74911e-22)
(1.01154 -0.00456542 1.85553e-21)
(1.01428 0.00121059 0)
(1.01793 -0.000127765 0)
(0.981705 0.0359628 -3.09357e-21)
(1.01288 0.000988411 3.45482e-21)
(0.816355 0.291057 1.81818e-20)
(1.02858 0.00592802 -2.36242e-22)
(0.979291 0.0287722 0)
(1.0558 0.00600474 0)
(1.08701 -0.0856261 -1.66602e-20)
(1.01739 0.000313573 -2.52856e-21)
(1.00987 0.034773 0)
(1.0174 0.00096332 -1.0657e-21)
(1.02981 0.0069221 0)
(1.04523 0.0570555 1.4937e-21)
(1.01232 -0.000581326 0)
(0.988498 0.0356824 3.18445e-21)
(1.01424 0.00180687 2.31947e-21)
(1.03008 0.00279078 0)
(1.01464 -0.00112701 -1.21713e-21)
(1.01433 0.000662921 -2.39778e-22)
(1.03682 0.012757 0)
(1.03473 0.075042 -9.0444e-22)
(1.00988 0.000191427 0)
(1.02607 0.00361378 0)
(0.941236 -0.0706405 -9.83054e-22)
(1.01231 -0.000462601 -1.66247e-21)
(1.01356 0.00077014 2.24307e-21)
(1.01416 0.00180378 -6.31056e-22)
(1.01473 -0.00155172 -2.38032e-22)
(1.00553 -0.00959493 0)
(1.01947 0.000109806 0)
(1.01575 0.00166864 -1.42761e-21)
(1.00478 -0.00712688 2.22551e-21)
(0.945688 -0.0984539 0)
(1.01861 0.00462034 0)
(0.996839 0.00226365 -6.60253e-22)
(0.947099 0.216951 -3.38586e-21)
(1.01255 0.000809679 1.99241e-21)
(1.0151 0.00126745 -1.17214e-21)
(1.01482 -0.00144142 0)
(0.849297 -0.142277 4.74696e-23)
(0.873272 -0.0493574 0)
(1.04311 0.0207024 -4.25531e-21)
(1.01198 0.000326693 -2.87286e-21)
(1.01784 0.0779926 4.86121e-22)
(1.12504 0.24987 -2.45164e-20)
(0.423425 -0.407509 0)
(1.01759 -0.00198848 1.3292e-21)
(0.831931 -0.116513 -8.08064e-22)
(1.18468 0.143439 -1.0255e-20)
(1.03218 0.196367 1.80886e-20)
(1.01214 -0.00561024 0)
(1.01849 -0.00321783 1.50206e-22)
(1.01904 -0.00580818 1.42941e-21)
(1.0771 0.120538 0)
(0.95375 -0.0511493 0)
(1.02877 0.00465515 0)
(0.308691 -0.324797 -1.64868e-21)
(1.0481 0.0122515 0)
(1.06781 -0.0304532 -3.90761e-21)
(0.928733 -0.112461 -2.11307e-20)
(1.01374 0.00235035 2.62657e-21)
(1.02436 0.0255101 2.65723e-22)
(0.906075 0.27582 1.04663e-20)
(1.04735 0.0497273 -1.35583e-21)
(0.734736 0.285791 2.25258e-20)
(0.992419 0.0119248 0)
(0.207892 -0.243279 6.76388e-21)
(1.01621 0.00207563 1.213e-21)
(0.863291 -0.216425 0)
(1.02129 0.00533297 0)
(1.00684 -0.00745411 0)
(1.00983 0.000166649 1.05287e-23)
(0.9986 0.00487298 -5.23991e-21)
(1.01656 -0.000847573 2.43816e-22)
(1.02121 0.00670252 0)
(1.01454 0.00207353 -5.31862e-22)
(0.694356 -0.0452768 3.44219e-20)
(1.01476 0.000201854 0)
(1.01742 -0.00190359 0)
(0.841143 0.359014 1.34377e-21)
(1.02041 0.00438638 0)
(1.05259 0.0239477 7.68021e-21)
(1.01776 -0.00277856 1.75155e-22)
(1.01771 0.0750048 0)
(1.01298 -0.000277466 8.79161e-22)
(1.02895 0.0127004 -4.0417e-23)
(1.01682 0.00364841 0)
(1.01589 0.00106587 -2.65066e-21)
(1.01657 0.00330767 5.93168e-24)
(1.05687 0.00725276 0)
(1.01254 0.000867733 0)
(0.981849 0.468456 -2.91895e-20)
(1.04557 0.0169934 0)
(1.07041 0.00282885 0)
(1.01488 7.08046e-05 1.43981e-21)
(0.978016 -0.199878 5.28998e-21)
(1.01233 0.000711493 1.77442e-21)
(1.09262 -0.00100597 -1.369e-21)
(0.931152 -0.0112292 -1.08645e-21)
(1.02494 -0.00236102 0)
(1.01669 0.00359559 -7.95861e-23)
(1.01414 -0.00143205 6.17976e-22)
(1.01583 0.00137228 2.913e-22)
(1.01581 0.000349075 2.66568e-22)
(1.11581 0.17109 -1.32679e-21)
(0.986415 -0.0282576 0)
(1.01325 0.000978529 0)
(1.10309 -0.0462846 -3.15546e-21)
(1.01084 -0.000130966 1.7795e-21)
(1.01394 0.000578487 -6.80382e-23)
(0.91429 -0.297733 2.13647e-21)
(1.01439 -0.000972335 0)
(1.01626 0.00050149 4.9037e-22)
(1.11732 0.00966035 -2.21651e-20)
(1.01271 0.000712253 2.7526e-21)
(1.04076 -0.0934239 3.85454e-22)
(1.03547 0.0123897 0)
(0.940153 0.00556617 0)
(1.05507 0.0201929 1.52626e-21)
(0.993026 -0.0254526 0)
(1.02218 -0.00960635 -2.40745e-21)
(1.01697 0.00403136 0)
(0.820589 -0.439393 1.17383e-19)
(0.706123 -0.362123 -1.12544e-19)
(1.01415 0.0019919 -7.02358e-22)
(0.988899 0.0262701 -3.72897e-21)
(0.67656 -0.147192 7.507e-21)
(0.980713 0.435256 -9.04119e-20)
(1.02553 0.202544 0)
(1.00874 -2.46782e-05 -3.24431e-22)
(1.01372 -0.000194913 0)
(1.01639 0.00150506 5.21623e-22)
(1.01938 0.0067035 7.29318e-22)
(1.01309 -0.00549742 2.78859e-23)
(0.950334 -0.100124 -1.56614e-21)
(1.05122 0.00666169 0)
(1.01416 -0.00124915 -1.49424e-22)
(1.06932 0.014438 1.18118e-20)
(0.904016 0.196113 3.67506e-21)
(0.879747 -0.0178238 -2.16757e-21)
(1.01395 -0.00110816 -1.23527e-22)
(1.01469 -0.00122032 8.33418e-22)
(1.01002 -0.000128589 -1.57995e-22)
(1.02595 0.00625214 0)
(0.941232 -0.291732 -1.42368e-20)
(1.09448 0.0653749 -2.10398e-22)
(1.01463 -0.00148257 1.10979e-21)
(1.05418 0.0104497 8.75233e-21)
(1.03205 0.0950952 2.52957e-23)
(1.01475 0.00420553 -1.16985e-21)
(1.01243 0.000353723 5.31481e-24)
(0.420084 -0.345251 -6.4093e-22)
(1.01119 0.00878244 -5.52756e-22)
(0.968804 -0.0523269 1.6868e-21)
(1.01523 -0.00618266 0)
(1.01024 6.05807e-05 2.23842e-21)
(1.02608 0.00254869 6.33204e-21)
(1.0186 0.000169855 2.21423e-21)
(0.965593 -0.0609315 0)
(1.03947 0.0449366 -1.52461e-22)
(1.0144 0.00367369 -2.22851e-21)
(0.848454 0.0907841 -1.63374e-20)
(1.10017 0.193116 1.77852e-20)
(1.02561 -0.158501 0)
(1.04218 0.0197145 5.83218e-21)
(1.01218 0.00917626 1.24808e-21)
(0.378674 -0.32887 0)
(1.07242 0.0141088 -1.18735e-20)
(0.916582 -0.00800257 -2.55772e-20)
(1.06685 0.0100378 -3.78608e-21)
(1.01877 0.00516041 0)
(1.01349 0.00153502 -2.64569e-21)
(1.05843 -0.137806 1.13497e-20)
(1.08441 0.183113 2.88058e-21)
(1.01231 0.00394267 -1.73797e-21)
(1.05254 0.0106531 -8.49137e-21)
(1.07494 0.0126328 -7.62362e-21)
(1.01433 0.00201945 -2.4682e-21)
(1.05928 -0.00879038 0)
(1.01246 0.00449124 0)
(1.01479 0.00131701 2.28651e-21)
(1.00861 -0.000101278 0)
(1.07068 0.0134922 -1.31287e-20)
(1.0142 0.00131852 -2.3211e-21)
(1.01455 0.0021692 0)
(0.0904443 0.115275 -1.20652e-20)
(1.01283 0.000759265 0)
(1.01355 -0.000140937 6.35459e-22)
(0.970298 0.0211761 0)
(1.05287 0.0166038 0)
(0.848665 0.0165808 0)