/*--------------------------------*- C++ -*----------------------------------*\
| =========                 |                                                 |
| \\      /  F ield         | OpenFOAM: The Open Source CFD Toolbox           |
|  \\    /   O peration     | Version:  v2012                                 |
|   \\  /    A nd           | Website:  www.openfoam.com                      |
|    \\/     M anipulation  |                                                 |
\*---------------------------------------------------------------------------*/
FoamFile
{
    version     2.0;
    format      ascii;
    class       surfaceScalarField;
    location    "100";
    object      meshPhi;
}
// * * * * * * * * * * * * * * * * * * * * * * * * * * * * * * * * * * * * * //

dimensions      [0 3 -1 0 0 0 0];
oriented        oriented;


internalField   nonuniform List<scalar> 
14885
(
-0.000145782
-0.000417538
0.000569219
-0.00344289
0.00184926
0.00159704
-0.000271803
0.00259476
-0.00230545
-0.00105265
0.00152686
-0.000371785
4.94465e-05
-0.000413452
0.000466009
0.00297357
-0.000643742
-0.00232955
0.00052941
0.00205673
-0.00257821
-0.000929254
0.00110004
-0.000168219
-0.000576005
0.000397475
0.000203077
-0.00310328
0.00122364
0.00188838
0.000197629
0.000846095
-0.00103835
-0.00167047
-0.00176934
-0.000401498
0.00259323
-0.00218219
0.000512563
-0.00124756
0.000762911
-0.00309283
0.000964636
0.00216117
0.00126151
-0.000720848
-0.00230039
0.00212217
0.000179308
-0.000804099
0.00100655
-0.00277546
0.000588733
0.0022053
-0.00341695
0.000920861
0.00251901
-0.00249375
0.00210143
0.000428797
-0.000568064
-0.00133321
0.000388138
0.00016091
-0.00160114
0.00143957
0.00216456
-0.000472308
-0.00161377
-2.11491e-05
5.43169e-06
2.47507e-05
-0.00268349
-0.000405504
-0.000288005
0.000311639
-2.56678e-06
0.000412616
0.00256188
-0.000424682
-0.000957159
0.00138323
0.000279212
-0.000111716
-9.90898e-05
-0.00242368
0.000389126
0.00204025
-0.000522047
0.000150852
0.000397872
-0.000164112
-0.000330657
-0.00107379
0.000146591
-0.00107006
0.000958167
0.000112543
-0.000379001
8.87723e-05
0.000467648
0.000493187
-5.30845e-05
-0.000414109
0.000214794
0.000132053
4.77505e-05
-4.94554e-05
1.9079e-06
0.00140356
-0.00182656
-0.000398255
0.00219995
-0.00263802
0.00044137
0.003569
-0.00319327
-0.000364453
0.00177405
-0.000259024
-0.00143557
0.000640638
0.00157144
0.000154805
1.0143e-05
-0.000154943
-0.00271237
-0.000340518
-0.000280825
0.00234227
-0.00205325
-0.00263777
0.00277676
-0.000133688
0.0024172
-0.000213277
2.99552e-05
-0.000808485
0.000875868
-0.00188763
-0.000295875
-0.00246196
0.00308035
-0.00286604
-0.000209976
0.00249781
-0.0023154
-0.000179528
-0.000356789
-0.00212823
-0.00131072
0.000428007
0.000898103
-0.00288547
0.00255204
0.000367643
1.35774e-05
-1.21369e-05
-5.14507e-07
-0.00261698
0.00234553
-0.00311046
0.00289031
0.000225949
-0.00235078
-0.000283096
-0.000856117
0.000998074
-0.000139547
-0.00181596
0.000260678
0.00156937
-0.00282047
0.000811247
0.00205401
-0.00322596
0.00110696
0.00213881
-0.000507269
0.000639029
-0.000125613
-4.40261e-05
-9.20742e-05
0.000144013
-0.000595554
9.45889e-05
-0.00236343
0.00245497
-8.70899e-05
0.000227345
0.00250829
-0.00271643
0.000123925
0.000663189
-0.000759048
-0.000520727
-0.00232626
-0.00217285
-0.000591638
5.7232e-05
0.000816484
-0.00178569
0.000982728
0.000168962
-3.83996e-06
-0.000884217
0.00171434
-0.00191262
0.0025185
0.00317859
0.000399824
0.00156406
-5.95889e-05
0.000208558
-4.47375e-05
-0.000710507
0.000101055
0.0006918
-0.00351575
0.00138638
0.00214445
0.00254548
-0.00263628
9.77544e-05
-0.00237096
-0.000834106
-0.00253489
0.00228031
0.00170524
-0.00174305
6.9352e-05
0.000620675
0.00140828
-0.00201491
-0.00306284
0.00207956
0.000994199
-0.00160405
0.00259831
-0.00238573
4.02722e-05
-0.000284711
0.00283816
-0.00169388
0.000191767
0.0015123
-0.00219963
0.00253268
-0.000290423
-0.00171151
0.0016737
-0.00228973
-0.00169971
0.0019939
-0.000289836
0.00272541
-0.00030602
-0.00238153
-0.00224311
-0.000806604
-0.00272065
0.00295308
-0.000221899
0.000861595
0.00214178
-0.00296473
0.00186021
-0.00252666
-0.00271705
0.000285398
0.00244783
0.00265029
-0.00262163
-1.46371e-07
-0.000789844
0.00212811
-0.00133498
-0.00264207
0.0005203
-0.00193713
0.00247357
-0.000244186
0.00292605
-0.00280358
0.0033827
-0.000535494
0.000680826
-0.00261079
-0.00299956
0.000290019
-0.00101012
0.000156989
-0.000241344
-0.00156122
-1.69409e-05
-0.000158155
0.000182778
0.000827467
-0.00215098
0.00134082
-0.00020582
4.90561e-05
0.000239106
-0.000327857
-0.000961183
2.30006e-05
-0.000165475
0.000149976
1.47857e-05
1.38926e-07
-0.00318324
0.00167914
0.00150968
-0.00225128
-0.00092728
0.000436867
0.00140986
-0.000938498
0.00157001
0.00166083
-0.00179308
0.000169499
0.00190653
-0.000209368
0.000211355
0.00287248
-0.00208416
0.00194161
0.000145317
0.0022395
-0.0013939
0.000587129
-0.000591326
3.07849e-05
-0.00242175
0.001749
0.000715443
0.000199048
-0.00175648
0.00158592
0.00163235
-0.00268928
0.00109961
-0.0015744
0.00226161
-0.000171706
0.00238506
-0.00220768
-0.00303429
0.000718277
0.00233541
-0.00131301
-0.00156481
-0.00320165
0.00287513
0.000352385
-0.00211599
0.000421937
-0.000292823
0.00245394
-0.00215565
-0.000150058
1.83609e-05
0.000157344
-0.00258054
0.00179469
-1.04181e-05
-0.000253534
0.00194164
-0.00294694
0.00102065
9.24329e-05
0.000422764
-0.00151104
-0.00199103
-0.000171382
0.000137711
-0.0027923
9.20771e-05
0.00272744
0.00051084
-0.00190712
0.00139914
-0.00191077
-0.000690812
-0.000109649
0.000114381
1.96576e-05
0.00310096
-0.00260423
-0.000481327
-0.00229131
0.0025088
-0.000211456
-0.00021746
-0.00146549
-0.00065476
0.00261302
-0.00192888
-0.000152371
0.00198428
0.000515854
0.00170702
-0.00148067
-2.87631e-06
-1.21411e-05
0.00038662
-0.000152097
-0.000136561
4.40452e-05
2.38093e-06
-0.0023543
0.00218837
-4.64225e-05
-0.000309731
0.00289481
-0.00255649
-0.00202272
0.00253752
-0.000745698
0.000902585
0.00252751
-0.000659798
-9.38164e-05
-0.000974755
0.000425442
-0.000174365
-0.000230773
-0.00166147
0.000212302
0.00145939
0.000909943
-0.00186617
0.00237827
0.000523707
-0.00289622
0.000288056
0.00231675
-0.00259611
0.00289475
-0.000508708
0.000601064
0.000980871
-0.00152544
0.000593182
-0.000474263
-0.000658106
-0.00171225
8.18787e-05
-0.000166293
-0.00281971
-0.000353111
-0.00327846
0.00132968
0.00196235
0.00224016
-1.36199e-05
0.00015276
-0.000133399
-6.35609e-05
1.93653e-05
4.70001e-05
-0.00161428
-0.000830153
0.00245373
-0.00227415
0.00251871
-4.19639e-06
1.13492e-05
-6.38362e-06
-0.00222759
8.98288e-05
0.00214132
-0.000196685
0.000202085
4.10903e-05
-0.000525423
0.00219211
-0.00253995
0.000609746
6.80971e-06
-0.000721143
-0.00254237
0.00293924
-0.00309383
0.000157544
-0.0027107
0.00113185
-0.00118008
0.00206706
-0.000885069
-0.00165835
0.000203563
0.001469
0.00178776
-0.00166711
-0.000119883
-0.000642895
2.37818e-06
-0.00178132
0.00207519
-0.000291121
0.00246145
-0.00240177
-5.44975e-05
0.00265444
-0.000462289
-0.00218401
9.27993e-05
-8.83402e-05
5.18651e-06
0.00170299
0.000295379
-0.000142925
-0.00158659
0.000116869
0.00137434
-0.00149195
-0.00246718
0.000184193
-0.00274537
-1.90631e-05
0.00206426
-0.000399555
0.000110103
0.000114846
-1.19568e-05
0.00240915
0.000253543
0.00269707
-0.00251336
-0.000171406
-0.000250342
0.000732387
-0.000302866
0.00046258
0.000127816
-0.000583741
6.84249e-06
-8.64558e-05
9.17568e-05
0.000429222
-0.00272631
0.00230664
-0.000470634
1.79957e-05
0.000562213
0.000163416
0.00181569
0.000140254
-0.00195481
-0.000189365
-0.00145959
0.001954
-0.00013653
-0.000128552
0.000784956
0.000808739
8.06005e-05
0.000239664
0.00237655
-0.00258397
-0.000871034
-0.00214131
-0.000392232
0.00297683
-0.00256642
-0.00133065
0.00222102
0.000103762
0.000514927
0.00119147
0.000745281
-0.00251954
0.000915055
-1.9471e-05
-0.000122273
-0.000924594
0.00158303
0.00100786
-0.0032867
0.00114476
0.00216901
-0.00181688
0.000106124
-0.00259113
-0.000341699
-0.00146058
-0.000141038
0.000235666
-0.00251884
0.00229402
-0.00179653
0.000223545
0.00158289
1.58843e-05
-3.83077e-07
3.84296e-05
6.88949e-06
-0.0025831
-0.000164939
0.00275244
-0.000385131
0.000536239
-0.000256953
-0.00152755
-0.00275926
0.000186065
0.00173519
0.00137673
-0.0003414
9.97006e-06
0.000266033
-0.00296506
0.000609
2.74884e-05
-0.00296412
0.00142469
0.00155106
-0.000818685
-0.00163637
0.00246083
-0.00246365
-0.000290442
-0.00089979
-0.00236076
-1.98377e-05
-0.000138789
-0.00294108
0.00237882
0.00059547
0.000993645
0.00068069
-2.3506e-05
0.000731939
-0.00061169
-0.000354307
0.00177565
3.81782e-05
0.000522508
-0.000531446
0.00079038
-0.000670695
-0.000165903
0.000186339
0.000134897
0.00247856
-0.00328926
0.00146102
-0.00180193
-0.00126054
-0.00169245
-5.10856e-06
-3.3911e-05
9.03839e-05
-0.00037589
0.0015937
0.00044535
-0.00210041
0.00171034
-0.00245729
-0.000173821
0.00136255
-0.00132198
-7.44922e-06
0.00233459
0.000124912
-0.000639278
-0.00226863
-0.00120604
0.000325478
0.000900513
-0.00305231
0.00100283
0.00206784
-0.0015698
0.000193228
0.00144967
7.12452e-05
-2.75709e-05
0.00029894
0.000197677
0.000131472
-0.000201569
0.0019005
-0.00168502
-0.00191991
0.000741378
-0.000384631
-0.00264246
0.000474254
-0.00012683
-0.000109981
-0.00177132
-4.88061e-05
0.0018212
-0.000826257
-0.00146378
0.00230696
-0.000242345
-2.08774e-05
0.000275189
-6.33697e-05
0.00050167
-0.000432267
-5.13809e-06
-8.40163e-05
-0.00251589
0.00219073
0.000334658
0.000101356
-0.00190317
0.00182391
-9.53125e-05
0.000369421
-8.93409e-05
-0.00129624
0.00187419
-0.000572143
0.00173493
-0.000603639
0.00117487
-0.000552442
0.00277768
0.00015814
-0.00292068
-0.00339738
0.00255155
-0.00161271
0.00211172
-7.97647e-05
9.86041e-05
0.000291163
0.00224289
-5.98766e-06
2.25778e-06
0.0024322
-0.00218616
0.00112331
-0.00193523
-0.00123945
-0.00186573
-0.00141114
0.00155627
-0.000110296
-8.26276e-07
3.95382e-05
0.0026677
0.000120198
-0.00183798
0.000544767
-0.00023001
-1.24178e-05
0.000937238
0.00137518
-0.00227281
0.000356901
-0.00250068
0.000464725
-0.00105156
-0.00174303
0.00186643
-0.000475351
0.000417881
-1.41411e-05
-0.000143865
-4.01269e-05
-2.29682e-05
0.00162393
-0.000136466
-0.00148394
0.00014669
-0.000156284
2.73832e-05
1.43952e-05
-2.6837e-05
0.00231853
2.08149e-05
-0.000313582
-0.000872061
-0.00073576
8.8853e-05
0.000650362
-9.5283e-05
8.57963e-05
1.04644e-05
0.000275908
-0.000352987
0.00146518
-0.000155545
-0.00129044
-0.00215937
0.00154444
-0.00222523
-0.000329209
-0.00217695
0.00156644
-0.00168315
0.00254443
-0.0026441
0.000142327
0.000223175
-0.000634734
9.7811e-05
-0.000124
5.90953e-05
-0.00144743
0.00156346
8.06893e-05
0.000427709
-0.00281642
0.00185735
0.000964133
-0.000623115
-0.000108501
0.000602334
3.7358e-05
0.000294769
-0.00231176
-0.00232121
0.00203356
0.000323674
-0.00254688
0.00223168
1.54888e-05
1.7357e-06
0.00158642
-0.000171406
-0.00139651
-0.000189356
0.000165116
0.000118041
0.000614125
-0.000484334
0.00126018
-0.00131673
8.82991e-05
-0.000238539
0.000560209
-0.00023125
-0.000254961
0.00220854
-0.00192941
-0.000231283
-0.00234767
0.0026023
-0.00156901
0.00177132
-0.00206463
0.00183327
0.000406404
-0.000496705
0.000102476
-1.22873e-05
0.00290807
0.000177641
0.00130482
0.00267776
-0.0024052
3.04705e-05
0.000237601
0.00178738
-0.00202214
3.37151e-05
-7.81982e-06
-9.05075e-06
-0.00275417
0.000167319
0.000529814
-0.000277159
-0.00272207
0.00243957
-0.00173232
0.000224705
0.00151506
-0.00175324
0.00205318
0.000100916
0.000368668
-0.000502065
0.000213813
0.000208238
-0.00203789
0.00185353
-0.00183309
-0.00305655
0.00271043
0.000349167
5.14256e-07
-5.34333e-05
-4.14532e-05
-1.6144e-05
-9.61317e-07
9.61317e-07
-0.00187595
-0.000749684
0.00151497
-0.00142977
-5.93493e-05
0.00121686
-0.000871432
0.000310569
-0.00252824
0.00222989
0.000240333
-0.00274343
0.00251067
-0.00257414
0.000706298
0.00270902
-0.00254321
-0.000123149
-0.00218536
0.00250766
-0.00293464
0.00256081
-0.00175217
-0.000363024
-0.00267547
0.00101122
0.00166888
0.000177138
0.00023748
-0.000142867
-1.71783e-05
-0.00186435
0.00159807
0.000292497
-0.000234215
3.57888e-06
-0.0030244
0.00242
0.0019889
-0.00198758
3.84443e-07
-0.00259169
0.00238411
0.000159905
-0.00145077
0.00130869
0.000331897
-0.00208348
-0.0033121
0.00168146
0.00173425
-9.99025e-05
-0.00153703
-0.000164547
-0.000906466
0.000266616
0.000381533
-0.00142075
0.00181427
-0.000813787
9.48834e-05
-0.00181532
0.00193791
-0.000120813
0.000262784
-0.000245836
-1.27028e-05
-0.00287288
0.000475635
0.0016058
-0.00208005
-9.2432e-05
0.000510656
-0.000160106
-0.00215534
-0.000494992
-6.95712e-05
0.000572456
-0.000265294
-0.0022425
-0.00062433
-0.00236638
-0.00281039
0.00134504
0.00146874
0.00126233
-0.00244213
0.00119298
-0.00161144
0.00184496
-0.000169905
-0.00239839
-0.000965814
0.000129226
0.000839889
-0.00253266
0.000310817
0.00224858
-0.000652652
0.00274315
-0.00207332
-0.00284168
-7.06693e-06
-0.000166521
0.0001854
-0.000919058
-0.00158894
-0.000124888
0.000135937
1.92835e-05
-0.00151241
0.00184576
0.000123321
0.000517232
0.000125341
-0.000133453
5.66023e-05
-0.00174384
-0.000675439
0.00244582
-0.00292944
0.000227162
0.00271976
-0.00121855
-0.00158661
-0.000530329
0.000588222
0.00252398
0.000544608
-0.00226325
9.43298e-05
8.48394e-05
-0.00125439
0.00253009
0.000376679
0.000581356
5.50538e-05
-0.00054166
-0.000257456
-0.00243845
-0.00221488
-0.000117219
0.00233473
0.000908502
2.61528e-05
1.77004e-05
-2.77393e-05
-0.0020802
-0.000232592
0.000248635
-0.000225847
-2.56388e-06
0.00053573
-0.00225106
-0.000174638
-0.00232462
0.00251638
9.51543e-05
-6.664e-05
-5.47984e-05
1.89524e-06
5.26436e-05
-0.000207876
-0.000752117
-0.000106766
-0.00224257
0.000836273
1.96122e-05
-0.000139312
0.000125436
-0.00113337
0.000839211
-0.00206601
0.00267072
-0.000594827
0.000636739
-0.00269411
-0.00194656
-0.000722568
-0.000634101
-0.000615287
0.00129749
-6.74953e-06
-0.00179696
0.00212953
-0.000138976
1.54448e-05
-3.56321e-06
3.99957e-05
-3.50316e-05
0.000128156
0.000169132
-0.00191847
0.00104672
0.000953805
0.000917944
-0.000902352
-1.4855e-06
4.72651e-05
0.000885796
-0.000256664
-0.00158351
7.66098e-05
0.000516186
-0.00276024
0.00272816
-0.00119292
0.00175045
-0.00148397
0.0017064
-0.00237502
0.00227335
0.00042112
-0.00036744
-4.11459e-05
0.00194367
-1.52071e-05
-0.00192701
-0.00239359
0.000182088
-0.00210635
0.000342684
0.00176914
-4.79623e-05
0.000172123
-0.00240545
0.00215988
-1.57529e-05
5.67169e-05
-0.000960702
-0.00234581
0.000267127
-0.00218122
0.00196528
-0.00156171
-8.0968e-05
-0.00260381
0.00245786
-0.00182613
-0.000284278
-0.000129981
1.31036e-06
-0.00236193
0.00264378
-2.13391e-05
1.90754e-05
-0.00028748
-0.000826822
-0.000346995
0.00194715
-0.00159686
-2.33325e-05
6.62345e-05
-0.00045108
0.000475041
2.87229e-05
-0.00170687
-0.00207793
-0.0008927
0.00297519
-0.000454858
0.00052113
0.00170321
-0.00154945
-0.000136477
-0.00260819
0.000234218
0.00239052
0.00216724
-0.00232158
-0.000357414
-0.000127856
0.000158145
0.00161972
0.000256936
-0.00206429
-0.000293089
0.00236254
0.00261623
-0.00261029
3.09894e-05
0.000115229
-0.000179619
-0.00179959
0.00100725
-0.00307989
0.00186196
0.00106223
-0.00291301
-0.000135872
0.00208697
-0.0019448
0.000127856
7.61438e-05
-0.000152209
3.4447e-05
-3.40233e-06
-2.96397e-05
0.00287157
-0.000325979
-0.00252927
0.00282936
-0.00249314
-0.000320857
0.00290807
-0.00276163
-0.000125927
-0.000138852
0.00150987
-0.000445084
0.000100672
0.0011917
-0.000864508
-0.000224299
-0.00255006
-8.03574e-05
0.00266248
-2.95076e-05
0.00165198
0.000382001
0.00115852
-0.00148439
-0.00243966
-0.000758927
-0.00109174
0.00256394
-0.0026236
0.000101998
0.000428314
-0.000391118
-2.45182e-05
0.00203949
-0.00267519
0.00176359
-0.00189389
-0.00326564
0.00196687
0.00244436
-0.00267566
-0.00329305
0.00172357
0.00158177
-0.00141951
0.00163686
0.00275054
-0.000466145
-0.00226479
-0.000651321
-0.0025731
0.00232477
-0.00016624
-0.00211547
3.08133e-05
4.29465e-06
-0.0025387
0.000478935
0.00258922
0.000159473
0.000142849
0.00015708
-0.000285949
-0.000353643
-0.00223971
0.00134713
0.00121649
0.00252932
-0.000189656
-0.00228472
0.00270617
-8.32873e-05
-0.00260943
-0.000443359
-0.00281532
0.000237229
-0.000208032
0.000645646
0.000310654
-0.000789023
8.88196e-05
0.000712916
0.000140222
-0.00116583
0.00160509
0.00247661
-0.00263794
0.000172002
-0.000465286
9.66676e-05
-0.000677619
0.000680684
2.28601e-05
-0.00148505
-0.00179834
1.66358e-05
-4.85234e-07
0.000262396
0.00227673
-0.00253085
0.00274031
-0.000867771
0.000546024
-0.00019816
-0.000326805
0.00137194
-0.00130959
-4.37418e-05
-0.0013941
-0.00142007
0.00284251
-0.000364913
-0.00246318
-0.00169037
7.68464e-05
7.80506e-05
-0.000120862
-0.000138658
0.000294836
0.000131159
1.11451e-05
-0.000133621
0.000299071
1.75981e-06
-0.000294631
0.00104462
-0.000181941
-0.000844333
-0.00276454
0.00285421
-0.00031343
-0.00252981
0.00236862
-0.00243339
0.000119974
8.76036e-06
-3.34366e-06
-4.13833e-06
-0.00254524
0.00235775
0.000190895
-0.00229292
0.00259404
0.000775485
2.31098e-05
2.52452e-05
0.000611884
-0.000494887
-5.06635e-05
-0.000265337
-0.00227592
-0.00160869
-0.000117166
-0.000108821
-0.000669302
0.0013403
-0.00148242
-0.00243576
0.00113786
0.00135649
-0.000327231
0.00272181
-0.00238523
0.000482947
-0.000189093
-0.00028094
0.00021702
0.000347866
-0.00158804
0.00273455
0.00194951
-0.000538919
0.00266659
-0.00275348
0.000123301
0.000116495
-0.000159158
8.86544e-05
0.00016798
0.00254607
0.000110229
-0.00263281
-0.00242924
0.00267827
-0.000236963
0.00145008
-0.000131282
-0.00125159
-0.000754934
7.8604e-05
0.000687357
-0.000172642
0.000166815
0.00238798
0.000379598
0.00287131
0.000238029
-0.000416372
-0.000175179
-0.00132355
-7.35636e-05
-0.00159648
-0.000154755
0.000158643
0.00269249
-0.00244491
0.000283006
0.000340548
-5.66299e-05
-0.000505054
0.000442719
-0.000470264
0.000480792
-0.000191093
-0.000169386
-2.36445e-05
-0.000626019
0.00177653
-0.00153648
-2.43693e-05
-0.000137763
0.00152615
-3.53015e-05
-0.00145942
0.00137138
0.000164453
0.00253193
-2.06726e-07
-2.50501e-07
0.000397582
0.000111344
-0.000151132
7.71138e-05
-0.00268367
0.00250834
0.000189795
0.000441367
0.00137692
0.00133733
-0.00188273
0.00059581
-0.000128473
0.000172208
0.00192344
-0.000539615
0.00016775
-0.000881486
0.00190864
-0.00012446
-0.000618746
0.000271869
0.000222115
0.00147016
-0.00287463
-0.00030874
-0.00046265
-0.00146742
0.0019357
-0.00286085
0.00226895
-0.000297744
-0.000392424
0.000504715
0.000269489
-0.00278109
0.00252595
0.000597696
0.000166277
0.00143309
-0.00236902
0.000945461
-0.0021709
0.00171417
-0.000483312
0.00139432
-0.00163964
-0.00113568
-0.00124286
-1.74748e-05
0.00260357
-0.000996931
0.00172447
-0.000728913
-0.00239256
-0.000272058
0.00130162
-0.00143779
-0.000798256
0.00192395
-0.00112276
0.00251402
-0.00238432
-0.00010144
0.00168619
-0.0015676
-0.000110624
-8.55318e-05
0.00143853
-0.00131059
0.00287377
-0.00266238
-0.000173608
3.6406e-05
0.000396778
3.48229e-05
-0.00046355
0.000372691
-0.00168679
0.000688645
-0.00269206
0.00232933
3.36475e-05
-1.95093e-05
-0.00206722
8.06437e-05
-0.00210397
0.00240369
-0.0002364
-0.00254633
0.0028302
-1.14993e-05
-3.60567e-05
-0.00015308
-0.0025792
5.32529e-05
0.000226839
-6.00702e-05
-0.00158064
0.0016947
-0.000169428
-0.00149947
-0.00116237
-0.00107236
0.00025853
-0.00267611
1.44838e-05
0.0025883
5.56984e-06
4.32543e-06
3.95151e-05
-9.52823e-05
-8.94808e-05
0.00159448
-0.00146234
0.00109662
-7.83579e-05
-0.000966183
0.00206802
-0.00213036
7.43085e-05
0.000137824
0.00258214
-0.00273811
-0.000124445
-0.00276378
9.68011e-05
-0.000218459
-0.00148919
0.00153143
-0.00147136
-1.62062e-05
8.56709e-05
0.00247288
5.45683e-05
0.00178044
-9.44621e-05
1.93937e-05
-0.0012761
0.00133642
-2.80393e-05
-0.000249968
0.00165403
0.00112048
0.00165977
6.05889e-05
-5.7346e-06
-5.37532e-05
-0.000396544
0.00280718
-1.52665e-05
-8.82277e-05
0.000239621
-0.0019456
0.00101758
0.000929237
0.00215775
0.00202724
0.000211031
-0.00118726
0.00258768
-4.66033e-07
3.51903e-05
-3.47028e-05
0.00130977
-0.00254427
0.00140487
-0.00164513
-0.0014292
0.00138777
0.000101051
-0.000146459
8.44452e-05
0.000183275
0.00153651
-0.00097397
0.000201196
0.000776213
-8.68432e-05
-0.00128867
0.00256155
-0.000338781
-0.000885052
-0.000949686
0.00185857
1.61289e-05
1.44683e-06
0.00131654
-0.00147047
-0.000155849
0.00191272
-0.0017308
-0.000184819
0.00197542
0.00147279
0.000595521
-0.000234732
0.000266095
-1.9524e-05
0.00138419
-0.00156638
0.000124559
-0.000121634
3.20953e-06
-7.11866e-06
-4.82002e-05
0.000505332
-0.000541476
0.00188955
-0.00189461
-0.000120013
-0.00206261
0.00215595
0.00175035
-0.000252934
-0.00145901
-0.00139931
0.000560456
0.000857667
-0.000146428
0.000402242
0.000441442
0.000831979
-0.000330419
-0.00226611
1.86088e-05
-3.70574e-07
-1.76727e-05
0.00214547
-0.00183
-0.00265461
0.00252898
0.000150657
0.0014791
-0.0026437
0.000299058
-0.00229455
0.000778287
0.00152389
0.00223409
-0.0019361
-0.000212551
0.000221205
-8.92637e-05
6.1963e-05
2.72392e-05
0.000337336
7.32633e-05
-0.000258213
-7.39227e-05
0.00129904
-0.00113619
-0.000101839
0.00150922
-2.04556e-05
-0.00146057
0.000251722
1.55522e-05
-9.6995e-05
-4.42269e-06
-0.000132421
0.00146925
-0.00162332
0.000760022
-0.000507191
-0.00232119
1.59629e-05
0.000424362
-0.00281295
-0.000840099
-0.000538382
-0.000841483
-0.00303089
0.0001875
0.00285623
0.00156841
0.0017845
0.00117816
-0.000805433
-2.03206e-05
1.15474e-05
0.000876267
-0.000193946
-0.00226408
0.00146922
4.13039e-05
-0.00226283
-0.000242713
0.00251865
-0.00132985
-0.000102513
0.00123327
-0.00210282
0.00151175
-0.00247818
-0.000245843
-9.62255e-05
0.000802035
-0.002048
0.0012738
0.0018095
-0.00276367
0.000969062
0.000247661
-0.000269058
2.6633e-05
-0.000707349
0.00058365
0.000128443
0.00249642
-9.0445e-05
-0.00239953
1.63505e-05
1.59873e-08
0.000277411
-1.01188e-05
-0.000262453
-0.000104981
0.000585704
0.00224387
-0.00240188
5.41652e-05
4.26317e-05
-0.00250579
0.0019684
0.0025863
-0.0023518
-0.000208061
-0.000127756
-0.000807813
0.00225096
0.00169441
-0.000114704
-0.00153945
-0.00025936
-0.00200144
0.000353961
0.00249111
-7.94682e-05
0.000204694
-0.000870117
0.000667624
-2.68289e-06
-0.000381259
0.000391316
2.71611e-05
0.00150963
-0.00150788
-0.00179881
0.000151805
0.00167294
-0.000361257
-0.00255508
1.04059e-05
0.00157588
0.00299677
-8.30089e-05
-0.00326945
0.00218652
-0.00276363
0.000289519
0.0024846
-0.000167047
-0.00160486
-0.00280472
0.000326911
0.000148501
-0.00015541
1.09754e-05
-1.24797e-05
0.00256696
-0.000448496
-0.00256861
0.000259437
0.000334252
0.00151297
-2.65789e-05
-0.00145556
-0.00228313
-0.000247231
0.00255498
-0.000597208
0.00117754
-0.000322862
0.000700063
-0.000265386
-0.00281802
8.17768e-05
0.00275391
0.00331655
-0.00224289
0.000289776
-0.00016363
-0.00279148
0.000406853
0.00242124
1.82339e-05
-1.67103e-05
-0.000197664
-1.13586e-05
0.00147796
-0.00126102
0.00144055
-0.000111757
0.000150553
5.79545e-05
3.21302e-06
-0.000603173
0.000559266
5.19824e-05
-0.00284501
0.000499886
0.00237171
-0.000459067
0.000397183
6.69319e-05
1.82339e-05
0.00224595
0.00106905
-0.000117318
-0.00093719
-0.00253141
0.000281716
-6.37935e-05
-0.0011785
-0.00158609
1.71148e-05
0.00159686
-8.9333e-06
-0.000690286
0.00246192
-5.25467e-05
5.21012e-05
-0.0030001
-5.19219e-05
-0.000345508
-0.000341676
-0.00275862
0.00311385
-0.000476918
-9.97768e-05
-0.00196614
0.00197902
-0.00179836
-0.000155731
-0.00216761
-0.00226581
-0.000104772
-0.00181124
-0.000354559
0.000359024
1.9442e-05
5.11791e-07
-5.67207e-06
0.000287764
0.00211347
-0.00204192
-6.02475e-05
-0.000282066
0.00282009
-0.00252255
-0.00247084
0.00198665
-4.19233e-05
0.000519262
-0.00170611
0.00119846
-0.00014654
-0.000718326
0.00130947
-0.00144547
0.00144531
8.85895e-05
-0.00179759
0.000867832
-0.00233792
0.00260855
-0.00276976
0.000353798
0.00243036
-0.000329379
-0.000687298
0.0025106
-0.00177287
0.00172512
-0.000437397
0.00163683
-0.00255648
-0.000399688
-5.46899e-05
6.82894e-07
0.000260217
-0.000178748
0.0028819
-0.00153366
-0.00132885
-9.29413e-06
1.87987e-05
-8.01536e-06
0.00289584
0.00141052
0.0002347
-0.00157318
0.000247903
-0.00277473
0.00253426
0.00228132
-0.00150529
1.51937e-05
1.39072e-06
0.00221308
0.000146596
0.00250302
-0.00226491
-0.0001923
0.00279073
-0.00234543
-0.000432377
0.000108117
-0.000136921
-0.0005657
1.03365e-05
7.42329e-06
-1.45718e-05
-0.000218309
0.00268674
0.00217288
0.000252905
-0.0023945
-0.00010593
0.00169741
0.000122764
-0.00216325
-0.000209476
7.3707e-05
0.00107742
9.38225e-05
-0.00235456
0.00226388
0.00176501
-0.00222558
0.00247492
0.00135688
0.000128017
0.00106354
-0.000962131
-4.8638e-05
0.00185527
-0.00211158
7.82848e-05
-5.18267e-06
0.000256827
0.000289476
0.0021723
1.40361e-05
-0.000164004
-0.001658
0.00157727
-0.00017896
0.000585104
0.000130502
-0.00277833
0.000327478
0.00247177
0.00148305
-0.000237988
-0.00251416
-6.43242e-06
8.94465e-05
-6.48951e-05
0.000264457
0.00142175
-0.000109263
9.29428e-06
0.000108196
0.000392
0.00045715
-0.00276098
0.00253451
0.00072179
-0.000547168
0.0019589
-0.00278965
0.000839684
-0.0024432
-0.00262285
-7.44229e-05
0.00271083
0.000347775
-0.00257913
-0.00243244
-0.000324203
6.22578e-05
0.00278472
-0.00136627
-0.000176637
-0.00164569
0.000280115
0.00134695
-0.00264761
0.002337
-0.0020588
0.00187735
-0.00231075
0.00240777
-0.00312581
0.00155736
2.27013e-05
6.96519e-06
-2.1515e-05
-0.00109152
0.000809336
0.000311185
2.10494e-06
0.000148933
0.00286942
-3.34892e-06
-0.000344644
0.00160408
-0.00150173
-9.3568e-05
0.00216315
-0.00244885
-1.00038e-05
0.000147723
0.00229083
-0.000238064
-0.00204521
-0.000426919
-0.00166816
-4.4329e-05
-4.43536e-05
-0.000150256
-0.000107418
-8.07632e-06
2.43568e-06
2.79755e-05
0.000106227
0.00243826
0.00220388
-8.07107e-05
-0.00211573
4.26345e-05
0.00208397
-0.000457627
-4.32355e-06
0.000474255
-0.00247605
0.00224581
0.000241577
0.000103084
-0.00184648
0.00175517
-0.00152942
0.00236305
0.000199801
-0.000247257
0.000164116
5.64696e-05
0.00198136
-0.00203599
-0.00258875
0.000284929
0.00232349
0.0015792
-8.27479e-05
-0.00148597
4.09295e-06
-0.000309542
0.000311499
-6.52409e-05
0.00021785
0.00235555
-0.002661
-8.57636e-05
-0.00051009
-0.00281278
-0.00253608
-0.000220209
-0.0014893
-0.000999462
-6.21589e-05
0.00106426
0.00278107
-0.000467304
0.00245304
-0.00275544
-0.00113834
-0.00185077
-9.61377e-05
-0.00194872
0.00200699
-0.0020025
-0.000247208
0.00225647
0.000113142
-0.00138937
0.00127259
-0.000262051
-0.00194228
0.00221157
-0.0025191
-0.000208378
-0.00146468
0.00170554
0.000340713
0.00244121
-0.00277013
-0.00253775
0.00140652
-0.00229664
-0.000291822
-0.00217156
0.000933803
-0.00189097
0.000961321
5.78503e-05
0.00148359
-0.000288546
-0.0022309
0.00197048
-0.000538762
-0.00153593
-2.03486e-05
5.56704e-05
0.000294868
0.00148943
-0.00143361
0.00167481
0.00168332
-0.00174309
3.76107e-06
-0.00129302
-0.000190964
-0.0008715
0.00238595
0.00246273
-0.000182476
-0.00226832
-0.00101204
1.63169e-05
0.000996975
0.000260063
-0.000175438
-0.00262536
0.00214892
0.00280541
-0.00277351
0.00244408
0.000154175
-0.000232941
-0.000351906
0.00282156
-0.00245761
0.00163285
-0.0015306
-9.409e-05
0.00155061
-0.000106475
-0.00139396
7.04581e-05
-0.000453511
0.000401968
-0.000274386
0.00253205
-0.00253013
-0.000235996
2.79457e-05
0.00144586
0.00170294
-0.00183285
-0.00166479
0.00148919
-6.44643e-06
-1.37757e-05
-0.00106718
0.000487173
-0.000218175
0.00211685
-0.000850728
-0.0014241
0.00228615
-0.00259391
-0.00279128
0.000379357
0.000407735
-4.43031e-05
-0.000354137
0.000329473
0.00144697
0.00145264
-0.000657167
0.00156694
-7.59777e-05
-0.00208756
0.0024861
-0.00238474
-7.32468e-05
0.00199615
-0.000118209
-0.00186583
-0.00042527
-4.55026e-05
0.000178771
-0.000188678
1.41987e-05
-0.0027669
7.43728e-05
0.00151787
8.29604e-05
-0.000868759
0.000153139
0.000732354
0.00227921
-0.00261767
0.00029389
-0.000175942
0.0025877
-0.00239915
-0.00128696
0.000100141
-0.00268751
0.00016554
-0.000718391
-0.002101
4.85296e-05
-0.000421402
0.000381321
-0.00237055
-0.000187331
0.00257338
0.00232452
0.000148793
-0.000468595
4.81595e-05
-0.000176445
-0.00111305
0.000841425
-0.000831202
1.23898e-05
0.00166772
0.000847062
-1.66306e-05
9.04535e-06
0.00112695
-1.87764e-05
-0.00107464
-0.0015417
9.33571e-05
0.00145823
0.00160282
-0.00174327
-0.00248822
-0.000470923
-2.52609e-06
0.000491762
-3.11599e-05
0.000898176
-0.000483529
0.000362077
0.000133454
-0.000327472
-0.00244598
0.00188104
0.00033081
-0.000320722
-0.00223144
-0.000159472
0.00109473
0.00246337
-0.000255506
-0.000223061
-0.002546
-0.00163748
-0.00245585
-0.000217577
0.000161626
-0.000204644
0.000147458
-0.000659552
0.00262847
-0.000857039
0.00104302
-0.000183761
0.00183365
0.00198944
-0.0018046
-0.000182481
0.00253694
-0.00159882
-0.00255459
0.0018085
-2.98615e-05
-0.00244035
-0.000299198
9.61891e-07
0.000183873
0.000100914
0.00126513
0.000190684
0.00274091
-0.00320247
0.0020322
0.000525897
7.15624e-05
-0.00059701
0.0014192
6.15803e-05
-0.000464508
0.000409607
0.00278942
-0.000261933
-0.00250972
0.000143854
-0.000999474
-0.000311691
-9.56156e-05
-0.00143576
-0.000350722
-1.07379e-05
0.000385509
0.00190032
-0.00253359
-0.00021943
-1.53049e-05
-0.000262648
0.000355744
0.00252942
-0.00222687
-0.000275093
0.000144111
-0.0020539
-7.57085e-05
0.000602736
-0.000274535
0.00211204
1.48685e-05
0.00100878
-0.000176703
-0.000809231
-0.00222352
-0.000895152
0.000211588
-6.85593e-05
-0.00269325
-4.95269e-05
0.0013152
-0.00134732
5.01364e-05
-6.66709e-05
-0.000173021
0.000247594
-0.000212787
7.73963e-06
0.000216403
-0.000228249
-0.00221467
0.00244787
0.0019538
-8.25862e-05
-0.00186805
-0.000890539
0.000725288
-0.000766773
0.000112645
0.00196446
0.000136533
0.00160123
-0.00171334
-0.000912419
-9.59106e-05
-0.00215757
3.30444e-05
0.000642063
0.00106073
-2.71173e-05
-0.00100042
0.00151779
-0.00283269
0.00303847
2.08732e-05
-7.51762e-06
-0.00267007
0.00247636
0.000467372
-0.000504911
5.92097e-05
0.000454914
0.00176399
-0.00229404
-0.000298862
-6.78407e-05
-0.000426806
-0.00149587
0.00141057
-9.64234e-05
-0.00071985
0.000815315
-8.64197e-05
9.94485e-06
8.65825e-05
-0.000257023
0.00274415
-0.00247634
-0.00255024
0.00238685
-0.000899915
0.00183783
0.00236495
0.000234538
-0.0027828
0.00027945
0.00252019
5.46957e-05
0.00105972