/*--------------------------------*- C++ -*----------------------------------*\
| =========                 |                                                 |
| \\      /  F ield         | OpenFOAM: The Open Source CFD Toolbox           |
|  \\    /   O peration     | Version:  v2012                                 |
|   \\  /    A nd           | Website:  www.openfoam.com                      |
|    \\/     M anipulation  |                                                 |
\*---------------------------------------------------------------------------*/
FoamFile
{
    version     2.0;
    format      ascii;
    class       volVectorField;
    location    "100";
    object      U_0;
}
// * * * * * * * * * * * * * * * * * * * * * * * * * * * * * * * * * * * * * //

dimensions      [0 1 -1 0 0 0 0];


internalField   nonuniform List<vector> 
10042
(
(0.986274 0.0741896 5.48494e-22)
(0.960622 -0.304128 1.10681e-20)
(0.97479 -0.0735965 -5.0365e-21)
(1.0169 0.00193954 -2.27111e-22)
(1.01322 0.000597347 1.90293e-21)
(0.847421 0.175696 -1.89995e-21)
(1.11478 0.194275 0)
(0.911786 -0.217747 1.40065e-20)
(1.01851 -0.000538814 1.81471e-21)
(0.994583 0.0963789 -2.84908e-22)
(0.929054 -0.0828611 1.82461e-21)
(0.94653 -0.312452 0)
(1.09226 0.0400686 1.61548e-20)
(1.01319 -0.00184964 0)
(1.03236 0.00236256 2.26949e-21)
(1.01323 -0.00184609 0)
(0.800408 0.165883 -1.43318e-21)
(0.918702 -0.0768019 1.18516e-21)
(1.06092 0.0129218 -2.37388e-21)
(0.984156 0.00883031 -3.89651e-21)
(1.09008 0.0436933 7.62277e-21)
(0.977903 0.0700673 0)
(1.0167 0.00183389 -2.27655e-22)
(1.03424 0.118287 -1.15024e-20)
(1.01567 0.00193642 1.89383e-21)
(1.01456 -0.000243793 -1.48914e-21)
(0.993821 0.0907855 0)
(1.01654 5.7475e-05 -8.13219e-22)
(0.82986 0.188571 0)
(1.04222 -0.0179497 -7.07583e-21)
(1.00901 0.000216615 3.7045e-21)
(1.11613 0.00915946 2.01017e-20)
(1.01804 -0.00018746 -1.91297e-21)
(1.01771 -0.000136776 2.02662e-21)
(0.921953 -0.229738 0)
(0.892842 -0.249974 1.05819e-20)
(1.01863 0.000522897 -4.11519e-22)
(1.01444 -0.00208011 -4.97339e-21)
(1.01046 0.000389109 -2.59718e-21)
(1.05014 0.0207933 1.14292e-22)
(1.04707 0.0309558 5.58604e-21)
(1.0181 -0.000472627 1.93913e-21)
(1.18732 0.0712265 2.89197e-21)
(0.790204 -0.269206 1.84678e-21)
(1.01579 0.00234637 1.84942e-21)
(1.01583 0.00192749 -2.61203e-21)
(1.01598 -0.00124706 3.25135e-21)
(1.03138 0.00231031 -1.42843e-21)
(1.05141 0.112636 3.96436e-21)
(1.00484 0.0381523 -5.06929e-21)
(1.19118 0.0772504 0)
(1.01479 0.00107844 -8.27389e-22)
(0.809352 0.165198 -3.30319e-21)
(1.0585 0.0129672 0)
(0.882588 0.241702 1.42239e-21)
(0.556171 -0.34615 1.29453e-20)
(1.08568 0.0429267 -1.83715e-21)
(0.979707 -0.058585 2.2135e-21)
(1.02782 0.0111151 -1.51292e-21)
(1.0219 0.00112679 1.32816e-23)
(1.04374 0.113923 -5.18292e-21)
(0.913872 0.261862 -4.07913e-21)
(1.16782 0.0672987 0)
(0.974575 -0.159747 -3.37403e-21)
(1.02013 -0.0348683 7.00653e-22)
(1.02138 0.00300434 -4.07584e-21)
(0.988234 0.00323366 1.91287e-22)
(1.01595 0.102079 5.69953e-23)
(1.01608 -0.00213715 2.66415e-22)
(1.00897 0.0965571 0)
(1.17254 0.071208 0)
(1.01053 0.0188817 0)
(1.01344 -0.00367209 0)
(1.02779 0.0101915 1.4735e-21)
(1.02064 0.00321288 2.70964e-21)
(1.19351 0.0740806 4.1085e-22)
(0.989642 -0.0176167 1.07654e-21)
(1.01595 -0.00142719 -3.42473e-21)
(0.986233 -0.0158633 1.63608e-21)
(1.06216 0.0110151 2.59332e-21)
(0.789026 -0.260266 3.35557e-21)
(1.03637 0.0666421 -1.91372e-21)
(1.00624 0.000127432 0)
(1.01382 0.000888446 -1.366e-21)
(0.975455 0.0565833 0)
(1.04671 0.155999 -7.70417e-21)
(0.99143 0.00248453 4.31524e-21)
(0.986212 -0.0796668 0)
(1.01233 0.00426241 5.96229e-21)
(1.00454 -0.0257672 -4.6814e-21)
(1.07863 0.0289622 8.34088e-21)
(1.03295 0.00166887 -2.66375e-21)
(1.16194 0.0707935 2.82897e-21)
(1.03938 0.164123 5.87106e-21)
(1.03686 -0.0250537 0)
(1.01634 0.00563864 -1.34592e-21)
(0.00988928 -0.160573 1.68203e-19)
(0.987593 0.00749232 2.92009e-21)
(0.908113 -0.138079 7.66184e-22)
(1.02844 0.00896096 -1.09379e-22)
(1.07586 0.0282782 3.44147e-21)
(0.989484 0.123553 0)
(1.01747 0.0138425 -1.04006e-22)
(1.1065 0.00626427 -7.53203e-21)
(1.06196 0.0241015 -1.43432e-20)
(1.01947 0.0110895 0)
(0.466545 -0.311408 -1.73038e-20)
(1.01989 0.00263911 0)
(1.10219 0.202642 0)
(1.01985 0.0119102 0)
(1.02589 0.0102764 2.00937e-21)
(1.08675 0.190329 -6.17654e-21)
(0.984572 0.116362 0)
(0.982414 -0.173188 -5.43236e-21)
(1.02281 -0.0289239 -3.66979e-21)
(1.01607 -0.00331947 1.62393e-21)
(1.04424 0.044747 0)
(1.00995 0.000308229 0)
(0.992622 -0.0558523 -3.78826e-21)
(1.01704 -0.00448968 -1.52359e-21)
(1.0223 0.00113234 0)
(0.924768 -0.298826 6.22728e-21)
(0.917477 -0.296535 -1.92558e-20)
(1.01587 0.00251367 -2.20899e-21)
(0.999563 -0.0257847 8.879e-22)
(1.01216 0.00492672 2.6717e-21)
(1.01234 0.00540201 0)
(0.87196 0.250158 -1.47399e-21)
(1.19381 0.0251176 0)
(1.0399 0.0480571 0)
(1.01637 -0.00274309 0)
(1.01842 0.00385436 -3.09277e-21)
(1.01048 0.00586332 -2.88799e-21)
(1.01836 0.001615 0)
(1.07605 0.194628 -4.09832e-22)
(1.19898 0.116602 1.28662e-20)
(0.992789 -0.00859143 0)
(0.493032 -0.271301 4.61469e-21)
(1.04421 0.0172216 3.59909e-21)
(0.901267 -0.129455 -1.56538e-21)
(1.13635 0.0630324 2.47661e-21)
(1.0154 -0.00025104 2.0725e-21)
(0.461353 -0.301165 -1.90382e-20)
(1.01643 -1.4235e-05 -8.25734e-22)
(1.03783 0.0467331 -1.18026e-21)
(1.01464 -0.00228617 2.64264e-21)
(0.979403 0.0538957 -1.95561e-21)
(1.01636 -0.00229322 7.94556e-22)
(1.00793 0.01066 -8.01713e-23)
(0.911836 0.250254 8.94691e-21)
(1.01923 0.00276527 -1.36975e-21)
(1.01387 -0.000214137 2.14259e-21)
(1.04692 0.0193836 -4.32726e-21)
(1.103 0.0428949 0)
(1.03596 -0.0198991 -3.35859e-21)
(1.03565 0.0486347 0)
(1.18357 0.0278653 -1.00386e-20)
(0.662555 -0.330087 -3.17535e-21)
(1.01082 0.00651496 0)
(1.01186 -0.000399939 7.04506e-22)
(1.01236 0.000362737 1.81414e-21)
(1.04928 0.025091 0)
(1.20193 0.131374 -1.48794e-21)
(1.01248 0.00468773 -5.97289e-21)
(1.04029 0.0144917 9.33922e-22)
(0.901895 0.245231 -1.05781e-21)
(1.01369 -0.00387775 2.17044e-21)
(1.10894 0.00890335 -7.58147e-21)
(0.897202 -0.248891 -8.92197e-21)
(1.01727 2.90986e-05 -1.22931e-21)
(1.046 -0.00952587 4.55228e-21)
(1.04477 -0.0476047 -7.718e-21)
(0.916573 -0.274839 -1.60743e-20)
(1.01758 4.16826e-05 -2.09324e-21)
(1.05744 0.0148407 -4.60738e-21)
(0.912392 -0.281479 1.78801e-20)
(1.01573 0.00204582 -6.05938e-22)
(1.01489 -0.0022509 0)
(1.01783 0.00370462 2.74173e-21)
(1.01603 -0.00187145 2.27696e-23)
(1.04253 0.0169141 0)
(1.05685 0.030871 4.72501e-21)
(1.02865 0.00978065 -1.20085e-22)
(1.01747 -0.00325569 1.09339e-21)
(1.02855 0.149158 0)
(1.08472 0.0175684 0)
(1.01169 0.020404 0)
(1.02145 0.000773857 -1.10814e-23)
(0.746531 -0.0545532 4.0876e-21)
(1.01047 -4.62292e-05 3.78225e-21)
(0.974739 -0.311344 -1.26262e-20)
(1.08309 0.0463093 -5.10329e-21)
(1.01635 -0.00305537 0)
(1.05565 0.0291653 -1.18622e-20)
(0.853279 0.244795 -7.01215e-22)
(1.03266 0.000986313 2.87456e-21)
(0.596226 -0.0309391 9.05494e-21)
(1.04444 0.0068681 2.4048e-21)
(-0.0765638 -0.119253 -6.42724e-21)
(1.01392 0.000809991 -1.07379e-21)
(1.16233 0.0125213 0)
(1.14893 0.0671317 3.35521e-22)
(1.1337 0.0816902 1.63962e-21)
(1.01573 -0.000111134 -1.14819e-21)
(0.90159 -0.153176 -5.45457e-21)
(1.01069 0.00521715 1.5942e-21)
(1.02054 0.212538 -8.3928e-21)
(1.09951 0.0440841 -4.62805e-21)
(1.02498 0.00980599 -1.55772e-21)
(1.01842 0.00136085 1.18528e-22)
(1.11314 0.00754058 -1.89287e-20)
(1.01596 -0.000136057 2.49894e-21)
(1.13395 0.0994677 -7.64112e-21)
(1.13869 0.0478781 1.38444e-21)
(1.01751 0.000481254 1.0765e-22)
(1.01515 0.0820759 0)
(1.01599 -0.000343808 0)
(0.953244 -0.235475 -5.57414e-21)
(1.0162 0.00091884 0)
(1.1843 0.0220567 0)
(0.311816 -0.0749269 1.48674e-21)
(1.04144 -0.0065063 -3.03786e-21)
(0.260516 -0.0918722 -5.45711e-21)
(1.00937 0.0863065 0)
(1.01695 0.00207503 2.77114e-22)
(1.15327 0.0643726 -2.9772e-21)
(1.01082 0.00779039 -3.68071e-22)
(0.99601 -0.00820425 1.55889e-21)
(0.99946 0.0791992 -1.19854e-22)
(1.01826 0.0146324 4.5252e-23)
(1.01514 -0.00245587 -1.14099e-21)
(1.01198 0.00585378 3.6305e-21)
(1.08326 0.0195314 0)
(1.0082 0.000240908 3.3735e-22)
(1.01576 0.00198852 0)
(0.896495 -0.228765 -9.57059e-21)
(1.00464 -0.0123341 -3.12232e-21)
(-0.0187801 -0.16284 -1.30069e-19)
(1.03751 0.0434794 2.70537e-21)
(1.04088 0.133889 1.29224e-20)
(1.00211 -0.210129 5.90982e-21)
(1.01966 -0.0990267 0)
(1.02252 0.00150033 0)
(1.0545 0.0276241 -7.41558e-23)
(0.876764 0.2169 -3.41125e-21)
(1.01325 0.000603723 9.3844e-22)
(1.02107 -0.0829101 6.05404e-22)
(1.03483 0.041736 -2.85466e-21)
(1.04777 0.0206852 -3.98697e-21)
(1.01254 0.000413041 -2.25773e-21)
(1.06074 0.0218028 4.53694e-21)
(1.01677 -0.00331216 1.49161e-22)
(0.968715 0.105266 -6.38615e-22)
(0.899717 0.216031 -1.97166e-21)
(1.00876 0.00962541 0)
(1.00652 -0.0111567 1.43595e-21)
(1.00953 -5.67812e-06 -2.64966e-21)
(1.00767 0.00509318 -1.7395e-21)
(0.0981585 -0.194384 -3.64266e-20)
(1.01577 0.00107617 6.31385e-22)
(1.00643 -0.0319663 3.26101e-21)
(1.0137 -0.00240645 0)
(1.01468 0.00104455 1.01289e-22)
(1.01579 -0.00107794 0)
(1.09626 0.0399903 -4.87694e-21)
(0.893385 0.20856 5.47265e-23)
(1.01246 -0.0312628 0)
(0.976231 0.098408 -2.87813e-21)
(1.00482 -8.08176e-05 -2.07091e-21)
(1.01154 0.00575968 -4.01289e-21)
(1.02256 0.00165495 3.63377e-22)
(1.11513 0.0843335 0)
(1.01203 -0.00112872 0)
(1.07186 0.0460607 -9.01584e-21)
(1.0089 0.00463778 0)
(1.01819 -0.0548555 -1.86581e-21)
(1.04713 0.00424546 0)
(1.01545 0.00208732 0)
(1.00477 -8.18563e-06 2.33316e-21)
(0.850156 0.23514 9.96246e-22)
(1.01676 7.16297e-05 3.49611e-21)
(0.984073 -0.109969 0)
(0.628134 -0.0189207 -9.92136e-21)
(1.0455 0.00432093 0)
(1.01576 0.000118589 0)
(0.0561083 -0.198613 0)
(1.01963 0.0483536 1.90752e-21)
(1.01505 -0.000420572 9.65594e-22)
(0.956974 0.0667213 0)
(1.01276 -0.000146431 0)
(1.0763 0.0484818 6.21023e-21)
(1.01666 0.0341484 -1.96476e-21)
(1.01419 0.000247767 0)
(0.99146 -0.135915 -1.9794e-21)
(1.01287 -0.0367378 7.93041e-22)
(1.013 -0.00189862 5.30612e-21)
(0.836134 0.038018 0)
(0.998856 -0.011122 4.4543e-21)
(1.02279 0.00142548 0)
(1.01587 -0.000279221 0)
(1.04499 0.0194116 2.8319e-21)
(1.14217 0.0608939 5.46945e-21)
(1.02131 0.000854555 -5.40207e-23)
(0.982768 -0.219897 1.58518e-21)
(1.02438 0.0471826 0)
(0.922198 0.250537 -5.13834e-22)
(1.0123 -0.00144977 -2.40055e-21)
(1.05316 0.0329301 7.89588e-23)
(0.808731 0.0449085 0)
(0.982527 -0.130398 2.10941e-21)
(1.0172 0.00022395 0)
(1.01781 0.00201282 0)
(1.01666 0.00568782 1.4673e-21)
(1.01305 -0.00189066 -1.89027e-21)
(1.01293 0.0334741 0)
(0.945386 0.0637181 8.27322e-22)
(1.01586 -0.000936117 0)
(1.03737 0.14067 0)
(1.05212 0.113301 -8.0632e-21)
(1.01647 -0.00358564 0)
(1.01011 -6.78856e-05 0)
(1.00828 0.0290691 8.78638e-21)
(1.02649 -0.0501993 0)
(1.07276 0.120508 -6.38827e-21)
(1.02368 0.155896 -5.83838e-21)
(1.01666 0.00032895 0)
(1.02069 0.00724418 -3.11462e-21)
(1.0175 0.00400203 3.03396e-21)
(1.00158 -0.0102773 6.03919e-21)
(1.07253 0.0472892 0)
(1.01035 0.00463114 -2.8789e-23)
(1.02112 0.00759298 -1.74369e-22)
(0.992616 0.06948 -9.50233e-22)
(1.01192 -0.000375075 2.37937e-24)
(1.03346 0.185335 0)
(0.958488 0.0788312 8.32994e-23)
(0.465082 -0.27949 8.18307e-21)
(1.0728 0.121965 4.55e-21)
(1.01678 -0.00367498 -2.14981e-21)
(0.903066 0.228229 3.33323e-21)
(1.13399 0.0696342 -2.55561e-21)
(1.08193 0.054397 0)
(1.02299 0.00147574 -2.24374e-22)
(1.02526 0.00174138 -2.80126e-21)
(1.01155 0.000310072 5.38596e-23)
(1.01544 -0.00239462 -1.10335e-21)
(1.01161 -0.000477611 1.03744e-23)
(1.0139 0.000572116 3.73733e-21)
(1.00989 0.0198825 1.86603e-21)
(-0.0742853 -0.124707 0)
(1.03855 0.00382571 2.15845e-21)
(1.03104 -0.0295891 0)
(1.00779 0.0184985 1.98584e-21)
(1.02087 0.0102772 2.15117e-21)
(0.898905 0.25812 3.61745e-21)
(1.02325 0.00834889 3.01548e-21)
(1.01103 0.00907316 2.92869e-22)
(1.00369 8.43675e-05 0)
(0.780118 -0.0230767 -1.39513e-20)
(1.00597 5.54375e-05 0)
(1.02004 0.0104993 -4.35094e-23)
(1.01857 0.00050743 -1.30806e-22)
(1.0391 0.0155144 -9.62649e-22)
(1.05804 0.0163649 0)
(0.889241 0.22639 -4.00387e-21)
(1.04195 0.0148338 2.90623e-22)
(1.0142 0.000725304 -1.22291e-22)
(1.00632 0.0147939 0)
(1.0079 0.0162955 0)
(0.858933 0.273081 -2.33861e-21)
(1.02174 0.000833563 -1.12969e-22)
(1.00746 0.000177047 -5.39472e-23)
(1.01204 -0.0011612 0)
(1.01523 7.44798e-05 0)
(1.04063 0.14485 0)
(1.01189 -0.00142615 3.30609e-21)
(1.01014 -0.0547803 0)
(1.06512 -0.12983 1.07184e-20)
(0.867588 0.204395 2.99579e-21)
(1.04652 0.138543 0)
(1.01984 0.00857564 0)
(1.0442 -0.167547 -7.78522e-21)
(0.993366 0.0762191 0)
(1.01699 0.00387952 -2.81762e-21)
(1.12034 0.0372294 8.80072e-21)
(1.01651 -0.00419642 0)
(1.01344 0.000502324 -1.91239e-21)
(1.01736 -0.004149 1.1555e-21)
(1.01569 0.00825124 -2.04109e-21)
(1.01527 -0.00032334 0)
(1.00931 0.00307473 -3.15502e-21)
(0.287558 -0.338837 -1.65995e-20)
(1.03798 0.00477186 -2.12142e-21)
(1.01511 0.0119803 0)
(0.886446 0.206736 4.0441e-21)
(0.908231 0.217964 0)
(1.01819 0.002483 0)
(0.94064 -0.215516 0)
(1.01822 0.00011823 4.25575e-22)
(1.11589 0.012119 0)
(1.01492 0.00100103 2.02223e-22)
(0.111314 -0.141429 -6.09654e-21)
(1.01658 -0.050317 -1.61593e-22)
(0.894257 0.245542 0)
(0.206605 -0.269456 2.94927e-20)
(1.02226 0.0107939 -2.30507e-21)
(1.12677 0.0697829 0)
(1.02701 0.0158471 0)
(1.01609 -0.183544 0)
(1.01039 0.00286233 1.51177e-21)
(0.796458 0.00118648 -1.33828e-20)
(1.04913 0.0481983 -4.40382e-21)
(1.00618 -0.112553 1.26705e-21)
(1.03662 0.00479013 -1.3873e-21)
(1.0434 -0.0489423 -2.81287e-21)
(1.02632 0.00898092 -4.88859e-23)
(1.03591 0.0558896 2.76847e-21)
(0.872744 0.263606 -1.91317e-21)
(1.01571 -0.000300368 -3.06957e-21)
(1.02546 0.00811924 -4.66945e-21)
(1.01345 -0.000306155 0)
(0.87112 0.205441 -4.83754e-21)
(1.01572 -0.00260371 2.3338e-21)
(1.01789 -0.00339234 1.78965e-21)
(1.14235 0.0618759 0)
(1.03395 0.0010334 -5.90423e-22)
(0.981035 0.0683599 0)
(0.803552 0.00231589 1.28396e-21)
(1.01565 0.00104849 1.57022e-21)
(1.08499 0.0509855 1.41154e-20)
(1.03346 0.00254536 8.12525e-22)
(1.01569 -0.00153336 9.9416e-24)
(1.04704 0.0501324 6.00329e-21)
(0.886153 -0.240691 0)
(1.02725 0.0135134 0)
(1.03748 0.0148736 4.24213e-22)
(1.0835 0.268419 -2.78886e-20)
(0.999667 -0.0580743 0)
(1.01021 -1.48594e-05 2.39682e-22)
(0.458128 -0.355564 -1.05505e-20)
(1.01635 -0.000147055 -2.02389e-21)
(1.01146 0.029526 -2.03324e-21)
(0.991508 -0.0400546 0)
(0.819537 -0.0243108 0)
(1.18701 0.107137 0)
(0.982875 0.163624 0)
(1.05444 -0.0300516 -9.97579e-21)
(1.18216 0.128463 0)
(0.952068 -0.18175 0)
(1.01866 -0.00403428 3.50332e-22)
(1.03518 -0.0478165 3.37509e-22)
(0.788039 -0.010708 0)
(0.790488 -0.0298825 -3.63689e-23)
(1.11645 0.0373814 0)
(1.0167 0.00165914 3.2981e-22)
(1.01159 -0.000431136 -6.00413e-21)
(1.02829 -0.0262759 -2.09672e-21)
(0.337645 -0.358143 1.83169e-20)
(1.01719 -0.00354997 -3.44594e-21)
(1.04012 0.0105222 0)
(1.01024 0.000328211 2.2181e-21)
(1.0177 0.00253682 0)
(1.02292 -0.014218 0)
(1.02205 -0.015789 2.20615e-21)
(1.01525 0.0076783 0)
(1.00921 0.000124853 0)
(0.969696 0.079879 -5.76077e-23)
(1.04627 0.00140892 3.25849e-21)
(1.00865 0.0290732 0)
(1.04374 -0.0152941 0)
(1.1723 0.139214 0)
(1.01874 0.00259799 -3.51126e-21)
(0.167607 -0.202909 6.68313e-21)
(1.11931 0.257539 2.8919e-20)
(0.937378 -0.122529 -4.4325e-22)
(1.01242 -0.000438222 0)
(1.07889 0.00344883 0)
(1.01153 -6.48903e-05 0)
(0.914876 0.213167 0)
(1.02328 0.00275798 0)
(1.03873 0.00750511 -2.70722e-21)
(1.03605 0.00567124 2.74629e-21)
(0.909968 -0.11695 1.17527e-21)
(1.01493 -0.000206003 3.88403e-23)
(1.06268 0.0195226 0)
(1.03876 0.0121039 -3.1256e-22)
(1.04093 -0.0422622 -2.14337e-21)
(0.839154 -0.12218 -1.01463e-21)
(1.01187 -4.53596e-06 -2.03109e-21)
(1.01213 0.000680878 0)
(1.01797 0.00173489 0)
(0.857266 -0.344084 -7.61509e-21)
(1.01392 -0.00245255 -2.68169e-21)
(1.03068 0.00396095 2.62847e-21)
(1.02139 -0.0870002 -9.61682e-22)
(1.12307 0.0757732 0)
(1.02018 0.00847531 1.12014e-21)
(1.03453 0.00324207 -2.92695e-21)
(0.991981 -0.151394 0)
(1.14354 0.238671 0)
(1.02431 0.00836882 7.33804e-22)
(1.01121 0.00029139 -1.83474e-21)
(0.996014 -0.104513 -1.66928e-21)
(0.861462 -0.338776 -5.73545e-21)
(1.05836 0.0831256 8.51889e-21)
(0.963815 0.144205 7.34015e-23)
(1.00994 0.000149355 -1.21775e-21)
(1.04759 0.110661 0)
(0.998226 0.0605262 4.84055e-22)
(1.01619 0.0579528 0)
(1.03357 0.0362135 2.15702e-22)
(1.00868 0.240256 7.09651e-21)
(1.02076 0.00757182 -2.07096e-21)
(1.01641 0.00155265 0)
(1.0214 0.0131188 -3.64328e-22)
(0.984576 -0.157328 -3.07284e-21)
(1.01606 0.00257135 7.88711e-22)
(1.03728 -0.161778 7.25079e-21)
(1.0176 0.00241303 -7.57084e-22)
(1.02495 0.00664936 -7.25642e-22)
(1.02018 0.00174239 -1.55803e-22)
(1.03209 0.055677 -1.31086e-21)
(0.974927 0.151102 3.62841e-22)
(1.0193 0.0144487 0)
(1.03617 0.0156598 -4.23788e-22)
(0.994573 0.211088 4.24762e-21)
(1.04613 0.00160036 0)
(0.96006 0.037186 3.29477e-21)
(1.01981 0.0137904 1.00548e-22)
(1.01961 0.00387204 -2.92166e-21)
(1.04759 0.120455 0)
(1.14892 0.218014 -2.35381e-22)
(1.02019 0.0092063 0)
(1.01542 0.00107514 -1.08099e-21)
(1.02875 -0.075588 3.75927e-21)
(1.01621 0.0059504 0)
(1.01985 0.00659372 -2.29623e-23)
(0.897591 0.0510076 -2.93703e-22)
(1.01604 -0.00252119 -2.43911e-21)
(0.881802 0.218812 4.43689e-21)
(1.01431 0.000774447 -5.65993e-22)
(1.00048 0.0862928 2.06026e-23)
(1.0554 -0.00787223 -4.69752e-22)
(0.138991 -0.112601 5.45144e-21)
(1.0162 0.0026691 -7.04308e-22)
(1.08055 0.00815494 1.05864e-20)
(1.01612 0.000799806 2.81725e-22)
(1.01374 -0.00340216 1.52635e-21)
(1.00207 0.19815 0)
(1.02333 0.00198017 1.91436e-22)
(1.04426 -0.0917528 1.61273e-20)
(1.06299 0.0829375 -7.13033e-21)
(1.01785 -0.000976118 2.34261e-21)
(1.01288 0.00579854 0)
(0.493389 -0.259942 0)
(0.957977 -0.202963 0)
(1.03869 -0.0155581 6.36913e-22)
(1.0124 -0.000329443 0)
(1.01515 0.000950298 1.10475e-21)
(1.01692 -0.00226982 -1.37705e-21)
(1.00164 -0.018962 -2.34053e-21)
(1.05117 -0.0321758 0)
(1.02087 0.012225 0)
(0.771885 -0.160777 1.66226e-21)
(1.01736 0.0059314 0)
(1.02009 0.000396898 1.36018e-22)
(0.910712 0.401813 0)
(1.06034 0.0261612 -1.65458e-22)
(1.04897 -0.0380978 0)
(1.00945 -5.62565e-05 0)
(1.01277 0.000881405 3.23711e-22)
(0.930027 0.381377 0)
(1.05807 0.0351811 0)
(1.05108 -0.0051047 0)
(0.992658 0.253393 -5.87588e-22)
(1.02201 0.000805539 1.77962e-22)
(1.08212 0.012913 -2.66979e-21)
(1.01644 0.00318196 5.52286e-22)
(1.01823 -0.00101301 0)
(1.0188 0.00192419 -6.75888e-22)
(1.01804 0.00218173 0)
(1.0214 0.00999838 4.52817e-22)
(1.01022 -0.000141927 2.40637e-21)
(0.0523219 -0.163254 1.12088e-20)
(1.03415 0.00639863 2.76099e-21)
(0.94185 0.101897 2.92774e-22)
(1.01515 0.0018108 1.94417e-21)
(1.0463 0.00523201 0)
(1.01573 -0.000778452 0)
(0.955272 0.0427784 0)
(0.971331 -0.23851 0)
(1.01756 -0.00116051 -1.20776e-21)
(1.01535 0.00198431 0)
(1.03639 0.152798 5.58827e-21)
(1.04102 -0.00203506 6.29349e-22)
(1.01571 -0.00044179 -1.09048e-21)
(0.874249 0.20509 -4.92601e-21)
(1.01401 0.000654381 0)
(0.976656 0.060076 1.03337e-21)
(1.01422 -0.00208931 0)
(1.01422 0.000486116 0)
(1.01385 -0.00326173 -1.77824e-22)
(0.744398 -0.026976 9.50991e-21)
(1.01585 -0.00067856 5.42657e-22)
(1.01069 0.00190297 0)
(1.01216 -0.00179033 -3.63219e-21)
(0.873768 0.212001 -5.9739e-21)
(1.01329 4.83451e-05 2.42748e-23)
(1.01867 0.00220929 -8.26465e-22)
(1.01077 -0.000285264 2.74854e-21)
(0.929832 -0.09614 7.35291e-22)
(1.01818 0.00267997 -2.70505e-22)
(1.01581 0.00257845 -1.96235e-23)
(1.01553 -0.00022502 2.05492e-21)
(1.01588 0.00267779 -1.98737e-23)
(1.03553 0.0382321 -2.84989e-21)
(1.01581 0.00210542 1.32442e-21)
(1.04292 0.00628605 0)
(1.01667 0.00355164 -5.99168e-22)
(0.192031 -0.245688 4.95763e-20)
(0.758618 -0.210489 0)
(0.860946 -0.150619 5.92028e-21)
(1.01096 0.00160679 0)
(1.06781 0.00265344 -8.39939e-21)
(1.01613 0.000904573 1.36014e-21)
(0.894857 0.0129638 -5.33178e-21)
(1.01862 -9.67624e-05 4.61346e-22)
(1.05154 0.0981586 7.24914e-21)
(1.07279 0.115736 -8.0542e-22)
(0.876942 -0.148648 4.07549e-21)
(0.967453 0.0567702 0)
(1.03143 -0.0640516 5.247e-22)
(1.0217 0.000767775 4.42853e-22)
(1.02086 0.00813861 3.23656e-22)
(0.999974 -0.176029 5.36625e-21)
(0.948859 -0.0928307 0)
(1.01845 0.00826804 3.18141e-21)
(1.14701 0.0216739 -1.07177e-20)
(1.03067 0.00732456 -4.09297e-21)
(1.05715 0.0364711 0)
(1.01347 0.00296468 -3.51577e-22)
(1.02341 0.00931258 0)
(1.01885 0.00313245 2.37477e-21)
(1.01397 -0.00227382 -2.68761e-21)
(1.01266 0.000373935 1.89207e-21)
(0.994332 -0.178951 -1.76596e-20)
(1.04484 0.00564815 2.93267e-21)
(1.01443 -0.000305739 1.67864e-23)
(0.221323 -0.311015 -7.95129e-21)
(1.01694 0.00485225 0)
(0.898435 0.0276054 4.71042e-21)
(1.04608 0.0192553 -2.22632e-22)
(1.04479 0.00184723 0)
(1.02785 0.00116736 3.00134e-21)
(1.01047 0.000106781 1.53739e-21)
(1.04347 0.152144 -9.5809e-22)
(1.01596 0.00596274 -1.91985e-21)
(1.01744 0.00211416 1.99519e-21)
(0.951155 0.0982284 2.18536e-22)
(1.02501 0.00735664 0)
(1.02071 0.000512951 0)
(1.00773 6.19524e-05 -1.75916e-21)
(1.01392 0.00365206 -5.80904e-21)
(1.01315 0.00180455 1.87635e-23)
(0.909651 -0.00141835 2.50396e-21)
(0.892425 0.06252 0)
(0.771866 -0.218411 -2.32845e-22)
(1.03076 0.00161013 1.57717e-21)
(1.01255 0.00408192 -6.3859e-21)
(1.01423 0.00336775 -4.42753e-23)
(1.05474 0.0174065 1.97694e-22)
(1.00871 0.0192593 3.22103e-23)
(1.02043 0.00381838 3.06272e-21)
(1.01561 -0.000359917 -8.858e-22)
(1.01138 0.000115223 -8.41491e-23)
(1.04074 -0.0603685 -9.83215e-22)
(0.909383 0.00587058 -2.2329e-21)
(1.07496 0.0628136 6.7166e-23)
(1.0097 0.00709712 1.26839e-21)
(1.01411 2.07518e-05 1.59179e-22)
(0.409879 -0.287715 -9.28358e-20)
(1.08269 0.0096787 1.56241e-20)
(1.01012 0.0226776 4.45251e-22)
(0.969352 0.0551901 -2.92087e-21)
(0.860981 0.129933 3.36085e-21)
(0.918815 0.237764 -1.3132e-21)
(1.04822 -0.0336665 5.5445e-21)
(1.01323 0.00293913 3.39741e-22)
(1.01118 -0.000307684 2.43515e-21)
(1.0164 0.00635662 0)
(1.01613 -0.114458 -1.30717e-20)
(1.01305 0.00273243 0)
(1.07211 0.00352605 -9.28753e-21)
(1.01291 0.00757461 -3.80887e-21)
(1.02393 0.00195852 0)
(1.02406 0.00373505 0)
(1.01014 0.00940252 -3.57643e-21)
(0.661837 -0.0479252 4.58714e-21)
(0.472953 -0.0363478 -1.71448e-20)
(1.01482 -0.00101281 -1.61874e-21)
(1.01565 0.00224181 -2.04388e-21)
(1.01854 -0.00317373 -9.16377e-23)
(0.998772 0.162442 2.83412e-22)
(1.01418 -0.002284 0)
(0.785599 0.0413335 4.70801e-21)
(1.00666 0.0129215 2.41822e-22)
(0.806702 -0.0370223 -1.57347e-20)
(1.01306 0.00403916 2.35087e-21)
(1.01236 -0.00267412 0)
(1.01755 -0.00132936 1.39513e-21)
(1.01632 0.00165323 7.74085e-22)
(1.02072 0.00711338 1.22195e-22)
(1.03108 0.00679081 1.21308e-23)
(1.02357 0.00251039 5.7519e-22)
(1.03603 0.00758442 0)
(1.01816 0.0114157 3.06905e-21)
(1.06137 0.017209 0)
(0.865287 -0.0955325 -3.08435e-23)
(1.02099 0.000122174 1.78053e-22)
(0.962811 -0.0786923 0)
(0.831642 0.104884 0)
(1.01759 -4.04567e-05 0)
(0.72083 -0.295014 -4.49297e-21)
(1.01491 0.00166299 0)
(1.01091 -0.000505152 -5.26362e-23)
(1.0098 -0.0557312 0)
(1.01234 -0.000343668 1.73104e-22)
(0.98205 0.273357 1.8945e-20)
(1.01344 0.00755642 3.25247e-21)
(1.0119 0.00158913 -1.51135e-21)
(1.02052 0.00224865 -1.26131e-21)
(0.855342 0.225603 2.6143e-21)
(1.01233 -0.00278875 1.72816e-21)
(1.03362 -0.0919648 -7.45965e-21)
(1.0668 0.0728131 6.88079e-21)
(1.01291 0.00427388 3.10509e-21)
(0.985554 0.131131 3.3574e-22)
(1.00228 -0.152032 5.70094e-21)
(1.04259 0.0207935 8.51914e-23)
(1.01329 -0.00374703 0)
(1.14652 0.0267498 9.81237e-21)
(1.00447 0.000101789 1.68646e-21)
(1.05729 -0.143377 1.69576e-20)
(1.01328 0.00978599 -3.25015e-21)
(0.98516 -0.0102782 -2.40844e-21)
(1.02548 0.00654592 -2.83793e-21)
(1.02979 0.00172566 -2.21019e-21)
(1.02503 0.00881341 -7.78029e-22)
(1.02074 0.00188197 1.85007e-21)
(0.986384 0.0393596 -5.53309e-22)
(1.02539 -0.0671542 1.36987e-22)
(1.04276 0.140181 1.6383e-21)
(1.10045 0.167356 6.92977e-21)
(1.02439 0.00254733 2.18672e-22)
(1.00391 -0.0262478 8.08533e-23)
(1.01869 2.00277e-05 -1.02366e-22)
(0.997625 -0.0431652 -4.28792e-21)
(1.00469 8.81625e-05 0)
(0.787951 0.0867317 0)
(1.03451 0.00229799 3.07712e-21)
(1.01971 0.0097719 4.35177e-23)
(1.0863 0.121137 1.02094e-21)
(1.01352 0.00388814 -3.60116e-22)
(1.14196 0.0281145 1.40122e-20)
(1.01771 0.0624556 0)
(1.01478 0.000239966 0)
(1.05954 0.00674681 -5.46549e-21)
(0.986556 0.0109964 0)
(1.01104 0.00292344 3.18095e-21)
(1.00766 0.00751264 0)
(0.993187 0.0697051 -5.24597e-22)
(1.01227 -0.00152978 4.52735e-21)
(0.910427 0.232201 -3.46913e-21)
(1.03471 0.00742695 0)
(0.987587 0.0651954 -5.21867e-22)
(1.07442 0.00269416 0)
(0.874778 -0.242593 2.29775e-21)
(1.00823 0.00658515 0)
(1.0193 0.0545141 -1.09653e-21)
(1.08871 -0.0167062 0)
(1.03662 0.00868242 0)
(1.06225 0.0704041 -6.76128e-21)
(1.01649 -8.86126e-05 -1.88502e-21)
(0.998711 0.0659973 5.39994e-22)
(1.01058 0.00116073 3.3559e-21)
(1.03638 0.00295958 3.28129e-21)
(1.01247 -0.002301 0)
(1.01551 0.000783623 -1.25355e-21)
(1.04742 0.0159451 5.90548e-21)
(1.05346 0.0890631 -8.7974e-22)
(1.01015 0.000311013 -1.11199e-21)
(1.03099 0.00441815 0)
(0.979978 0.152784 -1.21665e-21)
(1.01629 -0.000110589 2.11247e-21)
(1.01342 0.0041521 -7.95338e-22)
(1.01522 0.00184034 0)
(1.01815 -0.00395244 -3.57179e-22)
(1.08258 0.070551 -8.63553e-23)
(1.03515 0.0171114 1.90418e-21)
(1.00481 0.00406763 -1.87973e-21)
(0.969874 0.0294617 -1.84511e-21)
(0.96564 0.141212 1.31534e-21)
(1.02016 0.00705939 2.5643e-24)
(1.00777 -0.0472652 0)
(1.05683 -0.15632 0)
(1.0114 3.51934e-05 0)
(1.01037 0.003552 3.23379e-21)
(1.01885 -0.00363985 1.75357e-22)
(0.97538 0.171395 0)
(0.851906 0.133214 -5.06173e-23)
(1.05746 0.0263435 -1.43356e-22)
(1.01219 0.000602493 0)
(1.03878 0.0940542 -3.99604e-21)
(1.13298 0.202443 2.24051e-22)
(0.219328 -0.285833 1.34628e-20)
(1.00863 0.0110253 2.32826e-21)
(0.990782 0.176806 0)
(1.15365 0.137014 -1.14711e-20)
(0.855126 -0.131154 -1.34128e-21)
(0.984405 0.00649447 0)
(1.03271 0.00705958 0)
(1.00312 -0.0312146 2.4858e-21)
(0.889797 -0.0649209 0)
(0.916711 0.0407988 0)
(1.0348 0.00561148 -3.22612e-21)
(0.164146 -0.239776 -4.44766e-22)
(0.976873 -0.00434321 0)
(1.06789 0.0196196 2.78508e-21)
(0.965379 0.276053 -1.00617e-20)
(1.01099 -0.000984241 1.54962e-21)
(0.997032 -0.0211188 1.90368e-22)
(1.0314 -0.158718 5.37003e-21)
(1.07714 -0.0734157 -1.23056e-21)
(0.885094 0.209584 0)
(0.987887 0.0426967 0)
(0.0897824 -0.216332 -1.57856e-20)
(1.00648 0.0036034 3.61356e-21)
(1.0547 -0.0198628 -4.73913e-21)
(1.02433 0.00761708 0)
(0.971386 0.0224946 1.9024e-21)
(1.01036 0.000274464 -2.03498e-21)
(1.04464 0.0275787 -4.06388e-21)
(1.02169 0.000436169 -5.53524e-22)
(1.0241 0.00997473 0)
(1.01553 0.00216929 0)
(0.856435 0.20243 5.88222e-21)
(1.01243 0.00644592 0)
(1.02514 0.00251479 3.87643e-23)
(0.873242 0.395506 0)
(1.02314 0.0062 0)
(1.07094 0.0304804 -6.38825e-21)
(1.00842 0.012481 -3.80249e-21)
(1.03899 0.129759 1.10399e-21)
(1.01755 -0.000319928 4.92958e-22)
(1.03631 0.0173318 3.47407e-21)
(1.01456 0.0011912 5.85152e-23)
(1.00972 0.00452616 -3.61426e-23)
(1.01715 0.00477212 -6.19004e-22)
(1.07651 0.0044241 1.42027e-21)
(1.01332 0.00193771 -5.26962e-21)
(0.989993 0.276085 2.95879e-20)
(0.978781 -0.00915641 0)
(1.00709 -0.087103 -3.26545e-21)
(1.01244 0.00686496 1.94509e-21)
(0.753087 -0.163136 1.06282e-22)
(1.01268 0.00178055 2.63613e-21)
(1.14176 0.0333308 -4.32077e-21)
(1.00295 0.165106 1.1343e-20)
(1.03283 -0.0777781 2.41151e-21)
(1.01699 0.00521988 -1.06683e-21)
(1.0161 -0.00284385 -1.77585e-21)
(1.00957 0.00382418 0)
(1.01777 0.000437063 2.41636e-22)
(0.947374 -0.216322 -4.34713e-22)
(0.947263 0.0203881 4.34311e-21)
(1.01423 0.00363725 0)
(0.884537 -0.220886 -2.32925e-21)
(1.01445 3.36389e-06 2.28104e-21)
(1.0151 0.000677716 -5.70602e-23)
(1.03258 0.176558 0)
(1.01805 -0.00207747 -1.95267e-22)
(1.01814 0.000655338 -1.5669e-22)
(0.900805 -0.214289 -2.86945e-21)
(1.01371 0.000884531 1.59364e-21)
(0.8726 -0.0694668 0)
(1.04545 0.0155854 -1.63354e-21)
(0.948638 0.0725294 1.35236e-21)
(1.07471 0.0250447 8.58849e-21)
(0.953248 0.0153419 -4.31047e-21)
(1.01424 0.00732732 3.19252e-21)
(1.01699 0.00608636 2.47336e-22)
(0.794054 -0.411941 -9.80027e-20)
(0.683079 -0.37366 9.64553e-20)
(1.01527 0.00191145 -1.96902e-21)
(0.994003 0.0574017 -1.88429e-21)
(0.703046 -0.046195 2.76122e-23)
(0.939343 0.194423 -3.33754e-20)
(1.06181 0.187544 0)
(1.01152 -8.18126e-05 -4.58978e-22)
(1.01262 -0.00346678 1.91636e-21)
(1.09678 -0.0106272 -3.99686e-23)
(1.02092 0.0106975 -2.30322e-22)
(0.987376 0.00259427 0)
(1.06052 0.0396248 1.32012e-21)
(1.06733 0.00481449 0)
(1.01697 -0.00265116 -1.67382e-23)
(1.10059 0.0184258 -1.52414e-20)
(0.94126 -0.114949 6.01861e-22)
(0.830855 0.110181 1.61029e-21)
(1.01662 -0.00211382 -8.88659e-22)
(1.01875 -0.00286448 -1.57321e-21)
(1.01321 -0.000261048 0)
(1.03103 0.00823765 2.15688e-21)
(0.810708 0.197284 8.49294e-22)
(0.885083 -0.0340045 1.00464e-22)
(1.02338 0.00251265 -1.30255e-21)
(1.0728 0.0100693 -3.12092e-22)
(0.9357 -0.0600529 2.91005e-21)
(1.02078 0.00137457 3.32701e-21)
(1.01361 0.0004339 0)
(0.29063 -0.222099 -6.87039e-21)
(1.00626 0.0218592 1.49262e-21)
(1.0576 0.0171062 0)
(0.990382 -0.00901965 -3.88799e-23)
(1.01076 -0.000195213 -1.52177e-21)
(1.03091 0.00297533 1.37297e-21)
(1.03229 0.0162621 0)
(0.91203 0.0297196 2.82868e-23)
(1.08227 -0.0592269 0)
(1.01995 0.00206786 3.14596e-21)
(0.839534 -0.205263 -6.10981e-22)
(0.942985 -0.243206 8.00589e-21)
(0.799665 -0.18957 1.63307e-21)
(1.056 0.0250711 -1.3107e-20)
(1.00812 0.0214005 -1.08798e-21)
(0.250005 -0.219654 -4.02661e-21)
(1.1069 0.0202622 -1.24941e-20)
(0.944631 0.289179 5.87941e-21)
(1.09647 0.00755059 -1.30683e-20)
(1.0202 0.00804029 0)
(1.01681 0.00457022 -1.85259e-21)
(0.842273 -0.234882 0)
(0.976071 -0.201059 0)
(1.02568 0.00656739 2.09174e-21)
(1.07019 0.0106133 -3.10381e-22)
(1.11368 0.0205744 -1.07953e-20)
(1.01044 0.000803675 0)
(0.995395 -0.0716852 0)
(1.02627 0.00589378 -1.34548e-21)
(1.01058 0.00316018 -3.03122e-23)
(1.01128 -3.34016e-05 0)
(1.10404 0.0172953 1.69431e-20)
(1.01094 0.0025115 3.21307e-21)
(1.01554 0.00218086 9.37815e-22)
(-0.0347456 -0.0501187 7.35952e-21)
(1.01185 -0.000892186 -2.94766e-21)
(1.01271 -0.00348062 1.72068e-21)
(0.976278 0.0644717 -2.05166e-21)