/*--------------------------------*- C++ -*----------------------------------*\
| =========                 |                                                 |
| \\      /  F ield         | OpenFOAM: The Open Source CFD Toolbox           |
|  \\    /   O peration     | Version:  v2012                                 |
|   \\  /    A nd           | Website:  www.openfoam.com                      |
|    \\/     M anipulation  |                                                 |
\*---------------------------------------------------------------------------*/
FoamFile
{
    version     2.0;
    format      ascii;
    class       volScalarField;
    location    "550";
    object      ddt0(omega);
}
// * * * * * * * * * * * * * * * * * * * * * * * * * * * * * * * * * * * * * //

dimensions      [0 0 -2 0 0 0 0];


internalField   nonuniform List<scalar> 
9793
(
-3.36447e-05
-8.47856
4.84704e-05
1.2825
0.000116173
0.0280728
-0.00878683
-1.8614
-3.82557e-05
-10.4028
1.0221e-05
1.18305e-05
-0.000101435
1.03124
0.000112462
0.000110972
0.000692161
-0.000155357
-0.287804
2.85952e-05
-4.58259e-05
-1.76793e-08
1.20972
-2.00732
0.663411
-3.89614e-05
-2.06816e-05
-5.66519e-05
2.44985e-05
-0.00368384
-1.00291
0.021598
0.00012064
5.86778e-06
-1.08532e-05
0.000282826
-4.79638e-05
2.28421e-05
-0.647063
0.000127998
-0.00264009
5.83609
-1.77356
1.80151e-05
-2.21967e-05
-4.91963e-05
0.47852
3.79081e-05
-0.000113365
-0.000106745
0.000272831
-5.52513e-05
0.000336294
3.57986e-05
-0.00031125
1.16946
-0.000128427
0.00405988
-0.000105621
4.93773e-08
-3.27243e-06
0.00338387
2.25657e-05
0.000594973
-0.000214028
-3.86184e-05
-7.6339
9.51836e-05
-2.63987e-05
-2.18317
-3.64943e-06
-0.00256203
-1.03958
-3.80312
-4.59366
7.5838e-06
-0.00206255
0.618237
1.87869e-05
2.64116e-05
-0.00526083
0.385969
0.000490965
6.47105e-05
-8.19197e-06
-0.0573334
0.000113878
0.00151301
-0.761699
0.0148914
1.10303
0.756112
-7.08327
-0.000368344
-1.65489
-4.88287e-05
-7.95661
-0.000229282
3.79282e-05
5.84734e-05
0.423599
0.000101547
0.781183
-1.64754e-05
0.567104
-0.810534
-3.58451
-2.89311e-05
8.32379e-06
4.62553e-05
5.63723e-06
0.990105
-0.0587626
-2.68638
-8.09148e-06
0.000103899
-1.94381e-05
-0.000121205
0.868421
-1.8273e-05
0.800237
0.00101597
1.69295
0.000627248
-3.34872e-05
-3.83907e-05
0.000630236
0.239591
-0.0596758
-0.0636555
-6.35375e-05
-1.65389e-06
-5.73041e-05
7.77178e-05
0.000203906
-0.0280041
0.142028
-1.04796e-05
-4.64614e-06
0.00134062
3.61099
0.000244852
-0.000141005
0.00192473
-0.444648
-0.143816
-2.32209e-05
-7.46733
-3.63188e-05
-3.26732e-05
1.73377e-05
6.02685
4.17621e-06
-2.45776e-05
1.15076e-05
0.143589
0.000874562
-3.45049e-05
0.0893006
-4.90666e-07
0.00160168
2.60935e-06
-6.16109e-05
0.0814884
-8.43305e-05
2.14479
0.336758
-8.79361e-05
-0.000115732
-6.62676e-05
-8.59112e-05
-3.26635
-0.190395
-0.240978
-0.000101549
0.023765
-0.0183433
-0.0748964
4.96455e-06
8.39553e-05
-2.49482
0.112068
-0.00067918
-6.02033e-05
-7.24816e-05
-7.49893e-05
1.31004
-0.721385
-4.48059
0.942374
-1.87153e-05
2.04342
-0.0204161
2.39712e-05
-6.32405e-05
7.12901e-05
0.0175923
-0.000121092
-0.000151468
-3.52524e-05
-3.76331e-05
-3.41346e-05
0.000355298
5.52329e-05
-0.307211
-6.72813e-05
0.000185118
-8.11297e-05
-2.07863e-05
-0.0506619
0.00124652
4.22942
-7.1325e-05
-1.12692
5.72299e-05
0.00152604
8.23294e-05
-0.0273946
7.31576e-05
8.43641e-06
4.63281e-05
-3.1981e-05
0.143958
3.73701
-0.000588077
-5.51727e-05
0.000826083
-3.4476
0.000828326
-0.000711516
0.174061
-0.0258064
0.000834737
0.000607698
-0.0231645
-0.000123761
-0.140477
-2.05321
-0.000173619
6.78719e-05
4.04426
-3.14802e-05
1.61305e-05
0.00111231
0.00898028
-3.21343e-05
9.24946e-05
0.000200599
-0.000785096
3.94865e-05
1.07156e-05
-0.000769316
0.0689785
-4.78038e-05
1.76101
6.01016e-05
-0.000154617
-2.77309e-05
1.01447
-2.19744e-05
6.92324
2.89913
9.57815e-06
-3.06194e-06
-4.83587
-0.000169804
3.2559e-05
-0.000200938
4.02473
-0.125321
-3.45963e-06
-0.0233375
0.0032593
0.410695
0.259533
-3.9324e-05
1.26644
-0.000159497
-2.42219
2.86834
-0.566171
0.831588
-0.0216746
-6.61422e-05
0.000296505
2.28691e-05
1.72868e-06
-6.85049e-05
-0.0995629
-2.63943e-05
-2.59106e-05
-2.36431e-05
-0.000127334
-3.89416e-05
-3.59804e-05
-0.193968
-0.000101016
0.000122434
4.76137e-06
-0.000106011
-0.647365
-0.101867
0.000526832
4.18013e-05
0.00186388
9.69295e-05
-1.16942
6.1896
-1.78731e-05
-0.5377
0.000401017
8.42736e-06
-7.55703
-2.83758
0.000118285
-0.000620023
0.459441
-3.08045e-05
0.000162494
0.000122063
-3.55537e-05
-1.24539
-0.00027632
3.31626e-06
-5.00864e-05
3.84736e-05
-0.0268675
-0.0121025
3.19388e-05
8.09918e-06
-0.000101355
-3.15856
-2.90349
-0.369497
-0.000127582
-0.000642641
-0.000166016
-0.276968
0.00262634
-0.000139852
-0.000159133
-0.000100258
0.000411031
-6.89309e-05
-1.24315
7.72142e-05
-6.84057e-05
-4.90131
-0.551557
2.97499
-2.84707e-05
0.368399
-3.16426e-05
0.161284
-1.46916
0.0902168
9.97168e-05
-8.06931e-05
0.134549
0.939497
1.15663
-2.35759e-05
-9.44202e-05
9.68258e-06
-0.000115975
5.05155e-05
-6.87965e-05
-0.000134492
5.86092e-09
-1.44095
-6.30604e-05
-4.76702e-05
0.0001182
0.172159
-0.000141621
5.41613e-05
1.27409
0.0475211
1.35615
0.00254693
-0.000136965
8.63198e-05
2.30554e-05
0.0491855
-0.000169447
4.48928
-0.0189474
-0.00532026
-0.842105
-1.13451
0.000143272
-1.90616e-05
0.153799
0.128341
-0.000114687
-0.82092
0.000173128
-0.000185668
1.63271
-0.000173529
0.00386992
-0.000123394
0.418773
1.07802e-05
-8.68448e-05
-0.958414
-0.00259717
0.00323664
1.97002e-05
-0.000104599
-0.000124873
2.22036
-0.000235337
-0.000201159
0.000102724
-0.000153747
1.84808e-05
0.0032963
-0.655511
-5.85012e-05
4.80284e-05
-0.3889
-7.89468e-05
0.0491405
0.0515141
-7.3174e-05
0.00011341
-6.58071e-05
0.000170609
-0.000138237
0.320434
0.000200383
-1.3095
-4.14873e-06
3.05606e-05
0.000547253
2.44945e-05
0.881096
1.52272e-05
0.000107309
9.95006e-05
-0.14683
-4.93004e-05
-1.24834e-05
-2.70291e-05
-0.000176728
-7.92382e-05
7.20881e-06
-9.94341e-05
6.58655e-05
2.80825e-05
1.32878e-05
0.00209484
-0.000331378
-0.0786003
-1.39051e-05
-0.0439796
0.254911
1.04302e-06
-6.71631
-0.00768888
-7.02333e-05
-3.65097e-05
-0.000182448
-0.387685
0.00431362
-4.33987e-05
0.000133911
-0.00016303
-0.000404666
-0.0176467
0.0515129
-0.000220807
-3.05629e-05
-0.000144638
0.609387
-0.569967
9.09122e-06
9.78086e-05
2.90624
5.29109
0.0208914
-8.00769e-05
-8.20824e-06
-0.324876
-0.000140895
-0.0181432
0.171413
-0.000140589
-0.0958529
0.000166228
0.742182
-0.000116888
-0.206105
-0.0765707
0.000115338
0.361473
-0.000106727
-0.280423
-4.08305e-06
-6.23091e-05
6.39476e-05
-0.000108361
-0.729853
-6.03811e-05
-0.00010134
2.11126e-05
-0.000127098
2.35066e-05
-0.000896147
0.000106385
0.000466034
4.14095e-05
2.57332e-06
0.960625
-0.000323284
5.82299e-06
0.142732
4.80682e-06
-1.52807e-05
1.97328e-05
-0.000123125
1.11444
-0.000105032
-0.000210055
-0.0415775
4.80145
-0.000553184
-0.000228825
6.77647e-05
-4.85407e-05
-5.80309e-05
1.93599
-6.33677e-05
-0.47006
-5.58931e-05
0.0623928
2.68564e-05
-3.31228
-0.000195929
-0.0507054
-0.000117584
-0.00157211
0.329189
1.52128e-05
4.58899
9.20098e-05
-5.24793e-05
-7.86575e-05
-2.38753
-0.211857
-0.000133256
0.000209804
-0.000105343
3.21885
-0.000395108
-0.000960652
-0.0737614
3.41918e-06
-0.000315963
-0.00192573
-2.82357e-05
-6.44786e-05
-9.58781e-05
-0.000321215
-0.000249061
3.69101
-8.58045e-05
-1.61553e-05
0.000945633
0.00917699
0.133203
0.000134923
-1.72183
-2.49277e-05
-0.0268567
3.03372e-05
-9.68344e-05
-9.11048e-05
-0.000138749
5.88834e-05
-0.0197859
0.00105842
6.5066
-0.00277295
-0.000299429
-0.000347801
-0.0173174
7.70413e-05
1.57037
-4.64628
-0.0395588
-2.14978
0.144032
-0.0287645
-3.79624e-05
-0.105263
0.000892567
-0.000117571
-0.0828907
5.99946e-06
-0.0415896
-0.000653872
0.0786385
-8.70383e-05
-0.813594
1.42101
0.000665384
0.0611738
4.84967e-05
-0.109174
-5.87666e-05
-0.000134735
-0.000113898
-3.8211e-06
-0.00027389
0.112812
-0.081318
0.210331
8.0104e-05
0.000103238
0.76408
-0.0179678
0.000166749
0.0016143
-5.22263e-06
0.194732
-4.40514
-0.000121664
0.000526279
0.244933
2.25996
-0.000158089
-2.54256e-05
4.38066
0.000309252
1.41985
-0.00434984
0.0561829
9.85575e-05
6.82329e-05
-3.41666e-05
4.02346e-05
-0.0860437
-3.77297e-05
-0.131533
0.0012987
-0.0144168
-2.69964e-05
-0.000102831
7.38012e-06
4.10403e-06
-1.12213e-05
-6.33972e-05
-0.00380195
0.949306
-0.0861923
-6.29845e-05
-0.156886
-0.000237339
-6.03357
0.00174681
0.00437723
-0.000391129
-0.0163339
-6.33221e-05
1.82661e-05
0.000109469
-0.000105691
-7.8957e-05
0.00148314
0.409505
-2.39349e-05
-0.0784977
-0.955613
8.71941e-05
-1.72947
-1.30696
-3.01386e-05
0.000385244
9.3784e-05
-1.46697e-05
-8.04147e-05
0.00101771
-0.862059
-0.905484
-4.63319e-05
-4.72526e-05
5.47323e-05
-4.96783e-05
9.32998e-05
0.000112954
0.0852348
0.00185682
0.00014758
5.17499
0.00036885
-0.000271374
-3.83928e-05
-8.66819
-5.74982e-05
-0.000335588
-0.00213703
0.0696469
-0.000150666
-0.000105403
1.71464e-05
1.01005e-05
-3.84485e-05
0.000791011
0.172754
4.47095e-05
-0.000605941
0.00017768
-6.86714e-05
0.140485
-2.05008
-0.0483066
3.46406e-05
-9.15858e-05
-0.239958
4.58592e-05
-0.212606
-7.1595e-05
3.72497e-06
-2.19908
0.223575
8.05673e-05
0.00510054
4.47374e-05
-2.04733e-05
-2.66624e-05
-1.28004e-05
-2.44769
-0.000232446
2.65972e-09
0.862454
-2.43034e-05
-0.0614616
-0.000333802
-0.000129675
-1.42723
-0.000262554
-2.28884e-05
-1.40402e-05
-0.000331459
1.38609
-0.00016929
-2.44077e-05
-8.57647e-05
-4.91261e-05
-0.000238058
1.88862e-06
-1.34161
-0.000286167
2.54174e-05
-0.000132049
-0.000308715
0.00092621
7.87987e-05
-0.000129345
1.51813e-05
1.57905e-05
9.33612e-05
-0.138393
0.680416
4.30419e-06
-0.194281
4.91947e-05
-6.91414e-05
1.15266
-0.0335427
-3.22664e-06
-0.000143582
0.0137566
0.000785554
-0.000334663
2.45414e-05
3.94436
4.08711e-06
-0.00294951
9.65772e-05
-0.044892
-2.24396e-05
-0.00032266
6.78029e-05
-0.000205027
-4.79091e-05
1.01285e-06
2.44358e-06
0.00467987
-0.000168944
-0.000104092
-3.23389e-05
-8.13006e-05
-4.60472e-05
-9.14655e-05
0.000142775
0.000135108
0.00165318
2.00411
0.000340907
0.00175384
4.78681e-05
-9.53956e-05
-2.45816
-0.627643
-0.000155894
-2.23098
-0.397037
-6.76039e-05
-4.91543e-05
1.056e-05
-0.00961136
0.00173591
0.0648151
-0.000125564
4.273e-05
-0.000134031
-2.85447e-05
-0.00031834
-0.00768885
-5.88859e-05
-0.0601866
-4.6931e-05
-0.00193883
-8.73515e-05
4.20238e-05
1.94446e-06
0.000539032
-3.17008e-05
0.563943
0.958872
-1.58497
0.000598626
6.91364e-06
0.0686818
-0.123952
0.00189747
-3.96603e-05
-6.50948e-05
-0.233767
1.13637e-05
1.39784
-0.000128047
0.000219352
-6.71907e-05
-6.62995e-05
8.74066e-05
2.48953
-3.13351
1.41607
0.000331427
-1.61944
-1.84058e-05
1.77623
-1.54436
6.42532e-06
-1.74937e-05
3.71859e-05
0.0558384
-0.000175811
-1.60116
-0.000145708
0.0158892
5.5201e-07
-0.244765
0.0684698
0.0168091
-0.000153388
0.000302012
-0.000303347
1.44559
-4.21837e-05
0.030644
0.0340935
-0.00487051
2.5136
-1.75224
3.60226e-05
2.39668e-05
-0.000259464
-0.00333906
-1.89518
-2.31336
3.65971e-05
-0.110048
1.31233e-05
0.00223967
0.00329898
0.492937
0.26731
-0.000158478
-1.55387e-05
0.000409978
-6.4891e-05
2.5574e-05
0.42912
-0.000154997
-1.57553
-0.000440897
-0.000148816
-0.0065211
0.0061036
0.0306091
3.93946e-05
-4.7131
-3.37923
-0.26311
6.73039e-06
-6.98592e-05
3.81641e-05
-6.48314e-05
9.57526e-06
2.88852
-0.197362
-4.95218e-05
2.69299e-05
0.000400897
-0.0293736
-3.17265e-05
-6.11147e-05
-0.0170846
-3.5596e-05
-4.47352e-06
-6.6354e-05
0.00171353
-5.10737e-05
3.43822e-05
1.23393
0.000184987
-0.000127889
-0.0642202
-0.00409961
-7.79687e-05
2.67034e-05
8.42812e-05
-5.91428e-06
-0.000228358
3.07452e-05
-0.586468
0.0111891
4.87948e-05
0.000409173
-0.000662233
-0.141985
2.2919e-06
0.644828
6.56125e-06
8.89629e-05
-0.0276988
0.0712762
0.00208817
-0.000115247
-1.82464e-05
-0.80827
-0.131656
-0.0713053
0.0214885
-0.000175772
6.37794e-05
0.000128418
-3.0026
-1.77139e-05
-0.140631
2.51327e-05
-4.62908e-05
1.04622e-05
-0.000241782
-0.000193176
-0.00344604
-8.61555e-05
1.78806
-0.000215053
-2.88773e-05
-0.000128742
2.99243e-05
1.12194
1.43096
0.00190273
-0.289319
-0.000139834
-0.000577212
9.54105e-05
0.738017
2.36143e-05
-0.000101991
-0.930842
-0.00043927
-0.000294629
-5.01897e-05
0.00952603
3.97476
2.96769
-7.21547e-05
-0.000188491
0.0512869
0.000277236
2.71078
0.00367976
-0.00844839
-9.80466e-05
2.94389e-05
0.00209624
-0.0250004
-0.000215773
-0.00699092
7.96627e-05
-0.000173917
-6.50039e-06
7.85638e-05
-6.49796e-05
2.02978e-05
0.473777
1.16811e-05
7.3543e-05
-0.000757162
1.68484e-05
5.9776e-05
-0.000438624
2.30131
0.00024394
-0.00160951
2.09786
-0.000103904
-1.01208
-0.000212852
-1.84297
-0.00171618
7.17314e-05
-0.000117565
3.83533e-05
-0.121561
-0.201478
-0.00144762
-0.0192008
-1.94926e-05
-5.4222e-08
4.21233e-05
5.0722e-05
0.179635
0.000151563
-1.5725e-05
0.0186513
0.0181154
0.049576
5.8914e-05
-0.173923
-7.14148e-05
0.000460473
0.000279369
0.0226139
-0.0581399
4.01077e-05
0.590123
0.0773737
-0.000243072
1.92459
0.000651209
-5.44709e-05
8.19536e-07
3.42206e-06
5.80687e-05
9.88638e-06
5.53315
0.00107843
-1.99153e-05
0.0404909
1.08669e-05
-0.470291
-0.411295
-0.000228205
-1.03675
-0.000148311
-0.000159802
-6.62713e-05
-0.626624
-1.38618
0.0018575
-5.52895e-05
-0.000148468
-1.08037
-4.90654e-05
-0.000187665
-0.000175175
-5.30205e-05
-2.1737e-05
0.270284
2.2124e-05
-0.000275755
-0.000321248
-4.81388e-05
-0.0730354
-0.0177805
0.000432044
-8.95467e-05
3.07903e-05
-0.133289
-7.22032
7.87048e-05
8.2662e-05
8.15051e-05
0.000120671
2.30014
-0.504257
-0.0423826
-8.77158e-05
-2.65839e-05
1.04652
-0.213251
7.0475e-05
0.0961481
-0.000117674
-0.00169732
2.71048
-5.81478e-05
-0.292738
-1.04765
-0.0158985
0.465142
0.123062
2.50906e-05
2.02388e-05
0.0575787
0.187094
6.43823e-06
0.0801679
8.11249e-05
-5.9686e-06
5.26078e-05
5.63205e-05
0.000262001
0.000115687
-0.0512462
0.673201
-0.00991803
-0.000185991
-0.000190998
-0.00353844
0.0111781
6.19058e-05
0.0262396
-0.00071084
3.14315e-05
-2.84417e-06
-5.5524e-05
-7.88961e-05
-0.000118497
0.0312919
2.06934e-05
-0.000109316
-1.05444
0.235288
0.00195632
-3.36442e-05
-3.52224e-05
6.03379e-05
-0.00016098
-0.549757
2.74962
-0.000215168
-7.57748e-05
1.66714
-0.17257
-0.000682648
-5.63565e-05
-0.347498
0.000145805
-2.57087e-05
-4.60873e-05
-0.000218263
-4.30079e-05
-0.000159945
2.61821
-0.0930364
-7.98145e-05
0.12164
0.0014929
-0.0180863
5.64314
-1.42272
0.0283036
-1.21851e-06
6.45375e-05
-4.17095e-05
-0.000188149
-0.0109997
-0.000135374
-0.00416591
0.000256447
0.137024
6.45354e-05
0.64727
0.000955738
-0.235977
-6.85405e-05
0.0461029
0.000227682
0.0353828
-0.00494294
-0.000144326
-0.000166271
1.67347
0.0010176
-5.95754
-0.000174989
0.046607
0.000108548
-0.717838
-0.181926
-0.00140657
-1.97957e-05
-0.000180233
-0.160518
-0.889291
0.000444541
-0.000174694
-0.0962867
-0.00744064
0.000587453
1.0677
-0.0341373
-2.73487e-05
-5.49986
-2.31405e-05
0.000439441
-7.70412e-05
0.367058
-7.30681e-05
-1.4259e-05
0.0102198
-0.0895652
-3.14056e-05
-0.00155247
-4.78065e-05
0.0207569
-0.000104306
-0.0991811
2.52334e-06
-0.00280648
-0.00015585
-0.000183639
-0.128641
0.000306343
-0.908399
-0.304223
0.52292
2.96336e-05
1.70433e-05
1.96517e-05
0.000149033
0.000273875
0.000424797
2.1176
5.1244e-05
-0.132173
-0.000825448
7.28033e-05
-3.14858e-05
0.00153655
0.115281
-2.68708
-4.63615e-05
0.775781
-0.000152324
-1.3253
0.0239057
0.000859188
1.01089e-05
-0.000122095
-0.000198411
-1.02807
-2.07521e-05
-3.56626e-05
6.26532e-05
0.000578156
-4.51256e-05
-0.340425
-0.221778
-0.11099
0.000190477
0.000168417
-1.86712
-0.000157491
0.000416198
7.78361e-05
1.08516
-0.000772657
1.25237e-05
-0.00131883
0.0183575
5.38286e-05
-1.28886
-1.97211e-05
0.0145428
-0.0482353
0.169434
-0.00706848
-0.000196547
-3.87138e-05
-4.58788
-6.52653e-05
-0.000792224
0.00296395
5.07988e-05
-4.23761e-05
-0.762497
6.03724e-06
0.00969482
-3.26291e-05
-0.00753927
8.70159e-05
-0.0215701
-1.67366e-05
9.98225e-05
-2.17153
0.154544
1.31827e-05
-3.94693e-07
-0.0217726
-2.20061
0.00121071
0.0759146
0.000200405
-6.48467e-05
-2.03401e-05
-1.65145
6.55517e-05
0.235398
-0.0133326
-0.335765
-0.000227908
-0.000124475
-6.76029e-05
0.000290149
0.00187444
-0.122155
0.0756447
1.91418
0.0515217
4.9174e-06
0.0232032
7.61388e-05
0.000704454
0.000177091
0.000239832
0.000106769
2.21346e-05
3.51612e-05
0.00178516
-0.000121353
-0.000659312
-0.000542293
-1.11415
-6.36705
0.000660486
-1.29604
-9.26376e-05
2.37917e-05
-0.000138111
-0.0257874
0.00231987
-0.000357253
-0.00977507
2.93103
-0.000350676
-0.0194095
7.75015e-05
-0.000111181
5.73473
-2.47223e-05
0.00580205
-9.48731e-05
3.09319e-05
1.77204
-0.0156377
4.81271e-05
-0.00361367
-0.00911786
-1.46487
0.40206
5.50107e-05
0.00155375
0.00187645
2.70822
4.0156e-05
-1.74544
-0.902693
1.15955e-05
-1.35616e-05
-0.00016789
-0.0272638
-0.000173171
4.07913e-05
-0.313986
6.4796e-05
-0.000208321
-0.0426946
0.00137602
-0.105012
0.128053
-0.161199
-0.678207
-0.00014929
-4.63305e-05
0.000100681
-9.18545e-05
1.75298
1.85523e-05
1.03434
8.69187e-05
-0.522755
9.71462e-06
-8.01222e-05
3.33585e-05
-5.40763e-05
-0.000196691
-3.38378e-05
-2.69262e-05
0.103617
1.56059e-05
0.00224013
-1.2615e-05
-0.715083
-7.56578e-06
-0.000178937
4.98809e-05
0.000795428
-2.17381e-05
-4.66086e-05
7.80171e-05
8.16223e-05
-9.51734e-05
0.000105163
8.26471e-05
6.86594e-05
-1.30341
-0.345455
-0.267171
-0.263107
-6.90456e-05
-0.000182219
-2.04769e-05
0.000118565
5.90254e-05
-6.41373e-05
-0.0677742
-2.55735e-05
-2.60725e-05
-0.000140971
0.000110178
-4.77261e-05
-1.1833
-1.71835e-05
-0.000138601
1.74277
0.00158105
0.000131328
-0.157374
0.322707
-3.10254e-05
-0.112321
-0.0309579
4.91774e-05
6.70828e-05
-1.26854e-05
-6.91341e-05
-0.000213051
-0.000403882
0.000949031
-0.000178466
-0.000160471
2.79501e-05
-5.88658
-5.06853e-06
-0.000837354
-0.000198363
-3.41231e-05
-0.484885
-2.30346e-05
-0.000120471
-1.53139e-05
2.94001e-06
-1.52194e-05
-0.00190255
9.26479
-6.77367
-1.00284
-0.00504426
-0.000345239
-0.000101671
-2.61316
-0.0268896
8.26486e-05
0.0013289
2.64989e-08
5.9327e-05
-0.000219354
0.299301
-0.000422458
-0.000217689
6.39474e-05
0.022165
-0.000102466
0.00118897
-0.000223473
0.0812642
0.0189625
0.0109308
-5.96284e-05
3.06819e-06
-2.86243e-05
-0.000242189
3.43708e-05
-0.000180264
-0.00177904
0.197353
-0.000224085
-0.11557
-0.645259
-0.000180489
-1.60265
-0.000892075
0.0308747
-0.0106656
-2.08829e-05
-0.000300457
0.00110869
7.08249e-05
0.000143811
-0.00015044
-0.270372
-2.59416
-0.000100918
-8.64871e-05
-0.0218666
-0.00166774
-0.295329
-0.0222113
0.000121361
0.000260684
3.58381e-06
-0.000148302
0.000979215
-0.00378262
2.02281
-5.33978e-05
0.0330639
-0.000468786
6.09113
-0.0282693
3.81968
-5.30795e-05
-4.9779e-06
-0.0154487
0.0311699
0.00118923
-1.32719
-3.91285e-05
0.0799813
3.75184e-05
4.80783e-05
0.822258
-0.0769762
-2.62426e-05
2.35524e-05
-0.00921228
0.0196005
-0.0241492
-0.00346208
-9.44744e-05
-0.000111857
9.03739e-05
-0.171982
1.11772
4.08376e-05
0.00161882
0.404494
-0.00135635
-0.0637778
1.034
0.145059
-2.87753
0.000137069
-6.96034e-05
-0.178588
-3.43057e-05
1.34503e-05
0.00278175
1.00789
-2.37376e-05
2.9417e-05
1.66903
0.00910919
0.0318063
-1.15015
-0.884917
0.291891
-0.000120844
-0.000236422
4.16163e-05
3.85694e-05
-7.06639
-0.000264059
0.00816268
-0.0659028
-0.00237318
-5.57067e-05
-0.114057
-9.06469e-05
0.000432479
-6.08007e-05
-3.28535e-05
6.80711
-9.35975
-0.000149248
-0.000153495
0.000735382
-0.341886
-0.0338332
-0.64676
-0.0012415
4.95623e-05
-0.000841373
-0.000246744
-0.00165979
-4.54905e-05
-1.81316e-05
-0.465511
-0.0628001
-0.863847
-0.00294802
6.35547e-05
-0.000144472
-9.19901
5.31301e-06
-0.000126306
0.000192935
8.84495e-05
-0.000182914
1.00144
2.16131
-0.383746
-0.00167629
-0.804031
6.63999e-05
2.17478e-05
0.501861
5.75468e-06
0.00316932
0.0568505
-0.000130653
-1.57142
-0.470476
-0.000843854
-4.38389e-05
0.0434972
7.59896e-05
-0.112056
-0.000586696
0.0696676
2.77359e-05
0.000120885
-0.000621593
-0.139806
-0.00171531
-0.0142188
-0.60955
-1.91998
-0.00148649
0.0197991
0.0084123
2.1814e-05
-0.0153985
2.22319
-0.00051327
0.00181263
2.61674
0.000301049
-0.000790734
-0.000157347
0.000605087
0.001124
-0.00214437
-1.96255e-05
3.25727
-0.0315718
-0.388719
-0.821104
-0.333517
-0.000353663
-0.00277439
4.57891
-0.000145297
-0.11029
-0.539952
2.69591
-0.000408514
-2.47295e-05
-1.10114
3.38285
-0.000181399
3.88184e-05
4.29125e-05
-0.000108196
-0.340409
-8.67224e-06
0.825324
0.591036
0.145268
1.65348
-0.00011118
0.000666605
-8.50356e-06
-9.36957e-05
0.000647219
0.00130076
0.000160573
-0.00172175
0.688377
1.9916e-05
0.000116885
0.0125967
-2.89121e-05
-0.0450734
-0.00024121
0.117371
-0.0411956
0.0126596
5.43865
-1.60421
1.17424
-0.17125
-0.370774
-0.000246857
-3.99783e-05
-0.0116028
-0.0132872
0.5426
1.22898
2.26156e-05
-0.000474172
-0.654138
1.33718
1.72391e-05
-0.157105
1.93801e-06
-0.0820546
-1.87925
-0.420656
-6.54358e-06
-0.355741
-0.0178995
-0.000119773
-0.000485723
-1.88287
-1.31164
-0.104005
-1.78888
4.10357e-05
-0.372921
0.619616
-0.00111076
-0.0283363
0.00158331
-4.07277e-05
0.000151286
1.20688
-0.985773
0.000108419
-0.000165992
-0.99696
0.00152554
-0.389076
-0.00466111
-0.151211
-0.302829
-4.90142e-06
-0.590436
3.64694e-06
0.000221854
-0.000128384
-0.00042699
-0.000443511
-0.000548817
-0.0702367
-0.000161931
-7.45417
0.00296694
3.38945
-0.652532
1.20801
-1.30042e-05
-2.67231
0.0301423
0.680261
-0.000598279
6.9868e-05
-18.1198
0.0025929
-2.67896
0.000350856
-2.46596e-05
-0.000317026
-7.78619
-1.76727
6.70601e-05
-9.94063
-5.73882e-05
-4.91267e-05
0.591481
0.000134128
-8.72244
-3.90857e-05
-0.000206032
1.07544
-0.205696
0.111452
0.0208839
0.0350733
0.577756
1.97072
-1.65881e-05
7.09754
-0.000447803
-0.000130168
-0.000143295
-8.23249e-05
-1.82587
-0.000181525
-0.142575
0.0548722
0.000562217
0.0604125
0.00450945
-0.206787
0.0158192
-2.20429
-0.463705
-0.106295
-0.00283703
-9.38112e-05
-0.049184
0.000721842
-0.00397661
0.634198
2.30006
-0.114392
-0.000166756
4.90821e-05
0.0046368
-0.000116557
-1.3502e-05
3.40717e-05
-0.298612
-0.000162042
-4.11176e-05
0.570347
0.00107055
0.0687982
-3.11871
-0.302157
0.452331
-2.12102
0.469938
-0.285258
-0.00196883
0.000467315
-8.58204e-05
0.036698
-0.0106599
0.0262288
-7.24065e-05
-9.49468e-05
-4.61613e-05
0.0154699
-0.00984092
-6.75795e-05
-0.000287365
0.000165346
1.11983
-4.13068e-06
0.000148013
-0.00193077
0.513193
5.90018e-06
0.00172913
-0.00565968
-0.000198281
0.00164137
0.000122927
-0.000135642
-0.00051543
0.0668298
-7.18302e-05
-0.000241028
-0.00451599
0.0634883
-8.98903e-05
-1.76861
-0.000301224
-0.348754
-3.87269e-05
1.31413e-05
-0.000142747
-0.0299917
0.000374997
0.659107
3.80697
-0.00206941
6.61986e-05
-0.0001126
-0.674916
-0.000405368
-1.2926e-05
-0.0695112
-0.144341
-0.000785047
-0.00107115
-1.09576e-05
7.96108e-05
2.62613e-05
0.596868
-5.58809e-05
-0.000148871
-2.06589
4.16227e-05
0.00043196
0.0686399
-8.71924e-05
0.0016802
-0.00101349
0.834648
-2.00064e-05
3.00115e-05
-1.95577e-05
-0.000763682
-6.76746e-05
-5.41207e-05
-0.072204
-0.191629
-0.0016338
2.52899e-05
-1.44756
-3.971e-05
5.46399e-05
-0.000323084
-0.325628
-2.3133
-3.06789e-05
-1.1403
1.65795
-0.00247744
1.18925
2.46937
-0.392517
5.35257
0.00192691
0.00166853
-0.0356715
-0.000690753
-0.000288419
4.78415e-05
0.00030517
-1.75196
8.17139e-05
-0.131636
-1.77712e-05
0.00873587
-0.00743907
9.42634e-06
-0.000116337
-1.321
6.04139
1.53293
1.01005
-3.36965e-05
0.00242684
-0.437655
0.000142108
4.80181
-0.00107547
0.00200199
-0.764309
-0.000212103
7.39822e-06
-0.0149873
-0.0196928
4.43797e-05
0.536994
-3.94345
-7.08377e-05
-0.000165953
-0.000227909
-3.37504e-05
-0.782698
-1.45598e-05
-0.000550457
-0.000122336
-4.00428e-05
-9.12858e-05
-2.87175e-05
0.546325
-0.00120796
6.21035e-05
-0.000139486
0.000271867
7.89383e-05
0.000158949
4.05664
0.177215
-0.0017981
0.047761
0.000248554
-9.55012e-05
0.00662494
-0.129541
-0.00055278
0.291942
-0.034935
-0.00281859
-0.000735057
-0.000138256
-0.00146082
-0.000317183
-2.08174
0.000142857
-1.47483e-05
-7.41069e-06
0.437601
1.37823
-0.000476349
-0.000324518
-2.36118e-06
-3.11304e-05
-0.00576172
-0.00572605
-0.000101017
-0.00316984
-0.450463
-0.000387658
-2.37882e-05
-2.9608e-05
-0.220203
-0.496356
8.40414e-05
1.24278
0.000232035
0.0241763
-0.0498969
-0.000167875
0.890085
0.000248219
-0.000172294
-0.644073
0.00505926
7.52208e-05
0.000144292
0.0385423
-7.48998e-06
6.22431e-06
-0.0373999
-0.000773168
-1.98289e-05
0.352907
0.000130562
0.00123753
-0.74312
-0.000347307
6.15875
-0.854162
0.000140308
0.00151431
0.0329646
-1.11122e-05
0.0163242
-4.66221e-06
-1.10865
0.0402788
-0.000109632
0.413186
4.02821
-3.39621e-05
-7.82525e-05
-0.0728996
0.000663083
-0.661389
0.193969
-4.80641e-05
-0.000227568
0.725103
0.000112413
0.00159174
0.00233483
-0.000238601
-0.154398
0.037391
-1.3449e-05
-0.0019078
4.38423
-3.57677e-05
0.462031
-1.11811e-05
-0.000121914
-5.20895e-06
7.2536e-05
0.0462024
-0.000235924
0.000279246
-7.87306
-0.720129
-3.39925e-05
-0.00014732
-0.253839
-0.0685264
5.91028e-05
7.35387
0.000289355
-0.00661882
0.000400837
8.17127e-05
0.000121289
-5.79205e-05
8.93078e-05
-0.04594
-0.000302581
-0.000250396
6.66576e-05
-1.76372
-2.06018e-05
-3.70955e-05
-9.76331e-05
7.23583e-05
-5.71857e-05
-5.72571e-07
-1.90454
-0.126464
-0.000320776
-0.000100503
-0.000253397
-0.000188379
0.000412733
-1.41375
-0.636179
-0.000112285
7.00514
7.68304e-05
0.213802
0.639465
-1.29775
9.20441e-05
-0.00958232
0.0026559
-1.7505
-0.0129008
3.18976e-05
-2.25065
-0.0352784
-0.000426189
-0.203242
-0.000149572
-5.1951e-05
-0.000195496
1.43306
2.15413e-05
0.151649
-1.19695e-05
6.15817
-0.00103251
-0.000379598
-0.400526
-0.000266726
-8.88072e-05
0.0651105
-4.73424e-05
-0.131349
1.48145
0.032114
-5.71579e-05
0.0149798
1.33891e-05
-0.00948153
-0.000341956
9.29628
-4.36901e-05
-3.60489e-05
-0.000121972
-0.000146212
0.00115586
2.19516
-0.792019
1.83094e-05
0.00671505
-1.46326e-05
0.242614
0.514232
-0.0262199
7.66116e-06
-0.000229752
-7.02056e-05
0.685194
5.94188e-06
0.000140745
0.659939
0.00204795
-4.34082e-05
0.0436156
0.00254777
0.000101839
2.72769e-05
-0.0122742
0.0396078
-0.00386749
-0.000546618
-2.15987
0.585191
-0.114469
-2.21683e-05
3.87714e-05
7.52387e-06
-4.48688e-05
-0.0149962
0.00110585
0.000219694
0.00290431
-0.70661
-2.80541e-05
-4.9797e-05
-0.266934
-0.103879
-0.957931
0.0223491
-0.000103036
-8.18583e-06
7.72002e-05
5.04986e-05
5.39758e-05
0.00115421
-0.000137996
-1.58179e-05
-0.000289534
0.000110507
8.15856e-05
5.93817e-05
-0.000773377
0.000502568
-3.33891e-05
7.54183e-05
2.81152e-05
-4.89292e-05
1.02047e-05
0.0112702
-5.69999e-05
-1.96802e-05
-0.169589
-8.27794e-05
0.000107064
3.96832e-05
0.000218326
0.440631
0.248577
0.652969
2.93247
-3.85838
0.0484646
-0.000128587
-0.000755458
-7.19442e-06
0.0931111
-3.2975e-05
-2.30052e-05
3.42054e-05
0.000649379
-0.000105124
0.000470998
-0.000154171
-0.762332
-0.0188706
-8.92816e-05
-2.75761
-3.47267
-0.000120076
0.000172336
-7.54751e-05
-0.000142016
-3.40971
-4.03483e-05
-0.000811059
-0.0213156
-4.79597e-05
-0.000162902
-0.000612158
-0.317067
-3.14794e-05
3.73835e-05
-0.0908395
-2.9399e-06
-2.2297
0.000483486
-1.45805
-9.57587e-05
0.80991
-8.11778e-05
-1.26607e-05
0.0664535
0.00144189
-0.0399385
-0.140757
-1.62979
-0.510131
-0.0481865
-0.0183239
0.00017361
-0.0262823
-0.00011979
-3.63669e-05
0.0017643
-4.26707e-05
-2.56229e-05
-0.000100589
-7.47573e-05
0.00217915
-0.422948
0.920557
-0.059407
2.91739
3.85838e-05
-6.70564e-06
0.000200826
0.000103286
0.0029872
2.68713e-05
-0.000173468
-0.000100911
5.34887e-05
-2.6969e-05
0.00477092
0.000741673
3.77381e-05
-4.51532e-05
-0.000363921
0.000216606
0.422286
1.13421
8.49436e-05
0.000816333
-5.97597e-05
-0.945289
-1.26688
3.38563e-05
1.64922e-05
-9.38338e-06
-5.5862e-05
-0.141279
0.0705334
-0.166159
-5.55553e-05
-0.636048
2.74897e-05
0.206745
0.000539112
-0.000126149
-6.2574e-05
-0.187646
-4.12821e-05
2.43074e-06
0.000326598
-0.000104292
-0.754068
-0.000115614
2.3713e-05
-0.000109853
-0.0392885
0.000122209
-0.366533
-0.31446
-6.1752e-06
5.65248e-06
-2.9434
0.00180778
2.09887e-05
-2.41803
-1.19201
0.0298921
-0.592823
0.000242862
-0.0827095
-0.000107843
0.0477331
0.103034
0.0862395
0.00205005
-1.87728e-05
-1.06653
7.3942e-05
-4.85312e-05
-0.000157681
-0.129589
-0.000228619
0.801429
-9.51798e-05
-5.2607e-05
2.55962e-05
0.267723
-5.00811e-05
1.41106e-05
-0.000221037
6.54281
1.79601
-0.522196
-0.262948
0.00112373
1.28513e-05
2.66146e-06
-0.0804629
-0.00192635
5.70966e-05
0.00205432
-0.039602
-0.376975
-5.10266e-05
-1.1251
0.553392
0.00064633
-4.53889e-05
-3.63856e-05
9.88068e-05
-5.75464e-05
7.51249e-05
0.000114788
-5.23101e-05
0.00193106
6.5866e-05
-0.0173191
-1.41959e-05
8.94592e-05
-1.20815
0.00366414
-3.81651e-05
5.80765e-05
0.480495
-0.000138415
-0.000427294
-6.61875e-06
-9.23011e-05
-0.135247
0.000256558
8.93836e-05
-0.00019806
-3.03008e-05
0.000196798
1.30779e-05
0.0138012
-5.50774e-05
-9.94707e-05
0.0020715
4.07656e-05
0.0251171
0.000472
-2.67179e-05
-0.000716796
-1.65368e-05
9.5922e-05
8.03893e-05
-1.80484
-5.8052e-05
8.89802e-06
-0.162018
3.91099e-05
-0.000170006
-5.48696e-05
-0.411224
-0.000147318
-0.0238917
-4.62731e-05
-0.000119203
-3.02616e-06
-2.73141e-05
-0.000236848
-0.000121635
-0.213538
-5.39877e-05
-0.000126691
8.9136e-06
-0.0462272
0.0496344
-3.97773e-05
-0.000146684
-0.362759
-0.000103274
-0.000140732
-1.74043
-2.84959e-05
-0.00607328
1.35746
0.000257638
9.43362e-06
-7.36845e-05
-2.27166e-05
-4.27516e-05
-8.84434e-05
0.000101575
-0.000108221
-0.000332856
-0.000325531
-0.00018931
-9.05034e-05
0.000904376
-2.18495e-05
-4.18131e-05
-7.28066e-05
-7.95406e-05
0.94682
4.1747e-05
-7.23693e-05
-0.00376277
-3.00994e-05
-5.87658e-05
-0.0640056
-1.01346
1.4882
-4.94194e-05
1.1969e-05
0.000403511
0.000110629
-0.000121602
0.000554591
0.0297537
-5.52069e-05
-0.00201423
-5.26759e-05
2.08545e-05
-0.00010922
-0.000298921
0.000198338
-7.21573e-05
0.000575085
0.000164855
-0.266461
4.01048e-05
-9.88854e-05
-3.81014e-05
2.24636
-3.14209
0.820357
-5.78309e-05
0.00045919
-4.76504e-05
-0.000197082
-3.84659e-05
-2.47565e-05
0.0699538
1.01169
-3.74175e-05
0.00022964
1.6396
-1.97943e-05
0.012678
-3.02294
-0.153231
0.000244876
-4.12669e-05
0.000223662
0.00156677
-0.0554137
-0.447515
0.810237
-0.0612734
4.70353e-05
5.08622e-05
-3.85463e-05
0.00264607
-2.08879e-05
-5.52178e-05
0.000855875