/*--------------------------------*- C++ -*----------------------------------*\
| =========                 |                                                 |
| \\      /  F ield         | OpenFOAM: The Open Source CFD Toolbox           |
|  \\    /   O peration     | Version:  v2012                                 |
|   \\  /    A nd           | Website:  www.openfoam.com                      |
|    \\/     M anipulation  |                                                 |
\*---------------------------------------------------------------------------*/
FoamFile
{
    version     2.0;
    format      ascii;
    class       surfaceVectorField;
    location    "550";
    object      ddtCorrDdt0(Uf);
}
// * * * * * * * * * * * * * * * * * * * * * * * * * * * * * * * * * * * * * //

dimensions      [0 1 -2 0 0 0 0];


internalField   nonuniform List<vector> 
14470
(
(-9.26019e-05 -7.91824e-05 -2.36367e-18)
(-0.000157064 3.77294e-05 -2.1874e-18)
(-6.57598e-05 -3.95752e-05 -6.31535e-18)
(0.474982 -0.0332058 -1.16927e-17)
(0.433332 -0.0102748 -4.1646e-17)
(-2.36081e-05 -0.000707716 3.80998e-18)
(-3.21544e-06 -0.000704967 5.1121e-18)
(-8.59446e-06 -0.000668977 -2.28224e-18)
(-0.0312018 0.0195007 -1.21592e-17)
(-0.0265018 0.020895 1.60109e-17)
(-0.0270601 0.0268284 -1.52939e-17)
(6.96398e-06 -0.000180694 -8.61674e-19)
(8.19066e-06 -0.000181362 1.77335e-18)
(1.19976e-05 -9.17621e-05 3.28386e-18)
(0.0641519 -0.0540436 1.40347e-17)
(0.0713627 -0.0594175 3.76531e-17)
(0.0614767 -0.0626593 3.96686e-17)
(-0.0218485 0.00482871 2.04974e-18)
(-0.0224577 0.00223579 -6.81569e-18)
(-0.0253378 0.00384504 -2.26623e-17)
(0.060469 -0.204418 -4.61121e-17)
(0.023766 -0.218325 -8.37862e-17)
(0.0535961 -0.176788 -1.08937e-17)
(0.000447757 -0.000973312 3.55405e-20)
(0.000491453 -0.000996808 -3.14947e-19)
(0.000432941 -0.00102784 -1.972e-20)
(-2.56744e-05 0.000440482 1.48338e-18)
(-9.64069e-06 0.000398561 -1.98889e-18)
(-1.21426e-05 0.000380168 3.39245e-19)
(-3.93656e-05 0.000467387 -7.94333e-20)
(-4.14267e-05 0.000441398 -1.04455e-18)
(3.32728e-05 -0.000397482 3.47907e-18)
(2.0661e-05 -0.000416355 6.35276e-19)
(2.18906e-05 -0.000433336 7.13562e-19)
(-0.445503 -0.516196 7.82641e-18)
(-0.400349 -0.527109 -1.55324e-17)
(-0.430555 -0.548465 6.13935e-18)
(0.000505042 -0.000512408 -7.12332e-19)
(0.000494691 -0.000490873 1.63207e-18)
(0.000524253 -0.000472445 -8.51708e-19)
(0.00115316 0.00345756 3.19917e-19)
(0.00113483 0.00381885 -3.69752e-18)
(0.000795139 0.00355535 8.48292e-20)
(0.00949332 -0.0173198 1.00087e-18)
(0.00998833 -0.0196885 4.80702e-18)
(0.00756091 -0.0184906 -2.96696e-18)
(-1.31867e-05 -0.000680518 -4.03831e-18)
(1.49337e-06 -0.000647601 -3.46283e-18)
(-9.43733e-06 -0.000674489 -5.11985e-19)
(-0.248415 -0.0343251 3.07139e-17)
(-0.216885 -0.0383466 1.67983e-17)
(-0.248834 -0.0604501 -2.15142e-17)
(0.000265456 0.000248611 -3.7503e-19)
(0.000247327 0.000238793 2.40655e-19)
(0.000257662 0.000245114 2.04796e-19)
(0.000476858 0.00035843 -8.63806e-21)
(0.000479167 0.000357877 3.62831e-20)
(0.000452252 0.000354727 3.61612e-20)
(-8.2239e-08 -0.000112363 3.01369e-19)
(-1.65967e-06 -0.000113126 8.71884e-19)
(-0.00436915 0.0635025 -3.44087e-17)
(0.00481612 0.0676984 -1.30474e-17)
(-0.00393198 0.0611594 1.74234e-17)
(0.059624 -0.204684 -3.31133e-17)
(0.0903939 -0.172718 1.02321e-18)
(-0.453363 -0.485035 -7.94453e-18)
(-0.485755 -0.512737 3.43257e-18)
(-0.000213046 -0.000269453 -7.2601e-18)
(-0.000204066 -0.000289747 7.19648e-18)
(-0.000197085 -0.000297434 9.4654e-18)
(-5.18612e-05 -0.000434563 1.55314e-18)
(-4.17143e-05 -0.000420884 3.19964e-18)
(-5.66154e-05 -0.000426213 -8.71278e-19)
(6.48525e-06 -7.30374e-05 8.36281e-19)
(8.88176e-06 -7.41948e-05 -2.13983e-18)
(1.20929e-05 -5.45202e-05 -1.18524e-18)
(0.000276933 0.000248333 1.81197e-20)
(0.000286983 0.00026307 -1.99721e-19)
(-0.015654 -0.023139 -3.27932e-18)
(-0.0162205 -0.0258499 -8.54477e-18)
(-0.0189353 -0.0235542 4.37602e-18)
(0.218289 0.00128869 6.73249e-18)
(0.220276 0.00398207 6.3628e-18)
(0.244604 0.00217748 1.5319e-17)
(0.0710639 -0.146629 -2.64164e-18)
(0.0655094 -0.118852 -1.92572e-17)
(0.0419624 -0.136459 -3.39093e-17)
(-5.34673e-05 0.000362364 5.01144e-19)
(-6.21361e-05 0.000366848 -2.02176e-18)
(-5.94711e-05 0.000291247 9.5891e-20)
(-2.79863e-05 -0.000571253 2.47936e-18)
(-3.54135e-05 -0.000615964 7.08425e-20)
(-1.91239e-05 -0.000609263 -3.47723e-18)
(0.000119484 -1.54677e-05 -8.62063e-19)
(0.000111156 -1.50305e-05 -2.40216e-19)
(0.00010006 -6.47288e-06 1.5788e-18)
(0.00598326 -0.000506117 9.46504e-19)
(0.00564333 -0.000841313 -2.4602e-18)
(0.00615461 -0.000919826 -4.47307e-19)
(0.00151179 0.00249503 -4.41541e-18)
(0.00165452 0.00227935 -4.35516e-18)
(0.00144942 0.0022546 -2.44772e-18)
(-0.000301881 -0.000151118 5.07476e-18)
(-0.000340418 -0.000190056 -1.09011e-17)
(-0.000293971 -0.000224324 2.46661e-17)
(0.0945819 -0.276103 1.08089e-18)
(0.0724129 -0.230441 -7.10103e-17)
(0.098076 -0.231092 -2.10339e-17)
(0.00172582 -0.00588872 1.49353e-18)
(0.00178485 -0.00531443 -1.52054e-18)
(0.00237246 -0.00565111 2.18603e-18)
(-0.0150462 -0.0200514 -3.78982e-18)
(-0.0125516 -0.0221215 7.9615e-18)
(0.237626 -0.0656142 -3.89057e-19)
(0.189256 -0.130273 -4.60352e-17)
(0.123786 -0.127378 -2.56732e-17)
(-0.271494 -0.25269 1.21885e-17)
(-0.280173 -0.251203 3.35011e-17)
(-0.283202 -0.273919 -2.10661e-17)
(5.12078e-06 -6.13885e-05 -3.53948e-18)
(6.40389e-06 -7.10898e-05 1.63896e-18)
(-2.97866e-05 -0.000592088 3.59499e-19)
(-2.04683e-05 -0.000669918 3.47587e-19)
(-2.30001e-05 -0.000670449 9.18086e-19)
(-3.53934e-05 0.00029225 -2.38258e-19)
(-3.72914e-05 0.000170654 5.27662e-21)
(-3.88976e-05 0.000184726 -2.32298e-18)
(-0.0645114 -0.0725802 -7.37395e-17)
(-0.0364481 -0.0730331 3.34237e-17)
(-0.0455496 -0.101309 1.80921e-17)
(1.07551e-06 -0.000142922 8.98847e-19)
(7.28844e-06 -9.44924e-05 1.04252e-18)
(8.73849e-06 -9.71319e-05 3.54538e-19)
(0.000596964 0.00057344 -6.75163e-19)
(0.000559542 0.000611907 -2.45902e-19)
(0.0006061 0.000638095 1.02282e-19)
(-1.94228e-05 -0.000689177 -3.40646e-18)
(-1.12764e-05 -0.000688011 8.32546e-19)
(0.00638528 -6.82096e-05 1.75298e-18)
(0.00577636 -5.36652e-05 -1.93907e-18)
(0.000126828 -2.31734e-05 -6.39236e-19)
(0.000129751 -1.34357e-05 1.45627e-18)
(0.00837063 -0.0057503 -2.81152e-18)
(0.00868013 -0.00697096 -6.09462e-18)
(0.00954894 -0.00557339 -2.08733e-19)
(9.4651e-06 -0.000152607 1.77962e-18)
(1.30497e-05 -0.00016391 5.46725e-19)
(2.77112e-05 0.000742251 -5.53887e-18)
(-0.000101998 0.000696035 -6.79815e-18)
(-7.47428e-05 0.000952754 1.32554e-18)
(-0.0352183 0.0113763 -1.51806e-17)
(-0.0389024 0.0174118 -1.30774e-17)
(1.86985e-05 -0.000394059 1.27023e-19)
(1.11534e-05 -0.000394312 -1.17468e-18)
(2.4716e-05 -0.000384681 3.86762e-19)
(0.0412272 0.00472358 7.05203e-18)
(0.0425005 0.00766058 8.19749e-18)
(0.0391604 0.00744527 5.70125e-18)
(0.000593922 0.000529417 -1.16204e-19)
(0.000626569 0.00055236 -1.62956e-19)
(5.49263e-06 -0.00010092 9.6683e-19)
(-8.78712e-05 -0.000444117 3.84339e-20)
(-0.000164252 -0.000450924 1.48975e-17)
(-0.000244622 -0.00044274 -8.21366e-18)
(0.00806895 0.00616999 -9.61208e-18)
(0.00771082 0.00754302 -6.23112e-18)
(0.00991129 0.00689538 -7.59565e-18)
(-2.52621e-05 -0.000698117 5.51746e-19)
(-2.26785e-05 -0.000706119 1.45319e-18)
(-3.40682e-05 -0.000641843 2.56985e-18)
(0.00796591 0.00778542 -5.8587e-18)
(0.00809867 0.00646633 2.77252e-18)
(0.00691555 0.00727793 -3.77562e-18)
(2.04596e-05 -7.99218e-06 1.48558e-18)
(2.24449e-05 -2.52375e-05 -3.77804e-19)
(2.59406e-05 -3.18416e-05 9.90558e-19)
(0.000437228 -0.000951863 -1.23882e-19)
(0.000488371 -0.000945313 8.84443e-20)
(0.0427392 -0.0301869 9.57887e-18)
(0.0144206 -0.0327367 6.88902e-17)
(0.00201316 -0.00132939 -2.16699e-18)
(0.00183803 -0.00126554 1.62777e-19)
(0.00186841 -0.00148179 1.31884e-18)
(0.00137292 0.00266129 1.53866e-18)
(0.00118809 0.00281334 4.3585e-19)
(0.00115212 0.0025527 -1.71342e-18)
(-0.308178 0.142228 -2.41518e-17)
(-0.25827 0.170878 -3.59572e-17)
(-0.240198 0.152686 6.0332e-18)
(-1.34696e-05 -0.00103644 5.28136e-18)
(-4.16233e-05 -0.00104614 -4.7498e-19)
(-4.26666e-05 -0.00102438 5.00595e-19)
(-0.00164275 -0.00589753 -8.41368e-18)
(-0.00213782 -0.00646407 -2.69627e-17)
(-0.00124879 -0.00664569 -8.38791e-17)
(-0.00677103 -0.180994 1.02427e-17)
(-0.0206282 -0.212236 -7.66808e-17)
(-0.0388096 -0.189263 -5.0018e-17)
(0.0328558 0.332737 2.45515e-18)
(0.0456223 0.374729 -3.1491e-18)
(0.0805635 0.309188 -2.2282e-18)
(-0.149815 0.137935 2.89828e-18)
(-0.149237 0.103284 2.0581e-17)
(-0.131059 0.0862651 -1.25046e-18)
(5.45098e-06 -0.000132745 -7.3037e-19)
(1.63095e-06 -0.000129891 -2.4191e-18)
(8.33408e-06 -9.52895e-05 -4.17401e-18)
(0.00199622 -0.000208246 9.48429e-18)
(0.00204984 3.43113e-05 -1.75255e-17)
(0.0017742 -0.000282188 -1.7677e-17)
(-0.223897 -0.369796 8.70791e-17)
(-0.248719 -0.383708 8.97384e-17)
(-0.244176 -0.353797 -7.81596e-17)
(-5.33716e-05 -0.000143461 1.0378e-18)
(-5.1402e-05 -0.000272792 2.03654e-18)
(-5.63879e-05 -9.5649e-05 9.73242e-19)
(8.29319e-07 -0.000184441 1.7595e-18)
(4.30597e-06 -0.000185343 6.09461e-19)
(4.1287e-06 -0.000165016 -2.44493e-19)
(0.00224996 -0.000407344 -8.21272e-18)
(0.00199372 -0.000477005 1.70738e-17)
(-0.312721 -0.0336022 -1.43083e-17)
(-0.270356 -0.0185729 1.4576e-17)
(0.00934999 -0.015184 -5.22411e-18)
(0.0115374 -0.0157491 -1.70539e-17)
(-0.000630496 -0.000652215 -3.92746e-18)
(-0.000669549 -0.000746959 -3.23477e-19)
(-0.00059337 -0.000708834 9.87529e-19)
(0.00161901 0.00274794 4.33501e-18)
(-0.0631624 -0.0651272 5.5341e-18)
(-0.0630959 -0.054858 -6.16517e-18)
(-0.054542 -0.0607411 -1.59701e-18)
(-1.63889e-06 -0.000176613 4.33333e-19)
(3.95549e-07 -0.000109566 -3.55262e-19)
(0.0248847 0.0259431 -1.16989e-18)
(0.0221276 0.0236512 6.79245e-19)
(0.0215294 0.0272002 -6.09093e-18)
(0.104935 -0.308967 2.87814e-17)
(0.0710385 -0.296221 -3.00449e-17)
(0.00714967 0.00524606 1.00705e-17)
(0.00855432 0.0045229 3.43311e-17)
(-0.0341113 0.0439436 -8.11249e-18)
(-0.0288944 0.0455306 1.18352e-17)
(-0.0400689 0.0363606 2.18502e-17)
(-0.155145 -0.0531707 -1.16083e-17)
(-0.156534 -0.0652178 1.03309e-18)
(-0.148981 -0.0688774 1.80408e-17)
(-0.155116 -0.035464 -3.56826e-17)
(-0.151277 -0.0382138 -3.95411e-18)
(-0.0050011 -0.00749709 -4.91746e-18)
(-0.00596468 -0.0083079 6.81099e-18)
(-0.00467077 -0.00861178 1.45651e-17)
(-0.27978 -0.223185 3.77135e-17)
(-0.282195 -0.226502 -1.48335e-17)
(2.63563e-05 -0.00043067 5.15042e-19)
(-1.93981e-06 -0.00042814 -3.03892e-19)
(3.27703e-05 -0.000477069 -4.97275e-19)
(-0.160715 0.184589 2.98241e-17)
(-0.14817 0.162503 1.44511e-17)
(0.00196366 -0.0182915 2.15406e-18)
(0.000776255 -0.0168653 -9.83741e-18)
(0.00265108 -0.0167075 2.17871e-17)
(0.000311767 -0.00198953 8.33563e-19)
(0.000377911 -0.002143 2.04179e-18)
(0.000183046 -0.00211914 2.01219e-18)
(6.98303e-06 -0.000172634 -1.01042e-18)
(4.47226e-06 -0.000182918 3.12341e-19)
(-0.0921081 -0.234028 8.69508e-18)
(-0.10969 -0.280054 5.07231e-17)
(-0.12226 -0.24142 3.91634e-17)
(0.00773165 -0.00585399 -1.3251e-17)
(0.00805589 -0.00523908 1.53195e-19)
(0.138171 0.965897 1.21446e-17)
(0.0667174 1.07457 -4.07436e-17)
(0.0104191 1.05802 -5.78142e-18)
(-2.94641e-05 -0.000487301 -2.33866e-18)
(-2.66208e-05 -0.000501652 -9.50262e-19)
(0.0409876 -0.244605 5.24389e-18)
(0.0793621 -0.276095 -1.79817e-18)
(0.0311728 -0.220485 -3.45106e-17)
(-0.237819 -0.389128 3.83273e-17)
(-0.214475 -0.368722 3.61902e-18)
(-0.226371 -0.385965 8.49027e-19)
(0.00763732 0.277092 1.78943e-18)
(-0.0249528 0.331786 5.40697e-18)
(9.30989e-05 -0.000166693 -1.06441e-18)
(9.15538e-05 -0.000173893 3.38211e-19)
(8.37405e-05 -0.000185959 3.59068e-19)
(-4.56495e-05 -0.000178863 -3.00485e-18)
(-5.45252e-05 -3.64464e-06 -6.12356e-19)
(-3.94038e-06 -0.000115433 -2.2638e-18)
(1.49635e-05 6.28049e-06 -3.66738e-19)
(1.15626e-05 4.6572e-06 -1.17239e-18)
(1.06741e-05 6.5001e-05 -2.60191e-18)
(-0.0182833 0.0556732 -9.64702e-18)
(-0.00602207 0.065018 -1.74759e-17)
(0.000533852 -0.0176731 2.85488e-17)
(0.00108745 -0.018111 1.97326e-18)
(-0.00477309 -0.0173109 -4.40196e-17)
(0.17493 0.0194469 3.90997e-17)
(0.17909 0.017477 -2.69685e-18)
(0.178816 0.0151666 -6.45271e-19)
(-1.80934e-05 -0.00104184 3.07235e-18)
(7.41877e-06 -0.00101317 -2.1847e-18)
(-5.77885e-05 -0.0004341 -3.21903e-19)
(-5.67673e-05 -0.000512633 -3.50852e-18)
(-7.68229e-05 -0.000523552 2.11042e-18)
(0.000334412 0.00165467 -8.68478e-19)
(0.00030059 0.00146817 2.23016e-18)
(0.000181179 0.0015555 -5.09743e-19)
(-3.00863e-05 0.000174482 1.30476e-18)
(-2.70222e-05 3.9469e-05 4.51589e-19)
(-3.36086e-05 0.000171768 6.42829e-19)
(-0.038471 0.00228626 -4.51804e-17)
(-0.0441319 -0.00377505 -2.18888e-19)
(-0.0379533 -0.00656683 -5.10049e-17)
(-3.81795e-05 0.000396956 3.70997e-18)
(-3.02335e-05 0.000422282 1.32053e-17)
(-1.37011e-05 0.000408899 8.68021e-18)
(0.141986 -0.333383 -6.26836e-19)
(0.173338 -0.374587 -1.86784e-17)
(0.196274 -0.394536 2.89824e-17)
(0.0280369 0.0278048 -3.09874e-18)
(0.0285526 0.0239227 3.46655e-18)
(-0.0439873 0.196312 -1.70714e-17)
(-0.104016 0.195435 -2.23735e-17)
(-0.0769322 0.216056 -2.11752e-17)
(0.0148469 -0.00324316 -2.53343e-18)
(0.0158558 -0.0022596 2.90352e-18)
(0.0144486 -0.001823 8.65508e-18)
(0.00176613 0.00205965 2.15081e-18)
(0.00191941 0.00226279 1.66998e-18)
(-2.37078e-05 0.00037615 -6.2767e-18)
(-4.24906e-05 0.0002944 -8.51781e-18)
(0.00484774 -0.0212037 1.09132e-17)
(0.00640827 -0.0228898 -1.44337e-17)
(0.00377592 -0.0234494 2.22722e-18)
(0.215375 -0.0017111 -2.96324e-17)
(0.208333 -0.00277148 4.14253e-17)
(0.0625905 0.064648 -1.48544e-18)
(0.0580299 0.0608293 -4.44261e-18)
(0.065276 0.0565161 8.38405e-19)
(0.0684809 0.0707212 4.92e-18)
(0.0586468 0.075374 -3.74604e-18)
(0.00251968 0.000361357 -6.04385e-19)
(0.00247829 0.000546796 3.61839e-18)
(0.00236511 0.000403655 3.69245e-18)
(0.000214726 -0.000564097 -5.55374e-19)
(0.000229799 -0.000501032 -7.53927e-20)
(0.000217523 -0.000580562 -2.67778e-19)
(-8.13782e-05 -0.000226573 6.70324e-18)
(-8.96034e-05 -6.7618e-05 3.31607e-18)
(0.00173782 -0.000920777 -6.05811e-19)
(0.00158765 -0.000899874 2.67869e-18)
(0.00167132 -0.000775784 -2.54046e-18)
(0.00520159 -0.000978694 -4.2626e-18)
(0.00484077 -0.000863819 4.65069e-18)
(0.00490257 -0.00122768 -3.07346e-18)
(-0.0468425 -0.00329806 -3.78064e-18)
(-0.0431168 0.00029302 -1.90071e-17)
(-0.0491274 0.00243055 -2.0519e-17)
(0.121653 0.00248529 -2.65449e-17)
(0.116118 0.0168142 -4.73029e-18)
(0.108257 0.00663776 6.3763e-18)
(0.000296565 0.00188535 -1.4837e-18)
(0.000492677 0.00180355 -1.14777e-18)
(5.82205e-06 -0.000132982 2.8472e-18)
(7.02e-06 -0.000116535 -1.11679e-18)
(0.0152527 -0.0203179 1.6433e-17)
(0.0166604 -0.0209857 1.77004e-17)
(0.0150114 -0.0218023 3.71406e-18)
(-0.39131 -0.00767692 7.5772e-19)
(-0.362073 -0.0234006 -2.89801e-17)
(-0.356704 -0.00650482 3.21957e-18)
(0.00553306 -0.00134303 -2.50605e-18)
(2.50057e-05 -0.000893573 -3.93205e-19)
(-8.13664e-05 -0.000861076 9.5253e-20)
(4.03152e-06 -0.000998574 3.21876e-19)
(0.0186005 0.0171925 7.4047e-18)
(0.0180504 0.0199834 5.49251e-18)
(0.0161439 0.0182007 -4.30742e-19)
(-0.0912417 -0.0718801 -1.80659e-17)
(-0.125752 -0.0684388 4.96696e-17)
(-0.105462 -0.10121 -2.52665e-17)
(-0.00520419 0.0497307 -5.24569e-18)
(-0.00384482 0.0466635 -5.22649e-18)
(0.00161751 0.049783 -6.56434e-17)
(-2.02828e-05 0.000374112 1.69848e-18)
(-2.98976e-05 0.000287141 -3.98109e-18)
(-0.170591 0.19976 -6.06131e-19)
(-0.15615 0.183734 -2.23247e-17)
(0.000207052 -0.000601238 -6.88794e-19)
(0.000228065 -0.000549531 -1.19597e-18)
(-1.80197e-05 0.00040016 2.12861e-18)
(-3.04962e-05 -0.00018287 -2.1051e-18)
(-3.41043e-05 -0.000302561 -2.00985e-18)
(-3.59226e-05 -0.000346978 3.17087e-18)
(0.162149 0.0195995 1.11698e-17)
(0.253327 -0.0191478 -1.47405e-17)
(0.206667 -0.0136189 -2.57256e-17)
(0.00027634 -0.00186931 -2.60247e-18)
(0.000454267 -0.00186697 -1.63538e-18)
(-5.46514e-05 -0.000430636 -1.35993e-18)
(-3.96095e-05 -0.000453513 9.54607e-19)
(-4.19442e-05 -0.000431983 3.14486e-18)
(-2.73353e-05 -0.000429476 3.49747e-19)
(-3.20718e-05 -0.000467425 -7.00267e-18)
(-0.151437 -0.00895545 -3.47972e-18)
(-0.15341 -0.00387528 4.17311e-17)
(-0.152151 0.00667378 1.78878e-17)
(0.011556 -0.0196081 -1.10372e-17)
(0.0103226 -0.0210051 -1.48883e-17)
(-2.26644e-05 -0.000685925 1.25929e-18)
(-1.29216e-05 -0.00070701 9.32958e-19)
(0.0864761 -0.141658 -2.017e-17)
(0.0796115 -0.160719 2.36275e-17)
(-2.62667e-05 -0.000808737 -2.28449e-18)
(6.7639e-07 -0.00073028 -3.97797e-18)
(5.33784e-06 -0.000812075 2.08867e-19)
(0.0200538 0.0217278 4.48335e-18)
(0.0227847 0.0205259 5.62184e-18)
(0.00270291 0.000376503 -1.01887e-18)
(0.00261876 0.000218897 -4.75418e-18)
(0.000492014 0.000363354 -6.78374e-20)
(0.00047715 0.000359934 2.6649e-20)
(0.0153856 -0.00689371 3.72792e-17)
(0.0172989 -0.00634592 2.06141e-17)
(0.0158859 -0.00858371 1.33814e-17)
(0.00106879 0.00039148 3.08192e-19)
(0.0010978 0.000365494 1.15617e-18)
(0.00104896 0.000361472 5.33167e-19)
(-0.158927 -0.354618 -1.09513e-17)
(-0.182864 -0.347433 1.04646e-17)
(0.029615 1.18729 -7.36419e-18)
(-0.0167951 1.27102 -3.7365e-18)
(-0.0622027 1.2288 -2.11121e-18)
(0.00124098 0.000309574 2.23922e-18)
(0.0012499 0.000257693 6.14699e-19)
(0.00117079 0.000282857 1.48507e-18)
(9.01685e-05 -0.000157696 2.22523e-19)
(9.03546e-05 -0.000152669 -8.40805e-19)
(8.16516e-05 -0.000172052 -1.23743e-18)
(-1.59435e-06 0.000318649 2.00877e-20)
(1.11817e-05 0.000204751 4.09784e-19)
(7.38471e-06 0.000210677 2.48484e-19)
(-2.54961e-05 -0.000947145 -3.84896e-18)
(2.45687e-05 -0.000909862 -1.37862e-18)
(0.0316741 0.0422399 6.99698e-18)
(0.0470846 0.0538798 7.77764e-18)
(0.0452704 0.0409191 2.45731e-17)
(0.276694 -0.0861589 7.74348e-17)
(0.274774 -0.104405 -3.43088e-17)
(0.306783 -0.120475 6.1981e-17)
(0.331667 -0.663627 -3.27654e-17)
(0.288495 -0.674484 -2.97425e-17)
(0.328774 -0.645435 -6.14288e-17)
(4.35421e-05 -0.000373528 5.89633e-19)
(3.94794e-05 -0.000361568 -1.62024e-18)
(0.0570055 -0.049281 -2.68732e-17)
(0.0650721 -0.0454798 -1.8416e-17)
(-0.00115267 0.0226678 -1.6218e-17)
(-0.00442474 0.0225033 -1.07841e-17)
(-0.00272493 0.0200712 1.66076e-18)
(0.0219086 -0.00956422 3.44943e-17)
(0.0228887 -0.0137211 9.31906e-18)
(0.0189599 -0.0108829 1.0412e-17)
(-4.8161e-05 -0.000409956 1.2642e-18)
(-4.36875e-05 -0.000368937 -4.87395e-19)
(-3.87515e-05 -0.000512667 -5.4021e-18)
(0.00225328 -0.0010213 3.07807e-18)
(0.00213371 -0.00118426 -2.84222e-18)
(0.0020449 -0.000949216 -1.3721e-18)
(-0.00693277 -0.1882 1.40788e-17)
(0.0525954 -0.252253 -1.15622e-17)
(-0.065803 -0.0458906 -1.18397e-16)
(0.0276932 0.0313712 -1.16812e-17)
(0.0314516 0.0290599 -7.16671e-18)
(-3.63928e-05 0.000395641 -6.10096e-19)
(-1.60495e-05 0.000396037 1.17967e-18)
(-1.86786e-05 -0.000235832 -4.72061e-18)
(-1.86595e-05 -0.000392595 -6.63575e-19)
(-3.92134e-05 -0.000377772 -3.31182e-18)
(0.000100707 -0.000159431 6.53518e-19)
(0.0257035 0.188229 -5.01412e-18)
(-0.0105964 0.166677 -3.08877e-17)
(0.0247848 -0.163134 1.23793e-16)
(-0.00136421 -0.142609 4.88111e-17)
(0.226741 -0.0377394 -3.05226e-17)
(0.166806 -0.0150642 1.10887e-17)
(0.164952 0.838132 1.36086e-17)
(0.267564 0.811652 1.23933e-17)
(0.000427184 -0.000917473 1.25262e-19)
(0.000395259 -0.000854707 2.14077e-19)
(0.000449067 -0.000875015 1.32966e-19)
(0.203822 -0.0305718 -1.82704e-17)
(0.0747782 -0.104433 -8.84961e-18)
(0.276456 -0.107084 -4.53709e-17)
(0.00413819 -0.0122856 -4.8268e-17)
(0.0049954 -0.0121607 -7.30013e-19)
(0.00463062 -0.0115007 -4.80111e-18)
(-0.000346988 3.45198e-05 2.57667e-18)
(-0.000111468 -0.000324076 4.71753e-18)
(-0.000569099 -0.000436535 2.31465e-19)
(0.000573092 0.00086141 2.33101e-19)
(0.000585417 0.000810611 2.92814e-19)
(0.000546777 0.000830658 6.22785e-19)
(-0.000336237 -9.49034e-05 8.37418e-18)
(-0.000336783 -3.56598e-05 -2.96169e-19)
(-0.000321803 -3.42432e-05 7.85949e-18)
(-0.00103515 -0.013913 -2.90419e-18)
(-0.00164378 -0.0146388 8.33993e-17)
(-0.00238338 -0.0143086 2.07781e-16)
(0.000283305 9.52843e-05 8.83352e-19)
(0.000285451 0.000127518 2.64342e-19)
(0.000302848 8.76333e-05 -2.29601e-19)
(1.58993e-06 -0.000597884 -8.0689e-19)
(1.7866e-06 -0.000618585 7.40187e-19)
(-1.92331e-05 0.000604204 1.038e-18)
(-1.79842e-05 0.000589677 -1.13761e-18)
(-1.41238e-05 0.000475406 5.37672e-18)
(-3.01884e-05 -0.000999969 -1.78271e-18)
(-4.05938e-05 -0.000914386 1.77926e-18)
(-8.37692e-06 -0.000947851 3.1652e-19)
(0.000467814 0.000353584 2.07671e-19)
(0.000477897 0.000341487 -1.81204e-19)
(0.000459435 0.000357972 1.00752e-19)
(0.00632205 0.000854214 2.91456e-18)
(0.00670197 0.000344885 9.44142e-18)
(0.0070582 0.000899357 -1.32964e-18)
(0.00305014 0.00126181 1.32967e-18)
(0.00335641 0.00123727 4.89152e-18)
(0.00315158 0.00148696 7.0002e-19)
(-0.0132074 0.000413518 -1.34339e-17)
(-0.0126595 -0.00737974 -5.59565e-19)
(-0.0221895 -0.00282109 1.2316e-17)
(-6.5528e-05 -0.000659206 -9.84659e-19)
(-8.48372e-05 -0.000742537 4.43642e-19)
(-4.94202e-05 -0.000665619 -1.98512e-18)
(0.00192608 -0.00429036 -8.42081e-19)
(0.00200215 -0.00391548 2.58425e-19)
(0.001591 -0.00402972 -4.30716e-18)
(0.00123131 0.000347042 1.9917e-19)
(0.00129469 0.000319755 -1.05957e-18)
(-9.93573e-05 0.00016643 -2.38645e-18)
(-7.5424e-05 8.78692e-05 2.96974e-18)
(-6.47704e-05 8.26466e-05 -1.40064e-18)
(0.0259113 0.0107921 7.14113e-19)
(0.0264624 0.00700897 -1.00971e-18)
(0.0308493 0.00943165 -5.95531e-19)
(0.0145115 -0.0173031 -4.11716e-18)
(-0.39654 -0.0148696 -5.77496e-17)
(-0.39014 0.00166437 -1.83791e-17)
(0.000276652 -2.14879e-05 1.46882e-19)
(0.000267111 -2.2312e-05 4.10745e-19)
(0.000270705 -3.52887e-05 1.55595e-19)
(-0.346272 0.12027 7.11916e-17)
(-0.352332 0.110479 2.45019e-18)
(-0.000587482 -0.000571693 5.72662e-18)
(-0.000654693 -0.000604481 -2.5517e-18)
(-0.0124363 0.00839292 2.99139e-19)
(-0.0148602 0.00948785 1.57844e-19)
(-0.0144441 0.00666108 1.68494e-18)
(0.000501124 -0.000540857 -3.84378e-19)
(0.000540097 -0.000534221 3.66372e-19)
(-0.0510212 -0.00745069 3.35561e-17)
(-0.0449078 -0.00844892 1.40553e-17)
(-6.31483e-05 -0.000296715 2.44858e-18)
(-5.90204e-05 -0.000343025 1.39031e-18)
(0.000956483 -0.00227485 -2.68468e-17)
(0.000557355 -0.00185359 1.70082e-17)
(0.000281476 -0.00256741 1.61694e-18)
(0.00321113 -0.0195758 -5.73094e-18)
(0.00109354 -0.0198586 -2.22291e-17)
(0.000482658 0.000349523 7.6281e-20)
(0.000507844 0.000372581 -1.46288e-20)
(-0.0132069 -0.0236701 -1.17882e-17)
(-0.0141453 -0.0203902 3.98116e-18)
(-0.0165591 -0.0227302 4.79196e-18)
(0.239173 -0.0760113 5.50496e-17)
(0.324017 0.0435677 -4.76961e-17)
(0.202352 0.1487 -8.38232e-18)
(-0.0052984 -0.00665714 -1.83316e-17)
(-0.00442469 -0.00710394 -6.73004e-18)
(2.10925e-05 -0.000454051 1.07193e-18)
(2.47554e-05 -0.000439623 -2.50175e-18)
(1.42711e-05 -0.000449986 -2.93013e-18)
(0.0204693 -0.00203857 -2.02249e-17)
(0.0190876 -0.00322903 -4.77481e-18)
(0.0208757 -0.00426156 2.95159e-18)
(0.172399 0.109556 -3.08813e-18)
(0.143064 0.180117 3.0509e-17)
(0.214114 0.148911 2.47574e-17)
(0.00111345 -0.00188672 1.37916e-17)
(0.000887799 -0.00214211 -3.4006e-17)
(0.000869132 -0.00176149 5.09784e-18)
(0.00152226 -0.00204183 1.35361e-17)
(0.0012056 -0.00147332 -9.77794e-18)
(-0.00862888 -0.0278082 -6.41828e-17)
(-0.00505417 -0.0366822 3.60802e-17)
(-0.0167517 -0.0350596 4.70272e-17)
(0.0474709 0.0451372 1.39948e-18)
(0.045437 0.0511321 -1.04981e-18)
(0.0524238 0.0484565 -5.17507e-18)
(-0.0104566 0.00940259 -1.88165e-18)
(-0.0104382 0.00702801 -2.19357e-18)
(0.00804949 0.00888172 -3.31912e-18)
(0.00913359 0.00785207 6.26742e-18)
(0.0034705 -0.0112449 6.3033e-18)
(0.00206147 -0.012326 7.87094e-18)
(0.000371466 0.000702108 -2.02277e-19)
(0.00036096 0.000732278 -1.25948e-19)
(0.000341025 0.000709075 9.88832e-20)
(0.167801 0.0424736 2.26101e-17)
(0.159049 0.0300246 1.05804e-16)
(0.161059 0.0201558 8.54165e-18)
(0.00028582 6.21785e-05 2.1132e-20)
(0.000276683 0.000102453 1.29223e-20)
(-7.11996e-06 0.000376517 -1.75e-18)
(4.25382e-07 0.000387966 1.09084e-18)
(3.91732e-06 0.000194311 -1.69887e-18)
(0.262935 0.00124857 4.95841e-17)
(0.280828 -0.0151761 -1.32072e-17)
(9.4884e-06 -0.000704825 -4.40009e-18)
(1.86176e-05 -0.00069701 2.83951e-18)
(9.13019e-06 -0.000795633 -2.29534e-18)
(1.17293e-05 -3.47016e-05 2.84419e-18)
(1.90099e-05 1.85541e-05 -3.78625e-19)
(0.0452273 0.0155188 3.97893e-18)
(0.046858 0.0140032 1.20894e-17)
(0.0445018 0.0136334 -2.36648e-17)
(0.0479835 0.0125199 5.01934e-17)
(0.0466836 0.00720205 1.57258e-17)
(0.0529331 0.0081704 9.27982e-18)
(0.000404249 -0.000937997 -2.56864e-19)
(0.00237829 -0.000896103 1.7702e-18)
(0.00245681 -0.00116118 5.19948e-18)
(0.00183326 -0.00470336 -2.30098e-18)
(0.0023112 -0.00448723 3.1565e-18)
(-0.00192053 0.00271394 1.30967e-18)
(-0.00149821 0.0024077 6.34146e-18)
(-0.00164614 0.00298777 3.26464e-19)
(0.00273059 -0.00065834 -8.05658e-19)
(0.00257647 -0.00054544 -1.3155e-18)
(0.0027486 -0.000473206 8.99476e-19)
(-4.28304e-05 -0.000456812 -2.10524e-19)
(-0.00938696 -0.00203465 -6.71664e-18)
(-0.00914704 -0.00289945 2.97626e-18)
(-0.00835608 -0.00210348 -1.85698e-18)
(-0.0163452 -0.0185697 -1.3102e-17)
(-0.0147468 -0.0226369 2.23851e-17)
(-0.0219527 -0.0221533 -1.91023e-17)
(0.000472933 0.000350537 -2.37347e-21)
(0.000445946 0.000348197 -1.47541e-19)
(0.314904 -0.504841 -3.7796e-17)
(0.328473 -0.624768 2.05883e-17)
(0.242776 -0.569506 4.71327e-18)
(-1.17962e-05 -0.000115466 8.20065e-19)
(1.17701e-05 -0.000184805 -4.2993e-19)
(-5.72617e-05 0.000329408 -9.67367e-19)
(-4.42219e-05 0.00043 -1.01045e-18)
(-6.02e-05 0.000338997 -1.59938e-19)
(0.000222843 -3.49579e-06 -4.72841e-20)
(0.000222932 -2.65212e-06 2.07113e-19)
(0.000224767 -6.36141e-06 -3.97427e-19)
(-0.0308116 0.00584186 2.74009e-17)
(-2.28162e-05 -0.000225406 2.75059e-18)
(-2.25075e-05 -0.0003619 1.87569e-18)
(-2.18809e-05 -0.000222675 -9.50145e-19)
(-0.14478 -0.0226571 -4.52834e-17)
(-0.113381 -0.0105718 -4.5788e-17)
(-0.261621 0.0908644 3.83571e-17)
(-0.224484 0.102639 -3.52289e-18)
(-0.220368 0.0504897 -9.95048e-17)
(-4.06048e-05 -0.000244494 5.69691e-19)
(-4.45398e-05 -0.00024905 -1.28309e-19)
(-3.11392e-05 -0.000283656 2.43689e-18)
(-5.80766e-05 -0.000106335 8.54253e-19)
(-6.82615e-05 -0.000250865 -9.5622e-20)
(-0.149818 -0.193897 -7.51085e-17)
(-0.126524 -0.199321 -5.81795e-17)
(-0.132682 -0.170779 3.24909e-17)
(0.000212657 -2.79307e-06 1.85671e-19)
(0.000216329 -1.69309e-06 -2.37384e-19)
(6.23975e-06 -1.84224e-05 -2.35717e-18)
(1.05646e-05 -1.80675e-05 -2.52254e-18)
(8.26667e-06 0.000133859 -2.52715e-18)
(0.000232945 1.32385e-06 2.46636e-19)
(0.000226183 -1.35707e-06 3.83283e-19)
(0.000223377 -3.0923e-06 6.75698e-19)
(-0.28084 0.104259 1.30592e-17)
(-0.248504 0.0621511 5.43673e-17)
(0.0138653 -0.00550065 -4.20256e-19)
(0.0131388 -0.00765499 -3.35159e-18)
(-0.000238534 -0.000202046 2.39055e-18)
(-0.000223424 -0.000168878 -8.99972e-19)
(-0.000252014 -0.000204452 -8.66806e-18)
(0.0228371 0.0186676 -1.81086e-18)
(0.0189711 0.0182893 -2.50832e-18)
(0.0206922 0.0221131 -3.76674e-18)
(0.0400643 0.00221128 2.80778e-18)
(0.038855 -0.000289684 1.40552e-17)
(0.0370062 0.00217361 1.35894e-17)
(0.153584 1.02098 -3.9759e-17)
(0.068634 0.0370391 1.97748e-17)
(0.0412209 0.0400316 1.17102e-18)
(0.0636157 0.0664478 4.61161e-17)
(0.0012747 0.000197985 -6.31948e-19)
(0.00135309 0.00023464 -2.69643e-19)
(-0.446599 -0.344222 1.60464e-18)
(-0.155206 -0.470596 -6.32343e-17)
(-0.559572 -0.64313 -6.15764e-17)
(1.45726e-05 -0.000160752 -3.42243e-20)
(1.07974e-05 -0.000120302 -1.16209e-18)
(1.06176e-05 -0.000162959 3.56132e-19)
(0.12975 0.0640087 -1.14797e-17)
(0.205483 0.0929009 -2.11412e-17)
(0.0461197 -0.0423937 -1.07618e-17)
(0.0131138 -0.0648223 5.37134e-18)
(0.0610154 -0.074022 2.2509e-17)
(0.0909286 -0.457598 -9.57072e-18)
(0.122805 -0.460475 1.45423e-16)
(0.109362 -0.494013 6.80743e-17)
(0.114248 -0.316979 -3.6619e-17)
(0.0447255 0.0424706 6.58888e-18)
(0.0493708 0.0402777 -1.26462e-17)
(0.00238366 0.000721981 1.16898e-18)
(0.00254925 0.000727969 -3.06483e-20)
(0.00894202 -0.0135354 -1.66315e-17)
(0.00761263 -0.0145369 -6.36057e-18)
(0.00300195 0.000987192 1.79136e-18)
(0.00278169 0.00123212 -3.35154e-18)
(0.000563708 0.000894169 -1.01743e-19)
(0.000556159 0.000915489 -3.74181e-19)
(0.000518531 0.000889876 -2.95779e-19)
(0.00123333 0.000547973 2.02509e-19)
(0.00133348 0.00056387 -6.57669e-19)
(0.00124154 0.000653708 -6.5895e-19)
(0.0244258 0.0151785 5.33023e-19)
(0.02188 0.0113158 -2.12339e-18)
(-0.000228741 -0.000290307 -2.32578e-18)
(-0.000150266 -0.000308038 -1.31937e-17)
(-5.97004e-05 9.74301e-06 5.08571e-19)
(-6.44358e-05 7.73815e-05 -3.25285e-18)
(2.86178e-06 -3.68789e-05 2.11009e-18)
(3.04287e-07 -2.14477e-05 -6.84563e-19)
(6.30275e-07 -2.32197e-05 9.70189e-19)
(0.000282223 -2.81438e-06 -5.09963e-20)
(0.000284033 -2.91951e-05 -4.17332e-19)
(-1.53806e-06 5.1599e-05 1.09532e-19)
(-9.32899e-06 4.3223e-05 4.09485e-20)
(-2.73702e-05 6.39093e-05 2.61972e-19)
(0.000497538 0.00036996 -1.75588e-20)
(0.0735181 0.0851141 1.98433e-17)
(0.0651932 0.0807532 1.69254e-17)
(0.0519539 0.0860175 6.07574e-18)
(8.99728e-05 -0.000193429 1.02061e-18)
(9.85927e-05 -0.000204014 -2.03859e-18)
(9.66684e-05 -0.000187556 -1.22162e-18)
(0.000474521 -0.000467243 1.0475e-18)
(0.000442456 -0.000426037 1.5962e-19)
(0.000443595 -0.000471386 5.80787e-20)
(-2.27104e-05 5.36286e-05 -1.5149e-20)
(-1.86781e-05 4.80262e-05 -1.38511e-19)
(-3.30167e-05 6.42084e-05 1.95432e-19)
(1.39881e-05 -0.000408499 3.22655e-20)
(3.36833e-05 -0.000381557 3.23621e-19)
(-0.0432942 -0.0623314 -1.13624e-17)
(-0.0329598 -0.0520572 -3.64516e-17)
(-0.0268855 -0.0747534 -2.34852e-17)
(-0.00993492 0.0485484 3.99762e-17)
(-0.0096982 0.0571474 3.67479e-18)
(-0.00292619 -0.00314437 7.02025e-18)
(-0.0024809 -0.00310401 -1.55119e-17)
(-0.00269106 -0.00374202 4.46216e-17)
(-0.00014673 0.000290959 5.71047e-18)
(-0.000138389 0.000222268 -2.06893e-18)
(-0.000226142 0.000264075 -3.22004e-20)
(0.0209434 0.0164126 2.66205e-18)
(0.0190783 0.0149414 1.57687e-18)
(2.15317e-05 2.65468e-05 6.65656e-19)
(-0.00593564 0.250404 1.80631e-18)
(-0.0205945 0.217943 2.9226e-18)
(-0.0418097 0.247182 2.33101e-18)
(0.0894259 0.0602051 1.19679e-16)
(0.118263 0.0539625 -4.05982e-17)
(-2.58677e-05 -0.000482677 2.3e-18)