/*--------------------------------*- C++ -*----------------------------------*\
| =========                 |                                                 |
| \\      /  F ield         | OpenFOAM: The Open Source CFD Toolbox           |
|  \\    /   O peration     | Version:  v2012                                 |
|   \\  /    A nd           | Website:  www.openfoam.com                      |
|    \\/     M anipulation  |                                                 |
\*---------------------------------------------------------------------------*/
FoamFile
{
    version     2.0;
    format      ascii;
    class       pointVectorField;
    location    "550";
    object      pointDisplacement;
}
// * * * * * * * * * * * * * * * * * * * * * * * * * * * * * * * * * * * * * //

dimensions      [0 1 0 0 0 0 0];


internalField   nonuniform List<vector> 
10232
(
(0 0 0)
(-0 -6.06078e-05 -0)
(-0 -6.06078e-05 -0)
(-0 -6.06078e-05 -0)
(-0 -6.06078e-05 -0)
(0 0 0)
(-0 -6.06078e-05 -0)
(-0 -6.06078e-05 -0)
(-0 -6.06078e-05 -0)
(-0 -6.06078e-05 -0)
(0 0 0)
(0 0 0)
(0 0 0)
(0 0 0)
(0 0 0)
(0 0 0)
(0 0 0)
(0 0 0)
(0 0 0)
(0 0 0)
(0 0 0)
(0 0 0)
(0 0 0)
(0 0 0)
(0 0 0)
(0 0 0)
(0 0 0)
(0 0 0)
(0 0 0)
(0 0 0)
(0 0 0)
(0 0 0)
(0 0 0)
(0 0 0)
(0 0 0)
(0 0 0)
(0 0 0)
(0 0 0)
(0 0 0)
(0 0 0)
(0 0 0)
(0 0 0)
(0 0 0)
(0 0 0)
(0 0 0)
(0 0 0)
(0 0 0)
(0 0 0)
(0 0 0)
(0 0 0)
(0 0 0)
(0 0 0)
(0 0 0)
(0 0 0)
(0 0 0)
(0 0 0)
(0 0 0)
(0 0 0)
(0 0 0)
(0 0 0)
(0 0 0)
(0 0 0)
(0 0 0)
(0 0 0)
(0 0 0)
(0 0 0)
(0 0 0)
(0 0 0)
(0 0 0)
(0 0 0)
(0 0 0)
(0 0 0)
(0 0 0)
(0 0 0)
(0 0 0)
(0 0 0)
(0 0 0)
(0 0 0)
(0 0 0)
(0 0 0)
(0 0 0)
(0 0 0)
(0 0 0)
(0 0 0)
(-0 -6.06078e-05 -0)
(-0 -6.06078e-05 -0)
(-0 -6.06078e-05 -0)
(-0 -6.06078e-05 -0)
(-0 -6.06078e-05 -0)
(-0 -6.06078e-05 -0)
(-0 -6.06078e-05 -0)
(-0 -6.06078e-05 -0)
(-0 -6.06078e-05 -0)
(-0 -6.06078e-05 -0)
(-0 -6.06078e-05 -0)
(-0 -6.06078e-05 -0)
(-0 -6.06078e-05 -0)
(-0 -6.06078e-05 -0)
(-0 -6.06078e-05 -0)
(-0 -6.06078e-05 -0)
(-0 -6.06078e-05 -0)
(-0 -6.06078e-05 -0)
(-0 -6.06078e-05 -0)
(-0 -6.06078e-05 -0)
(-0 -6.06078e-05 -0)
(-0 -6.06078e-05 -0)
(-0 -6.06078e-05 -0)
(-0 -6.06078e-05 -0)
(-0 -6.06078e-05 -0)
(-0 -6.06078e-05 -0)
(-0 -6.06078e-05 -0)
(-0 -6.06078e-05 -0)
(-0 -6.06078e-05 -0)
(-0 -6.06078e-05 -0)
(-0 -6.06078e-05 -0)
(-0 -6.06078e-05 -0)
(-0 -6.06078e-05 -0)
(-0 -6.06078e-05 -0)
(-0 -6.06078e-05 -0)
(-0 -6.06078e-05 -0)
(-0 -6.06078e-05 -0)
(-0 -6.06078e-05 -0)
(-0 -6.06078e-05 -0)
(-0 -6.06078e-05 -0)
(-0 -6.06078e-05 -0)
(-0 -6.06078e-05 -0)
(-0 -6.06078e-05 -0)
(-0 -6.06078e-05 -0)
(-0 -6.06078e-05 -0)
(-0 -6.06078e-05 -0)
(-0 -6.06078e-05 -0)
(-0 -6.06078e-05 -0)
(-0 -6.06078e-05 -0)
(-0 -6.06078e-05 -0)
(-0 -6.06078e-05 -0)
(-0 -6.06078e-05 -0)
(-0 -6.06078e-05 -0)
(-0 -6.06078e-05 -0)
(-0 -6.06078e-05 -0)
(-0 -6.06078e-05 -0)
(-0 -6.06078e-05 -0)
(-0 -6.06078e-05 -0)
(-0 -6.06078e-05 -0)
(-0 -6.06078e-05 -0)
(-0 -6.06078e-05 -0)
(-0 -6.06078e-05 -0)
(-0 -6.06078e-05 -0)
(-0 -6.06078e-05 -0)
(-0 -6.06078e-05 -0)
(-0 -6.06078e-05 -0)
(-0 -6.06078e-05 -0)
(-0 -6.06078e-05 -0)
(-0 -6.06078e-05 -0)
(-0 -6.06078e-05 -0)
(-0 -6.06078e-05 -0)
(-0 -6.06078e-05 -0)
(-0 -6.06078e-05 -0)
(-0 -6.06078e-05 -0)
(-0 -6.06078e-05 -0)
(-0 -6.06078e-05 -0)
(-0 -6.06078e-05 -0)
(-0 -6.06078e-05 -0)
(-0 -6.06078e-05 -0)
(-0 -6.06078e-05 -0)
(-0 -6.06078e-05 -0)
(-0 -6.06078e-05 -0)
(-0 -6.06078e-05 -0)
(-0 -6.06078e-05 -0)
(-0 -6.06078e-05 -0)
(-0 -6.06078e-05 -0)
(-0 -6.06078e-05 -0)
(-0 -6.06078e-05 -0)
(-0 -6.06078e-05 -0)
(-0 -6.06078e-05 -0)
(-0 -6.06078e-05 -0)
(-0 -6.06078e-05 -0)
(-0 -6.06078e-05 -0)
(-0 -6.06078e-05 -0)
(-0 -6.06078e-05 -0)
(-0 -6.06078e-05 -0)
(-0 -6.06078e-05 -0)
(-0 -6.06078e-05 -0)
(-0 -6.06078e-05 -0)
(-0 -6.06078e-05 -0)
(-0 -6.06078e-05 -0)
(-0 -6.06078e-05 -0)
(-0 -6.06078e-05 -0)
(-0 -6.06078e-05 -0)
(-0 -6.06078e-05 -0)
(-0 -6.06078e-05 -0)
(-0 -6.06078e-05 -0)
(-0 -6.06078e-05 -0)
(-0 -6.06078e-05 -0)
(-0 -6.06078e-05 -0)
(-0 -6.06078e-05 -0)
(-0 -6.06078e-05 -0)
(-0 -6.06078e-05 -0)
(-0 -6.06078e-05 -0)
(-0 -6.06078e-05 -0)
(-0 -6.06078e-05 -0)
(0 0 0)
(0 0 0)
(0 0 0)
(0 0 0)
(0 0 0)
(0 0 0)
(0 0 0)
(0 0 0)
(0 0 0)
(0 0 0)
(0 0 0)
(0 0 0)
(0 0 0)
(0 0 0)
(0 0 0)
(0 0 0)
(0 0 0)
(0 0 0)
(0 0 0)
(0 0 0)
(0 0 0)
(0 0 0)
(0 0 0)
(0 0 0)
(0 0 0)
(0 0 0)
(0 0 0)
(0 0 0)
(0 0 0)
(0 0 0)
(0 0 0)
(0 0 0)
(0 0 0)
(0 0 0)
(0 0 0)
(0 0 0)
(0 0 0)
(0 0 0)
(0 0 0)
(0 0 0)
(0 0 0)
(0 0 0)
(0 0 0)
(0 0 0)
(0 0 0)
(0 0 0)
(0 0 0)
(0 0 0)
(0 0 0)
(0 0 0)
(0 0 0)
(0 0 0)
(0 0 0)
(0 0 0)
(0 0 0)
(0 0 0)
(0 0 0)
(0 0 0)
(0 0 0)
(0 0 0)
(0 0 0)
(0 0 0)
(0 0 0)
(0 0 0)
(0 0 0)
(0 0 0)
(0 0 0)
(0 0 0)
(0 0 0)
(0 0 0)
(0 0 0)
(0 0 0)
(0 0 0)
(0 0 0)
(-0 -6.06078e-05 -0)
(-0 -6.06078e-05 -0)
(-0 -6.06078e-05 -0)
(-0 -6.06078e-05 -0)
(-0 -6.06078e-05 -0)
(-0 -6.06078e-05 -0)
(-0 -6.06078e-05 -0)
(-0 -6.06078e-05 -0)
(-0 -6.06078e-05 -0)
(-0 -6.06078e-05 -0)
(-0 -6.06078e-05 -0)
(-0 -6.06078e-05 -0)
(-0 -6.06078e-05 -0)
(-0 -6.06078e-05 -0)
(-0 -6.06078e-05 -0)
(-0 -6.06078e-05 -0)
(-0 -6.06078e-05 -0)
(-0 -6.06078e-05 -0)
(-0 -6.06078e-05 -0)
(-0 -6.06078e-05 -0)
(-0 -6.06078e-05 -0)
(-0 -6.06078e-05 -0)
(-0 -6.06078e-05 -0)
(-0 -6.06078e-05 -0)
(-0 -6.06078e-05 -0)
(-0 -6.06078e-05 -0)
(-0 -6.06078e-05 -0)
(-0 -6.06078e-05 -0)
(-0 -6.06078e-05 -0)
(-0 -6.06078e-05 -0)
(-0 -6.06078e-05 -0)
(-0 -6.06078e-05 -0)
(-0 -6.06078e-05 -0)
(-0 -6.06078e-05 -0)
(-0 -6.06078e-05 -0)
(-0 -6.06078e-05 -0)
(-0 -6.06078e-05 -0)
(-0 -6.06078e-05 -0)
(-0 -6.06078e-05 -0)
(-0 -6.06078e-05 -0)
(-0 -6.06078e-05 -0)
(-0 -6.06078e-05 -0)
(-0 -6.06078e-05 -0)
(-0 -6.06078e-05 -0)
(-0 -6.06078e-05 -0)
(-0 -6.06078e-05 -0)
(-0 -6.06078e-05 -0)
(-0 -6.06078e-05 -0)
(-0 -6.06078e-05 -0)
(-0 -6.06078e-05 -0)
(-0 -6.06078e-05 -0)
(-0 -6.06078e-05 -0)
(-0 -6.06078e-05 -0)
(-0 -6.06078e-05 -0)
(-0 -6.06078e-05 -0)
(-0 -6.06078e-05 -0)
(-0 -6.06078e-05 -0)
(-0 -6.06078e-05 -0)
(-0 -6.06078e-05 -0)
(-0 -6.06078e-05 -0)
(-0 -6.06078e-05 -0)
(-0 -6.06078e-05 -0)
(-0 -6.06078e-05 -0)
(-0 -6.06078e-05 -0)
(-0 -6.06078e-05 -0)
(-0 -6.06078e-05 -0)
(-0 -6.06078e-05 -0)
(-0 -6.06078e-05 -0)
(-0 -6.06078e-05 -0)
(-0 -6.06078e-05 -0)
(-0 -6.06078e-05 -0)
(-0 -6.06078e-05 -0)
(-0 -6.06078e-05 -0)
(-0 -6.06078e-05 -0)
(-0 -6.06078e-05 -0)
(-0 -6.06078e-05 -0)
(-0 -6.06078e-05 -0)
(-0 -6.06078e-05 -0)
(-0 -6.06078e-05 -0)
(-0 -6.06078e-05 -0)
(-0 -6.06078e-05 -0)
(-0 -6.06078e-05 -0)
(-0 -6.06078e-05 -0)
(-0 -6.06078e-05 -0)
(-0 -6.06078e-05 -0)
(-0 -6.06078e-05 -0)
(-0 -6.06078e-05 -0)
(-0 -6.06078e-05 -0)
(-0 -6.06078e-05 -0)
(-0 -6.06078e-05 -0)
(-0 -6.06078e-05 -0)
(-0 -6.06078e-05 -0)
(-0 -6.06078e-05 -0)
(-0 -6.06078e-05 -0)
(-0 -6.06078e-05 -0)
(-0 -6.06078e-05 -0)
(-0 -6.06078e-05 -0)
(-0 -6.06078e-05 -0)
(-0 -6.06078e-05 -0)
(-0 -6.06078e-05 -0)
(-0 -6.06078e-05 -0)
(-0 -6.06078e-05 -0)
(-0 -6.06078e-05 -0)
(-0 -6.06078e-05 -0)
(-0 -6.06078e-05 -0)
(-0 -6.06078e-05 -0)
(-0 -6.06078e-05 -0)
(-0 -6.06078e-05 -0)
(-0 -6.06078e-05 -0)
(-0 -6.06078e-05 -0)
(-0 -6.06078e-05 -0)
(-0 -6.06078e-05 -0)
(-0 -6.06078e-05 -0)
(-0 -6.06078e-05 -0)
(-0 -6.06078e-05 -0)
(-0 -6.06078e-05 -0)
(0 -6.0584e-05 0)
(0 -6.05943e-05 0)
(0 -6.05962e-05 0)
(0 -6.05354e-05 0)
(0 -6.05979e-05 0)
(0 -6.06107e-05 0)
(0 -6.06042e-05 0)
(0 -6.05948e-05 0)
(0 -6.06059e-05 0)
(0 -6.06001e-05 0)
(0 -6.05903e-05 0)
(0 -6.061e-05 0)
(0 -6.05619e-05 0)
(0 -6.05822e-05 0)
(0 3.68122e-05 0)
(0 9.95299e-05 0)
(0 1.57846e-05 0)
(0 0.000138856 0)
(0 6.88596e-05 0)
(0 0.00018425 0)
(0 -6.05895e-05 0)
(0 -6.05952e-05 0)
(0 6.64151e-05 0)
(0 -6.05746e-05 0)
(0 -6.05913e-05 0)
(0 4.08469e-05 0)
(0 6.74896e-05 0)
(0 6.01619e-05 0)
(0 2.75402e-05 0)
(0 -6.05943e-05 0)
(0 -6.06016e-05 0)
(0 -6.06051e-05 0)
(0 -6.06008e-05 0)
(0 -6.05996e-05 0)
(0 -6.06019e-05 0)
(0 3.25473e-05 0)
(0 9.28986e-06 0)
(0 0.000172746 0)
(0 0.000134707 0)
(0 9.55518e-05 0)
(0 3.85119e-05 0)
(0 1.58043e-05 0)
(0 -6.0587e-05 0)
(0 -6.05625e-05 0)
(0 -6.05902e-05 0)
(0 -6.05935e-05 0)
(0 -6.06105e-05 0)
(0 -6.06002e-05 0)
(0 1.64689e-05 0)
(0 1.21221e-05 0)
(0 0.000170641 0)
(0 0.000103636 0)
(0 4.28428e-05 0)
(0 6.03986e-05 0)
(0 6.98893e-05 0)
(0 4.03243e-05 0)
(0 1.79839e-05 0)
(0 3.54803e-05 0)
(0 5.13113e-06 0)
(0 0.0013363 0)
(0 0.00136406 0)
(0 0.00127931 0)
(0 0.00130723 0)
(0 0.00122509 0)
(0 0.00125374 0)
(0 0.00117553 0)
(0 0.00120416 0)
(0 0.00112982 0)
(0 0.00115866 0)
(0 0.0010873 0)
(0 0.00111715 0)
(0 0.00104823 0)
(0 0.00107812 0)
(0 0.0010123 0)
(0 0.00097993 0)
(0 0.00094862 0)
(0 0.000980821 0)
(0 0.0009214 0)
(0 0.000953655 0)
(0 0.000899839 0)
(0 0.000914011 0)
(0 0.00127755 0)
(0 0.000929858 0)
(0 0.000879092 0)
(0 0.000909326 0)
(0 0.000859485 0)
(0 0.000891027 0)
(0 0.000844702 0)
(0 0.000810609 0)
(0 0.000800517 0)
(0 0.000764189 0)
(0 0.000757966 0)
(0 0.000792798 0)
(0 0.00075498 0)
(0 0.000720496 0)
(0 0.000939442 0)
(0 0.000788931 0)
(0 0.000756529 0)
(0 0.000788624 0)
(0 0.000759577 0)
(0 0.000789201 0)
(0 0.000762763 0)
(0 0.000788756 0)
(0 0.000766158 0)
(0 0.000738703 0)
(0 0.000747894 0)
(0 0.000719133 0)
(0 0.000733737 0)
(0 0.000703483 0)
(0 0.000722393 0)
(0 0.000689713 0)
(0 0.000712549 0)
(0 0.000672601 0)
(0 0.000703914 0)
(0 0.000668145 0)
(0 0.000698933 0)
(0 0.000659287 0)
(0 0.000698694 0)
(0 0.000665273 0)
(0 0.000704633 0)
(0 0.00067252 0)
(0 0.000715813 0)
(0 0.000744561 0)
(0 0.000760159 0)
(0 0.000785267 0)
(0 0.000805126 0)
(0 0.000758173 0)
(0 0.000826702 0)
(0 0.000850358 0)
(0 0.000868009 0)
(0 0.000894878 0)
(0 0.000908339 0)
(0 0.000684473 0)
(0 0.000936638 0)
(0 0.000946344 0)
(0 0.000973662 0)
(0 0.000980263 0)
(0 0.00100536 0)
(0 0.00100651 0)
(0 0.000928408 0)
(0 0.000636228 0)
(0 0.00102932 0)
(0 0.00102534 0)
(0 0.00100607 0)
(0 0.00102211 0)
(0 0.00104646 0)
(0 0.00100563 0)
(0 0.00101993 0)
(0 0.00100193 0)
(0 0.00101469 0)
(0 0.000992995 0)
(0 0.00100301 0)
(0 0.00178743 0)
(0 0.00178029 0)
(0 0.0017569 0)
(0 0.00174821 0)
(0 0.00172632 0)
(0 0.00171643 0)
(0 0.000978054 0)
(0 0.000985046 0)
(0 0.00101056 0)
(0 0.000989775 0)
(0 0.00101194 0)
(0 0.00169459 0)
(0 0.00168148 0)
(0 0.00124769 0)
(0 0.00165742 0)
(0 0.000989109 0)
(0 0.00100783 0)
(0 0.00105357 0)
(0 0.00107126 0)
(0 0.000958009 0)
(0 0.000981169 0)
(0 0.000996751 0)
(0 0.000965168 0)
(0 0.000976989 0)
(0 0.00164184 0)
(0 0.00161665 0)
(0 0.00165698 0)
(0 0.000940462 0)
(0 0.00094735 0)
(0 0.00161717 0)
(0 0.00162571 0)
(0 0.000905493 0)
(0 0.00094852 0)
(0 0.00158572 0)
(0 0.00158913 0)
(0 0.000909011 0)
(0 0.000862405 0)
(0 0.000814153 0)
(0 0.000948785 0)
(0 0.00154791 0)
(0 0.00154621 0)
(0 0.000910676 0)
(0 0.000946287 0)
(0 0.00150734 0)
(0 0.00149916 0)
(0 0.0015074 0)
(0 0.00090948 0)
(0 0.000940811 0)
(0 0.0014646 0)
(0 0.00144999 0)
(0 0.00161947 0)
(0 0.00158021 0)
(0 0.000905395 0)
(0 0.000934056 0)
(0 0.000950632 0)
(0 0.00093081 0)
(0 0.000922594 0)
(0 0.000904692 0)
(0 0.000895149 0)
(0 0.000878694 0)
(0 0.000867575 0)
(0 0.000852214 0)
(0 0.000841523 0)
(0 0.000826305 0)
(0 0.000818537 0)
(0 0.000800753 0)
(0 0.000799241 0)
(0 0.000799871 0)
(0 0.000776457 0)
(0 0.00078109 0)
(0 0.000752738 0)
(0 0.000759182 0)
(0 0.00141871 0)
(0 0.00139832 0)
(0 0.00143206 0)
(0 0.00137435 0)
(0 0.00140727 0)
(0 0.00134516 0)
(0 0.00137636 0)
(0 0.00131214 0)
(0 0.00134214 0)
(0 0.00127443 0)
(0 0.00130242 0)
(0 0.00123287 0)
(0 0.00125963 0)
(0 0.00118846 0)
(0 0.00116219 0)
(0 0.0011183 0)
(0 0.00114244 0)
(0 0.00107095 0)
(0 0.0010932 0)
(0 0.00102161 0)
(0 0.00104373 0)
(0 0.000973927 0)
(0 0.000995946 0)
(0 0.000926445 0)
(0 0.00094793 0)
(0 0.000879162 0)
(0 0.000900786 0)
(0 0.000832399 0)
(0 0.000854464 0)
(0 0.000786772 0)
(0 0.000809601 0)
(0 0.000742002 0)
(0 0.000720548 0)
(0 0.000676732 0)
(0 0.000698004 0)
(0 0.000633846 0)
(0 0.00065517 0)
(0 0.000592418 0)
(0 0.000572533 0)
(0 0.000532811 0)
(0 0.000514474 0)
(0 0.000551942 0)
(0 0.000494312 0)
(0 0.000512489 0)
(0 0.00045724 0)
(0 0.000474987 0)
(0 0.000421581 0)
(0 0.000439012 0)
(0 0.000388138 0)
(0 0.000355938 0)
(0 0.00034188 0)
(0 0.000905707 0)
(0 0.000400825 0)
(0 0.00033685 0)
(0 0.000379566 0)
(0 0.000447823 0)
(0 0.000426511 0)
(0 0.000359909 0)
(0 0.000407703 0)
(0 0.000343022 0)
(0 0.000392242 0)
(0 0.000328509 0)
(0 0.000380058 0)
(0 0.000318224 0)
(0 0.000371315 0)
(0 0.000311943 0)
(0 0.000363596 0)
(0 0.000308313 0)
(0 0.000440759 0)
(0 0.000358063 0)
(0 0.00030637 0)
(0 0.000356226 0)
(0 0.000303849 0)
(0 0.000357286 0)
(0 0.000305671 0)
(0 0.000361393 0)
(0 0.000311707 0)
(0 0.000418291 0)
(0 0.000367845 0)
(0 0.000318992 0)
(0 0.000377175 0)
(0 0.000330027 0)
(0 0.000389806 0)
(0 0.000344192 0)
(0 0.000404875 0)
(0 0.000360544 0)
(0 0.000302437 0)
(0 0.000320912 0)
(0 0.000266718 0)
(0 0.000285068 0)
(0 0.000229992 0)
(0 0.000255172 0)
(0 0.000211182 0)
(0 0.000234458 0)
(0 0.00019239 0)
(0 0.000214746 0)
(0 0.000167863 0)
(0 0.000194799 0)
(0 0.000155583 0)
(0 0.000179384 0)
(0 0.000143664 0)
(0 0.000167219 0)
(0 0.000132921 0)
(0 0.000156691 0)
(0 0.000120173 0)
(0 0.000147952 0)
(0 0.000118448 0)
(0 0.000144765 0)
(0 0.000116238 0)
(0 0.000142707 0)
(0 0.00011461 0)
(0 0.000140014 0)
(0 0.000113567 0)
(0 0.000138289 0)
(0 0.00011339 0)
(0 0.000137719 0)
(0 0.000114277 0)
(0 0.000138942 0)
(0 0.000116445 0)
(0 0.000169832 0)
(0 0.000141309 0)
(0 0.000119949 0)
(0 0.000242113 0)
(0 0.000145096 0)
(0 0.000124636 0)
(0 0.000100814 0)
(0 0.000106368 0)
(0 0.000149869 0)
(0 8.3782e-05 0)
(0 9.02289e-05 0)
(0 0.000499259 0)
(0 6.86659e-05 0)
(0 7.56014e-05 0)
(0 0.000377237 0)
(0 0.000454376 0)
(0 0.000163077 0)
(0 9.03379e-05 0)
(0 5.48453e-05 0)
(0 6.07486e-05 0)
(0 0.000265905 0)
(0 8.49597e-05 0)
(0 7.39303e-05 0)
(0 9.64715e-05 0)
(0 8.51992e-05 0)
(0 6.39291e-05 0)
(0 7.53442e-05 0)
(0 5.46653e-05 0)
(0 6.73157e-05 0)
(0 0.000250269 0)
(0 4.72419e-05 0)
(0 6.13771e-05 0)
(0 4.16538e-05 0)
(0 5.67563e-05 0)
(0 3.56535e-05 0)
(0 5.32867e-05 0)
(0 3.5558e-05 0)
(0 5.28808e-05 0)
(0 3.63665e-05 0)
(0 5.56139e-05 0)
(0 3.51397e-05 0)
(0 5.9627e-05 0)
(0 7.48172e-05 0)
(0 0.000174887 0)
(0 9.76868e-05 0)
(0 4.21352e-05 0)
(0 6.58771e-05 0)
(0 8.44887e-05 0)
(0 9.23083e-05 0)
(0 0.000111124 0)
(0 0.000121512 0)
(0 0.00108907 0)
(0 0.000101807 0)
(0 0.000139872 0)
(0 0.000153717 0)
(0 0.000878538 0)
(0 2.79071e-05 0)
(0 4.97643e-05 0)
(0 0.000174372 0)
(0 0.000189665 0)
(0 0.00131508 0)
(0 0.00106446 0)
(0 0.000214098 0)
(0 0.000229292 0)
(0 0.000724703 0)
(0 0.000727806 0)
(0 0.000897816 0)
(0 0.000927604 0)
(0 0.000861449 0)
(0 0.000255717 0)
(0 0.00024363 0)
(0 0.000272466 0)
(0 0.00156989 0)
(0 0.00153138 0)
(0 0.000167485 0)
(0 0.000694004 0)
(0 0.000699535 0)
(0 0.00068568 0)
(0 2.03207e-05 0)
(0 0.000300157 0)
(0 0.000318626 0)
(0 0.000664416 0)
(0 0.00067212 0)
(0 0.000888917 0)
(0 0.000923787 0)
(0 0.00108141 0)
(0 2.80091e-05 0)
(0 3.60141e-05 0)
(0 0.00151034 0)
(0 0.00147319 0)
(0 0.00110056 0)
(0 1.56932e-05 0)
(0 2.38162e-05 0)
(0 5.31775e-06 0)
(0 1.33563e-05 0)
(0 -2.74996e-06 0)
(0 5.15528e-06 0)
(0 -9.7251e-06 0)
(0 -1.58048e-06 0)
(0 1.4584e-05 0)
(0 8.40116e-06 0)
(0 2.61098e-05 0)
(0 2.03806e-05 0)
(0 3.267e-06 0)
(0 3.99544e-05 0)
(0 1.57442e-05 0)
(0 -3.73876e-07 0)
(0 1.21681e-05 0)
(0 -2.35416e-06 0)
(0 -1.63813e-05 0)
(0 9.78011e-06 0)
(0 -3.72587e-06 0)
(0 8.66436e-06 0)
(0 -4.44613e-06 0)
(0 1.05184e-05 0)
(0 -4.73499e-06 0)
(0 0.000346364 0)
(0 0.000368251 0)
(0 0.000637113 0)
(0 0.000647725 0)
(0 0.000681992 0)
(0 0.000662903 0)
(0 0.00088179 0)
(0 0.000921201 0)
(0 0.00111336 0)
(0 0.00113391 0)
(0 -1.62189e-05 0)
(0 -1.62141e-05 0)
(0 -4.7884e-06 0)
(0 -1.5661e-05 0)
(0 0.000626113 0)
(0 0.000647971 0)
(0 0.000688777 0)
(0 0.000680871 0)
(0 0.00072685 0)
(0 0.000733285 0)
(0 0.000777711 0)
(0 0.00078944 0)
(0 0.000743498 0)
(0 0.000803076 0)
(0 0.000852823 0)
(0 0.000871157 0)
(0 0.000917541 0)
(0 0.00093932 0)
(0 0.000890587 0)
(0 0.000959162 0)
(0 0.00100462 0)
(0 0.00102383 0)
(0 0.00106678 0)
(0 0.00108413 0)
(0 0.00112761 0)
(0 0.00114316 0)
(0 0.00118909 0)
(0 0.00120448 0)
(0 0.00115281 0)
(0 0.00121553 0)
(0 0.0012709 0)
(0 0.00128699 0)
(0 0.00134361 0)
(0 0.00136717 0)
(0 0.0014227 0)
(0 0.000908799 0)
(0 0.00139157 0)
(0 0.000394521 0)
(0 0.000420766 0)
(0 0.000845224 0)
(0 -1.42828e-05 0)
(0 0.00144041 0)
(0 0.00140628 0)
(0 0.00143581 0)
(0 0.00136996 0)
(0 0.00139544 0)
(0 0.0013308 0)
(0 0.00135658 0)
(0 0.0012923 0)
(0 0.00131909 0)
(0 0.00125574 0)
(0 0.00132963 0)
(0 0.000609566 0)
(0 2.26342e-05 0)
(0 0.000444794 0)
(0 0.000474661 0)
(0 -3.74261e-06 0)
(0 -1.45206e-05 0)
(0 0.00049755 0)
(0 0.000530196 0)
(0 0.000552408 0)
(0 -2.60906e-05 0)
(0 0.000587451 0)
(0 0.000609477 0)
(0 0.000874874 0)
(0 0.000854877 0)
(0 0.000807352 0)
(0 0.000792711 0)
(0 0.000743601 0)
(0 0.000722871 0)
(0 0.000674381 0)
(0 0.000651017 0)
(0 0.000604845 0)
(0 0.000629594 0)
(0 0.000561025 0)
(0 0.000587968 0)
(0 0.00051502 0)
(0 0.000541681 0)
(0 0.000582515 0)
(0 0.000626837 0)
(0 0.00114887 0)
(0 0.00116937 0)
(0 0.00115861 0)
(0 0.00128041 0)
(0 0.00121803 0)
(0 0.000831659 0)
(0 0.000809137 0)
(0 0.000377787 0)
(0 4.8812e-05 0)
(0 0.000646182 0)
(0 0.00110481 0)
(0 0.000463724 0)
(0 0.000485897 0)
(0 0.000668654 0)
(0 0.00136032 0)
(0 0.00125443 0)
(0 0.00114453 0)
(0 0.000289045 0)
(0 0.000451351 0)
(0 -1.92983e-06 0)
(0 -1.24894e-05 0)
(0 -2.4512e-05 0)
(0 -2.12179e-05 0)
(0 -1.01577e-05 0)
(0 0.00017196 0)
(0 0.000176201 0)
(0 0.000200459 0)
(0 0.000204198 0)
(0 0.000230345 0)
(0 0.000234171 0)
(0 0.000261833 0)
(0 0.000265707 0)
(0 0.00029501 0)
(0 0.000299177 0)
(0 0.000329658 0)
(0 0.00032697 0)
(0 0.000334865 0)
(0 0.000305772 0)
(0 0.000362539 0)
(0 0.000362237 0)
(0 0.0003445 0)
(0 0.000315442 0)
(0 0.000398568 0)
(0 0.000400996 0)
(0 0.000355151 0)
(0 0.000326936 0)
(0 0.000832342 0)
(0 0.000821767 0)
(0 9.9648e-06 0)
(0 0.000668795 0)
(0 0.00070601 0)
(0 0.000560292 0)
(0 0.000600925 0)
(0 0.00118654 0)
(0 0.00115737 0)
(0 0.00120432 0)
(0 0.00085166 0)
(0 0.000406524 0)
(0 0.000423617 0)
(0 0.00082092 0)
(0 0.000774266 0)
(0 0.00139191 0)
(0 0.000438066 0)
(0 0.000442485 0)
(0 0.000728265 0)
(0 0.000766508 0)
(0 0.000365916 0)
(0 0.000340897 0)
(0 0.000535833 0)
(0 0.00057268 0)
(0 0.00034755 0)
(0 0.000361231 0)
(0 0.00124003 0)
(0 0.00129349 0)
(0 0.00117724 0)
(0 0.00114575 0)
(0 0.00129965 0)
(0 0.00122346 0)
(0 0.000638643 0)
(0 0.00110267 0)
(0 0.00125225 0)
(0 0.000786358 0)
(0 0.000826348 0)
(0 0.000798101 0)
(0 -3.17317e-05 0)
(0 -2.1502e-05 0)
(0 -2.81754e-05 0)
(0 -1.64404e-05 0)
(0 -2.36406e-05 0)
(0 -7.92737e-06 0)
(0 -1.81161e-05 0)
(0 -3.65527e-06 0)
(0 -1.23971e-05 0)
(0 -2.49351e-05 0)
(0 -1.90725e-05 0)
(0 -5.61754e-06 0)
(0 -1.2419e-05 0)
(0 -2.46841e-05 0)
(0 -1.8403e-05 0)
(0 -2.97231e-05 0)
(0 -2.37606e-05 0)
(0 -1.11711e-05 0)
(0 -1.64711e-05 0)
(0 -2.832e-05 0)
(0 -2.10782e-05 0)
(0 -8.09443e-06 0)
(0 -1.3e-05 0)
(0 -2.50529e-05 0)
(0 -1.72013e-05 0)
(0 -2.82388e-05 0)
(0 -2.06044e-05 0)
(0 -3.06411e-05 0)
(0 -2.28894e-05 0)
(0 -3.23567e-05 0)
(0 -2.41812e-05 0)
(0 -3.34021e-05 0)
(0 -2.47388e-05 0)
(0 -3.36354e-05 0)
(0 -2.47362e-05 0)
(0 -3.42921e-05 0)
(0 -2.38937e-05 0)
(0 -3.15959e-05 0)
(0 -1.42269e-05 0)
(0 -2.17129e-05 0)
(0 -2.88753e-05 0)
(0 -1.86417e-05 0)
(0 -2.56278e-05 0)
(0 1.49118e-06 0)
(0 -1.32953e-05 0)
(0 -2.82149e-06 0)
(0 -3.46297e-05 0)
(0 -3.12991e-05 0)
(0 -3.91455e-05 0)
(0 -3.57308e-05 0)
(0 -4.26595e-05 0)
(0 -3.94315e-05 0)
(0 -4.54864e-05 0)
(0 -4.23357e-05 0)
(0 -4.80926e-05 0)
(0 -4.44295e-05 0)
(0 -4.87921e-05 0)
(0 -4.58359e-05 0)
(0 -4.9801e-05 0)
(0 -4.68819e-05 0)
(0 -5.06277e-05 0)
(0 -4.7717e-05 0)
(0 -5.12774e-05 0)
(0 -4.83903e-05 0)
(0 -5.1787e-05 0)
(0 -4.90382e-05 0)
(0 -5.22054e-05 0)
(0 -4.94439e-05 0)
(0 -5.24348e-05 0)
(0 -4.97188e-05 0)
(0 -5.24771e-05 0)
(0 -4.98404e-05 0)
(0 -5.25199e-05 0)
(0 -4.99014e-05 0)
(0 -5.30208e-05 0)
(0 -5.0063e-05 0)
(0 -5.26174e-05 0)
(0 -4.66946e-05 0)
(0 -4.98876e-05 0)
(0 -5.23039e-05 0)
(0 -4.93968e-05 0)
(0 -5.19747e-05 0)
(0 -4.35158e-05 0)
(0 -4.89017e-05 0)
(0 -5.15219e-05 0)
(0 -3.82314e-05 0)
(0 -4.82946e-05 0)
(0 -5.08734e-05 0)
(0 -4.62665e-05 0)
(0 -4.75664e-05 0)
(0 -5.02045e-05 0)
(0 -2.70405e-05 0)
(0 -4.43116e-05 0)
(0 -4.66043e-05 0)
(0 -4.93733e-05 0)
(0 -5.35671e-05 0)
(0 0.000843162 0)
(0 0.000885428 0)
(0 0.000841245 0)
(0 0.00082577 0)
(0 -3.7307e-05 0)
(0 -4.53446e-05 0)
(0 -4.81892e-05 0)
(0 0.000508462 0)
(0 0.000538538 0)
(0 0.000294193 0)
(0 0.0010622 0)
(0 0.00101659 0)
(0 -5.49807e-05 0)
(0 0.000384636 0)
(0 0.000474091 0)
(0 -5.17671e-05 0)
(0 -5.06737e-05 0)
(0 -3.68838e-05 0)
(0 -5.47292e-05 0)
(0 0.000760182 0)
(0 0.000713538 0)
(0 0.000961684 0)
(0 0.00158693 0)
(0 0.000480422 0)
(0 0.000486499 0)
(0 0.000448183 0)
(0 0.00049449 0)
(0 0.000455836 0)
(0 0.000504503 0)
(0 0.000465994 0)
(0 0.000517289 0)
(0 0.000478948 0)
(0 0.000533249 0)
(0 0.000494407 0)
(0 0.000551626 0)
(0 0.000590358 0)
(0 0.00061042 0)
(0 0.000574073 0)
(0 0.000642844 0)
(0 0.000600133 0)
(0 0.000665538 0)
(0 0.000628833 0)
(0 0.000697927 0)
(0 0.000662142 0)
(0 0.000733438 0)
(0 0.000699902 0)
(0 0.000776362 0)
(0 0.000742096 0)
(0 0.00082546 0)
(0 0.000790674 0)
(0 0.000881829 0)
(0 0.000850426 0)
(0 0.000946138 0)
(0 0.000913397 0)
(0 0.00064948 0)
(0 0.000852701 0)
(0 0.000380505 0)
(0 0.000358219 0)
(0 0.00073531 0)
(0 0.00132901 0)
(0 0.000306271 0)
(0 0.000367644 0)
(0 0.000883194 0)
(0 0.000898905 0)
(0 0.000942435 0)
(0 0.000625029 0)
(0 0.000475519 0)
(0 0.00114716 0)
(0 0.000250882 0)
(0 0.00122669 0)
(0 0.000396761 0)
(0 -4.05018e-05 0)
(0 -5.40828e-05 0)
(0 0.000737544 0)
(0 3.67244e-05 0)
(0 3.07925e-05 0)
(0 0.000474264 0)
(0 0.000496091 0)
(0 -4.66926e-05 0)
(0 -4.92759e-05 0)
(0 0.000297307 0)
(0 0.000544253 0)
(0 0.000969224 0)
(0 0.000924918 0)
(0 0.00129784 0)
(0 0.00125789 0)
(0 -5.36883e-05 0)
(0 -4.80832e-05 0)
(0 0.000842704 0)
(0 0.000825143 0)
(0 0.000814053 0)
(0 0.000864252 0)
(0 0.000318838 0)
(0 0.000339172 0)
(0 0.000378202 0)
(0 0.000361413 0)
(0 0.000323331 0)
(0 0.000347945 0)
(0 0.000311087 0)
(0 0.000338272 0)
(0 -5.22611e-05 0)
(0 0.000516821 0)
(0 0.000519394 0)
(0 0.000314596 0)
(0 0.000369968 0)
(0 0.000561749 0)
(0 0.000696799 0)
(0 0.000652848 0)
(0 4.61085e-05 0)
(0 6.21965e-05 0)
(0 0.000302478 0)
(0 0.00033248 0)
(0 0.00109727 0)
(0 0.000662111 0)
(0 0.00043221 0)
(0 0.000450823 0)
(0 0.000987204 0)
(0 0.00125175 0)
(0 0.000513996 0)
(0 0.000469814 0)
(0 0.000405102 0)
(0 0.000426374 0)
(0 -4.46785e-05 0)
(0 -4.73053e-05 0)
(0 0.00114304 0)
(0 0.00111665 0)
(0 0.000865473 0)
(0 0.000893485 0)
(0 0.000812368 0)
(0 0.000805257 0)
(0 0.000235852 0)
(0 0.000953369 0)
(0 0.000996658 0)
(0 0.00087216 0)
(0 0.000834012 0)
(0 0.000908198 0)
(0 0.000514088 0)
(0 0.00096528 0)
(0 0.000202344 0)
(0 2.07651e-05 0)
(0 1.49095e-05 0)
(0 0.000805902 0)
(0 0.000668268 0)
(0 0.00061069 0)
(0 0.000400894 0)
(0 0.000427691 0)
(0 0.00172069 0)
(0 0.000566806 0)
(0 0.000809042 0)
(0 0.000828595 0)
(0 0.000559636 0)
(0 0.000368651 0)
(0 0.000365578 0)
(0 0.000989402 0)
(0 0.00104309 0)
(0 0.00129631 0)
(0 0.00125882 0)
(0 0.000207837 0)
(0 0.00176285 0)
(0 0.0012205 0)
(0 0.00122361 0)
(0 0.000356671 0)
(0 0.000382302 0)
(0 0.000319776 0)
(0 0.000894638 0)
(0 0.000925777 0)
(0 0.000587894 0)
(0 0.000548058 0)
(0 2.56456e-05 0)
(0 1.01498e-05 0)
(0 0.00102229 0)
(0 0.000652351 0)
(0 0.00133654 0)
(0 -4.2097e-05 0)
(0 -3.87544e-05 0)
(0 -4.47736e-05 0)
(0 -4.95506e-05 0)
(0 0.00116405 0)
(0 0.000453497 0)
(0 0.000412042 0)
(0 0.000337336 0)
(0 0.000369806 0)
(0 0.000297232 0)
(0 0.00132813 0)
(0 -4.69169e-05 0)
(0 -5.12085e-05 0)
(0 -4.17363e-05 0)
(0 0.000974393 0)
(0 6.89369e-05 0)
(0 8.71765e-05 0)
(0 0.00102783 0)
(0 0.00100073 0)
(0 8.10283e-05 0)
(0 0.000107957 0)
(0 0.000102715 0)
(0 0.000131621 0)
(0 0.000137653 0)
(0 0.000163587 0)
(0 0.000169907 0)
(0 0.000198715 0)
(0 0.000127278 0)
(0 0.000204408 0)
(0 0.000236462 0)
(0 0.000241967 0)
(0 0.000276595 0)
(0 0.000282851 0)
(0 0.000317838 0)
(0 0.0003268 0)
(0 0.0003671 0)
(0 0.00127352 0)
(0 0.000294 0)
(0 0.000330197 0)
(0 -4.80331e-05 0)
(0 -5.24228e-05 0)
(0 -5.4466e-05 0)
(0 -5.53437e-05 0)
(0 -5.33874e-05 0)
(0 -5.5953e-05 0)
(0 -5.38282e-05 0)
(0 -5.62129e-05 0)
(0 -5.38998e-05 0)
(0 -5.61616e-05 0)
(0 -5.36612e-05 0)
(0 -5.57869e-05 0)
(0 -5.30766e-05 0)
(0 -5.509e-05 0)
(0 -5.2114e-05 0)
(0 -5.41398e-05 0)
(0 -5.67669e-05 0)
(0 0.000232089 0)
(0 0.000775417 0)
(0 0.00074423 0)
(0 0.000186887 0)
(0 0.000768284 0)
(0 0.00100554 0)
(0 0.000373726 0)
(0 0.000416995 0)
(0 6.13435e-06 0)
(0 0.000850038 0)
(0 0.000402353 0)
(0 0.000401526 0)
(0 0.00055409 0)
(0 0.000602108 0)
(0 0.000801842 0)
(0 0.000798473 0)
(0 0.000267693 0)
(0 2.16908e-05 0)
(0 6.42377e-06 0)
(0 0.000639668 0)
(0 0.000158817 0)
(0 0.00017452 0)
(0 0.000732708 0)
(0 0.000752844 0)
(0 0.000127665 0)
(0 0.000423305 0)
(0 0.000468486 0)
(0 0.000475878 0)
(0 0.000522997 0)
(0 0.0002628 0)
(0 0.00080453 0)
(0 0.00104012 0)
(0 0.00109358 0)
(0 -5.08571e-05 0)
(0 -5.29664e-05 0)
(0 -5.57318e-05 0)
(0 -5.46034e-05 0)
(0 -5.69159e-05 0)
(0 -5.58324e-05 0)
(0 -4.82137e-05 0)
(0 -5.7866e-05 0)
(0 -5.67962e-05 0)
(0 0.00151059 0)
(0 0.000517512 0)
(0 0.00048104 0)
(0 0.000925654 0)
(0 0.000959014 0)
(0 0.000625292 0)
(0 0.00096493 0)
(0 0.000490728 0)
(0 0.000962835 0)
(0 0.00136508 0)
(0 0.00134969 0)
(0 1.77202e-05 0)
(0 3.66947e-06 0)
(0 -5.4688e-05 0)
(0 -5.57733e-05 0)
(0 -5.7537e-05 0)
(0 -5.66678e-05 0)
(0 -5.45856e-05 0)
(0 -5.54934e-05 0)
(0 -5.76023e-05 0)
(0 -5.63688e-05 0)
(0 0.00144079 0)
(0 0.000633867 0)
(0 0.000666207 0)
(0 0.00078471 0)
(0 0.000709899 0)
(0 0.000589351 0)
(0 0.000637625 0)
(0 -5.38844e-05 0)
(0 -5.48456e-05 0)
(0 -5.70726e-05 0)
(0 -5.57178e-05 0)
(0 0.000919331 0)
(0 0.000965687 0)
(0 1.39122e-05 0)
(0 1.33887e-06 0)
(0 1.13145e-05 0)
(0 -9.10444e-07 0)
(0 9.36474e-06 0)
(0 -2.88397e-06 0)
(0 8.04718e-06 0)
(0 -3.92153e-06 0)
(0 7.44017e-06 0)
(0 -7.13583e-06 0)
(0 0.000530665 0)
(0 0.000580623 0)
(0 0.000910177 0)
(0 0.000884107 0)
(0 0.000133585 0)
(0 0.000151559 0)
(0 0.00162788 0)
(0 -4.90023e-05 0)
(0 -5.29329e-05 0)
(0 -5.39592e-05 0)
(0 -5.64804e-05 0)
(0 -5.48626e-05 0)
(0 -5.70715e-05 0)
(0 -5.55415e-05 0)
(0 0.000816941 0)
(0 0.000233444 0)
(0 -5.78766e-05 0)
(0 0.000112703 0)
(0 0.00101445 0)
(0 0.000807381 0)
(0 0.000795076 0)
(0 0.00151178 0)
(0 0.0014465 0)
(0 0.000253835 0)
(0 0.000293987 0)
(0 0.000368678 0)
(0 0.000337613 0)
(0 -5.08667e-05 0)
(0 0.000610204 0)
(0 0.0012366 0)
(0 0.000586895 0)
(0 0.00144145 0)
(0 0.00138016 0)
(0 0.00138548 0)
(0 0.00132231 0)
(0 0.00132962 0)
(0 0.00126847 0)
(0 0.00127581 0)
(0 0.0012181 0)
(0 0.00120802 0)
(0 0.00122396 0)
(0 0.00117262 0)
(0 0.000229059 0)
(0 0.000261002 0)
(0 0.000227366 0)
(0 -5.74281e-05 0)
(0 0.00164549 0)
(0 0.00025915 0)
(0 0.000305596 0)
(0 0.000770561 0)
(0 0.000131014 0)
(0 -4.57043e-06 0)
(0 7.28329e-06 0)
(0 0.00014424 0)
(0 0.000171193 0)
(0 0.000513209 0)
(0 0.000559921 0)
(0 0.000380376 0)
(0 0.000351594 0)
(0 0.000438655 0)
(0 0.000440105 0)
(0 0.000403976 0)
(0 0.000445291 0)
(0 0.00044077 0)
(0 0.00117775 0)
(0 0.000639387 0)
(0 0.000642934 0)
(0 -4.52039e-06 0)
(0 0.000679096 0)
(0 0.000654892 0)
(0 0.00170057 0)
(0 0.000247659 0)
(0 0.0013822 0)
(0 0.00136132 0)
(0 0.000244159 0)
(0 0.000954153 0)
(0 0.000405885 0)
(0 -5.79092e-05 0)
(0 -5.43879e-05 0)
(0 0.000595814 0)
(0 0.000646661 0)
(0 0.000550449 0)
(0 0.000273319 0)
(0 0.000317542 0)
(0 0.000219832 0)
(0 -1.81145e-06 0)
(0 0.000893978 0)
(0 0.000723338 0)
(0 0.000638566 0)
(0 0.0011865 0)
(0 0.00130072 0)
(0 0.000995167 0)
(0 -4.01111e-05 0)
(0 0.000656813 0)
(0 0.000392478 0)
(0 0.000356161 0)
(0 0.000283205 0)
(0 0.000319007 0)
(0 -3.47151e-05 0)
(0 0.000241298 0)
(0 0.00012152 0)
(0 0.000263044 0)
(0 0.000409178 0)
(0 0.000792776 0)
(0 0.000813097 0)
(0 0.000764428 0)
(0 0.00085157 0)
(0 0.000732018 0)
(0 -5.80203e-05 0)
(0 0.000706498 0)
(0 0.00100577 0)
(0 0.00100916 0)
(0 0.00141271 0)
(0 0.00136777 0)
(0 0.00138847 0)
(0 0.00133965 0)
(0 0.000299492 0)
(0 0.00144815 0)
(0 -1.28476e-05 0)
(0 2.06664e-05 0)
(0 2.119e-05 0)
(0 7.77171e-06 0)
(0 2.23481e-05 0)
(0 0.000434912 0)
(0 0.000478291 0)
(0 0.000601673 0)
(0 0.000515315 0)
(0 0.000625456 0)
(0 0.000539382 0)
(0 0.000433397 0)
(0 0.000460508 0)
(0 0.000366429 0)
(0 0.000551283 0)
(0 0.000697485 0)
(0 0.000699955 0)
(0 -1.49008e-05 0)
(0 -6.5307e-06 0)
(0 -1.96779e-06 0)
(0 8.15867e-06 0)
(0 1.3473e-05 0)
(0 2.53558e-05 0)
(0 3.067e-05 0)
(0 2.05307e-05 0)
(0 3.97307e-05 0)
(0 3.55258e-05 0)
(0 5.64153e-05 0)
(0 5.38889e-05 0)
(0 8.0008e-05 0)
(0 7.52853e-05 0)
(0 0.000268253 0)
(0 5.18886e-05 0)
(0 7.44701e-05 0)
(0 9.03612e-06 0)
(0 2.43287e-05 0)
(0 0.00138176 0)
(0 -5.83604e-05 0)
(0 0.000812184 0)
(0 0.000975879 0)
(0 0.00108806 0)
(0 0.00088884 0)
(0 5.95126e-05 0)
(0 0.000907821 0)
(0 0.0011707 0)
(0 5.18032e-05 0)
(0 7.52921e-05 0)
(0 0.00124391 0)
(0 0.00037033 0)
(0 0.000320014 0)
(0 0.000428094 0)
(0 0.000524669 0)
(0 0.000562481 0)
(0 0.000592974 0)
(0 1.36213e-05 0)
(0 -1.44329e-06 0)
(0 9.6058e-05 0)
(0 -3.85694e-05 0)
(0 -4.25758e-05 0)
(0 -4.52108e-05 0)
(0 -4.84367e-05 0)
(0 -5.03151e-05 0)
(0 -5.26394e-05 0)
(0 -5.40681e-05 0)
(0 -5.57408e-05 0)
(0 -5.43219e-05 0)
(0 -5.66979e-05 0)
(0 -5.5206e-05 0)
(0 -5.7449e-05 0)
(0 -5.61257e-05 0)
(0 -5.80358e-05 0)
(0 -5.68294e-05 0)
(0 -5.70954e-05 0)
(0 -5.62962e-05 0)
(0 -4.67605e-05 0)
(0 -5.85752e-05 0)
(0 -5.84848e-05 0)
(0 -5.73716e-05 0)
(0 2.20648e-06 0)
(0 0.000834168 0)
(0 0.000904575 0)
(0 0.00070174 0)
(0 0.000672007 0)
(0 0.000724263 0)
(0 -5.58776e-05 0)
(0 -5.76954e-05 0)
(0 -4.71106e-05 0)
(0 0.000729206 0)
(0 0.000311867 0)
(0 0.000718111 0)
(0 0.00055679 0)
(0 0.000480209 0)
(0 0.000518689 0)
(0 0.000571379 0)
(0 0.000886643 0)
(0 0.000254702 0)
(0 0.000654631 0)
(0 0.000708753 0)
(0 0.00105974 0)
(0 0.000469979 0)
(0 0.000523874 0)
(0 0.000539814 0)
(0 0.000597994 0)
(0 0.000583861 0)
(0 0.000662423 0)
(0 0.000650417 0)
(0 0.000614951 0)
(0 0.000732173 0)
(0 0.000721885 0)
(0 1.23575e-05 0)
(0 2.58516e-05 0)
(0 2.88043e-05 0)
(0 4.40072e-05 0)
(0 6.01623e-05 0)