/*--------------------------------*- C++ -*----------------------------------*\
| =========                 |                                                 |
| \\      /  F ield         | OpenFOAM: The Open Source CFD Toolbox           |
|  \\    /   O peration     | Version:  v2012                                 |
|   \\  /    A nd           | Website:  www.openfoam.com                      |
|    \\/     M anipulation  |                                                 |
\*---------------------------------------------------------------------------*/
FoamFile
{
    version     2.0;
    format      ascii;
    class       volVectorField;
    location    "100";
    object      ddtCorrDdt0(U);
}
// * * * * * * * * * * * * * * * * * * * * * * * * * * * * * * * * * * * * * //

dimensions      [0 1 -2 0 0 0 0];


internalField   nonuniform List<vector> 
9793
(
(-0.0483119 -0.0425381 -5.34182e-18)
(-0.00648162 0.00815454 -4.43064e-21)
(-0.056426 -0.039634 -6.98565e-18)
(-0.000168617 6.29656e-05 -1.32115e-19)
(0.129009 -0.106831 -5.41837e-20)
(0.00403414 0.00505052 -1.09226e-19)
(0.000100776 2.95857e-05 -7.62117e-19)
(-0.000196257 0.000530814 -3.922e-20)
(4.18705e-05 -0.00133194 -3.01549e-19)
(0.138711 -0.0940429 -6.72127e-19)
(0.0169236 -0.0232913 -5.5047e-18)
(0.0560392 0.0162606 4.79967e-19)
(-0.000157719 5.72624e-05 2.25546e-19)
(-0.000432342 -0.00216214 6.44202e-19)
(0.000100535 1.14653e-06 4.84791e-19)
(-0.000758904 -0.00181152 9.77717e-20)
(-0.00390104 -0.00520866 -5.71837e-19)
(-0.00490089 -0.00594263 -4.60212e-19)
(-0.0405036 -0.00910177 -4.15835e-18)
(-0.000755022 -0.00207658 -5.01661e-19)
(0.00726996 0.0672765 7.53553e-19)
(-0.0077132 -0.0012183 -1.22522e-18)
(0.0291157 0.0549485 -5.30714e-19)
(0.000379468 0.000438222 3.25169e-20)
(-0.00297595 -0.00492091 3.72813e-19)
(-0.000160235 4.02712e-05 -3.61358e-20)
(-0.00150435 -0.00159581 1.06311e-18)
(-0.000307222 -0.00368374 -5.06428e-19)
(-0.00101618 -0.0280443 -4.68552e-19)
(-4.66045e-05 -0.00129511 3.5945e-19)
(0.0201274 0.00888341 -1.08725e-19)
(0.0276615 0.047371 3.6947e-19)
(0.0397201 0.0013131 2.96605e-18)
(6.61971e-05 -1.22801e-06 -3.9459e-19)
(-0.00384278 -0.0312821 3.65537e-19)
(-0.142796 0.1324 -4.76198e-18)
(9.34644e-05 2.17794e-05 2.79295e-19)
(-0.0077192 -0.000519302 -8.27676e-21)
(-0.000538981 0.00102576 2.45456e-19)
(0.000171796 -3.48463e-05 -1.02142e-19)
(0.0198024 0.00684959 4.03069e-19)
(0.000155994 8.6358e-08 -5.00575e-19)
(-0.000171355 2.08823e-05 2.63961e-19)
(0.000129154 2.8809e-05 6.25673e-19)
(-0.000190087 1.90094e-05 1.67909e-19)
(-0.000157828 3.80183e-05 -1.91037e-19)
(-0.000844187 -0.0297533 1.95619e-18)
(0.0187092 -0.0219721 6.61497e-20)
(0.0382691 -0.0243568 1.07155e-18)
(-0.000168405 6.66327e-05 7.02034e-20)
(-0.00396354 -0.0330503 -6.58496e-19)
(0.0151871 -0.028057 3.67964e-18)
(0.00216833 0.0066944 -6.38312e-19)
(-0.00138114 -0.00158423 -2.23292e-19)
(0.0149856 -0.0591209 -2.58994e-19)
(-0.0616954 0.184687 -1.33982e-18)
(-5.20328e-05 -0.000413334 -7.02877e-19)
(0.0325848 -0.0210844 -8.73468e-18)
(0.0714092 0.0148261 2.73774e-18)
(-0.000418456 0.000957403 -1.85714e-20)
(0.000129443 -1.70163e-05 -4.93151e-20)
(-0.000372863 0.00688051 2.77131e-19)
(0.0697486 -0.014226 9.15009e-20)
(-0.000292838 -7.29817e-06 -2.12702e-19)
(0.173843 -0.0216768 -1.55798e-18)
(0.0488956 -0.00305463 -1.32546e-18)
(0.07079 -0.0163174 5.2685e-20)
(0.0584955 -0.0280338 2.07618e-19)
(0.0518369 0.0140144 2.52694e-20)
(0.015055 -0.023694 4.48013e-18)
(0.013317 -0.0594764 -1.9166e-18)
(-0.000166817 1.12224e-05 -1.61811e-20)
(7.17585e-05 0.000434222 -9.52931e-20)
(-0.0147081 0.0109339 6.49399e-20)
(-0.00608534 -0.0359728 -9.49134e-20)
(0.0836898 0.00151367 -8.66787e-19)
(-0.000100914 -0.000478509 8.044e-19)
(0.000123536 0.0033914 -1.50926e-19)
(0.00678016 -0.00256279 6.03524e-19)
(0.00138853 -0.0042906 4.32639e-19)
(0.0448324 -0.00010507 -7.17477e-20)
(0.00715739 0.000232576 -4.83419e-19)
(-0.0112952 0.00813924 -3.23917e-21)
(0.0198084 -0.00420562 1.31592e-18)
(0.0167942 0.00682669 -7.95604e-19)
(0.0193014 -0.0165842 -3.05971e-19)
(0.00131887 -0.00504335 -1.03187e-18)
(-0.000170217 -0.000542728 -4.24805e-19)
(-0.000179119 0.00544391 -1.2113e-19)
(0.00742194 0.00282996 -2.84792e-22)
(-0.00485949 -0.000843359 -8.24879e-20)
(0.125767 0.0037131 1.86729e-18)
(0.000462863 0.00139312 -5.84726e-21)
(0.035152 0.0351067 -1.93527e-19)
(-0.000629792 0.00611957 -2.96142e-19)
(0.0210834 -0.00193592 -7.75597e-19)
(-0.0429972 0.146994 -6.26496e-19)
(-0.00928523 0.0048415 2.42898e-20)
(0.000344653 0.0011817 1.39359e-18)
(0.000934649 0.00036714 -7.51922e-20)
(0.000949111 0.000271092 -1.57712e-18)
(0.0038113 0.00538548 -4.642e-19)
(-0.000813289 -0.000137812 6.33583e-20)
(-0.000675698 -0.00018598 -2.46738e-19)
(-0.000198274 0.00295867 1.50462e-19)
(0.016213 0.00516638 7.51304e-19)
(-0.000535194 0.00492713 2.30181e-19)
(0.000231072 -1.50426e-05 3.84993e-19)
(0.00166346 0.00595371 8.37953e-19)
(0.0203349 -0.0328715 -1.53355e-18)
(-0.00016238 1.5165e-05 1.87678e-20)
(0.052023 0.0446623 -6.55213e-19)
(-4.31308e-05 -0.00028868 -2.10254e-19)
(-0.146813 0.217426 4.41885e-18)
(0.013628 -0.0297332 -2.44798e-18)
(-6.17298e-05 -0.000467762 -2.87407e-19)
(0.0398129 -0.0635503 2.70942e-18)
(-0.00882273 -0.0355283 6.30292e-20)
(0.00817479 -0.000134094 4.50887e-19)
(0.034643 0.0261188 1.19363e-19)
(0.0248595 -0.030479 3.01779e-18)
(-6.63464e-06 5.67277e-06 -3.19155e-20)
(-0.000537404 -0.000388872 8.70852e-20)
(0.00491249 0.00535459 2.21303e-19)
(-0.00201676 -0.00286372 -2.81257e-18)
(0.0266129 0.0602697 -6.87963e-20)
(0.0146514 -0.0101765 9.53466e-18)
(0.0224195 -0.0131287 -2.84061e-19)
(0.0076076 -0.00331429 -7.33602e-19)
(-0.000326581 0.000248473 -1.5928e-20)
(-0.000176222 2.11667e-05 -1.2588e-19)
(-0.000125781 -0.000535564 8.30018e-19)
(-0.000320931 0.000276424 -2.23727e-19)
(-0.000186412 0.0066656 -3.23466e-19)
(-2.56084e-05 -0.00116962 1.5389e-18)
(-0.000254418 -0.000606968 -1.31713e-18)
(-0.000297364 -6.59558e-06 -2.82865e-19)
(0.000150459 2.94088e-05 -9.18281e-20)
(-6.7102e-05 -0.000270023 -3.75895e-19)
(-0.000325271 -0.000121535 -6.88447e-19)
(-0.000522241 -0.00035446 -8.76056e-19)
(-0.00386718 -0.00382859 -1.431e-18)
(-7.02149e-05 3.36967e-05 -6.39295e-20)
(0.0013144 -0.000142022 -2.95142e-19)
(-0.000367638 -0.0024882 4.01025e-19)
(-0.000629265 -0.0032817 1.70308e-19)
(-0.0146951 0.0365989 -1.42788e-19)
(0.00134433 -2.7006e-06 -1.15631e-19)
(-0.000160282 0.000917646 1.44266e-18)
(0.0804494 -0.0352685 -5.49171e-20)
(-0.178898 -0.225458 4.22001e-19)
(-0.00018168 2.12368e-05 6.80295e-20)
(-0.176767 -0.276538 3.78606e-19)
(0.124413 -0.112937 -4.3863e-19)
(-0.000175108 0.000748291 -9.59806e-19)
(-9.63452e-05 4.33676e-06 4.34724e-20)
(-0.000375443 -2.91008e-05 -6.54052e-19)
(-0.00380537 -0.00321158 5.80014e-20)
(0.00114713 0.000105079 -2.38998e-19)
(-6.32171e-05 3.6486e-05 8.71234e-20)
(-0.000202205 0.000617249 1.32466e-18)
(-0.000831424 -0.00361448 -4.51638e-19)
(-0.00108627 -0.0010151 -1.54076e-18)
(-0.0432733 -0.00213199 -1.54226e-18)
(-0.0147118 0.0232035 9.51511e-20)
(-0.033123 0.0871201 -2.16011e-18)
(0.0202155 -0.0210871 -1.24871e-18)
(-0.00896984 -0.0103608 1.81482e-18)
(-0.00136839 -0.00136527 -4.96279e-19)
(0.00248985 0.00368769 1.34443e-18)
(0.000888037 -0.000754233 -1.15924e-19)
(-0.00238414 0.206949 -7.62108e-19)
(-0.0139181 0.0241728 1.09458e-19)
(-0.00470837 0.221342 6.60327e-18)
(-0.00153771 -0.00271756 3.33175e-19)
(-0.0478434 -0.0100656 2.7491e-18)
(-0.000202553 -0.000598877 1.59099e-20)
(4.83539e-05 0.000446937 -1.03172e-19)
(-0.000261267 0.000423901 8.8426e-20)
(0.000945716 -0.0135686 3.16274e-18)
(0.0809951 -0.0234205 -2.09394e-17)
(0.000959822 -0.00384461 8.24493e-18)
(0.00114222 0.000232392 -4.22473e-19)
(-0.00305804 -0.00420156 1.35374e-18)
(0.0660924 -0.119889 2.8072e-18)
(4.7705e-05 0.000380545 9.86565e-20)
(0.0346945 -0.0223742 -9.85344e-19)
(-0.000213909 0.000428789 -5.99611e-21)
(-0.000627852 -0.000280368 -2.5036e-19)
(-0.000978591 -0.00115216 5.45602e-19)
(-0.00132971 -0.00280768 -7.40214e-19)
(-0.000125398 -0.000135048 -4.71218e-19)
(0.0377378 -0.0306385 -7.17972e-19)
(0.0439513 0.0515213 -5.74268e-19)
(0.0597552 -0.0243588 -3.93608e-19)
(0.000898976 -0.0128776 5.30227e-19)
(-0.0152466 -0.0397832 8.96027e-18)
(0.00373497 0.00204612 -3.13729e-19)
(0.0880539 -0.159736 4.55965e-19)
(-0.0003318 -0.000103148 8.93305e-19)
(-9.93951e-05 -0.00113254 -7.08509e-19)
(-0.0717864 0.0112909 -1.08183e-19)
(-0.125138 0.232509 -3.73803e-18)
(-0.000366128 0.000181618 1.39886e-19)
(-0.000298191 -0.000664743 1.13769e-18)
(0.00014619 0.0024965 1.75532e-19)
(-0.0800688 0.112511 3.08154e-18)
(0.000553829 -0.00136342 -5.96027e-20)
(0.0137458 0.00526535 -4.07837e-19)
(-0.0023197 -0.00477756 2.43868e-18)
(-0.00274421 -0.0179063 -3.50279e-18)
(0.0321912 -0.0330548 -9.90137e-19)
(0.043069 -0.0222899 2.64823e-19)
(-0.00137244 -0.00177084 5.53527e-19)
(-0.00285299 -0.0452788 -1.04745e-17)
(-0.000388736 -2.33991e-05 -3.95404e-19)
(0.00112699 0.00458488 5.90217e-19)
(0.0749011 -0.152419 1.02314e-18)
(-6.49524e-05 0.00219482 -1.84767e-19)
(0.0618183 -0.0108619 4.25094e-19)
(-0.0196335 -0.0442212 -2.30014e-18)
(-0.000383363 -0.000479903 -2.80718e-18)
(-0.00177888 -0.00297734 -1.48104e-18)
(-0.000109964 -0.000116226 2.78599e-19)
(0.0226836 -0.00662179 6.53656e-19)
(-0.0588002 0.00158901 1.40785e-18)
(0.00335493 0.00551613 1.28903e-18)
(-0.000329634 0.000525796 -1.51184e-18)
(-0.0153488 -0.0438094 1.00446e-18)
(0.011376 -0.0234031 -5.68618e-19)
(0.000287935 0.000658051 2.85159e-20)
(0.000212311 0.000458293 1.11458e-20)
(0.0012128 -0.00397931 -5.39008e-18)
(-0.000350064 -7.57692e-05 -2.66182e-19)
(0.0159851 -0.0144746 1.94044e-18)
(0.0603698 -0.0110874 -7.96962e-19)
(-0.000100701 -0.000264492 4.41633e-19)
(0.000448723 -0.000525619 1.26255e-18)
(0.0230195 0.0937685 4.14232e-18)
(0.00498924 0.00344864 6.90606e-21)
(0.013195 0.00389248 -5.64551e-19)
(0.000218867 -0.00219086 -7.91633e-19)
(3.33748e-05 -0.000695913 -6.17414e-19)
(0.0443042 0.00188469 -2.06099e-18)
(0.000266011 -0.000350776 9.153e-19)
(5.08452e-05 0.000973415 -1.5655e-18)
(-0.000127671 0.000503304 1.40773e-19)
(-0.00440385 -0.00266038 -7.33524e-19)
(0.000113306 0.00116767 -3.95752e-19)
(7.20886e-05 -1.90618e-06 1.84831e-18)
(-0.00289087 -5.16091e-05 -1.18493e-18)
(-0.00200481 -0.00873027 2.14606e-18)
(0.0113162 -0.0289651 -2.3289e-18)
(0.0153191 -0.0123481 1.47418e-17)
(-0.000127124 -0.000420247 6.05546e-19)
(-0.00928426 0.00211886 -3.29573e-20)
(0.00088601 -0.000320574 -3.59747e-19)
(-0.00224753 -0.00934495 -2.16801e-18)
(0.00672038 0.00156276 -2.40835e-19)
(0.000736626 -0.00105472 -6.5203e-19)
(0.0449649 -0.044246 1.02123e-18)
(0.000389476 -0.000369144 -5.60904e-19)
(0.00950087 -0.0304965 -4.86184e-18)
(-3.03563e-05 -2.10953e-05 -1.91741e-19)
(-0.00881038 -0.0114793 1.83559e-19)
(0.000362233 0.00135442 -7.79221e-22)
(0.000212428 0.00124925 1.78997e-20)
(-0.00403787 -0.0181267 -2.1083e-18)
(-0.0672041 0.0147613 2.82488e-19)
(-0.000108255 0.00416339 -3.39334e-19)
(0.000895328 -0.000979364 -5.3099e-19)
(-0.000439625 -0.00070307 -1.29372e-18)
(-0.01544 -0.0023802 -9.88936e-20)
(-0.00032799 -0.000517559 6.30877e-19)
(-0.00319043 -0.000514338 -1.33239e-20)
(-0.00590962 0.00746925 7.07897e-21)
(-0.000365091 0.000214465 2.97369e-19)
(0.0301342 0.0671719 -2.23703e-18)
(-0.000148409 -5.99348e-05 -2.6321e-19)
(0.0156786 -0.0108925 4.54102e-18)
(-0.00418859 -0.00204941 7.99907e-19)
(0.000151611 0.000891482 -8.15256e-20)
(0.000216114 -4.06893e-06 -7.3868e-20)
(0.000161128 -3.47751e-05 -4.19637e-19)
(0.0145229 -0.00897563 -3.40606e-18)
(-0.000411309 -0.000474948 -3.36133e-21)
(-0.0028484 0.000190222 1.06333e-18)
(-0.00626601 -0.0108641 5.75103e-19)
(5.13651e-05 5.45003e-05 3.39514e-19)
(-0.00035637 -0.000666312 1.95277e-18)
(-0.000101607 -0.000281114 -5.25846e-19)
(0.0456935 -0.0315094 3.99465e-18)
(0.00147476 0.00464169 3.42656e-19)
(0.000107439 1.61002e-05 -1.13161e-19)
(-0.000215284 2.52966e-05 1.06608e-19)
(0.000787486 0.00682446 -5.23662e-19)
(-0.0031842 -0.00294326 2.645e-19)
(-0.00664409 -0.0114771 1.90588e-18)
(-0.000217397 -6.12847e-05 8.85727e-20)
(0.0294788 -0.00787633 -1.48672e-18)
(-0.000351377 0.000662167 1.98951e-19)
(0.0069011 -0.0311306 1.04499e-18)
(-0.0115461 -0.141004 7.22065e-18)
(0.000198133 -7.5535e-06 -9.96055e-19)
(0.000233441 1.0539e-05 3.91844e-19)
(0.0012333 -0.000552028 1.65316e-18)
(-0.0168681 -0.00235295 5.53621e-20)
(-0.00889865 -0.00645411 -9.99664e-19)
(-0.00426217 -0.000996071 -3.50333e-19)
(0.00640863 -0.020612 3.75934e-19)
(-0.000139961 -3.64158e-05 8.88402e-19)
(0.00111649 -0.000631655 -4.71026e-20)
(-0.00955577 -0.00642491 9.97016e-19)
(-0.00314702 0.0013308 3.08777e-19)
(-0.00190763 -0.000504972 1.1357e-18)
(0.00637234 0.00279412 -1.40931e-19)
(0.021017 -0.00890032 1.30668e-19)
(-0.000962142 -0.00112753 -1.26871e-19)
(-0.0133488 -0.00386952 8.497e-20)
(-0.00212382 -0.00512834 -5.78064e-19)
(-0.00069936 -0.000540236 -7.53356e-19)
(-0.0137004 0.0125139 -2.84436e-19)
(-0.0342667 -0.0521158 3.41497e-18)
(-0.0158473 0.0162956 3.36813e-19)
(8.306e-05 0.00186166 -3.99588e-20)
(0.0743925 -0.0235047 -1.08653e-18)
(-0.00388405 -0.00284886 1.1279e-18)
(0.0658549 0.0256771 -1.05205e-18)
(-0.00981652 -0.0394804 -4.71666e-19)
(-0.000761642 -0.000790343 -5.00245e-19)
(0.00314164 -0.00456718 -7.04829e-19)
(-0.01291 -0.0393432 -6.51674e-19)
(0.00308886 0.00482528 -8.17198e-19)
(0.0111864 0.00400926 -1.46902e-18)
(0.0185779 -0.0270887 3.21573e-18)
(5.13661e-06 0.000499322 -7.5904e-19)
(-0.000163271 1.957e-05 -3.61762e-19)
(-9.71899e-05 -0.00105096 8.37187e-20)
(7.45029e-05 -7.08789e-06 1.05158e-18)
(5.46315e-05 -0.00415799 -3.6784e-19)
(-0.0541189 -0.0498903 -2.8677e-18)
(-0.000158306 0.000485488 2.19429e-20)
(-0.000586196 -0.00045182 -4.63451e-20)
(0.0368449 -0.0186485 2.08523e-18)
(0.00443232 0.0039927 -2.70828e-19)
(-0.000978184 -0.00168176 -1.0821e-18)
(0.000334683 0.00170023 3.92873e-21)
(-0.00546127 -0.00128753 8.11675e-19)
(-4.746e-05 0.00054861 9.34492e-19)
(-0.019731 -0.0426184 -1.03418e-19)
(-0.00255751 -0.00295249 2.13214e-18)
(-0.00083765 -0.000536708 9.88097e-19)
(-0.00236151 0.00106658 -2.63041e-20)
(0.00457521 0.00491828 1.76401e-18)
(0.0129676 0.139515 3.27972e-18)
(-0.00120442 -0.00148972 -2.13355e-19)
(-0.0113291 0.0203709 1.59401e-19)
(0.000110369 0.000522742 2.00702e-20)
(0.00416 -0.0210826 -3.06364e-18)
(0.0113512 -0.0698793 2.55934e-18)
(0.0338948 -0.0254454 -4.2898e-18)
(0.00472445 -0.0219591 5.04198e-18)
(-0.00520049 -0.000914275 -6.18152e-19)
(-0.000648431 0.00873365 1.8305e-18)
(-0.0116947 -0.0563902 2.29212e-18)
(0.000133703 -1.76106e-05 2.27772e-18)
(0.0483414 -0.0337685 -7.94512e-19)
(0.00584197 0.00203677 8.03241e-19)
(-0.000356503 -6.53366e-05 -8.98774e-19)
(-0.00713154 -0.16287 -6.42707e-18)
(0.0106477 0.00291362 2.66975e-18)
(-0.0387551 -0.0608398 1.0236e-18)
(-0.000806974 -0.000549234 -9.05076e-19)
(0.0169158 -0.0153375 -6.6281e-18)
(-0.14604 0.117108 5.60943e-18)
(0.00320178 -0.00723924 7.85733e-19)
(-3.05766e-05 0.000315861 3.21096e-19)
(0.0391161 -0.0178187 -6.02527e-18)
(0.00251016 -0.00997459 2.749e-18)
(-0.0152423 0.0292223 -1.87862e-20)
(-0.00943755 0.00118223 1.90637e-19)
(-0.000932497 -0.00142747 3.12134e-19)
(0.0254007 -0.300239 -2.44045e-18)
(-0.000224956 -4.56462e-05 -2.18646e-19)
(-0.00464784 -0.00263156 -1.20229e-18)
(-0.00012405 -1.66066e-05 -2.55374e-19)
(0.000174904 -2.43607e-05 -7.25417e-19)
(-0.00131904 -0.00180867 9.13028e-19)
(-0.00104921 -0.00154343 1.20543e-18)
(-0.00851182 0.000660183 2.41134e-19)
(0.0105703 0.150524 3.38628e-18)
(-0.00110394 -0.00239673 -1.75238e-18)
(0.10771 -0.0606147 1.34788e-18)
(0.0485148 -0.00168044 -2.75911e-19)
(-0.023038 -0.0487304 -4.44259e-18)
(0.0124273 -0.021923 -2.03032e-18)
(-0.0150188 0.0231036 2.23599e-21)
(9.29437e-05 -1.72583e-05 2.98819e-19)
(-5.01053e-05 -0.000980559 -2.02216e-19)
(0.077976 -0.0371324 4.81573e-18)
(0.047649 -0.0100751 -7.52458e-21)
(0.000541677 -0.00218105 -1.29097e-19)
(0.000446446 -0.00233565 -2.19672e-18)
(-0.0100094 -0.00531646 -1.06194e-18)
(-0.000504611 -0.000668207 4.37316e-19)
(-0.142779 0.180206 -9.28399e-19)
(0.000591263 -0.000532265 -1.10412e-18)
(-0.0085588 -0.000157679 -5.36737e-19)
(-0.000482645 -0.000610162 -6.3499e-19)
(-0.00627344 -0.0198896 9.68244e-19)
(-0.000120089 0.000474823 4.5893e-20)
(0.00258377 -0.0107415 -2.08687e-18)
(0.00531738 0.0800765 4.62542e-19)
(0.000738924 -0.00130513 -8.02399e-19)
(0.0230999 0.0656431 1.11527e-18)
(-0.0142176 -0.000868509 -5.05448e-19)
(-0.00288893 -0.00316212 -1.24644e-18)
(-0.0137969 -0.00297925 -3.56391e-19)
(0.00506567 0.00208127 -6.15261e-19)
(-0.000478572 0.00444703 5.02913e-19)
(-0.000112328 -0.00336871 1.03013e-18)
(-0.0999304 0.0237505 1.74949e-19)
(-0.000150378 -6.06711e-05 1.05493e-19)
(-0.00206161 -0.000491226 -2.54922e-19)
(0.0174182 -0.0286208 -4.8033e-18)
(-0.000686414 -0.00134334 4.90081e-19)
(0.00695128 0.000626488 1.40137e-19)
(-0.00358004 -0.00313031 -1.53135e-18)
(-0.000991939 -0.000892185 1.21246e-18)
(0.000373361 -0.0146321 -1.65248e-18)
(-4.3064e-05 4.13757e-05 -6.68391e-19)
(-0.00212552 -0.000308436 -2.87859e-19)
(-0.000500184 -0.000464325 6.69257e-19)
(-0.0287948 0.10194 -6.0428e-18)
(-0.000712092 -0.00283672 -1.52107e-18)
(-0.0377439 0.100496 8.30289e-18)
(0.0019489 0.00392201 -8.09013e-20)
(0.0399883 -0.0431866 -2.68724e-18)
(-0.000189469 1.673e-05 1.85026e-19)
(0.00309908 0.00408175 -7.20576e-20)
(0.000179213 1.41075e-05 -1.253e-19)
(-0.00121367 -0.00227855 1.79291e-18)
(0.0871183 -0.0295255 4.02184e-18)
(0.00399723 0.00155919 7.52257e-19)
(0.00376177 -0.0803351 2.0093e-18)
(-0.0010618 -0.00131758 -1.64816e-19)
(0.000981646 -0.000879137 -5.34014e-19)
(-0.00433757 -0.00300288 9.05648e-19)
(-0.0216048 0.00340927 -7.45919e-19)
(0.0224542 0.00959463 -9.66391e-20)
(0.0212678 -0.0588774 2.60721e-20)
(0.0307564 -0.0379243 1.85534e-18)
(0.00313929 0.00642849 -8.11773e-19)
(-0.000297795 -0.00017653 2.78932e-19)
(-0.0119652 0.0273491 8.76695e-19)
(-0.000662612 -0.014793 1.0299e-18)
(-0.00708281 -0.0183864 -8.72103e-19)
(-0.00828826 0.0111221 -1.59548e-20)
(-0.039716 -0.010173 -9.79822e-19)
(-0.000146495 -3.61651e-05 -3.41588e-19)
(-0.0107869 -0.00168308 -1.62355e-19)
(0.0162264 -0.0169809 1.12529e-17)
(-0.000605912 -0.000408851 -4.59941e-19)
(0.00775374 0.00187949 9.97215e-19)
(-0.000609574 -0.000329047 2.32086e-19)
(-0.000798262 2.57826e-05 -2.36782e-20)
(0.000111586 -8.50757e-06 -1.59653e-19)
(-0.129234 0.268239 -5.97114e-18)
(0.00175103 -0.011299 -2.85941e-19)
(0.0573079 -0.222375 -1.22488e-17)
(-0.000942837 0.000125584 -1.14457e-18)
(-0.017673 -0.000486619 -1.76327e-20)
(7.94875e-05 0.000358246 -9.81841e-21)
(7.16629e-05 -2.83772e-06 -7.71867e-19)
(-0.000302379 9.83541e-06 2.7319e-19)
(0.00703856 0.00112984 3.92708e-19)
(-0.00949245 0.0274823 4.45931e-19)
(0.00178552 0.00452571 1.34732e-19)
(-0.00918912 -0.0018163 3.82169e-19)
(-0.000629871 -0.000538575 5.79217e-19)
(-0.000275777 -6.2749e-06 -2.17444e-19)
(0.00798813 -0.00079934 -6.86098e-19)
(0.0249714 -0.0251644 -2.33859e-18)
(3.61134e-05 5.12281e-05 4.37127e-19)
(-0.000279153 -0.000169659 -2.96968e-19)
(-0.00912433 -0.097765 3.16233e-18)
(0.00898604 0.00303482 -6.13455e-19)
(-0.00230684 -0.00311207 -8.93054e-20)
(0.0756625 -0.00648153 1.23611e-19)
(0.0398887 -0.0395549 6.88147e-19)
(-0.000167295 -2.51809e-05 9.77976e-20)
(-2.76716e-05 -1.19312e-05 6.57089e-20)
(-0.00515773 -0.00274026 8.21535e-19)
(0.0080191 0.000269128 -2.51803e-19)
(-0.00227033 -0.000293477 6.69456e-19)
(-0.000236713 1.78334e-05 1.19059e-19)
(-0.000275557 -2.03146e-05 3.42606e-19)
(0.00395701 0.00252897 -1.85254e-19)
(0.00103941 -0.000449834 -5.7425e-19)
(-4.70834e-05 -0.000471535 -4.23247e-19)
(-0.0117517 0.0404889 7.54542e-20)
(0.0102354 -0.0330142 3.40556e-18)
(-0.000350316 -3.71315e-05 1.02161e-20)
(0.0736044 -0.0525158 -2.64656e-18)
(-0.0241316 -0.00943836 4.56164e-19)
(0.000636446 0.000794926 6.62834e-19)
(0.000813548 0.00478057 -2.75379e-19)
(0.0070527 -0.00165702 -8.94666e-19)
(0.0454222 0.0410876 2.7969e-19)
(-0.00459598 -0.00145862 3.34634e-20)
(0.0763593 0.0534018 1.8446e-18)
(-0.000813804 -0.000884259 3.25053e-19)
(0.000176014 -0.00060931 1.64205e-20)
(0.0121763 -0.0253366 -8.68399e-19)
(-0.000590472 -0.000257559 -3.04955e-19)
(0.00621659 -0.0165211 -2.23538e-18)
(-0.00836262 -0.188053 -3.70472e-19)
(-0.0147872 -0.00396258 -3.06758e-20)
(0.000753406 0.00072823 1.24318e-18)
(0.076951 -0.0783258 3.1802e-19)
(0.00852602 0.00215107 4.85408e-19)
(0.00072464 -0.000649618 3.19327e-20)
(-3.9073e-05 -0.00176378 -1.22049e-18)
(0.0216006 -0.0108018 2.49934e-17)
(-0.000993253 0.000155297 5.46686e-19)
(0.000610735 -0.000611034 -6.43216e-19)
(-0.000197109 -7.57423e-05 6.52448e-21)
(-0.000898936 0.000141237 -7.48092e-19)
(0.0493718 -0.00461851 1.2165e-18)
(0.0163791 -0.0131156 -1.56896e-17)
(-0.022579 -0.00853408 -5.54893e-19)
(0.00194398 0.00521197 -4.68204e-19)
(-0.000220837 -0.00157969 2.40612e-18)
(-0.000821326 -0.000794005 4.61001e-19)
(-0.000846386 -0.00111149 1.01103e-18)
(-0.000237305 4.16875e-05 -1.18463e-19)
(-0.000183131 -6.96379e-05 -6.69197e-19)
(0.0301937 0.0378722 5.19855e-19)
(0.0357535 -0.0274477 2.55333e-18)
(-0.000449808 -0.00077597 1.18771e-18)
(-0.00603445 0.00817338 2.88274e-19)
(0.104358 -0.0328145 -1.04106e-18)
(-0.000421749 0.00118486 6.15983e-20)
(0.00158973 -0.015849 8.85121e-19)
(-0.0137203 0.0211524 -1.3379e-19)
(-0.000231749 3.89509e-05 -1.57549e-19)
(0.0179056 -0.0249135 2.74804e-18)
(0.0389939 -0.267496 1.23395e-17)
(-0.000370554 -0.000519845 -2.73572e-19)
(0.0444541 -0.00925568 -2.32854e-17)
(8.15934e-06 0.000959822 1.12839e-19)
(-0.151953 0.225711 -6.02474e-18)
(-0.00500878 -0.0103509 -9.62391e-19)
(0.0114987 -0.24999 5.21e-18)
(-1.56979e-05 0.000358671 -1.26518e-19)
(-7.41758e-05 -0.000618558 5.12466e-19)
(-0.00279861 -0.00554631 8.52091e-19)
(-0.00498847 -0.0144808 -6.71309e-21)
(-0.00156383 0.00922746 -1.24436e-18)
(0.081866 0.00110391 -1.04034e-19)
(0.041368 0.00270244 -9.61192e-19)
(0.214569 0.0409636 1.78915e-18)
(0.00654415 -0.0174817 -3.37599e-18)
(0.0958207 0.0199712 -9.99744e-19)
(-0.00873938 -0.0182434 -1.16429e-18)
(0.000146063 1.23701e-06 -1.39164e-18)
(0.00707514 -0.012423 -4.34404e-19)
(-0.00482558 0.00795083 -8.48916e-19)
(0.0297502 -0.0723171 4.57287e-19)
(-0.00163255 -0.00121724 8.90175e-19)
(0.0424667 -0.0585999 -1.27467e-18)
(-0.000580033 -0.000310088 1.2967e-18)
(-0.000725487 -0.0254647 -1.50436e-19)
(0.000233097 -8.13205e-06 -5.33857e-19)
(0.00102798 -0.00255679 -2.77441e-18)
(-0.0006814 -0.000678252 3.89655e-20)
(0.0479158 -0.0137593 3.92633e-18)
(-0.000615443 -0.000384017 4.4896e-19)
(-0.000125802 -5.12928e-05 1.41246e-18)
(7.30081e-05 -0.00435789 1.69086e-18)
(-0.00317612 -0.00543677 2.13914e-18)
(0.00192696 -0.0120532 -3.5921e-18)
(3.07607e-05 0.000466439 -1.21147e-20)
(-0.00050256 -0.000174161 5.82803e-20)
(-0.00048681 0.00101949 -1.44028e-20)
(-0.000398735 0.000940191 1.9822e-19)
(-0.0526205 -0.0232668 2.83052e-20)
(-0.000181396 8.32154e-05 -1.28004e-19)
(-0.0292213 -0.0264039 2.08732e-18)
(-0.105482 0.103774 -6.92186e-19)
(-0.000179772 7.7028e-05 -3.18727e-20)
(0.000231657 -1.33823e-05 -7.15941e-19)
(-0.0191969 -0.000520841 -7.31653e-20)
(0.000287487 -0.00244205 2.31317e-18)
(-0.00054731 -0.00032581 -5.99691e-19)
(-0.00302887 0.000697872 6.31652e-20)
(0.00417997 -0.00663622 1.70995e-18)
(-0.00433608 -0.0107561 -5.18273e-19)
(0.00140537 -0.00335297 2.4929e-18)
(-0.00285439 -0.00566054 -1.5419e-18)
(0.000453001 -0.000328196 2.4027e-19)
(0.00807001 -0.00120073 4.16646e-19)
(-0.00463564 -0.00097739 -6.98249e-19)
(-0.00321257 -0.00958867 2.43779e-18)
(-0.00282078 0.00134477 -7.43676e-19)
(-0.00599064 -0.00137076 2.61893e-19)
(-0.0436752 0.00436208 2.8884e-18)
(-0.000926474 0.00056645 1.04242e-18)
(-0.0912185 0.0113523 -4.52326e-19)
(0.00294931 -0.0088765 7.16257e-19)
(8.00641e-05 2.88588e-05 1.92721e-19)
(-0.000525992 -0.000202708 -2.80438e-19)
(0.000343638 0.000703199 1.73033e-19)
(0.00341776 0.00899883 7.23395e-19)
(0.0030625 0.0103267 -1.27223e-18)
(0.000166581 -0.000443021 -7.88268e-20)
(-0.000505412 0.00377142 -3.2819e-19)
(0.000170787 0.000166913 -1.18462e-20)
(-0.000782273 -0.000969518 -4.84985e-19)
(6.14373e-05 0.00391324 8.44914e-19)
(-0.000296858 -4.22224e-05 3.56223e-19)
(-0.00811633 0.00333126 4.92008e-20)
(-0.000376073 -0.000141901 1.60378e-19)
(0.000877886 -0.00273077 1.12295e-18)
(7.0301e-05 -2.78196e-06 1.1086e-18)
(-0.000781316 -0.00145182 -2.93513e-19)
(-0.00724267 0.00350198 -2.24944e-21)
(0.0015074 -0.00353235 -3.03443e-18)
(0.00741501 -0.0133148 2.40635e-18)
(0.000205375 8.95663e-06 -4.97064e-19)
(-1.85342e-05 -0.000170206 -1.67713e-19)
(-0.000510617 -0.000231153 9.6273e-20)
(0.000662653 -0.00031039 -5.21234e-19)
(-0.000523834 -0.000195229 4.33838e-19)
(-0.000329029 -2.77868e-05 -2.17906e-20)
(-0.0004961 -0.000185843 6.44826e-20)
(-0.000586351 -0.00035099 2.51253e-20)
(-0.000982076 0.000491101 6.48739e-21)
(-0.000610108 -0.000352458 1.31421e-18)
(-0.00237779 -0.0209367 -1.86613e-18)
(9.7402e-05 -1.97924e-05 4.6642e-19)
(0.00021845 2.35352e-06 1.18067e-19)
(-0.000509569 -0.0004425 1.89987e-19)
(0.0313205 -0.0568091 -3.20216e-18)
(-0.000208049 0.000124178 8.97806e-20)
(-0.000525523 -0.00057575 -3.47755e-19)
(0.0177151 -0.0209771 4.39488e-18)
(-9.02425e-05 0.000869972 -1.7413e-19)
(0.00296662 -0.000222938 -5.12754e-20)
(0.0504464 -0.0143565 4.44628e-18)
(-0.00223933 -0.0051241 1.93129e-18)
(-0.000141085 2.07528e-05 -2.36852e-19)
(-0.000307099 1.31646e-05 -3.46973e-19)
(0.0327447 -0.0185482 2.22012e-18)
(0.000251392 0.000697856 -3.05268e-20)
(0.0172545 -0.0180814 -5.3815e-18)
(0.20449 0.0200674 7.02396e-19)
(-0.00277832 -0.195495 -5.70013e-18)
(0.0421881 -0.0106518 -2.0956e-19)
(0.00264326 -2.72954e-05 5.09231e-19)
(-0.000606296 -0.000498472 -6.79818e-19)
(-0.0662014 -0.0360296 1.32537e-19)
(-0.00705243 -0.00022069 -1.64746e-18)
(-0.000526818 -0.000499152 -9.33126e-19)
(-0.0148541 0.0276663 -2.54866e-20)
(0.0483619 -0.0479719 1.21371e-18)
(0.121404 -0.0217617 -8.33793e-20)
(-0.00053782 -0.000264992 2.22855e-20)
(0.0228879 -0.0117033 -1.78685e-17)
(-0.000569236 -0.000499442 2.02681e-19)
(-0.000507539 -0.000407064 -4.24777e-20)
(-0.135064 0.237225 -5.35317e-18)
(-0.000292615 -5.47935e-05 -3.76147e-19)
(-0.0634065 0.0733497 2.20493e-18)
(0.0065089 0.0028434 -6.39433e-19)
(0.00829688 -0.0345908 2.76378e-18)
(-7.22698e-05 -0.000150566 3.67391e-19)
(-0.00619962 -0.00586278 -7.41992e-19)
(-0.00434892 -0.000669327 1.13138e-19)
(0.0470734 -0.0103708 8.89779e-18)
(0.069849 -0.0524504 4.16757e-19)
(0.000669281 -0.000780999 3.65849e-19)
(0.00565849 0.00298118 6.41976e-19)
(0.00651612 -0.00806108 -1.03113e-17)
(-0.000492852 -0.000288426 4.55117e-20)
(0.00726258 0.00224343 -2.31242e-19)
(0.016639 -0.0198814 -6.85041e-19)
(0.0643652 -0.0362054 -2.37874e-18)
(-8.8382e-07 0.000290314 1.71097e-19)
(-0.000292583 -0.0157004 -4.69337e-19)
(-0.007041 -0.0011556 -3.07037e-19)
(-0.013477 -0.194182 -6.69982e-18)
(-0.00175169 -0.0140132 -4.7164e-19)
(0.0220026 -0.069049 -2.37632e-18)
(-0.0162934 -0.00841197 5.45773e-19)
(0.00316711 -0.00375127 5.39533e-19)
(0.00888787 0.0131435 4.87743e-20)
(-0.00125237 -0.0441685 2.25785e-19)
(-0.000198111 0.000138756 -4.11395e-20)
(-0.000307077 -2.5343e-05 -5.31816e-20)
(0.000168676 -1.04566e-05 2.0682e-19)
(0.00537236 -0.00505541 4.75922e-19)
(-0.00057622 -0.00040122 3.60038e-19)
(-0.123023 0.264372 1.03713e-17)
(-0.000520274 -0.000436616 4.23159e-19)
(-0.0169432 -0.000185256 4.86409e-18)
(0.00274258 -0.00450638 7.69268e-18)
(0.0292427 -0.0102712 1.1566e-18)
(0.0141923 -0.0256136 4.40927e-19)
(-0.000834656 -0.001214 -1.06036e-18)
(0.0194882 -0.056306 -2.92272e-20)
(-0.0360189 0.170339 -6.94296e-18)
(-0.00203342 -0.00256308 1.88452e-18)
(0.0176949 -0.29135 -1.00139e-17)
(0.00749776 0.012665 -2.77935e-19)
(0.0273783 -0.0146677 7.67474e-18)
(-0.00056966 -0.000432901 -1.66359e-19)
(-5.62548e-05 0.000796884 1.229e-19)
(0.0220623 -0.102436 2.00538e-18)
(0.00043282 0.00135126 9.35969e-20)
(0.0799174 -0.0539955 2.41568e-19)
(-5.97504e-05 4.4488e-05 -9.86976e-20)
(-0.0283063 -0.00634394 -6.1409e-20)
(-0.000398181 -0.000966548 -2.19905e-18)
(0.0230365 -0.0221391 1.88984e-19)
(0.0131922 -0.113404 1.24676e-18)
(0.00268405 -0.00418075 1.31711e-18)
(0.0876223 -0.0740689 -1.65237e-18)
(-0.000151111 -4.97586e-05 3.54024e-19)
(0.000313993 -0.00455202 1.17094e-18)
(0.00512991 -0.0192806 7.30641e-18)
(-0.0851026 0.12975 2.17054e-18)
(-0.063075 0.0786957 -4.37435e-18)
(-0.000516452 -0.000230799 -1.60481e-18)
(-0.00056387 -0.00107726 -2.24113e-19)
(-0.000604175 -0.0005856 3.62147e-19)
(-0.00845012 -0.194261 -1.02494e-18)
(0.0361383 -0.0289595 -4.29599e-19)
(-0.000294562 -1.45056e-05 -6.1773e-19)
(0.00518177 0.00918265 -1.35958e-18)
(0.0034308 -0.0174584 -1.10329e-18)
(-0.000590863 -0.000499632 6.30777e-19)
(-0.000104822 0.000124968 6.15685e-19)
(-0.000823055 0.00729925 1.24279e-19)
(-0.0649916 0.060619 -9.69901e-19)
(0.00338941 -0.0116506 2.88664e-19)
(0.000613628 0.00169284 -1.25991e-19)
(7.41092e-05 -1.12503e-05 -8.06627e-20)
(-0.000268484 0.000837828 1.4687e-20)
(0.0402323 -0.00971215 -1.81377e-19)
(0.0927876 -0.0282336 -2.77606e-19)
(-0.0113019 -0.00407162 1.45464e-18)
(0.000688875 -0.000411063 9.53946e-20)
(-0.000101936 4.78024e-05 6.80826e-19)
(0.0214972 -0.0648545 8.41587e-19)
(-0.000307114 -3.91631e-05 -2.23552e-19)
(0.0272306 -0.269083 -4.65162e-18)
(0.000712438 -0.0265104 -8.32212e-19)
(-0.00407571 0.00170417 -2.25058e-18)
(0.0166727 -0.0407465 1.06356e-18)
(-0.0237287 -0.00879861 -2.42982e-19)
(-0.0006233 0.00021026 -1.05372e-18)
(-0.000716409 -0.00123883 -1.45104e-18)
(-0.000249301 -0.0071724 -4.72333e-18)
(-8.20849e-05 -0.003841 -2.06112e-18)
(-0.00345591 -0.0101661 3.93838e-18)
(-0.000251034 -6.0309e-05 -6.51239e-19)
(0.022865 -0.0135483 -5.87336e-18)
(-0.059083 -0.0566217 1.6993e-18)
(-0.000549492 -0.000521387 1.92691e-18)
(-0.0302153 0.195823 2.75298e-19)
(-0.0001892 0.000814541 6.2329e-20)
(-0.04278 0.142946 5.659e-18)
(-9.69141e-05 -0.00177504 -2.02926e-18)
(0.00570522 -0.0538026 5.96688e-19)
(-0.00907236 0.00616542 -2.75697e-19)
(0.00561491 -0.0114817 1.11335e-18)
(0.000186425 0.000289767 1.89611e-19)
(-0.00012091 -0.00101504 6.21215e-19)