/*--------------------------------*- C++ -*----------------------------------*\
| =========                 |                                                 |
| \\      /  F ield         | OpenFOAM: The Open Source CFD Toolbox           |
|  \\    /   O peration     | Version:  v2012                                 |
|   \\  /    A nd           | Website:  www.openfoam.com                      |
|    \\/     M anipulation  |                                                 |
\*---------------------------------------------------------------------------*/
FoamFile
{
    version     2.0;
    format      ascii;
    class       volScalarField;
    location    "100";
    object      nut;
}
// * * * * * * * * * * * * * * * * * * * * * * * * * * * * * * * * * * * * * //

dimensions      [0 2 -1 0 0 0 0];


internalField   nonuniform List<scalar> 
9793
(
0.00131299
0.0111509
0.0012174
0.0067125
0.0329061
0.00621816
0.00689704
0.00672394
0.00678216
0.0327426
0.000649225
0.00395567
0.00672126
0.00694503
0.00700222
0.00690412
0.00720446
0.00738317
0.0230167
0.00694359
0.00496549
0.00591542
0.0156313
0.00669698
0.006989
0.00673675
0.00691231
0.00694038
0.000781909
0.00678229
0.00346293
0.0129446
0.0111216
0.00691246
0.000899213
0.0151033
0.00696645
0.00595915
0.00675783
0.00680477
0.00360831
0.00700217
0.00685807
0.00691557
0.00686053
0.00676427
0.000754747
0.00818614
0.00462831
0.00670859
0.000729026
0.000657293
0.0055597
0.00679322
0.0015296
0.011885
0.00673338
0.00055354
0.0157019
0.00675352
0.00689916
0.00586423
0.00436241
0.00680402
0.031762
0.00671964
0.00255639
0.00240518
0.00404511
0.000599092
0.00174531
0.00696836
0.00675333
0.014771
0.000826559
0.017076
0.00673574
0.00726659
0.0072705
0.00702814
0.00313874
0.00722551
0.0118064
0.00905451
0.00333511
0.0104278
0.00710471
0.00673898
0.00674333
0.00728163
0.0110046
0.00478035
0.00682266
0.0114938
0.00648189
0.00901095
0.0101546
0.0118229
0.00679442
0.0067663
0.0067634
0.0071258
0.00673042
0.00672238
0.0072333
0.00377336
0.0067589
0.00690811
0.00634685
0.00864915
0.00699981
0.00431897
0.00672608
0.0297772
0.000654859
0.00673644
0.0137142
0.000833946
0.00733256
0.01048
0.00776609
0.00716061
0.00673727
0.00547664
0.00677885
0.00424867
0.000721096
0.00932961
0.00739464
0.00673349
0.00705648
0.0067394
0.00673576
0.00709079
0.00677452
0.00674232
0.00683715
0.00689424
0.00672511
0.00670101
0.00673506
0.00696747
0.00675667
0.00680183
0.00699587
0.00709137
0.0153672
0.00680562
0.00677105
0.00306673
0.00712927
0.00704725
0.00977673
0.0329856
0.00675365
0.00715924
0.00683468
0.00693903
0.00678054
0.00675057
0.00672792
0.00693571
0.00682996
0.0271731
0.0150772
0.00615129
0.0119412
0.00207592
0.00688663
0.00696612
0.00682846
0.0223354
0.0148152
0.0239792
0.00678458
0.0262972
0.00674233
0.00668729
0.00674915
0.00132784
0.00107511
0.00431919
0.00678353
0.00696611
0.0172669
0.00674851
0.000600264
0.0067484
0.00673882
0.00683182
0.00678467
0.00671396
0.00495642
0.00472049
0.00508567
0.00166132
0.0114724
0.00698065
0.0319556
0.00671455
0.00677426
0.0295655
0.016603
0.00673014
0.00674604
0.00693955
0.00983526
0.00682758
0.00362089
0.00572605
0.00113666
0.00511212
0.00436245
0.00679402
0.0201402
0.00683336
0.00697671
0.0170905
0.00682212
0.00407772
0.000935601
0.00673669
0.00677888
0.00671386
0.00892929
0.0290559
0.00614586
0.00673958
0.000945893
0.000664368
0.00670823
0.00669384
0.00372655
0.00674447
0.000654942
0.00410427
0.00672355
0.00679002
0.00762188
0.00709465
0.00401958
0.00695114
0.00677357
0.00973041
0.00676963
0.00677188
0.00672172
0.00693583
0.00679406
0.00689404
0.0067953
0.00260823
0.000668306
0.000703571
0.00675171
0.00442944
0.00681593
0.00236679
0.00600185
0.006803
0.0130266
0.00677811
0.000670827
0.00690869
0.00179264
0.00674857
0.00673958
0.00113351
0.0296996
0.00679664
0.00681326
0.00672701
0.00218702
0.00673797
0.0114743
0.0118428
0.00673293
0.00563542
0.0067295
0.000713204
0.00691117
0.00672229
0.00695464
0.00678937
0.00069202
0.00673594
0.00679792
0.00230988
0.00676107
0.00674655
0.00672472
0.0130061
0.00678595
0.00699635
0.00705117
0.00709066
0.00675997
0.00178012
0.00671405
0.00310797
0.00675139
0.00716285
0.0162099
0.00692309
0.00693468
0.00681139
0.00193352
0.00287169
0.0068885
0.00679071
0.00678835
0.00680587
0.00279407
0.0067923
0.00680067
0.00717316
0.00866678
0.00678675
0.00241649
0.00592961
0.00675392
0.0147349
0.0293645
0.0148536
0.00674779
0.00109985
0.00674396
0.012276
0.000916174
0.00676764
0.00237438
0.000876697
0.00704696
0.00401433
0.0005752
0.00671966
0.0068479
0.00676671
0.00683658
0.00697747
0.00111371
0.00675336
0.00674684
0.00326153
0.00709475
0.00690042
0.00675643
0.00671145
0.0067225
0.00426026
0.00677094
0.00675681
0.00680735
0.00712568
0.0167674
0.00679233
0.0022767
0.0066925
0.000984859
0.0016963
0.000631676
0.000823338
0.00671814
0.00721084
0.0256811
0.00687978
0.0122326
0.00713096
0.00675613
0.0173401
0.00444742
0.0307128
0.00675658
0.000629989
0.0194656
0.00635338
0.00673902
0.012426
0.00169192
0.015322
0.00445816
0.00678962
0.0170004
0.0067216
0.00672446
0.00690211
0.00684361
0.00692542
0.00679093
0.00527719
0.0185595
0.00679038
0.000229416
0.011114
0.0268297
0.000690259
0.0147192
0.00680894
0.00676597
0.0136258
0.0110278
0.00695558
0.00666752
0.0207963
0.00672694
0.0307307
0.00680034
0.00512403
0.00671973
0.00107788
0.00675254
0.001581
0.00635249
0.00683629
0.0176394
0.00692964
0.00675894
0.00679261
0.00707234
0.0067868
0.00712767
0.0213866
0.00672606
0.00680079
0.00061246
0.00678493
0.00600995
0.00674298
0.00680754
0.0012487
0.0067563
0.00680379
0.00670792
0.018833
0.00703718
0.0187681
0.00696588
0.00150134
0.00693623
0.00702249
0.00698074
0.00679013
0.0179738
0.00698073
0.000920071
0.00686161
0.00683502
0.00672561
0.0230604
0.00348139
0.00143465
0.00155742
0.0056057
0.0067173
0.00234382
0.00134749
0.00116981
0.0111314
0.0132827
0.00677671
0.00699358
0.000622213
0.00674076
0.00728433
0.00673854
0.00673259
0.00689905
0.028019
0.00158949
0.0158313
0.00674554
0.00206423
0.00668196
0.00689422
0.00697702
0.00722976
0.00254442
0.00697797
0.00711696
0.00672962
0.00674997
0.00547432
0.00526347
0.00677609
0.00671668
0.0143018
0.00459537
0.00677022
0.00130171
0.00202735
0.00690959
0.00689725
0.00670492
0.00554245
0.00680492
0.00687742
0.00682384
0.00700213
0.00682668
0.00675743
0.0152927
0.000701659
0.0068379
0.0178984
0.00119565
0.00677277
0.00677868
0.0072687
0.00395841
0.00690811
0.00703975
0.00678351
0.00677664
0.000646228
0.00673623
0.00102278
0.0189189
0.00219763
0.00677325
0.00125063
0.00511809
0.00673931
0.00683219
0.000536031
0.0067449
0.00673374
0.00671329
0.00674231
0.010198
0.00064963
0.00136704
0.00675056
0.00681785
0.00676822
0.00677923
0.00695213
0.00671714
0.00386527
0.000637922
0.00673511
0.00720919
0.0173382
0.00681603
0.0101264
0.00213304
0.00693914
0.000579816
0.0167209
0.00673775
0.000550455
0.00672402
0.0224021
0.00223401
0.0132236
0.00674272
0.00676548
0.00721191
0.0123245
0.00721953
0.00523436
0.00281731
0.0253436
0.000890285
0.0062964
0.00116535
0.00700901
0.00105252
0.00719592
0.0134822
0.00679526
0.0130595
0.00671738
0.00853501
0.00691689
0.00515941
0.00676103
0.000644272
0.00672432
0.00682462
0.00471779
0.00481684
0.00145416
0.00675521
0.00672904
0.00680601
0.00679798
0.0227151
0.0067076
0.0134112
0.0311626
0.00670836
0.00689712
0.00178981
0.00679171
0.00673509
0.00679572
0.00641944
0.00219077
0.00386183
0.00490464
0.00671465
0.00733087
0.00674502
0.00268353
0.00679636
0.00669274
0.00236391
0.00678922
0.0261762
0.00176314
0.00690493
0.00673068
0.0067312
0.00731132
0.00739439
0.00676688
0.00705603
0.00667626
0.00677819
0.00705133
0.00671084
0.0049139
0.0066862
0.00517943
0.00691999
0.00678753
0.0056783
0.00404024
0.00100095
0.00696575
0.00674127
0.00673096
0.00672425
0.00675278
0.00686833
0.00676153
0.00674214
0.00678804
0.00672404
0.000999296
0.0068119
0.00695934
0.00673858
0.0120495
0.00671066
0.00671976
0.000580405
0.00671798
0.00689686
0.000637589
0.00698634
0.00690794
0.00699853
0.000521062
0.0067299
0.000601843
0.0286351
0.0208666
0.00230327
0.00689263
0.00674233
0.0134787
0.00763365
0.0067134
0.0151257
0.0092666
0.013226
0.00673271
0.000523271
0.00674219
0.00673689
0.0300359
0.00671112
0.0237944
0.00759274
0.000710277
0.00673744
0.00425039
0.00675158
0.000571969
0.00465249
0.00681607
0.00751138
0.00131587
0.0067367
0.0053727
0.00064197
0.0012025
0.00673793
0.0091011
0.00750802
0.0192423
0.00864434
0.0138887
0.00773275
0.00706902
0.00320687
0.00792839
0.00671193
0.00671099
0.00691918
0.00732995
0.0067155
0.0201562
0.00670797
0.0139549
0.00255471
0.00893212
0.000645713
0.00678316
0.00126408
0.0211466
0.00678122
0.0157852
0.00340247
0.000507714
0.00671557
0.00671079
0.0144611
0.00683389
0.00505029
0.00672771
0.00898777
0.00673491
0.00274678
0.014486
0.00706783
0.00179415
0.00673937
0.00417936
0.0008665
0.0294391
0.0274249
0.00676406
0.00674543
0.00672953
0.0200957
0.0104353
0.00688482
0.00415468
0.0109677
0.00672203
0.00671839
0.00711215
0.0232904
0.00510681
0.00684797
0.00683533
0.0067407
0.00598786
0.0101139
0.00606771
0.00673005
0.00671131
0.0146814
0.00671117
0.0141592
0.000771367
0.01482
0.0100672
0.00832917
0.00672911
0.00678127
0.00289417
0.00539281
0.00216133
0.00671166
0.000527755
0.0134756
0.00672219
0.0226533
0.00674073
0.0273802
0.0067919
0.0113176
0.00377248
0.00791181
0.00675254
0.00677862
0.00505323
0.0174269
0.00851467
0.00682279
0.00109632
0.00701466
0.00667464
0.00338429
0.00117268
0.00693261
0.000516078
0.006724
0.00122731
0.00680175
0.00668935
0.00690091
0.00671398
0.0145021
0.00671151
0.00666459
0.00697805
0.00707494
0.00671734
0.000978244
0.00690578
0.00445064
0.0067331
0.00672043
0.0108952
0.00671007
0.00383651
0.00672995
0.00646304
0.0068299
0.0204705
0.00685558
0.00393282
0.0068126
0.00684224
0.00670675
0.00823968
0.0113278
0.0280402
0.00152038
0.0171616
0.00683683
0.00318713
0.0119934
0.00674365
0.0138937
0.0133409
0.000967266
0.0011064
0.00667933
0.0103819
0.00510893
0.0197182
0.0119448
0.00669235
0.00679528
0.0109383
0.000313211
0.00687974
0.00508965
0.00671128
0.00708419
0.000821852
0.00688092
0.00675374
0.00492519
0.0039118
0.000860972
0.00571671
0.0200371
0.0067084
0.00676086
0.00895766
0.0286755
0.000791896
0.00681323
0.00414814
0.00674766
0.0067427
0.0144104
0.00672551
0.00670116
0.00982801
0.00899902
0.00712531
0.0272429
0.00181671
0.00366168
0.0135682
0.00120172
0.00686797
0.00227239
0.00680475
0.0067222
0.00676807
0.00689224
0.00700421
0.0012526
0.00730328
0.0145436
0.00679991
0.00124241
0.00678663
0.000813848
0.00774227
0.006987
0.000850751
0.00681178
0.00675155
0.000839371
0.00771846
0.00122254
0.00715597
0.0067456
0.00892464
0.0316274
0.00708795
0.00668089
0.0066753
0.00687933
0.00741769
0.0294503
0.00081272
0.013808
0.00106822
0.0135515
0.00690824
0.00256445
0.00362046
0.0027389
0.00103696
0.00675387
0.00674492
0.00781009
0.000936171
0.00114758
0.00673799
0.0207637
0.0134378
0.0068855
0.000712056
0.0023029
0.0292299
0.0068199
0.00192742
0.009933
0.00741179
0.00674148
0.00496971
0.00681224
0.00671795
0.00673264
0.00142697
0.00681076
0.001452
0.0142398
0.000757941
0.00334966
0.00110048
0.00883907
0.00382748
0.00899455
0.00675225
0.00679237
0.00576407
0.00764398
0.00683919
0.0171862
0.00801719
0.00231435
0.0255216
0.00418551
0.00490452
0.00679385
0.00785796
0.00672841
0.00856523
0.00052571
0.00674106
0.0283281
0.0133236
0.00670439
0.00677456
0.00678849
0.0011448
0.0279617
0.00194027
0.00166194
0.00519385
0.00628141
0.00117861
0.00960887
0.00707054
0.0067223
0.00115434
0.0130896
0.00673389
0.00682693
0.00676344
0.00679169
0.00681338
0.00186201
0.0264941
0.0067892
0.00515151
0.00923739
0.00679308
0.00709936
0.00381215
0.0168077
0.00678668
0.00747197
0.00876361
0.00678191
0.00674921
0.00677576
0.00672348
0.00669564
0.0148104
0.00379976
0.00695926
0.00985455
0.005097
0.00599439
0.00672505
0.00734339
0.00672222
0.00680528
0.00840212
0.00717996
0.00694296
0.0019205
0.0069483
0.00677649
0.0015755
0.00672455
0.00064823
0.0067894
0.00671048
0.012516
0.00674297
0.00249034
0.0043759
0.00672956
0.0255769
0.00735582
0.00100271
0.00745476
0.00672765
0.0181302
0.00672972
0.00672333
0.0153272
0.0102724
0.00673413
0.00678129
0.00674399
0.00679216
0.000514669
0.00673244
0.00690499
0.00692581
0.00704452
0.00642958
0.00680008
0.00675516
0.00671712
0.00671095
0.00101857
0.00421887
0.00671371
0.000709797
0.0073207
0.0146158
0.00470059
0.000868914
0.006777
0.00672671
0.000538342
0.00543358
0.00678705
0.00681496
0.0139292
0.000897722
0.00672631
0.00669716
0.000526748
0.00102139
0.0067084
0.0191582
0.000850206
0.00683214
0.00677756
0.00504373
0.00679172
0.00232849
0.00484287
0.00701046
0.00399723
0.00407176
0.00974932
0.00670344
0.006743
0.00668715
0.00669116
0.000835748
0.00674764
0.00386815
0.00149719
0.0066863
0.00677424
0.00447373
0.00699139
0.00679264
0.00671641
0.0067525
0.0129905
0.00669185
0.0067689
0.0142514
0.00686035
0.00678965
0.00784519
0.00674692
0.0067914
0.00672958
0.00675813
0.00697831
0.00705121
0.0010457
0.00415829
0.0067029
0.00673413
0.00669698
0.000977817
0.00671882
0.00386223
0.00674
0.00675534
0.00384108
0.00671294
0.00112254
0.00673991
0.00671646
0.00813837
0.0189607
0.00678602
0.00676039
0.00671503
0.0132694
0.00160579
0.00671554
0.0192863
0.00270613
0.00692116
0.0045104
0.0144433
0.00392648
0.013982
0.0028576
0.0209389
0.00672649
0.00318147
0.000725417
0.00671321
0.00818044
0.0011778
0.00672102
0.00126835
0.00165301
0.00707282
0.0137287
0.00671648
0.00152815
0.000849458
0.00671606
0.00974015
0.00672511
0.000721313
0.000946846
0.00670968
0.00438356
0.00680885
0.00680956
0.000954585
0.00220592
0.00104848
0.00141487
0.00676125
0.00253705
0.00124975
0.00672429
0.00178019
0.00672013
0.0145136
0.00159404
0.00729395
0.00693586
0.00166284
0.00126015
0.00116812
0.00119491
0.0067094
0.00672097
0.00135421
0.0196702
0.0127153
0.00664627
0.00649794
0.00163994
0.00673572
0.00689062
0.00697532
0.00621269
0.00675878
0.00700328
0.0189935
0.00490073
0.0067191
0.000869974
0.00431958
0.0035676
0.0011601
0.00158243
0.00293406
0.00671236
0.00671603
0.000509448
0.000500874
0.00611229
0.00803843
0.00678152
0.000531826
0.0119392
0.000848164
0.0025865
0.00798783
0.00952346
0.00673118
0.00174691
0.0019512
0.00672187
0.000507237
0.0067448
0.00703041
0.00672791
0.00673513
0.00681385
0.0067544
0.00667365
0.00157092
0.0137372
0.00479987
0.0117506
0.00672196
0.00138324
0.00678643
0.00257743
0.0114326
0.00672489
0.000795386
0.00706853
0.00671275
0.00671869
0.00674227
0.00674595
0.000998981
0.00679064
0.00874121
0.00710676
0.00671278
0.0191858
0.00685164
0.00614176
0.00671328
0.0067917
0.0123811
0.000511442
0.0192534
0.00085433
0.0166541
0.00677928
0.00679322
0.00694682
0.00212352
0.00287538
0.00051495
0.0010345
0.00672702
0.000900114
0.0056302
0.00918002
0.00118762
0.00177086
0.00119747
0.0155007
0.00694809
0.000950779
0.00675108
0.000665569
0.00605111
0.000563158
0.000699182
0.00672384
0.00145456
0.00521009
0.00679248
0.00272239
0.00678691
0.000938547
0.00718191
0.00679226
0.0123995
0.00671715
0.0296056
0.00433766
0.00687891
0.00489486
0.00679025
0.00163975
0.00672441
0.000785226
0.00190949
0.0067546
0.00672387
0.00378389
0.00668842
0.00138909
0.00663592
0.00691169
0.00295188
0.00074615
0.00268034
0.00678052
0.00772442
0.00679251
0.00670678
0.00519067
0.00776648
0.00693757
0.00672707
0.00687206
0.00927451
0.00103224
0.00671139
0.010264
0.00689091
0.00116651
0.00489763
0.00671464
0.00672841
0.000645836
0.00672365
0.00671562
0.0067246
0.000514238
0.00159106
0.00722716
0.00687603
0.00668229
0.00521388
0.0136297
0.00456163
0.006905
0.00679307
0.00673326
0.00354483
0.00622192
0.00473239
0.00672603
0.000622281
0.0067207
0.00673444
0.00723089
0.00585731
0.000875388
0.00672299
0.00481996
0.0107131
0.00134627
0.0021174
0.00677508
0.00678298
0.000902781
0.00672425
0.00681624
0.00141174
0.00678748
0.00674151
0.00673804
0.00381886
0.00671849
0.00112902
0.000694146
0.00703505
0.00244494
0.00603447
0.00254072
0.0321527
0.00673259
0.00672563
0.0067705
0.00673638
0.00676794
0.00675971
0.00157575
0.000936491
0.00678861
0.00682652
0.00680586
0.00706852
0.00662978
0.00145418
0.00670826
0.00132188
0.00672366
0.00677959
0.00708164
0.000599367
0.00676305
0.00131384
0.00675318
0.00678876
0.00667545
0.00126638
0.00323811
0.00476488
0.000902025
0.00677073
0.00676427
0.00673073
0.00673632
0.00734991
0.00681015
0.00191596
0.0114626
0.00678778
0.000575915
0.000434241
0.00302277
0.000749298
0.00680654
0.00237853
0.0067357
0.00670977
0.00671887
0.00672831
0.0151189
0.000714636
0.00671901
0.00798962
0.0040661
0.00671763
0.00413871
0.00670684
0.0014259
0.00683511
0.00671958
0.00244082
0.00679183
0.00693256
0.00328549
0.0013315
0.000554633
0.00676708
0.00672595
0.00670158
0.00128829
0.026731
0.000771449
0.00130262
0.00677018
0.0067399
0.0103899
0.0068201
0.00128867
0.00581228
0.0113608
0.00678579
0.000803738
0.00680806
0.00678397
0.0015692
0.00102274
0.00150721
0.0048458
0.00678679
0.00162363
0.00884135
0.00314961
0.00670886
0.00169616
0.000466697
0.00303065
0.000814095
0.0067915
0.0067889
0.00672456
0.00526734
0.0153614
0.00108431
0.00679674
0.0013309
0.00705896
0.0015463
0.00677317
0.00672695
0.00672191
0.00677781
0.00153738
0.0073644
0.00609604
0.00630199
0.0067555
0.00677899
0.000867415
0.00672389
0.00673463
0.00678677
0.0054616
0.000664149
0.00676524
0.00680378
0.00675402
0.00794844
0.00675747
0.00120925
0.00678362
0.00167918
0.00677178
0.00682056
0.00312488
0.00679139
0.00100784
0.00679227
0.00674328
0.00670962
0.0066812
0.000739445
0.00680276
0.00665679
0.00751903
0.00681764
0.00671821
0.00560307
0.00680643
0.00683107
0.00676454
0.00402289
0.00671722
0.00671697
0.00671064
0.0133526
0.00255715
0.0184671
0.0067901
0.00679996
0.000947175
0.0111553
0.0200073
0.00146828
0.00218681
0.0183264
0.00679409
0.0181313
0.00680367
0.000528382
0.00673259
0.00540508
0.0102402
0.00667801
0.00377553
0.00768763
0.0067123
0.00675359
0.00307854
0.0067184
0.0196473
0.00679204
0.00673168
0.00678482
0.00675691
0.00678154
0.000865265
0.00674881
0.0067151
0.00672317
0.00681977
0.00673001
0.0119427
0.006998
0.00659776
0.00679667
0.00687549
0.00229434
0.00675888
0.0067455
0.000489507
0.000728289
0.00676036
0.00671576
0.0218096
0.00515739
0.0264419
0.00863844
0.00665148
0.00670475
0.00671329
0.00627556
0.0120609
0.00686573
0.006729
0.00382974
0.000561146
0.000676761
0.0107621
0.00674267
0.00687509
0.00689304
0.00673423
0.00679042
0.0123096
0.0187405
0.0148734
0.0067262
0.0143892
0.0067883
0.00680435
0.00696062
0.00630791
0.00698957
0.00387518
0.00673487
0.00674909
0.00677159
0.00671663
0.00671296
0.00679223
0.00216602
0.0078138
0.00848976
0.00667553
0.00671207
0.00671307
0.00678773
0.00675114
0.00491069
0.00548344
0.0050581
0.00678147
0.0195514
0.00672422
0.00425264
0.00434819
0.00672148
0.0067401
0.00367574
0.00681857
0.00672348
0.00671408
0.00177975
0.00846548
0.000936452
0.00678347
0.00971694
0.00685303
0.0067261
0.00671009
0.00674147
0.0028917
0.00672341
0.00679104
0.000696696
0.00675998
0.0174038
0.00738042
0.00126608
0.00679216
0.00988698
0.000940718
0.0067939
0.00671231
0.00681528
0.00678483
0.00675187
0.0154696
0.00670759
0.00317044
0.00672689
0.00686991
0.0107783
0.00673464
0.0311452
0.000529549
0.00674821
0.00422457
0.00672797
0.0067933
0.0067217
0.00678642
0.00671557
0.00675764
0.00678438
0.00682118
0.00149439
0.00678528
0.00670726
0.00679023
0.0067151
0.00672393
0.00672721
0.00673096
0.00672014
0.00671345
0.00677007
0.006721
0.00673742
0.00676975
0.0193651
0.0068843
0.00680381
0.00516447
0.00741098
0.00679979
0.00391381
0.0067176
0.00712209
0.00674471
0.00685076
0.0153085
0.00667352
0.00671169
0.0066686
0.0110184
0.00680591
0.00756352
0.0143115
0.00673379
0.0111898
0.00677267
0.00413124
0.00341539
0.00725942
0.0289292
0.0144899
0.00671617
0.00672734
0.00677294
0.00295666
0.00114061
0.00669488
0.00393969
0.0100139
0.00673229
0.00138114
0.00377799
0.00686146
0.00670365
0.00158201
0.00147494
0.00676741
0.00673166
0.00679232
0.00403346
0.00348645
0.00510994
0.00301223
0.00457775
0.00973637
0.00675245
0.00680411
0.00672239
0.00101795
0.0066215
0.00699151
0.00145043
0.00397303
0.00648372
0.00674005
0.0070056
0.0067327
0.000844611
0.00672067
0.00674994
0.00381813
0.00439693
0.000743331
0.00673317
0.0209689
0.00305249
0.000553695
0.00787477
0.0137501
0.00673377
0.006722
0.00672351
0.00425997
0.00673352
0.00670541
0.00672908
0.00172525
0.0312967
0.0142607
0.00703032
0.00783366
0.00453923
0.000884808
0.0208318
0.00359475
0.00379359
0.000761403
0.00374385
0.0133099
0.00671122
0.00671111
0.00674279
0.00397088
0.00803073
0.00383626
0.00690261
0.00673871
0.00681814
0.0010063
0.00672422
0.00680587
0.00673319
0.00104127
0.00672243
0.0067253
0.00670724
0.00362856
0.0131044
0.00253592
0.00368074
0.00676744
0.00404101
0.00511306
0.00677583
0.00671495
0.00709425
0.00712013
0.00681051
0.00681504
0.00179568
0.00679343
0.00672757
0.00672824
0.00686354
0.00416565
0.00671477
0.00679254
0.00672474
0.00680281
0.00678258
0.00673777
0.00670979
0.00676515
0.00683066
0.0070199
0.00671526
0.00671012
0.00488749
0.00181314
0.00450561
0.00050569
0.00672397
0.0092127
0.00671268
0.00601933
0.00672464
0.00454355
0.00678141
0.00672013
0.00672011
0.0048091
0.00502963
0.00673009
0.00453223
0.00679499
0.00672646
0.00680611
0.00682711
0.0014846
0.00673107
0.0174534
0.0067638
0.00553951
0.00296021
0.00684624
0.000902173
0.00671011
0.0067642
0.00672213
0.0307698
0.00577222
0.0069125
0.00325377
0.000830455
0.00135489
0.00418652
0.00580277
0.00676677
0.00671225
0.00173093
0.0049868
0.0067118
0.00301121
0.00675114
0.00673465
0.0177277
0.00673862
0.00677775
0.00816676
0.00393105
0.0180034
0.00682442
0.00672894
0.00878429
0.00672451
0.00678222
0.00284948
0.00680677
0.00645164
0.00962643
0.0133117
0.00673182
0.00673036
0.0067225
0.00676555
0.0066088
0.00678642
0.00672232
0.00213883
0.00672832
0.00889976
0.00682794
0.00671017
0.0070753
0.0114242
0.00442046
0.0068253
0.000747287
0.00820567
0.00681779
0.00509888
0.00682488
0.00677915
0.00684956
0.00673908
0.00705029
0.00461021
0.00455581
0.00679504
0.00702762
0.00682365
0.00669801
0.00674379
0.00684217
0.00554435
0.00670324
0.00681356
0.00681987
0.00685738
0.0170809
0.00671969
0.00681083
0.00102378
0.00679267
0.00670601
0.00778278
0.0129575
0.0158995
0.0117808
0.000528242
0.00675414
0.00674816
0.0089061
0.00811326
0.00234546
0.0112514
0.00798686
0.00676632
0.0163768
0.018117
0.00681348
0.00503811
0.006773
0.0176264
0.00431697
0.0311396
0.00676339
0.0067496
0.00158804
0.00682897
0.00686167
0.006089
0.00682487
0.00674533
0.00673665
0.00679753
0.0315051
0.0067703
0.00675511
0.00672245
0.00671667
0.006729
0.00286281
0.00679
0.00672065
0.00685753
0.00248069
0.00654067
0.0163008
0.00678733
0.0067833
0.00666705
0.00676896
0.00672527
0.00671076
0.0107637
0.00679467
0.000951196
0.00672064
0.00687243
0.00670146
0.006793
0.00948962
0.000296182
0.00672173
0.00686841
0.0136541
0.0146284
0.00271983
0.0176696
0.00682178
0.00247118
0.00673127
0.00669856
0.00676583
0.00673311
0.00672988
0.00673168
0.00680812
0.0016469
0.00673408
0.00428554
0.0160786
0.00676097
0.000763575
0.00165593
0.00677376
0.00672552
0.00671248
0.00688513
0.00676303
0.00861382
0.00671896
0.00678292
0.00993187
0.00673502
0.00674012
0.00671388
0.00396502
0.00673271
0.00672855
0.013897
0.00672491
0.00672406
0.00676375
0.00876555
0.00673508
0.00669082
0.00673028
0.00674288
0.014673
0.00688121
0.00673646
0.00574058
0.00670752
0.0067644
0.00707765
0.0122519
0.00412353
0.00670122
0.00589615
0.00674262
0.00674252
0.00677252
0.00672557
0.00867167
0.00789898
0.00681201
0.00677888
0.00628827
0.00670957
0.00675042
0.0068968
0.00222794
0.0151322
0.00680976
0.00477031
0.00965833
0.00673865
0.00706674
0.00444805
0.0228217
0.00683231
0.00672797
0.00702557
0.0067906
0.00672183
0.0211526
0.00674581
0.0104955
0.000554645
0.00583046
0.00703696
0.0146396
0.00687395
0.00766511
0.0128924
0.00427676
0.00365667
0.00672759
0.00688348
0.00374601
0.00670368
0.00687559
0.00672563
0.00671232
0.00669108
0.0067139
0.00673487
0.00907838
0.00682354
0.0179218
0.00154304
0.000561595
0.00973669
0.00670237
0.00672209
0.00303879
0.000866468
0.00672302
0.00446879
0.00629939
0.00670535
0.00671933
0.0202758
0.00672401
0.00736106
0.00666676
0.00673033
0.0136132
0.0067811
0.00360254
0.00238384
0.00673027
0.00672888
0.00339792
0.00131716
0.00681778
0.0054708
0.0066915
0.00732926
0.00671823
0.0167003
0.00674106
0.00679526
0.00510723
0.00671922
0.0157699
0.00673202
0.0067124
0.00680026
0.00564854
0.00673578
0.00672061
0.0102105
0.00199001
0.00679942
0.00687935
0.00672498
0.00386178
0.00439181
0.0120435
0.000819232
0.00312598
0.00365373
0.00682093
0.00673754
0.00669074
0.00678636
0.00678603
0.00670009
0.00187829
0.00700437
0.0067212
0.0066807
0.00681718
0.006725
0.0068899
0.00760627
0.00966794
0.00410899
0.007429
0.000414531
0.0206844
0.00674776
0.0067203
0.00675762
0.00104951
0.00674505
0.00690612
0.0067166
0.00674543
0.00673163
0.000668035
0.00681462
0.0161207
0.0067222
0.0067459
0.01158
0.00135398
0.0069
0.00674006
0.00671901
0.0162793
0.00875943
0.00681147
0.00671099
0.00758444
0.00672201
0.00672967
0.00673157
0.000765956
0.00671226
0.0067161
0.0040477
0.00671454
0.000766626
0.00706232
0.00673982
0.00675385
0.00591074
0.0139941
0.0135306
0.0047861
0.00708258
0.00687717
0.00679255
0.00671737
0.0071355
0.00673366
0.00119924
0.0170328
0.00668631
0.00424118
0.010369
0.00673676
0.0137064
0.00694663
0.00149156
0.00772777
0.00671893
0.00672541
0.00678679
0.00672706
0.00887917
0.0156618
0.00485912
0.00680563
0.00674021
0.00671376
0.00828603
0.00689233
0.0122462
0.00671596
0.00684318
0.00366979
0.00675755
0.00562102
0.0129526
0.00672142
0.00683867
0.00669466
0.0068264
0.0061823
0.0289216
0.00671642
0.00675003
0.00675487
0.0149929
0.00672123
0.00221331
0.000744135
0.00415017
0.0287083
0.00222224
0.0156001
0.00672072
0.00150388
0.0067816
0.00676302
0.00286915
0.00513115
0.00671097
0.00678043
0.0106038
0.0068304
0.00679625
0.0082365
0.00676957
0.00677426
0.00911647
0.00698406
0.00671887
0.00670829
0.000966293
0.0123967
0.00293157
0.0178123
0.00703293
0.0163111
0.00670954
0.00931635
0.00440368
0.00771249
0.00870665
0.00698011
0.0124183
0.00517721
0.00116694
0.00672945
0.00670881
0.00676645
0.00679285
0.00629151
0.00671372
0.000848437
0.00679241
0.00703369
0.00685231
0.013368
0.00671408
0.0139181
0.00554723
0.00739108
0.0088796
0.00875601
0.00910993
0.00668656
0.0013657
0.00677315
0.00885058
0.00686827
0.0052964
0.00782241
0.00796149
0.00916744
0.00671543
5.04059e-05
0.00707833
0.00805297
0.00676515
0.00435795
0.00687327
0.00671412
0.00672271
0.00638634
0.00680535
0.00714536
0.00958459
0.00542043
0.00246415
0.00670358
0.0067112
0.0042193
0.00314017
0.00792647
0.0276761
0.0067448
0.00680925
0.0132274
0.000903986
0.00673606
0.0106428
0.00595931
0.00671695
0.00756508
0.0066906
0.00978101
0.0144742
0.0142691
0.0125316
0.00671244
0.0067256
0.00679086
0.00670542
0.00765766
0.00703619
0.00677421
0.0067175
0.0213192
0.00712728
0.00684127
0.0070489
0.0132374
0.00590653
0.00668088
0.00766852
0.00733246
0.0149374
0.00672207
0.0114556
0.00671333
0.000881987
0.00311484
0.0070056
0.0102219
0.00670051
0.0067563
0.00673058
0.00671176
0.00674736
0.00674239
0.00668785
0.0159133
0.00707138
0.00672998
0.0146314
0.00672662
0.00687233
0.00672775
0.0112393
0.00699977
0.00665847
0.0114963
0.00741614
0.00670539
0.00669009
0.0115613
0.00679582
0.0144743
0.00387313
0.00687092
0.00679298
0.00401432
0.00708752
0.0259115
0.00675419
0.00672274
0.00696501
0.0047322
0.00281205
0.0176467
0.00800193
0.00749055
0.0067932
0.0071768
0.00676161
0.0062943
0.0256137
0.00672378
0.0179195
0.00668762
0.00671487
0.00671743
0.00673886
0.00673556
0.00671836
0.00673438
0.006712
0.00719789
0.00730914
0.00646558
0.00709035
0.0024989
0.00183913
0.00673419
0.00671392
0.00153883
0.00668672
0.00747024
0.00672382
0.00700616
0.00671853
0.0067053
0.0103421
0.0067265
0.00670968
0.0134617
0.0268735
0.00802043
0.00671872
0.0301032
0.00679931
0.00981993
0.0167912
0.00693858
0.0271067
0.00671992
0.00669907
0.0143655
0.00670345
0.000866088
0.022208
0.0119572
0.00705637
0.000285126
0.00692985
0.00673297
0.0069223
0.00672243
0.00939571
0.00944491
0.00671422
0.0111147
0.0188205
0.00668885
0.00673119
0.00759483
0.00700063
0.00424671
0.00633032
0.012049
0.0154168
0.00678438
0.00914452
0.0110206
0.00723757
0.025473
0.00735893
0.0121705
0.00668364
0.00765186
0.00702185
0.00671137
0.00719769
0.00853631
0.00397114
0.0066803
0.00839019
0.00670283
0.0067207
0.030259
0.00554123
0.00671648
0.00716398
0.00558121
0.00673573
0.00641393
0.00671822
0.00775251
0.00172642
0.00676454
0.00678835
0.00925102
0.00285726
0.0110603
0.00739179
0.00692639
0.0167151
0.00670896
0.0133044
0.00465546
0.00678462
0.00914695
0.00687765
0.0069515
0.00673175
0.0321236
0.00675815
0.0070205
0.00669972
0.00679989
0.00672621
0.0069461
0.00157554
0.017373
0.00672058
0.0247149
0.0126058
0.00669732
0.00671505
0.016118
0.00543964
0.000999469
0.0127026
0.0120228
0.00672008
0.00678559
0.00784787
0.00749101
0.0109828
0.00449111
0.0067153
0.00677501
0.00705222
0.00669351
0.00674138
0.00121594
0.00672966
0.00698879
0.0067148
0.00673091
0.00112604
0.00668467
0.00155762
0.00842764
0.00676932
0.00671349
0.00671867
0.00481353
0.00668037
0.00674384
0.00703524
0.0144177
0.00780444
0.00691065
0.00173916
0.00671767
0.00704774
0.00672363
0.0132544
0.00388549
0.00894209
0.00308589
0.00240861
0.00867503
0.000993614
0.00672145
0.00699718
0.0066814
0.00669504
0.00771852
0.00671237
0.0161281
0.012695
0.00607955
0.00338309
0.0069968
0.00927733
0.00741794
0.00670701
0.00324192
0.0026821
0.0116401
0.00674789
0.00670933
0.00670871
0.00281153
0.00807294
0.00866735
0.0139944
0.00671104
0.00181048
0.00671987
0.0128352
0.00709022
0.00671676
0.00744792
0.00700095
0.00760472
0.00841268
0.00678913
0.00668259
0.00709058
0.00780164
0.00696424
0.00679329
0.007063
0.0156037
0.0117554
0.00673073
0.00769086
0.00673509
0.00706933
0.0068813
0.0113578
0.00670301
0.0070814
0.00918322
0.0067216
0.00671197
0.00558747
0.00980913
0.00678163
0.00685194
0.00679161
0.00671579
0.00672318
0.0110783
0.0135789
0.00677037
0.00721133
0.00671422
0.00671969
0.00672059
0.00674351
0.0140751
0.0137919
0.00571442
0.0151159
0.00670244
0.00764746
0.00670381
0.00716877
0.0173989
0.006986
0.00169304
0.00671349
0.00432485