/*--------------------------------*- C++ -*----------------------------------*\
| =========                 |                                                 |
| \\      /  F ield         | OpenFOAM: The Open Source CFD Toolbox           |
|  \\    /   O peration     | Version:  v2012                                 |
|   \\  /    A nd           | Website:  www.openfoam.com                      |
|    \\/     M anipulation  |                                                 |
\*---------------------------------------------------------------------------*/
FoamFile
{
    version     2.0;
    format      ascii;
    class       volScalarField;
    location    "100";
    object      omega_0;
}
// * * * * * * * * * * * * * * * * * * * * * * * * * * * * * * * * * * * * * //

dimensions      [0 0 -1 0 0 0 0];


internalField   nonuniform List<scalar> 
9793
(
0.070783
0.186999
0.0684775
0.0210172
1.67593
0.023275
0.021959
0.020788
0.0215765
1.70488
0.0480344
0.0719117
0.021068
0.0206095
0.0230167
0.0204784
0.0218821
0.0235447
1.28334
0.0205617
0.306302
0.0230115
0.378798
0.019571
0.0220779
0.0211761
0.0205087
0.0210693
0.0379105
0.0215662
0.0339372
0.356587
0.337928
0.0216865
0.0421326
1.23983
0.0226083
0.0229951
0.0208717
0.0210501
0.0335346
0.0230217
0.022263
0.0220997
0.0222858
0.0213834
0.0406845
0.0207133
0.057841
0.0209881
0.0433819
0.0517635
0.0234975
0.0216032
0.113161
0.971756
0.0214421
0.0800234
0.584884
0.020861
0.0216277
0.0233541
0.1048
0.0219646
1.75606
0.239511
0.197294
0.0700221
0.0654554
0.0473051
0.118223
0.020905
0.0211646
0.223134
0.0477096
0.621404
0.0214353
0.0203246
0.0224764
0.0213429
0.156827
0.0224057
0.156225
0.0371015
0.0306976
0.0380493
0.0216082
0.0214302
0.0227628
0.0227924
0.174332
1.30174
0.0205353
0.305948
0.0230118
0.0412239
0.862806
0.155964
0.0204686
0.0203423
0.0203219
0.0222423
0.0204222
0.0204067
0.0204058
0.030301
0.0225853
0.0217839
0.0230867
0.225869
0.0211026
0.135728
0.0214232
1.24426
0.051294
0.0214445
0.409896
0.0463582
0.0229208
0.25134
0.207222
0.022822
0.0213413
0.023622
0.021866
0.221537
0.0351029
0.0433665
0.0230396
0.0211733
0.0215116
0.0214396
0.0211765
0.0223012
0.021544
0.0214269
0.0223374
0.0219175
0.0214153
0.0199589
0.0213303
0.0219055
0.0212218
0.0203888
0.0207282
0.0210992
0.223649
0.0203962
0.020427
0.857031
1.65618
0.0215099
1.73653
1.6982
0.0203928
0.0222393
0.0205944
0.021776
0.0203525
0.0211678
0.020793
0.0210661
0.0202522
1.2658
0.222711
0.545061
0.0272917
0.025059
0.0204277
0.0214963
0.0212831
0.607077
0.222075
0.611403
0.0218113
1.30516
0.0214355
0.0195785
0.0212022
0.0259593
0.336277
0.0221687
0.020369
0.0219344
0.726273
0.0211474
0.0885834
0.0211961
0.0213168
0.0202723
0.0218169
0.021336
0.0536698
0.17823
0.0687877
0.0257246
1.40058
0.0214156
1.65973
0.0200226
0.021536
1.31464
1.22018
0.0211775
0.0214349
0.0202776
0.882656
0.0203572
0.0280339
0.0223028
0.028677
0.0526378
0.0588808
0.0216279
1.56429
0.0204987
0.0216284
0.740777
0.0202819
0.0849196
0.0576251
0.0213762
0.0218722
0.0213384
0.0403212
1.29717
0.0232816
0.0203752
0.0585489
0.0407964
0.0196136
0.0195773
0.0222305
0.020152
0.0391134
0.0817788
0.0213964
0.0211665
0.519202
0.0219836
0.0277234
0.0206608
0.0210976
0.297968
0.0211146
0.0204268
0.0207772
0.0217469
0.0204709
0.0215756
0.0217535
0.0234776
0.0481627
0.0370858
0.0210366
0.0237058
0.0212576
0.0237327
0.023483
0.0203177
0.296236
0.0211384
0.0478593
0.0213134
0.0254162
0.0197317
0.0196914
0.0286112
1.28542
0.0223261
0.0203541
0.0200406
0.0260053
0.0213961
0.195083
0.199785
0.0211821
0.310592
0.0213821
0.0371813
0.0216488
0.0196585
0.0222071
0.0209299
0.0350638
0.0213726
0.0217521
0.024535
0.0211098
0.0214263
0.0214038
0.388462
0.0225666
0.0227137
0.0215499
0.0222735
0.0220133
0.0249951
0.0212504
0.605134
0.0203951
0.0910939
0.439465
0.0221638
0.0220622
0.0203763
0.0267766
0.023925
0.0215418
0.0766604
0.0217951
0.0203585
0.0240939
0.0219135
0.0215542
0.0223401
0.0397231
0.0210923
0.0251371
0.022347
0.0209958
0.221614
1.52839
0.222442
0.0199285
0.263072
0.0221206
0.49701
0.052998
0.0201171
0.0228535
0.0524796
0.0219038
0.0261594
0.0553316
0.0207532
0.0221224
0.0215182
0.0209823
0.0211915
0.495196
0.0211999
0.0209836
0.660363
0.0220013
0.0204318
0.019915
0.0223446
0.0207663
1.15803
0.0219324
0.0213865
0.0217312
0.0222231
0.578118
0.0215794
0.0332894
0.0195901
0.0324938
0.119605
0.0886805
0.0342929
0.0223008
0.023247
1.57714
0.0216714
0.280376
0.022052
0.0201991
0.45477
0.0258672
1.49653
0.0213902
0.0415011
1.22468
0.0234538
0.0211194
0.373144
0.0246479
0.222869
0.0237335
0.0215521
0.773889
0.0212814
0.0222472
0.0215188
0.0212954
0.0205614
0.0215791
0.0233002
0.5662
0.0217205
1.04772
0.18884
1.56645
0.041072
0.218798
0.0209425
0.0215174
1.52942
0.157654
0.0206905
0.0217984
0.954634
0.0200264
1.22935
0.0211952
0.0233273
0.0200073
0.0298944
0.021193
0.0251065
0.429811
0.0203959
0.382332
0.0279147
0.0220173
0.0279572
0.0218002
0.0223697
0.0211699
1.3859
0.021355
0.0215763
0.0546755
0.0215343
0.0234469
0.0221187
0.020205
0.0266478
0.0211786
0.0215894
0.0199467
0.389562
0.0209212
0.387656
0.0215065
0.222879
0.0232289
0.0217083
0.0224658
0.0217218
0.672611
0.0214021
0.0820111
0.0203313
0.0213038
0.0222326
0.968334
0.0359802
0.119692
0.0281031
0.0235449
0.0212673
0.039955
0.026447
0.0290334
0.183763
0.321756
0.0216822
0.0245667
0.0415543
0.0213478
0.0227563
0.0213268
0.0204136
0.0219539
1.23983
0.0251216
0.752108
0.0204338
0.0272187
0.0195615
0.0215623
0.0215148
0.022442
0.0401177
0.0216203
0.0231623
0.0199999
0.0214331
0.0239533
0.166166
0.0212273
0.0212653
0.419509
0.0247608
0.0219375
0.178674
0.0625354
0.0212714
0.0216673
0.0223679
0.0239926
0.0216063
0.0225522
0.022205
0.0215346
0.0212915
0.0210566
0.222825
0.052832
0.0205924
0.699892
0.0313514
0.0203942
0.0225776
0.0224988
0.0944496
0.0216278
0.415684
0.0201567
0.0211167
0.0447904
0.0213061
0.0303719
0.466878
0.0258778
0.0203888
0.902457
0.0245191
0.0205858
0.0212644
0.0481332
0.0209119
0.0205646
0.021273
0.0209064
0.316885
0.0391841
0.0305458
0.022878
0.0212148
0.0210369
0.0214957
0.0209598
0.0212907
0.0609871
0.0956026
0.0200615
0.0239059
1.59795
0.0214178
0.0214979
0.03406
0.0208109
0.0505689
0.766286
0.0213902
0.11856
0.0196774
1.25595
0.0243259
0.686188
0.0211365
0.0210747
0.0219121
0.157929
0.0233568
0.336169
0.139934
1.82528
0.0312078
0.309387
0.0289338
0.0230441
0.0281631
0.0235446
0.30682
0.0215762
0.51243
0.0199128
0.233249
0.0220567
0.0219117
0.0210186
0.128215
0.0199551
0.0206718
0.0221893
0.0225327
0.0255835
0.0211794
0.0212698
0.0213838
0.0213557
1.34389
0.0209849
0.323724
1.14122
0.0209969
0.0218709
0.0278761
0.0217974
0.0213208
0.0218214
0.0235375
0.0243141
0.0221251
0.0225322
0.0205118
0.0228859
0.0221336
0.023815
0.0218651
0.0224655
0.173057
0.0213711
1.42949
0.0243029
0.0220949
0.0212805
0.020741
0.0236352
0.024247
0.0210953
0.0214295
0.0195307
0.021064
0.0214045
0.0211765
0.0235185
0.0198619
0.0219115
0.0218873
0.0215548
0.0233833
0.022174
0.0291874
0.0224408
0.0210291
0.0212903
0.0205608
0.0199602
0.0208673
0.0199906
0.0209642
0.0213774
0.0199428
0.0310463
0.0210276
0.0222869
0.0213569
0.493269
0.0210427
0.0199939
0.0471822
0.0196688
0.0218481
0.136318
0.0221162
0.0225837
0.0214032
0.0803543
0.0207503
0.0443791
1.8175
0.477995
0.0764886
0.0217546
0.0213652
0.334031
0.0236877
0.0199631
0.220605
0.422649
1.54037
0.021301
0.051815
0.021368
0.02135
1.22555
0.021191
0.587975
0.0235104
0.052632
0.021012
0.0231142
0.0220834
0.127938
0.158057
0.0212427
0.0229529
0.0256962
0.0209581
0.0237772
0.0444914
0.200708
0.0211069
0.0223092
0.0236319
0.478952
0.0252392
0.414816
0.19141
0.0215455
0.0287501
0.12475
0.0210437
0.0211636
0.0221449
0.0224178
0.0199372
1.22639
0.0199344
0.324683
0.022741
0.0565664
0.0471582
0.0215117
0.106514
0.576852
0.0218238
0.750079
0.0281382
0.0642895
0.0199499
0.0196541
0.323917
0.0214478
0.184405
0.0209786
0.153689
0.0205023
0.0479001
0.316259
0.0215037
1.03142
0.021435
0.0222548
0.032152
1.0665
1.0107
0.0199829
0.0205235
0.0200134
0.472311
0.778636
0.0229245
0.0251808
0.019555
0.0199806
0.0210025
0.0224306
0.580969
0.0257405
0.0215541
0.0208562
0.020824
0.0504349
1.47072
0.177731
0.0205702
0.0209331
0.556189
0.0211764
0.724538
0.0373616
0.333799
0.25283
0.164045
0.0208651
0.0215172
0.022977
0.0220591
0.0240136
0.0212216
0.0514472
0.339528
0.0204333
0.589707
0.0208148
0.610811
0.0216397
0.277514
0.0246771
0.0248328
0.0211318
0.0205585
0.0415488
0.435767
0.15015
0.0214901
0.030537
0.0214761
0.0225914
0.0233666
0.243772
0.0245641
0.0643534
0.0208558
0.0260853
0.0212151
0.0198846
0.0217435
0.0209613
1.68501
0.0211513
0.0226356
0.0225163
0.0219596
0.0199247
0.0475476
0.0213949
0.0220085
0.0208801
0.0210143
0.147029
0.0210543
0.131974
0.0204468
0.0316617
0.0208482
0.574689
0.0209145
0.0766943
0.0216563
0.0214954
0.0208906
0.103299
0.161113
0.605856
0.151358
0.636483
0.021437
0.0228717
0.160806
0.01997
0.314439
0.304808
0.0474144
0.0859409
0.0225414
0.126697
0.0245528
0.379921
0.156453
0.0224642
0.0216059
0.137974
0.417462
0.0242141
0.0235296
0.021206
0.022563
0.0314113
0.0208589
0.0199465
0.0221075
0.125777
0.0320604
0.0233482
0.479117
0.0209092
0.0200056
0.239984
1.34009
0.0323377
0.0220853
0.107433
0.0205602
0.0199543
0.425417
0.0199283
0.0223995
0.117167
0.112804
0.0218205
0.597971
0.130199
0.0687345
0.353541
0.231693
0.0225162
0.0399505
0.0217727
0.020845
0.0213663
0.0214218
0.0219294
0.468539
0.0223836
0.426179
0.0202326
0.0370305
0.021915
0.0321986
0.0247555
0.0217466
0.037345
0.0202776
0.0199676
0.0650105
0.0231613
0.0272964
0.0217915
0.0201013
0.134907
1.21001
0.0211142
0.0195515
0.0195399
0.0206429
0.0229208
1.39581
0.0638109
0.358819
0.0299839
0.306832
0.0217306
0.0282307
0.0259382
0.0232113
0.0840915
0.0211466
0.0210242
0.682715
0.0315867
0.308858
0.0210869
0.481732
0.28074
0.0243398
0.0355717
0.023037
1.43164
0.0215135
0.024067
0.196411
0.0244125
0.0211018
0.0911942
0.0217306
0.0205281
0.0210046
0.151165
0.0218209
0.0247498
0.488123
0.0343403
0.0249242
0.0304487
0.0620162
0.0545599
0.0519304
0.0199821
0.0215238
0.0219926
0.0246057
0.0212057
0.625772
0.20432
0.0230585
0.620645
0.0871822
0.209932
0.0215509
0.16976
0.0212595
0.104041
0.0603702
0.0206809
1.04033
0.325645
0.0208627
0.0214808
0.0214109
0.184285
0.608823
0.0255806
0.046749
0.0399707
0.149828
0.275485
0.256025
0.0218122
0.0213974
0.395083
0.4561
0.0211113
0.0213939
0.01999
0.0218227
0.0216217
0.0239815
1.34473
0.0213285
0.0246083
0.386579
0.0216726
0.0218805
0.0242576
0.623431
0.0215319
0.0249173
0.0495375
0.0218209
0.0200753
0.021883
0.020918
0.0224779
0.323183
0.0668122
0.0218482
0.0478652
0.0256559
0.158317
0.0213579
0.0236013
0.0222995
0.0218208
0.141737
0.0223906
0.0222522
0.0255866
0.0224758
0.0204782
0.0245036
0.0212293
0.0791103
0.0215019
0.0210548
0.641209
0.0211159
0.237743
0.0271482
0.0209761
0.583474
0.0242519
0.029199
0.472022
0.020264
0.596605
0.0209897
0.0213857
0.87975
0.450859
0.0202845
0.0214899
0.0207384
0.0216497
0.067728
0.0222339
0.0217526
0.0220836
0.0224069
0.0219486
0.0213466
0.0202312
0.0209682
0.021191
0.0133344
0.0240503
0.0200014
0.0356301
0.0225116
0.484624
0.0929905
0.0302611
0.0214745
0.0212491
0.0603642
0.0233672
0.0214219
0.0217672
0.295069
0.108381
0.0213679
0.0198279
0.0558661
0.0453576
0.0196231
0.380192
0.0341719
0.0215356
0.0218451
0.0441706
0.0216017
0.0287362
0.177241
0.0221049
0.0582951
0.0616893
0.0266312
0.0198292
0.0213575
0.0198452
0.0198294
0.109249
0.0211136
0.0486776
0.0444762
0.0198352
0.0218869
0.0312629
0.0215218
0.0216497
0.021391
0.0227421
0.42076
0.0198402
0.0215006
0.318626
0.0227979
0.0216027
0.0253554
0.0211318
0.0216253
0.0212049
0.0214956
0.0215388
0.0217873
0.0786528
0.0473878
0.0198403
0.0214268
0.0198393
0.0735725
0.0210244
0.0242777
0.0213077
0.0202691
0.0252445
0.0204208
0.0273609
0.0214082
0.0204363
0.23244
0.470231
0.0217754
0.0216336
0.0209673
0.359024
0.0745042
0.0213932
0.391015
0.236999
0.0215764
0.0416687
0.312691
0.0234539
0.303139
0.0427017
0.571169
0.0212111
0.0309147
0.0785643
0.0203793
0.232387
0.370469
0.0213901
0.608363
1.28703
0.0239576
0.286887
0.0198355
0.025442
0.0400545
0.0212494
0.140892
0.0198382
0.036198
0.0541204
0.0198321
0.0464322
0.0219228
0.0219711
0.0298199
0.0232408
0.193785
0.636347
0.0201335
0.0234748
0.270018
0.0207398
0.0239202
0.0208232
0.312953
0.18421
0.0216582
0.0216906
0.0241466
0.235796
0.318289
0.0269001
0.0198423
0.0209045
0.401641
0.607355
0.35602
0.0228078
0.0229899
0.0246739
0.0200768
0.0223532
0.0245243
0.0232267
0.0209011
0.0243956
0.369388
0.392762
0.0209805
0.144052
0.024063
0.291417
0.476294
0.0420069
0.188248
0.346974
0.0198463
0.0972504
0.103855
0.0720131
0.231252
0.0213058
0.104551
0.20024
0.0381493
0.0245178
0.230252
0.254757
0.0210985
0.0243126
0.0237166
0.0212282
0.0598807
0.0212919
0.0219622
0.020668
0.0198477
0.0218633
0.0213684
0.0227004
0.0244852
0.342205
0.0244658
0.179875
0.0208346
0.0252004
0.0215568
0.265541
0.589883
0.0212012
0.0400855
0.0221068
0.020241
0.0213007
0.0202377
0.0210993
0.0787803
0.0216007
0.0484901
0.0216288
0.0209557
0.376132
0.0225095
0.0217878
0.0211391
0.0213203
0.413649
0.0596786
0.473471
0.155963
0.624481
0.0215231
0.0217276
0.0217879
0.0234926
0.0425985
0.0688454
0.665638
0.0209826
0.0380087
0.0220585
0.0587423
0.322977
0.0239342
0.49966
1.5971
0.0226569
0.0363453
0.0209149
0.0399776
0.0235417
0.0750416
0.0384068
0.0198499
1.00344
0.0508066
0.0216488
0.0225885
0.0218509
0.154308
0.021982
0.0217053
0.374239
0.0208189
1.09504
0.0271825
0.0238963
0.0220421
0.0217723
0.0275982
0.0211614
0.0931547
0.0237186
0.0213172
0.0207493
0.0457577
0.0226198
0.524807
0.0230831
0.0245182
0.024345
0.0584143
0.0227319
0.0213555
0.222697
0.0216756
0.0204211
0.10675
0.22369
0.0244536
0.0205529
0.0227721
1.23945
0.0529101
0.0211631
0.0260857
0.0206918
0.0836208
0.0481948
0.0218888
0.0211358
0.0743343
0.0209724
0.0207575
0.0213764
0.069406
0.911493
0.0232282
0.0242605
0.0217588
0.0219751
0.291191
0.031475
0.0213235
0.0217015
0.0210595
0.101914
1.31333
1.08028
0.021239
0.112424
0.0202464
0.0202148
0.02322
0.0219302
0.0364298
0.0213574
0.0528569
0.215139
0.82171
0.0235024
0.0215075
0.0215395
0.0348844
0.0206518
0.0213512
0.0326891
0.0215036
0.0212794
0.0222341
0.0242736
0.0200228
0.40212
0.0375797
0.0240417
0.0230712
0.0294104
0.0228884
1.64757
0.0213738
0.0212671
0.0214936
0.0210736
0.0214738
0.0209012
0.108246
0.0772193
0.0215784
0.0221142
0.0213181
0.0239768
0.0229978
0.0507308
0.022014
0.220479
0.0213103
0.0218439
0.021567
0.0661834
0.0214968
0.246656
0.0214943
0.0215275
0.019552
0.282838
0.022866
0.0775646
0.334408
0.0219633
0.0214885
0.0211497
0.0214114
0.0225317
0.022056
0.0240605
0.47282
0.0215795
0.0390885
0.0473984
0.023092
0.0850297
0.0215649
0.0230845
0.0209984
0.0203657
0.0202564
0.0213606
0.222651
0.0724784
0.0208411
0.31409
0.052527
0.0212576
0.545571
0.0203423
0.0325548
0.0222051
0.0210357
0.359127
0.021498
0.022607
0.0238463
0.0519468
0.0651922
0.0219571
0.0209854
0.0224733
0.643485
0.606989
0.0338896
0.0255744
0.0214663
0.0214159
0.181367
0.0218629
0.0273987
0.0316598
0.289186
0.0214802
0.032676
0.0215304
0.0218081
0.031788
0.0286187
0.0304715
0.0220429
0.0218524
0.0248522
0.299443
0.0465174
0.0204137
0.0242344
0.0776075
0.0230888
0.0362171
0.0216246
0.0217329
0.0213482
0.040028
0.579706
0.0459556
0.0214948
0.563725
0.0240278
0.0254231
0.0215143
0.0213495
0.0213675
0.0199287
0.0510477
0.0244303
0.0223038
0.0220149
0.0213633
0.0214683
0.141717
0.0214171
0.0214011
0.0217677
0.397337
0.0642655
0.0214541
0.0212377
0.0214872
0.225495
0.0220805
0.0957007
0.0214855
0.0498483
0.0214601
0.0217652
0.0432624
0.0216925
0.0298048
0.0217063
0.0214628
0.0203553
0.0225623
0.13161
0.0219195
0.0219477
0.1323
0.0216194
0.0224074
0.0219935
0.0216379
0.0213529
0.0219626
0.0518182
0.0207697
0.0208291
0.0209551
0.354708
0.0236702
0.391584
0.0215268
0.0217751
0.022849
0.267642
0.268511
0.0248949
0.0306492
0.266768
0.0215243
0.363947
0.0223175
0.0962816
0.0209826
0.115616
0.281468
0.0195635
0.0234453
0.0232011
0.0224082
0.0199256
0.0229132
0.0209023
0.272382
0.021676
0.0213993
0.0217841
0.0199414
0.0218086
0.099896
0.0213577
0.0211469
0.02115
0.0216836
0.0213803
0.439301
0.358586
0.0453513
0.0215235
0.0203926
0.0233058
0.0214882
0.0213363
0.0896859
0.0360813
0.0228635
0.0213249
0.600346
0.0225898
0.591758
0.28474
0.0227922
0.0203187
0.021289
0.0316334
0.391334
0.0217083
0.0212319
0.0456995
0.104158
0.0398443
0.547264
0.0213147
0.0240021
0.0237348
0.0199206
0.0217416
0.350596
0.472408
1.21649
0.0212768
0.557995
0.0217344
0.0215307
0.0245122
0.0218908
0.0245095
0.0328166
0.0212493
0.021487
0.0213541
0.0208902
0.0199752
0.0212042
0.0244274
0.225403
0.0279342
0.0195543
0.0200036
0.0212759
0.0218162
0.0213472
0.0841293
0.0219327
0.0219771
0.0219052
0.267911
0.0212578
0.0230666
0.0597178
0.0213098
0.021293
0.805654
0.0213118
0.0213672
0.0212303
0.176291
0.0280401
0.0360952
0.0217853
0.99572
0.0203282
0.0201948
0.0204268
0.0212691
0.0370246
0.0212759
0.0216531
0.038327
0.0213685
0.382303
0.0249757
0.0276748
0.0217364
0.298882
0.0292089
0.0214981
0.0211393
0.0220218
0.0215616
0.021339
0.369739
0.0209757
0.0465506
0.0211833
0.0218974
1.50067
0.0210925
1.12208
0.0692142
0.0213154
0.0565243
0.0211657
0.0219113
0.0212575
0.0217699
0.0207478
0.0213497
0.0213437
0.0214509
0.0987386
0.0215085
0.020971
0.0218056
0.0208071
0.0212192
0.0212216
0.0214254
0.0205428
0.0213118
0.0213045
0.0213788
0.0212713
0.0219178
0.884714
0.0213873
0.0219696
0.0427687
0.204233
0.0200863
0.0244931
0.020991
0.0217575
0.0213021
0.0216135
0.689865
0.192675
0.0211198
0.0228787
0.166867
0.021605
0.0302184
0.529892
0.0199492
0.78558
0.0214871
0.0566584
0.0238321
0.205476
1.3817
0.471749
0.0210018
0.0211251
0.0200325
0.0243346
0.0561259
0.0226172
0.0571466
0.200926
0.0213866
0.246225
0.0428027
0.0209403
0.0204066
0.031811
0.030419
0.0213278
0.0210466
0.0201439
0.0242362
0.024119
0.0246196
0.0239984
0.024408
0.475271
0.0211124
0.0213279
0.0211692
0.187123
0.0244614
0.0245364
0.139941
0.118968
0.0335014
0.0210687
0.0243185
0.021237
0.0313433
0.0213597
0.022061
0.0431913
0.0249634
0.048414
0.0198568
0.27541
0.034988
0.0743195
0.14309
0.53866
0.0211406
0.0213483
0.0213385
0.0552691
0.0214177
0.0208902
0.0213418
0.0288207
1.14694
0.222104
0.0241657
0.0255161
0.0454394
0.0346094
0.269464
0.0426866
0.0404826
0.0342577
0.0611125
0.216396
0.0211198
0.0211329
0.0211664
0.0485931
0.0267089
0.040527
0.020857
0.0212564
0.0213261
0.168019
0.0211904
0.0212735
0.0210801
0.0321394
0.0209602
0.0211726
0.0203322
0.0255271
1.2987
0.0282094
0.0239096
0.0215091
0.535691
0.0276007
0.0199421
0.0213296
0.0308112
0.199516
0.0216039
0.0216863
0.164577
0.0212233
0.0210202
0.0209769
0.0216218
0.0383294
0.0210127
0.0215511
0.0211319
0.0216984
0.0212952
0.0211664
0.0210673
0.0212771
0.0214507
0.0397859
0.021249
0.0207008
0.0419437
0.0504424
0.0338413
0.0550933
0.0209947
0.227099
0.021291
0.0330103
0.0211016
0.0516831
0.0211777
0.021238
0.0201741
0.0497368
0.024528
0.0212154
0.889122
0.0212871
0.0201772
0.0213047
0.0220551
0.0260373
0.0209697
0.633865
0.0214613
0.0396469
0.0396957
0.0214963
0.0302776
0.021012
0.0206945
0.0211987
1.16291
0.0259636
0.021657
0.0387113
0.493641
0.0252252
0.0400426
0.0246217
0.021335
0.0198088
0.170641
0.0508801
0.0209893
0.034974
0.0209124
0.0210399
0.469247
0.02054
0.021324
0.139329
0.0388569
0.674516
0.0214004
0.0210542
0.0294852
0.0209508
0.0200871
0.532189
0.0212902
0.0256056
1.01384
0.783135
0.0213354
0.0223344
0.0211391
0.0198741
0.0248617
0.0215833
0.0214085
0.0331331
0.0207193
0.0241889
0.0214561
0.0225327
0.0238052
0.581828
0.0243313
0.0219001
0.140226
0.116548
0.0213412
0.0480652
0.0217967
0.021315
0.0214838
0.020993
0.0240704
0.075825
0.0421931
0.0212417
0.0241959
0.022039
0.0197647
0.0210644
0.0214153
0.0250073
0.0208208
0.0212236
0.0222092
0.0216254
0.616132
0.0213718
0.0224079
0.0450204
0.0226569
0.0202382
0.217875
0.438993
0.582811
1.38659
0.0556549
0.0206053
0.022168
0.455282
0.496035
0.0952023
0.265121
0.209515
0.0214808
0.288647
0.673635
0.0215702
0.0423531
0.0219144
0.672457
0.0685488
1.18243
0.0220319
0.0210214
0.049585
0.0213796
0.0215393
0.144503
0.373042
0.0213459
0.0214201
0.0211606
1.17046
0.021135
0.021096
0.0212381
0.0210129
0.0210328
0.0316341
0.0218074
0.0209702
0.0215538
0.0299652
0.408564
0.653747
0.0213375
0.0211957
0.022705
0.0213138
0.0210069
0.0211326
1.54572
0.0212992
0.032653
0.0211477
0.0217039
0.0203098
0.0213681
0.375561
0.170117
0.0205689
0.0220301
0.221819
0.553277
0.196697
0.685611
0.0214105
0.0300267
0.0211289
0.0197535
0.02115
0.0201992
0.0210866
0.0212537
0.0216584
0.107437
0.0199331
0.207453
0.664711
0.0198843
0.0896324
0.0425262
0.0219243
0.0211426
0.0212112
0.0213806
0.0210574
0.121207
0.0198223
0.0211075
0.476734
0.0211233
0.0213034
0.0209901
0.0482866
0.021382
0.0213694
0.620578
0.0207063
0.0206393
0.0211332
0.0284458
0.0212595
0.0196276
0.0211175
0.0199431
0.559239
0.250572
0.0210532
0.128836
0.0197929
0.0212876
0.0225203
0.284493
0.117483
0.0200217
0.0241285
0.0213246
0.0211743
0.0211523
0.0211126
0.170994
0.12433
0.0213705
0.0218757
0.0276195
0.0209671
0.0210973
0.0244117
0.0269257
0.605687
0.0213802
0.0238522
0.19867
0.0211491
0.0239933
0.0558594
1.39169
0.0206069
0.0209545
0.0213583
0.0211858
0.0209822
0.271417
0.0210788
0.26487
0.00878853
0.0218297
0.0240175
0.226487
0.0202723
0.399699
0.355591
0.125697
0.0255491
0.0211942
0.0224339
0.0907449
0.0208239
0.0222157
0.0209633
0.0200342
0.0200847
0.0201571
0.0211533
0.332623
0.0217113
0.467344
0.0731242
0.0651745
0.440522
0.0197795
0.021378
0.0225005
0.0120716
0.0211798
0.0576168
0.0327814
0.0200199
0.0209359
0.266375
0.0209285
0.0279255
0.196953
0.0210665
0.238814
0.0218404
0.0403036
0.13355
0.021389
0.0206364
0.0376875
0.0692072
0.0212941
0.0226206
0.0201882
0.0216937
0.02087
0.376798
0.0210072
0.0200192
0.0405635
0.0201397
0.250244
0.0214079
0.0211807
0.0211808
0.357034
0.0209766
0.0208935
0.745827
0.113356
0.0387459
0.0214621
0.0201611
0.0328294
0.0616409
0.375217
0.130635
0.0237907
0.0241953
0.0216388
0.0212818
0.0245439
0.0217717
0.0211263
0.0203804
0.0996336
0.0245096
0.0209262
0.0196245
0.021582
0.0206196
0.021456
0.0276252
0.466472
0.0667011
0.0270033
0.0570055
0.387328
0.0206998
0.0209478
0.0220116
0.0323034
0.0201768
0.0215777
0.0209121
0.0210044
0.0211605
0.0446021
0.0213637
0.545631
0.0212671
0.0208703
0.358139
0.0351798
0.0215651
0.0208845
0.0208513
0.614063
0.0489543
0.021536
0.0202513
0.0230713
0.0209381
0.0212422
0.0210252
0.0925053
0.0210016
0.0208477
0.0394435
0.0204885
0.0585371
0.0240149
0.0210478
0.0213267
0.0622472
0.518667
0.350712
0.159236
0.0238037
0.0223059
0.0216738
0.021246
0.0295603
0.0208361
0.0269313
0.747922
0.0227755
0.0382372
0.188964
0.0208594
0.40599
0.0268003
0.942701
0.0236926
0.0207918
0.0208105
0.0217499
0.0210939
0.440619
0.393173
0.273199
0.0212571
0.0209093
0.0208564
0.372956
0.026516
0.362282
0.0208789
0.021316
0.29651
0.0210387
0.167597
0.48516
0.0208743
0.0215014
0.01974
0.0212633
0.164249
1.49485
0.0208586
0.0210759
0.0207337
0.228035
0.0211581
0.0232562
0.119683
0.0360926
1.57581
0.100485
0.578299
0.0212474
0.025975
0.0215437
0.0211123
0.0226258
0.0511864
0.0204723
0.0211577
0.424296
0.0213698
0.0201882
0.11451
0.019905
0.021082
0.467051
0.0388795
0.0200361
0.0202255
0.0403065
0.348359
0.0399315
0.64754
0.0214731
0.611164
0.0209804
0.0236026
0.141284
1.12065
0.134316
0.0256991
0.581932
0.0792432
0.179689
0.0206503
0.0210166
0.020313
0.0213094
0.188084
0.0207756
0.0439582
0.0200531
0.0221313
0.0214772
0.3258
0.0213214
0.2134
0.0251533
0.0268866
0.0285608
0.0223073
0.0366885
0.0197256
0.0356184
0.0212844
0.0366671
0.021623
0.0408908
0.104258
0.0310589
0.37048
0.0207972
0.111098
0.023927
0.0297505
0.0213979
0.0651663
0.0218053
0.0208887
0.0212091
0.15856
0.0214969
0.0308527
0.377727
0.026575
0.123969
0.0208383
0.0200204
0.0731845
0.0377276
0.11434
0.617572
0.0208698
0.0507843
0.318828
0.0420367
0.0207215
0.473252
0.17006
0.0207802
0.0227652
0.0197921
0.334185
0.374482
0.279964
0.462218
0.0208038
0.0206952
0.0217008
0.0201986
0.0232019
0.0241526
0.0219676
0.0203911
0.624129
0.0225991
0.0213086
0.0218945
0.349727
0.141173
0.0209474
0.0261686
0.0251193
0.742993
0.0207968
0.0818799
0.0213034
0.0322183
0.639171
0.0219931
0.36173
0.0204031
0.0198492
0.0208175
0.020834
0.0207135
0.0208495
0.019772
0.558554
0.0239381
0.0210121
0.487303
0.0208765
0.0214545
0.0206801
0.541861
0.0214356
0.0228871
0.414402
0.196209
0.0209048
0.0197817
0.563517
0.021273
0.431126
0.820058
0.0214447
0.0216609
0.031299
0.0543577
0.597316
0.0202531
0.020669
0.0225745
0.0324422
0.0227674
0.563635
0.257972
0.0227695
0.0217011
0.0271191
0.0220091
0.158949
0.624586
0.020583
0.474218
0.199814
0.0212813
0.0209237
0.0208882
0.0208656
0.0206708
0.0210182
0.0207535
0.0228177
0.102161
0.0235628
0.0217868
0.0228983
0.023995
0.0206342
0.0207251
0.0977264
0.0229737
0.0252045
0.0206059
0.0219957
0.0205749
0.0199886
0.210159
0.0213405
0.0210644
0.43973
0.603594
0.0980555
0.0208813
1.19074
0.0214955
0.765951
0.569433
0.0222353
0.612025
0.0207068
0.0202974
0.544858
0.0208404
0.0439774
0.924123
0.362797
0.0240594
0.0791218
0.0215705
0.0208427
0.0219792
0.0206807
0.183173
0.21474
0.0208674
0.284954
0.572772
0.0197343
0.020707
0.136092
0.0383616
0.0447714
0.0273042
0.208347
0.442982
0.0212845
0.3436
0.335904
0.0666841
0.607291
0.0188519
0.365674
0.0197661
0.0389593
0.0353818
0.0198191
0.371793
0.123825
0.0457407
0.0196396
0.130865
0.020394
0.0206955
1.67003
0.306983
0.0206988
0.022065
0.138162
0.0197841
0.0239889
0.0208017
0.324112
0.15608
0.0220395
0.0214776
0.248338
0.1398
0.409972
0.0328561
0.0210312
0.28534
0.0210275
0.279657
0.0262962
0.0201248
0.168102
0.0214792
0.0422265
0.0213629
1.60001
0.0211326
0.021683
0.020239
0.0213929
0.0205062
0.0218438
0.143411
0.63962
0.0206229
1.53763
0.381515
0.0203143
0.0205805
0.444748
0.0685648
0.152466
0.379999
0.419555
0.0205886
0.0212592
0.277676
0.0260479
0.344705
0.0294422
0.020645
0.0212736
0.0212064
0.0198036
0.0206477
0.033679
0.0206161
0.125314
0.0209
0.0213541
0.0521502
0.0197706
0.0343343
0.427016
0.0208686
0.0207852
0.0209578
0.0285641
0.0196392
0.0202244
0.0354865
0.365655
0.0311139
0.0216448
0.0308426
0.0205506
0.0215711
0.0212478
0.428466
0.0197914
0.219526
0.0194651
0.0321311
0.0308343
0.0731423
0.0210258
0.0255351
0.0196467
0.0196435
0.0260509
0.0208142
0.458353
0.215705
0.0245683
0.25231
0.0304592
0.148938
0.0334678
0.020034
0.204924
0.022933
0.35501
0.021325
0.0204584
0.020139
0.0308577
0.0999985
0.280257
0.326635
0.0209679
0.16763
0.0206099
0.35299
0.0405199
0.0204804
0.0231619
0.0214221
0.361452
0.125192
0.0216311
0.0196316
0.347472
0.024095
0.0409891
0.0214706
0.0214772
0.446707
0.200114
0.0205479
0.0277605
0.0207322
0.0237744
0.0217952
0.350573
0.0207105
0.022373
0.0350715
0.0213382
0.0208449
0.167375
0.336889
0.0214632
0.0213596
0.0216506
0.0206139
0.0205131
0.348553
0.32992
0.0208893
0.0270783
0.0208257
0.0213606
0.0213488
0.0211484
0.41169
0.341603
0.122485
0.370597
0.0207564
0.027376
0.0208385
0.0221058
0.552323
0.0218587
0.0571649
0.020735
0.209969
0.0214945
0.350779
0.349648
0.0203905
0.0208322
0.0485245
0.0334956
1.15215
0.201162
0.0379764
0.429074
0.0242061
0.0211871
0.225503
0.0207631
0.221283
0.0199319
0.0366892
0.0283186
0.0208321
0.0217137
0.0208673
0.0382104
0.294278
0.0216046
0.118065
0.0229807
0.0403843
0.0204813
0.0235563
0.357517
0.0204431
0.0322763
0.146625
0.0202138
0.40014
0.0192196
0.563106
0.0204674
0.431746
0.021001
0.0202762
0.32736
0.020464
0.450336
0.0199718
0.0208133
0.0205226
0.023757
0.353752
0.0207485
0.222669
0.0197518
0.0260827
0.0635843
0.0213496
0.342013
0.311392
0.0334437
0.0845915
0.0218283
0.0205528
0.10735
0.0204879
0.0203617
0.020907
1.76885
0.132282
0.598952
1.21896
0.0201236
0.0210409
0.0207536
0.474133
0.0206824
0.621577
0.114861
0.0212364
0.367563
0.580885
0.0558993
0.0203817
0.0203111
0.0277021
0.0213288
0.0527471
0.479697
0.0203202
0.0241187
0.0207092
0.328729
0.341124
0.0211678
0.111457
0.0209789
0.0214313
0.0197701
0.0202821
0.0724654
0.345667
0.02044
0.0135695
0.382722
0.0198017
0.331162
0.0206491
0.0208863
0.0289634
0.0202893
0.187371
0.019814
0.0849854
0.552129
0.0197654
0.0201037
0.0208163
1.67504
0.0258471
0.218388
0.268218
0.0217125
0.0236185
0.352144
0.0205107
0.559819
0.121518
0.0206568
0.223254
0.411015
0.355759
0.207151
0.348597
0.0203681
0.344466
0.0136768
0.224577
0.222645
0.0204783
0.0203392
0.0207417
0.111048
0.0203101
0.0201714
0.340787
0.0583461
0.0213081
0.0203486
0.0208422
0.0202855
0.020501
0.0394677
0.0208215
0.0367622
0.246003
0.0192342
0.0239995
0.0206378
0.0203903
0.346228
0.210179
0.705315
0.454876
0.0205161
0.020677
0.0348322
1.29807
0.112128
0.0204079
0.61497
0.384903
0.0199165
0.0344192
0.0637987
0.0201571
0.0209264
0.021196
0.0215126
0.0201052
0.339145
0.0934096
0.0210127
0.277609
0.0213902
0.0349962
0.020903
0.0213334
0.0377723
0.0136516
0.0253301
0.0203251
0.0198143
0.0202966
0.0203
0.313756
0.0479851
0.379951
0.060905
0.231043
0.0228163
0.0203235
0.0562819
0.226614
0.0212657
0.260517
0.0221317
0.019765
0.152991
0.399318
0.0236302
0.0604409
0.01427
0.0641063
0.0956834
0.0202725
0.0239009
0.0207083
0.212435
0.0207098
0.362618
0.347788
0.0655269
0.348576
0.0361626
0.125985
0.309744
0.0209738
0.0203959
0.02105
0.0206546
0.121726
0.0206417
0.0206665
0.0246384
0.0217714
0.0202231
0.337003
0.0875018
0.0970702
0.0202645
0.676962
0.21847
0.212228
0.0214168
0.0204364
0.0235562
0.0201872
0.349597
0.026747
0.020287
0.0486543
0.0205938
0.450048
0.0452
0.0206265
0.599944
0.0695341
0.0203449
0.114709
0.404941
0.0215145
0.0211925
0.340283
0.344538
0.0196443
0.0205111
0.303684
0.047961
0.0212246
0.333984
0.0210893
0.0203883
0.0205292
0.0203333
0.0568128
0.0202037
0.0203639
0.153825
0.0897738
0.0204953
0.0208948
0.0421084
0.24685
0.0220798
0.171194
0.0203784
0.578769
0.174364
0.0215486
0.0202245
0.381694
0.0877548
0.0235614
0.0201237
0.391812
0.026837
0.0202423
0.264796
0.0209139
0.128619
0.0204732
0.377916
0.2104
0.348879
0.356361
0.020414
0.31394
0.021204
0.0750893
0.215585
0.0201704
0.0295929
0.0199798
0.398909
0.0206931
0.0203375
0.0199576
0.0204531
0.0202909
0.0201251
0.0399266
0.0214533
0.0649205
0.0231314
0.0197366
0.0238271
0.375667
0.0205657
0.147771
0.0202652
0.0211117
0.0897575
0.0207772
0.310363