/*--------------------------------*- C++ -*----------------------------------*\
| =========                 |                                                 |
| \\      /  F ield         | OpenFOAM: The Open Source CFD Toolbox           |
|  \\    /   O peration     | Version:  v2012                                 |
|   \\  /    A nd           | Website:  www.openfoam.com                      |
|    \\/     M anipulation  |                                                 |
\*---------------------------------------------------------------------------*/
FoamFile
{
    version     2.0;
    format      ascii;
    class       volScalarField;
    location    "350";
    object      k;
}
// * * * * * * * * * * * * * * * * * * * * * * * * * * * * * * * * * * * * * //

dimensions      [0 2 -2 0 0 0 0];


internalField   nonuniform List<scalar> 
9793
(
0.000462918
0.0068851
0.000271433
0.000140949
0.0354609
0.00015364
0.000150503
0.00013943
0.000146126
0.0367524
0.000183419
0.000284352
0.000141438
0.000138415
0.000159769
0.000137667
0.000145246
0.000148208
0.0237672
0.00013831
0.000314039
0.000151086
0.00613812
0.00013095
0.000147054
0.000142421
0.000138006
0.000141561
0.000175808
0.000146049
0.000184976
0.00526901
0.0100489
0.000152186
0.00018059
0.00238252
0.000155366
0.000151051
0.000140333
0.000143208
0.000184584
0.000160108
0.000151624
0.000151355
0.000151796
0.000144253
0.000178794
0.000833106
0.00699099
0.000140688
0.000182983
0.000188214
0.00015404
0.000146534
0.000263145
0.000378051
0.00014418
0.000203238
0.00486842
0.000140184
0.000149639
0.000153466
0.00489679
0.000148981
0.0476889
0.00842696
0.0043642
0.0070381
0.000246423
0.000183428
0.000226362
0.000144375
0.000142282
0.00539022
0.000187584
0.00336448
0.000144183
0.000137818
0.000145189
0.000142647
0.00796299
0.000144829
0.00612055
0.000532916
0.000175481
0.000744538
0.000143604
0.000144212
0.000151678
0.000146808
0.00752601
0.0104635
0.000137442
0.00496339
0.00015253
0.000629474
0.00037589
0.00688389
0.000137088
0.000136135
0.000135985
0.000145873
0.0001371
0.000136924
0.000137286
0.00017353
0.000151005
0.000150165
0.000152905
0.000535144
0.000146302
0.000257141
0.000143923
0.0020562
0.00018804
0.000144254
0.0101546
0.000187006
0.000146738
0.00422922
0.000593395
0.000161314
0.000143587
0.000154682
0.000148125
0.000275736
0.00016934
0.000838762
0.00014857
0.000142201
0.000150423
0.000144284
0.000142251
0.000147424
0.000145701
0.000144258
0.000152051
0.000149803
0.000143856
0.000133785
0.000143479
0.00014661
0.000143106
0.000136398
0.000139277
0.00014191
0.00340209
0.000136479
0.000136933
0.00211578
0.00166807
0.000150261
0.00232388
0.0347206
0.000136712
0.000156671
0.00014151
0.00014627
0.00013618
0.000142641
0.000139483
0.000141595
0.000136227
0.0361554
0.00504147
0.000521781
0.0010037
0.000156331
0.000137471
0.00014302
0.000143679
0.0110062
0.00515381
0.0110571
0.000147899
0.0317236
0.000144316
0.000130805
0.000142539
0.000158973
0.000654602
0.000149778
0.0001363
0.00014666
0.00222116
0.000142128
0.000210185
0.000142483
0.000143425
0.000136326
0.000147961
0.000143174
0.00816611
0.000261365
0.00684363
0.000158552
0.0288845
0.000142014
0.0248036
0.000134565
0.000145645
0.0420888
0.000491742
0.000142205
0.000144383
0.000134938
0.000785433
0.00013635
0.000167808
0.000150022
0.000163274
0.00657588
0.00794917
0.000146748
0.0385703
0.00014044
0.000144106
0.00230857
0.000134416
0.0114683
0.000206243
0.000143825
0.000148189
0.000143185
0.000758151
0.0406797
0.000153504
0.000136588
0.000201671
0.000177196
0.000131307
0.000130924
0.000150023
0.000136195
0.000173963
0.0111721
0.000143712
0.000142773
0.000312553
0.000144189
0.00016725
0.000138464
0.000142363
0.00937153
0.000142282
0.000136893
0.000139303
0.000146224
0.000137132
0.000150359
0.000147349
0.00015367
0.000185203
0.000171694
0.000141729
0.000153117
0.000143433
0.000154209
0.000154391
0.000136038
0.00372963
0.000142506
0.000185983
0.000149907
0.000157196
0.000132385
0.000132159
0.000163204
0.0428058
0.000150048
0.000136234
0.00013425
0.000157009
0.000143977
0.00737325
0.00714888
0.000142267
0.000294136
0.000143755
0.000171668
0.000145928
0.000131677
0.000153984
0.000142025
0.000169259
0.000143787
0.000147368
0.000155806
0.000142396
0.000144335
0.000143779
0.0101553
0.000151075
0.000156705
0.000150859
0.000147285
0.000148589
0.000156614
0.000142597
0.0265511
0.000136762
0.00523711
0.0106599
0.000153717
0.00015176
0.000136366
0.000158266
0.00015357
0.00014555
0.00580387
0.000147437
0.00013622
0.000153702
0.000148157
0.000146161
0.000145472
0.000608548
0.000142716
0.000155442
0.000150305
0.000141695
0.00566578
0.0399877
0.00428293
0.000133128
0.00034139
0.000148888
0.00694651
0.000194388
0.000135101
0.000152012
0.00019334
0.00014465
0.000162176
0.00019029
0.000139066
0.00015063
0.000145352
0.000144266
0.00014211
0.00607821
0.000142543
0.000141475
0.0304116
0.000144467
0.000137511
0.000133069
0.0001494
0.000139206
0.0182505
0.000148355
0.000144209
0.00014725
0.000145602
0.00760787
0.000146341
0.000172561
0.000130948
0.000168885
0.000381554
0.000210792
0.000170723
0.000149239
0.000150854
0.0402946
0.000149934
0.00359226
0.0001442
0.000136767
0.00952897
0.000161731
0.035495
0.000144237
0.000176331
0.0038007
0.000153106
0.000141858
0.0104564
0.000156487
0.00387699
0.000153032
0.000146087
0.00656098
0.000142947
0.000149203
0.000152443
0.000145781
0.000138307
0.000146325
0.000151939
0.00828272
0.000147401
0.000563599
0.00513916
0.0409013
0.000177439
0.00243086
0.000142611
0.000145323
0.035544
0.00480383
0.000138495
0.000147997
0.0416951
0.000134188
0.00395205
0.00014302
0.000151934
0.000134014
0.000165118
0.000142483
0.000157286
0.000330377
0.000136529
0.00633024
0.000162168
0.000148636
0.000163034
0.000143174
0.000150209
0.000142328
0.0278549
0.000143515
0.000146326
0.000189897
0.00014586
0.000154345
0.0001489
0.000135852
0.00016015
0.000142821
0.000146435
0.000133559
0.00729625
0.000140633
0.00735331
0.000143265
0.00888135
0.000158924
0.00014379
0.000155096
0.00014739
0.00265876
0.000141816
0.000163762
0.000136815
0.000143822
0.000149195
0.0408246
0.000191228
0.000260768
0.00761398
0.000154368
0.000142765
0.000182029
0.000159856
0.000163637
0.00639828
0.0091327
0.00014651
0.000154907
0.000176643
0.000143689
0.000146306
0.000143501
0.000137007
0.00015302
0.000966754
0.000157418
0.00403887
0.000137238
0.000159124
0.000130625
0.000150348
0.0001511
0.000145156
0.000183024
0.000143932
0.000151868
0.000134145
0.000144468
0.000156071
0.000543998
0.000143444
0.000142741
0.011576
0.000158337
0.000148409
0.00437406
0.00869744
0.000150107
0.000153427
0.000149515
0.000156108
0.000146573
0.000153836
0.000150923
0.000142479
0.000143668
0.000141919
0.00230976
0.000190661
0.000141518
0.00224963
0.000165677
0.00013655
0.000151052
0.000145394
0.0002491
0.000145894
0.000226816
0.000135447
0.000142432
0.000181602
0.000143313
0.00016556
0.00776605
0.000156654
0.000136504
0.000629024
0.000157701
0.000138073
0.000143716
0.000180292
0.000140946
0.000137911
0.000142745
0.000140844
0.00921689
0.000173857
0.00016423
0.000152146
0.000143414
0.000142183
0.00014543
0.000144914
0.000142931
0.000232156
0.00021635
0.000134433
0.000153381
0.0386488
0.000144787
0.000306607
0.00017354
0.000143611
0.000185689
0.00488096
0.000143933
0.000218684
0.000131758
0.000726138
0.000155346
0.00675143
0.000142001
0.000142137
0.000145295
0.00857108
0.000151418
0.00394336
0.00798979
0.0425564
0.000166597
0.000155541
0.000163542
0.000160029
0.000162321
0.000152185
0.00582743
0.000146327
0.0086807
0.000133472
0.00231073
0.00015225
0.000148579
0.000141936
0.000227193
0.000133843
0.000142083
0.000149848
0.000150793
0.000158218
0.000142395
0.000142939
0.000144453
0.000144149
0.0199048
0.000140642
0.00898492
0.0163638
0.000140736
0.000150778
0.000159973
0.000148021
0.000143405
0.000147714
0.000153698
0.000155399
0.000149574
0.000150833
0.000137385
0.000146318
0.00014881
0.000154396
0.000147904
0.00014971
0.0148134
0.000144338
0.0377349
0.000155693
0.000151277
0.000143042
0.000138946
0.000151868
0.000154367
0.000142198
0.000141004
0.000130377
0.000142475
0.000140855
0.000141995
0.00015295
0.000132735
0.000148607
0.000153542
0.000146075
0.000152678
0.000149787
0.000163556
0.000154875
0.000141467
0.000143124
0.00013774
0.000134408
0.000144759
0.00013483
0.00014128
0.000144402
0.000133768
0.000166783
0.000143508
0.000154311
0.000143721
0.00876916
0.000141046
0.000133955
0.000182329
0.000131644
0.000147052
0.000232932
0.000147144
0.000154691
0.000150261
0.00020322
0.000139033
0.000179308
0.0474966
0.00555436
0.00709391
0.000146576
0.000143841
0.00609595
0.000148021
0.000133721
0.00261733
0.00814138
0.0340129
0.000143224
0.000183111
0.000143855
0.000143646
0.00157655
0.000142107
0.000310463
0.000151856
0.000190291
0.00014131
0.000151952
0.000148619
0.000225714
0.0135813
0.000143375
0.000149918
0.000158112
0.000141121
0.00015543
0.000179817
0.000293025
0.000141765
0.000250317
0.000148154
0.00391833
0.000245697
0.0108765
0.00802505
0.000142995
0.000167318
0.00473124
0.000141064
0.0001419
0.000153923
0.000146341
0.000133615
0.000504957
0.000133489
0.0101238
0.000151721
0.00146075
0.000183402
0.000145639
0.0002463
0.00862121
0.000147859
0.00718751
0.000165555
0.000191499
0.000133687
0.000131512
0.00795975
0.00014497
0.0130828
0.000140966
0.00708417
0.000137772
0.000727434
0.00892977
0.000142977
0.00100292
0.000144268
0.000150128
0.000167891
0.0102546
0.0154992
0.000134463
0.000138009
0.000134185
0.00652514
0.0359545
0.000156795
0.000158771
0.000337151
0.000133937
0.0001409
0.000148377
0.00030255
0.000160359
0.000145852
0.000142714
0.000139811
0.00710096
0.0311466
0.000891057
0.000137859
0.000140376
0.0096707
0.000141998
0.00642845
0.000174791
0.0106864
0.00251734
0.00785809
0.000140272
0.000145644
0.000152478
0.000149289
0.000154876
0.000142345
0.000183381
0.0059064
0.000137149
0.00920396
0.000139701
0.00385259
0.000146854
0.00646538
0.000155864
0.000162188
0.000142072
0.000140997
0.000166854
0.00594607
0.00475532
0.000145525
0.000165764
0.000143013
0.00015004
0.000152465
0.000328418
0.000167659
0.000192331
0.00014012
0.000158671
0.000143089
0.000132975
0.000151791
0.00014061
0.0275392
0.000141815
0.000150243
0.00015524
0.000154449
0.000133558
0.000186568
0.000149577
0.000149042
0.00014045
0.000140998
0.00572437
0.000141118
0.000246051
0.000137328
0.000196383
0.000142524
0.000241489
0.000145254
0.000301462
0.000146881
0.000145402
0.000140011
0.00867998
0.00585148
0.0041338
0.000274187
0.0106799
0.000144862
0.000152083
0.00831553
0.000134213
0.00725538
0.00436553
0.00018531
0.00023033
0.000149922
0.00585103
0.000158105
0.00695519
0.00803854
0.000149848
0.000146541
0.00548137
0.0209062
0.000164944
0.000152796
0.000142226
0.000149805
0.00016585
0.000144665
0.000134279
0.000149536
0.000278098
0.00016781
0.00015364
0.00498842
0.000140165
0.000134916
0.00263101
0.0284624
0.000166623
0.000149877
0.000250883
0.000138201
0.000134098
0.0103739
0.000133683
0.000149579
0.00619464
0.00721046
0.000143594
0.00660176
0.000279796
0.00023663
0.000867794
0.000314037
0.000153653
0.00935096
0.00014751
0.000139997
0.000144167
0.00014986
0.000143882
0.000489738
0.000146398
0.0111108
0.000139458
0.000173519
0.000148102
0.000166547
0.000157772
0.000144921
0.000174797
0.000139593
0.000134402
0.000204727
0.00015495
0.000161282
0.000144291
0.000134711
0.00647416
0.0108966
0.000155192
0.000130569
0.000130395
0.000138832
0.000148067
0.0294307
0.000202165
0.000765265
0.000165199
0.00445306
0.000146043
0.00016311
0.000160552
0.00015307
0.000235546
0.000142172
0.000141546
0.000766414
0.000167563
0.00041493
0.000141651
0.00473253
0.0102349
0.000165703
0.000170545
0.000152576
0.0268346
0.000146035
0.000155159
0.00864603
0.000154033
0.000141776
0.000286414
0.000147296
0.000137511
0.000141177
0.000270392
0.000147767
0.000156249
0.00191589
0.000169568
0.000156188
0.000165711
0.00109483
0.00760459
0.000938473
0.00013449
0.000145879
0.000149019
0.000158791
0.000145616
0.00905338
0.00808362
0.000152604
0.00515246
0.000269298
0.00647107
0.000146106
0.00784296
0.00014285
0.0077552
0.000190057
0.000138453
0.00724136
0.00827093
0.000139784
0.000145221
0.000144936
0.000279972
0.0064067
0.000156825
0.000189561
0.000155861
0.000328894
0.000373727
0.00682826
0.00014341
0.000143696
0.00044094
0.00222471
0.000141752
0.000144462
0.000134672
0.000147676
0.000146625
0.000154962
0.0171205
0.000143859
0.000158209
0.004039
0.000147141
0.00015349
0.000154554
0.0109134
0.000145872
0.00015651
0.00112132
0.000147833
0.0001347
0.000148068
0.000140561
0.000149787
0.00973261
0.00740738
0.00014605
0.00120481
0.000161161
0.000939091
0.000143499
0.000151763
0.00014931
0.00014771
0.00693688
0.000145905
0.000152907
0.000156813
0.000148953
0.000141571
0.000155859
0.000142565
0.000208739
0.000145647
0.000141124
0.00802162
0.000141876
0.0123485
0.000166945
0.000140982
0.000316414
0.000154404
0.000163842
0.000334987
0.000135575
0.00245983
0.000141049
0.000143642
0.0401296
0.00499742
0.000135741
0.00014542
0.000138869
0.000146937
0.000193185
0.00014909
0.000146283
0.000151668
0.000149062
0.000148793
0.000144049
0.000137051
0.000140686
0.000142107
0.00547104
0.00015439
0.000134371
0.000170556
0.000146594
0.00232574
0.000325517
0.000164313
0.000145215
0.000142747
0.000190906
0.000152832
0.000145007
0.000147458
0.0102586
0.000232853
0.000143583
0.000132524
0.000186251
0.000183784
0.000131355
0.00742482
0.000170932
0.000145895
0.000147839
0.000198161
0.000146521
0.000163752
0.00755255
0.000147503
0.00024163
0.000209103
0.000254166
0.000132593
0.00014379
0.000132573
0.000132479
0.000231713
0.000141915
0.000242219
0.000186807
0.000132476
0.00014809
0.000195612
0.000151684
0.000146959
0.000143558
0.000151684
0.00651814
0.000132587
0.000145266
0.00679871
0.00015154
0.000146508
0.000162529
0.000142012
0.000146726
0.000142422
0.000145018
0.000151724
0.000153365
0.000229534
0.00256121
0.000132697
0.0001441
0.000132634
0.000213907
0.000141034
0.000154454
0.000143439
0.000135588
0.000179363
0.000136953
0.00016098
0.000144089
0.000137106
0.0049217
0.00464557
0.000147227
0.000145876
0.000140638
6.57434e-05
8.08315e-05
0.000143554
0.00711453
0.013095
0.00015259
0.000142236
0.0104815
0.000152318
0.00930325
0.000193405
0.000255739
0.00014244
0.000172389
0.000208927
0.000136624
0.0047137
0.000450453
0.000143629
0.00102935
0.00340834
0.000165647
0.0097967
0.000132722
0.000157944
0.000178455
0.000142609
0.00616681
0.000132838
0.000171828
0.00019989
0.000132645
0.00183358
0.000148281
0.000148917
0.000164675
0.000153153
0.000283529
0.000540304
0.000135011
0.000153644
0.000346378
0.000138946
0.0001547
0.00013976
0.0102029
0.00825763
0.000152967
0.000145675
0.000155077
0.000325593
0.000385011
0.00016029
0.000132763
0.000140426
0.000419992
0.00465939
1.74626e-05
0.000150673
0.000151558
0.000156463
0.000134502
0.000152969
0.00016792
0.000152474
0.00014079
0.000167495
0.00792594
0.000524228
0.000140788
0.000245701
0.000154297
0.000363127
0.000976714
0.000183799
0.0157012
0.000343094
0.00013283
0.000209485
0.000210933
0.00695495
0.00607819
0.000143609
0.000215703
0.00669153
0.000176266
0.000154368
0.0061715
0.00574257
0.000141639
0.000155668
0.000154296
0.000142526
0.000188484
0.000143291
0.000156099
0.000138349
0.000132934
0.000147943
0.000144039
0.000150566
0.000155849
0.00425776
0.000166707
0.00604781
0.000139893
0.000157163
0.000146073
0.000733048
0.0088376
0.000142345
0.000178876
0.000146177
0.000135386
0.000143026
0.000135363
0.000141819
0.000217783
0.000146509
0.0018168
0.000143741
0.000140532
0.0086499
0.000153364
0.000147917
0.000141743
0.000143769
0.00316508
0.000187656
0.00614746
0.000250448
0.0120186
0.000145651
0.000147548
0.000146352
0.00015381
0.000194938
0.000192752
0.000500928
0.000140979
0.000176025
0.00014931
0.000469264
0.000401746
0.000154701
0.000766013
0.00270448
0.00015593
0.000173723
0.000141003
0.000175534
0.000154498
0.000202029
0.00017439
0.000132949
0.00249732
0.00782194
0.000146932
0.000151231
0.000148287
0.000257099
0.000142066
0.000147364
0.00642417
0.000139684
0.00449493
0.000167162
0.000162771
0.000149243
0.00014781
0.00458389
0.000142028
0.00533765
0.000154265
0.000143605
0.000139033
0.00023583
0.000150388
0.000490758
0.000152862
0.000167213
0.000153912
0.000197122
0.000151713
0.00014414
0.00688266
0.000147146
0.000136826
0.000542876
0.00687602
0.000166876
0.000137765
0.00015128
0.0215282
0.000205012
0.000141902
0.000280232
0.000139117
0.000228578
0.000210608
0.00014853
0.000141871
0.000204197
0.000140837
0.000139096
0.000143607
0.000196718
0.000873708
0.000161163
0.000165048
0.000147743
0.00014893
0.0103045
0.00019345
0.0001505
0.000147349
0.000141436
0.000240432
0.000946826
0.000433535
0.000142659
0.000222653
0.000135435
0.000135188
0.000150739
0.000148729
0.000173967
0.00014346
0.000223561
0.00460775
0.00268906
0.000153814
0.000145444
0.00014586
0.000171954
0.000138226
0.000144076
0.000167419
0.000145646
0.000143157
0.000149183
0.000165212
0.000134075
0.000737414
0.000172802
0.000165875
0.000152747
0.000170478
0.000152209
0.0339927
0.000143733
0.000142872
0.000145242
0.000141555
0.000145046
0.000140787
0.000223418
0.000217907
0.000146289
0.000150146
0.000143752
0.000165683
0.000151421
0.000180072
0.000149073
0.000317428
0.000143158
0.000147841
0.000141544
0.000198756
0.000145125
0.000340312
0.000144915
0.00014587
0.000130451
0.000362053
0.000152084
0.000329641
0.0004074
0.000148265
0.000145084
0.000141995
0.000144042
0.000160563
0.000149566
0.000155189
0.00305579
0.000146283
9.91816e-05
0.000808406
0.000152619
0.000214402
0.000146251
0.000152759
0.000141231
0.000136482
0.000135515
0.000143571
0.00367599
0.000205355
0.000139908
0.00690259
0.000258251
0.0001427
0.00256609
0.000136257
0.000167309
0.000150876
0.000141113
0.0044417
0.000145648
0.000155259
0.000152975
0.000170611
0.000194789
0.000148325
0.000140946
0.000149847
0.000796677
0.00132168
0.000168467
0.000157698
0.000145034
0.000144141
0.00439787
0.000148003
0.000161371
0.000173623
0.00612908
0.00014541
0.000167566
0.000145967
0.000147645
0.000166308
0.000163157
0.00016408
0.000149233
0.000148297
0.000156859
0.00431753
0.000202561
0.000136833
0.000155409
0.000199188
0.000152633
0.000173736
0.000146717
0.000147377
0.000143428
0.000194956
0.0103738
0.000126642
0.00014565
0.00574108
0.000166003
0.000157958
0.000145451
0.000143478
0.000143504
0.000134582
0.000188917
0.000154889
0.000150003
0.000149073
0.000144012
0.000145196
0.000245381
0.000143846
0.000143948
0.000147607
0.00340511
0.000400486
0.000144851
0.000143213
0.000144881
0.00558482
0.000148677
9.07995e-06
0.00014542
0.000189473
0.000145008
0.000147497
0.000198237
0.000147171
0.000164935
0.000147373
0.00014454
0.00013639
0.00014999
0.000235031
0.000148198
0.000148796
0.00730454
0.000146642
0.000149761
0.000149004
0.000146777
0.000144111
0.000148332
0.000231974
0.000139223
0.000139773
0.000140489
0.00423372
0.000153923
0.00972255
0.000145873
0.000147462
0.00662303
0.00753157
0.0080768
0.00015669
0.000167447
0.0101077
0.000145885
0.00821139
0.000150053
0.000209239
0.000141088
0.000625389
0.0023435
0.000130553
0.000152295
0.000156354
0.00014967
0.000133984
0.00647758
0.000140343
0.00969009
0.000147131
0.00014388
0.000147602
0.000134005
0.000147628
0.000227249
0.000143881
0.000141825
0.000141932
0.000147042
0.000143729
0.000117534
0.0162263
0.00742158
0.000145902
0.000137284
0.000153352
0.000144976
0.000143665
0.000204095
0.000171765
0.000152226
0.000143129
0.000960051
0.000150688
0.000241433
0.00599281
0.000150673
0.000136039
0.000142849
0.000177316
0.00363089
0.000146765
0.000142636
0.000238223
0.000215594
0.000175332
0.0100039
0.000143457
0.000163408
0.000162058
0.000133719
0.000147579
0.00357517
0.00387725
0.00383451
0.000142954
0.00873394
0.000147384
0.00014595
0.000167654
0.00014852
0.000168026
0.000191295
0.000142838
0.000144784
0.00014407
0.00014023
0.000133775
0.00014291
0.000155254
0.00585786
0.000183514
0.000130463
0.000133907
0.000142754
0.00014806
0.000143831
0.000366782
0.000148724
0.000148926
0.000148541
0.00919107
0.000142782
0.000151571
0.00439481
0.00014312
0.000143251
0.000399223
0.000143747
0.00014353
0.000142452
0.000297604
0.000185722
0.000173435
0.000147605
0.00163818
0.000136822
0.000135036
0.000136932
0.000143065
0.000184873
0.000142907
0.000146938
0.000174385
0.000144099
0.00719942
0.000156801
0.000161695
0.000147598
0.000168807
0.00016287
0.000145651
0.000141738
0.0001496
0.000146077
0.00014377
0.00615155
0.000140578
0.000203118
0.000142222
0.000147801
0.0294342
0.00014164
0.0135139
0.000196883
0.000143529
0.000267335
0.000142093
0.000148329
0.000142747
0.000147627
0.000139011
0.000143924
0.000144023
0.000145123
0.00023078
0.000145647
0.000140545
0.000148055
0.000139551
0.000142478
0.000142532
0.000144029
0.000137606
0.000143003
0.000143562
0.00014356
0.000143045
0.000148105
0.0393285
0.000144209
0.000149029
3.35496e-05
0.00715312
0.000134943
0.000177051
0.00014082
0.000143492
0.000143383
0.000146328
0.0112555
0.00740029
0.000141587
0.000151435
0.00639356
0.000146512
0.000221244
0.00257577
0.000133929
0.00122953
0.00014524
0.000273207
0.000152958
0.00227866
0.0413729
0.00687855
0.00014086
0.000141782
0.000134999
0.000153916
0.000210043
0.000150477
0.000238672
0.00589881
0.000143837
0.000339609
0.000234474
0.000143526
0.000136682
0.000166563
0.000164035
0.000143785
0.000141346
0.000136685
0.000164858
0.000164106
0.000167952
0.000163364
0.000166189
0.00280154
0.000141971
0.000143849
0.000142072
0.00028132
0.000167399
0.000168253
0.000274012
0.00238813
0.0001976
0.000141583
0.000167138
0.000142717
0.000165877
0.000143431
0.000148605
0.000230946
0.00015813
0.000165822
0.000133065
0.00720963
0.000180871
0.000201876
0.00727153
0.00939678
0.000141955
0.000143382
0.000143345
0.00012845
0.000144029
0.00013999
0.000143464
0.000161888
0.00614073
0.00519012
0.000166562
0.000164302
0.00270365
0.000171591
0.00628843
0.00020902
0.000229406
0.000169526
0.00476508
0.00823404
0.000141582
0.000141676
0.000142217
0.000241584
0.000170355
0.000217196
0.000144016
0.000142937
0.000143859
0.000264287
0.000142253
0.000143419
0.000141549
0.000167882
0.000140749
0.000142124
0.000136172
0.0001588
0.0152875
0.000163246
0.000162682
0.000145294
0.00585921
0.000166807
0.000134594
0.000143146
0.000282476
0.00081177
0.000146544
0.000147015
0.000296651
0.000143023
0.000141145
0.00014096
0.000146231
0.000100086
0.000140905
0.00014611
0.00014181
0.000147078
0.000143503
0.000142187
0.000141203
0.000143275
0.00014505
0.00376692
0.000142598
0.000138674
1.25051e-05
0.000196596
0.000169724
0.000184802
0.000140951
0.00043459
0.000142852
0.000180736
0.000141594
0.00255991
0.000142669
0.000142581
0.00013487
0.00200488
0.000167264
0.000142512
0.00497628
0.00014345
0.00013491
0.000143639
0.00014981
0.000159011
0.000141
0.00249859
0.000144883
0.000212588
0.000193369
0.000145335
0.00016427
0.000140839
0.000138671
0.000142299
0.00263392
0.000171395
0.000184322
0.000198516
0.00395853
0.000157186
0.000168368
0.000168173
0.00014386
0.000132438
0.0002965
0.00202114
0.000140717
0.000182444
0.000140977
0.000141362
0.0053819
0.000137975
0.000143792
0.000396869
0.000216482
0.00354666
0.000144554
0.000141346
0.00022214
0.000140751
0.000135566
0.00161325
0.000143529
0.000234623
0.00863297
0.0375733
0.000143464
0.000149554
0.000141845
0.00013363
0.000166557
0.000146285
0.000143764
0.00017254
0.000138756
0.000205969
0.00014512
0.000150267
0.000164652
0.00811467
0.000165494
0.000148124
0.000237224
0.00735708
0.000143978
0.00124514
0.000147602
0.0001437
0.000145213
0.000141304
0.000166224
0.000154375
0.00105186
0.000143126
0.000166681
0.000148787
0.000131945
0.000141632
0.000144632
0.000157984
0.000139475
0.000143327
0.000149553
0.000146304
0.00233164
0.000143492
0.000150387
0.000183767
0.000151388
0.00013535
0.00624811
0.00189013
0.00277069
0.0270609
0.000186884
0.000138387
0.000148965
0.00565037
0.0102177
0.000185747
0.00245915
0.00702383
0.000145071
0.00477683
0.00259076
0.000146284
0.000604571
0.000148113
0.0062794
0.00133265
0.00386457
0.000148484
0.000141657
0.000193916
0.000144337
0.000145575
0.000992505
0.000299148
0.000143742
0.000144107
0.000142935
0.00816229
0.000142351
0.000141956
0.00014261
0.000140935
0.000141232
0.000436989
0.000148059
0.000140763
0.000145717
0.000166872
0.00160259
0.0101832
0.000143955
0.000142761
0.000150489
0.000143656
0.000141037
0.00014167
0.00140533
0.000143559
0.00016909
0.000141893
0.000146669
0.000135943
0.000144299
0.0032935
0.00104937
0.000137737
0.000148484
0.00815804
0.00377454
0.000200755
0.00402258
0.000144659
0.000166865
0.000141848
0.000131849
0.000142326
0.000135076
0.00014155
0.000142842
0.000146849
0.000235639
0.000133829
0.00333098
0.00838255
0.000133605
0.000192757
0.000184479
0.00014807
0.000141896
0.000142285
0.000144179
0.000142067
0.00666192
0.000132629
0.000142593
0.00119291
0.000141844
0.00014334
0.000140754
0.000139609
0.000143792
0.000143635
0.0120904
0.000138639
0.000138146
0.000142231
0.000216554
0.000142928
0.000131029
0.000141759
0.000134056
0.0057676
0.000412718
0.000141453
0.000799125
0.000132254
0.000143377
0.00014901
0.00265958
0.013368
0.000133858
0.000155644
0.000143539
0.000142273
0.000142435
0.000141678
0.00525786
0.00709446
0.000144281
0.000147929
0.000174145
0.000140549
0.000141879
0.000166321
0.00015902
0.0126375
0.000144386
0.000154048
0.00571532
0.000142056
0.000165843
0.000274463
0.0269031
0.000141682
0.000140862
0.000142457
0.000142837
0.000140849
0.00560171
0.00014172
0.00582836
0.00184389
0.000148154
0.000165642
0.00837998
0.000136327
0.000699578
0.00411101
0.000311731
0.000158635
0.000142314
0.000153165
0.00515602
0.000139506
0.000195351
0.000140843
0.000134051
0.000134156
0.000134737
0.000142058
0.00479735
0.000147139
0.00715857
0.00120896
0.000195562
0.00359133
0.000132094
0.000143573
0.000150968
0.00275391
0.00014216
0.00704217
0.000185934
0.000133904
0.000140555
0.00522756
0.000140637
0.000195475
0.00736218
0.000141434
0.00974991
0.000147732
0.000205452
0.000304712
0.000143792
0.000138146
0.000198081
0.000529524
0.000143636
0.000150991
0.000134896
0.000153437
0.000140123
0.00695165
0.000141386
0.000134506
7.6046e-05
0.000134641
0.00993962
0.000143943
0.000142045
0.000142984
0.00592646
0.000141155
0.00014034
0.00407684
5.69956e-05
0.00453427
0.000144764
0.000134804
0.000186063
0.0101622
0.000548866
0.0002403
0.000162191
0.000164629
0.000146697
0.000143137
0.000168134
0.000147431
0.00014265
0.000136456
0.000192887
0.000168259
0.000140546
0.000130885
0.00014633
0.000138026
0.000144824
0.000168844
0.000522599
0.00298503
0.000187426
0.00232031
0.0100567
0.000138583
0.000140644
0.000148399
0.000168104
0.000136413
0.000145115
0.000140359
0.000141493
0.000142084
0.000181535
0.000144193
0.000238848
0.000142825
0.000140371
0.000161349
0.000170994
0.000145343
0.000140565
0.000139999
0.0109017
0.000140129
0.000145982
0.000135467
0.000152291
0.000140638
0.000142726
0.000141241
0.000218949
0.000140799
0.00013991
0.000157429
0.000137298
0.000198233
0.000165885
0.000141486
0.000143684
0.00375665
0.000252342
0.0023585
0.00413576
0.000164694
0.000152429
0.000147135
0.000142626
0.000205761
0.000139967
0.00907195
0.00964881
0.000151163
0.000184589
0.00582392
0.000140249
0.00636438
0.000158109
0.000413075
0.000155273
0.000139445
0.000139668
0.000147384
0.000141566
0.00028703
0.00658428
0.000207738
0.000143308
0.000140851
0.000139931
0.000348216
0.000158543
0.000161138
0.000140137
0.00014445
0.000204627
0.00014189
0.000180657
0.000282175
0.000140233
0.00014548
0.000131718
0.000143582
0.00771417
0.0406061
0.000140006
0.000141783
0.000138811
0.00850654
0.000141976
0.000153171
0.000230496
0.000284653
0.0107027
0.000608357
0.0048431
0.000142659
0.000158938
0.000145864
0.000142145
0.0001514
0.000246341
0.000137155
0.000142583
0.000225922
0.000144234
0.000136771
0.00781341
0.000134067
0.00014236
0.000220355
0.00252154
0.000134138
0.000135247
0.000179358
0.00339307
0.000191461
0.00243558
0.000152114
0.0109043
0.000140629
0.000216863
0.000210351
0.00632604
0.00568494
0.000179168
0.0137639
0.000398061
0.000278628
0.000138231
0.000140858
0.000135902
0.000143659
0.000333258
0.000139253
0.000183129
0.000135149
0.000147665
0.000145093
0.00827706
0.00014308
0.00170626
0.000157471
0.000182963
0.000214136
0.000189631
0.000403365
0.000131546
0.000171794
0.000143373
0.000455347
0.000146115
9.31938e-05
0.000676561
0.000180142
0.00461919
0.000139466
0.00403254
0.00016547
0.000175066
0.000144405
0.010469
0.000147245
0.00014016
0.000142386
0.00119468
0.000145658
0.000142379
0.000257128
0.000163399
0.00024457
0.000139605
0.000133981
0.0108889
0.000189096
0.00841079
0.00721565
0.000140401
0.000324236
0.00983407
0.000181689
0.000138759
0.000222057
0.00779374
0.000139316
0.000153327
0.000132131
0.000461929
0.0056379
0.00437119
0.000227393
0.000139487
0.000138556
0.000147162
0.000135021
0.000158386
0.000166556
0.000148798
0.000136761
0.00700748
0.000149434
0.000144464
0.000155734
0.00222629
0.000945724
0.000154172
0.000168158
0.000168959
0.0048666
0.000139508
0.00388657
0.000142949
0.00016848
0.00097886
0.000146782
0.00438572
0.000136592
0.000133224
0.000139755
0.000139724
0.00013867
0.000140122
0.00013193
0.000819662
0.000165422
0.000141151
0.00638688
0.000140349
0.000145163
0.000138432
0.0119404
0.000141801
0.000151322
0.000243147
0.000254737
0.000140085
0.000132034
0.0100669
0.000143339
0.00743657
0.000604149
0.000145163
0.000146956
0.000183349
0.000756532
0.000237762
0.000135483
0.000138354
0.000155613
0.000178335
0.000151859
0.000275217
0.000251183
0.000151349
0.00014736
0.000163566
0.000148427
0.000220579
0.00673767
0.000137823
0.0041468
0.000206743
0.00014282
0.000140449
0.000140613
0.000140327
0.000138364
0.000141265
0.000139043
0.000148958
0.000113151
0.00015297
0.000142955
0.000152216
0.000154955
0.000138161
0.000138804
0.000222801
0.000152494
0.00015688
0.000137942
0.000146784
0.000137731
0.000133755
0.00575054
0.000143411
0.000141186
0.00477375
0.00814482
0.00324723
0.000140221
0.00158445
0.000145653
0.000369369
0.00638017
0.000148114
0.00848456
0.000138646
0.000135818
0.00293026
0.000139615
0.000185209
0.0345535
0.00520703
0.000166136
0.00144716
0.000144858
0.000140047
0.000152393
0.000138434
0.00484581
0.00332046
0.000140022