/*--------------------------------*- C++ -*----------------------------------*\
| =========                 |                                                 |
| \\      /  F ield         | OpenFOAM: The Open Source CFD Toolbox           |
|  \\    /   O peration     | Version:  v2012                                 |
|   \\  /    A nd           | Website:  www.openfoam.com                      |
|    \\/     M anipulation  |                                                 |
\*---------------------------------------------------------------------------*/
FoamFile
{
    version     2.0;
    format      ascii;
    class       volScalarField;
    location    "350";
    object      omega_0;
}
// * * * * * * * * * * * * * * * * * * * * * * * * * * * * * * * * * * * * * //

dimensions      [0 0 -1 0 0 0 0];


internalField   nonuniform List<scalar> 
9793
(
0.14783
0.276476
0.201423
0.0210065
1.89179
0.022581
0.0218177
0.0207641
0.0215598
1.82346
0.0542202
0.0387672
0.0210514
0.0203387
0.0228265
0.020265
0.0211188
0.0213981
1.18035
0.0203133
0.0819402
0.0227876
0.375093
0.0195642
0.0216506
0.0211481
0.020278
0.020792
0.0406603
0.0215489
0.0327407
0.359129
0.485098
0.0218372
0.0459184
0.335291
0.0223626
0.0227693
0.0208267
0.0210129
0.0325756
0.0228539
0.0220924
0.021924
0.022111
0.0213291
0.0441868
0.0801473
0.627065
0.0209795
0.0476681
0.0589748
0.0228347
0.0215738
0.135018
0.106651
0.0214289
0.0938099
0.480413
0.0208103
0.0216026
0.0228001
0.551733
0.0218707
1.80758
0.467018
0.531596
0.652698
0.0457794
0.0532629
0.134577
0.0208182
0.0211225
0.272657
0.0530787
0.391808
0.0214219
0.0200589
0.0212579
0.0209123
0.463876
0.0212001
0.268502
0.0842754
0.0291335
0.0964818
0.0210221
0.0214165
0.0223381
0.0213532
0.280389
1.34547
0.0203667
0.358008
0.0225494
0.103738
0.100119
0.276445
0.0203398
0.0202417
0.0202278
0.0212577
0.0203988
0.0203882
0.0200693
0.0286104
0.0221996
0.0216907
0.0225297
0.181802
0.021007
0.0704986
0.0214114
0.296701
0.0584748
0.0214307
0.487859
0.0517858
0.0214546
0.338618
0.137506
0.0226586
0.021328
0.0228337
0.0218299
0.0739546
0.037597
0.113657
0.0216891
0.021149
0.0214192
0.0214255
0.0211486
0.0214275
0.0215269
0.0214128
0.0221989
0.0217594
0.0214044
0.019962
0.0213177
0.0215655
0.0211757
0.0202412
0.0204157
0.0205701
0.244393
0.0202464
0.0203441
0.898288
0.567104
0.0214159
0.721647
1.82759
0.0203297
0.0220551
0.020644
0.021492
0.0202338
0.021127
0.0207613
0.0207861
0.0201302
1.28948
0.269208
0.117409
0.102393
0.0248563
0.0202368
0.0209926
0.021177
0.58789
0.267441
0.590211
0.02178
1.27018
0.0214212
0.0195697
0.0211654
0.0263234
0.505019
0.0221779
0.0202447
0.0215764
0.320741
0.0211079
0.103869
0.0211589
0.0213018
0.0201458
0.0217886
0.0213306
0.665948
0.0710039
0.659621
0.0260634
1.49359
0.020901
1.80893
0.0200309
0.0215188
1.3809
0.125724
0.0211564
0.02142
0.0198839
0.153694
0.0201973
0.0265141
0.0222637
0.0291838
0.602875
0.664323
0.0215972
1.5461
0.0205324
0.0210911
0.354147
0.0198622
0.833668
0.0690432
0.0213632
0.021839
0.021333
0.105959
1.35534
0.0226068
0.0203303
0.0668043
0.0448489
0.0195974
0.0195688
0.0222482
0.0201702
0.0426944
0.823622
0.0213867
0.0211054
0.0867868
0.0211233
0.0261571
0.0203376
0.0210609
0.47973
0.0210716
0.0203324
0.0207515
0.0214808
0.0203492
0.0216699
0.0216722
0.0235004
0.054344
0.0401268
0.0210169
0.0233632
0.0211628
0.0237477
0.022585
0.0201809
0.290551
0.0210873
0.0540633
0.0215076
0.0252745
0.0196703
0.0196604
0.0290897
1.38397
0.0219815
0.0202007
0.020008
0.0254391
0.0213827
0.275509
0.275229
0.0211586
0.0801536
0.0213677
0.0402333
0.0214151
0.0196303
0.0221057
0.0208939
0.0375563
0.0213603
0.0216681
0.0244756
0.0210605
0.0214114
0.0213932
0.484508
0.0221296
0.0224594
0.0214682
0.0214068
0.0219545
0.0249317
0.0212442
1.16577
0.0203416
0.401566
0.488156
0.0221142
0.0219046
0.0202231
0.0261361
0.0236931
0.0213421
0.419138
0.0217328
0.0202105
0.0238326
0.0217858
0.0215073
0.0212427
0.0866561
0.0210676
0.0247104
0.0223183
0.0209893
0.273408
1.47824
0.258551
0.0197391
0.315548
0.0220475
0.607543
0.0596985
0.0200546
0.0229425
0.057869
0.0211385
0.0247857
0.063456
0.0207251
0.0219771
0.021501
0.0210355
0.020844
1.03852
0.0211591
0.0209771
1.22058
0.0211343
0.0202373
0.019725
0.0222178
0.0207388
1.42022
0.0218876
0.0213673
0.0216224
0.0212442
0.484429
0.0215519
0.0320042
0.0195783
0.0342078
0.120875
0.103966
0.0364856
0.0221657
0.0218015
1.53923
0.02169
0.285462
0.0211266
0.0202181
0.485896
0.0244875
1.44238
0.0213707
0.0457341
0.467453
0.0224225
0.0210881
0.487877
0.0249014
0.25876
0.023386
0.021529
0.529697
0.0212709
0.0221546
0.0217976
0.0212524
0.020311
0.021554
0.0230277
0.507578
0.021694
0.424163
0.354503
1.52751
0.0452003
0.214382
0.02092
0.0215004
1.61387
0.3542
0.0203478
0.0217868
1.37061
0.0199968
0.480529
0.0211238
0.0230502
0.0199832
0.0304865
0.0211514
0.0253991
0.0864268
0.0202175
0.376003
0.0235356
0.0219601
0.0236251
0.0210345
0.0220378
0.0206541
1.34674
0.0213433
0.0215273
0.0625934
0.0215138
0.022538
0.0220482
0.0201051
0.027077
0.0211331
0.0215342
0.0199338
0.391428
0.020492
0.392852
0.0210144
0.674787
0.0228749
0.0210619
0.0222616
0.021694
0.347456
0.0208806
0.107823
0.0201772
0.02119
0.0221449
1.38732
0.035661
0.136065
0.638039
0.0228422
0.0212597
0.0372764
0.0268062
0.0293576
0.273097
0.441299
0.0216327
0.0225989
0.0457877
0.0213326
0.0213107
0.021312
0.0203855
0.022015
0.187858
0.0254132
0.428339
0.0203998
0.0264845
0.0195549
0.0216652
0.0215706
0.0212248
0.0376396
0.0210745
0.0222301
0.0199745
0.0213987
0.022851
0.0778989
0.0211666
0.0212585
0.494557
0.0235682
0.0218949
0.500139
0.678316
0.0215176
0.0219741
0.0222569
0.0229171
0.0215487
0.0223419
0.022086
0.020942
0.0211806
0.0210318
0.208953
0.060229
0.02064
0.319156
0.0309343
0.0202914
0.0221455
0.0212857
0.0656324
0.0214071
0.0559046
0.0200803
0.0210732
0.0499631
0.0212915
0.0317031
0.446571
0.0253479
0.0202836
0.45274
0.0233337
0.0205431
0.021172
0.0538648
0.020902
0.0205288
0.021268
0.0208978
0.474173
0.0427772
0.0300013
0.0223381
0.0211421
0.0210241
0.0214746
0.0209021
0.0212837
0.0564264
0.112009
0.0200222
0.022205
1.65761
0.0213303
0.0235917
0.0329098
0.0207549
0.0574168
0.469095
0.0213775
0.141111
0.0196385
0.157045
0.024282
0.558885
0.0211022
0.0210449
0.0211352
0.290601
0.021887
0.46393
0.469424
1.76563
0.0327738
0.0863215
0.0292366
0.022846
0.029088
0.0220292
0.33074
0.0215415
0.660997
0.0198968
0.252796
0.0219615
0.0219087
0.0210073
0.151893
0.0199372
0.0207425
0.0221877
0.0224848
0.0259113
0.0211343
0.0212574
0.0213074
0.0212851
1.17093
0.0209765
0.440514
1.08535
0.0209882
0.0217929
0.027091
0.0217856
0.0213081
0.021719
0.022467
0.0242895
0.0221373
0.0224932
0.0204898
0.0214007
0.0220244
0.0238221
0.0217339
0.0223213
0.720673
0.02132
1.42516
0.024535
0.021928
0.0212674
0.0206965
0.0219043
0.0221945
0.0210588
0.020668
0.0195286
0.0210458
0.0206487
0.0211688
0.0231797
0.0198584
0.0219082
0.0220005
0.0215334
0.0230393
0.0221883
0.0302938
0.0222604
0.0210087
0.0212776
0.0205275
0.0199372
0.0209637
0.0199703
0.0209598
0.0213293
0.0199255
0.0320191
0.0210171
0.0221612
0.0213434
0.658516
0.0210305
0.0199721
0.0530091
0.0196357
0.0215078
0.161236
0.0216684
0.0223638
0.0214485
0.0942746
0.0207069
0.0494398
1.78678
0.380558
0.448239
0.0214531
0.0213504
0.388444
0.0213648
0.0199471
0.224444
0.659603
1.6428
0.0212883
0.0585468
0.0213535
0.0213367
0.255544
0.0211837
0.0459035
0.0215225
0.0599301
0.0209951
0.0229867
0.0219692
0.151753
0.887309
0.0211524
0.0213873
0.0261894
0.0209525
0.0228317
0.0496133
0.2332
0.0210771
0.0193703
0.0213707
0.320448
0.0208882
0.491227
0.348914
0.0209686
0.0272703
0.384475
0.0210311
0.0211548
0.0221173
0.0214004
0.0199228
0.128603
0.0199221
0.455604
0.0228129
0.184152
0.0530848
0.0214902
0.122067
0.542518
0.0217832
0.565251
0.0266795
0.0740949
0.0199344
0.0196263
0.360232
0.0213212
0.857905
0.0209549
0.329339
0.0204813
0.0638898
0.371431
0.0209617
0.679943
0.0214147
0.0222649
0.0338189
0.860296
1.10161
0.019936
0.0204966
0.0199852
0.413383
1.30221
0.0227191
0.0241532
0.0256111
0.01996
0.0209887
0.0215433
0.0508268
0.0236272
0.0213921
0.02086
0.0207849
0.452529
1.59915
0.19621
0.0205334
0.0209229
0.655453
0.0211678
0.529828
0.0400407
0.460922
0.25336
0.343123
0.0208537
0.0214969
0.0230122
0.0220509
0.0240315
0.0212156
0.0581162
0.382938
0.0204207
0.558832
0.0207758
0.394108
0.0216217
0.337943
0.024131
0.0227377
0.0210911
0.0204013
0.0321174
0.383466
0.383911
0.021393
0.0309423
0.0208595
0.0224278
0.023219
0.292366
0.0240277
0.0743596
0.0208468
0.0266556
0.0211361
0.0198827
0.0218392
0.0209492
1.63618
0.0211413
0.0225003
0.0222989
0.0218871
0.0199091
0.0510488
0.0215094
0.022013
0.0208697
0.0209991
0.30685
0.0210428
0.0651965
0.0204308
0.0205304
0.0208496
0.0415895
0.0210516
0.0700026
0.0215699
0.021354
0.0208825
0.337009
0.310756
0.399645
0.168836
0.649101
0.021306
0.0228778
0.286406
0.0199442
0.351736
0.306514
0.050534
0.0990453
0.022399
0.305759
0.02324
0.380314
0.285937
0.0223551
0.0215675
0.303847
1.08583
0.0238467
0.0231924
0.0211995
0.0218485
0.0330843
0.020937
0.0199215
0.022107
0.101278
0.0337226
0.0227823
0.362393
0.0209001
0.019983
0.260148
1.37747
0.0342125
0.0219822
0.0998849
0.0205259
0.0199299
0.491832
0.0199099
0.0222813
0.308133
0.319304
0.0210498
0.482804
0.149274
0.0599212
0.2174
0.275352
0.0223388
0.713819
0.0216685
0.0208347
0.0213374
0.02158
0.0209495
0.37976
0.0213227
0.492676
0.0203174
0.0365397
0.0217881
0.0340537
0.022385
0.0211681
0.0400822
0.0203186
0.0199417
0.0746434
0.0220215
0.0276965
0.0211025
0.0200491
0.314631
0.936473
0.0225994
0.0195468
0.0195365
0.0204733
0.0216486
1.32671
0.0731961
0.205353
0.030611
0.309292
0.0214261
0.0272444
0.0247769
0.0232392
0.101346
0.021103
0.021006
0.154379
0.0328174
0.345755
0.0210579
0.353171
0.386051
0.0239108
0.0382587
0.0231411
1.33031
0.0214169
0.0242406
0.360993
0.022087
0.0210699
0.0853483
0.02162
0.0205026
0.0209884
0.168915
0.0216816
0.0251037
0.308146
0.0367189
0.02437
0.0308413
0.171454
0.466765
0.152002
0.0199556
0.0214944
0.0219848
0.0224541
0.0212169
0.637447
0.351335
0.0231665
0.44232
0.0546318
0.442616
0.0215179
0.342215
0.0212468
0.327407
0.0693856
0.0206175
0.713582
0.427236
0.0208555
0.0214603
0.0213389
0.209327
0.480948
0.0252499
0.0470168
0.02845
0.0662199
0.308486
0.339023
0.0210418
0.0213876
0.345472
0.240628
0.0210841
0.021277
0.0199566
0.021721
0.0215333
0.0241843
1.22188
0.0212656
0.023345
0.361212
0.0216537
0.0217452
0.0238167
0.650921
0.0215094
0.0224549
0.152709
0.02178
0.0200282
0.0218332
0.0209121
0.0223073
0.380138
0.456551
0.0215106
0.160111
0.023836
0.168957
0.0213489
0.0218914
0.0221649
0.0216836
0.323664
0.0212855
0.0220666
0.0252332
0.0218272
0.0204587
0.0248133
0.0212164
0.0920916
0.0214736
0.0210429
0.595493
0.0210818
0.703798
0.025403
0.0209508
0.0412226
0.0222004
0.0303073
0.0974365
0.0202142
0.335348
0.0209758
0.021376
1.33505
0.497477
0.0202291
0.0214675
0.0206717
0.0216299
0.0783239
0.0220909
0.0214407
0.0219252
0.0217221
0.0219342
0.0212713
0.0202564
0.0209571
0.0211838
0.424181
0.0236164
0.0200072
0.0383282
0.0214221
0.247555
0.0763442
0.0316658
0.0214527
0.0212369
0.069612
0.0230268
0.0213518
0.021627
0.386336
0.125478
0.0213582
0.0198113
0.0636893
0.0481368
0.0196038
0.392009
0.0359068
0.0214159
0.0217906
0.0251116
0.0215764
0.0277341
0.454708
0.0214872
0.0548277
0.0260356
0.0296199
0.0198076
0.0213421
0.019839
0.019818
0.126207
0.0210769
0.0573302
0.045737
0.0198272
0.021837
0.0299296
0.0215979
0.0216312
0.0213831
0.0223078
0.444486
0.0198296
0.0214827
0.346075
0.0220703
0.0215832
0.0228267
0.0210947
0.0216051
0.0211868
0.021479
0.0222832
0.0217457
0.0964342
0.475114
0.0198205
0.0214138
0.0198238
0.0849621
0.0210093
0.0238347
0.0212832
0.0201821
0.0264547
0.0204112
0.0281512
0.0213948
0.0204257
0.311649
0.350774
0.0217223
0.0215951
0.0209566
0.0954074
0.15806
0.0213853
0.383701
0.708801
0.0218348
0.0314629
0.387033
0.0232486
0.375983
0.040335
0.0407686
0.0211956
0.0293801
0.0917934
0.0203661
0.303757
0.364544
0.0213811
0.696956
1.50867
0.0234863
0.381454
0.0198043
0.0256635
0.0430399
0.0212424
0.3125
0.019804
0.0390425
0.0635964
0.0198055
0.344935
0.0217487
0.0218932
0.0309482
0.0233577
0.230258
0.394282
0.0200666
0.0235019
0.272942
0.0207043
0.0241399
0.0208097
0.38525
0.649303
0.0211141
0.0212772
0.0244063
0.261722
0.294882
0.0275763
0.0198188
0.0208987
0.299636
0.429815
0.0997156
0.0225974
0.0227201
0.0249339
0.0200336
0.0221668
0.0239412
0.0228793
0.0208711
0.0238252
0.401741
0.122233
0.0209681
0.167415
0.0236279
0.0936243
0.663175
0.0421567
0.719796
0.0861809
0.0198179
0.114991
0.122708
0.442246
0.323457
0.0212474
0.123601
0.329353
0.0402874
0.0241904
0.325319
0.322711
0.0210729
0.0245465
0.0238919
0.0212164
0.0683758
0.0212707
0.0220657
0.0206214
0.0198063
0.0216888
0.0213488
0.0224837
0.0247934
0.34454
0.0240049
0.316686
0.0208226
0.0256203
0.0215373
0.280244
0.617131
0.0211854
0.0431705
0.0212942
0.0202096
0.021293
0.0201692
0.0210653
0.0913361
0.0215796
0.211798
0.0210206
0.0209463
0.417539
0.0223385
0.0217778
0.0211269
0.0212511
0.369263
0.0680956
0.403435
0.179668
0.659068
0.0215039
0.0217144
0.0213542
0.023628
0.0405823
0.0795646
0.354105
0.0209591
0.039924
0.0220499
0.168443
0.323092
0.0241552
0.551417
0.765492
0.0224281
0.0376288
0.0209028
0.0438119
0.0225602
0.0879558
0.0418196
0.0198177
1.3208
0.468432
0.0216268
0.0226493
0.0218326
0.177828
0.0207726
0.0216843
0.444082
0.0208074
0.523424
0.0255938
0.0235936
0.022042
0.021753
0.483322
0.0211425
0.430443
0.0238956
0.0212908
0.0207146
0.0539246
0.0223966
0.35297
0.0222566
0.0240287
0.0239929
0.0669898
0.0228036
0.021312
0.329259
0.0216603
0.0204118
0.108883
0.328554
0.0239124
0.0205207
0.0220339
1.4045
0.060647
0.0211535
0.0314457
0.0204949
0.101682
0.0466818
0.0218761
0.0211128
0.0869198
0.0209604
0.0207365
0.0213668
0.0810067
0.576709
0.0221721
0.0238573
0.0217461
0.0219738
0.386602
0.0300833
0.0215806
0.0216867
0.0210351
0.0635984
0.433793
0.450367
0.0212264
0.132428
0.0202058
0.0201536
0.0217681
0.0219232
0.0385748
0.0213486
0.0514117
0.346054
1.3158
0.0236397
0.0214886
0.0215201
0.0363864
0.0206089
0.0212503
0.0318922
0.0214784
0.0212582
0.0220902
0.0239062
0.0199967
0.530316
0.0407912
0.0235572
0.0231624
0.0280378
0.022971
1.67748
0.0213627
0.0212565
0.0214749
0.0210467
0.021455
0.0208702
0.121634
0.0898484
0.021558
0.0220211
0.0212275
0.0235008
0.0227269
0.0478756
0.021995
0.248889
0.0213024
0.0217892
0.0207129
0.0768641
0.0214795
0.255056
0.0214783
0.0215034
0.0195468
0.273599
0.0228683
0.0769817
0.307892
0.0218734
0.0214711
0.0211259
0.0213986
0.021619
0.0219589
0.0242337
0.409918
0.0215611
0.0655233
0.248571
0.0230854
0.0984737
0.021505
0.0231766
0.020984
0.0203527
0.0202174
0.0213506
0.25319
0.0844501
0.0208321
0.495055
0.0550455
0.0212492
0.521873
0.0203281
0.0316997
0.0220522
0.0210197
0.683879
0.0214673
0.022381
0.0235674
0.0448282
0.0756286
0.0218935
0.0209717
0.0223034
0.568231
0.262991
0.0361416
0.0260584
0.0214467
0.0214021
0.34539
0.0216826
0.0278431
0.0300337
0.431385
0.0214539
0.0346466
0.0214678
0.0217489
0.0309222
0.0295407
0.0298105
0.022043
0.0218351
0.0250489
0.385669
0.0439059
0.0204049
0.0244921
0.0908079
0.0230802
0.0382338
0.0216027
0.0216962
0.0213394
0.0235167
0.650784
0.0580898
0.0214563
1.03155
0.0235431
0.025644
0.0214962
0.02134
0.0213587
0.0199135
0.0469688
0.0222351
0.0222614
0.0219976
0.021342
0.0214451
0.164233
0.0214062
0.0213886
0.0217339
0.420989
0.152262
0.0214351
0.0211521
0.0214706
0.315838
0.0219648
0.102924
0.0214611
0.0470212
0.0214392
0.0216218
0.0411462
0.0216612
0.0309309
0.0216867
0.0214374
0.020341
0.022398
0.154831
0.0217517
0.021932
0.325424
0.0215271
0.0222286
0.0219864
0.0215715
0.0212315
0.0218996
0.0332544
0.0207488
0.0208187
0.0209458
0.346344
0.0236193
0.397889
0.0214996
0.0216706
0.596356
0.351367
0.317133
0.0252549
0.0294424
0.340118
0.0214903
0.408339
0.0219694
0.113885
0.0209707
0.119362
0.333889
0.019556
0.0232439
0.0220372
0.02223
0.0198514
0.440774
0.0208959
0.336244
0.0216537
0.0213877
0.0217392
0.0198679
0.0217498
0.115214
0.0213404
0.0211341
0.0211319
0.0215689
0.0213696
0.155713
0.688342
0.462552
0.021486
0.0202125
0.0234081
0.0214711
0.0213185
0.106106
0.0389043
0.0223158
0.0213188
0.249569
0.0225103
0.0210423
0.448168
0.0225787
0.0203037
0.0212839
0.026403
0.349835
0.021468
0.0212168
0.0537095
0.122953
0.0436714
0.623797
0.0212968
0.0236789
0.0234854
0.019898
0.021719
0.324649
0.322894
0.469339
0.0212668
0.611596
0.0216978
0.0214733
0.0239474
0.0218787
0.0239213
0.0331276
0.0212305
0.0214711
0.0213182
0.0208839
0.0199576
0.0211302
0.0242803
0.31653
0.0260974
0.0195493
0.0199824
0.0212708
0.0217955
0.0213269
0.0851876
0.0219262
0.0219762
0.0218853
0.332828
0.0212475
0.0229179
0.521924
0.021302
0.0212753
0.352611
0.0212047
0.0213585
0.0212232
0.184866
0.0269007
0.0372056
0.0217408
0.271069
0.0201763
0.0201445
0.0204172
0.0212473
0.0354045
0.0212666
0.0216376
0.0417272
0.0213461
0.395275
0.0224976
0.0279466
0.021718
0.0972158
0.0303877
0.021463
0.0211279
0.0219228
0.0215431
0.0213178
0.382269
0.0209671
0.0441903
0.0211648
0.0215751
1.62461
0.021065
1.03138
0.0809688
0.0212938
0.0535924
0.0211447
0.0218311
0.021248
0.0217363
0.0207252
0.0213259
0.0212911
0.0213551
0.106866
0.0214851
0.0209628
0.0217905
0.0207945
0.0212058
0.0212065
0.0214131
0.0205143
0.0213067
0.0212603
0.0213701
0.0212529
0.0218499
1.38246
0.021129
0.0218782
0.0451154
0.323597
0.0199302
0.0254002
0.0209782
0.0210337
0.0212814
0.0214337
0.664059
0.326451
0.0211078
0.0226028
0.321062
0.0215374
0.0192808
0.396977
0.019928
0.346041
0.0214677
0.0668041
0.0235499
0.242825
1.40662
0.457602
0.0209887
0.0211023
0.019971
0.0239765
0.0625775
0.0223932
0.0569808
0.427245
0.0213693
0.24664
0.0461088
0.0205889
0.0203984
0.0309207
0.029728
0.0212906
0.0210242
0.0200939
0.0238668
0.0237874
0.0240949
0.0237148
0.023972
0.406895
0.0210735
0.0212426
0.0211529
0.218449
0.0239121
0.023947
0.158554
0.423867
0.0234752
0.0210409
0.0237696
0.0212189
0.0330017
0.0213517
0.0219819
0.050177
0.0239911
0.119021
0.01982
0.302954
0.0333126
0.0870658
0.327062
0.642344
0.0211139
0.0213404
0.0213305
0.0827454
0.0214053
0.0208838
0.0213318
0.0279604
0.626868
0.269985
0.023652
0.022972
0.401306
0.0359687
0.28867
0.0439055
0.0446256
0.0366211
0.532932
0.309016
0.0211087
0.0211221
0.0211328
0.0406962
0.023464
0.0377075
0.0208614
0.0212347
0.0212206
0.192703
0.0211742
0.0211812
0.0210542
0.032514
0.0209495
0.0211541
0.0203166
0.0246827
1.25734
0.0272207
0.023611
0.0214918
1.14139
0.0255569
0.0199128
0.0213237
0.0195008
0.190186
0.0215326
0.021575
0.17918
0.0211457
0.0210019
0.0209648
0.0214142
0.0832741
0.0209995
0.0215227
0.0211116
0.0216176
0.0212338
0.0211377
0.0210565
0.0212334
0.0213343
0.396896
0.0212423
0.0206814
0.0779457
0.0480475
0.0255637
0.0623667
0.02098
0.203861
0.0212863
0.0275717
0.0210806
0.456272
0.0211146
0.0212276
0.0201292
0.316996
0.0240392
0.0211976
0.880681
0.021208
0.0201251
0.0212133
0.0219607
0.0262567
0.0209596
0.413252
0.0214431
0.0387789
0.038334
0.0213429
0.0316854
0.0210007
0.0206089
0.0211847
0.364802
0.0245761
0.0248573
0.0386418
0.891131
0.0256487
0.0314198
0.0240544
0.0213005
0.019775
0.174758
0.405627
0.0209779
0.0334541
0.0208967
0.0210175
0.371854
0.0205116
0.0212747
0.131086
0.0390487
0.483925
0.0212912
0.021032
0.0346439
0.0209416
0.0200129
0.452732
0.0211964
0.0261862
0.898785
1.34812
0.0213244
0.0221477
0.0211212
0.0198278
0.0245208
0.0215658
0.0213986
0.0318509
0.0206752
0.0242
0.021347
0.0222995
0.0233649
0.59268
0.0239219
0.0216808
0.165894
0.316921
0.0212356
0.266672
0.0216206
0.0212621
0.0213268
0.0209811
0.0235779
0.01961
0.318427
0.0211603
0.0236757
0.0217644
0.0197364
0.0210364
0.0212763
0.0232294
0.0208138
0.0211429
0.021868
0.0214274
0.376081
0.0213637
0.0219922
0.0474521
0.0221454
0.0202152
0.317847
0.245704
0.37754
1.45735
0.0634828
0.0205559
0.0220188
0.568
0.721357
0.033062
0.238902
0.319897
0.0214627
0.285898
0.419535
0.0214939
0.197891
0.0218464
0.573748
0.266279
0.447743
0.0219125
0.0210057
0.0507224
0.0212612
0.0213524
0.14344
0.0869606
0.0213285
0.0214069
0.0211051
0.730208
0.0210858
0.0210595
0.0212271
0.0209992
0.0210127
0.184092
0.0217922
0.0209584
0.0213697
0.0287444
0.264637
0.634544
0.0212788
0.0211275
0.0224888
0.0212725
0.0209907
0.0211226
0.587005
0.0212214
0.0338653
0.0211318
0.0214534
0.0202991
0.0213099
0.460019
0.246532
0.0205354
0.02166
0.30573
0.419146
0.0401195
0.51537
0.0213058
0.0288289
0.0211034
0.019725
0.0210984
0.0201405
0.0210622
0.0212381
0.0215725
0.108484
0.0199114
0.352871
0.603015
0.0198181
0.0293467
0.043405
0.0218292
0.0211221
0.0212042
0.0211149
0.0210333
0.311133
0.0197869
0.021071
0.218343
0.0210951
0.0212861
0.0209785
0.0268798
0.0213705
0.0213592
0.652826
0.0206634
0.0205978
0.0210864
0.0324554
0.0212414
0.0196088
0.0210927
0.0199187
0.521451
0.142945
0.0210286
0.134806
0.0197594
0.0212456
0.0216563
0.263469
0.870474
0.020004
0.0228095
0.0213071
0.021141
0.0210977
0.0210911
0.275431
0.319325
0.0212799
0.0218037
0.0270732
0.0209575
0.0210618
0.0239565
0.0262041
0.660013
0.021294
0.0234144
0.413943
0.0211183
0.0235151
0.279993
1.36672
0.0206662
0.0209459
0.0209085
0.0211181
0.0209692
0.277781
0.0210477
0.41912
0.249624
0.0218218
0.0235339
0.309843
0.0199888
0.13582
0.343259
0.112601
0.0247199
0.021176
0.0222257
0.276232
0.0208171
0.0263847
0.0209528
0.0200083
0.0200703
0.020122
0.021126
0.408646
0.0215701
0.435184
0.104862
0.0759635
0.485145
0.0197499
0.0213693
0.022547
0.328321
0.0211637
0.623092
0.0232445
0.02
0.0209275
0.271942
0.020922
0.0252636
0.322441
0.0210427
0.336766
0.0217637
0.041507
0.180862
0.0213779
0.0205901
0.0376534
0.137336
0.0211904
0.0225631
0.0201754
0.0211558
0.0208637
0.393913
0.0209927
0.0198945
0.0546924
0.0200974
0.339002
0.0213958
0.0211712
0.0211149
0.535559
0.020967
0.0208879
0.501988
0.142363
0.407364
0.0213086
0.0201124
0.0319843
0.729761
0.0705158
0.151882
0.0235415
0.0238463
0.0215256
0.0212639
0.0239616
0.0217089
0.0210822
0.0203739
0.0298287
0.0239203
0.0209189
0.0196094
0.0214915
0.0205779
0.0211917
0.0234968
0.102882
0.430646
0.0247069
0.513456
0.401431
0.02063
0.0209385
0.0219263
0.032756
0.0201978
0.0213708
0.0209048
0.0209923
0.0211365
0.0497037
0.0212655
0.0375964
0.0212581
0.0208389
0.0119945
0.0341776
0.0213753
0.0208703
0.0208432
0.644428
0.0683628
0.0214626
0.0202212
0.0215846
0.0209301
0.0212274
0.0210056
0.107159
0.0209899
0.0208399
0.0892999
0.0204704
0.0672771
0.0235312
0.0210234
0.0213021
0.25543
0.0414073
0.282881
0.507427
0.0233647
0.0221266
0.0216574
0.0212378
0.0270346
0.0208122
0.700306
0.638558
0.0224878
0.0344528
0.282285
0.0208401
0.451732
0.0229755
0.237961
0.0218658
0.0207737
0.0207903
0.0217017
0.0210712
0.0534672
0.398927
0.0330806
0.0211662
0.0209036
0.0208492
0.0663584
0.0230351
0.0139794
0.0208725
0.0212076
0.0317308
0.0210201
0.126737
0.0473269
0.020868
0.0213677
0.0197132
0.0211663
0.330157
1.46312
0.0208516
0.0210447
0.0206543
0.312475
0.0211428
0.0233777
0.140073
0.110858
1.35127
0.150671
0.514511
0.021238
0.0261791
0.0215255
0.0210703
0.0226789
0.0500066
0.0204569
0.0210999
0.0356414
0.021247
0.0201535
0.322813
0.0198651
0.0210531
0.0348254
0.337274
0.0200071
0.0201963
0.0425187
0.31752
0.0383211
0.354448
0.0213664
0.656134
0.0209704
0.0237642
0.0462289
0.8463
0.415118
0.0244544
0.66917
0.0795409
0.203338
0.0206013
0.0210066
0.0202119
0.021237
0.106764
0.0207594
0.0473592
0.0199683
0.0214903
0.0213132
0.425841
0.0213161
0.172107
0.0231138
0.025517
0.0279109
0.021131
0.0572165
0.0197039
0.0347997
0.0212325
0.0632636
0.0214023
0.0368858
0.225396
0.0251461
0.37231
0.0207831
0.380188
0.0234618
0.0242611
0.0213758
0.74837
0.0215152
0.0208819
0.0211955
0.161826
0.0214388
0.0199283
0.0395009
0.0244283
0.0661863
0.0208318
0.0199978
0.789451
0.036256
0.328364
0.503894
0.0208459
0.0196452
0.452427
0.0453024
0.0206675
0.0331616
0.328878
0.0207611
0.0215813
0.019775
0.0605024
0.379241
0.280044
0.0348374
0.0207926
0.0206526
0.0216611
0.0201724
0.0221916
0.0236456
0.021944
0.0203733
0.496728
0.0216813
0.0212042
0.0217254
0.281487
0.148872
0.0214592
0.0231637
0.0237301
0.475051
0.0207756
0.320519
0.0212985
0.0337496
0.490439
0.0213722
0.371276
0.0203953
0.0197891
0.0207913
0.020826
0.0206411
0.0208173
0.0197546
0.135315
0.0234699
0.0209946
0.478351
0.0208698
0.0212741
0.0206322
0.664881
0.0208862
0.0226094
0.0391508
0.0363014
0.0208981
0.0197636
0.621063
0.0211905
0.467599
0.281299
0.0212692
0.0216292
0.0307
0.223207
0.0252205
0.0201683
0.0206293
0.0223538
0.0271352
0.0228281
0.030845
0.0376593
0.0217566
0.021685
0.0236234
0.0219228
0.0339482
0.492433
0.0205466
0.32362
0.0316259
0.0212755
0.020916
0.0208768
0.020849
0.0206379
0.0209996
0.0207362
0.0215609
0.0267058
0.0224725
0.0210136
0.0229807
0.0242004
0.0205834
0.0207026
0.0846291
0.02234
0.0224804
0.0205667
0.0213794
0.0205427
0.0199729
0.434931
0.0213311
0.0210538
0.43672
0.528247
0.377931
0.0208755
0.2633
0.0214507
0.102572
0.48195
0.0216972
0.535715
0.0206719
0.0202874
0.46293
0.0208335
0.0486019
1.38288
0.449387
0.0235675
0.206275
0.0211701
0.0208206
0.0219358
0.0206403
0.439842
0.380516
0.0208607
0.456491
0.0741206
0.0197112
0.0206553
0.0240331
0.195274
0.0700421
0.0243567
0.291796
0.487339
0.0212174
0.444665
0.470429
0.146585
0.559393
0.0206929
0.465594
0.0197495
0.280033
0.295321
0.0197877
0.792283
0.400128
0.0353399
0.0196248
0.339032
0.0203865
0.0206605
1.66933
0.703042
0.0206706
0.0210977
0.15135
0.0197413
0.0241328
0.0207854
0.0411992
0.109671
0.0220082
0.0214483
0.319101
0.0340914
0.234153
0.315128
0.0207659
0.290748
0.0210177
0.365642
0.02459
0.0200901
0.401424
0.0213234
0.151494
0.0213461
1.5955
0.0210886
0.0210221
0.0202237
0.0213307
0.0204856
0.0214947
0.149858
0.616555
0.0205855
1.13559
0.0617225
0.0203077
0.0205509
0.486561
0.0660405
0.17319
0.440121
0.239855
0.020554
0.0211863
0.209502
0.024712
0.340588
0.0288021
0.0206154
0.0212161
0.0205942
0.0197862
0.0205889
0.0330483
0.0205709
0.337927
0.0208931
0.0213437
0.0854227
0.0197536
0.0333128
0.682926
0.0207929
0.0207705
0.0209475
0.0276694
0.0196243
0.0201513
0.257146
0.366774
0.0254609
0.0213568
0.0298797
0.0205218
0.0209408
0.0212368
0.30369
0.174286
0.315092
0.407683
0.0308015
0.039698
0.0833931
0.0210094
0.0226893
0.0196341
0.0196211
0.0231768
0.020804
0.397844
0.29239
0.0228618
0.630773
0.0281198
0.42282
0.304201
0.020011
0.0609884
0.0229991
0.049895
0.0213039
0.0204449
0.0201085
0.0292936
0.415883
0.462856
0.443215
0.020958
0.190872
0.0205743
0.18945
0.412856
0.0204641
0.0217186
0.0208787
0.680574
0.314083
0.0216157
0.0196144
0.0326017
0.0223529
0.294248
0.0214345
0.0209642
0.461602
0.304178
0.0205167
0.0235928
0.0206783
0.0233394
0.0214966
0.461285
0.0206963
0.0215282
0.0455748
0.0213302
0.0208374
0.232041
0.0440423
0.0214379
0.0212537
0.0216344
0.0205832
0.0204906
0.109264
0.406703
0.0208272
0.02369
0.0208162
0.0213526
0.0213409
0.021113
0.400152
0.374856
0.0749021
0.374643
0.0207462
0.0239276
0.0208321
0.0211172
0.0528187
0.0212673
0.138739
0.0207134
0.262821
0.0214051
0.242214
0.324247
0.0202124
0.0208254
0.0465332
0.0344217
0.112563
0.341395
0.201166
0.398851
0.0236747
0.0211772
0.303612
0.0207473
0.316386
0.0199222
0.0719831
0.0274641
0.0208156
0.0210024
0.0208598
0.0384339
0.284594
0.0209464
0.0750443
0.02138
0.0441364
0.0204646
0.0236689
0.0251469
0.0204315
0.552991
0.0702945
0.0201847
0.388383
0.0651501
0.0720132
0.0204525
0.333248
0.0206547
0.0202127
0.0313981
0.0204503
0.163597
0.0199593
0.0207982
0.0204985
0.0233288
0.334389
0.0207363
0.38482
0.0197055
0.0245855
0.32825
0.0209179
0.346193
0.0460252
0.0320142
0.0979082
0.0210293
0.0205282
0.928841
0.020471
0.0203544
0.020657
1.72863
0.335473
0.15439
0.713704
0.0200901
0.021021
0.0206093
0.0326496
0.020649
0.525955
0.109323
0.0212282
0.364595
0.0212043
0.287717
0.0203724
0.020167
0.0229685
0.0212999
0.189309
0.473382
0.0203103
0.0218105
0.0206813
0.429604
0.145955
0.0208222
0.422237
0.0209674
0.0212926
0.0197213
0.020038
0.084372
0.320211
0.0204286
0.344288
0.387098
0.0197624
0.438257
0.0205946
0.0208799
0.0608564
0.0203169
0.447119
0.0197924
0.021604
0.367843
0.0197494
0.0200706
0.0208855
1.94811
0.0245966
0.728387
0.142051
0.0237392
0.0232193
0.176189
0.020493
0.646659
0.0347674
0.0206264
0.29454
0.624565
0.0418552
0.113246
0.0330546
0.020359
0.430936
0.0677131
0.291175
0.315168
0.0204622
0.0203072
0.0207302
0.389506
0.0202873
0.0201342
0.27629
0.0253866
0.0212732
0.0203416
0.0208271
0.0202688
0.0202659
0.107702
0.0208144
0.205542
0.33071
0.0208553
0.0227531
0.0206162
0.0203785
0.248211
0.122809
0.511557
0.485267
0.0204953
0.0206606
0.0354751
1.38319
0.335154
0.0203984
0.550259
0.364689
0.0199086
0.0379938
0.0271585
0.020129
0.020833
0.0205866
0.0209118
0.0200764
0.0707787
0.407906
0.0207535
0.290732
0.0213194
0.0333762
0.0208963
0.0213233
0.0266733
0.0551876
0.0257465
0.0203187
0.019798
0.0202744
0.0202699
0.388221
0.0487824
0.386913
0.0706602
0.297845
0.0216772
0.0202941
0.0554387
0.296874
0.0212166
0.354282
0.022091
0.0197493
0.160689
0.369477
0.0214041
0.0245439
0.0664413
0.620939
0.0280798
0.0202567
0.0234407
0.0206945
0.211405
0.0206481
0.356605
0.353817
0.0333979
0.218542
0.0407622
0.0366929
0.301581
0.0208538
0.020305
0.0206514
0.0207326
0.330516
0.0206059
0.0206132
0.0237291
0.0210281
0.0201756
0.241674
0.244346
0.310069
0.0202001
0.358532
0.318085
0.264608
0.0207024
0.0203229
0.0219924
0.0201537
0.311735
0.0232006
0.0202633
0.0278405
0.0205623
0.314088
0.0475102
0.0205943
0.587087
0.134983
0.0203397
0.321384
0.387808
0.0964363
0.0207301
0.303658
0.368174
0.0196307
0.0204934
0.364106
0.020115
0.0208281
0.403776
0.0210699
0.0203576
0.020503
0.020323
0.282547
0.0201608
0.0203323
0.317679
0.0875027
0.0204765
0.0207331
0.237501
0.304895
0.021029
0.108157
0.0203723
0.663138
0.0724832
0.021531
0.0202036
0.311893
0.469109
0.0217102
0.0200851
0.384025
0.0230624
0.0201848
0.713366
0.0209072
0.0787975
0.0204584
0.361543
0.327142
0.268481
0.343593
0.0204055
0.283398
0.02084
0.0289651
0.316583
0.0201407
0.0448109
0.019807
0.385564
0.0206784
0.0203303
0.0199579
0.0204403
0.0202102
0.0200967
0.0457604
0.0214309
0.0636414
0.0216497
0.0196943
0.0218605
0.376881
0.0205395
0.283715
0.0202546
0.021071
0.469454
0.0211618
0.316541
0.0233452
0.141527
0.0200587
0.0201169