/*--------------------------------*- C++ -*----------------------------------*\
| =========                 |                                                 |
| \\      /  F ield         | OpenFOAM: The Open Source CFD Toolbox           |
|  \\    /   O peration     | Version:  v2012                                 |
|   \\  /    A nd           | Website:  www.openfoam.com                      |
|    \\/     M anipulation  |                                                 |
\*---------------------------------------------------------------------------*/
FoamFile
{
    version     2.0;
    format      ascii;
    class       volVectorField;
    location    "600";
    object      cellDisplacement;
}
// * * * * * * * * * * * * * * * * * * * * * * * * * * * * * * * * * * * * * //

dimensions      [0 1 0 0 0 0 0];


internalField   nonuniform List<vector> 
9793
(
(0 -0.000958442 0)
(0 -6.5228e-05 0)
(0 -0.000976837 0)
(0 -0.000376465 0)
(0 -0.000757877 0)
(0 -0.00149789 0)
(0 -0.000160907 0)
(0 -0.00102487 0)
(0 -0.000952202 0)
(0 -0.000768734 0)
(0 -0.000566464 0)
(0 -0.00160188 0)
(0 -0.000340645 0)
(0 -0.00070444 0)
(0 -3.06954e-05 0)
(0 -0.000669508 0)
(0 -0.00129841 0)
(0 -0.00131802 0)
(0 -0.00110395 0)
(0 -0.00069205 0)
(0 -0.00141877 0)
(0 -0.0011747 0)
(0 -0.00128825 0)
(0 -9.56859e-06 0)
(0 -0.00161867 0)
(0 -0.00027853 0)
(0 -0.000653761 0)
(0 -0.00124781 0)
(0 -0.000772142 0)
(0 -0.000958597 0)
(0 -0.00159258 0)
(0 -0.00127517 0)
(0 -0.00171101 0)
(0 -7.49209e-05 0)
(0 -0.000787508 0)
(0 -0.00139089 0)
(0 -0.000114052 0)
(0 -0.00119054 0)
(0 -0.00122827 0)
(0 -0.000183315 0)
(0 -0.00160029 0)
(0 -5.67314e-05 0)
(0 -0.000176159 0)
(0 -0.000161169 0)
(0 -0.000140675 0)
(0 -0.000238593 0)
(0 -0.000765797 0)
(0 -0.00106265 0)
(0 -0.00172984 0)
(0 -0.000425257 0)
(0 -0.000780488 0)
(0 -0.000599391 0)
(0 -0.00146388 0)
(0 -0.00107036 0)
(0 -0.000674469 0)
(0 -0.00149702 0)
(0 -0.000835135 0)
(0 -0.000425007 0)
(0 -0.00175875 0)
(0 -0.00119531 0)
(0 -0.000121488 0)
(0 -0.00141803 0)
(0 -0.00174466 0)
(0 -0.000161671 0)
(0 -0.000684029 0)
(0 -0.00169888 0)
(0 -0.00175089 0)
(0 -0.00175124 0)
(0 -0.00160843 0)
(0 -0.000587435 0)
(0 -0.000694356 0)
(0 -5.46223e-06 0)
(0 -0.00115734 0)
(0 -0.000104301 0)
(0 -0.000792596 0)
(0 -0.00176553 0)
(0 -0.000862281 0)
(0 -3.934e-05 0)
(0 -0.00144873 0)
(0 -0.00131017 0)
(0 -0.00171009 0)
(0 -0.00146809 0)
(0 -5.24317e-05 0)
(0 -0.00110153 0)
(0 -0.00159095 0)
(0 -0.00107788 0)
(0 -0.00133152 0)
(0 -0.00088905 0)
(0 -0.001412 0)
(0 -0.00150403 0)
(0 -9.0225e-05 0)
(0 -0.000648552 0)
(0 -0.000900235 0)
(0 -0.00125652 0)
(0 -0.00140796 0)
(0 -0.00111753 0)
(0 -0.00148835 0)
(0 -6.5812e-05 0)
(0 -0.000880111 0)
(0 -0.000749493 0)
(0 -0.000737108 0)
(0 -0.00150618 0)
(0 -0.000902336 0)
(0 -0.000876883 0)
(0 -4.85754e-05 0)
(0 -0.00159677 0)
(0 -0.00139965 0)
(0 -0.000134573 0)
(0 -0.00145313 0)
(0 -0.00103031 0)
(0 -5.73212e-06 0)
(0 -0.0015004 0)
(0 -0.000757342 0)
(0 -0.00144227 0)
(0 -0.000618069 0)
(0 -0.00085513 0)
(0 -0.00167818 0)
(0 -0.000812371 0)
(0 -0.00148828 0)
(0 -0.00124165 0)
(0 -0.00104783 0)
(0 -2.13987e-06 0)
(0 -0.000938614 0)
(0 -0.00151016 0)
(0 -0.00105208 0)
(0 -0.00143967 0)
(0 -0.000514206 0)
(0 -0.00109309 0)
(0 -0.00146827 0)
(0 -0.000999666 0)
(0 -1.10442e-05 0)
(0 -0.000882219 0)
(0 -0.00102657 0)
(0 -0.00154701 0)
(0 -0.000952943 0)
(0 -0.000915113 0)
(0 -0.00013262 0)
(0 -0.000163948 0)
(0 -0.000736871 0)
(0 -0.000138235 0)
(0 -0.00092226 0)
(0 -0.00160568 0)
(0 -0.000260986 0)
(0 -0.000751095 0)
(0 -0.000727812 0)
(0 -0.000760428 0)
(0 -2.57697e-05 0)
(0 -0.000763751 0)
(0 -0.000874143 0)
(0 -0.000623246 0)
(0 -0.000931944 0)
(0 -1.2304e-05 0)
(0 -0.000918388 0)
(0 -0.000796358 0)
(0 -0.000852701 0)
(0 -4.00628e-06 0)
(0 -6.47899e-05 0)
(0 -0.00159024 0)
(0 -0.000745725 0)
(0 -0.000260909 0)
(0 -0.00106298 0)
(0 -0.00123825 0)
(0 -0.000588153 0)
(0 -0.00114779 0)
(0 -6.92757e-05 0)
(0 -0.00140076 0)
(0 -0.00107788 0)
(0 -0.000990248 0)
(0 -0.000631749 0)
(0 -0.00143533 0)
(0 -0.0014217 0)
(0 -0.00184787 0)
(0 -6.35135e-05 0)
(0 -0.00185032 0)
(0 -0.00103508 0)
(0 -0.00111941 0)
(0 -0.000906929 0)
(0 -3.48995e-05 0)
(0 -0.00109931 0)
(0 -0.000794997 0)
(0 -0.000291866 0)
(0 -0.000866611 0)
(0 -0.000757149 0)
(0 -0.0016037 0)
(0 -0.00178805 0)
(0 -0.00113231 0)
(0 -0.000421283 0)
(0 -0.00110052 0)
(0 -0.000963931 0)
(0 -0.000600121 0)
(0 -0.00102128 0)
(0 -0.000472029 0)
(0 -0.00174136 0)
(0 -0.00148057 0)
(0 -0.0017451 0)
(0 -0.000802111 0)
(0 -0.000974299 0)
(0 -0.00139249 0)
(0 -0.000815884 0)
(0 -0.000122636 0)
(0 -0.000958354 0)
(0 -0.00119019 0)
(0 -0.00148245 0)
(0 -0.000960934 0)
(0 -0.000931971 0)
(0 -3.73235e-05 0)
(0 -0.00140646 0)
(0 -0.000695289 0)
(0 -0.0015862 0)
(0 -0.000996036 0)
(0 -0.000833568 0)
(0 -0.00174415 0)
(0 -0.00172472 0)
(0 -0.00106507 0)
(0 -0.000972106 0)
(0 -6.39719e-05 0)
(0 -0.00146974 0)
(0 -0.00179361 0)
(0 -4.65919e-05 0)
(0 -0.00168912 0)
(0 -0.000860902 0)
(0 -0.000904629 0)
(0 -0.00103772 0)
(0 -0.000439043 0)
(0 -0.00110477 0)
(0 -0.00116158 0)
(0 -0.00148351 0)
(0 -0.000839133 0)
(0 -0.000840197 0)
(0 -0.000630022 0)
(0 -1.70422e-05 0)
(0 -1.63029e-05 0)
(0 -0.000852102 0)
(0 -0.000101424 0)
(0 -0.00053253 0)
(0 -0.00169604 0)
(0 -0.000721348 0)
(0 -0.00135605 0)
(0 -0.00150172 0)
(0 -0.00147004 0)
(0 -0.00159087 0)
(0 -0.000731632 0)
(0 -0.00134101 0)
(0 -0.00171107 0)
(0 -0.0013012 0)
(0 -0.000866494 0)
(0 -0.00098653 0)
(0 -0.00159027 0)
(0 -0.000887478 0)
(0 -9.16385e-05 0)
(0 -0.00120992 0)
(0 -0.000908692 0)
(0 -0.000640169 0)
(0 -0.000521817 0)
(0 -0.00125714 0)
(0 -0.00123183 0)
(0 -0.00138666 0)
(0 -0.000905715 0)
(0 -0.00156023 0)
(0 -0.000694358 0)
(0 -0.00111895 0)
(0 -0.00132565 0)
(0 -0.000659502 0)
(0 -6.79461e-05 0)
(0 -0.000973488 0)
(0 -2.74187e-05 0)
(0 -3.59643e-05 0)
(0 -0.000849289 0)
(0 -0.00120623 0)
(0 -0.001399 0)
(0 -0.000707315 0)
(0 -0.000499138 0)
(0 -0.00113804 0)
(0 -0.000904535 0)
(0 -9.97202e-05 0)
(0 -8.21662e-05 0)
(0 -0.000989061 0)
(0 -0.00146649 0)
(0 -0.000248637 0)
(0 -0.00050615 0)
(0 -0.00157309 0)
(0 -3.72324e-05 0)
(0 -0.000102016 0)
(0 -0.00018564 0)
(0 -0.000504076 0)
(0 -0.000914758 0)
(0 -0.00122007 0)
(0 -0.000953997 0)
(0 -0.000250512 0)
(0 -0.000940424 0)
(0 -0.00074283 0)
(0 -0.00168854 0)
(0 -0.00144376 0)
(0 -0.000113304 0)
(0 -1.55476e-05 0)
(0 -0.00154493 0)
(0 -0.00108717 0)
(0 -0.000945898 0)
(0 -0.000329666 0)
(0 -0.00119454 0)
(0 -0.00086106 0)
(0 -0.00178956 0)
(0 -0.00168226 0)
(0 -0.000100349 0)
(0 -0.000140667 0)
(0 -0.000738658 0)
(0 -0.00113672 0)
(0 -0.00105767 0)
(0 -0.0015536 0)
(0 -0.0017835 0)
(0 -0.000150816 0)
(0 -0.000721677 0)
(0 -0.00106492 0)
(0 -0.00126562 0)
(0 -0.00115673 0)
(0 -0.00148451 0)
(0 -0.00108889 0)
(0 -0.00140428 0)
(0 -0.00111854 0)
(0 -0.000980328 0)
(0 -0.00129759 0)
(0 -9.62785e-05 0)
(0 -0.00103252 0)
(0 -8.86346e-05 0)
(0 -4.25146e-05 0)
(0 -0.000300575 0)
(0 -0.00110511 0)
(0 -0.00174712 0)
(0 -0.000817476 0)
(0 -0.000535081 0)
(0 -0.000756763 0)
(0 -0.000836433 0)
(0 -0.00148523 0)
(0 -0.00157995 0)
(0 -0.000563846 0)
(0 -0.000941883 0)
(0 -0.000158058 0)
(0 -0.000954165 0)
(0 -0.000113944 0)
(0 -0.00127578 0)
(0 -0.000949819 0)
(0 -0.00112874 0)
(0 -0.00126834 0)
(0 -0.00121177 0)
(0 -0.00147357 0)
(0 -0.000656989 0)
(0 -2.97509e-05 0)
(0 -0.00117339 0)
(0 -0.000984872 0)
(0 -0.000947049 0)
(0 -0.00106956 0)
(0 -0.00102788 0)
(0 -0.00125764 0)
(0 -0.00150122 0)
(0 -0.00183155 0)
(0 -0.00106252 0)
(0 -0.00134498 0)
(0 -3.12876e-05 0)
(0 -0.000721158 0)
(0 -0.00070003 0)
(0 -0.000440485 0)
(0 -0.000711461 0)
(0 -0.00118638 0)
(0 -0.00159134 0)
(0 -0.000990436 0)
(0 -0.000120761 0)
(0 -0.00112777 0)
(0 -0.00145797 0)
(0 -9.27426e-05 0)
(0 -0.00167333 0)
(0 -0.00158306 0)
(0 -0.00102732 0)
(0 -0.00101571 0)
(0 -0.000526667 0)
(0 -0.00136901 0)
(0 -0.00164534 0)
(0 -0.00107401 0)
(0 -0.00170028 0)
(0 -0.000780251 0)
(0 -5.14399e-05 0)
(0 -0.0012152 0)
(0 -0.00104281 0)
(0 -0.00181314 0)
(0 -0.000287169 0)
(0 -0.00112375 0)
(0 -4.38884e-05 0)
(0 -0.000148333 0)
(0 -0.000666674 0)
(0 -0.00104893 0)
(0 -0.00121099 0)
(0 -0.00183576 0)
(0 -0.00102518 0)
(0 -0.000447746 0)
(0 -0.00120905 0)
(0 -0.00101346 0)
(0 -0.000613306 0)
(0 -6.05382e-05 0)
(0 -0.000165837 0)
(0 -0.000945465 0)
(0 -0.000838738 0)
(0 -0.00119403 0)
(0 -0.000745243 0)
(0 -0.00091452 0)
(0 -0.00128101 0)
(0 -0.000489359 0)
(0 -0.00141713 0)
(0 -0.00137656 0)
(0 -0.00119457 0)
(0 -0.000466939 0)
(0 -0.000863676 0)
(0 -0.00112658 0)
(0 -0.000775079 0)
(0 -0.00144532 0)
(0 -0.000707566 0)
(0 -0.00130465 0)
(0 -0.00171134 0)
(0 -0.00107122 0)
(0 -0.00171001 0)
(0 -0.00143774 0)
(0 -0.00139365 0)
(0 -0.000774374 0)
(0 -0.00118647 0)
(0 -0.000251311 0)
(0 -0.00116549 0)
(0 -0.000579731 0)
(0 -0.00102242 0)
(0 -0.00157128 0)
(0 -0.00108876 0)
(0 -0.000566603 0)
(0 -0.000802535 0)
(0 -0.000249848 0)
(0 -0.00117897 0)
(0 -0.00040476 0)
(0 -0.00138633 0)
(0 -0.000737506 0)
(0 -0.00139984 0)
(0 -0.00143962 0)
(0 -0.00177165 0)
(0 -0.000111607 0)
(0 -0.00145753 0)
(0 -0.000110802 0)
(0 -0.00103563 0)
(0 -0.00177523 0)
(0 -0.00138729 0)
(0 -0.000721723 0)
(0 -0.000622087 0)
(0 -0.00144393 0)
(0 -0.00110669 0)
(0 -0.00130007 0)
(0 -0.00159545 0)
(0 -0.00063423 0)
(0 -0.00175384 0)
(0 -0.00147927 0)
(0 -0.000673219 0)
(0 -0.00134822 0)
(0 -0.000819253 0)
(0 -0.000883874 0)
(0 -5.20382e-05 0)
(0 -0.00153611 0)
(0 -0.000156003 0)
(0 -0.0016805 0)
(0 -0.000543506 0)
(0 -0.000962117 0)
(0 -0.00149859 0)
(0 -0.000955018 0)
(0 -0.000896919 0)
(0 -8.92941e-05 0)
(0 -0.00147453 0)
(0 -0.00079076 0)
(0 -0.00180213 0)
(0 -0.000920962 0)
(0 -0.00115662 0)
(0 -2.60435e-05 0)
(0 -9.02847e-05 0)
(0 -2.78154e-05 0)
(0 -0.00147248 0)
(0 -0.00136542 0)
(0 -0.0014672 0)
(0 -0.00166402 0)
(0 -0.000459205 0)
(0 -0.000221223 0)
(0 -0.00159424 0)
(0 -0.00105418 0)
(0 -0.000247097 0)
(0 -0.000641651 0)
(0 -0.00169379 0)
(0 -0.0015715 0)
(0 -0.00105432 0)
(0 -0.00174534 0)
(0 -0.0017619 0)
(0 -5.3281e-05 0)
(0 -4.97523e-05 0)
(0 -0.00112535 0)
(0 -0.00158399 0)
(0 -0.0011857 0)
(0 -0.000132412 0)
(0 -0.000151049 0)
(0 -0.00141885 0)
(0 -0.00141068 0)
(0 -0.00128333 0)
(0 -1.26591e-05 0)
(0 -0.000656684 0)
(0 -6.82186e-05 0)
(0 -0.00177841 0)
(0 -0.00106262 0)
(0 -0.000811962 0)
(0 -0.0014286 0)
(0 -0.00145505 0)
(0 -0.00151254 0)
(0 -0.00157227 0)
(0 -0.00155415 0)
(0 -0.00055653 0)
(0 -0.00133617 0)
(0 -0.000625054 0)
(0 -0.000946214 0)
(0 -0.000692649 0)
(0 -0.00166093 0)
(0 -0.00111777 0)
(0 -0.000802704 0)
(0 -0.000425953 0)
(0 -0.00157294 0)
(0 -0.000984915 0)
(0 -0.00146699 0)
(0 -0.000434428 0)
(0 -0.00125435 0)
(0 -0.000949317 0)
(0 -0.000354678 0)
(0 -0.00122674 0)
(0 -0.00169843 0)
(0 -0.000515376 0)
(0 -0.00107151 0)
(0 -0.00145601 0)
(0 -0.00144655 0)
(0 -0.00135374 0)
(0 -0.00103809 0)
(0 -2.01015e-05 0)
(0 -0.000309205 0)
(0 -0.00151769 0)
(0 -0.000438714 0)
(0 -0.000521692 0)
(0 -0.00164042 0)
(0 -0.000819651 0)
(0 -0.00126561 0)
(0 -0.000950637 0)
(0 -0.0013288 0)
(0 -1.82102e-05 0)
(0 -0.000557906 0)
(0 -0.00180476 0)
(0 -0.000914476 0)
(0 -0.000304411 0)
(0 -5.05811e-05 0)
(0 -0.00145665 0)
(0 -0.000943369 0)
(0 -0.00181985 0)
(0 -0.0011007 0)
(0 -0.00131438 0)
(0 -0.00130154 0)
(0 -0.000128091 0)
(0 -0.0016076 0)
(0 -0.00175178 0)
(0 -0.00172179 0)
(0 -0.000645804 0)
(0 -0.000685513 0)
(0 -0.00157079 0)
(0 -0.000901769 0)
(0 -5.27543e-05 0)
(0 -0.000671696 0)
(0 -0.0016238 0)
(0 -0.00107311 0)
(0 -0.0011034 0)
(0 -0.00178735 0)
(0 -0.000368069 0)
(0 -0.000943416 0)
(0 -0.000124135 0)
(0 -0.000871772 0)
(0 -0.00132653 0)
(0 -0.000320798 0)
(0 -0.000408001 0)
(0 -9.02386e-05 0)
(0 -0.000907758 0)
(0 -0.00100342 0)
(0 -0.00078483 0)
(0 -0.00115619 0)
(0 -0.000887294 0)
(0 -0.0012448 0)
(0 -0.00123392 0)
(0 -0.00107807 0)
(0 -0.000485854 0)
(0 -0.00154811 0)
(0 -0.00136913 0)
(0 -0.000447021 0)
(0 -0.000135028 0)
(0 -0.00115189 0)
(0 -0.000924649 0)
(0 -0.000930109 0)
(0 -0.00124246 0)
(0 -0.00163899 0)
(0 -0.000925931 0)
(0 -0.000842125 0)
(0 -0.000987993 0)
(0 -0.00080904 0)
(0 -0.00148134 0)
(0 -0.00118277 0)
(0 -0.000922102 0)
(0 -0.00126774 0)
(0 -0.00117184 0)
(0 -0.00186504 0)
(0 -0.00118762 0)
(0 -0.00116597 0)
(0 -0.000768353 0)
(0 -0.000163424 0)
(0 -0.000908031 0)
(0 -0.00100408 0)
(0 -0.00158198 0)
(0 -0.00160494 0)
(0 -0.00130508 0)
(0 -0.00106925 0)
(0 -6.19107e-06 0)
(0 -0.00137947 0)
(0 -0.00106331 0)
(0 -0.000493124 0)
(0 -0.00126108 0)
(0 -0.000162797 0)
(0 -0.000881411 0)
(0 -7.47818e-05 0)
(0 -0.00102949 0)
(0 -0.00127262 0)
(0 -0.000834553 0)
(0 -0.000666464 0)
(0 -0.000100352 0)
(0 -0.00118592 0)
(0 -0.000900086 0)
(0 -0.000888294 0)
(0 -0.000363822 0)
(0 -5.50301e-05 0)
(0 -0.000381726 0)
(0 -0.00123732 0)
(0 -0.00118019 0)
(0 -0.000397854 0)
(0 -0.000811072 0)
(0 -0.000165647 0)
(0 -0.000108977 0)
(0 -0.000937961 0)
(0 -0.00178834 0)
(0 -0.000680886 0)
(0 -0.000457216 0)
(0 -0.000550453 0)
(0 -6.03096e-05 0)
(0 -0.00150724 0)
(0 -0.000319728 0)
(0 -0.00161717 0)
(0 -0.000130758 0)
(0 -2.75165e-05 0)
(0 -0.00041122 0)
(0 -0.00100787 0)
(0 -0.000537803 0)
(0 -0.000670336 0)
(0 -0.00164515 0)
(0 -0.00169151 0)
(0 -0.00149086 0)
(0 -0.000970961 0)
(0 -0.00153772 0)
(0 -0.00124627 0)
(0 -0.000426084 0)
(0 -4.95512e-05 0)
(0 -0.00177867 0)
(0 -0.000778093 0)
(0 -0.000919554 0)
(0 -0.000429567 0)
(0 -0.000958446 0)
(0 -0.000927376 0)
(0 -0.00145174 0)
(0 -0.000492655 0)
(0 -0.00181386 0)
(0 -0.00104156 0)
(0 -0.000676302 0)
(0 -0.00115693 0)
(0 -0.00104741 0)
(0 -0.00119331 0)
(0 -0.000303753 0)
(0 -0.00164342 0)
(0 -0.00140531 0)
(0 -0.0010365 0)
(0 -0.000663397 0)
(0 -0.00120695 0)
(0 -0.00156044 0)
(0 -0.000555377 0)
(0 -0.000361832 0)
(0 -0.00107923 0)
(0 -0.000934575 0)
(0 -0.00125421 0)
(0 -0.00162758 0)
(0 -0.000914433 0)
(0 -0.00168871 0)
(0 -0.000868975 0)
(0 -0.00134867 0)
(0 -0.00151681 0)
(0 -0.00179864 0)
(0 -0.000721747 0)
(0 -0.000539275 0)
(0 -9.14088e-05 0)
(0 -0.00142689 0)
(0 -0.000397444 0)
(0 -0.00148945 0)
(0 -0.000395605 0)
(0 -0.00152998 0)
(0 -0.000774021 0)
(0 -0.00112767 0)
(0 -0.000602815 0)
(0 -0.00103735 0)
(0 -0.000630098 0)
(0 -0.00186034 0)
(0 -0.00106388 0)
(0 -0.00181817 0)
(0 -0.0015076 0)
(0 -0.000420113 0)
(0 -0.000407291 0)
(0 -5.73975e-05 0)
(0 -0.00107802 0)
(0 -0.0013295 0)
(0 -0.00163513 0)
(0 -0.00030427 0)
(0 -0.000880352 0)
(0 -0.000975812 0)
(0 -0.00106248 0)
(0 -0.00105966 0)
(0 -0.00134443 0)
(0 -0.000364952 0)
(0 -0.000205611 0)
(0 -0.000892908 0)
(0 -0.000712026 0)
(0 -0.00139576 0)
(0 -0.00137149 0)
(0 -0.000343542 0)
(0 -0.00100174 0)
(0 -0.00046931 0)
(0 -0.00165754 0)
(0 -0.00124231 0)
(0 -0.00010448 0)
(0 -0.00149795 0)
(0 -0.000970233 0)
(0 -0.000437898 0)
(0 -0.000887255 0)
(0 -0.00156835 0)
(0 -0.00181647 0)
(0 -0.00168459 0)
(0 -0.00135921 0)
(0 -0.000124708 0)
(0 -0.0011381 0)
(0 -0.00170446 0)
(0 -0.000795872 0)
(0 -0.000798148 0)
(0 -0.000920851 0)
(0 -0.00036395 0)
(0 -0.00179558 0)
(0 -0.000540106 0)
(0 -0.00181517 0)
(0 -0.000758411 0)
(0 -0.00152569 0)
(0 -0.00102405 0)
(0 -0.000882839 0)
(0 -0.00113156 0)
(0 -0.00102515 0)
(0 -0.000881376 0)
(0 -0.000923867 0)
(0 -0.000915916 0)
(0 -0.000384898 0)
(0 -0.000445123 0)
(0 -0.00155144 0)
(0 -0.000896259 0)
(0 -0.00185775 0)
(0 -0.00111367 0)
(0 -0.00182556 0)
(0 -0.000964312 0)
(0 -0.00100473 0)
(0 -0.00128906 0)
(0 -0.00148219 0)
(0 -0.00117649 0)
(0 -0.000356759 0)
(0 -0.000841127 0)
(0 -0.00159855 0)
(0 -0.00180392 0)
(0 -0.00127093 0)
(0 -0.000900282 0)
(0 -0.0011912 0)
(0 -0.00118045 0)
(0 -0.00104086 0)
(0 -0.000317315 0)
(0 -6.10494e-05 0)
(0 -0.000435395 0)
(0 -0.00109547 0)
(0 -0.000644393 0)
(0 -0.00136777 0)
(0 -0.000149448 0)
(0 -9.04831e-05 0)
(0 -0.000365209 0)
(0 -0.00065563 0)
(0 -0.000589219 0)
(0 -0.0011105 0)
(0 -0.00012028 0)
(0 -1.02776e-05 0)
(0 -0.000378044 0)
(0 -0.00089831 0)
(0 -8.26055e-05 0)
(0 -0.000852696 0)
(0 -0.00116567 0)
(0 -0.000924735 0)
(0 -0.000880085 0)
(0 -0.00063451 0)
(0 -0.00145411 0)
(0 -0.000922348 0)
(0 -0.00089798 0)
(0 -0.000130102 0)
(0 -0.00180954 0)
(0 -7.28863e-05 0)
(0 -0.00158595 0)
(0 -0.0012447 0)
(0 -0.00133944 0)
(0 -0.00041553 0)
(0 -0.000801155 0)
(0 -0.000899533 0)
(0 -0.00183371 0)
(0 -0.000530292 0)
(0 -0.00180939 0)
(0 -0.00133916 0)
(0 -0.00089917 0)
(0 -0.000137906 0)
(0 -0.00040392 0)
(0 -0.0010691 0)
(0 -0.00109124 0)
(0 -0.000920188 0)
(0 -0.000693308 0)
(0 -0.00114343 0)
(0 -0.000854299 0)
(0 -0.00161541 0)
(0 -0.00143558 0)
(0 -0.000103262 0)
(0 -0.00110925 0)
(0 -0.00111146 0)
(0 -0.000873848 0)
(0 -0.00116688 0)
(0 -6.415e-05 0)
(0 -0.00124363 0)
(0 -0.000428339 0)
(0 -0.00162923 0)
(0 -0.000562654 0)
(0 -5.29091e-05 0)
(0 -0.000351645 0)
(0 -0.000908734 0)
(0 -0.00088455 0)
(0 -0.000694084 0)
(0 -0.00143297 0)
(0 -0.00163827 0)
(0 -0.000416716 0)
(0 -0.000394061 0)
(0 -0.00096095 0)
(0 -0.00127782 0)
(0 -0.000527989 0)
(0 -0.000125603 0)
(0 -0.000812168 0)
(0 -0.00101976 0)
(0 -0.000392234 0)
(0 -0.00167764 0)
(0 -0.000376656 0)
(0 -0.00114231 0)
(0 -0.000847688 0)
(0 -0.000827984 0)
(0 -0.00138474 0)
(0 -0.0018449 0)
(0 -0.000656304 0)
(0 -0.00150529 0)
(0 -0.00153251 0)
(0 -0.000330137 0)
(0 -0.000122704 0)
(0 -0.00174419 0)
(0 -0.00125643 0)
(0 -0.00105807 0)
(0 -0.00110139 0)
(0 -8.22428e-05 0)
(0 -0.00121112 0)
(0 -0.000375345 0)
(0 -0.00137744 0)
(0 -0.00168738 0)
(0 -0.000371083 0)
(0 -0.00111331 0)
(0 -0.00125236 0)
(0 -0.000542172 0)
(0 -0.0014771 0)
(0 -0.00149614 0)
(0 -0.000739082 0)
(0 -0.000386204 0)
(0 -0.000387732 0)
(0 -0.000715168 0)
(0 -0.00128907 0)
(0 -0.000835943 0)
(0 -0.00135984 0)
(0 -0.000554751 0)
(0 -0.000857026 0)
(0 -0.00137796 0)
(0 -0.00035595 0)
(0 -1.309e-05 0)
(0 -1.14414e-05 0)
(0 -0.000613887 0)
(0 -0.00146093 0)
(0 -0.00106805 0)
(0 -0.000694495 0)
(0 -0.00154784 0)
(0 -0.000846911 0)
(0 -0.00110232 0)
(0 -0.00152111 0)
(0 -0.00132869 0)
(0 -0.0014995 0)
(0 -0.000893262 0)
(0 -0.000714523 0)
(0 -0.0011699 0)
(0 -0.00122446 0)
(0 -0.00137814 0)
(0 -0.000791985 0)
(0 -0.000330848 0)
(0 -0.00108895 0)
(0 -0.00163525 0)
(0 -0.00100311 0)
(0 -6.58411e-05 0)
(0 -0.000559674 0)
(0 -0.000764501 0)
(0 -0.00104411 0)
(0 -0.000206136 0)
(0 -0.000788566 0)
(0 -0.000930937 0)
(0 -0.00158822 0)
(0 -0.00111737 0)
(0 -0.000828492 0)
(0 -0.00127021 0)
(0 -0.000846595 0)
(0 -0.00112168 0)
(0 -0.000508963 0)
(0 -0.00129464 0)
(0 -0.00066124 0)
(0 -0.00179517 0)
(0 -0.000580555 0)
(0 -0.00127582 0)
(0 -0.000919574 0)
(0 -0.00115455 0)
(0 -0.0017306 0)
(0 -0.00113828 0)
(0 -0.00039969 0)
(0 -0.00109626 0)
(0 -0.000925503 0)
(0 -0.00148639 0)
(0 -0.000134223 0)
(0 -0.00180213 0)
(0 -0.000886609 0)
(0 -0.000750906 0)
(0 -0.00182152 0)
(0 -0.000901252 0)
(0 -0.00166535 0)
(0 -0.00110646 0)
(0 -0.000866838 0)
(0 -0.000893549 0)
(0 -0.000820844 0)
(0 -0.00045404 0)
(0 -0.00098288 0)
(0 -0.0014014 0)
(0 -0.0015373 0)
(0 -0.000468093 0)
(0 -0.00102601 0)
(0 -0.000216536 0)
(0 -0.000376697 0)
(0 -0.001838 0)
(0 -0.00103299 0)
(0 -0.00113692 0)
(0 -0.000861264 0)
(0 -2.15561e-05 0)
(0 -0.000348934 0)
(0 -0.00094851 0)
(0 -0.00144199 0)
(0 -0.00069017 0)
(0 -0.000395242 0)
(0 -0.00185309 0)
(0 -0.00104074 0)
(0 -0.00132675 0)
(0 -0.000356605 0)
(0 -0.00122995 0)
(0 -0.00124396 0)
(0 -0.000758675 0)
(0 -0.00129135 0)
(0 -0.00121197 0)
(0 -0.00160562 0)
(0 -0.00186028 0)
(0 -0.000977783 0)
(0 -7.08942e-06 0)
(0 -0.0012536 0)
(0 -0.00180962 0)
(0 -0.00104686 0)
(0 -0.00163258 0)
(0 -0.00112469 0)
(0 -0.00107833 0)
(0 -0.000523995 0)
(0 -0.00109721 0)
(0 -0.00107771 0)
(0 -0.00120807 0)
(0 -0.00105357 0)
(0 -0.00171096 0)
(0 -0.0015986 0)
(0 -0.00111187 0)
(0 -0.00167755 0)
(0 -0.000814879 0)
(0 -0.00078376 0)
(0 -0.00157661 0)
(0 -0.00120264 0)
(0 -0.001282 0)
(0 -0.000861224 0)
(0 -0.00149217 0)
(0 -0.000134886 0)
(0 -0.00104495 0)
(0 -0.00160636 0)
(0 -0.00037234 0)
(0 -0.000679482 0)
(0 -0.000849234 0)
(0 -0.000515869 0)
(0 -0.00109623 0)
(0 -0.00067647 0)
(0 -0.0018267 0)
(0 -0.00111169 0)
(0 -0.00186386 0)
(0 -0.00164917 0)
(0 -0.000305172 0)
(0 -0.0018318 0)
(0 -0.00160966 0)
(0 -0.000681518 0)
(0 -0.00152953 0)
(0 -0.000677571 0)
(0 -0.00180594 0)
(0 -0.00109022 0)
(0 -0.000729234 0)
(0 -0.00125282 0)
(0 -0.001751 0)
(0 -0.000707141 0)
(0 -0.00104874 0)
(0 -0.0010327 0)
(0 -0.00098695 0)
(0 -0.00040234 0)
(0 -0.00121438 0)
(0 -0.00152314 0)
(0 -0.000142872 0)
(0 -0.00161172 0)
(0 -0.000940354 0)
(0 -0.00124349 0)
(0 -0.000105357 0)
(0 -0.000895006 0)
(0 -0.000446692 0)
(0 -0.00167003 0)
(0 -0.00128364 0)
(0 -0.000119049 0)
(0 -0.000543531 0)
(0 -0.00143456 0)
(0 -0.00184876 0)
(0 -0.000864629 0)
(0 -0.000568866 0)
(0 -0.00104715 0)
(0 -0.000869118 0)
(0 -0.000470669 0)
(0 -0.00128896 0)
(0 -0.000218474 0)
(0 -0.00129443 0)
(0 -0.00102212 0)
(0 -0.000499887 0)
(0 -0.000802887 0)
(0 -0.000284514 0)
(0 -0.000441269 0)
(0 -0.000940541 0)
(0 -3.23578e-05 0)
(0 -0.00143697 0)
(0 -0.000785309 0)
(0 -0.00130079 0)
(0 -0.0011083 0)
(0 -0.00130108 0)
(0 -0.00104116 0)
(0 -0.00131386 0)
(0 -0.00168123 0)
(0 -0.00157379 0)
(0 -0.00156691 0)
(0 -0.00132402 0)
(0 -0.000925786 0)
(0 -0.000284288 0)
(0 -0.000973732 0)
(0 -0.000287431 0)
(0 -0.000282924 0)
(0 -0.000479323 0)
(0 -0.00115016 0)
(0 -0.00162349 0)
(0 -0.00111484 0)
(0 -0.000279758 0)
(0 -0.00108157 0)
(0 -0.00171498 0)
(0 -2.98304e-05 0)
(0 -0.00096176 0)
(0 -0.000496244 0)
(0 -0.00142588 0)
(0 -0.00181944 0)
(0 -0.000291087 0)
(0 -0.000982596 0)
(0 -0.00108245 0)
(0 -0.00157333 0)
(0 -0.00099242 0)
(0 -0.00149147 0)
(0 -0.00113822 0)
(0 -0.000983913 0)
(0 -0.00093822 0)
(0 -0.000939065 0)
(0 -0.000372918 0)
(0 -1.61926e-05 0)
(0 -0.000736446 0)
(0 -0.00172174 0)
(0 -0.000293605 0)
(0 -0.000848026 0)
(0 -0.00029322 0)
(0 -0.000714616 0)
(0 -0.000883957 0)
(0 -0.00123576 0)
(0 -0.00023983 0)
(0 -0.000680768 0)
(0 -0.00174921 0)
(0 -0.000841089 0)
(0 -0.000661535 0)
(0 -0.000914734 0)
(0 -0.000875633 0)
(0 -0.00080127 0)
(0 -0.00161191 0)
(0 -0.000126899 0)
(0 -0.000158707 0)
(0 -0.000852965 0)
(0 -0.00152887 0)
(0 -0.00099884 0)
(0 -0.000457783 0)
(0 -0.00131183 0)
(0 -0.00186132 0)
(0 -5.44558e-05 0)
(0 -0.000824774 0)
(0 -0.00100915 0)
(0 -0.00107815 0)
(0 -0.00104621 0)
(0 -0.00147547 0)
(0 -0.00181345 0)
(0 -0.000897755 0)
(0 -0.00151543 0)
(0 -0.000535101 0)
(0 -0.000819127 0)
(0 -0.000818824 0)
(0 -0.000351866 0)
(0 -0.000665866 0)
(0 -0.000318849 0)
(0 -0.000289499 0)
(0 -6.34657e-05 0)
(0 -0.00102726 0)
(0 -0.000278614 0)
(0 -0.000823663 0)
(0 -0.000812897 0)
(0 -0.000667724 0)
(0 -0.000871725 0)
(0 -0.000273127 0)
(0 -0.000591194 0)
(0 -0.000879718 0)
(0 -0.000282294 0)
(0 -0.00172481 0)
(0 -0.00131865 0)
(0 -0.000117437 0)
(0 -0.000713151 0)
(0 -0.000773291 0)
(0 -0.000330439 0)
(0 -0.000399909 0)
(0 -0.000566975 0)
(0 -0.000890317 0)
(0 -0.000386437 0)
(0 -0.000969881 0)
(0 -0.000716918 0)
(0 -0.00102088 0)
(0 -0.0010348 0)
(0 -0.00177263 0)
(0 -0.000633924 0)
(0 -0.00153041 0)
(0 -0.000685115 0)
(0 -0.000364009 0)
(0 -0.000410901 0)
(0 -0.00068085 0)
(0 -0.000292233 0)
(0 -0.0010428 0)
(0 -0.000436928 0)
(0 -0.0018116 0)
(0 -0.00151193 0)
(0 -0.00120245 0)
(0 -0.00126684 0)
(0 -0.000763529 0)
(0 -0.000531547 0)
(0 -0.000157533 0)
(0 -6.63122e-05 0)
(0 -0.00129894 0)
(0 -0.00126799 0)
(0 -6.96219e-05 0)
(0 -0.00147207 0)
(0 -0.00135299 0)
(0 -0.000932918 0)
(0 -0.000367762 0)
(0 -0.00126591 0)
(0 -0.00137431 0)
(0 -0.000297926 0)
(0 -0.001156 0)
(0 -0.00186318 0)
(0 -0.00154725 0)
(0 -0.000289106 0)
(0 -0.000333039 0)
(0 -0.000319094 0)
(0 -0.001774 0)
(0 -0.000800976 0)
(0 -0.00119793 0)
(0 -0.000348427 0)
(0 -0.000932267 0)
(0 -0.000856141 0)
(0 -0.00109907 0)
(0 -0.000783261 0)
(0 -0.000945409 0)
(0 -0.00101168 0)
(0 -0.000753064 0)
(0 -0.000749593 0)
(0 -0.000816066 0)
(0 -0.000422439 0)
(0 -0.00102398 0)
(0 -1.93379e-05 0)
(0 -0.000914507 0)
(0 -0.000265717 0)
(0 -0.00131922 0)
(0 -0.00102649 0)
(0 -0.00124564 0)
(0 -0.00069237 0)
(0 -0.00153666 0)
(0 -3.31921e-05 0)
(0 -0.000912818 0)
(0 -0.00105843 0)
(0 -0.000668339 0)
(0 -0.00100497 0)
(0 -0.000613893 0)
(0 -0.00183003 0)
(0 -0.000871383 0)
(0 -0.000833753 0)
(0 -0.00151933 0)
(0 -0.000636054 0)
(0 -0.000286298 0)
(0 -0.000661525 0)
(0 -0.00115582 0)
(0 -0.000694018 0)
(0 -0.00100416 0)
(0 -0.000435013 0)
(0 -0.00132481 0)
(0 -0.000813007 0)
(0 -0.00147956 0)
(0 -0.000126242 0)
(0 -0.000893419 0)
(0 -0.000682108 0)
(0 -0.00123021 0)
(0 -0.00178998 0)
(0 -0.000407322 0)
(0 -0.00165084 0)
(0 -0.000352815 0)
(0 -0.0018157 0)
(0 -0.00100181 0)
(0 -0.000907734 0)
(0 -0.00155297 0)
(0 -0.000782769 0)
(0 -0.0014927 0)
(0 -0.00037116 0)
(0 -0.000464269 0)
(0 -0.00031748 0)
(0 -0.000876727 0)
(0 -0.000937804 0)
(0 -0.00045472 0)
(0 -0.000370806 0)
(0 -0.000703293 0)
(0 -0.000336992 0)
(0 -0.000946726 0)
(0 -0.00012571 0)
(0 -0.00089773 0)
(0 -0.00126901 0)
(0 -0.000581407 0)
(0 -0.00159118 0)
(0 -0.000445807 0)
(0 -0.000602318 0)
(0 -0.000284254 0)
(0 -0.000305353 0)
(0 -0.00174159 0)
(0 -0.000999934 0)
(0 -0.000778144 0)
(0 -0.000968732 0)
(0 -0.000389052 0)
(0 -0.00111565 0)
(0 -0.000992534 0)
(0 -0.00181014 0)
(0 -0.0009808 0)
(0 -0.00142478 0)
(0 -0.00163881 0)
(0 -6.33622e-05 0)
(0 -0.000897225 0)
(0 -0.000981689 0)
(0 -0.00176461 0)
(0 -0.000901961 0)
(0 -0.00165999 0)
(0 -0.000735583 0)
(0 -0.00106324 0)
(0 -0.000973493 0)
(0 -0.00163036 0)
(0 -0.00125605 0)
(0 -0.00042048 0)
(0 -0.00157756 0)
(0 -6.33118e-05 0)
(0 -0.00111661 0)
(0 -0.00067513 0)
(0 -0.000787058 0)
(0 -0.00115905 0)
(0 -0.000782427 0)
(0 -0.00091905 0)
(0 -0.000784195 0)
(0 -0.000627323 0)
(0 -0.000764453 0)
(0 -6.80325e-05 0)
(0 -0.000916871 0)
(0 -0.00158244 0)
(0 -0.000998338 0)
(0 -0.000920648 0)
(0 -0.000585735 0)
(0 -0.0009461 0)
(0 -0.000627333 0)
(0 -0.000758725 0)
(0 -0.000657702 0)
(0 -0.000941746 0)
(0 -0.000957079 0)
(0 -0.000513306 0)
(0 -0.00101841 0)
(0 -0.000903037 0)
(0 -0.000766446 0)
(0 -0.000432142 0)
(0 -0.000384736 0)
(0 -0.00069848 0)
(0 -6.62281e-05 0)
(0 -0.000906361 0)
(0 -0.000887789 0)
(0 -0.000996705 0)
(0 -0.00170666 0)
(0 -5.29158e-05 0)
(0 -0.000919055 0)
(0 -0.00106306 0)
(0 -0.00147366 0)
(0 -0.000976984 0)
(0 -0.00100446 0)
(0 -0.00087564 0)
(0 -0.000365057 0)
(0 -0.000654615 0)
(0 -0.000633813 0)
(0 -0.00159064 0)
(0 -0.00091477 0)
(0 -0.000795655 0)
(0 -0.000752928 0)
(0 -0.000673772 0)
(0 -0.00122356 0)
(0 -0.000285494 0)
(0 -0.000768275 0)
(0 -0.00100382 0)
(0 -0.00100951 0)
(0 -0.000837379 0)
(0 -0.000874856 0)
(0 -0.00130343 0)
(0 -0.00111023 0)
(0 -0.00107241 0)
(0 -0.0010063 0)
(0 -0.00122953 0)
(0 -3.19215e-05 0)
(0 -0.000485535 0)
(0 -0.000315105 0)
(0 -0.000554319 0)
(0 -6.88154e-05 0)
(0 -0.000805624 0)
(0 -0.000670849 0)
(0 -0.00079596 0)
(0 -0.00089298 0)
(0 -0.000881136 0)
(0 -0.000857177 0)
(0 -0.000993325 0)
(0 -0.00109335 0)
(0 -0.00100351 0)
(0 -0.00125731 0)
(0 -0.000715085 0)
(0 -0.00067395 0)
(0 -0.00101079 0)
(0 -0.000101469 0)
(0 -0.00128816 0)
(0 -3.21744e-05 0)
(0 -0.00125006 0)
(0 -0.00109715 0)
(0 -0.00096739 0)
(0 -0.000382303 0)
(0 -0.00079604 0)
(0 -0.00112324 0)
(0 -0.0010943 0)
(0 -0.00054265 0)
(0 -0.000960838 0)
(0 -0.000406258 0)
(0 -0.000917727 0)
(0 -0.00105877 0)
(0 -2.2585e-05 0)
(0 -0.000431739 0)
(0 -0.000914592 0)
(0 -0.000643184 0)
(0 -0.000458594 0)
(0 -0.00118768 0)
(0 -0.000971264 0)
(0 -0.000985956 0)
(0 -0.000885265 0)
(0 -0.000682947 0)
(0 -0.000126534 0)
(0 -0.000803933 0)
(0 -0.00176257 0)
(0 -0.000987721 0)
(0 -0.00110222 0)
(0 -0.000763853 0)
(0 -0.000912295 0)
(0 -0.000536744 0)
(0 -0.00119457 0)
(0 -0.000791318 0)
(0 -0.00116195 0)
(0 -0.000786578 0)
(0 -0.000660599 0)
(0 -0.000839186 0)
(0 -6.30543e-05 0)
(0 -0.000555795 0)
(0 -0.00101903 0)
(0 -0.00186913 0)
(0 -0.00163015 0)
(0 -0.00069958 0)
(0 -0.00117446 0)
(0 -0.000748159 0)
(0 -0.00113049 0)
(0 -0.000157989 0)
(0 -0.00088206 0)
(0 -0.00101902 0)
(0 -0.00110817 0)
(0 -0.000130182 0)
(0 -0.00109707 0)
(0 -0.00107736 0)
(0 -0.000467685 0)
(0 -0.00111607 0)
(0 -0.00105226 0)
(0 -0.00122505 0)
(0 -0.000359922 0)
(0 -0.00182008 0)
(0 -0.000535406 0)
(0 -0.000636991 0)
(0 -0.00102356 0)
(0 -0.000905082 0)
(0 -0.00120932 0)
(0 -0.00133169 0)
(0 -0.000819591 0)
(0 -0.000686698 0)
(0 -0.00180398 0)
(0 -0.00108291 0)
(0 -0.000585828 0)
(0 -0.001205 0)
(0 -0.00114723 0)
(0 -0.00114851 0)
(0 -0.000717571 0)
(0 -0.00109415 0)
(0 -0.000884732 0)
(0 -0.000955757 0)
(0 -0.000827396 0)
(0 -0.00163905 0)
(0 -0.00151697 0)
(0 -0.00081136 0)
(0 -0.000711197 0)
(0 -0.000387247 0)
(0 -0.000928796 0)
(0 -0.000815095 0)
(0 -0.00100831 0)
(0 -0.00108429 0)
(0 -0.000792268 0)
(0 -0.00128858 0)
(0 -0.00180248 0)
(0 -0.00112208 0)
(0 -0.00114439 0)
(0 -0.000996553 0)
(0 -6.41204e-05 0)
(0 -0.000840338 0)
(0 -0.000981373 0)
(0 -0.000820693 0)
(0 -0.000713868 0)
(0 -0.000261764 0)
(0 -0.00111933 0)
(0 -0.00159385 0)
(0 -0.0010122 0)
(0 -0.000952762 0)
(0 -0.00103721 0)
(0 -0.00105787 0)
(0 -0.000386621 0)
(0 -0.000706404 0)
(0 -0.000873288 0)
(0 -0.00106053 0)
(0 -0.00179173 0)
(0 -0.000784217 0)
(0 -0.00100992 0)
(0 -0.00135157 0)
(0 -0.000926957 0)
(0 -0.000730014 0)
(0 -0.00120842 0)
(0 -0.000740619 0)
(0 -0.00107108 0)
(0 -0.00113892 0)
(0 -0.00103331 0)
(0 -0.00130606 0)
(0 -0.00152779 0)
(0 -0.00106625 0)
(0 -0.000729888 0)
(0 -0.000980205 0)
(0 -0.000213506 0)
(0 -0.000781212 0)
(0 -0.00119595 0)
(0 -0.000366193 0)
(0 -0.00130577 0)
(0 -0.000953854 0)
(0 -0.000826092 0)
(0 -0.00125584 0)
(0 -0.00125013 0)
(0 -0.000912092 0)
(0 -0.00120767 0)
(0 -0.00136586 0)
(0 -0.00110002 0)
(0 -0.00164406 0)
(0 -0.000943179 0)
(0 -0.000979385 0)
(0 -0.000769973 0)
(0 -0.0014288 0)
(0 -0.000958288 0)
(0 -0.00128044 0)
(0 -0.00108337 0)
(0 -0.0012432 0)
(0 -0.00176409 0)
(0 -0.000991178 0)
(0 -0.000386414 0)
(0 -0.000686703 0)
(0 -0.00133897 0)
(0 -0.000442789 0)
(0 -0.00112012 0)
(0 -0.00147569 0)
(0 -0.00141479 0)
(0 -0.000348598 0)
(0 -0.00113162 0)
(0 -0.000644245 0)
(0 -0.00177756 0)
(0 -3.02277e-05 0)
(0 -0.00109577 0)
(0 -0.00130059 0)
(0 -0.00123472 0)
(0 -0.000274063 0)
(0 -0.00168494 0)
(0 -0.00100311 0)
(0 -0.000421379 0)
(0 -0.00100253 0)
(0 -0.0008506 0)
(0 -0.0011035 0)
(0 -0.000287401 0)
(0 -0.00113238 0)
(0 -0.000518737 0)
(0 -0.00100588 0)
(0 -0.000717985 0)
(0 -0.000871904 0)
(0 -0.0012811 0)
(0 -0.000846082 0)
(0 -0.00178779 0)
(0 -0.00184344 0)
(0 -0.00174737 0)
(0 -0.00113249 0)
(0 -0.000618885 0)
(0 -0.000801302 0)
(0 -0.000949215 0)
(0 -0.00100361 0)