/*--------------------------------*- C++ -*----------------------------------*\
| =========                 |                                                 |
| \\      /  F ield         | OpenFOAM: The Open Source CFD Toolbox           |
|  \\    /   O peration     | Version:  v2012                                 |
|   \\  /    A nd           | Website:  www.openfoam.com                      |
|    \\/     M anipulation  |                                                 |
\*---------------------------------------------------------------------------*/
FoamFile
{
    version     2.0;
    format      ascii;
    class       volScalarField;
    location    "600";
    object      ddt0(k);
}
// * * * * * * * * * * * * * * * * * * * * * * * * * * * * * * * * * * * * * //

dimensions      [0 2 -3 0 0 0 0];


internalField   nonuniform List<scalar> 
9793
(
7.4274e-07
0.00178816
9.90819e-07
-1.73511e-07
-0.00232455
9.41592e-07
-2.4216e-07
8.96562e-08
5.52309e-08
0.00757301
-4.54526e-06
-0.00335072
-9.98098e-08
2.33418e-07
-3.79117e-07
7.50237e-08
1.65995e-06
2.84434e-06
3.65453e-05
1.482e-07
-2.58457e-05
4.96593e-07
-8.14056e-05
-1.34805e-08
-1.50457e-06
-3.64603e-08
5.95474e-07
-5.30878e-07
-3.00352e-06
1.14962e-07
-1.85276e-05
-0.000202977
-0.00220602
8.51221e-08
-3.55833e-06
0.000106681
-7.83891e-08
5.25991e-07
4.67926e-08
8.30271e-08
-7.68755e-06
-3.64384e-07
-1.21135e-08
-1.15522e-07
6.15057e-08
-6.28288e-08
-3.39306e-06
-0.000467268
-0.000101421
-1.8379e-07
-3.78914e-06
-5.53708e-06
8.04636e-07
-1.28144e-08
0.0057516
-0.00665969
-1.36158e-07
-5.83038e-06
-0.0077583
2.1705e-07
1.19697e-07
7.76091e-07
-0.00937932
-2.08358e-07
-0.0216223
-0.00350162
-0.00894192
-0.0058917
-0.00454071
-4.54598e-06
0.00283739
4.057e-08
1.24645e-07
0.00100086
-4.04934e-06
-0.0079906
-2.46932e-08
-1.08576e-06
-2.27736e-06
-6.63162e-07
-0.00284234
-5.83556e-07
0.0010527
-0.000232109
1.56206e-06
-8.18281e-05
-2.89279e-07
1.52866e-08
6.63859e-07
-7.33861e-07
0.00199858
0.00353089
5.6588e-07
0.000146267
7.42599e-07
-0.000394302
-0.0150854
0.00157285
3.87357e-07
1.22257e-07
8.03382e-08
-4.78338e-07
5.20566e-08
3.43073e-08
-1.1308e-06
6.36936e-07
7.05577e-07
-5.32347e-08
7.09373e-07
-0.00158414
4.89471e-08
-0.00259212
-5.82422e-07
-0.0162042
-5.00802e-06
-4.90857e-08
-0.00398921
-4.08344e-06
-3.90124e-06
-2.77357e-05
-0.00146385
8.81939e-08
-1.77296e-07
9.64819e-07
3.2381e-08
6.2078e-05
-2.51677e-06
3.80449e-05
-1.45256e-06
7.34969e-08
6.91496e-08
1.15293e-08
1.28036e-07
6.15334e-08
-1.52344e-08
8.8401e-09
-1.12352e-07
-1.08516e-07
-4.55285e-07
4.23386e-09
-1.12307e-07
-1.34347e-06
-2.06845e-07
6.87705e-08
5.19708e-07
1.8603e-06
0.00108035
6.88509e-08
3.74159e-07
0.00255276
0.0438888
5.95774e-08
0.0498859
0.0370527
3.20735e-07
9.7567e-08
1.53958e-08
-1.10787e-06
5.72016e-08
-1.99013e-07
1.83147e-07
-6.58308e-07
9.05399e-08
5.78631e-06
0.0012402
-6.18066e-05
-9.97362e-05
-2.8767e-07
4.18649e-07
4.77301e-07
-6.37117e-07
-0.00219134
0.00135653
-0.00182661
5.55093e-08
1.1479e-05
4.7771e-09
-1.41819e-08
3.55399e-08
-1.02702e-06
-0.00986686
-1.62316e-07
9.97176e-08
-1.40826e-06
-0.00864665
5.03578e-08
1.83688e-05
2.17847e-08
-1.79078e-07
7.91895e-08
4.47257e-08
-2.66322e-08
0.00378619
0.000465541
-0.00709124
-9.23666e-07
1.9815e-06
-1.15384e-07
0.0563446
-5.04222e-09
-2.01134e-08
4.23434e-06
-0.00710456
6.21685e-08
-2.0146e-08
-4.05511e-07
0.000307622
-7.88288e-08
6.61588e-07
1.63245e-07
-1.41879e-06
0.00378719
-0.00199239
1.27972e-07
4.28424e-05
2.47183e-08
4.61939e-07
-0.010802
-2.15416e-07
-0.000802861
3.90578e-06
1.43813e-08
2.94464e-08
-2.11476e-08
1.52375e-05
1.03355e-06
8.44504e-07
2.76961e-07
-1.11828e-06
-3.80545e-06
-7.82016e-08
-2.86512e-08
-8.59848e-08
-8.18998e-09
-3.23145e-06
-0.00526185
-3.1851e-07
-5.22553e-07
-0.0144603
-3.83256e-07
1.04784e-06
2.59369e-09
-4.8632e-07
-0.00204179
-3.32763e-07
3.41128e-07
1.25587e-07
-1.05771e-06
4.08188e-07
1.02234e-07
2.51897e-07
-3.72612e-07
-4.74279e-06
-2.84201e-06
-4.53498e-07
5.65116e-07
-4.70238e-07
-3.90533e-07
4.79821e-07
-2.65181e-08
-0.00173415
-3.16267e-07
-4.53924e-06
-2.28603e-07
-5.05272e-07
3.07382e-08
1.84752e-07
-1.37597e-06
-7.49838e-06
6.54899e-07
-2.01096e-08
-3.15988e-08
5.32018e-08
4.77072e-08
0.00183699
0.00197107
1.74204e-07
0.000178209
-4.97897e-08
-2.84477e-06
-8.85308e-07
-1.1109e-07
-1.09141e-07
7.22089e-08
-2.48365e-06
2.71153e-08
2.50702e-07
-4.23074e-07
-1.93851e-07
-6.35892e-09
-4.35739e-07
-0.00318969
6.54211e-07
-8.53749e-08
5.68233e-08
2.52563e-07
1.48679e-07
-4.22626e-07
5.52529e-08
-3.55954e-05
3.04205e-07
0.00326047
-0.00343445
6.4426e-10
-1.13756e-07
4.37622e-08
1.90833e-07
-1.52291e-08
-6.8608e-07
0.00237822
-2.64208e-08
-2.86392e-09
6.8583e-08
3.89708e-07
2.34023e-07
1.73847e-07
3.55917e-05
-4.01294e-07
1.29651e-07
9.1095e-08
-2.09153e-07
0.0012185
1.95823e-05
0.000713534
1.63496e-07
-0.0155218
2.28994e-07
-0.00824494
-2.64212e-06
8.21403e-09
-3.0299e-07
-3.78887e-06
2.36779e-07
6.90906e-07
-6.70421e-06
1.30133e-07
1.34327e-08
-2.3877e-07
-5.94672e-08
-7.24507e-07
-2.06543e-06
9.08399e-08
-2.39059e-07
1.23969e-05
-3.38282e-07
1.51061e-08
-3.68696e-08
4.57668e-07
1.2374e-07
1.90416e-05
4.691e-08
2.19155e-08
3.98587e-07
-6.47489e-07
0.000913069
1.94916e-08
1.10252e-06
-1.08322e-08
-2.46942e-06
0.0160067
3.24368e-05
-2.78617e-06
4.21626e-07
-2.86038e-07
5.35338e-05
1.26161e-07
-0.00164749
-1.20962e-07
-3.66227e-09
-0.00380197
5.88258e-07
0.000110521
5.95501e-08
-3.75295e-06
-3.35159e-05
-1.19449e-06
5.67429e-08
-0.00231025
-8.81591e-07
0.000999447
5.59348e-07
1.41289e-07
-0.00765498
1.68573e-07
3.26647e-07
-1.99016e-07
1.05947e-07
4.74994e-07
3.24708e-08
5.47231e-07
-0.000167039
1.57774e-07
-0.00599669
0.000874269
3.83866e-05
-3.90158e-06
0.00026846
6.90194e-08
-2.05908e-07
0.00651316
0.000670571
7.48227e-08
-1.03491e-07
-2.08466e-05
7.72976e-09
-0.0231035
-6.04975e-07
5.65651e-07
-3.07732e-09
-1.5353e-06
1.07453e-07
-8.62187e-07
-0.000421698
-5.7673e-08
-0.000664218
2.48138e-07
1.38717e-07
-1.4631e-06
-2.92185e-07
6.13886e-07
2.19772e-06
-1.12364e-07
-2.99338e-08
2.59388e-07
-6.51193e-06
1.60926e-07
4.95161e-07
1.9835e-07
1.12199e-07
-1.1359e-06
-2.341e-07
2.96763e-07
7.15361e-08
-0.0040009
1.10159e-06
-0.00386977
4.50591e-07
0.00828771
2.66177e-09
3.07123e-07
-1.38507e-07
1.75196e-07
-0.00842424
-1.58463e-07
0.010653
1.42814e-08
-5.06677e-07
2.95937e-07
-0.000504095
-3.05865e-06
0.0152221
0.00661079
8.67169e-07
-2.97783e-07
-9.2176e-07
-1.07819e-06
-1.35798e-06
0.00143324
0.00415813
-1.91731e-08
-1.41334e-06
-3.60263e-06
-1.35473e-07
-6.66777e-07
-1.89133e-07
1.24679e-07
1.95728e-07
-0.00216386
-8.43952e-07
-0.010876
1.30984e-07
2.23885e-07
-6.84097e-09
4.22982e-08
7.15434e-08
-7.24464e-07
-1.59038e-06
5.05599e-07
-8.45391e-07
5.27211e-08
-1.41342e-07
1.93405e-07
-0.00149289
-2.00997e-07
-4.17343e-07
-0.00324463
7.44102e-07
4.67353e-08
-0.00996277
0.00438123
-1.29806e-07
-2.26036e-07
3.7998e-07
2.37359e-07
2.43337e-07
-1.28122e-07
9.34958e-08
-5.43292e-08
-5.5421e-07
-4.26432e-07
0.000857893
-6.04608e-06
1.61508e-08
-0.00773359
-5.64739e-07
2.65438e-07
5.82293e-07
-2.26994e-06
-0.00156701
-8.74115e-07
0.0112484
-3.88121e-08
-4.84701e-07
-4.34254e-06
-1.17515e-07
-2.17606e-06
-0.00346194
3.41164e-08
2.23101e-07
-0.00364399
5.35107e-07
-2.43383e-07
-6.88324e-07
-2.97501e-06
-6.08808e-08
-2.43583e-07
-7.84088e-08
-1.32134e-07
-0.00305045
-3.3123e-06
-2.06864e-07
6.49401e-07
-5.83875e-07
-3.23982e-07
1.48561e-07
1.81022e-08
-1.36489e-08
4.35012e-05
1.59952e-05
-3.29341e-08
-2.55866e-06
0.0150112
3.73018e-07
0.00039104
5.38573e-07
3.77711e-09
-3.64984e-06
-0.00963086
6.62193e-08
5.29093e-05
-1.15053e-07
-0.015191
-4.59103e-07
-0.00272646
9.85095e-08
-4.93171e-07
1.64596e-06
0.00166176
2.8165e-07
-0.00903057
-0.00217431
-0.0195707
-2.21398e-06
0.0108505
-1.38563e-06
-3.25048e-07
-1.69056e-06
-1.9142e-06
-0.00138464
1.19483e-08
0.0094912
1.13194e-07
0.000258268
-8.04226e-08
-6.32482e-08
-3.3004e-07
-0.000378045
1.05864e-07
-8.31591e-08
-9.94145e-08
1.01313e-07
-8.98922e-07
1.30521e-07
6.49381e-08
3.6817e-07
3.73157e-07
7.33361e-05
-1.89146e-07
0.00527893
-0.0177194
-1.87102e-07
-2.26686e-08
2.4014e-07
-1.03121e-07
-1.06124e-07
2.99785e-07
-1.16799e-06
-4.77931e-07
-2.5932e-08
8.37609e-08
-2.37953e-07
-4.31063e-06
2.9157e-07
-3.92141e-07
4.14595e-07
4.92549e-07
0.00133546
2.2229e-07
2.06986e-06
-7.67233e-07
-2.1139e-07
4.54652e-08
1.23957e-07
-2.76387e-06
-5.29022e-06
-3.29878e-07
7.78512e-07
1.30493e-08
-3.63167e-07
6.92838e-07
-1.99208e-07
6.07963e-07
2.48704e-08
-4.15601e-08
1.11395e-07
1.01638e-07
6.22746e-07
-4.09357e-08
-2.00422e-06
-1.08442e-07
-1.48109e-07
4.44631e-08
-2.21974e-07
-1.37488e-07
2.09219e-08
-6.70553e-08
-1.20573e-07
2.51563e-07
1.17163e-07
-1.89161e-06
6.81604e-08
-1.26234e-07
-8.72035e-08
0.0120006
-3.9083e-08
3.50073e-08
-4.36575e-06
-1.24178e-07
-2.30536e-07
-0.000960367
-1.49699e-06
-3.07453e-07
6.63162e-08
-9.34083e-07
1.32412e-07
-4.21011e-06
-0.0186096
-0.00180413
-0.00378719
-2.1502e-07
-4.90059e-08
0.00444212
2.09906e-06
5.31013e-08
0.000519815
0.00328792
0.0428029
-1.01932e-09
-2.76564e-06
-2.67951e-08
-1.78709e-07
-0.00736891
-1.95412e-07
2.55097e-05
5.6663e-07
-5.49639e-06
-1.69699e-07
6.50344e-08
2.81226e-07
-0.0004902
0.00250391
-7.22065e-07
-1.54827e-05
-1.16414e-06
-1.36776e-07
6.73132e-07
-4.2403e-06
-0.0135846
4.44463e-08
0.000515934
2.24347e-06
-0.00101955
0.000367256
-0.00305064
0.00228019
-6.71757e-07
5.03742e-07
0.00463548
-3.42597e-07
-7.12597e-08
3.77637e-08
-8.76546e-07
8.0024e-08
-0.00226709
8.99675e-08
0.00377159
-2.16298e-07
0.000111521
-4.50613e-06
1.31745e-07
0.00868504
-0.00505469
7.77247e-08
-0.00463516
8.36844e-07
-2.55537e-06
8.86784e-08
-1.01523e-07
-0.00204337
1.41243e-07
0.00302105
-9.63425e-08
0.00298153
-1.75933e-07
-0.000502888
-0.0019619
-6.85624e-07
0.00129992
-1.61195e-07
-5.51832e-08
-2.54683e-06
-0.0173036
-0.0239554
-3.04989e-07
-1.68516e-07
4.10152e-08
-0.00264737
-0.000175746
-4.63737e-08
1.0195e-06
0.000511753
5.90563e-08
-2.46892e-07
-2.90772e-07
-3.54503e-05
-1.04521e-06
2.23817e-07
-6.34021e-08
2.293e-07
-0.00367533
0.0226952
0.000293747
-2.20414e-07
-4.55996e-08
0.0107924
-1.59783e-08
-0.00583323
-2.99775e-06
0.00311413
-0.00177579
0.00279395
1.95344e-08
9.77781e-08
-3.01744e-07
-7.91709e-08
-5.00556e-07
5.33383e-08
-3.47743e-06
0.00566506
-1.15982e-07
-0.0031175
2.36943e-07
-0.00621308
4.99784e-08
-0.00198133
6.64857e-07
-1.64601e-05
-4.17131e-08
2.86542e-06
0.000104547
0.00316348
0.00519072
4.84111e-07
-1.2169e-06
9.13997e-07
5.19974e-07
4.74925e-08
-0.0162813
1.87127e-08
-3.51261e-06
4.40873e-08
-1.23068e-06
-5.60984e-07
1.87313e-08
1.18805e-07
-4.25974e-08
-0.00390453
-1.53512e-07
3.4023e-07
-6.98887e-08
7.8773e-08
1.0648e-07
-2.30369e-06
-1.6576e-07
-7.53975e-08
-8.1489e-08
-9.19846e-08
0.00335856
-1.17206e-07
-5.15022e-06
-1.02818e-07
0.000363713
-3.79303e-08
-6.29428e-05
-1.28202e-07
-0.00513431
3.73578e-07
1.39088e-07
-1.96506e-08
-0.00194834
0.00338136
-0.00694927
0.0147611
0.0128399
8.54315e-08
-2.01445e-07
0.000941865
1.13083e-07
-0.00167077
-0.00146347
-1.9374e-06
-0.000148969
4.10787e-07
0.00218015
-1.8469e-07
-0.00482128
0.00181397
3.72001e-07
7.74408e-08
0.00337801
-1.18102e-06
-2.87537e-07
6.00448e-07
-1.03005e-07
-9.34628e-07
-2.26351e-06
3.12165e-08
-1.29478e-07
-1.27466e-07
0.000503573
-2.49198e-06
7.70473e-07
-0.00188253
-1.97181e-08
-7.77221e-08
-0.000427879
-5.936e-06
-2.35101e-06
7.93259e-08
0.000192317
-2.74284e-07
8.2178e-08
-0.00424482
1.34587e-07
4.18342e-07
0.000937965
6.92885e-05
-7.69935e-07
-0.00606839
0.0129272
0.000381152
0.00412818
-0.0129593
-3.77277e-08
-0.0035594
3.40562e-07
8.03615e-08
2.68056e-07
-1.32803e-07
1.24938e-06
-0.000652511
2.39231e-06
-0.00346504
-2.35022e-06
-2.36167e-07
3.88002e-07
-2.27483e-06
2.2255e-06
4.39385e-07
-3.06042e-06
-6.42634e-06
9.01517e-09
-6.1989e-06
4.7805e-06
-1.18778e-06
-3.70553e-07
-3.34706e-08
0.00306751
-0.0118454
-1.12986e-05
1.44196e-08
-6.47058e-09
4.02361e-07
3.05913e-07
5.30906e-05
-6.26214e-06
0.00560014
-1.62093e-06
-0.00165212
-5.73331e-07
8.54532e-07
8.04748e-07
-3.36379e-07
-0.000233801
-2.7953e-08
-3.51673e-07
-6.49098e-06
-1.99003e-06
-0.00799849
6.44604e-08
-0.00115044
-0.00110366
-2.47447e-07
-2.70242e-06
-2.79981e-07
0.000109949
-2.28985e-07
-6.83755e-07
-3.71662e-05
2.65807e-06
1.22839e-08
0.000225511
4.731e-07
-2.50345e-07
-1.03616e-07
0.0110735
5.84518e-07
-9.24923e-07
-0.0049179
-2.69161e-06
6.19495e-07
-1.27781e-06
-0.00049504
-0.00216966
-0.00021855
6.41465e-08
9.10607e-08
-3.91836e-08
1.25287e-06
6.4994e-08
0.0149026
0.00235408
-2.92583e-07
-0.00428247
0.000572001
-0.00377062
7.51076e-08
0.00255004
6.23779e-08
-0.000866044
-3.68611e-06
-1.09156e-07
-0.00976065
0.00443686
5.7234e-09
8.62884e-08
-2.78632e-07
-0.0161236
-0.00515874
-2.71138e-07
1.29223e-06
0.000174701
1.1389e-05
-0.00631942
-0.000577563
-2.73425e-07
-4.01917e-07
-0.00138055
-6.96736e-06
4.9569e-08
1.24169e-07
-3.10828e-07
2.62445e-07
4.5203e-07
-7.22934e-07
-1.70271e-05
2.75092e-07
-6.52798e-08
4.92756e-05
-8.93428e-08
7.84436e-08
5.55566e-07
0.00803962
8.33236e-08
-5.9562e-06
8.94629e-05
8.3376e-08
8.43284e-09
1.0358e-07
-9.61976e-08
5.1759e-07
-0.00204358
-0.0031488
-1.45954e-06
6.20609e-05
-8.57317e-07
0.000367219
-2.26165e-07
-1.34725e-06
4.37468e-07
5.03296e-07
0.00282427
-7.62209e-08
-1.02023e-07
-2.80828e-07
-1.07511e-06
4.29472e-06
-9.40305e-07
2.75075e-08
-7.28189e-06
1.04818e-07
-9.33232e-08
0.00173175
2.23073e-08
0.000749837
-2.77561e-07
-1.15867e-07
0.000108898
-4.773e-06
-1.93057e-06
-0.00245976
1.11003e-07
-0.00551336
-1.45171e-07
-3.16561e-07
-0.000126869
-0.00792197
1.34829e-07
1.65101e-07
3.54413e-08
5.73037e-08
-1.49092e-06
3.47452e-07
-5.18381e-07
-1.12153e-07
-7.47689e-07
-1.09723e-08
3.32027e-07
-1.4889e-08
-1.22638e-07
-1.25197e-07
-0.00291453
5.79267e-07
-1.17125e-09
-2.88201e-06
-7.59179e-07
4.29543e-05
0.000341959
-1.93597e-06
1.35287e-07
-2.49055e-08
-5.01183e-06
6.28093e-07
-2.56207e-07
6.15018e-07
-0.00148124
0.000317146
-1.49647e-07
-3.54213e-09
-3.36464e-06
-1.45282e-06
-2.79259e-08
-0.00276252
-2.3612e-06
4.91107e-07
2.28642e-07
-6.84028e-06
1.27071e-07
1.05621e-06
-0.00424988
1.52387e-07
-0.00319318
-1.91222e-06
0.000172827
-9.21498e-09
-2.32786e-08
3.38085e-08
2.48805e-08
-0.00102696
-8.9126e-08
-0.00314029
2.16902e-07
3.00826e-08
9.78877e-08
2.29893e-07
7.41815e-08
-4.15535e-08
3.99412e-07
6.82501e-07
0.00168119
3.43012e-08
-2.83172e-08
-0.00180093
-2.11828e-07
1.69043e-07
-1.44483e-05
3.19492e-08
1.57772e-07
1.11486e-07
-2.33277e-07
-1.22428e-05
7.74849e-08
-0.000125372
0.00340789
1.88807e-09
-9.55351e-08
1.71489e-08
-1.67494e-05
-2.20933e-07
5.55186e-07
2.12464e-08
1.50988e-08
-1.43341e-06
-1.27502e-07
-1.43784e-06
3.42059e-08
-1.71913e-07
0.000457165
-9.15625e-05
-2.81442e-07
-2.31438e-07
-2.2293e-07
0.0037735
1.12398e-06
1.12643e-07
1.47761e-05
0.001027
-1.85487e-07
6.34267e-05
-0.000958175
1.94049e-07
-0.00182365
2.49472e-06
-9.42553e-06
3.38541e-08
9.03043e-07
-1.45288e-05
2.84883e-08
0.00069274
-0.00290866
-4.66043e-07
-0.000576189
0.00106819
-3.73923e-07
-0.00160372
-1.04021e-07
-9.04171e-07
-2.82543e-06
-2.3869e-07
0.00331694
-1.60376e-07
-3.09449e-06
-1.1809e-07
-1.69778e-08
0.00212577
6.24747e-07
-2.93046e-07
-1.97966e-06
-3.36854e-07
-0.0260623
-0.00122337
-2.46281e-08
-4.13735e-07
-0.00405362
1.25649e-07
-6.05399e-07
1.00491e-07
-0.00174264
0.00844891
-1.61294e-06
1.1727e-07
-6.86246e-07
-0.00876845
-0.00257236
-1.22865e-06
-8.48171e-09
-1.26422e-07
-0.00387675
-0.00379486
0.00247644
5.729e-07
6.72435e-07
-9.00372e-07
-6.80778e-08
-3.59193e-07
-6.22576e-08
6.3497e-07
-2.12462e-08
8.4901e-09
-0.00106788
-7.56035e-07
-1.82747e-07
-0.0205613
5.82085e-07
-2.78011e-05
-0.00570068
6.21302e-07
0.00179331
-3.33113e-05
-6.06291e-08
5.11526e-06
1.04591e-05
0.00106088
0.000637981
3.25854e-07
1.48475e-05
0.000304113
-1.89285e-06
8.11468e-08
0.000672091
-0.0001644
-3.98654e-08
-8.18806e-07
-5.76944e-07
1.02362e-07
-2.80727e-06
-1.2672e-07
5.62369e-08
1.42141e-08
-2.01682e-07
5.86307e-07
4.82175e-08
6.20322e-07
-9.27552e-07
0.00453379
-2.56516e-07
0.00220154
1.02781e-07
-1.06272e-06
1.72748e-07
0.00765278
0.0155966
1.58604e-08
-2.36941e-06
2.8112e-07
1.17316e-07
4.1756e-08
-4.90717e-08
-9.80726e-08
-1.19424e-05
1.7915e-07
4.26166e-05
-4.40484e-07
-1.7735e-07
-0.000995724
-2.19338e-07
-6.03155e-08
-1.66132e-07
3.41686e-07
-0.00354323
-2.02363e-06
-0.00310401
-0.0192254
0.0057418
1.1332e-07
-1.17464e-07
-1.3418e-07
-4.83782e-07
5.93525e-06
-9.5156e-07
-0.00709048
-6.06919e-08
-1.82088e-06
-5.39744e-08
2.62155e-06
-0.00239831
-6.45721e-07
-0.000359364
0.0161513
-3.90615e-07
-1.32272e-06
-2.92392e-08
-3.50944e-06
-2.1697e-07
-3.29813e-06
-3.51787e-06
-1.5692e-07
0.00145293
-0.00185525
6.85983e-08
-2.26593e-07
4.1888e-08
-0.0136585
3.44831e-07
-7.48447e-08
0.00223371
4.87224e-09
-0.00380606
-1.25763e-07
6.89246e-09
-8.44935e-08
-6.78598e-08
0.00290115
-1.38761e-07
-0.00310641
-6.01293e-07
9.00045e-08
1.32239e-07
-0.00238452
5.65537e-07
-0.0029551
1.24631e-07
-2.68262e-07
2.98433e-07
-7.24052e-06
-1.99955e-07
2.90416e-07
0.00105619
-7.93826e-08
-2.26683e-07
0.000208398
0.000927081
1.05541e-07
-2.36588e-07
-2.45515e-07
3.31637e-06
-2.21137e-06
-1.5044e-07
0.000300682
8.70353e-07
-0.000121734
-4.06258e-05
5.97733e-08
-6.56322e-08
2.23186e-06
-1.64321e-07
8.24832e-08
-1.72967e-07
-3.09781e-06
-0.000167194
1.87736e-06
-2.48073e-07
-1.23035e-07
-2.52548e-08
-0.000717934
-6.246e-07
-1.61576e-07
-1.11523e-07
1.0009e-07
4.0516e-05
0.0107775
0.00642444
-2.5306e-08
0.000318895
1.12554e-07
-4.73717e-08
-1.31474e-07
1.80708e-08
-2.45488e-06
-2.96825e-07
-2.3339e-05
0.000860023
-0.00183579
-5.10996e-07
8.58757e-08
1.39786e-07
-1.99409e-06
-6.38693e-08
7.73019e-09
-1.64564e-07
1.38964e-07
-4.02459e-08
3.79527e-07
-2.33101e-07
-6.44737e-08
-0.00459003
-3.3089e-06
-3.32152e-07
-2.37633e-07
1.77359e-05
-1.57064e-07
0.0131183
6.90059e-08
2.39408e-07
-1.70541e-08
5.40477e-08
-5.41843e-08
-2.62876e-08
0.00127812
-2.53971e-05
1.3261e-07
-4.41841e-07
9.65602e-08
-4.7124e-07
6.63822e-07
2.78195e-06
1.49307e-08
-0.00679183
2.21988e-07
2.36584e-07
9.81297e-07
-6.59906e-06
-1.44831e-07
-0.00371514
-1.25404e-07
9.14051e-08
-5.28328e-09
-0.00355634
-1.8307e-07
1.23153e-06
-0.00585334
2.59052e-07
-1.30314e-07
-1.69339e-08
-1.20582e-08
4.09017e-06
-1.32793e-07
-6.22474e-07
-0.0109604
2.28426e-07
1.21884e-06
0.0030774
-2.51744e-07
-1.63097e-05
3.31643e-07
-2.73735e-07
-1.8869e-07
3.53246e-08
1.35348e-07
-4.50157e-08
0.000697267
-1.28907e-05
-3.46238e-08
0.000348002
-0.00700685
-1.47961e-07
1.82004e-06
7.03595e-08
-1.51875e-07
-1.16757e-07
-2.18892e-07
1.75969e-06
1.41653e-07
-3.10728e-07
2.55145e-07
4.57106e-07
-6.09365e-06
1.65112e-07
-2.04759e-07
5.28111e-07
0.000919952
-0.00593974
-2.58097e-06
-1.0817e-06
9.85258e-08
2.48957e-08
0.00087391
6.87555e-07
-1.24366e-06
2.30508e-05
0.00230061
1.4755e-07
-2.49915e-06
3.43833e-07
2.82109e-07
-1.02014e-07
-1.69482e-06
-9.63962e-08
-1.07683e-07
1.9665e-08
-8.03128e-07
-0.00287172
-2.94534e-05
-1.61715e-07
-8.89183e-07
-1.30777e-06
-2.30727e-07
-2.28396e-06
1.3969e-07
1.90866e-07
-2.16588e-07
-6.6785e-06
0.00503655
1.28119e-06
1.51542e-07
1.33275e-06
-3.25063e-07
-8.89229e-07
-4.10114e-08
-2.04009e-08
-3.52313e-07
-8.51611e-07
1.18884e-07
8.97063e-07
1.95402e-07
-1.23959e-08
4.50007e-08
1.46608e-07
-0.0121057
-4.7557e-07
2.7691e-08
1.39811e-07
0.0005766
0.00139711
-3.15212e-08
-2.70923e-07
-1.22024e-07
0.000467842
2.89048e-07
0.00542425
1.2274e-07
-8.8484e-07
1.11703e-07
7.03786e-07
-2.68109e-05
1.96945e-07
-1.88757e-06
-8.79007e-08
6.04535e-08
6.70569e-08
5.38074e-07
-0.0112297
5.30175e-07
-3.6919e-10
0.00212956
5.17247e-07
4.60253e-07
-5.62062e-08
2.66304e-07
-7.60167e-11
1.70224e-07
-0.00599208
7.95464e-08
-1.18217e-08
-2.84774e-07
6.23786e-05
-2.70067e-07
0.00251228
6.83076e-08
3.03052e-07
0.00442773
-0.00199641
-0.00105975
-1.04869e-06
-1.08566e-06
-0.000790375
1.368e-07
0.000201353
6.99324e-07
6.35527e-06
-1.61214e-07
0.000189718
-0.00364685
-1.04126e-08
2.57049e-07
3.78444e-06
4.51706e-07
-5.72876e-07
-0.00331357
-1.14334e-07
-0.00100483
1.24652e-07
-1.28317e-07
2.03822e-07
-5.82569e-07
2.6574e-07
-0.00210623
8.10321e-09
-1.98203e-07
-1.87454e-07
6.39739e-07
-6.478e-08
-0.00442328
0.00506931
-0.000539455
1.71567e-07
6.40159e-07
-4.56815e-07
-2.26397e-07
-1.23834e-07
-8.8917e-06
-2.98283e-06
7.20706e-07
-3.09209e-07
-0.00609719
1.90036e-07
0.000420549
-0.00371633
5.89802e-07
1.20414e-07
-2.30589e-07
8.08039e-07
-5.12085e-05
2.56247e-07
-1.43613e-08
-0.00149962
-4.89073e-05
-3.65907e-06
0.0186674
-2.12668e-07
-2.01954e-07
-5.781e-07
5.49538e-08
-5.19107e-09
-1.84408e-05
-0.000245338
-5.9265e-05
2.38358e-07
0.00266742
1.78863e-07
3.1468e-07
6.30746e-08
3.94386e-08
-7.38793e-08
9.65961e-06
2.89104e-08
9.59913e-08
2.83422e-07
-1.01955e-07
2.52288e-08
-3.18589e-07
-2.48534e-07
0.000728047
-6.30939e-05
-1.60108e-08
-4.2875e-08
-2.25072e-07
-3.00404e-08
-8.00829e-08
-1.36352e-05
5.40749e-09
-3.95986e-08
1.26842e-08
-0.00104688
9.07612e-08
1.40287e-07
-0.00256521
-3.82904e-08
-1.4835e-07
0.00693642
-9.87182e-08
-3.00588e-07
1.05598e-07
0.0102606
-7.17361e-05
-1.1986e-06
1.80275e-07
6.87989e-06
4.17182e-07
-7.62104e-08
-1.87376e-07
-4.83122e-08
-2.45253e-06
1.97699e-07
-5.31004e-08
-3.32291e-06
2.04657e-07
-0.000234921
-2.64921e-06
-1.15935e-06
-1.98832e-07
-0.00203695
-1.65672e-06
1.04997e-07
-1.7969e-07
-2.21117e-07
1.73818e-07
-7.48436e-08
0.0004039
-1.74687e-07
-2.32042e-05
1.35891e-08
1.68666e-07
0.061417
2.60927e-08
-0.0246601
-3.47692e-06
-1.40423e-07
-0.00718618
-5.03379e-08
-3.47544e-08
3.67832e-08
1.38765e-07
7.94642e-08
1.78613e-07
2.5248e-07
4.08921e-07
0.000151939
1.3443e-07
-1.3911e-07
-3.77207e-08
3.25625e-08
2.20846e-08
3.43454e-08
-1.75301e-07
-2.39552e-07
-1.6345e-08
1.53208e-07
-4.6635e-07
-6.43121e-08
2.18823e-07
-0.00023482
2.92468e-07
-1.10122e-07
-4.81037e-05
-0.00248917
-2.56479e-08
-1.82815e-06
-2.47021e-07
-7.69848e-07
-1.40997e-07
3.12851e-07
0.00510986
-0.00199464
-6.72078e-09
6.41559e-07
0.00287138
2.95347e-07
2.38127e-05
-0.0117948
1.45181e-07
0.00852704
6.40394e-08
-0.0094649
2.77072e-07
0.000435985
-4.31687e-06
0.00119036
-3.57096e-07
-6.77544e-08
-7.95722e-07
3.16302e-07
-2.06122e-06
5.70319e-07
-0.00766575
0.00243965
7.23048e-08
-0.00367587
-0.000445077
1.23067e-06
-1.65502e-07
3.41288e-07
-2.18468e-07
2.73301e-07
8.66786e-08
-3.99084e-06
-3.88557e-07
-1.47508e-07
-2.66128e-07
-4.05142e-07
-2.57685e-07
0.000340463
-1.59422e-07
1.31324e-07
-5.0118e-08
-0.0223951
1.00176e-07
-1.58104e-07
0.0178098
0.00064974
0.000221835
-5.3407e-08
8.13845e-08
1.10539e-07
-2.2514e-06
-4.3199e-07
2.17831e-07
-0.000751517
1.04283e-06
8.41466e-07
-2.04551e-07
-0.00109016
-4.06533e-06
-1.3403e-05
0.00248897
0.00699382
1.17303e-07
-3.64747e-07
-1.65301e-07
-0.00381097
-8.9007e-08
-9.39846e-08
8.85084e-08
1.58855e-07
-0.0164502
0.00149351
-4.14609e-07
-8.74192e-06
0.00102778
-1.8387e-06
-0.00104023
-0.000666197
8.51146e-05
-2.6417e-06
0.00201902
-0.000124472
-9.68744e-08
-8.31012e-08
6.93074e-08
-0.00410138
-1.72327e-05
-5.38417e-05
4.37175e-08
2.97561e-08
7.86251e-08
-0.0229756
2.64748e-08
9.03398e-10
2.19071e-08
-9.8586e-07
-1.81901e-07
-1.34801e-07
9.72352e-08
6.98824e-07
1.63426e-06
8.85549e-07
1.79516e-07
-1.96031e-07
0.0252515
8.6861e-07
-8.82733e-07
-1.17062e-07
-0.000135352
0.000542135
3.70706e-07
5.60866e-07
0.0222396
-1.27698e-07
2.52501e-08
-1.66956e-07
1.252e-07
5.31671e-05
-4.18829e-07
8.33083e-09
-1.62878e-07
2.51523e-07
2.92257e-07
1.0464e-08
-1.09793e-07
9.94e-08
1.89703e-07
-0.000229832
-3.38319e-07
-1.65023e-07
-1.85838e-05
-2.60005e-06
-1.82524e-05
-2.58783e-06
-1.20478e-07
-0.00466484
6.15089e-08
1.57821e-06
-1.14935e-07
0.00280022
-1.9076e-07
1.66756e-08
-8.23052e-08
0.00159696
-3.1993e-07
1.08648e-07
2.8085e-06
1.35273e-07
-7.18091e-08
4.3779e-08
6.09682e-08
-9.51501e-07
-1.6715e-07
-0.00830577
-5.31737e-08
2.64164e-05
2.84351e-06
1.78675e-07
-1.96843e-06
-3.09022e-07
-2.40866e-07
7.67241e-08
-0.00331442
-1.30371e-06
-2.10562e-05
-1.14327e-06
1.93878e-06
-1.12979e-06
-0.000134419
6.96291e-08
2.81997e-07
-1.237e-07
0.0106319
0.00151621
-3.45897e-07
1.34754e-06
6.22143e-09
-2.8461e-08
-0.00328721
-2.87497e-07
2.41117e-07
-0.00193174
-0.000125942
-0.0032398
8.24674e-08
5.06934e-08
-0.000155911
-1.56593e-07
-8.8616e-07
8.51348e-07
3.88798e-08
-2.96354e-05
-6.7586e-07
0.000110338
-6.23422e-09
4.79074e-07
-2.08886e-07
-4.51269e-07
-2.04802e-05
2.15049e-07
-4.05529e-07
2.14512e-06
3.50379e-08
4.22273e-05
2.47924e-07
5.92358e-07
-4.48828e-08
0.0149086
-2.29357e-07
5.90536e-07
-0.000945339
0.000224054
1.33062e-07
0.000789283
5.39112e-07
2.26737e-07
9.33963e-08
-3.11361e-07
-2.44452e-07
2.24054e-05
0.000595361
-1.00213e-07
-4.77312e-07
7.27669e-07
-4.09054e-08
-1.33693e-07
8.54067e-08
-7.15082e-07
1.73712e-08
-7.37486e-07
7.63239e-07
2.49811e-07
-0.0110222
-4.91171e-07
7.49702e-07
-1.58903e-06
8.0133e-07
1.2362e-07
-0.000337629
0.000323915
-0.00982073
3.14003e-06
-4.22185e-06
-3.11937e-07
3.61132e-07
0.00125827
0.0079022
0.000576109
-0.00131572
-0.00185166
-7.8245e-08
0.00163232
-0.00644745
4.29652e-07
0.000294554
2.21809e-07
0.00806535
0.000289505
-0.00822452
2.85975e-07
-4.49588e-07
-9.22955e-07
6.24769e-08
8.54126e-08
-0.00119907
-0.00976168
-1.23595e-07
-1.52886e-08
-6.46182e-07
-0.0226083
-2.1466e-07
-2.06761e-07
1.04177e-07
-3.57343e-07
3.63888e-08
0.000176319
-5.03486e-08
-1.67966e-07
1.76659e-07
2.47613e-07
0.000131229
0.0157768
3.06215e-07
-1.66354e-07
6.10546e-07
1.56556e-07
-1.15813e-07
-1.67583e-07
0.0105081
1.84823e-07
-1.92039e-06
-1.48425e-07
1.04249e-07
6.26926e-08
3.10681e-07
-0.0103058
0.000154647
-1.6485e-07
4.22397e-07
-0.000323651
-0.00829406
1.54527e-06
-0.00177022
1.3987e-07
-1.66449e-07
6.95449e-08
-5.19055e-08
-1.41167e-07
-5.91951e-08
-4.56639e-08
-2.18975e-08
3.0958e-07
0.000446703
1.00736e-07
-0.00205988
0.0173552
-4.41556e-07
-6.04286e-07
2.82687e-07
2.81112e-07
-1.43828e-07
7.49751e-08
3.31507e-07
-4.79794e-07
0.00130484
-1.74185e-07
-5.25286e-07
7.27915e-05
5.48986e-08
-1.60863e-07
-3.0739e-07
-0.00395575
4.62427e-08
-6.30606e-08
0.0131697
8.88025e-08
-8.54005e-08
-1.63032e-07
-0.000122256
3.28782e-08
-4.92403e-08
6.80444e-08
-3.01649e-08
0.00082359
-6.95059e-05
-1.63018e-08
-0.000167851
-9.09803e-08
1.11576e-07
-4.25755e-07
-0.00123143
0.00248296
-1.08265e-07
-1.29335e-06
-2.13358e-07
8.21469e-08
-1.89631e-07
-1.18677e-07
-0.000252017
0.00180503
2.23614e-07
2.78369e-07
-1.77692e-05
-2.85673e-07
-1.80523e-07
-2.6907e-07
3.21434e-07
0.00806288
2.68962e-07
5.97816e-07
0.00269281
1.49447e-07
-4.30092e-07
-0.00332389
-2.54054e-07
1.23398e-08
-1.39876e-07
-5.60152e-07
-3.2835e-07
-1.56228e-07
-0.0010077
-1.20992e-07
0.00248024
-0.00115301
-6.98945e-08
-2.65371e-07
-1.47162e-05
1.44679e-06
2.84442e-05
5.62481e-06
0.000343188
7.24014e-07
-2.73875e-09
-2.89053e-07
-2.62094e-06
-4.06228e-08
-3.66801e-05
-1.47393e-07
-1.16703e-07
-4.52958e-08
-6.63136e-08
1.23231e-07
0.000153946
5.74809e-07
-0.00408332
-0.000373058
-3.63397e-06
-0.0079487
-5.44576e-08
-3.53719e-07
-1.57102e-07
-0.00185184
-5.83615e-08
-0.00286388
-3.50562e-06
-1.07146e-07
-5.68771e-08
-0.000840292
-1.38525e-07
0.000134373
-0.00242112
5.51348e-08
4.65019e-05
3.2602e-07
-0.000279564
3.64635e-07
-7.51635e-08
-1.34094e-07
7.43418e-05
1.49008e-06
-1.01988e-07
1.07995e-07
2.72301e-08
-1.13152e-06
-4.2701e-08
0.0004205
-3.10188e-07
-3.307e-07
-2.28659e-05
-9.23483e-08
-0.000294433
-1.24664e-07
-9.45498e-08
-6.41115e-07
0.0018964
-1.9281e-07
-1.147e-07
0.00927136
1.69855e-06
-0.000911424
-1.0179e-06
-7.33451e-08
-1.70471e-06
-0.00295766
0.00393312
-0.000119339
-7.95314e-07
-2.31851e-07
5.94362e-07
-7.38922e-08
-2.40989e-08
3.21624e-07
-5.22414e-07
-6.51619e-08
-2.8862e-06
-5.3065e-08
-9.74809e-08
-3.64736e-08
5.41546e-07
-1.16919e-07
1.76318e-07
-2.16708e-05
1.44067e-05
-0.00138766
4.47462e-05
0.000736904
0.0022884
-1.41173e-07
-5.34732e-08
2.12702e-07
-1.12575e-06
-1.7049e-08
-1.17454e-06
-6.7112e-08
-3.34491e-07
3.02431e-08
-4.42823e-06
6.10918e-08
7.44019e-06
3.7696e-08
-9.85154e-09
0.00125242
-1.72847e-07
-1.11639e-06
-8.24854e-08
-4.4248e-08
0.00305819
-1.01876e-06
4.43006e-07
1.35845e-07
3.36323e-08
-1.12677e-07
-9.00202e-09
-1.07759e-07
5.02268e-05
-3.5409e-07
-3.82087e-08
0.00022185
-2.17391e-07
-6.60835e-06
-4.19061e-07
-6.70076e-08
8.81349e-08
-3.22916e-05
-7.95504e-06
0.00325985
0.00664727
-3.26019e-08
-3.33864e-07
-9.85982e-08
1.91524e-07
4.39784e-05
7.79918e-08
-0.0013438
-0.00192904
6.58532e-07
-7.2353e-05
5.28476e-05
1.40748e-08
-0.00450429
1.31898e-06
-0.00963298
-8.8705e-07
8.4511e-08
8.88917e-08
2.38355e-07
-4.89233e-08
-9.52823e-07
0.00680487
4.82522e-06
-2.26087e-07
-1.67855e-07
-5.88061e-08
3.13857e-06
1.10531e-07
0.00202971
-9.88891e-08
-4.53307e-07
4.01197e-06
-4.37016e-07
0.000327676
6.5424e-06
-3.18692e-08
2.07329e-07
-4.86711e-08
-6.5555e-07
0.000496408
8.36468e-06
-4.45007e-08
-1.52684e-07
-1.10915e-07
-2.53542e-05
-1.42748e-07
-3.70852e-07
-0.00150484
6.47364e-05
0.0157455
5.92224e-05
0.00050646
1.29905e-08
-9.06806e-07
9.21586e-08
-2.19355e-07
-1.56308e-07
3.34712e-05
-2.1268e-07
-3.00556e-07
-7.61887e-06
4.37779e-08
1.56484e-07
-0.00155873
-5.71171e-07
-4.6904e-07
-8.74541e-06
-0.000820421
-8.48825e-08
9.88168e-08
-1.12146e-06
-1.15804e-05
3.81951e-06
-0.0116062
-2.71489e-05
0.0020707
-2.89906e-07
7.65799e-05
3.05065e-06
-2.8352e-06
0.00266299
5.1952e-06
0.00566601
0.000169632
-0.0121617
-1.20824e-07
-7.88404e-08
3.82057e-08
3.03721e-07
-6.88723e-05
1.50983e-07
-3.13551e-06
-3.65917e-08
3.36927e-08
8.74049e-08
0.00330504
-2.01336e-08
0.000166203
-1.60444e-06
-1.12718e-05
2.73592e-05
3.46614e-05
-0.00019804
-3.5773e-08
-6.97365e-08
1.92188e-07
-7.28101e-05
1.3774e-07
-3.26838e-05
-0.00381169
1.87736e-06
0.000165118
4.51047e-08
-0.00249127
-1.7787e-07
-4.14658e-06
-6.65605e-09
-0.00375391
1.59589e-07
-1.68013e-07
7.28674e-08
-0.00121811
3.57736e-07
0.000203218
-3.36573e-05
6.42707e-08
-1.55192e-05
9.85754e-08
-1.04876e-07
-0.00526216
2.43364e-06
-0.00230315
-0.00275162
-3.34678e-08
-9.27429e-05
0.00479487
-2.05618e-06
5.99349e-08
1.50286e-05
-0.000919674
8.3107e-08
-3.38044e-07
-1.87493e-08
0.00346364
0.00686979
0.00148532
5.88675e-06
2.60873e-08
8.13632e-08
1.77271e-07