/*--------------------------------*- C++ -*----------------------------------*\
| =========                 |                                                 |
| \\      /  F ield         | OpenFOAM: The Open Source CFD Toolbox           |
|  \\    /   O peration     | Version:  v2012                                 |
|   \\  /    A nd           | Website:  www.openfoam.com                      |
|    \\/     M anipulation  |                                                 |
\*---------------------------------------------------------------------------*/
FoamFile
{
    version     2.0;
    format      ascii;
    class       surfaceVectorField;
    location    "600";
    object      ddtCorrDdt0(Uf);
}
// * * * * * * * * * * * * * * * * * * * * * * * * * * * * * * * * * * * * * //

dimensions      [0 1 -2 0 0 0 0];


internalField   nonuniform List<vector> 
14516
(
(0.0390775 0.0373186 1.40116e-18)
(0.0371985 0.0420807 -2.25147e-19)
(0.0343366 0.0374186 -8.08885e-19)
(0.0233468 0.0226968 -4.58661e-19)
(0.0219852 0.0129612 6.51229e-19)
(0.0277902 0.0111901 9.26449e-19)
(0.0403922 0.0328337 -1.81844e-19)
(0.0443194 0.0369941 2.33673e-18)
(-7.32507e-06 -2.61601e-06 2.13455e-20)
(-8.72328e-06 -1.27329e-06 6.18185e-20)
(-8.77676e-06 -1.43619e-06 -1.8573e-20)
(-0.229273 0.232318 -6.56365e-18)
(-0.203595 0.231025 3.2984e-18)
(-0.191801 0.184722 2.62474e-18)
(-0.00314245 -0.00593951 6.24759e-19)
(-0.00236622 -0.00567635 3.70805e-21)
(-0.00283655 -0.00511602 -8.99637e-20)
(-2.57112e-05 -8.81882e-06 -1.84912e-19)
(-1.96716e-05 -1.05491e-05 2.78759e-20)
(-2.40157e-05 -1.61408e-05 -1.36536e-19)
(0.000323042 -0.000254004 7.47036e-20)
(0.000275875 -0.000223557 1.3271e-19)
(0.000324588 -0.000187106 7.21845e-20)
(-0.000882525 0.000651099 3.07264e-19)
(-0.000944714 0.000572037 -1.65928e-19)
(-0.000960054 0.000704881 2.13003e-18)
(-0.254308 0.260861 -1.43265e-17)
(-0.24848 0.228183 -1.15783e-17)
(-0.0307701 0.0153579 4.42894e-19)
(-0.0334379 0.015341 -5.80208e-20)
(-0.0313094 0.0125764 1.8e-18)
(-0.0147171 -0.0597372 6.80656e-19)
(-0.00972363 -0.067896 1.85835e-19)
(-0.0232512 -0.0702306 -1.12185e-18)
(-7.54247e-06 1.06333e-06 5.81039e-20)
(-1.12148e-05 -3.14786e-06 -6.00996e-20)
(0.000676017 0.00161176 -9.82437e-20)
(0.000446782 0.00184589 8.39891e-20)
(0.000346902 0.00152326 -2.75003e-19)
(-5.93058e-05 1.01016e-06 4.03127e-19)
(-5.98033e-05 -2.97956e-08 2.43125e-19)
(0.000849622 0.00140078 3.28334e-19)
(0.000976949 0.00115536 3.16589e-19)
(0.000670227 0.00115087 -8.62101e-19)
(0.0034081 0.0058071 -3.35657e-19)
(0.00238509 0.00559434 -3.02622e-19)
(0.00313285 0.00501201 -8.13771e-19)
(0.00447117 0.00593399 2.81966e-19)
(0.00354762 0.00686869 -1.79831e-20)
(0.0758544 -0.0175169 -2.89492e-19)
(0.0815377 -0.0168797 -3.09113e-18)
(0.0777177 -0.0232282 -2.13537e-18)
(0.00107607 0.00169511 -2.32142e-20)
(0.0286559 -0.0459121 5.94615e-19)
(0.0327037 -0.0430332 1.07067e-18)
(0.0286664 -0.0403694 1.6902e-19)
(0.00559519 0.00321773 7.26518e-19)
(0.00559982 0.00376896 2.2212e-19)
(0.00508685 0.00346738 2.28915e-19)
(0.00411569 -0.055671 -1.5615e-18)
(0.0107351 -0.0575402 -6.22789e-19)
(0.00239917 -0.0644143 8.04862e-19)
(0.000784109 -0.000404847 8.27641e-21)
(0.000670229 -0.000369686 1.53986e-20)
(0.00175853 0.00482135 5.7758e-20)
(0.00126548 0.00524488 -1.87058e-19)
(0.00209028 0.00556346 -7.25142e-20)
(-1.1984e-06 3.57787e-06 5.38193e-20)
(-3.40508e-07 4.12143e-06 -1.76328e-20)
(0.00160208 0.000736614 2.88824e-19)
(0.00162448 0.00104054 1.02495e-19)
(0.00198974 0.000900113 -1.75786e-19)
(0.000172005 0.00361731 5.90699e-20)
(-0.000316205 0.00384933 -2.37671e-20)
(-0.000216496 0.00325793 -2.8481e-19)
(-0.0104277 0.0296046 -4.9844e-18)
(-0.0112578 0.0275598 5.59406e-19)
(-0.00862984 0.0285195 8.02683e-19)
(-0.000815251 0.00060249 -1.46962e-18)
(-0.000828064 0.000711265 -7.09969e-19)
(-0.0188305 -0.0172602 1.65712e-18)
(-0.0195069 -0.01957 1.84292e-18)
(-0.0163481 -0.018945 3.09663e-19)
(-0.00283987 -0.0517038 -6.37137e-19)
(0.00526135 -0.0474842 -4.79208e-18)
(-0.0549437 0.0207229 -3.2903e-18)
(-0.0529641 0.0377595 -3.80463e-18)
(-0.0504051 0.0156765 8.00158e-18)
(3.22603e-05 -1.61875e-05 -1.45607e-19)
(2.3128e-05 -1.7035e-05 -5.25801e-20)
(1.47727e-05 -7.21368e-06 -4.0284e-20)
(-0.00927411 0.0322433 -3.04187e-18)
(-0.00745471 0.0349159 -7.48091e-19)
(-0.00547305 0.0329341 -1.56632e-19)
(0.0431774 -0.0482526 1.01589e-18)
(0.0473201 -0.0437961 4.36866e-19)
(0.0516167 -0.0492099 2.56035e-18)
(-3.0846e-05 -7.33738e-06 -1.29449e-19)
(-3.3229e-05 -5.51686e-06 -7.06795e-20)
(0.00608909 0.00293622 -4.71473e-19)
(0.00548335 0.00266143 6.29163e-19)
(0.000668062 -0.00048013 -5.67527e-20)
(0.000766125 -0.000582955 8.54312e-20)
(0.000800233 -0.000429174 2.94628e-19)
(8.97347e-05 3.4307e-05 4.32069e-19)
(7.66619e-05 2.96933e-05 -5.09735e-20)
(8.23244e-05 4.2965e-05 -2.73634e-19)
(-0.0175201 -0.0144862 -6.36362e-19)
(-0.0209861 -0.0141971 -7.65113e-19)
(-7.18229e-05 2.65469e-06 3.49856e-19)
(-5.55263e-05 2.33569e-06 2.01955e-20)
(6.35467e-06 2.19119e-06 -4.81261e-21)
(1.54001e-06 3.07685e-06 -1.94115e-19)
(6.88023e-06 6.04711e-06 8.02538e-19)
(-3.9286e-05 -1.08844e-05 2.50405e-19)
(-3.32873e-05 -8.55612e-06 -4.72387e-20)
(-3.38137e-05 -1.58939e-05 -1.46879e-21)
(-6.04499e-06 3.98894e-06 -8.52655e-20)
(6.06788e-06 1.49716e-06 4.6062e-20)
(-8.15427e-07 1.29576e-06 -1.29803e-19)
(-0.0126739 0.0314874 -3.10737e-19)
(-0.0299363 0.00798058 2.78792e-19)
(-0.0316349 0.0112818 4.24499e-18)
(-0.0279099 0.0112835 1.55253e-19)
(-0.076188 0.027422 -6.54977e-20)
(-0.0709761 0.0139812 -3.25718e-19)
(-0.0702903 0.0214065 -2.19117e-19)
(-1.31057e-05 -1.45832e-06 1.09981e-21)
(-1.06991e-05 1.00766e-06 3.62394e-20)
(-0.00581033 0.0378667 -2.08616e-19)
(-0.010248 0.0370507 1.10876e-18)
(-0.0323724 0.0239706 -5.52757e-19)
(-0.0347817 0.0215028 3.18586e-18)
(-0.0310378 0.0203307 -2.42058e-18)
(-0.000274922 -0.00602336 -4.4662e-20)
(-0.000799434 -0.00652511 -2.44604e-19)
(3.1521e-06 -0.00682056 -1.98729e-19)
(6.61454e-05 0.00155127 -1.98174e-18)
(5.47981e-05 0.00142413 7.41633e-19)
(0.000199571 0.00148685 -1.15804e-18)
(-0.0541739 0.0923776 4.44772e-19)
(-0.0956215 0.0975872 -7.92679e-18)
(-0.0343683 0.0804799 4.71109e-18)
(0.0747711 -0.079719 3.96206e-20)
(0.0800536 -0.0950076 7.8877e-19)
(0.0649808 -0.112731 -2.28452e-19)
(-0.000402468 0.000114777 -1.11518e-19)
(-0.000384664 9.72401e-05 4.59685e-19)
(-0.0512744 -0.0027299 -2.47882e-18)
(-0.0482701 -0.00424157 3.15795e-18)
(-0.0488936 -0.000401259 1.36898e-18)
(-0.00635554 -0.0364321 3.64691e-19)
(0.000710019 -0.0423468 -1.61659e-18)
(0.00315825 -0.0398687 -1.26773e-18)
(0.000601805 -0.000409193 -2.6288e-19)
(0.000576409 -0.000492457 -1.43147e-19)
(9.78374e-05 1.27251e-05 -2.40688e-20)
(9.41501e-05 1.01599e-05 -3.5574e-20)
(0.000112449 1.42975e-05 -1.0506e-20)
(0.00202096 -0.00527011 3.41104e-22)
(0.00168735 -0.00582284 -1.4972e-19)
(0.00245595 -0.00590084 -1.1414e-20)
(-0.0450069 -0.0171382 2.73813e-19)
(-0.0328855 -0.027818 -4.21933e-19)
(-0.0355843 -0.0256893 1.17257e-18)
(-4.51937e-05 1.52736e-05 3.20114e-21)
(-3.52312e-05 2.40279e-05 -9.71903e-20)
(-3.83811e-05 1.81364e-05 -3.4695e-19)
(-0.115834 0.0880218 5.53726e-19)
(-0.122086 0.109326 1.81432e-18)
(-0.0558994 0.00654529 8.81819e-19)
(-0.0559893 0.021243 -1.64711e-18)
(-0.0544969 0.018782 5.7857e-19)
(-0.0573926 -0.00225528 -1.33737e-18)
(-0.0567174 0.00355536 -2.94079e-18)
(-0.0673507 0.0081102 -5.75167e-20)
(-0.0754496 0.0184091 -1.36098e-18)
(-0.0778989 0.0283426 -1.82703e-18)
(-0.0198702 -0.0531911 6.30159e-19)
(-0.0137301 -0.053272 1.38036e-18)
(-0.0299191 0.0176112 -7.5909e-19)
(-0.0281412 0.01497 8.93622e-19)
(-0.0733804 0.103951 -1.77647e-18)
(-0.0205415 0.0939539 -1.05212e-18)
(-1.58909e-05 -2.32939e-05 2.68787e-21)
(-2.30187e-05 -2.8676e-05 -4.27428e-21)
(-9.63639e-06 -3.1575e-05 6.45157e-20)
(-0.000288009 -0.000217677 -1.26719e-19)
(-0.000270533 -0.000254686 -9.82078e-20)
(-0.000340557 -0.00026145 -7.28923e-20)
(0.029233 0.0172415 -5.16821e-19)
(0.0280415 0.0139671 7.36745e-20)
(0.02598 0.0220109 -2.46361e-19)
(-0.00296321 0.039799 1.14704e-19)
(-0.006017 0.0428185 -6.94018e-19)
(-0.0160308 -0.0153127 4.51918e-18)
(-0.0156156 -0.0294203 -7.23812e-19)
(-0.000402458 0.00014329 -2.30613e-19)
(-0.000398088 0.000184441 4.95325e-19)
(-0.000373986 0.000157512 5.29436e-19)
(0.00382585 -0.000143085 1.93974e-19)
(0.00393632 -0.000589607 3.89924e-20)
(0.00438569 -0.000119048 -1.31272e-19)
(-0.00729071 0.00126538 -6.41136e-20)
(-0.00684719 0.000573921 -7.38153e-20)
(-0.00635436 0.00129702 2.56594e-19)
(-0.00184617 0.0042925 1.48034e-19)
(-0.00222593 0.0037151 -3.35462e-19)
(-0.00144746 0.00383914 1.23874e-19)
(-0.0563569 -0.00130044 -2.37113e-18)
(-0.0550918 -0.00237207 -2.57416e-18)
(-0.00678329 -0.00188225 -1.21385e-19)
(-0.0060411 -0.00223841 3.13317e-19)
(-0.00592615 -0.00141603 1.59922e-19)
(0.0122909 0.0166919 -1.36913e-18)
(0.0113426 0.00935203 -8.34867e-19)
(0.00627988 0.0170083 -2.5587e-20)
(-0.0190495 -0.00796588 2.28275e-20)
(-0.0210533 -0.00568815 -1.95744e-20)
(-0.0186953 -0.00452199 1.09406e-19)
(-0.0158463 -0.0124627 -5.33904e-19)
(-0.0140173 -0.0143094 8.02858e-19)
(-0.026401 0.00237294 -2.00561e-19)
(-0.0281416 0.00506813 -6.47766e-19)
(-0.0249378 0.00552731 -2.26733e-19)
(-0.00236313 0.00488174 2.46484e-19)
(-0.00140646 0.00495053 -2.35219e-19)
(-0.000386045 0.000222642 -4.67718e-19)
(-0.000373126 0.000263197 -2.67143e-19)
(-0.000353931 0.000233098 -4.85695e-19)
(0.00169008 -0.00474703 6.09121e-20)
(0.00143024 -0.00412915 -1.24929e-20)
(0.00106117 -0.00454341 1.32666e-21)
(-0.00499815 -0.00409368 4.2638e-19)
(-0.00586685 -0.00394208 -2.04787e-21)
(-0.00558851 -0.0049378 1.98393e-19)
(0.01884 0.034565 -1.38534e-18)
(0.0239446 0.031965 -1.13597e-19)
(-0.198555 0.0625796 -3.45869e-18)
(-0.199265 0.0798956 2.73493e-18)
(-0.22647 0.0932257 3.20769e-18)
(0.000387066 -0.00145354 1.51176e-19)
(0.000470041 -0.00164844 4.68729e-20)
(0.000250571 -0.00160008 2.16884e-19)
(-0.00900457 -0.0475677 -1.08396e-18)
(-0.011563 -0.0549215 2.5176e-19)
(0.00236861 -0.00475608 5.02224e-20)
(-0.0190369 -0.0118409 -9.65987e-19)
(-0.0168628 -0.0100792 1.59195e-18)
(0.0684754 -0.0707408 -9.92607e-19)
(0.0790592 -0.0581311 -8.38223e-20)
(0.01705 0.0146297 1.53497e-18)
(0.0123922 0.0276517 1.43109e-18)
(0.000511712 -0.00130246 -2.67274e-20)
(0.000328 -0.00129434 7.54993e-20)
(-0.000527258 -0.000763071 1.37559e-19)
(-0.00053078 -0.00087698 6.55824e-20)
(-0.000424778 -0.00078293 3.03448e-19)
(-0.000639901 -0.000737255 1.18105e-19)
(-0.000520621 -0.000654544 1.69638e-19)
(-0.00125707 -0.00476303 -3.90553e-19)
(-0.00185138 -0.00507575 -1.22619e-18)
(-0.0012432 -0.00555101 -5.08077e-19)
(0.00102011 0.000317897 -6.85343e-19)
(0.00111266 0.000224906 -1.59914e-19)
(0.00113793 0.000364955 1.53591e-19)
(0.000909685 0.000272262 -2.66135e-19)
(0.00092717 0.000383273 -6.40594e-19)
(0.00332772 -0.000210912 -2.91324e-20)
(0.0036761 0.000280473 2.63402e-20)
(-0.014444 -0.0106108 5.90717e-19)
(-0.0173698 -0.00998777 -8.00742e-19)
(0.00138475 -0.00372894 -3.97881e-20)
(0.00187094 -0.00383502 7.41761e-20)
(-9.14593e-06 1.80357e-05 2.08652e-19)
(-1.62616e-05 2.02387e-05 -5.85363e-20)
(-6.33622e-06 2.83353e-05 -1.77582e-19)
(-0.000437587 -0.00530761 2.47613e-19)
(0.000244316 -0.00551862 -6.42394e-20)
(-0.033621 0.0296253 -1.61096e-19)
(-0.0300053 0.0385395 2.02872e-18)
(-0.0292445 0.0318207 -4.59743e-19)
(-8.78491e-06 -1.89962e-05 1.15703e-20)
(-2.28031e-05 -1.64274e-05 -5.18485e-20)
(0.0244595 -0.059155 -1.13596e-18)
(0.0199223 -0.0591759 9.88816e-19)
(0.0331533 -0.058665 -3.32228e-19)
(-0.000314481 4.31613e-05 5.68821e-19)
(-0.000333101 5.32054e-05 -6.53661e-19)
(0.1044 -0.0292069 7.73926e-19)
(0.101016 -0.0468855 2.43941e-20)
(0.104226 -0.0533687 1.54307e-18)
(-0.0297136 0.0257021 -1.70414e-19)
(-0.0330079 0.0271391 9.5507e-19)
(-0.000424672 0.000131606 -2.26412e-19)
(-0.0496911 0.0749768 -6.61669e-19)
(-0.042667 0.0983182 2.27519e-18)
(-0.0424964 0.0925663 -6.14001e-19)
(-0.000246173 0.0424413 1.23352e-18)
(-0.000373086 0.0375878 -2.86375e-18)
(-0.00753507 -0.00128334 -3.71621e-19)
(-0.0076703 -0.00234544 -3.75953e-20)
(-0.00664908 -0.0413006 -3.10055e-18)
(-0.0146499 -0.0420383 3.64587e-20)
(-0.0347321 0.02273 1.64452e-19)
(-0.0385881 0.0274379 -4.61384e-19)
(-3.2186e-05 -5.43321e-06 -2.28618e-20)
(-3.21948e-05 -3.28832e-06 -5.70825e-20)
(-2.93991e-05 -3.08552e-06 -3.25133e-20)
(-2.283e-05 0.00035081 2.20403e-19)
(-6.09526e-06 0.000384893 -2.81529e-19)
(-4.39013e-05 0.000359381 9.12452e-19)
(-0.00401686 -0.00595907 6.74287e-19)
(-0.003427 -0.00673085 -9.26148e-19)
(-3.8553e-05 0.00279269 -1.06285e-18)
(0.00017193 0.00291113 2.16181e-18)
(0.00010775 0.0026503 -1.11426e-18)
(0.0290312 -0.0515251 1.26417e-18)
(0.0237872 -0.0484868 -1.03818e-19)
(-0.0209204 0.000208233 -4.67577e-18)
(-0.0197691 -0.000409764 -4.36648e-19)
(-0.0197676 0.000908219 -4.11881e-18)
(-0.0246359 -0.000440822 1.20718e-19)
(-0.0276447 -0.00099663 9.12002e-20)
(-0.00773876 0.00216321 9.0855e-20)
(-0.00828633 0.00128394 1.19727e-20)
(2.10515e-05 -6.51406e-05 4.28652e-19)
(3.27361e-05 -3.51677e-05 -1.16459e-19)
(9.29092e-06 -5.42321e-05 8.71456e-20)
(1.33141e-06 -7.17576e-06 6.47414e-20)
(-6.49758e-06 -7.90831e-06 6.33874e-20)
(6.62165e-06 -1.26633e-05 -3.73645e-20)
(-0.000421297 0.000216282 -7.27175e-19)
(7.5289e-06 -8.76361e-05 1.70525e-19)
(3.36301e-05 -7.44844e-05 -6.41187e-20)
(0.00171151 -0.00502518 -5.14251e-19)
(0.00233488 -0.00496102 -1.47244e-19)
(0.00192142 -0.00434434 -2.09351e-19)
(-0.000751505 0.000566343 -2.714e-19)
(-0.000805944 0.000505875 -1.31928e-18)
(-0.000359861 0.000304425 -3.00921e-19)
(-0.000340026 0.000352446 -5.00601e-19)
(-0.000325378 0.000315208 -2.88996e-19)
(-7.70172e-05 9.41995e-06 -4.23829e-19)
(-4.9722e-05 1.32619e-05 1.57211e-20)
(-4.54436e-05 -9.41676e-06 3.56548e-20)
(-4.49287e-05 -1.75739e-05 -1.98108e-19)
(-0.000301928 5.50727e-05 -3.50352e-20)
(-0.000297257 3.90039e-05 -2.24063e-19)
(-0.000106882 3.01821e-05 -1.58253e-19)
(-0.000108547 3.41654e-05 2.04996e-19)
(-0.000110974 2.97291e-05 3.70831e-19)
(-2.69471e-06 0.000336301 4.75519e-19)
(-2.93825e-05 0.000324358 5.7842e-19)
(0.00262849 0.00396334 -9.25717e-20)
(0.0022462 0.00439427 -3.81276e-19)
(0.00302389 0.00451211 -1.74299e-19)
(3.43229e-06 4.98855e-06 -4.23102e-21)
(1.72284e-07 5.92266e-06 9.00497e-20)
(4.61998e-06 4.44127e-06 5.84988e-20)
(-0.00101997 -0.00052118 8.52206e-19)
(-0.000939288 -0.000406559 7.87875e-20)
(-0.0010781 -0.000375424 4.27859e-19)
(0.000580394 0.00225586 -3.09655e-19)
(0.000181507 0.00206571 -5.37797e-19)
(0.000221092 0.00303381 -5.73957e-20)
(0.000652825 0.00274275 3.90205e-19)
(0.000757902 0.00329861 3.59077e-19)
(0.0318892 -0.00426331 2.29941e-21)
(0.0305304 -0.00950886 2.75304e-18)
(0.0334173 -0.00929038 -6.03985e-18)
(-0.00089584 -0.000615911 2.70235e-19)
(-0.00108854 -0.000648777 2.38486e-19)
(0.000768853 -0.000842476 6.11403e-19)
(0.0007023 -0.00100095 -1.77664e-20)
(0.000891794 -0.000940192 -2.3005e-19)
(-0.194446 0.0467022 7.24378e-18)
(-0.170274 0.0331008 -7.30297e-19)
(-0.12927 0.297371 9.31638e-18)
(-0.0722288 0.22187 1.57805e-17)
(-0.146095 0.343816 1.05155e-17)
(1.12071e-05 -6.32614e-06 1.57307e-19)
(-3.96801e-06 -3.59927e-06 1.03078e-19)
(-0.0969149 0.255452 -2.8611e-18)
(-0.190686 0.352986 -9.18065e-18)
(-0.266562 0.299741 7.25318e-18)
(-0.277998 0.285946 6.60844e-18)
(0.000828692 -0.000696943 8.31541e-20)
(0.000668751 -0.000765567 4.59348e-19)
(-2.12595e-05 -9.12428e-06 8.62327e-22)
(-2.83159e-05 -9.96785e-06 3.26965e-20)
(-6.94456e-05 2.17501e-05 1.6678e-19)
(-7.42688e-05 1.7229e-05 6.98147e-20)
(-7.55045e-05 2.41014e-05 -1.31956e-19)
(0.0029537 0.00350538 -9.55671e-21)
(0.00233836 0.00353602 -3.96543e-19)
(-0.00077076 -0.000692662 -1.68049e-19)
(-0.000732299 -0.000567488 -3.19174e-19)
(3.38421e-06 4.52702e-06 1.2112e-19)
(3.58908e-06 3.71211e-06 3.69722e-20)
(0.000382487 -0.000276772 1.12417e-19)
(0.000322901 -0.000320119 -4.35087e-20)
(0.000492054 0.00333595 1.68822e-19)
(0.000602105 0.00388682 -4.87222e-19)
(0.0010341 0.00031069 -4.09099e-19)
(0.000976271 0.00012721 -7.33105e-20)
(0.00122283 0.000168199 -3.6422e-19)
(0.0709463 -0.0182239 2.82123e-18)
(0.0669432 -0.0190448 7.92817e-19)
(0.0679796 -0.02272 -4.47465e-19)
(0.03354 0.00542703 9.57388e-19)
(0.0314515 0.0118721 1.56345e-20)
(0.0319106 0.00217778 1.63502e-18)
(0.0373408 -0.0461672 -3.21352e-20)
(0.037857 -0.0397994 -1.41025e-18)
(-0.0317374 0.00466714 -9.6092e-19)
(0.00338202 0.0122806 9.87674e-20)
(0.00313048 0.0113764 -5.79596e-21)
(0.00418866 0.0116578 1.22559e-18)
(0.00130751 0.00061938 3.57026e-19)
(0.00158357 0.000454435 3.16614e-19)
(-0.000679815 -0.00337871 -1.38994e-19)
(-0.0011375 -0.00362805 -3.98078e-19)
(-0.00104686 -0.00312173 -2.00126e-19)
(-0.00138366 0.000791295 3.59459e-19)
(-0.0013594 0.000558251 -2.72967e-20)
(-0.00119689 0.000755202 6.9629e-20)
(0.0294603 -0.167965 -2.41964e-18)
(0.0140995 -0.195289 -3.32729e-18)
(0.0211037 -0.200214 -5.95453e-18)
(0.0341074 0.0106886 2.36927e-19)
(0.0354601 0.000446602 -1.9685e-18)
(0.0362958 -0.126152 4.48075e-18)
(0.0423677 -0.140106 -3.10156e-18)
(-0.000338655 0.00245106 3.15626e-18)
(-0.000178989 0.0025808 -1.86388e-19)
(-0.00021091 0.00233728 5.16804e-19)
(0.0729271 -0.0127545 9.37061e-19)
(-0.000396775 0.000295399 2.30466e-19)
(0.000609823 -0.000165918 -3.00369e-20)
(0.000512693 -0.000171534 -8.7491e-21)
(0.000551632 -0.000102718 2.00046e-20)
(-3.21299e-05 -0.000193666 -6.31809e-20)
(-3.3055e-06 -0.000207277 -1.90808e-20)
(-1.81803e-06 -0.000157727 -3.43152e-20)
(-0.00720886 0.0111435 -4.06218e-18)
(-0.00720709 0.0120012 -2.03695e-18)
(-0.00814619 0.0112833 -3.8103e-19)
(0.0728167 -0.084778 -2.69336e-18)
(0.0632385 -0.098197 -3.17358e-18)
(0.0782986 -0.0883949 -6.05876e-18)
(-0.00314264 0.00216407 -2.06835e-18)
(-0.00290177 0.00200082 1.86397e-18)
(-0.00288017 0.00232154 -5.22535e-19)
(-0.00079829 -0.000813577 2.55499e-19)
(0.00158293 0.00423676 -1.55272e-19)
(-0.0330905 0.075771 -2.21449e-18)
(-0.0185002 0.0303748 -6.02084e-18)
(-0.0193205 0.0640944 -1.61128e-18)
(-0.000249306 -0.00018707 6.09011e-20)
(-0.000299947 -0.000180076 1.03829e-19)
(-0.054161 -0.000435676 2.983e-19)
(-0.0536071 -0.00505106 3.18631e-18)
(-7.18972e-05 -0.000226747 -1.0988e-19)
(-5.11724e-05 -0.000173165 -5.5108e-21)
(7.31826e-05 0.00035508 1.90684e-19)
(8.0219e-05 0.000332644 -3.00092e-19)
(0.000108135 0.0003559 -2.14661e-19)
(0.00104567 0.000502738 1.01298e-19)
(0.000844001 0.000419205 2.80545e-20)
(-0.000538549 0.00255223 1.37295e-19)
(-0.00049332 0.00226427 -3.61752e-19)
(-0.000200535 4.18278e-05 8.28313e-20)
(-0.000187316 5.45949e-05 2.06012e-19)
(-0.000202744 5.48163e-05 -9.51479e-19)
(-0.0778741 0.0394968 6.65695e-19)
(-0.0820643 0.0347578 7.61153e-19)
(0.0285696 -0.057 -4.1621e-19)
(0.019842 -0.0562256 -4.1009e-20)
(-0.0555304 -0.00603308 1.74776e-19)
(-0.00751491 0.00996419 -5.20213e-18)
(-0.00642579 0.010679 2.86273e-21)
(0.0659459 0.0398448 -2.39659e-19)
(0.0585624 0.0443974 3.02246e-19)
(0.0594402 0.0359386 -7.27387e-19)
(-0.00272723 -0.00221187 3.51997e-19)
(-0.00254483 -0.00263185 -1.37402e-21)
(-0.0022898 -0.00227436 1.57865e-19)
(-0.26118 0.322608 -2.01072e-18)
(-0.258184 0.322374 -8.38333e-19)
(-0.000103008 3.01657e-05 -4.70869e-19)
(-0.000106991 2.60478e-05 -7.82653e-20)
(-0.000705179 0.000536715 1.26069e-18)
(-0.000713578 0.000610466 -3.99114e-19)
(0.0632556 -0.0193383 -7.68492e-19)
(0.0607639 -0.0214458 -2.64601e-19)
(0.0597837 -0.018487 -3.48036e-19)
(0.0945924 -0.0720726 6.10412e-19)
(0.0833043 -0.108812 -2.92954e-19)
(4.16091e-05 -1.11909e-05 -8.21421e-20)
(3.08527e-05 -1.84758e-06 9.65434e-20)
(4.85052e-05 1.32202e-05 5.90385e-19)
(-0.000317202 0.000396225 2.40574e-18)
(-0.000357603 0.000389871 1.06033e-18)
(0.00286025 -0.000206522 -2.76593e-20)
(0.0029709 -0.000583939 -3.22463e-21)
(0.0383873 -0.0516852 -3.98122e-19)
(-0.000641523 0.000767884 6.79007e-19)
(-0.000474293 0.000744415 1.8394e-22)
(-0.000516089 0.000937797 1.43792e-19)
(-0.0129638 -0.00900331 -1.05194e-18)
(-0.0116522 -0.0106112 -1.6601e-20)
(-0.000658711 0.00456778 1.77409e-18)
(-0.000310315 0.00450768 -2.61095e-18)
(-0.000557651 0.00420549 -1.6183e-18)
(-0.00440681 0.0178146 -9.25054e-19)
(-0.00511575 0.0164811 -5.37245e-18)
(-0.00575065 0.0179924 7.89071e-19)
(-0.0758903 0.0519456 -1.06538e-19)
(-0.0687695 0.0424945 -9.52686e-19)
(-0.0646707 0.00350806 -4.16335e-19)
(-0.0688064 0.0068955 -3.47989e-19)
(8.92549e-05 0.00170571 -7.21975e-19)
(-5.88434e-05 0.00161735 -7.93998e-19)
(0.0732336 0.0354425 1.1238e-18)
(0.0755632 0.0435461 -1.65987e-18)
(-6.34555e-05 1.99758e-05 -1.42803e-19)
(-6.47094e-05 2.68021e-05 -1.19264e-19)
(0.000152516 -0.00373329 7.76784e-19)
(0.000617396 -0.00384868 1.03566e-19)
(0.000451144 -0.00335926 5.16879e-19)
(-0.0456496 0.123477 2.88446e-18)
(-0.0456961 0.0869527 4.30069e-18)
(0.00248877 -0.000200626 4.4475e-20)
(0.00280281 0.000117048 9.5739e-20)
(-0.024454 -0.00841737 -9.69905e-20)
(-0.0284481 -0.00100007 2.87728e-19)
(-0.0332377 0.00557668 -4.63443e-19)
(0.0106309 0.0486953 -2.00264e-18)
(0.0140256 0.0457604 -1.63261e-18)
(0.0150414 0.0507005 -3.26875e-19)
(-0.000165437 0.000339491 -4.49814e-19)
(-0.000199799 0.000335724 2.27185e-19)
(-0.000188093 0.000305885 -7.80856e-20)
(-0.000294445 0.00289176 -5.49132e-19)
(-0.000200805 3.58957e-05 -2.46862e-19)
(-0.000200388 4.16922e-05 -5.32282e-19)
(-0.0229822 -0.0031338 9.13371e-20)
(-0.0236371 -0.00685203 2.39598e-19)
(0.0650769 -0.0155079 -8.88808e-19)
(-0.00166338 -0.00620661 1.78139e-19)
(-0.00168662 -0.00531995 1.9642e-19)
(0.000855216 -0.000563833 -1.15171e-19)
(0.000750272 -0.000509894 -3.87095e-19)
(0.000875026 -0.000437594 -1.13043e-19)
(0.00671162 0.0468641 6.08621e-19)
(0.00749809 0.0520445 -3.0835e-18)
(-0.0249812 0.0165811 1.81423e-18)
(-0.0257795 0.0187308 2.24062e-19)
(-0.0233607 0.0182207 1.15577e-18)
(0.000903815 -0.000294797 -2.01084e-20)
(0.000930495 -0.00049808 8.37665e-20)
(0.00067207 -0.000244973 2.20909e-21)
(0.00057553 -0.00034721 -7.26301e-20)
(-0.00334768 0.0020268 -2.08993e-19)
(-0.00335818 0.00234412 -2.33894e-18)
(-9.49243e-05 2.54367e-05 2.34376e-19)
(-9.82248e-05 2.91811e-05 -5.57059e-20)
(-9.97588e-05 2.31144e-05 1.40012e-19)
(-0.0254299 0.00442477 3.82703e-18)
(-0.0242605 0.00319239 -1.6746e-18)
(-0.0237798 0.00494915 -1.39346e-18)
(-0.023531 -0.0153801 -4.64432e-19)
(-0.0170357 -0.0211408 1.66736e-19)
(-0.000283948 6.12661e-05 -4.17848e-19)
(-0.000276629 4.58086e-05 -6.60005e-19)
(-0.000267496 7.42801e-05 -3.75777e-19)
(-0.00077119 0.000509434 -5.81606e-20)
(-0.000898078 0.000589754 -2.50126e-20)
(-0.000774304 0.000666478 -9.86498e-21)
(0.0579101 -0.0792507 -3.80712e-19)
(0.0577163 -0.0636881 -1.3769e-18)
(-0.00277298 -0.00409918 3.27412e-19)
(-0.00312763 -0.00359007 2.37802e-19)
(-0.00349649 -0.00429307 4.03575e-20)
(-0.011823 -0.00770337 -1.14765e-18)
(-0.0139562 -0.00713201 -9.87685e-19)
(-0.000425312 0.001663 3.06703e-19)
(-0.000137169 0.00187464 -1.33293e-19)
(-0.00017067 0.00153465 9.87383e-20)
(-0.000502188 0.000755331 9.11642e-20)
(-0.000369372 0.000783332 9.77512e-21)
(-0.000443906 0.000905108 2.47641e-20)
(-0.0560637 0.0222484 -1.03338e-18)
(-0.0550639 0.00750389 3.68002e-18)
(-0.000660832 0.000450309 -1.78984e-20)
(-0.00056122 0.000498634 9.73364e-20)
(-0.00056375 0.00038329 2.20605e-19)
(0.000611948 -0.00114449 -1.12068e-19)
(0.000527346 -0.00103065 -6.25788e-19)
(0.000226766 -0.000243444 3.83427e-19)
(0.000231183 -0.000184636 -2.37041e-20)
(0.00320227 0.00301515 -1.08363e-21)
(0.00366017 0.00341852 2.66933e-20)
(0.00072316 -0.00129298 1.79536e-19)
(4.07642e-05 -2.40892e-05 -2.87048e-21)
(4.09284e-05 -1.33249e-05 -9.13659e-20)
(0.00192257 0.000838233 1.10633e-18)
(0.00176647 0.00095098 6.57147e-20)
(0.00197998 0.00101341 2.04901e-19)
(-0.00237719 0.00814946 4.15443e-18)
(-0.00270507 0.00768788 1.0755e-18)
(-0.0021114 0.00773874 2.15291e-18)
(-0.0266989 0.0270926 1.72664e-18)
(-0.0266613 0.0240058 -1.03177e-18)
(-0.0220781 0.0012141 2.62031e-18)
(-0.0231914 0.00211832 4.65623e-18)
(-0.0217628 0.00266722 -2.22103e-18)
(-0.000255463 0.000590536 4.41254e-21)
(-0.000206029 0.000511964 2.82683e-20)
(-0.000158896 0.000597601 1.73091e-19)
(0.00777212 0.00174147 -1.11338e-18)
(0.00749943 0.00104371 -1.03783e-20)
(0.00835971 0.00118259 -3.44538e-19)
(-0.00131108 0.000373006 -3.41371e-19)
(-0.00111851 0.000366838 1.53666e-19)
(-0.00123935 0.000202374 -1.34128e-19)
(-0.00198085 0.00883846 -2.7641e-18)
(-0.00286588 0.00868158 2.70471e-20)
(-0.00694583 -0.00260226 -8.91802e-20)
(-0.00684075 -0.00352572 1.36953e-19)
(-0.00605971 -0.00297187 -3.37538e-19)
(-0.000775283 0.00044385 -3.07615e-19)
(-0.000705743 0.00062263 2.52249e-19)
(-0.000627693 0.000460527 -5.18667e-19)
(-0.0437192 0.0146083 -5.92178e-19)
(-0.0428195 0.0251428 -4.22686e-19)
(-0.0392604 0.0184828 -8.00812e-19)
(-0.000763675 0.000372633 -2.38598e-19)
(-0.0269421 0.0304011 2.29855e-18)
(-0.0238946 0.0286398 2.95086e-19)
(-0.000110501 -6.73357e-06 2.15681e-19)
(-0.000125257 -8.90724e-06 -3.41977e-19)
(-0.000113149 -7.9423e-06 -2.57546e-19)
(0.00245201 0.0128874 1.93959e-18)
(0.00368956 0.0134882 2.0963e-18)
(0.00165542 -0.000343821 -4.56547e-21)
(0.00189575 -0.000401174 -4.30591e-20)
(0.00164273 -0.000522275 1.3641e-22)
(0.00159197 -0.000139298 -2.45086e-20)
(0.0014178 -0.000309988 -3.38468e-21)
(-0.00357895 0.0191734 1.36676e-19)
(-0.00310335 0.0175758 -1.00724e-18)
(0.0586976 -0.0236196 -3.8983e-19)
(0.0603845 -0.0240532 2.01844e-19)
(0.0010695 -0.00343401 -1.04536e-19)
(0.000616885 -0.00348711 -3.07295e-20)
(0.000814294 -0.00301142 1.01149e-20)
(-0.000930706 0.000455974 4.10376e-20)
(-0.000806976 0.000307286 -2.27543e-19)
(0.000243264 8.48846e-05 3.32041e-20)
(0.00025006 0.000144212 1.97493e-19)
(0.000184882 0.000119211 2.02781e-19)
(0.0121177 0.00696965 -2.01425e-19)
(0.0109884 0.00737789 -1.56049e-19)
(0.0112786 0.0061408 -4.86079e-19)
(-0.000226871 0.000331061 -4.76699e-19)
(-0.0002594 0.000327812 3.1723e-19)
(-0.000247502 0.000294651 -1.12703e-19)
(0.0303534 0.0250952 -4.33964e-20)
(0.0280371 0.0359602 -6.29263e-19)
(0.0268097 0.0320356 -4.49749e-19)
(0.0325309 0.0143049 8.58764e-19)
(0.0332457 0.0185944 4.76622e-19)
(5.44684e-05 -2.09503e-05 7.64848e-20)
(0.0317762 -0.054675 4.07729e-19)
(0.0431823 -0.0533103 -6.03851e-19)
(-0.000161648 3.55158e-05 -2.56657e-19)
(-0.000161523 2.9068e-05 2.62477e-19)
(-0.000171711 3.47341e-05 -1.69226e-19)
(-0.0222326 -0.000321403 1.57208e-18)
(0.00341412 0.00252474 -1.41936e-19)
(0.00284995 0.00269801 -8.28536e-19)
(0.00115665 -0.000116031 -3.26817e-20)
(0.00103195 -0.00022463 -8.79032e-21)
(0.00120748 -0.000268933 -4.00361e-20)
(-4.2324e-05 1.19214e-05 3.64706e-20)
(-4.91931e-05 5.5633e-06 1.55782e-19)
(-4.9552e-05 1.00031e-05 1.50577e-19)
(0.000102971 3.88744e-05 1.63036e-19)
(9.45303e-05 2.78072e-05 -2.7489e-19)
(-0.000141156 0.000341027 2.39256e-19)
(-0.000149921 0.000369329 4.65902e-19)
(0.00207353 0.00069999 6.11936e-19)
(0.00184743 0.000666117 9.81921e-19)
(0.000951091 0.0117344 -2.8482e-18)
(0.000367254 0.0110444 -1.06467e-18)
(0.00134128 0.0112295 9.61745e-19)
(-3.00664e-06 -1.54983e-05 -2.18453e-19)
(-9.83805e-06 -1.52006e-05 2.35943e-19)
(-4.6269e-06 -2.10958e-05 -9.06508e-20)
(-0.000278586 0.000402099 9.96569e-19)
(-0.000289332 0.000442294 4.48929e-19)
(-0.000298544 7.70107e-05 -1.02115e-19)
(-0.0518472 0.0572187 -3.25772e-19)
(-0.0532931 0.0567181 -4.77582e-19)
(-0.000117412 -0.00425671 -1.90049e-19)
(-0.000573333 -0.00462971 -4.65531e-20)
(-0.000615938 -0.00408917 3.61248e-19)
(-3.56133e-05 -5.32069e-06 2.45413e-19)
(1.2927e-05 -2.98151e-06 4.82536e-20)
(1.95907e-07 -1.46335e-06 -3.39846e-20)
(6.91463e-06 -4.04755e-07 2.24507e-20)
(0.00103466 -0.00502291 1.33927e-19)
(0.00133429 -0.00572898 -4.46727e-19)
(0.000865709 0.00332463 7.18851e-19)
(0.00117042 0.00345521 1.53901e-19)
(0.00108968 0.00314098 6.4202e-19)
(0.00156658 0.012549 -8.29921e-19)
(0.000230729 0.012441 2.29849e-19)
(-0.000104122 5.33276e-05 1.73023e-19)
(-0.000104374 6.33048e-05 -2.57645e-19)
(-0.00011305 5.8712e-05 -1.99929e-19)
(0.0524736 -0.0316432 4.67244e-19)
(0.052651 -0.0358576 -4.47902e-20)
(0.0556085 -0.0322277 -1.33169e-18)
(0.000974319 -0.000617788 -5.70768e-19)
(-0.0480742 0.00836057 7.32544e-19)
(-0.043567 -0.0174474 3.93472e-18)
(-0.0553416 -0.00592355 2.34844e-18)
(-0.0154804 0.163213 1.64625e-18)
(-0.0171381 0.139431 -2.04225e-18)
(-0.0106623 0.165953 -9.00236e-18)
(-1.82655e-05 9.12391e-06 5.47699e-19)
(-1.85852e-06 1.5123e-05 -2.1072e-19)
(-6.99364e-05 1.05403e-08 8.75158e-20)
(-6.9852e-05 -1.79875e-06 2.10218e-20)
(-7.55878e-05 -9.98418e-07 -1.55363e-19)
(-0.00101402 -1.31086e-05 2.86092e-19)
(-0.00101286 -0.000148148 -1.15685e-19)
(-0.00119234 -5.50709e-05 8.50082e-19)
(0.0132361 0.00650811 1.27005e-18)
(0.0128768 0.00793749 1.7932e-19)
(0.00495456 0.00837633 1.62903e-19)
(0.00441722 0.00869 6.56338e-19)
(0.00432321 0.00779388 3.84227e-19)
(0.00349045 0.00208898 1.69804e-20)
(0.00310422 0.00185464 -2.48705e-19)
(0.0035402 0.0016518 -4.39314e-19)
(-0.0453787 0.0182008 -8.59966e-19)
(-0.0385701 0.0182272 -2.72989e-19)
(-0.000165022 1.76609e-05 -2.68006e-19)
(-0.000164289 1.16242e-05 4.14444e-19)
(-0.000177386 1.83758e-05 -6.26734e-19)
(-0.000990727 0.000130585 7.93503e-20)
(-0.000892669 2.42421e-05 2.42686e-19)
(0.0055007 0.00811025 -1.00879e-18)
(0.00563749 0.00900857 -2.94626e-19)
(0.00243271 -0.000135541 3.64304e-19)
(0.00257231 8.76091e-05 -7.99361e-19)
(0.00271173 -0.00017384 -5.76698e-19)
(0.00100621 0.000963753 8.73418e-20)
(0.000910402 0.000880397 -1.59807e-18)
(0.000881954 0.000994448 -2.49938e-18)
(-0.0044409 -0.00345827 -3.04141e-19)
(-0.0042022 -0.00420943 3.86998e-20)
(-0.022028 0.000148934 -3.13377e-19)
(0.000370024 0.00129781 -2.36606e-19)
(0.000386082 0.00149463 1.12782e-19)
(0.000558156 0.00136558 -1.3016e-20)
(0.00999768 0.00768087 4.64117e-19)
(0.00925408 0.00690983 1.40145e-19)
(0.0088972 0.00795416 1.90562e-19)
(-0.000807981 0.00489341 6.18803e-20)
(-0.00106854 0.00448119 6.99838e-19)
(0.000294189 0.000737663 1.56102e-22)
(0.000307641 0.000854611 -6.87792e-20)
(0.000401502 0.000774058 -5.58313e-20)
(0.0299274 0.0217141 5.89447e-19)
(0.0828082 0.0140624 -5.6368e-19)
(0.0766467 0.019111 9.21791e-18)