/*--------------------------------*- C++ -*----------------------------------*\
| =========                 |                                                 |
| \\      /  F ield         | OpenFOAM: The Open Source CFD Toolbox           |
|  \\    /   O peration     | Version:  v2012                                 |
|   \\  /    A nd           | Website:  www.openfoam.com                      |
|    \\/     M anipulation  |                                                 |
\*---------------------------------------------------------------------------*/
FoamFile
{
    version     2.0;
    format      ascii;
    class       volScalarField;
    location    "600";
    object      k;
}
// * * * * * * * * * * * * * * * * * * * * * * * * * * * * * * * * * * * * * //

dimensions      [0 2 -2 0 0 0 0];


internalField   nonuniform List<scalar> 
9793
(
0.000217445
0.00351324
0.000217319
0.00014107
0.0798511
0.000153362
0.000152206
0.000139898
0.000147352
0.0817302
0.000178195
0.0184934
0.000141586
0.000142409
0.000162683
0.000140931
0.000164281
0.000173413
0.000317262
0.000142322
0.00026549
0.0001554
0.00433077
0.000131923
0.000153688
0.000142629
0.000142658
0.000148775
0.000178202
0.000147271
0.000194208
0.00387978
0.00498345
0.000152936
0.000182202
0.000298119
0.000157766
0.000155346
0.000141212
0.000144511
0.000193084
0.000163131
0.000152484
0.000153227
0.00015268
0.000144583
0.000180349
0.00291379
0.0158987
0.000140803
0.000183019
0.00018182
0.000154213
0.000148108
0.00321733
0.020247
0.000144587
0.000186955
0.00615404
0.00014099
0.000151981
0.000154141
0.0131613
0.000149797
0.0713582
0.00411063
0.0156681
0.0206121
0.0171825
0.000178437
0.00149103
0.000144554
0.000142636
0.00233998
0.00018716
0.00794056
0.000144628
0.000148863
0.00016357
0.000151355
0.00329142
0.000158537
0.00305125
0.00251014
0.0001766
0.00289546
0.000156318
0.000144717
0.000152259
0.000162577
0.004047
0.0970287
0.000139881
0.00389493
0.000153212
0.00230586
0.0157137
0.0034777
0.000139039
0.000136776
0.000136548
0.000154825
0.000139046
0.000138589
0.000146077
0.000176786
0.000151715
0.000152388
0.000153109
0.00348911
0.000146325
0.000886641
0.000144214
0.0174379
0.000182025
0.000144708
0.00682307
0.000186772
0.000169867
0.00365981
0.00320273
0.000159277
0.000143991
0.000154395
0.000150248
0.00024722
0.000168481
0.00289295
0.000179901
0.000142474
0.000150192
0.000144792
0.000142531
0.000155931
0.000146887
0.000144812
0.00015316
0.000151429
0.000144132
0.000134161
0.000143851
0.000153174
0.000143568
0.000137291
0.000144227
0.000151254
0.00135094
0.000137401
0.000138803
0.0987647
0.018087
0.000149957
0.0227468
0.0716647
0.000138263
0.000155359
0.000142522
0.000152473
0.000136809
0.000143076
0.000139988
0.00014884
0.000138617
0.000298177
0.00215785
0.000267597
0.00279322
0.000162079
0.000141221
0.000146988
0.000144671
0.00943754
0.00222505
0.00884723
0.000149833
0.000301049
0.000144874
0.000131378
0.000142843
0.000162323
0.113129
0.000151604
0.000137018
0.000153126
0.0116136
0.00014246
0.000193647
0.000142786
0.000143809
0.00013866
0.000149852
0.000143334
0.0170633
0.000169941
0.0193954
0.000161851
0.00024809
0.000145963
0.0682256
0.000135036
0.000146795
0.000289394
0.0203847
0.000142471
0.000145007
0.000142104
0.000211911
0.000137978
0.000169533
0.00015281
0.000167592
0.0113804
0.0188469
0.000148352
0.000266099
0.000141558
0.000148841
0.0143146
0.000140059
0.00151133
0.000203436
0.000144247
0.00015027
0.000143344
0.00282638
0.000292702
0.000153376
0.000138045
0.000203861
0.000176065
0.000132447
0.000131678
0.00015179
0.000136857
0.0001721
0.00445269
0.000143972
0.000143766
0.0150504
0.000152236
0.000169059
0.000141803
0.000143455
0.00445865
0.000143096
0.000138585
0.000139736
0.000152416
0.000139241
0.000151407
0.000149163
0.000157281
0.000181541
0.000170431
0.000142539
0.000157337
0.000144238
0.000157949
0.000153993
0.000137275
0.00320268
0.000143369
0.000181761
0.000151264
0.000162821
0.000135336
0.00013483
0.000167565
0.000291855
0.000150457
0.000137474
0.000135178
0.000163947
0.000144435
0.00414283
0.00365853
0.000142541
0.000145779
0.000143958
0.000169841
0.000151733
0.000133216
0.000156582
0.000143179
0.0001681
0.000144205
0.000149149
0.000160703
0.000143054
0.000144958
0.000144049
0.00591957
0.000151208
0.000159289
0.000150896
0.000155715
0.000151197
0.000161613
0.000142759
0.000436429
0.00013848
0.00287357
0.00868361
0.000156178
0.000153756
0.000137414
0.000165324
0.000159069
0.000150894
0.00213609
0.000147854
0.000137258
0.000159432
0.000149903
0.000147566
0.00015643
0.00286991
0.000144577
0.000162174
0.000153053
0.000142814
0.0026272
0.000273524
0.00182828
0.000137296
0.107485
0.000151805
0.00428504
0.000192827
0.000136436
0.000153766
0.000192149
0.000151211
0.000162612
0.000181723
0.000139437
0.000151314
0.000146427
0.000144986
0.000150017
0.000233625
0.00014286
0.000142445
0.000436777
0.00015239
0.00014077
0.000137223
0.00015274
0.000139614
0.000247144
0.000150703
0.000144832
0.000148662
0.000154683
0.00768617
0.000147867
0.000175918
0.000131686
0.000171195
0.00869463
0.000197091
0.000172557
0.000152359
0.000163281
0.000276037
0.000151919
0.00293405
0.000153685
0.000137498
0.00934106
0.000162197
0.00030921
0.00014487
0.000173118
0.000305877
0.00015813
0.000142155
0.00563065
0.000159273
0.0016823
0.0001574
0.000147542
0.0182519
0.000143155
0.000152453
0.000153084
0.000147496
0.000142882
0.000147816
0.000156255
0.00807982
0.000149096
0.0675635
0.00292689
0.000274899
0.000175639
0.00107948
0.000143875
0.000146394
0.00247689
0.00269695
0.000142128
0.000149328
0.000392288
0.000135106
0.0119894
0.000143993
0.000156317
0.000134822
0.000169908
0.000142795
0.000160075
0.000366042
0.000138104
0.00422064
0.000176787
0.000151215
0.000175744
0.000150456
0.000150913
0.000151667
0.000250158
0.000143706
0.00014781
0.000182005
0.000147228
0.00015385
0.000151794
0.000137867
0.000163625
0.000143373
0.0001479
0.000134113
0.00237891
0.000147717
0.00154601
0.000147241
0.0154658
0.000160874
0.000149112
0.000157504
0.000149122
0.00948146
0.000145742
0.0051131
0.000139576
0.000144874
0.000152389
0.000490311
0.000206223
0.0116558
0.0103649
0.00015441
0.000142964
0.000183591
0.000163509
0.000168929
0.00309049
0.00344782
0.000146864
0.000167601
0.000173884
0.000144127
0.000161931
0.000143895
0.00013895
0.000155043
0.021576
0.000160429
0.0165664
0.000139533
0.000166116
0.000131133
0.000151327
0.000151173
0.000159251
0.000184596
0.000148691
0.000162714
0.000134922
0.000144862
0.000156026
0.00304919
0.000144219
0.000142934
0.007744
0.000158129
0.00015072
0.00945947
0.0161876
0.000151445
0.000153772
0.000153021
0.000156178
0.000148125
0.000154937
0.000151918
0.000147033
0.000144499
0.000142792
0.000896315
0.000185495
0.000142651
0.0100344
0.000173566
0.000137658
0.000151287
0.00016422
2.78296e-05
0.000151677
0.0173031
0.000136949
0.000143468
0.000178459
0.000143671
0.000167395
0.0102602
0.000163599
0.000137505
0.070789
0.00015764
0.000138853
0.000145642
0.000174556
0.000141972
0.000138637
0.000142902
0.00014178
0.00462929
0.000171447
0.00017242
0.000152177
0.000145346
0.00014361
0.000146644
0.000145284
0.0001431
0.000205743
0.000143687
0.000135484
0.000167046
0.00574175
0.000145053
0.00172039
0.000177628
0.000144304
0.000179444
0.016574
0.000144391
0.000168901
0.000133438
0.0174719
0.000159991
0.0227209
0.000142305
0.000143181
0.000164191
0.00507418
0.000163993
0.0090304
0.00312213
0.077493
0.000168141
0.0133132
0.000168906
0.000163015
0.00016401
0.000164431
0.00433297
0.000147902
0.0185351
0.000133888
0.00423253
0.000154428
0.000149964
0.000143189
0.000192707
0.000134433
0.000143351
0.000151932
0.000154003
0.000161252
0.000142729
0.000143231
0.000144762
0.000144458
0.000328814
0.00014076
0.0049213
0.00281963
0.000140851
0.000152836
0.000167335
0.000149377
0.000143773
0.000149495
0.000158166
0.000159904
0.000151175
0.000153973
0.000137816
0.000169122
0.000151595
0.000158415
0.000149497
0.000153273
0.000891813
0.000144791
0.000255249
0.000158239
0.000153103
0.000143349
0.0001393
0.000168457
0.000173396
0.000143073
0.000151023
0.000130786
0.000144061
0.000150703
0.000142148
0.000156486
0.000132986
0.000150014
0.000154944
0.000147479
0.000155766
0.000151419
0.000165062
0.000157234
0.000142055
0.000143438
0.000138173
0.00013539
0.000145899
0.000135909
0.00014215
0.00014489
0.000134296
0.0001708
0.000144816
0.000156662
0.000144152
0.0121113
0.000141182
0.000134727
0.000176899
0.000132925
0.000146924
0.000527246
0.000153692
0.000156024
0.000150836
0.000186107
0.000139409
0.000175014
0.0796969
0.0112322
0.00472318
0.00014647
0.00014432
0.0040167
0.000168431
0.000134348
0.00127916
0.0192379
0.0197198
0.000143558
0.000175712
0.000144338
0.000144054
0.021011
0.000142263
0.000289178
0.000192512
0.000185742
0.000141845
0.000156411
0.000151201
0.000195586
0.00170195
0.000144489
0.000183191
0.000159758
0.000141883
0.000154894
0.000175858
0.10344
0.000142068
0.00161009
0.000168996
0.0120287
0.00110958
0.00691346
0.00383203
0.000152688
0.00016897
0.00397367
0.000141215
0.000142054
0.00015646
0.000173239
0.000134112
0.0216001
0.000133989
0.00285224
0.000153584
0.00294088
0.00017872
0.000146951
0.00211051
0.00692484
0.00014995
0.0204733
0.000166634
0.00017961
0.000134245
0.000132663
0.00501492
0.000145009
0.00208982
0.000141312
0.0050879
0.000139555
0.00281129
0.00565002
0.00015249
0.0814689
0.000144498
0.000152201
0.000169663
0.017468
0.0126188
0.00013615
0.000140117
0.000135043
0.0107217
0.000490762
0.000158356
0.00015899
0.00239139
0.000134635
0.000141129
0.00015741
0.000277605
0.000168085
0.000145674
0.000143699
0.000140448
0.00357971
0.00904188
0.000584418
0.000138365
0.000140554
0.00897722
0.000142154
0.0211821
0.000176954
0.0020972
0.00406093
0.00520143
0.000140937
0.00014694
0.000155333
0.000151203
0.000158961
0.0001425
0.000176059
0.00577609
0.000138711
0.00778011
0.000140296
0.00471982
0.000148115
0.00468928
0.000159224
0.000180537
0.000142483
0.000164478
0.000420114
0.011228
0.00538071
0.000145852
0.000171443
0.000155251
0.000153786
0.000157215
0.104104
0.000170696
0.000179894
0.000140703
0.000160197
0.000143946
0.000133254
0.000153079
0.000140786
0.0934581
0.000141973
0.000154258
0.000157668
0.00015375
0.000134016
0.000190879
0.000150826
0.000150501
0.000141187
0.000141235
0.00539033
0.000141247
0.000244302
0.00013915
0.000945493
0.000143447
0.000244806
0.0001465
0.0177585
0.000148225
0.00014537
0.000140202
0.00440626
0.00649202
0.00436945
0.0751223
0.00965612
0.000144925
0.000155024
0.00526355
0.000134913
0.0047373
0.00381588
0.000190953
0.00014818
0.000153713
0.00409685
0.000158846
0.00156244
0.00443064
0.000153589
0.000148174
0.00483095
0.0004422
0.000167387
0.000156522
0.000142377
0.000159281
0.000165857
0.000145888
0.000135311
0.000151459
0.00135189
0.000169624
0.000154112
0.0115999
0.00014035
0.000136007
0.00469819
0.00027679
0.000166252
0.000150702
0.000509662
0.000139924
0.00013476
0.00737768
0.000134163
0.000153164
0.00381515
0.00375108
0.000155268
0.00618677
0.00788051
0.000175012
0.00376161
0.109271
0.000154792
0.0207278
0.000149104
0.000140541
0.000144738
0.000150582
0.000157471
0.102017
0.000170865
0.00760289
0.000160663
0.000180803
0.000149907
0.000166495
0.000186879
0.000150475
0.000176885
0.000157774
0.000135241
0.000200775
0.00019484
0.000165244
0.000158607
0.000135888
0.00384651
0.00170563
0.000165322
0.000131054
0.000130736
0.000142314
0.000183778
0.000301914
0.000197668
0.00561375
0.000169863
0.00373272
0.000146978
0.000166481
0.000160949
0.000156236
0.000111969
0.000142551
0.000142257
0.000247339
0.000171033
0.114486
0.000141975
0.0116655
0.00733405
0.000168536
0.00016997
0.000154482
0.000318344
0.000147166
0.000157782
0.00674323
0.000176728
0.000142123
0.000595479
0.000148623
0.000137967
0.000141648
0.0678993
0.000149049
0.000157858
0.00369358
0.000169216
0.000160207
0.000171465
0.00268891
0.00240268
0.00291582
0.00013535
0.000147281
0.000150787
0.000185135
0.000147009
0.0132029
0.00449785
0.000154506
0.00629934
0.00155917
0.00724303
0.000147595
0.00403954
0.000143134
0.0038536
0.000179072
0.000138768
0.0203068
0.00398367
0.000139991
0.000146334
0.000145745
0.0860639
0.0066679
0.000163309
0.000186801
0.000563821
0.000354518
0.115131
0.00556003
0.000150542
0.000143933
0.0988213
0.000302593
0.000142031
0.000144597
0.000136288
0.000149503
0.000147781
0.000157308
0.000275598
0.000144196
0.000159014
0.000351864
0.000148499
0.000152644
0.000158686
0.00525858
0.000147253
0.000175113
0.00305351
0.000149946
0.000135822
0.00015038
0.000141058
0.000153009
0.00623275
0.00294478
0.000151218
0.00293245
0.000168387
0.000694454
0.000143782
0.00016898
0.000152366
0.000149082
0.00423404
0.000157083
0.000154982
0.000163388
0.000152306
0.000164799
0.000157571
0.000142818
0.000184934
0.000146936
0.000141257
0.0223788
0.000142206
0.000627778
0.000168752
0.00014136
0.000296551
0.000170744
0.000165581
0.0204899
0.000135958
0.00386698
0.000141479
0.000143898
0.000450226
0.00590114
0.000136191
0.000146634
0.000139223
0.00014832
0.000180472
0.000151837
0.000146911
0.000153617
0.000157801
0.000150546
0.000144349
0.000137818
0.000140942
0.000142259
0.00666419
0.000157805
0.000134829
0.000169538
0.000171992
0.000286588
0.000963242
0.000164676
0.000146325
0.000143018
0.000179524
0.000155734
0.000145757
0.000148534
0.00697128
0.000156321
0.000143883
0.000132791
0.00017724
0.000189267
0.000132558
0.000533403
0.000174129
0.000146093
0.000150074
0.000216494
0.000148028
0.000167748
0.00591466
0.000155004
0.00126138
0.000227177
0.000679116
0.000132906
0.000144259
0.000132814
0.000132722
0.000764673
0.000142299
0.00205681
0.000186796
0.000132708
0.000150385
0.000189454
0.000152422
0.000148248
0.000143725
0.000152148
0.00658602
0.000132836
0.000146359
0.00457917
0.000151848
0.000147864
0.000176357
0.000142363
0.000148048
0.000142693
0.000145919
0.000166122
0.000153157
0.000164525
0.00978561
0.00013299
0.000144511
0.000132896
0.000201289
0.000141246
0.000158732
0.000143737
0.00013606
0.000189548
0.000138101
0.000162633
0.000144592
0.000138387
0.0010207
0.0119896
0.000147534
0.000146146
0.000140864
0.00358767
0.000214718
0.000143717
0.00473347
0.000701444
0.000153315
0.000369172
0.00763598
0.000157443
0.00584794
0.000197459
0.000239083
0.000142699
0.000174121
0.000190377
0.000137884
0.00119016
0.112382
0.000143857
0.108147
0.103063
0.000169485
0.00640144
0.000133203
0.000161542
0.000181464
0.000142807
0.00474617
0.000133534
0.000171174
0.00020018
0.000133021
0.00575256
0.000149455
0.000149367
0.000166823
0.000155277
0.0702364
0.0865782
0.00013633
0.000157042
0.1143
0.000139294
0.000156644
0.000140268
0.00680052
0.00983442
0.000153358
0.000151335
0.00015682
0.112832
0.106318
0.000162061
0.000133109
0.000140885
0.0925646
0.00631698
0.00225687
0.000154459
0.00015469
0.000158999
0.000135537
0.000154508
0.000170965
0.000154973
0.000141864
0.000170598
0.000792691
0.000229637
0.000141051
0.0116963
0.000157834
0.000237388
0.113417
0.000184089
0.00104666
0.0204599
0.000133269
0.00019284
0.000195484
0.00174015
0.00123099
0.000143935
0.000181785
0.00767504
0.000180308
0.000160676
0.00103373
0.00531421
0.000141908
0.000157998
0.000156436
0.000142763
0.000178291
0.000143665
0.000156026
0.000138592
0.000133983
0.000148937
0.000144607
0.000153788
0.000157701
0.00419494
0.000169601
0.00714305
0.000140432
0.000158852
0.000147442
0.0999457
0.0207008
0.000142594
0.000181836
0.000153705
0.000135741
0.000143198
0.000135761
0.000142232
0.000201468
0.000147898
0.00359985
0.000156369
0.000140751
0.00106742
0.000154579
0.000149124
0.000141915
0.000144068
0.00515168
0.000177957
0.011071
0.0190217
0.00362173
0.000146917
0.000148667
0.000152672
0.00015615
0.000196516
0.000180939
0.0764608
0.000141314
0.00018025
0.000151278
0.00350867
0.111044
0.000156498
0.106682
0.00586616
0.00015797
0.000178888
0.000142101
0.00017388
0.000154988
0.000184579
0.000173254
0.000133565
0.101568
0.00244371
0.000148358
0.00015295
0.000149973
0.0373884
0.000155473
0.000148859
0.00597237
0.000140138
0.0212338
0.000169334
0.000164685
0.000150965
0.000149399
0.00246197
0.000142267
0.00769676
0.000156255
0.000144018
0.000139403
0.00181321
0.000153199
0.0829379
0.000152748
0.000170187
0.000159959
0.000190761
0.000153582
0.00014461
0.0010265
0.000148246
0.000137623
0.000226478
0.000736931
0.00016981
0.000138347
0.00015177
0.000243038
0.000198409
0.000142059
0.00100443
0.00014281
0.000170152
0.000239735
0.000150152
0.000142121
0.000190852
0.000141187
0.00013946
0.000143884
0.000181816
0.0773307
0.000191308
0.000167806
0.000148955
0.000150491
0.00769266
0.000187279
0.000151676
0.000148499
0.000141755
0.000251306
0.00391239
0.00243846
0.000142924
0.000183788
0.000135781
0.000135543
0.000163091
0.000150328
0.000177282
0.000143718
0.000231933
0.00356448
0.109684
0.000156023
0.000146634
0.000147183
0.000176293
0.000138449
0.000144327
0.000175102
0.00014696
0.000143508
0.000151842
0.000167589
0.000134874
0.113546
0.000171301
0.000168974
0.000155004
0.000199042
0.00015423
0.00444855
0.000144116
0.000143144
0.000146348
0.000141895
0.000146065
0.000141865
0.00077186
0.000191906
0.000147678
0.000150672
0.000144033
0.000169512
0.000154707
0.000196047
0.000151087
0.114109
0.000143424
0.000150085
0.000152726
0.000186606
0.000146123
0.11344
0.00014572
0.00014728
0.000130804
0.104036
0.000155096
0.000297216
0.0895338
0.000150663
0.000146088
0.000142255
0.000144494
0.000189822
0.00015027
0.000158022
0.0110338
0.000147628
0.000207861
0.00139504
0.000155916
0.000171202
0.000147526
0.000154982
0.000141804
0.000137598
0.00013591
0.000143894
0.0015725
0.000189722
0.0001404
0.000494497
0.00775919
0.000142905
0.000221148
0.000137224
0.000174872
0.000151733
0.000141327
0.00022518
0.000146918
0.000157007
0.000158601
0.000199598
0.000181568
0.00015083
0.000141322
0.000152981
0.093977
0.00191022
0.000167841
0.00015912
0.000146051
0.000144644
0.00328542
0.000148802
0.000165305
0.000208647
0.00520477
0.000146595
0.000167785
0.000147003
0.000149783
0.000173613
0.000165422
0.00017215
0.000150917
0.000149938
0.000160255
0.00906079
0.000219246
0.000137812
0.000157352
0.000183193
0.000155993
0.000177274
0.000148152
0.000149279
0.000143705
0.000222101
0.00341648
0.000203933
0.000146824
0.000229255
0.000169565
0.00016168
0.000146629
0.000143781
0.000143746
0.000138237
0.000195964
0.000176904
0.000152883
0.000151036
0.000144551
0.000146289
0.0109373
0.000144095
0.000144366
0.000149533
0.000516156
0.000712609
0.000145774
0.000143878
0.000145698
0.000333728
0.000151186
0.00246296
0.000146622
0.000192455
0.000146013
0.0001484
0.000213361
0.00014892
0.000167323
0.000148819
0.000144839
0.000137475
0.000153658
0.00216939
0.000149492
0.000150598
0.00260019
0.000147668
0.00015247
0.000150725
0.00014837
0.000144449
0.000150849
0.0108239
0.000139617
0.000140237
0.000140677
0.000406293
0.00015816
0.00516688
0.000147275
0.000149099
0.00456744
0.00535881
0.00430525
0.000158513
0.00017084
0.00340066
0.000147251
0.000693272
0.000150407
0.000193743
0.000141611
0.000294829
0.00461874
0.00013094
0.000157455
0.00019513
0.00015248
0.00013609
0.00578665
0.000140742
0.00374405
0.000148619
0.000144258
0.000149673
0.000136223
0.00014978
0.000106291
0.000144393
0.000142013
0.000142161
0.00014802
0.000144079
0.00100125
0.00268451
0.00185993
0.000147252
0.000141021
0.000155769
0.000145882
0.000144112
0.000188564
0.000171593
0.000152126
0.000143306
0.00192282
0.000154294
0.000223135
0.00844219
0.000154398
0.000136852
0.000143016
0.000183423
0.000450542
0.000146237
0.000142913
0.00170164
0.000185038
0.000173203
0.0160958
0.000143855
0.000165495
0.000163551
0.000134268
0.000149168
0.00036827
0.012044
0.000275961
0.000143232
0.00174222
0.000149276
0.00014708
0.000170662
0.000150117
0.000171105
0.000197625
0.000143146
0.0001455
0.000144552
0.000140611
0.000134449
0.000143603
0.00016052
0.000509495
0.000166225
0.000130771
0.000134613
0.000142921
0.000149761
0.000144322
0.00029646
0.000150288
0.000150445
0.000150332
0.00394579
0.000143041
0.000156185
0.0185343
0.000143365
0.000143613
0.00264879
0.000144158
0.000143794
0.00014262
0.0968071
0.000187945
0.000178763
0.000149665
0.000257292
0.000139899
0.000135339
0.000137867
0.000143408
0.000189558
0.000143166
0.000148074
0.000173723
0.000144679
0.000183244
0.000173552
0.000166552
0.000149044
0.000585941
0.000163372
0.000146876
0.0001419
0.00015045
0.000147397
0.000144237
0.000403391
0.000140704
0.00020797
0.000142476
0.000147005
0.0528876
0.000141932
0.00779739
0.000181882
0.00014394
0.0120675
0.000142346
0.000148958
0.000142989
0.000149535
0.000139358
0.000144434
0.000144417
0.000145373
0.000290111
0.00014696
0.00014067
0.00014958
0.000139977
0.000142726
0.000142797
0.000144401
0.000138007
0.000143169
0.00014392
0.000143785
0.000143378
0.000150523
0.000189702
0.000148204
0.000149856
0.000167936
0.00187069
0.000141943
0.000189923
0.000141049
0.000154609
0.000143768
0.000146076
0.0187925
0.00105016
0.00014174
0.000154003
0.00674298
0.000147922
0.00133056
0.015587
0.000134489
0.00863405
0.000146352
0.00856644
0.000158577
0.000714833
0.000270719
0.00718133
0.000141062
0.000142028
0.000137733
0.000159963
0.00019865
0.000153185
0.0018944
0.004659
0.00014408
0.109516
0.000907719
0.00016337
0.000137416
0.000173675
0.000172087
0.000144197
0.000141678
0.000143837
0.000167226
0.000166166
0.00017101
0.000164958
0.00016902
0.000392015
0.000142424
0.000144139
0.000142302
0.0791305
0.000170422
0.000171432
0.0512319
0.000592734
0.000648829
0.00014199
0.000170132
0.000143008
0.000166185
0.000143667
0.000151387
0.0011955
0.000158374
0.000211719
0.00013402
0.00451989
0.000184523
0.000185277
0.00326596
0.00495361
0.000142227
0.000143634
0.000143613
0.0160976
0.000144437
0.000140183
0.000143789
0.000168807
0.0182721
0.00216105
0.00016965
0.000192759
0.000865491
0.000176192
0.00487193
7.26133e-05
0.000559911
0.000169603
0.00164306
0.00405666
0.000141732
0.000141827
0.00014251
0.00712687
0.000201595
0.000280025
0.000144655
0.000143257
0.000144194
0.0610091
0.000142497
0.000143883
0.000141845
0.000174191
0.000141111
0.000142368
0.000137088
0.000160272
0.00023598
0.000166337
0.000164407
0.000146387
0.0117083
0.000174819
0.000138435
0.000143319
0.0012901
0.00367487
0.000147862
0.000148146
0.0769943
0.000143594
0.000141468
0.000141416
0.000145856
0.000287285
0.000141088
0.000147603
0.000142044
0.00014871
0.000143832
0.000142472
0.000141331
0.000143607
0.000145161
0.00581883
0.000142784
0.000138909
0.000193486
0.000193611
0.000181304
0.000176733
0.000141263
0.00188243
0.000143013
0.000186875
0.000141826
0.00489445
0.000143319
0.000142808
0.000135156
0.00270232
0.000170224
0.000142786
0.000225396
0.00014379
0.00013527
0.000143976
0.000150374
0.000163093
0.000141549
0.0212639
0.000145814
0.000257338
0.000192133
0.000145237
0.000164406
0.000140976
0.00013938
0.000142533
0.0216911
0.000186112
0.000204229
0.000221036
0.000224703
0.000158775
9.95064e-05
0.000171311
0.000144302
0.000132928
0.0936473
0.00195649
0.000140889
0.000186492
0.000142084
0.000141761
0.0113915
0.00013938
0.000144164
0.00121589
0.000215827
0.0236246
0.000144719
0.000141633
0.000602923
0.000141187
0.000138564
0.000221481
0.000143904
0.00048721
0.000232176
0.00041734
0.00014381
0.000151933
0.00014207
0.000136381
0.000217419
0.000147575
0.000144003
0.00017585
0.000139062
0.00029266
0.000145259
0.000152587
0.000168439
0.0213072
0.000168201
0.000148572
0.001033
0.00269892
0.000144229
0.00105109
0.000148214
0.000144053
0.000145163
0.000141997
0.000169598
0.000234839
0.000707104
0.000143608
0.00016981
0.000149053
0.000132316
0.000142124
0.000144777
0.00016621
0.000139724
0.000144527
0.000149644
0.000145941
0.0183167
0.000143709
0.000150307
0.000189223
0.00015112
0.000135711
0.000381984
0.000315137
0.010472
0.000242482
0.000177761
0.000139706
0.000151337
0.000939881
0.00522464
0.00311185
0.00298491
0.00378777
0.000146087
0.00571684
0.0228515
0.000147325
0.000429432
0.00015052
0.0219234
0.0003672
0.0208797
0.000150789
0.000142518
0.000189856
0.000144538
0.00014542
0.00111084
0.0180842
0.000144207
0.000144562
0.00014426
0.0133857
0.000143045
0.000142546
0.000142852
0.000141138
0.000141546
0.000312091
0.000149552
0.000141066
0.000145486
0.000169953
0.000284339
0.0123093
0.000144304
0.000143328
0.000153798
0.000144035
0.000141344
0.000141818
0.00390233
0.000143857
0.0001732
0.00014211
0.000146144
0.000136644
0.000144697
0.0178458
0.000293205
0.000138067
0.000147622
0.00416677
0.00743458
0.0002074
0.0240929
0.000144809
0.000169836
0.000142111
0.000132252
0.000142847
0.000135469
0.000141818
0.00014314
0.000148264
0.000412839
0.000134378
0.00886164
0.0190196
0.000136251
0.000202384
0.000183817
0.000150307
0.000142135
0.000142445
0.000148131
0.000143164
0.00284841
0.000133259
0.000143957
0.000256102
0.000142123
0.000143714
0.000140948
0.00891739
0.000144178
0.000143965
0.00893972
0.000138919
0.000138368
0.000142805
0.000545634
0.000143239
0.000131568
0.000142018
0.000134757
0.000625668
0.000280349
0.000141827
0.000109695
0.000132713
0.000143722
0.000157976
0.00341265
0.0018678
0.000134354
0.00016187
0.000143953
0.000142561
0.000143056
0.000141915
0.00334281
0.00237865
0.000144528
0.0001502
0.000232345
0.000140705
0.000142372
0.000169219
0.000165396
0.00483401
0.00014463
0.00015692
0.00458288
0.000142339
0.000169583
0.0174122
0.000250037
0.000142768
0.000141368
0.000151125
0.000143622
0.000141147
0.00509165
0.000142174
0.00537227
0.00756217
0.000149457
0.000168932
0.00436531
0.00014966
0.000231516
0.000371083
0.000836686
0.0001603
0.000142574
0.000154386
0.00395512
0.000139758
0.000227957
0.000141259
0.000134726
0.000134364
0.000134994
0.000142333
0.00044546
0.000147875
0.0104755
0.00256708
0.00018201
0.020572
0.000132501
0.000143818
0.000152754
0.0078692
0.000142395
0.018935
0.000211284
0.00013449
0.000140905
0.00538879
0.000141122
0.000206882
0.00305935
0.00014172
0.00330126
0.000149874
0.00016522
0.000212205
0.000144148
0.0001384
0.000198732
0.000211621
0.000144158
0.000154424
0.000135118
0.000153619
0.000140573
0.000153549
0.000142038
0.000140013
0.000183281
0.000135016
0.0033532
0.000144326
0.000142212
0.000144221
0.00136581
0.000141791
0.000140816
0.00814805
0.000212417
0.00594021
0.000148602
0.000135203
0.000191769
0.0177417
0.00426761
0.0058946
0.000163587
0.000166846
0.000147528
0.000143477
0.000171261
0.000149467
0.000143951
0.000137149
0.000200785
0.000171486
0.000140962
0.000131171
0.000147215
0.000138268
0.00014941
0.000194696
0.00022522
0.0184439
0.000204295
0.000459852
0.00614323
0.000138944
0.000140984
0.000151019
0.000174217
0.000137106
0.000149125
0.000140702
0.000142289
0.000142349
0.000178789
0.0001444
0.000232342
0.000143072
0.000141235
0.00118121
0.000178637
0.000150265
0.000141409
0.00014049
0.00184358
0.00287809
0.000146891
0.000135868
0.00016973
0.000141039
0.000143009
0.000141607
0.000145378
0.000140969
0.000140338
0.000691823
0.000137925
0.000191395
0.000169608
0.000141936
0.000144125
0.00385522
0.000220995
0.00280843
0.00709076
0.000168506
0.000153782
0.000148354
0.000142811
0.000230727
0.000140621
0.0196863
0.019881
0.000153335
0.000126682
0.00345272
0.000140994
0.00929489
0.000172742
0.0737895
0.000168778
0.000139888
0.000140198
0.000149384
0.000141813
0.00021781
0.010263
0.00020857
0.000143875
0.000141762
0.00014031
0.000217189
0.000172666
0.00190763
0.000140525
0.000148514
0.000208002
0.0001429
0.00368887
0.000219394
0.00014075
0.000145469
0.000132084
0.00014499
0.00104043
0.000268515
0.000140433
0.00014233
0.000139207
0.00449457
0.000142198
0.000155232
0.000266917
0.000244783
0.00557339
0.00024313
0.000465369
0.00014289
0.000163086
0.000147149
0.000142797
0.000153365
0.000274633
0.000137744
0.000143363
0.000216575
0.000144468
0.000138806
0.00307499
0.000137127
0.000143651
0.000220622
0.00533229
0.00013493
0.000135552
0.000183328
0.000357944
0.000193885
0.0125359
0.000170772
0.0012609
0.000140785
0.000373093
0.000207726
0.000232717
0.00374508
0.00020396
0.00329439
0.000221061
0.0930567
0.000138481
0.000140976
0.000136439
0.000143973
0.000276436
0.000139629
0.00018589
0.000142197
0.000155296
0.000145081
0.0027322
0.000143248
0.000864255
0.000166251
0.000214833
0.000332164
0.000268575
0.00265622
0.000131822
0.00017892
0.000143704
0.00252319
0.000145774
0.00017963
0.00255544
0.000248027
0.00038876
0.000139881
0.00812077
0.000169367
0.000228415
0.000145101
0.018342
0.000146577
0.0001405
0.000142625
0.000629533
0.00014657
8.64149e-05
0.000266881
0.00017225
0.00023465
0.000139839
0.000134665
0.0119632
0.00018972
0.00383559
0.00774386
0.000141252
0.00254415
0.00398933
0.000185011
0.000139075
0.00022331
0.00110153
0.000139727
0.000170647
0.000132391
0.00410481
0.00919018
0.00517204
0.000227262
0.000139868
0.000138821
0.00014901
0.000135268
0.00017389
0.000169734
0.0001508
0.000138228
0.00808338
0.000158911
0.000148543
0.000179499
0.00178414
0.00013743
0.000163739
0.000125829
0.000194273
0.0198669
0.000139993
0.00238583
0.000143111
0.000171261
0.00176011
0.000153729
0.000415207
0.000137219
0.000135621
0.000140341
0.00014009
0.000139016
0.00014087
0.000132181
0.00023835
0.000169301
0.000141539
0.00767775
0.000140988
0.000150059
0.000138682
0.0151245
0.000146923
0.000154026
0.000248603
0.000257682
0.000140258
0.0001323
0.0161379
0.000143703
0.00929174
0.00753429
0.000150056
0.000148663
0.000192252
0.00291612
0.000256589
0.000135965
0.000138584
0.000157964
0.000186892
0.000154022
0.000262223
0.00026211
0.00016702
0.000148537
0.000179257
0.000151014
0.00023352
0.0078242
0.000138125
0.0119289
0.000219306
0.000143003
0.000140784
0.000141479
0.000141092
0.00013859
0.000141705
0.000139381
0.000160026
0.000346399
0.000160483
0.000151174
0.00015424
0.000157104
0.000138479
0.000139109
0.000225634
0.000152098
0.000189138
0.000138197
0.000153691
0.000137997
0.000134363
0.00483274
0.000143707
0.000141309
0.00683567
0.00778439
0.00564106
0.00014066
0.0208288
0.000146744
0.0208921
0.0078745
0.000150319
0.0083698
0.000138924
0.000136431
0.02229
0.000139841
0.000186122
0.00168002
0.00707195
0.000169713
0.00806243
0.000149655
0.000140726
0.000154981
0.000138673
0.00668198
0.00561613
0.000140399
0.00661979
0.000237372
0.00013193
0.000138929
0.0001114
0.00285515
0.00300946
0.000180686
0.00376737
0.00855207
0.000143711
0.000440179
0.00692085
0.00143604