/*--------------------------------*- C++ -*----------------------------------*\
| =========                 |                                                 |
| \\      /  F ield         | OpenFOAM: The Open Source CFD Toolbox           |
|  \\    /   O peration     | Version:  v2012                                 |
|   \\  /    A nd           | Website:  www.openfoam.com                      |
|    \\/     M anipulation  |                                                 |
\*---------------------------------------------------------------------------*/
FoamFile
{
    version     2.0;
    format      ascii;
    class       volScalarField;
    location    "600";
    object      nut;
}
// * * * * * * * * * * * * * * * * * * * * * * * * * * * * * * * * * * * * * //

dimensions      [0 2 -1 0 0 0 0];


internalField   nonuniform List<scalar> 
9793
(
0.00186065
0.0161406
0.0018121
0.0067119
0.0388781
0.00527397
0.00690023
0.00672732
0.00637335
0.0374124
0.00226472
0.021538
0.00671988
0.00689857
0.00700676
0.00686999
0.00729327
0.00747086
0.00257802
0.00689647
0.0036071
0.00279366
0.0134428
0.0067224
0.00690227
0.00673403
0.00691315
0.00697693
0.00139851
0.00680064
0.00325838
0.0126039
0.0137795
0.00695139
0.0015383
0.00298923
0.00695533
0.00282499
0.00676193
0.00682536
0.00346382
0.00701476
0.00684737
0.00690888
0.00684937
0.00675955
0.00141873
0.0106579
0.0208092
0.00670848
0.00139572
0.00182388
0.00442486
0.00681751
0.00402424
0.0220741
0.00673878
0.00195146
0.0121756
0.00675834
0.00694227
0.00422136
0.0199497
0.00681254
0.0393399
0.0117245
0.0225839
0.0267929
0.0206625
0.00221487
0.00260007
0.00691949
0.00674524
0.0122492
0.00137232
0.01448
0.00674203
0.00718083
0.0071188
0.00701761
0.00995692
0.00714122
0.0152102
0.00966262
0.00268712
0.0105076
0.0071086
0.00674689
0.00519597
0.00721169
0.0169426
0.0413687
0.00681657
0.0126207
0.00454226
0.00922161
0.0186858
0.016081
0.00679457
0.0067439
0.00673893
0.00707504
0.00677398
0.0067617
0.00711209
0.00318109
0.00520279
0.0069326
0.00497625
0.0123662
0.00694268
0.00316074
0.00672923
0.0200428
0.00166686
0.0067427
0.0169222
0.00138558
0.00723151
0.0121538
0.0115334
0.00706102
0.00674279
0.00476796
0.0043591
0.00345572
0.00430327
0.0104558
0.00741618
0.00673076
0.00698978
0.00674717
0.0067333
0.0070861
0.00679617
0.00675138
0.00684759
0.00688683
0.00672811
0.00670863
0.00674007
0.00691942
0.00676038
0.00676474
0.00693254
0.00711094
0.0131013
0.00676711
0.00678225
0.0422192
0.0106489
0.00698475
0.0126442
0.0322441
0.00676754
0.00705282
0.00686004
0.00692732
0.00674915
0.00675455
0.006732
0.00698072
0.00682384
0.00275707
0.0133174
0.00349528
0.0103389
0.00196033
0.00688127
0.00691728
0.00680236
0.0172727
0.013807
0.0164499
0.00470319
0.00265291
0.00675127
0.00670055
0.00674226
0.00218207
0.0379159
0.00351772
0.00675321
0.00691319
0.0182696
0.00674164
0.00190296
0.00674151
0.00674289
0.0068243
0.00472277
0.00671616
0.0218533
0.0021696
0.0258074
0.00214236
0.00243804
0.00689233
0.0309157
0.00672515
0.0067947
0.00292114
0.0222042
0.00672848
0.00675646
0.0070018
0.00272721
0.00679804
0.00297651
0.00324307
0.00167103
0.0163549
0.0237379
0.00603656
0.00245702
0.00685084
0.00695473
0.0211895
0.00694319
0.0032202
0.00149721
0.00674295
0.00432189
0.006716
0.0103281
0.00283412
0.00529623
0.00675881
0.00146741
0.00192637
0.00673297
0.00671262
0.00329265
0.00676034
0.00405919
0.00799559
0.00672651
0.00679024
0.0181904
0.00702428
0.00340905
0.00687678
0.00678767
0.0127568
0.00677358
0.00677936
0.00672442
0.00693031
0.00679735
0.00693331
0.00637515
0.00240835
0.00172425
0.00408771
0.0067646
0.0025715
0.00679466
0.00229718
0.00579273
0.00677608
0.0122587
0.00678015
0.00159372
0.00696801
0.00170647
0.00681375
0.00679057
0.00162086
0.00291785
0.00684882
0.00677935
0.00673585
0.00184502
0.00674483
0.0168436
0.0161795
0.00673084
0.00119477
0.00673157
0.00425776
0.00693569
0.00675233
0.00697714
0.00680692
0.00391284
0.00674227
0.00655391
0.0020301
0.00676709
0.00675719
0.0067276
0.0152014
0.00632577
0.00698331
0.00699879
0.00708908
0.00393769
0.0019686
0.0067163
0.00271951
0.00677061
0.0102387
0.0195845
0.0069595
0.00692964
0.00677149
0.00171392
0.00221845
0.00693773
0.00900163
0.00678631
0.00676916
0.00206839
0.00595951
0.00683038
0.00712417
0.0104056
0.00682141
0.00193458
0.00329829
0.00677998
0.0135449
0.00252993
0.0115725
0.00686361
0.0341075
0.00372789
0.00945749
0.00136311
0.00677271
0.00286146
0.001384
0.00701063
0.0033339
0.00200958
0.00671985
0.00683731
0.00678697
0.00685456
0.00699714
0.00200316
0.00674492
0.00677035
0.00272794
0.00702745
0.00686655
0.00686752
0.00374559
0.00672296
0.00230984
0.00412423
0.00676496
0.00684589
0.0070727
0.0149194
0.00681824
0.00197758
0.00671138
0.00183586
0.00665461
0.00194424
0.00176488
0.00368322
0.00719789
0.00249731
0.00692593
0.0117058
0.00706074
0.00677267
0.020901
0.00386028
0.00251525
0.0067655
0.00388569
0.00335894
0.00681563
0.00673431
0.0147819
0.00239563
0.0130259
0.00257293
0.00681571
0.0241682
0.0067248
0.00352285
0.00697642
0.00687187
0.00691663
0.00681485
0.0027394
0.0152605
0.00477894
0.0347877
0.0113326
0.00252008
0.00212764
0.0102957
0.00682759
0.00678621
0.00428005
0.0110006
0.00688166
0.00440795
0.0032568
0.00673626
0.0151469
0.00679353
0.00266458
0.0067291
0.00152395
0.00674409
0.00236297
0.00165954
0.00679886
0.0132823
0.00703326
0.00391457
0.00698038
0.00698577
0.00642907
0.00711794
0.00293012
0.00672821
0.00683237
0.0017098
0.00681013
0.00580515
0.00373493
0.00680793
0.0019159
0.00676284
0.00683597
0.00671625
0.0096659
0.00702567
0.00738798
0.00692036
0.0199977
0.00692822
0.00696432
0.00696944
0.0054651
0.0161432
0.00688673
0.00492782
0.00684311
0.00680604
0.0035087
0.00401446
0.00321638
0.00774707
0.0143317
0.00450461
0.00672005
0.00202774
0.00190213
0.00155615
0.0153662
0.0130372
0.00677607
0.00703249
0.00349473
0.00674679
0.00720461
0.00674344
0.00677411
0.00695965
0.0225939
0.00224243
0.0232007
0.00678978
0.00185622
0.00669545
0.00693387
0.00697409
0.00715045
0.00213791
0.00695296
0.00699636
0.00673685
0.00675451
0.00516263
0.0110582
0.00678274
0.00671934
0.0178902
0.00398467
0.00409379
0.0158782
0.0212974
0.00697931
0.00696185
0.00334191
0.00513415
0.0068392
0.0068673
0.00683538
0.00691508
0.00679758
0.00677032
0.012199
0.00156116
0.00686293
0.0168219
0.00148778
0.00676068
0.00633557
0.00714501
0.00013272
0.00693754
0.0181284
0.00678594
0.00678618
0.00189
0.00674015
0.00218615
0.022641
0.00188458
0.00675835
0.0361315
0.00466594
0.00674203
0.00682629
0.00358009
0.00677034
0.00673734
0.00671568
0.00676433
0.0128387
0.00409741
0.00161621
0.00572222
0.00682729
0.00679939
0.00680197
0.00691959
0.00671958
0.00156453
0.00154944
0.00674379
0.00717971
0.00573074
0.00679409
0.00794922
0.00200902
0.00691316
0.00215449
0.0227961
0.00674481
0.00171202
0.00675926
0.0200988
0.00202983
0.0283956
0.00673681
0.00678178
0.00729267
0.0198748
0.00720033
0.0155666
0.0101159
0.0409669
0.00214606
0.0142755
0.0015221
0.00701262
0.0024894
0.0071544
0.0148897
0.0068257
0.0234075
0.00672031
0.014547
0.00693709
0.00417256
0.00678913
0.00117301
0.00673045
0.00686291
0.00340299
0.00289324
0.00217173
0.00674606
0.00673177
0.00678752
0.00678023
0.00251866
0.00670759
0.0147289
0.00528648
0.00670816
0.00692329
0.00167833
0.0044361
0.00673968
0.00628547
0.00680399
0.00194504
0.00332907
0.0026062
0.00671547
0.00712407
0.00393705
0.00234145
0.00653538
0.0034378
0.0068135
0.0067819
0.00299534
0.00246195
0.00690444
0.00673372
0.00672283
0.00727274
0.00729776
0.00677497
0.00708456
0.0066882
0.00680968
0.00707887
0.0067117
0.00276337
0.00668959
0.00411433
0.00697501
0.00681147
0.0030153
0.00335323
0.00242281
0.00696138
0.00674942
0.00673452
0.00672092
0.00677124
0.00690964
0.00678432
0.00676293
0.0067828
0.00672888
0.00165606
0.00683856
0.0069661
0.00674488
0.0170063
0.00670988
0.00672872
0.00252841
0.00674179
0.00679831
0.00103462
0.0068956
0.00690526
0.00698984
0.00215102
0.00672425
0.00360034
0.0415524
0.0243867
0.0129029
0.00679808
0.00674941
0.013395
0.00739153
0.00672164
0.0119658
0.0245617
0.0102241
0.00673645
0.00333995
0.00674932
0.00674273
0.0225933
0.0067123
0.0067159
0.00807183
0.00143401
0.00674435
0.0025509
0.00439228
0.00108071
0.00511093
0.00680215
0.00763341
0.0025613
0.00675555
0.00491693
0.00295559
0.0335549
0.00673372
0.00753043
0.00739894
0.0260138
0.00678047
0.016826
0.0136865
0.00703615
0.00262271
0.0115164
0.00671121
0.00671158
0.00696846
0.00727402
0.00672082
0.022424
0.00671512
0.0123108
0.00296864
0.0105824
0.00199144
0.00680836
0.00272906
0.0152045
0.00463487
0.0261697
0.0026958
0.0027919
0.00672219
0.0067341
0.0165042
0.00679605
0.00554223
0.00673205
0.0161986
0.00677489
0.0104388
0.0180259
0.00703414
0.0402003
0.00674109
0.00327427
0.00186576
0.0199357
0.015677
0.00680932
0.00679048
0.00673781
0.023358
0.00321764
0.00689991
0.00324297
0.00931638
0.00672963
0.00671906
0.00709838
0.0058104
0.00507287
0.00680561
0.00684784
0.00674349
0.0103855
0.0070243
0.00834752
0.0067264
0.00671275
0.0131452
0.00671207
0.0272916
0.00148797
0.0110438
0.0139975
0.0163514
0.00674388
0.00680562
0.00267058
0.00366555
0.00215678
0.00671341
0.00335112
0.0156129
0.0067589
0.0159886
0.00674008
0.0122047
0.00529705
0.0156185
0.00248063
0.00708277
0.00674687
0.00786414
0.00595737
0.0243698
0.0128068
0.00680996
0.00148153
0.0071421
0.00301752
0.00269591
0.032941
0.00692781
0.00278819
0.00673699
0.00255841
0.0067906
0.00669373
0.0069466
0.00671493
0.0425959
0.00671189
0.0029592
0.00696711
0.00701582
0.0067219
0.0014663
0.00695545
0.00376695
0.00674962
0.00672065
0.0176578
0.00670927
0.00353626
0.00677061
0.0063316
0.00684034
0.00598581
0.00690659
0.0209448
0.00684597
0.00680283
0.00670918
0.0165723
0.0195868
0.0116646
0.0269866
0.0138803
0.00679603
0.00274483
0.0205701
0.00674984
0.0158207
0.0135962
0.00143902
0.00139651
0.00322648
0.0154432
0.00480325
0.00743981
0.0181201
0.00314074
0.00682409
0.0165839
0.0026174
0.0068784
0.00275044
0.00671276
0.0070381
0.00302702
0.006915
0.00677465
0.00358227
0.00767053
0.00190521
0.00424013
0.0252221
0.00671049
0.00678028
0.015969
0.00321812
0.00306434
0.00682113
0.0073947
0.00678084
0.00674848
0.0176977
0.00672817
0.00331808
0.0150019
0.0149629
0.00707323
0.0143197
0.00513999
0.000683714
0.0127364
0.0357471
0.00686579
0.0261977
0.00684544
0.00673376
0.00677136
0.00693015
0.00719007
0.0447703
0.00741891
0.0178642
0.00751685
0.00152983
0.00582548
0.00359746
0.00758913
0.00698762
0.00155656
0.00734909
0.00676038
0.0016571
0.00782251
0.00178254
0.00713189
0.00675219
0.0151541
0.00370163
0.00678297
0.00669394
0.00668393
0.00691278
0.00752524
0.0025555
0.00159092
0.0148613
0.00155887
0.0135801
0.00680237
0.00207276
0.00289436
0.00253423
0.000828351
0.0067466
0.00675718
0.00339468
0.0015904
0.0403767
0.00673479
0.0252885
0.0221288
0.00688711
0.00360411
0.00280878
0.00252271
0.0068244
0.0024599
0.020707
0.00750057
0.00673773
0.00717051
0.00684948
0.00671862
0.0067389
0.0241545
0.00685198
0.00262847
0.0103577
0.00315105
0.00231589
0.00144959
0.00998845
0.00839954
0.0104662
0.00676314
0.00681992
0.00378601
0.00753691
0.00687146
0.0177138
0.0147662
0.00276419
0.0143712
0.00807135
0.0179299
0.006823
0.0142594
0.00673076
0.0151894
0.00291046
0.00672327
0.0222542
0.013725
0.00670758
0.00679512
0.00679674
0.0274519
0.0148784
0.0017807
0.00162079
0.00592048
0.00919667
0.0419218
0.0180714
0.00698911
0.00672458
0.0445699
0.00554913
0.00673032
0.0067896
0.00680811
0.00617418
0.00684064
0.00254446
0.0033095
0.00677382
0.00480926
0.00540741
0.00521074
0.00701796
0.0024317
0.0107078
0.00681225
0.00727816
0.0107826
0.00463667
0.00675564
0.00439316
0.00673473
0.0036598
0.0193168
0.00888972
0.00687452
0.0105491
0.0051499
0.0081469
0.00672892
0.0072827
0.00393244
0.00684764
0.0152767
0.00712728
0.0069338
0.00178416
0.00682304
0.00786902
0.00261802
0.00672607
0.00203626
0.00681398
0.0067097
0.0276269
0.00673796
0.00633959
0.00377514
0.00673464
0.00452462
0.00725865
0.0023535
0.022203
0.00671755
0.0107161
0.00673521
0.00672616
0.00310677
0.0116617
0.00672263
0.00680413
0.00672712
0.00579537
0.00270119
0.0041027
0.00680164
0.00692225
0.00703862
0.00399706
0.00677989
0.00677517
0.00671963
0.00671215
0.0166098
0.00262388
0.00672309
0.00363771
0.00728536
0.00568496
0.00708171
0.0027777
0.00679706
0.00672875
0.00289282
0.00303606
0.0067948
0.00684911
0.021195
0.000396294
0.00673037
0.00669658
0.00312648
0.00146634
0.00673518
0.0036886
0.00153626
0.00681522
0.00470132
0.00807428
0.00642687
0.00194264
0.0154117
0.0070352
0.00341038
0.00817231
0.00553633
0.00670238
0.00674937
0.00668953
0.00669174
0.00158211
0.00674275
0.00423486
0.00162797
0.00668813
0.00439584
0.00462033
0.00700672
0.00556848
0.00671782
0.00553517
0.013907
0.00669338
0.00678947
0.015593
0.00680133
0.00670473
0.00677222
0.00674116
0.0062592
0.00672926
0.00677465
0.00649265
0.00701549
0.00148627
0.0136695
0.00670241
0.00673962
0.0066977
0.00168887
0.00671842
0.00244077
0.00674229
0.00673168
0.00675236
0.00674027
0.002562
0.00674787
0.00674744
0.00926405
0.0259053
0.0067775
0.0067566
0.00671685
0.0122374
0.00182127
0.00671692
0.0141931
0.00651081
0.00697106
0.00611174
0.0226984
0.00239492
0.0184731
0.00241994
0.00627629
0.00672699
0.00249025
0.00190444
0.00674296
0.009192
0.0442601
0.00672335
0.0439038
0.0432294
0.00706922
0.0198835
0.00671358
0.00210401
0.00137622
0.00671852
0.0167116
0.00672604
0.00289743
0.00150273
0.00670766
0.0100635
0.00685317
0.00680026
0.00210615
0.00273472
0.0214108
0.0419506
0.00676366
0.00237781
0.0438646
0.00672014
0.00262604
0.00672971
0.0207055
0.0151259
0.00713779
0.00698582
0.00256926
0.039044
0.0453571
0.00242668
0.00670817
0.00673126
0.0436608
0.0143596
0.0107499
0.00319425
0.00321339
0.00242528
0.00674286
0.00689885
0.00696659
0.00332179
0.00677421
0.00699705
0.0057422
0.00280941
0.0067212
0.00579397
0.00259048
0.00272794
0.0411442
0.00164411
0.00719511
0.0220211
0.00671403
0.00165806
0.00149726
0.00796555
0.0105755
0.00676748
0.00135214
0.023005
0.00135617
0.00194244
0.0111303
0.0174626
0.00672824
0.00256181
0.0026214
0.00672366
0.00299624
0.00674617
0.00704245
0.00671515
0.00674647
0.00685158
0.00676156
0.00337108
0.00259432
0.0136186
0.00415544
0.0216014
0.0067327
0.00262324
0.00680937
0.0407744
0.0250649
0.00672534
0.00135474
0.0070555
0.00670901
0.00672112
0.00672263
0.00674312
0.00139523
0.00643233
0.0147995
0.00711265
0.00671512
0.00694183
0.0068566
0.00444228
0.00671339
0.00677295
0.0126761
0.00300688
0.024257
0.00632853
0.00963229
0.00680311
0.00490977
0.00700284
0.00263016
0.00234539
0.00265739
0.0390616
0.00673106
0.00136428
0.00360771
0.0145105
0.0450098
0.00257743
0.0445077
0.00621633
0.00695418
0.00139267
0.00677491
0.00275265
0.00603583
0.002186
0.00249227
0.00672495
0.0436656
0.00899931
0.00580819
0.00301927
0.00429934
0.0127408
0.00718009
0.00526203
0.0132551
0.00672527
0.0224693
0.00383542
0.00685965
0.00367581
0.00467101
0.00725344
0.00672365
0.0186914
0.00267232
0.00675535
0.00672163
0.00600063
0.00373494
0.0409915
0.00678411
0.00691081
0.0021049
0.00149211
0.00297107
0.00677543
0.0121727
0.0054108
0.00672453
0.0129201
0.0113627
0.00693173
0.00672859
0.00680347
0.0023092
0.00154069
0.00671204
0.00588525
0.00692064
0.00106509
0.0081793
0.00419854
0.006726
0.00212021
0.00672806
0.00671764
0.00672817
0.00256747
0.0387231
0.00763177
0.0068778
0.00472055
0.00383763
0.0229699
0.0045009
0.00697275
0.00516208
0.00673172
0.00196795
0.00525877
0.004502
0.00672776
0.00169687
0.00671229
0.00671728
0.00720325
0.00403432
0.0014818
0.00672641
0.00808464
0.0121101
0.0425008
0.00265322
0.00679753
0.00680645
0.00144786
0.00671261
0.0067852
0.00158148
0.00681308
0.00674325
0.0041403
0.00327165
0.00672726
0.0423896
0.00343166
0.00703442
0.0027593
0.00794607
0.00284464
0.00529572
0.00673815
0.00672842
0.00679132
0.00673454
0.00678657
0.00677443
0.00240327
0.00175808
0.00680947
0.00681466
0.00677831
0.00706637
0.00316408
0.00170551
0.00378959
0.0406235
0.00672731
0.00475156
0.00711955
0.00190853
0.00678181
0.0447708
0.00676758
0.00681591
0.00668429
0.0455328
0.00268095
0.00950121
0.0431492
0.00465841
0.00678303
0.00672803
0.00674309
0.00771952
0.00681242
0.00241392
0.0179846
0.00680726
0.00189925
0.00300268
0.00262313
0.00167342
0.00683448
0.00278282
0.00674579
0.00673591
0.00671405
0.00673278
0.0119185
0.00190496
0.00672915
0.00535024
0.0113031
0.00672045
0.00231496
0.00672922
0.00159433
0.00682777
0.0067189
0.00204865
0.00681634
0.00693499
0.00218688
0.00173839
0.00255613
0.0041852
0.00673058
0.00366299
0.0433937
0.00691738
0.00416399
0.00257889
0.00678843
0.00674759
0.0115262
0.00685251
0.0017416
0.00809225
0.0127049
0.00680776
0.00308144
0.00682747
0.00512299
0.00164212
0.00211953
0.00154961
0.00374199
0.00431032
0.00217579
0.0213549
0.00308718
0.00673231
0.00256816
0.00238504
0.00253549
0.00137867
0.00610298
0.00537349
0.0067284
0.00816805
0.0091355
0.0018653
0.0068187
0.00202587
0.00705851
0.00211647
0.00679548
0.00673121
0.00672478
0.00682911
0.00174835
0.00744847
0.00340875
0.00376959
0.00676162
0.00679833
0.00450187
0.00672605
0.00674078
0.00488958
0.00573169
0.00258574
0.00678136
0.00678585
0.00676894
0.00715858
0.00436807
0.00394423
0.00680585
0.00174616
0.00678946
0.0068498
0.00316245
0.00529698
0.00202946
0.00503993
0.00674704
0.00673496
0.00324585
0.00328704
0.00684794
0.00400324
0.0132821
0.00684121
0.00393981
0.00383736
0.00684304
0.00679186
0.00417053
0.0145605
0.00672022
0.00672623
0.00671198
0.00796375
0.0023235
0.0153008
0.006817
0.0067869
0.00875639
0.0175
0.0176393
0.00263845
0.00188715
0.0149346
0.00682108
0.00640841
0.00685226
0.00171318
0.00674117
0.0124443
0.0117107
0.00668724
0.00241839
0.00780497
0.00389267
0.00680282
0.0150327
0.00672666
0.0159688
0.00536226
0.006737
0.00502089
0.00680416
0.00508354
0.000462957
0.00675544
0.00671538
0.00672228
0.0068461
0.0067349
0.00429101
0.00918976
0.00765208
0.00682436
0.00687825
0.0026851
0.00677555
0.00675047
0.00164895
0.00261428
0.00575692
0.00671813
0.00675852
0.00296282
0.000918575
0.0202553
0.00314235
0.00672299
0.00671579
0.00577733
0.00487861
0.0068084
0.00673003
0.00405834
0.00176083
0.00295374
0.0195573
0.00674626
0.00686077
0.00685779
0.00673663
0.00509989
0.0078724
0.0260007
0.00325663
0.00672927
0.0076603
0.0051483
0.00682681
0.00695272
0.00416341
0.00698088
0.00313285
0.00673575
0.00676165
0.00677044
0.00672454
0.00672204
0.00678042
0.00200407
0.0111593
0.00318056
0.00668198
0.00672088
0.00671553
0.00443519
0.00675677
0.00898923
0.00398365
0.00391163
0.00417372
0.0165182
0.00672676
0.0025105
0.0227437
0.00672481
0.0067425
0.0046337
0.00678664
0.0067269
0.00671619
0.0362686
0.00349738
0.00135399
0.00498796
0.00344794
0.00685331
0.00671136
0.00673127
0.00674205
0.00251423
0.00672647
0.00554659
0.0022617
0.00676546
0.00296895
0.00727098
0.00162689
0.00495622
0.00285704
0.00284103
0.00681715
0.00671251
0.00682325
0.00680602
0.00675611
0.00977812
0.00670773
0.00269648
0.00672627
0.00680848
0.0222927
0.00673132
0.0109989
0.00235256
0.00675087
0.0157519
0.00672644
0.00679792
0.00672431
0.0049419
0.00671653
0.00676192
0.00677466
0.00680118
0.0018539
0.00681023
0.00670752
0.00445946
0.00672237
0.00672519
0.006728
0.00673598
0.00671732
0.00671592
0.00676169
0.00672342
0.00673906
0.00448374
0.000951077
0.00692561
0.00681445
0.00371604
0.0095602
0.00693511
0.00697908
0.00671861
0.00706617
0.00674735
0.00681177
0.0236826
0.006663
0.00671147
0.00354595
0.0203283
0.0068384
0.00740017
0.0231886
0.00673668
0.00983547
0.00679339
0.0119487
0.00222243
0.00873931
0.00300155
0.0144768
0.00671641
0.00672504
0.00682356
0.00205563
0.00153111
0.00374337
0.00351189
0.0119788
0.00673551
0.045363
0.00271011
0.00782337
0.00671991
0.00162089
0.00160447
0.00676395
0.00673149
0.00691028
0.0034558
0.00299754
0.00444496
0.00260977
0.00395047
0.00555248
0.00674842
0.00677912
0.00672224
0.0243195
0.00590757
0.00640577
0.0193869
0.00517769
0.0060147
0.00673966
0.0070002
0.00673337
0.00312959
0.00672362
0.00398418
0.00447447
0.00343341
0.00191103
0.00674436
0.0182061
0.00257858
0.00199569
0.0140342
0.0101343
0.00673027
0.00672541
0.00672724
0.0200341
0.00673918
0.00670806
0.00673368
0.00164034
0.0206174
0.0141174
0.0070281
0.00608481
0.00557858
0.00135471
0.0192988
0.000911544
0.0026556
0.00292419
0.00621717
0.016101
0.00671099
0.00671116
0.00673704
0.011095
0.00516112
0.0013912
0.00689735
0.00673944
0.00678559
0.0191427
0.00672442
0.00678159
0.00673066
0.00140049
0.00672794
0.0067247
0.00672795
0.00273246
0.00264639
0.00207561
0.00317719
0.00678818
0.00740889
0.00499849
0.00683533
0.00671736
0.00769356
0.0128655
0.00684136
0.00684544
0.028828
0.00677773
0.00672882
0.0067357
0.00680652
0.00290528
0.00671455
0.00682072
0.00672309
0.00683859
0.00676698
0.0067339
0.00670904
0.00675602
0.00679918
0.0135563
0.00671761
0.00670965
0.00251944
0.00176981
0.00397778
0.003226
0.00672639
0.00633911
0.00671513
0.00538001
0.00672264
0.00823374
0.00677361
0.0067224
0.00670756
0.00699817
0.00436716
0.00673012
0.00236293
0.00677292
0.00671302
0.0067793
0.00682273
0.00210973
0.00674187
0.0284332
0.0067805
0.0103513
0.00233228
0.00679935
0.00319087
0.0067096
0.00674826
0.006723
0.0226275
0.00705372
0.00483701
0.00356501
0.00202607
0.00260212
0.00096487
0.00510811
0.00676527
0.00670892
0.0344604
0.00564779
0.00671209
0.00259243
0.00677559
0.00673633
0.02507
0.00676445
0.00676856
0.00472204
0.00180305
0.0299403
0.00679169
0.00672776
0.00475968
0.00673261
0.00683766
0.00238231
0.00677947
0.00452873
0.00258771
0.00275499
0.0067366
0.00429787
0.00672147
0.00681419
0.00824108
0.00673779
0.00672452
0.00195419
0.00671924
0.00570118
0.00679936
0.00408596
0.00706425
0.0257938
0.00380046
0.00684835
0.00124912
0.01267
0.00678396
0.00504845
0.00684656
0.00676767
0.00679962
0.00675351
0.00705015
0.00852671
0.00435041
0.00677541
0.00702596
0.00684958
0.00669491
0.00674571
0.0067954
0.00583755
0.0067074
0.00680389
0.00684887
0.00680762
0.0259162
0.00672213
0.00684482
0.00146045
0.00668529
0.00670565
0.00376852
0.00465402
0.0174506
0.00244156
0.00311745
0.00676943
0.00452308
0.00631103
0.00833116
0.0113622
0.0116121
0.0149258
0.00678511
0.0200587
0.0296672
0.00683496
0.0042743
0.0045123
0.0272538
0.00506935
0.0225554
0.00475878
0.00676627
0.00162859
0.00679046
0.00680203
0.00658469
0.0206786
0.00675137
0.0067433
0.00680347
0.0164101
0.00676913
0.00675616
0.00672453
0.00671672
0.00672911
0.00412905
0.00448225
0.00672409
0.00680215
0.00205667
0.00549845
0.0165226
0.00677439
0.00677135
0.00331519
0.00676291
0.00672681
0.00671075
0.00536289
0.00677223
0.00145675
0.00672014
0.00680485
0.00671718
0.0067818
0.0251739
0.00504158
0.0067154
0.00681002
0.0165197
0.0136446
0.00562279
0.0299964
0.00679148
0.00204322
0.00672828
0.00669533
0.00675926
0.00671757
0.00672743
0.00673339
0.00684276
0.00173918
0.00673747
0.0208282
0.0232566
0.00681167
0.006467
0.00166139
0.00499048
0.00672392
0.00671421
0.00692754
0.0067834
0.0132381
0.00671969
0.00680119
0.00557147
0.00673116
0.00674355
0.00671465
0.0126059
0.00673845
0.00673328
0.0137355
0.00671666
0.00671232
0.00676027
0.00380557
0.00673668
0.00669769
0.00672738
0.00674874
0.00628066
0.00802446
0.00673603
0.00154041
0.00670441
0.00675737
0.00707881
0.0127083
0.00501464
0.00670573
0.00628682
0.00674728
0.00673693
0.0067671
0.00672345
0.0142383
0.0127438
0.00678618
0.0048697
0.00848472
0.00671001
0.00674918
0.00689779
0.00187863
0.010673
0.00678629
0.00285846
0.0121928
0.00673382
0.00706591
0.0214877
0.00303092
0.00686228
0.00673815
0.0070101
0.00678308
0.00672455
0.0198784
0.00674467
0.0127714
0.0182219
0.00429948
0.00703879
0.0171292
0.00718822
0.00576156
0.00862801
0.00724045
0.00268486
0.0067272
0.00688078
0.0159103
0.00670786
0.00393691
0.00673247
0.00671824
0.00668936
0.00670281
0.00673133
0.00495978
0.00684359
0.0233336
0.00993027
0.00221084
0.0275336
0.00669924
0.00672499
0.00302952
0.0187824
0.00672309
0.0234091
0.00806308
0.00671177
0.00672537
0.0208008
0.00673472
0.00780866
0.0129863
0.00672845
0.0146998
0.00524495
0.00238344
0.00205769
0.00673539
0.00671558
0.00258903
0.0018819
0.00678898
0.00298104
0.00669194
0.00714297
0.006728
0.0029246
0.00675203
0.0068972
0.00336507
0.00670926
0.014835
0.00673741
0.00671339
0.00680143
0.00677819
0.00674854
0.00673137
0.00975157
0.00214921
0.014165
0.00686668
0.00671335
0.00323336
0.0227011
0.012099
0.00415111
0.00272757
0.00313372
0.00683909
0.00674017
0.00599323
0.00552361
0.00679962
0.00671632
0.00636383
0.00692037
0.00672951
0.00668211
0.0068337
0.00671335
0.00694669
0.00619872
0.0057022
0.0219826
0.0078225
0.002192
0.0165243
0.00672728
0.00672564
0.0042826
0.00143715
0.00676274
0.00686054
0.0067231
0.00676102
0.00672899
0.00172675
0.00678448
0.00640888
0.00672504
0.00675933
0.00915931
0.0015751
0.00689588
0.0067575
0.00672976
0.00806625
0.0124645
0.00682682
0.0067106
0.00760634
0.00672963
0.00673106
0.00673307
0.000795106
0.00671242
0.00672481
0.0035642
0.00672348
0.00145797
0.00706234
0.00674129
0.00675638
0.0156213
0.00624485
0.0118581
0.00931451
0.00706609
0.00688411
0.00562612
0.00672001
0.00834237
0.00674282
0.0250221
0.0250274
0.003867
0.00186491
0.0145522
0.00674972
0.0218737
0.00708552
0.0383557
0.00760101
0.00672427
0.00673213
0.00537214
0.00672476
0.00591522
0.0220868
0.00644206
0.00678353
0.00676231
0.00672158
0.00580852
0.00706499
0.00988667
0.00672406
0.00690618
0.0064126
0.0067767
0.0131663
0.00617219
0.00673348
0.00680333
0.00669149
0.00681332
0.00882649
0.00267285
0.0067255
0.00675119
0.00673137
0.0176338
0.00672087
0.00270552
0.000739345
0.00454569
0.00592205
0.00533275
0.00600602
0.00672308
0.00190894
0.00680434
0.00676304
0.00301669
0.0108092
0.00671939
0.00677777
0.00640357
0.00678992
0.00683231
0.0133217
0.00682257
0.00679525
0.00637558
0.0128018
0.0067264
0.00670512
0.00138064
0.00887128
0.00247007
0.0197202
0.00719101
0.00752617
0.00671004
0.00536059
0.00560405
0.00269788
0.0111158
0.00800847
0.00949627
0.0117712
0.0301555
0.00671592
0.00670821
0.00673929
0.00677284
0.00807834
0.00671795
0.00146857
0.00694049
0.00704499
0.00679801
0.0122887
0.00671653
0.0100568
0.00575312
0.00733551
0.0046887
0.00592753
0.0100062
0.00668409
0.00152497
0.00676109
0.00969621
0.0068029
0.00463339
0.00771908
0.00528664
0.00557584
0.00672149
0.0194229
0.00707081
0.00613407
0.00677335
0.0235541
0.00680468
0.00672098
0.00672383
0.00455256
0.00681875
0.00341595
0.00648301
0.00548802
0.00291616
0.00670742
0.00671893
0.0172289
0.00247194
0.0151882
0.0159904
0.00675799
0.0113485
0.0133598
0.00137876
0.00672216
0.00657547
0.00715955
0.0067214
0.00740708
0.00668921
0.0114783
0.0198084
0.0189468
0.00653918
0.00671866
0.00671575
0.00570685
0.00670023
0.00753512
0.00703516
0.00397105
0.00675247
0.0161396
0.00710466
0.0069088
0.00730688
0.0107534
0.00451128
0.0075801
0.00525585
0.00787118
0.0264172
0.00672804
0.0104256
0.00671577
0.00168087
0.00400994
0.00703523
0.00522099
0.00671482
0.00680094
0.00673753
0.0067189
0.00672705
0.00675123
0.00668592
0.00580691
0.00706624
0.00673332
0.015602
0.00674229
0.00693703
0.00671584
0.0186953
0.00691244
0.00351298
0.00610779
0.00706959
0.00670751
0.00668836
0.0197409
0.00677312
0.021721
0.00716187
0.00693945
0.00594153
0.00375902
0.00845913
0.00266547
0.00673149
0.0067125
0.00696699
0.00474417
0.00291063
0.00224183
0.00659825
0.00740789
0.00517587
0.00708921
0.00425168
0.00642994
0.0160248
0.00671505
0.0259496
0.00650626
0.00671751
0.00672345
0.00675846
0.00675115
0.00671023
0.00673811
0.00671442
0.00716123
0.00406012
0.0068406
0.00701137
0.00290234
0.00257438
0.00672023
0.00671284
0.0018011
0.00603087
0.00734084
0.00671335
0.00702906
0.00671129
0.0067141
0.0120652
0.00673064
0.00670896
0.0149048
0.0160495
0.0131413
0.00672832
0.0210552
0.00681861
0.0223044
0.015961
0.00681659
0.0164572
0.00671423
0.00671248
0.0290765
0.00670717
0.00136801
0.00388186
0.0150982
0.00705689
0.0191129
0.006962
0.00674465
0.00696402
0.00671303
0.0145866
0.0132011
0.00672209
0.0141955
0.00595867
0.00668634
0.00671957
0.00369386
0.00831941
0.00552812
0.00694951
0.0155978
0.0199453
0.00676657
0.00542924
0.0174581
0.00502939
0.0163653
0.00746247
0.0153909
0.00668165
0.0166352
0.0124179
0.00670872
0.00716658
0.011656
0.0103942
0.00668023
0.0121723
0.00672076
0.00671338
0.00454316
0.00831695
0.00671152
0.00708696
0.00849859
0.00676256
0.00759123
0.00672534
0.0061012
0.0147592
0.00377002
0.00680873
0.0159656
0.00590779
0.00575097
0.0140548
0.00700314
0.0212797
0.0067083
0.0234866
0.00427419
0.00681314
0.0123939
0.00689914
0.00584059
0.00673553
0.00445761
0.0067532
0.00695174
0.00670201
0.00678919
0.00674705
0.00683462
0.0197321
0.0246071
0.00670998
0.00499254
0.0139196
0.00671217
0.00670774
0.0196587
0.00363124
0.0142688
0.0220632
0.00500576
0.00671106
0.00676693
0.0214246
0.00762611
0.0227523
0.00494808
0.00670713
0.00676144
0.00699609
0.00669212
0.00672537
0.00143833
0.00671732
0.0184469
0.00672136
0.00673579
0.0018533
0.00668308
0.00164598
0.008983
0.00676078
0.00671866
0.00672243
0.00502467
0.0066802
0.00672476
0.0114893
0.00542679
0.00496974
0.00696808
0.00169766
0.00671271
0.00696934
0.0067259
0.00443785
0.016108
0.0146252
0.0172163
0.00201506
0.00761069
0.00169869
0.00672125
0.00708747
0.00668144
0.00670438
0.00577421
0.00671928
0.0243732
0.0157719
0.00662948
0.0280808
0.00752419
0.0110577
0.0133614
0.00671101
0.0105972
0.00281888
0.00892425
0.00675203
0.00672068
0.00669974
0.00232859
0.0101566
0.0147269
0.01222
0.00671243
0.0297367
0.00671001
0.010258
0.0130371
0.00673215
0.00755976
0.0069087
0.0111054
0.0139409
0.00604598
0.0066838
0.00651487
0.00747502
0.0154098
0.00681013
0.00708462
0.0224172
0.0155235
0.00673939
0.00283463
0.00672358
0.00705807
0.00680181
0.0198404
0.00670451
0.00707832
0.00942447
0.0067249
0.00671943
0.0101046
0.00917507
0.00679993
0.00688099
0.00544158
0.00670714
0.00673611
0.00846011
0.0125145
0.00676968
0.00701219
0.00672175
0.00672218
0.00672351
0.00673753
0.023898
0.0112897
0.00864945
0.00265436
0.00670594
0.00280183
0.00670781
0.00709088
0.00609726
0.00701157
0.0157244
0.00671353
0.0205452
0.00681184
0.00921894
0.0101382
0.00682763
0.00671018
0.00176869
0.00143052
0.0202135
0.022678
0.0156133
0.023991
0.00700837
0.00671524
0.0117043
0.00671503
0.00577472
0.0067101
0.0102911
0.00184111
0.00673716
0.00723108
0.00673817
0.00786231
0.0189225