/*--------------------------------*- C++ -*----------------------------------*\
| =========                 |                                                 |
| \\      /  F ield         | OpenFOAM: The Open Source CFD Toolbox           |
|  \\    /   O peration     | Version:  v2012                                 |
|   \\  /    A nd           | Website:  www.openfoam.com                      |
|    \\/     M anipulation  |                                                 |
\*---------------------------------------------------------------------------*/
FoamFile
{
    version     2.0;
    format      ascii;
    class       volVectorField;
    location    "900";
    object      cellDisplacement;
}
// * * * * * * * * * * * * * * * * * * * * * * * * * * * * * * * * * * * * * //

dimensions      [0 1 0 0 0 0 0];


internalField   nonuniform List<vector> 
9793
(
(0 -0.00162652 0)
(0 -0.00010945 0)
(0 -0.0016574 0)
(0 -0.000633658 0)
(0 -0.00129069 0)
(0 -0.00254196 0)
(0 -0.000272077 0)
(0 -0.00173302 0)
(0 -0.0015682 0)
(0 -0.00130934 0)
(0 -0.000958302 0)
(0 -0.00272518 0)
(0 -0.000574072 0)
(0 -0.00118656 0)
(0 -5.09783e-05 0)
(0 -0.00112748 0)
(0 -0.00219549 0)
(0 -0.00222878 0)
(0 -0.00187669 0)
(0 -0.00116555 0)
(0 -0.00241431 0)
(0 -0.001983 0)
(0 -0.00217182 0)
(0 -1.59935e-05 0)
(0 -0.00274768 0)
(0 -0.000469335 0)
(0 -0.00110082 0)
(0 -0.00211026 0)
(0 -0.0013098 0)
(0 -0.00157901 0)
(0 -0.00270767 0)
(0 -0.00214979 0)
(0 -0.0028937 0)
(0 -0.000126175 0)
(0 -0.00133711 0)
(0 -0.00236787 0)
(0 -0.000193021 0)
(0 -0.00200993 0)
(0 -0.00208035 0)
(0 -0.000310946 0)
(0 -0.00272078 0)
(0 -9.46441e-05 0)
(0 -0.000296996 0)
(0 -0.000272199 0)
(0 -0.000236588 0)
(0 -0.00040219 0)
(0 -0.00129958 0)
(0 -0.00178808 0)
(0 -0.00294147 0)
(0 -0.000715721 0)
(0 -0.00132606 0)
(0 -0.00101507 0)
(0 -0.00248254 0)
(0 -0.00178298 0)
(0 -0.00114829 0)
(0 -0.00255013 0)
(0 -0.0013653 0)
(0 -0.000715136 0)
(0 -0.00299399 0)
(0 -0.00202424 0)
(0 -0.000205818 0)
(0 -0.00240372 0)
(0 -0.00297032 0)
(0 -0.000265655 0)
(0 -0.00116665 0)
(0 -0.00287353 0)
(0 -0.00298018 0)
(0 -0.00297963 0)
(0 -0.00273601 0)
(0 -0.000993847 0)
(0 -0.0011822 0)
(0 -9.24284e-06 0)
(0 -0.0019466 0)
(0 -0.000175399 0)
(0 -0.00134706 0)
(0 -0.00300532 0)
(0 -0.00141412 0)
(0 -6.59628e-05 0)
(0 -0.00245102 0)
(0 -0.00221605 0)
(0 -0.00289255 0)
(0 -0.00248463 0)
(0 -8.77585e-05 0)
(0 -0.00185532 0)
(0 -0.00270487 0)
(0 -0.00181429 0)
(0 -0.0022522 0)
(0 -0.0014613 0)
(0 -0.00239184 0)
(0 -0.00254537 0)
(0 -0.000151494 0)
(0 -0.0011059 0)
(0 -0.00151941 0)
(0 -0.00211798 0)
(0 -0.00238568 0)
(0 -0.00188246 0)
(0 -0.00253486 0)
(0 -0.000110241 0)
(0 -0.00148566 0)
(0 -0.00126314 0)
(0 -0.00124208 0)
(0 -0.00255181 0)
(0 -0.00152634 0)
(0 -0.00148358 0)
(0 -8.14783e-05 0)
(0 -0.00271448 0)
(0 -0.00236967 0)
(0 -0.000227771 0)
(0 -0.00246358 0)
(0 -0.00173327 0)
(0 -9.69814e-06 0)
(0 -0.00255301 0)
(0 -0.00123848 0)
(0 -0.00245633 0)
(0 -0.00104715 0)
(0 -0.00140008 0)
(0 -0.00283767 0)
(0 -0.00138085 0)
(0 -0.00251861 0)
(0 -0.00209288 0)
(0 -0.0017629 0)
(0 -3.62485e-06 0)
(0 -0.00155729 0)
(0 -0.00256399 0)
(0 -0.0017561 0)
(0 -0.00244956 0)
(0 -0.000858951 0)
(0 -0.00184017 0)
(0 -0.00248442 0)
(0 -0.00167404 0)
(0 -1.86545e-05 0)
(0 -0.00144872 0)
(0 -0.00172024 0)
(0 -0.00262362 0)
(0 -0.00156837 0)
(0 -0.0015064 0)
(0 -0.000217648 0)
(0 -0.000277216 0)
(0 -0.00120642 0)
(0 -0.000232846 0)
(0 -0.00153092 0)
(0 -0.00272514 0)
(0 -0.000439621 0)
(0 -0.00126538 0)
(0 -0.00122602 0)
(0 -0.00128114 0)
(0 -4.32996e-05 0)
(0 -0.00128673 0)
(0 -0.0014765 0)
(0 -0.0010629 0)
(0 -0.00158413 0)
(0 -2.07375e-05 0)
(0 -0.00156138 0)
(0 -0.00135597 0)
(0 -0.00144051 0)
(0 -6.7815e-06 0)
(0 -0.000109487 0)
(0 -0.00269882 0)
(0 -0.0012563 0)
(0 -0.000437414 0)
(0 -0.00179779 0)
(0 -0.00209392 0)
(0 -0.000990208 0)
(0 -0.00195056 0)
(0 -0.000116376 0)
(0 -0.00238411 0)
(0 -0.00181394 0)
(0 -0.00167382 0)
(0 -0.00106377 0)
(0 -0.00243138 0)
(0 -0.00240798 0)
(0 -0.00313029 0)
(0 -0.000106606 0)
(0 -0.00313505 0)
(0 -0.00172473 0)
(0 -0.00190243 0)
(0 -0.00149188 0)
(0 -5.85192e-05 0)
(0 -0.00184339 0)
(0 -0.00134102 0)
(0 -0.000492943 0)
(0 -0.00143103 0)
(0 -0.00127566 0)
(0 -0.00272176 0)
(0 -0.0030426 0)
(0 -0.00190391 0)
(0 -0.000709277 0)
(0 -0.00184656 0)
(0 -0.00160248 0)
(0 -0.00101042 0)
(0 -0.0016998 0)
(0 -0.000775006 0)
(0 -0.00296106 0)
(0 -0.00251908 0)
(0 -0.00296972 0)
(0 -0.00135168 0)
(0 -0.00165388 0)
(0 -0.00235769 0)
(0 -0.00138906 0)
(0 -0.000206593 0)
(0 -0.00157781 0)
(0 -0.00202228 0)
(0 -0.00252497 0)
(0 -0.00160617 0)
(0 -0.00153511 0)
(0 -6.26785e-05 0)
(0 -0.00239408 0)
(0 -0.00117125 0)
(0 -0.00269605 0)
(0 -0.00166715 0)
(0 -0.00141028 0)
(0 -0.00296517 0)
(0 -0.002933 0)
(0 -0.00177378 0)
(0 -0.00165074 0)
(0 -0.00010816 0)
(0 -0.00249051 0)
(0 -0.0030517 0)
(0 -7.82524e-05 0)
(0 -0.00287589 0)
(0 -0.00146279 0)
(0 -0.0014932 0)
(0 -0.00173034 0)
(0 -0.000719502 0)
(0 -0.00186041 0)
(0 -0.00197368 0)
(0 -0.00251655 0)
(0 -0.00141794 0)
(0 -0.00142739 0)
(0 -0.00106605 0)
(0 -2.85246e-05 0)
(0 -2.73241e-05 0)
(0 -0.00140717 0)
(0 -0.000170841 0)
(0 -0.000894654 0)
(0 -0.00288731 0)
(0 -0.0011824 0)
(0 -0.00229729 0)
(0 -0.00255752 0)
(0 -0.00248897 0)
(0 -0.00270366 0)
(0 -0.0012324 0)
(0 -0.00227059 0)
(0 -0.00289438 0)
(0 -0.00220305 0)
(0 -0.00146325 0)
(0 -0.00166713 0)
(0 -0.00269843 0)
(0 -0.00149841 0)
(0 -0.000154399 0)
(0 -0.00203263 0)
(0 -0.0015278 0)
(0 -0.00108507 0)
(0 -0.000873981 0)
(0 -0.00212815 0)
(0 -0.00208324 0)
(0 -0.00234773 0)
(0 -0.00152418 0)
(0 -0.00264975 0)
(0 -0.00116972 0)
(0 -0.00188253 0)
(0 -0.00224479 0)
(0 -0.00111812 0)
(0 -0.00011474 0)
(0 -0.00164582 0)
(0 -4.60492e-05 0)
(0 -6.03694e-05 0)
(0 -0.001437 0)
(0 -0.00204988 0)
(0 -0.00236805 0)
(0 -0.00119147 0)
(0 -0.000840531 0)
(0 -0.00192774 0)
(0 -0.00149085 0)
(0 -0.000167507 0)
(0 -0.000137949 0)
(0 -0.00165455 0)
(0 -0.00249578 0)
(0 -0.000406181 0)
(0 -0.000846121 0)
(0 -0.0026685 0)
(0 -6.24004e-05 0)
(0 -0.000171984 0)
(0 -0.000314832 0)
(0 -0.000840693 0)
(0 -0.00151153 0)
(0 -0.00205088 0)
(0 -0.00161113 0)
(0 -0.000421012 0)
(0 -0.00155027 0)
(0 -0.00121745 0)
(0 -0.00285549 0)
(0 -0.00244722 0)
(0 -0.000191294 0)
(0 -2.61189e-05 0)
(0 -0.00262006 0)
(0 -0.00182057 0)
(0 -0.00159837 0)
(0 -0.000545863 0)
(0 -0.00203021 0)
(0 -0.00145478 0)
(0 -0.00303059 0)
(0 -0.00284452 0)
(0 -0.000169702 0)
(0 -0.000238683 0)
(0 -0.0012444 0)
(0 -0.0019257 0)
(0 -0.00178614 0)
(0 -0.00263734 0)
(0 -0.00302009 0)
(0 -0.000248488 0)
(0 -0.00121559 0)
(0 -0.00179929 0)
(0 -0.00213173 0)
(0 -0.00193476 0)
(0 -0.00251265 0)
(0 -0.00183348 0)
(0 -0.00238093 0)
(0 -0.00189333 0)
(0 -0.0016408 0)
(0 -0.00219919 0)
(0 -0.000161871 0)
(0 -0.00175372 0)
(0 -0.000149054 0)
(0 -7.14045e-05 0)
(0 -0.000507898 0)
(0 -0.00185426 0)
(0 -0.00297443 0)
(0 -0.00138963 0)
(0 -0.000900744 0)
(0 -0.00125106 0)
(0 -0.00142249 0)
(0 -0.00251631 0)
(0 -0.00268434 0)
(0 -0.000954554 0)
(0 -0.00158794 0)
(0 -0.000267001 0)
(0 -0.00157051 0)
(0 -0.000192448 0)
(0 -0.00215769 0)
(0 -0.00161225 0)
(0 -0.00189531 0)
(0 -0.00214895 0)
(0 -0.00205937 0)
(0 -0.00249579 0)
(0 -0.00110631 0)
(0 -4.99788e-05 0)
(0 -0.00197624 0)
(0 -0.00166214 0)
(0 -0.00160794 0)
(0 -0.00178745 0)
(0 -0.00170765 0)
(0 -0.00211606 0)
(0 -0.00254281 0)
(0 -0.00310267 0)
(0 -0.00176852 0)
(0 -0.00228411 0)
(0 -5.24252e-05 0)
(0 -0.00122095 0)
(0 -0.00119124 0)
(0 -0.000742562 0)
(0 -0.00120464 0)
(0 -0.00199758 0)
(0 -0.00269928 0)
(0 -0.00168203 0)
(0 -0.000204785 0)
(0 -0.00189744 0)
(0 -0.00246778 0)
(0 -0.000156259 0)
(0 -0.00282892 0)
(0 -0.00268901 0)
(0 -0.00174547 0)
(0 -0.00168641 0)
(0 -0.000885447 0)
(0 -0.00232988 0)
(0 -0.00279399 0)
(0 -0.00180386 0)
(0 -0.0028753 0)
(0 -0.00130812 0)
(0 -8.64794e-05 0)
(0 -0.00205437 0)
(0 -0.00173162 0)
(0 -0.00308426 0)
(0 -0.000474767 0)
(0 -0.00188864 0)
(0 -7.39342e-05 0)
(0 -0.000251393 0)
(0 -0.00112257 0)
(0 -0.0017435 0)
(0 -0.00204595 0)
(0 -0.00310996 0)
(0 -0.00170487 0)
(0 -0.000762096 0)
(0 -0.00203639 0)
(0 -0.00172092 0)
(0 -0.00103734 0)
(0 -0.000101805 0)
(0 -0.000278975 0)
(0 -0.00155507 0)
(0 -0.00142739 0)
(0 -0.00201101 0)
(0 -0.00125541 0)
(0 -0.00150632 0)
(0 -0.00217828 0)
(0 -0.000823969 0)
(0 -0.00241331 0)
(0 -0.00233219 0)
(0 -0.0020178 0)
(0 -0.000786312 0)
(0 -0.00146318 0)
(0 -0.00189216 0)
(0 -0.00130097 0)
(0 -0.0024597 0)
(0 -0.00119198 0)
(0 -0.00219988 0)
(0 -0.00290311 0)
(0 -0.00179192 0)
(0 -0.00290154 0)
(0 -0.00243363 0)
(0 -0.00235873 0)
(0 -0.0013046 0)
(0 -0.00201503 0)
(0 -0.000412956 0)
(0 -0.001951 0)
(0 -0.000981709 0)
(0 -0.0016936 0)
(0 -0.00266794 0)
(0 -0.00182493 0)
(0 -0.000953837 0)
(0 -0.00135494 0)
(0 -0.000418765 0)
(0 -0.00197561 0)
(0 -0.000682184 0)
(0 -0.00233895 0)
(0 -0.00124238 0)
(0 -0.0023623 0)
(0 -0.00243868 0)
(0 -0.00301227 0)
(0 -0.00018858 0)
(0 -0.00246922 0)
(0 -0.000187324 0)
(0 -0.00172313 0)
(0 -0.00302145 0)
(0 -0.00234808 0)
(0 -0.00122826 0)
(0 -0.00104749 0)
(0 -0.00244625 0)
(0 -0.00185848 0)
(0 -0.00221074 0)
(0 -0.0027127 0)
(0 -0.0010795 0)
(0 -0.00298172 0)
(0 -0.00250963 0)
(0 -0.00111289 0)
(0 -0.00229086 0)
(0 -0.00138365 0)
(0 -0.00149709 0)
(0 -8.72105e-05 0)
(0 -0.00259385 0)
(0 -0.000256426 0)
(0 -0.00285153 0)
(0 -0.000915594 0)
(0 -0.00159659 0)
(0 -0.00253619 0)
(0 -0.00158663 0)
(0 -0.00151663 0)
(0 -0.000151016 0)
(0 -0.00251048 0)
(0 -0.00132895 0)
(0 -0.00306574 0)
(0 -0.00155691 0)
(0 -0.00195992 0)
(0 -4.36786e-05 0)
(0 -0.000152279 0)
(0 -4.68535e-05 0)
(0 -0.00249219 0)
(0 -0.00231997 0)
(0 -0.00248584 0)
(0 -0.00282382 0)
(0 -0.00077342 0)
(0 -0.000364298 0)
(0 -0.00270678 0)
(0 -0.00177365 0)
(0 -0.000415942 0)
(0 -0.00106103 0)
(0 -0.00286415 0)
(0 -0.00266901 0)
(0 -0.00176028 0)
(0 -0.00297165 0)
(0 -0.0029961 0)
(0 -8.99532e-05 0)
(0 -8.40624e-05 0)
(0 -0.00189308 0)
(0 -0.0026895 0)
(0 -0.00198816 0)
(0 -0.000220405 0)
(0 -0.000248433 0)
(0 -0.00240241 0)
(0 -0.00238913 0)
(0 -0.00217256 0)
(0 -2.12936e-05 0)
(0 -0.00111397 0)
(0 -0.000115121 0)
(0 -0.00302671 0)
(0 -0.0018011 0)
(0 -0.00136989 0)
(0 -0.00242039 0)
(0 -0.00246198 0)
(0 -0.00257328 0)
(0 -0.00266958 0)
(0 -0.00264721 0)
(0 -0.00093686 0)
(0 -0.00226294 0)
(0 -0.00105777 0)
(0 -0.00157281 0)
(0 -0.00116975 0)
(0 -0.00280779 0)
(0 -0.0018929 0)
(0 -0.00135397 0)
(0 -0.000724356 0)
(0 -0.00267135 0)
(0 -0.00166591 0)
(0 -0.00248592 0)
(0 -0.000725494 0)
(0 -0.00212499 0)
(0 -0.00160596 0)
(0 -0.00058664 0)
(0 -0.00207793 0)
(0 -0.0028729 0)
(0 -0.000864019 0)
(0 -0.00181566 0)
(0 -0.00246854 0)
(0 -0.00245075 0)
(0 -0.0022946 0)
(0 -0.00172285 0)
(0 -3.37618e-05 0)
(0 -0.000511764 0)
(0 -0.0025809 0)
(0 -0.000739967 0)
(0 -0.000878394 0)
(0 -0.00278277 0)
(0 -0.00139556 0)
(0 -0.00213178 0)
(0 -0.00159973 0)
(0 -0.00225661 0)
(0 -3.06218e-05 0)
(0 -0.000943896 0)
(0 -0.00307035 0)
(0 -0.00150862 0)
(0 -0.000511337 0)
(0 -8.48097e-05 0)
(0 -0.00248085 0)
(0 -0.00159211 0)
(0 -0.00309471 0)
(0 -0.00184919 0)
(0 -0.00222499 0)
(0 -0.00220099 0)
(0 -0.000215043 0)
(0 -0.00272703 0)
(0 -0.00298239 0)
(0 -0.00291201 0)
(0 -0.00110176 0)
(0 -0.00115831 0)
(0 -0.00267527 0)
(0 -0.00152728 0)
(0 -8.81744e-05 0)
(0 -0.00112979 0)
(0 -0.00275431 0)
(0 -0.00180539 0)
(0 -0.00184077 0)
(0 -0.00303847 0)
(0 -0.000620105 0)
(0 -0.00158711 0)
(0 -0.000209857 0)
(0 -0.0014327 0)
(0 -0.00224792 0)
(0 -0.000540406 0)
(0 -0.000687648 0)
(0 -0.000152643 0)
(0 -0.00150358 0)
(0 -0.00168386 0)
(0 -0.00132065 0)
(0 -0.00194398 0)
(0 -0.00147389 0)
(0 -0.00209401 0)
(0 -0.00207591 0)
(0 -0.00183263 0)
(0 -0.000816109 0)
(0 -0.00261438 0)
(0 -0.00233061 0)
(0 -0.000751217 0)
(0 -0.000228811 0)
(0 -0.0019523 0)
(0 -0.00152422 0)
(0 -0.00154507 0)
(0 -0.00209126 0)
(0 -0.00278342 0)
(0 -0.00156215 0)
(0 -0.00138661 0)
(0 -0.00165743 0)
(0 -0.00136952 0)
(0 -0.00250662 0)
(0 -0.00199012 0)
(0 -0.00155306 0)
(0 -0.00213523 0)
(0 -0.00197497 0)
(0 -0.00316712 0)
(0 -0.00199061 0)
(0 -0.0019802 0)
(0 -0.00128515 0)
(0 -0.000275132 0)
(0 -0.00150908 0)
(0 -0.00169968 0)
(0 -0.00268149 0)
(0 -0.00272014 0)
(0 -0.00220976 0)
(0 -0.00180473 0)
(0 -1.0375e-05 0)
(0 -0.00233815 0)
(0 -0.00179447 0)
(0 -0.000814991 0)
(0 -0.00213328 0)
(0 -0.000274122 0)
(0 -0.00145032 0)
(0 -0.000125335 0)
(0 -0.00170704 0)
(0 -0.00215215 0)
(0 -0.00137501 0)
(0 -0.00112187 0)
(0 -0.000169975 0)
(0 -0.00200647 0)
(0 -0.00149558 0)
(0 -0.00150237 0)
(0 -0.000612549 0)
(0 -9.29744e-05 0)
(0 -0.000642559 0)
(0 -0.00209608 0)
(0 -0.00197784 0)
(0 -0.000670471 0)
(0 -0.00137363 0)
(0 -0.000278767 0)
(0 -0.000182588 0)
(0 -0.00155371 0)
(0 -0.00303942 0)
(0 -0.00114061 0)
(0 -0.00076999 0)
(0 -0.000929859 0)
(0 -0.000101122 0)
(0 -0.00255808 0)
(0 -0.00053841 0)
(0 -0.00274529 0)
(0 -0.000217269 0)
(0 -4.62363e-05 0)
(0 -0.000690905 0)
(0 -0.00170359 0)
(0 -0.000906449 0)
(0 -0.0011434 0)
(0 -0.00278109 0)
(0 -0.00286109 0)
(0 -0.00252962 0)
(0 -0.00160936 0)
(0 -0.00259729 0)
(0 -0.0021057 0)
(0 -0.000717906 0)
(0 -8.3374e-05 0)
(0 -0.0030244 0)
(0 -0.00132567 0)
(0 -0.00152827 0)
(0 -0.000718086 0)
(0 -0.00158769 0)
(0 -0.00153693 0)
(0 -0.0024717 0)
(0 -0.000820612 0)
(0 -0.00307499 0)
(0 -0.00175575 0)
(0 -0.00114721 0)
(0 -0.00195757 0)
(0 -0.00176519 0)
(0 -0.00200769 0)
(0 -0.000510464 0)
(0 -0.0027997 0)
(0 -0.00238043 0)
(0 -0.00174728 0)
(0 -0.0011069 0)
(0 -0.00204376 0)
(0 -0.00265037 0)
(0 -0.000937576 0)
(0 -0.000612693 0)
(0 -0.00181295 0)
(0 -0.00157247 0)
(0 -0.00211962 0)
(0 -0.00275067 0)
(0 -0.00153874 0)
(0 -0.00285483 0)
(0 -0.00146166 0)
(0 -0.00228098 0)
(0 -0.00257907 0)
(0 -0.00304621 0)
(0 -0.00120949 0)
(0 -0.000893534 0)
(0 -0.000154177 0)
(0 -0.00241361 0)
(0 -0.00066993 0)
(0 -0.00253662 0)
(0 -0.000666777 0)
(0 -0.00258324 0)
(0 -0.00127936 0)
(0 -0.00189896 0)
(0 -0.00102035 0)
(0 -0.00172113 0)
(0 -0.00107175 0)
(0 -0.00315465 0)
(0 -0.0017761 0)
(0 -0.00309256 0)
(0 -0.00256312 0)
(0 -0.000704259 0)
(0 -0.000686437 0)
(0 -9.62068e-05 0)
(0 -0.00181341 0)
(0 -0.00224612 0)
(0 -0.00278542 0)
(0 -0.000510347 0)
(0 -0.0014804 0)
(0 -0.00164965 0)
(0 -0.0017878 0)
(0 -0.00178236 0)
(0 -0.00227372 0)
(0 -0.00061911 0)
(0 -0.000337102 0)
(0 -0.00147931 0)
(0 -0.00120474 0)
(0 -0.00237511 0)
(0 -0.00233385 0)
(0 -0.000578033 0)
(0 -0.0016934 0)
(0 -0.00079032 0)
(0 -0.00280246 0)
(0 -0.00211204 0)
(0 -0.000171037 0)
(0 -0.00254431 0)
(0 -0.00163266 0)
(0 -0.000737731 0)
(0 -0.00149086 0)
(0 -0.00266027 0)
(0 -0.00308018 0)
(0 -0.002861 0)
(0 -0.00229783 0)
(0 -0.00021078 0)
(0 -0.00192607 0)
(0 -0.00288301 0)
(0 -0.00135525 0)
(0 -0.00134307 0)
(0 -0.00155737 0)
(0 -0.000611628 0)
(0 -0.00305138 0)
(0 -0.000894114 0)
(0 -0.00308726 0)
(0 -0.001286 0)
(0 -0.00257596 0)
(0 -0.00172271 0)
(0 -0.00148479 0)
(0 -0.0019172 0)
(0 -0.00169831 0)
(0 -0.00147462 0)
(0 -0.00152962 0)
(0 -0.0015438 0)
(0 -0.000639914 0)
(0 -0.000745335 0)
(0 -0.00262077 0)
(0 -0.0015164 0)
(0 -0.00314991 0)
(0 -0.00188421 0)
(0 -0.00309479 0)
(0 -0.00159309 0)
(0 -0.00169017 0)
(0 -0.00218273 0)
(0 -0.0025067 0)
(0 -0.00198098 0)
(0 -0.000599571 0)
(0 -0.00141611 0)
(0 -0.00270136 0)
(0 -0.00305531 0)
(0 -0.00213908 0)
(0 -0.00152519 0)
(0 -0.00201333 0)
(0 -0.00199038 0)
(0 -0.00175477 0)
(0 -0.000536778 0)
(0 -0.000100856 0)
(0 -0.000730942 0)
(0 -0.00185493 0)
(0 -0.00107527 0)
(0 -0.00231626 0)
(0 -0.000251629 0)
(0 -0.000151793 0)
(0 -0.000614003 0)
(0 -0.00111811 0)
(0 -0.000978868 0)
(0 -0.0018701 0)
(0 -0.00020352 0)
(0 -1.72892e-05 0)
(0 -0.000637037 0)
(0 -0.00152666 0)
(0 -0.000139735 0)
(0 -0.00140151 0)
(0 -0.00197497 0)
(0 -0.0015535 0)
(0 -0.00148007 0)
(0 -0.00105789 0)
(0 -0.00247355 0)
(0 -0.00156034 0)
(0 -0.00151114 0)
(0 -0.000219532 0)
(0 -0.00306914 0)
(0 -0.000123295 0)
(0 -0.00269808 0)
(0 -0.0020933 0)
(0 -0.00226316 0)
(0 -0.000698704 0)
(0 -0.00134629 0)
(0 -0.00151292 0)
(0 -0.00310893 0)
(0 -0.000901922 0)
(0 -0.00307476 0)
(0 -0.00226335 0)
(0 -0.00150436 0)
(0 -0.000231615 0)
(0 -0.00068046 0)
(0 -0.00179856 0)
(0 -0.00183598 0)
(0 -0.00156324 0)
(0 -0.00117853 0)
(0 -0.00192651 0)
(0 -0.00143644 0)
(0 -0.00274305 0)
(0 -0.00242317 0)
(0 -0.000173316 0)
(0 -0.00186629 0)
(0 -0.00185554 0)
(0 -0.00146951 0)
(0 -0.00198301 0)
(0 -0.000103687 0)
(0 -0.00210276 0)
(0 -0.000712311 0)
(0 -0.00276346 0)
(0 -0.000941321 0)
(0 -8.948e-05 0)
(0 -0.000591903 0)
(0 -0.0015041 0)
(0 -0.00148865 0)
(0 -0.00117391 0)
(0 -0.00242938 0)
(0 -0.00276893 0)
(0 -0.000700978 0)
(0 -0.000663416 0)
(0 -0.00161642 0)
(0 -0.00217255 0)
(0 -0.000881196 0)
(0 -0.000205618 0)
(0 -0.0013671 0)
(0 -0.00172383 0)
(0 -0.000660685 0)
(0 -0.00283593 0)
(0 -0.000634513 0)
(0 -0.00192309 0)
(0 -0.00142512 0)
(0 -0.0013917 0)
(0 -0.00234189 0)
(0 -0.00312782 0)
(0 -0.00111742 0)
(0 -0.00256028 0)
(0 -0.00258853 0)
(0 -0.000558912 0)
(0 -0.00020426 0)
(0 -0.00296711 0)
(0 -0.00211496 0)
(0 -0.00179115 0)
(0 -0.00183694 0)
(0 -0.000139403 0)
(0 -0.00204689 0)
(0 -0.000636693 0)
(0 -0.00232982 0)
(0 -0.00285263 0)
(0 -0.0006238 0)
(0 -0.00188728 0)
(0 -0.00210887 0)
(0 -0.000906258 0)
(0 -0.00249859 0)
(0 -0.00253624 0)
(0 -0.00125296 0)
(0 -0.000649377 0)
(0 -0.000652876 0)
(0 -0.00121555 0)
(0 -0.0021769 0)
(0 -0.00141306 0)
(0 -0.00230004 0)
(0 -0.000933869 0)
(0 -0.00144098 0)
(0 -0.00234593 0)
(0 -0.000598066 0)
(0 -2.19511e-05 0)
(0 -1.9201e-05 0)
(0 -0.00103333 0)
(0 -0.00247187 0)
(0 -0.00181522 0)
(0 -0.0011802 0)
(0 -0.00261489 0)
(0 -0.0014346 0)
(0 -0.00185459 0)
(0 -0.00258123 0)
(0 -0.00225446 0)
(0 -0.0025481 0)
(0 -0.00149878 0)
(0 -0.0012149 0)
(0 -0.00196916 0)
(0 -0.00207321 0)
(0 -0.00234518 0)
(0 -0.00134178 0)
(0 -0.000559765 0)
(0 -0.00183164 0)
(0 -0.00276397 0)
(0 -0.00168676 0)
(0 -0.000107869 0)
(0 -0.000940393 0)
(0 -0.00126745 0)
(0 -0.00177446 0)
(0 -0.000346481 0)
(0 -0.00131884 0)
(0 -0.00156657 0)
(0 -0.00269 0)
(0 -0.00188019 0)
(0 -0.00139463 0)
(0 -0.0021378 0)
(0 -0.00143276 0)
(0 -0.00189644 0)
(0 -0.00086479 0)
(0 -0.00218124 0)
(0 -0.00110018 0)
(0 -0.00304091 0)
(0 -0.000976181 0)
(0 -0.00216085 0)
(0 -0.00155791 0)
(0 -0.00194525 0)
(0 -0.00292702 0)
(0 -0.00191752 0)
(0 -0.000673148 0)
(0 -0.00182741 0)
(0 -0.00153147 0)
(0 -0.0025147 0)
(0 -0.000225676 0)
(0 -0.00306277 0)
(0 -0.00149158 0)
(0 -0.00124358 0)
(0 -0.00308709 0)
(0 -0.00151659 0)
(0 -0.00281643 0)
(0 -0.00184585 0)
(0 -0.00145785 0)
(0 -0.0014845 0)
(0 -0.00137958 0)
(0 -0.00076275 0)
(0 -0.00166134 0)
(0 -0.00238418 0)
(0 -0.00259609 0)
(0 -0.000787994 0)
(0 -0.00170021 0)
(0 -0.000363289 0)
(0 -0.00063776 0)
(0 -0.0031158 0)
(0 -0.0017469 0)
(0 -0.00192742 0)
(0 -0.00144981 0)
(0 -3.61412e-05 0)
(0 -0.000590883 0)
(0 -0.00159564 0)
(0 -0.00244128 0)
(0 -0.00113143 0)
(0 -0.000670815 0)
(0 -0.00314523 0)
(0 -0.00174622 0)
(0 -0.00224201 0)
(0 -0.000600116 0)
(0 -0.00206944 0)
(0 -0.00209164 0)
(0 -0.00126574 0)
(0 -0.0021956 0)
(0 -0.00203613 0)
(0 -0.00272634 0)
(0 -0.00315776 0)
(0 -0.00161838 0)
(0 -1.1987e-05 0)
(0 -0.00212182 0)
(0 -0.00307447 0)
(0 -0.00173916 0)
(0 -0.00276799 0)
(0 -0.00189411 0)
(0 -0.00180175 0)
(0 -0.000882127 0)
(0 -0.00183631 0)
(0 -0.00182224 0)
(0 -0.00203586 0)
(0 -0.0017719 0)
(0 -0.0028939 0)
(0 -0.00271343 0)
(0 -0.00187201 0)
(0 -0.00284894 0)
(0 -0.00137146 0)
(0 -0.00128843 0)
(0 -0.00267154 0)
(0 -0.00202549 0)
(0 -0.00215887 0)
(0 -0.00144815 0)
(0 -0.00252613 0)
(0 -0.00022842 0)
(0 -0.00176771 0)
(0 -0.00272722 0)
(0 -0.000625854 0)
(0 -0.00113071 0)
(0 -0.00141147 0)
(0 -0.000873578 0)
(0 -0.00182731 0)
(0 -0.00112909 0)
(0 -0.00310615 0)
(0 -0.00186934 0)
(0 -0.00316495 0)
(0 -0.00280145 0)
(0 -0.00051205 0)
(0 -0.00310679 0)
(0 -0.00272916 0)
(0 -0.0011486 0)
(0 -0.00260517 0)
(0 -0.00114256 0)
(0 -0.00305984 0)
(0 -0.00184352 0)
(0 -0.0011962 0)
(0 -0.00213006 0)
(0 -0.00298108 0)
(0 -0.00119262 0)
(0 -0.00174258 0)
(0 -0.00174765 0)
(0 -0.00163408 0)
(0 -0.000674092 0)
(0 -0.00204465 0)
(0 -0.00258511 0)
(0 -0.000242525 0)
(0 -0.0027333 0)
(0 -0.00155664 0)
(0 -0.00209348 0)
(0 -0.000177811 0)
(0 -0.00151029 0)
(0 -0.000743769 0)
(0 -0.00282487 0)
(0 -0.00217272 0)
(0 -0.00020047 0)
(0 -0.00091142 0)
(0 -0.00242677 0)
(0 -0.00313751 0)
(0 -0.00145528 0)
(0 -0.000951041 0)
(0 -0.00173952 0)
(0 -0.00144339 0)
(0 -0.00079195 0)
(0 -0.00218046 0)
(0 -0.000365712 0)
(0 -0.00218041 0)
(0 -0.00171871 0)
(0 -0.000846727 0)
(0 -0.0013198 0)
(0 -0.000478861 0)
(0 -0.000739527 0)
(0 -0.00159779 0)
(0 -5.42026e-05 0)
(0 -0.00242576 0)
(0 -0.00133109 0)
(0 -0.00219403 0)
(0 -0.00185532 0)
(0 -0.00219658 0)
(0 -0.00172957 0)
(0 -0.00222934 0)
(0 -0.00284366 0)
(0 -0.00266756 0)
(0 -0.00266438 0)
(0 -0.00223534 0)
(0 -0.00155798 0)
(0 -0.000478407 0)
(0 -0.00161539 0)
(0 -0.000484019 0)
(0 -0.000476339 0)
(0 -0.000811155 0)
(0 -0.00193701 0)
(0 -0.00276094 0)
(0 -0.00188999 0)
(0 -0.000471095 0)
(0 -0.00180827 0)
(0 -0.0029129 0)
(0 -5.03042e-05 0)
(0 -0.0015891 0)
(0 -0.00080686 0)
(0 -0.00241588 0)
(0 -0.00308131 0)
(0 -0.000490142 0)
(0 -0.00162152 0)
(0 -0.00182104 0)
(0 -0.00267149 0)
(0 -0.00164226 0)
(0 -0.00252275 0)
(0 -0.00191456 0)
(0 -0.00162784 0)
(0 -0.00156343 0)
(0 -0.00154621 0)
(0 -0.000626673 0)
(0 -2.70612e-05 0)
(0 -0.00125193 0)
(0 -0.00292696 0)
(0 -0.000494122 0)
(0 -0.00139106 0)
(0 -0.000493603 0)
(0 -0.00121496 0)
(0 -0.00148278 0)
(0 -0.00209097 0)
(0 -0.000395232 0)
(0 -0.00114647 0)
(0 -0.00296799 0)
(0 -0.00142361 0)
(0 -0.00110979 0)
(0 -0.00150733 0)
(0 -0.00148132 0)
(0 -0.00134802 0)
(0 -0.00272417 0)
(0 -0.00019798 0)
(0 -0.000251696 0)
(0 -0.00143876 0)
(0 -0.00258268 0)
(0 -0.00169504 0)
(0 -0.000739668 0)
(0 -0.0022119 0)
(0 -0.00316063 0)
(0 -9.19044e-05 0)
(0 -0.00138854 0)
(0 -0.00169668 0)
(0 -0.00181994 0)
(0 -0.00175963 0)
(0 -0.00250816 0)
(0 -0.00307663 0)
(0 -0.00149346 0)
(0 -0.00257711 0)
(0 -0.000907161 0)
(0 -0.00138618 0)
(0 -0.00137771 0)
(0 -0.000596163 0)
(0 -0.00109262 0)
(0 -0.000539718 0)
(0 -0.000489248 0)
(0 -0.000105796 0)
(0 -0.00172763 0)
(0 -0.000468652 0)
(0 -0.00138782 0)
(0 -0.00137954 0)
(0 -0.00110548 0)
(0 -0.00146585 0)
(0 -0.00045916 0)
(0 -0.000996674 0)
(0 -0.00149491 0)
(0 -0.000475027 0)
(0 -0.00293161 0)
(0 -0.00222433 0)
(0 -0.000185804 0)
(0 -0.00120466 0)
(0 -0.00128554 0)
(0 -0.000558734 0)
(0 -0.000679131 0)
(0 -0.000954442 0)
(0 -0.00149523 0)
(0 -0.000655127 0)
(0 -0.00163849 0)
(0 -0.00119259 0)
(0 -0.00172698 0)
(0 -0.00174009 0)
(0 -0.00301289 0)
(0 -0.00106691 0)
(0 -0.0025939 0)
(0 -0.00113849 0)
(0 -0.000616461 0)
(0 -0.000697482 0)
(0 -0.00114208 0)
(0 -0.000491754 0)
(0 -0.00176385 0)
(0 -0.000742843 0)
(0 -0.00306959 0)
(0 -0.00255397 0)
(0 -0.00202876 0)
(0 -0.00214099 0)
(0 -0.00127855 0)
(0 -0.000894935 0)
(0 -0.000263231 0)
(0 -0.000110434 0)
(0 -0.00219693 0)
(0 -0.00214784 0)
(0 -0.000116839 0)
(0 -0.00248494 0)
(0 -0.00230168 0)
(0 -0.00157348 0)
(0 -0.000621055 0)
(0 -0.00214227 0)
(0 -0.00233835 0)
(0 -0.000503552 0)
(0 -0.00195966 0)
(0 -0.00316393 0)
(0 -0.00263502 0)
(0 -0.000486401 0)
(0 -0.000558349 0)
(0 -0.000534985 0)
(0 -0.00300312 0)
(0 -0.00134742 0)
(0 -0.00201282 0)
(0 -0.000585788 0)
(0 -0.00156807 0)
(0 -0.00145281 0)
(0 -0.0018591 0)
(0 -0.00131743 0)
(0 -0.00159041 0)
(0 -0.00169736 0)
(0 -0.00125793 0)
(0 -0.00124798 0)
(0 -0.00135493 0)
(0 -0.000707507 0)
(0 -0.0017052 0)
(0 -3.2577e-05 0)
(0 -0.00154622 0)
(0 -0.000446477 0)
(0 -0.00222494 0)
(0 -0.00170657 0)
(0 -0.00210247 0)
(0 -0.00115307 0)
(0 -0.00259561 0)
(0 -5.45846e-05 0)
(0 -0.00153531 0)
(0 -0.00179157 0)
(0 -0.00111427 0)
(0 -0.0016629 0)
(0 -0.00104661 0)
(0 -0.00311103 0)
(0 -0.0014496 0)
(0 -0.00141515 0)
(0 -0.00257566 0)
(0 -0.0010729 0)
(0 -0.00047278 0)
(0 -0.00111425 0)
(0 -0.0019482 0)
(0 -0.00117972 0)
(0 -0.00166288 0)
(0 -0.000730477 0)
(0 -0.002241 0)
(0 -0.00137156 0)
(0 -0.00249773 0)
(0 -0.00020702 0)
(0 -0.00146805 0)
(0 -0.00113775 0)
(0 -0.00207074 0)
(0 -0.00303161 0)
(0 -0.000681097 0)
(0 -0.00279029 0)
(0 -0.000596096 0)
(0 -0.00308423 0)
(0 -0.00165602 0)
(0 -0.00149172 0)
(0 -0.00263231 0)
(0 -0.00130447 0)
(0 -0.00253761 0)
(0 -0.000620188 0)
(0 -0.000790564 0)
(0 -0.000532997 0)
(0 -0.0014881 0)
(0 -0.00155521 0)
(0 -0.000763724 0)
(0 -0.000628626 0)
(0 -0.00116872 0)
(0 -0.000570806 0)
(0 -0.00160969 0)
(0 -0.000210247 0)
(0 -0.00152311 0)
(0 -0.00215009 0)
(0 -0.000981779 0)
(0 -0.00270192 0)
(0 -0.000750793 0)
(0 -0.00101739 0)
(0 -0.000478031 0)
(0 -0.000516551 0)
(0 -0.00294572 0)
(0 -0.00165693 0)
(0 -0.00128417 0)
(0 -0.00160498 0)
(0 -0.000657907 0)
(0 -0.00188312 0)
(0 -0.00164506 0)
(0 -0.00306458 0)
(0 -0.0016586 0)
(0 -0.00242398 0)
(0 -0.00278399 0)
(0 -0.000104255 0)
(0 -0.00148223 0)
(0 -0.00162646 0)
(0 -0.00299813 0)
(0 -0.00150716 0)
(0 -0.00280749 0)
(0 -0.00122328 0)
(0 -0.00177167 0)
(0 -0.00164428 0)
(0 -0.00277262 0)
(0 -0.00211964 0)
(0 -0.000714676 0)
(0 -0.00267863 0)
(0 -0.000103331 0)
(0 -0.00188843 0)
(0 -0.00114665 0)
(0 -0.00130238 0)
(0 -0.00194173 0)
(0 -0.00131583 0)
(0 -0.00151022 0)
(0 -0.00132759 0)
(0 -0.00105513 0)
(0 -0.00128543 0)
(0 -0.000113758 0)
(0 -0.0015511 0)
(0 -0.00268746 0)
(0 -0.00169448 0)
(0 -0.00156451 0)
(0 -0.000971648 0)
(0 -0.00159226 0)
(0 -0.00105617 0)
(0 -0.00128981 0)
(0 -0.00110658 0)
(0 -0.00155781 0)
(0 -0.00160286 0)
(0 -0.000869009 0)
(0 -0.00172212 0)
(0 -0.00152542 0)
(0 -0.00125844 0)
(0 -0.000726018 0)
(0 -0.000653147 0)
(0 -0.0011756 0)
(0 -0.000108194 0)
(0 -0.00149055 0)
(0 -0.00146369 0)
(0 -0.00167592 0)
(0 -0.00289871 0)
(0 -8.91027e-05 0)
(0 -0.00151148 0)
(0 -0.00178954 0)
(0 -0.00250678 0)
(0 -0.00166039 0)
(0 -0.001707 0)
(0 -0.00145518 0)
(0 -0.000614813 0)
(0 -0.00110383 0)
(0 -0.00106746 0)
(0 -0.00269764 0)
(0 -0.00151071 0)
(0 -0.00134952 0)
(0 -0.00123736 0)
(0 -0.00113368 0)
(0 -0.00206113 0)
(0 -0.000482143 0)
(0 -0.00127889 0)
(0 -0.00165935 0)
(0 -0.00167044 0)
(0 -0.00142009 0)
(0 -0.00147891 0)
(0 -0.00220112 0)
(0 -0.00188261 0)
(0 -0.00178551 0)
(0 -0.00167617 0)
(0 -0.0020711 0)
(0 -5.13754e-05 0)
(0 -0.000817895 0)
(0 -0.000533013 0)
(0 -0.000932225 0)
(0 -0.000115341 0)
(0 -0.00134029 0)
(0 -0.00112889 0)
(0 -0.00132065 0)
(0 -0.00151992 0)
(0 -0.00145294 0)
(0 -0.00142228 0)
(0 -0.00164067 0)
(0 -0.00184097 0)
(0 -0.0016591 0)
(0 -0.00212994 0)
(0 -0.00121642 0)
(0 -0.00114463 0)
(0 -0.00167394 0)
(0 -0.000159165 0)
(0 -0.00217538 0)
(0 -5.33197e-05 0)
(0 -0.00211156 0)
(0 -0.00186076 0)
(0 -0.0016069 0)
(0 -0.000647833 0)
(0 -0.00131576 0)
(0 -0.00188183 0)
(0 -0.00184704 0)
(0 -0.000918992 0)
(0 -0.00158351 0)
(0 -0.000689214 0)
(0 -0.00150852 0)
(0 -0.00176137 0)
(0 -3.78919e-05 0)
(0 -0.000733414 0)
(0 -0.00153265 0)
(0 -0.00108196 0)
(0 -0.000780343 0)
(0 -0.00199706 0)
(0 -0.0016018 0)
(0 -0.0016516 0)
(0 -0.00145625 0)
(0 -0.00114939 0)
(0 -0.000206523 0)
(0 -0.00134634 0)
(0 -0.00300003 0)
(0 -0.00163253 0)
(0 -0.00187007 0)
(0 -0.00129952 0)
(0 -0.00153044 0)
(0 -0.000908958 0)
(0 -0.00200363 0)
(0 -0.00131498 0)
(0 -0.001967 0)
(0 -0.00133111 0)
(0 -0.00111423 0)
(0 -0.00138248 0)
(0 -0.000106042 0)
(0 -0.00094291 0)
(0 -0.00172454 0)
(0 -0.00317304 0)
(0 -0.00277246 0)
(0 -0.00115783 0)
(0 -0.00199356 0)
(0 -0.00126534 0)
(0 -0.00191726 0)
(0 -0.000263605 0)
(0 -0.0014786 0)
(0 -0.0017287 0)
(0 -0.00184801 0)
(0 -0.000218361 0)
(0 -0.00185393 0)
(0 -0.00182765 0)
(0 -0.000787605 0)
(0 -0.00187137 0)
(0 -0.00177837 0)
(0 -0.00206512 0)
(0 -0.000610329 0)
(0 -0.003085 0)
(0 -0.000895487 0)
(0 -0.00106106 0)
(0 -0.00169652 0)
(0 -0.00149007 0)
(0 -0.00203703 0)
(0 -0.00224753 0)
(0 -0.00138497 0)
(0 -0.00115559 0)
(0 -0.00305399 0)
(0 -0.00180328 0)
(0 -0.000984012 0)
(0 -0.0020227 0)
(0 -0.00192378 0)
(0 -0.00194758 0)
(0 -0.00121079 0)
(0 -0.00185454 0)
(0 -0.00145985 0)
(0 -0.00158146 0)
(0 -0.00139252 0)
(0 -0.00277099 0)
(0 -0.00257892 0)
(0 -0.00137343 0)
(0 -0.00118433 0)
(0 -0.000648969 0)
(0 -0.00156002 0)
(0 -0.00138266 0)
(0 -0.00167099 0)
(0 -0.00181036 0)
(0 -0.00130429 0)
(0 -0.00217514 0)
(0 -0.00306243 0)
(0 -0.00190339 0)
(0 -0.00191303 0)
(0 -0.00169117 0)
(0 -0.000107452 0)
(0 -0.00141728 0)
(0 -0.00161944 0)
(0 -0.00135264 0)
(0 -0.00117138 0)
(0 -0.00043961 0)
(0 -0.00189832 0)
(0 -0.00270007 0)
(0 -0.00169505 0)
(0 -0.00158079 0)
(0 -0.00172465 0)
(0 -0.00175883 0)
(0 -0.000653094 0)
(0 -0.00115708 0)
(0 -0.00143672 0)
(0 -0.00176919 0)
(0 -0.00304311 0)
(0 -0.00133377 0)
(0 -0.00167164 0)
(0 -0.0022866 0)
(0 -0.00152518 0)
(0 -0.00122735 0)
(0 -0.00203356 0)
(0 -0.00125996 0)
(0 -0.00178258 0)
(0 -0.00193126 0)
(0 -0.00171454 0)
(0 -0.00220126 0)
(0 -0.00259757 0)
(0 -0.00177735 0)
(0 -0.00123393 0)
(0 -0.00162269 0)
(0 -0.000350698 0)
(0 -0.00132136 0)
(0 -0.00201655 0)
(0 -0.000617783 0)
(0 -0.00220149 0)
(0 -0.0015808 0)
(0 -0.00138901 0)
(0 -0.00211173 0)
(0 -0.0021083 0)
(0 -0.00150743 0)
(0 -0.00202791 0)
(0 -0.00230966 0)
(0 -0.00184255 0)
(0 -0.00279631 0)
(0 -0.0015939 0)
(0 -0.00165681 0)
(0 -0.00129864 0)
(0 -0.00241237 0)
(0 -0.00161422 0)
(0 -0.00215641 0)
(0 -0.00180524 0)
(0 -0.00209196 0)
(0 -0.00299796 0)
(0 -0.00166743 0)
(0 -0.000648058 0)
(0 -0.00114472 0)
(0 -0.0022732 0)
(0 -0.000742923 0)
(0 -0.00186974 0)
(0 -0.00249107 0)
(0 -0.00239654 0)
(0 -0.000584679 0)
(0 -0.00191561 0)
(0 -0.00108363 0)
(0 -0.00301021 0)
(0 -5.07057e-05 0)
(0 -0.00185036 0)
(0 -0.00219695 0)
(0 -0.00208119 0)
(0 -0.000460384 0)
(0 -0.00285027 0)
(0 -0.00169589 0)
(0 -0.000706888 0)
(0 -0.00166232 0)
(0 -0.00139836 0)
(0 -0.0018454 0)
(0 -0.000482925 0)
(0 -0.00189721 0)
(0 -0.000878878 0)
(0 -0.00167109 0)
(0 -0.00119631 0)
(0 -0.00145864 0)
(0 -0.00215635 0)
(0 -0.00139181 0)
(0 -0.003028 0)
(0 -0.00313083 0)
(0 -0.00295581 0)
(0 -0.00189135 0)
(0 -0.001042 0)
(0 -0.00133497 0)
(0 -0.00156367 0)
(0 -0.00166802 0)
(0 -0.000557113 0)
(0 -0.00102413 0)
(0 -0.00249255 0)
(0 -0.000932589 0)
(0 -0.0030671 0)
(0 -0.00175765 0)
(0 -0.00310172 0)
(0 -0.00279743 0)
(0 -0.00205572 0)
(0 -0.00119933 0)
(0 -0.000886532 0)
(0 -0.00293706 0)
(0 -0.00317232 0)
(0 -0.00240791 0)
(0 -0.00152184 0)
(0 -0.00279573 0)
(0 -0.000612974 0)
(0 -0.000953127 0)
(0 -0.0031084 0)
(0 -0.00165952 0)
(0 -0.000100191 0)
(0 -7.79076e-05 0)
(0 -0.00061029 0)
(0 -0.00164703 0)
(0 -0.00238149 0)
(0 -0.00272807 0)