/*--------------------------------*- C++ -*----------------------------------*\
| =========                 |                                                 |
| \\      /  F ield         | OpenFOAM: The Open Source CFD Toolbox           |
|  \\    /   O peration     | Version:  v2012                                 |
|   \\  /    A nd           | Website:  www.openfoam.com                      |
|    \\/     M anipulation  |                                                 |
\*---------------------------------------------------------------------------*/
FoamFile
{
    version     2.0;
    format      ascii;
    class       volScalarField;
    location    "900";
    object      ddt0(omega);
}
// * * * * * * * * * * * * * * * * * * * * * * * * * * * * * * * * * * * * * //

dimensions      [0 0 -2 0 0 0 0];


internalField   nonuniform List<scalar> 
9793
(
-0.192148
0.00918895
-0.184873
-1.73045e-05
-0.375878
5.75564e-05
2.34526e-05
-2.59343e-05
-4.86043e-05
-0.156972
0.00226221
0.0725168
-2.9972e-05
2.0501e-05
3.55144e-05
1.67973e-05
1.77059e-05
-6.5155e-05
-0.264736
3.97393e-05
0.0413285
-0.000271696
0.00759185
3.17155e-06
-5.79023e-05
-4.03957e-05
-2.30106e-05
-1.58874e-05
0.00115444
-6.35741e-05
-0.00106449
0.0103301
-0.0219267
-6.55867e-06
0.00160029
0.633848
1.45319e-06
-0.000271067
1.08e-05
-3.24766e-05
-0.00171838
3.34591e-05
-4.30909e-05
4.73059e-06
-5.20975e-05
-3.34537e-05
0.00186869
0.0858638
-0.128543
-1.12115e-05
0.000571426
0.00167733
-1.47254e-05
-3.2081e-05
-0.0371438
0.0187466
-1.9039e-05
0.00221525
0.438615
-2.45781e-05
-1.69072e-05
-7.0613e-05
0.236826
-1.56851e-05
-0.278471
-0.0228107
0.204506
0.0886948
0.03808
0.0020364
0.00240389
-4.86145e-07
-6.52535e-05
0.00721819
-0.000396803
0.273653
-3.97681e-05
7.90462e-05
-9.40124e-05
-2.92581e-05
-0.0204289
-2.57439e-05
0.0263133
0.0479924
-0.000188338
0.0595945
-3.00827e-05
-4.61188e-05
-1.90537e-05
4.56192e-05
0.0051093
-1.74538
-1.53984e-05
0.0116416
-5.37382e-05
0.0545835
0.0326071
0.0202226
-8.38775e-06
-4.7602e-06
-3.8165e-06
4.88651e-06
6.1877e-06
5.2881e-06
9.88178e-05
-0.000473547
-4.51903e-05
-1.5037e-05
1.05232e-05
-0.191929
-2.07091e-06
0.00461774
7.10768e-05
0.580712
0.00149226
-3.4477e-05
-0.0252994
-0.00210228
-8.65289e-05
0.0113263
-0.188942
-4.6273e-06
6.08869e-06
5.3891e-05
-5.18694e-05
0.0209696
0.00146063
0.0614641
-1.90072e-05
-4.85054e-05
-3.64148e-06
-4.62389e-05
-5.19072e-05
2.67662e-05
-3.88577e-05
-4.12306e-05
-3.38922e-05
4.1366e-06
4.56058e-05
-2.82324e-06
-1.12441e-05
-6.53143e-05
-2.52153e-06
-8.39984e-06
6.52905e-05
0.000156468
0.0482602
-8.34008e-06
-4.61964e-07
-2.74993
0.684038
-3.83561e-06
0.746469
-0.139877
-1.00888e-06
-3.6466e-06
4.39055e-06
-5.92608e-05
-4.48475e-06
-3.41511e-06
-4.25049e-05
-2.31166e-05
3.42529e-06
-0.270277
0.0115328
0.131512
0.0882711
-4.32582e-05
-1.39275e-05
1.0905e-05
2.67924e-05
0.0140914
0.0120801
-0.00361513
-6.02347e-05
-0.225525
-4.13659e-05
1.3075e-06
-2.75744e-05
0.000500191
0.50025
-1.51474e-05
-5.77994e-06
-6.42196e-05
-0.0674284
-4.55518e-05
0.00193161
-2.74119e-05
1.23643e-05
3.64535e-06
-5.43817e-05
-6.62741e-05
-0.071087
0.00439496
0.128527
0.000474563
-0.189884
2.64079e-06
0.0373203
-3.93476e-07
-3.2487e-05
-0.192511
0.0868818
-3.85416e-05
-3.49226e-05
4.41539e-05
0.222216
2.99805e-06
0.000155138
-0.000120065
0.000769412
-0.0940072
-0.114174
-6.04286e-05
-0.10959
4.33274e-06
-5.95098e-06
-0.265671
1.61489e-05
0.0751692
-0.0141285
-4.33169e-05
-4.79372e-05
-7.40069e-05
0.0667734
-0.240815
3.75886e-05
-6.87288e-06
-0.00535583
0.00166568
1.3243e-06
2.60513e-06
-3.26975e-05
2.51345e-06
0.00164214
0.0800582
1.31676e-05
1.97544e-05
0.00415472
5.71912e-07
0.000116407
-4.01568e-05
1.31394e-05
-0.0223042
-7.91653e-06
3.07661e-07
-3.30991e-05
-5.55409e-05
-6.23167e-06
-7.95101e-06
-5.47552e-05
7.09361e-05
0.00166882
0.00159787
2.79903e-05
-0.000345306
6.232e-06
7.16999e-05
0.000119128
-8.87726e-06
-0.0332283
-1.44412e-05
0.00167182
-1.05753e-05
8.93727e-05
-4.14783e-06
-3.91067e-06
0.000777495
-0.178183
2.44184e-05
-7.79881e-06
5.40896e-07
-0.000472673
-5.26855e-05
-4.66749e-05
-0.00164394
-6.83168e-05
0.0164831
-8.3528e-05
0.00160419
-3.84398e-05
-1.44027e-06
-6.76353e-06
-3.0426e-05
0.00119582
-4.83045e-05
-5.2213e-05
7.29671e-05
1.3674e-05
-3.6002e-05
4.05184e-05
-0.0233136
6.21913e-05
7.36038e-07
-2.30306e-06
4.22317e-05
-8.96247e-05
0.000104262
-8.06312e-05
-0.421094
-1.41471e-06
-0.0755422
0.00485271
-1.51267e-05
-5.6255e-06
-6.58298e-06
-0.000503075
-0.000190754
-2.58228e-05
-0.0916893
-9.71383e-05
-6.09247e-06
-0.000231265
-7.08271e-05
-3.6897e-05
8.27057e-05
0.0428462
-2.41863e-05
-0.000380856
-9.56383e-05
-2.17757e-05
0.00360257
-0.0695069
0.0254271
-4.74971e-06
0.121963
-0.000116597
0.506659
0.00141051
-6.62162e-06
5.36795e-05
0.00576456
2.74889e-05
-6.80627e-06
0.00182143
-3.71771e-05
-5.0596e-05
1.84128e-05
-2.04548e-06
-2.41165e-05
-0.522041
-4.81332e-05
-9.46507e-06
-0.410863
8.45664e-06
2.79562e-05
-2.87256e-06
-0.000188691
-3.31746e-05
-0.309344
-5.59427e-05
-2.14088e-05
-3.94311e-05
-9.95241e-06
0.0813484
-3.84719e-05
-0.000757654
1.05609e-06
0.00133333
-0.000238262
0.00112848
0.00141468
-0.000160798
3.42798e-05
-0.0707814
-1.70723e-05
-0.000519766
2.88188e-05
3.13364e-06
0.0257251
8.51897e-05
0.0117141
-3.10013e-05
0.00192395
0.827059
-2.03783e-05
-4.79168e-05
-0.0197289
0.000346786
0.0332387
-0.000347964
-6.56919e-05
-0.225563
-0.000107386
-0.000154507
-3.6354e-06
-3.38286e-05
-8.66262e-07
-4.56944e-05
-0.000310741
0.0740599
-8.25807e-05
0.263236
0.00491485
-0.0722055
0.00176453
0.0550669
-9.34743e-06
1.1863e-05
-0.323931
0.0181504
-2.02284e-05
-2.13758e-05
-0.216904
1.07768e-07
0.991951
2.80908e-05
-0.000316419
-6.42656e-08
0.000945429
-5.45115e-05
0.00038493
0.0394118
-4.08214e-07
0.00364097
-2.22382e-05
-8.83097e-05
8.75966e-06
-3.00262e-06
-1.60023e-05
0.000153704
0.173155
-8.78846e-05
-4.76157e-05
0.00175172
-7.35621e-05
0.000130008
-0.00011569
-4.15553e-07
0.000585863
6.81952e-06
-4.98962e-05
-6.40813e-06
0.0082036
6.8688e-05
0.00900809
3.10765e-06
-0.0168586
-4.17504e-05
2.44523e-05
2.1882e-06
-8.86905e-05
0.126329
-2.02244e-06
-0.317337
1.72312e-05
-1.23685e-05
-0.000145663
-0.206756
-0.00113079
-0.0700932
-0.0620411
1.12552e-05
1.07897e-05
-0.000372742
0.000563777
0.000727131
0.016677
-0.0257855
-9.76053e-05
-5.33479e-05
0.0018405
2.57309e-06
-9.12492e-06
1.29839e-05
5.80762e-06
-1.45355e-05
0.265603
0.000376009
-0.264566
1.00302e-05
-0.000545204
8.33256e-07
-5.17556e-06
9.16191e-07
-2.24942e-05
-0.000381132
-1.81142e-06
-6.00282e-05
-2.92066e-06
-2.95365e-05
0.00011852
-0.0603187
1.40724e-05
2.79233e-05
-0.013
0.000122913
-5.31631e-05
0.248757
-0.0171412
-6.46545e-06
-1.01836e-05
-0.00018112
0.000128131
-3.90195e-05
-1.22548e-05
-9.36952e-05
7.88408e-06
2.55399e-05
1.53085e-05
0.0610962
0.00170604
3.38893e-06
0.0683907
-0.000353689
-9.6849e-06
4.46432e-05
-8.31881e-05
0.00225952
-3.79297e-05
0.0799705
-7.76939e-06
1.44772e-05
0.00187758
7.46838e-07
0.00120946
0.125941
-0.000388777
-9.02871e-06
-0.176773
0.000133866
-7.00485e-06
-3.35496e-05
0.00152968
-3.36201e-06
-2.66774e-06
-5.14001e-05
9.31015e-06
-0.021551
0.00170043
-0.00017465
4.77241e-05
-3.51645e-05
-1.8319e-05
-5.74299e-05
-2.03495e-06
-8.61904e-05
-0.00118852
0.0024848
2.61788e-06
3.84747e-05
-0.307791
-4.24279e-05
0.0198552
-0.000865181
-2.17946e-06
0.00221756
-0.279059
-5.53886e-05
0.00250661
-4.78608e-06
0.190301
0.000101657
-0.175232
-5.69828e-05
2.32911e-05
1.97517e-05
-0.00273143
4.67704e-05
0.250284
-0.0190025
-0.426013
0.00124178
-0.615877
0.000727832
2.65432e-05
0.000879839
3.66016e-05
-0.0724064
-2.7865e-05
-0.0180041
-6.02898e-06
-0.0874028
-8.914e-06
-4.27336e-05
-1.50366e-06
0.00528257
-6.15556e-06
-9.72929e-06
-2.81404e-05
-0.000114022
0.000423749
-6.33924e-05
-4.61358e-05
-5.69605e-05
-6.55733e-05
-0.239673
-1.65914e-05
-0.0388648
1.08889
-1.1099e-05
-1.57753e-05
-0.000636657
-1.9462e-05
-1.09924e-05
-5.75551e-05
1.32112e-05
0.000103958
-3.46882e-05
-0.00010366
1.21898e-05
-9.76411e-05
-0.00012041
0.000107237
-6.06948e-05
-0.000199053
0.0383285
-2.93382e-05
-0.0815836
0.000308407
2.21965e-05
-4.07615e-05
-3.22603e-05
2.4533e-05
-4.85734e-05
-8.36624e-06
-6.36182e-06
1.3998e-06
-2.0564e-05
-3.82341e-06
-1.01442e-05
-0.000301581
-4.42716e-06
-4.43398e-05
7.71166e-06
-5.87098e-05
-0.000252435
-5.32229e-05
0.00103844
-7.83825e-06
-2.72929e-05
-4.11728e-05
3.3126e-06
1.41538e-06
6.95086e-07
4.71499e-06
-2.78534e-05
-3.44024e-05
-4.40491e-06
0.00114992
-9.10003e-06
-5.09411e-06
-1.37328e-05
-0.0161793
-2.98884e-05
-2.74865e-07
0.00196715
-1.06183e-06
3.47652e-05
0.00597232
-5.6441e-05
4.32164e-06
5.48546e-07
0.0020996
-3.19103e-05
0.0020386
-0.290276
0.110107
-0.0190153
2.4137e-05
-2.20481e-05
-0.0871552
4.5182e-05
-8.29958e-07
0.0423597
-0.0170037
-0.476295
-3.26168e-05
0.00206167
-2.74185e-05
4.98591e-06
0.480229
-1.21842e-05
0.054486
8.6362e-05
0.00129253
-1.72147e-05
-0.000165533
-9.70064e-05
0.00477083
-0.181188
4.28386e-05
0.000197403
0.000523246
-2.43277e-05
0.000147632
0.00205467
0.0172211
-4.87942e-05
0.00959928
2.52304e-05
0.068846
0.00382889
-0.0167176
0.00668521
-3.43698e-05
-0.000279944
-0.0223846
3.27688e-05
-3.32162e-05
-1.09439e-05
-5.12932e-05
-7.07238e-06
0.091315
-5.83944e-06
-0.0145152
3.84565e-05
0.080631
0.00223031
-5.78115e-05
0.020962
-0.114642
-5.34315e-05
-0.190743
0.000145251
0.00189112
-7.60934e-06
-2.1212e-06
-0.0487839
-6.27899e-06
-0.206026
-1.90016e-05
0.016751
-2.03068e-06
0.0864537
-0.0374906
-3.41206e-05
0.593391
-6.29634e-05
-2.83152e-05
0.00154424
1.15002
1.21221
1.5141e-05
8.25784e-07
-2.14762e-06
0.161767
-0.315371
-7.34313e-05
-6.02388e-05
0.0259914
-2.8311e-06
1.23296e-05
3.1672e-05
0.00736397
-6.64586e-05
1.27292e-05
-1.75503e-06
-3.55691e-05
-0.0198357
-0.482694
-0.0342657
-1.77267e-06
-3.34361e-05
-0.0276906
-4.51802e-05
-0.193185
0.00150271
-0.0105411
-0.133318
0.0173766
-2.11078e-05
-5.67237e-05
4.82413e-05
-2.53622e-05
0.000109693
-7.6004e-05
0.00211683
-0.106147
8.79664e-06
-0.0722018
-4.07451e-05
-0.202778
-5.711e-05
-0.0517106
-0.000394734
-1.38845e-05
-3.53141e-05
0.000154247
-0.0203866
-0.108985
0.00958178
-4.21468e-05
0.000762209
-3.32433e-05
-0.000221482
-0.000161888
0.0873377
-3.58592e-05
0.00182728
-3.09225e-05
0.00057479
3.04396e-05
-4.29156e-06
3.22874e-06
-3.41601e-05
-0.88137
-1.39466e-05
-0.000194176
-6.73637e-06
-4.01237e-06
-6.95915e-06
0.00119367
-7.54474e-06
-2.92361e-05
1.62173e-06
-2.21097e-05
0.00377001
-1.46207e-05
0.00776415
5.23277e-06
-0.00715537
-9.20776e-07
-0.0175929
-7.74948e-06
0.128143
-2.44599e-05
9.34694e-06
-3.59256e-05
-0.0298116
0.0157414
-0.221065
0.011151
-0.0617237
-6.04744e-06
2.97167e-07
-0.00359633
-6.73459e-06
-0.0554426
-0.0917132
0.00102199
0.0112995
-0.000200115
-0.0163163
0.000196743
0.032201
0.00731599
-0.000190648
-3.8092e-05
-0.00374758
-0.425402
-4.58397e-05
-0.00030212
-3.91529e-05
-8.51949e-06
0.00121386
1.5398e-06
5.25854e-06
-1.06993e-05
-0.111731
0.00141458
-4.37948e-05
0.134059
-3.6122e-05
-3.11914e-06
-0.0959289
0.168982
0.00114878
-0.000110222
-0.0488794
5.28282e-07
-6.38097e-06
-0.0221596
-6.43195e-06
-0.000194402
-0.0367547
-0.0370382
-5.35932e-05
-0.150036
-0.039741
-0.00229541
-0.254292
0.0577725
-2.86228e-05
-0.0106442
-4.31794e-05
-3.85264e-05
-5.93061e-05
-7.56215e-06
-6.56537e-05
0.101483
-9.47384e-06
-0.0151957
-2.08903e-05
-0.000449912
-6.99938e-05
0.00125254
0.000144483
-9.02507e-06
0.00146632
-1.82405e-05
-9.55443e-06
-0.008005
-0.000904268
0.000599711
-4.28843e-05
-3.17329e-06
-0.00193693
1.38166
-0.00165019
1.54452e-06
9.4939e-07
-8.37842e-05
-5.538e-05
-0.0874479
0.0038039
-0.238741
0.000929656
-0.0834926
-2.55243e-06
-0.000608221
-4.53667e-05
5.42949e-05
-0.0247884
-3.36214e-05
1.07475e-05
0.227396
0.00127739
0.153049
-5.47886e-05
0.0523074
0.00411132
-1.23002e-05
0.00151288
7.06803e-05
-0.0563159
2.46313e-05
0.000242201
0.0176716
0.000355906
-4.53006e-05
-0.0559666
-3.842e-05
1.20816e-05
-3.07726e-05
-0.0158328
-5.10009e-05
0.000334023
-0.202418
0.00143581
-0.000466363
0.000798092
0.0476105
-0.022943
0.0716502
-1.04393e-05
-3.06407e-05
-3.30327e-05
0.000274118
8.814e-07
-0.0581388
0.00115815
7.35023e-05
-0.124615
-0.0963455
-0.0201946
-2.86802e-05
0.0144488
-4.54356e-05
-0.0354054
0.00197877
-6.57136e-06
1.16037
-0.0417313
-4.07815e-05
-4.38485e-05
1.63678e-05
0.0167617
-0.126952
-0.00012042
5.06432e-05
-0.0234965
0.0236425
0.0942649
-0.0306254
4.35265e-06
2.85951e-05
0.0668458
0.277527
-4.66986e-05
-3.10659e-05
1.28102e-05
-5.49836e-05
-3.88413e-05
0.000264529
1.05417
-5.59907e-05
0.000164886
0.405736
-2.0282e-05
-4.30139e-06
-0.000396774
-0.0485431
-4.861e-05
-0.000198417
0.0809779
-5.42228e-05
-5.31954e-06
-6.14312e-05
-2.00768e-05
-0.000186962
-0.028365
-0.0209477
-5.27559e-05
0.0858645
-5.57772e-05
-0.0461025
1.23897e-07
4.94626e-05
-0.000162536
-5.23331e-05
0.00809225
6.30027e-05
-2.91754e-06
-0.000149347
-9.61568e-06
2.34234e-05
0.000374775
-4.0629e-05
0.000449234
-3.38362e-05
-1.86406e-05
-0.154772
-4.3737e-05
0.292232
0.000599821
-1.32712e-05
0.0911853
-3.09828e-05
0.00105069
0.00261153
-1.02933e-05
-0.205185
-1.78143e-05
1.28748e-05
-0.293774
0.357686
-1.20931e-05
-5.60802e-05
-1.92318e-05
-5.46227e-05
0.00196989
-0.00011547
3.79814e-06
-5.22227e-06
-8.31873e-06
-4.66833e-05
-6.37494e-05
2.53307e-07
-1.74558e-05
-3.68962e-05
-0.00331452
-0.00033566
5.67871e-08
0.00153791
-4.3632e-05
0.298332
-0.0754954
0.00104627
-4.71262e-05
-2.85588e-05
0.00209371
-0.000250331
9.34696e-06
-4.53072e-05
-0.00881507
-0.00369934
-1.7745e-05
1.81863e-07
0.00199695
0.000505135
-5.13772e-09
0.0238765
0.00134462
-2.88884e-05
-9.13161e-05
0.00396033
-6.64277e-05
-0.000708861
-0.0229857
-3.3665e-06
-0.0049372
0.00516796
0.00553815
9.42272e-07
-2.68632e-05
-4.0384e-06
-1.60183e-06
0.0010009
-2.40682e-05
-0.00637011
0.000226884
-3.61615e-06
-5.98304e-05
0.00192888
-1.76852e-06
-3.91978e-05
-0.00016648
-1.95439e-06
0.0664312
-1.74196e-06
-2.61119e-05
-0.058501
8.43166e-05
-8.08198e-05
-2.60524e-05
-4.59132e-05
-7.86588e-05
-5.11844e-05
1.82523e-05
-0.00154751
-1.42836e-08
-0.0261401
-0.240676
1.20308e-06
-2.6555e-05
2.78187e-07
0.000485372
9.72933e-06
-0.000394864
-6.05537e-05
-7.71055e-06
-7.06509e-05
3.65414e-06
0.000734661
-4.65722e-05
1.02094e-05
-0.00544849
-0.0940589
-3.49898e-05
-4.88999e-05
4.85136e-06
-0.28673
-0.109271
-0.000102312
-0.00103267
0.184076
-1.22431e-05
-0.0197356
0.00111887
-0.000224439
-0.0294691
-0.00059778
-0.00321105
-3.7756e-05
-3.06721e-05
0.00134566
3.90956e-07
-0.0107531
0.153375
4.24576e-05
0.70433
1.49213
4.37746e-05
-0.0172234
4.00424e-06
0.000405219
0.000657806
-5.25948e-06
0.00687804
4.0227e-06
0.0015611
-0.00697704
2.50011e-06
-0.257357
-4.06672e-05
-3.87962e-05
0.0011079
9.11474e-05
0.0274219
0.14699
-7.25937e-06
6.86737e-05
0.0572384
-3.29142e-05
0.000223783
-3.731e-05
-0.0161658
-0.0184358
8.11799e-05
6.62324e-06
0.000229422
0.027424
-0.00330168
0.000647713
2.5888e-06
-1.33227e-05
-0.0481628
-0.111547
-0.28524
-0.000258228
-0.000247252
0.00035775
2.47649e-06
1.78913e-05
-1.86744e-05
-0.000200741
1.70554e-05
-4.17804e-05
0.0596342
0.140843
-3.04586e-06
0.00432716
-0.000336269
0.0737822
0.73801
-0.000138682
0.0152785
0.124905
4.01541e-06
0.00169521
0.00122358
-0.0749777
-0.000690031
-7.47673e-05
0.0023507
0.0446898
0.0010526
-0.000298679
0.00353504
-0.0448126
-2.78962e-05
0.000307706
0.000188668
-6.35324e-05
0.00168372
1.12713e-05
-8.38289e-07
-2.35591e-05
2.09671e-06
-2.05711e-05
-2.18e-05
-0.000225999
0.000375357
-0.134834
-4.18076e-06
0.0285947
-3.91336e-05
0.000481324
-8.06695e-05
-2.08555
-0.141774
-3.40409e-05
0.0014073
1.79936e-05
-1.4893e-05
-0.000106781
3.27865e-06
-2.60883e-05
0.00125609
-8.11462e-05
-0.102804
-3.34434e-05
-5.38433e-06
0.0652854
1.10853e-06
-3.63946e-05
-8.71675e-06
-7.5531e-05
-0.135533
0.00196519
0.20629
0.00505793
-0.0541632
-6.28721e-05
-1.89365e-05
7.84896e-06
0.000147785
-0.000817281
0.00195404
0.342339
-2.56379e-05
0.00127626
-2.64988e-05
-0.140941
0.106528
0.000224908
0.570787
0.64116
2.79421e-05
0.000703585
-1.93623e-06
0.00172376
0.000122005
0.00225254
0.00167819
4.66561e-06
1.32826
-0.0313071
-5.58464e-05
2.57086e-05
-5.75161e-05
0.00695219
-6.208e-05
-2.18354e-05
0.0513246
-2.05805e-05
0.922797
0.000158145
-0.000124586
-1.6132e-05
-2.51914e-05
-0.0299226
-5.58164e-06
-0.00283986
0.000191378
-3.0564e-05
-3.30694e-05
-0.00151114
-0.00017327
-0.139253
0.000108727
1.02473e-05
-0.000368416
-0.00121795
3.81955e-05
-5.65567e-05
0.0058106
-2.13811e-05
2.01597e-05
0.0313903
0.007109
-4.93809e-05
-3.35646e-07
7.36896e-05
-0.181712
-0.00494358
-1.44295e-05
0.00661486
-8.86678e-05
-0.0171422
0.00216203
-6.70608e-05
-2.17191e-05
0.00284435
-1.10385e-05
-3.0318e-05
-1.53755e-05
0.00210638
0.35186
-0.00135323
-2.59414e-05
-1.87208e-05
-3.93304e-05
0.0169622
0.00156503
-8.14195e-06
-1.81728e-05
-6.55916e-05
0.00146667
-0.0113445
-0.61666
-2.83638e-05
0.00254273
-1.28933e-05
1.46112e-06
2.6263e-05
-5.4098e-05
0.00121034
1.33836e-05
0.00188155
0.0129671
1.57145
0.00014857
-5.12265e-05
-7.02825e-05
0.00112997
-8.32833e-06
-1.15716e-05
-0.00049568
-4.73276e-05
-6.16193e-06
-0.000118449
-5.44137e-05
4.43448e-06
0.517285
0.00165142
1.83765e-05
5.91821e-05
-0.00171344
3.05639e-05
0.0452625
-6.08408e-05
-9.25925e-05
-2.69659e-05
-5.58442e-05
-1.4381e-05
1.9026e-05
0.01591
-0.0101516
-7.06271e-05
-6.395e-07
-3.96099e-05
5.74281e-05
-0.000246101
0.00146325
-4.63831e-05
0.0212279
-0.000102103
-9.25394e-05
9.76004e-06
0.00128478
-2.0715e-06
-0.00154542
-8.38135e-06
-4.65882e-05
6.30613e-07
0.0499794
-2.89765e-06
0.0159725
-0.146444
-9.44037e-05
-2.01354e-06
-3.1144e-05
-4.00302e-05
-0.00116149
-6.60997e-05
0.000235456
0.162758
-9.17475e-05
-0.0046497
-1.169
3.32812e-06
0.00204226
-3.60471e-05
6.01774e-05
-1.3085e-05
-3.00357e-06
-1.33911e-05
-3.95378e-05
0.0341037
0.00135457
-1.68919e-05
0.472633
0.0570213
-2.25193e-05
0.339952
-5.47573e-06
-0.000538611
-1.40744e-05
9.885e-06
-0.322519
-3.46929e-05
6.74148e-06
-0.000295826
0.00412673
0.00223351
-8.57003e-05
-4.82339e-06
-0.000189632
0.426582
-0.317808
0.00142174
0.000415132
-4.41826e-05
-4.57486e-05
0.0194635
-1.50596e-05
0.000647834
-0.00174772
0.0354878
-4.13256e-05
0.00133084
-3.12594e-05
-9.48656e-05
-0.000704805
0.000907659
-0.000441977
-1.57861e-05
-5.63207e-05
0.000317976
0.13977
0.00146074
1.14163e-05
0.000323866
0.00175944
-6.18471e-07
0.00131535
-7.53952e-05
-7.59708e-05
-1.73111e-06
0.00570236
-0.0358094
-0.000893077
-1.46303e-05
-0.348604
1.861e-05
0.000414749
-2.49048e-05
-4.47265e-05
2.1735e-05
-1.88603e-05
-0.0021035
0.000301023
-0.00012394
-4.26951e-05
-1.92261e-05
-4.48621e-05
-0.000276816
4.92464e-05
-5.26611e-05
-7.34436e-05
0.123996
-0.436252
-1.50159e-05
-1.07057e-05
-6.45443e-06
0.0112345
-9.77639e-05
-0.130529
-4.19965e-05
-0.00215685
-4.22843e-05
-4.09799e-05
0.00108071
-7.87288e-05
0.00110992
-2.0628e-05
-0.000106371
-2.71757e-06
-0.000222444
0.00371152
-4.37947e-05
-4.83724e-05
-0.0016741
-3.56557e-05
-0.000142154
-3.23102e-05
-3.61322e-05
-4.82474e-05
-8.59779e-05
0.0480758
-3.06885e-05
-1.95324e-05
1.72872e-05
-0.0463707
2.26129e-05
-0.000293382
-3.03441e-05
-4.20098e-05
-0.0529494
-0.0335048
0.0440687
0.000444222
-0.00071997
-0.00539878
-3.35551e-05
0.0525524
3.40635e-05
0.00186202
-1.49989e-05
0.0301757
-0.14387
1.14611e-06
-0.000232938
0.000208568
-0.000141029
-1.23285e-05
-0.0203978
-1.31815e-05
0.0118991
-7.16481e-05
-1.89514e-05
-7.95537e-05
6.18952e-06
-9.4529e-05
-0.00319971
-2.13052e-05
-3.7313e-06
4.01177e-06
-4.69646e-05
-3.39164e-05
-0.309535
-0.0842799
-0.0389088
-3.51385e-05
-3.19168e-05
0.00011613
1.9437e-05
7.96253e-06
0.00138012
0.00152915
6.63394e-05
-9.14261e-07
-0.291307
-0.000144632
0.0378815
-0.00103795
-0.000257066
-1.3185e-05
-1.28465e-05
0.000764771
0.177131
1.95394e-05
-2.41763e-05
0.0114103
0.0020485
0.00173415
-0.134683
2.77463e-05
-6.92297e-05
1.9012e-06
-6.0398e-06
-4.16447e-05
-0.0463808
-0.0179195
0.801644
-9.26684e-05
0.0122592
-7.55709e-05
-3.58576e-05
-4.2281e-05
-6.58041e-05
-1.83746e-05
-0.00439467
-2.66914e-05
-6.47206e-05
-6.0581e-05
-1.60186e-05
-9.21555e-07
-5.12606e-06
-4.56512e-05
0.0127313
0.000462104
1.09297e-06
2.66438e-07
-1.32786e-05
-3.48674e-05
1.29596e-06
0.0133408
-5.32528e-05
-3.82479e-05
-4.78007e-05
0.0333511
-6.21136e-05
-0.000184892
-0.399383
-4.43282e-05
1.28453e-05
-0.503441
-3.473e-05
1.38285e-05
-8.74501e-05
-0.144846
0.00134369
0.00047044
-7.84931e-05
0.496226
-1.45872e-05
6.14318e-06
1.10059e-05
-5.90185e-06
-0.000409659
-8.97909e-05
-2.91967e-05
0.00168683
-5.97194e-05
0.000524428
-0.000105237
0.000598176
4.75023e-06
-0.261276
0.000770817
-1.49814e-05
-9.2502e-06
-6.61958e-06
-8.06864e-05
2.09171e-06
-0.0151173
-1.06023e-05
0.00106746
-3.07762e-05
6.8898e-05
-0.709042
-4.35493e-05
1.35936
0.00206782
1.76331e-05
0.0873495
-1.78082e-05
-8.86198e-05
-5.52041e-05
-7.33783e-05
-3.00207e-05
-5.04631e-05
-4.54552e-05
-4.59523e-05
0.0329276
-4.91786e-05
-1.58151e-05
-3.78216e-05
-2.55594e-05
-3.97743e-05
-3.75765e-05
-1.10664e-05
1.10746e-05
-6.53664e-05
-3.63059e-05
4.29717e-05
-6.6325e-06
-9.51548e-05
-0.17687
-9.74181e-06
-4.45279e-05
-0.0161237
0.00759595
8.71763e-05
0.000144256
1.21364e-05
-5.2939e-05
1.33234e-05
1.4172e-05
-0.121029
0.00762579
-4.11589e-05
-0.000194033
0.0268935
-3.8693e-05
-0.00860465
0.0940581
-3.33389e-06
-0.783674
-4.24604e-05
0.0215113
-0.000313011
-0.0206842
-0.128277
0.0751806
3.58398e-05
-2.21614e-05
1.39564e-05
-0.000374464
-0.000292402
-0.000173119
-0.0269536
0.0212814
-0.000113624
0.043997
0.0306238
1.72729e-05
9.39902e-06
-0.000707712
-0.000505433
-6.28468e-05
-6.50006e-05
-1.97596e-05
-2.53961e-05
-8.40246e-05
1.23213e-05
-4.28796e-05
-1.28514e-05
0.180859
-1.65606e-05
-3.76983e-05
-2.51567e-05
0.00684988
-5.32117e-05
-4.97141e-06
0.0160377
0.0942537
-0.012562
-3.89444e-05
-5.6913e-05
-4.55611e-05
0.0011913
4.13083e-05
-0.00010551
0.00631414
-6.60978e-05
-0.00339238
3.27202e-06
0.0501748
-0.000245679
0.00228743
0.002867
-0.0205231
-5.82326e-05
2.89275e-05
-1.45819e-05
-0.540897
-2.70811e-05
-2.109e-05
-6.69505e-05
-0.000738952
1.06349
0.01091
4.05634e-05
-0.000945015
-0.00518425
0.0010185
0.0410223
-0.0135498
0.0131882
0.0014272
-0.0224577
0.000696951
-2.57586e-05
-2.8256e-05
-4.3687e-05
0.0181346
-0.000892294
0.0240757
5.60374e-07
-2.44236e-05
-5.61811e-05
0.000592918
-3.73386e-05
-5.65028e-05
-4.49298e-05
0.000682359
-7.20836e-06
-6.24275e-06
-6.15152e-06
-0.000221786
0.403291
-0.000612101
-0.000165046
1.09461e-05
-1.63128
-0.000310647
-2.51841e-05
-4.59637e-05
0.00232365
-0.131257
-3.33503e-05
-4.93349e-05
-0.11905
-3.70608e-05
-5.27651e-05
-1.30151e-05
1.65097e-05
-0.0575846
5.08861e-05
-2.81961e-05
-9.18587e-07
-3.51429e-05
-7.38813e-05
-3.21036e-05
-1.9597e-05
-2.96291e-05
-5.98809e-06
-0.00882571
1.352e-05
1.09533e-05
-0.0429551
-0.00245002
-0.000117885
0.00152095
-2.09964e-05
-0.218605
-8.05182e-05
0.000567192
-1.184e-05
-0.183765
-2.4649e-05
-5.06261e-05
7.09651e-06
-0.161949
1.73449e-05
-4.93648e-05
0.585324
-5.48464e-05
3.21448e-06
-3.78338e-05
-0.000125139
0.000464013
-1.22721e-05
-0.0552054
-1.39609e-05
0.00490138
0.000339501
-1.67975e-05
0.00100403
2.39524e-05
-1.43007e-05
-5.56011e-05
0.665183
0.000142577
0.000503043
-0.00306132
-0.168189
0.000481242
0.00909102
-4.573e-05
-6.41972e-05
6.44915e-06
0.00246441
-0.131506
3.2973e-05
-0.000799661
-3.15837e-06
-4.59806e-05
0.23623
2.19463e-06
-4.85231e-05
-0.232871
0.0155434
-0.139314
-5.53632e-06
-5.22298e-05
0.00520149
-1.24027e-05
1.52325e-05
0.418026
-5.35446e-05
0.00599092
0.573291
-0.213331
-4.12957e-05
-0.000116644
7.71441e-06
-3.41345e-06
0.000208953
-9.09758e-05
2.92681e-05
-0.000785927
-1.85517e-05
0.00484131
-8.01232e-06
-0.000141676
-4.28201e-06
-0.153565
-3.43509e-05
2.67087e-05
0.00552557
-0.0239463
-5.62416e-05
-0.116407
1.73174e-05
-4.9085e-05
-1.45703e-05
1.04604e-05
2.45636e-06
-0.000701754
-0.0499647
-3.33059e-05
4.93385e-05
1.95233e-05
4.2906e-08
-2.82222e-05
-4.12299e-05
-6.77737e-05
-3.74572e-05
4.08343e-05
3.436e-05
1.21441e-05
0.0104009
4.87493e-05
5.61937e-05
0.000401447
6.25455e-05
-1.7524e-05
0.0107343
0.0520687
0.143823
-0.136894
0.00196939
-4.74794e-06
-8.96081e-05
0.0429564
-0.36753
-0.0863167
-0.0104324
0.00337315
-1.22917e-05
0.0111228
-0.111258
-3.38974e-05
-0.00343023
-9.64881e-05
-0.14516
0.0568803
0.773563
-7.46114e-05
2.64214e-05
0.00028726
-2.89588e-05
-1.5646e-05
0.0538547
-0.0179255
6.1586e-06
-4.05749e-05
1.90162e-05
1.17145
-2.33616e-05
-1.69364e-05
-6.41092e-05
3.63922e-05
-5.29485e-05
0.0115367
-3.75472e-05
-9.08317e-06
-1.91402e-05
-0.000575499
0.128536
-0.0933655
-5.70095e-05
-2.37495e-05
-0.000222498
-3.54995e-05
-2.06869e-05
-1.34439e-05
0.187744
-5.65528e-05
0.00114316
-8.54805e-06
2.76557e-05
-4.74956e-06
-4.81501e-05
0.146657
0.101008
-1.43013e-06
6.5619e-05
0.0083433
0.259587
0.00916765
-0.203933
-6.58468e-06
-0.00058879
-4.75389e-05
-5.10723e-07
-2.29571e-05
1.13118e-06
-2.78313e-05
-2.17723e-05
-2.75417e-05
0.106897
-6.86196e-06
0.143075
-0.132769
1.59603e-05
7.94014e-05
0.00214208
-8.29217e-05
-3.85322e-06
-8.07294e-05
-6.00043e-06
2.1278e-05
-0.0157713
6.18085e-06
-1.80044e-07
0.142167
-4.65112e-05
1.46747e-05
2.41832e-05
-0.0677572
-5.68746e-05
-3.6079e-05
-0.0843135
-3.1984e-05
-6.73135e-06
-2.27248e-05
0.00499431
-2.68535e-05
-2.15787e-06
-4.91097e-05
-7.34931e-06
0.101084
-0.0664783
-4.66011e-05
0.0489715
3.46897e-06
-2.94159e-05
-1.11599e-05
-0.117526
-0.139712
4.86986e-06
4.83818e-05
2.71612e-05
-4.36443e-05
-2.29253e-05
-9.67616e-06
-0.0141627
-0.00731433
-3.69695e-05
-9.86561e-05
0.000463088
1.91489e-05
-1.59539e-05
1.99714e-06
-0.000697868
-0.0606913
-3.86467e-05
-0.000268751
0.0183458
-6.40066e-05
4.61007e-05
-0.552056
0.129444
2.05827e-06
-1.93269e-05
-2.78778e-05
-6.51217e-06
-1.11856e-05
0.0301062
-2.82656e-05
0.0361546
0.0986421
-3.27744e-05
3.64173e-06
0.0191355
-8.39792e-05
0.106004
-0.0313532
-0.0826547
-0.000226932
-2.58609e-05
3.60466e-06
-0.0489093
-2.60347e-05
0.00139835
-1.54412e-05
7.92385e-06
-1.39484e-06
4.49215e-06
-5.78281e-05
0.410604
-1.27868e-05
0.166636
0.116304
0.00197191
0.0407596
1.97724e-06
2.17027e-05
2.20675e-07
0.0910889
-2.28506e-05
-0.272987
0.00339724
6.81573e-06
-3.19834e-05
0.0138615
-1.39099e-05
0.00408602
0.00684356
-5.11198e-05
-0.0179315
-9.33539e-05
-0.00950226
0.0864348
-3.22736e-05
-1.3009e-06
0.00136934
-0.0225447
-3.84741e-05
-0.000130162
-7.94038e-06
0.000235603
-2.37742e-05
-0.00570441
9.65313e-06
5.17333e-05
-0.0170654
5.40788e-06
-0.00797889
-2.06749e-05
-2.88344e-05
2.21415e-05
0.00956539
-1.53978e-05
-1.27786e-05
-0.634848
0.114439
-0.0124711
-4.5737e-05
2.15024e-06
-0.00280906
-0.131511
0.0541896
0.000422777
4.99278e-05
-5.39461e-05
-3.78125e-05
-5.65483e-06
-2.91106e-05
-9.44524e-05
3.72005e-06
-5.81268e-06
0.000962578
-2.88252e-05
-2.07746e-05
-1.49308e-06
-4.43482e-05
-4.91598e-06
-3.68952e-06
-0.000181597
0.0802844
-0.565218
0.00231553
-1.44585
-0.00732925
-2.30577e-06
-3.33405e-05
-9.82253e-05
0.000649252
1.30186e-06
-5.21669e-05
-2.59867e-05
6.40937e-06
-4.04197e-05
0.00203656
-1.27007e-05
0.00634915
-5.61777e-05
1.47894e-05
0.0145294
-0.000682575
-5.43597e-05
6.18273e-06
-1.7542e-05
-0.0171684
-0.179792
-4.22649e-05
-1.55404e-05
-8.90171e-05
-1.87793e-05
-2.49074e-05
-2.74033e-05
0.00293006
3.55186e-05
-2.01404e-05
-0.132286
4.85124e-06
0.00224687
3.99707e-05
-4.08892e-05
-3.08104e-05
-0.0672319
0.0125622
-0.181011
-0.629209
-5.34432e-07
1.02941e-05
-2.08138e-05
-0.000111345
0.00753729
-1.52223e-05
-0.0109613
-0.136423
-0.000154393
0.00535877
-0.00809175
-5.7345e-06
0.10741
-6.55781e-05
0.434722
-0.000235115
-3.16415e-05
-2.58075e-05
-8.49057e-05
-2.62364e-05
0.0279164
-0.104044
0.00451417
-9.06933e-06
1.01884e-05
-1.95512e-05
0.0437378
-4.59998e-05
-0.0116028
-1.47265e-05
-3.25435e-05
0.00227015
1.76132e-05
-0.17715
0.0224862
-2.42507e-05
8.71543e-06
1.64127e-07
2.76531e-06
-0.000798237
-0.093408
-2.09417e-05
-2.70707e-05
-5.97228e-06
0.0224074
-9.35942e-06
9.96117e-05
0.00251556
0.00336121
0.61902
0.0589576
0.186726
-5.04049e-05
0.000449762
-5.94628e-05
-1.91577e-05
3.4943e-06
0.00871767
8.31377e-06
-1.42555e-05
0.0041337
-4.60172e-05
-1.27118e-05
-0.025456
5.89829e-06
6.33279e-06
0.000344082
-0.0348391
4.4542e-06
-1.38118e-05
0.00127013
-0.0325623
-0.000270409
0.065951
-7.10557e-05
-0.0160121
2.02687e-05
0.00685796
0.0126684
0.825902
0.00574559
-0.000661155
-0.0574321
0.0206588
-0.0086381
-7.65916e-07
-2.88387e-05
-4.30583e-06
-7.51367e-05
-0.0338715
-4.87564e-05
0.000906864
4.89535e-05
-1.5989e-05
-3.34521e-05
-0.0301132
-6.54696e-05
0.0521977
-7.82441e-05
-0.000366067
-0.00113501
0.00734455
0.014686
1.00702e-07
-0.000514631
-5.11693e-05
0.0269401
-6.01628e-06
-0.0078122
-0.181656
-2.83196e-05
0.471325
-2.73511e-05
0.0417899
1.56178e-05
-5.11841e-05
-1.02818e-05
-0.0545914
3.55841e-05
-1.54353e-06
-5.44281e-05
0.0627823
-4.06121e-05
0.00100811
0.00217833
-0.000102618
0.0132643
-5.65931e-05
8.27014e-06
0.0282071
0.000521695
-0.0173656
-0.0618038
1.37495e-05
-0.00137064
-0.0286925
-0.000885863
-2.44306e-05
0.00119789
-0.000691593
-3.13475e-05
0.000350727
6.16165e-07
0.0410445
-0.126247
0.0243583
0.00527094
-2.82842e-05
-3.23581e-05
-6.92858e-05
-1.11784e-05
0.000293136
4.07188e-05
-5.66496e-05
-1.17624e-06
-0.00294965
1.41653e-05
-3.05551e-05
-0.000166956
-0.160487
0.0409283
0.000266066
-0.000605464
-0.000843679
-0.228204
-2.75732e-05
0.0975791
-8.00361e-05
0.00137832
-1.01896
1.03766e-06
0.442816
1.71282e-05
6.12828e-06
-2.77804e-05
-1.94284e-05
-1.52314e-06
-1.06369e-05
-3.10391e-06
0.127842
3.55489e-05
-2.868e-05
0.0175665
-1.55509e-05
-2.18422e-05
-2.35501e-05
-0.107484
-3.49507e-05
-0.000194662
-0.00236019
0.0169956
-4.58317e-05
6.30204e-07
-0.135106
-4.89003e-05
0.0938761
0.055106
-2.03093e-05
-5.67109e-05
-0.00333581
-0.140748
-0.116615
-7.9772e-06
-3.0023e-05
3.24466e-05
-0.0002458
1.57647e-05
0.0462011
0.00126859
8.9201e-05
-2.03323e-05
-4.76922e-05
-9.71715e-05
-0.00608461
-0.0374135
-1.25028e-06
0.168112
-0.00872362
4.57695e-05
-2.37772e-05
6.29064e-06
-5.71821e-06
-3.67124e-05
-3.09561e-05
-4.9992e-05
-1.46084e-05
-0.0650519
-3.34137e-05
-2.88411e-05
3.10663e-05
0.000267551
-1.12612e-05
-2.01271e-05
0.0984816
6.34988e-05
-0.000988971
-5.8519e-06
1.5116e-06
-3.49973e-06
9.62053e-07