/*--------------------------------*- C++ -*----------------------------------*\
| =========                 |                                                 |
| \\      /  F ield         | OpenFOAM: The Open Source CFD Toolbox           |
|  \\    /   O peration     | Version:  v2012                                 |
|   \\  /    A nd           | Website:  www.openfoam.com                      |
|    \\/     M anipulation  |                                                 |
\*---------------------------------------------------------------------------*/
FoamFile
{
    version     2.0;
    format      ascii;
    class       surfaceScalarField;
    location    "900";
    object      meshPhi;
}
// * * * * * * * * * * * * * * * * * * * * * * * * * * * * * * * * * * * * * //

dimensions      [0 3 -1 0 0 0 0];
oriented        oriented;


internalField   nonuniform List<scalar> 
14516
(
-0.00107464
-0.00322816
0.00428475
-1.72837e-06
-6.64574e-05
6.70326e-05
0.00360522
-0.00469974
0.00128005
-0.00174997
0.000293035
0.00650598
-0.00454917
-0.00196729
-0.00528418
0.000658875
0.00457165
0.000371842
-3.31473e-05
-0.00049835
-0.0031342
0.00275617
0.000276435
0.00466854
0.0004638
-0.00518546
0.00269495
0.00379895
0.00380074
-0.00475808
0.000945301
0.0045866
-0.000341328
-0.00425965
0.00127899
-0.0002128
-5.6806e-05
-0.000875081
0.000914071
-8.30938e-05
-5.79661e-05
-0.00085113
-1.83491e-05
0.000849569
-0.00308438
0.00104227
0.00200213
-0.00107319
-0.0020555
0.00554496
-0.000556595
-0.00500148
-0.000926335
-0.00042087
-0.00479655
0.00520041
0.00052549
-0.00439334
0.00384587
0.00216101
-0.000733043
-0.00143756
-2.44838e-05
2.44838e-05
0.00456762
-0.000620042
-0.00400664
0.000812908
0.000246939
0.000794025
6.82698e-06
-0.000820355
-6.82148e-05
-0.00216913
0.00219371
-0.00543348
0.00181652
0.00360014
0.00498447
-0.000371623
0.00455122
-0.00544323
0.000862968
0.000420982
0.00172121
0.00331755
-0.000700503
-0.00262867
-7.46057e-05
-7.14861e-05
9.59499e-05
0.00200446
-0.00616272
0.00414299
0.00552937
-0.000616564
-0.00492924
5.16143e-06
0.000241572
-0.00395453
0.00445718
0.00362485
-0.00278268
-0.000932877
-6.26912e-05
0.000316505
-0.000318456
0.00581812
-0.00130163
-0.000280194
5.80995e-05
0.000494117
-0.000853447
0.000156441
-4.24823e-05
0.000364464
-0.000468295
0.000494219
-0.000251671
-0.000216449
-0.0034411
0.000129925
-0.00139463
0.00125473
-0.000679797
-0.00448883
0.00515579
-0.000473413
-0.00143222
-0.00283296
-0.00334496
7.30043e-05
-0.00385024
0.00376695
0.00532611
-0.00127897
-0.0040857
-0.00551625
0.00566937
-0.000219251
0.000555579
-0.00349029
0.00292704
0.00524276
-0.00541957
0.000160357
-0.00366238
0.00384625
-0.00447053
0.00114424
0.0033192
0.0045756
0.000162144
-0.00475075
0.00239842
0.00116458
5.68583e-06
0.0001637
-0.000233682
0.0050582
-0.000807216
-0.00428814
0.00428734
-0.00489987
0.000600804
0.000508678
-0.00126735
0.000451798
0.00360798
0.00192092
-0.00040634
-0.00300923
0.00340173
0.00534999
-0.00107905
-0.00464107
0.00515947
-0.000532644
0.00061656
0.00395369
-0.000303352
0.00409208
-0.00348491
0.00403191
6.82513e-06
0
-7.87704e-06
0.0045716
-0.000838479
-0.00381764
-0.000126195
0.000108501
1.71017e-05
0.00129589
-0.00414409
-9.90249e-05
0.00466077
-0.0005163
-0.00387558
0.00428468
6.04389e-05
-3.53638e-09
-6.06987e-05
-0.00277745
0.000675866
0.00207091
-0.00333119
0.0010322
0.00225006
-0.0027978
0.00237905
-0.00313544
0.000722546
0.00237036
7.34623e-05
6.42958e-07
-7.42032e-05
-1.71222e-05
-0.00139888
0.00140043
0.00534368
0.000438676
0.00010161
-0.00136048
0.00124675
-0.00234622
-0.00102702
9.47795e-06
-0.00415573
0.00404969
-0.00456214
0.00471856
-0.000207823
0.00340528
-0.000778198
-0.00267326
-9.74045e-05
9.46502e-05
-0.000482405
-0.0041218
0.00459746
0.00134714
-0.00109732
-0.000279458
0.00216175
-0.00175841
0.000456811
-0.00145387
0.0014212
0.00534363
-0.00011476
6.78571e-05
4.43914e-06
0.000382791
0.000932892
0.000205185
-0.000910043
0.000675745
-0.00077374
0.000946768
0.00339366
-0.000617696
-0.0028258
0.00150116
-0.000320354
-0.00122603
0.00113675
0.000317093
5.42738e-05
3.05186e-06
0.00570057
-0.000390046
0.0054312
-0.000753694
0.000223334
-3.79528e-06
-0.000301018
0.00440804
0.000868288
-0.000236432
-0.00108306
0.00131318
2.83367e-08
4.49205e-06
0.000192751
0.00488368
-0.0050893
0.00480627
-0.00401733
-0.00125781
0.00623175
-0.00499248
0.00370442
-0.00364136
-0.00428313
0.000469488
-0.00291579
0.00243469
-0.00277964
0.00406005
-0.000552921
-0.00262459
0.00179115
0.000347857
0.000935229
-0.00117693
-3.30925e-06
6.84711e-07
8.59982e-07
0.00401767
-0.00427318
0.000134287
-0.000183102
-0.00514541
-0.000226828
-0.00421181
0.00439908
-0.00517589
0.00473804
-0.0040815
0.000969618
0.00309965
0.00136904
-0.0012793
-0.000447648
-0.0023622
-0.00478647
0.00117828
0.00349976
1.71166e-06
7.90247e-06
-1.49315e-05
-0.00395739
-0.0023795
-0.00248515
-0.000345711
-0.00305368
0.00335491
0.00388502
0.00103706
0.000175384
-0.0043031
0.00403544
0.000587812
-0.00037262
0.000314384
-0.000499084
0.000486445
0.00412579
0.000171547
-0.000190588
-2.70954e-06
2.38034e-05
0.00388233
0.00464512
-0.000456602
-0.00424877
4.07253e-05
-0.000884846
0.000678134
-0.000195166
0.00086669
-0.000694027
-0.000929275
3.63354e-05
6.9603e-05
0.000905705
-0.000993345
1.20496e-06
1.96024e-05
-2.29329e-05
0.000832181
-0.00105353
0.00160742
-0.000462981
-0.00118426
0.00365083
-0.00413925
0.00395178
0.000906299
-0.00486672
-1.7746e-05
1.37693e-05
0.00510988
-0.00116823
-0.00198528
0.00466811
0.000426907
0.00113811
-2.78491e-06
-1.92623e-06
-7.52888e-06
6.8119e-05
-8.18663e-05
0.000628603
0.00395883
-0.000221877
0.00102081
-0.000727735
0.000627604
-0.00231998
-0.000895237
0.00185639
-0.00196372
5.51065e-05
0.000722482
-0.000795463
-0.0010573
0.00644223
-0.00539896
-9.57414e-05
3.03678e-05
6.50178e-05
-0.00573557
0.00091449
-0.00123995
-0.00510127
0.0046692
0.000409758
0.000831399
-5.55533e-05
0.000529078
-0.00332342
0.00274246
-0.00599992
0.00171736
0.00419825
0.00203454
-0.00403345
0.00199479
-6.91804e-05
-3.004e-05
-0.00158756
0.0036131
-0.000469996
-0.0037623
0.00419182
0.00447608
-0.00407064
-5.14994e-05
4.07419e-05
7.56523e-06
0.000782276
-0.0037588
0.0028918
0.00568021
-0.00260258
-0.00309175
0.00410381
-0.0030912
-0.00101611
-0.00490975
0.00454482
0.000337754
-0.0010271
0.00405348
0.00451553
9.59046e-05
-0.00462416
0.00446662
2.81125e-06
-0.00098233
-0.00349585
-0.00276438
0.00346492
-9.70149e-05
0.00408801
-0.00410882
-0.000745347
0.000783104
-0.00441047
0.00389776
0.00250892
-3.82156e-05
-0.00262706
0.00452928
-0.00522206
-0.00483215
0.00501218
0.000698837
0.00138494
0.00427934
-0.00657557
0.00164994
0.00491015
-0.000295906
-0.00266121
0.00290718
-0.00513699
0.0031399
1.22451e-05
0.000141169
0.00456854
-0.000735429
-0.00198978
-0.00367943
0.00565603
-9.18013e-06
-0.0054278
-0.0040721
0.00308015
0.000890862
-0.000300281
-0.00408748
5.1991e-05
9.65711e-07
-0.000222472
3.04588e-05
0.000798806
-0.000849789
0.00512619
0.000545856
-0.00448809
-0.000106783
0.00457189
0.000241562
0.00374713
-0.00400596
-0.000326599
0.00484177
0.000510366
-0.00501542
-0.0041149
-0.00144502
-0.0029422
-0.00364524
5.85825e-05
-8.79073e-05
-0.000417799
-0.00282383
0.00319623
-0.000264255
0.00476881
5.36373e-05
-3.39287e-06
0.00497111
-0.00471678
-0.000268686
-0.000275356
0.00431528
-0.00406227
-0.00168769
-0.00331062
0.00489074
-0.00402498
8.76654e-06
0.002287
-5.53079e-05
-0.00135694
0.00444226
-0.00477636
0.00537983
-0.00147796
0.00106938
0.000368538
0.0035621
-0.00385723
0.000400148
-0.00384722
0.00343777
-1.22463e-05
-1.41215e-05
8.73483e-06
1.46287e-05
-0.00127621
-0.00365878
7.0153e-05
-0.000149561
5.95747e-05
-0.00428501
0.000828703
0.00344653
0.00453649
0.000422756
-0.00388683
0.0036857
3.91636e-05
0.00430006
-0.00428622
-0.000103063
0.000165457
0.00516381
0.000750469
0.00253984
-0.00334313
0.00550928
-0.000409296
5.40983e-05
-0.000915315
0.000842262
2.56162e-05
0.0038439
-0.00396024
0.00304796
0.000259521
-0.00404415
-8.257e-06
0.00396268
-0.00146748
0.000968495
6.32893e-06
0.00265915
0.00468436
-0.00411737
-0.00111965
-0.000177434
6.17231e-05
0.000565666
0.0035044
-0.00410838
-0.00504763
0.000587446
0.00443907
-0.000323855
0.00401773
0.00063848
-0.00398612
0.00333763
-0.00356324
0.00382898
-0.00036209
-0.000206721
0.00459916
-0.0044186
-0.00548064
0.00452537
0.000870123
-0.00139357
-0.00367215
-0.000340791
-0.00456071
0.00485048
-0.000147144
-0.000804287
0.000928983
0.000955503
0.000310217
-0.00126705
0.000174491
-0.00385927
0.00352541
7.37924e-05
-9.71486e-05
-5.05059e-06
-0.00114834
-0.00397471
3.31229e-05
-3.77465e-05
4.05022e-06
-4.77023e-06
3.75206e-05
-0.00351433
0.00373958
0.00187077
-0.00556251
-0.0045004
-0.000966125
0.00540038
-0.000781905
0.000616709
-7.94764e-05
-0.000610272
0.000665592
-0.00582424
0.00159394
0.00420577
-0.000587792
-0.00380861
0.00430039
6.40741e-05
4.30735e-05
-0.000107355
-2.68031e-05
9.07064e-05
-0.0029773
0.000222163
-0.00506692
-7.52547e-05
0.0011162
-0.00128733
-0.00345347
0.000357611
0.00426305
-1.59375e-05
5.02308e-05
-3.50958e-05
-0.000165435
0.000188812
-0.00011502
-0.000357522
0.000232813
0.00206529
-0.00383678
-0.00377011
0.00429425
-0.00607963
0.00256529
0.00349378
3.08696e-05
0.000627066
-0.000816967
0.00396573
-0.00435036
-0.00356106
-0.00208915
0.00254971
0.000686918
-0.00523587
0.00448556
0.000241801
-2.25778e-05
1.60577e-05
-1.44192e-06
0.00290673
-0.00329675
0.000308749
-0.00468907
0.00434497
-0.00285289
-0.00324519
0.0014617
-0.00173789
5.87725e-05
-0.00366976
-0.00184611
0.00550334
-0.00108842
-0.00159731
-0.00196579
0.00356567
0.00261544
0.000190518
-0.00280268
0.000181793
-3.34701e-05
0.000273667
-1.26025e-05
-0.000371893
0.000275873
0.000554362
-0.000848406
-0.00188985
-0.00395669
-0.0026578
-0.00149355
0.00413261
-0.00379577
0.00368822
5.49796e-05
0.00129248
-0.00288932
-1.71303e-05
0.000652354
-0.000906676
-0.000563615
0.000820974
0.00132977
-0.00400658
0.00468334
-0.000226174
-0.00449996
-0.00521603
0.0041621
0.00100632
0.00284836
0.000503635
0.00130034
0.00412908
-0.00383267
-0.000363879
-0.0052816
0.00448978
0.000767124
-0.00499041
0.000480322
0.00363057
-0.00343511
-0.00027056
-9.6128e-05
-0.00682088
0.00306818
0.00374116
-2.96082e-06
0.000109983
3.03507e-05
2.14516e-05
0.00159828
0.00250193
0.000470284
-0.00482731
0.00432479
-0.00454955
0.00469904
0.00092126
-0.00371822
-0.000647398
0.000721832
-9.32424e-05
0.0041337
-0.00360723
0.00446255
0.0030063
0.000336669
0.00504363
0.000437355
0.000639517
0.00230394
-0.00295175
-0.00281156
0.00232688
0.000402146
0.000530366
-0.000542589
0.00314319
0.00135814
-7.52564e-05
-9.70934e-05
0.000132664
-0.00246938
0.000255167
-0.00588152
0.00359605
0.00226848
0.00116731
-0.00401038
0.00333707
0.000217429
0.00214999
-0.00255131
0.00325105
-0.000795475
0.000758348
-8.63677e-06
0.00427875
-0.00495601
0.000649451
-0.00290181
-0.00424458
-0.00450786
0.000148557
0.00431911
0.00342741
-0.00440173
0.000905139
0.00474429
-0.00475066
-4.51134e-05
-0.00321714
-0.00440371
0.000912085
0.00348753
0.00125665
0.00434675
-0.00493789
0.00518635
-0.000274093
-4.40419e-05
-0.00507356
0.0021914
0.00286691
0.000423911
-0.00391781
-0.00413711
0.00314825
-0.00237357
-0.00271527
0.00504957
-0.00080604
-0.00258258
0.00345666
-0.000920323
0.00202295
-0.00497611
0.000135677
-0.000182494
-0.00039278
0.00134571
0.00326925
-0.000470219
9.70843e-05
-4.57625e-05
-0.000201574
0.0028195
0.00536772
-0.000355103
-0.00318805
-0.00364352
0.00409601
-0.000736773
-0.00107823
-0.00321626
0.00355243
-0.00418197
0.00020588
-0.00435696
0.00411046
-0.00373092
-0.000241064
0.00387794
-0.002799
-0.0044907
0.000594777
0.00387904
6.40185e-05
0.00396448
-0.00419461
-0.00550272
0.00101477
0.00443254
0.000243347
0.00441985
-0.000200972
0.0014481
0.000542389
-0.00493792
0.00436713
-4.18835e-05
-3.37076e-05
4.64463e-05
0.00024435
1.83128e-05
-0.000807348
-0.00431097
-0.000546103
0.0044862
-0.00185181
-0.00255887
0.00268328
-0.00434206
0.00162623
0.000267699
0.00374145
5.00315e-05
0.00143656
-0.00149572
0.00507962
0.00372321
-0.0033319
-5.97778e-05
5.54754e-05
5.07675e-06
1.39172e-05
0.00026462
-0.000341743
0.00399875
-0.000909856
-0.00421461
0.00441152
-0.000204539
-0.00137391
0.00141501
0.000901811
-0.000866132
-0.000581686
0.00423152
-0.00368349
-0.00272184
-0.00220839
0.00492269
0.00056878
-0.000672477
-0.00554941
0.00427509
-0.00434662
-2.53296e-05
-0.00452427
-6.02703e-05
0.000605126
0.00386821
0.000200855
-0.00408925
-0.00216178
0.00326407
-0.0011967
-0.00330674
-0.00496675
-0.000792984
-0.00156727
0.000824838
0.000316086
0.00368641
-0.00404305
-0.00423314
-0.00392691
0.00420129
0.000565434
0.00265054
0.000884151
-0.000917703
0.000970151
-0.00455294
0.00527442
-0.000735984
0.000893958
-0.00118581
-0.0017143
-0.00354813
-0.00322127
-0.0052571
0.00476167
0.000441091
-0.00482767
0.0044366
-0.00424971
0.000767622
-6.35825e-05
0.0011207
-0.00373743
0.000493662
-0.00107836
0.000416614
-0.00577432
0.00400539
-0.000475628
-4.18126e-05
0.000498263
-0.000945329
0.00194158
-0.00100577
-4.08658e-05
0.000898122
-0.00185166
-0.00265015
0.00313122
0.000268968
-0.00468756
0.00440301
3.31011e-05
0.000333947
-0.000370963
-0.000193925
0.000219133
-0.000150115
-0.0013884
0.00403983
-0.00456866
0.00445584
0.00259603
-0.00294283
0.00417201
-0.00375789
6.74083e-05
-0.00351562
-0.00254059
-0.00431231
-0.00624282
0.00351303
-0.00383532
-0.00162973
0.00433422
-0.000451467
-0.00388936
-0.00475178
0.00441098
-0.00610093
0.00401088
-0.00216979
-0.00199651
0.00299964
-0.00523593
0.00221448
-0.00331605
0.00442028
-0.000155773
0.00400291
1.80624e-07
-0.00217743
0.00253343
-0.000363255
0.000602041
-0.000865302
0.00401491
-0.00365991
-0.000400375
-0.0042743
0.00318669
-0.00462827
0.00023728
0.00226201
-0.0030811
0.00400774
-0.00422283
-0.00166444
0.00129334
0.000142073
-4.02726e-05
1.18838e-05
0.00511558
-0.00514662
-0.0048345
0.0036243
-0.00470355
0.00442838
-0.00126743
-0.000443185
-0.00580851
0.00389447
-7.32777e-07
3.94943e-05
-0.000199659
7.79438e-05
-5.43869e-06
3.19206e-05
-3.96809e-05
0.00294603
0.00527638
-0.00229634
-0.00311177
0.000369623
0.00359891
5.49797e-05
0.000515677
-0.000592549
-0.00104417
-0.000478536
0.000497304
-0.00470854
0.00416899
0.00142129
-0.00049117
-0.000722784
0.000606114
0.00171517
0.00212564
-0.00264485
0.00283868
0.00483704
0.000489371
-0.00410099
-0.00403495
-0.000877124
-0.00449827
3.34298e-05
-0.000101986
-1.16314e-05
5.85195e-05
-0.00429942
-0.000662486
-0.00437411
-0.00287975
-0.00294292
0.000461777
-0.000357544
-0.000340334
0.000703001
-0.000793295
-0.00014695
-0.00305537
0.000341985
-0.00383209
-0.00391745
0.000264772
1.96024e-05
-0.000322363
-0.00354805
7.38374e-05
-1.80222e-05
-7.41291e-05
-0.00448513
0.00596186
-0.00313336
-0.00284563
-0.000297352
0.00110139
-0.000832058
-0.00489009
0.00551019
-0.00242162
0.00306262
0.00510996
-0.000239088
-0.00349196
8.49242e-06
0.0044837
-0.00450115
0.000102046
0.00381135
-0.00387371
-0.00345259
-0.000404373
0.0038951
7.67269e-05
-0.00459735
0.00381639
0.000766324
-0.00273748
0.00253816
-0.00370865
0.000796431
-0.00112264
0.00385211
0.00518501
-0.000392644
0.00159287
0.0003375
-0.00198698
0.0039881
0.000117201
-0.00416187
-0.00339891
0.00313825
0.00382371
-0.00158212
-0.00230557
0.00185016
-0.000314857
0.00193475
-0.000614764
-0.00150774
0.000808491
0.00293154
2.66379e-05
-0.0031665
0.00245937
0.0034834
-0.000885253
0.003932
-4.97307e-07
0.00392399
-0.00372781
-0.000262266
-0.00458762
0.00473228
-0.00020149
-1.56947e-06
-2.71984e-05
0.00105012
0.000681416
-0.00487825
-0.000420701
0.00528034
-0.00349293
-0.000651637
5.85778e-05
-0.000693851
0.00337351
-0.00349647
9.13322e-05
0.000210001
-0.00443156
0.00464547
-0.00457003
-0.000137284
-0.000177798
-0.00113948
0.00130334
0.000827459
-0.00579306
-2.61146e-05
-0.00246298
-0.00446696
-0.00398486
-0.00385792
0.00351554
4.15233e-05
-5.80485e-05
0.00620289
-0.00213008
0.00467534
-0.00436081
-0.000336632
0.0046937
0.000635886
-0.000164661
-0.00124269
0.00225329
0.000146882
-1.36203e-05
-0.000134085
-0.00364075
0.00102427
0.000546577
-0.00459824
0.000246955
-0.00304899
0.000688457
0.00400043
-0.00469463
-0.0019502
-0.00265806
0.00440435
-0.00440475
-0.00421488
0.0040369
-0.00021442
4.71626e-05
-0.00390477
0.00349638
0.000395795
0.00362551
-0.000282426
-0.00131969
6.51455e-05
0.00125388
-0.00471739
0.00420407
0.000458096
0.00430879
0.000350006
-0.00467285
5.69295e-05
-0.000459956
0.000389067
-0.00112671
0.00132768
-0.000209246
9.14157e-05
-0.000332817
-0.00036973
0.000412956
-0.00386372
0.000694639
0.00316496
-4.7152e-05
0.000468751
-0.000437178
0.000104524
-0.000128578
-3.25593e-06
-0.00409657
0.00399226
8.03808e-05
-0.00285562
-0.00208011
0.0049137
-0.0034615
-0.00351417
0.00261164
-0.00384551
5.59816e-05
0.00367645
0.0042997
0.000287195
0.00447069
-0.00023084
0.00422861
-0.00479669
0.00196685
-0.00115395
-0.000937634
-0.00255063
0.000367158
0.00586709
-0.00359961
-0.00227396
0.00135196
0.000187094
-0.000259778
-0.00330709
-0.00251941
0.0036593
-0.00427523
0.0039188
-0.00439054
-0.000637556
0.00497872
-0.00412172
0.00428788
0.00227913
-0.00442905
-0.00533076
0.0039245
-0.00462371
0.00174707
-0.00148467
0.00155434
-0.000142258
-0.00301508
0.00456548
0.000445105
-0.00538066
0.00396631
0.0045273
0.000110201
-0.00297136
-0.00199775
0.00453838
-0.00062537
-0.00391844
-0.000402521
0.00389558
-0.00355507
-0.00524456
0.000678418
0.00377143
-0.00448956
0.00070112
0.000280927
-0.000437167
3.03869e-05
-0.00398803
-1.19378e-05
-0.00217674
0.00212178
-0.0030043
-0.000278641
0.00323425
0.000387415
-0.00344451
0.00371707
-0.00089021
-0.000634811
0.00150178
-1.19849e-05
1.19849e-05
0.000333897
-0.00169509
0.000780877
-0.000406528
-0.00183148
0.00205825
0.00479041
5.33125e-05
-0.00487291
0.000209421
-3.25037e-05
-0.000193919
-0.00406243
0.00366907
-0.000111269
0.00011076
-5.51202e-05
-0.00429661
-0.000191154
0.00494989
-0.00250941
-0.00283996
-0.000652931
-0.00326465
0.000194943
-1.6222e-05
0.00328585
0.000434104
-0.00380605
-0.00384218
0.00376389
-0.00184758
0.00157655
0.000202422
-0.000400137
-4.74934e-05
0.000436209
2.8192e-07
5.77114e-05
4.78004e-05
-0.000460503
0.0035034
-0.000238529
0.0026989
-0.00314968
0.000407307
-0.000470365
-0.0036325
0.00387937
-0.000264263
-0.00028815
0.000245279
-0.000273354
-0.000111398
-0.00393095
0.00369884
0.000153219
-0.00038286
0.00467504
-0.00273284
0.000659161
0.00194331
-0.000593403
0.000509998
0.00426749
-0.00333164
9.15383e-05
-5.1635e-05
0.00496325
-0.00408405
-0.000925219
-0.00104591
-0.00282148
0.00291115
-0.0035766
0.000424336
-0.000327705
-0.000299669
-4.68915e-05
2.8426e-05
-0.00183156
0.00297127
0.00209276
-0.00216895
-0.000981687
-0.00330214
0.00429102
0.000228456
0.00244064
-0.00249851
-0.000677201
0.00315845
0.00413721
0.000775916
0.00278543
0.000950846
-0.00381531
-0.00225735
0.00253551
-0.000288139
0.000443226
-0.00181041
0.00134188
-0.00055374
5.54232e-05
-5.96804e-05
-5.39944e-07
-0.00435151
0.00430094
-0.00409169
-0.000216268
-5.57343e-05
-0.000219137
-0.00318638
-0.00122838
0.00372511
-0.00499905
0.00177855
-0.00237962
-0.000205708
0.0033415
-0.00315018
0.00129972
-0.000104777
-0.00121179
-0.00398556
0.00365183
0.00359044
-0.000394638
-0.00575491
0.00250453
0.00322703
0.00489746
-0.000373475
0.00332389
0.00109628
-0.000243878
0.00135226
-6.89525e-05
-0.00342113
0.00353163
-0.000124063
0.000274929
0.00315079
0.000573281
0.00327605
0.00299115
-0.00326182
0.000266369
-0.00390874
0.00357427
0.00111142
-0.00130312
-0.00102542
0.00144802
-0.00248841
-0.000185343
0.00266967
-0.000135952
0.00123284
0.00254972
-0.00278532
0.000222769
8.37135e-05
-0.00105284
0.000963641
-0.000829679
-0.00172505
0.00251972
0.00409836
-0.00436143
0.000243035
0.00182582
-0.00379299
-0.00251622
-0.000369089
-0.000300707
-0.00212496
0.00225011
-0.000115755
0.000148267
-0.000104792
0.000529144
-0.00246757
0.00190939
3.88022e-05
0.00041305
-0.000330266
-0.00047992
0.00041967
-0.00243408
0.000272665
0.00215652
0.00412986
-1.4581e-05
0.00151869
-0.000162138
-0.00136782
4.15166e-05
-0.00468595
-2.85315e-05
0.00435747
0.000131583
-0.00334853
0.00320885
-9.12032e-05
0.00444972
0.00474698
-0.00033155
-0.000327158
0.00439741
-0.000119454
-0.00324831
0.00336087
-0.000458249
2.95318e-05
5.97146e-05
-0.000155277
0.00134605
-0.00118942
-0.00424288
-0.00030451
0.00448263
-0.00100601
0.00432565
-0.000328447
-0.000643076
0.000845862
0.00108425
-0.000138099
-0.000949869
-0.0017535
0.00131198
0.000398309
-0.00113112
-0.000269097
-0.00137421
0.00122004
0.00135205
-0.00221088
-9.03026e-05
0.00383016
-1.03464e-05
0.000911856
-0.00402203
-0.000100229
-0.00202186
0.00419801
0.000401848
-0.00519097
0.00477548
-0.00480565
0.00519394
5.3741e-05
-0.000423536
0.00035923
-0.000263695
-0.00153463
-0.000560216
0.00672267
-0.00458356
9.13403e-06
0.000474397
-0.00580283
0.00268557
0.00309218
0.000168042
-0.00132267
-5.88027e-05
-0.002938
-0.000103192
0.00291035
0.000358589
0.00264567
-0.00286353
0.000314134
0.00419021
-0.00453704
0.00454572
-0.0041598
-0.000446873
-0.000219924
0.000103885
0.00164601
0.000611654
-0.00230185
-0.00335883
0.000845339
0.00450393
0.000123858
-0.00102043
0.000886734
-0.000206301
-0.00170448
-3.77054e-05
-0.0011337
0.00103242
-0.00471251
0.00431269
-0.00229048
0.000379091
-0.00176915
0.00357393
-0.00210372
-0.000334888
-0.00149569
0.000406373
0.000901853
0.000178102
0.00273384
-0.00266017
-0.000149762
0.00474552
0.00385865
0.00046124
-0.00433978
-0.00418596
0.00454105
-0.000384273
-0.00311983
-0.00241076
0.00175114
0.000434889
-0.00343656
0.00321069
-0.00267554
0.000410122
-0.00154228
0.000269475
0.00122157
-0.00314682
0.00327042
0.00210413
-0.000497642
-0.00345677
-0.000385971
0.00383243
-0.00542914
0.00311275
0.00228255
-0.000701656
-0.000626124
0.00132321
-0.0045018
0.0047748
-0.00030029
0.000234446
0.00232967
-0.00259565
0.000176994
0.00367137
-0.00393352
5.31116e-05
-0.00043792
0.000377478
-0.00102157
-8.65527e-05
0.00109343
0.000211724
0.00228029
-0.0024988
-0.00100695
0.00283143
-0.000261397
-0.00428167
0.00448783
-0.000283482
-0.00395084
-0.00225577
0.000787956
0.00143651
0.00117143
-0.00416312
-0.00297317
-0.00280104
-0.00131839
0.00291329
-0.000455468
9.97356e-05
0.000128326
0.00326306
-0.00338945
0.00269737
-4.30032e-05
-0.00358544
0.000150533
0.00441264
1.98636e-05
0.000171285
4.91045e-05
-0.000206354
-0.001246
0.00106118
3.31781e-05
-0.00416075
-3.9485e-05
0.00227766
-0.00241421
0.0050394
-0.00433467
-0.000728251
0.000286504
-9.92901e-05
-2.80796e-07
1.10893e-05
0.00045062
-0.000380228
0.00454123
-0.00418112
1.03116e-05
7.72847e-05
-0.000121716
-0.000248801
-0.00311547
0.000375354
0.000142694
-0.00319655
0.000116651
-0.00109589
0.000978042
-0.00299144
0.00239577
0.000421438
-0.000300725
0.00502144
-0.00123182
-0.000354651
-0.0012005
0.00105034
7.09407e-05
-0.000201146
-0.0013661
0.00399393
-3.03669e-06
8.51562e-05
-0.00469695
0.00434138
0.00452947
0.000158325
0.000237184
-6.67351e-05
0.00123557
-0.00130627
0.000123252
0.000875143
-0.00100105
0.00111664
-0.00364524
0.000175962
0.000207222
0.00369313
-0.00390655
0.00042517
0.00424176
-0.00468398
0.0041524
-0.00452208
-0.000511383
0.00435078
1.83482e-05
0.000128169
-3.87123e-05
0.000480178
-0.000454864
-0.00115375
-0.000165903
-0.0013676
0.00143218
0.00413293
-0.0045332
-0.000498614
0.00419061
-0.00370228
0.00520656
-0.00375125
-0.00147473
0.000130331
-0.00106425
0.000932721
0.000417635
-0.00463
0.00417624
0.00208135
-0.000339504
-0.00175142
-0.000111934
0.000717999
-0.00416031
-0.000608074
-0.00096647
0.00407314
-0.000675834
0.000151976
0.000186807
0.0046249
-0.00120205
-0.00137575
0.00351994
-0.00353743
-2.28262e-05
-0.00340105
0.00376919
-0.000380675
5.22069e-05
-0.000424781
0.000365911
-0.000218904
0.000140869
0.00101858
-0.00117298
-0.00398608
-0.00518041
0.00433401
-0.00275633
0.00026749
-0.00133219
0.000464413
-0.000429071
0.000150377
-0.00128431
0.00574245
-0.00554595
-0.000208131
-0.000168974
-0.000370475
-0.000582792
0.000115606
-0.00103121
0.000903252
0.00185899
-0.00155116
-0.00035407
-0.000461725
0.000409934
-0.000378816
-0.000423095
-4.94772e-05
0.00451801
-0.000129423
-0.000936232
-0.00103113
0.000900359
-0.000585916
0.00257143
-0.00202121
0.00326832
-0.00368292
0.000402696
-0.00394778
0.00021366
-0.00226172
0.00253773
-0.000288526
-0.00375951
0.00243661
-0.0003946
-0.000293763
0.00470212
0.000442583
-0.000275798
-0.000238308
0.00285511
-0.00257875
0.00466534
-0.00214802
7.76699e-05
-9.75957e-05
-0.00144989
-0.000834159
-0.000185548
0.00367091
-0.00348951
0.00263893
-0.00217655
-0.000496885
-0.000214937
-0.00257298
5.02371e-05
-0.00045177
0.000392487
-0.00481528
0.0042677
0.00052434
-0.00465863
-0.00358288
0.000229679
-0.00259186
0.00233012
-0.00326809
0.000402064
-0.00444078
0.00265955
-0.000425273
0.000466414
4.06478e-05
0.000410772
0.000469977
-0.00426087
0.00377707
0.000227508
0.00174478
-0.00200156
-0.000238747
0.00396991
0.000245952
-0.000758421
0.00064633
9.04128e-05
0.00110975
-0.000982413
-0.000130258
0.00146841
0.00438868
5.43678e-05
-0.000438673
0.000377943
-1.46287e-05
9.12321e-07
9.98257e-06
8.76361e-05
0.000683439
-0.000787197
0.00222695
-0.00270683
-0.00124134
0.00545896
0.00410142
-0.00364473
-0.00262499
0.00035112
-0.00333071
-0.00105781
-0.00253299
-0.00169888
0.00418808
-0.00446663
-0.000578302
0.00502014
-0.00393471
-0.00189741
-0.00483983
0.0040196
0.000800993
0.00393201
-0.00444183
0.00396215
-0.00387189
0.0034725
0.000259553
0.00527971
-0.00438734
-0.00396008
0.000312424
-0.000403009
-0.00336125
-0.00361443
-0.000145041
0.00367252
-0.000317977
0.000185385
-0.00132283
0.00113526
0.000145152
0.000148763
0.00340067
0.000472079
-0.00388335
-1.84089e-06
-0.00373885
0.0037257
-0.00443842
0.000569548
-7.70516e-05
-0.000505663
0.00426042
-0.000569136
-0.000442892
0.00101117
0.000309563
0.00296754
-0.00332444
0.000125852
-0.00382962
0.00102903
-0.000925174
-0.00465234
0.00455688
8.81356e-05
-0.00164602
0.00317093
0.000326582
0.00374518
-0.00354381
0.000155551
0.00440823
-0.00460884
0.00351842
-0.00342111
-0.00348226
-0.000377726
0.00385018
0.00372581
-0.000334521
-0.00480575
0.000277471
-0.00438367
0.00407986
-9.71073e-05
-0.00143106
0.00151669
-0.00205767
0.00230148
-0.00156316
-0.000433839
-0.00479321
0.00443747
0.000298325
0.00420053
0.000314266
-0.00244136
0.00263874
0.000272554
-7.41606e-05
-0.00430374
0.00103473
-0.000956176
-0.00362352
0.00347932
-0.0038761
-0.00107297
-0.00281401
0.00310623
-0.000305069
-0.000642126
-0.000155727
0.00373133
-0.00378887
-0.00025141
0.00350696
-0.00201451
0.002098
-0.000150466
-0.000324106
0.00210895
0.000417233
0.00137661
9.10745e-06
-0.00151861
0.0043899
0.000280097
-0.000309709
0.000634802
0.00309262
-0.000105456
-0.000390463
-0.00231148
-0.0016888
0.00398032
0.000481638
0.00442267
-0.00492523
-0.00117397
0.000137071
6.418e-07
1.66502e-05
-1.75228e-05
-0.00355279
0.00314529
0.00141807
-0.00062454
-0.000795987
0.0035593
-5.02541e-05
-0.00374332
0.00355359
0.00418365
-0.00394293
-0.000252431
0.00349685
0.000282887
0.00437764
-0.000285628
-0.000381334
-0.0044515
-0.000360497
0.00483584
-0.00407098
0.000431241
0.00362229
0.00174953
0.00398285
0.00412361
0.000281872
-0.00432736
0.00441954
-0.00079909
-0.0036258
0.00485951
-0.00443498
-0.000470728
7.15136e-06
-2.64528e-06
2.40215e-05
0.00465861
-0.00471081
-0.000452029
0.00467547
-0.000311074
0.00363685
-0.000130366
-0.00356581
0.000149865
-0.00452587
0.00439361
0.000620342
7.94992e-05
0.00442509
0.000246607
-0.00471294
0.00279776
0.000387691
-0.00328007
0.00557771
-0.000238383
-0.00537382
-0.00016062
-0.00121191
-0.000997071
-0.0015588
0.00441706
-0.00145251
-0.00423051
0.00451258
-0.000916903
-0.0036981
0.00378542
-0.000224341
-0.00330658
0.00297805
0.00473305
-0.00454236
0.000967804
-0.00289228
0.000111484
-0.000403776
-0.00497548
0.00264277
-0.00460858
0.000918868
0.00365245
-0.000405951
0.00375098
-0.000249093
0.0035451
-0.00350284
-0.00016227
5.24239e-05
0.00308098
-0.00314375
-0.000285012
0.00466364
-0.00248574
0.00427274
-0.00461316
-0.00387508
0.00446245
-0.00406722
-0.000401615
0.000392669
0.00431146
-0.00473209
-0.000399936
-0.000802968
-7.72607e-05
-0.00320942
0.00327856
0.00396303
-0.00415401
0.00348745
0.000156881
0.00460234
-0.00477103
-0.000872287
0.000991351
-0.000150469
-0.00384108
0.000352362
0.00337384
-0.000300684
0.00354553
-0.00366007
0.00450432
-0.000198529
0.00455524
-0.00436968
0.000143067
-0.00104637
0.00442583
-0.0046839
0.00215866
-0.00217461
-4.7172e-05
0.00503387
-0.000219023
-0.00344521
0.000190006
-0.000296797
0.00498929
-0.00399687
0.00142495
0.000218188
-0.000324134
0.00363611
-0.00015127
0.00442558
-0.000252169
0.00414409
-0.00443477
-2.67729e-05
0.000113307
-0.000106512
0.00284233
-0.00277158
-0.000187128
-0.000560503
0.0021425
-0.000444542
-0.00267202
0.00309985
0.000244395
0.00450079
-0.000156367
0.0037993
0.00272415
0.000187476
0.00397984
-0.00016831
0.000497646
0.00326012
-0.000251111
0.00461562
-7.36299e-05
0.00368183
-0.00354884
0.00328993
0.0045834
-0.00480543
0.000702451
-0.00043962
-0.00037777
0.00473837
0.00133993
-0.00115691
0.000152015
0.00351564
-0.00367336
-0.00402028
0.000193992
-0.000351449
2.93201e-05
0.000306731
-0.00319344
-0.000249973
-0.000404945
0.00451987
3.63181e-05
0.000235222
0.00183564
-0.00108614
-0.00288752
0.00435193
-0.000128057
-0.00427896
-0.000253744
0.00464218
-0.00181567
-0.000225466
0.00201751
0.000748394
-0.00510623
-0.00506911
0.000577319
-0.00351113
0.00368968
-0.000361643
-0.00337086
-0.000537943
0.00443928
-0.00391753
0.000220107
-0.00205981
-0.00112643
0.00125686
-0.000144933
3.16882e-05
-0.000349852
0.00030386
-0.00376124
-3.00181e-05
-0.000332714
0.000346712
2.86066e-05
-0.000349005
0.000304505
-0.00350087
0.00364726
-0.000248694
0.00436608
-0.00471693
0.000328604
-0.00435424
-0.000346801
0.000300791
0.000320861
0.00428903
-0.00463938
3.00764e-05
-4.11903e-05
-1.14211e-06
-0.00257849
-0.00288776
0.00270529
-0.00275398
-9.6535e-05
-0.00515474
-0.00369563
0.00348159
0.000212521
-0.000334027
-0.000217134
0.00467377
-0.0045225
0.000193877
-0.00423758
-0.000540786
0.00473147
-0.00422848
-0.000246456
0.00443679
-0.00238871
0.0007647
0.000433499
0.00329767
-0.00383137
0.00462039
-0.000531323
-0.00417537
0.000456082
-0.000408014
2.03513e-05
-1.70891e-05
-1.39515e-05
-0.000435162