/*--------------------------------*- C++ -*----------------------------------*\
| =========                 |                                                 |
| \\      /  F ield         | OpenFOAM: The Open Source CFD Toolbox           |
|  \\    /   O peration     | Version:  v2012                                 |
|   \\  /    A nd           | Website:  www.openfoam.com                      |
|    \\/     M anipulation  |                                                 |
\*---------------------------------------------------------------------------*/
FoamFile
{
    version     2.0;
    format      ascii;
    class       volScalarField;
    location    "900";
    object      omega_0;
}
// * * * * * * * * * * * * * * * * * * * * * * * * * * * * * * * * * * * * * //

dimensions      [0 0 -1 0 0 0 0];


internalField   nonuniform List<scalar> 
9793
(
0.133936
0.279413
0.179545
0.0210062
1.88766
0.0225686
0.0218185
0.0207634
0.0215615
1.8212
0.054291
0.0337152
0.0210509
0.0203299
0.0228391
0.0202577
0.0211281
0.0214035
1.20334
0.0203066
0.0788171
0.0227876
0.376952
0.0195609
0.0216534
0.0211473
0.0202555
0.0207952
0.0405672
0.0215505
0.0327022
0.361184
0.484861
0.0218575
0.0457729
0.29863
0.0223615
0.0227689
0.0208256
0.0210195
0.0325789
0.022869
0.0220872
0.0219248
0.0221057
0.0213276
0.0441044
0.0838005
0.631023
0.0209793
0.0474479
0.0589956
0.0228198
0.0215758
0.134222
0.105677
0.021429
0.0940277
0.460201
0.0208091
0.0216187
0.022787
0.540723
0.0218685
1.81244
0.466384
0.52215
0.648042
0.0427093
0.0533026
0.134749
0.0207848
0.0211219
0.272828
0.0527816
0.375937
0.021422
0.0200356
0.0212838
0.0209179
0.463336
0.0212161
0.273279
0.0867607
0.0290685
0.0994939
0.0210323
0.0214167
0.0223299
0.0213722
0.283309
1.33899
0.0203674
0.359709
0.0225392
0.106662
0.0980214
0.280743
0.0203404
0.0202428
0.0202289
0.0212716
0.0203993
0.0203888
0.0200401
0.0285636
0.0221928
0.0217012
0.0225186
0.177656
0.0209684
0.0700024
0.0214114
0.269601
0.0584938
0.0214309
0.487531
0.05137
0.0215038
0.340362
0.13404
0.0225966
0.0213281
0.0228189
0.0218347
0.0721858
0.037656
0.117017
0.0217597
0.0211487
0.0213686
0.0214258
0.0211482
0.0214347
0.0215281
0.021413
0.0221957
0.0217597
0.0214044
0.0199619
0.0213177
0.0215682
0.0211746
0.0202427
0.0204087
0.0205609
0.243161
0.0202475
0.0203448
0.888063
0.562472
0.0213675
0.718646
1.82356
0.0203304
0.0219931
0.0206356
0.0214944
0.0202351
0.0211261
0.0207605
0.0207879
0.0201261
1.30774
0.269725
0.10838
0.106197
0.0248551
0.020219
0.0209941
0.0211766
0.5913
0.268267
0.592519
0.0217843
1.28909
0.0214215
0.0195674
0.0211649
0.0263452
0.550667
0.022187
0.0202459
0.0215791
0.314803
0.0211074
0.104135
0.0211584
0.0213019
0.0201412
0.0217931
0.0213305
0.667782
0.0704117
0.653494
0.0260856
1.48537
0.0209031
1.80604
0.0200307
0.02152
1.3921
0.121687
0.0211561
0.0214204
0.0198636
0.140308
0.0201978
0.0264688
0.0222727
0.0291711
0.604977
0.668011
0.0215994
1.54705
0.0205248
0.0210939
0.354071
0.0198507
0.830702
0.0676511
0.0213633
0.0218439
0.0213329
0.10936
1.37061
0.0225942
0.020331
0.0660886
0.0448836
0.0195938
0.0195659
0.0222579
0.020169
0.0427597
0.820401
0.0213866
0.0211048
0.0862528
0.0211376
0.0261192
0.0203239
0.0210604
0.479427
0.0210711
0.0203332
0.0207508
0.0214831
0.0203498
0.0216889
0.0216733
0.023517
0.0543157
0.0401882
0.0210165
0.0233571
0.0211622
0.0237644
0.0225736
0.0201807
0.293362
0.0210867
0.0540002
0.0215137
0.0252722
0.0196658
0.0196544
0.0290776
1.39361
0.0219759
0.0202008
0.0200076
0.0254077
0.0213829
0.277142
0.276865
0.0211583
0.078799
0.0213674
0.0402936
0.021417
0.019627
0.0221199
0.0208991
0.0376181
0.0213604
0.0216689
0.0244857
0.0210601
0.0214118
0.0213932
0.484333
0.0221221
0.02246
0.0214195
0.0214126
0.0219596
0.0249383
0.0212441
1.18076
0.0203423
0.399282
0.489577
0.0221329
0.0219102
0.0202241
0.0260817
0.0236963
0.0213435
0.41663
0.0217315
0.0202117
0.0238322
0.0217856
0.0215082
0.0212526
0.0892005
0.0210675
0.0246942
0.0223283
0.0209889
0.273713
1.48892
0.257231
0.0197313
0.326416
0.0220527
0.585283
0.0594295
0.0200514
0.0229584
0.0577794
0.0211424
0.0247573
0.0635271
0.0207245
0.0219726
0.021502
0.0210442
0.0208475
0.992993
0.0211586
0.0209766
1.23486
0.021147
0.0202321
0.0197187
0.0222211
0.0207381
1.39781
0.0218929
0.0213676
0.021622
0.0212621
0.487394
0.0215537
0.0318082
0.0195758
0.0342181
0.125085
0.104271
0.0364984
0.0221678
0.0218165
1.54296
0.0217088
0.288126
0.0211373
0.0202164
0.488918
0.0244627
1.45372
0.021371
0.045802
0.421213
0.0224223
0.0210876
0.4879
0.0249265
0.257806
0.0233789
0.0215306
0.530717
0.0212707
0.0221598
0.0217902
0.0212618
0.0202934
0.0215559
0.0230249
0.511726
0.0216974
0.436108
0.355019
1.53211
0.0452333
0.210204
0.0209274
0.0215013
1.60989
0.355066
0.0203379
0.0217913
1.37873
0.0199964
0.435057
0.0211233
0.0230471
0.0199828
0.0304536
0.0211509
0.0254231
0.0836992
0.0202177
0.37817
0.0235471
0.0219654
0.0236346
0.021046
0.0220325
0.0206478
1.32984
0.021343
0.0215283
0.0626654
0.0215153
0.0225277
0.0220536
0.020101
0.0270952
0.0211322
0.021535
0.0199335
0.39446
0.0204764
0.395954
0.0210167
0.674541
0.0228643
0.0210648
0.0222671
0.0216975
0.335862
0.020883
0.102028
0.020173
0.0211895
0.0221504
1.39463
0.0356321
0.136103
0.639084
0.0228273
0.0212597
0.0369302
0.0268235
0.0293214
0.277396
0.442743
0.0216316
0.0226091
0.0458617
0.0213327
0.0213323
0.0213121
0.0203861
0.0220401
0.175619
0.025437
0.42929
0.0204003
0.0264195
0.019553
0.0216837
0.0215313
0.0212434
0.0373019
0.0210774
0.0222385
0.0199735
0.021398
0.0228404
0.076978
0.0211662
0.0212584
0.494785
0.023548
0.0219002
0.488322
0.677925
0.0215158
0.0219804
0.0222619
0.0229045
0.0215496
0.0223356
0.0220834
0.0209454
0.0211799
0.0210313
0.206173
0.0601936
0.0206332
0.30932
0.030731
0.0202923
0.0221382
0.0213151
0.0652838
0.0214089
0.0524446
0.0200762
0.0210727
0.0499725
0.0212916
0.0317299
0.454886
0.0253165
0.0202846
0.474003
0.0233173
0.0205429
0.0211722
0.0539663
0.0209013
0.0205286
0.0212679
0.0208972
0.473924
0.0428416
0.0298676
0.0223286
0.0211422
0.0210238
0.0214757
0.0208695
0.0212836
0.0562322
0.112341
0.0200217
0.0222137
1.6555
0.0213294
0.024704
0.032679
0.020726
0.0574953
0.471017
0.0213777
0.141718
0.0196354
0.147656
0.0242947
0.55882
0.0211017
0.0210445
0.0211459
0.290885
0.0218983
0.451173
0.46916
1.77201
0.0328043
0.10677
0.0292012
0.0228585
0.0291255
0.0220398
0.33271
0.021543
0.660915
0.0198965
0.249757
0.0219739
0.0219145
0.021007
0.152649
0.0199365
0.0207439
0.022197
0.0224954
0.025934
0.0211337
0.0212573
0.0213067
0.0212844
1.19549
0.0209763
0.441412
1.03798
0.0209879
0.0218052
0.0270124
0.0217901
0.0213082
0.0217195
0.0224656
0.0243032
0.0221458
0.0225042
0.0204896
0.0214443
0.022027
0.023838
0.0217334
0.0223244
0.722122
0.0213198
1.4285
0.02456
0.0219277
0.0212674
0.0206957
0.0219373
0.0222392
0.0210583
0.0206684
0.0195268
0.0210456
0.0206489
0.0211687
0.0231728
0.0198582
0.0219141
0.0220256
0.0215351
0.0230313
0.0221973
0.0303281
0.022268
0.0210082
0.0212776
0.0205272
0.0199375
0.0209533
0.0199704
0.0209593
0.0213291
0.019925
0.0319891
0.0210262
0.0221732
0.0213436
0.658095
0.0210302
0.0199717
0.0530821
0.0196319
0.0215057
0.162056
0.0216711
0.0223573
0.0214104
0.0945003
0.020706
0.0495054
1.79336
0.38788
0.447445
0.0214511
0.0213506
0.386944
0.0213695
0.0199468
0.221126
0.659597
1.64033
0.0212883
0.0586522
0.0213537
0.0213368
0.233552
0.0211835
0.0445338
0.0215276
0.0599192
0.0209946
0.0229957
0.021971
0.15253
0.894401
0.0211519
0.0214087
0.0262199
0.0209521
0.0228179
0.0496847
0.235553
0.0210766
0.0203551
0.0213746
0.326561
0.0215408
0.491425
0.34934
0.0209769
0.0272102
0.383819
0.0210308
0.0211547
0.0221385
0.0214387
0.0199223
0.12461
0.0199218
0.456876
0.0228276
0.188332
0.0531239
0.0214914
0.122486
0.543015
0.0217872
0.565883
0.026614
0.0742111
0.0199339
0.0196227
0.362843
0.0213198
0.865668
0.0209544
0.32947
0.0204817
0.0676762
0.373651
0.0209696
0.722327
0.0214142
0.022275
0.033833
0.813083
1.05225
0.0199354
0.020497
0.0199842
0.423135
1.3132
0.0227147
0.0241233
0.0270104
0.0199592
0.0209883
0.0215509
0.0506764
0.0236271
0.0213903
0.020867
0.020784
0.45164
1.59368
0.189639
0.0205331
0.0209226
0.655336
0.0211677
0.529883
0.0399772
0.462169
0.251369
0.343489
0.0208531
0.0214981
0.0230282
0.0220588
0.0240471
0.0212155
0.0582192
0.380588
0.0204212
0.559501
0.0207749
0.401114
0.0216242
0.338611
0.0241071
0.0228024
0.0210905
0.0203954
0.0300431
0.381522
0.384126
0.0213921
0.0308725
0.0208566
0.0224303
0.0232261
0.299804
0.0240117
0.0744647
0.0208462
0.0266873
0.0211355
0.0198826
0.0218618
0.020949
1.63865
0.0211411
0.0225056
0.0223024
0.0218307
0.0199087
0.0507668
0.0215222
0.0220201
0.0208691
0.0209987
0.306503
0.0210426
0.0643737
0.0204312
0.020752
0.0208567
0.0421571
0.0210526
0.0651406
0.02157
0.0213524
0.0208824
0.337455
0.309811
0.40576
0.169387
0.650376
0.0213046
0.0228923
0.286571
0.0199433
0.353882
0.308691
0.0502866
0.0992907
0.0224031
0.306234
0.0232256
0.383623
0.288566
0.0223615
0.0215693
0.303714
1.10083
0.0238401
0.023185
0.0211994
0.0218549
0.0331271
0.0209251
0.019922
0.0221155
0.0921062
0.0337401
0.0227689
0.371366
0.0208999
0.0199829
0.257566
1.36829
0.0342624
0.0219801
0.0920667
0.0205261
0.0199294
0.491649
0.0199094
0.022286
0.309578
0.320653
0.0210618
0.485788
0.148295
0.059715
0.206965
0.280142
0.0223341
0.713371
0.0216685
0.0208341
0.0213375
0.0215936
0.0209449
0.393656
0.021344
0.492887
0.0203222
0.0361246
0.021788
0.0341001
0.022448
0.0211724
0.0400425
0.0203234
0.0199424
0.0742328
0.0219693
0.0277038
0.021115
0.0200486
0.315129
0.873052
0.0225776
0.0195449
0.019535
0.0204132
0.0217182
1.3447
0.0732247
0.196109
0.0305771
0.311849
0.0214251
0.027159
0.0247375
0.023256
0.100102
0.0211024
0.0210055
0.139319
0.0327989
0.35974
0.0210574
0.358317
0.385944
0.0239006
0.0383128
0.023158
1.34757
0.0214165
0.0242633
0.361488
0.0221096
0.0210694
0.0815349
0.0216196
0.0205024
0.0209879
0.169664
0.0216805
0.0251323
0.319325
0.0367643
0.0243448
0.0307744
0.17437
0.466307
0.155909
0.0199557
0.0214956
0.0219919
0.0225295
0.0212295
0.63855
0.351852
0.0231841
0.446997
0.0488832
0.443243
0.0215193
0.342628
0.0212468
0.328491
0.0695138
0.0206168
0.666767
0.428136
0.0208553
0.0214612
0.0213377
0.211222
0.484308
0.0252359
0.0463762
0.0269888
0.0635251
0.318444
0.339403
0.0210517
0.0213876
0.354427
0.228932
0.0210836
0.0212757
0.0199558
0.0217215
0.0215332
0.0242083
1.16176
0.021265
0.0233298
0.346687
0.0216566
0.0216905
0.0238019
0.651531
0.0215108
0.0225062
0.157047
0.021784
0.0200262
0.0218375
0.0209117
0.0223081
0.381985
0.455653
0.0215125
0.164659
0.0238336
0.162683
0.0213488
0.0219234
0.0221671
0.0216827
0.324049
0.021299
0.0220707
0.0252187
0.0218272
0.0204556
0.0248395
0.0212163
0.0922631
0.0214747
0.0210426
0.595567
0.0210812
0.697145
0.0253633
0.0209504
0.0386319
0.0222417
0.030341
0.0975117
0.0202151
0.344449
0.0209754
0.021376
1.34644
0.480984
0.02023
0.0214685
0.0206707
0.0216325
0.0784463
0.0220919
0.0214391
0.0219303
0.0217279
0.0219406
0.0212705
0.0202556
0.0209568
0.0211837
0.425884
0.0236015
0.0200069
0.0383827
0.0214621
0.235155
0.070837
0.0317081
0.0214535
0.0212368
0.0697309
0.0230192
0.0213505
0.021626
0.386984
0.125838
0.0213582
0.0198108
0.0638025
0.0477115
0.0196005
0.395459
0.0358517
0.0214146
0.0217942
0.0253794
0.0215785
0.0276364
0.453881
0.0214905
0.0547202
0.0263956
0.0297031
0.0198071
0.0213422
0.0198387
0.0198176
0.126585
0.0210763
0.0575938
0.0448679
0.0198269
0.0218414
0.0298954
0.0215628
0.0216338
0.021383
0.0222993
0.445698
0.0198292
0.0214837
0.348565
0.0220647
0.0215853
0.0228981
0.0210941
0.0216074
0.0211866
0.0214797
0.02227
0.0216932
0.095464
0.483288
0.0198201
0.021414
0.0198234
0.0848855
0.0210089
0.0238193
0.0212827
0.0201833
0.0264991
0.0204116
0.028189
0.021395
0.020426
0.310604
0.349389
0.0217214
0.0215944
0.0209563
0.0824051
0.146486
0.0213851
0.38522
0.705365
0.0218451
0.0286295
0.386963
0.023253
0.377767
0.0401019
0.0407541
0.0211954
0.0292846
0.0919435
0.0203667
0.302357
0.379607
0.021381
0.763147
1.64655
0.0234716
0.382628
0.0198039
0.0256819
0.042838
0.0212423
0.312431
0.0198038
0.0390873
0.0625617
0.019805
0.352681
0.0217467
0.0218919
0.0309675
0.0233768
0.232239
0.404762
0.0200649
0.0235186
0.278369
0.0207036
0.0241629
0.0208092
0.386329
0.648347
0.0210949
0.0212783
0.0244315
0.266771
0.298443
0.0276099
0.0198184
0.0208983
0.30486
0.434941
0.0866081
0.022597
0.0227161
0.0249589
0.0200331
0.0221623
0.0239224
0.0228711
0.0208701
0.0238067
0.404498
0.111458
0.0209677
0.168118
0.023613
0.0876417
0.728056
0.0416564
0.721622
0.0815533
0.0198176
0.115314
0.123047
0.440196
0.322819
0.0212468
0.123985
0.326595
0.0400675
0.024186
0.324699
0.322519
0.0210724
0.0245713
0.0239142
0.0212163
0.0684842
0.0212707
0.0220136
0.0206207
0.0198061
0.021687
0.0213491
0.0224824
0.0248196
0.34052
0.0239931
0.314787
0.0208221
0.0256489
0.021539
0.28238
0.617928
0.0211852
0.0429316
0.0212995
0.0202104
0.0212928
0.0201704
0.0210647
0.0914699
0.0215817
0.21178
0.0210293
0.0209459
0.419396
0.0223342
0.021782
0.0211267
0.0212503
0.377008
0.0681969
0.415846
0.180341
0.660025
0.0215052
0.0217178
0.0213557
0.0236488
0.0403967
0.079705
0.352992
0.0209586
0.0396731
0.0220578
0.169687
0.33331
0.0241783
0.60035
0.78171
0.0224235
0.0374
0.0209021
0.0438651
0.0225515
0.0881384
0.0418599
0.0198176
1.44909
0.467722
0.0216294
0.0226629
0.0218377
0.178679
0.0207702
0.0216877
0.443767
0.0208069
0.485102
0.0255665
0.0235898
0.0220497
0.0217572
0.480575
0.0211423
0.432767
0.0239176
0.0212907
0.0207139
0.0538877
0.0223943
0.364921
0.0222496
0.0240154
0.0239865
0.0668547
0.0228183
0.0213119
0.328837
0.021663
0.0204121
0.101094
0.328019
0.023895
0.0205204
0.0220296
1.38368
0.0597871
0.0211533
0.031505
0.0204399
0.101008
0.0424539
0.0218819
0.0211124
0.0870821
0.02096
0.020736
0.0213668
0.0811508
0.612643
0.0217247
0.0238484
0.02175
0.0219805
0.385823
0.0300404
0.0215805
0.0216898
0.0210345
0.0631837
0.449252
0.484227
0.0212263
0.132913
0.0202067
0.0201548
0.0217827
0.0219294
0.0384725
0.0213486
0.0467322
0.347367
1.45036
0.0236605
0.0214896
0.0215215
0.0362767
0.0206083
0.0212492
0.0316928
0.0214794
0.0212581
0.0220912
0.0239
0.0199964
0.574949
0.0408468
0.0235408
0.0231802
0.026448
0.0229872
1.67805
0.0213628
0.0212564
0.0214759
0.0210462
0.0214558
0.0208691
0.121022
0.089488
0.0215598
0.0220196
0.0212265
0.0234852
0.0227228
0.0478877
0.0220021
0.251468
0.0213024
0.0217928
0.0207136
0.0769352
0.0214804
0.258137
0.0214789
0.0215047
0.0195454
0.275843
0.0228829
0.0702765
0.314682
0.0218759
0.0214719
0.0211255
0.0213988
0.0212995
0.021957
0.0242565
0.398237
0.021563
0.0575933
0.211421
0.0231003
0.0986321
0.0215054
0.0231944
0.0209835
0.0203533
0.0202182
0.0213506
0.251283
0.0845612
0.0208316
0.484609
0.0526663
0.0212491
0.466923
0.0203287
0.0315079
0.0220478
0.0210193
0.638247
0.0214683
0.0223753
0.023567
0.0458976
0.0757631
0.0218979
0.0209713
0.0223041
0.615279
0.274556
0.0361928
0.0260907
0.0214475
0.0214023
0.34683
0.0216804
0.0278519
0.0281386
0.430995
0.0214547
0.0346923
0.0214679
0.0217516
0.0307402
0.0295682
0.0296701
0.0220507
0.0218403
0.0250701
0.399738
0.0436135
0.0204052
0.0245172
0.0910049
0.0230951
0.0381452
0.021605
0.0216994
0.0213394
0.0238343
0.650777
0.0547318
0.021457
0.967409
0.0235266
0.0256628
0.0214973
0.02134
0.0213587
0.0199145
0.0476893
0.0222633
0.0222703
0.0220047
0.0213422
0.021446
0.164829
0.0214062
0.0213887
0.0217376
0.411022
0.140751
0.0214358
0.0211514
0.0214712
0.314926
0.0219665
0.0999327
0.0214621
0.0471711
0.0214399
0.0216203
0.0409042
0.0216643
0.0309496
0.02169
0.0214369
0.0203416
0.0224004
0.155631
0.0217499
0.0219383
0.32587
0.0215266
0.0222281
0.0219935
0.0215722
0.0212304
0.0219039
0.0305981
0.0207482
0.0208183
0.0209455
0.346592
0.0236336
0.397848
0.0215009
0.0216707
0.596192
0.35221
0.314312
0.0252828
0.0293098
0.336485
0.0214913
0.411555
0.0219636
0.114193
0.0209703
0.111777
0.344178
0.0195545
0.023249
0.0220593
0.0222296
0.0198533
0.43989
0.0208955
0.333143
0.0216567
0.0213878
0.0217426
0.0198693
0.0217526
0.115492
0.0213406
0.0211339
0.0211316
0.021568
0.0213697
0.172363
0.691054
0.461467
0.0214869
0.0201947
0.0234273
0.0214717
0.0213186
0.1064
0.0389508
0.0223061
0.0213187
0.262272
0.0225199
0.0186115
0.451409
0.0225784
0.0203043
0.0212838
0.0263773
0.342826
0.0214655
0.0212167
0.0530719
0.123317
0.0437297
0.625837
0.0212969
0.0236744
0.0234838
0.0198978
0.0217227
0.324579
0.324975
0.422873
0.0212668
0.60869
0.021701
0.0214737
0.0239293
0.0218845
0.0239017
0.0332457
0.0212304
0.0214716
0.0213181
0.0208835
0.0199573
0.0211295
0.0242867
0.315426
0.0260791
0.0195479
0.0199822
0.0212707
0.0218002
0.021327
0.0784772
0.0219325
0.0219829
0.021891
0.329459
0.0212475
0.0229252
0.537027
0.0213019
0.0212753
0.377549
0.0212037
0.0213585
0.021223
0.185767
0.026944
0.0369761
0.0217442
0.239152
0.0201642
0.0201455
0.0204175
0.0212472
0.0352169
0.0212665
0.0216401
0.0417687
0.0213464
0.398466
0.0225418
0.0279354
0.0217217
0.11243
0.0304342
0.0214638
0.0211277
0.0219205
0.0215448
0.0213179
0.384716
0.0209668
0.0439329
0.0211645
0.0215717
1.62146
0.0210645
0.975359
0.0811155
0.0212938
0.0500621
0.0211444
0.0218295
0.0212479
0.0217401
0.0207247
0.021326
0.0212907
0.0213541
0.106512
0.0214863
0.0209625
0.0217952
0.020794
0.0212057
0.0212064
0.0214132
0.020514
0.0213066
0.02126
0.02137
0.0212529
0.0218534
1.38829
0.021129
0.0218762
0.0445154
0.322824
0.0199283
0.0254457
0.0209778
0.0210447
0.0212814
0.0214317
0.664673
0.32571
0.0211075
0.022598
0.319977
0.0215379
0.0199328
0.387775
0.0199272
0.381897
0.0214686
0.0662775
0.0235502
0.238329
1.41274
0.459767
0.0209883
0.021102
0.0199714
0.0239711
0.0617982
0.0223908
0.0579744
0.426308
0.0213689
0.248072
0.0444953
0.0205842
0.0203987
0.0307382
0.0295871
0.0212905
0.0210236
0.0201008
0.02386
0.0237829
0.0240797
0.0237127
0.0239616
0.393964
0.0210729
0.0212417
0.0211527
0.218862
0.0238945
0.0239274
0.158951
0.413446
0.0233081
0.0210404
0.0237521
0.0212187
0.0330445
0.0213517
0.0219861
0.0497293
0.0239633
0.099857
0.01982
0.301077
0.0331512
0.0872343
0.327606
0.641493
0.0211135
0.0213404
0.0213305
0.104735
0.0214054
0.0208836
0.0213319
0.0278541
0.582361
0.271242
0.0236351
0.0228298
0.397552
0.0358667
0.286379
0.0444287
0.0439255
0.0366665
0.530209
0.306574
0.0211084
0.0211219
0.0211323
0.039324
0.0233294
0.0368884
0.0208376
0.0212346
0.0212195
0.193656
0.021174
0.0211802
0.0210537
0.0324017
0.0209491
0.0211538
0.0203173
0.0246459
1.22158
0.0271356
0.0236075
0.0214928
1.11128
0.0255352
0.0199145
0.0213236
0.0198078
0.184122
0.0215328
0.0215745
0.178361
0.0211449
0.0210015
0.0209643
0.0214121
0.0838059
0.0209992
0.0215241
0.0211112
0.0216183
0.0212331
0.0211373
0.0210562
0.0212329
0.0213331
0.399921
0.0212422
0.0206812
0.0773906
0.0485529
0.0256959
0.0624859
0.0209795
0.218819
0.0212862
0.0275838
0.0210803
0.461409
0.0211139
0.0212275
0.0201303
0.320672
0.0240258
0.0211974
0.801366
0.0212071
0.0201263
0.0212123
0.0219589
0.0262693
0.0209592
0.409785
0.0214438
0.0362868
0.0381533
0.0213413
0.0317296
0.0210004
0.0206083
0.0211845
0.337534
0.0246154
0.0246505
0.0386646
0.821103
0.0256777
0.0308337
0.0240364
0.0213003
0.0197743
0.175893
0.40667
0.0209776
0.03335
0.0208959
0.021017
0.38672
0.0205117
0.0212743
0.146504
0.0384722
0.484317
0.02129
0.0210315
0.0349356
0.0209412
0.0200136
0.396075
0.0211955
0.0259143
0.83803
1.35443
0.0213244
0.0221463
0.0211209
0.019827
0.0238996
0.0215675
0.0213985
0.0316609
0.0206744
0.0243177
0.0213458
0.0222964
0.0233538
0.593876
0.0239128
0.021678
0.166855
0.317805
0.0212345
0.269191
0.0216186
0.0212616
0.0213253
0.0209806
0.023561
0.0195299
0.31547
0.0211595
0.0236584
0.0217605
0.0197354
0.0210359
0.021275
0.0232314
0.0208136
0.0211426
0.0218629
0.0214252
0.367818
0.0213636
0.0219856
0.0469852
0.0221371
0.0202159
0.31695
0.239088
0.36562
1.44738
0.0635968
0.0205559
0.0220189
0.562931
0.73545
0.0277819
0.241924
0.31949
0.0214635
0.282448
0.416865
0.0214937
0.1938
0.02185
0.57658
0.259168
0.41509
0.0219135
0.0210053
0.0499198
0.0212599
0.0213507
0.13521
0.0873911
0.0213287
0.021407
0.0211049
0.679863
0.0210852
0.0210589
0.021227
0.0209988
0.0210122
0.178806
0.0217969
0.020958
0.0213679
0.0286315
0.25532
0.636564
0.0212782
0.0211268
0.0224875
0.0212723
0.0209903
0.0211224
0.608617
0.0212204
0.0338047
0.0211316
0.0214511
0.0202997
0.0213095
0.450774
0.237134
0.0205351
0.021656
0.303649
0.404525
0.0393259
0.51793
0.0213047
0.0287124
0.021103
0.019724
0.0210977
0.0201417
0.0210617
0.0212381
0.0215727
0.109909
0.0199111
0.368407
0.605981
0.019816
0.0293856
0.0419062
0.0218309
0.0211217
0.021204
0.0211151
0.021033
0.311944
0.0197865
0.0210708
0.208612
0.0210946
0.0212861
0.0209781
0.0334495
0.0213706
0.0213592
0.65492
0.0206627
0.0205972
0.0210857
0.0327098
0.0212413
0.0196069
0.0210922
0.019919
0.513618
0.140171
0.0210281
0.126718
0.0197586
0.0212452
0.021665
0.26559
0.875765
0.0200045
0.022806
0.0213072
0.0211406
0.0210971
0.0210907
0.273035
0.319946
0.0212789
0.0218066
0.0259958
0.0209572
0.0210612
0.0239449
0.0261468
0.661246
0.0212931
0.0234002
0.41342
0.0211178
0.0234993
0.306465
1.35336
0.0206597
0.0209455
0.0209154
0.0211174
0.0209688
0.275671
0.0210472
0.419056
0.263923
0.0218267
0.0235171
0.307039
0.0199981
0.128809
0.344314
0.103831
0.0246823
0.0211758
0.0222192
0.274445
0.0208169
0.0261314
0.0209524
0.0200085
0.0200708
0.0201229
0.0211256
0.399881
0.0215688
0.446523
0.109618
0.0760726
0.480567
0.0197491
0.0213692
0.0225597
0.341891
0.0211635
0.632587
0.0234425
0.0200004
0.0209271
0.268704
0.0209216
0.0250559
0.321637
0.0210423
0.332887
0.0217657
0.041783
0.156093
0.0213779
0.0205894
0.0374995
0.119068
0.0211894
0.0225737
0.0201758
0.0211391
0.0208633
0.396951
0.0209922
0.0198929
0.0540626
0.0200984
0.335106
0.0213959
0.021171
0.0211145
0.531546
0.0209665
0.0208875
0.530252
0.120142
0.408731
0.0213097
0.0201134
0.0320437
0.73403
0.07515
0.152495
0.0235403
0.023841
0.0215248
0.0212638
0.0239426
0.021711
0.0210819
0.0203742
0.0297902
0.023901
0.0209185
0.0196081
0.021491
0.0205773
0.0211922
0.0236046
0.0975987
0.454243
0.0246172
0.45657
0.401798
0.0206292
0.0209381
0.0219296
0.0326361
0.0201971
0.021372
0.0209044
0.0209919
0.0211362
0.0497171
0.0212644
0.0374057
0.021258
0.020838
0.0127849
0.0338671
0.021377
0.0208696
0.0208428
0.643428
0.0714158
0.0214624
0.020222
0.0215431
0.0209297
0.0212273
0.0210051
0.107398
0.0209896
0.0208395
0.0950115
0.0204704
0.0672199
0.0235146
0.0210229
0.0213021
0.254223
0.0407156
0.276208
0.531981
0.023355
0.0221218
0.0216602
0.0212376
0.0267835
0.0208114
0.699848
0.63895
0.0224824
0.0341071
0.280133
0.0208394
0.461813
0.0229892
0.241869
0.0218107
0.0207731
0.0207896
0.0217044
0.0210707
0.0517477
0.397101
0.0328745
0.0211654
0.020903
0.0208489
0.0636152
0.0230492
0.0136242
0.0208721
0.0212082
0.0316415
0.0210197
0.117914
0.0461101
0.0208676
0.0213663
0.0197122
0.021166
0.330245
1.47141
0.0208512
0.0210441
0.0206534
0.309245
0.0211426
0.0233964
0.140617
0.108032
1.37972
0.145093
0.502818
0.0212379
0.0261926
0.0215269
0.0210697
0.0226928
0.0461414
0.0204569
0.0210994
0.0354221
0.0212458
0.0201459
0.323538
0.0198644
0.0210528
0.0348296
0.34632
0.0200069
0.0201971
0.0421142
0.318032
0.0381496
0.344016
0.0212865
0.655462
0.0209701
0.0240471
0.0451838
0.77026
0.414167
0.0244532
0.670486
0.0736512
0.204737
0.0206006
0.0210064
0.0202132
0.0212362
0.10552
0.020759
0.0471676
0.019967
0.0214963
0.0213117
0.427255
0.021316
0.167307
0.0231181
0.0257333
0.0276741
0.0212535
0.0583295
0.0197029
0.0344664
0.021232
0.064997
0.0214003
0.0365894
0.239332
0.0254405
0.358225
0.0207826
0.388433
0.0234483
0.0244182
0.0213762
0.749563
0.0215124
0.0208816
0.0211953
0.153621
0.0214389
0.0197414
0.0396922
0.0244153
0.0647375
0.0208316
0.0199979
0.787641
0.0360843
0.32831
0.506087
0.020845
0.0189248
0.453576
0.0450429
0.0206666
0.0331366
0.328766
0.0207605
0.0215675
0.0197745
0.0645638
0.376054
0.275878
0.0346888
0.0207922
0.020652
0.0216638
0.0201731
0.0222094
0.0236282
0.0219502
0.0203738
0.497765
0.0216892
0.0212047
0.0215784
0.27548
0.141055
0.0214138
0.0231403
0.0237037
0.475206
0.0207749
0.32357
0.0212984
0.0337432
0.533407
0.0213779
0.359981
0.0203956
0.0197868
0.0207905
0.0208256
0.0206402
0.0208165
0.0197539
0.128068
0.0234556
0.0209941
0.478387
0.0208692
0.021275
0.0206315
0.666028
0.0208909
0.0226046
0.0394745
0.0358265
0.0208979
0.0197629
0.623998
0.0211895
0.47592
0.284341
0.0212701
0.0216318
0.0307887
0.238493
0.0274852
0.0201695
0.0206286
0.0223527
0.0272098
0.0228433
0.0287977
0.0378575
0.0217691
0.0216881
0.0236516
0.021926
0.034372
0.49451
0.0205461
0.334935
0.0320938
0.0212755
0.0209156
0.0208761
0.0208482
0.0206373
0.0209992
0.0207357
0.021579
0.0292401
0.0224747
0.0210242
0.0229969
0.0242242
0.0205828
0.0207021
0.0885448
0.0223299
0.0226127
0.0205661
0.0213846
0.0205423
0.019973
0.43317
0.0213311
0.0210535
0.440309
0.529689
0.384317
0.0208751
0.245293
0.0214512
0.10185
0.483082
0.0216958
0.536466
0.0206713
0.0202879
0.463668
0.0208334
0.0479846
1.38557
0.451053
0.0235503
0.222545
0.0211706
0.0208199
0.0219532
0.0206397
0.440369
0.387392
0.0208604
0.454899
0.0710374
0.0197103
0.0206545
0.0244013
0.212012
0.0784545
0.0243814
0.2899
0.489385
0.0212166
0.431845
0.469589
0.161963
0.560218
0.0207028
0.465594
0.0197489
0.295645
0.305545
0.0197871
0.803601
0.398923
0.0391698
0.0196236
0.348487
0.0203868
0.0206599
1.67065
0.706137
0.02067
0.0211097
0.14354
0.0197397
0.0242429
0.0207849
0.0404694
0.118884
0.022015
0.0214491
0.318651
0.0337395
0.220784
0.329236
0.0207673
0.28746
0.0210174
0.361368
0.0245669
0.0200861
0.40092
0.0213248
0.163657
0.0213458
1.6015
0.021088
0.0210256
0.0202243
0.0213303
0.0204857
0.0214956
0.150502
0.618301
0.020585
1.18981
0.0689925
0.0203082
0.0205505
0.488096
0.0612183
0.174297
0.45122
0.230774
0.0205536
0.0211855
0.225584
0.0248702
0.357122
0.0287888
0.0206149
0.0212154
0.020594
0.0197857
0.0205882
0.0328356
0.0205704
0.336997
0.0208928
0.0213437
0.0757137
0.0197529
0.0330496
0.685086
0.0207916
0.02077
0.0209471
0.02764
0.0196231
0.0201525
0.269939
0.369087
0.0258162
0.0213581
0.0297195
0.0205214
0.0209487
0.0212367
0.297053
0.18805
0.315168
0.411996
0.0306447
0.0405452
0.083453
0.021009
0.022704
0.019633
0.019619
0.023164
0.0208036
0.411759
0.290694
0.0228668
0.628629
0.0282165
0.422048
0.313731
0.0200114
0.0654595
0.0230156
0.0398275
0.021304
0.020445
0.0201093
0.0291988
0.414855
0.462049
0.445127
0.0209577
0.18971
0.0205738
0.179363
0.413143
0.0204642
0.0217675
0.0208842
0.683241
0.314777
0.0216178
0.019613
0.0326697
0.0224041
0.306799
0.0214351
0.0209705
0.472626
0.301943
0.0205166
0.0237618
0.0206775
0.0233283
0.021494
0.463269
0.0206961
0.0215362
0.046188
0.0213302
0.0208371
0.236636
0.045001
0.0214387
0.0212546
0.021637
0.0205827
0.0204905
0.0985398
0.406892
0.0208259
0.023717
0.0208157
0.0213526
0.0213409
0.0211125
0.414408
0.37357
0.0748072
0.37737
0.020746
0.0242243
0.020832
0.0211313
0.0514916
0.0212717
0.150523
0.0207129
0.279926
0.0214044
0.235603
0.32087
0.0202046
0.0208252
0.046553
0.0343032
0.109665
0.339188
0.214533
0.414421
0.0236578
0.021177
0.302089
0.020747
0.315824
0.0199221
0.0736498
0.0273725
0.0208149
0.0210077
0.0208592
0.0362389
0.281324
0.0209544
0.0809447
0.0213524
0.0443945
0.0204645
0.0236891
0.0282533
0.0204316
0.553265
0.0675141
0.0201854
0.388558
0.0620543
0.0699106
0.0204525
0.3493
0.0206538
0.0202138
0.0314451
0.0204504
0.157744
0.0199593
0.0207977
0.0204985
0.023321
0.335735
0.020736
0.383537
0.0197039
0.0248592
0.338276
0.0209242
0.342823
0.0481179
0.031934
0.0980516
0.0210397
0.0205279
0.930495
0.0204711
0.0203549
0.0206586
1.73304
0.334348
0.168812
0.702639
0.020091
0.0210205
0.0205597
0.0311702
0.0206485
0.526994
0.102221
0.0212281
0.367313
0.0226567
0.291737
0.0203729
0.0201613
0.0230395
0.0212998
0.213691
0.471979
0.0203108
0.0217907
0.0206808
0.431656
0.138438
0.0208264
0.424568
0.0209671
0.0212912
0.0197199
0.0200398
0.084454
0.321685
0.0204287
0.354172
0.390157
0.0197609
0.440418
0.0205939
0.0208798
0.062483
0.0203152
0.444992
0.0197918
0.0217284
0.355249
0.0197488
0.0200715
0.0208715
1.93962
0.0245651
0.679234
0.154046
0.0238878
0.0232142
0.166237
0.0204928
0.648978
0.0344554
0.0206259
0.293019
0.62285
0.0438157
0.119004
0.027488
0.0203595
0.43406
0.0649052
0.290094
0.314876
0.0204621
0.0203079
0.0207299
0.388722
0.0202881
0.0201351
0.274939
0.0251736
0.021273
0.0203421
0.0208265
0.0202695
0.0202558
0.111801
0.0208142
0.205141
0.330617
0.0208551
0.0227534
0.0206159
0.020379
0.264138
0.117867
0.512041
0.489518
0.0204951
0.0206603
0.0352551
1.37824
0.334827
0.0203989
0.550973
0.380075
0.0199084
0.0378327
0.0272
0.0201297
0.0208316
0.0205859
0.0209162
0.0200773
0.0627524
0.406315
0.0207548
0.287182
0.0213188
0.0331678
0.0208962
0.0213234
0.026708
0.0590632
0.0257757
0.0203192
0.0197975
0.020275
0.0202707
0.387128
0.0454212
0.390035
0.0706964
0.295461
0.021588
0.0202948
0.0509903
0.295044
0.021216
0.355146
0.0220982
0.0197486
0.150049
0.35472
0.021432
0.0245908
0.0717963
0.609699
0.028078
0.0202574
0.0234278
0.0206942
0.21516
0.0206472
0.358999
0.356431
0.0359592
0.211856
0.0405932
0.0359079
0.303016
0.0208525
0.0203058
0.0206524
0.0207277
0.32972
0.0206054
0.0206125
0.0237401
0.0210359
0.0201766
0.238686
0.249409
0.313071
0.0202012
0.349821
0.318043
0.260421
0.0207041
0.0203237
0.0218968
0.0201545
0.30857
0.023226
0.0202641
0.0278769
0.0205618
0.330764
0.0472392
0.0205938
0.581028
0.131027
0.0203401
0.321809
0.387802
0.0935149
0.0207297
0.304443
0.367364
0.0196296
0.0204932
0.366058
0.0199998
0.0208321
0.404401
0.0210695
0.0203582
0.0205029
0.0203235
0.286824
0.0201618
0.0203329
0.31723
0.0810993
0.0204765
0.0207321
0.236342
0.307616
0.0210415
0.107595
0.0203726
0.663404
0.0699755
0.0215324
0.0202042
0.298559
0.467585
0.0216906
0.0200861
0.385795
0.023142
0.0201858
0.716668
0.0209068
0.0762234
0.0204583
0.364131
0.326448
0.264467
0.345834
0.0204056
0.284235
0.0208441
0.0286254
0.3161
0.0201414
0.047819
0.0198051
0.386077
0.0206781
0.0203308
0.0199581
0.0204403
0.0202114
0.0200975
0.0448713
0.0214316
0.0637379
0.0216753
0.0196925
0.0218823
0.380001
0.0205392
0.286992
0.0202552
0.0210704
0.468187
0.0211243
0.318947
0.0233363
0.150991
0.0200595
0.0201179
0.0214341
0.0214829