/*--------------------------------*- C++ -*----------------------------------*\
| =========                 |                                                 |
| \\      /  F ield         | OpenFOAM: The Open Source CFD Toolbox           |
|  \\    /   O peration     | Version:  v2012                                 |
|   \\  /    A nd           | Website:  www.openfoam.com                      |
|    \\/     M anipulation  |                                                 |
\*---------------------------------------------------------------------------*/
FoamFile
{
    version     2.0;
    format      ascii;
    class       surfaceScalarField;
    location    "100";
    object      phi;
}
// * * * * * * * * * * * * * * * * * * * * * * * * * * * * * * * * * * * * * //

dimensions      [0 3 -1 0 0 0 0];
oriented        oriented;


internalField   nonuniform List<scalar> 
14885
(
0.775833
-0.489529
-0.2863
0.260395
-0.412405
0.151925
0.516705
-0.340181
-0.176655
0.416672
0.057903
-0.474475
-0.67809
0.377746
0.30007
0.137114
-0.453858
0.316759
0.475023
-0.251686
-0.223502
-0.217147
-0.282323
0.499458
0.266768
0.344632
-0.611469
0.120131
-0.304182
0.183978
-0.585163
0.362479
0.222728
0.403345
-0.143027
0.381484
-0.199101
-0.182487
0.723544
-0.257761
-0.465852
0.164861
-0.429264
0.264506
0.228611
0.494874
-0.133784
-0.321233
0.455052
-0.356177
-0.228938
0.194326
-0.441835
0.247368
0.200216
-0.443521
0.243305
0.160291
0.221097
0.427098
0.348729
-0.0750708
0.491669
-0.58382
0.37303
0.210809
0.23143
-0.587394
0.355868
0.310107
-0.651147
0.341019
-0.227438
0.347403
-0.450039
-0.180589
0.630599
0.447696
-0.310555
0.600796
-0.42064
-0.180181
-0.105066
0.522643
-0.417574
-0.182234
0.305359
-0.123186
0.26252
-0.560965
0.298304
0.54721
-0.284873
0.274179
-0.491323
0.376376
0.0921298
-0.46848
0.368399
-0.674575
0.305906
0.303016
-0.612621
0.309649
0.377653
-0.482796
0.458165
0.155156
-0.613316
0.237021
0.363745
-0.294327
0.333444
-0.0153701
-0.318117
-0.431013
-0.0184963
0.449337
-0.269439
0.566614
-0.297178
0.466983
-0.235474
0.572353
-0.64664
0.0742978
-0.314851
0.479881
0.392048
-0.165966
-0.226192
0.225363
0.0637212
-0.289184
-0.0384262
0.371816
0.661152
-0.417765
-0.243385
0.31393
0.389997
-0.195766
-0.0116017
-0.285819
0.29731
-0.186559
-0.00418271
0.190641
0.364257
-0.204031
0.217737
-0.587356
0.369457
-0.221155
-0.196699
0.417857
-0.330659
-0.361043
0.6917
0.172358
0.219564
-0.0327159
0.33078
-0.298234
0.298937
-0.314369
-0.241733
-0.259066
0.500801
0.25453
-0.588578
0.334034
0.276082
-0.568709
0.29254
0.170519
-0.417827
0.247317
0.495085
0.0222357
-0.517353
0.618672
-0.553074
-0.0656013
-0.0337458
0.528795
-0.262238
-0.0610998
0.323271
-0.536655
0.324564
0.212243
0.693597
-0.410357
-0.283298
-0.43988
0.218728
-0.272212
0.548124
-0.300714
-0.574841
0.0900422
0.484762
-0.0614699
0.633826
-0.510904
-0.063974
-0.296987
-0.144985
-0.0292221
-0.401887
-0.346784
0.572172
-0.0524254
-0.519779
-0.369853
0.642777
-0.272793
-0.109734
0.338466
-0.228871
0.353868
-0.0300654
-0.323903
-0.257082
0.427571
0.280699
0.235878
-0.2872
-0.249714
0.537069
-0.584831
0.399796
0.185067
0.103995
0.194753
-0.29885
-0.416309
-0.0128922
-0.0391545
0.338016
0.348783
0.00497391
0.242589
-0.564608
0.322089
-0.374069
-0.118779
0.492964
0.0960896
-0.0495159
-0.217603
-0.390743
-0.0921098
0.482799
0.241781
-0.448055
0.206295
-0.215491
0.319358
0.238861
0.0764008
-0.31542
-0.45679
0.342192
0.114394
0.244322
0.0280433
-0.243309
0.39792
-0.154723
-0.230042
-0.238016
0.468136
0.222839
-0.1294
-0.0935415
0.322176
-0.594522
0.202014
0.272863
-0.458097
0.228011
0.313316
0.152781
-0.465993
0.438839
-0.236979
-0.144743
0.383468
0.247376
-0.489109
0.583739
-0.329183
0.673367
-0.415806
-0.257532
0.63475
-0.255553
-0.379298
-0.321204
0.650632
-0.329527
0.555283
-0.337784
-0.676989
0.326047
0.350972
0.268525
-0.599185
0.213564
-0.370253
0.156576
-0.113322
0.326811
-0.584023
0.314695
-0.474496
-0.110309
-0.370529
-0.258145
0.628731
0.0878108
-0.458484
-0.293299
0.281588
0.202751
0.0474721
-0.25027
0.220711
0.413945
-0.315606
-0.270753
0.586313
0.177354
0.302392
-0.479726
-0.667989
0.329601
0.33845
-0.441573
0.00675688
0.434847
0.217538
0.221173
0.413763
-0.207603
-0.206264
0.182185
-0.429911
0.247705
-0.102148
0.152223
0.261035
0.136685
-0.397881
0.120314
-0.511102
0.377149
-0.222478
-0.154738
-0.362835
0.66222
-0.29944
0.158092
0.0646229
-0.658309
0.208244
0.38164
-0.0752967
-0.306399
0.601916
-0.298841
-0.341812
0.231948
0.202019
0.41665
0.276761
-0.431862
0.154999
0.384609
-0.109726
-0.274939
-0.241474
0.563667
-0.312396
-0.311454
0.623866
0.0894324
0.255685
-0.345082
0.238701
0.0317104
-0.270481
0.576807
-0.334142
0.36571
0.0158694
-0.0933214
0.296027
0.0302791
-0.216926
-0.205286
-0.462654
0.488129
-0.178035
0.0216366
-0.534603
0.512955
-0.141521
0.599701
0.156199
0.257456
-0.545387
0.447445
-0.243146
-0.204492
0.289132
0.0953965
0.405073
0.28845
-0.104533
0.348771
0.546904
-0.170533
-0.168812
0.483824
-0.315158
0.262919
-0.575689
0.312844
-0.351054
-0.0696014
-0.440743
0.376882
0.0637712
0.378207
0.223953
0.165962
-0.115497
-0.325352
0.571676
-0.480957
-0.0907633
0.318426
0.283561
0.529206
-0.351876
-0.346506
-0.206582
-0.155446
0.416258
-0.0936743
0.294499
-0.200925
-0.198091
0.676968
-0.328396
-0.348498
0.10872
-0.548646
0.439892
0.358285
-0.292564
-0.0658166
-0.356082
-0.18043
0.586745
-0.165879
-0.420866
-0.107363
0.241504
-0.134222
-0.305295
-0.28659
0.591904
-0.333997
0.191759
0.172432
0.268233
-0.58395
-0.315972
0.222235
0.282028
0.0109551
-0.293106
-0.0798943
-0.336357
-0.109137
-1.02413e-05
0.109109
0.303947
-0.582296
0.27831
-0.0471871
0.0161847
0.0309841
0.138693
-0.50845
0.249431
-0.0308814
-0.218609
-0.271022
-0.07775
0.348696
0.252347
-0.445799
0.193416
0.327715
0.192905
-0.52055
0.395296
-0.487471
0.583463
-0.253766
-0.592119
0.280051
0.312127
-0.102309
0.340901
-0.209424
0.522937
-0.0106441
-0.430912
-0.286843
-0.191685
0.519454
-0.159025
0.411377
0.292382
0.159628
-0.452086
-0.567812
0.0556825
0.511756
0.528587
-0.56961
0.040987
-0.654994
0.418323
0.236689
0.561773
-0.22449
-0.337431
-0.41468
0.622773
-0.207932
0.296845
0.0377125
-0.0675909
0.0298495
0.573191
-0.310251
-0.0559671
0.0936362
0.494824
-0.3483
0.406317
-0.310255
-0.492013
0.27753
0.214438
0.419471
-0.237362
0.418691
-0.188993
-0.229953
-0.375537
-0.0813887
0.590819
-0.272365
0.507123
-0.41938
0.0805527
0.277622
-0.484127
0.1629
0.450555
0.12105
0.264572
0.147344
-0.398727
0.251242
0.0287824
0.0672815
0.260263
-0.3356
-0.224311
0.597382
-0.552949
0.188451
0.364384
0.239832
-0.483397
0.243427
-0.344841
0.613365
0.412079
-0.553599
-0.313653
0.322178
-0.00865237
-0.472744
-0.205618
0.514995
-0.275283
-0.194704
0.45494
-0.206311
0.295798
-0.151521
0.529074
-0.381825
0.13839
-0.308679
0.576798
0.0228287
0.332996
-0.355922
0.276495
-0.302945
0.0263111
-0.260562
0.537101
0.409059
-0.26181
-0.478396
0.173163
0.198567
0.267457
-0.466173
0.0216068
-0.0711448
0.631653
-0.240584
-0.390904
0.610551
-0.210737
0.636095
-0.331871
-0.304264
0.278241
0.382919
-0.523871
-0.122759
-0.301531
0.284851
-0.00855702
0.387596
0.222975
-0.335298
0.358067
0.741365
-0.444243
-0.296846
0.496331
0.010802
-0.511099
0.183041
0.328286
-0.124238
0.349467
-0.306261
-0.255334
0.561509
0.190071
-0.251254
0.48984
-0.291375
0.267295
-0.574842
0.307335
0.136193
-0.395498
0.259354
0.262122
-0.55359
0.29133
0.292628
0.449
0.315144
0.341479
-0.522129
0.513493
-0.247136
-0.266534
-0.0138029
-0.0953651
0.40692
-0.270802
-0.0772793
0.564351
-0.48828
0.0237651
0.0810538
-0.104839
-0.552294
0.334987
0.217222
-0.370559
0.545895
-0.175363
0.672354
-0.309598
-0.36278
-0.490411
0.178051
0.157136
0.198291
-0.355513
0.582218
-0.269672
-0.312715
-0.573641
0.0411109
0.532168
-0.539999
0.107355
0.432531
-0.200992
-0.577814
0.156156
0.421691
0.107575
-0.297296
0.189515
0.144861
0.274507
-0.301968
-0.208934
-0.427627
-0.227349
0.392319
-0.153458
0.0910604
0.495686
-0.234021
-0.319035
-0.395747
-0.156609
0.21394
-0.246791
-0.230782
-0.34735
0.578047
0.599634
-0.187552
-0.19382
0.301267
-0.145963
-0.3941
-0.142338
0.510756
-0.456139
0.508885
-0.0526594
-0.566121
0.192076
-0.456267
-0.121522
0.301628
0.280421
0.355414
0.316919
-0.488824
-0.0350443
-0.356966
0.465674
-0.40201
0.588173
-0.186194
0.400226
0.273171
-0.547177
0.576684
-0.0294893
-0.090382
0.280366
0.560947
-0.29386
0.158649
-0.49932
0.340669
0.196371
0.364451
-0.560835
-0.555231
-0.0129431
-0.267443
0.569093
-0.301767
0.236221
0.292993
-0.253993
0.344362
-0.187311
0.29579
0.287778
0.259809
0.234537
-0.494131
-0.538803
0.0492674
-0.563794
0.000656783
0.563119
-0.221332
-0.370725
-0.662532
0.35289
0.0972822
0.0782171
-0.175672
-0.339181
0.497824
0.288598
-0.597486
0.443465
-0.154452
0.162441
0.214646
-0.360841
0.159113
0.201668
0.265243
-0.610082
-0.297283
0.586445
-0.28923
-0.0122911
0.54849
-0.53606
0.291038
0.299813
-0.29246
-0.259784
0.552265
0.477842
0.0417809
-0.519618
0.541737
-0.266992
-0.274859
0.432234
-0.257138
-0.175024
-0.315661
-0.24888
0.261332
0.28029
-0.539401
-0.0233092
0.562664
0.355519
-0.0248925
-0.587891
0.320372
-0.21328
-0.278794
0.572183
-0.172847
0.0689714
0.103798
0.0151074
-0.489949
0.474852
0.246472
-0.484373
-0.260652
-0.414182
0.191305
0.255964
0.362435
-0.546406
0.183905
0.32234
0.121018
-0.398746
-0.514476
-0.0172756
0.531864
-0.557461
0.272483
0.284961
-0.296145
0.0174527
0.275353
-0.292907
-0.526923
-0.543764
0.531697
-0.537132
-0.378564
-0.223905
-0.371372
0.341138
0.249389
0.263843
-0.513238
-0.250118
-0.324939
-0.491762
0.0990935
0.392504
-0.294726
0.048896
0.245611
-0.0886602
-0.282832
-0.260148
-0.249002
0.50928
-0.396677
-0.0952379
0.161013
0.257419
-0.297187
0.533372
0.0555471
-0.228002
0.172394
-0.27674
0.499459
-0.319095
0.645214
0.215832
0.268944
-0.48477
0.177311
-0.547879
0.22324
0.266486
-0.187344
0.0237281
0.163577
0.177807
0.254498
-0.583444
0.290286
0.29307
0.456078
-0.133764
-0.17242
-0.130654
0.319112
-0.530875
0.211739
0.495189
-0.221016
-0.425658
0.347371
0.202223
0.103088
0.10137
-0.51909
0.00546556
-0.0728672
0.0673615
-0.259212
-0.331736
0.590937
0.0695469
-0.167769
-0.00387071
0.171593
-0.534428
-0.00502092
0.349473
-0.187108
-0.424655
0.589436
-0.164748
0.568079
-0.379725
0.495924
-0.272725
-0.0477056
-0.342307
0.389999
0.415206
-0.0960552
-0.319259
-0.310009
-0.173527
0.448048
-0.270073
0.214363
-0.493568
0.279197
-0.147814
0.404565
-0.256821
0.467531
-0.133923
-0.333745
-0.275957
0.603342
-0.367402
-0.235951
-0.401333
0.253477
0.3224
0.275575
-0.598035
0.338507
0.117539
0.571561
-0.280573
0.351905
0.325132
-0.300282
0.485343
-0.434591
-0.0508527
-0.289846
0.445512
-0.155853
0.342696
-0.390447
0.350826
0.280972
-0.169137
0.460826
0.0244372
0.518659
-0.580148
0.284838
0.130273
0.378402
-0.286266
-0.558176
0.133535
0.435231
-0.244029
-0.311982
0.339941
-0.0280183
0.304949
0.560028
-0.616053
0.0559953
0.180001
-0.184272
0.308566
0.294156
-0.60273
0.532915
-0.231518
0.503045
-0.243948
-0.259223
-0.197837
-0.331949
-0.391071
0.604266
-0.213197
0.496076
-0.281754
0.376938
-0.220823
0.236114
-0.65819
0.312646
0.345601
0.251537
0.309218
0.395391
-0.102265
-0.293246
0.33396
0.0613349
-0.202598
0.258063
-0.394931
0.319714
0.26348
-0.555898
0.268108
-0.0311833
-0.156205
-0.647409
0.594337
-0.299946
-0.294413
-0.454406
0.401762
-0.0815025
0.427248
-0.345816
-0.332956
-0.248909
0.581901
-0.596329
0.263395
0.451849
-0.236024
-0.573716
-0.235478
0.24602
0.133788
0.395911
0.136822
-0.316895
-0.258718
0.141856
0.234994
0.290143
0.258357
-0.548514
-0.0279654
-0.0911112
0.119046
0.0237354
-0.335795
0.115242
-0.465059
0.349741
-0.451278
-0.112522
0.141373
0.178453
-0.441695
-0.10547
-0.266297
0.0937353
-0.507118
0.200466
0.306843
-0.231809
0.535665
0.213389
0.234827
-0.375346
0.495592
0.157911
-0.520774
-0.266043
-0.115895
0.299759
0.294558
0.556795
-0.305431
0.592559
-0.196428
-0.396165
0.515549
0.0444354
-0.312143
-0.238876
0.551113
-0.449351
0.520739
-0.28419
-0.236595
0.364812
0.271243
-0.334066
-0.228154
0.562153
0.244008
-0.528158
0.284016
0.201607
0.147791
-0.540124
0.516755
-0.565931
-0.314217
0.421522
-0.353708
0.383949
-0.0303438
-0.253927
-0.243105
0.497183
-0.530885
-0.00358846
0.203315
0.283354
0.237313
-0.346467
0.28906
0.0572502
-0.512892
0.228965
0.283935
0.537346
-0.587481
0.0501905
-0.327535
0.595244
-0.267717
-0.155066
0.39051
-0.235626
-0.153791
-0.241109
0.394787
-0.217916
-0.205509
0.423374
0.609965
-0.329796
0.0756501
-0.615835
0.154247
0.327811
-0.48215
0.223168
-0.469596
0.246402
-0.502385
0.188137
-0.590295
0.350966
0.239627
0.171304
0.362875
-0.444094
0.258804
0.222148
-0.480844
0.305948
0.248386
-0.55434
0.295071
0.17232
-0.28735
-0.225533
-0.163165
-0.212516
0.246359
0.188771
0.0142273
0.267433
-0.281862
-0.312937
-0.269398
-0.173664
0.423654
-0.250245
-0.457433
0.294129
-0.238383
0.530546
-0.292305
0.151265
-0.478803
-0.0715379
-0.282265
0.234349
-0.494338
0.639191
-0.446583
-0.192682
0.533793
-0.289843
-0.418537
0.299871
-0.240858
0.504094
-0.263331
-0.184337
0.350063
-0.165943
0.300768
0.00202501
-0.315804
-0.417016
-0.0973694
-0.416656
0.231727
-0.552174
0.320347
-0.0505399
-0.335264
-0.254703
0.176344
0.131481
-0.307934
0.131494
-0.545884
0.347957
0.202776
-0.550757
0.314479
-0.300358
-0.357876
0.62312
-0.412994
0.365043
0.0477979
-0.0394488
-0.30717
0.0529703
-0.461598
0.408563
-0.271366
-0.270661
0.541935
0.167343
-0.0701505
-0.265276
0.556018
-0.290896
0.259991
-0.566675
0.563942
0.00266808
0.456681
0.182444
0.366951
-0.650188
0.28326
0.373601
-0.621822
0.248216
-0.25439
0.576586
-0.322377
-0.234974
-0.29455
0.442274
-0.147878
0.290112
0.219703
-0.509883
-0.00349587
0.539901
-0.536407
0.0615324
0.205536
-0.267165
0.21812
0.179692
0.302237
0.430141
-0.415036
0.295754
0.283157
-0.578991
0.294566
-0.233154
-0.165434
0.527815
0.55862
-0.326932
0.301786
0.308296
-0.103813
0.409706
-0.305719
-0.309929
0.124378
0.185463
-0.0711547
0.459662
-0.388563
0.452157
-0.399231
0.499209
-0.0643676
0.000314479
0.508644
0.23951
0.241823
-0.481187
0.553428
0.00433942
-0.557774
-0.0491315
0.262558
-0.459828
0.197507
-0.234009
-0.110678
0.344513
-0.270183
0.553628
-0.283395
0.23385
-0.543897
0.310016
-0.346229
-0.142594
0.230878
-0.404778
0.327601
-0.606054
0.144418
0.552456
-0.290416
-0.352303
0.260275
0.262243
0.341089
-0.0348516
-0.260083
0.388332
-0.346428
0.679592
-0.330869
-0.31739
-0.295186
0.0170347
-0.532279
0.515144
0.585607
-0.237732
-0.100814
-0.0720982
-0.55604
0.209811
0.30056
-0.57299
0.272455
-0.234787
0.484202
0.287201
0.160792
-0.539355
0.499562
-0.553662
0.017898
0.535791
0.350245
0.0449087
-0.395294
0.56032
-0.24126
-0.470218
0.0813699
0.388745
0.415325
0.246846
-0.0699739
-0.4003
-0.412671
-0.358837
-0.122167
0.53787
-0.304058
0.3572
-0.428373
-0.146192
0.312986
-0.331689
0.51173
-0.405861
-0.10591
0.214082
0.281809
0.343586
0.384491
0.238424
-0.395509
0.22285
0.17243
0.169918
-0.626351
-0.434537
0.0536513
0.380856
0.123897
0.38779
0.316811
0.280678
0.2342
-0.391962
0.288353
0.49589
-0.235936
-0.475007
0.116354
0.358687
-0.163164
0.513288
0.295008
0.273968
0.32153
-0.0794382
-0.242117
0.239573
0.215572
-0.454984
-0.33637
-0.182959
0.519292
0.570614
-0.285002
-0.285528
-0.222851
-0.263994
0.487033
0.538411
-0.248286
0.629979
-0.265167
0.0177315
-0.114529
-0.360457
0.173068
0.233797
-0.213444
-0.437723
0.176832
-0.153113
-0.337317
-0.179295
0.516334
-0.178716
-0.217022
0.495855
-0.340708
0.454552
-0.208663
-0.525484
0.0900107
0.447399
0.366815
-0.250299
0.509186
-0.258846
-0.35429
0.301562
-0.340907
0.106747
0.485438
-0.226503
-0.523461
0.519966
0.558731
-0.0360836
-0.547096
0.258888
0.288285
-0.274865
0.579077
-0.304114
0.307368
0.238284
-0.545736
-0.332035
0.147468
-0.0898597
0.402623
0.206087
-0.520797
-0.51939
0.269689
0.275271
0.274762
-0.549928
-0.501865
-0.120091
0.444773
0.309587
-0.116734
0.535068
0.320604
0.250346
-0.570795
0.536842
-0.256247
0.227942
-0.164301
-0.277645
0.593894
-0.316248
0.488643
-0.21123
0.698625
-0.436464
-0.261926
0.0831328
0.0946017
-0.17778
-0.133664
0.30871
-0.575944
0.387416
-0.0490732
-0.572358
0.333236
0.239123
0.341344
-0.127529
0.245855
0.2909
0.300517
0.270185
0.558176
-2.70747e-05
-0.558187
-0.499529
0.249266
0.235784
-0.486624
0.250842
0.582729
-0.282306
-0.158434
0.337453
-0.54766
0.406232
0.141474
0.243951
-0.601819
0.321407
0.264979
0.554667
-0.260672
-0.293981
0.171612
-0.10273
-0.0613189
0.0612825
-0.396955
-0.177935
0.574859
0.304886
0.261703
0.288468
0.31955
-0.607977
-0.56529
0.174204
0.312587
-0.488989
0.146676
-0.257181
0.529652
0.172487
0.0689364
0.243925
-0.513098
0.269118
0.044701
-0.434756
0.390097
-0.472787
-0.133293
0.390062
-0.235875
0.500211
-0.265604
-0.315706
0.607183
-0.291482
-0.207091
-0.299843
0.181652
0.245101
-0.426654
-0.288521
0.143936
-0.410123
0.159646
-0.526274
0.366547
0.213462
0.293864
-0.50708
-0.503473
-0.0455164
-0.36432
0.409842
-0.488631
0.55107
-0.0632071
0.185755
-0.257606
-0.304549
0.562174
0.274942
-0.529866
0.254889
0.34939
-0.608616
-0.17062
0.493002
0.601194
-0.2993
-0.134173
-0.413468
0.488307
-0.274233
0.537305
-0.23136
0.0539375
-0.363581
0.408268
-0.257791
0.206017
-0.34462
0.138436
-0.275447
0.282413
-0.206176
-0.239245
0.125785
0.370052
0.00218313
-0.412534
0.146943
0.174555
-0.543534
-0.391701
0.449832
-0.0584029
-0.268713
0.558899
-0.278562
-0.232408
-0.266566
-0.263249
0.469469
-0.463195
-0.553845
0.17306
0.380718
-0.379822
0.0474734
0.332238
0.351427
0.238168
-0.589626
0.154375
0.331793
-0.486191
-0.144949
0.378656
-0.233777
-0.338895
0.582851
0.345032
-0.606706
0.261676
-0.446305
-0.0432296
0.240256
0.262663
0.545918
-0.545665
-0.200585
-0.288418
-0.0542328
-0.376063
0.430366
0.481015
-0.399867
-0.034719
0.242921
-0.535011
0.292093
0.304242
-0.157312
-0.398474
0.244529
0.437837
0.26101
0.1708
0.325239
0.671132
-0.334797
-0.336378
0.568507
-0.289924
-0.278469
0.25047
-0.557265
0.306766
0.414421
-0.253654
-0.503258
0.155887
0.210551
0.444353
0.124289
0.168628
0.306179
-0.484531
0.17816
0.57053
-0.320092
0.160667
-0.401849
0.343097
0.185837
-0.528983
0.433525
-0.188421
0.388712
-0.182865
-0.349764
-0.408955
0.290792
-0.553251
0.262442
-0.316538
0.4749
-0.158215
-0.591513
0.156777
0.482798
0.102559
-0.585179
0.187378
-0.369594
0.18221
0.0706285
0.218256
0.215893
0.434666
0.221455
-0.47765
0.256296
0.354461
0.249806
-0.301688
0.595883
-0.270213
-0.283063
-0.275578
0.558766
-0.306228
0.275409
-0.553053
0.214664
0.304752
-0.519408
0.213096
-0.479137
0.265964
0.326677
0.297701
-0.62436
-0.238532
0.259425
-0.316352
0.602874
-0.286652
0.072249
-0.464202
0.588255
-0.267547
0.303772
-0.571232
0.267565
0.601151
-0.452933
0.165507
-0.31116
-0.261197
-0.0979225
-0.540988
0.228893
0.367203
-0.216213
-0.15118
-0.323327
0.140399
0.0364114
-0.270584
-0.278838
0.549411
-0.138528
-0.219869
0.361666
0.186668
0.340869
0.330222
0.277999
-0.593725
0.600018
-0.254983
-0.256556
-0.31048
0.566915
0.397304
-0.202323
-0.195202
-0.246209
-0.140925
0.112944
0.54914
-0.240475
-0.308734
0.512078
-0.341323
0.354282
0.247022
-0.244342
0.519264
-0.160125
-0.314349
-0.391201
-0.0219439
0.228728
-0.531659
0.302889
0.28668
-0.339649
-0.0402711
0.1079
-0.0268658
0.480462
-0.300616
0.242465
-0.279336
0.606033
0.636309
-0.269231
-0.367122
0.00598963
-0.354549
0.348428
-0.581261
0.171529
0.409731
0.300293
0.301895
-0.563602
0.261629
-0.278124
0.0935879
0.184346
-0.0911691
-0.32829
0.284123
-0.622994
-0.1066
0.312054
-0.228661
-0.259903
0.488639
-0.127137
-0.209701
0.336707
-0.527769
0.495323
-0.340968
0.568486
-0.521625
-0.0468474
0.428206
-0.181921
0.290088
-0.501327
0.21129
0.588814
-0.292952
-0.525869
0.188304
0.309938
-0.572001
0.297123
-0.319849
0.0158075
0.303947
0.270513
-0.264123
-0.264153
0.315048
-0.3846
-0.276446
-0.29892
0.575422
0.157575
0.146655
-0.200858
0.581385
-0.229986
-0.503692
0.32429
-0.620974
0.205178
0.282321
0.306569
-0.438796
-0.116613
-0.489967
0.194544
-0.414569
0.219691
-0.271747
0.489127
-0.183121
-0.622781
0.277951
0.344811
0.499855
0.2267
0.306562
-0.583195
0.276638
0.399082
-0.343393
0.291203
0.19775
0.273239
0.369643
-0.394534
0.105736
0.288687
-0.210642
-0.270972
0.376534
-0.105747
-0.371147
0.155566
-0.230538
0.424772
-0.540223
-0.275994
-0.0636357
0.205753
0.121449
-0.185116
0.282187
0.126316
0.264023
0.127113
0.0444046
-0.307679
-0.0122657
-0.0262196
0.243635
0.373697
-0.427066
0.0533462
0.151967
0.268844
-0.421017
0.536762
-0.193701
-0.244748
0.668138
-0.327298
-0.281186
-0.240209
0.521363
0.20234
0.141181
0.614748
-0.247745
-0.136961
0.313323
-0.176459
0.453776
-0.338663
-0.378097
0.332566
-0.448146
-0.302367
0.621945
0.570882
-0.197209
0.446009
-0.206342
0.0964984
-0.41773
-0.310122
0.542532
-0.23252
-0.323173
0.555055
-0.231904
0.141358
0.191236
-0.332689
-0.566009
0.236562
0.32936
-0.342156
-0.211763
0.533454
-0.00795719
-0.525311
-0.130877
-0.0117174
0.142551
-0.25907
0.395556
-0.136404
-0.259192
0.531088
-0.271939
-0.650159
0.294665
0.355476
0.441939
0.111465
0.274884
0.205129
0.523893
-0.309189
0.218367
-0.280283
0.508998
-0.421549
-0.241267
0.419245
-0.177974
0.0158874
-0.353449
0.166775
0.275341
-0.249176
0.151224
-0.379021
0.0184196
-0.149339
-0.149603
0.312129
-0.162594
-0.556648
0.179877
0.376864
0.304018
-0.15188
-0.152225
0.247034
0.513743
-0.265038
-0.248729
-0.475971
0.17845
0.297328
0.236839
-0.46914
0.0677367
0.344526
-0.203279
0.302945
-0.0711551
-0.231829
0.542146
-0.251379
0.525782
-0.245218
-0.0832355
-0.385951
-0.273098
0.576927
-0.185934
-0.28664
0.285981
0.28264
-0.251808
-0.00526422
0.0148279
-0.554793
0.299423
0.44671
-0.294937
0.21649
-0.146226
0.348855
-0.202725
-0.294011
0.487175
-0.193123
0.285155
0.351108
0.204952
0.283341
-0.309381
0.145872
0.221158
-0.530363
-0.00186462
0.355121
-0.142083
-0.213174
-0.292527
-0.21632
0.508827
-0.265044
0.558454
-0.293479
-0.608534
0.288954
0.319534
0.3426
-0.151477
-0.199421
0.422032
-0.552961
0.268237
0.303373
0.251305
0.251284
0.262436
0.460852
-0.335068
-0.156822
-0.434664
0.292434
-0.18805
0.500792
-0.279374
-0.221431
0.233342
0.19632
-0.427061
-0.275517
0.606408
-0.330898
-0.370696
0.312879
-0.307019
-0.450737
0.0996933
-0.368523
-0.284096
0.202527
0.25712
-0.459759
-0.226668
0.550474
-0.323879
-0.261555
0.61697
0.345445
0.204181
-0.54967
0.183618
-0.475539
0.29249
-0.557668
0.238676
-0.562103
0.323257
0.304584
0.229152
-0.233104
0.37209
-0.160317
-0.211684
0.277722
-0.560781
0.224195
-0.5045
0.236155
0.165454
-0.622065
0.289131
0.332941
-0.347442
0.402826
-0.0553106
0.188584
-0.334894
0.345273
-0.606819
-0.539104
0.279441
-0.292971
-0.275619
0.568646
0.266649
-0.235008
-0.0698342
-0.51143
-0.297278
0.579252
-0.281929
0.276214
-0.537876
0.261625
0.321684
0.248822
-0.229416
-0.310467
0.560049
-0.249628
-0.574549
0.281566
-0.255319
-0.23231
0.487608
0.43186
-0.235706
-0.253923
-0.31609
-0.334085
-0.321717
0.345415
0.291071
-0.210952
0.50096
0.270471
-0.177
-0.283347
-0.280217
0.504412
0.508677
0.0124324
-0.521212
-0.302985
-0.0916626
-0.311653
-0.139972
0.451688
-0.232162
-0.0861842
-0.380839
0.466983
-0.177977
-0.265546
-0.252364
0.0374011
-0.138263
-0.223024
0.406487
-0.56287
0.172135
-0.555019
0.297313
0.00262197
-0.306262
0.129895
0.257374
0.303216
-0.510751
0.20754
-0.202277
-0.618507
0.318245
0.300176
-0.22267
0.431038
-0.208638
-0.494114
0.182537
0.367816
0.548017
-0.271832
-0.246615
0.587526
-0.341076
-0.168284
-0.247991
0.469527
0.594386
-0.309106
-0.285428
-0.110775
-0.355561
0.46627
-0.186971
0.145437
0.504084
-0.200885
0.516303
0.368803
-0.625511
-0.152763
0.4373
-0.284653
-0.277059
0.250757
-0.114219
-0.439418
0.197955
-0.403514
0.281611
0.257995
-0.539597
0.642989
0.528337
0.453604
0.23099
-0.580067
0.349086
0.350404
-0.217454
-0.13307
-0.160998
0.283557
-0.122612
0.250321
0.326096
-0.313599
0.548439
-0.241137
-0.556852
0.318906
0.237924
-0.178315
0.479815
-0.115329
0.57467
-0.278997
-0.292982
0.586014
-0.292983
-0.276116
0.187429
0.267483
0.130998
0.4375
0.178878
0.249246
0.00322576
0.255593
-0.594901
0.339316
-0.235194
-0.288332
0.493258
0.609792
-0.354214
0.276555
0.271434
0.533789
-0.289111
-0.244621
0.319662
-0.608988
0.289306
0.331881
-0.0896833
-0.242357
0.153338
0.218841
0.259164
0.0437465
0.292699
-0.341885
0.23767
-0.444953
0.207007
-0.571941
0.295555
0.267523
-0.128904
-0.0792652
0.371796
0.0678808
0.381338
-0.449194
-0.202736
0.273186
0.23825
-0.388916
0.286316
0.519286
0.0137447
-0.533044
0.224243
0.309603
0.543104
-0.363137
-0.556729
0.233546
-0.274486
0.462109
-0.187788
0.325005
0.380639
-0.227789
0.119942
0.230345
0.277705
-0.585365
0.307585
-0.262912
0.606096
-0.343197
0.293757
0.346866
0.352018
0.614072
-0.530481
0.522603
0.309334
0.261954
-0.571285
0.294561
0.252774
-0.547531
0.282127
-0.559712
0.277625
-0.232906
-0.187228
-0.32352
0.148912
-0.202066
0.442813
-0.240848
-0.103602
-0.162823
-0.303067
0.541328
-0.59046
0.281232
0.308957
-0.0694541
-0.381265
-0.388759
0.456664
0.111988
0.219736
0.0864351
0.318065
0.532107
-0.227587
0.241006
0.294156
-0.535146
-0.433615
-0.0927276
0.127081
0.139666
-0.266843
0.140861
0.0951464
-0.479215
0.250673
-0.654353
-0.615315
0.355845
0.259447
-0.542652
0.319595
0.223002
-0.539504
-0.638289
0.335553
0.302696
-0.252708
-0.33099
0.573335
-0.242414
0.556689
-0.332407
-0.109605
0.418132
0.255583
-0.151871
-0.547678
0.173651
0.374057
-0.195001
-0.289527
0.484413
0.0167607
-0.138005
0.349126
-0.211156
0.187055
0.369675
-0.59029
0.305673
0.284758
0.28839
-0.475392
0.187006
-0.330199
-0.308135
-0.356539
0.208263
0.148188
-0.540588
0.28328
0.257128
0.47271
-0.0774853
-0.229345
0.402233
0.30904
0.273606
-0.322192
0.55601
-0.23384
0.277806
-0.155017
0.229625
-0.391109
0.435932
0.421341
-0.126401
0.552449
-0.305912
-0.246575
-0.305909
-0.0895672
-0.202457
-0.384976
0.543178
-0.260984
-0.469615
0.145012
0.356076
-0.501118
0.172262
0.248936
-0.474415
0.24374
0.230703
-0.12071
0.462717
-0.325661
-0.140691
0.360415
-0.160269
-0.200299
-0.497554
-0.233176
0.378836
0.279248
-0.572124
0.292752
0.13281
-0.206466
0.497521
0.266562
0.190881
-0.457585
0.311505
0.220542
0.314145
0.264443
-0.578622
0.180457
0.132764
-0.381643
0.566784
0.555234
-0.277466
0.324456
-0.551165
0.615422
-0.293908
-0.321623
-0.247441
0.531208
-0.283753
-0.399511
0.17463
0.224858
-0.263577
0.56055
-0.297024
0.267904
-0.573067
0.305172
6.71134e-05
0.606122
-0.606438
0.168538
0.154671
-0.274298
0.56325
-0.288938
0.268352
0.29003
0.297153
0.26668
-0.563837
0.241167
0.302104
-0.543272
0.210114
0.144879
0.140773
-0.568369
-0.311947
0.541728
-0.26013
-0.203229
0.548628
-0.516556
0.257316
-0.458192
0.19211
-0.360597
0.269075
0.187156
-0.456299
0.220842
-0.501096
-0.0150857
0.523738
-0.256944
-0.156142
0.144364
0.209756
-0.480918
0.271151
-0.474001
0.0868182
0.168668
-0.616901
0.377988
0.238886
-0.354308
-0.291349
-0.2938
-0.319205
0.61298
0.28612
-0.397953
0.2266
0.196787
0.263567
0.267476
-0.56047
0.314534
0.245951
-0.0026804
0.550062
-0.547361
-0.39024
0.556986
-0.166724
-0.278311
0.499058
-0.193238
0.415074
-0.221897
0.304156
0.199913
-0.357924
-0.279784
0.294449
-0.558095
-0.447091
-0.133084
0.510756
-0.212673
-0.298207
0.546348
-0.232231
0.143264
0.127089
-0.305304
-0.313286
0.160661
-0.305486
-0.539103
0.168325
0.370796
-0.476366
-0.355168
-0.266892
0.389229
-0.131888
-0.293634
0.598762
-0.305209
-0.286985
-0.163509
-0.519833
0.519834
0.296898
-0.564171
0.267255
-0.148862
0.306415
-0.165739
-0.209593
-0.291668
-0.344279
0.14817
0.196012
0.230087
0.268827
-0.216931
0.382939
-0.287056
0.565153
-0.050745
0.562132
0.205906
0.313352
0.171722
0.132208
-0.257537
0.569695
0.239322
0.26469
-0.18266
0.269427
0.283265
-0.552666
-0.521527
0.274239
0.448118
-0.257121
-0.191024
0.468246
-0.212541
-0.255677
0.264335
0.246916
-0.511227
0.545599
-0.183087
0.190871
-0.428741
0.237834
0.371839
-0.458044
0.223906
0.269825
-0.563436
0.293621
-0.282805
0.527542
-0.263225
-0.254358
-0.422335
0.413116
-0.215228
0.538465
-0.250067
-0.288645
0.0523941
0.247311
-0.299827
0.227528
0.187484
-0.274343
-0.137841
-0.148889
-0.282557
0.570957
-0.205963
-0.29715
0.502972
-0.612296
0.274986
0.337326
0.0219879
0.576002
-0.270529
-0.305189
-0.382583
0.318873
0.549906
-0.294418
0.577364
-0.282905
-0.263945
-0.531588
0.291942
0.239644
-0.571485
0.27101
0.300569
0.401473
-0.585243
0.18375
-0.28867
-0.261957
0.550651
-0.277927
0.404643
-0.19092
0.261518
-0.49562
0.266254
-0.606207
0.339967
0.200766
0.147991
0.318657
0.116983
0.304221
0.272058
-0.27874
0.574079
-0.295473
-0.287428
0.55748
-0.270074
-0.0239479
-0.116986
-0.139494
-0.193283
-0.508299
0.0898652
0.293359
-0.57216
0.283071
0.417503
0.196394
0.148018
0.587151
-0.272491
0.569778
-0.297322
-0.280667
0.557213
0.608017
-0.341786
0.556785
-0.246206
-0.377208
-0.3019
-0.288251
0.431431
-0.240554
0.521308
-0.282815
-0.238229
0.572792
-0.29375
-0.241047
-0.326185
0.567272
0.235513
-0.461598
0.225978
0.319895
-0.599253
0.324785
-0.271802
-0.0531012
-0.0630849
-0.605551
0.273823
0.266978
0.304495
-0.571165
0.281868
0.260256
0.106682
0.0123234
0.29815
0.264552
-0.562749
0.148371
0.197669
-0.346154
-0.531414
0.530346
0.00130139
0.301852
-0.577439
-0.208941
0.508023
-0.298933
-0.258784
0.0780933
0.325188
0.141536
-0.483782
0.0917924
-0.346563
0.474701
-0.128144
-0.13865
0.273512
-0.134909
-0.27807
0.517312
-0.344441
0.141596
0.18815
0.259938
0.376359
-0.207528
-0.168809
0.246471
-0.00437044
0.519276
0.210847
0.607699
0.148166
0.194319
0.0617024
0.270871
-0.332665
-0.365436
0.273648
0.293622
-0.567217
0.254465
0.21381
0.340491
-0.246924
-0.346379
0.143028
0.128833
0.516448
-0.520796
0.640039
-0.321869
-0.237686
0.516604
-0.278933
0.562356
-0.29253
0.12165
-0.225352
0.343147
-0.195437
0.31362
-0.589135
-0.239433
0.606779
-0.359086
-0.247683
-0.202642
-0.211269
0.448695
0.350202
-0.538418
0.188186
-0.35297
-0.213126
0.284166
-0.125059
0.131283
-0.00628998
0.464304
0.0149435
-0.479205
-0.0680032
-0.58858
0.106782
0.343704
0.0767729
0.247887
-0.210909
-0.234316
0.283621
0.283692
-0.567223
-0.350432
0.147088
-0.279168
0.49787
-0.218638
-0.562109
0.284101
0.277954
-0.298644
-0.272751
-0.17707
-0.242681
-0.374247
0.0115439
0.168389
-0.251748
0.371575
-0.0777212
0.297003
-0.505784
0.170378
0.196719
0.234719
-0.283623
0.553226
-0.544287
0.233793
-0.480079
0.53928
-0.0592162
0.298099
0.0857416
-0.39822
0.175089
0.365265
-0.155275
-0.336803