/*--------------------------------*- C++ -*----------------------------------*\
| =========                 |                                                 |
| \\      /  F ield         | OpenFOAM: The Open Source CFD Toolbox           |
|  \\    /   O peration     | Version:  v2012                                 |
|   \\  /    A nd           | Website:  www.openfoam.com                      |
|    \\/     M anipulation  |                                                 |
\*---------------------------------------------------------------------------*/
FoamFile
{
    version     2.0;
    format      ascii;
    class       volVectorField;
    location    "450";
    object      cellDisplacement;
}
// * * * * * * * * * * * * * * * * * * * * * * * * * * * * * * * * * * * * * //

dimensions      [0 1 0 0 0 0 0];


internalField   nonuniform List<vector> 
9793
(
(0 -0.000345496 0)
(0 1.9834e-05 0)
(0 -0.000719596 0)
(0 1.97335e-05 0)
(0 -0.000153855 0)
(0 -1.07615e-06 0)
(0 5.9302e-06 0)
(0 1.96386e-05 0)
(0 -0.000281468 0)
(0 1.98353e-05 0)
(0 -0.000258051 0)
(0 -0.000283568 0)
(0 -0.000519852 0)
(0 -1.06247e-05 0)
(0 -0.000389189 0)
(0 -0.000397716 0)
(0 -4.23046e-05 0)
(0 -0.000680332 0)
(0 1.94891e-05 0)
(0 -0.000376596 0)
(0 -0.000489499 0)
(0 -3.02921e-05 0)
(0 1.97036e-05 0)
(0 1.96283e-05 0)
(0 -1.23314e-05 0)
(0 -0.000102293 0)
(0 -0.000443167 0)
(0 -5.09175e-05 0)
(0 -0.000372496 0)
(0 -4.71795e-06 0)
(0 1.98321e-05 0)
(0 9.60002e-06 0)
(0 -0.000748675 0)
(0 -0.000657272 0)
(0 -3.14929e-05 0)
(0 -0.00017943 0)
(0 -0.000402589 0)
(0 -0.0001623 0)
(0 1.32525e-05 0)
(0 -9.00948e-05 0)
(0 -7.3976e-06 0)
(0 1.4772e-05 0)
(0 1.94284e-05 0)
(0 -3.63239e-05 0)
(0 -0.000847154 0)
(0 -0.000818 0)
(0 1.98184e-05 0)
(0 -5.10692e-05 0)
(0 -0.000577985 0)
(0 -0.000689572 0)
(0 -0.000188417 0)
(0 -3.70382e-05 0)
(0 -9.88644e-05 0)
(0 -0.000100729 0)
(0 -3.21973e-05 0)
(0 1.96515e-05 0)
(0 -0.000504154 0)
(0 -6.60116e-05 0)
(0 -0.000563964 0)
(0 -2.73132e-05 0)
(0 -0.000115379 0)
(0 1.44109e-05 0)
(0 -0.000722813 0)
(0 -0.000220718 0)
(0 -8.57359e-05 0)
(0 -0.000293458 0)
(0 1.98353e-05 0)
(0 -0.000188863 0)
(0 -0.000417804 0)
(0 1.57252e-05 0)
(0 -0.000532542 0)
(0 1.36111e-05 0)
(0 1.96935e-05 0)
(0 -0.000234942 0)
(0 7.31426e-06 0)
(0 -0.000100392 0)
(0 -3.29975e-06 0)
(0 1.777e-05 0)
(0 -0.00078047 0)
(0 -9.99749e-05 0)
(0 -8.60959e-07 0)
(0 1.93538e-05 0)
(0 -4.95127e-05 0)
(0 -0.000143016 0)
(0 -0.000400155 0)
(0 1.12701e-05 0)
(0 -0.000131218 0)
(0 -0.000149067 0)
(0 1.18716e-05 0)
(0 1.39141e-05 0)
(0 1.93749e-05 0)
(0 1.67895e-05 0)
(0 1.68816e-05 0)
(0 -3.34349e-05 0)
(0 1.93713e-05 0)
(0 -0.000622616 0)
(0 8.43768e-06 0)
(0 -3.55218e-05 0)
(0 -0.000136985 0)
(0 -0.000118431 0)
(0 1.26192e-05 0)
(0 -0.000103989 0)
(0 -0.000260227 0)
(0 -0.00085151 0)
(0 -6.67049e-06 0)
(0 1.83871e-05 0)
(0 -0.000247777 0)
(0 -0.000409363 0)
(0 -0.000790286 0)
(0 -5.97536e-05 0)
(0 -0.000103424 0)
(0 1.95881e-05 0)
(0 1.98301e-05 0)
(0 1.98341e-05 0)
(0 -0.000531915 0)
(0 -0.000550894 0)
(0 -0.000557279 0)
(0 -0.000783473 0)
(0 1.9453e-05 0)
(0 -0.000855029 0)
(0 -1.10501e-05 0)
(0 -0.000135363 0)
(0 8.67785e-06 0)
(0 -0.000108679 0)
(0 -0.000384884 0)
(0 -0.000852808 0)
(0 -2.9588e-05 0)
(0 1.98289e-05 0)
(0 -0.000120417 0)
(0 -0.000128035 0)
(0 -0.000299207 0)
(0 -0.000482346 0)
(0 -0.000350411 0)
(0 -0.000218207 0)
(0 -0.000185113 0)
(0 1.12557e-05 0)
(0 1.7919e-06 0)
(0 -0.000536809 0)
(0 -7.5314e-05 0)
(0 -3.84781e-05 0)
(0 1.91686e-05 0)
(0 -0.000177856 0)
(0 -0.000470707 0)
(0 -0.000163346 0)
(0 1.98166e-05 0)
(0 1.80585e-05 0)
(0 -0.000868591 0)
(0 1.01454e-05 0)
(0 -0.000485253 0)
(0 -0.000867696 0)
(0 -0.000566199 0)
(0 1.96957e-05 0)
(0 -0.000146585 0)
(0 -0.000449991 0)
(0 -0.000709659 0)
(0 1.72875e-05 0)
(0 -3.8869e-05 0)
(0 -0.000711185 0)
(0 1.06989e-05 0)
(0 -0.00057939 0)
(0 -0.000149159 0)
(0 -0.00028421 0)
(0 -0.000479319 0)
(0 1.88994e-05 0)
(0 -0.000425739 0)
(0 1.7166e-05 0)
(0 -0.000264432 0)
(0 -0.000379778 0)
(0 -0.000376655 0)
(0 -0.000218798 0)
(0 -0.000473566 0)
(0 1.98392e-05 0)
(0 1.97407e-05 0)
(0 -2.44432e-05 0)
(0 -0.000522086 0)
(0 -4.2396e-06 0)
(0 1.44705e-05 0)
(0 1.941e-05 0)
(0 -0.000762167 0)
(0 -0.000204622 0)
(0 -8.87278e-06 0)
(0 1.98238e-05 0)
(0 -0.000134158 0)
(0 -0.000830747 0)
(0 -0.000746345 0)
(0 -0.000391988 0)
(0 6.90154e-06 0)
(0 1.9738e-05 0)
(0 1.9664e-05 0)
(0 -0.000245341 0)
(0 -0.000310325 0)
(0 1.98201e-05 0)
(0 1.89012e-05 0)
(0 -0.000138004 0)
(0 -0.000622221 0)
(0 -0.000182205 0)
(0 1.97382e-05 0)
(0 -0.000304753 0)
(0 -0.000671392 0)
(0 -0.000314016 0)
(0 -0.000497424 0)
(0 -0.000530407 0)
(0 -0.000193137 0)
(0 -0.000290878 0)
(0 1.92471e-05 0)
(0 -0.000662288 0)
(0 -0.000108742 0)
(0 -0.000388714 0)
(0 -0.000310753 0)
(0 1.90021e-05 0)
(0 -4.20783e-05 0)
(0 1.9126e-05 0)
(0 -0.000266594 0)
(0 1.64016e-05 0)
(0 -0.000139357 0)
(0 -0.000423831 0)
(0 -0.000383826 0)
(0 1.0687e-05 0)
(0 -0.000528397 0)
(0 -9.32903e-07 0)
(0 -3.19426e-05 0)
(0 -0.000520167 0)
(0 1.9541e-05 0)
(0 -5.98051e-05 0)
(0 -3.60277e-05 0)
(0 -0.000594892 0)
(0 -8.99105e-05 0)
(0 -0.000115613 0)
(0 -1.55142e-06 0)
(0 1.2704e-07 0)
(0 1.88303e-05 0)
(0 -0.00011997 0)
(0 -0.000417562 0)
(0 -0.000214569 0)
(0 1.87792e-05 0)
(0 -0.00066015 0)
(0 1.97746e-05 0)
(0 1.98321e-05 0)
(0 -0.000293267 0)
(0 -0.000273406 0)
(0 1.36366e-05 0)
(0 -0.000567272 0)
(0 -0.000100896 0)
(0 -6.91468e-05 0)
(0 -5.35228e-05 0)
(0 -0.000297761 0)
(0 -0.000206111 0)
(0 -0.000103704 0)
(0 -1.5356e-05 0)
(0 -0.000231308 0)
(0 -0.000772661 0)
(0 -1.62207e-05 0)
(0 1.97767e-05 0)
(0 -0.000511245 0)
(0 -3.67526e-05 0)
(0 -0.000118996 0)
(0 -0.0003279 0)
(0 -5.96198e-05 0)
(0 1.96217e-05 0)
(0 -0.000883096 0)
(0 1.76208e-05 0)
(0 1.11775e-05 0)
(0 -0.00028419 0)
(0 -0.000500644 0)
(0 1.66286e-05 0)
(0 -4.12962e-05 0)
(0 -0.000190671 0)
(0 -3.97906e-05 0)
(0 1.25225e-05 0)
(0 1.86045e-05 0)
(0 -0.000127811 0)
(0 1.84266e-05 0)
(0 -6.10328e-05 0)
(0 -0.00025061 0)
(0 1.97776e-05 0)
(0 -0.00036469 0)
(0 1.98326e-05 0)
(0 -0.000109527 0)
(0 -0.000125308 0)
(0 1.98761e-05 0)
(0 4.20016e-06 0)
(0 -7.60932e-06 0)
(0 -0.000114389 0)
(0 -0.000309889 0)
(0 -5.33739e-05 0)
(0 -0.000296083 0)
(0 -0.000647319 0)
(0 -0.000428112 0)
(0 1.87089e-05 0)
(0 -9.24618e-05 0)
(0 -0.000477236 0)
(0 -1.10664e-05 0)
(0 -0.000278033 0)
(0 -8.95817e-05 0)
(0 -0.000500661 0)
(0 1.95987e-05 0)
(0 -0.000451216 0)
(0 -0.000393824 0)
(0 -8.86332e-05 0)
(0 -0.000511355 0)
(0 1.98148e-05 0)
(0 1.79703e-05 0)
(0 5.77189e-06 0)
(0 -0.000263736 0)
(0 -0.000150716 0)
(0 -7.48711e-05 0)
(0 -0.00025029 0)
(0 1.97348e-05 0)
(0 -0.000862904 0)
(0 1.07444e-05 0)
(0 -0.000211788 0)
(0 -0.000834972 0)
(0 1.98353e-05 0)
(0 -0.000237227 0)
(0 -0.000736332 0)
(0 -1.25126e-05 0)
(0 1.983e-05 0)
(0 -0.000350147 0)
(0 -4.17692e-05 0)
(0 -0.000392887 0)
(0 -0.000338296 0)
(0 -0.000132776 0)
(0 -8.50735e-06 0)
(0 -0.000661218 0)
(0 -0.000832911 0)
(0 -0.000279697 0)
(0 1.52163e-05 0)
(0 1.98285e-05 0)
(0 -0.000731267 0)
(0 -0.00042332 0)
(0 -0.000459554 0)
(0 1.98466e-05 0)
(0 1.98141e-05 0)
(0 1.97185e-05 0)
(0 -0.000633009 0)
(0 -5.40928e-06 0)
(0 -3.87006e-05 0)
(0 1.96094e-05 0)
(0 -6.32356e-05 0)
(0 -0.00072678 0)
(0 -0.000669463 0)
(0 -0.000452323 0)
(0 -6.0643e-05 0)
(0 -0.000323543 0)
(0 1.96141e-05 0)
(0 -0.000651979 0)
(0 -0.000454609 0)
(0 -0.000133434 0)
(0 1.95421e-05 0)
(0 1.64466e-05 0)
(0 -8.86654e-05 0)
(0 1.40577e-05 0)
(0 -0.000116183 0)
(0 1.98882e-05 0)
(0 1.96009e-05 0)
(0 1.91071e-05 0)
(0 -0.000155015 0)
(0 -8.26124e-05 0)
(0 3.64722e-06 0)
(0 1.91424e-05 0)
(0 1.95587e-05 0)
(0 -0.000131186 0)
(0 -5.64353e-05 0)
(0 -0.000120308 0)
(0 -0.000604012 0)
(0 -0.000433221 0)
(0 -0.000338056 0)
(0 -0.000450706 0)
(0 -4.03484e-06 0)
(0 1.955e-05 0)
(0 -0.000250686 0)
(0 -2.28745e-05 0)
(0 -0.000102568 0)
(0 -1.57599e-05 0)
(0 -0.000744638 0)
(0 -0.00013503 0)
(0 1.98155e-05 0)
(0 1.90025e-05 0)
(0 -2.62297e-05 0)
(0 -6.74598e-05 0)
(0 -0.000456934 0)
(0 -0.000147455 0)
(0 -0.000716632 0)
(0 1.67992e-05 0)
(0 -0.000125527 0)
(0 1.58461e-05 0)
(0 1.62627e-05 0)
(0 6.38495e-06 0)
(0 1.97551e-05 0)
(0 -0.000147325 0)
(0 -0.000234181 0)
(0 -0.000591586 0)
(0 2.61293e-06 0)
(0 1.66011e-05 0)
(0 -0.000676214 0)
(0 1.96787e-05 0)
(0 -0.000251565 0)
(0 -0.000378069 0)
(0 1.98686e-05 0)
(0 -0.000255647 0)
(0 -5.91184e-05 0)
(0 -0.000642085 0)
(0 -0.000254315 0)
(0 -0.000631039 0)
(0 -0.000437521 0)
(0 -9.98885e-05 0)
(0 1.22933e-05 0)
(0 -0.000350082 0)
(0 -0.000130882 0)
(0 -0.000301327 0)
(0 -0.000494182 0)
(0 8.78664e-06 0)
(0 -3.34286e-05 0)
(0 -0.000564785 0)
(0 -0.00037245 0)
(0 -3.08019e-05 0)
(0 -4.09605e-05 0)
(0 -0.000371267 0)
(0 1.9823e-05 0)
(0 -0.000342538 0)
(0 -0.00065883 0)
(0 1.87996e-05 0)
(0 -0.000290192 0)
(0 1.97366e-05 0)
(0 1.92779e-05 0)
(0 -0.000766002 0)
(0 -0.000718507 0)
(0 -0.000424861 0)
(0 -0.000266458 0)
(0 -0.000470811 0)
(0 1.10752e-05 0)
(0 4.93172e-07 0)
(0 1.7298e-05 0)
(0 -9.77415e-05 0)
(0 -0.000484947 0)
(0 -0.000102024 0)
(0 -0.000175173 0)
(0 1.92705e-05 0)
(0 -0.000119001 0)
(0 -0.000136167 0)
(0 -0.000191941 0)
(0 1.74749e-05 0)
(0 -0.000512358 0)
(0 -0.000569943 0)
(0 -0.000516381 0)
(0 -0.000114409 0)
(0 -0.000612428 0)
(0 -0.000386135 0)
(0 -0.000798111 0)
(0 -0.000203402 0)
(0 -0.000205283 0)
(0 -0.000284281 0)
(0 -7.46924e-05 0)
(0 -5.26874e-05 0)
(0 1.96804e-05 0)
(0 -0.0001185 0)
(0 1.70098e-05 0)
(0 1.97976e-05 0)
(0 -0.000627699 0)
(0 -0.000138296 0)
(0 3.9706e-06 0)
(0 -0.000604432 0)
(0 -0.000159828 0)
(0 -0.000445916 0)
(0 -2.79895e-05 0)
(0 -5.50973e-05 0)
(0 -0.000149592 0)
(0 -0.000594202 0)
(0 -0.000328344 0)
(0 4.66095e-06 0)
(0 1.54912e-05 0)
(0 1.79114e-05 0)
(0 -8.4332e-05 0)
(0 -0.000721538 0)
(0 -5.18353e-05 0)
(0 1.98248e-05 0)
(0 6.63689e-06 0)
(0 -0.00019085 0)
(0 -0.000349483 0)
(0 -4.3848e-05 0)
(0 1.66543e-05 0)
(0 -4.06871e-05 0)
(0 -0.000321445 0)
(0 -0.000468095 0)
(0 1.89436e-05 0)
(0 -0.000636478 0)
(0 1.44361e-05 0)
(0 -7.1453e-06 0)
(0 -0.000567197 0)
(0 1.816e-05 0)
(0 -0.000123557 0)
(0 1.65426e-05 0)
(0 -0.000499348 0)
(0 1.93156e-05 0)
(0 9.62396e-06 0)
(0 -0.000396213 0)
(0 1.6221e-05 0)
(0 -0.000630706 0)
(0 1.94894e-05 0)
(0 -0.000656742 0)
(0 -0.000585159 0)
(0 -0.000197845 0)
(0 -0.000698887 0)
(0 8.49632e-06 0)
(0 -0.000611749 0)
(0 -0.000546849 0)
(0 -0.000257355 0)
(0 -0.000616062 0)
(0 -0.000472371 0)
(0 -9.02508e-06 0)
(0 -0.000201296 0)
(0 -0.000207586 0)
(0 -0.000313154 0)
(0 -0.000300698 0)
(0 1.98096e-05 0)
(0 9.41388e-06 0)
(0 -0.000202451 0)
(0 -3.03411e-05 0)
(0 -0.000289232 0)
(0 -0.000295587 0)
(0 -0.000892144 0)
(0 -0.000477734 0)
(0 1.96593e-05 0)
(0 -0.000559924 0)
(0 -3.30821e-05 0)
(0 1.98385e-05 0)
(0 1.49002e-05 0)
(0 -1.60607e-05 0)
(0 -0.000513349 0)
(0 -5.74263e-05 0)
(0 -0.000331549 0)
(0 -0.000179322 0)
(0 -3.6761e-05 0)
(0 -0.000339068 0)
(0 -0.000239181 0)
(0 -0.000373251 0)
(0 1.96407e-05 0)
(0 -0.000122661 0)
(0 1.98308e-05 0)
(0 -9.10586e-06 0)
(0 1.59079e-05 0)
(0 -0.000646812 0)
(0 -0.000217748 0)
(0 1.9815e-05 0)
(0 -0.000630194 0)
(0 1.35316e-05 0)
(0 -0.000600787 0)
(0 -1.12082e-05 0)
(0 -0.000489363 0)
(0 -8.40037e-06 0)
(0 1.93445e-05 0)
(0 -0.000450319 0)
(0 -0.000117779 0)
(0 -0.000588018 0)
(0 -5.16778e-05 0)
(0 -6.19834e-05 0)
(0 -1.73933e-05 0)
(0 1.90144e-05 0)
(0 -0.000156334 0)
(0 -5.67068e-05 0)
(0 -2.60262e-06 0)
(0 -5.61476e-05 0)
(0 -0.00033068 0)
(0 -0.000435763 0)
(0 -8.53811e-05 0)
(0 -0.000234285 0)
(0 -6.06771e-05 0)
(0 -0.000298614 0)
(0 -0.000310171 0)
(0 -0.000235393 0)
(0 1.14193e-05 0)
(0 -1.64818e-05 0)
(0 -0.000397535 0)
(0 1.98292e-05 0)
(0 -0.000583167 0)
(0 1.63004e-05 0)
(0 -0.000665316 0)
(0 -0.00040539 0)
(0 -0.000627396 0)
(0 -0.000310532 0)
(0 -0.000111923 0)
(0 1.69624e-05 0)
(0 -0.000392352 0)
(0 1.46751e-05 0)
(0 -3.17707e-06 0)
(0 -2.99845e-05 0)
(0 -2.74102e-05 0)
(0 1.9837e-05 0)
(0 -0.000210134 0)
(0 -3.10978e-05 0)
(0 1.96763e-05 0)
(0 1.66553e-05 0)
(0 1.85034e-05 0)
(0 -9.89387e-06 0)
(0 1.53394e-05 0)
(0 -0.000337548 0)
(0 1.98333e-05 0)
(0 -0.000248172 0)
(0 -0.000410867 0)
(0 1.7103e-05 0)
(0 -4.94967e-05 0)
(0 1.87644e-05 0)
(0 -2.12091e-05 0)
(0 -1.6643e-05 0)
(0 -0.000106008 0)
(0 1.93418e-05 0)
(0 1.97189e-05 0)
(0 -0.000233944 0)
(0 -2.15381e-05 0)
(0 -0.000287576 0)
(0 1.86034e-05 0)
(0 -0.000308446 0)
(0 -0.000654689 0)
(0 -0.00033845 0)
(0 -0.000591643 0)
(0 -3.73123e-05 0)
(0 1.84112e-05 0)
(0 1.79362e-05 0)
(0 1.9767e-05 0)
(0 -0.000213582 0)
(0 -0.000169616 0)
(0 1.57737e-05 0)
(0 1.83456e-05 0)
(0 -0.00034438 0)
(0 -6.62489e-05 0)
(0 -0.000294847 0)
(0 1.98961e-05 0)
(0 -0.000110171 0)
(0 -0.000767336 0)
(0 5.54811e-06 0)
(0 1.83502e-05 0)
(0 1.97284e-05 0)
(0 -7.25014e-05 0)
(0 -0.00010805 0)
(0 1.6149e-05 0)
(0 -0.000207262 0)
(0 7.4827e-06 0)
(0 -0.000201109 0)
(0 -2.12154e-05 0)
(0 -0.000101537 0)
(0 -0.000197093 0)
(0 -0.000340447 0)
(0 -0.00071164 0)
(0 -0.000137299 0)
(0 -5.30464e-05 0)
(0 -0.000135664 0)
(0 -2.44284e-06 0)
(0 7.02723e-06 0)
(0 -2.41762e-05 0)
(0 -0.000109272 0)
(0 -0.000504258 0)
(0 -0.000654273 0)
(0 -5.22684e-05 0)
(0 -0.000576803 0)
(0 -5.01597e-06 0)
(0 -3.49854e-05 0)
(0 -1.03095e-05 0)
(0 -3.70952e-05 0)
(0 1.63912e-05 0)
(0 -0.00049844 0)
(0 1.97555e-05 0)
(0 -0.000155827 0)
(0 -5.83525e-06 0)
(0 -4.32112e-05 0)
(0 8.71007e-06 0)
(0 -0.000252515 0)
(0 -0.000581611 0)
(0 -5.83957e-06 0)
(0 -0.000635641 0)
(0 -0.000340574 0)
(0 -4.88394e-05 0)
(0 9.15016e-06 0)
(0 -0.00053848 0)
(0 -0.000124429 0)
(0 6.38297e-06 0)
(0 -0.000218944 0)
(0 -0.000121471 0)
(0 5.79855e-06 0)
(0 -0.00037911 0)
(0 -3.37583e-05 0)
(0 -0.000380466 0)
(0 -0.000315768 0)
(0 -0.000477853 0)
(0 1.36012e-05 0)
(0 3.96868e-06 0)
(0 1.96643e-05 0)
(0 -0.000492936 0)
(0 -0.000844574 0)
(0 -0.000418758 0)
(0 -0.000583631 0)
(0 -0.000204969 0)
(0 -0.000148785 0)
(0 1.8785e-05 0)
(0 -0.000166727 0)
(0 -0.000220369 0)
(0 1.58598e-05 0)
(0 -0.000184349 0)
(0 -3.43461e-05 0)
(0 -0.000353693 0)
(0 1.98378e-05 0)
(0 -0.00032657 0)
(0 -0.000169033 0)
(0 7.13814e-06 0)
(0 1.97858e-05 0)
(0 -0.000574666 0)
(0 -0.000799627 0)
(0 -0.000726375 0)
(0 -0.000417991 0)
(0 -0.000237373 0)
(0 -0.000220621 0)
(0 6.44541e-06 0)
(0 -0.000286464 0)
(0 -9.01649e-05 0)
(0 -0.000350017 0)
(0 -0.000362291 0)
(0 -1.18868e-05 0)
(0 1.96451e-05 0)
(0 -6.04799e-05 0)
(0 -0.000547399 0)
(0 -0.000594582 0)
(0 -8.82124e-05 0)
(0 -0.000132505 0)
(0 -0.000114639 0)
(0 -0.000598631 0)
(0 -0.000595314 0)
(0 1.98342e-05 0)
(0 -0.000254269 0)
(0 -9.45954e-05 0)
(0 -6.44173e-05 0)
(0 4.55532e-06 0)
(0 -0.000587042 0)
(0 -2.09192e-05 0)
(0 -0.000321697 0)
(0 1.94262e-05 0)
(0 -4.12059e-05 0)
(0 -5.14682e-06 0)
(0 1.88076e-05 0)
(0 -0.000114749 0)
(0 1.21998e-05 0)
(0 -4.92874e-05 0)
(0 -0.00049973 0)
(0 1.96087e-05 0)
(0 -9.14004e-05 0)
(0 -0.000651798 0)
(0 -0.00032823 0)
(0 -4.52745e-05 0)
(0 1.97899e-05 0)
(0 -0.000333993 0)
(0 -0.000879634 0)
(0 -0.000626605 0)
(0 -0.000606632 0)
(0 -0.000503614 0)
(0 -0.000331828 0)
(0 1.87115e-05 0)
(0 -3.9086e-05 0)
(0 -0.000218999 0)
(0 -0.000400656 0)
(0 -3.85187e-05 0)
(0 -2.94772e-05 0)
(0 -0.000419066 0)
(0 -9.76308e-05 0)
(0 -9.462e-06 0)
(0 -0.000420214 0)
(0 -0.00016693 0)
(0 1.96336e-05 0)
(0 -8.39679e-05 0)
(0 -0.000505077 0)
(0 1.97001e-05 0)
(0 -0.000303326 0)
(0 -0.000110555 0)
(0 1.78056e-05 0)
(0 1.97968e-05 0)
(0 -0.000394792 0)
(0 -0.000300687 0)
(0 1.84984e-05 0)
(0 -9.49629e-05 0)
(0 -0.000170972 0)
(0 -0.000169208 0)
(0 -5.27374e-05 0)
(0 -1.39069e-05 0)
(0 -6.92715e-06 0)
(0 -0.000729196 0)
(0 1.90728e-05 0)
(0 -0.000168761 0)
(0 -1.75321e-05 0)
(0 -0.000571793 0)
(0 -6.95164e-05 0)
(0 -0.000669463 0)
(0 -0.000140602 0)
(0 -0.000139551 0)
(0 1.58316e-05 0)
(0 -0.00046146 0)
(0 -0.000598453 0)
(0 -3.29026e-05 0)
(0 -0.000576157 0)
(0 -0.000353171 0)
(0 -0.000518424 0)
(0 -9.44084e-05 0)
(0 -0.000623506 0)
(0 -0.000136065 0)
(0 -3.19968e-05 0)
(0 -6.48202e-05 0)
(0 -4.21153e-05 0)
(0 -0.000329811 0)
(0 -0.000441986 0)
(0 1.98332e-05 0)
(0 -0.000135797 0)
(0 -0.000478867 0)
(0 -9.90208e-05 0)
(0 1.98314e-05 0)
(0 -0.000586819 0)
(0 -0.000868986 0)
(0 -0.000544375 0)
(0 5.80009e-06 0)
(0 -0.000138626 0)
(0 1.98073e-05 0)
(0 -0.00044613 0)
(0 -0.000114595 0)
(0 -0.000340738 0)
(0 -0.000320798 0)
(0 -1.57802e-05 0)
(0 8.97675e-06 0)
(0 -0.000361146 0)
(0 1.16485e-05 0)
(0 -0.000507592 0)
(0 5.84851e-06 0)
(0 -0.000455822 0)
(0 -0.000193377 0)
(0 -0.000634522 0)
(0 -0.000390573 0)
(0 2.73376e-06 0)
(0 1.98362e-05 0)
(0 -0.000329502 0)
(0 -9.59789e-05 0)
(0 -9.40145e-05 0)
(0 -0.000575346 0)
(0 1.97842e-05 0)
(0 1.9835e-05 0)
(0 -0.000125805 0)
(0 -0.000379759 0)
(0 -0.000455996 0)
(0 1.97693e-05 0)
(0 -0.000538587 0)
(0 1.97785e-05 0)
(0 -0.000670126 0)
(0 -0.00027459 0)
(0 -0.000363427 0)
(0 -0.000139638 0)
(0 -0.000389892 0)
(0 1.2303e-05 0)
(0 1.92262e-05 0)
(0 1.97596e-05 0)
(0 7.98628e-06 0)
(0 1.98261e-05 0)
(0 -0.000708936 0)
(0 -3.08681e-05 0)
(0 1.86338e-05 0)
(0 -9.62667e-06 0)
(0 -0.000323011 0)
(0 -0.000322448 0)
(0 -2.52674e-05 0)
(0 -0.000551123 0)
(0 1.95486e-05 0)
(0 -4.4108e-05 0)
(0 -1.00048e-05 0)
(0 -0.000259545 0)
(0 1.77854e-05 0)
(0 1.98269e-05 0)
(0 1.97684e-05 0)
(0 -5.27608e-05 0)
(0 -0.000105255 0)
(0 -5.86201e-05 0)
(0 1.96083e-05 0)
(0 -0.000612823 0)
(0 1.90709e-05 0)
(0 7.64713e-07 0)
(0 9.87399e-06 0)
(0 1.75725e-05 0)
(0 1.45078e-05 0)
(0 -0.000236428 0)
(0 -0.000166679 0)
(0 -0.000253488 0)
(0 -0.000241566 0)
(0 1.95938e-05 0)
(0 1.98287e-05 0)
(0 -0.000308818 0)
(0 1.98028e-05 0)
(0 -0.00043828 0)
(0 -5.95228e-05 0)
(0 1.48991e-05 0)
(0 6.98028e-06 0)
(0 4.3741e-06 0)
(0 -0.000687749 0)
(0 -0.000107702 0)
(0 -0.000197964 0)
(0 -0.000388238 0)
(0 -0.000500996 0)
(0 -9.26222e-05 0)
(0 -0.000316289 0)
(0 1.85358e-05 0)
(0 -6.07965e-05 0)
(0 -0.000697829 0)
(0 1.75809e-06 0)
(0 -5.55325e-05 0)
(0 -3.15333e-05 0)
(0 -0.000267969 0)
(0 1.96275e-05 0)
(0 1.89314e-05 0)
(0 1.70688e-05 0)
(0 -0.000122171 0)
(0 -4.88003e-05 0)
(0 -0.00026507 0)
(0 -4.97523e-05 0)
(0 -0.000598517 0)
(0 1.72883e-05 0)
(0 -0.000123885 0)
(0 -0.00027702 0)
(0 -0.000648446 0)
(0 -0.000204155 0)
(0 1.97497e-05 0)
(0 -0.000102149 0)
(0 -0.000768466 0)
(0 1.87254e-05 0)
(0 -0.000701354 0)
(0 -0.000102281 0)
(0 -0.000613391 0)
(0 -0.000162685 0)
(0 -0.000824043 0)
(0 -0.000348868 0)
(0 1.9789e-05 0)
(0 -2.42228e-05 0)
(0 -4.89995e-06 0)
(0 1.98164e-05 0)
(0 1.43238e-05 0)
(0 -0.000689378 0)
(0 -0.000504026 0)
(0 -0.000104152 0)
(0 -1.49204e-05 0)
(0 -0.00049622 0)
(0 -0.000402712 0)
(0 1.85905e-05 0)
(0 -0.000240137 0)
(0 -0.000275287 0)
(0 -9.88485e-05 0)
(0 -3.19498e-05 0)
(0 1.8325e-05 0)
(0 -0.000553999 0)
(0 -1.58497e-05 0)
(0 -0.000420863 0)
(0 -0.000310664 0)
(0 1.91045e-05 0)
(0 -9.29433e-06 0)
(0 -6.25684e-05 0)
(0 -0.000353608 0)
(0 -0.000554954 0)
(0 1.98182e-05 0)
(0 8.95034e-06 0)
(0 1.56633e-05 0)
(0 1.9861e-05 0)
(0 -0.000418639 0)
(0 -0.000572164 0)
(0 -0.000754993 0)
(0 1.98368e-05 0)
(0 -0.000149085 0)
(0 -7.2003e-05 0)
(0 -0.000292774 0)
(0 -0.000333712 0)
(0 -0.000482996 0)
(0 -5.84548e-05 0)
(0 -0.000360914 0)
(0 7.51701e-06 0)
(0 -0.000450393 0)
(0 -2.59982e-05 0)
(0 -5.16026e-05 0)
(0 -0.000348114 0)
(0 -0.000599563 0)
(0 -0.000365288 0)
(0 -2.09662e-05 0)
(0 1.97467e-05 0)
(0 -0.000177048 0)
(0 1.98245e-05 0)
(0 -0.000495851 0)
(0 -2.15378e-05 0)
(0 -0.000360118 0)
(0 5.63164e-06 0)
(0 -0.000655108 0)
(0 -0.000660214 0)
(0 -0.000209505 0)
(0 -2.68505e-05 0)
(0 -3.6578e-05 0)
(0 -0.000422395 0)
(0 -4.75184e-05 0)
(0 1.36266e-05 0)
(0 1.08896e-05 0)
(0 -0.000335781 0)
(0 -3.47566e-05 0)
(0 1.93712e-05 0)
(0 -0.000255523 0)
(0 1.6658e-05 0)
(0 -5.54421e-06 0)
(0 3.77768e-06 0)
(0 -0.000402815 0)
(0 -0.000309362 0)
(0 -0.000137509 0)
(0 1.15026e-05 0)
(0 -0.000485661 0)
(0 -0.000223036 0)
(0 -0.000322487 0)
(0 -0.000368581 0)
(0 -0.000280637 0)
(0 -0.000404068 0)
(0 -0.000605239 0)
(0 -0.000893126 0)
(0 1.91247e-05 0)
(0 -0.000105615 0)
(0 -0.000226557 0)
(0 -1.21833e-05 0)
(0 -0.000424547 0)
(0 -0.000743447 0)
(0 -3.14708e-05 0)
(0 7.92439e-06 0)
(0 1.26789e-05 0)
(0 -9.72704e-06 0)
(0 -4.62812e-05 0)
(0 -9.41028e-05 0)
(0 1.95245e-05 0)
(0 -5.71928e-05 0)
(0 1.98313e-05 0)
(0 5.26829e-06 0)
(0 -0.000359914 0)
(0 -0.000373844 0)
(0 -0.000255587 0)
(0 1.96403e-05 0)
(0 1.97203e-05 0)
(0 -6.05631e-06 0)
(0 1.549e-05 0)
(0 -0.000413388 0)
(0 -0.000430229 0)
(0 -0.000161475 0)
(0 -0.000344596 0)
(0 1.98335e-05 0)
(0 -0.000153633 0)
(0 -0.000374632 0)
(0 -6.26542e-06 0)
(0 1.80985e-05 0)
(0 -8.25922e-06 0)
(0 -0.000236826 0)
(0 -0.000222272 0)
(0 1.45187e-06 0)
(0 -9.99869e-05 0)
(0 -0.000240391 0)
(0 1.88014e-05 0)
(0 1.51151e-05 0)
(0 -0.000264303 0)
(0 1.44548e-06 0)
(0 -1.49545e-05 0)
(0 -2.03213e-05 0)
(0 1.06199e-05 0)
(0 -0.000104929 0)
(0 -0.000356557 0)
(0 -9.51755e-06 0)
(0 -0.000650288 0)
(0 -0.000191824 0)
(0 -0.000105451 0)
(0 1.98114e-05 0)
(0 -0.000104572 0)
(0 -4.08953e-05 0)
(0 6.63344e-06 0)
(0 -0.000400699 0)
(0 1.98059e-05 0)
(0 1.98258e-05 0)
(0 -0.000502445 0)
(0 1.97654e-05 0)
(0 -4.68911e-05 0)
(0 -0.000404711 0)
(0 -0.000517994 0)
(0 6.28107e-06 0)
(0 1.90566e-05 0)
(0 -0.000142266 0)
(0 -5.49795e-05 0)
(0 -0.000610046 0)
(0 1.64093e-05 0)
(0 -7.15841e-06 0)
(0 -6.35921e-05 0)
(0 -0.000432445 0)
(0 -0.000415591 0)
(0 -0.000381196 0)
(0 -2.45425e-05 0)
(0 -0.000220491 0)
(0 -1.98902e-05 0)
(0 -5.88735e-05 0)
(0 -0.000157574 0)
(0 1.89835e-05 0)
(0 8.53037e-06 0)
(0 -0.000237284 0)
(0 -0.000105683 0)
(0 -0.000249726 0)
(0 1.87412e-05 0)
(0 -0.000121123 0)
(0 -0.000613547 0)
(0 -0.000402212 0)
(0 -0.000627205 0)
(0 -0.000225801 0)
(0 1.9785e-05 0)
(0 1.87423e-05 0)
(0 9.617e-06 0)
(0 -0.000100971 0)
(0 -0.000459321 0)
(0 1.79718e-05 0)
(0 -9.74593e-05 0)
(0 -0.000274337 0)
(0 1.96573e-05 0)
(0 -0.000405254 0)
(0 -8.69168e-06 0)
(0 1.98291e-05 0)
(0 -0.000417885 0)
(0 1.98188e-05 0)
(0 1.95887e-05 0)
(0 6.72782e-06 0)
(0 1.9829e-05 0)
(0 -2.12679e-05 0)
(0 -0.000466009 0)
(0 -0.000234889 0)
(0 1.98178e-05 0)
(0 1.7962e-05 0)
(0 -0.000247628 0)
(0 1.98112e-05 0)
(0 -0.000134554 0)
(0 -0.00060877 0)
(0 -0.000114555 0)
(0 -0.0003271 0)
(0 -0.000106503 0)
(0 -0.000142161 0)
(0 1.85007e-05 0)
(0 1.98303e-05 0)
(0 1.803e-05 0)
(0 -4.00428e-05 0)
(0 -3.49107e-05 0)
(0 -7.58484e-07 0)
(0 1.98053e-05 0)
(0 -0.000408147 0)
(0 1.98378e-05 0)
(0 -1.90832e-05 0)
(0 -0.000138578 0)
(0 -0.000122878 0)
(0 -9.01741e-05 0)
(0 -0.000324849 0)
(0 -4.34389e-05 0)
(0 1.98005e-05 0)
(0 -0.000418067 0)
(0 -0.000426487 0)
(0 1.97904e-05 0)
(0 4.53621e-06 0)
(0 -0.000112864 0)
(0 -0.000124525 0)
(0 -2.63073e-05 0)
(0 -0.000727043 0)
(0 -6.2452e-05 0)
(0 -3.7282e-05 0)
(0 1.70394e-05 0)
(0 -0.000245687 0)
(0 -0.000398176 0)
(0 -2.90526e-05 0)
(0 1.98101e-05 0)
(0 -2.09391e-05 0)
(0 -0.000319032 0)
(0 1.82466e-05 0)
(0 -0.000344901 0)
(0 -0.000448036 0)
(0 -0.000643065 0)
(0 -0.00024282 0)
(0 -0.000412318 0)
(0 -0.000284855 0)
(0 1.7289e-05 0)
(0 -0.000163385 0)
(0 -9.22993e-05 0)
(0 1.95797e-05 0)
(0 -0.000130443 0)
(0 1.09821e-05 0)
(0 1.54173e-05 0)
(0 8.44052e-06 0)
(0 -2.87458e-05 0)
(0 -0.000554918 0)
(0 -0.000164781 0)
(0 -0.000356469 0)
(0 -0.000220793 0)
(0 1.13479e-05 0)
(0 -0.00046687 0)
(0 1.50395e-05 0)
(0 -0.000107468 0)
(0 -1.78691e-05 0)
(0 -0.000693028 0)
(0 1.84041e-05 0)
(0 -3.47862e-05 0)
(0 1.97214e-05 0)
(0 -5.33606e-05 0)
(0 1.97413e-05 0)
(0 -0.000258454 0)
(0 -2.32027e-05 0)
(0 6.24501e-06 0)
(0 -6.35987e-05 0)
(0 -0.000282784 0)
(0 1.76928e-05 0)
(0 -5.23238e-05 0)
(0 1.80006e-05 0)
(0 -0.000465325 0)
(0 -3.11163e-05 0)
(0 -0.000712685 0)
(0 1.97218e-05 0)
(0 1.75147e-05 0)
(0 -8.69865e-06 0)
(0 -0.000695523 0)
(0 -0.000733746 0)
(0 -2.32332e-05 0)
(0 1.98273e-05 0)
(0 -0.000193693 0)
(0 -0.000754267 0)
(0 -6.72358e-05 0)
(0 8.86777e-06 0)
(0 -8.60571e-05 0)
(0 -0.000316999 0)
(0 1.25463e-05 0)
(0 -0.000418928 0)
(0 -0.000152894 0)
(0 -0.000665415 0)
(0 -0.000199649 0)
(0 -0.0006085 0)
(0 1.74254e-05 0)
(0 -0.000593996 0)
(0 -0.000615141 0)
(0 7.55414e-06 0)
(0 1.98371e-05 0)
(0 -0.000305 0)
(0 -1.09892e-05 0)
(0 -0.000355823 0)
(0 1.27071e-05 0)
(0 -0.000439721 0)
(0 1.70139e-05 0)
(0 -0.000238461 0)
(0 7.27966e-06 0)
(0 -0.000435374 0)
(0 -0.000240771 0)
(0 1.95537e-05 0)
(0 -0.000216699 0)
(0 1.96775e-05 0)
(0 -0.000150088 0)
(0 1.98256e-05 0)
(0 -0.000274734 0)
(0 -0.000550829 0)
(0 -0.000400166 0)
(0 -0.000149854 0)
(0 -0.000115529 0)
(0 -0.000114452 0)
(0 1.98016e-05 0)
(0 -0.000201152 0)
(0 -0.000157768 0)
(0 -7.5969e-06 0)
(0 -8.26049e-05 0)
(0 -0.000330492 0)
(0 -0.000123512 0)
(0 2.29085e-06 0)
(0 1.98363e-05 0)
(0 -0.000622972 0)
(0 1.8984e-05 0)
(0 -0.000357487 0)
(0 -6.0335e-06 0)
(0 1.96985e-05 0)
(0 -0.0001124 0)
(0 -0.000871634 0)
(0 -0.000409153 0)
(0 -3.97915e-05 0)
(0 1.75049e-05 0)
(0 -0.000137968 0)
(0 -0.000102057 0)
(0 -0.000549328 0)
(0 -9.15583e-05 0)
(0 -0.000522709 0)
(0 1.93145e-05 0)
(0 1.94735e-05 0)
(0 1.98266e-05 0)
(0 -0.000496709 0)
(0 -0.000147315 0)
(0 1.8692e-05 0)
(0 -0.000352066 0)
(0 4.18508e-06 0)
(0 -0.000383613 0)
(0 1.7674e-05 0)
(0 -1.94229e-05 0)
(0 -0.000813546 0)
(0 -5.2407e-06 0)
(0 1.7692e-05 0)
(0 -0.000581053 0)
(0 -0.000160627 0)
(0 -0.000666439 0)
(0 -1.21038e-05 0)
(0 1.74478e-05 0)
(0 3.88919e-06 0)
(0 1.8797e-05 0)
(0 -0.00040568 0)
(0 -0.000378015 0)
(0 1.95556e-05 0)
(0 -0.000308817 0)
(0 -1.16566e-05 0)
(0 -7.52289e-05 0)
(0 -0.000198248 0)
(0 -0.000626476 0)
(0 1.81308e-05 0)
(0 -0.000180421 0)
(0 1.82891e-05 0)
(0 -0.000635227 0)
(0 9.70353e-06 0)
(0 -0.000235691 0)
(0 1.85133e-05 0)
(0 -0.000125352 0)
(0 -0.000149986 0)
(0 -0.000155891 0)
(0 1.94502e-05 0)
(0 -0.000528146 0)
(0 -6.55882e-05 0)
(0 1.67472e-05 0)
(0 5.97538e-06 0)
(0 1.9774e-05 0)
(0 1.90998e-05 0)
(0 -0.00028794 0)
(0 -0.000755447 0)
(0 -0.000458949 0)
(0 2.89178e-06 0)
(0 -0.000539257 0)
(0 -1.56534e-05 0)
(0 7.51329e-06 0)
(0 -0.000159056 0)
(0 -2.02232e-05 0)
(0 -0.000406803 0)
(0 -0.000435943 0)
(0 -6.15693e-05 0)
(0 -0.000409262 0)
(0 1.98118e-05 0)
(0 1.80553e-06 0)
(0 1.71759e-05 0)
(0 -1.35081e-05 0)
(0 -0.000198868 0)
(0 1.98138e-05 0)
(0 -0.000186353 0)
(0 -0.000191811 0)
(0 -0.000338847 0)
(0 -6.591e-05 0)
(0 1.0712e-06 0)
(0 -0.000727777 0)
(0 -0.000357813 0)
(0 -0.000136515 0)
(0 -0.000385723 0)
(0 -2.74468e-05 0)
(0 5.08631e-06 0)
(0 1.97761e-05 0)
(0 -6.31477e-06 0)
(0 -0.000329607 0)
(0 7.76725e-06 0)
(0 -0.000409033 0)
(0 -0.000557843 0)
(0 -0.000292863 0)
(0 1.78132e-05 0)
(0 8.10564e-06 0)
(0 -3.55993e-05 0)
(0 7.46723e-06 0)
(0 1.65444e-05 0)
(0 -1.3709e-05 0)
(0 1.607e-05 0)
(0 -0.00038092 0)
(0 -6.73703e-05 0)
(0 1.97229e-05 0)
(0 -0.000376228 0)
(0 1.80453e-05 0)
(0 -0.00048802 0)
(0 -0.000507018 0)
(0 -3.23106e-05 0)
(0 1.85064e-05 0)
(0 -0.000418778 0)
(0 -4.60476e-06 0)
(0 1.9134e-05 0)
(0 1.19429e-05 0)
(0 -0.000268622 0)
(0 -0.000112228 0)
(0 -0.000193811 0)
(0 -0.000164418 0)
(0 1.63281e-05 0)
(0 -0.000303116 0)
(0 -1.32763e-05 0)
(0 1.97618e-05 0)
(0 -0.000223672 0)
(0 -0.000458898 0)
(0 -0.00043806 0)
(0 1.90189e-05 0)
(0 -0.000634359 0)
(0 -0.000876129 0)
(0 4.01427e-06 0)
(0 -0.000263034 0)
(0 -0.000520941 0)
(0 1.05395e-05 0)
(0 -0.000205388 0)
(0 6.89562e-06 0)
(0 6.96901e-06 0)
(0 1.98224e-05 0)
(0 1.91331e-05 0)
(0 -0.000716418 0)
(0 -0.000611266 0)
(0 -0.000433382 0)
(0 -0.000302007 0)
(0 1.07835e-05 0)
(0 -0.000288349 0)
(0 1.93005e-05 0)
(0 -0.000182167 0)
(0 1.97124e-05 0)
(0 -0.000180308 0)
(0 -0.000406443 0)
(0 -0.000249221 0)
(0 -0.000370816 0)
(0 -4.57021e-05 0)
(0 -0.000372607 0)
(0 -0.000623352 0)
(0 -7.59454e-07 0)
(0 -0.000493038 0)
(0 -0.000190335 0)
(0 -0.000262367 0)
(0 1.98319e-05 0)
(0 -0.000190362 0)
(0 -0.000759018 0)
(0 -0.000596074 0)
(0 -6.02823e-05 0)
(0 -0.000426414 0)
(0 -0.000256527 0)
(0 -0.000548609 0)
(0 -0.000318553 0)
(0 -0.000603162 0)
(0 -0.000456903 0)
(0 -0.000161046 0)
(0 -5.3271e-05 0)
(0 -0.000139117 0)
(0 1.97116e-05 0)
(0 1.97716e-05 0)
(0 1.97127e-05 0)
(0 -0.000436952 0)
(0 -0.000215935 0)
(0 -0.000737173 0)
(0 -0.000486244 0)
(0 -0.000740251 0)
(0 -0.000414709 0)
(0 -0.000175672 0)
(0 -0.000514055 0)
(0 -9.18348e-05 0)
(0 -0.000307339 0)
(0 -0.000707502 0)
(0 -0.000328802 0)
(0 1.96145e-05 0)
(0 -0.000575544 0)
(0 -0.00050173 0)
(0 1.96779e-05 0)
(0 -0.000150162 0)
(0 -0.000247125 0)
(0 1.96768e-05 0)
(0 1.98271e-05 0)
(0 -0.000423369 0)
(0 1.76903e-05 0)
(0 1.8828e-05 0)
(0 -0.000313331 0)
(0 -4.62314e-06 0)
(0 -0.00019365 0)
(0 -0.000316286 0)
(0 -7.36881e-05 0)
(0 -4.76505e-05 0)
(0 -0.000329374 0)
(0 -0.000196 0)
(0 -0.000155011 0)
(0 -0.000420973 0)
(0 1.98353e-05 0)
(0 -0.000396335 0)
(0 -1.77455e-06 0)
(0 -0.000168693 0)
(0 -8.87704e-05 0)
(0 1.96412e-05 0)
(0 -0.000135078 0)
(0 -0.000419332 0)
(0 -0.000147821 0)
(0 -0.00014819 0)
(0 -6.26919e-05 0)
(0 1.79977e-05 0)
(0 1.9765e-05 0)
(0 1.74122e-05 0)
(0 9.7726e-06 0)
(0 1.80776e-05 0)
(0 -1.70985e-05 0)
(0 -5.05616e-05 0)
(0 1.84964e-05 0)
(0 9.52447e-06 0)
(0 -0.000199519 0)
(0 -5.30779e-05 0)
(0 -2.51629e-05 0)
(0 -0.000589003 0)
(0 -0.000156033 0)
(0 -0.000167694 0)
(0 -2.66364e-06 0)
(0 -0.000480419 0)
(0 -0.000689208 0)
(0 -6.06425e-06 0)
(0 -0.000411959 0)
(0 1.84749e-05 0)
(0 -0.000422874 0)
(0 1.9763e-05 0)
(0 3.93136e-06 0)
(0 -3.42919e-05 0)
(0 -0.000743897 0)
(0 -0.000226732 0)
(0 -5.00124e-05 0)
(0 -2.28071e-05 0)
(0 -0.000255154 0)
(0 -1.23691e-05 0)
(0 1.19932e-05 0)
(0 -1.43669e-05 0)
(0 -4.23507e-05 0)
(0 1.86189e-05 0)
(0 1.84072e-05 0)
(0 -0.000536221 0)
(0 7.1981e-06 0)
(0 -4.98018e-06 0)
(0 1.83235e-05 0)
(0 5.1139e-06 0)
(0 -0.000680991 0)
(0 -7.39413e-05 0)
(0 -0.00012733 0)
(0 -0.000243322 0)
(0 -0.000157055 0)
(0 -0.000349173 0)
(0 -0.000117468 0)
(0 1.79119e-05 0)
(0 -3.3103e-05 0)
(0 -0.000296505 0)
(0 7.93971e-06 0)
(0 9.57224e-06 0)
(0 1.97971e-05 0)
(0 1.83714e-05 0)
(0 -0.000160228 0)
(0 -0.000231249 0)
(0 -0.000808923 0)
(0 -0.000453527 0)
(0 -0.000119844 0)
(0 3.75076e-06 0)
(0 1.97064e-05 0)
(0 -0.000490012 0)
(0 1.86626e-05 0)
(0 -2.35054e-05 0)
(0 1.65679e-05 0)
(0 8.36453e-06 0)
(0 -5.37399e-05 0)
(0 -0.000207255 0)
(0 -0.000248708 0)
(0 1.97796e-05 0)
(0 1.97643e-05 0)
(0 -7.43682e-06 0)
(0 1.92668e-05 0)
(0 -0.000542473 0)
(0 1.8061e-05 0)
(0 -0.000409888 0)
(0 -0.00048889 0)
(0 1.97458e-05 0)
(0 -7.80033e-05 0)
(0 -0.000560816 0)
(0 -0.00061916 0)