/*--------------------------------*- C++ -*----------------------------------*\
| =========                 |                                                 |
| \\      /  F ield         | OpenFOAM: The Open Source CFD Toolbox           |
|  \\    /   O peration     | Version:  v2012                                 |
|   \\  /    A nd           | Website:  www.openfoam.com                      |
|    \\/     M anipulation  |                                                 |
\*---------------------------------------------------------------------------*/
FoamFile
{
    version     2.0;
    format      ascii;
    class       volScalarField;
    location    "450";
    object      p;
}
// * * * * * * * * * * * * * * * * * * * * * * * * * * * * * * * * * * * * * //

dimensions      [0 2 -2 0 0 0 0];


internalField   nonuniform List<scalar> 
9793
(
0.0597345
-0.347955
0.0302092
-0.29877
0.0231427
-0.290301
-0.157844
-0.470505
-0.00944632
-0.347448
0.0183993
0.0183923
0.014164
-0.29362
-0.00648531
-0.052855
-0.163942
0.0267636
-0.35824
-0.0047548
-0.0097041
0.0226983
-0.29731
-0.472252
-0.292316
0.0929073
0.0185312
0.0143723
-0.00463943
-0.198953
-0.52245
-0.342312
0.0261853
0.022805
0.00652023
-0.0829754
-0.048145
0.10685
-0.331949
-0.0847134
-0.186115
-0.382593
-0.399487
0.0142715
0.0322073
0.0277848
-0.457653
0.0204957
-0.0168342
0.0272674
-0.0822184
0.0062617
-0.117124
0.0205245
0.100206
-0.302036
0.0133571
-0.193285
-0.0168426
0.0207409
0.11798
0.0998576
0.0282858
-0.0914668
0.00948197
-0.00835018
-0.463499
-0.0489207
-0.0483488
-0.372025
0.0437765
0.356047
-0.459063
-0.0596864
-0.37166
0.0178736
0.188002
-0.451144
0.028503
0.0220255
0.199232
-0.361379
-0.156686
0.0306886
-0.0497102
-0.320075
0.0222644
-0.132936
-0.3311
0.120135
-0.300835
-0.417357
-0.418434
-0.104088
-0.393883
0.0236979
-0.374101
-0.15313
-0.0379836
0.0229441
-0.30837
-0.112108
-0.185486
0.0316465
-0.370647
-0.446202
-0.0372331
0.00934147
0.0286927
0.0229277
0.0150481
-0.298083
0.509684
-0.538645
0.0428189
0.0226916
-0.0357213
0.0270487
-0.306944
0.0285249
-0.360891
-0.142692
-0.37045
-0.130414
-0.0494438
0.0283954
-0.174757
-0.520504
-0.165935
-0.157871
-0.0496396
0.00813198
0.0577757
-0.0415068
-0.0769795
-0.252799
-0.320504
-0.0374007
0.0176952
-0.180875
-0.365185
-0.0809549
0.0357273
-0.122898
-0.448868
-0.262086
0.0285457
-0.376817
0.00856147
0.0286538
0.0212828
-0.540563
-0.0349396
0.0188455
0.0385748
-0.419073
-0.171784
0.0280429
-0.351372
0.0376809
-0.131879
-0.0517215
-0.00949702
0.247265
-0.026106
-0.433032
-0.224427
-0.0292738
0.00904661
0.0187468
0.036753
-0.538339
-0.52152
-0.320367
0.0137876
-0.279538
-0.0868261
0.221657
0.0286956
-0.0497623
-0.371169
-0.451979
-0.144389
0.0280885
0.0266015
0.00893435
-0.368811
-0.463744
-0.5074
-0.175324
-0.00579586
-0.335284
0.428118
0.105892
-0.0181099
0.0544813
0.506398
-0.00266997
0.0269558
0.0224396
0.0462975
-0.0115874
-0.0858237
-0.059362
-0.327896
0.0420894
-0.0722765
-0.030317
0.0498716
0.0255886
-0.173007
-0.370354
-0.00113668
-0.371229
0.0354609
-0.0469065
-0.00651011
-0.25453
0.022659
0.246454
-0.161531
-0.0115561
0.366791
-0.304752
-0.0959981
0.0242776
-0.149232
-0.284516
0.230718
0.230796
-0.31832
-0.161218
-0.0491181
-0.0948749
0.430422
-0.0128142
-0.310985
-0.539241
-0.00242271
0.0230219
-0.374752
0.0329498
0.0152268
-0.197208
-0.214647
-0.00636541
-0.0520749
-0.0769577
0.0449161
-0.0536137
0.0289162
-0.0823061
-0.319723
-0.010782
-0.313889
0.0203008
0.0186954
0.000352397
-0.304682
0.0311603
-0.442319
-0.365821
0.0148541
0.0223017
-0.434524
0.00027782
0.0215929
-0.000700817
-0.368847
0.264268
0.0811321
-0.0372315
-0.19344
-0.211866
-0.300539
-0.0306197
-0.389734
0.0198133
-0.283464
-0.200338
-0.324063
-0.362211
-0.16556
-0.050085
-0.148727
-0.057127
-0.0185009
-0.0323036
0.0198951
0.0959352
0.0223258
0.013266
-0.00140996
-0.00380516
-0.010597
-0.298219
0.00957762
-0.00439155
-0.00368448
0.0135155
-0.328613
-0.276018
0.289039
0.0746565
-0.128229
-0.00368861
-0.0277435
-0.530274
0.0314705
-0.369126
-0.0915537
0.0323855
-0.34627
-0.0384209
0.0257512
-0.0844351
-0.339673
0.0448808
0.179462
-0.00561614
0.0504608
-0.290932
0.0925287
0.0228265
0.0283163
0.0721833
-0.159371
0.495003
0.0304698
0.00929059
-0.0151643
-0.537421
-0.36985
-0.54288
-0.0123996
0.0888739
0.18364
-0.129437
-0.182915
-0.0127059
-0.0145798
-0.0145315
-0.142918
0.0267368
-0.516679
0.0245888
0.00568165
-0.255496
-0.300656
-0.366958
-0.00379423
-0.312323
0.0273079
0.250262
-0.504908
-0.319611
0.0178015
-0.0874865
-0.321814
-0.301533
-0.299264
0.120485
0.0150394
0.085772
-0.0158575
0.0087086
0.0275263
0.0180472
0.0130212
-0.524526
0.0187305
-0.176829
-0.0848672
-0.34129
-0.0124998
0.0282462
-0.302834
0.459288
-0.295383
-0.175974
0.00592775
0.0151825
0.0295514
-0.316292
-0.00202301
-0.366231
-0.0474397
-0.148065
-0.539508
-0.291018
0.0147244
0.0227368
-0.326093
-0.324696
0.0419626
-0.50614
0.0148689
0.0220414
0.0121165
-0.00117042
-0.19856
-0.0129309
-0.2504
0.0243346
-0.0264528
-0.279473
0.341622
-0.0560096
0.105618
0.014454
0.0155436
-0.364562
-0.148845
-0.0100124
0.0235756
0.108397
0.180534
-0.0508943
-0.444102
0.0227216
0.0232596
0.182486
0.0142428
-0.319865
0.196556
0.0268433
0.0250971
-0.0313222
0.0147059
-0.0147197
-0.310045
0.245337
-0.443214
0.135767
-0.038061
-0.130861
0.103169
-0.307252
0.114225
0.0233248
-0.0509178
-0.26387
0.0409135
0.0386911
0.0454738
-0.00179944
0.0204616
-0.00188961
0.0273708
0.0147367
0.0446043
-0.0569376
-0.193586
-0.00317654
0.497614
0.0936596
-0.0710186
-0.301858
-0.018823
-0.242034
-0.152574
-0.018296
-0.0019494
0.0345393
-0.353996
-0.198001
-0.00208091
0.0247384
0.0222313
0.270974
-0.0885698
-0.442754
0.00973288
0.0385609
0.151113
-0.46088
-0.321635
0.0827126
-0.0435968
-0.313463
-0.424869
-0.2536
0.0413752
0.00691584
-0.329864
0.0258268
-0.111
-0.340005
-0.00957962
0.248019
-0.0662748
-0.308603
0.0152109
-0.353145
-0.331615
-0.0522873
-0.421622
0.0244358
-0.113555
0.0249781
0.0212616
0.0184747
0.0269594
-0.372698
0.0236707
-0.0160689
0.0711636
-0.0124039
0.0073365
-0.0724098
0.0298227
-0.0945109
0.0128158
0.0129492
-0.304916
0.316652
0.0804034
-0.320301
-0.0544874
0.0321797
0.0309966
-0.0153529
-0.540942
-0.0159303
0.0111751
-0.489842
-0.38219
0.0319371
0.0140459
0.0224787
-0.0227761
0.0201151
-0.309348
0.046851
-0.137167
-0.048279
0.395334
0.0217965
-0.467288
0.00246267
-0.185201
0.0273316
-0.093366
-0.316425
0.02479
-0.366826
0.0307309
0.0125588
-0.00921083
-0.368376
-0.327001
0.0356929
-0.0706507
-0.0158714
-0.306761
-0.00306082
-0.089571
-0.35434
0.108951
0.0107068
0.175871
0.0136965
-0.0244303
-0.0143852
-0.182378
0.0101554
-0.307263
0.0132921
0.0233121
-0.0911671
0.181758
-0.307808
-0.00362275
-0.458865
0.022026
-0.113545
0.0359317
-0.0292745
0.0252385
0.0135012
0.0224805
-0.116058
-0.0539465
-0.370882
-0.245575
0.16771
0.0863162
-0.016253
-0.0443994
-0.308568
-0.388127
-0.192593
-0.494413
-0.335866
-0.135402
-0.0249734
0.501527
-0.0876285
-0.0274312
-0.217733
0.0137998
-0.0257096
0.0292172
-0.274402
0.132071
-0.300659
-0.406312
-0.0893821
-0.264378
0.0228397
-0.193846
0.0774305
0.0271148
0.0297034
-0.0325968
-0.140033
-0.321755
-0.00855512
-0.433803
-0.0395611
0.0547885
-0.30651
0.435572
-0.041356
-0.171264
0.0510687
0.171303
-0.270405
0.0267891
0.285544
0.185006
-0.402341
0.00935505
0.0871089
-0.373712
-0.0812425
-0.365579
-0.102023
-0.322494
0.0588512
-0.0456033
-0.00755266
0.0378628
-0.153352
0.0210209
-0.155662
-0.263377
-0.118926
0.0131364
0.0146075
-0.038067
-0.0228577
0.00624738
0.033642
-0.234238
-0.347123
-0.291388
0.0149498
-0.282276
0.0144617
-0.392357
-0.120221
0.205841
0.177727
-0.325813
0.00343956
0.0213203
0.163908
0.0267526
-0.0212741
-0.175215
-0.298966
-0.0120805
-0.164289
-0.331905
-0.055705
-0.288924
-0.337395
-0.00249613
-0.164947
-0.0552844
-0.00428521
-0.00858435
0.31677
-0.328774
-0.436174
0.0417827
0.0286474
-0.00637714
-0.0348201
0.0268542
0.0374409
0.318554
-0.116508
0.0148715
-0.416592
-0.0865446
0.159778
-0.0211548
-0.529274
-0.0479218
0.00869318
-0.131163
0.511182
-0.0106733
0.0274262
0.0290215
-0.0494352
0.00331844
-0.0933855
-0.332575
0.0200383
-0.180086
-0.0393633
-0.0193858
-0.31699
-0.375168
-0.244645
0.0209371
-0.0115132
-0.250675
0.109675
-0.191125
-0.0102046
0.0317029
-0.537089
-0.144202
-0.0794485
-0.197871
0.286414
0.0234869
0.0132443
-0.000211477
-0.386408
0.0110628
0.0131812
-0.302634
0.127501
-0.333646
0.171432
0.0136612
-0.369174
0.0195749
0.0337362
0.00113795
0.0797797
-0.299734
0.0184357
0.0316681
0.0270688
0.0244254
0.0142092
-0.00733155
-0.503722
0.0854867
0.0451537
0.0177524
0.094754
-0.180437
-0.0505491
0.135342
0.013086
-0.0063342
0.00482048
-0.323653
-0.298913
-0.03605
-0.431301
0.0232657
0.0600882
-0.402462
0.49476
-0.0079971
0.0187226
0.418908
-0.147922
0.00842632
0.0218169
-0.313457
0.0129244
-0.178006
0.0255486
0.462375
0.0213433
0.00159725
0.024439
-0.0595566
-0.0218289
0.0799119
0.116876
0.379264
0.00987711
0.0200808
0.013119
0.0206329
-0.0253824
-0.0234616
-0.0873491
0.0249095
-0.133244
-0.290858
-0.135728
-0.182357
0.022907
-0.0149826
-0.540257
-0.18711
-0.00824157
-0.291793
-0.51777
-0.0117906
0.031839
0.0156017
-0.184151
-0.132305
0.50401
0.00906407
-0.0177477
0.00802116
0.0511669
0.00127168
-0.105423
-0.0254195
-0.316054
0.0205845
0.0458024
0.0105721
0.0511765
0.0354488
-0.0552006
0.261935
-0.492617
-0.0561998
-0.290602
-0.143503
0.0319615
0.0276924
0.508456
-0.143647
-0.0229632
0.0183722
0.49144
0.0152241
-0.299198
-0.0133127
-0.0739731
-0.0281506
0.0240557
-0.00787789
-0.360017
-0.381802
-0.299385
0.306379
-0.539971
0.0273293
-0.347613
-0.45597
0.0128175
0.0243375
0.00231667
-0.314813
-0.00903316
-0.433517
0.157071
-0.260037
0.00645743
-0.364975
-0.429945
0.510823
0.0657162
-0.096805
0.0109062
-0.53171
-0.00969181
0.409098
-0.300278
0.148877
-0.415392
-0.369218
-0.0505753
-0.00153765
0.0101262
-0.0797729
-0.458935
-0.538605
0.00302367
0.331822
-0.0479357
-0.208971
0.364732
-0.300703
-0.297902
-0.0143812
0.0956675
-0.0884611
-0.0478659
-0.0390283
-0.297799
0.0217266
-0.47862
-0.00292679
-0.0136268
-0.162521
-0.208913
-0.303322
-0.0305914
-0.499253
-0.504352
-0.381689
0.123478
0.0131791
-0.0291839
0.0130826
0.0370119
-0.376489
-0.174207
-0.0114702
0.0367084
-0.0903354
0.486659
-0.0103024
0.0374857
0.449409
0.0285013
0.0239616
-0.010154
-0.124247
0.0279903
-0.0539154
-0.296208
-0.180179
0.00277627
0.363931
0.361349
0.0281258
-0.0351975
-0.10468
0.0128513
0.0152126
-0.00328317
-0.503655
-0.0391573
0.0186016
-0.109956
0.192378
-0.19584
0.0414759
-0.362025
0.00881228
0.00340295
0.453579
-0.287625
-0.177707
0.0302622
0.0163603
-0.440515
-0.314193
-0.269322
0.299481
0.0179829
-0.0340118
0.0263522
-0.534716
0.0756623
-0.251823
0.0716268
-0.00484097
-0.0391826
-0.00159017
0.00872377
0.0312027
0.00538205
-0.355451
-0.000926545
0.0482917
-0.0106578
-0.0522398
-0.293098
-0.298426
-0.115901
-0.529182
0.0159321
0.0194197
-0.0437344
-0.356359
-0.0190367
-0.0140465
-0.183754
0.0958514
0.146215
0.0183319
-0.244521
-0.371853
-0.364042
0.0394821
0.170681
0.379112
-0.080209
-0.397841
-0.253824
-0.16668
-0.00929163
0.0692638
-0.136374
0.16049
0.0157026
-0.0894579
0.00273442
0.0222961
0.0314155
-0.000701314
0.0331667
0.0305302
0.326894
-0.0200498
-0.0303009
-0.0722192
0.00254325
0.034752
-0.0745538
-0.368767
0.297662
-0.165733
-0.291362
0.0146699
-0.527716
0.0162622
-0.537018
0.00735138
0.0237215
-0.0245135
-0.0460382
-0.539016
0.479663
-0.0843454
-0.0572861
-0.00564805
0.024818
0.0203076
0.0233371
-0.507251
-0.061302
-0.0190368
-0.270816
0.403498
-0.364023
-0.0280769
-0.190022
0.272606
-0.128196
-0.0842698
0.407609
-0.246897
0.010817
-0.297913
-0.280947
0.207607
-0.359172
-0.135683
-0.0275445
0.012764
0.0347368
0.047338
0.122954
-0.520934
-0.142663
0.00684852
-0.324881
0.0136599
-0.33247
0.485568
0.0149921
-0.515393
-0.000357142
-0.00829219
-0.0244763
-0.295318
-0.519625
-0.127645
0.152167
-0.0165946
-0.359959
0.0125758
-0.0526823
0.0178333
0.0543022
-0.0175625
-0.351803
0.0484525
0.209993
0.0227587
0.0155345
0.213106
-0.248329
-0.0861994
0.0285351
-0.0487244
-0.352961
-0.262484
-0.0207947
-0.00179755
-0.0205745
0.0324603
-0.422539
-0.493867
-0.305757
0.033724
0.00610425
-0.40403
-0.241239
0.0160772
-0.516515
5.61932e-05
-0.21319
-0.524784
0.00228524
-0.432819
-0.524594
-0.238444
-0.51536
-0.353235
0.0165254
0.0486236
0.279061
-0.320375
0.0458426
-0.529178
-0.0417405
0.0324592
0.0237942
-0.0430876
-0.125271
-0.0501783
0.401432
-0.509717
0.34204
0.16542
0.0113559
-0.107375
0.515834
-0.000172882
0.422263
-0.120684
0.0153538
0.030321
0.0149075
0.0433978
0.142242
0.440213
-0.0335193
0.00573591
-0.541749
-0.305502
-0.153929
0.021318
-0.167114
0.0339949
0.00862299
-0.345125
-0.439278
0.00925902
-0.00478057
-0.34552
-0.327048
-0.124727
0.0473571
-0.435751
-0.0368955
0.011726
-0.0299505
0.00956062
-0.0056492
-0.00183347
-0.413573
-0.12216
0.0341685
0.331648
-0.127921
-0.313184
-0.369541
-0.353563
-0.246552
0.0404873
0.0185034
-0.0302351
0.0109962
0.117261
0.0105914
0.348934
-0.0799333
-0.316921
0.024529
-0.302129
0.188492
-0.507745
0.00848997
0.407329
-0.0780507
-0.256933
-0.3182
-0.0590959
-0.00204324
-0.394669
-0.167834
-0.40572
-0.00764464
-0.346552
0.0249085
-0.453163
-0.283956
0.192268
0.032844
0.0266512
-0.317892
-0.435998
-0.091755
-0.011882
-0.251441
-0.119017
-0.139274
-0.0859174
0.197836
0.0258767
-0.19139
0.0349635
-0.0936084
-0.0130217
-0.454472
-0.0131797
-0.031187
-0.327885
0.51607
0.0237985
-0.180476
-0.0505721
0.130803
0.00965516
-0.23621
0.0880533
0.0128809
0.0318841
0.0109855
-0.323387
-0.0806671
-0.448304
-0.170462
-0.313298
0.0692026
-0.0130769
-0.00401924
-0.0587722
-0.112867
-0.0937293
-0.293911
-0.0404645
-0.124919
0.0663573
0.0236723
0.00403914
-0.147509
-0.316385
-0.529193
0.0339542
-0.3089
0.00828885
-0.36974
0.494109
-0.136929
0.0300297
-0.00737813
-0.126643
-0.423163
-0.0197559
0.021056
-0.0350596
-0.138167
-0.0334768
-0.164842
-0.35444
0.426775
0.0242959
-0.0653875
-0.476527
0.0217736
0.283434
-0.00453125
-0.381298
0.0528945
0.0325085
0.0743416
0.264344
-0.0220207
-0.263969
0.0331483
-0.258499
-0.0227213
-0.320423
0.107164
0.0220172
0.0541736
-0.508231
0.0304509
0.0501842
-0.183287
-0.0379826
-0.0097124
-0.460807
0.103372
0.425948
-0.0295836
0.18668
0.0304282
0.334114
0.0887843
-0.0460748
-0.24754
0.0404783
0.0209056
0.0171993
-0.00238516
-0.355653
0.469471
-0.11594
-0.0721729
0.0382368
0.00857738
-0.33873
0.0242971
-0.359306
-0.18981
-0.295026
0.0116592
0.0006042
0.00609943
-0.133179
-0.0479576
0.402111
-0.306461
-0.402627
-0.277556
-0.00152517
0.491105
0.0090432
-0.111384
-0.0388768
-0.12622
0.26646
0.0347176
-0.00431354
-0.138206
-0.00431169
-0.080481
0.277023
-0.349704
-0.371953
-0.0676136
-0.341688
-0.00824714
-0.0125993
0.0139074
0.293823
0.154887
-0.135095
-0.225813
-0.438088
0.0694792
-0.0144175
-0.00580655
-0.00392689
-0.529721
-0.0164086
0.086961
-0.0058452
0.020325
-0.289488
0.383205
0.0136275
-0.206125
0.440483
-0.365767
-0.266045
-0.00874355
-0.110558
-0.119288
-0.427165
0.0106352
-0.364285
-0.541298
0.0911444
-0.0460076
-0.00669972
0.0634933
-0.0171261
0.030812
-0.2963
0.0148997
-0.0083669
-0.297761
-0.10487
-0.311206
-0.308398
0.451296
-0.30139
-0.0134781
0.0335125
0.0158769
0.0219515
-0.356256
0.00499147
-0.305264
0.0125056
-0.442445
0.1004
0.0518398
0.000499544
0.0559443
0.0702914
-0.0218515
-0.00925309
-0.306005
0.0108149
-0.1102
0.0458855
-0.523173
0.100878
0.0268984
-0.0218516
-0.160019
0.010566
0.0038844
0.0215486
0.0236505
-0.0332099
0.0169027
0.000856887
0.159245
-0.208686
-0.508211
-0.444073
-0.336486
0.00429394
0.0112596
0.0381719
-0.00552843
0.033363
0.00165691
-0.112647
0.0196768
0.0155694
0.0137888
0.0249351
-0.00637284
-0.524003
-0.0342254
0.0157146
-0.532336
-0.119737
0.00178282
-0.537038
-0.468821
0.0147696
-0.229314
-0.117195
0.0142462
0.235865
0.0916675
-0.00367565
0.0242369
-0.00308643
-0.0673503
0.0112674
0.0198601
0.00222736
-0.439326
-0.0548254
0.138695
0.0115138
0.0173767
-0.424275
0.112519
0.0153276
-0.0176036
-0.0309375
0.0152583
0.210876
-0.53982
-0.402426
-0.295392
0.364497
0.0883862
0.0145631
-0.476119
-0.273151
0.00942609
-0.174749
0.0212543
0.0300125
0.0193552
-0.304141
0.0721579
0.0159268
0.0242991
-0.278095
0.00139046
-0.0811918
0.0332042
0.317042
-0.306601
-0.309125
0.0266388
0.0777224
0.159585
0.0708784
0.00824285
0.109575
0.333698
-0.325479
-0.00178298
0.284861
-0.428873
-0.00887624
-0.345887
0.128096
0.367501
-0.223163
0.0334223
0.00729433
-0.122576
0.000844408
-0.0549843
-0.00421961
-0.186987
-0.424924
0.0811786
0.0065963
-0.262597
0.316042
0.453772
0.115445
0.00696479
-0.0766645
0.0330786
0.0319026
-0.12389
0.146971
-0.52343
0.010137
0.363137
-0.00211324
-0.398386
-0.289869
-0.315772
-0.00183417
0.0734775
0.504927
0.451945
0.184096
-0.30096
-0.0327258
0.151113
0.0105851
0.0187311
-0.305758
-0.222996
-0.0363278
0.023943
0.0932339
0.416063
0.362857
0.128096
0.00468005
0.0165493
0.00205836
0.435239
-0.424612
-0.0022295
-0.125597
-0.296663
-0.202382
-0.231143
-0.305171
-0.535774
-0.269935
-0.00246701
-0.0310995
-0.329095
0.0166811
0.136239
0.378906
-0.538756
0.0860285
0.152479
-0.299307
0.442379
0.357779
-0.411588
-0.339823
-0.30752
0.0171681
-0.00175488
0.030358
-0.0341052
-0.508478
0.264593
0.351917
0.140057
0.143254
-0.0139821
-0.116459
-0.0123372
-0.0897019
0.011768
0.130189
-0.529616
-0.438111
0.0121512
-0.00649139
-0.0594611
-0.178591
-0.272321
-0.535979
0.209564
0.0126209
0.322094
-0.00607934
0.337796
0.166959
0.0351409
-0.141268
0.324292
-0.35412
-0.108259
0.0125538
-0.0109265
-0.46951
0.107321
-0.00465273
0.0244268
0.0235492
0.00121543
-0.526947
-0.411901
-0.339164
0.488199
-0.539603
-0.0365351
0.0341707
-0.306945
-0.0542888
-0.0656458
-0.350193
0.0081512
-0.426018
-0.341528
-0.168658
0.155254
0.361135
0.0293257
0.50856
-0.0536222
-0.300082
0.0115897
0.0215233
0.0621049
0.518135
-0.24947
0.204706
-0.535855
-0.269751
0.306642
-0.266836
0.404056
-0.0357571
0.447624
-0.442887
-0.00204423
0.17269
-0.339923
-0.0863711
0.0651887
0.0173783
-0.11426
-0.116344
-0.120692
0.0202736
-0.363344
0.300993
-0.299935
-0.5357
-0.340054
0.0832229
0.474279
-0.367047
0.00754926
-0.0372418
-0.122729
-0.363245
0.0127777
0.0974889
-0.292583
-0.433636
-0.00727935
0.395397
0.00394561
0.0130351
0.477092
0.110613
-0.306285
-0.300221
-0.360206
-0.357381
-0.00155171
-0.109419
0.0494756
0.00728961
0.351575
-0.166837
-0.0717524
0.517137
-0.308998
0.0200025
-0.06985
0.420655
-0.0452762
-0.0852193
0.242715
-0.32033
-0.320039
-0.34314
-0.380859
-0.53196
-0.302255
-0.318602
-0.340518
-0.0400584
0.101057
-0.0358708
0.00291535
-0.295969
-0.35344
0.0153075
-0.00144214
-0.533436
-0.299358
-0.0530822
-0.531313
0.0393598
0.444557
-0.358326
-0.193259
0.0113302
-0.300443
0.497034
0.0081786
0.048559
-0.439965
-0.420378
-0.439249
-0.390064
0.0139295
-0.454889
-0.310927
0.17175
-0.203867
0.327676
0.00277143
-0.0647014
-0.301517
-0.360827
-0.0454381
0.012269
-0.29491
0.324474
-0.341556
-0.168816
-0.0615658
-0.317265
0.0301304
-0.457446
0.0129415
-0.0713103
0.0377788
-0.0027941
0.00204028
-0.0651493
0.0314161
-0.00478442
-0.465192
-0.0921593
-0.387776
-0.535141
-0.302306
0.0102205
-0.363909
0.505761
-0.308918
0.0372395
0.0354087
-0.452616
-0.339555
-0.352494
0.253724
0.0879063
0.0014383
-0.463358
-0.537612
0.0549736
-0.441534
0.159309
0.0268664
-0.304405
0.262126
-0.502664
-0.0126187
-0.0435213
-0.303714
-0.448728
-0.321782
-0.253807
-0.321925
-0.311178
-0.399038
0.0238831
-0.538331
0.0503757
0.0148594
-0.00802602
0.0345024
-0.539763
0.251535
-0.320967
-0.324992
-0.063968
0.325572
-0.0623577
-0.331813
0.388342
-0.465123
-0.534832
0.48367
0.0829802
-0.00860705
-0.251411
0.174552
-0.0624821
-0.306599
-0.366992
0.452705
0.0264079
-0.0420873
0.211868
0.0156945
-0.012495
-0.050699
-0.32026
-0.0441711
-0.0347101
-0.303349
-0.100215
-0.302871
-0.4355
-0.315519
-0.333986
-0.343739
-0.522206
-0.33147
0.204138
-0.0958654
0.0490928
0.494608
-0.215213
-0.304194
0.292242
0.280906
-0.00383941
-0.283271
-0.345199
-0.0443827
-0.00163738
-0.0415855
-0.411746
0.0122299
0.0261498
-0.152437
-0.312721
-0.0538123
0.199726
0.0468608
0.143592
-0.141664
0.0148496
0.0227035
-0.0959612
-0.284885
0.0412957
-0.0517539
0.350449
-0.342337
0.0509344
-0.48301
0.00194923
-0.318728
0.0830466
0.080356
-0.00400958
-0.285745
-0.074564
-0.531391
-0.542522
0.296218
0.0236189
-0.0231104
-0.373784
-0.418788
-0.0194231
-0.232989
-0.324749
-0.147245
0.310137
-0.00571769
0.0208546
0.0320221
-0.305609
-0.123214
0.0164458
-0.494353
0.0271465
0.252863
-0.299132
0.00288051
0.181859
-0.161505
-0.531433
0.0614201
0.116602
0.0865089
-0.151045
-0.0050768
0.0222843
-0.335978
-0.311944
-0.197334
-0.00352364
-0.348809
0.0433959
0.0294843
0.00975975
-0.361877
-0.485443
-0.0324942
-0.441382
-0.416858
-0.155698
-0.301286
-0.408897
-0.531182
-0.402794
-0.125887
-0.11861
-0.30791
-0.137433
0.00968618
0.151743
-0.082813
-0.516205
0.0215997
-0.37137
0.030974
0.43077
-0.199321
-0.00206611
-0.00350411
-0.473648
-0.523511
-0.296008
-0.303652
0.00667852
-0.0873518
-0.473116
-0.067064
-0.425938
0.186177
0.340335
-0.335152
-0.0415342
0.013455
-0.24631
-0.270308
0.0365019
-0.312258
-0.398176
0.00141843
0.0190535
0.0117888
0.0145671
-0.53273
-0.0233143
-0.132881
0.0151481
-0.030499
0.166738
0.0345275
-0.302668
-0.216771
0.0127604
-0.00478962
-0.243637
-0.0403837
0.265172
-0.528084
-0.527139
-0.0828238
0.419571
0.162437
-0.00409747
-0.263059
-0.53241
-0.0213711
-0.316188
-0.323291
0.287741
-0.0639241
-0.0420363
-0.186929
0.100584
-0.453868
0.0220357
0.00462703
-0.019269
-0.363411
-0.451878
0.0821015
-0.0598263
-0.0150665
-0.0464842
-0.165356
-0.319992
0.0306753
-0.0943032
-0.353047
0.329305
0.0298195
0.0372328
-0.52262
-0.531708
0.0326371
-0.380551
-0.0739059
-0.292498
-0.228704
0.0123925
-0.297256
-0.0785631
0.0115082
-0.299314
-0.296853
0.0309182
0.0240329
-0.31262
0.00237904
0.0236289
-0.134303
0.201849
0.221652
-0.473245
-0.0532597
-0.0711683
-0.348425
0.00245865
-0.377218
-0.468881
-0.0521761
-0.0981363
-0.267109
0.0482145
-0.272259
-0.00455924
-0.282873
0.441561
0.0163671
-0.348719
-0.365203
0.0393959
0.0430947
0.45695
-0.0716903
-0.298925
-0.30145
0.0261263
-0.120594
-0.51982
-0.0355571
-0.129305
-0.124959
0.0658496
-0.303248
-0.260866
-0.033163
-0.310081
-0.422894
0.23534
-0.0420032
0.0109634
-0.00358781
0.0169264
0.215295
-0.343721
0.0119435
-0.0706388
-0.49228
-0.351515
0.0223786
-0.0350109
0.468499
-0.309144
0.0225844
-0.381396
-0.102356
-0.192451
-0.107802
0.0056814
-0.0572878
0.0430158
0.0311719
-0.338212
0.00917633
0.258248
0.0277585
-0.384166
-0.0321328
-0.0313942
-0.00437555
-0.0462917
0.0194619
-0.123677
-0.53859
-0.217531
-0.0765537
0.226099
0.0104424
0.146048
-0.158487
-0.249623
-0.534924
0.00684132
-0.403584
0.026352
0.51164
-0.304185
-0.542905
0.00730741
-0.065352
-0.177063
-0.488702
0.427037
0.0170464
-0.230574
0.321121
0.197857
-0.130845
-0.026723
0.050129
0.121077
-0.339785
0.0395719
-0.34579
0.179996
-0.4293
0.320207
-3.88304e-05
-0.268289
-0.00399369
0.0395097
-0.291764
-0.00206261
0.411354
-0.435508
-0.242675
0.124185
0.343605
0.0414695
-0.215663
-0.123433
-0.387697
0.0494565
-0.011731
0.00282805
-0.0399823
-0.124623
-0.304009
-0.0184764
0.191225
0.371474
0.00934165
-0.0152545
-0.353134
-0.208594
0.0377674
0.0193409
-0.0292962
-0.302528
0.0520906
-0.0690252
-0.286657
-0.178079
0.0469913
0.338015
-0.182942
0.0272354
-0.0125752
-0.238321
0.50028
-0.121375
-0.105189
-0.347454
-0.303329
-0.213529
0.0133081
0.0548404
-0.0130275
0.101751
-0.259385
-0.166484
-0.0737134
-0.178402
-0.397525
0.0950243
0.0297635
-0.533211
0.0457439
-0.298418
-0.244093
0.00867655
0.0907696
0.0524419
0.00080731
0.0259437
-0.126933
-0.00864909
0.0778785
0.00595304
0.0155901
0.0246321
0.0322759
0.16789
-0.0715607
-0.0226869
0.0334063
0.0151659
0.0741253
0.0639231
0.410283
0.0276545
0.0864061
0.476977
-0.0119309
0.0194931
0.0607748
-0.0737193
-0.525522
-0.531325
-0.308369
-0.333795
-0.211701
-0.274305
0.018467
-0.163345
0.00861737
-0.334763
-0.0324916
0.0574045
0.0577533
-0.159999
0.0223076
-0.0919731
0.0056504
-0.295783
-0.277993
0.0156916
-0.375634
-0.229036
-0.0266725
-0.0764002
0.0262938
-0.00683114
-0.539248
-0.0243512
-0.179688
-0.295188
0.0259132
-0.00755142
-0.195106
-0.334814
0.105221
-0.0444331
-0.300269
0.0237622
-0.365349
-0.152991
-0.491377
-0.00184318
-0.308454
0.0341372
0.0243346
-0.288506
-0.16611
-0.367159
-0.326354
-0.534423
-0.300552
-0.119127
-0.242177
0.0124903
-0.12517
-0.0242888
0.00717523
0.33396
0.0217083
0.0302409
-0.00595762
-0.0014247
-0.104972
-0.139038
-0.306221
-0.2837
-0.368255
-0.0448767
0.146004
-0.0376666
0.0319756
-0.182553
0.0178086
-0.0168331
0.00919124
-0.0468272
0.0820965
0.37754
-0.0897581
-0.135689
0.0234151
0.268529
0.270858
-0.36256
-0.494519
-0.0426361
-0.118876
0.0264057
-0.502131
-0.293894
0.0317464
0.0106223
-0.024035
0.0240026
-0.170024
-0.302805
-0.481041
0.0528968
-0.0450447
0.020711
-0.315439
-0.151932
0.00591178
-0.037538
-0.21769
0.11933
-0.0451621
-0.0839968
-0.209208
-0.350003
-0.0174422
0.0102522
0.0569689
-0.0500522
0.0180267
-0.334638
-0.00821537
0.0446754
-0.00530604
-0.539762
-0.097068
0.0386983
-0.376828
-0.500702
-0.280564
0.0103789
-0.0776767
0.437232
0.015864
-0.466885
-0.306067
-0.0652993
-0.0896067
-0.0136221
-0.540365
0.00480787
0.0124358
-0.00396766
-0.00265193
-0.00324244
-0.35947
-0.0303404
0.0279822
0.0775115
-0.317244
-0.0246789
0.00107077
0.0119505
-0.399336
-0.296962
-0.466271
-0.316896
-0.0841192
0.0405326
0.0960899
-0.138025
0.36195
0.0279546
-0.114308
-0.0267802
-0.129553
-0.0166527
-0.306613
-0.487027
-0.0794159
0.0121643
-0.0291099
0.0316824
-0.0116129
0.0328138
0.0251255
-0.0219112
0.34351
0.0212059
-0.140179
0.0704097
0.0176848
-0.540543
-0.0793084
-0.0283657
0.00662372
-0.311175
-0.00973924
-0.00308711
-0.00597092
0.00614419
-0.233501
-0.0839663
0.0121665
0.232646
0.00252406
-0.0738734
-0.017175
-0.240095
0.0091357
0.0307035
-0.343373
-0.0348005
-0.248753
-0.102595
0.0874671
-0.137344
-0.00492548
0.0238494
0.0230669
-0.446682
-0.0479189
0.0369735
0.498515
0.0153503
-0.00415661
0.00863158
-0.379861
0.126451
-0.150229
0.173399
0.141187
0.252851
-0.0194337
-0.00294815
0.246006
-0.327536
0.0391454
-0.00958928
-0.000644151
-0.0586403
-0.281299
0.00799648
-0.0465313
-0.300332
0.138573
-0.00817918
-0.510122
-0.000954151
0.0783103
-0.299126
-0.075825
0.0269331
-0.0553929
0.0360692
-0.0330356
0.0109854
0.016704
0.0036624
0.010042
0.011763
0.1645
0.0431996
-0.221978
-0.0111606
0.0908277
0.0365703
-0.0486438
-0.306857
0.00890807
-0.0181122
0.336341
-0.0334732
0.00706805
-0.219758
-0.409373
-0.296949
0.051304
-0.0174776
-0.0777742
0.0235626
0.0202295
-0.104502
0.101384
-0.00372073
0.161852
0.0475535
0.0156675
-0.0126086
-0.00492423
-0.0378378
-0.1277
-0.10382
-0.0708498
-0.342318
-0.0390204
0.0265935
-0.00737306
-0.291484
-0.00331825
-0.295656
0.0477765
-0.144713
-0.0435136
0.0360212
0.0232943
0.141871
-0.326394
-0.303926
-0.0223875
-0.0739713
-0.383798
0.0753307
-0.285117
-0.472122
-0.336445
-0.077235
0.0481482
-0.116291
-0.117065
-0.0371279
-0.458435
-0.353718
-0.331168
-0.0280472
0.0144665
0.0386692
-0.233902
-0.00943672
-0.00120306
-0.11213
0.0319184
-0.0138916
0.00854938
0.25011
-0.0154063
0.0047025
0.022785
-0.313424
-0.00922338
0.0507057
0.0223526
-0.0321026
0.00939906
0.307754
-0.102705
-0.346742
-0.0121407
0.0011011
-0.149609
-0.54007
-0.345669
0.0275778
0.0167419
0.202245
0.331361
0.0133134
0.388466
0.0340555
-0.000325201
0.0182917
-0.315375
0.00373185
0.0367045
-0.0796301
0.0435938
-0.0231274
0.0151896
-0.156535
-0.0103376
0.066812
0.014712
0.0458012
-0.114801
-0.019977
0.0167057
-0.0603544
0.087664
-0.0395136
-0.018565
-0.317035
-0.361682
0.0172725
-0.199432
0.0204854
-0.0406436
-0.178561
-0.285383
-0.00794691
0.018941
0.053291
0.406385
-0.0361098
-0.0275178
0.0303898
0.023303
-0.0139662
-0.0214369
-0.0841294
-0.023215
0.182901
0.242971
-0.113211
0.0357573
0.464519
0.00914613
0.0162833
-0.529697
-0.314514
0.00853025
-0.00440726
0.0275848
0.0474982
0.0347259
-0.011297
-0.00136204
0.0271026
-0.460868
-0.312361
-0.0697439
0.0424658
-0.355052
-0.0282899
0.00181437
-0.538977
-0.043878
-0.00799659
0.0266344
0.0261019
-0.0752736
0.0163243
0.0147558
0.0361296
0.00508618
0.0456576
-0.0988327
-0.108791
0.0153998
-0.111105
-0.310101
0.0818193
0.0213896
0.283502
-0.00656606
0.0104299
0.0172296
-0.0797312
0.0158736
-0.471528
0.043537
0.423424
0.500086
-0.146066
-0.0403661
-0.0268024
0.0199371
0.0320926
-0.0298609
-0.263118
-0.244086
0.00833488
0.0927778
-0.526866
-0.0118643
0.0270992
0.0179397
-0.0303864
-0.0662929
0.118207
0.0142517
-0.0674311
0.064228
0.188537
-0.302828
-0.373987
-0.0213934
0.0106054
0.170162
-0.0302693
0.0261168
-0.147866
-0.0362881
-0.156064
0.00492013
0.297723
0.0115743
0.308204
-0.141002
-0.314703
-0.539878
0.016424
-0.116767
-0.0584697
-0.298173
-0.00738443
-0.0171981
-0.252372
0.0328815
-0.0153611
0.00260032
-0.00655641
0.0559218
-0.0670688
-0.524563
0.0142222
-0.0840774
0.0146634
-0.0065926
-0.00311646
-0.300859
-0.162152
0.0351143
0.0561011
0.0144473
-0.540125
0.00719613
0.0440103
0.0681888
0.0463374
0.152283
0.00676514
-0.333935
0.0222111
-0.0325619
-0.0275669
0.0232664
-0.00359938
0.0193718
-0.443978
0.00498772
0.0444716
-0.313482
-0.0126725
0.0280332
0.0202529
0.023891
-0.160083
0.0328431
0.0281087
0.450395
-0.0417072
0.0125278
0.0620046
-0.0104828
-0.330751
0.0790541
0.0538581
0.0317758
-0.0675899
0.0233154
-0.366897
0.00524827
0.0240463
-0.423605
0.0101136
-0.1574
0.0589744
-0.00528414
-0.0092083
0.155205
-0.0126243
0.0157694
0.0194882
-0.0452977
0.0319484
0.0261924
0.0507995
-0.0213227
-0.0170752
-0.0176421
-0.310753
0.0233904
0.0146589
-0.360134
0.0434656
-0.0714979
-0.254321
-0.310212
0.0108983
0.0481869
0.0270211
-0.00376193
0.0793671
-0.116285
0.0742975
-0.0599885
0.00136805
-0.0472837
0.0120108
-0.00501697
-0.0396868
-0.121288
0.0490971
-0.0391182
0.014087
0.0260523
0.0120308
-0.353769
-0.0358303
0.019064
-0.399019
-0.0299077
-0.0738918
0.027416
0.0240995
-0.00291115
-0.301029
0.00865468
-0.00364841
-0.0371567
0.0273168
0.0311964
0.0268534
-0.0182433
-0.0524583
0.0326248
0.174545
0.0187773
-0.119216
-0.00966429
-0.00371363
-0.0466244
-0.363081
0.0201887
0.0277505
0.0717475
0.0414054
-0.049572
-0.290139
0.0737889
0.0896911
-0.299903
-0.240434
0.0695449
-0.0325511
-0.110774