/*--------------------------------*- C++ -*----------------------------------*\
| =========                 |                                                 |
| \\      /  F ield         | OpenFOAM: The Open Source CFD Toolbox           |
|  \\    /   O peration     | Version:  v2012                                 |
|   \\  /    A nd           | Website:  www.openfoam.com                      |
|    \\/     M anipulation  |                                                 |
\*---------------------------------------------------------------------------*/
FoamFile
{
    version     2.0;
    format      ascii;
    class       surfaceVectorField;
    location    "450";
    object      Uf;
}
// * * * * * * * * * * * * * * * * * * * * * * * * * * * * * * * * * * * * * //

dimensions      [0 1 -1 0 0 0 0];


internalField   nonuniform List<vector> 
14470
(
(0.962798 -0.0161874 1.16181e-20)
(0.96093 -0.0159675 -1.07934e-20)
(0.962234 -0.0141837 -1.09655e-20)
(-0.131642 -0.00054511 0)
(-0.13926 0.00083137 0)
(0.992186 -0.00636 -1.37155e-20)
(0.992526 -0.00678428 4.87807e-21)
(0.99191 -0.00707083 6.73842e-21)
(-0.0431054 0.103733 -8.05673e-21)
(-0.0373705 0.102723 -5.27885e-20)
(-0.0389619 0.110612 -4.61557e-20)
(0.999963 -0.00054983 3.94351e-21)
(0.999958 -0.00052628 -1.66965e-22)
(0.999928 -0.000711947 -1.65888e-21)
(1.2276 -0.0265849 -4.17523e-20)
(1.23469 -0.0245413 -9.01236e-20)
(1.23226 -0.0324985 -3.4629e-20)
(1.11484 -0.236444 0)
(1.12033 -0.226053 -1.17908e-20)
(1.1302 -0.235669 2.58991e-20)
(-0.10065 0.0495391 -8.02227e-20)
(-0.0901415 0.0526261 4.52346e-20)
(-0.138262 0.0500658 3.79904e-20)
(1.02097 -0.0374855 -5.57091e-22)
(1.02237 -0.0384157 -2.05023e-21)
(1.02066 -0.0391965 -2.38161e-21)
(1.00005 -0.00202535 0)
(1.00004 -0.00188746 3.90253e-21)
(1.00005 -0.00188856 0)
(1.00002 -0.00215993 -5.31881e-22)
(1.00008 -0.00217666 -3.56871e-21)
(1.00224 -0.00947802 -1.65187e-21)
(1.00213 -0.00901639 -4.41661e-23)
(1.00191 -0.00930632 -4.15097e-23)
(-0.0636346 0.143422 -1.07857e-21)
(-0.0836817 0.14225 5.63012e-21)
(-0.083366 0.146765 2.37393e-20)
(1.01997 -0.0233553 1.50354e-21)
(1.0194 -0.0223984 0)
(1.02071 -0.0224966 0)
(1.0667 -0.00385923 0)
(1.06823 -0.00339478 -1.47436e-20)
(1.0668 -0.00232785 0)
(1.13692 -0.0670652 3.43686e-20)
(1.14318 -0.0691668 1.84377e-20)
(1.13874 -0.0741195 1.63489e-20)
(0.994334 -0.00876362 -1.4219e-20)
(0.994291 -0.00924552 1.98799e-21)
(0.994765 -0.00894679 -8.35009e-21)
(-0.0681126 -0.0665935 3.80667e-20)
(-0.0667006 -0.0654346 5.24424e-20)
(-0.0683984 -0.0762886 8.45365e-21)
(1.01764 -0.00512606 5.6269e-22)
(1.01757 -0.00473564 0)
(1.01798 -0.00494266 0)
(1.02331 -0.0100271 0)
(1.02401 -0.00981041 -1.90075e-21)
(1.02321 -0.00941013 7.90052e-22)
(0.99999 -0.000210492 4.044e-21)
(0.999991 -0.000220069 3.89185e-21)
(-0.0445901 0.151076 -3.24279e-20)
(-0.0407143 0.160656 4.41341e-20)
(-0.0368235 0.151524 -4.91411e-20)
(-0.0705368 0.0455844 -8.12595e-20)
(-0.122934 0.0467328 -4.15304e-20)
(-0.042302 0.139462 -1.34004e-20)
(-0.039786 0.142892 -5.71997e-21)
(0.919247 -0.0591142 -4.03313e-20)
(0.924257 -0.0579404 7.7758e-21)
(0.920161 -0.0534058 4.53023e-21)
(0.999958 -0.00356788 -2.27186e-21)
(1.00003 -0.00376079 1.65739e-21)
(1.00005 -0.00349076 1.05378e-21)
(1.00003 -0.000427137 -1.27495e-21)
(1.00003 -0.000489188 4.21185e-21)
(1.00006 -0.000603623 2.16929e-21)
(1.01738 -0.00524191 -2.38038e-22)
(1.01775 -0.00547269 7.42062e-22)
(1.1604 -0.140016 -4.23497e-20)
(1.16847 -0.138165 -3.1625e-20)
(1.16637 -0.147546 -3.5642e-20)
(-0.296677 0.0186283 3.6786e-20)
(-0.298852 0.0186715 3.41402e-20)
(-0.330112 0.0189166 1.53556e-19)
(1.27374 -0.0432778 0)
(1.26261 -0.0438098 0)
(1.26958 -0.0516095 0)
(0.996585 -0.00361862 -5.05802e-22)
(0.996427 -0.0033459 -2.81723e-21)
(0.996243 -0.00378928 0)
(0.997234 -0.00887955 3.84696e-21)
(0.997004 -0.00933483 -1.00267e-21)
(0.997399 -0.00937397 6.70079e-22)
(1.00561 -0.000626778 -1.36014e-21)
(1.00533 -0.000620989 6.60453e-22)
(1.00517 -0.000354062 -2.3197e-24)
(1.08214 -0.0315572 -1.54133e-20)
(1.08111 -0.0336897 -1.40212e-20)
(1.08361 -0.0330069 -1.21443e-20)
(1.06271 -0.00747784 1.07951e-20)
(1.062 -0.00882185 -7.12386e-21)
(1.06096 -0.00772144 -7.81967e-21)
(0.916976 0.00379764 3.78271e-20)
(0.913538 0.00550984 -3.38224e-20)
(0.913944 0.00060346 8.18148e-21)
(-0.148437 0.0593933 0)
(-0.14311 0.0551975 0)
(-0.141271 0.0493529 -4.12955e-20)
(1.08115 -0.0759957 0)
(1.07727 -0.0740023 -6.54931e-21)
(1.08105 -0.0714548 0)
(1.15138 -0.143081 1.63213e-21)
(1.15318 -0.134263 5.24542e-20)
(1.04783 0.040196 9.74208e-20)
(1.04313 0.0361853 -2.52119e-20)
(0.886041 0.051548 8.6204e-20)
(-0.103487 0.0154121 1.46314e-20)
(-0.0943606 0.0311672 3.97718e-20)
(-0.125586 0.0226887 4.16159e-20)
(1.00001 -0.000276654 -1.95359e-21)
(1.00002 -0.000403276 -5.32653e-21)
(0.992523 -0.000368942 8.27289e-21)
(0.992081 -0.000635468 3.18473e-21)
(0.992127 -6.40174e-05 -9.65074e-21)
(0.996425 -6.49253e-06 3.59979e-21)
(0.996708 -0.000141624 -1.29888e-21)
(0.996665 0.000199037 -5.40103e-21)
(-0.245403 0.041716 -1.1675e-20)
(-0.251015 0.0406515 5.63007e-20)
(-0.229875 0.0474924 1.18861e-19)
(0.999997 -0.000492133 -3.65528e-21)
(1.00001 -0.000253308 0)
(1.00002 -0.000248247 3.93017e-21)
(1.03193 -0.0080747 6.72632e-22)
(1.0315 -0.00735283 2.40083e-21)
(1.03258 -0.00750482 -4.63206e-21)
(0.994411 -0.00811603 -4.22817e-21)
(0.993887 -0.00847307 3.24111e-21)
(1.08369 -0.0288241 -1.57372e-20)
(1.0806 -0.0294572 4.45183e-21)
(1.00586 -0.000868421 -5.754e-22)
(1.00591 -0.000579669 6.21086e-22)
(1.10381 -0.0481995 1.21887e-20)
(1.10722 -0.0507236 -5.69708e-21)
(1.10668 -0.0460289 -4.66016e-21)
(1.00001 -0.000714489 2.68646e-21)
(0.999994 -0.000742289 -3.50155e-21)
(0.897796 -0.117254 2.17754e-20)
(0.907186 -0.115646 9.12911e-21)
(0.904476 -0.125868 -8.35e-21)
(-0.0506502 0.0956542 2.76769e-20)
(-0.052316 0.104295 7.79892e-20)
(1.00241 -0.00859745 1.19764e-22)
(1.00228 -0.00816822 0)
(1.00259 -0.00837275 0)
(1.15459 0.0169681 -1.03838e-21)
(1.15307 0.0226427 3.2084e-20)
(1.14888 0.018778 -2.73637e-20)
(1.03133 -0.00847279 -1.249e-21)
(1.03231 -0.0086836 1.72333e-21)
(1.00001 -0.000262447 5.11673e-22)
(0.90201 -0.0176823 6.57413e-21)
(0.896703 -0.0162682 -1.85051e-20)
(0.901269 -0.0120149 7.38969e-21)
(0.828441 -0.323349 -8.35951e-21)
(0.846665 -0.332542 -6.04962e-21)
(0.821663 -0.353889 -8.00139e-21)
(0.993904 -0.00682672 4.28643e-21)
(0.993622 -0.00647505 -7.28709e-23)
(0.994139 -0.00627584 5.61403e-21)
(1.09071 -0.00409103 -1.73802e-20)
(1.09027 -0.00702448 4.15353e-20)
(1.08783 -0.00480326 2.68041e-21)
(1.00279 -0.00125176 -9.21057e-22)
(1.00296 -0.00117438 -2.95634e-22)
(1.003 -0.00141908 0)
(1.01966 -0.0365564 3.04444e-21)
(1.02109 -0.0359973 4.56297e-21)
(-0.258323 0.0277644 -1.26702e-20)
(-0.250145 0.0271276 -7.94332e-20)
(1.05491 -0.0462212 -8.90268e-21)
(1.05266 -0.0464181 5.60228e-21)
(1.05422 -0.0486105 -1.57186e-20)
(1.06339 -0.00622475 1.44286e-20)
(1.06379 -0.004765 6.84315e-21)
(1.06215 -0.00508039 -9.79826e-21)
(0.0210393 0.000447209 1.70732e-20)
(0.0465269 0.0106015 1.29947e-19)
(0.0549064 0.00830343 7.66684e-20)
(0.979043 -0.0108387 -7.70875e-21)
(0.977822 -0.0105045 -6.55326e-22)
(0.978948 -0.0097151 -4.2588e-21)
(0.599074 0.0282872 -3.46848e-20)
(0.579396 0.0416215 -7.22091e-20)
(0.577868 0.0135473 8.98978e-20)
(-0.163297 0.0554773 0)
(-0.127605 0.0584611 0)
(-0.161248 0.0585555 5.45317e-20)
(0.522247 0.207884 1.9703e-21)
(0.398109 0.227449 -2.11202e-20)
(0.516501 0.225883 -1.12113e-20)
(0.180928 0.0463398 1.55957e-20)
(0.121359 0.042105 -1.92703e-21)
(0.179817 0.0524626 1.03743e-19)
(0.999999 -0.000692061 -1.36718e-21)
(0.999992 -0.000748768 -5.30279e-21)
(1.00002 -0.000941698 -1.09078e-20)
(0.792849 -0.132967 -4.0239e-20)
(0.807638 -0.140012 3.37006e-20)
(0.805106 -0.123989 -1.27644e-20)
(0.921156 0.0131609 -3.9829e-20)
(0.750185 0.0263968 0)
(0.758635 0.0206447 1.93469e-20)
(0.994636 -0.00330286 -2.62678e-21)
(0.994413 -0.00371648 4.19936e-21)
(0.994843 -0.00357246 -3.89622e-21)
(0.999973 -0.000628789 8.15109e-22)
(0.999977 -0.000633982 -4.75181e-21)
(0.999987 -0.000431742 4.17718e-21)
(0.782408 -0.139358 -2.69649e-20)
(0.780978 -0.122311 -1.86327e-20)
(-0.0716745 -0.0664576 0)
(-0.0676714 -0.0584417 0)
(1.13147 -0.0660763 -2.11374e-20)
(1.13532 -0.0615637 3.73966e-20)
(0.978752 -0.0702178 -3.45888e-22)
(0.981923 -0.0717306 -4.33228e-22)
(0.982248 -0.0681328 2.02148e-21)
(1.06445 -0.00728392 8.41318e-21)
(1.26154 -0.151474 2.56763e-20)
(1.25547 -0.160441 8.32879e-20)
(1.25181 -0.149072 3.90776e-20)
(0.999967 -0.000627663 1.13642e-21)
(0.999947 -0.000813528 -4.7467e-21)
(1.11059 0.0326504 5.30607e-20)
(1.10826 0.0277609 -2.09117e-21)
(1.10488 0.031719 2.50841e-20)
(-0.153504 0.0637625 0)
(-0.154102 0.0688077 -4.90706e-20)
(0.824011 -0.302417 -5.75434e-20)
(0.80059 -0.322976 0)
(-0.0590908 0.132757 3.79667e-20)
(-0.0529427 0.13415 2.35077e-20)
(-0.0584463 0.125989 5.41594e-20)
(1.35527 -0.186499 2.53079e-19)
(1.3494 -0.173933 5.50103e-21)
(1.36836 -0.176516 1.71697e-19)
(1.37075 -0.202526 2.69957e-20)
(1.33923 -0.194915 2.73328e-20)
(1.08645 -0.121496 -1.65242e-22)
(1.09265 -0.127339 1.39256e-22)
(1.09316 -0.118941 1.23835e-20)
(-0.107176 -0.0060719 -5.59557e-20)
(-0.078504 0.00798813 -3.20881e-20)
(0.995769 -0.0123694 -5.18877e-21)
(0.995947 -0.0129585 1.30501e-20)
(0.996307 -0.012381 4.86175e-21)
(0.184125 0.048265 -4.42919e-20)
(0.257026 0.0535432 0)
(1.13523 -0.0907395 -4.52492e-20)
(1.13015 -0.0941316 4.33541e-20)
(1.12973 -0.0874902 4.54529e-20)
(1.04134 -0.0657011 2.41559e-21)
(1.04415 -0.0668534 1.24101e-20)
(1.04157 -0.0688811 7.68358e-21)
(0.999988 -0.000385436 3.91657e-23)
(0.999962 -0.000597253 0)
(-0.127475 0.103376 4.62256e-20)
(-0.131342 0.107458 -2.5214e-20)
(-0.122826 0.110843 -3.65902e-20)
(1.10136 -0.0511715 -2.41426e-20)
(1.10035 -0.0464747 0)
(-0.0914654 0.23736 2.39592e-20)
(-0.0987383 0.224789 1.05038e-20)
(-0.0842199 0.208895 2.182e-20)
(0.992944 -2.27121e-05 6.43235e-21)
(0.992962 -0.000559301 7.87922e-22)
(0.0859168 0.0921924 7.31098e-20)
(0.0256449 0.0881953 -8.67146e-20)
(0.0551366 0.0796061 -1.22979e-19)
(0.595267 0.039166 7.1072e-20)
(0.461121 0.0445837 6.51127e-20)
(0.444706 0.0499833 5.43449e-20)
(0.678102 0.169698 8.5164e-21)
(0.541498 0.182034 9.41762e-21)
(1.00476 -0.00713635 1.31255e-22)
(1.00472 -0.00744073 0)
(1.00446 -0.00711225 0)
(0.994413 -0.00301775 7.38938e-22)
(0.994859 -0.00290657 0)
(0.999986 -0.000188266 -8.45669e-24)
(1.00008 -0.000964122 -1.75962e-21)
(1.0001 -0.000941024 6.61719e-21)
(1.00012 -0.00112134 -3.83255e-22)
(-0.0486096 0.141524 1.26502e-20)
(-0.050616 0.148558 1.29795e-20)
(0.114982 -0.120287 -1.39125e-21)
(0.0798952 -0.127544 -5.04739e-20)
(0.0843019 -0.0881872 -1.0984e-21)
(-0.28711 0.0105304 2.34901e-21)
(-0.291106 0.0109406 0)
(-0.315361 0.0130472 -1.19319e-19)
(0.980204 -0.0109783 0)
(0.979325 -0.0116871 2.0787e-21)
(0.999139 -0.00250323 -2.75332e-21)
(0.999122 -0.00270692 8.50636e-22)
(0.998983 -0.00258123 5.73197e-22)
(1.05738 0.00150218 -9.74191e-23)
(1.05626 0.00223465 -2.96806e-21)
(1.05782 0.00313046 1.57141e-20)
(0.996817 -0.000720979 8.80305e-21)
(0.997069 -0.000794899 8.60212e-21)
(0.996867 -0.00101654 -5.32739e-21)
(-0.0582927 0.0885235 0)
(-0.066385 0.0900198 1.26219e-20)
(-0.0647996 0.0815395 0)
(0.996127 0.000600496 -1.45388e-21)
(0.996024 0.000317333 -1.63405e-20)
(0.995837 0.000550875 2.39431e-21)
(-0.0136228 0.0979958 -8.72109e-20)
(-0.0105283 0.109194 6.98289e-20)
(-0.0582327 0.103391 -2.31596e-20)
(1.11299 0.0370793 -8.44031e-21)
(1.11654 0.032452 5.8608e-21)
(0.457188 0.0678258 -7.13428e-21)
(0.360286 0.0554865 -2.79431e-20)
(0.384831 0.0622975 8.67236e-20)
(1.11545 -0.0290464 2.70956e-20)
(1.11633 -0.0248814 1.30971e-20)
(1.11252 -0.0259936 3.08449e-20)
(1.06119 -0.0104447 -5.02104e-22)
(1.0633 -0.0103182 -9.34998e-21)
(0.996152 0.000910919 2.1058e-20)
(0.996399 0.000637198 1.87034e-20)
(1.14498 -0.083292 -5.47603e-23)
(1.15134 -0.0807446 6.00498e-20)
(1.15082 -0.0884814 -6.48077e-20)
(-0.297475 0.0188132 -8.23823e-21)
(-0.268044 0.0192421 -6.08503e-20)
(1.10004 0.101717 -2.1106e-22)
(1.10428 0.0944873 2.80312e-20)
(1.10942 0.102439 -5.16378e-21)
(1.0947 0.109838 -6.1021e-20)
(1.08873 0.100711 3.73486e-20)
(1.05909 -0.0245672 1.2137e-20)
(1.05887 -0.0227306 0)
(1.05742 -0.0239226 9.3478e-21)
(1.00682 -0.0150922 2.96085e-22)
(1.00734 -0.0150508 -1.8988e-21)
(1.00686 -0.0145687 -6.69894e-22)
(0.964823 -0.0159763 2.26796e-21)
(0.963691 -0.0177138 9.34346e-22)
(1.04966 -0.0426121 0)
(1.04759 -0.0430072 -4.42539e-21)
(1.04819 -0.0408965 8.53086e-21)
(1.0791 -0.0348693 -4.93016e-23)
(1.0763 -0.0338234 1.0758e-21)
(1.07661 -0.0367829 0)
(1.19857 -0.227732 0)
(1.18859 -0.234993 -4.27879e-20)
(1.2026 -0.242068 -4.76446e-20)
(1.25332 0.0206756 3.99112e-20)
(1.2553 0.0266596 2.90751e-20)
(1.24218 0.0237452 3.35544e-20)
(1.0586 0.00110612 1.38484e-21)
(1.05713 0.000214401 -1.06817e-20)
(1.00001 -0.000666093 6.70465e-21)
(0.999998 -0.000445831 6.12737e-21)
(1.15044 -0.0584252 -2.62094e-21)
(1.15398 -0.0556289 -9.5904e-21)
(1.15509 -0.0615737 3.28347e-21)
(-0.0655269 -0.0537582 3.1793e-20)
(-0.0702267 -0.0608175 2.94933e-20)
(-0.0621615 -0.0511047 -7.26463e-20)
(1.08109 -0.0365264 1.98296e-20)
(0.983915 -0.0191355 -1.00338e-22)
(0.984236 -0.0204671 0)
(0.985143 -0.0193327 0)
(1.10702 0.0161864 -1.82898e-20)
(1.10473 0.0195837 -2.83874e-20)
(1.1031 0.0160376 -3.50944e-20)
(-0.237508 0.0432892 -6.74417e-20)
(-0.230429 0.0443535 -2.40935e-21)
(-0.219168 0.0507526 -5.41988e-20)
(1.14961 -0.446636 -1.50559e-20)
(1.13309 -0.450292 3.70365e-21)
(1.14001 -0.468573 -9.06246e-21)
(0.996173 0.00119267 2.64757e-21)
(0.996442 0.00124167 -8.94011e-21)
(0.194789 0.0505324 -1.3791e-21)
(0.152 0.0400957 -3.10141e-20)
(1.00638 -0.015175 7.34359e-22)
(1.00685 -0.0156353 6.88922e-22)
(0.995884 0.00113498 3.24394e-21)
(0.999103 -0.00402326 -2.75641e-21)
(0.999229 -0.00388472 -3.67887e-21)
(0.999123 -0.00373008 -5.65685e-21)
(0.0570541 -0.0424422 2.93989e-21)
(0.277589 -0.0930619 -2.47049e-19)
(0.132728 -0.0561899 -4.02171e-20)
(1.03832 -0.0644943 -7.36363e-21)
(1.04068 -0.0627042 -1.07116e-20)
(0.999911 -0.00345722 -2.64642e-21)
(0.999897 -0.00366949 2.19199e-21)
(0.985383 -0.00263087 -8.70562e-21)
(0.985647 -0.00333741 -3.14793e-21)
(0.984837 -0.00327837 -9.63179e-21)
(1.36928 -0.224948 5.64686e-20)
(1.34333 -0.223719 3.34432e-20)
(1.35767 -0.238885 -2.32811e-20)
(1.14655 -0.0631201 -2.74077e-22)
(1.14935 -0.0711296 2.39624e-20)
(0.994208 -0.00720646 -6.4795e-22)
(0.993675 -0.00745281 -8.49145e-23)
(1.27818 -0.035317 0)
(1.28947 -0.0433064 -7.34138e-20)
(0.98392 -0.0114128 -6.38144e-21)
(0.984794 -0.0110939 -5.57677e-21)
(0.984699 -0.0120974 -3.84971e-21)
(1.10665 0.0231905 -9.81374e-22)
(1.11151 0.0236053 -2.58145e-20)
(1.06085 -0.0251601 -3.06661e-21)
(1.05932 -0.0263806 -6.99556e-21)
(1.02348 -0.010543 0)
(1.02281 -0.010209 1.01384e-21)
(0.585956 -0.41212 0)
(0.597101 -0.442637 0)
(0.557834 -0.434052 1.3007e-20)
(1.03959 -0.0169987 -4.34873e-21)
(1.03972 -0.018072 9.70604e-21)
(1.03844 -0.0176244 -2.84321e-21)
(1.07433 -0.00124854 3.06176e-20)
(1.09455 -0.0120923 -3.36143e-20)
(-0.0900011 0.205003 -4.72749e-20)
(-0.0613787 0.187795 5.58338e-21)
(-0.060684 0.171973 -1.21903e-19)
(1.04222 -0.0207793 -1.76503e-20)
(1.04198 -0.022091 -4.44827e-21)
(1.0407 -0.0212726 -9.0185e-21)
(1.00479 -0.00682137 6.16775e-22)
(1.00478 -0.00651572 4.13959e-22)
(1.0045 -0.00651894 3.53169e-21)
(1.00002 -0.00172546 7.33058e-21)
(1.00001 -0.001552 3.29293e-21)
(1.00001 -0.0015441 -8.58126e-22)
(0.983526 -0.0183133 -8.05134e-21)
(0.982712 -0.0192464 7.96822e-21)
(-0.22663 0.00182888 -9.69193e-20)
(-0.202514 -0.00249449 2.12018e-19)
(-0.235767 0.0041261 2.21893e-19)
(0.541041 -0.274019 6.23856e-21)
(0.330196 -0.185249 1.63936e-19)
(0.20751 -0.134438 -1.46869e-19)
(-0.213754 0.166586 6.70338e-20)
(-0.212599 0.161884 -3.21844e-20)
(-0.209551 0.153952 0)
(1.00224 -0.0100382 -3.60749e-21)
(1.00256 -0.00973016 8.35384e-21)
(1.21971 -0.0292074 -3.70186e-21)
(1.22205 -0.0216795 -2.71163e-22)
(1.01937 -0.375325 -1.47699e-20)
(1.03647 -0.361736 1.86983e-20)
(1.01634 -0.354576 -1.5408e-20)
(0.572719 -0.523433 -2.09339e-20)
(0.533622 -0.559548 -1.6731e-20)
(0.532755 -0.495234 4.22198e-20)
(0.994157 -0.00417307 7.46688e-21)
(0.994425 -0.00447528 -5.45971e-21)
(0.993911 -0.00463192 -1.12228e-20)
(1.05643 -0.0418393 2.52137e-20)
(1.0556 -0.0441213 -4.09264e-21)
(1.05403 -0.0417307 2.0829e-20)
(0.160513 0.0923451 -6.18119e-20)
(0.128809 0.104559 -4.14909e-20)
(-0.257929 0.0352738 -2.32219e-19)
(1.10932 0.0404577 -2.71894e-20)
(1.11571 0.0420039 -5.29993e-21)
(0.996233 -0.000271057 -3.16634e-23)
(0.996157 7.81362e-05 -6.93438e-21)
(0.997422 -0.000461251 3.45492e-21)
(0.997597 -0.000314228 8.08187e-21)
(0.997631 -0.000563905 3.86598e-21)
(1.00507 -0.00711515 -2.06469e-21)
(0.587443 0.0728464 1.09544e-20)
(0.554042 0.0766637 -2.14288e-20)
(-0.167896 0.0521476 0)
(-0.192905 0.0518042 0)
(0.833671 -0.386043 6.63929e-20)
(0.977609 -0.472925 -7.09491e-20)
(-0.0693994 0.250617 2.57548e-20)
(-0.0961842 0.259793 2.68854e-22)
(1.01857 -0.035614 1.06093e-21)
(1.01746 -0.0345661 2.16566e-23)
(1.01886 -0.0340651 -3.07246e-21)
(-0.117029 0.253061 -2.45349e-20)
(-0.0541859 0.278489 0)
(-0.147114 0.282625 6.68227e-20)
(0.40024 -0.140522 0)
(0.377985 -0.155969 3.94567e-20)
(0.409128 -0.16661 5.34175e-20)
(0.912807 -0.0218489 -1.92912e-20)
(0.910987 -0.0181961 5.73436e-22)
(0.915475 -0.0182671 -2.98551e-20)
(1.03459 -0.00509163 2.00295e-21)
(1.03411 -0.00573227 -2.32887e-21)
(1.03361 -0.00505083 1.10017e-23)
(0.960973 -0.0518661 -5.14597e-21)
(0.963045 -0.0498766 0)
(0.960113 -0.0487287 0)
(0.19572 0.106202 0)
(0.161972 0.0995177 0)
(0.188 0.0675802 -7.41512e-20)
(1.01517 -0.00508567 -3.87273e-22)
(1.01557 -0.00520067 -3.6085e-22)
(1.01532 -0.00539197 -7.16489e-22)
(0.993996 -0.00967292 5.32421e-21)
(0.994443 -0.00973789 1.72918e-20)
(0.999735 -0.00150165 5.18787e-21)
(0.99977 -0.00154555 0)
(0.999805 -0.00140017 0)
(0.976695 -0.0106764 -6.70694e-21)
(0.97541 -0.0109406 -3.75295e-21)
(0.976443 -0.0119175 5.60342e-21)
(1.0256 -0.00908165 1.02219e-21)
(1.02599 -0.00877952 -2.14202e-21)
(1.02538 -0.00846431 0)
(1.08311 -0.0246613 1.29052e-20)
(1.0848 -0.0267785 -2.44735e-21)
(1.08612 -0.0242699 -4.32515e-21)
(1.06593 -0.0197343 9.00128e-21)
(1.06772 -0.0203099 1.03332e-20)
(1.06694 -0.0185807 1.85686e-20)
(-0.0826903 0.008422 2.57005e-20)
(-0.0760454 0.0116287 -6.51133e-20)
(-0.0738601 6.48035e-05 -1.42789e-20)
(0.982181 -0.00164609 -1.59332e-22)
(0.981395 -0.00220934 -2.97577e-21)
(0.982378 -0.00248951 -7.35834e-21)
(1.0721 -0.0685315 7.79023e-21)
(1.06981 -0.0660393 0)
(1.06869 -0.0695632 1.32546e-20)
(1.04235 -0.0195903 -1.22418e-20)
(1.04348 -0.0203181 -4.84995e-21)
(0.96869 -0.0291477 0)
(0.968984 -0.0269528 -1.08845e-20)
(0.970656 -0.0286174 0)
(0.81608 -0.547622 2.74781e-21)
(0.776616 -0.552519 4.00279e-21)
(0.807598 -0.59391 1.36468e-22)
(1.14488 -0.0575481 -1.05494e-21)
(-0.0578484 -0.044861 0)
(-0.0706539 -0.0525475 -1.10522e-20)
(1.01377 -0.00496978 -5.81937e-23)
(1.01359 -0.00472427 -3.27049e-24)
(1.01338 -0.0049022 -3.80596e-22)
(-0.00558665 -0.00614991 -1.05753e-19)
(0.00238324 -0.00883996 -4.74003e-20)
(0.975817 -0.0682932 -1.31971e-20)
(0.97516 -0.0719877 -4.15135e-21)
(1.07258 0.0106626 1.44287e-21)
(1.07182 0.010804 9.77063e-21)
(1.07217 0.0102294 -6.23683e-21)
(1.01947 -0.0239934 7.75694e-22)
(1.02062 -0.024028 1.78309e-21)
(1.20943 -0.220649 4.48789e-20)
(1.19747 -0.21552 1.39636e-20)
(0.999247 -0.00244255 -2.85222e-21)
(0.999175 -0.00235889 0)
(0.740162 -0.060664 0)
(0.750178 -0.0497085 -5.35509e-20)
(0.731298 -0.0457423 0)
(1.1395 -0.0870056 -8.45879e-20)
(1.14022 -0.0942632 -1.0686e-19)
(1.02517 -0.00938967 4.47641e-21)
(1.02593 -0.00962087 3.02281e-22)
(0.332295 0.449219 3.49834e-20)
(0.380949 0.430106 1.24085e-19)
(0.375923 0.483781 -4.38062e-20)
(-0.219222 0.214366 1.99081e-20)
(-0.217683 0.222111 3.45573e-20)
(-0.217148 0.224433 -1.5004e-20)
(1.08248 -0.125043 0)
(1.08207 -0.118307 0)
(0.995525 -0.0147544 6.10788e-22)
(0.995306 -0.0140788 -4.14106e-21)
(0.994822 -0.0147755 -7.0871e-21)
(1.12689 -0.0186894 4.84636e-21)
(1.1257 -0.0223002 -1.16045e-20)
(1.13063 -0.0219347 -7.2264e-21)
(-0.173262 0.255066 -6.22204e-22)
(-0.187157 0.254906 6.94875e-20)
(-0.191496 0.265856 1.31628e-19)
(0.755442 -0.0869107 5.91391e-22)
(0.746818 -0.0735659 0)
(0.764481 -0.0773835 -4.72952e-20)
(0.743268 -0.095981 -1.81166e-22)
(0.760223 -0.0984159 -5.03684e-20)
(-0.0872255 0.0475369 1.3669e-20)
(-0.0957615 0.05057 4.46654e-20)
(-0.089954 0.0574974 -5.72872e-20)
(1.11412 0.0742734 -3.41568e-20)
(1.10716 0.0753525 -4.32273e-20)
(1.11242 0.0814478 1.07e-21)
(1.07307 0.0107004 -6.25699e-21)
(1.07272 0.0101526 1.43717e-21)
(1.09099 -0.00188483 -3.10469e-20)
(1.09326 -0.00397035 8.06598e-22)
(0.4185 -0.12178 -6.86146e-20)
(0.387387 -0.113731 -5.56661e-20)
(1.02825 -0.00409854 -2.49481e-21)
(1.0286 -0.0036113 1.39594e-21)
(1.02787 -0.00355186 0)
(-0.0956804 0.194533 -7.16057e-20)
(-0.259598 0.00830244 2.97836e-25)
(-0.284711 0.0103321 -3.83452e-21)
(1.0148 -0.00499252 4.49075e-22)
(1.01505 -0.00482425 0)
(0.999814 -0.00116756 0)
(0.9998 -0.00111746 -6.58676e-22)
(0.999859 -0.00101826 4.49395e-23)
(1.03934 0.0438932 5.78749e-20)
(1.16418 0.0321385 6.74274e-20)
(0.987693 -0.0138495 1.27027e-21)
(0.988556 -0.0143353 -3.26735e-21)
(0.987587 -0.0150181 -3.03934e-21)
(1.00007 -0.000867849 -2.51894e-22)
(1.00008 -0.00103222 -3.21387e-21)
(1.14931 0.0386472 8.09895e-21)
(1.15546 0.0376505 -2.0783e-20)
(1.14981 0.0332322 5.24485e-21)
(1.16167 0.0361776 -5.75601e-20)
(1.16292 0.030066 -2.27024e-21)
(1.16921 0.0344631 -1.36787e-20)
(1.01822 -0.0370085 4.77429e-22)
(1.05721 -0.0400038 -3.47579e-21)
(1.05844 -0.0422913 2.37253e-20)
(1.07455 -0.0709383 2.36099e-21)
(1.07532 -0.0670741 4.40785e-22)
(0.955022 -0.173608 3.5379e-22)
(0.94638 -0.166273 -1.72167e-20)
(0.945087 -0.17773 -7.39864e-21)
(1.06024 -0.035947 1.65831e-21)
(1.05843 -0.0349555 -1.87197e-20)
(1.06013 -0.0338879 6.46721e-21)
(0.993875 -0.00388272 7.23987e-22)
(1.06782 -0.169058 -1.13224e-20)
(1.07125 -0.163679 -9.99876e-21)
(1.06348 -0.163002 8.65247e-22)
(-0.0403763 -0.00180144 -2.09477e-20)
(-0.0309792 -0.00816206 1.09996e-19)
(-0.0397323 -0.0128004 -5.63785e-21)
(1.02457 -0.00964545 1.69361e-21)
(1.02438 -0.00899786 2.92174e-21)
(-0.218917 0.191547 -3.91012e-20)
(-0.216904 0.178526 -2.39418e-20)
(-0.215959 0.186473 -1.89064e-19)
(0.999974 -0.000918879 6.81479e-21)
(1.00001 -0.000705107 5.65505e-21)
(1.00004 -0.00246716 -2.13297e-21)
(1.00002 -0.00230613 1.5686e-21)
(0.99999 -0.00248809 4.37924e-21)
(1.01184 -0.000808242 -1.435e-22)
(1.0117 -0.00100366 5.59229e-22)
(1.01204 -0.00100977 3.16261e-22)
(-0.0490705 0.0865472 0)
(0.993755 0.00133332 -6.91596e-21)
(0.993369 0.00111574 7.14938e-22)
(0.993739 0.000912537 3.6639e-22)
(1.37725 -0.215015 7.85822e-20)
(1.37901 -0.229418 2.06542e-20)
(-0.00350683 0.02247 -3.0253e-20)
(0.0278577 0.0255062 0)
(0.00127823 0.0289393 -9.64888e-20)
(1.00064 -0.00273535 1.47476e-21)
(1.00061 -0.00279333 -5.91316e-21)
(1.00071 -0.00289963 3.41654e-21)
(0.999364 -0.00236738 4.24247e-21)
(0.99933 -0.00252895 5.36739e-21)
(1.35229 -0.113619 1.41094e-20)
(1.36573 -0.107345 -4.14529e-20)
(1.36984 -0.118064 -3.85827e-20)
(1.01133 -0.000484972 -1.08577e-22)
(1.01178 -0.000488815 7.53785e-23)
(0.999943 -0.00102499 0)
(0.99995 -0.00105283 4.67299e-21)
(0.99992 -0.00121787 4.95406e-21)
(1.01273 -0.000589836 2.16079e-22)
(1.01248 -0.0006106 -1.18966e-22)
(1.01149 -0.000361455 -3.13805e-22)
(-0.0138584 0.0146609 -1.26484e-19)
(-0.0276015 0.0172152 -1.11231e-20)
(0.601817 -0.385436 0)
(0.566242 -0.375572 -5.04212e-20)
(0.931834 -0.0527164 -3.64408e-21)
(0.935432 -0.0501522 1.2715e-20)
(0.93595 -0.0548474 1.26829e-20)
(0.888899 -0.533841 -1.83683e-21)
(0.898699 -0.499554 -3.05868e-22)
(0.925255 -0.523105 -1.72276e-20)
(1.15556 0.0117103 -1.42138e-20)
(1.15657 0.00621649 -1.34887e-20)
(1.15105 0.00827357 3.58743e-21)
(-0.11256 0.234215 -2.23543e-20)
(-0.0500265 0.196769 0)
(-0.0386449 0.191583 -5.66499e-20)
(-0.0509106 0.183155 0)
(1.04194 -0.0234877 1.11191e-20)
(1.0435 -0.0228451 7.98981e-21)
(-0.110021 -0.170104 6.45397e-20)
(-0.0489139 -0.200278 -1.18335e-19)
(-0.16748 -0.186385 5.30189e-20)
(1.00002 -0.000670164 2.92588e-21)
(1 -0.000904961 -4.04377e-21)
(1 -0.000638144 0)
(-0.140178 0.244774 -3.56151e-20)
(-0.155796 0.252489 -7.12673e-20)
(0.456408 -1.03935 -1.55932e-20)
(0.207786 -0.998616 3.88586e-20)
(0.446954 -1.13999 7.04433e-20)
(-0.174303 0.0970406 -1.88049e-20)
(-0.178193 0.096483 1.04304e-19)
(-0.180754 0.105179 2.14505e-20)
(-0.0254063 0.0881505 -2.11202e-20)
(1.11599 0.0679483 -2.61677e-20)
(1.12093 0.0738723 2.62652e-20)
(1.05851 -0.0210368 0)
(1.06015 -0.0215281 0)
(1.12641 -0.0646274 -3.69578e-20)
(1.12768 -0.0701023 -5.60239e-20)
(1.06461 -0.0212233 -1.2827e-20)
(1.06413 -0.0190242 -1.36736e-20)
(1.0351 -0.00444209 0)
(1.03544 -0.00367514 -6.193e-22)
(1.03441 -0.0037195 1.05556e-21)
(1.04486 -0.0159549 5.00614e-21)
(1.04613 -0.0160655 -2.64234e-21)
(1.04541 -0.0146653 -6.93237e-21)
(0.856576 -0.539964 2.33505e-21)
(0.826966 -0.512913 -2.23948e-21)
(0.918069 -0.0642202 -1.01312e-20)
(0.914799 -0.0592431 -2.01432e-20)
(0.99939 -0.00223995 2.19204e-21)
(0.999435 -0.0022958 1.08893e-21)
(1.00001 -0.000174864 -4.89607e-22)
(1 -8.48049e-05 2.4398e-21)
(1 -9.18883e-05 -3.57327e-22)
(1.01413 -0.00507551 -2.92973e-22)
(1.01389 -0.00525752 2.1261e-22)
(1.0165 -0.000113128 -7.07086e-22)
(1.01631 -0.000191629 0)
(1.01678 -0.000202129 7.36741e-22)
(1.02475 -0.0101821 -4.17492e-21)
(-0.058397 0.171916 0)
(-0.0541018 0.174399 0)
(-0.0540359 0.167799 -4.18125e-20)
(1.00468 -0.00847698 1.58221e-21)
(1.00499 -0.0084658 -8.76184e-22)
(1.00468 -0.00812184 5.65549e-22)
(1.01848 -0.0221233 0)
(1.01763 -0.0217149 0)
(1.0177 -0.0227303 0)
(1.01622 -0.000179781 3.31408e-23)
(1.01615 -0.000205549 -2.85313e-22)
(1.0167 -0.000156471 -1.25642e-21)
(1.00225 -0.00881186 1.12695e-22)
(1.00258 -0.00902733 -1.82861e-21)
(-0.0268068 -0.0596251 -2.83892e-20)
(-0.0255899 -0.0497324 -3.09835e-20)
(-0.0153978 -0.0614164 7.49693e-20)
(1.15963 -0.426612 1.16439e-20)
(1.17048 -0.449383 7.56074e-20)
(0.687994 0.0776704 -6.1381e-20)
(0.691843 0.0625842 0)
(0.672537 0.0656024 1.0181e-20)
(0.948355 -0.0131145 -3.68023e-21)
(0.946869 -0.0149707 1.68247e-20)
(0.945824 -0.0119252 -1.96678e-20)
(1.11128 0.0164255 3.25673e-20)
(1.10887 0.0131334 1.25754e-20)
(1.01428 -5.15711e-05 3.68789e-22)
(0.806576 0.138078 1.85752e-22)
(0.906775 0.111804 -8.73404e-21)
(0.829365 0.114196 9.47814e-22)
(-0.044537 -0.0129611 1.82384e-19)
(0.0193455 -0.0268219 9.68264e-20)
(0.992962 0.00045006 1.56246e-22)
(0.993349 0.000254824 4.64384e-24)
(0.0715859 0.0325937 -1.74667e-20)
(0.0632391 0.0283494 0)
(1.09034 -0.00961591 1.2303e-20)
(1.09003 -0.0124384 5.80761e-21)
(1.08765 -0.0102287 -2.23928e-20)
(0.991966 -0.00110963 -9.1515e-22)
(0.991594 -0.00087777 1.44246e-21)
(-0.111673 -0.00242754 0)
(0.78574 0.160221 -9.32223e-21)
(0.996723 -0.00386839 -5.04648e-22)
(0.996878 -0.00347796 -4.39785e-21)
(1.06262 -0.175797 0)
(1.07264 -0.176557 0)
(0.296703 0.453887 -3.38027e-20)
(0.348643 1.09635 -2.966e-20)
(0.973749 -0.0262708 -1.69053e-21)
(0.975413 -0.0269298 6.43692e-22)
(0.975147 -0.0251111 7.41938e-21)
(0.830164 0.0246653 7.53689e-21)
(0.837467 0.0204308 1.66004e-20)
(0.830322 0.0159564 5.42605e-21)
(1.01919 -0.0213525 -1.88907e-22)
(0.969182 -0.0250094 -3.30565e-21)
(0.970729 -0.0242776 1.3343e-21)
(0.969141 -0.0230636 -6.51768e-21)
(-0.0665749 0.221435 4.54231e-20)
(-0.0972841 0.23018 4.51215e-20)
(-0.0431391 0.213151 4.91593e-20)
(0.899269 -0.180999 -3.54298e-20)
(0.904973 -0.171111 -6.94713e-21)
(0.891422 -0.17179 -2.09338e-20)
(0.997497 -0.00843805 -5.90665e-21)
(0.997143 -0.00838989 1.81001e-21)
(0.995719 -0.000454905 1.5756e-21)
(0.996007 -0.000531098 -5.05193e-21)
(0.995772 -0.000791147 5.91505e-22)
(0.950029 -0.0110561 -9.08523e-21)
(0.950845 -0.0140672 3.32852e-20)
(1.09823 -0.374052 2.61874e-21)
(1.07821 -0.372445 -2.07272e-20)
(1.08943 -0.355792 1.09095e-22)
(0.0780066 -0.185301 -9.0252e-21)
(0.111214 -0.202109 -1.57269e-22)
(0.082356 -0.231578 4.10051e-21)
(0.991856 -0.00601473 -5.19001e-21)
(0.99246 -0.0058157 -7.87015e-21)
(1.005 -0.00773488 2.14186e-21)
(1.0047 -0.00774288 0)
(1.02841 -0.0153507 1.97293e-21)
(1.02858 -0.0146231 3.44927e-21)
(1.02923 -0.0154664 -5.38055e-21)
(-0.249069 0.0075026 -5.21439e-20)
(-0.221284 0.000238458 -1.65608e-19)
(-0.0872064 -0.106863 -4.97861e-20)
(-0.107404 -0.105669 2.37309e-20)
(-0.0848989 -0.0129649 0)
(-0.0134503 -0.0171265 0)
(-0.0539418 -0.0161071 0)
(1.02783 -0.00454498 -2.65318e-22)
(1.02741 -0.00492703 2.49011e-21)
(1.02711 -0.00441063 2.37291e-21)
(0.908531 -0.190137 6.85136e-21)
(0.892697 -0.192886 -1.14633e-20)
(0.831391 0.0339249 2.63244e-20)
(0.822747 0.030515 -1.49447e-20)
(0.861325 -0.712302 -1.60236e-20)
(0.812841 -0.735873 -1.61096e-20)
(0.871759 -0.770086 6.14837e-21)
(1.14801 -0.00885178 -2.22629e-20)
(1.14922 -0.00537805 -1.19386e-21)
(1.15303 -0.00926177 9.00004e-20)
(1.02877 -0.00120002 1.02826e-22)
(1.02923 -0.00164482 -2.10669e-22)
(1.02845 -0.00164269 -3.02405e-22)
(1.03049 -0.00317955 1.4842e-21)
(1.0301 -0.00370986 1.01955e-22)
(1.03092 -0.00376479 -6.28837e-22)
(1.02823 -0.016168 -2.10974e-21)
(1.02751 -0.0152687 -1.91573e-21)
(1.12152 -0.0632903 6.3877e-21)
(1.12504 -0.0595533 6.35059e-23)
(0.989698 -0.0345899 7.29008e-21)
(0.991 -0.0357284 3.90355e-21)
(0.989273 -0.0364057 2.40082e-21)
(0.0165085 0.00667274 -1.79684e-19)
(-0.00650878 0.0134814 -1.17739e-19)
(-0.0505016 0.0159609 -2.20501e-19)
(0.998401 -0.00208205 1.99038e-21)
(0.998258 -0.00193177 6.4302e-21)
(0.998245 -0.00220611 7.42114e-21)
(1.00876 -0.0141865 4.33138e-22)
(1.00875 -0.0147605 -3.18389e-21)
(1.00933 -0.0146203 -1.58885e-21)
(-0.134257 0.298098 2.98129e-20)
(-0.152599 0.290862 0)
(-0.162916 0.291315 4.79446e-20)
(-0.0638571 0.167645 0)
(-0.0677466 0.175561 5.09972e-20)
(-0.019836 -0.00463901 -1.90789e-20)
(-0.0280886 -0.0119429 -4.63275e-20)
(1.01615 -3.74378e-05 1.06368e-21)
(1.01658 -0.000300204 -6.92992e-22)