/*--------------------------------*- C++ -*----------------------------------*\
| =========                 |                                                 |
| \\      /  F ield         | OpenFOAM: The Open Source CFD Toolbox           |
|  \\    /   O peration     | Version:  v2012                                 |
|   \\  /    A nd           | Website:  www.openfoam.com                      |
|    \\/     M anipulation  |                                                 |
\*---------------------------------------------------------------------------*/
FoamFile
{
    version     2.0;
    format      ascii;
    class       surfaceVectorField;
    location    "900";
    object      ddtCorrDdt0(Uf);
}
// * * * * * * * * * * * * * * * * * * * * * * * * * * * * * * * * * * * * * //

dimensions      [0 1 -2 0 0 0 0];


internalField   nonuniform List<vector> 
14907
(
(-0.000394236 -0.000115551 -1.35196e-18)
(-0.000409275 -0.000130117 -3.30822e-18)
(-0.000402991 -0.000146155 -5.1084e-18)
(-0.000194548 -0.000379411 -1.62842e-18)
(-0.000200357 -0.000351935 -7.71569e-19)
(-0.000205693 -0.000345463 5.89079e-20)
(0.000754144 0.00130119 1.03022e-19)
(0.000771723 0.00136027 -2.10094e-20)
(0.000836697 0.00127926 8.86063e-19)
(0.000150196 8.25011e-06 -3.88979e-19)
(0.00014149 8.74161e-06 -4.21917e-19)
(-0.011443 0.00359803 2.00639e-17)
(-0.0113774 0.00248296 4.19661e-18)
(-0.0151816 0.00456784 1.77514e-17)
(-0.000186366 -0.000388483 -1.41861e-18)
(-0.000173461 -0.000422641 1.87391e-18)
(-0.000178135 -0.000405659 2.72593e-20)
(-0.172057 0.0558657 -3.73852e-20)
(-0.160897 0.0471124 -9.80775e-18)
(-0.175688 0.0567948 3.10571e-18)
(-0.0358385 0.0451535 1.8836e-18)
(-0.0336989 0.0432316 1.08956e-17)
(-0.074775 0.0427797 5.03644e-18)
(0.000485033 0.000997246 1.87433e-19)
(0.00043485 0.00104626 -3.80744e-19)
(0.000422365 0.0009765 -3.28287e-20)
(-0.000181178 -2.82693e-05 3.34952e-19)
(-0.000185083 -2.5123e-05 1.37403e-18)
(-0.000183182 -5.11949e-06 -1.06797e-18)
(0.0230038 -1.85172e-06 1.76074e-17)
(0.0237158 0.000114642 8.25968e-18)
(0.0228394 -0.00034875 -2.79849e-17)
(0.000170208 1.04687e-05 3.19213e-19)
(0.000155225 4.70544e-06 -1.84768e-19)
(0.000148788 9.05378e-05 -1.40791e-19)
(0.000140077 9.82477e-05 1.72673e-20)
(0.000149251 9.98963e-05 -2.28968e-19)
(0.000171403 2.74421e-05 1.41474e-19)
(0.000164749 3.03046e-05 2.05511e-19)
(0.000168646 3.6997e-05 3.43162e-19)
(-0.00213916 -0.00183918 -4.52448e-18)
(-0.00207425 -0.0017781 -3.13685e-18)
(-0.00202537 -0.00189279 -3.93554e-18)
(-0.000240985 -0.000201633 -3.20472e-18)
(-0.000228555 -0.000238783 9.71856e-19)
(-0.000234604 -0.000216226 -4.34288e-19)
(-0.00024568 -0.000157792 7.99527e-19)
(-0.000248282 -0.000174282 -2.10668e-18)
(-3.04715e-06 -3.06056e-05 1.30422e-18)
(-3.28584e-06 -3.20524e-05 -6.46016e-19)
(-5.29816e-06 -4.40232e-05 1.00779e-19)
(-0.000380395 -0.000108598 4.03483e-19)
(-0.000385251 -9.63609e-05 2.74957e-18)
(-0.00336217 -0.00943897 -3.93321e-17)
(-0.00360526 -0.00937825 1.29288e-17)
(-0.00346996 -0.0092558 -4.97351e-18)
(-0.000134308 0.000101454 -5.79001e-20)
(-0.000142449 0.000105617 -1.02473e-18)
(-0.000133005 0.000103453 -2.95884e-18)
(-0.00326898 0.0537784 5.76247e-18)
(-0.000977326 0.0512943 -1.4399e-17)
(-0.00478405 0.0510719 -1.39412e-17)
(0.000129415 1.86901e-05 2.10376e-19)
(0.000118471 2.25688e-05 1.21474e-19)
(0.000129188 2.97018e-05 3.70429e-19)
(4.44298e-05 0.000161812 -1.48843e-18)
(5.53292e-05 0.000172952 -3.94009e-19)
(5.8261e-05 0.000162219 2.12051e-19)
(-0.000188 -0.000402527 3.8264e-18)
(-0.000185549 -0.000410005 -2.85603e-18)
(0.00204774 0.00793841 -1.49913e-19)
(0.00237199 0.00822437 8.44584e-18)
(0.00244071 0.00770953 -6.65228e-18)
(-6.09078e-05 -0.00065066 6.96501e-18)
(-5.14837e-05 -0.000652025 -8.12468e-19)
(-5.76742e-05 -0.000641862 2.13656e-18)
(-0.00229607 -0.00021565 -6.75819e-18)
(-0.00225025 -0.00031849 3.03414e-20)
(-0.00219942 -0.000223164 -4.25252e-18)
(-0.000336134 0.000894729 5.46951e-19)
(-0.000384737 0.000867771 -5.91446e-19)
(-0.000342627 0.000835191 -3.41128e-19)
(-0.00189208 7.58156e-05 2.79757e-18)
(-0.00192341 0.000189087 -2.04667e-18)
(-0.00200489 0.000105299 3.23553e-18)
(-0.000151901 -0.000365632 2.79837e-18)
(-0.000149714 -0.000343292 -7.12244e-19)
(-0.000137664 -0.00038088 -1.08269e-18)
(-0.000962928 -0.00158198 6.90115e-19)
(-0.000745385 -0.000443773 8.42374e-18)
(0.000281053 -0.00128246 5.89649e-19)
(-0.000177135 -2.82291e-05 1.09878e-18)
(-0.00017683 -5.32343e-05 -1.59124e-18)
(-0.00148441 0.00119523 -9.53546e-19)
(-0.00159202 0.00123922 -2.17913e-19)
(-0.00153321 0.00109772 8.97729e-19)
(-0.00225079 0.00506403 -3.1992e-18)
(-0.00199598 0.00517759 6.80981e-18)
(-0.0020317 0.0049138 1.23575e-18)
(3.49926e-05 0.000150672 -2.93438e-19)
(3.11631e-05 0.000159979 -9.99791e-19)
(0.0015086 0.00733458 -9.80462e-19)
(0.00178167 0.00767316 -3.63607e-20)
(0.0018876 0.00713026 1.5061e-18)
(0.00702708 0.00983785 -5.3601e-19)
(0.00691117 0.00920431 3.21467e-18)
(0.00642169 0.00954209 -1.76659e-18)
(2.49977e-05 0.000137771 6.206e-19)
(3.7167e-05 0.00014046 8.50231e-19)
(-0.00529811 -0.000131098 -3.19178e-19)
(-0.00551243 -9.7675e-05 1.17357e-18)
(-0.00538835 -0.000341406 -2.1071e-18)
(-0.00337137 -0.00963748 3.00515e-18)
(-0.0032243 -0.00944192 -1.53571e-17)
(-0.00204244 -0.00149993 -5.23912e-18)
(-0.0021146 -0.00154768 -4.77386e-18)
(-0.00213515 -0.00144407 7.40249e-19)
(-0.180645 0.0629628 1.99838e-17)
(-0.165466 0.0543726 -1.45745e-17)
(-0.00127434 -0.000661016 2.35367e-18)
(-0.00126112 -0.000635012 1.27296e-18)
(-0.0012598 -0.000670388 -2.75239e-18)
(-0.0115351 0.00469267 -6.27713e-18)
(-0.00768116 0.00249131 3.02904e-18)
(0.00642675 0.0216188 2.66299e-18)
(0.00748969 0.0212089 -1.40772e-17)
(0.00672557 0.0202955 -1.22074e-17)
(-0.00141444 -0.00128883 3.50014e-18)
(-0.00146633 -0.0012703 5.58557e-18)
(-0.00143857 -0.00135002 5.91779e-18)
(0.0211343 0.0342652 1.91394e-19)
(0.0210335 0.0319047 -3.25436e-19)
(0.0232886 0.0328823 -1.41614e-17)
(0.000136707 0.00633459 5.35812e-18)
(-0.000174578 0.0065519 -6.27515e-20)
(0.000211394 0.00661371 4.17577e-18)
(0.0218587 0.00987421 2.69742e-18)
(0.0224403 0.00824666 -5.86872e-18)
(0.020722 0.00850375 -5.58621e-18)
(-3.51256e-05 -3.91694e-05 -6.54371e-19)
(-3.99896e-05 -4.56967e-05 -1.03214e-18)
(-4.29402e-05 -3.98114e-05 -2.71185e-19)
(0.00206321 -0.00136099 -7.28258e-19)
(0.00223841 -0.00137659 -8.58886e-19)
(-0.00161779 -0.00189148 -1.45858e-19)
(-0.00163662 -0.00194868 6.94085e-18)
(-0.0015367 -0.00194186 4.21951e-18)
(0.00350576 -0.000892472 4.55116e-18)
(0.00344208 -0.000641901 1.30176e-19)
(0.00373253 -0.000763826 8.95619e-19)
(0.00117974 0.00758447 -1.77749e-18)
(0.0012767 0.00707452 -5.44929e-18)
(-0.000205537 -0.000354094 -4.86586e-18)
(-0.000194865 -0.000366296 -4.30082e-18)
(-0.000292785 0.000930804 1.49892e-19)
(-0.000340315 0.000971974 -1.46276e-20)
(-0.00135666 -0.00132054 -8.73963e-18)
(-0.00138971 -0.00125466 -1.8924e-18)
(-0.00143584 0.00129742 1.02976e-18)
(-0.00138382 0.00116571 -8.88682e-19)
(-0.00158592 -0.00181622 1.20313e-17)
(-0.00169311 -0.00183054 5.48545e-19)
(-0.000166816 -0.000396434 4.98853e-19)
(-0.000156444 -0.000440036 1.61312e-18)
(-0.000162649 -0.000404747 3.47294e-18)
(-0.000230584 -0.00019196 -7.19962e-19)
(-0.00023365 -0.000189214 -2.86905e-19)
(-0.000223623 -0.000223554 -1.28563e-18)
(-0.00249344 0.0049791 -2.35485e-18)
(-0.00248095 0.00524712 -1.95825e-18)
(0.00072808 0.00122698 7.7438e-20)
(0.000665569 0.00131324 -4.15341e-19)
(-0.000661004 -0.00180884 -8.83577e-18)
(-0.000678542 -0.00186323 -4.32832e-18)
(-0.000725897 -0.00179864 -9.56918e-18)
(-0.00139671 0.00138145 1.55446e-18)
(-0.00130039 0.00136022 -6.37675e-19)
(-0.00132033 0.00148555 5.27605e-19)
(-0.000490124 -0.001511 -1.57776e-18)
(-0.000533094 -0.00152976 -9.62973e-19)
(-0.000497076 -0.0014573 -2.11966e-18)
(-0.00337921 -0.00837988 2.31236e-17)
(-0.00313998 -0.00814781 -6.97167e-18)
(-0.00349996 -0.00801376 1.50457e-17)
(0.0263014 -0.00392783 1.71853e-17)
(0.0216744 -0.00354017 3.37575e-18)
(0.023164 -0.00237984 -2.89064e-17)
(-0.000938429 -0.000264972 9.51853e-19)
(-0.000980613 -0.000263326 -5.12117e-18)
(-0.00096402 -0.000306513 4.95676e-19)
(0.00365838 -0.00117684 1.18439e-19)
(0.00332031 -0.0011017 7.48421e-19)
(-0.0035152 -0.00997369 -1.75007e-17)
(-0.00128789 -0.000718694 3.26003e-18)
(-0.00122855 -0.000681695 3.86882e-18)
(-0.00212562 -0.00470672 -1.60836e-17)
(-0.0019853 -0.00459584 1.6717e-17)
(-0.00190604 -0.00481408 1.83165e-17)
(-0.000338388 -0.0014737 1.46487e-18)
(-0.000386685 -0.00144832 -1.1563e-18)
(-0.000336921 -0.00142085 -4.17177e-18)
(6.67836e-05 0.000183393 5.42025e-19)
(5.1308e-05 0.000182808 -2.97117e-19)
(-0.00902436 0.00130099 2.75947e-18)
(-0.012373 0.00202634 5.95608e-18)
(-0.000368422 -0.000101878 -5.84141e-19)
(-0.000355081 -9.61599e-05 1.61403e-18)
(-0.000357952 -8.17676e-05 2.18196e-18)
(-0.00296198 -0.00382932 1.64149e-18)
(-0.00277971 -0.00382943 1.19462e-17)
(-0.00292181 -0.00368123 6.48394e-18)
(-0.154235 0.0404826 1.66439e-17)
(-0.14936 0.0391586 -4.57776e-18)
(-0.138878 0.0319779 2.77482e-17)
(9.22313e-06 0.00607506 2.02942e-18)
(0.000355333 0.00616817 -6.85546e-19)
(-0.0114601 0.00587536 -2.83126e-17)
(-0.015368 0.00747517 2.82164e-17)
(-0.00131045 0.000178594 -5.98153e-19)
(-0.00125455 0.00020411 -3.43196e-19)
(-0.00131731 0.000257379 -2.29826e-18)
(-0.00188947 -0.00143869 -4.17782e-20)
(-0.00181678 -0.00149451 2.53792e-18)
(-0.00182097 -0.00140676 -1.06792e-19)
(-0.000443378 -0.00147026 7.40873e-18)
(-0.000451309 -0.00153997 -3.91315e-19)
(-3.28091e-05 -0.000216031 -4.32409e-19)
(-3.36901e-05 -0.000226294 1.16428e-18)
(-2.36188e-05 -0.000188672 5.14715e-18)
(-0.000452342 -0.000160844 1.39031e-18)
(-0.000436805 -0.000159968 -1.05178e-18)
(-0.00046336 -0.000190299 3.73787e-18)
(-0.0185701 -0.00260013 -5.71045e-19)
(-0.0178049 -0.00246544 -5.53403e-18)
(-0.0183933 -0.00189597 8.96936e-19)
(-0.00079792 -0.000935912 -1.31766e-18)
(-0.000826341 -0.000929202 -4.48363e-18)
(-0.000818436 -0.000975277 9.65784e-19)
(-0.000473082 -0.000170931 1.20085e-18)
(-0.000448662 -0.000133305 -1.5092e-18)
(-0.000574869 0.00194171 -9.7492e-20)
(-0.000484923 0.001974 4.54987e-19)
(-0.000520404 0.00187373 -3.15974e-19)
(-0.0119118 0.00671321 1.25648e-17)
(-0.00832594 0.00458812 3.62809e-18)
(-0.00233523 -0.000131817 4.24396e-18)
(-0.00239457 -0.00022407 -6.16544e-18)
(0.00201207 -0.00116762 9.95793e-19)
(-0.0018706 -2.96228e-05 2.68013e-18)
(-0.00181147 4.1312e-05 -2.96324e-18)
(-0.000801268 0.0006561 7.68611e-19)
(-0.000828646 0.000598365 3.47775e-19)
(-0.000847869 0.000679515 6.18907e-19)
(-0.000322222 2.33357e-05 1.85536e-18)
(-0.000319792 1.98204e-05 -3.33804e-18)
(-0.000318173 2.40895e-05 -2.96871e-18)
(-0.000918375 0.000250648 -1.73374e-18)
(-0.000879259 0.000265761 -3.76758e-19)
(-0.000891501 0.000212635 7.18189e-19)
(-0.0050582 -0.000167602 -1.38143e-18)
(-0.00518953 9.26431e-05 4.22287e-19)
(-6.71699e-05 0.00110531 4.67657e-21)
(-5.46731e-05 0.00117429 -4.22183e-20)
(-1.42108e-05 0.00111519 1.87305e-19)
(-1.17922e-08 -7.687e-06 1.09244e-18)
(-2.64649e-08 -7.67392e-06 -1.54085e-18)
(-0.0176999 0.00338735 -4.75935e-18)
(-0.0175171 0.00271812 4.29254e-18)
(-0.0183219 0.00305207 -5.94828e-18)
(-0.0728654 0.0488014 2.13958e-17)
(-0.0983043 0.0516774 -1.58106e-18)
(-0.0570284 0.0523306 -5.13203e-18)
(-4.07214e-05 -0.00023943 -1.04368e-18)
(-3.27026e-05 -0.000209164 -1.93978e-18)
(-0.00208823 -0.000594534 -4.78156e-19)
(-0.00203437 -0.000681616 2.12407e-18)
(-0.00200035 -0.00059752 -2.1414e-18)
(-0.00986323 -0.00146027 -1.08526e-18)
(-0.010246 -0.00122336 -8.31756e-20)
(-0.0102114 -0.00181434 -9.19042e-19)
(-0.000373289 -0.000224755 1.20174e-18)
(-0.000383792 -0.000261547 -9.58355e-19)
(-0.000389736 -0.000233474 -2.93682e-19)
(-0.000326517 3.40088e-05 3.49606e-18)
(-0.000332375 2.39575e-05 2.03828e-18)
(-0.000136025 9.83386e-05 1.51901e-18)
(-0.00012911 9.6838e-05 -1.11402e-18)
(0.000287358 -0.000158301 -1.16592e-20)
(0.000274002 -0.000146706 -4.00353e-20)
(-1.54051e-05 1.82073e-05 -7.21079e-19)
(-1.57848e-05 1.61687e-05 5.88709e-19)
(-1.90584e-05 1.8366e-05 -3.8162e-19)
(-0.000669488 -0.000129853 -3.47504e-19)
(-0.000673967 -0.000106386 -2.83989e-20)
(-0.000700127 -0.00013476 1.90914e-18)
(-0.00381158 0.00253759 -7.00072e-19)
(-0.00386211 0.00232533 -7.25574e-20)
(-0.0036549 0.00236078 3.84523e-19)
(0.0292154 -0.00591473 -8.08851e-18)
(0.0301604 -0.00200409 4.17982e-17)
(-0.000634076 -0.00175971 1.70347e-18)
(-0.000601014 -0.00182395 6.16079e-18)
(-0.000631057 -0.000189233 1.13309e-18)
(-0.00065763 -0.0001988 5.74756e-18)
(-0.000652645 -0.000216074 3.27584e-18)
(-0.000160591 -0.000288256 -3.72663e-18)
(-0.00017048 -0.00026398 1.97249e-18)
(-0.000182309 -0.00028691 3.26305e-18)
(-0.000378164 -0.000124669 -1.1557e-18)
(-0.000768048 0.000729151 2.00824e-18)
(-0.000754462 0.000642436 -1.0605e-18)
(0.00673792 -0.00507029 -1.87749e-17)
(0.00588571 -0.00531554 -1.17729e-17)
(0.00716759 -0.00602175 3.38631e-17)
(-0.000763532 -0.000940531 4.60183e-19)
(-0.000766345 -0.00088827 1.01299e-18)
(-0.0526964 0.0472728 -6.9205e-18)
(-0.0205629 0.0480249 -1.51531e-17)
(-0.00136824 -0.000454193 2.22974e-18)
(-0.00139505 -0.000397533 -1.87598e-18)
(-0.00133747 -0.000403951 -2.36853e-18)
(-8.88871e-05 -0.000243074 4.00081e-18)
(-0.000102591 -0.000239178 -4.68907e-18)
(-9.17701e-05 -0.000253182 2.93154e-18)
(-0.0178292 0.00423052 1.9088e-19)
(-0.017019 0.00385658 -9.11972e-18)
(-0.00131013 0.000109235 -1.31419e-18)
(-0.00138179 0.00016708 -2.93509e-18)
(-0.0369627 0.04103 -1.65672e-17)
(-0.0186634 0.0425386 -3.46319e-17)
(-0.00196734 0.0063623 2.32499e-18)
(-0.00176239 0.00652089 -4.4488e-19)
(-0.00204248 0.00668212 5.82288e-18)
(-0.00953034 -0.00133252 4.92644e-20)
(-0.00953901 -0.00176047 -8.60627e-19)
(-0.000476064 -0.000183275 -3.15608e-19)
(-0.000501087 -0.000189215 6.8899e-19)
(-0.000466825 -0.000144667 -2.63184e-18)
(-0.00295416 -0.00401939 3.09682e-18)
(-0.0031393 -0.00386133 -9.29894e-18)
(-0.00077023 -0.00122291 2.79579e-18)
(-0.000817815 -0.00123376 1.41634e-18)
(-0.000781413 -0.00128597 -2.6562e-18)
(0.0158305 -0.00361035 -2.28182e-17)
(0.0172368 -0.00302922 1.88908e-17)
(0.0167677 -0.00319827 -9.12593e-19)
(-0.0177239 0.0300418 -1.02372e-17)
(-0.0166234 0.0305683 -6.46247e-18)
(-0.0175488 0.0317386 -3.80845e-18)
(-0.00013406 0.00110439 4.50949e-20)
(-9.30381e-05 0.00104017 1.82169e-19)
(-0.0123278 0.00216091 4.52925e-18)
(-0.011857 0.00246647 4.60488e-18)
(-0.0123991 0.00269401 4.72059e-18)
(0.00440793 -0.00334572 4.44041e-18)
(0.00476185 -0.00271805 5.84114e-17)
(0.00391694 -0.00262706 -1.9698e-17)
(-0.000648923 0.00203545 9.24652e-20)
(-0.000664032 0.0019066 3.65047e-20)
(0.0211324 0.036493 5.79863e-18)
(0.0187912 0.0350967 -8.56543e-18)
(-0.0192549 -0.0028127 5.60583e-18)
(-0.0186416 -0.00339102 3.70541e-18)
(-0.0020811 -0.000877478 -6.33295e-19)
(-0.00203775 -0.000931625 -1.48879e-18)
(-0.00210232 -0.000941772 -4.83959e-18)
(-0.000153787 -0.000298989 -2.91312e-18)
(-0.000165444 -0.000319597 -4.37261e-18)
(-0.00179339 -0.000984219 5.34438e-18)
(-0.00187717 -0.0008948 8.8875e-19)
(-0.00176746 -0.000880407 1.85647e-18)
(-0.0210599 0.00853328 -1.38372e-17)
(-0.0210255 0.00762113 -1.37786e-17)
(-0.0202859 0.00829691 -3.58539e-17)
(0.00149989 -0.000617641 -3.04645e-19)
(0.00144577 -0.000742508 -2.23626e-18)
(0.00138789 -0.000619402 1.40961e-19)
(-0.000669886 -0.000145612 -9.77297e-19)
(-0.000644677 -0.000122962 -2.01043e-19)
(-0.0122395 0.00592818 6.09046e-18)
(-0.0117278 0.00577904 -1.97913e-17)
(-0.012212 0.00531807 -3.41157e-18)
(0.000488689 -0.000256511 -9.51597e-21)
(0.000475591 -0.000218842 2.99505e-19)
(0.000515687 -0.000213897 -6.77116e-19)
(-0.000945691 0.000291623 -4.32642e-18)
(-0.000955608 0.000232566 -3.6739e-19)
(-0.00392666 0.000758676 2.49277e-18)
(-0.00388807 0.000594754 -2.87826e-19)
(-0.00377357 0.000741626 2.79674e-18)
(0.000601973 0.00102105 -3.71964e-19)
(0.000639318 0.000958604 6.75494e-20)
(0.000664362 0.00101992 -4.81887e-21)
(-2.33179e-06 -1.1172e-05 -1.31614e-18)
(-3.4555e-06 -1.59046e-05 4.42186e-19)
(-1.70361e-06 -1.05716e-05 -5.47254e-19)
(-0.0943222 0.00108728 7.58971e-18)
(-0.0955732 0.00247037 -6.26028e-17)
(-0.0853562 -0.00559474 4.06904e-17)
(0.0093007 -0.00682435 -2.63459e-17)
(0.00936927 -0.00587253 -1.90665e-17)
(0.00838643 -0.00646572 -2.31555e-17)
(-4.03582e-05 -0.000515139 -2.242e-18)
(-3.22188e-05 -0.000486229 -2.19427e-18)
(-3.28202e-05 -0.00047697 -2.73504e-18)
(0.000143325 8.25189e-05 6.31334e-20)
(0.000156068 7.68677e-05 9.53304e-20)
(-0.000457196 -0.00229526 -3.82024e-18)
(-0.000477626 -0.00222733 3.15505e-19)
(-0.000397573 -0.00225183 3.35999e-18)
(-0.000225114 -0.000192709 -2.89187e-18)
(-0.000233392 -0.000172134 -2.04746e-18)
(-0.0122137 0.00161213 -2.80554e-18)
(-0.0127545 0.0018736 -2.72586e-18)
(0.00609823 0.00841902 -2.59813e-17)
(-0.00115243 0.00429702 -5.7734e-18)
(0.000317332 0.00690138 -1.09567e-17)
(0.024153 0.00212096 -3.43785e-17)
(0.0231427 0.00225032 -5.35073e-18)
(0.0241285 0.00287248 -1.96594e-17)
(-0.0147145 0.0238899 -5.33531e-19)
(-0.0137377 0.0243957 -3.50169e-18)
(-0.0147243 0.0252308 3.52231e-18)
(-0.000173281 -0.000238559 1.95322e-18)
(-0.000181556 -0.000239187 1.60687e-18)
(-0.00018643 -0.000215908 -5.37931e-19)
(0.00054757 0.00101953 -1.92851e-20)
(0.000560109 0.00108021 -9.69852e-20)
(-0.0013474 0.000513133 1.42373e-18)
(-0.00138738 0.000477416 9.61095e-19)
(-0.00139568 0.000549368 1.01439e-18)
(-0.000721279 -0.00121799 -1.75937e-18)
(-0.000757978 -0.00116995 -2.84758e-19)
(-0.00790102 -0.00534332 1.35641e-18)
(-0.00799098 -0.00573617 -5.43317e-18)
(-0.00827553 -0.00537335 1.05788e-19)
(0.0240348 0.0109959 -1.27836e-17)
(0.022419 0.0106086 -1.51535e-18)
(0.00237428 -0.00168438 -3.18632e-17)
(0.00311641 -0.000977636 1.47717e-17)
(0.00994176 -0.00684062 6.9603e-17)
(0.0101093 -0.0071955 2.77312e-17)
(0.00303344 -0.000126404 -1.87677e-19)
(0.00282585 -0.000288908 5.68217e-19)
(0.00278257 -7.36558e-06 -2.04555e-18)
(-0.000285928 3.71082e-05 -6.84528e-19)
(-0.00029515 2.52233e-05 -5.0507e-19)
(-0.000282962 3.17186e-05 3.98129e-19)
(-0.0153309 0.00812152 1.46724e-17)
(-0.0101645 0.00729692 2.60796e-17)
(-0.00439524 -0.00993753 -3.68101e-18)
(-0.00363983 -0.00994335 5.77663e-17)
(-0.00396256 -0.0105274 1.29457e-17)
(-0.00492821 -0.00444138 3.09331e-18)
(-0.0050813 -0.00424326 2.7698e-18)
(-0.00480979 -0.00421772 -1.2669e-17)
(-0.203804 0.119638 -1.38501e-17)
(-0.207662 0.113523 8.57812e-18)
(-0.194466 0.106604 1.58381e-17)
(0.0372255 -0.0552445 -2.03584e-17)
(0.0442606 -0.0378968 1.59408e-17)
(0.0368245 -0.0431183 5.67921e-17)
(-0.00134289 -0.000510105 1.34195e-18)
(-0.00128125 -0.000571993 1.88826e-18)
(-0.00125424 -0.000490915 8.78135e-19)
(-0.00357384 -0.0085049 1.53745e-17)
(-0.00331787 -0.0085878 -8.89513e-18)
(-0.00614372 0.00353795 -2.70184e-18)
(-0.0058408 0.00364907 3.22776e-18)
(-0.00594861 0.00330119 3.84242e-18)
(-0.000429637 -0.00236117 -2.97004e-18)
(-0.000517166 -0.0023384 1.30404e-18)
(-0.0012153 -0.00176568 1.57306e-17)
(0.000489492 -0.0037157 2.20819e-17)
(-0.000574665 -0.00157178 1.02293e-19)
(-0.000612923 -0.00152103 -5.36753e-18)
(-0.000637187 -0.00159492 -3.51611e-18)
(-0.00195447 0.00607727 -3.59568e-18)
(-0.00226243 0.00621692 4.53435e-18)
(-0.00196194 -0.00146635 -2.52586e-18)
(-0.00195028 -0.00157321 -3.97134e-20)
(0.00567303 -0.00427594 -2.50396e-17)
(0.00957534 -0.00468997 -3.0658e-17)
(-0.0222484 0.024274 5.33841e-18)
(-0.0217245 0.0253003 7.20451e-18)
(-0.0212063 0.024188 1.48974e-18)
(-0.00114653 0.00119977 -8.12967e-19)
(-0.00111141 0.00114838 4.93847e-19)
(-0.00118387 0.00111148 6.7159e-20)
(0.0231232 0.00667361 -2.11106e-18)
(0.0247395 0.00578672 3.30445e-19)
(0.0257392 0.00652136 -7.70735e-18)
(-0.000849075 0.00393083 2.28421e-18)
(-0.00071944 0.00377812 -1.06559e-18)
(-0.000638675 0.003948 2.76565e-19)
(-0.00451504 -0.0156255 -8.75757e-19)
(-0.00520007 -0.0153565 -8.01816e-20)
(-0.00449645 -0.0150204 6.00763e-19)
(-0.00175412 -0.00104685 -1.24364e-18)
(-0.00182322 -0.00104455 1.41007e-18)
(-0.093207 -0.000153869 -2.35517e-17)
(-0.100834 0.0063134 1.69659e-17)
(-0.0203198 0.00906189 1.35674e-17)
(-0.0214251 0.0090431 -1.64413e-17)
(-0.00588286 0.028222 -5.42174e-18)
(-0.00554507 0.0271683 -1.95257e-17)
(-0.00670029 0.0274258 1.26013e-17)
(-0.0329829 0.0118632 -1.40883e-17)
(-0.032249 0.0116304 -3.07297e-18)
(-0.0310782 0.010427 7.51431e-18)
(0.00102672 0.00548589 -1.10613e-18)
(0.0011231 0.0052001 -7.41066e-18)
(0.00135982 0.00540752 2.1158e-18)
(-0.00033944 -0.000158454 -3.08328e-18)
(-0.000353638 -0.000167703 2.48914e-18)
(-0.00034512 -0.000142693 3.69408e-18)
(0.000142396 7.32996e-05 2.48027e-20)
(0.000132853 8.07581e-05 -2.08031e-20)
(-0.00244697 0.00186106 -5.10452e-19)
(-0.00246499 0.00204359 4.38911e-19)
(-0.00258543 0.00188974 2.57681e-19)
(-0.004057 -0.00478566 -1.53148e-17)
(-0.00426575 -0.0046114 -1.63139e-19)
(-0.00400904 -0.0045339 1.45648e-17)
(-0.00113506 0.00128204 -6.18792e-19)
(-0.00120937 0.00123482 -7.23906e-19)
(-0.000664746 -7.41214e-05 1.64118e-18)
(-0.000661148 -5.21306e-05 -4.67593e-19)
(-0.000634272 -6.36266e-05 3.48769e-19)
(-0.00472198 -0.00998532 -2.34094e-17)
(-0.00445021 -0.0102943 -1.27289e-17)
(-0.000544474 -0.0016128 -2.20324e-18)
(-4.20841e-05 0.000457155 -9.38666e-19)
(-1.74238e-05 0.000487113 8.12326e-19)
(-4.73366e-05 0.000490269 7.03355e-19)
(-0.00394961 -0.0170602 -2.34584e-18)
(-0.00608515 -0.0168164 3.06379e-19)
(-6.72707e-05 -0.00058574 -2.4711e-18)
(-5.56063e-05 -0.000593777 3.66017e-18)
(-5.35576e-05 -0.000563544 3.18918e-18)
(-3.06898e-06 -3.7421e-05 -3.73796e-20)
(-3.16849e-06 -3.93184e-05 -1.68734e-18)
(-5.50933e-06 -5.38923e-05 4.04729e-18)
(-4.81291e-06 -0.00018788 1.85426e-20)
(-9.19972e-06 -0.000199944 -6.32979e-19)
(-1.17232e-05 -0.000235541 2.20342e-18)
(-0.0342438 0.0104855 1.78387e-17)
(-0.033103 0.0111271 9.62689e-18)
(0.000167194 1.24049e-05 -1.2491e-19)
(0.000170136 9.74871e-06 -1.57508e-19)
(0.000180767 7.0175e-06 5.31317e-19)
(-0.00749548 -0.00536374 -1.24619e-18)
(-0.00771807 -0.00499702 4.62271e-18)
(-0.0125442 -0.0107714 5.26659e-18)
(-0.0118458 -0.0109218 2.36716e-18)
(-0.0124101 -0.0115639 6.73298e-18)
(-0.000496444 -0.00216283 1.93364e-18)
(-0.000559774 -0.00219549 2.54974e-18)
(-0.0234529 0.0246359 7.82778e-19)
(-0.0227869 0.0235074 2.80749e-17)
(-0.000294223 -0.00123972 -3.17787e-18)
(-0.000330064 -0.00127615 -1.1472e-18)
(-0.000325464 -0.00121008 -5.42401e-18)
(-0.000251707 -4.00098e-05 -1.27854e-18)
(-0.00025582 -4.36845e-05 8.6516e-19)
(-0.000258452 -1.83066e-05 -2.86615e-19)
(-0.0128294 0.00826852 2.42244e-17)
(-0.0127044 0.00893937 3.01032e-18)
(-0.0134675 0.00867263 1.31163e-18)
(-0.00030712 8.69893e-05 8.122e-19)
(-0.000292567 8.22781e-05 6.25854e-20)
(-0.000309188 6.97671e-05 7.82465e-19)
(-0.00376172 0.0027476 -4.60998e-19)
(-0.00398885 0.00270968 -1.13924e-19)
(-0.000797442 -0.00228538 9.17913e-18)
(-0.000712707 -0.00227351 2.84856e-18)
(-0.000788673 -0.00221475 -3.97573e-18)
(-0.0169483 -0.00989586 -1.96021e-17)
(-0.0161365 -0.00953536 -2.49223e-18)
(-0.0167542 -0.00905195 6.2184e-18)
(0.00701173 0.0104432 -4.49409e-18)
(0.00754817 0.0100259 -2.44465e-18)
(-0.00250813 -0.00232813 -2.32436e-18)
(-0.00261882 -0.00231004 -1.94497e-18)
(-0.00253102 -0.00245123 -4.50099e-18)
(0.00270376 0.00845822 1.87042e-18)
(0.00309343 0.00872146 1.36022e-18)
(0.00313781 0.00822672 -4.08057e-18)
(-0.021966 0.0374035 -3.04629e-17)
(-0.0224528 0.0360213 -8.25574e-18)
(-0.0220188 0.036726 -6.91033e-18)
(-0.000665542 -0.000163382 -1.73616e-18)
(-0.00066271 -0.000184899 1.31609e-18)
(-0.000638807 -0.000158456 -1.38062e-18)
(-0.0188045 0.0217813 1.25909e-18)
(-0.0198487 0.0216696 -2.44726e-17)
(-0.0190778 0.020763 -7.38522e-18)
(0.00377481 -0.00142236 -3.003e-18)
(0.00400746 -0.00125851 -8.07814e-19)
(0.00052316 0.000952432 1.96262e-19)
(-0.00618914 -0.00977654 -1.13206e-18)
(-0.00646788 -0.00956666 2.81165e-18)
(-0.00656098 -0.00994729 -5.5851e-18)
(-0.000277574 4.85302e-05 2.19646e-18)
(-0.000289495 4.31478e-05 4.40115e-19)
(0.00390192 -0.001695 -2.46933e-18)
(0.003572 -0.00162114 -9.71533e-19)
(0.000831964 0.0013903 -1.54133e-19)
(0.000756345 0.00141518 -2.06427e-19)
(-0.00394521 0.000917599 4.00128e-19)
(-0.00411462 0.000790869 1.12231e-18)
(-0.00015342 0.000406974 -2.95745e-19)
(-0.000172704 0.000422263 6.28857e-19)
(-0.000146441 0.000443417 3.06541e-19)
(0.000171341 1.34459e-05 -9.39797e-19)
(0.000172645 9.6892e-06 -1.26159e-19)
(0.000173697 1.2398e-05 -1.76572e-19)
(0.00126217 0.00319058 1.71095e-18)
(0.00140106 0.00328161 -1.48963e-18)
(0.00119218 0.00337078 -3.66172e-18)
(0.00791161 -0.00144223 -6.10427e-18)
(0.00759628 -0.00104482 -1.11951e-18)
(0.00817787 -0.00101074 -3.0519e-19)
(-0.000163539 -0.000239034 1.56718e-18)
(-0.000160263 -0.000263143 3.40588e-18)
(-0.00140432 -0.000504337 2.26245e-18)
(-0.00126164 0.000514642 1.5005e-18)
(-0.00129842 0.00042186 2.3435e-18)
(-0.00392355 0.00214019 -1.83183e-19)
(-0.00411431 0.00230735 3.87418e-19)
(-0.000603564 -0.000179265 -3.04496e-18)
(-0.000606275 -0.000166399 -1.45823e-18)
(-0.00015223 -0.000389919 5.85366e-18)
(-0.00016255 -0.000352593 3.03374e-18)
(5.91493e-05 3.92531e-05 -3.82541e-19)
(5.54129e-05 2.95666e-05 -6.90358e-19)
(4.82025e-05 3.80098e-05 5.62687e-19)
(-0.00218188 -0.000604528 3.81755e-18)
(-0.00214596 -0.000511992 9.88562e-19)
(0.00329369 -0.000508345 -2.04934e-18)
(0.0030755 -0.000311716 1.61203e-19)
(0.00309063 -0.000671477 -3.14963e-19)
(-1.19794e-06 -1.82544e-05 1.95916e-18)
(-3.33912e-06 -2.91225e-05 -5.82578e-19)
(0.000140083 5.44261e-05 -1.51227e-19)
(0.000138311 4.56549e-05 2.50747e-19)
(0.000147859 4.73094e-05 2.06109e-19)
(-0.000893261 -0.000270013 2.26932e-19)
(-0.000906129 -0.000230853 7.96501e-19)
(-0.00320886 -0.0002889 -2.92803e-18)
(-0.00328442 -0.000392068 -3.20785e-19)
(-0.00333238 -0.00024273 1.04121e-18)
(-0.017067 -0.0106922 -3.97297e-20)
(-0.0178262 -0.00989599 -2.28977e-17)
(-0.0145767 0.0228478 8.34572e-18)
(-0.0155197 0.0235317 -2.69334e-17)
(0.0212961 0.0066162 -4.12969e-18)
(0.0214087 0.00601183 -1.04153e-17)
(-0.0050794 -0.00467669 -4.71402e-18)
(-0.00479462 -0.00465351 3.36986e-18)
(-0.00527147 -0.00406858 -2.01168e-18)
(-0.0054467 -0.00370183 -1.49592e-17)
(-0.00496869 -0.00380365 2.25764e-18)
(-0.00218872 -0.00192066 9.91801e-18)
(-0.00222835 -0.00180289 2.6387e-18)
(0.00586617 0.0227195 2.28662e-17)
(0.00632518 0.0240824 5.72021e-18)
(0.00492063 0.0238049 -3.75151e-18)
(-0.198782 0.0903531 4.84176e-18)
(-0.201916 0.0979582 2.76574e-17)
(-0.196339 0.0900282 4.69477e-17)
(0.00110188 0.00307679 4.6031e-18)
(0.00130076 0.00299749 1.28372e-18)
(-0.000363571 -0.000194016 -1.87679e-19)
(-0.000359213 -0.000214685 -1.20406e-18)
(0.000173296 2.04686e-05 -5.14194e-19)
(0.000165836 1.73567e-05 -2.29416e-19)
(-0.00249569 0.00171915 -2.48791e-19)
(-0.00235867 0.00178913 3.74944e-21)
(-0.000160913 0.000375509 -1.44328e-18)
(-0.000137006 0.000395099 -2.69921e-19)
(-0.0035092 0.0560667 1.13337e-17)
(-0.00150412 0.0564106 3.84495e-17)
(0.00358085 0.00145897 1.3549e-18)
(0.00337383 0.00141804 3.78861e-18)
(0.00347621 0.00167983 -1.35919e-18)
(-0.000488129 -0.000198014 1.45937e-18)
(-1.0264e-06 -0.000142267 1.82823e-21)
(-9.00746e-06 -0.000179056 1.60355e-18)
(-0.00384679 -0.00491107 -1.37444e-17)
(-0.00407905 -0.00498697 2.19555e-17)
(0.00350197 -0.000392736 2.10139e-18)
(-0.0132693 -0.0106101 -1.99531e-18)
(-0.0127505 -0.0100977 -1.64391e-18)
(-0.00538202 -0.00429815 -7.38272e-19)
(-0.020378 0.000534242 1.0703e-17)
(-0.0208707 -0.000139956 -4.2825e-19)
(-0.021332 0.000798967 -2.99032e-18)
(-0.00101795 0.00392826 -2.64022e-18)
(-0.000974408 0.00409869 3.22153e-18)
(0.0076912 -0.00191142 -1.72149e-19)
(0.00833477 -0.00191288 -8.24652e-19)
(-0.000165947 0.000344526 -7.55462e-19)
(-0.000149644 0.00033251 4.59886e-19)
(-0.000171359 0.000312321 4.25682e-19)
(0.0039736 0.00392496 9.12906e-19)
(0.00418256 0.00403706 2.62641e-19)
(0.00393729 0.00417319 -5.7204e-18)
(0.00160164 -0.000650097 5.60342e-19)
(0.00156669 -0.000512748 -1.0432e-19)
(-0.00633311 0.00383405 -3.24726e-18)
(-0.0064845 0.00346151 -6.3323e-20)
(-0.000833939 -0.000734525 1.42273e-18)
(-0.000822971 -0.00076065 4.54768e-18)
(-0.000799906 -0.000719013 -3.39563e-18)
(0.00164333 0.00816704 -3.0752e-18)
(0.0142461 -0.0041618 -7.08269e-17)
(0.0145306 -0.00400189 -2.09823e-17)
(-4.42154e-05 0.000423454 -1.24329e-18)
(-7.11228e-05 0.000438761 -1.23645e-18)
(0.000386891 0.00132504 1.04521e-18)
(0.000453479 0.00130108 -1.85366e-19)
(0.000443783 0.0013817 9.3394e-19)
(-0.19398 0.0790917 -4.83e-17)
(-0.1902 0.0900828 -3.31247e-17)
(0.00502424 0.0215645 2.23109e-17)
(-0.00103836 0.00115527 9.59351e-19)
(-0.00107705 0.00107339 1.18479e-18)
(-0.000153326 -0.000414115 -1.502e-18)
(-0.000160102 -0.00040693 -2.41351e-18)
(-0.000151225 -0.000443247 -3.71733e-18)
(-0.00312898 -0.00017037 3.53393e-18)
(-0.00307965 -0.000327251 -8.50244e-19)
(-0.200741 0.126716 -2.74261e-17)
(-0.211628 0.130743 -2.5752e-17)
(-0.00705172 0.0147815 -2.1306e-17)
(-0.00702165 0.0139682 2.11561e-17)
(-0.00629407 0.014551 6.08416e-18)
(-0.0211158 0.00928003 -9.96693e-18)
(-0.0217937 0.00862278 -4.25618e-17)
(-3.25579e-05 -3.1478e-05 -3.00246e-18)
(-2.87077e-05 -3.59818e-05 7.59564e-19)
(0.000141826 6.3857e-05 -5.20556e-19)
(0.000152354 6.48772e-05 9.82612e-20)
(-0.000693457 -0.000175442 -2.16476e-18)
(0.000440865 0.00110501 -1.78349e-19)
(0.000378938 0.00107255 -3.39942e-19)
(-0.0220698 0.0372142 -7.53502e-18)
(-0.0186558 0.0393307 2.172e-17)
(-0.000640371 -0.000420379 3.33126e-18)
(-0.000664501 -0.000444088 -1.07572e-18)
(-0.000664406 -0.000472254 6.73594e-20)
(-0.000173402 -0.000384592 -1.48101e-18)
(-0.000180644 -0.000355302 -2.04566e-19)
(-0.000324682 6.81608e-06 1.13705e-19)
(-0.000334307 -2.58523e-06 1.06946e-18)
(-0.000341766 -1.95974e-06 -2.85642e-18)
(-0.000253181 -0.00120574 1.93466e-18)
(-0.000263192 -0.00127236 2.11455e-18)
(0.00923149 0.00924667 5.62838e-18)
(0.0101106 0.00924981 4.73435e-18)
(0.00957517 0.00849105 -7.21028e-18)
(-0.00248533 -0.00148069 2.90196e-18)
(-0.00252872 -0.00149367 2.53739e-18)
(-0.00246434 -0.00153679 2.33785e-18)
(-0.0136286 -0.00183204 8.5417e-18)
(-0.0130567 -0.00175212 2.71729e-19)