/*--------------------------------*- C++ -*----------------------------------*\
| =========                 |                                                 |
| \\      /  F ield         | OpenFOAM: The Open Source CFD Toolbox           |
|  \\    /   O peration     | Version:  v2012                                 |
|   \\  /    A nd           | Website:  www.openfoam.com                      |
|    \\/     M anipulation  |                                                 |
\*---------------------------------------------------------------------------*/
FoamFile
{
    version     2.0;
    format      ascii;
    class       volScalarField;
    location    "900";
    object      k;
}
// * * * * * * * * * * * * * * * * * * * * * * * * * * * * * * * * * * * * * //

dimensions      [0 2 -2 0 0 0 0];


internalField   nonuniform List<scalar> 
10042
(
0.000147259
0.000148188
0.000147699
0.000157866
0.0782021
0.000148342
0.081048
0.00181228
0.000146874
0.000147892
0.0316907
0.000157683
0.000144559
0.000144299
0.000151188
0.000148058
0.000147996
0.000149697
0.000147281
0.00017034
0.000147133
0.000223335
0.000145358
0.0001452
0.000148241
0.000158882
0.000148787
0.000149857
0.000146949
0.000149156
0.000147986
0.00711407
0.00014797
0.000148844
0.000155059
0.000145286
0.000157935
0.000163445
0.000145289
0.000157108
0.000171313
0.000150631
0.0828061
0.000148085
0.0777826
0.000177395
0.000149066
0.000192089
0.00015671
0.00017646
0.000149028
0.000149474
0.000150649
0.000151204
0.000157952
0.000148289
0.000146965
0.000148979
0.000148811
0.00015034
0.000148156
0.000147851
0.000155257
0.000147604
0.000148847
0.000148832
0.000148249
0.00016512
0.0623817
0.000147505
0.00015109
0.000172721
0.00014811
0.000157052
0.000148151
0.00014519
0.0832971
0.000147334
0.000156284
0.0853066
0.000155998
0.0650316
0.00014803
0.000150016
0.000148265
0.000149373
0.00014717
0.000181315
0.000147817
0.000147158
0.000148587
0.0610594
0.000150004
0.000149223
0.000149052
0.000147418
0.000147365
0.000147365
0.000156482
0.000146999
0.000149933
0.000176767
0.00604494
0.000149291
0.000149618
0.00016431
0.000147312
0.000147324
0.000147192
0.000144258
0.00014584
0.00014703
0.000154134
0.0551703
0.000148814
0.000147049
0.000147526
0.000147308
0.000147379
0.037612
0.000147774
0.00152679
0.000148195
0.000147753
0.000176817
0.000148033
0.000753963
0.000157184
0.000164016
0.000147124
0.000156735
0.000148127
0.0383863
0.00020195
0.000146997
0.000167586
0.025547
0.000148631
0.000192853
0.000183345
0.000149867
0.000147513
0.000149372
0.000185646
0.000148067
0.000147018
0.000168529
0.000145225
0.000147444
0.000153438
0.000147076
0.000149676
0.068718
0.0403026
0.00014917
0.000144517
0.000149609
0.000147793
0.000167517
0.0149924
0.0277355
0.000188435
0.000147755
0.000147048
0.000148248
0.000148055
0.000164652
0.0170084
0.0066806
0.0449838
0.000150197
0.000146761
0.0417987
0.000172601
0.000159563
0.0794569
0.0258364
0.000148146
0.000166436
0.000159121
0.000149873
0.0104723
0.00014845
0.000157008
0.000150432
0.0398396
0.00020632
0.00014827
0.0333646
0.000152105
0.000305498
0.000149391
0.0687625
0.0113572
0.000185613
0.00107019
0.000154652
0.000147358
0.000144543
0.000151112
0.000159043
0.000148353
0.000147004
0.000173675
0.000148383
0.000145889
0.00035806
0.000148965
0.00014971
0.000149583
0.00036586
0.0001482
0.000163852
0.00018698
0.000149557
0.000207424
0.000147928
0.000147748
0.000171418
0.000146388
0.00015429
0.000149854
0.000196347
0.000164383
0.000153227
0.000159885
0.000206664
0.000147032
0.000193016
0.000151637
0.000146902
0.000171433
0.000146809
0.00015158
0.000147843
0.000153696
0.000146089
0.000144269
0.000151293
0.000156719
0.000147805
0.000148226
0.000148101
0.000154192
0.000147011
0.000148043
0.000145268
0.000149769
0.000150647
0.000149772
0.000144567
0.000147428
0.000152142
0.000204782
0.000188513
0.026399
0.000159723
0.000159516
0.000151401
0.000179365
0.0637512
0.000150855
0.000147324
0.000144431
0.000151007
0.000146055
0.000209601
0.000151758
0.000147147
0.000149638
0.000159594
0.000150779
0.000185155
0.000159619
0.000186462
0.000152196
0.000156676
0.00014604
0.000154639
0.000148167
0.000159738
0.000147624
0.000158908
0.043193
0.000145877
0.0001474
0.0627154
0.000177508
0.00014813
0.000148148
0.000151854
0.0803078
0.000171468
0.000186733
0.000149136
0.000144523
0.000147057
0.000146967
0.000204683
0.000147311
0.000148111
0.000146774
0.00014793
0.000164634
0.000151485
0.000169417
0.0960735
0.000150041
0.0456458
0.000146966
0.000154322
0.000148726
0.0161796
0.000177501
9.59609e-05
0.0216279
0.000145101
0.000151814
0.000147537
0.00015175
0.000159899
0.000149575
0.000159397
0.000145791
0.000144549
0.000148177
0.000170523
0.000149883
0.000151585
0.000147963
0.000151281
0.0394763
0.000147002
0.000149102
0.000147739
0.000147466
0.000163226
0.000185991
0.000159485
0.00133817
0.000164889
0.000156079
0.000148037
0.000144162
0.000148872
0.000149766
0.000136639
0.000147641
0.000148852
0.000200684
0.000147029
0.000152568
0.00015022
0.000201221
0.000147833
0.00015301
0.000163373
0.000159156
0.000151042
0.000147405
0.00900946
0.00016879
0.000149219
0.000162945
0.000147456
0.000146826
0.000147439
0.000152565
0.00031093
0.000153995
0.00014963
0.000149957
0.000149943
0.000149787
0.000170475
0.000147384
0.000145541
0.0288491
0.000146696
0.0233674
7.06339e-05
0.000157352
0.0843327
0.0227339
0.000155569
0.000171674
0.000148977
0.00017705
0.000149937
0.000148833
0.000228952
0.000148304
0.000152099
0.000765258
0.000148981
0.000147146
0.000161837
0.000274127
0.000148667
0.000145144
0.0077603
0.000177464
0.000146747
0.000165168
0.00521214
0.000146388
0.000149738
0.00014556
0.000147058
0.000144319
0.000145793
0.0240774
0.00729642
0.000148927
0.0862378
0.000144322
0.000147284
0.000236172
0.000148378
0.024357
0.000172818
0.00015003
0.000145358
0.000145042
0.000174757
0.000150472
0.000155657
0.000149149
0.035413
0.000149323
0.00241088
0.000150871
0.000147362
0.000147068
0.000227387
0.000147474
0.000153367
0.000147317
0.000147728
0.0119447
0.000154718
0.000147464
0.000146359
0.0114218
0.000147087
0.000155061
0.00015094
0.000146077
0.0713684
0.084048
0.000147001
0.000148656
0.000154252
0.000144556
0.00014789
0.000147693
0.0153883
0.000147833
0.000146858
0.000155808
0.00301946
0.000170142
0.00014977
0.00015887
0.00736274
0.000166348
0.000147539
0.000147432
0.000201703
0.000148992
0.000147407
0.000155859
0.000147129
0.00014579
0.000150112
0.000144867
0.00015994
0.000147306
0.000147504
0.0258179
0.000146167
0.000149993
0.000148317
0.000148995
0.000159491
0.000147029
0.000147348
0.000150247
0.000149423
0.086878
0.000150754
0.000149868
0.000149831
0.000179759
0.000147551
0.000147501
0.000147917
0.000149495
0.00015513
0.0832287
0.00014711
0.000159878
0.000375048
0.000166234
0.000149716
0.0001476
0.000148528
0.000149297
0.000146994
0.0327663
0.0216993
0.000148375
0.000157226
0.000159351
0.000158745
0.000148184
0.000145476
0.000153112
0.000174349
0.000315802
0.000145281
0.000148705
0.000148217
0.000146731
0.0654179
0.000160779
0.000149498
0.000147293
0.000146788
0.000148054
0.000155454
0.00015476
0.000148839
0.0112437
0.000229294
0.000191625
0.000164797
0.000147945
0.000147035
0.000181481
0.000167371
0.050038
0.0250872
0.000152522
0.000153619
0.000149349
0.000151483
0.000148664
0.000149273
0.0296136
0.000145205
0.000146967
0.000176927
0.000149349
0.000187183
0.000150378
0.000195124
0.000156758
0.000149597
0.000151441
0.000155128
0.000169589
0.000164863
0.000167759
0.00014987
0.000176493
0.000150265
0.000147402
0.000148686
0.000148947
0.000148091
0.000152785
0.000170235
0.00016003
0.000148862
0.00014958
0.000147886
0.000147411
0.000170884
0.000147321
0.000150864
0.000216717
0.000144873
0.000167459
0.000190724
0.000148126
0.0356386
0.000168169
0.000149346
0.000208927
0.000148096
0.000149771
0.00014792
0.000147724
0.000149944
0.000152148
0.000148085
0.000214832
0.000149848
0.000147625
0.000148652
0.000159701
0.000162277
0.000147725
0.000153454
0.000147034
0.000162674
0.000147754
0.000156825
0.000145617
0.000150248
0.000144972
0.000147342
0.0952788
0.000145602
0.000169776
0.000147664
0.000150443
0.000146043
0.000162608
0.000148379
0.000168908
0.0001481
0.000203061
0.000149724
0.0729224
0.000145202
0.00015105
0.000149792
0.000148006
0.000147536
0.000152062
0.000148088
0.000169979
0.0117295
0.000205407
0.000152492
0.000159275
0.00014697
0.00016024
0.000177423
0.000147915
0.000155648
0.000168058
0.0528193
0.000191237
0.00371202
0.000155955
0.000148464
0.0001495
0.000154179
0.000152179
0.000167088
0.000145115
0.00015109
0.000185873
0.000149742
0.000147412
0.000154014
0.08594
0.000150838
0.000158288
0.000181377
0.000149646
0.0853455
0.000145242
0.000146704
0.000149198
0.00014717
0.0185683
0.000181297
0.0771308
0.000148231
0.000612154
0.0309589
0.000147348
0.000166779
0.000179941
0.000192974
0.000161252
0.000147959
0.000147357
0.000156265
0.017535
0.000146935
0.00015625
0.0865427
0.000147301
0.000147178
0.000147466
0.000150179
0.000147479
0.00014806
0.000178964
0.012685
0.000147933
0.000147823
0.0367539
0.0639321
0.000147008
0.000147547
0.000148944
0.000147077
0.000239743
0.000181315
0.000183305
0.00014964
0.000147139
0.000146976
0.000149921
0.000148218
0.000162419
0.000149654
0.0977813
0.000147876
0.000148373
0.000162107
0.000146872
0.000164471
0.000164727
0.000151016
0.00567529
0.0665487
0.000148492
0.000146992
0.0689097
0.0250147
0.000159436
0.000147984
0.00168918
0.000174572
0.000153283
0.000147879
0.000147789
0.000147274
0.000189778
0.000152411
0.000167885
0.000149771
0.0442527
0.000292527
0.000147617
0.000147753
0.000169356
0.000148919
0.000146025
0.000153021
0.0565509
0.0508157
0.0855211
0.000149622
0.000175795
0.000160837
0.000145372
0.000147589
0.000149228
0.000188473
0.000149317
0.000147589
0.000175845
0.000148143
0.000170823
0.000148629
0.000148607
0.000145732
0.000148921
0.000199918
0.000149266
0.000147385
0.000167158
0.000163759
0.000186568
0.000149347
0.000178073
0.0602843
0.0877444
0.00015022
0.0170928
0.0147028
0.000147302
0.000144641
0.000149712
0.000150727
0.0433867
0.000151053
0.000148714
0.000149318
0.0632466
0.000159959
0.000149427
0.000148855
0.000147527
0.000163516
0.000146119
0.000146808
0.000161756
0.000150013
0.000149304
0.000146837
0.000231642
0.000147386
0.000149893
0.000148051
0.000149084
0.000185019
0.000149296
0.000150369
0.000148352
0.000154016
0.000203893
0.000149941
0.000185528
0.00015429
0.0450573
0.000146034
0.000151147
0.000161448
0.000177814
0.0001619
0.00014963
0.00628092
0.035356
0.000149418
0.000147009
9.49815e-05
0.000148405
0.000149644
0.000146132
0.000149576
0.000169737
0.000149948
0.000149949
0.000164677
0.00015623
0.000156561
0.000157033
0.000149853
0.0891952
0.000151219
0.00020972
0.000147057
0.000176789
0.000159921
0.0737414
0.00015266
0.0599633
0.000149778
0.000155337
0.00014813
0.000148323
0.000147609
0.000194382
0.000159886
0.000175487
0.021978
0.000148693
0.000165006
0.000155826
0.000146795
0.00015675
0.000159253
0.0631748
0.000147713
0.000155323
0.000162954
0.000150967
0.000160148
0.000149882
0.000144866
0.000149878
0.000184575
0.000148804
0.000147857
0.000146153
0.000145973
0.000147374
0.00014775
0.000148845
0.000146869
0.000148925
0.000149319
0.000153326
0.000156806
0.000147799
0.0483275
0.000147949
0.000556492
0.000159139
0.0461866
0.00016259
0.000155047
0.00857687
0.000162598
0.000186903
0.0883166
0.000163269
0.000149268
0.000146798
0.000150167
0.000185813
0.000147462
0.0532825
0.000147428
0.00598802
0.0768771
0.000180295
0.000150307
0.0340053
0.0416522
0.000150556
0.000147723
0.000149736
0.000153375
0.000144795
0.00014564
0.000166848
0.000228505
0.000148398
0.000147433
0.000149099
0.000228911
0.000182489
0.000148964
0.000153537
0.000179881
0.000149295
0.000148028
0.0486241
0.000148926
0.000147307
0.000504171
0.000151741
0.000147846
0.00524233
0.0861024
0.0432254
0.0001474
0.000150565
0.000249887
0.000146168
0.000147361
0.000149886
0.000160317
0.000148149
0.000148627
0.000152097
0.000161028
0.000175606
0.000146467
0.000147757
0.000148404
0.000147181
0.000149522
0.000145038
0.000189336
0.000156186
0.000147914
0.000147729
0.000146342
0.00014765
0.000149204
0.0587123
0.000158592
0.00014511
0.000147377
0.00016003
0.0654042
0.000148144
0.000147701
0.000148049
0.000145073
0.00292643
0.000175345
0.000146653
0.000148305
0.000158412
0.000170798
0.000149051
0.000149874
0.000152812
0.000147971
0.000155579
0.000149141
0.0578058
0.000160799
0.000148338
0.000154584
0.0394212
0.000155478
0.000199173
0.000153334
0.000262072
0.000149788
0.000148841
0.000153876
0.000180817
0.000147439
0.000147444
0.00014959
0.000150229
0.000168835
0.000172745
0.00140216
0.000149949
0.00014777
0.000155756
0.000147978
0.000147967
0.0534887
0.000151405
0.000147925
0.000147748
0.000182374
0.000214911
0.000147759
0.00014828
0.000183275
0.000147114
0.00014858
0.000147525
0.000183132
0.000150611
0.000155556
0.00598983
0.000148863
0.000149046
0.0612464
0.000147163
0.000174508
0.000147162
0.000151123
0.000161814
0.000148051
0.000148476
0.000149135
0.000151445
0.0100173
0.000147339
0.000148803
0.000177167
0.000153425
0.000202911
0.0714135
0.000163489
0.000149362
0.00021349
0.000147531
0.0368415
0.000149044
0.000148061
0.000146664
0.0109899
0.000149363
0.000149083
0.000148984
0.000162771
0.0590128
0.000155964
0.000166629
0.000147624
0.000148805
0.000162922
0.000157299
0.000146712
0.000153752
0.000147295
0.075672
0.0438945
0.000148839
0.000150175
0.00014944
0.00260945
0.000148969
0.00962229
0.000147728
0.000147241
0.000146655
0.00014925
0.000152072
0.000149792
0.00014777
0.000148083
0.00246643
0.000187872
0.000147356
0.000153165
0.000152826
0.000161317
0.000147366
0.000153481
0.00015018
0.000147931
0.000150599
0.00016143
0.000149855
0.000147209
0.000154393
0.000146743
0.000183565
0.000150584
0.000175977
0.000148494
0.000148107
0.000147591
0.000187087
0.00016161
0.00014634
0.000153296
0.000178476
0.00014929
0.000146383
0.000154112
0.000149448
0.0118978
0.0001792
0.000153088
0.0201433
0.000150466
0.000163465
0.000180141
0.00016036
0.000164049
0.00905024
0.000160777
0.000194704
0.000148043
0.000150416
0.000147316
0.000147824
0.000155588
0.000146667
0.00017519
0.000148022
0.000148086
0.000168438
0.000147463
0.000174884
0.000155969
0.000153539
0.000147443
0.000160658
0.000235843
0.000143778
0.00016095
0.0585409
0.000160156
0.000146946
0.000160751
0.000147782
0.000146823
0.00959065
0.000146738
0.000146314
0.000169985
0.000147911
0.000156879
0.000146733
0.00014784
0.0847976
0.000147325
0.000145698
0.000152943
0.000147412
0.00014509
0.000149648
0.00719948
0.000148604
0.00014844
0.000145192
0.000184622
0.00014923
0.00015263
0.000147507
0.000159001
0.000149747
0.000147479
0.00015016
0.000148558
0.000146293
0.000171919
0.000163558
0.000156963
0.000151006
0.000165261
0.000178624
0.000154734
0.000155181
0.000150196
0.0899009
0.000147757
0.000147925
0.000147279
0.000149549
0.000158999
0.000147106
0.0618816
0.0355696
0.0128898
0.000148438
0.000153006
0.000161172
0.000144783
0.000167154
0.00016318
0.000244964
0.000180792
0.05535
0.000178395
0.000200663
0.0408897
0.000156067
0.0001508
0.000153512
0.000146769
0.0558964
0.000149591
0.000155885
0.000146598
0.000153124
0.000148157
0.0417561
0.0650396
0.000149298
0.0150839
0.000235987
0.000218347
0.000168093
0.000171503
0.000145713
0.0606585
0.000147963
0.0486384
0.0310764
0.000149304
0.000147613
0.000147839
0.000150879
0.000154291
0.000162331
0.000200021
0.000148732
0.000148116
0.000153642
0.000149172
0.000148084
0.000154213
0.000146764
0.000148263
0.000233862
0.000171659
0.000148132
0.0832907
0.000150793
0.000149796
0.000150929
0.000209594
0.00014752
0.000146111
0.000184475
0.000185338
0.000147094
0.000153577
0.000281771
0.000170704
0.0473446
0.000146465
0.000203384
0.0670231
0.0908086
0.000148436
0.000147678
0.000178785
0.000154026
0.000162289
0.000149051
0.0741474
0.000169598
0.000196085
0.000148275
0.000147657
0.0154955
0.000229734
0.000148919
0.000149797
0.0502735
0.000147418
0.000145484
0.000147486
0.000151504
0.000149249
0.0001561
0.000148506
0.000152338
0.000145291
0.000162189
0.0159487
0.00016703
0.000161673
0.025736
0.000175914
0.000145574
0.000146805
0.000147411
0.000149877
0.000182363
0.000156132
0.000148663
0.000148015
0.000147678
0.000145083
0.000157702
0.000145206
0.000162151
0.000152862
0.000148728
0.0711207
0.0355114
0.000148572
0.094372
0.000158572
0.000160095
0.000149738
0.000145414
0.0230512
0.000175575
0.00014727
0.000146157
0.000147513
0.000155253
0.000149726
0.000202315
0.000144532
0.000148265
0.000148067
0.0515179
0.0549216
0.000144862
0.000148099
0.000177549
0.000195545
0.000152383
0.0848758
0.0778371
0.00014733
0.000148851
0.000148573
0.000150402
0.0436423
0.000148106
0.000149886
0.00018628
0.000179258
0.00014936
0.000147565
0.00016503
0.000149881
0.000148375
0.000178213
0.000180915
0.0451844
0.000147706
0.000188135
0.000160331
0.000175317
0.00015047
0.000155306
0.000147395
0.000149229
0.000170458
0.000153823
0.000147811
0.000153054
0.0304459
0.000144769
0.000146845
0.000144741
0.000168712
0.000147449
0.000148451
0.000143912
0.000147443
0.000244338
0.0929968
0.000148815
0.0126316
0.0619431
0.0475569
0.000147398
0.000147816
0.000146709
0.000147247
0.000148676
0.000148918
0.000145267
0.000148424
0.000146308
0.000152094
0.0234198
0.000159849
0.000186324
0.000160293
0.000148056
0.000150628
0.000158836
0.000148702
0.000146873
0.000161706
0.000158528
0.00023581
0.000168427
0.000144712
0.0485397
0.000149881
0.000144416
0.000147379
0.000249588
0.00016822
0.000149922
0.000154091
0.000148357
0.000148518
0.000157514
0.000167855
0.000159122
0.0490145
0.000148441
0.000148043
0.000233828
0.000160656
0.000153241
0.000190398
0.000150923
0.000166651
0.00021843
0.000172748
0.0103739
0.000147237
0.000147161
0.000147398
0.000148183
0.000148516
0.000150686
0.000166595
0.000177768
0.0448631
0.000148364
0.0901258
0.020202
0.000154063
0.000334553
0.000148816
0.000179786
0.022447
0.000147193
0.000183426
0.000145407
0.000248442
0.000149255
0.000203735
0.000147016
0.000134505
0.000167965
0.032987
0.000146795
0.000198143
0.000146273
0.000150965
0.000209468
0.000146741
0.0107219
0.0686926
0.000120739
0.0319298
0.00018548
0.0527108
0.000162682
0.000147965
0.000162694
0.000168316
0.0614426
0.000148393
0.000147951
0.000149865
0.000165979
0.000147856
0.000148847
0.000148792
0.0387686
0.0565916
0.000147634
0.0579057
0.000164893
0.000145978
0.000161334
0.000155071
0.0637895
0.000157455
0.000146755
0.000196551
0.000148353
0.000147381
0.000148478
0.000182535
0.000174915
0.000147077
0.000154386
0.000148629
0.000149713
0.00014638
0.0549696
0.000149895
0.000146498
0.00757216
0.00021311
0.000152554
0.000147152
0.0403096
0.00015562
0.000150805
0.000147883
0.000162964
0.000150967
0.000157376
0.000152884
0.0308832
0.000162835
0.000174572
0.00014462
0.00016345
0.000173834
0.000158209
0.000149216
0.0987974
0.000149651
0.000203586
0.000147117
0.000149228
0.000162905
0.000202386
0.000151561
0.000154107
0.000148656
0.000159761
0.000176715
0.000189437
0.000155737
0.000149944
0.000147574
0.00015517
0.000189103
0.00014739
0.000168785
0.000147936
0.000147421
0.0387396
0.000147268
0.0611534
0.000147778
0.000154543
0.000181844
0.000147804
0.000158302
0.000196353
0.000183004
0.000147858
0.000188365
0.000149852
0.000149733
0.000147533
0.0285447
0.0697562
0.00014724
0.000147503
0.000146094
0.000146985
0.000183401
0.0760621
0.000147792
0.000228995
0.000146104
0.000146411
0.000147085
0.000878214
0.000150068
0.000151606
0.000147495
0.00014792
0.000147676
0.000149684
0.000149705
0.000160731
0.00372118
0.00014588
0.000147725
0.000160107
0.000173994
0.000146536
0.0387394
0.000168731
0.000146791
0.000145071
0.000149105
0.000191082
0.000146548
0.000186094
0.000156925
0.000152551
0.000146734
0.000168436
0.000144565
0.000172207
0.000155445
0.000149212
0.0136763
0.000707656
0.000143835
0.000147037
0.0169623
0.000186506
0.000180578
0.000153791
0.000186024
0.00014527
0.0721686
0.000184079
0.000147356
0.0330407
0.0866944
0.000150728
0.000165124
0.000171186
0.000146693
0.0914178
0.000148712
0.000156541
0.000157973
0.000148895
0.000148179
0.000163321
0.000146961
0.000147033
0.000146946
0.00145737
0.000147283
0.000147383
0.000146599
0.000147067
0.000147354
0.000149493
0.000175041
0.000160971
0.000152197
0.000149635
0.000343345
0.000148916
0.000146758
0.000147194
0.000145991
0.000148451
0.000147621
0.00015864
0.000185123
0.000149446
0.000159772
0.000162426
0.000146631
0.000155398
0.0535753
0.000149852
0.00014481
0.000148417
0.000166395
0.000149296
0.000149293
0.000152412
0.000152944
0.0190783
0.0134903
0.000146601
0.00014685
0.000147416
0.000165593
0.000158365
0.000146829
0.000155444
0.000167467
0.000148684
0.00015468
0.000148792
0.000179663
0.000221067
0.00015065
0.000173258
0.000154185
0.046481
0.000149311
0.000147097
0.0771217
0.000170303
0.000152586
0.000208694
0.000167406
0.0185286
0.000161789
0.000198201
0.000154936
0.000154691
0.0185869
0.000154653
0.00023238
0.000160999
0.000181641
0.0375217
0.000149951
0.000148581
0.000147663
0.000193196
0.000143956
0.0127715
0.000165471
0.0226783
0.000150352
0.000169788
0.000196646
0.000147447
0.000148754
0.000166059
0.000157368
0.000148468
0.000155127
0.000166838
0.000178762
0.00017553
0.000190463
0.0213731
0.000179454
0.000148657
0.000149281
0.07734
0.0001658
0.000149775
0.000160404
0.0530699
0.000148869
0.000152761
0.000147406
0.000156183
0.000148111
0.00014859
0.000159402
0.000148489
0.000155374
0.0307852
0.0152399
0.000145915
0.00015369
0.000156517
0.000185719
0.000161738
0.000149253
0.000147298
0.000168824
0.00723912
0.000147366
0.000153008
0.000148294
0.0691534
0.000146957
0.000158099
4.11192e-05
0.000114185
0.000149796
0.000172357
0.000173394
0.000172815
0.000153645
0.000147975
0.0831134
0.000146841
0.000156331
0.000148856
0.000159244
0.000145508
0.000145877
0.000148358
0.000173935
0.000146942
0.000147667
0.000146885
0.000148406
0.000146953
0.000148125
0.000179492
0.0224896
0.0555074
0.000154672
0.000148244
0.000157284
0.000151985
0.0507197
0.000149891
0.000174716
0.000145456
0.000147828
0.000149531
0.000161603
0.0754762
0.000147606
0.0357525
0.000148897
0.000144568
0.000150682
0.0862787
0.000151007
0.000160898
0.0641348
0.000149889
0.00014872
0.0135851
0.000147272
0.0366476
0.000148469
0.000161548
0.0177222
0.000150269
0.000148539
0.000146808
0.017726
0.000156348
0.000147043
0.000203641
0.000147533
0.000150273
0.000177611
0.0480278
0.00017784
0.0652791
0.0101075
0.000166575
0.00015125
0.000175832
0.000203152
0.00014741
0.000147322
0.000150191
0.000157471
0.000166388
0.00014776
0.000153332
0.000147144
0.000147542
0.0519552
0.000149456
0.0280901
0.000145062
0.00016332
0.00018273
0.000146583
0.000144525
0.0581244
0.0656845
0.000170989
0.000148421
0.000153371
0.000178717
0.000146301
0.000164242
0.000182101
0.000167066
0.000159211
0.0264742
0.0377541
0.000144675
0.000148788
0.000145408
0.000149231
0.000150697
0.000158125
0.0106377
0.000148694
0.000147625
0.000172959
0.0310563
0.000145144
0.000605467
0.000145601
0.000189001
0.000173397
0.0954778
0.000185675
0.000163254
0.000163546
0.000144816
0.000144453
0.000202557
0.000153932
0.00014847
0.000316557
0.000146902
0.000148445
0.000145296
0.000169493
0.000180373
0.000235373
0.00017203
0.000158442
0.00015724
0.000148391
0.0420668
0.000227939
0.000150587
0.000147659
0.000146711
0.000192476
0.0906797
0.000159488
0.0880852
0.000150197
0.000146709
0.0400836
0.000147851
0.0700385
0.0660862
0.000146258
0.000157666
0.000219325
0.000152193
0.00015927
0.000147139
0.0518308
0.000156171
0.000174824
0.0117031
0.0260114
0.000158057
0.000159146
0.000148818
0.000182796
0.0523777
0.000151101
0.000152541
0.0490683
0.000162412
0.00016545
0.000149739
0.0229879
0.0149879
0.000167873
0.000147854
0.000156413
0.00014708
0.000417593
0.000178269
0.00016164
0.0638554
0.0432647
0.000144876
0.000191473
0.000148566
0.0069604
0.000168066
0.000157173
0.00015501
0.000294688
0.000143644
0.000182304
0.0144001
0.0637565
0.000150522
0.000148053
0.000146387
0.00016891
0.00103939
0.000190628
0.0644763
0.000195484
0.000163743
0.000147026
0.0529016
0.000180753
0.000156127
0.000176884
0.0067408
0.0326932
0.0223054
0.0327782
0.03958
0.0220067
0.000148308
0.000155871
0.000160497
0.000148083
0.0368166
0.000313108
0.000147969
0.0851388
0.000148773
0.000147796
0.000146245
0.000160315
0.000146934
0.0446675
0.000163757
0.000227298
0.000146947
0.000235724
0.00016219
0.000257856
0.0186584
0.000150454
0.000157662
0.000160783
0.000164627
0.000146783
0.000145866
0.000147051
0.0400721
0.00014638
0.000146781
0.000236209
0.000151695
0.0514882
0.000148153
0.0595018
0.000147549
0.000148259
0.000147913
0.00014803
0.000157446
0.000152778
0.0575555
0.000157208
0.000167069
0.0814447
0.000147091
0.0787009
0.000146573
0.0762215
0.00274586
0.0616033
0.0001764
0.00014798
0.000149799
0.0896269
0.000148548
0.00015641
0.000148644
0.000160228
0.0699392
0.00014701
0.000146819
0.000147241
0.000149745
0.0417602
0.0779442
0.000147171
0.000143922
0.0496476
0.0905252
0.000146924
0.0720611
0.000149739
0.0877202
0.0663787
0.000183
0.000193243
0.000213646
0.000167072
0.0351292
0.000188324
0.000147989
0.000144802
0.000146362
0.0825103
0.0870012
0.000150478
0.000155455
0.0358725
0.000146996
0.0277628
0.000147479
0.000148124
0.000145564
0.00676316
0.000185428
0.00014663
0.0462747
0.000149656
0.0390631
0.0832668
0.000146477
0.000148628
0.000187537
0.000147557
0.00014881
0.000146631
0.0699864
0.00015766
0.000148053
0.000148773
0.0819576
0.000147792
0.000161739
0.000147722
0.0540457
0.000148561
0.000171739
0.000160567
0.0445636
0.0796991
0.000158762
0.000189057
0.000173341
0.000148375
0.000169292
0.0567307
0.000146688
0.000180843
0.000146299
0.000236174
0.00014714
0.0646136
0.0859613
0.000169565
0.0359391
0.0470706
0.000160008
0.000150072
0.000448495
0.00014733
0.0574674
0.000153342
0.000317731
0.000147396
0.000158133
0.000165625
0.000156791
0.000148497
0.000147777
0.00014924
0.0135628
0.000175967
0.0399724
0.0469644
0.000154988
0.000145364
0.000164098
0.0546596
0.000158397
0.000146894
0.000148411
0.00685079
0.00508206
0.0369055
0.0293101
0.000162436
0.000148959
0.000146375
0.000171151
0.000167662
0.000283766
0.000147821
0.000148336
0.00992807
0.000173666
0.000149893
0.000179281
0.000287152
0.000184624
0.000145863
0.000162525
0.000235718
0.000311612
0.0853395
0.000213985
0.000147282
0.000149774
0.00015008
0.00014989
0.000147906
0.000148491
0.00015857
0.000177525
0.000161265
0.00015813
0.000156523
0.000149182
0.000154031
0.000150117
0.00015941
0.00015815
0.000147108
0.000156475
0.000147476
0.000146696
0.000149456
0.000148698
0.000203053
0.000145328
0.000166803
0.000282492
0.000947136
0.0628821
0.0347558
0.000153106
0.000149533
0.000147133
0.0867978
0.000147929
0.000144219
0.000149091
0.0893627
0.000157255
0.000162135
0.000246657
0.00015104
0.00014807
0.000157621
0.000146986
0.000162641
0.000149893
0.000159006
0.000146818
0.000147769
0.000150353
0.000151214
0.000154918
0.000269944
0.000166385
0.000173244
0.000171992
0.000194745
0.000164738
0.000173811
0.000147813
0.0334083
0.000152305
0.000154467
0.000147803
0.000150375
0.000174704
0.000147756
0.000166806
0.00590099
0.000155931
0.000185292
0.000178218
0.000164089
0.000168324
0.000165669
0.000147431
0.00015723
0.000148489
0.000171019
0.000166205
0.0815269
0.000146312
0.000165808
0.000154086
0.0567731
0.000212592
0.000168131
0.000148545
0.000167998
0.000144883
0.000176557
0.000150029
0.06645
0.000145624
0.000153624
0.000147949
0.000160188
0.000197451
0.0001582
0.0270667
0.000148124
0.000162014
0.000165709
0.000147942
0.0293423
0.087313
0.00019505
0.000178877
0.000166919
0.000147344
0.000146869
0.0480147
0.000176049
0.000146127
0.000149876
0.000152795
0.000147509
0.000209081
0.000146787
0.0817416
0.000186291
0.000193831
0.000161142
0.000149096
0.00014563
0.000147223
0.000181226
0.000166717
0.000154278
0.031001
0.000149088
0.00015059
0.000154792
0.0979863
0.000144761
0.000141064
0.000143636
0.0723336
0.000147179
0.00014717
0.000159279
0.000147714
0.000148827
0.000188794
0.000148399
0.000149024
0.000146899
0.000164924
0.000153952
0.041862
0.000147797
0.000148474
0.000146736
0.000190391
0.000146565
0.000155625
0.000168173
0.0877202
0.0686369
0.000469253
0.000208008
0.00021371
0.000163978
0.000165089
0.000154701
0.000149644
0.000148701
0.0749617
0.000164124
0.000144637
0.000147569
0.000147493
0.000157582
0.000171943
0.000149647
0.000156426
0.000187491
0.000198109
0.00017332
0.000147584
0.000149549
0.0572883
0.000152353
0.000145459
0.0753564
0.0724115
0.000146012
0.000143995
0.000154736
0.00014823
0.000159221
0.000149627
0.00467398
0.000149799
0.0425627
0.000147868
0.012584
0.000157867
0.000147871
0.000181263
0.000145247
0.000148243
0.000149742
0.000160779
0.000235061
0.000147314
0.00019578
0.000149895
0.000149268
0.000169603
0.000146758
0.000148756
0.000148566
0.000144289
0.000147945
0.000144678
0.000149035
0.00781399
0.000146863
0.000146769
0.000164921
0.00014551
0.000147407
0.000149043
0.000148624
0.0958997
0.000186869
0.00014807
0.00015089
0.00014787
0.000149894
0.000216356
0.000148223
0.000147707
0.00951554
0.00014754
0.000167931
0.000179744
0.000160273
0.000147576
0.000204257
0.000147666
0.000206204
0.000164694
0.000147672
0.0616431
0.0348255
0.000155317
0.000171249
0.000147218
0.000147244
0.000161861
0.00020911
0.000146813
0.000146804
0.000148709
0.000163875
0.000148586
0.000160256
0.000148638
0.00016676
0.000453334
0.000160852
0.000213221
0.000147254
0.000154867
0.000156126
0.00016082
0.000145837
0.000147523
0.00015027
0.000159752
0.000166072
0.000149163
0.000195508
0.000147879
0.0776034
0.000144694
0.000146345
0.000174626
0.000149792
0.000178896
0.000191647
0.000161042
0.000148119
0.000150283
0.000147959
0.000161323
0.000148404
0.000163185
0.000155432
0.000148639
0.000145929
0.000155128
0.094988
0.000158852
0.000163519
0.080759
0.00109716
0.000161275
0.000144884
0.0742323
0.000147881
0.000151952
0.000149277
0.000188068
0.000147726
0.000159806
0.000155206
0.000151304
0.000148704
0.00015376
0.00014927
0.000175006
0.000147356
0.000149173
0.000147921
0.000156647
0.00819169
0.000148053
0.0178803
0.000166728
0.000144121
0.0964218
0.000123626
0.000147457
0.000151406
0.000191632
0.000146729
0.000147394
0.0620992
0.00014802
0.0683748
0.000153336
0.000152931
0.00014978