/*--------------------------------*- C++ -*----------------------------------*\
| =========                 |                                                 |
| \\      /  F ield         | OpenFOAM: The Open Source CFD Toolbox           |
|  \\    /   O peration     | Version:  v2012                                 |
|   \\  /    A nd           | Website:  www.openfoam.com                      |
|    \\/     M anipulation  |                                                 |
\*---------------------------------------------------------------------------*/
FoamFile
{
    version     2.0;
    format      ascii;
    class       volScalarField;
    location    "900";
    object      omega;
}
// * * * * * * * * * * * * * * * * * * * * * * * * * * * * * * * * * * * * * //

dimensions      [0 0 -1 0 0 0 0];


internalField   nonuniform List<scalar> 
10042
(
0.0219075
0.0220487
0.0218441
0.0229638
11.664
0.02207
5.80331
2.37989
0.0217205
0.0220087
5.39609
0.0229101
0.0215271
0.02149
0.0234539
0.022031
0.0220224
0.0222585
0.0219102
0.128165
0.0219021
0.234888
0.0215774
0.021614
0.022056
0.028704
0.0221324
0.022651
0.0217714
0.0223401
0.0220183
5.54808
0.0220197
0.0222224
0.0259358
0.0216261
0.0279072
0.0331133
0.0216287
0.0292757
0.140817
0.0230921
5.62554
0.0219863
11.8213
0.0602305
0.0222932
0.0987243
0.0270321
0.0498458
0.022167
0.022119
0.0231219
0.0227012
0.0279407
0.0220628
0.0217713
0.0222621
0.0222147
0.0229297
0.0220439
0.022001
0.0261126
0.0218284
0.0222082
0.0222289
0.02202
0.0718074
5.17372
0.0218742
0.0226399
0.154917
0.0219918
0.0316624
0.0219984
0.0216105
11.1087
0.0219206
0.02966
5.6198
0.0263092
12.5022
0.0219754
0.0227344
0.0220255
0.0222138
0.0218858
0.152564
0.0219325
0.0218876
0.0221273
12.7654
0.0227222
0.022058
0.0222963
0.0218497
0.0219315
0.0218464
0.0287665
0.0217632
0.0222908
0.104989
3.87776
0.0222024
0.0225432
0.0502246
0.0219086
0.0219248
0.0219105
0.0214378
0.0217082
0.0218252
0.0255481
5.10222
0.0221972
0.0218385
0.0219394
0.0219161
0.0218468
6.30765
0.0219254
1.56575
0.0220162
0.0219815
0.103611
0.0219787
1.43207
0.027787
0.0484876
0.0218796
0.0306054
0.0219927
4.78856
0.200777
0.0217641
0.0573479
5.06429
0.0221344
0.103043
0.175073
0.0226542
0.0219364
0.0224319
0.14638
0.0218186
0.021825
0.0568856
0.0215144
0.0218585
0.0251294
0.0217376
0.0222555
3.91164
5.36949
0.0221858
0.0215221
0.0225358
0.0219925
0.0577689
11.4232
6.12754
0.128017
0.0219846
0.0217401
0.0220362
0.021976
0.0587669
26.6705
5.91588
5.8791
0.0223772
0.0218387
13.0942
0.162676
0.0375942
4.81083
10.3441
0.0220021
0.0831597
0.0313993
0.0226722
5.91945
0.0220674
0.0276802
0.0229705
7.34406
0.245809
0.0220348
5.55416
0.0236904
2.85694
0.0224279
3.77366
10.619
0.100953
5.86151
0.0251655
0.0219212
0.0215274
0.0232873
0.036412
0.0220683
0.0218182
0.168046
0.0220574
0.0216708
4.34965
0.0221571
0.0222603
0.0222428
1.65356
0.0218236
0.0545447
0.303771
0.0225108
0.254666
0.0219524
0.0219878
0.0643693
0.0217666
0.0256475
0.0226575
0.367077
0.0342992
0.0252198
0.029619
0.331411
0.0218317
0.162066
0.0228374
0.0217187
0.131908
0.0218471
0.0227996
0.0218762
0.0253153
0.0216988
0.0214749
0.023062
0.0255004
0.0219916
0.0220212
0.0219947
0.0256154
0.021839
0.0220274
0.0216151
0.0226015
0.0225146
0.0222689
0.0215284
0.0218657
0.024154
0.490974
0.128369
6.57017
0.0381277
0.036908
0.0236243
0.0676148
5.47333
0.0228639
0.0219122
0.0214921
0.0232199
0.0216989
0.243411
0.0230428
0.0218814
0.0222503
0.0382275
0.0225557
0.281234
0.0375004
0.183648
0.0237652
0.02546
0.0217038
0.0247661
0.0218418
0.0325773
0.0219025
0.0287699
4.80591
0.021673
0.0218051
5.59209
0.0615951
0.0220037
0.0220426
0.0238767
4.80825
0.0543345
0.153241
0.022182
0.0215232
0.0218324
0.0217349
0.314246
0.0218762
0.0220376
0.021836
0.0219537
0.0341709
0.0236584
0.0752392
9.47426
0.0227614
8.66019
0.0218419
0.0245473
0.0221239
7.72343
0.104003
2.29717
12.2846
0.0215949
0.0230562
0.0218787
0.0238514
0.0296952
0.0222416
0.0324753
0.0217028
0.0214865
0.0220092
0.081343
0.0222839
0.0233913
0.0219575
0.0235202
5.96739
0.0218419
0.0221763
0.0219883
0.0218017
0.0414458
0.101388
0.0367648
3.14864
0.0346068
0.0267506
0.0219727
0.0214731
0.022198
0.022268
0.569499
0.0219026
0.0222293
0.111431
0.0218208
0.0245054
0.0228481
0.117732
0.0218293
0.0250301
0.0457107
0.0322099
0.0232099
0.021927
6.55923
0.0577701
0.0221892
0.0410763
0.0219465
0.0218509
0.0219442
0.0244619
0.927567
0.023992
0.0222493
0.0227063
0.0222923
0.0222708
0.126663
0.0219252
0.0216002
5.19178
0.0218363
6.00556
0.48073
0.0322811
4.34622
7.51608
0.027565
0.135723
0.0221589
0.0516415
0.0222913
0.0222043
0.238163
0.0220652
0.024096
12.3181
0.0219466
0.0219035
0.0493289
2.17164
0.0221529
0.0215155
5.59398
0.10472
0.0218349
0.0722223
12.2798
0.0217654
0.022264
0.0216271
0.0218634
0.0214701
0.021666
7.99805
3.78492
0.0222381
9.88859
0.0214923
0.0218767
0.587224
0.0219672
5.60215
0.0587285
0.0227462
0.0215704
0.0215096
0.134596
0.0224702
0.0275656
0.0223336
4.94735
0.0224031
6.62557
0.0232604
0.0219339
0.0218383
0.639693
0.0219498
0.0255091
0.021863
0.0218115
8.10271
0.0252379
0.0219278
0.0217386
5.94954
0.0218712
0.0255861
0.0232036
0.0217042
10.0816
4.36427
0.021882
0.0221418
0.0241589
0.021528
0.0220076
0.02197
5.77874
0.021994
0.0217063
0.0282187
2.24907
0.0580992
0.0222685
0.0310246
17.8442
0.0361624
0.0219338
0.0219331
0.200848
0.0221218
0.0219402
0.0289374
0.0217594
0.021667
0.0227982
0.0215565
0.0375567
0.0219053
0.021954
6.88352
0.0217599
0.0222995
0.0220672
0.0222738
0.0323373
0.0218864
0.0217827
1.89709
0.0224514
5.92741
0.0228349
0.022282
0.0222767
0.127478
0.0218986
0.0219327
0.0220128
0.0222574
0.0274668
6.17601
0.0218748
0.037283
4.51475
0.0360019
0.0222611
0.0219561
0.0219537
0.0222032
0.0218534
2.00326
5.17248
0.0220752
0.0278092
0.028205
0.0276489
0.0220058
0.0216536
0.454017
0.131347
3.25389
0.021568
0.0220017
0.021934
0.0218412
5.68258
0.0342261
0.0222638
0.0218249
0.0217934
0.021977
0.607075
0.025232
0.0221399
7.03098
1.33931
0.411578
0.0511737
0.0220153
0.0217729
0.0576207
0.0519515
3.09395
26.3382
0.024557
0.0257922
0.0222106
0.0233366
0.0221321
0.0221999
5.63955
0.0216088
0.0218455
0.0574861
0.0222104
0.26763
0.0226668
0.138558
0.0289911
0.0222448
0.0229584
0.0259404
0.038213
0.0511481
0.0808845
0.0222823
0.0497702
0.022814
0.0218497
0.022119
0.0222253
0.0220337
0.0248005
0.0583894
0.040473
0.0221432
0.022507
0.0220088
0.021912
0.125439
0.0219288
0.0231718
0.201272
0.0215589
0.0519999
0.0777849
0.0220398
7.30102
0.0415973
0.0222099
0.27214
0.0219246
0.0222686
0.0219529
0.0219782
0.0222924
0.0237755
0.0219836
0.961343
0.0226541
0.021961
0.0221489
0.0327739
0.0329627
0.0219767
0.0239418
0.0217739
0.0320535
0.0219272
0.0291145
0.0216031
0.0228788
0.021511
0.0219303
9.37459
0.0216338
0.111184
0.0219652
0.022563
0.0217408
0.0328664
0.0220756
0.0429298
0.0220007
0.235564
0.0222621
5.78111
0.0215094
0.0233576
0.0222715
0.0219672
0.0219582
0.0237248
0.0220333
0.121638
32.0919
0.246203
0.0236446
0.0358745
0.0218108
0.0378348
0.0601268
0.022012
0.0286123
0.0850087
3.3182
0.0786147
8.7017
0.0266957
0.0220939
0.0222313
0.0244531
0.0237695
0.0351662
0.0215998
0.023262
0.115667
0.0222649
0.0219131
0.0242888
6.60705
0.0232168
0.0299787
0.0573008
0.0222515
5.41653
0.0216158
0.0218243
0.0223642
0.0217662
6.69096
0.0689505
5.75667
0.0220568
3.78157
11.4676
0.446389
0.0349355
0.0682461
0.160798
0.0398146
0.0219581
0.0218667
0.0297187
8.65709
0.0218032
0.0288529
6.32946
0.0218996
0.0219059
0.0218557
0.0228101
0.0219498
0.0218606
0.124801
7.73844
0.0218428
0.0219986
4.7993
3.08535
0.021815
0.0219379
0.022155
0.0218668
0.633294
0.0687756
0.273624
0.0225401
0.0218998
0.0217156
0.0226959
0.0220527
0.0322334
0.0225494
9.10091
0.0220056
0.0220755
0.0401391
0.021799
0.0328769
0.0645073
0.0227896
29.6905
4.69908
0.0221
0.0218494
8.62281
6.63401
0.034911
0.0219
2.95331
0.181407
0.0254444
0.0219426
0.021995
0.0219222
0.323116
0.0236148
0.0914014
0.0222685
5.55669
0.871385
0.021959
0.0219871
0.114327
0.0221507
0.021738
0.0248692
5.20024
3.19984
9.4462
0.0221968
0.0591633
0.0381813
0.0216404
0.0218552
0.0221939
0.304402
0.0222061
0.0219552
0.0591225
0.0219962
0.0631849
0.0221115
0.022107
0.0216866
0.0221514
0.184089
0.0221992
0.0218607
0.0408784
0.0547117
0.382664
0.0222101
0.088487
2.65258
5.95308
0.0228447
6.12709
9.69218
0.021901
0.0215386
0.0225873
0.0231769
2.15589
0.0232666
0.0221229
0.0222063
3.167
0.0367252
0.0221412
0.0221424
0.021933
0.0414727
0.0217522
0.0218313
0.0310596
0.0227417
0.0222045
0.0217333
1.37982
0.0218062
0.0226647
0.022028
0.0223108
0.14797
0.0222031
0.0229301
0.0220716
0.0247049
0.781458
0.0222919
0.35108
0.0256206
2.53696
0.0216469
0.0232777
0.0305428
0.0882711
0.0495891
0.0225393
9.6059
5.41177
0.022442
0.0217839
0.373342
0.0220789
0.0222511
0.0217233
0.0222418
0.0500308
0.0222928
0.0222931
0.0636663
0.0280559
0.0227902
0.030867
0.022658
9.69224
0.022981
0.839229
0.0218595
0.05754
0.036286
5.08331
0.0238882
5.35441
0.0222695
0.0247426
0.0220424
0.0220491
0.0219039
0.131985
0.0395673
0.0473004
7.87244
0.0221199
10.3849
0.0249897
0.0217465
0.0309115
0.0297856
4.36568
0.0219813
0.0277504
0.0504081
0.0232258
0.0409927
0.0222838
0.0215708
0.0222833
0.300586
0.0221345
0.0220036
0.0217318
0.0217233
0.0219346
0.0219879
0.022228
0.0218464
0.0221516
0.0224014
0.0250416
0.030389
0.0219888
2.91057
0.0219521
2.9133
0.0364644
3.11021
0.0356769
0.0245748
5.77567
0.033422
0.324918
7.02231
0.0410627
0.0221994
0.0218425
0.0227988
0.152083
0.0218595
5.49003
0.0218616
16.2652
5.6323
0.0542642
0.0226622
6.31874
5.21431
0.0230754
0.0219773
0.0222639
0.0239482
0.021561
0.0216643
0.0566712
0.227884
0.022078
0.0218533
0.0223068
0.644464
0.0609805
0.0221567
0.0249778
0.0884499
0.0223932
0.022027
5.15825
0.0222447
0.021874
10.9063
0.0238389
0.0219394
5.78624
4.00046
9.66466
0.0219086
0.0230428
0.402974
0.0217305
0.0218351
0.0222843
0.0283751
0.0220431
0.0221116
0.0229935
0.0452504
0.178329
0.02178
0.0219261
0.0220789
0.0218016
0.0224841
0.0215955
0.13872
0.0282735
0.0219497
0.0219821
0.0217634
0.021975
0.0223443
5.39157
0.0283495
0.0215079
0.0219234
0.0403191
4.33541
0.0220418
0.021982
0.0220279
0.0215172
9.00143
0.0473033
0.0217124
0.0220669
0.0290131
0.103775
0.0221695
0.0222828
0.0247203
0.0219448
0.0253912
0.0223128
5.95502
0.0344128
0.0220697
0.0256187
13.2072
0.0278538
0.154108
0.0248885
0.399408
0.0222709
0.0220104
0.0246792
0.0655804
0.0218926
0.0217184
0.0222436
0.022482
0.104809
0.118977
1.09404
0.0225072
0.0219924
0.0279101
0.0219612
0.0219582
6.40502
0.0235345
0.0219509
0.0219817
0.286415
1.17525
0.0219909
0.0220429
0.0901897
0.0217366
0.0221039
0.0219302
0.0878959
0.0229071
0.0254068
11.4548
0.0222236
0.0221686
2.59708
0.0219056
0.162852
0.0218943
0.023254
0.0412873
0.0219782
0.0220896
0.0220707
0.0232735
10.0967
0.0219165
0.0221354
0.211497
0.0254239
0.272836
6.17233
0.0461315
0.0222122
0.423305
0.0217828
9.85087
0.0221682
0.0219865
0.0216826
6.46481
0.0222123
0.0223012
0.0221602
0.0328234
2.30975
0.0278437
0.0482733
0.021899
0.0221354
0.0363966
0.0286394
0.0218331
0.0250118
0.0218807
4.60311
4.85795
0.0221393
0.0228333
0.0222229
1.57411
0.0221574
19.7793
0.0219766
0.0217834
0.0217053
0.0223536
0.0235634
0.0222715
0.0219884
0.0219838
2.34061
0.104502
0.0218398
0.0242382
0.0236347
0.0403026
0.0217989
0.025563
0.0227975
0.0219527
0.0230974
0.0298249
0.0222802
0.0219124
0.0264449
0.0217217
0.156982
0.0229947
0.137127
0.022091
0.0220372
0.0217431
0.0711337
0.0389389
0.0217658
0.0242575
0.0708182
0.0223889
0.0217689
0.0252593
0.0222247
9.39266
0.216019
0.0247435
7.37699
0.0230061
0.0335965
0.0903234
0.0370262
0.0323784
5.51523
0.0289215
0.128416
0.0219584
0.0228353
0.0218381
0.0219364
0.0260455
0.0217491
0.191192
0.0219717
0.0219843
0.0735258
0.0219379
0.0537173
0.0251158
0.0252113
0.0218641
0.0416744
0.202039
0.021415
0.0307573
6.25616
0.041375
0.0217187
0.0289446
0.0219935
0.0217653
7.93636
0.0218294
0.0217813
0.0484482
0.0219453
0.0262535
0.021738
0.0220006
4.80172
0.0218328
0.0216572
0.0244729
0.0219068
0.0214979
0.0222518
9.92824
0.0221264
0.0220848
0.0215584
0.0830837
0.0223576
0.0243388
0.0219233
0.0340429
0.0226016
0.0218952
0.0227823
0.0221005
0.0217775
0.114745
0.0410723
0.0284998
0.0233586
0.0445327
0.0725772
0.0271638
0.027824
0.0228463
6.71075
0.0219276
0.021953
0.0219231
0.0222384
0.0348837
0.021892
10.1916
4.85256
5.51272
0.0220844
0.0244829
0.0383616
0.0215213
0.0867907
0.046356
0.820405
0.0653001
5.21314
0.0727246
0.162903
1.88699
0.0280389
0.0227975
0.0249145
0.0217678
3.75641
0.0224819
0.0288356
0.0217964
0.0248766
0.0220442
4.99268
4.59956
0.0222037
5.29769
0.634455
0.188249
0.0452041
0.0637707
0.0216616
5.72203
0.0219595
8.34402
5.37023
0.0222044
0.0218989
0.0220014
0.0232548
0.024461
0.0347971
0.184829
0.0221252
0.0220387
0.0249416
0.0222836
0.0220361
0.0258432
0.021833
0.0220588
0.208216
0.0607289
0.0220408
7.11058
0.0226961
0.0222721
0.0233236
0.283705
0.0219362
0.0217272
0.108773
0.182716
0.0217659
0.0250193
0.695111
0.0533217
4.76186
0.0217773
0.15734
5.20337
9.88553
0.0220832
0.0219113
0.0613635
0.0259863
0.0405315
0.0222916
6.76205
0.0484721
0.179513
0.0220351
0.021976
5.48557
0.188856
0.0221503
0.0222723
6.15295
0.0219184
0.0215802
0.0217183
0.0232756
0.0221969
0.0292614
0.0220978
0.0234499
0.0216151
0.0321521
21.8064
0.0579605
0.03403
9.34827
0.0749378
0.0216346
0.021763
0.0218472
0.0222837
0.124961
0.0294016
0.0219636
0.0219715
0.0219704
0.0216026
0.0319026
0.0216097
0.0474651
0.02375
0.0221241
5.14952
5.27565
0.0221025
7.53865
0.0334129
0.0327933
0.0222641
0.0216152
10.9128
0.0729925
0.021921
0.0217229
0.0219296
0.0261439
0.0222624
0.14774
0.0215158
0.0220591
0.0219869
2.06732
6.44728
0.0215014
0.0219869
0.149549
0.461441
0.0244446
5.0239
7.01834
0.021693
0.0221421
0.0221128
0.0229498
2.08096
0.0220371
0.0222844
0.184442
0.0912074
0.0222123
0.0219415
0.0713597
0.0222836
0.0220746
0.105736
0.0802813
5.53726
0.0219829
0.0741671
0.040381
0.0555419
0.0230106
0.0272302
0.021935
0.0219286
0.11819
0.0256504
0.0219954
0.0246458
5.26795
0.0215298
0.0218088
0.0215211
0.0744818
0.0219445
0.0220866
0.0214378
0.0219429
0.673477
9.23879
0.0221966
6.55584
5.40123
4.90364
0.0219318
0.0219352
0.0218276
0.0218876
0.0221169
0.0221504
0.0216209
0.0220827
0.0217785
0.0241777
9.21604
0.0355932
0.266491
0.0294034
0.0220308
0.0230822
0.0319174
0.0221575
0.0218452
0.0394609
0.0316249
0.542544
0.0414736
0.0214835
10.9069
0.0226623
0.0214861
0.0218392
0.349035
0.0429111
0.0226985
0.0255527
0.0220724
0.0220946
0.0318592
0.0405687
0.0274377
7.96976
0.022084
0.0220303
0.617134
0.0368207
0.0250059
0.132257
0.0230187
0.0645156
0.295009
0.0648203
8.27196
0.0218271
0.0216656
0.0219388
0.0220472
0.0220948
0.023027
0.0396692
0.0505663
16.5148
0.0220736
8.32762
8.27606
0.0240031
1.38191
0.0222036
0.093933
8.38247
0.0219097
0.0938751
0.0215345
1.83176
0.0221977
0.201266
0.0218571
0.649162
0.0380083
5.29762
0.0218464
0.169608
0.021597
0.0230232
0.267555
0.0218371
8.25744
5.78195
0.301568
9.39264
0.0947158
5.30656
0.0386326
0.0220158
0.0442673
0.0457589
5.42458
0.0220775
0.0220171
0.0226041
0.0476609
0.0219395
0.0222051
0.0221974
18.2603
2.3374
0.0219055
9.91295
0.0576347
0.0217257
0.0376673
0.0271562
2.54822
0.0295207
0.0217618
0.671261
0.0220719
0.0219368
0.02209
0.124663
0.0621853
0.0217668
0.0264071
0.0221107
0.0222606
0.0217914
10.1753
0.0222857
0.0218131
3.04638
0.244119
0.023878
0.0217941
1.87829
0.0280725
0.0231917
0.0219402
0.0509153
0.0230505
0.026635
0.0246422
7.28251
0.0430563
0.0605195
0.0214792
0.031225
0.0455894
0.0272201
0.0223607
9.13636
0.0222527
0.15839
0.0218835
0.0221938
0.0305001
0.188811
0.0233444
0.0249168
0.0221142
0.0366888
0.0653623
0.0905833
0.0278019
0.0222923
0.0219648
0.0278713
0.0866203
0.0219349
0.0433622
0.0220141
0.0219363
4.91583
0.0218861
7.88613
0.0219307
0.0269189
0.0723523
0.0219268
0.0279727
0.103373
0.103656
0.0219349
0.0820881
0.0224753
0.0222634
0.0218931
5.07589
3.53523
0.021902
0.0219255
0.0215833
0.0218082
0.0931071
4.35466
0.0219215
1.37003
0.0217285
0.0217965
0.0218886
1.22147
0.0227498
0.0237696
0.0219437
0.0219498
0.0219118
0.0222568
0.0222595
0.0318225
12.2286
0.0216004
0.0219109
0.0411909
0.0685836
0.0217945
7.86157
0.0518743
0.0217857
0.0214944
0.022072
0.114849
0.0217255
0.079759
0.0285459
0.0232887
0.0217833
0.0452213
0.0215197
0.134589
0.0275814
0.0223527
4.75102
1.50751
0.021422
0.021856
6.64498
0.121509
0.077118
0.023815
0.0798266
0.0215269
6.32788
0.0654886
0.0216901
1.80406
3.91727
0.0231399
0.0441575
0.0533479
0.0217567
9.85659
0.0221649
0.0265387
0.0297097
0.0222362
0.0220494
0.0515835
0.0218662
0.021888
0.0218654
5.61675
0.0218383
0.0219381
0.0217447
0.0218849
0.0218485
0.0222303
0.0535319
0.0450364
0.0233663
0.0222498
1.44513
0.0222424
0.0218338
0.0218927
0.0215838
0.0220854
0.0219715
0.02834
0.0913262
0.0222241
0.0303149
0.049337
0.0217286
0.0274803
3.451
0.0226274
0.0215216
0.0220804
0.0825026
0.022203
0.0222031
0.0242135
0.0247288
7.53801
13.2539
0.0218222
0.0218623
0.0219404
0.0685899
0.0230027
0.0217942
0.0281452
0.0733602
0.0221517
0.0267823
0.0221335
0.107051
0.208181
0.0227376
0.124326
0.0257283
5.01957
0.0222053
0.0218891
6.67477
0.115661
0.0242978
0.161647
0.0915606
30.2386
0.0454374
0.680225
0.0255092
0.0246512
5.18312
0.0265966
0.205958
0.0293793
0.12546
5.42214
0.0222933
0.0221215
0.0219744
0.349114
0.0214441
6.4552
0.0363562
23.0709
0.022918
0.116943
0.205568
0.021947
0.0221804
0.0789006
0.0294856
0.0220881
0.024452
0.0768098
0.0769524
0.0773167
0.109386
12.1557
0.14417
0.0221154
0.0222015
5.47876
0.0754802
0.0225986
0.0375797
4.09413
0.0222326
0.023638
0.021938
0.0286058
0.0220392
0.0221056
0.0385042
0.0220888
0.0225954
5.36407
30.8041
0.0217262
0.0256669
0.0265688
0.188146
0.0424601
0.022306
0.0219247
0.10271
17.8146
0.0219261
0.0250589
0.0220449
6.28496
0.0218266
0.0299383
0.349731
0.314191
0.022272
0.137852
0.0867368
0.0575037
0.0255611
0.0220209
7.67294
0.0218124
0.0259264
0.0222175
0.0285215
0.021589
0.0215982
0.0220593
0.0664386
0.0218164
0.0219776
0.0217566
0.0219077
0.0218636
0.0220036
0.0898602
8.88136
2.36779
0.0253058
0.0220563
0.0318972
0.0235609
7.285
0.022285
0.17948
0.0216092
0.021994
0.0223532
0.0346651
4.11941
0.0219559
4.96002
0.0221897
0.0215141
0.0230204
8.53402
0.0233242
0.0446306
7.05788
0.0222848
0.0221665
7.09258
0.0218813
10.836
0.0220883
0.0315128
11.6466
0.0224778
0.0220973
0.0218563
10.1856
0.0263269
0.0218651
0.781968
0.0219561
0.0225743
0.0828512
22.8242
0.191525
5.4211
8.52955
0.073294
0.0234441
0.183356
0.241728
0.0217607
0.0218546
0.0228058
0.0264265
0.0784186
0.0219882
0.0253004
0.0219011
0.0219583
2.20721
0.0222252
9.18875
0.0215424
0.0311649
0.0634937
0.0218247
0.0215078
5.27308
6.24159
0.0643758
0.0220809
0.0248703
0.0529826
0.0217634
0.0345094
0.101217
0.0396543
0.0231111
6.73874
24.7851
0.0215382
0.0221333
0.0216459
0.0221945
0.0226166
0.0267372
19.6694
0.0221205
0.021959
0.0438145
20.7799
0.0215508
1.47468
0.0215673
0.13549
0.0579712
7.66803
0.0693296
0.0531987
0.0559277
0.0214929
0.0215016
0.247437
0.0254628
0.0220878
0.854866
0.0218248
0.0220844
0.0216143
0.0492349
0.214025
0.578976
0.143944
0.0279962
0.0293701
0.0219104
11.5141
0.208199
0.0230045
0.0219708
0.0217224
0.0944413
9.10305
0.035791
10.1341
0.0228485
0.0217647
4.84727
0.0219357
5.93906
10.4904
0.0216772
0.029635
0.258917
0.0241449
0.0356871
0.0218172
5.06185
0.0261205
0.161991
5.47606
9.50188
0.0276174
0.0274865
0.0221364
0.150229
11.4723
0.0227592
0.0238061
5.31637
0.0490335
0.0669307
0.0222635
4.46587
5.23942
0.0965485
0.0219383
0.0263012
0.0218918
2.4643
0.074376
0.0336303
9.58613
4.88385
0.0214906
0.156107
0.0221013
4.97431
0.0927686
0.0261306
0.0248402
0.918746
0.0213976
0.0640392
6.41084
4.82118
0.022977
0.0220312
0.0217866
0.0880946
1.80172
0.173142
5.59936
0.096908
0.0413506
0.0217516
5.08319
0.0802198
0.0283233
0.189566
5.5865
5.31318
5.16388
9.35309
5.66926
5.81861
0.0220505
0.0287869
0.0328866
0.0218165
11.5544
0.806936
0.0220193
8.11096
0.0221301
0.0219897
0.0217687
0.0308942
0.0218626
5.1312
0.0610432
0.224858
0.021641
0.562702
0.0476811
0.420061
5.16053
0.0225284
0.0275057
0.037742
0.0665605
0.0217356
0.0215957
0.021887
4.82278
0.0217759
0.0217439
0.186089
0.0231271
20.298
0.0220455
6.72899
0.0219466
0.0220601
0.021945
0.0219714
0.0264391
0.0243814
8.46892
0.031013
0.0366263
6.09436
0.0218108
7.29619
0.0217906
6.48077
1.54304
5.95918
0.066953
0.0219612
0.0222725
6.77673
0.0219523
0.0259362
0.0221121
0.0294328
6.55156
0.0218836
0.0218445
0.0218698
0.0222651
10.2848
10.6223
0.0218123
0.0214365
5.16588
9.85754
0.021857
5.17635
0.0222642
8.55182
5.83178
0.0703206
0.352266
1.04774
0.0853752
4.89689
0.0819249
0.021963
0.02153
0.0217815
7.37197
10.0428
0.0229549
0.0281836
4.88537
0.0218315
5.39421
0.0217816
0.0218575
0.0216054
6.89007
0.0756817
0.021732
4.75314
0.0222526
7.53327
5.09781
0.0217187
0.0221104
0.120425
0.0219495
0.0218779
0.0218272
3.39085
0.0318008
0.0220312
0.0221304
3.21506
0.0219282
0.0407713
0.0219833
6.00053
0.0221016
0.104057
0.0233223
5.05092
7.87239
0.031161
0.086831
0.0563734
0.0220746
0.0758137
5.49712
0.0217251
0.0840687
0.0217611
0.545749
0.0218885
5.9757
3.33152
0.106086
4.8542
4.84647
0.0407802
0.0224083
2.07888
0.0219303
11.5319
0.0252938
0.978081
0.0218597
0.0325923
0.0475639
0.0303084
0.022093
0.0219303
0.0221956
5.65956
0.0729189
4.70827
2.66315
0.0274989
0.0216071
0.0544284
11.9075
0.0334874
0.0217583
0.0220802
6.83017
4.39501
11.3197
5.79023
0.0360489
0.0222564
0.0217733
0.0520784
0.0512565
0.747778
0.0219973
0.0220693
34.4451
0.0664854
0.0222853
0.0640144
0.801782
0.106742
0.0215806
0.0483446
0.560189
1.06486
6.88271
0.246738
0.0218672
0.0222691
0.0220036
0.0222849
0.0219465
0.0220908
0.0332943
0.221315
0.0341521
0.027196
0.028803
0.0221877
0.0260497
0.022404
0.0347107
0.0326746
0.0218106
0.0282527
0.0218878
0.0218391
0.0224731
0.0221205
0.398001
0.0215749
0.0777633
0.633697
1.23303
8.78397
5.74341
0.0223363
0.0222368
0.0218968
6.62821
0.0217843
0.0214616
0.0221745
6.42766
0.0311244
0.0340076
0.414358
0.0233465
0.0220314
0.0296435
0.0218731
0.0482003
0.0222854
0.0341361
0.0217775
0.0219214
0.0228997
0.0234575
0.0248563
0.658061
0.0384949
0.11337
0.0605336
0.127937
0.0441379
0.0688975
0.0217745
5.0993
0.0244311
0.0265877
0.0219267
0.0225594
0.122664
0.0219815
0.0643165
6.9969
0.0292103
0.380031
0.104918
0.0539641
0.0696261
0.0602572
0.0219256
0.0286336
0.0220905
0.0789915
0.0515228
6.07235
0.0217541
0.0481675
0.0263377
3.96454
0.9866
0.0463352
0.0220982
0.0523652
0.0215633
0.0683453
0.0227281
4.72772
0.0216425
0.0257894
0.0220158
0.0359633
0.131965
0.030697
8.92432
0.0220387
0.0300294
0.0609255
0.0220147
7.04546
7.96637
0.158804
0.0549409
0.0479782
0.0217585
0.0217325
9.29218
0.103152
0.0215907
0.0223637
0.0249316
0.0218946
0.41109
0.0217684
6.97665
0.145278
0.147696
0.0374394
0.0223067
0.0216547
0.0217842
0.152939
0.0813194
0.0265422
5.12465
0.0221741
0.0230808
0.0271726
8.87919
0.0214806
0.639226
0.0213981
5.87576
0.0219065
0.0218934
0.0380256
0.0219842
0.0222101
0.139097
0.0220655
0.0222815
0.021742
0.0444701
0.0255047
1.79581
0.0219891
0.0220868
0.0218451
0.131108
0.0218008
0.028508
0.0420026
6.28788
9.83239
10.9847
0.847648
0.398493
0.0413753
0.0625127
0.0272008
0.0222511
0.0221208
7.0133
0.0574519
0.0215329
0.0219613
0.0219527
0.0275084
0.0816826
0.0222517
0.0301125
0.12012
0.170066
0.11745
0.0219643
0.0222376
2.79296
0.0235453
0.0215596
3.78697
8.04367
0.0216844
0.0214214
0.0267823
0.0220545
0.0379361
0.0222485
2.07435
0.0222726
1.76875
0.0219427
5.37156
0.0297998
0.0219373
0.062774
0.0215719
0.0218924
0.0222647
0.0327456
0.50943
0.0218506
0.166623
0.0222855
0.0221997
0.114265
0.0216537
0.0221284
0.0221023
0.0214605
0.0219524
0.0214876
0.0221666
5.47148
0.0218532
0.0217192
0.0573365
0.0216144
0.0219318
0.0221678
0.0221378
9.43231
0.408067
0.0219899
0.0227143
0.0218604
0.0222855
0.194696
0.0220552
0.021983
7.97679
0.0219579
0.0456568
0.0578487
0.0379699
0.0218062
0.205286
0.0219028
0.298524
0.0689017
0.0218252
8.70221
2.06592
0.0281418
0.121721
0.0218272
0.0218651
0.0452209
0.219686
0.0217356
0.0218547
0.0221676
0.0410407
0.022104
0.0362453
0.0221114
0.0474707
1.45559
0.039233
0.180918
0.0218369
0.0244117
0.0226832
0.0233263
0.0216806
0.0218899
0.0228524
0.0232122
0.0678789
0.0223382
0.0969263
0.0218225
6.20588
0.0215089
0.0217717
0.0738711
0.0222715
0.105508
0.0891247
0.0373688
0.0218609
0.0228648
0.0218868
0.0373825
0.0220657
0.0554643
0.0255384
0.0221424
0.0216606
0.0273631
7.88727
0.0319422
0.0519709
4.56431
0.831757
0.0389086
0.0215657
6.12398
0.0219401
0.0234919
0.0223782
0.104464
0.0218884
0.0354214
0.0277355
0.0235078
0.0221217
0.0253469
0.0222
0.0608634
0.0219296
0.0221858
0.0219489
0.0284071
4.19366
0.0219848
8.57683
0.08586
0.0214423
9.13491
0.265839
0.0217609
0.0232219
0.0890158
0.021787
0.0218957
3.76574
0.0220272
4.98474
0.0254267
0.024586
0.0226214
0.0223003
0.02191
0.02178
0.0609593
0.0224996
0.021959
0.0219068
0.0221383
5.52019
0.0367078
0.022034
0.0289206
0.149331
0.0662574
0.0218773
0.0219835
0.0219445
0.0249438
0.0227543
0.0223807
0.0271079
6.41237
0.0217587
0.0229841
3.23937
0.0245454
0.106971
0.145062
0.0218663
0.02227
0.410711
0.0875353
0.183163
5.54251
5.05065
0.184995
6.56378
0.0217353
0.0231302
0.0216777
0.0221869
5.4697
0.0219765
0.0560367
0.0670122
0.0293412
0.0249563
0.602681
0.0218986
0.022117
0.0252653
0.0219314
0.0220485
0.0217331
0.0219629
0.0705449
0.0219347
0.0221295
0.0217766
0.0457325
0.0221325
8.22011
0.0219116
0.0228883
0.0218125
0.0222521
0.022726
0.0219433
0.0379796
0.0229101
0.0219259
0.0281764
0.0220077
0.0222646
0.0219821
0.03097
0.0222857
0.0220327
0.0220463
0.0220597
0.0288707
0.0220192
0.0220065
0.108624
0.0220748
0.0219135
0.0237486
3.1998
0.0520032
0.0222971
0.054263
11.0783
0.120333
0.218024
0.0239048
0.0227712
0.0267954
0.320476
0.0220448
0.231267
0.0224251
0.0218897
0.0283146
0.0220514
0.0711289
0.0777101
0.064953
0.0229374
0.0219409
0.0284915
0.0272227
0.0228671
0.0243181
0.0232846
0.0442167
0.07492
0.0755113
0.0219249
0.0238006
1.77021
0.0230752
0.0222853
6.02106
0.506898
0.0219402
0.0223754
0.0230725
0.0750642
9.76345
0.0219541
0.376511
7.74472
0.0383077
0.0594637
0.0216241
0.0235776
0.0226211
0.0839165
0.0222319
0.0294787
0.02336
0.261959
0.0221937
0.0220614
7.39066
0.0234564
0.0229552
0.0221367
0.0222126
0.0380105
4.91359
0.0278498
0.0220425
2.86328
0.098446
0.0222644
0.021949
0.0218241
0.0241136
0.0216722
0.195293
0.021857
0.024333
0.0249306
0.0611294
0.0262229
0.0218197
0.0272178
0.0242104
0.0218207
0.0995414
0.0218634
0.0233812
0.0216817
0.0222719
23.3262
0.0285086
0.0222457
4.81811
0.0227411
0.0219459
2.45513
0.0700033
4.7124
0.0219158
0.0229755
0.0218697
0.0225394
0.0229853
5.68824
0.0224427
0.0909396
0.0217477
0.0220202
0.0235263
0.0219328
0.036601
7.82088
0.527154
0.021948
0.0217163
0.243369
0.0225205
0.0221133
0.0262965
0.0271172
0.408107
0.0836285
0.022771
6.3222
0.0906349
0.0223923
0.0217182
0.0221879
0.0283819
4.97366
0.0222839
0.067275
0.0226791
0.0220906
0.0215507
0.0222249
15.6731
0.0268732
0.0217479
0.0237308
0.022095
0.0252791
0.0214289
0.0230803
0.0219438
0.0228482
0.431649
0.0220341
0.022213
0.0993261
0.021591
0.0215452
7.55052
0.0218743
5.76412
5.60286
11.5177
0.0265313
0.0221252
0.0214969
0.0221391
0.0214694
0.0236209
0.213495
0.0519379
0.426724
0.0844088
0.0241011
0.0215751
0.022918
0.0225861
0.0222725
0.022118
0.0215358
0.0739162
0.0224822
22.9546
0.0222589
0.0226939
0.0222635
0.0220388
8.93013
0.140702
0.028516
0.0214943
0.0535701
0.0230456
0.0219691
0.0833276
0.021446
0.0232691
7.56327
0.0219561
0.0218903
0.0218891
5.94638
5.10018
0.0215889
0.0225946
0.0243981
0.0220916
0.0216055
0.0219487
0.0220759
0.0218996
0.021843
0.0218981
0.0241335
5.23613
0.0380771
0.0219319
0.0219289
0.0222663
0.0221044
0.0221775
0.0259001
0.0274511
15.2023
0.0258161
0.0221716
0.0225312
0.0219434
0.0952769
0.0215878
0.0222236
0.0232062
0.0286393
0.026622
8.24025
0.022094
0.0306019
0.0226257
0.0225733
0.0221045
0.0215694
0.0229132
0.114946
0.186548
0.0217268
0.0372766
0.0752902
0.0222647
0.0401478
0.0383529
4.49298
0.0222495
0.023547
0.0224743
0.0215797
0.0768457
0.0219561
0.0219967
0.0532882
0.226073
0.209734
0.0217601
0.0219066
7.184
4.72003
0.0215616
1.86725
4.6937
0.0218203
0.0215664
0.0216691
0.0220603
0.0221405
0.0215308
0.0283988
6.37111
0.0217648
0.0219569
0.0216861
0.022158
0.021792
0.0218348
0.0215222
6.05101
0.0219954
0.232009
0.0221529
0.0217981
0.0229391
0.0218318
0.0221758
0.0291818
0.0221553
0.022292
6.97658
0.0219899
0.0250374
0.0220215
0.0219654
0.022141
0.02181
0.119623
0.0220577
0.0221069
0.0219877
0.193947
0.0326723
0.022134
0.0221755
0.0219355
0.0230373
4.78674
0.0233588
0.0236418
0.0219477
0.0221235
0.0219372
0.0517309
0.0231684
0.0228047
0.40626
0.0444319
0.0218038
0.0251592
0.0220007
0.0223531
0.0218135
5.24495
0.0219591
0.0220574
0.0218026
0.0296476
0.0234362
0.0226695
0.0219191
0.0217864
0.0620229
7.85406
0.0218133
0.0555265
0.0234509
0.0233538
10.4491
0.0217423
0.0219824
0.0219479
0.0237294
0.0232091
0.0217909
0.0242774
0.0219041
0.0997867
0.021498
0.0217144
0.0250846
0.0221427
0.0931494
0.0258088
14.8305
0.0654895
0.0222121
0.106276
4.93625
0.0224235
0.0245454
0.0220683
0.0252392
0.0217768
0.0396018
0.0440363
0.0218789
0.0289865
0.0217498
5.00094
0.0222012
0.0235342
6.1965
0.0445133
0.0240282
0.150261
0.0221565
0.0219951
5.12734
0.0217374
10.5357
0.0218432
0.0218614
0.0769801
8.36876
0.0219085
0.0427428
11.4667
0.0218519
0.0221751
0.021993
0.027463
0.0255401
0.0227827
0.0220037
4.74449
0.0219611
0.0225727
0.0219356
0.021896
0.0220361
0.0234348
0.0283808
8.19717
0.0222314
7.54745
0.0219367
0.022616
0.0245458
0.0225764
0.0627357
0.0643034
0.0224017
0.0219216
0.021824
0.094568
0.0217117
0.0218287
0.506787
0.123015
0.0217054
0.0220014
0.0217586
0.0220896
0.0246537
0.0799881
0.0219634
0.0221269
0.0217425
0.0221519
0.0219617
0.0214994
0.0271251
5.13324
0.0216931
0.0221897
7.6227
0.0219025
0.0384364
0.0220691
0.0302434
0.0555193
20.4818
0.0222613
0.0220546
0.0217867
0.0221324
0.0220414
0.0214401
0.0221446
0.022127
0.0232242
0.0575465
0.0250242
0.0234973
7.1925
0.0220277
0.145823
0.0217172
0.0217958
0.0220146
5.51484
0.0218371
0.0546545
0.022987
0.0226091
0.021934
0.0217454
0.0217644
0.0223244
0.021849
0.0218144
0.0479875
0.273876
6.8493