/*--------------------------------*- C++ -*----------------------------------*\
| =========                 |                                                 |
| \\      /  F ield         | OpenFOAM: The Open Source CFD Toolbox           |
|  \\    /   O peration     | Version:  v2012                                 |
|   \\  /    A nd           | Website:  www.openfoam.com                      |
|    \\/     M anipulation  |                                                 |
\*---------------------------------------------------------------------------*/
FoamFile
{
    version     2.0;
    format      ascii;
    class       volVectorField;
    location    "950";
    object      U;
}
// * * * * * * * * * * * * * * * * * * * * * * * * * * * * * * * * * * * * * //

dimensions      [0 1 -1 0 0 0 0];


internalField   nonuniform List<vector> 
9793
(
(0.957143 0.0768619 -4.21301e-21)
(0.966712 -0.0577636 2.64284e-21)
(0.967237 0.0907168 8.26951e-21)
(1.0135 -0.000793536 0)
(0.528454 -0.0475696 0)
(1.01418 -0.0135252 0)
(1.00983 -0.000233582 -2.59939e-22)
(1.01265 -0.00109544 -2.29013e-21)
(1.02697 -0.00228233 3.12922e-22)
(0.533325 -0.0376417 9.85377e-21)
(1.00969 -0.101226 4.0882e-21)
(0.919254 -0.106669 0)
(1.01341 -0.000735475 0)
(1.01361 0.00217143 2.22157e-21)
(1.00286 -1.76539e-05 -1.96367e-21)
(1.01419 0.00259989 2.27723e-23)
(1.014 -0.00343186 2.16091e-21)
(1.01367 -0.00415374 -2.05761e-21)
(0.88969 0.266233 0)
(1.01393 0.00266626 -2.12716e-21)
(1.08065 -0.113141 0)
(1.02381 -0.00584052 2.89292e-22)
(1.05631 0.064591 1.3145e-21)
(1.01811 0.00237223 0)
(1.01771 0.00114212 2.68752e-21)
(1.01336 -0.00061075 0)
(1.01529 0.00372845 1.79959e-21)
(1.01512 -0.00160563 -2.13826e-21)
(0.978878 -0.0399167 0)
(1.02646 -0.00231636 0)
(0.989803 -0.0304774 8.51676e-21)
(1.05965 0.050929 -1.05861e-21)
(1.08314 -0.00152713 2.76887e-20)
(1.00766 4.97317e-05 0)
(0.967734 -0.0335302 -1.19516e-23)
(1.12779 -0.171235 -6.26756e-21)
(1.00792 2.79796e-05 0)
(1.0242 -0.00587398 0)
(1.01323 -0.0014944 0)
(1.01046 -3.81295e-05 0)
(0.988792 -0.0258135 -6.81259e-21)
(1.00481 -3.87964e-05 4.68066e-22)
(1.01204 -0.000432953 -1.96539e-21)
(1.00955 -0.000168269 1.95642e-21)
(1.01142 -0.000389915 1.42127e-21)
(1.01295 -0.000475239 2.40482e-22)
(0.972219 -0.0418657 1.35873e-23)
(1.0011 -0.0531411 1.25124e-21)
(0.928287 0.0614951 0)
(1.01344 -0.000866436 -5.48828e-22)
(0.961477 -0.0341846 0)
(0.989407 -0.0982671 5.98967e-21)
(1.01794 -0.0151867 2.32137e-21)
(1.02438 -0.00509721 1.39222e-21)
(0.849878 -0.0930682 5.19889e-21)
(0.984845 -0.225552 0)
(1.021 0.000263901 0)
(1.03961 -0.168144 2.0366e-20)
(0.822425 0.321457 1.55827e-20)
(1.01311 -0.00138999 2.99736e-21)
(1.00903 -4.96565e-05 0)
(1.02152 -0.0141742 5.60529e-22)
(0.81821 0.147457 2.14588e-22)
(1.01465 -0.000413592 0)
(0.544868 -0.237686 0)
(1.09741 0.0132442 8.41913e-21)
(0.843549 0.146365 0)
(0.885401 0.114738 1.68395e-21)
(0.922699 -0.0908069 0)
(1.00568 -0.094361 0)
(0.844459 -0.0770257 6.44836e-21)
(1.01366 0.000303575 4.26644e-23)
(1.01519 -0.00368261 -1.69057e-21)
(1.05877 0.00877273 0)
(0.953035 -0.0284009 0)
(0.832454 0.299931 -1.01908e-20)
(1.02129 -0.000166817 1.20093e-22)
(1.02148 0.00319969 -4.03386e-22)
(1.01822 0.00283222 -1.42555e-21)
(1.01649 -0.00133385 2.05053e-21)
(1.0927 0.0480596 0)
(1.01586 0.00379725 -1.38548e-21)
(0.924216 -0.0887857 4.39612e-21)
(1.03357 -0.0261111 1.22922e-21)
(0.994672 -0.0236537 3.80155e-22)
(1.01584 -0.046223 -1.46135e-21)
(1.01698 -0.00172982 3.99042e-21)
(1.02154 -0.000620111 0)
(1.02028 -0.0124029 0)
(1.01368 0.0041377 0)
(0.96949 -0.0203711 4.69016e-21)
(0.707593 -0.168321 -2.90039e-21)
(1.01482 0.0012776 2.5012e-21)
(1.07088 0.0288036 -8.98767e-22)
(1.02133 -0.0131274 0)
(1.03945 -0.0232658 0)
(1.00526 -0.206338 -1.78477e-22)
(0.935736 -0.0643476 -4.06935e-21)
(1.01452 0.00117246 0)
(1.01416 0.000348985 1.11245e-21)
(1.01411 0.000288425 -3.01093e-21)
(1.0116 0.000741805 0)
(1.01295 0.000358899 -1.26704e-21)
(1.01285 0.000295018 0)
(1.02114 0.00347022 3.8788e-22)
(0.994624 -0.0198932 0)
(1.02042 -0.0116164 7.97398e-22)
(1.00913 -9.36384e-05 0)
(1.01811 -0.0139045 -6.02488e-23)
(0.953102 -0.0588939 1.52194e-21)
(1.01273 0.000186679 0)
(1.01395 -0.133419 0)
(1.01955 0.000418147 0)
(1.03536 -0.29423 1.17915e-20)
(0.981855 -0.09346 0)
(1.02137 6.5321e-05 5.94535e-23)
(1.07555 -0.106765 2.73856e-20)
(0.953335 -0.0206409 -7.52306e-21)
(1.01659 0.00469124 0)
(1.07019 0.0167831 8.87677e-22)
(0.961313 -0.0692556 2.94835e-21)
(1.00645 8.39102e-05 9.22318e-23)
(1.01968 -0.00219614 6.97072e-24)
(1.01316 -0.014354 -1.54932e-22)
(1.02565 -0.00753529 -2.30039e-21)
(1.0642 -0.120519 0)
(1.05823 -0.0695501 0)
(1.02464 -0.0466422 1.71871e-22)
(1.01941 0.00329021 1.42402e-21)
(1.01615 -0.00326021 -1.46517e-23)
(1.01178 0.000177729 2.81027e-22)
(1.02167 -0.000401594 4.3637e-22)
(1.01621 -0.00338221 1.66605e-21)
(1.01172 -0.00276876 0)
(1.02603 -0.00179051 0)
(1.02173 -0.0010791 0)
(1.01394 -0.000306805 0)
(1.00975 -0.000151935 0)
(1.01924 0.000353813 0)
(1.01341 0.00042258 -4.09558e-23)
(1.01937 -0.0021353 2.03199e-22)
(1.01805 -7.343e-05 4.43117e-22)
(1.01216 -0.00047121 2.04912e-21)
(1.01433 -6.51806e-05 0)
(1.01331 0.00210285 -2.01657e-21)
(1.01253 0.00257783 2.09058e-21)
(1.04825 -0.0426044 1.48206e-23)
(1.01442 -3.25593e-05 1.95855e-21)
(1.01392 0.00113368 4.43886e-21)
(0.731932 -0.180042 1.78903e-21)
(0.7946 0.370664 0)
(1.01132 0.000147025 2.0635e-22)
(0.775928 0.376065 0)
(0.539715 0.0263476 -5.9151e-21)
(1.01371 0.00101942 -2.26281e-21)
(1.00954 0.000216251 -2.15204e-22)
(1.01208 0.000192466 -7.92989e-22)
(1.01768 -0.000544667 9.02033e-22)
(1.01426 0.000119083 0)
(1.01218 -0.000458389 1.2141e-21)
(1.01271 -0.00112151 0)
(1.01483 -0.0017224 -2.34729e-21)
(1.01553 0.00277127 1.73065e-21)
(0.947121 0.233525 -2.04947e-21)
(1.05487 -0.0206774 5.77678e-22)
(1.10143 -0.124002 0)
(1.01068 -0.0567669 1.33441e-21)
(1.01405 -0.00911333 3.50249e-22)
(1.01543 0.00339789 -9.00291e-22)
(1.01256 0.000119274 0)
(1.01377 -0.00250962 -1.40125e-21)
(0.795334 -0.00334101 -1.47521e-20)
(1.04943 -0.0287138 5.49764e-22)
(0.786029 -0.0624807 0)
(1.0262 -0.00711216 2.54846e-21)
(0.916003 0.246269 2.46758e-21)
(1.02188 -0.000856668 0)
(1.01739 0.00226002 0)
(1.01627 -0.00390266 1.56261e-21)
(1.01936 -0.0317422 0)
(1.0984 -0.4188 -5.89908e-20)
(1.03395 -0.010455 4.71926e-21)
(1.01433 0.000171275 0)
(1.0175 0.000492098 1.41322e-21)
(0.889907 0.313876 1.14482e-20)
(1.01505 -0.00344301 0)
(1.03463 -0.180259 -1.85952e-20)
(1.01606 -0.00384582 5.85825e-22)
(1.0192 -0.00268002 0)
(1.01514 0.00269969 -1.82631e-21)
(1.02668 -0.00720512 0)
(1.01705 -0.000215275 -1.72173e-23)
(0.935417 0.0752353 2.94578e-21)
(1.03064 -0.131784 0)
(0.860999 0.115904 -1.27406e-21)
(1.02109 -0.0305936 -5.55582e-21)
(0.893679 0.136905 1.63396e-20)
(1.0135 0.00133891 0)
(0.570438 0.115687 0)
(1.01327 0.000396495 7.70448e-22)
(1.0256 -0.00181983 0)
(1.02968 0.161779 0)
(0.991551 -0.249129 4.00707e-23)
(1.01629 -0.00306191 0)
(1.02205 -0.0013402 0)
(1.02052 0.00319043 0)
(1.10192 -0.150987 0)
(1.01371 0.000660754 0)
(0.99921 -0.0187047 0)
(1.02587 -0.0107827 -1.24191e-22)
(1.00438 -0.0283155 2.71585e-21)
(0.956119 0.0727048 0)
(0.90773 0.0584725 0)
(1.02473 -0.00537867 -1.57104e-21)
(0.854097 0.14523 3.91044e-21)
(1.01231 0.000210437 -1.23689e-21)
(1.0123 -0.00113885 1.56668e-21)
(0.904793 0.294307 -2.13329e-20)
(1.02016 0.00335729 0)
(0.736437 -0.0294426 -6.02204e-22)
(0.933712 0.0135018 -8.88006e-22)
(1.02033 -0.00147321 2.19135e-23)
(1.02606 -0.00765163 0)
(1.01695 -0.000155295 -7.33133e-24)
(1.03438 -0.035167 -1.40438e-21)
(0.982179 0.206003 0)
(1.01545 -0.0139312 0)
(1.01338 0.000881905 1.15953e-21)
(0.932031 0.00146831 0)
(1.00371 -0.0785685 8.19765e-21)
(1.01819 0.00255171 4.41478e-23)
(1.01781 0.00232242 8.92859e-23)
(1.03477 -0.0111031 0)
(1.01299 0.000324729 7.15515e-22)
(1.04381 -0.0829892 -2.61138e-20)
(0.750827 -0.000535199 0)
(1.01893 7.30241e-05 0)
(1.01397 -0.00234277 1.41861e-21)
(0.996675 -0.186638 1.57e-22)
(1.01289 0.00206336 1.32442e-21)
(0.999351 -0.015775 -3.8593e-22)
(1.01334 0.00119319 0)
(1.01405 -0.00186311 0)
(1.09251 0.0156031 0)
(1.01402 -0.00231369 0)
(1.0141 0.00111756 -1.2437e-21)
(1.01253 -0.00101118 2.14386e-21)
(1.01792 -0.00116893 2.55738e-21)
(1.01434 0.00123743 0)
(1.00866 5.01127e-05 0)
(1.02246 -0.00648969 0)
(1.02338 -0.0177456 8.62755e-23)
(0.982667 -0.0841766 -8.72642e-22)
(1.05206 -0.0766728 -1.39778e-20)
(1.01395 -0.00182188 0)
(1.02662 -0.00543303 0)
(1.01392 -0.00301371 0)
(1.02203 -0.0183096 -3.97e-21)
(1.00835 -0.00882554 4.66265e-21)
(1.01378 0.000359721 2.336e-21)
(0.934963 -0.203966 0)
(1.01402 -0.00245358 -1.29826e-21)
(0.975754 -0.0787799 9.01123e-22)
(1.0091 4.47083e-05 8.91104e-22)
(1.01215 -0.00994606 -3.63084e-22)
(1.01914 0.00296577 0)
(1.0189 0.00300353 0)
(1.00242 -0.0250844 2.1098e-21)
(1.04232 0.149831 0)
(1.01931 -0.0107693 -7.65413e-22)
(1.01383 0.000177915 -5.84031e-22)
(1.01435 0.00160918 2.60599e-21)
(1.02357 0.00214003 0)
(1.02078 -0.00127129 0)
(1.00103 -0.00122799 4.92311e-21)
(1.00765 -0.0252836 -3.72593e-21)
(1.01634 -0.00321305 -1.64216e-21)
(1.04146 -0.146647 -8.89594e-23)
(1.01651 -0.000336019 6.61782e-22)
(1.05764 -0.075177 1.5278e-20)
(1.01747 -0.00152032 -3.36329e-21)
(1.01834 0.00280007 -1.56961e-22)
(1.00764 -4.77119e-05 0)
(1.0106 -3.95445e-05 0)
(1.06235 -0.0672944 0)
(1.02026 -0.00160292 -4.47711e-23)
(1.02229 -0.00658862 6.74746e-22)
(1.01566 -0.0135722 1.48621e-21)
(1.01138 -0.000318823 1.00268e-21)
(1.0219 -0.00154967 1.00203e-21)
(1.01922 0.000147318 1.74003e-22)
(1.08536 -0.0705157 7.56943e-21)
(1.01746 -0.0118883 2.47012e-21)
(1.00794 -0.00012057 -3.31012e-21)
(1.01114 0.000135573 8.94615e-22)
(1.01133 -0.00205309 0)
(1.02448 -0.00784541 -1.21618e-21)
(1.01395 -0.0136635 -1.3481e-21)
(1.0162 -0.000594623 0)
(0.929451 0.27624 6.37317e-20)
(1.01355 0.000989954 1.26866e-21)
(0.929478 0.290109 9.17717e-21)
(0.975319 -0.209503 3.41412e-21)
(1.0076 3.08337e-05 5.48463e-22)
(1.00911 -0.000138397 0)
(1.01412 -0.000129116 1.26285e-21)
(1.02395 0.00402969 1.9444e-21)
(1.019 -0.00679175 -6.18499e-23)
(1.017 -0.00223476 0)
(0.939828 0.288898 0)
(1.01607 -0.000313133 0)
(1.01401 -3.76677e-05 4.30386e-21)
(1.01885 -0.00575105 -5.43674e-23)
(1.02233 -0.00743248 5.40834e-23)
(1.02211 -0.00540118 1.39069e-22)
(1.01354 0.00324381 -7.56974e-22)
(1.02713 -0.0364108 0)
(1.01463 -0.00133747 0)
(1.02139 -0.000326244 0)
(1.0262 -0.0114399 6.97868e-22)
(1.01413 -0.00153644 -1.53109e-21)
(1.05806 0.00304743 0)
(0.856253 0.203105 3.15127e-21)
(1.05911 -0.0017035 1.48504e-23)
(1.01963 0.00324137 -1.85944e-22)
(1.0792 -0.392922 1.56129e-21)
(1.02398 -0.00773731 7.05968e-22)
(0.7996 0.300846 2.19998e-20)
(0.943097 -0.015446 4.48823e-21)
(1.01513 0.00213015 -9.2289e-22)
(1.04149 -0.0159083 0)
(0.943768 -0.00610993 -4.83719e-21)
(1.01198 0.000289193 3.41339e-21)
(1.00283 -0.0150113 3.5229e-22)
(0.996659 -0.111213 0)
(1.01237 -0.000847469 0)
(1.01193 -0.00042814 2.13916e-21)
(1.02514 -0.00155177 9.0895e-22)
(1.01014 6.79732e-05 0)
(1.0156 -0.00176838 1.56783e-21)
(0.930863 0.109795 -9.61961e-21)
(1.01603 -0.00401835 -2.29968e-21)
(1.014 -0.00156331 0)
(0.932673 0.239589 -2.14297e-20)
(1.01246 0.00152251 -1.36383e-21)
(1.01455 0.00289199 0)
(1.01957 0.00308774 1.86875e-22)
(1.02361 -0.00686641 -6.0201e-23)
(1.01248 -0.000929479 0)
(0.895557 0.118498 0)
(1.02507 -0.0077863 -1.0608e-21)
(1.02085 -0.0031474 0)
(1.02142 -0.00698075 0)
(1.01192 0.00146289 0)
(0.789914 0.0785891 1.1597e-20)
(1.02432 -0.00475573 -1.26108e-21)
(1.04863 -0.0185 1.47454e-21)
(1.01766 0.00238943 -5.08519e-23)
(1.00396 -0.0519211 -4.68134e-21)
(0.820372 -0.0759554 -5.13169e-21)
(1.02019 -0.179267 0)
(1.00095 -0.0538997 2.73049e-22)
(1.02362 -0.00686967 1.04014e-22)
(1.01084 -0.00386175 -1.73412e-21)
(0.84141 0.171017 4.48972e-21)
(1.00875 -5.51805e-05 0)
(0.949458 -0.197131 0)
(1.01401 0.00289684 -2.98734e-21)
(1.01285 0.000331499 -3.61533e-22)
(0.990472 -0.223654 0)
(1.00312 -0.0127582 0)
(0.833258 0.218318 0)
(1.0209 -0.00304816 0)
(1.04166 -0.0886422 -6.96952e-22)
(1.15234 -0.161265 5.33651e-21)
(1.01196 0.00477401 -3.11513e-22)
(1.01493 -0.00310094 -1.2391e-21)
(1.07932 -0.0490581 -3.01793e-20)
(1.02964 -0.0289582 -6.61759e-21)
(1.05342 -0.029144 -6.3802e-22)
(1.02596 -0.00495555 7.01162e-22)
(1.02452 -0.00422385 -1.53008e-21)
(0.935589 0.320751 0)
(1.01611 -0.000535375 5.66e-22)
(1.02361 -0.00749464 0)
(1.00813 6.69369e-05 -1.31766e-21)
(1.00969 -5.58888e-05 0)
(1.01476 0.00349675 -1.92452e-21)
(1.02467 -0.00464812 1.5029e-21)
(1.02521 -0.00554278 -1.49801e-21)
(0.783406 0.0772521 2.52153e-21)
(1.02646 -0.00627667 0)
(0.755698 -0.387828 8.1436e-21)
(1.07875 -0.0415919 -3.17399e-21)
(0.861267 0.176617 0)
(1.01017 -0.0811392 -1.85467e-21)
(1.05417 -0.0120065 -6.64525e-24)
(1.01054 2.34717e-05 0)
(1.02505 -0.00131268 -2.54592e-22)
(0.736452 0.048368 0)
(1.07304 -0.0603215 -2.26553e-21)
(1.0133 0.000734793 0)
(1.03135 -0.00531027 0)
(1.05693 0.0105392 -2.56507e-20)
(1.01453 0.00165539 -1.69053e-21)
(1.06775 -0.310738 0)
(1.01394 -0.00248524 -1.65934e-21)
(1.02468 -0.00530114 -1.20634e-21)
(1.01446 0.00156326 2.91829e-21)
(0.996741 -0.0211285 -2.7797e-22)
(1.01584 -0.00392984 6.89418e-22)
(1.0283 -0.0306748 4.80641e-21)
(1.06027 -0.142746 8.76618e-23)
(1.01373 0.000413683 0)
(1.04314 0.0867448 -2.0459e-23)
(1.02459 -0.0078106 0)
(1.02482 -0.00808133 2.7775e-22)
(1.0257 -0.00603436 0)
(1.01381 0.00225451 3.3756e-21)
(1.01998 -0.0110549 -2.60378e-22)
(1.01229 0.00172207 2.90816e-23)
(1.09737 0.101137 0)
(1.01652 -0.000354378 -7.48205e-22)
(1.0222 -0.00556977 -3.21783e-23)
(0.989046 -0.1073 0)
(1.02468 -0.00365751 -2.00638e-22)
(1.00765 -0.00732959 -2.45122e-21)
(1.02422 -0.00801688 1.97335e-21)
(1.01551 0.00254553 -1.52616e-21)
(1.0159 -0.0320167 0)
(1.01184 -0.000363959 0)
(1.02203 -0.0057461 1.46367e-22)
(1.01453 0.00137037 -3.09506e-21)
(0.942312 0.143514 0)
(1.01307 0.00268905 -1.23205e-22)
(0.927473 0.139378 -8.57539e-22)
(1.01246 -0.000343482 0)
(0.967894 0.101108 -1.50234e-21)
(1.0098 -0.00011837 -1.11604e-21)
(1.01237 0.000498811 -3.01096e-21)
(1.00783 -8.48689e-05 -1.31815e-22)
(1.02601 -0.00614276 -3.80865e-22)
(0.857264 0.299149 -1.17282e-20)
(1.01386 0.00154704 -2.93808e-21)
(0.813844 -0.0545482 -1.91267e-21)
(1.01508 0.00290023 6.67934e-22)
(1.01366 -0.00240227 -1.92804e-21)
(1.02373 -0.00780233 1.78279e-23)
(1.06405 -0.0701659 -2.54214e-21)
(0.985358 -0.0337107 -1.71885e-22)
(0.848173 -0.126235 -5.29853e-22)
(0.966328 0.0802601 0)
(1.0164 -0.0152586 0)
(1.01733 -0.0011454 -1.81312e-23)
(1.05814 -0.0247973 -1.54258e-21)
(1.01397 -0.0297226 -4.19177e-21)
(0.999808 -0.0182705 0)
(0.95029 -0.0843662 -3.19341e-21)
(0.838905 -0.115617 1.0717e-20)
(1.0163 -0.000311169 -5.52371e-22)
(1.02245 -0.00501193 -1.44393e-21)
(1.03435 -0.0888104 -2.5384e-20)
(1.01985 -0.00246751 0)
(1.01463 0.00445276 0)
(1.01937 -0.00253682 0)
(1.01302 0.000504623 1.14357e-21)
(1.00745 5.17402e-05 -1.01007e-21)
(0.977598 -0.294396 -1.07205e-20)
(1.02575 -0.0298918 -1.15373e-20)
(0.9235 0.29842 0)
(1.01312 0.000601274 0)
(1.02698 0.00488568 -1.01812e-21)
(1.01734 0.00213395 5.54484e-24)
(1.00876 3.99112e-05 0)
(1.0101 8.75066e-05 7.64127e-22)
(1.01506 0.0038159 1.46803e-21)
(1.05605 -0.0288609 1.40999e-21)
(1.01225 -0.000627444 0)
(1.02136 -0.00398811 1.9815e-21)
(1.01502 0.00164984 -2.03382e-22)
(1.0152 -0.000552571 -5.80244e-22)
(1.00577 -0.00528709 0)
(0.975384 -0.0644953 -3.97813e-21)
(1.01131 -0.000329451 0)
(1.01717 -0.00109766 0)
(0.984586 -0.161209 -4.78938e-20)
(1.00583 -0.0122741 0)
(1.02545 -0.00796685 0)
(0.794759 0.167731 -4.10972e-21)
(0.955132 0.0961096 0)
(1.00932 8.28356e-05 2.62394e-21)
(1.00756 0.000118013 0)
(1.0234 -0.00740868 0)
(1.00602 -0.00708397 5.46818e-21)
(1.02216 -0.00589136 1.17947e-22)
(1.01168 -0.000318386 0)
(1.01493 -0.000436911 -2.41664e-21)
(1.01329 0.00142107 0)
(1.01376 -0.00294005 1.66327e-21)
(1.01399 -0.00189439 3.80969e-22)
(1.04083 -0.044192 3.79644e-22)
(0.966871 -0.0827385 0)
(1.01194 0.000173776 -2.78784e-21)
(0.872408 0.318635 2.56391e-20)
(1.01379 0.0165597 7.11676e-21)
(1.01431 0.000784213 1.25617e-21)
(1.01846 -0.011871 -4.61508e-22)
(1.01753 0.00335701 0)
(1.0058 -0.120166 0)
(1.01749 -0.00206484 -1.98377e-21)
(0.921792 -0.208336 -1.98065e-21)
(1.01516 0.00227828 1.80411e-21)
(1.01401 -0.00202465 -3.01906e-21)
(0.996983 -0.0841155 0)
(1.0189 -0.00259391 -2.20391e-23)
(1.02011 -0.0518249 2.89902e-21)
(0.974489 -0.252636 -2.65472e-20)
(1.02135 0.00135679 1.56204e-21)
(1.01435 0.000685074 0)
(0.779686 -0.410489 1.64992e-20)
(1.00607 -0.0105298 1.63599e-21)
(1.01315 -0.000151066 1.28464e-21)
(1.01429 -0.00113124 1.91308e-21)
(1.07051 -0.101232 2.25042e-20)
(1.0138 -0.00163246 -1.87509e-21)
(1.013 -0.000174239 6.32651e-22)
(1.01641 -0.000531235 6.28535e-22)
(1.01371 -0.00159869 8.1741e-22)
(1.09742 -0.00938046 -9.72358e-21)
(1.05059 -0.0822912 -1.62971e-20)
(1.01616 0.0144925 3.16758e-21)
(1.01722 -0.0129152 -2.07216e-21)
(1.01436 -0.00120716 0)
(1.01437 -0.00147182 0)
(1.0235 -0.00359004 -2.1925e-21)
(1.01267 0.000231655 -4.71383e-22)
(1.01641 -0.000469387 -1.24025e-21)
(1.00649 -0.0963558 3.33802e-22)
(1.01265 -0.19162 2.89857e-20)
(1.0144 0.00169043 -1.56862e-21)
(1.01367 -0.00755603 0)
(0.700674 0.0271725 0)
(1.01782 -0.0061225 1.15928e-21)
(0.993483 -0.00916271 0)
(1.05199 -0.0161711 8.41699e-22)
(1.01307 0.000311694 0)
(1.00571 -0.106773 0)
(0.923755 0.317149 0)
(1.02069 -0.00145104 0)
(1.1177 -0.214033 4.20491e-20)
(1.01827 0.00290123 1.86846e-22)
(1.02371 -0.258858 -2.74047e-21)
(1.01692 -0.0154244 0)
(0.988657 0.267806 -2.20063e-20)
(1.01508 -0.0033352 4.9954e-22)
(1.01404 -0.00180804 -1.86076e-22)
(1.01477 -0.00343124 -2.67359e-21)
(0.953931 0.0452156 -6.19077e-21)
(1.01101 -0.0047706 4.32989e-21)
(0.800259 0.200206 6.21977e-21)
(1.08769 0.0722141 -1.42766e-21)
(0.598682 -0.25972 0)
(1.01758 -0.054061 -1.02558e-20)
(0.900457 -0.204246 -3.24496e-21)
(0.999129 -0.014363 -3.11808e-22)
(1.00456 -1.85022e-05 1.24859e-21)
(1.03329 -0.0468056 -1.38113e-20)
(1.01313 -0.00659945 -2.28771e-21)
(0.901677 -0.15578 2.10721e-21)
(1.02339 -0.0051235 1.41004e-21)
(0.975956 0.119505 2.37903e-22)
(1.01509 0.00119299 3.51e-22)
(0.951932 -0.000161447 7.84425e-22)
(1.00852 -4.41732e-05 0)
(1.03399 -0.00604063 2.49482e-22)
(1.01423 -0.00152171 1.89769e-21)
(1.09679 -0.235552 1.24703e-20)
(1.01518 0.00136212 -4.05061e-22)
(1.01115 0.000123277 1.5661e-21)
(1.03104 -0.0112275 -4.77597e-21)
(1.02423 -0.0113524 4.42078e-21)
(1.02414 -0.0317067 4.11092e-21)
(1.0154 -0.00381105 2.14196e-21)
(1.01806 -0.00234423 4.53765e-22)
(1.01784 -0.00580941 0)
(1.01754 -0.00557116 0)
(0.870519 0.264784 0)
(1.01355 -0.00101553 1.57796e-21)
(0.844983 -0.149282 -1.41915e-20)
(1.09785 -0.281968 2.21209e-20)
(1.01355 -0.000955413 6.05003e-22)
(1.00889 -9.59568e-05 3.74274e-21)
(1.0271 0.00665763 3.88845e-21)
(1.03089 -0.00570434 3.14033e-21)
(1.01922 -0.00228452 3.37978e-24)
(1.02229 -0.00696535 -6.31557e-22)
(1.01059 0.00409479 2.41069e-22)
(1.01752 -0.0168356 1.27959e-21)
(1.0358 -0.00919842 5.20022e-21)
(1.02479 -0.0118578 -4.7068e-21)
(1.01243 -0.000150563 -2.4272e-21)
(1.01759 0.00433365 0)
(1.02354 -0.00690529 2.42088e-23)
(1.02058 -0.0170841 -2.77514e-21)
(1.02196 -0.00737135 0)
(1.02358 -0.00665448 0)
(1.03519 -0.226251 1.6479e-20)
(1.01887 -0.00526056 -2.20822e-22)
(1.05214 0.134551 0)
(1.03334 -0.02745 4.73457e-21)
(1.00966 -0.00020567 3.34124e-22)
(1.01833 -0.00241727 0)
(1.01242 -0.000584559 1.36006e-21)
(1.00944 -0.000671262 0)
(1.00863 -0.00148596 1.80715e-21)
(1.01401 -0.00213451 0)
(1.01579 0.00340396 2.91979e-21)
(1.01746 0.00195539 0)
(1.01446 -0.00142135 0)
(1.01631 0.00340188 -2.76378e-21)
(1.0158 -0.00113811 3.29618e-22)
(1.02688 -0.00686004 9.76259e-22)
(1.01369 0.000561707 3.29882e-22)
(1.03345 -0.00661459 0)
(1.00727 -7.10388e-06 -1.12437e-21)
(1.02486 -0.00403008 0)
(1.02646 -0.00750924 8.10706e-22)
(1.03628 -0.00990179 0)
(1.0313 -0.0499545 8.28264e-21)
(1.00745 5.78906e-05 0)
(1.01389 -0.00201575 -1.38691e-21)
(1.01848 -0.00228954 0)
(1.01266 -9.70639e-05 -3.15667e-21)
(1.01547 0.000941796 1.82632e-21)
(1.01104 0.000233361 7.66712e-22)
(1.01563 0.000791 -1.10034e-21)
(1.01389 -0.0015494 0)
(1.01904 -0.00519002 8.01431e-22)
(1.01523 0.00129658 3.99912e-22)
(0.997283 -0.0323678 1.47306e-21)
(1.01039 1.72254e-05 0)
(1.00785 -1.07704e-05 1.60227e-21)
(1.02003 -0.00208065 1.97135e-22)
(0.995757 0.105623 9.45562e-22)
(1.01419 -0.00163018 1.8984e-23)
(1.01461 0.00156975 2.09103e-21)
(1.02002 -0.0997528 5.594e-21)
(1.01798 0.00286886 -2.81341e-22)
(1.01226 -0.00446515 -1.26146e-21)
(1.09468 -0.249008 2.56608e-20)
(1.0171 0.00156691 3.52542e-21)
(1.01015 -0.000243991 1.89074e-21)
(1.01052 0.000126226 0)
(1.05127 -0.166218 0)
(1.01243 -0.000672518 0)
(1.03139 -0.0950695 2.73769e-20)
(0.572598 -0.242278 0)
(0.935579 -0.290272 1.59581e-20)
(1.08526 0.0313511 3.66024e-21)
(1.01269 -0.00461495 -2.26677e-21)
(1.02034 -0.00241035 2.19765e-23)
(0.885672 -0.105182 0)
(1.01096 0.000171559 1.68401e-21)
(1.01464 0.00145856 1.59337e-21)
(1.05424 -0.0204419 6.28752e-24)
(0.960533 0.117512 0)
(0.690675 -0.0239382 0)
(1.01876 -0.00236024 -1.00046e-23)
(1.06935 -0.109576 -4.78414e-20)
(1.02034 -0.00228771 -7.35633e-23)
(1.01976 -0.0020424 -1.67287e-22)
(1.0043 -0.311513 0)
(1.01592 -0.00111019 -3.0813e-22)
(0.978725 -0.0533558 -1.24964e-23)
(1.02206 -0.00109391 -2.08526e-21)
(0.960356 -0.0756876 3.22223e-21)
(1.01382 -0.00190783 2.78127e-21)
(1.02144 -0.00907694 1.22209e-21)
(1.02343 -0.00687057 0)
(1.1151 -0.229038 -6.53372e-20)
(0.796095 -0.244181 0)
(1.01386 -0.0023176 1.54866e-21)
(1.02131 -0.000348174 2.47109e-21)
(1.04474 -0.0349752 -8.48744e-21)
(1.01379 -0.00155806 0)
(1.00796 -0.0102011 -6.75804e-21)
(1.02351 -0.0940025 -1.21729e-20)
(0.998679 -0.348213 -4.71712e-21)
(1.01476 -0.0029919 -1.02341e-21)
(0.99172 -0.00330843 -1.38304e-21)
(1.01104 -0.000630328 0)
(0.957055 -0.246028 1.20308e-21)
(0.994598 0.000223773 1.27254e-21)
(1.05288 -0.120731 -9.94724e-21)
(0.946525 0.110885 -2.47441e-22)
(1.01719 -0.000148074 2.66743e-21)
(1.01359 -0.0293586 4.02586e-21)
(0.906985 0.307849 -9.33944e-21)
(1.01421 -0.00173937 1.06137e-21)
(1.01569 -0.00131669 0)
(1.00734 -3.48495e-05 -2.06754e-21)
(1.01956 0.000679875 7.41842e-22)
(1.01494 0.0013453 0)
(0.970729 -0.264589 1.03369e-20)
(1.01463 0.00134256 0)
(0.834433 -0.0891496 5.18346e-21)
(1.04005 -0.0149348 6.39153e-23)
(1.04176 -0.0517848 0)
(0.997336 -0.0924118 -5.91979e-21)
(1.02392 -0.00372884 1.20289e-21)
(0.867629 -0.123594 9.79339e-22)
(0.842079 -0.216108 5.70238e-21)
(1.02534 -0.00707305 2.47241e-21)
(0.959543 0.306863 0)
(1.0154 -0.027552 -1.6948e-21)
(1.0621 -0.135351 0)
(1.01487 0.00139546 0)
(1.0178 0.00277152 -4.70429e-23)
(0.885297 -0.192795 0)
(1.01631 -0.00626095 1.69607e-21)
(0.792815 -0.261636 0)
(1.01223 -0.00046362 -1.5719e-21)
(0.927678 0.164722 2.44668e-21)
(1.01312 -0.000336691 1.39991e-21)
(0.994959 -0.0602309 -1.23409e-21)
(0.875351 -0.163022 0)
(1.0172 -0.000606169 -1.50675e-21)
(0.87086 -0.49653 -3.12963e-20)
(1.01644 -0.000297506 -3.44114e-22)
(1.03172 -0.0119098 1.6749e-22)
(1.00915 -0.0523326 1.35397e-20)
(1.01483 -0.37495 -2.08822e-20)
(1.03089 -0.343108 4.9113e-21)
(1.01519 0.00120449 0)
(1.01321 -0.000383931 -3.3689e-21)
(1.01487 0.00168474 1.86555e-21)
(0.950982 -0.27659 9.47989e-21)
(0.976935 0.136455 -4.87972e-20)
(1.01376 -0.00030704 1.38314e-21)
(1.01555 -0.0204551 2.823e-21)
(0.991859 -0.0142129 6.88463e-22)
(1.0149 0.00153723 -4.05039e-22)
(1.01377 -0.0018104 1.16377e-21)
(1.01166 -0.00344464 0)
(0.985724 -0.0592727 -2.09595e-22)
(1.01327 0.0107584 0)
(1.0164 -0.00695835 0)
(1.01063 5.34136e-05 0)
(1.0129 -0.00121917 0)
(1.08013 0.0512175 -4.9844e-21)
(0.720406 0.00225258 0)
(1.01275 0.0319456 -4.67916e-21)
(1.01282 -0.00010917 6.39623e-22)
(1.01282 -0.000618446 0)
(1.0115 0.103879 -6.33205e-23)
(1.01582 -0.00128754 -6.77253e-22)
(0.964621 0.286987 1.23573e-20)
(0.983489 -0.0453139 2.05529e-21)
(0.841063 -0.0667726 8.2486e-21)
(0.935268 -0.0624539 -1.013e-21)
(0.927944 0.14028 -1.68828e-22)
(1.0133 -0.00145377 0)
(1.0242 -0.00353469 -1.35698e-21)
(1.02838 -0.0175007 1.02461e-20)
(1.03063 -0.00978036 -4.04084e-21)
(1.01938 -0.0175942 0)
(1.01608 -0.000768458 -1.13586e-21)
(1.06166 -0.111187 -2.19902e-20)
(0.888537 -0.130288 0)
(1.01281 -2.4818e-05 1.92244e-21)
(0.82194 -0.196342 0)
(1.01281 -0.00113512 6.23556e-23)
(0.901639 -0.0567017 0)
(1.0279 -0.00385395 1.83264e-21)
(0.898488 -0.0534648 -1.61308e-21)
(1.02996 -0.00786273 0)
(1.0247 -0.00358776 2.85379e-21)
(1.01464 -0.00324278 -1.13955e-21)
(1.01304 0.00163141 0)
(1.0036 0.0127412 2.78941e-21)
(0.896673 -0.250177 0)
(0.894319 0.299852 6.02508e-21)
(1.01874 -0.00653148 1.30461e-21)
(0.994878 -0.012576 -3.35307e-22)
(1.01226 0.00031444 0)
(1.0237 -0.00646011 -2.47037e-22)
(1.02073 -0.00897574 1.09672e-21)
(1.05665 -0.37554 0)
(1.0092 -0.000185892 -8.40944e-22)
(1.05262 -0.136844 2.38098e-20)
(1.0132 -0.00139992 0)
(1.04675 -0.0369112 0)
(1.01396 -0.00278337 0)
(1.01363 0.000499059 0)
(1.00815 2.32485e-05 1.85336e-21)
(1.01287 -0.000641111 0)
(0.659357 -0.196071 4.5718e-22)
(1.01559 -0.00150444 0)
(1.02289 -0.00749205 -4.32025e-22)
(1.00809 -3.03543e-05 -2.10424e-21)
(1.00923 0.000254751 -7.34351e-22)
(1.01506 0.00123674 -3.78079e-22)
(0.962794 0.0112787 -1.3599e-21)
(1.00912 -2.17941e-05 -1.86388e-21)
(1.03518 -0.00715909 -6.27753e-22)
(1.01344 -0.00150944 7.43869e-22)
(1.01388 -0.00194436 -1.46868e-22)
(0.91164 0.231409 0)
(1.01432 -0.00155443 1.30085e-21)
(1.05095 -0.110245 -6.78164e-23)
(1.0129 -1.27558e-05 -2.67361e-21)
(0.994776 0.0056544 0)
(1.01065 5.6016e-05 1.19196e-21)
(0.99518 -0.0523784 4.51291e-21)
(1.01028 0.000165567 8.53993e-22)
(0.934085 -0.116631 0)
(1.02127 -0.00667852 4.01225e-23)
(1.01656 -0.00664609 -1.57111e-21)
(1.01268 -0.000664721 0)
(0.915161 0.200904 -1.19041e-20)
(0.900756 0.212925 0)
(0.894829 -0.0772632 -6.88543e-22)
(0.863892 -0.220077 0)
(1.02824 0.114072 0)
(1.01593 -0.00609379 1.36068e-21)
(1.02784 -0.0162601 -4.95839e-21)
(0.96711 0.0593137 6.82337e-21)
(1.01568 0.00112397 -1.46688e-21)
(0.888785 -0.162721 -2.20433e-21)
(0.921055 -0.170143 -5.20422e-21)
(0.965911 0.0207243 -5.92582e-21)
(0.887917 -0.0757089 0)
(1.02327 -0.00692849 1.13217e-23)
(0.919791 0.247654 -9.27917e-21)
(1.0041 -0.00248688 2.23218e-21)
(0.874687 0.159785 4.7665e-21)
(0.95283 0.001195 -5.71918e-21)
(1.02321 -0.0076719 0)
(1.02345 -0.0054018 -2.83543e-22)
(0.912586 0.246889 0)
(0.891456 0.32944 -4.23692e-20)
(1.0123 -0.000173853 0)
(1.02637 -0.00619493 -2.79591e-23)
(1.01609 -0.000836487 -6.746e-22)
(1.01791 -0.00561161 0)
(1.05159 -0.0583575 0)
(1.01109 0.0001428 7.08571e-22)
(1.01536 0.00106334 -3.23399e-21)
(1.0313 -0.0103824 8.81682e-21)
(0.990899 0.0149652 0)
(1.01236 -0.0551354 1.27511e-21)
(1.02038 -0.0145894 1.65083e-21)
(0.958024 -0.261649 -7.10287e-21)
(1.01275 -0.00067956 -2.20288e-21)
(1.01579 0.000753593 -3.81689e-22)
(0.944687 -0.0100704 0)
(1.16362 -0.0206686 -2.19383e-20)
(1.0594 -0.0598033 0)
(1.01499 -0.000267245 1.20023e-24)
(1.00939 0.0237489 -2.45955e-21)
(1.01339 -0.000436736 0)
(1.01562 0.00106332 -1.47006e-21)
(1.05973 -0.135294 -6.46325e-21)
(1.01527 0.0011669 1.55213e-21)
(1.02343 -0.00711914 -1.72901e-22)
(0.916781 0.25216 -5.14794e-22)
(0.920424 0.236102 0)
(1.01765 0.000796385 0)
(0.863627 -0.115374 5.08221e-23)
(0.835867 -0.110388 5.71208e-22)
(1.01375 -0.106115 0)
(0.946339 -0.0707948 2.79005e-21)
(1.03211 -0.377025 4.77374e-20)
(1.01242 -0.00036443 -3.11718e-21)
(0.899057 0.0939696 -5.17654e-21)
(1.02176 -0.00707633 0)
(1.01306 -0.00134365 0)
(1.0198 -0.0042027 6.0857e-23)
(1.00887 -3.14519e-05 2.14437e-21)
(1.01197 0.000245527 -1.71907e-21)
(0.899276 -0.432056 3.15444e-20)
(1.01845 -0.00219711 0)
(1.02938 -0.152776 0)
(1.01398 0.000736014 0)
(1.02789 0.0291521 -3.45483e-21)
(1.02248 -0.00720416 -5.52489e-23)
(1.05492 -0.0613318 0)
(1.02357 -0.00066976 0)
(1.01213 -0.001555 0)
(0.985253 -0.0499954 -1.92591e-21)
(1.01435 0.000100473 -1.67908e-21)
(1.01569 0.000916016 0)
(0.924913 -0.0613146 1.71455e-21)
(1.00815 0.00176655 3.81778e-22)
(1.00878 -0.0279453 3.57714e-21)
(1.01777 -0.00154867 -2.82028e-21)
(1.01424 0.001664 4.5162e-22)
(0.945072 0.199098 -1.16643e-21)
(1.12063 -0.284402 0)
(1.00991 0.00299862 1.94123e-21)
(1.01747 0.00210026 -5.67363e-24)
(1.01718 0.00186594 4.6473e-23)
(1.01708 0.00386444 1.42867e-21)
(1.02002 0.00240699 -1.43132e-21)
(0.869491 0.242848 0)
(0.931684 -0.0719952 0)
(0.947273 -0.0892239 -2.56051e-21)
(0.997783 -0.0250578 -2.04349e-21)
(0.921225 -0.190667 6.4228e-21)
(1.01251 -0.00240851 -2.42879e-21)
(1.03848 -0.0125041 4.06798e-22)
(1.01599 -0.0224361 -2.9649e-21)
(1.02606 -0.0178995 0)
(0.878929 -0.0607625 6.7294e-21)
(1.01482 -0.00339741 2.32118e-21)
(1.0139 -0.0018715 2.83558e-21)
(1.11894 -0.111905 3.05119e-21)
(0.996127 -0.0359939 0)
(1.01816 -0.40905 -3.15873e-20)
(1.01444 -0.0027597 2.60276e-21)
(0.937674 -0.280725 -9.0249e-21)
(0.865661 -0.0224104 1.15373e-20)
(1.01097 -0.000138902 1.16056e-21)
(1.042 -0.0732004 4.44935e-22)
(1.03997 -0.0182187 1.86044e-20)
(0.849168 0.240234 0)
(1.01069 -0.000203299 -1.18704e-21)
(1.03208 -0.0256862 0)
(0.886164 0.078328 3.19474e-23)
(1.00903 0.00286511 0)
(1.01456 -0.00295563 -2.54832e-21)
(1.00496 0.0208705 -2.72509e-21)
(1.02119 -0.00719799 -5.17573e-22)
(1.01255 -0.000141082 2.3785e-21)
(1.01379 -0.00191136 0)
(0.881737 -0.232123 -1.49825e-20)
(1.02111 -0.00778688 -1.15474e-21)
(1.04812 -0.0286194 -8.75871e-21)
(0.934315 -0.00787848 2.52901e-21)
(1.03879 -0.068874 4.6536e-22)
(1.03079 -0.00673507 0)
(0.995083 -0.00797495 -1.64968e-21)
(1.05207 -0.0193884 0)
(1.075 0.105719 1.95815e-21)
(1.04759 -0.026088 0)
(1.0158 0.000941071 0)
(1.02295 -0.00467596 -6.8825e-22)
(1.03075 -0.00897793 -4.58077e-22)
(1.02353 0.000962308 1.37111e-21)
(1.00971 5.31489e-05 0)
(1.00933 0.120268 1.1649e-21)
(0.931828 0.0939115 -8.82427e-22)
(1.04145 -0.0177737 9.68726e-24)
(0.887407 -0.0386749 0)
(0.989982 0.00870929 -2.89588e-21)
(1.08812 -0.0134189 -1.45475e-21)
(1.02304 -0.00495907 -8.85878e-22)
(0.94511 0.13461 3.38739e-22)
(1.0179 -0.00245367 3.45646e-23)