/*--------------------------------*- C++ -*----------------------------------*\
| =========                 |                                                 |
| \\      /  F ield         | OpenFOAM: The Open Source CFD Toolbox           |
|  \\    /   O peration     | Version:  v2012                                 |
|   \\  /    A nd           | Website:  www.openfoam.com                      |
|    \\/     M anipulation  |                                                 |
\*---------------------------------------------------------------------------*/
FoamFile
{
    version     2.0;
    format      ascii;
    class       volVectorField;
    location    "750";
    object      ddt0(U);
}
// * * * * * * * * * * * * * * * * * * * * * * * * * * * * * * * * * * * * * //

dimensions      [0 1 -2 0 0 0 0];


internalField   nonuniform List<vector> 
9793
(
(0.000133762 -2.67311e-05 -2.78296e-18)
(0.445317 -0.0181722 1.59868e-17)
(-0.00287086 -0.000764755 -4.17814e-18)
(-0.0248576 -0.0227593 4.15088e-17)
(-0.00570631 -0.000194393 3.40272e-18)
(0.062788 -0.0572507 1.41489e-17)
(-0.0216989 0.00357339 3.25389e-17)
(0.0649626 -0.203307 8.47127e-17)
(-0.000231309 -0.00108912 -5.38158e-19)
(0.26197 -0.0222198 4.87492e-17)
(-0.00138193 0.000365402 1.89976e-18)
(-0.00147532 0.000405962 3.5373e-19)
(0.00183678 -0.000567619 -2.09582e-18)
(-0.468606 -0.486839 -3.67084e-17)
(-0.00800953 -0.000396151 -2.18352e-20)
(-0.00766975 0.00423856 4.56895e-18)
(0.00673346 -0.0170733 2.00636e-17)
(0.00549453 -0.000855233 9.15953e-18)
(-0.232291 -0.0594881 3.50589e-17)
(-0.00824211 0.000308899 1.57828e-20)
(-0.00190774 0.000458581 -2.12605e-19)
(-2.95694e-06 -7.10542e-05 3.58288e-18)
(-0.00809305 0.0180726 1.86974e-17)
(0.0805985 -0.188647 2.18295e-16)
(-0.459805 -0.458079 5.89945e-18)
(-0.000496026 -0.000783877 2.06212e-18)
(-0.000195765 -0.000552461 3.70532e-18)
(0.00158167 -7.97204e-05 7.8076e-19)
(-0.00793941 0.000329459 -1.6831e-19)
(-0.0159068 -0.0226302 2.14139e-17)
(0.225604 0.00268191 1.057e-17)
(0.0595375 -0.125632 -4.01385e-17)
(-0.00681893 0.000310679 7.63896e-19)
(-0.00185339 -0.000723589 2.50928e-18)
(-0.00775755 -1.48242e-05 3.24077e-18)
(0.00176943 7.59892e-05 -1.15116e-18)
(7.08575e-05 0.00300643 5.2039e-18)
(-0.00146231 -0.000415147 7.94237e-18)
(0.131834 -0.268331 8.32507e-17)
(-3.31104e-05 -0.00498273 -3.93573e-18)
(-0.0130368 -0.0204922 -1.0713e-18)
(0.225101 -0.10146 -3.35938e-17)
(-0.284964 -0.251927 -6.07414e-17)
(-0.00148372 -7.39039e-05 -5.81221e-19)
(0.00113134 -0.000700635 6.61815e-21)
(0.00237023 0.000158824 1.33339e-18)
(-0.0403241 -0.0819651 6.86162e-17)
(-0.00161895 -0.000133776 -6.75656e-18)
(0.0031574 0.00079588 -9.67826e-19)
(0.00349314 -0.000835107 -1.15518e-19)
(0.00128559 0.000584722 -2.07724e-18)
(-0.00615095 -1.95106e-05 -3.15956e-18)
(0.00622008 -0.0050456 -2.27918e-19)
(-0.00157279 -0.000167285 -6.29622e-19)
(-0.000596094 -0.000112037 -1.1241e-17)
(-0.0295248 -0.0260545 -3.05046e-17)
(0.00257463 -0.000526511 2.66774e-19)
(0.0415056 0.00853694 1.43214e-17)
(0.00280484 0.000735736 -1.7428e-20)
(3.98624e-06 -6.46339e-05 4.08604e-18)
(-0.000910201 -0.000771941 -4.37058e-19)
(0.00977019 0.00491189 2.28998e-17)
(-0.00195583 -0.000755524 9.50999e-19)
(0.00488744 0.00848425 7.52854e-19)
(0.00349173 -4.02548e-05 1.23848e-18)
(-7.55841e-05 -0.00105133 4.95834e-19)
(0.0225825 -0.028007 -1.59293e-17)
(-0.00257775 -0.000979679 1.0683e-18)
(-0.00079726 0.00334698 -1.7724e-18)
(-0.237863 0.132464 5.35962e-17)
(-0.000612703 -0.00106985 4.3793e-18)
(-0.00167661 -0.00822052 -5.24396e-17)
(-0.00800586 -0.194724 3.43653e-17)
(0.0384033 0.351727 8.67246e-19)
(-0.135693 0.107673 3.21731e-17)
(-0.000753425 -0.000148945 2.93891e-18)
(0.00186626 -0.00151821 9.44268e-17)
(-0.21598 -0.359696 1.93702e-17)
(-0.00100895 -0.000255448 1.23893e-18)
(-0.00124827 -0.000197348 6.13126e-18)
(0.00197262 -0.00164347 -1.24903e-16)
(-0.266518 -0.0437682 -4.393e-17)
(0.00831974 -0.0149244 -1.47834e-17)
(-0.00319104 -0.00101729 1.0075e-18)
(-0.000660026 0.00333444 -9.622e-18)
(-0.0572379 -0.0556013 -1.14156e-16)
(-0.00493168 -0.000192657 -1.11814e-17)
(0.0156976 0.0268561 -1.82406e-17)
(0.133835 -0.290974 1.43706e-16)
(0.00891338 0.00332009 -1.39296e-17)
(-0.0377019 -0.00217197 -9.19854e-17)
(-0.150606 -0.0546314 4.18417e-17)
(-0.147442 -0.0403722 3.69414e-17)
(-0.00635799 -0.00746756 -7.77338e-18)
(-0.288936 -0.249674 4.81944e-17)
(0.000703585 -0.000590973 8.32565e-19)
(-0.148506 0.155448 2.86573e-17)
(0.000166444 -0.0160566 8.77878e-19)
(-0.00362633 -0.00192807 1.17946e-17)
(-0.00326451 -0.000198832 -3.52555e-19)
(-0.0895343 -0.290106 -6.9425e-17)
(0.0042227 -0.00462529 -9.67252e-18)
(0.0389699 1.03284 -3.69682e-17)
(0.000842328 -0.000599052 -7.32528e-19)
(0.0501946 -0.218593 -1.28981e-16)
(-0.218055 -0.373723 1.17476e-17)
(-0.00376327 0.318071 1.0753e-17)
(-0.00333432 -0.000243092 4.33081e-18)
(-0.000567417 -0.00018489 -1.76667e-18)
(-0.0027882 -0.00015949 -8.55651e-18)
(-0.00182693 4.85833e-06 -8.67131e-19)
(-0.014027 0.0159692 9.25819e-17)
(-0.000599518 -0.0207691 1.98878e-16)
(0.177275 0.0148328 -5.61356e-17)
(-0.000111787 -0.00115459 2.25311e-18)
(-0.00506253 -0.000567953 1.02674e-17)
(-0.00514971 0.0020439 -2.1823e-18)
(0.00520002 2.7434e-05 -4.29028e-18)
(-0.0286145 -0.0402637 7.87473e-17)
(0.000951121 0.000351064 -2.82479e-18)
(0.162011 -0.325783 -1.38263e-16)
(0.0216201 0.0274438 1.34393e-17)
(-0.0352768 0.18954 2.61824e-17)
(0.0128836 -0.00131007 8.56708e-18)
(0.000366053 0.00289149 5.80386e-18)
(0.00172686 0.000291183 2.59811e-22)
(0.00329582 -0.0210275 4.36718e-18)
(0.214327 -0.000140535 -7.6386e-17)
(0.0591946 0.0647833 6.41331e-18)
(0.0597578 0.0726915 -6.77908e-18)
(0.00371348 0.000941682 -3.24709e-19)
(-0.00284282 -0.000637925 1.4525e-18)
(0.000586131 -0.000135247 -1.46862e-18)
(-0.00274617 -0.000552953 -1.14503e-18)
(0.0023 -0.000254807 5.60706e-18)
(-0.0439265 0.000572849 9.38977e-18)
(0.116778 0.00257311 -2.27858e-17)
(-0.0047622 0.00228586 2.20454e-18)
(-0.000151982 -0.000138276 -3.82544e-18)
(0.0140813 -0.0193167 2.06872e-17)
(-0.38272 -0.0323149 3.15241e-17)
(0.00100502 -0.000222674 -1.40172e-17)
(0.00480601 -0.0012082 1.23962e-18)
(0.0114829 0.0195909 7.18445e-19)
(-0.0992303 -0.0811734 1.32991e-16)
(0.000906734 0.0469559 -4.34605e-17)
(0.00145276 0.000285587 5.78213e-18)
(-0.151801 0.179894 -4.0555e-18)
(-0.00171397 -0.000669762 -2.07886e-18)
(0.00213509 0.00033943 -4.04197e-18)
(-0.00226346 -0.000356295 3.97182e-18)
(0.205478 -0.000490116 9.7276e-17)
(-0.00228632 -0.00184323 -1.236e-17)
(-0.000676679 -0.00053847 1.78024e-18)
(-0.000680594 -0.000488318 2.03713e-18)
(-0.153523 -1.55132e-05 -3.49462e-17)
(0.00917044 -0.0185377 -1.26867e-17)
(0.00095848 -0.000811533 5.56967e-19)
(0.0715823 -0.142874 -7.2703e-17)
(-0.000477029 -0.000869189 -4.05972e-18)
(0.015156 0.0229934 2.17946e-17)
(0.00100814 0.000831912 -3.05684e-18)
(-0.00138785 0.000465172 1.78548e-19)
(0.01702 -0.0101653 2.52418e-17)
(0.00164347 0.000634263 3.84825e-19)
(-0.170597 -0.349443 8.00491e-17)
(-0.0222761 1.23274 9.91581e-17)
(0.0018418 0.000549859 -3.13378e-19)
(0.000373832 -0.00024127 -2.89038e-18)
(0.00177445 0.000214572 6.50475e-18)
(0.00225284 -0.00109278 -3.59135e-18)
(0.0467887 0.0439475 4.8712e-17)
(0.330468 -0.121252 -7.62246e-17)
(0.365945 -0.623968 7.13629e-17)
(0.00185995 -0.000522685 -1.45147e-19)
(0.0598542 -0.0488975 2.43779e-17)
(0.000108441 0.0203433 1.70364e-18)
(0.0226354 -0.0139233 -1.88706e-17)
(-0.000712499 -0.00053005 -5.6919e-19)
(-0.00164238 -0.000659071 -1.30355e-17)
(0.0213452 -0.205305 3.88277e-17)
(-0.0723957 -0.0622897 -2.32453e-16)
(0.0233321 0.0309064 -1.09415e-17)
(0.00287423 0.000275043 -5.06819e-19)
(0.00316176 -0.000438155 2.92759e-18)
(-0.00130524 -0.000232013 1.00386e-18)
(0.0242531 0.174634 -6.6555e-17)
(0.0239271 -0.166684 -5.80479e-17)
(0.210102 -0.0357101 -6.81664e-17)
(0.175535 0.920112 2.57861e-17)
(-0.000733964 -0.000964228 9.15816e-20)
(0.131939 -0.119352 -3.40865e-17)
(0.00575227 -0.0162867 -4.49695e-17)
(-0.000501727 -0.00052725 3.3722e-17)
(-0.000303048 0.00106116 -1.78963e-18)
(-0.00191368 -0.000380758 1.32746e-18)
(5.97681e-05 -0.0177225 5.59512e-17)
(-0.00115782 0.000150636 5.13224e-19)
(0.00514868 -0.00081647 -1.1176e-17)
(0.00115139 0.000496454 2.04102e-18)
(0.000881954 -0.00102267 2.57642e-20)
(-0.00286744 0.00047321 1.87291e-19)
(0.00135443 0.0015184 -6.67085e-18)
(0.000488278 0.00204281 -9.64048e-18)
(-0.00362376 -0.0189292 1.38072e-17)
(0.00245247 -0.000720141 4.82314e-18)
(-0.000980905 -0.00353554 9.71377e-18)
(0.00144984 0.000617318 2.67298e-18)
(-0.00096753 -1.75826e-05 -3.61064e-19)
(0.0292859 0.0067459 3.34824e-18)
(0.0125805 -0.0177292 1.3343e-17)
(-0.393943 -0.0390162 -3.02349e-17)
(-0.00389849 1.4427e-05 -1.28218e-18)
(-0.302103 0.103342 -4.00077e-17)
(-0.00376287 -0.000893518 -8.45683e-19)
(-0.0177979 0.00835418 2.03131e-18)
(-0.00636808 -0.000457815 5.47367e-20)
(-0.0446477 -0.00523491 3.97522e-18)
(-0.00351032 -0.00046463 5.48622e-18)
(0.000730522 -0.00320634 2.27732e-17)
(-0.000325685 -0.0178797 -1.0214e-17)
(-0.00277948 0.000490175 -2.88162e-19)
(-0.0154495 -0.0252679 3.79995e-17)
(0.295423 0.137398 -5.12195e-17)
(-0.00595625 -0.00652049 -2.14389e-18)
(0.00123997 -0.000599877 -8.44214e-19)
(0.0174346 -0.00190038 1.93665e-17)
(0.195456 0.114223 2.41236e-18)
(0.0012791 -0.00315127 6.04564e-17)
(0.00185592 -0.003153 -6.98404e-17)
(0.0117401 -0.0581981 1.2689e-16)
(0.0465885 0.0509369 -8.27917e-18)
(-0.0163911 0.00860441 -1.17098e-18)
(0.0046889 0.00931523 3.7088e-18)
(0.00443995 -0.0157981 1.87949e-17)
(0.000948485 0.000844294 5.3878e-19)
(0.216202 0.0205841 1.23773e-17)
(0.165502 0.0215398 -4.2961e-17)
(0.00036458 0.000125108 -2.28677e-19)
(-0.00359908 0.000273031 7.23272e-19)
(0.272355 -0.0338468 9.49893e-17)
(0.000622965 -0.000865484 1.78221e-18)
(-0.00166308 -2.13695e-05 5.23121e-18)
(0.0449789 0.0164486 -1.26903e-17)
(0.0507982 0.012939 -5.26607e-18)
(-0.000190777 -0.00106681 -1.76109e-19)
(-0.00148301 -0.000607174 1.40031e-18)
(-1.63655e-05 -0.00397244 -7.43343e-18)
(-0.00296031 0.00221016 6.43899e-18)
(0.000433169 -0.000100297 2.29662e-18)
(-0.000811097 -0.00045408 5.7755e-18)
(-0.00934961 -0.00219348 7.02093e-18)
(-0.0101927 -0.0423677 4.6519e-17)
(-0.00156161 0.00045906 3.88882e-19)
(0.3539 -0.512057 9.03773e-17)
(-0.00202721 -0.000182799 -2.20838e-18)
(0.00633629 0.000285098 4.21494e-18)
(-0.00839907 -5.53102e-06 -2.61947e-18)
(-0.0265105 -0.0345436 -4.01005e-17)
(0.00131515 -0.00032634 -3.24909e-18)
(-0.135115 -0.0107313 -1.9231e-17)
(-0.210589 0.0889379 4.19331e-17)
(-0.0031607 -0.000331966 -1.12721e-18)
(-0.000296584 -0.000307302 -4.40537e-18)
(-0.127815 -0.176314 -3.7313e-17)
(-0.00256079 -6.03876e-06 3.80151e-19)
(-0.00174155 -9.41683e-07 2.63249e-18)
(-0.000943413 -6.26358e-06 1.06664e-18)
(-0.266848 0.0725809 -3.57845e-17)
(0.0151679 -0.00902091 -6.642e-18)
(0.00105184 -0.000746536 8.75674e-18)
(0.0234009 0.0168711 2.07094e-18)
(0.0391247 0.00309262 -6.2392e-18)
(0.0452087 1.14876 -2.43012e-17)
(0.0544017 0.0152212 -2.77069e-17)
(0.000430656 0.000497735 2.8381e-19)
(-0.285394 -0.519523 -1.0757e-17)
(0.00642864 -0.00018723 2.51584e-18)
(0.189126 0.0777402 1.52283e-17)
(0.0248572 -0.0631525 -1.78076e-17)
(0.157606 -0.439201 7.28648e-17)
(0.10529 -0.270667 1.09597e-16)
(0.0454289 0.0458374 2.58675e-18)
(0.00370075 0.00123454 1.33834e-18)
(0.00674066 -0.013096 1.3766e-17)
(0.00122474 0.00184797 1.25146e-17)
(-0.00338826 0.00113254 -3.79594e-19)
(0.00125298 0.00096192 1.06194e-18)
(0.0261545 0.0093877 -2.13704e-18)
(-0.000262801 -0.000773696 4.95008e-18)
(0.00060886 -0.000109694 2.19804e-18)
(0.000573376 -3.0379e-05 -1.45218e-18)
(-0.00151006 2.04928e-05 8.68043e-19)
(-0.00904806 6.00911e-05 -6.34092e-19)
(-0.00210944 0.000477947 -6.08018e-20)
(0.044224 0.0475498 3.24117e-17)
(0.000303057 -0.000284625 -5.25074e-19)
(-0.00850998 -0.000372504 4.20945e-19)
(-0.011609 6.20137e-05 1.23625e-21)
(0.000914111 -0.00052883 4.80621e-20)
(-0.0318295 -0.0793465 1.70317e-17)
(-0.00301544 0.0491017 3.94641e-17)
(-0.00247279 -0.00485346 3.87124e-17)
(-0.00155518 0.000262605 -2.83807e-17)
(0.0134595 0.0172155 6.559e-18)
(-0.0158254 5.09946e-05 -1.31998e-19)
(-0.0324383 0.237975 -1.75076e-18)
(0.136856 0.0470153 -1.17469e-16)
(0.00107453 -0.000491209 -2.50626e-18)
(-0.165849 0.114241 4.6494e-17)
(0.00533562 0.00610399 -6.63799e-18)
(-0.00035455 -0.000773627 9.34842e-18)
(0.422372 -0.00779296 -1.89185e-17)
(0.00203421 0.259755 -1.04476e-17)
(-0.00722823 0.000322941 -1.87013e-18)
(-0.0103627 -0.0014933 7.24259e-18)
(-0.058374 -0.0764072 2.93371e-18)
(-0.00121947 -0.0002672 -1.6174e-18)
(0.000886246 -0.00168272 8.44669e-18)
(-0.00856019 -0.000345896 3.73943e-20)
(-0.000658205 -0.000135801 6.14496e-20)
(0.0890885 0.00725027 1.03727e-18)
(0.000212513 0.00163185 1.92277e-18)
(-0.00167296 -0.000664291 -6.92082e-19)
(0.00224221 0.00033577 2.7308e-18)
(-0.00160358 0.000248872 5.11911e-18)
(-0.00883939 0.0274599 4.30234e-17)
(0.00134547 -0.0215144 5.77238e-17)
(-0.00185095 -0.000782384 5.63192e-18)
(-0.00506692 -0.000227832 -3.5527e-18)
(0.00153631 0.000488009 -3.63083e-19)
(0.0156785 0.042306 5.00506e-18)
(-0.496105 -0.167245 4.90351e-17)
(0.0841925 0.0723595 -7.6388e-17)
(0.00116375 0.000771165 -5.94871e-19)
(0.000417125 0.00219143 9.00402e-18)
(0.00082738 -0.00158775 -9.95177e-18)
(0.0502745 0.0112964 -3.72983e-17)
(0.0314178 -0.00227486 2.6684e-17)
(0.00271087 0.000803426 3.43736e-19)
(0.00368221 0.000950839 1.8531e-19)
(0.00148995 0.000462218 -4.06271e-19)
(0.00821522 -0.0115363 -1.10434e-17)
(0.000815599 -0.000269263 1.82611e-19)
(0.12349 0.019437 -7.71353e-17)
(-0.00413759 -0.000589305 -5.22068e-18)
(-0.000727446 -0.000330787 7.60328e-19)
(0.348315 0.20606 -2.91116e-18)
(0.0646346 0.0556606 -2.86934e-17)
(-0.344907 0.0918487 -2.13543e-17)
(-0.00963125 5.9528e-05 -5.85304e-20)
(-0.0617865 -0.251309 -3.44172e-17)
(-0.00164322 -0.00120879 -5.25194e-18)
(0.0151255 -0.0369084 7.99411e-18)
(0.137519 -0.0555336 4.31293e-17)
(0.012451 -0.0501581 -1.65637e-16)
(-0.00508384 -0.00113153 -4.33535e-18)
(0.000152685 -0.00542211 2.08779e-17)
(0.1232 -0.00819867 -4.65207e-17)
(-0.0426899 -0.00225913 5.95411e-17)
(-0.027252 0.00216095 -7.53147e-18)
(-0.0012276 -0.000548483 -6.67192e-18)
(0.00370171 -0.000100568 -5.87385e-18)
(0.000639943 -0.000724009 -8.78374e-19)
(0.00284237 0.000853368 2.67489e-20)
(-0.00705217 -0.000257964 -8.63061e-19)
(0.000570757 -0.000286085 4.22586e-18)
(0.00378558 -0.000469635 -6.46375e-20)
(1.46904e-07 -1.12416e-05 1.5799e-18)
(0.0991755 0.0327773 4.933e-17)
(0.00161827 0.000325398 1.87224e-18)
(-0.000811688 -0.0217732 -2.53186e-17)
(0.000899008 -0.00443335 4.81839e-18)
(0.0367889 -0.0057726 -4.55437e-17)
(0.0027323 0.00075 -9.53202e-19)
(-0.00329537 -0.00107761 3.11505e-18)
(-0.00371271 -0.0404822 -1.13997e-17)
(7.99221e-06 -0.015195 -1.28686e-16)
(-0.562514 -0.513971 -3.56099e-18)
(0.0284435 -0.00261281 -1.59966e-17)
(0.00230299 -0.000421343 5.72791e-19)
(-0.00507136 -0.00123602 -1.57616e-18)
(-0.00187521 -0.000783156 -1.61976e-18)
(-0.043654 0.0412089 -7.38914e-18)
(-0.00185783 8.72694e-05 2.89473e-19)
(-0.345889 0.095789 3.54587e-17)
(0.00895173 0.0194648 -3.9013e-18)
(-0.0195991 0.00589215 -8.26702e-18)
(0.0923404 0.0624742 3.14766e-17)
(0.128133 0.0717044 4.47733e-17)
(-0.00923767 -8.39181e-05 7.04298e-18)
(-0.00107564 -0.000555693 -1.18525e-18)
(0.116786 0.0173097 4.15992e-17)
(-0.0493833 0.0362638 3.3598e-17)
(0.00491855 -0.000676014 -3.86911e-18)
(0.1688 -0.0520568 -5.33219e-17)
(-0.0107059 -0.000147368 -6.25171e-18)
(0.00787539 0.000482075 2.59971e-18)
(0.0586043 -0.0320102 -1.02327e-17)
(-0.000354212 8.44427e-06 1.80555e-18)
(0.0422025 0.00475847 2.20319e-18)
(0.000953323 0.000823269 -3.55776e-19)
(-0.0440954 1.28655 2.03682e-17)
(-0.00107557 -0.000660287 7.62358e-18)
(0.00158762 0.000673486 -2.51551e-18)
(0.387015 0.185172 1.72448e-18)
(-0.00148916 -0.00756753 7.78349e-18)
(-0.018939 0.0212054 -2.42184e-19)
(-0.00050015 -0.000523682 -1.40812e-17)
(0.00177007 -0.000340597 -1.64053e-18)
(0.00284713 -0.00105412 8.73361e-19)
(-0.0884848 0.183585 -7.59832e-17)
(-0.00176955 -0.0152852 -2.04345e-17)
(0.00441333 0.000502635 1.36513e-19)
(-0.00499483 0.000637085 -1.22156e-17)
(-0.00102921 -2.12067e-06 -6.75275e-18)
(-0.000119098 -0.00131794 5.75468e-18)
(-0.0214394 0.0179228 8.50942e-19)
(-0.130505 -0.0606133 -5.35354e-17)
(0.00213138 0.00057655 -5.3163e-18)
(-0.00374761 -0.000726212 -7.67424e-18)
(0.0201167 -0.00550451 -3.20546e-18)
(0.00080854 -0.000340221 -2.10793e-19)
(-0.00754026 -0.0391249 -5.59856e-17)
(0.023316 -0.0110069 -2.60551e-17)
(0.00318775 -0.000272338 -2.04538e-18)
(-0.00571882 0.000299394 -2.25576e-20)
(0.0011874 0.000866462 -2.56631e-18)
(-0.010573 -0.00026126 2.07501e-18)
(0.00322564 0.000503812 1.76105e-18)
(-0.0916749 -0.336645 -2.62866e-17)
(0.00113541 -0.00333526 -3.12023e-17)
(-0.139903 -0.176454 -1.2176e-16)
(0.000629325 -0.000822189 3.60859e-18)
(-0.00369312 0.00217824 -1.23297e-18)
(0.0123909 -0.00282203 -9.40683e-18)
(-0.00132442 -0.000313914 1.55806e-17)
(-0.0373691 -0.0444601 -5.41545e-17)
(-0.00163069 -0.000725429 1.91544e-19)
(-0.00474075 -0.000209551 -5.6463e-18)
(-0.00237308 -0.000913754 7.89048e-18)
(-0.0102884 0.045264 -3.01504e-17)
(0.00126358 -0.00111005 5.77604e-18)
(0.000247706 -0.00090206 6.53024e-18)
(0.000675643 -0.00104673 -8.05889e-19)
(-0.00137564 7.28974e-05 2.17452e-19)
(0.00174154 -2.92898e-05 3.09737e-19)
(-0.00268743 -0.000378342 1.01394e-18)
(0.00431535 0.000114306 4.88817e-18)
(-0.00526037 8.63832e-05 4.33546e-19)
(-0.001091 -0.000411886 9.5169e-18)
(0.00145176 0.00145358 -5.8231e-18)
(0.045558 0.018807 -7.18527e-18)
(0.00415695 2.77062e-05 -1.17717e-19)
(0.00022952 -0.0170067 -3.41883e-17)
(0.00026645 -0.000739547 5.23463e-18)
(0.0108826 0.0217753 3.39064e-18)
(0.0583031 -0.00810354 -1.23717e-18)
(-0.00332542 0.0011281 1.89821e-18)
(0.375686 0.202497 1.7882e-17)
(-0.0210423 0.00136793 -1.67513e-17)
(4.15036e-05 0.00102013 -9.84034e-19)
(-0.00794684 0.000117345 -2.34909e-19)
(0.0061465 -0.00117952 1.70087e-19)
(0.260354 -0.308079 -1.65951e-17)
(0.0394518 -0.000315947 1.78996e-17)
(-0.00742399 0.000105653 -2.57303e-20)
(-0.00642661 -0.000498112 2.09841e-18)
(0.00694661 0.000545368 3.39472e-18)
(-0.00401326 -0.00415681 -3.43705e-18)
(0.00284044 0.021668 -8.81886e-19)
(-0.228885 -0.378279 -8.47021e-18)
(0.00378752 -1.99466e-05 3.25424e-18)
(0.000999661 -0.00046359 -2.2814e-18)
(-0.000520859 -0.00132097 -2.54648e-17)
(-0.0177829 -0.0653105 1.01926e-16)
(0.125108 -0.437768 3.80361e-17)
(0.000897322 -8.73521e-05 2.87296e-18)
(-0.00496146 0.00114986 5.91148e-18)
(0.357929 -0.343837 -7.6408e-17)
(-0.0863086 -0.335041 5.89736e-17)
(0.0619811 0.0167798 -3.60789e-17)
(0.00131869 -0.000262622 -5.37519e-18)
(-0.00344172 -0.000490031 6.60415e-20)
(0.00685636 -0.0123155 1.88969e-17)
(0.00479105 -0.000682268 9.52453e-19)
(-0.00341671 0.0226978 -2.00679e-17)
(0.0118645 0.0246081 3.6071e-17)
(0.00146395 0.000501689 1.13156e-20)
(0.0141451 -0.00704825 6.37882e-18)
(-0.00156146 -0.0028206 -6.40413e-18)
(-0.0865133 -0.144857 -4.02482e-17)
(0.00271439 -0.00104578 -1.54705e-18)
(-0.180627 -0.0308688 -9.35825e-18)
(-0.00781439 -0.108039 -8.01882e-17)
(-0.00712915 0.00389978 -4.01696e-18)
(-0.101685 -0.192825 1.08532e-16)
(0.00297462 -0.000652672 -5.31878e-18)
(0.0445203 0.0152562 -6.767e-18)
(-0.000304318 -0.000668402 -3.16464e-18)
(0.000689782 -0.000593095 5.30977e-19)
(-0.00363486 0.000132547 -6.04844e-18)
(0.00366508 -0.000830654 5.29693e-19)
(-0.126372 0.0918822 5.7365e-17)
(0.00143551 -0.000582087 -3.2307e-18)
(0.00182345 0.000632533 -1.96886e-18)
(-0.00108501 0.000121666 3.10834e-18)
(0.00117024 0.0007249 9.32437e-19)
(-0.00446246 -0.000511682 2.29041e-18)
(-0.0100273 0.00066237 -1.87004e-18)
(-0.00378892 -0.000650478 1.699e-18)
(0.00604765 0.00688153 4.94709e-18)
(-0.00547892 5.82564e-05 1.55209e-18)
(-0.00355446 -1.83688e-05 -3.88423e-18)
(-0.00335665 -0.0404229 2.68689e-17)
(-0.00154464 -0.00604923 -1.3744e-17)
(0.000658395 -0.000100121 -1.75604e-17)
(0.380334 -0.61165 -9.71583e-17)
(0.00159894 0.00131939 9.43018e-20)
(-0.000768647 -0.000178129 -4.80947e-18)
(-0.000796239 -0.000225859 2.35156e-18)
(0.00226997 0.000510679 3.74856e-19)
(0.0878615 0.0729024 4.32254e-17)
(0.00231332 0.00066804 5.76144e-19)
(0.00493295 -3.92161e-05 -3.77615e-18)
(0.136523 -0.0357784 6.62094e-17)
(0.201612 -0.148482 9.35161e-17)
(-0.00281003 0.00192813 -1.17587e-18)
(0.00716959 -0.000607883 8.26477e-19)
(-0.00293341 -0.000155049 -1.85174e-18)
(0.000588766 5.37245e-05 -1.71274e-18)
(0.00188409 -2.35799e-05 9.5278e-19)
(0.224879 -0.510896 -5.12266e-17)
(0.000228412 -0.000181765 7.63168e-19)
(0.140198 0.709273 -2.71795e-18)
(0.00172405 0.00246794 8.95059e-18)
(-0.0129926 -0.0274939 -4.20925e-17)
(-0.00127795 -0.000205981 -4.99407e-19)
(0.0544141 -0.0373247 -1.01681e-16)
(-0.000354244 -8.28761e-06 -7.79446e-19)
(-0.00968101 0.0320367 5.37063e-18)
(0.0036607 -0.000650615 -4.32677e-18)
(-0.00148743 0.0548265 7.142e-19)
(-0.00716989 -0.0453399 -9.62722e-18)
(-0.00123941 -0.000681218 -7.40706e-18)
(0.203278 0.0946412 2.86227e-17)
(-0.00504594 -0.000593163 -2.13098e-18)
(0.00040484 2.70195e-06 -9.25951e-19)
(-0.00119923 0.000454701 -2.05564e-20)
(-0.0681757 -0.124125 2.7388e-17)
(0.00428743 -0.0271063 2.49575e-17)
(0.00434752 -0.00114293 4.58961e-18)
(-0.00116336 -0.00321613 5.19282e-18)
(0.00244461 0.000797105 -8.6894e-19)
(0.274393 -0.117233 6.18314e-17)
(0.00742811 3.40808e-05 -2.43417e-19)
(-0.00884055 -0.00315882 -1.45159e-18)
(-0.200662 -0.00342052 2.76164e-18)
(-0.00136522 -0.00047459 5.60993e-18)
(0.0090153 -1.0553e-05 7.65035e-19)
(0.00206949 -0.00099696 -2.43871e-17)
(0.000280282 -3.64546e-05 -3.48488e-18)
(0.00119804 0.000111435 6.05027e-19)
(0.00172349 0.000381782 5.74996e-19)
(0.0414615 0.022185 -2.85511e-17)
(0.00633521 -0.000181045 -4.313e-19)
(0.41442 0.116095 -3.13171e-17)
(0.000567578 -0.000110972 -9.16063e-20)
(-0.000563379 -0.000249093 -7.89644e-18)
(0.00162105 0.0128155 -1.13444e-17)
(0.00646438 -0.000304901 4.94026e-17)
(0.0547326 0.0199437 -1.74827e-17)
(-0.0090411 -0.000296158 -2.52054e-19)
(-0.00587964 -0.0364603 8.83116e-17)
(-0.000510078 -0.000614376 -8.9719e-19)
(0.00264437 0.0248405 -3.03413e-17)
(-0.00188293 -0.000500823 4.84205e-18)
(0.00245717 0.000643096 -2.21437e-18)
(0.00202993 -0.000625115 2.78736e-18)
(0.00289813 -0.000100701 -8.83028e-18)
(-0.00257766 -0.000186446 2.46126e-18)
(0.00491823 0.0270935 -3.02361e-18)
(-0.014926 0.0107061 2.51909e-22)
(0.143832 0.0305056 -4.39201e-17)
(-0.00350352 -0.0459445 -1.28766e-17)
(-4.56475e-05 -0.00148995 -1.45954e-17)
(-0.00127817 0.000454987 6.12023e-18)
(0.0599205 -0.0256182 -1.24894e-18)
(-0.00229807 -0.000653968 -2.13221e-18)
(0.207279 -0.584392 3.10479e-17)
(-0.264362 -0.23549 7.83564e-17)
(-0.00564539 0.0341375 -2.76672e-17)
(0.0258795 -0.0432154 -4.42885e-17)
(0.033933 0.0197998 1.0854e-17)
(-0.00452274 0.0267595 -7.45406e-18)
(0.00021726 0.000178869 3.76562e-19)
(6.41615e-06 -0.0212196 -6.91257e-17)
(-0.000297046 0.0132947 4.11741e-18)
(0.00323779 0.000610341 1.10207e-18)
(-0.00627551 0.0392297 3.56874e-17)
(-0.000953043 -5.90051e-05 4.07688e-18)
(0.0268516 0.0148909 -4.86123e-18)
(-0.00300648 0.00145284 4.57742e-19)
(0.0694698 0.00450604 -2.02119e-18)
(0.000328664 -0.000773394 -2.28785e-17)
(0.0705166 0.058886 -2.14583e-17)
(-0.350532 -0.239511 -6.81606e-17)
(0.00251841 0.0110207 1.66316e-18)
(0.0643292 0.0044752 4.5241e-18)
(-0.00239963 0.000385829 -1.98377e-18)
(0.0187331 0.0390506 -4.47896e-17)
(0.00263482 0.000349688 -3.54817e-18)
(0.00449212 -0.000701165 1.2451e-17)
(0.00244224 -0.000357971 -4.15442e-19)
(-0.00486423 0.00180909 1.30905e-18)
(-0.0011022 -0.0135069 1.71869e-17)
(0.0280874 -0.0684026 4.76001e-17)
(0.0196514 0.0147143 2.69126e-18)
(-0.191784 -0.149265 -1.15572e-17)
(-0.00295592 -0.000678662 -8.09434e-18)
(-0.00184034 -0.000503595 4.83723e-18)
(-0.100373 -0.163213 5.04034e-17)
(-0.00265025 -0.0139588 5.88511e-17)
(-0.00830599 0.000880774 -2.35122e-18)
(0.0242657 -0.00574837 -1.45991e-17)
(-0.00127921 5.60597e-05 -3.0441e-18)
(0.0219093 -0.041854 2.82502e-17)
(0.378124 0.140249 -1.1947e-17)
(0.00524925 -0.000180921 2.64086e-18)
(-0.00290932 -0.00495156 5.12536e-17)
(0.0181911 -0.00353382 6.3449e-17)
(-0.321129 -0.269371 1.52726e-17)
(0.000844704 -4.56289e-05 3.17368e-19)
(0.000697955 -0.000868931 -2.91167e-18)
(-0.141624 0.0103708 -3.16146e-18)
(0.000837376 0.00180493 -4.10946e-18)
(0.0723682 0.174845 6.27606e-17)
(0.00584862 0.0542885 -3.46731e-18)
(0.0485008 -0.0108497 2.07155e-17)
(-0.00209156 -0.000728696 1.88753e-18)
(-0.00222127 -0.000871 8.14687e-19)
(-0.000686934 -0.000782878 3.38219e-20)
(-0.00156404 -0.000492853 -3.43834e-18)
(0.0665813 0.0951347 -1.74141e-18)
(0.00118799 -0.000139413 -4.57644e-18)
(0.0758503 0.102499 -5.08425e-19)
(0.0155967 -0.0574613 1.62052e-17)
(-0.0146661 0.00963772 -1.07852e-17)
(0.000220136 -4.3399e-05 -1.59678e-18)
(0.00353978 6.27937e-05 -2.8969e-18)
(-0.00361134 0.00230762 1.13137e-18)
(-0.00335871 0.0013537 4.65695e-19)
(-0.00765494 -3.03194e-05 -1.41691e-18)
(0.0019117 -0.000835822 -9.30187e-19)
(-0.00476663 -0.0409197 -1.34467e-17)
(0.307734 -0.25173 4.20477e-17)
(-0.45257 -0.438917 -2.80429e-18)
(0.0023847 -8.71812e-05 3.45985e-18)
(-0.0367528 0.0377976 -2.97673e-17)
(0.0076899 -0.000498339 -3.16504e-18)
(-0.390588 -0.184489 -3.71754e-17)
(0.00995111 0.0108598 -5.38558e-18)
(0.00146358 -0.00232351 -3.99289e-20)
(0.000380381 -0.00147118 -6.73164e-18)
(0.0051021 -0.106848 4.28502e-17)
(-0.0042511 -4.38865e-05 1.38899e-18)
(-0.00238942 -0.000193649 -5.74357e-18)
(0.00130219 -0.000618804 2.80827e-17)
(0.00280013 -0.000615217 -3.80208e-19)
(0.00162215 3.89176e-05 1.75581e-18)
(0.0173587 -0.0146125 1.11699e-17)
(-0.197722 -0.274667 -3.06478e-17)
(-0.0034189 0.000487958 1.19251e-19)
(0.0693598 0.0772211 -4.37773e-18)
(0.175505 -0.381899 1.16779e-16)
(-0.000731304 -0.000281028 2.53638e-18)
(0.117775 0.0311371 -1.3565e-17)
(0.184983 -0.369216 -7.59363e-17)
(-0.00087155 -0.00048621 -6.07578e-19)
(0.00209425 -0.0186552 -7.93348e-18)
(-0.00703703 0.00465045 9.89972e-18)
(-0.000925538 -0.000952808 -4.57406e-20)
(-0.00124078 0.000437965 5.72697e-20)
(0.00327725 -0.00699577 -4.02798e-17)
(0.176118 -0.432929 -1.40307e-16)
(-0.143228 -0.211283 -2.40212e-17)
(0.000931169 -0.00108 6.52074e-18)
(0.0021625 0.000322746 -5.66975e-18)
(-0.00700036 0.000144027 -2.31131e-19)
(-0.0059184 0.0016878 7.8324e-19)
(-0.00346492 -0.000709103 -3.66147e-18)
(-0.00356282 -0.000825024 -1.05944e-17)
(-0.0178674 -0.0163118 1.33245e-17)
(0.00898937 0.0128521 3.36925e-20)
(-0.00941037 4.85806e-05 -1.44925e-18)
(0.0268629 -0.295841 -2.44024e-17)
(0.00154731 0.000853849 5.10683e-18)
(-0.000247669 -0.00149913 3.23027e-18)
(-9.86161e-05 0.000131747 3.4444e-19)
(0.238992 0.00375672 3.18315e-17)
(0.00316463 0.00127783 3.00423e-19)
(0.00892419 -0.000164668 -3.06621e-19)
(-0.0162582 0.00880226 2.86929e-17)
(-0.001741 -0.0175483 5.07183e-17)
(0.00236215 0.000536023 -7.54273e-19)
(0.00481319 4.63461e-05 -6.22288e-19)
(-0.0015749 -0.00080235 3.437e-20)
(-0.00311022 0.00362494 9.34767e-19)
(-0.0053074 -2.54502e-05 -3.02481e-18)
(0.00379448 0.0107884 -8.74815e-19)
(0.134287 -0.0473772 3.45661e-17)
(-0.00235272 -0.000342592 -3.15568e-18)
(0.0412986 0.02477 1.08462e-17)
(-0.00875861 0.000821379 6.49962e-19)
(0.0012265 0.000108669 2.1828e-19)
(0.0550236 0.0250875 7.66307e-18)
(-0.386028 -0.138823 -5.32051e-17)
(0.0784993 0.0251309 -1.79904e-17)
(-0.00349651 -0.000418873 -7.14173e-18)
(-1.11018e-05 0.000631197 5.37159e-19)
(0.174828 0.0703418 1.05164e-17)
(-0.00166676 -0.000564337 -3.59122e-17)
(0.11545 0.102014 3.92373e-18)
(-0.00179582 0.000609556 3.36529e-19)
(-0.000994375 -0.000675178 -9.49412e-19)
(0.181397 0.0206627 -1.25228e-17)
(0.10133 0.7618 1.22832e-17)
(-7.99852e-07 -0.00443848 -3.34011e-19)
(0.044755 0.0104403 -3.54832e-17)
(-0.00146465 -0.00509559 -4.49954e-17)
(-0.000792431 -0.00059081 -3.40099e-18)
(0.000709679 -4.44202e-05 7.77724e-19)
(-0.000629281 -0.000745115 8.2907e-19)
(-0.276002 -0.195478 2.96336e-17)
(0.00560958 -2.94787e-05 3.57305e-20)
(-1.05932e-06 -1.36726e-05 -3.37439e-18)
(-0.0562402 -0.0183721 -1.86858e-17)
(0.000125516 -0.000772107 -1.77977e-17)
(-0.0623067 -0.0655063 2.82361e-18)
(0.00105157 -0.00147545 -2.87832e-17)
(0.00262059 -0.000523182 -5.78594e-19)
(-0.359524 -0.149337 7.53238e-17)
(0.0105533 -0.000178419 -5.03431e-18)
(0.000338718 -0.000540605 3.31133e-18)
(-0.000625953 -0.000647541 -7.38093e-19)
(-0.00224179 -4.94093e-05 3.22469e-18)
(-0.0146277 -0.0276398 -1.82842e-17)
(0.00628832 0.000187816 -3.52554e-18)
(0.00140683 -0.00049389 -7.00528e-18)
(0.00210137 -0.000555201 1.44492e-18)
(0.00107749 -0.000565812 -2.52294e-21)
(0.00772837 -0.000556108 -1.34294e-18)
(-0.0024038 -0.000797178 -2.0913e-20)
(0.0832062 -0.0347537 3.20982e-17)
(-0.00219339 0.000105827 -1.76734e-17)
(-0.000713583 -0.000305277 -3.88086e-18)
(0.0037597 -0.000478845 2.99897e-18)
(-0.00106275 -0.00010693 -6.42992e-19)
(0.00527 -0.0216518 -3.19072e-18)
(-0.0078734 0.00406251 -1.54172e-18)
(0.00048706 -0.000776889 -4.16153e-18)
(-0.00115111 -2.67158e-05 2.17353e-18)
(-0.00553179 0.000183056 1.1161e-19)
(-0.00564377 -0.0013743 -9.20729e-19)
(-0.00788817 -0.0335336 7.55076e-18)
(-0.276468 -0.137166 1.31992e-18)
(-0.00300542 0.00210575 1.68122e-18)
(-0.175684 -0.190545 8.66803e-17)
(-0.00313512 0.000408187 -1.77658e-18)
(-0.00181289 -0.000731766 -5.08332e-18)
(-0.115933 0.0597947 3.29006e-17)
(0.00270642 -0.0205284 -2.01662e-18)
(-0.00285162 -0.000314358 -5.42533e-20)
(0.00589941 0.000386884 3.30382e-18)
(-0.00617357 -0.0148516 -7.87717e-18)
(0.0181097 -0.000212096 -9.92665e-19)
(0.00891869 -0.000155602 -8.11961e-19)
(-0.00120852 -8.80314e-05 -6.07717e-19)
(0.475573 -0.0699093 -4.62091e-17)
(-0.000696138 -2.994e-05 2.25918e-18)
(-0.0142545 -0.0170332 -2.17973e-17)
(-0.0056561 0.000289686 1.90138e-18)
(-0.00146522 -0.0155925 9.41825e-17)
(0.000364424 -8.15909e-05 -2.64981e-21)
(0.00498116 4.1068e-06 -2.01256e-18)
(-0.00343018 -0.000401059 -4.74531e-18)
(-0.00175487 -0.00381215 -1.19342e-18)
(-0.00108731 0.00130447 -1.51269e-18)
(0.00112274 -0.000637354 -2.96297e-18)