/*--------------------------------*- C++ -*----------------------------------*\
| =========                 |                                                 |
| \\      /  F ield         | OpenFOAM: The Open Source CFD Toolbox           |
|  \\    /   O peration     | Version:  v2012                                 |
|   \\  /    A nd           | Website:  www.openfoam.com                      |
|    \\/     M anipulation  |                                                 |
\*---------------------------------------------------------------------------*/
FoamFile
{
    version     2.0;
    format      ascii;
    class       surfaceScalarField;
    location    "750";
    object      meshPhiCN_0;
}
// * * * * * * * * * * * * * * * * * * * * * * * * * * * * * * * * * * * * * //

dimensions      [0 3 -1 0 0 0 0];
oriented        oriented;


internalField   nonuniform List<scalar> 
14470
(
0.0073875
-0.00239695
-0.00497686
0.00178813
0.00117787
0.00257461
-0.00281748
-7.14861e-06
0.000876555
0.00117054
-0.0020471
-0.00273602
0.00176721
-9.75202e-05
0.00552163
-0.00554072
1.5161e-05
-0.00384329
0.00759411
-0.00376147
0.000776361
0.00210723
-0.00288358
0.0106144
-0.00180484
-0.00886434
0.000438255
0.00404351
-0.00470328
0.00465663
-0.00441549
-9.69608e-06
-0.00160207
0.00185981
-0.00559415
0.00257658
0.00302315
-0.0138098
0.00954314
0.00350015
0.00770987
-0.00972202
0.00169279
0.00802635
-0.00805635
-1.57704e-05
0.00237906
-0.000589052
-0.00130751
0.00316024
-0.002659
-0.000501249
-0.004387
0.0080983
-0.00471466
-0.00559766
-0.00592378
0.0112695
0.001563
-0.001563
0.000499497
-0.00247788
0.00197836
0.00252334
-0.00174697
-0.0036102
-0.00197804
-0.00226322
0.00899285
-0.00673551
0.0160926
-0.00519472
-0.0109187
0.000969989
-0.000765613
0.000116068
0.00364762
-0.00883732
0.00655
-0.0016385
-0.00492028
0.00160297
0.000662855
-0.00226583
-0.00538593
0.00486033
0.000526452
-0.00683205
0.00606483
7.68197e-05
0.000499667
0.00151003
-0.00219471
-0.000705631
-0.000944663
0.000329014
0.00446621
0.00349933
-0.00806278
-0.00686239
-0.000937025
0.00773761
-0.00104861
-0.00576895
0.00679286
-0.00162791
-0.00212445
0.00375336
-0.0103787
0.00722357
0.00309602
6.52932e-05
0.00647798
0.00273173
0.00149377
-0.004227
-0.000979214
0.00258004
-0.00160094
-3.65356e-05
0.000745678
-0.000235153
-0.00106971
0.00140309
-0.000896653
-0.00517452
0.00634464
-0.00140999
-0.00117046
0.00258045
-0.00032316
0.00173669
-0.00169199
-0.00203676
0.00760844
-0.00538646
0.000155893
0.00257312
-0.00580862
0.0101348
-0.00156339
-9.71317e-05
0.0107616
-0.00754012
-0.00327641
-0.00551191
0.00491192
-0.00915955
0.00622118
0.00292126
0.00312088
-0.00224436
0.000795417
1.06703e-05
-0.000470068
-0.000534546
-0.00632511
0.00686094
0.00508728
-0.00698519
0.00173669
0.00815417
-0.00152074
-0.00664431
-0.00266682
0.00513158
-0.0024659
-0.00340176
0.0032537
-2.64136e-05
-0.0103447
0.00182669
0.0084442
-1.37721e-05
0.0010379
-0.000448332
0.000300401
0.0102618
0.00116959
0.00118617
-0.000125553
0.00850089
-0.00853733
-0.00061055
-0.00710395
0.00763464
-0.00412586
0.00123495
0.00289059
0.00558948
-0.00256319
-0.00304654
-0.000504852
-0.00338218
0.00388833
-0.00172677
0.00309408
-0.00136728
0.00901808
-0.00871604
-0.000328112
0.00331392
-0.00508778
0.00177525
-0.00225472
0.00268316
-0.000550835
-0.00574734
0.0069626
-0.00122022
0.00463649
-0.00187101
-0.00276615
0.00369981
-0.000941602
-0.0028381
0.00453393
-0.0048815
0.00015155
-0.00038441
-0.00536533
0.00245111
0.000709081
0.0070899
0.000903519
-0.00939731
0.00208629
0.00721975
-0.00755504
-0.00431091
-0.000425989
0.00473276
0.00437599
-0.0006272
-0.00914354
0.007514
0.00151325
0.00204171
-0.00366842
0.00153641
-0.00420468
-0.00216627
-0.000692146
0.00285835
-0.000172991
0.00308608
-0.00291419
-0.0039
0.00372559
0.00470456
-0.00798824
0.0032459
-0.00301794
0.00203858
-0.000684474
0.000145505
0.000607253
-0.00141806
0.00473248
-0.00712711
0.000183502
0.00691144
0.00944831
-0.00168503
-0.00789114
-0.000270492
-0.00307785
0.00200668
0.00184587
-0.00385161
0.00220216
0.00847749
0.007735
-0.00867361
0.000933689
0.00235171
-0.00250655
0.00600713
-0.0046687
-0.00134105
0.00371295
-0.00175476
-0.00195866
0.00833732
0.000654633
-0.00115554
0.000639369
8.06892e-05
0.00298491
0.000672946
0.000789484
0.00339153
-0.00371865
6.25788e-05
0.00259676
-0.00209731
0.000771629
0.00202753
-0.00279914
0.00184254
0.00048589
-0.00232844
0.00132029
0.00427275
0.00250497
-0.00852517
0.00536949
-0.00315649
0.00848153
-0.00558483
0.00450132
-7.71905e-05
-0.00390149
-0.000839361
-0.00206516
0.00290455
0.00483786
-0.00557799
0.000820574
0.00221968
0.00285854
-0.00507982
-0.00895487
-0.00028053
0.00498679
-0.00459298
-0.00039507
-0.00092808
-0.00711181
0.00799667
0.00827742
-0.00928574
0.00581391
-0.000810788
0.0081664
-0.00282027
-0.00537723
-0.00125411
0.00285707
-0.0055236
0.00786544
-0.00234709
-0.00854394
0.00301094
-0.00897045
-1.90408e-05
0.0090168
-0.00521905
0.00156295
0.0033346
0.000550622
0.00686708
-0.00873892
-0.000663128
0.00922616
-0.0102367
0.00883995
0.00130712
0.00235973
0.00243474
-0.0048002
0.000127677
-0.00475996
0.00463292
-0.0074185
0.00405723
-0.00240773
0.000124355
0.00768682
-0.00289357
-0.00481091
0.00370107
-0.00269616
-0.00100516
-0.00683455
-0.00760744
0.00251418
0.00538978
-0.00103991
-0.00724028
0.00818129
-0.00110011
-0.00157392
0.00267403
0.00141972
0.00221336
-0.00363473
-0.00619799
0.000258835
0.0011874
-0.00260511
-0.00273892
-0.00265218
-0.000205426
0.00328532
-0.0146059
0.0110001
-0.00275766
0.00361241
-0.000854886
-0.000347925
0.00968301
0.00738762
0.00863132
-0.00263367
0.00241834
0.000180522
-0.00301342
0.00435138
-0.00133918
-0.000342861
-0.00774482
-0.00323303
-6.86785e-05
-0.00112542
-0.00425914
-0.00271456
-0.000539721
0.00323335
0.00819801
-0.000786821
-0.00801703
-0.0010176
-0.00955403
0.00380359
-0.00054086
0.0027185
-0.00217796
0.00229448
-0.0100569
0.00777925
0.00201624
0.00261909
0.00831551
-0.00737362
-0.00095303
0.00101544
-0.00899677
0.00799468
0.00129299
-0.00146488
0.000201546
0.000343916
-0.00364812
0.0036028
-0.00392229
-0.00356607
-0.00195196
0.0030401
-0.00108814
0.00335269
-0.00209872
-0.001254
0.00189789
-0.00535358
0.00345296
0.000772495
-0.000557995
0.00524634
0.000266864
-0.00546959
0.00240765
0.00305775
0.00388252
-0.000918634
-0.0029642
0.00395212
-0.0030688
-0.000946207
-0.00214339
-0.00714958
0.00915066
0.00416202
0.00184271
-0.00251009
-0.00176319
-0.00726911
-0.00484579
0.00423706
2.17501e-05
0.00396445
-0.0036612
-4.9859e-05
0.00351351
0.00147164
0.00113505
-0.00286179
0.0017022
0.00165036
0.00816367
-0.000442821
-0.0102778
0.00214848
0.00804634
-0.000535182
0.0019827
-0.00144748
-0.00327821
0.000546125
0.00273227
0.00819805
-0.00796212
-0.000238641
-0.00539022
-0.000947637
0.00627378
-0.000780922
0.00924013
-0.0085112
-0.00245796
-0.000291249
0.00274918
0.0114522
-0.00465201
-0.0069567
0.000773254
-0.00101639
0.0102084
-0.0107411
0.000705861
-0.00199856
-0.00305776
0.0051088
-0.00276621
-0.00382746
0.0063782
0.00823775
-0.00179832
-0.00657497
0.00950833
-0.00746461
-0.00213674
0.00106282
-0.00318241
0.00211963
-0.00347273
0.000780666
0.00282289
-0.00814796
0.00900263
-0.000926662
0.00827695
-0.00726862
-0.0018413
-0.00599446
0.00780687
0.00439864
-0.00325583
-0.00114342
0.00731378
0.00279701
0.00090385
-0.0115385
0.0116944
-0.000611829
-0.00320099
-0.000925141
-0.00199623
-0.00750187
0.00877687
-0.0100836
0.00120246
-0.00736284
-0.00694251
-0.00319587
0.00554965
-0.00601979
0.00805216
0.00634633
-0.00124569
-0.00509786
-0.00100491
-0.00615594
0.00560152
-0.00863227
0.00248972
0.000180257
-0.0026697
-0.00272209
0.00660741
-0.00389965
-0.00271138
0.00738784
0.00201978
-0.000364416
-0.00154076
-0.00142634
0.00847265
-0.00709469
-0.00713695
-1.75607e-05
0.00715797
0.00533153
-0.00548493
0.000156568
4.87505e-05
0.00528543
0.00198266
0.0012331
-0.00321559
0.00492816
0.00248034
-0.00741347
-0.000813885
0.00943636
-0.00388395
-0.00653898
-0.000625579
-0.00265245
-0.000512729
-0.00738599
0.0079431
0.00177042
0.00291278
-0.00107025
0.00371025
0.00774567
-0.00757571
0.00692178
0.000100321
-0.002315
0.00504512
-0.00430664
0.00380079
0.000559813
0.000902206
0.00229366
-0.00132135
-0.00525987
0.0065734
-0.000475158
0.00645475
-0.00599183
-0.0100326
0.00520168
-0.00746144
-0.0086225
0.00042197
0.0074415
0.000144419
-0.00761881
-0.00877646
0.00753129
0.00116947
0.00294289
-0.00835033
0.0047792
0.00354739
-0.00242787
-0.000233984
0.00266185
-0.00304565
0.00845328
0.00291303
0.00354472
-0.00646546
-0.00136711
-0.00443509
-0.00788249
0.00070326
0.00818079
-0.00193857
0.000422512
0.000373828
0.00228159
0.00357675
-6.3503e-05
-0.00340887
0.000706599
-0.00372102
-0.0030327
0.00458344
-0.00155115
-0.00845428
0.00623006
0.00171517
0.00237665
-0.00842722
-0.00447916
0.00193732
0.00254109
-0.00127664
-0.0011173
0.00675134
-0.00705199
2.87707e-05
-0.000372217
0.000425959
-0.000248354
-8.11148e-05
-0.00295137
0.00297457
-0.00351594
-0.00827309
-0.000561202
0.00886865
-0.0042913
0.00233462
0.00195622
-0.00582841
-0.000804783
0.00663214
-0.000367579
-0.00247671
0.00208922
0.00038752
-0.00218824
-0.00687196
0.00077197
-0.00204013
0.00126815
-0.0043736
0.000527406
0.00497673
-0.00753043
0.0004062
0.000731572
-0.00196949
0.00123789
-0.00231373
0.00512897
-0.00281256
-0.00244987
0.00745848
-0.00253677
0.00886195
-0.0088537
0.00752334
-0.000469151
0.000948616
0.00849353
-0.000567409
-0.0057429
0.00601969
0.00511974
-0.00793175
0.00279757
0.00228926
0.00210899
0.00444362
-0.00670925
0.00735898
-0.00491015
-4.023e-05
0.000368551
-0.000230587
-0.00314937
-0.00854638
-0.000382128
0.0019037
-0.00273411
-0.00921235
-0.00283674
0.00112105
0.00171574
-0.000168153
0.000190996
-5.44827e-06
0.000627137
0.00920499
-0.0105793
0.00297176
0.00045769
-0.00469082
0.000918635
-2.59676e-05
0.00249193
-0.00259619
0.000104263
0.00356422
-0.00214593
-0.0055722
0.0031494
0.00242641
0.00113787
0.00564511
-0.00682396
-0.00772971
0.00659742
0.00285491
-0.00838948
0.00746259
0.000908175
-0.00306346
0.000305692
0.00245017
-1.41569e-05
0.00241368
0.00217022
-0.00943642
0.00063044
0.00873466
-0.00132866
0.000235668
-0.000567611
-7.52279e-05
-0.00713482
-0.000413289
-0.00340223
-0.0049744
0.00117786
0.00199256
-0.00687344
0.00776117
-0.000933032
-0.00537707
-0.000930781
0.00633011
0.00938943
0.000304618
0.00622713
-0.00654926
0.000747363
0.00582826
-0.00655841
-0.000580902
0.00645132
-0.00588437
-0.00306132
0.00338256
0.00403798
3.33728e-05
-0.00386712
-0.00599647
0.00708587
-0.00280302
-0.00221654
0.00501708
-0.00212611
3.68493e-05
0.00208928
0.00174865
0.000692598
-1.06529e-05
2.7069e-05
0.00120824
0.00623535
-0.00740308
-0.00239293
0.000440963
-0.0017704
0.00254234
-0.00278251
0.00347286
-0.000690419
-0.00701526
-0.000292373
0.00736573
0.00522949
-0.00582281
-0.00649785
0.00114482
0.00378716
-0.00217038
-0.0016171
0.00806906
-0.00339505
-0.00467749
-0.000563748
-0.00643832
0.00719113
0.00031628
0.00704623
-0.00712587
-0.0075158
0.00876701
0.00704136
0.000457992
-0.00136208
0.00933435
-0.00792636
0.00254797
-0.000337562
-0.00221057
-0.00440786
0.00545755
-0.00147648
0.00222921
-0.00277524
0.00042814
0.00675448
-0.00182375
-0.00494073
-0.00135333
-0.00148334
-0.00152194
-0.00167912
0.00285259
-0.00468839
0.00382814
-0.00182101
-0.00714413
-0.00223221
0.00934101
0.00243874
-0.000828703
-0.00161006
-0.00340126
0.00198918
0.00141198
-0.00116305
0.00314579
0.000514224
0.00797063
-0.00863538
-0.00522455
-0.00519173
0.00456603
-0.00443775
0.00086056
-0.00302689
0.00190459
0.00118399
0.00432442
-0.00551418
-0.000356397
0.00226238
-0.00116969
-0.000612748
-0.0076398
-0.00133815
-0.00595378
0.00744687
-0.00151872
0.000430177
0.000147889
-0.00902241
0.007693
0.016185
-0.0134376
-0.00222629
-0.000195153
0.000195153
-0.000779723
0.00332744
0.00463776
-0.000104265
0.00636074
-0.00627965
-0.00959196
0.00854461
0.000988478
0.00159845
0.00438556
-0.00598733
0.00509039
-0.00549033
-0.00648219
0.00848585
0.00248897
7.65526e-05
-0.00256552
-0.00375809
0.00138621
0.00237194
-0.00431336
-0.000671739
0.00499643
0.000977174
0.00708141
0.00263914
-0.000211518
0.00793095
-0.00755431
-0.00036932
-0.00261284
0.00285934
0.00171085
-0.00457114
0.000221718
-0.000358037
-0.000165615
0.00199883
-0.00352079
-0.00374661
0.00573746
-0.0019929
-0.00517844
0.00132715
-0.000462141
-0.00232042
-0.00611333
0.00687823
0.00746733
-0.000775515
-0.00801581
0.0017572
-0.00175877
-9.08778e-05
-0.00503554
0.000276748
0.00481473
-0.00195666
-0.00268363
-0.000506587
-0.00195489
-0.00144641
0.000657155
0.00526498
0.0108495
-0.0074339
-0.00232376
0.00257239
-0.00184086
0.00309124
0.00853911
-0.00636248
-0.00748736
-0.00719751
-0.000188038
-0.00617507
0.00165351
0.00818298
-0.00587585
0.00367743
-0.00583034
0.00214866
-0.00377471
0.00327108
0.00191031
-0.00814546
0.00620521
0.00661208
0.00158283
-0.0127003
0.00626329
0.00668539
0.00484006
-0.000127235
-0.00455001
-0.00186524
-0.00272834
0.00705148
-0.00689979
0.00941853
-0.00904136
1.71292e-05
0.00906784
-0.00967469
-8.13073e-05
-0.00488545
-0.00429365
0.00577516
9.39759e-05
-0.00585075
-0.00712373
0.00900168
0.000739428
-0.00231334
0.0110348
-0.000522377
0.00147973
-0.000252548
0.00234174
-0.00421804
0.00187585
-0.00604738
-0.00653641
0.00028979
-0.00271764
0.00150028
0.00238181
-0.00386104
0.0041908
0.00785958
-0.000410322
-0.00803613
-0.00244927
0.00755459
-0.00950858
-0.00337733
0.00978468
0.00450223
-0.0026558
0.000864027
-0.00100576
-0.00347403
0.00787027
0.00863508
-0.00896803
0.000118969
0.00651922
-0.00748658
0.00546113
-0.00653103
0.00103954
-0.00310463
0.00093739
0.00719299
0.000553486
0.000321221
-0.00741357
-0.000107882
0.003671
0.000613766
0.00409229
-0.00463337
-0.00365912
0.000962386
-0.00452204
0.000402163
-0.000415823
-0.00581261
0.00129016
0.0047263
-0.0104923
-0.00049589
0.010763
0.00491788
1.51047e-06
0.00735916
-0.00823632
4.93691e-05
-0.00111364
-0.00820207
0.00928565
0.00852441
-0.00763023
0.00440153
-0.00572859
0.000105365
0.000695768
-0.000252611
-0.00316589
0.000707928
0.000378054
0.00718322
-0.00754817
-0.00435147
0.000602821
-0.00267261
0.000195919
-0.00622768
0.000666194
0.00605834
0.00227968
0.00530024
-0.00645381
0.00546412
0.00126312
-0.00260456
0.00035851
-0.00735765
0.00580104
0.0018864
0.00239312
-0.00619878
0.00380262
0.005097
-0.00590404
-0.000127315
-0.00983882
0.000510497
0.00859501
-0.0011577
-0.00861474
-0.00357737
0.00522611
-0.00164607
-0.00278884
-0.00268371
0.00184122
-0.000601748
0.00121218
-0.00107461
-0.00151225
0.00108162
-0.00701321
0.00592446
-0.0023933
0.00122285
-0.00423794
0.00192596
0.00185457
0.00391401
-0.0057465
0.000316289
0.00797719
-0.00853981
-0.00336251
0.00626964
0.00453425
-0.00251919
0.00269897
0.00332506
-0.00603683
0.00622444
-0.00858032
0.00242758
-0.00388233
0.00109395
0.00243905
-0.00211609
0.00317896
0.000223415
0.000188244
1.47344e-05
-0.00303295
0.00543681
0.00539109
-0.00163806
-0.00375568
0.00825065
0.00128397
-0.00152542
0.00449903
-0.00808665
0.00883864
-0.000846544
-0.0020374
-0.00105137
0.00308898
0.00510199
-8.85718e-05
0.00150842
0.00147176
-0.00298016
0.0023956
-0.0045836
0.00218613
0.00810414
-0.000698336
-0.00252299
0.00445951
-0.000374453
-4.66677e-05
0.00177194
0.0020148
-0.000968266
0.00521862
-0.00428308
-0.00147027
0.00145626
7.01618e-05
2.27968e-05
-0.00423928
0.00313703
-0.00264578
-0.00267427
-0.000747381
0.00101233
0.00319029
-0.00880675
0.0056997
-0.00117117
-0.00623229
0.00737944
-0.00753946
0.0073065
-0.002752
0.00799846
-0.00488367
-0.00313936
0.0127356
-0.00508576
-0.00780634
-0.00766878
-0.00331725
-0.00436898
0.00709722
0.00536845
-0.00915992
0.000516921
0.00197206
-0.00370438
0.00487434
-0.0011676
-0.00567162
0.00755113
0.00543947
-0.000145708
0.00862004
-0.000292567
0.00857093
-0.0083114
0.00024995
0.00475968
-0.0080475
0.00135141
0.00212127
0.00839434
0.00109312
0.00114938
-0.00143254
0.00142712
0.000928632
-0.00235576
-0.00212084
0.00361352
0.00759672
-0.000175627
0.000158143
-0.000196044
-0.00186848
-0.00300443
0.010689
-0.00772033
0.00800653
-0.0077855
7.92183e-05
-0.00311518
-0.00335539
-0.0068667
1.24766e-05
-0.00696656
0.0088874
-0.00195064
-0.000339328
-0.00729702
0.00762096
-1.97779e-05
0.0025096
-0.00015617
-0.00492278
0.00235809
-0.0011885
0.000390091
-0.000277859
-0.000214444
-0.00481534
0.00201061
-0.000231992
-0.000367507
0.000848913
-0.00327777
-0.00554809
0.00876031
-0.00239857
0.00216458
0.00662497
-0.00774948
-0.00211484
0.00453669
-0.00242303
-0.00300721
0.00259544
4.23045e-05
-0.000506332
0.000546943
2.45167e-05
0.0094202
0.00168646
0.00369156
-0.0058359
0.00214775
-0.00013897
-0.00304341
-0.00463523
0.000830823
0.00639562
-0.00609423
-0.000453933
0.00140277
-0.00140706
0.00617453
-0.00190905
0.00341749
0.00131813
-0.00710316
0.00203802
-0.00163474
0.000970772
0.00556981
0.00138745
0.00065065
0.000170349
-0.000786885
0.00496752
-0.00798268
8.51328e-05
0.00890557
-0.00893534
-0.00285359
0.0072427
0.006744
0.000321616
-0.00625013
0.00448667
0.00211222
0.01163
-0.00618473
-0.00126752
-0.00784969
0.00908379
0.00214106
0.00507048
-0.00730654
0.00503199
-0.00487304
-0.000163403
-0.00214963
-0.00374135
0.00588918
0.00915242
-0.000713133
-0.00120713
0.000238418
-0.00537721
0.00258551
-0.000161773
0.00223769
-0.00219284
0.00868674
-0.000358713
4.12371e-05
0.00564455
0.0063924
0.00374321
-0.00340128
-0.00197797
0.00882912
-0.00979749
0.00228263
-0.00439894
0.00572643
-0.000462321
-0.00526956
0.00604237
0.00153191
-0.00758269
-0.00863521
0.00754418
0.00106473
0.000895787
0.00167651
-0.00904733
0.00015189
0.00195617
-0.00507582
-0.0027721
0.00171936
0.00105269
-0.00300484
-0.00181272
-0.00268061
-2.53602e-05
0.0027054
0.00173002
0.00365889
-0.00525261
0.00948289
-0.00456673
-0.00250456
0.000378454
0.00837541
-0.00635757
-0.00126203
0.000780647
-0.00378698
0.000591205
-7.23286e-05
-0.00200261
0.00704111
0.000528489
0.00545019
-0.00509568
-0.000364606
-0.00366158
-0.0023936
0.00606823
0.000991812
-0.00234502
-0.00194962
0.00339547
-0.0014459
-0.00365181
0.00862696
0.00561026
-0.000177391
-0.000762494
-0.00716606
0.00453536
-0.00131039
-0.00322569
0.00621296
-0.000776718
0.000834072
-0.00138281
-0.00750845
-0.00781481
0.000967066
0.00661048
-0.000269154
0.00729367
-0.00212913
0.00336239
0.00443987
-0.00210585
0.00277407
-0.000950934
-0.00182312
-0.0089952
0.00816301
0.00605701
-0.00687571
0.00112377
-0.0031609
0.00238974
-0.00422308
0.00183396
0.00841006
-0.00881979
2.18616e-05
-0.00680929
4.71877e-05
0.00674558
0.00417029
-0.00604444
0.00245849
-1.97611e-05
-0.00430461
0.00796937
-0.00343911
-0.00400343
-0.00156607
-0.00210334
0.00444429
0.000702568
-0.00265225
0.00103499
0.000109181
0.00840389
0.00416992
-0.00207816
-0.00209218
0.00135158
0.00675568
0.00488213
-0.00137069
-0.00789821
0.0045526
0.0059181
-0.00432347
-0.00221225
-0.00660347
0.00877938
-0.000693295
-0.0117167
0.00843427
0.00319081
-5.65982e-05
0.0023745
-0.00828835
0.00177778
0.00651046
0.000271235
0.00166323
-0.00465371
-0.00363866
0.00629822
-0.00415523
-0.00214719
0.00114637
-0.00501258
0.00386035
-0.000529954
-8.16219e-05
0.000644608
0.00044571
0.00386471
-0.00377619
-0.00952159
0.00161542
0.00771642
0.00618495
-0.000327917
-0.00604293
-0.00237655
-0.000326154
-0.00277376
-0.00139986
0.0063021
-0.000585741
0.00616219
-0.0037712
-0.000298926
-7.00077e-05
3.91214e-05
0.00562227
-0.00391251
1.32163e-05
0.00265875
-0.00169583
-0.00184954
-0.000922597
0.000219955
-0.00751982
0.00717908
0.00600215
-0.00608517
8.20963e-05
-0.000701348
0.00516136
-0.00276674
-0.00661209
0.00172973
0.00440344
0.00990085
-0.00687995
-0.00105639
0.00661719
3.63334e-05
0.0102499
0.000455928
-0.00825029
0.00715993
0.0010622
0.000826266
0.00283526
-0.00365934
0.00296996
-0.00698552
-0.00676491
0.00478852
-0.00331116
-0.00147513
-0.00693438
-0.00193928
-0.00168498
0.00168827
0.00310335
0.000358354
-0.0109507
0.00712091
-0.0037861
-0.00618506
0.00769617
-0.00561767
0.00999798
-0.000743177
0.00424551
5.33886e-05
-0.00429763
0.00182017
-0.00184133
0.00315042
-0.00130908
-0.00420332
0.00487289
-9.96578e-05
0.00431521
0.00825702
-0.000707165
-0.00820368
0.00746955
-0.001488
-0.00622133
0.00905652
0.00352809
-0.00945928
0.00736473
0.00177503
0.00143466
-0.0032092
-0.00771683
0.00780808
0.00524447
0.00190828
0.00262383
-0.00772834
0.00699323
-0.000962925
0.00945348
0.000704515
0.00275702
-0.00120484
-0.00155218
0.000561513
0.00831847
-2.81728e-05
-0.000134844
0.00119764
-0.00308402
0.00422566
-0.00225473
0.00196347
-0.00222422
-0.00664286
0.000208607
0.00274652
0.000852155
-0.0025688
-0.00461778
-0.00762419
0.00474835
0.000189031
-0.00493874
0.000157479
0.00840925
-0.00868573
0.0032786
-0.00614317
-0.000368333
0.0083615
0.0099723
-0.000519641
-0.00560165
0.00345133
-0.002619
-0.000692762
0.0033117
-0.00668904
0.00592987
0.000756182
-0.00210382
-0.012928
-0.00539651
0.00664329
-0.00127762
0.00414665
-0.00639668
0.00224243
-0.00704831
0.00492122
0.00126482
-0.00619052
0.00163733
-0.00912371
0.00728168
-0.000131113
-0.00294098
-0.00224314
0.00272902
0.00117707
-0.00145045
-0.00653367
0.000210579
-0.00085579
0.00572805
-0.00487065
0.00019462
-0.000461201
0.00206671
0.0054437
-0.00756525
0.00204772
0.000596173
-0.00264397
-0.000747395
0.00275988
0.000368551
-0.00221423
0.00307466
0.00309436
-0.00674702
-0.00493439
0.000621554
0.00563486
-0.00654128
0.000592956
-0.000291557
0.00024515
-0.00286427
-0.0023326
-0.000740539
-0.00225627
9.54877e-05
0.0021902
-0.00780217
0.00980149
-0.00725656
0.00816311
-0.000948178
-0.00241788
0.00224129
0.000176598
0.000290352
-0.00728882
-0.00267291
0.00271621
0.000215944
-3.39625e-05
-0.00101858
0.00156198
-0.00591826
-0.00594215
0.000436539
-0.00311763
-0.00811691
0.000821799
-0.00892778
0.00779714
0.0121872
-0.0114633
-0.000182697
-0.00192065
0.00289658
-0.00573966
0.00839827
-0.00697273
0.00549303
-1.11505e-05
0.00732291
0.0004333
0.00362688
-0.0111096
0.00728143
-0.00244954
0.00273934
-0.00368798
-0.00215372
0.00585492
0.00733144
0.0011332
0.00093274
0.000459371
0.00601191
0.00648446
-0.00872709
0.00421486
-0.00211042
-0.00210585
-0.00284957
0.000710048
0.00213956
-0.0106069
0.00141508
0.00891415
0.00617203
-0.00189604
0.00286334
-0.000966841
0.00487036
-0.00633259
0.00125234
-0.000249372
0.00640704
0.00705001
-0.00257101
0.00012585
-3.73345e-06
-0.000238218
0.00613884
-0.00607982
0.000155877
-0.000597028
-0.00316104
-0.000768543
-0.00623182
-8.24474e-05
-0.000521275
0.00130995
-0.000311998
-0.00991745
-0.009091
0.00787577
0.00119526
0.000225992
0.00587973
0.00779477
-0.00832153
-0.00439701
0.00557327
-0.00211718
-0.00191506
0.00403314
0.000231057
-0.000125291
-0.000680935
-0.00479701
0.000185576
-0.000202146
0.00178666
-0.000228478
0.00549961
0.000815333
-0.00634694
-0.00653225
0.00656112
-3.6665e-06
-0.006536
0.00644435
-0.00405865
0.00762092
-0.00362379
-0.00582433
0.00152333
-0.000512295
0.00753802
-0.00558387
-0.00269014
0.00994067
-0.0073838
0.00250205
-0.00149353
-0.00100853
0.00243306
0.00405333
-0.00650396
0.00937863
0.000788156
0.00813685
-0.00355613
-0.00456524
0.00118071
-0.00243483
0.00117008
-0.00666094
-2.51394e-05
0.000120059
0.00197543
-0.00234438
0.00427585
-0.00576673
0.00148062
-0.00649757
0.00235793
-0.00207795
-0.00122275
-0.00773439
-0.00193728
0.00945672
0.00140069
-0.000876659
-0.000422356
-0.00570223
0.00109621
-0.000521366
0.00232106
0.00299733
-0.00532194
0.00883278
-0.00333509
0.0037797
-0.0042094
0.0153458
-0.0146434
-0.000617621
-0.000325149
0.00564197
-0.0053246
0.000878432
9.43701e-05
-0.000971357
0.0103285
-0.0011301
0.000131352
0.00221335
-0.00239308
0.000342986
0.00834255
-0.000186423
-0.00338831
0.00277719
-0.00135007
-0.00832881
0.00800389
0.00496306
0.00317634
0.00903365
-0.000608316
0.00359619
0.00280878
-0.00191313
-0.000477035
0.000901746
0.0066753
-0.00766633
-0.00771448
-0.00175972
0.00939679
0.0111769
-0.00186979
0.00277577
-0.000905985
-0.00212255
0.00200461
-0.00124737
-0.00761053
0.000298791
-0.00843492
0.000856681
0.00749596
-0.00368174
-0.00518357
0.00888241
0.000380566
3.42262e-05
-7.03077e-06
-0.00763776
0.00204464
0.00248999
0.00330774
-0.00126013
-0.00273584
0.000688752
0.000511667
-0.0042133
0.0011877
0.00131433
-0.000102115
0.00416225
-0.0060768
0.00191133
-0.00338528
0.00163016
-1.94951e-05
-9.1068e-05
-3.36533e-06
0.00801748
7.61791e-05
0.000385761
-0.00139197
0.00226982
0.0036458
-0.000705385
0.00918
0.00136028
0.00179003
-0.00593178
0.00700449
-0.00597812
0.000766622
0.00519872
-0.0112719
0.00956444
0.00166741
0.00204924
-0.00423181
0.00218124
0.00184503
-0.00228974
0.000444703
-0.000868165
0.00293671
-0.00206858
-0.007088
0.00832267
-0.00129527
0.00890354
-0.00834914
-0.000617795
-0.00093149
0.00411216
0.00149727
0.00211493
-0.00786912
0.00100083
0.00655941
0.000706334
-0.00284636
0.00214045
-0.00226811
-0.00327338
-0.00458514
-0.000419195
0.00499812
0.000196615
0.00296565
-0.00316309
-0.00295273
0.00418738
0.00941336
-0.00196821
-0.0107691
0.00849514
0.00212468
-0.000364593
0.00799486
-0.00217077
0.00883995
-0.00672162
0.0014841
0.00160995
0.00173639
0.00130369
0.000635022
0.000995981
-0.00247386
0.00230465
-6.91537e-05
-0.00223544
0.00101455
0.00719094
-0.00574628
0.00194895
-0.00406446
-0.00335639
0.0041852
0.00149097
-0.0048454
0.00665147
-0.00612059
-0.00634627
-0.00715504
-0.00100382
0.00804035
0.0079226
-0.00749795
-0.00225661
0.00135457
-0.000554541
0.00830107
-0.00680103
-0.00230528
-0.00119033
0.00349543
-0.00275711
0.000538694
0.00344323
-0.000152681
0.0070165
-0.00654383
0.00475584
0.00177765
-8.80093e-05
-0.00388871
0.00615612
8.03128e-06
-0.00690705
0.00675415
0.00332883
-0.00162676
-0.0025814
0.00386938
-0.00128873
-0.00206048
0.0048365
-0.00277789
0.00741921
-0.000514701
-2.856e-05
0.000772999
0.00733789
-0.0074862
-0.000405175
2.52834e-05
-0.00310896
0.00251352
0.00215277
0.00563999
-0.000725908
0.00499451
-0.00682282
0.00246247
-0.00272715
-0.000495877
-0.00755878
0.00796806
-0.00201955
0.0027296
0.00965763
-0.00867845
-0.00116495
-0.000141784
0.00129434
-0.0010119
-0.00119943
0.00358936
-0.00290221
0.00293332
0.000575034
-0.000155058
-0.00643193
0.000859863
-0.00460098
0.00258865
0.00537833
-0.00807825
0.00209499
-0.00210201
7.02489e-06
-0.00550151
-0.000327778
0.00234397
-3.93133e-05
-0.00459141
0.00121062
-7.89792e-05
0.00779317
-0.00066249
-0.00939793
0.00129148
0.00803792
-8.24142e-07
-0.000240808
0.00516369
-0.00398819
-0.00835449
-0.000817491
0.00877206
-0.00187668
-0.00161799
0.00349425
0.00832255
-0.000870672
0.00758815
-0.00753283
-0.00726131
0.00613525
-0.00496845
0.00168624
0.00284771
0.00460083
-0.00329039
-0.00316508
0.00602248
-0.000227527
0.00102113
-0.00137507
-0.00312587
0.00350448
-0.00037855
0.00587908
-0.000159178
-0.00572394
-0.00584052
0.00735885
-0.00862008
-0.00208551
0.00191061
1.7755e-05
-0.00201447
0.0027539
-0.00138498
-0.00276619
0.00415163
0.00328464
0.00233622
0.00134833
-0.00217705
0.0127569
0.000147513
-0.00150038
-0.00667144
0.00136562
0.00421484
-0.000152182
-0.00209096
-0.000782338
0.00859382
0.00428251
0.00200333
-0.00627344
0.000474838
-0.00651166
-0.00221722
0.0103618
-0.00816708
-0.00752977
0.000857208
-0.000831991
-4.92788e-05
-0.000245868
-0.000752792
0.00512802
-0.00546057
0.000324134
0.00229716
-0.00203636
0.000798841
-0.00126941
-0.000674069
-0.00452003
-0.00458053
-0.00684306
-0.00376733
0.00310338
-0.00142224
-0.00131363
0.00109754
0.00699111
0.00274002
-0.00120183
-0.0015382
-0.00599887
-0.000494109
0.00692491
0.00831317
-0.00128291
-0.00720802
0.00730383
0.00316471
0.00171485
0.000771493
-0.00681049
-0.000583339
-0.00764515
-0.000630033
0.00824467
-0.00573425
-0.00108012
-0.00595551
0.00702236
0.00196234
0.0066823
-0.00399419
0.00213771
-0.00445449
-0.00409381
0.00352395
0.000570763
-0.00168572
0.00795379
-0.000296655
0.00381417
-0.00351892
-0.00245239
0.00263292
-0.00900904
0.00807059
0.000893638
0.00124121
0.00310879
0.00530841
0.000981829
0.00820252
-0.0095022
0.00134853
0.00628087
-0.00585032
-0.00692032
0.000443476
0.000771928
-0.00593169
-0.00777132
6.11413e-06
0.0107705
-0.00796497
0.00764127
0.000845884
0.00877964
-0.0101693
0.00305473
-0.00224849
-0.000693924
-0.00365377
0.00322359
-0.00144809
0.00160825
-0.0094992
0.00819759
0.000141178
-0.00854079
0.00456681
0.00274816
-0.000472376
-0.00275394
0.00063929
-0.000778836
-9.81318e-06
-0.00744169
-0.000618021
0.00803042
-0.002755
0.00472707
-0.00197257
-0.000590257
0.00483685
0.00631324
-0.000179067
0.00558317
0.00295163
-0.00202557
-0.00207212
0.00317635
-0.00110448
-0.00576232
-0.00325058
0.00899155
0.00165273
0.00116789
-0.00282063
-0.00734153
0.00357575
0.00375525
0.000693062
0.00793639
0.00123402
-0.00825341
0.00909289
-0.000955023
-0.001566
-0.0016476
0.00321342
-0.00260009
0.000730355
-0.00699159
0.00208619
0.00305071
0.00747894
-0.000555552
-0.0085454
0.00872296
-0.000360282
0.00644994
-0.00964714
0.00155006
-0.00235575
0.00080569
-0.00129332
-0.00755309
0.00874634
0.00923918
0.000571258
-0.000742942
-0.00363114
0.00173554
-0.00539987
0.00332954
0.00207431
0.00830369
-0.00030331
-0.00810313
0.00432981
-0.00518461
0.00177433
-0.00740039
0.00559058
-0.00782888
-0.00120477
-0.00225295
0.0029597
-0.00175051
0.00503364
0.00364601
-0.0118891
0.00813118
0.00454902
-0.00305516
-0.00479664
-0.000307406
-0.00683851
0.00233097
0.00451562
-0.00128923
-0.00280403
0.00185904
-0.00703441
-0.000201966
-2.85779e-05
-0.00218389
0.00208473
-0.00525347
0.00372472
-0.00312657
0.00224314
0.000883427
0.0091435
-0.00431887
0.00127891
-0.00341931
-0.000308927
0.00437489
-0.00406444
-0.000545732
-0.0063023
0.00640136
0.000494254
0.00199768
-0.00179198
-0.000166934
0.00195892
0.00329359
0.00016676
-0.00226552
0.000773414
-0.000922416
0.00982039
-0.00136616
-0.00674758
0.000187424
0.00201255
-0.00414672
0.00213661
-0.00322543
0.000643417
1.57513e-05
-0.00567687
-0.00133951
0.00109342
-0.00680945
0.00293196
0.00190238
-0.000430212
2.91889e-05
0.00238518
-0.00924191
0.00682534
-0.0126223
0.000947704
-0.00471432
0.003814
-0.00089406
0.00998102
0.00366314
0.00215205
-0.0058133
-0.00132993
-0.00764147
-0.0023469
-0.00448346
0.00279834
-0.00858427
-0.00329964
0.00310944
0.000228799
0.00526254
-0.00119719
-0.00407323
0.000582363
-0.0091136
0.00196981
0.00107168
-0.00319171
0.0012827
-0.00613608
-0.00187193
-0.00554488