/*--------------------------------*- C++ -*----------------------------------*\
| =========                 |                                                 |
| \\      /  F ield         | OpenFOAM: The Open Source CFD Toolbox           |
|  \\    /   O peration     | Version:  v2012                                 |
|   \\  /    A nd           | Website:  www.openfoam.com                      |
|    \\/     M anipulation  |                                                 |
\*---------------------------------------------------------------------------*/
FoamFile
{
    version     2.0;
    format      ascii;
    class       volScalarField;
    location    "750";
    object      omega_0;
}
// * * * * * * * * * * * * * * * * * * * * * * * * * * * * * * * * * * * * * //

dimensions      [0 0 -1 0 0 0 0];


internalField   nonuniform List<scalar> 
9793
(
0.0222241
25.3294
0.0219228
4.75131
0.0222597
0.257932
0.0828865
11.4795
0.0219458
32.674
0.0221977
0.0221886
0.0219107
5.82984
0.0217075
0.0245932
0.0545851
0.0219182
5.0364
0.021532
0.0215645
0.0222916
5.60023
11.4167
6.06985
0.025735
0.022099
0.022262
0.0215426
0.0827988
15.2012
0.441838
0.0220109
0.0219338
0.0218626
0.0274848
0.0233151
0.0242859
3.89737
0.0302794
0.0713447
3.37587
14.3246
0.0222716
0.0219545
0.0220417
11.7342
0.0222842
0.0215688
0.0219252
0.0271128
0.0218459
0.037236
0.0222685
0.0316496
4.5646
0.0219205
0.102471
0.0215774
0.0222914
0.0261362
0.092001
0.0219395
0.0334178
0.0219623
0.0218963
40.5986
0.0235578
0.0235787
11.7037
0.0219131
0.0945073
11.7941
2.40889
6.9891
0.0222625
0.0432016
10.2696
0.021976
0.0222705
0.0463989
5.34986
0.052322
0.0234606
0.0236431
0.283201
0.0222611
0.0754429
4.04695
0.0871116
4.7918
1.38631
1.52613
0.0404891
14.4687
0.0218904
5.48472
0.0506137
0.0241889
0.0222684
4.13187
0.0353575
3.35147
0.0219603
7.52168
10.9337
2.25725
0.021873
0.0219808
0.0222835
0.0222336
5.22511
3.09008
13.4223
0.0218966
0.0221116
0.0229635
0.0220497
4.25917
0.0220271
7.3881
0.0820835
2.47723
0.0430976
0.0233636
0.0220329
0.0626752
12.7499
0.213595
0.220756
0.0230176
0.0217848
0.0221488
0.0228663
0.0264142
0.163225
0.480061
0.0230007
0.0222734
0.0632705
8.55177
0.0266369
0.0218758
0.0574906
11.3123
0.543782
0.0220332
6.89498
0.0217802
0.0220274
0.0220691
18.1936
0.0237316
0.0220912
0.0218974
1.27092
0.0584751
0.0219336
0.558456
0.0218787
0.070287
0.023124
0.0215735
0.323619
0.0218019
8.90031
3.05978
0.0219288
0.0218744
0.0222178
0.0218861
10.1199
29.0412
5.48761
0.0219038
0.228753
0.128874
0.639394
0.0219589
0.0234709
5.55604
12.6858
0.0905187
0.0220342
0.0220718
0.0218676
1.69497
11.2622
19.3526
3.65126
0.0218533
37.1446
0.410749
0.0246984
0.0215722
0.022955
2.02112
0.0215741
0.0219152
0.0222055
0.0219251
0.0215494
0.0281426
0.0239775
3.75513
0.0218971
0.0275048
0.021923
0.0222007
0.383599
0.0606791
11.8362
0.021617
12.1187
0.0234864
0.0370641
0.0217176
0.159397
0.0221208
0.0475955
0.0548241
0.0215548
1.4325
3.92841
0.0385575
0.0218724
0.0529813
3.24225
0.0469376
0.0475837
3.91595
0.158216
0.0352174
0.0342016
0.348735
0.0214914
5.59069
11.9101
0.0215823
0.0222229
2.41031
0.0218684
0.0222313
0.123698
0.136403
0.0218939
0.0234852
0.0286316
0.0366384
0.0234756
0.0219656
0.0433683
4.70624
0.0215566
5.21849
0.0222619
0.0221712
0.0216379
4.42154
0.0219736
3.10267
10.1554
0.0221031
0.0221308
3.55653
0.0217491
0.0222397
0.0217101
9.83744
0.249223
0.0243177
0.379923
0.0957022
3.261
7.15092
0.0219588
19.03
0.0222642
3.40864
9.48066
4.49135
7.53277
0.151636
0.0230173
0.0473534
0.0237193
0.021579
0.0219584
0.394434
0.0258918
0.0221397
0.0222838
0.0216139
0.0215591
0.0215634
5.91596
0.0218632
0.02171
0.0216779
0.0219131
8.35039
0.522017
0.0601081
0.0226099
0.0592725
0.0217478
0.61238
13.8646
0.0219663
10.2981
0.0316542
0.0219475
33.733
0.805556
0.0220193
0.0458358
14.2324
0.0220414
0.0323622
0.0217053
0.0221107
3.46174
0.0394153
0.0219448
0.0220208
0.0225104
0.164181
3.28524
0.0219272
0.0218661
0.021633
10.5763
11.0814
8.74013
0.0214972
0.0414895
0.0329596
1.95611
0.0752098
0.0214696
0.0215104
0.0216372
0.0458821
0.02199
9.6131
0.0220869
0.0217624
3.02974
5.87195
11.2481
0.0216075
4.07295
0.0240967
4.34864
10.1999
3.88714
0.0231622
0.0310938
0.476255
4.80451
4.9665
0.0256364
0.0222633
0.0246633
0.0215457
0.0218461
0.0219747
0.0220807
0.022292
9.7757
0.0222073
0.0630421
0.0298633
0.466116
0.0214653
0.0235318
7.33249
0.454165
5.1713
0.0726306
0.0217659
0.0232287
0.0219265
0.421947
0.0215525
10.6447
0.147629
0.0826724
8.60505
3.53419
0.0221375
0.021874
0.476513
0.392719
0.0218971
9.99916
0.0221313
0.0221773
7.05805
0.021615
0.104378
0.0215008
2.98211
0.0220921
0.0218046
1.45161
0.088177
0.0492979
0.0247083
0.022074
0.0218052
3.18845
0.0504326
0.0215077
0.0221963
0.0329778
0.0330987
0.0478
11.981
0.0221974
0.02193
0.377973
0.0220809
4.2263
0.628279
0.0220636
0.0220165
0.0219428
0.0221162
0.0216197
4.10938
0.0480153
7.09157
0.0278188
0.0224659
0.0431956
0.0240302
4.24611
0.025456
0.0222677
0.0235585
0.458841
0.0218874
0.0218805
0.0219127
0.0215558
0.021984
0.0217351
0.0220437
0.022158
0.022613
0.0237045
0.123705
0.0217445
1.50154
0.0249032
0.195105
7.17484
0.0215882
2.77549
0.0818347
0.0215831
0.0215552
0.0218786
3.84566
0.0970367
0.0215513
0.0221202
0.022199
0.0622353
0.144726
10.5
0.0219757
0.021899
0.0302635
12.0087
4.37093
0.0232702
0.0225735
5.012
7.35765
0.231782
0.0220869
0.0217735
3.73903
0.0218935
0.127127
0.542308
0.0215003
0.221291
0.0263206
4.23201
0.0218083
4.17472
0.357797
0.0242637
3.16048
0.0218928
1.69866
0.0220936
0.0218716
0.0222234
0.0219338
9.54125
0.0218841
0.0215766
0.02259
0.0215059
0.0217731
0.0454237
0.0225244
0.0329893
0.0220342
0.0220381
6.11778
0.0694135
0.0232266
5.58767
0.0233984
0.022088
0.0219781
0.0216171
9.76787
0.0215668
0.022069
16.1393
3.60857
0.0378206
0.0219188
0.022284
0.0218971
0.022241
5.06391
0.0220803
3.82317
0.0231407
1.88398
0.022262
33.4012
0.0220116
0.211222
0.0219006
0.0994281
6.54255
0.0221024
3.20834
0.0218765
0.0222182
0.0215589
1.79085
3.80003
0.0218842
0.0271428
0.0215551
4.45695
0.0216768
0.0441279
4.1999
0.0245336
0.0220261
0.0431786
0.022245
0.021921
0.021655
0.114626
0.0219545
4.01118
0.0220517
0.0219978
0.0374741
0.0735886
0.391202
0.0217065
32.6498
0.0218682
0.189103
0.0218934
0.021887
0.0218895
0.0220496
0.0222681
0.199034
0.0359479
4.18216
0.122212
0.0335683
0.0327662
5.55674
0.0231062
4.98852
14.9536
0.242192
12.1342
0.479852
0.16788
0.0219186
3.3159
0.0366981
0.0218388
0.325797
0.0222509
0.384583
0.0345832
0.248945
0.02667
5.51866
14.707
0.0349209
0.219618
0.0222172
0.581001
0.022566
0.0219042
0.0219804
0.022479
0.0461577
3.88287
0.249468
12.2355
0.022878
0.0230502
4.31012
0.30585
0.0224269
0.0654498
0.0222226
5.13801
1.39405
0.022058
0.0601513
0.252781
15.4284
0.0219571
0.0250558
7.1512
0.0273729
1.62277
0.10473
0.456178
0.0249543
0.0232201
0.0217867
0.0218994
0.270422
0.0222842
0.288747
0.151949
0.0799988
0.0222595
0.0222239
0.0225982
0.0217194
0.0218271
0.0218732
0.110274
2.64232
6.35222
0.0222796
0.315802
0.0219456
13.3811
0.0475181
0.0446003
0.0325121
0.33734
0.0217385
0.0220602
0.0410142
0.0218921
0.021864
0.0632758
5.12547
0.0215467
0.248424
4.46009
0.0236972
3.43161
4.51298
0.0217408
0.0556121
0.0251065
0.021852
0.0215608
0.0946976
4.55508
12.5696
0.0218959
0.0220146
0.0216156
0.0231618
0.0225456
0.0233337
0.530648
0.0472489
0.0221517
4.04987
0.0283245
0.0320185
0.0218321
29.3844
0.0228755
0.021916
0.0820457
2.11411
0.0215067
0.0220492
0.0219345
0.023871
0.0217339
0.0360914
0.534749
0.0220522
0.114851
0.0223052
0.021799
0.402671
9.85954
0.272749
0.0220741
0.0215093
0.498533
0.0251407
0.381983
0.0214891
0.0218746
12.8877
3.76593
0.0292446
0.112567
0.0587098
0.0218683
0.0222717
0.0218369
15.2867
0.0220569
0.0222928
4.66704
0.0265029
0.341271
0.0313008
0.0219303
7.37258
0.0222679
0.0218909
0.0218343
0.0294331
5.27959
0.0221629
0.0219662
0.0218895
0.0218782
0.0219365
0.0218
13.4293
0.0303519
0.022559
0.0221096
0.030397
0.0632637
0.0244618
0.0274095
0.0222839
0.0216106
0.0228792
3.89693
3.80494
0.0223558
12.5815
0.0222163
0.0245963
0.907855
2.13608
0.0216939
0.0221817
0.322812
0.0530689
0.0219047
0.0222484
4.28163
0.0222681
0.0707195
0.0220107
0.485895
0.0222474
0.0220216
0.0221265
0.03003
0.0216897
0.0239376
0.025277
0.155066
0.0218568
0.0219961
0.0222497
0.0218656
0.0218879
0.0216952
0.0302166
0.0221106
0.0532086
5.29989
0.0424631
0.066063
0.0222033
0.0216498
11.9236
0.75229
0.0215537
3.0608
15.0183
0.0215143
0.0219617
0.021867
0.0980745
0.0562709
2.32367
0.0218504
0.0244808
0.0218541
0.02215
0.0220575
0.0836966
0.0218615
0.28369
0.0220921
0.0551453
0.0218888
0.0228036
0.0218869
0.0335542
0.0561481
14.2905
3.28651
2.96035
0.0487812
0.0218701
2.94213
3.5429
0.0665357
0.0218126
0.0220842
2.06523
0.0218583
5.14454
0.0214948
0.0275204
0.0219026
0.0222697
0.0217006
1.78279
14.7845
5.05016
0.0672415
10.1178
0.0219395
5.56517
11.3368
0.0222705
0.0219896
0.021716
0.383935
0.021501
12.6116
0.0309674
0.168782
0.02207
0.815096
12.4299
1.73549
0.0284701
0.0314329
0.0220404
19.8594
0.0214732
0.581613
0.280363
0.0640886
9.36193
11.1195
0.0231796
0.0229544
0.0219473
0.111326
12.0534
8.61217
0.0217316
3.91357
0.0241207
0.135591
0.11502
5.17612
5.47243
0.0215026
0.025236
0.0291346
0.023116
0.0227475
3.79246
0.0221985
11.5662
0.0216462
0.0214909
0.079156
0.124014
0.379808
0.0222349
20.5845
14.2048
0.641849
0.0259451
0.022233
0.0222412
0.0222269
0.0218799
0.764952
0.380296
0.0219604
0.0218909
0.030239
1.69772
0.0252178
0.0219066
0.390032
0.0219255
0.0222748
0.0214784
0.0634392
0.022029
0.0237024
7.12913
0.0631443
0.0221683
4.36567
0.118236
0.02192
0.022248
0.0333305
0.0222624
0.0219616
0.0216957
12.5853
0.411016
0.0220676
0.0349693
0.0343987
0.578646
0.0218945
6.45863
0.0218552
0.0217399
0.594857
0.290259
0.0701071
0.0219561
0.0218848
11.4751
3.99758
0.276803
2.89348
0.0221016
0.0226028
0.0220151
14.8959
0.0237077
0.350118
0.0224674
0.0218052
0.0225975
0.0216132
0.0218709
0.0611155
0.0217616
5.39849
0.0217026
0.0220713
0.021493
0.0236371
5.32045
5.12198
0.0533859
11.459
0.0219786
0.0346599
0.0225671
0.995958
0.02159
0.0215064
3.90058
0.0330949
0.0313829
0.022111
0.224576
2.28589
7.7473
0.0220335
0.0327894
0.886624
0.0293498
0.953894
0.143041
0.0819626
0.0216805
0.02236
0.0661161
0.0731691
0.0219865
0.115649
0.0217244
0.0221846
0.0221313
0.0217194
0.0218787
0.021986
0.699728
0.0250653
0.0225134
0.045312
0.0217291
0.0219112
0.0371056
9.31262
0.0788995
0.0625307
5.25101
0.0222339
9.88424
0.0282874
8.03312
0.0589694
0.0222032
0.0218344
0.0228371
9.33244
1.75595
0.0496403
0.147449
0.0216104
0.021848
0.0222479
0.0222025
15.5844
0.0248704
0.0217761
0.185197
0.271702
0.961444
0.0223572
3.86026
0.0522566
0.0403966
0.0301616
0.39894
0.235364
0.0220672
5.39131
0.280857
0.0366642
6.79309
0.0461146
0.0219147
0.0222638
0.0218897
0.022815
0.0262513
25.7996
0.0512473
0.0218665
0.383624
0.0220038
7.18802
3.53569
0.0219523
29.4059
0.0217098
0.021674
0.0217229
5.88205
14.6146
0.0501551
0.0299294
0.0215562
0.517016
0.0222313
0.0300334
0.0220896
0.0220254
0.0217512
0.678699
0.0225481
0.0395614
0.0279508
0.0222117
0.33689
0.140376
0.0320845
0.0246414
0.0230535
4.07112
2.23945
0.0216269
0.0217116
0.0216234
0.0223499
13.1939
12.6724
0.237295
0.0249076
0.0217635
9.99534
0.489565
0.022056
24.1363
0.0216878
0.0900595
17.3665
0.0217224
11.9349
9.56787
0.134156
13.1717
0.729411
0.0218079
0.0224467
2.50171
3.88069
0.0223608
10.0156
0.024329
0.0218798
0.0222738
0.0225145
0.0401882
0.0245428
0.286457
13.5772
0.229102
0.0325954
0.0220788
0.0589989
2.2275
0.0217187
3.69665
0.0472689
0.0222199
0.0240003
0.0222415
0.022084
0.0301537
2.32991
0.0220164
0.0217765
8.55569
4.40006
0.0781118
0.0222612
0.0570187
0.0219115
0.0219298
0.942757
7.80362
0.0219187
0.0214663
5.81588
7.09811
0.0481846
0.0221288
10.6191
0.0222044
0.0219234
0.0226168
0.0219299
0.0216059
0.0216013
9.25997
0.260474
0.0251496
1.61947
0.0463464
3.95087
5.83055
4.65029
0.178875
0.021887
0.0222385
0.0219663
0.021992
0.0709935
0.021876
0.101323
0.0285954
0.392424
0.0220468
4.73702
0.0343394
9.75199
0.021923
1.75332
0.0282151
0.19898
0.325985
0.0301728
0.0215981
9.6114
0.0580808
1.25565
0.0215549
0.647934
0.0220273
11.6582
0.451211
0.040747
0.0219045
0.0220876
5.44173
11.8593
0.0304375
0.0214509
0.322741
0.0834896
0.045566
3.31625
0.0743886
0.0218626
1.2481
0.0218943
0.0317366
0.0215169
9.08032
0.021524
0.0224666
0.389053
3.42909
0.0222223
0.070054
0.0232709
0.0735261
0.0218739
0.310646
0.0230115
0.0609834
0.0218728
0.0219847
3.84763
0.0273001
12.1519
0.721494
8.06005
0.0224833
0.0215469
0.0216978
0.0249025
0.0368167
0.0307743
7.77935
0.0229686
0.326005
0.0400309
0.022281
0.0218473
0.0768162
0.423475
16.5392
0.0218831
4.15145
0.021857
1.81994
1.46917
0.0481028
0.0219919
0.0216634
0.042382
1.73834
0.0237595
0.0222686
0.0226154
0.045494
0.0221625
1.32628
4.48687
4.06138
0.0221567
0.0255113
11.5398
0.0221883
0.0581202
0.0217262
0.731414
0.035068
0.0219395
0.0414549
0.168922
0.021659
3.72426
0.0218957
0.164275
0.227653
0.439856
0.31948
0.0221677
0.0220767
17.3535
0.022054
0.0379843
0.0930905
0.0229839
0.0214628
11.0049
0.0241881
0.375883
0.0223504
0.0624921
0.0223278
0.371744
0.0245492
0.0240273
3.68633
1.04245
0.0220877
0.0222731
0.153367
5.2974
1.9244
0.688819
0.027425
0.0219034
0.0217775
4.7407
0.0221381
0.802057
0.099687
3.48699
0.022107
0.021695
0.0217794
0.0425676
0.0399899
3.75786
4.34016
0.893301
0.257584
0.0215875
2.46898
0.0226487
0.0671699
0.0223102
0.0397443
0.0564461
0.021908
0.0215457
0.0702262
0.0216016
0.0383934
0.0647375
6.52011
3.8099
0.0340578
4.40186
0.0216669
0.0215422
0.0220739
0.181474
0.0578927
0.0461813
0.117235
3.9568
0.0375963
0.142049
0.0217261
0.0218329
19.1348
0.0217527
0.274242
0.0214373
0.0218236
5.61847
0.301446
0.0218159
0.0836834
0.490485
10.3775
2.81014
0.0244565
0.0725835
0.0503851
4.0492
0.021945
1.5538
8.64058
0.0232435
0.0240583
0.0215663
0.420848
0.0215566
0.0219784
5.84837
0.0220732
0.0215119
0.220895
0.0613316
4.09827
4.21797
3.53666
5.32893
0.0214841
0.0218813
0.0218196
0.0222064
1.49097
0.0219399
4.34167
0.022639
12.0817
0.023879
0.0220153
0.0216661
0.0221043
0.0292101
0.0218111
0.0214574
0.363601
0.0217952
0.052084
0.0222975
14.1713
0.0238917
0.0220771
0.0216529
0.0545445
0.0219021
0.0217506
0.0220874
0.0222156
0.0229801
0.0218108
0.0229477
0.0303096
0.877168
9.70453
11.6582
4.33258
0.0217492
0.0220045
0.0219021
0.0214053
0.0219162
0.0217134
0.233885
0.0218252
0.0222516
0.0220684
0.0220431
0.0218115
9.63921
0.0228002
0.0219684
22.4824
0.044101
0.0216985
9.15152
14.244
0.0220201
0.412701
0.624181
0.0219496
0.0434222
0.0234611
0.0215355
0.0265733
0.0218052
0.0362731
0.0220121
0.0222472
0.0217242
42.323
0.0259624
0.0434564
0.022032
0.022265
13.1073
0.0249926
0.0220363
0.0233508
0.0236704
0.0222518
0.202134
18.9268
1.05677
5.932
0.211727
0.0358015
0.0222597
12.5479
0.171901
0.022448
0.0629849
0.0222931
0.0218721
0.0222463
3.40025
0.0441693
0.0219979
0.0220423
0.224551
0.0217086
0.374078
0.0218848
1.86752
0.292886
0.382685
0.0220779
0.0228698
0.030458
0.0341022
0.0220776
0.0372485
0.0809582
0.461442
0.0218044
0.463877
10.7505
0.0215111
4.4633
0.0414209
0.311041
0.111731
0.0218999
0.026959
0.0411491
0.0216703
0.0243649
0.0215194
0.457425
1.64781
0.0313969
0.02182
0.164336
0.0695215
2.92135
0.280307
0.0229152
0.026724
0.021937
0.0218625
0.0411805
0.0488664
23.3125
0.0217917
0.414202
0.0221737
7.3461
0.199489
4.34196
0.0215832
0.0226652
1.96962
1.75606
0.0410178
5.46422
0.022151
0.213502
0.0219091
0.0218149
4.52295
0.279695
0.0232034
0.0220925
0.0706594
2.19007
0.175019
0.0625306
0.0217537
0.0220145
0.0217039
2.40507
13.0131
0.0217035
0.0463713
4.65611
0.0786638
0.261069
4.33449
8.21339
3.47493
0.0217134
0.0220783
3.7608
0.0218804
0.0470705
1.5499
9.80865
0.0230008
0.0290789
7.19823
0.602749
2.03481
13.0812
4.24499
4.27696
0.0221102
0.0215804
0.0219862
0.0220651
19.8725
0.0511932
0.346472
0.384166
0.0535959
0.0217884
0.30652
0.0216143
0.0293019
0.0219167
0.0388846
13.5606
2.46909
0.0220707
0.0215617
0.0340782
0.558563
0.195385
9.00116
0.0423076
0.0219532
0.0756283
0.0214307
0.0879474
0.0306137
0.0218833
0.556535
0.152807
0.481414
0.0568052
0.0220739
0.0215038
6.25463
0.0245236
0.0215874
0.0221451
0.0222559
0.0216705
7.73797
6.72682
3.80514
1.37046
8.73473
0.0227455
0.0219343
3.26438
0.0234126
0.0951125
0.580256
0.0218615
12.6752
5.0873
0.0614226
0.0322238
0.748137
0.0227598
1.78886
0.0365908
5.36207
0.0217949
0.0225648
0.0390673
3.33046
0.129995
0.0636612
9.53895
3.61405
0.066682
0.193034
3.34809
0.0236453
0.329262
30.3182
0.0347281
0.0593937
4.06329
0.0303012
0.0352665
0.0221027
0.0369665
0.0392512
0.056087
0.0220873
2.54459
0.146922
5.31388
10.4875
4.03631
0.0378655
1.56288
3.17059
0.02184
0.393227
3.71362
1.86581
0.0270233
0.0236386
6.14837
8.05916
0.0215652
0.215502
0.0217411
0.0219024
4.39778
0.0246573
4.31819
5.03553
4.62886
1.43806
0.0216018
0.0349339
0.0219296
0.0218371
0.103309
0.0596805
0.0255842
2.70331
4.1652
0.022273
0.0251232
1.33321
0.0226859
0.348686
0.0448134
3.78307
3.75094
0.461443
7.26835
14.0322
4.60528
3.87498
3.74076
0.0271326
0.0245201
0.11132
0.111682
4.85489
1.22318
0.0221319
0.0222019
9.01821
4.86397
0.023512
9.59917
0.0218845
0.792717
1.373
0.649726
0.0219186
5.16079
1.53878
0.0260409
0.0333447
12.4616
12.995
11.6301
14.8022
0.0219107
7.01095
4.0889
0.038542
0.211518
0.100153
0.0217228
0.0258511
5.25795
6.58695
0.0239154
0.0221716
5.91537
0.0791983
3.77345
0.0753843
2.02865
4.08074
0.0219867
10.951
0.0222852
0.0281124
0.0219689
0.0216862
0.0216931
0.0361757
0.25227
0.02147
10.7986
0.0780544
3.08725
9.1432
4.64231
0.0219049
1.60128
1.53602
4.17593
0.0332714
0.0219082
3.62531
0.400169
5.14359
0.0514853
0.0230323
0.0216755
5.69113
8.11164
0.0322365
10.8863
0.0296724
0.0220704
4.59917
0.0505888
18.2839
0.0217641
0.0261941
4.45968
11.1802
3.79987
0.225921
3.7324
4.08925
3.49109
0.0220476
11.0445
0.0456225
0.0218019
0.021507
0.0218653
8.84879
0.0463188
3.8073
3.81314
0.0325658
0.146327
0.0849602
4.48015
0.245487
12.0753
9.36593
1.28056
0.0809978
0.0215913
0.287717
0.053897
0.127894
4.41689
8.7961
1.67129
0.0220935
0.0235154
0.0456011
0.022059
0.021802
0.0271302
3.98121
0.0256717
0.0234128
4.6823
0.0799392
0.349055
3.17119
4.28864
0.424501
4.85479
10.0992
3.93963
0.0582537
0.0306894
0.0220006
1.25986
0.112157
0.291289
0.0586044
0.0564415
0.0214372
0.217048
0.54175
0.0243529
0.0215653
0.0224204
3.35685
0.0218671
0.0220258
0.0632678
4.04823
0.0259367
0.0519893
0.162301
0.0292091
0.0632947
0.0218204
0.0219772
0.0403427
0.267321
0.0221198
0.030323
0.247355
0.595976
0.0220135
11.709
0.0217995
4.24072
0.0228675
0.0230272
0.021528
0.200545
0.0314076
8.22063
11.7589
0.0629408
0.0221629
0.0217025
3.2573
3.15586
0.0216065
0.233362
3.79964
0.0529384
0.0717062
0.0214003
0.022399
0.0219065
4.59848
0.0417035
0.0220506
10.7878
0.0221989
0.0533251
0.317046
0.0217243
0.0903349
0.0615676
19.2517
0.0222376
0.0253981
0.0229913
0.0547957
0.0213826
0.0218917
0.535206
0.323144
0.0790314
0.0217015
4.40646
0.022223
0.0222021
0.0219564
0.486911
11.3096
0.0232227
11.0432
1.71511
0.0644933
4.8827
3.60393
9.18759
3.74334
0.0540138
0.0675729
0.254809
0.0479098
0.0219492
0.028879
0.0281544
10.1249
0.0220775
9.4493
0.0219731
0.380505
0.0937035
0.0224543
0.0223952
9.8762
19.8692
7.89168
4.48914
0.0218004
0.0712993
10.77
0.0248325
8.38026
0.0386425
0.0985519
4.29017
0.0289254
0.0219927
0.133399
0.162404
0.0218872
4.05385
0.770091
0.0216935
0.0222394
0.0221212
0.0220096
9.03601
0.0216904
0.0474426
0.0220254
0.0219095
0.0308582
0.0219309
4.82561
0.0895446
0.0220087
0.0215908
0.124961
0.0227551
0.05206
11.1011
9.74379
0.0517601
0.231547
0.0385143
0.0215659
0.161245
10.2772
0.0367591
3.94215
0.445608
0.0702121
0.0376543
0.0251753
0.069751
0.0361549
12.3013
0.0221125
0.0219875
0.0215968
7.07628
9.19774
0.0342707
0.112098
0.0217324
0.024426
0.122874
0.333168
0.0218553
0.0588745
4.12535
0.0810262
0.0219862
0.021874
20.5608
11.6314
0.0219193
0.541224
0.0282966
0.248909
0.248548
0.0218494
6.13908
0.0274487
0.0220246
3.54157
0.255807
0.0219043
0.0221633
0.332425
0.021741
0.0220418
0.175734
0.0396047
0.043108
12.6532
0.0245265
0.0384155
4.08905
0.0217809
4.24849
11.2729
0.0243834
0.0599658
0.207265
0.0219175
0.190387
0.0214474
3.57088
1.48106
0.0220035
0.779553
3.94361
0.0218815
0.0218993
0.524115
0.0344538
5.20926
4.92554
0.0220941
0.0424051
10.7224
0.0220873
0.0495259
0.0759583
0.0323663
3.54485
0.217666
0.0223532
0.284804
4.13283
0.0428016
3.40416
0.0219072
0.0215286
0.0222674
0.0399173
0.614754
0.0220654
0.0301897
11.9312
5.69961
0.0222187
0.028847
1.99811
4.27306
0.0222252
5.62136
0.0329892
0.0894067
0.0342154
0.0226913
0.025147
0.0218951
0.0219532
0.517287
0.0219318
0.0485529
0.0219763
11.8657
0.0223413
0.0226315
0.0215612
0.0231053
0.0219794
0.0404714
8.47465
0.311998
0.0368216
0.0399195
0.0219663
0.0301645
0.0519723
3.75998
8.99719
0.0218236
0.864773
0.0220224
2.23528
4.64691
8.98194
0.0218186
0.100828
0.0781098
10.8626
0.211377
0.021809
3.68471
0.294034
0.0355962
0.426611
0.021871
0.0219323
0.0375197
2.52313
0.0218918
0.506079
0.0323424
2.20641
0.0834119
0.022114
3.65057
0.0271624
0.0220115
0.303546
0.0218138
2.82868
9.76423
0.174864
0.0265525
0.145516
0.0218929
0.106785
0.0433943
6.2586
0.0219372
0.0215366
0.0260244
0.0286018
0.0435613
4.59243
3.20896
0.0339443
0.205938
0.0217804
3.30849
0.869901
0.174248
0.0218934
0.0222601
0.0222276
3.23836
0.0219653
0.0251876
3.38954
0.0924736
0.0219164
0.245849
0.0862227
0.0219831
0.0244272
0.127562
1.37878
0.0682135
0.0422067
4.80114
4.75988
0.292202
0.0258031
0.0220025
0.0237754
0.0239651
0.153038
0.0579703
0.026036
0.0846827
12.1621
0.0234953
0.0219917
9.75199
0.277392
5.32102
0.196015
0.0249693
0.0232128
0.0231306
0.0217263
0.0218364
0.0436309
0.0214954
0.0226019
0.0219867
0.0225722
0.0230673
0.0219365
0.0364515
0.0326549
0.0218462
0.0219206
0.0221189
0.022451
0.0221582
0.236882
0.0220563
0.0229783
1.41675
0.0216056
0.0227965
0.0220956
0.0259577
10.1903
10.1095
4.36644
4.11611
3.3231
0.235108
0.0218573
0.0590385
0.0219001
0.535828
0.0222404
0.0282818
0.0220434
0.0543025
0.0219503
0.0299359
0.0217662
3.49389
0.184846
0.0220779
11.7832
3.39967
0.0218392
0.0985573
0.0219387
0.0215506
11.3294
0.021864
0.0663994
0.222025
0.0221044
0.0215084
0.0751433
3.73247
0.0242657
0.0227295
5.02699
0.021931
9.17157
0.0494296
10.1787
0.0216438
4.15769
0.0218647
0.0220487
0.279171
0.0597769
6.89663
3.81581
13.055
3.52243
0.195812
0.141747
0.022046
0.154444
0.0217319
0.0218106
0.0860842
0.0218956
0.0219783
0.0215635
0.0215942
0.0555169
0.685352
4.27395
0.357417
9.38771
0.0228456
0.0289923
0.02223
0.0224627
0.0806697
0.0219463
0.0215456
0.0217925
0.0229666
0.0227745
0.175381
0.0881786
0.0452708
0.0221081
0.0505179
0.0518902
5.04411
11.5094
0.024041
0.0389076
0.0220874
11.8589
6.18711
0.0219025
0.0219307
0.0238051
0.022214
0.320049
0.332404
10.4884
0.0220048
3.41468
0.0219937
4.45948
0.0498453
0.0218027
0.0272308
0.391731
0.0259722
0.0270746
0.0282333
0.0856747
1.06951
0.0215581
0.0219116
0.0269124
0.207591
0.0218191
3.80205
3.24038
0.0219015
0.0213989
10.2059
0.0661298
0.0218923
3.62748
12.6602
3.57398
3.06845
0.0265123
1.90441
0.0220708
10.6706
3.46865
0.707796
0.0647166
0.0233163
8.68459
0.0242836
0.0218584
0.0214344
0.308076
0.0216058
0.988745
0.0220028
0.022049
0.0243198
3.95499
0.0232724
0.0224281
0.0220733
7.47427
6.12784
11.1127
4.45778
0.038902
0.0218922
0.0235324
0.258586
0.102896
0.0219824
0.0492484
0.251422
0.518637
0.0217711
7.41255
10.6633
0.0345399
0.0220628
0.0232186
0.0219413
0.0216455
0.021926
0.0220324
0.0217214
0.0892882
0.0220944
0.136776
0.0223373
0.022391
9.6875
0.0693046
0.0223318
0.0224369
4.12372
0.0214911
0.0222741
0.0252593
0.0218073
0.337658
0.0291159
0.0224212
0.0414597
0.0218478
0.0261699
0.0215562
0.158535
0.0218052
0.0218533
0.544698
0.0224666
0.194663
0.0322944
0.0232486
0.0905051
0.0213881
0.0220869
0.02237
12.3182
0.0228774
0.021895
1.96361
0.0219077
0.0215909
0.0218801
0.657708
0.0306198
0.150804
0.0318527
0.0293222
0.0464877
0.0232954
0.0262016
0.0442885
4.00161
0.0221227
0.0274333
0.0217407
0.225305
0.24309
0.0219023
0.0257305
3.66214
0.0285366
0.0214963
10.2907
0.0250774
0.0765806
5.08826
0.0266866
0.0218422
0.0283953
0.0218972
0.0227909
0.0219001
0.0228731
0.0251252
0.0219694
0.0220679
0.0303022
0.0220336
0.0978451
0.0217646
0.0232141
0.021873
0.026256
4.24581
0.0219458
0.0217989
0.0905161
0.0222526
0.0218601
0.251551
12.1454
5.47509
0.021962
0.0238133
0.0316613
0.0222446
0.0221248
0.0326657
0.163187
0.0215135
0.0494349
0.0219173
0.0218801
0.0216541
0.0214979
0.0222289
0.0416516
0.0328724
0.0254299
3.74818
0.0235253
0.0269613
0.0216565
4.92978
1.00533
3.33737
0.0219447
0.0456627
0.027291
0.0219237
0.0221194
0.0392585
3.73882
4.4677
0.0216708
0.0260594
9.61626
0.0224707
0.2176
5.76424
3.71315
0.0274005
0.0219205
0.0373779
0.0436897
0.210912
10.9143
1.02193
3.70441
0.0223083
0.0221741
0.0218788
0.114133
0.0217769
0.021659
0.0370103
0.0218575
0.0217335
0.0218731
0.0483165
0.0217878
0.021765
0.0219653
4.17489
0.0214843
0.0219429
0.0221057
0.0220132
0.0219373
0.0665837
0.0717395
0.705058
0.021481
0.0272922
0.123996
8.33633
4.61258
0.022095
0.0222751
0.0492577
0.0883497
0.025025
0.334265
0.0219163
2.41367
0.0222781
3.87117
0.0224512
0.0218728
0.0411993
0.0218971
0.0216833
0.0224227
0.607339
0.0237984
0.0222427
0.0221786
0.0219048
0.0392277
0.0216306
0.0219085
0.0251072
0.0969583
0.023649
0.0215851
3.86134
1.00006
0.0219137
0.327899
0.0221435
0.0262452
0.0751514
0.253953
0.022948
0.0226042
0.0219708
0.239767
0.0274845
0.021868
0.0218816
0.0228118
0.24367
0.0216857
0.0319942
0.0233212
0.0330803
0.0468382
0.0370453
0.0835401
3.88101
0.0242651
0.0220394
7.97065
0.382998
0.0219289
0.0214685
0.022062
0.0219158
0.021868
0.023351
0.0216492
0.0220773
5.90218
4.17556
0.028966
0.0218944
6.50056
0.0232899
0.0216886
8.36843
0.0227368
0.0215934
0.0220934
0.022037
0.0329749
0.0219571
0.0518785
0.0219043
0.021768
0.0219072
0.0312689
0.0348578
0.0218845
0.0571276
4.11231
0.0227817
0.021878
0.0561826
0.021655
0.0219067
0.0218443
0.0282637
0.0220524
10.5871
0.0221817
0.219901
3.25759
0.0555701
0.0224732
0.0219587
0.0219519
0.021925
0.0285034
0.187122
0.130457
0.0217911
0.0232837
9.34558
0.0215023
0.156077
0.0219605
0.0222419
0.0299192
0.0582594
0.0219526
0.0299369
0.0270741
0.054812
4.84744
8.57737
0.0216471
0.0219237
0.0309901
0.0220658
0.0223875
0.0491631
0.022156
0.111447
0.0217706
0.0640888
0.022106
0.0742631
0.0562359
4.02151
8.66944
0.0219128
0.0381151
0.754702
0.254907
0.0215494
0.0215507
0.147925
0.0219307
0.0217722
0.0217257
0.0214771
0.0661056
0.0742183
20.5762
0.0220204
0.0415521
0.0222549
0.0215465
0.0226456
4.98924
0.188658
0.0218689
0.0220055
0.0218168
8.50695
0.0219933
0.0219016
0.0222479
0.0219081
0.0405203
0.0218276
3.73909
0.0219818
0.0220208
0.0220229
0.0218481
0.021688
0.0220074
9.14682
0.0217697
0.0218994
0.289786
0.0217501
0.0220419
0.022111
0.0221564
0.0538565
0.0218601
0.0219675
2.46861
0.0226051
0.0220381
0.0221001
0.0214355
3.81948
0.0226337
0.0220765
0.0218568
0.02477
0.0219608
1.1266
0.0217858
0.0220105
12.1314
0.0219764
0.0622446
0.0220479
0.0213892
0.0214469
0.0292037
0.0360194
0.0218106
0.022286
0.0229157
0.021884
0.0221101
0.0219844
0.0216559
0.0215479
0.021567
0.436731
0.021949
0.0218127
4.74897
0.0218976
0.0258445
0.141311
4.38612
0.0217923
0.0219649
0.0219484
0.0216044
0.0226093
0.0377525
0.0234014
0.0321335
0.0217339
0.0237904
0.0219051
0.0214506
0.0250852
0.056965
0.0231073
0.0256179
0.0220265
0.0219477
0.0221201
5.82043
0.0224752
0.0220122
15.691
0.0221402
2.4223
0.022062
0.0219198
0.021688
4.89882
0.0218693
0.024329
0.0222513
0.0220711
0.0219591
0.0220873
0.0218211
0.023243
0.021861
0.0366194
0.0222478
0.0389395
0.0214274
0.0216012
0.0229067
2.48523
0.022149
0.0220475
0.0223435
0.021895
0.0230835
6.02127
0.0224622
0.0261451
5.21773
0.298248
0.0224528
0.0220772
0.176209
0.101869
0.0223623
0.0221142
0.0216417
2.76927
0.0220123
11.8587
0.0215938
0.0215183
0.022104
0.0216074
0.0228014
0.0215601
0.0219873
0.022265
0.0591259
0.0232333
0.0220628
0.0215807
0.326937
0.0632025
0.021474
0.0221038
0.0229858
0.0222391
0.0220584
0.0215378
5.38234
0.0215423
0.0218784
0.062721
0.0215341
6.30379
0.0218131
0.0361406
0.0246916
0.0219611
0.0214849
0.0219028
0.0217174
0.022042
0.0215392
0.0215771
0.382674
5.01511
3.75881
0.0215744
1.37098
0.0219096
0.0551536
0.0219005
0.0219071
0.0221082
0.505524
0.0219361
0.0218859
0.0221259
0.0219066
0.386867
0.0218948
3.85928
0.0214236
0.0219457
7.08889
9.55152
0.0219824
0.0219477
0.0258806
0.0220167
0.14362
0.0217395
0.55627
0.0217408
0.0344065
0.0221393
0.0218012
0.0219302
0.0219021
0.0227813
0.0218317
0.0291904
0.031295
0.112481
0.0215245
5.30799
0.0218807
12.4249
0.0218882
8.57374
1.36977
0.0217366
0.0218907
0.0215437
0.021823
0.0220435
0.0216594
0.0215387
0.0219554
0.0214177
0.0891412
0.0221101
4.41028
0.021536
0.0214739
0.0219094
0.0219022
0.0220831
1.46808
0.0222551
3.6156
0.0214532
0.0221184
0.030987
0.0215612
0.166934
0.0226454
0.0219145
0.0385851
0.0214852
0.0219712
0.0221497
0.0215452
0.0277133
0.0391198
0.0215867
0.0221124
0.0220456
12.1117
0.0230059
0.0214745
10.9591
0.0517315
0.0215821
0.0219037
0.180171
0.0221595
0.0214151
2.75293
0.193141
0.0221672
0.0214173
0.0222398
0.0343099
0.0215435
0.163088
0.0215782
0.0215836
0.0413386
0.0529299
0.0215769
0.0215405
0.0214276
0.0216695
0.0216829
0.038773
0.0219618
0.0216802
0.0221105
0.0218351
8.66132
0.0222722
1.52615
0.024999
0.0265853
0.0221421
4.7681
0.0217763
4.70876
0.0214376
0.0219484
0.427623
0.0219657
0.0224451
0.02163
0.0241404
0.0216222
0.0255367
0.0214721
3.56616
0.0220487
0.021488
0.0214918
0.0215495
0.106252
0.0217544
3.4626
0.0219021
0.0242041
0.0214799
0.0220168
0.220802
0.0219963
0.101875
0.0217994
0.0226758
0.0220339
0.022133
0.0221622
0.0218768
0.0219769
0.224239
0.0215499
0.0219337
0.0223388
0.022057
0.0220543
0.0323538
0.0215959
0.0219016
0.021819
0.02157
0.0217507
0.0219935
11.2398
0.180826
0.376715
0.021415
0.0227492
0.0221256
0.025485
0.126516
0.210863
0.0313314
0.0215313
0.0219723
0.0216379
0.0221442
0.0221142
0.0218971
1.54336
0.0503877
0.0219255
0.269565
0.022137
7.38139
0.0219524
0.0218786
0.0217912
0.0214792
0.0214641
0.0216306
0.021633
0.0217575
0.0395953
0.0223543
0.0218901
4.18667
0.0215446