/*--------------------------------*- C++ -*----------------------------------*\
| =========                 |                                                 |
| \\      /  F ield         | OpenFOAM: The Open Source CFD Toolbox           |
|  \\    /   O peration     | Version:  v2012                                 |
|   \\  /    A nd           | Website:  www.openfoam.com                      |
|    \\/     M anipulation  |                                                 |
\*---------------------------------------------------------------------------*/
FoamFile
{
    version     2.0;
    format      ascii;
    class       volScalarField;
    location    "750";
    object      omega;
}
// * * * * * * * * * * * * * * * * * * * * * * * * * * * * * * * * * * * * * //

dimensions      [0 0 -1 0 0 0 0];


internalField   nonuniform List<scalar> 
9793
(
0.0222239
25.2016
0.0219227
4.76982
0.0222597
0.258316
0.0827493
11.4509
0.0219457
32.5405
0.0221977
0.0221886
0.0219107
5.84572
0.0217075
0.0245933
0.0545937
0.0219181
5.03314
0.021532
0.0215645
0.0222916
5.62127
11.3851
6.08388
0.0257346
0.022099
0.022262
0.0215425
0.0827409
15.1852
0.441998
0.022011
0.0219339
0.0218626
0.0274888
0.0233152
0.024286
3.88532
0.0302815
0.0713061
3.45105
14.3076
0.0222716
0.0219545
0.0220416
11.7428
0.0222842
0.0215688
0.0219251
0.0271165
0.0218459
0.0372404
0.0222685
0.0316467
4.58094
0.0219205
0.102528
0.0215774
0.0222914
0.026136
0.091673
0.0219395
0.0334282
0.0219623
0.0218963
40.4609
0.0235584
0.0235788
11.6655
0.0219131
0.0944755
11.7749
2.3489
6.9198
0.0222625
0.0432215
10.2853
0.0219761
0.0222705
0.0463386
5.35857
0.0523285
0.0234611
0.0236434
0.282335
0.0222611
0.0754664
4.03336
0.0866899
4.8096
1.36736
1.51937
0.0404818
14.4516
0.0218903
5.4492
0.050609
0.0241888
0.0222684
4.13493
0.0353586
3.36207
0.0219603
7.51672
10.9258
2.20259
0.021873
0.0219808
0.0222835
0.0222335
5.24264
3.08895
13.3809
0.0218966
0.0221116
0.0229626
0.0220497
4.2702
0.0220271
7.39646
0.0820993
2.51372
0.043107
0.0233639
0.0220329
0.0626823
12.7527
0.212741
0.219835
0.0230179
0.0217847
0.0221485
0.0228666
0.0264174
0.16281
0.482233
0.0229998
0.0222734
0.0632893
8.63864
0.0266403
0.0218757
0.0575204
11.3088
0.543465
0.0220332
6.83517
0.0217801
0.0220274
0.0220691
18.2887
0.0237314
0.0220912
0.0218974
1.24982
0.0584865
0.0219336
0.558793
0.0218788
0.0703118
0.0231243
0.0215735
0.322587
0.0218019
8.93581
3.06401
0.0219288
0.0218745
0.0222178
0.021886
10.0716
29.0415
5.48531
0.0219038
0.229104
0.128656
0.637414
0.021959
0.0234717
5.48509
12.6889
0.0905123
0.0220342
0.0220717
0.0218676
1.7137
11.25
19.2873
3.66581
0.0218535
37.166
0.410498
0.0246986
0.0215722
0.0229561
2.02137
0.021574
0.0219152
0.0222055
0.021925
0.0215493
0.0281477
0.0239784
3.74966
0.0218971
0.0275074
0.021923
0.0222005
0.393325
0.0606958
11.8575
0.021617
12.0993
0.0234866
0.0370877
0.0217176
0.159021
0.0221209
0.0475955
0.0548217
0.0215547
1.43471
3.98486
0.0385475
0.0218725
0.0529932
3.18775
0.0469458
0.0475883
3.91721
0.157855
0.0352303
0.0342126
0.348483
0.0214913
5.59219
11.8779
0.0215823
0.0222229
2.46104
0.0218685
0.0222313
0.123719
0.136542
0.021894
0.023486
0.0286347
0.0366264
0.0234763
0.0219657
0.0433564
4.70745
0.0215566
5.25107
0.0222619
0.0221713
0.0216379
4.43541
0.0219735
3.04835
10.1531
0.0221031
0.0221308
3.48371
0.0217492
0.0222397
0.0217103
9.87387
0.249033
0.0243187
0.379406
0.0957439
3.26618
7.16502
0.0219588
19.05
0.0222642
3.37128
9.52002
4.48086
7.54083
0.151338
0.0230176
0.047357
0.0237201
0.021579
0.0219583
0.397257
0.0258914
0.0221398
0.0222838
0.0216139
0.021559
0.0215634
5.91988
0.0218632
0.02171
0.0216778
0.0219131
8.34225
0.521026
0.0601158
0.0226101
0.0593009
0.0217477
0.593755
13.9622
0.0219662
10.2693
0.0316617
0.0219475
33.6013
0.760818
0.0220193
0.0458255
14.2427
0.0220409
0.0323664
0.0217053
0.0221103
3.44237
0.039404
0.0219448
0.0220208
0.0225107
0.16364
3.2847
0.0219272
0.0218661
0.0216329
10.5299
11.0489
8.73738
0.0214972
0.0415053
0.0329577
1.95426
0.0752514
0.0214695
0.0215103
0.0216372
0.0458883
0.0219898
9.59408
0.0220869
0.0217623
2.95631
5.87132
11.2596
0.0216075
4.0747
0.0240964
4.35132
10.1758
3.88693
0.0231626
0.0310932
0.47837
4.82029
4.98575
0.025636
0.0222633
0.0246641
0.0215456
0.0218462
0.0219744
0.0220806
0.022292
9.75427
0.0222073
0.0630389
0.0298652
0.468595
0.0214652
0.0235321
7.3515
0.454516
5.18748
0.0726666
0.0217658
0.0232289
0.0219265
0.417527
0.0215525
10.6799
0.147144
0.0825369
8.59298
3.51722
0.0221375
0.021874
0.478726
0.389996
0.0218971
9.98356
0.0221313
0.0221773
7.07913
0.021615
0.10445
0.0215007
2.98741
0.0220921
0.0218046
1.43277
0.088135
0.04935
0.0247084
0.022074
0.0218051
3.19909
0.050428
0.0215076
0.0221963
0.0329756
0.0330963
0.0478537
11.9758
0.0221974
0.02193
0.379451
0.0220809
4.22644
0.628488
0.0220635
0.0220165
0.0219428
0.0221162
0.0216197
4.10975
0.0480201
7.06218
0.0278193
0.0224658
0.0432034
0.0240302
4.25745
0.0254563
0.0222677
0.0235592
0.457443
0.0218873
0.0218805
0.0219126
0.0215558
0.021984
0.0217352
0.0220437
0.022158
0.0226135
0.0237052
0.123733
0.0217446
1.50028
0.0249036
0.19513
7.18553
0.0215881
2.6763
0.0817196
0.021583
0.0215551
0.0218783
3.82346
0.0970998
0.0215513
0.0221202
0.022199
0.0622287
0.144496
10.5054
0.0219757
0.021899
0.0302619
12.0188
4.36116
0.0232708
0.0225736
5.06156
7.41672
0.232075
0.0220865
0.0217735
3.73399
0.0218934
0.126904
0.544818
0.0215003
0.220449
0.0263227
4.24123
0.0218083
4.17313
0.357628
0.0242639
3.11474
0.0218928
1.69192
0.0220936
0.0218716
0.0222234
0.0219338
9.51438
0.0218842
0.0215765
0.0225898
0.0215058
0.0217731
0.0454093
0.0225253
0.0329982
0.0220341
0.0220381
6.1319
0.0694085
0.0232273
5.59451
0.0233989
0.022088
0.0219781
0.0216171
9.78982
0.0215668
0.022069
16.1403
3.6728
0.0378076
0.0219187
0.022284
0.0218971
0.0222409
5.09698
0.0220798
3.81649
0.023141
1.8855
0.022262
33.3325
0.022012
0.210933
0.0219005
0.0994138
6.54862
0.0221024
3.2763
0.0218765
0.0222182
0.0215589
1.78123
3.79557
0.021884
0.0271456
0.0215551
4.50954
0.0216768
0.0441142
4.20079
0.0245336
0.0220261
0.0431502
0.022245
0.021921
0.0216549
0.114623
0.0219545
4.06708
0.0220517
0.0219979
0.0374898
0.0735301
0.393078
0.0217066
32.6113
0.0218683
0.18861
0.0218934
0.0218869
0.0218895
0.0220496
0.0222681
0.19817
0.0359645
4.2764
0.122169
0.0335642
0.0327608
5.55195
0.0231067
5.01432
14.8766
0.24138
12.0895
0.481704
0.16745
0.0219187
3.31421
0.0367126
0.0218388
0.324467
0.0222509
0.385492
0.034574
0.249994
0.0266693
5.51087
14.7321
0.0349324
0.220457
0.0222171
0.57669
0.022566
0.0219042
0.02198
0.0224782
0.0461535
3.8837
0.250128
12.2363
0.0228784
0.0230518
4.32003
0.305606
0.0224269
0.0654752
0.0222224
5.14037
1.32255
0.022058
0.0601595
0.248089
15.4678
0.0219571
0.0250562
7.22564
0.0273772
1.64468
0.104674
0.457368
0.024955
0.0232205
0.0217867
0.0218994
0.269117
0.0222842
0.286814
0.151941
0.0799239
0.0222595
0.0222239
0.0225979
0.0217193
0.0218271
0.0218733
0.110213
2.64297
6.3548
0.0222796
0.315342
0.0219456
13.2722
0.0475447
0.0445804
0.0325076
0.337126
0.0217385
0.0220602
0.0410146
0.0218921
0.0218639
0.063296
5.1333
0.0215467
0.24732
4.44323
0.0236982
3.40458
4.4901
0.0217409
0.0556152
0.0251064
0.0218521
0.0215607
0.0947017
4.53947
12.5518
0.0218958
0.0220146
0.0216155
0.0231603
0.0225464
0.0233346
0.529717
0.0472773
0.0221517
4.10853
0.0283297
0.0320143
0.021832
29.2519
0.0228757
0.021916
0.0820152
2.11533
0.0215066
0.0220491
0.0219345
0.023871
0.0217339
0.036105
0.536346
0.0220526
0.114848
0.0223053
0.0217989
0.405082
9.84152
0.272091
0.0220741
0.0215092
0.494851
0.0251411
0.378901
0.0214891
0.0218747
12.8526
3.77025
0.0292459
0.112612
0.0587094
0.0218684
0.0222717
0.0218372
15.2621
0.0220569
0.0222928
4.6819
0.0265025
0.340178
0.0312971
0.0219304
7.34166
0.0222679
0.0218909
0.0218346
0.029428
5.29998
0.022163
0.0219661
0.0218894
0.0218782
0.0219366
0.0218
13.4064
0.0303438
0.0225596
0.0221096
0.0303932
0.0632749
0.0244614
0.0274089
0.0222839
0.0216106
0.0228794
3.89384
3.81327
0.0223555
12.5727
0.0222163
0.0245955
0.902439
2.13557
0.0216939
0.0221817
0.323025
0.0530807
0.0219047
0.0222484
4.34051
0.0222681
0.0706769
0.0220108
0.485045
0.0222474
0.0220218
0.0221265
0.0300274
0.0216896
0.0239387
0.025277
0.155137
0.0218568
0.0219962
0.0222497
0.0218657
0.0218879
0.0216951
0.030219
0.0221106
0.0532332
5.32735
0.0424688
0.066087
0.0222033
0.0216498
11.8861
0.742668
0.0215537
3.02117
15.0129
0.0215142
0.0219617
0.021867
0.0979563
0.0562964
2.32479
0.0218505
0.0244797
0.0218541
0.0221496
0.0220577
0.0835979
0.0218616
0.282671
0.0220921
0.0551586
0.0218888
0.0228043
0.021887
0.0335625
0.0561471
14.2991
3.30104
2.93391
0.0487903
0.0218702
2.94468
3.54131
0.0665627
0.0218126
0.0220842
2.0612
0.0218584
5.16546
0.0214947
0.0275244
0.0219026
0.0222697
0.0217005
1.81694
14.7461
5.07154
0.067247
10.0925
0.0219395
5.58562
11.3178
0.0222705
0.0219896
0.021716
0.38492
0.0215009
12.5855
0.0309655
0.169
0.0220705
0.808706
12.4351
1.7355
0.0284675
0.0314381
0.0220404
19.8839
0.0214732
0.582038
0.280816
0.0640244
9.40424
11.0793
0.0231801
0.0229541
0.0219474
0.11129
12.0226
8.57827
0.0217315
3.91246
0.0241203
0.13565
0.115066
5.18509
5.47901
0.0215026
0.0252361
0.0291407
0.0231161
0.0227469
3.79668
0.0221985
11.5475
0.0216462
0.0214909
0.0790673
0.124085
0.380396
0.022235
20.4725
14.1483
0.659234
0.0259452
0.022233
0.0222412
0.0222269
0.02188
0.721327
0.377383
0.0219604
0.0218909
0.0302457
1.69765
0.0252158
0.0219066
0.389634
0.0219254
0.0222748
0.0214784
0.0634667
0.022029
0.023703
7.15259
0.0631446
0.0221684
4.36506
0.118175
0.02192
0.0222478
0.0333312
0.0222624
0.0219616
0.0216957
12.5762
0.411165
0.0220681
0.0349751
0.034385
0.576217
0.0218946
6.46082
0.0218553
0.0217399
0.594551
0.291255
0.070138
0.0219557
0.0218847
11.4674
3.99529
0.275798
2.8938
0.0221016
0.022602
0.0220151
14.849
0.023708
0.348169
0.0224673
0.0218053
0.0225972
0.0216133
0.0218709
0.0609921
0.0217615
5.41307
0.0217027
0.0220709
0.0214929
0.0236375
5.3332
5.14389
0.0534161
11.4517
0.0219786
0.034652
0.0225672
1.00789
0.0215899
0.0215063
3.88679
0.0330875
0.0313772
0.022111
0.224733
2.33534
7.80144
0.0220332
0.0327867
0.888295
0.0293557
0.896723
0.143078
0.0818587
0.0216804
0.0223601
0.0661468
0.0733777
0.0219865
0.115557
0.0217244
0.0221847
0.0221314
0.0217195
0.0218788
0.021986
0.700582
0.025064
0.0225135
0.0452991
0.021729
0.0219112
0.0370978
9.33653
0.0788592
0.0625076
5.28351
0.0222339
9.87198
0.0282847
8.00702
0.058938
0.0222032
0.0218345
0.0228374
9.33359
1.75283
0.0496201
0.147169
0.0216104
0.0218476
0.0222479
0.0222025
15.5873
0.0248722
0.021776
0.185424
0.271981
0.962324
0.0223572
3.8591
0.0522564
0.0404033
0.0301681
0.399252
0.234785
0.0220678
5.4013
0.281848
0.0366616
6.83432
0.0461241
0.0219147
0.0222638
0.0218897
0.0228159
0.0262509
25.8859
0.0512638
0.0218665
0.383639
0.0220038
7.18261
3.53065
0.0219523
29.3923
0.0217099
0.021674
0.0217228
5.87723
14.5916
0.0501832
0.0299286
0.0215561
0.515422
0.0222313
0.0300306
0.0220896
0.0220251
0.0217511
0.681799
0.0225485
0.0395578
0.0279464
0.0222117
0.338427
0.140097
0.0320934
0.0246411
0.023054
4.07034
2.12984
0.0216268
0.0217117
0.0216233
0.0223506
13.2316
12.6653
0.236745
0.0249068
0.0217634
10.015
0.486416
0.0220566
24.1375
0.0216878
0.0900308
17.4101
0.0217224
11.9303
9.55227
0.133928
13.1789
0.731761
0.0218076
0.0224471
2.50249
3.88255
0.0223612
10.0141
0.0243295
0.0218798
0.0222738
0.0225146
0.0401917
0.0245437
0.285775
13.5874
0.227924
0.0325931
0.0220788
0.0589512
2.22976
0.0217188
3.69688
0.0472572
0.0222199
0.0240004
0.0222415
0.0220835
0.0301521
2.32949
0.0220164
0.0217765
8.53976
4.39948
0.0781374
0.0222612
0.0570164
0.0219115
0.0219298
0.93787
7.83563
0.0219187
0.0214663
5.84152
7.09724
0.0481729
0.0221285
10.618
0.0222045
0.0219234
0.0226157
0.0219299
0.0216059
0.0216013
9.30323
0.259084
0.0251488
1.62035
0.0463655
3.9489
5.92595
4.63027
0.179276
0.021887
0.0222385
0.0219664
0.021992
0.0710068
0.021876
0.101257
0.0285997
0.394092
0.0220468
4.7497
0.0343569
9.74575
0.021923
1.75417
0.0282198
0.199485
0.325931
0.0301706
0.0215981
9.64112
0.0580942
1.29018
0.0215549
0.648936
0.0220272
11.6462
0.449743
0.0407182
0.0219045
0.0220876
5.43993
11.8496
0.0304447
0.0214508
0.321405
0.0834018
0.0455746
3.33275
0.0743688
0.0218622
1.16313
0.0218943
0.0317446
0.0215169
9.09618
0.0215239
0.0224658
0.38918
3.42608
0.0222223
0.0700304
0.0232713
0.0735337
0.0218739
0.309634
0.0230115
0.0608897
0.0218725
0.0219847
3.84467
0.0273045
12.1334
0.716361
8.06929
0.0224835
0.0215468
0.0216979
0.0249042
0.0368208
0.0307802
7.81369
0.0229688
0.32406
0.0400195
0.022281
0.0218476
0.0768406
0.425163
16.4969
0.0218831
4.16077
0.021857
1.81182
1.46885
0.0481147
0.0219919
0.0216634
0.0423793
1.77526
0.0237589
0.0222686
0.0226146
0.0455025
0.0221624
1.32072
4.48517
4.06076
0.0221567
0.0255133
11.516
0.0221883
0.058126
0.0217262
0.717617
0.0350571
0.0219395
0.041451
0.168947
0.0216589
3.70491
0.0218957
0.164506
0.227493
0.441775
0.32067
0.0221677
0.0220762
17.2914
0.022054
0.0379734
0.0931303
0.0229842
0.0214628
10.9994
0.024188
0.375975
0.0223496
0.0622292
0.0223285
0.3721
0.0245497
0.0240279
3.65369
1.03317
0.0220876
0.0222731
0.153132
5.27087
1.92471
0.681225
0.0274288
0.0219034
0.0217773
4.7114
0.0221381
0.805525
0.0995673
3.48413
0.022107
0.021695
0.0217794
0.0425726
0.0400193
3.7567
4.33896
0.83898
0.258314
0.0215875
2.46974
0.0226489
0.0671834
0.0223103
0.0397487
0.0564479
0.021908
0.0215456
0.0702533
0.0216016
0.0383844
0.0647312
6.50344
3.71809
0.0340687
4.37894
0.0216668
0.0215422
0.0220738
0.180732
0.0579593
0.046176
0.117035
3.98239
0.0375855
0.141705
0.0217261
0.0218327
19.224
0.0217527
0.273089
0.0214373
0.0218236
5.64552
0.301275
0.0218157
0.0836265
0.490394
10.3278
2.81497
0.0244552
0.0726113
0.0504137
4.10162
0.0219454
1.54572
8.6266
0.0232436
0.0240574
0.0215663
0.428818
0.0215565
0.0219784
5.84892
0.0220737
0.0215119
0.220302
0.0613566
4.09572
4.2171
3.53555
5.32334
0.0214841
0.0218814
0.0218193
0.0222064
1.51659
0.0219404
4.3554
0.0226394
12.0697
0.0238792
0.0220148
0.0216661
0.0221039
0.0292083
0.0218111
0.0214574
0.365236
0.0217952
0.0521207
0.0222976
14.159
0.0238916
0.0220771
0.0216528
0.0545557
0.0219021
0.0217506
0.0220874
0.0222155
0.0229787
0.0218105
0.0229477
0.0303111
0.858728
9.69679
11.6543
4.3295
0.0217492
0.0220045
0.0219021
0.0214052
0.0219161
0.0217134
0.232885
0.0218252
0.0222516
0.0220684
0.022043
0.0218116
9.62052
0.0227991
0.0219684
22.5077
0.044124
0.0216985
9.15192
14.2521
0.0220201
0.409673
0.620324
0.0219499
0.0434234
0.0234613
0.0215354
0.0265694
0.0218053
0.0362886
0.0220121
0.0222472
0.0217242
42.2338
0.0259628
0.0434096
0.022032
0.022265
13.0951
0.0249923
0.0220363
0.0233502
0.02367
0.0222518
0.202771
19.06
1.05806
5.92046
0.211444
0.0358002
0.0222597
12.5029
0.171552
0.0224486
0.0630028
0.0222931
0.0218722
0.0222463
3.40464
0.0441455
0.021998
0.0220422
0.224906
0.0217086
0.373236
0.0218844
1.86846
0.293087
0.382921
0.0220779
0.02287
0.0304583
0.0340972
0.0220781
0.0372403
0.0809279
0.463517
0.0218045
0.46631
10.7444
0.021511
4.43312
0.0414236
0.311308
0.111561
0.0218999
0.0269564
0.0411657
0.0216703
0.0243661
0.0215194
0.453431
1.67866
0.0313929
0.02182
0.164036
0.0694939
2.9182
0.277336
0.0229155
0.0267275
0.021937
0.0218623
0.0411951
0.0488425
23.3445
0.0217917
0.414408
0.0221739
7.43605
0.199111
4.39927
0.0215832
0.022665
1.96993
1.75655
0.0410157
5.44697
0.0221508
0.208829
0.0219091
0.0218149
4.53349
0.278628
0.0232021
0.0220925
0.0706779
2.18994
0.174787
0.062394
0.0217536
0.0220146
0.0217039
2.40326
13.028
0.0217036
0.0463957
4.66647
0.0786419
0.260102
4.34835
8.21954
3.43119
0.0217135
0.0220781
3.75736
0.0218804
0.0470693
1.55013
9.82923
0.023001
0.0290797
7.22258
0.602876
2.03544
13.0633
4.22948
4.27788
0.0221102
0.0215804
0.0219862
0.022065
19.7671
0.0511908
0.346112
0.39214
0.0535266
0.0217883
0.304916
0.0216143
0.0293083
0.0219167
0.0388916
13.6468
2.4853
0.0220707
0.0215617
0.0340898
0.553183
0.19481
8.99229
0.0422976
0.0219536
0.0756117
0.0214306
0.0879293
0.0306127
0.0218833
0.550004
0.152851
0.480776
0.0567655
0.0220744
0.0215038
6.14961
0.0245237
0.0215873
0.0221452
0.0222559
0.0216705
7.74339
6.80108
3.7998
1.3704
8.72284
0.0227448
0.0219343
3.27106
0.0234131
0.0951707
0.581153
0.0218615
12.6504
5.0813
0.0614111
0.0322238
0.749447
0.0227606
1.78785
0.0365815
5.37015
0.0217949
0.0225658
0.0390574
3.32581
0.129955
0.0635977
9.52753
3.58524
0.0666747
0.193318
3.34813
0.0236452
0.329282
30.3488
0.0347206
0.0594456
4.09294
0.0303078
0.0352578
0.0221027
0.0369749
0.0392675
0.056057
0.0220873
2.59409
0.146717
5.31629
10.4726
4.03214
0.0378552
1.56311
3.2396
0.02184
0.391256
3.70554
1.90196
0.0270178
0.0236384
6.13517
8.111
0.0215652
0.215455
0.0217411
0.0219024
4.39397
0.0246569
4.32873
5.04201
4.63341
1.46253
0.0216018
0.0349437
0.0219296
0.0218371
0.103313
0.0596999
0.0255868
2.70403
4.17358
0.022273
0.0251251
1.33354
0.0226861
0.34787
0.0448114
3.78348
3.74793
0.461558
7.35444
14.0056
4.62214
3.87066
3.73593
0.0271289
0.0245199
0.111208
0.111548
4.85715
1.24162
0.0221319
0.0222021
9.0064
4.88382
0.0235124
9.59415
0.0218845
0.7915
1.36148
0.642911
0.0219186
5.16195
1.53851
0.026039
0.033337
12.4319
12.9723
11.6292
14.783
0.0219108
6.99636
4.09575
0.0385167
0.21072
0.10016
0.0217228
0.0258529
5.27479
6.59254
0.023916
0.0221716
5.90327
0.0792023
3.76818
0.0753177
2.02493
4.0751
0.0219867
10.9482
0.0222852
0.0281169
0.0219685
0.0216862
0.0216931
0.0361693
0.252739
0.02147
10.6985
0.0781055
3.1273
9.13422
4.66008
0.0219049
1.58412
1.53661
4.18415
0.033262
0.0219082
3.61121
0.399685
5.10527
0.0514909
0.0230324
0.0216754
5.59229
8.08732
0.0322354
10.8097
0.0296723
0.0220706
4.60636
0.0505908
18.1844
0.0217639
0.0261912
4.47533
11.178
3.80051
0.226222
3.73092
4.09586
3.5255
0.0220475
11.1604
0.0456208
0.0218018
0.021507
0.0218652
8.82188
0.046318
3.80343
3.81236
0.0325747
0.147731
0.085036
4.47789
0.245717
12.0398
9.35668
1.27885
0.0809499
0.0215912
0.286999
0.0538641
0.12784
4.42472
8.82572
1.6697
0.0220935
0.0235157
0.0456967
0.0220589
0.0218019
0.0271301
3.97505
0.0256699
0.0234109
4.69213
0.0799597
0.350241
3.17197
4.28433
0.417426
4.81739
10.1037
3.93548
0.0583413
0.030696
0.0220001
1.26034
0.111981
0.29156
0.0586019
0.0564353
0.0214372
0.217218
0.541478
0.0243513
0.0215652
0.0224205
3.37022
0.0218671
0.0220258
0.0632371
4.05392
0.0259371
0.0519528
0.16189
0.0292063
0.0633173
0.0218201
0.0219773
0.040335
0.268265
0.0221196
0.0303192
0.247376
0.597255
0.0220131
11.6885
0.0217996
4.23488
0.0228676
0.0230276
0.021528
0.200127
0.031415
8.22719
11.8203
0.0629103
0.0221629
0.0217024
3.26176
3.1635
0.0216064
0.232735
3.79717
0.0529275
0.0716838
0.0214003
0.0223999
0.0219064
4.60522
0.0417025
0.0220506
10.7547
0.0221995
0.0533337
0.318123
0.0217243
0.0901074
0.0615528
19.2807
0.0222374
0.0253982
0.0229915
0.0547862
0.0213826
0.0218917
0.533189
0.322463
0.0790054
0.0217014
4.3831
0.0222232
0.0222027
0.0219564
0.475572
11.2726
0.0232224
11.0295
1.76712
0.0644534
4.8995
3.61746
9.17926
3.81709
0.0540426
0.0675999
0.254262
0.0479001
0.0219492
0.0288803
0.0281594
10.0983
0.0220775
9.44188
0.0219731
0.380585
0.0935869
0.0224544
0.022395
9.86192
19.959
7.91978
4.50452
0.0218004
0.0713424
10.7642
0.0248344
8.45146
0.0386494
0.0985818
4.27623
0.0289225
0.0219927
0.133189
0.162124
0.0218872
4.05992
0.774841
0.0216935
0.0222394
0.0221212
0.0220096
9.0236
0.0216903
0.0474348
0.0220254
0.0219094
0.0308574
0.0219309
4.83208
0.0895225
0.0220092
0.0215908
0.124946
0.0227555
0.0520624
11.153
9.74385
0.0517336
0.232404
0.0384962
0.0215659
0.161313
10.2802
0.0367507
3.94509
0.445273
0.0701806
0.0376439
0.025173
0.0697285
0.0361512
12.2678
0.0221125
0.021988
0.0215968
7.09874
9.22355
0.0342643
0.112102
0.0217323
0.024425
0.1228
0.333161
0.0218552
0.058817
4.11864
0.0810249
0.0219862
0.0218741
20.5556
11.6211
0.0219192
0.541988
0.0283012
0.24915
0.24787
0.0218494
6.15783
0.0274528
0.0220246
3.53072
0.255812
0.0219043
0.0221633
0.332845
0.0217411
0.0220418
0.175201
0.0396072
0.0430798
12.6627
0.0245276
0.0384348
4.07918
0.021781
4.33756
11.2588
0.0243846
0.0599924
0.207875
0.0219175
0.19059
0.0214474
3.55427
1.48173
0.0220035
0.785315
4.00368
0.0218815
0.0218993
0.523151
0.0344649
5.20595
4.93364
0.0220941
0.0424021
10.7311
0.0220872
0.0495479
0.0759925
0.0323602
3.5424
0.218149
0.0223528
0.284819
4.16894
0.0428013
3.41128
0.0219072
0.0215286
0.0222674
0.0399175
0.615755
0.0220654
0.0301957
11.8853
5.68911
0.0222186
0.0288454
1.9946
4.27167
0.0222252
5.73191
0.0329931
0.0893054
0.03422
0.0226917
0.0251483
0.0218951
0.0219532
0.516554
0.0219318
0.0485513
0.0219763
11.8474
0.0223407
0.0226305
0.0215612
0.0231058
0.0219794
0.0404715
8.44717
0.310191
0.0368172
0.0399169
0.0219663
0.0301618
0.0519775
3.73912
8.98593
0.0218236
0.870936
0.0220224
2.23827
4.65695
8.962
0.0218186
0.100724
0.0781473
10.8335
0.211273
0.0218088
3.65089
0.293593
0.0355911
0.423566
0.021871
0.0219323
0.0375058
2.52469
0.0218918
0.508408
0.032343
2.04206
0.0834031
0.0221146
3.64688
0.0271579
0.022011
0.304586
0.021814
2.8275
9.79541
0.17525
0.0265522
0.145773
0.0218929
0.106643
0.0433891
6.36533
0.0219371
0.0215365
0.0260223
0.0285998
0.0435786
4.62739
3.19686
0.033946
0.206032
0.0217802
3.31196
0.877226
0.17373
0.0218934
0.0222601
0.022227
3.24749
0.0219652
0.0251897
3.40009
0.0925073
0.0219164
0.246486
0.0862639
0.0219832
0.024426
0.127384
1.37864
0.0681558
0.0421976
4.76599
4.76522
0.29058
0.0258024
0.0220025
0.0237748
0.0239646
0.152811
0.057986
0.0260387
0.0847286
12.1529
0.0234951
0.0219917
9.74531
0.278508
5.30939
0.196338
0.024968
0.0232127
0.0231315
0.0217264
0.0218363
0.0436484
0.0214954
0.0226019
0.0219868
0.0225729
0.0230679
0.0219365
0.0364538
0.0326639
0.0218462
0.0219206
0.0221189
0.022451
0.0221581
0.23707
0.0220562
0.0229783
1.41447
0.0216056
0.0227971
0.0220955
0.0259609
10.1944
10.117
4.3745
4.15887
3.26588
0.23588
0.0218574
0.0590268
0.0219005
0.536967
0.02224
0.0282803
0.0220433
0.0543113
0.0219504
0.0299421
0.0217662
3.48047
0.184565
0.0220779
11.7616
3.34782
0.0218392
0.0985715
0.0219387
0.0215506
11.279
0.021864
0.0663856
0.221628
0.0221044
0.0215083
0.0751315
3.72742
0.0242654
0.0227298
5.03149
0.021931
9.13482
0.0494365
10.1493
0.0216438
4.16759
0.0218647
0.022049
0.280102
0.0597972
6.89314
3.8123
13.0283
3.51457
0.195107
0.141451
0.022046
0.15407
0.0217319
0.0218106
0.0861133
0.0218955
0.0219783
0.0215635
0.0215942
0.0555525
0.678166
4.2864
0.35607
9.41373
0.0228459
0.0289916
0.02223
0.0224636
0.0807203
0.0219465
0.0215456
0.0217925
0.022967
0.0227745
0.1755
0.0881989
0.0452705
0.0221081
0.0505155
0.0518925
5.05318
11.5257
0.0240415
0.0389193
0.0220874
11.8476
6.17434
0.0219024
0.0219307
0.0238046
0.022214
0.31785
0.332874
10.4866
0.0220046
3.40521
0.0219939
4.46207
0.0498531
0.0218027
0.0272294
0.388873
0.025972
0.0270742
0.0282386
0.0856681
1.06441
0.021558
0.0219116
0.0269112
0.206984
0.0218188
3.79673
3.23551
0.0219015
0.0213989
10.1634
0.06616
0.0218923
3.61043
12.5602
3.57612
3.05914
0.0265156
1.9033
0.0220708
10.6733
3.46998
0.70072
0.0647512
0.0233157
8.66792
0.0242829
0.0218584
0.0214343
0.306459
0.0216058
0.998833
0.0220026
0.022049
0.0243206
3.95781
0.0232719
0.0224283
0.0220733
7.57419
6.15657
11.1104
4.45326
0.0389195
0.0218922
0.0235323
0.257391
0.102876
0.0219825
0.0492804
0.250858
0.513115
0.021771
7.40246
10.6724
0.0345509
0.0220628
0.0232182
0.0219412
0.0216455
0.021926
0.0220323
0.0217212
0.08932
0.0220944
0.136536
0.0223373
0.0223918
9.66777
0.0693652
0.022331
0.0224373
4.12902
0.021491
0.0222742
0.0252576
0.0218073
0.335813
0.0291212
0.0224219
0.0414569
0.0218482
0.0261722
0.0215561
0.158821
0.0218053
0.0218532
0.544902
0.0224661
0.195019
0.0323001
0.0232488
0.090498
0.0213881
0.0220869
0.0223709
12.2884
0.0228775
0.021895
1.95999
0.0219078
0.0215908
0.0218801
0.676663
0.0306171
0.15047
0.0318523
0.0293207
0.0464882
0.0232949
0.0261996
0.0442879
3.99827
0.0221225
0.0274304
0.0217409
0.22503
0.243684
0.0219023
0.0257289
3.65523
0.0285351
0.0214962
10.2628
0.0250761
0.0764574
5.10906
0.0266902
0.021842
0.0283943
0.0218972
0.0227898
0.0219001
0.0228737
0.0251237
0.0219694
0.0220679
0.0302997
0.022033
0.0978507
0.0217645
0.0232139
0.0218729
0.0262556
4.25812
0.0219462
0.0217988
0.0904786
0.0222523
0.0218604
0.250665
12.1315
5.4982
0.0219618
0.0238127
0.0316692
0.0222446
0.0221249
0.0326736
0.163104
0.0215135
0.0494451
0.0219173
0.02188
0.021654
0.0214979
0.0222289
0.0416502
0.0328803
0.0254318
3.74495
0.0235255
0.0269606
0.0216565
4.96382
0.960683
3.34912
0.0219445
0.0456697
0.0272899
0.0219232
0.0221194
0.0392504
3.73865
4.48124
0.0216707
0.0260621
9.64636
0.0224707
0.217727
5.7135
3.71023
0.0274047
0.0219205
0.0373815
0.0437128
0.210115
10.9159
1.03464
3.70304
0.0223083
0.0221741
0.0218789
0.114162
0.0217769
0.021659
0.0370229
0.0218574
0.0217334
0.0218731
0.0483176
0.0217877
0.021765
0.0219654
4.17797
0.0214842
0.0219429
0.0221057
0.0220131
0.0219373
0.0666087
0.0717725
0.709841
0.021481
0.027288
0.123865
8.31828
4.60768
0.0220953
0.0222751
0.0491771
0.0883819
0.0250229
0.334638
0.0219163
2.37594
0.0222781
3.869
0.0224515
0.0218729
0.0412233
0.0218971
0.0216832
0.0224235
0.60325
0.0237977
0.0222426
0.0221786
0.0219048
0.0392446
0.0216305
0.0219085
0.0251087
0.0967493
0.0236489
0.021585
3.86212
0.999832
0.0219137
0.325947
0.0221435
0.0262424
0.0750885
0.254333
0.0229475
0.022605
0.0219708
0.23973
0.027484
0.021868
0.0218817
0.0228124
0.243543
0.0216856
0.0320029
0.0233207
0.033081
0.0468435
0.037058
0.0834608
3.87869
0.0242644
0.0220394
7.95558
0.383328
0.0219289
0.0214685
0.0220619
0.0219158
0.021868
0.0233506
0.0216492
0.0220773
5.84058
4.17334
0.0289707
0.0218944
6.50903
0.0232895
0.0216886
8.36263
0.0227368
0.0215934
0.0220934
0.022037
0.0329842
0.0219572
0.0518633
0.0219043
0.021768
0.0219072
0.0312769
0.0348677
0.0218844
0.0571563
4.12037
0.0227819
0.021878
0.0561806
0.0216549
0.0219069
0.0218443
0.0282685
0.0220524
10.5899
0.0221816
0.220218
3.24932
0.0555537
0.0224732
0.0219587
0.0219519
0.0219249
0.0285017
0.187395
0.130524
0.021791
0.0232839
9.34115
0.0215023
0.155946
0.0219605
0.0222414
0.0299188
0.0582379
0.0219526
0.0299425
0.0270724
0.0547567
4.85611
8.63024
0.0216471
0.0219237
0.0309891
0.0220656
0.0223883
0.0491636
0.022156
0.111398
0.0217706
0.0640714
0.022106
0.0742611
0.0562157
4.02598
8.64778
0.0219128
0.038121
0.744246
0.254947
0.0215494
0.0215506
0.148041
0.0219307
0.0217721
0.0217256
0.021477
0.0661838
0.0743067
20.5458
0.0220204
0.0415748
0.0222549
0.0215465
0.0226454
5.00144
0.188036
0.0218689
0.0220054
0.0218168
8.51195
0.0219934
0.0219015
0.0222479
0.0219081
0.0405288
0.0218276
3.73337
0.0219818
0.0220207
0.0220229
0.0218477
0.0216881
0.0220074
9.12185
0.0217697
0.0218994
0.289585
0.02175
0.0220419
0.022111
0.0221564
0.0538608
0.0218601
0.0219675
2.46865
0.022605
0.0220381
0.0221
0.0214355
3.8112
0.0226336
0.0220761
0.0218568
0.0247719
0.0219609
1.14043
0.0217858
0.0220105
12.1107
0.0219764
0.0622169
0.0220478
0.0213891
0.0214469
0.0292039
0.0360111
0.0218102
0.022286
0.0229158
0.021884
0.0221101
0.021984
0.0216559
0.0215478
0.021567
0.435882
0.021949
0.0218127
4.75965
0.0218976
0.0258468
0.141348
4.38572
0.0217923
0.0219646
0.0219484
0.0216044
0.0226093
0.0377541
0.0234022
0.0321413
0.021734
0.0237901
0.0219054
0.0214506
0.025082
0.0569295
0.0231084
0.0256142
0.0220265
0.0219478
0.0221201
5.79472
0.0224747
0.0220122
15.6728
0.0221398
2.42442
0.022062
0.0219197
0.021688
4.9039
0.0218695
0.0243277
0.0222512
0.0220711
0.0219591
0.0220873
0.0218211
0.0232433
0.021861
0.0366194
0.0222478
0.0389504
0.0214274
0.0216011
0.0229068
2.53301
0.0221491
0.0220475
0.0223435
0.021895
0.0230838
6.04459
0.0224623
0.0261442
5.23292
0.297178
0.0224527
0.022077
0.17571
0.101861
0.0223622
0.0221142
0.0216417
2.73709
0.0220122
11.8198
0.0215938
0.0215183
0.022104
0.0216073
0.0228014
0.0215601
0.0219873
0.022265
0.0591638
0.023233
0.0220628
0.0215807
0.326845
0.0632554
0.021474
0.0221038
0.0229857
0.0222391
0.0220584
0.0215378
5.38484
0.0215423
0.0218784
0.0626398
0.021534
6.35999
0.0218132
0.0361578
0.0246891
0.0219611
0.0214848
0.0219028
0.0217172
0.022042
0.0215391
0.0215771
0.384184
5.02366
3.75319
0.0215744
1.3921
0.0219094
0.055187
0.0219005
0.0219071
0.0221082
0.504291
0.0219361
0.0218859
0.0221259
0.0219064
0.384286
0.0218948
3.85616
0.0214235
0.0219456
7.09961
9.55121
0.0219824
0.0219477
0.0258833
0.0220167
0.143284
0.0217395
0.556878
0.0217409
0.0344054
0.0221393
0.0218012
0.0219301
0.0219018
0.0227813
0.0218315
0.0291962
0.0313024
0.112359
0.0215244
5.22548
0.0218807
12.4157
0.0218882
8.57811
1.30502
0.0217366
0.0218907
0.0215437
0.021823
0.0220435
0.0216593
0.0215387
0.0219553
0.0214177
0.0890439
0.0221101
4.42445
0.021536
0.0214738
0.0219094
0.0219022
0.022083
1.49449
0.022255
3.61616
0.0214532
0.0221185
0.0309933
0.0215611
0.167176
0.0226457
0.0219144
0.0385855
0.0214851
0.0219712
0.0221497
0.0215451
0.0277114
0.039119
0.0215867
0.0221124
0.0220456
12.085
0.0230061
0.0214744
10.9591
0.051767
0.021582
0.0219036
0.180205
0.0221593
0.0214151
2.73075
0.193167
0.0221671
0.0214172
0.0222398
0.0343081
0.0215434
0.164421
0.0215782
0.0215836
0.041359
0.0529196
0.0215769
0.0215404
0.0214275
0.0216695
0.0216829
0.0387675
0.0219618
0.0216802
0.0221105
0.0218351
8.68605
0.0222722
1.5475
0.0250007
0.0265885
0.0221421
4.74826
0.0217762
4.72316
0.0214376
0.0219484
0.426816
0.0219657
0.022445
0.02163
0.0241398
0.0216222
0.0255389
0.0214721
3.58076
0.0220485
0.0214879
0.0214917
0.0215495
0.106118
0.0217544
3.43382
0.021902
0.0242036
0.0214799
0.0220169
0.220361
0.0219964
0.101767
0.0217994
0.0226757
0.0220334
0.022133
0.0221622
0.0218769
0.0219769
0.224091
0.0215498
0.0219337
0.0223388
0.022057
0.0220543
0.0323591
0.0215958
0.0219016
0.021819
0.0215699
0.0217507
0.0219936
11.2234
0.180285
0.376816
0.021415
0.0227493
0.0221256
0.0254873
0.126351
0.211029
0.0313387
0.0215313
0.0219723
0.0216378
0.0221443
0.0221142
0.021897
1.54923
0.0503687
0.0219255
0.26909
0.022137
7.36806
0.0219524
0.0218786
0.0217912
0.0214792
0.0214641
0.0216306
0.021633
0.0217576
0.0395956
0.0223543
0.0218901
4.19065
0.0215445
0.0220854
0.0219826
0.021486
0.0218988
0.28065
0.0217613