/*--------------------------------*- C++ -*----------------------------------*\
| =========                 |                                                 |
| \\      /  F ield         | OpenFOAM: The Open Source CFD Toolbox           |
|  \\    /   O peration     | Version:  v2012                                 |
|   \\  /    A nd           | Website:  www.openfoam.com                      |
|    \\/     M anipulation  |                                                 |
\*---------------------------------------------------------------------------*/
FoamFile
{
    version     2.0;
    format      ascii;
    class       volVectorField;
    location    "750";
    object      U_0;
}
// * * * * * * * * * * * * * * * * * * * * * * * * * * * * * * * * * * * * * //

dimensions      [0 1 -1 0 0 0 0];


internalField   nonuniform List<vector> 
9793
(
(0.969552 -0.0168483 -2.19002e-20)
(-0.201453 -0.0934879 0)
(0.994589 -0.00768748 -9.29999e-21)
(-0.148024 -0.25934 -4.83488e-20)
(0.999959 -0.000413236 -4.53245e-22)
(1.31445 0.129509 -1.32539e-19)
(1.17438 -0.227471 2.99762e-20)
(-0.0339686 -0.0368485 0)
(1.02415 -0.0260848 5.34262e-22)
(-0.155132 -0.00789133 -1.58033e-19)
(1.00006 -0.00194615 8.69565e-22)
(1.00007 -0.00224044 -9.16174e-21)
(1.00292 -0.00786959 0)
(-0.318859 -0.111196 0)
(1.0185 -0.0138838 0)
(1.03697 0.0230935 2.68473e-21)
(1.17201 -0.00511728 8.94634e-20)
(0.996715 -0.00922704 8.62968e-21)
(0.0960043 -0.281631 -4.18684e-20)
(1.0124 -0.00243552 0)
(1.01682 -0.00412995 2.47569e-23)
(0.999995 -0.000116856 -7.35827e-21)
(-0.222347 -0.0184338 6.20107e-20)
(-0.00134779 -0.0583815 -1.75854e-19)
(-0.260336 -0.147538 0)
(0.936276 -0.0601158 3.70138e-20)
(1.00033 -0.00407661 0)
(1.00002 -0.00038789 1.74521e-21)
(1.01238 -0.00256923 0)
(1.23054 -0.104434 -3.78784e-20)
(-0.438379 -0.0819165 0)
(1.42549 0.10169 -2.04137e-19)
(0.997636 -0.00546799 -7.22338e-21)
(0.999007 -0.00920277 6.49859e-21)
(1.0046 -0.000396974 3.50438e-21)
(1.07496 0.00919469 -9.56643e-21)
(1.03797 0.015464 -9.71708e-21)
(0.925781 -0.00393766 0)
(0.0960809 -0.253363 -2.72101e-19)
(1.09525 -0.0379543 1.11256e-20)
(1.21544 -0.101649 -5.57547e-20)
(1.48078 0.380204 -8.68461e-20)
(0.0123791 0.131529 0)
(1.00001 -0.000282931 -6.7044e-22)
(0.993875 -0.00317306 -1.05448e-20)
(0.997372 -0.00227413 3.41735e-21)
(-0.565502 -0.0174678 1.54769e-19)
(1.00001 -0.000255105 -7.17089e-21)
(1.02078 -0.000798923 -1.33907e-21)
(0.996443 -0.0089238 7.89422e-21)
(1.07264 0.0118434 0)
(1.00488 -0.000478135 -8.87234e-23)
(1.1136 0.00686778 1.59505e-20)
(1 -0.000493492 0)
(0.92415 -0.121803 -1.32115e-20)
(-0.174088 -0.272835 -3.15931e-20)
(1.00305 -0.00713052 0)
(1.12181 0.141531 -3.65581e-20)
(1.02099 -0.00117221 -1.37771e-21)
(1.00001 -0.000141494 0)
(0.913101 -0.0226249 -1.96003e-20)
(0.867821 -0.344863 0)
(0.995959 -0.00773971 8.53017e-21)
(1.05968 0.0446011 -7.05529e-21)
(1.00267 -0.00110703 0)
(1.023 -0.0249676 0)
(-0.502578 -0.0404985 0)
(1.05581 -0.0212412 7.48509e-21)
(1.03647 0.0179052 0)
(0.735982 0.191685 -6.12016e-22)
(0.98349 -0.0109747 5.97048e-21)
(0.601504 0.0152904 -1.88512e-19)
(-0.17421 -0.00129494 0)
(0.637407 0.0636477 0)
(1.19261 0.350842 0)
(0.999984 -0.000594185 0)
(0.8232 -0.141089 7.8652e-20)
(1.30749 0.131726 -3.0808e-19)
(0.99619 -0.00578469 9.23233e-21)
(0.999982 -0.000409928 -8.30287e-21)
(0.807692 -0.144274 -8.09102e-20)
(0.120016 -0.237651 -6.88134e-20)
(1.16193 0.000372453 -9.3786e-20)
(0.994608 -0.064518 6.7682e-21)
(1.03808 0.0174844 1.01922e-20)
(1.37891 -0.135069 2.13772e-19)
(0.99997 -0.000490899 1.02451e-20)
(1.0448 0.111321 3.17058e-20)
(0.0773218 -0.220603 2.79632e-19)
(0.852132 -0.326211 0)
(-0.292417 -0.135107 0)
(1.51195 -0.222639 3.09392e-19)
(1.49506 -0.239502 -1.01286e-20)
(1.12533 -0.0925987 -2.03491e-20)
(0.00996881 0.113655 0)
(0.998443 -0.0113478 0)
(1.21304 0.357699 0)
(1.16937 -0.0380998 3.95036e-20)
(1.05288 -0.0453087 -2.01056e-20)
(0.999975 -0.000361317 0)
(-0.445812 -0.300622 0)
(1.10916 0.00365498 -3.12552e-20)
(0.255747 0.00236811 -4.41835e-20)
(0.994327 -0.00326811 0)
(1.18411 0.515294 -3.74072e-19)
(1.02783 0.135128 -2.0486e-20)
(0.673525 0.032418 8.03371e-21)
(1.00455 -0.00548257 -2.82611e-21)
(0.99614 -0.00547914 9.92161e-23)
(0.999992 -0.000200147 0)
(1.00008 -0.00081523 0)
(-0.261712 -0.0489109 6.13266e-20)
(0.1009 -0.136723 -1.17955e-19)
(-0.321344 -0.0729577 7.4067e-20)
(0.984348 -0.0113934 -1.32596e-22)
(0.9995 -0.00384981 1.014e-20)
(1.02678 0.0165086 4.77409e-21)
(0.997713 -0.00285862 0)
(-0.192529 -0.322593 2.08851e-19)
(0.996875 -0.0021445 0)
(1.07799 0.560464 -4.99382e-21)
(1.04916 0.120565 2.86139e-20)
(1.26282 0.393108 0)
(1.10961 0.0401644 9.19301e-21)
(1.03961 0.0146524 8.95248e-21)
(0.997032 -0.00192272 0)
(1.19203 -0.0214373 4.07792e-20)
(-0.408332 -0.0885742 -1.69368e-19)
(0.964152 0.201435 0)
(0.946615 0.195853 -3.03918e-21)
(1.04694 0.00187391 0)
(1.00729 -0.0104304 -1.64592e-21)
(0.971206 -0.0176195 3.62717e-22)
(1.04863 -0.0191068 0)
(1.07193 0.00364314 1.86863e-20)
(1.26964 -0.236804 -6.41482e-20)
(1.2812 0.2641 0)
(1.02803 0.016461 -1.17397e-20)
(1 -0.000450222 0)
(1.1856 0.0198642 3.04632e-20)
(0.151612 -0.130402 0)
(1.07475 0.00551594 0)
(0.989633 -0.0177314 0)
(1.05557 0.0890887 -2.50608e-20)
(-0.546873 0.00444025 1.69248e-19)
(1.18226 -0.469646 -4.44003e-20)
(0.997001 -0.00142552 0)
(1.16694 0.337848 -5.57993e-20)
(1.00716 -0.0107621 1.97239e-21)
(0.996871 -0.00167268 -5.99467e-22)
(0.999752 -0.00457548 -8.64747e-21)
(0.273669 -0.130668 2.63491e-19)
(1.04968 -0.0433309 5.78667e-22)
(1.00026 -0.00412674 -4.96591e-21)
(0.988381 -0.00468892 8.57843e-21)
(1.47009 -0.285452 4.44701e-20)
(1.18055 0.00172451 -5.825e-20)
(0.996061 -0.00809451 -7.95819e-21)
(1.44197 0.120126 -3.96725e-21)
(0.988576 -0.0113793 4.17513e-21)
(1.05224 0.103493 -1.36704e-20)
(1.04897 0.00124434 1.43588e-20)
(1.01681 -0.00441052 -6.49432e-22)
(0.611242 -0.450724 3.98248e-20)
(1.02952 -0.00365333 -5.07628e-21)
(1.49389 0.139968 2.47271e-19)
(0.32562 -0.0464127 8.27251e-20)
(1.033 -0.00524483 -1.33717e-20)
(1.00451 -0.00499955 0)
(1 -0.00142064 6.71595e-21)
(0.988683 -0.017396 9.89007e-21)
(-0.175812 -0.0993231 2.67037e-19)
(0.56687 -0.297203 0)
(0.348981 0.677599 -1.33054e-20)
(1.00317 -0.00805732 1.0682e-20)
(1.29378 0.12798 1.09737e-19)
(1.06336 -0.372782 1.48801e-21)
(0.580294 -0.554496 0)
(0.995924 -0.00641901 0)
(1.05496 -0.0162494 -2.11081e-20)
(1.24182 0.530396 1.92541e-19)
(-0.603768 -0.0116978 -3.603e-19)
(1.04107 0.127978 -3.06997e-20)
(0.997124 -0.00247676 3.96906e-21)
(0.998159 -0.00238207 -7.35668e-21)
(1.0047 -0.00527244 2.76436e-21)
(1.2617 0.383505 -5.27516e-20)
(-0.265505 -0.0209694 0)
(0.997503 -0.47708 0)
(0.264133 0.0804002 -2.4964e-20)
(1.0207 -0.0241232 -5.74905e-23)
(-0.290828 0.545388 8.02476e-20)
(0.411065 -0.17011 1.62941e-19)
(0.925509 -0.0255957 -1.93714e-21)
(1.02088 0.000939508 -3.90126e-21)
(0.973293 -0.0491083 -1.82365e-20)
(0.185609 0.0819061 3.14032e-19)
(1.01111 -0.00266685 1.67056e-21)
(0.996588 -0.0094574 -1.10859e-20)
(0.999831 -0.00168725 0)
(0.981455 -0.0113658 -1.17476e-20)
(1.01778 -0.00316403 0)
(1.07231 0.0187959 8.23022e-21)
(1.05078 0.010897 -1.63139e-20)
(0.00444168 -0.4326 -6.94232e-20)
(0.98547 -0.00384389 1.56195e-20)
(1.08224 -0.0355925 2.44108e-20)
(1.03317 -0.00408386 0)
(0.977681 -0.0274518 -7.70831e-21)
(0.841144 -0.582338 0)
(1.17776 0.0155689 -4.04645e-20)
(0.132578 -0.0928169 7.20516e-20)
(1.01005 -0.00270361 0)
(0.600069 0.121371 1.54185e-19)
(0.990437 -0.0653986 -3.33976e-21)
(1.01633 0.0365285 0)
(1.0188 -0.014632 1.10087e-22)
(1.27757 -0.22104 -3.52772e-20)
(0.999544 -0.0037551 9.6399e-21)
(0.759968 -0.063267 0)
(1.17889 -0.0360739 -1.44866e-19)
(1.01789 -0.00342521 0)
(0.379644 0.452803 7.73629e-20)
(0.417208 0.922905 1.91675e-20)
(1.11661 -0.093226 0)
(0.998038 -0.0128172 0)
(1.12216 0.0587538 3.17635e-20)
(0.426627 0.652458 1.77408e-20)
(0.775831 -0.0909903 2.11104e-20)
(0.773611 -0.101776 0)
(-0.128869 -0.411075 1.25524e-19)
(0.997417 0.177677 -3.61168e-20)
(1.01843 0.0377849 0)
(1.05968 0.0479653 -9.34407e-22)
(0.418176 -0.145547 -1.44958e-19)
(1.0174 -0.000316523 1.41752e-21)
(-0.429538 0.327613 -1.38821e-19)
(-0.283853 -0.077928 0)
(1.01088 -0.00261454 0)
(0.999857 -0.00105399 0)
(1.44236 0.36917 1.42729e-19)
(0.991952 -0.013462 -8.5435e-21)
(1.00006 -0.000751645 4.23118e-21)
(1.10057 0.166495 -1.64432e-20)
(1.12429 0.1764 -4.35639e-20)
(1.02151 -0.0254774 3.2416e-23)
(1.0562 -0.0145556 2.68041e-20)
(1.08679 -0.0348328 -2.14317e-20)
(0.975596 -0.172142 0)
(1.0547 -0.00718755 -1.74923e-20)
(0.995846 -0.00608473 0)
(1.10513 -0.149497 2.0017e-20)
(-0.00729191 -0.461289 -1.61698e-19)
(1.01739 -0.00367989 0)
(0.337066 0.829552 -1.54705e-19)
(1.00002 -0.000582499 -4.2543e-21)
(1.00008 -0.00283165 0)
(1.00867 -0.000488766 -1.00367e-22)
(-0.165307 -0.311771 -3.3534e-20)
(0.994854 -0.00218131 3.4523e-22)
(1.49446 -0.289644 6.91175e-22)
(0.868353 0.192859 9.94406e-20)
(1.00076 -0.00294977 2.97275e-21)
(0.999633 -0.00369917 0)
(1.59675 -0.1004 0)
(1.0086 -0.000273404 -1.86956e-21)
(0.999944 -0.000855307 0)
(1.00886 -0.000256195 -1.70515e-21)
(0.748698 0.12093 -1.21553e-19)
(0.613006 -0.412915 -1.49573e-19)
(0.948193 -0.0546399 2.57105e-21)
(0.941423 -0.534216 -9.32355e-22)
(1.13603 0.127103 0)
(0.27436 0.0573433 -5.7832e-20)
(-0.226716 0.183288 -9.70792e-20)
(1.03427 -0.00598126 4.60042e-21)
(-0.106051 -0.459616 0)
(1.00001 -0.000547945 -8.50987e-22)
(0.432516 0.641115 1.21759e-20)
(0.413424 -1.24234 -1.00129e-19)
(-0.014237 -0.0135262 -1.01402e-21)
(1.10156 0.509218 5.50802e-20)
(1.01056 0.177731 3.71575e-20)
(1.04623 0.00389211 0)
(1.15423 -0.0060089 6.69732e-20)
(1.04967 0.00909979 1.78933e-20)
(1.02075 0.00176397 0)
(1.03261 0.000383977 -8.85098e-21)
(0.869368 -0.549916 0)
(0.933156 -0.0632783 1.67434e-20)
(0.999659 -0.00353252 5.94333e-21)
(1 -9.42186e-05 -1.05254e-20)
(1.01028 -0.00277031 0)
(1.01129 -3.04342e-05 0)
(1.0174 -0.00396679 -8.57852e-22)
(-0.292145 0.145871 1.37838e-19)
(1.00477 -0.00630919 -2.84645e-21)
(1.01694 -0.0142162 0)
(1.01108 -0.000119121 0)
(1.00308 -0.0074087 -2.40079e-22)
(0.0177689 -0.466217 -1.3093e-22)
(1.19949 -0.459188 -1.19653e-19)
(0.702984 0.0577963 0)
(0.956069 -0.0167209 -7.83094e-21)
(1.06302 0.0909123 0)
(1.01048 -7.25146e-05 -8.62366e-23)
(0.756334 0.038896 -1.90089e-20)
(0.148731 -0.0977185 -2.0542e-19)
(0.994508 -0.00283439 -1.14729e-20)
(0.959068 0.241325 0)
(1.06484 0.0382588 -4.27566e-20)
(0.993648 -0.00345779 1.71436e-20)
(-0.0460217 -0.0726178 9.13692e-20)
(0.725145 0.0584651 1.02283e-20)
(0.997884 -0.00541106 -9.06088e-22)
(1.10699 -0.158592 2.07652e-20)
(0.370869 1.03687 7.4215e-20)
(0.982017 -0.0246281 6.28004e-21)
(0.847984 0.00972016 3.81281e-20)
(1.01767 -0.0136671 0)
(0.977373 -0.0234803 1.47972e-20)
(0.48116 0.623079 1.78218e-20)
(0.92429 -0.177906 0)
(0.998996 -0.00889352 1.1962e-20)
(0.996845 -0.0031463 0)
(0.95842 -0.0158235 -6.78628e-21)
(1.13194 -0.377621 4.24992e-20)
(0.0980431 -0.225908 0)
(0.994459 -0.00724041 -1.54587e-22)
(1.00471 -0.00575495 3.67991e-22)
(1.02187 -0.00600647 3.43047e-21)
(-0.160756 -0.0980497 -3.18838e-19)
(-0.157446 -0.310505 1.00744e-19)
(0.0982045 -0.115065 0)
(1.01731 -0.000799071 -1.34506e-21)
(0.926641 -0.190804 0)
(0.843229 0.0183454 -5.03952e-20)
(0.892622 -0.757598 -3.20221e-20)
(1.14405 0.0958335 -4.34122e-20)
(1.01691 0.000551293 2.68459e-21)
(1.01841 0.000393809 0)
(1.02161 -0.00642251 -5.67901e-22)
(1.14614 -0.00170287 3.55112e-21)
(0.996794 -0.0307489 3.37076e-21)
(0.169556 -0.154106 -3.81859e-20)
(0.998859 -0.00355154 0)
(1.00863 -0.00973917 -7.8618e-21)
(0.44587 0.524073 4.81992e-20)
(-0.331182 0.160613 -2.14647e-19)
(0.543367 0.0579123 -1.54602e-19)
(1.01107 -9.99066e-06 7.38305e-22)
(-0.42072 -0.319821 0)
(0.998054 -0.0740504 -5.48919e-21)
(0.250163 -0.707598 6.09646e-20)
(0.138929 -0.152779 1.35875e-19)
(-0.105951 -0.417646 -2.89858e-19)
(1.00583 -0.0605103 0)
(1.0995 -0.0404936 3.0266e-20)
(1.29982 0.259687 -8.13753e-20)
(-0.338706 -0.118317 -3.25576e-20)
(-0.257572 -0.111339 -1.35903e-19)
(0.912858 0.0113639 4.46222e-20)
(1.00002 -0.000439791 -4.91655e-21)
(0.943707 -0.0547859 -1.26636e-20)
(1.01984 -0.000450978 -1.34078e-21)
(1.00523 -0.00612972 -2.67482e-21)
(0.996043 -0.0291284 3.31847e-21)
(1.0005 -0.00423593 -1.01149e-20)
(1 -3.77859e-05 0)
(0.24716 -0.159764 0)
(1.00002 -0.001775 0)
(1.19819 -0.0429595 1.41005e-21)
(1.09277 -0.028173 2.12883e-20)
(1.14653 0.370721 0)
(1.01669 0.000685136 -1.54254e-21)
(0.996951 -0.0671574 0)
(-0.0419925 -0.409328 -4.28177e-20)
(0.371304 -0.0419634 -1.41718e-21)
(-0.183613 0.177219 2.53907e-21)
(1.14071 0.0885905 2.09914e-21)
(1.0083 -0.00926367 5.6592e-21)
(1.00839 -0.062249 -3.40766e-21)
(0.995084 -0.00784405 -2.20429e-21)
(1.28275 -0.358699 -1.13993e-19)
(1.01002 -0.000763536 1.4161e-21)
(0.565835 0.0416443 7.59491e-20)
(1.00665 -0.419718 9.48204e-21)
(1.16158 -0.23717 -1.94356e-20)
(0.0347107 -0.108973 0)
(0.478311 0.617572 5.24895e-20)
(1.00055 -0.00250537 3.31532e-21)
(0.999025 -0.0126708 9.43264e-22)
(1.27476 0.281375 -1.07179e-20)
(1.29722 -0.34468 1.44995e-19)
(0.985703 -0.00312202 -4.9102e-21)
(0.010307 -0.149109 -3.0148e-19)
(1.0006 -0.00266257 0)
(0.999802 -0.00257895 -4.70452e-21)
(0.56543 -0.908402 -2.81432e-20)
(1.01002 -0.00256434 6.08028e-22)
(1.13396 0.139331 0)
(1.01761 -0.000529431 -1.45292e-22)
(0.38733 0.0326032 5.44624e-21)
(0.999015 -0.00358119 -7.81004e-22)
(1.02936 -0.00280345 1.92874e-21)
(0.537347 0.608447 1.70993e-20)
(0.626079 0.0157843 -1.22904e-19)
(1.00653 0.0451603 5.34921e-21)
(0.925631 -0.0297152 3.27222e-20)
(1.00097 -0.00310154 1.69176e-21)
(1.00378 -0.0154125 2.43639e-22)
(1.25264 0.380776 0)
(1.16705 -0.0495355 -3.63561e-20)
(1.01612 -0.00201919 -2.26612e-24)
(0.999704 -0.00171232 -1.98355e-20)
(0.914619 -0.121159 -6.47421e-21)
(0.847432 0.0361951 2.33386e-20)
(1.0068 0.0410749 0)
(-0.578283 0.00792363 0)
(0.999778 -0.00189219 -9.41095e-21)
(0.99873 -0.00939994 -1.30324e-20)
(0.689296 -0.494177 -7.95551e-20)
(1.001 -0.00303265 -8.12566e-21)
(-0.0166148 -0.454696 2.06672e-19)
(0.628424 -0.547957 1.03302e-20)
(0.997964 -0.00244795 7.81378e-21)
(0.99816 -0.0057369 0)
(1.03226 -0.000502263 6.03223e-21)
(1.00072 -0.0028069 0)
(1.02128 -0.00536145 1.99632e-21)
(-0.445245 -0.289983 0)
(0.757774 -0.0779649 1.67702e-21)
(1.57786 -0.112812 5.76336e-20)
(0.896601 0.0237582 1.38683e-20)
(1.03199 0.0109182 0)
(1.11393 0.03586 -4.89448e-20)
(0.929444 -0.00303774 -3.04636e-20)
(-0.233381 -0.302517 -1.70327e-19)
(0.916981 -0.0259623 9.61505e-21)
(0.999984 -0.000339236 0)
(1.05682 -0.0190586 0)
(1.20699 -0.427588 5.14837e-20)
(0.985772 -0.0133997 1.00492e-20)
(0.987696 -0.0114459 -5.6273e-21)
(0.982217 -0.0106511 -6.06471e-21)
(1.00987 -0.000744443 -6.59119e-22)
(1.00002 -0.00737243 8.19971e-21)
(1.01574 -0.0163545 2.10446e-21)
(0.997535 -0.00274938 7.95833e-21)
(1.0004 -0.00214235 6.10284e-21)
(0.982144 -0.0464366 0)
(1.05093 0.00686081 -2.20339e-21)
(1.08973 0.16849 -1.61524e-20)
(1.0101 -0.000133977 -4.90282e-22)
(0.223575 0.106781 -1.9828e-19)
(0.936341 -0.0498478 -3.85007e-20)
(1.01838 -0.447263 -5.90305e-21)
(-0.218163 0.268217 1.85588e-19)
(1.02119 0.00150441 3.0698e-21)
(0.46055 0.48898 -1.73223e-20)
(1.17189 -0.211732 0)
(1.02125 0.000619984 -2.34638e-21)
(1.01 -0.00107199 1.18289e-21)
(0.990484 -0.0194057 1.31837e-20)
(1.11687 0.703801 -5.92216e-20)
(1.14706 0.123959 0)
(1.01008 -0.00102303 -1.49051e-21)
(0.999107 -0.00310342 -6.07522e-21)
(0.999838 -0.00190666 1.17085e-21)
(0.725515 0.113834 0)
(1.05413 -0.399834 -2.80377e-20)
(1.22668 0.157731 2.15674e-20)
(1.00247 -0.00109341 6.62949e-21)
(0.988412 -0.00404739 -1.16291e-20)
(0.876555 -0.0469703 3.4811e-20)
(-0.61017 -0.0271601 0)
(-0.0833936 -0.0986418 4.81249e-19)
(0.9479 -0.0291601 0)
(1.04109 0.00290026 -1.07425e-20)
(0.418536 0.913001 5.50626e-20)
(1.54893 0.188695 1.90742e-19)
(1.10778 0.257225 -5.75239e-20)
(0.984846 -0.0287753 0)
(1.00795 -0.0101007 -1.47944e-22)
(0.0149719 -0.426835 -6.95251e-20)
(0.997102 -0.0111082 -8.19021e-21)
(1.08825 -0.367684 0)
(1.1716 0.355681 4.22171e-20)
(1.01573 -0.00190577 0)
(0.646476 -0.399159 9.62667e-20)
(1.07543 -0.0321485 -1.12985e-20)
(-0.413617 -0.292916 -2.10013e-21)
(1.00392 -0.0149487 -3.41079e-21)
(0.129333 -0.319504 -8.92782e-21)
(1.41514 -0.00141678 0)
(1.03767 0.0213786 0)
(1.60653 -0.0672977 0)
(0.997997 -0.0111432 1.00334e-20)
(0.921376 -0.708169 2.8545e-20)
(0.998827 -0.00327024 1.68385e-20)
(0.999917 -0.01246 7.20783e-21)
(1.00001 -0.00128429 -7.30401e-21)
(0.996689 -0.00849989 1.31313e-22)
(1.06937 0.294732 1.3979e-19)
(0.998452 -0.0118564 8.01622e-21)
(1.02072 -0.00198332 9.84824e-22)
(0.959082 -0.0220046 6.88611e-21)
(1.01746 -0.00104278 0)
(1.00781 -0.0104654 6.77558e-21)
(1.09326 -0.176694 -2.20699e-20)
(0.994829 -0.0494644 0)
(1.0647 0.0422103 7.87809e-21)
(1.00167 -0.00329818 4.05444e-21)
(1.00155 -0.00316774 -3.30768e-21)
(-0.045164 -0.420296 9.42257e-20)
(0.664016 0.0216894 -1.15225e-19)
(0.950273 -0.0282642 -4.18756e-20)
(0.405608 0.781587 2.65501e-20)
(1.0496 0.00515635 0)
(0.992485 -0.0336881 -1.63748e-20)
(0.995027 -0.00185255 -5.79899e-21)
(1.02156 -0.0050025 -9.68004e-23)
(0.193647 -0.123147 -2.11129e-19)
(1.02047 -0.00161095 -2.24279e-21)
(1.0013 -0.000463642 3.64207e-21)
(-0.606475 -0.0658265 0)
(1.50087 0.355102 1.16078e-19)
(0.988348 -0.172737 6.25584e-21)
(1.00286 -0.00759699 9.87692e-22)
(0.999991 -0.000216097 7.74474e-21)
(1.03107 -0.0135819 -6.12446e-21)
(0.999983 -0.000914868 0)
(0.21786 0.795628 -1.4008e-19)
(0.980348 -0.0249546 0)
(0.36043 0.0744319 -1.72035e-20)
(1.0405 0.0118021 1.1046e-20)
(0.318678 0.439297 -1.35198e-21)
(0.999975 -0.000502283 0)
(-0.714702 -0.0404647 2.86724e-19)
(1.00636 -0.000175956 -6.2602e-22)
(1.15155 -0.39213 1.90059e-21)
(0.996222 -0.0105444 0)
(0.978488 0.0950576 7.16007e-21)
(-0.00513833 -0.472844 -9.43009e-20)
(0.99896 -0.00326072 1.06731e-20)
(1.34857 0.421732 1.06589e-19)
(0.993743 -0.012499 5.58011e-21)
(1.00013 -0.000101583 5.20951e-21)
(1.01634 -0.00384263 2.6575e-22)
(1.24742 0.484324 -4.67437e-20)
(-0.0247161 -0.436572 1.55316e-19)
(0.989544 -0.0189532 -2.00412e-20)
(1.07957 -0.0316582 0)
(1.02005 -0.000789795 0)
(0.363822 0.91208 -5.8075e-20)
(1.01055 -0.000167561 3.10151e-22)
(1.11222 -0.145079 0)
(0.175008 -0.277282 0)
(0.923362 -0.000896404 0)
(1.0017 -0.000795379 0)
(0.835033 -0.154244 0)
(1.00008 -0.000460738 -2.14925e-22)
(1.03206 -0.0129487 2.31892e-21)
(1.02197 -0.00753309 8.78045e-22)
(1.08074 0.157632 1.57999e-21)
(1.00289 -0.00304192 -2.5014e-21)
(0.504829 0.918848 -5.39119e-20)
(1.0014 -0.00315373 0)
(0.999581 -0.0322118 0)
(1.04863 0.0548103 8.07285e-21)
(0.799878 -0.262652 2.85432e-21)
(1.15802 0.317211 0)
(1.01618 -0.013601 -1.20721e-22)
(-0.698787 -0.0384822 0)
(0.999475 -0.0129031 0)
(1.07405 -0.420397 3.68401e-20)
(0.990202 -0.00824574 1.4702e-20)
(1.03196 -0.00343795 7.18047e-21)
(0.997475 -0.0113867 1.73967e-22)
(1.00136 -0.0032055 -6.44326e-21)
(0.999976 -0.000411248 0)
(1.06923 -0.441486 -4.36115e-20)
(1.01973 0.0400022 -4.49213e-21)
(1.3515 0.429481 -5.59384e-21)
(1.28496 -0.0340998 -2.95266e-21)
(0.855243 -0.0686143 2.25756e-20)
(0.936981 -0.136072 0)
(0.628932 -0.87485 -2.81496e-21)
(1.05112 -0.0189456 0)
(0.113869 0.69879 7.41414e-20)
(-0.195924 -0.0899038 2.55036e-19)
(1.14889 -0.41592 2.85305e-20)
(1.29964 -0.246459 -7.71552e-20)
(1.17499 0.347775 0)
(1.107 -0.386973 -4.95494e-20)
(1.03217 -0.0121925 -7.14862e-21)
(0.0656103 -0.197914 0)
(1.0449 0.0538743 -1.33108e-20)
(1.03076 -0.00410372 -5.49824e-21)
(1.16828 -0.428195 2.47535e-20)
(1.00005 -0.000412005 1.68279e-21)
(0.915136 -0.560893 1.05697e-21)
(0.993111 -0.158248 -4.08216e-21)
(1.20112 0.225866 5.16767e-20)
(0.900751 0.0150362 -3.32797e-20)
(-0.375545 0.124108 9.83166e-20)
(-0.313851 0.0708085 0)
(1.05113 0.0504858 -2.87747e-20)
(1.18874 0.215208 0)
(0.999846 -0.00124487 -1.12831e-21)
(1.09733 -0.5376 0)
(0.954453 0.00523749 1.68911e-20)
(0.996407 -0.0102058 5.90097e-21)
(0.994362 -0.0289491 3.89617e-21)
(1.0259 0.0133809 5.74655e-21)
(1.15709 -0.0508147 0)
(-0.12531 -0.417315 1.0262e-19)
(0.931533 -0.49271 4.9812e-22)
(-0.381716 0.0722591 3.71627e-20)
(1.04777 -0.021515 -4.87399e-21)
(0.972857 -0.051667 -1.78088e-20)
(-0.441345 -0.285329 -5.97601e-20)
(0.432616 0.0958056 7.41097e-20)
(1.04051 0.000155046 5.34598e-22)
(1.14509 0.0713437 -7.26197e-20)
(0.97665 -0.0287602 3.06391e-20)
(0.272361 -0.823581 -5.19427e-20)
(0.525306 0.560306 -3.73185e-20)
(0.997922 -0.00268181 -7.8834e-21)
(0.707353 0.0713222 4.76204e-20)
(0.712183 -0.451881 6.31672e-20)
(-0.318999 0.0295137 0)
(1.00275 -0.000973909 6.58712e-22)
(0.941994 -0.0607138 -4.73961e-20)
(1.13248 0.411749 -1.02661e-19)
(1.06826 0.0178082 0)
(1.26094 0.382964 0)
(0.981861 0.104949 0)
(1.12692 0.369751 0)
(0.968705 -0.0763205 -8.80425e-21)
(1.05295 -0.0213422 0)
(1.02102 -0.0196959 5.19882e-22)
(0.988991 -0.00510323 -1.53775e-20)
(0.910991 0.204409 0)
(1 -0.000251924 9.34616e-22)
(0.892836 0.209458 0)
(1.3032 0.0197875 0)
(1.12788 -0.257551 1.34711e-20)
(1.00003 -0.000200748 0)
(1.00012 -0.000907084 1.57814e-21)
(1.0308 0.0127591 -3.27484e-21)
(1.02236 0.00511941 -2.96981e-21)
(1.00493 -0.000719847 0)
(0.991421 -0.0128199 -6.90618e-21)
(1.2703 -0.0386573 -5.3368e-20)
(1.05214 0.690337 5.75739e-20)
(-0.26549 -0.201428 -7.1937e-21)
(1.00001 -0.00027454 0)
(1.25954 -0.359749 -9.61622e-20)
(1.00241 -0.00697266 0)
(-0.213132 -0.162416 -1.8294e-19)
(1.07346 0.0703495 -1.2248e-21)
(0.8058 -0.107824 0)
(0.850273 0.0272073 0)
(1.40668 0.0189744 0)
(1.00734 -0.00321359 -1.12702e-21)
(0.99974 -0.00479576 -8.03391e-23)
(0.850074 -0.150327 -2.40935e-20)
(0.996535 -0.0111126 0)
(1.02976 -0.0134506 0)
(1.16971 0.0378123 6.66499e-20)
(-0.504533 -0.26909 -3.94947e-20)
(1.01801 -0.00296244 9.95589e-22)
(0.933339 0.214149 3.07923e-20)
(0.172864 -0.0166486 0)
(1.05703 -0.00833249 0)
(0.44701 0.641999 -3.57271e-20)
(0.304384 0.0365488 0)
(1.01639 -0.0171173 -1.29327e-21)
(1.18029 -0.0228599 -3.07015e-20)
(1.03814 0.0248649 1.00408e-20)
(1.01947 -0.0243354 0)
(1.01587 -0.00396184 -2.95162e-22)
(0.64397 -0.149168 0)
(0.112278 0.0277944 -1.13302e-19)
(-0.169571 0.0833207 -1.4372e-19)
(0.985029 -0.0142491 -1.09003e-20)
(0.996635 -0.00303616 0)
(1.01535 -0.00614252 0)
(1.0252 0.0180494 4.91854e-21)
(0.997503 -0.0487328 3.91157e-21)
(0.988489 -0.0620666 -1.24293e-20)
(0.528017 0.421737 -9.33361e-20)
(1.06695 0.0706014 -8.36542e-22)
(1.00044 -0.00232277 -3.34176e-21)
(1.60405 0.193068 1.65408e-19)
(1.07466 0.0161293 -8.91791e-21)
(0.865267 -0.0703065 0)
(1.02916 -0.0123958 0)
(-0.459087 -0.0605215 0)
(1.04414 0.00419128 -1.39485e-21)
(1.00353 -0.00212754 0)
(1.14114 -0.254471 -1.60131e-20)
(0.156961 0.0925591 0)
(1.01655 -0.00189615 4.0661e-22)
(0.997577 -0.00243602 -7.94352e-21)
(0.995494 -0.00755914 -6.47413e-21)
(1.03622 0.0197154 0)
(1.00734 -0.00302426 -1.17624e-21)
(1.05558 0.0513706 0)
(1.344 0.237255 9.65096e-20)
(1.00229 -0.0349894 -1.76446e-20)
(1.07129 0.159622 0)
(1.03931 -0.000959973 4.9348e-22)
(1.02774 -0.012165 2.33991e-21)
(1.17525 0.319983 2.92498e-20)
(-0.0274988 -0.196253 -3.73596e-20)
(1.03566 0.284852 0)
(0.99985 -0.00455835 5.10121e-21)
(1.01706 -0.00155441 -1.29402e-21)
(0.862176 0.377152 0)
(0.921691 -0.0231115 -9.71419e-21)
(0.872762 0.276319 4.62086e-21)
(1.016 -0.00145582 -6.15085e-22)
(0.993028 -0.0125596 0)
(-0.311498 -0.0788543 5.8316e-22)
(0.308388 0.02057 3.93904e-20)
(1.09016 -0.0400659 -4.94596e-21)
(1.11811 0.15328 0)
(0.710313 0.0106172 -6.35088e-20)
(0.998543 -0.0131089 0)
(1.00002 -0.000174993 -5.79419e-21)
(1.01659 -0.0246638 -1.33601e-21)
(-0.0234808 0.039013 -5.83163e-20)
(1.0014 -0.000561832 -5.99964e-21)
(0.999997 -4.5693e-05 1.05883e-20)
(-0.36712 -0.157559 0)
(0.905483 0.0155585 -3.06836e-20)
(1.39943 -0.128748 -2.77455e-19)
(0.8572 0.0102551 1.1632e-20)
(1.00283 -0.00699801 4.02556e-21)
(0.0288687 -0.248038 5.8971e-20)
(1.00002 -0.000488323 -1.30602e-23)
(0.991745 -0.00960967 0)
(1.01547 -0.0244556 0)
(0.94627 -0.112726 1.25662e-20)
(-0.0981916 -0.302729 -4.86283e-20)
(1.00015 -0.0030145 0)
(0.994438 -0.00212033 -3.59621e-22)
(0.9963 -0.0114406 0)
(0.99798 -0.0121891 8.1792e-21)
(1.00261 -0.00713115 -3.67689e-21)
(1.0212 -0.020597 3.46122e-22)
(1.19863 -0.243048 2.453e-20)
(0.939934 -0.118301 -8.64756e-21)
(0.981524 -0.0435668 8.12596e-21)
(1.00043 -0.00383193 0)
(0.93082 -0.114413 8.04613e-21)
(1.19538 -0.0132023 -1.26463e-21)
(1.03496 0.0231319 5.43201e-21)
(0.896648 0.0194272 3.14031e-20)
(1 -8.18122e-05 -5.75206e-21)
(1.01517 -0.0057673 2.59316e-22)
(1.01689 -0.0545757 0)
(-0.0127998 -0.446261 0)
(0.403183 0.476165 -2.77806e-21)
(1.0306 0.0104453 0)
(-0.249351 0.0915116 -1.88445e-19)
(0.999807 -0.00116944 0)
(0.967648 -0.0714403 -9.51463e-21)
(1.38159 -0.360955 -8.57951e-20)
(0.162757 -0.188706 5.98933e-20)
(1.01908 -0.0123699 -1.39411e-22)
(1.00006 -0.00247317 8.362e-21)
(0.44321 0.195642 -8.21712e-20)
(1.11688 0.0630456 -1.4176e-20)
(1.00372 -0.00214 -5.70424e-21)
(0.999955 -0.000716513 0)
(0.562758 0.939919 0)
(1.00002 -0.000126703 5.33169e-21)
(1.20644 -0.115751 5.84726e-20)
(0.997923 -0.00580114 4.44475e-22)
(0.360981 -0.00308402 -1.68865e-19)
(0.999963 -0.000773172 -8.57868e-21)
(1.00675 -8.12339e-05 -2.31817e-21)
(0.999211 -0.00317746 6.03855e-21)
(1.07854 -0.074622 -8.73106e-21)
(1.0217 0.00484646 0)
(0.949618 -0.0493779 -2.65168e-21)
(0.916395 0.00924317 -2.89153e-20)
(0.554295 0.0860111 -8.28712e-20)
(1.0047 -0.00650707 -4.60218e-21)
(1.00017 -0.00719257 0)
(1.00005 -0.000277819 0)
(1.0003 -0.0126908 -9.08818e-21)
(1.03179 -0.0101878 -4.3673e-21)
(1.02553 0.00016802 0)
(1.09637 -0.0320599 -1.31796e-20)
(0.998987 -0.00310906 0)
(1.0801 0.0808292 -2.24958e-20)
(-0.0717814 0.162504 1.20368e-21)
(1.13936 -0.00673211 0)
(1.18034 0.0378335 0)
(0.99979 -0.00164993 2.01321e-20)
(1.02221 -0.0070273 -1.43085e-21)
(-0.267178 -0.0754354 -1.97917e-19)
(0.687017 0.330742 0)
(1.01552 -0.00366924 3.4459e-22)
(0.403882 0.672923 0)
(-0.469717 -0.0806059 1.94016e-19)
(1.01734 -0.00162736 1.97563e-21)
(0.994259 -0.00244424 1.14006e-20)
(1.00291 -0.0107192 1.03008e-20)
(1.20459 -0.210513 3.90181e-20)
(1.07533 0.0856897 1.32003e-20)
(0.142285 -0.14735 1.59773e-21)
(1.0051 -0.00638171 6.21638e-21)
(1.03792 -0.0660864 0)
(1.00497 -0.00462894 0)
(0.976607 -0.0250614 1.80891e-20)
(1.00622 -0.000151508 0)
(1.10864 -0.283072 2.12638e-20)
(1.03152 -0.00929949 2.66129e-21)
(1.37007 -0.154073 7.1485e-20)
(0.99995 -0.00427988 0)
(0.958516 -0.259164 1.64881e-20)
(1.00412 -0.00612731 5.73513e-21)
(0.976244 -0.0476896 3.61317e-20)
(0.990409 -0.00980036 -1.60079e-20)
(1.02243 0.03959 5.28207e-21)
(0.740589 0.114133 4.90521e-20)
(-0.562083 -0.0747357 9.30031e-20)
(0.514368 -0.262829 -1.07629e-20)
(0.399004 0.697379 -3.73227e-20)
(1.11989 0.0508846 -3.96962e-20)
(0.992812 -0.0133577 6.23817e-21)
(0.630095 -0.820118 -2.34539e-20)
(0.0797378 -0.157497 0)
(1.07605 0.10054 3.86671e-20)
(1.02928 -0.00909299 -4.3917e-21)
(1.00041 -0.00424173 -4.73096e-21)
(0.17413 0.21442 0)
(1.00319 -0.0110238 -4.8648e-21)
(-0.120091 -0.275467 1.23211e-19)
(1.01764 -1.56811e-05 -5.74627e-22)
(1.05205 0.0303037 2.79577e-21)
(1.03295 -0.00787302 1.31219e-20)
(0.999958 -0.000220459 -1.20541e-20)
(1.01926 -0.0132362 0)
(1.36325 0.393553 -1.75185e-20)
(0.0984593 0.0769335 7.02001e-20)
(-0.144456 -0.229065 5.10528e-20)
(0.681189 0.0291456 1.14846e-19)
(-0.193199 -0.0886452 -3.21732e-19)
(0.996517 -0.0082108 1.31719e-22)
(1.01079 0.784597 9.13318e-20)
(0.919251 0.0873248 -4.40086e-19)
(1.00002 -8.95025e-05 1.13847e-20)
(0.998615 -0.0307641 0)
(1.00843 -0.00423035 0)
(1.11604 0.349518 1.29877e-19)
(1.01538 -0.00207676 0)
(0.0152568 0.106838 -2.90727e-19)
(0.869373 -0.0532489 0)
(1.26789 0.104447 0)
(1.01333 -0.0356415 0)
(1.31966 -0.385357 -4.63877e-21)
(-0.507585 0.0413589 0)
(0.172355 0.00261222 -2.3088e-19)
(0.960556 -0.108979 -5.52904e-21)
(1.10002 -0.0144861 -3.3351e-21)
(1.00157 -0.000825856 0)
(0.620404 -0.227972 -1.63794e-19)
(1.01552 -0.00120592 5.61852e-22)
(0.411889 0.292905 8.39297e-21)
(1.32592 0.142806 -9.98693e-20)
(0.842549 -0.26169 8.6759e-21)
(1.22581 0.297151 -3.87429e-19)
(0.842892 0.224341 1.42229e-19)
(1.05254 -0.00857409 9.11928e-22)
(1.02223 -0.0526165 2.77166e-23)
(1.00301 -0.00327001 0)
(0.962113 0.0818011 -2.25184e-22)
(0.01224 0.00903769 -2.94948e-19)
(-0.130964 -0.106966 1.37417e-19)
(1.00792 -0.00401294 -3.96916e-21)
(0.215468 0.60598 -8.31291e-20)
(1.03376 0.0215996 -1.23477e-20)
(1.11043 0.179338 0)
(0.580554 0.0902753 0)
(-0.497044 -0.260863 3.35271e-20)
(-0.476588 -0.251489 5.1101e-20)
(1.01814 0.000617466 0)
(0.933819 -0.053549 -6.16728e-20)
(1.07084 0.0255042 4.56257e-21)
(1.03928 0.0126956 -5.9307e-22)
(1.03087 0.0140022 7.34295e-21)
(0.466681 0.467583 3.85334e-21)
(0.999859 -0.00191845 0)
(1.04835 -0.0104969 3.26988e-21)
(1.01056 -9.36416e-05 -8.86944e-22)
(1.01763 0.000496857 1.49026e-21)
(1.18501 -0.189316 0)
(1.1279 0.162888 1.36801e-21)
(1.09607 0.343908 -1.14933e-19)
(1.0387 -0.0172795 1.20127e-20)
(1.05184 -0.472905 -1.46223e-19)
(1.22072 -0.304618 -7.28004e-20)
(1.36797 -0.318528 -1.75112e-20)
(0.908994 0.00966722 -1.44806e-20)
(1.0001 -0.00042925 7.44389e-21)
(1.038 -0.0186591 0)
(1.00012 -0.000446806 -8.73067e-21)
(0.989121 -0.0107575 -1.88228e-20)
(1.35836 -0.337676 0)
(0.867003 0.255872 -2.03271e-21)
(1.02562 -0.0258823 -7.92418e-22)
(0.98955 -0.00868953 -7.90098e-21)
(1.06833 0.0320421 -1.72148e-20)
(0.202654 -0.19375 -1.77085e-19)
(1.03218 -0.0746966 5.49732e-22)
(0.989509 -0.00254888 2.37262e-21)
(0.396237 0.0868872 0)
(0.995692 -0.00843414 -8.23573e-21)
(0.999989 -0.000193434 1.15656e-20)
(1.01587 -0.00124022 -7.90673e-22)
(1.04966 0.0951519 -1.34199e-20)
(0.997099 -0.0028883 0)
(1.04339 0.0147979 3.28716e-21)
(-0.152599 0.070649 7.41988e-22)
(1.20022 -0.0333763 5.18454e-20)
(1.00409 -0.000105106 0)
(0.139155 0.580551 9.19508e-20)
(0.588302 0.0386442 1.35428e-19)
(0.99589 -0.00886164 -7.7154e-21)
(1.03052 0.00906759 7.80404e-22)
(1.105 -0.00591094 1.48663e-20)
(1.00003 -0.000133915 -1.0254e-20)
(1.00202 -0.00687627 -3.97162e-21)
(1.0155 -0.0123186 9.24901e-22)
(1.13264 -0.165882 -8.0228e-20)
(0.790751 0.059737 0)
(1.00354 -0.0363437 -6.55903e-21)