/*--------------------------------*- C++ -*----------------------------------*\
| =========                 |                                                 |
| \\      /  F ield         | OpenFOAM: The Open Source CFD Toolbox           |
|  \\    /   O peration     | Version:  v2012                                 |
|   \\  /    A nd           | Website:  www.openfoam.com                      |
|    \\/     M anipulation  |                                                 |
\*---------------------------------------------------------------------------*/
FoamFile
{
    version     2.0;
    format      ascii;
    class       surfaceVectorField;
    location    "750";
    object      Uf_0;
}
// * * * * * * * * * * * * * * * * * * * * * * * * * * * * * * * * * * * * * //

dimensions      [0 1 -1 0 0 0 0];


internalField   nonuniform List<vector> 
14470
(
(0.970359 -0.0171869 -1.14102e-20)
(0.968724 -0.017226 -4.76204e-22)
(0.969694 -0.0154417 -8.20641e-21)
(-0.124735 -0.0770815 4.90948e-20)
(-0.133655 -0.0792521 0)
(0.994513 -0.00743317 -4.24418e-21)
(0.994847 -0.00773774 -5.79037e-21)
(0.994363 -0.00788752 -1.59284e-20)
(-0.15616 -0.264709 -4.2202e-20)
(-0.132275 -0.268843 5.01966e-20)
(-0.147635 -0.241065 3.32308e-21)
(0.999969 -0.000383286 -2.2717e-22)
(0.999966 -0.0003607 -2.27383e-22)
(0.999937 -0.000519572 9.73984e-23)
(1.30504 0.128373 -2.06889e-20)
(1.32131 0.137696 -1.13415e-19)
(1.32035 0.117923 -1.01772e-19)
(1.16634 -0.232404 2.17384e-21)
(1.1732 -0.219928 1.5257e-20)
(1.18502 -0.231878 -3.37621e-20)
(-0.0122464 -0.0480726 -9.8053e-20)
(0.0276425 -0.0206701 0)
(-0.133429 -0.0395699 0)
(1.02362 -0.0255572 2.85133e-22)
(1.02504 -0.0259624 -2.65292e-22)
(1.02382 -0.0271446 6.76493e-22)
(1.00008 -0.00210522 -4.57806e-21)
(1.00005 -0.0018611 4.25147e-22)
(1.00006 -0.00184597 9.16699e-22)
(1.00006 -0.00236308 -4.09126e-22)
(1.0001 -0.00238369 2.59219e-21)
(1.00305 -0.00796821 5.61142e-21)
(1.00291 -0.0077017 5.35839e-22)
(1.00277 -0.00798875 0)
(-0.288048 -0.127992 0)
(-0.356076 -0.12782 3.74314e-20)
(-0.307507 -0.0619449 1.1875e-20)
(1.01867 -0.0144366 6.12569e-23)
(1.01801 -0.013844 0)
(1.01896 -0.0135343 0)
(1.03736 0.0222656 1.33082e-21)
(1.03764 0.023887 6.45451e-21)
(1.03586 0.0231206 4.1631e-21)
(1.16645 -0.00174111 -9.25574e-21)
(1.17649 -0.00179397 3.32122e-21)
(1.17249 -0.0112874 5.88317e-20)
(0.996585 -0.00908001 8.28385e-21)
(0.996625 -0.00935187 -2.38408e-21)
(0.996966 -0.00919243 -2.03241e-21)
(0.109499 -0.265788 -5.41308e-20)
(0.105356 -0.296015 -2.03524e-20)
(0.072219 -0.297667 7.10962e-21)
(1.01238 -0.00250679 0)
(1.01227 -0.00232334 0)
(1.01254 -0.00239654 -8.08707e-24)
(1.01682 -0.00429114 -3.88467e-22)
(1.01714 -0.00403265 -4.43467e-22)
(1.01657 -0.00398591 1.12038e-22)
(0.999993 -0.000158862 -3.6842e-21)
(0.999992 -0.000165985 3.67308e-22)
(-0.243849 -0.0329101 6.16786e-20)
(-0.218256 0.0228465 2.70525e-20)
(-0.19373 -0.0380632 -3.85246e-20)
(0.0676138 -0.0629151 2.24032e-20)
(-0.0745145 -0.0652847 -8.39989e-20)
(-0.264057 -0.175385 -3.85673e-21)
(-0.21868 -0.127664 0)
(0.934542 -0.0619153 2.54983e-20)
(0.939148 -0.0603702 -4.87865e-21)
(0.934861 -0.0564315 -1.74046e-20)
(1.00029 -0.0040819 -2.71804e-21)
(1.00038 -0.00416905 -2.55788e-21)
(1.00035 -0.0039946 2.04982e-21)
(1.00002 -0.000326917 4.46608e-22)
(1.00002 -0.000373536 1.1876e-21)
(1.00004 -0.000463865 -1.01773e-21)
(1.01226 -0.00257555 0)
(1.01251 -0.00266065 5.57352e-22)
(1.22364 -0.103412 -4.59073e-20)
(1.23518 -0.0998834 1.48265e-20)
(1.23297 -0.11397 -1.74279e-20)
(-0.425459 -0.0843459 -7.83198e-20)
(-0.41814 -0.0816295 7.23396e-20)
(-0.48133 -0.0705566 1.29208e-19)
(1.43438 0.11136 -9.10468e-20)
(1.41055 0.105252 -4.763e-20)
(1.43078 0.0857558 -1.23201e-19)
(0.997763 -0.0054359 -4.02738e-21)
(0.997611 -0.00525363 1.99585e-21)
(0.997518 -0.00570137 -3.40085e-21)
(0.998995 -0.00905308 9.12378e-21)
(0.99886 -0.00930469 -4.76529e-21)
(0.999185 -0.00929242 3.0035e-21)
(1.00473 -0.000448809 1.82913e-21)
(1.00453 -0.00045276 1.72671e-21)
(1.00441 -0.000258437 1.66084e-21)
(1.07428 0.0102028 -5.39566e-21)
(1.07458 0.00718041 -4.65603e-21)
(1.07716 0.0100554 5.15804e-21)
(1.03803 0.0164974 4.95936e-22)
(1.03869 0.0150947 -1.14705e-21)
(1.03712 0.0149668 -4.73848e-21)
(0.927768 -0.00349035 -1.55738e-20)
(0.924547 -0.00209401 0)
(0.925122 -0.00658136 0)
(0.0850089 -0.237435 7.02044e-21)
(0.0434819 -0.292324 -3.62275e-20)
(0.14065 -0.251268 -1.45009e-19)
(1.09771 -0.0400907 2.20143e-20)
(1.09248 -0.0392224 3.0737e-21)
(1.09569 -0.0346741 -2.52223e-21)
(1.21087 -0.108926 3.19752e-21)
(1.21229 -0.0958789 4.02741e-20)
(1.46632 0.372593 2.09534e-20)
(1.49043 0.365 2.84516e-20)
(1.43976 0.398453 2.83808e-20)
(0.0184112 0.125421 0)
(0.0935336 0.152836 6.40022e-20)
(-0.085654 0.117652 0)
(1.00001 -0.000216131 -3.19108e-22)
(1.00002 -0.000309742 -8.09493e-22)
(0.994104 -0.00321778 -5.45273e-21)
(0.993767 -0.00333065 3.90481e-21)
(0.993745 -0.00288421 -1.13294e-20)
(0.997241 -0.00238259 3.70798e-21)
(0.997479 -0.00236726 -2.74111e-21)
(0.997417 -0.00211425 -2.15609e-21)
(-0.586193 -0.0149554 -1.12793e-19)
(-0.589086 -0.0226059 7.29451e-20)
(-0.50944 -0.0132248 8.13119e-20)
(0.999995 -0.000371963 -3.62282e-21)
(1.00001 -0.000195201 -3.6831e-21)
(1.00001 -0.000193385 3.19861e-22)
(1.0209 -0.000998469 -1.39317e-21)
(1.0204 -0.00079127 -6.41776e-22)
(1.02104 -0.000511589 9.86668e-22)
(0.996571 -0.00870285 3.84857e-21)
(0.996178 -0.008895 4.26418e-22)
(1.07387 0.0143058 -4.92743e-21)
(1.07094 0.0112278 0)
(1.0049 -0.000615667 -4.35554e-23)
(1.00494 -0.000408738 -2.27587e-21)
(1.11118 0.00467076 -4.45998e-21)
(1.1167 0.00396862 2.22021e-20)
(1.11248 0.00876916 -1.31579e-20)
(1 -0.000530889 -2.34088e-21)
(0.999992 -0.000549215 0)
(0.918616 -0.120338 -9.9252e-21)
(0.927717 -0.117907 -2.68256e-21)
(0.925966 -0.128298 1.78811e-20)
(-0.169437 -0.293588 -3.31253e-20)
(-0.195994 -0.259343 -1.62924e-20)
(1.00306 -0.00728084 -1.28931e-22)
(1.00291 -0.00705837 2.18194e-21)
(1.00317 -0.00705674 -5.20473e-22)
(1.12812 0.140391 -1.76477e-20)
(1.11987 0.147684 -1.74161e-20)
(1.11743 0.137002 -1.50466e-21)
(1.02075 -0.00137809 -1.79394e-21)
(1.02138 -0.00113799 -8.76195e-22)
(1 -0.000202001 4.83823e-22)
(0.915123 -0.0241987 -4.82919e-21)
(0.91004 -0.0231224 -7.55259e-21)
(0.914059 -0.0189044 -1.51925e-20)
(0.859034 -0.335289 0)
(0.877874 -0.344065 0)
(0.85305 -0.36673 7.03473e-21)
(0.996001 -0.00790041 4.53645e-22)
(0.995718 -0.00766285 1.07043e-21)
(0.996124 -0.00759304 -1.02007e-21)
(1.05974 0.0466542 -4.36409e-21)
(1.0622 0.04328 1.30401e-21)
(1.05756 0.0435576 -3.32419e-21)
(1.00256 -0.00109862 3.32094e-21)
(1.00271 -0.00101629 3.64905e-22)
(1.00274 -0.00122603 0)
(1.02227 -0.025223 1.62701e-23)
(1.02323 -0.0242416 0)
(-0.611146 -0.0401004 1.47839e-19)
(-0.603897 -0.0389041 0)
(1.05631 -0.0200671 3.45714e-21)
(1.05437 -0.0213106 3.75199e-21)
(1.05686 -0.0226719 8.70172e-21)
(1.03731 0.017689 5.20823e-21)
(1.03638 0.0188924 0)
(1.03565 0.0173073 6.06867e-22)
(0.659674 0.151116 8.78683e-20)
(0.784829 0.207492 6.66395e-20)
(0.775967 0.224277 -5.87552e-20)
(0.983914 -0.0110749 3.28911e-21)
(0.982832 -0.0108319 4.14912e-24)
(0.983687 -0.0101688 2.68241e-21)
(0.616132 0.0153461 -1.54772e-19)
(0.596268 0.0288025 -1.77848e-20)
(0.59476 0.000478768 2.90678e-20)
(-0.221542 -0.01067 0)
(-0.0865771 0.00290798 -1.38632e-19)
(-0.214376 0.00729988 2.66683e-21)
(0.655251 0.0475063 3.7009e-21)
(0.606454 0.0516343 1.43571e-20)
(0.650808 0.0950719 2.52427e-22)
(1.19851 0.350429 0)
(1.12812 0.325935 7.25603e-20)
(1.22217 0.36565 -6.45485e-20)
(0.999995 -0.000522537 0)
(0.999994 -0.000567523 -3.44064e-21)
(1.00001 -0.00072064 4.65962e-21)
(0.814538 -0.142216 -2.08993e-20)
(0.82958 -0.148508 3.71291e-20)
(0.826262 -0.132505 6.78051e-22)
(1.39549 0.137054 -4.58963e-20)
(1.26253 0.145553 -1.27764e-19)
(1.23528 0.101779 9.4893e-20)
(0.996165 -0.00563084 4.68041e-21)
(0.996033 -0.00592941 4.83432e-21)
(0.996363 -0.0058225 9.31883e-21)
(0.999976 -0.000450302 8.98849e-22)
(0.999979 -0.000456494 -4.10994e-21)
(0.999988 -0.000318941 -2.85498e-22)
(0.804634 -0.149175 -3.52217e-20)
(0.802056 -0.132156 1.54256e-20)
(0.102339 -0.216195 4.59817e-21)
(0.153507 -0.221794 -5.18279e-20)
(1.15787 -0.00309621 -1.32969e-20)
(1.16112 0.00546074 -3.06052e-20)
(0.992481 -0.0650648 1.83293e-21)
(0.995785 -0.0659073 3.17541e-21)
(0.995484 -0.0624831 3.34556e-21)
(1.03901 0.0180733 4.17623e-21)
(1.3891 -0.132587 -5.27784e-20)
(1.37431 -0.145187 1.38024e-19)
(1.37096 -0.123608 1.02889e-19)
(0.999972 -0.000450395 5.28516e-21)
(0.999956 -0.000602151 8.2807e-21)
(1.047 0.115813 3.01722e-20)
(1.04865 0.107362 8.1955e-21)
(1.03971 0.109123 1.79234e-20)
(0.127786 -0.181049 1.3117e-19)
(0.0231149 -0.226279 -7.74649e-21)
(0.853951 -0.314034 3.12091e-20)
(0.830376 -0.335754 3.56394e-20)
(-0.314751 -0.125753 -1.64356e-20)
(-0.275247 -0.122001 -7.31013e-20)
(-0.286526 -0.163387 0)
(1.50314 -0.229957 1.69957e-19)
(1.50686 -0.206649 2.25717e-20)
(1.52654 -0.225514 9.58164e-20)
(1.50762 -0.258527 9.22528e-20)
(1.47508 -0.235866 2.83571e-20)
(1.11981 -0.0933089 -8.90432e-21)
(1.12862 -0.0989088 -9.03051e-21)
(1.12723 -0.0883899 -9.46523e-21)
(-0.0441928 0.0806844 3.08485e-20)
(0.137322 0.143095 -9.70915e-23)
(0.998212 -0.0112419 5.20363e-21)
(0.99843 -0.0116155 4.26674e-21)
(0.99866 -0.0111818 3.92334e-21)
(1.17527 0.345998 -3.83011e-20)
(1.23852 0.376356 0)
(1.17441 -0.0371841 -6.14772e-20)
(1.1684 -0.0438421 1.3804e-21)
(1.1653 -0.0344229 1.86227e-20)
(1.05142 -0.0444617 -1.11066e-20)
(1.05458 -0.0447661 -5.80281e-21)
(1.0527 -0.0476712 -1.3624e-21)
(0.999991 -0.000278404 0)
(0.999968 -0.000420713 0)
(-0.432526 -0.311251 0)
(-0.445604 -0.295656 0)
(-0.462592 -0.294424 -5.45067e-20)
(1.10954 -0.000525753 -1.4506e-20)
(1.10576 0.00540104 -1.49673e-20)
(0.261844 0.0452549 -3.42429e-20)
(0.264792 0.0302539 -5.23325e-20)
(0.263609 -0.0875588 1.6476e-20)
(0.994418 -0.00302299 -6.20095e-21)
(0.994488 -0.00344731 -4.91879e-21)
(1.21084 0.519052 -1.34907e-19)
(1.14285 0.513289 -1.58613e-19)
(1.16566 0.472738 -1.16003e-19)
(1.12228 0.14582 -5.1792e-22)
(0.96907 0.110444 -2.40921e-19)
(0.980804 0.145519 2.11473e-19)
(0.70305 0.0489786 1.41984e-20)
(0.670171 0.00270766 -4.17775e-21)
(1.00463 -0.00538454 -2.21645e-23)
(1.00463 -0.00562682 -1.19182e-21)
(1.00441 -0.00544254 -1.40422e-21)
(0.995951 -0.00542704 -9.59227e-21)
(0.996302 -0.00531496 -5.925e-21)
(0.999992 -0.000142454 0)
(1.00006 -0.000763864 2.33612e-21)
(1.00008 -0.000745449 0)
(1.00009 -0.000927666 0)
(-0.259655 -0.0818996 -4.40305e-20)
(-0.28796 -0.03461 2.93964e-20)
(0.122998 -0.141708 -5.91628e-20)
(0.0878305 -0.147954 -5.00267e-20)
(0.0935473 -0.109075 -4.9561e-20)
(-0.304781 -0.0757638 4.01216e-20)
(-0.315676 -0.0759401 4.03289e-20)
(-0.338867 -0.066912 -6.98305e-20)
(0.984908 -0.0111242 2.90483e-21)
(0.984271 -0.0117404 3.33868e-21)
(0.999525 -0.00380441 9.89627e-21)
(0.999538 -0.00392347 -1.34608e-21)
(0.999425 -0.00385522 -6.01049e-21)
(1.02762 0.0164357 -5.01339e-21)
(1.02648 0.015868 2.24368e-21)
(1.02669 0.0175154 2.07158e-21)
(0.997622 -0.0028025 4.05151e-21)
(0.997825 -0.00276806 -4.03416e-21)
(0.997692 -0.00302664 2.68326e-22)
(-0.18059 -0.31706 9.31748e-20)
(-0.211661 -0.312162 2.58499e-20)
(-0.18154 -0.339324 -4.41063e-20)
(0.996962 -0.00205159 0)
(0.996899 -0.00231244 -5.51388e-21)
(0.996714 -0.00222121 3.47642e-21)
(1.08914 0.531341 2.50258e-20)
(1.10428 0.588245 -4.34541e-20)
(1.01444 0.550759 1.51097e-21)
(1.04486 0.124633 -2.87883e-21)
(1.055 0.122423 1.19256e-20)
(1.2625 0.388434 -2.26059e-20)
(1.25694 0.385743 0)
(1.25605 0.391431 0)
(1.11217 0.0378951 -2.13573e-20)
(1.11023 0.0443261 4.75895e-21)
(1.10619 0.0395979 2.22204e-20)
(1.03942 0.0135957 3.89485e-21)
(1.04069 0.0150708 -7.82117e-21)
(0.996947 -0.00178917 -3.17348e-22)
(0.997171 -0.00188267 4.03856e-21)
(1.18614 -0.022374 5.99135e-21)
(1.1944 -0.0164294 1.59601e-20)
(1.19655 -0.0280231 4.68347e-20)
(-0.441816 -0.0843516 2.797e-20)
(-0.362383 -0.094871 -8.95624e-20)
(0.957066 0.199756 -1.42966e-21)
(0.970189 0.192194 0)
(0.969851 0.211569 -2.19495e-20)
(0.940098 0.206462 1.30248e-20)
(0.942239 0.184837 -1.3987e-21)
(1.04797 0.00155465 7.26711e-21)
(1.04664 0.00288359 0)
(1.04623 0.00111781 0)
(1.00722 -0.0106092 3.35364e-22)
(1.00757 -0.0104531 2.81583e-21)
(1.00716 -0.0102301 -2.25862e-21)
(0.972097 -0.01675 1.58857e-22)
(0.971299 -0.0184401 9.67889e-21)
(1.04987 -0.0190742 0)
(1.04823 -0.0203448 -2.49952e-21)
(1.04776 -0.0181333 -5.30185e-21)
(1.07357 0.0046823 7.68062e-21)
(1.07002 0.00419908 3.93302e-21)
(1.07228 0.0011142 1.27596e-20)
(1.27243 -0.228784 -5.02457e-20)
(1.25847 -0.236608 1.12469e-20)
(1.27459 -0.247924 -1.23181e-19)
(1.29149 0.261869 -4.14543e-20)
(1.27864 0.274309 -5.7007e-21)
(1.27305 0.255556 5.13537e-21)
(1.02852 0.017389 -5.29699e-21)
(1.02848 0.015781 2.70134e-21)
(1 -0.000505433 -3.98689e-21)
(0.999996 -0.000342892 0)
(1.18227 0.0179303 8.03625e-22)
(1.18561 0.0240643 1.49367e-20)
(1.19088 0.0154954 -1.18088e-20)
(0.141577 -0.114154 3.57075e-20)
(0.113941 -0.164383 3.34751e-20)
(0.18492 -0.135505 9.56875e-20)
(1.07664 0.00408049 0)
(0.989089 -0.0173656 5.43051e-21)
(0.989519 -0.0183914 -1.1244e-20)
(0.990148 -0.0174212 0)
(1.0594 0.0900319 -1.21199e-20)
(1.05263 0.0922346 -1.91599e-20)
(1.05424 0.0855044 9.1234e-21)
(-0.574399 -0.00433945 -1.00743e-19)
(-0.564513 0.0058169 7.82705e-20)
(-0.499981 0.0124693 8.65923e-20)
(1.19098 -0.463918 -8.50753e-20)
(1.17355 -0.465208 3.03168e-20)
(1.18067 -0.485511 1.89401e-20)
(0.996935 -0.00156233 -3.21709e-22)
(0.997148 -0.00139098 4.51119e-21)
(1.17594 0.34984 6.25641e-22)
(1.12132 0.313577 6.8947e-21)
(1.00692 -0.010771 9.44451e-22)
(1.00735 -0.0109879 8.26935e-22)
(0.996701 -0.00173623 -5.92561e-21)
(0.999746 -0.00469893 -3.83542e-21)
(0.999813 -0.00455198 -1.43652e-21)
(0.999711 -0.00448019 -3.81314e-21)
(0.200467 -0.119206 8.83506e-22)
(0.449396 -0.175466 4.64959e-20)
(0.284145 -0.137293 4.40853e-20)
(1.048 -0.0443223 -4.61955e-21)
(1.04962 -0.0416917 4.03751e-21)
(1.00022 -0.00404676 3.71303e-22)
(1.00026 -0.00417325 -3.91681e-21)
(0.988386 -0.00428002 -2.79801e-21)
(0.988683 -0.00485449 -2.24636e-21)
(0.987996 -0.00481959 -1.19977e-21)
(1.48421 -0.286709 2.09652e-20)
(1.45688 -0.274445 -3.12368e-20)
(1.46162 -0.296754 1.11352e-19)
(1.17862 0.00875137 -4.91896e-20)
(1.18652 -0.00205297 -6.09507e-20)
(0.996295 -0.00815843 -3.74486e-21)
(0.995883 -0.00826427 -8.09681e-21)
(1.43403 0.136024 3.68316e-20)
(1.46006 0.116368 -4.59604e-20)
(0.988126 -0.0113704 -1.35147e-21)
(0.988828 -0.0110837 -6.7374e-21)
(0.988849 -0.011876 4.27051e-21)
(1.051 0.0991562 -1.32334e-20)
(1.05701 0.10495 -6.59922e-21)
(1.04978 0.00218759 -1.81856e-21)
(1.04931 0.000193902 3.4988e-21)
(1.01708 -0.00450746 -3.01571e-22)
(1.01658 -0.00447662 -3.9829e-23)
(0.612492 -0.435115 -3.83886e-20)
(0.624814 -0.466133 -2.71874e-21)
(0.584036 -0.458501 1.55577e-20)
(1.02944 -0.00319671 -1.31795e-21)
(1.03011 -0.00384036 -5.43909e-21)
(1.02901 -0.00409476 -4.54936e-21)
(1.52366 0.165007 2.17659e-19)
(1.51745 0.120343 3.16421e-20)
(0.300019 0.0048812 1.4059e-20)
(0.357368 -0.000272158 4.08574e-20)
(0.343029 -0.138582 9.03747e-20)
(1.03315 -0.00465165 -6.46238e-21)
(1.03364 -0.00562198 -4.37974e-21)
(1.03234 -0.00560471 -2.71156e-21)
(1.00461 -0.00513587 1.41726e-21)
(1.00456 -0.00490049 2.67714e-23)
(1.00436 -0.00497392 0)
(1.00001 -0.00160601 3.20428e-21)
(1.00001 -0.00134699 -5.48585e-22)
(1 -0.0013367 3.16253e-21)
(0.988609 -0.0167525 6.57787e-22)
(0.988048 -0.0175535 4.26168e-21)
(-0.169564 -0.0972194 -4.76229e-20)
(-0.15278 -0.1057 2.01094e-19)
(-0.184722 -0.0914294 1.19738e-19)
(0.759854 -0.382886 0)
(0.547288 -0.297289 -2.16331e-20)
(0.424545 -0.237567 0)
(0.3733 0.727188 1.66051e-21)
(0.288316 0.649572 4.78089e-20)
(0.393841 0.64718 7.57591e-20)
(1.00311 -0.00832156 2.24772e-21)
(1.00332 -0.00802129 -5.22192e-21)
(1.2896 0.116355 5.46967e-20)
(1.28847 0.134271 1.12379e-19)
(1.05879 -0.384588 -1.2843e-20)
(1.07662 -0.3704 7.23819e-22)
(1.05554 -0.36282 7.77775e-21)
(0.603168 -0.550775 4.86227e-21)
(0.56365 -0.590407 -3.35215e-20)
(0.560449 -0.522579 0)
(0.995881 -0.00624036 0)
(0.99614 -0.00646313 3.03711e-22)
(0.995748 -0.00652431 0)
(1.05565 -0.0153146 5.28513e-21)
(1.05598 -0.0177884 -9.64446e-21)
(1.05347 -0.0162339 -1.05699e-20)
(1.2576 0.505185 1.13154e-19)
(1.23378 0.54546 9.74438e-20)
(-0.643324 -0.0189915 -5.57729e-20)
(1.03507 0.126316 -3.93789e-21)
(1.04336 0.135291 -1.37376e-20)
(0.997116 -0.00269962 1.91114e-21)
(0.997025 -0.0024569 -4.43917e-21)
(0.998066 -0.00241591 4.44074e-22)
(0.998185 -0.00228593 2.68006e-22)
(0.998232 -0.00247199 -3.65587e-21)
(1.00485 -0.00529594 1.37917e-21)
(1.26069 0.382581 -2.46591e-20)
(1.25453 0.380516 2.87984e-20)
(-0.235697 -0.0288811 0)
(-0.339272 -0.0230949 9.3702e-20)
(1.01524 -0.468721 -7.62369e-20)
(1.12732 -0.542991 5.92394e-20)
(0.285164 0.0516595 3.9355e-21)
(0.268589 0.143186 1.31449e-20)
(1.02106 -0.024845 3.121e-22)
(1.01985 -0.0242724 -2.51491e-23)
(1.02087 -0.0233855 -1.8241e-23)
(-0.377928 0.44007 -3.22292e-20)
(-0.167078 0.485915 1.11013e-19)
(-0.432222 0.544598 -6.45381e-20)
(0.41514 -0.159587 1.90224e-20)
(0.392598 -0.174307 -5.28342e-21)
(0.423162 -0.185826 1.23266e-19)
(0.925461 -0.0273812 1.5908e-20)
(0.923526 -0.0241374 -6.13074e-21)
(0.927631 -0.0239197 -8.89112e-21)
(1.02102 0.00120916 -3.25154e-22)
(1.02108 0.000775076 -3.08242e-21)
(1.02054 0.000866547 -3.27662e-21)
(0.973103 -0.0505824 -1.80396e-20)
(0.974701 -0.0484055 7.03541e-21)
(0.971849 -0.0477582 -8.56435e-21)
(0.204224 0.0941874 6.2043e-20)
(0.169415 0.0878248 1.38973e-19)
(0.195604 0.0546069 2.72421e-19)
(1.01099 -0.00266006 8.21429e-22)
(1.01124 -0.00268142 2.7889e-22)
(1.01116 -0.00282363 -4.21534e-22)
(0.996428 -0.00961618 -8.49259e-21)
(0.99679 -0.00964279 -6.86082e-21)
(0.999803 -0.00179402 -4.81731e-21)
(0.999835 -0.0018014 6.03652e-22)
(0.999851 -0.00147423 4.6316e-21)
(0.981889 -0.0110175 -8.84893e-21)
(0.980817 -0.0112911 1.24457e-21)
(0.981799 -0.0120444 -5.34158e-21)
(1.01778 -0.00326507 0)
(1.01792 -0.0030449 5.68879e-22)
(1.0175 -0.00301921 -1.04437e-22)
(1.07027 0.0182983 4.08978e-21)
(1.07361 0.0173916 -8.39304e-22)
(1.07313 0.0210547 -4.36928e-21)
(1.05021 0.0099659 2.60256e-22)
(1.05219 0.0106854 -7.45335e-21)
(1.05005 0.0116988 -6.96588e-21)
(0.0072688 -0.429112 -7.11315e-20)
(-0.0113028 -0.434461 5.05761e-20)
(0.0139507 -0.431208 -3.02462e-20)
(0.98559 -0.00351674 5.86751e-21)
(0.984984 -0.00399142 1.99969e-21)
(0.985842 -0.00421712 -2.39144e-21)
(1.08451 -0.0353414 -1.34862e-22)
(1.0809 -0.0335417 1.25128e-20)
(1.08125 -0.0379812 9.19743e-21)
(1.0326 -0.00376473 3.28631e-21)
(1.03375 -0.0036986 0)
(0.977103 -0.0282005 1.43579e-20)
(0.977076 -0.0261309 6.08231e-21)
(0.978735 -0.027418 -3.93791e-21)
(0.853992 -0.565578 0)
(0.813738 -0.571922 -9.18567e-21)
(0.846989 -0.61338 -7.87806e-21)
(1.17308 0.0168556 -8.61745e-21)
(0.172074 -0.0565505 -4.29172e-20)
(0.084481 -0.0729644 7.54046e-20)
(1.01018 -0.00275421 0)
(1.01003 -0.00262424 3.21091e-22)
(1.00994 -0.00276983 -7.14154e-22)
(0.57153 0.0895467 -1.4652e-21)
(0.556863 0.112909 6.87213e-20)
(0.989375 -0.0637313 -7.99371e-21)
(0.98939 -0.0673432 -6.19595e-21)
(1.01747 0.0372996 0)
(1.01489 0.0374952 2.6926e-21)
(1.01632 0.0354799 3.23836e-21)
(1.01854 -0.0150884 -8.60534e-22)
(1.0194 -0.0147533 4.78426e-23)
(1.28823 -0.221834 3.71947e-20)
(1.27327 -0.212369 -3.19215e-20)
(0.999582 -0.00373322 4.61849e-21)
(0.999522 -0.00371176 -5.83394e-21)
(0.7591 -0.0718789 9.22517e-22)
(0.768953 -0.0606201 0)
(0.749896 -0.0570706 -3.51828e-20)
(1.17937 -0.0300726 -9.27084e-20)
(1.18292 -0.0406427 -5.27392e-20)
(1.01766 -0.00354412 0)
(1.0182 -0.00347133 -8.38322e-22)
(0.343792 0.448726 3.42032e-20)
(0.39459 0.429157 9.93072e-20)
(0.389372 0.484822 4.95904e-21)
(0.391195 0.916542 -2.09017e-20)
(0.461192 0.923655 -2.01344e-20)
(0.399711 0.896871 9.28532e-21)
(1.11561 -0.0986906 -2.00752e-20)
(1.11371 -0.0901234 0)
(0.998298 -0.0129568 0)
(0.998032 -0.0124976 4.22899e-21)
(0.997719 -0.0130679 -1.29745e-21)
(1.11899 0.0611784 5.36217e-21)
(1.12098 0.0548611 -9.24974e-22)
(1.12741 0.0595056 1.33498e-20)
(0.426861 0.643968 1.50801e-20)
(0.426622 0.669186 3.87428e-21)
(0.426247 0.644153 -8.64064e-21)
(0.774989 -0.0976109 8.98251e-21)
(0.765831 -0.0844819 1.10481e-20)
(0.78374 -0.0876686 -1.01104e-20)
(0.763051 -0.10696 3.8388e-20)
(0.780312 -0.108854 -4.32031e-20)
(-0.115088 -0.413809 -1.03777e-19)
(-0.127815 -0.413943 1.15127e-19)
(-0.151077 -0.401315 5.61286e-20)
(1.00498 0.178203 5.66921e-21)
(0.993704 0.170559 -1.12454e-20)
(0.993737 0.187746 5.06052e-22)
(1.01896 0.0388953 -2.23207e-21)
(1.01926 0.0364712 -2.40172e-22)
(1.05733 0.0495645 -4.59916e-22)
(1.06217 0.0494854 1.41987e-20)
(0.434238 -0.139589 -6.42139e-20)
(0.401331 -0.131465 -1.68368e-20)
(1.01751 -0.000424562 6.27507e-22)
(1.01752 -0.000166583 3.60306e-22)
(1.01716 -0.000332635 1.03835e-22)
(-0.348654 0.298773 -7.18869e-20)
(-0.249056 -0.0843918 8.31785e-20)
(-0.293423 -0.0745114 9.84041e-20)
(1.01077 -0.00264729 -9.11374e-22)
(1.01087 -0.00252119 4.114e-22)
(0.999852 -0.00115166 -5.75888e-22)
(0.99983 -0.00111614 0)
(0.999881 -0.000891173 0)
(1.43094 0.381435 -8.35843e-21)
(1.42057 0.348657 1.04169e-19)
(0.991651 -0.0130641 -7.66753e-21)
(0.992413 -0.0133814 -1.151e-21)
(0.991691 -0.0139549 -9.61543e-21)
(1.00005 -0.000674688 -1.34391e-21)
(1.00006 -0.000821797 -2.9533e-21)
(1.0951 0.167612 -1.66624e-20)
(1.10573 0.173534 -7.62006e-21)
(1.10275 0.159993 -7.83609e-21)
(1.11719 0.177964 -2.05584e-20)
(1.12625 0.169734 -2.08333e-20)
(1.13082 0.183762 7.29148e-21)
(1.0212 -0.0261174 -3.43313e-22)
(1.05551 -0.0131149 1.82092e-21)
(1.05763 -0.014531 1.11432e-20)
(1.08831 -0.0370475 -1.37292e-20)
(1.08745 -0.0323307 -2.20797e-20)
(0.98204 -0.17239 3.17631e-21)
(0.972407 -0.165686 -1.12471e-20)
(0.972205 -0.177609 0)
(1.05592 -0.00776914 -8.22559e-21)
(1.05369 -0.00783529 -8.79359e-21)
(1.05462 -0.00599913 -4.33577e-21)
(0.995607 -0.00602352 0)
(1.10606 -0.153965 2.03923e-20)
(1.10914 -0.147053 8.8097e-21)
(1.0998 -0.147456 -8.75439e-22)
(-0.0113321 -0.457131 2.56987e-20)
(-0.00694346 -0.467403 -1.25668e-19)
(0.000494037 -0.460004 -9.91098e-20)
(1.01739 -0.00382313 -4.31338e-22)
(1.0171 -0.00352019 5.04056e-22)
(0.380608 0.871899 -4.6494e-20)
(0.374177 0.803847 -5.63413e-20)
(0.274286 0.814655 -1.4705e-19)
(0.999975 -0.000692134 -2.10669e-21)
(1.00001 -0.000523568 5.68003e-23)
(1.00011 -0.00291898 0)
(1.00007 -0.00264022 4.46774e-21)
(1.00007 -0.00298117 -7.22187e-23)
(1.00864 -0.000422951 -8.99209e-22)
(1.00858 -0.000540591 1.719e-21)
(1.00878 -0.000538822 -1.82317e-21)
(-0.146741 -0.323291 -3.44656e-20)
(0.994941 -0.00200966 -2.81475e-21)
(0.994644 -0.00215022 -1.54404e-23)
(0.99497 -0.00235523 1.75858e-22)
(1.50307 -0.279264 8.52184e-20)
(1.49452 -0.303026 -9.19189e-20)
(0.797935 0.156966 -1.65835e-20)
(0.904454 0.206679 5.9381e-20)
(0.867997 0.186118 -6.32043e-20)
(1.00074 -0.00287395 1.48565e-21)
(1.00071 -0.00296495 1.37486e-21)
(1.00083 -0.00299232 -9.56985e-22)
(0.999654 -0.00361141 3.18522e-21)
(0.999652 -0.0037556 -1.56355e-22)
(1.58771 -0.110439 3.03121e-20)
(1.60046 -0.083955 0)
(1.58864 -0.108526 0)
(1.00828 -0.000233404 -6.53331e-22)
(1.00854 -0.000229077 2.28558e-22)
(0.999949 -0.000786281 0)
(0.999955 -0.000811008 -4.41169e-21)
(0.999928 -0.00101863 9.26e-21)
(1.00908 -0.00027735 -1.97416e-22)
(1.00895 -0.000297321 3.01281e-23)
(1.00815 -0.000164133 -8.19921e-22)
(0.724925 0.108423 -6.30856e-20)
(0.72435 0.0894034 -5.88327e-20)
(0.627997 -0.406689 -4.11444e-20)
(0.590858 -0.397744 -6.89307e-20)
(0.9458 -0.0547158 -5.56189e-21)
(0.948918 -0.0519653 -8.3433e-23)
(0.949905 -0.0563468 -8.95657e-21)
(0.927446 -0.549072 2.23415e-22)
(0.936455 -0.513998 -2.32619e-22)
(0.964061 -0.537328 1.95559e-21)
(1.13497 0.133283 0)
(1.14203 0.125417 0)
(1.13141 0.123054 0)
(0.267067 0.147525 1.50945e-20)
(-0.221247 0.224363 4.84046e-20)
(-0.174572 0.163357 -1.05216e-19)
(-0.254235 0.158278 -7.57706e-20)
(1.03425 -0.00663779 2.338e-21)
(1.03509 -0.00548906 2.11483e-21)
(-0.138282 -0.392724 4.35304e-20)
(-0.0385705 -0.416592 0)
(-0.216669 -0.402294 -1.0273e-19)
(1.00002 -0.000500302 -3.5807e-22)
(0.999997 -0.000680888 7.86683e-23)
(1 -0.000475437 1.93801e-21)
(0.439323 0.645397 -8.06552e-21)
(0.427632 0.629437 -7.26401e-21)
(0.507093 -1.09049 -8.20155e-20)
(0.222561 -1.08147 -4.89326e-20)
(0.513393 -1.23791 2.60993e-20)
(-0.0541241 -0.0589268 2.57663e-19)
(0.0470458 0.00744373 -5.55155e-20)
(-0.0378886 0.0163114 -1.90911e-19)
(1.05235 0.47398 1.23579e-19)
(1.01521 0.169816 2.49346e-20)
(1.01522 0.185641 2.29163e-20)
(1.0452 0.00408886 -6.71492e-22)
(1.0468 0.0047246 0)
(1.15012 -0.00363964 3.55906e-20)
(1.15464 -0.0108375 3.13393e-20)
(1.05039 0.00791829 7.18419e-21)
(1.04839 0.00927115 1.83085e-21)
(1.021 0.00162812 1.58934e-21)
(1.02084 0.00207148 2.29601e-22)
(1.02038 0.00165185 -1.48886e-21)
(1.03238 -9.53751e-05 -1.76427e-21)
(1.03314 0.000437187 -8.20405e-21)
(1.03209 0.000998272 2.1726e-21)
(0.894767 -0.556369 5.68081e-22)
(0.863653 -0.529808 0)
(0.933763 -0.0669248 8.11346e-21)
(0.930238 -0.0624449 7.34449e-21)
(0.999646 -0.00348568 -7.00998e-22)
(0.999685 -0.00346422 2.61253e-21)
(1.00001 -0.000136622 -8.04355e-21)
(1 -6.77243e-05 5.99997e-23)
(1 -7.36721e-05 -5.10182e-21)
(1.0104 -0.00277301 9.63215e-22)
(1.01029 -0.00292593 7.35842e-22)
(1.01113 -1.50323e-05 3.47778e-22)
(1.01092 -9.50531e-05 0)
(1.01143 -9.76837e-05 0)
(1.01769 -0.00404566 1.23997e-22)
(-0.310598 0.146705 -1.62589e-20)
(-0.274873 0.145118 3.51415e-20)
(-0.298675 0.11437 -8.0433e-21)
(1.00473 -0.00643 -3.91334e-21)
(1.00495 -0.00634939 1.96831e-21)
(1.00468 -0.00616087 -7.84557e-22)
(1.01731 -0.0139469 0)
(1.01656 -0.0139005 -6.12199e-23)
(1.01688 -0.0146575 0)
(1.01085 -0.000114132 -3.65409e-23)
(1.01077 -0.000118088 0)
(1.01133 -9.05676e-05 0)
(1.00297 -0.00749616 3.67258e-22)
(1.00325 -0.00751241 1.61365e-23)
(0.0224439 -0.459423 -9.1859e-20)
(0.0175687 -0.466619 6.80089e-20)
(0.0131243 -0.476074 -5.90137e-23)
(1.2028 -0.44486 -4.26103e-20)
(1.2095 -0.466063 -9.80625e-20)
(0.705439 0.0654779 2.61232e-20)
(0.70919 0.0502573 0)
(0.689673 0.0533089 0)
(0.95728 -0.0162821 -7.20762e-21)
(0.956069 -0.018186 -3.99575e-21)
(0.954935 -0.0154863 -6.36117e-21)
(1.06483 0.0948536 0)
(1.06529 0.0880003 -4.70841e-22)
(1.00923 -1.33584e-05 3.19967e-24)
(0.741441 0.0468927 -1.35482e-20)
(0.774046 0.0501159 -9.45217e-21)
(0.756814 0.0172154 -1.19613e-22)
(0.0653788 -0.0859449 -2.38983e-19)
(0.155904 -0.101085 -1.69328e-19)
(0.99438 -0.00264243 1.50611e-23)
(0.994721 -0.00285286 -1.10548e-20)
(1.01526 0.267729 7.02411e-20)
(0.957605 0.244318 0)
(1.06478 0.0403885 -1.5933e-20)
(1.06716 0.0370614 -2.02015e-20)
(1.06264 0.0373167 -1.1313e-20)
(0.993731 -0.00368068 1.15975e-20)
(0.993387 -0.003408 -5.83544e-22)
(-0.095721 -0.0724054 -3.78681e-20)
(0.727608 0.0819853 4.49549e-21)
(0.997903 -0.00560247 -2.37231e-22)
(0.997969 -0.00517978 7.57826e-23)
(1.10084 -0.162614 -2.47269e-21)
(1.11281 -0.162403 2.24037e-20)
(0.281788 0.396346 3.45471e-20)
(0.357242 1.11936 -4.55561e-20)
(0.981155 -0.0247799 2.98246e-21)
(0.982697 -0.0251525 -3.3436e-23)
(0.982218 -0.0235289 -5.94266e-22)
(0.845521 0.0139269 -5.72509e-21)
(0.852582 0.00996778 2.51306e-20)
(0.845815 0.00557945 1.84875e-20)
(1.01761 -0.0131374 0)
(0.97703 -0.0243342 1.65699e-20)
(0.978282 -0.0234073 -2.49639e-22)
(0.976743 -0.0225468 1.878e-20)
(0.481862 0.620181 3.4806e-20)
(0.461721 0.629671 -8.68091e-21)
(0.494004 0.616864 1.40624e-21)
(0.925016 -0.184737 0)
(0.930171 -0.174074 0)
(0.916236 -0.175862 0)
(0.999146 -0.0087888 2.25435e-21)
(0.998848 -0.00881047 2.84283e-21)
(0.996734 -0.00308894 0)
(0.996968 -0.00301945 0)
(0.996809 -0.00334243 0)
(0.958609 -0.0141989 -7.41639e-22)
(0.959574 -0.0168425 -3.28205e-21)
(1.14169 -0.385287 2.16393e-20)
(1.12056 -0.382673 -4.87364e-21)
(1.13309 -0.365589 4.33954e-20)
(0.0830984 -0.207761 0)
(0.117304 -0.224956 0)
(0.0873623 -0.255535 -9.59031e-20)
(0.994189 -0.0071607 6.80204e-21)
(0.994668 -0.00710681 -2.30318e-21)
(1.00487 -0.0057869 1.33764e-23)
(1.00466 -0.00586571 8.52467e-22)
(1.02175 -0.00620188 1.54043e-21)
(1.02159 -0.00570269 2.76615e-21)
(1.02227 -0.00600413 -1.95333e-21)
(-0.150297 -0.0822105 -1.38027e-19)
(-0.155593 -0.100473 -1.96869e-19)
(-0.0651255 -0.32632 4.7031e-20)
(-0.14852 -0.28828 5.88327e-20)
(0.0610043 -0.114637 0)
(0.144833 -0.118566 -1.03448e-19)
(0.097779 -0.111713 0)
(1.01745 -0.000671174 -6.60311e-22)
(1.01738 -0.000917877 -6.89732e-22)
(1.01707 -0.000797884 -8.38919e-23)
(0.935071 -0.193502 -3.57052e-21)
(0.918959 -0.197377 1.07817e-21)
(0.846567 0.0228497 -2.59963e-20)
(0.838317 0.0194883 -5.40059e-20)
(0.906566 -0.729682 -2.7759e-21)
(0.858335 -0.755022 5.81348e-21)
(0.919456 -0.788507 1.22372e-20)
(1.14267 0.092881 -2.28448e-20)
(1.14057 0.0997353 -2.15398e-20)
(1.15033 0.0968349 -1.86707e-20)
(1.01679 0.000623676 3.9443e-22)
(1.01715 0.000623148 1.49389e-21)
(1.0168 0.000395936 1.30315e-22)
(1.01827 0.000510245 0)
(1.01828 0.000222354 -4.28751e-22)
(1.0187 0.000448367 0)
(1.02194 -0.00675386 -1.03534e-21)
(1.02118 -0.00639133 -2.94269e-22)
(1.14266 -0.00436546 1.78186e-21)
(1.14549 0.00263816 7.14338e-23)
(0.996373 -0.0299327 3.23958e-21)
(0.997708 -0.0308043 1.72507e-21)
(0.996307 -0.0317294 -2.51052e-21)
(0.199876 -0.158936 -2.21582e-20)
(0.169847 -0.155446 4.60073e-21)
(0.101929 -0.149348 9.01109e-20)
(0.998959 -0.00355129 -3.80849e-22)
(0.998838 -0.00344591 -8.24335e-21)
(0.998853 -0.00363601 0)
(1.00846 -0.009512 -8.2439e-22)
(1.00855 -0.00994568 -3.60484e-21)
(1.00894 -0.0097621 -3.69509e-21)
(0.45365 0.506008 1.94079e-20)
(0.46606 0.539289 3.89999e-20)
(0.428468 0.528904 -9.37133e-21)
(-0.35425 0.142197 -6.38338e-20)
(-0.334928 0.200286 -9.98175e-20)
(0.552021 0.0501335 -4.99099e-20)
(0.484203 0.0207781 -3.1631e-20)
(1.01082 5.04788e-05 7.46548e-22)
(1.01127 -0.000145442 6.683e-22)
(-0.393028 -0.33123 0)
(-0.418442 -0.31767 0)
(0.997506 -0.0767017 -2.48363e-21)
(0.996353 -0.0726896 -6.70684e-21)
(1.00049 -0.0733067 5.66723e-21)
(0.257751 -0.755484 1.46614e-20)
(0.279447 -0.677119 2.64499e-20)
(0.17112 -0.691613 2.40641e-20)