/*--------------------------------*- C++ -*----------------------------------*\
| =========                 |                                                 |
| \\      /  F ield         | OpenFOAM: The Open Source CFD Toolbox           |
|  \\    /   O peration     | Version:  v2012                                 |
|   \\  /    A nd           | Website:  www.openfoam.com                      |
|    \\/     M anipulation  |                                                 |
\*---------------------------------------------------------------------------*/
FoamFile
{
    version     2.0;
    format      ascii;
    class       surfaceScalarField;
    location    "600";
    object      meshPhi;
}
// * * * * * * * * * * * * * * * * * * * * * * * * * * * * * * * * * * * * * //

dimensions      [0 3 -1 0 0 0 0];
oriented        oriented;


internalField   nonuniform List<scalar> 
14907
(
0.00322483
0.00698929
-0.0102699
-0.00177239
-0.00889909
0.010599
0.0115541
-0.0128825
0.00127782
-0.000562801
-0.000406822
0.000312166
-0.00282476
0.00251248
0.00961863
0.00152634
-0.0111924
-0.00194207
-0.00391014
0.00584995
0.00247267
0.00183784
-0.00431182
0.000711074
-0.012411
0.0115704
0.00874094
-0.0110096
0.0020623
0.00178734
-0.00271159
0.000924243
-0.00203602
0.000457412
0.00820733
-0.00169221
-0.00710632
-0.000669606
0.00479081
-0.00479725
-0.00106334
0.0091846
-0.00813185
-0.00244768
-0.00780144
0.0101076
0.00915206
-0.0117464
0.00135264
-0.00133651
-9.06208e-05
-0.00962015
0.0127694
-0.00427307
0.00329859
0.000974415
0.0112442
-0.0120459
0.000332891
-0.00592945
0.00601301
-8.65509e-05
0.00216886
-0.000131518
-0.00291337
0.00290312
-0.0120107
0.00867478
0.00741985
-0.00924914
-0.000561921
-0.0073205
0.00786176
0.000929738
-0.00920103
0.00821246
-0.000296564
-0.00892931
0.00920703
-0.00208337
-0.00951446
0.0114875
0.00023134
0.00999515
-0.0102545
0.0139693
-0.00379651
-0.0102097
0.00284422
-0.00154466
-0.00129956
0.00997815
-0.00143782
0.0147218
-0.00932881
-0.00543767
-0.00900521
0.000616542
0.00837292
0.0116286
-0.00915213
-0.0015
-0.0067814
0.00825961
-0.00808157
0.00688506
0.00117615
0.00272336
0.00836697
0.00946682
-0.0022788
-0.00719232
-0.0019826
-0.00229056
-0.000956271
-0.00821536
0.00915964
0.00349655
-0.00544068
-0.0147933
0.00311785
0.0116458
0.00285136
-0.0025393
-0.00697803
0.000165412
0.00680136
0.00291195
0.00522991
-0.0081535
-0.0066572
0.00734209
-0.000693059
0.0108905
-0.00678337
-0.00412541
-0.00779971
-0.00050142
0.00828206
0.00102124
-0.00220189
0.000915505
0.0126955
-0.00930818
0.0117102
-0.00541118
-0.00630247
0.00365653
0.00609119
-0.00978954
-0.00727065
0.00575155
-0.00158364
0.0111253
0.00836575
-0.0105524
-0.00787181
0.0107692
0.00438294
0.0102895
0.00345651
0.00824684
0.0116973
-0.000677462
-0.0110679
-0.0102938
0.0126062
-0.00239834
-0.00243713
-0.00658262
0.0129601
-0.0014768
-0.00549294
-0.00460264
0.0100833
-0.013104
0.0131732
-0.000114438
-0.013689
0.00452041
0.00916477
-0.000417185
-0.0043285
0.00474556
-0.00342727
0.00224615
0.00118106
0.0126629
-0.00189962
-0.0108292
-0.00700553
0.0106155
0.00122419
-0.0105408
-0.00428357
0.00556245
0.000947556
-0.00651139
-0.00973448
0.0122348
-0.00250296
-0.0027383
-0.00961442
-0.00293097
0.00010614
-0.00018315
-0.0112548
0.0113687
-0.00129223
-0.00548643
0.0067767
0.00553487
-0.00185497
-0.00368189
0.00383535
0.00703611
-0.000299254
0.00315048
-0.0137951
0.0116016
0.00215343
0.00114499
-0.00969715
0.00853598
-0.00213175
-0.0115697
0.00516054
-0.00517193
-3.82565e-05
0.0158821
-0.007644
-0.00828237
-0.00529826
0.00155046
0.00374701
-0.00343217
0.0102999
-0.00687895
0.00390949
0.0118984
-0.0128838
0.00164066
0.0111881
0.00219748
-0.00249684
0.00790923
-0.00822243
0.00180803
-0.00996354
0.0101671
0.0141926
-0.003846
-0.010414
0.00434659
-0.012912
0.00847672
-0.0115125
0.010563
0.000884619
0.000890368
0.00856901
0.00172158
-0.0100313
0.00821154
-0.000485787
0.000485787
0.00515616
-0.000489931
-0.00466737
-0.000192674
-0.00460155
0.00479321
-0.000144266
0.00526473
0.00057631
-0.00984591
0.0092483
0.00314333
0.00215671
-0.00530229
-0.00353008
-0.00695918
0.0104679
0.0122625
-0.00800608
-8.71809e-05
0.0108395
-0.0102489
0.0092728
-0.000597156
0.00306783
-0.00315186
0.00398384
0.00801453
-0.0120979
0.00101846
-0.00930941
0.00827493
-0.00195225
-0.00147506
0.00555548
-0.0110622
0.012572
-0.00107593
-0.0116003
-0.00988782
-0.00312705
0.0129949
-0.00986164
0.0013161
0.0127961
0.00140541
-0.0027553
0.00134988
-0.0119709
0.00852854
-0.0031821
0.00565342
-0.0116266
0.00133251
0.0102594
-0.0117452
0.0119992
-0.000277182
-0.000477889
0.0056326
-0.00543059
-0.0083983
-0.00328902
0.00512541
0.00168686
0.00492754
-0.00662497
0.00704223
-0.00390168
-0.0146589
0.00353235
0.0110503
-0.00608874
0.00479484
0.00135407
0.00919656
-0.0105725
0.00346116
-0.00147588
-0.00198529
-0.00128387
0.00551894
-0.00423726
-0.00996977
0.0115804
-0.00631625
0.00522929
0.00108422
0.00224725
-0.00288628
0.000639034
-0.00799466
-0.00492786
-0.00750852
0.000845003
-0.00256283
-0.00273603
0.0099823
-0.00143785
-0.00855899
-0.0129792
0.00307879
-0.0110069
0.00139972
0.00958923
-0.0029307
-0.00251011
0.00543997
-0.0104044
-0.0016877
0.0120234
-0.00794653
0.0118361
-0.00337724
0.00657582
-0.00320039
-0.00338996
0.0132339
-0.0100323
-0.00119803
-0.0103794
-0.00055656
-0.00753349
0.00807626
-0.000213818
0.0115323
-0.0114245
0.000586481
-0.000299279
-0.00035
-0.00118581
0.00454392
-0.00335914
0.00311028
-0.00272773
-0.000382561
-0.000233941
-0.0060654
0.00618201
0.00752117
7.20893e-05
-0.000298578
0.00963628
-0.00934185
-0.0121103
0.00174041
-0.000307564
-0.00601145
0.00305324
-0.0011228
-0.00193044
0.000688812
-0.00254614
0.00185733
-0.00117168
0.00564761
-0.00447881
-0.0134804
0.00907432
0.00436345
0.0108352
-0.0111504
0.0102018
-0.0108765
0.000644335
-0.0099645
0.011295
0.00256825
-0.0050418
0.00247245
0.0024659
0.00058734
0.00112066
0.0016417
-0.000106332
0.00321661
-0.012882
0.0108933
0.00193859
0.000392086
-0.0139612
0.0134293
0.00414072
-0.00194334
0.00380017
0.00082302
-0.00462326
-0.00675442
0.00590065
0.00085184
-0.000254229
0.00541044
-0.0051597
-0.00183069
-0.000541978
0.00237265
0.00211938
-0.0123844
0.0102361
0.00388725
-0.00430453
-0.00785089
0.0076319
0.000210012
-0.00944632
0.00914364
0.0014407
0.00140351
-0.0156002
0.0106659
0.00492724
0.00856168
-0.00688824
0.00819049
-0.00915849
-0.00182153
0.00322694
-0.00404314
-0.000877158
0.00491887
-0.00581927
0.0125362
-0.00675851
-0.00269228
0.000902933
0.00178934
-0.0101717
0.00923555
0.000906691
0.000133847
0.00275667
-0.00289054
-0.00397095
-0.00704607
-0.00510738
0.0039204
0.00167109
0.00246947
-0.00325262
0.00586104
-0.00261235
0.00428862
-0.00267064
-0.00161817
-0.00967855
0.00980267
-0.000151283
-0.0123981
0.00145573
0.0109084
0.0066201
0.000229478
0.00326089
0.00537987
-0.00866224
-0.00694886
0.00558724
0.00136052
0.00262254
-0.00847751
-0.0176274
0.0052396
0.0122872
0.00377962
2.0526e-05
-0.0110851
0.0110603
0.00175174
-0.0130111
-0.00200865
0.00214248
0.00620026
-0.00802804
0.00168742
0.001403
-0.00138399
-6.90568e-05
0.00306797
-0.00346875
0.000452493
0.00174023
0.0025481
-0.00143665
-0.00148325
0.0018766
-0.00346184
0.00602873
0.00368409
-0.000421781
-0.0032626
0.000118862
0.00951269
-0.00385629
-0.000188198
-0.0124564
0.00255381
0.00990124
0.0111283
-0.0123369
0.00110941
0.00145973
0.00428474
-0.00574738
-0.00550922
0.0145681
-0.00922991
0.00862309
-0.00761883
0.00134303
-0.0103327
0.00898287
-0.00396768
0.000541631
0.00342576
-0.00676433
-0.0013373
0.00218767
0.00431987
-0.00651002
-9.66682e-05
-0.00772456
0.00780155
0.000624296
0.00314379
-0.0037697
-0.00301677
-0.00980113
0.0127076
0.00335058
-0.00553591
0.00218382
0.00172126
-0.00876877
0.0114263
-0.00400881
0.00396827
4.03746e-05
0.0126215
-0.012358
-0.00750736
0.00918481
-0.00516817
-0.00775744
0.0065035
-0.00707216
0.0129133
-0.0112909
-0.0018075
0.000653796
0.00327402
-0.00475023
0.0120402
-0.00400083
-0.00807968
0.000902509
0.00692762
-0.00786159
-0.0103259
-0.00318171
-0.00953527
0.0116411
-0.00147509
-0.00308056
-0.00623977
-0.000211822
0.0126611
0.00290807
0.0109983
-0.00228465
0.00315743
-0.00166522
-0.00887311
0.00942927
-0.0140003
0.00394956
0.0100043
6.92073e-05
0.00123622
-0.00497137
0.00449814
-0.000249291
-8.99231e-05
0.0126815
0.00790712
-0.00904637
0.0011297
-0.00360478
-0.0003631
0.00351505
-0.00468913
-0.00110494
-0.00158734
-0.00116164
-0.00559478
-0.00780742
0.00570708
0.00209801
-0.00768009
0.00660784
0.00842099
-0.00417331
-0.00425823
0.00309493
0.00216806
-0.00526623
0.00249164
0.00950365
0.00950289
-0.013058
-0.00373295
0.00363534
-0.00700127
0.0102375
0.00305546
0.00968458
-0.00536109
-0.00057294
-0.00512507
0.0093783
-0.00427983
-0.0108119
-0.000330926
0.00347933
-0.004565
-0.00238486
-0.00795339
-0.000287613
0.00397139
-0.00190907
0.00524729
-0.00447035
-0.000777648
-0.00445518
-0.00573895
0.00884022
-0.0079728
-0.0129919
0.0114264
0.00137495
0.00912804
-0.00610768
-0.00303276
-0.0115473
0.00108629
0.000430564
-0.00828788
0.00908161
-0.0126466
0.00354288
-0.0073624
0.0010964
0.00236475
0.0114799
-0.000602497
-0.000586482
0.0118085
-0.0112963
-0.00360442
0.00669572
0.00143392
0.0103256
0.00216476
-0.012632
0.0121962
0.000406736
0.00904028
-0.00114465
-0.00571238
0.00545448
-0.00850707
0.00205211
0.00645175
0.00115231
-0.00408368
0.0013399
-0.000539258
0.00616028
-0.000183151
-0.0110578
-0.0128501
0.000317692
0.00493265
-0.00431049
0.00100187
0.0110331
-0.0120874
0.0114204
0.00019595
0.0112879
0.00287442
-0.0142998
-0.00186854
-0.010591
-0.00240612
-0.00600044
0.0083842
0.00799946
-0.000241914
-0.00776523
-0.00575732
0.00166888
0.00408704
-0.0035859
0.00375367
-0.000167969
0.0116079
-0.00815809
0.00521796
-0.00330554
-0.00191289
-0.0120728
-0.000431341
0.0123635
0.00785756
0.00125287
0.00906974
-0.00819407
0.001487
0.00082137
-0.00411289
-0.000937961
0.00504934
-0.00434693
0.00142461
0.00292214
0.000543578
0.0114735
-0.00777286
-0.00399905
0.003421
-0.00857132
-0.0109144
0.0089578
-0.00931267
0.00912552
0.000176808
-0.00743582
-0.000217983
0.00253681
-0.0024114
0.00161394
0.00436645
-0.00598515
0.00206252
-0.00325464
-0.00261594
-0.00141388
0.00322438
-0.00929114
-0.00493994
-0.00081861
2.79701e-05
0.000886003
-0.000967797
0.0100103
-0.000803738
-2.79394e-06
-0.0104765
0.0104679
-0.000125092
0.00811668
0.00231908
0.000151416
-0.00247052
-0.0124043
-0.00657733
0.00623426
0.00473245
-0.00531345
6.97806e-05
0.0121771
0.000714178
0.00790232
-0.00543507
-0.00247061
0.00199312
-0.005249
0.0066783
-0.00097309
-0.00499634
0.00358494
0.00141061
0.00429238
-0.00671784
-0.00018907
0.00873499
-0.00997805
-0.00502368
-0.0102737
0.00100975
0.00922024
1.83354e-05
-0.00137596
-0.00118057
0.00439162
-0.00321221
0.0120162
-0.00295757
-0.00876327
-0.0090258
0.00860662
0.000410051
-0.00969978
-0.0113095
0.00671701
0.00458389
0.00931996
-0.00647463
-0.00255944
0.0127819
-0.00344297
-0.00940068
-0.00633135
0.0085156
0.00574465
0.00129389
-0.00561644
0.00722464
-0.0121962
0.00280165
0.00936822
-0.000384841
0.0120447
-0.0116977
-0.00251626
-0.00248061
0.00180096
-0.0051798
0.0128119
-0.00542067
-0.00743836
0.00128249
0.00661585
0.0148459
-0.00505013
-0.00987532
0.0132308
-0.000763227
0.00469624
0.0100628
-0.00516054
-0.00615792
-0.00434365
0.00330282
0.00104059
-0.00840341
-0.000969489
0.00934497
8.08077e-05
-0.0025427
0.00242288
0.0038238
0.00777876
-0.000474258
0.000474258
-0.00240932
0.00238672
0.00412154
-0.011518
-0.000918591
-0.0116283
0.00105793
0.0103699
0.00275229
-0.000505044
-0.0113455
0.00892244
0.00222119
0.000328364
-0.00505973
0.00473012
0.00315253
-0.00433425
-0.00129488
0.00685623
0.000657651
-0.00626579
0.00560383
0.00186145
-0.00753206
0.000219569
0.00730597
-0.00159649
-0.00241241
0.0077606
-0.000256879
-0.00758963
-0.00896966
0.00115246
-0.00120823
0.00120823
-0.00107809
-0.00822431
0.00929093
-0.00205503
0.00729823
-0.00524949
0.00137031
-0.00935418
0.00784429
-0.00234843
-0.00697376
0.000980519
0.00219041
0.00136054
4.03865e-05
-0.00781352
-0.00463824
0.00400925
0.001318
-0.00532743
0.00118003
0.00157662
0.00814616
0.00498487
0.0142174
-0.00269226
-0.0117097
0.00236973
-0.00124907
-0.00459196
-0.0131561
-0.00091829
-0.00550825
0.00117954
0.00245921
0.00579728
-0.0114513
0.0014758
-0.0014321
-0.0020697
0.0122964
-0.0104358
-0.0133067
0.00157156
0.011632
0.00147314
-0.00488683
0.0110981
0.000235408
0.00270106
-0.00337549
-0.00896067
0.00405353
-0.00105957
-0.0029942
0.000113864
0.00389079
-0.0126722
0.0136134
-0.00351131
0.00407201
-0.000560851
0.0120092
-0.000425772
-0.0116248
-0.00427434
-0.00542628
-0.00308339
-0.00879895
-0.000913131
0.0133205
-0.0143026
0.000809507
0.00342601
0.0106042
0.0051344
-0.00136886
-0.00376603
-0.00897382
-0.00778677
0.00024873
0.00979663
-0.000343204
-0.00947603
0.0026409
-0.000853563
-0.00955278
0.0096669
-0.00267597
0.00949182
-0.000317752
0.0109826
-0.0124939
0.00133546
-0.0109667
0.00263502
-0.00406248
0.00142727
-0.0116638
0.00141809
0.0100828
-0.00801075
0.00799124
1.65143e-05
-0.0113547
-0.000746169
0.0120463
0.0109688
0.00173446
0.00118376
-0.00230656
-0.0100369
0.00182168
0.00818673
-0.0139599
0.00827538
0.00565881
-0.00347597
0.00122736
0.00130161
-0.000545907
0.00257604
-0.00203013
-0.0144383
0.0023472
0.0119868
-0.00333375
-0.00672326
-0.00131926
-0.00759364
0.00888716
-0.0101144
0.00141205
0.00264118
-0.00505864
0.00460825
0.00478986
-0.00963633
0.0142331
-0.00869388
-0.00928008
0.000849314
0.00049189
0.00109027
-0.0105695
0.00934275
0.0124445
-0.000150517
-0.00246591
0.000519151
0.00194676
0.0130519
-0.000159576
0.00106999
-0.00331179
-0.00674217
-0.000275399
0.00701243
0.0047838
8.07102e-06
0.00397325
-0.00586377
0.00188762
1.35057e-05
0.00137694
0.00796552
-0.000341374
0.00260747
0.000836461
-0.00685702
-0.000716623
0.0125066
-0.0118115
-0.0118303
0.011408
0.003144
-0.00442958
0.00743183
0.00533541
0.0123343
-0.00155207
0.00679224
-0.000403374
-0.00639008
-0.0130017
4.16983e-05
0.0108196
0.000137648
-0.00712635
0.00846383
0.00913146
2.88759e-05
-0.00940442
-0.00467724
0.00654339
-0.00186757
0.00636255
-0.0133416
-0.00988137
-0.00192599
-0.00195448
-0.000757109
-0.000801454
0.00887745
-0.00839978
0.0109843
-0.00013814
-0.00174732
0.0085051
-0.00688404
4.32127e-05
0.00973377
-0.00341609
0.00777647
-0.00582666
0.0101756
0.0114991
0.000596882
-0.00291922
-0.0111013
0.0104804
0.000593367
0.00177122
0.00280288
-0.00457539
0.0102416
-0.00778558
-0.000470367
0.000208945
0.000226097
0.00112999
-0.00486052
0.00372957
-0.012707
0.00109246
0.0116048
-0.002228
-0.0117629
0.00623902
-0.0020626
-0.00467249
-0.00267914
0.0112584
-0.00863864
-0.00979632
0.00357058
0.00622207
0.00403647
0.0014966
-0.0109805
0.0015819
-0.00626088
0.00306834
-0.00657568
0.00739083
0.00149672
-0.00144388
-0.000100786
0.0113995
-0.0125505
0.00111777
-0.0111828
0.000646391
0.0104784
-0.00502029
-0.00025518
0.000745842
-0.0127493
0.0118749
-0.000961202
0.00313673
-0.00141975
-0.00146653
-0.00782729
0.00905226
0.00906299
-0.00414519
0.0111326
-0.00588811
-0.00526499
0.00480582
0.00630048
0.00165517
-0.0113963
0.00326079
-0.0035111
-0.000476279
-0.00577354
0.00584723
-7.6086e-05
0.00511076
2.30527e-05
0.000177779
0.012115
0.000983488
-0.00169899
-0.0095354
0.000572087
0.011384
-0.00963359
-0.00189246
-0.00215444
0.00292904
-0.000774623
-0.00696552
0.00691981
4.08793e-05
-0.00814203
-0.0123857
0.0112186
0.00107132
0.00205262
-0.0023623
-0.000371347
-0.00924149
0.0124261
-0.00318535
-0.000991888
-0.0078832
-0.00944229
0.000241529
-0.000732306
-0.00173361
0.00240484
-0.00122484
0.00264916
-0.00283385
0.000184541
0.00689201
-0.00473755
0.0101027
-0.000709904
-0.00934768
-0.000408102
-0.00771919
0.00811087
-0.00557476
0.00654512
-0.000972878
0.00212759
0.00120082
-0.00332851
0.00287154
-0.000405635
-0.00111854
-0.00682203
0.00793681
4.45294e-05
-0.00475137
0.00446669
0.000166616
0.00951832
0.000462032
0.00555255
0.00867403
-6.79102e-05
-0.00478221
0.0025012
-0.00181239
0.00104012
-0.00389148
-0.0124068
0.0118353
5.01018e-05
-0.00689823
0.00683792
-0.00510934
-1.82997e-05
0.000774033
-0.00520619
0.00442747
0.0014735
0.00872982
0.00636531
-0.00669295
0.000324791
-0.00748086
0.0070228
0.000451407
-0.00234276
-0.00112907
0.0105958
-0.0079741
-0.0026577
-0.00775534
0.00835727
0.00347791
-0.0085595
0.00146422
0.00542511
-0.0046568
0.00100478
0.00365145
-0.000812875
-0.000320491
0.00767539
-0.00819544
0.000191108
-0.00995687
0.00974092
-0.0149686
0.01105
0.00628323
-0.00577871
-0.000678064
-0.000950571
-0.00936225
-0.0120406
0.0115702
0.000441513
-0.0074533
0.0062544
-0.00228386
-0.00551584
0.00510625
0.000408928
0.00108751
0.00706983
-0.00815455
-0.00835393
-0.00277077
0.00138388
0.00435646
-0.0125073
0.0116111
0.000872024
0.00179164
-0.00338822
-0.00984431
0.00962343
-0.000166901
-0.000565924
0.00901249
-0.00847263
0.00259944
0.00341116
0.00883733
6.13665e-05
0.000998911
0.00506041
0.00332241
-0.00839455
-0.00978635
-0.000930751
0.00287716
-0.00194641
-0.00796035
0.000448956
0.00750174
-0.000103164
0.00518612
-0.00519257
0.00433678
-0.00387314
-0.000464901
0.0133471
-0.00636603
-0.0070205
-1.58371e-05
-0.00136351
0.0115573
-0.00110229
-0.0104709
-0.0121294
0.000982679
0.011112
-0.000842908
0.000842908
-0.00282102
0.00806467
-0.00526158
-0.0120201
0.00277587
0.00181023
0.000594586
0.00922772
0.000737093
0.0122824
-0.000924297
-0.0110656
0.00155119
0.00946746
0.00331435
-0.00673583
-0.0075802
0.00672057
0.000848784
-0.0126754
0.000906674
-0.00907359
0.000581111
0.00846061
0.008148
-0.00893638
0.00860576
-0.00174405
0.00148132
-0.0122684
0.0107728
-0.000690493
-0.00679598
-0.00158815
-0.0102297
-0.000894495
0.00942671
-0.0138149
0.0120604
0.00154205
-0.0145605
0.0121753
0.00226204
0.00387182
-0.0011078
-0.00276428
0.00922794
-0.0114938
-0.00294428
0.00473579
0.000950131
0.0114809
0.00937567
-0.00968634
0.000262493
-0.00273507
-0.00764192
0.00997784
-0.000501158
0.00768777
-0.00720332
-0.00907492
0.00719084
-0.00200002
-0.00596789
0.0109975
-0.000723707
0.00316984
0.00116583
-0.00262148
0.000191001
-0.0022827
0.00577674
0.00664361
-0.0101743
0.00792456
-0.0080575
0.00200643
-0.0023103
0.000215365
-0.00992137
0.012473
-0.0146087
0.00947455
0.00490798
-0.00774738
0.000301215
-0.0111446
0.0108177
0.00117998
0.00307485
-0.000264814
-0.00281004
0.00649214
-0.00572389
0.00584435
0.00287421
-0.00874682
0.00562032
0.00105625
-0.0161315
0.00271714
0.0133223
0.00593608
-0.00576234
-0.000176244
0.00658038
-0.00642573
0.000956675
0.00878522
9.76839e-05
0.00669252
-0.00368393
-0.000973313
0.00306003
-0.000932565
0.00915204
-0.00141559
0.00349151
-0.002076
-0.00795877
-0.010607
0.00983385
0.000740647
0.00311049
-0.00341727
-0.00174824
0.00957894
0.00232499
-0.00679764
0.00703806
-0.00874207
0.00167245
0.00840141
-0.010788
0.0100734
0.000690663
0.00611842
-0.00260568
0.000291326
0.00023703
-0.00208136
-0.0104502
-0.00843717
-0.000667143
-0.00416867
0.00170881
0.00245964
-0.000585162
0.00850038
0.00748237
0.000474079
0.00781424
-0.00823889
-0.00297047
0.000670478
-0.00576727
-0.00106805
0.0101247
-0.009375
-0.0136186
0.0128164
0.000676078
-0.000404215
0.0103763
-0.0120704
-0.0010277
0.00282378
-0.00133678
0.000124282
-0.00656883
0.00643584
-0.00275461
-0.00141425
0.000133264
-0.00239016
0.00184709
0.00393011
-0.00152328
-0.00240689
0.00285809
-0.00258009
-0.000278012
-0.00144598
0.00459716
0.00911534
-0.00210744
0.00231754
-0.00649803
0.00540122
-0.00205226
0.0061399
-0.000451162
-0.00569205
-7.23678e-05
-0.0104129
0.0005774
-0.01199
-0.00589085
0.00147668
0.000879374
0.0118404
-0.0132319
0.00130914
-0.00695964
0.000213368
0.00292721
-0.0047695
0.00184177
0.00601144
0.00469003
-0.0107204
-0.0111144
0.0129803
-0.00198053
-0.00640226
-0.00862309
-0.000615773
0.00906477
-0.00846399
-0.00778891
-0.006895
0.0137047
-0.0065692
-0.00718781
-0.0035689
0.00469798
-0.00280337
0.000132531
0.0101875
-0.000479972
0.0115137
0.00122751
-0.00270339
-0.00525248
0.0015879
0.00366355
-0.0109717
-0.0124829
0.0117442
-0.00167995
-0.000775092
-0.0110539
-0.00109926
-0.00241216
0.0068425
-0.00672735
-0.00275235
0.00233034
-0.000637367
-0.0126136
0.00140155
-0.0111929
-0.000248893
0.0113252
-0.0106952
0.00997477
-0.0077148
0.000699494
0.00699674
-0.00638261
0.0101998
-0.000889701
-0.00269632
0.0101719
0.00019116
-0.010484
-0.000678868
0.00692196
-0.00635607
0.000948573
0.00484693
-0.00579929
0.0130795
-0.00134637
0.00835212
-0.000206089
-0.00817006
-0.00595582
0.00137216
0.00458314
0.00974764
0.000806228
0.00175421
-0.00258364
0.000829428
-0.000482406
-0.00227237
-0.000926694
-0.00970952
-0.0117857
0.0037783
-0.00413724
0.000358377
0.00221205
0.000192109
-0.00240416
-0.00629387
2.50025e-06
0.00628732
0.00813686
0.00150813
-0.00479831
-0.00379634
0.00344013
0.000356196
-0.00736461
0.00761791
-0.00025507
-0.011006
0.0109243
0.00026964
0.00400849
-0.0103983
0.00317809
-0.00346597
-0.00243172
0.00824763
-0.00117839
0.00455059
-0.00337233
5.03424e-05
0.00141604
0.00198831
0.000330754
0.00409828
-0.000795674
-0.0118157
-0.00076991
-0.0105532
0.0120136
-0.00151687
0.00360409
0.00777702
-0.00166419
-0.00814773
0.00510181
0.000407082
-0.00804744
0.00762968
0.00157373
-0.00256698
0.000993221
0.00239783
0.00101892
-0.00341691
0.00265246
0.00121913
0.0102893
0.000647869
0.00420678
0.00240131
-0.0066133
0.000170174
0.00596586
-0.00625407
0.0085339
0.00138749
4.55223e-05
7.3638e-05
-0.00620408
-0.000674037
0.00385184
-0.00435765
0.00391785
0.000314837
0.000845533
0.0113997
-0.00291699
0.00711743
0.0100933
-0.00395136
0.00540843
0.00261288
-0.00250979
-0.000394305
-0.00883106
-0.000469189
0.00919822
-0.00210847
-0.00669384
0.00778424
0.000108876
0.00540806
-0.00440373
-0.000116677
0.0115037
-0.0116592
-0.00666607
0.00609645
0.000563399
0.00162094
-0.00508392
0.00337013
-0.00294078
-0.000429405
0.00529459
-0.00524305
-0.000188395
-0.00091591
-0.00329336
0.00420695
-0.00171277
-0.00354063
-0.00263911
0.00440912
-0.00934072
0.000530244
-0.00221352
0.000198935
0.00201459
0.00262446
0.0123547
-0.00677185
0.00461491
0.00829751
-0.00974984
-0.00096566
0.00867709
-0.00771645
-0.00309099
-0.000969744
0.00406049
-0.00834454
0.000803736
0.00528863
-0.00446833
-1.67505e-05
-0.00352053
0.00625059
-0.000317474
0.0107859
-0.000548569
0.00519264
-0.00573909
0.000327003
-0.0113092
0.0112265
6.00473e-05
0.00687802
-0.00559877
-0.00874469
-0.00101117
0.00139353
-0.00104812
0.00766818
0.000911247
-0.00950451
-0.00554402
0.00554963
0.0117636
9.5915e-05
-0.0119858
-0.00292257
0.0016977
0.009816
-0.0104677
-0.000285047
-0.00866379
5.45879e-05
0.000317043
-0.0103046
-0.00156547
0.00466893
-0.00310413
7.03579e-05
0.000932358
-0.00948125
0.0085378
-0.0103026
-0.000900257
0.0111785
0.00159312
0.00817847
-0.00139818
0.00337818
-0.00198003
-0.000485025
0.000485025
0.000686948
0.00268313
0.00821186
0.000395155
0.00257058
0.00123674
-0.00380754
-0.00233517
0.00151663
-0.00683528
0.00831073
-0.0006689
0.00306888
-0.0039869
-0.00110407
0.00511313
0.00294927
-0.00933814
0.00131096
-0.0027266
-0.00484439
0.00589768
-0.00105672
0.000789014
-0.00896424
0.0081638
0.00134655
-0.000918654
-0.00481318
0.0033658
-0.0108847
0.0105319
0.000300269
0.00241872
8.33773e-05
-2.50955e-05
-0.0116167
0.0114631
-0.000203758
-0.00772562
0.00670404
0.00101757
8.95508e-05
-8.95508e-05
0.000886003
-0.0042215
-0.00173483
0.00786173
-0.000846856
-0.00148057
0.000321839
0.00728281
-0.001712
-0.00557311
-0.010498
0.000159467
0.00269389
0.0104991
-0.000188441
-0.0103529
-0.00118907
0.00299926
0.0130949
-0.0116251
0.00662069
-4.70598e-05
-0.0047446
0.00210658
0.00263761
-0.0101583
0.00117073
0.00895198
-0.00275941
0.000604944
-0.0014869
1.55411e-05
0.0109925
-0.00512379
-0.00589701
0.00481186
0.00231977
-0.00747502
0.010695
-0.000896246
-0.00987007
-0.00285385
0.00073216
0.00563047
-0.00556566
0.00122831
0.00433644
0.000487201
-0.00818206
0.00767702
-0.000536164
0.00659882
-0.0057885
-0.00103803
-0.00119331
0.00294751
-0.00317129
0.0100621
0.0125327
-0.0130202
0.000351591
-0.0055571
0.00650328
0.0090224
-0.001316
-0.00772027
-0.00319772
0.00271511
-0.0122627
0.00165037
-0.00431684
-0.00548236
-0.00400249
0.00562219
-0.0081831
-0.00567059
0.000154409
-0.000473689
0.00338472
0.0030414
-0.00688257
0.000470367
-0.000974128
0.00352616
-0.00255219
0.00645873
0.00116572
-0.00760682
-0.00554286
-0.00561529
-0.0118249
0.0118444
-0.000228814
0.00262366
-9.95131e-05
-0.00994302
-0.0055413
-0.00687909
-0.000771702
-0.0103322
-0.0115002
0.0103542
0.00101088
-0.000408122
3.42572e-05
-0.00959127
-0.007476
0.00787263
0.00696552
0.000314611
0.00100795
0.012036
-0.00140144
0.00397176
-0.00191488
0.0120249
-0.0101566
0.00212737
0.00180266
-0.000744362
0.00633008
-0.00126618
0.00288909
-0.00162297
-0.00875537
0.00546612
0.00328472
0.00966826
0.00128999
0.000698201
-0.00234236
0.00164416
-0.006741
-0.00084871
-0.000103342
0.00392741
-0.00557409
0.00164555
0.000685379
0.00618862
-0.000112812
-0.00199425
0.00828652
-0.0098092
0.00150621
-0.00407617
0.00379296
-0.0102517
-0.00218997
0.00299877
-0.000808807
0.00838007
0.00302475
-0.0114621
0.00238398
0.000690864
-0.00588989
0.00842417
0.0103839
-0.00894837
-0.0018841
0.00203549
0.00769804
0.011439
0.000526387
-0.000318584
0.00221189
0.00920342
-0.00865467
-0.00320692
0.00613562
0.00251858
0.000103371
-0.00624059
0.00593028
0.00582008
-0.00788169
-0.0107698
0.000451137
0.0138308
-0.0101095
0.00978718
-0.00975726
0.00375223
-0.00111733
-0.00805191
0.000317742
0.00774688
-0.0066744
-0.00108405
0.0077706
0.000422309
-0.0063397
0.00603304
0.000302266
-0.0101031
0.00973644
0.0109966
-0.00122928
-0.00988233
-0.00297711
0.00078712
-0.00894643
-0.00142768
0.010355
0.0126736
-0.00167475
-0.00320196
0.00839527
0.000633764
0.0105017
-0.0123727
0.00156846
0.000891478
-0.00209334
-0.00411853
0.00620848
0.00205191
0.00082523
-0.0114319
-0.000437416
0.0118522
-0.00840037
0.00932154
-0.00136092
-0.00293814
0.00429786
-0.0120352
-0.00206759
-0.0103928
-2.70513e-05
-0.00784435
0.00869648
-0.000876585
0.00987281
0.00143172
0.000112589
0.00221299
-0.00890255
-0.00422352
0.00554128
0.00401398
-0.0029247
-0.00108944
-0.00118
0.0118116
-0.01077
0.000541684
-0.0109824
0.0104301
0.0105716
-4.80334e-05
0.0136514
-0.00252942
0.00968221
0.00777185
-0.00665099
-0.00161644
0.00370934
0.00169021
-0.00690264
-0.0135901
0.0021374
0.011414
-0.00321161
-0.00827233
0.0114336
0.0123162
-0.0133491
0.000827547
0.00860414
-0.00969414
0.000797637
-0.00882105
0.00926728
-0.00047545
0.0031804
-0.00160669
-3.07586e-05
0.00786965
0.0103702
0.000491402
-0.000460256
-0.0029103
-0.00183479
0.0110324
-0.0107584
0.00909885
-0.000783968
0.000417312
-0.010569
-0.00238871
0.00369961
0.00814455
-0.00129316
-0.00125177
0.00171056
0.00153098
-0.00173982
0.00326502
0.00574766
-0.0017284
0.00476135
-0.00303347
-0.000874893
-0.00624703
0.00711264
0.000273162
0.000967797
0.000526005
-0.0083396
0.00780509
-0.0104197
0.0104815
-0.000132367
-0.00317803
-0.00606361
0.00922398
-0.00621157
-0.00335634
0.00956009
0.000929592
-0.00640327
-0.000566565
-0.000614559
0.0103537
-0.00976715
0.00954112
-0.00769717
-0.00185872
0.00379338
-0.000987249
-0.00280622
-0.00453181
0.00809804
-0.00659993
0.0012799
0.00531755
-0.00909669
0.000605223
0.00847906
0.0030294
0.0013837
5.64372e-05
0.0100512
-0.0101791
7.59804e-05
0.0102273
-0.00866617
-1.49241e-07
0.00683252
-0.0113201
0.0106943
0.000617101
-0.0107931
-0.000579324
0.0112699
0.00016737
-0.00317591
0.00286787
0.000274659
0.00905466
-0.00412276
-0.00232899
-0.00258924
0.00491769
-0.000196936
-0.00652992
0.00672054
0.00945096
0.000892959
-0.00439465
0.00706727
4.14357e-06
-0.00707713
0.0125474
-0.000940559
-0.00766641
-0.00594487
-0.00536606
0.000728948
0.00463544
0.00894373
-0.000559043
0.0110874
-0.000136571
-0.000714067
0.00190953
-0.0028838
0.00445944
-0.00271949
-0.00299404
0.00113269
0.00140055
-0.00978594
-0.00111674
0.00553154
0.000325497
-6.58342e-05
-0.0112305
-0.000217178
-0.00914723
0.00929663
0.00117642
0.00620732
-0.00068094
0.0111502
-0.00436641
-0.00679833
0.00408479
-0.0072757
-0.000761374
0.00223757
-0.0014762
-0.0097494
0.00977293
-0.00691769
-0.00553449
0.00382085
0.0115464
-0.0120561
0.000310812
0.00112848
0.00288526
-0.00107773
0.00134416
-0.000940544
-0.00800848
0.00557039
-0.0060248
-0.00706345
-0.00350228
0.0105522
-0.00612452
0.00662468
-0.000678369
0.000316542
0.0104135
-0.000207252
0.00947029
-0.00929369
0.000588082
-0.00297684
0.0109294
0.00493243
9.80188e-05
0.00368165
-0.00307419
-0.000607546
0.00774064
-0.00342212
0.00505888
0.000786045
0.000637709
0.00229129
0.00577603
-3.4522e-05
-0.000611778
0.00358776
0.00334089
0.00073086
0.011127
0.00103627
-0.0122518
-0.00390644
0.00278446
0.00112167
0.00776347
0.0111193
0.000482898
0.00142298
-0.00388641
0.00197564
-0.00252155
-0.0027163
0.00203953
-0.00777738
0.00155423
-0.00757598
0.00700581
-0.00752342
-0.00787215
0.00808469
0.000692644
0.00584944
-0.00871303
0.0127094
-0.00403024
-0.00512869
-0.00472119
-0.00403906
-2.34006e-05
-0.00745854
0.00747436
-0.0133141
0.00168582
0.0114584
-0.00299522
-0.00596537
0.00894495
-0.000869892
-0.0118526
0.00450582
3.71775e-05
-0.00188071
0.00795296
-0.0014625
0.00239456
-0.00952504
0.00415158
-0.00436313
-0.00624865
0.0060459
-0.00772472
0.000571296
0.00710848
0.00123915
-0.00200053
0.0116741
-0.00146824
0.0112076
-0.00290476
0.000933116
-0.0102487
0.0013949
-0.00919462
0.000498923
0.00866409
-0.000328056
0.000427774
-0.000179379
-0.0098553
0.00659873
0.0103009
0.00140133
-0.00344273
0.00494959
0.00586952
-0.000249246
-0.00562341
-0.0137146
0.00317949
0.010465
-0.00167304
-0.00852074
0.00132242
0.00784912
-0.00030517
-0.00539006
-0.000339395
0.000625066
0.009396
-0.00922835
0.0111976
0.000342803
-0.0007469
0.00844142
0.00817536
-0.000732463
-0.00746328
-0.000418693
5.2267e-05
-0.000934764
0.0121878
0.00771473
0.000132186
-0.00785206
-0.000102329
0.0117438
0.00368645
0.00156
-0.00952682
-0.000457163
0.00432843
-0.000505005
-0.00382396
-0.0100526
0.0101949
-0.000162889
0.00109123
-0.0111724
0.000295598
-0.00905836
0.0014638
0.0075809
-0.00540668
0.00635125
0.0123959
-0.000282168
0.00851842
-0.00599702
0.0062115
-0.000219604
-0.00733303
0.00102489
0.00653244
-0.000528576
0.000906824
-0.000512402
-8.02075e-05
0.00130662
0.00211575
-0.00342261
6.9771e-05
0.00800427
-0.00808925