/*--------------------------------*- C++ -*----------------------------------*\
| =========                 |                                                 |
| \\      /  F ield         | OpenFOAM: The Open Source CFD Toolbox           |
|  \\    /   O peration     | Version:  v2012                                 |
|   \\  /    A nd           | Website:  www.openfoam.com                      |
|    \\/     M anipulation  |                                                 |
\*---------------------------------------------------------------------------*/
FoamFile
{
    version     2.0;
    format      ascii;
    class       volScalarField;
    location    "600";
    object      omega_0;
}
// * * * * * * * * * * * * * * * * * * * * * * * * * * * * * * * * * * * * * //

dimensions      [0 0 -1 0 0 0 0];


internalField   nonuniform List<scalar> 
10042
(
0.021912
0.0220476
0.0217169
0.0225876
10.8254
0.0220675
5.43064
0.36407
0.0216473
0.0220085
12.9476
0.0225437
0.021513
0.0214721
0.0229429
0.0220309
0.0220228
0.0222585
0.0219141
0.115206
0.0219016
0.13867
0.021549
0.0216014
0.0220542
0.0255193
0.0221313
0.0223149
0.0217082
0.0221029
0.0220185
6.50601
0.022019
0.0219857
0.0241709
0.0216148
0.025081
0.0279227
0.0216174
0.0274995
0.124083
0.0226794
5.32612
0.0219041
10.898
0.0469698
0.022125
0.0884298
0.0246584
0.039818
0.0221669
0.0219175
0.0227233
0.0222919
0.0251059
0.0220606
0.0217064
0.0221081
0.0219788
0.0225806
0.0220429
0.0220023
0.0243068
0.0217099
0.0220616
0.0219854
0.0219304
0.0656699
9.30095
0.0218241
0.0222634
0.133181
0.0219067
0.0300516
0.0219207
0.0215981
10.7273
0.0219233
0.0282007
5.53855
0.0242982
11.1878
0.0218758
0.0224326
0.0219342
0.0222136
0.0218873
0.148511
0.0218633
0.021891
0.0219148
11.1426
0.0223526
0.0218639
0.022082
0.0217766
0.0219322
0.0217976
0.0270397
0.021691
0.0222907
0.100484
0.433631
0.0222022
0.0222719
0.0463802
0.0219117
0.0219256
0.0219094
0.0213979
0.0217017
0.0217926
0.024216
9.95985
0.0220533
0.0218074
0.0219356
0.0219195
0.0217703
10.4551
0.0218616
0.362241
0.0219237
0.021979
0.0992576
0.021881
0.31101
0.0252529
0.0447752
0.0218789
0.029001
0.0219019
12.7529
0.133882
0.0216923
0.0516327
10.8525
0.0219201
0.0907294
0.169258
0.022354
0.0219326
0.0222126
0.147547
0.0216774
0.0217931
0.0514529
0.0214528
0.0218036
0.0240049
0.02165
0.0222555
5.69072
11.616
0.0221861
0.0215071
0.0223094
0.0219942
0.0535477
14.5504
13.3452
0.097208
0.0219845
0.021655
0.0218971
0.0218924
0.0538987
29.0389
6.6219
11.5063
0.0220626
0.0218337
11.2632
0.144286
0.0352017
4.0473
11.3082
0.0219147
0.0757418
0.0287416
0.0224125
8.14786
0.0219591
0.0252166
0.0225929
9.87125
0.197037
0.0218704
12.8487
0.0228123
2.59932
0.0222123
5.10335
8.27998
0.0702622
1.1752
0.0235728
0.0219232
0.0215135
0.0226669
0.0340887
0.0218878
0.0217877
0.144125
0.0219544
0.0216462
3.68564
0.0221566
0.0222602
0.0222425
0.743741
0.0217024
0.050177
0.25547
0.0222906
0.216805
0.0218974
0.0219884
0.0570456
0.0217531
0.0242734
0.0224007
0.321814
0.0286161
0.0242773
0.0260108
0.21747
0.0217992
0.138137
0.0224063
0.0216431
0.116869
0.0218436
0.0223871
0.0217371
0.0241282
0.0216739
0.0214527
0.0224172
0.0240273
0.0219916
0.0219275
0.0218729
0.0242514
0.0218098
0.0220279
0.0216004
0.0222986
0.0221611
0.0222688
0.0215126
0.0218168
0.0233412
0.412466
0.0990682
13.5431
0.0356461
0.0345206
0.0230576
0.0517149
4.55874
0.0223113
0.0219146
0.021467
0.0226287
0.0216764
0.169612
0.0224371
0.0218807
0.0222501
0.0357873
0.0221909
0.239214
0.0350817
0.189778
0.0228594
0.0240186
0.0216844
0.0233513
0.0216933
0.0298073
0.0218452
0.0255623
12.8743
0.0216495
0.0217016
4.57045
0.047595
0.0218522
0.0220417
0.0231377
3.61374
0.0452644
0.155807
0.0221819
0.0215081
0.0217983
0.0216566
0.200751
0.0218501
0.0220374
0.0218276
0.0218991
0.0284951
0.0230792
0.0698493
3.51362
0.0224885
0.843314
0.0218192
0.0232439
0.0221228
18.2747
0.0995265
2.45116
10.6968
0.0215784
0.0224562
0.0218272
0.0231616
0.0260585
0.0222413
0.029964
0.021697
0.021448
0.0219173
0.075041
0.0222838
0.0226454
0.0218834
0.0229679
10.4287
0.0218162
0.0221764
0.0219872
0.0216898
0.0379331
0.0706676
0.0343897
0.584442
0.0287808
0.0246458
0.0218924
0.0214564
0.0219517
0.0222679
0.395238
0.0218436
0.0219871
0.128956
0.0217894
0.0236053
0.0225111
0.134477
0.0216941
0.0241466
0.0421576
0.0297744
0.0226122
0.0219281
0.665788
0.052297
0.0219183
0.0376334
0.0219461
0.0218491
0.0219435
0.0235849
0.814627
0.0230648
0.0222491
0.0224196
0.0222923
0.0222707
0.11377
0.0219262
0.0215645
10.5137
0.021834
1.59766
0.390492
0.0306101
2.86842
14.4916
0.0259737
0.120599
0.0221584
0.0411335
0.0222912
0.0220619
0.317957
0.022063
0.0233408
11.8218
0.0218333
0.0219025
0.0458115
1.94634
0.0219373
0.0214591
6.3738
0.100469
0.0218277
0.066006
22.8762
0.0217516
0.0222639
0.0216007
0.0218525
0.0214418
0.0216437
0.742239
0.534545
0.0220863
3.34758
0.0214754
0.0218553
0.649647
0.0217851
1.24886
0.0481016
0.0224448
0.0215303
0.0214572
0.122719
0.0221231
0.0260009
0.0221175
12.9081
0.0222096
6.19383
0.0227999
0.0219332
0.0218049
0.572731
0.0219488
0.0246774
0.0218209
0.0216816
10.4585
0.0236335
0.0219259
0.021721
9.07979
0.0218658
0.0237985
0.0226204
0.0216827
2.28465
3.60863
0.0218818
0.0220097
0.0231357
0.0215135
0.0220084
0.0219654
10.837
0.0219916
0.0216276
0.0267455
0.378541
0.0511287
0.0222685
0.0283548
16.854
0.0297348
0.021927
0.0219331
0.136496
0.0218838
0.0219391
0.0276041
0.0216693
0.0216459
0.0225074
0.0215373
0.0349819
0.0219078
0.0219529
14.2148
0.0217545
0.0220198
0.0220652
0.0220843
0.0297745
0.021886
0.0216787
2.4618
0.0221798
6.36245
0.0222937
0.0222819
0.0222766
0.12437
0.021856
0.0219294
0.0220118
0.0219608
0.0261378
5.84194
0.0218705
0.0348333
4.12287
0.0296187
0.022261
0.0219521
0.0217711
0.0222033
0.0218391
8.74629
11.913
0.0220729
0.0252398
0.0252088
0.0249005
0.021926
0.0216415
0.232007
0.117296
2.92307
0.0215319
0.0218024
0.0217654
0.0218391
10.7172
0.0311889
0.0219659
0.0217413
0.0217759
0.0219112
0.280315
0.0236243
0.0221389
12.3276
1.15211
0.333935
0.0473266
0.022016
0.0217007
0.047898
0.0468386
6.59709
27.8941
0.0237855
0.0249203
0.0222104
0.0226046
0.0220063
0.0221998
12.9538
0.0215946
0.0218259
0.0451175
0.02221
0.229868
0.0221979
0.0865429
0.0271525
0.0222446
0.022377
0.0241608
0.0314873
0.0472943
0.0735835
0.0222823
0.0395935
0.022348
0.021781
0.022118
0.0219667
0.0220325
0.0239753
0.0512814
0.0379089
0.0221423
0.0222101
0.0220078
0.0219118
0.11239
0.0219274
0.022602
0.131042
0.0215405
0.0468979
0.0752474
0.0220392
9.57405
0.0334239
0.0222097
0.247859
0.0217597
0.0222685
0.0218915
0.0219761
0.0222923
0.0228987
0.0219155
0.808671
0.0223513
0.0219578
0.0219317
0.0301109
0.0280549
0.0219735
0.022935
0.021702
0.0273178
0.0218908
0.0272899
0.021564
0.0225666
0.0214638
0.0219298
1.63676
0.0216089
0.0991148
0.0219605
0.0221494
0.0217347
0.0278691
0.0220738
0.0343248
0.0218472
0.219422
0.022262
5.15032
0.0214475
0.0228586
0.0222716
0.0219034
0.0219579
0.0228761
0.0220322
0.111535
30.3509
0.233767
0.0227455
0.0335372
0.0217824
0.0351999
0.0468994
0.022011
0.0272702
0.0773395
5.9644
0.0759664
10.6158
0.0246265
0.0219673
0.022231
0.0231897
0.0228723
0.029538
0.0215857
0.0226335
0.0908324
0.0222649
0.0219121
0.0231126
3.25931
0.0227505
0.0273287
0.0473119
0.0222514
5.41994
0.0216015
0.0218132
0.022115
0.0216765
16.5768
0.0545366
3.81581
0.0220559
3.53265
13.7832
0.338194
0.029242
0.0529676
0.132609
0.0368661
0.0218871
0.0218205
0.0282393
18.3691
0.021776
0.027295
1.82281
0.0219011
0.0219075
0.0217876
0.0224317
0.0219492
0.0217121
0.121902
2.03199
0.0217011
0.0219991
12.6796
3.81256
0.021785
0.0219314
0.0221548
0.0218576
0.68394
0.0542127
0.225828
0.0222708
0.0219021
0.0216334
0.0224301
0.0220515
0.0274541
0.0223124
5.41915
0.0220067
0.0220741
0.0370327
0.0217736
0.0278353
0.0590433
0.0222814
25.5479
4.39476
0.0219754
0.0218315
0.947608
14.2786
0.0325154
0.0217509
0.379982
0.158328
0.0246058
0.0218813
0.021994
0.0219213
0.274982
0.0227283
0.0833104
0.0222685
10.3716
0.797386
0.0219551
0.0219884
0.103964
0.0221497
0.0217318
0.0238477
11.7971
5.34513
1.31908
0.0219422
0.0458979
0.0353723
0.0216304
0.0218243
0.022194
0.263155
0.0222059
0.0219519
0.0459838
0.0219179
0.0564685
0.0221112
0.0221057
0.0216786
0.0221507
0.119503
0.0221992
0.021814
0.033316
0.0503229
0.326876
0.0222099
0.0780973
3.35535
6.47957
0.0225091
15.2214
13.1506
0.0219025
0.0215243
0.0223134
0.0227812
8.02359
0.0226549
0.0221221
0.0222061
4.22795
0.0341966
0.0219075
0.022142
0.0219274
0.037866
0.0217465
0.021825
0.0267376
0.0223983
0.0222046
0.0216675
1.20262
0.0217034
0.0223277
0.0220269
0.0220984
0.151248
0.0222029
0.0225503
0.0220703
0.0233282
0.703945
0.0222919
0.300001
0.024227
7.52198
0.021607
0.0226678
0.0264363
0.0778367
0.0460451
0.022305
10.9989
3.63684
0.0222367
0.0217529
0.328457
0.0220779
0.0222509
0.0217083
0.0222415
0.0423839
0.0222928
0.022293
0.0585201
0.0262956
0.0224688
0.0291853
0.0223992
3.21491
0.0223773
0.699132
0.0218452
0.0451448
0.0338344
5.41783
0.0228938
11.1363
0.0222694
0.0235169
0.0220414
0.0219392
0.0218564
0.0847051
0.0369041
0.0378103
14.5019
0.0221188
8.71627
0.0236828
0.0216917
0.0293847
0.0263195
4.213
0.0219815
0.0264156
0.046473
0.0226323
0.0383741
0.0222837
0.0215582
0.0222833
0.25655
0.0221329
0.0220031
0.0217188
0.0217176
0.0219338
0.0219887
0.0219815
0.0218386
0.0221506
0.0222088
0.0239531
0.02874
0.0219865
7.28306
0.0218776
2.69826
0.0341621
8.21114
0.0314322
0.0233936
7.0721
0.0283661
0.266294
3.05302
0.0373948
0.0221992
0.0218365
0.0223803
0.155093
0.0217951
12.482
0.0218168
13.2539
5.10824
0.0448138
0.0221965
9.90464
10.3106
0.022717
0.0219747
0.0222639
0.0229265
0.0215484
0.0216529
0.0517322
0.350117
0.0220767
0.0217939
0.0221386
0.581671
0.0506336
0.0221559
0.0237865
0.0718679
0.0221531
0.022027
12.6677
0.0220807
0.0218437
9.82086
0.0231101
0.0218941
6.58089
4.61578
10.0904
0.0219077
0.0226196
0.319825
0.0217167
0.0217504
0.0222843
0.0254953
0.0220424
0.0221114
0.0225476
0.0421822
0.156411
0.0217657
0.0218843
0.0220784
0.0217326
0.0222428
0.0215844
0.11379
0.0266469
0.0218727
0.0219818
0.0217513
0.0219741
0.022048
11.9284
0.0252954
0.0214504
0.0219258
0.0376777
6.70553
0.0220408
0.0219812
0.0220271
0.021466
10.572
0.0379446
0.0216691
0.0220662
0.0259306
0.0943576
0.0221694
0.0222828
0.0237349
0.0217948
0.0236697
0.0221352
4.94723
0.0314061
0.0220678
0.0240926
11.6332
0.0264282
0.0957828
0.0237828
0.31566
0.0222708
0.0218086
0.0233178
0.0522951
0.0218699
0.0216017
0.0222433
0.0221025
0.0951232
0.10813
0.465828
0.0221096
0.0219911
0.0263984
0.0218818
0.0218805
4.7476
0.0228904
0.0218202
0.0219798
0.237825
0.76416
0.0219897
0.0219048
0.0647792
0.0216458
0.0221037
0.0219242
0.0635554
0.0223903
0.0236864
14.3083
0.0220534
0.0221685
3.19124
0.0219056
0.143575
0.0218901
0.0226367
0.0381829
0.0218902
0.0220881
0.0218524
0.0225588
11.021
0.0219191
0.0221348
0.181891
0.0244438
0.165075
10.3861
0.042553
0.022212
0.474697
0.0216654
1.4492
0.0221679
0.0218645
0.021598
10.2021
0.022212
0.022127
0.0221597
0.0278454
3.1119
0.0261662
0.0433121
0.0218371
0.0221348
0.0324281
0.0262739
0.0218277
0.0236883
0.0218615
6.65058
12.7932
0.0221379
0.0225338
0.0222227
0.413632
0.0221567
27.3991
0.0219729
0.0216918
0.0216578
0.0220524
0.0227128
0.0222715
0.0219886
0.0219183
0.401654
0.0721088
0.0217601
0.0230856
0.022757
0.0373951
0.021695
0.0247438
0.0223408
0.0218892
0.0227326
0.0260906
0.0222802
0.021912
0.0252381
0.0216611
0.156702
0.0224634
0.125947
0.0219741
0.0220371
0.0216205
0.0635617
0.0361016
0.0217538
0.023092
0.054037
0.0221866
0.0217563
0.0238404
0.0222247
16.4298
0.187672
0.0237002
16.5231
0.0226626
0.0282564
0.0750559
0.034481
0.0275861
6.67725
0.0257048
0.0879976
0.0218058
0.0223429
0.0217895
0.0218921
0.0241341
0.0217115
0.16293
0.0218861
0.0218943
0.0673337
0.0219371
0.0420914
0.0237292
0.0240611
0.0218174
0.0387694
0.351121
0.0213941
0.0266378
12.0671
0.0386779
0.0216383
0.0257102
0.0219926
0.0217194
5.99868
0.021819
0.0217765
0.0400595
0.021874
0.0241445
0.0216852
0.0220018
4.68754
0.0217506
0.021637
0.0233969
0.0219047
0.0214362
0.0222518
9.45285
0.0220009
0.0220834
0.0215229
0.0643672
0.0221745
0.0234049
0.0219185
0.0318734
0.0222972
0.0218681
0.0223408
0.0220992
0.0217722
0.103305
0.0373019
0.0262549
0.0229187
0.0401459
0.0553847
0.0260663
0.0266019
0.0225119
1.63503
0.0218919
0.0218317
0.0219218
0.0222384
0.0326019
0.021889
2.68996
12.8286
0.614653
0.0220826
0.0234017
0.035616
0.0214917
0.0787773
0.0427962
0.693962
0.0519199
12.3566
0.0556097
0.098366
8.11231
0.0262507
0.0222755
0.0237964
0.0217354
4.32733
0.0221351
0.02744
0.0217792
0.0238399
0.0220433
12.2555
3.38567
0.0222036
8.06723
0.664676
0.186489
0.0377696
0.0569388
0.0216421
11.8472
0.0218829
0.843824
13.2329
0.0222042
0.0218377
0.0220005
0.0227887
0.023211
0.0302993
0.115417
0.0221243
0.0220385
0.0236653
0.0219928
0.0220351
0.0245352
0.0218239
0.0220569
0.335329
0.0527748
0.0220403
3.32668
0.0222276
0.0222722
0.0229043
0.274038
0.021932
0.0217144
0.0860955
0.18374
0.0216818
0.0238117
0.670011
0.0446937
12.7659
0.0217623
0.121864
8.61631
7.64886
0.0220807
0.0218495
0.0483798
0.0248086
0.0374262
0.0221208
10.4258
0.0401372
0.1525
0.0219332
0.0219749
9.78625
0.26734
0.0221492
0.0222724
11.6989
0.0219187
0.0215371
0.0216008
0.0225569
0.0221969
0.0278195
0.0219789
0.0226442
0.0215986
0.027433
18.9856
0.0538163
0.029574
11.6586
0.0641397
0.0216105
0.0217201
0.0217675
0.0222837
0.123129
0.0279527
0.0217778
0.0218926
0.0219676
0.0215917
0.0300219
0.0215952
0.0438714
0.0228037
0.0221228
2.89353
12.7534
0.0221008
1.48456
0.0312467
0.0298817
0.0222643
0.0215927
13.9715
0.0612434
0.0219204
0.0217065
0.021925
0.0243444
0.0222623
0.121676
0.0214971
0.0220573
0.0218495
4.06267
11.8139
0.0214544
0.0219192
0.134948
0.370527
0.0237169
4.65191
10.1915
0.0215825
0.0221416
0.0219894
0.022564
7.93162
0.0220371
0.0222843
0.189184
0.0785313
0.0222122
0.0219346
0.0664332
0.0222836
0.0220726
0.101288
0.0594957
11.7485
0.0219817
0.0669498
0.0376211
0.0434518
0.0226653
0.0257489
0.021935
0.0217908
0.105897
0.0244105
0.0219963
0.023603
13.0218
0.021504
0.0217827
0.0214923
0.0686641
0.021944
0.0220854
0.0214209
0.0219432
0.710731
8.15139
0.0220548
0.61576
10.3811
12.7783
0.0219325
0.0218852
0.0218187
0.0218845
0.0221156
0.0221493
0.0216079
0.0220817
0.0217726
0.0235073
12.0971
0.0331161
0.283056
0.0258079
0.0220305
0.0226672
0.0296163
0.0220252
0.0218351
0.0365112
0.0294346
0.634538
0.0333184
0.0214365
5.40547
0.0222923
0.0214593
0.0217579
0.181282
0.0348155
0.0224292
0.0242124
0.0220716
0.022092
0.0300695
0.0326505
0.0249702
0.839321
0.0220812
0.0220294
0.628789
0.034152
0.0239336
0.0931292
0.0224229
0.0597251
0.170428
0.0560432
13.9121
0.0217845
0.0215609
0.0219379
0.0220459
0.0220945
0.0224848
0.0323696
0.0409721
19.3348
0.0220719
1.17923
0.90424
0.0230835
1.13761
0.0220595
0.081082
10.1968
0.0219093
0.0684577
0.0214728
1.62619
0.0221975
0.118767
0.021845
0.479573
0.0309394
12.8194
0.0218435
0.104974
0.021519
0.0224225
0.150779
0.0218326
16.3425
10.0158
0.29107
1.01043
0.0672449
12.5887
0.0351667
0.0220161
0.0409039
0.0387138
4.21201
0.0220751
0.022016
0.0222074
0.0430403
0.0218877
0.0220612
0.0220428
21.4615
3.41657
0.0218493
1.60878
0.0532226
0.0217179
0.0348402
0.0258058
3.07313
0.0273531
0.021726
0.605174
0.0220707
0.0219358
0.0220887
0.121644
0.0494391
0.0216859
0.025187
0.0221106
0.0222605
0.0217871
10.312
0.0222857
0.0218113
1.18192
0.134234
0.0228873
0.0217277
8.12572
0.0266196
0.0227217
0.0218721
0.046957
0.0224441
0.0243516
0.0236217
0.713313
0.0395958
0.0477857
0.0214362
0.0270722
0.0363552
0.0246866
0.0221715
1.67544
0.0222527
0.116813
0.0218856
0.0221939
0.0268137
0.110111
0.0226032
0.0234818
0.0221126
0.0342148
0.0508052
0.0791887
0.0262916
0.0222923
0.0219636
0.0266395
0.0770933
0.0219348
0.0347613
0.0220146
0.0219365
12.5644
0.0218795
11.343
0.0218946
0.0258169
0.0566578
0.0218582
0.0250781
0.107836
0.0844147
0.0218633
0.0734677
0.0220908
0.0222632
0.0218447
11.3077
3.73667
0.0219063
0.0219218
0.0215089
0.0217793
0.0675171
5.0272
0.021857
1.18488
0.0217169
0.0217928
0.0218922
0.274055
0.0223235
0.0230769
0.021942
0.021846
0.0218542
0.0222567
0.0222594
0.0277737
9.30291
0.0215472
0.0218464
0.0385021
0.0589409
0.0217802
0.799905
0.0456809
0.0217623
0.0214331
0.0218533
0.0795112
0.0216836
0.0675006
0.0264532
0.0226368
0.0217614
0.0376855
0.0215011
0.119312
0.0261232
0.0221665
2.06257
0.420392
0.0214011
0.0218396
16.0032
0.0981495
0.0576995
0.0230123
0.0675616
0.0214694
10.5295
0.0549548
0.0215789
8.58059
4.28562
0.0226741
0.039719
0.0441146
0.0217224
5.21801
0.0220307
0.024336
0.0271392
0.022078
0.0220484
0.0476076
0.0218664
0.0218871
0.0218654
4.61055
0.0217991
0.0219366
0.0217115
0.0218885
0.0218052
0.0222299
0.0419442
0.0420124
0.0226021
0.0222496
1.20849
0.0220703
0.0218308
0.0218972
0.0215141
0.0220833
0.0219702
0.0252845
0.0661559
0.022224
0.0266614
0.0455862
0.0216809
0.0260446
5.08842
0.0222309
0.0214912
0.0220778
0.0751343
0.022203
0.0222029
0.0233273
0.0237303
0.702298
17.1633
0.0218188
0.0218612
0.0219401
0.0631643
0.0225917
0.0217701
0.0268428
0.0669347
0.0220237
0.0255281
0.0221325
0.101014
0.185853
0.0222402
0.112194
0.0243817
11.7461
0.0222054
0.021893
10.1271
0.10352
0.0233623
0.15291
0.0828999
30.8391
0.0421419
0.626423
0.0237919
0.0233179
8.34497
0.0252634
0.286661
0.0258699
0.123509
12.3894
0.0222932
0.0219996
0.0219747
0.302162
0.0214242
9.42858
0.0298624
26.3383
0.0225808
0.105198
0.209049
0.0219456
0.0220377
0.0719997
0.027463
0.0220879
0.0234975
0.0701234
0.0595834
0.0672623
0.0785013
16.5298
0.136881
0.0221147
0.0222013
4.02812
0.0688816
0.0222265
0.0348773
8.65283
0.0219813
0.0227522
0.0219379
0.0270287
0.0220381
0.0221044
0.0361269
0.0219727
0.0223682
12.9028
31.4411
0.0217208
0.024628
0.0243589
0.18932
0.0393996
0.022008
0.0219238
0.0925362
12.8243
0.0219277
0.0243117
0.0218794
5.50179
0.0217962
0.0274944
0.232744
0.190959
0.0222719
0.122432
0.0812784
0.0467306
0.0244652
0.0220198
10.0394
0.021786
0.0239686
0.0220696
0.0253445
0.0215488
0.0215441
0.0218767
0.0562011
0.0217869
0.0219764
0.0216929
0.0217394
0.0218621
0.021857
0.0753683
1.14421
3.68872
0.0236826
0.022055
0.030169
0.0227147
11.1122
0.0222849
0.161876
0.0215819
0.0219927
0.0220223
0.0310179
4.36675
0.0219516
12.8638
0.02194
0.0214925
0.0224752
1.15195
0.0228017
0.0415867
11.5852
0.0222848
0.0220316
14.7232
0.021868
4.81033
0.0220876
0.0271165
11.5086
0.0221012
0.0220947
0.0218552
14.5569
0.0241986
0.0218587
0.713626
0.0219558
0.0221473
0.0705634
24.3026
0.16948
9.66623
1.5131
0.0667129
0.0228415
0.160376
0.240577
0.0216498
0.0218099
0.0223924
0.0243035
0.0715589
0.0219896
0.0242975
0.0219028
0.0219578
4.44702
0.0222249
10.9413
0.0215061
0.0270375
0.0529575
0.0218232
0.0214857
10.9459
11.3087
0.057438
0.0220781
0.0237262
0.0429788
0.0217526
0.0287535
0.0836063
0.0322166
0.0226488
8.71375
26.1766
0.0215208
0.0221328
0.0216357
0.0221944
0.0221893
0.0245486
17.0036
0.0221199
0.0219546
0.0351664
24.1967
0.0215144
0.732792
0.0215119
0.110065
0.0467123
1.80962
0.0601771
0.0489847
0.0514986
0.0214452
0.0214817
0.261609
0.0241762
0.0220852
0.725819
0.0217978
0.0220822
0.0215969
0.0413266
0.187965
0.652379
0.128454
0.0250813
0.0273163
0.0217414
11.8018
0.226195
0.0224803
0.0219696
0.0216645
0.0908511
9.41108
0.0334359
7.58114
0.0225418
0.0217362
12.5061
0.0218664
10.2313
4.38249
0.0216423
0.0273689
0.33897
0.0233456
0.0333765
0.021782
12.7658
0.0240765
0.143211
7.4078
1.68288
0.0248786
0.0249778
0.022135
0.151789
10.5262
0.0222791
0.0228381
12.4533
0.0453078
0.0610625
0.0222635
2.19205
7.57899
0.0871992
0.0218721
0.0241814
0.021893
3.08096
0.0573752
0.0290646
1.08738
12.304
0.0214384
0.134802
0.0220989
1.05496
0.0838114
0.0241697
0.0234231
0.888901
0.0213768
0.052723
13.6164
8.30711
0.0224674
0.0220304
0.0217793
0.079972
1.31127
0.177331
10.581
0.0983297
0.0375673
0.0217068
11.4074
0.0596085
0.0267125
0.166145
6.46785
11.204
9.35615
10.5066
11.5763
8.15379
0.0219379
0.0273882
0.0295188
0.0216766
12.7743
0.721964
0.0220184
1.15528
0.0221284
0.0219884
0.0217625
0.0269547
0.0218615
11.7538
0.0562269
0.241262
0.0215432
0.622591
0.0440929
0.354936
8.99266
0.0221349
0.0248457
0.0351323
0.0610332
0.0216757
0.0215385
0.0218889
12.6759
0.0217645
0.0216888
0.331282
0.0224654
21.9285
0.0220446
11.8098
0.0219426
0.0220591
0.0218753
0.0218928
0.0242968
0.0233853
10.9239
0.0292477
0.0300817
2.72149
0.0217758
10.2947
0.0217732
9.94976
0.368751
11.7806
0.0522983
0.021883
0.0222728
1.56293
0.0217701
0.0239838
0.0221099
0.0258336
10.8442
0.0218819
0.0218394
0.0218467
0.0222654
2.43143
6.40631
0.0217618
0.0214169
11.197
9.28203
0.0218534
3.99844
0.0222644
9.98448
10.93
0.0574641
0.304093
0.901623
0.0775258
12.5719
0.072917
0.0218835
0.0215035
0.0217735
9.91717
5.62274
0.0224557
0.0268893
12.4716
0.0218002
13.2221
0.0216675
0.0217071
0.0215704
0.916465
0.0643124
0.0216857
12.9558
0.0222526
0.789738
5.98169
0.021678
0.0221099
0.0875747
0.0219464
0.0217265
0.0218244
3.43574
0.0299062
0.0220302
0.0221294
4.49819
0.0218693
0.0377821
0.0219844
12.1127
0.0221003
0.0953426
0.022785
12.434
1.1751
0.028649
0.0773582
0.0451995
0.0220725
0.0704742
12.3027
0.0216706
0.0633522
0.0217499
0.596904
0.0218924
11.3662
3.23648
0.0953491
12.914
13.0442
0.0381781
0.0220609
1.67985
0.021929
10.354
0.0243159
0.91419
0.0218149
0.030625
0.0431137
0.0286532
0.0219759
0.0218934
0.0221955
7.90435
0.061021
12.9936
7.48074
0.0262961
0.0215833
0.0502027
9.36293
0.0313944
0.021696
0.0220783
3.95619
0.833938
6.90567
13.2133
0.0323603
0.0220929
0.0217616
0.0425894
0.0456286
0.684872
0.021999
0.0220672
33.5189
0.0563939
0.0222853
0.0498841
0.685599
0.0815519
0.0215168
0.0447442
0.646256
1.04136
4.51488
0.127845
0.0218332
0.0222691
0.0217846
0.0222849
0.0218766
0.0220889
0.0312323
0.191435
0.0306219
0.0246646
0.0270528
0.0221879
0.0249237
0.0220608
0.032496
0.0306683
0.021772
0.0263963
0.0218454
0.0218376
0.0221847
0.0221203
0.374211
0.0215395
0.0708531
0.64279
0.6829
11.0354
12.4569
0.0221618
0.0222368
0.0219002
2.27855
0.0216536
0.0214347
0.0221745
5.5844
0.0293642
0.0294941
0.354124
0.0228177
0.0220312
0.0274941
0.0218749
0.0446575
0.0222855
0.0318698
0.0217482
0.0218506
0.0224295
0.0228786
0.0234175
0.623658
0.0313296
0.103224
0.0518248
0.0893537
0.0399475
0.0594302
0.0216439
12.9077
0.0237678
0.0253904
0.0218551
0.0221439
0.11409
0.0219783
0.0595847
8.06512
0.0278707
0.338145
0.0997474
0.0499608
0.0647394
0.0557411
0.0219255
0.0263544
0.0220884
0.0733334
0.0472983
2.27617
0.0217413
0.043804
0.0253307
7.58962
0.215404
0.039686
0.0220955
0.0467951
0.0215463
0.0538586
0.022317
2.87012
0.0216198
0.0248802
0.0220168
0.0335187
0.10441
0.0284626
0.874734
0.0220383
0.0263386
0.0562272
0.0220158
0.811547
9.481
0.106904
0.0443731
0.0427906
0.0216532
0.0216643
0.977622
0.0982699
0.0215183
0.0220269
0.0241874
0.0218587
0.429735
0.0217332
9.57538
0.144186
0.0951444
0.0345483
0.0221399
0.0216369
0.0216934
0.150294
0.0739521
0.0255461
12.6793
0.0221741
0.0226966
0.0259988
1.51734
0.0214292
0.223103
0.0213787
9.28552
0.0219073
0.0218979
0.0357696
0.0219831
0.0220618
0.119377
0.0219556
0.0221006
0.0216735
0.0403028
0.0242566
7.14744
0.0219873
0.021975
0.0218438
0.0903429
0.0217868
0.0271756
0.033851
3.57639
1.43803
10.2313
0.717911
0.456137
0.0374639
0.0572503
0.0260872
0.0222509
0.0221204
10.4651
0.0527837
0.0215164
0.0219612
0.0219515
0.0248473
0.0763795
0.022252
0.0286556
0.0887978
0.101794
0.106353
0.0219642
0.0222376
4.802
0.0226912
0.0215089
3.46453
1.07474
0.0216579
0.0213892
0.0254992
0.0220532
0.0356122
0.0222485
0.509591
0.0222727
6.46628
0.0218127
6.85584
0.0274786
0.0218663
0.0512167
0.0215394
0.0217323
0.0222649
0.0289356
0.557858
0.0218082
0.118027
0.0222855
0.0221996
0.102799
0.0215727
0.0221277
0.0221012
0.0214279
0.021879
0.0214455
0.0221662
0.566891
0.0218502
0.0216548
0.0531176
0.0215861
0.0219322
0.0221675
0.0219268
2.31611
0.347462
0.0218373
0.022243
0.0217224
0.0222856
0.139712
0.0220541
0.021982
9.48913
0.0219573
0.0387565
0.0469192
0.0353765
0.0216865
0.124491
0.0218405
0.166531
0.0632066
0.0217005
0.94011
9.29563
0.0269344
0.108747
0.021787
0.0218364
0.0419449
0.117022
0.0216738
0.0218536
0.0219421
0.0370989
0.0221016
0.0336651
0.0221092
0.0422184
0.408227
0.0364054
0.144313
0.021799
0.0233485
0.0224287
0.0227527
0.021662
0.021839
0.0224108
0.0227295
0.0619924
0.0221475
0.105351
0.0216848
8.59823
0.0214717
0.0217609
0.0648805
0.0222714
0.0999803
0.0857258
0.034564
0.0217093
0.0224182
0.0217412
0.0344606
0.021954
0.0512414
0.0237642
0.0220161
0.0216292
0.026011
1.43224
0.0296738
0.0480726
4.52388
0.357533
0.0359767
0.0215498
9.61825
0.0218622
0.0226674
0.0221874
0.0724205
0.0217598
0.0330371
0.0264655
0.0229045
0.0221211
0.0241182
0.0221999
0.0480084
0.0219312
0.022186
0.0218626
0.0263786
0.54179
0.0218728
11.7725
0.0771081
0.0214126
1.53948
0.206329
0.021647
0.0225226
0.086048
0.0217655
0.0218851
7.28736
0.0220263
7.36696
0.0245848
0.0235804
0.0223744
0.0219911
0.0218505
0.0216704
0.0561329
0.0222813
0.021958
0.0218456
0.0219089
7.03854
0.0339979
0.0219801
0.0275837
0.098755
0.060732
0.02188
0.0218309
0.0218849
0.0237927
0.0224706
0.0221925
0.0246146
4.15267
0.0216561
0.0223955
4.33515
0.023582
0.143428
0.143492
0.0218162
0.0222699
0.428832
0.0633608
0.291833
7.51614
3.47912
0.105926
0.687431
0.0216419
0.0224667
0.0216705
0.0221871
5.96237
0.021909
0.0450745
0.0590099
0.0260832
0.0240473
0.586429
0.0219038
0.0221152
0.0240403
0.0219324
0.0220473
0.0216585
0.0217766
0.0538426
0.021933
0.022003
0.0217447
0.042382
0.0221321
1.87972
0.0219119
0.022367
0.0218098
0.0222523
0.0223123
0.0218369
0.03494
0.0225851
0.021927
0.0263081
0.0218515
0.0222644
0.0218995
0.0294071
0.0219924
0.022032
0.0220453
0.0220582
0.0255482
0.022019
0.022006
0.0795464
0.0220729
0.0218547
0.02281
3.09653
0.0425678
0.0219892
0.043121
7.95812
0.0879613
0.113073
0.0231945
0.0223311
0.0244454
0.403883
0.021866
0.225519
0.0221177
0.021889
0.0263497
0.0220498
0.0585636
0.0630592
0.0543826
0.0224466
0.0218445
0.0263091
0.0258524
0.0225575
0.0233315
0.0226418
0.0410135
0.0683561
0.0640196
0.0218571
0.0230094
8.61658
0.0227055
0.0222852
8.93825
0.545579
0.0218521
0.022039
0.0224938
0.0643871
10.0901
0.0219522
0.270817
1.1181
0.0359849
0.0505261
0.0215337
0.0227751
0.0221724
0.0615896
0.0222318
0.0281467
0.0226007
0.148989
0.0221939
0.02206
1.44938
0.0226454
0.022622
0.0219275
0.0222125
0.0349458
11.8892
0.0261472
0.0220414
3.08393
0.110215
0.0219788
0.0218731
0.0217929
0.023253
0.0215849
0.132263
0.0218183
0.0233649
0.0239988
0.0481513
0.0249885
0.0217551
0.0257133
0.023308
0.0217765
0.0939719
0.0217138
0.022644
0.0216649
0.0222719
20.8834
0.0256506
0.0219636
12.5761
0.0222544
0.0219397
2.94451
0.0570237
13.0394
0.0218519
0.0223754
0.0218662
0.0221318
0.0224693
13.749
0.0220713
0.0661948
0.0216684
0.0218197
0.0228102
0.0218017
0.0343493
5.80389
0.57385
0.0219473
0.0217081
0.242061
0.0222978
0.0219114
0.0250334
0.0246213
0.461604
0.0784224
0.0223256
6.16117
0.0957514
0.0221702
0.0216511
0.0219407
0.027004
12.7229
0.0222839
0.0595416
0.0222079
0.0220888
0.0215003
0.0219768
16.4302
0.0257714
0.0216871
0.0230527
0.0220942
0.0244514
0.0213925
0.0224944
0.021818
0.022307
0.467138
0.0219324
0.0222128
0.0717826
0.0215557
0.0214987
1.26658
0.0218761
11.9621
6.3263
11.0707
0.0252289
0.022002
0.0214726
0.0221388
0.0214421
0.0229353
0.197211
0.040758
0.471629
0.0668332
0.0232529
0.021526
0.022346
0.0222149
0.0222728
0.021998
0.0214901
0.0673915
0.0221291
21.2163
0.0220684
0.0222992
0.0222633
0.0218605
1.37365
0.124833
0.0272775
0.021468
0.0421329
0.0224242
0.0219693
0.0795488
0.0214262
0.0225566
11.2714
0.021955
0.0218513
0.0218547
4.64434
10.1597
0.0215059
0.0222135
0.0233344
0.0219769
0.0215177
0.0218543
0.022075
0.0218363
0.0218039
0.0218967
0.0232435
10.8454
0.035758
0.0219328
0.021928
0.0219785
0.0218941
0.0221775
0.0247491
0.0263507
14.8043
0.0240576
0.0220311
0.0222123
0.0219432
0.0673248
0.0215552
0.0222232
0.022795
0.026463
0.0255411
10.2443
0.0219906
0.0265878
0.0222728
0.0222136
0.022104
0.0215001
0.0223465
0.078416
0.260063
0.0216743
0.0306401
0.0595223
0.0222649
0.0323601
0.0350047
8.73524
0.0222494
0.0228949
0.0220899
0.021548
0.0575477
0.0219556
0.0219977
0.0432722
0.178924
0.241783
0.021707
0.0218415
9.35414
12.9248
0.0215051
1.08604
1.16635
0.0218128
0.0215166
0.0215681
0.0219548
0.0221399
0.0214893
0.026428
10.7074
0.0216768
0.0219566
0.0216596
0.0221575
0.0217692
0.0217787
0.0214808
11.7972
0.0218387
0.264014
0.022019
0.021767
0.022364
0.0217936
0.0221758
0.0257339
0.0221546
0.0221272
4.21531
0.0219899
0.0235015
0.0219858
0.0219081
0.0221399
0.0217827
0.0896153
0.0220559
0.0221052
0.0218338
0.1839
0.0280124
0.0219238
0.0221755
0.0219356
0.0224406
12.4833
0.0227939
0.0230186
0.0219469
0.0221221
0.0218773
0.04561
0.02249
0.0222782
0.470721
0.0398253
0.0217661
0.0235678
0.0218442
0.0220228
0.0217461
13.4748
0.0219587
0.0220564
0.021777
0.0282511
0.022634
0.0223283
0.0218578
0.0217589
0.0494243
10.2921
0.0217654
0.051245
0.0228407
0.0227951
10.5672
0.0216968
0.0219836
0.0219476
0.0227934
0.0225043
0.0217869
0.023372
0.0219058
0.071333
0.0214466
0.0217006
0.0235734
0.0221418
0.0714473
0.0239551
13.6386
0.0508289
0.022212
0.101301
12.598
0.0221138
0.0232433
0.0220675
0.0242222
0.0217529
0.0321807
0.0393683
0.0218798
0.0274932
0.0216255
12.6279
0.0219517
0.0228108
13.5866
0.0354122
0.0229514
0.141607
0.0221558
0.0219941
12.7368
0.0216819
10.6942
0.0218342
0.0218526
0.0685584
3.73674
0.0219129
0.0397508
7.31193
0.0218472
0.0221751
0.0219048
0.02484
0.0237673
0.0222826
0.0220044
13.0009
0.0219605
0.0221566
0.0219352
0.0218504
0.0220357
0.022687
0.0271555
11.2628
0.0222313
10.4694
0.0219366
0.0221839
0.0235862
0.022148
0.0547721
0.0502221
0.0220546
0.0218919
0.021817
0.0895021
0.0216588
0.0218026
0.593486
0.121156
0.021642
0.0220027
0.0217242
0.0220869
0.023648
0.0728732
0.0219631
0.0221263
0.0217295
0.0219104
0.0219617
0.0214769
0.0246917
4.89615
0.0216757
0.0219251
1.21749
0.0219076
0.0350951
0.0220674
0.0263202
0.0433766
15.2557
0.0222613
0.0220532
0.0217743
0.0219164
0.0220406
0.0214073
0.0221437
0.0221261
0.0225217
0.0470783
0.0234924
0.0226674
10.8229
0.0220272
0.131958
0.0216702
0.0216635
0.0220143
5.67017
0.0218134
0.0470318
0.0223947
0.0222268
0.0219324