/*--------------------------------*- C++ -*----------------------------------*\
| =========                 |                                                 |
| \\      /  F ield         | OpenFOAM: The Open Source CFD Toolbox           |
|  \\    /   O peration     | Version:  v2012                                 |
|   \\  /    A nd           | Website:  www.openfoam.com                      |
|    \\/     M anipulation  |                                                 |
\*---------------------------------------------------------------------------*/
FoamFile
{
    version     2.0;
    format      ascii;
    class       volVectorField;
    location    "600";
    object      U_0;
}
// * * * * * * * * * * * * * * * * * * * * * * * * * * * * * * * * * * * * * //

dimensions      [0 1 -1 0 0 0 0];


internalField   nonuniform List<vector> 
10042
(
(0.996181 0.00815409 0)
(0.998471 0.00191679 -5.22025e-21)
(1.02555 0.0119297 -2.08604e-22)
(1.0065 4.87762e-05 0)
(1.26276 -0.0761491 4.77221e-20)
(0.999023 0.00191794 4.67533e-21)
(1.31398 -0.0414851 -4.54553e-20)
(1.11664 -0.0175204 2.00597e-21)
(1.02131 0.0114778 1.65205e-21)
(1.00074 0.00312654 0)
(-0.774436 0.000269131 -1.07809e-19)
(1.01006 7.00411e-05 -3.11312e-21)
(1.01189 0.00180779 -3.97559e-21)
(1.0121 0.000697344 -3.61595e-21)
(0.965229 0.0424238 -1.49657e-20)
(0.999174 0.00301123 -5.56026e-21)
(0.999106 0.00332746 0)
(1.00001 7.01319e-05 1.1454e-20)
(0.996308 0.0077362 0)
(0.698827 0.263506 -2.34994e-20)
(1.0025 0.00414273 3.32084e-21)
(1.10784 -0.107777 -2.20027e-20)
(1.01131 0.000404159 -5.37084e-21)
(1.01065 0.00371138 2.4193e-21)
(0.998564 0.0017147 -1.16133e-20)
(1.05477 0.00982592 8.25125e-22)
(0.999052 0.000175979 8.84909e-21)
(0.994506 0.0432635 4.30694e-22)
(1.01479 0.017532 1.53771e-21)
(1.00054 0.0382188 4.89213e-21)
(0.997134 0.000606451 0)
(-0.126661 0.0301002 -1.02099e-19)
(1.00072 0.00287893 0)
(1.0139 0.0337248 0)
(1.04905 0.0362454 5.54753e-21)
(1.01032 0.00384329 2.48617e-21)
(1.05385 0.0127329 0)
(1.05075 -0.00174017 0)
(1.01009 0.00359796 -4.60615e-21)
(1.00771 0.0968367 -2.35162e-21)
(0.670035 0.256964 -3.6011e-20)
(0.972504 0.0420714 -3.36773e-21)
(1.32259 -0.105996 -8.86117e-20)
(0.992794 0.0244284 -9.00599e-21)
(1.23748 -0.0346648 2.53139e-19)
(1.05996 -0.0289836 0)
(0.979589 0.0277106 0)
(1.01957 -0.0651949 5.34425e-22)
(1.05337 0.020719 6.36206e-21)
(1.02691 -0.00267577 8.66728e-22)
(1.00016 0.000263075 0)
(1.03146 -0.000508715 0)
(0.964782 0.0323904 -2.29546e-22)
(1.03538 0.00151459 0)
(1.05436 0.0141524 6.21948e-21)
(0.999002 0.002035 1.40204e-21)
(1.0154 0.0175198 2.97428e-21)
(0.980116 0.0266228 8.52365e-21)
(1.01437 0.0326468 0)
(0.966763 0.0325836 0)
(0.997862 0.00100383 6.64356e-21)
(0.997229 0.00278434 3.43402e-21)
(1.05021 0.0382341 -3.14835e-21)
(1.02493 0.0121195 0)
(0.97136 0.010466 -1.03609e-20)
(1.01649 0.0318271 -5.67116e-23)
(0.97828 0.00754666 -1.56586e-20)
(0.748394 0.176252 0)
(0.39629 -0.456056 0)
(0.999063 0.0204857 3.27615e-21)
(1.03522 0.000961473 0)
(0.653295 0.267719 -6.98149e-20)
(0.99179 0.0242236 9.45944e-21)
(0.877692 0.0527947 4.02851e-20)
(0.979371 0.00489908 6.93268e-21)
(1.01088 0.00391395 0)
(1.17209 -0.0992973 1.72958e-20)
(0.996264 0.00688218 9.57229e-21)
(0.913216 0.0737417 -2.42667e-20)
(1.2773 0.0742469 6.58054e-21)
(1.05161 0.0206321 0)
(1.39267 -0.0199075 -1.64432e-19)
(1.00421 0.0280136 -1.64929e-21)
(0.97487 0.0363499 -8.91933e-21)
(0.9782 0.00664683 1.03042e-20)
(0.999947 0.000331154 0)
(0.996575 0.00996212 0)
(1.20518 0.232998 0)
(0.987774 0.0153452 0)
(0.996869 0.0100514 0)
(1.02318 0.0243585 -4.7385e-22)
(1.37178 0.0235398 1.96338e-19)
(0.995365 0.0448587 -4.79425e-22)
(1.03081 -0.000252666 0)
(0.999608 0.0370136 -9.97054e-21)
(1.01056 0.0229054 0)
(0.998657 0.0066874 -1.35923e-20)
(1.00621 0.0219442 5.6433e-21)
(1.00727 0.0934549 0)
(1.01858 0.015761 0)
(0.999998 2.31748e-05 1.05509e-20)
(1.20661 0.135987 0)
(1.15501 -0.0185624 0)
(0.999945 0.00045558 4.18637e-22)
(0.989348 0.0398152 7.66228e-21)
(1.05726 0.174494 1.45771e-20)
(0.99433 0.00733049 -6.56836e-21)
(0.998675 0.00705556 7.02098e-21)
(1.0024 0.00386786 3.00335e-21)
(1.0166 0.00084394 0)
(1.00728 0.00100506 5.56863e-21)
(1.00211 0.0163494 4.27643e-21)
(1.03111 0.0595604 0)
(0.26498 -0.40686 0)
(0.972325 0.00968515 9.86041e-21)
(1.00011 0.0151718 0)
(0.992932 0.00159249 -2.96399e-21)
(0.996107 0.00729044 5.69187e-21)
(1.01102 0.0223176 -9.89897e-22)
(0.0793188 0.267473 4.34741e-20)
(0.98797 0.0146908 2.02394e-22)
(1.13003 -0.0247934 -4.78084e-20)
(0.995433 0.0272068 1.01871e-20)
(0.99523 -0.000133537 1.89185e-20)
(1.20193 0.124322 4.52315e-20)
(1.00356 0.028516 0)
(1.1078 -0.0263947 2.30326e-20)
(1.05756 0.0309029 5.57846e-21)
(1.04895 0.171146 -1.21078e-20)
(0.997261 0.010947 4.92152e-21)
(0.910673 0.0790711 -1.45911e-21)
(0.982668 0.0141593 0)
(-0.479918 0.159076 0)
(1.10714 -0.0625184 0)
(1.01799 0.0159393 2.32961e-21)
(1.11843 0.130803 -3.03415e-20)
(-0.124346 0.209477 -1.9322e-19)
(1.02326 0.025392 1.04259e-21)
(1.02441 -0.0715321 0)
(1.21617 0.245054 0)
(0.984282 0.0405336 -5.02738e-21)
(0.99258 0.00160119 0)
(0.985231 0.0354408 -8.34405e-21)
(1.24724 0.0508708 -6.124e-20)
(1.02774 0.00124631 -4.49312e-23)
(1.00192 0.015945 -4.461e-21)
(1.13027 0.087751 0)
(1.01989 0.00150768 -1.27649e-21)
(1.00618 0.0227633 -5.85351e-21)
(1.01045 0.0676444 0)
(1.02287 0.0105877 1.66154e-21)
(1.00001 3.32184e-05 -3.23785e-24)
(1.10038 0.27916 4.08075e-20)
(-0.014061 0.314772 0)
(0.999583 -0.000235512 5.21437e-22)
(1.01186 0.00157833 7.9346e-21)
(0.961198 0.004766 2.57492e-20)
(0.997005 0.0028831 -2.23069e-21)
(1.11866 0.13902 0)
(-0.0700409 0.0688389 1.05738e-19)
(-0.75272 -0.0196735 -3.07935e-19)
(1.1213 -0.0494692 -1.97508e-20)
(0.996219 0.00163266 0)
(1.02252 0.0111465 3.59194e-21)
(1.0071 0.0301878 8.73787e-22)
(0.983302 0.0134203 -1.01252e-20)
(0.963974 0.22924 0)
(0.40266 0.259512 3.60693e-20)
(-0.0983433 0.0222888 -1.05622e-19)
(0.0914112 0.325477 -1.03567e-19)
(1.0336 0.00295956 -2.2376e-21)
(1.003 0.00953452 -5.04019e-21)
(1.50149 0.0465191 -2.19076e-19)
(0.701371 0.316401 -5.14077e-20)
(0.920453 0.13779 1.59046e-20)
(1.1254 -0.609937 -6.46274e-20)
(0.0805392 -0.18734 8.29917e-21)
(0.994045 0.0259092 1.01291e-20)
(0.734024 0.195209 6.73309e-20)
(1.05562 0.0752175 -1.17231e-20)
(0.959052 0.00518877 -2.35317e-23)
(-0.125012 0.0183123 -1.33e-19)
(0.977195 0.00945196 1.31954e-20)
(1.05642 0.0323232 6.6896e-21)
(0.972501 0.0396445 -9.8552e-21)
(0.118423 0.251217 -7.29675e-20)
(1.13186 -0.0855575 0)
(1.01452 0.0285743 -1.05058e-20)
(-0.473904 -0.133429 1.28783e-19)
(1.03888 0.0285923 5.01508e-22)
(0.769102 0.731302 -2.32041e-21)
(0.983582 0.034964 1.81415e-20)
(1.13164 0.278301 5.21988e-20)
(1.59158 0.0564831 9.99677e-21)
(1.097 -0.0453565 -2.68779e-20)
(1.47986 -0.196322 0)
(1.04686 0.0171404 0)
(0.995122 0.00626528 -5.21862e-21)
(1.01162 0.0014732 3.96568e-21)
(1.02222 0.045651 1.47085e-21)
(0.899356 0.121274 0)
(1.01529 0.0288855 7.74498e-21)
(1.00325 0.0164274 3.97258e-21)
(0.725073 0.33926 9.13341e-20)
(0.977071 0.00840281 -1.47361e-20)
(1.01304 0.0101666 0)
(0.850778 0.762855 -2.05916e-20)
(0.999375 0.000415897 8.90144e-21)
(1 7.28536e-05 -6.04671e-21)
(0.999905 -0.00037465 0)
(1.41469 -0.174152 0)
(1.01169 0.000244379 0)
(0.958689 0.218286 4.29858e-21)
(1.04897 0.414605 1.92017e-20)
(0.962663 0.00642074 -1.22878e-20)
(1.13489 -0.0931298 0)
(0.9822 0.00450479 -6.2288e-23)
(0.999578 0.00443587 5.33929e-21)
(1.1464 0.0567401 -3.91856e-20)
(1.00661 0.0109968 5.03716e-21)
(1.03385 0.0591836 -1.01455e-21)
(0.959924 0.0118375 2.70503e-20)
(1.14756 0.385343 0)
(1.05084 -0.00329107 1.95711e-21)
(0.951296 0.0553659 2.30154e-20)
(1.05498 0.0069425 1.1919e-22)
(1.09501 -0.0527339 -1.9314e-20)
(1.001 0.0155749 4.33068e-21)
(1.14904 -0.0630912 -4.35634e-21)
(1.03604 0.000597471 6.91068e-22)
(1.0218 0.0110092 -1.52482e-21)
(0.835176 0.349427 -2.51694e-20)
(1.00268 0.00922092 5.59105e-23)
(1.03601 5.82646e-05 -1.5017e-21)
(1.02598 0.0124439 0)
(1.01288 0.0690101 -4.37912e-21)
(1.01174 0.0116349 3.86035e-21)
(1.01242 0.000419607 7.69399e-22)
(1.03756 0.0158912 0)
(1.0415 0.00140548 -3.9841e-23)
(0.996205 0.0013649 -1.33651e-20)
(0.994375 0.0271118 -1.06855e-20)
(1.00697 0.0290507 -8.30149e-21)
(1.03067 0.062307 0)
(1.00039 0.0147432 -4.55435e-21)
(0.997279 0.000743378 0)
(1.00986 0.00084517 3.09975e-23)
(0.989897 0.0416425 0)
(1.03438 0.00209958 0)
(1 6.02393e-05 -4.29725e-21)
(1.01155 0.000935758 4.32997e-21)
(0.999515 0.0198296 5.79287e-21)
(0.993148 0.0617512 0)
(1.15746 0.398222 0)
(1.12622 -0.0484589 -2.48193e-20)
(-0.576703 -0.0825183 0)
(0.913102 0.141922 2.72246e-20)
(0.935439 0.138594 -2.28846e-20)
(0.964674 0.044929 -1.77108e-20)
(1.06405 -0.0352445 -7.84921e-21)
(1.28972 -0.357548 0)
(1.03645 0.0159063 0)
(0.994495 0.00685513 1.101e-20)
(1.01228 0.000439393 -8.20999e-22)
(1.02055 0.0453818 0)
(1.01148 0.0112193 -2.69887e-21)
(1.11601 -0.118157 1.88558e-20)
(1.03717 0.00595692 2.01784e-22)
(0.996903 0.0107677 7.5717e-23)
(0.999936 -0.000321905 0)
(0.889744 0.122199 4.2888e-20)
(1.03497 0.00198665 1.02503e-21)
(1.06194 0.400417 0)
(0.928806 0.142887 0)
(1.2569 0.185401 7.15109e-20)
(1.03956 0.0297756 0)
(1.04175 0.00115572 -2.15556e-21)
(1.01073 0.0108608 0)
(1.04324 0.00745297 1.7202e-21)
(1.02821 0.00155914 -1.30104e-21)
(1.05915 0.0769909 1.21569e-20)
(0.991235 0.0160896 -4.95006e-21)
(1.05538 0.0112556 -8.77515e-22)
(-0.295281 0.177104 0)
(1.01266 0.00995268 -3.53014e-23)
(1.0232 0.013825 0)
(1.30589 -0.289959 2.50839e-20)
(1.06336 -0.030837 0)
(1.01435 0.0277209 4.01818e-21)
(0.997702 0.000662383 5.96721e-21)
(0.993749 0.0592129 0)
(1.06444 -0.628882 3.54246e-20)
(1.10446 0.00518429 9.91421e-21)
(1.2524 0.0406739 9.44755e-21)
(1.00012 0.000193951 0)
(1.01166 0.00125333 -1.02784e-20)
(1.00125 0.0160193 -4.97735e-21)
(1.02145 0.0120625 1.76039e-21)
(1.0987 -0.0499334 -4.4994e-20)
(0.994616 0.0137367 0)
(0.997829 0.00125629 -6.86552e-21)
(1.00274 0.0104921 -1.55622e-21)
(0.982272 0.00355809 7.9735e-21)
(1.04573 -0.00378381 -2.87769e-21)
(0.971751 0.0508073 1.95772e-20)
(1.11564 0.202989 0)
(1.14384 -0.485564 0)
(0.96805 0.0304095 0)
(1.00811 -0.136562 -4.0711e-20)
(1.00033 0.0138403 -1.33661e-20)
(1.04256 0.00760776 0)
(0.998918 0.000190442 -1.05857e-21)
(-0.542792 0.156654 1.50835e-19)
(1.20516 0.101398 -1.25122e-21)
(1.57744 0.102249 -1.76377e-19)
(0.081163 -0.146656 0)
(1.01148 0.00401765 0)
(1.03736 0.00561467 0)
(0.999379 0.0212321 -1.08625e-20)
(0.980703 0.0566961 -2.59641e-20)
(1.05587 0.00833632 -1.25036e-22)
(0.999975 5.32633e-05 0)
(1.05067 0.0901739 0)
(1.00755 0.00105229 0)
(1.01257 0.0002755 -3.07894e-21)
(0.993053 0.0257514 -5.47411e-21)
(1.12246 0.211968 2.83118e-20)
(0.999996 -1.89713e-05 6.59882e-21)
(1.03717 0.0284594 0)
(0.983739 0.0117771 -6.05007e-24)
(0.973723 0.0494303 -1.60447e-20)
(0.130267 -0.281002 0)
(1.00008 0.0142919 9.43727e-21)
(0.999501 -1.71977e-05 -5.04553e-21)
(1.00146 0.00114704 -5.26142e-21)
(1.02457 0.0113623 0)
(1.07716 0.115023 1.60285e-20)
(1.09554 -0.047021 2.22395e-20)
(0.943879 0.142276 2.64203e-20)
(1.06815 -0.142649 0)
(1.04709 -0.00399263 0)
(1.05388 0.032223 0)
(0.982987 0.0123047 6.37438e-24)
(1.01224 0.000646844 0)
(1.02615 0.0230609 0)
(1 6.54167e-05 -5.78251e-21)
(1.08643 -0.110169 5.69259e-20)
(0.991442 0.0165286 -4.96508e-21)
(1.01582 0.0327479 2.15278e-21)
(0.966797 -0.0517577 1.1121e-20)
(1.00274 0.0167191 -4.3372e-21)
(0.984423 0.0626981 -1.39715e-20)
(0.974642 0.0386021 9.41956e-21)
(0.964294 -0.0646134 -1.23993e-20)
(1.02726 0.00671238 8.34858e-22)
(0.952728 0.05302 -2.46084e-20)
(1.04787 0.163053 0)
(1.04641 0.0903826 0)
(1.02419 0.0429009 0)
(0.994473 0.0054314 5.36297e-21)
(1.04803 -0.148839 -2.35437e-20)
(1.13543 0.0843022 1.2379e-20)
(1.03172 0.00983107 -3.33277e-22)
(1.07677 0.108664 5.1525e-21)
(1.00015 0.00582868 -1.21472e-23)
(1.00268 0.00882799 6.12955e-21)
(1.0003 0.00581557 -5.9655e-21)
(0.981823 0.0630125 -1.52297e-20)
(1.48883 0.136746 1.45554e-19)
(1.03935 0.00239474 -7.65911e-22)
(0.999985 7.73018e-05 6.43809e-21)
(0.969924 0.0306186 0)
(1 2.43933e-05 0)
(0.999983 -7.97792e-05 0)
(0.715524 0.281968 -5.90004e-20)
(0.994997 0.00588932 -1.30559e-21)
(1.01714 0.00697841 -3.67617e-21)
(-0.0822768 0.229366 1.73217e-19)
(1.00396 0.00624087 -4.99553e-21)
(1.19974 -0.0118497 -3.49581e-21)
(1.07741 -0.100587 0)
(0.877463 0.0598936 -8.57271e-20)
(0.925041 -0.699849 2.56307e-20)
(-0.55965 -0.0801991 0)
(1.00716 0.0847078 -2.12734e-22)
(0.81261 0.345888 0)
(0.999355 0.000195842 -4.3424e-21)
(1.02591 -0.00531618 -6.9154e-22)
(0.999999 -2.35305e-05 5.73182e-21)
(0.979657 0.0238507 8.85227e-21)
(0.878913 -0.171465 8.1291e-21)
(0.999864 0.00246958 8.07437e-21)
(0.978726 0.0584005 1.42043e-20)
(0.625743 0.93298 4.24806e-20)
(1.01088 0.000372561 2.00612e-21)
(1.00239 0.00428579 -3.84918e-21)
(0.79377 0.100796 -4.86638e-20)
(0.804459 0.660211 0)
(1.01598 0.03072 0)
(1.01944 0.00195511 2.54919e-21)
(-0.102904 0.0137409 2.54121e-19)
(1.21168 0.112621 3.43841e-20)
(1.00302 0.00992621 7.03269e-22)
(0.744231 0.160963 -1.63558e-20)
(-0.274768 -0.0648228 0)
(1.00695 0.0112074 0)
(0.999994 5.1034e-05 6.37781e-21)
(1.01441 0.00790228 -4.59056e-21)
(0.998163 0.0125484 -5.13205e-21)
(1.01255 0.000342381 3.43108e-21)
(1.01264 0.00937971 5.10438e-21)
(1.02859 -0.131305 3.84742e-20)
(1.13876 -0.0112367 0)
(0.979069 0.0250324 -9.17959e-21)
(1.23775 -0.459573 0)
(1.01197 0.000613135 3.66649e-21)
(0.994739 0.0130955 0)
(1.38883 0.239007 3.45347e-20)
(1.02875 0.00964746 3.0954e-22)
(1.17143 0.000641699 3.8122e-21)
(1.10778 0.0022482 -2.46599e-20)
(0.973229 0.0352372 1.28019e-20)
(1.01788 0.0052625 0)
(1.01901 0.00202141 -6.46049e-21)
(1.07387 0.321363 0)
(1.03424 0.00279946 1.60712e-21)
(1.00344 0.086402 9.18777e-21)
(0.994703 0.0372828 0)
(-0.672107 -0.020069 1.08319e-19)
(0.964575 0.00583412 1.15614e-20)
(1.59887 0.110319 2.33438e-19)
(0.967883 0.041896 1.34664e-20)
(1.00134 0.00511764 -3.59862e-21)
(1.00038 0.0156215 1.04969e-22)
(1.23736 0.378184 6.79762e-20)
(1.00103 0.00486496 0)
(0.923674 0.0164265 0)
(0.996732 0.0162881 7.41482e-21)
(1.02671 0.00679886 -1.49796e-21)
(-0.0978985 0.0583682 -1.15691e-19)
(1.04772 0.0196834 1.72736e-21)
(0.992491 0.0028697 7.71059e-21)
(1.00775 0.000643445 1.20936e-22)
(-0.109305 0.0520417 -8.08228e-22)
(0.997676 0.0117854 0)
(1.04899 0.0203075 2.61656e-21)
(1.01735 0.0468861 5.66697e-21)
(1.01099 0.0112511 -2.74638e-21)
(1.27099 -0.400641 0)
(0.994241 -0.712878 0)
(1.00285 0.00524465 5.30005e-21)
(0.973923 0.0100246 0)
(1.03978 0.00266356 3.70565e-22)
(1.01148 0.00110515 -1.69125e-21)
(0.999167 0.00390014 1.50628e-21)
(0.994558 -0.000901048 0)
(-0.159205 0.116647 0)
(0.995705 -0.00119654 -7.64696e-21)
(1.01198 0.000318657 1.90541e-21)
(0.976766 0.0919155 -7.35026e-22)
(1.15577 -0.0341226 -2.25996e-20)
(1.13378 0.0506323 -1.83005e-20)
(1 6.78384e-05 1.17007e-20)
(1.05596 0.0705886 -7.46735e-22)
(-0.0932002 -0.0750308 2.08615e-20)
(1.04493 -0.00521837 1.69951e-21)
(0.991832 -0.000289069 -6.09485e-21)
(0.99477 0.00500407 2.09626e-20)
(1.11002 -0.0643228 0)
(1.03101 0.00974711 4.29135e-23)
(1.00132 0.00484406 -1.17749e-21)
(0.911933 0.0629395 0)
(1.02222 0.0123394 -4.72216e-21)
(1.01233 0.0092444 -5.48073e-21)
(0.958119 0.0131484 0)
(1.01319 0.0038087 6.93283e-21)
(0.966505 0.149212 0)
(0.993983 0.00766474 7.25281e-21)
(1.0009 0.00487801 0)
(-0.886113 0.0126447 1.03622e-19)
(1.0062 0.00435482 -9.19351e-22)
(1.03297 0.00253585 2.28368e-21)
(1 0.00244035 0)
(0.995587 0.0359344 0)
(1.05247 0.0847343 1.10153e-20)
(1.0027 0.00502974 0)
(1.02391 0.0113977 0)
(1.5485 0.152673 -1.08889e-19)
(0.998083 0.0404657 6.66189e-22)
(1.07071 0.141033 2.76287e-20)
(1.0359 0.0170008 0)
(1 3.893e-05 -5.31138e-21)
(1 3.67596e-05 0)
(1.22571 0.154111 -3.11986e-21)
(0.990689 0.0135383 0)
(0.992518 0.00255728 -3.14296e-21)
(1.00118 0.00124698 0)
(1.03246 0.00885925 0)
(0.955926 0.0793253 0)
(1.26554 0.0485432 4.81486e-20)
(0.99729 0.0116005 0)
(0.959595 0.146354 0)
(0.670473 0.74947 1.5241e-20)
(1.04369 -0.00479375 2.1159e-21)
(0.999996 6.88686e-05 0)
(0.99413 0.00129817 9.16158e-21)
(1.02939 0.00494357 -1.25034e-21)
(0.999913 0.000434053 0)
(0.999441 0.0128876 5.29461e-21)
(0.243222 -0.139053 -1.12285e-20)
(-0.205475 0.187661 1.35755e-19)
(0.999873 0.00231928 0)
(1.05698 0.0289045 1.11392e-20)
(1.04429 0.00183378 0)
(1.04399 0.00207668 -1.57947e-21)
(0.978444 0.00425633 0)
(1.00892 0.00100536 5.8313e-21)
(1.13896 -0.0533268 0)
(1.08456 0.311828 -2.66824e-20)
(0.705637 0.726234 4.51898e-21)
(1.01739 0.00529046 2.83635e-21)
(1.02998 0.0053268 1.10441e-21)
(1.02808 0.00984897 0)
(1.00382 0.00642798 2.59063e-21)
(0.31224 -0.29728 1.46627e-19)
(1.06707 0.075941 0)
(1.03234 0.00952936 3.17463e-22)
(1.01483 0.0204245 3.26019e-21)
(1.00628 0.000463192 -6.94516e-21)
(0.980343 0.00310232 8.07543e-23)
(1.1414 -0.0428051 2.03298e-20)
(1.04794 0.0180778 -2.23315e-21)
(0.999122 3.34905e-05 -9.52422e-21)
(-0.145833 0.0964774 -6.62532e-20)
(0.785762 0.621131 1.05668e-21)
(1.01971 0.449981 0)
(1.06635 0.17155 0)
(0.999208 0.00356259 -1.49942e-21)
(1.01791 0.0167227 2.84811e-21)
(1.01611 0.00873223 2.01391e-22)
(1.12066 0.0784654 3.40119e-20)
(0.592914 -0.312531 0)
(0.552706 0.289729 0)
(0.951858 0.0468198 -8.56882e-22)
(0.920289 0.0142347 8.73528e-21)
(0.999966 0.000401207 0)
(1.03668 0.027008 0)
(0.974708 0.0104676 0)
(0.999959 0.000507474 0)
(-0.761296 -0.0193919 0)
(1.01011 0.000904487 0)
(1.00008 0.013403 -1.33638e-20)
(1.05057 -0.0269807 0)
(0.999918 0.000299284 0)
(1.07386 -0.181659 0)
(1.03483 0.016826 4.68191e-22)
(1.09379 -0.0678141 1.50393e-21)
(1.01944 0.089286 -1.20827e-22)
(0.999895 -0.000440286 -8.09375e-21)
(1.03707 0.00808523 -1.72499e-22)
(1.05023 0.0343119 -6.48675e-21)
(1.03852 0.00866369 -2.80054e-21)
(1.06992 0.165847 5.20192e-21)
(0.96322 0.279463 4.55127e-21)
(0.999998 -6.01739e-05 2.21603e-24)
(1.02548 0.000820241 8.5958e-21)
(1.0227 0.0386538 -9.18691e-23)
(1.0096 0.0226901 0)
(1.00023 0.00153722 -1.41592e-20)
(1.02625 0.0239819 2.08653e-22)
(0.997058 -0.0014776 0)
(0.950437 0.0495664 2.50069e-20)
(1.1316 0.0463133 9.34769e-21)
(0.855626 0.112957 0)
(0.999129 -0.000182593 -9.33133e-21)
(0.997261 0.0418518 3.56218e-21)
(1.00123 0.00116408 5.98027e-21)
(0.99204 0.00566056 4.13502e-23)
(0.798673 0.327043 -3.49933e-20)
(1.00209 0.0034168 3.71755e-21)
(1.01411 0.0479994 0)
(1.09726 -0.108161 0)
(1.0129 0.00370283 -1.08295e-20)
(1.12261 0.0851455 -2.58779e-20)
(0.987953 0.011419 1.19177e-20)
(0.997527 0.000539012 -7.06153e-21)
(0.0809529 0.211221 -2.57448e-21)
(1.06815 -0.00415474 0)
(0.999881 0.000232284 0)
(1.16206 -0.100453 3.00157e-20)
(1.0272 0.0120501 0)
(1 6.79695e-05 6.17441e-21)
(0.983128 0.0080019 0)
(0.995252 0.000769258 -1.22088e-21)
(0.999999 6.82313e-06 -6.41882e-21)
(1.03829 0.033356 1.91295e-22)
(0.979494 0.00273482 -3.79777e-21)
(0.832427 0.57421 -1.0842e-21)
(0.986163 0.0409868 -9.18234e-21)
(0.994445 0.00152995 -2.0243e-20)
(1.01799 0.0295328 -9.52191e-22)
(1.05647 0.0844284 -2.91863e-21)
(1.06445 0.0113101 0)
(0.994999 -0.000372103 -1.17532e-21)
(1.04051 0.0066337 -1.29056e-22)
(1.01737 0.0168678 -3.39925e-21)
(1.04936 -0.00107757 0)
(0.984798 0.00362118 0)
(1.01642 0.0925072 2.37549e-21)
(1.01762 0.00713506 2.83378e-21)
(0.954427 0.00629445 -1.92244e-20)
(1.01846 0.00241186 -6.26242e-22)
(1.00056 0.0061881 0)
(1.01199 -0.329274 0)
(1.01406 0.00811988 9.86738e-22)
(0.802443 0.30895 2.7215e-20)
(0.994374 -0.000525111 -1.21394e-21)
(1.03481 0.0081077 8.81408e-25)
(1.00665 0.00416099 -6.68764e-21)
(1.05855 0.00379535 -1.09253e-21)
(0.999987 0.0023089 -8.57965e-21)
(1.0707 -0.00492889 0)
(1.01515 0.0269277 4.57644e-22)
(1.16645 -0.0884958 -1.03206e-21)
(0.999965 -0.000147721 0)
(1.32555 -0.163309 4.99721e-20)
(1.01994 0.00123966 1.64414e-21)
(0.973014 0.0469723 0)
(0.999975 -0.000272121 0)
(0.981295 0.00495024 -5.83799e-21)
(1.00002 0.0054614 -8.08748e-24)
(1.03734 0.03411 1.25125e-21)
(0.997068 -0.00103995 7.64423e-21)
(0.663225 0.221849 6.06696e-20)
(0.796559 0.54255 -1.70416e-20)
(1.05259 -0.190637 0)
(1.04097 0.0142019 1.08539e-21)
(0.948871 0.136622 -2.15484e-20)
(1.00431 0.0166946 -3.9463e-21)
(0.985565 0.149492 6.47353e-21)
(1.05664 -0.0300318 5.3478e-21)
(1.00081 0.00289439 8.10866e-21)
(0.918001 0.0636888 2.36034e-20)
(0.957689 0.294174 -2.91347e-21)
(0.656038 -0.292931 0)
(0.989525 0.0177556 -4.99662e-21)
(1.45141 0.341259 1.37972e-19)
(1.05263 0.0344687 -6.44611e-22)
(0.996987 0.0308165 1.36491e-21)
(0.999963 0.00011709 0)
(1.04187 0.0072265 0)
(1.03901 0.031073 0)
(1.03937 0.00620548 1.15961e-21)
(1.01124 0.00380161 5.26743e-21)
(1.02675 0.0406665 0)
(1.12953 -0.0428002 3.68682e-20)
(1.00001 2.90356e-05 1.18255e-20)
(0.992005 0.00512215 -8.11108e-21)
(1.04109 0.00619043 1.14191e-21)
(0.863819 -0.325503 5.46452e-21)
(0.974944 0.0456967 0)
(1.05281 0.0684261 1.04908e-21)
(1.01636 0.014465 -8.93865e-22)
(0.99993 -0.000395811 8.69465e-21)
(1.2985 0.0195559 -5.66012e-20)
(1.0111 0.00447928 -7.27611e-22)
(1.00342 0.0105908 7.44648e-22)
(1.00194 0.0382064 -3.66374e-22)
(1.02228 0.0129071 3.34082e-21)
(-0.511457 0.175208 -1.72544e-19)
(1.04924 -0.0387972 -5.53606e-21)
(0.827624 -0.332196 -7.1694e-22)
(1.00083 0.000409285 7.87749e-22)
(1.30212 0.445205 0)
(0.10078 0.0555332 -1.94877e-20)
(1.08221 -0.0897354 0)
(1.03963 0.00499855 0)
(1.06155 -0.0375157 0)
(1.14094 -0.0604985 0)
(1.01427 0.151707 -1.52091e-21)
(0.983472 0.0108418 1.28509e-20)
(0.996353 0.0167019 -7.83169e-21)
(0.908999 0.0679635 2.85038e-20)
(-0.779936 0.132213 0)
(1.00537 0.0168857 0)
(0.974844 0.0959517 -7.38579e-22)
(0.935866 0.0288675 0)
(0.993775 0.00875788 4.02614e-23)
(1.00106 0.00697998 -7.59384e-21)
(1.00922 0.0232659 0)
(0.989227 0.0451486 -8.6523e-21)
(0.999908 0.005518 0)
(1.02814 0.00606534 0)
(1.21439 0.164721 0)
(1.47666 -0.23611 -4.92721e-20)
(1.02757 0.00607787 0)
(0.999669 0.00419094 0)
(-0.553814 0.122295 0)
(1.07808 0.27619 4.13957e-20)
(1.00385 0.0169556 -8.34049e-23)
(0.992348 -0.000442333 -1.74733e-20)
(1.00017 0.000317728 0)
(0.997756 0.0123935 5.30398e-21)
(1.39588 0.265048 -5.39459e-20)
(1.04458 -0.0387212 -1.38881e-22)
(1.02805 0.409882 6.06516e-21)
(0.987564 0.0395215 0)
(1.00102 0.00733426 6.25655e-21)
(1.0229 0.00940588 1.58752e-21)
(0.957607 0.00333628 1.63378e-20)
(0.998061 0.000850135 -6.87409e-21)
(1.05448 0.00136371 -1.508e-20)
(0.971409 0.0284978 3.25302e-21)
(1.12521 -0.518349 5.07353e-20)
(0.998913 0.00378636 -1.87548e-22)
(1.00045 0.00188832 0)
(1.05239 0.133926 -9.18998e-21)
(1.00525 0.0161888 0)
(1.04064 0.000478065 6.884e-22)
(0.892975 0.242351 0)
(1.03626 0.00829556 6.03059e-23)
(0.858534 0.653933 2.06163e-20)
(0.77716 -0.303173 0)
(0.995781 0.0308075 7.14872e-21)
(0.999622 0.0133817 4.22824e-21)
(0.978904 -0.103679 3.84193e-20)
(-0.902582 0.0649039 1.35818e-19)
(0.994434 0.132563 8.32447e-24)
(1.02666 0.0118932 -1.80481e-21)
(1.09637 -0.0195101 0)
(0.768345 0.373379 5.48517e-20)
(0.927302 0.0228609 -3.71744e-20)
(0.984232 0.0102891 -1.16946e-20)
(1.00137 0.000982784 0)
(1.00217 0.00369321 0)
(1.08054 0.405744 -2.83672e-20)
(1.04044 0.0146959 -1.09335e-21)
(0.790327 0.268808 -3.0065e-20)
(0.999998 6.85512e-05 7.56485e-22)
(0.162436 -0.321727 0)
(1.46966 0.106204 -4.64235e-20)
(0.994234 0.000914929 0)
(0.997455 0.0037347 0)
(0.677161 0.209077 -1.1588e-19)
(0.999301 0.000582546 -1.55727e-20)
(1.0069 0.00421866 4.31404e-21)
(0.999838 0.0676059 0)
(0.0575997 -0.0583177 -5.83955e-19)
(0.719174 -0.170143 0)
(1.03626 -0.313132 0)
(1.03231 0.00284825 -1.34415e-21)
(1.07421 -0.0245686 3.94783e-20)
(1.01369 0.143844 0)
(1.00976 0.00367125 -3.49409e-23)
(1.00581 0.000269447 6.25064e-21)
(0.999622 -0.000430293 1.30333e-22)
(1.09331 0.391947 5.58947e-20)
(0.999993 0.000402554 -6.31679e-21)
(0.994372 0.00192953 1.04381e-20)
(1.07121 -0.0253261 -1.24385e-20)
(0.979301 0.00588936 3.68681e-21)
(1.14286 0.0636392 6.21447e-20)
(1.00039 0.000504342 -8.90347e-21)
(0.998746 0.000282457 5.63658e-21)
(1.00781 0.000874605 -1.6663e-22)
(0.999243 -0.00023571 0)
(1.1079 -0.0592873 -1.21639e-21)
(0.999989 0.000496446 7.07176e-21)
(0.999121 0.0190173 6.50729e-21)
(1.07601 0.00400731 1.15828e-20)
(0.944961 0.217244 0)
(0.829896 0.486877 -9.38908e-21)
(0.9999 0.000272425 3.37031e-21)
(1.15987 0.00716686 0)
(0.974121 0.285139 -4.13054e-20)
(1.10123 0.144985 -1.72667e-20)
(0.971076 0.0358876 0)
(-0.325986 0.163863 1.27349e-19)
(-0.0772055 0.0158919 2.20656e-19)
(0.994046 0.00839328 4.66797e-23)
(1.0117 0.00191205 0)
(0.983955 0.0385602 4.70679e-21)
(0.955058 0.023667 4.19756e-20)
(0.611817 0.0490902 -1.00708e-20)
(1.0191 0.0472775 0)
(1.00023 0.00143894 7.2295e-21)
(0.999981 0.000404793 0)
(1.07248 0.313147 -1.28767e-19)
(0.986648 0.14209 0)
(1.03172 0.00246902 1.66508e-22)
(1.00016 0.00118957 -7.50125e-21)
(0.991951 0.000552272 -1.35905e-20)
(1.08339 0.105096 8.99815e-21)
(1.00648 0.00442006 4.88559e-21)
(1.0046 0.000425237 0)
(1.04926 0.000193981 0)
(0.988544 0.0432935 0)
(0.9997 -0.000618126 -8.08465e-21)
(1.01922 0.0137714 -2.02645e-21)
(0.731654 0.606878 0)
(1.02265 0.0142609 1.87808e-21)
(0.992487 0.0434526 4.925e-22)
(0.996928 -0.00163929 0)
(0.997964 0.0372694 1.0975e-20)
(1.25006 0.0773384 -1.02779e-19)
(0.999897 0.000395298 0)
(0.978864 0.0428396 4.54231e-22)
(0.998029 -0.000692743 7.63517e-22)
(1.04561 0.0176933 -8.88816e-22)
(0.654351 0.530645 0)
(1 2.6973e-05 1.67515e-23)
(0.842386 0.466358 -3.54874e-21)
(1.03473 0.056878 -6.75667e-22)
(0.664687 -0.0384382 -1.70385e-21)
(1.011 0.000410887 -2.34394e-21)
(1.0238 0.0444694 -1.03456e-21)
(1.04809 0.00059698 4.68778e-22)
(1.16322 0.0111659 -3.89603e-20)
(0.794934 0.113871 2.51498e-20)
(0.971383 0.0272182 -1.04371e-20)
(1.42293 0.322184 -2.74841e-19)
(1.29221 -0.186579 0)
(0.967204 0.0159775 -2.23996e-20)
(1.00767 0.000488298 4.26646e-21)
(1.07738 -0.0798465 -2.7954e-20)
(0.998143 -0.00113987 -6.13116e-21)
(0.999982 5.64306e-05 -6.437e-21)
(1.0093 0.0107424 -5.3691e-21)
(0.999978 7.54413e-05 8.20041e-22)
(1.10216 0.0136792 -3.73908e-20)
(1 4.91562e-06 -3.03967e-21)
(1 6.79847e-07 -6.5511e-21)
(0.880171 0.239084 1.82883e-20)
(1.01826 0.085073 -1.48573e-21)
(1.00943 7.56815e-05 -2.0807e-21)
(0.931783 0.0977305 2.45374e-20)
(0.960138 0.00965472 -1.21875e-20)
(1.18807 -0.451906 0)
(1.03724 0.0136556 -1.45233e-21)
(0.820005 0.54664 0)
(0.998281 0.0131154 -5.33594e-21)
(1.0542 -0.0268037 -1.07686e-20)
(0.993518 0.139887 1.12107e-22)
(0.938399 0.0844999 0)
(1.04207 0.0210096 0)
(0.147024 -0.244174 -2.9816e-19)
(0.999997 6.42942e-05 0)
(1.04083 0.00202561 -7.2832e-22)
(1.00084 0.00152379 -3.19221e-21)
(0.997566 0.0296242 0)
(0.989991 0.0135289 -9.3441e-21)
(1.0893 -0.0681037 0)
(0.871955 0.122126 1.3727e-20)
(1.02826 0.00673939 -5.31871e-21)
(-0.810677 0.000749348 2.67179e-19)
(1.00018 0.00160497 0)
(0.994792 0.89254 0)
(1.04102 0.00143121 -8.62525e-22)
(1.01532 0.0161152 -7.53265e-21)
(0.883744 0.0495397 8.28922e-21)
(1.06198 0.0232518 0)
(0.772331 -0.253496 0)
(0.997218 0.00381485 2.02868e-21)
(0.95208 0.0793065 0)
(0.941462 0.204811 -1.36081e-20)
(1.01595 0.0484856 -3.07549e-21)
(0.84611 0.115271 0)
(1 4.34876e-05 1.84798e-22)
(1.01098 0.00218779 3.02897e-21)
(1 4.14101e-05 0)
(0.979102 0.441348 2.45858e-20)
(0.999233 0.000953586 0)
(1.00069 0.00317394 0)
(1.00858 0.0101912 5.11786e-21)
(1.00711 0.000802555 -9.23626e-21)
(1.00042 0.00616353 6.46608e-21)
(0.999462 0.00435826 -7.02599e-21)
(1.01861 0.0306792 0)
(1.00136 0.0114104 -4.32619e-21)
(0.999305 0.00038412 9.87527e-21)
(0.965078 0.00389442 -9.10908e-23)
(1.0022 0.0695006 4.20599e-21)
(0.937442 0.0958475 0)
(0.995528 -0.000856505 8.03223e-21)
(0.713333 -0.014653 0)
(1.00031 0.0264669 0)
(1.3033 0.436217 -9.49833e-20)
(0.905955 0.126912 -1.58725e-20)
(0.443126 -0.332687 0)
(1.07957 0.0493155 1.28138e-20)
(1.0404 0.00203974 0)
(-0.0944579 0.0214114 0)
(1.06658 0.0116794 -8.2109e-21)
(1.01257 0.430786 0)
(1.05871 0.0788028 -1.07926e-20)
(1.08286 0.099194 1.54776e-20)
(0.999974 0.000503587 -2.18628e-22)
(1.00269 0.0100618 -1.41443e-21)
(1.00225 0.0461474 -7.97232e-21)
(1.25661 0.0658041 7.34995e-20)
(1.0084 0.0232953 0)
(0.105124 0.205864 0)
(1.00186 0.0211202 -7.44385e-21)
(1.02901 0.692877 -1.27966e-19)
(1.32325 -0.237151 0)
(1.02165 0.0160903 6.38882e-21)
(1.03427 0.0177989 5.25965e-22)
(0.0345849 0.23004 8.57042e-20)
(0.210125 -0.303974 1.72638e-21)
(0.951978 0.0066902 4.29554e-21)
(0.995098 0.000221069 -9.69621e-21)
(0.999948 -0.000361409 1.02899e-21)
(1.04052 0.00736809 1.32817e-21)
(1.01114 0.00207847 -4.38573e-21)
(1.00872 0.000804793 2.79411e-21)
(1.10929 0.145241 0)
(0.850224 -0.159814 0)
(0.998145 -0.000787173 0)
(1.00774 0.0228745 -4.69582e-21)
(0.966889 0.00350884 1.12149e-20)
(1.25129 0.371969 -6.70823e-20)
(1.01129 0.00534291 1.57186e-20)
(0.999489 0.000901859 4.31581e-21)
(1.0329 0.0543408 8.77735e-22)
(1.13065 -0.0200458 3.65712e-20)
(0.995486 0.0387597 0)
(0.999582 0.00326666 4.03993e-21)
(-0.0402662 0.228317 0)
(0.987095 0.031486 0)
(0.994928 0.0140962 0)
(0.880707 0.916092 0)
(0.996351 0.0583959 -8.86874e-21)
(0.983208 0.00317409 2.65057e-21)
(-0.115852 0.0727573 0)
(1.0525 -0.708158 -1.26287e-19)
(0.184911 0.208966 -7.94031e-20)
(0.992162 0.00682864 7.61369e-21)
(0.979188 0.0451938 0)
(1.10841 -0.109164 -2.11927e-20)
(1.00884 0.0106472 -5.37222e-21)
(1.01455 0.021227 3.81905e-21)
(0.999996 -6.2102e-06 0)
(1.04207 0.00220325 2.79105e-22)
(0.998016 0.00136222 1.2405e-20)
(1.00043 0.000474091 8.06645e-21)
(1.03681 -0.000248041 2.4153e-21)
(0.805428 0.0928407 -4.47631e-20)
(0.906013 0.398825 -3.74439e-21)
(1.00589 0.0110903 -1.36394e-21)
(0.985377 0.00756412 9.48585e-21)
(0.998152 -0.00150628 -5.62007e-21)
(1.01421 0.0198661 -3.80345e-21)
(0.985436 0.0372285 0)
(1.01037 0.00243419 0)
(1.141 -0.0512915 0)
(1.00297 0.0908875 -1.31833e-20)
(0.992732 0.0219659 -9.6071e-21)
(0.996244 0.00277965 0)
(1.00682 0.010354 4.67112e-21)
(1.00128 0.00333168 8.24428e-21)
(1.02375 0.0289141 -1.40301e-21)
(0.138058 -0.0364437 5.40675e-19)
(1.05301 0.00957993 5.93928e-21)
(1.01947 0.00159242 -1.37629e-21)
(0.99457 0.00585744 0)
(0.862179 0.122969 0)
(0.891 0.092225 -3.45986e-21)
(0.997325 -0.00114239 0)
(1.00124 0.0031005 -9.27294e-21)
(0.996927 -0.00119581 -7.99239e-21)