/*--------------------------------*- C++ -*----------------------------------*\
| =========                 |                                                 |
| \\      /  F ield         | OpenFOAM: The Open Source CFD Toolbox           |
|  \\    /   O peration     | Version:  v2012                                 |
|   \\  /    A nd           | Website:  www.openfoam.com                      |
|    \\/     M anipulation  |                                                 |
\*---------------------------------------------------------------------------*/
FoamFile
{
    version     2.0;
    format      ascii;
    class       volScalarField;
    location    "850";
    object      k;
}
// * * * * * * * * * * * * * * * * * * * * * * * * * * * * * * * * * * * * * //

dimensions      [0 2 -2 0 0 0 0];


internalField   nonuniform List<scalar> 
10042
(
0.000334355
0.0153851
0.000327885
0.000141641
0.000141803
0.00546498
0.000345801
0.006173
0.000134391
0.000193428
0.00205851
0.0155299
0.000167365
0.000140408
0.000145839
0.00014034
0.00818194
0.00138558
0.000152934
0.000157454
0.000167262
0.000262539
0.000141527
0.00536469
0.000140888
0.000150522
0.000190467
0.000133774
0.00587805
0.00655094
0.000155225
0.000168632
0.000134169
0.00013412
0.00584134
0.00557476
0.000149396
0.000135382
0.000148555
0.000139045
0.00576883
0.000134285
0.00162523
0.00877217
0.000141225
0.000140887
0.000132485
0.000145553
0.000199574
0.0770684
0.00336847
0.000140605
0.00747458
0.000152483
0.0140868
0.000859088
0.000166261
0.000190655
0.000146146
0.000130449
0.000199628
0.00105595
0.00018146
0.0074509
0.000267926
0.000144349
0.000155289
0.000709424
0.000132302
0.000601826
0.0275939
0.000149355
0.000136875
0.000145895
0.000143872
0.0171176
0.000265076
0.000132457
0.000282111
0.000152971
0.00631768
0.0054094
0.000166278
0.000139967
0.000175443
0.000239151
0.000153875
0.000268396
0.0001406
0.000225487
0.000159976
0.000145951
0.00018771
0.000244786
0.00019934
0.000143292
0.0598766
0.000155848
0.00376339
0.000145685
0.000159538
0.000220851
0.00014635
0.000165132
0.000155199
0.00014516
0.0498191
0.000143372
0.000317827
0.000145487
0.00014544
0.000281493
0.000215786
0.00671094
0.000253715
0.000132252
0.000195971
0.000153515
0.000213856
0.000132111
0.000130429
0.0210297
0.0219404
0.000141321
0.000238126
0.000141171
0.000141403
0.0116529
5.89501e-05
0.000194241
0.000135239
0.000142336
0.000142633
0.000142698
0.000278219
0.0122938
0.000155184
0.0467017
0.000150348
0.00500704
0.000196399
0.000137609
0.0499167
0.00013382
0.000158588
0.000135403
0.000173078
0.000132201
0.000147515
0.00683504
0.000142807
0.000143486
0.000151278
0.000171055
0.000215519
0.000159078
0.000122085
0.00119489
0.000142687
0.000153341
0.000151694
0.000144315
0.00724835
0.000140859
0.000149227
0.00514828
0.000136783
0.00016623
0.00549313
0.000133892
0.000220305
0.00728898
0.0253157
0.000133991
0.000152468
0.0244168
0.0001412
0.000135302
0.000141878
0.000132306
0.00015009
0.000155674
0.000145934
0.000131995
0.00525178
0.000159623
0.000149724
0.000130915
0.100795
0.000145001
0.0134225
0.000166251
0.000135391
0.000155182
0.0134025
0.00014588
0.0839016
0.000737879
0.0804871
0.000140107
0.00599846
0.000198798
0.000259732
0.000136348
0.00463736
0.000142237
0.00769988
0.000170975
0.000145158
0.000142941
0.000167634
0.000135302
0.000597247
0.000273982
0.000150379
0.000495899
0.000135914
0.00841036
0.000143634
0.00412076
0.126353
0.000236466
0.124087
0.000494355
0.000141616
0.000195251
0.000146148
0.000154102
0.000180208
0.000146606
0.000135322
0.000141774
0.000159765
0.00015955
0.000141166
0.00584788
0.000152662
0.0604685
0.00015709
0.0052554
0.0018444
0.00869744
0.000130356
0.000149844
0.0220205
0.000142483
0.00810542
0.000156413
0.000151525
0.000145867
0.000154474
0.000135489
0.00532649
0.0170985
0.000147041
0.000151849
0.000148221
0.000147017
0.061048
0.000141599
0.000241781
0.000135829
0.000140492
0.000132582
0.000168058
0.0198974
0.000230101
0.00582994
0.000160696
0.000141854
0.000143413
0.0538592
0.000139597
0.0655253
0.000146656
0.000182789
0.000149054
0.000140996
0.000161388
0.015539
0.000133756
0.00887309
0.0690717
0.000148781
0.000160105
0.0710978
0.0001326
0.000132863
0.000323389
0.000146579
0.000165219
0.000182852
0.000162749
0.0101691
0.000258206
0.000140023
0.0161262
0.000153924
0.000143497
0.000136418
0.000151019
0.000169342
0.000130944
0.0028284
0.000150856
0.00183466
0.000140375
0.000157945
0.0148874
0.00982913
0.000154318
0.000142074
0.000143158
0.000140031
0.000183232
0.000283287
0.000132614
0.00460636
0.00521855
0.000132174
0.000152991
0.0769564
0.000188526
0.0038461
0.00507496
0.000153161
0.000174155
0.000141685
0.000152881
0.000164149
0.000142224
0.000143771
0.000325164
0.000145359
0.00657768
0.000310904
0.0541008
0.00297589
0.000135639
0.00401309
0.000195806
0.00016866
0.000130384
0.000174574
0.000155968
0.000135217
0.000138882
0.000143063
0.000158481
0.0724783
0.000147454
0.000243162
0.00015726
0.000137167
0.00288013
0.000173057
0.000146291
0.000165526
0.0926698
0.000157167
0.000144848
0.000150385
0.000149195
0.00574095
0.00363001
0.000149527
0.000140971
0.00015198
0.000153062
0.0041466
0.000130578
0.00016808
0.000139939
0.000150236
0.000227174
0.000141494
0.000199132
0.000416148
0.0209298
0.000222422
0.000144088
0.000515778
0.000180096
0.000141417
0.00017535
0.000132193
0.000144808
0.000132032
0.000142887
0.000132855
0.000146583
0.00950855
0.000147432
0.00019608
0.00352472
0.0122986
0.000142097
0.00599921
0.00015013
0.000169103
0.000140715
0.104055
0.000143268
0.00864973
0.0519849
0.000137337
0.000193192
0.000140741
0.000797624
0.000146292
0.0116459
0.000160396
0.0093074
0.00014714
0.00794217
0.000148937
0.000162165
0.00560653
0.000132905
0.000147798
0.000143191
0.00365517
0.00013526
0.000131891
0.000198737
0.000153725
0.000180843
0.0112363
0.000141452
0.000168678
0.000153748
0.000132452
0.000160651
0.00544508
0.000139565
0.000148841
0.00660365
0.000186372
0.000153124
0.00124583
0.000133978
0.000178572
0.000173104
0.101839
0.0283014
0.00798559
0.00778765
0.00234437
0.00693482
0.000131797
0.000179523
0.0164147
0.0168954
0.000174696
0.000141516
0.000139128
0.000254457
0.00502947
0.000132018
0.000133581
0.0001575
0.0001419
0.000141412
0.000142308
0.000142576
0.000162914
0.000365962
0.000148727
0.000178712
0.000240636
0.00136691
0.000134494
0.0798737
0.00842893
0.00447797
0.00014382
0.000156122
0.000151913
0.0106267
0.000143499
0.000593089
0.000147121
0.00327937
0.000139053
0.000154438
0.000133535
0.00018132
0.0135271
0.000150881
0.000139479
0.000142384
0.010659
0.00013574
0.000193361
0.000237662
0.000192813
0.000136357
0.000181766
0.0109688
0.000883007
0.000144577
0.000156266
0.00895978
0.0118152
0.000177677
0.0040941
0.000146311
0.00214866
0.000168529
0.000163771
0.000154398
0.0086703
0.000136176
0.000141401
0.000146009
0.0109843
0.000141389
0.000611557
0.000141898
0.000144251
0.000134731
0.000161992
0.00446254
0.000146425
0.000148798
0.00621007
0.000750663
0.000181298
0.000146259
0.000143023
0.00251504
0.00101253
0.000144332
0.000133429
0.000207999
0.000143495
0.000143333
0.00392855
0.000135163
0.0207468
0.000140774
0.000183708
0.000160518
0.117039
0.000141473
0.000157109
0.000144725
0.000136455
0.0056963
0.000130345
0.00488746
0.000177378
0.00013441
0.000164254
0.0587537
0.00445559
0.000180722
0.000145067
0.000133391
0.000132122
0.000136818
0.000175474
0.000145627
0.0184827
0.000143067
0.000134605
0.000753767
0.000155388
0.000176052
0.000155595
0.000139185
0.0005743
0.00578243
0.00015652
0.00960088
0.000143374
0.00015824
0.000134218
0.00013447
0.000142777
0.000142124
0.000144701
0.000145346
0.0893117
0.000146769
0.000153924
0.000140699
0.000149193
0.000132686
0.000191506
0.00589759
0.000134481
0.000140894
0.00441088
0.000198988
0.000132824
0.0217664
0.000141249
0.000247505
0.000135485
0.00015078
0.000136322
0.0871656
0.000132741
0.000140807
0.000142021
0.0225378
0.000154251
0.000142589
0.000145524
0.00199365
0.000142075
0.00014157
0.000137062
0.000141632
0.000155111
0.000141325
0.000146671
0.000134365
0.0580066
0.00889646
0.0112365
0.000146266
0.000153419
0.000143222
0.00321207
0.000149678
0.00524291
0.00408815
0.00854773
0.000207751
0.0076278
0.000143373
0.000143974
0.012275
0.00130269
0.00017082
0.000183292
0.000145926
0.0063392
0.000139653
0.000144704
0.000134599
0.000135647
0.000151331
0.0121564
0.000148763
0.000149419
0.0247921
0.000142638
0.00348596
0.000137404
0.000148504
0.000170641
0.000144878
0.00581981
0.000141767
0.000141759
0.000233262
0.000144452
0.000132575
0.000156298
0.000140061
0.000139182
0.00788478
0.00651172
0.0133917
0.000145309
0.000140358
0.000140026
0.00631662
0.000149922
0.000143625
0.000137875
0.000138607
0.00722417
0.0821991
0.000204909
0.000146446
0.000159899
0.0623941
0.000157803
0.000165304
0.000179688
0.00767254
0.00247751
0.00669373
0.000139554
0.000145104
0.000142095
0.00766596
0.000139442
0.000154572
0.000142527
0.000130403
0.000171491
0.000144386
0.10914
0.110962
0.000132748
0.000141131
0.000131777
0.00727497
0.00013556
0.0107342
0.000149894
0.0986657
0.000140221
0.000139462
0.000134521
0.000141314
0.000143594
0.000131546
0.000143591
0.000147369
0.000207904
0.000153751
0.0114285
0.000143401
0.0004617
0.00847958
0.000152678
0.000933391
0.000140432
0.000141774
0.000145733
0.000146878
0.0104196
0.000142489
0.000145973
0.000134874
0.0197188
0.000139092
0.00784137
0.000172973
0.000140435
0.000228601
0.00718355
0.000136578
0.000137024
0.000183078
0.000168026
0.000367977
0.000184618
0.000277453
0.000180489
0.000145091
0.000144823
0.000144205
0.000163883
0.000148262
0.00221869
0.000258873
0.000130394
0.000138289
0.000148704
0.000173718
0.000168116
0.00985532
0.000146404
0.000144588
0.00341863
0.000140118
0.000182445
0.00016557
0.000161189
0.00761536
0.000149422
0.00014067
0.000145221
0.000175909
0.000140812
0.00580795
0.000147052
0.000175514
0.000154914
0.0248752
0.000144543
0.000161891
0.000151477
0.00014763
0.000171844
0.000133926
0.000170876
0.000141079
0.00014692
0.000139806
0.000143611
0.000150713
0.000179261
0.000152808
0.000145558
0.00809728
0.000134059
0.000140307
0.000140771
0.000131897
0.000211046
0.000143902
0.000147919
0.000194697
0.00810486
0.000143482
0.000225285
0.000184515
0.000138444
0.000141749
0.000131774
0.00453926
0.00856314
0.00015478
0.000140115
0.000183636
0.000482807
0.0391962
0.000146289
0.0052491
0.000525836
0.0124229
0.000148864
0.000131795
0.000140459
0.00670719
0.000451849
0.000146829
0.0600609
0.000421091
0.00710519
0.0109178
0.0001424
0.000224964
0.0018663
0.000220773
0.0211294
0.000163706
0.0670084
0.000147456
0.0061268
0.000144332
0.00018468
0.000153903
0.000182972
0.000131028
0.000145043
0.000141057
0.0160475
0.000142002
0.000130483
0.000728658
0.000143789
0.000158892
0.000147165
0.00175695
0.000143552
0.000149188
0.000144968
0.000142737
0.000142546
0.000155747
0.000139277
0.00712486
0.000372816
0.000269066
0.000142214
0.0149075
0.00013893
0.000182425
0.00658616
0.000158123
0.000142784
0.000132249
0.00014272
0.000150212
0.00822345
0.000194495
0.000140158
0.0248373
0.000142107
0.000145303
0.00600258
0.000132026
0.00014578
0.0235833
0.000139831
0.0112831
0.000150327
0.000210913
0.000158633
0.000187825
0.000167366
0.000143268
0.0375681
0.0514213
0.000140799
0.000168139
0.110311
0.0119752
0.000269734
0.000154486
0.000137925
0.000156347
0.000144976
0.000144804
0.00566055
0.000153444
0.000132101
0.000164836
0.00453419
0.00875644
0.000132224
0.000131785
0.000150829
0.000146249
0.00758537
0.00835101
0.000135679
0.000155345
0.00132032
0.000144481
0.000155075
0.0728866
0.000151374
0.00358973
0.000140812
0.000145023
0.00014542
0.000142524
0.000168444
0.000207927
0.000143489
0.0100294
0.0134923
0.021077
0.000154027
0.000150791
0.0729008
0.000167319
0.0113195
0.0001619
0.000143873
0.000141515
0.0230441
0.00279298
0.000147865
0.000154868
0.000169776
0.000141554
0.000220035
0.000148013
0.000141373
0.000151498
0.000165824
0.000140568
0.000141091
0.118791
0.000139258
0.000137764
0.000181031
0.00015667
0.00905468
0.000154221
0.000145953
0.0207045
0.000183267
0.000155224
0.000169837
0.00637631
0.000140624
0.000134383
0.000156236
0.00171118
0.00013978
0.000144302
0.000141409
0.000135767
0.000139772
0.0154086
0.000144667
0.00571136
0.000144458
0.000177484
0.000135565
0.000146753
0.000189237
0.00914665
0.00027771
0.000142908
0.000151843
0.00227739
0.000292101
0.000154829
0.000148525
0.00661408
0.000140779
0.000166819
0.000200251
0.000138762
0.000151063
0.000140763
0.000198763
0.0528294
0.00574189
0.000137597
0.000148427
0.000157254
0.000190031
0.00013867
0.000137031
0.000173268
0.000131166
0.000138158
0.00454333
0.00014446
0.0184278
0.0001352
0.00013724
0.000134624
0.000171109
0.000145333
0.000141358
0.00272869
0.000138309
0.000145301
0.0131661
0.000141781
0.000192342
0.000156068
0.0116234
0.00807345
0.000153157
0.00550446
0.000157917
0.000144433
0.11243
0.000148228
0.000140968
0.000132414
0.000140536
0.000168081
0.0233195
0.000176768
0.00959961
0.0112751
0.0063375
9.40684e-05
0.00731108
0.000153152
0.00383696
0.000133813
0.000158802
0.000145309
0.000146632
0.000147454
0.00229953
0.00997132
0.000142938
0.00967163
0.000137494
0.000258585
0.000144335
0.000153485
0.000147921
0.000192193
0.00917768
0.000142067
0.000132952
0.0486168
0.000194365
0.000172114
0.000163135
0.00901682
0.000145426
0.00734936
0.00400501
0.000139064
0.000137905
0.000140215
0.000156369
0.000143066
0.00014913
0.000150547
0.000139076
0.000145539
0.000145641
0.000138256
0.00389721
0.0103436
0.000133162
0.000526572
0.000151081
0.000170219
0.000185754
0.000498122
0.000139028
0.000171809
0.000195368
0.000135519
0.000181837
0.0077719
0.000146283
0.000138041
0.000153099
0.00972092
0.0111713
0.000135416
0.00716917
0.000145513
0.000145611
0.0324653
0.000139347
0.000137153
0.000137625
0.00013775
0.000144168
0.0064558
0.000167538
0.000139009
0.000143015
0.000139554
0.000141413
0.00893997
0.000132743
0.000165852
0.00316431
0.00538076
0.000137652
0.010172
0.000137841
0.000251356
0.000149046
0.000221107
0.000133749
0.0130398
0.0728459
0.0532652
0.000143945
0.000239451
0.0071239
0.00633672
0.000145035
0.00666749
0.000141224
0.00782113
0.00916015
0.000169536
0.0516397
0.00654996
0.00502405
0.0833994
0.000241843
0.00815594
0.000137783
0.000155571
0.00648391
0.000203237
0.000142915
0.00419661
0.000148505
0.000139338
0.000136752
0.000210987
0.000203626
0.000169866
0.00640035
0.000163681
0.00613794
0.000149128
0.000140933
0.000140548
0.00544694
0.00536697
0.00016346
0.00880976
0.000146611
0.000147196
0.0001672
0.00623853
0.000180339
0.00013934
0.00553785
0.0168994
0.000148361
0.000211573
0.00013586
0.000164919
0.000210778
0.000138963
0.00389669
0.00340195
0.000142658
0.000149086
0.00014017
0.00947247
0.000154897
0.0172945
0.00157139
0.000140514
0.000139565
0.000133506
0.000169804
0.000137833
0.000169553
0.000154498
0.000165825
0.00446093
0.000148184
0.000159482
0.00755145
0.000148155
0.000185471
0.000151023
0.000144065
0.0571719
0.00983085
0.000146669
0.05144
0.000154039
0.0044529
0.00013941
0.000137915
0.000177249
0.000154644
0.000184925
0.00386499
0.000146698
0.000153937
0.00123082
0.000180458
0.000153563
0.0100964
0.000268683
0.00712726
0.000140275
0.00013253
0.000230987
0.000138951
0.010349
0.00573406
0.000207915
0.0049906
0.000147244
0.000137694
0.0140664
0.00610465
0.000140931
0.0379061
0.000167092
0.000142078
0.000187959
0.000149098
0.000145012
0.00017518
0.000154352
0.000137058
0.000152021
0.000140682
0.000153829
0.006336
0.000161874
0.00825976
0.000143227
0.000158383
0.000140013
0.000142745
0.00759299
0.000144872
0.00801449
0.00368893
0.000149032
0.00520721
0.000163838
0.00216404
0.000131887
0.00741849
0.000195742
2.13228e-05
0.000152785
0.000152872
0.000138811
0.000489622
0.00015349
0.00449416
0.000165493
0.000135759
0.00230736
0.00013162
0.0963686
0.000140639
0.00867166
0.000142253
0.000137431
0.000134481
0.00778626
0.000139341
0.000135445
0.000133981
0.000139884
0.000143337
0.00020485
0.00289516
0.000135783
0.000156673
0.000146008
0.000140518
0.000138679
0.00617683
0.0444787
0.00015535
0.000143669
0.000138774
0.00013455
0.000155339
0.000154897
0.000134229
0.00803703
0.00842899
0.00310668
0.000135234
0.000139907
0.000143019
0.000151424
0.000137892
0.000148653
0.000143256
0.000139205
0.00018504
0.000149215
0.000177336
0.0318143
0.0620599
0.000140985
0.000140495
0.000141405
0.0949896
0.000141358
0.000161442
0.000167089
0.000136917
0.000143366
0.000141153
0.0178863
0.000143958
0.00437796
0.0059867
0.000173449
0.00014309
0.000155721
0.00665616
0.000153341
0.000171809
0.000155904
0.000166636
0.000136619
0.000156208
0.000364467
0.00595848
0.000138323
0.000144755
0.0108382
0.000154156
0.00017176
0.0001681
0.00506322
0.000142856
0.00015574
0.00149102
0.00269365
0.000191026
0.000135987
0.000140897
0.000138057
0.000145675
0.000319855
0.00340892
0.00177132
0.000137793
0.104071
0.000155144
0.00513855
0.00737714
0.000141063
0.0333688
0.000750193
0.000138584
0.000207894
0.000167118
0.000145348
0.0066172
0.000139425
0.0255616
0.000155825
0.00728615
0.0128724
0.000175301
0.000143591
0.000155755
0.000148581
0.000139881
0.000135109
0.000134937
0.00060609
0.000147932
0.000172868
0.00601098
0.0546455
0.000172797
0.000166847
0.000136407
0.0415636
0.000132234
0.00611651
0.0851241
0.0480177
0.029022
0.0077161
0.000901505
0.00013388
0.000145063
0.000134509
0.000208807
0.000152045
0.0157925
0.000154106
0.113444
0.000157873
0.000135764
0.000135055
0.000145078
0.000133871
0.00546827
0.00898822
0.0581465
0.000138585
0.000168102
0.000153395
0.000150379
0.000206275
0.000144051
0.00319913
0.00909297
0.000148164
0.000141917
0.00643804
0.000157744
0.000248463
0.00920946
0.000146746
0.00434934
0.000153112
0.106587
0.000140387
0.000203977
0.000142657
0.00122703
0.000197935
0.0244541
0.00967488
0.0922445
0.000102744
0.000232254
0.000139739
0.000139751
0.010878
0.00722525
0.00019498
0.000157668
0.122809
0.0023024
0.0101901
0.000169255
0.0201638
0.000155943
0.000167477
0.00324672
0.000146831
0.00015459
0.000167176
0.000132704
0.00013688
0.000140388
0.000143303
0.0646757
0.000148167
0.00741539
0.000209298
0.000574574
0.00741638
0.00838363
0.000134631
0.000147392
0.00658009
0.000289974
0.000162594
0.00876447
0.0291675
0.00920315
0.00013943
0.000165256
0.000154397
0.000210207
4.25648e-05
0.0101968
0.00795281
0.000175614
0.000144854
0.000151057
0.000292889
0.000241418
0.000175638
0.00553571
0.000140421
0.000167391
0.000150907
0.0197278
0.000152007
0.000136004
0.000139984
0.000150605
0.0195918
0.0084312
0.000146904
0.000199199
0.00788113
0.000149327
0.000816604
0.000167708
0.000165463
0.000165941
0.00016772
0.00283153
0.000141364
0.000138885
0.000151802
0.000254206
0.000207547
0.000168561
0.000148795
0.000151054
0.000146529
0.016065
0.000170358
0.000152026
0.000146149
0.00039921
0.00015606
0.00960618
0.000150464
0.000163439
0.000140912
0.00646631
0.000340026
0.000173499
0.0597581
0.000136783
0.000163653
0.00322605
0.000156775
0.00574769
0.00845818
0.000145728
0.000150458
0.0396334
0.000143066
0.0206856
0.000145773
0.0235336
0.00822799
0.0014513
0.000151519
0.000140603
0.000141783
0.000142976
0.000154721
0.000132241
0.000145442
0.000140412
0.000138436
0.000152695
0.000151192
0.000144767
0.000150103
0.0373362
0.000144915
0.0500664
0.000147944
0.000144836
0.00335412
0.000141283
0.0490385
0.00861656
0.000144551
0.00014871
0.000169637
0.00424831
0.000167759
0.0692125
0.000161997
0.000148222
0.0163704
0.00013809
0.125132
0.000145322
0.00020975
0.000133463
0.0025411
0.0570251
0.00946056
0.000147235
0.000152757
0.000139095
0.000151742
0.00136803
0.000140269
0.000143172
0.000172671
0.000165593
0.0171684
0.00228731
0.00014823
0.000176202
0.000144152
0.000157871
0.000149448
0.000143203
0.000148499
0.0652481
0.0126968
0.000226223
0.000152072
0.000148486
0.000150244
7.68447e-05
0.0431048
0.000194637
0.00671075
0.00454777
0.000150588
0.000152547
0.000204567
0.000139224
0.000152718
0.000160832
0.000150218
0.00740489
0.000150457
0.00841696
0.000136965
0.000148287
0.00019679
0.000150907
0.000152444
0.000153644
0.000158723
0.00574416
0.000148411
0.000142282
0.000145201
0.0736155
0.00380638
0.000154105
0.000145831
0.000138516
0.000152367
0.000143229
0.000221601
0.000140077
0.000138261
0.000144985
0.000159091
0.000160739
0.000145101
0.0656892
0.000147702
0.000148764
0.00047117
0.000152104
0.00015414
0.00022865
0.000147765
0.0189866
0.000139329
0.000138589
0.000148506
0.00016247
0.000136748
0.00540841
0.000148514
0.000141104
0.00466815
0.00852263
0.00328355
0.006798
0.00702079
0.000157532
0.000137558
0.000151523
0.00621678
0.000160581
0.00747171
0.000149484
0.00016312
0.000192465
0.000193476
0.000138361
0.11127
0.00307653
0.000140413
0.000157337
0.000147172
0.000148862
0.000319098
0.000260588
0.000144962
0.000139098
0.000133753
0.00761941
0.0001466
0.00278804
0.000166755
0.000146242
0.000140267
0.000141159
0.0389634
0.00018449
0.000139822
0.00288581
0.00212798
0.000148351
0.00917012
0.000145845
0.000137652
0.000138366
0.00014511
0.000134468
0.000143843
0.00014659
0.000150411
0.000145791
0.000188934
0.000151473
0.00654879
0.000164906
0.000142762
0.000340265
0.000133709
0.000137419
0.000194257
0.000140231
0.0056407
0.000141037
0.00021029
0.108919
0.000137977
0.000563927
0.00543216
0.000144595
0.000147654
0.000143241
0.00048608
0.00014545
0.00655714
0.00820911
0.000151116
0.000159317
0.000178429
0.000550506
0.000143908
0.00127786
0.000146443
0.00081666
0.000347307
0.000142732
0.00682986
0.000140457
0.00018853
0.00560965
0.000304788
0.000144839
0.000175727
0.00015096
0.000174832
0.000136776
0.0001553
0.0310921
0.000158185
0.00146944
0.000965256
0.000168042
0.00727945
0.000137415
0.000222819
0.000145188
0.000157012
0.0021944
0.00710269
0.123163
0.000166498
0.000156
0.0239544
0.00016785
0.000140524
0.000137954
0.000148043
0.000149222
0.000155188
0.000141285
0.0202599
0.000156615
0.000141209
0.000134122
0.000142915
0.000142557
0.00026469
0.000138705
0.0239256
0.000148984
0.021254
0.000144071
0.000144734
0.000131519
0.00018775
0.000143186
0.0867723
0.0243899
0.00551133
0.000156339
0.0001485
0.00014365
0.000140167
0.000139727
0.00761028
0.000147224
0.000147886
0.00487565
0.000144102
0.000149546
0.112675
0.000386641
0.0199034
0.000140426
0.0259729
0.00302796
0.00014087
0.000138436
0.000164703
0.0201227
0.00331345
0.00848076
0.00037719
0.000143251
0.000138759
0.00112352
0.000160362
0.000147333
0.000168711
0.00014671
0.000151443
0.0104319
0.00255217
0.000172782
0.000157223
0.000154533
0.0001787
0.0170737
0.000145066
0.000140062
0.000143931
0.000952091
0.000139815
0.000154332
0.0196349
0.114244
0.000137004
0.000139982
0.000131666
0.000145274
0.000143955
0.000171571
0.000286624
0.000149129
0.00170838
0.00517174
0.000261747
0.000166388
0.00014803
0.000144479
0.000142028
0.000138971
0.000133683
0.000145024
0.00473962
0.0116293
0.000136801
0.000137491
0.000146438
0.000145385
0.00388798
0.000173462
0.0216486
0.00631263
0.000385066
0.000199073
0.000142763
0.000142079
0.000142333
0.000145263
0.0184884
0.00014304
0.00015359
0.000308154
0.0134546
0.0100855
0.000278966
0.00773823
0.00871843
0.000143206
0.000167757
0.0208865
0.00733753
0.000144126
0.00014351
0.000137645
0.00014426
0.00014463
0.00410321
0.000141437
0.000141422
0.00939768
0.000152975
0.0233988
0.000142579
0.000137997
0.000169009
0.000320994
0.000204018
0.00944705
0.000154877
0.0167705
0.000169816
0.000140504
0.00939115
0.000141296
0.000152363
0.000145575
0.000137708
0.126706
0.0126304
0.10317
0.000234682
0.00580157
0.0017964
0.00911757
0.000139448
0.000145875
0.000411273
0.000143114
0.000146386
0.000152745
0.000143796
0.0198077
0.000145498
0.0103371
0.000581155
0.000133774
0.0238172
0.000144665
0.000141761
0.000162704
0.000161928
0.000163988
0.00016636
0.000167135
0.00372818
0.000145425
0.000142644
0.000136331
0.000168484
0.00139287
0.000140028
0.000146372
0.000178781
0.0133101
0.000140963
0.000168015
0.000168326
0.000135298
0.000143368
0.000141812
0.0159799
0.0272088
0.000168271
0.000149865
0.000143489
0.000164289
0.00576834
0.000145036
0.00558173
0.00881549
0.000145189
0.000165369
0.0361476
0.0296265
0.000173505
0.000134557
0.000138743
0.0145815
0.000102475
0.0266831
0.000157919
0.00817997
0.00018376
0.0171743
0.00518577
0.116886
0.000967054
0.0194856
0.00955801
0.0131514
0.000147541
0.0101363
0.000142687
0.0129732
0.000150638
0.000149095
0.000167927
0.0131032
0.00534327
0.000151093
0.000144673
0.00317078
0.0168033
0.00584396
0.00013892
0.00014079
0.000143014
0.000156177
0.000144592
0.00016731
0.0208318
0.00787972
0.000155278
0.000141121
0.000150722
0.000146511
0.000143713
0.00132838
0.000143664
0.000153463
0.000133958
0.00659916
0.000190855
0.00929076
0.000144126
0.00256794
0.00317781
0.000163208
0.00512189
0.0370588
0.00201132
0.0142776
0.00014085
0.000144813
0.000208485
0.000144222
0.000145323
0.000141779
0.000146632
0.000162186
0.000166293
0.000140672
0.00249552
0.000138979
0.00171575
0.000146905
0.00551759
0.0168094
0.000175302
0.0494136
0.0212202
0.000193893
0.00165818
0.0184908
0.000147581
0.000145609
0.000182853
0.00016119
0.0156799
0.000140588
0.000146009
0.017505
0.00014313
0.000138884
0.00014596
0.000134057
0.00319228
0.000145418
0.000166279
0.000146141
0.049571
0.000142487
0.00202569
0.00285142
0.0037414
0.0254341
0.000134206
0.000167448
0.000146029
0.000143167
0.0184232
0.00122803
0.000425485
0.00411937
0.000133313
0.000149488
0.000154292
0.000144316
0.00436539
0.000140322
0.000163009
0.0274681
0.00591804
0.000247729
0.000142499
0.000146007
0.0237232
0.000169434
0.000261865
0.00608734
0.0104858
0.0212043
0.000151646
0.000140392
0.000140212
0.000145734
0.0023563
0.00015102
0.000563012
0.00014396
0.000145534
0.00192485
0.00013476
0.000744971
0.000164732
0.000145111
0.00016796
0.014811
0.000138614
0.000148523
0.0121643
0.000144322
0.000144741
0.000171376
0.101945
0.000154948
0.000184782
0.00013689
0.0199281
0.00652235
0.00021691
0.000144276
0.00013862
0.000166443
0.000144734
0.00162505
0.00957008
0.00805884
0.0228891
0.000142764
0.000138825
0.000140703
0.000239769
0.000144203
0.0121314
0.00487739
0.000143933
0.0109189
0.000143041
0.0620789
0.000168264
0.000136653
0.000235638
0.00013942
0.000140152
0.000137877
0.000132579
0.000157462
0.0256486
0.000144482
0.000137752
0.000204563
0.000134271
0.000146007
0.000149128
0.000141885
0.000143889
0.0069435
0.000175316
0.000133097
0.000150156
0.000150039
0.000143542
0.0225325
0.0156675
0.000143849
0.00014051
0.000145525
0.000409883
0.000145277
0.00014745
0.000149943
0.000202785
0.000133254
0.000150504
0.00509314
0.000144713
0.00310293
0.00014257
0.000144204
0.000140855
0.000141743
0.000138166
0.000143183
0.0179177
0.00613077
0.000137901
0.000145964
0.000152654
0.00157626
0.000164011
0.000190132
0.000142809
0.000148469
0.00018331
0.00014819
0.00934406
0.000166536
0.000141215
0.000139695
0.0116503
0.000148227
0.0167705
0.000255148
0.000141123
0.00665544
0.0237515
0.00586291
0.00091932
0.000333069
0.000163709
0.000140681
0.119892
0.000144368
0.000152471
0.000176014
0.000133962
0.000143225
0.0167096
0.00013887
0.00155222
0.0145783
0.00014821
0.000143946
0.000350477
0.000142461
0.000346121
0.000136426
0.00205041
0.000623753
0.00623213
0.000142607
0.0001398
0.00014881
0.0124395
0.00559568
0.00381129
0.00974627
0.000173133
0.000143121
0.000629019
0.0595855
0.000143556
0.000134163
0.000167515
0.000140946
0.0597968
0.000234985
0.000136724
0.00278825
0.000139688
0.000139247
0.000136312
0.000142853
0.000143125
0.000490287
0.000141929
0.00680158
0.000139434
0.00014818
0.000146146
0.000145661
0.000141833
0.000142871
0.000214878
0.000138074
0.00102833
0.00617391
0.000238398
0.000166461
0.000290123
0.000174192
0.000142559
0.000134138
0.000142641
0.000134509
0.0560267
0.00143882
0.000152535
0.00015094
0.00619223
0.000148534
0.00470402
0.00014475
0.000140936
0.000144765
0.000227472
0.000205804
0.0201163
0.00129165
0.000168152
0.000231125
0.000238085
0.000143576
0.000141294
0.000138843
0.000163297
0.000165279
0.0474986
0.00370126
0.000167543
0.000140071
0.00017511
0.000141963
0.000221757
0.000141941
0.000794688
0.000148803
0.00207543
0.000163786
0.000147954
0.000168191
0.000242181
0.000162035
0.0226701
0.000141028
0.000138658
0.00014368
0.00014297
0.00455722
0.000137599
0.000145668
0.000159436
0.000133128
0.0215067
0.00628901
0.000188134
0.000144096
0.000144902
0.00542056
0.000249415
0.000141124
0.000142753
6.64336e-05
0.000142881
0.000143276
0.0010892
0.000166692
0.00473828
0.00520409
0.00564579
0.000170198
0.00014083
0.000144185
0.000161769
0.000141041
0.000140518
0.00786156
0.0100898
0.000138656
0.000141636
0.000140159
0.000149573
0.0272093
0.000141493
0.000149492
0.00014471
0.000136515
0.000140825
0.000247307
0.000150455
0.000140262
0.000134668
0.000147707
0.000138606
0.000168943
0.00497844
0.000193817
0.000139122
0.000142206
0.000143833
0.000141144
0.00712731
0.000143583
0.00527158
0.00441855
0.000141122
0.000138206
0.0104942
0.000138482
0.0001396
0.000140338
0.00178748
0.000166785
0.000161659
0.000140532
0.000132938
0.000143761
0.00456604
0.000141484
0.000145928
0.00017629
0.00565088
0.000207711
0.000133222
0.00751013
0.000130528
0.00563271
0.000140325
0.00013423
0.000138341
0.000145592
0.000142777
0.0045471
0.000140367
0.00539935
0.000178337
0.00016857
0.0410501
0.000143752
0.00694217
0.00263326
0.000146938
0.00566687
0.000176272
0.000898604
0.000142256
0.00969006
0.000145725
0.000138588
0.000139084
0.00023233
0.0063209
0.000154594
0.00487588
0.0386975
0.000238151
0.000143049
0.000153487
0.000174291
0.00190231
0.00259622
0.000160182
0.000145204
0.00016758
0.00392299
0.000139782
0.0215366
0.000149847
0.000380838
0.00013794
0.000136984
0.000162005
0.000160391
0.0656047
0.0186546
0.000298596
0.000140238
0.000141883
0.00166067
0.00392485
0.012713
0.00013944
0.000150456
0.00013867
0.000140636
0.000140885
0.00517998
0.000174355
0.000142598
0.00026661
0.00425214
0.00187191
0.000140073
0.000145337
0.000138755
0.000137981
0.000161139
0.000141396
0.000144288
0.000143525
0.000140026
0.000158165
0.00374612
0.000198709
0.000139481
0.000140761
0.00809954
0.000175117
0.000152908
0.000168442
0.007452
0.00119569
0.000141031
0.000160388
0.00303011
0.000139569
0.00452502
0.000141752
0.000141112
0.000140147
0.00846202
0.000140143
0.00013876
0.000145418
0.00014557
0.00014053