/*--------------------------------*- C++ -*----------------------------------*\
| =========                 |                                                 |
| \\      /  F ield         | OpenFOAM: The Open Source CFD Toolbox           |
|  \\    /   O peration     | Version:  v2012                                 |
|   \\  /    A nd           | Website:  www.openfoam.com                      |
|    \\/     M anipulation  |                                                 |
\*---------------------------------------------------------------------------*/
FoamFile
{
    version     2.0;
    format      ascii;
    class       surfaceScalarField;
    location    "850";
    object      meshPhi;
}
// * * * * * * * * * * * * * * * * * * * * * * * * * * * * * * * * * * * * * //

dimensions      [0 3 -1 0 0 0 0];
oriented        oriented;


internalField   nonuniform List<scalar> 
14885
(
-0.000237975
-0.000677468
0.00092741
-0.00644496
0.00345671
0.00298087
-0.000547835
0.00523419
-0.00467158
-0.00245859
0.00354671
-0.000855228
8.95715e-05
-0.000759903
0.000841059
0.00543241
-0.00118023
-0.00424979
0.00106178
0.00412608
-0.00519156
-0.00149073
0.00176063
-0.00026848
-0.000972
0.000665288
0.000344621
-0.00645229
0.00254404
0.0039181
0.000308326
0.00132842
-0.00162081
-0.00313083
-0.00332087
-0.000833563
0.00537429
-0.00452974
0.000911456
-0.0022282
0.00135979
-0.00644921
0.00201982
0.00451639
0.00223775
-0.00128119
-0.00417262
0.0038546
0.000324064
-0.0012515
0.00157548
-0.00592293
0.00125305
0.00469527
-0.00738443
0.00199253
0.00543548
-0.00518253
0.00436014
0.000708803
-0.000935024
-0.00317725
0.000933338
0.000266642
-0.00264846
0.00238243
0.00470586
-0.00102735
-0.00352242
-3.28214e-05
8.13712e-06
3.84446e-05
-0.0055989
-0.000844332
-0.000567204
0.000608658
-5.0724e-06
0.000751054
0.00468673
-0.000705006
-0.00159123
0.00229478
0.000555584
-0.000230258
-0.000185198
-0.00495345
0.000795148
0.00416508
-0.000888519
0.000254891
0.000665973
-0.000283703
-0.000577473
-0.00172392
0.000235968
-0.0017264
0.00154658
0.00018294
-0.000999699
0.00022756
0.00111481
0.000930612
-0.000100644
-0.000774238
0.000430944
0.000249578
5.94247e-05
-6.06982e-05
2.42271e-06
0.0023249
-0.00303201
-0.000683036
0.00447174
-0.00536685
0.000897226
0.006853
-0.00615754
-0.00069941
0.00389183
-0.000568524
-0.00315003
0.00139958
0.00342159
0.000274929
1.80651e-05
-0.000272787
-0.00563181
-0.000705624
-0.000577003
0.00480398
-0.00422277
-0.00527843
0.00554368
-0.000267831
0.00490638
-0.000433247
6.32416e-05
-0.00169217
0.00183411
-0.00341903
-0.000632626
-0.0052623
0.00595414
-0.00555569
-0.000406055
0.00489682
-0.00455219
-0.000351997
-0.000741764
-0.00442734
-0.00207987
0.000674953
0.00141062
-0.00620853
0.00549119
0.000792487
2.60265e-05
-2.34244e-05
-1.04016e-06
-0.00538937
0.00481703
-0.00607886
0.00562924
0.000440771
-0.00478787
-0.00057663
-0.00137162
0.00159824
-0.000223137
-0.00333434
0.000479563
0.00287933
-0.00584293
0.00168258
0.00423988
-0.00695077
0.00238895
0.00460179
-0.000817067
0.00102682
-0.000202559
-7.71454e-05
-0.000161067
0.000253142
-0.000962331
0.000152284
-0.00479092
0.0049671
-0.000176329
0.000488846
0.00541363
-0.00584139
0.000220043
0.00117891
-0.00135354
-0.00111865
-0.00500647
-0.00452827
-0.00122694
0.000116088
0.00151851
-0.00332812
0.00182742
0.000301837
-6.78639e-06
-0.00164499
0.00318226
-0.00406537
0.00534096
0.00608686
0.000769301
0.00259205
-0.000124835
0.000425571
-8.88387e-05
-0.00157531
0.000214294
0.00155239
-0.00744625
0.00293336
0.00452667
0.0051538
-0.0053498
0.000198028
-0.00511845
-0.00179513
-0.00510416
0.00457074
0.00333164
-0.00337386
0.000132631
0.00114996
0.002605
-0.00372657
-0.00642214
0.00435268
0.00208334
-0.00336047
0.00545495
-0.00486673
8.20536e-05
-0.000575949
0.00573147
-0.0030627
0.000348846
0.00274184
-0.00470814
0.0054356
-0.000620552
-0.00339985
0.00332194
-0.00495541
-0.00298037
0.00348438
-0.000504508
0.0058402
-0.000653514
-0.00509941
-0.00471309
-0.00169282
-0.00561365
0.00607433
-0.000457625
0.00185767
0.00461749
-0.00641842
0.00381226
-0.00518322
-0.00577171
0.000605667
0.0051879
0.00577586
-0.00570442
-3.19001e-07
-0.00152644
0.00410014
-0.00258174
-0.00552973
0.00108759
-0.00388881
0.00494717
-0.000530816
0.00637068
-0.00602777
0.007286
-0.00115227
0.00136767
-0.00525936
-0.00620254
0.000598138
-0.001619
0.000251967
-0.000441581
-0.00286451
-3.19481e-05
-0.00028853
0.000339507
0.00157372
-0.00410044
0.00255137
-0.000404844
9.0595e-05
0.000466536
-0.000525536
-0.00154649
4.53105e-05
-0.000322961
0.000296371
2.81186e-05
2.59297e-07
-0.00601034
0.00316412
0.00284095
-0.00426018
-0.00175241
0.00096041
0.00310018
-0.00174159
0.00291391
0.00325301
-0.00349867
0.000328658
0.00371254
-0.000410159
0.00040836
0.00553663
-0.00422479
0.00393204
0.000294315
0.00424837
-0.00264905
0.00106459
-0.0010747
5.53644e-05
-0.00507468
0.00366459
0.00149591
0.000390179
-0.00343245
0.00310741
0.00346248
-0.00569744
0.00232784
-0.00316624
0.0045325
-0.000345834
0.00480367
-0.00445955
-0.00644584
0.00153156
0.00495005
-0.00252712
-0.00301523
-0.00679039
0.00608265
0.000745964
-0.00371908
0.000744396
-0.000600089
0.00502508
-0.00441932
-0.0002701
3.19628e-05
0.000280339
-0.0050037
0.00346681
-2.04516e-05
-0.000504291
0.00415092
-0.00630599
0.00217994
0.000174187
0.000806824
-0.00320318
-0.0042308
-0.000299847
0.000242194
-0.00611288
0.000201099
0.00595317
0.000923752
-0.00344877
0.00252222
-0.00400207
-0.0014424
-0.000224691
0.000235275
3.92203e-05
0.00656292
-0.00550542
-0.00101756
-0.00473161
0.005175
-0.000436047
-0.000390624
-0.00264175
-0.00140036
0.00557813
-0.00391371
-0.000309135
0.00387872
0.00101112
0.00334435
-0.00289337
-4.65626e-06
-1.85352e-05
0.000874084
-0.000365452
-0.000301988
5.6107e-05
2.88369e-06
-0.00474877
0.00440102
-9.16233e-05
-0.000663525
0.00617747
-0.00547411
-0.00367244
0.00459236
-0.00131761
0.0015903
0.00517201
-0.00135182
-0.000150579
-0.00157596
0.00075646
-0.000317459
-0.000419876
-0.002945
0.000378456
0.00259523
0.00151327
-0.00310553
0.00451007
0.000992274
-0.00550527
0.000498084
0.00494754
-0.00555307
0.00547738
-0.000965653
0.00130229
0.00212362
-0.00331721
0.00111545
-0.00088059
-0.0013838
-0.00359243
0.000144631
-0.000292914
-0.00600187
-0.000751145
-0.00695938
0.00281951
0.00415764
0.00479959
-2.39047e-05
0.000276674
-0.000231715
-8.1647e-05
2.47765e-05
5.7651e-05
-0.00336823
-0.00173082
0.00511013
-0.00488012
0.00542461
-8.42388e-06
2.21829e-05
-1.23251e-05
-0.00447371
0.000180176
0.00429057
-0.000478309
0.000477586
9.5567e-05
-0.00098221
0.0045533
-0.00528112
0.00109313
1.23266e-05
-0.00153139
-0.00540341
0.0056343
-0.00594748
0.000302679
-0.00567003
0.00237387
-0.00236229
0.00413364
-0.00177174
-0.00289737
0.000356946
0.0025617
0.00355761
-0.00331992
-0.000238492
-0.00141372
5.56411e-06
-0.00360137
0.00418827
-0.000588036
0.0050286
-0.00491419
-0.000111384
0.0050566
-0.000882485
-0.00416379
0.000185326
-0.000167335
1.07311e-05
0.00296443
0.00051791
-0.000277933
-0.00308679
0.000190628
0.00223876
-0.00242321
-0.00510354
0.000381132
-0.00587174
-4.08141e-05
0.00437971
-0.000848366
0.000225086
0.000235014
-2.26606e-05
0.00458884
0.000482301
0.00516021
-0.00481798
-0.000329037
-0.000430798
0.00128163
-0.000516116
0.000748422
0.000207366
-0.000947991
1.07209e-05
-0.000128878
0.000144078
0.000824255
-0.00526354
0.00443391
-0.0012288
4.45393e-05
0.00143493
0.000330672
0.00362511
0.000279983
-0.00390501
-0.000334432
-0.00258436
0.00389681
-0.000272468
-0.000207911
0.00181011
0.00189079
0.000164599
0.000531328
0.00525447
-0.00572455
-0.00184621
-0.00456626
-0.000823949
0.00624009
-0.00540852
-0.00287194
0.00477412
0.000193739
0.000974686
0.00231535
0.00144875
-0.00526972
0.0019117
-4.05546e-05
-0.000235715
-0.00199999
0.00340996
0.00160954
-0.00693513
0.00241749
0.00455501
-0.00361231
0.000210782
-0.00555137
-0.000731374
-0.00241186
-0.000232581
0.000452761
-0.00484158
0.00439092
-0.00304668
0.000379107
0.00266525
3.0237e-05
-7.63879e-07
4.97834e-05
8.94933e-06
-0.0049814
-0.000317117
0.005289
-0.000700675
0.000960764
-0.000435805
-0.00260946
-0.00591979
0.000399085
0.00367699
0.00291737
-0.000637088
1.84425e-05
0.000565599
-0.00631234
0.00108013
4.87938e-05
-0.00549984
0.00263974
0.00286922
-0.00159655
-0.00319921
0.00478912
-0.00542342
-0.000638985
-0.00189433
-0.00499826
-4.97386e-05
-0.000343936
-0.0064215
0.00517072
0.00130039
0.00197052
0.00135012
-5.62226e-05
0.0017599
-0.0014683
-0.000654778
0.00328736
7.19993e-05
0.00097292
-0.00099526
0.00170327
-0.00144999
-0.00029425
0.000332978
0.000278997
0.00482151
-0.0064282
0.00269624
-0.00332241
-0.00234098
-0.00314843
-1.47361e-05
-8.17543e-05
0.000242936
-0.000733333
0.00310363
0.000885658
-0.00414754
0.00341444
-0.00493451
-0.00034784
0.00245212
-0.00238811
-1.33949e-05
0.00471283
0.000252461
-0.00139375
-0.00496966
-0.00196556
0.000528289
0.00144712
-0.00645436
0.00212234
0.0043805
-0.00349683
0.000425987
0.00321061
0.000221375
-9.71384e-05
0.000571467
0.00038103
0.000252677
-0.000348128
0.00327969
-0.00293074
-0.00384615
0.00148369
-0.000814663
-0.00559136
0.000702418
-0.000173341
-0.000177854
-0.00351942
-9.69249e-05
0.00361513
-0.00157282
-0.00279396
0.00438247
-0.000447213
-3.78678e-05
0.000504723
-0.000106498
0.000838976
-0.000724287
-1.07307e-05
-0.000168721
-0.0052387
0.0045559
0.000696073
0.000195963
-0.0036892
0.00351497
-0.000198922
0.000694636
-0.000149806
-0.00221638
0.00318643
-0.000974745
0.0031992
-0.00106737
0.00208329
-0.000975164
0.00552074
0.000315492
-0.00583358
-0.00718493
0.00537542
-0.00318428
0.00421471
-0.000127167
0.000163588
0.000616676
0.00428779
-1.19765e-05
4.64149e-06
0.00467238
-0.00421719
0.00213279
-0.00369158
-0.00242583
-0.00365737
-0.00253034
0.0027813
-0.000196933
-1.06019e-06
5.19496e-05
0.00528353
0.000238321
-0.00315315
0.000932622
-0.000669968
-3.11079e-05
0.00198173
0.00288798
-0.00477308
0.000767303
-0.00535232
0.000823677
-0.00185542
-0.00337013
0.0035874
-0.000800258
0.00070207
-2.50865e-05
-0.000254188
-5.29662e-05
-2.92635e-05
0.00268767
-0.00022512
-0.00246097
0.000283197
-0.000296569
5.9221e-05
3.13335e-05
-5.86622e-05
0.0046683
4.19549e-05
-0.000513039
-0.0014411
-0.00118357
0.000142922
0.00104687
-0.000122956
0.000109255
1.37446e-05
0.00047803
-0.000585497
0.00253639
-0.00026819
-0.00224814
-0.00454268
0.00324472
-0.00472823
-0.00068634
-0.00453924
0.00303027
-0.00324075
0.00540387
-0.00558087
0.000300351
0.000360724
-0.00102765
0.000185636
-0.000236832
0.000112984
-0.00236862
0.00256582
0.000133963
0.000712009
-0.00551023
0.00361736
0.00187882
-0.00100192
-0.000174586
0.0010443
6.53661e-05
0.000538093
-0.00421623
-0.00475784
0.00416344
0.000671899
-0.00529057
0.00463247
2.97933e-05
3.2558e-06
0.00280098
-0.000302588
-0.0024727
-0.000472737
0.000404309
0.000289851
0.00114175
-0.0008934
0.002288
-0.00238446
0.000159466
-0.000546037
0.00129827
-0.00055882
-0.000502606
0.00435982
-0.00382236
-0.000492819
-0.0049921
0.00554973
-0.00285995
0.00323713
-0.00407287
0.00360352
0.000677915
-0.000831961
0.000171185
-2.3891e-05
0.00564408
0.00030933
0.00224934
0.00591904
-0.00532707
6.3834e-05
0.000476699
0.00358701
-0.00406545
6.94681e-05
-1.72799e-05
-1.73314e-05
-0.00597407
0.000362942
0.00129323
-0.000752651
-0.00584452
0.00521993
-0.002909
0.000377081
0.002535
-0.00321757
0.00375068
0.000214703
0.000887093
-0.00121377
0.000515683
0.000409973
-0.0040081
0.00364207
-0.00361958
-0.00589614
0.00521521
0.000672664
9.71259e-07
-0.000133889
-0.000103093
-2.90758e-05
-2.46229e-06
2.46229e-06
-0.00382091
-0.00152616
0.00273772
-0.00258134
-0.000107851
0.00196352
-0.00142537
0.000592697
-0.00483678
0.00424294
0.000463793
-0.00531391
0.00483644
-0.00525576
0.00143752
0.0058205
-0.0054436
-0.000264258
-0.00418895
0.00478117
-0.00618025
0.00536403
-0.00369183
-0.000764217
-0.00547734
0.0020673
0.00341453
0.000346152
0.000516203
-0.000270011
-3.25667e-05
-0.00378074
0.00323264
0.000599313
-0.000432555
6.67944e-06
-0.00658846
0.00525442
0.00393626
-0.00394015
7.60937e-07
-0.00552202
0.00509458
0.00027027
-0.00244295
0.00219371
0.000610222
-0.00382771
-0.00649398
0.00329003
0.00400518
-0.000232326
-0.00356905
-0.000263617
-0.00145732
0.00040195
0.000540795
-0.00290443
0.00370468
-0.00168856
0.000195411
-0.00361598
0.00385474
-0.000240488
0.000438114
-0.000410298
-2.08776e-05
-0.00558861
0.000942498
0.00318009
-0.00412533
-0.000153925
0.00084824
-0.000328356
-0.00442456
-0.000827592
-0.000116573
0.000964054
-0.000509996
-0.00432702
-0.00135669
-0.00516393
-0.00504611
0.00241559
0.00263458
0.00268235
-0.00519725
0.00253196
-0.00275675
0.00313432
-0.000361463
-0.00508757
-0.00154138
0.00020617
0.00133979
-0.00510519
0.000625898
0.00452091
-0.00139038
0.00582902
-0.00441644
-0.00549705
-1.30676e-05
-0.000313655
0.000348216
-0.00185404
-0.00321068
-0.000228015
0.000244792
3.37912e-05
-0.00278022
0.00338932
0.000226165
0.00095978
0.000222677
-0.000226413
0.000115857
-0.00351829
-0.00136267
0.00491828
-0.00617054
0.000478084
0.00570639
-0.00218919
-0.00285379
-0.00123789
0.00138072
0.00523888
0.00109766
-0.00457681
0.00016786
0.000151605
-0.00266985
0.00537039
0.000604611
0.000940348
9.20807e-05
-0.000901198
-0.000553252
-0.00524644
-0.00438319
-0.000231631
0.00461185
0.00144497
4.44845e-05
3.16736e-05
-4.90153e-05
-0.00410044
-0.000458422
0.000481847
-0.00043924
-4.87885e-06
0.00103735
-0.00438506
-0.000357605
-0.00478745
0.00516367
0.000191392
-0.000134212
-6.19836e-05
1.9885e-06
5.93259e-05
-0.000332618
-0.00120355
-0.000215505
-0.00453337
0.0013372
3.49267e-05
-0.000240891
0.000224757
-0.00185612
0.00135485
-0.00411042
0.00529587
-0.00118378
0.001265
-0.00537189
-0.00398946
-0.00148209
-0.00150687
-0.00151202
0.00236454
-1.2332e-05
-0.00327284
0.0042076
-0.000275018
2.89132e-05
-4.81137e-06
5.39771e-05
-4.94033e-05
0.000246001
0.000331173
-0.00442393
0.00240523
0.00219135
0.00152278
-0.00148814
-2.47548e-06
7.80014e-05
0.00147644
-0.000514875
-0.00321887
0.000159888
0.000849608
-0.00582857
0.00575791
-0.00231278
0.00336821
-0.00265564
0.00306318
-0.00480172
0.00458602
0.000706448
-0.000615989
-6.85989e-05
0.00386223
-3.02354e-05
-0.00383359
-0.00474749
0.000361021
-0.00363525
0.000592385
0.00304231
-9.11853e-05
0.000327768
-0.00502957
0.00450742
-3.35595e-05
0.00012124
-0.00189007
-0.00461153
0.000546026
-0.00444246
0.00403503
-0.00273916
-0.000141213
-0.00553647
0.00524939
-0.00321721
-0.000497727
-0.00023477
2.42312e-06
-0.00502348
0.00561076
-2.94707e-05
2.44585e-05
-0.000470723
-0.00137226
-0.000618063
0.00347202
-0.00284991
-3.58821e-05
0.000106881
-0.000864296
0.000927852
5.61924e-05
-0.00361651
-0.00396124
-0.00170395
0.00566535
-0.000866632
0.000986147
0.00299407
-0.00273099
-0.000239597
-0.00520502
0.00046679
0.00475187
0.00443805
-0.00476133
-0.000602167
-0.000215785
0.000278452
0.00275111
0.000434789
-0.00412199
-0.000583745
0.00470238
0.00557138
-0.00553445
6.5705e-05
0.000280312
-0.000438864
-0.00310341
0.00191882
-0.00588145
0.00387081
0.00220959
-0.00607453
-0.000251698
0.00386042
-0.00359459
0.000360497
0.000214167
-0.00046202
4.47512e-05
-4.3208e-06
-3.88685e-05
0.00610482
-0.00069398
-0.00539718
0.00604678
-0.00533945
-0.000686684
0.00624766
-0.00594313
-0.000270934
-0.000226675
0.00247535
-0.000754625
0.000169368
0.00292543
-0.00216565
-0.000563042
-0.00553331
-0.000174128
0.00577442
-5.0295e-05
0.00280286
0.000846509
0.00256757
-0.00325465
-0.00469469
-0.0017375
-0.00249913
0.005433
-0.00554038
0.000216158
0.0007117
-0.000647797
-4.05724e-05
0.00434669
-0.00571568
0.00327686
-0.0035163
-0.00706268
0.00424071
0.00524322
-0.00575135
-0.00609837
0.00317758
0.00291544
-0.00250192
0.00287956
0.00583084
-0.000992919
-0.00483298
-0.00141078
-0.00557956
0.00483137
-0.000345799
-0.00441837
3.99291e-05
5.6724e-06
-0.00508277
0.000958242
0.00558786
0.00034333
0.000262324
0.000289027
-0.000534843
-0.000705308
-0.00447858
0.00290185
0.00261611
0.0053687
-0.00040558
-0.00485479
0.00551302
-0.000169633
-0.00534236
-0.000806509
-0.00544876
0.000458864
-0.000499844
0.00154914
0.000650234
-0.00130048
0.000146405
0.00116707
0.000279436
-0.00259754
0.00361157
0.00516516
-0.00551157
0.000358914
-0.00121777
0.00026085
-0.00121531
0.00121975
4.0745e-05
-0.00275846
-0.00333922
3.20658e-05
-9.68448e-07
0.000482535
0.00417516
-0.00466441
0.00567965
-0.00180299
0.000946837
-0.000348108
-0.000566805
0.0023394
-0.00224338
-7.41034e-05
-0.00273165
-0.00278409
0.00551718
-0.000707527
-0.00480578
-0.0030154
0.000141271
0.000140132
-0.000224408
-0.000254913
0.000533601
0.000225144
1.92387e-05
-0.000224735
0.000510318
2.99684e-06
-0.00050172
0.00171114
-0.000298127
-0.00140241
-0.00600422
0.00559386
-0.000614332
-0.00497915
0.00510608
-0.00525668
0.000259832
1.71937e-05
-6.86777e-06
-8.19132e-06
-0.00493975
0.00456232
0.000370825
-0.00487028
0.00549718
0.00125297
4.55177e-05
5.23087e-05
0.00118381
-0.000962114
-9.74004e-05
-0.000514819
-0.00443301
-0.00270912
-0.000196736
-0.000178387
-0.001105
0.0021979
-0.00241498
-0.00467716
0.00219977
0.00262847
-0.000682407
0.00567692
-0.0049817
0.000837331
-0.000331626
-0.000488545
0.000372657
0.000604737
-0.00334552
0.00576865
0.00409839
-0.00112508
0.00576231
-0.00592558
0.0002652
0.000262754
-0.000377402
0.000204635
0.000333982
0.00542997
0.000233943
-0.00558207
-0.00498842
0.00547569
-0.000486074
0.00329852
-0.000301001
-0.002846
-0.00125256
0.000129388
0.0011412
-0.000308161
0.000298657
0.00503389
0.000801682
0.0054916
0.000419141
-0.000733886
-0.00039362
-0.00295934
-9.74525e-05
-0.00281058
-0.000282628
0.000289448
0.00518153
-0.00473071
0.000644955
0.000808771
-9.42322e-05
-0.000829414
0.00084679
-0.000892272
0.00102482
-0.000424165
-0.000354357
-4.29828e-05
-0.0011316
0.00355824
-0.00308297
-4.37461e-05
-0.000244931
0.00281301
-6.52763e-05
-0.00268291
0.00248475
0.000296036
0.00485495
-7.57226e-07
-7.00382e-07
0.000832848
0.000219684
-0.000293571
0.000151866
-0.00536589
0.00499612
0.000379982
0.00101255
0.00316464
0.00284822
-0.00402197
0.00126929
-0.000223805
0.000298371
0.00408949
-0.00115031
0.000359982
-0.00190962
0.00412067
-0.000208304
-0.00102624
0.000472889
0.000383316
0.00291124
-0.00557123
-0.000598643
-0.000819615
-0.00260875
0.00343287
-0.0061987
0.00490791
-0.000625975
-0.000959713
0.00122089
0.000548873
-0.0056646
0.00511804
0.00094214
0.000276009
0.00272064
-0.00450254
0.00179273
-0.00383838
0.00302329
-0.000808015
0.00235422
-0.00278921
-0.00216382
-0.00236175
-3.72912e-05
0.005554
-0.00167753
0.00290243
-0.00122179
-0.00480462
-0.0005435
0.00222028
-0.00246827
-0.00162327
0.0039089
-0.00228114
0.00534655
-0.00504946
-0.000214939
0.00285018
-0.00265541
-0.000186693
-0.000172951
0.0029435
-0.00267127
0.00613345
-0.005654
-0.000369524
6.14245e-05
0.000665708
6.6616e-05
-0.00088359
0.000901015
-0.00284049
0.0011643
-0.00570028
0.00492895
4.99236e-05
-2.84321e-05
-0.00410116
0.000159972
-0.00456228
0.00517223
-0.000509261
-0.0052127
0.00576389
-1.36484e-05
-4.45976e-05
-0.000324056
-0.00545756
9.41366e-05
0.000623867
-0.000174982
-0.00259201
0.00349892
-0.000348611
-0.00309084
-0.00245523
-0.00224912
0.000531085
-0.00551572
3.07157e-05
0.00550775
1.08634e-05
8.6181e-06
8.76874e-05
-0.00020332
-0.00018974
0.00335671
-0.00307006
0.00232121
-0.000162012
-0.00203797
0.00381169
-0.00393805
0.000137608
0.000280668
0.00523123
-0.0053399
-0.000241351
-0.00571345
0.000201401
-0.000430272
-0.00287018
0.00326048
-0.00312027
-3.45933e-05
0.000144807
0.00534884
0.000118048
0.00367774
-0.00013274
2.75779e-05
-0.0022813
0.00241519
-5.06699e-05
-0.000421063
0.00277817
0.00223136
0.00330919
8.23609e-05
-7.67283e-06
-7.25592e-05
-0.000872944
0.00618454
-3.72694e-05
-0.000187393
0.000553575
-0.00384931
0.0020104
0.00183569
0.00449406
0.00396861
0.000415144
-0.00251271
0.00545812
-7.27403e-07
5.29472e-05
-5.19999e-05
0.00256283
-0.00499365
0.00235987
-0.00277833
-0.00285238
0.00278268
0.000184874
-0.000270752
0.000156516
0.000379642
0.00317725
-0.00155546
0.000321824
0.00123985
-0.000172825
-0.00258755
0.00536696
-0.000710626
-0.00172433
-0.0018411
0.00362265
3.20453e-05
2.80311e-06
0.00231003
-0.00258752
-0.000306543
0.00376634
-0.0034067
-0.000370812
0.00395517
0.00294345
0.00119018
-0.000421856
0.000475324
-3.47256e-05
0.0030462
-0.00344851
0.000209626
-0.00019773
5.34735e-06
-8.56035e-06
-5.65156e-05
0.000965913
-0.000973231
0.003393
-0.00372886
-0.000235729
-0.00413469
0.00431182
0.00350669
-0.000516204
-0.00291733
-0.00240915
0.000973947
0.00147496
-0.0002589
0.000708878
0.00106903
0.00202048
-0.000699496
-0.00476565
3.45016e-05
-6.94517e-07
-3.33494e-05
0.00440608
-0.00372852
-0.00568102
0.00542722
0.000322512
0.0025116
-0.00563828
0.000636652
-0.00410364
0.00139231
0.00271587
0.00416376
-0.00354266
-0.000397184
0.000446561
-0.00013646
9.44408e-05
4.26889e-05
0.000578757
0.000136889
-0.000476381
-0.000144092
0.00302446
-0.00265572
-0.000236919
0.00276102
-3.74453e-05
-0.002674
0.000419083
2.62586e-05
-0.000176278
-8.30634e-06
-0.000218049
0.00242413
-0.00316694
0.00149047
-0.00109481
-0.00503415
2.66458e-05
0.000707547
-0.00537565
-0.00145135
-0.000920009
-0.00134447
-0.00631758
0.000389854
0.00593767
0.00315245
0.00365879
0.00241447
-0.00129072
-2.44503e-05
1.34765e-05
0.00156455
-0.0003477
-0.00460922
0.00299101
0.000103496
-0.00424139
-0.00045239
0.0046812
-0.00225052
-0.000172014
0.00229803
-0.00392589
0.00264145
-0.00510118
-0.000505016
-0.000205811
0.00167767
-0.00428073
0.00265373
0.00387945
-0.0059418
0.00207973
0.000397664
-0.000434995
4.34371e-05
-0.0011389
0.000938091
0.000206705
0.00503569
-0.00018241
-0.0048491
3.32264e-05
3.30669e-08
0.000473927
-1.73242e-05
-0.000446839
-0.000156104
0.000927898
0.00457281
-0.00491263
0.000137492
0.000108216
-0.00451358
0.00354505
0.00544698
-0.00494269
-0.000437515
-0.000276597
-0.00153511
0.00426772
0.0034972
-0.000239346
-0.00317245
-0.000528533
-0.00407405
0.000754914
0.00530919
-0.000258035
0.000557168
-0.00139498
0.00106737
-4.47242e-06
-0.000641041
0.000654553
5.03605e-05
0.00281678
-0.00279425
-0.0035289
0.000298228
0.00327741
-0.00076239
-0.00540769
1.86771e-05
0.00281696
0.00584709
-0.000177481
-0.00692143
0.0045771
-0.00537741
0.000561171
0.00480891
-0.000327251
-0.00315306
-0.00601499
0.000700097
0.000223627
-0.000239064
1.67185e-05
-2.67948e-05
0.00551292
-0.000937371
-0.0053694
0.000499073
0.000709077
0.00276954
-4.87244e-05
-0.00266307
-0.00481867
-0.000523132
0.00541444
-0.00104549
0.00205898
-0.000703242
0.00158678
-0.000616146
-0.00595504
0.000172982
0.00582115
0.00688269
-0.00466897
0.00053138
-0.000294728
-0.0058067
0.000845211
0.00505395
1.90454e-05
-1.76138e-05
-0.000379369
-2.2262e-05
0.00305391
-0.00281719
0.00323005
-0.000251366
0.000276107
7.9279e-05
4.41142e-06
-0.0010288
0.000956764
8.89468e-05
-0.0061683
0.00108432
0.00513021
-0.000761684
0.000662588
0.000111451
1.90454e-05
0.00478401
0.00174546
-0.00019226
-0.00154216
-0.00478202
0.000530624
-0.000113081
-0.00208883
-0.00299484
3.26148e-05
0.00303106
-1.51301e-05
-0.00128206
0.00456236
-8.35386e-05
8.30223e-05
-0.0063801
-9.78407e-05
-0.000649964
-0.000709729
-0.00573933
0.0064564
-0.000958654
-0.00019802
-0.0039046
0.0038959
-0.00354228
-0.000306266
-0.00403678
-0.00458735
-0.000211996
-0.00322289
-0.000593309
0.000597572
3.33971e-05
9.02118e-07
-9.67566e-06
0.000493603
0.00381474
-0.00370122
-0.00010862
-0.000580432
0.00579821
-0.00521393
-0.00522302
0.00394461
-8.32897e-05
0.000967483
-0.00319737
0.00223809
-0.000235591
-0.00115569
0.00216481
-0.00237469
0.00264337
0.000162042
-0.00334008
0.00161522
-0.00431581
0.00479181
-0.00543011
0.000695366
0.00475598
-0.00063882
-0.00147237
0.00536887
-0.00352244
0.00342433
-0.000948051
0.00273987
-0.00539702
-0.000659348
-9.03764e-05
1.51326e-06
0.000561712
-0.000399734
0.00557275
-0.00298171
-0.00257191
-1.7027e-05
3.47392e-05
-1.50775e-05
0.00621357
0.00311127
0.00051663
-0.00348039
0.000481693
-0.00540575
0.00491287
0.00442312
-0.00292427
3.39083e-05
2.96239e-06
0.00427191
0.000282707
0.00524448
-0.00473134
-0.000401762
0.00586011
-0.00493663
-0.000908664
0.000213113
-0.000220508
-0.000912186
2.13557e-05
1.53639e-05
-2.87886e-05
-0.000467715
0.00575479
0.00466951
0.000542359
-0.00513673
-0.000203629
0.00329514
0.000267826
-0.00472646
-0.000438406
0.000158311
0.00227156
0.000184559
-0.00463579
0.00444524
0.00327724
-0.00445468
0.00493453
0.00263208
0.0002507
0.0021601
-0.00194947
-9.88597e-05
0.00378452
-0.00430685
9.75468e-05
-8.19141e-06
0.000410052
0.000624586
0.00465778
2.50056e-05
-0.000296045
-0.00315122
0.00300944
-0.000320854
0.00105758
0.000253521
-0.00588355
0.000692472
0.00519196
0.00316472
-0.000464672
-0.00491579
-1.29953e-05
0.000180158
-0.000134245
0.000555302
0.0023373
-0.000167755
1.45176e-05
0.000169247
0.000707401
0.000828771
-0.00540578
0.00493798
0.00146904
-0.00108598
0.00391448
-0.00558415
0.0016733
-0.00517577
-0.00547275
-0.000155149
0.0056351
0.000731089
-0.00542682
-0.00519293
-0.000687504
0.000106502
0.00600238
-0.00268911
-0.000347287
-0.00324385
0.000551762
0.00304971
-0.00564666
0.00496549
-0.00413896
0.00376539
-0.00455189
0.0047303
-0.00629621
0.00312949
3.227e-05
1.02422e-05
-3.06341e-05
-0.00189215
0.00138624
0.000532952
3.1442e-06
0.000220693
0.00622015
-5.60972e-06
-0.000578188
0.00273529
-0.00256486
-0.000158943
0.00454933
-0.00515635
-1.73609e-05
0.000262165
0.00470284
-0.000489143
-0.00420676
-0.000737617
-0.00289729
-6.76865e-05
-6.95725e-05
-0.000258335
-0.000169472
-1.28875e-05
3.36909e-06
3.98284e-05
0.000226356
0.00519792
0.00400253
-0.000147099
-0.00387027
7.76372e-05
0.00379873
-0.00076118
-7.20902e-06
0.000789109
-0.00520558
0.00471356
0.000506827
0.000186935
-0.00334854
0.00317135
-0.00320846
0.00494115
0.000459424
-0.000565707
0.00038497
0.000112347
0.00394039
-0.00405488
-0.00560969
0.000618208
0.00503883
0.00273411
-0.00014262
-0.00257772
6.89266e-06
-0.000523026
0.000526339
-0.000143028
0.00047335
0.00488935
-0.00549921
-0.000145191
-0.000863852
-0.005789
-0.0049761
-0.000430167
-0.00312605
-0.00162641
-0.000101595
0.00173257
0.00532692
-0.000899842
0.00479658
-0.00541111
-0.002422
-0.00393695
-0.000207853
-0.00387856
0.00398879
-0.00410474
-0.000506223
0.00461874
0.000187567
-0.00229154
0.00210974
-0.000539907
-0.00400201
0.0045495
-0.0053682
-0.000432713
-0.00306297
0.00356023
0.000663855
0.00474357
-0.00541241
-0.00492122
0.00284097
-0.0046502
-0.000615045
-0.00457494
0.00190783
-0.00386607
0.00196371
0.000105682
0.00271562
-0.000580202
-0.00451096
0.00397209
-0.00108996
-0.00289011
-3.81307e-05
0.000103163
0.000605071
0.00276423
-0.00264158
0.00367508
0.00335716
-0.00347818
6.80471e-06
-0.00233774
-0.00033503
-0.00152847
0.00501644
0.00518319
-0.000384831
-0.00478253
-0.0016452
2.65094e-05
0.00162608
0.000550768
-0.000382257
-0.00565056
0.00462104
0.00545593
-0.00577319
0.00507004
0.000342933
-0.00051523
-0.000738797
0.00591276
-0.00516083
0.00277442
-0.00260427
-0.000159353
0.00333397
-0.000228207
-0.00301181
0.000116857
-0.000749159
0.000662269
-0.000575881
0.00530326
-0.00518103
-0.000480746
5.83869e-05
0.00299779
0.00335062
-0.00360465
-0.00344515
0.00307671
-7.77229e-06
-1.65874e-05
-0.00186748
0.000857551
-0.000419586
0.0043943
-0.00157811
-0.00264601
0.00424188
-0.00548401
-0.00599595
0.00081368
0.000694625
-7.53296e-05
-0.000602721
0.000695
0.00278376
0.00280738
-0.00109574
0.00261013
-0.000153298
-0.00452606
0.0050261
-0.00483581
-0.000148341
0.00364884
-0.00021601
-0.00342055
-0.000714826
-7.64605e-05
0.000269815
-0.000289054
2.16615e-05
-0.00586698
0.000126555
0.00324229
0.000178562
-0.00143876
0.000252803
0.00119562
0.0045322
-0.00521572
0.000503065
-0.000374166
0.00552298
-0.00510949
-0.00287869
0.000223314
-0.00527911
0.000326322
-0.00139852
-0.00390732
8.34676e-05
-0.000723887
0.000657338
-0.00506288
-0.000400575
0.00550635
0.00488561
0.000312651
-0.000785224
8.08573e-05
-0.000318398
-0.00199719
0.001485
-0.00145523
2.18828e-05
0.0034377
0.00174362
-3.07533e-05
1.65202e-05
0.00198776
-3.30644e-05
-0.00188429
-0.00261959
0.000159084
0.00247395
0.00311908
-0.00339714
-0.00484323
-0.00084583
-4.53541e-06
0.00087975
-5.46159e-05
0.00158733
-0.000823416
0.000614901
0.000228828
-0.000703201
-0.00527726
0.0036959
0.000556358
-0.000539338
-0.00443208
-0.000316152
0.00194833
0.0052806
-0.000547888
-0.000435006
-0.00497651
-0.00313758
-0.00482587
-0.000425528
0.000361533
-0.000473639
0.000321972
-0.00132132
0.00524246
-0.00138103
0.00168987
-0.000295906
0.00369489
0.00340349
-0.00309397
-0.00031106
0.00549295
-0.00346707
-0.00547328
0.00361757
-5.97391e-05
-0.00518853
-0.00063585
1.80894e-06
0.000325126
0.000233785
0.00291853
0.000480949
0.00529817
-0.00680017
0.00430161
0.00085012
0.000115517
-0.000964678
0.00235796
9.78114e-05
-0.000746247
0.000649461
0.0057452
-0.000539998
-0.00520308
0.000231623
-0.00159941
-0.000665002
-0.000161944
-0.00244278
-0.000638218
-1.94105e-05
0.000681515
0.0039561
-0.00525363
-0.000457242
-3.16775e-05
-0.000534318
0.000704731
0.00540089
-0.00476545
-0.000588436
0.000282699
-0.00403146
-0.000122169
0.000971639
-0.000585936
0.00379146
2.68342e-05
0.00178987
-0.000315593
-0.00144667
-0.00448819
-0.00180546
0.000421365
-0.000135322
-0.00580432
-0.00010658
0.00235162
-0.00240567
8.95901e-05
-0.00011134
-0.000309428
0.000551068
-0.000403471
1.4923e-05
0.000411568
-0.000455434
-0.00442427
0.00487558
0.00396778
-0.00016791
-0.00379812
-0.00146509
0.00117624
-0.00127836
0.000206741
0.00361229
0.000263872
0.00306383
-0.00328264
-0.00151129
-0.000158132
-0.00396075
6.43216e-05
0.00123766
0.00185464
-4.70438e-05
-0.00173721
0.00319836
-0.00608415
0.00651696
4.36433e-05
-1.50887e-05
-0.00573224
0.00530854
0.00106762
-0.000853424
9.99311e-05
0.000772011
0.00342765
-0.00494248
-0.000641387
-0.000115259
-0.000720939
-0.00252732
0.0023801
-0.000154045
-0.00114697
0.0013053
-0.000130419
1.53299e-05
0.000131066
-0.000522822
0.00556964
-0.00504593
-0.00540376
0.00506871
-0.00183926
0.00375294
0.00497446
0.000493218
-0.00568039
0.000570054
0.0051112
0.000111271
0.00216196
-0.000379998
0.00400775
0.00563742
-0.0006552
-0.000125304
0.000123406
2.00041e-05
0.00416402
0.00272226
-0.00365565
0.000569013
0.00189189
3.01834e-05
-2.97179e-05
1.56953e-05
-0.0012575
0.00110767
-0.00017262
-0.00211184
4.4388e-06
-0.000743149