/*--------------------------------*- C++ -*----------------------------------*\
| =========                 |                                                 |
| \\      /  F ield         | OpenFOAM: The Open Source CFD Toolbox           |
|  \\    /   O peration     | Version:  v2012                                 |
|   \\  /    A nd           | Website:  www.openfoam.com                      |
|    \\/     M anipulation  |                                                 |
\*---------------------------------------------------------------------------*/
FoamFile
{
    version     2.0;
    format      ascii;
    class       volVectorField;
    location    "450";
    object      ddtCorrDdt0(U);
}
// * * * * * * * * * * * * * * * * * * * * * * * * * * * * * * * * * * * * * //

dimensions      [0 1 -2 0 0 0 0];


internalField   nonuniform List<vector> 
10042
(
(-0.000188476 0.000325994 -1.41912e-18)
(-0.000135101 4.38036e-05 3.37056e-18)
(0.0012997 0.000590824 9.31064e-19)
(8.66237e-05 -2.7761e-06 7.51502e-20)
(-0.119871 0.00552637 -5.90085e-17)
(-0.000119059 -4.65239e-05 3.69853e-18)
(-0.175603 0.0577476 2.68758e-17)
(0.0240647 0.0309406 2.61635e-18)
(0.000840143 0.000427351 -3.36892e-18)
(-8.18477e-05 0.000153319 -3.03377e-18)
(0.029379 -0.00587385 -5.36509e-17)
(0.000108719 -3.41405e-06 1.73336e-19)
(0.000114928 1.73713e-05 -1.80751e-20)
(9.42821e-05 -1.58796e-06 -3.64499e-19)
(-0.00198019 -0.00106856 -2.39755e-18)
(-0.000141899 0.000119996 -5.14601e-18)
(-0.000143011 0.000163626 6.07933e-18)
(-6.04707e-06 -4.82398e-05 -1.90503e-18)
(-0.000175565 0.000330368 6.46505e-18)
(-0.0084371 -0.0129057 1.97058e-17)
(1.58297e-05 0.000194816 1.10397e-18)
(0.0280597 0.021521 1.44338e-18)
(7.53515e-05 -2.24023e-06 -7.50792e-20)
(0.000124458 -5.29171e-07 -1.67505e-19)
(-0.000129933 6.42799e-07 -3.10946e-18)
(0.00619872 0.00513714 1.73223e-17)
(-6.30216e-05 -0.00036227 -4.67642e-18)
(-0.00159756 0.000333019 -3.03576e-19)
(0.000263443 0.000500753 -7.36317e-20)
(-0.00119239 0.000563602 4.02223e-19)
(-8.01307e-05 0.000114922 8.81765e-18)
(0.00771125 -0.00164199 -1.37623e-16)
(-8.6789e-05 0.000131924 1.92864e-18)
(-0.000477383 0.00124219 3.19358e-20)
(0.00103282 0.00512276 -1.91878e-18)
(0.000122721 -7.84716e-06 8.29223e-20)
(0.00547328 0.00499163 -1.1017e-18)
(0.0100709 0.0038954 6.89245e-18)
(0.000115676 -8.87631e-06 -2.29493e-20)
(-0.00499102 0.00208907 -3.50418e-19)
(-0.00710703 -0.0128139 -8.30681e-18)
(-0.00181249 -0.000854815 -4.92271e-18)
(-0.172183 0.0597055 -8.10147e-17)
(-0.00071692 -8.82296e-05 -4.75779e-18)
(-0.116123 0.00600654 8.71922e-17)
(0.0163817 0.00990224 2.98193e-17)
(-0.00114633 -0.000623404 -3.62324e-18)
(0.0273458 0.00866019 7.47381e-18)
(0.00368825 0.00524219 -4.63339e-18)
(0.0190636 -0.00241513 -1.46541e-17)
(-3.72316e-05 -2.84943e-05 2.06793e-18)
(0.00155763 -0.00237811 1.90223e-18)
(-0.00146018 -0.00128332 -7.52361e-18)
(0.00306937 -0.00227304 -8.02795e-18)
(0.00517129 0.00518011 -5.78644e-18)
(-0.000136662 -1.2972e-05 -5.69183e-18)
(0.000300473 0.000542156 -7.71233e-19)
(-0.00106766 -0.000623604 -5.31212e-19)
(-0.000403807 0.00124178 -2.4916e-19)
(-0.00148981 -0.00122118 -1.88332e-18)
(-0.000107017 3.75908e-05 -5.80556e-18)
(-0.000139861 0.000224931 2.75128e-18)
(0.000828279 0.0053503 1.40595e-17)
(0.00122229 0.000579345 9.99806e-19)
(-0.000590214 -0.00109875 -2.55425e-17)
(-0.000255976 0.00134405 7.20036e-20)
(-0.000381255 -0.00078595 7.94682e-18)
(-0.00654561 -0.0102914 -2.4839e-17)
(-0.00500153 0.0166813 2.19521e-17)
(-0.000433783 9.63315e-05 1.33223e-18)
(0.0029039 -0.00249098 1.09988e-19)
(-0.00734859 -0.0139746 1.78222e-17)
(-0.000731963 -0.000134513 -4.97252e-19)
(-0.00277046 -0.00495941 2.20341e-17)
(-0.000312108 -0.00063693 8.19402e-18)
(0.000130203 2.07305e-06 1.33365e-19)
(-0.112092 0.00386396 5.33737e-17)
(-0.000170878 0.000340389 -8.43226e-19)
(-0.00369284 -0.00333092 -8.95549e-18)
(-0.169255 0.057074 2.65826e-17)
(0.003566 0.00501631 -2.37743e-18)
(-0.130743 0.00835292 -6.60843e-17)
(-0.000567516 0.000393584 8.42115e-19)
(-0.00167608 -0.000786179 1.15679e-17)
(-0.000311906 -0.000761391 6.69656e-18)
(-3.34819e-05 -0.000192155 2.79625e-18)
(-0.000174683 0.000274567 -3.01033e-19)
(-0.0207397 0.0128069 -3.80951e-17)
(-0.000508812 -0.000272731 3.93394e-18)
(-0.000174443 0.00028557 5.77392e-18)
(0.00060603 0.0015266 7.88729e-19)
(-0.129361 0.00584423 -4.4639e-17)
(-0.00167067 0.000429419 1.33178e-18)
(0.00144961 -0.0021814 -2.75505e-18)
(-0.00114313 0.000463736 5.27623e-18)
(-0.000108499 0.000536214 4.06268e-20)
(-0.000133708 0.00036533 1.86069e-19)
(-0.000236607 0.00035275 1.24293e-18)
(-0.00474543 0.00202958 5.63817e-19)
(0.000543274 0.000601629 4.57595e-19)
(9.43154e-07 -1.01754e-05 -8.07766e-19)
(-0.0142725 0.0171877 -8.27847e-18)
(-0.00400985 0.0351819 1.27791e-17)
(-4.11472e-05 -0.000195892 -3.28233e-18)
(-0.00151163 -2.08136e-05 3.49863e-18)
(-0.0114141 0.0044609 -2.75026e-18)
(-0.000206588 0.000264537 1.81056e-18)
(-0.000140542 0.000363514 -2.17427e-18)
(1.10211e-05 0.00018888 -6.91038e-19)
(0.000128492 -0.000237385 4.76379e-19)
(9.86726e-05 1.18441e-06 1.21287e-18)
(-0.00020165 0.000170275 -3.19484e-18)
(-0.0019449 0.00361726 6.76321e-20)
(0.00223853 0.0170689 -7.78319e-18)
(-0.000517873 -0.00107215 1.94988e-17)
(-0.000215356 0.000158224 -6.92625e-19)
(-0.000111232 0.00026111 -1.13064e-17)
(-0.000179074 0.000331719 -6.70103e-18)
(-6.92e-05 0.000531399 6.28826e-19)
(-2.12348e-05 -0.00258773 4.28731e-17)
(-0.000467463 -0.000260586 -3.84746e-18)
(0.053198 0.0292641 -5.04929e-17)
(-0.000793578 2.48111e-05 3.54509e-18)
(-5.89799e-05 0.000248615 -3.00468e-19)
(-0.0132337 0.0174068 -9.00794e-18)
(-0.000603728 0.000388123 1.78856e-19)
(0.0495459 0.0300995 -3.68443e-18)
(0.00208652 0.00626585 1.70432e-17)
(-0.0109896 0.00414111 -1.24102e-18)
(-0.000186077 0.000273508 -8.99534e-19)
(-0.00393129 -0.00345765 2.78136e-17)
(-0.000549469 -0.000518501 1.02982e-17)
(0.0113686 -0.00512004 -7.57342e-17)
(0.0154893 0.0300873 -3.68155e-18)
(0.000486664 0.000576721 8.88852e-19)
(-0.00984293 0.0106964 1.73756e-19)
(0.00767811 -0.00197971 -5.10151e-18)
(0.000470746 0.00152775 6.70306e-19)
(0.027582 0.00984117 8.76717e-18)
(-0.0220994 0.0126839 6.04754e-17)
(-0.00165352 -0.000248194 -4.82641e-18)
(-0.000110665 0.000244457 6.60314e-18)
(-0.00138742 -0.000302821 -5.99225e-19)
(-0.0112104 0.0247756 3.37384e-17)
(0.001156 -0.00130463 -5.78337e-18)
(-0.000187652 0.00016331 -1.97827e-19)
(-0.00661376 0.0133819 -1.25204e-17)
(0.000326652 -0.000409658 2.63038e-19)
(-0.000293417 0.000377656 -1.49196e-18)
(-0.00285113 0.00197209 -1.68113e-18)
(0.000991768 0.00038362 -9.74784e-19)
(-3.91486e-06 -1.76343e-05 -9.55984e-19)
(-0.104498 0.0477179 1.53474e-17)
(0.00258203 -0.00312484 1.05014e-16)
(-3.56239e-05 -0.000394896 1.27152e-18)
(0.00011238 1.78043e-05 -2.19671e-20)
(-0.000406388 -0.00165607 -2.01381e-18)
(-0.00013372 0.000244059 -4.86166e-18)
(-0.0104338 0.0102944 1.19372e-18)
(0.00526229 -0.0024867 6.03475e-17)
(0.0433848 -0.00652529 4.76994e-18)
(0.010376 0.026557 -1.92298e-17)
(-0.000108658 0.000227827 3.98109e-18)
(0.000953196 0.000428096 -4.66687e-19)
(-0.000594833 0.000619657 -4.45665e-19)
(-0.000506692 -0.000475092 -7.7909e-18)
(-0.012322 -0.00239116 -2.22381e-18)
(-0.00385802 -0.00464213 -2.61495e-17)
(0.0101845 -0.00149525 -4.36217e-17)
(-0.000623773 -0.00295863 -6.66582e-17)
(0.0027351 -0.00142376 -8.59853e-19)
(5.94543e-06 0.000231857 2.12864e-18)
(-0.14279 0.00597586 4.68586e-17)
(-0.00994405 -0.0138251 4.85071e-17)
(-0.00678444 -0.00323657 -8.87152e-18)
(-0.142489 0.0656449 8.17261e-17)
(0.0282896 0.0104041 3.17478e-17)
(-0.000770577 -6.39643e-05 2.21333e-18)
(-0.00663052 -0.0112819 -1.73525e-17)
(-0.00326851 0.00622614 9.4497e-18)
(-0.000436944 -0.00175894 -6.4715e-18)
(0.00622759 -0.00224693 -5.53019e-17)
(-0.00045782 -0.000835219 3.86542e-18)
(0.00180184 0.00612702 -5.84054e-18)
(-0.00174619 -0.000880437 1.10463e-17)
(-0.00242679 -0.00289532 5.32187e-17)
(0.00945762 0.0345757 2.84003e-17)
(-0.00018882 0.00104367 4.39659e-19)
(0.0337016 -0.00498265 -6.26039e-17)
(0.00147294 0.00335884 2.17006e-18)
(-0.0186543 -0.0241704 1.77253e-18)
(-0.00140396 -0.000394034 4.62599e-18)
(-0.104217 0.0494462 -3.20142e-17)
(-0.155941 0.00620553 1.88424e-17)
(0.0154461 0.020563 5.78408e-19)
(-0.139007 0.0284939 -2.11486e-17)
(0.00389472 0.00377291 -9.19322e-18)
(-0.000178578 0.000310238 6.85154e-18)
(0.000102864 5.46275e-06 -6.33605e-20)
(-0.00104285 0.00238866 -4.11715e-19)
(-0.00577252 -0.00415096 9.69242e-18)
(-0.000199921 0.00111454 -4.90245e-19)
(-0.000142356 0.000144302 -2.44836e-19)
(-0.0109824 -0.0138259 -5.86856e-17)
(-0.000418251 -0.000853628 -1.57368e-17)
(0.000275493 0.000135788 4.36607e-21)
(-0.0215283 -0.0251091 -1.00443e-19)
(-5.2263e-05 -0.000373571 6.3558e-18)
(-5.95322e-06 -5.95102e-05 -1.51888e-18)
(-4.27188e-06 -0.00023866 7.03567e-18)
(-0.0472099 0.0431529 3.53661e-18)
(8.0142e-05 -3.14426e-06 -4.22987e-19)
(-0.0116379 -0.00244118 2.40817e-18)
(-0.0242293 -0.00494361 6.82188e-17)
(-0.000463055 -0.00155162 1.03082e-17)
(0.00884732 0.0355625 -1.53822e-17)
(-0.000226039 -0.000509893 -7.08926e-18)
(-0.000123469 0.000256468 4.8582e-19)
(-0.00467421 0.0167763 -5.43183e-18)
(6.23839e-05 0.000103338 -1.88606e-18)
(-0.0018753 0.00391024 2.51348e-18)
(-0.00074836 -0.00165913 -6.33005e-18)
(-0.0284914 0.00206139 -1.15258e-17)
(0.0108655 0.00406823 1.00836e-17)
(-0.00275223 -0.00163774 1.10435e-18)
(0.00692827 0.00515064 1.21632e-17)
(0.0160181 0.0338601 1.54136e-17)
(-0.000206993 0.000160115 -2.01416e-18)
(0.00581231 0.0307586 1.3864e-17)
(0.00316272 -0.00287287 -1.2995e-18)
(0.000880334 0.000398048 -2.29533e-19)
(-0.0139838 -0.0108042 -1.5401e-17)
(-2.72722e-06 0.000243457 -1.23296e-18)
(0.00300835 -0.00310273 1.4697e-18)
(0.00133519 0.000641227 4.49891e-18)
(-0.00298646 0.00220347 -1.95081e-19)
(0.000216566 0.000145992 -6.21554e-20)
(9.53999e-05 -9.85478e-06 1.41848e-19)
(0.00284578 0.00202515 -5.09239e-20)
(0.00659378 -0.00428133 -1.81804e-18)
(-0.000104844 0.000222624 -3.29582e-18)
(-0.000823338 -2.81982e-05 -7.72892e-18)
(-0.000540568 0.000546371 -9.71372e-20)
(-0.00217632 0.00357338 1.11681e-18)
(-0.00018824 0.000167865 1.53163e-19)
(-9.33323e-05 9.01856e-05 -1.06476e-18)
(7.54524e-05 -3.99876e-06 -5.9613e-20)
(-0.00158865 4.83317e-05 5.276e-18)
(0.00297406 -0.00196656 2.10069e-19)
(-3.74812e-06 -3.61968e-05 1.77926e-18)
(8.84081e-05 1.40942e-06 -5.2019e-19)
(-0.000391226 0.000103066 4.36645e-18)
(-0.00271012 0.000659337 -3.25159e-18)
(-0.0300729 0.00225459 2.06141e-18)
(0.00926467 0.0267786 -1.09616e-17)
(0.0487227 -0.0053565 4.59839e-18)
(-0.00696105 -0.00357496 -1.385e-17)
(-0.00695352 -0.00244931 -1.83714e-17)
(-0.00218249 -0.00108973 -1.06037e-17)
(0.0173514 0.0121525 -2.03008e-17)
(-0.15169 0.0570578 -4.91513e-17)
(0.00268874 0.00189638 4.58312e-18)
(-0.000190016 0.000271192 -5.18756e-19)
(8.9371e-05 -9.5705e-06 -1.41213e-19)
(-0.00105415 0.00227798 5.15641e-18)
(0.00020945 0.000129097 -7.21195e-20)
(0.026778 0.0215805 3.47703e-19)
(0.00398259 -0.000288611 -8.63673e-18)
(-0.000189976 0.000262561 1.71612e-18)
(-3.17306e-06 -0.000217064 -6.71394e-18)
(-0.00576644 -0.00450825 -2.82377e-17)
(0.00302822 -0.00196277 1.99314e-18)
(-0.0242072 -0.00388644 -3.56324e-17)
(-0.00713728 -0.00284126 2.21579e-17)
(-0.0198923 0.0180972 -2.83614e-17)
(0.00144656 0.0035152 -3.82131e-18)
(0.00646235 -0.00479195 1.29829e-17)
(0.00018577 0.000102736 -1.4429e-19)
(0.00554208 0.00137524 1.38947e-18)
(0.00125413 -0.00129286 3.5381e-18)
(-0.00346874 0.00661478 -1.18081e-17)
(-0.000431203 -0.000123418 1.20686e-18)
(0.005825 0.00537007 -4.74943e-18)
(0.00665473 -0.00523677 -7.53917e-17)
(0.000264176 0.00010982 -4.05937e-20)
(0.000999259 0.00067063 -5.53732e-18)
(-0.150091 0.0539026 4.27039e-17)
(0.0166868 0.0111019 -2.52466e-17)
(-0.000148937 0.000979805 3.47168e-20)
(-9.69548e-05 3.42599e-05 -3.35951e-19)
(-0.00254468 0.000641292 -1.69108e-18)
(-0.139708 0.0667831 8.75764e-17)
(0.00465934 0.0154551 1.84568e-17)
(-0.0107969 0.0257786 -3.89289e-17)
(-3.38388e-05 -2.7243e-05 -2.00753e-18)
(9.60362e-05 2.914e-06 1.84828e-19)
(-0.00021897 0.000162054 -1.32246e-18)
(0.000847416 0.000476924 2.2505e-18)
(0.0122185 0.0333755 1.87203e-17)
(-0.000309499 0.000102731 2.03095e-18)
(-0.000117114 6.32205e-05 1.79272e-18)
(-2.72189e-05 0.000226543 -9.45202e-19)
(-0.000207054 -0.00048118 5.79504e-18)
(0.0118416 0.00220982 1.07153e-17)
(-0.00226485 -0.00071679 1.16112e-17)
(-0.0151001 0.00775469 2.10241e-18)
(-0.167146 0.0188882 -4.43236e-17)
(-0.00138316 -0.00111636 2.75692e-20)
(-0.210564 0.0409823 4.27788e-18)
(-0.000166224 0.000191407 -6.61958e-18)
(0.00534725 0.00131239 3.45623e-18)
(-5.2552e-05 -0.00031329 4.8997e-18)
(0.0192838 -0.00110513 -4.65886e-17)
(-0.011838 0.0188846 1.32991e-17)
(-0.0708683 0.0266548 7.67801e-17)
(0.0289993 0.00104765 8.70187e-18)
(0.000142792 1.68032e-05 -2.56262e-19)
(0.00409579 -0.000477936 -8.89283e-19)
(-0.000455595 0.000115308 -1.7536e-18)
(-0.00251801 -0.000159197 9.99949e-18)
(0.00658084 0.00540655 -1.40739e-17)
(-1.33568e-05 -0.000136661 1.3918e-18)
(-0.00464716 0.00558082 6.83775e-18)
(9.43116e-05 -2.19557e-07 -2.46318e-19)
(8.59008e-05 -9.03854e-06 -1.08447e-18)
(-0.000752753 -6.45535e-05 -4.01934e-19)
(-0.0158438 0.0079141 -1.33659e-17)
(4.37423e-07 -6.31518e-05 -5.95527e-19)
(0.00136271 0.00320229 3.74138e-18)
(-0.000439212 -0.000445043 -9.98841e-20)
(-0.00216477 -0.000585945 -8.49318e-18)
(0.0136081 0.0239994 -2.68692e-17)
(-0.000187236 0.000178225 3.98484e-18)
(-4.13991e-05 -0.000394059 -4.10618e-18)
(-2.69505e-05 5.9062e-05 -1.92651e-18)
(0.00117975 0.000497297 -9.36189e-19)
(-0.00721092 0.00757401 1.96601e-18)
(0.0163617 0.0204864 3.02133e-18)
(-0.00723953 -0.00210474 2.30805e-17)
(-0.037929 0.0441598 -6.52817e-17)
(0.0116288 0.00283557 -1.73922e-17)
(0.00174235 0.00575518 -3.82227e-18)
(-0.00047511 -0.000496271 3.73928e-18)
(9.69401e-05 -3.90928e-06 -1.49095e-19)
(0.000832968 0.00160562 1.13592e-18)
(-4.09951e-06 -4.10909e-05 8.51421e-20)
(0.0378442 0.0416725 1.61613e-17)
(-0.00047393 -0.000146152 -1.86715e-18)
(-0.0003538 0.00132428 -5.03502e-19)
(0.0328378 0.00333217 4.91074e-17)
(-0.000207726 0.000240719 1.96124e-18)
(-0.0027829 9.4061e-05 3.34769e-18)
(-0.00178423 -0.000774833 -8.39714e-18)
(0.0336388 0.00471385 -4.78969e-17)
(0.00153888 -9.51403e-05 3.18883e-18)
(-0.00258835 -0.00161293 1.04307e-17)
(-0.0102564 0.00428545 7.44999e-19)
(-0.00463805 0.00522693 7.60103e-18)
(-0.000681374 0.00252184 -9.39649e-19)
(-0.000168521 0.000294991 2.51839e-19)
(-0.145414 0.0408054 2.49287e-17)
(-0.00655419 0.0141432 9.11371e-18)
(0.00230054 0.000491656 1.53192e-18)
(-0.00667001 0.00772127 1.00274e-17)
(-8.9386e-05 0.000332581 -3.31591e-18)
(1.24599e-06 0.000242816 -5.63724e-19)
(-8.77115e-05 0.000329344 -5.48526e-19)
(-0.00285114 5.51652e-05 1.74386e-17)
(-0.0219372 0.033544 2.6379e-17)
(0.00517561 -0.00232507 1.39915e-18)
(-1.05025e-05 -0.000109876 2.82202e-18)
(-0.00136184 -0.0011095 2.51839e-18)
(1.30606e-09 -1.13414e-05 -3.446e-18)
(-3.97005e-06 -0.000118427 3.98686e-18)
(-0.00949088 -0.0128889 -2.47079e-17)
(-0.000171851 0.00031068 -7.13648e-18)
(0.000448943 0.000114669 -1.33375e-18)
(0.00611 -0.00207877 4.69347e-18)
(6.48489e-05 0.000155002 -1.51494e-18)
(-0.0989953 0.0397371 4.96674e-17)
(0.0456654 0.0408024 -6.02866e-17)
(-0.00313507 -0.00498846 -2.33556e-17)
(-0.124176 0.0736562 8.99967e-17)
(0.0534128 -0.00490232 2.24217e-17)
(-0.00409847 0.00193018 -4.95774e-20)
(-0.0132413 -0.0110993 -1.60398e-17)
(-4.62757e-05 -0.000387195 9.70549e-18)
(0.0196638 -0.00163222 3.16868e-17)
(5.56417e-07 -4.1948e-05 -1.17508e-18)
(-0.000981043 -0.00066995 3.13653e-18)
(0.0423891 0.0113084 3.77916e-17)
(-0.000114057 1.59824e-05 -6.30959e-19)
(-0.00264605 -0.000219814 -2.79684e-18)
(-0.0143043 -0.0321414 -5.61058e-17)
(9.31409e-05 -1.92313e-06 -4.81937e-20)
(8.76448e-06 0.000203323 -1.98258e-19)
(-0.00431614 -0.00817734 -2.49756e-17)
(-0.0194292 -0.0223577 1.90976e-20)
(-0.00025126 0.00127326 4.48834e-19)
(0.000348385 -0.000321413 -2.09546e-18)
(0.00885703 -0.0017242 -7.16716e-19)
(-0.0130133 0.0186594 -2.05525e-17)
(-2.89142e-06 0.000229106 -2.4657e-18)
(-0.00576752 -0.0104091 1.21742e-17)
(0.0609302 0.021969 -2.48868e-17)
(5.47848e-05 0.000101369 2.16742e-20)
(-6.43072e-06 -8.30895e-05 -4.62768e-19)
(0.000306665 0.000118612 -8.80694e-19)
(-0.000193744 0.000225262 6.55587e-19)
(8.99782e-05 -8.1946e-06 1.04819e-18)
(0.000248027 9.79812e-05 -3.40464e-19)
(-0.193793 0.03883 1.44636e-17)
(-0.0107634 0.0338009 3.7753e-17)
(-0.00104958 -0.000686607 8.17849e-18)
(-0.168835 0.0213907 -4.50654e-17)
(8.51277e-05 -3.42699e-06 3.60453e-19)
(-0.000274391 0.000128396 -1.85746e-18)
(-0.027671 0.0234389 7.83248e-17)
(0.00177714 0.000381302 -9.51895e-19)
(-0.0885748 0.0381775 1.08685e-17)
(0.00487464 0.0162179 -5.50727e-18)
(-0.0015501 -0.000831279 -9.25014e-18)
(0.00045756 3.27745e-05 -6.56038e-19)
(0.000332925 -0.000276266 3.60953e-19)
(-0.0208708 0.000702018 -6.77888e-18)
(0.00295879 -0.00160346 6.19908e-18)
(-0.00424155 0.00171513 1.38354e-19)
(-0.00128316 0.000205164 6.73885e-18)
(0.0263117 -0.0074302 6.06567e-17)
(-0.000447245 -0.00148107 8.93299e-18)
(-0.136736 0.0106859 -5.25821e-17)
(-0.00183355 -0.000991578 2.66912e-18)
(-4.65463e-05 0.000279799 9.55415e-19)
(-0.000228887 0.00015159 -1.72604e-18)
(-0.0313636 0.00952528 5.48449e-17)
(-6.38843e-05 0.000276243 -1.80072e-18)
(-0.00124963 -0.00305329 6.71146e-18)
(-0.000332831 7.49434e-05 5.88855e-18)
(0.00145665 -7.00602e-05 -8.37321e-19)
(0.00495541 -0.00210185 -3.38366e-17)
(0.00348383 0.00416996 8.87177e-18)
(-0.000131666 0.000208594 -5.58145e-18)
(0.000106642 4.36006e-06 1.34135e-19)
(0.0125265 -0.00159374 -1.79649e-17)
(-0.000191387 0.0002399 1.07772e-19)
(0.00345228 0.0043945 -8.08389e-18)
(-0.00121738 0.00202158 2.16866e-19)
(0.000191967 0.0001168 1.51501e-19)
(-0.179241 0.0262823 -1.74862e-17)
(-0.12871 0.0717851 -6.1046e-18)
(2.62211e-05 0.000209371 -1.84551e-18)
(-0.000475402 -0.000986051 3.67295e-18)
(0.00546518 -0.00213676 -5.98202e-18)
(9.02221e-05 2.09997e-06 6.27515e-19)
(-0.000142854 0.00021731 4.68004e-18)
(-3.46828e-05 0.000262116 6.56045e-19)
(0.0122356 -0.00152304 1.25913e-17)
(-3.21115e-05 0.000215869 -3.29842e-18)
(7.46429e-05 -2.16483e-06 3.7608e-19)
(-0.00463335 -4.90432e-05 -6.21185e-19)
(0.0337673 0.03098 -2.77915e-18)
(-0.00319264 0.0158929 -2.27732e-17)
(-3.64917e-06 -4.60434e-05 6.44299e-18)
(-0.00282734 0.00629845 -5.91562e-19)
(0.0487401 0.00295052 2.31432e-17)
(0.0126791 0.00216788 -1.58023e-17)
(-5.20932e-05 0.000187438 1.93276e-18)
(-0.000161498 0.000309375 2.82674e-19)
(0.0146506 0.0305934 -1.35587e-18)
(0.00219049 0.00047242 6.38644e-18)
(-4.73379e-05 0.000267823 -2.18331e-18)
(-0.00320288 -0.00342495 7.15897e-18)
(0.00092982 0.000517029 1.80236e-18)
(0.000226664 0.00011261 3.18604e-19)
(-0.000798378 -0.00172304 4.68004e-18)
(0.000186057 2.71248e-05 -9.65273e-19)
(-0.00797222 -0.000941135 7.88562e-19)
(-0.000203992 0.000234903 -1.55735e-18)
(-7.02383e-05 0.000277655 2.63229e-18)
(0.0374167 -0.00451414 2.28055e-18)
(0.000113965 1.90701e-05 2.28467e-19)
(0.00252516 -0.00150751 6.83299e-19)
(-0.000120534 1.49711e-05 -3.26941e-19)
(-0.00119097 0.000220774 -2.96185e-18)
(-0.00422071 0.00587636 -2.00829e-18)
(2.42097e-05 0.000207727 5.28559e-19)
(0.00110475 0.000475519 9.50677e-19)
(-0.0440279 0.0295417 -4.98412e-17)
(-0.00135143 0.00047011 3.56322e-19)
(-0.156249 0.0499391 -6.44154e-17)
(0.0024908 0.0019513 -5.86369e-18)
(-1.8064e-07 -1.97694e-05 3.43293e-18)
(-9.77094e-07 -1.66816e-05 -3.54945e-18)
(-0.0164839 0.0174441 7.28724e-18)
(-0.000372582 -8.14438e-05 -2.84326e-18)
(-0.000108998 0.000217144 1.49923e-18)
(-4.46848e-05 5.55055e-05 -1.46537e-18)
(0.00253831 0.000315293 -2.78078e-18)
(-0.00391247 -0.00142728 -1.03821e-17)
(-0.185443 0.0556088 -3.85086e-17)
(-0.00018657 0.000251554 9.32314e-19)
(-0.00773357 -0.00121899 -5.4045e-19)
(-0.0167747 -0.0258653 -1.47154e-17)
(0.0129521 0.00154249 -6.59529e-18)
(-5.5791e-06 -7.27277e-05 1.3038e-18)
(-8.00614e-05 0.00029478 1.74955e-18)
(0.00186083 -0.000520167 -1.14837e-18)
(-4.34397e-05 -0.000209363 1.26863e-18)
(-0.000168315 0.000223711 3.19341e-18)
(-0.00757802 -0.00156813 7.59771e-18)
(0.0103528 -0.0018121 -2.80615e-17)
(-0.000116781 -3.02865e-05 9.72838e-20)
(0.00238831 0.00613958 -1.31329e-17)
(0.00892099 0.000107013 -3.41105e-18)
(0.00852375 9.2004e-05 1.23651e-17)
(-0.000312861 -0.000832556 -7.88045e-18)
(8.03145e-05 -4.50181e-06 5.45369e-20)
(0.0427956 0.0284956 -3.19643e-17)
(-0.0206029 0.0017358 -9.55402e-18)
(-0.0170398 -0.0248547 -2.4016e-19)
(0.000425931 3.54449e-05 -2.32635e-18)
(0.00197147 -0.000462047 -7.60949e-19)
(0.00169497 0.000374855 2.19128e-18)
(5.88451e-05 0.000166937 1.1229e-18)
(-0.0156399 -0.00360542 1.00107e-16)
(-0.00347132 0.00743291 -2.88263e-18)
(0.0024853 0.00045123 2.30119e-19)
(0.000172305 0.000649883 5.06409e-19)
(0.000117402 5.22106e-06 -3.87903e-20)
(-0.00021495 -0.000648505 -2.25843e-18)
(0.0552979 0.0283271 3.63274e-17)
(0.00380514 0.00407288 1.00071e-17)
(-4.69664e-05 -0.000381321 9.79362e-18)
(0.0149741 -0.00106006 2.15107e-17)
(-0.0185545 -0.0209454 2.90535e-19)
(-0.0244396 -0.00806461 7.12456e-19)
(-0.0114153 0.00534295 1.35894e-17)
(-0.000140711 0.000184872 -1.05227e-18)
(0.000461793 0.000610056 -2.36323e-18)
(0.022217 -0.00584054 1.20556e-17)
(-0.00536653 0.0132464 -1.4173e-17)
(-0.00859107 0.0175376 1.3932e-17)
(-0.0101621 -0.0056753 9.44814e-18)
(-0.00231602 -0.00171624 -9.06753e-18)
(-0.00112289 -0.0034484 -5.27985e-18)
(-3.31999e-05 -0.000158602 1.39435e-18)
(0.00147431 0.00301613 -3.14e-18)
(-0.000521161 -0.000986181 1.90564e-17)
(-3.79849e-05 -0.000171195 -1.58243e-18)
(0.0403608 -0.00637224 -1.79306e-18)
(7.33827e-05 -4.62955e-06 3.33487e-20)
(-0.000162071 0.000205058 -2.95324e-18)
(0.0173337 0.00793712 2.47116e-17)
(-3.54495e-05 -0.000207582 -1.59384e-18)
(0.0342476 0.0186373 1.60819e-17)
(0.00235077 0.00182041 9.67945e-18)
(0.0222371 0.0211672 -8.4376e-18)
(-0.00444884 0.00290392 6.72713e-20)
(-2.33191e-05 -0.000244271 2.65648e-19)
(0.00369504 0.000408518 2.60594e-18)
(0.00133335 0.00523448 -8.86223e-19)
(0.0145209 -0.00741976 -4.65169e-18)
(-0.0110202 0.00576495 -5.8232e-18)
(-0.0147628 -0.00378144 2.61911e-18)
(4.53095e-06 -7.71026e-05 1.00513e-18)
(0.0194127 -0.00359903 1.06614e-18)
(-0.000455854 0.00220239 -3.28385e-18)
(-0.00014603 0.000489804 1.04109e-18)
(-7.83459e-05 -7.16293e-05 5.01598e-18)
(0.00079827 0.00168237 -1.52434e-19)
(-3.05428e-05 5.68453e-05 -4.65005e-18)
(-0.00247399 -0.0017567 -2.0234e-17)
(-0.00248923 0.0159477 1.70803e-17)
(-0.00519835 -0.00596293 -2.0156e-17)
(-3.18251e-05 -0.000378545 -5.42698e-18)
(-0.00144463 0.000485604 -2.77182e-18)
(-4.04175e-05 5.20968e-05 4.27612e-18)
(-0.000185786 0.000170598 -8.13256e-18)
(-0.0121051 -0.0112185 7.17144e-18)
(-2.84657e-06 0.000181944 -5.46371e-18)
(-0.00142089 0.00178965 -3.00674e-20)
(0.0296386 0.0206772 3.23898e-17)
(0.000173726 1.80762e-05 6.30969e-19)
(-0.00621728 0.013362 2.63075e-17)
(0.0281666 -0.00582199 -1.23328e-17)
(-9.32933e-05 5.90705e-05 -1.37844e-18)
(-0.000810469 -0.0026069 -1.36128e-17)
(0.00948447 0.00926095 2.18385e-17)
(-3.8683e-05 -0.000240318 -2.17132e-18)
(0.00514213 0.0364792 -3.55746e-17)
(0.00147363 0.000622507 2.44182e-18)
(-3.77986e-06 -5.08875e-05 -1.51381e-19)
(-0.000326743 -0.000457908 -2.6896e-18)
(-8.01882e-05 0.000258031 6.40952e-18)
(1.14936e-06 -2.90424e-05 -5.19733e-19)
(0.000936554 0.00356776 3.12414e-18)
(-0.000146422 -0.00065447 -2.88387e-18)
(-0.0197732 -0.0183033 1.13763e-18)
(-0.00163493 -0.000152502 -9.78245e-19)
(-8.77126e-05 0.000278492 4.15314e-18)
(-9.33008e-05 0.00135302 -2.66187e-18)
(-0.00424898 0.00621984 -4.73633e-18)
(0.00591285 0.00755739 1.93058e-18)
(-5.4201e-05 0.000256005 -5.59022e-18)
(0.00503173 0.000432841 -1.75285e-18)
(0.00042375 0.000588831 4.69836e-19)
(0.0101993 0.00327401 -1.68875e-17)
(-0.000159755 -0.000310048 -1.13711e-17)
(-0.00469043 0.00266018 -7.1641e-20)
(0.000483928 0.000120377 8.69567e-19)
(-0.000529307 -0.00192244 1.53696e-18)
(0.000350778 -0.000203437 -1.54344e-18)
(-7.59323e-05 0.00033416 8.91738e-19)
(-0.188542 0.0288743 -2.79218e-17)
(0.000297531 0.000116736 1.16726e-18)
(-0.011604 -0.0107711 1.92473e-17)
(-4.6019e-05 0.00026757 -4.69409e-18)
(0.00311876 0.000235758 -4.02082e-18)
(0.000114152 5.17317e-06 -3.69743e-19)
(0.00792154 0.00618972 8.26222e-18)
(-0.000118668 -1.92578e-05 -1.20935e-20)
(0.00944208 0.00988896 1.03977e-17)
(-6.81645e-05 0.000989581 1.22751e-20)
(0.00369877 0.0350449 2.53064e-17)
(-6.9694e-06 -0.000151796 -5.39792e-18)
(-0.168484 0.0567419 8.26743e-17)
(0.000325113 -0.00045938 -1.80701e-19)
(-0.00215757 -0.000621773 5.31351e-20)
(-1.31335e-06 -0.000142239 2.16843e-18)
(-0.000234153 -0.00056333 -2.54984e-18)
(-0.000102314 0.000318733 4.392e-18)
(0.000736013 0.00347673 -1.47061e-18)
(-4.78116e-05 6.25615e-05 -8.9305e-18)
(-0.00675356 -0.0126888 1.47449e-17)
(-0.0128981 -0.00944889 6.76612e-18)
(0.0329952 0.0184591 1.38289e-17)
(0.00365175 0.0022413 -2.81347e-18)
(-0.00704039 -0.00179049 -3.7083e-18)
(-0.0001471 0.000156372 1.09779e-18)
(-0.0081107 0.000210061 1.69405e-18)
(0.0169274 0.00937541 2.88728e-17)
(-8.0628e-05 0.000139063 -3.96202e-18)
(-0.00319469 -0.00317521 -2.80988e-17)
(-0.0151312 -0.00462507 -5.5589e-19)
(-0.0159712 0.0197108 -1.022e-17)
(0.0281334 -0.00696456 7.47796e-18)
(-0.110456 -0.00186412 1.82875e-17)
(0.00139487 0.00558096 -1.06541e-17)
(-0.000909491 0.00016255 -1.60053e-18)
(-2.09606e-05 -0.000158035 3.08999e-18)
(0.00533252 0.0010483 -1.2244e-18)
(0.00118407 0.00356914 -1.14438e-18)
(0.0134496 -0.00648507 -4.45874e-18)
(0.000134932 1.27559e-05 -8.47287e-19)
(-0.000412617 0.00265497 3.52884e-19)
(0.00822584 0.025775 -1.40601e-17)
(-3.3402e-06 -1.54949e-05 -7.55808e-19)
(-0.000170984 0.000171245 9.20717e-18)
(0.00537184 0.000420905 -4.76155e-18)
(-0.0836618 0.0327301 -3.08932e-17)
(-0.00207031 -0.000656202 -3.47465e-18)
(-0.00261225 0.00597636 9.00241e-19)
(0.0223534 -0.00731707 -1.55436e-17)
(-1.22955e-05 -0.000220114 2.46224e-18)
(-0.163582 0.0595571 9.94792e-18)
(0.000147966 7.18487e-06 1.20093e-19)
(-3.50371e-07 0.00020562 1.71486e-18)
(-0.00113485 0.000610436 -1.93411e-18)
(0.000915394 0.000566782 -2.21187e-18)
(0.017056 -0.00139665 1.94293e-17)
(0.0198962 0.00937942 6.83043e-18)
(-0.0562334 0.0283836 -5.12314e-18)
(-5.37438e-05 7.50138e-06 1.42857e-18)
(-0.0602566 0.00501658 -8.88001e-17)
(-0.00270655 -0.00375993 4.84126e-17)
(0.0344942 0.04039 1.54116e-17)
(0.0131654 -0.00584322 3.38691e-18)
(0.0178743 0.0119961 2.95144e-17)
(0.00699253 0.0299957 -1.52054e-17)
(-0.00879221 0.00208823 -3.5138e-19)
(-0.00041341 -0.000451474 -1.15119e-17)
(-0.000355935 5.30804e-05 -3.64867e-18)
(-0.00342696 -0.00355404 -4.12283e-17)
(0.0233713 -0.00176718 2.21553e-17)
(-0.000152262 0.000211999 4.61677e-19)
(-0.00486778 -0.000175944 7.01702e-18)
(-0.142525 0.0445751 2.86252e-17)
(-0.000226554 0.000229597 1.3199e-18)
(-5.37537e-05 0.000324854 1.13357e-18)
(-0.00015055 0.000499618 -2.39375e-18)
(-0.0017836 9.46788e-05 3.47854e-18)
(-0.000101394 0.000324941 9.37932e-19)
(0.00164745 -0.000242121 2.93824e-18)
(-0.0167553 0.0160656 -4.6968e-17)
(-0.160044 0.0271818 3.36361e-18)
(0.00157141 -0.00021447 1.4022e-18)
(-0.00012665 0.000234632 -1.0481e-18)
(0.0137346 -0.00538573 -5.01027e-17)
(-0.0891362 0.0459633 2.34332e-17)
(-0.000174003 0.000186372 -2.86037e-18)
(-5.01855e-05 0.000216486 1.26686e-18)
(-3.82773e-05 -3.38026e-05 4.46849e-18)
(-0.000198703 0.000222995 1.24051e-19)
(-0.027505 0.023211 1.82519e-17)
(0.0205741 0.0085778 -1.96097e-17)
(-0.023174 -0.00603533 6.46205e-18)
(-0.0015248 -0.000112887 -8.60467e-20)
(-5.59648e-05 0.000328547 3.45101e-18)
(0.000992082 0.000280017 -2.48242e-18)
(-0.000371208 -0.00182342 8.01114e-18)
(-0.000103309 -9.75562e-06 1.90556e-19)
(0.00885225 0.00503999 -5.24129e-18)
(-0.00132497 -0.00103763 8.94809e-18)
(-0.148081 0.0153984 7.46366e-17)
(-0.000137222 0.000211774 -1.17503e-18)
(-8.80335e-05 6.90469e-06 -2.4296e-18)
(-0.00821752 0.00518382 1.26183e-19)
(-0.000100286 0.000195232 -8.31972e-19)
(0.0122594 -0.00217208 -2.02359e-17)
(-0.011111 -0.00608718 -7.35229e-18)
(0.00346877 0.00040536 8.26685e-19)
(-0.0180258 -0.0149745 1.1403e-17)
(-0.0384906 0.0260042 3.03153e-18)
(-0.000937746 0.000115392 1.13827e-18)
(-0.000172779 0.000206163 -6.50342e-19)
(-0.210819 0.0419135 -1.93499e-18)
(0.030119 -0.00484809 2.52089e-17)
(-0.00725294 0.000991684 3.88993e-18)
(0.00148618 0.000672629 1.50729e-18)
(0.00559025 0.0348204 8.82902e-18)
(-0.0127755 -0.0135549 -9.12151e-19)
(-0.00136302 -0.00294306 -1.91492e-17)
(-0.00038685 -0.000401811 1.02666e-17)
(-3.22501e-05 4.99889e-05 -1.81198e-19)
(7.32913e-07 0.000189863 3.1441e-18)
(-0.0260808 -0.00318004 -3.21267e-17)
(0.00349889 0.00227487 1.01417e-18)
(-0.0102203 -0.0102867 1.03376e-17)
(-3.80366e-06 -5.6731e-05 1.1974e-19)
(0.00876344 0.0231762 1.64845e-17)
(-0.017622 0.0345446 1.21494e-17)
(-8.57426e-05 0.000285854 4.9224e-18)
(-0.00014607 0.000270155 7.6756e-18)
(-0.00785637 -0.0114036 -3.508e-17)
(-7.07732e-05 -0.000356393 -6.91164e-18)
(0.00011459 -3.10366e-06 6.14331e-19)
(-0.00299938 0.00120751 -1.55312e-18)
(-0.00614474 -0.00830148 -5.86297e-17)
(-0.0274009 0.0191964 -1.72477e-17)
(-0.188864 0.0314743 2.52556e-17)
(0.0023602 -0.00138332 -1.31418e-19)
(0.0137044 0.0126554 -1.68569e-17)
(-0.00827918 0.00215786 -3.34131e-19)
(0.000117724 -1.40297e-05 1.48467e-19)
(0.00011198 6.12878e-06 -1.99546e-20)
(-2.96804e-05 -0.000394678 4.88963e-18)
(-0.0259661 -0.00179198 2.8302e-17)
(-3.1242e-05 -0.000131659 1.9013e-18)
(-0.000104468 0.000279223 -3.81121e-18)
(0.0140248 0.0121299 2.22874e-17)
(-0.000307053 -0.000615236 2.56936e-18)
(-0.00514058 0.0160578 1.5188e-17)
(-5.33418e-05 -2.06234e-05 2.17468e-18)
(-6.49413e-05 -0.000256842 -3.71497e-18)
(9.26576e-05 1.27918e-06 2.83678e-19)
(-3.27353e-05 -0.0003997 -1.67994e-18)
(0.0154969 0.0285532 -5.45322e-19)
(-3.42065e-05 -0.000142539 -3.23198e-19)
(-0.000380753 9.25706e-05 1.18575e-18)
(0.0070843 0.0103848 -2.19672e-17)
(-0.0112212 -0.00316461 -1.2392e-17)
(-0.0177356 -0.0153993 1.23029e-17)
(-3.61052e-05 -0.000223451 8.1665e-19)