/*--------------------------------*- C++ -*----------------------------------*\
| =========                 |                                                 |
| \\      /  F ield         | OpenFOAM: The Open Source CFD Toolbox           |
|  \\    /   O peration     | Version:  v2012                                 |
|   \\  /    A nd           | Website:  www.openfoam.com                      |
|    \\/     M anipulation  |                                                 |
\*---------------------------------------------------------------------------*/
FoamFile
{
    version     2.0;
    format      ascii;
    class       pointVectorField;
    location    "450";
    object      pointDisplacement;
}
// * * * * * * * * * * * * * * * * * * * * * * * * * * * * * * * * * * * * * //

dimensions      [0 1 0 0 0 0 0];


internalField   nonuniform List<vector> 
10356
(
(0 0 0)
(0 0 0)
(0 0 0)
(0 0 0)
(0 0 0)
(0 0 0)
(0 0 0)
(0 0 0)
(0 0 0)
(0 0 0)
(0 0 0)
(0 0 0)
(0 0 0)
(0 0 0)
(0 0 0)
(0 0 0)
(0 0 0)
(0 0 0)
(0 0 0)
(0 0 0)
(0 0 0)
(0 0 0)
(0 0 0)
(0 0 0)
(0 0 0)
(0 0 0)
(0 0 0)
(0 0 0)
(0 0 0)
(0 0 0)
(0 0 0)
(0 0 0)
(0 0 0)
(0 0 0)
(0 0 0)
(0 0 0)
(0 0 0)
(0 0 0)
(0 0 0)
(0 0 0)
(0 0 0)
(0 0 0)
(0 0 0)
(0 0 0)
(0 0 0)
(0 0 0)
(0 0 0)
(0 0 0)
(0 0 0)
(0 0 0)
(0 0 0)
(0 0 0)
(0 0 0)
(0 0 0)
(0 0 0)
(0 0 0)
(0 0 0)
(0 0 0)
(0 0 0)
(0 0 0)
(0 0 0)
(0 0 0)
(0 0 0)
(0 0 0)
(0 0 0)
(0 0 0)
(0 0 0)
(0 0 0)
(0 0 0)
(0 0 0)
(0 0 0)
(0 0 0)
(0 0 0)
(0 0 0)
(0 0 0)
(-0 -9.91765e-06 -0)
(-0 -9.91765e-06 -0)
(0 0 0)
(0 0 0)
(0 0 0)
(0 0 0)
(0 0 0)
(0 0 0)
(0 0 0)
(0 0 0)
(0 0 0)
(0 0 0)
(0 0 0)
(0 0 0)
(0 0 0)
(0 0 0)
(0 0 0)
(0 0 0)
(0 0 0)
(0 0 0)
(0 0 0)
(0 0 0)
(0 0 0)
(0 0 0)
(0 0 0)
(0 0 0)
(0 0 0)
(0 0 0)
(0 0 0)
(0 0 0)
(0 0 0)
(0 0 0)
(0 0 0)
(0 0 0)
(0 0 0)
(0 0 0)
(0 0 0)
(0 0 0)
(0 0 0)
(0 0 0)
(0 0 0)
(0 0 0)
(0 0 0)
(0 0 0)
(0 0 0)
(0 0 0)
(0 0 0)
(0 0 0)
(0 0 0)
(0 0 0)
(0 0 0)
(0 0 0)
(0 0 0)
(0 0 0)
(0 0 0)
(0 0 0)
(0 0 0)
(0 0 0)
(0 0 0)
(0 0 0)
(0 0 0)
(0 0 0)
(0 0 0)
(0 0 0)
(0 0 0)
(0 0 0)
(0 0 0)
(0 0 0)
(0 0 0)
(0 0 0)
(0 0 0)
(0 0 0)
(0 0 0)
(0 0 0)
(0 0 0)
(-0 -9.91765e-06 -0)
(-0 -9.91765e-06 -0)
(0 -9.91455e-06 0)
(0 -9.93363e-06 0)
(0 -9.89429e-06 0)
(0 -9.91547e-06 0)
(0 3.41276e-05 0)
(0 4.39297e-05 0)
(0 4.48676e-05 0)
(0 4.87506e-05 0)
(0 5.81766e-05 0)
(0 -9.93834e-06 0)
(0 3.59059e-05 0)
(0 6.19112e-05 0)
(0 -9.91445e-06 0)
(0 3.02237e-05 0)
(0 4.07185e-05 0)
(0 3.20665e-05 0)
(0 2.38853e-05 0)
(0 -9.91691e-06 0)
(0 -9.9274e-06 0)
(0 1.46012e-05 0)
(0 1.56867e-05 0)
(0 4.67536e-05 0)
(0 4.79747e-05 0)
(0 3.74366e-05 0)
(0 -9.91342e-06 0)
(0 -9.91503e-06 0)
(0 9.10429e-06 0)
(0 1.02182e-05 0)
(0 3.72871e-05 0)
(0 3.91887e-05 0)
(0 4.34344e-05 0)
(0 2.96334e-05 0)
(0 5.41154e-05 0)
(0 7.13862e-05 0)
(0 3.74639e-05 0)
(0 2.67281e-05 0)
(0 1.95236e-05 0)
(0 2.68769e-05 0)
(0 3.94917e-06 0)
(0 3.69102e-05 0)
(0 7.23168e-05 0)
(0 7.19291e-05 0)
(0 0.000107757 0)
(0 0.00010945 0)
(0 0.000144443 0)
(0 0.000143542 0)
(0 0.000178724 0)
(0 0.000183128 0)
(0 0.000215737 0)
(0 0.000222957 0)
(0 0.000253024 0)
(0 0.000261083 0)
(0 0.000288387 0)
(0 0.000296446 0)
(0 0.000321029 0)
(0 0.000327696 0)
(0 0.000349422 0)
(0 0.000354125 0)
(0 0.000373297 0)
(0 0.000368415 0)
(0 0.000389274 0)
(0 0.00038387 0)
(0 0.000401486 0)
(0 0.000395929 0)
(0 0.000410791 0)
(0 0.000404697 0)
(0 0.000417799 0)
(0 0.000411063 0)
(0 0.000422188 0)
(0 0.000415368 0)
(0 0.000424371 0)
(0 0.000417571 0)
(0 0.000424637 0)
(0 0.000417411 0)
(0 0.000431622 0)
(0 0.000430322 0)
(0 0.000437787 0)
(0 0.000434838 0)
(0 0.000442781 0)
(0 0.000438235 0)
(0 0.000446175 0)
(0 0.000440359 0)
(0 0.000448269 0)
(0 0.000441392 0)
(0 0.000449395 0)
(0 0.00044158 0)
(0 0.000433301 0)
(0 0.000449627 0)
(0 0.000441034 0)
(0 0.000449025 0)
(0 0.000439673 0)
(0 0.000447675 0)
(0 0.000437306 0)
(0 0.000445323 0)
(0 0.000434 0)
(0 0.000441727 0)
(0 0.000430151 0)
(0 0.000437937 0)
(0 0.00042592 0)
(0 0.000416998 0)
(0 0.000434319 0)
(0 0.000421561 0)
(0 0.000430339 0)
(0 0.000416931 0)
(0 0.000426245 0)
(0 0.000412555 0)
(0 0.000422081 0)
(0 0.000408219 0)
(0 0.000417614 0)
(0 0.000404012 0)
(0 0.000413098 0)
(0 0.000397372 0)
(0 0.00040961 0)
(0 0.000395445 0)
(0 0.000406821 0)
(0 0.000391943 0)
(0 0.000403903 0)
(0 0.000388422 0)
(0 0.000401462 0)
(0 0.000385477 0)
(0 0.000431124 0)
(0 0.000399654 0)
(0 0.000383263 0)
(0 0.000415303 0)
(0 0.000397183 0)
(0 0.00038153 0)
(0 0.000392406 0)
(0 0.000395774 0)
(0 0.000380612 0)
(0 0.000395972 0)
(0 0.000380651 0)
(0 0.000396191 0)
(0 0.000381535 0)
(0 0.000397494 0)
(0 0.00038328 0)
(0 0.000399735 0)
(0 0.000386014 0)
(0 0.000412631 0)
(0 0.000402566 0)
(0 0.000389718 0)
(0 0.000406877 0)
(0 0.000394562 0)
(0 0.000451953 0)
(0 0.000412384 0)
(0 0.000400229 0)
(0 0.000418315 0)
(0 0.000406988 0)
(0 0.000425566 0)
(0 0.000414848 0)
(0 0.000433731 0)
(0 0.000423663 0)
(0 0.000443601 0)
(0 0.000442653 0)
(0 0.000433142 0)
(0 0.000413452 0)
(0 0.00042359 0)
(0 0.000403399 0)
(0 0.00041416 0)
(0 0.000433896 0)
(0 0.000425408 0)
(0 0.000405294 0)
(0 0.000417367 0)
(0 0.000437044 0)
(0 0.000429929 0)
(0 0.000409693 0)
(0 0.000423125 0)
(0 0.00044319 0)
(0 0.000437237 0)
(0 0.000457267 0)
(0 0.0004519 0)
(0 0.000431383 0)
(0 0.000446609 0)
(0 0.000425696 0)
(0 0.000441709 0)
(0 0.000462441 0)
(0 0.000458247 0)
(0 0.000437166 0)
(0 0.000454338 0)
(0 0.000432921 0)
(0 0.000450993 0)
(0 0.00047198 0)
(0 0.00046921 0)
(0 0.000448154 0)
(0 0.000466653 0)
(0 0.000445673 0)
(0 0.00046474 0)
(0 0.000443621 0)
(0 0.000463382 0)
(0 0.00044177 0)
(0 0.000460644 0)
(0 0.000439653 0)
(0 0.000458702 0)
(0 0.000438172 0)
(0 0.000458827 0)
(0 0.000437844 0)
(0 0.000458696 0)
(0 0.000437803 0)
(0 0.000459207 0)
(0 0.000438203 0)
(0 0.000460033 0)
(0 0.000439028 0)
(0 0.000461196 0)
(0 0.000440452 0)
(0 0.000462818 0)
(0 0.000442494 0)
(0 0.000465732 0)
(0 0.00044514 0)
(0 0.000469713 0)
(0 0.000448554 0)
(0 0.000473674 0)
(0 0.00045274 0)
(0 0.000478462 0)
(0 0.000457707 0)
(0 0.000489368 0)
(0 0.000480571 0)
(0 0.000489688 0)
(0 0.000420172 0)
(0 0.000416725 0)
(0 0.000371605 0)
(0 0.000427008 0)
(0 0.000371686 0)
(0 0.000375825 0)
(0 0.000410765 0)
(0 0.000410097 0)
(0 0.000403887 0)
(0 0.000402536 0)
(0 0.000362637 0)
(0 0.000457458 0)
(0 0.000714158 0)
(0 0.000695665 0)
(0 0.000692487 0)
(0 0.000729206 0)
(0 0.000673075 0)
(0 0.000670632 0)
(0 0.000650871 0)
(0 0.000648856 0)
(0 0.000629011 0)
(0 0.000627909 0)
(0 0.000645799 0)
(0 0.000627246 0)
(0 0.000642988 0)
(0 0.00062694 0)
(0 0.000640741 0)
(0 0.00062637 0)
(0 0.000611677 0)
(0 0.000611125 0)
(0 0.000624275 0)
(0 0.000609093 0)
(0 0.00059465 0)
(0 0.000592909 0)
(0 0.000605007 0)
(0 0.000589983 0)
(0 0.000576835 0)
(0 0.000576273 0)
(0 0.000562043 0)
(0 0.000563411 0)
(0 0.000576023 0)
(0 0.000564663 0)
(0 0.000550461 0)
(0 0.000551997 0)
(0 0.000564709 0)
(0 0.00055249 0)
(0 0.000537354 0)
(0 0.000537194 0)
(0 0.000549798 0)
(0 0.00053421 0)
(0 0.000519094 0)
(0 0.000516176 0)
(0 0.000529268 0)
(0 0.000512131 0)
(0 0.000524289 0)
(0 0.000508411 0)
(0 0.000519993 0)
(0 0.000505891 0)
(0 0.000492811 0)
(0 0.000491548 0)
(0 0.000504329 0)
(0 0.000490799 0)
(0 0.000503127 0)
(0 0.000490748 0)
(0 0.000502665 0)
(0 0.000491913 0)
(0 0.000478438 0)
(0 0.000480934 0)
(0 0.000493761 0)
(0 0.000483605 0)
(0 0.000495253 0)
(0 0.000486105 0)
(0 0.000496366 0)
(0 0.000488815 0)
(0 0.000478253 0)
(0 0.000482102 0)
(0 0.000491727 0)
(0 0.000485576 0)
(0 0.000474937 0)
(0 0.000478025 0)
(0 0.000487925 0)
(0 0.000479429 0)
(0 0.000488787 0)
(0 0.000480073 0)
(0 0.000488953 0)
(0 0.000480862 0)
(0 0.000471019 0)
(0 0.000472174 0)
(0 0.000481816 0)
(0 0.000472885 0)
(0 0.000482292 0)
(0 0.0004725 0)
(0 0.000462203 0)
(0 0.00048178 0)
(0 0.000470607 0)
(0 0.000479614 0)
(0 0.00046726 0)
(0 0.000476094 0)
(0 0.000462375 0)
(0 0.000471235 0)
(0 0.000455928 0)
(0 0.000447315 0)
(0 0.000439609 0)
(0 0.000431405 0)
(0 0.000489586 0)
(0 0.000113046 0)
(0 0.000104794 0)
(0 9.30513e-05 0)
(0 9.70098e-05 0)
(0 8.5694e-05 0)
(0 8.97487e-05 0)
(0 7.86928e-05 0)
(0 8.29493e-05 0)
(0 9.43147e-05 0)
(0 8.76533e-05 0)
(0 7.65288e-05 0)
(0 8.12976e-05 0)
(0 7.06075e-05 0)
(0 7.53756e-05 0)
(0 6.51673e-05 0)
(0 6.99516e-05 0)
(0 8.05781e-05 0)
(0 7.52481e-05 0)
(0 6.48924e-05 0)
(0 7.04226e-05 0)
(0 6.02887e-05 0)
(0 6.58291e-05 0)
(0 5.62356e-05 0)
(0 6.1536e-05 0)
(0 5.27843e-05 0)
(0 5.84154e-05 0)
(0 4.97674e-05 0)
(0 5.57797e-05 0)
(0 4.74013e-05 0)
(0 5.35559e-05 0)
(0 4.57457e-05 0)
(0 5.22183e-05 0)
(0 4.44993e-05 0)
(0 5.13815e-05 0)
(0 4.37573e-05 0)
(0 5.10132e-05 0)
(0 4.34672e-05 0)
(0 5.10755e-05 0)
(0 4.36756e-05 0)
(0 5.17247e-05 0)
(0 4.4376e-05 0)
(0 5.27481e-05 0)
(0 4.55584e-05 0)
(0 5.41245e-05 0)
(0 4.71943e-05 0)
(0 5.61115e-05 0)
(0 4.93173e-05 0)
(0 5.86062e-05 0)
(0 5.20872e-05 0)
(0 6.15477e-05 0)
(0 5.5214e-05 0)
(0 6.51291e-05 0)
(0 5.88367e-05 0)
(0 6.91336e-05 0)
(0 6.33177e-05 0)
(0 7.38992e-05 0)
(0 6.83846e-05 0)
(0 7.96197e-05 0)
(0 7.39488e-05 0)
(0 7.62234e-05 0)
(0 5.89046e-05 0)
(0 6.30341e-05 0)
(0 6.85499e-05 0)
(0 5.79798e-05 0)
(0 6.35182e-05 0)
(0 7.46321e-05 0)
(0 6.96152e-05 0)
(0 5.88832e-05 0)
(0 6.50169e-05 0)
(0 5.46161e-05 0)
(0 6.08774e-05 0)
(0 7.16589e-05 0)
(0 6.7783e-05 0)
(0 5.77998e-05 0)
(0 6.4424e-05 0)
(0 6.5395e-05 0)
(0 7.51881e-05 0)
(0 7.16435e-05 0)
(0 6.10452e-05 0)
(0 6.83952e-05 0)
(0 5.79783e-05 0)
(0 6.54715e-05 0)
(0 5.54878e-05 0)
(0 6.26252e-05 0)
(0 5.3238e-05 0)
(0 6.03487e-05 0)
(0 5.14248e-05 0)
(0 5.99247e-05 0)
(0 5.02349e-05 0)
(0 5.67124e-05 0)
(0 4.87409e-05 0)
(0 5.50684e-05 0)
(0 4.72557e-05 0)
(0 5.4202e-05 0)
(0 4.65927e-05 0)
(0 5.42106e-05 0)
(0 4.63211e-05 0)
(0 5.44525e-05 0)
(0 4.64432e-05 0)
(0 5.47774e-05 0)
(0 4.69548e-05 0)
(0 5.55695e-05 0)
(0 4.78762e-05 0)
(0 5.68682e-05 0)
(0 4.92593e-05 0)
(0 5.84534e-05 0)
(0 5.11378e-05 0)
(0 6.07527e-05 0)
(0 5.35857e-05 0)
(0 6.42226e-05 0)
(0 5.66188e-05 0)
(0 6.77253e-05 0)
(0 6.00964e-05 0)
(0 7.1372e-05 0)
(0 6.42125e-05 0)
(0 7.6108e-05 0)
(0 6.9135e-05 0)
(0 8.18698e-05 0)
(0 7.53337e-05 0)
(0 8.85715e-05 0)
(0 8.25055e-05 0)
(0 9.63157e-05 0)
(0 9.02207e-05 0)
(0 0.000104917 0)
(0 9.87356e-05 0)
(0 0.000114374 0)
(0 0.000108168 0)
(0 9.28581e-05 0)
(0 0.000102383 0)
(0 8.74495e-05 0)
(0 9.71761e-05 0)
(0 8.25143e-05 0)
(0 0.000107812 0)
(0 6.27945e-05 0)
(0 6.63177e-05 0)
(0 8.63906e-05 0)
(0 4.74732e-05 0)
(0 4.64978e-05 0)
(0 7.64868e-05 0)
(0 8.31156e-05 0)
(0 4.26514e-05 0)
(0 5.74604e-05 0)
(0 0.000111416 0)
(0 6.33606e-05 0)
(0 4.01477e-05 0)
(0 3.84474e-05 0)
(0 3.68767e-05 0)
(0 4.42678e-05 0)
(0 3.90829e-05 0)
(0 0.000464077 0)
(0 0.000422421 0)
(0 0.000414698 0)
(0 0.000404463 0)
(0 0.000396843 0)
(0 0.000416775 0)
(0 0.00035649 0)
(0 0.000376932 0)
(0 0.000428906 0)
(0 0.000356533 0)
(0 0.000377264 0)
(0 0.00035555 0)
(0 0.0003844 0)
(0 0.000376808 0)
(0 0.000388533 0)
(0 0.00036489 0)
(0 0.000378566 0)
(0 0.000355259 0)
(0 0.000365579 0)
(0 0.00034234 0)
(0 0.00034986 0)
(0 0.000325729 0)
(0 0.000330458 0)
(0 0.000303974 0)
(0 0.000307455 0)
(0 0.000281267 0)
(0 0.00039267 0)
(0 0.000607667 0)
(0 0.000606672 0)
(0 0.000583386 0)
(0 0.000580127 0)
(0 0.000504625 0)
(0 0.000499594 0)
(0 0.000496686 0)
(0 0.00048128 0)
(0 0.000533548 0)
(0 0.000553838 0)
(0 0.000471164 0)
(0 0.000485391 0)
(0 0.000477396 0)
(0 0.000117087 0)
(0 0.00046646 0)
(0 0.000466053 0)
(0 0.000484973 0)
(0 0.000548148 0)
(0 0.000443066 0)
(0 0.000420365 0)
(0 0.000411422 0)
(0 0.000481286 0)
(0 0.000423463 0)
(0 1.17321e-06 0)
(0 -8.32716e-07 0)
(0 1.72524e-06 0)
(0 -3.81982e-07 0)
(0 2.21702e-06 0)
(0 1.41959e-07 0)
(0 0.000284064 0)
(0 0.000309444 0)
(0 6.38744e-05 0)
(0 0.000360084 0)
(0 0.00047674 0)
(0 0.000489029 0)
(0 0.000257526 0)
(0 -2.23764e-06 0)
(0 -1.63782e-06 0)
(0 0.000389361 0)
(0 0.000284566 0)
(0 0.000309904 0)
(0 0.000519641 0)
(0 0.000480407 0)
(0 0.000491371 0)
(0 0.000332166 0)
(0 0.00051096 0)
(0 8.60021e-07 0)
(0 -8.79363e-07 0)
(0 -3.12005e-06 0)
(0 -2.35005e-06 0)
(0 6.07074e-05 0)
(0 0.000482195 0)
(0 0.000470401 0)
(0 0.000492975 0)
(0 0.000500229 0)
(0 0.00027556 0)
(0 0.00028227 0)
(0 0.000307461 0)
(0 0.000483869 0)
(0 -4.33206e-06 0)
(0 -3.53712e-06 0)
(0 -1.48047e-06 0)
(0 -2.56547e-06 0)
(0 -4.46627e-06 0)
(0 -3.40219e-06 0)
(0 -5.15194e-06 0)
(0 -4.09115e-06 0)
(0 -5.63866e-06 0)
(0 -4.56866e-06 0)
(0 -6.00603e-06 0)
(0 -4.92312e-06 0)
(0 -6.26651e-06 0)
(0 -5.15712e-06 0)
(0 -6.42854e-06 0)
(0 -5.32159e-06 0)
(0 -6.68991e-06 0)
(0 -5.39978e-06 0)
(0 -6.53288e-06 0)
(0 -5.31756e-06 0)
(0 -6.38666e-06 0)
(0 -5.1317e-06 0)
(0 -6.18728e-06 0)
(0 -4.89823e-06 0)
(0 -5.94323e-06 0)
(0 -4.6295e-06 0)
(0 -5.68448e-06 0)
(0 -4.30256e-06 0)
(0 -5.31952e-06 0)
(0 -3.92223e-06 0)
(0 -4.92831e-06 0)
(0 -3.54485e-06 0)
(0 -4.58687e-06 0)
(0 -3.05583e-06 0)
(0 -4.19237e-06 0)
(0 -2.40786e-06 0)
(0 -3.6379e-06 0)
(0 -2.27456e-06 0)
(0 -1.69477e-06 0)
(0 -2.97559e-06 0)
(0 -9.01656e-07 0)
(0 -2.26636e-06 0)
(0 -3.95476e-06 0)
(0 5.79352e-07 0)
(0 -4.13692e-06 0)
(0 -3.49438e-06 0)
(0 -1.48742e-06 0)
(0 -2.77333e-06 0)
(0 -6.25631e-07 0)
(0 -1.97528e-06 0)
(0 -3.91392e-06 0)
(0 -3.1836e-06 0)
(0 -1.09308e-06 0)
(0 -2.36987e-06 0)
(0 -4.91847e-06 0)
(0 -1.101e-07 0)
(0 -1.45352e-06 0)
(0 -5.71654e-06 0)
(0 -3.62598e-06 0)
(0 -3.2766e-06 0)
(0 -1.15466e-06 0)
(0 1.00484e-06 0)
(0 -4.17076e-07 0)
(0 -2.68926e-06 0)
(0 -1.69478e-06 0)
(0 -3.74647e-06 0)
(0 -2.80293e-06 0)
(0 2.56784e-06 0)
(0 -4.62865e-06 0)
(0 -3.76021e-06 0)
(0 -1.73167e-06 0)
(0 -2.72826e-06 0)
(0 -4.45704e-07 0)
(0 -1.51454e-06 0)
(0 -3.64463e-06 0)
(0 -2.47051e-06 0)
(0 -6.60154e-06 0)
(0 -4.38452e-06 0)
(0 -3.25288e-06 0)
(0 -1.08334e-06 0)
(0 -1.95006e-06 0)
(0 -3.94366e-06 0)
(0 -2.59525e-06 0)
(0 -4.48844e-06 0)
(0 -2.994e-06 0)
(0 -4.8263e-06 0)
(0 -3.25356e-06 0)
(0 -5.00148e-06 0)
(0 -3.35333e-06 0)
(0 -5.0108e-06 0)
(0 -3.27958e-06 0)
(0 -4.87488e-06 0)
(0 -2.99714e-06 0)
(0 -4.52831e-06 0)
(0 -2.49577e-06 0)
(0 -3.96414e-06 0)
(0 -1.78898e-06 0)
(0 -3.22794e-06 0)
(0 -8.73395e-07 0)
(0 -2.40016e-06 0)
(0 2.98469e-07 0)
(0 -9.0678e-08 0)
(0 3.43129e-06 0)
(0 -1.27685e-06 0)
(0 -7.73128e-07 0)
(0 0.000542425 0)
(0 0.000500385 0)
(0 0.000532767 0)
(0 0.000494027 0)
(0 0.000485338 0)
(0 0.000387611 0)
(0 0.000450317 0)
(0 0.000481721 0)
(0 0.000493533 0)
(0 3.92231e-06 0)
(0 5.73701e-06 0)
(0 0.000278627 0)
(0 0.000301228 0)
(0 -7.3407e-06 0)
(0 0.000513157 0)
(0 9.94078e-05 0)
(0 0.000429775 0)
(0 0.000486375 0)
(0 0.000254259 0)
(0 0.000124777 0)
(0 7.3348e-05 0)
(0 0.000329788 0)
(0 0.00033122 0)
(0 0.000354695 0)
(0 0.000329618 0)
(0 0.000270744 0)
(0 0.000291284 0)
(0 0.000321488 0)
(0 0.000311159 0)
(0 0.000279176 0)
(0 0.000299119 0)
(0 0.000454763 0)
(0 0.000469813 0)
(0 0.000352396 0)
(0 0.000326678 0)
(0 0.000348706 0)
(0 0.000322279 0)
(0 -6.54971e-06 0)
(0 0.000494363 0)
(0 0.000486604 0)
(0 -6.02791e-06 0)
(0 7.3715e-06 0)
(0 9.45427e-06 0)
(0 0.000429317 0)
(0 0.000445291 0)
(0 0.000341083 0)
(0 0.000265717 0)
(0 0.000285026 0)
(0 -7.29114e-06 0)
(0 0.000251683 0)
(0 0.000264186 0)
(0 0.000240496 0)
(0 0.000253595 0)
(0 0.000230263 0)
(0 0.000243589 0)
(0 0.000220633 0)
(0 0.000235437 0)
(0 0.000212216 0)
(0 0.000227715 0)
(0 0.000205514 0)
(0 0.000223269 0)
(0 0.000199602 0)
(0 0.000214417 0)
(0 0.000194062 0)
(0 0.000209641 0)
(0 0.000189788 0)
(0 0.000205686 0)
(0 0.000186458 0)
(0 0.000202741 0)
(0 0.00018424 0)
(0 0.00020064 0)
(0 0.000182766 0)
(0 0.000199186 0)
(0 0.000181734 0)
(0 0.00019831 0)
(0 0.000216207 0)
(0 0.000215426 0)
(0 0.000197929 0)
(0 0.000215405 0)
(0 0.000198028 0)
(0 0.000215903 0)
(0 0.000198666 0)
(0 0.000217134 0)
(0 0.000199986 0)
(0 0.000218507 0)
(0 0.00020172 0)
(0 0.000219667 0)
(0 0.000203754 0)
(0 0.000221514 0)
(0 0.000206309 0)
(0 0.000224337 0)
(0 0.000209893 0)
(0 0.00022708 0)
(0 0.000213969 0)
(0 0.000231814 0)
(0 0.000218578 0)
(0 0.000240163 0)
(0 0.000221984 0)
(0 0.000241566 0)
(0 0.000226159 0)
(0 0.000246393 0)
(0 0.000232232 0)
(0 0.000252316 0)
(0 0.000239067 0)
(0 0.000238763 0)
(0 0.000218403 0)
(0 0.000225986 0)
(0 0.00024844 0)
(0 0.000233471 0)
(0 0.000214427 0)
(0 0.000222152 0)
(0 0.000240362 0)
(0 0.000229777 0)
(0 0.000210114 0)
(0 0.000219639 0)
(0 0.000238441 0)
(0 0.000227947 0)
(0 0.000207918 0)
(0 0.000218117 0)
(0 0.000200232 0)
(0 0.000209401 0)
(0 0.000191639 0)
(0 0.000201906 0)
(0 0.000184514 0)
(0 0.000196006 0)
(0 0.00017875 0)
(0 0.000190948 0)
(0 0.000173977 0)
(0 0.000186618 0)
(0 0.000169988 0)
(0 0.000182895 0)
(0 0.000166714 0)
(0 0.000179903 0)
(0 0.000196265 0)
(0 0.000193542 0)
(0 0.000177664 0)
(0 0.000191493 0)
(0 0.000176094 0)
(0 0.000190265 0)
(0 0.000175355 0)
(0 0.000190237 0)
(0 0.000208902 0)
(0 0.000227538 0)
(0 0.000175588 0)
(0 0.00019113 0)
(0 0.000176717 0)
(0 0.000192611 0)
(0 0.000178618 0)
(0 0.000195358 0)
(0 0.000181131 0)
(0 0.000198439 0)
(0 0.000184193 0)
(0 0.000201254 0)
(0 0.000187798 0)
(0 0.000204933 0)
(0 0.000192917 0)
(0 0.000212268 0)
(0 0.000198891 0)
(0 0.000216004 0)
(0 0.00020295 0)
(0 0.000222138 0)
(0 0.000212157 0)
(0 0.000229086 0)
(0 0.000232974 0)
(0 0.000207654 0)
(0 0.000210462 0)
(0 0.000218033 0)
(0 0.000233736 0)
(0 0.000229332 0)
(0 0.000255366 0)
(0 0.000218789 0)
(0 0.000236142 0)
(0 0.000204659 0)
(0 0.000235221 0)
(0 0.000254045 0)
(0 0.000161068 0)
(0 0.00027979 0)
(0 0.000225892 0)
(0 0.000243557 0)
(0 0.000254041 0)
(0 0.000261412 0)
(0 0.00027209 0)
(0 0.000279153 0)
(0 0.000268926 0)
(0 0.000286522 0)
(0 0.000276441 0)
(0 0.000293926 0)
(0 0.000283919 0)
(0 0.000301316 0)
(0 0.000191373 0)
(0 0.00016529 0)
(0 0.000181183 0)
(0 0.000291393 0)
(0 0.000308934 0)
(0 0.000304428 0)
(0 0.000181673 0)
(0 0.000162187 0)
(0 0.000184488 0)
(0 0.000170773 0)
(0 0.000165855 0)
(0 0.000203606 0)
(0 -6.27127e-06 0)
(0 0.000298498 0)
(0 0.000315797 0)
(0 0.000207271 0)
(0 0.00030498 0)
(0 0.000321889 0)
(0 0.000181321 0)
(0 0.000411946 0)
(0 0.000372742 0)
(0 0.000305263 0)
(0 0.000403222 0)
(0 0.000420104 0)
(0 0.000311066 0)
(0 0.000328058 0)
(0 0.0003448 0)
(0 0.000317995 0)
(0 0.000655968 0)
(0 0.000475521 0)
(0 0.000477881 0)
(0 0.000250395 0)
(0 0.000268954 0)
(0 0.000303276 0)
(0 0.000287846 0)
(0 0.000321529 0)
(0 0.000307107 0)
(0 0.000273119 0)
(0 0.000293424 0)
(0 0.000326572 0)
(0 0.000314253 0)
(0 0.000280328 0)
(0 0.000302359 0)
(0 0.000267657 0)
(0 0.000290681 0)
(0 0.000338298 0)
(0 0.000344214 0)
(0 0.000293536 0)
(0 0.00028979 0)
(0 0.000324727 0)
(0 0.000314642 0)
(0 0.000279138 0)
(0 0.00030563 0)
(0 0.000279541 0)
(0 1.1376e-05 0)
(0 0.000493319 0)
(0 0.000498632 0)
(0 0.000239089 0)
(0 0.000267744 0)
(0 0.000295803 0)
(0 0.00033634 0)
(0 0.000322832 0)
(0 0.000230793 0)
(0 0.00023102 0)
(0 0.000334608 0)
(0 0.000350183 0)
(0 1.37154e-05 0)
(0 1.16355e-05 0)
(0 1.61816e-05 0)
(0 1.38758e-05 0)
(0 0.000284087 0)
(0 0.000311923 0)
(0 1.88815e-05 0)
(0 1.64626e-05 0)
(0 0.00049526 0)
(0 0.000498681 0)
(0 0.000374997 0)
(0 0.000393716 0)
(0 0.000439827 0)
(0 0.000409914 0)
(0 0.000365792 0)
(0 0.000382454 0)
(0 0.000422251 0)
(0 0.00039493 0)
(0 0.000265879 0)
(0 0.000346984 0)
(0 0.000338331 0)
(0 0.000300176 0)
(0 0.000329391 0)
(0 -5.42274e-06 0)
(0 -6.10666e-06 0)
(0 -6.70498e-06 0)
(0 -7.27199e-06 0)
(0 -7.68278e-06 0)
(0 -8.14652e-06 0)
(0 -8.43468e-06 0)
(0 -8.78403e-06 0)
(0 -8.9899e-06 0)
(0 -8.53889e-06 0)
(0 -8.69068e-06 0)
(0 -9.15825e-06 0)
(0 -8.90966e-06 0)
(0 -9.29635e-06 0)
(0 -9.05827e-06 0)
(0 0.000262645 0)
(0 0.000260544 0)
(0 0.000287781 0)
(0 0.000259613 0)
(0 0.000464881 0)
(0 0.000467966 0)
(0 0.000347871 0)
(0 1.59661e-05 0)
(0 1.34997e-05 0)
(0 -9.41264e-06 0)
(0 -9.18693e-06 0)
(0 -9.50283e-06 0)
(0 -9.31165e-06 0)
(0 0.000341202 0)
(0 0.000356299 0)
(0 0.000353867 0)
(0 0.000288271 0)
(0 0.00021437 0)
(0 0.000433194 0)
(0 0.000347586 0)
(0 0.000362111 0)
(0 0.00037081 0)
(0 0.000376109 0)
(0 0.000367133 0)
(0 0.000380505 0)
(0 0.000371426 0)
(0 0.00038434 0)
(0 -9.5776e-06 0)
(0 -9.41072e-06 0)
(0 -9.07642e-06 0)
(0 -9.20241e-06 0)
(0 -9.49576e-06 0)
(0 -9.30943e-06 0)
(0 -9.56807e-06 0)
(0 -9.40396e-06 0)
(0 -9.07763e-06 0)
(0 -9.19866e-06 0)
(0 -9.48851e-06 0)
(0 -9.30777e-06 0)
(0 -8.75544e-06 0)
(0 0.000287606 0)
(0 -9.55936e-06 0)
(0 -9.39863e-06 0)
(0 -9.61525e-06 0)
(0 -9.48032e-06 0)
(0 -9.06836e-06 0)
(0 -8.86602e-06 0)
(0 0.000286405 0)
(0 0.000258715 0)
(0 0.000176533 0)
(0 2.18444e-05 0)
(0 1.94167e-05 0)
(0 0.000406673 0)
(0 -8.78818e-06 0)
(0 0.000493798 0)
(0 0.000495853 0)
(0 0.000490722 0)
(0 0.000501213 0)
(0 0.000497208 0)
(0 0.000502615 0)
(0 0.000497655 0)
(0 0.000503228 0)
(0 0.000497368 0)
(0 0.000502904 0)
(0 0.000496528 0)
(0 0.00050181 0)
(0 0.000495147 0)
(0 0.000500436 0)
(0 0.00049375 0)
(0 0.000499221 0)
(0 0.00049237 0)
(0 0.000498459 0)
(0 0.000491391 0)
(0 0.000498251 0)
(0 0.000491323 0)
(0 0.000498428 0)
(0 0.00049203 0)
(0 0.000499165 0)
(0 0.000493411 0)
(0 0.000500513 0)
(0 0.000495119 0)
(0 0.000503409 0)
(0 0.000502221 0)
(0 0.000497193 0)
(0 0.000505382 0)
(0 0.00050417 0)
(0 0.000499227 0)
(0 0.000506397 0)
(0 0.00050168 0)
(0 0.00050892 0)
(0 0.000504638 0)
(0 0.000507979 0)
(0 0.000511928 0)
(0 0.000508159 0)
(0 0.000499545 0)
(0 0.00050409 0)
(0 0.000512395 0)
(0 0.000509432 0)
(0 0.00051739 0)
(0 0.000515415 0)
(0 0.000522925 0)
(0 0.000521835 0)
(0 0.000528776 0)
(0 0.000528301 0)
(0 0.000490591 0)
(0 0.000534879 0)
(0 0.000535009 0)
(0 0.000526886 0)
(0 0.000534727 0)
(0 0.000542058 0)
(0 0.000542751 0)
(0 0.000549523 0)
(0 0.000550743 0)
(0 0.000542465 0)
(0 0.000551112 0)
(0 0.000541637 0)
(0 0.000551105 0)
(0 0.00055969 0)
(0 0.000560436 0)
(0 0.000550507 0)
(0 0.000560538 0)
(0 0.000569563 0)
(0 0.000570646 0)
(0 0.000560276 0)
(0 0.00057162 0)
(0 0.000559987 0)
(0 0.000572912 0)
(0 0.000583607 0)
(0 0.000586744 0)
(0 0.000574642 0)
(0 0.000590473 0)
(0 0.000601185 0)
(0 0.000606303 0)
(0 0.000594765 0)
(0 0.000611347 0)
(0 0.000599159 0)
(0 0.00061667 0)
(0 0.000627738 0)
(0 0.000633649 0)
(0 0.000621857 0)
(0 0.00063902 0)
(0 0.000626721 0)
(0 0.000644157 0)
(0 0.000631097 0)
(0 0.000655528 0)
(0 0.000649332 0)
(0 0.000635587 0)
(0 0.00065499 0)
(0 0.000640905 0)
(0 0.000661039 0)
(0 0.000646447 0)
(0 0.000673863 0)
(0 0.000666782 0)
(0 0.00065168 0)
(0 0.000629903 0)
(0 0.000635446 0)
(0 0.000660221 0)
(0 0.000641247 0)
(0 0.000613647 0)
(0 0.000617726 0)
(0 0.00062339 0)
(0 0.000646948 0)
(0 0.000629368 0)
(0 0.000652559 0)
(0 0.000635939 0)
(0 0.000505258 0)
(0 0.000483335 0)
(0 0.00060172 0)
(0 0.000484746 0)
(0 0.000370345 0)
(0 0.000367442 0)
(0 0.000230593 0)
(0 0.000232762 0)
(0 0.000363616 0)
(0 -9.19204e-06 0)
(0 -9.29652e-06 0)
(0 -9.55503e-06 0)
(0 -9.39056e-06 0)
(0 -9.61626e-06 0)
(0 -9.47026e-06 0)
(0 -9.66772e-06 0)
(0 -9.53627e-06 0)
(0 -9.18885e-06 0)
(0 0.000194086 0)
(0 0.000374917 0)
(0 0.000395961 0)
(0 -5.49555e-06 0)
(0 -9.39479e-06 0)
(0 0.000387195 0)
(0 0.000445345 0)
(0 -9.68355e-06 0)
(0 5.52251e-05 0)
(0 -9.58897e-06 0)
(0 0.000523506 0)
(0 -7.11004e-06 0)
(0 5.29985e-05 0)
(0 4.07167e-05 0)
(0 -9.30067e-06 0)
(0 -9.13221e-06 0)
(0 0.000424443 0)
(0 0.0004029 0)
(0 3.64621e-05 0)
(0 3.90646e-05 0)
(0 0.000380515 0)
(0 1.82939e-06 0)
(0 4.84985e-05 0)
(0 3.9337e-05 0)
(0 -6.3871e-06 0)
(0 0.000495358 0)
(0 0.00036634 0)
(0 4.89298e-05 0)
(0 0.000453621 0)
(0 0.000365713 0)
(0 0.000154004 0)
(0 0.000410348 0)
(0 0.000487903 0)
(0 0.000332298 0)
(0 0.000618074 0)
(0 4.07918e-05 0)
(0 0.000452001 0)
(0 0.000486411 0)
(0 0.000608391 0)
(0 0.000416003 0)
(0 0.000161824 0)
(0 0.000581408 0)
(0 0.000404087 0)
(0 0.000388729 0)
(0 0.000382115 0)
(0 0.000366896 0)
(0 0.000359983 0)
(0 0.000344794 0)
(0 0.000352388 0)
(0 0.00047199 0)
(0 0.000476794 0)
(0 0.00049153 0)
(0 0.000495678 0)
(0 0.000547748 0)
(0 0.000532049 0)
(0 1.8454e-05 0)
(0 1.59135e-05 0)
(0 0.000418831 0)
(0 1.02891e-06 0)
(0 8.57703e-05 0)
(0 9.16327e-05 0)
(0 9.84829e-05 0)
(0 0.000104581 0)
(0 0.000112249 0)
(0 0.000118765 0)
(0 0.000126844 0)
(0 0.000120428 0)
(0 0.000135468 0)
(0 0.00012922 0)
(0 0.000133718 0)
(0 0.000125854 0)
(0 4.98171e-05 0)
(0 0.000170757 0)
(0 0.000334421 0)
(0 0.00048997 0)
(0 0.000449719 0)
(0 0.000436104 0)
(0 8.08425e-05 0)
(0 0.000578702 0)
(0 0.000487949 0)
(0 0.000455251 0)
(0 0.00052948 0)
(0 0.000184439 0)
(0 0.000556797 0)
(0 0.000514631 0)
(0 0.000651581 0)
(0 0.000665551 0)
(0 0.000658937 0)
(0 0.00067183 0)
(0 0.000485204 0)
(0 7.03383e-05 0)
(0 0.000489937 0)
(0 0.000616028 0)
(0 8.32672e-05 0)
(0 0.000643945 0)
(0 0.00048339 0)
(0 0.00019599 0)
(0 0.000212055 0)
(0 0.000202016 0)
(0 0.000493963 0)
(0 -9.71177e-06 0)
(0 -9.59353e-06 0)
(0 -9.35872e-06 0)
(0 -9.43167e-06 0)
(0 -9.64832e-06 0)
(0 -9.49789e-06 0)
(0 -8.83158e-06 0)
(0 -9.24984e-06 0)
(0 2.50948e-05 0)
(0 2.25516e-05 0)
(0 1.71143e-05 0)
(0 2.02114e-05 0)
(0 1.50407e-05 0)
(0 1.81351e-05 0)
(0 1.31319e-05 0)
(0 1.62751e-05 0)
(0 1.10899e-05 0)
(0 1.47697e-05 0)
(0 1.9802e-05 0)
(0 1.83589e-05 0)
(0 1.36251e-05 0)
(0 1.70264e-05 0)
(0 1.265e-05 0)
(0 1.57305e-05 0)
(0 1.17934e-05 0)
(0 1.48236e-05 0)
(0 1.09684e-05 0)
(0 1.43215e-05 0)
(0 1.04524e-05 0)
(0 1.37803e-05 0)
(0 1.00336e-05 0)
(0 1.33591e-05 0)
(0 9.69742e-06 0)
(0 1.33249e-05 0)
(0 9.72511e-06 0)
(0 2.02911e-05 0)
(0 1.35037e-05 0)
(0 9.98265e-06 0)
(0 1.3951e-05 0)
(0 1.0414e-05 0)
(0 0.000453922 0)
(0 0.000285676 0)
(0 0.000258229 0)
(0 0.000230179 0)
(0 0.000229929 0)
(0 0.000257412 0)
(0 0.00022835 0)
(0 0.00025465 0)
(0 0.000224545 0)
(0 0.000249896 0)
(0 0.000218889 0)
(0 0.000312489 0)
(0 0.000504713 0)
(0 0.000478804 0)
(0 0.000346296 0)
(0 0.000357874 0)
(0 0.000374954 0)
(0 0.000385681 0)
(0 0.000399819 0)
(0 0.000390159 0)
(0 0.000399061 0)
(0 0.00032182 0)
(0 0.000274154 0)
(0 0.000244018 0)
(0 0.00013527 0)
(0 0.000347019 0)
(0 0.000247483 0)
(0 7.72662e-05 0)
(0 6.8541e-06 0)
(0 9.92666e-06 0)
(0 1.06226e-05 0)
(0 1.40983e-05 0)
(0 1.49588e-05 0)
(0 1.88718e-05 0)
(0 1.77949e-05 0)
(0 1.99099e-05 0)
(0 2.32229e-05 0)
(0 1.59553e-05 0)
(0 2.7989e-05 0)
(0 3.31757e-05 0)
(0 2.11089e-05 0)
(0 1.73241e-05 0)
(0 4.00761e-05 0)
(0 0.000518311 0)
(0 0.000348433 0)
(0 0.000363676 0)
(0 0.000358424 0)
(0 2.36516e-05 0)
(0 0.00046106 0)
(0 0.00056094 0)
(0 0.00042911 0)
(0 3.92856e-07 0)
(0 0.000599702 0)
(0 0.00061291 0)
(0 0.000500469 0)
(0 0.000241921 0)
(0 0.000228703 0)
(0 0.000204206 0)
(0 0.000258283 0)
(0 0.000267475 0)
(0 0.000277857 0)
(0 0.000287306 0)
(0 0.000246097 0)
(0 -8.92726e-06 0)
(0 0.00066954 0)
(0 0.000547507 0)
(0 1.53934e-06 0)
(0 0.000609792 0)
(0 8.70974e-05 0)
(0 9.58769e-05 0)
(0 9.99168e-05 0)
(0 0.000109209 0)
(0 0.000113379 0)
(0 0.000105323 0)
(0 0.000119267 0)
(0 0.000115598 0)
(0 0.000141204 0)
(0 0.000133468 0)
(0 0.000576384 0)
(0 0.000584582 0)
(0 0.000581382 0)
(0 0.000277035 0)
(0 0.000297359 0)
(0 0.000287549 0)
(0 0.0003079 0)
(0 0.000298684 0)
(0 0.000318868 0)
(0 0.000310395 0)
(0 0.000306617 0)
(0 0.000289848 0)
(0 0.000302299 0)
(0 0.000507382 0)
(0 -8.80156e-06 0)
(0 0.000244236 0)
(0 0.000212345 0)
(0 0.000237716 0)
(0 0.000204907 0)
(0 2.5387e-05 0)
(0 0.000505173 0)
(0 0.00045774 0)
(0 0.000221748 0)
(0 0.000354528 0)
(0 0.000323634 0)
(0 0.000281862 0)
(0 0.000294808 0)
(0 0.000274948 0)
(0 0.000288426 0)
(0 0.000269373 0)
(0 0.000285189 0)
(0 0.000306735 0)
(0 2.29268e-05 0)
(0 2.99402e-05 0)
(0 2.70392e-05 0)
(0 3.48268e-05 0)
(0 3.16341e-05 0)
(0 2.42563e-05 0)
(0 2.89218e-05 0)
(0 2.1874e-05 0)
(0 2.67441e-05 0)
(0 1.99433e-05 0)
(0 2.48347e-05 0)
(0 1.86519e-05 0)
(0 2.31598e-05 0)
(0 1.75296e-05 0)
(0 -9.73059e-06 0)
(0 6.92845e-05 0)
(0 0.000533833 0)
(0 0.000289263 0)
(0 0.000283032 0)
(0 0.000300391 0)
(0 0.000294565 0)
(0 0.000312471 0)
(0 0.000306684 0)
(0 0.000478875 0)
(0 0.00024244 0)
(0 0.000266588 0)
(0 0.000384636 0)
(0 7.22809e-07 0)
(0 0.000131451 0)
(0 5.93342e-05 0)
(0 -8.18624e-06 0)
(0 0.00017672 0)
(0 0.000205359 0)
(0 1.47131e-05 0)
(0 1.11872e-05 0)
(0 9.53823e-05 0)
(0 -9.1893e-06 0)
(0 -8.4017e-06 0)
(0 6.88069e-05 0)
(0 6.11461e-05 0)
(0 0.00040243 0)
(0 7.08801e-05 0)
(0 -9.69291e-06 0)
(0 -9.55474e-06 0)
(0 0.000299751 0)
(0 0.000318448 0)
(0 1.84069e-05 0)
(0 6.34494e-05 0)
(0 0.00019724 0)
(0 1.69045e-05 0)
(0 -8.65506e-06 0)
(0 -3.02059e-06 0)
(0 0.000189794 0)
(0 -1.2259e-06 0)
(0 0.000480157 0)
(0 0.000478791 0)
(0 0.000514134 0)
(0 0.000393422 0)
(0 0.000680153 0)
(0 0.00068499 0)
(0 0.000457155 0)
(0 0.000469494 0)
(0 0.000458399 0)
(0 0.000468856 0)
(0 0.000510688 0)
(0 0.000324594 0)
(0 0.00031913 0)
(0 0.000300919 0)
(0 0.000313814 0)
(0 0.000295503 0)
(0 0.000309038 0)
(0 0.000290701 0)
(0 0.000304757 0)
(0 0.000286464 0)
(0 0.000301115 0)
(0 0.000282944 0)
(0 0.000298283 0)
(0 0.000280093 0)
(0 0.0002963 0)
(0 0.000278023 0)
(0 0.000294919 0)
(0 0.000276685 0)
(0 0.000293916 0)
(0 0.000276002 0)
(0 0.00029416 0)
(0 0.000461095 0)
(0 -8.62744e-06 0)
(0 -8.91251e-06 0)
(0 -9.69523e-06 0)
(0 2.26078e-05 0)
(0 1.90309e-05 0)
(0 -9.12617e-06 0)
(0 0.00031553 0)
(0 0.000144853 0)
(0 0.000138863 0)
(0 0.000229478 0)
(0 0.000196631 0)
(0 0.000198145 0)
(0 0.000200299 0)
(0 2.25443e-06 0)
(0 3.97376e-06 0)
(0 0.000623806 0)
(0 0.000151334 0)
(0 -9.91585e-06 0)
(0 6.47331e-06 0)
(0 0.000415676 0)
(0 0.000379047 0)
(0 0.000276652 0)
(0 0.000296666 0)
(0 0.000544968 0)
(0 0.000272597 0)
(0 0.000287247 0)
(0 0.000327404 0)
(0 6.73842e-06 0)
(0 0.000457393 0)
(0 0.000142844 0)
(0 0.000150199 0)
(0 2.18916e-05 0)
(0 1.64792e-05 0)
(0 2.12106e-05 0)
(0 0.000436799 0)
(0 -9.34892e-06 0)
(0 -9.15754e-06 0)
(0 -8.62185e-06 0)
(0 -8.8891e-06 0)
(0 -9.34771e-06 0)
(0 -9.09643e-06 0)
(0 0.000267294 0)
(0 0.00017885 0)
(0 0.000542301 0)
(0 0.0001559 0)
(0 0.000173187 0)
(0 7.2359e-06 0)
(0 1.57513e-05 0)
(0 1.23952e-05 0)
(0 2.10694e-05 0)
(0 1.61681e-05 0)
(0 2.86481e-05 0)
(0 0.000219632 0)
(0 0.000186683 0)
(0 0.000206571 0)
(0 0.000174603 0)
(0 0.000190877 0)
(0 0.000160367 0)
(0 0.000172963 0)
(0 0.000143951 0)
(0 0.000152735 0)
(0 0.000125447 0)
(0 0.000130953 0)
(0 0.000106167 0)
(0 0.000109568 0)
(0 0.000133881 0)
(0 8.83482e-05 0)
(0 0.000110651 0)
(0 0.000135324 0)
(0 0.000109947 0)
(0 0.000134978 0)
(0 8.31301e-05 0)