/*--------------------------------*- C++ -*----------------------------------*\
| =========                 |                                                 |
| \\      /  F ield         | OpenFOAM: The Open Source CFD Toolbox           |
|  \\    /   O peration     | Version:  v2012                                 |
|   \\  /    A nd           | Website:  www.openfoam.com                      |
|    \\/     M anipulation  |                                                 |
\*---------------------------------------------------------------------------*/
FoamFile
{
    version     2.0;
    format      ascii;
    class       volScalarField;
    location    "500";
    object      ddt0(k);
}
// * * * * * * * * * * * * * * * * * * * * * * * * * * * * * * * * * * * * * //

dimensions      [0 2 -3 0 0 0 0];


internalField   nonuniform List<scalar> 
10042
(
-0.000994983
-0.0127752
0.000109475
3.27968e-07
1.65136e-08
0.00262403
-3.67702e-06
-0.000857156
-2.75031e-08
-2.77547e-06
-0.00124339
-0.0117272
7.96709e-07
-2.07302e-07
4.60287e-07
-1.79351e-07
0.0047929
-0.00110028
3.73829e-07
8.98203e-07
7.97156e-07
-0.000990307
1.80283e-07
-0.00436201
8.95771e-08
7.00812e-08
-2.53544e-06
1.97122e-08
0.00360169
0.00235181
1.61671e-07
5.20934e-07
-4.43109e-08
-7.38216e-08
-0.00157395
-0.00188285
1.18978e-07
9.32495e-08
1.07555e-07
2.52437e-06
0.000554244
-4.61832e-08
8.86569e-06
-0.0113037
1.43996e-07
1.92443e-07
3.26478e-08
4.98489e-07
1.0794e-06
0.00226576
1.6062e-05
1.77269e-07
0.00399806
4.24669e-07
-0.0186214
0.00243241
8.45923e-07
2.77463e-05
5.05014e-07
3.25852e-08
8.88636e-07
-0.0288757
6.26963e-06
-0.000427686
0.00105574
1.606e-07
4.13342e-07
-0.00207819
1.46917e-08
-0.00178479
0.000117218
9.44513e-07
1.08305e-07
4.72362e-07
1.38994e-07
7.50445e-05
-8.98227e-05
3.08191e-08
-0.000109224
3.40009e-07
-0.010806
-0.00184959
4.70218e-07
2.48445e-07
2.7479e-06
-2.55539e-07
-3.95128e-08
4.25082e-05
3.54057e-07
5.14879e-05
6.07287e-07
3.95888e-07
5.68418e-06
-5.34656e-07
0.000652916
7.81468e-08
-0.00476738
4.08028e-07
-0.00248106
4.82099e-07
5.7792e-07
4.38336e-06
2.50711e-07
4.76737e-07
5.16549e-07
3.03853e-07
0.0190506
1.20959e-07
-6.60605e-06
2.76205e-07
4.73212e-07
-3.07784e-06
2.10432e-06
-0.000594241
0.000585811
8.10944e-09
-7.96066e-07
1.56218e-07
0.000124042
-1.3984e-08
3.48258e-08
-0.00903528
-0.0100048
2.23975e-07
0.000132041
3.3906e-07
2.33782e-07
-0.0182855
-1.38952e-06
-1.82976e-06
-1.40088e-08
4.45768e-07
5.67955e-07
1.24455e-07
9.16905e-06
5.54621e-05
-2.7404e-07
0.0244629
3.72679e-07
-0.00258434
1.00019e-06
-1.4658e-08
0.0293657
2.29731e-08
8.96123e-07
9.77972e-08
9.31463e-07
8.15909e-09
3.21451e-07
-0.0028753
3.27486e-07
-4.64282e-09
6.32974e-07
1.02739e-06
0.000331858
9.22643e-07
1.96984e-06
-0.00168832
6.39686e-07
1.23278e-07
1.41762e-07
5.66343e-07
2.65797e-05
2.43521e-07
2.73919e-07
-0.00250263
9.27901e-08
5.33315e-07
-0.00169927
-6.36648e-08
0.000299823
0.00382524
-0.0127619
-7.71136e-08
4.41402e-07
-0.0115123
7.12005e-08
9.57967e-08
3.96319e-07
6.45195e-09
3.32677e-07
6.04102e-07
4.86938e-07
3.09595e-08
-0.00164249
4.90816e-07
9.89366e-07
1.70816e-08
0.020571
1.84539e-08
-0.0141604
8.54829e-07
-6.04541e-08
6.34046e-07
-0.0162776
3.88636e-07
0.052823
8.42085e-05
-0.00880812
2.33216e-07
0.000256321
2.69723e-06
1.90384e-06
1.22708e-07
-0.00271217
4.77959e-07
-0.00195455
9.5305e-07
5.31597e-07
2.6813e-08
3.93859e-07
9.94988e-08
1.42373e-05
1.3979e-05
1.43687e-07
-0.00020737
8.33831e-08
0.020703
3.24978e-07
0.000155633
0.0423594
0.000148346
0.0322079
-0.000853065
3.04603e-07
3.28364e-06
-1.13907e-07
-6.0582e-07
-9.11339e-08
3.52045e-07
5.9795e-08
3.4147e-07
4.41524e-07
2.59954e-07
4.83759e-08
-0.00112019
-9.27729e-07
-0.00553131
8.64479e-07
-0.00453199
0.0142789
0.00741379
4.46e-08
-9.32942e-08
-0.00575656
1.75198e-08
0.00681603
8.92876e-07
6.9087e-07
6.38052e-08
4.91597e-07
-7.65362e-08
-0.00592303
-0.0204751
3.99685e-08
-9.64572e-07
1.62981e-08
-3.25218e-07
-0.00458211
3.13122e-07
0.000540673
5.79912e-08
1.82568e-07
3.77065e-08
7.90916e-07
-0.012523
0.000402989
-0.00411384
3.80805e-07
4.04534e-07
4.5012e-07
0.000902053
-2.29668e-07
0.00110432
-4.20692e-07
0.00020897
4.4591e-07
4.19519e-08
3.69758e-07
-0.0179714
-3.15268e-09
0.000685693
0.0431094
2.95458e-07
-2.76027e-07
-0.00845785
-8.37035e-06
4.05448e-08
-0.000601733
-2.69443e-09
8.34701e-07
1.27895e-06
2.36362e-07
-0.000668727
0.00136773
1.43587e-07
-0.0034436
-6.89459e-07
4.35283e-07
8.62371e-08
5.4231e-07
7.52708e-06
1.83285e-08
0.018357
2.5234e-06
-0.0133124
-3.64735e-07
-6.83097e-06
-0.00187581
-0.00104286
2.99189e-07
2.54764e-07
2.81222e-08
5.22148e-08
-1.36682e-06
-0.00049242
3.7389e-08
-0.00100419
-0.00569795
9.22657e-09
4.24774e-08
0.00196797
0.000134755
0.000736297
-0.000973959
1.59295e-07
8.72717e-06
4.67534e-07
-8.83421e-07
8.24345e-07
4.00278e-07
3.47064e-07
-0.000803798
8.03323e-08
-0.00322425
-0.000509776
0.0449846
0.00065403
-1.45528e-07
-0.00156685
6.28781e-07
9.51716e-07
4.65724e-08
1.23286e-06
2.09857e-07
5.81663e-08
-9.84621e-08
1.49209e-07
9.10495e-07
-0.00726283
4.31222e-07
0.000920854
1.5832e-06
-1.2242e-07
-0.0298733
1.68647e-05
6.82138e-08
5.13157e-07
0.0113548
5.65784e-09
3.15083e-07
9.20007e-08
3.00143e-07
0.00240037
-0.00157648
3.28771e-07
2.41524e-07
1.81679e-06
1.53127e-06
-0.0233664
2.33182e-08
4.82401e-07
-2.94704e-07
3.34409e-07
-6.97394e-07
-4.46471e-07
0.000215793
0.00356716
0.00610249
-9.88372e-08
2.52045e-07
0.00543721
-5.93413e-07
3.7911e-07
8.16744e-07
-1.79301e-08
1.36692e-07
1.72917e-08
8.74148e-07
5.17015e-08
-4.505e-07
-0.00686829
4.402e-07
-2.41484e-05
0.000106039
-0.0268258
2.19517e-07
-0.00128629
-4.35836e-07
4.23643e-07
2.23598e-07
0.00289644
-1.56797e-06
-0.0256882
-0.00546897
2.67027e-07
7.22188e-07
-1.79797e-06
0.00821371
-5.1843e-07
0.00190779
8.20831e-07
0.00751832
5.18045e-07
0.00298422
4.3456e-07
9.08129e-07
-0.0245869
4.98713e-08
4.01352e-07
5.36246e-11
0.00122168
-2.21722e-09
2.65181e-08
1.42268e-06
-4.70364e-08
1.81172e-07
0.00149007
3.19589e-07
9.39251e-07
2.48577e-08
2.20173e-08
8.35936e-07
-0.00159457
-3.16986e-07
3.48092e-07
0.000278101
0.000342188
2.61436e-08
0.000825409
2.51063e-08
-4.48898e-06
-2.91024e-06
0.00985247
0.000102944
-0.00149476
0.00252889
1.56863e-05
-0.000518165
8.71493e-09
0.00014194
-0.00335117
-0.00347371
8.34002e-07
1.00821e-07
-1.11573e-07
0.000416104
-0.00395498
3.5802e-08
1.93058e-07
1.32215e-07
1.65909e-07
-1.71389e-07
2.24392e-07
7.79886e-07
4.03679e-07
-0.000727744
2.78549e-07
-4.13048e-06
0.000427901
9.49403e-07
1.30614e-07
0.00356234
0.000336609
-0.00433312
1.04647e-07
3.04728e-07
4.17234e-08
-0.0266293
4.04002e-07
4.44732e-05
5.18055e-07
-0.00207388
-1.03251e-08
4.68712e-07
1.04616e-07
8.68369e-05
-0.000258426
5.82631e-08
2.26613e-07
1.37458e-07
-0.0107007
5.25858e-08
5.8821e-06
0.000198168
4.69291e-07
4.99973e-07
1.48775e-05
-0.000607813
1.24143e-06
4.04149e-07
2.44961e-07
0.00630529
-0.0111299
6.52209e-07
-0.00541672
2.0931e-08
-0.000306456
7.36831e-07
9.89747e-07
8.15668e-07
-0.00125526
5.47544e-07
1.37361e-07
4.06759e-07
-0.000922561
3.83804e-07
0.00567954
4.56216e-07
3.69295e-07
4.93543e-08
9.5735e-07
-0.00679894
3.23474e-07
3.64336e-07
-0.00742704
0.000128354
2.22269e-07
3.44851e-07
2.78154e-07
-0.000189251
-7.83548e-07
3.02468e-07
6.37e-08
6.64695e-05
9.17607e-08
7.29899e-08
-0.00638457
-3.07126e-09
-0.00683522
2.45644e-07
5.07144e-07
3.30323e-06
0.00760836
4.02807e-07
3.77414e-07
4.08138e-07
9.31469e-08
-0.00291735
5.41009e-08
0.00365448
8.043e-07
-3.25141e-08
4.09797e-06
0.0610372
0.0213397
0.000229695
2.51348e-08
6.62804e-08
1.90592e-08
3.53991e-07
4.50293e-05
3.21972e-07
-0.010731
-1.62852e-08
6.49642e-08
0.00151723
5.40306e-07
6.87983e-05
9.75561e-09
1.08717e-07
0.000302469
0.000994444
7.40884e-07
-0.000797153
4.29938e-07
4.69664e-07
1.51971e-07
-2.9792e-08
9.44291e-08
2.42157e-07
3.63224e-07
3.63596e-08
-0.0056638
5.72319e-07
0.000112267
1.94279e-07
3.33966e-06
3.96259e-08
-2.43814e-06
0.0209226
-1.57603e-08
8.55525e-08
-0.000680583
9.06091e-05
4.84827e-08
0.00134553
2.67687e-07
-0.000617723
1.03225e-07
8.20057e-08
3.74792e-08
0.0188517
4.39126e-08
-4.43916e-08
-5.15847e-07
-0.00281677
3.86349e-07
2.32617e-07
1.17639e-07
0.00410855
1.78252e-07
8.83232e-09
-8.13876e-09
2.6874e-08
8.22944e-07
3.78826e-08
2.12128e-06
1.98735e-07
-0.00530363
-0.0123556
-0.00441233
-5.40213e-07
3.50265e-07
3.34728e-07
-0.00340453
-1.96654e-07
-0.00473077
-2.77968e-05
-0.00362779
-0.000789493
0.00528637
4.82943e-07
2.94025e-07
0.00533327
0.00270922
1.28611e-05
2.19766e-06
6.00131e-07
0.00163893
2.74881e-07
4.42931e-07
1.2534e-07
7.61259e-08
1.89496e-07
0.00431655
3.25521e-07
4.7272e-08
-0.00843278
-1.31951e-07
-0.00395296
1.52315e-06
2.01019e-07
3.70405e-06
5.31024e-08
-0.00444917
5.89195e-07
1.46084e-07
6.94707e-05
4.1073e-07
2.76926e-08
1.23553e-07
3.27765e-07
2.58442e-07
0.000283146
-0.010912
-0.012667
4.4928e-07
2.11846e-07
3.4568e-07
0.00267235
1.09176e-06
2.49907e-07
8.99505e-08
4.36728e-08
0.00490709
0.00697811
1.13826e-05
-2.67862e-07
5.36218e-07
-0.00990661
4.17562e-07
1.10123e-06
-1.54577e-06
-0.00082793
-0.0275831
0.00420484
2.65227e-07
9.38035e-08
6.53882e-07
0.00258891
1.26097e-07
3.64843e-07
7.81919e-07
5.99597e-08
-5.23574e-06
1.0181e-06
0.0278849
0.0535154
1.75034e-08
1.30718e-07
9.20623e-09
-0.00176296
7.17042e-08
0.00310417
1.69063e-06
0.0128499
1.90764e-07
4.76246e-07
-1.20373e-08
1.86043e-07
2.39935e-07
3.35557e-07
4.14705e-07
4.80873e-07
-7.18124e-06
4.11601e-07
-0.000890886
4.35364e-07
0.000149177
-0.00118632
-2.89e-07
-0.00784531
1.58235e-07
-3.93438e-07
-2.62286e-06
-9.57009e-09
-0.00123011
7.59529e-07
-5.68103e-07
1.17247e-07
-0.0175709
3.82861e-07
0.00337194
7.55258e-07
2.64466e-07
1.01843e-05
-5.01402e-05
1.81758e-06
1.78619e-07
1.82616e-06
4.69318e-07
0.00459394
-2.00673e-05
-0.000137988
2.38873e-06
4.46412e-07
4.44966e-07
-2.11084e-08
8.86617e-07
-6.6387e-06
-0.00286811
5.05157e-08
6.68497e-08
1.03701e-06
-4.71293e-07
-3.38781e-06
3.85307e-07
0.00351145
3.96809e-07
3.55266e-07
-3.16212e-05
2.61286e-07
1.51451e-06
8.90929e-07
5.39441e-07
0.00212703
3.6398e-06
1.42258e-07
1.21202e-06
6.80959e-08
-3.43261e-07
-0.031941
4.95149e-07
-3.03968e-07
3.55983e-07
-0.0116082
9.16139e-07
1.09142e-06
4.29901e-06
3.99399e-07
8.81686e-07
1.89003e-08
7.18536e-07
-2.21404e-07
4.77295e-07
3.47929e-07
3.12252e-07
5.24935e-07
1.00323e-06
1.82292e-07
4.65426e-07
-0.00131997
5.16235e-08
2.50247e-07
2.46316e-07
1.47192e-08
2.79229e-05
-2.83054e-06
-8.75871e-08
-0.000119156
-0.000770286
2.10383e-07
6.44113e-05
0.00566739
2.74558e-08
2.36731e-07
2.56807e-09
-0.00717429
-0.00107999
5.81414e-07
2.09245e-07
4.68017e-07
6.80115e-06
-0.00372882
1.31561e-06
-0.00784647
4.92686e-06
-0.00278922
3.88382e-06
3.4616e-07
9.01295e-07
-0.00138733
-0.000844927
5.54927e-07
-0.00153091
-0.000338198
0.00160586
-0.00147269
-4.76522e-07
-3.76694e-05
0.00537198
0.00011609
-0.00599601
8.57084e-07
-0.00768054
-3.67943e-07
0.00411997
3.93226e-07
-7.02822e-05
2.32957e-07
1.09582e-06
6.02302e-09
4.81599e-07
8.675e-08
0.0120124
4.60086e-07
9.08763e-08
-0.00420546
3.05608e-07
5.85795e-07
1.64442e-06
-0.00267191
9.58698e-08
4.32783e-07
-4.05734e-07
4.36093e-07
-9.96999e-08
3.89934e-07
1.75936e-07
0.000709317
-0.00029599
0.000360834
5.83467e-07
-0.0126804
2.06924e-07
1.4355e-06
-0.00181471
6.82254e-06
-4.01712e-08
1.35454e-08
3.30777e-07
2.14929e-07
0.0216707
3.84624e-06
3.46932e-07
-0.00724269
1.63457e-08
1.98519e-07
-0.00352567
1.70807e-09
3.61556e-07
-0.00412123
2.44836e-07
0.000467468
3.66656e-07
2.61281e-05
5.92743e-07
-2.29168e-06
5.0858e-06
3.36782e-08
-0.0299785
-0.0207999
8.77694e-08
1.75516e-07
0.0179378
0.00108747
2.86212e-06
7.21333e-08
1.17139e-07
9.53892e-06
3.68551e-07
1.65539e-06
0.000181414
3.61199e-07
3.38306e-08
5.71424e-07
-0.00628178
-0.00125212
2.21206e-08
-6.2485e-11
3.11062e-08
5.58938e-07
0.00542461
-0.000667248
7.34841e-08
3.73611e-07
-0.00293487
-1.96261e-07
2.58051e-07
0.0172263
1.10488e-06
0.00032277
1.73158e-06
1.99967e-08
4.81667e-07
-1.77065e-06
-0.000471064
3.99405e-05
7.13082e-08
-0.001739
0.00375334
-0.00954706
6.53015e-07
1.06239e-06
0.0135282
7.04833e-07
-0.00156917
4.08179e-07
2.68066e-07
4.56737e-07
-0.0112883
0.0176483
2.69611e-07
3.70489e-07
7.87503e-07
-2.90548e-07
1.17924e-05
2.29202e-07
1.56094e-07
4.521e-08
5.47145e-07
1.10004e-07
5.6117e-08
-0.00689157
-1.875e-07
1.13533e-07
4.47122e-06
5.16234e-07
-0.000998156
2.28846e-07
-5.91055e-07
-0.0128529
2.28722e-07
1.46517e-07
8.54584e-07
0.0012059
1.30362e-07
-1.72501e-08
4.02048e-07
-0.00232664
4.30673e-07
8.65694e-07
4.72156e-07
1.42901e-06
3.51537e-07
-0.0149617
-8.90816e-09
-0.00109165
3.7508e-07
-4.4261e-06
4.00928e-07
4.27994e-07
6.26386e-07
0.0057852
3.62087e-06
-3.55145e-08
-3.2619e-07
-0.00197724
-0.000427013
1.86825e-05
2.21428e-07
0.00194449
7.46744e-08
1.62271e-05
3.25813e-05
9.54883e-07
6.36784e-07
1.64387e-07
1.52698e-05
0.0487132
-0.00124587
4.65977e-07
9.96784e-07
5.29974e-07
-0.000546662
1.28244e-08
2.29375e-07
1.06655e-06
-8.24488e-11
1.17442e-08
-5.0425e-06
7.88748e-07
0.010195
-8.19616e-08
2.01889e-07
1.90779e-07
-3.53382e-07
1.21521e-06
7.12556e-07
8.11786e-05
3.32309e-08
-6.19162e-07
0.0152106
3.1316e-07
6.99061e-06
-1.50181e-09
0.000702348
-0.00235012
-2.68426e-07
-0.00331756
8.82476e-07
3.33466e-07
0.0444978
1.63602e-07
2.01125e-07
1.18489e-08
7.83546e-08
2.91736e-07
-0.0138418
1.10267e-06
0.000258952
-0.00187395
0.000179758
-0.000393327
-0.00235171
5.03598e-07
-4.88406e-05
-3.68135e-08
4.20458e-07
4.33191e-07
1.04953e-07
6.99471e-07
-0.0386259
0.000502306
-2.52558e-08
-0.000326824
1.14375e-07
-3.45722e-07
1.12936e-07
7.36455e-07
6.4037e-07
-0.000293413
-0.000834023
3.58211e-07
6.77726e-08
0.0010945
3.95639e-06
3.58274e-05
9.42421e-06
6.80718e-05
9.65899e-07
-0.00226989
0.00209855
1.03309e-07
3.8025e-08
2.80632e-07
9.04133e-07
8.12968e-08
4.36278e-07
2.51436e-07
1.73322e-06
1.07371e-06
-6.05018e-07
9.07798e-07
-4.43856e-06
0.00207582
5.35608e-09
-0.000887737
6.47424e-07
7.98249e-07
-1.0338e-05
-0.000223938
2.17858e-07
2.69228e-07
-6.69118e-06
7.81617e-08
5.92262e-07
-0.000700458
3.55998e-07
2.61529e-08
7.11928e-08
0.000687687
-0.000879674
3.12854e-08
-0.00159595
1.03738e-07
4.77869e-07
0.000567372
-8.00521e-08
8.65542e-07
8.56654e-08
1.60794e-06
2.2244e-06
-0.00148252
3.11069e-07
-1.09582e-07
1.64825e-07
-2.37057e-07
2.61675e-07
-0.000231252
2.4689e-08
-3.20377e-08
-0.0259119
-8.29676e-05
-1.01529e-07
0.00625395
8.82571e-08
-0.000854052
4.68688e-07
0.000138316
5.20263e-08
0.00010118
0.0176417
0.0448716
3.55688e-07
0.00016328
9.43493e-05
-0.00497658
9.60394e-07
0.000110262
-1.24386e-07
-0.00214475
0.000226406
-1.02839e-06
0.00303663
-0.00283762
-0.000753408
0.000905386
2.89598e-06
-0.00207613
1.26436e-07
2.51026e-07
0.000127576
1.06712e-06
1.59872e-07
-0.00249738
1.52838e-07
1.18188e-07
-6.16583e-09
7.13356e-05
1.06212e-06
-1.2078e-07
0.00688484
9.56545e-07
-0.00286501
4.24688e-07
9.57336e-08
-3.36354e-07
-0.00213932
0.00162279
9.80316e-07
0.00139128
3.16271e-07
-5.49067e-08
8.17982e-07
0.000711682
9.63915e-07
4.9825e-08
-0.00845093
0.000558952
-9.06085e-07
7.497e-05
-1.90917e-08
5.55361e-07
6.15034e-05
7.8203e-08
-0.00169233
4.64488e-07
2.39866e-07
3.92899e-07
1.19204e-07
5.92823e-05
1.15356e-07
4.46898e-05
-4.42859e-05
1.32773e-07
2.52976e-07
4.49167e-08
8.40924e-07
1.07164e-07
2.26465e-05
7.00201e-07
2.98943e-05
0.000695019
8.88632e-07
5.96131e-07
-0.00313712
-1.0952e-06
9.853e-07
8.51217e-08
3.71405e-07
0.0105302
0.00206821
3.72873e-08
0.00137963
-2.94684e-06
0.00120005
-1.90399e-07
-5.60654e-07
-7.18717e-06
1.45914e-07
-1.25229e-05
0.000187375
7.67007e-07
-6.9263e-08
0.00122167
9.47324e-07
7.78626e-07
0.00164691
5.21792e-06
0.00011383
9.7013e-08
2.47728e-08
0.00436473
-2.04183e-08
0.0142523
0.000122728
1.69021e-06
-0.00221771
6.12598e-07
8.38921e-07
0.000108383
0.00014606
5.19603e-08
0.000264027
4.60607e-07
1.76739e-07
1.85219e-06
3.75344e-07
-3.85616e-07
1.10809e-06
8.3228e-07
-3.17693e-07
6.05893e-07
4.19878e-07
1.25785e-07
0.000703816
4.20835e-07
-0.00146737
5.81972e-08
5.66874e-07
2.70621e-07
3.48551e-07
0.00167383
3.56487e-07
-0.00243472
-0.00154913
4.9802e-07
-0.00272194
4.77982e-07
0.0002757
1.23445e-08
-0.00204505
1.55237e-06
-0.000586085
6.93859e-07
2.09481e-07
-6.04376e-09
0.000726934
7.93652e-07
5.15062e-05
5.65563e-07
-1.67187e-07
0.00421322
-7.94174e-09
-0.00941471
3.58084e-07
0.000640886
2.34184e-07
7.3012e-08
-2.73332e-08
-0.00145074
2.49679e-07
2.28377e-07
4.87988e-08
4.41326e-07
5.3209e-07
8.94791e-06
-7.48004e-05
8.33433e-11
5.40802e-07
4.09955e-07
3.53449e-07
4.91985e-08
0.00115411
-0.00845435
3.77044e-07
8.78599e-08
1.06371e-07
1.43629e-07
8.98684e-07
3.84473e-07
-3.23116e-08
5.33647e-05
-0.019954
1.09938e-06
7.1494e-09
4.31616e-07
1.58158e-07
5.64326e-07
1.07016e-07
5.16468e-07
4.64695e-07
-2.51242e-08
-8.65182e-06
-7.24898e-07
-5.55239e-06
-0.00400627
-0.00639071
-1.05994e-07
3.7357e-07
-2.93014e-07
0.0202812
8.41911e-07
7.49926e-07
4.54083e-07
1.9388e-07
7.26666e-08
9.00456e-08
-0.010263
-1.40975e-07
-0.00281303
-0.000188167
4.67345e-07
7.00349e-08
4.23138e-07
0.00101258
7.21173e-07
8.77631e-07
-7.89988e-08
5.54391e-07
1.54565e-08
4.00727e-07
-0.000204105
-0.00285614
1.78901e-07
3.544e-07
-0.0278929
3.96472e-07
2.64043e-07
2.25953e-07
0.000107288
1.46436e-07
4.0965e-07
0.000204167
-0.00724863
8.13129e-07
7.13592e-07
-3.85655e-07
-2.02093e-08
4.81302e-07
-0.00011118
-0.00188915
-0.00284982
5.3731e-08
0.0473294
2.59644e-07
0.000656976
-0.00264631
3.68099e-08
0.0120602
-0.000303663
5.8068e-08
-2.61494e-06
8.43232e-07
-3.9971e-07
-0.0028659
2.51514e-07
-0.00864273
-4.7463e-06
-0.00276289
0.000138495
1.03234e-06
7.17368e-08
3.91816e-07
5.38318e-07
3.6393e-07
-5.03432e-08
2.93826e-07
1.31725e-05
1.9476e-07
9.25943e-07
-0.00330048
-0.0141657
9.45534e-07
-5.49974e-06
-9.7872e-08
-0.000523015
1.61978e-08
-0.00419412
0.00659482
-0.00824097
0.000541529
2.52014e-05
-0.00797939
4.57864e-08
-3.13377e-07
-3.69612e-08
4.08579e-07
1.34425e-07
0.00349966
3.79978e-07
0.0286998
5.83897e-07
3.09423e-07
-6.08011e-08
4.59658e-07
-6.68386e-08
8.5912e-05
0.0171724
-0.00739949
2.06323e-07
3.44125e-07
7.36042e-07
-5.87543e-07
2.28553e-06
3.63168e-07
-0.00132512
0.000562202
6.18785e-07
3.06017e-08
-0.00279232
5.58873e-07
5.86084e-05
-0.000855816
1.65648e-07
-0.00259963
1.21421e-07
-0.00901058
3.11918e-07
-1.7265e-05
-5.36061e-10
-0.000284949
-1.00584e-05
0.00571814
0.00171036
0.0237419
3.09698e-06
0.000211896
8.56061e-07
3.61989e-07
-0.000414961
0.000144154
3.52926e-06
4.66359e-07
0.0163074
-5.87499e-05
0.00524544
8.77321e-07
-0.0102313
-9.47443e-07
9.06322e-07
0.0127304
9.55561e-07
-9.38083e-07
4.75272e-07
9.5745e-09
1.21672e-07
1.34612e-07
-3.92633e-08
0.00591212
1.12049e-07
0.000197999
2.34697e-06
6.29325e-06
-4.41083e-05
-0.00101266
-8.06488e-08
4.84231e-07
-0.00539106
0.00208509
1.16366e-06
0.00128588
-0.00398776
-0.000350908
1.02638e-07
8.41963e-07
8.5944e-07
1.51982e-06
-0.000177764
0.00382827
0.00128682
6.65082e-07
-2.07151e-07
2.61242e-07
2.3834e-05
0.00160014
7.18137e-07
-0.00342856
3.9233e-07
5.8376e-07
4.99579e-07
-0.00585291
6.21024e-07
4.61833e-08
1.31086e-07
6.36868e-07
-0.0187834
-0.000996035
4.69039e-07
9.99161e-07
-0.00196746
5.95377e-07
0.00395937
4.01534e-07
8.45913e-07
6.87667e-07
8.35382e-07
2.70585e-05
-1.1988e-08
1.75694e-07
1.34916e-07
-1.95944e-06
2.71903e-06
7.70964e-07
2.15383e-07
5.55699e-07
5.58986e-07
-0.00472685
8.23214e-07
6.92655e-07
6.2209e-07
-0.000865757
-1.19243e-07
0.00201349
6.43342e-07
8.48683e-07
1.60116e-07
2.31903e-05
1.87748e-05
4.65155e-07
0.0414288
1.15106e-06
6.46114e-08
-0.000819653
1.55793e-07
7.86385e-05
5.92724e-05
5.46188e-07
4.34096e-07
0.00122419
3.86555e-07
-0.0116416
4.84196e-07
0.0134371
-0.00213006
-1.07872e-05
5.738e-07
2.01531e-07
3.81157e-07
8.3692e-08
7.26917e-07
2.55209e-09
-2.76243e-07
4.46053e-07
8.98469e-08
6.9872e-07
3.37678e-09
-3.81601e-07
3.50155e-07
0.000482872
3.10462e-07
0.0439286
1.90873e-07
2.70604e-07
5.25886e-05
-1.29159e-08
0.022749
-0.000766584
-2.89807e-07
4.56093e-07
9.4821e-07
9.0506e-05
5.21617e-07
0.0193948
7.66917e-07
1.5411e-07
-0.0243465
1.30045e-07
-0.00176479
4.85603e-07
-0.000708293
-7.8862e-09
-0.00228145
0.00242357
-0.000715572
4.37856e-07
6.85074e-07
2.47697e-07
3.74322e-07
-0.00129131
5.42727e-08
4.46042e-07
9.25803e-07
4.56144e-07
-0.0141678
0.000114814
1.72404e-07
8.6831e-07
2.17193e-07
4.93084e-07
4.65216e-07
3.23656e-07
1.8462e-07
0.004348
-0.00639973
-6.70689e-05
6.14954e-07
3.84858e-07
5.57654e-07
4.22067e-06
0.00459001
1.28294e-07
0.0115024
4.52582e-05
6.2058e-07
6.59872e-07
3.13206e-06
6.4041e-08
6.87567e-07
5.87273e-06
5.42899e-07
1.62063e-05
4.46981e-07
6.60138e-06
1.19777e-07
5.06529e-07
3.50495e-06
4.80266e-07
3.35209e-07
3.49433e-07
9.1349e-07
-0.00265804
4.34599e-07
-1.9304e-06
-1.49189e-07
-0.00909474
0.0042552
8.02678e-07
-1.77753e-07
9.97529e-09
4.65981e-08
4.34069e-07
-3.10385e-05
1.25606e-07
-4.37265e-07
4.35602e-07
-1.91621e-06
3.61488e-07
-3.02809e-07
0.0436749
2.38909e-07
4.61116e-07
0.00048761
5.96139e-07
8.15206e-07
-0.000279237
6.62985e-07
-0.00824921
9.21419e-08
4.63271e-08
1.74517e-07
1.10781e-06
1.46964e-07
-0.000239536
3.68959e-07
4.7113e-08
0.0100383
0.00176949
-0.000756792
0.000158662
0.00285892
9.56993e-07
6.8545e-08
6.09388e-07
0.000447687
6.81422e-07
0.00257854
5.63436e-07
4.9728e-07
-5.38694e-06
0.00111933
1.01581e-07
0.034085
-0.000265621
2.73283e-07
9.78474e-07
7.83174e-07
4.21468e-07
0.0044659
-0.000127482
3.26689e-07
-3.84953e-08
-2.21233e-08
-0.00168743
5.42973e-07
0.00486841
6.95763e-07
5.90982e-07
3.19437e-07
8.48684e-09
0.0269488
0.000802067
1.07946e-07
0.000179387
0.00932884
4.8742e-07
-0.000231237
5.32782e-07
1.02761e-07
-3.61368e-09
4.38913e-07
-4.64393e-08
3.37684e-07
6.56198e-07
6.59183e-07
4.77191e-07
2.15361e-06
6.24845e-07
-0.00234756
8.20375e-07
1.41303e-07
-0.000180858
5.15377e-08
-1.64507e-08
8.34188e-08
3.16883e-07
0.00317944
2.92852e-07
1.47522e-06
0.0243509
5.67591e-08
4.46897e-06
0.000116227
4.0042e-07
1.242e-07
2.82568e-08
0.00112463
4.83934e-07
-0.00397011
0.00138523
1.1656e-07
6.10953e-07
1.12778e-06
-0.00117382
4.33693e-08
0.000142144
5.76953e-07
0.000457494
5.20096e-06
4.77785e-05
0.00210234
-4.75946e-07
3.62592e-06
0.0037936
5.91862e-06
3.25854e-07
6.78781e-07
6.00454e-07
7.61678e-07
1.84865e-07
3.18163e-07
0.0173772
5.59929e-07
0.00045932
0.000304104
3.80259e-07
7.7617e-05
-9.4372e-08
7.90764e-05
4.74355e-07
5.34131e-07
1.0515e-05
-0.000317096
0.0416374
6.92754e-07
4.88067e-07
-0.0101909
2.42729e-07
4.45886e-07
-1.69348e-08
6.75774e-07
-7.58187e-07
4.08712e-07
8.43095e-08
-0.0147732
4.25141e-07
-4.03203e-07
-6.97999e-08
1.25437e-07
3.85392e-07
-5.99858e-06
7.20237e-08
0.000216592
-1.03685e-06
-0.00785703
3.95175e-07
3.87184e-07
4.59591e-08
1.61684e-06
-4.21619e-07
0.00344377
0.0265448
-0.000317302
9.36275e-07
1.67676e-07
4.97055e-08
2.95571e-07
6.83951e-09
0.00150275
5.46432e-07
5.88962e-07
0.0106278
3.29262e-07
5.57306e-07
0.0299376
-4.53356e-05
-0.0102036
-1.01568e-06
-0.00435615
0.00728839
9.67785e-08
1.26036e-07
-4.34305e-07
-0.00338292
1.28929e-05
0.00142716
2.97259e-06
5.08471e-08
1.52024e-08
-0.000115139
1.02264e-06
7.18722e-07
1.03044e-05
6.93562e-07
5.44774e-07
0.00135567
0.0047588
-7.50336e-06
5.19886e-07
-9.49366e-07
1.42866e-06
-0.00716867
3.77488e-07
2.97666e-07
4.01337e-07
-1.7966e-05
1.33286e-07
3.84369e-07
-0.00502517
0.040775
2.04435e-07
8.62053e-08
-7.81152e-08
5.16876e-07
2.7546e-08
1.53459e-06
0.000903954
3.35771e-07
4.91834e-06
-0.00270086
-0.0268618
7.28792e-07
9.23337e-07
3.05499e-07
4.80674e-07
-3.41224e-08
-1.33188e-07
2.38118e-07
-0.00340805
-0.00455248
4.1676e-07
-1.1836e-08
1.77945e-07
-2.84253e-07
-0.0277696
8.97809e-07
-0.00660015
-0.00267061
2.62115e-05
9.81712e-07
-8.21144e-08
3.56095e-07
9.34467e-08
-4.19272e-08
0.0161743
2.865e-08
3.63722e-07
-4.64114e-06
-0.00656025
0.00163832
1.03626e-05
7.2389e-05
0.00135258
4.90834e-07
2.16417e-06
-0.00675764
0.0095728
1.99172e-07
3.01681e-07
-4.81169e-07
1.36461e-07
2.49712e-07
-0.0191482
1.62213e-07
4.43468e-07
0.00155537
3.32969e-07
-0.0140102
2.37147e-07
4.05892e-08
1.4582e-06
-1.93958e-05
2.60288e-05
0.000835671
7.75076e-07
-0.0248547
9.37821e-07
2.65956e-07
-0.00587256
2.33675e-07
3.12413e-07
4.75349e-07
5.58764e-08
0.00294997
0.0145215
0.0605571
2.78386e-06
-0.00372201
-0.000313714
0.00144341
6.62527e-08
6.91875e-08
2.23707e-05
3.15011e-07
6.40104e-07
7.12717e-07
1.01879e-07
-0.0028754
5.01924e-07
-0.00447353
0.000200743
-5.81116e-08
-0.00990563
7.54495e-07
3.70226e-07
-2.05412e-07
1.07464e-06
6.50338e-08
2.85022e-07
7.47143e-07
-0.000186332
1.52347e-07
3.12315e-07
1.41172e-07
6.84396e-07
0.000230865
2.12658e-07
-2.97669e-07
8.50458e-06
0.0135391
1.10042e-07
2.92086e-07
2.8414e-07
3.34754e-07
9.63036e-09
3.99569e-07
0.00361385
0.000714612
3.75326e-07
4.00006e-07
3.26028e-07
1.12864e-06
-0.000822412
1.01084e-07
-0.000129488
0.0146565
4.3629e-07
1.15336e-06
0.03291
0.0259471
7.18381e-07
-3.77129e-09
4.26759e-08
-0.0088654
-1.82878e-05
-0.00737813
8.35183e-07
0.0147447
1.44376e-06
0.000686706
0.00477298
0.0456973
0.000148219
-0.00717096
0.00207789
0.0198759
-3.93209e-07
0.00189027
1.40419e-08
0.0022988
5.08954e-07
4.97402e-07
5.40744e-07
-0.025265
-3.77044e-05
-4.31839e-08
-2.17779e-08
-0.000276425
0.00013644
0.0110218
2.71677e-07
-3.44341e-07
8.14904e-09
9.59882e-07
6.2877e-07
6.77062e-07
-0.00500345
3.44262e-05
9.16638e-07
-9.77587e-09
5.63304e-06
6.6611e-07
2.95016e-07
0.000234465
-1.01815e-07
7.4892e-07
-7.64731e-08
0.00308636
6.77461e-07
0.00239651
-4.15475e-07
0.000322919
0.00789344
4.90027e-07
0.000291534
-0.000702453
0.00583933
-0.00841361
1.15401e-07
4.01024e-07
1.51076e-06
3.62306e-07
-4.21488e-07
3.19631e-07
3.29982e-07
9.08857e-07
-1.82699e-06
3.37974e-07
-0.000821616
6.32536e-07
-0.000103536
-1.38458e-07
-0.00487055
-0.0211159
-2.93042e-06
0.00398928
-0.0141116
-5.76243e-06
0.000306532
-0.00279803
7.90941e-07
5.11934e-07
3.98014e-07
9.24467e-07
-0.00357798
3.734e-07
5.37346e-07
-0.00419246
1.74996e-07
5.20366e-09
-3.7889e-07
3.92976e-07
0.00148783
4.25918e-07
8.36808e-07
4.73724e-07
0.0153352
1.27545e-07
0.00408538
-0.000622686
-0.0010919
-0.0132364
6.76931e-08
4.67366e-07
1.71181e-07
4.15972e-08
0.0237718
0.000380771
0.00367744
-0.000253514
-1.62159e-07
1.08347e-06
8.80157e-07
3.45832e-07
-0.00206016
1.68339e-07
8.02172e-07
0.0038052
-0.000215716
0.000263391
7.62949e-08
8.56955e-08
-0.0147328
9.08669e-06
1.26872e-05
-0.00466661
0.016604
-0.00842138
3.23775e-08
-3.26709e-07
1.49149e-07
-2.20978e-07
-0.000181679
3.76222e-07
7.70534e-05
3.47341e-07
1.99961e-07
0.000480003
4.8694e-07
-0.00023735
2.70603e-08
1.32236e-07
5.69864e-07
-0.0236951
2.14396e-07
-5.098e-07
-0.0123017
1.59569e-07
2.97584e-07
9.47944e-07
0.0057602
8.16551e-07
-7.0963e-06
1.64896e-07
-0.013059
0.00351308
-1.40347e-06
-1.09959e-07
1.45574e-07
3.6415e-06
9.1554e-09
-0.00217841
0.00764664
0.00155608
-0.00924952
1.00523e-07
3.16105e-07
9.92643e-08
-3.75788e-05
2.42921e-07
0.00101632
-0.000189861
6.4286e-08
0.0130973
2.74649e-07
0.0489921
8.34719e-07
1.39917e-07
0.000150435
8.89151e-08
1.87674e-07
1.6012e-07
3.76491e-08
-1.42231e-05
-0.00996403
-2.94627e-07
-9.81224e-08
5.04666e-06
-1.60306e-08
-3.60986e-07
3.52301e-07
5.86215e-07
3.77189e-07
0.0177936
-8.61492e-06
-1.07461e-07
5.54898e-07
5.53524e-07
7.40836e-08
-0.00768838
0.00350396
1.0923e-07
1.5697e-07
7.04218e-07
0.000109079
1.25504e-08
6.62927e-07
6.00488e-07
2.18764e-08
-1.61665e-07
7.4472e-07
-7.07036e-05
-3.42684e-07
0.0105215
1.26638e-07
3.13654e-07
1.68092e-07
4.02656e-07
-1.97318e-08
-4.83671e-09
-0.0121161
-0.000211827
3.67076e-08
-4.11674e-07
7.07603e-07
-3.47856e-05
5.79485e-07
3.39925e-07
-4.77392e-08
4.41164e-07
5.53613e-05
1.17964e-07
-7.02111e-05
-4.00657e-05
2.27496e-07
-1.52465e-07
-0.0458672
1.51765e-07
-0.0135754
-4.43609e-06
7.04733e-08
0.0139828
-0.00495902
0.000612867
0.00472575
0.000239022
4.51094e-07
2.43839e-07
0.0571471
-9.63788e-08
-1.03355e-06
1.33182e-06
-7.60334e-08
4.37623e-07
0.00375454
2.8348e-07
6.82639e-06
0.0182552
3.09508e-07
4.74468e-08
0.0015685
4.63347e-07
0.0012977
1.20242e-07
0.00780587
-0.0016083
0.000472839
4.64368e-07
2.6253e-07
3.14554e-07
0.0128648
0.00207286
-0.000141274
-0.00255835
-2.7688e-06
2.04429e-08
0.00306927
0.0121315
4.47906e-07
1.10784e-07
5.13199e-07
1.13081e-07
0.0169437
0.00015741
-1.25187e-07
-0.00485769
1.95676e-07
6.06024e-08
8.87723e-08
7.82955e-09
-4.22685e-08
0.000209569
2.66151e-07
0.0199712
-2.1955e-07
4.6306e-07
1.68974e-07
-3.94684e-07
4.10985e-07
1.98523e-08
5.20775e-05
4.25766e-09
7.05464e-05
0.00131929
0.000266177
6.42914e-07
0.000779695
3.14121e-07
2.67581e-07
-6.05399e-09
1.27756e-07
-2.37267e-08
0.0259247
0.00116125
1.22415e-07
6.40059e-07
0.0132495
9.04934e-07
-0.00187595
-2.04165e-07
6.66291e-08
-3.3185e-07
4.42379e-05
1.218e-05
-0.0180329
-0.00942939
2.41342e-07
0.000148469
0.000144407
-8.95572e-08
2.42692e-07
2.02204e-07
8.51301e-07
8.51842e-07
0.0328062
-0.00299513
8.61525e-07
1.7595e-07
-6.42369e-06
5.89933e-07
1.89777e-05
-3.80642e-07
0.000124837
2.00916e-07
-0.000124869
5.13241e-07
2.30712e-07
2.73186e-07
9.19096e-06
-2.67838e-07
-0.00514305
9.23571e-10
5.58959e-09
8.50987e-08
1.90753e-08
-0.00278839
8.14397e-08
1.60846e-07
5.45665e-07
-2.08647e-07
-0.00705291
0.00800084
-5.71336e-06
-2.29314e-07
-2.13879e-07
0.000320783
8.15604e-05
7.3807e-08
1.28947e-07
-0.00862346
-3.41805e-08
5.16578e-09
1.21155e-05
6.1602e-07
0.0023486
0.000151514
-0.00241492
7.88573e-07
3.03536e-07
-2.87422e-07
7.993e-07
6.67859e-08
2.25959e-07
0.00113239
-0.0284315
-9.23247e-10
3.46723e-07
3.39107e-07
3.7208e-07
-0.0213837
2.85916e-07
3.14927e-07
-1.20876e-08
1.05055e-07
1.66281e-07
6.43012e-06
-4.73609e-07
9.20307e-08
3.73199e-07
3.16878e-07
2.01112e-07
1.09046e-06
-0.00200701
1.23238e-05
-1.52161e-07
2.99949e-07
-2.30339e-07
2.68961e-07
0.0014892
3.22661e-07
0.000243595
-0.000528724
8.82547e-09
8.82549e-08
-0.000457451
1.07903e-07
-1.53247e-08
1.65618e-07
-3.6841e-05
4.88885e-07
-2.72155e-05
1.59027e-07
-8.99662e-08
1.09115e-07
-0.000507804
1.68374e-08
1.80044e-07
8.14807e-07
-0.000121114
-3.67112e-06
4.47834e-08
6.653e-05
1.26852e-07
-0.00462143
3.13691e-07
-5.93941e-08
1.22778e-07
3.93965e-07
4.82024e-09
0.00372866
4.10773e-06
-1.32638e-05
9.95127e-07
7.34883e-07
0.0300666