/*--------------------------------*- C++ -*----------------------------------*\
| =========                 |                                                 |
| \\      /  F ield         | OpenFOAM: The Open Source CFD Toolbox           |
|  \\    /   O peration     | Version:  v2012                                 |
|   \\  /    A nd           | Website:  www.openfoam.com                      |
|    \\/     M anipulation  |                                                 |
\*---------------------------------------------------------------------------*/
FoamFile
{
    version     2.0;
    format      ascii;
    class       volScalarField;
    location    "500";
    object      nut;
}
// * * * * * * * * * * * * * * * * * * * * * * * * * * * * * * * * * * * * * //

dimensions      [0 2 -1 0 0 0 0];


internalField   nonuniform List<scalar> 
10042
(
0.00675639
0.0128091
0.00407979
0.00671095
0.00675118
0.0129194
0.00218881
0.0228013
0.00670514
0.00148956
0.013064
0.0143657
0.000970459
0.00686269
0.0067874
0.00686343
0.0124986
0.0117963
0.00182554
0.00261902
0.00097381
0.00783594
0.00671057
0.0106528
0.00673762
0.007025
0.00156488
0.00668959
0.0132579
0.00943812
0.00696706
0.000835228
0.00669934
0.00669742
0.0218858
0.0209344
0.0068224
0.00669348
0.00687326
0.00721119
0.00855205
0.00670116
0.00182398
0.0118493
0.00671876
0.0067418
0.00668331
0.00677971
0.00131499
0.00252156
0.00180307
0.00671123
0.0122202
0.00202991
0.0239959
0.0376071
0.00101265
0.0108131
0.00680778
0.00668196
0.00134032
0.00743289
0.00161945
0.0223147
0.00737299
0.00688218
0.00302646
0.00637907
0.00668305
0.00683662
0.00156786
0.00569788
0.00672847
0.00680304
0.00686872
0.00156057
0.00462283
0.00668333
0.00434091
0.00181023
0.00715362
0.00799212
0.00707172
0.00671155
0.00151691
0.00203165
0.00342084
0.00399671
0.00676558
0.00480458
0.00113138
0.00678742
0.00164196
0.00199372
0.00723633
0.00676595
0.0361601
0.00279953
0.0131181
0.00679684
0.00126352
0.00199772
0.00680946
0.000850057
0.00173052
0.00679371
0.0226245
0.00685179
0.00232019
0.00680006
0.00679447
0.0023394
0.00188069
0.0219176
0.006742
0.00668694
0.00624505
0.00693806
0.00906198
0.00668877
0.00668145
0.0190541
0.0194969
0.00672072
0.00517372
0.00678457
0.00679303
0.0235695
0.00152465
0.00640913
0.00670328
0.00682597
0.00683313
0.00681625
0.00237143
0.00176986
0.00349327
0.0161833
0.00286438
0.0120165
0.00111966
0.00675782
0.0189525
0.00668965
0.00157243
0.00669435
0.00170131
0.00668284
0.00679009
0.0158124
0.00683757
0.00687502
0.00267074
0.000895007
0.00706963
0.00168492
0.00164311
0.0375218
0.00684076
0.00702899
0.00689711
0.00731113
0.00184257
0.00677408
0.00368693
0.0159106
0.00672654
0.000805392
0.0215734
0.00669335
0.00746523
0.010806
0.0249261
0.00669418
0.00199122
0.0229103
0.00673758
0.00669433
0.00680899
0.00668292
0.00314595
0.00165943
0.006802
0.00668296
0.00676662
0.00105283
0.00546767
0.00669207
0.00566434
0.00685785
0.00702899
0.00102242
0.00670566
0.00180823
0.0263491
0.00678556
0.00865133
0.00757508
0.0404599
0.00671345
0.00137072
0.00138382
0.00517343
0.00676202
0.013396
0.00681761
0.0161234
0.000924939
0.00678704
0.00682088
0.000776307
0.00673803
0.00519684
0.00534235
0.00683847
0.00366288
0.00675623
0.0251075
0.00674922
0.00140514
0.02286
0.00751548
0.0260331
0.00489583
0.00671173
0.00131095
0.00679723
0.00392405
0.00138263
0.0068122
0.00669633
0.00680538
0.00120196
0.00701947
0.00673835
0.0225865
0.00474772
0.0379526
0.00175217
0.0122666
0.0128176
0.0175385
0.00668119
0.00737803
0.0270942
0.00676132
0.0147167
0.00198403
0.00247504
0.00681769
0.00167819
0.00671013
0.0108821
0.0233697
0.0067911
0.00544342
0.00691765
0.00678429
0.0342256
0.00671944
0.00681405
0.00669865
0.00671016
0.00668388
0.00090529
0.025753
0.00639067
0.00723835
0.00700277
0.00680728
0.00672779
0.00205779
0.00679516
0.00197693
0.00679093
0.00657233
0.0030336
0.00672325
0.00700785
0.0289179
0.00668954
0.024531
0.00828151
0.00345391
0.00687632
0.0412022
0.00653174
0.0066889
0.00880483
0.00693613
0.00108653
0.00694923
0.0068962
0.0249198
0.00802129
0.00687135
0.0255236
0.0040783
0.00672851
0.00676636
0.00275214
0.00519835
0.00669328
0.014871
0.00656114
0.00818567
0.00682313
0.00765099
0.0255797
0.0246644
0.00686544
0.00679805
0.00676046
0.00686713
0.00697738
0.00938365
0.00668392
0.00678216
0.0104934
0.00668615
0.0069959
0.00222038
0.00623704
0.00654535
0.00568215
0.00686569
0.00775946
0.00680152
0.00462857
0.00113838
0.00681403
0.00675893
0.00407763
0.00688339
0.0153028
0.010439
0.0193009
0.00747754
0.00671345
0.015928
0.00112853
0.00100516
0.00668173
0.00765999
0.00696266
0.00669563
0.00676001
0.00676424
0.00713958
0.0395425
0.00484616
0.00738895
0.00716337
0.00687014
0.0141625
0.00787059
0.00679737
0.00706202
0.00327833
0.00699185
0.00678874
0.00682775
0.00376703
0.00861089
0.0157037
0.00328337
0.00672601
0.00713286
0.00713043
0.0195472
0.00668392
0.00708585
0.00680529
0.0070031
0.00183186
0.00683599
0.00710273
0.00778314
0.0218701
0.00170467
0.00677072
0.0085394
0.00144092
0.00678997
0.00089981
0.00668992
0.00679705
0.00668614
0.0068667
0.00668829
0.00679052
0.0389646
0.00492482
0.00781921
0.0152604
0.0193085
0.00671508
0.0222399
0.00683771
0.000764934
0.00671185
0.0371648
0.00708195
0.0195082
0.0337374
0.0068666
0.00108271
0.00705519
0.00979263
0.00679885
0.00810143
0.00142204
0.020748
0.00534676
0.0150571
0.00696532
0.00149559
0.0197186
0.00668586
0.00695785
0.00685389
0.0146396
0.00669946
0.00668312
0.00112984
0.00690182
0.00155131
0.0077427
0.00671757
0.000994101
0.00691326
0.00668396
0.00143709
0.0215262
0.00697657
0.00411524
0.00204731
0.00801638
0.00701243
0.0378235
0.00669002
0.00705143
0.00299875
0.00414773
0.00163132
0.0136689
0.0130789
0.00196962
0.022443
0.00668424
0.00619279
0.0264702
0.0268757
0.000880429
0.0067102
0.00676758
0.0066313
0.0387445
0.00668422
0.00688665
0.00699993
0.00671492
0.00698499
0.00704022
0.00685039
0.00376853
0.00991394
0.00319644
0.00709693
0.00744104
0.00186639
0.00673293
0.0381788
0.00202249
0.0159645
0.0068552
0.0012721
0.00701842
0.0167548
0.00673364
0.00768835
0.00555132
0.0111506
0.00678903
0.00167986
0.00688571
0.00628234
0.00569745
0.00701123
0.00671938
0.00680517
0.0104101
0.0066976
0.00768116
0.00461182
0.00109313
0.00683089
0.00764612
0.0248605
0.00208876
0.0067733
0.00697129
0.0219453
0.0122095
0.00109432
0.0135161
0.00686653
0.00588607
0.00152547
0.00154442
0.0022396
0.0165448
0.00682039
0.00671003
0.00680738
0.0244954
0.00671864
0.00893184
0.00671418
0.00676128
0.00673712
0.00151505
0.0116167
0.00681172
0.00422133
0.00926689
0.00753054
0.00177541
0.00680985
0.00685014
0.0050277
0.00210436
0.00677678
0.00670427
0.00469839
0.00677336
0.00674974
0.00682401
0.00669865
0.0269981
0.00672087
0.00137907
0.00745577
0.0345011
0.00671927
0.0012347
0.00676678
0.00671677
0.0079545
0.00668207
0.00742743
0.0010632
0.00669932
0.00756156
0.0170191
0.017365
0.0071425
0.00688136
0.00670396
0.00668227
0.00710542
0.00683312
0.00680071
0.026245
0.00675376
0.00678562
0.00117933
0.0016553
0.00653016
0.0070123
0.00670797
0.00156882
0.00602196
0.00738762
0.0166527
0.00672434
0.0012024
0.00673075
0.00670237
0.00682283
0.00680196
0.00678335
0.00687217
0.040304
0.00631964
0.00202478
0.00671866
0.00731694
0.00668431
0.00196422
0.0204515
0.00669685
0.00672138
0.00564497
0.0075474
0.00668508
0.0249551
0.00673347
0.00623927
0.00669361
0.00685743
0.00671376
0.00435389
0.00668461
0.00678093
0.00685149
0.0255011
0.00704174
0.00682216
0.00688175
0.00836228
0.00671614
0.00673608
0.00674751
0.00673618
0.00204613
0.00673991
0.00723494
0.0067387
0.0328904
0.0129117
0.00809541
0.00679914
0.00162092
0.00674345
0.00593818
0.00681844
0.00954884
0.00539582
0.0104473
0.00658599
0.0132336
0.00672357
0.00676485
0.0203381
0.00750267
0.00776128
0.000986982
0.0067988
0.00771461
0.00672878
0.00677849
0.00674013
0.00669575
0.00688767
0.0216707
0.0034111
0.00699779
0.0400308
0.00674531
0.00805118
0.00712084
0.00347748
0.00773206
0.00684127
0.0134505
0.00681261
0.00678701
0.00221867
0.00676764
0.00673538
0.0069818
0.00674238
0.00670888
0.012653
0.00806995
0.0186196
0.00677198
0.00675734
0.00673895
0.00949178
0.00525244
0.00686794
0.0068
0.00674112
0.0123948
0.00400368
0.00979923
0.00679284
0.0068662
0.0274754
0.00117592
0.0071565
0.00157925
0.0209231
0.00941941
0.0118537
0.00672683
0.00687757
0.00682545
0.0199862
0.00672418
0.00146457
0.0068434
0.00668381
0.00770188
0.00692773
0.00634371
0.0140647
0.00669024
0.0067183
0.0066826
0.0111981
0.00669524
0.00915656
0.00709706
0.00463892
0.00675137
0.00684712
0.00669772
0.00671012
0.00675439
0.00675857
0.00673487
0.00538192
0.00786506
0.00179793
0.00573858
0.00671988
0.00411208
0.0198067
0.00684864
0.0371911
0.00671793
0.00682015
0.00694702
0.00691709
0.0170498
0.00684366
0.00680782
0.0067459
0.030077
0.00682709
0.0170701
0.0011222
0.00675926
0.0018724
0.0216902
0.00706271
0.00673212
0.00109646
0.00708002
0.00776121
0.00775404
0.00310887
0.00777544
0.00676644
0.00677974
0.0068702
0.00192211
0.00682244
0.00767836
0.00204293
0.00668492
0.00719945
0.00681422
0.00302262
0.00707237
0.01006
0.00638161
0.00678204
0.00544534
0.00674646
0.00106078
0.00143072
0.00688559
0.0126064
0.00792553
0.00677251
0.0069389
0.00144948
0.00683084
0.0142868
0.00584894
0.00146165
0.00138862
0.0297319
0.00690533
0.00161454
0.00778528
0.00508604
0.00107043
0.00668996
0.00141412
0.00679184
0.00552059
0.00687097
0.00675376
0.00273269
0.00125886
0.00693367
0.00678505
0.0152095
0.00669192
0.00675392
0.00671613
0.00668356
0.0104189
0.00719948
0.00677416
0.00446796
0.017682
0.00675325
0.00630505
0.00871709
0.00673541
0.00679982
0.00668313
0.0115491
0.0201362
0.00176262
0.00673069
0.00124972
0.00218126
0.0394989
0.00700868
0.00827984
0.00176262
0.00633374
0.00791661
0.00677336
0.00727639
0.00638629
0.00282005
0.00609219
0.0396774
0.00478152
0.0119115
0.0176911
0.00683824
0.00410447
0.00812066
0.00508379
0.026883
0.00178715
0.0412187
0.00678052
0.010999
0.0067664
0.0050791
0.00694383
0.00670926
0.00669176
0.00678725
0.00672044
0.0168023
0.00681514
0.00668817
0.00191421
0.00675171
0.00128931
0.00705251
0.00703973
0.00693574
0.00399273
0.00681587
0.00682864
0.00674053
0.00135653
0.00671191
0.00213607
0.00379778
0.00469999
0.0068262
0.0216421
0.0067068
0.00102859
0.00892076
0.00693463
0.00674871
0.00668528
0.00682331
0.00683581
0.0236381
0.0021073
0.00674529
0.0311132
0.00687112
0.00678276
0.01446
0.00668289
0.00677649
0.0313343
0.00670993
0.0187777
0.0028211
0.0019729
0.00133287
0.00225415
0.00766253
0.00676118
0.0186919
0.0216603
0.00672046
0.0015229
0.0042342
0.00228195
0.00233473
0.00705531
0.00676579
0.00810105
0.00678889
0.00768717
0.00875807
0.00162798
0.00668269
0.000921822
0.0176146
0.0195211
0.00668274
0.00668259
0.00701604
0.00680557
0.0143946
0.00794998
0.00678459
0.0014179
0.0172724
0.00686801
0.00690836
0.0345321
0.00416317
0.00797484
0.00746375
0.0068636
0.00677847
0.00712583
0.000729183
0.00453322
0.00685034
0.00844339
0.0293428
0.0283412
0.00183224
0.00441834
0.0356078
0.000848328
0.0199822
0.000962275
0.00676474
0.00679826
0.0288542
0.0140774
0.00694884
0.00150598
0.00089517
0.00680371
0.00425188
0.00694435
0.0067904
0.00700464
0.000867848
0.00677268
0.00672412
0.0385806
0.00678085
0.00675808
0.0014748
0.00143163
0.00719667
0.00695561
0.00680865
0.026664
0.00124796
0.0069145
0.00113113
0.0111233
0.00674144
0.00671131
0.00137967
0.00605187
0.00673223
0.00691119
0.00679409
0.00701759
0.00686515
0.0265497
0.0068808
0.00373807
0.00677247
0.00215893
0.00682531
0.00596016
0.00632612
0.0124576
0.00198224
0.00675028
0.00689895
0.0141276
0.00823253
0.00769286
0.00366975
0.0104258
0.00674675
0.00738392
0.00405929
0.00722223
0.00245028
0.00671377
0.00398956
0.0172232
0.00222616
0.00690153
0.00681738
0.00128218
0.00585129
0.0067517
0.00672968
0.000921574
0.00669425
0.00673087
0.00721137
0.00689072
0.0208729
0.00671626
0.0067372
0.00674692
0.00211584
0.00695496
0.00747016
0.00200601
0.00673596
0.00682166
0.0158548
0.00680135
0.00409199
0.0069432
0.0197251
0.00710614
0.0068896
0.0164077
0.00266013
0.00677629
0.00797817
0.0038235
0.00678049
0.00668354
0.00672037
0.00707708
0.0276896
0.00156602
0.0238607
0.0189265
0.0150429
0.00204281
0.00680783
0.00189175
0.00724027
0.00669446
0.00111341
0.00677819
0.0068373
0.00681386
0.0251002
0.0242426
0.00675505
0.00473141
0.00674795
0.00239173
0.00685675
0.00239947
0.00711126
0.00586724
0.00475856
0.00672911
0.00668797
0.00219206
0.0016111
0.00706131
0.00744142
0.0101234
0.00691001
0.0169464
0.0135768
0.00670617
0.00672657
0.00674946
0.00198312
0.00692591
0.00414409
0.00685031
0.0070317
0.00692551
0.00681612
0.00697895
0.00851671
0.0128883
0.00670488
0.00324456
0.00249785
0.000823019
0.00161503
0.00279698
0.00670958
0.000751673
0.00181227
0.00675153
0.00111321
0.0103905
0.0067945
0.00673084
0.00703704
0.0121815
0.0193178
0.00676944
0.0244369
0.00682084
0.00679854
0.00203786
0.00682324
0.00691725
0.00675276
0.00695897
0.00768608
0.010445
0.00700396
0.00684752
0.00671516
0.00686427
0.00672143
0.0237979
0.00668875
0.00231784
0.00837646
0.0129383
0.00669973
0.0136908
0.00680317
0.000855789
0.00698018
0.00494784
0.00668967
0.00592218
0.00523632
0.0123302
0.00675524
0.0069325
0.0151207
0.008445
0.00696079
0.0145313
0.0067902
0.0159095
0.0113483
0.00716401
0.00210326
0.014802
0.0234658
0.0387394
0.00160092
0.0120267
0.00673206
0.00705185
0.0147369
0.00118621
0.00671517
0.0141921
0.00366548
0.00672235
0.00684211
0.00579133
0.00117134
0.00220608
0.0155953
0.00148341
0.00328399
0.00292966
0.00673691
0.00690875
0.0240352
0.0115194
0.00143146
0.0171979
0.00680942
0.00678539
0.0011993
0.00908204
0.00124102
0.00672661
0.00770206
0.0303441
0.00686599
0.00475966
0.00676916
0.000923702
0.00522081
0.00680651
0.0134275
0.0142674
0.00672177
0.00324775
0.00671679
0.0165329
0.00696076
0.00163749
0.0077333
0.00673914
0.00685226
0.00668889
0.00117217
0.00679769
0.00729058
0.00718657
0.0078556
0.00835535
0.00681973
0.00128262
0.0123874
0.00683811
0.00393999
0.00687452
0.00675686
0.0362311
0.020505
0.00679627
0.00152443
0.0073717
0.0116738
0.00677903
0.00692855
0.00707108
0.0068836
0.00196693
0.00777266
0.00693058
0.00698769
0.0132262
0.00421143
0.00255219
0.0232814
0.00165535
0.0153133
0.00671953
0.00668407
0.0137281
0.00683293
0.0119368
0.0151884
0.00163741
0.0171962
0.00681636
0.0069235
0.00183207
0.0161391
0.00678103
0.00167983
0.00707964
0.00676416
0.00110865
0.00317108
0.00681382
0.000909791
0.00233746
0.00687192
0.00213271
0.00671159
0.00687356
0.00298424
0.000961902
0.0164789
0.00674854
0.00120003
0.00673612
0.00672321
0.0170877
0.00676592
0.0141715
0.012819
0.0046549
0.0161391
0.000886891
0.00605851
0.00668263
0.0159717
0.0017844
2.79455e-06
0.00269127
0.00703073
0.00674958
0.0029923
0.00262831
0.00696603
0.000882244
0.00671983
0.019383
0.00668247
0.0404222
0.00671024
0.00287027
0.00681142
0.00671907
0.00671225
0.0188837
0.00671049
0.00678745
0.00669642
0.00673462
0.00672155
0.00410281
0.0228914
0.00683512
0.00140177
0.00678418
0.00671012
0.00670504
0.0158853
0.0409965
0.0014244
0.00677407
0.00670753
0.00673939
0.00218931
0.00151017
0.0067063
0.0159534
0.0236762
0.00837803
0.00681403
0.00673758
0.00671569
0.00225551
0.00673259
0.0052123
0.00672737
0.00672392
0.00609943
0.0068775
0.00737557
0.0279815
0.0301386
0.0072341
0.0067131
0.00680525
0.0330031
0.00694669
0.00123131
0.00698738
0.00672534
0.00677237
0.00672124
0.016739
0.00685458
0.0154705
0.0211497
0.00079356
0.00674547
0.00150098
0.0161704
0.00215466
0.00115426
0.00692846
0.00090134
0.00672248
0.00134639
0.00240752
0.0155281
0.00677647
0.00676466
0.0159615
0.00158117
0.000753896
0.00703693
0.0139708
0.00673858
0.00143741
0.00939604
0.00873875
0.00106976
0.006851
0.00682438
0.0068434
0.00678555
0.00302376
0.0174079
0.0153494
0.00672618
0.0236337
0.00689621
0.00445336
0.0156801
0.00673624
0.0258118
0.00416764
0.00672619
0.00196697
0.00116887
0.00681017
0.0137232
0.00671114
0.0403119
0.00725413
0.0372355
0.00188922
0.000871702
0.00677898
0.00134324
0.00543047
0.0067322
0.00671073
0.00676268
0.00213407
0.0039974
0.00118775
0.00319196
0.0260353
0.00119476
0.00746527
0.00682029
0.0386767
0.00672551
0.00780718
0.00298077
0.0311869
0.0014333
0.0224407
0.00310584
0.00669273
0.00680668
0.0067075
0.00154885
0.00692722
0.0296212
0.00156352
0.0293875
0.00135537
0.00680097
0.0068079
0.00677116
0.00669241
0.0137712
0.022973
0.0400902
0.00679248
0.00705852
0.00215084
0.00688112
0.00135102
0.00673648
0.0188537
0.0163173
0.00614584
0.00724501
0.00228152
0.00137914
0.0111877
0.0247225
0.00684151
0.0158703
0.00692764
0.0400299
0.00671002
0.00556607
0.00687337
0.0118151
0.00539599
0.0216772
0.0182418
0.0324502
0.00183425
0.00509197
0.00725159
0.00704589
0.0195418
0.0158733
0.00139315
0.00124801
0.0289838
0.00754312
0.016477
0.000856474
0.0184125
0.00483432
0.00104359
0.0125708
0.0069469
0.00556839
0.00707843
0.00673596
0.00671908
0.00673551
0.0068329
0.00343125
0.00365819
0.0158495
0.00133349
0.00178191
0.0172032
0.0163746
0.00678992
0.00524463
0.00873864
0.00898873
0.00217838
0.0148509
0.0380084
0.0166136
0.00672588
0.00107245
0.00245714
0.00127412
0.00132517
0.0143338
0.0166677
0.00085271
0.00680213
0.0068466
0.00260162
0.00819886
0.000849006
0.00913506
0.00671107
0.00582163
0.0023379
0.0199057
0.0022394
0.00671256
0.00671309
0.00257978
0.0228132
0.017919
0.00558257
0.00115819
0.0178636
0.00700117
0.0121835
0.00624598
0.00123318
0.00694746
0.00122066
0.00199612
0.00671124
0.00680669
0.00703271
0.00198195
0.0013115
0.00109403
0.00362746
0.0028687
0.00668861
0.0248531
0.00123208
0.00222702
0.00679973
0.0124305
0.00693654
0.0217336
0.00334476
0.00124717
0.00674469
0.0017913
0.00794244
0.000790507
0.00805263
0.00689893
0.00691044
0.0195386
0.00698258
0.0154159
0.00188591
0.00679192
0.00244118
0.00227803
0.00672493
0.0253476
0.00679667
0.0187748
0.015944
0.00800774
0.00272525
0.00671787
0.00671258
0.00674093
0.00197542
0.00668762
0.00680172
0.00671062
0.00672306
0.00233558
0.00687203
0.00701907
0.00684218
0.0019338
0.00676092
0.010783
0.00399936
0.0067557
0.0019778
0.00671132
0.0198749
0.0065123
0.0067998
0.00476763
0.000873486
0.0141257
0.00708836
0.00531918
0.00129874
0.00695488
0.0207435
0.00676615
0.036236
0.00678363
0.012087
0.00675453
0.0373474
0.0392616
0.00793326
0.00504661
0.00254175
0.0067085
0.00215178
0.00433323
0.00676468
0.00672652
0.000846436
0.00693675
0.0216066
0.00997557
0.00387766
0.00123198
0.00673828
0.00132253
0.00315401
0.00672257
0.00401314
0.00311389
0.038214
0.00371023
0.00261067
0.00438947
0.00280225
0.00177967
0.0311009
0.00134598
0.0170536
0.0153317
0.00252669
0.00213277
0.00138199
0.00671982
0.00233552
0.00743617
0.0027644
0.0171684
0.00247049
0.016247
0.00709286
0.00555399
0.0014113
0.00236566
0.00193481
0.0068869
0.00173653
0.0112781
0.00698228
0.00711766
0.00680033
0.0407698
0.0119534
0.00203016
0.00679807
0.00670312
0.00702674
0.00686403
0.00616801
0.00671593
0.0071399
0.0067656
0.00731232
0.000988624
0.006805
0.00932462
0.00420753
0.00458987
0.00320452
0.00251883
0.00204801
0.0110546
0.00654148
0.0190965
0.00672419
0.00670495
0.00392806
0.00743837
0.00671514
0.0205605
0.00426427
0.00675189
0.0133368
0.0177462
0.0379274
0.0162605
0.0108646
0.00186222
0.00672215
0.00289302
0.0155775
0.00131796
0.00667006
0.00403621
0.000937935
0.00833667
0.00787164
0.00670175
0.0288567
0.0136468
0.00671481
0.001868
0.00682655
0.0031159
0.0176633
0.00261237
0.00677129
0.00672251
0.00669072
0.0173571
0.00639938
0.0132499
0.000918356
0.00679887
0.00670974
0.00675628
0.00858948
0.00767961
0.00671024
0.00200725
0.0104133
0.00529877
0.0244038
0.00679242
0.0067276
0.00670195
0.00679077
0.00678622
0.00688227
0.00681652
0.00344313
0.00680451
0.00121851
0.00296228
0.00819604
0.00118176
0.0067374
0.00245649
0.00669649
0.0071086
0.00136766
0.00671232
0.0118322
0.00671329
0.00128813
0.0253543
0.00670051
0.00214876
0.0155757
0.00677837
0.00680206
0.00683971
0.00063907
0.00678461
0.0119572
0.0153934
0.00701366
0.00137418
0.00112674
0.00189266
0.00685872
0.00604183
0.00680495
0.00767167
0.00226056
0.00217458
0.0102295
0.00690282
0.00139455
0.0112777
0.00161625
0.00676995
0.000838686
0.00303428
0.000974712
0.0067211
0.00690018
0.0235345
0.00142304
0.0118785
0.00758819
0.00706437
0.0157923
0.00670154
0.00711952
0.00677206
0.00144309
0.00162312
0.0178881
0.0252956
0.00090867
0.00149514
0.0281771
0.00702041
0.00671055
0.00684865
0.00644031
0.00687329
0.00157226
0.00673513
0.024939
0.00125797
0.00685836
0.00677033
0.00671595
0.00671322
0.0026522
0.00679052
0.0013307
0.00684568
0.0260479
0.00703275
0.00677096
0.00672977
0.00112208
0.00699159
0.00230169
0.0160805
0.0201522
0.00204831
0.00375445
0.00672048
0.00671052
0.00674862
0.0137888
0.0068107
0.00622536
0.00951655
0.00676548
0.00391137
0.00624738
0.00255113
0.0277708
0.00714825
0.0256598
0.00948254
0.00671812
0.00677845
0.00232023
0.0260618
0.00188954
0.0141559
0.00184349
0.00677305
0.00671425
0.00981072
0.001751
0.00682748
0.00739066
0.00681825
0.00224914
0.0129834
0.0102496
0.00707903
0.00130178
0.0056865
0.00519707
0.0260138
0.00677679
0.00671066
0.00673788
0.00951156
0.00670977
0.00161429
0.0279239
0.00931369
0.00672719
0.00675635
0.00674122
0.00679154
0.00686152
0.00172252
0.00579108
0.00341696
0.00203493
0.0100577
0.011323
0.00696036
0.00681293
0.00678272
0.00671267
0.00672015
0.00675457
0.00679379
0.0146174
0.0216205
0.00687661
0.00670358
0.00680485
0.00680321
0.00803268
0.00175702
0.0292256
0.013156
0.00786252
0.00117018
0.00671406
0.00680808
0.00671618
0.0067987
0.0160894
0.00676672
0.0016659
0.00258338
0.0198756
0.0232648
0.00270729
0.00192499
0.0151815
0.0067224
0.00184864
0.0262921
0.00716906
0.00677676
0.00703337
0.00714314
0.00678256
0.00678848
0.00635099
0.00677545
0.00679733
0.00579021
0.00171196
0.0295291
0.00672126
0.0067009
0.00189432
0.00251288
0.00536107
0.0207276
0.0070097
0.0199802
0.000944482
0.00671555
0.0147203
0.00671658
0.00180936
0.00680005
0.00674738
0.033307
0.0204565
0.0216272
0.00160518
0.010009
0.00159475
0.00578508
0.00672838
0.00680133
0.00241408
0.00672285
0.00681383
0.00271796
0.00677103
0.0262206
0.00679033
0.0159987
0.00751355
0.00669292
0.022336
0.00688206
0.00671271
0.00283249
0.00328936
0.00376874
0.00413306
0.00537307
0.0151889
0.00679959
0.00672034
0.00706551
0.000742715
0.00861824
0.00670959
0.00679347
0.00779882
0.0194456
0.00671878
0.00667704
0.00704871
0.00681767
0.00675942
0.00681076
0.0255408
0.00213716
0.00706504
0.00298496
0.00671919
0.00199354
0.0120491
0.00679871
0.0106031
0.0176328
0.00677725
0.00205544
0.0243535
0.0192133
0.00126712
0.00669307
0.00673974
0.0206709
0.00173795
0.0273453
0.0016138
0.0114117
0.00487951
0.0265771
0.01224
0.0194131
0.00875754
0.0276518
0.0190098
0.0107676
0.00679517
0.021821
0.00699692
0.0243183
0.00263616
0.00449068
0.00708835
0.0143286
0.0153831
0.00686587
0.00679806
0.00869886
0.0256364
0.00915041
0.00670611
0.00680001
0.00674867
0.00209462
0.00687307
0.000802887
0.0287163
0.0220451
0.00220727
0.00690074
0.00160398
0.00681521
0.00675412
0.0114354
0.00683734
0.00223388
0.0067683
0.0109287
0.0010745
0.0200478
0.00702574
0.00687995
0.00794064
0.000906429
0.00716955
0.0369011
0.00720174
0.0230605
0.00671252
0.00678317
0.00120909
0.00676627
0.00681138
0.0067985
0.00680661
0.0022301
0.00727273
0.00671105
0.0133067
0.00728285
0.0130365
0.00678805
0.0149172
0.0193184
0.0069055
0.00304915
0.0222172
0.00624234
0.00773851
0.0362396
0.00682921
0.00679063
0.00658909
0.00227672
0.0196164
0.00671329
0.00694746
0.0201433
0.00671513
0.00671661
0.00679922
0.0068908
0.011554
0.00679653
0.00112536
0.00680875
0.0303368
0.00671836
0.0367966
0.0193211
0.0152819
0.0290319
0.00670813
0.00708492
0.0068022
0.00676566
0.0128432
0.00561004
0.00761279
0.0196629
0.00674212
0.00554076
0.00248682
0.00677103
0.0176257
0.00673067
0.00123436
0.0240043
0.0205886
0.00523328
0.00671963
0.00679975
0.0249981
0.00733456
0.00790297
0.00880268
0.0104366
0.027257
0.00702007
0.00679268
0.00672806
0.00679984
0.0124559
0.00684826
0.00883398
0.00673558
0.00679933
0.0115242
0.00693101
0.0111778
0.00391936
0.00679752
0.00708567
0.0162749
0.00670299
0.00701503
0.0150341
0.00678154
0.00678713
0.000866144
0.036182
0.00192464
0.00645467
0.00672221
0.0244537
0.0111852
0.00169154
0.00679629
0.00670323
0.00367311
0.00679568
0.015768
0.0208495
0.0142236
0.0234571
0.00674057
0.006524
0.00673402
0.00220392
0.00677633
0.00677679
0.0154582
0.00677723
0.00847953
0.00672353
0.0265856
0.000891135
0.0067137
0.00680593
0.00673404
0.00671373
0.00675524
0.00668417
0.0063889
0.0303477
0.00680242
0.0066999
0.00158062
0.00669179
0.00679878
0.0035355
0.00671153
0.00675982
0.0186801
0.00327252
0.0067156
0.00263018
0.00345331
0.00676541
0.0204414
0.0268704
0.00677117
0.00674351
0.0069465
0.00773833
0.00678546
0.00680883
0.00381159
0.00147021
0.00672813
0.00418405
0.0155204
0.00680896
0.0118965
0.00671862
0.006757
0.00671391
0.00671065
0.00672472
0.00675469
0.0261437
0.0208205
0.00670137
0.00705603
0.00701573
0.00561908
0.00393327
0.001316
0.0067544
0.00468105
0.00643026
0.00677297
0.0232638
0.0051597
0.00671647
0.00687392
0.0174045
0.00407222
0.0199682
0.00241096
0.00671305
0.0176468
0.0312491
0.015745
0.00807959
0.00705831
0.00402012
0.00671571
0.0115646
0.00679418
0.00609968
0.00279395
0.00675442
0.0067252
0.0028986
0.00670474
0.00188499
0.0129876
0.00440066
0.00677865
0.0381969
0.00671349
0.00612695
0.00670512
0.00957566
0.00356857
0.0186463
0.00671527
0.00672814
0.00386419
0.0283093
0.00631689
0.0191509
0.00197833
0.00707949
0.00674954
0.00740197
0.00432949
0.00671607
0.00691299
0.00708313
0.00671216
0.0345915
0.00181176
0.00673227
0.0105303
0.00672525
0.00673039
0.00670175
0.00676012
0.00671511
0.00225192
0.00672899
0.02065
0.00679666
0.00480677
0.00680088
0.00680482
0.00671115
0.00674559
0.00725044
0.00671964
0.00494427
0.0124221
0.00520956
0.00459476
0.00575421
0.00416849
0.00682285
0.00669119
0.00671337
0.0066919
0.00637241
0.0125197
0.00691279
0.00324642
0.0136594
0.00668947
0.0190273
0.00686913
0.00671142
0.00680671
0.00502601
0.00568857
0.0238072
0.036213
0.00705124
0.00514491
0.00518397
0.00684364
0.00671497
0.00670662
0.00131205
0.00123426
0.00832549
0.0368088
0.00124009
0.00671125
0.00327211
0.00671185
0.00506029
0.00681995
0.00887755
0.00354974
0.00376486
0.000884358
0.00417848
0.00703607
0.00534715
0.00251158
0.0300064
0.00671063
0.00671343
0.00676486
0.00676024
0.0094398
0.00674541
0.00679935
0.00251411
0.00672903
0.0205728
0.0172598
0.00328861
0.0068383
0.00679994
0.00262108
0.0117565
0.00671462
0.00671395
0.00481112
0.00671437
0.0067536
0.0115897
0.00697307
0.00979999
0.0156839
0.0164688
0.00125159
0.00676165
0.00683289
0.00137121
0.0067111
0.00674792
0.00585292
0.0128634
0.00716706
0.0067946
0.00671008
0.00363849
0.0261802
0.00678457
0.00332899
0.00679789
0.00670972
0.00672796
0.00537898
0.00705683
0.00673663
0.00692193
0.00432906
0.00670273
0.00270554
0.0182878
0.00598674
0.00678607
0.00681014
0.00682488
0.00677183
0.013023
0.00671922
0.0193871
0.00348269
0.00671024
0.00671647
0.0210291
0.0067023
0.00674918
0.0067171
0.0124583
0.007072
0.00574633
0.00673505
0.00670957
0.00676524
0.020395
0.00677048
0.00680266
0.00120196
0.0132998
0.00572426
0.0066915
0.0167038
0.00669496
0.00662937
0.00671235
0.00677099
0.00671854
0.00677541
0.00680958
0.0158374
0.00155211
0.0216506
0.000882603
0.00560531
0.00987525
0.00675853
0.0142773
0.0137533
0.0069202
0.00677028
0.00192683
0.00752896
0.00671453
0.00508723
0.00677511
0.00673282
0.00720337
0.00154306
0.00136483
0.00149702
0.0157166
0.0324931
0.00564949
0.00671586
0.00238172
0.000946972
0.0108876
0.00566738
0.00701359
0.00678252
0.000888101
0.0156937
0.00673007
0.0209087
0.00426427
0.00622496
0.00671723
0.00672437
0.00156187
0.00157754
0.0227444
0.030729
0.0059187
0.00671444
0.00681711
0.00573893
0.0124987
0.0242731
0.00670747
0.00701694
0.00670443
0.0067099
0.00671011
0.011578
0.00564755
0.00580657
0.00581317
0.0149784
0.0107558
0.00672882
0.00678794
0.0069765
0.00676332
0.00250594
0.00672485
0.00685485
0.00677377
0.00670924
0.00211353
0.0153601
0.00670957
0.00673162
0.0067258
0.0203785
0.00566723
0.00215014
0.00577115
0.0185917
0.00398212
0.00677883
0.00168005
0.00506231
0.00672512
0.0166925
0.00680189
0.00678294
0.00676524
0.0138116
0.00670958
0.00670425
0.00710216
0.00679883
0.00676387
0.00674057
0.0159406
0.0257526
0.0154545
0.00680132
0.00675523
0.0143943
0.00672479
0.0067548
0.00670797
0.011747
0.00671459
0.0208067
0.00669146
0.00672901
0.00202852
0.0049768
0.00672982
0.00486838
0.027193
0.0158348
0.00672625
0.00668279
0.00670656
0.015375
0.0070974
0.00498609
0.00865163
0.00678396
0.00670378
0.0068046
0.00683368
0.0258631
0.00674265
0.00674909
0.00673248
0.00282506
0.0177964
0.00675974
0.00672179
0.00673855
0.0110235
0.00121672
0.0202136
0.00702723
0.00696715
0.00680927
0.00675536
0.00518884
0.0231381
0.00671372
0.00679334
0.0133487
0.00199365
0.00670937
0.0067474
0.00670588
0.00678597
0.00674614
0.0107276
0.00689078
0.00708549
0.0212177
0.0128399
0.00684353
0.00801494
0.00694993
0.00602013
0.00704142
0.00443684
0.00672362
0.00534952
0.00671415
0.00673925
0.0188352
0.00710984
0.00140467
0.0186719
0.00680841
0.00700151
0.0124651
0.0121916
0.00479082
0.00672025
0.00671537
0.00525768
0.00673316
0.00670443
0.00734639
0.00232745
0.00670956
0.0141213
0.0165702
0.00672276
0.0070753
0.00700709
0.00675727
0.00679138
0.00670917
0.00677802
0.018895
0.00453953
0.00703889
0.00670327
0.00673758
0.00672541
0.0067419
0.007201
0.00442872
0.00679079
0.00946458
0.0067999
0.0067265
0.0018127
0.00670631
0.00669546
0.00690983
0.0142146
0.00672349
0.00282458
0.00722216
0.00928788
0.00682485
0.0132183
0.0143872
0.0227908
0.00709056
0.00676481
0.0123739
0.00679
0.0179232
0.00671307
0.00723706
0.0070525
0.00677522
0.0216538
0.00204789
0.0175521
0.0158548
0.0071516
0.00670462
0.00670725
0.0223816
0.00757413
0.00671245
0.00672869
0.00673753
0.00675661
0.00671288
0.0111149
0.00671587
0.00670364
0.00679307
0.00690144
0.00534273
0.00132531
0.00700437
0.00670365
0.00670051
0.023061
0.00716035
0.00671651
0.00918227
0.00682508
0.00728445
0.00727674
0.00578134
0.00673872
0.00726605
0.0119522
0.012685
0.00610725
0.00673709
0.00672468
0.00592953
0.017229
0.00725724
0.00682757
0.00721384
0.00677424
0.00452204
0.00717792
0.00733346
0.00670319
0.00681523