/*--------------------------------*- C++ -*----------------------------------*\
| =========                 |                                                 |
| \\      /  F ield         | OpenFOAM: The Open Source CFD Toolbox           |
|  \\    /   O peration     | Version:  v2012                                 |
|   \\  /    A nd           | Website:  www.openfoam.com                      |
|    \\/     M anipulation  |                                                 |
\*---------------------------------------------------------------------------*/
FoamFile
{
    version     2.0;
    format      ascii;
    class       surfaceScalarField;
    location    "500";
    object      phi;
}
// * * * * * * * * * * * * * * * * * * * * * * * * * * * * * * * * * * * * * //

dimensions      [0 3 -1 0 0 0 0];
oriented        oriented;


internalField   nonuniform List<scalar> 
14885
(
0.744782
-0.484425
-0.26035
0.204225
-0.39013
0.185843
0.521475
-0.336198
-0.185357
0.416733
0.0582725
-0.474911
-0.677621
0.377281
0.300152
0.202254
-0.433738
0.231503
0.427509
-0.221214
-0.206401
-0.359127
-0.203299
0.562412
0.260871
0.345344
-0.606251
0.125331
-0.30173
0.176348
-0.609356
0.377449
0.231942
0.377471
-0.173294
0.378666
-0.185756
-0.19297
0.731002
-0.261396
-0.469649
0.162754
-0.430288
0.267588
0.233009
0.497958
-0.145079
-0.28476
0.429862
-0.360266
-0.249052
0.190936
-0.444464
0.253443
0.200595
-0.446721
0.246111
0.148393
0.230216
0.424824
0.319957
-0.0752292
0.491929
-0.508767
0.105888
0.402892
0.232022
-0.586973
0.354911
0.30882
-0.647353
0.338519
-0.21953
0.344747
-0.448523
-0.177061
0.625575
0.414411
-0.212136
0.503334
-0.53177
0.0284182
-0.105042
0.522443
-0.417385
-0.202558
0.318976
-0.116457
0.256875
-0.556107
0.299146
0.542069
-0.285312
0.218225
-0.577352
0.350408
0.174489
-0.524882
0.369303
-0.675911
0.306487
0.304574
-0.612125
0.307591
0.377563
-0.482655
0.442669
0.170154
-0.61282
0.423221
0.0800902
-0.295315
0.347168
-0.0573538
-0.289843
-0.38348
-0.036841
0.420206
-0.268679
0.566461
-0.297777
0.466631
-0.234542
0.566077
-0.639577
0.0735094
-0.318587
0.481448
0.376321
-0.157181
-0.219213
0.164764
0.177392
-0.342227
0.0102596
0.336868
0.660943
-0.418043
-0.242885
0.269348
0.392095
-0.201219
-0.0107827
-0.24263
0.253343
-0.123352
0.0462486
0.077046
0.360862
-0.212511
0.215621
-0.599147
0.383416
-0.224135
-0.194902
0.419034
-0.333728
-0.358404
0.692132
0.16596
0.210277
-0.0087154
0.281085
-0.272471
0.247466
-0.304858
-0.390147
-0.184464
0.57461
0.29599
-0.636088
0.340092
0.272182
-0.565949
0.293728
0.169897
-0.420288
0.250383
0.473313
0.0322083
-0.505543
0.611852
-0.546681
-0.065168
-0.0413088
0.514598
-0.309654
0.00154295
0.308059
-0.537296
0.326221
0.211158
0.69488
-0.408631
-0.28628
-0.441383
0.217241
-0.273403
0.5455
-0.299432
-0.590295
0.119131
0.471139
-0.0607893
0.626875
-0.49351
-0.0968102
-0.302972
-0.141574
0.00531849
-0.388862
-0.0855353
0.571662
-0.0523492
-0.519328
-0.369694
0.642365
-0.272565
-0.105115
0.338225
-0.233196
0.328813
-0.0252994
-0.303584
-0.259843
0.429711
0.27369
0.247706
-0.287762
-0.247729
0.535618
-0.614686
0.392201
0.222509
0.0943293
0.202894
-0.297283
-0.41955
-0.0107047
-0.0709551
0.318374
0.329247
-0.000509547
0.265583
-0.616932
0.351403
-0.375849
-0.117234
0.493168
0.0417264
-0.050023
-0.219703
-0.222407
-0.320885
0.543253
0.244816
-0.449515
0.204718
-0.223581
0.317838
0.243762
0.0625374
-0.3064
-0.456763
0.344117
0.112512
0.26116
0.0181545
-0.250099
0.3997
-0.149676
-0.228553
-0.240173
0.468778
0.161475
-0.0436528
-0.117879
0.318877
-0.592347
0.182673
0.244741
-0.458913
0.230341
0.311616
0.155883
-0.467446
0.40021
-0.217634
-0.132434
0.376109
0.185689
-0.575837
0.629273
-0.33326
0.665444
-0.410174
-0.255242
0.630604
-0.262902
-0.367759
-0.320988
0.650244
-0.329317
0.567326
-0.35185
-0.669087
0.323997
0.345118
0.265116
-0.598844
0.18671
-0.341158
0.154383
-0.115659
0.302318
-0.583869
0.315279
-0.470094
-0.14457
-0.370701
-0.255646
0.626401
0.0855027
-0.456301
-0.252258
0.24141
0.162198
0.0930867
-0.255309
0.230946
0.399602
-0.311919
-0.273105
0.585005
0.175104
0.302448
-0.477526
-0.664736
0.331325
0.333467
-0.439503
0.00474979
0.434794
0.20117
0.19896
0.364041
-0.151295
-0.212817
0.180267
-0.432131
0.251844
-0.114883
0.068374
0.257506
0.141134
-0.398727
0.333578
-0.556009
0.362459
-0.189191
-0.173308
-0.361712
0.658794
-0.297109
0.0312189
0.130187
-0.65358
0.20505
0.380835
-0.0779462
-0.302933
0.601457
-0.296832
-0.340619
0.235419
0.200453
0.411404
0.276015
-0.432779
0.156686
0.488244
-0.269481
-0.218794
-0.242335
0.561256
-0.311469
-0.309627
0.62112
0.0944802
0.25247
-0.346929
0.224547
0.0475862
-0.27217
0.620611
-0.354969
0.362495
0.0182954
-0.132766
0.294939
-0.0286942
-0.0947069
-0.206701
-0.45799
0.486141
-0.17733
0.0216098
-0.534188
0.512583
-0.156063
0.598742
0.11297
0.250999
-0.543424
0.448402
-0.240486
-0.208023
0.15997
0.328228
0.402687
0.292153
-0.0954123
0.356521
0.622605
-0.272207
-0.164481
0.478912
-0.314527
0.26632
-0.620656
0.354394
-0.21429
-0.31749
-0.413839
0.339108
0.0746668
0.377463
0.229411
0.162631
-0.117442
-0.296465
0.571536
-0.480171
-0.0913873
0.320449
0.28107
0.526934
-0.351845
-0.342677
-0.204009
-0.159477
0.416869
-0.100351
0.29697
-0.196682
-0.196567
0.66989
-0.326208
-0.343624
0.113047
-0.530213
0.417143
0.357261
-0.299472
-0.0578458
-0.357743
-0.179475
0.587839
-0.168274
-0.419565
-0.272853
0.34889
-0.0760891
-0.305459
-0.286949
0.592435
-0.355686
0.199597
0.161223
0.270859
-0.582848
-0.317766
0.217366
0.242641
0.00466036
-0.247366
-0.0825545
-0.336962
-0.226569
0.0579893
0.168557
0.2887
-0.610008
0.321289
-0.0378683
0.034207
0.00365006
0.138532
-0.508143
0.223194
0.0248648
-0.248094
-0.22923
-0.104024
0.333208
0.272985
-0.458659
0.185658
0.325045
0.1908
-0.515784
0.214315
-0.535244
0.58162
-0.250214
-0.500724
0.39448
0.106288
-0.115685
0.340179
-0.212185
0.523927
-0.00896753
-0.430516
-0.298017
-0.189406
0.514498
-0.152254
0.425244
0.308114
0.152547
-0.46071
-0.56892
0.0567687
0.511935
0.52241
-0.556745
0.0343123
-0.64858
0.414021
0.234581
0.554581
-0.220539
-0.334133
-0.414657
0.622932
-0.208161
0.316246
0.139903
-0.130006
-0.00991043
0.605915
-0.339573
-0.033695
0.173576
0.481091
-0.348341
0.406709
-0.300229
-0.49281
0.279258
0.213527
0.420861
-0.240651
0.41564
-0.191403
-0.2244
-0.376967
-0.0798872
0.590249
-0.269769
0.503442
-0.41798
0.0733178
0.283881
-0.483737
0.16274
0.449762
0.121728
0.419293
0.144
-0.399109
0.255022
0.0492202
-0.00750728
0.256187
-0.334165
-0.41192
0.517838
-0.564587
0.200534
0.363977
0.199733
-0.588043
0.388221
-0.348682
0.613798
0.39824
-0.554301
-0.249867
0.277963
-0.0281718
-0.47269
-0.205117
0.609901
-0.410258
-0.19665
0.452812
-0.204084
0.298591
-0.151572
0.528719
-0.38319
0.133011
-0.304868
0.575656
-0.0293813
0.329468
-0.300156
0.249802
-0.26064
0.0107519
-0.262298
0.538171
0.409307
-0.26536
-0.47874
0.173338
0.197266
0.269649
-0.467015
-0.0309395
-0.0190954
0.631667
-0.240637
-0.390899
0.64881
-0.256589
0.636112
-0.330149
-0.305987
0.278372
0.382588
-0.518456
-0.121112
-0.301505
0.231929
0.0177487
0.387446
0.261384
-0.333104
0.303676
0.741036
-0.443987
-0.29683
0.494757
0.00870156
-0.511949
0.181177
0.330934
-0.168196
0.332869
-0.309225
-0.256292
0.565462
0.303398
-0.301915
0.490519
-0.293314
0.253363
-0.585014
0.331533
0.133634
-0.397206
0.263598
0.261528
-0.553321
0.291719
0.292363
0.448881
0.267659
0.340175
-0.517271
0.647695
-0.350283
-0.297524
-0.0720626
-0.154524
0.409027
-0.275434
-0.0764144
0.565161
-0.489454
-0.00303383
0.0589235
-0.0559055
-0.541907
0.318615
0.223234
-0.367268
0.539314
-0.172055
0.634412
-0.271319
-0.363107
-0.488443
0.177012
0.14717
0.204461
-0.35168
0.567261
-0.268519
-0.298848
-0.574435
0.0415452
0.532676
-0.642047
0.120695
0.52128
-0.248645
-0.583822
0.160713
0.423142
0.115359
-0.299255
0.183773
0.14175
0.279037
-0.304529
-0.207279
-0.423746
-0.224811
0.393578
-0.15056
0.0927842
0.495056
-0.240687
-0.323971
-0.380141
-0.161811
0.202839
-0.211635
-0.231693
-0.351382
0.58302
0.599742
-0.201498
-0.178151
0.293432
-0.137322
-0.504768
-0.142296
0.511655
-0.454578
0.508778
-0.0541121
-0.566404
0.190576
-0.458935
-0.124861
0.290115
0.27704
0.315871
0.318528
-0.483582
-0.0348721
-0.342672
0.455712
-0.152658
0.519466
-0.36683
0.394355
0.271119
-0.543283
0.572704
-0.0293955
-0.0202119
0.323544
0.565869
-0.312629
0.150725
-0.490593
0.339869
0.185971
0.358735
-0.544715
-0.55563
-0.0134968
-0.254676
0.573441
-0.318841
0.234186
0.292756
-0.257441
0.34038
-0.193258
0.291427
0.29028
0.262329
0.232657
-0.494847
-0.522615
0.0381888
-0.56278
0.000349635
0.562429
-0.378153
-0.122525
-0.625593
0.354247
-0.0507563
0.182447
-0.131785
-0.335164
0.485887
0.291337
-0.596347
0.491436
-0.331535
0.135329
0.227094
-0.355526
0.147283
0.208205
0.261388
-0.610069
-0.292095
0.599815
-0.307762
-0.0121897
0.548085
-0.535785
0.293317
0.296968
-0.29487
-0.260098
0.554992
0.477595
0.0417056
-0.519284
0.53085
-0.26142
-0.269487
0.434182
-0.260551
-0.173579
-0.330416
-0.286463
0.258499
0.272291
-0.527504
-0.0281797
0.555659
0.313674
-0.0326815
-0.596629
0.341907
-0.212398
-0.280447
0.571677
-0.283095
0.202849
0.0802086
0.015077
-0.488153
0.4731
0.244869
-0.484961
-0.261243
-0.414786
0.18891
0.259394
0.177765
-0.553328
0.375513
0.212169
0.279205
-0.400045
-0.514306
-0.0171406
0.531541
-0.547741
0.272037
0.275705
-0.289241
0.0155688
0.240536
-0.256162
-0.526679
-0.543305
0.531283
-0.540975
-0.378777
-0.224766
-0.350524
0.32512
0.249484
0.267987
-0.517469
-0.242349
-0.342786
-0.51312
0.115655
0.397359
-0.264617
0.0869121
0.177575
-0.0830812
-0.267521
-0.258473
-0.251346
0.509903
-0.397102
-0.116117
0.164473
0.251003
-0.297136
0.531314
0.0346056
-0.222054
0.187411
-0.274709
0.499204
-0.314079
0.638133
0.214272
0.266981
-0.481241
0.174319
-0.541586
0.221672
0.268778
-0.0962685
0.0244695
0.0717689
0.176327
0.257908
-0.582564
0.274655
0.307852
0.460672
-0.24851
-0.133139
-0.127579
0.319879
-0.531525
0.211647
0.575534
-0.357315
-0.426117
0.349106
0.200425
0.118521
0.100914
-0.518909
-0.0513254
-0.0449413
0.0962409
-0.261952
-0.315534
0.577482
0.0709507
-0.0247046
-0.0468319
0.07151
-0.528215
0.000684017
0.336026
-0.200743
-0.424301
0.579578
-0.155246
0.582681
-0.382215
0.4964
-0.274745
0.0489322
-0.344753
0.295816
0.413675
-0.0993538
-0.31438
-0.412386
-0.175743
0.449889
-0.273467
0.140909
-0.547971
0.407057
-0.150754
0.402
-0.251287
0.462372
-0.129885
-0.332565
-0.236754
0.596964
-0.364365
-0.232598
-0.40027
0.249489
0.320963
0.275253
-0.596248
0.248106
0.212554
0.570949
-0.277655
0.346666
0.323279
-0.293246
0.480127
-0.434441
-0.0457527
-0.284668
0.445618
-0.161069
0.339302
-0.290396
0.350772
0.281008
-0.155963
0.459904
0.0201723
0.512714
-0.573506
0.280604
0.133016
0.443695
-0.269209
-0.549624
0.12534
0.436048
-0.2472
-0.26099
0.291284
-0.030329
0.324846
0.555878
-0.6115
0.0556114
0.103297
-0.0571012
0.308017
0.290681
-0.598694
0.519266
-0.229301
0.506014
-0.250436
-0.255657
-0.293124
-0.31957
-0.371334
0.557108
-0.185775
0.521864
-0.380982
0.331877
-0.218964
0.39106
-0.651533
0.311584
0.339994
0.233573
0.332185
0.381598
-0.0934491
-0.288222
0.326849
0.0546965
-0.219046
0.253602
-0.395231
0.319919
0.263782
-0.558615
0.298883
-0.0527411
-0.0435591
-0.640221
0.595349
-0.309024
-0.28634
-0.453997
0.401497
-0.0820736
0.427929
-0.345882
-0.326849
-0.256016
0.582899
-0.597942
0.271116
0.448843
-0.23457
-0.574461
-0.200797
0.244893
0.137735
0.384255
0.134895
-0.34748
-0.273115
0.108165
0.223653
0.290726
0.252516
-0.543246
0.0253681
-0.105435
0.0800458
0.0253356
-0.28637
0.308641
-0.548713
0.24002
-0.450866
-0.111907
0.138528
0.186795
-0.438772
-0.104491
-0.237591
0.104369
-0.508163
0.198821
0.309472
-0.263586
0.552231
0.211947
0.238038
-0.211564
0.545108
0.156506
-0.518227
-0.272471
-0.110791
0.307888
0.287447
0.556407
-0.322948
0.58275
-0.32507
-0.257692
0.511586
0.0442716
-0.312062
-0.238814
0.550956
-0.449781
0.469824
-0.282882
-0.186974
0.363076
0.273013
-0.325177
-0.251814
0.576952
0.235899
-0.527217
0.291235
0.211561
0.12442
-0.536631
0.508415
-0.588795
-0.374168
0.494834
-0.311959
0.338863
-0.0269716
-0.252194
-0.245917
0.498201
-0.530573
-0.00351191
0.235205
0.275218
0.19456
-0.333133
0.282738
0.0503031
-0.499913
0.287691
0.212228
0.537553
-0.58799
0.0504924
-0.33373
0.585627
-0.251902
-0.157225
0.38966
-0.232541
-0.152957
-0.239161
0.392057
-0.214256
-0.207678
0.421898
0.502187
-0.10762
0.070251
-0.606919
0.154194
0.32808
-0.482343
0.221603
-0.470317
0.248698
-0.576412
0.202228
-0.590251
0.351425
0.239035
0.185512
0.362962
-0.444805
0.261658
0.220334
-0.481914
0.306915
0.242718
-0.549631
0.293215
0.169077
-0.227953
-0.271955
-0.165744
-0.211325
0.249434
0.186554
-0.0824753
0.35585
-0.273509
-0.349794
-0.260232
-0.179361
0.429992
-0.250796
-0.45851
0.292674
-0.235359
0.528289
-0.293001
0.136532
-0.470264
-0.0667536
-0.245264
0.236598
-0.494967
0.632422
-0.440213
-0.192258
0.53125
-0.295388
-0.418078
0.300926
-0.239175
0.504656
-0.265533
-0.200007
0.36843
-0.168547
0.297827
0.0206786
-0.270626
-0.416784
-0.0974452
-0.411085
0.216526
-0.546852
0.33026
-0.0850424
-0.33575
-0.254273
0.186059
0.126833
-0.312951
0.131714
-0.546143
0.345748
0.205393
-0.551153
0.286536
-0.369087
-0.362297
0.623686
-0.457665
0.381242
0.0763288
-0.0319094
-0.301312
0.0564302
-0.460471
0.404006
-0.260182
-0.282106
0.542226
0.115847
-0.166642
-0.257736
0.561036
-0.303409
0.273192
-0.565258
0.562914
0.00230938
0.450323
0.182056
0.362223
-0.643255
0.281053
0.362233
-0.608009
0.245779
-0.235414
0.573799
-0.338514
-0.237328
-0.273177
0.418151
-0.145061
0.291937
0.218347
-0.51033
-0.00521457
0.540768
-0.535554
0.0754883
0.169392
-0.244939
0.213797
0.18583
0.320884
0.427189
-0.412103
0.295674
0.282855
-0.578579
0.270655
-0.195237
-0.343257
0.520983
0.551788
-0.335281
0.370714
0.131558
-0.107014
0.412098
-0.304952
-0.31586
0.13471
0.181101
-0.0662844
0.452477
-0.386226
0.451069
-0.394659
0.49676
-0.0619526
0.00178454
0.507064
0.241868
0.240099
-0.481868
0.553887
0.0043255
-0.558202
-0.0479953
0.265822
-0.461551
0.195856
-0.224176
-0.126133
0.350201
-0.269809
0.553315
-0.283451
0.219985
-0.53676
0.316765
-0.34299
-0.140591
0.231284
-0.410786
0.3138
-0.601491
0.141005
0.552165
-0.290677
-0.344261
0.256141
0.258914
0.338051
-0.0644864
-0.200255
0.388111
-0.346308
0.652916
-0.332959
-0.315483
-0.296601
0.0172823
-0.532294
0.514959
0.585742
-0.240049
-0.107669
-0.175458
-0.550267
0.207277
0.297926
-0.573423
0.27552
-0.239425
0.488933
0.213401
0.161225
-0.540001
0.498592
-0.553648
0.0176847
0.535998
0.350428
0.0608889
-0.411398
0.561034
-0.24117
-0.46929
0.0802359
0.38901
0.412365
0.246408
-0.0687171
-0.400597
-0.410943
-0.359051
-0.121144
0.529474
-0.309504
0.354909
-0.4212
-0.0556608
0.283819
-0.320797
0.547825
-0.261244
-0.286603
0.212331
0.284056
0.347577
0.384636
0.238396
-0.415159
0.232351
0.18268
0.171508
-0.564601
-0.426856
0.0299408
0.396883
0.341758
0.206044
0.289812
0.446246
0.163566
-0.394379
0.287519
0.496641
-0.234217
-0.52345
0.230725
0.292755
-0.178367
0.528723
0.311772
0.261592
0.322675
-0.0563629
-0.266328
0.242597
0.214038
-0.456546
-0.200322
-0.328714
0.529008
0.569495
-0.284573
-0.284848
-0.220866
-0.266773
0.487757
0.532751
-0.242032
0.629702
-0.26662
0.017614
-0.185452
-0.337978
0.171057
0.237941
-0.212432
-0.434935
0.0940598
-0.0696047
-0.338779
-0.177924
0.516548
-0.185297
-0.229991
0.500791
-0.330642
0.45744
-0.212622
-0.543935
0.0897754
0.447837
0.141295
-0.248638
0.506557
-0.257885
-0.354392
0.300258
-0.342779
0.118504
0.48652
-0.224771
-0.52417
0.518957
0.558498
-0.0360405
-0.545569
0.257716
0.287925
-0.274591
0.578379
-0.303695
0.208661
0.261861
-0.470577
-0.349727
0.149587
-0.09258
0.376257
0.204356
-0.522855
-0.51777
0.270061
0.274334
0.274269
-0.54851
-0.543627
-0.119354
0.445641
0.310063
-0.115838
0.529878
0.322533
0.250206
-0.57262
0.590999
-0.144817
0.31166
-0.13432
-0.289172
0.592027
-0.302854
0.489438
-0.210254
0.69992
-0.437299
-0.262415
0.064463
-0.00422126
-0.0602671
-0.129846
0.301648
-0.563221
0.392375
-0.0542311
-0.524009
0.354902
0.169108
0.300517
-0.0977523
0.424774
0.16616
0.300235
0.269338
0.558174
-0.000306801
-0.557882
-0.496783
0.248183
0.164204
-0.551767
0.387565
0.581796
-0.281616
-0.155899
0.341669
-0.543522
0.404353
0.139209
0.239552
-0.601843
0.342547
0.257234
0.549781
-0.26083
-0.28893
0.2918
-0.0889955
-0.0797631
0.137739
-0.392867
-0.174895
0.56775
0.305417
0.261035
0.283817
0.318139
-0.601922
-0.535471
0.164126
0.314223
-0.431131
0.0863755
-0.249921
0.52196
0.13242
0.216419
0.242237
-0.511469
0.269208
0.0399792
-0.435037
0.395097
-0.471472
-0.130029
0.390176
-0.236013
0.50071
-0.267998
-0.322715
0.608079
-0.285366
-0.205628
-0.302408
0.179993
0.24834
-0.428272
-0.270846
0.13979
-0.412347
0.29705
-0.52269
0.225591
0.216993
0.291865
-0.508677
-0.514642
-0.191678
-0.265752
0.457434
-0.489114
0.552366
-0.0637085
0.0806484
-0.257365
-0.304359
0.561746
0.273253
-0.532924
0.259651
0.329021
-0.590978
-0.170435
0.491397
0.501184
-0.13039
-0.132655
-0.410847
0.488614
-0.276274
0.532222
-0.225303
0.059512
-0.368066
0.408045
-0.38377
0.19373
-0.336648
0.142819
-0.275509
0.267592
-0.205159
-0.366074
0.140774
0.360005
0.00528942
-0.413905
0.122964
0.199692
-0.543134
-0.398543
0.488079
-0.0897023
-0.281963
0.556552
-0.294791
-0.198765
-0.254132
-0.266561
0.471007
-0.464284
-0.551537
0.170586
0.380921
-0.382369
0.0491717
0.333132
0.328076
0.245764
-0.573857
0.142261
0.329726
-0.472002
-0.12691
0.346487
-0.219638
-0.343699
0.583255
0.332646
-0.592722
0.260083
-0.447553
-0.042109
0.246818
0.259118
0.545485
-0.545296
-0.146682
-0.284455
-0.0522244
-0.379844
0.432111
0.481595
-0.414406
-0.0124849
0.241495
-0.533428
0.291951
0.307488
-0.184536
-0.394414
0.241372
0.438727
0.261392
0.114852
0.406988
0.65553
-0.330519
-0.325032
0.568335
-0.292107
-0.27614
0.253565
-0.55265
0.299077
0.413396
-0.24907
-0.507564
0.156174
0.172856
0.445885
0.128557
0.175954
0.276426
-0.442966
0.166425
0.567497
-0.313943
0.159449
-0.398652
0.326702
0.19912
-0.525854
0.435114
-0.186763
0.379485
-0.185859
-0.345568
-0.406427
0.28831
-0.55445
0.266133
-0.320077
0.476921
-0.156759
-0.596967
0.161952
0.482655
0.102718
-0.585234
0.184011
-0.37105
0.187034
0.0731325
0.209504
0.215865
0.434337
0.219548
-0.479042
0.259551
0.317963
0.239146
-0.30083
0.591548
-0.269983
-0.283296
-0.275118
0.558518
-0.304821
0.261086
-0.550257
0.203638
0.307347
-0.510971
0.211899
-0.480342
0.268392
0.306949
0.297069
-0.604002
-0.218442
0.261592
-0.317684
0.616799
-0.299198
0.0961257
-0.494823
0.590328
-0.267709
0.306596
-0.570164
0.263651
0.595431
-0.488169
0.260161
-0.353642
-0.170366
-0.104019
-0.540798
0.228785
0.357231
-0.212048
-0.145298
-0.288033
0.101817
-0.00777578
-0.270521
-0.272739
0.543264
-0.201683
-0.216051
0.324174
0.321493
0.330381
0.325128
0.271085
-0.593815
0.586042
-0.253388
-0.347159
-0.175521
0.5226
0.412784
-0.214827
-0.198092
-0.249481
-0.0742741
0.0996283
0.526414
-0.209481
-0.316985
0.525184
-0.410361
0.358894
0.14237
-0.249946
0.52319
-0.134576
-0.335503
-0.398192
-0.0595665
0.22297
-0.527661
0.304664
0.252485
-0.339926
-0.0424979
0.0649391
-0.00603097
0.481489
-0.128603
0.240694
-0.277932
0.584899
0.635835
-0.269093
-0.366764
0.0172216
-0.357219
0.339917
-0.57942
0.168949
0.410471
0.303193
0.30237
-0.563388
0.260981
-0.263284
0.128532
0.134634
-0.0925523
-0.325479
0.279412
-0.623094
-0.115818
0.285164
-0.226848
-0.262547
0.489452
-0.118945
-0.216942
0.335813
-0.520432
0.47857
-0.336322
0.565801
-0.519593
-0.0461968
0.428753
-0.17936
0.29199
-0.5015
0.209559
0.587494
-0.296003
-0.526229
0.187308
0.314442
-0.571234
0.29665
-0.275826
0.0297695
0.246005
0.231576
-0.271231
-0.256059
0.311796
-0.36587
-0.276266
-0.298522
0.574842
0.182869
0.124608
-0.176749
0.566936
-0.238876
-0.503943
0.325952
-0.613683
0.203525
0.285901
0.301659
-0.439676
-0.116047
-0.478402
0.19854
-0.422423
0.223686
-0.271164
0.457921
-0.181608
-0.618555
0.276421
0.342133
0.499966
0.395345
0.304673
-0.577546
0.272879
0.400075
-0.343275
0.268228
0.189579
0.273301
0.369149
-0.402342
0.100199
0.302076
-0.214789
-0.266425
0.382612
-0.116293
-0.372567
0.148934
-0.233623
0.431973
-0.542244
-0.274451
-0.00372011
0.0876055
0.067365
-0.0711016
0.282313
0.128516
0.261044
0.107664
0.184089
-0.265313
-0.0105649
-0.0204682
0.221567
0.371007
-0.424216
0.0531923
0.148666
0.272457
-0.421262
0.533619
-0.20694
-0.243011
0.652239
-0.321869
-0.209971
-0.327903
0.537849
0.208964
0.138566
0.608226
-0.24596
-0.128426
0.317931
-0.189559
0.558531
-0.249982
-0.438451
0.246764
-0.442779
-0.298095
0.616257
0.566875
-0.195886
0.447415
-0.204768
0.133468
-0.418229
-0.190945
0.476623
-0.285748
-0.32466
0.549734
-0.225083
0.137523
0.199021
-0.336599
-0.551668
0.312345
0.239263
-0.342845
-0.208732
0.533503
-0.0080185
-0.525342
-0.160148
0.0693518
0.0907693
-0.260318
0.396456
-0.136095
-0.226161
0.557093
-0.330953
-0.634717
0.287876
0.346838
0.442197
0.111683
0.278191
0.203341
0.514847
-0.311172
0.227352
-0.284676
0.507641
-0.4218
-0.238675
0.512505
-0.27383
6.51879e-05
-0.334274
0.162878
0.255184
-0.252061
0.148021
-0.379599
-0.0683351
-0.0918385
-0.163665
0.316894
-0.153272
-0.484833
0.171478
0.313423
0.310557
-0.162531
-0.148073
0.24539
0.511584
-0.264674
-0.246911
-0.44178
0.171774
0.26989
0.236964
-0.464354
0.0640379
0.347635
-0.210177
0.31627
-0.0845183
-0.231777
0.54414
-0.255843
0.52585
-0.252244
-0.0795751
-0.384818
-0.270079
0.576723
-0.184315
-0.292136
0.283446
0.284977
-0.251009
-0.0149674
0.0362961
-0.55811
0.3018
0.447159
-0.298624
0.212325
-0.140798
0.350821
-0.21008
-0.320783
0.576109
-0.255295
0.28494
0.350872
0.203127
0.285491
-0.279016
0.142685
0.214441
-0.530287
-0.00195543
0.347884
-0.133928
-0.214033
-0.194266
-0.332369
0.526611
-0.264002
0.557486
-0.293523
-0.603751
0.283379
0.320349
0.345927
-0.146969
-0.208882
0.441105
-0.551692
0.267327
0.296963
0.252837
0.249776
0.261806
0.469903
-0.32913
-0.161118
-0.435822
0.24601
-0.18505
0.461953
-0.287997
-0.173969
0.231519
0.199407
-0.433167
-0.26764
0.595712
-0.328073
-0.372257
0.316175
-0.29903
-0.509543
0.295261
-0.333371
-0.285665
0.206414
0.25225
-0.458727
-0.283023
0.521035
-0.238061
-0.265078
0.580953
0.326634
0.216329
-0.542991
0.181931
-0.523029
0.292654
-0.556736
0.221827
-0.55728
0.335334
0.308936
0.222277
-0.230482
0.373787
-0.157352
-0.216392
0.277322
-0.5606
0.218244
-0.502933
0.213584
0.128819
-0.610334
0.280298
0.330045
-0.349402
0.40326
-0.0538254
0.196863
-0.337709
0.316213
-0.581281
-0.541214
0.281213
-0.290997
-0.27874
0.569791
0.276465
-0.22892
-0.0679931
-0.511428
-0.298702
0.581282
-0.282536
0.223683
-0.549522
0.32582
0.314647
0.252845
-0.176488
-0.312343
0.55789
-0.245568
-0.576116
0.285122
-0.256589
-0.226333
0.482913
0.437503
-0.238193
-0.255698
-0.307394
-0.327325
-0.27447
0.299777
0.291704
-0.209084
0.501031
0.271692
-0.143236
-0.279798
-0.285461
0.503713
0.508504
0.0124104
-0.520972
-0.315777
-0.0866303
-0.337117
-0.18035
0.517518
-0.228089
-0.319198
-0.203233
0.522406
-0.179238
-0.267494
-0.254769
0.156953
-0.264647
-0.226746
0.408591
-0.562071
0.170032
-0.554627
0.297209
0.00252907
-0.271302
0.135272
0.257007
0.292584
-0.52059
0.228009
-0.125875
-0.574399
0.275499
0.298841
-0.227728
0.442809
-0.215241
-0.551867
0.214812
0.369156
0.542403
-0.318735
-0.247192
0.582474
-0.335389
-0.164818
-0.251312
0.470914
0.594007
-0.308933
-0.285173
-0.109198
-0.357556
0.466711
-0.0997451
0.100027
0.543535
-0.250963
0.516504
0.202975
-0.550235
-0.149596
0.437516
-0.287995
-0.255253
0.23473
-0.113956
-0.439661
0.194937
-0.40265
0.291975
0.255889
-0.547851
0.613297
0.499954
0.453653
0.227393
-0.573658
0.346277
0.322053
-0.246261
-0.0758634
-0.131514
0.288191
-0.156706
0.233225
0.340454
-0.325092
0.470771
-0.262153
-0.554771
0.311263
0.243504
-0.22113
0.529875
-0.185609
0.574248
-0.278625
-0.294023
0.58801
-0.29394
-0.275693
0.184408
0.268376
0.129583
0.436228
0.176534
0.252174
0.00332457
0.245934
-0.584393
0.338469
-0.240131
-0.290383
0.493505
0.598868
-0.352941
0.2296
0.312786
0.538921
-0.431426
-0.107461
0.31717
-0.603112
0.285929
0.340138
-0.11095
-0.229286
0.15025
0.22358
0.258427
0.0578213
0.290144
-0.344453
0.239475
-0.461628
0.221995
-0.571249
0.295044
0.280899
-0.123963
-0.0868198
0.376852
0.0671509
0.37757
-0.444698
-0.192937
0.265962
0.279783
-0.39053
0.287302
0.515542
0.0137618
-0.529312
0.114079
0.424877
0.467999
-0.296455
-0.551947
0.227287
-0.263361
0.573276
-0.310026
0.324814
0.38247
-0.226551
0.0827356
0.239249
0.277815
-0.589809
0.311949
-0.253865
0.595342
-0.341482
0.297436
0.344997
0.344834
0.581253
-0.530439
0.522491
0.315138
0.257148
-0.572274
0.297712
0.250852
-0.548652
0.288576
-0.561059
0.272521
-0.23233
-0.192301
-0.328288
0.146435
-0.203808
0.447868
-0.244124
-0.0700423
-0.167626
-0.224246
0.486095
-0.590876
0.281549
0.309142
-0.232443
-0.277085
-0.385023
0.452197
0.131719
0.208321
0.0896735
0.312289
0.528391
-0.219501
0.237714
0.292991
-0.530685
-0.329851
-0.192882
0.0648611
0.251164
-0.316082
0.0144218
0.199083
-0.480121
0.253357
-0.669674
-0.61594
0.332605
0.283322
-0.510885
0.169976
0.340869
-0.533554
-0.608933
0.317592
0.291314
-0.256533
-0.140315
0.472455
-0.332191
0.55441
-0.440316
-0.106287
0.407818
0.331358
-0.251197
-0.535082
0.119348
0.415736
-0.294401
-0.289465
0.583784
-0.0405158
-0.108579
0.319672
-0.211125
0.108389
0.446038
-0.592568
0.306175
0.286507
0.287235
-0.474032
0.186801
-0.319666
-0.289296
-0.338633
0.214402
0.124178
-0.541733
0.28603
0.255617
0.534675
-0.320408
-0.233159
0.404117
0.308191
0.273557
-0.325039
0.550904
-0.225871
0.273932
-0.127122
0.233596
-0.396467
0.457307
0.41671
-0.123568
0.514163
-0.191912
-0.32228
-0.30938
-0.0878126
-0.2028
-0.384188
0.54498
-0.256348
-0.557858
0.127902
0.370826
-0.498745
0.169947
0.246682
-0.515413
0.217435
0.297998
-0.119136
0.463137
-0.327782
-0.13935
0.354062
-0.151244
-0.202901
-0.542377
-0.228123
0.370678
0.279513
-0.571369
0.291778
0.138307
-0.215027
0.483156
0.269575
0.187556
-0.457215
0.314356
0.213992
0.311618
0.261501
-0.573144
0.194077
0.123798
-0.369458
0.592026
0.558797
-0.280927
0.216415
-0.499465
0.566751
-0.241184
-0.325642
-0.246533
0.532125
-0.285566
-0.401465
0.172429
0.229024
-0.263185
0.560007
-0.296851
0.153819
-0.45433
0.300518
1.74068e-05
0.605703
-0.605892
0.206023
0.101987
-0.239571
0.553397
-0.31381
0.267327
0.290119
0.301911
0.262888
-0.564789
0.237995
0.30049
-0.538478
0.209141
0.138669
0.139173
-0.562886
-0.324172
0.549026
-0.257055
-0.216949
0.543553
-0.564353
0.338165
-0.458594
0.19883
-0.426694
0.271972
0.18444
-0.456452
0.215097
-0.500573
-0.0150158
0.523516
-0.259702
-0.0872637
0.156582
0.296011
-0.529345
0.233326
-0.474791
0.198854
0.132451
-0.596551
0.36448
0.232058
-0.362688
-0.294345
-0.294603
-0.308346
0.602936
0.277849
-0.398281
0.228426
0.201394
0.328075
0.228997
-0.559816
0.306419
0.253419
-0.00279154
0.548263
-0.545441
-0.420579
0.575603
-0.155008
-0.283597
0.498641
-0.190478
0.413972
-0.223533
0.276888
0.266636
-0.324665
-0.298361
0.294351
-0.557578
-0.44227
-0.131241
0.583487
-0.268886
-0.314686
0.541455
-0.229858
0.165153
0.106462
-0.308069
-0.266387
0.164226
-0.29672
-0.51766
0.123112
0.394546
-0.476751
-0.352528
-0.257798
0.337447
-0.0865228
-0.300587
0.556651
-0.25612
-0.289955
-0.113618
-0.519386
0.519363
0.296718
-0.563931
0.26721
-0.123813
0.306667
-0.163539
-0.207904
-0.293536
-0.336175
0.128861
0.207256
0.231386
0.261037
-0.221973
0.384621
-0.28734
0.564933
-0.0512899
0.563003
0.343187
0.185794
0.183883
0.126626
-0.359352
0.465663
0.23793
0.266683
-0.175758
0.268826
0.282566
-0.551359
-0.522398
0.275971
0.54019
-0.215096
-0.325114
0.469614
-0.210684
-0.258897
0.283517
0.292794
-0.576289
0.57924
-0.201767
0.188902
-0.429103
0.240181
0.185772
-0.504982
0.223904
0.240855
-0.544027
0.303183
-0.278611
0.584393
-0.300885
-0.264303
-0.436753
0.412266
-0.217373
0.536629
-0.249387
-0.290917
0.065465
0.207821
-0.273361
0.228558
0.185375
-0.221465
-0.128413
-0.163777
-0.278627
0.569831
-0.281493
-0.307118
0.588516
-0.607156
0.274429
0.332742
0.0343831
0.575801
-0.270036
-0.30556
-0.385111
0.271605
0.549574
-0.294666
0.57911
-0.284406
-0.258428
-0.600264
0.285974
0.314292
-0.570768
0.270789
0.300064
0.400103
-0.578283
0.178173
-0.285173
-0.260768
0.545967
-0.277219
0.406572
-0.189397
0.254532
-0.571039
0.259486
-0.594848
0.335374
0.208235
0.142528
0.319116
0.119315
0.304511
0.271491
-0.27881
0.573696
-0.294971
-0.273048
0.594713
-0.321676
-0.0130386
-0.0612466
-0.136083
-0.200567
-0.509212
0.0912079
0.29279
-0.571633
0.276155
0.415777
0.203503
0.144066
0.582458
-0.169618
0.457619
-0.288028
-0.311968
0.541564
0.596808
-0.337334
0.55545
-0.244105
-0.379312
-0.303285
-0.289171
0.431832
-0.242935
0.522281
-0.28561
-0.236485
0.572327
-0.292952
-0.268345
-0.316141
0.584519
0.238686
-0.461167
0.222419
0.305948
-0.58389
0.307662
-0.192401
-0.115324
0.00878685
-0.59142
0.275897
0.2667
0.304404
-0.570879
0.279581
0.264547
0.15505
-0.0750294
0.303008
0.260785
-0.563815
0.140665
0.202558
-0.343287
-0.531417
0.530329
0.00126481
0.300067
-0.578772
-0.207568
0.508188
-0.300509
-0.258002
0.0500169
0.327419
0.139024
-0.481914
0.331389
-0.415105
0.592813
-0.177712
-0.159534
0.286176
-0.126666
-0.279948
0.517837
-0.346929
0.136779
0.335901
0.204267
0.376235
-0.211509
-0.164722
0.24546
-0.00445509
0.519265
0.228057
0.607979
0.143495
0.202367
0.0703714
0.23315
-0.303585
-0.398316
0.277238
0.293186
-0.570377
0.257569
0.212078
0.31261
-0.208338
-0.349976
0.139751
0.121341
0.516205
-0.520626
0.59384
-0.318393
-0.236427
0.517138
-0.280705
0.543766
-0.302908
0.129107
-0.199209
0.329637
-0.205267
0.311083
-0.578717
-0.239584
0.603539
-0.356246
-0.247285
-0.20078
-0.221391
0.460723
0.362916
-0.513274
0.150334
-0.261946
-0.289782
0.284774
-0.0866875
0.214263
-0.127611
0.464522
0.0150907
-0.479568
-0.111585
-0.499705
0.106011
0.343707
0.148033
0.159563
-0.221434
-0.24035
0.285035
0.283218
-0.568179
-0.353364
0.139945
-0.281036
0.498236
-0.217142
-0.493507
0.187623
0.305844
-0.29816
-0.272527
-0.0826572
-0.232283
-0.364281
0.0254018
0.0778535
-0.236329
0.318997
-0.0597647
0.298454
-0.505903
0.178318
0.195037
0.23679
-0.283064
0.552026
-0.542595
0.230242
-0.471231
0.532931
-0.0617052
0.260946
0.0778457
-0.400506
0.1737
0.357307
-0.14824
-0.167739