/*--------------------------------*- C++ -*----------------------------------*\
| =========                 |                                                 |
| \\      /  F ield         | OpenFOAM: The Open Source CFD Toolbox           |
|  \\    /   O peration     | Version:  v2012                                 |
|   \\  /    A nd           | Website:  www.openfoam.com                      |
|    \\/     M anipulation  |                                                 |
\*---------------------------------------------------------------------------*/
FoamFile
{
    version     2.0;
    format      ascii;
    class       surfaceScalarField;
    location    "950";
    object      phi;
}
// * * * * * * * * * * * * * * * * * * * * * * * * * * * * * * * * * * * * * //

dimensions      [0 3 -1 0 0 0 0];
oriented        oriented;


internalField   nonuniform List<scalar> 
14516
(
0.395837
-0.290204
-0.105437
-0.705956
0.352572
0.353403
0.251386
0.144671
0.434937
0.00763715
-0.442593
0.261723
0.0494719
-0.311179
0.246163
-0.515081
0.268903
0.389651
-0.64588
0.256481
0.147391
0.41374
-0.561469
0.389951
-0.375381
-0.0149797
0.354117
-0.0923496
0.254225
-0.0186544
-0.235549
0.236224
-0.388435
0.152191
-0.162389
0.59674
0.614594
-0.381682
-0.233028
0.615414
-0.61407
-0.411801
0.657258
-0.245526
0.135725
-0.5313
0.395179
0.559675
-0.423936
0.108845
-0.333584
0.224769
0.202675
0.376238
-0.242854
-0.133442
0.403745
-0.208089
-0.196116
0.271014
-0.572282
0.301262
-0.305834
-0.30456
0.345039
-0.561601
0.216452
0.459708
-0.622776
0.417639
-0.663723
0.246039
0.678466
-0.450194
-0.228614
0.0470334
-0.221568
0.174636
-0.0274864
0.416825
0.38038
-0.0406444
-0.33962
0.63066
-0.35962
-0.239062
0.607827
-0.368545
-0.59419
0.601311
-0.00720976
-0.254532
0.0455063
0.20904
0.213748
-0.344195
0.130444
0.568985
-0.179442
0.22807
0.175203
0.218553
0.330836
-0.549131
0.6867
-0.358785
-0.32835
-0.0183435
0.398817
0.0838261
0.532912
-0.560198
0.0356597
0.524031
0.676058
-0.367218
-0.308852
0.0338371
-0.594845
0.49473
-0.207517
-0.659448
0.33041
0.329012
0.435793
-0.374478
-0.0615753
-0.406099
0.413935
0.254907
-0.209359
0.272903
-0.174207
-0.0987386
-0.184702
0.445922
-0.261423
-0.216331
-0.174095
0.390222
0.383044
-0.224382
-0.158689
-0.0775333
-0.299144
0.376763
0.304783
0.199985
0.0909504
-0.212413
0.121476
0.339031
-0.296532
-0.0422378
-0.277091
0.495395
-0.669579
0.444213
0.2252
-0.23661
0.454161
-0.217782
0.488696
-0.175061
-0.313674
-0.572613
0.0959701
0.47684
0.00132644
0.301882
-0.606315
0.25288
0.353369
0.0968846
0.391877
-0.430135
0.0309501
0.399077
0.379972
-0.143753
0.286581
-0.0324171
0.140635
0.242368
-0.497267
0.607213
-0.109957
0.2991
-0.535242
0.235035
0.219009
0.367066
-0.586101
0.401416
-0.146423
0.322284
0.0170142
-0.579121
0.290199
0.288505
-0.51378
0.611148
-0.0973459
0.227769
-0.591713
0.363613
0.216048
-0.573289
0.356925
-0.338878
-0.267463
0.246714
-0.600841
0.354015
-0.350632
0.468353
-0.117713
-0.741755
0.366939
0.374792
0.399474
-0.417877
-0.674372
0.352753
0.321647
-0.368961
0.584603
-0.528827
0.285013
0.243374
-0.185958
-0.308437
0.494349
-0.279497
0.612981
-0.333458
-0.33313
-0.37281
-0.277256
-0.0154409
0.292663
-0.189702
-0.347767
0.537411
0.344558
0.286115
-0.422796
-0.338583
-0.403195
0.267581
-0.345192
0.173969
-0.524578
-0.532614
0.34291
0.72466
-0.290184
-0.434515
0.401378
0.323248
-0.283208
0.61035
-0.327202
-0.194249
0.536299
-0.342029
0.344963
-0.539233
0.140697
-0.654435
-0.036621
0.435904
0.0446755
-0.353408
0.435567
-0.643007
0.207455
0.281268
-0.465962
-0.652054
0.45731
0.194649
-0.54155
0.044268
-0.398688
0.28075
0.117736
0.247325
0.210935
-0.317511
0.253273
0.0643562
0.157009
0.115853
-0.274683
-0.585803
0.232592
0.3534
0.218823
0.182686
0.576074
-0.329436
-0.269734
0.614445
-0.494561
-0.15758
0.0426474
0.441509
-0.484177
0.296394
0.21452
-0.510744
0.42932
-0.183215
-0.449844
0.223219
0.226487
0.127233
0.248945
0.0761747
-0.226786
0.150664
-0.337148
-0.337193
0.574658
-0.34715
0.0832956
-0.422535
0.338509
-0.705082
0.486054
0.219014
-0.239044
0.381482
-0.298818
0.595848
-0.424706
-0.171448
0.35481
-0.382645
-0.519798
0.230473
0.288989
-0.00246087
-0.570296
0.442041
0.233983
0.520489
-0.272402
0.393178
0.228179
-0.621424
0.48191
-0.185567
0.311257
-0.518714
0.207227
0.682132
-0.301418
-0.38076
-0.700128
0.291901
0.408079
0.268532
-0.650351
-0.603471
0.367604
0.235795
-0.662483
0.356695
0.305814
-0.38418
-0.316112
-0.169248
0.518616
-0.349364
-0.049047
-0.228244
-0.395817
0.250122
0.145745
-0.354532
-0.350565
-0.165976
-0.229758
0.411671
-0.0574983
-0.506264
0.337015
-0.375601
0.418233
0.682659
-0.323608
-0.359079
0.512179
-0.201175
-0.753681
0.369416
0.289005
0.393072
-0.35461
0.501606
0.31796
0.360201
-0.615765
0.413709
0.20196
-0.298746
0.0765005
0.222136
0.17202
-0.585775
0.413796
0.170275
-0.412994
-0.306718
-0.193695
-0.133161
0.326759
-0.216975
0.634549
-0.605109
0.2832
0.321656
0.0803269
-0.465489
0.385522
-0.426729
0.111662
0.315126
-0.426023
0.59811
-0.377883
-0.0486764
-0.484028
0.24423
0.239548
-0.189991
-0.235111
0.215935
0.364369
-0.580293
0.582535
-0.267933
-0.314968
-0.039668
0.229134
-0.189556
-0.00514872
0.199214
-0.194075
-0.175786
-0.134073
0.309685
-0.352385
-0.173909
0.320335
-0.307494
-0.0125793
-0.238105
0.536291
0.222737
-0.131737
0.338174
0.243994
-0.497687
0.292086
0.20581
-0.396934
-0.218925
-0.230728
-0.253546
-0.411606
0.48043
-0.0693117
0.3979
0.0376144
-0.268503
-0.130374
-0.333424
-0.248717
0.208871
0.142383
-0.358942
0.216576
0.554673
-0.330385
-0.224434
0.145982
0.26576
0.540155
-0.14701
0.0051626
0.349347
-0.278056
0.374546
-0.0964947
-0.318232
0.019261
0.192422
0.275364
-0.468334
0.461622
-0.231314
-0.476818
0.617526
0.383916
-0.640483
0.336075
0.304256
0.387239
-0.42421
-0.258284
0.361851
-0.104071
0.336449
-0.121907
-0.214531
0.529548
-0.132007
-0.418912
0.0442748
0.190592
-0.407286
0.357308
-0.214918
0.438583
0.244045
0.579427
-0.356488
-0.223319
0.293626
0.0269156
0.0718535
-0.548668
0.237735
0.110566
-0.348231
-0.366751
0.227155
0.139891
0.504607
-0.332013
-0.17303
-0.205732
-0.584875
0.172623
0.664964
-0.298039
-0.201603
-0.323842
-0.191249
0.216939
0.325373
-0.542384
-0.173769
-0.192721
-0.250254
0.0926446
0.157552
-0.680853
0.375003
-0.623191
0.318645
-0.314483
0.13843
0.612955
-0.162171
-0.450797
0.088478
-0.227628
0.139132
-0.0918293
0.329571
-0.289493
-0.216105
0.505762
-0.194696
-0.342705
0.53764
0.381194
-0.113664
-0.6436
0.409261
0.234371
-0.0471183
0.433904
-0.620506
0.305133
0.315261
-0.554628
0.335377
0.219421
0.298698
-0.537812
-0.323331
0.542405
-0.219224
0.187683
0.330954
0.642885
-0.229542
0.298149
0.213816
-0.344943
-0.148676
-0.445609
0.414753
-0.218716
-0.196187
0.096757
-0.283097
0.18622
0.28841
-0.131451
-0.237406
0.0991887
0.138198
-0.313077
-0.199261
0.512682
-0.425215
0.236113
0.18873
0.199543
0.294975
-0.494445
0.274904
-0.178263
0.519904
-0.349167
-0.170695
-0.667085
0.32091
0.345975
-0.524529
0.491444
0.0330491
-0.518235
0.108366
0.179992
0.427923
0.177095
-0.605128
-0.342995
0.149228
-0.482657
-0.036601
0.51925
-0.701644
0.21896
0.143433
0.193025
0.244421
0.130113
-0.393812
0.476474
-0.0824525
-0.256847
-0.410394
0.6012
-0.387032
-0.21415
0.111532
-0.32112
0.209598
0.502499
-0.302366
-0.200614
0.621727
-0.50403
-0.117719
0.525273
0.0964381
-0.230904
-0.401264
0.132565
0.619383
-0.347774
-0.272533
-0.161248
0.503184
-0.205167
-0.598357
0.195622
0.402716
0.55676
0.0102932
-0.566798
0.244931
0.441366
0.349148
0.155104
0.205664
0.208939
-0.0320665
-0.228077
0.260052
-0.675346
0.434817
0.240634
0.258221
0.203225
0.231579
-0.403621
-0.182018
-0.458045
0.186821
0.271599
0.201654
0.275827
0.345169
-0.620999
0.36898
0.226588
-0.38358
0.172964
0.210353
0.213019
-0.245242
0.33857
0.23566
-0.575328
0.387389
-0.213158
-0.173989
-0.289336
0.388006
-0.247457
-0.140795
0.315935
-0.468056
0.151876
-0.103557
0.53912
0.381727
-0.628272
0.246677
0.609992
-0.487333
-0.122819
0.299754
-0.188232
0.351192
-0.313493
-0.0378231
-0.289813
-0.21225
0.501993
0.32567
0.0621667
0.635024
-0.355772
-0.280433
0.479834
0.129998
0.350693
0.000373799
0.246615
-0.404047
0.15715
0.145861
0.2234
-0.36949
0.265768
-0.54522
0.327803
-0.269061
-0.257659
0.526486
0.133289
0.195128
-0.328494
0.0386632
-0.297341
-0.271857
-0.265552
0.537117
-0.366729
0.103999
-0.327488
0.223458
0.625205
-0.258154
0.651417
-0.579579
0.139091
-0.14423
-0.380801
0.167916
0.212563
-0.310679
0.0144007
0.38805
-0.16906
-0.39089
-0.186162
0.57702
0.181091
0.161134
0.21449
0.277908
-0.56138
0.385213
-0.432794
0.28161
-0.158001
-0.123577
-0.315472
-0.26802
0.58306
0.272161
0.251293
-0.376874
0.382126
0.597799
-0.572204
-0.0256498
0.0893694
-0.539868
0.127041
0.225175
-0.352113
0.5346
-0.197103
0.251078
-0.523082
0.169879
-0.384354
-0.259215
0.282611
0.374582
0.614806
0.29
0.0715906
-0.362053
0.326992
-0.231892
0.197458
-0.415365
0.217759
-0.379556
0.0325784
0.346863
-0.1562
-0.256523
0.412464
0.22597
-0.100702
0.363947
-0.263522
-0.403812
0.229376
-0.26453
-0.131309
0.395726
-0.407244
-0.0223478
-0.186687
0.209174
0.370429
-0.229805
0.104977
0.117791
0.178671
-0.200863
-0.14763
0.437196
-0.47317
-0.0858497
0.559001
0.426617
-0.0693092
-0.371128
-0.298592
-0.485627
-0.0389192
-0.275455
0.541164
0.0759203
0.537025
0.516897
-0.201244
-0.065572
0.450375
0.311711
-0.207741
-0.00288682
-0.37684
0.216321
-0.127827
-0.242639
-0.101537
-0.513413
0.246246
0.266933
-0.312241
0.530632
-0.219226
0.204413
0.0974876
-0.266643
0.169116
-0.248661
-0.225465
-0.200091
0.144835
-0.391516
0.246124
-0.303534
0.234752
0.525028
-0.188031
-0.371839
0.161199
0.210212
0.57437
-0.599175
0.0247566
0.163906
-0.52315
-0.381155
-0.259384
-0.444866
0.218944
-0.337763
0.237123
0.40447
-0.074745
-0.330109
-0.151032
0.0589625
0.608527
-0.250828
-0.357683
0.0991378
-0.0861569
-0.164161
0.236436
0.354555
-0.591029
-0.687874
0.456519
0.231272
-0.0324518
-0.344371
-0.256262
-0.138463
0.394703
0.276485
0.332057
-0.277188
-0.343427
0.349179
-0.133276
-0.216073
0.271078
-0.148501
-0.122599
0.38958
0.211637
-0.167889
-0.149526
0.141627
-0.483936
-0.217279
0.617654
-0.228047
0.195869
-0.335669
0.139901
0.382436
0.151507
0.254002
-0.156618
-0.274221
-0.319715
0.00311757
-0.575392
-0.540278
0.258389
0.281834
-0.186371
-0.276617
-0.263713
-0.602377
0.326927
-0.349203
-0.357786
-0.245758
-0.163483
-0.154769
0.318274
0.378183
0.240336
0.330404
-0.184823
0.107431
0.162961
0.235526
-0.399135
0.211344
0.308591
-0.208161
-0.192569
0.606227
0.35395
-0.124861
0.548398
-0.0359245
-0.512452
0.0351155
0.294945
-0.40117
0.637307
-0.236196
-0.666166
0.207486
0.458727
0.636038
-0.457245
-0.208946
-0.366472
-0.238884
-0.579951
0.173386
0.406389
0.472553
-0.200628
0.560952
0.555186
0.0201798
-0.575192
0.342779
0.0612774
-0.0285045
0.351054
0.330047
0.224485
0.272867
0.097557
-0.613982
-0.286323
0.366462
-0.204351
0.148169
0.122841
0.23646
-0.277113
-0.0817248
0.258334
-0.176623
0.14375
0.385446
0.121813
0.0409152
-0.375914
0.335231
0.41797
-0.113172
-0.304871
0.164815
0.189079
0.32866
-0.132635
0.526549
-0.320101
-0.177938
0.498087
0.401537
0.232432
-0.250476
-0.273911
0.524607
0.0704667
0.145862
-0.294865
0.509502
0.39031
0.222651
-0.198676
-0.29879
0.167071
0.36925
-0.110058
0.554169
-0.347348
0.318567
0.0290726
0.0787231
0.175138
0.0291347
0.264694
-0.349917
0.51707
0.038805
0.260967
0.626579
-0.262206
0.0869899
0.514224
0.644365
-0.317337
-0.327091
-0.210643
0.126787
0.291019
0.212569
-0.508113
0.257865
-0.62978
0.39561
0.234189
-0.405951
0.501775
-0.482836
0.197932
0.284848
-0.117709
-0.376925
-0.316627
-0.358612
-0.329654
0.371121
-0.329269
-0.139026
0.373475
-0.439135
-0.192283
0.114141
-0.28905
-0.436385
0.497669
0.0766026
0.523701
-0.0958808
-0.205781
0.366479
-0.271531
0.290132
-0.255253
-0.00323315
-0.533441
0.537152
-0.291412
-0.287335
0.577583
0.193087
-0.523551
-0.26571
0.197982
-0.510881
-0.254712
0.269959
-0.16154
0.324877
-0.597755
0.272851
-0.335743
0.0239734
0.23854
-0.262597
0.610133
-0.318136
-0.29205
-0.279254
-0.178411
-0.338819
-0.253224
-0.103847
0.384397
0.213262
0.390704
-0.126818
-0.263968
-0.583531
-0.240921
-0.313541
-0.187795
0.280372
-0.203638
0.495729
0.035847
0.194527
-0.230331
0.189252
0.327369
-0.187824
0.343035
0.267052
-0.133833
-0.0800714
0.453525
0.358916
-0.559809
0.200731
0.260807
-0.483426
0.222307
0.106546
0.131656
-0.0915185
0.396156
-0.304676
-0.206992
0.56579
-0.0589203
0.421082
-0.362657
-0.424603
0.333213
0.55159
-0.12845
0.247489
-0.223538
0.468372
-0.224892
0.48535
-0.267562
-0.232896
0.500288
-0.241525
-0.174877
0.415919
0.624119
-0.348293
-0.449092
0.389384
-0.257472
0.367059
-0.109628
-0.0978166
0.202844
-0.597078
0.210077
0.278866
0.182542
-0.461508
-0.368414
0.112135
-0.172924
-0.286371
0.458598
0.564682
-0.354237
-0.21042
-0.346307
0.0818273
0.269586
-0.176642
-0.27435
0.170022
0.102399
0.08954
-0.416164
-0.18221
-0.0647625
-0.360637
0.132452
-0.225528
0.352195
-0.126807
-0.551418
0.533662
-0.535166
0.00360719
-0.23936
0.557664
-0.318273
-0.0689658
-0.404271
0.393698
-0.27933
-0.555822
0.216795
0.294665
0.0486898
-0.343416
0.19659
-0.160711
0.246662
0.14396
0.134313
0.194513
-0.18112
-0.432031
0.0822588
0.157096
-0.239344
-0.144573
0.423288
0.27156
-0.546008
0.274345
0.159703
0.230996
-0.390834
0.378696
-0.564466
0.185638
-0.631788
0.27285
0.358857
-0.324229
-0.196235
0.520414
0.471564
0.0853766
0.323287
-0.533086
0.0863275
-0.182517
0.0962201
0.628772
-0.277882
-0.350924
0.378432
0.241635
-0.620197
-0.164354
-0.135073
0.299256
-0.374716
0.239484
0.134825
-0.170159
-0.199343
-0.336722
-0.287835
0.495779
-0.208543
0.278142
-0.451916
-0.188513
0.46573
-0.24475
-0.0888001
0.0445051
0.272878
-0.317362
0.175826
-0.495924
0.0816602
0.1074
-0.189123
-0.361458
-0.383883
-0.259109
0.257774
-0.219012
0.207737
0.141284
0.283181
0.173007
-0.424842
0.251626
-0.250419
-0.263221
-0.236448
-0.124249
0.0150513
0.25119
-0.124597
-0.250462
-0.367705
-0.199335
0.567029
0.237169
0.233148
-0.381066
0.0387158
0.236076
-0.170521
0.416809
0.316121
-0.244903
-0.301732
0.420045
-0.118257
-0.495693
0.293364
0.201959
0.164078
-0.327566
0.164696
0.105263
-0.269999
-0.375882
-0.26979
-0.482148
0.193813
-0.5961
0.217969
0.377759
-0.320428
0.559817
-0.239186
-0.559119
0.239055
0.30134
0.56905
-0.410881
-0.158233
-0.335066
-0.274888
-0.502116
0.225742
0.343311
-0.602412
0.325564
0.276867
0.246893
-0.4081
0.160856
-0.276354
0.61534
-0.339063
0.0983516
0.224676
0.51008
0.00684285
-0.516757
-0.229042
0.404308
-0.157689
0.204831
-0.19006
0.238503
-0.156186
-0.153814
0.535763
0.311114
-0.520259
0.208724
-0.284567
-0.198066
0.217714
0.337106
-0.554814
-0.38261
0.632297
-0.24972
0.495215
-0.1704
-0.631051
0.248424
-0.290471
0.541137
-0.249394
-0.246615
0.374951
0.253791
-0.235829
-0.0890882
0.324987
-0.331733
-0.356213
-0.452864
0.537058
0.0106245
0.402597
-0.413261
0.585476
-0.20685
0.208589
-0.520935
0.311775
0.242869
0.374805
-0.0823468
-0.153203
0.0373567
-0.45353
-0.165683
-0.225163
0.390843
0.173673
-0.0873288
-0.290745
-0.270944
0.00328875
0.55154
-0.554498
0.212372
0.431934
-0.176032
-0.036377
-0.266486
-0.32997
0.208148
-0.13766
0.295938
-0.492544
0.288554
-0.423749
0.559704
-0.135948
0.244818
-0.410623
-0.438354
0.393743
0.0444946
-0.344514
-0.202743
0.547257
-0.552462
0.273729
0.278782
0.212043
-0.613198
-0.37653
0.612962
-0.391206
0.283384
0.0701914
-0.353613
-0.488552
0.227245
-0.120702
-0.427899
-0.108004
-0.282712
-0.308801
-0.293603
-0.55075
0.311907
0.238678
-0.407037
0.582397
-0.175435
0.103736
0.166271
-0.21624
0.527058
-0.0669942
-0.200358
0.267152
-0.154791
0.387756
-0.410021
0.377035
0.527727
0.0713128
-0.47843
-0.145304
-0.106585
0.251895
-0.527065
0.236181
-0.429004
0.125822
0.0711465
0.136812
-0.207949
0.226852
0.302939
0.355783
0.208913
-0.354929
-0.197483
-0.322207
0.544099
-0.221992
0.58647
-0.230663
0.32776
0.195317
-0.523016
-0.511425
0.200925
0.310486
0.617232
-0.391117
-0.226298
-0.315603
-0.0526056
0.368096
-0.368635
0.121076
-0.298267
0.507116
-0.612462
0.306931
0.305104
-0.548123
0.0158327
0.532021
-0.583504
0.242531
0.340683
-0.651126
0.373192
0.338118
0.272616
0.364633
0.144549
-0.475479
0.330914
-0.121277
0.302119
-0.29424
0.627129
-0.33288
-0.405813
0.163807
-0.220293
0.13847
0.432825
-0.30495
-0.127817
0.403404
-0.177105
-0.0700731
0.304778
-0.434394
0.118721
0.2115
-0.119907
-0.0915437
-0.378565
0.421813
-0.384466
0.527086
-0.271982
-0.255185
-0.279491
0.467645
-0.188384
-0.319017
-0.0909995
-0.572717
0.512078
0.0603662
-0.217449
0.481276
-0.263868
0.197625
0.330952
-0.528697
-0.203793
0.534131
0.278353
0.248655
0.408965
0.208092
0.177729
-0.155671
-0.484445
0.136159
0.132637
-0.297226
-0.298213
0.111632
-0.250442
0.0198089
0.230813
-0.19538
-0.0548894
-0.623823
0.274304
0.349499
0.534275
-0.336758
-0.386891
-0.101095
0.271081
-0.472177
0.180243
-0.0327717
-0.355203
0.387437
-0.572586
0.21842
0.607669
-0.298054
0.549889
-0.252037
-0.510761
-0.292819
-0.258076
-0.494815
0.273682
0.220885
-0.171699
-0.276722
0.44836
0.15003
0.447714
0.480694
-0.532442
0.051449
-0.064614
-0.358987
-0.0850465
-0.571534
0.215219
0.356323
0.549
-0.331377
-0.624875
0.33112
0.293286
0.221944
0.363455
-0.287468
-0.295566
-0.25553
0.0340328
-0.317264
0.461871
-0.0538986
0.511112
0.286572
-0.504044
-0.248581
-0.315653
0.563969
-0.170773
0.184383
-0.299806
0.115266
-0.178814
-0.132103
0.310788
-0.197773
0.0983782
0.375041
-0.474537
0.105287
0.121957
0.187714
-0.532227
0.233169
-0.553043
0.319836
0.145216
0.287665
-0.00477438
0.485168
-0.320535
0.507307
-0.186945
-0.0321803
0.280779
-0.248878
0.51943
-0.505853
-0.0136283
-0.219187
-0.16803
0.387039
-0.574044
0.339292
0.234708
-0.528014
0.304721
0.222736
-0.616306
0.262847
0.353429
-0.374465
0.598954
-0.224474
-0.506605
0.28324
0.223432
-0.30737
-0.0613538
-0.463263
0.194299
0.268348
0.325393
-0.190995
-0.0616922
0.408152
-0.346557
0.435415
-0.119772
-0.261097
0.193966
0.222239
-0.0831356
-0.0258623
0.486249
-0.460379
0.124024
0.0875242
0.318996
-0.568032
0.103436
-0.248713
-0.188556
-0.568935
0.292504
0.437165
0.0730128
-0.325851
-0.299536
0.271841
-0.287329
-0.591158
0.345126
0.245903
-0.16156
-0.204485
0.365612
-0.109624
0.551522
0.520159
-0.175003
-0.256916
0.331559
-0.121523
-0.209828
-0.620008
0.415735
0.204127
0.297038
0.217441
-0.533038
-0.540013
0.241341
-0.510756
0.218545
0.292137
0.245122
0.295133
-0.540574
0.388602
-0.139692
-0.311384
0.544491
0.235837
0.350646
-0.435465
-0.136767
-0.501399
0.208389
0.507392
-0.129042
-0.242503
-0.145961
0.270568
-0.426914
-0.451275
-0.634996
0.326302
0.308315
-0.535577
0.395616
-0.272607
-0.238222
0.170804
-0.491395
-0.170616
0.131749
0.038868
-0.588136
0.316121
0.27203
0.289031
0.178384
0.301426
-0.117264
-0.52326
0.283909
0.655204
-0.293001
-0.362261
-0.258252
0.529738
-0.22799
-0.318128
0.210106
0.121661
0.2901
-0.0437136
-0.246462
-0.149667
-0.217029
0.366246
-0.531996
0.187356
0.344583
-0.46811
0.197043
0.270875
-0.246074
0.58439
-0.338201
0.224569
-0.367852
-0.219861
0.379371
-0.313514
-0.237462
-0.0136641
-0.518763
0.532522
-0.172318
0.411602
-0.313561
0.262227
0.195032
-0.457059
-0.143203
-0.0945752
0.237829
0.171544
0.263577
0.36869
-0.31398
-0.581533
0.363169
0.218407
-0.101539
0.203019
0.250909
0.196362
-0.518771
-0.304249
-0.271341
-0.359726
-0.51603
0.191712
0.0638673
0.206622
-0.270557
0.238897
-0.511703
0.496491
-0.600528
0.237052
0.363496
-0.206639
-0.326992
0.533548
0.287345
0.367805
0.560442
-0.325004
0.597775
0.216291
0.531251
-0.343929
0.160732
0.370481
0.638899
-0.286016
-0.353184
0.307231
0.152077
-0.45911
0.0339461
-0.361367
-0.353208
-0.210114
0.563255
0.138978
0.0832948
0.493305
-0.519208
0.438111
-0.407352
-0.427278
0.559419
-0.241033
-0.42563
0.127431
0.297663
-0.376183
-0.243957
0.323111
-0.384815
0.170287
-0.14848
-0.021806
-0.18613
-0.34134
0.52732
0.528183
-0.333018
-0.621382
0.268232
0.353137
0.173548
0.201067
-0.374482
-0.231309
0.0957669
-0.562864
0.252662
0.31014
0.215302
-0.572236
-0.119059
-0.136377
-0.362277
-0.259117
-0.644156
0.372777
-0.278121
0.0868042
0.191482
-0.560054
0.310054
0.250044
-0.314006
0.192062
-0.555254
0.22591
0.362121
-0.588099
-0.178788
-0.286042
0.464777
0.203983
-0.122325
-0.609787
0.267511
0.342255
0.291519
-0.602809
0.327918
-0.609651
0.370418
0.239193
0.328751
0.245653
-0.35101
0.106225
-0.0881572
-0.189804
0.200051
-0.553302
-0.192152
0.263402
-0.468778
0.409393
0.0591192
-0.222662
0.369956
-0.147385
0.343244
-0.376405
0.103655
0.189471
-0.293284
0.221576
0.0684636
-0.233571
-0.294992
0.323
-0.522154
-0.134121
-0.278777
0.0247506
-0.260514
0.206351
-0.0673528
-0.300906
0.531446
-0.231455
0.484875
-0.527453
0.297986
0.229499
0.519062
-0.521004
0.146258
-0.238102
0.0918352
-0.311009
0.144663
0.166106
-0.0393235
-0.0906102
0.525746
0.274937
-0.110315
-0.421753
0.480421
-0.0587455
-0.552334
0.31358
0.238994
-0.528004
0.22634
-0.247642
-0.352869
0.151636
0.260575
-0.594377
0.226754
0.313509
-0.530251
-0.0777376
-0.0928798
-0.421476
0.258207
0.162918
0.161491
0.106382
-0.317901
0.524706
-0.207176
-0.0937143
0.239927
0.165031
-0.384399
0.139665
0.18582
0.607831
-0.340528
-0.267372
-0.248921
-0.307007
0.269177
-0.356846
0.162533
0.239831
-0.402591
0.196762
-0.329049
-0.320288
-0.242635
-0.101496
0.55812
-0.366198
-0.212935
-0.298503
-0.150105
0.319369
0.18776
-0.345654
-0.362752
-0.181962
0.544518
0.393352
0.487505
0.275674
0.21951
0.227601
-0.103543
-0.325181
-0.230309
0.555421
0.300619
0.3321
-0.509995
0.333941
-0.614868
0.280551
0.237796
-0.41307
0.5923
-0.0437149
-0.125226
0.196376
0.478154
0.327494
-0.300707
-0.0267359
-0.364968
0.19676
0.168263
0.193786
-0.568215
-0.604646
0.338671
0.265967
0.150201
0.0561699
-0.0952602
0.439021
-0.343875
0.298052
-0.513757
0.145779
0.0245062
-0.309313
-0.132384
0.441569
0.29668
-0.516676
-0.196349
0.484885
-0.360269
-0.219343
0.436805
-0.166561
0.110843
-0.27112
0.160258
0.231586
-0.167765
0.281414
-0.470698
-0.270371
-0.284382
0.439235
-0.155026
0.233389
0.161536
-0.394998
-0.0648321
0.550863
-0.395884
0.230007
0.165642
0.581371
-0.265189
0.409546
0.351172
-0.610653
0.259872
-0.592308
0.182267
0.220945
0.409844
-0.596023
0.215867
-0.39984
0.183774
0.290811
-0.531381
0.24013
-0.199848
0.398379
-0.199001
0.527698
-0.249405
-0.331932
-0.503125
0.212157
0.289949
-0.274039
-0.221024
-0.334475
-0.271716
-0.221408
0.493086
0.236803
0.32321
0.236876
-0.270191
0.302433
-0.310766
0.457112
0.0981692
0.111839
0.215689
0.237304
-0.46835
0.230747
-0.348103
-0.101116
0.262629
-0.227637
-0.278539
0.505624
0.254171
-0.161628
-0.0924163
0.412989
-0.173413
-0.276279
0.168172
0.183883
-0.301916
-0.303252
-0.104316
0.407489
-0.454788
0.260475
0.194014
-0.442967
0.406806
0.500239
-0.258868
-0.241735
-0.207518
0.0749928
0.163567
0.399244
-0.129431
-0.269859
-0.328831
-0.236069
0.564763
0.198152
-0.516544
-0.221831
0.534986
0.284639
0.221276
-0.249563
0.312348
-0.0109416
-0.301164
-0.584764
0.255776
0.244595
0.170861
-0.239483
-0.315637
0.554888
-0.140978
0.374019
0.0934849
-0.213348
0.393474
-0.156768
-0.111329
-0.357679
-0.392543
-0.2356
-0.187481
0.449797
-0.141187
0.337734
0.28115
0.183671
0.614495
-0.258692
-0.355832
-0.239987
-0.308661
0.548174
-0.563666
0.254512
0.532916
-0.356746
-0.176209
-0.390678
0.222471
0.377954
-0.0999099
-0.255079
-0.4669
0.157608
0.556992
-0.238334
0.143778
0.422137
-0.177953
0.503833
-0.228554
0.100214
0.127418
0.233921
0.170125
-0.00561125
-0.506734
0.434834
-0.177012
-0.283964
-0.243446
-0.200257
0.103028
0.0972305
0.215703
-0.487657
0.281284
-0.642457
0.36113
-0.123167
0.228473
0.342157
-0.131937
-0.485242
-0.540876
0.294918
0.293336
-0.268508
0.304269
-0.470847
0.166095
0.381778
-0.166279
-0.332317
0.579069
-0.246817
-0.381157
0.121313
0.142234
-0.364921
0.196953
-0.172318
0.478202
-0.306004
0.382026
-0.138947
-0.243055
-0.56764
0.235292
-0.354429
-0.225264
0.57968
-0.641298
0.277194
0.364067
0.0987068
0.638003
-0.359427
-0.278661
-0.64393
0.283314
0.360553
-0.0951115
-0.105146
0.530631
0.262283
0.147028
-0.409252
-0.191363
0.284834
0.353087
-0.504649
0.301504
0.202984
0.329892
0.242689
-0.572689
0.212574
-0.244882
-0.244046
-0.283241
0.525125
0.215043
-0.185466
-0.197956
0.383164
-0.359161
0.413074
-0.184278
-0.22911
-0.530316
-0.301539
0.484375
-0.182961
-0.232842
0.379612
-0.147292
-0.321406
-0.37434
-0.496561
0.278709
0.217191
-0.187205
0.467582
-0.280133
-0.263138
-0.34667
0.029416
0.557816
-0.587236
0.312788
-0.091107
0.367064
-0.428774
-0.360048
-0.233666
0.521899
-0.359186
-0.20845
0.295383
-0.549906
0.298627
0.251035
-0.207376
0.281946
0.2749
-0.557543
-0.234651
0.594368
-0.359874
-0.256749
0.521445
-0.264872
-0.327828
-0.232205
0.559954
0.152
0.0914925
-0.243557
-0.51561
0.212825
-0.580336
0.252473
-0.544516
0.198898
0.345594
-0.251566
-0.254982
0.492265
-0.0237404
-0.18756
-0.249136
0.436786
0.311924
-0.552161
0.348012
-0.558082
0.386595
-0.135
0.28902
-0.54141
0.544571
-0.409606
0.106271
0.0290024
0.537892
-0.567055
0.351332
0.228314
-0.515093
0.379901
-0.118382
-0.261825
0.531802
-0.283151
0.358542
-0.218726
-0.139669
-0.373837
-0.127727
0.277889
-0.502638
0.224244
-0.4189
0.366408
0.125144
0.129169
0.33516
0.204598
-0.539808
-0.3377
-0.206838
0.185656
-0.0354536
0.514842
-0.216239
0.193774
-0.0293407
-0.164428
0.198045
-0.167073
-0.0309722
0.0058125
-0.517888
0.512694
0.247822
-0.635756
0.271639
0.364115
-0.0894023
0.298186
0.319194
-0.110178
-0.300993
-0.217597
0.518627
-0.474241
0.188085
-0.628297
0.258272
0.370024
0.24073
-0.0905863
-0.150207
0.345075
-0.117594
-0.636761
0.27537
0.361372
0.496778
-0.129939
0.255197
-0.403154
0.147674
-0.543578
0.35633
-0.0781055
0.272634
0.124635
0.168833
-0.29369
0.203966
-0.130694
-0.0732802
0.159619
-0.0138122
-0.354197
0.580038
-0.179564
-0.0371753
-0.137818
0.175012
-0.610242
0.343377
-0.272608
0.158492
0.114002
-0.324207
-0.238757
0.562389
0.284187
-0.172885
0.579126
-0.591347
0.348654
0.24262
-0.326381
-0.211486
0.537763
0.157156
0.192996
-0.136083
0.160609
0.241467
-0.0895887
-0.359586
-0.236559
0.527087
-0.025812
-0.123852
0.149709
0.517363
-0.213496
0.56162
-0.235807
0.410476
-0.392143
0.233992
-0.161412
-0.234933
0.5138
-0.519208
0.507259
-0.510068
-0.164327
0.398044
0.528566
-0.156725
-0.371625
0.547059
-0.513199
-0.204251
-0.331345
0.535578
0.360112
-0.141448
-0.218533
0.23595
-0.544916
-0.0854904
0.204333
-0.118883
0.226152
-0.032558
0.231776
0.363223
-0.166386
-0.406136
0.272382
-0.360391
-0.0962413
0.194285
-0.0980627
0.0831519
0.111739
0.213682
0.55026
-0.351372
0.478235
-0.197799
-0.10573
0.207873
-0.102161
0.516972
-0.264
-0.25295
-0.191031
0.31365
-0.122646
0.213913
0.138379
-0.352387
0.176952
0.373294
0.402105
-0.497503
0.522365
-0.226256
-0.159191
-0.279228
0.165845
0.113274
-0.507945
0.279472
-0.214675
0.255014
-0.469335
0.214397
-0.497457
0.180045
0.330109
-0.576094
0.245645
-0.612987
0.361335
0.251633
0.430027
-0.174979
0.464553
-0.195628
-0.269138
0.228127
0.15959
-0.388193
0.15638
0.106276
0.339656
-0.542483
0.519648
0.24439
0.234594
0.154279
-0.260824
0.226054
0.16643
-0.393099
-0.166714
0.117627
-0.232724
0.400618
0.505958
-0.228538
0.128135
0.583918
0.237206
-0.587118
0.349736
0.0126522
-0.462678
0.351704
-0.586358
0.231442
0.298745
-0.252137
0.219789
0.159294
-0.626734
0.291761
0.334939
0.445758
0.138538
-0.240039
0.551669
-0.151011
0.492436
-0.341416
-0.036212
-0.496488
0.533251
0.200183
0.14383
-0.284205
-0.250762
0.53489
-0.198478
0.47861
0.308428
0.215909
-0.096876
-0.117764
-0.191602
0.124517
-0.210041
0.295809
0.285636
0.231598
0.173654
-0.405885
0.155446
0.199503
-0.498738
-0.290344
0.168307
0.1219
0.121266
0.237439
0.0122466
0.150986
-0.0917725
0.15083
-0.284099
0.190107
0.123517
0.199454
0.111204
-0.338571
-0.288198
-0.115567
0.158325
0.4204
-0.271732
-0.148539
0.519954
0.321757
-0.131767
0.558002
-0.161859
0.155756
-0.226595
0.0708368
-0.199716
0.484603
-0.0999719
0.221496
-0.0909589
0.24666
-0.356661
0.168704
-0.384249
0.135036
0.217915
0.155795
0.175093
-0.350638
0.202213
0.14814
-0.11919
-0.0785414
0.197715
0.0324268
-0.413617
0.381115
-0.36675
0.211839
0.154834
0.460168
-0.219132
-0.241038
-0.563568
0.324438
0.307422
-0.261264
-0.193826
0.507716
-0.578886
0.0694178
-0.320676
0.189952
0.130554
0.206798
0.153309
-0.360223
-0.37507
0.55068
-0.175887
0.282387
0.225859
-0.508363
0.35092
-0.120842
-0.441005
0.202217
0.238452
-0.313958
-0.296629
0.411665
-0.149514
-0.166052
0.393859
-0.501284
0.476528
-0.511952
-0.148849
0.362502
0.265884
-0.162032
0.171463
0.130419
-0.44938
0.199429
0.529586
-0.352633
0.153325
0.208622
0.236071
0.34665
-0.582656
-0.619553
0.393252
0.226319
0.378692
0.150894
0.557441
-0.486056
-0.0716758
0.341928
0.293177
0.191073
-0.161089
0.377777
0.339696
-0.217664
-0.284355
-0.564865
-0.237217
-0.372474
0.0907455
0.222156
-0.617306
0.238506
0.37879
0.200484
-0.342023
-0.289956
0.514945
-0.225405
0.0254201
-0.187005
-0.31383
0.542993
-0.229461
-0.338212
0.583827
-0.246056
0.27267
-0.509509
0.236634
0.22438
-0.136823
0.607946
-0.367358
-0.240623
0.520545
-0.527142
0.00696719
0.355501
0.12516
0.190409
-0.315844
0.526368
-0.299946
-0.204864
-0.197791
-0.401465
0.352741
-0.301224
0.529403
-0.229207
0.258182
0.338952
-0.342134
0.00326588
0.273717
0.0653092
0.224907
-0.112933
0.201606
-0.0886979
-0.586667
0.350435
-0.236627
0.588295
0.351517
0.139277
0.193527
-0.333116
0.293406
-0.118759
-0.502629
0.281346
-0.245486
-0.37183
0.644028
-0.314353
-0.329533
-0.199648
-0.177524
0.408627
-0.18324
0.306162
-0.122912
0.569063
-0.239076
0.288632
-0.485259
0.359413
-0.15292
-0.2063
0.239519
0.172277
-0.412175
0.468683
-0.213772
0.164394
0.228897
-0.519113
0.373911
-0.587991
0.230958
0.581755
-0.515604
-0.0654776
-0.294017
0.122664
0.171087
-0.613313
0.367797
0.12545
0.170468
-0.296226
-0.211468
0.387281
-0.17581
-0.491263
0.317475
-0.488855
0.279202
0.235239
0.229309
0.176119
0.243141
-0.419407
0.171596
0.357141
0.310838
-0.196683
-0.0554318
0.385729
-0.0501094
-0.198302
0.486348
-0.517022
-0.233013
-0.192776
0.363106
-0.170354
-0.337228
0.191251
0.145807
0.0551908
-0.20554
-0.289391
0.493806
0.221624
0.15978
-0.378503
-0.201871
-0.0556442
0.25757
0.417654
-0.231696
-0.185944
0.0389452
0.425128
-0.225179
-0.19994
0.241713
0.167455
-0.348777
-0.254035
0.0367758
0.106054
0.195145
0.235003
-0.618869
0.38387
0.0579803
0.229969
-0.385016
0.233385