/*--------------------------------*- C++ -*----------------------------------*\
| =========                 |                                                 |
| \\      /  F ield         | OpenFOAM: The Open Source CFD Toolbox           |
|  \\    /   O peration     | Version:  v2012                                 |
|   \\  /    A nd           | Website:  www.openfoam.com                      |
|    \\/     M anipulation  |                                                 |
\*---------------------------------------------------------------------------*/
FoamFile
{
    version     2.0;
    format      ascii;
    class       surfaceVectorField;
    location    "950";
    object      Uf_0;
}
// * * * * * * * * * * * * * * * * * * * * * * * * * * * * * * * * * * * * * //

dimensions      [0 1 -1 0 0 0 0];


internalField   nonuniform List<vector> 
14516
(
(1.12599 -0.090641 -4.90241e-22)
(1.1372 -0.078294 -1.72371e-21)
(1.11714 -0.0733736 -2.07927e-21)
(0.890119 0.035104 -1.42205e-22)
(0.876164 0.0348997 2.40913e-22)
(0.898807 0.039905 -2.65613e-23)
(1.1097 -0.100924 6.47139e-22)
(1.1285 -0.110895 0)
(1.01407 7.03095e-05 1.36674e-22)
(1.01405 8.78608e-05 -4.55534e-22)
(1.01404 7.28559e-05 2.58171e-22)
(0.986545 0.369412 0)
(0.901761 0.337458 0)
(0.907175 0.503827 5.63769e-20)
(0.999356 0.00992096 -2.18248e-21)
(0.999621 0.00804311 1.66789e-21)
(1.0012 0.00931698 -4.95447e-22)
(1.0117 -4.66238e-05 -3.17553e-23)
(1.01245 -0.00020876 0)
(1.01312 -0.000262772 1.08675e-21)
(1.01565 -0.00093895 0)
(1.0155 -0.000821649 4.57577e-22)
(1.01566 -0.000865457 0)
(1.02115 -0.0011268 2.70609e-22)
(1.02131 -0.000846622 -1.45059e-21)
(1.02161 -0.00126937 1.99153e-22)
(1.08383 0.246923 5.05396e-20)
(1.06658 0.39902 0)
(1.00531 -0.0122864 0)
(1.00044 -0.0139584 0)
(1.00618 -0.0176313 2.98779e-21)
(0.942161 0.0273782 -1.88891e-21)
(0.949367 0.026807 -2.59435e-21)
(0.943454 0.0189906 -6.31345e-21)
(1.01403 8.62424e-06 1.15816e-22)
(1.01411 5.11007e-05 -2.01469e-21)
(1.01079 0.00604646 7.72527e-22)
(1.01022 0.00532031 -4.76415e-23)
(1.01104 0.00507637 0)
(1.00612 -6.92104e-05 7.46554e-23)
(1.00616 -1.44777e-06 6.9225e-22)
(1.0115 0.00671644 -4.72492e-22)
(1.0122 0.00717508 -1.56648e-21)
(1.01225 0.00620427 -4.38389e-23)
(1.02163 0.00514578 -7.60846e-23)
(1.02082 0.00512359 6.2266e-22)
(1.0213 0.00453491 -1.49272e-22)
(1.02244 0.00509782 -5.72061e-22)
(1.02194 0.00585305 1.07823e-22)
(0.929582 -0.299744 -4.24882e-21)
(0.945371 -0.322043 5.9903e-21)
(0.91479 -0.322577 0)
(1.01061 0.00713292 7.95306e-22)
(0.895628 0.011504 2.32076e-21)
(0.88515 0.00296113 1.09394e-20)
(0.899985 -0.00181705 -6.93271e-22)
(1.01632 -0.0175863 -1.63204e-21)
(1.01748 -0.0181929 -1.58732e-21)
(1.01713 -0.0168153 -1.03561e-21)
(1.10156 -0.0384678 3.33027e-21)
(1.11204 -0.034361 1.58839e-21)
(1.10767 -0.0501904 2.25767e-22)
(1.02242 0.00077076 -1.10098e-22)
(1.02223 0.000698135 1.9405e-22)
(1.03155 0.00175502 0)
(1.03225 0.00339548 1.09748e-21)
(1.03361 0.00165935 0)
(1.0138 1.95194e-05 -8.94085e-22)
(1.01387 1.91675e-06 8.58803e-22)
(1.01346 0.00964388 2.58556e-22)
(1.01243 0.00931151 9.14123e-22)
(1.01274 0.0106056 -1.66933e-21)
(1.01847 0.00411497 -7.60464e-22)
(1.01814 0.00445845 4.16649e-24)
(1.01797 0.00393724 -4.66021e-22)
(1.04079 0.00944494 8.5142e-22)
(1.03748 0.00706779 3.94257e-21)
(1.04188 0.00650705 -1.50489e-21)
(1.02069 -0.000969185 -5.66284e-22)
(1.02095 -0.00135225 -3.35899e-21)
(0.976884 0.0367345 -6.09891e-21)
(0.973388 0.0376354 -4.70169e-21)
(0.975184 0.0330802 -4.87528e-21)
(1.08877 -0.0418364 -1.91914e-21)
(1.08931 -0.0303269 -1.11139e-21)
(0.960227 0.126431 1.40893e-20)
(0.965499 0.133989 1.50392e-21)
(0.934429 0.152353 -1.37395e-20)
(1.01099 -5.00378e-06 -4.3816e-22)
(1.01095 -3.32945e-05 2.92151e-22)
(1.00797 -7.7485e-06 -4.61655e-22)
(1.04493 0.0127096 -4.58848e-21)
(1.0506 0.0154532 0)
(1.05149 0.0104367 0)
(0.836469 0.0133921 -5.48832e-22)
(0.814711 -0.00635179 -5.28965e-22)
(0.801001 0.0229575 -4.62291e-22)
(1.01078 -5.37972e-05 4.62033e-22)
(1.00908 4.72338e-05 -1.13338e-21)
(1.01525 -0.0183635 6.9e-22)
(1.0152 -0.0168917 0)
(1.01641 -0.00172563 -4.6472e-22)
(1.01656 -0.00198707 5.15699e-22)
(1.01677 -0.00188963 7.35963e-22)
(1.01428 -8.72334e-05 3.05691e-22)
(1.01378 -0.000114543 -1.29728e-22)
(1.01469 -3.53043e-05 2.30992e-22)
(0.981065 0.0356996 4.28764e-21)
(0.979688 0.0412028 3.77065e-21)
(1.00935 -4.74287e-06 -1.30484e-21)
(1.00572 -8.59215e-05 -2.25879e-22)
(1.0126 -0.000129801 1.08853e-21)
(1.01328 4.1551e-05 7.92407e-22)
(1.01274 -0.000121892 3.51944e-21)
(1.01243 -0.000162092 0)
(1.01162 -0.000229392 5.3873e-22)
(1.01316 -9.54729e-05 0)
(1.01049 -7.31657e-05 1.51576e-21)
(1.01251 -4.68073e-05 1.10837e-21)
(1.01375 5.7486e-05 -2.044e-22)
(1.03856 0.0145996 4.62234e-22)
(1.0075 -0.0318057 -1.26226e-21)
(1.00576 -0.0334294 7.75062e-22)
(1.00492 -0.0304711 -4.30241e-23)
(1.00675 0.214492 3.17478e-21)
(0.974627 0.208804 -9.88289e-22)
(0.995295 0.183714 -1.26567e-20)
(1.01402 0.00012618 2.39649e-21)
(1.01405 9.88428e-05 -3.48887e-22)
(1.05724 0.0199142 0)
(1.04779 0.0226371 3.46115e-21)
(0.998835 0.00409429 6.32307e-21)
(0.99472 -0.000876258 3.11924e-21)
(1.00204 -0.00242684 7.78442e-21)
(0.998366 0.00330022 -9.47097e-22)
(0.997455 0.00476077 0)
(0.996514 0.00299662 -2.48763e-21)
(1.01962 -0.0045117 -1.15136e-22)
(1.0193 -0.00419895 1.98324e-21)
(1.01912 -0.00458197 3.90963e-23)
(0.999829 0.227393 1.55483e-21)
(0.957435 0.247418 7.55507e-22)
(0.985689 0.191539 6.40939e-22)
(0.873359 0.134021 -4.80303e-23)
(0.855319 0.168092 -4.7883e-23)
(0.893128 0.141216 1.63829e-21)
(1.01641 0.000592642 -5.82007e-22)
(1.01611 0.00062782 -1.88199e-21)
(0.978959 -0.0735373 4.04661e-21)
(0.990328 -0.0722202 1.26268e-20)
(0.983331 -0.0639875 6.35236e-21)
(0.647412 0.429867 0)
(0.65326 0.404974 1.19476e-21)
(0.64532 0.421059 0)
(1.01631 -0.00155904 -1.10806e-21)
(1.01616 -0.00158175 -1.11135e-21)
(1.01234 -0.000160674 -7.26171e-22)
(1.01164 -3.18409e-05 2.71797e-22)
(1.01335 -0.000195787 0)
(0.99902 -0.0023892 3.0356e-22)
(0.997956 -0.0012879 -4.33174e-21)
(0.997409 -0.00306916 0)
(0.827287 0.379133 0)
(0.784006 0.384919 0)
(0.817652 0.341478 0)
(1.0123 -7.30007e-05 7.09384e-24)
(1.01296 -7.24044e-05 -2.05255e-21)
(1.01218 -8.81425e-05 2.13752e-21)
(0.818393 0.738874 -2.1616e-20)
(0.825126 0.712555 8.22651e-21)
(0.975354 0.082025 9.71796e-23)
(0.984663 0.0909462 -4.95276e-21)
(0.992298 0.0752258 1.08772e-22)
(0.877827 0.359653 0)
(0.856955 0.397545 -5.87565e-21)
(0.921912 0.340662 3.19051e-23)
(0.959527 0.313362 -7.76888e-21)
(0.960156 0.341417 4.63094e-21)
(0.936233 0.0313152 3.08163e-21)
(0.94094 0.0340204 -1.11366e-22)
(1.00547 -0.0070761 2.76692e-21)
(1.00999 -0.0112543 0)
(1.02704 0.269877 -4.43627e-21)
(1.04395 0.208159 -2.29979e-21)
(1.01664 -4.23464e-05 4.32498e-22)
(1.01709 -4.61433e-06 -2.44582e-23)
(1.01822 0.000119908 3.38645e-22)
(1.01369 0.00169101 6.15813e-22)
(1.0135 0.00164363 1.34452e-21)
(1.01363 0.00190458 5.5599e-22)
(1.00146 0.0292937 1.70017e-21)
(1.00612 0.0263951 -3.66717e-22)
(1.00086 0.0244058 -8.52153e-22)
(1.06523 0.019613 3.46286e-21)
(1.06193 0.0295256 -3.3137e-21)
(0.647439 0.433438 -1.06511e-20)
(0.664305 0.440775 0)
(1.01654 0.000435992 3.09399e-21)
(1.01667 0.000265971 1.38715e-21)
(1.01633 0.00033906 3.1212e-21)
(1.02346 0.00283119 -9.92632e-24)
(1.02384 0.00304004 -1.28566e-23)
(1.0235 0.00322395 3.62085e-23)
(1.01252 0.00520936 6.56567e-22)
(1.0124 0.00450386 6.84004e-22)
(1.01303 0.00476224 5.69887e-23)
(1.01722 0.00528312 3.85148e-22)
(1.01668 0.0049225 3.12647e-22)
(1.01727 0.00478955 -4.8614e-22)
(0.958983 0.0892242 5.05135e-23)
(0.971964 0.0741708 3.48063e-22)
(1.01117 0.00298553 -1.01288e-21)
(1.0113 0.00234201 -1.17908e-21)
(1.01183 0.00281004 -2.68839e-22)
(0.843541 0.0249451 -4.04075e-22)
(0.836896 0.0273601 -2.16767e-22)
(0.83212 0.0209759 4.20697e-21)
(1.01571 -0.023861 1.99248e-24)
(1.01419 -0.0259135 1.81e-21)
(1.01326 -0.0228487 -8.40146e-22)
(0.985107 0.0339369 7.70506e-22)
(0.982431 0.0306698 4.60741e-22)
(1.0098 -0.0297169 5.71566e-22)
(1.00868 -0.0306538 -6.41763e-22)
(1.00733 -0.0280435 6.41678e-22)
(1.01711 0.00589145 0)
(1.01781 0.00564502 0)
(1.01676 0.000117894 1.59602e-21)
(1.01684 -4.28972e-05 -1.19501e-22)
(1.01653 4.41503e-05 1.63017e-21)
(1.00049 -0.00183764 3.17078e-22)
(1.00197 -0.00148613 9.96313e-22)
(1.00124 -0.000377786 1.76011e-21)
(1.01079 0.000629845 -4.57627e-22)
(1.01045 0.00125829 1.37819e-21)
(1.01003 0.000542203 5.51135e-22)
(0.882542 0.0291949 -3.50307e-21)
(0.903774 0.0356812 -4.14479e-21)
(0.853462 0.578321 1.73012e-20)
(0.884858 0.631987 2.99787e-21)
(0.916444 0.573653 1.19487e-20)
(1.01778 -0.00235256 1.18759e-21)
(1.01811 -0.00257656 -2.37321e-22)
(1.01777 -0.00257668 4.33006e-22)
(1.07668 -0.0445196 2.78199e-22)
(1.08358 -0.0557894 1.14205e-21)
(1 -0.00331395 -2.61603e-21)
(1.01909 -0.0253834 -2.77199e-23)
(1.01684 -0.0220406 1.01427e-23)
(0.887982 0.105859 2.18903e-21)
(0.85589 0.1163 1.18091e-21)
(0.858802 0.0296681 5.45444e-22)
(0.85211 0.0232557 -3.30768e-22)
(1.01779 -0.00215313 8.1384e-22)
(1.01749 -0.00216369 4.46226e-22)
(1.01543 -0.00153875 0)
(1.01561 -0.00178836 -8.25272e-23)
(1.01559 -0.00151161 -1.81824e-22)
(1.01524 -0.00159675 0)
(1.01525 -0.0013059 0)
(1.01224 -0.0028175 7.6019e-22)
(1.01171 -0.00241268 0)
(1.01172 -0.0032709 0)
(1.01775 2.47489e-05 0)
(1.01793 -0.000116905 0)
(1.018 8.75085e-05 2.36452e-22)
(1.01752 -3.15841e-05 2.48981e-22)
(1.01758 0.000139451 -5.36434e-22)
(1.02339 0.00247769 3.86548e-24)
(1.02313 0.00256354 7.52242e-23)
(0.988575 0.03186 2.45648e-22)
(0.988009 0.0368987 2.67662e-21)
(1.00317 -0.00134432 5.28414e-22)
(1.00242 -0.00254256 -2.32449e-21)
(1.01175 2.11368e-05 -1.12824e-21)
(1.01236 -0.000108307 -2.12348e-22)
(1.01331 -0.000105111 5.47402e-22)
(1.00012 0.00349772 1.23162e-21)
(0.999325 0.00200529 -2.16176e-21)
(0.991053 -0.0479102 -9.75648e-22)
(0.983372 -0.05376 0)
(0.988697 -0.044829 -9.8698e-22)
(1.0164 4.06494e-06 2.33827e-23)
(1.01474 -0.000121255 -1.00704e-23)
(0.922136 0.0420738 -1.48412e-22)
(0.931998 0.041317 1.70794e-22)
(0.928238 0.0514329 1.72215e-22)
(1.01508 0.000721576 2.13437e-21)
(1.0153 0.000681913 0)
(0.711795 0.194607 3.93561e-21)
(0.76061 0.193734 -7.47264e-21)
(0.745745 0.243271 1.40428e-20)
(1.00417 0.00854217 -8.63674e-22)
(0.996786 0.0109657 5.93558e-21)
(1.01676 0.000525707 1.46439e-21)
(1.00515 0.0992645 4.21597e-21)
(1.00787 0.0946657 4.0774e-21)
(1.0207 0.0803145 -2.79342e-21)
(1.0738 0.0203753 2.10391e-21)
(1.06715 0.0114018 3.31247e-21)
(1.01107 0.00372906 0)
(1.01044 0.00323247 -3.72087e-22)
(1.06736 -0.0353868 0)
(1.06448 -0.0438372 1.04841e-22)
(0.995807 -0.0437048 4.2157e-21)
(0.99118 -0.0499483 -7.83613e-22)
(1.01004 9.17458e-05 -1.97103e-23)
(1.00606 6.37869e-06 -1.62971e-22)
(1.00631 8.0597e-07 -3.07153e-23)
(1.01504 -0.000997202 1.83445e-21)
(1.01518 -0.00114455 -1.63646e-21)
(1.01523 -0.000972878 -1.41521e-21)
(0.99936 0.0118243 -4.13927e-21)
(0.997406 0.0106277 3.78537e-21)
(1.02233 -0.00700876 -2.27321e-21)
(1.02219 -0.00755599 5.1201e-22)
(1.02172 -0.00700561 -2.14621e-21)
(0.894766 0.0255872 4.01995e-22)
(0.906977 0.0186202 7.74111e-22)
(1.03208 -0.0266659 2.09803e-21)
(1.03439 -0.0259971 -1.72859e-21)
(1.03263 -0.0244572 0)
(1.01113 -0.0286451 -4.09369e-23)
(1.01244 -0.0316187 -6.94461e-23)
(1.01266 0.0059908 6.29016e-22)
(1.01191 0.00574886 0)
(1.01336 0.000400828 -4.15261e-21)
(1.01339 0.000309462 -4.59866e-22)
(1.01341 0.000418373 -7.47279e-22)
(1.01489 -4.46601e-06 -3.2386e-22)
(1.01415 4.23479e-05 -3.57222e-22)
(1.01645 5.37362e-06 3.00246e-22)
(1.017 0.000188991 -2.27019e-21)
(1.01332 0.000460271 1.16285e-21)
(1.0133 0.00035299 -1.41508e-21)
(1.01369 -0.00632957 -4.51459e-22)
(1.01417 -0.00717755 -4.24225e-22)
(1.01451 -0.00636725 -1.65418e-22)
(1.02027 -0.000844209 -5.04174e-22)
(1.02048 -0.000625006 -1.09341e-21)
(1.01692 -0.000203437 -1.74841e-21)
(1.017 -0.000385882 -2.04874e-21)
(1.01668 -0.000268011 1.62889e-21)
(1.01063 -4.88402e-05 -9.05535e-25)
(1.01232 -6.05297e-05 6.24212e-24)
(1.01189 -4.85689e-05 0)
(1.01321 -0.000161772 0)
(1.01495 0.000615994 2.58433e-21)
(1.01483 0.000727263 -2.97499e-22)
(1.01817 0.00079474 3.31058e-22)
(1.01831 0.000911612 -3.98825e-22)
(1.01812 0.000856215 -6.38044e-22)
(1.01487 -0.000990623 3.29724e-21)
(1.01489 -0.000863362 1.5307e-21)
(1.03004 -0.00100505 1.38901e-21)
(1.03094 0.000399727 6.38409e-22)
(1.03173 -0.00137515 4.59412e-22)
(1.01412 -0.000180604 1.19924e-21)
(1.01426 -0.000111626 1.56378e-21)
(1.01391 -0.000184485 2.34091e-21)
(1.01446 -0.00157439 -9.95135e-22)
(1.0144 -0.00119899 0)
(1.01421 -0.00143182 0)
(1.0092 0.00552586 -1.02036e-22)
(1.0096 0.00451272 8.1688e-22)
(1.00739 0.00466412 2.88779e-23)
(1.00808 0.00575624 -5.24691e-23)
(1.00676 0.00585594 -2.44905e-22)
(1.01394 0.0341576 1.4176e-22)
(1.01996 0.0322305 -6.74652e-23)
(1.01564 0.0369663 2.80853e-21)
(1.01474 -0.00161441 -6.24268e-22)
(1.01464 -0.00193299 -1.05863e-21)
(1.01775 -0.00157091 -4.72612e-22)
(1.01778 -0.00176882 -7.41975e-23)
(1.01805 -0.00168044 -5.65995e-23)
(0.814276 0.514662 -2.53557e-21)
(0.795795 0.580267 6.16436e-21)
(0.943366 -0.589382 -8.98419e-21)
(0.920711 -0.588097 1.52378e-20)
(0.873233 -0.60802 9.26613e-21)
(1.01617 0.000112015 -2.88917e-23)
(1.01328 -8.29615e-05 6.29406e-23)
(1.0088 -0.56753 1.90102e-20)
(0.956668 -0.553153 2.74033e-20)
(1.12472 0.0793058 -4.99197e-22)
(1.18129 0.154201 -2.0741e-20)
(1.01772 -0.00139253 8.24718e-24)
(1.01747 -0.0014788 2.00896e-24)
(1.01298 0.000105896 3.30644e-23)
(1.01271 0.000112767 3.28398e-22)
(1.01712 0.000289082 8.16609e-22)
(1.01633 0.00021813 6.13793e-22)
(1.01756 0.000410317 1.03057e-21)
(1.02916 -0.00202901 7.47969e-22)
(1.02859 -0.000516498 -6.11673e-22)
(1.01503 -0.00161872 4.80656e-22)
(1.01488 -0.00130728 1.03043e-21)
(1.01427 -0.000167937 -2.26291e-21)
(1.01398 -0.000140794 7.95951e-22)
(1.01583 -0.0010485 -3.18686e-22)
(1.01566 -0.00100457 -2.95394e-23)
(1.01863 0.00372409 2.52696e-22)
(1.01892 0.00418474 -1.76631e-22)
(1.01535 0.00819012 7.64099e-22)
(1.01616 0.00828124 0)
(1.01587 0.00905808 -7.96692e-22)
(0.913274 -0.280723 -1.64858e-21)
(0.893966 -0.258308 1.08121e-21)
(0.880793 -0.279457 1.10187e-21)
(1.00119 0.0381074 5.63421e-22)
(1.00167 0.0337666 1.31139e-21)
(1.00829 0.0349431 2.15366e-22)
(0.864325 0.00552064 -2.67574e-21)
(0.871556 -0.0113945 -8.70024e-23)
(1.00987 -0.033181 -1.15498e-21)
(1.03338 -0.0181937 -4.07412e-21)
(1.03193 -0.0177104 3.04652e-21)
(1.03236 -0.0192708 -1.6132e-21)
(1.01407 0.00877458 -9.7757e-23)
(1.01444 0.00980826 1.47238e-21)
(1.01348 -0.00243306 7.90374e-22)
(1.01309 -0.00214483 -7.60708e-23)
(1.01344 -0.00180704 -4.18815e-22)
(1.01778 0.00600793 6.4835e-22)
(1.01702 0.00564161 3.86765e-22)
(1.01773 0.00540201 2.02929e-22)
(0.816598 0.0257219 -5.89392e-21)
(0.810292 0.00296817 3.32092e-21)
(0.81858 -0.0192087 2.82318e-21)
(0.992127 0.0403103 -2.45626e-21)
(0.998162 0.0413468 6.9088e-23)
(0.812566 0.0703228 -5.9076e-21)
(0.825505 0.0428871 3.19683e-21)
(1.02251 -0.00601875 0)
(1.02242 -0.00651962 -1.69689e-22)
(1.02196 -0.00598288 1.69838e-22)
(0.944592 -0.277364 1.21561e-21)
(1.01718 -0.000141574 -3.75744e-21)
(1.02187 0.00070876 1.30684e-22)
(1.02172 0.000638928 -4.08072e-23)
(1.0217 0.000694829 -3.94127e-23)
(1.01316 0.000696362 -1.06775e-22)
(1.01307 0.000620179 5.26056e-22)
(1.01319 0.000554165 1.23292e-21)
(1.03273 -0.0100654 -5.04659e-21)
(1.03296 -0.00969753 -1.24772e-21)
(1.03249 -0.0098836 2.0324e-21)
(0.99042 -0.340324 -1.6589e-21)
(0.98487 -0.384262 -1.86092e-21)
(1.03129 -0.37074 1.39782e-20)
(1.02905 -0.00524033 -2.9983e-22)
(1.02856 -0.00493118 -1.3557e-21)
(1.02853 -0.00542435 -1.0064e-21)
(1.01521 -0.00190699 -3.45933e-23)
(1.02983 0.00190785 0)
(0.61876 0.34462 -1.69914e-21)
(0.62029 0.38169 1.06946e-21)
(0.612087 0.339765 -7.38259e-21)
(1.01376 0.00153346 -5.48617e-22)
(1.01388 0.00172357 -1.23219e-21)
(0.967272 -0.0729882 -3.2037e-21)
(0.975397 -0.0847648 1.98692e-22)
(1.01316 0.000868415 -7.42559e-22)
(1.01326 0.000768758 -3.98111e-21)
(1.01474 -0.00122766 0)
(1.01457 -0.00117169 -9.68232e-23)
(1.01465 -0.00132632 1.04871e-22)
(1.01458 0.00807922 3.76049e-22)
(1.01501 0.00740291 7.4487e-22)
(1.02308 -0.00604115 -2.28157e-23)
(1.02259 -0.00551577 0)
(1.01347 0.000216757 5.07653e-23)
(1.0135 0.00018035 -1.31199e-23)
(1.01357 0.000238427 -4.886e-21)
(1.04549 0.214569 -2.13301e-22)
(1.0242 0.246108 3.06204e-21)
(0.909727 0.0437891 2.35805e-21)
(0.918733 0.0328477 -5.68655e-22)
(0.887074 0.315891 0)
(1.03247 -0.0102108 -3.53185e-21)
(1.0327 -0.0102332 -2.14518e-23)
(1.1704 -0.198895 -4.52262e-21)
(1.18217 -0.163218 -4.03231e-21)
(1.14251 -0.178721 8.79122e-22)
(1.013 0.000352598 0)
(1.01288 -7.33152e-05 0)
(1.01321 -1.4479e-05 0)
(1.05129 -0.0273698 -3.37988e-20)
(1.16145 -0.0811669 -4.05454e-20)
(1.01822 0.00073189 9.86357e-22)
(1.01793 0.000681094 7.20004e-22)
(1.01991 -0.000745665 -1.10948e-21)
(1.02014 -0.00102782 0)
(0.880146 -0.236247 1.18686e-22)
(0.861369 -0.219285 -5.14608e-22)
(0.886714 -0.204487 4.97013e-21)
(0.813544 0.181618 -7.25497e-23)
(0.838908 0.205173 0)
(1.01341 0.000235555 3.17081e-21)
(1.01345 0.000256803 1.02871e-22)
(1.01343 0.00017271 -1.54413e-21)
(1.01705 -0.000555789 -1.90606e-21)
(1.0173 -0.000494821 1.98142e-22)
(1.02334 0.00217811 4.76909e-24)
(1.02362 0.00232927 0)
(0.85742 0.0266303 0)
(1.0124 0.00185837 9.20001e-23)
(1.01265 0.0023757 1.06982e-21)
(1.01211 0.00234297 -8.06569e-22)
(0.991905 0.0299919 9.73455e-22)
(0.989115 0.0273364 0)
(1.02584 -0.0092238 -1.27888e-21)
(1.0253 -0.00950253 -2.97936e-21)
(1.02529 -0.00881168 8.68167e-22)
(1.0375 -0.00857514 2.85832e-21)
(1.03606 -0.00874948 -1.84711e-22)
(1.03674 -0.00738512 1.41579e-22)
(1.08039 0.195807 2.78364e-21)
(1.05942 0.178387 -2.18314e-22)
(0.942939 0.191265 1.78813e-21)
(0.94953 0.231812 0)
(1.0199 -0.00497757 0)
(1.02012 -0.00451104 -1.89122e-21)
(1.15701 -0.23342 -5.58906e-21)
(1.20671 -0.221933 2.29699e-21)
(1.01679 0.000297522 3.92235e-22)
(1.01782 0.000342543 -7.19617e-22)
(1.01381 -0.00366824 9.72078e-22)
(1.01408 -0.00432516 3.87729e-22)
(1.01432 -0.00380928 1.41698e-21)
(0.62377 0.288267 -1.5251e-20)
(0.642744 0.347356 -1.66759e-21)
(1.02319 0.00195474 1.34392e-23)
(1.02309 0.00203466 -4.68247e-24)
(0.795551 0.0605675 -8.13595e-21)
(0.788307 0.039406 -3.13202e-21)
(0.814213 -0.00328934 -5.41372e-22)
(1.10814 0.0116897 0)
(1.10683 -0.0023319 0)
(1.12428 0.00473263 0)
(1.01571 -0.000565842 0)
(1.0159 -0.000500173 0)
(1.01565 -0.000417927 3.50887e-22)
(1.02293 -0.00702442 -1.4635e-22)
(1.01342 0.000248717 0)
(1.01338 0.000190111 1.09292e-22)
(1.01259 -0.0273682 8.60062e-22)
(1.01578 -0.0292117 1.05013e-21)
(0.912757 -0.240821 1.03004e-21)
(0.998451 0.00655211 1.64923e-21)
(1.00038 0.00627569 1.35259e-22)
(1.01767 -0.00122738 -4.9825e-24)
(1.0174 -0.00116412 0)
(1.01761 -0.0010681 8.11943e-22)
(1.09563 0.0166819 -2.694e-21)
(1.10824 0.0255902 3.24753e-21)
(1.01474 -0.0071579 2.72504e-21)
(1.01303 -0.00373026 -5.53669e-21)
(1.017 -0.00408468 7.01779e-21)
(1.0224 0.000911155 -3.27381e-23)
(1.02263 0.000894472 -1.11463e-23)
(1.02204 0.000722569 1.2233e-22)
(1.02205 0.000582409 1.05228e-22)
(1.02957 -0.00513451 -9.25335e-22)
(1.02948 -0.00569096 2.05936e-21)
(1.01787 0.000580021 -3.43063e-22)
(1.01811 0.000641859 3.27194e-23)
(1.01769 0.000567597 -2.60004e-22)
(1.02202 -0.0260274 -4.59386e-22)
(1.02487 -0.0265444 -2.19643e-23)
(1.02371 -0.0238088 -2.4065e-22)
(0.805183 0.0758519 1.56476e-21)
(0.780575 0.128446 -1.93105e-21)
(1.01484 0.000527126 3.57921e-22)
(1.01463 0.000536947 -1.01319e-24)
(1.01474 0.00045161 -3.28366e-21)
(1.01706 0.00380485 0)
(1.01728 0.00428726 -1.19736e-21)
(1.01762 0.00394334 0)
(0.916803 0.0885734 2.10231e-21)
(0.90765 0.0832738 1.36105e-22)
(1.01186 -0.000960064 -1.45731e-21)
(1.01203 -0.000306708 3.06226e-22)
(1.01144 -0.000513248 -4.39117e-22)
(0.994713 0.0279158 4.12433e-22)
(0.99468 0.032131 3.315e-21)
(1.01039 0.00288398 -8.45663e-22)
(1.01003 0.00361145 1.2149e-21)
(1.01084 0.00359542 -3.8497e-22)
(1.01806 0.00328006 0)
(1.01821 0.00294214 0)
(1.01863 0.00333446 -2.60996e-22)
(0.975169 0.107573 6.94081e-22)
(0.949953 0.118927 8.12057e-22)
(1.01683 0.0033896 0)
(1.01708 0.00311768 0)
(1.01664 0.00300269 -2.14336e-21)
(1.01779 -0.00194526 2.49009e-22)
(1.0175 -0.00180839 5.08179e-22)
(1.01535 -0.000743488 1.31646e-21)
(1.01536 -0.000703053 -7.69246e-23)
(1.02816 -0.00310976 0)
(1.02949 -0.003735 -1.33065e-21)
(1.01811 -0.00211014 4.4589e-22)
(1.01241 -0.000150881 0)
(1.01073 2.78559e-05 0)
(1.01416 -0.00708731 1.45007e-21)
(1.01462 -0.00694488 -2.03436e-22)
(1.01455 -0.00752282 2.8869e-21)
(1.0306 -0.0112626 2.50426e-21)
(1.03039 -0.0107845 3.91508e-21)
(1.03001 -0.0111826 1.78454e-21)
(1.00989 0.011862 -1.45321e-22)
(1.01056 0.00574196 -2.17421e-21)
(1.02986 -0.0267647 3.16101e-21)
(1.02741 -0.0269014 -1.01048e-21)
(1.02857 -0.0247598 9.5756e-22)
(1.01756 0.00232942 -1.20252e-21)
(1.01728 0.00207488 -4.11578e-23)
(1.01767 0.00205816 -9.66829e-22)
(1.01167 -0.0208362 1.92798e-21)
(1.0103 -0.0197201 -1.21774e-21)
(1.01 -0.0217073 -1.27126e-21)
(1.01643 0.00533728 7.56049e-22)
(1.0164 0.00480405 -4.83581e-22)
(1.01583 0.00503288 1.68637e-21)
(1.03081 -0.0116733 8.6124e-22)
(1.0311 -0.0112087 -1.03397e-21)
(1.00724 0.0191823 0)
(1.00517 0.0188691 0)
(1.00672 0.0170293 1.37548e-21)
(1.01298 0.000972315 5.58671e-22)
(1.01267 0.00141687 1.39682e-21)
(1.0131 0.00145733 5.83153e-22)
(0.913012 -0.0542078 -7.42254e-24)
(0.912189 -0.0619247 4.13888e-22)
(0.892607 -0.0577229 -1.54059e-21)
(1.01654 0.0036167 1.12753e-21)
(1.01001 0.018727 1.07998e-20)
(1.01586 0.0145794 -5.59839e-21)
(1.01139 0.000250498 -3.54551e-22)
(1.01332 0.000169293 3.72331e-22)
(1.01203 0.000134661 5.97013e-22)
(1.03432 -0.0170183 1.00399e-21)
(1.03507 -0.018718 -3.19439e-22)
(1.02298 0.00142955 -2.53111e-23)
(1.02318 0.00158077 -3.21085e-23)
(1.02316 0.00142522 2.4756e-23)
(1.02281 0.00135676 -1.85554e-23)
(1.02281 0.00125696 2.38057e-23)
(1.03927 -0.00820773 -3.73278e-22)
(1.03798 -0.00972612 -3.91604e-22)
(0.843317 -0.201048 -1.516e-21)
(0.83724 -0.233882 -2.66575e-21)
(1.00399 -0.000942904 -1.84262e-21)
(1.00402 0.000361229 7.22949e-22)
(1.005 -0.000515083 -9.91073e-22)
(1.01282 0.000553755 0)
(1.0132 0.000593996 0)
(1.01672 0.00500988 -3.15801e-22)
(1.0163 0.00502516 0)
(1.01644 0.00463217 -8.02693e-22)
(1.02141 -0.0331231 -1.9073e-21)
(1.02279 -0.0309253 -4.34633e-22)
(1.0198 -0.0312848 -1.63504e-24)
(1.01607 -0.000437862 0)
(1.01626 -0.000383991 0)
(1.016 -0.000284479 2.16801e-22)
(0.935482 0.0420535 -4.79395e-23)
(0.939125 0.0389864 -1.24284e-22)
(0.922166 0.0398336 -1.0794e-21)
(0.933178 0.044674 8.1853e-23)
(0.948051 0.0436087 6.75811e-22)
(1.01337 0.000206121 -1.74166e-21)
(0.893601 0.0411144 2.61391e-21)
(0.896381 0.0570825 -6.67583e-21)
(1.01331 -8.44661e-05 -1.42154e-21)
(1.01323 -8.82289e-05 0)
(1.01331 -2.00879e-05 -1.89289e-22)
(1.03147 -0.028782 1.10406e-21)
(1.02715 -0.00391112 -2.10892e-23)
(1.02697 -0.00253522 0)
(1.02248 0.00108359 -1.67475e-23)
(1.02245 0.00101101 -6.56847e-23)
(1.02265 0.00112737 1.57886e-23)
(1.01138 -8.37423e-05 1.13265e-21)
(1.00884 -6.58867e-05 -6.32531e-22)
(1.01133 -3.06141e-05 -5.79467e-22)
(1.01476 -0.000142089 -2.51236e-22)
(1.01391 -5.91884e-05 -6.00379e-23)
(1.01558 -0.00064512 0)
(1.01577 -0.00070887 2.76497e-22)
(1.01362 -0.00721805 2.57204e-21)
(1.01379 -0.00663571 -2.6382e-21)
(1.03286 -0.0151164 -2.35838e-21)
(1.03203 -0.0144272 -2.63473e-22)
(1.03191 -0.0154465 3.48282e-22)
(1.01383 -0.000230148 6.2247e-22)
(1.01361 -0.000163317 -4.233e-22)
(1.01408 -0.000232173 2.59164e-22)
(1.01681 -0.000613522 -1.81196e-21)
(1.0171 -0.000740052 1.96454e-21)
(1.01507 0.000510919 4.05444e-22)
(0.988119 0.117475 -1.07653e-21)
(1.0018 0.0976208 5.89078e-22)
(1.0024 0.00237085 5.1081e-23)
(1.0017 0.00352673 1.47548e-21)
(1.00316 0.00356593 -9.71286e-22)
(1.00911 -0.000178182 3.96245e-22)
(1.01588 -9.31636e-05 1.5836e-23)
(1.01338 0.000112501 0)
(1.01467 -3.20769e-06 0)
(1.01337 -0.00552686 2.27021e-22)
(1.01289 -0.00624821 -1.05075e-21)
(1.02164 -0.00921789 -1.64264e-23)
(1.02138 -0.00982367 -2.463e-23)
(1.02093 -0.00926307 6.79167e-22)
(1.03392 -0.0157298 7.61636e-22)
(1.03379 -0.0144994 -3.37536e-21)
(1.0134 -0.000113677 9.53991e-22)
(1.0134 -0.000117688 -2.58656e-21)
(1.0134 -0.000123932 2.76899e-21)
(0.751749 -0.403253 9.06216e-21)
(0.779115 -0.404883 -1.95888e-20)
(0.759872 -0.376728 -2.01654e-20)
(1.01795 -0.00128645 -6.19215e-23)
(0.771924 0.0462747 8.71942e-23)
(0.76231 0.0106605 2.15005e-21)
(0.786255 0.0265805 3.05754e-22)
(0.899501 0.0962134 3.09769e-21)
(0.87661 0.133304 8.91029e-21)
(0.861155 0.105011 -9.08211e-21)
(1.0091 1.1373e-05 -2.82872e-22)
(1.01126 3.83123e-05 3.23398e-23)
(1.01133 -2.15851e-05 -4.18658e-22)
(1.01207 -0.00013528 1.21336e-21)
(1.01286 -0.000189353 8.42227e-22)
(1.01359 -0.000563307 -1.66109e-22)
(1.01381 -0.000843181 -3.52003e-22)
(1.01355 -0.000981175 -9.7796e-23)
(1.0199 -0.0354701 -2.01345e-21)
(1.02334 -0.0349959 -1.87364e-21)
(1.02684 -0.0198113 1.20717e-21)
(1.02767 -0.0188959 -2.84657e-22)
(1.02636 -0.0186635 -3.7161e-21)
(1.02619 -0.00451126 4.58902e-22)
(1.02525 -0.00389673 7.06767e-22)
(1.02523 -0.00494195 -2.05174e-23)
(0.78268 0.0760154 -1.75783e-22)
(0.75524 0.0648108 -4.10303e-21)
(1.0128 -0.000150539 -4.0537e-22)
(1.01244 -0.000210489 -7.39011e-22)
(1.01293 -1.66398e-05 2.08099e-21)
(1.01338 -0.000203148 1.68362e-22)
(1.01363 -0.000107191 4.28039e-22)
(1.02603 -0.0208576 2.27258e-21)
(1.02755 -0.0211767 6.36292e-22)
(1.01118 -0.00685265 -1.58613e-22)
(1.01161 -0.00746271 -2.55898e-21)
(1.01083 -0.0074951 2.44758e-21)
(1.01565 -0.00519494 -4.62871e-22)
(1.0155 -0.00482529 3.02867e-21)
(1.01594 -0.00498818 6.0818e-21)
(1.01142 0.000711994 -7.70612e-22)
(1.01108 5.82838e-05 -6.68808e-22)
(1.01015 -0.0258764 -5.19276e-23)
(1.0207 0.00169285 -2.28233e-22)
(1.02134 0.00189478 0)
(1.02115 0.00128742 -8.44943e-22)
(1.02366 -0.02896 3.88935e-21)
(1.0222 -0.0274547 4.45971e-22)
(1.02454 -0.0270793 3.38718e-21)
(1.02633 -0.00952567 0)
(1.02631 -0.00889512 0)
(1.01866 0.00104004 -2.07061e-22)
(1.01912 0.00116715 3.91895e-23)
(1.01897 0.000793399 9.23739e-23)
(0.995885 0.0321284 1.03844e-21)
(1.07156 -0.293016 0)
(1.09638 -0.267732 0)
(1.05593 -0.268358 -7.50659e-22)
(1.01109 0.0267438 -2.42384e-22)
(1.00944 0.022658 -1.25345e-23)
(1.02321 0.00178675 5.95894e-23)
(1.02302 0.00171 3.01201e-23)
(0.965867 -0.320753 0)
(1.00161 -0.314134 3.05261e-22)
(1.02113 -0.0104567 1.39101e-21)
(1.02082 -0.011117 3.33509e-22)
(1.02035 -0.0104895 3.47433e-21)
(0.672433 0.358468 -1.50306e-20)
(0.668392 0.38089 1.68028e-20)
(1.08291 0.0192913 -6.71334e-21)
(1.08129 0.0299096 -3.51693e-21)
(1.01664 0.00697268 0)
(1.01682 0.0064177 -1.61834e-22)
(1.01724 0.00690615 1.04317e-21)
(1.03303 -0.00621778 0)
(1.03353 -0.00677042 0)
(1.08419 0.00824935 -5.60173e-21)
(1.01271 -0.00243936 -3.29925e-22)
(1.01275 -0.00320467 8.65749e-22)
(0.997385 0.0260221 -7.60711e-23)
(0.994814 0.0240378 -8.95305e-22)
(0.991024 -0.00664938 0)
(0.994392 -0.011881 0)
(0.987394 -0.0114884 -8.06676e-22)
(1.01521 -0.000657659 -6.4316e-22)
(1.01511 -0.000578894 -1.22846e-21)
(1.01508 -0.000573074 -8.30435e-22)
(1.01194 6.37423e-05 -7.31374e-22)
(1.01318 -0.000118595 3.45119e-22)
(1.01961 -0.000549937 -1.05041e-21)
(1.01949 -0.000777191 4.594e-23)
(1.01352 4.64502e-05 -3.5094e-23)
(1.01358 3.43242e-05 3.45317e-22)
(1.01218 3.52523e-05 -6.74592e-22)
(1.01826 0.00489695 4.71221e-22)
(1.01771 0.00462574 -8.78974e-23)
(1.18169 -0.129764 -1.37558e-21)
(1.15039 -0.124534 0)
(1.17525 -0.104314 0)
(1.01317 0.00103496 2.23599e-21)
(1.01304 0.000977327 1.48384e-21)
(1.01825 0.000915951 -1.77743e-21)
(1.01837 0.00123111 -8.43326e-22)
(0.714419 -0.382818 1.51842e-20)
(1.01178 -0.00167504 -7.23982e-22)
(1.0123 -0.0013498 9.23995e-23)
(1.0123 0.00818247 1.25398e-21)
(1.01299 0.00754712 -8.12017e-24)
(1.0234 0.00178212 -3.14597e-23)
(1.01672 -0.012994 -1.89203e-21)
(1.01721 -0.0138385 -6.88813e-21)
(1.01765 -0.013048 -2.95624e-21)
(1.0153 -0.000763064 7.3198e-22)
(1.21873 -0.146317 -7.97235e-21)
(1.02184 -0.00865561 -2.25689e-22)
(1.02205 -0.00808026 2.75287e-21)
(1.0214 -0.00810387 1.5699e-22)
(1.0158 -0.0019843 0)
(1.01582 -0.00217369 0)
(1.0156 -0.00207752 0)
(1.01198 -0.00515248 -2.14538e-21)
(1.01177 -0.00566066 2.46397e-22)
(1.01139 -0.00508409 -3.43394e-21)
(1.01117 -0.00201935 1.08991e-21)
(0.868412 -0.0596626 -1.04721e-21)
(0.8772 -0.0719955 7.78155e-22)
(0.891158 -0.0504122 4.99142e-22)
(1.01946 -0.00382457 2.04331e-21)
(1.01898 -0.0039039 2.4395e-22)
(0.974838 -0.032702 1.70627e-21)
(0.977946 -0.0291398 5.28318e-22)
(0.972961 -0.0278388 -3.15428e-21)
(1.02201 0.000802124 9.81775e-23)
(1.02886 -0.00295438 0)
(1.02902 -0.00472657 1.92652e-21)
(1.03059 -0.00337713 1.16958e-21)
(1.05798 0.300001 3.17795e-21)
(1.00478 0.333616 -1.25076e-20)
(0.955029 -0.072722 6.8527e-21)
(0.962461 -0.0620769 0)
(1.02853 -0.000663517 0)
(1.02644 -0.00253417 0)
(1.01637 -0.0119244 1.35434e-21)
(1.01576 -0.0126127 4.64326e-21)
(1.01347 -0.00901355 5.47328e-22)
(1.01378 -0.00796812 -1.38163e-21)
(1.01285 -0.00803409 -6.59178e-22)
(1.1248 -0.253274 0)
(1.15879 -0.284636 0)
(1.01153 -0.000233347 -5.81366e-22)
(1.01311 -5.42642e-05 -2.44639e-22)
(0.914291 -0.0517234 2.97657e-23)
(0.93272 -0.0511543 2.00411e-22)
(1.01195 0.000719924 3.71431e-22)
(1.01177 0.00126682 4.62429e-24)
(1.0173 0.000503598 -5.56652e-22)
(1.01802 0.000588017 -3.42455e-22)
(0.924096 0.0609691 5.10444e-21)
(0.940559 0.0876149 -5.92178e-22)
(0.999656 0.0239852 3.00585e-22)
(0.999929 0.0274508 -1.34702e-21)
(1.04192 -0.313894 0)
(1.09052 -0.328369 0)
(1.01576 -0.00178997 2.94389e-21)
(1.01598 -0.00189594 2.24006e-21)
(1.0192 -0.0250026 -2.27861e-21)
(1.0205 -0.0286385 4.54687e-22)
(0.824372 -0.0278766 -6.27994e-21)
(0.790105 -0.0242811 -2.47956e-21)
(1.03119 0.0203729 1.11041e-21)
(1.03416 0.0204249 2.08851e-21)
(1.03216 0.0178768 6.89682e-22)
(1.01382 0.00139463 -1.72813e-21)
(1.01396 0.00140297 -1.15782e-21)
(1.01386 0.00125847 5.029e-23)
(0.964286 0.138797 -7.62334e-23)
(1.03246 -0.0104931 -3.74087e-21)
(1.03256 -0.0104357 2.32069e-21)
(1.03235 -0.0103219 6.19372e-22)