/*--------------------------------*- C++ -*----------------------------------*\
| =========                 |                                                 |
| \\      /  F ield         | OpenFOAM: The Open Source CFD Toolbox           |
|  \\    /   O peration     | Version:  v2012                                 |
|   \\  /    A nd           | Website:  www.openfoam.com                      |
|    \\/     M anipulation  |                                                 |
\*---------------------------------------------------------------------------*/
FoamFile
{
    version     2.0;
    format      ascii;
    class       surfaceScalarField;
    location    "50";
    object      meshPhi;
}
// * * * * * * * * * * * * * * * * * * * * * * * * * * * * * * * * * * * * * //

dimensions      [0 3 -1 0 0 0 0];
oriented        oriented;


internalField   nonuniform List<scalar> 
14516
(
-0.00108046
-0.00324494
0.00430892
-1.83427e-06
-7.05569e-05
7.11112e-05
0.0036258
-0.00472447
0.00130485
-0.00178392
0.000298693
0.00651164
-0.00455207
-0.00196856
-0.00536749
0.000669259
0.00464541
0.000382257
-3.41176e-05
-0.00051288
-0.0032298
0.00284039
0.000284706
0.00474432
0.000471276
-0.00526817
0.00269792
0.00380318
0.00381648
-0.0047769
0.00094914
0.00463125
-0.000344515
-0.00429962
0.00130396
-0.000216973
-5.98688e-05
-0.000922163
0.000963016
-8.5689e-05
-5.97765e-05
-0.000897183
-1.93456e-05
0.000895309
-0.00321473
0.00108613
0.00208718
-0.0011188
-0.00214206
0.00556472
-0.000558431
-0.00501745
-0.000976694
-0.000424259
-0.00483407
0.00524323
0.000532002
-0.00444687
0.00389374
0.00226714
-0.000768929
-0.0015083
-2.58815e-05
2.58815e-05
0.00467198
-0.000633825
-0.00409719
0.000828915
0.000251722
0.000838049
7.20451e-06
-0.000866091
-7.10565e-05
-0.00225887
0.00228469
-0.00546444
0.00182693
0.00362143
0.00506668
-0.000377689
0.00461206
-0.00551433
0.000874374
0.000441777
0.00180578
0.00344058
-0.000726705
-0.00272564
-7.82114e-05
-7.49413e-05
0.000100585
0.00201573
-0.00619734
0.00416735
0.00556726
-0.000620572
-0.00496076
5.303e-06
0.000248112
-0.00400321
0.00451323
0.00373144
-0.00286428
-0.000959879
-6.51606e-05
0.00032876
-0.000330894
0.00589806
-0.00131931
-0.000289024
5.99508e-05
0.000503834
-0.000870405
0.000159592
-4.37096e-05
0.000374584
-0.000481871
0.000503875
-0.000256554
-0.000220775
-0.00345981
0.000136695
-0.0014679
0.00132053
-0.000689284
-0.00454979
0.00522731
-0.000482531
-0.00145989
-0.00284874
-0.00336272
7.33017e-05
-0.00386548
0.00378259
0.00540675
-0.00129833
-0.0041462
-0.00560322
0.00575979
-0.000222736
0.000557075
-0.00349888
0.00293491
0.00527619
-0.0054515
0.000161358
-0.00373268
0.00392084
-0.00448303
0.00114751
0.00332875
0.00462381
0.000163763
-0.0047987
0.00246904
0.00119934
5.91772e-06
0.000170469
-0.000243403
0.00513115
-0.00081888
-0.00434865
0.00433928
-0.00495749
0.000607923
0.000517927
-0.00129073
0.000460028
0.00360925
0.00192162
-0.000421348
-0.00312165
0.00352899
0.0054172
-0.00109252
-0.00470115
0.00522821
-0.000539734
0.000622781
0.00399338
-0.000304639
0.00410988
-0.0034942
0.00404356
7.24049e-06
9.2833e-14
-8.35772e-06
0.00466204
-0.000854778
-0.00389242
-0.000133708
0.000114923
1.81222e-05
0.00130312
-0.00416594
-0.000100119
0.00471174
-0.000526172
-0.00394932
0.00436713
6.39342e-05
-3.74239e-09
-6.42085e-05
-0.00288009
0.000700704
0.00214806
-0.00346551
0.00107362
0.0023414
-0.00289975
0.00246585
-0.0032462
0.000747865
0.00245484
7.80772e-05
6.83624e-07
-7.8896e-05
-1.79891e-05
-0.00146986
0.00147159
0.00541879
0.000444745
0.000106826
-0.00143077
0.00131115
-0.0024402
-0.00106863
9.65716e-06
-0.00423382
0.00412673
-0.00462923
0.00478938
-0.000210955
0.0035197
-0.000804564
-0.00276237
-0.000103388
0.000100414
-0.000482976
-0.00412641
0.00460393
0.0014117
-0.00114986
-0.000292905
0.00226897
-0.00184557
0.000463372
-0.00152731
0.00149309
0.00538028
-0.000115506
7.20748e-05
4.71625e-06
0.000401069
0.000977665
0.000215449
-0.000955393
0.00070941
-0.00081264
0.000994367
0.00350157
-0.000637455
-0.00291486
0.00156801
-0.000334694
-0.00128052
0.00118749
0.000331142
5.74184e-05
3.22798e-06
0.00578236
-0.000395606
0.00551362
-0.000764853
0.000231329
-3.93011e-06
-0.000311791
0.00447622
0.000881425
-0.000249195
-0.00114204
0.00138438
3.00565e-08
4.76679e-06
0.000194332
0.00492526
-0.0051307
0.0049029
-0.0040975
-0.00126387
0.00626401
-0.0050157
0.00371997
-0.00365594
-0.00436444
0.000487443
-0.003028
0.00252882
-0.00279507
0.00408381
-0.000572624
-0.00271656
0.00188003
0.000365183
0.000985314
-0.00124023
-3.515e-06
7.27543e-07
9.13282e-07
0.00409619
-0.00435578
0.000136903
-0.000185992
-0.00522473
-0.000230014
-0.00426992
0.00446161
-0.00521663
0.0047773
-0.00409969
0.000974043
0.00311439
0.00143904
-0.00134472
-0.000464304
-0.00244891
-0.00488
0.00120137
0.00356865
1.81203e-06
8.37674e-06
-1.58057e-05
-0.00403177
-0.00242574
-0.00253323
-0.000356115
-0.00314472
0.00345544
0.00395001
0.00105431
0.000178654
-0.00438274
0.00411115
0.000598214
-0.000379391
0.000323289
-0.000513747
0.000496271
0.00420902
0.00018136
-0.000201463
-2.86393e-06
2.42693e-05
0.00395894
0.0047575
-0.000467314
-0.00435051
4.16418e-05
-0.000904414
0.000692806
-0.000205112
0.000911011
-0.000729516
-0.000979506
3.82866e-05
7.33726e-05
0.000954913
-0.00104752
1.27569e-06
2.07562e-05
-2.42757e-05
0.000874388
-0.00110697
0.00168315
-0.000484899
-0.00124002
0.00365537
-0.00414321
0.00395542
0.000907215
-0.0048696
-1.87729e-05
1.45761e-05
0.00511621
-0.00116919
-0.00198768
0.00467491
0.000446926
0.00119178
-2.9557e-06
-2.04435e-06
-7.97933e-06
7.22005e-05
-8.67125e-05
0.000644164
0.00405484
-0.000233084
0.00107261
-0.000744662
0.000642075
-0.00238999
-0.0009228
0.00193419
-0.0020458
5.8147e-05
0.000762512
-0.000839694
-0.00106132
0.00646863
-0.00541921
-0.000101392
3.21619e-05
6.88394e-05
-0.00577742
0.000921327
-0.00130415
-0.00514906
0.00471367
0.00041365
0.000877269
-5.86448e-05
0.000546005
-0.00343073
0.0028316
-0.00612654
0.00175345
0.00428786
0.00208837
-0.00414091
0.00204903
-7.32684e-05
-3.18051e-05
-0.00162878
0.00370885
-0.000476855
-0.00381616
0.00425365
0.00449357
-0.0041461
-5.44442e-05
4.30767e-05
7.9978e-06
0.000797269
-0.00383012
0.00294685
0.00572371
-0.00262185
-0.00311443
0.00410732
-0.00309337
-0.00101689
-0.00496759
0.00460074
0.000341841
-0.00107872
0.00414702
0.00456868
9.6984e-05
-0.00467674
0.00455541
2.86756e-06
-0.000985022
-0.00350537
-0.00281792
0.00353229
-9.88772e-05
0.00416649
-0.00418689
-0.000786284
0.000825952
-0.00447364
0.00395526
0.00255723
-3.89725e-05
-0.00267809
0.00459422
-0.00529535
-0.00487064
0.00505399
0.000707628
0.00139577
0.00431311
-0.00660339
0.00165713
0.00493258
-0.000306123
-0.00275188
0.00300678
-0.00514207
0.00314412
1.29473e-05
0.000149255
0.00464549
-0.000747712
-0.00199842
-0.00369594
0.00568309
-9.23078e-06
-0.00545702
-0.00415195
0.00314083
0.000908295
-0.0003058
-0.00416216
5.50045e-05
1.022e-06
-0.000224072
3.20663e-05
0.000840975
-0.000894724
0.0052013
0.000553743
-0.00454599
-0.000108157
0.00463185
0.000243295
0.00377453
-0.00403427
-0.000331423
0.00491287
0.000517092
-0.00508191
-0.00417917
-0.00146766
-0.00295421
-0.00365938
6.21312e-05
-9.31511e-05
-0.000430801
-0.00291063
0.00329504
-0.000267495
0.00482668
5.67463e-05
-3.58892e-06
0.00502012
-0.00476141
-0.000271214
-0.000276789
0.00433871
-0.00408293
-0.00172036
-0.00337433
0.00498608
-0.00408092
8.92574e-06
0.00232929
-5.81251e-05
-0.0014258
0.00446177
-0.0048501
0.00546482
-0.00154692
0.00111934
0.000385657
0.00358091
-0.00387628
0.000401996
-0.00386471
0.00345398
-1.29486e-05
-1.4936e-05
9.2345e-06
1.54679e-05
-0.00129102
-0.0037005
7.42058e-05
-0.000158167
6.30097e-05
-0.00430317
0.000832257
0.00346194
0.00458279
0.000427096
-0.00396521
0.00376035
3.99525e-05
0.00439442
-0.0043795
-0.000105341
0.000166648
0.00520163
0.000775214
0.0026249
-0.00345397
0.00559154
-0.000415366
5.69817e-05
-0.000964243
0.000887139
2.61967e-05
0.00393207
-0.00405029
0.00316148
0.000269054
-0.004133
-8.44096e-06
0.00404965
-0.00153725
0.00101459
6.52643e-06
0.00274052
0.00480125
-0.00421984
-0.00117283
-0.000185979
6.46905e-05
0.000574482
0.0035592
-0.00417114
-0.0051
0.000593607
0.0044866
-0.000325259
0.00403543
0.000641287
-0.00400339
0.00335293
-0.00364491
0.00391678
-0.000370457
-0.000209198
0.0046552
-0.00447115
-0.0055948
0.00462039
0.000888025
-0.00140779
-0.00370884
-0.000346532
-0.00463632
0.00493276
-0.000154875
-0.000846637
0.000977814
0.0010069
0.00032698
-0.00133536
0.000178265
-0.00387579
0.00354124
7.77083e-05
-0.000102301
-5.31656e-06
-0.00115883
-0.0040109
3.50458e-05
-3.99406e-05
4.28715e-06
-5.04581e-06
3.96918e-05
-0.00353952
0.00376732
0.00187947
-0.00558591
-0.00456992
-0.000981326
0.00548571
-0.000822957
0.000649032
-8.38042e-05
-0.000643391
0.000701655
-0.00588463
0.00161059
0.0042505
-0.000599032
-0.00388101
0.00438319
6.79417e-05
4.56745e-05
-0.000113861
-2.84183e-05
9.6151e-05
-0.00303528
0.000223874
-0.00510523
-7.70711e-05
0.00114324
-0.00131613
-0.00346801
0.000366608
0.00436972
-1.68523e-05
5.31113e-05
-3.71191e-05
-0.000171017
0.000195104
-0.000118855
-0.00037182
0.000242095
0.00210545
-0.00391043
-0.00382857
0.00436243
-0.00613665
0.00258984
0.00352728
3.17706e-05
0.000645747
-0.000841473
0.00403912
-0.00442983
-0.00363262
-0.0021682
0.00264661
0.000697745
-0.00531846
0.00455771
0.00024825
-2.38707e-05
1.6985e-05
-1.52436e-06
0.00299513
-0.00339648
0.000312889
-0.00475151
0.00440401
-0.00287893
-0.00327476
0.00149023
-0.0017716
5.99353e-05
-0.00367705
-0.00184936
0.00551637
-0.00113918
-0.00165027
-0.00202985
0.00368287
0.00271741
0.000197855
-0.00291176
0.000188336
-3.46835e-05
0.000281633
-1.29698e-05
-0.00038308
0.000290186
0.000582982
-0.0008923
-0.00190929
-0.00399665
-0.00268578
-0.00150892
0.00417679
-0.00389173
0.00378185
5.63783e-05
0.00133591
-0.00298556
-1.74771e-05
0.000664512
-0.000923799
-0.00059297
0.000863645
0.00134395
-0.00404768
0.00475489
-0.000229602
-0.00456746
-0.00530142
0.00423126
0.00102286
0.00294498
0.000520439
0.00136682
0.00422536
-0.00392243
-0.000372465
-0.00533685
0.00453803
0.000775172
-0.00505336
0.000486498
0.00371685
-0.00351635
-0.000276925
-0.000101861
-0.00684666
0.00308052
0.00375668
-3.13511e-06
0.000116491
3.21132e-05
2.26923e-05
0.00159981
0.00250448
0.000476504
-0.00489081
0.00438285
-0.00459252
0.00474546
0.000926249
-0.00373736
-0.000683092
0.000761532
-9.84105e-05
0.00417794
-0.00364513
0.00448792
0.00310261
0.000347294
0.00512037
0.000443929
0.000641952
0.0023128
-0.00296242
-0.00290065
0.00240067
0.000415068
0.00054115
-0.000553654
0.00319676
0.00138125
-7.89892e-05
-0.000101892
0.000139195
-0.00257104
0.000265627
-0.00590786
0.00361344
0.00227896
0.00118994
-0.00408706
0.00341681
0.00022265
0.0021548
-0.00263414
0.00335763
-0.000839043
0.000799684
-9.14166e-06
0.00433593
-0.00502125
0.00065809
-0.00299353
-0.00426217
-0.00456883
0.000150587
0.00437881
0.00349005
-0.0044813
0.000921659
0.00482107
-0.00482616
-4.58358e-05
-0.00332064
-0.00452877
0.000938541
0.00358676
0.00127683
0.00441715
-0.00498842
0.00524126
-0.000276954
-4.65564e-05
-0.00510208
0.00220403
0.00288373
0.000425021
-0.0039273
-0.00414832
0.00315701
-0.00238658
-0.00272988
0.00511836
-0.000816907
-0.00265862
0.00355922
-0.000947659
0.00203114
-0.00499448
0.000141091
-0.000189897
-0.000413794
0.00141786
0.00338116
-0.000486433
0.000102724
-4.84116e-05
-0.000209523
0.00292949
0.00545101
-0.000360577
-0.00319944
-0.00365609
0.00417176
-0.000750265
-0.00108276
-0.00322922
0.00357557
-0.00420732
0.000209825
-0.00444096
0.00419128
-0.00380593
-0.000245933
0.00395615
-0.00290433
-0.00452725
0.00059971
0.00391163
6.77882e-05
0.00401241
-0.00424412
-0.00559174
0.00103128
0.00450525
0.000246396
0.00447767
-0.000204768
0.00147608
0.00054949
-0.00500228
0.00442518
-4.42452e-05
-3.56037e-05
4.90725e-05
0.000253779
1.90139e-05
-0.000851819
-0.00437965
-0.000552767
0.00454176
-0.00190355
-0.00263175
0.00272407
-0.00440715
0.00165089
0.000267677
0.0037414
5.25566e-05
0.00150876
-0.00157094
0.00510206
0.00374067
-0.00334697
-6.32935e-05
5.87187e-05
5.37411e-06
1.45425e-05
0.000276546
-0.000357253
0.00406764
-0.000925366
-0.00422625
0.00442504
-0.000205146
-0.00144349
0.00148662
0.000949725
-0.000912298
-0.000589783
0.00429039
-0.00373413
-0.00273051
-0.00221507
0.00493988
0.00059989
-0.000709305
-0.00557354
0.00429589
-0.00444043
-2.58723e-05
-0.00457865
-6.3581e-05
0.000638162
0.00389685
0.000202291
-0.00411846
-0.00220338
0.00332772
-0.0012063
-0.00333291
-0.00500385
-0.000834808
-0.00164371
0.000864993
0.00032375
0.0037782
-0.00414275
-0.00428926
-0.00402006
0.00430189
0.000584658
0.00274217
0.000897624
-0.00096735
0.00102243
-0.00457805
0.00530563
-0.000740211
0.00091678
-0.00121356
-0.00174224
-0.00360533
-0.00323328
-0.0053429
0.0048407
0.000448334
-0.00490853
0.00451265
-0.00430517
0.000810034
-6.71243e-05
0.00112909
-0.00376419
0.000506028
-0.00110536
0.000426873
-0.00586792
0.00407133
-0.000502152
-4.41549e-05
0.000525972
-0.000989583
0.00203287
-0.00105312
-4.3091e-05
0.000939952
-0.00193802
-0.00273375
0.00323062
0.000272966
-0.00475739
0.00447041
3.37786e-05
0.00034064
-0.000383033
-0.000199417
0.000224997
-0.000154359
-0.00140958
0.00410215
-0.00461957
0.00450733
0.00268697
-0.00304531
0.00418362
-0.00376744
7.10979e-05
-0.00358905
-0.00259447
-0.00436793
-0.00626153
0.00352522
-0.00388503
-0.00165061
0.00434439
-0.000452504
-0.00389787
-0.00482231
0.00447803
-0.00619306
0.00409398
-0.00221476
-0.0020378
0.00302917
-0.00528588
0.00223614
-0.00334073
0.00445427
-0.000156971
0.00403371
1.91815e-07
-0.00227146
0.00264313
-0.000379085
0.000615738
-0.000884175
0.00411363
-0.0037487
-0.000410309
-0.00429211
0.00320065
-0.0047167
0.000241827
0.00233994
-0.00318635
0.00408548
-0.00430388
-0.00173933
0.00135167
0.000147883
-4.19658e-05
1.19367e-05
0.00514042
-0.00516871
-0.00487279
0.00365383
-0.00476188
0.00448495
-0.00132433
-0.000463229
-0.00586733
0.00393496
-7.74909e-07
4.17612e-05
-0.000209348
8.1731e-05
-5.76428e-06
3.38549e-05
-4.20617e-05
0.00304839
0.0053298
-0.00231903
-0.00320935
0.000378606
0.00368839
5.80459e-05
0.000544585
-0.000625863
-0.00106359
-0.000487452
0.000505574
-0.00478641
0.00423965
0.00149717
-0.000517299
-0.000743501
0.00062316
0.00175084
0.00216977
-0.00274545
0.00294685
0.00491368
0.000497023
-0.00415636
-0.00408136
-0.000886985
-0.00456322
3.53307e-05
-0.00010775
-1.22535e-05
6.16189e-05
-0.00435441
-0.00067109
-0.00444561
-0.0029263
-0.00299002
0.000470069
-0.000363925
-0.000346461
0.000715159
-0.000807122
-0.000149409
-0.00315867
0.00035346
-0.00391103
-0.00400744
0.00027081
2.07562e-05
-0.000323732
-0.00356258
7.82055e-05
-1.90776e-05
-7.84771e-05
-0.00453335
0.00601392
-0.00316041
-0.00286986
-0.000311855
0.00115492
-0.00087243
-0.0049655
0.00559683
-0.00250928
0.00317434
0.00515525
-0.000241192
-0.00357999
8.55107e-06
0.00451491
-0.00453051
0.000107643
0.00389737
-0.00396041
-0.00346764
-0.000406175
0.00397061
7.81985e-05
-0.00462456
0.00384
0.000770942
-0.00284654
0.00263933
-0.00374646
0.000835472
-0.00117756
0.00385239
0.00526907
-0.000398961
0.00165716
0.000351023
-0.00206708
0.00407806
0.000119804
-0.00425465
-0.00340958
0.00314844
0.00392586
-0.0016246
-0.00236658
0.00192478
-0.000327637
0.00197537
-0.0006274
-0.00153924
0.000829918
0.0030104
2.76429e-05
-0.0031795
0.00248148
0.0035143
-0.000899225
0.00402162
-5.08686e-07
0.00401606
-0.00381543
-0.000268418
-0.00466537
0.00481361
-0.000204923
-1.65914e-06
-2.87445e-05
0.00107323
0.000696151
-0.00492335
-0.000424708
0.00533112
-0.00350212
-0.000653379
6.17445e-05
-0.000731535
0.00346854
-0.00359442
9.38707e-05
0.000210544
-0.00444258
0.00472892
-0.00465118
-0.000139744
-0.000187425
-0.00120076
0.00137335
0.000835769
-0.00585038
-2.76081e-05
-0.00247224
-0.00452063
-0.00406056
-0.00386538
0.00352298
4.39006e-05
-6.13828e-05
0.00623811
-0.0021508
0.00472182
-0.00442097
-0.000341443
0.00475991
0.000648505
-0.000168457
-0.00129464
0.00234793
0.000155869
-1.44578e-05
-0.000142335
-0.00374718
0.00105418
0.000552936
-0.00464935
0.000255817
-0.00315971
0.000688746
0.00400253
-0.00469567
-0.00196158
-0.00267314
0.00443656
-0.004435
-0.00424701
0.00406886
-0.000220925
4.85304e-05
-0.00392945
0.00351939
0.000398337
0.00372825
-0.000290494
-0.00139199
6.86972e-05
0.00132253
-0.00479292
0.00427231
0.000465479
0.00437516
0.000355227
-0.00474283
6.02011e-05
-0.000486445
0.000411417
-0.00118922
0.00140124
-0.00022092
9.45543e-05
-0.000344156
-0.000374555
0.00042274
-0.0038713
0.000695988
0.00317148
-4.98592e-05
0.000495519
-0.000462222
0.000110306
-0.000135662
-3.43427e-06
-0.0041441
0.00403901
8.13335e-05
-0.00289079
-0.00210533
0.00497493
-0.00348811
-0.00358121
0.00266193
-0.00392048
5.70687e-05
0.00374863
0.00437785
0.000292365
0.00455278
-0.00023507
0.00424303
-0.0048113
0.00200451
-0.0011761
-0.000955596
-0.00266054
0.000382882
0.00589221
-0.00361424
-0.00228294
0.00137794
0.000193621
-0.0002689
-0.00334018
-0.00254434
0.00371086
-0.00433476
0.00399554
-0.00445757
-0.000647404
0.00505647
-0.00419875
0.00436961
0.00230133
-0.00447056
-0.00539422
0.00397239
-0.00467799
0.00176817
-0.00154428
0.00161651
-0.000147995
-0.0031233
0.00462876
0.000451219
-0.00543425
0.00400734
0.00459782
0.0001119
-0.00300998
-0.00202359
0.00462499
-0.000637481
-0.00399195
-0.000409797
0.00396641
-0.00361897
-0.00527137
0.000682004
0.00380433
-0.00452747
0.000707157
0.000289082
-0.0004502
3.09805e-05
-0.00406512
-1.23233e-05
-0.00224721
0.00219059
-0.00309538
-0.000287186
0.00333301
0.000399027
-0.00354818
0.00380093
-0.000932529
-0.00066482
0.00157294
-1.26759e-05
1.26759e-05
0.000341686
-0.00177595
0.000818228
-0.000414704
-0.00186891
0.00210006
0.00485077
5.3973e-05
-0.00493287
0.000221412
-3.43681e-05
-0.000205012
-0.00411528
0.00371759
-0.000116444
0.000115848
-5.76642e-05
-0.00436578
-0.000193598
0.00501359
-0.00253879
-0.00287299
-0.000656983
-0.00328441
0.000200414
-1.67051e-05
0.00335946
0.000443724
-0.00389134
-0.00391734
0.00383817
-0.00192097
0.00163912
0.000210391
-0.000423537
-5.02699e-05
0.000461663
2.98742e-07
6.1155e-05
5.05964e-05
-0.000487485
0.00358753
-0.000244196
0.00274781
-0.00320611
0.000430694
-0.000497456
-0.00365614
0.00390561
-0.000266026
-0.000301042
0.000256136
-0.00028205
-0.000114971
-0.00400649
0.00377061
0.000156183
-0.000388938
0.00474896
-0.0027874
0.000672404
0.00198209
-0.000626212
0.000538155
0.00428501
-0.00334469
9.67696e-05
-5.45889e-05
0.00505792
-0.0041611
-0.000942971
-0.00104798
-0.00282672
0.00297527
-0.00365453
0.000433112
-0.000334458
-0.000305898
-4.96768e-05
3.01231e-05
-0.00183681
0.00298003
0.00216035
-0.00223888
-0.000985761
-0.00331528
0.00429384
0.000237644
0.00253974
-0.00259015
-0.000702356
0.00327479
0.00421688
0.000790606
0.00283842
0.000968969
-0.00388713
-0.00235425
0.00264464
-0.000300613
0.000462748
-0.00189048
0.00140131
-0.000584672
5.84983e-05
-6.31919e-05
-5.71702e-07
-0.00441451
0.00431129
-0.00410056
-0.000216756
-5.68253e-05
-0.000219845
-0.00319629
-0.00125169
0.00379818
-0.00501952
0.00181329
-0.00242657
-0.000211106
0.00343044
-0.00323326
0.00136442
-0.00011001
-0.00127217
-0.00400229
0.00366783
0.00367088
-0.000403582
-0.00581882
0.00253267
0.00326369
0.00496649
-0.000378696
0.00334482
0.00110344
-0.000249162
0.00141951
-7.23735e-05
-0.00344618
0.00355856
-0.000124985
0.000281602
0.00322686
0.000582641
0.00329011
0.00299536
-0.00326561
0.000266701
-0.00398757
0.00364658
0.00117199
-0.00137422
-0.00107035
0.00151154
-0.00258959
-0.000192949
0.00277824
-0.00014341
0.00129995
0.00264757
-0.00289184
0.000231221
8.84971e-05
-0.00111307
0.00101881
-0.000862281
-0.00179213
0.00261833
0.00415326
-0.00441846
0.000246327
0.00188418
-0.00391525
-0.00256674
-0.000376452
-0.000306832
-0.00216716
0.00229528
-0.000120075
0.000153789
-0.000108712
0.000549279
-0.00256179
0.00198275
4.10066e-05
0.000436563
-0.000331991
-0.000506978
0.000443275
-0.00254019
0.000284486
0.00225077
0.00417508
-1.47392e-05
0.00159583
-0.000170398
-0.00143729
4.22137e-05
-0.00476396
-2.85994e-05
0.00436832
0.000134822
-0.00342918
0.00328689
-9.25114e-05
0.00451468
0.00481079
-0.000336063
-0.000331512
0.004458
-0.000119838
-0.00325894
0.00337205
-0.000484173
3.12178e-05
6.31226e-05
-0.000163817
0.00141979
-0.00125457
-0.00431919
-0.000310026
0.0045639
-0.00101202
0.0043543
-0.000336323
-0.000658744
0.000866366
0.00114601
-0.000145976
-0.00100388
-0.001828
0.00136776
0.000415165
-0.00119064
-0.000283349
-0.00144986
0.00128722
0.00140574
-0.00229809
-9.03084e-05
0.00383091
-1.05839e-05
0.000935051
-0.00406872
-0.000101378
-0.00203358
0.0042234
0.000403101
-0.00520619
0.0047918
-0.00481945
0.00521134
5.68912e-05
-0.000448384
0.000380265
-0.000274945
-0.00159979
-0.000591295
0.00674054
-0.00459406
9.29642e-06
0.00048232
-0.00588579
0.00272423
0.00313737
0.000177016
-0.00139385
-6.21164e-05
-0.00299925
-0.000105353
0.00297097
0.000369185
0.00271475
-0.00293761
0.000319957
0.00426985
-0.00462154
0.00462669
-0.00423327
-0.000454833
-0.000230897
0.000109064
0.00169625
0.000630106
-0.00237144
-0.0034813
0.000875911
0.00451599
0.000130873
-0.00107843
0.00093707
-0.000214569
-0.00177224
-3.85013e-05
-0.00115783
0.00105427
-0.00478784
0.00438343
-0.00233673
0.00038412
-0.00177907
0.00359473
-0.00219517
-0.000349566
-0.00157738
0.000428671
0.000953367
0.000188244
0.00280838
-0.00273238
-0.00015386
0.00482569
0.00390018
0.000466102
-0.00438524
-0.0042376
0.00460016
-0.000389129
-0.00314978
-0.00245718
0.00178455
0.000443288
-0.00344789
0.00322138
-0.00279005
0.000427576
-0.00160931
0.000281127
0.00127475
-0.0032252
0.00335267
0.00216888
-0.000512987
-0.00354969
-0.000396517
0.00393628
-0.00551119
0.00316073
0.00231748
-0.00074062
-0.000660706
0.00139642
-0.00455526
0.00483279
-0.000303914
0.00024347
0.00242016
-0.00269621
0.000180497
0.00374477
-0.00401156
5.62579e-05
-0.000463886
0.000399817
-0.00107833
-9.13789e-05
0.00115409
0.000220535
0.00237581
-0.00260341
-0.00103869
0.00292166
-0.000265918
-0.00435542
0.00456617
-0.00028565
-0.00398018
-0.00235547
0.000822982
0.00149991
0.00118659
-0.00421605
-0.00300507
-0.00283142
-0.00131973
0.00291674
-0.000463493
0.000101473
0.000130612
0.00327355
-0.00340016
0.00277109
-4.41687e-05
-0.00361068
0.000151621
0.00450603
2.09994e-05
0.00018111
5.14086e-05
-0.000216018
-0.0012722
0.00108333
3.32124e-05
-0.00416412
-4.02551e-05
0.00232162
-0.00246075
0.00510244
-0.00438765
-0.000737321
0.000294287
-0.000102108
-2.97168e-07
1.17359e-05
0.000476428
-0.000382641
0.00457072
-0.0042068
1.08303e-05
8.11872e-05
-0.000127869
-0.000251944
-0.00319945
0.000385436
0.000145651
-0.00326313
0.000123214
-0.00115753
0.00103338
-0.00305156
0.00244379
0.000429889
-0.000303279
0.00506499
-0.00128528
-0.000370146
-0.00126676
0.00110824
7.44259e-05
-0.000211091
-0.00140148
0.00409884
-3.20579e-06
8.98722e-05
-0.00473914
0.00438188
0.00460397
0.000160909
0.000241413
-6.81709e-05
0.00126235
-0.00133474
0.000130092
0.000924344
-0.0010571
0.00117953
-0.00374215
0.000180602
0.000207623
0.00370039
-0.00391349
0.000432014
0.00431212
-0.00475969
0.0042283
-0.00460406
-0.00051707
0.00439945
1.94674e-05
0.000135972
-4.09632e-05
0.000508023
-0.000481328
-0.00121694
-0.000175031
-0.00144176
0.00150979
0.00415992
-0.00456121
-0.000500256
0.00420514
-0.00371374
0.00527385
-0.00379863
-0.00149362
0.000137638
-0.00112379
0.000985384
0.000424515
-0.0047063
0.00424665
0.00217699
-0.000355157
-0.00183165
-0.000118861
0.000727013
-0.00422596
-0.000617738
-0.00102035
0.00408052
-0.000693073
0.000156373
0.000190983
0.00468261
-0.00122515
-0.00140246
0.00361251
-0.00363022
-2.34194e-05
-0.00341897
0.00378995
-0.000382727
5.53774e-05
-0.000449651
0.000387286
-0.000221548
0.000148692
0.00107535
-0.00123843
-0.00400823
-0.00525537
0.00439811
-0.00286837
0.000278266
-0.00136076
0.000491546
-0.000454186
0.000158675
-0.00135565
0.0057744
-0.00557498
-0.00020922
-0.000169839
-0.000379803
-0.00059613
0.000122106
-0.00108939
0.000954151
0.00193649
-0.00161583
-0.000368909
-0.000488626
0.000433736
-0.000393512
-0.00044754
-5.23352e-05
0.00457751
-0.00013663
-0.000988009
-0.00108843
0.000950992
-0.000608478
0.00266997
-0.00209822
0.00335428
-0.0037785
0.000413061
-0.00395687
0.000215574
-0.00235799
0.00264591
-0.000300908
-0.00376289
0.00243935
-0.000401298
-0.00029879
0.00476643
0.000448473
-0.000280141
-0.000244877
0.00293332
-0.00262533
0.00475088
-0.00218703
8.15451e-05
-0.000102488
-0.00151413
-0.000870858
-0.000185631
0.00367294
-0.00349072
0.00274392
-0.00226261
-0.000516753
-0.00022324
-0.00267124
5.3208e-05
-0.000478506
0.000415674
-0.0048547
0.00430419
0.000528712
-0.00472846
-0.00360082
0.000238417
-0.00269098
0.00241954
-0.00336806
0.000414284
-0.00446487
0.00267422
-0.000450437
0.000493966
4.30188e-05
0.000434712
0.000471926
-0.00427839
0.00379351
0.000237604
0.00182266
-0.00209083
-0.000240519
0.00399981
0.000255693
-0.00079931
0.000681173
9.52698e-05
0.00117311
-0.0010384
-0.000137703
0.00147534
0.00440884
5.76105e-05
-0.000464862
0.000400462
-1.54679e-05
9.65047e-07
1.05611e-05
9.25771e-05
0.000722045
-0.000831794
0.00231078
-0.00280801
-0.00124572
0.00547963
0.00411861
-0.00365914
-0.00273648
0.000365938
-0.00335373
-0.0011153
-0.00258339
-0.00173296
0.00427266
-0.00451617
-0.000584837
0.00507721
-0.00399018
-0.00192376
-0.00489155
0.00406284
0.000809504
0.00394595
-0.00445591
0.00404114
-0.00394851
0.003552
0.000265446
0.00532039
-0.00441887
-0.00398483
0.000314404
-0.000403331
-0.00336358
-0.00368745
-0.000147982
0.00374697
-0.00033101
0.000195585
-0.00139543
0.00119773
0.000147723
0.000151393
0.0034174
0.000474322
-0.00390156
-1.85982e-06
-0.00377671
0.00376461
-0.00445263
0.000586159
-7.93808e-05
-0.000510132
0.00429879
-0.000601219
-0.000467947
0.0010684
0.000319145
0.00306068
-0.00342795
0.000128378
-0.00390648
0.00108664
-0.000977047
-0.00472611
0.00463047
9.16561e-05
-0.00171228
0.00324192
0.000333807
0.00375293
-0.00355047
0.000157994
0.00447797
-0.00468045
0.00354776
-0.00344859
-0.00358047
-0.000388539
0.00395944
0.00374489
-0.000336214
-0.00486151
0.000280711
-0.00441718
0.00411186
-0.000102004
-0.00150302
0.00159302
-0.0021306
0.00238333
-0.00164204
-0.000459175
-0.00487209
0.00451163
0.000303275
0.00425725
0.000318413
-0.00253335
0.00273849
0.000284718
-7.7518e-05
-0.00437076
0.00109378
-0.00101071
-0.00366045
0.00357609
-0.00398303
-0.00113226
-0.00291996
0.00322342
-0.000316685
-0.000652623
-0.000164639
0.00380353
-0.00386168
-0.000252232
0.00351863
-0.00208612
0.00217242
-0.000155875
-0.000324998
0.00220055
0.000435193
0.00140737
9.30812e-06
-0.00155261
0.00446618
0.000284937
-0.000317477
0.000650388
0.00309769
-0.00010562
-0.00040093
-0.00233374
-0.00170484
0.00401937
0.000485519
0.00445928
-0.0049643
-0.0012393
0.000144662
6.78859e-07
1.76136e-05
-1.85326e-05
-0.00355535
0.0031482
0.00149765
-0.00065972
-0.000840575
0.00363142
-5.12733e-05
-0.00374457
0.00355551
0.00427774
-0.00403041
-0.000258199
0.00356761
0.000288583
0.00445815
-0.000290885
-0.0004037
-0.00451899
-0.000366461
0.00491653
-0.00410672
0.000435108
0.00365517
0.00175973
0.00400603
0.00419999
0.00028705
-0.00439732
0.0045161
-0.000816802
-0.00370368
0.00493334
-0.00450126
-0.000477776
7.58747e-06
-2.80485e-06
2.43054e-05
0.00471462
-0.00476613
-0.000459719
0.00475467
-0.000316223
0.00374457
-0.000134183
-0.00367071
0.000157449
-0.00458997
0.00445754
0.000654406
8.38422e-05
0.00448812
0.000250065
-0.00477844
0.00286756
0.000397288
-0.00336185
0.00565239
-0.000241554
-0.00544442
-0.000169481
-0.00127868
-0.00103295
-0.00159287
0.00451555
-0.00152678
-0.00430698
0.00459582
-0.00096871
-0.00377225
0.00386168
-0.000228859
-0.00340846
0.00307051
0.00479767
-0.00461311
0.00102316
-0.00298732
0.000114618
-0.000415456
-0.00502301
0.00266884
-0.00469891
0.000936732
0.00372537
-0.000430021
0.00378348
-0.000251206
0.00361331
-0.00356997
-0.000165366
5.25812e-05
0.00309029
-0.00315274
-0.000289793
0.00474253
-0.0025357
0.00433611
-0.00468011
-0.00395274
0.00455075
-0.00414618
-0.000409677
0.000398873
0.00438146
-0.00480722
-0.000409871
-0.000823174
-7.925e-05
-0.00329079
0.0033625
0.00408123
-0.00417941
0.00350971
0.000157984
0.00463503
-0.00480279
-0.000915311
0.00104028
-0.000157934
-0.0039486
0.000362141
0.00344926
-0.000307496
0.00361707
-0.0037336
0.00451766
-0.000200681
0.0046041
-0.00441478
0.000150082
-0.00109793
0.00450181
-0.00476318
0.00223045
-0.00224722
-4.87574e-05
0.00511151
-0.000222395
-0.00345634
0.00019064
-0.000300896
0.00505867
-0.00407536
0.00145312
0.000224355
-0.000333689
0.00373208
-0.000155301
0.00448639
-0.000255589
0.00422065
-0.00451585
-2.83074e-05
0.000119787
-0.000112583
0.0029022
-0.00283061
-0.000191134
-0.000571207
0.00218431
-0.000461176
-0.00277084
0.00321482
0.000247385
0.00455674
-0.000165349
0.0038176
0.00282731
0.000191636
0.00407076
-0.000177722
0.000500446
0.00327887
-0.000255446
0.00469583
-7.50461e-05
0.00375342
-0.00356023
0.00330087
0.00464278
-0.0048664
0.000719445
-0.000450319
-0.00038379
0.00481468
0.00141381
-0.00122054
0.000152399
0.00352474
-0.00368257
-0.00410041
0.000197859
-0.000371648
3.10022e-05
0.000324355
-0.00320377
-0.000250807
-0.000407669
0.00455104
3.83936e-05
0.000245992
0.00192023
-0.00109285
-0.00290488
0.00442747
-0.000130255
-0.0043523
-0.000257402
0.00470968
-0.00189754
-0.000235688
0.00210846
0.000760265
-0.00518664
-0.00512395
0.000583605
-0.00364272
0.00379279
-0.000371866
-0.00346478
-0.000543362
0.00448418
-0.00395559
0.000229976
-0.00215267
-0.00118692
0.0013243
-0.000152768
3.35138e-05
-0.000370056
0.000321396
-0.00383232
-3.17257e-05
-0.00035159
0.000366371
3.02419e-05
-0.000368989
0.000321936
-0.00350955
0.0036566
-0.000253698
0.00441871
-0.00477157
0.000332432
-0.00438841
-0.000366576
0.000317936
0.000326374
0.00436461
-0.00471965
3.19086e-05
-4.36802e-05
-1.21139e-06
-0.00261688
-0.00293045
0.00275957
-0.00280944
-9.84654e-05
-0.00523262
-0.00380467
0.00358455
0.000218904
-0.000353083
-0.000220842
0.00475384
-0.00459888
0.000204455
-0.00431291
-0.000550573
0.00481735
-0.00429501
-0.000250359
0.00450752
-0.00247986
0.000776573
0.00044174
0.003361
-0.00390465
0.00470222
-0.000540623
-0.00424812
0.000483251
-0.000432364
2.15414e-05
-1.80841e-05
-1.4767e-05
-0.000436794