/*--------------------------------*- C++ -*----------------------------------*\
| =========                 |                                                 |
| \\      /  F ield         | OpenFOAM: The Open Source CFD Toolbox           |
|  \\    /   O peration     | Version:  v2012                                 |
|   \\  /    A nd           | Website:  www.openfoam.com                      |
|    \\/     M anipulation  |                                                 |
\*---------------------------------------------------------------------------*/
FoamFile
{
    version     2.0;
    format      ascii;
    class       volScalarField;
    location    "50";
    object      nut;
}
// * * * * * * * * * * * * * * * * * * * * * * * * * * * * * * * * * * * * * //

dimensions      [0 2 -1 0 0 0 0];


internalField   nonuniform List<scalar> 
9793
(
0.0055123
0.00633925
0.0050836
0.00671068
0.0132623
0.00670487
0.00687878
0.00672287
0.00678417
0.0163399
0.000600702
0.0035591
0.00671849
0.00669292
0.00687285
0.006668
0.0068093
0.00679502
0.0325187
0.00668917
0.00360295
0.00664052
0.00373568
0.00663188
0.00691231
0.00673135
0.00663006
0.00679149
0.000667763
0.00678403
0.00569806
0.00332813
0.00634303
0.00697357
0.000790893
0.00603551
0.0068895
0.0066463
0.00675798
0.00688723
0.00574213
0.00688622
0.00684905
0.00684592
0.00684721
0.00675834
0.000665567
0.00626399
0.00344704
0.00670793
0.000663779
0.00063374
0.00667618
0.00679389
0.00134498
0.00757506
0.00673487
0.000602707
0.0211767
0.00675446
0.00693612
0.00668345
0.0194494
0.00679365
0.0279696
0.0065766
0.0167731
0.00934364
0.00550451
0.000567298
0.000595972
0.00667149
0.00675449
0.00643494
0.000784203
0.02183
0.00673735
0.00658044
0.0068832
0.00681245
0.00589174
0.0069331
0.00632552
0.00611874
0.00597553
0.006176
0.00682021
0.00674089
0.00674262
0.00700592
0.00633351
0.0200138
0.00669792
0.00312436
0.00671622
0.00584702
0.00583234
0.0063074
0.00669711
0.00664701
0.00664035
0.00699141
0.00672138
0.00673278
0.00656955
0.00602008
0.00676022
0.00698579
0.00671899
0.00648517
0.00666677
0.00352338
0.00672734
0.00294127
0.000634331
0.00673791
0.00749467
0.000798427
0.0069459
0.00310644
0.00640068
0.00671481
0.00673937
0.00666611
0.00678195
0.00335384
0.000637085
0.00587828
0.00688953
0.00673133
0.00666836
0.00674113
0.00673348
0.00703553
0.00677574
0.00674437
0.00682543
0.00685992
0.00672647
0.00664439
0.00673689
0.00693469
0.00676629
0.00668204
0.0067075
0.00675069
0.00652058
0.0066804
0.0066919
0.0116906
0.0140935
0.00667529
0.0129428
0.0161219
0.00668835
0.00668835
0.00670151
0.00694716
0.00666294
0.00675978
0.00672792
0.00679545
0.00661609
0.0351137
0.00647957
0.00420829
0.00600253
0.00237781
0.00661101
0.00689329
0.00684512
0.0100098
0.00648481
0.0106399
0.00678781
0.0349652
0.0067442
0.00666809
0.00674718
0.00127936
0.00143371
0.00460368
0.00666448
0.00693141
0.0159376
0.00674929
0.000662654
0.00674656
0.00674033
0.00662141
0.00678812
0.00671448
0.00352835
0.00352094
0.0116402
0.00159577
0.0342894
0.0068605
0.0118412
0.00665543
0.0067754
0.0350677
0.00866025
0.00672795
0.00674802
0.00656813
0.00439488
0.00669979
0.00621825
0.00674209
0.00105596
0.00398175
0.00334011
0.00679506
0.0374424
0.00669067
0.00692993
0.0129036
0.00655984
0.0188904
0.00113568
0.00673884
0.00678199
0.00671435
0.00574296
0.0359948
0.00670396
0.0066847
0.00112748
0.00058527
0.00661592
0.0066539
0.00401958
0.00668005
0.000574517
0.0198599
0.00672495
0.00681828
0.00403312
0.00693244
0.00625373
0.00669517
0.00681022
0.00571515
0.00679416
0.00669358
0.00672018
0.00695078
0.00669647
0.0069377
0.00679378
0.00313865
0.000633848
0.000613156
0.00678014
0.00492866
0.00683179
0.00281869
0.0066828
0.00670372
0.00611945
0.00680373
0.000637551
0.00686623
0.0019228
0.00655842
0.00655656
0.00105552
0.0344203
0.00678639
0.00670107
0.00663326
0.00227773
0.00674009
0.00639031
0.00640107
0.00673051
0.0035064
0.00672937
0.000630723
0.00695452
0.00658303
0.00693217
0.00685614
0.000636594
0.00673812
0.00679568
0.00250627
0.00676403
0.00674867
0.00672606
0.00735438
0.00676917
0.00691639
0.00668414
0.00703693
0.00676318
0.00196197
0.00671157
0.0208628
0.00668492
0.00424937
0.013378
0.00697867
0.0068845
0.00669061
0.00190612
0.00432228
0.00695421
0.00416055
0.00678859
0.00669437
0.00360245
0.0067906
0.00679876
0.00696059
0.00608766
0.006842
0.00269543
0.00673951
0.00679202
0.00644889
0.0391308
0.0064657
0.00655178
0.00110985
0.00674919
0.0209504
0.000826252
0.00661098
0.00246606
0.000791354
0.00695951
0.0063964
0.000578159
0.0067149
0.00683953
0.00676795
0.00685435
0.00680216
0.021477
0.00675179
0.0067806
0.0198379
0.00694552
0.00666372
0.00655636
0.00672325
0.00671818
0.0299314
0.0067742
0.00675862
0.00680319
0.00697987
0.00936818
0.00679316
0.00219995
0.0066542
0.000841035
0.00214381
0.000687357
0.000691724
0.00672914
0.00710903
0.0384649
0.00695499
0.00580312
0.00692531
0.00668952
0.0120326
0.00643139
0.0368266
0.00675851
0.000563781
0.00685769
0.00675527
0.00673911
0.00698507
0.00172411
0.00650445
0.0052414
0.00679051
0.00935074
0.00671882
0.00673216
0.00684396
0.00693535
0.00664295
0.00679245
0.00612208
0.00962126
0.00679379
0.00142416
0.00352666
0.0388481
0.000613191
0.00651062
0.00678298
0.00676709
0.0337344
0.00353709
0.00670057
0.00653522
0.0170159
0.00663153
0.00475648
0.00682656
0.00650913
0.00663448
0.000968371
0.00675122
0.00160328
0.00367249
0.00669969
0.00400405
0.00699106
0.00676356
0.00697006
0.00689722
0.00678
0.00675118
0.0287344
0.00672571
0.00679891
0.000602342
0.00678607
0.00668673
0.00674968
0.0066049
0.00126363
0.00676693
0.00680097
0.00663994
0.00590794
0.00672886
0.00584852
0.0069006
0.00485701
0.00693751
0.00692458
0.00688007
0.00679271
0.0201795
0.00685809
0.00158337
0.00663822
0.00685046
0.00673446
0.0148072
0.00556667
0.00152156
0.00441205
0.00667332
0.00671672
0.0018187
0.00131638
0.00107963
0.0063315
0.0119657
0.0067773
0.00699554
0.000550499
0.00674282
0.00699634
0.00674028
0.00671269
0.00698757
0.0152234
0.00159755
0.0114378
0.0067017
0.00210337
0.00667311
0.00694792
0.00673679
0.0069481
0.00230649
0.00692576
0.00698528
0.00662851
0.00674239
0.00663904
0.0062991
0.00677926
0.0067159
0.0131277
0.0065495
0.00677416
0.0217453
0.00492898
0.00681684
0.00690925
0.00671578
0.00663357
0.00680205
0.00685946
0.00681843
0.0068812
0.00683833
0.00678866
0.00653894
0.000680712
0.00671431
0.0190931
0.00103841
0.00667493
0.00676689
0.00689222
0.00360728
0.00695832
0.0175878
0.0066145
0.00680841
0.000596207
0.00673764
0.000899542
0.0110173
0.00236107
0.00667012
0.00130797
0.00657595
0.00671196
0.00687004
0.000484847
0.00677059
0.00671427
0.0067118
0.00676524
0.00672368
0.000575874
0.00121103
0.00674141
0.00686142
0.00681549
0.00677994
0.00666233
0.00671573
0.00399755
0.000700848
0.00663512
0.0071089
0.0340507
0.00680664
0.00695509
0.00198976
0.00665138
0.000548723
0.0102969
0.00673993
0.000640741
0.00658032
0.00139565
0.00270542
0.0074079
0.00674354
0.0068002
0.00680781
0.00627403
0.00711856
0.0221531
0.00436089
0.032561
0.000772763
0.0182387
0.00106547
0.00687958
0.000976956
0.00709696
0.00652588
0.00679512
0.00521248
0.00662757
0.00655812
0.00695568
0.00523165
0.00680325
0.000745857
0.00663289
0.00676857
0.00532976
0.00671461
0.0014521
0.00675489
0.00672938
0.00679979
0.00679288
0.0325089
0.00670711
0.0130605
0.00946609
0.00670732
0.00696262
0.00166426
0.0067773
0.00673686
0.00679355
0.00674515
0.00256459
0.00413325
0.0067161
0.00674813
0.0069238
0.00675085
0.00308969
0.00679475
0.00670591
0.0042788
0.00678693
0.0346568
0.00180261
0.00686175
0.00673135
0.0067166
0.00711793
0.00715566
0.00679595
0.00674063
0.00667942
0.00682878
0.00673466
0.00670671
0.00541176
0.00662452
0.00541433
0.00699133
0.00678884
0.00618963
0.00400605
0.00092202
0.00688704
0.00676102
0.0067319
0.0067202
0.00653348
0.00674122
0.00653402
0.00677258
0.00678579
0.00663088
0.000900658
0.00680817
0.00689489
0.00674084
0.0051397
0.00670836
0.00663493
0.000528398
0.00658698
0.00683442
0.000740839
0.00690887
0.00691511
0.00673292
0.000589787
0.00671873
0.000545609
0.0330061
0.00980942
0.00628785
0.00684018
0.00674456
0.00458073
0.0069079
0.0066374
0.00651752
0.00538189
0.0323753
0.00673401
0.000484971
0.0067444
0.006739
0.0103727
0.00670726
0.00585112
0.00690161
0.000701026
0.00675467
0.0066327
0.00675653
0.000687786
0.00585485
0.00683953
0.00685597
0.00126716
0.00676367
0.00665115
0.000576951
0.00122992
0.00673983
0.00686594
0.00690197
0.00707732
0.00682885
0.00874
0.00599199
0.0068217
0.00615422
0.00448038
0.00671072
0.00670678
0.00701713
0.00685891
0.00663446
0.0155616
0.00663911
0.0147574
0.0026792
0.00490838
0.00060445
0.00678396
0.00121028
0.00817883
0.0067841
0.00815545
0.00620447
0.000516928
0.00663619
0.00661002
0.00649029
0.00682068
0.00612443
0.0067338
0.00395369
0.00674861
0.00618348
0.00535501
0.00682168
0.00130023
0.0067396
0.00474923
0.000783615
0.00744724
0.00707279
0.00646597
0.00675179
0.0066269
0.011051
0.0183874
0.00688082
0.0065042
0.00698494
0.00663273
0.00672165
0.00705791
0.00569672
0.00664474
0.00682757
0.00682746
0.00674012
0.00595596
0.0318719
0.00636856
0.00671824
0.00671308
0.00519569
0.00670707
0.00863241
0.000689185
0.0148048
0.00647623
0.00564997
0.00674401
0.00678213
0.00339429
0.00618382
0.00251489
0.00670846
0.000489804
0.00435578
0.00674792
0.00933059
0.00673654
0.00135218
0.0067949
0.00624233
0.00414032
0.00678597
0.00675818
0.00638083
0.00664786
0.0114699
0.00479218
0.00681312
0.000977389
0.00684427
0.006694
0.00550363
0.00113362
0.00692385
0.000525834
0.00673685
0.00117417
0.00682298
0.00663193
0.00694989
0.00671541
0.0282059
0.00670733
0.00668072
0.00687145
0.00670222
0.00663033
0.000886568
0.00689469
0.00466085
0.00675001
0.00672354
0.00159579
0.00670714
0.00329352
0.0067437
0.00676292
0.00681857
0.00662055
0.00679862
0.00492299
0.00680677
0.00682546
0.0067093
0.00145642
0.00159634
0.00108786
0.00125731
0.00528409
0.00682382
0.0038813
0.00628554
0.0066141
0.00694953
0.00633277
0.000979774
0.00118326
0.00669336
0.00159272
0.00658239
0.0105696
0.00628586
0.00670446
0.00679515
0.00149618
0.0197265
0.00687142
0.00563041
0.0067078
0.00703128
0.000750359
0.00672579
0.00651033
0.005608
0.00667967
0.000781148
0.00668618
0.00815932
0.00671089
0.00655879
0.00657108
0.0167129
0.000715946
0.00681229
0.00650781
0.00673408
0.00660328
0.00828667
0.0066207
0.00671337
0.00153779
0.00168491
0.00683882
0.00343616
0.00128439
0.00376987
0.00717889
0.00114587
0.00684429
0.00614748
0.00680054
0.00673323
0.00676879
0.00691296
0.00685303
0.00126903
0.00682571
0.0103451
0.00641153
0.00122916
0.00678692
0.000724656
0.00683719
0.00696001
0.000736681
0.0064293
0.00657249
0.000894266
0.00686843
0.00117553
0.00683191
0.00664959
0.00261767
0.00808893
0.00639276
0.00667699
0.0066812
0.00653566
0.00687729
0.0355665
0.000858637
0.0068236
0.000957884
0.00641068
0.00684699
0.00270795
0.006423
0.0032723
0.00127678
0.00675705
0.00677045
0.0046239
0.000829414
0.00121822
0.00674143
0.00848415
0.0031698
0.00687376
0.000628148
0.00239671
0.0349589
0.00680985
0.00200058
0.00555109
0.00717785
0.00674599
0.00654743
0.00680615
0.00673642
0.00674794
0.00128221
0.00680446
0.00141622
0.000838108
0.000670948
0.00359988
0.000968705
0.00485269
0.00346447
0.00517623
0.00659089
0.00679227
0.0063864
0.00690708
0.00683674
0.00527601
0.00594692
0.00236201
0.00348108
0.00673858
0.00610232
0.00679381
0.00570028
0.00672843
0.00151283
0.000524436
0.00671448
0.0127347
0.00923448
0.00670791
0.00677551
0.00680009
0.00111332
0.0038407
0.0022864
0.00107597
0.00668138
0.00658274
0.00118883
0.00613578
0.00690897
0.0067235
0.00126183
0.00529013
0.00673381
0.00681778
0.00648863
0.00679087
0.00680781
0.00189897
0.0119409
0.00678549
0.0065751
0.00473127
0.00679712
0.00668086
0.00412386
0.00537372
0.0067874
0.00716801
0.00504046
0.00678391
0.00661805
0.00677758
0.00673949
0.00671187
0.00489635
0.00598862
0.00690396
0.00532904
0.00662697
0.00641212
0.00672669
0.00711893
0.00673325
0.00680138
0.00386914
0.00697759
0.00687842
0.00209417
0.00681618
0.00639198
0.00154381
0.0067234
0.000695779
0.0067893
0.00670821
0.00675741
0.00674516
0.00471069
0.0063718
0.00673619
0.00585287
0.00714224
0.000914685
0.00887275
0.00663683
0.000560923
0.00674303
0.00672468
0.0203495
0.022362
0.0066433
0.00678197
0.00672142
0.00679547
0.000533721
0.00674258
0.00684693
0.00687321
0.00702716
0.00678487
0.00679464
0.00668154
0.00672307
0.00670706
0.00607681
0.00461551
0.00666174
0.00062827
0.00686096
0.00582625
0.00663128
0.00079083
0.00677775
0.00672632
0.000542607
0.00590849
0.00680128
0.00680852
0.00373879
0.000926377
0.00672805
0.00661967
0.000505361
0.000943555
0.00661526
0.00929368
0.000755883
0.0068191
0.00677933
0.006812
0.00679335
0.00235255
0.00650132
0.00702522
0.0038824
0.00666221
0.00694922
0.00661558
0.00674502
0.00660818
0.0066181
0.000862465
0.00675247
0.00345293
0.00106667
0.00660832
0.00677688
0.00637092
0.00673934
0.00679706
0.00671739
0.00674809
0.00825252
0.00661774
0.00676998
0.00730392
0.00675743
0.006792
0.0068367
0.00674997
0.00679432
0.00672795
0.00675948
0.00637331
0.00672907
0.00129495
0.00313519
0.00661791
0.00673575
0.00662108
0.000940154
0.00672021
0.00425731
0.00673171
0.00664864
0.00685248
0.00675686
0.00105022
0.00674204
0.00675595
0.00613762
0.00901831
0.00678283
0.00675969
0.00671974
0.00801447
0.00680591
0.00671652
0.00490842
0.00473553
0.00690946
0.00660483
0.00362117
0.00597585
0.00521404
0.00311872
0.00671243
0.00672485
0.00580014
0.000768818
0.00673782
0.00611508
0.00120838
0.00672221
0.0014193
0.00226144
0.00697313
0.00413401
0.00659604
0.00160938
0.000761711
0.00671506
0.00216179
0.00656263
0.000635401
0.00111935
0.00661106
0.00407699
0.00680181
0.00680666
0.000889252
0.00230521
0.00110938
0.00128639
0.0066378
0.0030167
0.00127534
0.00671379
0.00179017
0.00672734
0.00423166
0.00499957
0.00643584
0.00697787
0.0016443
0.00122325
0.00128598
0.00113156
0.00661083
0.00673545
0.00141298
0.00354524
0.00793399
0.00667234
0.00667508
0.0016697
0.00664467
0.00690399
0.00698372
0.00665703
0.00677131
0.00701243
0.0124135
0.00447007
0.00672499
0.000923326
0.00471842
0.00403929
0.00150066
0.00127442
0.00465082
0.0134626
0.00659542
0.000589972
0.000585672
0.00364421
0.00611364
0.00677836
0.000629349
0.00175753
0.000745827
0.00308551
0.00616571
0.00625785
0.00673065
0.001777
0.00199195
0.00672058
0.000494942
0.0067454
0.00677354
0.00670849
0.00652433
0.00680677
0.00675611
0.00669743
0.0015492
0.00292517
0.0040735
0.00155227
0.00673106
0.00134285
0.00678791
0.00414998
0.0058777
0.00672289
0.000719408
0.00700095
0.00666273
0.00671741
0.00662648
0.00675355
0.000953371
0.00679288
0.00637757
0.0068199
0.0067179
0.0120525
0.00683363
0.00605534
0.00670982
0.00678732
0.0020607
0.000497916
0.00971116
0.00090802
0.00540248
0.00678037
0.00674358
0.00700014
0.0022222
0.00321451
0.000507099
0.00151576
0.00673297
0.00077374
0.00661785
0.00636802
0.00123301
0.00177003
0.00133036
0.0204039
0.00693755
0.000817365
0.0067742
0.000586713
0.00668391
0.000595813
0.000613705
0.00656499
0.00203435
0.00303551
0.00679571
0.00282612
0.00679112
0.000979676
0.00677098
0.00679607
0.0083779
0.00672319
0.0161777
0.00635127
0.00686962
0.00535411
0.00679444
0.00550341
0.00672185
0.00573769
0.00194711
0.0067552
0.00671604
0.00448568
0.00670955
0.0014083
0.00672717
0.00689977
0.00380809
0.00075076
0.00278746
0.00677917
0.00611726
0.00679711
0.00676851
0.00641941
0.00613916
0.00693172
0.00671884
0.00676257
0.0312363
0.00099927
0.00670717
0.00699118
0.00655086
0.00125099
0.00641437
0.00678962
0.00672588
0.000700054
0.00673389
0.00671249
0.00672618
0.000550379
0.00127947
0.00640517
0.0068652
0.00653257
0.00536792
0.00305502
0.00633608
0.00683318
0.0067971
0.00673787
0.00321317
0.0229666
0.0256587
0.0067253
0.000699578
0.00664183
0.00664057
0.00712036
0.00620055
0.000767392
0.00672441
0.00639994
0.00320364
0.0022167
0.00219183
0.00677612
0.0067842
0.000779858
0.00670551
0.00681002
0.00116985
0.00678784
0.00674194
0.00674675
0.00322602
0.00665244
0.00137811
0.000608689
0.00700936
0.0026119
0.00639267
0.00268123
0.0278665
0.00673461
0.00672577
0.00677154
0.00674217
0.00676913
0.00677144
0.000760355
0.000963536
0.00679033
0.00682245
0.00680183
0.00697471
0.00666507
0.00102742
0.00677724
0.00124002
0.00672472
0.00678059
0.00676119
0.000631704
0.00676433
0.00131375
0.00675455
0.00678925
0.00667752
0.00132888
0.00407104
0.00643049
0.00136877
0.00677208
0.00676542
0.00672857
0.00673831
0.00638767
0.00681046
0.00201102
0.0208266
0.00678975
0.00197336
0.00654401
0.00374892
0.000784706
0.00680301
0.00252138
0.00675567
0.00673272
0.00665285
0.00673013
0.00649306
0.000742865
0.00672821
9.77052e-05
0.00176628
0.00671687
0.0110346
0.00671428
0.00112034
0.00681707
0.00672046
0.0166208
0.00679141
0.00692567
0.00453372
0.000988943
0.000576336
0.00676923
0.00673751
0.00671761
0.00126978
0.00141233
0.000676324
0.00125117
0.0067714
0.00674192
0.00317446
0.00680983
0.00121775
0.00638279
0.00789988
0.00678602
0.000711919
0.0068043
0.00678421
0.00128218
0.000954051
0.00116593
0.00511557
0.00679179
0.00171383
0.00548034
0.00357405
0.00676287
0.00168765
0.000507032
0.00388635
0.000704713
0.00679402
0.0067902
0.00672613
0.00669889
0.00545053
0.00221481
0.00679538
0.0213685
0.00699517
0.00160242
0.00677413
0.00672864
0.00672322
0.00642637
0.000501566
0.00716453
0.00673938
0.00677854
0.00675722
0.00677968
0.000920595
0.00672499
0.00673666
0.00678886
0.00593501
0.00388016
0.00676666
0.0068175
0.00675551
0.00617771
0.00676125
0.00125272
0.00678393
0.000825365
0.00677294
0.0068114
0.00383993
0.00679296
0.00091161
0.00679646
0.00674316
0.00672478
0.00669961
0.000837813
0.00679845
0.00678434
0.00433055
0.00681058
0.00673206
0.00600629
0.00680243
0.00682738
0.0067674
0.00122856
0.00671575
0.00672454
0.00671401
0.0028629
0.00328971
0.00995548
0.00679037
0.00679755
0.0051336
0.00617396
0.00613793
0.00144519
0.00224237
0.00585599
0.00679356
0.0124205
0.00678863
0.000606226
0.00675
0.00642393
0.00183259
0.0066739
0.00581078
0.00687107
0.00672745
0.00643956
0.00619915
0.00673012
0.00597609
0.00679571
0.00673357
0.00678583
0.00644
0.00678252
0.000894336
0.0067508
0.00671174
0.00672026
0.0068118
0.0067319
0.00215156
0.00532569
0.00318821
0.00679568
0.00659926
0.00244533
0.00676028
0.00674724
0.000548792
0.000637328
0.00674415
0.00671629
0.00239266
0.0066995
0.00681844
0.00574067
0.00667829
0.00669588
0.00671275
0.00672803
0.00495609
0.0068316
0.00672808
0.00396434
0.000642666
0.000596372
0.00533436
0.00674398
0.00686668
0.00687629
0.00659322
0.00679507
0.00325844
0.00592219
0.00720064
0.00672664
0.00564746
0.00679017
0.00680159
0.00696168
0.00673445
0.00700314
0.00597521
0.00673447
0.00675058
0.00677191
0.00672734
0.00663956
0.00680842
0.00264447
0.00618689
0.00717857
0.00667638
0.00665806
0.00671219
0.00679238
0.00675288
0.0064201
0.00577442
0.00531772
0.00678702
0.00609499
0.00672399
0.00663212
0.00722113
0.00672227
0.00674097
0.0255287
0.00681971
0.00672498
0.00671079
0.00160579
0.00721177
0.00080109
0.00678545
0.00569441
0.00658922
0.00663722
0.00676605
0.00674144
0.00360562
0.00672365
0.00679487
0.000610582
0.0067612
0.00421499
0.00716524
0.00119755
0.00679658
0.00407354
0.000858039
0.00679301
0.00670816
0.00680163
0.00678643
0.00675345
0.00340091
0.00670796
0.00343796
0.00672473
0.00682713
0.030211
0.00673574
0.00811519
0.000560701
0.00674936
2.51019e-05
0.00672542
0.00679454
0.00672129
0.0067894
0.00671082
0.00675888
0.00678195
0.00681173
0.00098284
0.00678579
0.00670759
0.00679429
0.0067197
0.00672246
0.00672587
0.00673258
0.00673323
0.00671347
0.00676837
0.00672223
0.00673769
0.00677182
0.0123584
0.00692187
0.00679642
0.00579361
0.00538894
0.0064319
0.00699264
0.00672146
0.00683645
0.00674575
0.00682936
0.00601765
0.00540362
0.00670787
0.00669566
0.00196607
0.00680263
0.00648517
0.0148148
0.00662203
0.0124884
0.00677375
0.00195678
0.0045972
0.00625425
0.0343106
0.00857878
0.0067184
0.00672554
0.00644833
0.00359016
0.000902466
0.00671509
0.0037204
0.00745713
0.00673161
0.001409
0.00463655
0.00637152
0.00677098
0.00124053
0.0012468
0.00676696
0.00673854
0.00644069
0.00339817
0.00297279
0.00438392
0.00260537
0.00387004
0.00595607
0.00676076
0.0067989
0.00671958
0.00110506
0.00604887
0.00682132
0.00121529
0.00582084
0.00673903
0.00674923
0.00701625
0.00673195
0.000759071
0.00672192
0.00675433
0.00506874
0.00652611
0.00357628
0.00652593
0.00614176
0.0042849
0.000596108
0.00437756
0.00535777
0.0067319
0.00672336
0.00672492
0.002533
0.00673527
0.00670906
0.00673087
0.00157402
0.00535066
0.00648426
0.00701813
0.00692208
0.00580584
0.000749596
0.00615367
0.00498106
0.00543288
0.000671505
0.00544462
0.00632356
0.00670698
0.00670668
0.00674107
0.0027064
0.00695102
0.00535143
0.00670225
0.00673857
0.00681601
0.00106454
0.00672197
0.00681033
0.00673626
0.000882012
0.00673379
0.00672276
0.00670478
0.00510534
0.0215473
0.00273891
0.00315981
0.00676853
0.0200957
0.00662756
0.0064165
0.00671544
0.00647427
0.00674129
0.00680552
0.00680883
0.00170631
0.00680351
0.0067353
0.00674346
0.00683489
0.00562222
0.00671564
0.00679278
0.00672222
0.00679983
0.00677946
0.00673554
0.00670632
0.00676319
0.00681824
0.0058296
0.00671396
0.00670157
0.00544801
0.000557166
0.0063046
0.000475271
0.00673221
0.00372938
0.0067121
0.00665474
0.00672303
0.00402783
0.00679626
0.00671904
0.00665249
0.00493912
0.00429263
0.00672853
0.0145523
0.00679269
0.00666701
0.00680429
0.00682695
0.00148181
0.00674999
0.00965694
0.00676527
0.0064319
0.00368594
0.00682829
0.000817412
0.00670921
0.00672287
0.00671996
0.0162439
0.00704941
0.00642398
0.00447227
0.0183449
0.00131583
0.00555952
0.00513621
0.00676664
0.00660057
0.00144635
0.00470491
0.00671358
0.00454525
0.0067743
0.00674507
0.00886921
0.00673373
0.00677557
0.00473976
0.00556971
0.00714598
0.00681487
0.00673298
0.00715844
0.00673898
0.00645427
0.00835643
0.00680791
0.00645585
0.0156875
0.0136631
0.00673362
0.00674318
0.00671957
0.0064918
0.00644654
0.00678844
0.00672346
0.00230112
0.00671133
0.00672625
0.00681511
0.00672814
0.00695135
0.00590081
0.00371968
0.00681231
0.000836545
0.00243896
0.00681337
0.0053614
0.00681407
0.00677664
0.00683189
0.006764
0.0070057
0.00675202
0.0052628
0.00680149
0.00701966
0.00680742
0.00661526
0.00675712
0.00683038
0.00671625
0.00670698
0.00684362
0.00679912
0.00683077
0.0122072
0.00672084
0.00678505
0.00104026
0.00676458
0.00668455
0.00596124
0.00028748
0.020611
0.0340274
0.000509166
0.00672059
0.00675613
0.00574212
0.00730607
0.00685801
0.00553031
0.00517344
0.00676753
0.00299446
0.00855146
0.00680784
0.00576821
0.00677425
0.00582522
0.00600484
0.0112373
0.00676695
0.00678119
0.000853104
0.00682054
0.00683741
0.00625828
0.000614378
0.00674725
0.00673857
0.0068367
0.00463903
0.00678947
0.00677177
0.00672148
0.00671857
0.00673478
0.00576982
0.00679462
0.00672906
0.00683355
0.00259818
0.00611889
0.00527003
0.00678398
0.00679446
0.00669091
0.0067677
0.00673203
0.00670636
0.0235828
0.00679097
0.000820733
0.00671748
0.00683556
0.00669741
0.00678904
0.0137443
0.0060299
0.0067197
0.00681967
0.00632901
0.0221538
0.0065206
0.00668244
0.00681203
0.00265005
0.00672933
0.00661653
0.00677604
0.00665389
0.00673063
0.00673152
0.00680392
0.00084281
0.00660458
0.00503762
0.0055681
0.00650127
0.00681072
0.00134432
0.00677547
0.00672288
0.00670877
0.00692365
0.00680161
0.00218177
0.00657738
0.00682635
0.00615777
0.00673374
0.00674137
0.00671681
0.00273588
0.00673478
0.00673043
0.00524439
0.00670779
0.00670631
0.00677771
0.00711416
0.00673517
0.00662691
0.00672892
0.00657563
0.00586301
0.00734969
0.00674415
0.00634817
0.00660485
0.00676274
0.00705698
0.00566493
0.00835289
0.00667468
0.00673003
0.00674423
0.00674055
0.00678757
0.00672345
0.00634555
0.00317055
0.00680488
0.00677927
0.00644346
0.00671121
0.00676197
0.00688458
0.00207336
0.00530924
0.00680251
0.00526967
0.00651403
0.0067368
0.00698447
0.00150885
0.0252944
0.00672031
0.00674547
0.00680862
0.00681068
0.00672921
0.0061408
0.00675586
0.00707529
0.00484928
0.00581045
0.00700555
0.00631322
0.00639271
0.00629827
0.00302453
0.00656563
0.00486073
0.00672546
0.0068891
0.00633199
0.00670761
0.00642716
0.00673918
0.00668892
0.00671197
0.00665323
0.00673269
0.00193239
0.00681406
0.00936724
0.00566668
0.000579091
0.00998758
0.00661354
0.00672344
0.00312951
0.00497433
0.0067204
0.00582105
0.00680029
0.00668606
0.00673015
0.00614274
0.00674039
0.00733998
0.00498027
0.00673254
0.00559951
0.00678179
0.00516281
0.00587704
0.00673221
0.00670966
0.00519497
0.00536878
0.006823
0.00670079
0.00668995
0.00644723
0.00672942
0.00409008
0.00676366
0.00646039
0.00589113
0.00668674
0.00578467
0.00673389
0.00670905
0.00683289
0.00572359
0.00675811
0.00673439
0.0104351
0.00426954
0.00596504
0.00690415
0.00667802
0.00593477
0.012959
0.00536084
0.000874103
0.00272777
0.00309847
0.00681258
0.00673822
0.00623907
0.00678657
0.00682469
0.00676227
0.00675941
0.0070155
0.00673442
0.00663136
0.00681026
0.00670737
0.00694603
0.00669523
0.00635622
0.0122157
0.00726981
0.011561
0.0099168
0.00671743
0.00673059
0.006761
0.00090554
0.00667473
0.00690425
0.00672668
0.00677391
0.0067291
0.000608274
0.00680743
0.00673621
0.00672212
0.00675604
0.00655834
0.0012545
0.00693113
0.00675692
0.00672973
0.00556754
0.00642765
0.00680649
0.00667847
0.0068353
0.00673516
0.0067291
0.00674043
0.000804397
0.0067139
0.00672468
0.00535569
0.00675174
0.000747551
0.00698629
0.00675135
0.00675482
0.00632582
0.00651416
0.00360002
0.0171153
0.00694122
0.00689718
0.00679687
0.0067142
0.00733077
0.00673972
0.00553265
0.00682037
0.00671024
0.00578854
0.00633227
0.00674762
0.00629744
0.00703318
0.00135692
0.00687583
0.00672031
0.00672834
0.00678758
0.00672632
0.00654199
0.0110681
0.0067667
0.00681469
0.00676422
0.00672193
0.00648376
0.00701991
0.00679112
0.00672606
0.00692172
0.00679927
0.00679345
0.00682027
0.00654338
0.00673535
0.00682207
0.00661908
0.00685361
0.00513196
0.0392132
0.00672636
0.00676476
0.00672307
0.00630612
0.00671816
0.00227442
0.000808487
0.00609902
0.0221955
0.00619607
0.00588156
0.00671991
0.00151536
0.00678306
0.00678107
0.00303004
0.00643498
0.00676134
0.00680194
0.00663797
0.00682374
0.0065686
0.00230913
0.00646805
0.00681611
0.00660039
0.00409325
0.00666058
0.00666466
0.000805867
0.00331152
0.00365288
0.0170584
0.00646667
0.00557388
0.00671145
0.0067596
0.0064874
0.0114014
0.00618339
0.00685704
0.00534874
0.00641448
0.00115219
0.00670941
0.00670716
0.00664655
0.00678863
0.007328
0.00671369
0.000806526
0.00641214
0.00703556
0.0068341
0.00821867
0.00671435
0.00653472
0.00673328
0.00708362
0.00695602
0.00667811
0.00667453
0.00662706
0.00121213
0.00677075
0.00647843
0.00683667
0.00619031
0.00239725
0.00654603
0.00552287
0.0067182
0.00524743
0.00696166
0.00660616
0.00676666
0.0118428
0.00683
0.00672319
0.00672084
0.00627695
0.00680164
0.00785735
0.00643306
0.00669787
0.002904
0.0067075
0.00667931
0.0199636
0.00432958
0.00266885
0.00525522
0.00675534
0.0064236
0.0148532
0.000809124
0.00671539
0.00697683
0.00511647
0.00671716
0.00685474
0.00661395
0.00574004
0.00644519
0.00369085
0.00679946
0.00671588
0.00670734
0.00679163
0.00666804
0.00677894
0.00701424
0.0067799
0.00673125
0.00640509
0.00707405
0.00692617
0.00645752
0.00400851
0.00636763
0.00645069
0.00721248
0.00684542
0.00945151
0.00672395
0.00404275
0.00671311
0.000771341
0.0269543
0.00701648
0.00120294
0.00677291
0.00651989
0.00673364
0.006718
0.00671908
0.00674772
0.00661515
0.00629439
0.00696272
0.00674116
0.00697353
0.00674357
0.00694743
0.0067078
0.00542092
0.00684813
0.00668828
0.00635751
0.00677931
0.00670842
0.00661383
0.00535227
0.00679551
0.00692215
0.022385
0.00695151
0.00679365
0.00608592
0.00252464
0.00878467
0.0066613
0.00670449
0.00692156
0.00641358
0.00298689
0.00649987
0.00659631
0.0067677
0.00679789
0.00702681
0.0067643
0.0067949
0.00555705
0.00671589
0.00824527
0.00712182
0.0067145
0.00672751
0.00675788
0.0067491
0.006702
0.00674708
0.00670919
0.00707583
0.00751622
0.00679204
0.00687077
0.0026134
0.00186962
0.00671307
0.00670617
0.00160535
0.00673593
0.00717085
0.00670887
0.00701129
0.00671734
0.00666947
0.00745507
0.00672819
0.00670621
0.0049319
0.00606077
0.00389396
0.0067308
0.0181495
0.00679716
0.0125541
0.00651858
0.0068271
0.00699377
0.00670566
0.00668848
0.00868153
0.00670712
0.000798261
0.0106723
0.00585638
0.00699769
0.00487952
0.00695452
0.00674141
0.00702415
0.00670448
0.00615961
0.00337395
0.00672348
0.00704093
0.00626807
0.00662076
0.00671109
0.00805135
0.00258927
0.00357397
0.0069624
0.00632727
0.00831005
0.00678116
0.00498421
0.00668968
0.00330384
0.00939601
0.00653929
0.00686233
0.00662018
0.00484316
0.00362256
0.00659975
0.00634618
0.00557973
0.00363033
0.00662394
0.00275748
0.00676662
0.00670462
0.0335103
0.00539341
0.00670329
0.00688521
0.0063763
0.00654149
0.0066852
0.00672194
0.00664639
0.00513086
0.00677145
0.00678795
0.00619848
0.00662132
0.00567977
0.00455046
0.00680053
0.00248506
0.00670683
0.00260537
0.006464
0.00657812
0.00595075
0.00692862
0.00299193
0.00673031
0.026915
0.00676747
0.00691419
0.00668467
0.00679559
0.00674182
0.00687442
0.00131732
0.00553109
0.00670333
0.0231121
0.00551671
0.00670782
0.00671179
0.0104521
0.006341
0.000999222
0.00589811
0.00344528
0.00671198
0.00678445
0.0050201
0.00704183
0.00530699
0.00649417
0.0066992
0.00677236
0.00675562
0.00661537
0.00671461
0.000926016
0.00671115
0.00288319
0.00672429
0.00673277
0.00345012
0.00661595
0.00128447
0.0054071
0.00675655
0.006715
0.00672656
0.0065792
0.00663062
0.00666738
0.00396421
0.00337348
0.00653061
0.00697473
0.00148969
0.00673432
0.00684601
0.00672306
0.00373454
0.0046967
0.00544829
0.00574539
0.00247121
0.00688912
0.00095385
0.00672374
0.00705701
0.00661459
0.00661215
0.00722817
0.00671736
0.00796877
0.0063222
0.00678639
0.00759397
0.00723907
0.0067005
0.00473511
0.0066862
0.00553778
0.00290781
0.00720199
0.00674934
0.00676491
0.00666643
0.00483487
0.00568453
0.00670198
0.0126936
0.00671468
0.000827713
0.00670434
0.00795991
0.00622672
0.00674892
0.00684758
0.0068378
0.00525699
0.00261865
0.0067926
0.00662585
0.00670501
0.00675051
0.00504677
0.00679181
0.00681344
0.0078138
0.00633304
0.00672005
0.00707876
0.00671688
0.00694256
0.00683345
0.00614677
0.00669939
0.00704336
0.00686695
0.00672274
0.00671929
0.0049579
0.0059253
0.00678184
0.00691533