/*--------------------------------*- C++ -*----------------------------------*\
| =========                 |                                                 |
| \\      /  F ield         | OpenFOAM: The Open Source CFD Toolbox           |
|  \\    /   O peration     | Version:  v2012                                 |
|   \\  /    A nd           | Website:  www.openfoam.com                      |
|    \\/     M anipulation  |                                                 |
\*---------------------------------------------------------------------------*/
FoamFile
{
    version     2.0;
    format      ascii;
    class       volScalarField;
    location    "150";
    object      p;
}
// * * * * * * * * * * * * * * * * * * * * * * * * * * * * * * * * * * * * * //

dimensions      [0 2 -2 0 0 0 0];


internalField   nonuniform List<scalar> 
10042
(
0.0294197
0.0268918
-0.0110943
0.00403604
-0.391549
0.025783
-0.295978
-0.261378
-0.00535071
0.0198683
-0.40546
0.0037088
0.00416017
0.00371061
0.0658773
0.0247143
0.0248384
0.0199833
0.0292265
0.25281
0.0166694
-0.216593
0.00460465
0.00607244
0.0268179
-0.0632819
0.0273468
0.0322363
0.00389806
0.0246408
0.0295651
-0.418886
0.0197809
0.0073203
-0.0393826
0.00645507
-0.0592663
-0.0729411
0.0066352
0.0191491
0.273871
0.0578329
-0.302905
0.033881
-0.394867
-0.119743
0.0499782
-0.14054
-0.0528139
-0.0753686
0.0188026
-0.0156977
0.0664744
-0.0226166
-0.059248
0.0256599
0.00306291
0.0493332
0.00665235
0.0644036
0.0283648
0.0287656
-0.040206
-0.010227
0.0601543
0.00399117
0.0523225
0.240114
-0.349327
0.0255341
-0.0218154
0.281397
0.0350377
0.151881
0.05119
0.00586068
-0.38962
0.0294063
0.117011
-0.295412
-0.0503712
-0.382198
0.0193163
0.0552706
0.0524835
0.0223839
0.0286656
-0.179067
0.0404034
0.0282364
-0.00620817
-0.393262
0.0311943
-0.0151245
0.0257441
0.0104065
0.0253534
0.016013
0.0188928
-0.00133414
0.0198061
-0.170127
-0.262281
0.0222571
0.0382911
-0.0355793
0.0322261
0.0252673
0.0166856
-0.000687434
0.00962483
0.0208698
-0.0107548
-0.349057
0.0591181
0.0236453
0.0349304
0.0295875
0.00974922
-0.422806
0.0402477
-0.255596
0.0306007
0.0322292
-0.16713
0.020115
-0.257084
-0.0533446
-0.0271738
0.0276418
0.118728
0.0468112
-0.416934
-0.222024
-0.000462975
-0.0938915
-0.42615
-0.00620662
-0.147827
-0.190825
0.0442465
0.0353668
0.0431516
-0.211448
-0.0122301
0.0210974
-0.111788
-0.00387203
0.0161653
0.0144391
-0.00743806
0.0192321
-0.295754
-0.425315
0.0264196
0.00415726
0.0718571
0.0290943
-0.0935864
-0.426919
-0.39032
-0.197765
0.0305855
-0.00697106
0.0157202
0.0460348
0.0453831
-0.414697
-0.419694
-0.422171
-0.0213513
0.0180327
-0.383547
0.236194
0.103118
-0.321288
-0.337173
0.0323995
0.247505
-0.0370594
0.0741311
-0.41994
0.0533831
-0.0509157
0.0578231
-0.423333
-0.235483
0.00596444
-0.380381
-0.0274773
-0.048475
0.04499
-0.300097
-0.378671
-0.174374
-0.332744
-0.0444016
0.0312149
0.00439131
-0.00186602
0.124993
0.00489941
0.0193748
0.210717
0.0536562
0.00472002
-0.101509
0.0266165
0.0204774
0.0253511
-0.324097
0.00353831
0.0523132
-0.111526
0.0701504
-0.240454
0.0478919
0.0235171
-0.135972
0.0133037
-0.0139245
0.0728422
-0.197066
-0.0755156
0.0801706
-0.066724
-0.246024
0.0223703
-0.217279
-0.0227952
-0.00607835
0.121921
0.0184198
-0.0220823
-0.0115487
0.0116322
0.00668582
0.00327539
-0.0291755
-0.0345309
0.0306847
0.0319833
0.0158281
-0.0101223
0.0231907
0.0293258
0.00650786
0.0377284
-0.0218145
0.0198742
0.00444054
0.0248936
0.0342235
-0.214293
-0.198366
-0.379055
0.109634
0.0891364
0.0663434
-0.130694
-0.295837
-0.0274317
0.0320647
0.00345456
0.000254714
0.00689257
-0.223194
-0.029503
0.0281797
0.0252409
0.133569
-0.0228569
-0.11632
0.0947169
-0.20917
-0.0278617
-0.0334555
0.00774914
-0.043303
-0.0130262
-0.040443
0.0359084
-0.0628226
-0.418286
0.00506656
-0.00768644
-0.295905
-0.124516
0.00602289
0.0287453
0.033447
-0.314933
-0.125687
-0.218133
0.0188346
0.00434939
0.0221097
-0.00542762
-0.244745
0.0314582
0.0282885
0.01876
0.0478765
-0.0709513
0.0582311
-0.0957751
-0.335914
0.0631066
-0.285665
0.0231631
-0.0415057
0.0275293
-0.424952
-0.172384
-0.345467
-0.336436
0.00519946
-0.030067
0.025135
0.048268
-0.0665647
0.0222196
-0.0292448
0.00928534
0.00299686
0.0336545
-0.10229
0.0243953
-0.0253873
0.0456438
0.0561726
-0.346404
0.0235771
0.0265203
0.0169552
-0.00972387
-0.0544899
-0.176852
0.0803307
-0.275144
-0.0725628
-0.0474812
0.0464657
0.00350652
-0.0106662
0.0201127
-0.263829
0.0355777
0.00480591
-0.128455
0.020048
0.044363
0.0554759
-0.134661
-0.0133162
0.078765
-0.0252273
-0.0245552
-0.00452025
0.0323059
-0.281947
-0.117694
-0.0201708
-0.0544654
0.0223091
0.0182997
0.0219915
0.0469069
-0.328936
-0.0321537
0.0216812
0.0611413
0.0202532
0.0243761
0.236914
0.0314706
-0.000688655
-0.425839
0.0152348
-0.2727
-0.266416
0.1506
-0.332396
-0.375409
0.0188838
0.140445
0.0268047
-0.0805234
0.0249034
0.0499442
-0.186381
0.0228167
0.0505169
-0.131031
0.00448015
0.0169237
0.218
-0.0184994
0.00438368
-0.00344587
-0.418434
-0.175868
0.0181558
0.245729
-0.376905
0.0128645
0.0217082
0.00265641
0.0262949
0.00307671
0.00507677
-0.287231
-0.264595
0.0506114
-0.347146
0.00389817
0.0313223
-0.296663
-0.0156184
-0.279749
-0.131294
0.0571512
-0.00161663
-0.00304849
-0.0885311
-0.0222806
0.0231341
0.0317985
-0.403694
0.0681003
-0.361633
0.0629642
0.0194167
0.023313
-0.26959
0.0199832
0.110691
0.0285373
-0.0125269
-0.425041
-0.0446582
0.0352517
0.00899382
-0.423816
0.0270048
-0.0459636
0.00444167
0.00750278
-0.33936
-0.324305
0.0165383
0.0572104
-0.0337661
0.00454482
0.0245876
0.033145
-0.424612
0.0317341
0.00370256
0.0518727
-0.258896
-0.12698
0.0203582
-0.0381761
-0.365006
-0.0737946
0.0364701
0.0319545
-0.223267
-0.019248
0.0193366
0.119132
-0.0063949
0.00538258
0.0748243
0.00319585
0.0571135
0.0326954
0.0203017
-0.404465
0.0115982
-0.0200524
0.0222419
0.0306814
-0.0319396
0.0166844
-0.00884102
-0.343385
0.0277997
-0.292363
-0.026292
0.0198984
0.0196928
-0.185439
0.0368072
0.0353459
0.0174605
-0.0212472
0.0742535
-0.292125
0.0275755
0.0642881
0.0382876
-0.0727674
0.0210443
0.0334494
-0.0158822
0.0226278
0.0243601
-0.309022
-0.425805
0.0228124
-0.0530845
-0.0542927
-0.0523346
0.05229
0.00770122
-0.243831
-0.0942681
0.0100967
-0.00116155
-0.0168316
-0.0147202
0.0155239
-0.384251
-0.0498129
-0.0211038
0.00429606
0.0106737
0.0502234
-0.250664
-0.0458393
0.0273136
-0.424689
0.0136503
-0.0990391
-0.0437868
0.0245394
-0.000291729
-0.0727581
-0.1053
-0.310741
-0.412243
0.079962
0.114033
0.0215834
-0.0249097
0.0562663
0.0216935
-0.395482
0.00624341
0.0234515
-0.112525
0.0227661
-0.224124
-0.0246034
-0.19146
0.00548341
0.0254595
-0.0295895
-0.0416282
-0.0517785
-0.0466276
0.0322828
0.0250591
-0.0731685
-0.0033555
0.0116392
0.0203174
-0.0106129
0.0300558
0.0812568
-0.126824
0.165411
0.0273931
0.0289706
0.0173327
0.0355946
0.15914
0.017013
0.00860892
-0.208547
0.00347876
-0.105163
-0.0832452
0.0290337
-0.423861
-0.0968216
0.0235356
-0.246545
-0.013253
0.0206237
0.0465571
0.0320934
0.0238785
-0.0256325
0.0511679
0.0100295
0.042053
0.0330125
0.00132846
-0.0362905
-0.075983
0.0325416
-0.0373009
0.000378041
-0.0697652
0.0448409
0.00871766
-0.00121184
0.0791772
-0.00249192
0.0214858
-0.307439
0.00309351
0.162597
0.0333501
-0.0253458
0.0109772
-0.0756461
0.0222983
-0.0998632
0.00472002
-0.240663
0.0245385
-0.301122
-0.00387346
0.0571009
0.0258714
0.0489391
0.0225099
-0.0241118
0.0299978
0.289388
-0.397072
-0.219221
-0.0360971
0.0760609
0.0180048
0.038242
-0.12024
0.019513
0.113188
0.0327903
-0.307414
-0.0779038
-0.372524
-0.0448398
0.0287533
0.0222014
-0.0402185
-0.0270222
-0.0505852
0.00541976
-0.00812355
-0.193096
0.0191857
0.0356963
-0.0389033
-0.304395
0.0549755
-0.0350735
-0.0692834
0.0255071
-0.299785
0.00570468
0.0177833
0.0230263
-0.00645627
-0.424961
-0.125655
-0.308775
0.0176692
-0.346395
-0.416875
-0.258568
-0.0512626
-0.133053
-0.213416
0.00955743
0.0459647
0.0290781
0.121482
-0.421885
0.0164745
0.0535893
-0.292643
0.0329345
0.0206504
0.0122779
0.0385792
0.0228099
-0.0143736
-0.177332
-0.348471
-0.0135346
0.0232678
-0.416404
-0.302684
0.018632
0.0358434
0.0188431
0.0269204
-0.305327
-0.124003
-0.0877947
0.0404501
0.0208058
-0.0075277
0.0758532
0.0281351
-0.0731133
0.0591946
-0.348022
0.0252193
0.0199291
-0.0288787
0.0164607
-0.0585956
0.106623
-0.0280435
-0.408872
-0.302767
0.0303046
0.0241651
-0.286503
-0.411819
0.0310473
-0.0124766
-0.262839
0.168098
0.106647
0.0451062
0.0170277
0.0170025
-0.138487
-0.0348198
0.185282
0.0209102
-0.34333
-0.319922
0.0333644
0.0281228
0.283566
0.0265999
0.0106482
0.0266554
-0.408032
-0.303007
-0.310375
-0.0192935
-0.125687
0.0107675
0.00704567
0.0109982
0.0264643
-0.144056
0.0209235
0.0330271
-0.124119
0.0511749
-0.130518
0.0184759
0.02765
0.00904145
0.0272431
-0.216007
0.0210438
0.0253601
-0.0973469
0.0660038
0.0656194
0.0231451
-0.171495
-0.302701
-0.296137
0.0595484
-0.427331
-0.424536
0.0325889
0.00439944
0.0446492
0.0777947
-0.299593
0.00239632
0.0201913
0.0212435
-0.299221
0.0380878
-0.0181749
0.0201689
0.0362575
-0.0615852
0.0112537
0.0125564
-0.067011
0.0393008
0.0263751
-0.00237258
0.0663926
-0.00695658
0.0346985
0.0302389
0.0278082
-0.208206
0.0229892
0.0504932
0.0287424
-0.0421801
0.168796
0.0207856
0.0646559
-0.015585
-0.302142
0.00488
-0.00368288
-0.0641828
-0.170689
0.2155
0.0593931
-0.380747
-0.288625
0.064531
0.00865779
-0.259412
0.0286931
0.0220426
0.00954098
0.0218445
-0.117208
0.0190986
0.0242303
0.118053
0.00672121
0.00453366
0.0968252
0.0727486
-0.332912
-0.0291622
0.0365448
0.02617
-0.114211
0.031226
-0.295052
-0.0349574
-0.389221
0.021213
-0.0355229
0.0183575
0.0279781
0.0377269
-0.186437
0.149846
-0.0657165
-0.385958
0.020683
-0.297102
-0.0336462
0.0029251
0.146772
-0.0635504
-0.304282
0.0284998
0.0779274
0.0717913
0.00643187
0.173301
0.0203718
0.00530894
0.0201273
-0.0548384
0.0265108
0.0200943
0.0103265
0.00985765
0.0218006
0.0238061
0.000876453
0.0211575
0.0267803
0.0675458
0.0241086
0.0914936
0.0319428
-0.299403
0.0242794
-0.337348
0.117959
-0.322211
-0.0716539
-0.0341987
-0.420216
-0.0784836
-0.0797241
-0.293661
-0.0622219
0.0213658
0.0186726
0.0229943
-0.214908
0.0131925
-0.417267
0.0216828
-0.379004
-0.299664
-0.0640036
-0.0235344
-0.425166
-0.338101
0.0818422
0.0323669
0.0258041
-0.0370983
0.00511648
0.00794457
-0.0847428
-0.185167
0.0286447
0.0140964
0.065573
-0.273587
-0.0779725
0.0256948
-0.0139796
-0.169524
0.0309344
0.0235895
-0.418836
0.0410026
0.0309656
-0.199143
0.0305169
0.0467754
-0.418236
-0.330724
-0.423821
0.035321
0.0501565
-0.256467
0.0101205
0.00487181
0.0240482
-0.0444896
0.0279807
0.0184037
-0.0227975
0.2098
0.0390162
0.0143239
0.0439009
0.0287071
0.00505867
0.042992
0.00610842
-0.205893
0.0235219
0.0339545
0.0303116
0.0127935
0.0185625
-0.00632133
-0.408739
-0.0603895
-0.00349461
0.0320752
0.158164
-0.294527
0.0296893
0.0185184
0.0301987
-0.00294155
-0.370772
-0.0687367
0.00562491
0.0178222
-0.060972
-0.0285676
0.0270464
0.0247299
0.0324424
-0.00727964
-0.0462828
0.0438806
-0.289658
-0.0492247
0.0282587
-0.0319451
-0.382809
0.0704251
-0.196514
-0.00327488
-0.256226
0.0215529
-0.0167513
-0.0408114
-0.117948
0.0357431
-0.0104192
0.0233283
-0.0241649
0.182641
-0.0592842
-0.240675
-0.0219542
0.0171188
0.0371197
0.0329471
0.0350435
-0.279243
0.0298235
0.00535804
0.0320196
-0.0292371
-0.324272
0.0167253
0.0170255
-0.165945
-0.00839582
0.028125
0.036699
-0.16065
-0.0161766
-0.0466377
-0.406289
0.0314441
0.0266779
-0.305025
0.0178491
0.0379079
0.0142894
-0.00730908
0.00111217
0.0444031
0.0206308
-0.0173916
-0.0263432
-0.382129
0.0315008
0.0199712
0.061347
0.078226
-0.239083
-0.386574
-0.0321566
0.0220034
-0.282639
-0.011351
-0.336672
0.0264866
0.0147001
0.00326044
-0.423997
0.0220027
0.0448459
0.027182
-0.0757665
-0.303878
0.0148458
-0.0984517
0.0332393
0.0202787
-0.0737755
-0.0330928
0.0169997
-0.0274502
0.0318978
-0.296905
-0.418832
0.0263397
0.0767492
0.0235166
-0.247996
0.0253478
-0.4034
0.0326898
-0.00596195
0.00535491
-0.00559536
-0.0313853
0.0193573
0.0301513
0.0508125
-0.263362
-0.171288
0.00771512
-0.0371243
-0.0354876
0.0158844
-0.00751209
0.110179
-0.00117351
0.0464037
0.0824803
-0.0541718
0.019415
0.017775
0.0652754
-0.00157217
-0.197852
-0.00435751
-0.11905
0.0491396
0.0287233
-0.0111172
-0.0856359
-0.0218141
0.0129421
-0.0385576
-0.144878
0.045287
0.0133303
-0.0299798
0.0190547
-0.427679
-0.0483093
0.00857825
-0.421771
0.0781345
-0.0761259
-0.174155
0.0177948
-0.0557877
-0.419442
-0.0470573
-0.181638
-0.00722066
-0.0150005
0.0149167
0.045823
-0.0481121
0.00778559
0.179426
0.0236303
0.0453549
-0.0645445
0.0321326
-0.110902
-0.0350188
0.0180076
0.0208948
0.114226
-0.162088
0.00220366
-0.0695278
-0.417595
0.191107
-0.00703203
-0.0482087
0.0190417
0.00730322
-0.364637
0.0182789
0.012485
-0.11484
0.0293726
-0.0493992
0.00266343
0.024935
-0.306402
0.00610059
0.00523876
-0.0166704
0.0359666
-0.00346644
0.0192372
-0.369924
0.0476709
0.0200459
-0.00097442
-0.147143
0.0632198
0.00104981
0.0373245
0.0366631
0.0354464
0.0365394
0.00747166
0.0278404
0.0123949
-0.0449219
-0.0686766
-0.0290853
0.0796653
-0.0861788
-0.150027
0.111202
0.110984
0.0611628
-0.290155
0.0446579
0.0100458
0.0167294
0.0191199
0.0569667
0.0145809
-0.34535
-0.415955
-0.278324
0.020714
-0.0186941
-0.00910069
0.000190389
0.170704
-0.0110626
-0.285557
-0.115737
-0.41201
-0.149138
-0.202892
-0.304031
0.00350531
-0.0276146
-0.0037958
0.0106189
-0.298312
-0.00855061
0.101541
0.0159877
0.0301715
0.0274636
-0.385248
-0.298006
0.0203292
-0.423189
-0.30102
-0.193784
-0.105728
-0.133624
0.00549829
-0.413539
0.0317775
-0.285845
-0.415587
0.0206033
0.0335722
0.0193187
0.0602409
-0.0407499
-0.0710588
-0.215411
0.0205369
0.0277217
-0.0256423
-0.0145566
0.0181807
0.0218843
0.0191705
0.0281978
-0.168945
-0.135701
0.0272067
-0.290418
-0.0266772
0.0260508
0.0851937
-0.251034
0.0354937
0.00997141
-0.186623
-0.20176
-0.00429855
-0.0151517
-0.31331
-0.123054
-0.40854
0.0138802
-0.190935
-0.341793
-0.368275
0.0234996
0.0370325
-0.116452
0.0583062
-0.0326118
0.0424179
-0.40206
-0.112988
-0.224643
0.0300518
0.0182594
-0.424226
-0.167324
0.0255392
0.0261959
-0.420625
0.0352868
-0.00180758
-0.0103329
-0.0279077
0.0204304
0.106497
0.0461473
-0.0344759
0.0048991
-0.0725884
-0.397114
-0.0838739
-0.0699089
-0.357967
-0.156961
0.00360664
0.00782835
0.00840011
0.019082
-0.200105
0.110814
-0.0157557
0.0301647
0.0325169
0.00629005
0.0752898
0.00533167
0.0882634
-0.0361703
0.0222133
-0.296614
-0.383988
0.0219468
-0.290143
0.0553802
-0.0455642
0.02599
0.00314771
-0.418492
-0.152818
0.0184477
0.00932141
0.0364617
-0.0384939
0.0213679
-0.183486
0.00298351
0.0284923
0.0097864
-0.300263
-0.419145
-0.00216492
0.0513574
-0.139622
-0.0908429
0.0824226
-0.303219
-0.392045
-0.00961421
0.0198848
0.0506672
0.0529921
-0.302399
0.0279283
0.0209268
-0.212339
-0.175416
0.0264092
0.0356099
0.260969
0.0206373
0.0280116
-0.179966
-0.155379
-0.421942
0.018222
-0.0877948
0.107188
-0.11537
0.0781155
0.0312241
0.0265986
0.00373263
0.115877
0.0246778
0.0285544
3.0067e-05
-0.419833
0.00120928
0.0183758
0.000563376
-0.0620225
0.0249681
0.0197365
0.00305388
0.0265335
-0.305997
-0.367829
0.0511547
-0.272436
-0.368316
-0.416374
0.0295227
0.0446554
0.0176779
0.0314782
0.0274739
0.0258765
0.00600616
0.0196154
0.0125751
0.0807916
-0.364285
0.0182333
-0.216095
-0.0618752
0.0233226
0.055251
-0.0162171
0.0505016
0.0214511
-0.0164449
-0.00770179
-0.305755
-0.0968761
-0.00191937
-0.363607
0.0228945
0.00108077
0.00659001
-0.240461
-0.101598
0.0749323
-0.00741637
0.0288452
0.0239631
0.0972471
-0.0928815
-0.0434391
-0.280042
0.0240052
0.0172619
-0.294929
-0.00683501
0.0207538
-0.197157
-0.0227637
-0.0371854
-0.234896
-0.141781
-0.427535
0.0149213
-0.00875319
0.0197673
0.0294979
0.0283417
-0.00324937
-0.0941734
-0.066674
-0.41682
0.0215744
-0.287307
-0.319309
-0.0315743
-0.321406
0.041035
-0.179425
-0.422424
0.018174
-0.171694
-0.00432417
0.0897161
0.020718
-0.22165
0.0250194
-0.27183
-0.0735869
-0.389229
0.0178281
-0.20943
-0.00674973
-0.024428
-0.232821
0.0174376
-0.424206
-0.368502
-0.228603
-0.32473
-0.166132
-0.417175
-0.063192
0.0298784
-0.00940933
-0.108848
-0.306284
0.0232956
0.0170786
-0.00977739
-0.0926144
0.0456588
0.0457021
0.0338814
-0.418525
-0.30479
0.0370854
-0.331219
0.00514844
0.0102168
-0.0294063
0.0477694
-0.306288
-0.0176346
0.00934108
0.208376
0.0288165
0.0190154
0.0203013
-0.196018
-0.137741
-0.00369485
0.0607527
0.0280027
0.0207475
0.0128598
-0.419957
0.0253471
0.0129489
-0.26789
-0.227511
-0.0334802
0.00486281
-0.303131
0.0706934
0.0521109
0.0281342
0.0835674
-0.02293
-0.0512045
0.0116007
-0.281663
-0.0271178
-0.133167
-0.0015503
-0.0457502
-0.0738708
-0.0506848
0.0477067
-0.315859
0.0191333
-0.190937
0.0271287
0.0262621
-0.0430616
-0.215498
-0.0268052
-0.0414719
0.0221795
0.0528722
-0.139822
-0.136568
0.032416
0.0213957
0.0168913
0.113877
-0.127291
0.0258231
-0.101804
0.0235964
0.0290241
-0.39094
0.0321241
-0.41885
0.0451107
0.106309
-0.131075
0.0311482
-0.0586178
-0.126062
-0.184993
0.023663
-0.120025
-0.021459
0.0235049
0.0348802
-0.425033
-0.301006
0.0291052
0.0368671
-0.00627882
0.0171681
-0.17074
-0.297344
0.027395
0.11347
0.0101957
0.0129678
0.0226713
-0.25242
0.00960048
0.0354515
0.0318024
0.014694
0.0377602
0.0197621
0.0202205
-0.0683309
-0.332582
-0.00421123
0.0303801
0.193196
-0.147659
0.0153678
-0.284685
-0.116893
0.0143402
-0.00358484
-0.0175889
-0.175975
0.00460003
-0.126371
-0.0153699
-0.0291244
0.0144032
-0.107827
0.00312073
0.0567305
0.0451297
0.0466714
-0.271392
-0.262943
0.00210845
0.0255005
-0.426292
-0.195644
-0.150504
-0.0298144
-0.12882
-0.00385445
-0.390782
-0.0875423
-0.00946279
-0.30997
-0.325335
0.0467104
-0.0857338
-0.122256
0.00904452
-0.35356
0.0441032
-0.053894
-0.0361918
0.0390511
0.0180068
0.0468484
0.0220109
0.0158808
0.0211951
-0.238774
0.0184224
0.0157564
0.00821647
0.0229534
0.0185626
0.0233269
-0.110199
0.211415
-0.0331688
0.0235008
-0.311437
0.033302
0.0128754
0.0288207
-0.00582352
0.0278125
0.0170872
-0.0609897
-0.160784
0.02633
-0.0663138
0.119077
0.00327688
0.0403474
-0.303289
-0.000288542
0.00366712
0.0260861
0.231297
0.023374
0.0200659
0.0119589
0.0355947
-0.272912
-0.421538
0.0145951
0.0145095
0.0234388
0.0960645
0.00357341
0.0157576
0.100632
-0.0315403
0.0426824
0.0723863
0.0274576
-0.186131
-0.201216
-0.0265306
-0.0737138
-0.00261465
-0.382211
0.0261781
0.023435
-0.381493
0.095192
-0.000917941
-0.186911
0.202208
-0.400024
0.081941
0.250519
-0.0455635
-0.0403534
-0.42323
0.0458533
-0.179517
-0.0517708
-0.197562
-0.377767
0.0251909
0.0412465
0.0273544
-0.169517
0.00299692
-0.416494
-0.0825325
-0.409427
0.0637359
0.218219
-0.23901
0.015997
0.0377997
0.215801
-0.00758817
0.028458
-0.0292665
0.060938
-0.155245
-0.159045
-0.170094
-0.415089
-0.16579
0.0194332
0.0198308
-0.294237
0.187751
0.00999661
0.0245518
-0.329826
-0.00171538
-0.0352138
0.0249524
0.0382656
0.0195163
0.0202375
0.186217
0.0482107
0.00629145
-0.410829
-0.399387
0.0102559
0.0710495
-0.052343
-0.205918
0.0251954
-0.0147015
0.0187719
0.125083
-0.358306
0.0297361
0.106837
0.00823802
-0.291283
0.021112
-0.0287478
-0.246742
-0.239417
0.0253577
0.0803522
-0.146641
-0.129201
0.0596022
0.017749
-0.386528
0.018906
-0.0482883
0.0472264
-0.0596248
-0.00152832
-0.00466695
-0.00314213
-0.146098
0.0192908
0.0179689
0.00109954
-0.0149698
0.0222964
0.00848775
-0.172297
-0.330477
-0.301816
-0.0439066
0.0292055
0.129302
-0.0299154
-0.421716
0.0236932
0.141213
0.00532055
0.0315065
-0.019991
-0.064316
-0.30054
0.0337586
-0.396101
-0.0131652
0.00225823
-0.00674375
-0.28845
0.0483604
0.199357
-0.415319
0.0258422
0.0480862
-0.424781
0.0317427
-0.353196
0.0284486
-0.0724788
-0.361084
-0.0242975
0.0257208
0.0144302
-0.41409
-0.0520529
0.0258017
0.138148
0.0268154
-0.0249831
-0.163723
-0.416323
-0.0280284
-0.355517
-0.339871
0.0448551
0.0345968
0.0614075
-0.245758
-0.0108174
0.0248349
0.0250072
-0.0458772
0.202127
0.0275106
0.067961
0.0202493
0.0246374
-0.298795
0.0223921
-0.421024
-0.0010508
-0.0475846
-0.0870471
0.013242
0.00205704
-0.378745
-0.411544
-0.133406
0.0256563
-0.0106347
-0.0715373
0.0126466
-0.079392
-0.182063
-0.0931566
0.00320795
-0.422892
-0.414583
0.00461664
0.0197098
0.00732886
0.0199125
-0.0254386
-0.0433741
-0.381508
0.0193616
0.0336291
-0.069635
-0.413597
-0.00129667
-0.317377
-0.0042082
-0.201935
-0.131044
-0.295487
-0.0891285
0.103512
0.10969
-0.00226947
0.00268058
-0.247739
-0.00161511
0.0258213
-0.326022
0.0208431
0.0275368
0.00458141
-0.114199
-0.0638657
-0.304582
0.19655
-0.0591233
-0.0103117
-0.0150329
-0.420762
-0.197794
0.00476676
0.0310057
-0.000817195
-0.127054
-0.379315
0.0520776
-0.371649
0.0773266
0.0108313
-0.420197
0.029766
-0.373946
-0.357904
0.00596992
-0.0242365
-0.19962
0.0366702
0.0681568
0.0157586
-0.414086
-0.050899
0.0148328
-0.421454
-0.345903
-0.0568545
-0.0445908
0.0240775
-0.196144
-0.421979
-0.0265753
-0.0342013
-0.419174
0.108217
0.0679893
0.0190934
-0.288334
-0.422103
0.218065
0.0427246
-0.0528454
0.0194294
-0.343456
-0.151426
-0.0711936
-0.311535
-0.388935
-0.00270386
-0.21469
0.0241746
-0.336644
0.117552
-0.0436915
-0.0421988
-0.32097
0.00219364
-0.0983462
-0.427433
-0.335885
0.0089603
0.0196019
0.0132708
-0.0109016
-0.338423
-0.224858
-0.379645
-0.118127
-0.0686364
0.00627183
-0.383301
-0.15548
0.0287902
-0.00664179
-0.4194
-0.424259
-0.424401
-0.42204
-0.370692
-0.422641
0.0265722
0.0970407
-0.0558428
-0.0121009
-0.420514
-0.317846
0.0194344
-0.285414
0.0242969
0.0316147
0.0121906
-0.0693465
0.0214587
-0.378303
0.225275
-0.208274
-0.00827503
-0.298247
0.100458
-0.261662
-0.424009
-0.0242325
-0.0574983
0.004016
0.198657
7.01442e-05
-0.00454051
0.0195568
-0.394803
0.0135555
0.00262649
-0.147582
-0.0315311
-0.416969
0.0180888
-0.417069
0.033903
0.0188017
0.0262612
0.03151
-0.0462743
-0.00869673
-0.419277
0.0779875
-0.0698608
-0.291932
0.0149233
-0.394518
0.0155129
-0.375582
-0.240735
-0.413382
-0.14317
0.0256913
0.026352
-0.292439
-0.0159198
-0.0480233
0.0241412
-0.0619877
-0.407598
0.0146374
0.0198402
0.0298736
0.0263823
-0.352737
-0.363803
0.0113657
0.00242217
-0.37378
-0.378245
0.022031
-0.312799
0.0261578
-0.386591
-0.397791
-0.119162
-0.174615
0.160729
0.153106
-0.419312
-0.11669
0.0445584
0.000834345
0.0131646
-0.383008
-0.36095
0.00699996
0.104431
-0.421354
0.0219069
-0.422879
-0.0110347
-0.0142015
-0.000259596
-0.330065
-0.119615
0.0041028
-0.41371
0.0190912
-0.277302
-0.288161
0.00430592
0.028001
-0.19157
0.033459
0.00315908
0.014672
-0.302872
0.0690787
0.0192713
0.0220261
-0.319422
0.0421372
-0.00547017
0.0272498
-0.41911
0.0203738
-0.0671237
0.00312253
-0.420315
-0.284474
-0.0318681
-0.129904
-0.127909
0.0277204
-0.0783982
-0.415234
0.000776437
-0.162796
0.0125236
-0.298694
0.0271674
-0.411157
-0.333354
0.0876994
-0.410749
-0.414618
0.181366
-0.0230779
-0.347342
0.0167598
-0.420709
0.0752903
-0.327423
0.023769
0.0592597
-0.0868497
0.0857785
0.0449749
0.0454556
0.0201602
-0.417755
-0.155257
-0.41024
-0.299111
0.102752
0.00267183
0.0268402
-0.387382
0.0687475
0.00174636
0.0217571
-0.359076
-0.31913
-0.380491
-0.409025
-0.0688261
0.0459838
0.0134708
-0.120174
-0.109185
-0.314284
0.0273948
0.0279791
-0.421414
-0.143391
0.0215576
-0.122123
-0.324175
-0.186714
-0.00532373
0.0659176
-0.306158
-0.330404
-0.281958
-0.226946
0.0295564
0.0247144
0.00278263
0.0212301
0.0438847
0.0275813
0.0486302
0.0856144
-0.0598497
-0.0517303
0.0137774
0.0268667
0.0705055
-0.0230995
0.024476
0.0658809
0.0140919
-0.000921488
0.0346987
0.0143686
0.0254874
0.0277991
-0.23335
-0.000802173
0.0759394
-0.305751
-0.310319
-0.418046
-0.374891
0.00875583
0.019018
0.0228471
-0.293891
-0.0112841
0.00120816
0.0250765
-0.292582
0.0845682
-0.0727041
-0.260058
0.0512547
0.029498
-0.0149971
0.0214498
0.0541184
0.0261733
0.0440847
0.0120846
0.0330735
0.0152058
0.0473913
-0.0423201
-0.303811
-0.0892285
-0.0911378
-0.13731
-0.182569
-0.0802342
-0.147077
-0.0116423
-0.408426
0.0995281
0.0731861
0.033939
-0.0250864
-0.107368
0.0323945
-0.0466726
-0.419948
0.130305
0.268187
-0.17674
0.0161118
-0.0836278
-0.0251204
0.034258
-0.0277037
0.0272987
-0.125819
-0.0862033
-0.295089
0.0120268
-0.086858
0.105751
-0.324061
-0.254219
-0.108851
0.0261174
-0.111516
0.0040316
-0.147466
0.0153331
-0.296529
0.00398742
0.104365
0.0251559
-1.6711e-05
-0.177615
-0.0172443
-0.311881
0.0292326
-0.0482167
-0.0156514
0.0257693
-0.274448
-0.375452
-0.210464
-0.0838546
-0.102449
-0.0101727
-0.00331395
-0.308198
-0.165018
-0.00634129
-0.0228631
0.103262
0.0364617
-0.264254
0.00987222
-0.367917
-0.21
-0.203701
-0.0226663
0.0489943
0.00560018
-0.00522746
-0.180435
0.141604
0.110293
-0.421333
0.0257466
0.0708573
0.0979196
-0.294648
-0.00231601
-0.24583
0.00234143
-0.354655
0.0201011
0.0277213
0.1656
0.0179483
0.0426596
-0.207452
0.043584
0.0384998
-0.00211492
-0.0805427
0.00481764
-0.302831
0.0318003
0.0412316
0.0144505
-0.197997
0.0158385
0.109462
-0.100101
-0.291238
-0.32642
-0.25039
0.0943866
-0.276506
-0.0743665
0.0648916
0.113248
0.0231451
0.0277958
-0.403522
0.0847059
0.00364088
0.0264244
0.019571
-0.0566142
-0.136886
0.0264246
0.131638
-0.19191
-0.209441
-0.0836354
0.024322
0.0190438
-0.301652
-0.0343003
-0.00366483
-0.30255
-0.284783
0.00505573
0.000379185
0.0547724
0.0284789
0.17732
0.0189922
-0.252483
0.026296
-0.303297
0.00454416
-0.418892
-0.022226
0.0309243
-0.0985867
-0.000301055
-0.0148889
0.0262717
-0.0630163
-0.296158
0.0233881
-0.212584
0.0218947
0.0196136
0.199968
-0.0081258
0.0209007
0.0200299
0.00283781
0.0276154
-0.00144927
0.0245674
-0.26922
0.0196318
-0.00313517
-0.00515814
0.00164929
0.0303556
0.0256213
-0.0010216
-0.325896
0.215096
0.00256151
-0.0268625
-0.0127232
0.026333
-0.20797
0.0187257
0.0188399
-0.422364
0.0253608
-0.106186
-0.0883239
0.0457867
-0.0112089
-0.221323
0.0306092
-0.238281
0.223382
-0.0117521
-0.285135
-0.311774
0.121562
0.0528075
0.0157757
0.0290227
0.0712277
-0.220938
-0.000837562
0.0149454
-0.00390985
-0.0742844
0.0254651
0.00550032
0.0236968
-0.100604
-0.264048
0.0233845
-0.197925
0.019231
-0.0315179
0.00571076
0.00280726
0.00665367
0.0341063
0.0211958
0.00335968
0.0434776
0.0397811
-0.113398
-0.0133163
-0.346962
0.00320096
0.013139
-0.153472
0.0233296
-0.180025
-0.119543
-0.018774
-0.0141339
0.0191467
-0.0133122
-0.0324201
0.0457467
0.16
-0.0484993
0.038081
0.00262548
0.0615234
-0.289152
-0.0127801
0.0348549
-0.300208
-0.219096
-0.00343797
0.00431237
-0.361247
0.0216059
-0.0307563
0.0594669
-0.17117
-0.00630535
0.012148
0.0956654
0.0404318
0.0196172
0.00480601
0.0194245
-0.133929
0.0262164
0.0250254
0.0191798
-0.0175387
-0.271694
0.0171147
-0.416437
0.262304
0.000670313
-0.303024
-0.240402
-0.0111464
-0.0273422
-0.11573
0.015068
0.0353743
-0.299426
0.017658
-0.329402
0.106224
0.00585655
0.0706447
-0.0217504
0.0278018
-0.0102672
0.218274
0.068512
0.0194806
0.0292965
-0.017885
-0.417612
-0.0117268
0.0132133
0.122343
-0.20394
0.18715
0.0227629
-0.00142629
0.0452918
-0.00900743
0.0722154
0.0662951
-0.0560418
-0.289513
-0.00975901
-0.0240121
-0.325641
0.0173515
-0.098464
-0.21524
0.0263978
0.0236831
-0.208311
-0.161854
-0.141254
-0.422019
-0.297307
-0.215091
-0.278562
-0.00886666
-0.0310451
0.00867944
0.0256636
-0.293392
0.0500708
-0.126938
-0.079524
-0.0422893
0.0720198
-0.298044
0.027708
0.0234767
0.00147895
0.0286957
0.0295575
-0.00464676
-0.0155601
-0.145298
0.0338355
0.0487745
0.0113112
0.119215
0.0192328
-0.299948
0.0348534
-0.0273616
0.0134294
0.0263925
0.0134212
0.0135303
-0.0394995
0.0736032
0.0306319
-0.00381569
0.00326479
0.0231482
0.0283728
0.126196
-0.0157825
0.0297304
0.0292087
0.0287202
-0.0617178
0.0302743
0.030869
-0.169408
0.0282567
0.0261299
-0.0366216
-0.306722
-0.121663
-0.021948
-0.0930198
-0.384711
-0.175035
-0.220736
0.0449319
0.0057531
-0.0544679
-0.192382
-0.001706
-0.209102
-0.0200296
0.0156841
-0.0108606
0.0246102
-0.150461
-0.158377
-0.14197
0.0111356
0.0158034
-0.0235329
0.0526536
0.0776338
-0.0101592
-0.0286671
0.102783
0.173168
-0.116855
0.0223564
-0.0290626
-0.308315
0.074843
0.0233338
-0.424125
-0.292978
0.0180217
-0.0181756
-0.0281299
-0.154737
-0.423711
0.0310244
-0.251563
-0.284442
0.175289
-0.13305
-0.00790419
-0.0253024
-0.0240031
-0.155659
0.0264533
0.128331
-0.0335813
-0.232986
0.0267276
0.0290224
-0.289134
-0.0339712
0.0759995
0.00286794
0.0266113
-0.0423355
-0.390284
0.0109835
0.0297271
-0.306252
-0.102804
-0.01558
0.0329727
0.0206404
0.00946269
-0.0088314
-0.205691
0.0271283
-0.00554725
0.068229
-0.114461
0.0480578
0.00926915
0.0266517
0.00414552
0.0140071
-0.138203
-0.0126096
-0.0232547
0.00696734
0.0218876
-0.399823
-0.0580558
-0.0164753
-0.419663
-0.0219306
0.0348828
-0.354998
-0.116444
-0.404405
0.0289968
-0.0298081
0.0259147
-0.0199851
0.0029423
-0.422539
-0.0218298
-0.160261
-0.00482453
-0.0163474
-0.028951
0.000627579
0.138948
-0.320056
-0.297764
0.0268864
0.00983403
-0.243911
0.0704955
-0.00189667
0.05243
-0.0554098
-0.274303
-0.135734
-0.00450268
-0.298598
-0.10633
0.0395069
-0.00384074
-0.0118345
0.0924741
-0.414109
0.0255901
-0.0754074
-0.0262755
0.0278345
-0.00331995
-0.0186049
-0.420416
0.10382
0.00106883
0.0388584
0.0283074
0.10237
-0.000132925
-0.0283644
0.00671149
-0.028384
-0.276789
0.0286024
0.0260247
-0.164732
-0.000559708
-0.00280397
-0.287963
0.0230491
-0.420694
-0.418931
-0.421843
0.0414041
0.0439742
0.00156869
0.0191783
0.00105893
0.0221468
-0.201432
-0.111973
-0.271314
-0.166287
0.0147031
-0.00378685
-0.0287922
0.00838136
0.0263614
0.0397869
-0.00248661
0.0167884
-0.0113729
-0.400426
0.0287105
0.0171941
0.0220603
-0.00540434
-0.292956
0.0157136
0.126815
0.00122965
-0.116529
-0.0303312
0.0277401
-0.108597
0.0025483
-0.0321816
-0.420425
0.0305592
0.0353502
0.0350759
-0.286949
-0.425117
-0.00679322
0.00492813
-0.0323298
0.0425757
-0.00727872
0.0170295
0.0185947
0.0316112
0.0202027
0.0153933
-0.0286981
-0.374261
0.161435
0.0311478
0.0343007
-0.0167614
-0.00935184
0.0269841
0.0540736
0.118244
-0.421118
-0.0409028
0.0360681
-0.0207745
0.0280849
-0.166564
-4.06336e-05
0.0231439
0.073276
-0.0217338
0.0992188
-0.397046
0.0119893
-0.0508251
0.0247074
0.0118768
0.0280994
-0.0057936
-0.029449
-0.176358
-0.162344
0.00161383
-0.0881571
-0.155347
0.026351
-0.0741256
-0.0572955
-0.339993
0.0190377
0.0269498
-0.0224615
7.53273e-05
-0.150773
0.027554
0.0300873
-0.0750212
-0.215134
-0.193788
0.00519433
0.0315222
-0.424002
-0.411691
-0.00445417