/*--------------------------------*- C++ -*----------------------------------*\
| =========                 |                                                 |
| \\      /  F ield         | OpenFOAM: The Open Source CFD Toolbox           |
|  \\    /   O peration     | Version:  v2012                                 |
|   \\  /    A nd           | Website:  www.openfoam.com                      |
|    \\/     M anipulation  |                                                 |
\*---------------------------------------------------------------------------*/
FoamFile
{
    version     2.0;
    format      ascii;
    class       volVectorField;
    location    "550";
    object      U;
}
// * * * * * * * * * * * * * * * * * * * * * * * * * * * * * * * * * * * * * //

dimensions      [0 1 -1 0 0 0 0];


internalField   nonuniform List<vector> 
9793
(
(0.961935 -0.0157137 0)
(-0.167313 -0.00545193 1.12191e-19)
(0.992227 -0.00671903 -1.06064e-20)
(-0.0409368 0.105896 1.73714e-19)
(0.999951 -0.000609537 7.83068e-21)
(1.23126 -0.0259314 0)
(1.12171 -0.232013 -6.02972e-20)
(-0.107666 0.049456 0)
(1.02132 -0.0382051 0)
(-0.0636433 -0.0024302 -1.09598e-19)
(1.00005 -0.00194851 0)
(1.00004 -0.00209838 8.24545e-21)
(1.0021 -0.00923338 0)
(-0.078104 0.145261 1.02062e-19)
(1.01993 -0.0226465 4.24834e-21)
(1.06695 -0.00331414 2.0819e-20)
(1.13964 -0.0697563 0)
(0.994449 -0.00898321 0)
(-0.0673136 -0.0682107 1.05175e-19)
(1.01772 -0.00498773 1.29545e-21)
(1.02347 -0.00978207 2.85576e-21)
(0.999993 -0.000150791 -7.95445e-23)
(-0.0412153 0.155015 1.17127e-22)
(-0.0977705 0.0469824 1.04835e-19)
(-0.0523406 0.143141 3.69726e-20)
(0.921318 -0.057421 -4.46668e-20)
(1.00001 -0.00359645 0)
(1.00002 -0.000511266 2.76625e-21)
(1.01758 -0.00526669 1.02266e-21)
(1.16519 -0.140394 0)
(-0.305359 0.0183972 -8.32271e-20)
(1.26802 -0.0446812 -2.30977e-20)
(0.996426 -0.00355555 -7.97138e-21)
(0.997207 -0.00913644 -1.37355e-20)
(1.00542 -0.000546345 -4.87496e-21)
(1.0818 -0.0325618 -2.30952e-22)
(1.06167 -0.00813727 1.87622e-20)
(0.914806 0.00339144 0)
(-0.145022 0.0560544 -6.46832e-20)
(1.07966 -0.0733914 2.76767e-20)
(1.15498 -0.137848 0)
(1.01224 0.0429861 -7.33351e-20)
(-0.108252 0.0230269 0)
(1.00002 -0.000367396 9.50948e-22)
(0.992245 -0.000351602 3.03937e-21)
(0.996593 4.94645e-05 0)
(-0.242851 0.0431392 1.19279e-19)
(1.00002 -0.000335469 0)
(1.03196 -0.00773047 -3.33176e-21)
(0.994206 -0.0084638 0)
(1.08164 -0.0298363 2.17413e-20)
(1.00582 -0.000674233 1.33908e-21)
(1.10566 -0.0471497 -2.33979e-20)
(1.00001 -0.000660445 0)
(0.9034 -0.119399 0)
(-0.0487851 0.101417 -8.2523e-20)
(1.00242 -0.00835717 6.18967e-21)
(1.15127 0.0199118 0)
(1.0318 -0.00846132 1.09771e-20)
(1.00001 -0.000180673 -7.28011e-21)
(0.899999 -0.0159381 7.18415e-20)
(0.83719 -0.333161 3.31212e-20)
(0.993899 -0.00652285 1.46365e-22)
(1.089 -0.00500676 -2.53546e-20)
(1.00292 -0.00126906 0)
(1.02049 -0.0366157 0)
(-0.212709 0.0248153 -1.60281e-19)
(1.05382 -0.0468441 -2.19598e-20)
(1.0629 -0.00560025 0)
(0.0401242 0.00780426 0)
(0.978592 -0.0106912 0)
(0.584575 0.0280788 7.36915e-20)
(-0.150803 0.0569581 1.48043e-21)
(0.478849 0.224839 -2.14809e-20)
(0.160015 0.0474567 6.41254e-20)
(0.999985 -0.000794029 4.35505e-22)
(0.801756 -0.13257 6.2395e-20)
(0.819831 0.0207134 -1.98835e-19)
(0.994638 -0.00347726 0)
(0.999981 -0.00056598 0)
(0.78591 -0.134957 -9.47735e-20)
(-0.0685939 -0.0635542 -1.82912e-19)
(1.13444 -0.0644482 0)
(0.981045 -0.0700187 -7.66894e-21)
(1.06325 -0.00708209 -4.02605e-20)
(1.25692 -0.153788 1.1273e-19)
(0.999967 -0.000698563 8.80731e-21)
(1.10691 0.0315307 -5.0908e-20)
(-0.151595 0.0644319 0)
(0.82221 -0.314307 4.55184e-21)
(-0.0569567 0.13169 2.74378e-22)
(1.35705 -0.180086 2.79217e-19)
(1.35423 -0.192341 -8.56351e-20)
(1.09099 -0.121326 2.41882e-20)
(-0.099096 0.00722913 0)
(0.996015 -0.0125489 3.86593e-21)
(0.206715 0.0501079 0)
(1.13166 -0.0900789 8.42621e-20)
(1.04235 -0.0667204 -1.49874e-20)
(0.999968 -0.000511195 -1.91832e-21)
(-0.128402 0.108138 -2.99003e-20)
(1.10167 -0.047874 0)
(-0.0927774 0.228219 0)
(0.992794 -0.000331977 1.38684e-20)
(0.0619766 0.0877922 -5.70258e-20)
(0.504664 0.0440685 1.44023e-20)
(0.574389 0.190839 1.87081e-20)
(1.00464 -0.00721988 5.92252e-22)
(0.994636 -0.00307012 0)
(0.999986 -0.000272907 9.91034e-21)
(1.0001 -0.00102399 0)
(-0.0478191 0.147878 -5.40444e-20)
(0.0919462 -0.115358 2.67624e-19)
(-0.296665 0.0115244 -7.28525e-20)
(0.979507 -0.0112821 0)
(0.999094 -0.00256875 0)
(1.05679 0.00201486 1.08032e-20)
(0.996919 -0.000823161 -8.47133e-21)
(-0.06341 0.0871518 5.6177e-20)
(0.996021 0.000562242 1.99346e-20)
(-0.0238673 0.104021 0)
(1.11253 0.03419 -5.4568e-20)
(0.407618 0.0647536 2.06489e-20)
(1.11435 -0.0266485 0)
(1.06194 -0.00986748 1.67752e-20)
(0.996228 0.000706261 -1.65394e-20)
(1.14874 -0.0829946 0)
(-0.28468 0.0189897 1.43986e-19)
(1.10278 0.100388 0)
(1.09364 0.10237 -1.16955e-20)
(1.05826 -0.023735 0)
(1.00696 -0.0148985 0)
(0.963728 -0.0167947 2.70472e-20)
(1.0484 -0.0420225 8.38895e-21)
(1.07706 -0.034738 0)
(1.19784 -0.233442 1.35676e-19)
(1.24864 0.0255734 8.04788e-20)
(1.05744 0.000707035 6.91534e-21)
(1.00001 -0.00059323 0)
(1.15282 -0.0570404 7.20927e-20)
(-0.0652613 -0.0542324 1.26237e-19)
(1.08024 -0.0343727 -2.94513e-20)
(0.984504 -0.0196594 0)
(1.10417 0.0173062 4.90461e-20)
(-0.22905 0.0462977 0)
(1.14246 -0.453144 -1.05909e-19)
(0.996268 0.00132079 1.44133e-20)
(0.184617 0.0490774 6.43077e-20)
(1.00668 -0.0152715 0)
(0.996086 0.00113079 -2.40513e-20)
(0.999144 -0.00387806 0)
(0.113672 -0.054271 0)
(1.04009 -0.0640657 0)
(0.999929 -0.00359623 0)
(0.985319 -0.00311718 -1.29389e-21)
(1.35856 -0.228065 -2.68356e-19)
(1.14612 -0.0669934 6.03862e-21)
(0.993932 -0.0071212 0)
(1.27936 -0.0398462 6.01265e-20)
(0.984452 -0.0114447 0)
(1.10798 0.0246129 2.74447e-20)
(1.05957 -0.0254006 -5.78015e-21)
(1.02317 -0.0102573 -5.45547e-21)
(0.584866 -0.427492 -1.73587e-19)
(1.03918 -0.0175407 -6.84618e-21)
(1.04416 -0.001704 -5.43642e-21)
(-0.0739966 0.193057 -4.57992e-20)
(1.04146 -0.021338 -2.3726e-20)
(1.00468 -0.0066105 -3.11968e-21)
(1.00001 -0.00161375 -8.62017e-22)
(0.98349 -0.0191052 -2.30412e-20)
(-0.221914 0.000690625 0)
(0.31693 -0.173784 0)
(-0.213207 0.162605 7.79184e-20)
(1.00236 -0.00966606 0)
(1.22271 -0.0240962 -6.58283e-20)
(1.02435 -0.364086 -8.16343e-21)
(0.550602 -0.526998 3.77735e-20)
(0.994167 -0.00440258 1.34638e-20)
(1.05521 -0.0422557 -1.12431e-20)
(0.124647 0.0980034 0)
(-0.247683 0.0402205 -1.16252e-19)
(1.11169 0.0399495 4.72082e-20)
(0.996274 -1.75166e-05 0)
(0.997549 -0.000434356 8.13715e-21)
(1.00487 -0.0070189 -2.63587e-22)
(0.537986 0.0741945 -1.25197e-19)
(-0.17467 0.0528085 0)
(0.822232 -0.395291 0)
(-0.0867595 0.253532 5.49758e-21)
(1.01838 -0.0346757 0)
(-0.0953627 0.301861 0)
(0.397677 -0.152839 9.32934e-20)
(0.913056 -0.0199063 0)
(1.03407 -0.005356 2.03733e-21)
(0.961453 -0.0503802 -1.16337e-20)
(0.177916 0.0940106 0)
(1.01534 -0.00515546 -8.48741e-22)
(0.994223 -0.00941709 0)
(0.999771 -0.00149582 9.52488e-21)
(0.976141 -0.0110784 1.43377e-20)
(1.02567 -0.00890534 5.61427e-21)
(1.08432 -0.0252231 -2.58391e-20)
(1.06671 -0.0193151 1.41444e-20)
(-0.07839 0.0079655 -4.95112e-20)
(0.981997 -0.00203206 1.23946e-20)
(1.07014 -0.0677924 0)
(1.04258 -0.0202671 -2.32896e-21)
(0.969485 -0.028473 2.74647e-20)
(0.803505 -0.564092 3.11212e-21)
(1.14685 -0.0583546 -6.24367e-21)
(-0.065146 -0.0505379 6.35056e-20)
(1.01358 -0.00485679 -2.91796e-22)
(0.00900796 -0.00307263 0)
(0.976641 -0.0701744 3.74593e-21)
(1.07155 0.00990476 -1.20649e-20)
(1.01995 -0.023628 0)
(1.20168 -0.220946 -2.92476e-20)
(0.999189 -0.00242939 -2.04856e-20)
(0.741308 -0.0524842 4.87234e-20)
(1.13825 -0.0901635 -1.68119e-19)
(1.02557 -0.00939132 -2.28636e-21)
(0.366304 0.452214 0)
(-0.218706 0.221749 -9.2503e-20)
(1.08393 -0.120537 -1.35966e-20)
(0.995248 -0.0144905 8.27902e-21)
(1.12718 -0.0201797 0)
(-0.184322 0.261521 4.17848e-20)
(0.756497 -0.0804832 -9.60887e-20)
(0.754013 -0.0911873 1.3528e-19)
(-0.0914287 0.0520585 1.7513e-19)
(1.1101 0.0761884 9.26411e-20)
(1.07202 0.0100896 -1.115e-20)
(1.09119 -0.00327758 3.06224e-20)
(0.403764 -0.128487 -8.0204e-20)
(1.02824 -0.00380835 -4.34088e-21)
(-0.123481 0.201492 -5.27492e-20)
(-0.276157 0.00951761 4.87868e-21)
(1.015 -0.00499184 0)
(0.999828 -0.0011143 9.40929e-21)
(1.10144 0.0412595 -1.3276e-19)
(0.987994 -0.0143839 0)
(1.00008 -0.000954944 -4.08208e-21)
(1.15023 0.0369928 2.7301e-20)
(1.1635 0.0340928 0)
(1.01877 -0.036444 -1.50682e-21)
(1.05717 -0.0413504 4.10536e-20)
(1.0739 -0.0685714 0)
(0.949113 -0.172655 -7.02561e-21)
(1.05941 -0.0348469 -2.75229e-20)
(0.994155 -0.00391633 -9.5211e-21)
(1.06777 -0.165036 -6.14549e-21)
(-0.037163 -0.006899 -1.38316e-19)
(1.02468 -0.00943212 0)
(-0.21869 0.186811 -9.20034e-20)
(1.00003 -0.000794853 4.42713e-21)
(1.00001 -0.00241412 2.81796e-21)
(1.01187 -0.000918934 0)
(-0.0528076 0.0907244 8.20812e-20)
(0.993624 0.0011485 -1.24455e-20)
(1.37619 -0.222114 2.04422e-19)
(0.0122169 0.0279454 6.90433e-20)
(1.00065 -0.00281438 5.77286e-21)
(0.999318 -0.00244052 1.10517e-20)
(1.3654 -0.112634 1.56064e-19)
(1.0118 -0.000569714 4.12743e-23)
(0.999939 -0.00110789 6.8078e-23)
(1.01242 -0.000535456 3.24186e-22)
(-0.0111813 0.0192399 5.42098e-20)
(0.587357 -0.391309 1.86169e-20)
(0.934416 -0.0528963 0)
(0.903662 -0.519785 5.43913e-21)
(1.15358 0.00930491 0)
(-0.101479 0.22605 9.20787e-20)
(-0.048308 0.192347 -7.70005e-20)
(1.04231 -0.0228697 1.72989e-20)
(-0.0979547 -0.217186 -1.43959e-19)
(1.00001 -0.000748926 0)
(-0.159373 0.25286 -5.93329e-20)
(0.382893 -1.18087 1.42813e-20)
(-0.177918 0.100136 1.04749e-19)
(-0.00372327 0.0946354 0)
(1.11536 0.0724539 -9.7342e-20)
(1.059 -0.0217281 -2.25763e-20)
(1.12836 -0.0665295 -4.66051e-21)
(1.0648 -0.0198928 -1.29937e-20)
(1.03496 -0.00406684 7.71149e-21)
(1.04542 -0.0156066 8.52267e-21)
(0.832402 -0.53313 -1.29823e-21)
(0.917789 -0.0604267 2.00943e-20)
(0.99939 -0.00230135 6.3344e-21)
(1 -0.000118642 4.87501e-21)
(1.01393 -0.00503929 -4.63505e-22)
(1.0167 -0.000123468 0)
(1.02442 -0.00990354 0)
(-0.0558647 0.171763 1.39557e-19)
(1.00475 -0.0083378 -1.2051e-21)
(1.01793 -0.0222488 2.33618e-22)
(1.0165 -0.000194042 -7.74765e-24)
(1.00239 -0.00877287 -7.40157e-21)
(-0.0233063 -0.056815 0)
(1.15804 -0.44067 -4.8423e-21)
(0.685684 0.0698093 -9.61511e-20)
(0.946974 -0.0134441 9.0211e-21)
(1.10813 0.0154499 0)
(1.0158 -0.00011726 -7.86093e-22)
(0.851085 0.123003 0)
(0.01678 -0.0266152 0)
(0.99309 0.000268149 4.39391e-23)
(0.0559908 0.0304409 1.66408e-20)
(1.08889 -0.0106209 0)
(0.991908 -0.000821994 -1.64276e-20)
(-0.0935003 0.0004407 -1.98778e-19)
(0.761216 0.158387 0)
(0.99674 -0.0036384 0)
(1.06822 -0.172733 -1.71039e-20)
(0.37044 1.02762 0)
(0.97476 -0.0262581 1.11071e-20)
(0.832653 0.0201279 4.57274e-20)
(1.01901 -0.0219929 -4.59763e-21)
(0.96971 -0.024198 0)
(-0.0717521 0.224221 0)
(0.89923 -0.174343 0)
(0.997288 -0.00855122 0)
(0.995846 -0.000568817 9.89956e-21)
(0.949679 -0.012822 -2.43071e-20)
(1.08936 -0.367052 0)
(0.0919086 -0.203159 3.20511e-19)
(0.992171 -0.00604769 1.24078e-20)
(1.00479 -0.00762428 -2.93772e-22)
(1.02869 -0.0151925 -1.42589e-21)
(-0.230651 0.0022344 8.29833e-20)
(-0.110495 -0.112357 0)
(-0.0537802 -0.0152634 1.17417e-19)
(1.02745 -0.0046693 -4.82214e-21)
(0.900763 -0.186951 0)
(0.827825 0.0291917 0)
(0.847301 -0.740694 6.4524e-20)
(1.1494 -0.00694838 0)
(1.02882 -0.00153374 9.84e-21)
(1.03048 -0.00359993 2.70436e-21)
(1.028 -0.0155683 1.57781e-21)
(1.12411 -0.0620924 -4.45698e-21)
(0.990004 -0.0354912 7.47803e-21)
(-0.00395308 0.0132275 2.31597e-19)
(0.998275 -0.00208052 -3.61598e-21)
(1.00891 -0.0145295 -3.37026e-21)
(-0.14923 0.296991 -1.33893e-19)
(-0.0629065 0.172377 3.44561e-22)
(-0.0174912 -0.00499141 0)
(1.01644 -0.000120095 -1.48867e-21)
(-0.126379 0.101316 6.76058e-20)
(0.982727 -0.0803972 -1.98477e-20)
(0.232763 -0.660012 -4.09658e-20)
(-0.0273587 0.0185228 1.01763e-19)
(-0.083705 0.0446053 -1.99359e-19)
(0.993199 -0.0682046 -8.6068e-21)
(1.08205 -0.0764915 0)
(1.25393 0.0203594 -8.65959e-20)
(-0.0617692 0.134839 -2.51794e-20)
(-0.0498409 0.13721 1.18069e-19)
(0.901333 0.0206463 -3.73407e-20)
(1.00003 -0.000577525 -4.73064e-21)
(0.929673 -0.052592 0)
(1.0312 -0.00639597 -6.99327e-21)
(1.00538 -0.00829851 -2.11942e-21)
(0.989499 -0.0336799 7.34113e-21)
(1.00012 -0.0039519 6.12217e-21)
(1 -4.70397e-05 0)
(0.0556878 0.00594765 -2.06043e-19)
(1.00002 -0.00183645 9.41422e-22)
(1.14963 -0.0974998 0)
(1.08053 -0.0654539 2.83765e-20)
(1.057 0.107099 2.4117e-21)
(1.02875 -0.00102518 0)
(0.982904 -0.0731937 -7.5775e-21)
(-0.0210623 0.0514871 4.32613e-20)
(0.358604 -0.0271381 1.5716e-19)
(-0.0888474 0.163541 0)
(1.14499 -0.00986581 0)
(1.0086 -0.0138224 1.75982e-21)
(0.995368 -0.070572 -7.39423e-21)
(0.992798 -0.00686783 1.24389e-20)
(1.22694 -0.331043 6.36631e-20)
(1.01419 -0.00155006 1.25709e-21)
(-0.021842 -0.00121507 0)
(0.969286 -0.408683 0)
(1.11137 -0.239995 6.67331e-20)
(-0.107543 -0.00654458 0)
(-0.0625483 0.222009 0)
(1.00052 -0.00231801 3.15188e-21)
(0.996428 -0.0145125 0)
(1.25884 0.0319618 1.18406e-20)
(1.23556 -0.315813 -8.95078e-20)
(0.982371 -0.00116744 -1.16552e-20)
(-0.0897117 0.0198617 0)
(1.00054 -0.00245327 0)
(0.999688 -0.00191677 9.98838e-21)
(0.503497 -0.869293 0)
(1.0136 -0.00463482 1.04928e-21)
(1.15606 0.0153244 0)
(1.02822 -0.00447248 -8.66e-22)
(-0.0465988 0.185848 -6.03946e-20)
(0.99848 -0.00210386 4.25496e-21)
(1.03972 -0.0165751 0)
(-0.149703 0.276422 1.39211e-20)
(0.609009 0.0282992 -7.2149e-20)
(1.06884 0.0146384 -1.89453e-20)
(0.912808 -0.0243068 0)
(1.00083 -0.0031392 1.60198e-21)
(1.00137 -0.0198913 -3.94681e-21)
(0.334637 0.0597134 -9.85286e-20)
(1.12826 -0.097271 -8.14441e-20)
(1.02424 -0.00602992 0)
(0.999632 -0.00122647 0)
(0.89397 -0.117765 -3.25381e-20)
(0.832349 0.0477791 -5.90212e-20)
(1.06792 0.0127449 -3.55213e-22)
(-0.232172 0.0425185 0)
(0.999704 -0.00151766 -9.98298e-21)
(0.996826 -0.00945969 9.29572e-21)
(0.659065 -0.472427 4.09906e-20)
(1.00089 -0.00308654 -7.67959e-21)
(-0.0438957 0.00300627 1.38437e-19)
(0.597699 -0.522321 -1.203e-19)
(0.99729 -0.000462767 8.65164e-21)
(0.997006 -0.00413231 -8.59302e-21)
(1.04429 -0.0162462 -1.17341e-20)
(1.00064 -0.00266119 0)
(1.02839 -0.0140203 3.07182e-21)
(-0.136219 0.108833 1.07604e-19)
(0.739108 -0.0673197 -1.24055e-19)
(1.33974 -0.106224 0)
(0.884244 0.0341065 0)
(1.05414 -0.0062298 1.29913e-20)
(1.1151 -0.0306003 0)
(0.918843 0.0041256 0)
(-0.0699079 0.0938437 -2.57931e-20)
(0.903886 -0.0197473 -4.8902e-20)
(0.999979 -0.000496311 4.74941e-23)
(1.05569 -0.0455089 8.07723e-22)
(1.16375 -0.40934 -5.58164e-20)
(0.980829 -0.013824 1.17637e-20)
(0.983415 -0.0114712 4.12275e-22)
(0.977139 -0.0102529 0)
(1.01393 -0.00149161 -8.05273e-22)
(0.998906 -0.00675353 0)
(1.01567 -0.0241715 9.86855e-22)
(0.99672 -0.000590757 8.78916e-21)
(1.00041 -0.0020126 -9.11016e-23)
(0.971287 -0.0490062 2.71447e-20)
(1.06427 -0.0223698 4.43317e-20)
(1.14613 0.0408725 -3.07657e-20)
(1.0151 -0.000325672 0)
(0.214527 0.11737 0)
(0.922392 -0.0466651 4.64737e-20)
(0.980407 -0.435741 6.16298e-21)
(-0.0544253 0.205758 0)
(1.03509 -0.00492666 0)
(-0.115747 0.302731 1.05663e-19)
(1.1195 -0.218906 -2.87995e-20)
(1.03406 -0.00621409 -6.48467e-21)
(1.01412 -0.00210009 1.98477e-22)
(0.985156 -0.0218609 5.34326e-21)
(0.0522767 0.153305 -8.18365e-20)
(1.1577 0.00464287 0)
(1.01428 -0.00197593 0)
(0.998729 -0.00131894 7.78646e-22)
(0.999773 -0.00161176 3.70589e-21)
(0.707435 0.12583 0)
(1.01545 -0.389795 -2.68063e-20)
(0.705008 0.0315724 -1.44943e-20)
(1.00269 -0.00123311 -1.82671e-21)
(0.985463 -0.00232931 -2.34402e-22)
(0.860327 -0.0397466 4.19588e-20)
(-0.259345 0.0380207 1.37632e-19)
(-0.171666 0.0965804 -1.79258e-19)
(0.936809 -0.0257832 3.37892e-20)
(1.05437 -0.019368 -1.15879e-21)
(-0.218888 0.198705 1.29219e-19)
(1.10861 -0.00067835 -1.36328e-19)
(1.18033 0.071102 -9.51377e-20)
(0.977217 -0.0311524 -1.3924e-20)
(1.00792 -0.0147676 2.05883e-22)
(-0.0873421 0.0100333 4.71971e-20)
(0.994507 -0.0119513 0)
(1.048 -0.358757 3.83009e-20)
(1.02323 0.0912919 -5.52243e-20)
(1.02379 -0.00558748 4.00624e-21)
(0.620293 -0.379211 0)
(1.06588 -0.0629028 0)
(-0.103335 0.106999 8.61934e-20)
(1.00165 -0.0192968 -3.03684e-21)
(-0.0683312 -0.0516921 0)
(1.26486 -0.0858682 0)
(1.06592 -0.00468746 -3.12188e-20)
(1.37171 -0.103368 6.6275e-22)
(0.995538 -0.0121608 -8.74592e-21)
(0.877758 -0.692337 0)
(0.998291 -0.00163631 -9.22051e-21)
(0.997522 -0.0144611 -9.60755e-22)
(1.00002 -0.00151125 0)
(0.994601 -0.00774446 0)
(0.0909103 0.0391422 0)
(0.995915 -0.0132828 4.209e-21)
(1.03064 -0.0092968 0)
(0.94979 -0.0196107 -4.30175e-20)
(1.02734 -0.00528252 4.39238e-21)
(1.00761 -0.0151709 -4.85092e-21)
(1.05525 -0.186977 -2.63652e-20)
(0.984094 -0.0544879 -1.58671e-20)
(1.09075 -0.00860825 0)
(1.00158 -0.00355413 0)
(1.00145 -0.00342719 6.14983e-21)
(-0.0267153 0.0439313 -4.46338e-20)
(0.646557 0.0340515 6.69894e-20)
(0.939463 -0.0251316 -2.57647e-20)
(-0.21421 0.173885 -3.54954e-20)
(1.06225 -0.0228309 -2.62691e-20)
(0.984679 -0.0377057 -1.84014e-20)
(0.993884 0.00155677 6.6158e-21)
(1.02905 -0.0137209 -3.04198e-22)
(0.0301266 -0.0210077 -1.15931e-19)
(1.03074 -0.00858844 -3.62557e-22)
(1.00138 -0.000513333 -1.04578e-21)
(-0.300242 0.0269748 1.56141e-19)
(1.07471 0.0336201 -6.51758e-22)
(0.961168 -0.174519 1.12936e-20)
(1.00211 -0.00883898 0)
(0.999991 -0.000293609 -8.28471e-21)
(1.0343 -0.0285127 -1.18642e-20)
(0.999981 -0.00118321 0)
(-0.212845 0.18788 -3.28586e-20)
(0.972837 -0.0263155 0)
(-0.0141337 0.270616 -5.89992e-20)
(1.06013 -0.0125578 0)
(0.308078 0.440142 1.6792e-21)
(0.999973 -0.000709685 8.82403e-21)
(-0.303556 0.0295027 0)
(1.00829 -0.000322047 7.6547e-22)
(1.10864 -0.379723 0)
(0.993556 -0.0110332 0)
(1.07065 0.0464901 -6.41443e-20)
(-0.025572 -0.00905752 0)
(0.998483 -0.00158049 2.93754e-21)
(0.757482 0.0645991 -6.34806e-20)
(0.990284 -0.0133374 0)
(1.00016 -0.000127556 -2.65756e-21)
(1.02294 -0.00910809 0)
(0.286718 0.100506 -5.20326e-20)
(-0.0736401 0.0148585 1.10291e-19)
(0.984169 -0.0211407 -1.12921e-20)
(1.0693 -0.0639784 -6.03253e-21)
(1.03104 -0.00712378 -6.66777e-21)
(-0.219365 0.210258 6.59939e-20)
(1.0156 -0.000408626 0)
(1.0742 -0.162083 1.71671e-20)
(-0.0709401 -0.0439255 2.70336e-20)
(0.912267 0.00677746 1.59488e-21)
(1.00183 -0.000898684 -2.15859e-21)
(0.812939 -0.146079 0)
(1.00011 -0.000601296 -6.65098e-21)
(1.03572 -0.0284904 4.46144e-21)
(1.02766 -0.0171449 -3.1696e-21)
(1.13892 0.0398599 0)
(1.003 -0.00350495 2.69138e-21)
(-0.215557 0.224997 9.56842e-20)
(1.0013 -0.00339387 4.46655e-22)
(0.992754 -0.037551 0)
(1.08839 0.00422522 1.51326e-20)
(0.773911 -0.251063 -3.29114e-21)
(1.23971 0.076596 0)
(1.01727 -0.0212177 0)
(-0.285384 0.0281773 1.62779e-19)
(0.996916 -0.0149288 0)
(1.03459 -0.409465 3.92344e-20)
(0.986903 -0.00758335 -1.05654e-20)
(1.04188 -0.0188609 -1.50502e-20)
(0.994869 -0.0124309 1.02656e-20)
(1.00124 -0.00342684 -3.71573e-22)
(0.999972 -0.000569859 8.67179e-23)
(1.02989 -0.430061 -4.62282e-20)
(1.07281 0.0103987 1.25373e-20)
(0.687698 0.0619268 8.38996e-20)
(1.20176 -0.100349 -6.05096e-20)
(0.837444 -0.061057 -2.69387e-20)
(0.91477 -0.134437 -2.02182e-20)
(0.571559 -0.840134 7.84679e-22)
(1.05071 -0.0429406 0)
(-0.208147 0.179977 6.74703e-20)
(-0.12453 -0.0517173 5.67323e-20)
(1.10729 -0.402804 -7.48358e-20)
(1.17068 -0.151393 7.84583e-20)
(1.14847 0.0868985 9.48775e-20)
(1.06609 -0.376701 -5.57269e-21)
(1.03643 -0.0278015 -9.18604e-21)
(0.0619114 -0.176061 -3.52226e-19)
(1.08645 0.00542198 8.10648e-22)
(1.04014 -0.0187421 1.71547e-20)
(1.12725 -0.414465 9.08926e-20)
(1.00007 -0.00054029 6.26116e-21)
(0.877085 -0.545415 1.07986e-20)
(0.966905 -0.161119 -1.72167e-21)
(1.20577 0.0324732 0)
(0.888591 0.0249107 0)
(-0.0646735 0.164359 -1.37915e-19)
(-0.166709 0.0149131 0)
(1.08779 0.00101546 -2.75306e-20)
(1.19935 0.0315879 0)
(0.999804 -0.00123854 -8.40294e-21)
(1.05865 -0.525341 5.70688e-20)
(0.947074 0.0111895 0)
(0.993847 -0.0105569 6.52567e-21)
(0.987671 -0.0331597 0)
(1.05303 0.00127259 -1.1045e-20)
(1.12127 -0.0965078 0)
(-0.100561 0.050295 0)
(0.894929 -0.478761 -5.28609e-21)
(-0.187385 0.0554819 -2.60993e-20)
(1.04657 -0.0437987 0)
(0.96064 -0.0529483 0)
(-0.104691 0.111112 -1.17855e-19)
(0.417533 0.108026 -8.7153e-20)
(1.05203 -0.0212117 3.24128e-20)
(1.14278 -0.0200724 -4.78757e-20)
(0.968147 -0.0296498 -3.62632e-20)
(0.250111 -0.771641 7.00253e-22)
(-0.130427 0.285001 0)
(0.997205 -0.000737653 -8.72948e-21)
(0.689633 0.0829344 0)
(0.682402 -0.432602 -7.0251e-20)
(-0.163085 -0.0122543 0)
(1.00302 -0.00112816 -5.30145e-22)
(0.92728 -0.0586005 5.69372e-20)
(0.297984 0.0577883 -1.38966e-19)
(1.08131 -0.0239571 1.20699e-20)
(0.643486 0.076985 1.76763e-19)
(1.076 0.0497703 0)
(1.08417 0.111334 -1.71483e-19)
(0.952901 -0.0779775 0)
(1.05128 -0.0457913 2.1253e-20)
(1.02043 -0.0301507 9.18599e-22)
(0.985978 -0.00363294 0)
(1.08218 0.124431 2.38565e-20)
(1 -0.000333611 -9.46481e-23)
(1.09186 0.131832 0)
(1.215 -0.0735981 -5.69172e-20)
(1.08252 -0.257865 5.16979e-20)
(1.00004 -0.000264391 -1.3095e-21)
(1.00015 -0.0010845 0)
(1.05528 -0.00388206 -6.80828e-21)
(1.04091 -0.00185276 -7.38444e-21)
(1.00589 -0.00101927 1.33622e-21)
(0.987476 -0.0134897 7.93585e-21)
(1.19317 -0.102153 0)
(0.0776913 0.168716 -3.93444e-20)
(-0.0357813 0.138588 1.40877e-20)
(1.00002 -0.000354612 3.39955e-21)
(1.20636 -0.337895 2.92628e-20)
(1.00173 -0.00761738 0)
(-0.129315 -0.0740283 -1.13619e-19)
(1.10553 0.00197712 3.99217e-20)
(0.785736 -0.0984903 -7.60677e-20)
(0.835301 0.0383082 5.73482e-20)
(1.26126 -0.0773218 9.15798e-20)
(1.00915 -0.00525334 0)
(0.999076 -0.00411326 0)
(0.828009 -0.142843 0)
(0.993825 -0.0118816 0)
(1.03293 -0.0278595 -1.06169e-20)
(1.14758 -0.0443022 -8.29511e-20)
(-0.0965938 0.125662 -9.16819e-20)
(1.02619 -0.00873828 -3.57547e-21)
(1.09384 0.116934 -1.14946e-20)
(-0.169304 0.0820377 0)
(1.0607 -0.0368659 0)
(-0.122995 0.240155 4.49596e-20)
(-0.164432 0.0766822 0)
(1.01616 -0.0252816 -1.00633e-21)
(1.14104 -0.0821455 1.12706e-20)
(1.06861 -0.00319971 0)
(1.01702 -0.0343799 0)
(1.02216 -0.00906291 0)
(0.624061 -0.134844 3.58868e-21)
(-0.177977 0.0944098 0)
(-0.149922 0.0638593 0)
(0.979828 -0.0148239 1.28367e-20)
(0.995607 -0.000308321 -6.18232e-21)
(1.01977 -0.0120207 -2.38339e-21)
(1.05774 0.00473374 5.99973e-21)
(0.987089 -0.0542405 -4.11574e-21)
(0.975248 -0.0663494 -1.34219e-20)
(0.510029 0.423682 0)
(1.10273 0.00425164 0)
(1.00043 -0.00214322 -3.26929e-21)
(1.25217 -0.0143651 -4.05073e-20)
(1.0846 -0.027975 -2.83458e-20)
(0.847596 -0.0630672 0)
(1.03298 -0.0264522 9.66086e-21)
(-0.348138 0.0177351 2.02363e-19)
(1.05761 -0.0203565 0)
(1.00388 -0.00268015 -2.30586e-21)
(1.094 -0.255187 1.62585e-21)
(0.149755 0.103069 0)
(1.02506 -0.00609535 -1.8061e-21)
(0.996817 -0.000255404 0)
(0.993367 -0.00633246 -2.48492e-21)
(1.06414 -0.00429449 1.06427e-20)
(1.0092 -0.00495983 9.29546e-22)
(1.09009 -0.000304261 0)
(1.26207 0.00697894 1.94982e-19)
(0.995126 -0.0409621 0)
(1.13569 0.0431688 0)
(1.0503 -0.0213533 -1.43427e-20)
(1.03151 -0.025448 5.05288e-21)
(1.23749 0.0720725 0)
(-0.0917808 -0.0780195 1.67502e-19)
(1.16517 0.106578 6.21983e-20)
(0.999285 -0.00390399 -7.83741e-21)
(1.02621 -0.00591409 -5.08359e-21)
(0.782292 0.212761 0)
(0.909145 -0.0170089 0)
(1.07889 0.168526 -5.39175e-20)
(1.02471 -0.00487577 4.88088e-21)
(0.989446 -0.0133257 8.6664e-22)
(-0.284723 0.010641 -8.41452e-20)
(-0.0463937 0.250866 6.0672e-20)
(1.07519 -0.0736841 -3.38437e-20)
(1.15307 0.0262061 0)
(0.692593 0.0223238 3.64113e-20)
(0.995784 -0.0149835 0)
(1.00002 -0.000226606 0)
(1.01366 -0.0336292 4.89633e-23)
(-0.0951218 -0.0285748 4.61985e-20)
(1.0015 -0.000629473 4.13408e-21)
(0.999996 -5.69029e-05 0)
(-0.0687834 0.128821 -9.69844e-20)
(0.893707 0.0252528 3.818e-20)
(1.26659 -0.147071 -1.32309e-19)
(0.842298 0.0205628 -1.42871e-20)
(1.0022 -0.00797829 0)
(-0.0810282 -0.079854 -1.06299e-19)
(1.00002 -0.000650308 -4.94724e-21)
(0.988486 -0.00939886 1.46513e-20)
(1.01248 -0.0330666 3.81782e-23)
(0.926116 -0.112192 -6.82035e-21)
(-0.031081 0.0936543 0)
(1.00008 -0.00253937 -5.16494e-22)
(0.993121 0.00113962 2.66014e-20)
(0.993483 -0.0123136 -1.20858e-20)
(0.995299 -0.0136436 -8.88309e-21)
(1.00193 -0.00798464 0)
(1.0202 -0.0312078 -3.55168e-21)
(1.07487 -0.140692 -1.80415e-19)
(0.919277 -0.117097 0)
(0.971136 -0.0458947 0)
(1.00018 -0.0033882 7.82783e-21)
(0.910644 -0.112451 -2.01378e-20)
(1.15252 -0.0784458 0)
(1.06622 -0.00183648 -2.31769e-20)
(0.88422 0.0295863 0)
(1 -0.000103762 0)
(1.01974 -0.0114464 -2.22952e-21)
(1.00562 -0.0648941 0)
(-0.055357 0.00308419 0)
(0.0284453 0.175813 0)
(1.05266 -0.00545646 0)
(-0.163953 0.0594882 2.5332e-20)
(0.999777 -0.00113236 -1.13376e-20)
(0.952464 -0.0728206 0)
(1.32574 -0.312679 0)
(0.153981 -0.167882 -6.50655e-20)
(1.02132 -0.0213079 1.57799e-21)
(1.00001 -0.00221777 1.05909e-21)
(0.429815 0.205247 9.43408e-20)
(1.1259 -0.0168991 0)
(1.00412 -0.00275574 0)
(0.999949 -0.000955705 0)
(-0.208434 0.213818 -6.51855e-20)
(1.00003 -0.000165114 0)
(1.14803 -0.147009 0)
(0.996713 -0.0040631 1.54114e-20)
(0.350255 0.0107453 -3.40835e-19)
(0.99996 -0.00101724 0)
(1.00914 -0.000201103 5.55068e-22)
(0.99886 -0.00146146 -6.13515e-23)
(1.05688 -0.0985699 -1.0936e-20)
(1.03993 -0.00140712 0)
(0.936484 -0.047533 -1.28779e-20)
(0.905108 0.0181547 3.57454e-20)
(0.538073 0.0976541 4.89335e-20)
(1.00462 -0.00855889 5.69052e-21)
(0.999135 -0.00662107 0)
(1.00007 -0.000362217 1.38065e-21)
(0.997922 -0.014869 1.92812e-23)
(1.03712 -0.0255552 0)
(1.03832 -0.010557 7.06567e-24)
(1.08218 -0.0694832 0)
(0.998551 -0.00133513 -8.87929e-22)
(1.11351 0.00492239 -3.70745e-20)
(-0.0602821 0.162987 0)
(1.11859 -0.0635432 -3.28376e-20)
(1.15351 -0.0466655 5.58859e-20)
(0.999725 -0.0013848 8.94899e-21)
(1.02834 -0.0166905 0)
(-0.272745 0.00882261 1.17325e-20)
(0.376595 0.277888 5.95283e-20)
(1.02184 -0.00842534 2.66032e-21)
(-0.147903 0.236241 0)
(-0.306276 0.0190403 -1.70219e-19)
(1.02645 -0.00627234 7.68265e-21)
(0.992845 0.000695921 -2.69444e-20)
(1.00146 -0.0131469 -5.23602e-21)
(1.14561 -0.217348 -4.43064e-20)
(1.11242 0.00848165 8.28613e-21)
(0.134669 -0.126975 0)
(1.00517 -0.00856139 -1.84718e-23)
(1.02307 -0.0815202 1.83198e-21)
(1.00538 -0.00631307 0)
(0.96863 -0.0257093 -4.22926e-20)
(1.00836 -0.00028424 -6.50496e-22)
(1.06554 -0.280465 0)
(1.03747 -0.0244555 -4.65234e-21)
(1.25397 -0.164848 -2.43922e-20)
(0.999508 -0.00353001 -6.06594e-22)
(0.927449 -0.254203 -1.08728e-20)
(1.00395 -0.00781492 -4.25636e-21)
(0.96487 -0.0493716 2.20225e-20)
(0.986892 -0.00954576 8.88003e-21)
(1.07335 0.00927256 -1.47363e-20)
(0.722485 0.126718 0)
(-0.288696 0.0262677 0)
(0.0906204 0.161077 -1.33729e-21)
(-0.175808 0.243387 0)
(1.12325 -0.0235886 0)
(0.989045 -0.0143303 -8.52935e-22)
(0.586909 -0.78172 2.9809e-20)
(0.0737074 -0.139591 -2.56138e-19)
(1.11805 0.0154813 -6.53982e-20)
(1.03509 -0.0230137 1.99362e-21)
(1.00003 -0.00388056 0)
(0.167352 0.221433 1.52441e-19)
(1.00173 -0.013669 0)
(-0.0343614 0.101257 -5.93358e-20)
(1.02895 -0.00350218 2.46488e-21)
(1.0784 -0.00888618 -1.5967e-20)
(1.03987 -0.0238697 2.47757e-20)
(0.99995 -0.000354493 -1.30478e-20)
(1.02118 -0.022346 -1.76477e-21)
(0.954619 0.0565118 -1.72626e-20)
(-0.073214 -0.0233734 -9.5833e-21)
(-0.0365985 0.114309 -4.83805e-20)
(0.663626 0.0411065 -3.27998e-20)
(-0.235351 0.00405115 1.54845e-19)
(0.99447 -0.00722536 0)
(-0.0620321 0.161618 9.0742e-20)
(0.430789 0.0428893 -2.06879e-20)
(1.00002 -0.000116348 -5.19815e-21)
(0.992001 -0.0358479 -6.1898e-21)
(1.01051 -0.00688036 5.73686e-22)
(1.18837 0.103324 3.44721e-20)
(1.02306 -0.00563833 -3.51908e-21)
(-0.110635 0.0669929 8.54703e-20)
(0.85266 -0.0458079 0)
(1.20822 -0.0301236 -1.05045e-19)
(1.00685 -0.0443967 3.86746e-21)
(1.27527 -0.350219 -2.29983e-19)
(-0.205628 0.0384656 -1.85301e-20)
(0.16865 0.0187772 -1.33278e-19)
(0.940716 -0.109984 2.63662e-20)
(1.09007 -0.0576676 -3.27573e-20)
(1.00168 -0.000931579 0)
(0.44127 -0.144429 -3.79469e-19)
(1.02425 -0.00397625 8.43305e-22)
(0.39912 0.298535 1.70755e-19)
(1.23703 -0.0215708 -1.00981e-19)
(0.815438 -0.251705 1.00176e-20)
(0.590148 0.0566885 0)
(0.0586361 0.0173687 0)
(1.05699 -0.0349686 1.18397e-21)
(1.01138 -0.0644174 7.80819e-22)
(1.00311 -0.00380627 2.41956e-21)
(1.05883 0.0464459 -1.16165e-20)
(-0.0999323 0.0580363 -1.36104e-21)
(-0.184619 -0.00490247 1.4404e-19)
(1.00978 -0.00653174 0)
(0.208868 0.599814 6.57473e-21)
(1.0645 -0.00155835 -2.00008e-20)
(1.15806 0.0391575 0)
(0.564007 0.101735 0)
(-0.101288 0.127881 2.6675e-20)
(-0.0913624 0.131085 4.85484e-20)
(1.03046 -0.00290563 4.01578e-22)
(0.91941 -0.0502783 0)
(1.0864 -0.02049 -2.89606e-20)
(1.06025 -0.0109649 8.56622e-21)
(1.05659 -0.00305953 3.09891e-22)
(0.0805744 0.160241 0)
(0.999809 -0.00170113 9.22205e-21)
(0.663621 0.0182181 1.51596e-19)
(1.01547 -0.000327383 -7.40432e-22)
(1.02968 -0.00253547 -1.68581e-22)
(1.12991 -0.201091 3.41976e-20)
(1.16062 0.0276385 -1.98628e-21)
(1.20731 0.107862 -3.07188e-20)
(1.04006 -0.0359265 2.04551e-20)
(0.864016 -0.3881 -1.63565e-19)
(1.1166 -0.208146 -7.60515e-20)
(1.29286 -0.275297 -7.78747e-20)
(0.897166 0.0188949 1.80138e-20)
(1.00013 -0.000539759 0)
(1.03874 -0.0369129 -1.1516e-20)
(1.00015 -0.000551914 0)
(0.985202 -0.0106848 0)
(1.29311 -0.294231 -2.82299e-21)
(1.07836 0.160262 7.92552e-20)
(1.023 -0.0385028 -5.1247e-21)
(0.98606 -0.00810046 2.24906e-21)
(1.08792 -0.015591 0)
(0.194095 -0.172757 6.69652e-20)
(1.01563 -0.0881892 2.09292e-21)
(0.986987 -0.000508826 0)
(0.383234 0.0972367 0)
(0.993401 -0.0077303 0)
(0.999987 -0.000291457 1.21319e-20)
(1.02479 -0.00432153 0)
(1.10373 0.0220503 -2.42843e-20)
(0.996188 -0.000446768 0)
(1.06452 -0.0124421 0)
(-0.0313931 0.174771 -9.2371e-20)
(1.15237 -0.0920737 -6.02773e-20)
(1.00526 -0.000182352 -2.08955e-21)
(0.134762 0.57412 6.50047e-20)
(0.571479 0.0509289 0)
(0.993542 -0.00842291 0)
(1.05143 -0.00649648 1.2378e-20)
(1.09612 -0.0531119 0)
(1.00004 -0.000176935 4.00261e-21)
(1.00132 -0.0072167 3.8412e-21)
(1.01697 -0.019446 0)
(0.936699 -0.0690519 6.80714e-20)
(0.958115 0.100775 0)
(0.996166 -0.0426029 6.77112e-21)
(1.1002 -0.0536363 -2.33646e-20)
(0.817841 0.031546 0)
(1.06858 -0.504171 4.24789e-20)