/*--------------------------------*- C++ -*----------------------------------*\
| =========                 |                                                 |
| \\      /  F ield         | OpenFOAM: The Open Source CFD Toolbox           |
|  \\    /   O peration     | Version:  v2012                                 |
|   \\  /    A nd           | Website:  www.openfoam.com                      |
|    \\/     M anipulation  |                                                 |
\*---------------------------------------------------------------------------*/
FoamFile
{
    version     2.0;
    format      ascii;
    class       volVectorField;
    location    "350";
    object      cellDisplacement;
}
// * * * * * * * * * * * * * * * * * * * * * * * * * * * * * * * * * * * * * //

dimensions      [0 1 0 0 0 0 0];


internalField   nonuniform List<vector> 
9793
(
(0 0.000691658 0)
(0 -3.8566e-05 0)
(0 0.00142597 0)
(0 -3.83747e-05 0)
(0 0.000300289 0)
(0 2.51606e-06 0)
(0 -1.06725e-05 0)
(0 -3.81623e-05 0)
(0 0.000566223 0)
(0 -3.85686e-05 0)
(0 0.00050521 0)
(0 0.000555747 0)
(0 0.00103441 0)
(0 2.02563e-05 0)
(0 0.000774413 0)
(0 0.000776599 0)
(0 8.29521e-05 0)
(0 0.00134644 0)
(0 -3.79045e-05 0)
(0 0.000716639 0)
(0 0.000954279 0)
(0 5.66796e-05 0)
(0 -3.83147e-05 0)
(0 -3.81415e-05 0)
(0 2.36778e-05 0)
(0 0.000205723 0)
(0 0.000860113 0)
(0 9.9428e-05 0)
(0 0.000708123 0)
(0 1.04435e-05 0)
(0 -3.8556e-05 0)
(0 -1.83079e-05 0)
(0 0.00147739 0)
(0 0.00130121 0)
(0 5.40448e-05 0)
(0 0.00035115 0)
(0 0.000787633 0)
(0 0.000326218 0)
(0 -2.5806e-05 0)
(0 0.00018056 0)
(0 1.58415e-05 0)
(0 -2.85382e-05 0)
(0 -3.77783e-05 0)
(0 7.00856e-05 0)
(0 0.00169048 0)
(0 0.00162322 0)
(0 -3.85073e-05 0)
(0 9.72772e-05 0)
(0 0.00113147 0)
(0 0.00136407 0)
(0 0.000368363 0)
(0 6.25492e-05 0)
(0 0.000193251 0)
(0 0.000192329 0)
(0 6.57109e-05 0)
(0 -3.82144e-05 0)
(0 0.00100577 0)
(0 0.000127028 0)
(0 0.00110423 0)
(0 5.18487e-05 0)
(0 0.000231323 0)
(0 -2.75288e-05 0)
(0 0.00142969 0)
(0 0.000426668 0)
(0 0.000158254 0)
(0 0.000589978 0)
(0 -3.85686e-05 0)
(0 0.000377494 0)
(0 0.000816422 0)
(0 -3.07288e-05 0)
(0 0.00106375 0)
(0 -2.58268e-05 0)
(0 -3.82693e-05 0)
(0 0.000455206 0)
(0 -1.4674e-05 0)
(0 0.000197652 0)
(0 7.58996e-06 0)
(0 -3.44634e-05 0)
(0 0.00154594 0)
(0 0.00018513 0)
(0 2.74476e-06 0)
(0 -3.76464e-05 0)
(0 9.6893e-05 0)
(0 0.000286545 0)
(0 0.000781447 0)
(0 -2.15932e-05 0)
(0 0.000246096 0)
(0 0.000285826 0)
(0 -2.30991e-05 0)
(0 -2.65008e-05 0)
(0 -3.76789e-05 0)
(0 -3.25181e-05 0)
(0 -3.27005e-05 0)
(0 6.80059e-05 0)
(0 -3.76674e-05 0)
(0 0.0012375 0)
(0 -1.6854e-05 0)
(0 7.04806e-05 0)
(0 0.000276476 0)
(0 0.000227432 0)
(0 -2.44912e-05 0)
(0 0.000203605 0)
(0 0.000505693 0)
(0 0.00169839 0)
(0 1.25386e-05 0)
(0 -3.56794e-05 0)
(0 0.000480203 0)
(0 0.000811986 0)
(0 0.0015666 0)
(0 0.000114449 0)
(0 0.000199551 0)
(0 -3.80891e-05 0)
(0 -3.85457e-05 0)
(0 -3.85653e-05 0)
(0 0.00106242 0)
(0 0.0010697 0)
(0 0.00109081 0)
(0 0.00155118 0)
(0 -3.78287e-05 0)
(0 0.00170281 0)
(0 2.09613e-05 0)
(0 0.000259628 0)
(0 -1.72239e-05 0)
(0 0.000210851 0)
(0 0.000752844 0)
(0 0.00169798 0)
(0 5.83999e-05 0)
(0 -3.85491e-05 0)
(0 0.000232231 0)
(0 0.000247134 0)
(0 0.000589244 0)
(0 0.00096361 0)
(0 0.000701267 0)
(0 0.000435907 0)
(0 0.000363028 0)
(0 -2.12788e-05 0)
(0 -3.37534e-06 0)
(0 0.00105033 0)
(0 0.000147492 0)
(0 7.5355e-05 0)
(0 -3.72893e-05 0)
(0 0.000348492 0)
(0 0.000941548 0)
(0 0.000313565 0)
(0 -3.85093e-05 0)
(0 -3.49567e-05 0)
(0 0.00173303 0)
(0 -2.01212e-05 0)
(0 0.000969981 0)
(0 0.00173082 0)
(0 0.00110197 0)
(0 -3.82626e-05 0)
(0 0.000295874 0)
(0 0.000873268 0)
(0 0.00141742 0)
(0 -3.34855e-05 0)
(0 7.62143e-05 0)
(0 0.00140641 0)
(0 -2.04377e-05 0)
(0 0.00115487 0)
(0 0.00028624 0)
(0 0.000559753 0)
(0 0.000934999 0)
(0 -3.66203e-05 0)
(0 0.000837417 0)
(0 -3.32662e-05 0)
(0 0.000514916 0)
(0 0.000747781 0)
(0 0.000741901 0)
(0 0.00042808 0)
(0 0.000947244 0)
(0 -3.85593e-05 0)
(0 -3.8343e-05 0)
(0 4.64498e-05 0)
(0 0.00104034 0)
(0 8.69591e-06 0)
(0 -2.77067e-05 0)
(0 -3.76435e-05 0)
(0 0.00150859 0)
(0 0.000407996 0)
(0 1.68694e-05 0)
(0 -3.85179e-05 0)
(0 0.000257496 0)
(0 0.00165088 0)
(0 0.00147331 0)
(0 0.000774543 0)
(0 -1.38174e-05 0)
(0 -3.83555e-05 0)
(0 -3.81865e-05 0)
(0 0.000476021 0)
(0 0.000624075 0)
(0 -3.85374e-05 0)
(0 -3.66471e-05 0)
(0 0.000276735 0)
(0 0.00121788 0)
(0 0.000366737 0)
(0 -3.83548e-05 0)
(0 0.000574577 0)
(0 0.00132934 0)
(0 0.000597049 0)
(0 0.000992884 0)
(0 0.00103499 0)
(0 0.000376987 0)
(0 0.000569821 0)
(0 -3.7438e-05 0)
(0 0.00132595 0)
(0 0.000218435 0)
(0 0.000764803 0)
(0 0.000624154 0)
(0 -3.68231e-05 0)
(0 8.23316e-05 0)
(0 -3.72092e-05 0)
(0 0.000501425 0)
(0 -3.20201e-05 0)
(0 0.000279248 0)
(0 0.00082221 0)
(0 0.000764781 0)
(0 -2.01427e-05 0)
(0 0.00102367 0)
(0 2.94189e-06 0)
(0 6.3357e-05 0)
(0 0.00101568 0)
(0 -3.7944e-05 0)
(0 0.000114124 0)
(0 7.33729e-05 0)
(0 0.0011844 0)
(0 0.000173802 0)
(0 0.00022273 0)
(0 4.02433e-06 0)
(0 7.00365e-07 0)
(0 -3.66211e-05 0)
(0 0.000231281 0)
(0 0.00080944 0)
(0 0.000414248 0)
(0 -3.64038e-05 0)
(0 0.00129088 0)
(0 -3.84478e-05 0)
(0 -3.8561e-05 0)
(0 0.000552218 0)
(0 0.000524614 0)
(0 -2.63067e-05 0)
(0 0.00113178 0)
(0 0.000195448 0)
(0 0.000132756 0)
(0 0.000103032 0)
(0 0.000599132 0)
(0 0.000410399 0)
(0 0.000207924 0)
(0 3.23234e-05 0)
(0 0.000457882 0)
(0 0.00153059 0)
(0 3.42982e-05 0)
(0 -3.84553e-05 0)
(0 0.000997523 0)
(0 7.03098e-05 0)
(0 0.000228766 0)
(0 0.000640318 0)
(0 9.96935e-05 0)
(0 -3.81564e-05 0)
(0 0.00176479 0)
(0 -3.41597e-05 0)
(0 -2.20583e-05 0)
(0 0.000554148 0)
(0 0.000970107 0)
(0 -3.2218e-05 0)
(0 6.50247e-05 0)
(0 0.000360206 0)
(0 6.51345e-05 0)
(0 -2.46385e-05 0)
(0 -3.6025e-05 0)
(0 0.00025737 0)
(0 -3.56559e-05 0)
(0 0.000117705 0)
(0 0.000487113 0)
(0 -3.84542e-05 0)
(0 0.000718447 0)
(0 -3.85631e-05 0)
(0 0.000212471 0)
(0 0.000242279 0)
(0 -3.85651e-05 0)
(0 -8.10073e-06 0)
(0 1.43099e-05 0)
(0 0.000220395 0)
(0 0.000609353 0)
(0 0.000104551 0)
(0 0.000580578 0)
(0 0.0012678 0)
(0 0.000839867 0)
(0 -3.62301e-05 0)
(0 0.000185934 0)
(0 0.000922864 0)
(0 2.18335e-05 0)
(0 0.000524353 0)
(0 0.00015593 0)
(0 0.000977 0)
(0 -3.80972e-05 0)
(0 0.000900606 0)
(0 0.000784362 0)
(0 0.000158467 0)
(0 0.00101983 0)
(0 -3.85237e-05 0)
(0 -3.47787e-05 0)
(0 -9.94087e-06 0)
(0 0.000529126 0)
(0 0.000289225 0)
(0 0.000135491 0)
(0 0.000483968 0)
(0 -3.83463e-05 0)
(0 0.00172225 0)
(0 -2.12604e-05 0)
(0 0.000410273 0)
(0 0.0016658 0)
(0 -3.85686e-05 0)
(0 0.000458852 0)
(0 0.00145059 0)
(0 2.68657e-05 0)
(0 -3.85564e-05 0)
(0 0.000703647 0)
(0 8.56184e-05 0)
(0 0.000781914 0)
(0 0.00067871 0)
(0 0.000257794 0)
(0 1.84326e-05 0)
(0 0.0013074 0)
(0 0.00165612 0)
(0 0.000561275 0)
(0 -2.92095e-05 0)
(0 -3.85509e-05 0)
(0 0.0014498 0)
(0 0.000841848 0)
(0 0.000904295 0)
(0 -3.8567e-05 0)
(0 -3.85267e-05 0)
(0 -3.83296e-05 0)
(0 0.00123719 0)
(0 1.22441e-05 0)
(0 7.95283e-05 0)
(0 -3.8042e-05 0)
(0 0.000121955 0)
(0 0.00142191 0)
(0 0.00131041 0)
(0 0.000890421 0)
(0 0.000118651 0)
(0 0.000650283 0)
(0 -3.81196e-05 0)
(0 0.00127713 0)
(0 0.0009031 0)
(0 0.000257036 0)
(0 -3.79857e-05 0)
(0 -3.21058e-05 0)
(0 0.000156914 0)
(0 -2.72983e-05 0)
(0 0.000233008 0)
(0 -3.85604e-05 0)
(0 -3.80899e-05 0)
(0 -3.71651e-05 0)
(0 0.000311125 0)
(0 0.000165675 0)
(0 -6.89237e-06 0)
(0 -3.72235e-05 0)
(0 -3.80359e-05 0)
(0 0.000265273 0)
(0 0.000109006 0)
(0 0.000242097 0)
(0 0.00118207 0)
(0 0.00086316 0)
(0 0.000679635 0)
(0 0.000874636 0)
(0 7.55655e-06 0)
(0 -3.79925e-05 0)
(0 0.00049145 0)
(0 4.55586e-05 0)
(0 0.000204476 0)
(0 2.99382e-05 0)
(0 0.0014572 0)
(0 0.000270443 0)
(0 -3.85286e-05 0)
(0 -3.68687e-05 0)
(0 5.00481e-05 0)
(0 0.000130229 0)
(0 0.000907776 0)
(0 0.0002958 0)
(0 0.00141921 0)
(0 -3.24572e-05 0)
(0 0.000217596 0)
(0 -3.0974e-05 0)
(0 -3.13208e-05 0)
(0 -1.15342e-05 0)
(0 -3.84031e-05 0)
(0 0.000286612 0)
(0 0.000454907 0)
(0 0.0011778 0)
(0 -5.02288e-06 0)
(0 -3.20526e-05 0)
(0 0.00135463 0)
(0 -3.82457e-05 0)
(0 0.000491195 0)
(0 0.000726487 0)
(0 -3.85455e-05 0)
(0 0.000477528 0)
(0 0.000113949 0)
(0 0.00125535 0)
(0 0.000494907 0)
(0 0.00123371 0)
(0 0.000859848 0)
(0 0.00019136 0)
(0 -2.31727e-05 0)
(0 0.000675878 0)
(0 0.000262543 0)
(0 0.000584685 0)
(0 0.000990079 0)
(0 -1.74712e-05 0)
(0 6.67203e-05 0)
(0 0.00109889 0)
(0 0.000714135 0)
(0 6.29977e-05 0)
(0 8.44023e-05 0)
(0 0.000717841 0)
(0 -3.85252e-05 0)
(0 0.000651825 0)
(0 0.00130513 0)
(0 -3.64155e-05 0)
(0 0.000561854 0)
(0 -3.83777e-05 0)
(0 -3.73773e-05 0)
(0 0.0015146 0)
(0 0.00141276 0)
(0 0.000833908 0)
(0 0.000517903 0)
(0 0.000925463 0)
(0 -2.14543e-05 0)
(0 3.564e-08 0)
(0 -3.35491e-05 0)
(0 0.000198425 0)
(0 0.000948612 0)
(0 0.000198098 0)
(0 0.000352646 0)
(0 -3.74644e-05 0)
(0 0.000238553 0)
(0 0.000266098 0)
(0 0.000383139 0)
(0 -3.37899e-05 0)
(0 0.00102357 0)
(0 0.00113672 0)
(0 0.00103115 0)
(0 0.000198802 0)
(0 0.00120717 0)
(0 0.000773612 0)
(0 0.00158176 0)
(0 0.000394468 0)
(0 0.000412753 0)
(0 0.000558049 0)
(0 0.000143535 0)
(0 8.67814e-05 0)
(0 -3.82375e-05 0)
(0 0.000237893 0)
(0 -3.28154e-05 0)
(0 -3.84935e-05 0)
(0 0.00122903 0)
(0 0.000266519 0)
(0 -6.68928e-06 0)
(0 0.00118293 0)
(0 0.000284323 0)
(0 0.000893535 0)
(0 5.37623e-05 0)
(0 0.000106422 0)
(0 0.000263462 0)
(0 0.00115362 0)
(0 0.000626332 0)
(0 -7.50969e-06 0)
(0 -2.97534e-05 0)
(0 -3.47402e-05 0)
(0 0.000153683 0)
(0 0.00144206 0)
(0 0.000103321 0)
(0 -3.8518e-05 0)
(0 -1.28425e-05 0)
(0 0.000382992 0)
(0 0.000686943 0)
(0 8.39244e-05 0)
(0 -3.22346e-05 0)
(0 7.82375e-05 0)
(0 0.000646303 0)
(0 0.000933021 0)
(0 -3.68512e-05 0)
(0 0.00126382 0)
(0 -2.76358e-05 0)
(0 1.30974e-05 0)
(0 0.00110264 0)
(0 -3.51309e-05 0)
(0 0.000248228 0)
(0 -3.21336e-05 0)
(0 0.00100068 0)
(0 -3.75684e-05 0)
(0 -1.83591e-05 0)
(0 0.000773846 0)
(0 -3.14085e-05 0)
(0 0.00125287 0)
(0 -3.78021e-05 0)
(0 0.00128661 0)
(0 0.0011655 0)
(0 0.000387385 0)
(0 0.0013817 0)
(0 -1.69345e-05 0)
(0 0.00121638 0)
(0 0.00107125 0)
(0 0.000517114 0)
(0 0.00120345 0)
(0 0.000942501 0)
(0 1.9836e-05 0)
(0 0.000404245 0)
(0 0.000401545 0)
(0 0.000608369 0)
(0 0.000582673 0)
(0 -3.85184e-05 0)
(0 -1.73848e-05 0)
(0 0.000406708 0)
(0 5.79435e-05 0)
(0 0.000568379 0)
(0 0.000593917 0)
(0 0.00178467 0)
(0 0.000938869 0)
(0 -3.82101e-05 0)
(0 0.00109644 0)
(0 5.12471e-05 0)
(0 -3.85626e-05 0)
(0 -2.87802e-05 0)
(0 3.37908e-05 0)
(0 0.00102172 0)
(0 0.000108337 0)
(0 0.000657177 0)
(0 0.000346463 0)
(0 6.99181e-05 0)
(0 0.000681017 0)
(0 0.000463241 0)
(0 0.000730531 0)
(0 -3.81551e-05 0)
(0 0.000229874 0)
(0 -3.85333e-05 0)
(0 8.08972e-06 0)
(0 -3.0613e-05 0)
(0 0.00128284 0)
(0 0.0004182 0)
(0 -3.85296e-05 0)
(0 0.00123 0)
(0 -2.6219e-05 0)
(0 0.00119703 0)
(0 1.91043e-05 0)
(0 0.000952461 0)
(0 1.58528e-05 0)
(0 -3.76263e-05 0)
(0 0.000901872 0)
(0 0.000236202 0)
(0 0.00115084 0)
(0 9.86571e-05 0)
(0 0.00010035 0)
(0 3.65231e-05 0)
(0 -3.69922e-05 0)
(0 0.000314585 0)
(0 9.45805e-05 0)
(0 6.35792e-06 0)
(0 0.000108465 0)
(0 0.000655004 0)
(0 0.000858964 0)
(0 0.000164008 0)
(0 0.000439973 0)
(0 0.000115973 0)
(0 0.000578646 0)
(0 0.000622985 0)
(0 0.000453987 0)
(0 -2.14922e-05 0)
(0 3.1405e-05 0)
(0 0.000791318 0)
(0 -3.85243e-05 0)
(0 0.00116162 0)
(0 -3.13853e-05 0)
(0 0.00132503 0)
(0 0.000797229 0)
(0 0.00124665 0)
(0 0.000603217 0)
(0 0.000210634 0)
(0 -3.27285e-05 0)
(0 0.000759867 0)
(0 -2.84427e-05 0)
(0 6.60856e-06 0)
(0 5.9825e-05 0)
(0 5.59893e-05 0)
(0 -3.84874e-05 0)
(0 0.000419605 0)
(0 5.90585e-05 0)
(0 -3.82646e-05 0)
(0 -3.21111e-05 0)
(0 -3.59217e-05 0)
(0 1.85126e-05 0)
(0 -2.94543e-05 0)
(0 0.000667957 0)
(0 -3.85615e-05 0)
(0 0.000479379 0)
(0 0.000808138 0)
(0 -3.30212e-05 0)
(0 9.55489e-05 0)
(0 -3.6339e-05 0)
(0 4.42633e-05 0)
(0 3.19093e-05 0)
(0 0.000214804 0)
(0 -3.75881e-05 0)
(0 -3.83432e-05 0)
(0 0.000451901 0)
(0 4.14488e-05 0)
(0 0.000548575 0)
(0 -3.60652e-05 0)
(0 0.000623197 0)
(0 0.00129799 0)
(0 0.000680784 0)
(0 0.00115726 0)
(0 7.44961e-05 0)
(0 -3.58065e-05 0)
(0 -3.46789e-05 0)
(0 -3.84289e-05 0)
(0 0.000427327 0)
(0 0.000341357 0)
(0 -3.06439e-05 0)
(0 -3.55059e-05 0)
(0 0.000677777 0)
(0 0.000128359 0)
(0 0.000592022 0)
(0 -3.857e-05 0)
(0 0.000211337 0)
(0 0.00151741 0)
(0 -9.41932e-06 0)
(0 -3.55022e-05 0)
(0 -3.83626e-05 0)
(0 0.000132728 0)
(0 0.000217601 0)
(0 -3.13735e-05 0)
(0 0.000404525 0)
(0 -1.48387e-05 0)
(0 0.000385938 0)
(0 4.0561e-05 0)
(0 0.000205026 0)
(0 0.000394174 0)
(0 0.000682142 0)
(0 0.00142034 0)
(0 0.000264738 0)
(0 0.000101559 0)
(0 0.000261623 0)
(0 5.12277e-06 0)
(0 -1.28679e-05 0)
(0 4.69891e-05 0)
(0 0.000210341 0)
(0 0.000985805 0)
(0 0.00128252 0)
(0 9.14313e-05 0)
(0 0.00115053 0)
(0 1.03216e-05 0)
(0 6.71817e-05 0)
(0 1.97946e-05 0)
(0 7.20296e-05 0)
(0 -3.1631e-05 0)
(0 0.000988931 0)
(0 -3.84166e-05 0)
(0 0.00029941 0)
(0 1.21964e-05 0)
(0 8.87309e-05 0)
(0 -1.65607e-05 0)
(0 0.000465462 0)
(0 0.00113491 0)
(0 1.29012e-05 0)
(0 0.00126195 0)
(0 0.000675254 0)
(0 9.52896e-05 0)
(0 -1.77554e-05 0)
(0 0.00105129 0)
(0 0.000240155 0)
(0 -1.24405e-05 0)
(0 0.000433758 0)
(0 0.000234999 0)
(0 -1.13502e-05 0)
(0 0.000759735 0)
(0 6.66683e-05 0)
(0 0.000742266 0)
(0 0.000635069 0)
(0 0.000928898 0)
(0 -2.60154e-05 0)
(0 -7.69363e-06 0)
(0 -3.8222e-05 0)
(0 0.000984591 0)
(0 0.00168099 0)
(0 0.00081576 0)
(0 0.0011436 0)
(0 0.000411536 0)
(0 0.000298233 0)
(0 -3.63776e-05 0)
(0 0.000320488 0)
(0 0.000430209 0)
(0 -3.06524e-05 0)
(0 0.00036006 0)
(0 6.86063e-05 0)
(0 0.000700457 0)
(0 -3.85684e-05 0)
(0 0.000641899 0)
(0 0.000320972 0)
(0 -1.29827e-05 0)
(0 -3.8452e-05 0)
(0 0.00111936 0)
(0 0.00158461 0)
(0 0.00143777 0)
(0 0.000816932 0)
(0 0.000432151 0)
(0 0.000425852 0)
(0 -1.21706e-05 0)
(0 0.00057547 0)
(0 0.000173366 0)
(0 0.000688849 0)
(0 0.000717775 0)
(0 2.24608e-05 0)
(0 -3.82028e-05 0)
(0 0.000116408 0)
(0 0.00106319 0)
(0 0.00115994 0)
(0 0.000169363 0)
(0 0.000265564 0)
(0 0.000220605 0)
(0 0.00116519 0)
(0 0.00118659 0)
(0 -3.85628e-05 0)
(0 0.000492916 0)
(0 0.000189922 0)
(0 0.000123918 0)
(0 -7.61134e-06 0)
(0 0.00116911 0)
(0 4.07711e-05 0)
(0 0.000648316 0)
(0 -3.7782e-05 0)
(0 6.64787e-05 0)
(0 9.97494e-06 0)
(0 -3.65745e-05 0)
(0 0.000232604 0)
(0 -2.34482e-05 0)
(0 0.00010075 0)
(0 0.000995647 0)
(0 -3.81316e-05 0)
(0 0.000177354 0)
(0 0.00129779 0)
(0 0.00066185 0)
(0 9.22746e-05 0)
(0 -3.84821e-05 0)
(0 0.000653074 0)
(0 0.00175854 0)
(0 0.00124473 0)
(0 0.00120707 0)
(0 0.00100095 0)
(0 0.000665353 0)
(0 -3.63352e-05 0)
(0 7.96942e-05 0)
(0 0.000440062 0)
(0 0.00077955 0)
(0 7.85133e-05 0)
(0 5.81736e-05 0)
(0 0.00081904 0)
(0 0.000198145 0)
(0 1.861e-05 0)
(0 0.000816943 0)
(0 0.000335567 0)
(0 -3.81815e-05 0)
(0 0.000162285 0)
(0 0.000988265 0)
(0 -3.82968e-05 0)
(0 0.000583689 0)
(0 0.000222944 0)
(0 -3.44856e-05 0)
(0 -3.84808e-05 0)
(0 0.000784266 0)
(0 0.000586607 0)
(0 -3.579e-05 0)
(0 0.000183348 0)
(0 0.000324691 0)
(0 0.00031752 0)
(0 0.000100881 0)
(0 2.59234e-05 0)
(0 1.50427e-05 0)
(0 0.00143601 0)
(0 -3.70091e-05 0)
(0 0.000319414 0)
(0 2.57215e-05 0)
(0 0.0011068 0)
(0 0.00014069 0)
(0 0.00131224 0)
(0 0.000283204 0)
(0 0.000281931 0)
(0 -3.02856e-05 0)
(0 0.000921554 0)
(0 0.00117859 0)
(0 6.32982e-05 0)
(0 0.00114845 0)
(0 0.000697952 0)
(0 0.0010172 0)
(0 0.00018834 0)
(0 0.00121642 0)
(0 0.000261302 0)
(0 6.15572e-05 0)
(0 0.000126978 0)
(0 8.2411e-05 0)
(0 0.000627964 0)
(0 0.000870879 0)
(0 -3.85614e-05 0)
(0 0.000260856 0)
(0 0.000929411 0)
(0 0.000190596 0)
(0 -3.85533e-05 0)
(0 0.00114515 0)
(0 0.0017364 0)
(0 0.00108794 0)
(0 -1.02942e-05 0)
(0 0.000266227 0)
(0 -3.84994e-05 0)
(0 0.000890088 0)
(0 0.000230834 0)
(0 0.000665311 0)
(0 0.00064357 0)
(0 2.17293e-05 0)
(0 -1.66868e-05 0)
(0 0.000713666 0)
(0 -2.22736e-05 0)
(0 0.000980659 0)
(0 -1.04309e-05 0)
(0 0.000909383 0)
(0 0.000388958 0)
(0 0.00126383 0)
(0 0.000756319 0)
(0 -3.4853e-06 0)
(0 -3.85577e-05 0)
(0 0.000639068 0)
(0 0.000184407 0)
(0 0.000182072 0)
(0 0.00114783 0)
(0 -3.838e-05 0)
(0 -3.85611e-05 0)
(0 0.000241516 0)
(0 0.000749657 0)
(0 0.000884584 0)
(0 -3.84245e-05 0)
(0 0.00107681 0)
(0 -3.84599e-05 0)
(0 0.00131097 0)
(0 0.000533082 0)
(0 0.000716326 0)
(0 0.00027283 0)
(0 0.000775509 0)
(0 -2.38184e-05 0)
(0 -3.73936e-05 0)
(0 -3.84245e-05 0)
(0 -1.44805e-05 0)
(0 -3.85469e-05 0)
(0 0.00140133 0)
(0 5.92455e-05 0)
(0 -3.6169e-05 0)
(0 1.74011e-05 0)
(0 0.00064922 0)
(0 0.000614581 0)
(0 4.85663e-05 0)
(0 0.00107012 0)
(0 -3.79925e-05 0)
(0 8.79897e-05 0)
(0 2.00057e-05 0)
(0 0.000523672 0)
(0 -3.44477e-05 0)
(0 -3.85516e-05 0)
(0 -3.84135e-05 0)
(0 0.000107436 0)
(0 0.000207678 0)
(0 9.55733e-05 0)
(0 -3.80859e-05 0)
(0 0.00119115 0)
(0 -3.69654e-05 0)
(0 -1.03718e-06 0)
(0 -1.82919e-05 0)
(0 -3.40817e-05 0)
(0 -2.84325e-05 0)
(0 0.000468731 0)
(0 0.000335395 0)
(0 0.000479947 0)
(0 0.000464474 0)
(0 -3.80739e-05 0)
(0 -3.85369e-05 0)
(0 0.000588225 0)
(0 -3.8497e-05 0)
(0 0.000857029 0)
(0 0.000114523 0)
(0 -2.83477e-05 0)
(0 -1.35028e-05 0)
(0 -8.4349e-06 0)
(0 0.00134644 0)
(0 0.000216121 0)
(0 0.000385705 0)
(0 0.000759818 0)
(0 0.000979281 0)
(0 0.000179623 0)
(0 0.000606337 0)
(0 -3.59785e-05 0)
(0 9.44062e-05 0)
(0 0.00136576 0)
(0 -2.15799e-06 0)
(0 0.000107078 0)
(0 6.07632e-05 0)
(0 0.000534248 0)
(0 -3.81109e-05 0)
(0 -3.67492e-05 0)
(0 -3.30094e-05 0)
(0 0.000246776 0)
(0 9.29055e-05 0)
(0 0.000528966 0)
(0 9.45271e-05 0)
(0 0.00119266 0)
(0 -3.34465e-05 0)
(0 0.000238493 0)
(0 0.000557267 0)
(0 0.00129143 0)
(0 0.000396734 0)
(0 -3.83824e-05 0)
(0 0.000205613 0)
(0 0.0015378 0)
(0 -3.62944e-05 0)
(0 0.00138784 0)
(0 0.000199501 0)
(0 0.00119365 0)
(0 0.000312311 0)
(0 0.0016369 0)
(0 0.000681989 0)
(0 -3.84778e-05 0)
(0 4.80372e-05 0)
(0 4.89264e-06 0)
(0 -3.85235e-05 0)
(0 -2.7238e-05 0)
(0 0.00136418 0)
(0 0.000986523 0)
(0 0.000204636 0)
(0 2.77332e-05 0)
(0 0.000979496 0)
(0 0.000799806 0)
(0 -3.60919e-05 0)
(0 0.000463759 0)
(0 0.000552701 0)
(0 0.000193866 0)
(0 6.59751e-05 0)
(0 -3.55059e-05 0)
(0 0.00110632 0)
(0 3.03302e-05 0)
(0 0.000836401 0)
(0 0.000590997 0)
(0 -3.70573e-05 0)
(0 1.77054e-05 0)
(0 0.000121145 0)
(0 0.000711406 0)
(0 0.00110735 0)
(0 -3.85268e-05 0)
(0 -1.72891e-05 0)
(0 -3.01411e-05 0)
(0 -3.85168e-05 0)
(0 0.000813953 0)
(0 0.00111933 0)
(0 0.00149057 0)
(0 -3.85671e-05 0)
(0 0.000300492 0)
(0 0.000138413 0)
(0 0.000587577 0)
(0 0.000669996 0)
(0 0.000944465 0)
(0 0.000101439 0)
(0 0.00070846 0)
(0 -1.37861e-05 0)
(0 0.000893503 0)
(0 4.98793e-05 0)
(0 8.90991e-05 0)
(0 0.000698428 0)
(0 0.00116818 0)
(0 0.000714282 0)
(0 3.99398e-05 0)
(0 -3.84019e-05 0)
(0 0.000340005 0)
(0 -3.85426e-05 0)
(0 0.000974266 0)
(0 4.48303e-05 0)
(0 0.000707083 0)
(0 -1.12719e-05 0)
(0 0.00128342 0)
(0 0.00129193 0)
(0 0.000405687 0)
(0 5.49564e-05 0)
(0 7.33587e-05 0)
(0 0.00082059 0)
(0 9.15304e-05 0)
(0 -2.6325e-05 0)
(0 -2.14365e-05 0)
(0 0.000674764 0)
(0 6.95164e-05 0)
(0 -3.75898e-05 0)
(0 0.000495026 0)
(0 -3.22322e-05 0)
(0 1.12128e-05 0)
(0 -6.25484e-06 0)
(0 0.000798464 0)
(0 0.00062088 0)
(0 0.000263896 0)
(0 -2.16093e-05 0)
(0 0.000954695 0)
(0 0.000428539 0)
(0 0.000617407 0)
(0 0.000705039 0)
(0 0.000563809 0)
(0 0.00080633 0)
(0 0.00120622 0)
(0 0.00178662 0)
(0 -3.70781e-05 0)
(0 0.000212849 0)
(0 0.000454676 0)
(0 2.61278e-05 0)
(0 0.000836826 0)
(0 0.00148153 0)
(0 6.47858e-05 0)
(0 -1.58077e-05 0)
(0 -2.41629e-05 0)
(0 2.0693e-05 0)
(0 8.95259e-05 0)
(0 0.000181008 0)
(0 -3.79415e-05 0)
(0 0.000116268 0)
(0 -3.85315e-05 0)
(0 -9.29111e-06 0)
(0 0.000692218 0)
(0 0.000737866 0)
(0 0.000507081 0)
(0 -3.81713e-05 0)
(0 -3.83225e-05 0)
(0 1.37484e-05 0)
(0 -2.97709e-05 0)
(0 0.000801323 0)
(0 0.000865125 0)
(0 0.000310012 0)
(0 0.000659393 0)
(0 -3.85622e-05 0)
(0 0.000307316 0)
(0 0.000741393 0)
(0 1.2636e-05 0)
(0 -3.49611e-05 0)
(0 1.5395e-05 0)
(0 0.000475051 0)
(0 0.000431103 0)
(0 -1.3425e-06 0)
(0 0.000194624 0)
(0 0.000465221 0)
(0 -3.64052e-05 0)
(0 -2.9021e-05 0)
(0 0.000532271 0)
(0 -2.81347e-06 0)
(0 2.85773e-05 0)
(0 4.19476e-05 0)
(0 -2.08943e-05 0)
(0 0.000203239 0)
(0 0.000703133 0)
(0 1.6742e-05 0)
(0 0.00129494 0)
(0 0.000385661 0)
(0 0.000211114 0)
(0 -3.849e-05 0)
(0 0.000201875 0)
(0 7.40114e-05 0)
(0 -1.2517e-05 0)
(0 0.00078746 0)
(0 -3.85079e-05 0)
(0 -3.8548e-05 0)
(0 0.000994034 0)
(0 -3.83939e-05 0)
(0 7.64258e-05 0)
(0 0.000801942 0)
(0 0.0010162 0)
(0 -1.21276e-05 0)
(0 -3.70014e-05 0)
(0 0.000273363 0)
(0 0.000109938 0)
(0 0.00119387 0)
(0 -3.16846e-05 0)
(0 1.1813e-05 0)
(0 0.000129297 0)
(0 0.000840124 0)
(0 0.000829814 0)
(0 0.000754629 0)
(0 4.7218e-05 0)
(0 0.00044312 0)
(0 4.12998e-05 0)
(0 0.00011972 0)
(0 0.00031046 0)
(0 -3.67835e-05 0)
(0 -1.58564e-05 0)
(0 0.000459271 0)
(0 0.000212236 0)
(0 0.000494824 0)
(0 -3.64685e-05 0)
(0 0.000232738 0)
(0 0.00120183 0)
(0 0.000801296 0)
(0 0.00122899 0)
(0 0.000453364 0)
(0 -3.84697e-05 0)
(0 -3.63965e-05 0)
(0 -1.84063e-05 0)
(0 0.000203281 0)
(0 0.000914011 0)
(0 -3.48867e-05 0)
(0 0.000187182 0)
(0 0.000551672 0)
(0 -3.8172e-05 0)
(0 0.000790199 0)
(0 1.77592e-05 0)
(0 -3.85281e-05 0)
(0 0.000820104 0)
(0 -3.85343e-05 0)
(0 -3.80696e-05 0)
(0 -1.22493e-05 0)
(0 -3.85492e-05 0)
(0 4.07451e-05 0)
(0 0.000934347 0)
(0 0.000471895 0)
(0 -3.84371e-05 0)
(0 -3.49163e-05 0)
(0 0.000497596 0)
(0 -3.85159e-05 0)
(0 0.000271438 0)
(0 0.00121305 0)
(0 0.000224713 0)
(0 0.000644531 0)
(0 0.000207195 0)
(0 0.000286092 0)
(0 -3.58328e-05 0)
(0 -3.8554e-05 0)
(0 -3.48752e-05 0)
(0 8.01921e-05 0)
(0 5.33336e-05 0)
(0 2.98906e-06 0)
(0 -3.84885e-05 0)
(0 0.000813719 0)
(0 -3.85534e-05 0)
(0 3.95907e-05 0)
(0 0.000270712 0)
(0 0.000246484 0)
(0 0.000173588 0)
(0 0.000653156 0)
(0 8.70121e-05 0)
(0 -3.84727e-05 0)
(0 0.000820065 0)
(0 0.000847363 0)
(0 -3.84743e-05 0)
(0 -8.66589e-06 0)
(0 0.000216583 0)
(0 0.000236557 0)
(0 5.25242e-05 0)
(0 0.00144707 0)
(0 0.000114448 0)
(0 7.16794e-05 0)
(0 -3.30324e-05 0)
(0 0.000469007 0)
(0 0.000773759 0)
(0 5.57222e-05 0)
(0 -3.8517e-05 0)
(0 4.32012e-05 0)
(0 0.000641124 0)
(0 -3.54021e-05 0)
(0 0.000679767 0)
(0 0.000891542 0)
(0 0.00125964 0)
(0 0.000461919 0)
(0 0.00079751 0)
(0 0.000537234 0)
(0 -3.35201e-05 0)
(0 0.00031465 0)
(0 0.000186007 0)
(0 -3.80258e-05 0)
(0 0.000251535 0)
(0 -2.12837e-05 0)
(0 -2.99391e-05 0)
(0 -1.66347e-05 0)
(0 5.55038e-05 0)
(0 0.00110766 0)
(0 0.000323059 0)
(0 0.000702724 0)
(0 0.00040487 0)
(0 -2.12771e-05 0)
(0 0.000932269 0)
(0 -2.88715e-05 0)
(0 0.000214704 0)
(0 3.41034e-05 0)
(0 0.00135871 0)
(0 -3.57859e-05 0)
(0 7.19213e-05 0)
(0 -3.83318e-05 0)
(0 9.8439e-05 0)
(0 -3.83371e-05 0)
(0 0.000501268 0)
(0 4.47578e-05 0)
(0 -1.18237e-05 0)
(0 0.000128877 0)
(0 0.000532438 0)
(0 -3.43609e-05 0)
(0 0.000102039 0)
(0 -3.48743e-05 0)
(0 0.000901555 0)
(0 5.98766e-05 0)
(0 0.00140001 0)
(0 -3.83254e-05 0)
(0 -3.3883e-05 0)
(0 1.79246e-05 0)
(0 0.00138282 0)
(0 0.00144445 0)
(0 4.42236e-05 0)
(0 -3.85505e-05 0)
(0 0.000376817 0)
(0 0.00147539 0)
(0 0.00012932 0)
(0 -1.6543e-05 0)
(0 0.000167315 0)
(0 0.000614977 0)
(0 -2.38012e-05 0)
(0 0.000842284 0)
(0 0.00029479 0)
(0 0.00132485 0)
(0 0.000387248 0)
(0 0.00118924 0)
(0 -3.3802e-05 0)
(0 0.00116066 0)
(0 0.00120354 0)
(0 -1.43386e-05 0)
(0 -3.85512e-05 0)
(0 0.000590558 0)
(0 2.28995e-05 0)
(0 0.000696455 0)
(0 -2.40358e-05 0)
(0 0.000876467 0)
(0 -3.2857e-05 0)
(0 0.000481774 0)
(0 -1.33201e-05 0)
(0 0.000874081 0)
(0 0.000447566 0)
(0 -3.80265e-05 0)
(0 0.000422772 0)
(0 -3.82406e-05 0)
(0 0.000289012 0)
(0 -3.85499e-05 0)
(0 0.000552026 0)
(0 0.00107662 0)
(0 0.000795316 0)
(0 0.000300366 0)
(0 0.000225464 0)
(0 0.000225783 0)
(0 -3.85007e-05 0)
(0 0.000402914 0)
(0 0.000303617 0)
(0 1.65074e-05 0)
(0 0.00016134 0)
(0 0.00066751 0)
(0 0.000236963 0)
(0 -4.22632e-06 0)
(0 -3.85658e-05 0)
(0 0.00124103 0)
(0 -3.69049e-05 0)
(0 0.000701369 0)
(0 1.11289e-05 0)
(0 -3.8275e-05 0)
(0 0.000217076 0)
(0 0.00173896 0)
(0 0.000809659 0)
(0 7.9833e-05 0)
(0 -3.39039e-05 0)
(0 0.000278378 0)
(0 0.000193419 0)
(0 0.00107433 0)
(0 0.000177835 0)
(0 0.00102299 0)
(0 -3.74546e-05 0)
(0 -3.78706e-05 0)
(0 -3.85501e-05 0)
(0 0.000953953 0)
(0 0.000294405 0)
(0 -3.62876e-05 0)
(0 0.000677505 0)
(0 -6.70249e-06 0)
(0 0.000766053 0)
(0 -3.42222e-05 0)
(0 4.04213e-05 0)
(0 0.00162187 0)
(0 1.18358e-05 0)
(0 -3.41976e-05 0)
(0 0.00113779 0)
(0 0.000310822 0)
(0 0.0013261 0)
(0 2.40779e-05 0)
(0 -3.37038e-05 0)
(0 -7.22678e-06 0)
(0 -3.64112e-05 0)
(0 0.000781349 0)
(0 0.00075526 0)
(0 -3.79641e-05 0)
(0 0.000620619 0)
(0 2.47922e-05 0)
(0 0.000144494 0)
(0 0.000397695 0)
(0 0.00121724 0)
(0 -3.51792e-05 0)
(0 0.000364523 0)
(0 -3.53714e-05 0)
(0 0.00124301 0)
(0 -1.80938e-05 0)
(0 0.000473485 0)
(0 -3.58286e-05 0)
(0 0.000251932 0)
(0 0.000301712 0)
(0 0.000301103 0)
(0 -3.77175e-05 0)
(0 0.00102319 0)
(0 0.000128249 0)
(0 -3.23049e-05 0)
(0 -1.19439e-05 0)
(0 -3.84286e-05 0)
(0 -3.70169e-05 0)
(0 0.000559133 0)
(0 0.00151204 0)
(0 0.000918354 0)
(0 -5.71433e-06 0)
(0 0.00103907 0)
(0 2.98403e-05 0)
(0 -1.37748e-05 0)
(0 0.000310353 0)
(0 2.82636e-05 0)
(0 0.000793893 0)
(0 0.000867366 0)
(0 0.000121058 0)
(0 0.000793362 0)
(0 -3.85171e-05 0)
(0 -3.43134e-06 0)
(0 -3.32354e-05 0)
(0 2.59154e-05 0)
(0 0.000361374 0)
(0 -3.85175e-05 0)
(0 0.000374503 0)
(0 0.000368234 0)
(0 0.000667891 0)
(0 0.000129862 0)
(0 -2.11706e-07 0)
(0 0.00144955 0)
(0 0.000678784 0)
(0 0.00026194 0)
(0 0.000738497 0)
(0 5.65786e-05 0)
(0 -8.39588e-06 0)
(0 -3.84478e-05 0)
(0 1.18035e-05 0)
(0 0.000638528 0)
(0 -1.52035e-05 0)
(0 0.000809552 0)
(0 0.00108963 0)
(0 0.000566535 0)
(0 -3.4445e-05 0)
(0 -1.47418e-05 0)
(0 7.13946e-05 0)
(0 -1.36449e-05 0)
(0 -3.20538e-05 0)
(0 2.87538e-05 0)
(0 -3.09451e-05 0)
(0 0.000759968 0)
(0 0.000115814 0)
(0 -3.83135e-05 0)
(0 0.000745941 0)
(0 -3.489e-05 0)
(0 0.000947241 0)
(0 0.00101424 0)
(0 6.24676e-05 0)
(0 -3.58406e-05 0)
(0 0.000841361 0)
(0 1.00785e-05 0)
(0 -3.71202e-05 0)
(0 -2.35574e-05 0)
(0 0.000523189 0)
(0 0.000225732 0)
(0 0.000372067 0)
(0 0.000315923 0)
(0 -3.16188e-05 0)
(0 0.000612267 0)
(0 2.53155e-05 0)
(0 -3.84167e-05 0)
(0 0.000452093 0)
(0 0.000897499 0)
(0 0.000846363 0)
(0 -3.6854e-05 0)
(0 0.00124168 0)
(0 0.0017494 0)
(0 -7.76567e-06 0)
(0 0.00052881 0)
(0 0.00101003 0)
(0 -2.00386e-05 0)
(0 0.00039447 0)
(0 -1.32534e-05 0)
(0 -1.34122e-05 0)
(0 -3.85414e-05 0)
(0 -3.71788e-05 0)
(0 0.00140223 0)
(0 0.00121814 0)
(0 0.000870158 0)
(0 0.000576387 0)
(0 -2.08756e-05 0)
(0 0.000583051 0)
(0 -3.75261e-05 0)
(0 0.000365883 0)
(0 -3.83128e-05 0)
(0 0.000362508 0)
(0 0.000811239 0)
(0 0.000462743 0)
(0 0.000741104 0)
(0 9.32369e-05 0)
(0 0.000736301 0)
(0 0.00120937 0)
(0 1.57619e-06 0)
(0 0.000987445 0)
(0 0.000365841 0)
(0 0.000527297 0)
(0 -3.85563e-05 0)
(0 0.00038506 0)
(0 0.00149815 0)
(0 0.00116758 0)
(0 0.000117468 0)
(0 0.000846751 0)
(0 0.000475524 0)
(0 0.00106481 0)
(0 0.000615673 0)
(0 0.00118156 0)
(0 0.000916474 0)
(0 0.000323898 0)
(0 0.000107467 0)
(0 0.000267587 0)
(0 -3.83132e-05 0)
(0 -3.84292e-05 0)
(0 -3.8329e-05 0)
(0 0.000863664 0)
(0 0.000393485 0)
(0 0.0014736 0)
(0 0.000936948 0)
(0 0.00147303 0)
(0 0.000812933 0)
(0 0.000338226 0)
(0 0.00102844 0)
(0 0.000177242 0)
(0 0.000596236 0)
(0 0.00138912 0)
(0 0.000659951 0)
(0 -3.81231e-05 0)
(0 0.0011266 0)
(0 0.000988213 0)
(0 -3.82186e-05 0)
(0 0.000289151 0)
(0 0.000451687 0)
(0 -3.82452e-05 0)
(0 -3.85272e-05 0)
(0 0.000832931 0)
(0 -3.41983e-05 0)
(0 -3.64718e-05 0)
(0 0.000631564 0)
(0 1.02315e-05 0)
(0 0.000388045 0)
(0 0.000597299 0)
(0 0.00014909 0)
(0 7.4841e-05 0)
(0 0.000637287 0)
(0 0.00035156 0)
(0 0.000299134 0)
(0 0.00082822 0)
(0 -3.85686e-05 0)
(0 0.000772803 0)
(0 5.01746e-06 0)
(0 0.000292642 0)
(0 0.000175016 0)
(0 -3.81845e-05 0)
(0 0.000270949 0)
(0 0.000822186 0)
(0 0.000298335 0)
(0 0.000299309 0)
(0 0.000120692 0)
(0 -3.47915e-05 0)
(0 -3.83936e-05 0)
(0 -3.37035e-05 0)
(0 -1.89425e-05 0)
(0 -3.49709e-05 0)
(0 3.54415e-05 0)
(0 9.96509e-05 0)
(0 -3.59128e-05 0)
(0 -1.79166e-05 0)
(0 0.000401001 0)
(0 0.000103508 0)
(0 4.70628e-05 0)
(0 0.0011741 0)
(0 0.000304161 0)
(0 0.00032838 0)
(0 6.66231e-06 0)
(0 0.000942631 0)
(0 0.00135071 0)
(0 1.21982e-05 0)
(0 0.00080622 0)
(0 -3.57554e-05 0)
(0 0.000849007 0)
(0 -3.83403e-05 0)
(0 -7.32977e-06 0)
(0 6.60944e-05 0)
(0 0.00146764 0)
(0 0.000455662 0)
(0 0.000100493 0)
(0 4.69442e-05 0)
(0 0.000514384 0)
(0 2.61685e-05 0)
(0 -2.26518e-05 0)
(0 2.72321e-05 0)
(0 7.06271e-05 0)
(0 -3.60432e-05 0)
(0 -3.57238e-05 0)
(0 0.00104095 0)
(0 -1.41479e-05 0)
(0 1.14337e-05 0)
(0 -3.54274e-05 0)
(0 -8.9765e-06 0)
(0 0.00135472 0)
(0 0.000149426 0)
(0 0.000246817 0)
(0 0.000448429 0)
(0 0.000314851 0)
(0 0.000665262 0)
(0 0.000225525 0)
(0 -3.47013e-05 0)
(0 6.75461e-05 0)
(0 0.000568682 0)
(0 -1.47908e-05 0)
(0 -1.77177e-05 0)
(0 -3.84879e-05 0)
(0 -3.55514e-05 0)
(0 0.000321966 0)
(0 0.000451289 0)
(0 0.00161318 0)
(0 0.000909317 0)
(0 0.000232602 0)
(0 -5.97254e-06 0)
(0 -3.82744e-05 0)
(0 0.000980681 0)
(0 -3.61304e-05 0)
(0 3.48106e-05 0)
(0 -3.20871e-05 0)
(0 -1.58854e-05 0)
(0 0.000102827 0)
(0 0.000377659 0)
(0 0.000499805 0)
(0 -3.84401e-05 0)
(0 -3.84025e-05 0)
(0 1.56764e-05 0)
(0 -3.74473e-05 0)
(0 0.00106168 0)
(0 -3.49163e-05 0)
(0 0.00081104 0)
(0 0.000979494 0)
(0 -3.83973e-05 0)
(0 0.000149835 0)
(0 0.0010984 0)
(0 0.00120955 0)
(0 -2.06806e-05 0)
(0 -3.84556e-05 0)
(0 -3.38858e-05 0)
(0 -1.81002e-05 0)
(0 0.000876953 0)
(0 0.000938216 0)
(0 0.000439397 0)
(0 -3.841e-05 0)
(0 -3.84186e-05 0)
(0 0.000803218 0)
(0 0.000266651 0)
(0 6.13273e-05 0)
(0 2.21414e-05 0)
(0 -3.15504e-05 0)
(0 -3.70439e-05 0)
(0 -3.85057e-05 0)
(0 0.000256019 0)
(0 0.000794313 0)
(0 0.00109807 0)
(0 -3.62566e-05 0)
(0 0.00111565 0)
(0 -8.19183e-07 0)
(0 -3.82867e-05 0)
(0 -3.81571e-05 0)
(0 0.000471036 0)
(0 0.000124418 0)
(0 -3.85386e-05 0)
(0 -3.6688e-05 0)
(0 -3.83845e-05 0)
(0 -3.76942e-05 0)
(0 -1.95105e-05 0)
(0 -1.75862e-05 0)
(0 0.000735239 0)
(0 0.00013404 0)
(0 0.00175313 0)
(0 0.000836906 0)
(0 -3.82715e-05 0)
(0 1.76792e-06 0)
(0 -3.64539e-05 0)
(0 -3.67315e-05 0)
(0 -1.06073e-05 0)
(0 0.000696373 0)
(0 0.000324363 0)
(0 0.000902891 0)
(0 0.000367236 0)
(0 0.000919332 0)
(0 1.85844e-05 0)