/*--------------------------------*- C++ -*----------------------------------*\
| =========                 |                                                 |
| \\      /  F ield         | OpenFOAM: The Open Source CFD Toolbox           |
|  \\    /   O peration     | Version:  v2012                                 |
|   \\  /    A nd           | Website:  www.openfoam.com                      |
|    \\/     M anipulation  |                                                 |
\*---------------------------------------------------------------------------*/
FoamFile
{
    version     2.0;
    format      ascii;
    class       surfaceScalarField;
    location    "350";
    object      meshPhiCN_0;
}
// * * * * * * * * * * * * * * * * * * * * * * * * * * * * * * * * * * * * * //

dimensions      [0 3 -1 0 0 0 0];
oriented        oriented;


internalField   nonuniform List<scalar> 
14470
(
0.0185406
-0.00575873
-0.0128011
0.00178806
0.00117783
-0.0328349
0.0329407
9.98827e-05
0.000876679
0.00117062
-0.0020473
0.00801656
-0.00751907
0.000374039
0.00555477
-0.00556837
1.52254e-05
-0.00392721
0.00777025
-0.00383595
0.000776235
0.00210688
-0.00288316
0.0185294
-0.00313896
-0.0154501
-0.00126706
-0.0123742
0.0137442
-0.0136006
0.0124304
0.000214741
0.0260519
-0.0268248
-0.00568485
0.00261534
0.0030647
-0.0264743
0.0193855
0.00750901
0.0132394
-0.0158822
0.00286216
0.00855109
-0.00850285
-1.67396e-05
-0.0323988
0.0101881
0.021668
0.00316033
-0.00265906
-0.000501264
-0.00766505
0.0171633
-0.0093704
-0.0102201
-0.0118208
0.0218441
-0.00324268
0.00324268
0.000499513
-0.00247785
0.00197836
0.00252289
-0.00174669
-0.00367753
-0.00201236
-0.00281179
0.0113385
-0.00852778
-0.037958
0.0119673
0.0258456
0.0015385
-0.0027674
0.0007251
0.00579337
-0.0133722
0.00674547
-0.0016831
-0.00505769
0.0016029
0.000662826
-0.00226572
-0.00540685
0.00487663
0.000528383
0.032749
-0.0318601
-0.000412145
-0.0056901
-0.02315
0.0288519
-0.00157992
-0.00115221
0.00243306
0.00582206
0.00456204
-0.0103242
-0.0126696
-0.00170227
0.0143464
-0.00146986
-0.00788528
0.00937766
-0.00163394
-0.00213152
0.00376455
-0.0117422
0.00823956
0.00353359
6.73738e-05
0.00667981
0.00274226
0.00149909
-0.00424051
-0.000979399
0.00258052
-0.00160106
-3.63236e-05
0.0016774
0.00354052
0.0224137
-0.026016
0.00431849
0.0247071
-0.0292258
-0.00140991
-0.00117039
0.0025803
0.000591293
-0.00330659
0.00297854
-0.00522905
0.0196058
-0.0147088
-0.00181714
-0.0310103
-0.00761369
0.0135271
-0.00437363
0.00223478
0.0119462
-0.0082869
-0.00362739
0.00991748
-0.00907393
-0.0100894
0.00690223
0.00319848
0.00312179
-0.00224508
-0.0263544
-0.000616654
0.0262387
-0.000560454
-0.00659865
0.00715172
0.0121502
-0.0176493
-0.00330659
0.0105076
-0.00192616
-0.00857242
-0.0026961
0.00518383
-0.00248721
0.0319245
-0.0320827
0.000244966
-0.0140527
0.00249105
0.0116065
-0.00130959
0.00622468
-0.00650179
0.00052591
0.0179261
0.00116953
0.00118611
-0.000175024
0.0120186
-0.0117467
-0.00113741
-0.0131834
0.0143325
-0.00412492
0.00123424
0.00289081
0.0269287
-0.0117396
-0.0151946
-0.000513064
-0.00343175
0.0039437
-0.00172656
0.00309366
-0.00136714
0.00930729
-0.00895056
-0.000339147
0.00330723
-0.00508208
0.0017733
0.0056791
-0.00697005
0.00133165
-0.00598741
0.00726707
-0.00127646
0.00464104
-0.00187292
-0.00276776
-0.0322661
0.00832832
0.0239989
-0.00856347
0.00899252
-0.000263159
-0.000399351
-0.00558649
0.00245124
0.000709117
0.00760729
0.000963929
-0.012443
0.00275189
0.00974659
-0.0137907
-0.00434125
-0.000430061
0.00477397
-0.00914757
0.0013266
-0.00975
0.00819461
0.0016439
0.00205056
-0.0036856
0.0015557
-0.00425098
-0.0021673
-0.00069233
0.0028597
-0.000173633
0.0030976
-0.0029233
-0.00391367
0.0037409
0.00503154
-0.00847296
0.00346529
-0.00301843
0.00203912
-0.0295428
0.00562402
0.0237238
-0.00141461
0.00472107
-0.00751826
0.000193758
0.00734603
0.012933
-0.00225256
-0.0106036
0.000640481
0.00780734
0.00201555
0.00185597
-0.00387235
0.00246013
0.00954053
0.00757197
-0.00848442
0.000913886
-0.0251005
0.0285947
0.00603051
-0.00468397
-0.00134484
0.00371592
-0.00175563
-0.00195999
0.00864876
0.000674662
0.0252378
-0.0234208
-0.00203075
-0.0265267
-0.005714
-0.00227704
-0.00853161
0.00865777
-0.000147905
0.00259717
-0.00209762
0.00077167
0.00202752
-0.00279921
0.00184247
0.00048587
-0.00232834
0.0067877
0.0201265
-0.00814474
0.0262826
-0.0175567
-0.0063479
0.0180946
-0.0116082
-0.0249871
0.000455166
0.0240623
-0.000839677
-0.00206644
0.00290609
-0.0237919
0.0281492
-0.00439997
0.00222765
0.00287062
-0.00509747
-0.00938611
-0.000295183
0.00497691
-0.00458176
-0.000394371
-0.00102121
-0.00782206
0.00886594
0.0147775
-0.0165107
-0.0275439
0.00363804
0.00855371
-0.00294305
-0.00558937
-0.00125406
0.00285696
-0.00551946
0.00785781
-0.0023383
-0.00853183
0.00301506
-0.0139909
-2.98385e-05
0.0139217
-0.0316721
0.0103818
0.0212893
0.00146449
0.0170368
-0.0129509
-0.000994726
0.0140404
-0.0134262
0.0117512
0.0017169
0.00239015
0.00246518
-0.00485145
0.000128346
-0.00478625
0.00465611
-0.0142068
0.00796534
0.00600495
-0.000359831
0.00805019
-0.00302195
-0.00501718
0.00370204
-0.0026965
-0.00100537
-0.0088048
-0.0262928
0.00787535
0.0180942
-0.00118413
-0.00822678
0.00948236
-0.00110005
-0.00157383
0.00267388
0.00142465
0.00222098
-0.0036444
0.0286692
-0.00110364
0.00118433
-0.0025994
-0.0158478
-0.0159325
0.00104369
-0.009018
0.037711
-0.0285589
-0.00275787
0.0036129
-0.000854943
-0.000486706
0.0134751
-0.0178615
-0.0202654
-0.0241328
0.0227091
0.00145482
-0.00302447
0.00436979
-0.00134454
-0.000360868
-0.00812168
0.0310766
0.000702858
-0.00113022
-0.00427867
-0.0183121
-0.00416698
0.022477
0.00913068
-0.000860115
-0.0124379
-0.00155563
-0.0169731
0.00656152
-0.000542629
0.00272613
-0.00218326
0.00473595
-0.0202967
0.0153728
0.00201953
0.00262221
0.00811985
-0.0071825
-0.000929833
0.00210342
-0.0187781
0.0165088
-0.0236003
0.0262704
-0.00338045
-0.00103725
0.0118406
-0.0112305
-0.0143376
-0.012116
-0.00195187
0.00303995
-0.00108809
0.0033526
-0.00209865
-0.00125394
0.00189203
-0.0053479
0.00345796
-0.0238282
0.0235382
0.00529049
0.000269309
-0.00550296
0.00242529
0.00308061
0.00388845
-0.000919597
-0.00296861
-0.0362799
0.0272763
0.00901587
-0.00307454
-0.0101263
0.0132777
0.00418023
0.0018516
-0.00250998
-0.00184063
-0.00748844
0.0256514
-0.021551
-0.000126114
-0.0223216
0.0221691
0.00118778
0.003509
0.00146876
0.00113491
-0.00286152
0.00170224
0.00165042
0.00801712
-0.000434603
-0.0183605
0.00391957
0.0143929
-0.000535187
0.00198263
-0.00144747
-0.00328908
0.000547595
0.00274132
0.0110256
-0.010698
-0.000326892
-0.0173298
-0.00289033
0.0200514
-0.00111132
0.0135128
-0.0123712
-0.00245897
-0.000291305
0.0027503
0.0153819
-0.00672853
-0.00922122
-0.0135829
0.0233615
-0.0211188
0.0224118
-0.00150185
-0.00882272
-0.0129159
0.0216722
-0.00630887
-0.00889931
0.0151193
0.0110672
-0.00235505
-0.00861928
0.0154461
-0.0119484
-0.00347044
0.0010633
-0.00318364
0.0021203
-0.0251858
0.00539512
0.0196537
-0.0094506
0.01057
-0.00107804
0.0174857
-0.0155204
-0.00413504
-0.0141236
0.0182538
0.00440738
-0.00326189
-0.00114506
0.00770892
0.00279808
0.000904121
-0.011243
0.0114815
-0.00061131
-0.00319946
-0.000925308
-0.00264876
-0.00972722
0.0107601
-0.0121655
0.00146586
-0.0131575
-0.013066
-0.00323689
0.00563103
0.0182126
-0.0259104
0.0066239
-0.00130368
-0.00532255
-0.00105771
-0.00643687
0.0124748
-0.0188854
0.00249183
0.000180493
-0.00267256
-0.00263504
0.00639151
-0.00374461
-0.00289758
0.00794673
0.029945
-0.00722146
-0.0229499
-0.00152961
0.00913638
-0.00757694
-0.00673919
-1.66154e-05
0.00675244
0.00555562
-0.00572229
0.000163608
5.06697e-05
0.00550239
0.00198404
0.00123429
-0.00321847
0.00491567
0.00247731
-0.00739476
-0.00101306
0.0118698
-0.00524635
-0.00876394
-0.000628035
-0.00266122
-0.00123914
-0.0174962
0.0183182
0.00177051
0.00291268
-0.0010702
0.00444702
0.0101565
0.0175639
-0.0168535
-0.000272669
-0.00232445
0.00506755
-0.0297752
0.0261889
0.0034687
-0.00240493
-0.00608044
-0.00135647
-0.00543436
0.00679248
-0.000492904
0.00673055
-0.0062321
-0.0179083
0.00752687
-0.0105392
-0.009916
0.000489733
0.00799394
0.000155958
-0.00812559
-0.012559
0.0109023
0.00167594
-0.0279109
-0.00879949
0.00505858
0.0037561
-0.00242792
-0.00023398
0.0026619
-0.0064902
0.0187801
0.00287072
0.00351853
-0.00638314
0.00244989
0.00781824
0.0209195
-0.00181932
-0.0200903
0.00912311
-0.00495404
-0.00450164
0.00228205
-0.0267586
0.000509797
0.0261921
0.000709003
-0.00373283
-0.0030273
0.00457643
-0.00154893
0.0243769
-0.0196559
-0.00468599
-0.0070318
0.0252445
-0.00448727
0.0019409
0.00254662
0.00409437
0.00362777
-0.0135012
0.0137521
-5.92762e-05
-0.00234769
-0.00292904
0.0036756
-8.09756e-05
-0.0029466
0.00298661
-0.00352885
-0.010734
-0.000740419
0.011437
-0.00429991
0.00233995
0.00196017
-0.006124
-0.000847906
0.00696681
-0.000358978
-0.00247667
0.00208913
0.000387514
-0.00454262
-0.0143098
0.000771959
-0.00204006
0.00126812
0.00877605
-0.00100537
-0.00890859
-0.00713345
0.000383638
0.000731569
-0.00196942
0.00123787
-0.00233738
0.00518187
-0.00284695
-0.00245605
0.0074443
-0.00252865
0.0139603
-0.014089
0.00813663
-0.000506686
0.00153202
0.0139199
-0.00182714
-0.0186538
0.0204954
0.0121214
-0.0191013
0.00688631
0.00229364
0.00211392
0.00545235
-0.00826644
-0.0210059
0.0138675
-3.32559e-05
0.000172348
-0.000314274
-0.00312164
-0.00861188
-0.000358981
0.00249267
-0.00249116
-0.0184547
-0.00283693
0.00112105
0.00171585
-0.0294692
0.00772263
0.0211571
0.00125352
0.0187011
-0.0195368
0.000292807
0.000605095
-0.000935465
-0.0276425
0.000769621
0.00249185
-0.00259611
0.000104259
0.00357866
-0.00215294
-0.0057575
0.00325587
0.00249854
0.00209126
0.0100391
-0.0120956
-0.00863211
0.00751471
0.000461408
-0.0087431
0.00780931
0.000944647
-0.00306352
0.000305719
-0.0252594
0.00012017
0.0024098
0.00216597
-0.0128301
0.00085444
0.0120136
0.0297866
-0.00734545
-0.000567589
-7.85101e-05
0.0314213
0.0017852
-0.0035675
-0.0052142
0.00117784
0.00199267
-0.0174781
0.0200037
-0.00252195
-0.00592973
-0.00103155
0.00694207
0.0210769
0.00074535
0.0157757
-0.0165287
0.000711681
0.00554547
-0.00627169
-0.000613057
0.00685093
-0.00622835
0.0263224
-0.0320148
-0.0248942
-0.000195002
0.0249163
-0.0114818
0.0136137
-0.00282041
-0.00223151
0.00505348
-0.0021261
3.68498e-05
0.00208924
-0.0245981
-0.00813027
0.00149445
-0.0249313
0.00241631
0.0127723
-0.0154443
-0.00239282
0.000440943
-0.00177041
0.00254239
-0.0027826
0.00347309
-0.000690445
-0.0171703
-0.000721037
0.0174575
0.00550594
-0.00611053
-0.00720695
0.00125647
0.00378975
-0.00217169
-0.00161782
0.00850328
-0.00357741
-0.00492883
-0.0014679
-0.0164502
0.0174584
0.000809769
0.0174516
-0.018747
-0.0146894
0.0168205
0.00765327
0.000494545
-0.00272817
0.0182783
-0.0156745
0.00254882
-0.000337654
-0.00221104
0.0183619
-0.0247609
0.00670162
0.0262191
-0.0321929
0.00567891
0.00637372
-0.00171699
-0.00464973
-0.00135352
-0.00148347
-0.00152085
-0.0016786
0.00150812
-0.00219433
0.00384308
-0.00182795
-0.00903847
-0.00286135
0.0119105
0.00243879
-0.000828738
-0.00161004
-0.00340134
0.00198934
0.00141204
-0.00116365
0.00314762
0.000708378
0.0112474
-0.0118545
-0.00587895
-0.00584553
0.00458906
-0.00446243
0.000861169
-0.00302841
0.00190487
0.00151642
0.00549034
-0.00699856
0.00186081
-0.00633047
0.00368068
-0.000782263
-0.00997739
-0.00351297
-0.0161145
0.0192968
-0.027049
0.0245549
0.00269784
-0.018225
0.0153869
-0.037318
0.0313593
0.00518359
-0.000266672
0.000266672
-0.000780057
0.00332905
-0.0137787
-0.000108135
0.00661282
-0.00648969
-0.0109544
0.00985378
0.00113132
0.00159674
0.00437885
-0.00597428
0.0136174
-0.0154799
-0.00838111
0.0111845
0.00248889
7.65492e-05
-0.00256545
-0.00376902
0.00139089
0.00237808
-0.00434866
-0.000678069
0.00501726
0.00103126
0.00747319
0.0276047
-0.00197648
0.0109432
-0.0101426
0.00383234
0.0292147
0.00287208
0.00171852
-0.00459016
0.00777038
-0.0121568
0.00321477
0.00199669
-0.0035176
-0.00376111
0.00576333
-0.00200099
-0.00527933
0.00135751
-0.000462152
-0.00232041
-0.00583359
0.0065305
-0.0200181
0.00201268
0.018772
0.0293121
-0.0274488
-0.00195377
-0.00506675
0.000278398
0.00483847
-0.00196567
-0.0213645
-0.00407215
-0.00195494
-0.00144639
-0.00184657
-0.0171839
-0.0249226
0.018135
0.00573741
0.00257257
-0.00184096
0.00280438
0.00794156
-0.00669068
-0.0188167
-0.0069917
-0.000182813
0.0250785
-0.006699
0.0171537
-0.0125818
0.00348087
-0.00552283
0.0020445
-0.00384308
0.00332897
0.00224781
-0.00955934
0.00732079
0.00893131
0.0020973
0.0325545
-0.0160039
-0.017168
0.0229255
-0.000609645
-0.0226259
-0.00186014
-0.00272145
0.00744978
-0.00723474
0.0205125
-0.0213838
3.78665e-05
-0.0207831
0.0211746
0.000173916
-0.0053956
-0.00467977
0.0064391
0.000104294
-0.00655863
-0.00834979
0.0106068
0.000739389
-0.00231323
-0.0225165
0.0010524
-0.0296867
0.00668268
0.00234964
-0.00422999
0.00188066
0.015432
0.0165892
0.000289813
-0.00271775
0.00150327
0.00238551
0.0221266
-0.0225168
-0.032506
0.00155581
0.0314046
-0.00559369
0.0176222
0.0236209
-0.00696039
0.0193188
0.00453046
-0.00267501
0.000899287
-0.00100764
-0.00347935
0.00959402
0.0173621
-0.0175009
0.000232669
0.00718618
-0.00818689
0.00788512
-0.00933538
0.00104048
-0.00310697
0.00123363
0.0092921
-0.00494981
-0.00176792
-0.0102186
-0.00010835
0.00368768
0.00256033
0.0180721
-0.0207351
-0.0241269
0.00578898
-0.0206125
0.0096553
-0.00311638
0.0344939
-0.00822272
-0.0266575
-0.0164745
-0.000795843
0.0172719
-0.025346
-8.09576e-06
-0.0181937
0.018658
-0.000122979
-0.00170205
-0.0122214
0.0139207
0.0136187
-0.0120847
0.00449995
-0.00585586
-0.00325021
0.00248925
-0.00128592
-0.00316738
0.000708414
0.000486935
0.00942295
-0.00992492
-0.00436463
0.000604917
-0.00267259
0.000195913
-0.0191438
0.00063365
0.00576459
0.00233658
0.00544336
-0.0193444
0.016275
0.0100334
-0.0120754
0.00173084
-0.0216779
0.0162116
0.00510886
0.00239825
-0.00621547
0.0038189
0.00536633
-0.0062175
-0.00251557
0.0260398
-0.00154621
-0.0238884
0.0024746
0.019011
-0.00371311
0.00541392
-0.00170301
-0.00280317
-0.00269789
0.00184344
0.00605426
-0.00899054
-0.0110238
-0.0131534
0.0011917
-0.00780446
0.00661856
-0.00239319
0.00122279
-0.00428069
0.00194171
0.00284251
0.00586882
-0.0087316
0.000516875
0.0129867
-0.013361
-0.00328741
0.00616277
0.00454474
-0.00252449
0.00272239
0.00335171
-0.0060659
0.0143687
-0.0198319
0.00536266
-0.0313491
0.0108099
0.0205174
-0.00211728
0.00318053
0.0293103
-0.0282706
-0.00153614
-0.00305381
0.00548169
0.00537869
-0.00163346
-0.00374388
0.0170471
0.00283964
-0.0015334
0.00452075
-0.00963493
0.0107068
-0.00101352
-0.00204435
-0.00105454
0.00309869
0.0230051
-0.000414012
0.0015085
0.0014718
-0.00298033
0.00240877
-0.00460558
0.00219746
0.0146675
-0.0012199
-0.00252689
0.00446806
-0.0265155
-0.00340644
0.00177365
0.00201642
0.00397069
-0.0241913
0.0201731
-0.0259977
0.0242341
0.00153419
-6.83162e-05
0.0123197
-0.0300941
0.0278726
-0.00267244
-0.0202109
0.0256179
0.00709763
-0.0191064
0.0117075
-0.00218605
-0.0111229
0.013329
-0.0191296
0.0179553
-0.0208686
0.00832531
-0.00506138
-0.00324685
0.0189526
-0.00752724
-0.0113316
-0.0103057
0.00887913
0.011713
-0.0204526
-0.0151238
0.0239723
0.000516908
0.00197198
-0.00379714
0.00498758
-0.00119253
-0.00898932
0.0118082
0.00541284
-0.00022947
0.013843
-0.000568564
0.017186
-0.0166414
-0.00182092
0.00965914
-0.0169439
0.00135161
0.0021216
0.018952
-0.00309243
-0.00265355
0.00420363
0.00142706
0.000928589
-0.00235565
-0.00212743
0.00362715
0.00819352
-0.000187076
-0.00269311
0.000375829
0.00334932
-0.0054854
0.019659
-0.0142576
-0.0146348
0.0144024
-0.00015024
-0.0030827
-0.00329653
-0.0175594
3.0472e-05
-0.00687235
0.00882765
-0.00193377
-0.000591146
-0.012556
0.0130712
-1.97884e-05
0.00251153
0.000297989
0.0088498
0.00235798
-0.00118845
0.00063425
-0.0032472
0.000962936
-0.00484238
0.0020229
0.00614032
0.0181753
-0.0246357
-0.00355592
-0.00606359
0.00966266
-0.0023985
0.00216452
-0.0221265
0.0261505
-0.00212063
0.00455005
-0.0024288
-0.0258856
0.0256917
0.000455283
0.00119942
-0.00153537
-6.27084e-05
0.0179789
0.00353121
0.00370073
-0.00586
0.00215561
-0.000139009
-0.00304466
-0.0140341
0.000986902
0.0157909
-0.00591448
0.00174369
-0.00707095
-0.00148551
0.00655002
-0.00190923
0.0034177
0.00176025
-0.00962989
-0.00578336
0.00667211
-0.00297868
0.00582551
0.00144515
-0.003051
-0.000724146
0.00360771
0.00908989
-0.0146675
0.000163257
0.0166067
-0.0170296
-0.00290868
0.00741404
-0.0203583
-0.000875325
0.0198287
0.00436134
0.00203672
-0.0326048
0.0169415
-0.00246391
-0.0148387
0.0172596
0.00280799
0.00674136
-0.0094865
0.00511718
-0.00494742
-0.000166398
-0.00214713
-0.00373774
0.00588471
0.0206148
-0.00147618
-0.00120708
0.00320942
-0.00539968
0.00259842
-0.00149127
0.0243147
-0.0227456
0.0180533
-0.000768732
0.00244825
-0.0154581
-0.0179844
-0.00835311
-0.00341345
-0.00198476
0.0112425
-0.012159
0.00228898
-0.00440871
0.00579495
-0.000467187
-0.00532515
0.00651362
0.001638
-0.00814484
-0.00943067
0.00829176
0.00115891
0.000895941
0.0016767
-0.0130892
0.000222878
0.00194625
-0.0050255
-0.00277222
0.00171946
0.0010528
-0.00301928
-0.00182159
-0.00268572
-2.54098e-05
0.00271152
0.00172656
0.00365279
-0.00528323
0.0175216
-0.00849167
-0.00250454
0.00037844
0.0111766
-0.00828446
-0.00251196
0.000784465
-0.00380276
-0.00366865
0.000635293
-0.00200592
0.00763278
0.000577776
0.00550112
-0.0051274
-0.000367144
-0.00453776
-0.00293565
0.00746425
0.000992087
-0.00234571
-0.00194968
0.00339558
-0.00144587
-0.00490187
0.0116987
0.00569352
-0.000179892
0.00163544
0.0162317
0.00454192
-0.00131218
-0.00322929
0.0116015
0.0234438
-0.0176515
-0.00286089
-0.0155538
-0.0182019
0.00237133
0.0159508
-0.000283987
0.00774963
-0.00213182
0.00336598
0.00445162
-0.00211139
0.00277385
-0.000950866
-0.001823
-0.0132413
0.0123382
0.00848555
-0.00957498
0.00112811
-0.00317271
0.00239998
-0.004245
0.00184451
0.0142844
-0.0140544
3.62985e-05
-0.00719169
4.99749e-05
0.00714881
0.00896978
-0.0130973
0.00245856
-1.97606e-05
-0.00405988
0.00755016
0.0221328
-0.00414481
-0.00161498
-0.00211272
0.00446291
0.000702599
-0.00265224
0.00486258
0.000388725
0.0105273
0.00417635
-0.00208112
-0.00209508
0.00186084
0.00929166
0.00488048
-0.00137019
-0.0083883
0.00487943
0.00592131
-0.00432299
-0.00276331
-0.00820242
0.0109872
-0.000989789
-0.0212906
0.0153477
0.00587028
-0.000654506
0.0234647
-0.00830642
0.00177978
0.00652186
-0.000508149
-0.0030671
-0.0046609
-0.00364657
0.00636565
-0.00419579
-0.00216843
0.00116744
-0.0050927
0.00392898
-0.000803036
-0.000215389
0.000822386
-0.00106514
-0.00865367
0.00905474
-0.0185509
0.00314985
0.0154677
0.0177737
-0.000884998
-0.0168475
-0.00338034
-0.00125328
-0.0191177
-0.0108457
0.00639569
-0.000594452
0.00616752
-0.00376848
-0.000304866
0.00202267
-0.000530084
0.00564882
-0.00392983
-0.000207291
-0.0244024
0.0233526
-0.00184961
-0.000922599
0.000262485
-0.0087491
0.00857418
0.00627966
-0.00636525
8.57022e-05
-0.000785731
0.00518926
-0.00278063
0.0287998
-0.00859885
-0.0205497
-0.0287735
0.0198615
-0.00111065
0.0069428
-0.0104116
0.0186511
0.000839234
-0.00864616
0.00754443
0.0011184
0.000835
0.00285909
-0.00369598
0.00707941
-0.016024
-0.00675821
0.0048233
-0.00334007
-0.00148523
-0.00975911
-0.00275666
-0.0016029
0.00170052
0.00312003
0.00056065
-0.0171347
0.00752462
-0.0060206
-0.00968765
0.0143314
-0.0104452
0.0189544
-0.0013072
0.00430104
5.39647e-05
-0.00435624
0.00183971
-0.00184116
0.00315009
-0.00130895
-0.0170907
0.0195657
0.000654544
-0.0256935
0.0207992
-0.00188738
-0.0187085
0.0166409
-0.00316264
-0.0133449
0.0137813
0.00526411
-0.0126178
0.0100339
0.00178032
0.00144014
-0.00322086
-0.00916471
0.00952032
-0.0153947
0.00191474
0.00263146
-0.00988636
0.00757011
-0.00104713
0.0172777
0.00128656
0.0027569
-0.00120478
-0.00155211
0.000890044
0.0129837
0.000438914
0.00965732
-0.0117762
-0.00314121
0.00431165
-0.00225498
0.00196368
-0.00544925
-0.0165087
-0.00102413
-0.0281693
0.00155391
0.00990579
0.01866
-0.0100976
0.00477511
0.000190091
-0.0049651
0.000277445
0.0153048
-0.0155365
0.00333297
-0.00623715
-0.000642342
0.0152183
0.0180662
-0.000938042
-0.00559766
0.00344958
-0.00261928
-0.000692804
0.00331213
-0.0066709
0.00591254
0.000757222
0.00507307
0.0328148
-0.0137666
0.0166856
-0.00318126
0.00415545
-0.0064032
0.00225175
-0.00944634
0.00492974
0.00127073
-0.00619954
0.00392574
-0.0214841
0.0172777
-0.00103697
-0.0248643
-0.00224305
0.00272893
0.00115817
-0.00165343
-0.00682534
0.000218703
-0.000887521
0.00591207
-0.00502581
0.00240326
-0.00101379
0.00389782
0.0103137
-0.0142583
0.00204824
0.000596278
-0.00264447
0.00291733
-0.00770491
0.000172348
-0.0022166
0.00307788
0.00386954
-0.00841246
-0.00496526
0.000624915
0.00628996
-0.00734252
-0.0222904
0.0210487
0.000245176
-0.00286437
0.00567858
0.00177988
-0.0244964
0.00110978
0.0233284
-0.0145856
0.0184189
-0.00819836
0.00931806
-0.00108767
-0.00241802
0.00224142
0.000176597
-0.000772733
0.0207182
0.0257093
-0.02526
0.0141559
-0.0247968
-0.0276192
-0.0237276
-0.0105589
-0.0107174
0.000437394
-0.00312278
-0.00908226
0.000915049
-0.0141737
0.0124574
-0.0296701
0.0284157
0.000458284
-0.00216212
0.00302906
-0.00595649
0.014471
-0.0114272
0.00664644
-8.63955e-06
0.0198555
0.000999386
0.00552349
-0.0166048
0.011217
-0.00244997
0.00273977
-0.00361288
-0.00211135
0.00571301
0.0150958
0.00232806
0.00093266
-0.00104579
-0.0155252
0.00818187
-0.0109291
0.00423126
-0.0021175
-0.00211275
-0.00285
0.000710206
0.00213976
-0.024069
0.00328067
0.0207875
-0.0162199
-0.00190603
0.00287654
-0.000970906
0.00524021
-0.00674801
-0.0116316
0.0103954
-0.0130597
0.00688624
-0.00251929
0.000998464
-7.40119e-06
-0.000975982
0.00633927
-0.00627032
-0.00071022
-0.000598374
-0.00317066
0.00143833
0.0121584
0.000270388
0.0014375
-0.00398888
0.000749532
0.0255879
-0.0102378
0.00890013
0.00133864
0.000677162
0.0170297
0.0104888
-0.0112663
-0.00569687
0.0072232
-0.0021433
-0.00193579
0.00407834
-0.0145993
-0.0154769
0.00378742
0.030189
0.00164124
-0.00207245
0.0269586
-0.00296018
0.0106791
0.00153671
-0.0122763
-0.0164518
0.0162983
-9.09569e-06
-0.00740364
-0.0231015
-0.00461328
0.00870589
-0.00404787
-0.00589161
0.0015329
-0.000559222
0.00821553
-0.00582353
-0.0028077
-0.0205979
-0.0147495
0.00250196
-0.00149347
-0.00100849
0.00242417
0.00403584
-0.00644783
0.0168102
0.00153724
0.00772579
-0.00338415
-0.00435541
0.00118067
-0.00243472
0.00299849
-0.0169196
0.000315412
0.00130869
0.0222673
-0.02355
0.00437332
-0.00587778
0.00151156
-0.00724007
0.00268695
-0.00207832
-0.0199755
-0.00987735
-0.00253888
0.0125763
-0.0271957
0.0205801
0.00580726
-0.0133871
-0.0034454
0.00154073
0.00235394
0.00304121
-0.00539336
0.0172799
-0.00669783
0.00382373
-0.00425139
-0.0359923
0.0342802
0.00142761
-0.000331893
0.00578749
-0.00545032
-0.0266865
-0.00192995
0.0280564
0.0152286
-0.00170238
0.00128796
0.0211918
-0.0224688
0.000446574
0.0108959
-0.000193984
-0.00352116
0.00277706
-0.00135001
-0.00810962
0.00782016
0.00470494
0.00301873
0.0098214
-0.000658622
0.0251436
0.00280979
-0.00191374
-0.000477019
0.000987513
0.00731408
-0.00823531
-0.0146272
-0.00333847
0.0178673
-0.025705
-0.00187018
0.00277626
-0.000906072
-0.0219191
0.0232515
-0.00124737
-0.0186093
0.000697669
-0.0118521
0.00121388
0.0106724
-0.00756689
-0.010802
0.0182272
0.00197454
0.00187631
-0.00414872
-0.0162997
0.00205177
0.00249956
0.00330888
-0.00126058
-0.00273607
0.000688758
0.000526302
-0.00432584
0.00118767
0.0013143
0.000901843
0.0041712
-0.00607751
0.00190851
-0.00338626
0.00163083
-0.00079725
0.00087208
-4.57155e-05
0.0157834
-0.0057611
0.0223726
-0.0165074
0.00227343
0.00364809
-0.00134441
0.0177317
0.00136022
0.00178993
-0.00646675
0.00766584
-0.00604701
0.000778236
0.00527717
-0.019873
0.0169015
0.0029108
0.00205643
-0.0042449
0.00218935
0.00184495
-0.00228963
0.000444682
-0.000868297
0.00293761
-0.00206929
-0.00821118
0.00978071
-0.00152293
0.0101217
-0.00939005
-0.000695352
0.00254853
-0.0100442
0.00149763
0.00211541
-0.019495
0.00261784
0.0167289
0.000708601
-0.00285419
0.00214522
-0.00228167
-0.00328722
-0.00466933
-0.000428663
0.0051028
0.000196958
0.00297068
-0.00316712
-0.00294893
0.00418325
0.0138134
-0.00288386
-0.0166661
0.0134381
0.00331283
0.00123205
-0.0230675
-0.00239213
0.00985083
-0.00742778
0.00148389
0.00160975
0.00173632
0.00130364
-0.00676751
-0.0162863
0.0231566
0.00230483
-6.91674e-05
-0.0022357
0.00175307
0.0128282
-0.00592196
0.00197725
-0.00412195
-0.00339988
0.00423269
0.0015136
-0.00491518
0.0169112
-0.016545
-0.00805373
-0.00945528
-0.00132142
0.0108551
0.0141003
-0.0140788
-0.00435315
0.00132812
0.00133409
-0.0188723
0.0166085
-0.00230556
-0.00119055
0.00349616
0.00652237
-0.0010673
-0.00796482
-0.000386359
0.0168235
-0.00671792
0.0048976
0.00182677
-9.2182e-05
-0.00389806
0.00617145
1.39413e-05
-0.011873
0.0119256
0.0033291
-0.00162678
-0.00258507
0.00387616
-0.00129053
-0.00206974
0.00486124
-0.00279021
0.00936217
0.0028826
0.000281037
-0.00351991
0.0128472
-0.0127614
0.00269671
-0.000101892
-0.0256142
0.0214723
0.00216261
0.00565828
-0.00072593
0.00876285
-0.0119516
0.0216897
-0.0231144
-0.000661971
-0.0101485
0.0108616
-0.00202044
0.00273064
0.0120271
-0.010468
-0.00142012
-0.00209184
0.0217575
-0.0197868
-0.00120338
0.0036032
0.0323664
-0.0318086
0.00251081
-0.000556603
-0.0157989
0.00097471
0.0252776
0.00446035
0.00920268
-0.0136308
0.00209489
-0.00210191
7.02458e-06
-0.00568454
-0.000532936
0.00234413
-3.93128e-05
-0.00465889
0.00122596
0.00101769
0.0165577
-0.00137688
-0.0105226
0.00144816
0.00911709
0.000144784
0.00163659
-0.0275888
0.024771
-0.0196388
-0.00197596
0.0217021
-0.00187939
-0.00162014
0.00349979
0.00872761
-0.000914788
0.0132478
-0.0129309
-0.00801975
0.0066699
-0.00543245
0.00168933
0.00285362
0.0255176
-0.0187287
-0.00317922
0.00605008
0.0260229
-0.0208786
0.0144211
-0.00313486
0.00351409
-0.000379267
0.00590791
-0.000159972
-0.00574646
-0.00615967
0.0150851
-0.0181258
-0.02294
0.0226395
0.000225531
-0.00201436
0.00275374
-0.00139485
-0.00279179
0.00418626
0.00330121
0.00234814
0.00134847
-0.0021772
-0.0303301
-0.000347819
-0.00326086
-0.0147219
-0.00699679
-0.0244576
-0.000152176
-0.00209087
-0.00107857
0.0115438
0.00428901
0.00200838
-0.00631143
0.000945443
-0.0123937
-0.00401789
0.01898
-0.015082
-0.0142886
0.00369396
-0.00520868
-7.76921e-05
0.00680884
0.0184628
0.00522329
-0.0055502
0.00417983
0.0230742
-0.00204509
0.00120974
-0.00486984
-0.00177953
-0.0108056
-0.0110622
-0.0119948
-0.00381332
0.00312876
-0.00142238
-0.00131365
0.001293
0.00825392
0.00273996
-0.0012018
-0.00153815
0.0263673
0.00235776
-0.0294292
0.00900841
-0.00137152
-0.0116988
0.0123428
0.00316736
0.0017147
0.00252202
-0.0210991
-0.00146604
-0.00748297
-0.000617223
0.00812477
-0.00621769
-0.00118487
-0.00647717
0.0076723
-0.00480077
0.00675164
-0.00402282
0.00214622
-0.00446962
-0.0040903
0.0035194
0.000570048
-0.00407785
0.018366
-0.000320904
0.00410958
-0.00378734
-0.00245677
0.00263704
-0.0124789
0.0112432
0.00124255
0.00124679
0.00312381
0.00537568
0.00099414
0.0183904
-0.0215466
0.00287997
0.0132122
-0.0122299
-0.00757617
0.000450259
-0.00329201
0.0285807
-0.00842294
-0.0217571
-0.0234745
-0.0149156
0.0143276
0.00172004
0.0180263
-0.019505
0.0255459
-0.0199554
-0.00570699
0.0256168
0.00323115
-0.00145122
0.00202466
-0.0117873
0.0129978
0.000220772
-0.0131073
0.00477872
0.0252428
-0.00483252
-0.0203569
0.0253539
-0.024618
-0.000606833
-0.00797706
-0.000667954
0.00866165
-0.00275403
0.00472475
-0.00197052
-0.000599591
0.00489953
0.00652399
-0.000184949
0.00560044
-0.00697803
0.00531524
-0.00207306
0.00317825
-0.001105
-0.00668923
-0.00370393
0.0104
0.00165265
0.00116783
-0.00282049
-0.00748887
0.00366145
0.00383455
-0.00170492
-0.0186958
0.00241995
-0.0122632
0.0137496
-0.00144365
-0.00156633
-0.00164798
0.00321443
-0.00260085
0.000730628
-0.00721225
0.00216581
0.0030674
0.0215575
-0.00176879
-0.0174328
0.0182715
-0.000779575
-0.0119424
0.0204028
0.00154999
-0.00235565
0.000805656
-0.00164024
-0.00952089
0.0112193
0.0169831
0.0010633
-0.00074915
-0.00365319
0.00174679
-0.00540512
0.00332641
0.00207453
0.0135902
-0.00048697
-0.00790603
0.00450615
-0.00539434
0.00195692
-0.00810277
0.00616266
-0.0108129
-0.00166716
-0.00226263
0.00297088
-0.00175945
0.00506125
0.00642099
-0.0208978
0.0144843
0.0046149
-0.00310383
-0.00481303
-0.000309187
-0.00727747
0.00248595
0.0047848
-0.00128844
-0.00280242
0.00203644
-0.0143461
0.000723562
0.000134233
-0.0231909
0.0030159
-0.00657663
0.00465721
-0.00312641
0.00224302
0.000883375
0.00993414
-0.0046625
0.00103614
-0.00252165
-0.00030973
0.00438631
-0.00407901
0.00205267
0.0222052
-0.0242371
0.000494242
0.0019976
-0.00179196
-0.000166935
0.00195889
-0.0238743
0.000166754
-0.00226538
-0.00747366
0.00340375
0.0210364
-0.00310993
-0.0170382
0.000473926
0.00204119
-0.0042061
0.00216283
-0.00322895
0.00064435
1.80082e-05
-0.00629546
-0.00150623
0.00310971
-0.019619
0.00294921
0.00191346
0.000946404
-7.46293e-05
0.00269401
-0.0104312
0.00775029
0.0300716
0.00330015
-0.0156691
0.0123177
-0.00161857
0.0185692
0.0036778
0.00216139
-0.00584189
-0.00218021
-0.0119791
-0.00249234
-0.00479221
0.00330364
-0.00998331
0.00986267
-0.00946062
-0.000689306
0.00536462
-0.00121794
-0.00414112
0.000801224
-0.0115358
0.00248023
0.00157303
-0.00319218
0.0012829
-0.00577174
-0.0052629
-0.0144929
0.0199702
0.0206043
-0.0186217
0.00882153
-0.0139282
0.0182949
-0.00579048
-0.0124003
0.00235524
-0.000500935
-0.0018543
-0.00342262
0.00154352
0.0046416
0.000133788
-0.00798117
-0.00356393
-0.0214745
-0.0026511
0.00404895
-0.00139748
0.00610413
-0.00194768
-0.00405191
0.0173809
0.00330212
-0.00178807
-0.00151399
-0.00293371
-0.0166487
0.0191064
0.00567667
0.000737294
-0.00640868
-0.00205773
-0.00106868
0.0028928
0.0222194
-0.0253482
-0.00049215
0.00233709
-0.00285294
0.00473467
0.000633559
-0.00128496
0.00246562
-0.00215147
0.00582446
-0.0168096
-0.00282026
0.0197232
0.012168
-0.014344
-0.0017279
0.00307643
0.00115988
-0.00329186
-0.00295427
0.0151104
0.00163748
0.00110251
0.00703926
-0.00923161
0.000639004
0.00205975
0.000663001
-0.0140522
9.57682e-05
0.00916117
0.0096638
0.00216711
-0.0117529
0.00365797
-0.00204847
-0.00160991
-0.00108155
0.00263154
-0.00451091
0.00219181
0.00231954
-0.00678538