/*--------------------------------*- C++ -*----------------------------------*\
| =========                 |                                                 |
| \\      /  F ield         | OpenFOAM: The Open Source CFD Toolbox           |
|  \\    /   O peration     | Version:  v2012                                 |
|   \\  /    A nd           | Website:  www.openfoam.com                      |
|    \\/     M anipulation  |                                                 |
\*---------------------------------------------------------------------------*/
FoamFile
{
    version     2.0;
    format      ascii;
    class       volVectorField;
    location    "100";
    object      ddt0(U);
}
// * * * * * * * * * * * * * * * * * * * * * * * * * * * * * * * * * * * * * //

dimensions      [0 1 -2 0 0 0 0];


internalField   nonuniform List<vector> 
9793
(
(-0.072529 -0.0603153 -3.3394e-18)
(-0.00282758 -0.0457242 2.60102e-20)
(-0.0772039 -0.0526703 -4.11508e-19)
(-0.00171957 8.1371e-05 7.00796e-20)
(-0.0838887 -0.52777 -3.27076e-18)
(0.00413879 0.00142516 3.02105e-18)
(-0.00231069 -1.69736e-05 -3.86092e-19)
(0.000605296 0.000141174 4.37207e-19)
(0.000513297 -0.00134255 -6.75077e-22)
(-0.0649675 -0.481628 3.56611e-18)
(0.0283438 -0.0272238 6.65471e-19)
(0.0692884 -0.0334171 -7.78487e-19)
(-0.00111841 7.60966e-05 -2.74519e-19)
(0.00137689 -0.0062085 2.27231e-19)
(-0.00252933 -6.94866e-06 -8.4326e-20)
(-0.000409064 -0.00603654 -2.33332e-19)
(7.9724e-05 -0.00524336 -3.72377e-19)
(-0.000480065 -0.00603873 -2.28337e-19)
(-0.0390584 -0.0408401 -2.44618e-19)
(0.000379861 -0.00668655 1.56476e-19)
(0.0893504 0.054986 -5.89384e-19)
(-0.00650963 -5.52044e-05 1.02177e-19)
(-0.0171107 0.153272 -5.57042e-18)
(0.00116695 4.33922e-05 3.39129e-21)
(-0.0043325 0.00187114 -4.13221e-19)
(-0.000718871 4.95477e-05 3.51609e-21)
(-0.00314616 -0.0071816 -2.98456e-19)
(0.000516147 -0.00243313 3.05516e-19)
(0.000344404 -0.0394837 -5.92493e-20)
(0.00120948 -0.00131472 1.28222e-19)
(0.021342 -0.00985736 -4.75219e-19)
(-0.0100886 0.140608 -3.92767e-19)
(-0.0185117 0.113671 -3.07985e-18)
(-0.000382432 7.56405e-06 7.66146e-20)
(-0.00208566 -0.0454505 7.74211e-20)
(0.0156898 0.184207 -1.44332e-18)
(-0.00126907 -9.62357e-06 7.65299e-20)
(-0.00637432 0.000854331 3.1473e-19)
(-0.000577072 0.000386302 2.3187e-19)
(0.000647077 -5.11831e-05 4.34589e-19)
(0.019274 -0.0112994 -1.03789e-19)
(-0.00243058 -1.27378e-05 -9.38913e-19)
(-0.000701128 2.8251e-05 -2.33087e-19)
(-0.00145484 -2.75487e-05 2.16385e-19)
(-0.000408961 2.31394e-05 3.43071e-19)
(-0.000838006 5.01305e-05 2.80911e-19)
(0.00301122 -0.0422157 -7.56036e-20)
(0.0322957 -0.0116855 1.10921e-18)
(-0.0062143 -0.0666676 9.60604e-19)
(-0.00185806 8.75787e-05 -3.28675e-19)
(-0.00230204 -0.048566 8.49871e-20)
(0.0283121 -0.035049 -2.46954e-18)
(0.00444387 0.00416658 2.98797e-21)
(-0.00205788 -0.00154527 -1.22297e-18)
(0.0440597 -0.0917153 3.60592e-19)
(0.126033 -0.0541436 1.09683e-18)
(-0.001429 -0.000418442 1.09869e-20)
(0.0511524 -0.0189133 8.12485e-19)
(-0.04032 -0.242209 -8.78381e-18)
(0.00104637 0.000310525 2.20478e-19)
(-0.000184562 -2.00282e-05 -2.68316e-20)
(0.00234399 0.00601499 5.44654e-19)
(-0.0270523 -0.170267 -5.0475e-19)
(-0.00271964 7.2509e-06 -1.60585e-19)
(0.0730906 -0.233179 2.12988e-18)
(-0.00925748 0.0707783 4.83935e-19)
(-0.0454774 -0.140988 4.58286e-19)
(-0.0412085 -0.102153 -8.81173e-20)
(0.0621222 -0.0338387 2.55086e-19)
(0.0268385 -0.0285182 -6.90503e-19)
(0.0378858 -0.10309 -1.31342e-18)
(0.000699263 3.96202e-05 -2.37027e-20)
(0.00154431 0.000238182 -2.63429e-19)
(0.0166357 -0.0156377 -4.50793e-20)
(-0.00581471 -0.0539979 -5.70847e-19)
(-0.0673238 -0.187762 3.19859e-18)
(-0.000409728 -0.0004776 -4.85673e-20)
(0.00203713 -0.00149082 -5.31186e-20)
(0.00195974 -0.000745887 8.17098e-20)
(0.00102881 -0.00201068 -2.41611e-19)
(-0.0224293 0.0703653 -2.80728e-19)
(0.00102735 -0.00102185 1.80265e-19)
(-0.0232309 -0.0595437 -4.10037e-20)
(0.0353695 0.00675587 8.52453e-20)
(0.0169506 -0.00835605 -1.45727e-18)
(0.0353977 -0.00691396 2.69442e-20)
(0.00161434 -0.00216979 4.2021e-19)
(-0.000225154 -0.000545332 2.02669e-19)
(0.000955638 0.00451771 1.53222e-19)
(0.000816436 -0.0014568 6.51015e-19)
(0.000614127 -0.038149 -1.16389e-19)
(0.169073 -0.017288 -3.31096e-18)
(-0.00102101 0.00247967 8.02014e-19)
(0.00894003 0.125751 -8.25299e-18)
(0.00163152 0.00541631 -9.43226e-19)
(0.0373547 0.0110375 5.08451e-19)
(0.128729 -0.0345544 -1.88248e-18)
(-0.0173731 -0.0530641 -2.02027e-20)
(-0.00126083 0.00206974 5.09234e-20)
(0.000764551 0.0012662 2.05998e-19)
(0.000872242 0.00108726 2.05065e-20)
(0.00186892 -0.00120684 1.83316e-19)
(-0.00218049 -0.000528445 -5.55097e-19)
(-0.00201059 -0.000506467 -4.76873e-19)
(0.00203816 -0.0011907 3.32973e-20)
(0.0152652 -0.00916438 1.1705e-18)
(0.00139831 0.00418905 -8.42088e-20)
(-0.000120221 -3.4629e-05 -2.02158e-19)
(0.00266122 0.0038153 -5.70958e-19)
(0.0267163 -0.00966372 4.86795e-19)
(0.000623272 2.67318e-05 2.71349e-20)
(0.0865576 0.00775916 1.54883e-19)
(-0.00576715 -0.000293453 -3.78118e-20)
(0.0800686 0.11718 4.32661e-18)
(0.0264924 -0.0381683 1.89675e-18)
(-0.000582265 -0.000462847 -1.61743e-19)
(0.0225539 0.0784641 1.39999e-18)
(-0.0108673 -0.0536505 -1.50919e-18)
(0.000901714 -0.000970509 6.09592e-20)
(0.0149929 0.107607 6.25825e-18)
(0.0264429 -0.0140137 -7.76052e-19)
(0.000359398 4.82142e-06 1.25787e-20)
(-0.00276567 -0.000280708 -6.17688e-20)
(0.00529408 0.00105004 -1.47745e-18)
(-0.00255512 -0.00298971 2.11136e-19)
(0.0954953 0.0393772 6.75927e-19)
(0.0197209 -0.00850802 2.93641e-18)
(0.0387589 -0.00600891 -5.46122e-19)
(0.00182213 -0.000551501 -9.00165e-19)
(-1.56623e-05 0.000223171 -2.19442e-19)
(0.000487559 3.35824e-05 -2.2024e-21)
(-0.000172845 -0.000539724 1.17973e-19)
(0.000589096 0.000239712 1.2173e-19)
(0.00341074 -1.30843e-05 -1.52931e-20)
(-0.000142187 -0.00117528 1.32542e-18)
(-0.000481224 -0.000604537 -3.23006e-19)
(-0.00195624 4.18196e-06 7.14174e-20)
(-0.00141036 -3.11513e-05 -3.87128e-19)
(-0.0046661 -0.000276163 1.12581e-19)
(-0.000708511 0.000111693 1.20387e-19)
(-0.00220782 -0.000243834 2.79599e-20)
(-0.00338312 0.00260163 -1.0182e-19)
(-0.00160366 6.59555e-05 -6.30243e-19)
(0.00239849 0.000628464 5.3295e-19)
(0.00222476 -0.00675004 -1.36547e-19)
(0.00339058 -0.0086892 -4.95718e-19)
(0.00910889 -0.0203106 3.07318e-21)
(0.00230062 0.000936288 7.41145e-19)
(-0.00187417 0.00127488 5.3197e-20)
(0.157094 -0.00582096 1.02759e-19)
(-0.0267738 0.152931 1.58011e-18)
(0.000442065 3.40823e-05 2.39082e-20)
(-0.0570904 0.13118 -3.48192e-18)
(-0.112295 -0.491588 1.81491e-18)
(-0.00180627 0.00103843 3.51739e-20)
(0.00048469 1.38906e-05 4.52243e-21)
(-0.000619287 0.000120359 -5.13356e-22)
(-0.00267782 0.00256903 4.72379e-19)
(0.00153242 0.000942051 -7.05288e-20)
(-0.00154286 6.48001e-05 -3.22208e-19)
(0.00141232 0.000145281 1.00528e-19)
(0.000261318 -0.00268748 -2.9913e-19)
(-0.00360151 -0.00422488 -2.18689e-19)
(-0.0646213 -0.0156965 -1.47985e-18)
(0.0146064 -0.020908 -2.2018e-20)
(0.0807773 0.0873784 4.45579e-18)
(0.0355931 -0.011345 1.26254e-18)
(-0.0117148 -0.0126736 -3.26578e-20)
(-0.00341429 -0.00613952 -1.36966e-20)
(0.0018624 -0.000709648 2.96433e-20)
(-0.00237813 -0.000326703 -8.62393e-19)
(0.000657459 -0.169933 -5.27602e-20)
(0.015616 -0.0231692 -6.08523e-20)
(0.0221653 -0.144027 -6.5284e-19)
(-0.00147419 -0.00286867 1.47369e-19)
(-0.0486873 -0.0358509 1.45311e-19)
(-0.000425884 -0.000600964 7.59947e-20)
(0.00111247 0.00026569 -1.60036e-20)
(-0.000402527 0.000318679 6.533e-20)
(0.00318939 -0.017012 2.59918e-18)
(0.11166 -0.0176406 9.06525e-18)
(0.00165044 -0.00406674 1.49518e-19)
(0.00139853 0.00119771 -3.41512e-19)
(-0.00358695 0.00198853 -4.40983e-21)
(-0.0739678 -0.0320849 -7.73292e-18)
(0.000554475 0.000219204 8.43188e-19)
(0.0544142 -0.019976 2.04863e-18)
(-0.000367736 0.00030676 4.4529e-19)
(-0.00313499 -0.000139083 1.53058e-20)
(-0.00277091 -0.00453234 6.66091e-21)
(-0.00132303 -0.00299478 -2.15279e-19)
(-8.56057e-05 -0.000125617 1.97358e-20)
(-0.0189723 -0.0648515 1.4125e-18)
(0.0909914 0.0158338 1.01477e-19)
(-0.0317191 -0.122654 5.17452e-22)
(0.00395022 -0.0160397 -4.91495e-19)
(-0.0709933 -0.0673484 4.26265e-19)
(0.00110678 -0.000890119 -9.09969e-19)
(-0.161551 -0.507529 3.18628e-18)
(-0.000783334 0.000114903 -1.23466e-19)
(-0.000138424 -0.00114495 -1.56004e-18)
(-0.111404 0.0497692 2.45846e-18)
(0.139161 -0.0495073 -6.01051e-18)
(-0.00017866 0.000193074 -5.47524e-20)
(-0.000852598 -0.000661342 2.15481e-20)
(0.00182852 -0.000963242 -7.03902e-20)
(0.0800276 0.102824 -3.1754e-18)
(0.00225196 -0.00284761 -1.26419e-19)
(0.0136779 -0.00672396 -2.24901e-19)
(0.000174862 -0.00540604 -2.23342e-18)
(-0.00303956 -0.0239925 -2.54002e-19)
(-0.0222052 -0.0542653 -7.14529e-19)
(0.00115531 -0.0760184 -1.03346e-18)
(-0.000849983 -0.00174742 4.3613e-19)
(-0.0823199 -0.0735595 -1.99278e-18)
(-0.000577173 0.000133701 -1.2491e-20)
(0.00266578 -0.000345693 2.55795e-19)
(-0.0835766 -0.0156072 -2.84441e-18)
(0.00191671 -0.000732294 7.92399e-20)
(0.0946914 -0.132719 3.42285e-19)
(-0.0302571 -0.0697892 -3.93711e-18)
(-0.000566827 -0.000438659 2.01814e-19)
(-0.00230212 -0.00315544 3.36957e-20)
(0.000142384 -0.000110213 -5.764e-22)
(0.0395315 0.00157655 9.68882e-19)
(-0.0857599 0.00477294 2.54281e-18)
(0.00390097 0.00232221 -2.91851e-19)
(-0.00157807 0.000617027 -1.5515e-19)
(-0.0222082 -0.0689545 -1.06781e-18)
(0.0211163 -0.0292604 -2.96234e-18)
(0.00128554 4.23555e-05 -5.80478e-21)
(0.00115866 0.000142775 -7.88976e-22)
(0.00314226 -0.00419699 -3.21481e-19)
(-0.000846352 0.000121404 7.10167e-21)
(0.0244652 -0.01461 -3.2578e-18)
(0.0812475 -0.139581 2.62934e-18)
(-0.00333115 -0.000274883 6.99644e-20)
(-0.00228687 -5.66406e-06 6.40128e-19)
(0.111381 -0.0249494 2.3974e-18)
(0.00110025 -0.00121179 6.69042e-20)
(0.012347 -0.00728062 2.12718e-19)
(0.00286188 -0.00506784 4.03018e-20)
(-0.00225858 0.000225278 5.74195e-19)
(-0.0194855 0.0973243 -5.82936e-19)
(-0.00121188 0.000115611 7.42326e-19)
(-0.00170716 0.00153123 1.37994e-20)
(0.000948323 9.29593e-05 -2.7353e-19)
(-0.00245403 0.00300456 4.93472e-19)
(-0.00156935 0.00184476 -1.98027e-19)
(-0.000341823 1.03009e-05 -1.66273e-19)
(-0.00342793 0.00040186 -6.61762e-20)
(-0.00192151 -0.0105014 -1.3834e-18)
(0.0229334 -0.0377798 -7.46897e-19)
(0.0229085 -0.0113981 2.93534e-18)
(-0.00295781 0.000340415 -3.75753e-19)
(-0.00860507 0.00462826 -1.58752e-19)
(-0.0014672 -0.000212187 -9.30585e-19)
(-0.00184613 -0.0113682 6.67928e-20)
(0.0031536 -0.003189 -1.60666e-18)
(0.00234781 -0.00190343 -3.35304e-20)
(0.00482263 -0.03789 3.4516e-19)
(-0.000880628 4.77428e-05 -1.13438e-18)
(0.0206389 -0.0408152 -9.31567e-19)
(-0.000285179 -3.078e-05 -1.1059e-20)
(-0.0118313 -0.014232 -1.13786e-19)
(0.00155395 -0.000316038 1.99426e-20)
(0.00165712 -0.000184922 -1.32373e-20)
(-0.0051264 -0.024142 3.84193e-21)
(-0.113903 0.0777587 -5.9193e-18)
(-0.000818488 0.00329552 2.28691e-19)
(0.00260211 -0.00153501 3.11296e-20)
(-0.00215539 -0.00185027 1.2946e-19)
(-0.0208185 2.72012e-05 4.39073e-19)
(-0.000144869 -0.000496838 -1.16534e-19)
(0.0137732 -0.0295761 1.82818e-20)
(0.0137776 -0.0320648 -1.01987e-19)
(0.000922211 0.000212767 4.70347e-20)
(0.109597 0.0159863 7.54793e-20)
(5.7749e-05 -4.60469e-05 -1.26711e-19)
(0.0229396 -0.00924183 -1.18431e-17)
(-0.00207318 0.00284446 -2.92662e-19)
(0.00153042 3.8407e-05 1.32776e-20)
(-0.00057939 -2.29474e-05 1.83099e-19)
(0.000531875 -4.89998e-05 -1.18524e-18)
(0.0192393 -0.00677818 -3.74948e-18)
(-0.0005033 -0.000424972 2.03264e-19)
(-0.00341415 0.000655769 1.869e-19)
(-0.00767478 -0.0134913 2.77478e-19)
(-0.00192393 -9.82677e-06 -1.10436e-19)
(-0.000857061 -0.000654124 -2.82854e-19)
(-0.00448599 -0.000290697 -9.10455e-20)
(0.00936057 0.0919241 1.69584e-19)
(1.89583e-05 0.00280055 6.66228e-21)
(-0.00127823 -1.50489e-05 -4.31063e-19)
(0.000287905 4.15705e-05 3.27012e-21)
(0.00330404 -0.000415382 -3.96438e-20)
(-0.00299622 -0.00298884 6.55695e-19)
(-0.00767596 -0.0143895 5.15838e-19)
(0.000376622 -2.4068e-05 -1.26403e-19)
(-0.0473501 0.0417651 -2.07277e-19)
(-0.00194026 0.000775497 -2.22347e-19)
(-0.067413 0.0084538 -1.03888e-18)
(0.0126862 0.118152 2.39411e-18)
(-0.00014867 -2.29774e-05 -4.09096e-20)
(-0.000820353 -3.3499e-05 1.56472e-20)
(0.00282342 -0.000224289 8.26552e-19)
(-0.0226757 0.00033314 3.18556e-19)
(-0.0108256 -0.00710178 1.6834e-19)
(-0.00136734 0.00283369 3.87563e-19)
(-0.0658479 0.0247307 -7.46617e-19)
(0.000504716 -3.04518e-05 3.84399e-20)
(0.0026563 -0.000539542 -4.50144e-19)
(-0.0117507 -0.00692141 1.15948e-19)
(-0.00285049 0.00190026 -5.61009e-20)
(-0.00221621 -0.00023401 -1.66542e-19)
(0.000772829 -0.00132342 -5.31647e-19)
(0.036619 -0.000970435 3.51378e-19)
(-0.00114211 0.000783449 -1.30437e-19)
(-0.0175357 -0.00256685 -7.60635e-19)
(0.000167683 -0.0059087 2.80967e-18)
(-0.000633018 0.000660591 3.7794e-19)
(0.0171752 -0.0185345 1.75421e-20)
(-0.0733109 -0.0101567 1.46683e-19)
(0.0133299 -0.0149855 1.04475e-19)
(0.00180084 -0.000530295 -3.07898e-20)
(0.103893 -0.0172861 -8.65804e-18)
(-0.00330015 -0.00279289 -4.88286e-19)
(-0.0216719 -0.299637 -1.65903e-17)
(-0.0132828 -0.0613499 1.26589e-19)
(-0.00312141 -0.00254947 -1.66107e-19)
(0.00553447 -0.00453006 -6.18113e-19)
(-0.0193446 -0.0617206 2.69617e-18)
(0.00221254 -0.000945532 8.05669e-19)
(0.010742 -0.0053225 9.08324e-19)
(0.0315267 -0.0321234 -4.8904e-19)
(0.00108109 3.16226e-06 -3.62061e-19)
(-0.000319521 3.02281e-05 -3.20156e-19)
(-0.00267396 -0.00105734 -8.15539e-19)
(-0.000395719 -4.05219e-06 -4.09388e-19)
(0.000629041 -0.0024899 -3.11221e-19)
(-0.0547894 -0.0716107 1.39465e-18)
(0.000640903 0.000324684 7.11686e-19)
(-0.00117881 0.000598962 7.78544e-20)
(-0.0471182 0.102238 -1.85729e-17)
(0.00124795 -0.00117285 3.92737e-19)
(-0.00136293 -0.00614719 1.30886e-19)
(0.00163194 -0.000506381 5.46728e-20)
(-0.00406874 -0.000608879 -5.33048e-20)
(0.000966807 3.90667e-05 -3.64793e-19)
(-0.0551529 -0.0814104 1.64587e-18)
(-0.00311406 -0.00305966 -1.14958e-18)
(-0.00201058 -0.000396252 1.64782e-19)
(-0.00235468 0.001439 -4.0374e-19)
(0.0015778 -0.00131532 -7.34952e-19)
(-0.0118419 -0.120175 6.02918e-19)
(-0.00129688 -0.00145948 8.44502e-19)
(-0.00232371 0.0302421 3.98863e-19)
(0.00118533 0.000211089 7.95398e-21)
(0.00618846 -0.0274241 -9.52381e-20)
(0.0578574 -0.104616 -1.27487e-19)
(0.0543546 -0.0241684 -4.14537e-19)
(0.00729756 -0.0286404 -3.57143e-19)
(-0.00432273 -0.000204124 5.6557e-20)
(0.00356401 -0.000111347 1.29746e-19)
(-0.0932148 -0.0507511 -9.04339e-19)
(-0.000157284 -2.17878e-05 -2.04553e-19)
(0.00659423 -0.0422016 -4.53654e-19)
(0.00105167 -0.00116725 8.18086e-19)
(-0.000826614 0.000125399 6.44894e-21)
(0.0276698 0.0897183 4.30564e-19)
(0.00917023 -0.00563981 -1.28167e-18)
(-0.068517 0.00614026 -3.30182e-19)
(-0.00149065 -0.000414973 -1.57534e-19)
(0.0254103 -0.015523 1.11799e-17)
(-0.0429418 0.244277 2.32631e-18)
(-0.0044822 -0.00395593 -3.83267e-19)
(0.000502426 0.000203105 1.03288e-19)
(-0.00381649 0.111085 -7.02797e-19)
(0.00407153 -0.0119042 8.18004e-18)
(0.0111288 -0.019559 -2.72476e-20)
(-0.00904485 0.00347469 1.75228e-18)
(0.000110594 -0.00141975 4.46846e-19)
(-0.0334428 -0.00200359 4.1627e-18)
(0.00140638 -1.74758e-05 2.3458e-19)
(-0.00343149 -0.00242083 -2.32689e-20)
(-0.000624844 -1.43781e-06 1.3955e-19)
(0.000685054 -3.81781e-05 1.8472e-19)
(-0.00197364 -0.00726861 -1.96202e-19)
(-0.000765544 -0.00154406 2.73924e-19)
(-0.00739383 0.00255222 -1.61866e-18)
(-0.0103689 -0.132178 3.96791e-19)
(9.21159e-05 -0.00252651 -5.732e-19)
(0.08418 -0.060089 -1.33476e-18)
(0.0437512 0.0572343 -7.96553e-18)
(-0.090555 -0.034054 -1.51376e-19)
(0.0224398 -0.0267652 1.60716e-18)
(0.00809864 -0.0126984 4.99145e-20)
(-0.000545682 -7.32211e-06 2.30493e-19)
(-0.00225399 -0.000983957 2.50702e-19)
(0.0229328 -0.168521 -3.01449e-18)
(0.0489458 0.0297065 2.24126e-18)
(0.00352223 -0.00448551 1.05641e-19)
(0.000660507 -0.00238132 9.61632e-20)
(-0.0868559 0.295144 -2.92971e-17)
(-0.00247679 -0.00166123 -1.47871e-19)
(0.0288034 0.261397 8.52702e-18)
(-0.00293598 -9.45591e-05 -1.38082e-18)
(-0.00750916 0.00152998 -6.78182e-19)
(-0.00244901 -0.00134549 -1.57644e-19)
(-0.00895355 -0.0274449 1.67713e-19)
(0.000958812 0.000305552 -3.60273e-19)
(0.00546894 -0.0128516 -1.83962e-18)
(0.110965 0.0315436 1.09436e-18)
(0.00259506 -0.00244735 2.3076e-19)
(-0.0318198 0.159926 -8.49199e-19)
(0.000570128 0.00999164 1.26255e-19)
(-0.00268624 -0.00329007 1.35907e-19)
(-0.00122098 0.0102025 -2.25131e-20)
(0.000909758 -0.001077 -5.35497e-19)
(1.5383e-05 0.0037318 -5.0914e-19)
(0.00448617 -0.00776735 2.18184e-20)
(-0.141059 0.0612771 2.81334e-18)
(0.00022992 -4.60791e-05 -1.08726e-19)
(-0.00200214 -0.000202176 1.40767e-19)
(0.0304952 -0.0350265 -6.6159e-19)
(0.000778966 -0.00135286 -8.58969e-19)
(0.00258572 -0.00394477 -3.11492e-19)
(-0.00287142 -0.00318811 -3.61726e-20)
(-0.00374035 -0.00349394 2.33786e-19)
(0.00179734 -0.0185795 -3.23194e-18)
(-0.00191983 4.81213e-05 1.57403e-19)
(-0.00196031 2.1576e-05 -4.99002e-20)
(-0.00216834 -0.000345918 1.62399e-19)
(-0.0636444 0.0615415 7.11065e-18)
(0.00226602 -0.00807086 -2.67305e-19)
(-0.0604899 0.0294061 -1.01731e-17)
(0.00199201 -0.000572928 6.96292e-19)
(-0.0466737 -0.0441912 -1.29545e-19)
(-0.000822885 2.26802e-05 3.75346e-19)
(0.00166757 -0.000894668 -1.24881e-18)
(-0.00119206 -2.26917e-05 -5.48332e-19)
(0.000237326 -0.00237685 -8.13329e-19)
(-0.082174 -0.118076 6.44755e-18)
(0.00100328 -0.000904501 1.54329e-19)
(0.0681891 -0.0941222 1.52291e-19)
(-0.00263109 -0.00528074 -1.31226e-21)
(-0.000690937 -0.000432108 2.44863e-19)
(-0.0030123 -0.00294032 4.46768e-19)
(-0.0750845 0.353945 3.21474e-17)
(0.0246549 -0.0112334 8.82898e-19)
(0.0586468 -0.0803485 3.52585e-20)
(-0.0301523 -0.048322 4.28431e-19)
(0.00529687 0.00321791 2.41761e-19)
(-0.00331175 -9.61169e-05 -1.18894e-20)
(0.000393055 0.0415028 -3.61827e-19)
(0.000320906 -0.0189245 -1.05329e-18)
(-0.0108044 -0.0248593 -7.25385e-20)
(-0.0110932 -0.0541705 -5.75526e-21)
(0.00732094 -0.228709 7.89698e-18)
(0.000461213 -3.05838e-05 2.24922e-19)
(-0.00180776 0.00749145 1.38439e-19)
(0.0254421 -0.0184377 -2.76311e-18)
(-0.00260611 -0.000289404 2.21178e-20)
(0.000790978 -0.0013119 -2.38334e-19)
(-0.00316467 -0.000194538 -2.93917e-20)
(-0.00228551 -0.000334247 -2.81051e-21)
(-0.000339428 -1.27672e-05 -6.80514e-20)
(0.110959 -0.0412724 -4.86458e-18)
(0.00477371 -0.0137553 -4.98065e-19)
(-0.071329 -0.00575206 1.42917e-17)
(-0.00266855 -0.000311848 -6.50386e-19)
(-0.0235481 0.00348351 -1.1262e-18)
(0.0010958 0.00024831 -1.40088e-21)
(-0.000370682 7.69541e-06 1.75061e-19)
(1.93044e-05 6.39001e-05 -1.36018e-20)
(0.00108474 -0.00114199 -1.79647e-19)
(0.00528271 0.0391508 -1.10187e-18)
(0.00262949 -0.000554201 -5.36434e-19)
(-0.00243166 0.00635312 -6.25264e-19)
(-0.00318449 -0.000820564 3.62202e-20)
(-0.00193543 1.31537e-05 -4.69894e-19)
(0.00234625 -0.00573325 1.03707e-18)
(0.0285916 -0.0154184 4.91222e-19)
(-0.00193701 -2.8556e-06 7.69504e-19)
(-0.00430313 -9.67992e-05 -1.62112e-20)
(0.0010217 0.1453 -5.69383e-19)
(0.00671426 -0.00409096 1.0784e-18)
(-0.00283869 -0.00327053 6.08189e-19)
(-0.0298959 -0.194727 -1.83135e-18)
(-0.0407132 -0.0527048 -7.92391e-20)
(-0.000524317 4.98404e-06 1.37167e-19)
(-0.000231639 -1.97172e-05 3.61692e-20)
(-0.00344207 -0.00249462 -1.02183e-20)
(0.00325128 -0.00509887 -2.59055e-19)
(-0.00263827 5.42203e-05 6.26245e-20)
(-0.00237125 2.04724e-05 5.72886e-20)
(0.000457087 -7.5369e-06 6.29492e-19)
(0.00102034 -0.000950383 2.37065e-19)
(-0.00213465 -0.000325721 4.78838e-20)
(-0.00245398 0.000291332 8.19833e-20)
(0.0050939 -0.018727 1.07967e-21)
(0.0208336 -0.044463 -2.67068e-19)
(-0.0006885 9.69676e-05 1.57723e-19)
(-0.0721232 -0.0930863 -1.84081e-17)
(-0.0347372 -0.00924006 -1.24527e-18)
(-0.000176319 0.00175846 3.48159e-19)
(-0.000394192 0.00332269 -7.71764e-19)
(0.00173814 -0.000796479 6.30491e-19)
(0.0760743 0.00625704 1.5531e-19)
(-0.00162451 0.00308199 -6.76236e-19)
(0.0888803 -0.0335033 5.29671e-18)
(-0.00298778 -0.00308596 1.63718e-19)
(-0.00220204 0.000145153 -5.4005e-19)
(0.0232815 -0.0319343 -6.38234e-19)
(-0.00263771 -0.000112377 2.76504e-21)
(0.00991422 -0.0202329 -6.16565e-18)
(0.0359091 0.0604971 -6.4812e-18)
(-0.0201792 -0.00253713 1.36294e-18)
(7.66387e-05 0.00175242 5.26951e-19)
(0.0927785 -0.0502004 -5.43318e-18)
(0.00529666 -0.00429788 -1.52679e-18)
(-0.000245857 -0.00067646 3.15251e-19)
(-0.00116396 0.000103821 -5.63771e-19)
(0.0323366 -0.00718356 1.34989e-18)
(-0.000619188 0.000739473 5.85896e-19)
(-0.000466331 -0.000643517 7.95166e-21)
(-0.000930463 -4.13213e-05 3.01116e-19)
(-0.00136088 0.000692515 1.03273e-19)
(-0.00689139 0.0846637 -1.08321e-18)
(0.0245582 -0.0122696 -4.47214e-18)
(-0.0328516 -0.00799596 -9.79608e-19)
(0.00122595 0.00299997 3.37752e-19)
(-0.000779403 0.000258885 -2.89122e-19)
(-0.00114297 0.000725978 2.14105e-19)
(-0.000252276 -0.00106983 2.52754e-20)
(0.000379709 7.39337e-05 9.51337e-22)
(0.000221842 -4.48e-05 1.52072e-19)
(0.0604959 0.00867753 4.84463e-19)
(0.0568283 -0.0260715 -2.52342e-18)
(-0.0021827 -0.00218899 -2.85286e-19)
(0.00470902 0.00260481 -5.13578e-20)
(0.0395628 -0.187269 2.88039e-18)
(0.000681771 0.000923855 -4.53183e-19)
(0.020964 -0.0146185 4.45667e-20)
(-0.00633946 0.033093 -9.33887e-19)
(0.000424613 7.1878e-05 -1.4503e-21)
(0.0300028 -0.0290644 5.48413e-19)
(-0.0488579 0.00722013 -2.27054e-18)
(-4.80014e-05 -0.000487553 -1.59393e-19)
(0.0660119 0.00146623 -3.92951e-19)
(0.00163338 9.56345e-05 1.00188e-19)
(0.130219 0.01684 3.02767e-18)
(-0.00566867 -0.0127788 4.16549e-20)
(-0.0694696 -0.0219422 -5.19047e-18)
(0.000995092 0.000219798 -3.43324e-19)
(-0.00269492 0.000296638 -1.97843e-19)
(0.000578744 -0.00447535 1.05719e-18)
(-0.00257111 -0.0271009 1.26497e-19)
(0.00411979 0.000220543 4.26755e-19)
(-0.0448074 -0.199872 4.70776e-19)
(-0.0328845 0.078602 9.85625e-20)
(0.163845 -0.051083 -1.03654e-18)
(0.0106399 -0.0214084 1.00624e-18)
(0.0865081 -0.0317682 -7.7484e-19)
(-0.0136182 -0.0246443 7.10344e-19)
(-0.00219696 -1.20417e-05 6.72432e-21)
(0.0103233 -0.0142622 4.12767e-19)
(0.00458018 0.00197697 -1.08932e-19)
(0.00803325 -0.0205078 1.93065e-18)
(-0.00262558 -0.00108319 -4.44291e-19)
(-0.0589437 -0.0355774 2.30024e-19)
(-0.00208359 0.00125499 1.09814e-20)
(0.03202 -0.00939426 4.42939e-19)
(-0.000461497 -3.0591e-05 3.08351e-19)
(0.00228518 -0.00252767 2.41655e-18)
(-0.00169668 0.000649035 -9.80832e-19)
(0.0712106 -0.00457442 1.6985e-17)
(-0.00282027 0.000536376 1.12255e-20)
(-0.000447125 -3.68876e-05 3.57582e-20)
(0.000822414 -0.00474056 1.1012e-18)
(-0.00155416 -0.00619882 3.96967e-20)
(0.0055994 -0.0148354 -7.62455e-19)
(0.00145047 0.000260301 -4.67727e-19)
(-0.000345707 -3.89634e-05 -8.00605e-20)
(0.00115486 0.000821051 -1.84169e-19)
(0.00156066 0.000726473 9.04496e-19)
(-0.0368458 -0.0282525 -1.43101e-18)
(-0.00208979 9.93235e-05 2.56123e-19)
(0.013094 -0.218788 -5.35722e-18)
(-0.0397095 0.395733 3.45657e-18)
(-0.00189053 9.28913e-05 9.1603e-19)
(-0.000114106 -3.34595e-05 3.89879e-19)
(-0.0255277 0.00375067 9.53215e-19)
(0.000351816 -0.00253534 -2.31893e-18)
(-0.00222254 -0.000201451 4.91785e-20)
(-0.00336262 0.00122191 -6.22445e-20)
(-0.00371284 -0.00472588 -7.53775e-20)
(-0.00517086 -0.0133371 -2.09103e-19)
(0.00390777 -0.00340683 -2.06648e-19)
(-0.000966157 -0.00656022 2.11591e-19)
(-0.00129373 -0.000434848 9.92332e-20)
(0.00100417 -0.000802713 -4.20371e-19)
(-0.00440581 -0.000379132 9.67295e-21)
(-0.00335531 -0.0116919 -3.19612e-19)
(-0.00230409 0.00182911 3.98639e-20)
(-0.00447871 -0.000640522 -2.27681e-19)
(0.0165841 0.228809 4.17935e-18)
(-0.000821596 0.000634436 1.56234e-19)
(-0.121274 0.0363867 -1.44552e-18)
(0.00444061 -0.0101272 -1.12851e-18)
(-0.00232797 -1.47177e-05 1.12662e-19)
(-0.000748235 -5.94677e-05 -1.14979e-20)
(0.00114753 -0.000151465 -2.78308e-19)
(0.00236515 -0.00164237 -9.83736e-19)
(0.00243248 -0.00173453 8.29584e-19)
(-0.0012671 0.000167317 6.53012e-20)
(-0.0049902 0.00434911 -1.39519e-19)
(0.00107576 0.00016208 -7.06743e-21)
(-0.00100243 0.00069021 3.27528e-19)
(-0.00458196 0.00512842 3.83527e-19)
(-0.00233762 1.7834e-05 -4.1578e-20)
(-0.00701021 0.00575529 -2.91758e-19)
(-0.000603774 0.00023984 -3.01129e-21)
(0.00216699 -0.00275659 1.26815e-18)
(-0.00127973 5.64066e-06 -3.6861e-19)
(5.30121e-05 -0.00146441 1.10032e-18)
(-0.006287 0.00567103 2.97629e-20)
(0.00416792 -0.00359869 1.80782e-18)
(0.0105593 -0.0154165 -1.7168e-18)
(-0.000704889 -2.17581e-05 -2.06528e-20)
(-0.000463482 0.000275915 -7.43568e-19)
(-0.000742189 -9.76963e-05 -5.70833e-21)
(-0.000802573 -0.000469412 -5.75588e-19)
(-0.0013931 0.00377526 2.55379e-19)
(-0.000487095 7.67238e-05 -1.21857e-19)
(-0.00189184 0.00416098 -2.36574e-20)
(-0.000150355 0.00059473 -1.89717e-19)
(-0.000703427 0.000591534 -1.21873e-19)
(-0.00274654 0.000888059 2.71481e-20)
(-0.00229318 -0.02829 -1.19981e-19)
(-0.000548724 -1.39019e-05 5.72305e-20)
(-0.00087683 -2.48802e-05 1.05819e-18)
(-0.00185034 -0.000357329 1.97267e-19)
(-0.0563254 -0.0280356 1.7672e-19)
(-0.000938714 0.000112214 -5.12059e-19)
(-0.00265637 -0.00109967 -4.64593e-20)
(0.0289205 -0.0235725 -1.20686e-18)
(0.0015774 0.000210449 -2.24706e-20)
(0.000119825 -0.00142305 -5.9372e-19)
(0.0750122 -0.00562952 -5.28982e-18)
(-0.00446882 0.00122722 8.79454e-19)
(-0.00256219 3.27703e-05 1.38391e-20)
(5.57595e-05 6.71477e-05 -1.30144e-22)
(0.0511127 -0.0154299 1.76404e-18)
(0.00114024 -0.000110205 -1.83776e-19)
(0.0271717 -0.0197576 6.96692e-18)
(0.147193 -0.11753 -8.09942e-18)
(0.0290593 0.0230213 -6.82297e-18)
(-0.00764952 0.047516 1.10931e-19)
(0.00013528 -0.00112867 3.4345e-19)
(-0.00174738 -0.000388632 4.82305e-20)
(0.0198832 -0.167926 9.8938e-19)
(-0.00673928 -0.00596541 8.67796e-19)
(-0.00264586 -0.000557834 1.41634e-21)
(0.00824326 -0.0151014 3.18461e-20)
(-0.0553424 -0.043618 -2.36935e-19)
(0.0959233 -0.157872 -7.13583e-19)
(-0.00114166 -0.000128966 5.36162e-22)
(0.0343898 -0.00792109 -1.24828e-17)
(-0.00144675 -0.000396654 -1.48757e-19)
(-0.00269707 -0.000315295 -1.447e-19)
(0.093721 0.0599976 -2.99892e-17)
(-0.00228131 9.12773e-06 2.99982e-19)
(0.0384658 -0.0185526 1.3237e-19)
(0.00647585 0.011039 1.07554e-19)
(0.0183481 -0.0476742 -1.32609e-18)
(-0.000819321 0.000303895 4.69821e-19)
(-0.00704856 -0.00653952 -4.0375e-19)
(-0.00468055 -5.91092e-05 1.53774e-20)
(0.0698413 0.000118812 1.38438e-17)
(0.075827 -0.0279405 -2.28495e-18)
(-0.00338004 -0.000199798 1.14299e-18)
(0.00488821 0.0103192 -1.05575e-19)
(0.00821941 -0.00819304 7.04896e-18)
(-0.000539104 0.000543635 2.17945e-19)
(0.00336974 -0.00315966 1.90933e-18)
(0.026166 -0.0223143 1.14923e-18)
(0.0923227 -0.030757 -4.37804e-18)
(0.000533428 0.000196134 -1.74266e-19)
(0.0227604 -0.0151226 -2.45683e-20)
(-0.00582544 -0.00636478 -5.20018e-19)
(0.049022 0.014032 2.69883e-18)
(0.0202799 -0.0154672 2.47031e-20)
(0.0122895 0.111212 -6.26904e-18)
(-0.038251 -0.134461 1.31825e-19)
(0.0012533 -0.00134557 6.38e-20)
(0.0157792 0.00523715 2.3577e-19)
(-0.0642374 -0.00819497 2.85186e-18)
(-0.00359727 0.00012619 1.38873e-18)
(-0.00122966 3.33212e-05 -6.21912e-20)
(-0.000370541 -2.03898e-05 4.91694e-19)
(0.00230277 -0.000911744 1.25951e-19)
(-0.00247995 0.00033722 -4.95769e-20)
(0.123733 -0.0792688 1.18832e-17)
(-0.00222477 -8.34863e-05 1.08091e-19)
(0.0126665 -0.235041 -2.31686e-18)
(0.00537468 -0.00455077 1.5337e-18)
(0.0488671 -0.00542111 -2.13368e-18)
(0.0260343 -0.0317046 3.01112e-18)
(-0.00012724 -0.00118637 1.98285e-19)
(0.0539532 -0.0760102 -5.63458e-20)
(0.0574046 -0.0647 3.74105e-18)
(-0.00249583 -0.00265267 -7.83216e-19)
(-0.0424417 -0.014412 -9.32567e-18)
(0.0137462 0.00596132 -7.01952e-19)
(0.0403382 -0.0109988 -1.1912e-17)
(-0.00248318 2.51344e-05 -1.18828e-19)
(0.00147256 0.000240316 1.4012e-20)
(-0.00525067 -0.0275413 6.6066e-19)
(-2.2704e-05 0.000688719 3.25846e-19)
(0.082969 -0.00885203 -5.27848e-19)
(-0.000749292 7.02102e-05 -2.93515e-19)
(-0.0349206 -0.135949 2.00582e-19)
(-0.000997148 -0.00109878 -4.14935e-19)
(0.0313326 -0.0146306 -6.20051e-19)
(-0.0117493 -0.039249 -9.7581e-20)
(0.00132586 -0.00153814 6.85235e-19)
(0.100711 -0.0571689 4.05956e-18)
(-0.00098536 -3.69381e-05 6.64848e-20)
(0.00182424 -0.00497374 1.64944e-18)
(0.0078372 -0.0244573 3.59627e-18)
(0.0117967 0.395981 -1.34964e-17)
(-0.0136838 0.453945 -1.24861e-17)
(-8.07494e-05 0.00436288 6.20995e-19)
(-0.00118565 -0.00124436 4.24157e-19)
(-0.00299288 -0.00116898 -6.5913e-20)
(0.0286408 0.0527867 -6.9165e-18)
(-0.0661482 0.207303 -2.63109e-18)
(-0.000694205 -5.74349e-06 -2.35808e-19)
(0.0106418 0.00436274 2.89403e-18)
(0.0227139 -0.0120642 -7.97075e-20)
(-0.00294711 -0.00052846 -1.00088e-19)
(-0.00235046 0.000209502 -3.18588e-19)
(0.00344855 0.000183462 -4.2056e-20)
(0.0429087 -0.0155344 -3.77973e-19)
(-0.00905545 -0.00517811 -1.19038e-18)
(-0.00041969 0.000861037 -3.9578e-19)
(-0.000406397 -1.25442e-05 4.66932e-19)
(0.00157064 0.000186471 8.62395e-21)
(-0.0190772 0.052652 -1.23062e-19)
(0.0778729 -0.151698 2.72556e-19)
(-0.00506101 -0.0611301 -2.34879e-20)
(-0.000534244 -0.000529202 3.90151e-19)
(-0.00038172 0.000106627 1.17443e-19)
(-0.0613604 -0.0194314 -1.51689e-19)
(-0.000661019 2.46099e-05 1.82784e-19)
(-0.0619424 -0.0192295 -8.18848e-19)
(0.00305743 -0.0367084 5.3776e-19)
(0.0164768 -0.230987 -4.34201e-18)
(0.0251711 -0.00691806 -2.55923e-19)
(-0.0377698 -0.138621 1.15234e-18)
(0.000160003 0.000497015 2.48394e-20)
(-1.11803e-05 -0.00123237 7.27553e-19)
(0.000705307 -0.00838071 3.72206e-18)
(-3.25586e-05 -0.00415292 3.07378e-19)
(-0.00405175 -0.0125095 -5.44697e-20)
(6.36771e-05 -1.45354e-05 2.4266e-19)
(0.0345088 -0.0103072 2.94358e-18)
(0.027779 -0.152428 -2.76062e-18)
(-0.00185915 -0.000792122 1.09399e-18)
(0.0574462 -0.0652122 -1.76705e-19)
(0.00173872 0.000133084 2.06388e-20)
(0.027642 -0.04609 -3.54319e-19)
(0.000550406 -0.0018261 -5.35197e-19)
(0.0161937 -0.0114337 -1.44029e-19)
(-0.00788684 0.00972529 1.72658e-19)
(0.0040678 -0.000575452 -1.70892e-18)
(0.000115018 0.000177204 -2.56588e-20)
(0.00380196 0.00699316 1.76493e-19)
(0.0185293 -0.0189681 1.98012e-19)
(0.024785 -0.0876881 8.31075e-19)
(-0.0686048 -0.0271362 -2.2518e-18)
(0.000300535 0.00116037 5.1744e-19)
(-0.014452 -0.0273958 -6.09076e-19)