/*--------------------------------*- C++ -*----------------------------------*\
| =========                 |                                                 |
| \\      /  F ield         | OpenFOAM: The Open Source CFD Toolbox           |
|  \\    /   O peration     | Version:  v2012                                 |
|   \\  /    A nd           | Website:  www.openfoam.com                      |
|    \\/     M anipulation  |                                                 |
\*---------------------------------------------------------------------------*/
FoamFile
{
    version     2.0;
    format      ascii;
    class       volScalarField;
    location    "100";
    object      omega;
}
// * * * * * * * * * * * * * * * * * * * * * * * * * * * * * * * * * * * * * //

dimensions      [0 0 -1 0 0 0 0];


internalField   nonuniform List<scalar> 
9793
(
0.588867
0.242519
0.938021
0.021011
2.0199
0.0228212
0.0218422
0.0207772
0.0215349
1.93052
0.0534742
0.079824
0.021059
0.0213944
0.0230618
0.0214014
0.0215536
0.0218034
0.813576
0.0213945
0.209945
0.0228957
0.435262
0.01977
0.0217614
0.0211614
0.0232424
0.0208315
0.04242
0.0215254
0.0347558
0.442121
0.479951
0.022084
0.0490753
0.984072
0.0225266
0.0228713
0.0208544
0.0210238
0.0338477
0.0230919
0.0221912
0.0220113
0.0222122
0.0213575
0.0464909
0.0653594
0.597828
0.020983
0.0505215
0.0590565
0.0231278
0.0215491
0.132751
0.181697
0.0214266
0.0908516
0.746754
0.0208392
0.0216355
0.0230683
0.696557
0.0219094
1.77169
0.438674
0.65026
0.729218
0.0756619
0.0529678
0.0866804
0.0216262
0.0211281
0.120302
0.0574576
0.623189
0.0214189
0.0205876
0.0212338
0.0209051
0.4396
0.0212598
0.26114
0.0927955
0.0309605
0.0758823
0.0210349
0.0214126
0.0225003
0.0214421
0.237
1.48583
0.0205394
0.439854
0.0227538
0.117335
0.214346
0.256645
0.0204587
0.020313
0.0202902
0.0214247
0.0204178
0.0203986
0.0205714
0.0302333
0.0223324
0.0217333
0.0227429
0.04409
0.0219393
0.0851395
0.0214109
0.814426
0.0588679
0.0214274
0.414048
0.0565527
0.0213842
0.441691
0.0483171
0.0236765
0.0213265
0.0231355
0.0217757
0.15197
0.0368206
0.0927517
0.0213375
0.0211532
0.0225943
0.0214213
0.0211529
0.0216215
0.0215076
0.0214079
0.0222571
0.0218101
0.0214045
0.0200209
0.0213166
0.0216598
0.0211976
0.0203685
0.0215825
0.0232936
0.0950973
0.0203815
0.0204193
1.22867
0.503285
0.0225467
0.640502
1.94947
0.0203853
0.0231225
0.0211049
0.021582
0.0203224
0.0211456
0.0207773
0.0208325
0.0212445
1.01959
0.1209
0.420885
0.0797464
0.0251444
0.0227078
0.0211206
0.021177
0.529713
0.134229
0.534236
0.0217283
0.968529
0.021416
0.0197481
0.0211702
0.0261604
0.278148
0.0220567
0.0203434
0.0216754
0.420543
0.0211134
0.100395
0.0211637
0.021301
0.0211966
0.0217338
0.0213326
0.65548
0.0972814
0.739012
0.0258866
1.52293
0.0210114
1.93011
0.020109
0.0215006
1.1846
0.308011
0.0211602
0.0214138
0.020304
0.537731
0.0205069
0.0277122
0.022173
0.0296665
0.610333
0.619526
0.0215699
1.53435
0.0209401
0.0212349
0.38834
0.0202881
0.811551
0.0804667
0.0213607
0.0217822
0.021335
0.106013
1.10902
0.0228496
0.0203686
0.0800712
0.0446222
0.0198355
0.0197685
0.0221176
0.0203043
0.0418135
0.812401
0.0213869
0.0211063
0.127725
0.0212443
0.027282
0.0213832
0.0210624
0.474385
0.0210736
0.0204175
0.0207634
0.0215665
0.0204641
0.0218318
0.0216698
0.0233523
0.0551227
0.039262
0.0210202
0.0236536
0.0211648
0.0236253
0.0228444
0.0203726
0.132703
0.0210892
0.0550584
0.0218624
0.0255537
0.0200069
0.0200093
0.029562
1.19114
0.0220808
0.0204055
0.0202365
0.0263852
0.0213795
0.214547
0.211827
0.0211625
0.149512
0.0213737
0.0393823
0.0215033
0.0199114
0.0222106
0.0208953
0.0367598
0.0213581
0.0216679
0.0245268
0.0210743
0.0214056
0.021393
0.452998
0.0222624
0.0226037
0.0227996
0.0215994
0.0219085
0.025027
0.0212476
0.94987
0.0203905
0.346526
0.462866
0.0222419
0.0219707
0.0203799
0.0274999
0.0238588
0.021429
0.361369
0.0217522
0.0203621
0.0240524
0.0218067
0.0214993
0.0213163
0.0822024
0.0210711
0.02529
0.0222145
0.0209946
0.131002
1.32418
0.0988585
0.0201455
0.254956
0.0220086
0.831906
0.0632956
0.0205976
0.0227296
0.0617481
0.0213016
0.0255009
0.0627375
0.0207368
0.0220555
0.0214855
0.0211349
0.0208851
1.41709
0.0211645
0.0209827
1.0051
0.0212752
0.0213564
0.0201078
0.0222281
0.0207521
1.52336
0.0218347
0.0213626
0.0216366
0.0213911
0.488868
0.0215293
0.0361244
0.0197746
0.0344091
0.247101
0.100549
0.0365419
0.0221869
0.0220524
1.48104
0.0217779
0.156389
0.0212133
0.0203759
0.392573
0.0251819
1.20504
0.0213659
0.0448539
1.14698
0.022736
0.0210934
0.487544
0.0246252
0.106385
0.0236865
0.0215075
0.460793
0.0212757
0.0221296
0.0225666
0.0212746
0.0227737
0.0215293
0.0231941
0.48693
0.02165
0.29631
0.426917
1.46124
0.0449973
0.0634659
0.0209257
0.0214852
1.65579
0.399631
0.021374
0.0217239
1.22197
0.0202381
1.16367
0.0211243
0.0232313
0.0202074
0.031392
0.0211567
0.0251554
0.202322
0.0205336
0.434758
0.0247971
0.0219122
0.0249105
0.0211359
0.0221401
0.0227839
1.35249
0.0213484
0.0215182
0.0620058
0.0214938
0.0227935
0.0220061
0.0211768
0.0269886
0.0211526
0.0215279
0.0201403
0.411214
0.0227932
0.41386
0.0211448
0.685222
0.0231288
0.0212058
0.0223794
0.0216509
0.523737
0.0209886
0.551155
0.0212817
0.0211904
0.0221125
1.27312
0.0371512
0.153816
0.646169
0.0231372
0.0212616
0.0441063
0.0267535
0.030283
0.250844
0.52065
0.0216492
0.0231877
0.0448996
0.0213305
0.0213982
0.0213108
0.0204112
0.0221847
0.52816
0.0251754
0.389206
0.0204342
0.0280662
0.0197097
0.0218422
0.0227752
0.0212887
0.0442888
0.0212175
0.0225218
0.0203131
0.0214129
0.0231914
0.0504845
0.0211865
0.0212604
0.497287
0.0240662
0.0218398
0.654077
0.688598
0.0221416
0.0225606
0.0222435
0.0232674
0.0215419
0.0224629
0.022131
0.0210684
0.0211821
0.0210346
0.0828336
0.060859
0.0210325
0.500404
0.0341856
0.0203745
0.0222794
0.0212412
0.072811
0.0214921
0.107774
0.0206389
0.0210746
0.0501437
0.0212911
0.0314808
0.350317
0.02625
0.0203658
0.338548
0.0237841
0.020542
0.0211719
0.0523861
0.0209179
0.0205258
0.0212709
0.0209119
0.454262
0.0419037
0.0328721
0.0225162
0.0211417
0.0210286
0.0214596
0.0218314
0.0212873
0.0608534
0.107981
0.0202647
0.0225392
1.6789
0.0213404
0.0212704
0.0379484
0.0216581
0.0566514
0.391651
0.0213745
0.133857
0.0199336
0.494757
0.0242806
0.525933
0.0211076
0.021047
0.0213333
0.240588
0.0221662
0.623518
0.45755
1.69334
0.0325225
0.0965691
0.0301318
0.0230832
0.0286785
0.0223277
0.103561
0.0215236
0.629687
0.0202372
0.189661
0.0220616
0.0218258
0.0210119
0.143336
0.0203106
0.0209148
0.0220709
0.0223894
0.025709
0.0211399
0.0212583
0.0213155
0.0212924
0.763931
0.0209798
0.513736
1.33885
0.0209917
0.0218711
0.0289771
0.0217227
0.0213073
0.0217278
0.0227709
0.0242709
0.0220205
0.0223902
0.0204862
0.021355
0.0220262
0.0237168
0.0217567
0.0223457
0.666198
0.021323
1.34011
0.0242417
0.0220019
0.021268
0.0207128
0.0220622
0.0223472
0.021061
0.022004
0.0196642
0.0210495
0.0219517
0.0211724
0.023441
0.0199193
0.0218253
0.0222063
0.0215109
0.0232887
0.0220657
0.0299283
0.0223953
0.0210132
0.0212778
0.0205271
0.020915
0.0215929
0.0211513
0.0209659
0.0213315
0.0203015
0.0328264
0.0210356
0.0222792
0.0213413
0.643699
0.0210349
0.0202098
0.0522763
0.0199132
0.0215427
0.151205
0.021781
0.0225048
0.0227542
0.0912897
0.0207237
0.0486081
1.70698
0.323725
0.342827
0.0214803
0.0213475
0.490219
0.0232106
0.0201753
0.0777757
0.632863
1.67409
0.0212882
0.0569737
0.0213505
0.0213349
0.742107
0.0211871
0.0590935
0.0250401
0.0620177
0.0209998
0.0229788
0.0219779
0.142994
0.741655
0.0211523
0.0241161
0.0258021
0.0209585
0.0231457
0.0487333
0.210494
0.0210824
0.0128444
0.0225357
0.286596
0.0103314
0.4753
0.361161
0.0209604
0.0287522
0.31825
0.0210355
0.0211585
0.0222443
0.021164
0.0202174
0.285327
0.0201388
0.523066
0.0226144
0.168795
0.0527703
0.0214733
0.124268
0.364749
0.0217388
0.512821
0.0280532
0.0722904
0.0202206
0.0198786
0.115549
0.0213355
0.686658
0.0209638
0.373506
0.0204792
0.0578807
0.163251
0.0209482
0.350556
0.0214226
0.0221334
0.033798
1.30467
1.35657
0.0210558
0.0204978
0.020318
0.338555
1.11327
0.0227924
0.0247766
0.0281412
0.0202733
0.0209936
0.0217522
0.0715459
0.0245968
0.0214131
0.0209139
0.0208076
0.396597
1.65346
0.291362
0.0205324
0.0209261
0.644404
0.0211714
0.487593
0.0414439
0.522709
0.0790658
0.369962
0.0208654
0.021479
0.0228326
0.0219527
0.023922
0.0212189
0.0565654
0.476876
0.0204213
0.428316
0.0207969
0.0352171
0.0215858
0.176757
0.0247342
0.0218357
0.0210964
0.0248515
0.0838159
0.410608
0.326962
0.0214051
0.032453
0.0213527
0.0224717
0.0232401
0.239842
0.0243411
0.072401
0.0208558
0.0262342
0.0211381
0.0199405
0.0220193
0.0209535
1.63463
0.0211451
0.0225073
0.022432
0.0232041
0.0202434
0.0578656
0.0217009
0.021914
0.0208819
0.0210041
0.349782
0.0210471
0.0964889
0.0204367
0.0255869
0.0208931
0.0659775
0.0213666
0.0746446
0.0215762
0.0213706
0.0208846
0.384866
0.359413
0.0364483
0.156096
0.590336
0.0213195
0.0227249
0.236928
0.0206434
0.107597
0.101012
0.0624954
0.105607
0.0224177
0.345834
0.0237026
0.423503
0.244577
0.0223322
0.0215479
0.339624
0.870255
0.0239551
0.0234566
0.0212029
0.0220992
0.0324958
0.0215839
0.0208762
0.0219969
0.163043
0.0336775
0.0230491
0.29748
0.0209027
0.021189
0.167709
1.33244
0.0335561
0.0220171
0.238547
0.0205218
0.0206169
0.401113
0.0203389
0.0222761
0.358485
0.372421
0.0210493
0.126588
0.140278
0.0661515
0.432572
0.237618
0.0224259
0.720417
0.0216798
0.0208438
0.0213355
0.0218347
0.0214282
0.284259
0.0212685
0.469119
0.0236719
0.0491821
0.021809
0.0333879
0.0217841
0.0213266
0.0413845
0.0242422
0.0208831
0.0797187
0.021736
0.0278158
0.0211004
0.0202972
0.352502
1.36579
0.0309915
0.019703
0.0196581
0.0232803
0.0212825
0.998228
0.0780717
0.41607
0.0315055
0.119304
0.0214487
0.0291064
0.0255606
0.023067
0.11394
0.0211084
0.02101
0.582952
0.0334172
0.256781
0.0210632
0.306395
0.334023
0.0240987
0.0375511
0.0229086
0.968917
0.0214538
0.0239851
0.347044
0.0221618
0.0210753
0.206543
0.0216355
0.0204999
0.0209934
0.163246
0.0217076
0.0247327
0.0352861
0.036158
0.0250393
0.0322763
0.223342
0.44945
0.182188
0.0209043
0.0214798
0.0218931
0.0217481
0.0212663
0.588548
0.353837
0.0229327
0.0497365
0.107128
0.217479
0.0215019
0.368022
0.0212481
0.381481
0.0676168
0.0206316
1.27762
0.511791
0.0208572
0.0214472
0.0213722
0.192767
0.117183
0.0258281
0.04806
0.0948844
0.0244144
0.252576
0.257961
0.0211631
0.0213882
0.275139
0.623094
0.0210893
0.0212887
0.0211212
0.0217293
0.0215401
0.0238923
1.34805
0.0212717
0.0238266
0.682886
0.0216129
0.0228024
0.0242789
0.618869
0.0214903
0.0227251
0.158868
0.021736
0.0204039
0.0217907
0.0209177
0.0223627
0.230339
0.426533
0.0215684
0.137614
0.0248619
0.272095
0.0213489
0.021995
0.0221871
0.0217086
0.365406
0.0213781
0.0221771
0.0258259
0.0219345
0.0259316
0.0244637
0.0212186
0.0904497
0.0214607
0.0210472
0.567439
0.0210872
0.671411
0.0268341
0.0209599
0.105011
0.0223921
0.0299686
0.103301
0.0202362
0.0341526
0.0209808
0.0213761
1.15107
0.702271
0.0202562
0.0214535
0.0206925
0.021593
0.0763671
0.0221212
0.021466
0.0220158
0.0219575
0.0218529
0.0212794
0.0203889
0.0209618
0.0211873
0.194309
0.0240332
0.0200841
0.0376228
0.0211945
0.635327
0.168633
0.0310841
0.0214404
0.0212384
0.0680634
0.0232691
0.0213847
0.021651
0.299674
0.122513
0.0213579
0.020016
0.0620007
0.0570579
0.0198438
0.42784
0.0370671
0.0214326
0.0217575
0.0505716
0.0215491
0.0298908
0.310544
0.0216903
0.0609117
0.0674301
0.0339856
0.0200614
0.0213394
0.0199564
0.019977
0.122219
0.0210821
0.0505209
0.0479044
0.0199477
0.0217946
0.0310406
0.0229435
0.0215937
0.0213849
0.022466
0.460911
0.0199842
0.0214682
0.113995
0.0222219
0.0215535
0.0219659
0.0211001
0.0215722
0.0211897
0.0214671
0.0342858
0.0231738
0.108681
0.418977
0.0200694
0.0214112
0.020023
0.0852813
0.0210143
0.0243069
0.0212933
0.0202341
0.0280378
0.0204076
0.0277051
0.0213909
0.0204216
0.338594
0.370637
0.021737
0.0216064
0.020961
0.396891
0.618884
0.0213873
0.419417
0.670677
0.0222769
0.141916
0.354255
0.0233455
0.191906
0.0449783
0.0813446
0.0211982
0.0313564
0.0899139
0.02037
0.332707
0.267292
0.0213818
0.319269
0.429727
0.0238641
0.24747
0.0201713
0.0255583
0.0467212
0.0212445
0.36057
0.0202462
0.0385327
0.0753402
0.0201108
0.321138
0.0217892
0.0219135
0.0308485
0.0231108
0.203654
0.293857
0.0204403
0.0233481
0.235955
0.0207179
0.023831
0.0208189
0.280599
0.668976
0.0249364
0.0214236
0.0240766
0.229489
0.254652
0.0272014
0.0201229
0.0209042
0.2696
0.0397783
0.409544
0.0226901
0.022868
0.0246573
0.0202648
0.0222803
0.0243347
0.0231057
0.0208973
0.0242448
0.454213
0.475961
0.0209729
0.15702
0.0240499
0.321977
0.303669
0.0471653
0.665673
0.0968009
0.0201871
0.110357
0.117545
0.401276
0.345864
0.0212534
0.11819
0.37868
0.043484
0.0245426
0.343163
0.243696
0.0210782
0.0242552
0.0236092
0.0212186
0.0665227
0.0212712
0.0236566
0.0206326
0.0203355
0.0217244
0.0213453
0.0225775
0.0244405
0.469456
0.0242264
0.36371
0.0208322
0.0252345
0.0215141
0.763457
0.588745
0.0211884
0.046849
0.0214703
0.0202196
0.0212968
0.0202012
0.0210705
0.0906702
0.0215507
0.211096
0.0210962
0.0209501
0.458368
0.0224181
0.0217175
0.0211308
0.0212585
0.0264662
0.0664976
0.297491
0.167829
0.629013
0.0214855
0.0216649
0.0215186
0.0233716
0.0448453
0.077551
0.260388
0.0209683
0.0439883
0.0219517
0.229588
0.256557
0.0238466
0.296525
0.663931
0.0225652
0.0416341
0.0209202
0.043205
0.022829
0.0855921
0.0414233
0.0202675
0.392948
0.455247
0.0215905
0.022466
0.0217655
0.165734
0.023254
0.0216387
0.468621
0.0208152
1.07167
0.0267259
0.0236494
0.0219393
0.0216968
0.574894
0.0211465
0.160033
0.0236132
0.0212909
0.0207285
0.0490503
0.0224938
0.292919
0.022451
0.0242804
0.024356
0.0684248
0.0226051
0.0213137
0.337825
0.0216197
0.0204055
0.298484
0.328246
0.0242421
0.0205181
0.0221754
1.47801
0.0682332
0.0211572
0.0345754
0.0234074
0.106812
0.284121
0.0218008
0.0211175
0.0852418
0.0209654
0.0207452
0.0213666
0.0788186
0.329356
0.150025
0.0240176
0.0216908
0.0218802
0.363471
0.0324306
0.0221744
0.0216417
0.0210404
0.082912
0.391539
0.310669
0.0212282
0.126322
0.0202201
0.0201786
0.0220249
0.0218387
0.0405722
0.0213487
0.275171
0.43666
0.380641
0.023383
0.0214723
0.0214993
0.038774
0.0206184
0.0212602
0.0361166
0.0214638
0.0212591
0.0221227
0.0240098
0.020145
0.285126
0.0400948
0.0239422
0.0229372
0.247701
0.0227578
1.63833
0.0213609
0.0212576
0.0214608
0.021052
0.021443
0.020897
0.0918241
0.0917915
0.021532
0.0220435
0.0212363
0.0238859
0.0228804
0.0694539
0.02191
0.221662
0.021303
0.0217563
0.0222998
0.075511
0.0214663
0.236784
0.0214679
0.0214855
0.0196649
0.237743
0.0227163
0.298759
0.288921
0.021865
0.0214585
0.0211304
0.0213956
0.178862
0.0219891
0.023976
0.550116
0.0215346
0.547942
0.976994
0.0229465
0.0966419
0.0215031
0.022952
0.0209887
0.0203564
0.0202332
0.0213497
0.0921158
0.0832235
0.0208396
0.660089
0.0634521
0.0212511
1.15193
0.0203328
0.0355061
0.0221314
0.0210247
1.28982
0.021456
0.0225277
0.0237892
0.0853056
0.0736857
0.0218577
0.0209768
0.0223592
0.313414
0.0507315
0.0354598
0.0256519
0.0214351
0.0213979
0.429793
0.021721
0.0279614
0.228413
0.463605
0.0214422
0.0340611
0.0214691
0.0217248
0.0346291
0.0293037
0.0328469
0.0219405
0.0217674
0.0248671
0.12165
0.0484821
0.0203996
0.0241695
0.0879902
0.0229414
0.040355
0.0215701
0.0216593
0.0213394
0.0453005
0.64711
0.315904
0.0214493
1.40345
0.0239288
0.0255313
0.0214797
0.0213397
0.0213591
0.0207971
0.0528857
0.0222746
0.0221727
0.0219113
0.021339
0.0214338
0.155789
0.0214067
0.0213861
0.0216899
0.588762
0.943911
0.0214251
0.0211557
0.0214607
0.31817
0.0219751
0.541324
0.0214483
0.0528128
0.0214284
0.0216478
0.0451468
0.0216249
0.0308397
0.0216406
0.0214469
0.0203457
0.0224451
0.146552
0.0217903
0.0218516
0.349024
0.0215369
0.0222918
0.0218943
0.0215684
0.0212395
0.0218632
0.0630878
0.020759
0.020826
0.0209497
0.482637
0.0235513
0.379843
0.0214834
0.0216818
0.630643
0.215081
0.264104
0.0248977
0.032277
0.27071
0.021478
0.466087
0.0220687
0.109388
0.0209755
0.302108
0.03083
0.0196888
0.0233281
0.0236561
0.0222914
0.0206991
0.266999
0.0209009
0.266911
0.0216135
0.0213859
0.0217037
0.0207592
0.0217251
0.112923
0.0213375
0.0211379
0.021136
0.0215856
0.0213683
0.0436056
0.639742
0.447414
0.0214757
0.0230413
0.0231773
0.0214599
0.0213168
0.102164
0.038382
0.022491
0.0213204
0.0482396
0.0224462
0.0853329
0.178636
0.0226727
0.0203089
0.021286
0.0267441
0.526688
0.0214999
0.0212188
0.0533334
0.11773
0.0430319
0.586143
0.021296
0.0237494
0.0235035
0.0204704
0.0216694
0.480753
0.340558
1.1433
0.0212678
0.643114
0.0216608
0.0214717
0.024311
0.0218028
0.0243364
0.0334511
0.0212321
0.0214626
0.0213187
0.0208888
0.0201714
0.0211332
0.0244047
0.324521
0.0330253
0.0196563
0.0201228
0.021273
0.0217341
0.0213247
0.298006
0.0218412
0.0218826
0.0218138
0.26771
0.0212489
0.0229293
0.28713
0.0213026
0.0212754
0.272192
0.0212118
0.0213587
0.0212268
0.196393
0.0362429
0.0420758
0.0217048
0.938982
0.0225078
0.0201594
0.0204115
0.0212487
0.0389083
0.0212676
0.0216009
0.0412966
0.021343
0.436303
0.0228136
0.0283972
0.021667
0.0407293
0.0298023
0.0214539
0.0211319
0.0219641
0.0215193
0.0213162
0.467015
0.0209704
0.048676
0.0211683
0.0216231
1.66407
0.0210704
1.353
0.0789074
0.0212934
0.0670785
0.0211488
0.0218559
0.0212495
0.0216921
0.0207345
0.0213241
0.0212953
0.0213667
0.0733489
0.0214692
0.0209659
0.0217275
0.0208019
0.0212082
0.0212089
0.0214114
0.0205126
0.0213086
0.021264
0.0213708
0.0212539
0.0218228
1.27647
0.0212334
0.0219131
0.110899
0.339078
0.0210009
0.0264084
0.020983
0.0210284
0.0212814
0.0214589
0.629752
0.337184
0.0211119
0.0227447
0.375966
0.0215355
0.0604495
0.494227
0.0204295
0.107536
0.0214538
0.0609151
0.0237722
0.312261
1.27263
0.459641
0.0209934
0.0211072
0.0213048
0.0243461
0.0664043
0.0224896
0.0597262
0.455924
0.0213762
0.221381
0.0526233
0.0269987
0.0203925
0.0341597
0.0327782
0.0212925
0.0210295
0.0220965
0.0239837
0.0238565
0.0243884
0.0237398
0.0241647
0.610058
0.0210782
0.0212514
0.0211566
0.198016
0.0242743
0.0243672
0.147971
0.578515
0.0236399
0.021046
0.0241737
0.0212209
0.0324121
0.0213524
0.0219545
0.0509876
0.0245767
0.7966
0.0203631
0.261735
0.0362571
0.0848508
0.357934
0.647044
0.0211188
0.0213409
0.0213308
0.0346046
0.021403
0.0208861
0.0213312
0.0304123
1.22585
0.172734
0.0240638
0.0267355
0.535361
0.0386509
0.258634
0.0449572
0.0497136
0.0360497
0.61129
0.200724
0.0211128
0.0211261
0.0211377
0.0601042
0.0270068
0.0481528
0.0216819
0.0212365
0.021229
0.177608
0.0211774
0.0211877
0.0210596
0.0350809
0.0209545
0.0211578
0.020322
0.0254773
1.36488
0.0290606
0.0236626
0.0214768
1.44138
0.0282782
0.0208753
0.0213254
0.0720079
0.140393
0.0215342
0.0215891
0.188755
0.0211505
0.0210072
0.0209699
0.0214384
0.0759283
0.0210042
0.0215043
0.0211162
0.0216181
0.0212402
0.0211422
0.0210607
0.0212377
0.021348
0.0842952
0.0212445
0.0206862
0.106772
0.0429645
0.0228343
0.0606825
0.0209851
0.0372575
0.0212884
0.0261747
0.0210856
0.454971
0.0211183
0.0212297
0.0201408
0.345105
0.0242931
0.0212002
1.34299
0.0212158
0.0201429
0.0212216
0.0219891
0.0262831
0.0209648
0.445114
0.0214325
0.249173
0.0416124
0.0213598
0.0311012
0.0210049
0.0206215
0.0211877
0.872927
0.0255453
0.0341359
0.0400489
1.36159
0.0252641
0.0388079
0.0244107
0.0213016
0.0200972
0.178921
0.459515
0.0209823
0.0362382
0.0209168
0.0210227
0.249395
0.0205061
0.0212789
0.0357345
0.0459647
0.46018
0.0213029
0.0210375
0.0402797
0.0209467
0.0215831
1.22558
0.0212038
0.0480951
1.3022
1.21338
0.0213234
0.0222129
0.0211255
0.0204785
0.174429
0.0215389
0.0213991
0.0358631
0.0206899
0.0137504
0.0213604
0.0223978
0.0237216
0.568537
0.0240853
0.0217268
0.155316
0.358524
0.0212451
0.332151
0.0216539
0.0212669
0.021342
0.0209858
0.0239726
0.165539
0.439385
0.0211659
0.0240929
0.0218294
0.0199473
0.0210412
0.0212875
0.0239963
0.0208159
0.0211419
0.0219526
0.0214533
0.450975
0.0213646
0.0221031
0.0601329
0.0222904
0.0202219
0.321224
0.501996
0.521676
1.46561
0.0618275
0.0205533
0.0220552
0.637201
0.40318
0.024044
0.124262
0.343706
0.0214502
0.305596
0.436602
0.0214995
0.305607
0.0218193
0.514172
0.471316
0.995732
0.0219271
0.0210094
0.0467679
0.0212718
0.0213697
0.282221
0.105371
0.0213264
0.0214036
0.0211044
1.24824
0.021089
0.0210636
0.021229
0.0210039
0.021018
0.394559
0.0217292
0.0209633
0.0213894
0.0311921
0.521153
0.568463
0.0212842
0.0211316
0.022585
0.0212756
0.0209959
0.0211266
0.503178
0.0212296
0.0350622
0.0211358
0.0214828
0.0203005
0.0213148
0.553096
0.520265
0.0205367
0.0217226
0.205232
0.608624
0.113713
0.477064
0.0213177
0.0313188
0.0211084
0.0199359
0.0211027
0.0201634
0.0210675
0.0212395
0.0215781
0.0663863
0.0204856
0.0856468
0.534431
0.0204606
0.0379897
0.0488155
0.021828
0.0211265
0.0212078
0.0212285
0.0210358
0.347722
0.0201723
0.0210718
0.550042
0.0211003
0.0212858
0.0209828
0.0417034
0.0213686
0.0213583
0.586434
0.0206768
0.0206061
0.0210905
0.0364937
0.0212428
0.0197816
0.0210977
0.0206839
0.629993
0.434873
0.0210337
0.291121
0.0200439
0.0212496
0.0218799
0.105173
0.715717
0.0200324
0.0232544
0.0213059
0.0211458
0.0211011
0.0210961
0.0738604
0.345642
0.0212898
0.0217851
0.225204
0.0209613
0.0210666
0.0241729
0.0276348
0.614579
0.0213037
0.0237939
0.422239
0.0211233
0.0238959
0.0527538
1.34987
0.0210738
0.020951
0.0208963
0.0211205
0.0209742
0.258748
0.0210525
0.428582
0.0487657
0.0217528
0.0239216
0.235609
0.02158
0.398198
0.479413
0.213253
0.025533
0.0211792
0.0223647
0.230331
0.0208195
0.0420109
0.0209579
0.020089
0.0200723
0.0201282
0.0211308
0.620813
0.0215932
0.292208
0.086761
0.0741396
0.537725
0.0199911
0.0213697
0.0223758
0.0684594
0.0211672
0.457307
0.0363129
0.0200504
0.0209322
0.256555
0.0209272
0.0233838
0.347324
0.0210482
0.280123
0.0217525
0.0421691
0.82993
0.0213764
0.0205984
0.0398089
0.603377
0.021196
0.0224738
0.0201767
0.0260548
0.0208695
0.453859
0.020997
0.0208072
0.0912215
0.0201108
0.275533
0.0213939
0.0211746
0.0211141
0.626897
0.0209719
0.0208936
0.107953
0.858713
0.119984
0.0213371
0.0201292
0.0333302
0.625765
0.0505942
0.144414
0.0235544
0.0239315
0.021541
0.0212644
0.0243614
0.0216915
0.0210825
0.0203684
0.0436832
0.0243523
0.020924
0.0197137
0.021501
0.0205845
0.0213072
0.0228876
0.38084
0.093614
0.0229816
1.25011
0.378946
0.0206468
0.0209433
0.0219097
0.0353434
0.0203172
0.0213986
0.0209094
0.0209965
0.0211409
0.0499872
0.0212758
0.0648262
0.0212594
0.0208617
0.366807
0.0458368
0.0214262
0.020886
0.0208504
0.639502
0.195312
0.0214675
0.0202322
0.0250757
0.0209351
0.0212291
0.0210107
0.104426
0.0209942
0.0208459
0.0461856
0.0204645
0.0676496
0.0239192
0.0210283
0.0213017
0.228749
0.118409
0.457084
0.0669229
0.0237274
0.0222378
0.0216163
0.0212418
0.0242912
0.0208287
0.708985
0.599153
0.0226283
0.0396115
0.0713898
0.0208564
0.182528
0.0237758
0.165514
0.0257563
0.0207838
0.0208031
0.0216735
0.0210764
0.200423
0.44289
0.0598305
0.0211711
0.0209152
0.0208542
0.247022
0.0238741
0.360523
0.0208775
0.0212643
0.0487851
0.0210231
0.0744408
0.160648
0.020875
0.0213847
0.0198959
0.0211661
0.337229
1.29716
0.0208574
0.0210489
0.0206761
0.249714
0.0211466
0.0231285
0.133854
0.265287
1.0183
0.393389
0.63983
0.0212398
0.0262023
0.0215045
0.0210735
0.0224956
0.27814
0.0204509
0.0211021
0.0739597
0.0212566
0.0222755
0.371073
0.0206061
0.0210547
0.0584973
0.028852
0.0201465
0.0202045
0.0470072
0.477432
0.0418126
0.458034
0.0860129
0.646371
0.0209742
0.0123003
0.141084
1.32902
0.431663
0.017102
0.629151
0.282377
0.190688
0.0206111
0.0210105
0.0202805
0.0212447
0.382666
0.0207671
0.0530915
0.0210363
0.0216965
0.0213273
0.515188
0.0213179
0.0514241
0.0238043
0.0232236
0.0322439
0.0133595
0.0484197
0.0198305
0.0442121
0.0212379
0.0579656
0.0214256
0.0841548
0.0309133
0.0238893
0.663875
0.0207911
0.105504
0.0238394
0.0235238
0.0213706
0.696133
0.0215543
0.0208863
0.0211982
0.288642
0.0214397
0.0263487
0.0350546
0.0262638
0.12738
0.0208338
0.0200858
0.779018
0.0392367
0.376257
0.24055
0.0208661
0.188253
0.521107
0.0501408
0.0206845
0.0413538
0.34247
0.0207704
0.0248171
0.0199336
0.019337
0.447902
0.312418
0.0467234
0.0207986
0.0206651
0.0216312
0.0201779
0.0232968
0.0240518
0.0218686
0.020383
0.317684
0.0219058
0.0212615
0.122381
0.464229
0.297357
0.0224267
0.0224495
0.01962
0.421412
0.0207867
0.302146
0.0213006
0.0341365
0.232979
0.0215577
0.658743
0.0203891
0.0203496
0.0208072
0.0208307
0.0206598
0.0208387
0.0198929
0.484304
0.0238535
0.0209997
0.356556
0.0208782
0.0213607
0.0206446
0.631463
0.0209728
0.0227563
0.03738
0.0316332
0.0209004
0.0199228
0.567514
0.0211978
0.246633
0.304935
0.021356
0.0215978
0.0316661
0.0260079
0.0581508
0.0202175
0.0206395
0.02246
0.0263646
0.0226329
0.0418444
0.0327461
0.0234645
0.0216395
0.0245539
0.0219069
0.0315249
0.21862
0.0205492
0.26197
0.031715
0.0212774
0.0209207
0.020891
0.0208643
0.0206469
0.0210046
0.0207432
0.0217743
0.0345261
0.022804
0.0210729
0.022768
0.0239087
0.0205915
0.0207108
0.203742
0.0225303
0.0224278
0.0205718
0.021565
0.0205452
0.0200647
0.446034
0.0213309
0.021058
0.0701268
0.30908
0.0405619
0.0208812
0.649716
0.0214464
0.13688
0.281578
0.0217698
0.390052
0.0206832
0.0202884
0.487033
0.0208352
0.0532324
1.31514
0.157547
0.023961
0.0422146
0.0213178
0.0208366
0.0220344
0.0206515
0.179733
0.0314859
0.0208656
0.368608
0.300118
0.0198575
0.0206706
0.0342422
0.0243002
0.03356
0.0255259
0.114584
0.340448
0.0212248
0.659489
0.300572
0.0308955
0.471626
0.0227508
0.30983
0.0198483
0.0440132
0.0251982
0.0201098
0.544583
0.378468
0.0441051
0.0197073
0.0381227
0.0203809
0.0206712
1.66919
0.649138
0.0206796
0.02114
0.283925
0.0201611
0.0284607
0.0207946
0.122249
0.0354101
0.0219318
0.0214383
0.261075
0.0727196
0.611148
0.0352524
0.0208463
0.30621
0.0210216
0.377993
0.0256512
0.0218981
0.381988
0.0213758
0.026806
0.0213529
1.32183
0.0210934
0.0211671
0.0202275
0.0213358
0.020479
0.0215354
0.15498
0.540819
0.0205923
0.76882
0.183385
0.0203057
0.0205546
0.410241
0.264709
0.163516
0.169485
0.571855
0.0205578
0.0211934
0.0555759
0.0226062
0.0942891
0.0296153
0.0206228
0.0212225
0.0215371
0.0199689
0.0205979
0.0373426
0.0205768
0.378287
0.0208975
0.0213425
0.510616
0.019865
0.0418133
0.638744
0.0208291
0.0207778
0.0209522
0.0289429
0.0197097
0.0201889
0.0274744
0.466913
0.023831
0.0214829
0.0331176
0.0205219
0.0209871
0.0212384
0.472241
0.0336119
0.332883
0.118285
0.0340913
0.0408175
0.0873402
0.0210146
0.0232535
0.0197108
0.0198174
0.0223604
0.0208099
0.231952
0.1162
0.0234367
0.652785
0.0247304
0.451642
0.0386957
0.0200532
0.0374622
0.0227953
0.406966
0.021303
0.0204386
0.020113
0.0313348
0.432076
0.354188
0.521653
0.0209618
0.155337
0.02058
0.43861
0.204081
0.0204573
0.0214135
0.0209519
0.62829
0.348316
0.0215828
0.0197318
0.0436024
0.0217582
0.0491583
0.0214282
0.021003
0.248013
0.173262
0.0205125
0.0228949
0.0206963
0.0237039
0.0215319
0.213133
0.0207011
0.0217336
0.0391094
0.0213307
0.0208421
0.181478
0.0120895
0.0214277
0.0212827
0.0215972
0.0205891
0.0204846
0.434729
0.503671
0.0208633
0.0246182
0.0208222
0.0213536
0.0213416
0.0211183
0.150163
0.490848
0.322838
0.459147
0.0207493
0.0230303
0.0208342
0.0211641
0.184356
0.0214379
0.0348258
0.0207215
0.0617464
0.0214159
0.461602
0.477418
0.0209576
0.0208284
0.0463821
0.037028
0.201376
0.379049
0.035348
0.171592
0.0240968
0.0211804
0.321745
0.0207538
0.320027
0.0200674
0.055386
0.029597
0.0208282
0.021507
0.0208685
0.230693
0.29931
0.0210093
0.0343682
0.025333
0.041495
0.02046
0.0234376
0.287081
0.0204253
0.596744
0.0248896
0.0201919
0.387279
0.0273371
0.276711
0.0204474
0.170162
0.0210126
0.0202449
0.0350239
0.0204434
0.480075
0.0200468
0.0208081
0.0204922
0.0236855
0.475554
0.0207409
0.383965
0.0200333
0.0228064
0.0403057
0.0210626
0.479035
0.0164418
0.0341706
0.097013
0.0210635
0.0205301
0.897442
0.0204641
0.0203512
0.0209076
1.68961
0.373586
0.0658934
0.994099
0.0200976
0.0210264
0.0229809
0.0377306
0.0206587
0.385633
0.273912
0.0212306
0.46074
0.049061
0.251545
0.0203713
0.0208365
0.0230407
0.0213002
0.0388546
0.436433
0.0203112
0.0263616
0.0206907
0.516409
0.449304
0.0210407
0.125164
0.020972
0.0213055
0.0200878
0.0216954
0.0834529
0.471149
0.0204229
0.081385
0.43016
0.0202362
0.519012
0.0206044
0.020882
0.0500944
0.0204904
0.311605
0.0200149
0.163809
0.596099
0.0198399
0.0200826
0.0215381
2.06352
0.0253243
1.23592
0.0464724
0.0294585
0.0235443
0.44338
0.0204931
0.589066
0.0301779
0.0206344
0.147917
0.652128
0.199924
0.353832
0.406549
0.0203582
0.502435
0.0286787
0.149011
0.329868
0.0204584
0.020328
0.0207341
0.352028
0.0202982
0.0201414
0.474833
0.0197574
0.0212754
0.0203388
0.0208391
0.020274
0.0211355
0.0853772
0.0208163
0.185848
0.289027
0.0228585
0.0231343
0.0206222
0.0203811
0.0637574
0.40718
0.485937
0.323727
0.0204943
0.0206656
0.0399106
1.31749
0.380735
0.0203959
0.472576
0.105366
0.020042
0.0404967
0.0277132
0.0201326
0.0208804
0.0215066
0.0213767
0.0200827
0.428499
0.402194
0.0208405
0.312251
0.0213265
0.0374684
0.0208984
0.0213228
0.028583
0.0268991
0.0253935
0.0203162
0.0199762
0.0202843
0.0202858
0.385353
0.261446
0.438803
0.0702587
0.316594
0.0156482
0.0203118
0.277817
0.335696
0.021222
0.246705
0.0220149
0.019834
0.298727
0.679539
0.0246157
0.025655
0.0267404
0.768071
0.0290322
0.0202613
0.0238247
0.0206989
0.138896
0.0206652
0.462957
0.450141
0.0320237
0.462063
0.0430368
0.32275
0.46613
0.0209105
0.0203804
0.0211295
0.021116
0.373622
0.0206139
0.0206251
0.0191849
0.0214305
0.0201905
0.471514
0.197983
0.307341
0.0202304
0.427758
0.335972
0.330742
0.0218832
0.0204239
0.021922
0.0201603
0.478645
0.0238946
0.0202731
0.030727
0.0205668
0.19543
0.170269
0.020601
0.644137
0.0280059
0.0203351
0.361554
0.392905
0.314654
0.0212616
0.473367
0.491356
0.0197082
0.0204935
0.142541
0.0965764
0.0208524
0.504226
0.0210749
0.0203839
0.0204977
0.0203239
0.242405
0.0201725
0.020356
0.372195
0.275103
0.0204699
0.0207826
0.16319
0.447374
0.0230276
0.403998
0.0203663
0.64226
0.175687
0.0215097
0.020209
0.658455
0.430834
0.0226531
0.0200993
0.413369
0.0227144
0.0202086
0.652705
0.0209122
0.256829
0.0204561
0.435333
0.326401
0.472483
0.465528
0.0203993
0.466791
0.0210396
0.217239
0.330419
0.0201453
0.0252015
0.0205796
0.389298
0.0206829
0.0203281
0.0199903
0.0204349
0.0202576
0.0201007
0.287948
0.0214209
0.0660482
0.021779
0.0199821
0.0219337
0.441564
0.0205426
0.415609
0.0202563
0.0210751
0.44951
0.0220087
0.150761
0.0237127
0.0250603