/*--------------------------------*- C++ -*----------------------------------*\
| =========                 |                                                 |
| \\      /  F ield         | OpenFOAM: The Open Source CFD Toolbox           |
|  \\    /   O peration     | Version:  v2012                                 |
|   \\  /    A nd           | Website:  www.openfoam.com                      |
|    \\/     M anipulation  |                                                 |
\*---------------------------------------------------------------------------*/
FoamFile
{
    version     2.0;
    format      ascii;
    class       volVectorField;
    location    "100";
    object      cellDisplacement;
}
// * * * * * * * * * * * * * * * * * * * * * * * * * * * * * * * * * * * * * //

dimensions      [0 1 0 0 0 0 0];


internalField   nonuniform List<vector> 
9793
(
(0 -0.000206367 0)
(0 2.20308e-06 0)
(0 -0.000416443 0)
(0 2.14646e-06 0)
(0 -8.85647e-05 0)
(0 -1.00304e-05 0)
(0 -6.08549e-06 0)
(0 2.0878e-06 0)
(0 -0.000178289 0)
(0 2.20392e-06 0)
(0 -0.000153005 0)
(0 -0.000168 0)
(0 -0.000313501 0)
(0 -1.48279e-05 0)
(0 -0.000244826 0)
(0 -0.000244564 0)
(0 -3.44907e-05 0)
(0 -0.000394799 0)
(0 2.01327e-06 0)
(0 -0.000248383 0)
(0 -0.000311047 0)
(0 -1.81114e-05 0)
(0 2.12853e-06 0)
(0 2.08193e-06 0)
(0 -1.57994e-05 0)
(0 -6.77676e-05 0)
(0 -0.000265391 0)
(0 -3.03765e-05 0)
(0 -0.000245632 0)
(0 -1.24655e-05 0)
(0 2.20164e-06 0)
(0 -3.83018e-06 0)
(0 -0.000429502 0)
(0 -0.000382684 0)
(0 -2.30061e-05 0)
(0 -0.000116412 0)
(0 -0.000249356 0)
(0 -0.000102105 0)
(0 -1.49698e-06 0)
(0 -6.37622e-05 0)
(0 -1.40692e-05 0)
(0 -7.60446e-07 0)
(0 1.96911e-06 0)
(0 -2.20746e-05 0)
(0 -0.000484827 0)
(0 -0.000465775 0)
(0 2.19141e-06 0)
(0 -3.03519e-05 0)
(0 -0.000360439 0)
(0 -0.000399869 0)
(0 -0.000121705 0)
(0 -2.74792e-05 0)
(0 -6.79178e-05 0)
(0 -6.0231e-05 0)
(0 -2.77654e-05 0)
(0 2.09998e-06 0)
(0 -0.000303558 0)
(0 -4.72607e-05 0)
(0 -0.000352166 0)
(0 -1.61607e-05 0)
(0 -7.51198e-05 0)
(0 -9.34314e-07 0)
(0 -0.000417812 0)
(0 -0.000138813 0)
(0 -5.82732e-05 0)
(0 -0.000185236 0)
(0 2.20392e-06 0)
(0 -0.000124383 0)
(0 -0.000257304 0)
(0 -1.14258e-07 0)
(0 -0.000311466 0)
(0 -1.42959e-06 0)
(0 2.11937e-06 0)
(0 -0.000140956 0)
(0 -4.84737e-06 0)
(0 -5.9893e-05 0)
(0 -1.10761e-05 0)
(0 9.81115e-07 0)
(0 -0.000447378 0)
(0 -6.00018e-05 0)
(0 -9.68235e-06 0)
(0 1.93639e-06 0)
(0 -3.87302e-05 0)
(0 -9.17646e-05 0)
(0 -0.000246979 0)
(0 -2.88833e-06 0)
(0 -7.76968e-05 0)
(0 -9.46184e-05 0)
(0 -2.27302e-06 0)
(0 -1.2234e-06 0)
(0 1.94384e-06 0)
(0 3.88059e-07 0)
(0 4.41547e-07 0)
(0 -2.96262e-05 0)
(0 1.93703e-06 0)
(0 -0.000363874 0)
(0 -4.21402e-06 0)
(0 -3.06523e-05 0)
(0 -9.2354e-05 0)
(0 -6.88015e-05 0)
(0 -1.85548e-06 0)
(0 -7.10581e-05 0)
(0 -0.000154486 0)
(0 -0.000487135 0)
(0 -1.27194e-05 0)
(0 1.34693e-06 0)
(0 -0.000148241 0)
(0 -0.00025349 0)
(0 -0.000452569 0)
(0 -3.50572e-05 0)
(0 -6.50466e-05 0)
(0 2.06391e-06 0)
(0 2.20637e-06 0)
(0 2.20328e-06 0)
(0 -0.000311148 0)
(0 -0.000318969 0)
(0 -0.000338395 0)
(0 -0.000445791 0)
(0 1.98792e-06 0)
(0 -0.000486291 0)
(0 -1.51521e-05 0)
(0 -8.66195e-05 0)
(0 -4.10433e-06 0)
(0 -7.30549e-05 0)
(0 -0.000238997 0)
(0 -0.000485101 0)
(0 -2.70006e-05 0)
(0 2.19967e-06 0)
(0 -7.7098e-05 0)
(0 -8.13413e-05 0)
(0 -0.000189975 0)
(0 -0.00029575 0)
(0 -0.00020913 0)
(0 -0.000142384 0)
(0 -0.000120183 0)
(0 -2.92816e-06 0)
(0 -8.2259e-06 0)
(0 -0.000326469 0)
(0 -4.50898e-05 0)
(0 -3.21131e-05 0)
(0 1.82962e-06 0)
(0 -0.000115679 0)
(0 -0.000277226 0)
(0 -0.000103458 0)
(0 2.19039e-06 0)
(0 1.16631e-06 0)
(0 -0.000494277 0)
(0 -3.25201e-06 0)
(0 -0.000296754 0)
(0 -0.000493663 0)
(0 -0.00033273 0)
(0 2.132e-06 0)
(0 -9.82337e-05 0)
(0 -0.000268767 0)
(0 -0.000409383 0)
(0 6.80415e-07 0)
(0 -3.24262e-05 0)
(0 -0.000411747 0)
(0 -3.19033e-06 0)
(0 -0.000338006 0)
(0 -9.49488e-05 0)
(0 -0.000180976 0)
(0 -0.000305101 0)
(0 1.68481e-06 0)
(0 -0.000267677 0)
(0 6.24083e-07 0)
(0 -0.000156803 0)
(0 -0.000240066 0)
(0 -0.000235565 0)
(0 -0.000129195 0)
(0 -0.000278863 0)
(0 2.21616e-06 0)
(0 2.16705e-06 0)
(0 -2.24832e-05 0)
(0 -0.00031485 0)
(0 -1.18744e-05 0)
(0 -9.23464e-07 0)
(0 1.98545e-06 0)
(0 -0.000438282 0)
(0 -0.000134002 0)
(0 -1.39804e-05 0)
(0 2.1942e-06 0)
(0 -8.5759e-05 0)
(0 -0.000472654 0)
(0 -0.000424598 0)
(0 -0.000244463 0)
(0 -5.11775e-06 0)
(0 2.14555e-06 0)
(0 2.12082e-06 0)
(0 -0.00014616 0)
(0 -0.00019501 0)
(0 2.19465e-06 0)
(0 1.66804e-06 0)
(0 -8.80407e-05 0)
(0 -0.000385686 0)
(0 -0.000113725 0)
(0 2.14995e-06 0)
(0 -0.000204985 0)
(0 -0.000389932 0)
(0 -0.000185465 0)
(0 -0.000291816 0)
(0 -0.000334262 0)
(0 -0.00012418 0)
(0 -0.00018376 0)
(0 1.87358e-06 0)
(0 -0.00038407 0)
(0 -7.51953e-05 0)
(0 -0.000245412 0)
(0 -0.00018723 0)
(0 1.73943e-06 0)
(0 -3.4246e-05 0)
(0 1.80393e-06 0)
(0 -0.000179363 0)
(0 2.69225e-07 0)
(0 -8.95284e-05 0)
(0 -0.000253041 0)
(0 -0.000240737 0)
(0 -3.27483e-06 0)
(0 -0.000305898 0)
(0 -9.75789e-06 0)
(0 -2.84946e-05 0)
(0 -0.000328214 0)
(0 2.02704e-06 0)
(0 -4.20778e-05 0)
(0 -3.11684e-05 0)
(0 -0.000348517 0)
(0 -6.1779e-05 0)
(0 -7.32265e-05 0)
(0 -1.00682e-05 0)
(0 -9.11084e-06 0)
(0 1.63814e-06 0)
(0 -7.70307e-05 0)
(0 -0.000249876 0)
(0 -0.000134957 0)
(0 1.59523e-06 0)
(0 -0.000408227 0)
(0 2.16838e-06 0)
(0 2.20211e-06 0)
(0 -0.000197421 0)
(0 -0.0001595 0)
(0 -1.41484e-06 0)
(0 -0.000331688 0)
(0 -6.27267e-05 0)
(0 -4.87935e-05 0)
(0 -3.99879e-05 0)
(0 -0.000187549 0)
(0 -0.000134806 0)
(0 -7.20659e-05 0)
(0 -1.82963e-05 0)
(0 -0.000149569 0)
(0 -0.000443901 0)
(0 -1.92738e-05 0)
(0 2.17099e-06 0)
(0 -0.000323218 0)
(0 -2.93396e-05 0)
(0 -7.10621e-05 0)
(0 -0.000194718 0)
(0 -4.50623e-05 0)
(0 2.08316e-06 0)
(0 -0.000505188 0)
(0 8.80239e-07 0)
(0 -2.65686e-06 0)
(0 -0.000175902 0)
(0 -0.000291073 0)
(0 3.00206e-07 0)
(0 -3.28658e-05 0)
(0 -0.000113349 0)
(0 -3.05729e-05 0)
(0 -1.89866e-06 0)
(0 1.51113e-06 0)
(0 -8.23922e-05 0)
(0 1.40025e-06 0)
(0 -4.45845e-05 0)
(0 -0.000149059 0)
(0 2.17076e-06 0)
(0 -0.000231178 0)
(0 2.20221e-06 0)
(0 -6.55216e-05 0)
(0 -7.87082e-05 0)
(0 2.25101e-06 0)
(0 -6.58191e-06 0)
(0 -1.32271e-05 0)
(0 -7.39435e-05 0)
(0 -0.000196073 0)
(0 -4.10789e-05 0)
(0 -0.000187164 0)
(0 -0.000399765 0)
(0 -0.000268519 0)
(0 1.56784e-06 0)
(0 -6.21476e-05 0)
(0 -0.000277738 0)
(0 -6.78087e-06 0)
(0 -0.000186873 0)
(0 -6.04152e-05 0)
(0 -0.000316867 0)
(0 2.06903e-06 0)
(0 -0.000276854 0)
(0 -0.000247311 0)
(0 -5.84623e-05 0)
(0 -0.000307997 0)
(0 2.19135e-06 0)
(0 1.11065e-06 0)
(0 -6.01132e-06 0)
(0 -0.00015992 0)
(0 -9.62226e-05 0)
(0 -4.86673e-05 0)
(0 -0.000149833 0)
(0 2.15351e-06 0)
(0 -0.00049373 0)
(0 -2.90527e-06 0)
(0 -0.000134047 0)
(0 -0.000478031 0)
(0 2.20392e-06 0)
(0 -0.000142415 0)
(0 -0.000423157 0)
(0 -1.70586e-05 0)
(0 2.20082e-06 0)
(0 -0.000209729 0)
(0 -3.33561e-05 0)
(0 -0.000247355 0)
(0 -0.000202716 0)
(0 -8.29891e-05 0)
(0 -1.41926e-05 0)
(0 -0.000384715 0)
(0 -0.000474 0)
(0 -0.000168965 0)
(0 -5.07331e-07 0)
(0 2.20167e-06 0)
(0 -0.000422581 0)
(0 -0.000261214 0)
(0 -0.000289997 0)
(0 2.22562e-06 0)
(0 2.19252e-06 0)
(0 2.13561e-06 0)
(0 -0.000393122 0)
(0 -1.24242e-05 0)
(0 -3.16525e-05 0)
(0 2.08858e-06 0)
(0 -4.60678e-05 0)
(0 -0.000445829 0)
(0 -0.000412897 0)
(0 -0.000285695 0)
(0 -4.53547e-05 0)
(0 -0.000195386 0)
(0 2.07114e-06 0)
(0 -0.000373204 0)
(0 -0.000283877 0)
(0 -8.3242e-05 0)
(0 2.03694e-06 0)
(0 2.98987e-07 0)
(0 -5.95981e-05 0)
(0 -1.04773e-06 0)
(0 -7.64732e-05 0)
(0 2.28118e-06 0)
(0 2.06482e-06 0)
(0 1.79412e-06 0)
(0 -9.92654e-05 0)
(0 -5.92328e-05 0)
(0 -7.18111e-06 0)
(0 1.81256e-06 0)
(0 2.04685e-06 0)
(0 -8.46238e-05 0)
(0 -3.52181e-05 0)
(0 -7.81164e-05 0)
(0 -0.00037565 0)
(0 -0.000267417 0)
(0 -0.000203462 0)
(0 -0.000271538 0)
(0 -2.56472e-06 0)
(0 2.03289e-06 0)
(0 -0.000147709 0)
(0 -2.31042e-05 0)
(0 -7.11729e-05 0)
(0 -1.79603e-05 0)
(0 -0.000456145 0)
(0 -8.72431e-05 0)
(0 2.19074e-06 0)
(0 1.72146e-06 0)
(0 -2.34805e-05 0)
(0 -4.8546e-05 0)
(0 -0.000284768 0)
(0 -9.50152e-05 0)
(0 -0.000414845 0)
(0 4.03737e-07 0)
(0 -9.06505e-05 0)
(0 -3.54324e-08 0)
(0 1.36827e-07 0)
(0 -5.79792e-06 0)
(0 2.15693e-06 0)
(0 -9.11812e-05 0)
(0 -0.000146473 0)
(0 -0.000347145 0)
(0 -7.73746e-06 0)
(0 2.81207e-07 0)
(0 -0.000392011 0)
(0 2.11133e-06 0)
(0 -0.000156427 0)
(0 -0.000222026 0)
(0 2.24889e-06 0)
(0 -0.000172594 0)
(0 -4.34057e-05 0)
(0 -0.000398085 0)
(0 -0.000151091 0)
(0 -0.000361985 0)
(0 -0.000274573 0)
(0 -6.44468e-05 0)
(0 -2.19429e-06 0)
(0 -0.000209766 0)
(0 -8.40234e-05 0)
(0 -0.000187551 0)
(0 -0.00029616 0)
(0 -4.0322e-06 0)
(0 -2.94502e-05 0)
(0 -0.000354396 0)
(0 -0.000217385 0)
(0 -2.69401e-05 0)
(0 -3.30667e-05 0)
(0 -0.000221857 0)
(0 2.1942e-06 0)
(0 -0.000202067 0)
(0 -0.000383091 0)
(0 1.62514e-06 0)
(0 -0.000181152 0)
(0 2.14847e-06 0)
(0 1.90696e-06 0)
(0 -0.000435894 0)
(0 -0.000414214 0)
(0 -0.000266667 0)
(0 -0.000165711 0)
(0 -0.000297064 0)
(0 -2.72043e-06 0)
(0 -8.92856e-06 0)
(0 6.96885e-07 0)
(0 -6.57252e-05 0)
(0 -0.000297748 0)
(0 -6.92663e-05 0)
(0 -0.000109528 0)
(0 1.8842e-06 0)
(0 -7.7193e-05 0)
(0 -7.83314e-05 0)
(0 -0.000126201 0)
(0 8.12532e-07 0)
(0 -0.000300204 0)
(0 -0.000332611 0)
(0 -0.000302378 0)
(0 -8.27963e-05 0)
(0 -0.00035862 0)
(0 -0.000240125 0)
(0 -0.000454372 0)
(0 -0.000127899 0)
(0 -0.000127045 0)
(0 -0.000180367 0)
(0 -5.18793e-05 0)
(0 -3.71677e-05 0)
(0 2.11509e-06 0)
(0 -7.70285e-05 0)
(0 5.71304e-07 0)
(0 2.18219e-06 0)
(0 -0.000388307 0)
(0 -8.60162e-05 0)
(0 -7.27179e-06 0)
(0 -0.000375266 0)
(0 -0.000113157 0)
(0 -0.000263492 0)
(0 -2.46768e-05 0)
(0 -4.12391e-05 0)
(0 -0.000106607 0)
(0 -0.000343137 0)
(0 -0.000193818 0)
(0 -6.71148e-06 0)
(0 -3.2483e-07 0)
(0 1.06538e-06 0)
(0 -5.74787e-05 0)
(0 -0.000416107 0)
(0 -3.86601e-05 0)
(0 2.19527e-06 0)
(0 -5.21536e-06 0)
(0 -0.000118335 0)
(0 -0.00021961 0)
(0 -3.32809e-05 0)
(0 3.18572e-07 0)
(0 -3.2275e-05 0)
(0 -0.000193561 0)
(0 -0.000289874 0)
(0 1.70325e-06 0)
(0 -0.000371213 0)
(0 -9.5344e-07 0)
(0 -1.30789e-05 0)
(0 -0.000355693 0)
(0 1.2527e-06 0)
(0 -8.43222e-05 0)
(0 3.4789e-07 0)
(0 -0.00029936 0)
(0 1.91544e-06 0)
(0 -3.83456e-06 0)
(0 -0.000244187 0)
(0 5.98524e-08 0)
(0 -0.000367952 0)
(0 2.0179e-06 0)
(0 -0.00037571 0)
(0 -0.000344689 0)
(0 -0.000117084 0)
(0 -0.000404791 0)
(0 -4.17547e-06 0)
(0 -0.000357799 0)
(0 -0.000341919 0)
(0 -0.000156367 0)
(0 -0.000383401 0)
(0 -0.000291378 0)
(0 -1.48942e-05 0)
(0 -0.00012518 0)
(0 -0.000131315 0)
(0 -0.000195972 0)
(0 -0.000188537 0)
(0 2.18828e-06 0)
(0 -3.86404e-06 0)
(0 -0.000124978 0)
(0 -2.57797e-05 0)
(0 -0.000183584 0)
(0 -0.00017934 0)
(0 -0.000509794 0)
(0 -0.000301082 0)
(0 2.10048e-06 0)
(0 -0.000349673 0)
(0 -2.48351e-05 0)
(0 2.20956e-06 0)
(0 -6.92445e-07 0)
(0 -1.87455e-05 0)
(0 -0.000309537 0)
(0 -3.40893e-05 0)
(0 -0.000210322 0)
(0 -0.000107151 0)
(0 -2.92668e-05 0)
(0 -0.000203368 0)
(0 -0.000142786 0)
(0 -0.000232439 0)
(0 2.08676e-06 0)
(0 -7.3239e-05 0)
(0 2.19964e-06 0)
(0 -8.99885e-06 0)
(0 -1.03578e-07 0)
(0 -0.000376924 0)
(0 -0.000132845 0)
(0 2.19252e-06 0)
(0 -0.00036171 0)
(0 -1.43496e-06 0)
(0 -0.000350362 0)
(0 -7.91548e-06 0)
(0 -0.0003115 0)
(0 -1.37364e-05 0)
(0 1.92818e-06 0)
(0 -0.000265926 0)
(0 -8.06942e-05 0)
(0 -0.000366394 0)
(0 -3.7591e-05 0)
(0 -4.46806e-05 0)
(0 -1.9991e-05 0)
(0 1.7457e-06 0)
(0 -9.87606e-05 0)
(0 -4.07735e-05 0)
(0 -1.06964e-05 0)
(0 -3.56753e-05 0)
(0 -0.000209857 0)
(0 -0.000275241 0)
(0 -5.79634e-05 0)
(0 -0.000153545 0)
(0 -4.25989e-05 0)
(0 -0.000186935 0)
(0 -0.000188105 0)
(0 -0.000146423 0)
(0 -2.65319e-06 0)
(0 -1.84481e-05 0)
(0 -0.000250198 0)
(0 2.19758e-06 0)
(0 -0.000342893 0)
(0 1.46138e-07 0)
(0 -0.000384955 0)
(0 -0.000255384 0)
(0 -0.000366166 0)
(0 -0.000193825 0)
(0 -6.60364e-05 0)
(0 5.3633e-07 0)
(0 -0.000235575 0)
(0 -7.79044e-07 0)
(0 -1.13666e-05 0)
(0 -2.61992e-05 0)
(0 -2.50527e-05 0)
(0 2.22856e-06 0)
(0 -0.000137429 0)
(0 -2.61262e-05 0)
(0 2.11345e-06 0)
(0 3.40678e-07 0)
(0 1.40849e-06 0)
(0 -1.4663e-05 0)
(0 -4.26525e-07 0)
(0 -0.000214067 0)
(0 2.20414e-06 0)
(0 -0.000153818 0)
(0 -0.000258542 0)
(0 6.03724e-07 0)
(0 -3.13589e-05 0)
(0 1.59743e-06 0)
(0 -2.17883e-05 0)
(0 -1.87664e-05 0)
(0 -7.03015e-05 0)
(0 1.92362e-06 0)
(0 2.136e-06 0)
(0 -0.000145947 0)
(0 -2.1597e-05 0)
(0 -0.000168583 0)
(0 1.49886e-06 0)
(0 -0.000186194 0)
(0 -0.000381152 0)
(0 -0.000203787 0)
(0 -0.000359744 0)
(0 -3.17823e-05 0)
(0 1.40227e-06 0)
(0 1.11804e-06 0)
(0 2.16334e-06 0)
(0 -0.000139585 0)
(0 -0.000106548 0)
(0 -8.17639e-08 0)
(0 1.32801e-06 0)
(0 -0.00021715 0)
(0 -4.80034e-05 0)
(0 -0.000178175 0)
(0 2.28566e-06 0)
(0 -7.01973e-05 0)
(0 -0.00043629 0)
(0 -6.1559e-06 0)
(0 1.36266e-06 0)
(0 2.14188e-06 0)
(0 -4.96296e-05 0)
(0 -7.11139e-05 0)
(0 8.61165e-08 0)
(0 -0.000132722 0)
(0 -4.81208e-06 0)
(0 -0.00012334 0)
(0 -2.10507e-05 0)
(0 -6.76492e-05 0)
(0 -0.000129456 0)
(0 -0.000213553 0)
(0 -0.000410499 0)
(0 -8.64369e-05 0)
(0 -3.13997e-05 0)
(0 -8.55014e-05 0)
(0 -1.09111e-05 0)
(0 -5.36029e-06 0)
(0 -1.51975e-05 0)
(0 -6.93071e-05 0)
(0 -0.000308507 0)
(0 -0.000400536 0)
(0 -3.76938e-05 0)
(0 -0.000336838 0)
(0 -1.24723e-05 0)
(0 -2.85805e-05 0)
(0 -1.46833e-05 0)
(0 -2.28653e-05 0)
(0 1.65644e-07 0)
(0 -0.000300402 0)
(0 2.15861e-06 0)
(0 -9.98663e-05 0)
(0 -1.24731e-05 0)
(0 -3.43071e-05 0)
(0 -4.36933e-06 0)
(0 -0.000172983 0)
(0 -0.000341032 0)
(0 -1.2553e-05 0)
(0 -0.000370757 0)
(0 -0.000215794 0)
(0 -3.80908e-05 0)
(0 -3.7988e-06 0)
(0 -0.000338819 0)
(0 -7.92476e-05 0)
(0 -5.35551e-06 0)
(0 -0.000142101 0)
(0 -7.65916e-05 0)
(0 -5.68137e-06 0)
(0 -0.000235654 0)
(0 -2.95091e-05 0)
(0 -0.00023403 0)
(0 -0.000198071 0)
(0 -0.000305325 0)
(0 -1.38222e-06 0)
(0 -6.71218e-06 0)
(0 2.10316e-06 0)
(0 -0.000289414 0)
(0 -0.000480531 0)
(0 -0.000271871 0)
(0 -0.00035351 0)
(0 -0.000127544 0)
(0 -9.49047e-05 0)
(0 1.57663e-06 0)
(0 -0.000106071 0)
(0 -0.000137821 0)
(0 -1.52015e-07 0)
(0 -0.000119047 0)
(0 -2.86971e-05 0)
(0 -0.000223636 0)
(0 2.20546e-06 0)
(0 -0.000205866 0)
(0 -0.000112274 0)
(0 -5.33141e-06 0)
(0 2.17749e-06 0)
(0 -0.000360161 0)
(0 -0.00045526 0)
(0 -0.000419753 0)
(0 -0.000257183 0)
(0 -0.000164026 0)
(0 -0.000138227 0)
(0 -5.60908e-06 0)
(0 -0.000175037 0)
(0 -6.06126e-05 0)
(0 -0.000221012 0)
(0 -0.000228841 0)
(0 -1.5843e-05 0)
(0 2.09734e-06 0)
(0 -4.33336e-05 0)
(0 -0.000323012 0)
(0 -0.000371456 0)
(0 -5.85599e-05 0)
(0 -8.4916e-05 0)
(0 -7.35651e-05 0)
(0 -0.00037375 0)
(0 -0.000347186 0)
(0 2.20336e-06 0)
(0 -0.000151199 0)
(0 -6.6527e-05 0)
(0 -4.62704e-05 0)
(0 -6.67774e-06 0)
(0 -0.000344464 0)
(0 -1.30619e-05 0)
(0 -0.000200872 0)
(0 1.97091e-06 0)
(0 -3.01175e-05 0)
(0 -3.17775e-06 0)
(0 1.6244e-06 0)
(0 -7.53177e-05 0)
(0 -2.3305e-06 0)
(0 -3.76706e-05 0)
(0 -0.000300439 0)
(0 2.07849e-06 0)
(0 -5.43838e-05 0)
(0 -0.000377762 0)
(0 -0.000204421 0)
(0 -3.54117e-05 0)
(0 2.17823e-06 0)
(0 -0.000198418 0)
(0 -0.000503485 0)
(0 -0.000365696 0)
(0 -0.000355041 0)
(0 -0.000303259 0)
(0 -0.000208157 0)
(0 1.53224e-06 0)
(0 -3.1798e-05 0)
(0 -0.000134814 0)
(0 -0.000241002 0)
(0 -3.14402e-05 0)
(0 -2.69276e-05 0)
(0 -0.00025695 0)
(0 -6.55847e-05 0)
(0 -5.9128e-06 0)
(0 -0.000273085 0)
(0 -0.000107486 0)
(0 2.09065e-06 0)
(0 -5.57079e-05 0)
(0 -0.000309673 0)
(0 2.12449e-06 0)
(0 -0.000176701 0)
(0 -7.27396e-05 0)
(0 9.94599e-07 0)
(0 2.18591e-06 0)
(0 -0.000250105 0)
(0 -0.000178526 0)
(0 1.41078e-06 0)
(0 -6.46064e-05 0)
(0 -0.000113673 0)
(0 -0.000100585 0)
(0 -3.822e-05 0)
(0 -9.06652e-06 0)
(0 -1.38087e-05 0)
(0 -0.000419799 0)
(0 1.76105e-06 0)
(0 -0.000100568 0)
(0 -1.44582e-05 0)
(0 -0.000331323 0)
(0 -5.1136e-05 0)
(0 -0.000409735 0)
(0 -8.97625e-05 0)
(0 -8.93711e-05 0)
(0 -1.5429e-07 0)
(0 -0.000282654 0)
(0 -0.000351258 0)
(0 -2.09365e-05 0)
(0 -0.000339968 0)
(0 -0.000223818 0)
(0 -0.000323166 0)
(0 -6.62494e-05 0)
(0 -0.000358376 0)
(0 -8.81026e-05 0)
(0 -2.6732e-05 0)
(0 -4.78854e-05 0)
(0 -3.41682e-05 0)
(0 -0.000194098 0)
(0 -0.000279185 0)
(0 2.20278e-06 0)
(0 -8.50598e-05 0)
(0 -0.000306026 0)
(0 -6.39665e-05 0)
(0 2.20097e-06 0)
(0 -0.000366927 0)
(0 -0.000497379 0)
(0 -0.000325786 0)
(0 -6.18229e-06 0)
(0 -8.94528e-05 0)
(0 2.19284e-06 0)
(0 -0.000274238 0)
(0 -7.74605e-05 0)
(0 -0.000216683 0)
(0 -0.000192819 0)
(0 -1.35029e-05 0)
(0 -4.18174e-06 0)
(0 -0.000228887 0)
(0 -2.68237e-06 0)
(0 -0.000301128 0)
(0 -5.90833e-06 0)
(0 -0.000278304 0)
(0 -0.000120131 0)
(0 -0.000368406 0)
(0 -0.000235072 0)
(0 -7.84351e-06 0)
(0 2.2081e-06 0)
(0 -0.000193499 0)
(0 -6.2236e-05 0)
(0 -6.43122e-05 0)
(0 -0.000336203 0)
(0 2.19963e-06 0)
(0 2.20703e-06 0)
(0 -8.17409e-05 0)
(0 -0.000239853 0)
(0 -0.000274033 0)
(0 2.16527e-06 0)
(0 -0.00032304 0)
(0 2.17188e-06 0)
(0 -0.000413583 0)
(0 -0.000171285 0)
(0 -0.000230478 0)
(0 -7.97563e-05 0)
(0 -0.000246172 0)
(0 -2.14922e-06 0)
(0 1.85756e-06 0)
(0 2.16124e-06 0)
(0 -4.69915e-06 0)
(0 2.19864e-06 0)
(0 -0.000410168 0)
(0 -2.62313e-05 0)
(0 1.49272e-06 0)
(0 -6.35608e-06 0)
(0 -0.000195295 0)
(0 -0.000212506 0)
(0 -2.33871e-05 0)
(0 -0.00034672 0)
(0 2.0356e-06 0)
(0 -3.42632e-05 0)
(0 -1.52724e-05 0)
(0 -0.000162286 0)
(0 9.89135e-07 0)
(0 2.19885e-06 0)
(0 2.17019e-06 0)
(0 -3.98555e-05 0)
(0 -7.22772e-05 0)
(0 -4.26629e-05 0)
(0 2.07907e-06 0)
(0 -0.000382185 0)
(0 1.74792e-06 0)
(0 -8.95697e-06 0)
(0 -3.56367e-06 0)
(0 8.72014e-07 0)
(0 -7.96107e-07 0)
(0 -0.000152892 0)
(0 -0.000108137 0)
(0 -0.000165004 0)
(0 -0.000146227 0)
(0 2.06103e-06 0)
(0 2.2108e-06 0)
(0 -0.000205832 0)
(0 2.18294e-06 0)
(0 -0.000268553 0)
(0 -4.33268e-05 0)
(0 -7.01277e-07 0)
(0 -5.01982e-06 0)
(0 -6.48388e-06 0)
(0 -0.000423409 0)
(0 -7.08445e-05 0)
(0 -0.000126683 0)
(0 -0.000241124 0)
(0 -0.000306219 0)
(0 -6.0603e-05 0)
(0 -0.000185968 0)
(0 1.43448e-06 0)
(0 -4.63978e-05 0)
(0 -0.000429231 0)
(0 -8.60942e-06 0)
(0 -4.12088e-05 0)
(0 -2.69302e-05 0)
(0 -0.000172686 0)
(0 2.09887e-06 0)
(0 1.66444e-06 0)
(0 5.49369e-07 0)
(0 -7.94355e-05 0)
(0 -3.15374e-05 0)
(0 -0.000170826 0)
(0 -3.23543e-05 0)
(0 -0.000348547 0)
(0 6.84072e-07 0)
(0 -7.87924e-05 0)
(0 -0.000175978 0)
(0 -0.000375615 0)
(0 -0.000129975 0)
(0 2.15953e-06 0)
(0 -6.94547e-05 0)
(0 -0.000442526 0)
(0 1.55198e-06 0)
(0 -0.000406688 0)
(0 -5.85999e-05 0)
(0 -0.000382278 0)
(0 -0.000102879 0)
(0 -0.000468979 0)
(0 -0.000217623 0)
(0 2.17582e-06 0)
(0 -2.38549e-05 0)
(0 -4.60978e-06 0)
(0 2.19007e-06 0)
(0 -1.0224e-06 0)
(0 -0.000400135 0)
(0 -0.000309766 0)
(0 -7.13919e-05 0)
(0 -9.7975e-06 0)
(0 -0.000300076 0)
(0 -0.000255002 0)
(0 1.4615e-06 0)
(0 -0.000144234 0)
(0 -0.000168824 0)
(0 -6.81354e-05 0)
(0 -2.77699e-05 0)
(0 1.33578e-06 0)
(0 -0.000323573 0)
(0 -1.78626e-05 0)
(0 -0.000260859 0)
(0 -0.000205731 0)
(0 1.77366e-06 0)
(0 -1.45708e-05 0)
(0 -4.58089e-05 0)
(0 -0.000212186 0)
(0 -0.000330711 0)
(0 2.19264e-06 0)
(0 -3.91735e-06 0)
(0 -2.67986e-07 0)
(0 2.26122e-06 0)
(0 -0.000251603 0)
(0 -0.000348041 0)
(0 -0.000432639 0)
(0 2.205e-06 0)
(0 -9.46331e-05 0)
(0 -4.96548e-05 0)
(0 -0.000176495 0)
(0 -0.000208899 0)
(0 -0.000296299 0)
(0 -4.17975e-05 0)
(0 -0.000226652 0)
(0 -4.94059e-06 0)
(0 -0.000281677 0)
(0 -2.35335e-05 0)
(0 -3.75519e-05 0)
(0 -0.000208257 0)
(0 -0.000374157 0)
(0 -0.000227291 0)
(0 -2.0556e-05 0)
(0 2.15398e-06 0)
(0 -0.000111487 0)
(0 2.1974e-06 0)
(0 -0.000300161 0)
(0 -2.19569e-05 0)
(0 -0.00022581 0)
(0 -5.87309e-06 0)
(0 -0.000403556 0)
(0 -0.000407925 0)
(0 -0.000126092 0)
(0 -2.47055e-05 0)
(0 -3.00086e-05 0)
(0 -0.000253039 0)
(0 -3.61595e-05 0)
(0 -1.40861e-06 0)
(0 -2.81606e-06 0)
(0 -0.000201781 0)
(0 -2.89448e-05 0)
(0 1.9263e-06 0)
(0 -0.000159605 0)
(0 3.05465e-07 0)
(0 -1.2731e-05 0)
(0 -7.38939e-06 0)
(0 -0.000255491 0)
(0 -0.000185895 0)
(0 -8.84454e-05 0)
(0 -2.61497e-06 0)
(0 -0.000293916 0)
(0 -0.000135706 0)
(0 -0.000213143 0)
(0 -0.000216994 0)
(0 -0.000170815 0)
(0 -0.000253342 0)
(0 -0.000352482 0)
(0 -0.000509925 0)
(0 1.77862e-06 0)
(0 -7.20892e-05 0)
(0 -0.000147307 0)
(0 -1.67879e-05 0)
(0 -0.000269957 0)
(0 -0.00042842 0)
(0 -2.83421e-05 0)
(0 -4.48953e-06 0)
(0 -1.9115e-06 0)
(0 -1.54748e-05 0)
(0 -3.47386e-05 0)
(0 -5.95772e-05 0)
(0 2.01766e-06 0)
(0 -4.26937e-05 0)
(0 2.22026e-06 0)
(0 -6.26319e-06 0)
(0 -0.000209293 0)
(0 -0.000236438 0)
(0 -0.000164654 0)
(0 2.08759e-06 0)
(0 2.13621e-06 0)
(0 -1.3136e-05 0)
(0 -3.13414e-07 0)
(0 -0.000270028 0)
(0 -0.000255236 0)
(0 -9.66079e-05 0)
(0 -0.000201661 0)
(0 2.2034e-06 0)
(0 -0.00010267 0)
(0 -0.000236487 0)
(0 -1.30768e-05 0)
(0 1.17294e-06 0)
(0 -1.36589e-05 0)
(0 -0.000153498 0)
(0 -0.000133218 0)
(0 -8.48197e-06 0)
(0 -6.82584e-05 0)
(0 -0.000150611 0)
(0 1.58757e-06 0)
(0 -5.8905e-07 0)
(0 -0.000164055 0)
(0 -8.11839e-06 0)
(0 -1.77526e-05 0)
(0 -2.09112e-05 0)
(0 -2.96769e-06 0)
(0 -7.07118e-05 0)
(0 -0.000226231 0)
(0 -6.48875e-06 0)
(0 -0.000376928 0)
(0 -0.000119324 0)
(0 -6.94348e-05 0)
(0 2.20633e-06 0)
(0 -7.02008e-05 0)
(0 -2.8492e-05 0)
(0 -5.54747e-06 0)
(0 -0.000246417 0)
(0 2.18782e-06 0)
(0 2.19829e-06 0)
(0 -0.000303397 0)
(0 2.18084e-06 0)
(0 -3.63839e-05 0)
(0 -0.000256932 0)
(0 -0.000322655 0)
(0 -5.41712e-06 0)
(0 1.73888e-06 0)
(0 -9.18597e-05 0)
(0 -4.04961e-05 0)
(0 -0.000378955 0)
(0 1.54501e-07 0)
(0 -5.1024e-06 0)
(0 -4.75467e-05 0)
(0 -0.000260771 0)
(0 -0.000246074 0)
(0 -0.000240507 0)
(0 -2.28485e-05 0)
(0 -0.000135667 0)
(0 -2.07092e-05 0)
(0 -4.36385e-05 0)
(0 -9.63502e-05 0)
(0 1.73447e-06 0)
(0 -4.57306e-06 0)
(0 -0.000148602 0)
(0 -7.04981e-05 0)
(0 -0.000160904 0)
(0 1.59162e-06 0)
(0 -7.6326e-05 0)
(0 -0.000378797 0)
(0 -0.000252974 0)
(0 -0.000386542 0)
(0 -0.000139033 0)
(0 2.17413e-06 0)
(0 1.55169e-06 0)
(0 -3.85656e-06 0)
(0 -6.77823e-05 0)
(0 -0.000285885 0)
(0 1.11346e-06 0)
(0 -6.37662e-05 0)
(0 -0.000168696 0)
(0 2.11571e-06 0)
(0 -0.00026053 0)
(0 -1.47095e-05 0)
(0 2.21593e-06 0)
(0 -0.00026751 0)
(0 2.19396e-06 0)
(0 2.05601e-06 0)
(0 -5.66059e-06 0)
(0 2.19977e-06 0)
(0 -2.10064e-05 0)
(0 -0.000280021 0)
(0 -0.000143927 0)
(0 2.23255e-06 0)
(0 1.14869e-06 0)
(0 -0.000151395 0)
(0 2.1895e-06 0)
(0 -9.09014e-05 0)
(0 -0.000354352 0)
(0 -6.55179e-05 0)
(0 -0.000206853 0)
(0 -7.20248e-05 0)
(0 -9.57316e-05 0)
(0 1.44052e-06 0)
(0 2.20116e-06 0)
(0 1.17656e-06 0)
(0 -3.19667e-05 0)
(0 -2.63146e-05 0)
(0 -1.00446e-05 0)
(0 2.19199e-06 0)
(0 -0.000255952 0)
(0 2.21222e-06 0)
(0 -2.10429e-05 0)
(0 -8.54211e-05 0)
(0 -8.02285e-05 0)
(0 -5.70083e-05 0)
(0 -0.000195462 0)
(0 -3.39131e-05 0)
(0 2.19475e-06 0)
(0 -0.000262369 0)
(0 -0.000266585 0)
(0 2.17799e-06 0)
(0 -6.39348e-06 0)
(0 -7.40167e-05 0)
(0 -7.41278e-05 0)
(0 -2.51629e-05 0)
(0 -0.000419657 0)
(0 -4.20809e-05 0)
(0 -2.99063e-05 0)
(0 5.49077e-07 0)
(0 -0.000159928 0)
(0 -0.000250621 0)
(0 -2.51925e-05 0)
(0 2.1893e-06 0)
(0 -2.2152e-05 0)
(0 -0.00019203 0)
(0 1.26578e-06 0)
(0 -0.000218657 0)
(0 -0.000273121 0)
(0 -0.000388745 0)
(0 -0.00015816 0)
(0 -0.000269729 0)
(0 -0.000191593 0)
(0 7.07243e-07 0)
(0 -0.000101128 0)
(0 -6.2841e-05 0)
(0 2.05018e-06 0)
(0 -8.5303e-05 0)
(0 -2.77429e-06 0)
(0 -3.37684e-07 0)
(0 -4.18871e-06 0)
(0 -2.58154e-05 0)
(0 -0.000324097 0)
(0 -9.74548e-05 0)
(0 -0.000226288 0)
(0 -0.00014828 0)
(0 -2.7151e-06 0)
(0 -0.000284786 0)
(0 -5.65892e-07 0)
(0 -7.42342e-05 0)
(0 -1.92108e-05 0)
(0 -0.000399222 0)
(0 1.39616e-06 0)
(0 -2.95271e-05 0)
(0 2.1366e-06 0)
(0 -3.57857e-05 0)
(0 2.16967e-06 0)
(0 -0.000161654 0)
(0 -2.26064e-05 0)
(0 -5.77765e-06 0)
(0 -4.75825e-05 0)
(0 -0.000190406 0)
(0 9.59296e-07 0)
(0 -4.01889e-05 0)
(0 1.11226e-06 0)
(0 -0.000298501 0)
(0 -2.65367e-05 0)
(0 -0.000410746 0)
(0 2.13575e-06 0)
(0 8.38651e-07 0)
(0 -1.41008e-05 0)
(0 -0.000402283 0)
(0 -0.000418101 0)
(0 -2.18057e-05 0)
(0 2.19887e-06 0)
(0 -0.000123913 0)
(0 -0.000461771 0)
(0 -4.69891e-05 0)
(0 -4.26227e-06 0)
(0 -5.99688e-05 0)
(0 -0.000186434 0)
(0 -2.00034e-06 0)
(0 -0.000248645 0)
(0 -9.45148e-05 0)
(0 -0.000385123 0)
(0 -0.000127072 0)
(0 -0.000378964 0)
(0 7.77277e-07 0)
(0 -0.000370528 0)
(0 -0.000373251 0)
(0 -5.01581e-06 0)
(0 2.21364e-06 0)
(0 -0.000176074 0)
(0 -1.61821e-05 0)
(0 -0.00022219 0)
(0 -1.92284e-06 0)
(0 -0.000270034 0)
(0 5.40996e-07 0)
(0 -0.000145993 0)
(0 -5.08705e-06 0)
(0 -0.00025751 0)
(0 -0.000159615 0)
(0 2.04572e-06 0)
(0 -0.000138202 0)
(0 2.11006e-06 0)
(0 -9.31205e-05 0)
(0 2.19845e-06 0)
(0 -0.000166219 0)
(0 -0.000345356 0)
(0 -0.000252881 0)
(0 -0.000100423 0)
(0 -7.76344e-05 0)
(0 -7.7834e-05 0)
(0 2.18123e-06 0)
(0 -0.000131911 0)
(0 -9.782e-05 0)
(0 -1.37125e-05 0)
(0 -4.73256e-05 0)
(0 -0.000205073 0)
(0 -8.00763e-05 0)
(0 -7.98244e-06 0)
(0 2.20453e-06 0)
(0 -0.000362017 0)
(0 1.72258e-06 0)
(0 -0.000226039 0)
(0 -1.23986e-05 0)
(0 2.12474e-06 0)
(0 -7.48056e-05 0)
(0 -0.000497459 0)
(0 -0.000260478 0)
(0 -3.33121e-05 0)
(0 8.09428e-07 0)
(0 -9.19373e-05 0)
(0 -6.09544e-05 0)
(0 -0.000334581 0)
(0 -6.31095e-05 0)
(0 -0.000320853 0)
(0 1.91431e-06 0)
(0 2.00461e-06 0)
(0 2.19851e-06 0)
(0 -0.000288672 0)
(0 -9.87411e-05 0)
(0 1.52688e-06 0)
(0 -0.000206628 0)
(0 -6.92393e-06 0)
(0 -0.000239085 0)
(0 9.19523e-07 0)
(0 -2.06329e-05 0)
(0 -0.000466257 0)
(0 -1.23224e-05 0)
(0 9.81001e-07 0)
(0 -0.000359314 0)
(0 -9.84753e-05 0)
(0 -0.000385904 0)
(0 -1.64842e-05 0)
(0 8.33476e-07 0)
(0 -7.08446e-06 0)
(0 1.62129e-06 0)
(0 -0.000237697 0)
(0 -0.000224671 0)
(0 2.05372e-06 0)
(0 -0.000186942 0)
(0 -1.61173e-05 0)
(0 -5.25169e-05 0)
(0 -0.000130045 0)
(0 -0.000390563 0)
(0 1.19487e-06 0)
(0 -0.000112707 0)
(0 1.29116e-06 0)
(0 -0.000385207 0)
(0 -3.64311e-06 0)
(0 -0.000144917 0)
(0 1.41613e-06 0)
(0 -8.09958e-05 0)
(0 -0.000100502 0)
(0 -9.58164e-05 0)
(0 2.00204e-06 0)
(0 -0.000312188 0)
(0 -3.92362e-05 0)
(0 4.28378e-07 0)
(0 -5.57116e-06 0)
(0 2.175e-06 0)
(0 1.78951e-06 0)
(0 -0.000178983 0)
(0 -0.000435434 0)
(0 -0.000281398 0)
(0 -7.31401e-06 0)
(0 -0.000313498 0)
(0 -1.78329e-05 0)
(0 -5.14572e-06 0)
(0 -9.78277e-05 0)
(0 -1.59482e-05 0)
(0 -0.000261337 0)
(0 -0.000271453 0)
(0 -4.60911e-05 0)
(0 -0.00024434 0)
(0 2.18913e-06 0)
(0 -7.91699e-06 0)
(0 6.12367e-07 0)
(0 -1.69962e-05 0)
(0 -0.000138436 0)
(0 2.19451e-06 0)
(0 -0.000118533 0)
(0 -0.000119303 0)
(0 -0.000214642 0)
(0 -4.87018e-05 0)
(0 -8.77759e-06 0)
(0 -0.00041995 0)
(0 -0.000237063 0)
(0 -8.77101e-05 0)
(0 -0.000255605 0)
(0 -2.59619e-05 0)
(0 -6.45086e-06 0)
(0 2.17766e-06 0)
(0 -1.25477e-05 0)
(0 -0.000200813 0)
(0 -4.57416e-06 0)
(0 -0.000259956 0)
(0 -0.000349688 0)
(0 -0.000183133 0)
(0 1.05266e-06 0)
(0 -4.5868e-06 0)
(0 -3.07988e-05 0)
(0 -5.20636e-06 0)
(0 2.53134e-07 0)
(0 -1.72386e-05 0)
(0 3.38159e-08 0)
(0 -0.000238003 0)
(0 -4.60754e-05 0)
(0 2.15113e-06 0)
(0 -0.000237244 0)
(0 1.18447e-06 0)
(0 -0.000304925 0)
(0 -0.000301065 0)
(0 -2.69588e-05 0)
(0 1.44817e-06 0)
(0 -0.000253876 0)
(0 -1.23668e-05 0)
(0 1.80415e-06 0)
(0 -2.23299e-06 0)
(0 -0.000159084 0)
(0 -7.54785e-05 0)
(0 -0.000120146 0)
(0 -0.000104504 0)
(0 1.27942e-07 0)
(0 -0.000187175 0)
(0 -1.64854e-05 0)
(0 2.16065e-06 0)
(0 -0.000137542 0)
(0 -0.000280253 0)
(0 -0.000283083 0)
(0 1.74956e-06 0)
(0 -0.00039297 0)
(0 -0.000500862 0)
(0 -6.68568e-06 0)
(0 -0.000162417 0)
(0 -0.00032977 0)
(0 -3.35303e-06 0)
(0 -0.000127236 0)
(0 -5.07121e-06 0)
(0 -5.02642e-06 0)
(0 2.19612e-06 0)
(0 1.80591e-06 0)
(0 -0.000439864 0)
(0 -0.000355728 0)
(0 -0.000260726 0)
(0 -0.000177867 0)
(0 -3.01646e-06 0)
(0 -0.000179703 0)
(0 1.90173e-06 0)
(0 -0.000115694 0)
(0 2.13068e-06 0)
(0 -0.000112437 0)
(0 -0.000240835 0)
(0 -0.000170227 0)
(0 -0.000220641 0)
(0 -3.57362e-05 0)
(0 -0.00023546 0)
(0 -0.000389087 0)
(0 -9.7332e-06 0)
(0 -0.000299553 0)
(0 -0.000119137 0)
(0 -0.000159836 0)
(0 2.20167e-06 0)
(0 -0.000118593 0)
(0 -0.000431967 0)
(0 -0.000367861 0)
(0 -4.48507e-05 0)
(0 -0.000262009 0)
(0 -0.000174037 0)
(0 -0.000322361 0)
(0 -0.000184484 0)
(0 -0.000365073 0)
(0 -0.000274297 0)
(0 -0.000104439 0)
(0 -3.9635e-05 0)
(0 -8.67542e-05 0)
(0 2.1306e-06 0)
(0 2.1651e-06 0)
(0 2.13643e-06 0)
(0 -0.000276194 0)
(0 -0.00014605 0)
(0 -0.000424843 0)
(0 -0.000304798 0)
(0 -0.000426861 0)
(0 -0.00026581 0)
(0 -0.00010812 0)
(0 -0.000305414 0)
(0 -5.62114e-05 0)
(0 -0.000191862 0)
(0 -0.000407028 0)
(0 -0.000206146 0)
(0 2.07238e-06 0)
(0 -0.000349405 0)
(0 -0.000303393 0)
(0 2.12537e-06 0)
(0 -9.68241e-05 0)
(0 -0.000170253 0)
(0 2.10993e-06 0)
(0 2.19769e-06 0)
(0 -0.000257605 0)
(0 9.51862e-07 0)
(0 1.6303e-06 0)
(0 -0.000191965 0)
(0 -1.18549e-05 0)
(0 -0.000119861 0)
(0 -0.000211313 0)
(0 -5.21945e-05 0)
(0 -3.57814e-05 0)
(0 -0.000200356 0)
(0 -0.000134212 0)
(0 -9.29673e-05 0)
(0 -0.000268537 0)
(0 2.20392e-06 0)
(0 -0.000242399 0)
(0 -1.0277e-05 0)
(0 -0.000118815 0)
(0 -5.30264e-05 0)
(0 2.09064e-06 0)
(0 -8.64089e-05 0)
(0 -0.000254767 0)
(0 -9.78798e-05 0)
(0 -9.90479e-05 0)
(0 -3.8789e-05 0)
(0 1.15645e-06 0)
(0 2.18148e-06 0)
(0 7.54824e-07 0)
(0 -3.46122e-06 0)
(0 1.20156e-06 0)
(0 -1.91424e-05 0)
(0 -3.10409e-05 0)
(0 1.40598e-06 0)
(0 -3.97581e-06 0)
(0 -0.00012627 0)
(0 -4.05407e-05 0)
(0 -1.50933e-05 0)
(0 -0.000344222 0)
(0 -9.23126e-05 0)
(0 -0.000102782 0)
(0 -1.08374e-05 0)
(0 -0.000290794 0)
(0 -0.000397801 0)
(0 -1.29215e-05 0)
(0 -0.000264393 0)
(0 1.42677e-06 0)
(0 -0.000250615 0)
(0 2.19638e-06 0)
(0 -7.12149e-06 0)
(0 -2.84633e-05 0)
(0 -0.000422803 0)
(0 -0.000138884 0)
(0 -3.77079e-05 0)
(0 -2.24879e-05 0)
(0 -0.00015928 0)
(0 -1.63899e-05 0)
(0 -2.35156e-06 0)
(0 -1.71978e-05 0)
(0 -3.12116e-05 0)
(0 1.47778e-06 0)
(0 1.36205e-06 0)
(0 -0.000338289 0)
(0 -4.89159e-06 0)
(0 -1.21272e-05 0)
(0 1.30364e-06 0)
(0 -6.62506e-06 0)
(0 -0.000393958 0)
(0 -5.24709e-05 0)
(0 -8.39448e-05 0)
(0 -0.000166833 0)
(0 -0.000104853 0)
(0 -0.000229971 0)
(0 -7.49865e-05 0)
(0 1.05484e-06 0)
(0 -2.83432e-05 0)
(0 -0.00019512 0)
(0 -4.92191e-06 0)
(0 -3.76322e-06 0)
(0 2.18102e-06 0)
(0 1.3744e-06 0)
(0 -0.000103256 0)
(0 -0.000146968 0)
(0 -0.000464067 0)
(0 -0.000267768 0)
(0 -7.96594e-05 0)
(0 -7.11105e-06 0)
(0 2.14478e-06 0)
(0 -0.000298226 0)
(0 1.50466e-06 0)
(0 -1.87989e-05 0)
(0 2.7924e-07 0)
(0 -4.60784e-06 0)
(0 -3.8801e-05 0)
(0 -0.000143819 0)
(0 -0.000151415 0)
(0 2.1774e-06 0)
(0 2.17213e-06 0)
(0 -1.3416e-05 0)
(0 1.88061e-06 0)