/*--------------------------------*- C++ -*----------------------------------*\
| =========                 |                                                 |
| \\      /  F ield         | OpenFOAM: The Open Source CFD Toolbox           |
|  \\    /   O peration     | Version:  v2012                                 |
|   \\  /    A nd           | Website:  www.openfoam.com                      |
|    \\/     M anipulation  |                                                 |
\*---------------------------------------------------------------------------*/
FoamFile
{
    version     2.0;
    format      ascii;
    class       surfaceVectorField;
    location    "100";
    object      ddtCorrDdt0(Uf);
}
// * * * * * * * * * * * * * * * * * * * * * * * * * * * * * * * * * * * * * //

dimensions      [0 1 -2 0 0 0 0];


internalField   nonuniform List<vector> 
14470
(
(0.000349021 -0.000913663 -1.07533e-17)
(0.000356151 -0.000953561 -2.80185e-18)
(0.000323065 -0.000920805 6.19578e-18)
(0.0710549 -0.0040779 1.80996e-17)
(0.0671245 -0.00465321 1.34703e-17)
(7.85747e-05 0.000585745 -8.42661e-19)
(6.77027e-05 0.000587151 -3.40115e-18)
(7.38677e-05 0.000588095 -9.88304e-18)
(-0.00564258 -0.00690081 2.28483e-17)
(-0.00488074 -0.00851782 -1.07379e-17)
(-0.00536607 -0.00699005 2.72873e-17)
(5.27733e-06 -0.000176245 -4.27538e-20)
(5.35131e-06 -0.000179492 1.22192e-18)
(6.73136e-06 -0.000230068 3.63372e-18)
(0.00257551 0.0305689 1.43507e-18)
(0.00339005 0.031362 1.75232e-17)
(0.00366724 0.030154 4.3819e-18)
(0.0142824 0.0074583 -3.11865e-18)
(0.0137489 0.00817747 2.25119e-18)
(0.0148361 0.00855038 -6.04514e-18)
(0.0176219 -0.00130618 2.46637e-17)
(0.0192032 -0.000564609 6.5723e-17)
(0.0141215 -0.0015197 4.09168e-17)
(-0.000249228 0.000945588 4.56457e-19)
(-0.000261479 0.00102959 4.24718e-19)
(-0.000168758 0.000983209 -4.42986e-19)
(4.65106e-05 -0.000227021 -4.31264e-18)
(4.08662e-05 -0.000231654 -1.23667e-18)
(4.10821e-05 -0.000223057 8.92596e-19)
(4.86026e-05 -0.000231641 -7.26483e-21)
(5.53282e-05 -0.00022102 9.2018e-20)
(-2.84958e-05 0.000471529 1.02405e-18)
(-1.98721e-05 0.000464412 -2.80158e-19)
(-1.32245e-05 0.000480661 2.61449e-18)
(-0.0486464 0.0329541 3.67815e-18)
(-0.0428819 0.030156 -1.72947e-17)
(-0.0443402 0.0329977 4.4527e-17)
(-0.000516916 0.000248884 -1.79242e-18)
(-0.000506063 0.000199582 8.79446e-19)
(-0.00055897 0.000235595 -1.07262e-18)
(-0.00869835 -0.00210655 -6.10319e-19)
(-0.00936945 -0.00216066 4.6741e-18)
(-0.00889269 -0.00274574 -1.09017e-18)
(-0.000893964 0.0155906 -4.65675e-18)
(-0.000427886 0.0163756 -1.02902e-17)
(0.000124988 0.0155547 8.49634e-18)
(8.53175e-05 0.000598471 5.84989e-18)
(8.86363e-05 0.000596604 -1.08213e-18)
(9.0587e-05 0.000599964 1.77444e-18)
(0.00660855 -0.0115513 2.52987e-17)
(0.00520697 -0.012539 8.12314e-18)
(0.00486431 -0.0135589 1.69677e-18)
(-0.000141471 -0.000149792 9.85597e-20)
(-0.000127049 -0.000145042 4.23229e-20)
(-0.000137989 -0.000149896 -3.03962e-21)
(-0.000509797 -0.000208011 2.86597e-19)
(-0.000526317 -0.000215088 5.1335e-19)
(-0.000473146 -0.000213277 -1.75168e-19)
(-7.35163e-07 -6.38864e-05 -4.17472e-18)
(-5.84843e-08 -6.43038e-05 -1.02257e-19)
(-0.00866564 0.00150483 1.8373e-17)
(-0.00751084 0.0021794 2.32837e-17)
(-0.00697241 -0.000405805 -1.61981e-17)
(0.0200025 -0.00142835 2.76762e-17)
(0.0153095 -0.00185852 -2.78805e-17)
(-0.0533791 0.0339743 -1.12818e-17)
(-0.0553019 0.0352897 -1.72077e-17)
(0.00196925 -0.00236949 6.72916e-18)
(0.00189853 -0.00225194 -8.38533e-21)
(0.00178154 -0.00239819 6.8085e-18)
(9.78113e-05 -4.45098e-05 -2.60855e-19)
(9.93484e-05 -1.53179e-05 -3.4873e-19)
(0.000103971 -6.07565e-05 -1.63586e-19)
(3.73633e-06 -4.53904e-05 -2.49091e-19)
(4.32579e-06 -5.23848e-05 -9.79887e-19)
(8.10265e-06 -6.15641e-05 -1.86674e-18)
(-0.000147252 -0.000149649 6.43761e-20)
(-0.000159815 -0.000158391 5.86057e-20)
(0.00852071 0.0151119 9.89237e-18)
(0.0086124 0.0158612 -4.90833e-18)
(0.0094001 0.015297 -1.04117e-18)
(-0.00513343 0.000951094 2.13642e-17)
(-0.0057411 0.0010371 -3.5234e-17)
(-0.00772957 0.000498426 7.80359e-17)
(-0.00273049 0.0344071 -4.8024e-18)
(0.00166939 0.0324975 -1.79379e-17)
(0.00128801 0.0332706 -2.23328e-17)
(7.10607e-05 0.000374401 -3.27399e-18)
(8.15957e-05 0.000368418 -9.95651e-19)
(8.01147e-05 0.00042996 -8.54077e-19)
(8.37664e-05 0.000580124 -2.259e-18)
(8.02729e-05 0.000596376 -2.06659e-18)
(8.05495e-05 0.000588882 -2.89091e-18)
(-0.00014847 2.01717e-05 5.45818e-19)
(-0.000139935 2.25306e-05 5.8589e-19)
(-0.00011566 1.31702e-05 8.43581e-19)
(-0.00635988 0.00609739 2.79945e-18)
(-0.00587433 0.00607696 -3.72551e-18)
(-0.00617193 0.00660571 -5.32895e-18)
(-0.00686545 -0.00133297 -4.21312e-18)
(-0.0065416 -0.000985312 -1.61461e-18)
(-0.00632078 -0.00139933 -1.0924e-18)
(-0.000192006 -0.00254729 -1.01743e-17)
(-0.000248425 -0.0026699 2.05695e-18)
(-7.10745e-05 -0.00265694 -2.01284e-17)
(-0.00522705 0.00842626 4.21226e-18)
(-0.00568177 0.00637078 1.43117e-18)
(-0.00359143 0.00705833 -1.53082e-17)
(-4.41307e-05 0.00778154 1.08085e-17)
(-0.000231159 0.00734751 4.8539e-19)
(-0.000592031 0.00779707 -5.76508e-18)
(0.0084447 0.0141343 4.78103e-19)
(0.00764093 0.0147188 1.48082e-18)
(0.156956 0.00256573 1.42359e-17)
(0.15624 0.00222897 3.55126e-17)
(0.147949 0.00266577 1.09283e-17)
(0.0153187 0.000731671 -5.52318e-18)
(0.0177034 0.00238773 1.83828e-18)
(0.0119467 0.00166575 -1.63915e-17)
(1.52407e-06 -2.99776e-05 -6.3819e-19)
(3.37739e-06 -4.24239e-05 1.74232e-18)
(-3.20622e-06 0.000567908 3.00973e-18)
(-4.70197e-06 0.000573019 3.50891e-18)
(-9.18913e-06 0.000576194 2.92486e-19)
(1.30761e-05 0.000234763 -8.05804e-19)
(1.7087e-05 0.000185529 8.39869e-19)
(1.20513e-05 0.000194979 7.57522e-19)
(-0.00685936 0.000280233 7.71235e-18)
(-0.00662693 -0.000339389 3.07427e-17)
(-0.00075396 -6.6002e-05 7.89418e-17)
(3.35847e-06 -9.77794e-05 6.94304e-18)
(3.9835e-06 -5.23474e-05 2.64418e-18)
(4.89076e-06 -4.89277e-05 -2.43168e-18)
(-0.000951658 -0.000624058 -9.96433e-19)
(-0.000862189 -0.000655562 6.18815e-19)
(-0.000967315 -0.000713264 6.78417e-19)
(8.43203e-05 0.000598272 1.01279e-18)
(8.54974e-05 0.000597277 1.38292e-18)
(-0.00696977 0.00610871 6.93151e-18)
(-0.00657217 0.00563242 1.92497e-18)
(-0.000157368 2.72546e-05 6.40911e-19)
(-0.000156892 1.85169e-05 3.42425e-19)
(-0.00436186 0.0106327 -4.38868e-18)
(-0.00401266 0.0112273 -1.02564e-19)
(-0.00489004 0.0109589 -1.40425e-18)
(9.17889e-06 -0.00013876 -1.83454e-19)
(7.40753e-06 -0.000148167 3.03453e-19)
(0.00423301 -0.00315901 1.97382e-17)
(0.00422389 -0.00280241 2.04351e-19)
(0.00458501 -0.00299977 1.32281e-18)
(-0.00631191 -0.00681944 -3.10099e-18)
(-0.0070551 -0.0051148 2.94527e-18)
(-2.76645e-05 0.000441902 4.65722e-19)
(-1.60999e-05 0.000435798 -1.24746e-18)
(-3.03676e-05 0.000427457 -1.27472e-18)
(-0.015509 0.0260837 2.71642e-18)
(-0.0171278 0.0266805 5.22662e-19)
(-0.0167382 0.0250114 8.87921e-18)
(-0.00092802 -0.000559034 -5.19821e-19)
(-0.00102622 -0.000598105 -1.02894e-18)
(2.66014e-06 -5.57619e-05 1.19679e-18)
(0.000486825 -0.00310404 -8.77326e-18)
(0.000430286 -0.00323208 4.57728e-18)
(0.000336901 -0.00309025 1.79111e-17)
(0.0110386 -0.00837413 -1.88491e-18)
(0.0116552 -0.00794632 1.76289e-17)
(0.011709 -0.00908077 2.16147e-17)
(7.56981e-05 0.000603907 2.21244e-18)
(8.4199e-05 0.000601215 5.49931e-18)
(7.68427e-05 0.000596073 7.10068e-18)
(-0.014324 0.00549096 3.35246e-18)
(-0.0133836 0.00580676 -2.15259e-17)
(-0.0138278 0.00478658 3.84859e-18)
(-2.29669e-05 6.34622e-05 4.73428e-19)
(-3.30399e-05 5.93118e-05 -1.3237e-19)
(-3.27896e-05 7.16679e-05 -1.73996e-18)
(-0.000224778 0.000806247 -8.67159e-19)
(-0.000344176 0.000878344 4.1388e-19)
(-0.0201753 -0.000997981 3.96088e-18)
(-0.0210846 -0.000881288 -2.17581e-17)
(-0.0019465 0.00373271 8.95899e-19)
(-0.00176853 0.00352108 -1.11112e-18)
(-0.00168012 0.00379588 2.11853e-18)
(-0.00719699 -0.00171383 -3.64512e-18)
(-0.00744112 -0.00215722 1.44773e-18)
(-0.00687682 -0.0021867 -5.35463e-20)
(0.0308633 0.00376873 -1.37432e-17)
(0.035505 0.00670624 -6.69576e-17)
(0.0371586 0.00464036 -4.98278e-18)
(0.000159734 -0.000124862 6.1477e-19)
(0.000159137 -0.000172307 1.41983e-19)
(0.000143975 -0.000101515 -1.20926e-18)
(-0.000760121 -0.011875 -1.90604e-17)
(-0.000910523 -0.0123098 -2.72205e-17)
(-0.00051372 -0.0122779 -3.85993e-18)
(0.0116941 -0.000334522 -3.62581e-18)
(0.0159031 0.000339537 -2.33188e-17)
(0.0120087 0.000615466 9.15314e-18)
(-0.00513791 0.0946455 5.58834e-18)
(0.00219284 0.101073 -4.46094e-19)
(0.00345702 0.0926152 -1.37541e-17)
(0.0557121 0.0169505 1.44015e-17)
(0.0469022 0.0174 2.14797e-17)
(0.0552471 0.0201888 -1.23663e-18)
(4.57492e-06 -0.000101022 2.75737e-19)
(2.85179e-06 -0.000111594 1.96636e-18)
(1.13718e-05 -0.000133047 1.40084e-18)
(0.00403131 -0.00701536 2.41286e-17)
(0.00444056 -0.00670157 -3.40546e-17)
(0.00389862 -0.00666471 -3.21218e-17)
(0.141181 0.00309474 -1.52057e-17)
(0.131023 0.00302289 -1.05702e-17)
(0.129898 0.0020739 6.71864e-18)
(6.22083e-05 0.000518143 1.26957e-18)
(5.36245e-05 0.000529943 -1.21767e-18)
(6.22246e-05 0.00050387 -7.6577e-18)
(4.89581e-06 -0.000162278 -8.52733e-19)
(4.82991e-06 -0.00015677 3.01682e-19)
(1.63899e-06 -0.000109547 -1.87631e-18)
(0.00412311 -0.00731604 -8.50395e-18)
(0.00379893 -0.00711375 2.13838e-17)
(0.00795639 -0.0106359 1.63534e-17)
(0.0082594 -0.00963215 -1.685e-17)
(-0.00129597 0.0148255 4.2069e-18)
(-0.00182284 0.015542 -9.90477e-18)
(0.00212759 -4.41807e-05 -9.6921e-19)
(0.00216404 0.000122461 5.61145e-18)
(0.00200213 8.55598e-05 1.38167e-18)
(-0.00743992 -0.00125117 1.09513e-18)
(0.0163286 0.0235567 -1.43824e-17)
(0.016321 0.0223921 1.24613e-17)
(0.0149552 0.022891 1.05843e-17)
(4.15601e-06 -0.000171218 4.84353e-19)
(8.06227e-06 -0.000211925 -6.79185e-19)
(-0.0269664 0.0167475 -6.93219e-18)
(-0.0258621 0.0151646 -1.53994e-18)
(-0.0279657 0.0148063 -1.59791e-17)
(-0.00476903 0.0104583 1.71768e-17)
(-0.00689963 0.00969893 5.56674e-18)
(0.0103362 -0.00808268 -7.76785e-18)
(0.0102938 -0.00928804 -3.97761e-18)
(-0.011523 0.00232518 8.87222e-18)
(-0.0098673 0.000627036 1.11761e-18)
(-0.0102968 0.000312141 4.47954e-19)
(0.0195846 0.0289974 2.92774e-17)
(0.01434 0.0297678 2.05045e-18)
(0.030309 0.0275263 2.0148e-17)
(0.0251377 0.0284247 2.0716e-17)
(0.0175834 0.0279363 -9.57719e-18)
(0.00468759 0.00841407 1.33545e-18)
(0.00516353 0.00888131 -4.94307e-18)
(0.00449955 0.00906903 -1.44761e-18)
(0.0129575 -0.00131502 -2.28331e-17)
(0.0189554 -5.1069e-05 4.28124e-18)
(7.92047e-05 0.000564439 -9.37508e-19)
(8.0761e-05 0.000559373 -3.1395e-18)
(7.64409e-05 0.000570343 1.37633e-19)
(0.0557966 0.0144937 -1.2989e-17)
(0.065626 0.0174014 8.21553e-18)
(0.00223991 0.0144077 1.80373e-19)
(0.00250273 0.0136545 3.55033e-18)
(0.00166355 0.0138801 4.49399e-18)
(0.000339653 0.00356295 -1.31209e-18)
(0.000351458 0.00376212 1.94673e-18)
(0.000569274 0.00364089 1.76974e-18)
(1.92616e-06 -0.0001203 -2.8365e-18)
(5.01708e-06 -0.000179181 -9.61766e-19)
(-0.0181471 0.00988015 -1.90508e-17)
(-0.0193839 0.0118658 2.92958e-17)
(-0.0205999 0.0117966 2.35586e-17)
(-0.00376716 0.0102076 -2.63493e-18)
(-0.00454388 0.0100948 -3.42481e-18)
(0.0101422 0.143415 -7.9534e-18)
(0.0109895 0.145364 -1.26185e-17)
(0.00861408 0.14496 -3.15799e-18)
(-4.71987e-06 0.000553432 -2.73708e-18)
(2.53544e-06 0.000552723 -6.05168e-19)
(0.0438601 0.035447 1.1009e-17)
(0.0359168 0.0345472 2.95199e-17)
(0.0390104 0.0323154 -1.64771e-17)
(0.11422 0.00197745 5.20565e-18)
(0.0958372 0.00208229 -1.98288e-18)
(0.0940053 0.00334092 -9.65676e-18)
(-0.00893402 0.0830179 8.27457e-18)
(-0.0170665 0.0895218 2.61052e-18)
(-0.000129411 0.000263554 2.22716e-19)
(-0.000124835 0.000280449 -1.66677e-18)
(-0.000109955 0.000277587 3.07019e-19)
(6.12722e-05 0.000525591 4.95279e-18)
(6.47506e-05 0.00049786 6.4484e-19)
(-2.59651e-06 -6.11204e-05 1.01508e-18)
(1.43601e-05 -0.000100279 -2.20542e-18)
(1.6112e-05 -9.63539e-05 1.92406e-18)
(1.95686e-05 -0.00010943 -3.06811e-18)
(-0.00925713 0.000910451 1.54278e-17)
(-0.0104266 0.00309503 4.1811e-18)
(-0.000807253 -0.0178715 -1.12193e-16)
(-0.00115363 -0.0176763 7.29105e-17)
(-0.000211272 -0.01756 -1.18663e-16)
(-0.01013 -0.000197432 2.23029e-17)
(-0.0102171 -6.76075e-05 2.51592e-17)
(-0.0117412 -0.000168191 -1.63425e-17)
(0.000170637 -6.20586e-05 4.03913e-18)
(0.000197516 -0.000128734 -1.86108e-18)
(8.18059e-05 -0.000179115 -5.19366e-18)
(8.98123e-05 -0.000143819 -1.06402e-18)
(8.1178e-05 -0.000132284 7.29715e-19)
(-0.00518127 -0.00466246 1.64682e-18)
(-0.00474061 -0.00487119 2.17036e-18)
(-0.00522405 -0.00530909 3.34753e-18)
(3.14053e-05 0.000181881 -1.39625e-19)
(3.55085e-05 0.000134744 -4.29338e-18)
(3.88639e-05 0.000181339 -5.06374e-18)
(-0.00687384 -0.00652233 -3.7544e-17)
(-0.00799361 -0.00479661 -1.94173e-17)
(-0.00713719 -0.00627476 -4.29641e-17)
(-1.81689e-05 0.000284198 -1.8469e-19)
(-7.30272e-06 0.000288266 -1.58345e-18)
(-2.25256e-05 0.000334025 -2.5457e-18)
(0.0311204 0.0364878 -1.94011e-18)
(0.0326429 0.0405432 -8.3764e-18)
(0.0255633 0.0373903 -1.50258e-17)
(-0.0281868 0.0184632 -6.20384e-18)
(-0.025868 0.0186637 2.86912e-18)
(0.0898286 0.0170725 -3.12794e-17)
(0.0775979 0.015781 1.35244e-17)
(0.0808776 0.0147877 -5.58061e-18)
(-0.00817779 0.0129639 -1.12488e-17)
(-0.00908871 0.0133329 -1.00944e-17)
(-0.00885979 0.0123376 -2.04564e-17)
(-0.00624685 -0.000580179 1.14471e-18)
(-0.00677428 -0.000506366 6.60921e-18)
(3.29099e-06 0.000318135 1.59448e-18)
(2.13824e-05 0.000221213 1.98203e-18)
(0.00167008 0.0159977 -7.15718e-18)
(0.00156448 0.0167502 3.09183e-18)
(0.00244342 0.0164279 -1.27599e-19)
(-0.0045678 0.000593286 -3.402e-17)
(-0.00369552 0.0013047 -2.80107e-17)
(-0.0463607 0.0342076 -3.62935e-18)
(-0.0547571 0.0346375 1.65182e-17)
(-0.0447801 0.035963 2.50075e-17)
(-0.0204737 0.0303255 -2.76223e-17)
(-0.047267 0.0277931 -3.4064e-17)
(-0.00448149 0.00197562 1.78135e-19)
(-0.00461436 0.00167268 1.19103e-18)
(-0.00429835 0.00174449 -3.38671e-18)
(-0.000159382 0.000177869 3.42991e-20)
(-0.000185 0.000189145 -5.05801e-19)
(-0.000194533 0.000177136 -7.89847e-19)
(0.000395172 -0.000811862 3.63997e-18)
(0.000434319 -0.000928082 -5.00245e-19)
(-0.00193406 0.00302183 4.55896e-19)
(-0.00171711 0.00286951 9.32588e-19)
(-0.00193392 0.00276927 -9.82047e-19)
(-0.00543048 0.00584991 -4.78759e-18)
(-0.00541925 0.00539202 -7.00562e-19)
(-0.00496098 0.00562084 -2.38282e-19)
(0.0176165 0.0136998 3.98619e-18)
(0.0175789 0.0125733 2.92838e-18)
(0.0187157 0.0131687 -5.39859e-18)
(0.021933 0.0375416 1.35902e-17)
(0.0409669 0.0325538 3.42744e-18)
(0.0056569 0.0419165 -1.01117e-17)
(-0.00571273 -0.0045367 5.22879e-18)
(-0.00512138 -0.00409865 -6.45945e-18)
(4.78306e-06 -9.45291e-05 5.43932e-20)
(1.64987e-06 -6.58043e-05 -1.17194e-18)
(-0.00154981 0.0179217 -3.2833e-18)
(-0.00185088 0.018531 -7.70857e-18)
(-0.000928204 0.0183192 -8.85868e-19)
(0.0122828 -0.00764507 6.9012e-18)
(0.0097802 -0.00905368 8.95041e-18)
(0.0120728 -0.0074011 -1.36614e-17)
(-0.00536635 0.00626446 3.27969e-18)
(0.000291659 -4.40778e-05 1.12895e-18)
(0.000315268 -7.18855e-05 -8.19986e-19)
(0.00029382 -9.55313e-06 -1.8171e-18)
(-0.0219236 0.0127157 6.93025e-18)
(-0.0235476 0.0123607 5.27758e-18)
(-0.0223632 0.0112014 9.30734e-19)
(-0.00643717 0.000976062 -3.65657e-17)
(-0.00636415 0.00173095 -2.48314e-17)
(-0.000735738 0.0016366 -1.14739e-17)
(0.0266452 -0.000248789 1.88746e-18)
(0.0256153 -0.00122047 -4.58534e-18)
(0.026918 -0.00202567 1.96006e-17)
(-3.96104e-05 0.00028674 -8.04286e-19)
(-1.92718e-05 0.0002337 -5.04807e-19)
(0.0561636 0.0144741 -5.03212e-17)
(0.0506035 0.0115228 -8.96403e-18)
(-0.00015429 0.000210511 -2.08254e-18)
(-0.000172446 0.000165048 2.58945e-18)
(-1.94276e-06 0.000292151 -3.2563e-18)
(0.000104587 9.57623e-05 -6.75123e-19)
(0.000105085 5.40263e-05 5.56048e-19)
(0.000104137 4.0874e-05 -2.86076e-18)
(0.0178822 -0.00522034 -2.8725e-17)
(0.0344805 -0.00865242 -2.12781e-18)
(0.022821 -0.00738992 5.86368e-17)
(0.00036856 0.00324234 -1.75794e-18)
(0.000104154 0.00338859 -5.12107e-19)
(9.52127e-05 -6.65284e-05 2.4844e-18)
(0.000100927 -3.0706e-05 -1.69743e-18)
(1.80163e-05 0.000351543 2.46064e-18)
(3.02476e-05 0.000354304 -1.51135e-18)
(2.56225e-05 0.000300657 -6.33922e-18)
(0.0263194 0.0250977 -2.71014e-17)
(0.0197917 0.026439 2.92033e-17)
(0.0232107 0.024363 2.71815e-17)
(-0.00106165 0.0171568 -5.95143e-18)
(7.28544e-05 0.0170085 1.95736e-18)
(7.216e-05 0.000600008 -5.93021e-18)
(7.04515e-05 0.00060149 -4.66678e-18)
(-0.00378927 0.0357809 1.14381e-17)
(-0.00209613 0.0354516 1.96361e-17)
(0.00016033 0.000133308 3.94651e-18)
(0.000156028 0.000182693 -2.33583e-18)
(0.000173529 0.000152688 -1.34406e-18)
(-0.0246286 0.0136454 1.22711e-17)
(-0.023937 0.0154284 1.09701e-17)
(-0.00468886 0.00223044 7.04763e-19)
(-0.00434795 0.00224292 8.00195e-18)
(-0.000540237 -0.000188614 4.35916e-20)
(-0.000486602 -0.000190867 1.98529e-19)
(0.00866495 -0.0160657 -7.76913e-17)
(0.00945594 -0.0163014 -4.28509e-17)
(0.00846336 -0.0169378 3.55463e-18)
(-0.0020589 9.20697e-05 1.39539e-18)
(-0.00205353 0.000217039 8.95624e-19)
(-0.00192706 0.000154104 1.53094e-18)
(0.148672 0.0032614 -2.67553e-17)
(0.148048 0.00365916 -1.23177e-17)
(0.0131307 0.145559 2.58697e-18)
(0.0149043 0.142581 2.79979e-17)
(0.0162617 0.146081 -6.13542e-17)
(-0.00231921 0.000536312 5.07176e-19)
(-0.00227198 0.000674271 4.18058e-19)
(-0.00214355 0.00056693 9.48654e-19)
(-0.000127952 0.000253571 7.01678e-19)
(-0.000122828 0.000243024 1.29957e-18)
(-0.000112784 0.000265671 1.28127e-19)
(3.3732e-05 -0.000225921 -8.94425e-19)
(2.42954e-05 -0.000210171 -1.30043e-18)
(2.5663e-05 -0.000221076 7.803e-20)
(0.000283045 -2.91026e-05 5.38902e-19)
(0.000309319 -9.35734e-05 -1.71289e-19)
(-0.00697218 -0.000955208 -8.39363e-18)
(-0.00637738 -0.00125733 2.42073e-17)
(-0.00751006 -0.000751673 3.6156e-17)
(0.0342681 -0.0117371 3.1147e-17)
(0.026285 -0.00958941 -5.67812e-18)
(0.0242184 -0.00968685 7.39767e-18)
(-0.00270566 0.0463406 -3.6976e-17)
(-0.00570505 0.0429804 1.11126e-17)
(-0.00182093 0.0423867 7.99138e-18)
(-3.13781e-05 0.000474704 8.33866e-19)
(-4.16174e-05 0.000460504 -1.89646e-18)
(0.00114857 0.029622 -5.57988e-18)
(0.00116018 0.0307148 4.21944e-18)
(0.017954 -0.00234482 -2.24277e-18)
(0.0178413 -0.00137873 6.23275e-19)
(0.0170892 -0.00197032 -2.50486e-18)
(0.0101851 -0.018357 1.95715e-17)
(0.00983189 -0.0196613 -1.45198e-17)
(0.00885788 -0.0183301 -2.08475e-17)
(5.73478e-05 0.000551302 -1.13543e-18)
(6.70917e-05 0.000552286 -4.23329e-18)
(6.85716e-05 0.000571016 2.65326e-18)
(-0.00249731 0.00363062 2.39138e-19)
(-0.00217177 0.00351006 2.56751e-18)
(-0.00245058 0.00329495 1.54633e-18)
(0.0539795 0.0347742 -2.43119e-17)
(0.0498096 0.0391336 -2.13268e-17)
(-0.0168361 0.000678697 -6.05075e-17)
(-0.0303415 0.018284 -5.78218e-18)
(-0.0292436 0.0205898 -5.83269e-18)
(2.01122e-05 0.000267321 -1.40988e-18)
(-3.16409e-06 0.000286796 -9.70586e-19)
(2.88144e-05 4.38418e-05 5.33086e-19)
(2.47391e-05 -4.36343e-06 -1.08049e-19)
(3.04302e-05 -2.78459e-06 -1.26528e-18)
(-0.000138919 0.000243111 9.13531e-19)
(0.10657 0.0172091 2.08191e-17)
(0.102414 0.0199023 -3.86418e-17)
(0.0111083 -0.00124107 -6.3131e-18)
(0.00764539 -0.000972911 -7.45329e-17)
(0.0418583 -0.010971 7.34751e-18)
(0.0407685 -0.0114913 1.42774e-17)
(0.0086758 0.140827 3.40944e-18)
(0.0121209 0.141072 -1.28059e-17)
(-0.00017481 0.000689794 -3.80023e-19)
(-0.00016868 0.000644016 -4.21709e-19)
(-0.000191182 0.000681167 8.07951e-19)
(0.000116179 0.0113234 2.8072e-17)
(-0.00111522 0.00411347 1.14453e-17)
(0.00821803 0.0111131 5.82973e-17)
(0.00239631 -0.0162279 2.49352e-17)
(0.00281365 -0.0160388 4.45546e-17)
(0.00288342 -0.0159635 3.64819e-17)
(0.000676713 -0.00275414 -5.20017e-19)
(0.000522728 -0.00276721 4.4684e-18)
(0.000567201 -0.00260598 2.03353e-17)
(-0.000956451 -0.00110771 1.93184e-19)
(-0.000970804 -0.000995016 1.81298e-18)
(-0.000854379 -0.00102978 -2.10168e-19)
(0.00156026 -0.000861039 8.18554e-18)
(0.0014324 -0.000833925 6.24445e-20)
(0.00145565 -0.000969023 1.66734e-18)
(-0.00111576 -0.0179661 -4.32072e-19)
(-0.00107695 -0.0187851 1.67809e-17)
(-0.000555509 -0.0181773 9.79315e-17)
(-0.000135259 -0.000144739 -6.85384e-19)
(-0.000134352 -0.000150659 -5.1527e-19)
(-0.000152139 -0.00015808 3.10202e-19)
(9.31939e-05 0.000585865 -4.30947e-18)
(9.58423e-05 0.000597982 -5.81366e-18)
(2.96722e-05 -0.000342889 -1.83302e-18)
(3.27931e-05 -0.000335529 -3.52841e-18)
(2.53827e-05 -0.000325262 1.16978e-19)
(0.000179641 -0.000232574 -5.04727e-19)
(0.000195775 -0.000304219 5.06864e-18)
(0.000208326 -0.000253299 -8.72062e-18)
(-0.000564738 -0.000276143 -3.91309e-19)
(-0.000568936 -0.000291812 -2.59329e-19)
(-0.000527988 -0.000282455 1.22535e-20)
(-0.00777689 0.0056993 -6.78574e-18)
(-0.00751588 0.0061842 -2.66437e-18)
(-0.00814358 0.0063142 5.37685e-19)
(-0.00612269 0.00192922 6.21227e-18)
(-0.00636027 0.00229794 3.3034e-18)
(-0.00651587 0.00182503 4.8513e-18)
(-0.0029645 -0.00926822 -1.69474e-17)
(-0.0032261 -0.0105834 -1.53593e-18)
(-0.00262722 -0.0113979 1.42154e-17)
(6.42541e-06 0.000143491 -5.16731e-18)
(1.86762e-05 0.000106553 -2.07983e-18)
(2.03921e-05 0.000157933 1.76738e-18)
(-0.000673797 0.00660213 1.56647e-18)
(-0.00087749 0.00632728 -8.92841e-18)
(-0.000491959 0.00622056 -1.03221e-17)
(-0.00233991 0.000407789 -1.19828e-18)
(-0.00249144 0.000514273 -5.28028e-19)
(0.000708769 -0.000712536 -3.97337e-18)
(0.000658327 -0.000716837 2.72176e-18)
(0.000669641 -0.000668796 5.38525e-18)
(0.0168164 -0.0145348 -8.22024e-19)
(0.0157781 -0.0155396 8.29203e-18)
(0.0176659 -0.0161294 -1.42568e-18)
(-0.00202991 0.0172434 4.56901e-18)
(0.0153293 -0.00598275 2.29935e-17)
(0.0123311 -0.00735651 3.42599e-17)
(-0.000145303 -0.000141752 -4.51481e-20)
(-0.000142457 -0.000136189 5.75486e-19)
(-0.000149898 -0.000137759 -1.21929e-21)
(0.0258294 0.00286735 -7.43197e-18)
(0.0276041 0.00176075 3.5414e-18)
(0.00208114 -0.00018558 -5.57523e-18)
(0.00224912 -0.000173708 -3.95644e-18)
(-0.0215617 -0.0124169 -2.56649e-18)
(-0.023405 -0.0131425 6.36138e-19)
(-0.0215896 -0.0143267 6.21243e-18)
(-0.000477264 0.000273928 7.94793e-19)
(-0.00053864 0.000296023 -2.3712e-19)
(0.0176891 0.0149918 -9.58673e-18)
(0.0166327 0.0142637 1.87326e-18)
(7.47673e-05 -0.000215023 3.22253e-19)
(7.40823e-05 -0.000213814 -9.73095e-19)
(0.00179284 -0.00847206 -2.57985e-17)
(0.00141046 -0.00794504 6.87055e-18)
(0.00100317 -0.00869688 2.57526e-17)
(0.00194549 0.0151412 -7.67047e-18)
(0.00280275 0.0148504 -2.12281e-18)
(-0.000559666 -0.000254656 -4.70566e-19)
(-0.000609377 -0.000266741 1.32313e-19)
(-0.00507049 -0.0205105 2.12163e-17)
(-0.00594766 -0.0195766 -4.91397e-17)
(-0.00650238 -0.020734 -2.26947e-17)
(-0.0026759 0.065834 -2.03037e-17)
(0.00206195 0.0698354 1.36236e-17)
(-0.00298997 0.0716189 7.89644e-17)
(0.00493555 0.00793801 -6.30119e-20)
(0.00437107 0.00812516 1.41865e-18)
(0.000108297 0.000476769 -1.45109e-18)
(0.000112379 0.000514369 3.66615e-19)
(0.00010944 0.000470329 2.44552e-19)
(-0.0105425 0.0158939 -3.1949e-18)
(-0.00935637 0.0152767 5.09337e-19)
(-0.0092076 0.0167373 -1.56041e-20)
(-0.0101364 0.097955 -7.93572e-18)
(-0.0102663 0.0996831 4.72507e-17)
(0.00382531 0.100947 3.43755e-17)
(0.00242448 -0.00813335 9.98166e-18)
(0.00200152 -0.00831292 -3.62423e-17)
(0.002188 -0.00781425 -2.50402e-18)
(0.00272743 -0.00854509 2.7126e-17)
(0.00273123 -0.00781813 7.48901e-18)
(-0.00641789 -0.00609699 3.02826e-19)
(-0.00699716 -0.00446881 -5.15597e-17)
(-0.00735117 -0.00488966 -2.82382e-17)
(-0.0381436 0.0288387 -7.81434e-18)
(-0.0407257 0.0275551 6.34223e-19)
(-0.0469288 0.0319585 4.17489e-18)
(-0.0212274 -0.0105411 -5.97832e-18)
(-0.0198253 -0.0118942 -1.40724e-18)
(-0.0153751 0.00549043 7.54355e-19)
(-0.014782 0.00643377 -4.73475e-18)
(0.00192292 -0.0155348 -3.84956e-17)
(0.000964662 -0.0162628 -9.80466e-17)
(-0.000363845 -0.000686566 8.84175e-19)
(-0.00033347 -0.00074972 -5.82758e-19)
(-0.000293297 -0.000691798 1.15373e-18)
(-0.00407724 0.0145837 -3.6927e-18)
(-0.00953821 -0.000257796 -1.96633e-17)
(-0.0101542 -0.00038369 -3.08633e-17)
(-0.000138886 -0.000141947 2.14793e-19)
(-0.000128108 -0.000136404 1.61605e-19)
(1.86057e-05 -0.000323729 8.48991e-19)
(1.77673e-05 -0.000328689 -1.16944e-18)
(1.38267e-05 -0.000298185 -4.17784e-18)
(0.158763 0.00267432 -5.81849e-17)
(0.158825 0.0040651 9.37752e-18)
(0.000176759 0.000271367 -1.38333e-18)
(0.000178752 0.00027713 1.88267e-20)
(0.000178182 0.000227614 1.17102e-18)
(1.1321e-05 -9.35443e-05 -2.86837e-19)
(1.51295e-05 -0.000108199 9.19735e-19)
(-0.0214216 0.028543 1.79058e-17)
(-0.0197289 0.0297828 -7.14347e-18)
(-0.0202648 0.0276068 1.95306e-18)
(-0.0179911 0.0307614 -2.35371e-18)
(-0.017054 0.0299233 3.61652e-18)
(-0.0156761 0.0318314 -1.45917e-17)
(-0.000113162 0.000776354 6.13844e-19)
(-0.00269311 0.00352212 -4.10976e-19)
(-0.00267854 0.00384574 -2.38587e-18)
(-0.000464899 0.0069463 8.86757e-18)
(-0.00095383 0.00691421 4.36633e-18)
(0.00697426 -0.000940955 4.33017e-18)
(0.00666262 -0.00128816 -4.21076e-19)
(0.00711052 -0.00133531 -8.63541e-18)
(-0.00349096 0.00341405 -3.76443e-18)
(-0.00341527 0.00316732 -1.77388e-18)
(-0.00367155 0.00320273 1.90096e-18)
(5.44041e-05 0.000554929 4.96259e-18)
(0.00821839 0.00611151 5.09579e-19)
(0.00777168 0.00640692 2.81187e-18)
(0.00765345 0.00582892 -4.3671e-19)
(-0.00178669 -0.0167806 1.00419e-17)
(-0.00128002 -0.0189199 -4.81267e-17)
(-0.00166021 -0.0175068 -3.45193e-17)
(-0.00054391 -0.00023213 3.92824e-19)
(-0.000507417 -0.00024515 6.99688e-21)
(-0.00254662 0.0555374 1.07242e-17)
(-0.00275476 0.050618 -1.97756e-17)
(-0.00727981 0.052013 4.70742e-18)
(3.14571e-06 -0.000173793 -3.9664e-18)
(1.08335e-05 -0.000137563 -3.38661e-18)
(6.69915e-05 -0.000216033 1.56128e-18)
(5.57247e-05 -0.000232113 1.52536e-18)
(6.63041e-05 -0.000229194 -2.22443e-19)
(-0.000104887 -2.77267e-05 1.60901e-18)
(-9.22884e-05 -3.31817e-05 -5.62098e-19)
(-8.27454e-05 -3.4444e-05 7.22233e-19)
(-0.00566763 -0.00834209 4.4118e-18)
(-1.9072e-05 0.000524795 -5.45618e-19)
(-1.77242e-05 0.000542221 -3.33042e-18)
(-1.35616e-05 0.000522911 1.91021e-18)
(0.0313675 0.0263142 -3.94504e-18)
(0.0420771 0.0233181 -2.59747e-17)
(0.0281064 0.00970856 -2.04309e-17)
(0.0346131 0.0103798 -3.72505e-17)
(0.0286786 0.0120214 -4.01377e-17)
(7.37224e-05 -4.09645e-05 2.39947e-18)
(7.54623e-05 -4.77461e-05 3.08328e-18)
(7.58308e-05 -1.73148e-05 4.87117e-18)
(6.77751e-05 -0.000244374 5.59619e-18)
(7.73792e-05 -0.000213599 6.35564e-18)
(0.074873 0.0221828 3.17903e-17)
(0.0492417 0.0266693 3.20622e-17)
(0.0336522 0.0288454 2.03811e-17)
(-0.000133376 -1.81982e-05 -1.22166e-18)
(-0.000122255 -1.90799e-05 1.04181e-18)
(1.24959e-05 -0.000234102 2.71668e-18)
(1.38742e-05 -0.000229775 2.37942e-18)
(1.75867e-05 -0.000263522 3.4051e-18)
(-8.46015e-05 -2.34473e-05 6.85726e-20)
(-9.33126e-05 -2.40286e-05 -3.98367e-19)
(-0.000113445 -1.2086e-05 -6.71099e-19)
(0.0258936 0.00830008 1.18343e-18)
(0.0234388 0.0084265 -9.26501e-19)
(0.00836716 -0.0152427 -1.03395e-17)
(0.00766346 -0.0158233 -3.54742e-17)
(0.00170505 -0.00197904 2.8356e-19)
(0.00161356 -0.001869 9.4099e-18)
(0.00178197 -0.00185462 -8.21447e-18)
(0.0188317 -0.0121948 -5.09223e-18)
(0.0182584 -0.0108302 -1.86146e-18)
(0.0198342 -0.010857 -2.221e-18)
(-0.0141589 0.0255311 -2.34532e-18)
(-0.0127945 0.0249292 4.84386e-18)
(-0.013948 0.0239896 1.02137e-17)
(0.012469 0.143969 3.59097e-17)
(-0.00594133 0.00669032 4.95156e-18)
(-0.00518321 0.00334518 -5.40009e-17)
(-0.00806303 0.00619923 -4.99453e-17)
(-0.00222923 0.000815579 -1.27242e-18)
(-0.00242358 0.000805918 -1.3894e-18)
(-0.00138765 -0.0197337 -2.07074e-17)
(-0.00119214 -0.0254298 2.69429e-17)
(-0.00903795 -0.0172241 -1.53199e-17)
(1.06139e-05 -0.000119794 -1.10828e-18)
(1.12161e-05 -0.000160611 -4.51647e-19)
(7.92452e-06 -0.000118395 5.88733e-19)
(-0.0119472 0.0986045 1.6416e-17)
(-0.0105256 0.110588 -1.58961e-17)
(0.0123721 -0.0329821 -4.37934e-18)
(0.00516907 -0.0323534 -8.55631e-18)
(0.0123467 -0.0363827 -2.15576e-17)
(-0.010754 0.0172255 3.8654e-17)
(-0.00857382 0.0187136 -3.97393e-17)
(-0.0110911 0.0198288 -1.54077e-17)
(0.0289207 0.0325732 -5.98245e-18)
(-0.0344145 0.0265814 1.5171e-17)
(-0.0360099 0.0299093 4.38234e-18)
(-0.0047123 0.00137906 4.39013e-18)
(-0.00495926 0.0016076 4.58106e-18)
(-0.0016376 0.0141273 1.52852e-17)
(-0.000809654 0.0141177 1.50294e-17)
(-0.00574488 0.00204686 -4.46449e-18)
(-0.00587802 0.00164937 -2.52447e-18)
(-0.000959115 -0.00121787 -1.21015e-18)
(-0.000901082 -0.00137081 -8.66167e-19)
(-0.000797333 -0.00124393 -1.09138e-18)
(-0.00272975 -3.97796e-05 -1.27123e-18)
(-0.00291435 -4.34756e-05 -4.15283e-18)
(-0.00278755 -0.000236431 -1.86918e-18)
(0.0179291 -0.0132082 -4.06683e-18)
(0.0162243 -0.0131158 -4.62673e-18)
(0.00214312 -0.00238633 2.32789e-18)
(0.00201382 -0.00257362 -4.0737e-18)
(6.58982e-05 -0.000271344 -1.33892e-18)
(6.0166e-05 -0.000272307 -1.95975e-18)
(1.4039e-06 -1.74072e-05 -4.04433e-18)
(1.71733e-07 -8.5759e-06 8.14474e-19)
(2.86989e-07 -9.35674e-06 -1.59864e-18)
(-0.000145044 -0.00014474 -8.31069e-19)
(-0.00015418 -0.00014664 -5.38035e-19)
(7.62195e-05 -2.89087e-05 1.93479e-19)
(8.52285e-05 -2.43484e-05 -3.2754e-20)
(7.17881e-05 -2.86782e-05 -2.33087e-20)
(-0.000576688 -0.000219411 -1.5964e-20)
(-0.0112441 0.00922955 -1.16895e-17)
(-0.00924098 0.00781983 -2.48679e-18)
(-0.0108435 0.00814554 1.76554e-17)
(-0.000121115 0.000310341 -9.70783e-19)
(-0.000132199 0.000284716 -3.12359e-18)
(-0.000118608 0.000304761 1.20316e-18)
(-0.000467041 0.000172826 8.2404e-19)
(-0.000434956 0.000148039 -1.44277e-19)
(-0.000429157 0.000192236 8.96068e-21)
(9.77517e-05 -2.23657e-05 -3.52237e-20)
(9.2601e-05 -2.27724e-05 -5.38053e-20)
(8.62017e-05 -3.21415e-05 -1.25979e-19)
(-2.63089e-05 0.000451834 -4.32442e-19)
(-3.75126e-05 0.0004426 3.8932e-18)
(0.000144087 -0.0217422 -4.8178e-18)
(-0.000235567 -0.0220021 1.87846e-17)
(-0.000139656 -0.02565 -2.09555e-17)
(0.0263877 0.00140788 -4.64078e-18)
(0.0275803 0.00134089 -6.06883e-17)
(-0.00245974 -0.00980427 -2.95367e-17)
(-0.00198971 -0.00964027 1.75475e-18)
(-0.00196515 -0.0102192 -4.3617e-17)
(0.000303373 -0.00147843 2.62332e-18)
(0.000385489 -0.00150522 2.56317e-18)
(0.000277167 -0.001563 -1.44835e-19)
(-0.0214407 0.0143322 3.98642e-18)
(-0.020526 0.0130712 -3.25242e-18)