/*--------------------------------*- C++ -*----------------------------------*\
| =========                 |                                                 |
| \\      /  F ield         | OpenFOAM: The Open Source CFD Toolbox           |
|  \\    /   O peration     | Version:  v2012                                 |
|   \\  /    A nd           | Website:  www.openfoam.com                      |
|    \\/     M anipulation  |                                                 |
\*---------------------------------------------------------------------------*/
FoamFile
{
    version     2.0;
    format      ascii;
    class       volVectorField;
    location    "100";
    object      U_0;
}
// * * * * * * * * * * * * * * * * * * * * * * * * * * * * * * * * * * * * * //

dimensions      [0 1 -1 0 0 0 0];


internalField   nonuniform List<vector> 
9793
(
(0.958663 -0.0125033 0)
(-0.237429 -0.0329804 -1.35511e-19)
(0.99105 -0.00566341 -2.31058e-20)
(-0.0378788 0.220511 -4.28759e-20)
(0.999939 -0.000172704 -8.00208e-21)
(1.18886 -0.103713 0)
(1.07093 -0.237228 -3.47574e-20)
(-0.0597046 0.0384045 0)
(1.01799 -0.0441605 0)
(-0.0707313 -0.0326031 3.19334e-21)
(0.999942 -0.00132674 0)
(0.999911 -0.0014406 0)
(1.00128 -0.0097595 0)
(-0.00357948 0.14469 -8.69986e-20)
(1.01975 -0.0270449 0)
(1.0867 -0.018226 4.50232e-21)
(1.1168 -0.110381 0)
(0.993129 -0.00832927 1.21156e-23)
(-0.0661418 0.036612 1.69524e-19)
(1.01994 -0.00584248 -2.1333e-22)
(1.02628 -0.0119545 0)
(0.999996 -6.47731e-05 0)
(-0.047755 0.266313 6.10469e-20)
(-0.0538153 0.0386637 7.46417e-20)
(0.0266577 0.136666 -1.38082e-20)
(0.912766 -0.0493122 1.53136e-20)
(0.999622 -0.00284621 -5.0874e-21)
(1.00002 -0.000411827 1.12318e-20)
(1.01974 -0.00619042 7.38155e-22)
(1.11951 -0.170067 -2.82562e-20)
(-0.212048 0.012493 -1.21008e-19)
(1.21406 -0.124427 -6.78055e-20)
(0.995762 -0.00235041 0)
(0.996 -0.00880368 1.23889e-20)
(1.0056 -0.000622787 -4.68245e-21)
(1.08405 -0.0583813 -2.03772e-20)
(1.07613 -0.0211554 -1.47274e-20)
(0.912547 0.0124194 -9.33708e-21)
(-0.140674 0.136566 -1.11976e-19)
(1.06622 -0.0946394 -9.36486e-21)
(1.11198 -0.166392 4.17265e-20)
(0.665424 -0.00380638 -5.75919e-20)
(-0.0504576 0.030745 -6.22375e-20)
(1.00001 -0.000299025 -1.4726e-20)
(0.991765 0.00122349 3.09714e-21)
(0.996317 0.00167909 3.98706e-21)
(-0.145486 0.023867 1.80516e-19)
(1 -0.000208019 8.74593e-21)
(1.03713 -0.0105821 -4.09343e-21)
(0.992941 -0.00773402 2.11143e-20)
(1.08533 -0.0556421 1.61353e-20)
(1.00607 -0.000776925 5.16179e-21)
(1.09773 -0.0810567 0)
(0.999981 -0.000393085 6.21626e-23)
(0.888185 -0.107525 2.47217e-20)
(-0.0447933 0.213076 2.70347e-20)
(1.00172 -0.00887676 0)
(1.15394 -0.0570935 4.55383e-20)
(1.03679 -0.0114691 -6.26775e-21)
(1.00001 -0.000110267 0)
(0.895724 -0.00550851 0)
(0.808968 -0.303 -2.10507e-20)
(0.992813 -0.00554679 0)
(1.10781 -0.0390262 -1.04669e-20)
(1.00281 -0.00136025 -5.67168e-21)
(1.01746 -0.0423776 0)
(-0.131536 0.012891 -1.19744e-19)
(1.05013 -0.0610809 0)
(1.07944 -0.0184238 -7.66767e-21)
(-0.0238389 0.0580558 6.69472e-20)
(0.976495 -0.00905947 1.56966e-20)
(0.582696 0.0594425 3.69385e-20)
(-0.0836247 0.0383435 -1.39039e-19)
(0.178536 0.0552018 0)
(0.00916148 0.076608 0)
(0.999978 -0.000564455 1.70694e-20)
(0.788725 -0.110906 1.2694e-19)
(0.562956 -0.00557843 0)
(0.993899 -0.00219557 0)
(0.999972 -0.000268786 9.29542e-21)
(0.773266 -0.11255 -9.88718e-20)
(-0.0691308 0.0362271 4.40995e-22)
(1.11435 -0.104878 0)
(0.970675 -0.069688 1.11835e-20)
(1.07895 -0.0207447 0)
(1.18505 -0.194784 6.50836e-20)
(0.99995 -0.000301008 -9.77837e-21)
(1.14 -0.0357377 4.38263e-20)
(-0.145328 0.140715 -5.62214e-20)
(0.79583 -0.284725 0)
(-0.0559272 0.232586 -5.18893e-20)
(1.26254 -0.224278 1.85675e-19)
(1.25902 -0.232641 6.65666e-21)
(1.06324 -0.139309 -1.48543e-20)
(-0.0482969 0.0265747 0)
(0.994414 -0.0125505 9.57983e-21)
(0.0412065 0.0713369 5.19488e-20)
(1.10472 -0.123708 5.91553e-20)
(1.03269 -0.0779002 -1.36138e-20)
(0.999967 -0.000174501 0)
(-0.101189 0.174689 2.98365e-20)
(1.09412 -0.080124 0)
(-0.15079 -0.00230564 -9.32281e-20)
(0.992342 0.00125011 8.53901e-21)
(-0.0786355 0.107363 8.14216e-20)
(0.30844 0.0273135 9.69221e-20)
(0.261817 0.0480739 1.90153e-20)
(1.00433 -0.00803354 0)
(0.993946 -0.00173771 0)
(0.999989 -0.000105148 0)
(1.00007 -0.000801577 0)
(-0.052952 0.252686 0)
(0.0937478 -0.0748368 -1.32414e-19)
(-0.220335 0.00721621 0)
(0.977313 -0.00969037 0)
(0.99875 -0.00131025 0)
(1.07468 -0.00443591 -9.9124e-21)
(0.996574 0.000741164 0)
(-0.0573025 0.195576 -1.08844e-19)
(0.995761 0.00219987 0)
(-0.127713 0.118743 0)
(1.14317 -0.0373128 -4.38067e-20)
(0.165592 0.0623145 -1.58695e-20)
(1.11373 -0.0694342 -1.93663e-20)
(1.07547 -0.0235691 0)
(0.996007 0.00237623 4.8525e-21)
(1.11971 -0.122633 3.59173e-20)
(-0.196126 0.0138921 1.03665e-19)
(1.17675 -0.0260641 0)
(1.17019 -0.0225783 0)
(1.06395 -0.0381167 -1.51522e-20)
(1.00617 -0.0169754 -2.4289e-21)
(0.960358 -0.0138041 0)
(1.04616 -0.0544631 0)
(1.0783 -0.0581849 -1.45539e-20)
(1.13184 -0.246602 0)
(1.22998 -0.0778466 0)
(1.07519 -0.00661817 2.38365e-20)
(0.999998 -0.000430148 -1.74237e-20)
(1.13015 -0.104366 -2.67705e-20)
(-0.0651728 0.0325441 -1.01607e-19)
(1.08148 -0.0588901 -7.27027e-22)
(0.981507 -0.0191903 0)
(1.13222 -0.0387855 -9.18444e-21)
(-0.135238 0.0239759 0)
(1.07416 -0.423371 -6.81175e-20)
(0.996126 0.0030032 -2.00603e-20)
(0.0333765 0.0732322 -9.76718e-20)
(1.0058 -0.0173632 8.90638e-21)
(0.995895 0.00281821 1.91299e-20)
(0.998636 -0.0029229 -5.43057e-21)
(0.150796 -0.0541704 2.17196e-19)
(1.03118 -0.0747935 6.21511e-21)
(0.999549 -0.00281572 6.23072e-21)
(0.984286 -0.00148581 -1.06695e-20)
(1.25956 -0.257127 1.28202e-19)
(1.12236 -0.109962 0)
(0.992785 -0.00622812 1.00124e-20)
(1.23394 -0.125336 -8.94022e-20)
(0.982422 -0.0103403 -1.07592e-20)
(1.13777 -0.0386547 -4.58083e-20)
(1.06474 -0.0404919 0)
(1.02584 -0.0125351 2.97183e-22)
(0.567375 -0.383841 -9.03323e-20)
(1.04364 -0.0242439 -5.90812e-21)
(0.764691 -0.0398257 0)
(-0.0814424 -0.0350796 9.56256e-20)
(1.04519 -0.0293849 -1.51556e-20)
(1.00443 -0.00737177 -1.7945e-21)
(0.99994 -0.00106725 -8.42634e-21)
(0.980581 -0.018524 -1.31425e-20)
(-0.177965 -0.0029094 -2.06187e-19)
(0.397934 -0.203248 -2.16993e-20)
(-0.191872 0.153981 -1.39395e-19)
(1.00153 -0.0102964 0)
(1.18457 -0.100911 5.6508e-21)
(0.976238 -0.341688 -1.19534e-20)
(0.534836 -0.477982 9.80336e-20)
(0.99331 -0.00318399 8.90624e-23)
(1.05327 -0.0569178 7.04305e-21)
(-0.0492324 0.107596 0)
(-0.148599 0.0207681 -1.00017e-19)
(1.14576 -0.0355941 2.57728e-20)
(0.995968 0.00158698 -1.37242e-20)
(0.997295 0.00119416 -8.55899e-21)
(1.00461 -0.00784425 -4.5758e-22)
(0.232654 0.0636183 0)
(-0.10085 0.0358414 1.61626e-19)
(0.837582 -0.394054 1.61445e-20)
(-0.16715 0.0220072 1.04985e-19)
(1.01556 -0.039923 0)
(-0.135333 0.482615 7.56425e-20)
(0.39115 -0.112616 0)
(0.908587 -0.010752 2.43602e-21)
(1.0403 -0.0080525 5.44493e-21)
(0.953837 -0.0475624 -1.91937e-20)
(0.177384 0.134457 2.3186e-19)
(1.01709 -0.00609535 -1.07144e-21)
(0.992822 -0.0088313 -6.99088e-21)
(0.999681 -0.000544953 0)
(0.973826 -0.00927634 -3.05018e-20)
(1.02905 -0.0110989 -1.00344e-21)
(1.09032 -0.0528774 -1.9866e-20)
(1.07553 -0.037035 1.00321e-20)
(-0.0779615 0.120131 -4.44717e-20)
(0.980931 -0.000164729 -1.94418e-20)
(1.05921 -0.0866079 0)
(1.04688 -0.028348 0)
(0.964889 -0.0265491 0)
(0.770649 -0.514735 8.25234e-21)
(1.12517 -0.104133 -3.62723e-20)
(-0.0614724 0.0305168 0)
(1.01506 -0.00580744 3.04979e-21)
(-0.0404949 0.0566078 0)
(0.96624 -0.0692176 -5.72363e-21)
(1.12274 -0.00162036 4.42972e-20)
(1.01954 -0.0281379 -1.49312e-21)
(1.13615 -0.237551 2.48833e-20)
(0.998882 -0.00115863 -1.15625e-20)
(0.734534 -0.0282383 0)
(1.10988 -0.125312 -1.18216e-19)
(1.02883 -0.0116972 2.2793e-21)
(0.371218 0.493907 -6.87479e-20)
(-0.191758 0.148236 -5.89541e-20)
(1.05717 -0.137217 -1.55409e-20)
(0.99344 -0.0146723 0)
(1.1256 -0.0704297 -4.79674e-20)
(-0.134567 0.110231 1.81647e-19)
(0.747822 -0.0570127 1.22236e-19)
(0.744536 -0.0674059 -1.20906e-19)
(-0.084464 0.157041 -8.26251e-20)
(1.15238 -0.0278584 0)
(1.11978 -0.00331348 -3.98599e-20)
(1.11112 -0.0387457 6.24657e-22)
(0.399057 -0.0893196 -1.63457e-19)
(1.03299 -0.0052421 4.05289e-21)
(-0.202157 0.327843 0)
(-0.205195 0.00664801 0)
(1.01673 -0.00591353 0)
(0.999777 -0.000282219 0)
(0.745763 -0.00488886 0)
(0.985786 -0.0138452 -7.68388e-21)
(1.00005 -0.000744804 -5.38813e-21)
(1.15907 -0.0488867 0)
(1.16433 -0.0532596 -5.0805e-20)
(1.01563 -0.0418512 0)
(1.05557 -0.0565138 8.94909e-21)
(1.06244 -0.0884799 -1.05417e-20)
(0.925937 -0.163219 -1.14651e-21)
(1.06049 -0.0506113 1.8212e-20)
(0.993363 -0.00264726 -1.03966e-20)
(1.03503 -0.173061 0)
(-0.0364689 0.116552 -1.23266e-19)
(1.0278 -0.0116263 -2.16151e-22)
(-0.189951 0.154796 -1.13358e-19)
(0.99999 -0.000479663 7.86437e-21)
(0.999846 -0.00165474 0)
(1.01325 -0.00114183 0)
(-0.0479498 0.202736 -2.65688e-20)
(0.993342 0.00279121 -4.02754e-22)
(1.26956 -0.253952 -1.07144e-19)
(-0.0692595 0.0824794 8.536e-20)
(1.0004 -0.00243815 1.15411e-20)
(0.99903 -0.00122356 1.257e-20)
(1.24394 -0.174052 0)
(1.01319 -0.000731288 0)
(0.999901 -0.000536918 1.98895e-20)
(1.01399 -0.000672406 8.28335e-24)
(-0.0785091 0.0811203 0)
(0.570628 -0.349437 -1.97125e-20)
(0.926353 -0.0463771 2.8286e-20)
(0.862802 -0.476089 6.9413e-21)
(1.15183 -0.0632494 4.70388e-20)
(-0.130708 -0.00538576 -1.13587e-19)
(-0.0665714 0.319114 -8.68442e-20)
(1.04574 -0.0313982 5.21125e-21)
(-0.0672661 -0.0387648 2.22232e-21)
(0.999989 -0.000476553 0)
(-0.0936959 0.0933529 -1.90992e-19)
(0.374191 -1.1007 0)
(-0.157317 0.15365 2.39396e-20)
(-0.114615 0.113845 -4.10259e-20)
(1.15136 -0.0281083 8.14076e-22)
(1.06571 -0.0361306 3.22538e-20)
(1.10914 -0.10447 0)
(1.073 -0.0367566 -2.0537e-20)
(1.04178 -0.00660666 6.45996e-22)
(1.05184 -0.0235328 -3.97118e-21)
(0.797601 -0.486945 -6.98759e-21)
(0.908779 -0.0519685 -2.22823e-20)
(0.99914 -0.00108673 7.13092e-21)
(1 -9.97025e-05 0)
(1.01543 -0.00601354 0)
(1.01883 -0.000157706 4.98963e-22)
(1.0274 -0.0122055 0)
(-0.0739514 0.277298 -5.18167e-20)
(1.00436 -0.00928435 2.00114e-21)
(1.01757 -0.0263529 2.3552e-22)
(1.01866 -0.000233858 0)
(1.00165 -0.00932699 0)
(-0.0231824 0.071283 0)
(1.08795 -0.413446 4.27919e-20)
(0.68569 0.0971173 -9.23468e-20)
(0.943574 -0.00847938 0)
(1.13247 -0.0417864 1.12614e-20)
(1.01797 -0.000150783 2.05561e-22)
(0.513195 0.0384076 -4.16218e-20)
(0.0466076 -0.0222293 -1.6819e-19)
(0.992696 0.00187252 -1.35135e-20)
(-0.0427361 0.0776446 -1.26389e-20)
(1.10372 -0.0430558 1.99859e-20)
(0.991348 0.000737497 3.40105e-21)
(-0.115312 -0.0233935 1.60167e-19)
(0.394185 0.0498498 2.01686e-20)
(0.996075 -0.00245142 -1.10565e-21)
(1.03385 -0.179746 -1.0537e-20)
(0.358264 1.06508 -1.21687e-19)
(0.970611 -0.0249331 -2.61153e-20)
(0.831021 0.0373389 -1.56156e-20)
(1.01884 -0.0261223 -2.27936e-22)
(0.965623 -0.0221951 1.84645e-20)
(0.0345543 0.0620076 -2.63123e-20)
(0.878507 -0.159483 -7.19934e-21)
(0.996153 -0.00813584 -3.85295e-21)
(0.995462 0.000986594 1.03856e-20)
(0.946332 -0.0081344 -1.67618e-20)
(1.03248 -0.348039 -2.81823e-20)
(0.0939624 -0.160215 -4.93815e-21)
(0.991067 -0.00492556 2.75312e-20)
(1.00447 -0.0085061 5.02474e-22)
(1.03156 -0.0192234 9.02278e-22)
(-0.186746 -0.00232631 2.4426e-19)
(-0.0618106 -0.00824472 2.18205e-22)
(-0.0233694 -0.00739432 0)
(1.03186 -0.00618038 -1.48827e-22)
(0.878766 -0.171694 7.93277e-21)
(0.826889 0.0467971 2.99464e-20)
(0.810237 -0.675253 6.70302e-21)
(1.14455 -0.0704397 4.85858e-20)
(1.03406 -0.00254475 3.05881e-21)
(1.03594 -0.00528819 0)
(1.03067 -0.0195839 -6.15877e-22)
(1.10723 -0.0998058 0)
(0.985147 -0.036567 0)
(0.0118091 0.0122414 0)
(0.997923 -0.000666737 1.58815e-20)
(1.00845 -0.0168411 1.18524e-20)
(-0.210534 0.11592 0)
(-0.0817141 0.275852 8.70684e-20)
(-0.0607424 0.0619046 8.07914e-20)
(1.01855 -0.000152419 -5.90362e-22)
(-0.102815 0.17459 5.04475e-20)
(0.970643 -0.0801299 -2.25035e-20)
(0.22841 -0.608982 0)
(-0.00606164 0.0164341 0)
(-0.0781625 0.153145 1.81583e-19)
(0.983195 -0.0697871 1.57786e-20)
(1.06722 -0.0980997 0)
(1.22346 -0.0820026 0)
(-0.0604746 0.230445 -2.61878e-20)
(-0.051128 0.242591 6.07887e-20)
(0.900673 0.0312796 0)
(1.00002 -0.000457168 0)
(0.921587 -0.0455871 -3.21967e-20)
(1.0364 -0.00882107 0)
(1.00508 -0.00935429 -3.6768e-21)
(0.984885 -0.0346167 9.91544e-21)
(0.999688 -0.00330442 -7.67678e-21)
(1 -3.98515e-05 0)
(0.0577318 0.00649267 0)
(0.999928 -0.0012188 9.21182e-21)
(1.11693 -0.133923 6.939e-20)
(1.06957 -0.0879126 0)
(0.569566 0.0621812 5.50388e-20)
(1.03406 -0.00190454 0)
(0.972011 -0.073097 -1.09624e-20)
(-0.0202742 0.17967 4.57272e-20)
(0.356608 0.0112127 -1.4909e-19)
(0.00109185 0.138519 -6.65828e-20)
(1.14057 -0.0708976 0)
(1.00816 -0.0160172 -4.06867e-21)
(0.984931 -0.0725481 -1.67561e-20)
(0.991614 -0.00586476 1.39894e-20)
(1.14726 -0.325209 0)
(1.01591 -0.00181537 0)
(-0.0681482 0.0676627 -1.28171e-19)
(0.925184 -0.378525 5.49266e-21)
(1.06136 -0.242412 4.03706e-20)
(-0.0682881 -0.000659029 1.00927e-19)
(0.0374468 0.0493406 2.53449e-20)
(1.00033 -0.00194497 -2.11081e-21)
(0.994694 -0.0148525 8.72642e-21)
(1.18709 -0.0642254 0)
(1.15495 -0.313848 0)
(0.981428 0.000711967 -1.19636e-20)
(-0.0506968 0.0178283 7.93308e-20)
(1.00033 -0.00206223 0)
(0.999532 -0.000832513 0)
(0.506396 -0.799153 -4.83686e-20)
(1.01511 -0.00552732 -3.39655e-21)
(1.15506 -0.0607739 -7.30717e-20)
(1.03287 -0.00604963 0)
(-0.0282183 -0.0387283 0)
(0.998121 -0.000678574 -1.51485e-20)
(1.04462 -0.0231765 7.48046e-21)
(-0.211358 0.133046 4.8901e-20)
(0.606885 0.0587245 3.64945e-20)
(1.13174 -0.00931152 0)
(0.907635 -0.0151419 0)
(1.00055 -0.00283916 0)
(0.999367 -0.0216515 -5.85908e-21)
(0.120709 0.0656713 7.54734e-20)
(1.10026 -0.128455 -2.71262e-20)
(1.02769 -0.00746954 0)
(0.999543 -0.000106149 -1.15968e-20)
(0.879343 -0.105202 -4.87335e-22)
(0.832848 0.0652218 2.90792e-20)
(1.13161 -0.0064647 0)
(-0.138422 0.020673 -3.42319e-21)
(0.999604 -0.000480014 0)
(0.995593 -0.00914584 0)
(0.637034 -0.427901 1.02754e-19)
(1.00061 -0.00279924 0)
(-0.0429232 0.124711 1.53793e-19)
(0.579571 -0.473703 6.60832e-20)
(0.997012 0.0011565 -1.02076e-23)
(0.996316 -0.00302333 -1.0478e-21)
(1.05028 -0.0240701 0)
(1.0004 -0.00229459 3.79406e-21)
(1.03142 -0.0177393 4.76734e-21)
(-0.106896 0.171819 1.59953e-19)
(0.731187 -0.0424232 -6.24138e-20)
(1.17519 -0.159643 0)
(0.884417 0.0470089 3.51849e-20)
(1.06684 -0.01494 -1.0598e-20)
(1.11227 -0.0728109 0)
(0.916706 0.0127153 9.72578e-21)
(-0.062734 0.198416 1.26196e-19)
(0.899282 -0.00972017 1.20418e-20)
(0.999959 -0.000119086 1.69202e-20)
(1.05268 -0.0603737 0)
(1.09369 -0.387105 -3.68762e-20)
(0.978401 -0.0126075 1.6416e-20)
(0.98137 -0.0103036 4.52286e-22)
(0.974979 -0.00848406 -1.51987e-20)
(1.01561 -0.00176281 0)
(0.998073 -0.00630952 -3.50872e-21)
(1.01462 -0.0282333 -3.36263e-21)
(0.996389 0.000990383 9.31399e-21)
(1.00026 -0.00165016 -7.82244e-21)
(0.963914 -0.0475235 -1.08694e-20)
(1.07139 -0.039334 -1.1251e-20)
(1.1585 -0.0465143 0)
(1.01717 -0.00040172 0)
(0.214815 0.158509 -2.20141e-19)
(0.91496 -0.0387718 5.00426e-20)
(0.933969 -0.402869 1.40961e-21)
(-0.0759199 0.344578 -1.21585e-20)
(1.04174 -0.00772742 -6.03084e-21)
(-0.202787 0.115818 -3.87273e-20)
(1.07065 -0.226012 0)
(1.04011 -0.00913115 5.22874e-21)
(1.01583 -0.00246656 2.1087e-21)
(0.981922 -0.0216242 1.16385e-20)
(-0.104123 0.126271 -5.82067e-20)
(1.15268 -0.0670613 0)
(1.01603 -0.00231487 -1.39599e-21)
(0.998506 0.000198043 -7.17249e-21)
(0.99966 -0.000629505 0)
(0.710939 0.152979 6.20562e-20)
(0.967261 -0.363872 5.08401e-22)
(0.459553 0.00803003 0)
(1.00257 -0.00130924 -2.90897e-21)
(0.984524 -0.00066171 1.41799e-20)
(0.853692 -0.0251804 4.29934e-20)
(-0.156863 0.0211732 -1.02912e-19)
(-0.150649 0.155081 5.47709e-20)
(0.931807 -0.0198351 -1.81925e-20)
(1.06132 -0.0314527 1.3762e-22)
(-0.196686 0.152935 1.79419e-19)
(0.814139 -0.0425308 0)
(1.19288 -0.0408962 7.36011e-20)
(0.972458 -0.0302557 8.1243e-21)
(1.0073 -0.0169713 -4.74297e-21)
(-0.0872554 0.119014 -4.18528e-20)
(0.992904 -0.0116698 -1.07194e-20)
(0.997172 -0.338607 1.57267e-20)
(0.553028 0.055442 -4.2309e-20)
(1.02721 -0.0068999 3.52961e-22)
(0.602818 -0.338646 0)
(1.05675 -0.0807301 -2.60596e-20)
(-0.0856055 0.187821 -8.87915e-20)
(0.99975 -0.0210245 0)
(-0.0727676 0.0557956 0)
(1.19901 -0.149015 0)
(1.08426 -0.0193858 0)
(1.26274 -0.170784 0)
(0.993971 -0.0120638 -1.03367e-20)
(0.83799 -0.631662 2.33864e-20)
(0.997978 -0.000141362 6.6932e-21)
(0.995826 -0.0149374 -1.09704e-20)
(0.999956 -0.00102097 0)
(0.99341 -0.00696516 9.29847e-21)
(-0.0299139 0.0788751 0)
(0.994227 -0.0133828 -1.06563e-20)
(1.03515 -0.0122799 -1.45048e-21)
(0.945763 -0.0150475 3.65617e-20)
(1.03164 -0.00691024 1.41763e-22)
(1.0069 -0.0173916 -5.08998e-21)
(1.02041 -0.190148 7.55858e-21)
(0.976138 -0.0547909 -7.28107e-21)
(1.10678 -0.0427882 1.20096e-20)
(1.00124 -0.003517 5.24403e-21)
(1.00114 -0.00334677 4.31346e-21)
(-0.0256289 0.170135 4.04516e-20)
(0.644698 0.0628473 0)
(0.934651 -0.0194015 -1.38519e-20)
(-0.195613 0.153626 1.28637e-19)
(1.06892 -0.0388513 9.80788e-21)
(0.979299 -0.038094 1.14894e-20)
(0.993655 0.00321675 -1.6616e-21)
(1.03227 -0.0174338 -8.47839e-23)
(0.0489775 -0.0126167 8.20195e-20)
(1.03542 -0.0114179 3.30512e-22)
(1.00124 -0.000495309 -1.57526e-21)
(-0.191939 0.0183731 0)
(0.731876 -0.0154594 7.51234e-20)
(0.937133 -0.166265 1.38778e-20)
(1.00134 -0.00932547 0)
(0.999989 -0.000131731 -1.14579e-21)
(1.03468 -0.0359127 0)
(0.99994 -0.000711039 0)
(-0.170076 0.155604 0)
(0.968586 -0.0247952 1.93616e-20)
(-0.146566 0.0435398 9.62888e-21)
(1.07175 -0.0261539 0)
(0.311697 0.480674 0)
(0.999959 -0.000346181 1.00115e-20)
(-0.183847 0.0164915 -3.19462e-20)
(1.00904 -0.000403306 -7.24144e-22)
(1.04826 -0.359834 1.22196e-21)
(0.991968 -0.0106035 0)
(1.14376 -0.0214039 3.51897e-20)
(-0.0256755 0.117654 0)
(0.998201 -7.80117e-05 1.27329e-20)
(0.420624 0.0343843 1.68676e-20)
(0.988327 -0.0128766 4.57167e-22)
(1.00014 -0.000106697 1.01348e-20)
(1.02574 -0.0110962 0)
(0.0437741 0.0989572 -3.80095e-20)
(-0.0719132 0.128832 0)
(0.980949 -0.0206956 0)
(1.05968 -0.0828287 1.41457e-20)
(1.03606 -0.00969919 0)
(-0.185707 0.151037 -1.16076e-23)
(1.01765 -0.000493626 0)
(1.04133 -0.171404 -1.27268e-22)
(-0.0787715 0.0589452 0)
(0.910355 0.0162136 0)
(1.00168 -0.000903136 -3.32487e-21)
(0.798304 -0.124815 -3.42309e-20)
(1.00009 -0.000489129 -8.8981e-21)
(1.03637 -0.0362181 0)
(1.02983 -0.0214184 0)
(1.15526 -0.0445126 0)
(1.0028 -0.00375309 -4.8159e-22)
(-0.207145 0.14801 1.16997e-19)
(1.00099 -0.00325812 8.26339e-21)
(0.987694 -0.0391074 0)
(1.11559 -0.0326364 1.43598e-20)
(0.754212 -0.222581 -5.95889e-20)
(0.995334 -0.0043009 1.11438e-19)
(1.01697 -0.0251113 0)
(-0.172047 0.0143453 0)
(0.995119 -0.0153503 -1.06067e-20)
(0.983146 -0.381843 3.77856e-21)
(0.985425 -0.0063428 0)
(1.04645 -0.0264762 0)
(0.993217 -0.0122722 7.56328e-21)
(1.00092 -0.00330163 -8.4375e-21)
(0.999964 -0.000236325 1.15544e-21)
(0.978135 -0.399877 -2.20345e-20)
(1.11963 -0.00652234 2.85351e-20)
(0.375062 0.0334487 6.84307e-20)
(1.15462 -0.147631 4.21625e-20)
(0.829007 -0.0442203 1.33937e-19)
(0.897592 -0.12322 -4.48166e-20)
(0.565722 -0.768879 1.56423e-20)
(1.0483 -0.0561568 0)
(-0.161271 0.157049 0)
(-0.0763155 0.0120745 8.12944e-20)
(1.04593 -0.379288 -2.04326e-20)
(1.03218 -0.173891 2.18276e-19)
(0.690409 0.0392019 0)
(1.01191 -0.355095 2.28413e-20)
(1.03747 -0.0354935 0)
(0.0626877 -0.133566 -4.88739e-20)
(1.11581 -0.0300197 -9.05058e-22)
(1.0444 -0.0258787 -1.97312e-21)
(1.06249 -0.389755 0)
(1.00005 -0.000440186 8.63583e-21)
(0.838005 -0.498793 -1.28439e-20)
(0.943701 -0.154653 9.53875e-21)
(1.18759 -0.0628287 0)
(0.887841 0.036881 -3.93388e-20)
(-0.0832727 0.255998 -8.26814e-20)
(-0.0844629 0.0233832 1.89307e-19)
(1.11253 -0.0340777 2.31262e-20)
(1.18085 -0.0614258 -8.53892e-20)
(0.99974 -0.000356453 -1.34075e-21)
(1.00049 -0.483873 0)
(0.946238 0.0167725 2.37714e-20)
(0.99234 -0.010086 0)
(0.983057 -0.0338275 0)
(1.06841 -0.00412699 9.7069e-21)
(1.09481 -0.126089 0)
(-0.0933041 0.152244 -8.11204e-20)
(0.855843 -0.438718 -2.03455e-20)
(-0.101237 0.0309416 5.95769e-20)
(1.04366 -0.0557914 -4.61179e-21)
(0.952542 -0.0499465 3.57373e-20)
(-0.0845728 0.186712 1.99037e-20)
(0.418873 0.143696 -2.56277e-19)
(1.05778 -0.0326668 -4.45709e-23)
(1.13565 -0.076546 -3.86028e-20)
(0.963302 -0.027643 2.76628e-20)
(0.24714 -0.715712 8.86423e-22)
(-0.206776 0.1284 -7.70466e-20)
(0.996883 0.000848875 -9.2365e-21)
(0.690843 0.110655 -1.06271e-19)
(0.660259 -0.390426 0)
(-0.0844224 0.0175566 -1.67915e-19)
(1.00292 -0.00120955 6.18091e-21)
(0.918604 -0.0510771 -3.20539e-20)
(0.147818 0.0443867 0)
(1.08817 -0.0501078 0)
(0.306625 0.0591098 2.85809e-20)
(1.14414 -0.0230337 -3.91111e-20)
(0.584506 0.0645339 4.9318e-20)
(0.941591 -0.0734936 0)
(1.04792 -0.0592721 0)
(1.0188 -0.0353557 2.34384e-21)
(0.984897 -0.00206201 -9.14665e-21)
(1.09328 -0.010302 0)
(0.999997 -0.000197823 0)
(0.976316 0.0105161 -4.56914e-20)
(1.16944 -0.131922 -4.39417e-20)
(1.03505 -0.254385 0)
(1.00003 -0.000219962 1.84081e-21)
(1.0001 -0.000860906 -2.0193e-21)
(1.06964 -0.0121244 0)
(1.05023 -0.00499261 -5.72871e-21)
(1.00616 -0.00117452 -2.61691e-21)
(0.985344 -0.0128041 8.79335e-21)
(1.1479 -0.147317 -4.02615e-20)
(-0.0947057 0.127675 0)
(0.0429771 0.131861 0)
(1.00001 -0.000284401 -4.52418e-21)
(1.13128 -0.330133 -8.56914e-20)
(1.00103 -0.00790277 -9.71031e-21)
(-0.0820191 0.00507527 -4.09771e-20)
(1.12296 -0.0466678 3.28781e-20)
(0.775251 -0.0768612 1.50391e-19)
(0.83506 0.0555175 -8.35415e-20)
(1.19755 -0.142784 -7.02582e-20)
(1.00977 -0.00627513 -3.02524e-21)
(0.998513 -0.0032047 7.56307e-23)
(0.813224 -0.123104 1.49006e-20)
(0.992185 -0.011571 0)
(1.03339 -0.0349343 0)
(1.13053 -0.0943072 0)
(-0.058158 0.170663 -3.21384e-20)
(1.02971 -0.0109354 0)
(1.14131 -0.0147742 0)
(-0.161465 0.143199 -9.07958e-20)
(1.06102 -0.0532079 1.14057e-20)
(-0.03478 0.0870633 -5.0467e-20)
(-0.164773 0.137086 -5.00238e-20)
(1.01497 -0.0294989 3.8877e-21)
(1.11394 -0.120191 7.97178e-21)
(1.089 -0.0193859 -2.34819e-20)
(1.01419 -0.0393281 0)
(1.02481 -0.0109876 -4.3253e-22)
(0.615265 -0.103134 1.1303e-19)
(-0.163916 0.14867 6.79999e-20)
(-0.0758384 0.038648 0)
(0.977265 -0.0135781 -1.76237e-20)
(0.995252 0.0012704 -1.22975e-20)
(1.02152 -0.0145264 4.57727e-22)
(1.07708 -0.000574196 5.8451e-21)
(0.979248 -0.0550196 1.35247e-20)
(0.965414 -0.0652171 -1.95165e-20)
(0.517349 0.463649 -1.06202e-19)
(1.12333 -0.0437866 1.36617e-21)
(1.00027 -0.00175895 1.0847e-20)
(0.999448 -0.0725308 0)
(1.08903 -0.0555517 0)
(0.838971 -0.0470633 -9.12482e-20)
(1.03387 -0.033261 0)
(-0.249865 0.0102503 0)
(1.06476 -0.0340109 -1.4548e-20)
(1.00381 -0.00295443 0)
(1.04543 -0.253086 -2.13893e-20)
(0.14984 0.144664 -1.46068e-19)
(1.02869 -0.00761349 2.17845e-21)
(0.996531 0.00135772 -9.3002e-21)
(0.992255 -0.00528365 -2.76532e-21)
(1.0819 -0.0174754 0)
(1.00985 -0.0059302 1.08538e-22)
(1.11274 -0.0367977 3.99202e-20)
(1.2411 -0.0946152 1.46891e-19)
(0.989666 -0.0429148 1.88358e-20)
(1.15507 -0.0427119 2.43071e-20)
(1.05568 -0.0321698 0)
(1.03239 -0.031826 -2.22942e-22)
(0.968532 -0.00166183 0)
(-0.0671638 0.0116582 -8.01322e-20)
(1.13559 -0.0171125 1.55405e-20)
(0.998811 -0.00295908 0)
(1.03018 -0.00755261 0)
(0.293832 0.104565 6.68391e-20)
(0.90486 -0.00760172 -1.2165e-20)
(0.649389 0.0617955 -2.40489e-20)
(1.02841 -0.0061247 2.5976e-21)
(0.987438 -0.0127719 -9.99155e-22)
(-0.208574 0.00734639 0)
(-0.156708 0.0230309 0)
(1.06222 -0.0934734 8.1784e-21)
(1.15697 -0.0545475 -5.29844e-20)
(0.690467 0.0492251 0)
(0.993924 -0.0152881 0)
(1.00002 -0.000188888 0)
(1.01055 -0.0381166 -2.68085e-22)
(-0.0576813 0.0221965 3.36832e-20)
(1.00135 -0.000618158 -6.27655e-21)
(0.999997 -4.80424e-05 0)
(-0.0641609 0.22041 1.00099e-19)
(0.892998 0.0369344 3.85857e-20)
(1.19145 -0.191009 -9.47949e-20)
(0.840728 0.0368981 9.38559e-20)
(1.00151 -0.00839846 -1.06253e-20)
(-0.0660655 0.0178378 1.13372e-19)
(1 -0.000423634 -5.88284e-21)
(0.986882 -0.00839325 0)
(1.00946 -0.037352 6.52716e-21)
(0.911028 -0.10328 -1.81437e-20)
(-0.0288516 0.213933 0)
(0.999882 -0.00178482 5.04801e-21)
(0.992821 0.00278779 -2.67344e-20)
(0.991776 -0.0120598 -7.07918e-21)
(0.993559 -0.0137222 0)
(1.0012 -0.00835249 4.89387e-21)
(1.01831 -0.0364934 0)
(0.943443 -0.155379 -2.56188e-19)
(0.903836 -0.107253 1.1991e-20)
(0.96423 -0.0443383 0)
(0.999831 -0.00271509 4.85085e-21)
(0.895872 -0.101622 -1.11482e-20)
(1.12407 -0.119971 -2.43858e-20)
(1.08678 -0.0155369 -5.18915e-21)
(0.883837 0.0423267 3.9615e-20)
(1 -8.74982e-05 0)
(1.02158 -0.0138293 -6.62798e-22)
(0.996319 -0.0686032 0)
(-0.0543572 0.12162 -1.15241e-19)
(0.172373 0.0654739 0)
(1.06519 -0.0134425 0)
(-0.0838609 0.03547 9.51958e-20)
(0.999718 -0.000215143 0)
(0.941928 -0.0684152 -5.03323e-20)
(1.22573 -0.315323 6.32612e-20)
(0.155171 -0.125927 0)
(1.02159 -0.0256067 4.63267e-22)
(0.999873 -0.00149603 -1.03916e-20)
(0.431451 0.241701 0)
(1.12658 -0.0680473 3.21664e-20)
(1.00408 -0.00305704 1.13771e-20)
(0.999921 -0.000447711 5.37319e-23)
(-0.210653 0.149348 -5.7231e-20)
(1.00002 -0.000138509 6.90021e-21)
(1.10497 -0.172192 8.31462e-20)
(0.99601 -0.00294151 0)
(0.347067 0.0492619 1.88749e-19)
(0.999931 -0.000523651 -1.04381e-20)
(1.01017 -0.000274033 2.30283e-21)
(0.998633 2.33586e-05 7.12986e-21)
(1.03856 -0.111567 0)
(1.049 -0.00422065 0)
(0.928968 -0.041357 -1.4096e-20)
(0.904314 0.0285404 3.54488e-20)
(0.53858 0.131035 4.67792e-20)
(1.00419 -0.00951095 -3.08756e-21)
(0.998323 -0.00618031 0)
(1.00006 -0.000300153 -1.94097e-21)
(0.996184 -0.0154243 1.07757e-20)
(1.03883 -0.0331098 1.37832e-21)
(1.04454 -0.0154213 4.89257e-21)
(1.06986 -0.0920858 3.49184e-20)
(0.998297 0.000191801 -1.54325e-20)
(1.12968 -0.0487394 -3.0419e-20)
(0.0419472 0.124759 -4.05049e-20)
(1.10242 -0.0990946 0)
(1.13391 -0.0977954 0)
(0.99964 -0.000379999 -9.88614e-21)
(1.03081 -0.0209839 1.49325e-21)
(-0.205685 0.00557811 -1.44967e-19)
(0.0566581 0.112837 7.98176e-20)
(1.02451 -0.0101842 6.86401e-22)
(-0.0636344 0.109504 1.84265e-19)
(-0.210363 0.0132428 -3.85516e-21)
(1.03039 -0.00802757 0)
(0.99249 0.00232331 1.35935e-20)
(1.0002 -0.0140501 -9.30455e-22)
(1.09205 -0.228166 5.52424e-20)
(1.13089 -0.0470454 0)
(0.136194 -0.0857464 1.29079e-19)
(1.00481 -0.00958762 -2.64414e-23)
(1.01029 -0.0880776 0)
(1.00526 -0.00713502 -1.62525e-21)
(0.964273 -0.0236016 1.46427e-21)
(1.00928 -0.00036267 -8.2728e-22)
(1.0187 -0.27248 -1.03864e-20)
(1.03956 -0.0318948 -2.57079e-21)
(1.18136 -0.202334 0)
(0.999079 -0.00257241 0)
(0.897305 -0.236548 -1.70549e-20)
(1.0035 -0.00857229 -7.78112e-21)
(0.957487 -0.0469471 0)
(0.985197 -0.00844124 0)
(1.11647 -0.00810595 0)
(0.726317 0.152582 5.06531e-20)
(-0.186518 0.0189612 0)
(-0.0505172 -0.0257003 2.75346e-21)
(-0.105438 0.119408 -5.83287e-20)
(1.12114 -0.0711718 4.31025e-20)
(0.986885 -0.0138561 8.8511e-21)
(0.570974 -0.721133 -5.3693e-20)
(0.0749554 -0.0956987 2.64209e-19)
(1.13701 -0.0465329 3.46455e-20)
(1.03722 -0.029717 -1.85953e-21)
(0.999607 -0.00317874 5.95627e-21)
(0.169975 0.263635 0)
(1.00045 -0.014699 8.6381e-21)
(-0.0313876 0.220091 5.7965e-20)
(1.03396 -0.0049605 -3.089e-21)
(1.09556 -0.0339543 -1.24116e-20)
(1.04258 -0.031819 9.50948e-21)
(0.999951 1.29538e-05 0)
(1.02125 -0.026808 -5.18214e-22)
(0.583643 0.0201412 -1.40736e-20)
(-0.0487043 0.0258979 -7.14929e-21)
(-0.0344602 0.230431 4.74446e-20)
(0.66224 0.0693955 0)
(-0.175755 0.00353067 7.27866e-21)
(0.993335 -0.00636635 -2.12718e-20)
(-0.160207 0.133584 -6.73297e-20)
(0.266103 0.0304494 0)
(1.00002 -9.79269e-05 -7.36099e-21)
(0.987174 -0.0372188 0)
(1.01122 -0.0082457 0)
(0.767973 0.0403004 0)
(1.0263 -0.006873 -8.942e-22)
(-0.0507188 0.0424789 0)
(0.845595 -0.0304924 0)
(1.17483 -0.10181 0)
(1.00139 -0.0482701 6.14169e-21)
(1.1832 -0.341077 -2.1254e-19)
(-0.120828 0.0185831 2.85831e-20)
(0.164583 0.0584471 -2.57087e-19)
(0.925481 -0.10287 0)
(1.08067 -0.0842026 -1.80562e-21)
(1.00153 -0.000929774 -1.97055e-21)
(0.472332 -0.149633 0)
(1.02794 -0.00501233 0)
(0.402009 0.337411 -1.50789e-19)
(1.19218 -0.101815 0)
(0.7933 -0.22588 0)
(0.343019 0.0283372 0)
(-0.0199406 0.0635084 -2.17164e-19)
(1.05792 -0.0498821 -2.39096e-20)
(1.00225 -0.069159 6.2783e-22)
(1.0029 -0.00408794 3.34638e-21)
(1.14337 -0.0182795 0)
(-0.0513184 0.0414477 -1.25996e-19)
(-0.146857 -0.00644518 0)
(1.01038 -0.00780233 0)
(0.211022 0.644388 -9.95142e-20)
(1.0844 -0.0139368 1.75755e-20)
(1.16291 -0.0499967 0)
(0.564683 0.134341 2.01374e-20)
(-0.0586623 0.168341 -2.90326e-23)
(-0.0427492 0.162759 5.16206e-20)
(1.03603 -0.00442763 0)
(0.911478 -0.041971 0)
(1.0949 -0.0499181 5.55424e-21)
(1.07275 -0.0240162 0)
(1.07175 -0.0116174 -1.91808e-22)
(0.228743 0.0443464 0)
(0.999699 -0.000778726 -9.17187e-21)
(0.470036 -0.000384789 0)
(1.01749 -0.000398504 0)
(1.03505 -0.00387994 -3.25354e-21)
(1.08163 -0.21283 0)
(1.16162 -0.0559066 -1.56717e-21)
(0.803301 0.0365904 2.2944e-20)
(1.03908 -0.0455877 1.2367e-23)
(0.882784 -0.389798 0)
(1.0271 -0.217593 -1.31575e-20)
(1.19988 -0.285672 -1.57205e-19)
(0.8962 0.0300759 3.78696e-20)
(1.0001 -0.000445578 0)
(1.03737 -0.0463149 -1.1529e-23)
(1.00012 -0.000456199 0)
(0.983298 -0.00955853 0)
(1.19959 -0.299629 1.13746e-19)
(0.730428 0.0535704 -1.26296e-20)
(1.01971 -0.0446525 0)
(0.984496 -0.00684186 9.96875e-21)
(1.09927 -0.0466276 0)
(0.192921 -0.130812 0)
(1.00169 -0.0932317 -6.2338e-22)
(0.986289 0.001186 0)
(0.383307 0.136035 3.03878e-19)
(0.99218 -0.00686018 1.03843e-20)
(0.999974 -1.64363e-05 7.06954e-21)
(1.02856 -0.00547458 -7.5735e-22)
(1.13486 -0.0371248 -4.3426e-20)
(0.995836 0.00112792 0)
(1.07729 -0.0280877 2.73798e-20)
(-0.041184 0.298819 2.54273e-21)
(1.12067 -0.130613 0)
(1.00569 -0.000225605 -3.27641e-21)
(0.136635 0.619809 1.03853e-19)
(0.57045 0.0828685 3.84957e-20)
(0.992249 -0.00764535 -9.8004e-21)
(1.06313 -0.0142293 -9.84079e-21)
(1.08744 -0.0824853 4.4142e-20)
(1.00004 -0.00014809 -9.48386e-21)
(1.00061 -0.00736479 5.21506e-21)
(1.01694 -0.0230962 3.08984e-22)
(0.772075 -0.0867254 0)
(0.658812 0.0306825 0)
(0.990454 -0.0447057 0)
(1.09089 -0.0843602 -3.1867e-20)
(0.816818 0.0501678 6.83666e-20)