/*--------------------------------*- C++ -*----------------------------------*\
| =========                 |                                                 |
| \\      /  F ield         | OpenFOAM: The Open Source CFD Toolbox           |
|  \\    /   O peration     | Version:  v2012                                 |
|   \\  /    A nd           | Website:  www.openfoam.com                      |
|    \\/     M anipulation  |                                                 |
\*---------------------------------------------------------------------------*/
FoamFile
{
    version     2.0;
    format      ascii;
    class       volScalarField;
    location    "500";
    object      omega_0;
}
// * * * * * * * * * * * * * * * * * * * * * * * * * * * * * * * * * * * * * //

dimensions      [0 0 -1 0 0 0 0];


internalField   nonuniform List<scalar> 
10042
(
0.0219073
0.0220494
0.0217422
0.0226906
9.76114
0.0220686
5.74048
0.321837
0.0216666
0.0220084
6.3103
0.0226466
0.0215195
0.0214804
0.0229754
0.0220323
0.0220237
0.0222585
0.0219092
0.110712
0.0219
0.15351
0.021564
0.0216059
0.0220559
0.0259817
0.0221323
0.0223223
0.0217149
0.0221072
0.0220193
6.152
0.022019
0.0220042
0.0244687
0.0216191
0.0254957
0.028723
0.0216215
0.0276905
0.119903
0.0226925
5.94057
0.021929
9.85217
0.0482616
0.0221524
0.0829246
0.0250147
0.040793
0.0221669
0.0218924
0.0227636
0.0222651
0.0255206
0.0220621
0.0217145
0.0221361
0.0219984
0.0226175
0.0220447
0.0220019
0.0246044
0.021734
0.0220933
0.0220111
0.0219539
0.065203
8.05691
0.0218457
0.0222272
0.137634
0.0219343
0.0302269
0.0219392
0.0216028
9.53989
0.0219181
0.0283261
6.04081
0.0245838
10.5736
0.0218781
0.0224516
0.0219569
0.0222134
0.0218888
0.135715
0.0218908
0.0218919
0.0219559
10.7377
0.0223632
0.0218494
0.0220853
0.0217773
0.0219283
0.0218026
0.0272375
0.0217079
0.0222907
0.0966706
0.222359
0.0222018
0.0222786
0.0460161
0.0219077
0.0219215
0.021908
0.0214092
0.0217055
0.0218088
0.0244199
7.37578
0.0220842
0.0218233
0.0219333
0.0219143
0.0217715
6.3598
0.0218874
0.273698
0.0219411
0.0219787
0.096068
0.0218859
0.298874
0.0256376
0.0445013
0.0218834
0.0291216
0.0219328
5.78666
0.164196
0.0217086
0.0517058
5.76443
0.0219625
0.0863518
0.152375
0.0223669
0.0219294
0.022225
0.147149
0.0216885
0.0218088
0.0517588
0.021471
0.0218079
0.0241314
0.0216698
0.0222555
6.63539
5.86454
0.0221853
0.0215139
0.0223436
0.0219932
0.0531215
15.9297
7.18954
0.113251
0.0219836
0.0216752
0.0218973
0.0219207
0.0532067
30.0492
5.07222
6.01994
0.0220617
0.0218375
11.2885
0.139698
0.035251
5.73985
10.7441
0.0219385
0.0750845
0.0291607
0.0224503
9.58662
0.0219827
0.0256006
0.0226106
7.19316
0.231873
0.0218821
6.92821
0.0229583
2.50581
0.0222285
6.57949
10.8423
0.080073
7.32543
0.0237936
0.0219181
0.0215196
0.0227571
0.0341848
0.021904
0.0218028
0.139884
0.0219832
0.0216516
3.34958
0.0221562
0.0222603
0.0222426
2.87793
0.0217461
0.0497206
0.228344
0.0223242
0.251915
0.0219113
0.0219877
0.0580661
0.02176
0.0244835
0.022437
0.27204
0.0294907
0.0243472
0.0265402
0.238381
0.021815
0.159233
0.0223536
0.0216624
0.114454
0.0218468
0.0223315
0.0217635
0.0242688
0.0216779
0.0214613
0.0225012
0.0240041
0.0219908
0.0219469
0.0218752
0.024462
0.0218245
0.022029
0.0216064
0.0223048
0.022149
0.0222688
0.0215205
0.0218383
0.023405
0.345565
0.114641
7.96469
0.0356949
0.0345992
0.0230968
0.0537682
5.24392
0.0223867
0.0219105
0.0214772
0.0227115
0.0216802
0.173252
0.0224809
0.0218847
0.0222501
0.0359009
0.0221756
0.216612
0.0351441
0.171315
0.0230179
0.0239792
0.0216882
0.0235235
0.0217063
0.030216
0.0218706
0.0260312
5.82073
0.0216545
0.0217262
5.13508
0.0491255
0.0218608
0.0220433
0.0231902
5.60571
0.0473101
0.156522
0.0221818
0.0215154
0.021815
0.0216765
0.221376
0.0218671
0.0220391
0.0218331
0.0219122
0.0293838
0.0231062
0.0675367
9.34517
0.0225125
1.1763
0.0218318
0.023392
0.0221238
9.39345
0.0969761
4.60996
14.4485
0.0215841
0.0224909
0.0218475
0.0231896
0.026593
0.0222414
0.0303235
0.0217009
0.0214605
0.0219431
0.07184
0.0222838
0.02277
0.0219099
0.0229911
7.04926
0.0218301
0.0221756
0.0219868
0.0217125
0.0382423
0.0804807
0.034451
0.640171
0.0296926
0.0249821
0.021919
0.0214633
0.0220025
0.0222679
0.458981
0.0218693
0.0220112
0.101304
0.0218048
0.0236729
0.0225301
0.109266
0.0217163
0.0242158
0.0420992
0.0301156
0.0227058
0.0219236
0.855616
0.0526167
0.02195
0.0379161
0.0219439
0.0218512
0.0219413
0.0236533
0.960745
0.0230677
0.0222491
0.022444
0.0222923
0.0222707
0.111179
0.0219217
0.0215775
5.81131
0.0218347
1.31487
0.449472
0.0307688
5.2876
8.96957
0.0261608
0.11622
0.0221581
0.0420546
0.0222913
0.0220921
0.356623
0.0220636
0.0233752
11.3422
0.0218634
0.0219009
0.0458217
1.85631
0.021958
0.0214767
5.51672
0.0976909
0.0218324
0.0656194
20.5421
0.0217586
0.0222639
0.0216094
0.0218628
0.0214512
0.0216488
0.933432
0.310417
0.0221164
9.18496
0.0214833
0.0218699
0.516968
0.0218109
1.02372
0.0505062
0.0224664
0.0215454
0.0214742
0.114822
0.0221201
0.0261786
0.0221253
6.0345
0.0222421
10.0562
0.0228268
0.0219313
0.0218215
0.446837
0.0219473
0.0247915
0.021842
0.0217034
10.6508
0.0238619
0.0219219
0.0217229
5.35075
0.0218733
0.0240606
0.0226964
0.0216864
8.92774
5.4748
0.0218803
0.0220407
0.0231693
0.0215203
0.0220086
0.021966
5.73597
0.021991
0.0216559
0.0268603
0.246001
0.0523394
0.0222685
0.0287716
29.4049
0.0307577
0.0219248
0.0219286
0.164443
0.0219117
0.0219376
0.0277242
0.0216904
0.0216507
0.0225462
0.0215455
0.0350552
0.021905
0.0219516
7.6567
0.021757
0.0220113
0.0220656
0.022092
0.0301697
0.0218845
0.0217009
2.74868
0.0221854
6.42783
0.0223692
0.022282
0.0222766
0.117578
0.0218773
0.021926
0.0220115
0.0219925
0.0262663
5.75371
0.0218774
0.0348627
3.89886
0.0306365
0.022261
0.0219514
0.0217899
0.0222028
0.0218497
4.53026
6.00551
0.0220733
0.0256357
0.0256311
0.025274
0.0219441
0.0216466
0.209486
0.108606
2.78677
0.0215456
0.0218225
0.0217908
0.0218398
7.99132
0.0316757
0.0219975
0.0217494
0.0217744
0.0219256
0.219275
0.0238515
0.0221397
6.52735
1.11191
0.305586
0.0469322
0.0220166
0.0217153
0.0470126
0.0473551
7.07255
28.4381
0.0238386
0.0250392
0.0222102
0.0227246
0.0220321
0.0221995
6.70606
0.0216004
0.0218378
0.0462652
0.0222098
0.223122
0.0222671
0.10234
0.0273946
0.0222447
0.0224303
0.0244587
0.0324746
0.0469403
0.0716215
0.0222823
0.0407262
0.0224203
0.0217818
0.0221176
0.0220193
0.0220334
0.0240341
0.052543
0.0380428
0.0221431
0.0222173
0.0220076
0.0219093
0.109
0.0219263
0.0226696
0.144302
0.0215482
0.0473819
0.0635526
0.022041
7.74497
0.0346928
0.0222094
0.286638
0.0217886
0.0222685
0.0219107
0.0219756
0.0222923
0.0230553
0.0219294
0.771856
0.0223585
0.0219572
0.0219583
0.0305264
0.0287732
0.0219734
0.0230298
0.0217155
0.0280342
0.0219008
0.0275186
0.0215776
0.0226105
0.0214802
0.0219269
7.93409
0.0216169
0.0955661
0.021961
0.0221827
0.0217379
0.0286062
0.0220741
0.0356664
0.0218595
0.258679
0.0222619
5.4325
0.0214656
0.0228828
0.0222715
0.0219195
0.0219561
0.0230287
0.0220331
0.106694
28.1003
0.222185
0.0228542
0.0336058
0.0217959
0.0353087
0.048177
0.0220109
0.0273812
0.0752617
7.62474
0.0637211
9.19659
0.0249567
0.0219767
0.022231
0.0233363
0.0230271
0.0303374
0.0215909
0.0227405
0.10283
0.0222649
0.0219093
0.0232375
9.66123
0.0227739
0.027718
0.0468177
0.0222513
6.16754
0.0216062
0.0218192
0.0221195
0.0216982
8.2378
0.0551229
9.71782
0.0220557
2.06101
16.4246
0.38978
0.0301293
0.0546153
0.154545
0.0369963
0.021911
0.0218429
0.0283698
10.2216
0.0217867
0.0274181
7.22903
0.0219009
0.0219042
0.0217876
0.0224491
0.0219472
0.021735
0.114417
8.07194
0.0217237
0.0219988
5.79057
6.58562
0.0217992
0.0219297
0.0221548
0.021867
0.531321
0.0549201
0.211218
0.022279
0.021899
0.0216527
0.0224684
0.0220531
0.0281757
0.0223388
9.57784
0.0220067
0.022074
0.037221
0.0217849
0.0286511
0.0585218
0.0223257
23.0122
9.24647
0.0219873
0.0218432
1.51476
7.47235
0.0326861
0.0217777
0.368958
0.150847
0.0247134
0.0219029
0.0219936
0.02192
0.240074
0.0228379
0.081841
0.0222685
6.96811
0.9685
0.0219545
0.0219874
0.0995979
0.0221496
0.0217351
0.0239546
6.82559
7.21677
7.48802
0.0219458
0.047823
0.0355245
0.0216343
0.0218163
0.0221935
0.232527
0.0222057
0.021951
0.0479354
0.0219375
0.0572847
0.0221111
0.0221062
0.0216827
0.0221512
0.144989
0.0221989
0.0218351
0.0345958
0.0498709
0.298348
0.0222096
0.0818711
6.43306
6.38301
0.0225338
7.48175
13.7543
0.0219015
0.0215307
0.0223244
0.0228239
6.06655
0.022736
0.0221217
0.022206
6.62111
0.034328
0.0219069
0.0221417
0.0219249
0.038226
0.0217494
0.0218229
0.0274013
0.0224074
0.0222042
0.0216852
1.16505
0.0217282
0.0223353
0.0220274
0.0221042
0.147213
0.0222025
0.022569
0.0220708
0.0235191
0.642483
0.0222919
0.280616
0.0244488
6.2152
0.0216237
0.0227503
0.0270638
0.081418
0.0460103
0.0223329
10.0176
3.34964
0.0222704
0.0217547
0.378534
0.0220779
0.0222509
0.0217125
0.0222415
0.0439563
0.0222928
0.022293
0.057945
0.0265304
0.0225482
0.0292939
0.0224375
9.1361
0.0224501
0.66455
0.0218569
0.0462903
0.0339814
7.17976
0.0230414
7.44089
0.0222694
0.0235321
0.0220413
0.021948
0.0218782
0.098984
0.0370076
0.039033
8.72978
0.0221185
8.0538
0.0236816
0.0216994
0.0295444
0.0268175
8.92806
0.0219802
0.0265383
0.0462555
0.0227063
0.0385024
0.0222837
0.0215634
0.0222833
0.226038
0.0221333
0.0220029
0.0217236
0.021721
0.0219313
0.0219881
0.0220154
0.0218454
0.0221507
0.0222399
0.0240646
0.0288648
0.021986
6.55408
0.0218871
1.75244
0.0342621
6.27246
0.0321083
0.0234255
5.0691
0.029103
0.243305
5.22528
0.0377971
0.0221989
0.021841
0.0224031
0.153734
0.0217961
6.27392
0.0218328
10.8686
5.69683
0.0444609
0.0222655
6.60379
6.8831
0.022766
0.0219743
0.0222638
0.0230337
0.0215536
0.0216571
0.0514191
0.348199
0.0220769
0.0217952
0.0221673
0.452888
0.0495932
0.0221551
0.0239856
0.0781939
0.0221579
0.0220279
6.00231
0.0221021
0.0218615
9.28235
0.0231617
0.021905
5.96357
5.70294
10.5459
0.0219064
0.0226431
0.397635
0.0217209
0.0217573
0.0222843
0.0257846
0.0220441
0.0221112
0.0224569
0.0422192
0.147338
0.0217731
0.0218999
0.0220782
0.0217366
0.0222563
0.0215885
0.130814
0.0268171
0.0219026
0.0219805
0.0217577
0.0219735
0.022103
6.94787
0.0257375
0.021468
0.0219204
0.0377941
6.94637
0.0220418
0.0219806
0.0220277
0.021483
10.1563
0.0390323
0.0216831
0.0220659
0.0263882
0.0899718
0.0221691
0.0222827
0.0238254
0.0218284
0.0238885
0.0221556
4.73209
0.0318837
0.0220687
0.0243516
11.7053
0.026567
0.111683
0.0239467
0.396427
0.0222708
0.0218224
0.0235091
0.0525294
0.0218844
0.0216204
0.0222434
0.0221301
0.0928774
0.101905
1.55895
0.022169
0.0219908
0.0265364
0.0219107
0.0219081
3.97205
0.0229317
0.0218287
0.0219791
0.219665
2.2434
0.0219894
0.0219054
0.0723976
0.0216657
0.0221044
0.0219216
0.0703051
0.0224874
0.0239088
19.1868
0.0220618
0.0221679
6.26816
0.0219035
0.135095
0.0218878
0.0227393
0.0382439
0.0219217
0.0220878
0.0218594
0.0226706
10.9208
0.0219142
0.0221345
0.171752
0.0245214
0.199338
8.49119
0.0424786
0.0222118
0.377936
0.0216866
8.19996
0.0221672
0.0218658
0.0216286
5.69837
0.0222118
0.0221464
0.0221598
0.028583
6.00954
0.026388
0.0439396
0.0218634
0.0221345
0.0331697
0.0266585
0.0218311
0.0239225
0.0218749
6.62074
5.84363
0.022138
0.022574
0.0222226
1.87272
0.022156
29.5917
0.0219731
0.0217152
0.0216751
0.0221066
0.0228428
0.0222715
0.0219875
0.0219286
0.363758
0.0809017
0.0217633
0.0232529
0.0228438
0.0374487
0.0217186
0.0248543
0.0224092
0.0219092
0.02278
0.0266115
0.0222802
0.0219101
0.0253311
0.0216775
0.145981
0.0225503
0.115718
0.0220079
0.0220388
0.0216386
0.0576129
0.0362472
0.0217601
0.0232583
0.057633
0.0222041
0.0217631
0.0240947
0.0222246
8.98172
0.173673
0.0238399
8.80319
0.0227044
0.0290558
0.0816535
0.0346057
0.0283351
5.13668
0.026094
0.0992716
0.0218399
0.022436
0.0217939
0.0219038
0.0244084
0.0217141
0.157604
0.0218941
0.0219263
0.0652107
0.0219334
0.0434529
0.0237554
0.024184
0.0218326
0.038837
0.308668
0.0213987
0.0272533
6.62145
0.0387712
0.0216577
0.0261096
0.0219922
0.0217223
9.8717
0.0218252
0.0217783
0.041603
0.0218939
0.0244295
0.0216933
0.0220015
6.2862
0.021756
0.0216419
0.0235903
0.021905
0.0214542
0.0222518
10.7722
0.0220347
0.0220832
0.0215367
0.0662066
0.0222089
0.0235405
0.0219154
0.0319977
0.0223025
0.0218837
0.0223857
0.0220996
0.0217744
0.0981996
0.0377392
0.0265858
0.0229536
0.0406827
0.0596061
0.0261766
0.0267136
0.0225337
6.66171
0.0219012
0.0218348
0.0219206
0.0222384
0.032723
0.0218874
8.80625
5.82264
0.63553
0.0220826
0.0236022
0.0357318
0.0215043
0.0771909
0.0426063
0.538778
0.0522476
6.5667
0.0599112
0.116629
5.77488
0.0264886
0.022343
0.0239614
0.0217384
7.84172
0.0222022
0.0275417
0.021788
0.0239418
0.022045
6.48971
8.71346
0.0222034
5.08852
0.509389
0.175833
0.0391735
0.0576556
0.0216469
6.93304
0.0219061
1.14765
6.26049
0.0222041
0.0218638
0.0220002
0.0228082
0.023342
0.03104
0.14208
0.022124
0.0220404
0.023896
0.0220473
0.022035
0.0246847
0.02183
0.0220582
0.316587
0.0543545
0.0220421
4.55991
0.0222654
0.0222722
0.0229608
0.312483
0.021929
0.0217187
0.0972936
0.164345
0.0217036
0.0240134
0.664073
0.0464517
6.14944
0.0217701
0.127475
8.62876
9.5127
0.0220809
0.0218756
0.0491387
0.0248839
0.0376024
0.0221343
8.62253
0.041712
0.176636
0.0219481
0.0219743
5.44247
0.250079
0.0221488
0.0222723
6.19855
0.0219147
0.0215524
0.0216182
0.0226669
0.0221967
0.0279277
0.0220121
0.0227318
0.0216043
0.0281265
15.9935
0.053215
0.0302721
9.25885
0.0671112
0.0216178
0.0217229
0.02177
0.0222837
0.122477
0.0280652
0.0217901
0.0219132
0.0219669
0.0215958
0.0301491
0.0216004
0.0437629
0.0229129
0.0221224
8.71372
6.67449
0.0221006
5.39431
0.0313917
0.0303525
0.0222642
0.0216006
16.2106
0.0647745
0.0219183
0.0217104
0.0219216
0.0246409
0.0222623
0.124538
0.0215054
0.0220586
0.0218548
6.47497
6.43968
0.0214702
0.0219308
0.123191
0.331341
0.0237667
6.24337
8.92718
0.0216008
0.0221413
0.0220243
0.0225906
6.08832
0.0220389
0.0222844
0.17054
0.0834157
0.0222122
0.0219338
0.065338
0.0222836
0.0220731
0.0991975
0.0649438
5.93449
0.0219813
0.0607262
0.0376263
0.0449335
0.0227088
0.0258915
0.0219316
0.0218392
0.102049
0.0245484
0.0219956
0.0237583
6.3418
0.0215151
0.0217958
0.0215045
0.0662473
0.0219413
0.0220852
0.0214256
0.0219398
0.553606
9.54857
0.022088
0.60402
7.80959
5.95628
0.0219281
0.0219024
0.0218238
0.0218897
0.0221166
0.0221491
0.0216126
0.0220815
0.0217752
0.0235522
8.91045
0.0332786
0.287809
0.0263355
0.0220315
0.0226798
0.0299077
0.0220581
0.021843
0.0366417
0.0296961
0.551309
0.0345892
0.0214512
9.51797
0.0223075
0.0214699
0.0217624
0.206421
0.0361931
0.0224708
0.024417
0.0220716
0.0220921
0.0301762
0.0338611
0.0252153
0.722829
0.0220815
0.0220291
0.485555
0.034374
0.0240476
0.109736
0.0225208
0.0582903
0.198653
0.0577586
7.50553
0.0217893
0.0215793
0.0219362
0.022047
0.0220948
0.022569
0.0335349
0.0415695
21.2237
0.0220719
2.40646
4.90089
0.0230789
0.851172
0.0220763
0.0864605
11.4921
0.0219072
0.0771686
0.0214916
1.60724
0.0221973
0.14663
0.021855
0.549925
0.0320711
6.57592
0.021846
0.128476
0.0215397
0.0225189
0.176267
0.0218359
8.94157
8.41059
0.283369
6.86252
0.0742572
6.22702
0.0355898
0.0220165
0.0408436
0.0400818
5.30978
0.0220755
0.0220157
0.0222846
0.0435227
0.0219046
0.0220896
0.0220533
23.0886
6.35334
0.0218742
7.91613
0.0523868
0.0217219
0.0350689
0.0259023
5.97108
0.0276735
0.0217286
0.521601
0.022071
0.0219341
0.0220884
0.122508
0.0522268
0.0217068
0.0252758
0.0221116
0.0222606
0.0217885
9.59676
0.0222857
0.0218111
1.22254
0.162168
0.0230361
0.0217323
5.66882
0.0267543
0.0227384
0.0218907
0.0466974
0.0225476
0.0246512
0.0237514
0.610827
0.0396773
0.0504537
0.0214503
0.0276074
0.0376547
0.0250344
0.0221928
8.19425
0.0222527
0.125917
0.0218869
0.0221933
0.0271714
0.13584
0.0227242
0.0236909
0.0221123
0.0342754
0.053744
0.0744116
0.0264298
0.0222923
0.021963
0.0267523
0.0714379
0.0219313
0.0361231
0.0220151
0.0219328
6.30772
0.0218873
6.99733
0.021902
0.0259135
0.0578802
0.0218849
0.0254992
0.0901297
0.0936842
0.021875
0.0675954
0.0221445
0.0222632
0.0218679
5.80702
6.57595
0.0219027
0.0219184
0.0215293
0.0217912
0.0759995
6.52377
0.0218785
1.15504
0.0217214
0.0217939
0.0218898
0.219307
0.0223622
0.0231195
0.021939
0.0218475
0.0218786
0.0222568
0.0222594
0.0283683
7.46541
0.0215643
0.0218728
0.0385806
0.0612946
0.0217871
0.815981
0.0466812
0.0217705
0.0214507
0.0218612
0.0885337
0.0216887
0.065059
0.0267558
0.0226338
0.02177
0.0390841
0.0215094
0.114438
0.02626
0.0221848
2.03549
0.437463
0.0214063
0.0218516
7.9429
0.111473
0.0619919
0.022967
0.0649688
0.0214876
8.53438
0.0528109
0.0215965
4.53631
5.48027
0.022688
0.0402707
0.0461114
0.0217249
9.45106
0.0220593
0.0246515
0.0275104
0.0220939
0.0220482
0.0472215
0.0218688
0.0218858
0.0218673
4.30929
0.0218106
0.021936
0.0217142
0.021887
0.0218156
0.0222299
0.0433392
0.0420883
0.0226796
0.0222496
0.883124
0.0220811
0.0218292
0.0218957
0.0215344
0.0220838
0.0219697
0.0257232
0.0719471
0.0222241
0.0272155
0.0454498
0.021688
0.026176
7.72193
0.0222875
0.0215036
0.0220784
0.074345
0.0222025
0.0222028
0.023426
0.0238227
0.761268
21.2409
0.0218199
0.0218602
0.0219374
0.0622776
0.0227186
0.0217804
0.0269432
0.0650245
0.0220486
0.0256475
0.0221333
0.101781
0.180292
0.0222998
0.105176
0.0245766
6.62238
0.022205
0.0218904
9.02466
0.0999112
0.0235061
0.146477
0.081348
30.7013
0.041994
0.581516
0.0240438
0.0234606
5.47165
0.0253825
0.273922
0.0263579
0.12147
6.79086
0.0222932
0.0220269
0.0219733
0.260015
0.0214299
11.6901
0.0308474
27.1639
0.0226041
0.103215
0.230067
0.0219451
0.0220543
0.0710138
0.0277553
0.022088
0.0233729
0.0687118
0.0648376
0.0696383
0.0858227
20.2624
0.125276
0.0221144
0.0222013
7.38348
0.0678914
0.0222567
0.0350014
7.23329
0.0220206
0.0228447
0.0219347
0.0271676
0.0220383
0.0221041
0.036253
0.0220066
0.0223662
6.25378
31.3513
0.0217241
0.0246883
0.0246771
0.168772
0.0393336
0.0220652
0.0219219
0.0902092
9.88657
0.0219228
0.0244058
0.0218888
4.92304
0.0218112
0.0278582
0.200375
0.193069
0.0222719
0.116902
0.0794156
0.0491614
0.0245289
0.0220196
9.26674
0.0217994
0.0242306
0.0220992
0.025803
0.0215631
0.0215619
0.0219081
0.0587045
0.0218015
0.0219758
0.021704
0.0217566
0.0218659
0.0218633
0.080974
6.31357
6.52097
0.0239221
0.022056
0.0303072
0.0228444
6.66126
0.022285
0.155469
0.0215935
0.0219921
0.0220706
0.0315707
6.53986
0.0219509
6.19619
0.0219898
0.0215018
0.0225669
2.69967
0.0228254
0.0415912
7.09092
0.0222848
0.0220639
7.73492
0.0218795
9.54985
0.0220876
0.0277669
11.8473
0.0221268
0.0220949
0.0218543
18.4471
0.0244994
0.0218664
0.649356
0.0219534
0.0221979
0.0745864
24.613
0.156188
8.26933
8.32746
0.0654106
0.022874
0.151296
0.278535
0.0216707
0.0218306
0.0224121
0.0245531
0.0705297
0.0219885
0.0243567
0.0218998
0.0219559
6.59074
0.0222249
12.892
0.0215206
0.0275734
0.0513801
0.0218229
0.0214952
7.38022
7.42367
0.0582266
0.0220788
0.0239171
0.0434187
0.0217584
0.0296141
0.0914721
0.0334136
0.0228007
8.34077
26.3512
0.0215292
0.0221326
0.0216397
0.0221943
0.0222129
0.0247624
14.0982
0.0221196
0.0219547
0.0364242
25.2439
0.0215287
2.23547
0.0215307
0.12722
0.0491492
8.36869
0.0562027
0.0486592
0.0512351
0.0214607
0.0214901
0.28699
0.0243617
0.0220855
0.932871
0.0218113
0.0220827
0.021603
0.0429145
0.167809
0.52206
0.124542
0.0255023
0.0276161
0.021759
14.1274
0.212134
0.0225437
0.0219683
0.0216795
0.0795654
9.47833
0.0335618
9.50016
0.0225863
0.0217396
5.81481
0.0218898
8.51174
9.29692
0.0216552
0.0276809
0.365843
0.0234025
0.0334367
0.0217898
6.25496
0.0243614
0.135821
4.95209
7.72116
0.0252759
0.0252341
0.0221346
0.141051
12.1267
0.0223026
0.022974
6.03785
0.0451617
0.0602374
0.0222635
2.8297
5.16211
0.0861037
0.0218973
0.0244809
0.0218906
2.84941
0.0622452
0.0297699
6.71451
6.39277
0.0214546
0.15306
0.0220988
5.37022
0.0815335
0.0243678
0.0235758
0.921336
0.0213802
0.051689
6.97498
8.38957
0.0225231
0.0220305
0.0217825
0.0773682
3.25464
0.18527
7.93381
0.0831109
0.0380114
0.0217188
6.95206
0.0650465
0.0268745
0.154684
6.09713
5.89092
5.70034
11.9468
6.83365
6.85851
0.0219444
0.0274897
0.030015
0.0216875
15.2496
0.924714
0.0220185
1.47905
0.0221283
0.0219877
0.0217654
0.0275464
0.0218647
6.674
0.0559804
0.229572
0.0215629
0.526119
0.0439603
0.458043
5.32854
0.0221572
0.0252299
0.0352877
0.0604552
0.0216889
0.021557
0.0218868
6.17902
0.0217704
0.0216972
0.275078
0.0225344
22.3122
0.0220444
6.73071
0.0219411
0.022059
0.0218892
0.0219148
0.0245561
0.0235513
7.22776
0.0293688
0.0311421
9.2446
0.0217821
8.93596
0.021782
8.98719
3.16491
6.97664
0.0557862
0.0218962
0.0222726
7.04701
0.0217889
0.0242417
0.0221098
0.026369
7.9152
0.0218809
0.0218439
0.0218621
0.0222653
9.06486
9.52956
0.0217636
0.0214225
6.85197
9.50303
0.0218586
5.69161
0.0222643
9.39883
7.95083
0.0566476
0.262414
0.893365
0.0759341
5.92242
0.0674922
0.0219118
0.0215151
0.0217773
9.31275
9.41735
0.0225124
0.0269899
5.89841
0.0218158
6.61375
0.0216886
0.0217272
0.0215827
5.91998
0.0615823
0.0216917
5.96024
0.0222526
0.556204
6.41436
0.0216837
0.022111
0.102088
0.0219449
0.0217803
0.0218252
6.50713
0.0300454
0.0220303
0.022129
5.08161
0.0218926
0.0378915
0.0219831
6.32203
0.0221
0.0907827
0.0229692
5.86547
1.12905
0.0290023
0.071672
0.0473831
0.0220731
0.0677849
6.55077
0.0216829
0.0702398
0.0217558
0.549306
0.0218916
7.39328
3.79743
0.0919525
5.86435
5.9544
0.0382879
0.0220822
4.25697
0.021928
11.2264
0.0243698
0.938402
0.0218341
0.0307715
0.043535
0.0287718
0.0220095
0.0219019
0.0221954
9.37566
0.0647731
5.82039
6.3285
0.0263932
0.021592
0.0496458
10.2728
0.0315093
0.0217057
0.0220783
8.8562
4.10169
10.0598
6.62717
0.033012
0.0221169
0.0217677
0.0444267
0.0464096
0.839709
0.0219984
0.0220684
32.1696
0.0588808
0.0222853
0.0508988
0.861165
0.0927398
0.0215367
0.0444807
0.539495
0.953414
5.27443
0.155662
0.0218519
0.022269
0.0218598
0.0222849
0.0219018
0.0220893
0.0313893
0.181734
0.0311972
0.0250098
0.0272659
0.0221875
0.0250158
0.0220793
0.0326288
0.030799
0.0217771
0.0266549
0.0218673
0.0218373
0.0221935
0.0221216
0.303665
0.021553
0.0694886
0.542382
1.45532
7.38066
7.01927
0.0221259
0.0222368
0.0218969
8.862
0.0216633
0.021444
0.0221735
6.33868
0.029492
0.0301808
0.444716
0.0228469
0.0220324
0.0278046
0.0218755
0.044387
0.0222854
0.0320143
0.0217524
0.0218783
0.0224679
0.0229184
0.023581
0.648037
0.0324365
0.0974097
0.0536243
0.0991561
0.0404191
0.0615491
0.021659
6.06536
0.0238583
0.025507
0.0218843
0.0221807
0.106116
0.0219782
0.0582368
5.74092
0.0280096
0.350217
0.0986085
0.0493839
0.0631755
0.0547293
0.0219209
0.0267003
0.0220887
0.071335
0.0472998
8.80783
0.0217473
0.0441676
0.0254277
7.84414
0.180737
0.0409875
0.0220957
0.0475563
0.0215534
0.0577296
0.0223463
8.34607
0.0216264
0.0249738
0.0220173
0.0336611
0.107535
0.028789
4.86649
0.0220398
0.0268138
0.0551747
0.0220164
0.430484
9.5168
0.130379
0.044878
0.0434833
0.0216734
0.021683
4.73763
0.0939103
0.0215389
0.0220567
0.0242798
0.0218773
0.336494
0.0217361
9.40529
0.148423
0.115333
0.0348185
0.0221645
0.0216417
0.0217166
0.135784
0.0724504
0.0256532
6.19742
0.0221731
0.0227278
0.026088
7.16944
0.0214445
0.203002
0.0213817
8.88104
0.0219043
0.0218961
0.0359209
0.0219827
0.0220864
0.134581
0.0219888
0.0221156
0.0216913
0.0407603
0.02443
6.04704
0.0219867
0.022004
0.0218433
0.106927
0.0217937
0.0272824
0.0351717
6.84163
8.17193
9.70111
0.699757
0.388608
0.0379371
0.0563968
0.0261988
0.0222509
0.0221217
8.56517
0.0522311
0.0215238
0.0219593
0.0219503
0.0252327
0.0745514
0.022252
0.0287974
0.102693
0.125481
0.0997127
0.0219626
0.0222376
6.65458
0.0227943
0.0215267
6.49783
1.11862
0.0216628
0.0213974
0.0255895
0.022055
0.0357432
0.0222485
2.81958
0.0222726
6.15924
0.0218235
6.44927
0.0278415
0.0218898
0.0506779
0.021552
0.0217541
0.0222648
0.0295558
0.557364
0.021827
0.143252
0.0222855
0.0221995
0.100547
0.0215938
0.0221273
0.0221009
0.0214375
0.0218957
0.0214594
0.0221653
0.48949
0.0218536
0.0216731
0.0522971
0.0215961
0.0219278
0.0221667
0.0219575
8.88833
0.354918
0.0218545
0.0222772
0.0217464
0.0222855
0.147794
0.022054
0.0219815
9.48946
0.0219554
0.0401236
0.0467824
0.0353995
0.0217085
0.152043
0.0218666
0.187419
0.0626651
0.0217233
1.85674
4.61763
0.0270608
0.103822
0.0217938
0.0218532
0.0418185
0.143487
0.0216885
0.021853
0.0219828
0.0375951
0.0221018
0.0338349
0.022109
0.0429947
0.420571
0.0365024
0.148125
0.0218128
0.0233319
0.0224449
0.0229536
0.0216661
0.0218626
0.0224401
0.0228875
0.0608701
0.0221561
0.0828633
0.0217053
9.34918
0.0214856
0.0217666
0.0667001
0.0222714
0.100294
0.0746703
0.0348136
0.02173
0.0224484
0.0217662
0.0347426
0.0219887
0.0510812
0.0240052
0.0220343
0.0216376
0.0261221
4.2025
0.0299514
0.0476339
6.44473
1.98585
0.0361174
0.0215564
8.97822
0.02187
0.0227855
0.0222243
0.0805752
0.0217897
0.0331382
0.0265593
0.0229286
0.0221208
0.0242799
0.0221999
0.0505905
0.0219267
0.0221851
0.0218679
0.0266564
0.51365
0.0218744
14.7326
0.0774021
0.0214214
7.04432
0.190887
0.021668
0.0226242
0.0744823
0.0217752
0.0218931
6.58281
0.0220261
8.99578
0.0246859
0.0237214
0.0224097
0.0220167
0.0218715
0.0216915
0.0558516
0.0223174
0.021957
0.0218702
0.0219056
7.79658
0.0342429
0.0219611
0.0277081
0.118964
0.0601411
0.02188
0.0218552
0.0219052
0.0239734
0.0225072
0.0222256
0.0249736
3.25696
0.0216765
0.0224865
4.62348
0.0236824
0.0947003
0.148218
0.021839
0.0222699
0.75818
0.0701466
0.272651
6.4517
9.06065
0.132074
0.499815
0.0216616
0.0225368
0.0216743
0.0221861
6.24376
0.0219244
0.0473208
0.0542485
0.0264073
0.0241063
0.552765
0.0219003
0.0221149
0.0242093
0.0219278
0.022048
0.0216783
0.021788
0.0572514
0.0219295
0.0220375
0.0217483
0.0423651
0.0221319
8.14152
0.021909
0.0223818
0.0218102
0.0222523
0.0223439
0.0218386
0.0352298
0.0226186
0.0219222
0.0265695
0.0218655
0.0222645
0.0219157
0.0295408
0.0220461
0.0220333
0.0220466
0.0220593
0.026033
0.0220195
0.0220057
0.0854075
0.0220735
0.0218719
0.0229121
6.28271
0.0443032
0.0220152
0.0439066
9.66745
0.0953318
0.139134
0.0232304
0.0223804
0.0247796
0.596673
0.0218951
0.226804
0.0220936
0.0218877
0.0266346
0.0220511
0.0624793
0.0680306
0.0571175
0.0224959
0.0218458
0.0266468
0.0259664
0.0226001
0.0234962
0.0226322
0.0409873
0.0673647
0.0614826
0.0218682
0.022961
4.62687
0.0227404
0.0222852
6.8285
0.422674
0.0218553
0.0220939
0.0224989
0.0672696
9.76402
0.02195
0.329251
0.909111
0.0361266
0.0525043
0.021554
0.0229224
0.0222335
0.0665525
0.022232
0.0282924
0.0226762
0.183925
0.0221935
0.0220607
5.08563
0.0227358
0.0226577
0.0219514
0.0222127
0.0352481
6.60606
0.0263681
0.0220422
6.19626
0.0846653
0.0220291
0.0219007
0.0218086
0.0233588
0.0216061
0.145346
0.0218378
0.0235226
0.0240716
0.0489286
0.0250752
0.0217568
0.0258676
0.0234326
0.0217805
0.0841678
0.0217186
0.0227691
0.0216689
0.0222719
17.2634
0.0260653
0.0220096
5.80918
0.0223343
0.0219392
4.30159
0.0563786
5.94293
0.0218767
0.0224461
0.0218722
0.022199
0.0225366
6.93784
0.0221187
0.0716634
0.0216893
0.021825
0.0227843
0.02182
0.0344723
4.64693
0.558576
0.0219447
0.021712
0.273309
0.0223328
0.021944
0.025127
0.0249805
0.376316
0.0763062
0.0223983
5.88155
0.0763491
0.0221842
0.02167
0.0219905
0.0271089
6.22639
0.0222839
0.0545578
0.0222606
0.0220891
0.021518
0.0219638
18.6499
0.0258677
0.0216981
0.0230934
0.0220944
0.0245445
0.0214023
0.0225027
0.0218243
0.0223644
0.366676
0.0219444
0.0222127
0.0776085
0.0215686
0.0215156
3.83616
0.0218774
6.0905
5.70973
13.1543
0.0253318
0.0220321
0.0214828
0.0221386
0.021452
0.022986
0.194535
0.0422624
0.373422
0.07316
0.0233537
0.021543
0.0224099
0.0222484
0.0222726
0.0220225
0.0215068
0.0657737
0.0221981
17.7854
0.0220704
0.022324
0.0222633
0.0218958
5.52509
0.118376
0.0274107
0.0214788
0.0437305
0.0224858
0.0219676
0.0692318
0.0214323
0.0226207
6.76789
0.0219531
0.0218716
0.0218735
3.95104
5.61066
0.0215262
0.0222569
0.0233152
0.0220075
0.0215377
0.0218566
0.0220748
0.0218638
0.021819
0.0218957
0.0231683
7.31246
0.0358972
0.0219281
0.0219239
0.0220279
0.0219373
0.0221772
0.0248101
0.0264706
17.4557
0.0243414
0.0220453
0.022164
0.0219399
0.0747518
0.0215675
0.0222231
0.0228296
0.0267786
0.0256279
9.15973
0.0219572
0.0271641
0.0222852
0.0222393
0.0221047
0.0215202
0.0224083
0.0886993
0.249121
0.0216848
0.031679
0.0644947
0.0222648
0.0336098
0.0353993
7.58051
0.0222494
0.0229386
0.0221421
0.02156
0.0616417
0.0219533
0.021997
0.0435843
0.181267
0.230425
0.0217116
0.021869
5.71543
5.94155
0.021524
3.83669
0.881464
0.0218167
0.0215342
0.0215883
0.0219863
0.0221395
0.0215051
0.0267061
8.01089
0.0216988
0.0219543
0.0216644
0.0221573
0.0217797
0.0217809
0.0214964
6.99105
0.0218612
0.265315
0.022044
0.0217729
0.0224517
0.0218039
0.0221754
0.0262366
0.0221539
0.0221565
4.33487
0.0219893
0.0236844
0.0219733
0.0219177
0.0221405
0.0217964
0.0949784
0.0220574
0.0221059
0.0218551
0.209151
0.0286012
0.0219531
0.0221748
0.0219318
0.0225454
6.29776
0.0228212
0.0230487
0.0219443
0.0221229
0.0218991
0.046521
0.0225853
0.0223459
0.407209
0.0404371
0.0217702
0.0237872
0.0218634
0.0220719
0.0217482
6.47695
0.0219568
0.0220568
0.0217892
0.0283887
0.0227412
0.0222538
0.0218717
0.0217648
0.0522732
8.78838
0.0217685
0.0511877
0.0228756
0.0228214
9.15732
0.0217012
0.0219822
0.021945
0.0229157
0.0225843
0.0217881
0.0234867
0.0219025
0.0780147
0.0214628
0.0217046
0.0237184
0.0221412
0.079994
0.0241609
16.0866
0.053905
0.0222118
0.100486
5.94162
0.0220901
0.0234189
0.0220673
0.0242914
0.021759
0.0333566
0.0400634
0.0218821
0.0276098
0.021639
6.11416
0.0220027
0.022788
7.01961
0.0366928
0.0230935
0.129406
0.0221553
0.0219937
6.23701
0.0216918
8.84786
0.0218413
0.0218612
0.0631462
9.4132
0.0219077
0.0397163
10.011
0.0218523
0.0221741
0.0219186
0.0251889
0.0240095
0.022365
0.0220041
5.85606
0.0219586
0.0222279
0.0219313
0.0218718
0.0220372
0.0228116
0.0272961
7.29298
0.0222314
8.36687
0.0219327
0.0222128
0.0236923
0.0222003
0.0510398
0.0512451
0.022114
0.0219003
0.0218209
0.0798242
0.0216722
0.0218157
0.566126
0.117607
0.0216603
0.0220026
0.0217307
0.0220872
0.0237634
0.0706651
0.0219614
0.0221277
0.0217344
0.0219546
0.0219598
0.0214863
0.0249881
6.10301
0.0216795
0.0219521
1.19977
0.0219034
0.0354866
0.0220682
0.0269098
0.0448446
10.8354
0.0222612
0.0220544
0.0217807
0.021959
0.0220418
0.0214166
0.0221432
0.0221277
0.0226218
0.046747
0.0237026
0.0227841
7.87709
0.0220282
0.122268
0.021679
0.0216839
0.0220143
6.99324
0.0218261
0.0485396
0.0224848
0.022266
0.0219318
0.021709
0.0216657