/*--------------------------------*- C++ -*----------------------------------*\
| =========                 |                                                 |
| \\      /  F ield         | OpenFOAM: The Open Source CFD Toolbox           |
|  \\    /   O peration     | Version:  v2012                                 |
|   \\  /    A nd           | Website:  www.openfoam.com                      |
|    \\/     M anipulation  |                                                 |
\*---------------------------------------------------------------------------*/
FoamFile
{
    version     2.0;
    format      ascii;
    class       volVectorField;
    location    "500";
    object      U_0;
}
// * * * * * * * * * * * * * * * * * * * * * * * * * * * * * * * * * * * * * //

dimensions      [0 1 -1 0 0 0 0];


internalField   nonuniform List<vector> 
10042
(
(0.995192 0.00619328 0)
(0.998071 0.000674316 0)
(1.02526 0.0154781 -5.40968e-22)
(1.0069 9.36352e-05 0)
(0.820538 0.175489 1.28108e-19)
(0.998698 0.000634207 -4.98612e-21)
(0.680141 -0.212933 0)
(1.05297 -0.155108 4.65416e-20)
(1.02093 0.0143451 -2.95933e-22)
(1.00044 0.00270122 0)
(-0.246367 0.0536401 -2.55796e-19)
(1.0108 0.000151254 0)
(1.01253 0.00253329 -2.05585e-21)
(1.0131 0.00114431 -3.67737e-21)
(0.960926 0.0410785 3.0091e-20)
(0.998779 0.0021124 2.85108e-21)
(0.998673 0.0024644 2.60982e-21)
(1.00002 0.000215137 0)
(0.99536 0.00586964 0)
(0.695245 0.254934 0)
(1.00206 0.00367701 3.19458e-21)
(1.02804 -0.0784636 -8.04644e-21)
(1.01198 0.000580479 2.47315e-22)
(1.01073 0.00439487 -2.71344e-21)
(0.998194 0.000400758 6.26312e-21)
(1.05752 0.0164661 -1.39207e-20)
(0.998919 -0.00121844 -9.2395e-21)
(0.99063 0.0439753 3.31291e-22)
(1.0136 0.0192452 5.35272e-22)
(0.997215 0.0393398 0)
(0.996706 -0.000706246 1.20286e-20)
(-0.127284 0.0482001 0)
(1.00045 0.00245123 3.32198e-21)
(1.01124 0.0358207 1.03713e-21)
(1.04753 0.0432187 0)
(1.01035 0.00449521 -1.44184e-21)
(1.05598 0.0194274 0)
(1.05659 0.00300441 -4.02603e-21)
(1.01013 0.00420448 -1.34891e-21)
(0.999051 0.0987894 5.53122e-22)
(0.666892 0.248293 0)
(0.968319 0.0412256 0)
(0.606401 -0.2132 0)
(0.990254 0.0245705 -3.98786e-21)
(0.806703 0.183881 4.16599e-20)
(1.06656 -0.0172365 -2.65455e-20)
(0.976535 0.0270368 -1.0773e-20)
(1.04078 -0.0226783 5.08002e-21)
(1.05417 0.0277685 6.68739e-21)
(1.04859 -0.0100991 4.11974e-22)
(1.00022 0.000250949 0)
(1.03114 0.00335636 -7.71616e-22)
(0.96101 0.0309932 0)
(1.03448 0.0044848 2.09347e-22)
(1.05632 0.0210415 1.38115e-20)
(0.998678 0.000811187 0)
(1.01424 0.0192946 4.25503e-22)
(0.977133 0.0259778 8.73487e-21)
(1.01181 0.0347121 -6.26789e-22)
(0.963123 0.0312899 -1.51052e-20)
(0.997462 -0.000379415 7.43776e-21)
(0.996713 0.00165725 3.76058e-21)
(1.04852 0.0454279 0)
(1.02457 0.0155698 0)
(0.969202 0.00844516 -1.19666e-20)
(1.01402 0.0340976 2.67896e-22)
(0.97656 0.00522388 -2.64509e-20)
(0.743525 0.1688 -2.70232e-20)
(-0.0751235 -0.0144153 2.89572e-19)
(0.996998 0.0208661 2.67252e-21)
(1.03414 0.00402794 2.38894e-21)
(0.650611 0.259188 -6.91986e-20)
(0.989261 0.0242471 -4.46549e-21)
(0.872288 0.0477905 5.95507e-20)
(0.977894 0.00230358 -7.92681e-21)
(1.01096 0.00464951 1.50411e-21)
(0.721519 0.161645 -2.40761e-19)
(0.995388 0.00510141 0)
(0.907147 0.0697887 1.16915e-20)
(0.6311 -0.244532 -1.27744e-20)
(1.05223 0.0274717 6.84179e-21)
(0.961169 0.195501 -9.57662e-20)
(1.00173 0.0293091 4.72688e-21)
(0.971124 0.0356116 -2.8335e-21)
(0.976559 0.00424789 -3.74276e-21)
(0.999991 0.000495077 0)
(0.995405 0.00803673 1.0061e-22)
(1.15348 0.24512 3.2341e-20)
(0.985841 0.0138474 6.04212e-21)
(0.995718 0.0081605 1.35205e-20)
(1.02162 0.0272785 -1.35651e-21)
(0.964509 0.205483 1.08686e-19)
(0.991399 0.0456316 -1.17604e-20)
(1.03071 0.00357536 -5.99159e-22)
(0.996342 0.0380597 0)
(1.00873 0.024502 -2.35563e-21)
(0.997918 0.00546143 0)
(1.0043 0.0232359 -3.80096e-21)
(0.999111 0.0955041 -2.25424e-22)
(1.01769 0.0179623 0)
(0.999995 5.6761e-05 -4.9511e-21)
(1.17401 0.171214 1.37982e-20)
(1.0319 -0.148159 2.19705e-21)
(0.999992 0.000562131 -4.19836e-22)
(0.985644 0.0401376 -7.38888e-21)
(1.03864 0.177396 1.39048e-20)
(0.993355 0.00506841 7.02384e-21)
(0.997915 0.00575992 0)
(1.002 0.00344474 8.14394e-23)
(1.01836 0.00237648 0)
(1.0071 0.00113214 4.82672e-21)
(1.00048 0.0166527 -3.53496e-21)
(1.02626 0.0642757 -1.69192e-21)
(-0.132812 0.00348641 -6.55439e-20)
(0.970223 0.00766864 1.07447e-20)
(0.998515 0.0147742 3.94092e-21)
(0.992298 -0.000732159 -1.03101e-20)
(0.995188 0.00541489 0)
(1.00925 0.0239106 1.60452e-21)
(0.133068 0.0839271 8.06739e-20)
(0.986081 0.0130699 1.04332e-20)
(1.04616 -0.149405 -3.83796e-20)
(0.992794 0.0277691 -6.71754e-21)
(0.994797 -0.00169321 1.1252e-20)
(1.17357 0.160431 -4.29873e-20)
(1.00103 0.0297531 -5.44869e-21)
(1.06298 -0.156599 -4.3451e-20)
(1.05724 0.0390624 5.67838e-21)
(1.0311 0.173789 0)
(0.996058 0.00914073 4.64912e-21)
(0.904466 0.0749737 -1.4943e-20)
(0.98063 0.0124861 0)
(-0.100527 0.100967 -5.69562e-20)
(1.13231 -0.102647 -1.24296e-19)
(1.01704 0.0180292 -2.07718e-22)
(1.09967 0.146685 8.33465e-20)
(0.0159891 0.0635448 -1.88251e-19)
(1.02167 0.0283746 -1.20851e-21)
(1.03949 -0.0253252 -4.56956e-21)
(1.15941 0.254758 3.66989e-20)
(0.980449 0.0405077 -1.27379e-20)
(0.991907 -0.000859359 1.3332e-20)
(0.981709 0.0354096 -7.3834e-21)
(1.23542 0.115264 -7.44836e-20)
(1.02824 0.0048337 -9.41533e-23)
(1.00029 0.0161409 3.68684e-21)
(1.11936 0.109443 -7.9163e-20)
(1.02136 0.00395899 3.11647e-22)
(1.00421 0.0240775 3.94235e-21)
(1.00456 0.0699944 1.31918e-21)
(1.02263 0.0137874 0)
(1.00002 9.0883e-05 5.21941e-21)
(0.303336 -0.358978 0)
(0.0958601 0.1164 -1.3122e-19)
(0.999549 -0.000544767 0)
(1.01254 0.0022527 4.1277e-21)
(0.959017 0.00224653 -1.46854e-20)
(0.996461 0.00172628 -4.88288e-21)
(1.09836 0.154224 -2.1744e-20)
(-0.0488313 0.0810979 0)
(-0.272652 0.0432661 0)
(1.14951 -0.0544126 8.89315e-20)
(0.995725 0.000341068 0)
(1.02221 0.0142508 -5.76041e-22)
(1.00457 0.0316903 -2.19095e-21)
(0.981371 0.0116543 -1.07182e-20)
(0.949731 0.221872 3.18753e-21)
(0.504467 0.287304 2.07616e-19)
(-0.0859724 0.024621 1.0702e-19)
(0.136055 0.123502 7.9077e-20)
(1.0333 0.0063204 -2.55683e-21)
(1.00202 0.0089128 4.56425e-21)
(1.10418 0.229207 -1.62756e-20)
(0.69827 0.306429 7.62442e-20)
(0.911664 0.133345 7.55791e-21)
(0.387465 -0.0504042 2.6057e-20)
(-0.220329 0.130343 8.21799e-20)
(0.991414 0.0262653 0)
(0.729344 0.187291 6.74842e-20)
(1.04903 0.0834556 6.25911e-22)
(0.956773 0.00260768 1.57574e-20)
(-0.127694 0.0255334 2.95948e-19)
(0.975289 0.00738216 1.48602e-20)
(1.05576 0.040263 9.07564e-22)
(0.968511 0.0387979 -1.27806e-20)
(0.155313 0.0750931 0)
(1.20308 -0.0972835 -3.80285e-20)
(1.01229 0.030549 0)
(-0.267175 0.0408325 0)
(1.03771 0.0338841 -6.71645e-21)
(0.781676 0.716112 0)
(0.980083 0.0348338 8.47639e-21)
(0.244469 -0.366796 4.19128e-20)
(1.26143 0.248051 7.86164e-21)
(1.09958 -0.0474865 4.73061e-20)
(1.48546 0.0780153 -1.47013e-19)
(1.04763 0.0230557 0)
(0.994251 0.00427885 1.6761e-20)
(1.01226 0.00205973 -1.09552e-22)
(1.0187 0.0489474 -2.3257e-21)
(0.891754 0.116432 -1.58878e-20)
(1.0131 0.0309033 0)
(1.00161 0.0170096 0)
(0.722016 0.328654 -3.91162e-20)
(0.975212 0.0062329 -8.12041e-21)
(1.01251 0.0114899 -8.34642e-22)
(0.868192 0.74298 -1.01697e-19)
(0.999279 -0.000464977 1.01386e-20)
(1.00002 0.000247649 -5.82311e-21)
(0.999898 1.54256e-05 -1.46701e-20)
(1.50418 0.0801847 0)
(1.01278 0.000419313 0)
(0.945094 0.211662 0)
(1.0293 0.386729 6.50397e-20)
(0.960441 0.00401337 0)
(1.21553 -0.101503 6.04531e-21)
(0.980885 0.00162939 1.2911e-20)
(0.999089 0.00372407 -3.98276e-21)
(1.14315 0.08418 7.95245e-20)
(1.00556 0.0117832 0)
(1.02899 0.0642826 1.83291e-21)
(0.957354 0.00957007 0)
(1.10725 0.353623 -1.54137e-21)
(1.0572 0.00155913 0)
(0.946122 0.0531719 1.49467e-20)
(1.05835 0.0134 0)
(1.10668 -0.142728 -1.4068e-20)
(0.999388 0.0154876 -3.61963e-21)
(1.20073 -0.0529458 -5.98604e-20)
(1.03464 0.0034326 -1.3723e-21)
(1.0215 0.0139938 7.06486e-22)
(0.828777 0.33574 2.43704e-20)
(1.00174 0.0084624 -2.92955e-22)
(1.03445 0.0030363 7.50669e-23)
(1.02562 0.0160519 -2.51109e-21)
(1.00696 0.0715912 7.41483e-23)
(1.01099 0.0129371 6.31256e-22)
(1.01363 0.000795935 0)
(1.03758 0.0206041 -9.91957e-21)
(1.03951 0.000141291 -5.78451e-23)
(0.995717 5.83897e-05 0)
(0.991705 0.0275699 1.88917e-20)
(1.00451 0.0305517 3.8768e-21)
(1.02558 0.0669813 6.79269e-21)
(0.998853 0.014311 -2.552e-22)
(0.996865 -0.000574334 -7.67741e-21)
(1.01012 0.00101805 2.43189e-21)
(0.986059 0.0420074 7.42267e-21)
(1.03381 0.00528908 -2.43637e-21)
(1.00002 0.000172349 5.19398e-21)
(1.01227 0.00134062 -2.31359e-21)
(0.997515 0.0201995 4.88811e-21)
(0.987755 0.0624694 -9.35931e-21)
(1.1163 0.362601 3.85579e-20)
(1.157 -0.0500298 -6.6413e-20)
(-0.26928 0.0453877 1.96006e-19)
(0.904408 0.137027 -2.29445e-20)
(0.926226 0.134649 0)
(0.960251 0.0435269 -2.62632e-20)
(1.06853 -0.0228549 0)
(0.66059 -0.139226 -5.10101e-21)
(1.03637 0.0205408 9.11764e-21)
(0.993543 0.0046772 5.78346e-21)
(1.01341 0.000806924 1.65525e-21)
(1.01695 0.0484528 -2.67352e-21)
(1.01076 0.012482 0)
(1.01921 -0.0829365 0)
(1.03734 0.00931866 4.04994e-21)
(0.995684 0.00890498 5.18096e-21)
(0.999949 8.45871e-05 1.71434e-20)
(0.88228 0.11706 4.20939e-20)
(1.03437 0.00507643 -2.8342e-21)
(1.03924 0.373698 -5.37987e-20)
(0.91955 0.138688 0)
(1.19927 0.220527 1.95849e-20)
(1.03831 0.0352057 8.95943e-21)
(1.03908 -0.000319389 4.01407e-21)
(1.01 0.0120824 2.76565e-21)
(1.04479 0.011249 1.22557e-20)
(1.02864 0.0051524 8.24317e-22)
(1.05223 0.0857168 0)
(0.989341 0.0148076 0)
(1.0579 0.0181315 0)
(-0.0493809 0.115561 1.45571e-19)
(1.01213 0.0112439 -1.54848e-22)
(1.02264 0.0169187 -1.1812e-21)
(0.730936 -0.143985 0)
(1.06912 -0.0188299 2.96328e-20)
(1.01222 0.0296947 8.5963e-22)
(0.99731 -0.000746493 1.35632e-20)
(0.988609 0.0599773 7.98207e-21)
(0.392731 -0.0106199 0)
(1.11155 0.018724 0)
(1.2451 0.109104 0)
(1.00018 0.000201343 -2.51473e-21)
(1.01235 0.00179114 -3.26584e-21)
(0.999614 0.0160543 2.29949e-23)
(1.021 0.0149099 6.3199e-22)
(1.0964 -0.140505 5.41962e-20)
(0.993051 0.0120518 0)
(0.997419 -5.35014e-05 -3.62756e-21)
(1.00167 0.00987854 0)
(0.981028 0.000589467 0)
(1.05313 -0.00127859 -5.86833e-21)
(0.967042 0.0499712 9.00038e-21)
(1.08698 0.209299 0)
(0.907077 -0.164359 1.1239e-20)
(0.964582 0.029129 0)
(1.23127 -0.292758 -8.69941e-20)
(0.998885 0.0131493 -3.88468e-21)
(1.04387 0.0114147 -1.18531e-20)
(0.998753 -0.00137291 -9.97652e-21)
(-0.100339 0.0742583 1.43161e-19)
(1.18267 0.142455 7.98267e-20)
(1.39018 0.282546 0)
(-0.221562 0.166215 0)
(1.01162 0.0048595 3.16261e-21)
(1.03754 0.00889399 0)
(0.997283 0.0217276 -3.08302e-21)
(0.975638 0.0564644 -7.83014e-22)
(1.05901 0.0150725 -9.31735e-21)
(0.999999 0.000355886 0)
(1.04213 0.0973753 -9.54543e-23)
(1.00742 0.0011951 -1.09024e-21)
(1.01397 0.000569503 0)
(0.990361 0.0260153 4.10404e-23)
(1.09145 0.217471 2.57098e-20)
(0.999994 0.000147236 0)
(1.03592 0.0335415 0)
(0.981903 0.00975305 -6.50492e-24)
(0.969094 0.048708 -4.62528e-22)
(-0.180694 0.0465109 3.42208e-19)
(0.998589 0.0136516 2.61228e-22)
(0.999447 -0.000549758 -5.174e-21)
(1.00128 0.00103039 1.46618e-22)
(1.02429 0.0147947 -1.749e-22)
(1.06431 0.125305 -2.41951e-20)
(1.09575 -0.0492182 -3.91236e-20)
(0.934252 0.138664 0)
(1.22286 -0.226398 6.00617e-20)
(1.05436 -0.000645054 -5.08016e-22)
(1.05307 0.0398041 1.48025e-20)
(0.981103 0.0103894 6.85267e-24)
(1.01332 0.00110696 -1.88491e-21)
(1.02486 0.0264603 0)
(1.00002 0.000190933 0)
(1.19206 -0.178448 -5.04775e-20)
(0.989538 0.015402 3.19922e-22)
(1.01328 0.0349972 -2.68438e-22)
(1.03793 -0.00634817 0)
(1.00108 0.0172193 -3.47972e-21)
(0.978864 0.0627613 5.467e-21)
(0.970765 0.037881 2.64364e-20)
(1.03392 -0.00678563 3.21212e-21)
(1.02743 0.0104603 -1.12317e-21)
(0.947686 0.0509794 2.35621e-20)
(1.03095 0.166334 -1.69211e-20)
(1.03784 0.0970321 0)
(1.02091 0.046405 -4.21993e-21)
(0.993631 0.00335974 5.82599e-21)
(1.24027 -0.252109 0)
(1.12533 0.107342 8.09881e-20)
(1.03174 0.0138402 2.63621e-21)
(1.06476 0.119165 0)
(0.999556 0.00500305 0)
(1.00178 0.00806482 -3.99956e-21)
(0.999714 0.00500132 0)
(0.976211 0.0628934 -1.28784e-20)
(1.35097 0.269922 0)
(1.0387 0.0038481 3.29032e-21)
(1.00001 0.000342139 0)
(0.966497 0.0294651 0)
(1 6.03469e-05 5.56117e-21)
(0.999988 0.000202792 0)
(0.711977 0.272577 0)
(0.994145 0.00391038 -5.51736e-21)
(1.01725 0.00922572 -8.31182e-22)
(0.0446213 0.0695285 1.799e-19)
(1.00329 0.00588039 0)
(1.03768 -0.145179 2.14449e-20)
(1.17504 -0.184188 0)
(0.872012 0.054875 -8.44112e-20)
(0.368066 0.109459 3.43635e-22)
(-0.258981 0.0463624 -4.41731e-20)
(0.99977 0.086815 -3.35587e-22)
(0.807311 0.332615 -2.66072e-20)
(0.999263 -0.000700389 -5.02344e-21)
(1.04915 -0.0104077 0)
(0.999998 8.0863e-05 -1.25213e-20)
(0.976866 0.0230189 -6.44058e-21)
(0.996471 0.0237987 -3.80224e-20)
(0.9996 0.00156387 0)
(0.973473 0.0579948 5.71852e-21)
(0.651153 0.923425 1.12195e-19)
(1.01151 0.000511212 0)
(1.00196 0.00381066 -6.64489e-21)
(0.788303 0.0942284 0)
(0.814429 0.63946 -4.42314e-21)
(1.01363 0.0328799 6.15241e-24)
(1.02077 0.00439897 -2.72974e-22)
(-0.0950042 0.0109167 1.49468e-19)
(1.18457 0.153644 -5.5192e-20)
(1.002 0.00934697 -2.93048e-21)
(0.739092 0.153773 -3.1525e-20)
(-0.226977 0.0404448 1.92043e-19)
(1.00593 0.0120672 2.14907e-21)
(1.00001 0.000281353 6.35017e-21)
(1.01422 0.00944719 2.41653e-21)
(0.996821 0.0110761 0)
(1.01391 0.000677688 0)
(1.01216 0.0106388 2.46226e-21)
(1.21223 -0.267544 0)
(1.03928 -0.152913 4.83701e-20)
(0.976184 0.0242161 -2.09491e-20)
(1.04424 -0.121164 -7.27165e-20)
(1.01294 0.000980122 1.93468e-21)
(0.993229 0.0112861 0)
(1.26551 0.285583 3.5944e-20)
(1.02869 0.0135436 5.19871e-21)
(1.03977 -0.149118 0)
(1.11599 0.0160387 0)
(0.969496 0.0343713 -1.30494e-20)
(1.01833 0.00775723 4.61835e-22)
(1.02033 0.00440231 -4.27233e-22)
(1.04554 0.30575 2.92015e-21)
(1.03385 0.00607057 0)
(0.995905 0.0881521 1.18402e-21)
(0.991303 0.0379878 0)
(-0.240748 0.0559588 2.53338e-19)
(0.962445 0.00344717 0)
(1.33685 0.278941 0)
(0.963673 0.0407579 -7.13373e-22)
(1.00086 0.00449426 -1.113e-21)
(0.998754 0.0153731 0)
(1.16639 0.34143 0)
(1.00057 0.0042804 -4.79413e-21)
(0.920122 0.012396 -3.45978e-20)
(0.994967 0.0155343 0)
(1.02688 0.0105113 0)
(-0.05691 0.0931207 0)
(1.04826 0.025923 5.59902e-22)
(0.991768 0.000385609 8.67919e-21)
(1.0076 0.000723304 0)
(-0.0496482 0.0277326 -5.63903e-20)
(0.996401 0.0101133 -9.13363e-21)
(1.04955 0.0267404 -6.77866e-21)
(1.01354 0.0496429 0)
(1.01024 0.0124995 0)
(1.20857 -0.125126 2.19686e-19)
(0.318363 0.0627076 0)
(1.00232 0.00466508 4.51085e-21)
(0.971824 0.00802243 -4.90653e-21)
(1.03939 0.00401693 -3.42037e-21)
(1.01214 0.00155301 3.93522e-21)
(0.998699 0.00310241 7.595e-21)
(0.994152 -0.00269799 1.73599e-22)
(-0.0417997 0.0397827 -2.72865e-22)
(0.995352 -0.00268824 0)
(1.01304 0.000530844 0)
(0.96919 0.0913474 0)
(1.03383 -0.140992 -2.78893e-20)
(1.13227 0.0746152 -8.62476e-22)
(1.00001 0.00020653 5.66183e-21)
(1.04992 0.0788984 0)
(-0.205023 0.0501133 0)
(1.05333 -0.00279744 -6.35635e-21)
(0.991281 -0.00301449 8.19716e-21)
(0.99397 0.00305314 -1.13289e-20)
(1.14294 -0.101289 0)
(1.031 0.0137326 6.73412e-21)
(1.00087 0.00427313 -3.18996e-21)
(0.906333 0.0589569 1.12975e-21)
(1.02176 0.0153345 8.06074e-22)
(1.01186 0.0104587 -1.59642e-21)
(0.955433 0.0108197 0)
(1.01359 0.00510074 3.26318e-21)
(0.955629 0.14664 0)
(0.992945 0.00532666 -7.61602e-21)
(1.00044 0.00428556 5.03502e-21)
(-0.259448 0.0486054 1.82392e-19)
(1.0057 0.0047179 -6.6854e-22)
(1.03267 0.00593556 1.72854e-22)
(0.999757 0.00161734 4.47783e-21)
(0.992308 0.0366889 0)
(1.04446 0.0923058 -1.04555e-20)
(1.00218 0.00448004 -4.25655e-21)
(1.0236 0.0147236 -1.02736e-21)
(1.37952 0.291814 0)
(0.994494 0.0414427 5.01996e-22)
(0.777501 -0.270051 0)
(1.0357 0.0216552 -2.21406e-21)
(1 0.000104769 -5.58845e-22)
(1.00001 9.15163e-05 8.16167e-21)
(1.18422 0.190546 -8.97683e-20)
(0.989003 0.0116535 1.12114e-20)
(0.991799 8.08961e-05 7.24989e-21)
(1.00102 0.00109246 0)
(1.0325 0.012873 0)
(0.949342 0.0776157 -1.3512e-20)
(0.795303 -0.210082 1.35256e-20)
(0.996023 0.00986501 0)
(0.949077 0.143401 0)
(0.685454 0.740205 0)
(1.05248 -0.00333085 -1.05704e-20)
(1.00001 0.000275697 0)
(0.993558 -0.000612195 1.21355e-20)
(1.02955 0.00866388 0)
(0.999969 0.000534804 0)
(0.998093 0.011742 -9.32781e-21)
(-0.0394187 0.0273228 1.45025e-19)
(-0.0199213 0.063205 0)
(0.999638 0.00138533 0)
(1.05687 0.0368879 1.15849e-20)
(1.04793 0.00285567 0)
(1.04714 0.00310594 0)
(0.976948 0.00164454 -8.93193e-21)
(1.009 0.00116359 -3.73797e-21)
(1.04722 -0.127277 0)
(1.05439 0.297989 3.0766e-22)
(0.717624 0.714027 0)
(1.01781 0.00769034 0)
(1.03009 0.00907674 3.0451e-21)
(1.02799 0.0137091 -4.57241e-21)
(1.00314 0.00601212 2.12262e-21)
(-0.0490563 0.0447329 -2.85746e-19)
(1.06018 0.0859722 1.62501e-20)
(1.03235 0.0135835 -5.98199e-21)
(1.01337 0.0222026 9.34327e-22)
(1.00593 0.000499014 0)
(0.979042 0.000254699 0)
(1.046 -0.137747 2.49813e-20)
(1.04869 0.0242147 -1.145e-20)
(0.998997 -0.00127719 1.11973e-20)
(-0.0438854 0.0400356 7.23444e-20)
(0.793038 0.603201 8.09918e-21)
(1.00563 0.420838 0)
(1.04697 0.176087 1.62397e-20)
(0.998764 0.00274921 -7.63261e-21)
(1.01688 0.0188395 0)
(1.04797 -0.011472 0)
(1.11254 0.0988797 -2.83994e-20)
(0.119976 -0.0679051 4.61858e-20)
(0.685888 0.324154 -1.95842e-19)
(0.947188 0.0446875 -5.28651e-20)
(0.916627 0.0102395 3.82814e-20)
(1.00001 0.000538483 -6.77814e-21)
(1.03554 0.0319925 5.9879e-21)
(0.97265 0.00852207 -1.55624e-20)
(1 0.000602014 8.9333e-21)
(-0.272156 0.0445031 2.50256e-19)
(1.01041 0.00110744 0)
(0.998687 0.0125354 3.87933e-21)
(1.06058 -0.0150145 0)
(0.999969 0.000468995 0)
(0.985061 -0.0571755 -2.18782e-21)
(1.03456 0.0213492 -5.89495e-21)
(1.06841 -0.068454 0)
(1.01149 0.0926487 -4.06572e-21)
(0.999927 -3.94875e-05 0)
(1.03741 0.0119175 0)
(1.04899 0.0414098 0)
(1.04408 -0.00902397 -8.63639e-22)
(1.05085 0.171377 -6.27412e-21)
(0.948154 0.268517 -2.19421e-22)
(0.99999 0.000131175 -4.30391e-23)
(1.04788 -0.0103282 -3.03456e-21)
(1.01979 0.041858 -3.72562e-21)
(1.00777 0.0242288 1.24324e-21)
(1.0002 0.00110346 -6.75602e-21)
(1.02488 0.0273786 4.94135e-22)
(0.996758 -0.00300175 -8.24297e-21)
(0.945604 0.0473376 -1.85493e-20)
(1.13142 0.0699784 0)
(0.849015 0.107041 0)
(0.999004 -0.00149535 1.11116e-20)
(0.993498 0.0427725 0)
(1.00106 0.00103106 2.61936e-21)
(0.991069 0.00298659 -1.59091e-20)
(0.793374 0.314704 0)
(1.00174 0.00305259 -5.88387e-21)
(1.01014 0.050436 1.01763e-23)
(1.03032 -0.0754199 2.01836e-20)
(1.01329 0.00490539 -3.32322e-21)
(1.1128 0.105593 3.64202e-20)
(1.04996 -0.0095639 0)
(0.997131 -0.000862251 -8.04974e-21)
(0.132779 0.0571294 2.47091e-22)
(1.07349 0.00463478 0)
(0.999914 0.000396313 0)
(1.25115 -0.07973 -7.02338e-20)
(1.02693 0.015731 -1.88142e-22)
(1.00001 0.000219327 5.91345e-21)
(0.981595 0.00544803 0)
(0.994755 -0.000770815 0)
(0.999996 8.3167e-05 -6.74624e-21)
(1.03664 0.0387041 0)
(0.978144 -9.81235e-05 4.38834e-21)
(0.837133 0.552947 4.00601e-21)
(0.9823 0.0410921 -7.7796e-21)
(0.993872 -0.000277808 -8.65388e-23)
(1.01584 0.0318936 0)
(1.04858 0.0925456 6.61055e-21)
(1.06737 0.0197855 0)
(0.994575 -0.00200173 -1.33569e-21)
(1.04139 0.00998641 7.1056e-22)
(1.01632 0.0189009 3.39861e-22)
(1.05502 0.0030563 3.28213e-21)
(0.98369 0.000458205 0)
(1.00825 0.0955129 1.97114e-21)
(1.01772 0.00948662 6.5802e-22)
(0.951933 0.0035582 -4.42313e-21)
(1.01965 0.00477131 0)
(0.999949 0.00532332 5.4615e-21)
(1.10181 -0.302824 4.47988e-20)
(1.01382 0.00957729 -1.29142e-21)
(0.79651 0.297385 -2.38929e-20)
(0.993933 -0.0023652 1.14923e-20)
(1.03493 0.0120217 -3.05893e-21)
(1.00619 0.00460195 2.36898e-21)
(1.06273 0.0108958 -9.93294e-21)
(0.999772 0.00145485 0)
(1.07604 0.00419707 0)
(1.01313 0.0289514 -8.58192e-22)
(1.24499 -0.0655874 6.14772e-20)
(0.999975 0.000199229 0)
(0.713027 -0.180061 4.47187e-21)
(1.02149 0.00367345 0)
(0.96855 0.0462071 4.6486e-22)
(0.999979 3.43238e-05 0)
(0.979898 0.00219867 2.00986e-20)
(0.999473 0.00469052 7.24387e-21)
(1.03551 0.0392654 4.45554e-21)
(0.996741 -0.00253688 9.17987e-21)
(0.660249 0.213487 6.4181e-20)
(0.88684 0.554341 -9.27427e-20)
(0.982015 -0.0476527 1.82204e-21)
(1.04155 0.01915 1.20977e-20)
(0.939319 0.133511 1.79173e-20)
(1.00268 0.017517 0)
(0.973771 0.148117 -2.95068e-22)
(1.06416 -0.017503 -2.27466e-20)
(1.00054 0.00249843 -1.12457e-20)
(0.912362 0.0599786 4.89159e-20)
(0.942648 0.282039 0)
(0.188472 -0.108407 0)
(1.05064 -0.0109844 -1.85786e-21)
(1.27255 0.356153 5.48129e-20)
(1.05147 0.041965 -1.53149e-20)
(0.994132 0.0316062 0)
(0.999999 0.000400014 0)
(1.04305 0.0108833 1.23328e-20)
(1.03763 0.0364531 -1.4291e-21)
(1.04357 -0.00695598 3.70805e-21)
(1.01138 0.0045866 1.4452e-21)
(1.02375 0.0444518 -3.07414e-21)
(1.15882 -0.039389 5.30442e-20)
(1.00002 7.9992e-05 5.65133e-21)
(0.991065 0.00245969 8.98678e-21)
(1.04212 0.00939967 0)
(0.573788 -0.263405 1.64135e-19)
(0.970627 0.0450557 0)
(1.047 0.0762815 0)
(1.04773 -0.0121253 5.02735e-23)
(0.99994 1.96599e-05 -1.21836e-21)
(0.557569 -0.248925 0)
(1.01113 0.00529406 -1.63275e-21)
(1.00233 0.0102328 -5.02013e-21)
(0.998627 0.0394679 0)
(1.02177 0.0158773 -1.38997e-21)
(-0.0906226 0.075459 -1.29634e-19)
(1.05825 -0.0217199 0)
(0.436051 -0.223514 0)
(1.00076 0.000325068 5.5514e-21)
(1.2047 0.371649 0)
(0.209166 0.0392006 9.20195e-20)
(1.1657 -0.171917 0)
(1.04413 -0.00660999 -3.14171e-21)
(1.06591 -0.0235305 0)
(1.18828 -0.0547104 1.44752e-21)
(1.00078 0.152503 7.81491e-22)
(0.981729 0.00866286 -2.10484e-22)
(0.99453 0.0160078 0)
(0.90321 0.0638651 0)
(-0.157132 0.0690476 7.91801e-20)
(1.0038 0.0178793 -7.73256e-22)
(0.966988 0.095201 0)
(0.881856 -0.297965 0)
(0.992626 0.00634852 1.66886e-20)
(1.00037 0.00601622 1.38924e-21)
(1.0073 0.0247834 -4.27459e-21)
(0.985115 0.0455037 7.56976e-21)
(0.999337 0.00472615 -1.67357e-21)
(1.02834 0.00980794 0)
(1.17292 0.195126 -2.79078e-20)
(1.42122 0.0646486 5.61454e-20)
(1.02775 0.00979182 9.45509e-22)
(0.999218 0.00349872 -5.73274e-22)
(-0.128859 0.0935042 0)
(-0.0313148 -0.418307 -6.89623e-20)
(1.00218 0.0176968 0)
(0.991825 -0.00300792 -8.84207e-22)
(1.00022 0.00030166 0)
(0.996413 0.0108251 0)
(1.26226 0.301233 0)
(1.05594 -0.0207136 1.0163e-20)
(1.01033 0.384093 -3.46057e-20)
(0.983837 0.0397143 7.76378e-21)
(1.00029 0.00630328 0)
(1.02281 0.0126737 1.28571e-22)
(0.955373 0.000624031 -1.64415e-20)
(0.997687 -0.000614644 -8.62694e-22)
(1.05923 0.00738539 1.72595e-20)
(0.968184 0.0273646 0)
(0.752819 -0.133997 -8.15125e-22)
(0.998423 0.00294061 1.25098e-20)
(1.00031 0.00136373 -9.99269e-21)
(1.03851 0.139599 0)
(1.00373 0.0171089 3.92282e-21)
(1.04712 -0.00376693 -2.07213e-22)
(0.882788 0.233471 2.44236e-20)
(1.0365 0.0121785 -6.30047e-21)
(0.921183 0.661918 -2.42616e-20)
(0.355742 -0.194272 0)
(0.992886 0.0314992 1.19681e-21)
(0.998218 0.0123931 4.92376e-21)
(1.18713 -0.298061 -1.71794e-19)
(-0.23159 0.0614299 1.46105e-19)
(0.983415 0.132523 -5.39503e-21)
(1.02632 0.0155594 1.95039e-22)
(1.0623 -0.167976 2.60208e-20)
(0.764918 0.360728 9.92715e-21)
(0.923348 0.0192687 -2.43252e-21)
(0.982555 0.00799003 -1.22982e-20)
(1.0012 0.00087422 -6.40747e-22)
(1.00179 0.00329779 5.44778e-21)
(1.05542 0.37623 7.18529e-20)
(1.04081 0.0196055 -4.04036e-21)
(0.784402 0.258777 0)
(1.00001 0.000234108 -7.33617e-22)
(-0.171057 0.0341942 -3.50411e-19)
(1.35333 0.24774 -8.17747e-20)
(0.993691 -0.000954102 0)
(0.996885 0.00264688 -8.31513e-21)
(0.673736 0.201115 -1.13853e-19)
(0.999223 -0.000438674 -1.41848e-20)
(1.00647 0.00470142 -6.09946e-21)
(0.993978 0.0689318 0)
(-0.0376568 0.103038 1.3358e-19)
(0.285212 -0.176913 0)
(1.20271 -0.30293 3.83291e-20)
(1.03214 0.00635537 2.53558e-21)
(1.07948 -0.0150563 3.55115e-20)
(1.00087 0.145004 -4.49263e-21)
(1.00975 0.00425895 -1.70576e-21)
(1.00546 0.000286864 1.44499e-22)
(0.999591 -0.000638859 0)
(1.06477 0.363978 -6.79814e-20)
(1.00004 0.000525877 0)
(0.993776 8.93362e-05 -1.20044e-20)
(1.07624 -0.0155792 -2.30441e-20)
(0.977759 0.00338192 4.16144e-21)
(1.13784 0.0899313 -2.86629e-20)
(1.00041 0.000398718 6.4689e-21)
(0.998534 -0.00139993 6.51613e-21)
(1.0077 0.000992246 3.56377e-21)
(0.99914 -0.00134416 0)
(1.12703 -0.0933988 4.47303e-20)
(1.00003 0.000586547 0)
(0.997179 0.0192186 0)
(1.08052 0.0138942 2.10798e-20)
(0.932298 0.210273 0)
(0.828959 0.468064 1.18871e-20)
(0.999943 0.000438 -7.31226e-21)
(1.17434 0.0387022 0)
(-0.210559 -0.45177 2.21843e-20)
(0.769681 -0.262921 -9.544e-20)
(0.967329 0.0348936 1.29475e-20)
(-0.0565499 0.0756447 0)
(-0.0668544 0.0508117 -1.31975e-19)
(0.992938 0.00605448 -7.59794e-21)
(1.01226 0.00260166 0)
(0.980257 0.0384902 4.25911e-21)
(0.951682 0.0215038 0)
(0.176582 -0.29835 -1.65888e-19)
(1.0153 0.050235 0)
(1.00021 0.00105731 -6.80359e-21)
(1.00003 0.000538017 -6.47988e-21)
(0.0496304 -0.416847 -1.04183e-21)
(0.975312 0.141093 0)
(1.03159 0.00600912 -2.65289e-22)
(1.00018 0.000942625 -7.93102e-22)
(0.991338 -0.00210971 8.01039e-21)
(1.07153 0.116895 0)
(1.006 0.00484985 7.13947e-22)
(1.00418 0.000420278 3.87839e-21)
(1.05437 0.00422121 9.2021e-21)
(0.98455 0.0435866 -7.60884e-21)
(0.999682 -0.000608271 0)
(1.01851 0.0161216 -2.46783e-24)
(0.738315 0.591462 -3.58451e-21)
(1.02204 0.0172368 9.63558e-22)
(0.988564 0.0440163 -6.42991e-21)
(0.996623 -0.00313126 1.32206e-20)
(0.994635 0.0382021 0)
(1.22726 0.138322 -1.21516e-19)
(0.999944 0.00050203 7.78387e-21)
(0.974793 0.0424426 -2.68987e-21)
(0.997762 -0.00247066 -1.53274e-20)
(1.04616 0.0234729 0)
(0.658646 0.518704 4.39668e-20)
(1 7.22965e-05 0)
(0.840205 0.447586 0)
(1.03018 0.0620949 -3.88344e-21)
(0.264517 -0.24043 -1.08223e-19)
(1.01157 0.000572041 -1.6219e-21)
(1.02032 0.0479762 2.44532e-21)
(1.05295 0.00412473 -1.11357e-20)
(1.17568 0.0442283 5.65826e-20)
(0.789206 0.107139 2.65375e-20)
(0.96816 0.0260612 3.64311e-21)
(1.2249 0.337556 -6.92825e-20)
(0.927717 -0.137975 5.23849e-21)
(0.96458 0.0141819 -1.36219e-20)
(1.00754 0.00054932 -2.82615e-21)
(1.15075 -0.174082 0)
(0.997909 -0.00300965 7.00674e-21)
(1 0.000339177 -4.02601e-22)
(1.00849 0.0119036 -1.34561e-23)
(1.00001 0.000361733 0)
(1.10726 0.028161 1.62269e-21)
(1 1.13589e-05 0)
(0.999995 7.86076e-05 0)
(0.870563 0.229683 -1.64229e-20)
(1.01071 0.0883372 2.21037e-21)
(1.00999 0.000140145 -1.11782e-21)
(0.924459 0.0944582 0)
(0.957662 0.00731498 -2.66829e-20)
(1.02998 -0.15639 0)
(1.03741 0.0182275 -8.5839e-21)
(0.823109 0.526246 4.31339e-22)
(0.996877 0.0117774 -4.90457e-21)
(1.06288 -0.0151021 2.36963e-20)
(0.982068 0.139508 3.30999e-21)
(0.696422 -0.308443 -4.97796e-21)
(1.04195 0.0265323 0)
(-0.105419 0.0519283 0)
(1 0.000240808 1.86241e-22)
(1.04004 0.00220033 0)
(1.0007 0.0012464 4.33898e-21)
(0.994817 0.0304363 0)
(0.988269 0.0116347 1.88485e-22)
(1.06596 -0.0641406 0)
(0.864833 0.116378 0)
(1.04692 -0.01028 4.82118e-21)
(-0.259038 0.0433633 -6.44966e-20)
(1.00014 0.00113427 -1.62147e-21)
(1.03183 0.869023 0)
(1.03925 0.00093859 -2.36429e-21)
(1.01425 0.0178458 0)
(0.878539 0.0447393 8.68748e-21)
(1.0629 0.0318193 6.31452e-21)
(0.363052 -0.203144 0)
(0.996635 0.00267729 -4.3544e-21)
(0.945364 0.0773882 -1.74435e-20)
(0.929337 0.198516 -1.03248e-20)
(1.01197 0.051117 -1.11315e-23)
(0.839304 0.10906 0)
(1.00001 0.00012236 -5.63888e-21)
(1.01134 0.00275241 0)
(1.00001 0.000112078 5.45967e-21)
(0.968358 0.416412 -7.43094e-21)
(0.999081 -0.000233928 1.51686e-21)
(1.00037 0.00273183 -1.02212e-20)
(1.00777 0.0112717 0)
(1.00689 0.000897973 -6.44239e-21)
(0.999794 0.00529502 -1.21296e-20)
(0.998972 0.00362412 6.96803e-21)
(1.01635 0.0331535 -3.13692e-22)
(1.00019 0.0104774 4.76043e-21)
(0.999212 -0.000617623 7.12979e-22)
(0.963082 0.00143994 -1.03998e-22)
(0.996168 0.0710714 0)
(0.930188 0.0929188 -2.40742e-21)
(0.995145 -0.00236754 0)
(0.328636 -0.266693 0)
(0.99784 0.0274114 6.07118e-21)
(1.19943 0.366916 0)
(0.898074 0.1222 3.24695e-20)
(-0.00588252 0.00361834 1.29679e-19)
(1.077 0.0615527 0)
(1.03958 0.00253348 7.4699e-22)
(-0.0681913 0.0267629 0)
(1.0695 0.0205264 1.55387e-20)
(0.997628 0.403812 0)
(1.0084 -0.220147 -3.19799e-20)
(1.07208 0.111236 0)
(1.00001 0.000589706 6.83669e-21)
(1.00168 0.00938433 -2.36526e-21)
(0.998239 0.0474525 0)
(1.23765 0.131936 8.95719e-20)
(1.0065 0.0247516 0)
(0.0850936 0.143139 0)
(0.999862 0.0219263 -3.2155e-21)
(1.07219 0.668415 3.98675e-20)
(0.631322 -0.178366 -9.5462e-21)
(1.04714 -0.0122282 0)
(1.03387 0.0222992 1.95523e-21)
(0.103847 0.0644753 -8.76059e-20)
(-0.147844 0.0570405 -1.63543e-19)
(0.949394 0.00385468 4.8319e-21)
(0.994637 -0.00136864 0)
(0.999975 6.72481e-06 -1.17119e-21)
(1.04141 0.0109884 4.89506e-21)
(1.01154 0.00265987 0)
(1.00875 0.000927901 1.78594e-21)
(1.0892 0.158319 0)
(1.00179 0.0347476 2.26624e-20)
(0.997888 -0.00261591 1.23426e-20)
(1.00583 0.0242919 2.72357e-21)
(0.964984 0.00106335 1.01686e-22)
(1.17395 0.338574 3.44511e-20)
(1.04796 -0.0113934 0)
(0.99943 0.00016441 -7.08706e-21)
(1.02867 0.0592265 4.39708e-21)
(1.14975 -0.00546839 6.37663e-20)
(0.991977 0.0395279 0)
(0.999184 0.00248985 -6.75188e-21)
(0.04458 0.13386 -1.06928e-19)
(0.983963 0.0315321 -9.16537e-21)
(0.993337 0.0125596 0)
(0.908744 0.897633 7.42886e-20)
(0.991278 0.0593596 -7.06746e-22)
(0.982047 0.000103226 0)
(-0.0926714 0.0840016 0)
(0.162989 0.0094255 0)
(0.225482 0.0667248 0)
(0.991117 0.00418369 8.19998e-21)
(0.97496 0.0448351 1.31873e-20)
(1.21275 -0.149331 0)
(1.008 0.0117726 3.47436e-21)
(1.01301 0.023026 -1.10685e-21)
(0.999995 0.000154774 0)
(1.0429 -0.00160182 -9.11004e-22)
(0.997612 3.04537e-05 -3.45523e-21)
(1.00044 0.000372175 -7.3296e-21)
(1.03487 0.00247607 -1.83981e-21)
(0.799881 0.0864624 -4.63279e-20)
(0.897302 0.38042 7.12512e-21)
(1.00479 0.0116949 0)
(0.983979 0.00479505 1.21354e-20)
(0.997933 -0.00340502 -6.86669e-21)
(1.01277 0.0215796 0)
(0.981789 0.0372594 8.19158e-21)
(1.01058 0.00293133 8.16373e-22)
(1.18128 -0.043874 -2.9195e-20)
(0.995065 0.0925322 -1.77782e-21)
(0.990384 0.0218175 1.1159e-20)
(0.995663 0.00146876 -5.68305e-21)
(1.00585 0.011176 4.32874e-21)
(1.00097 0.00297898 9.23049e-22)
(1.0218 0.0320183 0)
(0.00239466 0.115902 -1.17695e-19)
(1.05562 0.0157998 2.85149e-20)
(1.02093 0.00396405 -3.27935e-22)