/*--------------------------------*- C++ -*----------------------------------*\
| =========                 |                                                 |
| \\      /  F ield         | OpenFOAM: The Open Source CFD Toolbox           |
|  \\    /   O peration     | Version:  v2012                                 |
|   \\  /    A nd           | Website:  www.openfoam.com                      |
|    \\/     M anipulation  |                                                 |
\*---------------------------------------------------------------------------*/
FoamFile
{
    version     2.0;
    format      ascii;
    class       volScalarField;
    location    "700";
    object      ddt0(omega);
}
// * * * * * * * * * * * * * * * * * * * * * * * * * * * * * * * * * * * * * //

dimensions      [0 0 -2 0 0 0 0];


internalField   nonuniform List<scalar> 
9793
(
-0.000322239
-0.0187549
0.00176178
-6.64908e-06
0.0155008
-0.000215997
1.40358e-05
-1.47107e-05
-1.05418e-05
-0.00308802
0.00121402
-0.0762816
-1.66073e-05
-0.000100585
9.65882e-06
-3.52777e-05
0.000122404
8.80165e-06
-0.537808
-0.000113699
-0.069458
0.000107531
-0.0327012
1.01551e-05
7.83047e-05
-2.35577e-05
0.000198087
2.84003e-05
0.00129067
-1.98769e-05
0.00177326
-0.0241473
0.2223
-6.15311e-06
0.00126605
0.0263971
-5.426e-06
7.86957e-05
1.25289e-05
-1.54936e-05
0.00168776
8.94889e-06
-2.33109e-05
-2.68765e-06
-2.96849e-05
-1.85199e-05
0.00128291
0.122695
0.0581179
-3.93299e-06
0.00122545
0.00142659
-0.000225957
9.00523e-06
0.00496795
-0.123908
-4.24342e-06
0.00191037
0.615132
-1.53471e-05
3.46592e-06
-0.000190246
0.582405
2.05079e-06
0.129558
0.253604
0.419477
0.161317
0.000934784
0.00125108
0.00345248
1.52735e-05
-5.28274e-05
-0.0748742
0.0012041
0.538044
-1.68446e-05
6.73736e-05
3.13536e-05
2.66777e-05
0.172296
-1.65446e-05
-0.0123802
0.077006
0.00100489
0.119095
4.76998e-05
-2.21971e-05
-0.000150278
4.07181e-05
-0.0244859
0.0376555
-1.29428e-05
-0.0241703
-0.000164723
0.0664292
-0.0761787
-0.0184936
-6.01024e-06
-1.30923e-05
-1.18299e-05
-1.50792e-05
1.44968e-05
1.2781e-05
0.000355368
0.000529139
-0.000147112
-7.41732e-06
-0.000178518
0.115556
1.81372e-05
-0.0522885
5.17632e-05
-0.241891
0.00142555
-1.36857e-05
0.244128
0.00120081
0.000138997
-0.0197332
0.124872
1.86127e-05
9.79789e-06
-0.000252364
4.96755e-05
-0.057298
0.000595732
0.119509
0.000135373
-3.72992e-05
2.437e-05
-2.21334e-05
-4.02771e-05
-2.79785e-06
-8.67896e-06
-1.82573e-05
-1.1509e-05
-2.79635e-06
3.66727e-05
-1.45994e-06
-2.05706e-06
8.4275e-05
1.0384e-07
-2.14406e-05
-0.000126932
-0.000158571
-0.019428
-2.19193e-05
-1.29892e-06
0.0585327
-1.67059
2.10186e-05
-0.825171
0.000837087
-3.83633e-07
1.81321e-05
2.69891e-07
7.90002e-05
-1.5773e-05
-4.43987e-07
-2.69193e-05
3.8454e-05
3.4611e-05
-0.313637
-0.0325884
-0.0531506
0.128704
0.000521013
9.57089e-05
-3.27542e-05
6.56827e-06
-0.0114127
-0.0209875
0.0647924
3.29846e-05
-0.517855
-1.81839e-05
4.60589e-06
-2.34292e-05
0.000545959
-0.124963
9.123e-05
-1.66943e-05
8.18966e-05
0.221561
-3.92383e-05
0.00349153
-2.38271e-05
1.17076e-05
1.586e-05
3.57329e-05
-3.22751e-05
0.0348761
-0.05256
0.318007
0.000540226
-0.000781287
-3.12807e-05
0.0057006
-4.83332e-08
-6.96537e-06
-0.222326
-0.139346
-3.07018e-05
-1.41796e-05
0.000197229
-0.0116404
-1.21409e-05
-0.000302515
0.0001031
0.000806077
0.0141935
0.132496
1.42623e-06
0.00707894
1.7017e-07
-2.91807e-05
0.101037
0.00010861
-0.112079
0.000558281
-2.15368e-05
5.24658e-05
-3.53919e-05
0.103689
-0.319552
-0.000211141
-1.51439e-06
0.00101349
0.0012527
2.84393e-05
1.16665e-05
8.36e-05
9.23329e-07
0.000870912
-0.0308271
1.60735e-05
8.48556e-06
-0.0944924
-1.75971e-05
-0.000195615
1.19957e-05
1.69003e-05
0.206318
-5.91506e-06
-1.86884e-06
-2.04457e-05
8.5508e-05
-4.03127e-06
-5.95238e-06
-9.40847e-06
0.000335004
0.00144465
0.000709253
2.77509e-05
0.000101584
-1.09838e-05
0.000361302
-0.00019188
-8.56527e-06
0.0405441
-1.24117e-05
0.00146019
-1.24964e-05
0.000563334
2.7589e-05
-1.32056e-05
0.000804179
-0.14756
-0.000105445
-1.20847e-05
9.13099e-06
0.000379982
-2.65042e-05
-0.0272956
-0.0222839
-5.07892e-05
-0.0502104
-3.71632e-05
0.000697467
8.23649e-05
3.54341e-05
-7.65966e-06
-1.44897e-05
0.000531461
-2.40753e-05
-1.5771e-05
0.00051076
1.14438e-05
-1.5155e-05
3.40483e-05
0.253504
-0.000125198
-9.44645e-06
2.25622e-05
4.54471e-06
5.92226e-05
0.000500352
-4.47783e-05
-0.191363
2.09159e-06
-0.0682838
0.137236
-9.71045e-06
-1.30544e-05
-1.91441e-05
0.000392839
0.000360729
7.51002e-05
-0.0637089
-5.68702e-05
-1.60339e-05
0.000348541
-3.58796e-05
-1.35094e-05
-4.4507e-05
0.103102
1.61427e-05
0.000398121
0.000119195
7.46066e-06
-0.0528429
-0.0738754
-0.069207
-2.59992e-05
0.215867
6.31119e-05
0.686557
0.0011428
-5.25354e-06
0.000126621
0.00121446
-1.30893e-05
-0.000236762
0.00133583
-2.45416e-05
-2.96e-05
2.25033e-05
-7.24719e-06
3.72955e-05
-0.00472431
-4.08328e-05
1.0125e-05
-0.0593645
-1.79487e-05
-4.32637e-05
2.12785e-05
3.72454e-05
-2.15408e-05
-0.0108439
6.05871e-05
-1.10041e-05
-3.87265e-05
-1.47623e-05
-0.163576
-6.5606e-07
0.000920369
1.3225e-05
0.00106687
0.00104376
0.00353949
0.00109058
2.41079e-05
1.88461e-05
-0.0341935
2.1875e-06
0.0187922
-4.23502e-05
9.79972e-07
0.0446025
-0.000214775
0.0646699
-1.56787e-05
0.000952595
0.0355709
1.74143e-05
-3.81793e-05
0.248043
0.000429831
-0.0290573
0.000107638
-1.65834e-05
0.0290558
-6.39441e-05
5.99098e-05
-6.42474e-06
-1.48692e-05
7.23904e-05
-5.32919e-06
8.21946e-05
-0.188865
8.58683e-06
-0.104136
-0.0237207
-0.0245175
0.00122898
-0.0687855
2.05964e-06
1.80596e-05
-0.00472399
-0.0233074
2.4551e-05
4.17336e-05
0.568371
7.58541e-06
-0.0974906
1.42779e-05
9.88601e-05
5.85283e-06
0.000910607
-4.50152e-05
0.000451616
-0.0428535
-1.14568e-05
-0.0321296
-0.000793186
6.41121e-05
-0.000243839
-2.02777e-05
-0.000110734
-0.000196101
-1.08256
-3.958e-05
-1.97795e-05
0.00139028
-2.41966e-05
-0.000194019
6.74843e-05
1.48981e-05
0.000630775
6.88016e-06
-2.21355e-05
-7.3464e-06
0.0170825
-5.13306e-05
0.0265315
-2.91984e-05
0.00827597
-1.6904e-05
-2.23546e-05
-1.15775e-05
5.26732e-06
0.408071
-3.17079e-05
0.00575008
1.82309e-05
-1.97758e-05
6.75539e-05
0.615406
-0.00130192
0.00459181
0.00731705
-0.000230358
1.55748e-05
-0.00614289
0.000623627
0.000847699
-0.0144303
0.0424911
-5.59969e-05
0.000194415
0.00100684
5.97874e-06
2.27666e-05
1.2662e-05
1.27425e-05
6.72995e-06
-0.362512
0.000468307
0.0487118
1.71091e-05
0.000366533
5.38395e-06
-6.70514e-06
8.56141e-06
-4.67941e-07
-0.00730088
-3.30561e-05
0.000237566
-9.35991e-06
-8.40712e-06
-0.000185205
0.118808
1.14356e-05
2.8985e-05
0.260022
-0.000280715
6.41775e-05
0.667285
0.0122801
-9.31725e-06
-1.43436e-05
6.65813e-05
-0.000180158
-1.52593e-05
4.34987e-06
-5.44751e-05
-2.63645e-05
-1.42362e-06
1.92545e-05
-0.0152978
0.00155425
-3.43784e-07
0.348624
-0.000302381
-1.37119e-05
-0.000124243
4.51199e-05
-0.0390484
8.20052e-05
-0.181232
-6.18874e-06
1.32026e-05
0.00133003
1.42925e-06
0.000797653
-0.0769566
0.000417827
-1.47706e-05
-0.14771
-0.000227461
-3.83134e-06
4.52281e-06
0.000298096
1.31126e-05
-7.13675e-07
-2.52256e-05
2.13573e-05
0.267045
0.000841008
0.000498204
-0.000157486
1.00145e-06
1.3339e-05
-2.04259e-05
1.55837e-05
-3.84358e-05
0.0780584
0.00346184
1.24845e-05
0.000209831
-0.00261452
-6.02751e-05
0.00453833
0.000157314
1.64802e-05
0.00129264
0.0379968
-2.8254e-05
-0.00447978
3.09026e-05
-0.139297
0.000471703
0.0155617
-4.56311e-05
2.38939e-05
0.000130034
-0.035439
8.37246e-05
0.641617
0.0342295
0.246202
0.000791533
-0.196948
0.000847795
2.49688e-06
0.000610347
0.000100238
0.166332
4.58257e-06
0.00418252
-1.63347e-05
0.0240678
-1.05103e-05
3.14095e-05
2.19148e-05
0.0346828
-1.27289e-05
-6.82448e-06
0.000101593
0.000156718
0.000483179
-5.26761e-05
-2.95348e-05
-6.24507e-05
-6.57091e-05
-0.938223
-8.65949e-06
0.012325
0.318884
-3.4e-06
-1.13482e-05
0.000229372
4.38714e-05
-2.22754e-06
-1.92724e-05
-3.6839e-06
0.000464974
6.1262e-05
0.000155192
1.00106e-05
0.000125041
3.17615e-05
0.000391233
-4.57624e-05
5.00669e-05
-0.123537
-3.0654e-05
-1.08811
0.000360759
1.27883e-05
-2.59007e-05
-2.3687e-05
-0.00017128
-0.000581333
-2.22893e-06
-5.56934e-05
3.69615e-06
1.41209e-05
-5.3535e-05
4.43036e-07
4.25443e-05
-3.57662e-06
3.23014e-05
1.40519e-05
-1.26412e-05
-5.76642e-06
6.27456e-05
0.000655348
-1.80109e-05
-1.35579e-05
-2.57727e-05
2.2916e-06
-3.37421e-05
-3.04605e-06
-3.23537e-05
-2.20277e-06
-3.22198e-05
-1.33618e-05
0.000988078
2.99078e-06
-1.1163e-05
-2.16423e-06
0.00192213
-2.24769e-05
4.19333e-07
0.00108497
2.50986e-05
-7.07016e-05
0.0620377
7.66638e-05
8.63757e-06
9.64304e-06
0.0020294
-2.3114e-05
0.00100009
0.172668
-0.191934
0.253758
-6.87686e-05
-8.05149e-06
-0.0171991
0.000308411
-4.26895e-06
-0.0423284
0.00971295
0.00253712
-1.80684e-05
0.00052723
-9.98952e-06
9.46857e-06
-0.343106
-4.2657e-07
-0.0450853
-0.000103207
0.00154287
-7.17211e-06
0.000246466
3.024e-05
-0.0066055
-0.2418
2.48861e-05
7.51697e-05
0.000409249
-3.50758e-06
-0.000222155
0.00107785
2.19637
-3.79858e-05
-0.000946452
0.00017307
-0.189341
-0.00383312
0.304482
-0.0272769
1.76267e-05
-0.000259458
-0.0768128
2.34836e-05
-1.71983e-05
-9.72952e-07
8.2504e-05
-1.3266e-05
-0.251611
-1.00201e-05
0.0357256
0.000136456
0.0528729
0.00126824
-1.91223e-05
0.00475032
0.258799
3.90161e-05
0.0265141
-0.000327672
0.00078317
-1.20033e-05
1.63028e-05
0.143232
-4.88e-05
-0.231977
-1.15149e-05
-0.0101566
1.14107e-05
0.110381
0.0876618
1.43632e-05
-0.378326
-2.57515e-05
0.000109814
0.000914651
0.295421
0.422077
-1.46187e-05
1.47765e-05
-5.79071e-06
-0.213443
0.511991
-4.05479e-05
-0.000353466
0.0140707
-7.4768e-06
8.77431e-06
6.11535e-06
-0.0700129
0.000146517
-5.09198e-05
-7.17323e-06
-2.25654e-05
0.192617
0.000951239
-0.131547
-1.30794e-06
-2.1543e-05
0.000634227
-2.50893e-05
0.0169851
0.00124588
0.0222898
0.122593
-0.0186433
-5.63348e-06
-1.84941e-05
0.000237989
8.6863e-05
0.000418704
-4.45701e-05
0.000516839
-0.030053
1.62591e-05
0.260207
-2.61921e-05
0.0492985
-1.43502e-06
0.0437126
-8.74651e-06
0.000161623
-3.09926e-05
-3.3161e-05
0.00214485
-0.064073
-0.0895798
-5.88275e-05
0.000870436
2.25866e-05
6.14064e-05
0.000252543
1.02264
-6.73329e-06
0.000687424
-1.34381e-05
0.000413297
1.18165e-05
-3.0826e-06
1.06048e-05
-2.21792e-05
0.0559567
-4.99899e-06
0.000122909
-1.50115e-05
2.24943e-05
-1.5402e-05
0.000438751
-1.47206e-05
4.8834e-05
1.10635e-05
-1.52451e-05
-0.0150126
-1.04335e-05
-0.0521359
1.57467e-05
-0.00240222
-5.66579e-06
-0.127277
-7.0135e-06
-0.0685903
-2.47134e-05
-4.43324e-05
-2.32375e-05
-0.00428707
-0.0196127
0.121992
0.0417331
0.00489989
-4.88225e-05
0.000223266
-0.0388982
-3.39364e-05
0.152292
0.176511
0.0001782
0.00205318
8.18476e-05
-0.00815093
-0.000144008
0.0523048
-0.0290966
9.06092e-05
2.01647e-06
-0.0128325
-0.267552
-2.10716e-05
4.46044e-05
-1.69664e-05
6.26422e-05
0.000609775
-2.17483e-06
-3.83656e-05
9.44661e-05
0.0401396
0.000897147
-0.000189699
-0.212326
-2.35613e-05
-2.77043e-05
0.0358952
-0.0429021
0.000540944
-6.59255e-05
-0.000221565
1.08254e-05
-3.2992e-05
0.292131
-1.95782e-05
5.83556e-05
-0.0057695
-0.00346283
1.29218e-05
0.14352
0.0051871
-0.0331668
-0.132183
1.05086
-4.97822e-06
0.122447
-2.82051e-05
-1.95282e-05
-4.12944e-05
-1.39654e-05
2.91707e-05
0.0665799
7.89239e-05
0.264611
-2.80941e-05
-0.0023596
-3.39936e-05
0.000568046
0.000200715
-2.95499e-05
0.00126472
-4.1302e-05
-4.80507e-05
0.00182718
-0.00234246
0.000734504
5.63905e-05
8.85374e-06
-0.00541138
0.0891206
0.00437963
3.24905e-06
4.2031e-06
-0.00021752
0.000138211
-1.80298
0.00182113
-0.143371
0.000913438
0.140398
-5.19516e-05
-0.000128237
-0.00034906
0.000280223
0.00195499
-3.14369e-05
1.55797e-05
-0.0659651
0.00101796
0.49836
-4.10259e-05
-0.160353
-0.100771
1.07231e-05
0.000745403
0.000166796
-0.684564
1.79971e-05
0.000359633
-0.0636776
0.000159487
-3.63963e-05
0.0193428
-3.97959e-05
9.54886e-06
-1.66432e-05
0.0528222
-5.71186e-05
0.000270134
-0.00310626
0.000772106
5.52014e-05
0.000861575
0.0336089
-0.0180577
0.0622353
-4.82936e-05
-7.54409e-07
6.73391e-05
0.000143499
1.07148e-05
0.00497853
-0.0448545
0.000168244
0.0031724
0.0144538
0.220936
1.57062e-06
-0.0136283
-2.92431e-05
-0.00489287
0.000934878
-9.20744e-06
0.260657
0.0185418
-2.63577e-05
-1.54393e-05
1.32891e-05
1.33398
0.124473
0.000540758
0.00137571
0.00252146
-0.0605027
0.467937
-0.212639
-2.2777e-05
2.60035e-05
0.0443969
-0.101714
-3.42905e-05
-5.77532e-05
-1.22099e-05
-1.53216e-05
-3.85518e-05
0.000321671
-0.0456729
-5.51674e-05
-0.000138837
-0.068735
2.94185e-05
1.76185e-05
9.5894e-05
0.00253694
-9.4899e-06
-0.00143951
0.073293
3.66299e-05
-4.98636e-06
4.48166e-05
-7.57506e-06
3.44314e-05
0.0288952
0.123004
5.82472e-05
0.120737
0.000144189
-0.135705
6.26821e-06
-0.000146855
1.90963e-05
-5.55036e-05
-0.00596544
-2.94346e-05
-1.2922e-05
0.000547811
-2.25592e-05
-1.35902e-05
0.000314705
-2.58926e-05
0.00262515
-7.50158e-06
-1.43015e-05
0.0171786
-3.63017e-05
-0.125214
4.53388e-05
-7.6218e-06
0.00340098
-0.000334084
0.000693639
-0.123454
-1.17545e-05
0.00551709
-7.60632e-06
1.60137e-05
0.536668
0.704269
-1.2422e-05
-2.015e-05
-1.82029e-05
4.53703e-06
0.00048213
1.27513e-05
-5.74381e-05
-1.27307e-05
4.54531e-05
5.29063e-05
-6.6587e-05
6.74149e-08
-9.5429e-06
-1.43963e-05
0.231021
3.62496e-05
2.51108e-08
0.000754333
8.34121e-05
-0.163602
0.0354377
0.000496212
-1.75554e-05
-1.72953e-05
0.000954556
-1.11057e-05
7.8598e-06
-6.40123e-05
-0.0812024
0.0104318
-4.57375e-06
-8.85056e-06
0.000785174
0.000215487
2.79929e-05
0.0520581
0.00105862
-5.89943e-05
2.01952e-05
0.00400245
-1.11387e-05
-9.89576e-05
0.257148
2.97244e-06
0.132808
0.00715255
0.00352928
-1.10848e-05
-1.16762e-05
-6.86868e-06
-7.53404e-06
0.00436212
-2.26792e-05
0.356821
0.000953792
-6.7143e-06
4.81931e-05
0.000526718
4.05753e-06
1.40312e-05
-9.96534e-05
-0.000151881
-0.132233
-7.64731e-06
-4.72367e-06
0.154361
-0.000111367
-1.88493e-05
0.00025088
-3.84877e-05
-1.49329e-05
-3.65319e-05
1.9994e-05
0.00516617
2.05447e-05
0.00199192
0.0281743
-1.07839e-05
-9.56915e-06
-8.57755e-06
0.00173426
5.58906e-06
9.58856e-05
-3.14148e-05
-1.41696e-05
0.000754065
1.09427e-05
0.000510757
-2.28439e-05
1.59007e-05
-0.0386925
-0.0956127
-1.54689e-05
-2.01789e-05
4.93426e-06
-0.18994
0.000287115
-5.82045e-05
-0.0434273
-0.164854
-1.73439e-05
0.0190982
-0.088034
0.000238789
0.0370075
-0.00178013
-0.166279
-2.55233e-05
-0.000199513
0.00209104
7.42085e-06
-0.0573282
0.281187
3.55061e-05
-0.284295
-0.407756
4.6297e-05
-0.0204148
-1.43818e-05
0.000548512
0.00105693
5.60166e-06
-0.0109725
-1.79754e-05
0.000917733
0.000510024
-1.26255e-05
0.0116436
-6.61084e-05
-1.83984e-05
0.000746104
0.00020422
1.41951
-0.113455
8.95073e-06
0.000326052
0.876993
-2.3275e-05
0.000260973
-2.01778e-05
-0.010081
0.00495585
0.000570785
3.27821e-05
0.000236542
1.31511
0.726669
0.000508714
-1.29533e-05
-5.04394e-06
0.599829
-0.0124269
-0.182825
5.36814e-05
-4.96591e-06
0.000423178
9.88254e-06
1.5037e-05
5.43027e-06
-4.87039e-05
2.24395e-05
-1.06594e-05
0.0918734
-0.234805
-4.93694e-07
0.126851
3.50188e-05
-0.154031
-0.215455
0.000689551
-0.146099
-0.150549
-1.50628e-05
0.00428084
0.00687303
-0.0560384
-0.019862
-6.45826e-05
0.00463361
-0.0292928
0.000949596
0.000384384
-0.0113316
-0.197989
-2.22749e-05
0.000361593
0.000267542
-3.82968e-05
0.000746739
4.6855e-06
9.58536e-06
-1.9722e-05
-2.06837e-05
-6.2286e-05
-1.13004e-05
8.45335e-06
0.000316158
-0.0528739
1.85699e-05
-0.023966
-2.05781e-05
0.000356799
-2.54062e-05
0.0435171
0.0197245
-2.30677e-05
0.00105216
-1.35453e-05
-1.29614e-05
-4.77096e-05
-4.66019e-06
-2.26051e-05
0.00188192
-1.88366e-05
-0.00140109
4.17878e-05
-1.51402e-06
0.0981576
1.5225e-05
2.6754e-05
-2.65017e-06
-6.9645e-05
-0.0053746
0.000616225
-0.233294
0.267487
-0.00563087
-2.30567e-05
2.53705e-05
5.43817e-05
0.000256843
-0.00565308
0.000387926
0.564484
-1.67711e-05
0.000983852
8.79957e-05
-0.00051929
0.210361
0.00025956
-0.152448
-0.144033
2.12744e-05
0.000870126
1.47262e-05
0.00110503
-0.00012952
0.00168108
0.00108063
-1.82921e-05
-0.404291
-0.0336817
4.83653e-06
0.000109377
3.63788e-05
0.256164
-0.000191772
3.36089e-05
-0.129237
-9.10247e-06
0.176375
4.82471e-05
-7.87949e-05
7.17782e-05
4.12121e-05
0.00186321
-2.81833e-06
0.204917
0.000267393
-2.28167e-05
-2.30894e-05
0.218169
-1.38157e-05
-0.0748475
-0.000149983
2.7281e-05
0.000297539
0.00169312
0.000136617
-4.50845e-05
-0.00280758
1.49196e-05
1.94656e-05
-0.00884968
0.000556282
-1.91154e-05
8.54735e-07
-0.000109875
0.00660816
0.000591382
-5.17478e-06
0.00712728
-0.000132737
0.00134374
-0.0542735
3.38013e-05
-1.64706e-05
0.00176097
-3.59425e-06
-1.8967e-05
-2.81755e-06
0.00117153
-0.360709
-0.000414359
1.07643e-06
3.55882e-05
4.79996e-05
-0.0810279
0.000554779
-1.04556e-05
2.56575e-05
-4.57821e-05
-0.0515828
-1.21319
-0.775804
-1.73925e-05
0.00158817
-1.28765e-05
-5.06051e-06
2.1896e-05
4.23519e-05
0.00112597
1.48343e-05
-0.061105
-0.0219328
-0.405998
0.000257029
-1.80967e-05
-2.2826e-05
0.00103601
-8.81098e-06
-4.00365e-05
0.000520136
-1.20731e-05
-8.51764e-06
1.165e-05
-2.88595e-05
8.72207e-06
-0.222715
0.000919076
2.52341e-05
0.000189903
-0.0426646
0.00015232
-0.0251666
-3.18548e-05
-5.73501e-05
-5.19256e-06
-4.08591e-05
2.0996e-06
2.35007e-05
0.00213776
0.00198713
-1.46144e-05
3.79051e-06
-5.35834e-05
5.84793e-05
9.04955e-07
-0.00355681
7.25648e-05
2.2168
-5.88984e-05
1.46881e-05
-5.84658e-05
0.00148333
1.01551e-05
1.6682
2.02154e-06
-9.03244e-06
4.64696e-06
1.24322
0.000225396
-0.0236294
1.10722
2.05324e-05
9.82265e-06
-2.41046e-05
-1.93693e-05
-0.00397323
-3.93307e-05
0.000357486
0.468797
-3.03988e-05
0.00156436
0.00254488
0.000265954
0.00405855
-2.17046e-05
0.000192183
-2.72929e-06
4.05391e-06
-1.27208e-05
-1.79279e-05
-0.0486389
0.00239949
-5.49981e-06
-0.0932354
0.413052
-6.5904e-06
0.00520021
6.96031e-07
0.000364236
2.64467e-06
5.39103e-06
-0.00301402
-9.9912e-06
8.22825e-06
0.000283126
-0.00439614
0.00121312
4.51266e-05
3.50816e-07
1.76276e-05
-0.29833
0.02376
0.000653257
0.000323781
-1.65705e-05
-2.2021e-05
-0.0206006
-6.44358e-05
0.000716994
-0.0357086
-0.118648
-1.44418e-05
0.000670488
-2.67532e-05
-1.24148e-06
0.000199372
0.000687062
0.000449385
7.24121e-05
3.46437e-05
0.000482661
0.12866
0.0467154
1.48629e-05
0.000324696
0.00145645
0.000266275
0.00111743
-1.01873e-05
9.0519e-06
5.14955e-06
0.00619421
0.00282243
0.000412814
-5.91653e-06
-0.00639486
2.90366e-05
0.000552513
-3.72349e-06
-2.20157e-05
2.1024e-05
2.36834e-05
-0.00593637
0.000256896
0.000102962
7.15485e-05
-1.09767e-05
-1.72269e-05
0.0679473
3.72108e-05
-2.62235e-05
1.80338e-05
-0.000675504
0.000958908
1.69585e-07
-2.57809e-05
2.82323e-06
0.000976029
8.87433e-06
0.00403981
-1.34135e-05
-0.00524398
-1.63676e-05
-6.59603e-05
0.022385
5.63005e-06
0.00078413
3.29963e-05
-5.49199e-05
3.55232e-06
4.58903e-05
0.0118107
-6.41108e-05
5.50428e-05
0.00147165
-4.13711e-05
-1.10593e-06
6.65964e-05
-1.32783e-05
-6.52586e-05
4.99924e-05
0.546239
-1.8551e-05
-8.09384e-06
1.353e-05
-0.0130362
0.000361406
-0.0432361
1.03431e-06
-2.65852e-05
0.0025903
-0.10725
-0.00334828
0.000366451
-0.000406526
0.00169886
-6.5941e-06
0.0827098
-0.000105875
0.005256
-2.93608e-06
-0.0126709
-0.00667785
5.80006e-06
0.000225621
-0.00135617
1.91971e-06
-3.73236e-06
0.252603
-4.10188e-06
-0.000744861
2.08608e-06
-5.55105e-06
1.24183e-05
-2.16547e-06
6.07354e-06
0.00680875
-1.15602e-05
2.43698e-06
4.15709e-06
-5.6139e-05
-1.45104e-05
-0.00472949
-0.278509
-0.0438992
-1.16443e-05
1.66084e-05
0.00024893
2.04814e-05
7.3637e-06
0.00109098
0.000908753
-0.000158054
9.22594e-06
0.00923595
0.000158076
0.0175903
0.186547
4.97381e-05
-5.95855e-06
-6.84175e-08
0.000256803
-0.0614209
-7.44369e-05
-1.72699e-05
0.156772
0.00599662
0.00101539
0.0231276
1.84748e-05
-4.66953e-05
1.22667e-05
-2.98122e-05
2.78576e-05
-0.021161
-0.135388
-0.0100909
-5.71906e-05
0.00416652
1.17182e-05
-2.3589e-05
-1.18708e-05
3.2061e-05
7.42733e-06
0.000939526
-2.05992e-05
-3.30268e-05
-4.46245e-05
-5.47895e-06
-2.53068e-07
-1.72007e-05
0.000465561
-0.00129752
0.0046556
4.54934e-06
5.07261e-06
-4.62753e-07
4.15625e-05
3.00075e-06
-0.0329546
4.2645e-05
4.81191e-05
5.0176e-05
-0.00300516
-3.54667e-05
0.000231604
0.678792
-2.19778e-05
5.71034e-06
-0.461727
-5.05477e-05
1.50968e-05
-5.2049e-05
0.0720871
0.00604397
0.000937407
1.63672e-05
-0.0373051
-1.90959e-05
-5.43833e-07
1.46524e-05
-8.07021e-06
-9.11791e-05
-5.34136e-05
7.89567e-06
0.00108297
-3.43762e-05
0.0372042
-0.000725846
0.000778742
5.18602e-05
-0.00657522
0.000394059
-2.79737e-06
-1.91591e-06
9.27447e-06
-2.611e-05
2.47945e-06
0.0179007
-4.64388e-06
0.037924
-2.2288e-05
-7.10485e-05
0.00262973
-3.36279e-05
0.348236
0.00108501
9.93499e-06
0.369442
-1.53938e-05
-5.27561e-05
-2.97193e-05
1.95722e-05
-1.89567e-05
-3.14291e-05
-4.30041e-05
-6.07072e-05
0.000598374
-1.21071e-05
-8.34914e-06
3.64149e-05
-1.30797e-05
-2.53815e-05
-2.52711e-05
-5.01937e-07
8.30057e-06
-3.3646e-05
-3.55566e-05
3.57501e-05
-7.3914e-06
3.12148e-05
0.671267
3.04651e-05
-1.88025e-05
0.00126894
0.00732319
5.60019e-05
0.000416404
8.90601e-06
1.01244e-05
6.82473e-06
-5.8168e-05
-0.00833002
0.0108394
-2.72856e-05
-3.74644e-05
-0.0206434
-2.13612e-05
0.0555688
0.24438
-1.92122e-05
-0.197901
-1.42238e-05
0.266906
0.000282689
-0.090116
-0.357181
-0.142581
2.42039e-05
-1.6493e-05
8.37423e-06
0.000299028
0.000775957
-1.47957e-05
0.134527
-0.106754
-5.52421e-05
1.92472
0.0428324
0.0005137
1.18341e-05
2.9877e-05
0.000462005
-4.87064e-05
-4.45723e-05
1.86715e-05
2.39346e-06
-5.27128e-05
3.09744e-05
-1.38054e-05
1.20084e-05
0.00180229
-1.62229e-05
-5.14943e-05
-1.57336e-05
1.47542
-1.6501e-05
1.89637e-05
0.0327801
0.00117271
-0.00209143
-2.77229e-05
-2.20575e-05
-3.30717e-05
0.000610953
3.2676e-05
5.61909e-05
0.0745518
-0.000329463
-0.00717606
-2.0252e-05
-0.00565232
0.000359121
0.00146946
-0.00320778
7.86322e-05
-4.21378e-05
2.45224e-05
-3.04128e-06
0.527106
-9.98537e-06
-1.14308e-05
-3.69203e-05
0.000265862
0.141344
-0.0117785
4.41117e-05
6.81391e-05
0.00188268
0.00103862
0.00780018
0.0557232
0.0176019
0.000759065
0.00200757
0.0948992
-1.46865e-05
-1.63399e-05
-3.37975e-05
0.345648
0.000111469
0.00977806
5.52273e-06
-2.03539e-05
-6.78698e-05
0.536389
-2.52151e-05
-6.19126e-05
-3.38611e-05
0.000915389
-5.96208e-07
-3.00766e-06
-4.11342e-07
-0.000213242
-0.569113
-0.000150182
-0.000100562
1.77483e-05
-0.000971515
0.000242997
2.19697e-05
-2.01307e-05
0.0400566
0.0447185
-2.40006e-05
-5.45883e-05
0.0347191
-4.20269e-05
-3.5015e-05
-3.81443e-06
-6.43669e-05
0.00123865
3.46321e-05
2.9899e-06
-1.90505e-06
-1.16699e-05
-6.50418e-05
-2.68861e-05
-1.3683e-05
-2.92485e-05
-4.55593e-05
0.0116493
1.86014e-05
1.10647e-05
0.00121967
-0.00255906
0.000738867
0.000333444
-1.23248e-05
-0.00720471
-4.44647e-05
6.0956e-05
-8.39344e-06
0.00731522
-2.82548e-05
-2.69742e-05
1.00365e-06
0.00398346
3.4161e-05
-3.54711e-05
0.0184835
-5.92581e-05
-1.74149e-06
-5.22775e-05
-7.61738e-05
0.000620076
-4.84669e-07
0.0560788
1.53375e-06
-0.0172655
-0.00602363
-6.36703e-05
0.000491868
1.77114e-05
-1.46372e-05
-3.47342e-05
-0.0483902
0.000449835
0.011113
-0.00607353
0.00107829
0.000358698
0.00258894
-1.2265e-05
-4.8054e-05
-9.05446e-06
0.103365
0.00245876
2.26116e-05
0.000337473
1.28912e-05
-2.9811e-05
-0.227277
1.06782e-05
-4.33687e-05
-0.00633337
0.00502641
0.0147473
-4.15738e-05
-3.71719e-05
0.0180453
-2.98666e-06
2.67492e-05
0.0916585
-6.16769e-05
0.0281598
-0.212328
0.788143
-1.97578e-05
-2.27204e-05
6.77846e-06
8.71613e-06
-0.00997024
-3.05e-05
2.63685e-05
0.000747071
-1.45052e-05
-0.00430098
-4.55383e-05
-4.21971e-05
3.72375e-06
0.0106327
-2.38063e-06
-5.99668e-05
0.0444364
0.020909
-6.81476e-05
0.00200099
-4.97485e-05
-4.52492e-05
-6.27358e-05
1.67015e-05
1.58143e-05
-0.00762038
0.00155788
-4.32155e-05
5.1777e-05
-8.759e-05
-6.79951e-06
-1.85499e-05
-6.94996e-05
0.000130702
-2.4425e-05
2.74036e-05
-0.000105292
-6.43197e-05
0.140308
3.90566e-05
-0.000120164
0.000443031
-0.00014954
-1.332e-05
0.0027342
-0.0134885
0.436309
-0.00560406
0.00083805
1.29135e-06
-6.18259e-06
-0.00109352
-0.18751
0.0119711
0.0977841
0.00922402
3.5479e-06
-0.0147011
0.0316705
-3.187e-05
0.00109527
2.34529e-05
0.00515899
0.00082851
-0.18202
4.99087e-06
2.92963e-05
0.00135757
-5.6134e-05
-7.30934e-05
0.00012975
-0.102904
6.78808e-06
-1.97834e-05
2.14023e-05
0.0888508
-2.12305e-05
-1.38106e-05
-3.85068e-05
2.43115e-05
-3.57936e-05
0.000502941
3.48657e-05
-3.07876e-06
-7.51028e-05
-0.000332733
0.00184996
-0.00614256
-5.41191e-05
-3.09507e-05
1.1668e-05
-3.35362e-05
-1.26155e-05
-5.25149e-06
-1.67873
-6.03952e-05
0.00102663
-2.34303e-06
-7.0451e-05
-3.20006e-07
-4.708e-05
0.289058
-0.00116377
-2.19878e-06
-8.74276e-05
0.0984593
0.574638
0.00327617
0.00994706
-4.16625e-05
-0.000296228
-3.2967e-05
-6.06035e-06
-2.44885e-05
-4.10004e-06
-2.16854e-05
-1.56339e-05
-1.83205e-05
0.000236972
-2.99424e-05
0.111368
-0.000679519
6.83895e-06
-0.00729873
-0.0033186
1.0724e-05
-4.30234e-06
-4.73561e-05
1.97106e-05
2.61519e-05
-0.00155416
-1.3022e-05
1.62542e-05
0.00527923
-3.46157e-05
7.58393e-06
1.6834e-05
0.252088
-2.93476e-05
-1.56812e-05
-0.00946619
-2.42924e-05
-7.54265e-06
-2.19837e-05
0.0157107
-2.05972e-05
8.11011e-06
-3.38413e-05
-3.77952e-05
0.00225725
-0.0586124
-3.13619e-05
-0.00255233
-8.60469e-06
-2.84894e-05
8.76224e-06
0.132987
-0.229701
7.40523e-06
5.43502e-05
1.86034e-05
-3.38806e-05
-2.43962e-05
-7.19177e-06
0.0675681
0.00554933
-5.50697e-05
2.7522e-06
-0.0266799
1.42515e-05
-1.39078e-05
2.11482e-05
0.000278355
-0.0117457
-5.43133e-05
-1.75595e-05
-0.104374
-4.60343e-05
4.95428e-05
0.670876
-0.695103
-1.19776e-06
-6.12686e-06
2.03148e-05
-1.3505e-05
-4.89021e-06
0.0361456
-2.0518e-05
-0.111014
0.0673751
3.40938e-05
1.63851e-05
0.0962437
6.25256e-05
0.00244145
-0.00993119
0.0230061
-0.000206884
-1.91683e-05
8.03868e-06
-0.00606364
-1.57896e-05
0.0184116
-5.51937e-06
1.17656e-05
-1.23738e-06
4.31416e-07
-4.23403e-05
-0.0837923
-5.48484e-05
-0.06331
0.133015
0.00119892
0.114438
-7.25334e-06
2.10774e-05
0.00011346
0.114288
-1.41667e-05
0.684678
0.00531882
9.09988e-06
-1.69052e-05
0.0527369
-3.98204e-06
-0.0024963
0.0128147
-3.70127e-05
0.00166413
-7.34824e-06
0.0259767
-0.0174625
-1.35364e-05
-4.40652e-06
-0.0005637
-0.00929721
-5.18118e-05
0.000175568
-6.6553e-06
7.87198e-05
-1.08487e-05
0.0480148
1.40324e-05
3.46606e-05
0.00104429
2.54667e-06
0.000973058
-6.67082e-06
-1.37238e-05
1.58106e-05
-0.000952311
-1.20584e-06
-4.58484e-06
-0.189228
-0.0222098
0.194761
3.88505e-05
-7.13439e-07
0.000716656
0.736652
0.0490224
0.0295972
4.762e-05
-3.61547e-05
-5.75255e-05
-6.28068e-06
8.77322e-07
-1.01675e-05
1.24614e-05
6.17195e-07
0.000520906
4.64893e-07
-7.13447e-06
2.58124e-06
-5.21866e-05
-6.56466e-06
4.62866e-05
0.000975568
-0.00392731
-0.04865
-0.0014739
-0.000923931
-0.0494245
-6.76881e-06
-1.80755e-05
4.20958e-05
0.000867269
7.99688e-07
3.94739e-05
-1.28683e-05
1.53772e-05
-3.11725e-05
0.00134255
-4.02347e-05
-0.290099
-3.00336e-05
1.73784e-05
-0.211743
0.000343036
7.13565e-05
1.53157e-05
-5.65918e-06
-0.0140844
0.00176883
-3.73551e-05
-1.29215e-05
-4.78726e-05
-5.76484e-06
-1.77035e-05
-1.63674e-05
0.00551369
2.41546e-05
-9.48665e-06
0.00304518
6.81936e-06
0.0016978
4.64648e-05
-2.60156e-05
-2.20921e-05
-0.00204166
0.0432687
-0.0874102
-0.216366
2.90242e-06
1.0301e-05
2.20813e-05
-6.69438e-05
-0.00321548
-5.42793e-06
0.0520987
0.0186915
-6.49567e-05
0.00157369
0.0618635
4.03791e-06
0.157919
-0.000570726
1.08392
-0.000134017
-1.74545e-05
-1.37823e-05
2.91307e-06
-1.90885e-05
-0.012065
-0.0438333
-0.00493937
-2.91471e-05
2.22248e-05
-9.08227e-06
-0.0056023
-0.000390212
-0.243061
-4.75837e-06
5.03912e-05
-0.00165711
2.48296e-05
0.0459573
0.0166969
-8.55865e-06
-4.33651e-05
-4.20614e-06
1.38168e-06
0.0132959
-0.319088
-9.8674e-06
-1.86378e-05
-1.0363e-05
0.0749927
-2.83691e-06
0.000205053
0.0029828
0.000396959
-0.00237415
-0.00185931
-0.0061663
-2.62403e-05
0.000608812
-1.86705e-05
-1.67854e-05
0.000131789
-0.0177701
9.09161e-06
-1.66839e-05
0.0298232
-6.49805e-05
-6.66712e-05
0.024861
1.50723e-05
2.0319e-05
0.0267957
0.0251116
8.54321e-06
-1.21581e-05
0.000252094
-0.0134935
-0.00277043
0.30331
-0.00353325
-0.0168957
1.46299e-05
-0.00435017
-7.144e-06
-0.979604
-0.099342
0.000653031
0.00210018
-0.00994588
1.04478
-4.29558e-06
-1.87772e-05
-1.42066e-05
-7.04473e-05
-0.0496879
-3.08647e-05
0.000934164
4.49515e-05
-1.85404e-05
-7.18511e-05
0.0443751
-3.34853e-05
-0.0646364
0.000132984
-0.0014304
0.00330166
-0.00293684
0.0671331
-2.73402e-06
-0.000426383
-4.59015e-05
0.0829455
-7.68854e-05
0.000815356
-0.00872233
7.81158e-05
-0.0421656
-1.47847e-05
0.144502
2.29052e-05
-0.000253507
-8.37608e-07
0.695166
-7.78616e-05
3.77712e-06
-3.39928e-05
-0.00104219
-3.21097e-05
0.0144811
-0.0853142
0.000200626
-0.119986
-3.61531e-05
1.16119e-05
0.678386
-0.00266889
0.0339239
0.095011
1.76904e-05
0.00339386
0.0148962
0.000774216
-2.05198e-05
-0.284651
0.0145689
-1.85075e-05
-0.000376423
-6.10138e-06
-0.0115757
-0.0506047
-0.0159149
-0.191703
-1.57168e-05
-2.47586e-05
4.91259e-06
-1.03128e-05
0.000544533
4.28679e-05
5.89239e-05
7.03084e-06
-0.0492518
-1.15775e-05
5.07504e-05
-0.00726048
-0.0799113
-0.00504948
0.000133971
0.000297053
0.000470279
0.0141962
-1.49459e-05
-0.0277123
-4.40113e-05
0.000975717
-0.286218
-7.78651e-06
-0.0707705
1.60105e-05
4.47712e-06
-1.5541e-05
-9.79753e-06
-6.55946e-06
-2.36603e-06
-7.30157e-06
-0.0064767
3.99112e-05
-1.64044e-05
-0.07463
-1.66996e-06
6.41114e-05
-1.97577e-05
0.00960957
-4.2085e-05
-3.31525e-05
-0.124837
-0.0645195
-3.03111e-05
-5.6492e-06
0.00102857
-5.52014e-05
0.190184
-0.49823
5.98678e-05
9.47795e-06
0.000682541
-0.00593073
0.00550692
-1.27346e-05
-2.33021e-05
1.97153e-05
0.000477677
0.000156368
-0.0275416
-0.0901304
0.00028293
2.75725e-05
0.000771303
3.49392e-05
-0.122894
0.0154927
-2.46798e-06
-0.249352
-0.122206
4.01576e-05
-1.15188e-05
1.65918e-05
5.13761e-06
-2.70646e-05
-1.79594e-05
-3.27707e-05
3.40364e-06
-0.0148895
7.81375e-05
-5.82216e-05
0.000153533
0.000322254
-1.15706e-05
-1.2511e-05
0.00152048
-0.000190152
-0.000150471
-6.83146e-06
-5.1375e-06
-4.25049e-06
5.03238e-06
-0.0963838
-2.32282e-05
2.34101e-05
-0.0179848
0.164898
-0.0180008
-1.20618e-05
-0.641002
-2.21224e-05
-0.134997
-0.0473327
-4.52396e-05
0.117519
-2.74629e-05