/*--------------------------------*- C++ -*----------------------------------*\
| =========                 |                                                 |
| \\      /  F ield         | OpenFOAM: The Open Source CFD Toolbox           |
|  \\    /   O peration     | Version:  v2012                                 |
|   \\  /    A nd           | Website:  www.openfoam.com                      |
|    \\/     M anipulation  |                                                 |
\*---------------------------------------------------------------------------*/
FoamFile
{
    version     2.0;
    format      ascii;
    class       volScalarField;
    location    "700";
    object      nut;
}
// * * * * * * * * * * * * * * * * * * * * * * * * * * * * * * * * * * * * * //

dimensions      [0 2 -1 0 0 0 0];


internalField   nonuniform List<scalar> 
9793
(
0.00151396
0.0206901
0.00151411
0.00671345
0.00188047
0.00552176
0.00689563
0.00672215
0.0061888
0.00192559
0.000716963
0.0300502
0.00672173
0.00695285
0.00700572
0.00691031
0.00705204
0.00715211
0.0164356
0.00694083
0.0217067
0.00287648
0.011789
0.00672194
0.00699138
0.00673554
0.0070088
0.0069138
0.000872556
0.00679501
0.00329625
0.0127589
0.0165001
0.00696788
0.000950442
0.0259588
0.00694747
0.00291815
0.00675184
0.00682301
0.00319582
0.00701437
0.00685285
0.00690382
0.0068531
0.00676259
0.000882316
0.0100755
0.00501206
0.00671006
0.000806459
0.000789249
0.00475132
0.00681026
0.00142489
0.0169653
0.00673622
0.000772952
0.0100092
0.00674876
0.00693659
0.0047139
0.00855163
0.00680444
0.00182736
0.0150248
0.00734044
0.00575199
0.0246801
0.000742385
0.0015796
0.00690788
0.00675805
0.00996493
0.000849636
0.00839815
0.00673867
0.00720251
0.00708128
0.00695974
0.0169606
0.00701953
0.0225621
0.00778984
0.00285374
0.00928585
0.00699857
0.00674185
0.00619565
0.00707359
0.0198143
0.00171397
0.00677614
0.0147444
0.00525398
0.00827146
0.0210626
0.0217626
0.00675968
0.00674312
0.0067417
0.00699143
0.00673757
0.00673063
0.00716514
0.00312808
0.00675734
0.00693759
0.00542201
0.011147
0.00693186
0.0270855
0.00672832
0.00248995
0.000780381
0.00673946
0.012101
0.0009532
0.00716663
0.0154066
0.0111735
0.00704658
0.00673792
0.00501447
0.00431109
0.0239575
0.000727883
0.00993233
0.0072051
0.00673315
0.00698191
0.00674267
0.00673503
0.00702536
0.00678488
0.00674509
0.00683791
0.0068859
0.00672733
0.00670641
0.00673571
0.00700777
0.006763
0.00677271
0.00698252
0.00717406
0.0165303
0.00677436
0.00674516
0.00166092
0.00146106
0.00697658
0.00248841
0.00203935
0.0067384
0.00703375
0.00685962
0.00700366
0.00675469
0.00675683
0.00672636
0.00691778
0.006851
0.0220413
0.0154932
0.0246879
0.0105191
0.00147447
0.00696999
0.00686689
0.00685977
0.00592026
0.0172838
0.00639522
0.00466433
0.0166815
0.00674558
0.00670698
0.00674808
0.00110051
0.0179471
0.00261872
0.00675627
0.00700316
0.00615123
0.00675269
0.000901134
0.00674763
0.00673814
0.00685212
0.00444736
0.00671604
0.00489123
0.0259557
0.0067857
0.00121631
0.0024231
0.00686797
0.00205681
0.00672266
0.00678403
0.0231618
0.0112958
0.00672976
0.0067492
0.00704957
0.0259609
0.00681642
0.00294606
0.00272061
0.000997082
0.00484528
0.00554631
0.00681443
0.00215451
0.0068512
0.00689274
0.00537675
0.00700105
0.028898
0.00111508
0.00673875
0.00422277
0.00671586
0.00920926
0.0210385
0.00548337
0.00673104
0.00113574
0.000722465
0.00673405
0.00671622
0.00235824
0.00675768
0.000681543
0.0227591
0.00672578
0.0068251
0.0250865
0.00694834
0.00338175
0.00691738
0.00681519
0.0171552
0.00679949
0.00674681
0.00672011
0.00701019
0.00675766
0.00694383
0.00680267
0.00170433
0.000768836
0.000710142
0.00678123
0.00249048
0.00684185
0.00155491
0.00551992
0.00678874
0.0185779
0.00680986
0.000788283
0.00697673
0.00129386
0.00684655
0.00683172
0.000986527
0.0252737
0.00676769
0.00679354
0.00673264
0.00152794
0.00674044
0.0183391
0.0192611
0.00673201
0.0270135
0.00673267
0.000721923
0.0069949
0.0067596
0.00698239
0.00680387
0.000755734
0.00673772
0.00680038
0.00159829
0.00676335
0.00674904
0.00672695
0.0128548
0.00676975
0.00697736
0.00699565
0.00702069
0.00398378
0.00141047
0.00671524
0.015262
0.0067376
0.0199774
0.0103609
0.00696105
0.00693665
0.0067849
0.00138469
0.00168187
0.00697874
0.0218136
0.00679341
0.00678222
0.00178666
0.00679231
0.00679722
0.00699944
0.00870656
0.00684639
0.00156248
0.00274607
0.00678854
0.0128986
0.00289358
0.00977687
0.00691801
0.0108117
0.00385183
0.0116061
0.00105206
0.00678338
0.00173886
0.00101729
0.00693331
0.00339949
0.00071546
0.00671656
0.00684365
0.0067745
0.00686538
0.0069376
0.00176045
0.00675319
0.00677647
0.0133014
0.00695101
0.00689784
0.00690843
0.00419572
0.00671898
0.00208252
0.0041688
0.00675425
0.00679437
0.00698814
0.00570568
0.00680639
0.00173294
0.00671571
0.000889977
0.00168905
0.000875264
0.000838872
0.00429265
0.00717413
0.00267314
0.00692083
0.0196437
0.00696762
0.00677009
0.00894949
0.00375784
0.00233251
0.00675452
0.000696686
0.0254043
0.00618891
0.00674218
0.0150836
0.00127003
0.0152355
0.00250107
0.00680078
0.00467147
0.00672332
0.00368292
0.00698167
0.00686914
0.00700677
0.00680567
0.00267638
0.00563026
0.00481652
0.0212985
0.0184773
0.00246821
0.000750676
0.00804756
0.00682084
0.00677312
0.00235167
0.0195669
0.0069246
0.00383149
0.00772174
0.00673166
0.00351474
0.00683577
0.00273543
0.00672469
0.000970333
0.00675295
0.00121867
0.0264505
0.00681772
0.0099162
0.0070511
0.00398278
0.00703171
0.00692585
0.00676566
0.007157
0.00135742
0.00672895
0.00679914
0.000745661
0.00679436
0.00533062
0.00381489
0.00683873
0.000965238
0.00676274
0.00679921
0.00671225
0.00953055
0.00711205
0.00975402
0.00687033
0.00486955
0.00693208
0.00690177
0.00697018
0.00554505
0.00752815
0.00686608
0.00173468
0.00686699
0.00686814
0.00360947
0.00658259
0.00293226
0.00145474
0.00489476
0.00470756
0.00671878
0.00171938
0.00107775
0.00101543
0.0218032
0.0157891
0.00678188
0.0071375
0.000681191
0.00674102
0.0070585
0.00673853
0.00673606
0.0069581
0.00338112
0.00119874
0.00493037
0.00674489
0.00153703
0.00669819
0.00694678
0.0069781
0.00703042
0.00204485
0.00688948
0.00711626
0.00673648
0.00674995
0.00489925
0.0108248
0.00677871
0.00671794
0.0114455
0.00392696
0.00413321
0.00983026
0.00483677
0.00697826
0.00697428
0.00344906
0.00491056
0.00680167
0.00686702
0.00682891
0.00687797
0.00685149
0.00679074
0.0163044
0.00084004
0.00686078
0.00677526
0.0011325
0.00674577
0.00675868
0.0070885
0.0245237
0.00700046
0.0237256
0.00679186
0.00681391
0.000755691
0.00673602
0.000911903
0.0084228
0.00145806
0.0067464
0.0236065
0.00450901
0.006746
0.00689364
0.000626054
0.00676179
0.00673956
0.00671478
0.00675718
0.0143188
0.00069598
0.00127006
0.00628903
0.0068789
0.00681461
0.00678275
0.0069187
0.00671905
0.0139691
0.000990663
0.00674091
0.0072297
0.00227954
0.00679519
0.00905648
0.00175021
0.00691152
0.000704045
0.00483654
0.00673974
0.00114982
0.00677133
0.00942165
0.00141797
0.00485758
0.00674664
0.00680351
0.00704756
0.0180908
0.00720034
0.00905703
0.0215629
0.00190061
0.000816973
0.0259352
0.00101256
0.00701187
0.000935614
0.00719188
0.0140561
0.00680424
0.00489936
0.00673591
0.00965981
0.00694191
0.00325753
0.0068005
0.00114387
0.00674287
0.0068613
0.00260939
0.00236112
0.00113659
0.00675777
0.00672908
0.0067902
0.00678669
0.0090034
0.00670927
0.016338
0.0045772
0.00670968
0.00692698
0.00132038
0.00384244
0.00673533
0.00679698
0.00607334
0.00135588
0.00251721
0.00222289
0.00671871
0.0071513
0.00465446
0.00161622
0.00679089
0.00356312
0.0164525
0.00677711
0.00312257
0.00130888
0.00689622
0.00673071
0.00672134
0.00711637
0.00708391
0.00680069
0.00691055
0.00668912
0.00683034
0.00690975
0.00671062
0.00284127
0.00668814
0.00325395
0.0069825
0.00679964
0.00321979
0.00247433
0.000897533
0.00696476
0.00676221
0.00673125
0.00672591
0.00686411
0.00690947
0.0068812
0.00676866
0.00677588
0.00674317
0.000902894
0.00683312
0.00696842
0.00673955
0.00504269
0.00671115
0.00672402
0.000658907
0.00675522
0.00686432
0.000917645
0.00698891
0.00691239
0.00699336
0.000803176
0.00672191
0.000685823
0.00186958
0.011924
0.0135501
0.00686283
0.00674278
0.01538
0.00712916
0.00671768
0.011933
0.0048325
0.00213354
0.00673277
0.000635467
0.00674242
0.00673802
0.00192512
0.00671109
0.014208
0.00743279
0.0008564
0.00675542
0.00238115
0.0054922
0.00114891
0.025785
0.00685507
0.007416
0.00110211
0.00676004
0.00482161
0.000719591
0.00337337
0.00674296
0.00894167
0.00712966
0.0120537
0.00886269
0.0129763
0.0166835
0.0069749
0.00241391
0.0181858
0.00671336
0.00671063
0.00696844
0.00711451
0.00672474
0.0096004
0.0067125
0.016132
0.00184628
0.0129681
0.000771183
0.00678869
0.00149896
0.010599
0.00478619
0.00477417
0.00265557
0.000680704
0.00672406
0.00674864
0.0140019
0.00681173
0.0255882
0.00673271
0.0191447
0.00675333
0.0104333
0.012897
0.00697457
0.0303384
0.0067431
0.00242943
0.000816113
0.00355746
0.00406019
0.00692169
0.00676362
0.00673721
0.00882996
0.0100063
0.00689309
0.00341982
0.00919879
0.00673078
0.00672366
0.00706191
0.0137751
0.0052501
0.00681312
0.00685649
0.00673572
0.0159782
0.00221279
0.00117973
0.00673182
0.00671455
0.00510213
0.00671095
0.00468092
0.000843117
0.0168397
0.0118074
0.0182578
0.0067389
0.00678806
0.00181065
0.00297283
0.00143574
0.00671219
0.000638437
0.0157638
0.00673457
0.00992826
0.00673302
0.00957995
0.00527994
0.0093338
0.00239197
0.0075132
0.00676235
0.00777238
0.00919726
0.0163405
0.0166933
0.00679723
0.000994036
0.00696498
0.00335403
0.00223523
0.00857902
0.0069227
0.000685003
0.00673283
0.00105224
0.00683361
0.00669203
0.00695305
0.00671698
0.00175093
0.00671108
0.00285591
0.00695954
0.00701
0.00673545
0.00106367
0.00697301
0.00291283
0.00674395
0.00672558
0.0210971
0.00671025
0.0195177
0.00674208
0.00891295
0.00684818
0.010084
0.00690669
0.0293956
0.00679709
0.00681312
0.00671045
0.0230075
0.0202828
0.00883196
0.0015626
0.00521121
0.00681618
0.00191577
0.0172583
0.00679993
0.013514
0.0150307
0.00108449
0.00124111
0.00311353
0.022533
0.00458679
0.0110842
0.0195884
0.0030727
0.00680796
0.0219729
0.0181316
0.00688452
0.00278453
0.00671157
0.00712772
0.000798454
0.00691526
0.00686055
0.00280251
0.0129154
0.000753941
0.00480446
0.010782
0.006712
0.0068847
0.0119542
0.0257666
0.000791133
0.00682134
0.00465287
0.00676527
0.00679801
0.0118177
0.00675745
0.00342053
0.0230088
0.0231683
0.00700204
0.00830352
0.00151919
0.0187786
0.0106008
0.00682514
0.00685847
0.00552623
0.00679498
0.00672978
0.00676127
0.00694799
0.00698813
0.0206315
0.00709545
0.0120779
0.00764511
0.00120268
0.00679516
0.000794934
0.00739262
0.00691798
0.000819981
0.00763025
0.00683368
0.00101975
0.00727068
0.00102334
0.00702704
0.00675303
0.0200962
0.00480274
0.00686798
0.00669672
0.00668544
0.00709912
0.00718831
0.000717643
0.000997079
0.0104139
0.0009693
0.0163855
0.00689097
0.00178607
0.00299846
0.00170537
0.00133464
0.00676106
0.00677079
0.0230386
0.000872109
0.0142322
0.00674459
0.0134616
0.0127251
0.00688336
0.000731766
0.00167219
0.00309407
0.00681849
0.00138972
0.0156647
0.00726631
0.00674938
0.0117828
0.00679414
0.00672211
0.00674839
0.00151423
0.00679047
0.00120199
0.0137952
0.000757909
0.00214805
0.000995851
0.0106351
0.0244164
0.00968752
0.00683576
0.00679484
0.00311459
0.00740263
0.00686794
0.00505352
0.0154962
0.00166215
0.00753822
0.00959923
0.0107329
0.00679868
0.018095
0.00672833
0.0233175
0.000681069
0.00672931
0.00377181
0.0158625
0.00670848
0.00677664
0.00679522
0.00245753
0.00779016
0.00131055
0.00124867
0.00924374
0.00492885
0.0115846
0.00522169
0.00692715
0.00672447
0.0188279
0.0161518
0.00673695
0.00681461
0.00692972
0.0067998
0.00679591
0.00138011
0.0253977
0.00677975
0.00457082
0.0164175
0.00495566
0.00700364
0.00230916
0.00532548
0.00679478
0.00706625
0.0110865
0.00502549
0.00675594
0.00479375
0.00673723
0.00415086
0.0120591
0.0173273
0.00698146
0.0114528
0.0051558
0.00179838
0.00672722
0.00710495
0.0044359
0.00678999
0.0194908
0.0070088
0.0069348
0.00139902
0.00690217
0.00773528
0.00125345
0.00672445
0.000893376
0.00678907
0.00671107
0.00490879
0.00674863
0.0164902
0.00400142
0.00673458
0.0150692
0.00714809
0.000906252
0.02409
0.00671601
0.0129697
0.00674359
0.00672559
0.00924651
0.0105453
0.00672047
0.00678319
0.00672925
0.00591798
0.000700013
0.00502318
0.00688846
0.00692752
0.007103
0.00334068
0.00678868
0.00677193
0.00672413
0.00671096
0.0106076
0.00260819
0.00672071
0.000720533
0.00712069
0.0147884
0.0133555
0.000816242
0.00677761
0.00672664
0.000684587
0.00322427
0.00679484
0.00679063
0.0110989
0.00122895
0.00672848
0.00670526
0.00065099
0.00107068
0.00674349
0.0111765
0.000893431
0.00680164
0.00540685
0.0084784
0.00681017
0.00164389
0.0124859
0.0070404
0.0156611
0.0090001
0.00883043
0.0067178
0.00674266
0.0066906
0.00669536
0.00124746
0.00675629
0.00540706
0.00125598
0.00668979
0.00463088
0.00449827
0.00701111
0.0053711
0.00671842
0.00629348
0.00812591
0.00669544
0.00677453
0.0150196
0.00679487
0.00680567
0.00750304
0.00675371
0.00634545
0.00672895
0.00676385
0.00654046
0.00701491
0.00125845
0.00476697
0.00671653
0.00673695
0.00670371
0.00114044
0.00672264
0.0022933
0.00673877
0.00674013
0.00654309
0.0067253
0.000968013
0.00674222
0.0067299
0.0122312
0.0158103
0.00678566
0.0067624
0.00672061
0.00601024
0.00149251
0.00671749
0.0087627
0.0160992
0.00698918
0.010115
0.0127634
0.00229334
0.0116577
0.00170089
0.00843528
0.00672604
0.002441
0.000915057
0.00672037
0.0105287
0.0177206
0.00672319
0.0256128
0.0316549
0.00705179
0.0112957
0.00675296
0.00115396
0.000891778
0.00671701
0.0200718
0.00677568
0.000740153
0.00112633
0.00673342
0.00475864
0.00678521
0.00681102
0.000882854
0.00159596
0.00307846
0.0228737
0.00676699
0.0016174
0.00954853
0.00671791
0.00137885
0.00672497
0.0118509
0.00503905
0.00801607
0.0069568
0.00130916
0.00694856
0.0117366
0.00101256
0.00673291
0.0067333
0.0132315
0.00930676
0.00535026
0.00331194
0.0035516
0.00124138
0.00674233
0.00689914
0.00696521
0.00364245
0.00676161
0.00699841
0.0137111
0.0112844
0.0067261
0.00108015
0.00257843
0.0154453
0.0215886
0.00126138
0.0161824
0.0265446
0.00675306
0.000844998
0.000956577
0.024283
0.0142602
0.00677434
0.00104549
0.0187894
0.000899644
0.00168627
0.0151789
0.00466628
0.00673376
0.00133165
0.00144267
0.00672204
0.000647436
0.00674207
0.00704307
0.00671831
0.00680276
0.00678617
0.00675175
0.00393006
0.00124369
0.0144709
0.00436531
0.0198897
0.00672793
0.00115151
0.00679949
0.00164921
0.00506535
0.00672454
0.000924681
0.00697885
0.00670624
0.0067208
0.00673082
0.0067572
0.00113812
0.00673306
0.0189352
0.00700486
0.00671857
0.0149177
0.00684691
0.00379082
0.0067131
0.00678417
0.0141899
0.000634406
0.00715508
0.000934485
0.00529588
0.00678731
0.0042543
0.00699173
0.00152417
0.00109362
0.000632673
0.0137647
0.00673202
0.0009225
0.00295208
0.0185659
0.0156763
0.00137372
0.0250427
0.00376366
0.00695159
0.000961954
0.00676477
0.000704373
0.00555719
0.000752318
0.000726594
0.00677667
0.031272
0.0261275
0.00593827
0.00192841
0.00382529
0.00117454
0.00692944
0.00505456
0.00702848
0.00672159
0.00338253
0.00394392
0.00688037
0.00286731
0.00431343
0.00491967
0.00672429
0.00988459
0.00145143
0.00674992
0.00671879
0.00466919
0.00442631
0.0207595
0.00607024
0.00690514
0.00186292
0.000890507
0.00186132
0.00677066
0.0165821
0.00485194
0.00671672
0.0102332
0.0172129
0.00692658
0.00673251
0.00673043
0.00206989
0.00117499
0.00671104
0.00893331
0.00709747
0.00130756
0.00414313
0.00353247
0.00672871
0.000882634
0.00673447
0.0067142
0.00672688
0.000720969
0.0290135
0.00982193
0.00687606
0.00404427
0.00305052
0.0139821
0.00441136
0.00697395
0.00457984
0.00674062
0.021983
0.00573778
0.0130942
0.00672591
0.00119658
0.00671105
0.00672482
0.00718007
0.00327797
0.00081835
0.00672525
0.00497076
0.0167946
0.0288838
0.00152749
0.00678121
0.00679338
0.000907365
0.00671601
0.00680705
0.00121553
0.00678968
0.00673955
0.00530986
0.00342581
0.00672381
0.0214273
0.000707085
0.00703402
0.00168434
0.00421585
0.00175506
0.00242226
0.00673444
0.00672605
0.00677499
0.00674506
0.00677039
0.00676168
0.00150746
0.00110398
0.00680407
0.00682712
0.00680274
0.00704973
0.00354377
0.00132673
0.00325145
0.00488568
0.00672517
0.00559971
0.00692591
0.000829992
0.00676889
0.00658311
0.00675891
0.00679533
0.00668633
0.00819369
0.00192169
0.00739408
0.00938348
0.00596332
0.00676878
0.00673114
0.00673887
0.00928486
0.00681781
0.00137083
0.00809909
0.00680318
0.00166301
0.00176116
0.00184226
0.000986792
0.00679632
0.00168084
0.00675535
0.00671668
0.00671042
0.00673022
0.012328
0.000921348
0.00672572
0.0171822
0.00884211
0.0067189
0.00242821
0.00671203
0.00121254
0.00682509
0.00672315
0.00182233
0.00678974
0.00693744
0.00190745
0.00133387
0.000727408
0.00461489
0.00673792
0.00425036
0.0274791
0.0116512
0.000764553
0.00110957
0.00677163
0.00674271
0.0178592
0.00678909
0.0010365
0.00513912
0.00936212
0.00678421
0.000775317
0.00679336
0.00649093
0.00123831
0.000911862
0.00114733
0.00290136
0.00375608
0.0012132
0.00917549
0.000506473
0.00671992
0.00131204
0.000669313
0.00179728
0.000838711
0.00636941
0.00605649
0.00672666
0.00880963
0.00531945
0.00158727
0.00678982
0.00179477
0.00705019
0.00123132
0.00677999
0.00672887
0.00672421
0.00700987
0.00142777
0.00723319
0.00295787
0.00317578
0.00675259
0.00677789
0.00115257
0.00672597
0.00673724
0.00520889
0.00564147
0.00168099
0.00676617
0.00682462
0.00675919
0.0169049
0.0055955
0.00159829
0.00678375
0.00140175
0.0067718
0.00679291
0.00155769
0.00592838
0.000948972
0.00478644
0.00674758
0.00671521
0.00357679
0.00124949
0.00678417
0.00338685
0.0194967
0.00679636
0.00483166
0.00310084
0.00680084
0.00683107
0.00444058
0.0074632
0.00671657
0.00672265
0.00671486
0.0122461
0.00172813
0.0154389
0.00679432
0.0067967
0.0049148
0.00728773
0.0229699
0.00119835
0.00161587
0.0238008
0.00679346
0.0136892
0.00677167
0.000864115
0.00674961
0.0096575
0.0144292
0.00668991
0.00217063
0.00734271
0.00477933
0.00692406
0.0124221
0.00672882
0.023666
0.00521876
0.00673408
0.00582168
0.00692883
0.00622347
0.0011703
0.0067472
0.00671484
0.00672305
0.0067951
0.00673215
0.0144634
0.00282758
0.0263357
0.00679442
0.00696674
0.00160737
0.00676384
0.00674381
0.000742636
0.000741079
0.00609009
0.00671767
0.012856
0.00256133
0.0146777
0.0100955
0.00336386
0.00670791
0.00671485
0.00588781
0.0199477
0.00682373
0.00672844
0.00407801
0.00101969
0.00071297
0.00520894
0.00674098
0.00687798
0.00688415
0.00678514
0.0048569
0.0117662
0.0143395
0.0260759
0.00672674
0.00544195
0.00578489
0.0067926
0.00694968
0.00347397
0.00698157
0.00361959
0.00673365
0.00675416
0.00676377
0.00672618
0.00671743
0.00681579
0.00142532
0.0163078
0.00666759
0.00668418
0.00671666
0.00671442
0.00409897
0.00674868
0.00701939
0.00320409
0.00313315
0.00365059
0.0234585
0.00672462
0.0022177
0.0109557
0.00672325
0.00673843
0.0186102
0.00682651
0.00672572
0.00671483
0.00157701
0.00632895
0.000966452
0.00561949
0.0246734
0.00693035
0.00671811
0.0067218
0.00673919
0.00237929
0.00672435
0.00510245
0.000739095
0.00675494
0.0104091
0.00721173
0.00104574
0.00462243
0.0141598
0.000867575
0.00678886
0.00671183
0.00681356
0.00679816
0.00674868
0.0119524
0.00670973
0.00149665
0.00672656
0.00682684
0.00201648
0.00673883
0.00450868
0.00072004
0.00674521
0.0118525
0.00672766
0.00680133
0.0067224
0.0050851
0.00671363
0.00675301
0.00677444
0.00679729
0.00147624
0.00678925
0.0067094
0.00397076
0.00671877
0.00672379
0.00672672
0.00673356
0.00672196
0.00671521
0.00676291
0.00672325
0.00673604
0.00521768
0.0065189
0.00689263
0.00680676
0.00460252
0.0182338
0.00711753
0.00641686
0.00672302
0.00699857
0.0067425
0.00681338
0.00428053
0.0183692
0.00671139
0.00404524
0.0195182
0.00679674
0.00756581
0.00637928
0.00676915
0.0175368
0.00677628
0.0146454
0.00195201
0.00576176
0.017993
0.00813388
0.00672026
0.00672851
0.007025
0.00189309
0.00118918
0.0044627
0.0134486
0.0126591
0.00673564
0.00480265
0.00397619
0.00758399
0.00671299
0.00125138
0.00117
0.00676002
0.00674083
0.00728067
0.00362446
0.0031227
0.00467038
0.00268946
0.00415115
0.00571141
0.00676495
0.00679622
0.00672212
0.00205921
0.00618045
0.00671121
0.00166307
0.00511995
0.00890322
0.00675206
0.00700161
0.00673171
0.000803684
0.00672286
0.00429771
0.00403975
0.0031853
0.00167987
0.00680466
0.0223017
0.00266135
0.000775842
0.0193771
0.0052623
0.00673466
0.00672412
0.00672549
0.0105351
0.00673618
0.00670961
0.00673074
0.00134349
0.00318433
0.0192788
0.00702797
0.00802451
0.00503988
0.000903239
0.0204265
0.00278988
0.00426139
0.000749106
0.00505262
0.0140833
0.0067107
0.00671056
0.0067432
0.00618356
0.00809061
0.00383754
0.00690257
0.00673711
0.00681787
0.00120123
0.00672391
0.00681476
0.00673924
0.000993086
0.00673364
0.006725
0.00671094
0.00258368
0.00266741
0.00176121
0.00329897
0.00677378
0.00199447
0.00519082
0.00701519
0.00671687
0.00795936
0.0138966
0.00679736
0.00679408
0.00167249
0.0068087
0.00673697
0.00674306
0.00682614
0.00428069
0.00671779
0.00680042
0.00672514
0.00679909
0.0067763
0.0067375
0.00670971
0.00675956
0.00680567
0.0162219
0.00671623
0.00670851
0.00440691
0.00148869
0.00463098
0.000629801
0.00673326
0.0145658
0.00671427
0.00558068
0.00672617
0.0045388
0.00680204
0.0067207
0.00671346
0.00451124
0.00458804
0.00672922
0.00250358
0.00679341
0.00672028
0.00680524
0.0068332
0.0012089
0.00674874
0.00496516
0.006766
0.00663854
0.00142169
0.00682014
0.000861125
0.00671142
0.00675691
0.00672195
0.000962397
0.00702578
0.00643257
0.00190866
0.00175105
0.00113476
0.00373584
0.0053605
0.00675954
0.00674409
0.00154158
0.00451674
0.00671505
0.00275934
0.00676478
0.00674698
0.00467392
0.00675497
0.00676912
0.014008
0.00385616
0.00478546
0.00680705
0.00673559
0.00600362
0.00673795
0.00709679
0.00159942
0.006813
0.00643863
0.000775382
0.00798549
0.00673306
0.00557643
0.00672251
0.00691799
0.00396932
0.00668545
0.00672439
0.0016959
0.00671877
0.00836496
0.0068014
0.00511925
0.00704348
0.00491536
0.00399179
0.00678733
0.00090329
0.0206576
0.00681483
0.00456248
0.00679038
0.00677108
0.00682534
0.00676261
0.00704695
0.0057105
0.00466326
0.00680741
0.00702616
0.00678424
0.00671261
0.00675993
0.00682926
0.00566278
0.00670734
0.00685764
0.00678061
0.00681842
0.00561649
0.00672188
0.00677795
0.00109444
0.00677158
0.00670192
0.0177374
0.0153988
0.00764173
0.00214471
0.000655223
0.00676513
0.00600518
0.00549715
0.0205839
0.00892222
0.0167125
0.0176008
0.00677004
0.0188656
0.00480481
0.00679559
0.00472224
0.00539938
0.00489828
0.00511674
0.00110521
0.00639
0.00678065
0.00125841
0.00681807
0.00683425
0.0141263
0.0272082
0.00674446
0.00673958
0.00684561
0.0033531
0.00679516
0.00677586
0.00672271
0.00672078
0.00673705
0.00488071
0.00394527
0.00672962
0.00682788
0.00170188
0.00574554
0.00503335
0.00677768
0.00680034
0.00377513
0.0067616
0.00673372
0.00671024
0.00131956
0.00679119
0.000911917
0.00672043
0.00683333
0.00670445
0.00678006
0.00646346
0.00526272
0.00672055
0.00682368
0.0138887
0.00941614
0.00559326
0.00479106
0.00680371
0.00177619
0.00673216
0.0067151
0.006781
0.0067258
0.00673373
0.00673104
0.00679713
0.00153776
0.00678586
0.00870561
0.00494058
0.0069153
0.00589266
0.00127111
0.00671962
0.00672567
0.00671286
0.00688847
0.00680291
0.0208687
0.00676366
0.00683209
0.00536008
0.00673665
0.00673899
0.00671835
0.00558359
0.00673496
0.00673068
0.00501532
0.00671682
0.00671631
0.00678292
0.00629743
0.00673408
0.00670872
0.00673201
0.00681958
0.00551282
0.00516863
0.00674668
0.0123328
0.00673459
0.00675834
0.00709404
0.0155514
0.0296798
0.00670517
0.00587385
0.00674163
0.00674252
0.00679303
0.00672658
0.0110548
0.0199417
0.00679812
0.00626237
0.00367976
0.0067125
0.00676586
0.00689261
0.00148361
0.00508349
0.00679558
0.00292407
0.0129886
0.00673923
0.00705214
0.00909644
0.00776162
0.00686019
0.00674436
0.006952
0.00681739
0.00673036
0.0187231
0.00675919
0.0105687
0.00798087
0.00358276
0.00703469
0.015463
0.00735242
0.00540842
0.0118357
0.0071303
0.00257224
0.006727
0.00688776
0.019864
0.00670788
0.00606289
0.00673903
0.006716
0.00669138
0.00670834
0.00673492
0.0189561
0.00679273
0.00695201
0.0120624
0.000723299
0.00537489
0.00672105
0.00672433
0.00204904
0.00844499
0.0067227
0.00955175
0.00831616
0.00670943
0.00672962
0.017213
0.00673867
0.00554946
0.0177964
0.00673546
0.0233782
0.00681276
0.00345458
0.00170644
0.00673265
0.00672086
0.00270548
0.00150403
0.00682999
0.00262567
0.0066908
0.00768602
0.00672738
0.0112651
0.00676358
0.00704453
0.00450959
0.00671584
0.0235006
0.00673463
0.00671232
0.00684316
0.00537677
0.00675682
0.0067319
0.0183228
0.00201069
0.0117259
0.00695046
0.00672085
0.00356543
0.0109738
0.00877362
0.00135503
0.00279862
0.00327355
0.00679427
0.00673649
0.0062765
0.00681477
0.00683133
0.00670826
0.00579616
0.00699883
0.0067332
0.00668862
0.00679493
0.00671807
0.00692017
0.00764096
0.00521447
0.0255331
0.00624088
0.00176696
0.0148716
0.0067346
0.00673068
0.00499142
0.000979272
0.00675966
0.00696207
0.00672589
0.00677284
0.00673129
0.000767052
0.00680454
0.00119448
0.00672304
0.00674861
0.00168974
0.00123293
0.0069828
0.00674969
0.0067271
0.00540386
0.0164003
0.00679327
0.00670591
0.00746908
0.00673447
0.00672912
0.00674229
0.00104963
0.00671564
0.00672324
0.00415503
0.00672307
0.000914623
0.00704979
0.00675367
0.00674966
0.0197518
0.00413492
0.0123433
0.0295139
0.00704445
0.00688726
0.00525699
0.00671856
0.00377644
0.00673477
0.00499012
0.00431023
0.00463466
0.0038874
0.0111865
0.00674121
0.00981497
0.00712693
0.0102477
0.0075479
0.00671992
0.00672608
0.0064221
0.00672944
0.00578739
0.0165858
0.00596653
0.00682256
0.00675693
0.00672109
0.00543299
0.0071059
0.000684029
0.00672475
0.00693014
0.00607568
0.00679378
0.0106422
0.00589596
0.0067323
0.00680757
0.00670684
0.00687078
0.0188781
0.00284791
0.00672455
0.00676816
0.00673825
0.0167679
0.00672096
0.00158593
0.00126541
0.00495401
0.00232611
0.00530622
0.00544852
0.0067213
0.00116643
0.00679272
0.00678598
0.00194579
0.00696855
0.00671936
0.00680785
0.00540822
0.00682694
0.00691446
0.0211063
0.00695874
0.0068198
0.00235918
0.0131166
0.00672356
0.00670322
0.00100658
0.0115604
0.0018484
0.00676949
0.00618766
0.00497227
0.00671275
0.00861247
0.00582332
0.0048072
0.0156277
0.00783844
0.00527873
0.00904708
0.00196205
0.00672032
0.00670976
0.00674619
0.00678596
0.00565265
0.00671473
0.000986522
0.00712386
0.0070392
0.006835
0.0151845
0.00671602
0.00793403
0.0057426
0.00724031
0.00863175
0.00857273
0.00816025
0.00669338
0.00123542
0.00676722
0.00815208
0.00683525
0.00472136
0.014928
0.00775369
0.0155048
0.00671802
0.00897805
0.00705028
0.00766427
0.00676068
0.00955862
0.00682989
0.00672239
0.00672257
0.0137584
0.00678984
0.00299915
0.00908247
0.00557785
0.0137302
0.00670784
0.00671513
0.0140108
0.00223377
0.0201339
0.00681299
0.0067473
0.0148337
0.0165111
0.000974502
0.0067234
0.00143796
0.0186149
0.00671738
0.00758995
0.00669581
0.00725101
0.0162122
0.0188096
0.00350431
0.00671618
0.00671655
0.00657265
0.00670067
0.00764729
0.00703488
0.00346436
0.00672601
0.00530514
0.00710837
0.00692947
0.005266
0.0118861
0.0119302
0.0077278
0.00712452
0.00770983
0.00470055
0.0067229
0.0207083
0.00671509
0.000896134
0.0228389
0.00699374
0.0166516
0.00670869
0.00687956
0.00673072
0.00671771
0.00673272
0.00674197
0.00669292
0.00548713
0.0070473
0.00674231
0.00642709
0.00673861
0.00695646
0.00671825
0.00428318
0.00689058
0.00403112
0.00720849
0.00820414
0.00670919
0.00669665
0.00500773
0.00679943
0.0106069
0.0168473
0.00695582
0.00681524
0.00374088
0.013687
0.0144422
0.00674106
0.00671458
0.00696019
0.00482174
0.00186454
0.0140665
0.00756156
0.00731048
0.00462076
0.00717162
0.0051098
0.00248569
0.0066483
0.00672047
0.00815801
0.00372918
0.00671631
0.00672714
0.00675049
0.00674313
0.0067114
0.0067484
0.00671166
0.00711067
0.012305
0.00655837
0.00694225
0.00176746
0.00138123
0.00672709
0.00671083
0.0015086
0.00622364
0.0075213
0.00671845
0.00699654
0.00671598
0.00670897
0.014008
0.00672833
0.00670964
0.0118836
0.00808775
0.0168125
0.0067289
0.00191395
0.00678891
0.0192839
0.00673075
0.00690511
0.0072027
0.00671352
0.00670149
0.00502901
0.00670758
0.00100809
0.0055196
0.0130153
0.00704883
0.00783126
0.00691261
0.00673696
0.00696405
0.00671445
0.0166288
0.0154723
0.00672214
0.0129608
0.00102662
0.00669731
0.00672063
0.0110723
0.00938859
0.00460007
0.00696228
0.0123671
0.0108928
0.00678031
0.0156002
0.0113327
0.0135061
0.00796175
0.00826126
0.0102488
0.00668567
0.00806177
0.00932027
0.00674331
0.0219973
0.0160676
0.00488869
0.00668575
0.0155736
0.0067118
0.00671349
0.00236833
0.0024503
0.00671076
0.00698891
0.00212306
0.00681108
0.00773933
0.00672077
0.0058777
0.00768965
0.00335122
0.00678427
0.00264018
0.00582435
0.0151535
0.00846592
0.00691117
0.018339
0.00670965
0.0162648
0.00434524
0.00692529
0.0137865
0.00696749
0.0104562
0.00673486
0.00224707
0.00677216
0.00689609
0.00669758
0.00678453
0.00674003
0.00694699
0.00172849
0.00496057
0.00671394
0.00257348
0.00269072
0.00670114
0.00671199
0.0105257
0.0104002
0.00108121
0.00948562
0.0141343
0.00671581
0.0067868
0.00809731
0.00741061
0.00863301
0.00482698
0.00670921
0.00677039
0.00690646
0.00670095
0.00673365
0.00112051
0.00672316
0.0189666
0.00672345
0.00673241
0.00159549
0.00668717
0.00129165
0.00282986
0.00675381
0.00671528
0.00672721
0.00510141
0.00668601
0.00673378
0.0106665
0.0116931
0.00773593
0.00698576
0.00132888
0.0067176
0.00692547
0.00672396
0.018574
0.00763867
0.0176847
0.0095875
0.00171418
0.00716515
0.00115949
0.00672619
0.00715783
0.00668647
0.0067171
0.00726377
0.00671682
0.0060468
0.0127862
0.00623612
0.005304
0.00343398
0.01564
0.00908348
0.00671073
0.00787588
0.00178252
0.00161161
0.00674561
0.00671842
0.00670439
0.00226856
0.0186335
0.0123032
0.0153257
0.00671562
0.00171993
0.00671437
0.00865149
0.0194525
0.00672776
0.00720284
0.00689019
0.00497888
0.020171
0.00557335
0.00669173
0.00358657
0.0074154
0.00828989
0.0067847
0.00698071
0.00903508
0.0135004
0.00673982
0.00691429
0.00672345
0.00703615
0.00684099
0.0101249
0.00670282
0.0070517
0.00821442
0.00672371
0.00671842
0.0187491
0.00753458
0.00677869
0.00694758
0.00504372
0.00671051
0.00673384
0.00328714
0.0152837
0.00675879
0.00710187
0.00671956
0.0067219
0.00672279
0.00674553
0.00984766
0.0142944
0.00442405
0.0114435
0.00670445
0.00667166
0.00670824
0.00699641
0.00131498
0.00695404
0.00765008
0.00671099
0.0081807
0.00679438