/*--------------------------------*- C++ -*----------------------------------*\
| =========                 |                                                 |
| \\      /  F ield         | OpenFOAM: The Open Source CFD Toolbox           |
|  \\    /   O peration     | Version:  v2012                                 |
|   \\  /    A nd           | Website:  www.openfoam.com                      |
|    \\/     M anipulation  |                                                 |
\*---------------------------------------------------------------------------*/
FoamFile
{
    version     2.0;
    format      ascii;
    class       surfaceVectorField;
    location    "700";
    object      Uf;
}
// * * * * * * * * * * * * * * * * * * * * * * * * * * * * * * * * * * * * * //

dimensions      [0 1 -1 0 0 0 0];


internalField   nonuniform List<vector> 
14516
(
(0.937939 -0.103114 -2.67251e-22)
(0.942244 -0.110722 0)
(0.946728 -0.101598 -2.84817e-22)
(0.887293 -0.110224 2.55031e-22)
(0.888283 -0.0844946 4.19529e-22)
(0.881066 -0.0815288 -1.71502e-23)
(0.933583 -0.0952149 -2.74944e-22)
(0.927927 -0.104486 3.25871e-22)
(1.01545 -0.00109957 0)
(1.01548 -0.0012028 2.1104e-22)
(1.01559 -0.00110246 5.28764e-22)
(0.888069 -0.276396 -2.77074e-21)
(0.873557 -0.283599 2.68139e-23)
(0.8935 -0.294588 2.33623e-21)
(1.03156 0.003978 -1.84224e-22)
(1.02982 0.00388168 -6.13618e-23)
(1.03033 0.00242606 -8.297e-22)
(1.00928 -0.00010046 5.7764e-22)
(1.01015 -0.000279445 -1.33639e-21)
(1.01088 -0.000380402 -9.97366e-22)
(1.0122 -0.00129441 0)
(1.01225 -0.00126809 4.63996e-22)
(1.01224 -0.00148635 0)
(1.03205 -0.00243481 3.97359e-22)
(1.03243 -0.00187067 9.77307e-22)
(1.03279 -0.00276524 2.08106e-21)
(0.887777 -0.262577 -4.8579e-21)
(0.905364 -0.271593 1.14755e-20)
(1.09626 -0.101251 -9.01611e-22)
(1.10083 -0.105658 -1.1696e-20)
(1.10206 -0.0977347 -1.03371e-20)
(1.05876 0.10649 -3.93373e-22)
(1.02734 0.130604 1.27538e-21)
(1.03082 0.12878 -4.20002e-22)
(1.01536 -0.000969818 0)
(1.0153 -0.00106749 6.21525e-22)
(1.00959 -0.00132167 1.69678e-23)
(1.00985 -0.00220582 2.13627e-22)
(1.01034 -0.00163127 9.21739e-22)
(1.0039 -5.31578e-05 8.76461e-22)
(1.00393 1.07009e-05 -6.44938e-22)
(1.00949 -0.000499505 4.03045e-22)
(1.00948 0.000310174 2.02212e-21)
(1.0101 -0.000172971 1.88281e-21)
(1.01143 -0.00709286 -1.03282e-21)
(1.01277 -0.00689692 -1.54888e-21)
(1.01176 -0.00598934 1.04913e-21)
(1.01003 -0.00711817 2.56336e-22)
(1.01121 -0.00853945 -1.00175e-21)
(0.749995 -0.106322 -6.37911e-22)
(0.761875 -0.119422 -9.7355e-23)
(0.723838 -0.131122 9.83417e-22)
(1.00873 -0.000950689 -1.02021e-21)
(0.90679 0.136698 -1.7764e-22)
(0.884409 0.134106 -2.67484e-21)
(0.925653 0.126974 -8.25579e-22)
(1.01273 -0.0169505 1.97682e-22)
(1.01281 -0.0186162 4.46452e-22)
(1.01422 -0.017669 -5.16484e-22)
(1.01074 0.0826665 4.24019e-23)
(1.00073 0.0889045 -2.19293e-23)
(1.0111 0.09274 4.95943e-22)
(1.01478 0.00182188 -4.01856e-23)
(1.01489 0.00173985 -2.54843e-23)
(1.01238 -0.0171932 7.29501e-22)
(1.01363 -0.0182686 6.48261e-22)
(1.01177 -0.0189526 -2.9611e-22)
(1.01511 -0.000757425 9.90402e-23)
(1.01536 -0.000838552 -1.65613e-24)
(1.00871 0.00249484 -1.23302e-22)
(1.00829 0.00160752 -1.04555e-21)
(1.00769 0.00252239 1.41842e-22)
(1.01525 -0.0044075 2.83529e-24)
(1.01597 -0.00474281 1.09198e-22)
(1.01566 -0.00393609 1.29451e-21)
(1.03878 -0.0989904 7.31957e-21)
(1.04285 -0.0956223 5.94443e-21)
(1.03662 -0.0950271 -9.69906e-22)
(1.03132 -0.00215996 -2.1101e-23)
(1.03171 -0.00292177 1.7203e-22)
(1.07355 0.013959 0)
(1.07676 0.0175665 0)
(1.07017 0.0195025 -1.88796e-21)
(1.02112 0.0743364 5.16164e-22)
(1.01188 0.0729448 4.73269e-23)
(1.04641 -0.175171 0)
(1.03 -0.200024 -2.62233e-21)
(1.03385 -0.184213 0)
(1.0079 2.51875e-05 6.98148e-22)
(1.00787 1.26722e-06 -8.74817e-22)
(1.00562 1.70854e-05 -8.50748e-22)
(1.0343 -0.102823 2.3518e-21)
(1.02879 -0.106747 6.4404e-22)
(1.02667 -0.101559 2.46661e-21)
(0.809806 0.151541 2.34328e-21)
(0.787418 0.149078 0)
(0.794017 0.170858 -8.42191e-22)
(1.00827 -7.5615e-05 1.52503e-21)
(1.00649 2.84847e-05 1.01879e-21)
(1.01131 -0.0161604 -2.1897e-22)
(1.01288 -0.0152737 -2.41469e-22)
(1.01172 -0.00126805 -1.90966e-22)
(1.01151 -0.00110349 5.73007e-22)
(1.01154 -0.00157123 -2.59979e-21)
(1.01082 -0.000116028 0)
(1.01039 -0.000127107 7.73e-22)
(1.01126 -0.000104056 -1.44462e-21)
(1.06878 0.00991394 0)
(1.07549 0.00612362 -7.06234e-22)
(1.00661 1.52348e-05 1.89621e-21)
(1.00358 -5.99388e-05 1.16886e-22)
(1.01384 -0.000618203 2.86067e-22)
(1.01448 -0.000589747 2.64739e-22)
(1.01382 -0.00060574 1.39212e-21)
(1.00998 -0.000184752 -8.78942e-22)
(1.00914 -0.000231419 -1.05718e-21)
(1.01086 -0.000167005 3.09384e-22)
(1.01148 -0.000354418 6.13373e-22)
(1.01396 -0.000521363 0)
(1.01488 -0.000703882 7.92711e-23)
(1.04121 -0.104403 1.91808e-21)
(1.05895 -0.0620499 5.23519e-22)
(1.05406 -0.0727605 5.03645e-22)
(1.04966 -0.0635248 -1.66595e-22)
(1.08937 -0.104968 0)
(1.10402 -0.104618 2.07814e-21)
(1.09419 -0.0930161 0)
(1.01554 -0.00130603 -1.0074e-22)
(1.0154 -0.00128934 6.68011e-22)
(1.02316 -0.111204 -2.61085e-21)
(1.03186 -0.112893 -3.36274e-21)
(1.08497 -0.115578 -6.547e-24)
(1.09149 -0.116014 4.07251e-22)
(1.08803 -0.10964 4.2025e-22)
(1.02575 0.00558935 -1.64369e-21)
(1.02715 0.00637624 -3.17317e-21)
(1.02569 0.00736485 -1.20824e-21)
(1.02823 -0.00846885 -2.68965e-21)
(1.02793 -0.00791856 2.5051e-21)
(1.02748 -0.0083679 2.57979e-21)
(1.0247 -0.200271 -9.47952e-21)
(1.03143 -0.210276 3.34998e-21)
(1.03374 -0.19457 -3.77654e-21)
(0.853091 0.215262 -1.58729e-23)
(0.855302 0.221944 0)
(0.860229 0.225937 0)
(1.02461 0.000744268 -7.18749e-23)
(1.02414 0.000796067 -1.88093e-24)
(1.15679 -0.120534 -7.65136e-21)
(1.15736 -0.112861 6.56605e-21)
(1.14946 -0.117562 7.95714e-21)
(1.00381 -0.303858 6.54484e-21)
(1.00178 -0.302806 1.1748e-20)
(0.981498 -0.313274 0)
(1.01184 -0.00138019 -8.32472e-23)
(1.01181 -0.00109803 -6.20152e-22)
(1.00897 -0.000110049 0)
(1.00836 -7.03084e-06 4.91021e-22)
(1.00985 -0.000150447 -1.5287e-22)
(1.02066 0.00473487 4.89801e-22)
(1.02162 0.0058257 0)
(1.02002 0.00625616 0)
(1.10814 -0.205806 2.83132e-22)
(1.11064 -0.221889 1.30468e-21)
(1.12476 -0.200921 3.46838e-22)
(1.01684 -0.000406833 1.26603e-24)
(1.01746 -0.000541149 1.70979e-22)
(1.01654 -0.000410355 -1.32941e-23)
(0.932686 -0.341222 -8.53186e-21)
(0.910234 -0.332458 4.56393e-21)
(1.07818 -0.122906 -2.68397e-21)
(1.06434 -0.152893 6.96822e-22)
(1.07021 -0.137172 -3.00416e-21)
(1.10317 -0.18216 -5.58776e-22)
(1.08747 -0.198922 -9.12193e-22)
(1.09837 -0.164312 2.96577e-21)
(1.09219 -0.14707 3.73957e-21)
(1.07991 -0.158728 0)
(1.08942 0.081012 0)
(1.08842 0.0866305 -2.45962e-21)
(1.09062 -0.103156 0)
(1.0922 -0.0953346 -5.67459e-21)
(1.014 -0.20725 1.7945e-21)
(1.0166 -0.19115 0)
(1.01209 0.000189262 0)
(1.01248 0.000248593 -2.95675e-23)
(1.01325 0.000372154 0)
(1.0192 -0.00377377 -6.54739e-22)
(1.01942 -0.00376677 -9.12521e-22)
(1.01947 -0.00389734 -3.69454e-22)
(0.930246 -0.0576117 1.446e-21)
(0.938405 -0.0479708 -5.58089e-22)
(0.944261 -0.0581072 -6.05999e-22)
(1.01681 -0.11278 0)
(1.02118 -0.120235 6.82613e-23)
(1.00482 -0.288607 1.23008e-21)
(1.02652 -0.290236 1.16909e-21)
(1.02482 0.000416059 -9.00106e-24)
(1.02503 5.52413e-05 6.75999e-23)
(1.02449 0.000179697 7.34395e-23)
(1.00935 0.000803894 -5.78653e-22)
(1.0091 0.00190987 -2.49992e-22)
(1.00817 0.00073143 -2.02632e-22)
(1.02754 -0.00095178 -6.03115e-22)
(1.02665 0.000207684 -6.99726e-22)
(1.0257 -0.00096651 -6.80567e-22)
(1.0184 -0.00542823 -1.02712e-21)
(1.01884 -0.00460902 -1.68655e-21)
(1.01765 -0.00476688 1.94237e-22)
(1.08116 -0.108155 5.80413e-21)
(1.08765 -0.0953019 0)
(1.02668 0.00440113 6.73873e-22)
(1.02522 0.0050198 -3.17809e-22)
(1.02493 0.00356497 8.5708e-24)
(0.902171 -0.0880711 4.277e-22)
(0.906397 -0.0565661 5.28656e-22)
(0.913766 -0.0860919 1.0035e-20)
(1.06161 -0.0117222 -3.46474e-23)
(1.06324 -0.0187379 4.33942e-23)
(1.05756 -0.0166765 -1.89788e-22)
(1.06342 0.00727783 -9.90006e-23)
(1.06166 0.0125982 -1.52943e-21)
(1.06392 -0.0431778 -3.15317e-23)
(1.06165 -0.0527455 -2.93583e-21)
(1.05655 -0.0463038 -1.34178e-23)
(1.0193 -0.00630042 0)
(1.01786 -0.0063307 0)
(1.02517 -0.000269784 -4.20479e-22)
(1.0253 -0.00062008 -4.43148e-22)
(1.0248 -0.000484896 -4.46711e-22)
(1.02099 0.00350698 2.42979e-23)
(1.02128 0.00219549 -5.30073e-22)
(1.02215 0.00298997 -1.16441e-21)
(1.02324 0.00834713 -1.21671e-21)
(1.02502 0.00810294 -1.22161e-21)
(1.02455 0.00998618 9.31293e-22)
(0.892917 -0.134306 -3.05186e-21)
(0.889835 -0.128292 3.72091e-21)
(1.01136 -0.297788 -9.59175e-21)
(0.992076 -0.302229 9.40475e-22)
(0.998374 -0.282833 -1.90895e-22)
(1.01523 0.00119261 -4.57319e-23)
(1.01546 0.00145122 6.04686e-22)
(1.0156 0.00125497 1.22236e-21)
(1.03074 0.0662328 4.27251e-22)
(1.03141 0.0757343 -1.74672e-21)
(1.01967 0.00369365 4.67916e-22)
(1.06317 -0.00469372 7.74375e-24)
(1.05933 -0.0053619 -1.92224e-22)
(0.857344 0.205385 -4.58661e-22)
(0.846515 0.205496 1.78398e-22)
(0.89453 -0.0866901 -4.3723e-21)
(0.899838 -0.117467 -3.69755e-22)
(1.01489 0.00108766 -1.20969e-21)
(1.015 0.000975059 -1.22087e-21)
(1.01479 -5.65915e-05 0)
(1.01503 8.11279e-07 0)
(1.01466 4.93718e-05 0)
(1.01493 -0.000196225 -4.60015e-22)
(1.01455 -0.000119071 -2.63848e-22)
(1.01543 0.00899772 -3.06773e-21)
(1.01669 0.00977879 -2.78532e-21)
(1.01542 0.0106348 -1.47649e-21)
(1.01298 -0.000400009 2.61598e-23)
(1.01301 -0.000276981 1.31623e-21)
(1.013 -0.000415933 1.20629e-22)
(1.01295 -0.00037578 1.01115e-23)
(1.01296 -0.000485968 5.05731e-23)
(1.01036 0.00101043 2.54322e-22)
(1.00971 -0.000241935 -1.92027e-22)
(1.05894 0.00517282 -2.0841e-21)
(1.06451 0.00171222 3.52679e-22)
(1.02111 0.00132658 -4.09701e-22)
(1.0203 0.00159244 -4.39005e-22)
(1.00872 1.96735e-06 -2.68586e-22)
(1.00932 -0.000114278 1.93948e-21)
(1.0102 -0.000152437 0)
(1.02558 0.00403756 9.69299e-22)
(1.02435 0.0047142 1.86505e-21)
(1.02845 -0.106033 -3.67133e-22)
(1.01722 -0.110371 0)
(1.01948 -0.0956413 -1.11921e-22)
(1.01185 0.000196482 0)
(1.01074 7.61441e-05 -1.30933e-22)
(0.927349 0.154317 2.82578e-23)
(0.953722 0.149878 -4.76271e-22)
(0.91819 0.165639 4.44858e-23)
(1.02249 0.000955288 -1.77677e-22)
(1.02285 0.000874429 -4.72628e-23)
(0.84445 0.228744 -1.05376e-21)
(0.848984 0.220135 1.85227e-21)
(0.853772 0.226496 -1.07377e-21)
(1.0784 -0.115004 -1.74178e-21)
(1.08138 -0.12163 7.14829e-21)
(1.02517 0.000631208 -7.22563e-23)
(1.01718 -0.201208 1.26036e-21)
(0.999425 -0.209333 -9.01861e-22)
(1.0063 -0.190568 -8.81486e-22)
(1.01073 -0.115927 0)
(1.01275 -0.107032 -9.87042e-22)
(1.02815 0.0033349 1.27409e-21)
(1.02855 0.00519376 -1.16415e-21)
(1.03089 0.0580749 1.66462e-22)
(1.03991 0.0562798 1.52554e-22)
(1.03688 -0.100215 -8.73206e-21)
(1.03717 -0.114463 -9.20819e-21)
(1.00743 0.000126225 1.19465e-23)
(1.0046 4.38747e-05 -4.4434e-23)
(1.00474 3.86645e-05 -2.6315e-23)
(1.02236 -0.00271938 6.2324e-23)
(1.0226 -0.00294614 -1.86186e-22)
(1.02265 -0.00267368 -3.43611e-23)
(1.03342 0.00354336 9.80245e-22)
(1.03282 0.00542523 1.71854e-21)
(1.03071 -0.0139161 4.15727e-21)
(1.02996 -0.0146801 1.13131e-21)
(1.02972 -0.013421 2.00696e-21)
(0.89243 0.147189 3.46973e-22)
(0.930689 0.137203 1.70047e-21)
(1.1101 -0.0528286 -1.0032e-20)
(1.10988 -0.0486686 3.05676e-21)
(1.10621 -0.051307 -1.45427e-21)
(1.0643 -0.0343954 3.7684e-21)
(1.0686 -0.0376399 -1.00951e-22)
(1.02844 -0.00246522 6.63178e-22)
(1.0296 -0.00109817 -2.73738e-22)
(1.01919 -0.00322926 5.00592e-22)
(1.01917 -0.00315377 1.75127e-22)
(1.01902 -0.00313505 4.78504e-22)
(1.01061 0.000107935 6.43808e-23)
(1.01014 0.000132276 -1.21771e-23)
(1.01177 0.000169274 2.81967e-22)
(1.02556 -7.63776e-05 -1.52618e-24)
(1.01924 -0.00327275 -1.42012e-22)
(1.01936 -0.00329761 2.43757e-22)
(1.00911 0.00865063 7.69864e-22)
(1.00779 0.0083313 7.23426e-22)
(1.00865 0.00704195 -5.26605e-24)
(1.03068 -0.00190968 -6.33569e-22)
(1.03108 -0.0014659 -2.64352e-21)
(1.0254 -0.000971443 -5.49364e-22)
(1.0255 -0.00136781 1.21553e-22)
(1.02502 -0.00116317 -8.06182e-22)
(1.01483 -0.000232088 -3.91075e-25)
(1.01701 -0.000369851 1.11403e-24)
(1.00935 -7.33869e-05 0)
(1.01082 -0.000235568 -3.01404e-22)
(1.02228 0.000704739 1.5924e-23)
(1.02209 0.000970369 -1.66021e-22)
(1.01324 0.000481057 -4.24807e-22)
(1.01341 0.000547442 -9.76059e-23)
(1.01324 0.00050804 -4.01883e-22)
(1.02209 -0.00273988 1.86154e-22)
(1.02211 -0.00252469 3.27614e-22)
(1.01009 -0.0150296 -7.62415e-22)
(1.01114 -0.0161168 -7.54114e-22)
(1.00934 -0.0163909 2.16337e-22)
(1.01321 -0.000764746 5.54073e-22)
(1.01345 -0.000801381 0)
(1.01311 -0.000732735 0)
(1.01528 -0.000808618 0)
(1.01498 -0.000792913 0)
(1.01525 -0.0010763 -8.39769e-22)
(1.00917 -0.00296231 -9.84409e-22)
(1.01014 -0.00310125 -2.01952e-21)
(1.00902 -0.0049703 -1.07209e-21)
(1.00851 -0.00382354 -1.11213e-21)
(1.00763 -0.00487191 1.88016e-23)
(0.910594 -0.0250007 3.3764e-22)
(0.913457 -0.00581588 -1.15176e-20)
(0.903069 -0.00904347 1.5444e-22)
(1.01519 -0.000578658 4.27603e-22)
(1.01566 -0.000791828 1.24484e-22)
(1.01403 0.000726688 2.20617e-21)
(1.01429 0.000857519 5.4606e-22)
(1.01412 0.000891676 5.26727e-22)
(1.02931 -0.294933 8.529e-21)
(1.02486 -0.316513 -2.30752e-20)
(0.812881 -0.211732 -2.55187e-22)
(0.801343 -0.213265 1.67539e-22)
(0.803567 -0.223407 6.55061e-22)
(1.01148 0.000205622 2.9815e-22)
(1.00944 1.95832e-05 3.17482e-22)
(0.823 -0.205618 -8.40962e-22)
(0.820956 -0.217934 -1.73616e-21)
(0.880286 -0.249004 -1.73055e-21)
(0.895413 -0.243639 -3.73545e-21)
(1.01378 0.000596663 8.48709e-22)
(1.01391 0.000603461 3.46604e-22)
(1.00943 0.000174145 -1.12423e-23)
(1.0093 0.000182001 1.44415e-22)
(1.012 0.000205916 -4.3997e-22)
(1.01135 0.00015585 2.79347e-22)
(1.01241 0.000283378 4.96795e-22)
(1.00917 -0.0138689 0)
(1.01063 -0.013929 1.72667e-21)
(1.01509 -0.000361707 -3.42643e-24)
(1.01481 -0.000410725 4.24773e-22)
(1.01328 -0.000808282 -6.16e-22)
(1.01298 -0.000628804 1.05987e-21)
(1.01214 -0.00134931 -3.31864e-22)
(1.01217 -0.00112064 0)
(1.01475 -0.00401884 6.97226e-23)
(1.01473 -0.00475036 -5.95472e-23)
(1.01053 0.00295615 1.94864e-21)
(1.01098 0.00350673 -4.12119e-22)
(1.01037 0.0037331 9.34818e-22)
(0.739353 -0.09081 2.34336e-22)
(0.727052 -0.0712619 -2.23029e-20)
(0.698557 -0.0931462 2.87199e-21)
(0.905426 -0.050342 -2.32798e-21)
(0.918261 -0.0553368 -5.00788e-22)
(0.912968 -0.0401091 -7.68403e-22)
(0.844003 0.142341 -4.16603e-21)
(0.858259 0.128438 5.35553e-22)
(1.0656 -0.0587183 -5.40229e-23)
(1.0187 -0.0453199 -5.2815e-22)
(1.01974 -0.0428637 2.30835e-21)
(1.01662 -0.0431144 -1.42631e-21)
(1.00951 0.00240792 -1.13055e-21)
(1.00912 0.00329024 -6.83436e-23)
(1.0142 0.0059685 -1.3677e-21)
(1.01516 0.00664142 5.25043e-22)
(1.01496 0.00560772 9.22899e-22)
(1.02091 -0.00804117 3.94277e-22)
(1.02101 -0.00738639 2.1581e-22)
(1.02034 -0.0077244 -1.11377e-21)
(0.926556 0.253924 1.75615e-21)
(0.933183 0.255749 -1.61859e-21)
(0.931862 0.245175 -2.53693e-21)
(0.900524 -0.0641704 6.37534e-25)
(0.894863 -0.0443101 -4.02152e-21)
(0.919293 0.26403 6.23815e-21)
(0.917801 0.24911 -2.79956e-21)
(1.03186 -0.0123483 -2.2431e-21)
(1.03131 -0.0131952 1.65287e-22)
(1.03095 -0.0119476 0)
(0.774681 -0.0854806 1.13549e-21)
(1.02582 -0.000789391 6.15825e-22)
(1.01486 0.00117926 -5.03137e-23)
(1.01494 0.00118823 0)
(1.0149 0.000998924 1.41876e-22)
(1.01954 -0.00351654 -2.24565e-23)
(1.01971 -0.00356555 -2.3339e-22)
(1.01951 -0.00346603 2.2015e-22)
(1.05167 -0.0513605 -2.65925e-21)
(1.05016 -0.0539755 -2.91373e-21)
(1.05408 -0.0532013 0)
(0.974064 -0.0946946 -2.38646e-20)
(0.828352 -0.0600951 4.0135e-21)
(0.833227 -0.0585256 7.10202e-21)
(1.0468 -0.0126959 1.57776e-21)
(1.04566 -0.0117522 -3.94153e-22)
(1.04538 -0.0132513 3.64683e-21)
(1.0154 -0.000314471 -4.50985e-22)
(1.01267 -0.0157618 0)
(0.966054 -0.248456 -5.14433e-21)
(0.966573 -0.270132 7.48629e-21)
(0.952893 -0.256834 -3.97073e-21)
(1.01894 -0.00366913 6.66854e-22)
(1.01898 -0.00379483 1.06098e-21)
(1.156 -0.129277 0)
(1.16493 -0.124922 1.56216e-20)
(1.01955 -0.00356029 1.1632e-22)
(1.01936 -0.00345656 -5.98694e-22)
(1.02196 -0.00319231 -1.33212e-22)
(1.0217 -0.00317571 -1.33153e-22)
(1.02189 -0.0033911 1.14462e-23)
(1.01021 0.00238249 3.83328e-22)
(1.01077 0.00229047 9.85555e-22)
(1.03288 -0.0128099 -3.75326e-21)
(1.03241 -0.0115587 1.64801e-21)
(1.01974 -8.83155e-05 -1.21168e-22)
(1.01975 -0.000198177 3.19682e-22)
(1.01991 -9.55453e-05 7.22812e-23)
(1.07602 -0.105439 8.22908e-23)
(1.08116 -0.117022 -3.37427e-21)
(0.902206 0.156928 8.2336e-22)
(0.941242 0.144729 -6.10843e-23)
(1.11922 -0.165988 -1.99062e-21)
(1.05359 -0.0484135 -2.72472e-21)
(1.04984 -0.0492162 -3.44019e-21)
(0.894822 -0.122159 -3.48057e-22)
(0.907491 -0.123824 7.88416e-23)
(0.899927 -0.113045 2.46462e-22)
(1.01845 0.00449708 1.57736e-23)
(1.01808 0.00520096 -1.74405e-22)
(1.01754 0.00447791 -1.81483e-22)
(0.865786 -0.251077 7.67481e-21)
(0.8754 -0.234583 3.64738e-21)
(1.01323 0.00044986 -3.97477e-22)
(1.01297 0.000412555 3.42444e-22)
(1.03013 -0.0017393 -1.7784e-21)
(1.03044 -0.00231137 9.83846e-22)
(0.723139 -0.051237 -1.88514e-21)
(0.709043 -0.0309101 0)
(0.746287 -0.0202794 6.43961e-21)
(0.851943 0.219872 1.7723e-21)
(0.858684 0.226598 0)
(1.01918 -0.00309992 -7.92171e-22)
(1.01901 -0.00298805 -1.32667e-22)
(1.01919 -0.00303574 1.90684e-22)
(1.02557 -0.00172258 -5.94109e-22)
(1.02597 -0.00155029 -2.09087e-22)
(1.01127 0.00103217 0)
(1.01102 0.00196261 2.01952e-23)
(0.83468 0.155279 2.42246e-21)
(1.01299 -0.0017508 -9.98615e-22)
(1.01269 -0.00137813 1.15343e-21)
(1.01259 -0.00185234 -8.23655e-22)
(1.05453 0.00317057 -1.35979e-21)
(1.05353 0.00736935 -1.77396e-21)
(1.03416 -0.0216384 -1.0869e-22)
(1.03263 -0.021323 -7.24028e-24)
(1.03364 -0.0200743 -1.07457e-22)
(1.03645 -0.0664567 9.73846e-21)
(1.03962 -0.0637656 5.32901e-21)
(1.03981 -0.0682416 -3.89542e-22)
(1.06414 -0.10336 -4.06076e-22)
(1.06992 -0.094088 4.60365e-22)
(1.11998 -0.102844 -2.90722e-22)
(1.11273 -0.118451 -1.40074e-21)
(1.0284 -0.00929557 -7.58684e-22)
(1.02901 -0.00869129 -2.10269e-21)
(0.881913 -0.123894 -3.42095e-22)
(0.891621 -0.133993 -4.87946e-22)
(1.01171 0.000217429 -3.32735e-23)
(1.01261 0.000248508 -1.88695e-22)
(1.01245 0.00637677 8.54756e-24)
(1.01146 0.00643989 -7.14944e-23)
(1.01183 0.00543847 -1.7527e-21)
(0.964056 -0.232465 4.33618e-21)
(0.97906 -0.23886 4.85018e-21)
(1.01198 0.00106059 -6.04348e-23)
(1.01143 0.000255852 3.50022e-22)
(1.09429 -0.0436096 7.36422e-21)
(1.07098 -0.0287946 -2.50592e-20)
(1.06911 0.0130278 -8.63923e-21)
(0.989887 -0.122665 -3.06084e-25)
(0.984897 -0.116511 1.80183e-21)
(0.981058 -0.124944 4.1685e-22)
(1.02344 -0.00193147 -6.49929e-22)
(1.02374 -0.0018005 9.55999e-23)
(1.02334 -0.00167555 -4.73932e-22)
(1.03173 -0.0144566 1.42552e-22)
(1.01969 2.16755e-05 -1.27709e-22)
(1.01958 -8.84234e-05 3.54756e-23)
(1.06456 -0.0260716 -1.15807e-22)
(1.06737 -0.0192807 -4.82232e-21)
(0.760107 -0.0567805 -1.57099e-21)
(1.0287 0.00532684 4.94531e-23)
(1.02815 0.00355747 -1.07102e-22)
(1.01361 0.000467366 -6.50583e-22)
(1.0135 0.000371735 -2.95713e-22)
(1.01343 0.000339309 6.65449e-22)
(0.997084 -0.120631 0)
(0.993963 -0.128895 -2.79247e-22)
(1.08428 -0.0925765 2.779e-22)
(1.08169 -0.0977603 -3.3359e-21)
(1.07874 -0.0930632 -9.79153e-21)
(1.01459 0.00149961 1.25176e-23)
(1.0146 0.00206087 -4.56255e-23)
(1.01481 0.00139279 4.30659e-23)
(1.01499 0.0016884 -2.27005e-23)
(1.04818 -0.0123081 -6.30986e-21)
(1.04776 -0.01403 1.73596e-21)
(1.01281 0.00036964 -1.85978e-22)
(1.01308 0.000393453 0)
(1.01268 0.000356313 -4.37963e-23)
(1.10882 -0.0716968 -2.40711e-20)
(1.10964 -0.0667389 3.4741e-21)
(1.10457 -0.0691656 -3.4449e-21)
(1.11582 -0.0558614 1.95446e-20)
(1.11738 -0.0941329 -6.16098e-21)
(1.02211 0.000497473 8.76225e-25)
(1.02177 0.000523326 1.65401e-24)
(1.02194 0.000300073 5.85228e-23)
(1.01906 -0.0065087 -1.14125e-21)
(1.01946 -0.00691258 1.16851e-21)
(1.01894 -0.0069386 -1.05938e-21)
(0.871506 0.20517 -5.44749e-22)
(0.868286 0.194627 -4.80529e-21)
(1.01859 0.00802552 -1.36195e-21)
(1.01931 0.0071244 9.41129e-22)
(1.02013 0.00854873 -9.92612e-22)
(1.05118 0.0016599 1.75575e-21)
(1.05518 -0.00104651 2.2912e-21)
(1.01171 -0.00314834 1.94081e-23)
(1.01097 -0.00318652 -1.12991e-21)
(1.01135 -0.00247068 -1.33972e-22)
(1.01788 -0.0068568 -5.77575e-22)
(1.01736 -0.00677406 -6.56484e-22)
(1.01763 -0.00725481 -6.33694e-22)
(1.05653 -0.164989 3.78775e-21)
(1.06164 -0.144973 -6.74776e-21)
(1.0187 -0.00616782 -6.89815e-23)
(1.01823 -0.00614544 0)
(1.01835 -0.0058048 6.96199e-23)
(1.01458 0.000977728 -5.95616e-22)
(1.01441 0.000807079 6.33571e-22)
(1.01225 -0.00108201 -3.95044e-22)
(1.01229 -0.00125715 1.06219e-21)
(1.0084 -0.0126241 -1.91997e-22)
(1.00748 -0.0136871 1.75586e-21)
(1.01472 0.00120026 -5.67543e-22)
(1.00905 -8.56679e-05 7.94809e-22)
(1.00767 5.18039e-05 1.60933e-21)
(1.02086 -0.00847642 3.10507e-22)
(1.02133 -0.00863898 -1.90792e-22)
(1.02096 -0.00901526 5.6999e-22)
(1.03897 -0.0363162 1.29996e-21)
(1.04069 -0.0346914 3.36218e-21)
(1.03822 -0.0344304 -3.3954e-21)
(1.07144 -0.11356 5.62489e-21)
(1.07538 -0.108254 1.9232e-22)
(1.1104 -0.0576859 0)
(1.11019 -0.0622125 1.6309e-20)
(1.10606 -0.060032 -9.14605e-21)
(1.01688 -0.00595802 -5.89091e-22)
(1.01665 -0.00559878 -2.1682e-21)
(1.01645 -0.00584286 -1.77179e-21)
(1.00666 -0.0127954 2.00499e-22)
(1.00734 -0.0107768 2.46686e-22)
(1.00506 -0.0111942 -5.08454e-22)
(1.02105 -0.00689448 6.59056e-22)
(1.02045 -0.00665082 0)
(1.02104 -0.0064092 -6.70436e-22)
(1.03728 -0.0379855 -2.01063e-21)
(1.03998 -0.038334 -6.61111e-21)
(1.03711 -0.00530644 6.95686e-22)
(1.03751 -0.00339936 9.11584e-23)
(1.03543 -0.00397854 1.23789e-21)
(1.01359 -0.00151401 0)
(1.01327 -0.00167006 -7.34467e-23)
(1.01325 -0.00124551 0)
(1.03268 -0.152405 -1.46997e-21)
(1.02363 -0.171256 -5.13108e-21)
(1.01893 -0.1688 5.54149e-21)
(1.01917 -0.0061112 -1.13603e-21)
(1.06744 -0.119125 -9.19393e-22)
(1.0651 -0.112247 1.20798e-20)
(1.00797 0.000136747 1.01572e-22)
(1.00949 5.88065e-05 4.68874e-22)
(1.00848 5.19294e-05 6.51712e-22)
(1.02116 -0.0475456 -6.878e-21)
(1.01735 -0.0486499 -1.28999e-21)
(1.01342 0.00155652 -3.48081e-23)
(1.01301 0.00168861 3.1005e-23)
(1.01345 0.00201017 0)
(1.01354 0.00104745 -3.89823e-23)
(1.01384 0.00149722 1.47538e-22)
(1.03321 -0.069263 4.39296e-21)
(1.03328 -0.0646261 9.40369e-21)
(0.700322 -0.00765057 6.80759e-22)
(0.676982 -0.0373337 1.15523e-21)
(1.02154 0.000704008 -2.15074e-22)
(1.02238 0.000701473 0)
(1.02181 -0.000148088 -1.88417e-22)
(1.01391 -0.0018055 0)
(1.01378 -0.00141508 -2.10843e-22)
(1.01251 0.00214421 -9.24935e-22)
(1.01233 0.00193462 -1.13365e-21)
(1.01247 0.00182558 -7.12429e-22)
(0.994787 -0.0275652 6.12104e-23)
(0.997864 -0.0288383 -4.52997e-23)
(0.997101 -0.0252704 -1.32607e-22)
(1.02402 -0.00164707 3.57012e-22)
(1.02434 -0.00150384 -5.04163e-23)
(1.02392 -0.00134176 3.75929e-23)
(0.886637 -0.111013 8.7146e-23)
(0.894893 -0.125757 5.08765e-24)
(0.890251 -0.125399 2.67843e-22)
(0.878534 -0.0891164 8.15182e-23)
(0.883481 -0.0941882 -8.68681e-22)
(1.01934 -0.00319086 -4.3576e-22)
(0.877769 0.158548 9.11974e-22)
(0.870742 0.171442 4.85121e-21)
(1.01918 -0.000353784 0)
(1.01915 -0.000311103 1.17947e-22)
(1.01922 -0.000299028 0)
(1.11447 -0.0549657 6.18944e-22)
(1.00768 -0.0113369 -2.02517e-21)
(1.0091 -0.0117255 -1.9224e-22)
(1.01424 0.00103044 1.96274e-22)
(1.01442 0.00131191 6.2013e-24)
(1.01417 0.00141576 -1.79242e-22)
(1.00849 -8.36133e-05 3.13232e-22)
(1.00616 -4.49995e-05 0)
(1.00846 -3.2893e-05 7.17048e-22)
(1.01126 -0.000182625 0)
(1.01045 -7.27755e-05 3.21104e-22)
(1.02322 -0.00210363 -1.31898e-22)
(1.02353 -0.00218883 -3.85483e-22)
(1.02039 -0.00824538 0)
(1.02079 -0.00793622 -3.62363e-22)
(1.02626 -0.0452506 -8.96961e-23)
(1.02843 -0.04343 -1.51833e-21)
(1.02525 -0.0433065 4.13497e-21)
(1.01188 -0.000438502 0)
(1.01159 -0.000324177 2.86974e-22)
(1.0121 -0.000470139 1.26519e-21)
(1.02519 -0.00188508 -6.88496e-22)
(1.02561 -0.00209622 -4.71186e-22)
(1.02247 0.000460179 0)
(1.02331 -0.20497 1.79383e-21)
(1.03366 -0.190069 2.24947e-21)
(1.02429 0.00205038 8.78956e-25)
(1.02543 0.00264573 -2.0366e-22)
(1.02511 0.00153148 7.78718e-22)
(1.00655 -0.000175896 1.14445e-21)
(1.0112 5.58266e-05 9.83013e-22)
(1.00944 0.000148847 -4.32582e-22)
(1.0103 8.40196e-05 1.33437e-24)
(1.01056 0.00887861 0)
(1.00992 0.0103736 0)
(1.02743 -0.0164214 2.26472e-23)
(1.02639 -0.0169358 9.04035e-22)
(1.02645 -0.0157355 1.82109e-21)
(1.02405 -0.0470369 -6.29762e-21)
(1.02768 -0.0475133 6.99071e-21)
(1.01875 -0.000632014 -2.86525e-22)
(1.01878 -0.000738671 -1.56984e-23)
(1.01886 -0.000651956 9.38264e-23)
(0.668298 0.0510927 4.52956e-21)
(0.648696 -0.0402331 -5.57379e-21)
(0.635724 -0.00443941 -2.74044e-21)
(1.01367 0.000580213 9.83652e-23)
(1.02747 0.125752 -2.82579e-21)
(1.01705 0.167981 -6.45978e-21)
(1.03418 0.145117 -6.24948e-21)
(0.935892 -0.254064 -4.13212e-21)
(0.939486 -0.26564 4.93616e-21)
(0.928272 -0.262758 6.74114e-21)
(1.00633 1.90493e-05 -2.75128e-22)
(1.00824 2.30427e-05 1.17905e-21)
(1.0086 -2.5148e-05 5.06377e-22)
(1.00939 -0.000131114 -1.67464e-21)
(1.01021 -0.000212125 -7.72997e-22)
(1.01458 -0.00137546 -1.26716e-21)
(1.01473 -0.00122878 1.59331e-21)
(1.01505 -0.0015709 -1.131e-21)
(0.991706 -0.0261237 1.94208e-22)
(0.992663 -0.0302848 9.94078e-23)
(1.01498 -0.0329213 -2.79857e-23)
(1.01659 -0.0341145 -1.00555e-21)
(1.01692 -0.0312582 8.3054e-22)
(1.00734 -0.0102074 -6.42684e-22)
(1.00813 -0.00949826 8.82473e-22)
(1.00703 -0.0090308 8.67808e-22)
(1.0329 0.081415 1.42137e-20)
(1.0171 0.107798 6.67471e-21)
(1.01879 -0.000307924 -2.24183e-23)
(1.01837 -0.000361383 -1.08378e-21)
(1.01895 -0.000135689 -3.25188e-22)
(1.01438 -0.00148412 0)
(1.01424 -0.00114159 0)
(1.0134 -0.0318563 -3.1813e-21)
(1.01282 -0.0346581 -2.15252e-21)
(1.01904 -0.00641124 -2.03368e-22)
(1.01892 -0.00704421 -1.88525e-23)
(1.01852 -0.00649217 -1.11301e-23)
(1.02304 -0.0076465 -8.84844e-23)
(1.02301 -0.00725299 -6.22906e-22)
(1.0234 -0.00754507 -2.16923e-22)
(1.02205 0.0071032 1.75898e-21)
(1.02162 0.0084872 -1.47089e-21)
(1.05895 -0.0304439 -2.40426e-21)
(1.01493 -0.00789126 1.70393e-22)
(1.01498 -0.00851481 2.30377e-23)
(1.01439 -0.0080388 0)
(1.00061 -0.029884 0)
(1.00271 -0.027754 -3.8014e-22)
(1.00364 -0.0308253 1.63908e-21)
(1.0347 -0.022893 0)
(1.0357 -0.0215311 0)
(1.01471 -0.00593247 -6.91711e-22)
(1.01478 -0.00637057 1.38959e-21)
(1.01437 -0.00601861 6.27208e-22)
(0.924033 -0.0692709 5.60352e-23)
(0.843652 -0.111444 -1.29013e-21)
(0.858336 -0.110858 -1.31327e-21)
(0.847755 -0.100058 -2.6701e-21)
(0.934428 -0.0364038 -6.06525e-24)
(0.947036 -0.0393512 -1.08715e-21)
(1.01254 0.00141258 -2.79111e-22)
(1.01271 0.000674977 -5.87544e-23)
(1.08092 -0.125757 0)
(1.08661 -0.117784 -1.88952e-20)
(1.02536 -0.0173277 1.15258e-21)
(1.0242 -0.0177158 1.1921e-21)
(1.02444 -0.0164856 -2.78291e-23)
(0.990487 -0.284898 1.98389e-20)
(1.02055 -0.282425 2.41952e-20)
(1.00482 -0.118157 0)
(1.00841 -0.124399 -4.8898e-21)
(1.01185 0.00307672 0)
(1.01214 0.00287493 0)
(1.01219 0.0033947 -4.75465e-22)
(1.05773 -0.0144913 0)
(1.05954 -0.015842 6.68119e-24)
(1.00035 -0.112199 3.38357e-21)
(1.01528 0.00774359 1.54781e-21)
(1.01423 0.00822498 8.72927e-22)
(1.04773 0.00026458 -3.67928e-22)
(1.04715 0.0034882 -4.82795e-22)
(1.09812 -0.116477 0)
(1.10075 -0.11123 -8.97428e-21)
(1.10335 -0.118542 0)
(1.01229 -0.000899895 1.65028e-21)
(1.0123 -0.000940967 -2.04935e-22)
(1.01231 -0.000778128 1.97853e-21)
(1.01277 -0.000314257 -1.27872e-21)
(1.01415 -0.000673903 8.58268e-22)
(1.02967 -0.00135367 -8.41803e-23)
(1.02945 -0.00185681 -5.83887e-22)
(1.01005 3.44658e-05 0)
(1.01011 3.6821e-05 6.57674e-22)
(1.00889 3.91145e-05 -5.9293e-22)
(1.01632 -0.00545177 -7.79909e-22)
(1.01678 -0.0047708 1.57212e-21)
(0.919013 -0.123846 7.25296e-23)
(0.923512 -0.113658 3.18571e-22)
(0.930523 -0.122493 0)
(1.01958 -0.00361368 8.89991e-23)
(1.01977 -0.00363746 -9.11363e-24)
(1.01466 -0.00553803 -1.31433e-21)
(1.01504 -0.00581441 -6.63982e-22)
(0.698664 0.144278 8.69207e-21)
(1.01772 0.00901444 -1.87749e-21)
(1.01736 0.0075308 -6.13809e-22)
(1.00891 0.000851623 -4.67967e-22)
(1.00968 0.00104731 -5.52762e-23)
(1.01247 0.00216391 -5.23144e-22)
(1.01832 -0.0148327 2.42104e-22)
(1.01777 -0.0157884 8.62936e-22)
(1.01901 -0.0157787 9.93923e-22)
(1.01227 -0.000870843 -2.00541e-21)
(0.915117 -0.133806 -1.87278e-21)
(1.02833 -0.0159287 4.50693e-22)
(1.02922 -0.0152902 -2.62601e-21)
(1.02824 -0.0146942 1.19925e-21)
(1.02362 -0.00412018 -2.71768e-22)
(1.02366 -0.00436547 6.36824e-22)
(1.02337 -0.004243 -1.26202e-22)
(1.02024 -0.00611381 -2.47099e-22)
(1.01991 -0.00621744 6.48891e-23)
(1.01995 -0.00573772 -3.47975e-23)
(1.01826 0.0106691 3.93045e-22)
(0.948282 0.219671 5.42965e-21)
(0.959623 0.215511 -3.11596e-22)
(0.94613 0.208422 -2.75527e-21)
(1.02834 -0.00740802 2.54076e-21)
(1.0276 -0.00735621 5.38729e-23)
(0.984564 0.026735 0)
(0.98928 0.0234345 0)
(0.989294 0.0296874 -2.84545e-21)
(1.01477 0.00113215 7.79171e-23)
(1.06056 -0.0815965 -5.5791e-21)
(1.06208 -0.0778484 -4.90367e-21)
(1.05757 -0.0794273 -2.50072e-21)
(1.00287 -0.212429 -3.20175e-22)
(1.01138 -0.22296 6.91539e-21)
(1.15433 -0.137717 0)
(1.14672 -0.132842 0)
(1.05893 -0.0856585 -5.1906e-21)
(1.06424 -0.0841227 2.73427e-21)
(1.01898 -0.0137209 -7.6609e-22)
(1.0178 -0.0135432 -8.48347e-22)
(1.00537 0.0108144 3.01263e-21)
(1.00675 0.0095022 -8.10337e-22)
(1.00693 0.0117466 -3.76858e-22)
(0.870467 -0.118224 0)
(0.870419 -0.132066 8.18907e-22)
(1.00827 -0.000160342 9.32067e-22)
(1.00968 -4.14011e-05 3.41667e-22)
(1.04084 -0.13083 -9.52829e-22)
(1.04459 -0.136138 -8.34154e-21)
(1.02113 0.00613339 -2.57413e-22)
(1.02236 0.00575795 1.21342e-21)
(1.01228 0.000331747 -4.48196e-22)
(1.01293 0.000385026 -1.60551e-22)
(0.931108 -0.240935 6.6299e-21)
(0.946324 -0.24177 4.18635e-21)
(1.04483 -0.000845217 0)
(1.04802 -0.00298668 0)
(0.828717 -0.112 9.61703e-22)
(0.84154 -0.125158 0)
(1.02353 -0.00388771 3.03951e-22)
(1.02384 -0.00403444 8.88162e-24)
(1.10791 -0.0763752 -1.06067e-20)
(1.11308 -0.0739849 -1.09016e-21)
(0.786182 0.133828 0)
(0.764885 0.147117 -1.12129e-21)
(1.02833 -0.0230701 -7.78827e-22)
(1.02718 -0.0250789 1.06961e-21)
(1.02595 -0.0229529 -5.72288e-22)
(1.0187 -0.00354916 5.02471e-23)