/*--------------------------------*- C++ -*----------------------------------*\
| =========                 |                                                 |
| \\      /  F ield         | OpenFOAM: The Open Source CFD Toolbox           |
|  \\    /   O peration     | Version:  v2012                                 |
|   \\  /    A nd           | Website:  www.openfoam.com                      |
|    \\/     M anipulation  |                                                 |
\*---------------------------------------------------------------------------*/
FoamFile
{
    version     2.0;
    format      ascii;
    class       volScalarField;
    location    "300";
    object      k;
}
// * * * * * * * * * * * * * * * * * * * * * * * * * * * * * * * * * * * * * //

dimensions      [0 2 -2 0 0 0 0];


internalField   nonuniform List<scalar> 
10042
(
0.00174589
0.00614023
0.0002003
0.000141832
0.000142161
0.0127755
0.0534686
0.00706058
0.000134744
0.000192449
0.000635968
0.00479327
0.000164582
0.000142959
0.000146143
0.000142875
0.0153386
0.000729439
0.000152054
0.000163771
0.00016446
0.00147447
0.000141717
0.00269204
0.000141177
0.000150929
0.000189527
0.000133942
0.0134796
0.00563901
0.000157775
0.000170553
0.000134426
0.00013436
0.00651796
0.00617579
0.000149912
0.000135746
0.000150047
0.00014903
0.00438414
0.000134589
0.000240214
0.000390383
0.000141501
0.000141186
0.000132725
0.000145855
0.00019122
0.0254866
0.000237817
0.000140819
0.0150575
0.000151611
0.01748
0.0725814
0.000163028
0.000363986
0.000146965
0.000130706
0.000193116
0.0110663
0.000226095
0.00615618
0.000273806
0.00014454
0.000162293
0.0030538
0.000132566
0.00308504
0.000206465
0.000152381
0.000137695
0.000146736
0.000144132
0.000208973
0.000225053
0.000132704
0.000225016
0.000152122
0.000382732
0.00369852
0.000169619
0.000140142
0.000176721
0.00802077
0.000160968
0.000202198
0.000142018
0.000225505
0.000158063
0.000146171
0.000220913
0.0194586
0.000139831
0.000144388
0.0706089
0.00016247
0.000713453
0.000146445
0.000157394
0.000418409
0.00014852
0.000165613
0.000153654
0.000146868
0.0697555
0.000143693
0.0569708
0.00014724
0.000146491
0.0493653
0.000322808
0.00583339
0.000264446
0.000132576
0.000177931
0.000155626
0.000301662
0.000132442
0.000130689
0.00786206
0.0073277
0.00014161
0.000229213
0.000143037
0.000143397
0.0118411
0.000218433
0.00015328
0.000135957
0.000142936
0.000146034
0.00014306
0.0511492
0.00195684
0.000162677
0.0379449
0.00014979
0.0002337
0.000194157
0.000138311
0.0653998
0.000133999
0.000156019
0.000135832
0.000174038
0.000132467
0.000152091
0.00291905
0.000143236
0.000145047
0.00015045
0.000168922
0.000177528
0.00015665
0.000216093
0.0783816
0.00014608
0.000152803
0.00015308
0.000154492
0.0019153
0.000142442
0.000148997
0.00421729
0.000137664
0.000166883
0.00649251
0.000134083
0.000500117
0.00624232
0.0110752
0.000134195
0.000151573
0.00866594
0.000141515
0.000135727
0.000142464
0.000132565
0.000149637
0.000153798
0.000146694
0.000132265
0.00238318
0.000158339
0.000152322
0.000131207
0.00628151
0.000146219
0.00319467
0.000162963
0.000136178
0.000153327
0.00728818
0.000146132
0.000265027
0.00249517
0.0653876
0.000140296
0.000233385
0.000205385
0.0102678
0.00013686
0.000632968
0.000145295
0.00166254
0.000168319
0.000146215
0.000143288
0.00016882
0.000135703
0.0103206
0.00859745
0.000151058
0.00229871
0.000136413
0.0122803
0.000144035
0.000229693
0.000890947
0.000555016
0.00130813
0.00252666
0.000141818
0.000205034
0.000150023
0.000161284
0.000178341
0.000148651
0.000135849
0.000144108
0.000158422
0.000162512
0.000141479
0.00703766
0.000159451
0.0698721
0.000155032
0.00192763
0.0130072
0.00567981
0.000130626
0.000160847
0.0280781
0.000142917
0.00505252
0.000154913
0.000150685
0.000146699
0.000153076
0.000136411
0.012111
0.0308898
0.000151504
0.000158376
0.000149919
0.000152128
0.0697848
0.000141849
0.000236482
0.000136224
0.000140697
0.000132816
0.000165826
0.0351177
0.0002371
0.0105073
0.000163711
0.000144365
0.000143637
0.0208518
0.000140821
0.000111972
0.000151406
0.000264898
0.000148874
0.00014128
0.000164482
0.00840187
0.00013392
0.00714145
0.00027779
0.000148646
0.000161588
0.0293785
0.000194979
0.000133118
0.0010454
0.000148589
0.000161657
0.000186398
0.000164397
0.00764354
0.000266131
0.000142851
0.000266933
0.000161051
0.00014372
0.000136944
0.000150282
0.00994563
0.000131237
0.0128218
0.000212667
0.0159392
0.000142222
0.000175825
0.000279202
0.00769535
0.000155215
0.000142464
0.000144146
0.000142738
0.000186628
0.000879836
0.000132838
0.00250815
0.0017868
0.000132484
0.000152704
0.000164741
0.000249605
0.00320114
0.00222893
0.000154153
0.000216532
0.000142359
0.000159758
0.000160469
0.00014527
0.000144748
0.00134067
0.000146993
0.00152666
0.00155752
0.0591976
0.00306346
0.000136651
0.0045045
0.00019398
0.000164711
0.000130659
0.000166472
0.00015799
0.000135722
0.000139691
0.000143567
0.000166334
0.070321
0.000147472
0.000192996
0.000165983
0.00013894
0.0114241
0.000247204
0.000150059
0.000168721
0.000257244
0.000155683
0.000146456
0.000151002
0.000148979
0.00291899
0.00545043
0.000149188
0.000141247
0.000161765
0.000162139
0.000696997
0.000130834
0.000171251
0.000141371
0.000150942
0.00204868
0.000144082
0.000261775
0.00967901
0.0370741
0.000148486
0.000145368
0.0112729
0.000177567
0.00014205
0.000176061
0.000132547
0.000145489
0.000132326
0.000144916
0.000133094
0.000151333
0.0659508
0.00014745
0.000451109
0.00691911
0.0309903
0.000142309
0.00641484
0.000150822
0.000170732
0.000140933
0.00798971
0.000151928
0.0164347
0.0687455
0.000139145
0.000190435
0.000148953
0.012405
0.000150616
0.0101122
0.000156906
0.00634634
0.000147209
0.00463482
0.00014999
0.000159055
0.00517425
0.000133101
0.000148341
0.000144689
0.00808805
0.000135886
0.000132155
0.000196346
0.000156859
0.000180385
0.00928843
0.000141693
0.000164788
0.00015665
0.00013271
0.000157023
0.0064086
0.000145256
0.000148738
0.0264004
0.000280672
0.000152707
0.0700894
0.000134187
0.00018365
0.000178904
0.000260494
0.000162595
0.00238069
0.00435462
0.00264081
0.00646415
0.00013206
0.000263634
0.000258917
0.000258524
0.000174443
0.000141697
0.000140053
0.000262097
0.0683317
0.000132299
0.000137429
0.000159817
0.000142125
0.000150878
0.000153233
0.000144514
0.000164497
0.00183949
0.000148612
0.000184054
0.000426627
0.00317866
0.000134727
0.00962619
0.0388903
0.00521321
0.000145236
0.000155447
0.000152345
0.0346121
0.000143807
0.00164795
0.000147201
5.86281e-05
0.000139953
0.00015316
0.000137386
0.000241624
0.00240096
0.000151234
0.000139735
0.000142706
0.00043011
0.000136142
0.000495313
0.000202604
0.000190065
0.000137517
0.000503018
0.0081457
0.0616253
0.000145542
0.000158321
0.00638038
0.000350893
0.000171137
0.0118101
0.00014774
0.00221095
0.000168372
0.000162542
0.000153404
0.00179525
0.00013716
0.000141588
0.000147589
0.00832786
0.000141666
0.0123522
0.000142112
0.000145005
0.000135066
0.000158952
0.0106352
0.000148271
0.000148727
0.00202698
0.00176412
0.000180918
0.00014809
0.000143481
0.00234701
0.063413
0.000145715
0.000133697
0.00019773
0.000144721
0.000144142
0.000233459
0.000135765
0.0282058
0.000141027
0.00018268
0.000201909
0.00468498
0.000141758
0.000156221
0.00014523
0.000137122
0.00433724
0.000130629
0.00434298
0.000171016
0.000134775
0.000187505
0.0583193
0.00829543
0.00014197
0.00014677
0.000133692
0.000132381
0.000141206
0.000229525
0.000147242
0.000291095
0.000143954
0.000135408
0.000868505
0.000153668
0.000252427
0.000154747
0.000139346
0.000828044
0.00232648
0.000186585
0.00278482
0.000143551
0.000157132
0.000134552
0.000134871
0.000143116
0.000142489
0.000146108
0.000146604
0.0209238
0.000146966
0.000395903
0.000140946
0.000176199
0.000132908
0.000185235
0.013236
0.00013487
0.000141164
0.00219243
0.000550726
0.000133022
0.03528
0.000141555
0.000971411
0.000135835
0.000152123
0.000136936
0.000267215
0.000132949
0.000142745
0.000145091
0.0301494
0.000154384
0.00014296
0.000146909
0.000219558
0.000142306
0.000141936
0.000137689
0.000142008
0.000153626
0.000141654
0.000166453
0.000134719
0.0686834
0.000328713
0.00136667
0.000150462
0.000152751
0.000143593
0.000220732
0.000150362
0.00227727
0.0102521
0.000752181
0.000786509
0.00439047
0.00014353
0.000145069
0.0106939
0.000216115
0.000188933
0.000191204
0.000146468
0.00211861
0.000140131
0.000145836
0.000134849
0.000136032
0.000152661
0.010317
0.000148615
0.000149725
0.0594287
0.000143314
0.000221337
0.000145895
0.000148432
0.000146243
0.000146093
0.00162618
0.000143033
0.000142162
0.000217903
0.000145274
0.000133119
0.000159035
0.000140761
0.000139397
0.000923268
0.000255622
0.0003134
0.000145628
0.000141589
0.000140589
0.00255326
0.000153113
0.000143959
0.00013856
0.000139274
0.00432216
0.0485227
0.000662849
0.000150773
0.000161136
0.0712584
0.000156949
0.000171176
0.000180533
0.00290791
0.0213527
0.00369708
0.000140041
0.000146526
0.000143323
0.00527416
0.000139891
0.000153849
0.000145194
0.000130703
0.000150398
0.000149724
0.000313028
0.000417565
0.000133071
0.000141398
0.000132029
0.00233232
0.000135938
0.0147908
0.000159246
0.0160762
0.00014126
0.000141935
0.000134928
0.00014151
0.000144475
0.000132688
0.000143898
0.000147431
0.000528787
0.000152616
0.00140428
0.000143524
0.000203937
0.00252498
0.000153468
0.0860305
0.000140662
0.000144561
0.000155857
0.000148894
0.00356378
0.000145002
0.000149727
0.000135243
0.015742
0.000141166
0.00493486
0.000167183
0.000141614
0.000806975
0.0055486
0.000144099
0.00013792
0.000190974
0.000171083
0.00534576
0.000329877
0.000220888
0.000308639
0.000145404
0.000145824
0.000144403
0.000166638
0.000169716
0.0031473
0.0196359
0.000130733
0.000142641
0.000149227
0.000178453
0.000171222
0.0157517
0.00014656
0.000146103
0.0101552
0.000140974
0.000188106
0.000163182
0.000162557
0.00412399
0.000161168
0.000142416
0.000151728
0.000174689
0.000142935
0.023251
0.000147193
0.000174262
0.000154303
0.00035179
0.000150252
0.000160345
0.000167941
0.000147668
0.000165993
0.000134118
0.000169606
0.000143261
0.000147006
0.000142844
0.000144107
0.000150081
0.000172362
0.000154842
0.000146003
0.00253769
0.000134279
0.000141292
0.000141012
0.000132168
0.000899152
0.000162474
0.000153795
0.00028025
0.00283477
0.00014438
0.000270717
0.00638095
0.000139039
0.000144386
0.000132031
0.00825686
0.00247217
0.000153161
0.000140422
0.000178565
0.0587393
0.0489552
0.000153606
0.00691116
0.00344064
0.00183189
0.000158875
0.000133114
0.000145896
0.000569066
0.000212219
0.000146978
0.0237531
0.000230499
0.00389555
0.00441945
0.000145764
0.000222395
0.00569346
0.000222704
0.0340327
0.000166246
0.0293321
0.000152999
0.003527
0.000145231
0.000241284
0.000155922
0.000187673
0.000131316
0.000146219
0.000141335
0.0396033
0.000144451
0.000130843
0.000619365
0.000144471
0.000156565
0.000155163
0.00301857
0.000144597
0.000149085
0.000146997
0.000146406
0.000143149
0.000154969
0.000139516
0.0106048
0.000230254
0.000205045
0.000144781
0.000298198
0.000139164
0.000188227
0.00228978
0.000183915
0.000143538
0.00013255
0.000146366
0.000150813
0.00918435
0.000186509
0.000140811
0.000260581
0.000143157
0.000146017
0.00165371
0.000132282
0.000146098
2.41379e-05
0.000139996
0.000230699
0.000149784
0.000202515
0.000156761
0.000182769
0.000183064
0.000144324
0.085998
0.0804627
0.000141061
0.000168158
0.000286318
0.0159606
0.0509729
0.000154
0.000139157
0.000176851
0.000146468
0.000152983
0.00291498
0.00015273
0.000132367
0.000164187
0.00549055
0.00251982
0.000132486
0.000132036
0.000150956
0.000146716
0.0136429
0.000749758
0.000136489
0.000154419
0.000316879
0.000144655
0.000156878
0.0203372
0.000154554
0.00454997
0.000147282
0.000146241
0.000145798
0.00015667
0.000211836
0.000216891
0.000143773
0.00130672
0.0117411
0.000286715
0.000152561
0.000153822
0.0159366
0.00016704
0.00569742
0.000161586
0.000145004
0.000142326
0.000339477
0.010587
0.000148412
0.00015386
0.000170651
0.000144147
0.000196649
0.000148473
0.000143697
0.000151676
0.000165598
0.000142282
0.000141383
0.0359194
0.000140266
0.000138858
0.000180625
0.000155101
0.000449359
0.000156342
0.000149476
0.000323561
0.00017769
0.000157074
0.000164431
0.00220038
0.000140928
0.000134698
0.000155082
0.000213127
0.000140314
0.000149617
0.000142306
0.000142343
0.000142586
0.0137451
0.000144806
0.0103553
0.000145499
0.000177553
0.000137391
0.000146859
0.000180522
0.00843998
0.0330114
0.000143712
0.000154274
0.000315626
0.000630725
0.000177769
0.000148439
0.0023282
0.000141095
0.00021851
0.000195114
0.000142974
0.000150448
0.000140991
0.000213728
0.0606313
0.0102078
0.000141227
0.000151012
0.000155763
0.000465944
0.000139377
0.000137642
0.000171541
0.000131464
0.000138649
0.00409919
0.000150138
0.0408638
0.000136121
0.000137895
0.00013493
0.000174787
0.000151842
0.000147812
0.0463046
0.000138857
0.000147674
0.0373522
0.000144439
0.00020637
0.000158024
0.000229626
0.000433135
0.000156132
0.00539098
0.000163913
0.000145744
0.000282249
0.000148175
0.000142934
0.000132675
0.000140785
0.000171222
0.000296991
0.000179582
0.00713493
0.00499794
0.00208601
0.000199474
0.000798415
0.000152086
0.00422487
0.000133975
0.000157827
0.000145757
0.000147612
0.000149983
0.090036
0.00733957
0.0001438
0.000960194
0.000138535
0.0352968
0.000145495
0.000152437
0.000169911
0.000358879
0.000822221
0.000142393
0.000133156
0.0567289
0.000203253
0.000237326
0.000200256
0.00104477
0.000152072
0.00432403
0.0105882
0.000139226
0.000138317
0.00014102
0.000154963
0.000144049
0.000149078
0.000151833
0.000145031
0.000152224
0.000148728
0.000142583
0.00435774
0.00474067
0.000133515
0.00206134
0.000150417
0.000170814
0.000186379
0.000206628
0.000139287
0.000176411
0.000190853
0.000136057
0.000173115
0.000760505
0.000146477
0.000138495
0.000152781
0.00403788
0.00601123
0.000136079
0.00706911
0.000146347
0.000146671
0.0626091
0.000140804
0.000140173
0.000138754
0.00014189
0.000151344
0.0024432
0.000170674
0.000144767
0.000143123
0.000146206
0.000141711
0.00693284
0.000133018
0.000172027
0.032204
0.000527514
0.000137885
0.00912912
0.000138656
0.00125302
0.000150467
0.000209744
0.000133922
0.00211734
0.0607057
0.0556731
0.000144691
0.00030728
0.000878549
0.00166323
0.000150995
0.00116049
0.000143512
0.00191411
0.00355148
0.000176429
0.000252381
0.00329666
0.00611142
0.0117138
0.000275904
0.0033431
0.000138172
0.000154611
0.00136241
0.000195406
0.000143036
0.00199849
0.000148396
0.000139788
0.000138905
0.000256292
0.000196519
0.000174596
0.000231344
0.000160848
0.00157093
0.000148943
0.000141226
0.000148538
0.00623693
0.0034839
0.000160814
0.00655976
0.000148993
0.000152193
0.00016223
0.00265617
0.000175318
0.000139986
0.000230212
2.05579e-05
0.000150785
0.000217493
0.000136649
0.000164181
0.000220012
0.000140168
0.000384775
0.00287686
0.000142918
0.000148859
0.000140385
0.00401089
0.000156848
0.00021539
0.00401024
0.000140817
0.000144991
0.000133661
0.00016438
0.000138483
0.000214486
0.000181746
0.000180206
0.00471302
0.00015059
0.000157243
0.00325759
0.000151726
0.000189926
0.000152416
0.000144762
0.0417245
0.00710709
0.000150673
0.00024981
0.000162329
0.00330946
0.000140501
0.00014076
0.000184642
0.000155717
0.000180599
0.00450304
0.000154317
0.000155907
0.00271141
0.000184863
0.000153215
0.0073623
9.0907e-05
0.00117261
0.000140506
0.000132781
0.00138669
0.00013994
0.0282046
0.00251426
0.000174921
0.0037087
0.000149569
0.000141625
0.0205173
0.00393812
0.000142939
0.000326509
0.000170417
0.00014259
0.000192367
0.000148883
0.00014733
0.000172816
0.000153508
0.000138698
0.000151201
0.000140899
0.000154936
0.00185441
0.000161559
0.00186557
0.000144041
0.000156687
0.000140466
0.000143016
0.00670306
0.000145296
0.000141583
0.000649281
0.00014925
0.00460931
0.000164105
0.00522465
0.000132146
0.000139617
0.0002058
0.000205387
0.00015222
0.000152484
0.000139579
0.000561076
0.000153314
0.00406055
0.000165421
0.000136955
0.0042106
0.000131863
0.062638
0.000140848
0.000392226
0.000145428
0.000137724
0.000134846
0.0029686
0.000139538
0.000136081
0.000134186
0.000140388
0.000143492
0.00019785
0.00459547
0.000138251
0.000155023
0.000146178
0.000140723
0.000138931
0.00101662
0.0433045
0.000154435
0.000145011
0.000139053
0.000134773
0.000154659
0.000153858
0.000134489
0.00359607
0.000993293
0.00437617
0.000137387
0.00014053
0.000143127
0.000150774
0.000138308
0.00014902
0.000143505
0.000139782
0.000204035
0.000151608
0.000206351
0.0268068
0.0692597
0.000147343
0.00014071
0.000143867
0.00538047
0.000149184
0.00015815
0.000170127
0.000137419
0.000144506
0.000141439
0.00611726
0.000144236
0.00394596
0.00452743
0.000178735
0.000143821
0.000154423
0.00599636
0.00015189
0.000165794
0.000157847
0.000167117
0.00013742
0.000155041
0.0228949
0.00331405
0.000139086
0.000145239
0.0426438
0.000153298
0.000176405
0.000171352
0.00148461
0.000143437
0.000154468
0.00474091
0.0393609
0.000186812
0.000138252
0.000143026
0.000139186
0.000146037
0.0002009
0.00431188
0.000312202
0.000138174
0.00201454
0.000156672
0.000489835
0.00172793
0.000141366
0.0265034
0.000206731
0.000139187
0.000197128
0.000162109
0.000148299
0.00185165
0.00013963
0.0550521
0.00016389
0.0692408
0.0554198
0.000173095
0.000144884
0.000154965
0.000149033
0.0001403
0.000135915
0.00013541
0.0606597
0.000147927
0.000167163
0.00173288
0.0737863
0.0001671
0.000188853
0.00013803
0.0554852
0.000132719
0.00151905
0.000276198
0.069648
0.00024598
0.00539996
0.000546177
0.000134074
0.000147622
0.00013492
0.000142009
0.000153692
0.000274741
0.000153298
0.00227734
0.00015589
0.000136498
0.000137185
0.000145516
0.000134051
0.00125186
0.000206673
0.064614
0.000139581
0.00017126
0.000151869
0.000153072
0.000215085
0.000144271
0.00462513
0.0041682
0.000148786
0.000148717
0.00157391
0.000155883
0.00126356
0.00740141
0.00014792
0.00393908
0.000154793
0.0462324
0.000140585
0.000227305
0.000143632
0.0018545
0.000214107
0.0347602
0.006566
0.00322525
0.000212515
0.000229859
0.000145698
0.000146129
0.00679612
0.00217363
0.000226518
0.000156523
0.00313539
0.00438718
0.00595447
0.000168879
0.00355892
0.000161493
0.000163253
0.000267814
0.000154527
0.000159831
0.000170399
0.000133252
0.000137184
0.000140683
0.000143641
0.0639429
0.000148144
0.00184459
0.000220524
0.000236364
0.000882344
0.00280735
0.000136486
0.000147439
0.00159426
0.000260575
0.000167311
0.00579047
0.064416
0.0031718
0.000139969
0.000161731
0.000154409
0.000209381
0.000199089
0.0051591
0.00673027
0.000181313
0.000147252
0.000152146
0.0550068
0.000167829
0.000177203
0.00380828
0.000140625
0.000170371
0.000150404
0.0122334
0.000151142
0.000136449
0.000140174
0.00015011
0.0463889
0.00272488
0.000147
0.000192177
0.00205354
0.000151454
0.00279843
0.000170775
0.000160929
0.000168549
0.00016297
0.0217887
0.000141573
0.000140057
0.000151911
0.0275794
0.000203864
0.000163375
0.000148614
0.000150285
0.000146743
0.000282515
0.00016559
0.000151075
0.000146505
0.000528641
0.000158022
0.00726732
0.000150127
0.000159278
0.000141214
0.00015255
0.00161293
0.000178769
0.0518821
0.00013974
0.00016555
0.00490454
0.0001589
0.00482644
0.0349014
0.000146228
0.000150056
0.0674739
0.000143311
0.039328
0.000146439
0.0350157
0.00401403
0.0044258
0.000150669
0.000140845
0.000141986
0.000143615
0.000152843
0.000132516
0.000148648
0.000140613
0.000138982
0.000151421
0.000152605
0.000153827
0.000151293
0.0369607
0.000145212
0.0512389
0.000147937
0.000145088
0.058636
0.000141498
0.0591652
0.000645629
0.000146639
0.000148842
0.000168697
0.00241759
0.000171006
0.0535371
0.000158261
0.000157033
0.0458756
0.000138753
0.0175285
0.000145943
0.000564842
0.000134149
0.071388
0.0304693
0.00188055
0.000147266
0.000151706
0.000139305
0.000151089
0.000213303
0.000141773
0.000143417
0.00017281
0.000168017
0.000333066
0.00476714
0.000148175
0.00017024
0.000144372
0.000156556
0.000149141
0.000143393
0.00014838
0.0684015
0.0678058
0.000211413
0.000151122
0.000148425
0.000149772
0.000211693
0.0671706
0.000189252
0.00280474
0.00375958
0.000150114
0.000151561
0.000201556
0.000139645
0.000151453
0.000180753
0.000149775
0.000883587
0.000150052
0.0036676
0.000140977
0.000148623
0.000201542
0.000150399
0.000151702
0.00015523
0.000156645
0.00479035
0.000157302
0.000151279
0.000148032
0.0620044
0.00517564
0.000152388
0.000149405
0.000138745
0.00015264
0.000143777
0.000234262
0.000140285
0.000144321
0.000145345
0.000184206
0.000160489
0.000147847
0.0529684
0.000147727
0.000148843
0.00233398
0.000151134
0.000152364
0.000431341
0.000148399
0.0107808
0.000139871
0.000138837
0.000148387
0.000180418
0.000137043
0.0041036
0.000148433
0.000141415
0.00172364
0.00684691
0.0698667
0.00340754
0.00320559
0.000156328
0.000137878
0.000150874
0.00577529
0.000157274
0.00385728
0.000149471
0.000162651
0.00027262
0.000254087
0.000138587
0.00132126
0.000337547
0.000140629
0.000156358
0.00014814
0.000148723
0.00211203
0.000218418
0.000145476
0.000139672
0.000133913
0.000644192
0.000146762
0.00461207
0.000165544
0.000146513
0.000140459
0.000141478
0.0130447
0.000368533
0.000139988
0.0112154
0.000245756
0.000148611
0.00719188
0.000146246
0.000138003
0.000138598
0.000146465
0.000136189
0.000144263
0.000147897
0.000150156
0.000147177
0.000195131
0.000150883
0.00055292
0.000160508
0.000143331
0.0343688
0.000133903
0.000142051
0.000193559
0.000140428
0.0150837
0.000141262
0.000215982
0.00123838
0.000138223
0.0506488
0.00446702
0.00014581
0.000148215
0.000143558
0.000470065
0.00014597
0.00154301
0.00426536
0.00015106
0.000156486
0.000171491
0.000219388
0.000145437
0.00491787
0.000146727
0.00196222
0.0598374
0.000189596
0.00287518
0.000148238
0.000216463
0.00566772
0.000211512
0.000145425
0.000181252
0.000150388
0.000176748
0.000137226
0.000156944
0.028917
0.00015578
0.000273505
0.00291697
0.000171197
0.000719276
0.000137654
0.00023034
0.000145564
0.000155061
0.000229788
0.00134852
0.000866437
0.000165577
0.000154397
0.025959
0.000171046
0.000140732
0.000139239
0.000148813
0.000151985
0.000153871
0.000141611
0.0430398
0.000155644
0.000143912
0.00013565
0.000143038
0.000142682
0.0481658
0.000139605
0.000252197
0.000152832
0.0483037
0.000156342
0.000145347
0.00013204
0.00019311
0.000150409
0.000271282
0.0322698
0.00397551
0.000156044
0.00014839
0.000143756
0.000140354
0.000140853
0.0068759
0.000149995
0.000148378
0.00579843
0.000145128
0.000149464
0.000257615
0.0140924
0.0228164
0.000147998
0.0291279
0.00147197
0.000141126
0.000139208
0.000171769
0.0399964
0.00059855
0.00630591
0.00368337
0.000144293
0.00013919
0.000355967
0.000159702
0.000148129
0.000194373
0.00014784
0.000150798
0.00501719
0.000476433
0.00019362
0.000155803
0.000159635
0.000194333
0.000275747
0.000145678
0.000140243
0.000144196
0.000340446
0.00013998
0.000153264
0.000261542
0.000443862
0.000137467
0.000141268
0.000132314
0.00014649
0.000145526
0.000175538
0.00911888
0.000148884
0.0350279
0.00577357
0.00052286
0.000169171
0.000150979
0.000146064
0.000142212
0.000139495
0.000134971
0.000146827
0.00031855
0.000285235
0.000139783
0.000137749
0.000149384
0.000148484
0.0481074
0.000175976
0.000271812
0.00236963
0.00151718
0.000190405
0.000142886
0.000142519
0.000142534
0.000148176
0.0375692
0.000143965
0.000152729
0.0513126
0.000240821
0.00741851
0.0527068
0.0609749
0.00498001
0.000143382
0.000172842
0.0455176
0.0124149
0.000145613
0.000155296
0.00014356
0.000145912
0.000146379
0.0512841
0.000141825
0.000142735
0.00301032
0.000152272
0.0239578
0.000142837
0.000138251
0.000172988
0.0455011
0.000218065
0.00787322
0.000159225
0.0499251
0.000166413
0.000140729
0.000230749
0.000141559
0.000151789
0.000146795
0.000138173
0.00791165
0.029425
0.000985871
6.67965e-05
0.00235574
0.00595695
0.00286266
0.000140088
0.000148866
0.00438653
0.000143309
0.000147528
0.000152263
0.000145133
0.0468837
0.000146192
0.00022916
0.000237103
0.000133941
0.011968
0.000150457
0.000141967
0.000164054
0.000163273
0.000165759
0.000168755
0.000170005
0.0143532
0.000148277
0.000142871
0.000140482
0.000169636
0.00165087
0.000140203
0.000150749
0.000426351
0.0392542
0.000141225
0.000171147
0.000171478
0.000137241
0.000144406
0.000143803
0.0303964
0.0671179
0.000171395
0.000149453
0.000143596
0.000170737
0.000220547
0.0001476
0.000222617
0.0106626
0.000145718
0.000170863
0.0253913
0.0289909
0.000168871
0.000134941
0.000139464
0.000266731
0.000193825
0.0265972
0.000155248
0.0184286
0.000200805
0.000250465
0.00578812
0.000842931
0.00114257
0.000273687
0.00690372
0.0271611
0.000147982
0.00716482
0.000149609
0.00111298
0.000150066
0.000149243
0.000171133
0.0290958
0.00414273
0.00015249
0.0001469
0.000214831
0.0173048
0.012099
0.000139122
0.000142777
0.000143821
0.000156055
0.000150341
0.000167818
0.000260486
0.00525305
0.000154726
0.000142528
0.000228521
0.000147492
0.000144556
0.0056546
0.000144022
0.000151999
0.000135408
0.0157978
0.000186845
0.00714893
0.000152858
0.000215431
0.00361918
0.000162755
0.00376855
0.0674286
0.000925071
0.000286523
0.000141075
0.000146112
0.000198633
0.000145197
0.000148031
0.000142257
0.000149387
0.000168589
0.000186128
0.000140886
0.000323626
0.000144794
0.00266205
0.000151562
0.000305489
0.020597
0.000195564
0.0586357
0.000335775
0.000205073
0.000390972
0.069399
0.000148535
0.000146191
0.000197595
0.00016839
0.0149385
0.000140805
0.000146973
0.0136329
0.000143225
0.000139339
0.000149895
0.000135695
0.00951686
0.000146818
0.000161812
0.000147547
0.0672219
0.000142703
0.0725278
0.00485636
0.0136285
0.000368021
0.000134447
0.000170731
0.000148888
0.000144168
0.0292162
0.000207457
0.00909991
0.00496767
0.000134395
0.000153106
0.00015447
0.000145454
0.00396788
0.000140593
0.000159126
0.0304509
0.00551187
0.000514222
0.000142742
0.000149421
0.000417625
0.000187767
0.000947097
0.00695916
0.0246618
0.0249797
0.000151808
0.000142097
0.000140476
0.000149299
0.000379324
0.000152178
0.000943214
0.000144187
0.000148352
0.00757374
0.000136977
0.00346008
0.000166603
0.000147733
0.000171067
0.00913157
0.000138818
0.000158099
0.000405546
0.00014597
0.000146465
0.000170667
0.00512706
0.000153002
0.000204391
0.000137277
0.0240355
0.00302905
0.000361128
0.000146071
0.00013883
0.000173029
0.000147066
0.000291693
0.000246568
0.00576606
0.0131927
0.0001434
0.000259614
0.000140984
0.0033743
0.000145678
0.00563988
0.00396349
0.000145413
0.0135708
0.00014326
0.0695154
0.000167049
0.000136963
0.000228663
0.000140275
0.00014035
0.000138424
0.000132818
0.000172702
0.00222041
0.000146381
0.000137993
0.000203612
0.00013456
0.000149986
0.000148876
0.000142065
0.00014483
0.000285683
0.000180916
0.000133909
0.000149783
0.000149708
0.000144729
0.0115128
0.000247762
0.000145189
0.00014085
0.000146813
0.000244932
0.000146012
0.000150456
0.000149909
0.000167545
0.000134221
0.000151648
0.00403876
0.000146695
0.000238496
0.000142785
0.00014483
0.000141087
0.000141919
0.000138647
0.00014411
0.0215161
0.00444267
0.000138166
0.000156964
0.000156349
0.00668773
0.000170092
0.000188097
0.000143614
0.000148504
0.000211424
0.000153846
0.00588594
0.000197316
0.000141471
0.000146595
0.0926071
0.000148156
0.000359498
0.0317917
0.000141353
0.000246879
0.00238238
0.00516616
0.000245422
0.000256945
0.000169884
0.000140914
0.000383412
0.00014631
0.000158145
0.000175899
0.000135305
0.000143437
0.00487661
0.000139056
0.000237717
0.031737
0.000148151
0.00014545
0.08611
0.000142579
0.000215239
0.000136698
0.000237911
0.000491398
0.00502198
0.000142721
0.000140159
0.000148644
0.00108797
0.00357449
0.00475967
0.000290144
0.000194383
0.000143948
0.000194104
0.0468844
0.000143627
0.000136156
0.0001707
0.000141171
0.0517449
0.000201176
0.000138096
0.000108579
0.000140034
0.000140009
0.000136572
0.000143679
0.000143217
0.00133729
0.000142261
0.00098172
0.000140575
0.000148201
0.000149437
0.000149169
0.000142005
0.0001436
0.000202726
0.000138514
0.000207846
0.00907169
0.000182319
0.000169017
0.000148168
0.000178782
0.000142937
0.000134382
0.000142765
0.000134865
0.0439113
0.00262949
0.00015406
0.000150638
0.00672429
0.000151714
0.00439765
0.000150545
0.000141155
0.00014698
0.000538408
0.00720641
0.0497879
0.079552
0.000171414
9.58477e-05
0.000490953
0.000143856
0.00014154
0.00013907
0.000159204
0.000160758
0.0405032
0.0707243
0.000162808
0.000140253
0.000182173
0.000142139
0.000458699
0.00014488
0.00135414
0.000148627
0.00572938
0.000163824
0.000147924
0.000171354
0.0023776
0.000169476
0.000283771
0.000141242
0.000139083
0.000144862
0.000143864
0.00022701
0.00013808
0.000148849
0.000166572
0.000134049
0.0128782
0.000699954
0.000192624
0.000144605
0.000147447
0.00842377
0.00159171
0.000141367
0.000142872
0.052204
0.000142991
0.000144199
0.00516231
0.000169614
0.00533517
0.00420118
0.00339572
0.000165422
0.000141309
0.000144811
0.000157963
0.000141259
0.000140914
0.00262516
0.0513898
0.000143836
0.000142149
0.000140344
0.000149336
0.0775548
0.000141957
0.000149175
0.000145374
0.00013682
0.000141088
0.00232268
0.000161604
0.000140595
0.000136499
0.000147712
0.000138805
0.000172993
0.0041817
0.000210971
0.000140097
0.000142617
0.00014446
0.000141615
0.00785129
0.000143678
0.00488631
0.00339244
0.000141329
0.000138655
0.00720505
0.000138698
0.000140686
0.000140563
0.000295893
0.00017006
0.000184374
0.000140813
0.000133658
0.000144947
0.00528527
0.000141831
0.000148151
0.000170478
0.00746421
0.000155529
0.00013341
0.000941073
0.000130978
0.00392741
0.000140526
0.000135807
0.000138831
0.000145823
0.000143173
0.00049175
0.000208552
0.0046847
0.000184316
0.000175199
0.0284191
0.000144294
0.000386921
0.000288255
0.000154676
0.0018735
0.000195615
0.000232897
0.000142443
0.00226109
0.000146147
0.000139223
0.000151175
0.000221807
0.00168717
0.000153846
0.0028135
0.0698859
0.0041231
0.000143146
0.000152373
0.000170876
0.000453597
0.00682471
0.000170891
0.000145904
0.000166892
0.00738603
0.000140208
0.00153477
0.000150251
0.010386
0.000138341
0.000137347
0.000160355
0.000158355
0.0692624
0.00589714
0.00462824
0.000140446
0.000143564
0.00459004
0.00964432
0.0112331
0.000139591
0.000152891
0.000138893
0.000140843
0.000141096
0.00666708
0.00403944
0.00773213
0.00480791
0.0137375
0.00044267
0.000140359
0.000146143
0.000142646
0.000138652
0.00016928
0.000141701
0.000144553
0.000144073
0.0001402
0.000160121
0.012218
0.000170623
0.000140231
0.000141016
0.000335618
0.000188355
0.000151559
0.000174248
0.00267548
0.00465968
0.000141944
0.000158375
0.00269491