/*--------------------------------*- C++ -*----------------------------------*\
| =========                 |                                                 |
| \\      /  F ield         | OpenFOAM: The Open Source CFD Toolbox           |
|  \\    /   O peration     | Version:  v2012                                 |
|   \\  /    A nd           | Website:  www.openfoam.com                      |
|    \\/     M anipulation  |                                                 |
\*---------------------------------------------------------------------------*/
FoamFile
{
    version     2.0;
    format      ascii;
    class       pointVectorField;
    location    "900";
    object      pointDisplacement;
}
// * * * * * * * * * * * * * * * * * * * * * * * * * * * * * * * * * * * * * //

dimensions      [0 1 0 0 0 0 0];


internalField   nonuniform List<vector> 
10356
(
(0 0 0)
(0 0 0)
(0 0 0)
(0 0 0)
(0 0 0)
(0 0 0)
(0 0 0)
(0 0 0)
(0 0 0)
(0 0 0)
(0 0 0)
(0 0 0)
(0 0 0)
(0 0 0)
(0 0 0)
(0 0 0)
(0 0 0)
(0 0 0)
(0 0 0)
(0 0 0)
(0 0 0)
(0 0 0)
(0 0 0)
(0 0 0)
(0 0 0)
(0 0 0)
(0 0 0)
(0 0 0)
(0 0 0)
(0 0 0)
(0 0 0)
(0 0 0)
(0 0 0)
(0 0 0)
(0 0 0)
(0 0 0)
(0 0 0)
(0 0 0)
(0 0 0)
(0 0 0)
(0 0 0)
(0 0 0)
(0 0 0)
(0 0 0)
(0 0 0)
(0 0 0)
(0 0 0)
(0 0 0)
(0 0 0)
(0 0 0)
(0 0 0)
(0 0 0)
(0 0 0)
(0 0 0)
(0 0 0)
(0 0 0)
(0 0 0)
(0 0 0)
(0 0 0)
(0 0 0)
(0 0 0)
(0 0 0)
(0 0 0)
(0 0 0)
(0 0 0)
(0 0 0)
(0 0 0)
(0 0 0)
(0 0 0)
(0 0 0)
(0 0 0)
(0 0 0)
(0 0 0)
(0 0 0)
(0 0 0)
(0 3.96706e-05 0)
(0 3.96706e-05 0)
(0 0 0)
(0 0 0)
(0 0 0)
(0 0 0)
(0 0 0)
(0 0 0)
(0 0 0)
(0 0 0)
(0 0 0)
(0 0 0)
(0 0 0)
(0 0 0)
(0 0 0)
(0 0 0)
(0 0 0)
(0 0 0)
(0 0 0)
(0 0 0)
(0 0 0)
(0 0 0)
(0 0 0)
(0 0 0)
(0 0 0)
(0 0 0)
(0 0 0)
(0 0 0)
(0 0 0)
(0 0 0)
(0 0 0)
(0 0 0)
(0 0 0)
(0 0 0)
(0 0 0)
(0 0 0)
(0 0 0)
(0 0 0)
(0 0 0)
(0 0 0)
(0 0 0)
(0 0 0)
(0 0 0)
(0 0 0)
(0 0 0)
(0 0 0)
(0 0 0)
(0 0 0)
(0 0 0)
(0 0 0)
(0 0 0)
(0 0 0)
(0 0 0)
(0 0 0)
(0 0 0)
(0 0 0)
(0 0 0)
(0 0 0)
(0 0 0)
(0 0 0)
(0 0 0)
(0 0 0)
(0 0 0)
(0 0 0)
(0 0 0)
(0 0 0)
(0 0 0)
(0 0 0)
(0 0 0)
(0 0 0)
(0 0 0)
(0 0 0)
(0 0 0)
(0 0 0)
(0 0 0)
(0 3.96706e-05 0)
(0 3.96706e-05 0)
(0 3.96638e-05 0)
(0 3.96648e-05 0)
(0 3.96359e-05 0)
(0 3.96657e-05 0)
(0 -7.74051e-05 0)
(0 -0.000100036 0)
(0 -9.74134e-05 0)
(0 -0.000108443 0)
(0 -0.000121909 0)
(0 3.96829e-05 0)
(0 -9.13938e-05 0)
(0 -0.000134497 0)
(0 3.96621e-05 0)
(0 -7.02839e-05 0)
(0 -8.80797e-05 0)
(0 -7.24379e-05 0)
(0 -5.77277e-05 0)
(0 3.96675e-05 0)
(0 3.96664e-05 0)
(0 -3.47076e-05 0)
(0 -3.83481e-05 0)
(0 -0.000109842 0)
(0 -0.000102559 0)
(0 -8.74202e-05 0)
(0 3.96617e-05 0)
(0 3.96641e-05 0)
(0 -2.26463e-05 0)
(0 -2.46741e-05 0)
(0 -9.0741e-05 0)
(0 -9.68549e-05 0)
(0 -9.43262e-05 0)
(0 -7.10941e-05 0)
(0 -0.000124454 0)
(0 -0.000147778 0)
(0 -8.30697e-05 0)
(0 -6.14369e-05 0)
(0 -4.76501e-05 0)
(0 -6.39006e-05 0)
(0 -9.96407e-06 0)
(0 -9.20879e-05 0)
(0 -0.000180264 0)
(0 -0.000180978 0)
(0 -0.000265923 0)
(0 -0.000270162 0)
(0 -0.000350556 0)
(0 -0.000346917 0)
(0 -0.000426157 0)
(0 -0.000434352 0)
(0 -0.000504863 0)
(0 -0.000516143 0)
(0 -0.00058138 0)
(0 -0.00059291 0)
(0 -0.000653309 0)
(0 -0.000663615 0)
(0 -0.00071827 0)
(0 -0.000726097 0)
(0 -0.00077438 0)
(0 -0.000779815 0)
(0 -0.00082278 0)
(0 -0.000816875 0)
(0 -0.000859076 0)
(0 -0.000851478 0)
(0 -0.000886968 0)
(0 -0.000878398 0)
(0 -0.00090796 0)
(0 -0.000897987 0)
(0 -0.000923575 0)
(0 -0.000912257 0)
(0 -0.000933412 0)
(0 -0.000921838 0)
(0 -0.000938315 0)
(0 -0.000926539 0)
(0 -0.000938854 0)
(0 -0.000926017 0)
(0 -0.000950793 0)
(0 -0.000947965 0)
(0 -0.000960746 0)
(0 -0.000954532 0)
(0 -0.000968292 0)
(0 -0.000958645 0)
(0 -0.000972634 0)
(0 -0.000960256 0)
(0 -0.00097448 0)
(0 -0.000959904 0)
(0 -0.000974541 0)
(0 -0.000957978 0)
(0 -0.000942815 0)
(0 -0.000972811 0)
(0 -0.000954518 0)
(0 -0.000969315 0)
(0 -0.000949419 0)
(0 -0.000964226 0)
(0 -0.000942206 0)
(0 -0.000956957 0)
(0 -0.000932956 0)
(0 -0.000947155 0)
(0 -0.000922677 0)
(0 -0.000937053 0)
(0 -0.000911717 0)
(0 -0.000895032 0)
(0 -0.00092728 0)
(0 -0.00090067 0)
(0 -0.00091677 0)
(0 -0.000889013 0)
(0 -0.00090595 0)
(0 -0.000877534 0)
(0 -0.000894672 0)
(0 -0.000865608 0)
(0 -0.000882462 0)
(0 -0.000853415 0)
(0 -0.000869785 0)
(0 -0.000835693 0)
(0 -0.000858671 0)
(0 -0.000827488 0)
(0 -0.000848644 0)
(0 -0.000816174 0)
(0 -0.000838286 0)
(0 -0.00080456 0)
(0 -0.000828947 0)
(0 -0.000794148 0)
(0 -0.000911077 0)
(0 -0.00082089 0)
(0 -0.000785524 0)
(0 -0.000854616 0)
(0 -0.000811935 0)
(0 -0.000778451 0)
(0 -0.000831707 0)
(0 -0.000805615 0)
(0 -0.000773152 0)
(0 -0.000802541 0)
(0 -0.00076956 0)
(0 -0.000799383 0)
(0 -0.000767158 0)
(0 -0.000798098 0)
(0 -0.000766235 0)
(0 -0.000798625 0)
(0 -0.000767549 0)
(0 -0.000827252 0)
(0 -0.000800511 0)
(0 -0.000771371 0)
(0 -0.000805724 0)
(0 -0.000778131 0)
(0 -0.000968598 0)
(0 -0.000813817 0)
(0 -0.000787195 0)
(0 -0.000823397 0)
(0 -0.000799084 0)
(0 -0.000836106 0)
(0 -0.000813684 0)
(0 -0.000851059 0)
(0 -0.000830358 0)
(0 -0.000872252 0)
(0 -0.000867861 0)
(0 -0.000848543 0)
(0 -0.000809835 0)
(0 -0.000829218 0)
(0 -0.000789532 0)
(0 -0.000810019 0)
(0 -0.000848973 0)
(0 -0.000831458 0)
(0 -0.000791686 0)
(0 -0.000814669 0)
(0 -0.000853849 0)
(0 -0.000839022 0)
(0 -0.000798754 0)
(0 -0.000825185 0)
(0 -0.000865502 0)
(0 -0.000853912 0)
(0 -0.000894459 0)
(0 -0.000884805 0)
(0 -0.000843779 0)
(0 -0.000876718 0)
(0 -0.000835342 0)
(0 -0.000870369 0)
(0 -0.000911125 0)
(0 -0.000906093 0)
(0 -0.000865003 0)
(0 -0.000901581 0)
(0 -0.000859739 0)
(0 -0.000897655 0)
(0 -0.000938882 0)
(0 -0.000935629 0)
(0 -0.000893934 0)
(0 -0.000932036 0)
(0 -0.000890163 0)
(0 -0.000929374 0)
(0 -0.000887 0)
(0 -0.000928223 0)
(0 -0.000884725 0)
(0 -0.000924918 0)
(0 -0.000882727 0)
(0 -0.000923528 0)
(0 -0.000882527 0)
(0 -0.000926274 0)
(0 -0.000884644 0)
(0 -0.00092828 0)
(0 -0.000887068 0)
(0 -0.000931363 0)
(0 -0.00089 0)
(0 -0.000935074 0)
(0 -0.000893414 0)
(0 -0.000939631 0)
(0 -0.000897967 0)
(0 -0.000945263 0)
(0 -0.000904214 0)
(0 -0.000953869 0)
(0 -0.000912381 0)
(0 -0.000965163 0)
(0 -0.00092273 0)
(0 -0.000976438 0)
(0 -0.000934541 0)
(0 -0.000989271 0)
(0 -0.000947724 0)
(0 -0.00100413 0)
(0 -0.000969129 0)
(0 -0.000976316 0)
(0 -0.00084122 0)
(0 -0.000847306 0)
(0 -0.000767538 0)
(0 -0.000879392 0)
(0 -0.000735195 0)
(0 -0.000825346 0)
(0 -0.000914349 0)
(0 -0.000912554 0)
(0 -0.000901628 0)
(0 -0.000898225 0)
(0 -0.00073459 0)
(0 -0.000989519 0)
(0 -0.00146165 0)
(0 -0.00142795 0)
(0 -0.00141796 0)
(0 -0.00148856 0)
(0 -0.00138242 0)
(0 -0.00137408 0)
(0 -0.00133753 0)
(0 -0.00133048 0)
(0 -0.00129345 0)
(0 -0.00128852 0)
(0 -0.00132091 0)
(0 -0.00128345 0)
(0 -0.00131145 0)
(0 -0.00127859 0)
(0 -0.00130314 0)
(0 -0.00127326 0)
(0 -0.00124693 0)
(0 -0.00124138 0)
(0 -0.00126489 0)
(0 -0.00123311 0)
(0 -0.00120712 0)
(0 -0.00119949 0)
(0 -0.00122114 0)
(0 -0.00118999 0)
(0 -0.00116585 0)
(0 -0.00116116 0)
(0 -0.00113444 0)
(0 -0.00113394 0)
(0 -0.00115783 0)
(0 -0.00113403 0)
(0 -0.00110705 0)
(0 -0.00110842 0)
(0 -0.00113227 0)
(0 -0.00110821 0)
(0 -0.00108005 0)
(0 -0.00107934 0)
(0 -0.00110235 0)
(0 -0.00107377 0)
(0 -0.00104613 0)
(0 -0.0010411 0)
(0 -0.00106463 0)
(0 -0.00103375 0)
(0 -0.0010551 0)
(0 -0.00102662 0)
(0 -0.00104662 0)
(0 -0.00102164 0)
(0 -0.000998723 0)
(0 -0.00099639 0)
(0 -0.00101886 0)
(0 -0.000995541 0)
(0 -0.00101746 0)
(0 -0.000996736 0)
(0 -0.00101831 0)
(0 -0.00100101 0)
(0 -0.000976566 0)
(0 -0.000983674 0)
(0 -0.00100717 0)
(0 -0.000991467 0)
(0 -0.00101281 0)
(0 -0.000998965 0)
(0 -0.00101767 0)
(0 -0.00100696 0)
(0 -0.000987438 0)
(0 -0.000997627 0)
(0 -0.00101548 0)
(0 -0.0010073 0)
(0 -0.000987321 0)
(0 -0.000996435 0)
(0 -0.00101516 0)
(0 -0.00100287 0)
(0 -0.00102067 0)
(0 -0.00100809 0)
(0 -0.00102499 0)
(0 -0.00101343 0)
(0 -0.00099433 0)
(0 -0.000999805 0)
(0 -0.00101871 0)
(0 -0.00100403 0)
(0 -0.00102248 0)
(0 -0.00100559 0)
(0 -0.000985071 0)
(0 -0.00102387 0)
(0 -0.0010039 0)
(0 -0.00102179 0)
(0 -0.000999228 0)
(0 -0.00101686 0)
(0 -0.000991239 0)
(0 -0.00100904 0)
(0 -0.000979819 0)
(0 -0.000961983 0)
(0 -0.000947488 0)
(0 -0.00092955 0)
(0 -0.00103901 0)
(0 -0.000229589 0)
(0 -0.000211435 0)
(0 -0.000185819 0)
(0 -0.000194189 0)
(0 -0.000169537 0)
(0 -0.000177866 0)
(0 -0.000153753 0)
(0 -0.000162383 0)
(0 -0.000187352 0)
(0 -0.000171983 0)
(0 -0.000147784 0)
(0 -0.000157505 0)
(0 -0.000134326 0)
(0 -0.000144125 0)
(0 -0.000121944 0)
(0 -0.000131896 0)
(0 -0.000154824 0)
(0 -0.000142905 0)
(0 -0.000120682 0)
(0 -0.000132132 0)
(0 -0.000110702 0)
(0 -0.000121946 0)
(0 -0.000101955 0)
(0 -0.000112375 0)
(0 -9.42134e-05 0)
(0 -0.000105163 0)
(0 -8.72187e-05 0)
(0 -9.88701e-05 0)
(0 -8.14199e-05 0)
(0 -9.33535e-05 0)
(0 -7.69448e-05 0)
(0 -8.94487e-05 0)
(0 -7.31017e-05 0)
(0 -8.63707e-05 0)
(0 -7.02144e-05 0)
(0 -8.41589e-05 0)
(0 -6.82594e-05 0)
(0 -8.28565e-05 0)
(0 -6.75505e-05 0)
(0 -8.29492e-05 0)
(0 -6.821e-05 0)
(0 -8.41911e-05 0)
(0 -7.02196e-05 0)
(0 -8.66208e-05 0)
(0 -7.34638e-05 0)
(0 -9.06608e-05 0)
(0 -7.78917e-05 0)
(0 -9.59156e-05 0)
(0 -8.37275e-05 0)
(0 -0.000102115 0)
(0 -9.02858e-05 0)
(0 -0.000109499 0)
(0 -9.77723e-05 0)
(0 -0.00011761 0)
(0 -0.000106966 0)
(0 -0.000127337 0)
(0 -0.000117351 0)
(0 -0.00013904 0)
(0 -0.000128812 0)
(0 -0.000130924 0)
(0 -9.92844e-05 0)
(0 -0.000107596 0)
(0 -0.000119143 0)
(0 -9.86428e-05 0)
(0 -0.000110193 0)
(0 -0.00013163 0)
(0 -0.000122665 0)
(0 -0.000102052 0)
(0 -0.000114621 0)
(0 -9.45727e-05 0)
(0 -0.000107455 0)
(0 -0.000128093 0)
(0 -0.000121401 0)
(0 -0.000102019 0)
(0 -0.000115284 0)
(0 -0.000118641 0)
(0 -0.000135997 0)
(0 -0.000129479 0)
(0 -0.000108705 0)
(0 -0.000123214 0)
(0 -0.000102586 0)
(0 -0.000117621 0)
(0 -9.779e-05 0)
(0 -0.000112405 0)
(0 -9.3722e-05 0)
(0 -0.000108411 0)
(0 -9.06191e-05 0)
(0 -0.00010814 0)
(0 -8.86549e-05 0)
(0 -0.000102023 0)
(0 -8.5836e-05 0)
(0 -9.88162e-05 0)
(0 -8.28503e-05 0)
(0 -9.70943e-05 0)
(0 -8.15965e-05 0)
(0 -9.72307e-05 0)
(0 -8.13061e-05 0)
(0 -9.80936e-05 0)
(0 -8.19627e-05 0)
(0 -9.93475e-05 0)
(0 -8.35092e-05 0)
(0 -0.000101772 0)
(0 -8.60964e-05 0)
(0 -0.00010534 0)
(0 -8.97688e-05 0)
(0 -0.000109578 0)
(0 -9.45771e-05 0)
(0 -0.000115552 0)
(0 -0.00010081 0)
(0 -0.00012438 0)
(0 -0.000108538 0)
(0 -0.000133403 0)
(0 -0.000117259 0)
(0 -0.000142544 0)
(0 -0.000127277 0)
(0 -0.000153795 0)
(0 -0.000138762 0)
(0 -0.000167036 0)
(0 -0.000152549 0)
(0 -0.000181944 0)
(0 -0.000168291 0)
(0 -0.000199208 0)
(0 -0.000185158 0)
(0 -0.000218516 0)
(0 -0.000203859 0)
(0 -0.000239942 0)
(0 -0.000224959 0)
(0 -0.000189682 0)
(0 -0.000211268 0)
(0 -0.000177155 0)
(0 -0.000199485 0)
(0 -0.000166255 0)
(0 -0.0002243 0)
(0 -0.000114425 0)
(0 -0.000125695 0)
(0 -0.000166874 0)
(0 -8.37184e-05 0)
(0 -7.96882e-05 0)
(0 -0.000139244 0)
(0 -0.00016878 0)
(0 -6.5243e-05 0)
(0 -0.000112746 0)
(0 -0.000233496 0)
(0 -0.000104499 0)
(0 -6.80884e-05 0)
(0 -6.12872e-05 0)
(0 -5.38837e-05 0)
(0 -8.02424e-05 0)
(0 -6.6948e-05 0)
(0 -0.000996635 0)
(0 -0.000912065 0)
(0 -0.000893632 0)
(0 -0.000873264 0)
(0 -0.000854167 0)
(0 -0.000917637 0)
(0 -0.000782337 0)
(0 -0.000826135 0)
(0 -0.000926437 0)
(0 -0.000781741 0)
(0 -0.000826441 0)
(0 -0.000780536 0)
(0 -0.000829673 0)
(0 -0.000810517 0)
(0 -0.000833629 0)
(0 -0.000782264 0)
(0 -0.000809994 0)
(0 -0.000759348 0)
(0 -0.000781023 0)
(0 -0.000730773 0)
(0 -0.000747302 0)
(0 -0.000696018 0)
(0 -0.000707477 0)
(0 -0.000652487 0)
(0 -0.000661523 0)
(0 -0.000607773 0)
(0 -0.000849697 0)
(0 -0.00125052 0)
(0 -0.00125046 0)
(0 -0.00120368 0)
(0 -0.00119832 0)
(0 -0.00102975 0)
(0 -0.00101074 0)
(0 -0.00103541 0)
(0 -0.00102886 0)
(0 -0.00107061 0)
(0 -0.00114582 0)
(0 -0.00101125 0)
(0 -0.00103759 0)
(0 -0.000971368 0)
(0 -0.000238573 0)
(0 -0.000957283 0)
(0 -0.000974027 0)
(0 -0.0009715 0)
(0 -0.00113472 0)
(0 -0.000943697 0)
(0 -0.000878123 0)
(0 -0.000835769 0)
(0 -0.000979582 0)
(0 -0.000839537 0)
(0 1.58443e-05 0)
(0 2.01944e-05 0)
(0 1.47581e-05 0)
(0 1.92831e-05 0)
(0 1.37187e-05 0)
(0 1.81852e-05 0)
(0 -0.000614902 0)
(0 -0.000665837 0)
(0 -0.000117104 0)
(0 -0.000777105 0)
(0 -0.0010228 0)
(0 -0.00104519 0)
(0 -0.000560073 0)
(0 2.32304e-05 0)
(0 2.19723e-05 0)
(0 -0.000867606 0)
(0 -0.000615485 0)
(0 -0.000665283 0)
(0 -0.00107783 0)
(0 -0.00103066 0)
(0 -0.00105045 0)
(0 -0.000709191 0)
(0 -0.00106039 0)
(0 1.66415e-05 0)
(0 2.0384e-05 0)
(0 2.51328e-05 0)
(0 2.35621e-05 0)
(0 -0.000112842 0)
(0 -0.00103507 0)
(0 -0.0010134 0)
(0 -0.00105421 0)
(0 -0.00106583 0)
(0 -0.000592963 0)
(0 -0.000608779 0)
(0 -0.000658298 0)
(0 -0.00103893 0)
(0 2.77342e-05 0)
(0 2.61719e-05 0)
(0 2.18855e-05 0)
(0 2.43321e-05 0)
(0 2.82597e-05 0)
(0 2.62343e-05 0)
(0 2.98145e-05 0)
(0 2.77687e-05 0)
(0 3.09036e-05 0)
(0 2.88034e-05 0)
(0 3.1685e-05 0)
(0 2.95212e-05 0)
(0 3.2196e-05 0)
(0 2.99473e-05 0)
(0 3.24752e-05 0)
(0 3.02275e-05 0)
(0 3.29723e-05 0)
(0 3.03701e-05 0)
(0 3.26619e-05 0)
(0 3.022e-05 0)
(0 3.23834e-05 0)
(0 2.98578e-05 0)
(0 3.19664e-05 0)
(0 2.93665e-05 0)
(0 3.14409e-05 0)
(0 2.87944e-05 0)
(0 3.09077e-05 0)
(0 2.81262e-05 0)
(0 3.01739e-05 0)
(0 2.73341e-05 0)
(0 2.93574e-05 0)
(0 2.65066e-05 0)
(0 2.86149e-05 0)
(0 2.54594e-05 0)
(0 2.77985e-05 0)
(0 2.41476e-05 0)
(0 2.66855e-05 0)
(0 2.39427e-05 0)
(0 2.27319e-05 0)
(0 2.53544e-05 0)
(0 2.11409e-05 0)
(0 2.39059e-05 0)
(0 2.74859e-05 0)
(0 1.80564e-05 0)
(0 2.76692e-05 0)
(0 2.63378e-05 0)
(0 2.22799e-05 0)
(0 2.48477e-05 0)
(0 2.0462e-05 0)
(0 2.31833e-05 0)
(0 2.7134e-05 0)
(0 2.55959e-05 0)
(0 2.12787e-05 0)
(0 2.38149e-05 0)
(0 2.91583e-05 0)
(0 1.90551e-05 0)
(0 2.17375e-05 0)
(0 3.09309e-05 0)
(0 2.6842e-05 0)
(0 2.62521e-05 0)
(0 2.16345e-05 0)
(0 1.64803e-05 0)
(0 1.9363e-05 0)
(0 2.4238e-05 0)
(0 2.19761e-05 0)
(0 2.63879e-05 0)
(0 2.42541e-05 0)
(0 1.33533e-05 0)
(0 2.81857e-05 0)
(0 2.6256e-05 0)
(0 2.18769e-05 0)
(0 2.39979e-05 0)
(0 1.90642e-05 0)
(0 2.13066e-05 0)
(0 2.58793e-05 0)
(0 2.32289e-05 0)
(0 3.27723e-05 0)
(0 2.73402e-05 0)
(0 2.4802e-05 0)
(0 2.01245e-05 0)
(0 2.19198e-05 0)
(0 2.62484e-05 0)
(0 2.32891e-05 0)
(0 2.74388e-05 0)
(0 2.41613e-05 0)
(0 2.82149e-05 0)
(0 2.47277e-05 0)
(0 2.86106e-05 0)
(0 2.48996e-05 0)
(0 2.85942e-05 0)
(0 2.46661e-05 0)
(0 2.82477e-05 0)
(0 2.39833e-05 0)
(0 2.74644e-05 0)
(0 2.28375e-05 0)
(0 2.62336e-05 0)
(0 2.12507e-05 0)
(0 2.46098e-05 0)
(0 1.92035e-05 0)
(0 2.27471e-05 0)
(0 1.65542e-05 0)
(0 1.729e-05 0)
(0 9.39565e-06 0)
(0 2.02044e-05 0)
(0 1.92931e-05 0)
(0 -0.00112288 0)
(0 -0.00103901 0)
(0 -0.00110386 0)
(0 -0.00105667 0)
(0 -0.00104181 0)
(0 -0.000760513 0)
(0 -0.000981412 0)
(0 -0.00100148 0)
(0 -0.00102393 0)
(0 1.02235e-05 0)
(0 6.63178e-06 0)
(0 -0.000598939 0)
(0 -0.000644481 0)
(0 3.43131e-05 0)
(0 -0.00103553 0)
(0 -0.000197799 0)
(0 -0.000943634 0)
(0 -0.00101152 0)
(0 -0.000550945 0)
(0 -0.000263551 0)
(0 -0.00014578 0)
(0 -0.000724597 0)
(0 -0.000729655 0)
(0 -0.000780248 0)
(0 -0.000727582 0)
(0 -0.000581678 0)
(0 -0.000624238 0)
(0 -0.000686731 0)
(0 -0.000665884 0)
(0 -0.000599717 0)
(0 -0.000641481 0)
(0 -0.000945174 0)
(0 -0.000972555 0)
(0 -0.000777313 0)
(0 -0.000722827 0)
(0 -0.000771512 0)
(0 -0.000715274 0)
(0 3.26909e-05 0)
(0 -0.00105755 0)
(0 -0.00104397 0)
(0 3.08523e-05 0)
(0 2.85093e-06 0)
(0 -1.23133e-06 0)
(0 -0.000890163 0)
(0 -0.000918621 0)
(0 -0.000727752 0)
(0 -0.000572233 0)
(0 -0.000613394 0)
(0 3.42157e-05 0)
(0 -0.000532569 0)
(0 -0.000556032 0)
(0 -0.000506401 0)
(0 -0.000531387 0)
(0 -0.000482348 0)
(0 -0.000508057 0)
(0 -0.000459606 0)
(0 -0.00048875 0)
(0 -0.00043944 0)
(0 -0.00047032 0)
(0 -0.000422757 0)
(0 -0.000458371 0)
(0 -0.000407576 0)
(0 -0.000437226 0)
(0 -0.000393013 0)
(0 -0.00042453 0)
(0 -0.000380875 0)
(0 -0.000413038 0)
(0 -0.000370569 0)
(0 -0.000403416 0)
(0 -0.000362887 0)
(0 -0.000395851 0)
(0 -0.000357383 0)
(0 -0.000390372 0)
(0 -0.0003534 0)
(0 -0.000386653 0)
(0 -0.000425093 0)
(0 -0.000421491 0)
(0 -0.000384115 0)
(0 -0.000419574 0)
(0 -0.000382753 0)
(0 -0.000419275 0)
(0 -0.000382894 0)
(0 -0.000421047 0)
(0 -0.000384797 0)
(0 -0.000423254 0)
(0 -0.000387897 0)
(0 -0.000425171 0)
(0 -0.000392002 0)
(0 -0.000429038 0)
(0 -0.000397675 0)
(0 -0.000435145 0)
(0 -0.000405253 0)
(0 -0.000440657 0)
(0 -0.000413362 0)
(0 -0.000449823 0)
(0 -0.000422135 0)
(0 -0.000466001 0)
(0 -0.000428291 0)
(0 -0.000467828 0)
(0 -0.00043605 0)
(0 -0.000476714 0)
(0 -0.000447389 0)
(0 -0.00048755 0)
(0 -0.000460028 0)
(0 -0.000465373 0)
(0 -0.000418889 0)
(0 -0.000433251 0)
(0 -0.00047808 0)
(0 -0.000447977 0)
(0 -0.000409817 0)
(0 -0.000425311 0)
(0 -0.000462082 0)
(0 -0.000441059 0)
(0 -0.000401016 0)
(0 -0.000420971 0)
(0 -0.000459432 0)
(0 -0.000438821 0)
(0 -0.000397622 0)
(0 -0.000419412 0)
(0 -0.000382612 0)
(0 -0.000401817 0)
(0 -0.000364965 0)
(0 -0.000386077 0)
(0 -0.000349819 0)
(0 -0.000373162 0)
(0 -0.00033742 0)
(0 -0.000362023 0)
(0 -0.000327476 0)
(0 -0.000353053 0)
(0 -0.000319702 0)
(0 -0.000346159 0)
(0 -0.000314008 0)
(0 -0.000341593 0)
(0 -0.000374222 0)
(0 -0.000370562 0)
(0 -0.000339184 0)
(0 -0.000368952 0)
(0 -0.000338555 0)
(0 -0.00036931 0)
(0 -0.000339859 0)
(0 -0.000372111 0)
(0 -0.000399406 0)
(0 -0.000439033 0)
(0 -0.000343027 0)
(0 -0.000376671 0)
(0 -0.000347659 0)
(0 -0.000382249 0)
(0 -0.000353758 0)
(0 -0.00039042 0)
(0 -0.000361178 0)
(0 -0.000399266 0)
(0 -0.000369762 0)
(0 -0.0004073 0)
(0 -0.000379344 0)
(0 -0.000416972 0)
(0 -0.000391983 0)
(0 -0.000434873 0)
(0 -0.000406544 0)
(0 -0.000444974 0)
(0 -0.000417347 0)
(0 -0.000460262 0)
(0 -0.000439623 0)
(0 -0.00047757 0)
(0 -0.00048327 0)
(0 -0.00040111 0)
(0 -0.000421318 0)
(0 -0.000444239 0)
(0 -0.000461642 0)
(0 -0.000467385 0)
(0 -0.000496717 0)
(0 -0.000456278 0)
(0 -0.00049506 0)
(0 -0.0003935 0)
(0 -0.000459819 0)
(0 -0.000526307 0)
(0 -0.000308769 0)
(0 -0.000586392 0)
(0 -0.000473727 0)
(0 -0.000513141 0)
(0 -0.000534992 0)
(0 -0.000553034 0)
(0 -0.000575226 0)
(0 -0.000593097 0)
(0 -0.000571355 0)
(0 -0.000611506 0)
(0 -0.000589459 0)
(0 -0.000629675 0)
(0 -0.00060748 0)
(0 -0.000647658 0)
(0 -0.000367223 0)
(0 -0.000326675 0)
(0 -0.00034774 0)
(0 -0.000625643 0)
(0 -0.000666161 0)
(0 -0.000652109 0)
(0 -0.00034407 0)
(0 -0.00030378 0)
(0 -0.000377242 0)
(0 -0.000339018 0)
(0 -0.000321804 0)
(0 -0.000422362 0)
(0 3.14129e-05 0)
(0 -0.000642893 0)
(0 -0.000682474 0)
(0 -0.000433472 0)
(0 -0.000658474 0)
(0 -0.000696908 0)
(0 -0.00036793 0)
(0 -0.000858196 0)
(0 -0.000796152 0)
(0 -0.000674732 0)
(0 -0.000833694 0)
(0 -0.000864359 0)
(0 -0.000672941 0)
(0 -0.000711635 0)
(0 -0.000764349 0)
(0 -0.000707164 0)
(0 -0.00133407 0)
(0 -0.00102441 0)
(0 -0.00102813 0)
(0 -0.000541463 0)
(0 -0.000582155 0)
(0 -0.000652776 0)
(0 -0.000622741 0)
(0 -0.000691148 0)
(0 -0.000662631 0)
(0 -0.000593656 0)
(0 -0.000635109 0)
(0 -0.000701063 0)
(0 -0.00067578 0)
(0 -0.000608596 0)
(0 -0.000651652 0)
(0 -0.000582725 0)
(0 -0.000627897 0)
(0 -0.00073366 0)
(0 -0.000747847 0)
(0 -0.000653914 0)
(0 -0.000645965 0)
(0 -0.000694209 0)
(0 -0.000673642 0)
(0 -0.000603871 0)
(0 -0.000654206 0)
(0 -0.000639621 0)
(0 -5.68784e-06 0)
(0 -0.00105587 0)
(0 -0.00106482 0)
(0 -0.000509041 0)
(0 -0.000579261 0)
(0 -0.000632389 0)
(0 -0.000711311 0)
(0 -0.000682452 0)
(0 -0.000499553 0)
(0 -0.000527494 0)
(0 -0.00072735 0)
(0 -0.000762253 0)
(0 -1.02698e-05 0)
(0 -5.59588e-06 0)
(0 -1.52704e-05 0)
(0 -1.026e-05 0)
(0 -0.000606496 0)
(0 -0.000658787 0)
(0 -2.09049e-05 0)
(0 -1.57413e-05 0)
(0 -0.0010593 0)
(0 -0.0010645 0)
(0 -0.000773925 0)
(0 -0.000808309 0)
(0 -0.000901133 0)
(0 -0.000838108 0)
(0 -0.000749229 0)
(0 -0.000781394 0)
(0 -0.000860847 0)
(0 -0.000805741 0)
(0 -0.00056595 0)
(0 -0.000727107 0)
(0 -0.000707959 0)
(0 -0.000632654 0)
(0 -0.000687176 0)
(0 2.99686e-05 0)
(0 3.13693e-05 0)
(0 3.27143e-05 0)
(0 3.38882e-05 0)
(0 3.48276e-05 0)
(0 3.58009e-05 0)
(0 3.64628e-05 0)
(0 3.72027e-05 0)
(0 3.76655e-05 0)
(0 3.66398e-05 0)
(0 3.70323e-05 0)
(0 3.8029e-05 0)
(0 3.75039e-05 0)
(0 3.83189e-05 0)
(0 3.78221e-05 0)
(0 -0.000587434 0)
(0 -0.00058118 0)
(0 -0.000639599 0)
(0 -0.000576088 0)
(0 -0.00100495 0)
(0 -0.00100954 0)
(0 -0.000711248 0)
(0 -1.54756e-05 0)
(0 -1.06968e-05 0)
(0 3.85649e-05 0)
(0 3.81012e-05 0)
(0 3.87608e-05 0)
(0 3.83727e-05 0)
(0 -0.000743366 0)
(0 -0.000777271 0)
(0 -0.00076797 0)
(0 -0.000605228 0)
(0 -0.000466608 0)
(0 -0.00088126 0)
(0 -0.000759245 0)
(0 -0.000792041 0)
(0 -0.000809951 0)
(0 -0.000823762 0)
(0 -0.000805209 0)
(0 -0.000835391 0)
(0 -0.000816561 0)
(0 -0.000845624 0)
(0 3.89253e-05 0)
(0 3.85905e-05 0)
(0 3.78942e-05 0)
(0 3.8172e-05 0)
(0 3.87765e-05 0)
(0 3.84036e-05 0)
(0 3.89338e-05 0)
(0 3.86032e-05 0)
(0 3.79318e-05 0)
(0 3.81806e-05 0)
(0 3.87778e-05 0)
(0 3.84035e-05 0)
(0 3.71726e-05 0)
(0 -0.000618339 0)
(0 3.89226e-05 0)
(0 3.85898e-05 0)
(0 3.90392e-05 0)
(0 3.87579e-05 0)
(0 3.78128e-05 0)
(0 3.73464e-05 0)
(0 -0.000633478 0)
(0 -0.000570727 0)
(0 -0.000420047 0)
(0 -2.71881e-05 0)
(0 -2.20618e-05 0)
(0 -0.000828917 0)
(0 3.73321e-05 0)
(0 -0.00105633 0)
(0 -0.00105862 0)
(0 -0.00105156 0)
(0 -0.00106752 0)
(0 -0.00105919 0)
(0 -0.00106796 0)
(0 -0.00105749 0)
(0 -0.00106646 0)
(0 -0.00105386 0)
(0 -0.00106267 0)
(0 -0.00104868 0)
(0 -0.00105689 0)
(0 -0.00104186 0)
(0 -0.00105011 0)
(0 -0.00103458 0)
(0 -0.0010432 0)
(0 -0.00102685 0)
(0 -0.00103676 0)
(0 -0.00101975 0)
(0 -0.00103124 0)
(0 -0.00101459 0)
(0 -0.00102662 0)
(0 -0.00101127 0)
(0 -0.0010235 0)
(0 -0.00100969 0)
(0 -0.00102208 0)
(0 -0.00100917 0)
(0 -0.0010444 0)
(0 -0.00102193 0)
(0 -0.00100968 0)
(0 -0.00106187 0)
(0 -0.00102255 0)
(0 -0.00101016 0)
(0 -0.00102392 0)
(0 -0.00101159 0)
(0 -0.0010261 0)
(0 -0.00101434 0)
(0 -0.0010328 0)
(0 -0.00102959 0)
(0 -0.00101895 0)
(0 -0.00100117 0)
(0 -0.00100829 0)
(0 -0.00102567 0)
(0 -0.00101755 0)
(0 -0.00103437 0)
(0 -0.00102844 0)
(0 -0.00104433 0)
(0 -0.00104024 0)
(0 -0.00105492 0)
(0 -0.00105198 0)
(0 -0.000993928 0)
(0 -0.00106591 0)
(0 -0.00106429 0)
(0 -0.0010473 0)
(0 -0.00106238 0)
(0 -0.00107764 0)
(0 -0.00107813 0)
(0 -0.00109224 0)
(0 -0.00109399 0)
(0 -0.00107682 0)
(0 -0.00109406 0)
(0 -0.00107438 0)
(0 -0.00109329 0)
(0 -0.00111142 0)
(0 -0.00111228 0)
(0 -0.00109115 0)
(0 -0.00111174 0)
(0 -0.00113126 0)
(0 -0.00113294 0)
(0 -0.00111049 0)
(0 -0.00113462 0)
(0 -0.00110951 0)
(0 -0.00113732 0)
(0 -0.00116055 0)
(0 -0.00116737 0)
(0 -0.00114154 0)
(0 -0.001176 0)
(0 -0.00119889 0)
(0 -0.00121066 0)
(0 -0.00118637 0)
(0 -0.00122274 0)
(0 -0.00119732 0)
(0 -0.00123552 0)
(0 -0.00125863 0)
(0 -0.00127225 0)
(0 -0.00124787 0)
(0 -0.00128431 0)
(0 -0.00125894 0)
(0 -0.00129555 0)
(0 -0.00126854 0)
(0 -0.00131901 0)
(0 -0.00130688 0)
(0 -0.00127827 0)
(0 -0.00131951 0)
(0 -0.00128997 0)
(0 -0.00133342 0)
(0 -0.00130261 0)
(0 -0.00136031 0)
(0 -0.00134683 0)
(0 -0.00131489 0)
(0 -0.00126814 0)
(0 -0.00128114 0)
(0 -0.00133446 0)
(0 -0.00129484 0)
(0 -0.00123237 0)
(0 -0.00124489 0)
(0 -0.00125842 0)
(0 -0.00130872 0)
(0 -0.00127312 0)
(0 -0.00132259 0)
(0 -0.00128964 0)
(0 -0.00100719 0)
(0 -0.000995934 0)
(0 -0.00121522 0)
(0 -0.00101379 0)
(0 -0.000817995 0)
(0 -0.000811582 0)
(0 -0.000517349 0)
(0 -0.000523236 0)
(0 -0.000755026 0)
(0 3.81577e-05 0)
(0 3.83676e-05 0)
(0 3.89106e-05 0)
(0 3.856e-05 0)
(0 3.90375e-05 0)
(0 3.87293e-05 0)
(0 3.91457e-05 0)
(0 3.8872e-05 0)
(0 3.81107e-05 0)
(0 -0.000423657 0)
(0 -0.000826084 0)
(0 -0.000866583 0)
(0 3.03775e-05 0)
(0 3.85347e-05 0)
(0 -0.000853885 0)
(0 -0.000904109 0)
(0 3.91791e-05 0)
(0 -0.0001002 0)
(0 3.89377e-05 0)
(0 -0.00104773 0)
(0 3.39039e-05 0)
(0 -8.80984e-05 0)
(0 -6.81246e-05 0)
(0 3.83145e-05 0)
(0 3.79228e-05 0)
(0 -0.000847638 0)
(0 -0.000860072 0)
(0 -5.47776e-05 0)
(0 -5.78147e-05 0)
(0 -0.000794318 0)
(0 1.45893e-05 0)
(0 -7.7565e-05 0)
(0 -6.68282e-05 0)
(0 3.17128e-05 0)
(0 -0.00105538 0)
(0 -0.000749197 0)
(0 -8.27653e-05 0)
(0 -0.00098343 0)
(0 -0.000731441 0)
(0 -0.00028777 0)
(0 -0.000802072 0)
(0 -0.00102944 0)
(0 -0.000724593 0)
(0 -0.00125595 0)
(0 -7.14251e-05 0)
(0 -0.000886188 0)
(0 -0.000993488 0)
(0 -0.00122001 0)
(0 -0.000840911 0)
(0 -0.000315324 0)
(0 -0.00115866 0)
(0 -0.000792552 0)
(0 -0.000759379 0)
(0 -0.000748843 0)
(0 -0.000716113 0)
(0 -0.000704551 0)
(0 -0.000672225 0)
(0 -0.000685938 0)
(0 -0.000925645 0)
(0 -0.000934469 0)
(0 -0.000966072 0)
(0 -0.000973714 0)
(0 -0.00108364 0)
(0 -0.00105528 0)
(0 -2.12869e-05 0)
(0 -1.63428e-05 0)
(0 -0.000854482 0)
(0 1.58016e-05 0)
(0 -0.000151801 0)
(0 -0.000162382 0)
(0 -0.000176617 0)
(0 -0.000187759 0)
(0 -0.000203454 0)
(0 -0.000215546 0)
(0 -0.000232058 0)
(0 -0.000220254 0)
(0 -0.000249894 0)
(0 -0.000238394 0)
(0 -0.000245121 0)
(0 -0.00022891 0)
(0 -9.4294e-05 0)
(0 -0.000342239 0)
(0 -0.000713856 0)
(0 -0.00104409 0)
(0 -0.00097762 0)
(0 -0.000903989 0)
(0 -0.00014421 0)
(0 -0.00115073 0)
(0 -0.00104612 0)
(0 -0.000926531 0)
(0 -0.00104889 0)
(0 -0.000352686 0)
(0 -0.00110681 0)
(0 -0.00103816 0)
(0 -0.00132184 0)
(0 -0.00135018 0)
(0 -0.00133358 0)
(0 -0.00135993 0)
(0 -0.00104192 0)
(0 -0.00014125 0)
(0 -0.00103408 0)
(0 -0.00123162 0)
(0 -0.000151799 0)
(0 -0.00129384 0)
(0 -0.000995765 0)
(0 -0.00040981 0)
(0 -0.00044545 0)
(0 -0.00042299 0)
(0 -0.000987684 0)
(0 3.92386e-05 0)
(0 3.89964e-05 0)
(0 3.85036e-05 0)
(0 3.86651e-05 0)
(0 3.91139e-05 0)
(0 3.88075e-05 0)
(0 3.73481e-05 0)
(0 3.82519e-05 0)
(0 -3.41414e-05 0)
(0 -2.88098e-05 0)
(0 -1.72551e-05 0)
(0 -2.38799e-05 0)
(0 -1.28548e-05 0)
(0 -1.93598e-05 0)
(0 -8.66394e-06 0)
(0 -1.51539e-05 0)
(0 -4.12563e-06 0)
(0 -1.16764e-05 0)
(0 -2.23644e-05 0)
(0 -1.88704e-05 0)
(0 -8.91015e-06 0)
(0 -1.55895e-05 0)
(0 -6.45639e-06 0)
(0 -1.24152e-05 0)
(0 -4.29647e-06 0)
(0 -1.02018e-05 0)
(0 -2.39354e-06 0)
(0 -8.989e-06 0)
(0 -1.22731e-06 0)
(0 -7.7627e-06 0)
(0 -2.75888e-07 0)
(0 -6.83544e-06 0)
(0 4.97742e-07 0)
(0 -6.6828e-06 0)
(0 5.32265e-07 0)
(0 -2.18792e-05 0)
(0 -7.02189e-06 0)
(0 -4.98775e-08 0)
(0 -8.08099e-06 0)
(0 -1.12987e-06 0)
(0 -0.00097812 0)
(0 -0.000627993 0)
(0 -0.000565714 0)
(0 -0.000505617 0)
(0 -0.000501247 0)
(0 -0.000560342 0)
(0 -0.000495504 0)
(0 -0.000552345 0)
(0 -0.000486753 0)
(0 -0.000541124 0)
(0 -0.000474433 0)
(0 -0.000688218 0)
(0 -0.00103246 0)
(0 -0.000946689 0)
(0 -0.000738071 0)
(0 -0.000762293 0)
(0 -0.00079361 0)
(0 -0.000816406 0)
(0 -0.000841813 0)
(0 -0.000821209 0)
(0 -0.000855091 0)
(0 -0.000668004 0)
(0 -0.000572669 0)
(0 -0.000515619 0)
(0 -0.0002782 0)
(0 -0.00073619 0)
(0 -0.000478658 0)
(0 -0.00014615 0)
(0 3.25393e-06 0)
(0 -3.68511e-06 0)
(0 -5.05134e-06 0)
(0 -1.27597e-05 0)
(0 -1.44854e-05 0)
(0 -2.30421e-05 0)
(0 -2.08614e-05 0)
(0 -2.52159e-05 0)
(0 -3.26061e-05 0)
(0 -1.65126e-05 0)
(0 -4.32483e-05 0)
(0 -5.48907e-05 0)
(0 -2.77534e-05 0)
(0 -1.93789e-05 0)
(0 -7.01898e-05 0)
(0 -0.00102631 0)
(0 -0.000754802 0)
(0 -0.000787846 0)
(0 -0.000774917 0)
(0 -3.01524e-05 0)
(0 -0.00097793 0)
(0 -0.00113634 0)
(0 -0.000945026 0)
(0 1.68577e-05 0)
(0 -0.00120723 0)
(0 -0.00123432 0)
(0 -0.00101157 0)
(0 -0.000528556 0)
(0 -0.000499723 0)
(0 -0.000449457 0)
(0 -0.000499762 0)
(0 -0.000519119 0)
(0 -0.000539325 0)
(0 -0.000558911 0)
(0 -0.000538689 0)
(0 3.75966e-05 0)
(0 -0.0013572 0)
(0 -0.00108919 0)
(0 1.60682e-05 0)
(0 -0.001218 0)
(0 -0.000158635 0)
(0 -0.000176001 0)
(0 -0.000183245 0)
(0 -0.000202094 0)
(0 -0.00020985 0)
(0 -0.000194934 0)
(0 -0.000222442 0)
(0 -0.000215414 0)
(0 -0.000259776 0)
(0 -0.000243894 0)
(0 -0.00114639 0)
(0 -0.00116435 0)
(0 -0.00115813 0)
(0 -0.000539122 0)
(0 -0.000579711 0)
(0 -0.000560789 0)
(0 -0.000601125 0)
(0 -0.000582677 0)
(0 -0.000622477 0)
(0 -0.00060505 0)
(0 -0.00059733 0)
(0 -0.000564503 0)
(0 -0.000588341 0)
(0 -0.00107265 0)
(0 3.73369e-05 0)
(0 -0.00052753 0)
(0 -0.000459825 0)
(0 -0.000511576 0)
(0 -0.000442727 0)
(0 -3.70469e-05 0)
(0 -0.00103398 0)
(0 -0.000979845 0)
(0 -0.000445602 0)
(0 -0.000736462 0)
(0 -0.000671658 0)
(0 -0.000548117 0)
(0 -0.000573265 0)
(0 -0.000534078 0)
(0 -0.000560815 0)
(0 -0.00052298 0)
(0 -0.000555492 0)
(0 -0.00059727 0)
(0 -3.51508e-05 0)
(0 -5.09547e-05 0)
(0 -4.4193e-05 0)
(0 -6.15285e-05 0)
(0 -5.44373e-05 0)
(0 -3.78219e-05 0)
(0 -4.84914e-05 0)
(0 -3.24917e-05 0)
(0 -4.37317e-05 0)
(0 -2.82174e-05 0)
(0 -3.94687e-05 0)
(0 -2.53407e-05 0)
(0 -3.55994e-05 0)
(0 -2.27318e-05 0)
(0 3.92784e-05 0)
(0 -0.000125999 0)
(0 -0.00106591 0)
(0 -0.000613973 0)
(0 -0.000597768 0)
(0 -0.00063695 0)
(0 -0.000621449 0)
(0 -0.000661991 0)
(0 -0.000645811 0)
(0 -0.000969992 0)
(0 -0.000472627 0)
(0 -0.000517342 0)
(0 -0.000841069 0)
(0 1.67444e-05 0)
(0 -0.000279649 0)
(0 -0.000103085 0)
(0 3.59558e-05 0)
(0 -0.000389262 0)
(0 -0.000402111 0)
(0 -9.91589e-06 0)
(0 -3.00383e-06 0)
(0 -0.000196993 0)
(0 3.81322e-05 0)
(0 3.643e-05 0)
(0 -0.000115751 0)
(0 -0.000101118 0)
(0 -0.000899129 0)
(0 -0.000137785 0)
(0 3.92078e-05 0)
(0 3.89244e-05 0)
(0 -0.000627429 0)
(0 -0.000678428 0)
(0 -1.73505e-05 0)
(0 -0.000117689 0)
(0 -0.000427453 0)
(0 -1.396e-05 0)
(0 3.69844e-05 0)
(0 2.55749e-05 0)
(0 -0.000417235 0)
(0 2.17033e-05 0)
(0 -0.000974506 0)
(0 -0.000970755 0)
(0 -0.00101616 0)
(0 -0.000864293 0)
(0 -0.0013797 0)
(0 -0.0013869 0)
(0 -0.000988678 0)
(0 -0.00101188 0)
(0 -0.000990976 0)
(0 -0.00101135 0)
(0 -0.00100614 0)
(0 -0.000686317 0)
(0 -0.000670267 0)
(0 -0.000629812 0)
(0 -0.000654983 0)
(0 -0.000615075 0)
(0 -0.000641556 0)
(0 -0.000601848 0)
(0 -0.000629329 0)
(0 -0.000589659 0)
(0 -0.000618332 0)
(0 -0.000579068 0)
(0 -0.000609171 0)
(0 -0.000570046 0)
(0 -0.000601956 0)
(0 -0.000562657 0)
(0 -0.000596004 0)
(0 -0.000556614 0)
(0 -0.000590774 0)
(0 -0.000551838 0)
(0 -0.000587884 0)
(0 -0.000905115 0)
(0 3.67887e-05 0)
(0 3.74042e-05 0)
(0 3.91848e-05 0)
(0 -3.09046e-05 0)
(0 -2.29444e-05 0)
(0 3.80197e-05 0)
(0 -0.000674931 0)
(0 -0.000269465 0)
(0 -0.00025826 0)
(0 -0.000492225 0)
(0 -0.000423465 0)
(0 -0.00044787 0)
(0 -0.000452899 0)
(0 1.31748e-05 0)
(0 9.3453e-06 0)
(0 -0.00124919 0)
(0 -0.000281857 0)
(0 3.96655e-05 0)
(0 6.79005e-06 0)
(0 -0.000846953 0)
(0 -0.000774898 0)
(0 -0.000549296 0)
(0 -0.000589169 0)
(0 -0.00110215 0)
(0 -0.000528347 0)
(0 -0.000559255 0)
(0 -0.000639497 0)
(0 6.44838e-06 0)