/*--------------------------------*- C++ -*----------------------------------*\
| =========                 |                                                 |
| \\      /  F ield         | OpenFOAM: The Open Source CFD Toolbox           |
|  \\    /   O peration     | Version:  v2012                                 |
|   \\  /    A nd           | Website:  www.openfoam.com                      |
|    \\/     M anipulation  |                                                 |
\*---------------------------------------------------------------------------*/
FoamFile
{
    version     2.0;
    format      ascii;
    class       volVectorField;
    location    "950";
    object      cellDisplacement;
}
// * * * * * * * * * * * * * * * * * * * * * * * * * * * * * * * * * * * * * //

dimensions      [0 1 0 0 0 0 0];


internalField   nonuniform List<vector> 
10042
(
(0 0.00069645 0)
(0 0.00151317 0)
(0 0.00131695 0)
(0 0.000358143 0)
(0 0.000210417 0)
(0 0.00175178 0)
(0 0.000634032 0)
(0 0.00112075 0)
(0 0.000491956 0)
(0 0.000850495 0)
(0 0.00120659 0)
(0 0.0015084 0)
(0 0.000417146 0)
(0 0.00115077 0)
(0 0.00043932 0)
(0 0.00115073 0)
(0 0.00176204 0)
(0 0.00122281 0)
(0 0.000413914 0)
(0 0.00108194 0)
(0 0.000434832 0)
(0 0.000676545 0)
(0 0.000341406 0)
(0 0.00160107 0)
(0 0.000817365 0)
(0 2.77128e-05 0)
(0 0.000854955 0)
(0 0.000314867 0)
(0 0.00175648 0)
(0 0.00162946 0)
(0 0.000112259 0)
(0 0.000258506 0)
(0 0.000454899 0)
(0 0.000430777 0)
(0 0.00113111 0)
(0 0.0011616 0)
(0 6.19328e-05 0)
(0 0.000498312 0)
(0 0.000154719 0)
(0 5.18584e-05 0)
(0 0.00161832 0)
(0 0.000466222 0)
(0 0.000384949 0)
(0 0.00139748 0)
(0 0.000571341 0)
(0 0.000848231 0)
(0 0.000206681 0)
(0 0.00044026 0)
(0 0.000681082 0)
(0 0.00045818 0)
(0 0.000397841 0)
(0 0.000329704 0)
(0 0.00175749 0)
(0 0.000424136 0)
(0 0.000976947 0)
(0 0.000374737 0)
(0 0.00044517 0)
(0 0.00117289 0)
(0 0.000610381 0)
(0 1.5087e-05 0)
(0 0.000702593 0)
(0 0.000908781 0)
(0 0.00038508 0)
(0 0.00108978 0)
(0 0.00157421 0)
(0 0.00120012 0)
(0 0.00110184 0)
(0 0.000778782 0)
(0 0.000220396 0)
(0 0.000762409 0)
(0 0.00039945 0)
(0 0.000890687 0)
(0 0.000796471 0)
(0 0.000599299 0)
(0 0.00118045 0)
(0 0.000387216 0)
(0 0.0015815 0)
(0 0.000214564 0)
(0 0.00159095 0)
(0 0.00039955 0)
(0 0.0013926 0)
(0 0.00161285 0)
(0 5.24894e-05 0)
(0 0.000328657 0)
(0 0.000959976 0)
(0 0.000722591 0)
(0 0.00109905 0)
(0 0.00133407 0)
(0 0.00110388 0)
(0 0.00156778 0)
(0 0.000416625 0)
(0 0.000428608 0)
(0 0.00039789 0)
(0 0.000737828 0)
(0 0.00155068 0)
(0 0.000814655 0)
(0 0.00017645 0)
(0 0.00108035 0)
(0 0.00173007 0)
(0 0.000572177 0)
(0 0.000424862 0)
(0 0.00085569 0)
(0 0.000812788 0)
(0 0.000261783 0)
(0 0.000463363 0)
(0 0.000758112 0)
(0 0.000526063 0)
(0 0.00115043 0)
(0 0.000656823 0)
(0 0.000757484 0)
(0 0.000626245 0)
(0 0.000669266 0)
(0 0.000868573 0)
(0 0.00109832 0)
(0 0.00155612 0)
(0 0.000240567 0)
(0 0.00155962 0)
(0 0.000125312 0)
(0 0.00115371 0)
(0 0.000227682 0)
(0 2.02759e-05 0)
(0 0.00152 0)
(0 0.00151697 0)
(0 0.00059807 0)
(0 0.00157623 0)
(0 0.00116102 0)
(0 0.001184 0)
(0 0.000969905 0)
(0 0.000279461 0)
(0 0.00156737 0)
(0 0.000573663 0)
(0 0.00112315 0)
(0 0.00126784 0)
(0 0.00106851 0)
(0 0.000690439 0)
(0 0.000465866 0)
(0 0.00115967 0)
(0 0.000586156 0)
(0 0.000521128 0)
(0 0.00172774 0)
(0 0.000402499 0)
(0 0.000180189 0)
(0 0.000543837 0)
(0 0.000297524 0)
(0 0.000661138 0)
(0 0.0005253 0)
(0 0.000953083 0)
(0 0.000208995 0)
(0 0.000968738 0)
(0 0.00175192 0)
(0 0.00112982 0)
(0 0.00013227 0)
(0 0.000517423 0)
(0 0.000398465 0)
(0 0.00153208 0)
(0 0.000674961 0)
(0 0.000288378 0)
(0 0.000370212 0)
(0 0.00127205 0)
(0 1.87312e-05 0)
(0 0.000123061 0)
(0 4.09041e-05 0)
(0 0.00048813 0)
(0 0.00112959 0)
(0 0.000528452 0)
(0 0.00175477 0)
(0 0.000790771 0)
(0 0.000267486 0)
(0 0.00115182 0)
(0 0.000395525 0)
(0 0.00152312 0)
(0 0.00163596 0)
(0 0.00153185 0)
(0 0.000418555 0)
(0 0.000439522 0)
(0 0.00152429 0)
(0 0.000793126 0)
(0 0.000518159 0)
(0 0.00110011 0)
(0 0.000218841 0)
(0 0.000529595 0)
(0 0.000514999 0)
(0 0.00058256 0)
(0 0.000189291 0)
(0 6.71756e-05 0)
(0 0.000354128 0)
(0 0.000872779 0)
(0 1.42737e-05 0)
(0 0.000403342 0)
(0 0.000172071 0)
(0 0.00150201 0)
(0 0.000463036 0)
(0 0.00060276 0)
(0 0.000513223 0)
(0 0.000984428 0)
(0 0.000418882 0)
(0 0.000217604 0)
(0 0.00149343 0)
(0 0.000179861 0)
(0 0.000293934 0)
(0 0.000275184 0)
(0 0.00040015 0)
(0 0.00160962 0)
(0 0.000126717 0)
(0 0.00173645 0)
(0 0.00124103 0)
(0 0.00155858 0)
(0 0.000411195 0)
(0 0.000631464 0)
(0 0.0010738 0)
(0 0.000255824 0)
(0 0.000140196 0)
(0 0.00162134 0)
(0 0.00158663 0)
(0 9.1148e-05 0)
(0 0.000760637 0)
(0 0.000118637 0)
(0 0.00154448 0)
(0 0.000180642 0)
(0 0.000285629 0)
(0 0.000230311 0)
(0 0.0015043 0)
(0 0.000239335 0)
(0 0.000753887 0)
(0 0.000386969 0)
(0 0.000388428 0)
(0 0.000962713 0)
(0 0.00115658 0)
(0 0.000844481 0)
(0 0.000799053 0)
(0 0.000542615 0)
(0 0.00121238 0)
(0 0.000366854 0)
(0 8.63384e-05 0)
(0 0.000810696 0)
(0 0.00113125 0)
(0 0.00119046 0)
(0 0.000182511 0)
(0 0.00065902 0)
(0 0.00159321 0)
(0 0.00157152 0)
(0 0.00164786 0)
(0 1.7349e-05 0)
(0 5.3164e-05 0)
(0 0.0010547 0)
(0 0.000215959 0)
(0 0.00163687 0)
(0 0.000671553 0)
(0 0.000519513 0)
(0 0.000171566 0)
(0 0.000457735 0)
(0 0.000623759 0)
(0 0.00169064 0)
(0 0.000993766 0)
(0 0.000968782 0)
(0 0.00118482 0)
(0 0.00013999 0)
(0 0.00102638 0)
(0 0.000181134 0)
(0 0.000249435 0)
(0 0.00157846 0)
(0 0.00057949 0)
(0 0.000330323 0)
(0 0.000220549 0)
(0 0.000405841 0)
(0 0.00101598 0)
(0 0.00157058 0)
(0 0.00168107 0)
(0 5.41062e-05 0)
(0 0.00122508 0)
(0 0.000381581 0)
(0 0.000469479 0)
(0 0.00108996 0)
(0 0.000388875 0)
(0 0.00102095 0)
(0 0.00109584 0)
(0 0.000414703 0)
(0 0.000659407 0)
(0 5.29218e-05 0)
(0 0.00100324 0)
(0 0.000341465 0)
(0 0.00166469 0)
(0 0.000206649 0)
(0 0.000421595 0)
(0 2.10512e-05 0)
(0 0.000246152 0)
(0 0.00157741 0)
(0 0.000312112 0)
(0 0.000636892 0)
(0 0.000107496 0)
(0 0.000491496 0)
(0 0.00153624 0)
(0 3.42973e-05 0)
(0 0.00167651 0)
(0 0.00158146 0)
(0 0.00111955 0)
(0 0.00121291 0)
(0 0.00117605 0)
(0 0.000373712 0)
(0 0.000121572 0)
(0 0.000529119 0)
(0 0.00159908 0)
(0 9.72047e-06 0)
(0 0.00155852 0)
(0 0.00157073 0)
(0 0.000909549 0)
(0 0.00114502 0)
(0 4.1639e-05 0)
(0 0.00122986 0)
(0 0.00167977 0)
(0 4.37419e-05 0)
(0 0.00103693 0)
(0 0.000790246 0)
(0 0.00111729 0)
(0 0.00154011 0)
(0 0.00061734 0)
(0 0.000213206 0)
(0 6.14449e-05 0)
(0 0.00158798 0)
(0 0.000230356 0)
(0 4.86519e-05 0)
(0 0.000401063 0)
(0 0.00107754 0)
(0 0.000907457 0)
(0 0.000104962 0)
(0 7.14169e-05 0)
(0 0.00137964 0)
(0 0.00109892 0)
(0 0.00117174 0)
(0 0.000501295 0)
(0 0.00124035 0)
(0 0.000659796 0)
(0 0.000703112 0)
(0 0.000135961 0)
(0 0.00157168 0)
(0 0.000652376 0)
(0 0.000523027 0)
(0 0.00089393 0)
(0 0.00065312 0)
(0 0.00175159 0)
(0 0.000421806 0)
(0 0.000489905 0)
(0 2.28436e-05 0)
(0 0.00141354 0)
(0 9.95973e-05 0)
(0 0.000534577 0)
(0 0.00100927 0)
(0 0.000191846 0)
(0 0.0014762 0)
(0 0.000173717 0)
(0 0.000441659 0)
(0 0.00155892 0)
(0 0.00147598 0)
(0 0.000619888 0)
(0 0.000928491 0)
(0 0.00140153 0)
(0 0.000946794 0)
(0 2.73967e-05 0)
(0 0.000277827 0)
(0 2.17614e-05 0)
(0 0.000739957 0)
(0 6.20315e-05 0)
(0 0.000544919 0)
(0 0.00160394 0)
(0 0.00175391 0)
(0 0.000520321 0)
(0 0.000239048 0)
(0 0.00145594 0)
(0 0.00145612 0)
(0 0.000935581 0)
(0 1.73789e-05 0)
(0 4.99955e-05 0)
(0 0.00111931 0)
(0 9.08317e-07 0)
(0 0.00072595 0)
(0 0.00119992 0)
(0 0.00111502 0)
(0 0.00160455 0)
(0 0.00110842 0)
(0 0.000709416 0)
(0 0.000716363 0)
(0 0.00159396 0)
(0 0.000870102 0)
(0 0.00107424 0)
(0 0.000348843 0)
(0 0.000237595 0)
(0 0.000170427 0)
(0 0.000212018 0)
(0 0.00125792 0)
(0 0.000304124 0)
(0 0.00103764 0)
(0 0.000333883 0)
(0 0.000454142 0)
(0 0.00136568 0)
(0 0.00175038 0)
(0 0.000970394 0)
(0 0.000400365 0)
(0 0.00112041 0)
(0 4.04253e-05 0)
(0 0.000270995 0)
(0 0.000296295 0)
(0 0.000242205 0)
(0 0.000340705 0)
(0 0.000955601 0)
(0 0.000205221 0)
(0 0.000637973 0)
(0 0.000432095 0)
(0 0.000695027 0)
(0 0.00156735 0)
(0 0.00103131 0)
(0 0.00175391 0)
(0 0.000604276 0)
(0 0.00165736 0)
(0 0.000459666 0)
(0 0.00103542 0)
(0 0.00135553 0)
(0 0.000683119 0)
(0 0.000941378 0)
(0 0.000249481 0)
(0 0.00133666 0)
(0 0.000140326 0)
(0 0.00175242 0)
(0 0.000558312 0)
(0 0.000181236 0)
(0 0.00039131 0)
(0 0.00136775 0)
(0 0.000921806 0)
(0 0.00174851 0)
(0 0.000250883 0)
(0 0.000470899 0)
(0 0.0013659 0)
(0 0.000234702 0)
(0 0.000618754 0)
(0 0.00115578 0)
(0 0.00069185 0)
(0 0.000551576 0)
(0 0.000659336 0)
(0 0.00113328 0)
(0 4.58094e-05 0)
(0 0.000359509 0)
(0 0.000285434 0)
(0 0.00152621 0)
(0 0.00127269 0)
(0 0.000391132 0)
(0 0.000455468 0)
(0 5.42609e-05 0)
(0 0.00102323 0)
(0 0.00049719 0)
(0 0.00110049 0)
(0 0.000179333 0)
(0 0.00105842 0)
(0 0.00127984 0)
(0 0.00128957 0)
(0 0.000355627 0)
(0 0.000311751 0)
(0 0.00104085 0)
(0 0.00154832 0)
(0 0.000326392 0)
(0 0.000205075 0)
(0 5.0461e-05 0)
(0 9.93122e-05 0)
(0 0.000427612 0)
(0 0.000934842 0)
(0 0.000959869 0)
(0 0.00123756 0)
(0 1.67202e-05 0)
(0 0.000672124 0)
(0 0.000393899 0)
(0 0.00153243 0)
(0 0.00153254 0)
(0 0.000519792 0)
(0 0.000507038 0)
(0 0.000285668 0)
(0 0.000642869 0)
(0 0.00171017 0)
(0 0.000154224 0)
(0 0.000310559 0)
(0 6.083e-05 0)
(0 0.000961794 0)
(0 0.000432619 0)
(0 0.00147403 0)
(0 0.000472309 0)
(0 0.00171975 0)
(0 0.000156642 0)
(0 0.000439512 0)
(0 3.60664e-05 0)
(0 0.00103998 0)
(0 0.00174586 0)
(0 5.74209e-05 0)
(0 0.000286916 0)
(0 0.00104256 0)
(0 0.00143269 0)
(0 0.000574933 0)
(0 0.00144465 0)
(0 0.00138162 0)
(0 0.000451843 0)
(0 0.000601504 0)
(0 0.00146454 0)
(0 0.00168121 0)
(0 0.000639777 0)
(0 0.00061658 0)
(0 9.87818e-05 0)
(0 0.00165573 0)
(0 0.00144434 0)
(0 0.000626609 0)
(0 0.00170956 0)
(0 0.000151484 0)
(0 3.97756e-05 0)
(0 0.000866773 0)
(0 0.000785547 0)
(0 0.00067152 0)
(0 0.00155351 0)
(0 0.000599614 0)
(0 0.000304944 0)
(0 0.000735281 0)
(0 0.00168874 0)
(0 0.000561868 0)
(0 0.00157844 0)
(0 0.00040456 0)
(0 0.000565102 0)
(0 0.000543096 0)
(0 0.000702888 0)
(0 0.00170586 0)
(0 0.00078036 0)
(0 0.000568245 0)
(0 0.00171178 0)
(0 0.00150341 0)
(0 0.00104717 0)
(0 0.000768559 0)
(0 0.00116363 0)
(0 4.9307e-05 0)
(0 0.000623238 0)
(0 0.000719361 0)
(0 0.000384806 0)
(0 0.00137761 0)
(0 0.000827981 0)
(0 0.000660127 0)
(0 0.00113189 0)
(0 0.000550916 0)
(0 0.00103428 0)
(0 0.000258089 0)
(0 0.000836436 0)
(0 0.000910732 0)
(0 0.000232243 0)
(0 0.000559687 0)
(0 0.000326692 0)
(0 0.000148676 0)
(0 0.000731634 0)
(0 0.00170546 0)
(0 1.89858e-05 0)
(0 0.00166014 0)
(0 0.000609482 0)
(0 0.000478209 0)
(0 0.00131085 0)
(0 0.000521099 0)
(0 0.00152728 0)
(0 0.00152283 0)
(0 0.000129985 0)
(0 0.000382255 0)
(0 0.000181537 0)
(0 0.000394864 0)
(0 0.00100251 0)
(0 0.000737374 0)
(0 0.00136821 0)
(0 0.000750787 0)
(0 9.25071e-06 0)
(0 0.000817313 0)
(0 0.000480387 0)
(0 0.00102167 0)
(0 4.24148e-05 0)
(0 0.000333355 0)
(0 0.000822328 0)
(0 0.00159226 0)
(0 0.00089037 0)
(0 0.00153939 0)
(0 0.000335352 0)
(0 0.000343035 0)
(0 0.000474437 0)
(0 0.000499419 0)
(0 0.00109214 0)
(0 0.0010561 0)
(0 0.000703155 0)
(0 0.000150913 0)
(0 0.000235843 0)
(0 0.00049088 0)
(0 0.000989044 0)
(0 0.000606173 0)
(0 0.000835952 0)
(0 0.000225765 0)
(0 0.00104366 0)
(0 0.00155929 0)
(0 0.000471683 0)
(0 0.000630337 0)
(0 9.41749e-05 0)
(0 0.00149419 0)
(0 0.000241993 0)
(0 0.00108379 0)
(0 0.000231699 0)
(0 0.000659909 0)
(0 0.000503611 0)
(0 0.000117376 0)
(0 0.000701531 0)
(0 0.000262002 0)
(0 0.000215421 0)
(0 0.00115335 0)
(0 0.00122005 0)
(0 0.00107908 0)
(0 1.1497e-06 0)
(0 0.00108596 0)
(0 0.000146371 0)
(0 0.00133474 0)
(0 0.000427166 0)
(0 0.000752587 0)
(0 0.000178504 0)
(0 0.000755548 0)
(0 0.00066097 0)
(0 0.000801438 0)
(0 0.000815817 0)
(0 0.000490849 0)
(0 0.000191788 0)
(0 0.00137808 0)
(0 0.00174404 0)
(0 0.00104718 0)
(0 0.00033736 0)
(0 0.000182662 0)
(0 0.00118478 0)
(0 4.71096e-05 0)
(0 0.00159696 0)
(0 0.00164164 0)
(0 0.00173946 0)
(0 0.000639958 0)
(0 0.00162657 0)
(0 0.000323348 0)
(0 0.000679698 0)
(0 0.00167485 0)
(0 0.00133649 0)
(0 0.00136757 0)
(0 0.000275294 0)
(0 0.00052549 0)
(0 0.00157869 0)
(0 0.000887836 0)
(0 0.00065168 0)
(0 0.000518473 0)
(0 0.000541669 0)
(0 0.000123296 0)
(0 0.00168075 0)
(0 0.000435398 0)
(0 3.07585e-05 0)
(0 0.000320916 0)
(0 0.000735118 0)
(0 0.0011614 0)
(0 4.27141e-05 0)
(0 0.000402399 0)
(0 0.0014343 0)
(0 0.000173116 0)
(0 0.00157491 0)
(0 0.00116421 0)
(0 0.00101257 0)
(0 0.000971514 0)
(0 0.000582456 0)
(0 1.08062e-05 0)
(0 8.9955e-05 0)
(0 0.000975669 0)
(0 0.000633888 0)
(0 0.00168832 0)
(0 0.00112564 0)
(0 0.00138374 0)
(0 0.000428675 0)
(0 0.00107501 0)
(0 0.000942086 0)
(0 0.0015915 0)
(0 0.000905847 0)
(0 0.00118424 0)
(0 0.000102315 0)
(0 0.0009566 0)
(0 0.00162656 0)
(0 0.000467449 0)
(0 7.32157e-05 0)
(0 0.000982951 0)
(0 2.25154e-05 0)
(0 0.000191908 0)
(0 0.000328629 0)
(0 0.00149458 0)
(0 0.00098284 0)
(0 6.0083e-05 0)
(0 0.000928796 0)
(0 0.00161581 0)
(0 0.000888097 0)
(0 0.000141863 0)
(0 0.00118694 0)
(0 0.00106779 0)
(0 0.000855557 0)
(0 0.000329137 0)
(0 0.00125828 0)
(0 2.49109e-05 0)
(0 0.00140239 0)
(0 0.00134901 0)
(0 0.000287308 0)
(0 0.000218307 0)
(0 0.000305901 0)
(0 0.000577791 0)
(0 0.000159033 0)
(0 6.59669e-05 0)
(0 0.000537281 0)
(0 0.00175815 0)
(0 0.00143537 0)
(0 0.000424181 0)
(0 0.00104274 0)
(0 0.00106365 0)
(0 0.000486733 0)
(0 0.000333913 0)
(0 0.000653379 0)
(0 2.67529e-05 0)
(0 0.000422407 0)
(0 0.00049377 0)
(0 0.0013776 0)
(0 0.000433974 0)
(0 0.00173133 0)
(0 0.000269294 0)
(0 0.00131568 0)
(0 9.79246e-05 0)
(0 3.87999e-05 0)
(0 0.000387117 0)
(0 0.000616105 0)
(0 0.00121328 0)
(0 0.000355002 0)
(0 0.000113217 0)
(0 0.00153351 0)
(0 0.00124806 0)
(0 0.00103891 0)
(0 0.000555128 0)
(0 0.00103081 0)
(0 0.00103962 0)
(0 0.00105595 0)
(0 0.000580367 0)
(0 0.00107129 0)
(0 0.000863502 0)
(0 0.00108704 0)
(0 2.17967e-05 0)
(0 0.000823718 0)
(0 0.000289264 0)
(0 2.5249e-05 0)
(0 0.00163546 0)
(0 0.00134361 0)
(0 0.0015871 0)
(0 0.00141304 0)
(0 0.000428848 0)
(0 0.000614999 0)
(0 0.00116974 0)
(0 0.000961629 0)
(0 0.000332606 0)
(0 0.00084749 0)
(0 0.000632162 0)
(0 2.07037e-05 0)
(0 0.000378448 0)
(0 5.09414e-05 0)
(0 0.00128902 0)
(0 2.53286e-05 0)
(0 0.00175831 0)
(0 0.000436247 0)
(0 0.000738815 0)
(0 0.00164008 0)
(0 0.00100917 0)
(0 0.000297465 0)
(0 0.000777421 0)
(0 2.22365e-05 0)
(0 0.00100363 0)
(0 0.000543766 0)
(0 0.00113227 0)
(0 0.00136709 0)
(0 0.000877093 0)
(0 0.00117136 0)
(0 0.000951221 0)
(0 0.000499416 0)
(0 0.000903888 0)
(0 0.000318799 0)
(0 0.00146131 0)
(0 0.00134291 0)
(0 0.000770265 0)
(0 0.000199109 0)
(0 0.000501914 0)
(0 0.000591482 0)
(0 0.000307362 0)
(0 0.000859066 0)
(0 0.00117476 0)
(0 0.000440424 0)
(0 0.00108815 0)
(0 0.000184225 0)
(0 0.000495025 0)
(0 0.000650087 0)
(0 0.000131016 0)
(0 0.000476785 0)
(0 2.69789e-05 0)
(0 0.000258731 0)
(0 0.00103841 0)
(0 0.000565114 0)
(0 0.000188094 0)
(0 8.36523e-05 0)
(0 0.000750839 0)
(0 0.00105202 0)
(0 0.00059223 0)
(0 1.39917e-05 0)
(0 0.000668038 0)
(0 0.0011298 0)
(0 0.00162184 0)
(0 0.000922586 0)
(0 0.00121384 0)
(0 0.000165202 0)
(0 0.00171061 0)
(0 8.26743e-05 0)
(0 0.000494527 0)
(0 0.000252324 0)
(0 0.000701905 0)
(0 0.000620429 0)
(0 0.000327562 0)
(0 0.00139366 0)
(0 0.00170505 0)
(0 0.000529475 0)
(0 0.00174187 0)
(0 0.000528225 0)
(0 3.41538e-05 0)
(0 0.000378173 0)
(0 0.00170626 0)
(0 0.00111821 0)
(0 0.000477362 0)
(0 0.000296503 0)
(0 0.00160396 0)
(0 0.000991961 0)
(0 0.00151923 0)
(0 0.00123493 0)
(0 0.00157128 0)
(0 0.00165022 0)
(0 0.00146053 0)
(0 0.00103853 0)
(0 0.000947568 0)
(0 0.000262117 0)
(0 0.00104797 0)
(0 0.00161531 0)
(0 0.000598959 0)
(0 0.0005765 0)
(0 0.000119132 0)
(0 0.00151097 0)
(0 2.32771e-05 0)
(0 0.000650599 0)
(0 0.000618603 0)
(0 0.00113725 0)
(0 0.00122391 0)
(0 2.70293e-05 0)
(0 0.000835256 0)
(0 0.000573014 0)
(0 0.000452021 0)
(0 0.00141483 0)
(0 0.000834845 0)
(0 2.48493e-05 0)
(0 0.000578471 0)
(0 0.00102238 0)
(0 0.00126569 0)
(0 0.000708544 0)
(0 0.000321113 0)
(0 0.00067019 0)
(0 0.0006926 0)
(0 0.00160258 0)
(0 0.00136601 0)
(0 0.00124609 0)
(0 0.00136549 0)
(0 0.000637506 0)
(0 0.00031399 0)
(0 9.19927e-05 0)
(0 0.000327813 0)
(0 0.000750163 0)
(0 0.000233196 0)
(0 0.00126438 0)
(0 8.25994e-05 0)
(0 0.0015281 0)
(0 0.00111031 0)
(0 0.000972393 0)
(0 0.00146052 0)
(0 0.000110696 0)
(0 0.000162079 0)
(0 0.00158011 0)
(0 0.000136389 0)
(0 0.000122596 0)
(0 0.00147769 0)
(0 0.000332574 0)
(0 0.00130055 0)
(0 0.00050363 0)
(0 0.00100856 0)
(0 0.000416855 0)
(0 0.0011132 0)
(0 0.00133335 0)
(0 0.000776693 0)
(0 0.000215846 0)
(0 0.000205487 0)
(0 0.00063627 0)
(0 0.000890448 0)
(0 0.000304744 0)
(0 0.000669068 0)
(0 0.000707756 0)
(0 2.76032e-05 0)
(0 0.000934802 0)
(0 0.00019161 0)
(0 0.000721122 0)
(0 0.000510287 0)
(0 0.00154446 0)
(0 0.000349972 0)
(0 0.000190014 0)
(0 0.000320551 0)
(0 0.00170151 0)
(0 0.000101214 0)
(0 0.00019085 0)
(0 0.000145124 0)
(0 3.54284e-05 0)
(0 0.00053563 0)
(0 0.00176445 0)
(0 0.0017023 0)
(0 0.000627266 0)
(0 0.000358396 0)
(0 0.00166453 0)
(0 0.00116798 0)
(0 9.09047e-05 0)
(0 0.000341574 0)
(0 0.000914853 0)
(0 0.00152819 0)
(0 0.000462064 0)
(0 0.000169028 0)
(0 0.000452607 0)
(0 0.000731903 0)
(0 0.00114142 0)
(0 0.00145695 0)
(0 0.00114406 0)
(0 0.00127653 0)
(0 0.00154011 0)
(0 0.00138753 0)
(0 0.000493347 0)
(0 0.000901908 0)
(0 0.000322408 0)
(0 0.000314029 0)
(0 0.00149857 0)
(0 0.00028715 0)
(0 0.000695565 0)
(0 0.00110453 0)
(0 0.00142502 0)
(0 0.00154153 0)
(0 0.00132256 0)
(0 0.000368956 0)
(0 0.000304564 0)
(0 0.00119844 0)
(0 0.00133105 0)
(0 0.00132541 0)
(0 0.00118677 0)
(0 5.48924e-05 0)
(0 0.000309812 0)
(0 0.00112968 0)
(0 0.000652978 0)
(0 0.000168988 0)
(0 0.00106345 0)
(0 0.000909472 0)
(0 0.000945204 0)
(0 0.000406756 0)
(0 0.00123803 0)
(0 0.000118756 0)
(0 0.0010533 0)
(0 0.00140616 0)
(0 0.000727148 0)
(0 9.30454e-05 0)
(0 0.000624527 0)
(0 0.00156283 0)
(0 0.000859823 0)
(0 0.000495015 0)
(0 0.000361616 0)
(0 0.00118767 0)
(0 0.000917198 0)
(0 0.00134744 0)
(0 0.00110597 0)
(0 1.96147e-05 0)
(0 0.00108706 0)
(0 0.000991113 0)
(0 0.00119748 0)
(0 0.00167077 0)
(0 0.000633657 0)
(0 0.001094 0)
(0 0.000503163 0)
(0 0.000433329 0)
(0 0.00152257 0)
(0 0.00164617 0)
(0 0.000621631 0)
(0 0.000738317 0)
(0 0.00133394 0)
(0 0.00166604 0)
(0 0.00060192 0)
(0 0.00025559 0)
(0 0.000415455 0)
(0 0.00157685 0)
(0 0.000889209 0)
(0 0.000948343 0)
(0 0.00139222 0)
(0 0.000394897 0)
(0 0.000454357 0)
(0 0.000529972 0)
(0 0.00143801 0)
(0 0.000544711 0)
(0 0.00167129 0)
(0 0.000546358 0)
(0 0.000859379 0)
(0 0.000395371 0)
(0 0.000605183 0)
(0 0.000981451 0)
(0 0.000816542 0)
(0 0.000397344 0)
(0 2.62878e-05 0)
(0 0.000883257 0)
(0 0.00151143 0)
(0 0.00134008 0)
(0 0.00111236 0)
(0 0.000604676 0)
(0 0.00084826 0)
(0 0.000516202 0)
(0 0.00109662 0)
(0 0.0013692 0)
(0 0.000477365 0)
(0 0.000649259 0)
(0 0.000918569 0)
(0 0.00104579 0)
(0 0.00114175 0)
(0 0.00121405 0)
(0 0.00143477 0)
(0 9.9238e-05 0)
(0 0.00128974 0)
(0 0.00122824 0)
(0 0.00135191 0)
(0 0.00173231 0)
(0 0.0010623 0)
(0 0.00070155 0)
(0 0.000254676 0)
(0 0.000423043 0)
(0 0.00116034 0)
(0 0.000235664 0)
(0 0.000648433 0)
(0 5.08936e-05 0)
(0 0.00144317 0)
(0 0.00100242 0)
(0 0.000778019 0)
(0 0.00151254 0)
(0 0.000610646 0)
(0 0.00117116 0)
(0 0.00123227 0)
(0 0.00044474 0)
(0 0.0014937 0)
(0 0.000396102 0)
(0 0.000342776 0)
(0 0.00047693 0)
(0 0.000166654 0)
(0 0.000846477 0)
(0 0.000296644 0)
(0 0.000766744 0)
(0 0.000775214 0)
(0 0.00171696 0)
(0 0.000868796 0)
(0 0.000708168 0)
(0 0.000164505 0)
(0 0.000660444 0)
(0 0.00129439 0)
(0 0.000589676 0)
(0 0.00172245 0)
(0 0.000223567 0)
(0 0.000304836 0)
(0 0.000508728 0)
(0 0.000291269 0)
(0 0.000984816 0)
(0 0.000927854 0)
(0 0.00169704 0)
(0 0.00135876 0)
(0 0.00120471 0)
(0 0.0017489 0)
(0 0.000372488 0)
(0 0.00084253 0)
(0 0.00100553 0)
(0 0.000693775 0)
(0 2.57645e-05 0)
(0 0.000595846 0)
(0 0.000114416 0)
(0 0.000629223 0)
(0 0.00136151 0)
(0 0.00104353 0)
(0 0.000608734 0)
(0 0.00148124 0)
(0 0.00100431 0)
(0 0.000108996 0)
(0 0.00100061 0)
(0 0.000469412 0)
(0 0.000312662 0)
(0 0.000982533 0)
(0 0.00123427 0)
(0 0.000674354 0)
(0 0.000224454 0)
(0 0.000998583 0)
(0 0.000110759 0)
(0 0.000654069 0)
(0 0.00169407 0)
(0 0.000428644 0)
(0 0.000878316 0)
(0 2.96871e-05 0)
(0 0.000985018 0)
(0 0.00149126 0)
(0 0.000616359 0)
(0 0.00166884 0)
(0 0.000164605 0)
(0 0.000636673 0)
(0 0.000531154 0)
(0 0.00108303 0)
(0 0.000572762 0)
(0 0.00089528 0)
(0 0.000592869 0)
(0 0.000495023 0)
(0 5.12993e-05 0)
(0 4.60856e-05 0)
(0 0.000925624 0)
(0 0.000214698 0)
(0 0.000924448 0)
(0 0.000594751 0)
(0 0.000797919 0)
(0 0.000298982 0)
(0 0.00112057 0)
(0 0.000932795 0)
(0 0.00167653 0)
(0 0.000417825 0)
(0 0.00165316 0)
(0 9.56158e-05 0)
(0 0.00102442 0)
(0 0.00136634 0)
(0 0.00141158 0)
(0 0.000262002 0)
(0 0.00173543 0)
(0 0.000547331 0)
(0 0.000566091 0)
(0 0.000578156 0)
(0 0.00115189 0)
(0 0.00052324 0)
(0 0.00155491 0)
(0 0.0013718 0)
(0 0.000550597 0)
(0 0.00117841 0)
(0 0.00154045 0)
(0 0.000975777 0)
(0 0.00151168 0)
(0 0.000284572 0)
(0 0.000927443 0)
(0 0.00165229 0)
(0 0.000268407 0)
(0 0.00052715 0)
(0 0.000956467 0)
(0 0.000862754 0)
(0 1.27885e-05 0)
(0 0.000570605 0)
(0 0.000482109 0)
(0 0.000240404 0)
(0 0.0017376 0)
(0 0.000442332 0)
(0 0.000854949 0)
(0 0.000699553 0)
(0 0.00111312 0)
(0 0.000461242 0)
(0 0.00111799 0)
(0 0.00135163 0)
(0 0.00071702 0)
(0 0.00152616 0)
(0 0.000403346 0)
(0 0.00080658 0)
(0 0.000936797 0)
(0 0.00166437 0)
(0 0.000940823 0)
(0 0.000738618 0)
(0 0.000688727 0)
(0 0.000830649 0)
(0 0.00100837 0)
(0 0.000590213 0)
(0 0.00155958 0)
(0 0.000735988 0)
(0 0.000920531 0)
(0 0.00115616 0)
(0 0.00147742 0)
(0 0.00123456 0)
(0 0.00142618 0)
(0 8.39025e-05 0)
(0 0.00033558 0)
(0 0.00154848 0)
(0 0.0010519 0)
(0 0.00167885 0)
(0 0.000656499 0)
(0 0.000418307 0)
(0 0.000454781 0)
(0 0.000619131 0)
(0 0.00151024 0)
(0 0.000104179 0)
(0 0.000421616 0)
(0 0.00143717 0)
(0 0.000861505 0)
(0 0.000963959 0)
(0 0.000243031 0)
(0 0.000647111 0)
(0 0.000107677 0)
(0 0.000965117 0)
(0 0.00130818 0)
(0 0.000249712 0)
(0 0.00154501 0)
(0 0.00084541 0)
(0 0.000442772 0)
(0 0.0009467 0)
(0 0.00119584 0)
(0 0.00141547 0)
(0 0.000123196 0)
(0 0.000562484 0)
(0 0.000353868 0)
(0 0.000718054 0)
(0 0.000948782 0)
(0 0.000302201 0)
(0 0.000458657 0)
(0 0.00092753 0)
(0 0.00106758 0)
(0 0.000618854 0)
(0 0.00152585 0)
(0 6.34844e-05 0)
(0 0.0010689 0)
(0 0.00151693 0)
(0 0.00137734 0)
(0 6.57873e-05 0)
(0 0.00023307 0)
(0 0.00141174 0)
(0 0.000702431 0)
(0 0.000746827 0)
(0 0.000516771 0)
(0 0.000543465 0)
(0 0.000653198 0)
(0 0.000247312 0)
(0 0.00161025 0)
(0 7.08011e-05 0)
(0 0.00116594 0)
(0 0.00063048 0)
(0 0.000857227 0)
(0 0.000897877 0)
(0 0.000831063 0)
(0 0.000561683 0)
(0 0.000501824 0)
(0 0.00066376 0)
(0 0.00115626 0)
(0 0.000432765 0)
(0 5.03083e-05 0)
(0 0.000212918 0)
(0 0.0003202 0)
(0 0.000441138 0)
(0 0.00101104 0)
(0 0.000426903 0)
(0 0.000692959 0)
(0 0.000610829 0)
(0 0.000449707 0)
(0 0.000500314 0)
(0 7.32461e-05 0)
(0 0.00156653 0)
(0 0.000299848 0)
(0 0.00154852 0)
(0 0.000674297 0)
(0 0.000400085 0)
(0 0.000907952 0)
(0 0.000431288 0)
(0 0.000677308 0)
(0 0.00046363 0)
(0 0.00118152 0)
(0 0.00120454 0)
(0 0.000649593 0)
(0 0.00173703 0)
(0 0.000267836 0)
(0 0.00141859 0)
(0 0.000166217 0)
(0 0.00116652 0)
(0 0.000281617 0)
(0 0.00116786 0)
(0 0.000670287 0)
(0 1.7727e-05 0)
(0 0.000985455 0)
(0 0.000832262 0)
(0 0.000723253 0)
(0 0.00152293 0)
(0 0.000294166 0)
(0 0.000673283 0)
(0 0.00163267 0)
(0 0.000117399 0)
(0 0.000170927 0)
(0 0.000435434 0)
(0 0.00144524 0)
(0 0.00123826 0)
(0 0.000760084 0)
(0 0.00050625 0)
(0 0.00112901 0)
(0 0.000628589 0)
(0 0.000571306 0)
(0 0.000211216 0)
(0 0.00091391 0)
(0 0.000285635 0)
(0 0.00134677 0)
(0 0.00164639 0)
(0 0.000478765 0)
(0 0.000422655 0)
(0 0.000395903 0)
(0 0.000438557 0)
(0 0.000635979 0)
(0 0.00110047 0)
(0 0.000289802 0)
(0 0.000344768 0)
(0 0.00082581 0)
(0 0.000673823 0)
(0 0.000505705 0)
(0 0.000704807 0)
(0 0.000382893 0)
(0 0.000468728 0)
(0 0.00148856 0)
(0 0.000956513 0)
(0 0.0014629 0)
(0 0.000460162 0)
(0 0.000948187 0)
(0 0.000236989 0)
(0 0.000444518 0)
(0 0.000867604 0)
(0 0.000656241 0)
(0 0.000399345 0)
(0 0.000886007 0)
(0 0.00151464 0)
(0 0.00126816 0)
(0 0.000577851 0)
(0 0.00111395 0)
(0 0.000187451 0)
(0 0.00034318 0)
(0 0.000543528 0)
(0 0.00119464 0)
(0 0.000292866 0)
(0 0.0010765 0)
(0 0.000521233 0)
(0 4.46429e-05 0)
(0 0.000792114 0)
(0 0.000845527 0)
(0 0.00061196 0)
(0 0.00151904 0)
(0 0.00114074 0)
(0 0.00173204 0)
(0 0.000363651 0)
(0 0.000240395 0)
(0 0.0006638 0)
(0 0.000401971 0)
(0 0.000656802 0)
(0 0.000530622 0)
(0 0.000614905 0)
(0 9.47266e-05 0)
(0 0.000283219 0)
(0 0.000757209 0)
(0 0.000376165 0)
(0 0.000804641 0)
(0 0.000917232 0)
(0 0.000990837 0)
(0 0.000475661 0)
(0 0.000974182 0)
(0 0.000365756 0)
(0 0.000237201 0)
(0 4.75715e-05 0)
(0 0.000596946 0)
(0 0.00062813 0)
(0 0.000386764 0)
(0 0.00139929 0)
(0 0.000924642 0)
(0 0.000462321 0)
(0 0.000522499 0)
(0 0.00117365 0)
(0 4.10796e-05 0)
(0 0.000464097 0)
(0 0.00123588 0)
(0 0.000864476 0)
(0 0.00166954 0)
(0 0.000836965 0)
(0 0.000318318 0)
(0 7.81581e-05 0)
(0 0.00142474 0)
(0 0.00155138 0)
(0 0.000799419 0)
(0 0.00113811 0)
(0 0.00121246 0)
(0 0.00089891 0)
(0 0.000991975 0)
(0 0.000611846 0)
(0 0.00100837 0)
(0 0.00150155 0)
(0 0.000627612 0)
(0 0.000301812 0)
(0 0.000476073 0)
(0 0.000367209 0)
(0 0.000538729 0)
(0 0.000407983 0)
(0 0.000857436 0)
(0 0.00033404 0)
(0 0.00067456 0)
(0 0.000878557 0)
(0 0.000587269 0)
(0 0.000523824 0)
(0 0.000661927 0)
(0 0.000417131 0)
(0 0.000660456 0)
(0 0.0015672 0)
(0 0.000204666 0)
(0 0.000683291 0)
(0 0.000561831 0)
(0 0.000689671 0)
(0 0.000347147 0)
(0 1.5716e-05 0)
(0 0.00151299 0)
(0 0.000312749 0)
(0 0.000218225 0)
(0 0.000311141 0)
(0 0.000394481 0)
(0 0.00082612 0)
(0 0.000239124 0)
(0 0.000986953 0)
(0 0.000505633 0)
(0 0.000740388 0)
(0 0.000125304 0)
(0 0.00145965 0)
(0 0.0003524 0)
(0 0.00026539 0)
(0 0.000444956 0)
(0 0.000577257 0)
(0 0.000445705 0)
(0 0.000464423 0)
(0 0.000380713 0)
(0 0.00057696 0)
(0 0.00145888 0)
(0 0.000204614 0)
(0 0.0010146 0)
(0 5.02743e-05 0)
(0 0.000547462 0)
(0 0.00128885 0)
(0 0.000461136 0)
(0 0.000363838 0)
(0 0.000856371 0)
(0 0.00149899 0)
(0 0.000680839 0)
(0 0.000359986 0)
(0 0.0015404 0)
(0 0.000427779 0)
(0 7.36458e-05 0)
(0 0.00167424 0)
(0 0.000176089 0)
(0 0.000884081 0)
(0 0.000125433 0)
(0 0.000176757 0)
(0 0.000442176 0)
(0 0.000460529 0)
(0 0.000113245 0)
(0 0.000647671 0)
(0 0.00153535 0)
(0 0.00112787 0)
(0 0.000709035 0)
(0 0.000310815 0)
(0 0.000314431 0)
(0 0.00144515 0)
(0 0.000361535 0)
(0 0.000645414 0)
(0 0.00147706 0)
(0 0.000603889 0)
(0 0.000450667 0)
(0 0.000354958 0)
(0 0.000173642 0)
(0 0.00145639 0)
(0 0.00103327 0)
(0 0.000334387 0)
(0 0.00150174 0)
(0 0.00126723 0)
(0 0.000499864 0)
(0 0.00144042 0)
(0 0.00137982 0)
(0 0.00126218 0)
(0 2.51866e-05 0)
(0 1.86235e-05 0)
(0 0.000750811 0)
(0 0.000830279 0)
(0 0.00109725 0)
(0 0.000553652 0)
(0 0.000397622 0)
(0 0.000583738 0)
(0 0.000482072 0)
(0 0.000429718 0)
(0 0.000519131 0)
(0 0.00152667 0)
(0 0.000427386 0)
(0 0.000479962 0)
(0 0.00154143 0)
(0 0.00158422 0)
(0 0.00102351 0)
(0 0.00145937 0)
(0 0.000360463 0)
(0 0.001524 0)
(0 0.000889022 0)
(0 0.000473134 0)
(0 0.000735544 0)
(0 0.000492519 0)
(0 0.00119265 0)
(0 0.00101413 0)
(0 0.000678404 0)
(0 0.000257675 0)
(0 0.000952854 0)
(0 9.65545e-05 0)
(0 0.000782436 0)
(0 0.00157623 0)
(0 0.000331384 0)
(0 0.00146898 0)
(0 0.000510268 0)
(0 2.19495e-05 0)
(0 0.000425637 0)
(0 0.00156014 0)
(0 0.000464792 0)
(0 0.000227506 0)
(0 0.000583824 0)
(0 0.000448864 0)
(0 0.00103806 0)
(0 2.6981e-05 0)
(0 0.000452061 0)
(0 0.000492482 0)
(0 0.00114641 0)
(0 0.00138326 0)
(0 0.00160178 0)
(0 2.29416e-05 0)
(0 0.000622162 0)
(0 3.97127e-05 0)
(0 0.000656383 0)
(0 0.000533213 0)
(0 0.000411384 0)
(0 0.00104465 0)
(0 2.08217e-05 0)
(0 0.000656742 0)
(0 0.000420586 0)
(0 0.000579249 0)
(0 0.000475855 0)
(0 0.000546952 0)
(0 0.000468959 0)
(0 0.00118762 0)
(0 0.000692201 0)
(0 0.000493701 0)
(0 0.000485475 0)
(0 0.00120715 0)
(0 9.71399e-05 0)
(0 0.000715209 0)
(0 0.000609443 0)
(0 0.000590285 0)
(0 0.000862975 0)
(0 0.000431421 0)
(0 0.00143281 0)
(0 0.000253906 0)
(0 0.000569847 0)
(0 0.000557169 0)
(0 3.56195e-05 0)
(0 0.000836535 0)
(0 9.89782e-05 0)
(0 0.00062676 0)
(0 0.000524223 0)
(0 0.000501114 0)
(0 0.000396281 0)
(0 0.000545698 0)
(0 0.000400143 0)
(0 0.00106281 0)
(0 0.000555865 0)
(0 0.0011519 0)
(0 0.00121388 0)
(0 0.00142463 0)
(0 0.000555421 0)
(0 0.000610985 0)
(0 0.000392304 0)
(0 0.000639434 0)
(0 0.000544938 0)
(0 0.000122572 0)
(0 0.000967655 0)
(0 0.000475444 0)
(0 0.000864935 0)
(0 0.00057492 0)
(0 0.000121993 0)
(0 0.00126466 0)
(0 0.000114895 0)
(0 0.000493445 0)
(0 0.000416181 0)
(0 0.000584771 0)
(0 0.000404777 0)
(0 0.000392453 0)
(0 0.000633375 0)
(0 0.000413574 0)
(0 0.000563975 0)
(0 0.00124172 0)
(0 0.000943582 0)
(0 0.000620134 0)
(0 0.000350254 0)
(0 0.00063655 0)
(0 4.99522e-05 0)
(0 0.000561945 0)
(0 0.00055952 0)
(0 0.00139504 0)
(0 0.000999616 0)
(0 0.000958773 0)
(0 0.000174953 0)
(0 0.000517169 0)
(0 0.00120826 0)
(0 2.55562e-05 0)
(0 0.000329679 0)
(0 0.000315057 0)
(0 0.00128191 0)
(0 0.000434945 0)
(0 0.000630892 0)
(0 0.000634922 0)
(0 0.000420121 0)
(0 0.0012098 0)
(0 0.00109934 0)
(0 0.00040909 0)
(0 0.000346823 0)
(0 3.75988e-05 0)
(0 0.00140457 0)
(0 0.00143136 0)
(0 0.000435805 0)
(0 0.000720985 0)
(0 0.000367361 0)
(0 0.000368985 0)
(0 0.000474668 0)
(0 0.000343533 0)
(0 0.000496852 0)
(0 0.000538889 0)
(0 0.000353561 0)
(0 0.0015727 0)
(0 0.000602387 0)
(0 0.000542019 0)
(0 0.000472623 0)
(0 0.000331633 0)
(0 0.000447664 0)
(0 0.000710652 0)
(0 0.00118482 0)
(0 0.000670123 0)
(0 0.000434535 0)
(0 0.000470443 0)
(0 0.000333752 0)
(0 0.000819132 0)
(0 0.000556816 0)
(0 0.00129982 0)
(0 0.000457775 0)
(0 0.000498486 0)
(0 0.000408189 0)
(0 0.0015009 0)
(0 0.000281691 0)
(0 0.000644382 0)
(0 0.000316797 0)
(0 0.000412233 0)
(0 0.000394219 0)
(0 9.13112e-05 0)
(0 0.000696356 0)
(0 0.00145549 0)
(0 0.00139772 0)
(0 0.000323248 0)
(0 0.000946673 0)