/*--------------------------------*- C++ -*----------------------------------*\
| =========                 |                                                 |
| \\      /  F ield         | OpenFOAM: The Open Source CFD Toolbox           |
|  \\    /   O peration     | Version:  v2012                                 |
|   \\  /    A nd           | Website:  www.openfoam.com                      |
|    \\/     M anipulation  |                                                 |
\*---------------------------------------------------------------------------*/
FoamFile
{
    version     2.0;
    format      ascii;
    class       surfaceScalarField;
    location    "950";
    object      meshPhi;
}
// * * * * * * * * * * * * * * * * * * * * * * * * * * * * * * * * * * * * * //

dimensions      [0 3 -1 0 0 0 0];
oriented        oriented;


internalField   nonuniform List<scalar> 
14885
(
0.000211931
0.000604646
-0.000825317
0.00509836
-0.00273307
-0.00236958
0.000409486
-0.00389787
0.00346923
0.00173216
-0.00249502
0.000601639
-8.08693e-05
0.000684751
-0.000763052
-0.00473628
0.00102668
0.00370595
-0.00066068
-0.0025554
0.00320963
0.0013387
-0.00158083
0.000241249
0.000893972
-0.000612872
-0.000315298
0.00419019
-0.00164611
-0.00255093
-0.000280347
-0.00120616
0.00147529
0.0024791
0.00261552
0.000479594
-0.00308021
0.00259613
-0.000817626
0.00199573
-0.00121863
0.00393842
-0.00122539
-0.00275204
-0.0020089
0.00114954
0.0036587
-0.00338073
-0.000285025
0.00113796
-0.00142911
0.0033926
-0.000714989
-0.00268606
0.00509998
-0.00136932
-0.00375875
0.00299495
-0.00251969
-0.000628173
0.000831157
0.00222764
-0.000654499
-0.000241002
0.00239466
-0.00215373
-0.00367577
0.00080221
0.00276483
3.43289e-05
-8.54789e-06
-4.00008e-05
0.00362997
0.000550827
0.000510096
-0.000546694
4.57034e-06
-0.000656601
-0.00408708
0.000637492
0.00143864
-0.00207616
-0.000521673
0.000214447
0.000178098
0.00270878
-0.000435991
-0.00227338
0.000820325
-0.000235064
-0.000617722
0.000261347
0.000528691
0.00154887
-0.000211848
0.00154647
-0.00138424
-0.000163508
0.000627421
-0.000143363
-0.000726318
-0.000826376
8.93445e-05
0.000691032
-0.000401733
-0.00023724
-5.77944e-05
5.96931e-05
-2.33678e-06
-0.00210273
0.00274033
0.000625244
-0.00257756
0.00308848
-0.000514551
-0.00521924
0.00467491
0.000535143
-0.00288025
0.000422381
0.00233827
-0.00109514
-0.00266422
-0.000254116
-1.67459e-05
0.000253126
0.00345261
0.000434524
0.000360949
-0.00299554
0.0026297
0.00313856
-0.0033007
0.000158279
-0.00283349
0.00025107
-5.0459e-05
0.00134244
-0.0014554
0.00299728
0.000363933
0.00301942
-0.00407527
0.00379096
0.000278997
-0.00285607
0.00264651
0.000206359
0.000430612
0.00255887
0.00188878
-0.000613312
-0.00128503
0.00393802
-0.00347301
-0.000503971
-2.48373e-05
2.24149e-05
9.73473e-07
0.00338278
-0.00302745
0.00407746
-0.00378895
-0.000294696
0.00275491
0.000330106
0.00123345
-0.00143647
0.000200581
0.0029427
-0.000422853
-0.00254072
0.00466109
-0.00133874
-0.00338713
0.0048471
-0.00165798
-0.00321355
0.00072881
-0.000916415
0.000180575
7.16859e-05
0.000149762
-0.000235541
0.000857699
-0.000135885
0.00277019
-0.00287636
0.000102531
-0.000327242
-0.00363215
0.00393049
-0.000195749
-0.0010479
0.00120244
0.000708029
0.00318644
0.00360327
0.000980402
-6.67658e-05
-0.00133065
0.00291322
-0.00160195
-0.00027881
6.27275e-06
0.00144055
-0.00279077
0.00231499
-0.00303765
-0.00464603
-0.000582699
-0.00234394
0.000108126
-0.000369878
7.74943e-05
0.0012879
-0.000179159
-0.00126526
0.0049517
-0.00195768
-0.00300601
-0.00326456
0.00338372
-0.000124816
0.00356425
0.00125791
0.00382734
-0.00343691
-0.00286948
0.00292407
-0.000115534
-0.00101168
-0.00229427
0.00328067
0.00367529
-0.00249303
-0.00118738
0.00203199
-0.0032917
0.00279837
-4.7428e-05
0.000366737
-0.00363677
0.00271749
-0.000308706
-0.00242844
0.00331561
-0.00382177
0.000439445
0.00184514
-0.0018047
0.0034175
0.00265366
-0.00310677
0.000450678
-0.0036899
0.00041214
0.00323267
0.00269623
0.000973223
0.00365167
-0.00395439
0.000296232
-0.0012395
-0.00309292
0.00429193
-0.00208799
0.00283945
0.00334565
-0.000352262
-0.00300139
-0.00383557
0.00379412
2.12911e-07
0.000942548
-0.00253027
0.00158633
0.00438866
-0.000861829
0.00242934
-0.0030959
0.000351181
-0.00422916
0.00388188
-0.004677
0.000737251
-0.000858366
0.003282
0.00403449
-0.000391286
0.00145666
-0.000226666
0.000390238
0.0025295
2.89379e-05
0.000264931
-0.000309759
-0.0013126
0.00341534
-0.00212198
0.000372557
-8.57565e-05
-0.000429251
0.000476112
0.0013976
-4.03683e-05
0.000289052
-0.000263969
-2.66512e-05
-2.48928e-07
0.00474644
-0.00249722
-0.00225381
0.00335395
0.00138679
-0.000708007
-0.00228741
0.00153045
-0.00256172
-0.00279029
0.00300901
-0.000283643
-0.00319048
0.000351313
-0.000278499
-0.00380208
0.00235408
-0.00219187
-0.000163334
-0.00355127
0.00221776
-0.000952808
0.000960608
-4.96605e-05
0.00408754
-0.00295121
-0.00120059
-0.000335033
0.00295352
-0.00267155
-0.0026987
0.00445029
-0.00182307
0.00199312
-0.00285622
0.000205522
-0.00284253
0.00263233
0.00460191
-0.00108739
-0.00353923
0.00157963
0.00189285
0.00408376
-0.00365497
-0.000446633
0.00330928
-0.000661181
0.000345732
-0.0028828
0.00253354
0.00025505
-3.05584e-05
-0.000264038
0.0030919
-0.00215155
1.83796e-05
0.000454759
-0.00255884
0.00388286
-0.0013365
-0.000154547
-0.000712474
0.0021225
0.00281747
0.000278128
-0.000224856
0.00418955
-0.00013724
-0.0040824
-0.000803292
0.00299306
-0.00219297
0.00317609
0.00114965
0.000203925
-0.000211283
-3.5784e-05
-0.00392098
0.00330031
0.000606688
0.00270995
-0.00296089
0.000248677
0.000347549
0.00234825
0.000867579
-0.00344093
0.00217948
0.000172919
-0.00227207
-0.000587356
-0.00286943
0.00248447
4.81201e-06
1.94671e-05
-0.000712373
0.000290589
0.00024871
-5.39347e-05
-2.8507e-06
0.00283167
-0.00263085
7.84256e-05
0.000400767
-0.00371869
0.00329628
0.00319416
-0.0040017
0.00117488
-0.00141866
-0.00283134
0.000742984
0.000135104
0.0014119
-0.000692475
0.000289026
0.000381295
0.00263258
-0.000337433
-0.00231506
-0.00136851
0.00280696
-0.00356973
-0.000788429
0.00435146
-0.000459971
-0.00285529
0.00321041
-0.00433946
0.00076109
-0.000997928
-0.00162111
0.00253807
-0.000988647
0.000785232
0.00111742
0.00289055
-0.000134133
0.000271224
0.00361017
0.000453454
0.00410246
-0.00166628
-0.0024435
-0.00302244
2.22861e-05
-0.000254581
0.000216476
7.29734e-05
-2.2189e-05
-5.24415e-05
0.00189448
0.00097038
-0.00286774
0.00325891
-0.0036124
8.04453e-06
-2.13181e-05
1.19754e-05
0.00260315
-0.000105426
-0.00250036
0.000443959
-0.000445483
-8.97598e-05
0.000774412
-0.00265586
0.00308086
-0.000982188
-1.10399e-05
0.000900033
0.00319344
-0.00389439
0.00409717
-0.000207798
0.00343242
-0.00142933
0.00129105
-0.00226406
0.000972859
0.00260398
-0.000320283
-0.00230316
-0.00192657
0.00179608
0.000129673
0.00116076
-4.44613e-06
0.00200828
-0.00233542
0.000326456
-0.00288891
0.00282049
6.42767e-05
-0.00415845
0.000723261
0.00342317
-0.000174564
0.00016179
-1.0023e-05
-0.00264885
-0.000461277
0.000239827
0.00266009
-0.000173378
-0.00203648
0.00220783
0.0029249
-0.000219141
0.00379789
2.64854e-05
-0.003409
0.000658621
-0.000122658
-0.000218382
2.16804e-05
-0.00377406
-0.000397919
-0.00421374
0.00393074
0.000267569
0.000329804
-0.000973857
0.000398844
-0.000666964
-0.000184605
0.000844098
-1.09136e-05
0.000133647
-0.000145613
-0.000655207
0.00415939
-0.0035124
0.000860523
-3.19274e-05
-0.0010118
-0.00018514
-0.0020025
-0.000153947
0.0021546
0.000299411
0.00231246
-0.00215564
0.000151245
0.000185347
-0.00127184
-0.00133028
-9.41326e-05
-0.000364854
-0.0036281
0.00395334
0.00132451
0.00325267
0.000535368
-0.00403775
0.00349135
0.00190895
-0.00317881
-0.00017195
-0.000861198
-0.00199254
-0.00124495
0.00296977
-0.00107837
3.63017e-05
0.000219766
0.00154007
-0.00261918
-0.00144497
0.00503804
-0.00175
-0.00331786
0.00195824
-0.000114849
0.00342275
0.000448462
0.00218276
0.000210532
-0.000361743
0.00387552
-0.0035249
0.00273336
-0.000340206
-0.00239633
-2.8532e-05
7.08866e-07
-4.74728e-05
-8.51137e-06
0.00346925
0.000222339
-0.00369687
0.000630156
-0.000869989
0.000391186
0.00233785
0.00365531
-0.000247459
-0.00218641
-0.00174409
0.00057084
-1.66481e-05
-0.000326551
0.00366386
-0.000974091
-4.39861e-05
0.00472276
-0.00227062
-0.00246469
0.0010952
0.00218204
-0.00328264
0.00371125
0.000439406
0.00138247
0.00362478
4.57249e-05
0.000318303
0.00449862
-0.00362867
-0.000906428
-0.00107325
-0.000732357
4.11098e-05
-0.00128221
0.00107232
0.000576639
-0.00289308
-6.36512e-05
-0.00086173
0.000882187
-0.00135868
0.00115714
0.000274507
-0.000309441
-0.000159279
-0.00333082
0.00441868
-0.00237519
0.00292906
0.00200699
0.00270282
1.2243e-05
7.19905e-05
-0.000206338
0.000630675
-0.00266894
-0.000579723
0.00273502
-0.00224062
0.00292596
0.000207803
-0.00219875
0.00214009
1.20204e-05
-0.00273332
-0.0001456
0.000981998
0.00347737
0.00177646
-0.000477615
-0.00131437
0.00376014
-0.00123021
-0.00254623
0.00265681
-0.000322378
-0.00243684
-0.000180306
7.66907e-05
-0.000397617
-0.000343186
-0.000227192
0.000310929
-0.00293027
0.00261306
0.00209763
-0.000807136
0.000476785
0.00326319
-0.000529364
0.000136762
0.000127718
0.00195335
5.40461e-05
-0.00200817
0.00132556
0.00235578
-0.00370228
0.000412241
3.51013e-05
-0.000465226
9.41672e-05
-0.000741654
0.00064077
9.66597e-06
0.0001554
0.00308364
-0.00268214
-0.000407932
-0.000164872
0.00309729
-0.00295357
0.000140039
-0.000512596
0.00011678
0.00198621
-0.00286114
0.000874156
-0.00281784
0.000959007
-0.00186868
0.000876417
-0.00398468
-0.000226254
0.00420041
0.00517865
-0.00388312
0.00208364
-0.00274535
0.00012941
-0.000162993
-0.000371313
-0.0035025
1.15271e-05
-4.37432e-06
-0.00372418
0.00335184
-0.00179653
0.00310359
0.00163059
0.00244198
0.00227006
-0.00249648
0.000176914
1.0199e-06
-4.92545e-05
-0.00381977
-0.000173001
0.00282324
-0.000836067
0.00040419
1.99916e-05
-0.00155352
-0.00228035
0.00376397
-0.000537164
0.00377407
-0.000739516
0.00166911
0.00284394
-0.00302986
0.000708839
-0.000621352
2.35077e-05
0.000237734
4.68776e-05
2.62266e-05
-0.00243063
0.000203849
0.00222431
-0.000254343
0.000267903
-5.56904e-05
-2.94045e-05
5.51919e-05
-0.00271191
-2.44721e-05
0.000463618
0.00129625
0.00105593
-0.00012753
-0.00093322
0.000110524
-9.87149e-05
-1.23303e-05
-0.000364768
0.000458896
-0.00229152
0.000242749
0.00202613
0.00367813
-0.00262976
0.00339885
0.00040568
0.00267082
-0.0026234
0.0028103
-0.00361886
0.00375281
-0.000200929
-0.000322153
0.000918509
-0.000176325
0.000226041
-0.000106732
0.0021518
-0.0023273
-0.000118555
-0.000629794
0.00337113
-0.00222519
-0.00114882
0.000894567
0.000155728
-0.000948977
-5.92165e-05
-0.000467836
0.0036582
0.00275325
-0.00241092
-0.000393763
0.00311555
-0.00272751
-2.77248e-05
-3.0736e-06
-0.00250982
0.000271144
0.00221383
0.000367735
-0.000317564
-0.000226617
-0.00101336
0.000795743
-0.00205048
0.00214122
-0.000143296
0.000441867
-0.00104348
0.00044192
0.000423932
-0.0036672
0.00321305
0.000293082
0.00296491
-0.00328314
0.00253056
-0.00285938
0.00344564
-0.00305043
-0.000615652
0.000755609
-0.000155624
1.61864e-05
-0.00381144
-0.000278705
-0.00203514
-0.00404789
0.0036433
-5.52897e-05
-0.000265987
-0.00201101
0.00227573
-6.67748e-05
1.62046e-05
1.71166e-05
0.00398327
-0.000240759
-0.00082684
0.000461053
0.00354538
-0.00316538
0.00261856
-0.000339699
-0.00228429
0.00279305
-0.00326389
-0.000128755
-0.000696912
0.000954337
-0.000406148
-0.000348275
0.00341379
-0.00310048
0.00306348
0.0040088
-0.00355794
-0.000456001
-9.41641e-07
0.000103476
8.07406e-05
2.60505e-05
2.24742e-06
-2.24742e-06
0.00241044
0.000967584
-0.0024422
0.00230459
9.5997e-05
-0.0017768
0.0012837
-0.000479826
0.00391822
-0.00344963
-0.000326737
0.00374943
-0.00342844
0.00330884
-0.00090288
-0.00390654
0.0036629
0.000178389
0.00337409
-0.00386488
0.00403111
-0.00350704
0.00298714
0.000620709
0.00309149
-0.00116326
-0.00192981
-0.000309416
-0.000427126
0.000244616
2.9498e-05
0.00316115
-0.00270644
-0.000497973
0.000400174
-6.14456e-06
0.00466564
-0.00372508
-0.00225329
0.00225204
-4.37598e-07
0.00330042
-0.00303275
-0.000246573
0.00223234
-0.00200724
-0.000529758
0.00332004
0.00440742
-0.00223121
-0.00272191
0.000156931
0.00242603
0.00023697
0.00130964
-0.000300303
-0.00041831
0.00159808
-0.00203457
0.00134684
-0.000154901
0.00200249
-0.00213712
0.000133833
-0.00039277
0.000368565
1.88241e-05
0.00380085
-0.000515552
-0.0017492
0.00226283
0.000139787
-0.000771035
0.000190851
0.00255865
0.000748707
0.000105317
-0.000868775
0.000409065
0.00345413
0.00096646
0.00365538
0.00445699
-0.00213333
-0.00233012
-0.00162538
0.00314267
-0.00152741
0.00246799
-0.00281189
0.000217236
0.00305463
0.00138576
-0.000185511
-0.00120421
0.00414876
-0.000510296
-0.0036736
0.000862815
-0.00360338
0.00272738
0.00372518
1.22345e-05
0.000292849
-0.000324461
0.00150399
0.00261323
0.000217604
-0.000233424
-3.27316e-05
0.00241484
-0.00294627
-0.000201598
-0.000852621
-0.00020698
0.000214101
-6.61675e-05
0.00279118
0.00107706
-0.00390238
0.00406639
-0.000316554
-0.00376302
0.00193313
0.00251638
0.000917304
-0.00101856
-0.00305526
-0.000875445
0.00363609
-0.0001555
-0.000140435
0.00162508
-0.00326103
-0.000541664
-0.000840539
-8.32892e-05
0.000817317
0.000337297
0.00318574
0.00274876
0.000146026
-0.00289759
-0.00131416
-4.57402e-05
-3.19845e-05
4.97669e-05
0.00237888
0.000264589
-0.000435077
0.000398631
4.4352e-06
-0.000877246
0.00369371
0.000264769
0.00352287
-0.00380677
-0.000110732
7.90456e-05
5.8933e-05
-1.96438e-06
-5.66604e-05
0.000298426
0.00108108
0.000128995
0.00269762
-0.00120156
-3.24726e-05
0.000226829
-0.000208754
0.00167907
-0.00123168
0.0030148
-0.00388657
0.000864503
-0.000932175
0.00393897
0.00225037
0.000839703
0.00105494
0.00105289
-0.00211331
1.10147e-05
0.00289765
-0.00241188
0.000156681
-2.62415e-05
4.63585e-06
-5.19188e-05
4.68635e-05
-0.00021855
-0.000293334
0.0030484
-0.00166054
-0.00150198
-0.00137574
0.00134739
2.23372e-06
-7.05575e-05
-0.00133118
0.000433637
0.00268982
-0.00011256
-0.000753383
0.00337981
-0.00333011
0.00195996
-0.00285947
0.00236542
-0.00272295
0.00288337
-0.00275954
-0.000646621
0.000566042
6.29508e-05
-0.00218109
1.699e-05
0.00216304
0.00297116
-0.000225178
0.00325853
-0.000530925
-0.00273139
8.70822e-05
-0.00031031
0.00278607
-0.00249383
3.1726e-05
-0.000114255
0.00127437
0.00312702
-0.000355636
0.00291236
-0.00263351
0.00245853
0.000127005
0.0033454
-0.00315726
0.00285945
0.000443476
0.000222941
-2.26237e-06
0.00289121
-0.00322505
2.82348e-05
-2.40057e-05
0.000426475
0.00123574
0.000548068
-0.00307706
0.00252603
3.8263e-05
-0.000111891
0.000799081
-0.000847777
-5.15877e-05
0.00282099
0.00305565
0.00130775
-0.00436972
0.000765289
-0.000870318
-0.00268571
0.0024479
0.00021504
0.00396886
-0.000355156
-0.00363206
-0.00259319
0.00278022
0.000545764
0.000195775
-0.000249608
-0.00247274
-0.000391099
0.00256218
0.000364993
-0.00293201
-0.00361606
0.00360425
-4.29788e-05
-0.000221541
0.000346694
0.00277241
-0.0014875
0.00453649
-0.00236608
-0.00135753
0.00371704
0.000215638
-0.0033148
0.00308817
-0.00031562
-0.000187472
0.000398922
-4.03766e-05
3.95577e-06
3.51648e-05
-0.00396564
0.000452752
0.00350025
-0.00384221
0.00339069
0.000438395
-0.00386203
0.00367712
0.000168408
0.000205938
-0.00224497
0.000682491
-0.000153356
-0.00205234
0.00151221
0.000390796
0.00364618
0.0001142
-0.00380102
4.51557e-05
-0.00252086
-0.000620924
-0.00188525
0.00240431
0.00377095
0.00120778
0.00172351
-0.00351407
0.00359578
-0.000139309
-0.000649857
0.000594276
3.71331e-05
-0.00271017
0.00356022
-0.00279754
0.00300344
0.00468126
-0.00280516
-0.0032108
0.00352573
0.00518958
-0.00271417
-0.0024845
0.00224084
-0.00258004
-0.00395505
0.000674613
0.00326664
0.000931826
0.00370337
-0.00386948
0.000277906
0.00353339
-3.56923e-05
-5.05707e-06
0.00315039
-0.000592285
-0.00373869
-0.000228986
-0.000238876
-0.000262268
0.000484758
0.000539456
0.0034096
-0.00203
-0.00183994
-0.00363779
0.000275319
0.00329172
-0.00385425
0.000119176
0.00372481
0.000720437
0.0037812
-0.000317466
0.000390978
-0.00121425
-0.000418842
0.00118152
-0.000132913
-0.00106215
-0.000153996
0.00189433
-0.00261976
-0.00287438
0.00307094
-0.000199123
0.000853516
-0.000179735
0.00108067
-0.00108334
-3.62695e-05
0.00234619
0.00283372
-2.97204e-05
8.88742e-07
-0.000401776
-0.00349047
0.00388639
-0.00346895
0.00109678
-0.000858378
0.000313788
0.000514626
-0.00212838
0.00203797
6.76306e-05
0.00167335
0.00169527
-0.0043463
0.000559195
0.00377353
0.00269098
-0.000134853
-0.000134925
0.000214991
0.000232675
-0.000487466
-0.000210449
-1.7905e-05
0.000211204
-0.000458169
-2.69472e-06
0.000451253
-0.00155182
0.000270637
0.00126577
0.00395748
-0.00420556
0.000463615
0.00373292
-0.00355573
0.003663
-0.000179914
-1.69056e-05
6.67644e-06
8.0709e-06
0.00325301
-0.0030136
-0.000243185
0.00284663
-0.00320671
-0.00114166
-4.44544e-05
-5.01494e-05
-0.00105753
0.000859544
8.70464e-05
0.000340242
0.00290867
0.00243937
0.000177193
0.000162531
0.00100418
-0.0019918
0.00219526
0.0030903
-0.00145199
-0.00172518
0.00038076
-0.0031761
0.00279176
-0.000762134
0.000301675
0.000444673
-0.000339203
-0.000546669
0.00263514
-0.00453307
-0.00323525
0.000893587
-0.00381317
0.00393266
-0.000175151
-0.000244894
0.000348191
-0.000189813
-0.00018446
-0.00330252
-0.000142179
0.00341249
0.00334648
-0.00368154
0.000327728
-0.00252447
0.000231537
0.00218708
0.00113582
-0.000117723
-0.00103398
0.000289492
-0.000279849
-0.0034237
-0.000542442
-0.00438799
-0.000377144
0.000661112
0.000300433
0.00225174
8.67241e-05
0.00251987
0.000265363
-0.000271083
-0.00364334
0.00331103
-0.000521825
-0.000642956
8.3551e-05
0.000739102
-0.000748896
0.000792792
-0.000795378
0.000322942
0.000277876
3.81103e-05
0.00100572
-0.00197934
0.00171231
4.12172e-05
0.00023087
-0.00249508
5.78026e-05
0.00238353
-0.00221297
-0.00026445
-0.00342622
6.22725e-07
6.21609e-07
-0.000659695
-0.000212761
0.000290898
-0.000147457
0.00401261
-0.00374298
-0.000282839
-0.000692241
-0.00215043
-0.00213631
0.0030234
-0.000956636
0.000215497
-0.000285703
-0.00306267
0.000859212
-0.000221262
0.00145332
-0.00314097
0.000188191
0.00093122
-0.000429512
-0.000348355
-0.00159005
0.00421727
0.000451107
0.000727084
0.00231302
-0.00304532
0.00444197
-0.00351802
0.000350646
0.000694147
-0.000884126
-0.000389256
0.00403456
-0.00365675
-0.000686791
-0.000249337
-0.00226287
0.0037447
-0.00149531
0.00340728
-0.00268518
0.000716659
-0.00211553
0.00250283
0.00143118
0.00157163
2.50236e-05
-0.00370831
0.00151359
-0.00261849
0.00110357
0.00358531
0.000408236
-0.00201866
0.00223857
0.000900031
-0.00216181
0.00126088
-0.00332768
0.003157
0.000133562
-0.00256683
0.00239289
0.000168304
0.000146501
-0.00248282
0.00226007
-0.00401164
0.00371021
0.000243301
-5.61204e-05
-0.000607536
-5.8835e-05
0.000781858
-0.000712035
0.00256188
-0.0010489
0.00335264
-0.00289365
-5.22276e-05
2.99386e-05
0.00234193
-9.09311e-05
0.00321315
-0.00364853
0.000361043
0.0036686
-0.00406921
1.36674e-05
4.37555e-05
0.000188612
0.0031706
-8.43073e-05
-0.000549128
0.000152436
0.00235332
-0.0028905
0.000289069
0.00255573
0.00192861
0.00178003
-0.000354684
0.00369394
-1.99261e-05
-0.00354863
-1.06464e-05
-8.34405e-06
-7.94342e-05
0.000187106
0.000157225
-0.0027875
0.00256053
-0.00195315
0.000137663
0.00172236
-0.00332768
0.00343588
-0.000119846
-0.000195328
-0.00366823
0.00402651
0.000183368
0.00351996
-0.000123026
0.000369744
0.00249493
-0.00269445
0.00259462
2.85657e-05
-0.000130339
-0.00358011
-7.94161e-05
-0.00295283
0.000141806
-2.90714e-05
0.00206495
-0.00217309
4.56226e-05
0.000378802
-0.00250008
-0.00133541
-0.00196836
-7.57206e-05
7.14361e-06
6.72638e-05
0.000606815
-0.00427463
2.35636e-05
0.000124057
-0.000356256
0.0021024
-0.00110191
-0.00100183
-0.00249681
-0.00334974
-0.000349234
0.00168329
-0.00365124
6.13806e-07
-4.57558e-05
4.47959e-05
-0.00173008
0.00335553
-0.00212493
0.00249805
0.0024373
-0.00236952
-0.000184837
0.000273604
-0.0001564
-0.000312415
-0.00262174
0.0014001
-0.00028965
-0.00111523
0.000148466
0.00221051
-0.00298253
0.000396596
0.00147457
0.00158001
-0.00310031
-2.90654e-05
-2.57469e-06
-0.00207492
0.00232223
0.000262251
-0.00321509
0.0029089
0.000208903
-0.00222109
-0.00161057
-0.0006543
0.000391638
-0.000441523
3.232e-05
-0.00226835
0.00257662
-0.0001995
0.000190663
-5.09818e-06
7.89224e-06
5.25963e-05
-0.000852487
0.000858874
-0.00299822
0.00317787
0.000201335
0.00243115
-0.00253914
-0.00298898
0.000436266
0.00249179
0.00218786
-0.000882246
-0.00134158
0.000232505
-0.000637063
-0.000754586
-0.0014181
0.000472108
0.00321317
-3.00245e-05
6.04759e-07
2.90245e-05
-0.00285174
0.00242326
0.00344132
-0.00327505
-0.000194281
-0.00228654
0.00324871
-0.000365204
0.0036313
-0.00123232
-0.00240813
-0.0027744
0.00238496
0.000263645
-0.000331104
0.000116749
-8.08384e-05
-3.6275e-05
-0.000416271
-9.52544e-05
0.000332021
8.50446e-05
-0.00234123
0.00205665
0.000184279
-0.00245269
3.3277e-05
0.00237611
-0.00037522
-2.34343e-05
0.000169514
7.82808e-06
0.000197182
-0.00219108
0.0027059
-0.00127014
0.000789634
0.00360781
-2.4283e-05
-0.000643481
0.00375734
0.00131633
0.000838003
0.00121049
0.00382528
-0.000234954
-0.00359795
-0.00268061
-0.00239014
-0.00156956
0.00116208
2.4362e-05
-1.35796e-05
-0.00138857
0.000308182
0.00256335
-0.00166432
-7.99865e-05
0.00348135
0.000373432
-0.00386262
0.00205365
0.000157441
-0.00201018
0.00343138
-0.00237605
0.00315581
0.000313566
0.000132543
-0.00132452
0.00338583
-0.00210429
-0.00257802
0.00395201
-0.00138748
-0.000359072
0.000392487
-3.91107e-05
0.00101483
-0.000836208
-0.000184209
-0.00310967
0.000113174
0.00299101
-2.9743e-05
-2.95828e-08
-0.000424576
1.55201e-05
0.000401278
0.000118699
-0.000688603
-0.00340415
0.0036504
-0.000104137
-8.19627e-05
0.0039748
-0.00312366
-0.0032721
0.00297694
0.000264164
0.000185562
0.00127314
-0.0035495
-0.00293846
0.000199851
0.00266889
0.000295023
0.002266
-0.000477659
-0.00337714
0.000148447
-0.000339083
0.00124969
-0.000957079
4.03974e-06
0.000576623
-0.000589492
-4.45162e-05
-0.00248104
0.00246971
0.00303372
-0.000255931
-0.00281823
0.00049929
0.00351942
-1.67273e-05
-0.00252613
-0.0039666
0.000108132
0.0045512
-0.00253916
0.00415284
-0.000432995
-0.00372768
0.00028172
0.00270874
0.00381914
-0.000442425
-0.000199259
0.000211762
-1.48921e-05
1.62119e-05
-0.00331732
0.000569767
0.00324598
-0.000449406
-0.000458766
-0.00246418
4.33279e-05
0.00237133
0.00288587
0.000313675
-0.00322909
0.000943155
-0.00186029
0.000539377
-0.00119275
0.000458146
0.00355063
-0.000102551
-0.00346255
-0.00424926
0.00288563
-0.000504928
0.000283889
0.00361175
-0.000523199
-0.00313207
-1.8933e-05
1.72878e-05
0.000348337
2.02774e-05
-0.00256185
0.00214864
-0.00245707
0.000192738
-0.000253602
-7.21115e-05
-4.01385e-06
0.000921397
-0.000855123
-7.95288e-05
0.00433147
-0.000757701
-0.00360504
0.000683411
-0.000592107
-9.95858e-05
-1.8933e-05
-0.0032326
-0.00157066
0.000172957
0.00138486
0.00390568
-0.000433245
0.00010278
0.00189999
0.0026228
-2.84372e-05
-0.00264866
1.43849e-05
0.00109242
-0.003899
6.95538e-05
-6.92696e-05
0.0037386
9.0952e-05
0.000608763
0.00044557
0.0035808
-0.00403486
0.000590385
0.000113572
0.00222715
-0.00332235
0.00302177
0.00026184
0.00342992
0.0027506
0.000127786
0.00285789
0.000535775
-0.000540281
-2.96661e-05
-7.97106e-07
8.66117e-06
-0.000440836
-0.00336228
0.00325768
9.58491e-05
0.000405418
-0.00403318
0.00361556
0.00317194
-0.00222931
4.72645e-05
-0.000846471
0.00278555
-0.00195387
0.000210646
0.00103401
-0.00195314
0.00214827
-0.00234739
-0.000143882
0.00293089
-0.0014164
0.00357696
-0.00398463
0.00425733
-0.000543038
-0.00373491
0.000444244
0.000974792
-0.00356526
0.00197175
-0.00191846
0.000669131
-0.00246962
0.00352918
0.000594008
8.14415e-05
-1.30562e-06
-0.000487762
0.00034279
-0.00458497
0.00244378
0.00212011
1.69055e-05
-3.41992e-05
1.4843e-05
-0.00404554
-0.00234239
-0.00038682
0.0026215
-0.00034056
0.00383077
-0.00349626
-0.00379942
0.00250851
-2.89553e-05
-2.58107e-06
-0.00282981
-0.000188061
-0.00345092
0.00312227
0.000266065
-0.00338338
0.00284952
0.000526923
-0.000181236
0.00019648
0.000812587
-2.06012e-05
-1.47604e-05
2.84388e-05
0.000287635
-0.00351974
-0.00342707
-0.000396802
0.00377644
0.000176894
-0.00284847
-0.000187549
0.0033263
0.000243883
-0.000132459
-0.00191014
-0.000116858
0.00294423
-0.0028302
-0.00287271
0.00337077
-0.00374282
-0.00226267
-0.000187805
-0.00186646
0.00169008
8.57564e-05
-0.00211961
0.00241248
-8.92336e-05
7.41342e-06
-0.000370246
-0.000437747
-0.00328523
-2.31781e-05
0.000272568
0.00275181
-0.00262358
0.000241952
-0.00079125
-0.000199048
0.00406511
-0.000476601
-0.00360227
-0.00260495
0.000359357
0.0037841
1.21774e-05
-0.000169231
0.000125584
-0.000433771
-0.00211801
0.000164647
-1.41136e-05
-0.00016488
-0.000528268
-0.000615844
0.00418634
-0.00383657
-0.00125227
0.000934636
-0.0028858
0.00411719
-0.00124013
0.00308852
0.00367598
0.000104717
-0.00379145
-0.00041675
0.00310772
0.00357339
0.000476936
-9.67498e-05
-0.00417577
0.0014831
0.00019237
0.00178438
-0.000302981
-0.00232996
0.00369726
-0.00325651
0.00233969
-0.00213203
0.00286674
-0.00298646
0.00396998
-0.0019813
-3.35535e-05
-1.04684e-05
3.19284e-05
0.00170744
-0.00125697
-0.000484066
-2.79909e-06
-0.00019757
-0.00410652
5.06685e-06
0.000521717
-0.00246792
0.00231535
0.000143648
-0.00255386
0.00290028
1.61833e-05
-0.000242321
-0.00261936
0.000273573
0.00234407
0.000660808
0.00259114
5.76921e-05
5.88259e-05
0.000240666
0.000165495
1.25584e-05
-3.54767e-06
-4.12632e-05
-0.000141184
-0.00322268
-0.00351417
0.000128763
0.00339161
-6.81894e-05
-0.00333218
0.00068963
6.52577e-06
-0.000714228
0.00293135
-0.00265093
-0.000284326
-0.000165049
0.0029587
-0.00280347
0.00251881
-0.00388898
-0.000343307
0.000424277
-0.000284883
-6.4286e-05
-0.00226628
0.00232937
0.00374703
-0.000414022
-0.00335886
-0.00246111
0.000128642
0.00232024
-6.21839e-06
0.000471325
-0.000474293
0.000134351
-0.00044531
-0.00301809
0.00340843
0.000130493
0.000776659
0.00406156
0.00389734
0.000338831
0.00246603
0.00145418
9.07174e-05
-0.00154988
-0.00422699
0.000709881
-0.00363905
0.00409366
0.00141673
0.00231568
0.000138469
0.00220799
-0.00227344
0.00228471
0.000282807
-0.00256904
-0.000168933
0.00206701
-0.00189898
0.00029811
0.00220413
-0.0025038
0.00362359
0.000355018
0.00250199
-0.00290594
-0.000506771
-0.00364046
0.00413847
0.00389849
-0.00229713
0.00376557
0.000347607
0.00257914
-0.00106199
0.00214956
-0.00108865
-9.40962e-05
-0.0024147
0.00043659
0.00337398
-0.00320938
0.000879131
0.00253534
3.35282e-05
-0.00010281
-0.000335535
-0.00244307
0.00234317
-0.00276504
-0.00181312
0.0018772
-6.09777e-06
0.00209654
0.00030033
0.00137273
-0.00333339
-0.00294961
0.000219835
0.0027246
0.00147126
-2.3732e-05
-0.00145216
-0.000485495
0.00033475
0.00409959
-0.0033519
-0.00415441
0.00363802
-0.00320018
-0.000260678
0.000393303
0.000452545
-0.00360702
0.00314477
-0.00250002
0.00234826
0.000143844
-0.00265212
0.000182647
0.00239826
-0.000108008
0.00069612
-0.000613907
0.000324783
-0.00297965
0.00367806
0.000343852
-4.88791e-05
-0.00251247
-0.00287003
0.00308865
0.00283792
-0.00253205
7.7716e-06
1.65485e-05
0.00168314
-0.00077105
0.000290099
-0.00348961
0.00135176
0.00225867
-0.00362515
0.00361162
0.00411286
-0.000555927
-0.000630558
6.8563e-05
0.000549086
-0.000415216
-0.00229901
-0.00230523
0.000990558
-0.00236022
9.42235e-05
0.00315347
-0.00395951
0.00380929
0.000116493
-0.00320761
0.000190125
0.00300629
0.000634622
6.79523e-05
-0.000243912
0.000260426
-1.96011e-05
0.00343064
-0.000113924
-0.00257684
-0.000141225
0.00130268
-0.000229057
-0.00108797
-0.00348288
0.00400191
-0.000450641
0.000219038
-0.00321172
0.00298114
0.00219769
-0.000169074
0.00412989
-0.000254122
0.000864649
0.00334587
-7.49114e-05
0.000650905
-0.000588518
0.00339104
0.000269248
-0.00368372
-0.0027768
-0.000177217
0.000699214
-7.17593e-05
0.000286528
0.00180249
-0.00132852
0.00130522
-1.95342e-05
-0.00196841
-0.000994153
3.06408e-05
-1.64313e-05
-0.00181122
3.01596e-05
0.00172354
0.00237222
-0.000143907
-0.00223945
-0.00269408
0.00293235
0.00340299
0.000755053
4.04252e-06
-0.000786029
4.90878e-05
-0.00142033
0.000750004
-0.000559046
-0.000207993
0.000484906
0.00361288
-0.00316671
-0.000502013
0.000486685
0.00276926
0.000198614
-0.00176628
-0.00387562
0.000404067
0.000309321
0.00351549
0.00272625
0.00377258
0.000334596
-0.00028234
0.000363421
-0.000252674
0.000969077
-0.00386466
0.00123973
-0.00151318
0.000265954
-0.0029114
-0.0030625
0.00277966
0.00028006
-0.00375898
0.0023695
0.00364325
-0.00201344
3.30959e-05
0.00303699
0.000373196
-1.58674e-06
-0.000302299
-0.000180123
-0.0022579
-0.000367921
-0.00408111
0.00456667
-0.00289558
-0.000749282
-0.000101876
0.000850679
-0.00212301
-8.8052e-05
0.000669624
-0.00058506
-0.00406483
0.000383595
0.00366823
-0.000207846
0.00144057
0.000385064
0.000146826
0.00221316
0.000583216
1.77879e-05
-0.000627154
-0.00220837
0.00327864
0.000285674
2.77727e-05
0.000470327
-0.000625599
-0.00362037
0.00319424
0.000395994
-0.000160308
0.00229283
0.000107778
-0.000857265
0.000415835
-0.00334975
-2.36477e-05
-0.001595
0.000280156
0.00128553
0.00282341
0.0011423
-0.000403646
0.000131434
0.00359575
6.56605e-05
-0.00209957
0.00214994
-8.00417e-05
9.95473e-05
0.000273872
-0.000417827
0.000371449
-1.36133e-05
-0.000376385
0.000275506
0.00265943
-0.00293939
-0.00220927
9.3818e-05
0.00211366
0.00132864
-0.00107199
0.00115547
-0.000180885
-0.00315471
-0.000228643
-0.00266633
0.00285575
0.00134423
0.000140737
0.00344085
-5.74533e-05
-0.00110584
-0.00169759
4.32417e-05
0.0015977
-0.00265368
0.00379604
-0.00405985
-4.18469e-05
1.48406e-05
0.00354233
-0.00327623
-0.000800265
0.000769638
-9.00796e-05
-0.000693837
-0.00296188
0.00358739
0.000468257
0.000103876
0.000651751
0.00229331
-0.00215864
0.000137121
0.00102385
-0.00116117
0.000128816
-1.49431e-05
-0.000128988
0.000354033
-0.00375887
0.00339829
0.00318506
-0.00297748
0.00102767
-0.00209079
-0.00333033
-0.000328965
0.00410732
-0.00041079
-0.00370958
-9.55979e-05
-0.00185862
0.000206311
-0.0021684
-0.00378068
0.000440718
0.000130179
-0.000124612
-2.0601e-05
-0.00256706
-0.00168824
0.00320242
-0.000341601
-0.00172481
-2.96418e-05
2.93259e-05
-1.51215e-05
0.00112006
-0.000983091
0.000155921
0.00190865