/*--------------------------------*- C++ -*----------------------------------*\
| =========                 |                                                 |
| \\      /  F ield         | OpenFOAM: The Open Source CFD Toolbox           |
|  \\    /   O peration     | Version:  v2012                                 |
|   \\  /    A nd           | Website:  www.openfoam.com                      |
|    \\/     M anipulation  |                                                 |
\*---------------------------------------------------------------------------*/
FoamFile
{
    version     2.0;
    format      ascii;
    class       volScalarField;
    location    "950";
    object      omega;
}
// * * * * * * * * * * * * * * * * * * * * * * * * * * * * * * * * * * * * * //

dimensions      [0 0 -1 0 0 0 0];


internalField   nonuniform List<scalar> 
10042
(
0.230899
0.624469
0.0402022
0.0211263
0.02107
0.315751
0.900432
0.316409
0.0201057
0.0470971
0.255792
0.673828
0.0313299
0.020919
0.0215307
0.0209052
0.41876
0.296515
0.0228735
0.0260554
0.0310915
0.235126
0.0211108
0.462851
0.0209891
0.0217168
0.0449017
0.0200329
0.346858
0.456124
0.0225703
0.0399222
0.0200792
0.0200741
0.302477
0.279901
0.0220506
0.0202557
0.0217948
0.0210773
0.46
0.0200989
0.110923
0.81178
0.0210613
0.0209842
0.0198591
0.0215129
0.0526904
0.180097
0.114061
0.0209826
0.398427
0.0227074
0.357047
2.45759
0.0297775
0.114954
0.0215418
0.0195697
0.0560807
0.936805
0.0958839
0.319688
0.0360535
0.0212885
0.0253809
0.238835
0.019835
0.237985
0.135285
0.0223374
0.0203924
0.0215219
0.0212392
0.131575
0.0514262
0.0198556
0.0581488
0.0229436
1.07517
0.461556
0.0240137
0.0208883
0.0348631
0.296036
0.0248553
0.0398499
0.0208906
0.0352811
0.0260873
0.0215423
0.0940747
0.653929
0.0323864
0.0212977
2.94108
0.0254783
0.451564
0.0215055
0.0256779
0.165868
0.0216644
0.0342558
0.0234893
0.0214966
1.67291
0.0211893
1.19197
0.0215285
0.0214932
1.0602
0.145311
0.306578
0.033419
0.0198283
0.0342615
0.0223811
0.0730991
0.0198069
0.0195689
0.332597
0.294113
0.0210707
0.0387745
0.0209578
0.020986
0.344586
0.113929
0.0308906
0.0202285
0.0210704
0.0212124
0.0211417
1.19122
0.138094
0.0254014
1.74275
0.022083
0.50729
0.064419
0.0204495
1.62468
0.0200392
0.0242919
0.0202576
0.0319444
0.0198209
0.02225
0.249225
0.0211259
0.0210653
0.0222747
0.0354203
0.0310936
0.0245137
0.107356
2.20525
0.0212281
0.0220334
0.0222321
0.0214919
0.143904
0.0209178
0.0218863
0.197573
0.0203822
0.0353819
0.291561
0.0200441
0.0363775
0.448509
0.134152
0.0200572
0.0226647
0.18117
0.0210351
0.0202444
0.0210326
0.0198352
0.0220314
0.0234725
0.0215233
0.0197917
0.250905
0.0265708
0.0223477
0.0196172
0.197424
0.0213401
0.849735
0.0296085
0.0202451
0.0233178
0.248908
0.0215394
0.217405
0.0248429
3.56268
0.0209044
0.133359
0.0788084
0.382522
0.0202697
0.478214
0.0211429
0.370196
0.0346702
0.0214709
0.0211699
0.0379471
0.0201619
0.496722
0.0532578
0.0221654
0.233814
0.0202163
0.0793455
0.0213297
0.127994
0.46436
0.0345411
0.467479
0.234952
0.021122
0.0814096
0.0218578
0.0248998
0.0373195
0.021694
0.0202456
0.0210414
0.0266262
0.0230849
0.0210292
0.307878
0.0241721
3.14046
0.0238201
0.459581
0.0518151
0.360993
0.0195591
0.0218824
0.24994
0.0211504
0.364654
0.0236425
0.0223273
0.0215326
0.0232379
0.0202556
0.507727
0.56506
0.0221364
0.0238457
0.0217091
0.0222445
2.75291
0.0211018
0.0376553
0.020307
0.0209691
0.0198723
0.0325201
0.571445
0.035016
0.537283
0.0232847
0.0210648
0.0213531
0.175064
0.0208107
0.154787
0.0221109
0.0392446
0.0219174
0.0210246
0.0233694
0.199154
0.020031
0.164943
0.22487
0.0218704
0.0234894
2.60702
0.0488273
0.0199074
0.222192
0.0213877
0.0284352
0.0260622
0.0239298
0.236715
0.0373876
0.0208278
0.656433
0.0247527
0.021363
0.0202705
0.0222165
0.239828
0.0196192
0.0776688
0.0519761
0.92563
0.0209229
0.024569
0.858823
0.185685
0.0227055
0.0210786
0.021283
0.020834
0.0252223
0.220759
0.0198761
0.247496
0.434774
0.0198168
0.0220476
0.161153
0.0338206
0.244911
0.25507
0.0225345
0.0261281
0.0210073
0.0243253
0.0275133
0.0211365
0.0213549
0.223078
0.0212891
0.412473
0.243212
1.7456
0.244799
0.0202706
0.160625
0.0636327
0.030849
0.0195633
0.0281483
0.0227189
0.0202323
0.0207239
0.02123
0.0251633
3.34276
0.0216674
0.0331807
0.0253098
0.0203744
0.646348
0.0259355
0.0218735
0.0239218
0.176931
0.0225328
0.0214614
0.0221863
0.0218758
0.426256
0.146116
0.0219374
0.0210028
0.0238826
0.0240236
0.444308
0.019584
0.0242957
0.0208548
0.0215577
0.125769
0.021079
0.0450053
0.265537
0.335649
0.0566119
0.0213859
0.1164
0.0371943
0.0209844
0.0446174
0.0198179
0.0214165
0.019797
0.0211743
0.0199067
0.0220934
2.07361
0.0216557
0.0265525
0.152304
0.744575
0.0211855
0.308803
0.02209
0.0399801
0.0209955
1.28247
0.0216614
0.518361
2.71266
0.0203834
0.0585056
0.021219
0.0486627
0.0219743
0.521139
0.0250329
0.31724
0.0216267
0.307672
0.0219562
0.0257251
0.435004
0.0199152
0.0217759
0.0210466
0.192079
0.0202344
0.0197768
0.0688334
0.0228975
0.0380546
0.520181
0.0210848
0.0310479
0.0228683
0.0198553
0.0250714
0.287943
0.0208612
0.0218224
1.5919
0.0585431
0.0220466
2.61962
0.0200618
0.0261334
0.0309475
0.179539
0.1471
0.247141
0.302106
0.131227
0.319278
0.019763
0.0310759
0.356812
0.288144
0.0426502
0.0211087
0.0207548
0.0324522
2.84879
0.019795
0.0201363
0.0228329
0.0211575
0.0210357
0.0211753
0.0211272
0.0239642
0.239679
0.0218798
0.0258838
0.036366
0.130727
0.0200717
0.986945
1.63124
0.214249
0.0211333
0.0248923
0.0219174
0.972014
0.0213541
0.0277819
0.0216164
0.439419
0.0205963
0.0233068
0.0201372
0.0287824
0.578567
0.0218104
0.0207952
0.0211142
0.925317
0.020297
0.0296594
0.0390123
0.057968
0.0202652
0.0300232
0.2896
1.52624
0.0214249
0.0227412
0.245549
0.756032
0.0352272
0.342313
0.0215134
0.227065
0.0293723
0.0267273
0.0230365
0.373463
0.0202399
0.0210935
0.0215726
0.241499
0.0210821
0.0266823
0.0211582
0.0214027
0.0201086
0.0256019
0.338995
0.0216466
0.0218133
0.358245
0.0283954
0.0355094
0.0216254
0.0211413
0.235407
1.36428
0.0214089
0.0199649
0.0365569
0.0213192
0.0213113
0.249041
0.0202231
0.284785
0.0209846
0.041775
0.0231726
1.20812
0.021093
0.0252893
0.0214491
0.0203564
0.339063
0.0195577
0.617795
0.0353397
0.0201181
0.0246101
1.74197
0.0673874
0.0318411
0.021251
0.0199622
0.019809
0.0206227
0.026187
0.0215356
0.260875
0.0212755
0.0199852
1.88995
0.023486
0.0273396
0.0223365
0.0207775
1.86856
0.414491
0.0226515
0.32386
0.0213544
0.0258024
0.0200382
0.0201206
0.0211387
0.0210791
0.021442
0.0213572
2.46715
0.0215831
0.552874
0.0209907
0.0223928
0.0198865
0.038852
0.0796657
0.0201318
0.0210138
0.25185
0.0334583
0.0199043
0.264579
0.0210279
0.203485
0.0202691
0.022169
0.0203445
0.188253
0.0198928
0.020942
0.0211711
0.194659
0.0219749
0.02112
0.0213415
0.0492196
0.021181
0.0210869
0.0203907
0.0210956
0.0231852
0.0210488
0.0218436
0.0200522
2.60309
0.82124
0.580793
0.0219475
0.0233431
0.0212813
0.0869172
0.0220635
0.455516
0.579976
0.574352
0.204029
0.388967
0.0213557
0.0213736
0.367885
0.0465942
0.0249975
0.0724516
0.0215226
0.405626
0.0208093
0.0214371
0.0200785
0.0202879
0.0221978
0.349424
0.0218529
0.0216101
1.91845
0.0212238
0.110343
0.0208899
0.0218383
0.0295138
0.0213554
0.404948
0.0210124
0.0210478
0.20058
0.0214168
0.019782
0.0226944
0.0208464
0.0207784
0.569737
0.44546
0.518494
0.0215016
0.0208645
0.0208486
0.410934
0.0225177
0.0212035
0.0204177
0.0206906
0.413041
0.165133
0.113512
0.0219964
0.0235202
2.1731
0.0257758
0.0263942
0.0370105
0.225348
0.86868
0.417804
0.0207978
0.0212791
0.0210444
0.312135
0.0207861
0.0238924
0.0211557
0.0195655
0.0279627
0.021653
0.196533
0.296541
0.0198926
0.0210481
0.0197605
0.252193
0.0202766
0.495135
0.0231846
0.191021
0.0208524
0.0206935
0.0201369
0.0210822
0.0213385
0.0196997
0.0213641
0.0216358
0.0291243
0.0230764
0.579442
0.0213675
0.0430279
0.244854
0.0224668
1.99656
0.0209542
0.0211182
0.0221584
0.0214328
0.284189
0.0211462
0.0218413
0.020118
0.177887
0.0206396
0.30822
0.0324042
0.0208729
0.480685
0.305181
0.0207397
0.0204059
0.0711594
0.0243044
0.510896
0.0265582
0.0587445
0.027725
0.0214866
0.0214431
0.0212799
0.0278374
0.0226977
0.213595
0.110347
0.0195637
0.0207589
0.021948
0.0308211
0.0243299
0.475711
0.021572
0.0214359
0.5677
0.0208471
0.0649631
0.0273585
0.0236744
0.29301
0.0238505
0.0209118
0.0218671
0.0341048
0.0209807
0.721185
0.0216081
0.0329876
0.0241741
0.121011
0.0216803
0.0257718
0.0237636
0.0216682
0.0312669
0.0200544
0.0303066
0.0209896
0.0216133
0.0207695
0.0213191
0.022175
0.036584
0.0222872
0.0215041
0.246409
0.0200692
0.0208629
0.0210038
0.0197777
0.141859
0.0221909
0.0226165
0.0783917
0.239812
0.0213265
0.044763
0.412599
0.0206703
0.0210616
0.0197599
0.280858
0.229456
0.0232416
0.0208628
0.0390349
0.994503
1.17451
0.0221604
0.34231
0.120182
0.57989
0.0233706
0.0197272
0.0210798
0.586225
0.0784477
0.0215932
1.11854
0.117889
0.288789
0.241794
0.021226
0.0372285
0.570693
0.0404486
0.383888
0.0276575
2.28801
0.0224383
0.429838
0.0214066
0.0598393
0.0224302
0.029995
0.0196363
0.0214643
0.0210361
0.657926
0.021078
0.0195759
1.54757
0.0213625
0.0250883
0.0223975
0.22417
0.0209391
0.0218763
0.0215258
0.0212501
0.0212155
0.0245396
0.0207877
1.53448
0.0984728
0.039405
0.0211085
0.475672
0.020745
0.0637624
0.254059
0.0232952
0.0212412
0.0198279
0.0212428
0.0221459
0.071505
0.0381123
0.0208581
0.0883751
0.0208897
0.0215039
0.446586
0.0197923
0.0215982
0.0820689
0.0208717
0.0674874
0.0220878
0.0589238
0.0253048
0.0354891
0.0245187
0.0212975
2.02647
2.02264
0.0210009
0.0291592
0.185263
1.54445
1.33249
0.0221777
0.0204969
0.0240472
0.0214688
0.0223393
0.364003
0.0232836
0.0198065
0.0319622
0.160578
0.242301
0.0198236
0.0197612
0.0217794
0.021544
0.387388
0.585309
0.0202116
0.0241077
0.237366
0.0213204
0.0226998
0.450738
0.0229071
0.16873
0.0213184
0.0213294
0.0215009
0.0217161
0.0649875
0.0381744
0.0212066
0.387503
0.0807731
0.186305
0.0229812
0.0226997
0.548817
0.034835
0.207763
0.029754
0.0213633
0.0209882
0.153655
0.0709264
0.0217811
0.0237954
0.0388473
0.0210665
0.0372444
0.0217919
0.0210075
0.0218828
0.0334537
0.0209042
0.0210368
3.8481
0.0207674
0.0204789
0.0388488
0.024358
0.378725
0.022444
0.0218084
0.207954
0.0381726
0.0227105
0.0298032
0.390577
0.0209462
0.0200939
0.0244717
0.0643155
0.0208224
0.0216333
0.0209729
0.020631
0.0207696
0.255463
0.0213303
0.554194
0.0214143
0.0328188
0.0202592
0.0215953
0.032373
0.439365
0.139207
0.0212568
0.0225811
0.377886
0.185688
0.0237389
0.0218297
0.39884
0.0209617
0.024017
0.0361798
0.0208618
0.0222945
0.0210034
0.0353786
1.66955
0.551097
0.0206829
0.0220757
0.0247367
0.149809
0.0206975
0.0204199
0.038063
0.0196522
0.0206327
0.330487
0.021658
0.580129
0.0202171
0.0204405
0.0200767
0.0311203
0.0218958
0.0214743
1.62029
0.0206522
0.0216028
0.773923
0.0210678
0.033625
0.0227758
0.0727275
0.352612
0.0228419
0.25609
0.0261367
0.0214169
0.210009
0.0217817
0.0209461
0.0198508
0.0209648
0.0243139
0.152292
0.0358999
0.191761
0.213812
0.26308
0.0455857
0.357345
0.0228565
0.304784
0.0200319
0.026295
0.021489
0.0215911
0.0218877
2.04855
0.206045
0.0212572
0.586695
0.0204501
0.89938
0.0212332
0.0227553
0.0221113
0.115261
0.587091
0.0211488
0.0199194
0.157326
0.0907708
0.0253012
0.0234139
0.57262
0.0218738
0.25945
0.253015
0.020764
0.0205985
0.0208591
0.0236274
0.0208931
0.0218676
0.022149
0.0210809
0.0219128
0.0217158
0.0207952
0.325362
0.327777
0.0199116
1.10305
0.0222772
0.0391423
0.0413959
0.0485095
0.0207548
0.0496301
0.0427667
0.0201672
0.038932
0.581619
0.0215653
0.0206164
0.0220311
0.326483
0.204986
0.020186
0.0334432
0.0214584
0.0215054
0.339952
0.0207478
0.0205529
0.020462
0.0207571
0.0220631
0.250903
0.0244393
0.0206725
0.0213216
0.0207526
0.0210824
0.18107
0.0198923
0.0295766
1.11579
0.561287
0.020581
0.427499
0.0204083
1.12997
0.0220274
0.0383435
0.0200287
0.578622
1.6491
1.61773
0.0213761
0.0639218
0.244103
0.338725
0.0218205
0.262692
0.0210044
0.291481
0.323595
0.0262186
0.158917
0.286223
0.0402129
1.15366
0.0941714
0.318327
0.0205753
0.0222178
0.268859
0.0637612
0.021307
0.416088
0.0218114
0.0207743
0.0203739
0.0405397
0.0640525
0.030959
0.0546331
0.0264233
0.338284
0.0219481
0.0209997
0.0208844
0.0501968
0.257899
0.0262756
0.260041
0.0217352
0.0222659
0.0284521
0.376618
0.0364244
0.0207685
0.183972
0.0729003
0.0220662
0.0376237
0.0201876
0.0317095
0.0314076
0.0206961
0.501631
0.250872
0.0212574
0.0218945
0.0209177
0.227856
0.0225474
0.133913
0.176029
0.0209327
0.0206814
0.0199946
0.0297009
0.0204161
0.0245827
0.0225357
0.0251318
0.212755
0.0219938
0.0255012
0.30268
0.0221942
0.0316567
0.0221751
0.0213875
0.604925
0.249993
0.0219694
0.153593
0.0239751
0.256792
0.0207904
0.0205641
0.0259036
0.0227219
0.0352245
0.234223
0.0221523
0.0221954
0.251826
0.0302635
0.0228623
0.225974
0.104643
0.266775
0.020928
0.0198664
0.0459048
0.0205124
0.805336
0.25828
0.0454172
0.247042
0.0218154
0.0207227
0.144807
0.251331
0.0209533
0.143531
0.0241304
0.0210785
0.0701793
0.0219097
0.0215549
0.0389559
0.0230115
0.0203517
0.0225361
0.0209957
0.022614
0.378623
0.0296033
0.321825
0.0212991
0.0253017
0.020854
0.0212675
0.276565
0.0214619
0.216976
0.251577
0.0218659
0.302637
0.0325152
0.295534
0.0197759
0.167873
0.0979989
0.0502648
0.0226304
0.021929
0.0207162
1.73461
0.0228437
0.306159
0.0335224
0.0202831
0.0560217
0.0197375
3.74364
0.0209911
1.04491
0.0211599
0.0205325
0.0201092
0.0710106
0.0207993
0.0201663
0.0200483
0.0208344
0.0213556
0.0368103
0.0629184
0.0203385
0.0242416
0.0215582
0.0209748
0.0207127
0.0492227
2.09591
0.0241718
0.0213427
0.0207222
0.0200713
0.0233749
0.0237367
0.0200802
0.224937
0.292363
0.296331
0.0202452
0.0208314
0.021321
0.022393
0.0205917
0.0218128
0.0213321
0.0207546
0.027975
0.0221811
0.0404801
0.16985
2.3719
0.0212312
0.0209673
0.0210502
0.504728
0.0209125
0.0258662
0.0244109
0.0204143
0.0213027
0.0210487
0.526572
0.0212697
0.335011
0.20612
0.0526676
0.0212841
0.0239785
0.283296
0.0227543
0.0311556
0.0227833
0.0355277
0.0203684
0.0243786
1.48604
0.26517
0.0206049
0.0214512
1.02564
0.0235001
0.0492169
0.0244453
0.263125
0.0212599
0.0240628
0.246259
1.20411
0.0533893
0.0203507
0.0209939
0.0203763
0.0215158
0.0443015
0.209601
0.30519
0.0205823
0.285177
0.0227506
1.03762
0.329212
0.0210177
0.126724
0.0499226
0.0206872
0.0444788
0.0283314
0.0216521
0.263366
0.0208119
2.20871
0.024982
2.29894
0.214061
0.0397922
0.0213283
0.0245029
0.0218085
0.0208402
0.0202067
0.0201075
1.57246
0.0217389
0.0314721
0.369757
2.12846
0.0313328
0.0336328
0.0203162
0.940504
0.019751
0.310813
0.169285
2.49519
0.140719
0.205645
1.62884
0.0200412
0.021571
0.0201219
0.0544754
0.0221781
0.0677515
0.0235595
0.464172
0.0246889
0.0201947
0.0202244
0.021476
0.0200425
0.264597
0.0617687
3.42862
0.0206324
0.0243783
0.0227389
0.0224082
0.07734
0.0214208
0.204588
0.219236
0.0217589
0.0213932
0.339467
0.0247494
0.169034
0.141573
0.0215989
0.218395
0.022364
3.79543
0.0209566
0.0410705
0.0209541
0.246304
0.029496
0.274643
0.25021
0.404262
0.0989793
0.0400771
0.0210191
0.0211197
0.225147
0.266566
0.0850195
0.0253581
1.38476
0.237471
0.32843
0.0364152
0.376172
0.0245949
0.0296291
0.0527961
0.0222074
0.0240948
0.0241526
0.0198013
0.0204295
0.0209189
0.0212062
1.55807
0.0217851
0.27086
0.0774285
0.102295
0.274081
0.262617
0.0201546
0.0216466
0.322864
0.0373009
0.0277611
0.230341
1.14736
0.2476
0.0207811
0.0285644
0.0231629
0.0706722
0.0442131
0.328254
0.269484
0.05613
0.0215287
0.0222399
1.51148
0.0352025
0.0471837
0.304645
0.0209601
0.0244375
0.0222993
0.270219
0.0224977
0.0203045
0.020895
0.0221958
1.10643
0.236781
0.0216024
0.0585731
0.103336
0.0221586
0.0473051
0.0244496
0.0274299
0.0243222
0.0285097
0.117437
0.0210878
0.0206719
0.0218295
0.264852
0.0786377
0.0294292
0.0218355
0.0222157
0.0215701
0.854827
0.0299172
0.0224717
0.021542
0.215592
0.0227896
0.256039
0.0221033
0.0264541
0.0209849
0.122687
0.0300867
0.0522698
1.66074
0.0205177
0.0240396
0.198444
0.0227869
0.288014
0.104172
0.0215118
0.0222336
1.06256
0.02131
1.0994
0.0215113
0.431346
0.27508
0.218036
0.0223085
0.0209774
0.0211439
0.0212732
0.0231235
0.0198129
0.021679
0.0209594
0.0206703
0.0225501
0.0222045
0.0216924
0.022098
0.146211
0.0214772
1.58432
0.0217508
0.0214789
1.60369
0.0210769
1.66463
0.378645
0.0214742
0.0218058
0.0357679
0.255363
0.0242285
1.68784
0.025941
0.022491
1.02641
0.0205763
3.1128
0.0214828
0.20351
0.0198818
2.74016
0.877428
0.386555
0.0216413
0.022565
0.0207659
0.022524
0.0576535
0.0208705
0.0213218
0.0407714
0.0242887
0.383419
0.275371
0.0217716
0.0335414
0.02143
0.0252995
0.0219452
0.0213348
0.0217831
1.23161
2.04029
0.0475318
0.022414
0.0217694
0.022098
0.0975043
1.96035
0.0499872
1.14055
0.249855
0.0222122
0.022647
0.082731
0.0207623
0.0225754
0.0247675
0.0221098
0.24625
0.0222181
0.22981
0.0205816
0.0217529
0.0834743
0.0223145
0.022775
0.0225328
0.0243639
0.299162
0.0225682
0.0215954
0.0216046
3.57409
0.0218759
0.0229309
0.0217747
0.020693
0.021959
0.0211603
0.0471969
0.0209041
0.0208917
0.0214757
0.0239988
0.028833
0.0215927
1.71043
0.0217178
0.0218123
1.68715
0.0224261
0.0229192
0.137914
0.0217029
0.342698
0.02077
0.0207007
0.0217917
0.0248045
0.0204145
0.171266
0.0217785
0.0210024
1.16355
0.266651
2.78281
0.256383
0.401447
0.024043
0.0205493
0.0223115
0.283877
0.0253637
0.654814
0.0219305
0.0304353
0.0365823
0.0370133
0.0206743
0.367594
0.0849745
0.020954
0.0239835
0.0216545
0.0219025
0.0494725
0.064944
0.0214632
0.0207432
0.0200275
0.130865
0.0215805
0.0402883
0.0329
0.0215514
0.02094
0.0210043
1.87137
0.0383466
0.0208734
1.53525
0.0524884
0.0217571
0.178856
0.0215221
0.0205571
0.0206746
0.0214743
0.0201372
0.0212251
0.0216147
0.0220974
0.0215359
0.0764226
0.0223038
0.581605
0.0273947
0.0212484
1.47282
0.0200089
0.020644
0.052209
0.0209308
0.361115
0.0210372
0.0705956
0.85062
0.0206251
1.59791
0.29371
0.0214282
0.0218253
0.021187
1.53703
0.0214938
0.28568
0.223034
0.0217733
0.0249361
0.0354257
0.115484
0.0211342
0.268844
0.0215611
0.0330068
1.48619
0.0376229
0.396826
0.0208716
0.0854895
0.107541
0.101308
0.0214521
0.0557045
0.0221934
0.0465052
0.0203992
0.0227626
0.110457
0.0245794
0.0531484
0.0258551
0.0243346
0.243884
0.0205495
0.0290074
0.0214867
0.0242295
0.11539
0.063054
0.383818
0.0330416
0.0239178
0.209102
0.0244456
0.0209753
0.0203576
0.0217557
0.0222424
0.0236979
0.0210493
0.797785
0.02487
0.0210487
0.0200824
0.0213052
0.0212568
1.42532
0.0206619
0.137204
0.0223846
0.940648
0.0215427
0.0214447
0.0196911
0.0697295
0.0214154
0.163405
0.437839
0.126412
0.0237537
0.0218003
0.0214008
0.0209244
0.0208091
0.231619
0.0218774
0.0217074
1.0085
0.0213844
0.021938
0.19562
1.555
0.252891
0.0212187
0.173385
1.1197
0.0210135
0.0206279
0.0294371
1.01661
0.11875
0.237817
0.114716
0.0212854
0.02071
0.0702183
0.0252984
0.0216603
0.0295401
0.0216174
0.0224191
0.326034
1.18199
0.0267691
0.0248343
0.0239797
0.0292824
0.300105
0.0214661
0.0209088
0.0214023
0.0583978
0.0208731
0.023448
0.118216
0.207734
0.0204269
0.0208365
0.0197093
0.0214841
0.0211342
0.0323908
0.0532039
0.0218882
0.0897425
0.312865
0.735917
0.0243636
0.0220535
0.0214275
0.0211792
0.0207302
0.0200219
0.0214852
1.15699
0.708752
0.0205197
0.0205585
0.0217735
0.0216585
1.17808
0.0331228
0.107126
0.264964
0.0308685
0.0585104
0.0212867
0.0210615
0.0212184
0.0216206
0.610969
0.0212616
0.0232461
1.49175
0.255365
0.241743
1.48075
0.546971
0.217742
0.0213354
0.0306371
0.834509
0.717859
0.0213926
0.0214382
0.0208347
0.0214089
0.0214445
1.19499
0.0210159
0.0209757
0.69149
0.0230847
0.180054
0.0212469
0.0206279
0.0307639
1.48455
0.0302052
0.288904
0.0230948
1.07217
0.0327381
0.0209677
0.139684
0.0210732
0.0229162
0.0215065
0.0205358
2.60032
0.935323
0.255844
0.09967
0.292164
0.308193
0.678283
0.0207799
0.0216968
1.62611
0.021321
0.0215802
0.0226187
0.0213571
0.940361
0.0214932
0.108051
0.0302642
0.0200273
0.176917
0.0216876
0.0211407
0.0239302
0.0238523
0.0240988
0.0244029
0.0244339
0.394887
0.0216265
0.0212575
0.0205265
0.037988
0.0619399
0.0209051
0.0219869
0.0276763
0.847609
0.0210262
0.0244587
0.024442
0.0202371
0.0213094
0.0210326
1.01791
1.35228
0.0243704
0.0220185
0.0213813
0.0293285
0.0724702
0.0215553
0.0641646
1.0379
0.0214777
0.0294078
0.124682
0.203774
0.031847
0.020146
0.0207075
0.593982
0.0402608
0.191475
0.0240632
0.892569
0.0306589
0.0702072
0.0286442
0.262314
0.0458571
0.21128
0.256241
0.684346
0.0218081
0.235551
0.0213578
1.20681
0.0221751
0.0218711
0.0242621
1.23513
0.292838
0.0222006
0.0214902
0.0534508
1.09203
0.924708
0.0207445
0.0209684
0.0212723
0.0237179
0.0216653
0.0361691
0.0942207
0.185977
0.0233601
0.0207
0.0932758
0.0215842
0.0213522
0.330495
0.0212509
0.0227398
0.0200653
0.401736
0.0529669
0.262555
0.0216249
0.0530796
1.0445
0.0307472
0.329082
1.11989
1.14783
0.537253
0.0210171
0.0214492
0.0700359
0.0213958
0.0216255
0.0210306
0.0217844
0.028158
0.0257378
0.0209949
0.425216
0.0209857
0.248831
0.022137
1.07192
1.23645
0.0266099
1.63458
0.246258
0.0354416
1.19109
2.29276
0.0217075
0.0215013
0.0310566
0.0280426
0.168987
0.0209814
0.0215501
0.221906
0.0213384
0.0207227
0.0218512
0.0200771
0.3474
0.0215035
0.02837
0.0215755
1.76315
0.0212378
2.31573
0.194605
0.366299
0.11794
0.0200584
0.0241811
0.0217073
0.0212804
0.578539
0.0468941
0.0647874
0.193554
0.01997
0.0224992
0.0231501
0.0214045
0.228798
0.0209169
0.0264977
0.135319
0.191848
0.0444664
0.0212372
0.0217709
0.181702
0.0277581
0.0312356
0.538568
0.769477
0.236259
0.0218825
0.0209151
0.020904
0.0217547
0.0823522
0.0222266
0.0502688
0.0214107
0.0216384
0.330279
0.0201737
0.319546
0.0241943
0.0215705
0.024279
1.26097
0.0207066
0.0223302
0.626572
0.0214176
0.0214579
0.0380957
0.951455
0.0231491
0.027739
0.0204215
1.16439
0.414744
0.082118
0.0214222
0.020707
0.0279923
0.0215059
0.303124
0.0583386
0.226597
0.149466
0.0212452
0.118757
0.0209702
0.855981
0.0214009
0.543859
0.301896
0.0213727
0.629641
0.0213094
0.925362
0.034122
0.0204013
0.0300651
0.020774
0.0209174
0.0205583
0.0198722
0.0257399
0.101681
0.0214537
0.0205953
0.0899859
0.0201034
0.021867
0.0218789
0.0211599
0.0213667
0.056765
0.0309558
0.019933
0.0221407
0.0220213
0.0213294
0.242831
0.0652744
0.0213629
0.0209242
0.0215021
0.0296217
0.0214967
0.0219585
0.0220197
0.0533966
0.0199554
0.0222805
0.297617
0.0214879
0.0518988
0.0212495
0.0214023
0.0210173
0.0211404
0.0206363
0.0212897
0.308896
0.175151
0.0206153
0.0219674
0.0227548
0.485046
0.0269886
0.0467286
0.0212405
0.0217665
0.0689175
0.0226492
0.21235
0.0326622
0.0210611
0.0207678
2.04138
0.0217605
0.375531
1.21226
0.0210529
0.0565809
0.0830252
0.290498
0.0490572
0.0315664
0.0267875
0.0209904
0.225158
0.0214414
0.0236106
0.0310075
0.0200447
0.0213317
1.82088
0.0207395
0.111996
0.681938
0.0217418
0.0213742
1.93077
0.0212402
0.0461181
0.0203855
0.0503011
0.752528
0.204405
0.0212584
0.0208362
0.0218211
0.0684009
0.629094
0.191798
1.06398
0.026391
0.0212854
0.0493203
1.67938
0.0213966
0.0201217
0.0242021
0.0210308
0.513281
0.0435704
0.0203696
0.395172
0.0208238
0.020757
0.0203741
0.0212415
0.0213376
1.79968
0.0211301
0.0631178
0.0207842
0.0217281
0.02178
0.0217537
0.0211524
0.0212553
0.0282512
0.0206263
0.0470501
0.280734
0.0430055
0.0243942
0.0456108
0.0289608
0.0211096
0.0200849
0.0212696
0.020139
1.60789
0.23895
0.0223219
0.0222103
1.06689
0.0222037
0.258262
0.0216937
0.0210301
0.0215115
0.0443193
0.35441
1.05171
2.22921
0.0244227
0.0413623
0.0468343
0.0212275
0.0210735
0.0207328
0.0263359
0.0272141
1.57075
2.85
0.028271
0.0209094
0.0307399
0.0211706
0.0462221
0.0211416
0.0676459
0.0218467
0.299361
0.0318372
0.0217321
0.0244536
0.0424763
0.0282758
0.0894969
0.0210434
0.0206985
0.0213439
0.0212578
0.485326
0.0205183
0.0216994
0.027143
0.0199397
0.210006
1.19229
0.0341533
0.0213167
0.0215462
0.560857
0.18943
0.0210522
0.0212853
1.27001
0.0213036
0.0213019
0.328183
0.0243828
0.0782353
0.298765
0.287739
0.0297519
0.0209413
0.02134
0.0257146
0.0210445
0.0209166
0.657067
1.16035
0.0208455
0.0210143
0.0209239
0.0219379
2.15925
0.0210105
0.0219393
0.0214006
0.0203871
0.0209778
0.0321631
0.0226739
0.0208963
0.0201064
0.021708
0.0207058
0.0295895
0.285609
0.0287417
0.0207437
0.0210774
0.0213003
0.0209742
0.247235
0.0213938
0.193354
0.529976
0.0210564
0.0206445
0.254814
0.0206896
0.020798
0.020941
0.0580108
0.0240987
0.0289848
0.0209424
0.0199141
0.0213534
0.192746
0.0210308
0.021624
0.0337145
0.284668
0.0292807
0.0199515
0.273867
0.0195769
0.5371
0.0209454
0.0200847
0.0206597
0.0215285
0.0211676
1.19603
0.0895858
0.244887
0.0598126
0.0266972
1.70505
0.0213314
0.31984
0.0740195
0.0221907
0.316507
0.0396424
0.0469894
0.0212098
0.68616
0.0215906
0.0206882
0.0209029
0.09323
0.372881
0.0238382
0.222921
2.60846
0.0656075
0.0213247
0.0227668
0.0368198
0.115398
0.523623
0.0249956
0.0214727
0.0345778
0.191548
0.0208283
0.288173
0.0220427
0.234239
0.02061
0.0204349
0.0258273
0.0250767
1.35978
0.0787081
0.40902
0.0209312
0.0210307
0.465496
0.34708
1.10676
0.0208196
0.0223674
0.0207121
0.0209911
0.0210247
0.314149
0.133044
0.427479
0.329598
0.445576
0.055026
0.0208804
0.0214811
0.0207546
0.0205559
0.0281417
0.0210646
0.0213114
0.0212797
0.0209054
0.0249883
0.27025
0.0292542
0.0207811
0.0209725
1.17286
0.0278524
0.0226468
0.026721
0.0497028
0.272328
0.0209366
0.025056
0.49941
0.0208043
0.0600533
0.0210442
0.020953
0.020861
0.374283
0.0209221
0.0207249
0.0215999
0.0216863
0.0208845
0.0207831
0.553361
0.125698
0.260616
0.0218583
0.0208505
0.447836
0.0212108
0.0205315
0.0207782
0.525526
0.0213212
1.12474
0.020092
0.0207448
0.038316
0.0436843
0.0207694
0.0394407
0.0956208
0.189197
0.0208456
0.0197496
0.020804
0.197305
0.0217178
0.0244109
0.803992
0.0209869
0.0204107
0.0219537
0.0208641
1.16785
0.0209011
0.0213255
0.0209582
0.0271655
0.212956
0.021318
0.0207165
0.0214575
0.0968609
0.0753581
0.267282
0.0241271
0.530832
0.0205214
0.0209238
0.702363
0.13424
0.0212707
0.0209659
0.542218
0.0330624
0.0208886
0.0208164
0.0207577
0.0209463
0.0209379
0.354772
0.0218803
0.0242408
0.188058
0.0570735
0.0211127
0.0293022
0.0286603
0.49328
0.0238082
0.0259561
0.02129
0.480029
0.0211987
0.0280723
0.213419
0.0215162
0.0762237
0.193996
0.0210224
0.0221176
0.541546
0.274328
0.0221837
0.0207462
0.0205019
0.661739
0.0208825
0.0207394
0.0271338
0.0235122
0.0209575
0.0313654
0.280572
0.0206565
0.0239371
0.0220597
0.0208286
0.0204639
0.0209241
0.0204249
0.111467
0.0219432
0.0226341
0.0207227
0.0200064
0.0207426
0.0208614
0.0218745
0.0267569
0.0232587
0.539888
0.0209887
0.0208916
0.0246214
0.0207582
0.0199623
0.0220803
0.31107
0.0208126
0.514851
0.0260032
0.539286
0.0202237
0.512857
0.371871
0.325445
0.0206138
0.0209551
0.531036
0.0209598
0.265406
0.021065
0.0262285
0.0230015
0.0209901
0.258436
0.535265
0.266772
0.294139
0.0257069
0.0207253
0.0208194
0.149506
0.184329
0.0208806
0.0214309
0.0200483
0.0214644
0.020449
0.362481
0.0206937
0.0202574
0.0214917
0.0219142
0.0360136
0.0252273
0.0219351
0.020722
0.0205287
0.269173
0.0257104
0.0196983
0.739509
0.0439628
0.02612
0.0258372
0.0273754
0.0203871
0.0209052
0.0521923
0.453032
0.296185
0.0209568
0.0206213
0.570302
0.179109
0.0249978
0.0208963
0.0251299
0.0207085
0.0216904
0.021986
0.0241123
0.0198987
0.0208053
0.0204224
0.020839
0.0207164
0.0229074
0.0206637
0.0647587
0.41992
0.0206096
0.0208457
0.0199804
0.0209978
0.0213922
0.0209994
0.51429
0.542951
0.0209178
0.0220708
0.302823
0.0211326
0.113146
0.222023
0.191691
0.020654
0.387145
0.0272493
0.232046
0.0236485
0.020729
0.215617
0.262571
0.208442
0.0219786
0.0203612
0.291399
0.427396
0.0206312
0.0206905
0.0207629
0.0242524
0.0264659
0.0214625
0.0207087
0.0205894
0.557159
0.0712815
0.0312288
0.0210804
3.10803
0.40995
0.0205252
0.0261038
0.0210074
0.020897
0.020859
0.178976
0.0208156
0.0900145
0.0208173
0.0207023
0.0208645
0.0204999
0.0210094
0.0262481
0.0200031
0.0206402
0.0318157
0.0206057
0.0216817
0.0205628
0.0202419
0.891263
0.0610341
0.0208754
0.498738
0.020889
0.0206103
0.0293658
0.0235105
0.325421
0.0199155
0.0205484
0.0214122
0.0206843
0.0415584
0.0205178
0.0208264
0.0378746
0.0196521
0.0210395
0.0209403
0.02083
0.0314839
0.0210408
0.0582699
0.222544
0.044366
0.957303
0.0200239
0.0205629
0.110731
0.0207944
0.481088
0.019983
0.307928
0.249127
0.02009
0.0205279
0.0212497
0.0519797
0.0209139
0.0208927
0.0218821
0.0395917
0.184912
0.0220685
0.209609
0.0196661
0.326757
0.367208
0.324429
0.271141
0.0418509
0.245012
0.0206214
0.0208522
0.0293616
0.317486
0.0211884
0.0207285
0.0208034
0.508046
0.0201513
0.0201085
0.0264194
0.0205668
0.450455
0.0208804
0.447088
0.0319455
0.022565
0.0212295
0.0207917
0.0209527
0.0297193
1.23078
0.0500098
0.0399683
0.451649
0.369148
0.0211011
0.0235581
0.43583
0.0214674
0.0205959
0.423299
0.073014
0.433753
0.364395
0.303495
0.0277886
0.0212776
0.0209738
0.087458
0.319374
0.257054
0.394503
0.0197146
0.0213397
0.0224487
0.0867282
0.447102
0.020626
0.0239415
0.571297
0.0216405
0.0233896
1.93753
0.308663
0.0476472
0.0223086
0.0207725
0.0279067
0.0210855
0.0196804
0.439066
0.0213217
0.0202247
0.233873
0.0201585
0.0205443
0.393482
1.00837
0.453476
0.0202371
0.332467
0.020478
0.267572
0.282787
0.0721069
0.0209402
0.278785
0.025558
0.109789
0.0205505
0.0204082
0.0408218
1.47917
0.192816
0.020757
0.0208359
0.0203665
0.020681
0.032438
0.0209539
0.0539672
0.0223813
0.246388
0.0202315
0.3369
0.0211108
0.0203869
0.0207331
0.356396
0.356079
0.019653
0.0199771
0.0204102
0.0207022
0.210797
0.0205442
0.0646597
0.0235957
0.0340636
0.263106
0.209507
0.140734
0.227245
0.0305082
0.0275144
3.70656
0.048166
0.310671
0.066655
0.339865
0.0205778
0.0296272
0.220707
0.0205137
0.465402
0.402927
0.0615766
0.32039
0.0205066
0.269597
0.174708
0.453872
0.0214649
0.0206768
0.835988
0.0463855
0.233326
0.0207548
0.258005
0.0211325
0.237065
0.524088
0.234455
0.0207383
0.0220103
0.206851
0.319413
0.0203977
0.444916
0.106906
0.236027
0.0210293
1.53022
0.020483
0.266503
0.322142
0.306968
0.248863
0.23827
0.0250954
0.256643
0.0235356
0.0592098
0.0213367
0.200898
0.0213813
0.0206565
0.0274363
3.43887
0.0213337
0.253858
0.286864
0.0553634
0.0431217
0.148856
0.0201586
0.209503
0.0272035
0.169946
0.0207036
0.0214344
0.0214382
0.333791
0.0203971
0.332067
0.319105
0.0318829
0.0218281
0.0222158
0.0198833
0.113832
0.281797
0.0201018
0.0882876
0.0957865
0.619878
0.289657
0.0206393
0.0210086
0.0206044
0.0251226
0.0212321
0.0206261
0.03303
0.0226893
0.0213373
0.0199537
0.0206041
0.0240342
0.106371
0.0214058