/*--------------------------------*- C++ -*----------------------------------*\
| =========                 |                                                 |
| \\      /  F ield         | OpenFOAM: The Open Source CFD Toolbox           |
|  \\    /   O peration     | Version:  v2012                                 |
|   \\  /    A nd           | Website:  www.openfoam.com                      |
|    \\/     M anipulation  |                                                 |
\*---------------------------------------------------------------------------*/
FoamFile
{
    version     2.0;
    format      ascii;
    class       volScalarField;
    location    "950";
    object      omega_0;
}
// * * * * * * * * * * * * * * * * * * * * * * * * * * * * * * * * * * * * * //

dimensions      [0 0 -1 0 0 0 0];


internalField   nonuniform List<scalar> 
10042
(
0.231031
0.613073
0.0401841
0.0211263
0.02107
0.319207
0.927957
0.317071
0.0201056
0.0470737
0.253202
0.66078
0.0313109
0.0209182
0.0215308
0.0209043
0.421314
0.294253
0.0228714
0.026062
0.0310732
0.235238
0.0211109
0.463141
0.020989
0.0217167
0.0448835
0.0200328
0.350103
0.456742
0.0225704
0.0398902
0.0200792
0.020074
0.303537
0.281053
0.0220506
0.0202558
0.0217948
0.0210748
0.460418
0.0200989
0.110941
0.796192
0.0210613
0.0209841
0.0198591
0.021513
0.0528625
0.180025
0.114091
0.0209826
0.401082
0.0227057
0.353495
2.44887
0.029762
0.113769
0.0215422
0.0195697
0.0561948
0.921766
0.0958822
0.320095
0.0359784
0.0212878
0.0253859
0.238874
0.019835
0.238036
0.135391
0.0223401
0.0203925
0.0215223
0.0212386
0.131567
0.0508939
0.0198557
0.0574718
0.0229412
1.06449
0.461883
0.0240136
0.0208882
0.0348283
0.3091
0.0248598
0.0398379
0.0208909
0.0351397
0.0260781
0.0215424
0.0940786
0.667291
0.0324167
0.0212979
2.9464
0.0254838
0.445629
0.0215058
0.0256696
0.167396
0.0216654
0.0342306
0.0234869
0.0214971
1.67119
0.0211888
1.21039
0.0215291
0.0214936
1.07886
0.146094
0.307426
0.0333832
0.0198283
0.0344551
0.0223811
0.0723804
0.019807
0.0195689
0.324175
0.286345
0.0210707
0.0385456
0.0209583
0.0209865
0.339541
0.113905
0.0311021
0.0202286
0.0210702
0.0212134
0.0211413
1.20792
0.138822
0.0254043
1.75084
0.0220833
0.50283
0.064393
0.0204496
1.62423
0.0200392
0.0242944
0.0202576
0.031968
0.0198209
0.022252
0.244594
0.0211256
0.0210654
0.0222749
0.035396
0.0311093
0.0245166
0.107333
2.19671
0.021229
0.0220334
0.022232
0.0214974
0.144144
0.0209182
0.0218867
0.194126
0.0203823
0.0353555
0.292711
0.0200441
0.0363724
0.449283
0.132488
0.0200572
0.0226632
0.176574
0.021035
0.0202444
0.0210325
0.0198352
0.0220319
0.023471
0.0215237
0.0197917
0.250865
0.0265598
0.0223505
0.0196172
0.197713
0.02134
0.838286
0.029594
0.0202452
0.0233166
0.246262
0.0215394
0.217063
0.0247469
3.56785
0.0209044
0.133348
0.0787953
0.388611
0.0202697
0.473678
0.0211437
0.367854
0.034648
0.0214712
0.0211695
0.0379173
0.020162
0.500726
0.0587241
0.0221653
0.233941
0.0202163
0.0794757
0.0213296
0.127983
0.460646
0.0345323
0.463549
0.235056
0.021122
0.0813847
0.0218588
0.0249028
0.0373412
0.0216951
0.0202456
0.021042
0.0266151
0.0230849
0.0210291
0.308672
0.0241733
3.14578
0.0238226
0.459558
0.0496689
0.363338
0.0195591
0.0218945
0.247017
0.0211504
0.366894
0.0236458
0.0223274
0.0215325
0.0232356
0.0202557
0.507698
0.564281
0.022138
0.0238467
0.021709
0.0222458
2.75801
0.0211018
0.0374608
0.020307
0.0209691
0.0198723
0.0324989
0.573944
0.0349155
0.537419
0.0232847
0.0210655
0.0213531
0.175435
0.0208104
0.154928
0.0221121
0.0390423
0.0219172
0.0210245
0.0233695
0.197934
0.020031
0.170516
0.224383
0.0218702
0.0234898
2.58901
0.0494304
0.0199075
0.222122
0.0213878
0.0284241
0.0260385
0.0239302
0.241296
0.0372929
0.0208271
0.643357
0.0247548
0.021363
0.0202705
0.0222169
0.2483
0.0196192
0.0771638
0.0526057
0.913785
0.0209223
0.0246179
0.8464
0.19085
0.0227056
0.0210783
0.0212831
0.0208332
0.0252017
0.220461
0.0198761
0.247477
0.433821
0.0198169
0.0220478
0.161229
0.0337032
0.244354
0.255032
0.0225345
0.0260893
0.0210072
0.0243273
0.0275043
0.0211373
0.0213551
0.223172
0.0212892
0.410616
0.243352
1.74557
0.24443
0.0202707
0.158696
0.0636053
0.0308336
0.0195633
0.0281485
0.0227187
0.0202324
0.0207236
0.02123
0.025161
3.34834
0.0216675
0.0331284
0.0252983
0.0203749
0.635363
0.0258638
0.0218747
0.0239217
0.176876
0.0225331
0.0214618
0.0221864
0.0218764
0.426179
0.1455
0.0219378
0.0210027
0.0238762
0.0240185
0.435913
0.019584
0.0242956
0.0208544
0.0215576
0.129165
0.0210786
0.0447332
0.274799
0.348657
0.0566255
0.0213863
0.126699
0.0372205
0.0209842
0.0445851
0.0198179
0.0214164
0.0197971
0.0211746
0.0199067
0.0220943
2.07551
0.0216558
0.0266683
0.153801
0.741711
0.0211855
0.30975
0.0220901
0.0399487
0.0209955
1.26731
0.0216603
0.511141
2.71661
0.0203838
0.0584763
0.0212223
0.0466795
0.021975
0.522918
0.0250326
0.320581
0.0216268
0.30764
0.0219558
0.025728
0.427552
0.0199152
0.0217748
0.0210467
0.196831
0.0202345
0.0197768
0.0688131
0.0228943
0.0380703
0.522035
0.0210848
0.0310316
0.0228664
0.0198553
0.0250713
0.288986
0.0208656
0.021823
1.59184
0.0580702
0.0220468
2.61691
0.0200618
0.0261295
0.0309448
0.179649
0.147913
0.247037
0.302123
0.131443
0.319785
0.019763
0.0309784
0.348627
0.281299
0.0426191
0.0211087
0.0207546
0.0323998
2.84582
0.019795
0.0201369
0.0228328
0.0211575
0.0210361
0.0211757
0.0211275
0.0239645
0.239826
0.0218795
0.0258781
0.0364102
0.130577
0.0200717
0.97682
1.63285
0.209271
0.0211333
0.0248851
0.0219176
0.970706
0.0213541
0.0278596
0.0216166
0.433374
0.0205964
0.0233042
0.0201375
0.0287256
0.5792
0.0218106
0.0207952
0.0211139
0.911326
0.020297
0.0295941
0.0390134
0.0579477
0.0202652
0.0298942
0.293243
1.53502
0.0214252
0.022741
0.249891
0.740498
0.0352246
0.342882
0.0215133
0.227144
0.0293849
0.0267362
0.0230394
0.370662
0.0202398
0.0210936
0.0215733
0.245773
0.0210822
0.0268039
0.0211582
0.0214028
0.0201085
0.025606
0.339129
0.0216476
0.021814
0.354935
0.0281992
0.0355134
0.0216263
0.0211409
0.235451
1.38024
0.0214093
0.019965
0.0365552
0.0213194
0.0213115
0.244445
0.0202231
0.281467
0.0209846
0.0418058
0.023189
1.19624
0.021093
0.0252812
0.021449
0.0203565
0.336257
0.0195577
0.621095
0.0353369
0.0201181
0.0245948
1.74499
0.0677068
0.031959
0.021251
0.0199623
0.0198091
0.020622
0.0261542
0.0215363
0.253802
0.0212757
0.0199852
1.88049
0.0234839
0.0272907
0.0223368
0.0207775
1.85871
0.413698
0.0226556
0.320691
0.0213544
0.025793
0.0200383
0.0201206
0.0211383
0.0210788
0.0214424
0.021357
2.44608
0.0215834
0.54994
0.0209907
0.0224161
0.0198865
0.0388469
0.0793828
0.0201318
0.0210137
0.251853
0.0333031
0.0199043
0.266941
0.0210279
0.203402
0.0202692
0.0221689
0.0203445
0.188202
0.0198928
0.0209424
0.0211706
0.191821
0.0219747
0.0211196
0.0213414
0.0491828
0.0211811
0.0210869
0.0203907
0.0210956
0.0231878
0.0210487
0.0218543
0.0200523
2.60722
0.806313
0.5813
0.0219479
0.0233395
0.0212813
0.0859122
0.0220636
0.455322
0.581138
0.57354
0.203721
0.390463
0.0213557
0.0213739
0.36994
0.0465622
0.0249551
0.0724082
0.0215229
0.405213
0.0208094
0.0214374
0.0200785
0.0202879
0.0221976
0.351764
0.0218529
0.0216101
1.90719
0.0212239
0.108715
0.020888
0.0218381
0.0294975
0.0213554
0.403425
0.0210125
0.0210476
0.198938
0.0214171
0.019782
0.0226945
0.0208465
0.0207784
0.570684
0.437727
0.50574
0.0215016
0.0208649
0.0208487
0.410738
0.0225208
0.021203
0.0204178
0.0206906
0.41395
0.162901
0.114079
0.0219977
0.0235205
2.17585
0.0257667
0.0263889
0.0369906
0.225204
0.860829
0.418305
0.0207979
0.021279
0.0210445
0.312499
0.0207862
0.0238877
0.0211564
0.0195655
0.0279324
0.0216543
0.196442
0.295024
0.0198926
0.0210481
0.0197605
0.252091
0.0202766
0.497134
0.0231826
0.191396
0.0208526
0.0206933
0.0201369
0.0210822
0.0213387
0.0196998
0.0213641
0.021636
0.0292664
0.023074
0.579846
0.0213675
0.043003
0.244461
0.0224669
1.99093
0.0209542
0.0211182
0.0221578
0.0214329
0.280462
0.0211467
0.0218417
0.0201179
0.176972
0.0206394
0.308497
0.0323959
0.0208731
0.483292
0.305979
0.0207386
0.020406
0.0711177
0.0243042
0.516426
0.0266264
0.0580831
0.0276601
0.0214867
0.0214434
0.0212792
0.0278494
0.022689
0.213203
0.116808
0.0195637
0.0207589
0.021948
0.0308197
0.0243298
0.477753
0.0215721
0.0214363
0.56935
0.0208473
0.0649208
0.0273667
0.0236747
0.292476
0.0238579
0.0209123
0.0218684
0.0341232
0.0209802
0.715048
0.0216084
0.0330057
0.0241688
0.118945
0.0216815
0.025779
0.0237485
0.0216684
0.0312613
0.0200544
0.0303188
0.0209899
0.0216134
0.0207691
0.0213191
0.022175
0.0365916
0.0222873
0.0215043
0.246331
0.0200692
0.0208631
0.0210038
0.0197777
0.142487
0.022194
0.0226183
0.0781435
0.239786
0.0213267
0.0444356
0.419701
0.0206702
0.0210623
0.0197599
0.278805
0.229155
0.02324
0.0208628
0.0390493
1.02206
1.17324
0.0221621
0.339385
0.120181
0.580345
0.0233773
0.0197275
0.0210799
0.585189
0.0777551
0.0215934
1.1079
0.116121
0.288441
0.23934
0.0212259
0.0370194
0.575123
0.0404887
0.385482
0.0276695
2.26656
0.0224398
0.430188
0.0214068
0.059689
0.0224301
0.0300116
0.0196363
0.0214647
0.0210361
0.664364
0.0210787
0.0195759
1.51759
0.0213627
0.025082
0.0224001
0.223982
0.020939
0.0218771
0.0215257
0.021251
0.0212155
0.0245333
0.0207878
1.53706
0.097057
0.0393907
0.0211092
0.464051
0.0207451
0.063721
0.253944
0.0232784
0.0212413
0.0198279
0.0212437
0.0221458
0.0716627
0.0381157
0.0208582
0.0878052
0.0208897
0.0215039
0.445569
0.0197923
0.0215981
0.0816386
0.0208717
0.0670023
0.022088
0.0587931
0.0252974
0.0354936
0.0244928
0.0212977
2.02646
2.02329
0.0210009
0.0291707
0.185207
1.54602
1.34335
0.0221778
0.0204969
0.0240207
0.0214693
0.0223422
0.364663
0.0232803
0.0198066
0.031941
0.156327
0.241875
0.0198237
0.0197612
0.0217795
0.0215443
0.390457
0.585988
0.0202115
0.0241025
0.232699
0.0213196
0.0226997
0.45018
0.0229111
0.172403
0.021321
0.0213293
0.021501
0.0217203
0.064625
0.0381965
0.021206
0.387735
0.0808471
0.18159
0.0229802
0.0227033
0.547478
0.034809
0.207528
0.0297373
0.0213636
0.0209882
0.14986
0.0711842
0.0217801
0.0237909
0.0388186
0.0210668
0.0372368
0.0217908
0.0210081
0.021883
0.0334295
0.0209046
0.0210368
3.84433
0.0207671
0.0204789
0.0388514
0.0243526
0.377316
0.022444
0.0218085
0.202269
0.0381847
0.0227104
0.0298009
0.390799
0.0209461
0.0200938
0.0244655
0.0639198
0.0208225
0.0216347
0.0209729
0.0206302
0.0207692
0.252836
0.0213295
0.554188
0.0214146
0.0328226
0.0202599
0.0215954
0.032337
0.440482
0.154313
0.0212569
0.0225801
0.372776
0.185116
0.0237621
0.0218296
0.398975
0.0209616
0.0240112
0.0361788
0.0208594
0.0222939
0.0210034
0.0354024
1.66843
0.551111
0.0206825
0.0220778
0.0247301
0.149376
0.0206973
0.0204199
0.0380379
0.0196522
0.0206326
0.33157
0.0216592
0.589055
0.0202171
0.0204405
0.0200768
0.0311267
0.0218972
0.0214755
1.62306
0.0206521
0.0216026
0.778107
0.0210685
0.0336476
0.0227755
0.072088
0.350237
0.022839
0.250642
0.0261434
0.0214172
0.209853
0.0217816
0.0209466
0.0198509
0.0209648
0.0243138
0.148683
0.0358836
0.192635
0.212525
0.263421
0.0455492
0.355203
0.022855
0.30616
0.0200318
0.0262847
0.0214891
0.021591
0.0218893
2.0474
0.207454
0.0212573
0.587285
0.0204502
0.916242
0.0212331
0.0227575
0.0221066
0.114884
0.587693
0.0211488
0.0199194
0.1618
0.090738
0.025277
0.0234051
0.57362
0.021875
0.259008
0.257203
0.020764
0.0205984
0.0208592
0.0236307
0.020893
0.0218684
0.0221489
0.0210811
0.021914
0.0217158
0.020796
0.32623
0.327824
0.0199116
1.1019
0.0222769
0.0391133
0.0413689
0.0484723
0.0207548
0.0495887
0.0427738
0.0201673
0.0389142
0.582313
0.0215654
0.0206163
0.0220313
0.326531
0.205018
0.0201858
0.0327849
0.0214584
0.0215058
0.376381
0.0207472
0.0205537
0.020462
0.0207578
0.0220659
0.250834
0.0244397
0.0206725
0.0213216
0.0207535
0.0210824
0.181123
0.0198924
0.0295834
1.11155
0.561183
0.0205811
0.428686
0.0204084
1.12821
0.0220271
0.0383212
0.0200287
0.579364
1.65827
1.61696
0.0213763
0.063326
0.242791
0.337325
0.0218221
0.261975
0.0210048
0.289528
0.323567
0.0262129
0.158872
0.28541
0.0386495
1.14271
0.0946542
0.318017
0.0205752
0.0222177
0.268951
0.0637698
0.021307
0.410929
0.0218113
0.0207744
0.020374
0.04034
0.064051
0.0309664
0.054545
0.0264275
0.336985
0.0219478
0.0209996
0.0208853
0.0484733
0.257311
0.0262817
0.26064
0.0217365
0.0222676
0.0284482
0.377255
0.0364376
0.0207686
0.180582
0.0726917
0.0220647
0.0376153
0.0201876
0.0316887
0.0313568
0.0206956
0.497416
0.251167
0.0212574
0.0218945
0.0209176
0.226814
0.0225473
0.133921
0.17794
0.0209326
0.0206824
0.0199946
0.029699
0.0204161
0.0245635
0.0225376
0.0251378
0.21634
0.0219957
0.0254941
0.302091
0.0221932
0.031649
0.022175
0.0213877
0.607872
0.250861
0.0219708
0.153594
0.0239528
0.256307
0.0207902
0.020565
0.0259
0.0227219
0.0352236
0.237054
0.0221532
0.0221956
0.252199
0.0302591
0.0228656
0.227129
0.105261
0.265953
0.020928
0.0198664
0.0460772
0.0205124
0.809233
0.258628
0.0454105
0.246096
0.0218168
0.0207227
0.143046
0.251704
0.0209537
0.143609
0.0241303
0.0210785
0.070147
0.0219096
0.0215549
0.0389331
0.0230146
0.0203523
0.022535
0.0209956
0.022614
0.377239
0.0295869
0.319261
0.0212992
0.025294
0.0208541
0.0212675
0.277124
0.021462
0.214549
0.248851
0.0218671
0.29735
0.0324926
0.29617
0.0197759
0.165738
0.0979695
0.0501951
0.0226329
0.0219289
0.0207161
1.7286
0.0228471
0.307894
0.0334985
0.0202832
0.0555423
0.0197375
3.74711
0.0209911
1.04654
0.0211606
0.0205324
0.0201092
0.0694637
0.0207993
0.0201663
0.0200483
0.0208345
0.0213556
0.036799
0.0621465
0.020339
0.0242367
0.0215583
0.0209748
0.0207128
0.048036
2.08555
0.0241664
0.0213429
0.0207223
0.0200714
0.0233788
0.0237327
0.0200801
0.224583
0.288587
0.29745
0.0202457
0.0208316
0.021321
0.0223923
0.0205915
0.0218139
0.0213322
0.0207547
0.0279654
0.0221795
0.0404479
0.167359
2.37569
0.0212272
0.0209673
0.0210504
0.501552
0.0209127
0.0258611
0.0244113
0.0204143
0.0213029
0.0210487
0.514256
0.021269
0.32954
0.207524
0.0526258
0.0212842
0.0239742
0.283736
0.0227539
0.0311482
0.0227831
0.0355009
0.0203685
0.0243729
1.48768
0.264271
0.0206045
0.0214513
1.02528
0.0234963
0.0491762
0.0244455
0.263349
0.02126
0.0240579
0.247088
1.20127
0.053367
0.0203516
0.0209935
0.0203762
0.021516
0.0442778
0.209102
0.299853
0.0205822
0.285172
0.0227505
1.04012
0.327152
0.0210177
0.123999
0.0498307
0.0206872
0.0445505
0.0283277
0.0216523
0.262325
0.0208119
2.19383
0.0249522
2.31001
0.230866
0.039767
0.0213285
0.0244968
0.0218096
0.0208402
0.0202067
0.0201075
1.57796
0.0217389
0.0314746
0.368371
2.13028
0.0313368
0.0336173
0.0203159
0.935795
0.019751
0.309501
0.169267
2.49794
0.14072
0.206783
1.60127
0.0200412
0.0215711
0.0201219
0.0541016
0.022178
0.0677191
0.0235556
0.460253
0.0246832
0.0201947
0.0202249
0.0214761
0.0200425
0.264557
0.061799
3.43285
0.0206321
0.0243783
0.022739
0.0224064
0.0773656
0.0214208
0.204048
0.218785
0.02176
0.0213909
0.338077
0.0247432
0.169488
0.147513
0.0215989
0.217791
0.0223639
3.79442
0.0209566
0.0408757
0.0209541
0.246523
0.0294784
0.287543
0.250919
0.402465
0.0989536
0.040104
0.0210204
0.0211201
0.226795
0.266927
0.085055
0.0253497
1.36828
0.239374
0.328529
0.0363885
0.36634
0.0245944
0.0296162
0.0527804
0.0222083
0.0240942
0.0241524
0.0198013
0.0204294
0.0209189
0.0212057
1.57202
0.0217849
0.271188
0.0774562
0.102335
0.273026
0.260998
0.020155
0.0216468
0.321358
0.0371711
0.0277717
0.231472
1.15529
0.245907
0.0207813
0.0285521
0.0231671
0.0706902
0.0442013
0.328325
0.270016
0.0560873
0.021529
0.0222398
1.51289
0.035108
0.0471489
0.304013
0.0209601
0.0244379
0.0222986
0.264774
0.0224969
0.0203045
0.0208949
0.0221954
1.10741
0.236702
0.0216025
0.0585706
0.100611
0.0221589
0.0473573
0.02445
0.0274282
0.0243227
0.0285084
0.115957
0.0210878
0.0206715
0.0218294
0.282997
0.0786303
0.0294216
0.0218356
0.0222163
0.0215702
0.844717
0.029922
0.0224712
0.0215422
0.213631
0.0227894
0.25691
0.0221046
0.0264508
0.0209848
0.122703
0.0303864
0.0522285
1.65992
0.0205188
0.02404
0.198086
0.0227867
0.28832
0.101025
0.021512
0.0222328
1.09788
0.0213101
1.10089
0.0215116
0.443809
0.2737
0.219546
0.022309
0.0209773
0.0211439
0.0212734
0.0231229
0.019813
0.0216796
0.0209594
0.0206703
0.0225506
0.0222043
0.0216911
0.0220979
0.142563
0.0214772
1.5856
0.0217508
0.0214789
1.60879
0.0210769
1.66901
0.377833
0.0214744
0.0218068
0.035741
0.255674
0.0242283
1.69182
0.0259366
0.0224913
1.0257
0.0205761
3.09495
0.021483
0.201655
0.0198818
2.73098
0.872875
0.386869
0.0216413
0.0225666
0.0207659
0.0225228
0.0574267
0.0208709
0.0213219
0.0407419
0.0242892
0.373163
0.2763
0.0217716
0.0335447
0.02143
0.0252915
0.0219452
0.0213348
0.0217834
1.26431
2.05419
0.0471152
0.0224152
0.0217698
0.0220978
0.0974796
1.96361
0.050141
1.14383
0.250164
0.0222116
0.022646
0.082708
0.0207624
0.0225757
0.0247593
0.0221095
0.244841
0.0222174
0.229116
0.0205832
0.0217539
0.0834335
0.0223136
0.0227729
0.0225326
0.0243674
0.29873
0.0225686
0.0215967
0.021605
3.57788
0.0211459
0.0229312
0.0217756
0.0206931
0.0219592
0.02116
0.0468848
0.020904
0.0208929
0.0214758
0.0240153
0.0288174
0.021593
1.71288
0.0217177
0.0218132
1.68149
0.0224272
0.0229195
0.136478
0.0217038
0.335393
0.0207701
0.0207007
0.0217919
0.0247993
0.0204145
0.173165
0.0217788
0.0210023
1.16641
0.267293
2.77622
0.256734
0.402208
0.0240475
0.0205492
0.0223129
0.284266
0.0253596
0.657527
0.0219317
0.030417
0.0368801
0.0371525
0.0206743
0.365342
0.0842382
0.020954
0.0239881
0.0216554
0.0219022
0.0495473
0.0641327
0.0214633
0.0207434
0.0200275
0.128473
0.0215807
0.0392675
0.0328773
0.0215515
0.0209399
0.0210042
1.88109
0.0384026
0.0208734
1.53702
0.0525405
0.021758
0.17898
0.0215223
0.020557
0.0206746
0.0214747
0.0201377
0.0212246
0.0216156
0.0220987
0.0215365
0.0763895
0.0223053
0.58072
0.0273887
0.0212484
1.47363
0.0200089
0.0206431
0.0522706
0.0209308
0.363929
0.0210372
0.070559
0.840958
0.0206252
1.60058
0.29396
0.0214285
0.0218252
0.0211865
1.51628
0.021494
0.284362
0.22287
0.0217733
0.0249315
0.0354284
0.113964
0.0211342
0.269467
0.0215613
0.0326133
1.49426
0.0376204
0.397386
0.0208717
0.0854962
0.113078
0.101292
0.0214522
0.0556624
0.0221946
0.0464699
0.0203992
0.0227624
0.110625
0.0245748
0.0529048
0.0255658
0.0243346
0.242433
0.0205495
0.0289721
0.0214868
0.0242251
0.115391
0.0613382
0.380608
0.0330196
0.0239137
0.208907
0.0244459
0.0209753
0.0203575
0.0217568
0.0222409
0.0236942
0.0210493
0.799506
0.0248629
0.0210479
0.0200828
0.0213052
0.0212568
1.43006
0.0206615
0.137217
0.0223835
0.942067
0.0215403
0.0214447
0.019691
0.0696919
0.0214143
0.163437
0.451249
0.128773
0.0237587
0.0218004
0.0214008
0.0209244
0.0208093
0.232128
0.021879
0.0217083
1.01234
0.0213847
0.0219389
0.195647
1.5575
0.252599
0.0212201
0.170244
1.12342
0.0210135
0.0206275
0.029444
1.01829
0.118782
0.239031
0.113632
0.0212855
0.0207101
0.0695306
0.0253059
0.0216612
0.0295706
0.0216182
0.0224182
0.326057
1.18421
0.0267614
0.0248275
0.0239782
0.029282
0.292226
0.0214663
0.0209088
0.0214023
0.0578364
0.0208731
0.0234446
0.115923
0.207736
0.0204268
0.0208368
0.0197092
0.0214845
0.0211342
0.0324012
0.0521584
0.0218884
0.0897609
0.312721
0.717575
0.024364
0.0220555
0.0214279
0.0211792
0.0207303
0.0200222
0.0214857
1.15449
0.694954
0.0205198
0.0205585
0.0217747
0.0216589
1.17614
0.0331257
0.105361
0.264001
0.0311353
0.058535
0.0212867
0.0210613
0.0212184
0.0216212
0.619029
0.0212617
0.0232429
1.49204
0.250201
0.242777
1.48305
0.586448
0.217703
0.0213354
0.0306489
0.837193
0.724149
0.0213929
0.0214359
0.0208331
0.0214093
0.0214449
1.19407
0.0210157
0.0209759
0.693951
0.0230819
0.18043
0.0212469
0.0206279
0.0307746
1.48466
0.0301707
0.290886
0.0230952
1.07188
0.0327186
0.0209676
0.137159
0.0210732
0.0229136
0.021507
0.0205355
2.5752
0.938086
0.255843
0.09994
0.291135
0.308416
0.680365
0.0207801
0.0216977
1.62802
0.021321
0.0215809
0.0226213
0.0213574
0.94168
0.0214935
0.106398
0.0300736
0.0200273
0.174201
0.0216887
0.0211407
0.0239306
0.0238526
0.0240992
0.0244034
0.0244344
0.396879
0.0216272
0.0212576
0.0205237
0.0379594
0.0641343
0.0209051
0.021988
0.0275789
0.850603
0.0210262
0.0244591
0.0244422
0.0202379
0.0213096
0.021033
1.01992
1.37389
0.0243704
0.0220185
0.0213813
0.0293385
0.0718159
0.0215558
0.0638329
1.04116
0.0214778
0.0294174
0.122558
0.218852
0.0318541
0.020146
0.0207074
0.583601
0.0402606
0.189837
0.0240647
0.896153
0.0306505
0.0697337
0.0309812
0.261883
0.0469574
0.206023
0.257003
0.690599
0.0218081
0.23656
0.0213564
1.20822
0.022175
0.0218723
0.0242619
1.23659
0.29305
0.0222005
0.0214905
0.0533229
1.09428
0.928571
0.0207445
0.0209684
0.0212724
0.023723
0.0216664
0.0361417
0.0928478
0.186526
0.0233641
0.0206999
0.093276
0.0215849
0.0213524
0.330875
0.0212503
0.0227405
0.0200656
0.40425
0.0529508
0.263334
0.0216232
0.0529792
1.04858
0.0307285
0.330637
1.14271
1.15103
0.52501
0.0210171
0.0214496
0.0700249
0.0213961
0.0216255
0.0210303
0.0217857
0.028166
0.0257323
0.0209949
0.4207
0.0209877
0.249084
0.0221385
1.06098
1.23814
0.0266031
1.64221
0.239036
0.0353178
1.1934
2.29537
0.0217085
0.0215016
0.030995
0.0280502
0.165359
0.0209814
0.0215496
0.217256
0.0213384
0.0207228
0.0218519
0.0200763
0.347973
0.021504
0.0283627
0.0215763
1.77805
0.0212378
2.30306
0.194419
0.368392
0.116112
0.0200584
0.0241809
0.0217083
0.0212805
0.588272
0.0468555
0.064654
0.193506
0.0199702
0.0225022
0.0231544
0.0214048
0.227913
0.0209168
0.0264917
0.135888
0.191761
0.0446323
0.0212373
0.0217719
0.176952
0.0277712
0.0314861
0.538912
0.773779
0.235356
0.0218827
0.0209151
0.0209039
0.0217554
0.0815104
0.0222264
0.0512524
0.0214107
0.0216392
0.330734
0.0201721
0.319747
0.0241947
0.0215711
0.0242788
1.26241
0.0207067
0.0223289
0.612809
0.0214179
0.0214584
0.0380678
0.938201
0.0231498
0.0277296
0.0204214
1.16626
0.415092
0.0832425
0.0214224
0.020707
0.0279912
0.0215063
0.29808
0.0582508
0.226895
0.147671
0.0212453
0.119179
0.0209701
0.859272
0.0214013
0.545472
0.302048
0.021373
0.639278
0.0213094
0.972724
0.0340986
0.0204012
0.0300192
0.0207743
0.0209174
0.0205581
0.0198722
0.0257014
0.100579
0.0214538
0.0205953
0.0899546
0.0201033
0.0218679
0.0218791
0.0211599
0.0213669
0.0567231
0.0309547
0.0199331
0.0221402
0.0220221
0.0213296
0.237734
0.0650739
0.0213632
0.0209241
0.0215018
0.0295109
0.0214967
0.0219603
0.0220211
0.0532362
0.0199556
0.0222831
0.297769
0.021488
0.051844
0.0212495
0.0214024
0.0210173
0.0211404
0.0206363
0.0212899
0.307137
0.176747
0.0206153
0.0219655
0.0227544
0.48686
0.0269873
0.0468235
0.0212406
0.0217672
0.0687785
0.0226515
0.212277
0.0325347
0.0210611
0.020768
2.04125
0.0217607
0.365116
1.21978
0.0210529
0.0564828
0.0825574
0.290853
0.0490875
0.0316093
0.0267854
0.0209904
0.22482
0.0214417
0.02361
0.0310104
0.0200451
0.0213317
1.83138
0.0207395
0.112049
0.688
0.0217421
0.0213744
1.92527
0.0212402
0.0461477
0.0203855
0.0502306
0.749344
0.205001
0.0212584
0.0208362
0.0218215
0.0681699
0.632295
0.191748
1.06559
0.026381
0.0212855
0.0493481
1.68164
0.0213966
0.0201214
0.0242019
0.0210308
0.51501
0.0435469
0.0203697
0.38905
0.0208238
0.0207571
0.0203741
0.0212416
0.0213376
1.80316
0.0211301
0.06293
0.0207838
0.0217286
0.0217812
0.0217542
0.0211524
0.0212554
0.0282405
0.0206263
0.0470124
0.281864
0.042963
0.0243947
0.0455455
0.0289545
0.0211092
0.0200849
0.0212695
0.020139
1.60727
0.239542
0.0223218
0.0222119
1.0705
0.022206
0.256669
0.0216945
0.0210301
0.0215117
0.0444954
0.359334
1.0518
2.22151
0.0244228
0.0412982
0.0470533
0.0212269
0.0210735
0.0207328
0.0263354
0.0272127
1.57281
2.84647
0.0282702
0.0209093
0.0307371
0.0211706
0.0463297
0.0211418
0.0695023
0.0218468
0.299674
0.0318164
0.0217322
0.0244539
0.0421139
0.0282822
0.0884321
0.0210434
0.0206986
0.0213442
0.0212579
0.480358
0.0205181
0.0217003
0.0271493
0.0199398
0.206331
1.19412
0.034146
0.0213161
0.0215466
0.561051
0.189834
0.0210522
0.0212853
1.26961
0.0213036
0.0213021
0.32855
0.0243833
0.0833181
0.298991
0.286753
0.0297579
0.0209412
0.0213395
0.0257118
0.0210445
0.0209165
0.659251
1.15996
0.0208451
0.0210141
0.0209239
0.0219387
2.16013
0.0210103
0.0219396
0.0214005
0.0203871
0.0209778
0.0315822
0.0226724
0.0208962
0.0201049
0.021708
0.0207059
0.0295927
0.284371
0.0287216
0.0207433
0.0210771
0.0212998
0.0209741
0.24834
0.0213938
0.193535
0.530349
0.0210564
0.0206445
0.25753
0.0206896
0.0207982
0.0209409
0.0577114
0.0240986
0.0289133
0.0209423
0.0199142
0.0213536
0.192525
0.0210306
0.0216249
0.0337203
0.284826
0.0291566
0.0199515
0.273072
0.0195769
0.537519
0.0209454
0.0200852
0.0206597
0.0215285
0.0211672
1.198
0.0895624
0.245739
0.0597696
0.0267047
1.7137
0.0213314
0.315424
0.0734995
0.0221912
0.315405
0.039626
0.0469382
0.0212098
0.687735
0.0215905
0.0206882
0.020898
0.0932507
0.371528
0.0238337
0.21999
2.61053
0.0688417
0.0213247
0.0227689
0.0367979
0.114339
0.52477
0.0250129
0.021473
0.0345506
0.191216
0.0208284
0.28031
0.0220444
0.24315
0.02061
0.0204348
0.0258344
0.0250818
1.39347
0.0784537
0.412121
0.0209312
0.0210309
0.46706
0.347684
1.10982
0.0208196
0.0223657
0.0207122
0.0209911
0.0210247
0.314043
0.139032
0.431074
0.333774
0.447042
0.0548804
0.0208803
0.0214814
0.0207562
0.0205557
0.0281459
0.0210646
0.0213107
0.0212797
0.0209054
0.024997
0.273446
0.0291864
0.0207813
0.0209725
1.17195
0.027843
0.0226466
0.0267253
0.0490483
0.272698
0.0209367
0.0250612
0.500059
0.0208044
0.0600089
0.0210449
0.0209535
0.0208613
0.369554
0.0209221
0.0207249
0.0216008
0.021687
0.0208849
0.0207833
0.539764
0.124629
0.25681
0.0218596
0.0208508
0.443408
0.0212108
0.0205313
0.0207782
0.525492
0.0213211
1.1183
0.020092
0.020745
0.0383181
0.0437999
0.0207696
0.0394063
0.0941988
0.187473
0.0208456
0.0197496
0.020804
0.199193
0.0217182
0.0244114
0.808121
0.0209867
0.0204106
0.0219554
0.0208634
1.17006
0.020901
0.0213257
0.0209582
0.0271695
0.211249
0.021318
0.0207166
0.0214575
0.0958752
0.0753308
0.267787
0.0241355
0.5313
0.0205218
0.0209237
0.70435
0.132502
0.0212707
0.0209662
0.542932
0.0330671
0.0208886
0.0208167
0.0207577
0.0209465
0.0209378
0.355323
0.0218811
0.0242406
0.187989
0.0570622
0.0211124
0.0293447
0.0286601
0.494439
0.0238082
0.025954
0.0212899
0.485552
0.0211987
0.0280018
0.214123
0.0215154
0.0761722
0.194443
0.0210229
0.0221168
0.542158
0.273691
0.0221861
0.0207464
0.0205018
0.663689
0.0208825
0.0207394
0.0271458
0.0235174
0.0209575
0.03064
0.278264
0.0206565
0.0239459
0.0220589
0.0208288
0.0204641
0.0209241
0.0204251
0.113026
0.0219446
0.0226341
0.0207228
0.0200065
0.0207428
0.0208615
0.0218737
0.0267571
0.023258
0.540442
0.0209891
0.0208916
0.0246273
0.0207582
0.0199623
0.0220787
0.314026
0.0208126
0.515409
0.0260044
0.539811
0.0202236
0.513641
0.374223
0.325714
0.0206132
0.020955
0.530884
0.0209599
0.26425
0.021065
0.0262274
0.0230013
0.02099
0.259102
0.535695
0.267279
0.294293
0.02569
0.0207253
0.0208193
0.146436
0.18741
0.0208805
0.0214309
0.0200483
0.0214645
0.0204489
0.362993
0.0206938
0.0202574
0.0214921
0.0219151
0.0355975
0.0252244
0.0219352
0.020722
0.0205287
0.261789
0.0256943
0.0196982
0.744225
0.0438657
0.0261243
0.0258424
0.0273599
0.0203873
0.0209082
0.0515823
0.44913
0.299904
0.0209567
0.0206213
0.568505
0.177317
0.024995
0.0208956
0.0251301
0.0207082
0.0216903
0.0220002
0.02411
0.0198988
0.0208048
0.0204224
0.0208391
0.0207159
0.0229071
0.0206637
0.0647553
0.422332
0.0206096
0.020846
0.0199806
0.0209981
0.0213922
0.021
0.509109
0.544593
0.0209182
0.0220728
0.303132
0.0211326
0.110767
0.222745
0.191639
0.0206537
0.382781
0.0272419
0.228153
0.0236486
0.0207292
0.214525
0.263815
0.205943
0.0219805
0.0203612
0.291565
0.421934
0.0206312
0.0206905
0.020763
0.0242505
0.0264871
0.0214625
0.0207087
0.0205893
0.558668
0.0700862
0.0312241
0.0210758
3.11183
0.411411
0.020525
0.0259828
0.0210074
0.0208968
0.0208594
0.175717
0.0208157
0.0931971
0.0208174
0.0207024
0.0208645
0.0204997
0.0210093
0.0262536
0.0200034
0.0206402
0.0317806
0.0206054
0.0216816
0.0205628
0.020242
0.872473
0.0604978
0.0208758
0.498538
0.020889
0.0206103
0.0293633
0.0235092
0.319813
0.0199156
0.0205484
0.0214122
0.0206839
0.0413542
0.0205177
0.0208267
0.037817
0.019652
0.0210395
0.0209403
0.0208293
0.0314392
0.0210408
0.0575145
0.222089
0.0444025
0.960445
0.020023
0.0205627
0.109701
0.0207947
0.48194
0.0199831
0.31118
0.253355
0.02009
0.0205279
0.0212497
0.0552958
0.0209144
0.0208927
0.0218502
0.0395849
0.180653
0.02207
0.210363
0.0196661
0.326909
0.369449
0.324468
0.270573
0.0413678
0.243524
0.020621
0.0208523
0.0293255
0.317558
0.0211884
0.0207286
0.0208045
0.508428
0.0201519
0.0201085
0.0284394
0.0205666
0.447817
0.0208805
0.447786
0.031949
0.0225652
0.0212295
0.0207917
0.0209532
0.0297181
1.21186
0.0529577
0.0397119
0.451981
0.369361
0.0211011
0.0235566
0.436845
0.0214675
0.0205959
0.422393
0.0759551
0.436037
0.362934
0.301892
0.0277845
0.021276
0.0209738
0.0901459
0.319475
0.255871
0.396237
0.0197145
0.0213399
0.0224485
0.0887544
0.44765
0.020626
0.0239444
0.570792
0.0216407
0.0233881
1.94761
0.311814
0.047339
0.0223082
0.0207726
0.0287601
0.0210856
0.0196803
0.438934
0.0213217
0.0202248
0.233269
0.0201585
0.0205443
0.392295
1.00484
0.454091
0.0202371
0.330842
0.0204778
0.264829
0.282777
0.0734406
0.0209402
0.277307
0.0255578
0.109755
0.0205491
0.0204085
0.0422988
1.46519
0.194932
0.0207564
0.0208353
0.0203665
0.0206806
0.0324328
0.0209537
0.0555282
0.0223802
0.245438
0.0202314
0.336608
0.0211108
0.0203869
0.0207328
0.356501
0.356428
0.0196529
0.0199764
0.0204103
0.0206985
0.210921
0.0205442
0.0660513
0.0235958
0.0340395
0.262647
0.209219
0.138027
0.227039
0.0305239
0.0275226
3.70356
0.0481468
0.305121
0.0675553
0.339468
0.0205775
0.0296284
0.221869
0.0205135
0.466909
0.405157
0.0615247
0.320177
0.0205065
0.27155
0.171112
0.456054
0.0214646
0.0206764
0.839202
0.0465498
0.23285
0.0207548
0.257443
0.0211326
0.23734
0.524895
0.232657
0.0207383
0.0220112
0.20675
0.319412
0.0203977
0.436702
0.106647
0.23832
0.021029
1.53001
0.0204829
0.263272
0.322234
0.308138
0.244006
0.238335
0.0250972
0.25277
0.0235383
0.0598929
0.0213369
0.201145
0.0213815
0.0206561
0.0274275
3.44139
0.0213337
0.253822
0.288344
0.054793
0.0430957
0.146816
0.0201586
0.210147
0.0272149
0.174455
0.0207036
0.0214344
0.0214383
0.333647
0.020397
0.331983
0.31908
0.0319534
0.0218283
0.0222156
0.019883
0.115007
0.285038
0.0201022
0.0865408
0.0944206
0.622884
0.284171
0.020639
0.0210094
0.0206044
0.0251186
0.0212321
0.0206258
0.0329137
0.0226891
0.0213374
0.0199538
0.0206038
0.0240335
0.106363
0.0214059
0.212017
0.0207022