/*--------------------------------*- C++ -*----------------------------------*\
| =========                 |                                                 |
| \\      /  F ield         | OpenFOAM: The Open Source CFD Toolbox           |
|  \\    /   O peration     | Version:  v2012                                 |
|   \\  /    A nd           | Website:  www.openfoam.com                      |
|    \\/     M anipulation  |                                                 |
\*---------------------------------------------------------------------------*/
FoamFile
{
    version     2.0;
    format      ascii;
    class       volVectorField;
    location    "950";
    object      cellDisplacement;
}
// * * * * * * * * * * * * * * * * * * * * * * * * * * * * * * * * * * * * * //

dimensions      [0 1 0 0 0 0 0];


internalField   nonuniform List<vector> 
10042
(
(0 -0.00103242 0)
(0 -0.000937538 0)
(0 -0.00106343 0)
(0 -4.99769e-05 0)
(0 3.83632e-05 0)
(0 -0.000880533 0)
(0 -6.23914e-05 0)
(0 -3.46878e-05 0)
(0 -0.00111327 0)
(0 -0.000849088 0)
(0 4.18435e-05 0)
(0 -9.46435e-05 0)
(0 -0.000696137 0)
(0 -0.000434042 0)
(0 -0.000276795 0)
(0 -0.000949203 0)
(0 -0.00096867 0)
(0 -0.000101629 0)
(0 -0.00103778 0)
(0 3.55984e-05 0)
(0 -0.000825732 0)
(0 -0.000135887 0)
(0 -0.000230017 0)
(0 -0.000833259 0)
(0 -0.000915953 0)
(0 -0.000489972 0)
(0 -0.000692749 0)
(0 -0.000428929 0)
(0 -0.0009812 0)
(0 -0.00051867 0)
(0 -0.000944332 0)
(0 4.186e-05 0)
(0 -0.000823241 0)
(0 -0.000613236 0)
(0 -0.000392275 0)
(0 -0.000819961 0)
(0 -0.000496022 0)
(0 -0.000524228 0)
(0 -0.000780103 0)
(0 -0.000124832 0)
(0 3.63405e-05 0)
(0 -0.000318651 0)
(0 -7.02444e-05 0)
(0 -0.000683561 0)
(0 3.85591e-05 0)
(0 -0.000298491 0)
(0 -0.000481346 0)
(0 -0.000322238 0)
(0 -0.0004673 0)
(0 -0.000606037 0)
(0 -0.00012312 0)
(0 -0.00136118 0)
(0 -0.000321227 0)
(0 -0.00118513 0)
(0 -0.000483738 0)
(0 -0.00089623 0)
(0 -0.000979414 0)
(0 -0.000498715 0)
(0 -0.00063039 0)
(0 -0.000332652 0)
(0 -0.000935537 0)
(0 -0.00101305 0)
(0 -0.000369676 0)
(0 -0.00106679 0)
(0 -0.000464898 0)
(0 -0.00064751 0)
(0 -0.000577707 0)
(0 2.83152e-05 0)
(0 4.10076e-05 0)
(0 -0.000837427 0)
(0 -0.00120669 0)
(0 3.7385e-05 0)
(0 -0.000675162 0)
(0 -4.10633e-05 0)
(0 -0.000593469 0)
(0 -0.000869551 0)
(0 3.88828e-05 0)
(0 -0.00103933 0)
(0 -6.97726e-05 0)
(0 -4.38309e-05 0)
(0 -0.000485542 0)
(0 3.77649e-05 0)
(0 -0.000716545 0)
(0 -0.000370753 0)
(0 -0.000575223 0)
(0 -0.000374266 0)
(0 -0.00102465 0)
(0 2.11155e-05 0)
(0 -0.000749059 0)
(0 -0.00102847 0)
(0 -0.000766463 0)
(0 3.79164e-05 0)
(0 -0.000414149 0)
(0 -0.00136893 0)
(0 -0.000533949 0)
(0 -0.00085128 0)
(0 -0.00107627 0)
(0 -0.000860542 0)
(0 -0.000136483 0)
(0 -0.00101466 0)
(0 -1.89456e-05 0)
(0 2.74181e-06 0)
(0 -4.76395e-05 0)
(0 -0.000400102 0)
(0 -0.00044225 0)
(0 -1.51299e-05 0)
(0 -0.000986677 0)
(0 -0.00107771 0)
(0 -0.000796998 0)
(0 -0.00134829 0)
(0 -0.000255988 0)
(0 -0.00095412 0)
(0 -0.000285036 0)
(0 4.12868e-05 0)
(0 -0.000477179 0)
(0 -0.000965905 0)
(0 -0.000913726 0)
(0 -0.0010342 0)
(0 -0.000864296 0)
(0 4.15941e-05 0)
(0 -0.000761567 0)
(0 -4.15489e-05 0)
(0 -0.000664887 0)
(0 -0.000924337 0)
(0 -1.32002e-06 0)
(0 -0.000703897 0)
(0 -3.21449e-05 0)
(0 -0.000365338 0)
(0 -1.85446e-05 0)
(0 -0.00102282 0)
(0 -6.16597e-05 0)
(0 -0.000649644 0)
(0 4.17718e-05 0)
(0 -4.46929e-05 0)
(0 -0.00101363 0)
(0 -3.15542e-05 0)
(0 4.17825e-05 0)
(0 -0.000746406 0)
(0 -0.000300504 0)
(0 2.38197e-05 0)
(0 -0.000403667 0)
(0 -0.000903871 0)
(0 -0.0004609 0)
(0 2.29144e-06 0)
(0 -0.0013919 0)
(0 -0.000962645 0)
(0 -5.36004e-05 0)
(0 -0.00145197 0)
(0 -0.000842001 0)
(0 -0.000246115 0)
(0 -0.00112883 0)
(0 -4.31635e-05 0)
(0 -5.09322e-06 0)
(0 4.16185e-05 0)
(0 -0.000507418 0)
(0 -0.000647325 0)
(0 -0.000343459 0)
(0 -0.00101475 0)
(0 -2.50493e-05 0)
(0 4.18082e-05 0)
(0 4.18568e-05 0)
(0 -5.96109e-05 0)
(0 -0.000974485 0)
(0 -0.00111499 0)
(0 -0.000680342 0)
(0 -0.000668321 0)
(0 1.2449e-05 0)
(0 4.1744e-05 0)
(0 4.18652e-05 0)
(0 4.1521e-05 0)
(0 -0.00118101 0)
(0 -0.00104471 0)
(0 3.73166e-05 0)
(0 3.72528e-05 0)
(0 -2.21352e-05 0)
(0 -0.000140117 0)
(0 4.1692e-05 0)
(0 -0.000672766 0)
(0 3.05562e-05 0)
(0 -0.000167825 0)
(0 -0.000324762 0)
(0 4.18402e-05 0)
(0 -0.000558104 0)
(0 -0.000364621 0)
(0 -0.000333184 0)
(0 4.15444e-05 0)
(0 -1.48468e-05 0)
(0 -0.000712042 0)
(0 4.18163e-05 0)
(0 -0.000553556 0)
(0 4.15975e-05 0)
(0 -0.000451904 0)
(0 -1.01519e-05 0)
(0 3.63931e-05 0)
(0 -0.000126261 0)
(0 3.22283e-05 0)
(0 -0.000582964 0)
(0 -0.00101045 0)
(0 -0.00058617 0)
(0 -0.000424687 0)
(0 -2.28725e-05 0)
(0 -0.000702437 0)
(0 -0.000963387 0)
(0 3.73822e-05 0)
(0 -0.000554723 0)
(0 -0.00111323 0)
(0 4.16617e-05 0)
(0 -0.000633996 0)
(0 -0.000119194 0)
(0 -0.000279663 0)
(0 3.05113e-05 0)
(0 -0.000182799 0)
(0 9.26653e-06 0)
(0 3.65895e-05 0)
(0 -0.000359162 0)
(0 -9.38952e-06 0)
(0 -0.00065134 0)
(0 -0.00100615 0)
(0 -5.58143e-05 0)
(0 -0.00104463 0)
(0 -0.000280952 0)
(0 -0.000335298 0)
(0 3.55945e-05 0)
(0 -0.00050984 0)
(0 -0.000176215 0)
(0 -0.000487984 0)
(0 -3.08887e-05 0)
(0 -0.000964614 0)
(0 -2.54699e-05 0)
(0 -0.00120629 0)
(0 -0.00112396 0)
(0 3.53079e-05 0)
(0 -0.00104414 0)
(0 -0.00122561 0)
(0 -0.00104467 0)
(0 -0.000237853 0)
(0 -0.00108202 0)
(0 -0.000377602 0)
(0 -0.000771444 0)
(0 -0.00102377 0)
(0 -0.000966929 0)
(0 -0.000655276 0)
(0 -0.000704063 0)
(0 -0.000268535 0)
(0 -0.000979138 0)
(0 -0.000944684 0)
(0 -0.000260253 0)
(0 -0.000425749 0)
(0 -0.00119197 0)
(0 -7.80606e-05 0)
(0 -0.000424592 0)
(0 -0.000857384 0)
(0 -0.000266382 0)
(0 3.66718e-05 0)
(0 -5.5186e-05 0)
(0 4.18513e-05 0)
(0 -1.62066e-05 0)
(0 -2.8662e-05 0)
(0 -0.000262282 0)
(0 -0.000263006 0)
(0 -0.00011199 0)
(0 -0.000790847 0)
(0 -0.000991344 0)
(0 -0.000365661 0)
(0 -0.000431788 0)
(0 -0.00108066 0)
(0 -0.000133846 0)
(0 -0.000989168 0)
(0 -0.00101898 0)
(0 -0.000241525 0)
(0 -1.75304e-05 0)
(0 -0.00117783 0)
(0 3.57822e-05 0)
(0 -2.26664e-05 0)
(0 1.9603e-05 0)
(0 -0.000531075 0)
(0 -0.00104424 0)
(0 -0.00107106 0)
(0 -0.000763875 0)
(0 -0.00136708 0)
(0 -0.000156337 0)
(0 -0.000812339 0)
(0 -0.000476999 0)
(0 4.16979e-05 0)
(0 -0.00110839 0)
(0 -0.00103225 0)
(0 -0.000104254 0)
(0 -0.000277526 0)
(0 -0.000733535 0)
(0 -0.000927938 0)
(0 -0.000285155 0)
(0 -0.000153189 0)
(0 -0.00014997 0)
(0 3.61894e-06 0)
(0 -0.000104192 0)
(0 -0.000536082 0)
(0 -0.000956328 0)
(0 -0.00109451 0)
(0 -3.54221e-05 0)
(0 -0.000922196 0)
(0 -0.000947393 0)
(0 -0.00105258 0)
(0 -0.000647601 0)
(0 -0.000574175 0)
(0 -0.000266508 0)
(0 4.34948e-06 0)
(0 3.57889e-05 0)
(0 -0.000354345 0)
(0 1.8995e-05 0)
(0 -0.000998883 0)
(0 -0.000779849 0)
(0 -0.000731297 0)
(0 4.18608e-05 0)
(0 -5.69194e-06 0)
(0 3.50616e-05 0)
(0 4.17449e-05 0)
(0 -0.000918533 0)
(0 -0.000992926 0)
(0 -0.00082329 0)
(0 -0.000268018 0)
(0 -0.000473987 0)
(0 -0.0002389 0)
(0 -0.000130788 0)
(0 -0.000265935 0)
(0 -0.000304469 0)
(0 -0.000663737 0)
(0 8.08906e-06 0)
(0 -7.25723e-05 0)
(0 -0.000573252 0)
(0 -0.000688041 0)
(0 -0.000282022 0)
(0 4.15481e-05 0)
(0 -0.000986493 0)
(0 -0.000556137 0)
(0 -0.00033093 0)
(0 -0.00109056 0)
(0 -6.67558e-05 0)
(0 -0.000127233 0)
(0 -2.94233e-05 0)
(0 1.3651e-05 0)
(0 -0.000553681 0)
(0 -0.00038335 0)
(0 -0.000669262 0)
(0 -0.000439291 0)
(0 -0.000772552 0)
(0 -8.44485e-05 0)
(0 2.50167e-06 0)
(0 -0.000806678 0)
(0 -0.000630606 0)
(0 -0.000403739 0)
(0 -0.000953724 0)
(0 -0.00024585 0)
(0 -0.000354131 0)
(0 -0.000382194 0)
(0 -0.00120135 0)
(0 -0.000188403 0)
(0 -2.54826e-05 0)
(0 -0.000133328 0)
(0 -0.000454686 0)
(0 -0.000988725 0)
(0 1.62589e-05 0)
(0 -5.14904e-05 0)
(0 -0.00101978 0)
(0 -7.5107e-05 0)
(0 -0.0010438 0)
(0 -0.00103852 0)
(0 -0.00103838 0)
(0 -0.000235877 0)
(0 3.35089e-05 0)
(0 -0.00103223 0)
(0 -0.000203774 0)
(0 -0.000367398 0)
(0 -2.18679e-05 0)
(0 -0.000139458 0)
(0 3.59597e-05 0)
(0 -0.00100546 0)
(0 -0.00121774 0)
(0 4.17409e-05 0)
(0 -0.000915618 0)
(0 -5.28171e-05 0)
(0 1.3756e-06 0)
(0 -3.82528e-05 0)
(0 -0.000169307 0)
(0 4.18567e-05 0)
(0 -0.000165856 0)
(0 3.57894e-05 0)
(0 -0.000619416 0)
(0 -0.000575099 0)
(0 -4.38162e-05 0)
(0 -0.000516378 0)
(0 -0.00031724 0)
(0 -0.000844518 0)
(0 -0.000251107 0)
(0 4.18388e-05 0)
(0 -0.000166775 0)
(0 -0.00084724 0)
(0 1.33074e-05 0)
(0 4.13963e-05 0)
(0 -0.000668129 0)
(0 -0.00141595 0)
(0 4.1859e-05 0)
(0 -1.18852e-06 0)
(0 -0.00104794 0)
(0 2.74149e-05 0)
(0 4.18121e-05 0)
(0 -0.00104607 0)
(0 -0.000145936 0)
(0 -0.00115487 0)
(0 -0.00100769 0)
(0 -0.000353361 0)
(0 -0.00111039 0)
(0 1.63691e-05 0)
(0 -4.17718e-05 0)
(0 -0.000499207 0)
(0 3.50342e-05 0)
(0 -0.000367357 0)
(0 -0.000935772 0)
(0 3.26281e-05 0)
(0 -0.00108356 0)
(0 -4.59368e-05 0)
(0 -0.000140292 0)
(0 -0.000366646 0)
(0 -0.00127306 0)
(0 -0.00139927 0)
(0 2.89119e-05 0)
(0 -0.00117055 0)
(0 -0.000157574 0)
(0 -0.000504982 0)
(0 4.18211e-05 0)
(0 -0.00037826 0)
(0 3.61467e-05 0)
(0 -0.000294273 0)
(0 -0.000967303 0)
(0 -0.000957721 0)
(0 3.63638e-05 0)
(0 -0.000965613 0)
(0 -0.000140631 0)
(0 -0.000904391 0)
(0 -0.00120824 0)
(0 4.18297e-05 0)
(0 -0.000545945 0)
(0 -0.000916851 0)
(0 -0.000174343 0)
(0 4.18605e-05 0)
(0 -0.00101533 0)
(0 -0.00052268 0)
(0 -0.000419241 0)
(0 -0.00107466 0)
(0 3.36911e-05 0)
(0 -0.000154524 0)
(0 -0.000900556 0)
(0 -0.000502863 0)
(0 -0.00100319 0)
(0 -0.000475391 0)
(0 -0.000994918 0)
(0 -0.000896703 0)
(0 4.18528e-05 0)
(0 -0.000902766 0)
(0 -0.000220861 0)
(0 -0.000122507 0)
(0 -5.60108e-05 0)
(0 -7.29401e-05 0)
(0 -9.18326e-05 0)
(0 -0.000182331 0)
(0 4.17468e-05 0)
(0 -0.000563842 0)
(0 -0.000854278 0)
(0 -0.000995346 0)
(0 -4.00109e-05 0)
(0 -0.00103624 0)
(0 -0.000950891 0)
(0 -7.87284e-05 0)
(0 -0.00108305 0)
(0 -0.00110471 0)
(0 -0.000318995 0)
(0 -0.00103078 0)
(0 -3.06942e-05 0)
(0 -0.000975449 0)
(0 -0.000971149 0)
(0 4.18624e-05 0)
(0 -0.000743145 0)
(0 -0.0012108 0)
(0 -0.000824745 0)
(0 -0.000528684 0)
(0 -0.000142262 0)
(0 -0.000890299 0)
(0 -0.00109725 0)
(0 3.48557e-05 0)
(0 -0.000481042 0)
(0 -3.41416e-06 0)
(0 -0.000781016 0)
(0 -3.9922e-05 0)
(0 -3.03232e-05 0)
(0 1.04668e-05 0)
(0 -0.000839972 0)
(0 -0.000911582 0)
(0 -0.000392532 0)
(0 -0.00103226 0)
(0 -0.000128411 0)
(0 -4.63667e-05 0)
(0 -0.00101228 0)
(0 -3.04835e-05 0)
(0 4.17814e-05 0)
(0 -0.000581762 0)
(0 -0.000137624 0)
(0 -0.000935768 0)
(0 -0.00121578 0)
(0 -0.000405834 0)
(0 -0.00101353 0)
(0 4.09767e-05 0)
(0 4.18268e-05 0)
(0 -0.000814619 0)
(0 -0.000379965 0)
(0 -0.000729446 0)
(0 -0.000748117 0)
(0 -0.000572924 0)
(0 -0.000276392 0)
(0 -6.67637e-05 0)
(0 2.7584e-05 0)
(0 4.16679e-05 0)
(0 -0.00126102 0)
(0 -0.00119068 0)
(0 -0.00109029 0)
(0 -0.000931312 0)
(0 4.11168e-05 0)
(0 -0.000147243 0)
(0 -0.00101675 0)
(0 -0.000902588 0)
(0 -0.000142094 0)
(0 -0.000607026 0)
(0 -5.71578e-05 0)
(0 -0.000557131 0)
(0 -0.000667279 0)
(0 4.18663e-05 0)
(0 4.12262e-05 0)
(0 3.80457e-05 0)
(0 -1.61102e-05 0)
(0 -0.00097741 0)
(0 -0.000994097 0)
(0 -0.000636791 0)
(0 -7.00994e-05 0)
(0 3.98848e-05 0)
(0 4.16709e-05 0)
(0 -0.00020207 0)
(0 -0.000130897 0)
(0 -0.000357022 0)
(0 -0.000598539 0)
(0 -0.000514626 0)
(0 -0.00038763 0)
(0 4.18521e-05 0)
(0 -0.000298624 0)
(0 -0.00100681 0)
(0 -0.000350543 0)
(0 -0.000378176 0)
(0 -0.000180691 0)
(0 -0.000800312 0)
(0 -0.000131348 0)
(0 -0.000149906 0)
(0 -0.000274451 0)
(0 -0.000937664 0)
(0 -0.000397747 0)
(0 -0.000807446 0)
(0 -2.09212e-05 0)
(0 2.38081e-05 0)
(0 -8.25724e-05 0)
(0 -0.000627728 0)
(0 -0.000516346 0)
(0 -0.000854368 0)
(0 -0.000570136 0)
(0 -0.000750977 0)
(0 -0.000886183 0)
(0 -0.000189514 0)
(0 -7.91136e-05 0)
(0 -4.90031e-06 0)
(0 -0.000647465 0)
(0 -0.000457989 0)
(0 -0.000359655 0)
(0 -0.000920166 0)
(0 3.53057e-05 0)
(0 -0.000758279 0)
(0 -0.000408341 0)
(0 -0.000147357 0)
(0 -0.00100288 0)
(0 -6.15528e-05 0)
(0 -0.000573642 0)
(0 -0.000930261 0)
(0 4.15979e-05 0)
(0 -0.000321291 0)
(0 -0.00038913 0)
(0 -2.2225e-06 0)
(0 -0.00103425 0)
(0 -9.96518e-05 0)
(0 -0.000682061 0)
(0 -0.000944749 0)
(0 -3.55184e-05 0)
(0 -0.000504328 0)
(0 -0.000587049 0)
(0 4.09404e-05 0)
(0 -0.00041072 0)
(0 -0.000945599 0)
(0 -0.00068393 0)
(0 -0.000137929 0)
(0 -0.000366875 0)
(0 -0.000915626 0)
(0 -0.000864726 0)
(0 -0.000992675 0)
(0 -0.000554037 0)
(0 -0.000705783 0)
(0 -0.000140183 0)
(0 -0.0012219 0)
(0 -0.000288571 0)
(0 -0.00136189 0)
(0 -0.00104014 0)
(0 3.24065e-05 0)
(0 -0.00114696 0)
(0 3.39214e-05 0)
(0 -0.000902361 0)
(0 -0.000995692 0)
(0 -0.000732819 0)
(0 -0.000432491 0)
(0 -0.000798188 0)
(0 -0.000300025 0)
(0 -0.000751276 0)
(0 -5.72787e-06 0)
(0 -0.00017481 0)
(0 -8.20862e-05 0)
(0 -0.00146923 0)
(0 -0.000293237 0)
(0 -0.000140826 0)
(0 -0.000633013 0)
(0 -0.00103511 0)
(0 -0.000498172 0)
(0 -0.000897694 0)
(0 3.58033e-05 0)
(0 4.17541e-05 0)
(0 -0.0001948 0)
(0 -0.000733814 0)
(0 -3.62828e-05 0)
(0 -0.000963404 0)
(0 -3.49097e-05 0)
(0 -0.000310642 0)
(0 -0.000812043 0)
(0 -8.78332e-05 0)
(0 2.6324e-05 0)
(0 3.91607e-05 0)
(0 -0.000599803 0)
(0 3.8014e-05 0)
(0 -0.00037911 0)
(0 -0.000617135 0)
(0 -0.000292718 0)
(0 -0.000804801 0)
(0 -0.000521752 0)
(0 -0.000819476 0)
(0 -0.000882554 0)
(0 -0.000475192 0)
(0 -5.86221e-05 0)
(0 -3.62715e-05 0)
(0 -0.000916885 0)
(0 -0.00085076 0)
(0 3.59862e-05 0)
(0 -0.000310751 0)
(0 -0.000195415 0)
(0 -0.000661635 0)
(0 -0.000234049 0)
(0 -5.1191e-05 0)
(0 -0.00092447 0)
(0 -0.00104927 0)
(0 -0.000526162 0)
(0 -0.00106473 0)
(0 4.1858e-05 0)
(0 -0.000313073 0)
(0 3.70554e-05 0)
(0 -0.000153869 0)
(0 3.91742e-05 0)
(0 4.16433e-05 0)
(0 -4.34168e-06 0)
(0 -0.000813658 0)
(0 -0.000266539 0)
(0 -3.16786e-05 0)
(0 -3.64127e-05 0)
(0 -0.000685902 0)
(0 -0.000889505 0)
(0 -7.0409e-05 0)
(0 4.18674e-05 0)
(0 -0.000964281 0)
(0 -0.000111107 0)
(0 1.89238e-05 0)
(0 -0.000963728 0)
(0 -0.00104116 0)
(0 -0.000839065 0)
(0 -0.000386716 0)
(0 -0.00103998 0)
(0 -0.00120388 0)
(0 1.01906e-05 0)
(0 3.29559e-05 0)
(0 -0.00121535 0)
(0 -0.000990941 0)
(0 4.17953e-05 0)
(0 -1.44779e-05 0)
(0 -0.000955441 0)
(0 -0.000865209 0)
(0 -0.000145453 0)
(0 -0.00100462 0)
(0 3.38994e-05 0)
(0 -0.000329142 0)
(0 3.63863e-05 0)
(0 -0.000434732 0)
(0 -0.00104661 0)
(0 -0.0011659 0)
(0 -0.000310501 0)
(0 -0.000915826 0)
(0 -0.000483405 0)
(0 -0.000390021 0)
(0 3.68526e-05 0)
(0 -0.000997636 0)
(0 -0.000672284 0)
(0 -5.22931e-05 0)
(0 -0.000977965 0)
(0 -0.000728306 0)
(0 2.07469e-05 0)
(0 -0.000952435 0)
(0 4.1812e-05 0)
(0 3.75072e-05 0)
(0 -0.000607318 0)
(0 -0.00100371 0)
(0 1.80115e-05 0)
(0 4.18616e-05 0)
(0 -5.54678e-05 0)
(0 -0.00104909 0)
(0 -2.38778e-05 0)
(0 3.74212e-05 0)
(0 -0.000148729 0)
(0 -0.000704363 0)
(0 -0.000293901 0)
(0 -0.000790988 0)
(0 3.62644e-05 0)
(0 -0.000736267 0)
(0 3.19766e-05 0)
(0 -0.000107707 0)
(0 4.14739e-05 0)
(0 3.2214e-05 0)
(0 -0.000930004 0)
(0 -0.00103143 0)
(0 3.46474e-05 0)
(0 -0.000662602 0)
(0 -0.00074661 0)
(0 -0.000239917 0)
(0 4.14172e-05 0)
(0 3.72073e-05 0)
(0 3.1161e-05 0)
(0 -0.00121836 0)
(0 -0.000241585 0)
(0 -4.41333e-05 0)
(0 -0.000764565 0)
(0 -9.6561e-05 0)
(0 -0.000475144 0)
(0 3.54793e-05 0)
(0 -0.000326873 0)
(0 -0.00095111 0)
(0 -0.000253116 0)
(0 -0.000595684 0)
(0 -5.64287e-05 0)
(0 -0.000189647 0)
(0 -0.000785401 0)
(0 -0.000234186 0)
(0 -0.000608147 0)
(0 -5.38384e-05 0)
(0 -0.000357552 0)
(0 -0.000869636 0)
(0 -0.000275678 0)
(0 9.96933e-06 0)
(0 3.98544e-05 0)
(0 -0.000384392 0)
(0 -4.79257e-05 0)
(0 -1.3267e-05 0)
(0 -8.61327e-06 0)
(0 -0.000345633 0)
(0 4.18604e-05 0)
(0 4.18177e-05 0)
(0 -0.000973163 0)
(0 -0.00069807 0)
(0 -0.000419852 0)
(0 -0.000280391 0)
(0 3.2087e-05 0)
(0 -0.000412571 0)
(0 -0.000540422 0)
(0 -0.000342443 0)
(0 -8.77114e-06 0)
(0 -4.26062e-05 0)
(0 -0.0012472 0)
(0 -0.000475129 0)
(0 -0.000872892 0)
(0 -7.56742e-05 0)
(0 -0.000754372 0)
(0 -0.000110702 0)
(0 -0.000569231 0)
(0 -0.000401244 0)
(0 -0.000421413 0)
(0 -0.00106565 0)
(0 4.11973e-05 0)
(0 -0.00102417 0)
(0 -0.000419147 0)
(0 -0.00088571 0)
(0 -0.000522713 0)
(0 5.36766e-06 0)
(0 -0.00040937 0)
(0 -0.000351105 0)
(0 -0.000848882 0)
(0 -0.000599762 0)
(0 4.09985e-05 0)
(0 -2.66528e-05 0)
(0 3.92686e-05 0)
(0 -0.000296707 0)
(0 3.46826e-05 0)
(0 -0.000231001 0)
(0 -0.000434508 0)
(0 -0.000599068 0)
(0 -4.46626e-05 0)
(0 1.47856e-05 0)
(0 -0.000398504 0)
(0 3.81991e-05 0)
(0 -9.7203e-05 0)
(0 -0.000400474 0)
(0 -0.000138438 0)
(0 -6.25838e-06 0)
(0 -0.000813518 0)
(0 -0.000208629 0)
(0 -0.00105343 0)
(0 -0.000234883 0)
(0 -0.00015596 0)
(0 -3.58976e-06 0)
(0 -3.53521e-05 0)
(0 2.17833e-05 0)
(0 -0.000164056 0)
(0 -8.57557e-05 0)
(0 -6.57756e-05 0)
(0 -0.000336733 0)
(0 3.48227e-05 0)
(0 -0.000818616 0)
(0 4.06584e-05 0)
(0 -0.000996445 0)
(0 -0.000335237 0)
(0 -4.67258e-05 0)
(0 1.83845e-05 0)
(0 -0.000616066 0)
(0 4.13291e-05 0)
(0 -0.000112714 0)
(0 -0.000997583 0)
(0 -0.000520628 0)
(0 -0.000642499 0)
(0 -0.000823692 0)
(0 -0.000143231 0)
(0 -8.74453e-06 0)
(0 -0.000685532 0)
(0 4.18675e-05 0)
(0 -0.000593706 0)
(0 4.17521e-05 0)
(0 -0.00102841 0)
(0 -0.00102051 0)
(0 -4.95113e-05 0)
(0 -0.00036188 0)
(0 3.70004e-05 0)
(0 -0.0010335 0)
(0 -0.000122931 0)
(0 6.34997e-06 0)
(0 -0.000401918 0)
(0 -6.55606e-07 0)
(0 -4.67071e-05 0)
(0 -0.000663727 0)
(0 -4.2908e-05 0)
(0 3.77517e-05 0)
(0 -0.000713277 0)
(0 -0.00085925 0)
(0 -0.00104115 0)
(0 -0.000207733 0)
(0 -0.00104385 0)
(0 -0.00100573 0)
(0 -0.000662036 0)
(0 -0.00104833 0)
(0 -0.000645842 0)
(0 -0.000380845 0)
(0 -0.000231399 0)
(0 -7.46678e-05 0)
(0 -0.000910087 0)
(0 3.28311e-05 0)
(0 -0.000724252 0)
(0 3.86025e-05 0)
(0 -2.21557e-05 0)
(0 4.08881e-05 0)
(0 -0.000185625 0)
(0 -0.00101102 0)
(0 4.18615e-05 0)
(0 -0.000346854 0)
(0 3.72492e-05 0)
(0 -4.04951e-06 0)
(0 -8.46827e-05 0)
(0 -0.000373915 0)
(0 -0.00105098 0)
(0 -0.000419627 0)
(0 6.109e-06 0)
(0 -0.000835667 0)
(0 4.14385e-05 0)
(0 -0.000850465 0)
(0 4.16407e-05 0)
(0 -9.00754e-05 0)
(0 -0.000695103 0)
(0 -0.000789793 0)
(0 4.16388e-05 0)
(0 4.14675e-05 0)
(0 -0.000271267 0)
(0 -0.000930587 0)
(0 -0.000182138 0)
(0 -0.000848635 0)
(0 -0.000652779 0)
(0 -0.000224441 0)
(0 -2.47838e-05 0)
(0 -0.000336455 0)
(0 -0.000829544 0)
(0 -0.000845241 0)
(0 -0.000400166 0)
(0 3.59455e-05 0)
(0 -0.000605676 0)
(0 -0.000632982 0)
(0 -0.000318158 0)
(0 -7.69802e-05 0)
(0 -0.00048939 0)
(0 -0.000943729 0)
(0 4.15581e-05 0)
(0 -0.000521951 0)
(0 -0.000921453 0)
(0 4.17654e-05 0)
(0 -0.000295877 0)
(0 -0.000665933 0)
(0 4.18644e-05 0)
(0 -0.000125799 0)
(0 4.14505e-05 0)
(0 -0.000925063 0)
(0 -0.000336375 0)
(0 -1.01636e-06 0)
(0 -0.00104872 0)
(0 -0.000885041 0)
(0 -7.1225e-05 0)
(0 -0.000885724 0)
(0 -0.00094192 0)
(0 -0.00017496 0)
(0 -0.00122384 0)
(0 9.12177e-06 0)
(0 3.64845e-05 0)
(0 -0.00104397 0)
(0 -0.000735658 0)
(0 -0.000795539 0)
(0 -0.000918831 0)
(0 -0.000443677 0)
(0 -0.000651791 0)
(0 -3.87626e-05 0)
(0 -0.000143017 0)
(0 -0.000730407 0)
(0 -0.00100352 0)
(0 -0.00103869 0)
(0 -0.000817043 0)
(0 -0.000672269 0)
(0 4.13444e-05 0)
(0 -0.000519667 0)
(0 -0.0014369 0)
(0 -0.000992869 0)
(0 -4.42798e-06 0)
(0 1.98963e-05 0)
(0 -0.00088495 0)
(0 -0.0007906 0)
(0 -0.00089753 0)
(0 -0.00137977 0)
(0 3.75818e-05 0)
(0 -0.000661555 0)
(0 -0.000168926 0)
(0 -0.000147353 0)
(0 -0.000376314 0)
(0 2.7296e-05 0)
(0 -0.000536498 0)
(0 -8.06936e-05 0)
(0 -0.000239599 0)
(0 -0.000891216 0)
(0 -0.000735898 0)
(0 -0.000487258 0)
(0 -8.51679e-05 0)
(0 -0.000135634 0)
(0 -0.000878513 0)
(0 -0.000358432 0)
(0 3.77797e-05 0)
(0 -0.000123899 0)
(0 -0.000136136 0)
(0 -0.000291926 0)
(0 -1.74218e-06 0)
(0 -0.000115568 0)
(0 -0.00124343 0)
(0 -0.000589748 0)
(0 -0.000352582 0)
(0 -0.000882006 0)
(0 -0.00139817 0)
(0 -0.000246457 0)
(0 -0.00102382 0)
(0 3.36569e-05 0)
(0 2.75997e-05 0)
(0 -0.000270725 0)
(0 -0.000807095 0)
(0 -0.000364183 0)
(0 -0.000138201 0)
(0 -0.000710896 0)
(0 -0.000712752 0)
(0 -5.85626e-05 0)
(0 -0.000315407 0)
(0 -0.000774001 0)
(0 -0.000937815 0)
(0 3.76625e-05 0)
(0 3.02036e-05 0)
(0 -0.000167116 0)
(0 -0.000666791 0)
(0 -0.000135902 0)
(0 -0.00115972 0)
(0 -0.00073749 0)
(0 -0.000857628 0)
(0 -0.000149223 0)
(0 -0.000570857 0)
(0 -0.000719839 0)
(0 4.18745e-05 0)
(0 -0.000543739 0)
(0 -0.000572923 0)
(0 -1.94254e-05 0)
(0 -0.000931515 0)
(0 3.53659e-05 0)
(0 -9.84883e-05 0)
(0 -0.00045603 0)
(0 -3.37669e-05 0)
(0 -0.000683241 0)
(0 -0.000682911 0)
(0 -0.00125464 0)
(0 -0.000629417 0)
(0 3.79251e-05 0)
(0 -0.00100394 0)
(0 -0.000474674 0)
(0 3.76633e-05 0)
(0 -0.000172464 0)
(0 -6.91553e-05 0)
(0 4.08091e-05 0)
(0 -3.00788e-05 0)
(0 -0.000316435 0)
(0 3.09687e-05 0)
(0 -0.00119816 0)
(0 3.21508e-05 0)
(0 -0.00058745 0)
(0 -0.000717517 0)
(0 -0.000225586 0)
(0 4.18634e-05 0)
(0 -0.000355369 0)
(0 -0.000489772 0)
(0 -0.00057872 0)
(0 -0.000444502 0)
(0 -1.88211e-05 0)
(0 -0.000159486 0)
(0 -7.90341e-05 0)
(0 -0.000810109 0)
(0 -0.000506076 0)
(0 -0.000172913 0)
(0 -0.000225432 0)
(0 -0.00102742 0)
(0 -0.000383712 0)
(0 -0.000933009 0)
(0 -4.94007e-06 0)
(0 4.16732e-05 0)
(0 -0.000690969 0)
(0 -0.000303864 0)
(0 -0.000333911 0)
(0 -0.000249772 0)
(0 -0.0006255 0)
(0 4.18818e-05 0)
(0 -0.000899901 0)
(0 -0.00103743 0)
(0 -0.000207841 0)
(0 -0.000653739 0)
(0 -0.000625852 0)
(0 -4.39392e-05 0)
(0 -0.000999225 0)
(0 -0.000583715 0)
(0 -2.03123e-05 0)
(0 -0.000154948 0)
(0 -0.000872452 0)
(0 -0.000597835 0)
(0 -0.000863315 0)
(0 -3.14636e-05 0)
(0 -0.00105227 0)
(0 -0.00013827 0)
(0 -0.000517426 0)
(0 -0.000683589 0)
(0 -0.000267213 0)
(0 -0.000758724 0)
(0 -3.35002e-05 0)
(0 -0.000912387 0)
(0 -0.000153485 0)
(0 -0.00107701 0)
(0 1.69154e-05 0)
(0 -0.000496075 0)
(0 2.69848e-05 0)
(0 -0.000573434 0)
(0 -0.00094045 0)
(0 -0.00137699 0)
(0 -0.000567811 0)
(0 -5.60094e-05 0)
(0 -0.00103134 0)
(0 -0.000607341 0)
(0 -0.000172988 0)
(0 -0.000463376 0)
(0 -0.00104041 0)
(0 -0.000374961 0)
(0 -6.71929e-05 0)
(0 4.18686e-05 0)
(0 3.59837e-05 0)
(0 -0.000273627 0)
(0 4.18625e-05 0)
(0 -0.000288239 0)
(0 -0.00046846 0)
(0 -6.70373e-05 0)
(0 -4.74429e-05 0)
(0 -0.000756423 0)
(0 4.18564e-05 0)
(0 -0.000853398 0)
(0 -0.000163504 0)
(0 -0.000870098 0)
(0 -0.000590063 0)
(0 -0.000871596 0)
(0 -0.000687081 0)
(0 -0.000486393 0)
(0 -0.00101837 0)
(0 3.81869e-05 0)
(0 -0.000707888 0)
(0 -0.000663447 0)
(0 9.51997e-06 0)
(0 -0.000990481 0)
(0 -0.000331015 0)
(0 -0.00100383 0)
(0 -0.000233785 0)
(0 -0.000850543 0)
(0 -5.69714e-06 0)
(0 -0.000382798 0)
(0 -0.000776972 0)
(0 -0.000474208 0)
(0 4.12448e-05 0)
(0 1.37337e-06 0)
(0 -0.00115026 0)
(0 -0.000833226 0)
(0 -0.000817718 0)
(0 -0.000987861 0)
(0 3.55107e-05 0)
(0 -0.00105021 0)
(0 -0.00077857 0)
(0 -0.000194996 0)
(0 -0.000731018 0)
(0 -0.000743876 0)
(0 -0.00103637 0)
(0 -0.00100363 0)
(0 -7.48122e-05 0)
(0 -0.000885621 0)
(0 -0.00110611 0)
(0 -0.00037374 0)
(0 -0.000910481 0)
(0 -0.00147591 0)
(0 -6.03129e-05 0)
(0 3.69918e-05 0)
(0 -0.000557728 0)
(0 -0.000648155 0)
(0 -0.00126217 0)
(0 -0.000239975 0)
(0 -0.000418314 0)
(0 -0.000314717 0)
(0 -0.000864161 0)
(0 -6.02698e-05 0)
(0 -0.000434153 0)
(0 -0.000866556 0)
(0 -0.00046915 0)
(0 -0.00079658 0)
(0 -0.000805466 0)
(0 2.85276e-05 0)
(0 -9.47366e-05 0)
(0 -0.000225671 0)
(0 -0.000264079 0)
(0 -8.67817e-05 0)
(0 -0.000158653 0)
(0 -0.000108309 0)
(0 -9.75333e-05 0)
(0 -0.00034506 0)
(0 1.47313e-05 0)
(0 -0.000703834 0)
(0 -0.000752482 0)
(0 -0.000732644 0)
(0 -6.18495e-05 0)
(0 -4.82952e-05 0)
(0 -0.000115166 0)
(0 3.36515e-05 0)
(0 4.18133e-05 0)
(0 6.56608e-06 0)
(0 -0.000708831 0)
(0 -0.000380849 0)
(0 -5.24508e-05 0)
(0 -0.00122148 0)
(0 3.03193e-05 0)
(0 -1.82403e-05 0)
(0 3.73202e-05 0)
(0 -0.000370738 0)
(0 4.14419e-05 0)
(0 -0.000152493 0)
(0 -0.000130504 0)
(0 3.3856e-05 0)
(0 -0.000174664 0)
(0 -0.000833413 0)
(0 -0.000276882 0)
(0 -0.000992138 0)
(0 3.57355e-05 0)
(0 -0.00063339 0)
(0 -8.95747e-05 0)
(0 -0.00104184 0)
(0 -0.000230273 0)
(0 -0.000944387 0)
(0 4.17503e-05 0)
(0 3.4856e-05 0)
(0 -0.000291043 0)
(0 4.18379e-05 0)
(0 3.44975e-05 0)
(0 -0.00022976 0)
(0 -0.000196391 0)
(0 -6.31828e-05 0)
(0 -0.00109737 0)
(0 4.12403e-05 0)
(0 -0.000716933 0)
(0 1.40312e-05 0)
(0 4.1841e-05 0)
(0 -0.000309962 0)
(0 -0.000816644 0)
(0 -0.000827803 0)
(0 -0.000298541 0)
(0 -0.00081901 0)
(0 -0.000216863 0)
(0 -5.88887e-05 0)
(0 -0.000564943 0)
(0 -0.000956749 0)
(0 -0.000376093 0)
(0 -0.000785093 0)
(0 -0.000513666 0)
(0 -0.000205315 0)
(0 -0.001053 0)
(0 -0.00090378 0)
(0 -0.000362102 0)
(0 -8.51099e-05 0)
(0 -0.000950585 0)
(0 -1.04498e-05 0)
(0 -0.000981913 0)
(0 -0.000130489 0)
(0 -0.000251035 0)
(0 3.29296e-06 0)
(0 -0.000896348 0)
(0 -0.00103715 0)
(0 -6.60081e-05 0)
(0 2.18363e-05 0)
(0 -0.00104145 0)
(0 -0.0003316 0)
(0 2.82776e-05 0)
(0 -0.000145933 0)
(0 4.16605e-05 0)
(0 -0.00104461 0)
(0 -0.000190715 0)
(0 4.06556e-05 0)
(0 3.7196e-05 0)
(0 -0.000808897 0)
(0 -0.000800377 0)
(0 -0.000342122 0)
(0 -0.000170543 0)
(0 -5.64274e-05 0)
(0 -0.000498905 0)
(0 4.06535e-05 0)
(0 -0.000189959 0)
(0 -1.96047e-05 0)
(0 -0.00064851 0)
(0 -0.00077341 0)
(0 4.18488e-05 0)
(0 -0.000341957 0)
(0 -0.00064863 0)
(0 -0.000124699 0)
(0 4.14341e-05 0)
(0 -0.000926192 0)
(0 -0.00127071 0)
(0 -0.00141992 0)
(0 -0.000636502 0)
(0 -0.000321973 0)
(0 -7.97729e-05 0)
(0 -0.000579658 0)
(0 -0.000824428 0)
(0 -0.00102956 0)
(0 -0.000471784 0)
(0 4.15252e-05 0)
(0 -1.94818e-05 0)
(0 -0.00023043 0)
(0 4.1695e-05 0)
(0 -7.414e-05 0)
(0 -0.00113713 0)
(0 -0.000994169 0)
(0 -0.000858178 0)
(0 -4.55846e-06 0)
(0 -2.87979e-06 0)
(0 -7.8746e-05 0)
(0 -0.00127046 0)
(0 -0.000706647 0)
(0 -0.000942748 0)
(0 -0.000605745 0)
(0 -6.5122e-05 0)
(0 -0.000936184 0)
(0 3.10177e-06 0)
(0 -0.000809197 0)
(0 -0.000650677 0)
(0 3.30377e-05 0)
(0 4.18095e-05 0)
(0 -0.000699145 0)
(0 1.89968e-05 0)
(0 -5.81096e-05 0)
(0 -0.000158415 0)
(0 -0.000167409 0)
(0 -0.00113685 0)
(0 4.17018e-05 0)
(0 -8.4155e-05 0)
(0 -0.000937211 0)
(0 -0.00105867 0)
(0 -0.000874847 0)
(0 -0.000362838 0)
(0 -0.000143341 0)
(0 -0.000207172 0)
(0 -0.000936879 0)
(0 -0.000897055 0)
(0 -0.000730207 0)
(0 7.29306e-06 0)
(0 4.13275e-05 0)
(0 -0.00136085 0)
(0 -0.000577216 0)
(0 2.634e-05 0)
(0 3.85834e-05 0)
(0 -0.00020277 0)
(0 -6.66531e-05 0)
(0 4.03782e-05 0)
(0 -0.00144039 0)
(0 -0.000441616 0)
(0 -0.000552321 0)
(0 -0.000344654 0)
(0 3.03836e-05 0)
(0 -0.000955251 0)
(0 -5.48015e-05 0)
(0 2.1785e-05 0)
(0 -5.15606e-05 0)
(0 -0.000388014 0)
(0 -0.000860469 0)
(0 2.86376e-05 0)
(0 -5.12497e-05 0)
(0 -0.000870485 0)
(0 -4.98152e-06 0)
(0 -0.000157555 0)
(0 4.15533e-05 0)
(0 -0.000744088 0)
(0 -0.000558727 0)
(0 -1.06334e-05 0)
(0 -0.000309155 0)
(0 -0.000289094 0)
(0 -0.000157845 0)
(0 -0.00107085 0)
(0 -0.000175905 0)
(0 3.38398e-05 0)
(0 -0.00021324 0)
(0 -0.00101947 0)
(0 -0.000296016 0)
(0 4.18291e-05 0)
(0 -0.00116187 0)
(0 -0.000995961 0)
(0 -0.00119868 0)
(0 1.21565e-05 0)
(0 -0.00106847 0)
(0 -0.000575706 0)
(0 -0.000557217 0)
(0 -0.00106842 0)
(0 3.41665e-05 0)
(0 3.81104e-05 0)
(0 -0.000516932 0)
(0 4.52352e-06 0)
(0 4.12144e-05 0)
(0 4.16166e-05 0)
(0 -0.00103968 0)
(0 -0.000719484 0)
(0 -0.00104689 0)
(0 -0.000969312 0)
(0 -0.000751593 0)
(0 -0.000658658 0)
(0 -0.000890757 0)
(0 -0.000559138 0)
(0 -0.000848289 0)
(0 -0.000215677 0)
(0 4.17469e-05 0)
(0 -5.61971e-05 0)
(0 -0.000226459 0)
(0 -0.000613141 0)
(0 -0.000929004 0)
(0 -0.000323909 0)
(0 -0.000125402 0)
(0 -0.000534864 0)
(0 -0.00104253 0)
(0 -4.95936e-05 0)
(0 -0.00011877 0)
(0 3.05127e-05 0)
(0 -0.000334092 0)
(0 -0.00137518 0)
(0 3.53949e-05 0)
(0 -0.000442036 0)
(0 -0.00114156 0)
(0 -0.000870812 0)
(0 -3.21092e-05 0)
(0 -0.000263471 0)
(0 -0.000320623 0)
(0 -0.000267749 0)
(0 -0.000816062 0)
(0 -0.000783437 0)
(0 -5.76811e-05 0)
(0 -0.000356234 0)
(0 -0.000896598 0)
(0 5.10375e-06 0)
(0 -0.000815789 0)
(0 -0.00010778 0)
(0 3.45348e-05 0)
(0 -6.13938e-05 0)
(0 -0.000241698 0)
(0 -6.9023e-05 0)
(0 -0.000643103 0)
(0 7.25399e-06 0)
(0 -3.70565e-05 0)
(0 -7.64992e-05 0)
(0 4.18686e-05 0)
(0 -0.000889348 0)
(0 -0.00148321 0)
(0 -0.000974108 0)
(0 -0.000884 0)
(0 -0.000766239 0)
(0 -0.000473935 0)
(0 -0.000294928 0)
(0 -0.000676907 0)
(0 4.15178e-05 0)
(0 -0.000743327 0)
(0 1.86256e-05 0)
(0 2.84998e-05 0)
(0 -0.00105134 0)
(0 3.79307e-05 0)
(0 -0.000538518 0)
(0 -5.01869e-05 0)
(0 4.17202e-05 0)
(0 -0.000943196 0)
(0 -0.000113178 0)
(0 -0.00142455 0)
(0 4.15475e-05 0)
(0 -0.000340836 0)
(0 -6.00577e-05 0)
(0 -0.00101163 0)
(0 1.11288e-05 0)
(0 -0.000588238 0)
(0 4.1835e-05 0)
(0 -0.00103322 0)
(0 -6.8794e-05 0)
(0 -0.00140938 0)
(0 -0.000648686 0)
(0 -8.03365e-05 0)
(0 -0.00103344 0)
(0 4.1869e-05 0)
(0 4.09206e-05 0)
(0 -0.000209773 0)
(0 3.04264e-05 0)
(0 -0.000160232 0)
(0 4.14721e-05 0)
(0 -0.000104439 0)
(0 -0.000951619 0)
(0 -2.44693e-05 0)
(0 -0.000181014 0)
(0 -0.000125455 0)
(0 -0.000820873 0)
(0 -0.000109426 0)
(0 -0.000613539 0)
(0 -7.80394e-05 0)
(0 -0.00069935 0)
(0 -0.000525344 0)
(0 -0.000550872 0)
(0 4.15886e-05 0)
(0 -6.8701e-06 0)
(0 -0.000811947 0)
(0 3.20833e-05 0)
(0 6.76196e-06 0)
(0 -0.000892305 0)
(0 -7.171e-05 0)
(0 -0.000147555 0)
(0 -3.33786e-05 0)
(0 -0.000173439 0)
(0 -0.000997195 0)
(0 4.07757e-05 0)
(0 -0.000832586 0)
(0 -0.000941427 0)
(0 -0.000653953 0)
(0 -7.85029e-06 0)
(0 -0.000162426 0)
(0 -0.0010332 0)
(0 -0.000156681 0)
(0 -0.000711241 0)
(0 -0.000130477 0)
(0 -0.000773313 0)
(0 4.1231e-05 0)
(0 -7.49068e-05 0)
(0 -0.000348711 0)
(0 -0.000111441 0)
(0 -5.63052e-05 0)
(0 -0.000607035 0)
(0 -0.000934677 0)
(0 3.50883e-05 0)
(0 -0.000114371 0)
(0 -0.000316781 0)
(0 -0.000737786 0)
(0 7.01139e-06 0)
(0 -0.000618483 0)
(0 -0.000724276 0)
(0 -0.0002784 0)
(0 -3.66497e-07 0)
(0 -3.83139e-05 0)
(0 -0.000176958 0)
(0 -0.00135078 0)
(0 -0.000877623 0)
(0 -0.000617579 0)
(0 -0.000746188 0)
(0 -0.000468073 0)
(0 3.22749e-05 0)
(0 -4.48835e-05 0)
(0 -0.000178756 0)
(0 -0.00103486 0)
(0 -0.00048472 0)
(0 -0.000910164 0)
(0 -7.00616e-05 0)
(0 -0.000603543 0)
(0 -0.000527188 0)
(0 -0.000685904 0)
(0 -3.53678e-05 0)
(0 -0.000181346 0)
(0 -0.000326703 0)
(0 -0.00014399 0)
(0 -2.93523e-05 0)
(0 -0.000519105 0)
(0 -9.79277e-05 0)
(0 -0.000369115 0)
(0 -0.00107433 0)
(0 -0.000286139 0)
(0 -0.000965968 0)
(0 -0.00104678 0)
(0 4.17924e-05 0)
(0 -0.000954243 0)
(0 4.11054e-05 0)
(0 -0.000684273 0)
(0 -0.000118495 0)
(0 -0.000292862 0)
(0 -0.000759028 0)
(0 -0.00056089 0)
(0 -0.00040539 0)
(0 -6.04165e-05 0)
(0 -0.000747202 0)
(0 -0.000393621 0)