/*--------------------------------*- C++ -*----------------------------------*\
| =========                 |                                                 |
| \\      /  F ield         | OpenFOAM: The Open Source CFD Toolbox           |
|  \\    /   O peration     | Version:  v2012                                 |
|   \\  /    A nd           | Website:  www.openfoam.com                      |
|    \\/     M anipulation  |                                                 |
\*---------------------------------------------------------------------------*/
FoamFile
{
    version     2.0;
    format      ascii;
    class       volScalarField;
    location    "950";
    object      k_0;
}
// * * * * * * * * * * * * * * * * * * * * * * * * * * * * * * * * * * * * * //

dimensions      [0 2 -2 0 0 0 0];


internalField   nonuniform List<scalar> 
10042
(
0.00014726
0.000148188
0.000147698
0.000157871
0.0782079
0.000148342
0.0807292
0.00123301
0.000146874
0.000147892
0.0317117
0.000157688
0.000144559
0.000144299
0.000151188
0.000148058
0.000147996
0.000149697
0.000147282
0.000170366
0.000147133
0.000223802
0.000145359
0.0001452
0.00014824
0.000158873
0.000148787
0.000149856
0.000146949
0.000149154
0.000147986
0.00711759
0.00014797
0.000148842
0.000155054
0.000145287
0.000157927
0.000163429
0.000145289
0.000157106
0.000171338
0.00015063
0.0825524
0.000148086
0.0777838
0.000177394
0.000149066
0.000192088
0.000156704
0.000176442
0.000149028
0.00014947
0.000150648
0.000151197
0.000157944
0.000148289
0.000146964
0.000148979
0.000148809
0.00015034
0.000148155
0.000147851
0.000155252
0.000147604
0.000148848
0.00014883
0.000148251
0.000165133
0.0625041
0.000147506
0.000151083
0.000172733
0.000148111
0.000157053
0.000148152
0.000145191
0.0833361
0.000147335
0.000156284
0.0851645
0.000155992
0.0649657
0.000148029
0.000150016
0.000148266
0.000149373
0.000147171
0.000181381
0.000147818
0.000147159
0.000148585
0.0609894
0.000150003
0.00014922
0.000149051
0.000147417
0.000147365
0.000147364
0.00015648
0.000146999
0.000149933
0.000176762
0.00524093
0.000149291
0.000149617
0.000164308
0.000147312
0.000147324
0.000147192
0.000144259
0.000145841
0.000147031
0.000154131
0.0552851
0.000148815
0.00014705
0.000147526
0.000147309
0.000147378
0.0376442
0.000147776
0.00149083
0.000148195
0.000147753
0.000176823
0.000148033
0.000756268
0.000157178
0.000164012
0.000147125
0.000156736
0.000148128
0.0384111
0.000201621
0.000146997
0.000167583
0.025567
0.000148629
0.000192848
0.000183357
0.000149866
0.000147514
0.000149371
0.00018566
0.000148066
0.000147019
0.000168527
0.000145228
0.000147444
0.000153436
0.000147076
0.000149676
0.068801
0.0403387
0.00014917
0.000144517
0.00014961
0.000147793
0.000167515
0.0149984
0.0277636
0.000188435
0.000147754
0.000147048
0.000148247
0.000148056
0.000164653
0.0170413
0.00668466
0.0450281
0.000150192
0.000146761
0.0416322
0.000172751
0.000159563
0.0790646
0.025819
0.000148146
0.000166444
0.000159118
0.000149874
0.0104766
0.000148451
0.000157002
0.000150431
0.0398732
0.000206127
0.000148269
0.0334243
0.000152101
0.000305172
0.00014939
0.0688276
0.0112815
0.000185613
0.00103562
0.000154645
0.000147359
0.000144543
0.000151109
0.000159044
0.000148352
0.000147004
0.000173685
0.000148384
0.000145889
0.000357319
0.000148965
0.000149711
0.000149583
0.00030573
0.000148201
0.000163853
0.000186958
0.000149557
0.00020706
0.000147929
0.000147747
0.000171413
0.000146388
0.000154287
0.000149855
0.000196436
0.000164367
0.000153226
0.000159875
0.000198092
0.000147034
0.000193008
0.000151629
0.000146902
0.000171523
0.00014681
0.000151572
0.000147841
0.000153694
0.000146089
0.000144269
0.000151289
0.000156701
0.000147805
0.000148226
0.0001481
0.00015419
0.000147013
0.000148042
0.000145268
0.000149767
0.000150642
0.000149772
0.000144568
0.000147429
0.000152141
0.000205546
0.00018851
0.0264527
0.000159723
0.000159516
0.0001514
0.000179367
0.0631849
0.000150852
0.000147325
0.000144431
0.000151004
0.000146055
0.000210477
0.000151752
0.000147148
0.000149638
0.000159595
0.000150773
0.00018515
0.000159619
0.000186462
0.000152192
0.000156658
0.00014604
0.000154631
0.000148166
0.000159735
0.000147626
0.000158899
0.0432257
0.000145877
0.000147399
0.0621109
0.000177508
0.000148128
0.000148147
0.000151852
0.0798912
0.000171468
0.000186751
0.000149136
0.000144523
0.000147058
0.000146967
0.000190435
0.000147313
0.000148111
0.000146775
0.000147931
0.000164615
0.000151484
0.000169414
0.096011
0.000150041
0.0451156
0.000146968
0.000154313
0.000148726
0.0161845
0.000177504
9.12953e-05
0.0215882
0.000145102
0.000151807
0.000147538
0.000151749
0.000159889
0.000149575
0.000159395
0.000145792
0.000144549
0.000148178
0.000170513
0.000149883
0.000151582
0.000147965
0.00015128
0.0395563
0.000147003
0.000149102
0.000147739
0.000147465
0.000163224
0.000185992
0.000159485
0.00138359
0.000164871
0.000156074
0.000148038
0.000144163
0.000148869
0.000149766
0.000164073
0.000147642
0.00014885
0.000200694
0.00014703
0.000152567
0.00015022
0.000201226
0.000147832
0.000153009
0.000163373
0.000159153
0.000151039
0.000147405
0.00884549
0.000168788
0.000149217
0.000162943
0.000147456
0.000146827
0.000147439
0.000152563
0.000311257
0.000153983
0.00014963
0.000149957
0.000149943
0.000149787
0.000170407
0.000147384
0.000145541
0.0288721
0.000146696
0.0228406
9.38575e-05
0.000157353
0.0839551
0.0227911
0.000155567
0.000171687
0.000148977
0.000177033
0.000149937
0.000148834
0.00023051
0.000148304
0.000152098
0.000764823
0.000148984
0.000147146
0.000161841
0.000273722
0.000148665
0.000145147
0.00776415
0.000177469
0.000146748
0.000165157
0.00524112
0.000146389
0.000149738
0.00014556
0.000147059
0.000144319
0.000145793
0.0235707
0.00806658
0.000148928
0.0861155
0.000144322
0.000147285
0.000236522
0.000148376
0.0241839
0.000172818
0.000150029
0.000145359
0.000145044
0.000174784
0.000150467
0.000155655
0.000149148
0.0354401
0.000149324
0.00241079
0.000150871
0.000147362
0.000147069
0.000227499
0.000147473
0.000153367
0.000147319
0.000147728
0.0119504
0.000154712
0.000147464
0.000146359
0.0114294
0.000147089
0.000155055
0.000150939
0.000146077
0.0711488
0.0836983
0.000147001
0.000148657
0.00015424
0.000144557
0.000147889
0.000147693
0.0153993
0.000147833
0.000146859
0.000155807
0.00305859
0.000170139
0.00014977
0.000158868
0.00736454
0.000166327
0.000147539
0.000147432
0.000201719
0.00014899
0.000147407
0.000155859
0.000147129
0.00014579
0.000150112
0.000144868
0.00015994
0.000147307
0.000147504
0.0258325
0.000146168
0.000149989
0.000148317
0.000148994
0.000159489
0.000147029
0.000147348
0.000146427
0.000149422
0.0869442
0.00015075
0.000149868
0.000149831
0.000179754
0.000147553
0.000147502
0.000147917
0.000149492
0.00015513
0.0829561
0.000147111
0.000159878
0.000374849
0.000166213
0.000149716
0.0001476
0.000148527
0.000149297
0.000146995
0.0327648
0.0217153
0.000148374
0.00015722
0.000159335
0.000158731
0.000148185
0.000145477
0.000185471
0.000174297
0.000315501
0.000145282
0.000148703
0.000148216
0.000146732
0.0655069
0.000160776
0.000149495
0.000147292
0.000146788
0.000148055
5.73965e-05
0.000154754
0.000148839
0.0112498
0.000229175
0.000191549
0.000164798
0.000147945
0.000147034
0.000181469
0.000167371
0.0501372
0.025143
0.000152522
0.000153619
0.00014935
0.00015148
0.000148665
0.000149273
0.0296413
0.000145205
0.000146968
0.000176926
0.000149349
0.000188408
0.000150375
0.000195114
0.000156756
0.000149597
0.000151435
0.000155123
0.000169561
0.000164864
0.00016776
0.00014987
0.000176472
0.000150262
0.000147401
0.000148686
0.000148945
0.000148091
0.000152785
0.000170234
0.000160031
0.000148862
0.000149579
0.000147886
0.000147412
0.000170786
0.000147321
0.000150862
0.000216568
0.000144874
0.000167458
0.000190728
0.000148126
0.0356678
0.000168165
0.000149346
0.000208952
0.000148095
0.000149771
0.000147922
0.000147724
0.000149944
0.000152144
0.000148086
0.000215163
0.000149847
0.000147625
0.00014865
0.000159698
0.00016227
0.000147725
0.000153446
0.000147033
0.000162657
0.000147756
0.000156824
0.000145618
0.000150249
0.000144974
0.000147342
0.0951253
0.000145603
0.00016977
0.000147664
0.000150439
0.000146044
0.000162597
0.000148378
0.000168901
0.000148099
0.000203023
0.000149724
0.0724473
0.000145205
0.000151049
0.000149792
0.000148007
0.000147536
0.000152058
0.000148087
0.000169976
0.0117031
0.000201621
0.000152487
0.000159274
0.000146971
0.00016024
0.000177427
0.000147914
0.000155648
0.000168059
0.0529297
0.000191241
0.00370731
0.00015595
0.000148463
0.000149501
0.000154171
0.000152175
0.000167062
0.000145115
0.000151087
0.000185859
0.000149742
0.000147413
0.000154005
0.0861359
0.000150837
0.000158284
0.000181366
0.000149646
0.0852324
0.000145242
0.000146705
0.000149196
0.00014717
0.0185758
0.000181297
0.0773061
0.000148231
0.000594026
0.030978
0.000159443
0.000166753
0.000179942
0.000192971
0.000161251
0.000147961
0.000147359
0.000156265
0.0175376
0.000146936
0.000156249
0.0867195
0.000147302
0.000147178
0.000147466
0.000150178
0.000147479
0.000148059
0.000178967
0.0126105
0.000147933
0.000147823
0.0367765
0.0639448
0.000147009
0.000147547
0.000148944
0.000147078
0.000239912
0.000181315
0.000183297
0.000149639
0.000147139
0.000146976
0.000149922
0.000148217
0.000162404
0.000149654
0.0977967
0.000147875
0.000148373
0.000162107
0.000146873
0.000164449
0.000164728
0.000151011
0.00569607
0.0667005
0.000148491
0.000146993
0.0685056
0.0250223
0.000159435
0.000147983
0.00172099
0.000174601
0.000153283
0.00014788
0.000147789
0.000147274
0.000189729
0.000152406
0.000167859
0.000149771
0.0443483
0.000293346
0.000147617
0.000147752
0.000169363
0.000148919
0.000146025
0.000153019
0.0566079
0.0509118
0.0852934
0.000149618
0.000175796
0.000160836
0.000145373
0.000147588
0.000149228
0.00018846
0.000149317
0.000147589
0.000175845
0.000148144
0.000170817
0.000148629
0.000148607
0.000145733
0.000148921
0.000199774
0.000149266
0.000147386
0.000167155
0.00016376
0.000186655
0.000149347
0.000178074
0.0602646
0.0877665
0.00015022
0.0171025
0.0147053
0.000147303
0.000144641
0.000149711
0.000150727
0.0434225
0.000151051
0.000148714
0.000149318
0.0632772
0.000159958
0.000149424
0.000148855
0.000147527
0.000163516
0.000146119
0.000146808
0.000161743
0.000150012
0.000149304
0.000146837
0.000231475
0.000147386
0.000149892
0.000148051
0.000149083
0.000185021
0.000149297
0.000150367
0.000148351
0.00015401
0.000204097
0.000149941
0.00018589
0.000154287
0.0451161
0.000146036
0.000151144
0.000161434
0.000177813
0.000161903
0.00014963
0.00630084
0.0348316
0.000149418
0.000147009
0.000106258
0.000148404
0.000149644
0.000146132
0.000149576
0.000169737
0.000149948
0.000149949
0.000164678
0.000156227
0.000156567
0.000157033
0.000149853
0.0890694
0.000151214
0.00021002
0.000147059
0.000176786
0.000159919
0.0739113
0.000152655
0.0600397
0.000149778
0.000155323
0.00014813
0.000148322
0.00014761
0.000194364
0.000159886
0.000175461
0.0220004
0.000148692
0.000163492
0.00015581
0.000146794
0.000156751
0.000159246
0.063318
0.000147713
0.000155322
0.000162954
0.000150965
0.000160149
0.000149882
0.000144866
0.000149878
0.000184607
0.000148803
0.000147857
0.000146153
0.000145973
0.000147374
0.000147749
0.000148843
0.00014687
0.000148925
0.00014932
0.000153324
0.000156806
0.000147799
0.0483996
0.000147948
0.000535801
0.00015914
0.0462723
0.000162587
0.000155033
0.00858266
0.000162587
0.000187082
0.0882582
0.000163265
0.000149269
0.000146799
0.000150166
0.000185816
0.000147461
0.0533362
0.000147428
0.00640005
0.0764958
0.00018028
0.000150304
0.0340336
0.0417281
0.000150557
0.000147723
0.000149736
0.000153367
0.000144796
0.000145641
0.000166844
0.000229756
0.000148398
0.000147433
0.0001491
0.000228425
0.000182494
0.000148964
0.000153534
0.000179882
0.000149294
0.000148028
0.0486683
0.000148926
0.000147309
0.00050172
0.000151739
0.000147847
0.00524676
0.0859103
0.0432622
0.000147401
0.000150565
0.000242069
0.000146168
0.00014736
0.000149886
0.000160296
0.000148149
0.000148627
0.000152087
0.00016103
0.000175604
0.000146468
0.000147759
0.000148404
0.00014718
0.000149521
0.000145039
0.00018934
0.000156184
0.000147915
0.000147729
0.000146343
0.000147649
0.000149201
0.0587746
0.000158582
0.000145113
0.000147377
0.00016003
0.0655427
0.000148144
0.0001477
0.000148049
0.000145075
0.00295781
0.000175323
0.000146655
0.000148305
0.000158405
0.000170797
0.000149051
0.000149874
0.000152811
0.00014797
0.00015557
0.00014914
0.0571014
0.000160797
0.000148338
0.00015458
0.0393051
0.000155477
0.000199174
0.000153331
0.000253555
0.000149788
0.000148839
0.00015387
0.000180817
0.000147441
0.000147444
0.00014959
0.000150225
0.000168947
0.000172748
0.00136651
0.000149946
0.00014777
0.000155755
0.000147979
0.000147968
0.0528367
0.000151403
0.000147924
0.000147748
0.000182272
0.000189002
0.000147759
0.000148279
0.000183277
0.000147115
0.00014858
0.000147525
0.000183134
0.000150608
0.000155547
0.00599555
0.000148862
0.000149046
0.0612094
0.000147163
0.000174603
0.000147162
0.000151121
0.000161814
0.000148052
0.000148476
0.000149133
0.000151441
0.0100482
0.000147339
0.000148803
0.000177126
0.000153424
0.000187462
0.0715106
0.000163489
0.000149362
0.00021373
0.000147531
0.0365516
0.000149044
0.00014806
0.000146665
0.010997
0.000149363
0.000149083
0.000148984
0.000162757
0.0589581
0.000155963
0.000166627
0.000147626
0.000148805
0.00016292
0.000157295
0.000146712
0.000153749
0.000147297
0.0757777
0.0439292
0.000148839
0.000150176
0.00014944
0.0025311
0.000148969
0.00962085
0.000147729
0.000147241
0.000146656
0.000149248
0.000152068
0.000149792
0.00014777
0.000148084
0.00254371
0.00018787
0.000147355
0.00015316
0.000152819
0.000161316
0.000147366
0.000153481
0.000150177
0.000147932
0.000150599
0.000161411
0.000149855
0.000147209
0.000154392
0.000146743
0.000183585
0.000150581
0.000176077
0.000148494
0.000148106
0.000147591
0.000187091
0.00016161
0.000146341
0.000153291
0.000178479
0.00014929
0.000146384
0.000154108
0.000149448
0.0119036
0.000179322
0.000153086
0.0201474
0.000150466
0.000163452
0.00018014
0.000160361
0.000164027
0.00905606
0.000160757
0.000194681
0.000148041
0.000150413
0.000147316
0.000147825
0.000155582
0.000146666
0.000175451
0.000148021
0.000148087
0.000168435
0.000147464
0.000174881
0.000155954
0.000153537
0.000147443
0.000160658
0.000236554
0.000143778
0.000160938
0.0586071
0.000160158
0.000146946
0.000160731
0.000147782
0.000146822
0.00942865
0.000146739
0.000146314
0.000169984
0.000147911
0.000156868
0.000146732
0.000147839
0.084661
0.000147324
0.000145698
0.00015294
0.000147413
0.000145093
0.000149648
0.00716311
0.000148604
0.00014844
0.000145193
0.000184622
0.000149231
0.000152628
0.000147507
0.000159001
0.000149746
0.000147481
0.000150158
0.000148558
0.000146293
0.000171921
0.000163555
0.00015696
0.000151006
0.000165258
0.000178627
0.000154734
0.000155181
0.000150195
0.0899996
0.000147758
0.000147923
0.000147279
0.000149549
0.000158998
0.000147106
0.0616336
0.0355913
0.0124145
0.000148438
0.000153003
0.000161169
0.000144784
0.000167158
0.000163179
0.000247498
0.000180791
0.0554054
0.000178396
0.000201111
0.040912
0.000156065
0.000150796
0.00015351
0.000146769
0.0560135
0.000149588
0.000155885
0.000146598
0.000153123
0.000148156
0.0418147
0.0651899
0.000149298
0.0150956
0.000236313
0.000218581
0.00016809
0.000171499
0.000145713
0.060725
0.000147963
0.0481119
0.0310918
0.000149304
0.000147615
0.000147839
0.000150878
0.000154282
0.000162326
0.000199968
0.000148732
0.000148115
0.000153639
0.00014917
0.000148084
0.000154211
0.000146765
0.000148262
0.000235197
0.000171659
0.000148131
0.0830836
0.000150789
0.000149796
0.000150929
0.000209699
0.000147521
0.000146111
0.000184483
0.000185342
0.000147094
0.000153574
0.000283428
0.000170702
0.047386
0.000146465
0.000203442
0.067156
0.0908076
0.000148435
0.00014768
0.000178784
0.000154025
0.000162289
0.00014905
0.074248
0.000169596
0.000196003
0.000148275
0.000147656
0.0155071
0.000229965
0.000148919
0.000149797
0.0503274
0.000147419
0.000145484
0.000147486
0.0001515
0.000149249
0.0001561
0.000148507
0.000152332
0.000145292
0.000162176
0.0161697
0.000167027
0.000161669
0.0257589
0.000175913
0.000145574
0.000146805
0.00014741
0.000149877
0.000182369
0.000156132
0.000148661
0.000148015
0.000147678
0.000145083
0.000157702
0.000145206
0.000162151
0.000152855
0.000148728
0.0712896
0.0355657
0.000148572
0.0944032
0.000158571
0.000160092
0.000149738
0.000145414
0.0230687
0.000175573
0.00014727
0.000146157
0.000147514
0.000155249
0.000149726
0.000202312
0.000144532
0.000148265
0.000148066
0.0514932
0.0549823
0.000144864
0.0001481
0.000177401
0.000195697
0.000152383
0.0847419
0.077941
0.000147331
0.000148851
0.000148573
0.000150402
0.0436714
0.000148105
0.000149886
0.000186281
0.000179262
0.00014936
0.000147565
0.000165027
0.000149881
0.000148375
0.000178212
0.000180918
0.045228
0.000147705
0.000188146
0.000160331
0.000175317
0.00015047
0.000155304
0.000147395
0.000149231
0.000170458
0.000153821
0.000147811
0.000153051
0.0304605
0.000144769
0.000146846
0.000144742
0.000168713
0.000147448
0.000148451
0.000143912
0.000147443
0.000244859
0.0930396
0.000148815
0.0122586
0.0620469
0.0475973
0.000147399
0.000147817
0.000146709
0.000147249
0.000148676
0.000148918
0.000145268
0.000148424
0.000146308
0.000152094
0.0234526
0.000159849
0.000184404
0.00016028
0.000148056
0.000150628
0.000158834
0.000148703
0.000146875
0.000161706
0.000158526
0.000236226
0.000168421
0.000144714
0.0483231
0.00014988
0.000144416
0.000147378
0.000246584
0.000168218
0.000149923
0.000154089
0.000148357
0.000148518
0.000157514
0.000167849
0.000159103
0.0482988
0.000148441
0.000148043
0.00023425
0.000160656
0.00015324
0.000190396
0.000150919
0.000166651
0.000219407
0.000172748
0.0103793
0.000147237
0.000147161
0.000147398
0.000148183
0.000148516
0.000150684
0.000166591
0.000177745
0.044901
0.000148364
0.0899649
0.0200051
0.000154051
0.000332833
0.000148816
0.00017979
0.0224634
0.000147193
0.000183429
0.000145409
0.000248216
0.000149255
0.000203726
0.000147017
0.000123987
0.000167943
0.0330275
0.000146795
0.000198137
0.000146275
0.000150962
0.000205747
0.000146742
0.0107271
0.0688014
0.000130997
0.0315195
0.000185482
0.0527625
0.00016268
0.000147965
0.000162693
0.000168315
0.0608076
0.000148393
0.000147951
0.000149862
0.000165976
0.000147858
0.000148847
0.000148792
0.0388125
0.0565563
0.000147636
0.0575681
0.000164894
0.000145978
0.000161335
0.00015507
0.06373
0.000157454
0.000146755
0.000196254
0.000148353
0.000147381
0.000148477
0.000182541
0.000174916
0.000147076
0.000154385
0.000148629
0.000149713
0.00014638
0.0550253
0.000149895
0.000146498
0.00705638
0.0002124
0.000152549
0.000147151
0.0403338
0.000155619
0.000150805
0.000147883
0.000162965
0.000150964
0.000157363
0.000152882
0.0303945
0.000162833
0.000174574
0.000144622
0.000163425
0.000173812
0.000158195
0.000149216
0.0987495
0.000149651
0.000203585
0.000147118
0.000149228
0.00016288
0.000202307
0.000151557
0.000154101
0.000148656
0.000159761
0.000176718
0.000189436
0.000155736
0.000149944
0.000147573
0.000155171
0.000189102
0.00014739
0.000168781
0.000147936
0.000147421
0.0387847
0.00014727
0.0612289
0.000147778
0.000154543
0.000181843
0.000147805
0.000158292
0.000196362
0.000183009
0.000147858
0.000188367
0.000149849
0.000149733
0.000147534
0.0285661
0.0697834
0.000147241
0.000147504
0.000146097
0.000146985
0.000183404
0.0761137
0.000147792
0.000228796
0.000146104
0.000146411
0.000147085
0.000867701
0.000150066
0.000151604
0.000147495
0.00014792
0.000147678
0.000149684
0.000149705
0.000160726
0.00327538
0.000145881
0.000147726
0.000160109
0.000173992
0.000146537
0.0382309
0.000168726
0.000146791
0.000145074
0.000149103
0.000191088
0.000146547
0.000186096
0.000156921
0.000152542
0.000146735
0.000168434
0.000144565
0.000172191
0.000155444
0.000149212
0.0128402
0.000503746
0.000143835
0.000147038
0.016971
0.000186503
0.00018058
0.000153779
0.000186026
0.000145272
0.0722653
0.00018408
0.000147356
0.0330368
0.086474
0.000150727
0.000165121
0.000171185
0.000146693
0.0913758
0.000148712
0.000156533
0.000157973
0.000148895
0.000148179
0.000163321
0.000146961
0.000147033
0.000146947
0.000620554
0.000147283
0.000147383
0.000146598
0.000147067
0.000147354
0.000149493
0.000175037
0.000160972
0.00015219
0.000149635
0.00034294
0.000148915
0.000146758
0.000147194
0.000145993
0.00014845
0.000147621
0.00015863
0.000185125
0.000149446
0.000159763
0.000162426
0.000146631
0.000155396
0.0536852
0.00014985
0.00014481
0.000148417
0.000166377
0.000149296
0.000149293
0.000152409
0.000152943
0.0186095
0.0134956
0.000146602
0.00014685
0.000147416
0.000165593
0.000158369
0.000146829
0.000155444
0.000167468
0.000148684
0.000154679
0.000148792
0.000179669
0.000220926
0.000150646
0.000173259
0.000154182
0.0465498
0.000149311
0.000147097
0.0772297
0.000170314
0.000152583
0.00020851
0.000167361
0.0185861
0.000161789
0.000197858
0.000154931
0.000154681
0.0186019
0.000154651
0.000232771
0.00016098
0.000181648
0.0375908
0.000149951
0.000148581
0.000147663
0.000193252
0.000143957
0.0127751
0.00016546
0.0226992
0.000150352
0.000169799
0.000196654
0.000147447
0.000148754
0.000165996
0.000157365
0.000148467
0.000155111
0.000166839
0.000178766
0.000175528
0.00019046
0.0213775
0.000179458
0.000148657
0.000149281
0.077523
0.000165802
0.000149773
0.000160403
0.0531873
0.000148867
0.000152754
0.000147406
0.000156182
0.000148111
0.00014859
0.000159404
0.00014849
0.000155379
0.030802
0.0152651
0.000145915
0.00015369
0.000156509
0.000185756
0.000161737
0.000149251
0.000147298
0.000168816
0.00678097
0.000147366
0.000153008
0.000148293
0.0686482
0.000146958
0.000158094
8.81754e-05
0.000138338
0.000149796
0.000172368
0.000173388
0.000172817
0.000153645
0.000147975
0.0832185
0.000146842
0.00015632
0.000148856
0.000159231
0.000145508
0.000145877
0.000148357
0.000173933
0.000146943
0.000147667
0.000146884
0.000148405
0.000146954
0.000148123
0.0001795
0.0222297
0.0554854
0.000154667
0.000148244
0.000157284
0.000151981
0.050775
0.000149891
0.000174681
0.000145457
0.000147828
0.000149528
0.000161599
0.0755184
0.000147606
0.0357866
0.000148895
0.000144568
0.00015068
0.0860144
0.000151006
0.000160899
0.0642153
0.000149889
0.00014872
0.0135921
0.000147274
0.0363896
0.000148469
0.000161535
0.0177017
0.000150265
0.000148538
0.000146808
0.0177297
0.000156341
0.000147044
0.000203036
0.000147533
0.00015027
0.000177612
0.0481026
0.000177912
0.0653991
0.0100789
0.000166576
0.000151248
0.000175766
0.00020315
0.00014741
0.000147323
0.00015019
0.000157456
0.000166422
0.00014776
0.000153331
0.000147145
0.000147542
0.0519413
0.000149456
0.0281095
0.000145063
0.000163296
0.000182721
0.000146583
0.000144525
0.0582106
0.0657635
0.000170987
0.000148421
0.000153368
0.000178697
0.000146302
0.000164229
0.0001821
0.000167058
0.000159215
0.0264954
0.037824
0.000144675
0.000148788
0.000145409
0.000149231
0.000150692
0.000158108
0.0112078
0.000148694
0.000147625
0.000172936
0.0310969
0.000145145
0.000366014
0.000145602
0.000189006
0.000173397
0.0956273
0.000185672
0.000163254
0.000163547
0.000144817
0.000144454
0.000202625
0.000153929
0.000148469
0.00031504
0.000146903
0.000148444
0.000145297
0.000169491
0.000180406
0.000235843
0.000171966
0.000158431
0.000157237
0.00014839
0.0420964
0.00022735
0.000150585
0.000147659
0.00014671
0.000192476
0.0907428
0.000159487
0.0880662
0.000150197
0.000146708
0.0401131
0.000147852
0.0701433
0.0658642
0.00014626
0.000157664
0.000222557
0.000152191
0.00015927
0.000147139
0.0518793
0.000156162
0.000174755
0.0117115
0.025844
0.000158046
0.000159128
0.000148818
0.000182794
0.0524238
0.000151096
0.000152536
0.0491143
0.000162412
0.00016545
0.000149739
0.0223221
0.0149997
0.00016786
0.000147856
0.000156404
0.00014708
0.000417121
0.000178266
0.000161636
0.0634905
0.0433189
0.000144878
0.000191487
0.000148566
0.00645119
0.000168068
0.000157159
0.000155
0.000294905
0.000143645
0.000182299
0.0144088
0.0638903
0.00015052
0.000148053
0.000146388
0.000168911
0.000711992
0.000190629
0.0645682
0.000195492
0.000163742
0.000147028
0.0529755
0.000180757
0.000156125
0.000176891
0.00674528
0.0327195
0.0223238
0.0328021
0.0396623
0.0220246
0.000148308
0.00015587
0.000160493
0.000148083
0.0368406
0.000311636
0.000147968
0.0848995
0.000148773
0.000147796
0.000146246
0.000160306
0.000146935
0.0447417
0.000163776
0.00022838
0.000146948
0.000236246
0.000162191
0.000251961
0.0186734
0.000150449
0.000157653
0.000160781
0.000164628
0.000146782
0.000145867
0.000147051
0.0401145
0.00014638
0.000146781
0.000236168
0.000151689
0.0515356
0.000148153
0.0595714
0.000147549
0.000148259
0.000147913
0.00014803
0.000157431
0.000152775
0.057624
0.000157208
0.000167047
0.081644
0.00014709
0.0788073
0.000146574
0.0763299
0.00266309
0.0616749
0.0001764
0.00014798
0.000149799
0.0897635
0.000148547
0.000156399
0.000148644
0.000160215
0.0700293
0.00014701
0.00014682
0.000147243
0.000149745
0.0411881
0.0778519
0.00014717
0.000143922
0.0497327
0.0905461
0.000146924
0.0715064
0.000149739
0.0878137
0.0664621
0.000183001
0.000193356
0.000213945
0.000167077
0.03515
0.000188326
0.00014799
0.000144803
0.000146362
0.0826195
0.0869327
0.000150476
0.000155455
0.0358959
0.000146997
0.0277765
0.000147479
0.000148123
0.000145564
0.00667346
0.00018543
0.000146629
0.046313
0.000149656
0.0383086
0.0833018
0.000146477
0.000148627
0.00018754
0.000147557
0.000148811
0.000146631
0.0699949
0.00015766
0.000148052
0.000148773
0.0817908
0.000147794
0.000161739
0.000147722
0.0541026
0.000148561
0.000171739
0.00016057
0.0446015
0.0793744
0.000158759
0.000189055
0.000173341
0.000148375
0.000169294
0.0567905
0.000146688
0.000180844
0.0001463
0.000236636
0.000147141
0.0646895
0.0856727
0.000169569
0.0359616
0.0471096
0.00016001
0.000150069
0.000211776
0.00014733
0.0575236
0.000153341
0.000317492
0.000147397
0.000158132
0.00016562
0.000156791
0.000148497
0.000147778
0.00014924
0.0135699
0.000175966
0.0400014
0.0470232
0.000154989
0.000145364
0.000164099
0.0544902
0.000158397
0.000146893
0.000148411
0.00688333
0.00512822
0.0367166
0.0293257
0.000162433
0.000148959
0.000146376
0.00017115
0.000167659
0.000280148
0.000147821
0.000148335
0.00992809
0.000173663
0.000149893
0.000179282
0.000293379
0.000184632
0.000145865
0.000162526
0.000236249
0.000311945
0.0851637
0.000214441
0.000147283
0.000149775
0.00015008
0.00014989
0.000147908
0.000148491
0.000158569
0.000177529
0.000161262
0.000158117
0.000156521
0.000149182
0.00015403
0.000150113
0.000159408
0.00015815
0.000147108
0.000156473
0.000147477
0.000146696
0.000149455
0.000148698
0.000202882
0.000145329
0.000166804
0.000273161
0.000295215
0.0629613
0.0348299
0.000153107
0.000149533
0.000147133
0.0869939
0.000147928
0.00014422
0.000149091
0.089414
0.000157255
0.00016213
0.000247954
0.000151039
0.00014807
0.000157618
0.000146987
0.000162641
0.000149893
0.000159005
0.000146818
0.00014777
0.000150351
0.000151213
0.000154908
0.000276059
0.000166377
0.000173256
0.000171991
0.000194725
0.000164735
0.00017381
0.000147813
0.0334303
0.000152307
0.000154466
0.000147804
0.000150371
0.000174702
0.000147756
0.000166806
0.00590416
0.000155932
0.000185311
0.000178219
0.000164089
0.000168322
0.000165669
0.000147431
0.000157227
0.000148489
0.000171018
0.000166202
0.0817227
0.000146313
0.000165803
0.000154087
0.0568994
0.000226358
0.00016813
0.000148545
0.000167998
0.000144884
0.000176558
0.000150027
0.0666018
0.000145625
0.000153624
0.000147949
0.000160187
0.000197437
0.000158199
0.0265864
0.000148123
0.000161992
0.000165709
0.000147941
0.0289705
0.0874173
0.000195059
0.000178864
0.000166919
0.000147344
0.000146869
0.0476011
0.000176026
0.000146129
0.000149873
0.000152796
0.000147511
0.000209188
0.000146787
0.0818591
0.000186296
0.00019384
0.00016114
0.000149096
0.00014563
0.000147222
0.000181218
0.000166719
0.000154278
0.0310171
0.000149088
0.00015059
0.000154792
0.0979588
0.000144763
0.000185542
0.000143636
0.0724576
0.000147179
0.000147171
0.00015928
0.000147714
0.000148827
0.000188798
0.0001484
0.000149023
0.000146899
0.000164923
0.00015395
0.0418738
0.000147797
0.000148475
0.000146736
0.000190389
0.000146566
0.000155625
0.000168168
0.0878674
0.0683369
0.000468687
0.000208069
0.000213883
0.000163977
0.00016509
0.000154701
0.000149644
0.000148701
0.0750639
0.000164124
0.000144638
0.000147569
0.000147493
0.000157573
0.000171943
0.000149647
0.000156427
0.000187494
0.000198123
0.000173321
0.000147583
0.000149549
0.0573044
0.000152347
0.00014546
0.0753578
0.0719317
0.000146012
0.000143996
0.000154735
0.000148229
0.000159222
0.000149627
0.00452134
0.000149799
0.0425693
0.000147867
0.0125926
0.000157864
0.000147871
0.00018126
0.000145247
0.000148242
0.000149742
0.000160774
0.000235251
0.000147315
0.000195758
0.000149895
0.000149268
0.000169658
0.000146759
0.000148756
0.000148566
0.000144289
0.000147945
0.000144679
0.000149035
0.00762311
0.000146864
0.000146769
0.000164922
0.00014551
0.000147407
0.000149043
0.000148622
0.0957876
0.000187391
0.000148068
0.000150886
0.000147869
0.000149894
0.000216046
0.000148223
0.000147707
0.00951976
0.00014754
0.00016793
0.000179736
0.000160273
0.000147576
0.00020421
0.000147667
0.000212161
0.000164748
0.000147672
0.0612156
0.0348364
0.000155318
0.000171253
0.000147218
0.000147246
0.000161861
0.000210397
0.000146813
0.000146804
0.000148708
0.000163873
0.000148586
0.000160254
0.000148638
0.000166761
0.000259261
0.00016085
0.000212349
0.000147254
0.000154853
0.000156132
0.000160823
0.000145838
0.000147525
0.000150268
0.000159756
0.000166073
0.000149163
0.000195518
0.000147878
0.0777379
0.000144695
0.000146345
0.000174623
0.000149792
0.000178901
0.000191652
0.00016104
0.000148118
0.000150281
0.000147958
0.000161323
0.000148405
0.000163185
0.000155424
0.000148639
0.000145929
0.000155128
0.0949986
0.00015885
0.000163519
0.0807594
0.00106974
0.000161274
0.000144885
0.0743518
0.000147881
0.000151948
0.000149277
0.000188063
0.000147725
0.000159807
0.000155206
0.000151303
0.000148704
0.000153757
0.00014927
0.000175006
0.000147356
0.000149173
0.00014792
0.000156645
0.00794763
0.000148053
0.0178901
0.000166742
0.000144122
0.0962941
0.000132533
0.000147457
0.000151403
0.000191637
0.00014673
0.000147395
0.062202
0.00014802
0.0685184
0.000153337
0.000152929