/*--------------------------------*- C++ -*----------------------------------*\
| =========                 |                                                 |
| \\      /  F ield         | OpenFOAM: The Open Source CFD Toolbox           |
|  \\    /   O peration     | Version:  v2012                                 |
|   \\  /    A nd           | Website:  www.openfoam.com                      |
|    \\/     M anipulation  |                                                 |
\*---------------------------------------------------------------------------*/
FoamFile
{
    version     2.0;
    format      ascii;
    class       volVectorField;
    location    "350";
    object      cellDisplacement;
}
// * * * * * * * * * * * * * * * * * * * * * * * * * * * * * * * * * * * * * //

dimensions      [0 1 0 0 0 0 0];


internalField   nonuniform List<vector> 
10042
(
(0 -0.0010483 0)
(0 -0.0009484 0)
(0 -0.00108457 0)
(0 -4.9509e-05 0)
(0 1.19355e-05 0)
(0 -0.000890282 0)
(0 -8.84113e-05 0)
(0 -6.08126e-05 0)
(0 -0.00113367 0)
(0 -0.000857359 0)
(0 1.53969e-05 0)
(0 -9.44621e-05 0)
(0 -0.000704806 0)
(0 -0.000438022 0)
(0 -0.000301121 0)
(0 -0.000959697 0)
(0 -0.000979495 0)
(0 -0.00010262 0)
(0 -0.00105344 0)
(0 9.19093e-06 0)
(0 -0.000834793 0)
(0 -0.000161583 0)
(0 -0.000231033 0)
(0 -0.000844363 0)
(0 -0.000926512 0)
(0 -0.000513811 0)
(0 -0.00070099 0)
(0 -0.000452093 0)
(0 -0.00100086 0)
(0 -0.000541189 0)
(0 -0.000956855 0)
(0 1.5413e-05 0)
(0 -0.000831152 0)
(0 -0.000635271 0)
(0 -0.000416181 0)
(0 -0.00083093 0)
(0 -0.0005198 0)
(0 -0.000548071 0)
(0 -0.000790466 0)
(0 -0.000150064 0)
(0 9.92835e-06 0)
(0 -0.000342665 0)
(0 -9.62317e-05 0)
(0 -0.000704733 0)
(0 1.21306e-05 0)
(0 -0.000323345 0)
(0 -0.000504229 0)
(0 -0.000347119 0)
(0 -0.000491125 0)
(0 -0.000629717 0)
(0 -0.000124411 0)
(0 -0.00138155 0)
(0 -0.000345261 0)
(0 -0.00120631 0)
(0 -0.000507548 0)
(0 -0.000906154 0)
(0 -0.000999211 0)
(0 -0.000521464 0)
(0 -0.000652344 0)
(0 -0.000356601 0)
(0 -0.000947062 0)
(0 -0.00102596 0)
(0 -0.000393688 0)
(0 -0.00108781 0)
(0 -0.000487825 0)
(0 -0.000669426 0)
(0 -0.000599627 0)
(0 1.95242e-06 0)
(0 1.45645e-05 0)
(0 -0.000857097 0)
(0 -0.00122778 0)
(0 1.09662e-05 0)
(0 -0.000696408 0)
(0 -6.70041e-05 0)
(0 -0.000615159 0)
(0 -0.00088123 0)
(0 1.24522e-05 0)
(0 -0.00105473 0)
(0 -9.55247e-05 0)
(0 -6.99277e-05 0)
(0 -0.000509258 0)
(0 1.13408e-05 0)
(0 -0.000737559 0)
(0 -0.00039441 0)
(0 -0.000597132 0)
(0 -0.000377696 0)
(0 -0.00104107 0)
(0 -5.19457e-06 0)
(0 -0.000769605 0)
(0 -0.00104479 0)
(0 -0.000788172 0)
(0 1.14917e-05 0)
(0 -0.000437417 0)
(0 -0.00138927 0)
(0 -0.000556351 0)
(0 -0.000871469 0)
(0 -0.00109 0)
(0 -0.000880265 0)
(0 -0.000161632 0)
(0 -0.00103481 0)
(0 -1.91465e-05 0)
(0 -2.3463e-05 0)
(0 -7.37139e-05 0)
(0 -0.000403742 0)
(0 -0.000465345 0)
(0 -4.11631e-05 0)
(0 -0.0010033 0)
(0 -0.00109166 0)
(0 -0.000805662 0)
(0 -0.00136521 0)
(0 -0.000259384 0)
(0 -0.000972274 0)
(0 -0.00030925 0)
(0 1.48425e-05 0)
(0 -0.000499993 0)
(0 -0.000983635 0)
(0 -0.000930442 0)
(0 -0.00104985 0)
(0 -0.000884386 0)
(0 1.51489e-05 0)
(0 -0.00078196 0)
(0 -6.76454e-05 0)
(0 -0.000686227 0)
(0 -0.00093915 0)
(0 -2.75017e-05 0)
(0 -0.000725004 0)
(0 -5.8278e-05 0)
(0 -0.000389494 0)
(0 -4.45529e-05 0)
(0 -0.00103931 0)
(0 -8.74637e-05 0)
(0 -0.000671103 0)
(0 1.53255e-05 0)
(0 -7.07553e-05 0)
(0 -0.00103367 0)
(0 -5.75104e-05 0)
(0 1.53361e-05 0)
(0 -0.000768202 0)
(0 -0.000325479 0)
(0 -2.50854e-06 0)
(0 -0.000427056 0)
(0 -0.000920838 0)
(0 -0.000483886 0)
(0 -2.39353e-05 0)
(0 -0.00141216 0)
(0 -0.000980621 0)
(0 -7.94769e-05 0)
(0 -0.00147061 0)
(0 -0.000861919 0)
(0 -0.000270505 0)
(0 -0.00114951 0)
(0 -4.35958e-05 0)
(0 -3.13482e-05 0)
(0 1.51731e-05 0)
(0 -0.000513188 0)
(0 -0.000655117 0)
(0 -0.000367296 0)
(0 -0.00102795 0)
(0 -5.10447e-05 0)
(0 1.53619e-05 0)
(0 1.54099e-05 0)
(0 -8.55883e-05 0)
(0 -0.000988296 0)
(0 -0.00113562 0)
(0 -0.000701703 0)
(0 -0.000689605 0)
(0 -1.37877e-05 0)
(0 1.52983e-05 0)
(0 1.54182e-05 0)
(0 1.50763e-05 0)
(0 -0.00120219 0)
(0 -0.00105884 0)
(0 1.08955e-05 0)
(0 1.08354e-05 0)
(0 -4.81652e-05 0)
(0 -0.00016581 0)
(0 1.52461e-05 0)
(0 -0.000694032 0)
(0 4.17967e-06 0)
(0 -0.00019283 0)
(0 -0.000348748 0)
(0 1.53935e-05 0)
(0 -0.000580243 0)
(0 -0.000388767 0)
(0 -0.000357102 0)
(0 1.50995e-05 0)
(0 -4.10348e-05 0)
(0 -0.000733482 0)
(0 1.53695e-05 0)
(0 -0.000576631 0)
(0 1.51528e-05 0)
(0 -0.000474962 0)
(0 -3.63857e-05 0)
(0 9.97716e-06 0)
(0 -0.000151928 0)
(0 5.83109e-06 0)
(0 -0.000606279 0)
(0 -0.00102635 0)
(0 -0.000592856 0)
(0 -0.000448044 0)
(0 -4.89121e-05 0)
(0 -0.000723983 0)
(0 -0.00098146 0)
(0 1.09641e-05 0)
(0 -0.000576863 0)
(0 -0.00113058 0)
(0 1.52168e-05 0)
(0 -0.000641032 0)
(0 -0.00012032 0)
(0 -0.000282614 0)
(0 4.12301e-06 0)
(0 -0.000184454 0)
(0 -1.69494e-05 0)
(0 1.01787e-05 0)
(0 -0.000382887 0)
(0 -3.56022e-05 0)
(0 -0.000672417 0)
(0 -0.00101732 0)
(0 -8.17284e-05 0)
(0 -0.00106042 0)
(0 -0.000305209 0)
(0 -0.000359241 0)
(0 9.19015e-06 0)
(0 -0.000533749 0)
(0 -0.000201244 0)
(0 -0.000511863 0)
(0 -5.70213e-05 0)
(0 -0.000982445 0)
(0 -5.1601e-05 0)
(0 -0.00122737 0)
(0 -0.00114443 0)
(0 8.90476e-06 0)
(0 -0.00105808 0)
(0 -0.00124662 0)
(0 -0.00106584 0)
(0 -0.0002623 0)
(0 -0.00109937 0)
(0 -0.000381825 0)
(0 -0.00079392 0)
(0 -0.00104574 0)
(0 -0.000980712 0)
(0 -0.000676696 0)
(0 -0.000725238 0)
(0 -0.000292838 0)
(0 -0.000996618 0)
(0 -0.000957026 0)
(0 -0.000263516 0)
(0 -0.000448955 0)
(0 -0.00121311 0)
(0 -7.88355e-05 0)
(0 -0.000428203 0)
(0 -0.000876823 0)
(0 -0.00029066 0)
(0 1.02598e-05 0)
(0 -8.11813e-05 0)
(0 1.54043e-05 0)
(0 -4.22776e-05 0)
(0 -5.46396e-05 0)
(0 -0.000286705 0)
(0 -0.000288023 0)
(0 -0.000137804 0)
(0 -0.000813227 0)
(0 -0.00100777 0)
(0 -0.000369142 0)
(0 -0.000455083 0)
(0 -0.00109776 0)
(0 -0.000159556 0)
(0 -0.00101111 0)
(0 -0.00103554 0)
(0 -0.00024408 0)
(0 -4.36061e-05 0)
(0 -0.00119904 0)
(0 9.37707e-06 0)
(0 -4.86881e-05 0)
(0 -6.70389e-06 0)
(0 -0.000554251 0)
(0 -0.00106613 0)
(0 -0.00108775 0)
(0 -0.000786677 0)
(0 -0.00138746 0)
(0 -0.000181435 0)
(0 -0.000832215 0)
(0 -0.000500874 0)
(0 1.5252e-05 0)
(0 -0.00112549 0)
(0 -0.00105314 0)
(0 -0.000130102 0)
(0 -0.000302471 0)
(0 -0.000754832 0)
(0 -0.000939638 0)
(0 -0.000309308 0)
(0 -0.000178826 0)
(0 -0.000175411 0)
(0 -2.26172e-05 0)
(0 -0.000105282 0)
(0 -0.00054185 0)
(0 -0.000974333 0)
(0 -0.00111499 0)
(0 -6.15357e-05 0)
(0 -0.000940542 0)
(0 -0.00095904 0)
(0 -0.00106743 0)
(0 -0.000668657 0)
(0 -0.000597871 0)
(0 -0.000290872 0)
(0 -2.18324e-05 0)
(0 9.36928e-06 0)
(0 -0.000378142 0)
(0 -7.35186e-06 0)
(0 -0.00101593 0)
(0 -0.000802583 0)
(0 -0.000740007 0)
(0 1.5414e-05 0)
(0 -3.18621e-05 0)
(0 8.65367e-06 0)
(0 1.52986e-05 0)
(0 -0.000930988 0)
(0 -0.00101486 0)
(0 -0.000843131 0)
(0 -0.000292329 0)
(0 -0.000497906 0)
(0 -0.000241044 0)
(0 -0.000156025 0)
(0 -0.000269453 0)
(0 -0.000308837 0)
(0 -0.000685083 0)
(0 -1.81206e-05 0)
(0 -7.3345e-05 0)
(0 -0.000596204 0)
(0 -0.000709051 0)
(0 -0.000306274 0)
(0 1.51028e-05 0)
(0 -0.00100379 0)
(0 -0.000562417 0)
(0 -0.00033467 0)
(0 -0.00111153 0)
(0 -9.24516e-05 0)
(0 -0.000152901 0)
(0 -5.53922e-05 0)
(0 -1.26702e-05 0)
(0 -0.000577449 0)
(0 -0.000407385 0)
(0 -0.000690458 0)
(0 -0.000443777 0)
(0 -0.000794356 0)
(0 -8.52771e-05 0)
(0 -2.37692e-05 0)
(0 -0.000826626 0)
(0 -0.000652589 0)
(0 -0.000428311 0)
(0 -0.000971928 0)
(0 -0.000270291 0)
(0 -0.0003779 0)
(0 -0.00040686 0)
(0 -0.0012224 0)
(0 -0.000213349 0)
(0 -5.14422e-05 0)
(0 -0.000158537 0)
(0 -0.000477917 0)
(0 -0.00100484 0)
(0 -1.00746e-05 0)
(0 -7.73832e-05 0)
(0 -0.00104141 0)
(0 -0.000100753 0)
(0 -0.00105583 0)
(0 -0.00105217 0)
(0 -0.00105034 0)
(0 -0.000260392 0)
(0 7.1104e-06 0)
(0 -0.00105408 0)
(0 -0.000205583 0)
(0 -0.0003911 0)
(0 -2.20896e-05 0)
(0 -0.000140938 0)
(0 9.55017e-06 0)
(0 -0.00102135 0)
(0 -0.00123635 0)
(0 1.52948e-05 0)
(0 -0.000926905 0)
(0 -7.88737e-05 0)
(0 -2.48915e-05 0)
(0 -6.42103e-05 0)
(0 -0.000194869 0)
(0 1.54097e-05 0)
(0 -0.000190794 0)
(0 9.38245e-06 0)
(0 -0.000626506 0)
(0 -0.000598903 0)
(0 -4.42817e-05 0)
(0 -0.000538988 0)
(0 -0.000342224 0)
(0 -0.000853047 0)
(0 -0.000275536 0)
(0 1.53925e-05 0)
(0 -0.00016728 0)
(0 -0.000856546 0)
(0 -1.29646e-05 0)
(0 1.49529e-05 0)
(0 -0.00068991 0)
(0 -0.00143464 0)
(0 1.54121e-05 0)
(0 -2.73836e-05 0)
(0 -0.00106232 0)
(0 1.0573e-06 0)
(0 1.53657e-05 0)
(0 -0.00106207 0)
(0 -0.00014724 0)
(0 -0.00117221 0)
(0 -0.00102453 0)
(0 -0.000358049 0)
(0 -0.00112731 0)
(0 -9.9655e-06 0)
(0 -6.78694e-05 0)
(0 -0.00052195 0)
(0 8.61914e-06 0)
(0 -0.000369988 0)
(0 -0.000953869 0)
(0 6.2372e-06 0)
(0 -0.00110494 0)
(0 -7.20208e-05 0)
(0 -0.000165791 0)
(0 -0.000390339 0)
(0 -0.0012918 0)
(0 -0.00141783 0)
(0 2.55656e-06 0)
(0 -0.00119179 0)
(0 -0.000182577 0)
(0 -0.000527602 0)
(0 1.53745e-05 0)
(0 -0.000401829 0)
(0 9.73248e-06 0)
(0 -0.000318471 0)
(0 -0.000977981 0)
(0 -0.000975631 0)
(0 9.95275e-06 0)
(0 -0.000976113 0)
(0 -0.000165937 0)
(0 -0.000923083 0)
(0 -0.00122923 0)
(0 1.53831e-05 0)
(0 -0.00056937 0)
(0 -0.000933899 0)
(0 -0.000176643 0)
(0 1.54137e-05 0)
(0 -0.001032 0)
(0 -0.000546197 0)
(0 -0.000442563 0)
(0 -0.0010916 0)
(0 7.28308e-06 0)
(0 -0.000180151 0)
(0 -0.0009109 0)
(0 -0.000525468 0)
(0 -0.00102516 0)
(0 -0.000480086 0)
(0 -0.00100613 0)
(0 -0.000912261 0)
(0 1.54061e-05 0)
(0 -0.000917175 0)
(0 -0.000222148 0)
(0 -0.000147812 0)
(0 -8.20484e-05 0)
(0 -9.87487e-05 0)
(0 -9.27171e-05 0)
(0 -0.000207246 0)
(0 1.53011e-05 0)
(0 -0.00058759 0)
(0 -0.000871795 0)
(0 -0.00101117 0)
(0 -6.60922e-05 0)
(0 -0.00105781 0)
(0 -0.000961226 0)
(0 -0.00010442 0)
(0 -0.00110369 0)
(0 -0.00112139 0)
(0 -0.000343064 0)
(0 -0.00104521 0)
(0 -5.66392e-05 0)
(0 -0.000992309 0)
(0 -0.000981729 0)
(0 1.54156e-05 0)
(0 -0.000752907 0)
(0 -0.00123186 0)
(0 -0.000832883 0)
(0 -0.000551125 0)
(0 -0.000167428 0)
(0 -0.000900406 0)
(0 -0.00111813 0)
(0 8.44931e-06 0)
(0 -0.000503834 0)
(0 -2.96764e-05 0)
(0 -0.000803386 0)
(0 -4.0322e-05 0)
(0 -3.06349e-05 0)
(0 -1.57839e-05 0)
(0 -0.000859433 0)
(0 -0.000928626 0)
(0 -0.00039664 0)
(0 -0.00105391 0)
(0 -0.000153726 0)
(0 -7.24527e-05 0)
(0 -0.00102901 0)
(0 -5.64333e-05 0)
(0 1.53356e-05 0)
(0 -0.000605448 0)
(0 -0.000138878 0)
(0 -0.000951586 0)
(0 -0.00123684 0)
(0 -0.000409616 0)
(0 -0.00103023 0)
(0 1.45335e-05 0)
(0 1.53801e-05 0)
(0 -0.000822795 0)
(0 -0.000404069 0)
(0 -0.000752495 0)
(0 -0.00077109 0)
(0 -0.000594794 0)
(0 -0.000280094 0)
(0 -9.27518e-05 0)
(0 1.23839e-06 0)
(0 1.52227e-05 0)
(0 -0.00127954 0)
(0 -0.00121183 0)
(0 -0.00111162 0)
(0 -0.00094278 0)
(0 1.46735e-05 0)
(0 -0.000172433 0)
(0 -0.00103842 0)
(0 -0.00092276 0)
(0 -0.000144122 0)
(0 -0.000628508 0)
(0 -8.31879e-05 0)
(0 -0.000580546 0)
(0 -0.000675324 0)
(0 1.54194e-05 0)
(0 1.47838e-05 0)
(0 1.16249e-05 0)
(0 -4.21385e-05 0)
(0 -0.000988308 0)
(0 -0.00101417 0)
(0 -0.000660378 0)
(0 -9.58793e-05 0)
(0 1.34463e-05 0)
(0 1.52256e-05 0)
(0 -0.000226932 0)
(0 -0.000156269 0)
(0 -0.000360195 0)
(0 -0.000621399 0)
(0 -0.000537149 0)
(0 -0.000391084 0)
(0 1.54051e-05 0)
(0 -0.000302213 0)
(0 -0.00102366 0)
(0 -0.000375192 0)
(0 -0.000381751 0)
(0 -0.000206219 0)
(0 -0.000822586 0)
(0 -0.00015703 0)
(0 -0.000174954 0)
(0 -0.000277369 0)
(0 -0.000959743 0)
(0 -0.000421657 0)
(0 -0.000830333 0)
(0 -4.69173e-05 0)
(0 -2.50937e-06 0)
(0 -8.34268e-05 0)
(0 -0.000651329 0)
(0 -0.000539216 0)
(0 -0.000874369 0)
(0 -0.000575195 0)
(0 -0.000772868 0)
(0 -0.000898874 0)
(0 -0.000214458 0)
(0 -0.000104892 0)
(0 -3.1063e-05 0)
(0 -0.000655494 0)
(0 -0.000480945 0)
(0 -0.000363465 0)
(0 -0.000937737 0)
(0 8.90127e-06 0)
(0 -0.000766318 0)
(0 -0.000431692 0)
(0 -0.000173002 0)
(0 -0.00101682 0)
(0 -8.7384e-05 0)
(0 -0.000597501 0)
(0 -0.000942195 0)
(0 1.51527e-05 0)
(0 -0.000345934 0)
(0 -0.00039301 0)
(0 -2.84639e-05 0)
(0 -0.00105557 0)
(0 -0.000100593 0)
(0 -0.000702999 0)
(0 -0.000959552 0)
(0 -3.58977e-05 0)
(0 -0.000527566 0)
(0 -0.000608715 0)
(0 1.45e-05 0)
(0 -0.00043405 0)
(0 -0.000961161 0)
(0 -0.000705698 0)
(0 -0.000163134 0)
(0 -0.000391221 0)
(0 -0.000930675 0)
(0 -0.000887151 0)
(0 -0.00101274 0)
(0 -0.000577767 0)
(0 -0.000726171 0)
(0 -0.000165299 0)
(0 -0.00124075 0)
(0 -0.000312837 0)
(0 -0.00138047 0)
(0 -0.00105232 0)
(0 6.00062e-06 0)
(0 -0.00116416 0)
(0 7.52533e-06 0)
(0 -0.000918035 0)
(0 -0.00101754 0)
(0 -0.000742403 0)
(0 -0.00045662 0)
(0 -0.000806041 0)
(0 -0.000324759 0)
(0 -0.000772508 0)
(0 -3.19516e-05 0)
(0 -0.000176663 0)
(0 -0.000108025 0)
(0 -0.00148775 0)
(0 -0.000317417 0)
(0 -0.000142434 0)
(0 -0.000654306 0)
(0 -0.00104688 0)
(0 -0.000521419 0)
(0 -0.000910301 0)
(0 9.39443e-06 0)
(0 1.53088e-05 0)
(0 -0.000220269 0)
(0 -0.000756544 0)
(0 -6.22021e-05 0)
(0 -0.000981559 0)
(0 -6.08107e-05 0)
(0 -0.000335454 0)
(0 -0.000819857 0)
(0 -0.000113464 0)
(0 -1.22444e-08 0)
(0 1.27252e-05 0)
(0 -0.000623557 0)
(0 1.15906e-05 0)
(0 -0.000403133 0)
(0 -0.000638882 0)
(0 -0.000295341 0)
(0 -0.000827446 0)
(0 -0.000544947 0)
(0 -0.000842306 0)
(0 -0.000894436 0)
(0 -0.000498331 0)
(0 -8.45974e-05 0)
(0 -3.66375e-05 0)
(0 -0.000934428 0)
(0 -0.000873251 0)
(0 9.56417e-06 0)
(0 -0.000334804 0)
(0 -0.000220248 0)
(0 -0.000685125 0)
(0 -0.000236536 0)
(0 -7.7257e-05 0)
(0 -0.000937071 0)
(0 -0.00106426 0)
(0 -0.000548629 0)
(0 -0.00108542 0)
(0 1.54112e-05 0)
(0 -0.00033791 0)
(0 1.06288e-05 0)
(0 -0.000155603 0)
(0 1.27444e-05 0)
(0 1.51978e-05 0)
(0 -3.0584e-05 0)
(0 -0.000836504 0)
(0 -0.000291553 0)
(0 -5.77822e-05 0)
(0 -6.22906e-05 0)
(0 -0.000706911 0)
(0 -0.000908419 0)
(0 -9.61544e-05 0)
(0 1.54205e-05 0)
(0 -0.000982514 0)
(0 -0.000136497 0)
(0 -7.42807e-06 0)
(0 -0.000981013 0)
(0 -0.00105383 0)
(0 -0.000859196 0)
(0 -0.000410196 0)
(0 -0.00105187 0)
(0 -0.00122495 0)
(0 -1.60563e-05 0)
(0 6.55451e-06 0)
(0 -0.00123637 0)
(0 -0.0010018 0)
(0 1.53488e-05 0)
(0 -4.06931e-05 0)
(0 -0.000973692 0)
(0 -0.000882417 0)
(0 -0.000146958 0)
(0 -0.00102152 0)
(0 7.50102e-06 0)
(0 -0.000353923 0)
(0 9.97702e-06 0)
(0 -0.000457889 0)
(0 -0.0010596 0)
(0 -0.00118652 0)
(0 -0.000334587 0)
(0 -0.000926957 0)
(0 -0.000507361 0)
(0 -0.000413562 0)
(0 1.04283e-05 0)
(0 -0.00100907 0)
(0 -0.000678395 0)
(0 -7.80658e-05 0)
(0 -0.000995953 0)
(0 -0.000751447 0)
(0 -5.5566e-06 0)
(0 -0.000974446 0)
(0 1.53666e-05 0)
(0 1.10787e-05 0)
(0 -0.00062914 0)
(0 -0.00102062 0)
(0 -8.33236e-06 0)
(0 1.54152e-05 0)
(0 -8.12129e-05 0)
(0 -0.00107037 0)
(0 -5.00461e-05 0)
(0 1.10034e-05 0)
(0 -0.00017398 0)
(0 -0.000725162 0)
(0 -0.00029723 0)
(0 -0.000799425 0)
(0 9.85591e-06 0)
(0 -0.000758963 0)
(0 5.59239e-06 0)
(0 -0.000108705 0)
(0 1.50289e-05 0)
(0 5.82262e-06 0)
(0 -0.000945743 0)
(0 -0.00104446 0)
(0 8.24556e-06 0)
(0 -0.000669916 0)
(0 -0.000756383 0)
(0 -0.000264354 0)
(0 1.49728e-05 0)
(0 1.07799e-05 0)
(0 4.76108e-06 0)
(0 -0.00123939 0)
(0 -0.000266665 0)
(0 -6.99553e-05 0)
(0 -0.000774683 0)
(0 -9.79834e-05 0)
(0 -0.00048069 0)
(0 9.07641e-06 0)
(0 -0.000329761 0)
(0 -0.000966749 0)
(0 -0.000278149 0)
(0 -0.000617386 0)
(0 -8.23091e-05 0)
(0 -0.000191678 0)
(0 -0.000794686 0)
(0 -0.000237274 0)
(0 -0.000615711 0)
(0 -7.98588e-05 0)
(0 -0.000360704 0)
(0 -0.000888901 0)
(0 -0.000300487 0)
(0 -1.62545e-05 0)
(0 1.34213e-05 0)
(0 -0.000388126 0)
(0 -7.39072e-05 0)
(0 -3.94866e-05 0)
(0 -3.4854e-05 0)
(0 -0.000369476 0)
(0 1.54135e-05 0)
(0 1.53712e-05 0)
(0 -0.000990243 0)
(0 -0.000706768 0)
(0 -0.000443132 0)
(0 -0.000304743 0)
(0 5.68001e-06 0)
(0 -0.000435957 0)
(0 -0.00054521 0)
(0 -0.000345475 0)
(0 -3.50104e-05 0)
(0 -6.8451e-05 0)
(0 -0.00126811 0)
(0 -0.000479317 0)
(0 -0.000890283 0)
(0 -0.000101322 0)
(0 -0.000764294 0)
(0 -0.000112252 0)
(0 -0.000592889 0)
(0 -0.000424626 0)
(0 -0.000426398 0)
(0 -0.00108575 0)
(0 1.47552e-05 0)
(0 -0.00104498 0)
(0 -0.000442388 0)
(0 -0.000898648 0)
(0 -0.000545198 0)
(0 -2.0871e-05 0)
(0 -0.000413299 0)
(0 -0.000374871 0)
(0 -0.000859805 0)
(0 -0.000622983 0)
(0 1.45575e-05 0)
(0 -2.69094e-05 0)
(0 1.28395e-05 0)
(0 -0.000320882 0)
(0 8.26521e-06 0)
(0 -0.00023229 0)
(0 -0.000457835 0)
(0 -0.000622611 0)
(0 -7.06578e-05 0)
(0 -1.14949e-05 0)
(0 -0.000421985 0)
(0 1.17744e-05 0)
(0 -0.00012308 0)
(0 -0.000423937 0)
(0 -0.000140284 0)
(0 -3.24938e-05 0)
(0 -0.000824326 0)
(0 -0.000210491 0)
(0 -0.00106963 0)
(0 -0.000236968 0)
(0 -0.000181348 0)
(0 -3.62763e-06 0)
(0 -3.57377e-05 0)
(0 -4.52897e-06 0)
(0 -0.000189002 0)
(0 -8.55196e-05 0)
(0 -9.15359e-05 0)
(0 -0.000360651 0)
(0 8.40803e-06 0)
(0 -0.000840979 0)
(0 1.42198e-05 0)
(0 -0.00101352 0)
(0 -0.000359941 0)
(0 -7.25361e-05 0)
(0 -7.96629e-06 0)
(0 -0.000639087 0)
(0 1.48848e-05 0)
(0 -0.00011374 0)
(0 -0.00101961 0)
(0 -0.000525646 0)
(0 -0.000664045 0)
(0 -0.000843348 0)
(0 -0.000168858 0)
(0 -3.48776e-05 0)
(0 -0.000708908 0)
(0 1.54204e-05 0)
(0 -0.000598994 0)
(0 1.53069e-05 0)
(0 -0.00105032 0)
(0 -0.00104002 0)
(0 -7.53988e-05 0)
(0 -0.000386155 0)
(0 1.0574e-05 0)
(0 -0.00104682 0)
(0 -0.00014829 0)
(0 -1.98501e-05 0)
(0 -0.000425328 0)
(0 -2.68435e-05 0)
(0 -4.7157e-05 0)
(0 -0.000672063 0)
(0 -4.33292e-05 0)
(0 1.13332e-05 0)
(0 -0.0007211 0)
(0 -0.000867657 0)
(0 -0.0010569 0)
(0 -0.000210529 0)
(0 -0.0010561 0)
(0 -0.00101698 0)
(0 -0.000683971 0)
(0 -0.00106388 0)
(0 -0.000653143 0)
(0 -0.000404373 0)
(0 -0.000255891 0)
(0 -0.000100366 0)
(0 -0.000924636 0)
(0 6.42124e-06 0)
(0 -0.000745131 0)
(0 1.21763e-05 0)
(0 -4.81931e-05 0)
(0 1.44454e-05 0)
(0 -0.0002107 0)
(0 -0.00103298 0)
(0 1.54146e-05 0)
(0 -0.00037129 0)
(0 1.0834e-05 0)
(0 -3.03078e-05 0)
(0 -0.000110278 0)
(0 -0.000377226 0)
(0 -0.00106551 0)
(0 -0.000442846 0)
(0 -2.01361e-05 0)
(0 -0.000855782 0)
(0 1.49942e-05 0)
(0 -0.000870079 0)
(0 1.51961e-05 0)
(0 -0.000115981 0)
(0 -0.000718457 0)
(0 -0.000812059 0)
(0 1.51934e-05 0)
(0 1.50225e-05 0)
(0 -0.000295662 0)
(0 -0.000945526 0)
(0 -0.000184156 0)
(0 -0.000871104 0)
(0 -0.000660879 0)
(0 -0.000227474 0)
(0 -5.07721e-05 0)
(0 -0.000361362 0)
(0 -0.000840276 0)
(0 -0.000865223 0)
(0 -0.000423532 0)
(0 9.5369e-06 0)
(0 -0.000629395 0)
(0 -0.000639692 0)
(0 -0.000342208 0)
(0 -0.000102841 0)
(0 -0.000512123 0)
(0 -0.000953837 0)
(0 1.51131e-05 0)
(0 -0.00054448 0)
(0 -0.000939832 0)
(0 1.532e-05 0)
(0 -0.000319952 0)
(0 -0.000686757 0)
(0 1.54175e-05 0)
(0 -0.000151546 0)
(0 1.50062e-05 0)
(0 -0.000942719 0)
(0 -0.000360238 0)
(0 -2.72697e-05 0)
(0 -0.00106475 0)
(0 -0.000905343 0)
(0 -7.19761e-05 0)
(0 -0.000908242 0)
(0 -0.000953303 0)
(0 -0.000176855 0)
(0 -0.00124486 0)
(0 -1.71255e-05 0)
(0 1.00747e-05 0)
(0 -0.00105967 0)
(0 -0.000755981 0)
(0 -0.000806419 0)
(0 -0.000938821 0)
(0 -0.000466783 0)
(0 -0.000660147 0)
(0 -6.48292e-05 0)
(0 -0.000168126 0)
(0 -0.000751147 0)
(0 -0.00101753 0)
(0 -0.00105413 0)
(0 -0.000825182 0)
(0 -0.000694394 0)
(0 1.49004e-05 0)
(0 -0.000543387 0)
(0 -0.00145542 0)
(0 -0.00100903 0)
(0 -3.05872e-05 0)
(0 -6.461e-06 0)
(0 -0.000897177 0)
(0 -0.000798385 0)
(0 -0.000910367 0)
(0 -0.00139845 0)
(0 1.11606e-05 0)
(0 -0.00068502 0)
(0 -0.000170539 0)
(0 -0.000149006 0)
(0 -0.000400509 0)
(0 9.53301e-07 0)
(0 -0.000543311 0)
(0 -8.15398e-05 0)
(0 -0.000264047 0)
(0 -0.000912386 0)
(0 -0.000758826 0)
(0 -0.000510053 0)
(0 -0.000111094 0)
(0 -0.000160891 0)
(0 -0.000889213 0)
(0 -0.000382408 0)
(0 1.13565e-05 0)
(0 -0.000149237 0)
(0 -0.000161808 0)
(0 -0.00031607 0)
(0 -2.79936e-05 0)
(0 -0.000116606 0)
(0 -0.00126437 0)
(0 -0.000612971 0)
(0 -0.000377261 0)
(0 -0.000900778 0)
(0 -0.00141832 0)
(0 -0.00024891 0)
(0 -0.00104556 0)
(0 7.26223e-06 0)
(0 1.25452e-06 0)
(0 -0.000295897 0)
(0 -0.000829263 0)
(0 -0.000368207 0)
(0 -0.000163365 0)
(0 -0.000731822 0)
(0 -0.000733653 0)
(0 -8.45974e-05 0)
(0 -0.000339349 0)
(0 -0.000795054 0)
(0 -0.000952527 0)
(0 1.12446e-05 0)
(0 3.81801e-06 0)
(0 -0.000169138 0)
(0 -0.000688238 0)
(0 -0.000161517 0)
(0 -0.00118046 0)
(0 -0.000747241 0)
(0 -0.000875232 0)
(0 -0.000174773 0)
(0 -0.000593689 0)
(0 -0.000742813 0)
(0 1.54288e-05 0)
(0 -0.000566066 0)
(0 -0.00057951 0)
(0 -4.5619e-05 0)
(0 -0.000942022 0)
(0 8.96395e-06 0)
(0 -9.98694e-05 0)
(0 -0.000479263 0)
(0 -5.96642e-05 0)
(0 -0.000704418 0)
(0 -0.000689121 0)
(0 -0.00127553 0)
(0 -0.000652201 0)
(0 1.15018e-05 0)
(0 -0.0010201 0)
(0 -0.000478876 0)
(0 1.12451e-05 0)
(0 -0.000197512 0)
(0 -9.51304e-05 0)
(0 1.43673e-05 0)
(0 -5.60073e-05 0)
(0 -0.000319256 0)
(0 4.58842e-06 0)
(0 -0.00121913 0)
(0 5.75127e-06 0)
(0 -0.000593983 0)
(0 -0.000738611 0)
(0 -0.000228233 0)
(0 1.54165e-05 0)
(0 -0.000358545 0)
(0 -0.000512547 0)
(0 -0.000586034 0)
(0 -0.000468597 0)
(0 -4.50167e-05 0)
(0 -0.000184466 0)
(0 -0.000104748 0)
(0 -0.000830033 0)
(0 -0.000510535 0)
(0 -0.000198059 0)
(0 -0.000250092 0)
(0 -0.0010411 0)
(0 -0.000407522 0)
(0 -0.00095111 0)
(0 -3.11961e-05 0)
(0 1.52275e-05 0)
(0 -0.00069849 0)
(0 -0.000328042 0)
(0 -0.000337258 0)
(0 -0.000275027 0)
(0 -0.000632067 0)
(0 1.54363e-05 0)
(0 -0.000915067 0)
(0 -0.00105811 0)
(0 -0.000209624 0)
(0 -0.00067593 0)
(0 -0.000648763 0)
(0 -4.43826e-05 0)
(0 -0.00101291 0)
(0 -0.000605338 0)
(0 -4.64941e-05 0)
(0 -0.000180499 0)
(0 -0.000892556 0)
(0 -0.000620958 0)
(0 -0.000885711 0)
(0 -5.73795e-05 0)
(0 -0.0010731 0)
(0 -0.00016359 0)
(0 -0.000540274 0)
(0 -0.000704548 0)
(0 -0.000291645 0)
(0 -0.000781721 0)
(0 -3.38406e-05 0)
(0 -0.000922532 0)
(0 -0.000178613 0)
(0 -0.00109694 0)
(0 -9.37379e-06 0)
(0 -0.000519078 0)
(0 6.43078e-07 0)
(0 -0.000595571 0)
(0 -0.000952287 0)
(0 -0.00139728 0)
(0 -0.000591687 0)
(0 -8.17515e-05 0)
(0 -0.00104649 0)
(0 -0.000630467 0)
(0 -0.000198396 0)
(0 -0.000486349 0)
(0 -0.00105593 0)
(0 -0.000398838 0)
(0 -6.78785e-05 0)
(0 1.54216e-05 0)
(0 9.57754e-06 0)
(0 -0.000297845 0)
(0 1.54156e-05 0)
(0 -0.000312539 0)
(0 -0.000492489 0)
(0 -9.29471e-05 0)
(0 -7.3241e-05 0)
(0 -0.000779454 0)
(0 1.54095e-05 0)
(0 -0.000876041 0)
(0 -0.000189046 0)
(0 -0.000891343 0)
(0 -0.000612793 0)
(0 -0.000891246 0)
(0 -0.000707709 0)
(0 -0.000510054 0)
(0 -0.00103701 0)
(0 1.17641e-05 0)
(0 -0.000728922 0)
(0 -0.000684806 0)
(0 -1.66935e-05 0)
(0 -0.00100627 0)
(0 -0.000355713 0)
(0 -0.00102583 0)
(0 -0.000258258 0)
(0 -0.00087016 0)
(0 -3.1835e-05 0)
(0 -0.000407516 0)
(0 -0.00078791 0)
(0 -0.000498156 0)
(0 1.48017e-05 0)
(0 -2.48276e-05 0)
(0 -0.00117083 0)
(0 -0.000855938 0)
(0 -0.000825708 0)
(0 -0.00100694 0)
(0 9.09921e-06 0)
(0 -0.00106528 0)
(0 -0.000788799 0)
(0 -0.000220206 0)
(0 -0.000751769 0)
(0 -0.000766823 0)
(0 -0.00105581 0)
(0 -0.00101511 0)
(0 -0.000100779 0)
(0 -0.0009058 0)
(0 -0.00112263 0)
(0 -0.000397518 0)
(0 -0.000928372 0)
(0 -0.00149423 0)
(0 -6.09215e-05 0)
(0 1.05731e-05 0)
(0 -0.000580006 0)
(0 -0.000654018 0)
(0 -0.00128055 0)
(0 -0.000265139 0)
(0 -0.000441636 0)
(0 -0.000338701 0)
(0 -0.000882049 0)
(0 -8.59853e-05 0)
(0 -0.000457291 0)
(0 -0.000885539 0)
(0 -0.000492136 0)
(0 -0.000806145 0)
(0 -0.000816138 0)
(0 2.17554e-06 0)
(0 -0.000120281 0)
(0 -0.000250329 0)
(0 -0.000288546 0)
(0 -0.00011242 0)
(0 -0.000184133 0)
(0 -0.000133809 0)
(0 -0.000123102 0)
(0 -0.000368913 0)
(0 -1.16033e-05 0)
(0 -0.000724174 0)
(0 -0.000773463 0)
(0 -0.000740506 0)
(0 -6.24775e-05 0)
(0 -7.4119e-05 0)
(0 -0.000116797 0)
(0 7.24412e-06 0)
(0 1.53669e-05 0)
(0 -1.9727e-05 0)
(0 -0.000715337 0)
(0 -0.000404607 0)
(0 -7.82135e-05 0)
(0 -0.0012389 0)
(0 3.94605e-06 0)
(0 -4.42486e-05 0)
(0 1.09028e-05 0)
(0 -0.000395352 0)
(0 1.49974e-05 0)
(0 -0.000177995 0)
(0 -0.000156206 0)
(0 7.44181e-06 0)
(0 -0.000199539 0)
(0 -0.000855693 0)
(0 -0.000301119 0)
(0 -0.00101065 0)
(0 9.3142e-06 0)
(0 -0.000655747 0)
(0 -0.00011519 0)
(0 -0.00105781 0)
(0 -0.00025478 0)
(0 -0.000955521 0)
(0 1.53039e-05 0)
(0 8.43852e-06 0)
(0 -0.000293635 0)
(0 1.53911e-05 0)
(0 8.09646e-06 0)
(0 -0.000255077 0)
(0 -0.000221559 0)
(0 -8.90533e-05 0)
(0 -0.00111362 0)
(0 1.4797e-05 0)
(0 -0.000737804 0)
(0 -1.22953e-05 0)
(0 1.53943e-05 0)
(0 -0.00031271 0)
(0 -0.000836485 0)
(0 -0.000835884 0)
(0 -0.0003227 0)
(0 -0.000841619 0)
(0 -0.000241784 0)
(0 -8.48886e-05 0)
(0 -0.000569948 0)
(0 -0.000968177 0)
(0 -0.000399926 0)
(0 -0.000807036 0)
(0 -0.000518673 0)
(0 -0.000229982 0)
(0 -0.001068 0)
(0 -0.000914791 0)
(0 -0.000386905 0)
(0 -0.000110875 0)
(0 -0.000961738 0)
(0 -3.66814e-05 0)
(0 -0.00100382 0)
(0 -0.000132116 0)
(0 -0.000275585 0)
(0 -2.29709e-05 0)
(0 -0.000913383 0)
(0 -0.00105278 0)
(0 -9.19447e-05 0)
(0 -4.4829e-06 0)
(0 -0.0010619 0)
(0 -0.000355587 0)
(0 1.90249e-06 0)
(0 -0.000171385 0)
(0 1.52149e-05 0)
(0 -0.00106048 0)
(0 -0.000216177 0)
(0 1.4214e-05 0)
(0 1.07715e-05 0)
(0 -0.000817213 0)
(0 -0.000820384 0)
(0 -0.000366821 0)
(0 -0.000195535 0)
(0 -8.21731e-05 0)
(0 -0.000521609 0)
(0 1.42129e-05 0)
(0 -0.000215183 0)
(0 -4.57644e-05 0)
(0 -0.000669994 0)
(0 -0.000781079 0)
(0 1.54021e-05 0)
(0 -0.000366834 0)
(0 -0.000655488 0)
(0 -0.000126342 0)
(0 1.499e-05 0)
(0 -0.000943473 0)
(0 -0.00128964 0)
(0 -0.00143994 0)
(0 -0.000659299 0)
(0 -0.000324815 0)
(0 -0.000105456 0)
(0 -0.000601755 0)
(0 -0.000846902 0)
(0 -0.001044 0)
(0 -0.000495771 0)
(0 1.50809e-05 0)
(0 -4.55037e-05 0)
(0 -0.000255281 0)
(0 1.52491e-05 0)
(0 -9.9989e-05 0)
(0 -0.00115397 0)
(0 -0.00101308 0)
(0 -0.000878383 0)
(0 -4.60745e-06 0)
(0 -2.90783e-05 0)
(0 -0.000104438 0)
(0 -0.00129129 0)
(0 -0.000727618 0)
(0 -0.000957888 0)
(0 -0.000613502 0)
(0 -9.08584e-05 0)
(0 -0.000948964 0)
(0 -2.30811e-05 0)
(0 -0.00083175 0)
(0 -0.000656891 0)
(0 6.62788e-06 0)
(0 1.53628e-05 0)
(0 -0.000705815 0)
(0 -7.35386e-06 0)
(0 -8.38644e-05 0)
(0 -0.000183526 0)
(0 -0.0001694 0)
(0 -0.00115346 0)
(0 1.52559e-05 0)
(0 -0.000109953 0)
(0 -0.000947594 0)
(0 -0.00107514 0)
(0 -0.000892343 0)
(0 -0.000386861 0)
(0 -0.000144626 0)
(0 -0.00023256 0)
(0 -0.000949736 0)
(0 -0.000908171 0)
(0 -0.000751364 0)
(0 -1.90122e-05 0)
(0 1.4884e-05 0)
(0 -0.00137924 0)
(0 -0.000598936 0)
(0 1.8332e-09 0)
(0 1.21591e-05 0)
(0 -0.000227632 0)
(0 -9.26544e-05 0)
(0 1.39388e-05 0)
(0 -0.00146027 0)
(0 -0.000445531 0)
(0 -0.000574628 0)
(0 -0.000368474 0)
(0 3.98351e-06 0)
(0 -0.000966797 0)
(0 -5.53083e-05 0)
(0 -4.53471e-06 0)
(0 -7.75312e-05 0)
(0 -0.000392742 0)
(0 -0.000877584 0)
(0 2.2721e-06 0)
(0 -5.17334e-05 0)
(0 -0.000880934 0)
(0 -3.11591e-05 0)
(0 -0.000183056 0)
(0 1.51084e-05 0)
(0 -0.000751404 0)
(0 -0.000582644 0)
(0 -3.67368e-05 0)
(0 -0.00033395 0)
(0 -0.000313383 0)
(0 -0.000182858 0)
(0 -0.0010849 0)
(0 -0.000176323 0)
(0 7.4469e-06 0)
(0 -0.000237855 0)
(0 -0.00103242 0)
(0 -0.000320121 0)
(0 1.53823e-05 0)
(0 -0.00117847 0)
(0 -0.00101344 0)
(0 -0.00121577 0)
(0 -1.40757e-05 0)
(0 -0.00108165 0)
(0 -0.000580897 0)
(0 -0.000564394 0)
(0 -0.00108218 0)
(0 7.76687e-06 0)
(0 1.16815e-05 0)
(0 -0.000539534 0)
(0 -2.17619e-05 0)
(0 1.47705e-05 0)
(0 1.51712e-05 0)
(0 -0.00105467 0)
(0 -0.000740018 0)
(0 -0.00106164 0)
(0 -0.000986695 0)
(0 -0.000760438 0)
(0 -0.000665699 0)
(0 -0.000902822 0)
(0 -0.0005642 0)
(0 -0.000859647 0)
(0 -0.000240456 0)
(0 1.53008e-05 0)
(0 -8.19297e-05 0)
(0 -0.000251802 0)
(0 -0.000636616 0)
(0 -0.000938836 0)
(0 -0.000347877 0)
(0 -0.000150649 0)
(0 -0.000557321 0)
(0 -0.00105832 0)
(0 -7.53803e-05 0)
(0 -0.000144049 0)
(0 4.13149e-06 0)
(0 -0.000358693 0)
(0 -0.00139329 0)
(0 8.98092e-06 0)
(0 -0.000465101 0)
(0 -0.00115751 0)
(0 -0.0008911 0)
(0 -5.82347e-05 0)
(0 -0.000288351 0)
(0 -0.000344653 0)
(0 -0.000292052 0)
(0 -0.000827128 0)
(0 -0.000791604 0)
(0 -8.34902e-05 0)
(0 -0.000380739 0)
(0 -0.000919064 0)
(0 -2.11865e-05 0)
(0 -0.00082433 0)
(0 -0.000109046 0)
(0 8.13359e-06 0)
(0 -8.70895e-05 0)
(0 -0.000266119 0)
(0 -9.49623e-05 0)
(0 -0.000665766 0)
(0 -1.89397e-05 0)
(0 -6.31592e-05 0)
(0 -0.000102313 0)
(0 1.54215e-05 0)
(0 -0.00090879 0)
(0 -0.00150279 0)
(0 -0.000984865 0)
(0 -0.000895996 0)
(0 -0.000776428 0)
(0 -0.000497036 0)
(0 -0.000319651 0)
(0 -0.000700323 0)
(0 1.50732e-05 0)
(0 -0.000750394 0)
(0 -7.72223e-06 0)
(0 2.11585e-06 0)
(0 -0.00107312 0)
(0 1.1509e-05 0)
(0 -0.000560918 0)
(0 -7.61687e-05 0)
(0 1.52742e-05 0)
(0 -0.00095382 0)
(0 -0.000138897 0)
(0 -0.00144355 0)
(0 1.5103e-05 0)
(0 -0.00034384 0)
(0 -8.60573e-05 0)
(0 -0.00102838 0)
(0 -1.51792e-05 0)
(0 -0.000611917 0)
(0 1.53882e-05 0)
(0 -0.00104678 0)
(0 -9.47479e-05 0)
(0 -0.00142911 0)
(0 -0.000671366 0)
(0 -0.000106263 0)
(0 -0.00104721 0)
(0 1.5422e-05 0)
(0 1.44781e-05 0)
(0 -0.000235188 0)
(0 4.03394e-06 0)
(0 -0.000185749 0)
(0 1.50275e-05 0)
(0 -0.000129915 0)
(0 -0.000964483 0)
(0 -5.04337e-05 0)
(0 -0.00020626 0)
(0 -0.000151214 0)
(0 -0.000829264 0)
(0 -0.000110729 0)
(0 -0.000636031 0)
(0 -0.000103742 0)
(0 -0.000720075 0)
(0 -0.000547889 0)
(0 -0.00057315 0)
(0 1.51436e-05 0)
(0 -3.31163e-05 0)
(0 -0.000831807 0)
(0 5.68295e-06 0)
(0 -1.94284e-05 0)
(0 -0.000904683 0)
(0 -9.7348e-05 0)
(0 -0.000172674 0)
(0 -5.95136e-05 0)
(0 -0.000198363 0)
(0 -0.00101587 0)
(0 1.43361e-05 0)
(0 -0.000843583 0)
(0 -0.000951666 0)
(0 -0.000659858 0)
(0 -3.40244e-05 0)
(0 -0.00018785 0)
(0 -0.00105359 0)
(0 -0.000181775 0)
(0 -0.000720799 0)
(0 -0.000131676 0)
(0 -0.000783366 0)
(0 1.47881e-05 0)
(0 -7.56823e-05 0)
(0 -0.000353312 0)
(0 -0.000137258 0)
(0 -8.23243e-05 0)
(0 -0.000630051 0)
(0 -0.000954583 0)
(0 8.66911e-06 0)
(0 -0.000139774 0)
(0 -0.000340783 0)
(0 -0.000758482 0)
(0 -1.91963e-05 0)
(0 -0.000641236 0)
(0 -0.000747304 0)
(0 -0.00030258 0)
(0 -2.66337e-05 0)
(0 -6.41843e-05 0)
(0 -0.000202309 0)
(0 -0.00136874 0)
(0 -0.000900208 0)
(0 -0.000641201 0)
(0 -0.000769156 0)
(0 -0.000491062 0)
(0 5.8692e-06 0)
(0 -4.53405e-05 0)
(0 -0.000204261 0)
(0 -0.00105105 0)
(0 -0.000490179 0)
(0 -0.00093262 0)
(0 -9.60155e-05 0)
(0 -0.000626424 0)
(0 -0.000550622 0)
(0 -0.000692481 0)
(0 -6.12756e-05 0)
(0 -0.000206702 0)
(0 -0.000351554 0)
(0 -0.000169105 0)
(0 -2.96195e-05 0)
(0 -0.000524665 0)
(0 -0.000123496 0)
(0 -0.000393796 0)
(0 -0.00108812 0)
(0 -0.000310918 0)
(0 -0.000976449 0)
(0 -0.00106155 0)
(0 1.53458e-05 0)
(0 -0.000971879 0)
(0 1.46633e-05 0)
(0 -0.00070474 0)
(0 -0.000143928 0)
(0 -0.000317788 0)
(0 -0.000779498 0)
(0 -0.000584468 0)
(0 -0.000429951 0)
(0 -8.63687e-05 0)
(0 -0.000767875 0)
(0 -0.000418197 0)