/*--------------------------------*- C++ -*----------------------------------*\
| =========                 |                                                 |
| \\      /  F ield         | OpenFOAM: The Open Source CFD Toolbox           |
|  \\    /   O peration     | Version:  v2012                                 |
|   \\  /    A nd           | Website:  www.openfoam.com                      |
|    \\/     M anipulation  |                                                 |
\*---------------------------------------------------------------------------*/
FoamFile
{
    version     2.0;
    format      ascii;
    class       volScalarField;
    location    "300";
    object      omega;
}
// * * * * * * * * * * * * * * * * * * * * * * * * * * * * * * * * * * * * * //

dimensions      [0 0 -1 0 0 0 0];


internalField   nonuniform List<scalar> 
9793
(
0.0223726
15.5399
0.021937
2.61862
0.0222597
0.204699
0.0827716
5.29602
0.0221369
14.3849
0.0221966
0.0221873
0.0219177
1.7371
0.0217839
0.0264523
0.0530659
0.0219323
2.19613
0.0215574
0.0216253
0.0222917
2.64211
5.42271
1.81837
0.0265611
0.022099
0.022262
0.0215678
0.0796905
7.73681
0.36516
0.0220115
0.0219457
0.0218679
0.0283888
0.0245385
0.0249276
1.60132
0.0306609
0.068539
8.6876
4.25038
0.0222717
0.0219609
0.0220421
5.90479
0.0222844
0.0217165
0.0219395
0.0281082
0.021851
0.0372328
0.0222686
0.0330881
2.18815
0.0219264
0.0897557
0.021723
0.0222914
0.0270132
0.0970837
0.021952
0.0348741
0.0219629
0.0220639
25.7312
0.0241839
0.025011
3.28667
0.0219728
0.102479
4.82595
4.12995
4.35166
0.0222624
0.04614
10.6717
0.0219821
0.0222706
0.0493796
2.14069
0.0512055
0.0239289
0.0250336
0.241821
0.0222612
0.0676336
1.6141
0.0936647
1.8368
1.39456
1.48389
0.0410137
4.00125
0.0219051
4.9147
0.0500393
0.0246949
0.0222685
1.44553
0.0354418
2.36915
0.0219661
3.55537
10.4686
4.06914
0.021878
0.0219861
0.0222835
0.0222335
2.16943
3.29395
7.41632
0.0219503
0.0221124
0.0243672
0.0220502
1.86399
0.0220278
3.07415
0.0723377
6.86478
0.0419495
0.0245696
0.0220335
0.0604687
6.08508
0.184575
0.191896
0.023803
0.0218015
0.0222699
0.0233971
0.0272892
0.160151
0.594639
0.0244101
0.0222737
0.0606532
2.27653
0.0275457
0.0219306
0.0552395
5.69599
0.614063
0.0220342
4.72593
0.0217976
0.0220282
0.0220696
14.9073
0.0242386
0.0220921
0.0219187
1.37169
0.0565606
0.0219471
0.551985
0.0219139
0.0636343
0.023912
0.0216323
0.358943
0.0220817
9.48464
2.30526
0.0222763
0.0218792
0.0222173
0.0219438
6.19777
27.0297
1.9665
0.021911
0.185233
0.136745
0.736379
0.0219671
0.0241232
3.9437
7.16594
0.0793551
0.0220349
0.0220729
0.0218726
7.34333
4.66896
21.7527
2.49617
0.0219904
22.1742
0.415009
0.0254079
0.0217608
0.0232864
1.98714
0.0215944
0.0219303
0.022204
0.0219912
0.0216256
0.0291847
0.0251129
1.76241
0.021925
0.0280159
0.0222743
0.0223274
0.486908
0.0583282
2.4398
0.0216326
2.83811
0.0239466
0.0428881
0.0217967
0.155629
0.0221213
0.050372
0.053508
0.0216289
1.41806
2.07628
0.0393117
0.0218905
0.0508315
2.08839
0.0494057
0.0502257
1.60289
0.136434
0.0405948
0.0355819
0.367593
0.021592
4.53149
6.32445
0.0216004
0.0222223
8.17037
0.0219017
0.0222313
0.108594
0.120395
0.0220546
0.0241533
0.0290698
0.0381391
0.0242215
0.0219732
0.0439592
2.93546
0.0216262
1.98416
0.022262
0.02217
0.0216594
2.11867
0.0219772
2.77473
2.84719
0.0221032
0.022131
3.13489
0.0218353
0.0222397
0.0218017
2.57348
0.26959
0.0249312
0.445119
0.0841428
2.29485
3.92063
0.0222981
21.6325
0.0222643
2.09136
7.81381
1.64855
3.17799
0.132952
0.0238322
0.0473287
0.0247282
0.0217949
0.022379
0.459929
0.0267275
0.0221395
0.0222838
0.02163
0.0216571
0.0216294
2.49786
0.0218685
0.0217748
0.0218446
0.0219195
5.44913
0.592117
0.0638885
0.0228642
0.0557642
0.0219514
3.13947
10.9119
0.0219713
3.30671
0.0330806
0.0219552
24.7205
3.97172
0.0220193
0.046156
13.2141
0.0221282
0.033914
0.0217751
0.022215
2.23333
0.040929
0.0219551
0.0220214
0.0227378
0.17367
3.34699
0.021941
0.021872
0.0217469
6.89669
4.58926
7.47343
0.0215869
0.0433154
0.0347429
2.15829
0.0679456
0.0215874
0.0216451
0.0217473
0.0457948
0.0220525
7.22669
0.022088
0.0217772
2.62833
2.40216
2.46916
0.0217292
1.43973
0.0246625
4.11277
6.50572
1.67707
0.0235917
0.0318873
0.694856
1.70397
2.09225
0.026482
0.0222634
0.0253074
0.0216839
0.0218527
0.022034
0.0220813
0.022292
8.46709
0.0222065
0.0606805
0.0302528
5.90618
0.0215822
0.024015
5.28084
0.49735
1.84704
0.0660822
0.0217809
0.0236723
0.0219407
0.46807
0.0215655
2.38634
0.159303
0.0832096
5.9947
2.27595
0.0221373
0.0218904
0.923739
0.407095
0.0219242
5.6351
0.0221313
0.0221756
6.76945
0.0216309
0.0915514
0.0216021
2.35582
0.0220934
0.0220938
2.68817
0.0966278
0.0527981
0.0253948
0.0220746
0.0218327
6.25761
0.0497744
0.0215698
0.0221946
0.0342306
0.0347268
0.0523535
6.91121
0.0221956
0.0219427
0.331985
0.0220811
2.5474
0.724195
0.0220646
0.0220163
0.0223462
0.0221163
0.0217319
1.46679
0.0507623
5.52216
0.0289211
0.0233755
0.0421587
0.024643
1.7295
0.0262629
0.0222678
0.0241967
0.512222
0.0219394
0.0219173
0.0219719
0.0215684
0.0219866
0.0217934
0.0220439
0.0221576
0.0228543
0.0246895
0.107741
0.0219354
1.46554
0.0256297
0.214729
5.01607
0.021802
2.80279
0.0809158
0.0217696
0.0215687
0.0219356
3.60303
0.0856923
0.0215652
0.0221205
0.0221972
0.0674505
0.153093
10.5615
0.0219762
0.0219205
0.0316014
6.5305
1.60414
0.0236752
0.0232948
2.0633
9.43195
0.24549
0.0221717
0.021789
1.66847
0.02191
0.134608
7.0095
0.0215582
0.237253
0.0269329
1.42373
0.0218337
1.94286
0.282964
0.0259629
2.38061
0.0219079
1.94041
0.0220945
0.0218868
0.0222231
0.0219471
3.66684
0.0218998
0.0217054
0.0228167
0.0215963
0.0217897
0.0460647
0.0227739
0.034259
0.0220338
0.0220382
4.10137
0.0747139
0.0236269
2.03102
0.0242862
0.0221741
0.0219817
0.0217308
9.43799
0.0216958
0.0220691
8.13731
8.41153
0.0388406
0.0219253
0.0222842
0.0221282
0.022241
1.89695
0.0221739
2.86816
0.0241948
1.85916
0.022262
19.0062
0.0222066
0.226457
0.0219165
0.0874873
4.12287
0.0221032
8.88694
0.0218998
0.0222182
0.0216152
4.90749
1.80779
0.0219438
0.0277135
0.0216914
2.01171
0.0218232
0.0446026
1.8568
0.0252309
0.0220264
0.0454802
0.0222451
0.022176
0.0217641
0.100651
0.0219558
2.20064
0.0220517
0.0220692
0.0388031
0.0770603
1.32727
0.0217631
18.1149
0.021885
0.201775
0.0219155
0.0222302
0.0219054
0.0220495
0.0222682
0.218194
0.0407398
9.0735
0.11001
0.035197
0.0341854
5.34347
0.0236847
1.84257
3.68091
0.263326
11.3687
4.95746
0.178607
0.0221823
3.42207
0.0384599
0.0221337
0.357144
0.0222509
0.45549
0.0358117
0.214699
0.0276102
2.07949
4.6989
0.0365808
0.194352
0.022216
0.651951
0.0228633
0.0219198
0.0220388
0.0236028
0.0461562
1.55247
0.276183
4.7295
0.0234011
0.023399
1.41456
0.356345
0.0230524
0.0609579
0.0223504
4.93496
2.79452
0.0220586
0.0641886
0.295793
4.88908
0.0219578
0.0257886
8.08642
0.0285199
7.9075
0.090792
5.89637
0.0256629
0.0237917
0.0219141
0.0219193
0.242717
0.0222842
0.283729
0.130608
0.0806925
0.0222596
0.0222238
0.0236416
0.022118
0.0218328
0.0219035
0.100428
3.73119
1.85139
0.0222797
0.338623
0.0219504
4.15107
0.0459994
0.0467017
0.0341809
0.263585
0.0217477
0.0220603
0.0431722
0.021909
0.0220776
0.059769
1.47236
0.0216248
0.226725
1.71003
0.0244224
2.1181
1.78896
0.0218098
0.0543357
0.0271022
0.0219833
0.0216122
0.102501
1.70263
4.74009
0.0219536
0.0220158
0.0216599
0.0247844
0.0228041
0.0237847
0.576969
0.0456779
0.0221514
6.17612
0.0292899
0.0335434
0.0220339
18.9517
0.0236773
0.021918
0.0834213
2.10878
0.0215742
0.0220499
0.0219473
0.0254466
0.0217434
0.0373069
0.586515
0.0221558
0.100118
0.0228563
0.0219836
1.88111
2.8835
0.339495
0.0220748
0.0215882
5.22535
0.0258495
2.13664
0.0215526
0.0219008
6.59935
2.66035
0.0296605
0.0983873
0.0628844
0.0218867
0.0222717
0.0219387
3.34932
0.0220571
0.0222928
1.5819
0.0274495
0.296909
0.0328078
0.0219358
2.62024
0.022268
0.0219109
0.021928
0.0305508
3.43502
0.0221618
0.0219705
0.0219067
0.0218949
0.0219421
0.0219267
13.3088
0.031483
0.022781
0.0221098
0.0316394
0.0607009
0.026401
0.0284862
0.0222839
0.0216533
0.0232877
2.15583
2.43891
0.0232283
4.61313
0.0222153
0.0252024
1.1786
2.19958
0.0217749
0.0221804
0.344611
0.0507105
0.021907
0.0222486
2.27486
0.0222681
0.0684429
0.0220115
0.61957
0.0222475
0.0222424
0.0221268
0.0307891
0.022071
0.0244734
0.026106
0.163466
0.0218632
0.0219975
0.0222498
0.0218814
0.0221443
0.0219597
0.0305714
0.0221112
0.0512975
1.94985
0.0426279
0.0627497
0.0222018
0.0217636
6.63677
4.50756
0.0216024
2.04507
7.39805
0.0215943
0.0219662
0.0218776
0.0955755
0.0532495
2.43679
0.0218567
0.0250376
0.0218594
0.0222593
0.0222295
0.0855988
0.0221193
0.24716
0.022093
0.0579444
0.0218938
0.023086
0.0219106
0.0382895
0.060156
6.91929
2.8485
2.02507
0.047362
0.0218996
2.96611
3.77372
0.060824
0.0220325
0.0220846
1.98529
0.0218701
3.14408
0.0216073
0.0292534
0.0221938
0.0222698
0.0217813
8.42752
3.30246
2.89598
0.0723717
5.26959
0.0219518
3.0744
10.4923
0.0222705
0.0220544
0.0217271
3.10822
0.0215532
5.18063
0.032377
0.141267
0.0222445
1.00397
7.87235
1.70669
0.0294432
0.0317082
0.0220407
18.8029
0.0215329
0.606235
0.223071
0.0688327
9.94686
3.47009
0.0238508
0.0233603
0.0219489
0.0960658
5.39404
5.25674
0.0217422
3.95022
0.0259528
0.119335
0.122541
1.4992
1.54218
0.0216385
0.0259864
0.030271
0.0241716
0.0239232
2.61794
0.0221968
11.4896
0.0217629
0.0216178
0.078266
0.108289
2.66864
0.0225963
22.8866
14.1898
0.636639
0.0268567
0.022233
0.0225998
0.022227
0.0219117
0.809985
1.74235
0.0221612
0.0219156
0.0315682
1.71349
0.0258069
0.0219224
0.436475
0.0219397
0.0222749
0.0215425
0.0592397
0.0220292
0.0249198
4.34245
0.0605832
0.0222584
4.26132
0.129639
0.0219352
0.0229894
0.0335626
0.0222624
0.0219653
0.0217449
12.8071
1.86965
0.0221842
0.0351081
0.0361685
0.645088
0.0219392
3.31581
0.0218617
0.02175
0.690607
0.253778
0.0644717
0.022014
0.0218951
5.75133
1.51235
0.288534
2.86134
0.0221026
0.023789
0.022015
8.24996
0.0241845
2.1443
0.0226853
0.0219221
0.023604
0.0216712
0.0218757
0.0640693
0.0217759
3.26295
0.0218023
0.0221675
0.0215612
0.0248794
1.80761
2.7853
0.0516128
5.48859
0.0219808
0.0359378
0.0232889
8.00049
0.0218271
0.0216264
2.68434
0.0346043
0.0327495
0.0221115
0.218397
8.43099
2.39588
0.022111
0.034388
0.9139
0.0312148
0.948015
0.122157
0.080822
0.0217614
0.022553
0.0604895
0.0769212
0.0219879
0.0990616
0.021735
0.0221829
0.0222352
0.0217597
0.0219044
0.0219891
0.804575
0.025654
0.0229171
0.0458073
0.0217451
0.0219263
0.0380109
2.87478
0.084365
0.0608116
2.28858
0.0222339
9.56618
0.0292308
5.34349
0.0613928
0.0222018
0.0220824
0.0234379
8.90565
1.74021
0.0505394
0.156036
0.0216503
0.0218918
0.022248
0.022201
7.70351
0.0255439
0.0219592
0.156133
0.287907
6.00182
0.0227169
2.50898
0.0557016
0.039948
0.0318775
0.426351
0.246725
0.0222205
1.57325
0.270681
0.038691
2.25373
0.0446977
0.0222033
0.0222638
0.0219112
0.0231049
0.0271354
18.8153
0.049911
0.0218704
0.300885
0.0220038
4.3116
3.35264
0.0219569
28.0441
0.0217977
0.0217477
0.0220195
1.55593
14.7428
0.0480597
0.0312106
0.0217114
0.550309
0.0222313
0.0307941
0.0220905
0.0221256
0.0219064
5.2879
0.0227649
0.0420609
0.0289239
0.0222115
0.353926
0.132671
0.0338931
0.0252695
0.023737
1.77515
2.60773
0.0218855
0.0217566
0.0218829
0.0225389
5.48349
12.8234
0.206525
0.0255592
0.0217799
9.50816
5.07977
0.02218
22.5868
0.0217068
0.0840548
11.8674
0.0217376
6.42426
8.08697
0.124964
6.27749
5.70236
0.0218392
0.0226412
2.4793
1.51613
0.0225191
4.89629
0.0248733
0.0219049
0.0222738
0.0231383
0.0396693
0.0251481
0.314071
6.47144
0.236075
0.0341931
0.0220789
0.0600034
2.18361
0.0217528
3.64665
0.0473849
0.0222198
0.0245527
0.0222415
0.0221706
0.0314611
2.30323
0.022468
0.0217883
5.21078
1.52782
0.06939
0.0222613
0.0556571
0.0219275
0.0219311
4.16741
8.32204
0.021921
0.021486
2.82543
4.40248
0.048039
0.0222315
10.097
0.0226848
0.0219277
0.0239328
0.021932
0.021644
0.0216187
9.77293
0.197738
0.0258435
1.60815
0.0446671
1.4839
8.64163
2.04389
0.156493
0.0219297
0.0222387
0.0223012
0.0219924
0.0749248
0.0218813
0.1093
0.0290217
2.65125
0.0220464
1.51478
0.0361686
5.21396
0.0219246
1.75011
0.0297839
0.174219
0.248634
0.0309189
0.0216155
9.18589
0.0558018
1.55366
0.0215996
5.36365
0.0220264
4.67079
0.500777
0.0430649
0.0219213
0.0220886
1.88733
7.04973
0.0316067
0.0215607
1.22341
0.0852519
0.044499
2.70891
0.0789119
0.0219093
3.75291
0.0219154
0.0329222
0.0216126
8.66197
0.0216198
0.0235885
0.314684
3.57239
0.0222218
0.0668759
0.02431
0.0794249
0.0218795
0.338565
0.0234078
0.0637196
0.0219256
0.0219852
2.00622
0.0284318
4.80264
4.45375
5.15565
0.0227041
0.0216371
0.0217539
0.0255621
0.0365131
0.0311052
5.55427
0.0234851
0.593736
0.0418297
0.0222811
0.0219283
0.0684187
0.406839
8.90788
0.0219064
1.61769
0.0218625
5.35793
1.46227
0.0462985
0.0219951
0.0217264
0.042756
1.5758
0.0242668
0.0222687
0.0237969
0.0443882
0.0228805
1.53421
2.09796
3.90636
0.0221561
0.0262099
11.2261
0.0221866
0.0617668
0.0218007
0.829064
0.0363782
0.021949
0.0432165
0.184662
0.02193
2.17887
0.0219145
0.138096
0.251995
0.448364
0.311993
0.0221662
0.0221818
19.372
0.0221315
0.0398552
0.0819105
0.0234945
0.0215233
10.9545
0.0248684
0.40378
0.0234029
0.0665093
0.022506
0.404859
0.0252182
0.0245944
2.38633
1.21393
0.0220888
0.022273
0.164933
2.17297
1.94206
0.80894
0.0291893
0.02192
0.0217965
1.86196
0.0221382
5.62778
0.0984386
2.46701
0.0221069
0.0217133
0.0217917
0.0427674
0.0455426
3.72754
1.55779
0.968428
0.227553
0.0216016
2.53369
0.0229983
0.0626451
0.0228582
0.0400115
0.0608032
0.0219241
0.0215701
0.0637162
0.0216317
0.0391286
0.0708039
3.34945
4.36736
0.0374614
1.80277
0.0217366
0.0216307
0.0220738
0.198629
0.0613678
0.0461654
0.112277
3.87219
0.0394137
0.15536
0.0218057
0.0220824
15.5103
0.021908
0.285948
0.0214628
0.021855
2.06939
0.334174
0.0218447
0.079776
0.510479
3.58713
2.5489
0.0250168
0.066322
0.0487699
4.55337
0.0220409
5.01683
5.74307
0.0236999
0.025924
0.0216062
0.504502
0.0217311
0.0219824
1.57503
0.0222094
0.0215595
0.201464
0.0585144
1.52247
1.50784
3.34062
1.8421
0.0216108
0.0219062
0.0218505
0.0222051
8.3308
0.0220606
1.74551
0.0229777
4.63809
0.0244608
0.0221035
0.0216785
0.0222156
0.030312
0.022025
0.021513
0.339018
0.0218163
0.0510049
0.0224418
7.04361
0.0245058
0.0220784
0.0219297
0.0528535
0.0219064
0.0217598
0.0220883
0.0222146
0.0245429
0.0218429
0.0233596
0.0315235
3.77544
5.34808
4.62792
2.51091
0.0217633
0.0220046
0.0219208
0.0214252
0.0219311
0.0217297
0.184017
0.0218547
0.0222517
0.0220683
0.0220423
0.0219338
7.0364
0.0241728
0.0219716
19.9343
0.0430057
0.0217092
8.10376
7.61199
0.0220194
0.457287
0.724195
0.0220273
0.0458939
0.0239366
0.0215544
0.0273888
0.0220242
0.0397533
0.0220122
0.0222473
0.0217404
28.0764
0.0283666
0.0456199
0.0220321
0.0222653
4.64746
0.0257554
0.0220356
0.0238136
0.0241658
0.0222519
0.230828
11.7824
1.24069
1.54485
0.228172
0.0373898
0.0222597
11.9929
0.161847
0.0227297
0.05953
0.0222932
0.0218959
0.0222464
2.86994
0.046243
0.0219984
0.0220413
0.184268
0.0217251
0.444026
0.0219409
1.86279
0.227419
3.563
0.0220792
0.0231921
0.0317903
0.0355254
0.0222463
0.0387889
0.0860622
4.9011
0.0219783
0.487433
9.71255
0.0215625
1.90036
0.0433872
0.333495
0.105793
0.0219179
0.0277469
0.0402658
0.021682
0.0249966
0.0215402
4.19209
1.69791
0.0325266
0.0218267
0.150631
0.0748112
2.82796
0.283193
0.0233266
0.0280048
0.0219468
0.0219148
0.0403348
0.0518465
20.1904
0.0218117
0.449381
0.0225568
9.73769
0.178237
2.42432
0.0215977
0.0229327
1.99462
1.80558
0.0430485
2.15409
0.0228704
0.258246
0.0219132
0.0218473
2.64174
0.478659
0.024826
0.0220935
0.0751607
2.16707
0.195107
0.0662744
0.0217681
0.0220138
0.0217141
2.39459
4.92307
0.021749
0.0445727
1.83059
0.0744829
0.28086
1.63933
5.66422
2.20966
0.0217648
0.02277
1.60835
0.0218908
0.0492537
1.56289
9.82098
0.0233745
0.0302172
4.9468
0.626064
2.0207
5.15816
1.7306
1.48064
0.0221106
0.0216144
0.0219895
0.0225527
25.2128
0.0548187
0.370296
0.38446
0.0565729
0.0219386
0.414975
0.0216995
0.0303554
0.0219215
0.0406471
7.13007
2.11119
0.022071
0.0215987
0.0383185
4.66519
0.18637
7.35151
0.0446185
0.0220412
0.0834036
0.0214604
0.0959845
0.0320177
0.0219084
4.67579
0.173625
0.576045
0.0576296
0.0222248
0.0215743
6.16879
0.0252157
0.0216175
0.022145
0.0222559
0.0216807
5.5828
9.56711
1.96431
1.41065
6.29496
0.0239777
0.0219416
2.92002
0.0242909
0.085397
6.59732
0.021866
5.41664
2.85573
0.0596639
0.033672
0.794029
0.0230856
1.78457
0.0374991
1.99051
0.021817
0.0228451
0.0408157
3.25643
0.114626
0.0686171
4.93558
2.14576
0.0718148
0.160168
3.29199
0.0241692
0.365313
18.5208
0.0357498
0.0628015
3.17052
0.031948
0.036858
0.0221033
0.036607
0.0388308
0.0560802
0.0220881
8.60845
0.162644
1.80697
5.18582
2.15371
0.0395982
1.59876
8.74211
0.0218459
1.12096
3.05624
8.27145
0.0277815
0.0242145
1.62236
9.26978
0.0216076
0.24096
0.0217506
0.021909
4.17145
0.0253861
2.28585
1.55844
1.8992
8.41433
0.0216179
0.035018
0.0219837
0.0218429
0.110067
0.0567721
0.026428
2.79798
1.83799
0.0222731
0.0260751
1.35367
0.0234019
0.402866
0.0478702
1.48513
1.48589
0.394367
9.29714
7.10959
1.80162
1.50324
1.7335
0.031145
0.0251626
0.117
0.120335
1.80344
8.28332
0.0221318
0.0226127
5.57167
2.3168
0.0246653
4.89684
0.0219221
0.818363
4.72074
4.7843
0.0219228
1.64259
1.55744
0.026772
0.0346177
5.63222
4.98627
4.78751
3.69219
0.0219736
6.16423
1.61223
0.0407304
0.224213
0.108149
0.0217325
0.0265224
3.48096
2.36978
0.0244895
0.0221716
1.54347
0.0852403
1.82245
0.0741237
2.22122
1.53647
0.0219904
11.1257
0.0222852
0.0301673
0.0220418
0.0218242
0.021702
0.0370979
0.278209
0.0214902
15.7745
0.0708386
6.58731
7.94393
1.97912
0.0219088
4.59622
1.52675
2.00409
0.0343114
0.0219238
3.67301
0.393864
2.13518
0.0550535
0.0234297
0.0216849
4.6099
5.37089
0.0333374
15.7089
0.031031
0.0221592
1.4487
0.0540134
20.0697
0.0218977
0.0294383
1.6544
4.71485
1.5012
0.217705
1.49093
1.69905
5.66778
0.0220473
7.81615
0.0475583
0.0218305
0.0215504
0.0219156
5.18305
0.0493169
1.50352
1.55824
0.0362908
0.15393
0.0782594
2.58761
0.263538
5.8371
4.94195
1.30089
0.0887303
0.0216456
0.623913
0.0560845
0.109952
1.43518
2.726
1.71501
0.0220944
0.024056
0.0487788
0.022059
0.0219519
0.0276554
1.53045
0.0285862
0.0252827
1.40805
0.0719487
0.305181
3.9934
1.57707
0.440738
1.96871
4.84845
2.23199
0.0628612
0.0310229
0.0220896
1.30453
0.106479
0.223672
0.0629093
0.0607635
0.0214486
0.177242
6.2152
0.0264986
0.0215824
0.0230441
3.47708
0.0218746
0.0220251
0.062303
1.54479
0.0283631
0.0545232
0.179456
0.0304735
0.0585584
0.0218497
0.0219823
0.0410044
0.220054
0.0222104
0.0311452
0.270796
6.93064
0.0221029
11.6423
0.0218689
1.57032
0.0232247
0.0233718
0.0215489
0.179131
0.0340639
5.60849
11.9578
0.0681922
0.0221618
0.0219373
5.76936
2.78052
0.0218027
0.244487
1.6035
0.0522809
0.077074
0.0214228
0.0226337
0.021923
1.47279
0.0421162
0.0220501
6.57373
0.0223289
0.0576758
0.255864
0.021734
0.0967434
0.0597322
18.4964
0.0223884
0.0261475
0.0233745
0.0540635
0.0213997
0.0219057
5.86772
0.330973
0.0748274
0.021879
1.9161
0.0223347
0.0223318
0.0219574
0.472931
6.40632
0.0237043
10.1079
1.58457
0.0639159
2.97756
4.50972
5.13336
6.69803
0.0523456
0.0625764
0.216777
0.0477827
0.0219504
0.0300543
0.0293847
8.06669
0.0220787
3.36632
0.0219774
0.409037
0.0907089
0.0227736
0.0229618
8.39752
11.6329
5.41762
1.57027
0.0218103
0.0664103
4.62335
0.0258466
9.69575
0.0406238
0.107159
1.66984
0.0339094
0.0219929
0.123686
0.147845
0.0219133
1.5005
0.692956
0.0217061
0.0222394
0.0221212
0.0220093
6.67812
0.0219748
0.0472816
0.0220247
0.0223325
0.0322667
0.021938
1.49687
0.0836273
0.0221233
0.0216225
0.109913
0.023283
0.0551846
6.19741
4.84533
0.053187
0.225765
0.0403617
0.0215895
0.135574
10.652
0.0376924
1.4784
6.00634
0.0747319
0.0385275
0.027984
0.0664549
0.0377098
5.78389
0.0221131
0.0221356
0.0217984
2.4349
9.31934
0.0357945
0.0981117
0.0218633
0.0265352
0.105772
0.264992
0.0219038
0.0597467
1.87889
0.0874479
0.0219902
0.0219202
20.0421
5.57031
0.0219337
0.60276
0.0302697
0.19863
0.280515
0.0218602
2.94899
0.0288453
0.0220246
2.70349
0.200643
0.0219209
0.0221622
0.265176
0.021767
0.0220408
0.149941
0.0418389
0.0454565
6.41329
0.0251376
0.0412334
1.81532
0.0218349
9.15203
4.76156
0.0250031
0.0581761
0.175005
0.0219631
0.157845
0.0214647
2.18227
1.50811
0.0220036
6.18431
8.00341
0.0219305
0.0219322
0.571452
0.0375747
1.57036
1.52553
0.022095
0.0427766
5.00639
0.0226104
0.0476403
0.0677076
0.0336514
3.0106
0.19529
0.0233115
0.228258
5.46972
0.0452722
3.08502
0.0219116
0.0215473
0.0222675
0.0420288
4.98411
0.0220656
0.0329334
15.1617
2.68805
0.0222177
0.0296398
1.977
1.56839
0.0222247
9.33591
0.0332979
0.0864444
0.0341771
0.0230346
0.0257922
0.0219487
0.0219616
6.13567
0.0219334
0.0519526
0.0219824
4.91866
0.023299
0.0239379
0.0215861
0.0236919
0.0219831
0.0411073
5.24205
0.907463
0.0376207
0.042207
0.0219673
0.031511
0.0509323
2.25452
5.30399
0.0218302
0.890299
0.0220227
2.30154
1.41589
5.0941
0.0218268
0.105984
0.0696231
5.98424
0.237002
0.0218403
2.54694
0.324195
0.0377516
3.05855
0.022163
0.0219869
0.0391457
3.4875
0.0219196
7.00164
0.0338363
2.3265
0.0893773
0.0223761
2.18537
0.0279316
0.0220813
0.261973
0.0219179
2.80065
10.3826
0.154753
0.0274831
0.152112
0.0219258
0.101039
0.0437315
9.62217
0.0220045
0.0216145
0.0267003
0.0293355
0.042396
1.88778
3.6925
0.0356845
0.226006
0.0218012
3.25544
5.78568
0.180974
0.0219173
0.0222602
0.0231391
2.75331
0.0220447
0.0261233
2.38028
0.0811606
0.021972
0.264514
0.0763564
0.0219877
0.024997
0.117521
1.54837
0.0685493
0.0427516
1.99394
1.52453
0.393002
0.0265004
0.0220962
0.0242744
0.0245998
0.136896
0.0557469
0.0272279
0.0748945
5.45362
0.0240255
0.0219951
4.89719
0.282998
1.72741
0.177025
0.0255842
0.0236674
0.0235261
0.0217571
0.0218783
0.0424437
0.0215433
0.0228814
0.0220178
0.0228816
0.0234669
0.021947
0.0384253
0.0357168
0.0220644
0.0219341
0.022119
0.0226965
0.0223091
0.245499
0.0220573
0.0233737
1.43737
0.0216875
0.023149
0.0222237
0.0269504
4.88057
10.1192
2.5679
3.01137
2.94798
0.197912
0.0218723
0.0575564
0.0219801
0.645471
0.0230798
0.0292055
0.0221521
0.052754
0.0219597
0.030452
0.0217808
2.4852
0.161192
0.0220785
4.46507
2.75209
0.0221262
0.0870613
0.0219512
0.0215904
7.28375
0.0220975
0.063692
0.190219
0.022105
0.0215498
0.0709746
1.66522
0.0249368
0.0233394
1.47909
0.0219439
3.84908
0.0488741
9.06576
0.0216666
1.5489
0.0219112
0.0221347
0.228537
0.0568357
2.32696
1.75154
6.65183
2.7586
0.16347
0.135076
0.0220461
0.130925
0.021999
0.0218198
0.0923587
0.0219094
0.0219831
0.0215987
0.0216093
0.0543274
4.61954
1.49835
0.392193
2.68447
0.0234483
0.030189
0.0227665
0.0226864
0.0722546
0.0220104
0.0217225
0.0218098
0.0235761
0.0231101
0.201561
0.0787595
0.0453272
0.0221087
0.0541106
0.0551702
2.01003
5.27338
0.0246028
0.0383978
0.0220884
11.88
1.62708
0.0219192
0.0219336
0.0243133
0.0222129
0.569449
0.267977
4.62939
0.0220976
3.50668
0.022068
2.69257
0.0490964
0.0218103
0.0278766
3.40809
0.0268388
0.0276065
0.029486
0.079617
4.48531
0.0217553
0.0219153
0.0277763
0.156351
0.0218526
1.99105
3.53358
0.0219487
0.0214181
6.17782
0.0623327
0.0219176
5.00075
15.5115
2.22375
3.6607
0.0275591
1.95941
0.0220711
4.74551
3.05286
0.835563
0.0619413
0.0237758
5.21781
0.0248586
0.0218674
0.0214467
0.478444
0.0216302
5.40394
0.0226139
0.0221253
0.0249144
1.50903
0.0237383
0.0227361
0.0220735
9.65659
4.04767
11.2372
1.61413
0.040628
0.0219206
0.0240621
0.225502
0.108998
0.0219874
0.0479878
0.189733
3.80485
0.0219288
4.0284
4.81404
0.0370064
0.0220629
0.0236925
0.0219516
0.0217306
0.0219387
0.0220317
0.0221579
0.0954134
0.0220953
0.117346
0.0225445
0.0226351
5.07909
0.065659
0.0233867
0.0227247
2.18293
0.02155
0.0227538
0.0258984
0.0218147
1.67091
0.0305238
0.0226891
0.0439621
0.0219375
0.026955
0.0218092
0.137688
0.0218193
0.0218989
6.42258
0.023468
0.176093
0.0324981
0.0236889
0.0791873
0.0214039
0.022088
0.0225837
5.3191
0.0236985
0.0219169
1.91766
0.0219626
0.0216183
0.021884
0.656214
0.0318706
0.129842
0.0332615
0.0305378
0.0493115
0.0237465
0.0269254
0.0471145
2.28628
0.0222103
0.0281886
0.0217936
0.250262
0.197789
0.0219046
0.0285341
2.89242
0.0297013
0.0215418
7.39314
0.0256841
0.0807472
2.36238
0.0279685
0.0218875
0.0289628
0.0219182
0.0241655
0.0219052
0.0232481
0.0257536
0.0219701
0.0220681
0.0316642
0.0221202
0.0892275
0.0218956
0.0236405
0.0219225
0.0291249
1.55233
0.0220522
0.0219734
0.0970982
0.0230866
0.0219298
0.249399
5.91694
2.96218
0.022043
0.0243206
0.0341078
0.0222447
0.022125
0.032933
0.185681
0.0215312
0.05237
0.0219614
0.0218898
0.021748
0.0215218
0.0227663
0.0421383
0.0331207
0.026547
1.67861
0.0240563
0.0278453
0.0217175
2.1147
3.5471
2.5237
0.0220199
0.045714
0.0279058
0.0219898
0.02212
0.0409606
1.53554
2.39132
0.0219184
0.0272429
8.56915
0.0227174
0.1764
5.22076
1.62251
0.0287812
0.0219785
0.0377757
0.0427169
0.14792
11.1423
8.09714
1.57612
0.0226634
0.0221737
0.0219219
0.101195
0.0219059
0.0216821
0.0368865
0.0219037
0.0218649
0.0218775
0.0515801
0.0219441
0.0217757
0.0219724
2.40309
0.0215379
0.0220121
0.0221066
0.0225653
0.0219389
0.0712731
0.066036
6.52034
0.021576
0.0280525
0.107385
5.37718
2.38784
0.0221889
0.0222752
0.0515564
0.0942341
0.0256671
0.360547
0.0219299
3.83253
0.0222781
1.48029
0.0227542
0.0219133
0.0429851
0.0219371
0.0219743
0.022685
0.701491
0.0243138
0.0224175
0.0221782
0.0219528
0.0388031
0.0219518
0.0219178
0.0257614
0.101303
0.0241739
0.0218559
1.47103
6.46709
0.0219658
0.807149
0.022143
0.0296113
0.0737587
0.20278
0.0233613
0.0229149
0.0220521
0.261854
0.0281914
0.0221606
0.0219028
0.0231601
0.146884
0.0220759
0.0339628
0.0237811
0.0347362
0.0500654
0.0369077
0.087524
3.59116
0.0248423
0.0220388
6.83531
0.313403
0.0219306
0.0214862
0.0220633
0.0219615
0.0219071
0.0238104
0.0216695
0.0220786
4.72707
1.55349
0.0314394
0.0219341
3.1248
0.0237646
0.0216982
5.92325
0.0236705
0.0216442
0.0220943
0.0220369
0.0357607
0.0220312
0.0540964
0.0219213
0.0217795
0.0219444
0.0316925
0.0349467
0.0218938
0.0549122
1.49765
0.0231039
0.0218925
0.0602866
0.0217097
0.0219833
0.0218606
0.0298406
0.022052
4.65981
0.0222862
0.231296
3.14783
0.0546639
0.0232694
0.0222445
0.0220156
0.0219384
0.0292375
0.157616
0.112187
0.0218074
0.0237582
4.98805
0.0215815
0.168143
0.0219653
0.0231519
0.0305298
0.061001
0.0219567
0.0329226
0.027927
0.0577723
1.446
7.87344
0.0218658
0.0219269
0.0323786
0.0227608
0.0225981
0.0487651
0.0226809
0.0969881
0.0217808
0.0689502
0.022106
0.0795779
0.0556768
1.47015
5.18608
0.0219221
0.0379065
0.935494
0.202861
0.021591
0.0217754
0.12448
0.021942
0.0219252
0.0217398
0.0215091
0.0699377
0.0703754
20.3152
0.02202
0.04308
0.022255
0.0215832
0.0230051
1.72786
0.162726
0.0219131
0.0221002
0.0218377
6.78183
0.022007
0.0219321
0.022428
0.021945
0.0427714
0.0218337
1.8486
0.0219858
0.0225694
0.0223258
0.0218904
0.0217374
0.0220074
12.1798
0.0217806
0.0219392
0.232369
0.021882
0.0220425
0.0221115
0.0221559
0.0527689
0.0219036
0.0219748
2.46929
0.0235182
0.0220381
0.0222312
0.0215162
1.55961
0.0229298
0.0221789
0.0218991
0.0258069
0.0219689
5.05037
0.0217942
0.0220107
6.23582
0.0219768
0.0608251
0.0221592
0.0214074
0.0215034
0.0304519
0.0369927
0.0218411
0.0222862
0.023959
0.0219049
0.0221106
0.0220743
0.0218698
0.0217478
0.0218161
5.8738
0.0219589
0.0218357
1.89527
0.0219372
0.0265897
0.120363
1.60071
0.0218136
0.0220459
0.0219595
0.0216322
0.0228992
0.038435
0.0238296
0.036245
0.0217636
0.0253996
0.0219734
0.021471
0.0279513
0.0576135
0.0234737
0.0288755
0.0220261
0.0219591
0.0221201
2.2685
0.0234844
0.0220116
3.85111
0.0229372
2.56783
0.0220632
0.0219331
0.0217312
1.58842
0.021933
0.0248841
0.0229148
0.0220724
0.0219654
0.0220882
0.0220035
0.0241849
0.0218999
0.0386478
0.0222479
0.0384213
0.0214946
0.0216282
0.0238503
8.36296
0.0221482
0.0220483
0.0225569
0.0219243
0.0240214
2.06601
0.0226998
0.0270487
1.93872
0.617492
0.0226548
0.0227038
0.145282
0.0890478
0.0231299
0.0221146
0.0218782
3.95288
0.0226182
6.17763
0.0216889
0.0215367
0.0221045
0.021906
0.0231368
0.0215813
0.0219876
0.0222651
0.0579501
0.0237203
0.0225174
0.0216238
0.347513
0.06155
0.0215089
0.0221043
0.0233928
0.022239
0.0220585
0.021585
1.47584
0.0215978
0.0219284
0.0660727
0.0215749
2.0775
0.0218216
0.0426891
0.0271644
0.0219685
0.0215346
0.0219212
0.0221648
0.0220429
0.0217713
0.0216143
1.87097
1.62077
1.87665
0.0216078
4.69876
0.0219578
0.054374
0.0219197
0.0219238
0.022109
5.83343
0.0219474
0.0219066
0.0221259
0.0219545
1.5454
0.0219277
1.75071
0.0214445
0.0224832
2.54969
4.89522
0.0219827
0.0219571
0.0266959
0.0220162
0.139586
0.0217503
0.554877
0.0217633
0.0352067
0.0221391
0.0218152
0.0219425
0.0219477
0.0231263
0.021873
0.0306117
0.0345227
0.118052
0.0217339
4.16377
0.0218955
12.709
0.0219096
5.55505
1.11533
0.0217474
0.0219097
0.0215942
0.0218592
0.0220437
0.0220249
0.0215829
0.0224869
0.021438
0.0860686
0.0221106
1.50067
0.0215747
0.0215286
0.0219256
0.0219202
0.022645
3.79768
0.0229993
3.02379
0.0215409
0.0221188
0.034528
0.021581
0.14071
0.0231747
0.0219297
0.0393062
0.021504
0.0219716
0.0224055
0.0217032
0.0286205
0.0397145
0.0216322
0.0221124
0.0220457
6.51473
0.0233755
0.0215798
4.73543
0.0510756
0.0216219
0.021918
0.152657
0.0227994
0.0214363
3.78189
0.212196
0.0228092
0.0214426
0.0222398
0.0350949
0.0215655
0.172841
0.0216139
0.0216768
0.0407522
0.0522205
0.0216079
0.0216084
0.0215031
0.0217301
0.021742
0.0408101
0.0219701
0.0217497
0.0221111
0.0218468
2.97775
0.0222722
3.04233
0.0261769
0.0276463
0.0221421
1.76478
0.0219067
1.90266
0.0215275
0.0219596
0.455637
0.0219721
0.022782
0.0216536
0.0247077
0.0217035
0.0268371
0.021566
2.63021
0.0221584
0.0215734
0.0215332
0.0215718
0.100906
0.0217762
3.89135
0.0219166
0.0247682
0.021498
0.0220167
0.208578
0.0219994
0.107448
0.0218148
0.0230303
0.022123
0.0221329
0.022416
0.0219171
0.0219823
0.257165
0.0215697
0.0219471
0.0225151
0.022057
0.022054
0.0325662
0.0218606
0.0219173
0.0218479
0.0216194
0.0217615
0.0219961
10.4985
0.189077
3.19201
0.0214334
0.0235761
0.0221258
0.0263233
0.116596
0.222587
0.0317392
0.0215674
0.021978
0.0219551
0.0221438
0.0221145
0.0219115
2.40467
0.0503968
0.0219285
0.453547
0.0221369
5.80692
0.0219626
0.0218918
0.021803
0.0215636
0.021481
0.0218357
0.0216569
0.0217899
0.04147
0.0228893
0.0219165
1.76571
0.0215637
0.0227104
0.0219865
0.0215974
0.0219242
0.299874
0.0217862
6.73496
0.0219091
0.0215942
0.0350993