/*--------------------------------*- C++ -*----------------------------------*\
| =========                 |                                                 |
| \\      /  F ield         | OpenFOAM: The Open Source CFD Toolbox           |
|  \\    /   O peration     | Version:  v2012                                 |
|   \\  /    A nd           | Website:  www.openfoam.com                      |
|    \\/     M anipulation  |                                                 |
\*---------------------------------------------------------------------------*/
FoamFile
{
    version     2.0;
    format      ascii;
    class       volScalarField;
    location    "700";
    object      omega;
}
// * * * * * * * * * * * * * * * * * * * * * * * * * * * * * * * * * * * * * //

dimensions      [0 0 -1 0 0 0 0];


internalField   nonuniform List<scalar> 
10042
(
0.0219075
0.0220487
0.0218442
0.0229643
11.6708
0.02207
5.80155
2.40076
0.0217206
0.0220087
5.39424
0.0229106
0.021527
0.02149
0.0234542
0.022031
0.0220224
0.0222585
0.0219102
0.128521
0.0219021
0.234791
0.0215774
0.021614
0.022056
0.0287004
0.0221324
0.0226511
0.0217715
0.0223402
0.0220183
5.54787
0.0220197
0.0222224
0.0259345
0.0216261
0.0279044
0.033106
0.0216287
0.0292741
0.141376
0.0230925
5.6232
0.0219864
11.8278
0.0602118
0.0222933
0.0986885
0.0270299
0.0498329
0.022167
0.0221195
0.0231223
0.0227013
0.0279377
0.0220627
0.0217714
0.0222623
0.0222147
0.02293
0.0220438
0.022001
0.0261113
0.0218285
0.0222084
0.0222289
0.0220201
0.0717995
5.17412
0.0218742
0.02264
0.152907
0.0219919
0.031664
0.0219985
0.0216106
11.1153
0.0219207
0.0296611
5.61794
0.0263073
12.5054
0.0219755
0.0227346
0.0220256
0.0222138
0.0218858
0.152966
0.0219326
0.0218877
0.0221273
12.7681
0.0227223
0.0220584
0.0222964
0.0218498
0.0219315
0.0218465
0.0287678
0.0217633
0.0222908
0.10517
3.89499
0.0222024
0.0225433
0.0503026
0.0219086
0.0219249
0.0219105
0.0214378
0.0217082
0.0218252
0.0255475
5.10134
0.0221974
0.0218385
0.0219395
0.0219162
0.0218469
6.31139
0.0219255
1.58423
0.0220163
0.0219815
0.103845
0.0219788
1.43068
0.0277845
0.0485523
0.0218796
0.0306066
0.0219928
4.78703
0.200743
0.0217642
0.0573588
5.06362
0.0221345
0.103001
0.174268
0.0226544
0.0219364
0.0224321
0.146526
0.0218191
0.0218251
0.0568708
0.0215145
0.0218586
0.0251293
0.0217377
0.0222555
3.9104
5.37082
0.0221858
0.0215221
0.0225362
0.0219926
0.057778
11.4224
6.12528
0.127944
0.0219846
0.0217402
0.0220363
0.0219761
0.0587692
26.6739
5.91525
5.88221
0.0223775
0.0218387
13.0947
0.164562
0.0375953
4.80593
10.3376
0.0220022
0.0831634
0.0313986
0.0226726
5.92071
0.0220676
0.0276778
0.0229708
7.34985
0.245572
0.0220348
5.54941
0.0236899
2.84608
0.0224281
3.77202
10.6086
0.100902
5.84155
0.0251642
0.0219213
0.0215274
0.0232872
0.0364135
0.0220683
0.0218182
0.169848
0.0220576
0.0216708
4.35026
0.0221571
0.0222603
0.0222428
1.6479
0.0218236
0.0545469
0.306011
0.0225111
0.254239
0.0219525
0.0219878
0.0643276
0.0217666
0.0256469
0.0226578
0.367337
0.034291
0.0252203
0.0296145
0.329612
0.0218318
0.161962
0.0228375
0.0217188
0.130689
0.0218471
0.0227996
0.0218763
0.0253154
0.0216988
0.0214748
0.0230619
0.0254979
0.0219917
0.0220213
0.0219947
0.0256149
0.021839
0.0220274
0.0216151
0.0226017
0.0225148
0.0222689
0.0215283
0.0218658
0.0241541
0.488923
0.1283
6.56516
0.038129
0.036909
0.0236248
0.0675902
5.47185
0.0228638
0.0219123
0.0214921
0.0232197
0.021699
0.243747
0.0230426
0.0218814
0.0222503
0.0382292
0.0225559
0.284598
0.0375015
0.183189
0.0237648
0.0254576
0.0217039
0.0247649
0.0218422
0.0325769
0.0219026
0.0287663
4.80481
0.021673
0.0218052
5.5924
0.0615748
0.0220037
0.0220426
0.0238768
4.80325
0.0543216
0.153334
0.022182
0.0215232
0.0218324
0.021735
0.311003
0.0218763
0.0220376
0.0218361
0.0219538
0.0341628
0.0236589
0.0751939
9.47666
0.0227617
8.6576
0.021842
0.0245462
0.0221239
7.7201
0.103918
2.28378
12.2786
0.0215949
0.023056
0.0218787
0.0238516
0.0296907
0.0222416
0.0324755
0.0217029
0.0214864
0.0220093
0.0810794
0.0222839
0.023391
0.0219576
0.0235205
5.9625
0.0218419
0.0221763
0.0219883
0.0218019
0.0414428
0.101338
0.0367656
3.13381
0.0345983
0.0267488
0.0219729
0.021473
0.0221981
0.022268
0.57461
0.0219027
0.0222294
0.111423
0.0218208
0.0245056
0.0228484
0.117701
0.0218295
0.0250306
0.0457106
0.0322041
0.0232098
0.021927
6.5386
0.0577485
0.0221893
0.0410835
0.0219465
0.0218509
0.0219442
0.0244621
0.930097
0.0239911
0.0222493
0.0227066
0.0222923
0.0222708
0.126621
0.0219252
0.0216002
5.19173
0.0218363
6.00428
0.484433
0.0322826
4.34059
7.5103
0.0275633
0.133958
0.0221589
0.0516281
0.0222913
0.0222045
0.238445
0.0220652
0.0240962
12.3241
0.0219468
0.0219035
0.0493374
2.16898
0.0221529
0.0215156
5.59351
0.104803
0.0218349
0.072211
12.2765
0.0217655
0.022264
0.0216271
0.0218635
0.02147
0.021666
7.98889
3.79726
0.0222383
9.89123
0.0214922
0.0218768
0.589854
0.0219674
5.60396
0.0587155
0.0227464
0.0215704
0.0215097
0.135581
0.0224704
0.0275636
0.0223338
4.94532
0.0224034
6.58401
0.0232608
0.0219339
0.0218383
0.632284
0.0219498
0.02551
0.021863
0.0218117
8.10663
0.0252367
0.0219278
0.0217386
5.94793
0.0218712
0.0255847
0.0232035
0.0217042
10.0835
4.35937
0.021882
0.022142
0.0241578
0.021528
0.0220076
0.02197
5.77678
0.021994
0.0217063
0.0282154
2.26014
0.0580965
0.0222685
0.0310237
17.8407
0.036153
0.0219338
0.0219332
0.2008
0.0221219
0.0219402
0.0289386
0.0217596
0.021667
0.0227986
0.0215565
0.0374558
0.0219054
0.021954
6.88185
0.0217599
0.0222998
0.0220672
0.0222739
0.0323418
0.0218864
0.0217829
1.89134
0.0224515
5.9285
0.0228348
0.022282
0.0222767
0.127246
0.0218987
0.0219327
0.0220128
0.0222575
0.0274675
6.17455
0.0218749
0.0372867
4.51936
0.0359925
0.0222611
0.0219561
0.021954
0.0222032
0.0218534
2.00419
5.17088
0.0220752
0.0278068
0.0282012
0.0276455
0.022006
0.0216536
0.454187
0.129671
3.23517
0.0215681
0.022002
0.0219342
0.0218412
5.68183
0.0342212
0.022264
0.021825
0.0217934
0.0219771
0.613636
0.0252307
0.0221399
7.02927
1.34
0.411302
0.0511941
0.0220153
0.0217729
0.0576099
0.0519477
3.09655
26.3431
0.0245576
0.0257932
0.0222106
0.0233363
0.0221323
0.0221999
5.63722
0.0216088
0.0218455
0.0574691
0.0222104
0.258327
0.0226668
0.138563
0.028991
0.0222448
0.0229583
0.0259391
0.038201
0.051146
0.080889
0.0222823
0.0497573
0.022814
0.0218498
0.022119
0.0222253
0.0220337
0.0248011
0.0583919
0.0404753
0.0221432
0.0225072
0.0220088
0.0219121
0.124642
0.0219288
0.0231718
0.200744
0.021559
0.0519988
0.0777809
0.0220398
7.30603
0.0415865
0.0222099
0.271872
0.0219247
0.0222686
0.021953
0.0219782
0.0222924
0.0237751
0.0219837
0.968247
0.0226543
0.021961
0.022149
0.0327771
0.0329563
0.0219767
0.0239411
0.0217739
0.0320466
0.0219273
0.0291129
0.0216031
0.0228793
0.0215111
0.0219303
9.37634
0.0216338
0.111472
0.0219652
0.0225631
0.0217408
0.0328596
0.0220756
0.0429197
0.0220008
0.235224
0.0222621
5.77905
0.0215095
0.023358
0.0222715
0.0219673
0.0219582
0.0237244
0.0220333
0.121605
32.1005
0.239958
0.0236441
0.0358756
0.0218108
0.0378347
0.0601086
0.022012
0.0286133
0.085018
3.32049
0.0786148
8.62938
0.0266941
0.022094
0.0222313
0.0244521
0.0237691
0.0351543
0.0215998
0.0232618
0.115639
0.0222649
0.0219131
0.0242878
6.61148
0.0232171
0.0299771
0.0572893
0.0222515
5.41393
0.0216158
0.0218243
0.0223643
0.0217663
6.6878
0.0689272
5.76018
0.0220568
3.68698
11.4712
0.453048
0.0349251
0.0682233
0.160735
0.0398244
0.0219582
0.0218668
0.0297199
8.65369
0.0218032
0.0288538
6.3324
0.0218996
0.0219059
0.0218557
0.0228103
0.0219498
0.0218609
0.124673
7.72555
0.021843
0.0219986
4.79763
3.08335
0.021815
0.0219379
0.022155
0.0218668
0.636293
0.0687525
0.269196
0.0225403
0.0218998
0.0217158
0.0226963
0.0220527
0.032227
0.0225497
9.10387
0.0220056
0.0220755
0.0401365
0.0217991
0.0328691
0.0645111
0.0227895
29.674
4.70178
0.0221001
0.0218495
8.62264
6.63212
0.0348994
0.0219002
2.96375
0.179913
0.0254455
0.0219427
0.021995
0.0219222
0.32566
0.0236143
0.0924906
0.0222685
5.55296
0.870228
0.021959
0.0219871
0.114417
0.0221507
0.021738
0.0248708
5.19956
3.20154
9.4476
0.0221972
0.0591444
0.0381782
0.0216404
0.0218552
0.0221939
0.306317
0.0222061
0.0219553
0.0591012
0.0219963
0.0631736
0.0221115
0.022107
0.0216867
0.0221514
0.184045
0.0221992
0.0218607
0.0408691
0.054714
0.386259
0.0222101
0.088504
2.65082
5.95395
0.022845
6.12438
9.6979
0.021901
0.0215386
0.0225875
0.0231774
2.15663
0.0232665
0.0221229
0.0222063
3.1653
0.0367235
0.0221416
0.0221424
0.021933
0.0414819
0.0217523
0.0218313
0.0310536
0.0227419
0.0222045
0.0217334
1.37744
0.0218063
0.0226649
0.022028
0.0223109
0.14778
0.0222031
0.0229302
0.0220716
0.0247038
0.786921
0.0222919
0.362084
0.0256199
2.53811
0.0216469
0.0232776
0.0305371
0.088269
0.0495942
0.0225396
9.56431
5.41085
0.0224423
0.021784
0.3707
0.0220789
0.0222511
0.0217233
0.0222418
0.050017
0.0222928
0.0222931
0.0636708
0.0280558
0.0227907
0.030868
0.0226583
9.69447
0.0229809
0.850792
0.0218595
0.057523
0.0362668
5.08506
0.0238876
5.35301
0.0222695
0.024741
0.0220424
0.0220492
0.0219039
0.131915
0.0395691
0.0472859
7.87108
0.0221199
10.4031
0.0249879
0.0217466
0.0309129
0.0297814
4.36804
0.0219813
0.0277512
0.0504102
0.0232257
0.0409948
0.0222838
0.0215708
0.0222833
0.302687
0.0221345
0.0220036
0.0217318
0.0217233
0.0219346
0.0219879
0.022228
0.0218464
0.0221516
0.0224017
0.0250413
0.0303897
0.0219888
2.91176
0.0219522
2.84561
0.036466
3.11317
0.0356741
0.0245733
5.77489
0.0334154
0.321651
7.02416
0.0410629
0.0221994
0.0218425
0.0227989
0.152243
0.0218595
5.49123
0.0218617
16.149
5.6307
0.0542528
0.0226622
6.32216
5.21235
0.0230759
0.0219773
0.0222639
0.0239475
0.021561
0.0216643
0.056701
0.228214
0.022078
0.0218534
0.022307
0.639191
0.0609695
0.0221567
0.0249772
0.0884096
0.0223934
0.022027
5.15845
0.0222449
0.0218741
10.9106
0.023839
0.0219395
5.78619
3.99588
9.67088
0.0219086
0.0230432
0.402895
0.0217305
0.0218352
0.0222843
0.0283701
0.0220431
0.0221116
0.0229935
0.0452456
0.178415
0.02178
0.0219262
0.0220789
0.0218016
0.0224843
0.0215955
0.138664
0.0282742
0.0219497
0.0219821
0.0217635
0.021975
0.0223443
5.39154
0.028346
0.021508
0.0219234
0.0403212
4.33656
0.0220418
0.021982
0.0220279
0.0215173
8.97147
0.0472905
0.0217124
0.0220669
0.0290096
0.103823
0.0221695
0.0222828
0.0247196
0.0219449
0.0253895
0.0223129
5.95333
0.0344068
0.0220697
0.0256176
13.2045
0.0278544
0.154046
0.0248881
0.399535
0.0222709
0.0220107
0.0246782
0.0655607
0.0218927
0.0217187
0.0222436
0.0224821
0.105339
0.119041
1.10198
0.0225072
0.0219924
0.0279161
0.0219613
0.0219583
6.40354
0.0235345
0.021951
0.0219817
0.281581
1.17171
0.0219909
0.0220429
0.0901461
0.0217367
0.0221039
0.0219302
0.0878548
0.022907
0.0254051
11.4551
0.0222238
0.0221686
2.5952
0.0219056
0.162832
0.0218943
0.0232538
0.0412728
0.0219783
0.0220896
0.022071
0.0232732
10.0768
0.0219165
0.0221354
0.211407
0.0254244
0.271522
6.1726
0.0461031
0.0222122
0.424111
0.021783
9.84721
0.0221682
0.0219865
0.0216826
6.46312
0.0222123
0.0223013
0.0221602
0.0328166
2.3084
0.0278437
0.0482826
0.0218991
0.0221354
0.0363946
0.0286375
0.0218331
0.0250112
0.0218807
4.60246
4.85708
0.0221393
0.0228337
0.0222229
1.58556
0.0221574
19.7788
0.0219766
0.0217835
0.0217054
0.0223535
0.023563
0.0222715
0.0219884
0.0219839
2.32809
0.104444
0.0218399
0.0242375
0.0236342
0.0403051
0.021799
0.0255639
0.0227974
0.0219528
0.0230979
0.0298193
0.0222802
0.0219124
0.0264453
0.0217218
0.156851
0.0229946
0.140724
0.0220912
0.0220371
0.0217435
0.0711246
0.038968
0.0217658
0.0242568
0.0707919
0.0223891
0.021769
0.0252583
0.0222247
9.39055
0.215794
0.0247435
7.37385
0.0230066
0.0335888
0.0902563
0.0370431
0.0323707
5.51451
0.0289163
0.128315
0.0219585
0.0228352
0.0218381
0.0219365
0.0260438
0.0217492
0.191532
0.0219718
0.0219844
0.0734485
0.0219379
0.0537018
0.0251138
0.0252108
0.0218641
0.0416761
0.202096
0.021415
0.030752
6.25942
0.0413841
0.0217188
0.0289394
0.0219935
0.0217654
7.89715
0.0218295
0.0217813
0.0484367
0.0219454
0.0262511
0.0217381
0.0220006
4.79794
0.0218329
0.0216573
0.0244724
0.0219068
0.0214981
0.0222518
9.90508
0.0221266
0.0220848
0.0215585
0.0830485
0.0223579
0.0243385
0.0219233
0.0340607
0.0226017
0.0218953
0.0227823
0.0221005
0.0217775
0.114862
0.0410689
0.0284981
0.0233591
0.044525
0.0725532
0.0271649
0.0278251
0.0228466
6.71367
0.0219277
0.0219531
0.0219231
0.0222384
0.0348821
0.021892
10.1932
4.85083
5.51566
0.0220844
0.0244825
0.0383379
0.0215213
0.086825
0.0463475
0.780141
0.0652807
5.21303
0.0727012
0.162982
1.88764
0.0280386
0.0227974
0.0249141
0.0217678
3.75832
0.0224819
0.0288365
0.0217964
0.0248771
0.0220442
4.98933
4.60194
0.0222037
5.29649
0.635868
0.188218
0.045197
0.0637648
0.0216616
5.72324
0.0219595
8.34067
5.36844
0.0222044
0.021899
0.0220014
0.0232552
0.02446
0.0347948
0.184703
0.0221252
0.0220386
0.0249409
0.0222836
0.0220361
0.025843
0.021833
0.0220588
0.208398
0.060729
0.0220408
7.11142
0.0226961
0.0222721
0.0233242
0.283284
0.0219362
0.0217272
0.108765
0.182901
0.021766
0.0250186
0.697442
0.0533078
4.76034
0.0217773
0.157208
5.2051
9.88895
0.0220832
0.0219114
0.0613449
0.0259864
0.0405213
0.0222917
6.7646
0.0484605
0.179585
0.0220352
0.021976
5.4839
0.188533
0.0221503
0.0222723
6.15666
0.0219185
0.0215803
0.0217186
0.0232753
0.0221969
0.0292624
0.0220979
0.0234494
0.0216151
0.0321456
21.85
0.0579883
0.0340265
9.33329
0.0749286
0.0216346
0.0217631
0.0218473
0.0222837
0.125016
0.0294027
0.0219639
0.0219715
0.0219704
0.0216026
0.0319031
0.0216098
0.0474673
0.0237495
0.0221241
5.15222
5.27163
0.0221025
7.54161
0.0334122
0.0327904
0.0222641
0.0216153
10.9158
0.0729795
0.021921
0.0217229
0.0219297
0.0261426
0.0222624
0.147641
0.0215158
0.0220591
0.021987
2.06637
6.45141
0.0215015
0.021987
0.14607
0.459936
0.0244453
5.0206
7.02088
0.0216933
0.0221421
0.022113
0.0229502
2.08139
0.0220371
0.0222844
0.18405
0.0912006
0.0222123
0.0219415
0.0713473
0.0222836
0.0220746
0.105591
0.0802365
5.53898
0.0219829
0.0741555
0.0403824
0.0555252
0.0230111
0.0272348
0.021935
0.0219287
0.118256
0.0256479
0.0219954
0.0246454
5.26565
0.0215298
0.0218088
0.0215211
0.074464
0.0219445
0.0220866
0.0214378
0.0219429
0.67685
9.24247
0.0221968
6.56329
5.40033
4.903
0.0219318
0.0219353
0.0218277
0.0218877
0.0221169
0.0221504
0.0216209
0.0220827
0.0217785
0.0241783
9.20038
0.0356121
0.263997
0.0293987
0.0220308
0.0230826
0.0319148
0.0221576
0.0218453
0.0394783
0.0316266
0.542255
0.0414627
0.0214836
10.907
0.0226623
0.0214861
0.0218392
0.349718
0.0429012
0.0226989
0.0255521
0.0220724
0.0220946
0.0318602
0.0405576
0.0274338
7.96493
0.022084
0.0220303
0.618061
0.0368299
0.0250051
0.132172
0.0230185
0.0645133
0.295322
0.0647371
8.27045
0.0218272
0.0216659
0.0219388
0.0220472
0.0220948
0.0230269
0.0396598
0.0505535
16.5209
0.0220736
8.32869
8.2609
0.0240021
1.37335
0.0222038
0.0939367
8.38425
0.0219097
0.0938279
0.0215346
1.80264
0.0221977
0.201141
0.0218572
0.650505
0.0379979
5.29451
0.0218464
0.169496
0.0215972
0.023023
0.266436
0.0218371
8.25528
5.78184
0.304809
9.38619
0.0946726
5.30713
0.0386275
0.0220158
0.0442517
0.0457537
5.42013
0.0220775
0.0220171
0.022604
0.0476684
0.0219396
0.0222053
0.0221975
18.2688
2.33592
0.0219056
9.91363
0.0576357
0.0217257
0.0376816
0.0271567
2.54639
0.0295208
0.0217618
0.652797
0.0220719
0.0219368
0.02209
0.124597
0.0621622
0.0217669
0.0264077
0.0221107
0.0222606
0.0217914
10.1833
0.0222857
0.0218131
3.03753
0.243862
0.0238774
0.0217942
1.87903
0.0280731
0.0231921
0.0219403
0.0509174
0.0230504
0.0266322
0.0246418
7.27385
0.0430042
0.0604968
0.0214793
0.0312169
0.0455764
0.0272167
0.0223609
9.13875
0.0222527
0.15826
0.0218835
0.0221938
0.0304925
0.188688
0.0233441
0.0249158
0.0221142
0.0366942
0.0653421
0.0905506
0.0278006
0.0222923
0.0219648
0.0278723
0.0865958
0.0219349
0.0433506
0.0220141
0.0219363
4.91286
0.0218862
7.8931
0.0219308
0.0269199
0.0723248
0.0219269
0.0279693
0.103354
0.103589
0.0219349
0.0820688
0.0224754
0.0222634
0.0218931
5.07529
3.53299
0.021902
0.0219256
0.0215835
0.0218083
0.0930588
4.35307
0.0219215
1.35632
0.0217285
0.0217966
0.0218886
1.23081
0.0227499
0.0237697
0.0219437
0.0219499
0.0219119
0.0222568
0.0222595
0.0318177
12.1529
0.0216005
0.021911
0.0412036
0.0685403
0.0217945
7.85616
0.0518631
0.0217858
0.0214945
0.0220724
0.114785
0.0217256
0.0797347
0.028545
0.0232884
0.0217833
0.0452129
0.0215197
0.134519
0.0275763
0.0223529
4.74461
1.48437
0.021422
0.021856
6.64213
0.121482
0.0770823
0.0238143
0.0798021
0.021527
6.32876
0.0654766
0.0216904
1.80484
3.9126
0.0231403
0.0441537
0.0533347
0.0217567
9.85932
0.0221651
0.0265366
0.0297082
0.0222363
0.0220494
0.0515852
0.0218662
0.021888
0.0218654
5.87332
0.0218384
0.0219381
0.0217447
0.0218849
0.0218486
0.0222303
0.0535166
0.0450268
0.0233659
0.0222498
1.44068
0.0222424
0.0218338
0.0218928
0.0215839
0.0220854
0.0219715
0.0283366
0.0912825
0.0222241
0.0303106
0.0493392
0.0217287
0.027481
3.45285
0.0226274
0.0215216
0.0220804
0.0825054
0.022203
0.0222031
0.0242133
0.024729
7.5226
13.2508
0.0218222
0.0218623
0.0219404
0.0685928
0.0230031
0.0217943
0.028146
0.0733621
0.0221519
0.0267827
0.0221335
0.107071
0.208436
0.0227375
0.12398
0.0257278
5.01649
0.0222053
0.0218892
6.67606
0.115772
0.0242975
0.161609
0.0906507
30.2427
0.0454387
0.670234
0.0255078
0.0246499
5.18228
0.0266024
0.205345
0.0293739
0.125433
5.41714
0.0222933
0.0221217
0.0219744
0.350225
0.0214441
6.45714
0.0363467
23.0771
0.0229183
0.1172
0.205539
0.021947
0.0221805
0.0788993
0.0294844
0.0220881
0.0244505
0.0768135
0.0769224
0.0773359
0.109326
12.1625
0.144057
0.0221154
0.0222015
5.48107
0.075489
0.0225986
0.0375752
4.09621
0.0222327
0.0236375
0.0219381
0.0286022
0.0220392
0.0221056
0.0385081
0.0220889
0.0225959
5.3623
30.8052
0.0217262
0.0256675
0.0265666
0.189031
0.0425678
0.022306
0.0219247
0.102662
17.8064
0.0219261
0.02506
0.0220449
6.28363
0.0218267
0.0299363
0.352972
0.31514
0.022272
0.13788
0.0867063
0.0574892
0.0255612
0.0220209
7.6766
0.0218124
0.0259242
0.0222177
0.0285175
0.0215891
0.0215983
0.0220594
0.0664172
0.0218165
0.0219776
0.0217566
0.021908
0.0218636
0.0220037
0.0897879
8.86888
2.36643
0.0253045
0.0220563
0.0318987
0.0235605
7.29119
0.022285
0.18186
0.0216092
0.021994
0.0223533
0.0346605
4.11737
0.0219559
4.95751
0.0221897
0.0215141
0.0230203
8.5349
0.0233244
0.0446357
7.06314
0.0222848
0.0221667
7.09024
0.0218814
10.8328
0.0220883
0.0315071
11.6307
0.0224779
0.0220973
0.0218563
10.19
0.0263249
0.0218651
0.790528
0.0219561
0.0225744
0.0828356
22.8316
0.192446
5.4213
8.5162
0.0732981
0.0234443
0.183441
0.241569
0.0217609
0.0218546
0.022806
0.0264237
0.0785808
0.0219882
0.025301
0.0219011
0.0219583
2.20615
0.0222252
9.19185
0.0215425
0.0311585
0.0634801
0.0218247
0.0215078
5.27145
6.24406
0.0643704
0.0220809
0.0248698
0.0529712
0.0217634
0.0345013
0.101144
0.0396442
0.0231115
6.74184
24.7924
0.0215382
0.0221333
0.0216459
0.0221945
0.0226167
0.0267339
19.7158
0.0221205
0.0219591
0.0438017
20.7892
0.0215509
1.47507
0.0215674
0.135432
0.0579549
7.67189
0.0693176
0.0532011
0.055931
0.021493
0.0215016
0.24752
0.0254624
0.0220878
0.852955
0.0218249
0.0220844
0.0216143
0.0492226
0.212557
0.58199
0.144979
0.0279928
0.0293693
0.0219107
11.5189
0.208078
0.0230044
0.0219708
0.0217225
0.0944193
9.10745
0.0357986
10.1377
0.0228489
0.0217648
4.84605
0.0219357
5.93899
10.4928
0.0216773
0.0296324
0.258977
0.024145
0.0357395
0.0218173
5.06155
0.0261185
0.161411
5.4751
9.49314
0.0276142
0.0274825
0.0221364
0.150002
11.4796
0.0227593
0.0238056
5.31717
0.0490356
0.0669342
0.0222635
4.46558
5.23869
0.0962484
0.0219384
0.0262991
0.0218918
2.45065
0.0743496
0.0336254
9.58668
4.88085
0.0214907
0.156029
0.0221012
4.96446
0.0927769
0.0261278
0.0248389
0.922943
0.0213976
0.0640239
6.40856
4.82328
0.022977
0.0220312
0.0217867
0.0880823
1.78264
0.172928
5.59847
0.0968924
0.0413499
0.0217517
5.08098
0.0801853
0.02832
0.190623
5.58655
5.31369
5.16331
9.35687
5.66331
5.82023
0.0220506
0.0287878
0.0328865
0.0218169
11.5584
0.804359
0.0220193
8.11159
0.0221301
0.0219897
0.0217687
0.0308899
0.0218626
5.12766
0.0610546
0.226122
0.0216414
0.564442
0.0476831
0.419305
5.15947
0.0225285
0.0275029
0.0377503
0.0665705
0.0217357
0.0215958
0.021887
4.82006
0.0217759
0.021744
0.186096
0.0231268
20.306
0.0220455
6.73371
0.0219466
0.0220601
0.0219451
0.0219714
0.0264362
0.024381
8.47656
0.0310132
0.0366166
6.09833
0.0218108
7.2998
0.0217906
6.48162
1.55234
5.96127
0.0669292
0.0219613
0.0222725
6.77997
0.0219526
0.025934
0.0221121
0.0294281
6.55435
0.0218836
0.0218445
0.0218698
0.0222651
10.2826
10.6254
0.0218124
0.0214365
5.16298
9.86185
0.0218571
5.17259
0.0222642
8.55662
5.83164
0.0702999
0.353376
1.0242
0.085408
4.89509
0.0819056
0.0219631
0.02153
0.0217816
7.37475
10.0457
0.0229548
0.0281845
4.88375
0.0218316
5.39174
0.0217818
0.0218578
0.0216055
6.86853
0.075661
0.0217321
4.75186
0.0222526
7.52838
5.0968
0.0217188
0.0221104
0.120346
0.0219495
0.0218779
0.0218273
3.38836
0.031803
0.0220312
0.0221304
3.21228
0.0219283
0.0407762
0.0219833
6.0033
0.0221016
0.104499
0.0233227
5.0508
7.87274
0.0311589
0.0868061
0.0563597
0.0220746
0.075744
5.49806
0.0217252
0.084032
0.0217612
0.545807
0.0218885
5.97718
3.32853
0.106101
4.85243
4.84559
0.0407815
0.0224084
2.07473
0.0219303
11.5401
0.0252944
0.983005
0.0218597
0.0325961
0.0475446
0.0303094
0.0220931
0.0219304
0.0221956
5.65976
0.0729095
4.70657
2.66408
0.0274999
0.0216072
0.0544299
11.9093
0.0334858
0.0217583
0.0220802
6.8386
4.38885
11.3139
5.7885
0.0360442
0.0222565
0.0217733
0.0520661
0.0512455
0.746369
0.0219973
0.0220693
34.4494
0.0664597
0.0222853
0.0639926
0.795133
0.106706
0.0215807
0.048346
0.56185
1.07295
6.88384
0.247139
0.0218673
0.0222691
0.0220035
0.0222849
0.0219467
0.0220908
0.0332901
0.224163
0.0341513
0.0271928
0.0288026
0.0221877
0.0260501
0.0224042
0.0347049
0.0326735
0.0218107
0.0282521
0.0218878
0.0218391
0.0224732
0.0221205
0.397915
0.0215749
0.0777683
0.63573
1.23251
8.79197
5.73715
0.0223366
0.0222368
0.0218968
6.63245
0.0217848
0.0214616
0.0221745
6.42961
0.0311254
0.0340037
0.413992
0.0233468
0.0220314
0.0296435
0.0218731
0.0482015
0.0222854
0.0341349
0.0217775
0.0219215
0.0228998
0.0234576
0.0248549
0.659884
0.0384849
0.111976
0.0605105
0.127835
0.0441298
0.0688454
0.0217748
5.09746
0.024432
0.0265884
0.0219268
0.0225594
0.12583
0.0219815
0.0643194
6.99627
0.0292117
0.374433
0.104838
0.0539645
0.0696573
0.060258
0.0219256
0.0286316
0.0220905
0.0788884
0.0514897
6.076
0.0217541
0.0481401
0.0263386
3.96745
0.998361
0.0463329
0.0220982
0.0523486
0.0215633
0.0683184
0.0227282
4.72997
0.0216425
0.0257904
0.0220158
0.0359762
0.131878
0.0306973
8.91591
0.0220387
0.0300227
0.060926
0.0220147
7.03757
7.96989
0.158695
0.0549257
0.0479716
0.0217587
0.0217326
9.29065
0.102947
0.0215909
0.0223638
0.0249325
0.0218947
0.41052
0.0217684
6.97862
0.145177
0.147596
0.0374396
0.0223068
0.0216547
0.0217843
0.15329
0.0813275
0.0265432
5.12249
0.0221741
0.0230812
0.0271735
8.88178
0.0214807
0.654753
0.021398
5.87667
0.0219065
0.0218935
0.0380281
0.0219842
0.0222102
0.139038
0.0220656
0.0222816
0.0217421
0.0444571
0.0255039
1.79606
0.0219891
0.0220869
0.0218451
0.131019
0.0218008
0.028509
0.0419921
6.29052
9.83366
10.9902
0.866515
0.398076
0.0413727
0.0625154
0.0272019
0.0222511
0.0221208
7.01676
0.0574543
0.0215329
0.0219613
0.0219527
0.0275056
0.0817317
0.0222517
0.0301139
0.120073
0.169918
0.116781
0.0219643
0.0222376
2.79173
0.0235449
0.0215597
3.78434
8.0424
0.0216844
0.0214215
0.0267809
0.0220545
0.0379372
0.0222485
2.08263
0.0222726
1.76884
0.0219427
5.37137
0.0297984
0.0219374
0.0627579
0.021572
0.0218927
0.0222647
0.0327408
0.508189
0.0218507
0.166522
0.0222855
0.0221997
0.114347
0.0216539
0.0221284
0.0221023
0.0214605
0.0219525
0.0214876
0.0221666
5.45547
0.0218532
0.0217193
0.0573365
0.0216145
0.0219318
0.0221678
0.0221379
9.4342
0.418737
0.02199
0.0227143
0.0218606
0.0222855
0.19446
0.0220552
0.021983
7.97727
0.0219579
0.0456525
0.0578352
0.0379774
0.0218064
0.205134
0.0219029
0.297484
0.0689065
0.0218253
8.70111
2.06721
0.0281431
0.12172
0.0218273
0.0218652
0.0452222
0.219833
0.0217357
0.0218547
0.0221676
0.0410391
0.022104
0.0362102
0.0221114
0.0474615
1.43682
0.0392239
0.180825
0.0218369
0.0244104
0.0226837
0.0233266
0.0216806
0.02189
0.0228525
0.0232126
0.0678821
0.0223384
0.0969215
0.0218228
6.2078
0.0215089
0.0217717
0.0738482
0.0222715
0.105542
0.0891089
0.0373604
0.0218612
0.0228648
0.021887
0.0373858
0.0220658
0.0554681
0.0255368
0.0221425
0.0216606
0.0273626
7.88979
0.0319416
0.0519721
4.56207
0.837651
0.0389137
0.0215657
6.12477
0.0219402
0.0234915
0.0223784
0.104404
0.0218885
0.0354213
0.0277363
0.0235079
0.0221217
0.0253464
0.0222
0.0608436
0.0219296
0.0221858
0.021949
0.028406
4.17659
0.0219849
8.57852
0.0858861
0.0214423
9.1368
0.269082
0.0217611
0.0232216
0.0890016
0.021787
0.0218957
3.76566
0.0220272
4.9876
0.0254277
0.0245859
0.0226218
0.0223004
0.0219101
0.0217801
0.0609692
0.0224999
0.021959
0.0219069
0.0221386
5.52013
0.0366906
0.022034
0.0289219
0.149229
0.0662662
0.0218774
0.0219835
0.0219446
0.0249434
0.0227546
0.0223809
0.0271052
6.4104
0.0217589
0.022984
3.23661
0.0245451
0.106988
0.144945
0.0218664
0.02227
0.414566
0.087498
0.183354
5.54313
5.05349
0.184838
6.5561
0.0217354
0.02313
0.0216777
0.0221869
5.46851
0.0219766
0.0560212
0.0670044
0.0293354
0.0249569
0.60362
0.0218987
0.022117
0.0252649
0.0219314
0.0220485
0.0217332
0.0219632
0.0705179
0.0219347
0.0221297
0.0217766
0.0457347
0.0221325
8.22372
0.0219116
0.0228883
0.0218125
0.0222521
0.022726
0.0219434
0.0379813
0.0229105
0.021926
0.0281756
0.0220077
0.0222646
0.0219822
0.0309714
0.0222858
0.0220327
0.0220463
0.0220597
0.0288666
0.0220192
0.0220065
0.108569
0.0220748
0.0219136
0.0237481
3.19705
0.0519912
0.0222973
0.054248
11.0824
0.12026
0.218515
0.023905
0.0227712
0.0267927
0.321722
0.0220448
0.23189
0.0224253
0.0218897
0.0283128
0.0220514
0.0711245
0.0776758
0.0649416
0.0229375
0.021941
0.0284899
0.0272262
0.0228675
0.0243176
0.0232843
0.0442185
0.0749236
0.0754906
0.0219249
0.0237999
1.7711
0.0230756
0.0222853
6.02303
0.508236
0.0219403
0.0223754
0.0230723
0.0750429
9.77058
0.0219541
0.376163
7.74373
0.0383094
0.0594401
0.0216244
0.0235773
0.0226211
0.0838821
0.0222319
0.0294798
0.0233596
0.260847
0.0221937
0.0220614
7.39325
0.023456
0.0229556
0.0221368
0.0222126
0.0380118
4.9111
0.0278499
0.0220425
2.86097
0.0984564
0.0222645
0.0219491
0.0218242
0.0241135
0.0216724
0.195001
0.0218571
0.0243326
0.0249312
0.0611113
0.0262216
0.0218198
0.0272187
0.0242103
0.0218208
0.0995098
0.0218639
0.0233809
0.0216817
0.0222719
23.3349
0.0285057
0.0222458
4.81676
0.0227411
0.0219459
2.44066
0.0699824
4.71039
0.0219159
0.0229754
0.0218698
0.0225394
0.0229852
5.68556
0.0224428
0.0908949
0.0217478
0.0220206
0.0235258
0.0219329
0.0366027
8.28525
0.525951
0.021948
0.0217163
0.243275
0.0225208
0.0221134
0.0262946
0.0271146
0.408682
0.0837222
0.022771
6.32205
0.0906322
0.0223925
0.0217183
0.022188
0.0283826
4.97302
0.0222839
0.0672671
0.022679
0.0220906
0.0215508
0.0222253
15.6775
0.0268741
0.021748
0.0237309
0.022095
0.0252799
0.0214289
0.0230801
0.0219438
0.0228481
0.432647
0.0220342
0.022213
0.0992703
0.0215911
0.0215453
7.55244
0.0218744
5.76637
5.60244
11.5239
0.0265321
0.0221253
0.0214969
0.0221391
0.0214694
0.023621
0.213401
0.0519219
0.427777
0.0843854
0.0241012
0.0215752
0.0229179
0.0225861
0.0222725
0.0221182
0.0215358
0.0739185
0.0224822
22.9592
0.022259
0.022694
0.0222635
0.0220388
8.93185
0.14048
0.0285172
0.0214943
0.0535559
0.0230455
0.0219691
0.0833157
0.021446
0.0232688
7.5699
0.0219561
0.0218904
0.0218892
5.95372
5.09931
0.0215892
0.0225946
0.0243968
0.0220917
0.0216057
0.0219488
0.0220759
0.0218996
0.0218431
0.0218981
0.0241324
5.23438
0.0380794
0.0219319
0.0219289
0.0222663
0.0221044
0.0221775
0.0259021
0.0274522
15.2072
0.0258148
0.0221718
0.0225315
0.0219435
0.0952331
0.0215879
0.0222236
0.0232067
0.0286386
0.0266229
8.24549
0.0220941
0.030595
0.0226258
0.0225734
0.0221045
0.0215696
0.0229131
0.114879
0.186484
0.0217268
0.0372672
0.0752599
0.0222647
0.0401358
0.0383481
4.4944
0.0222495
0.0235471
0.0224743
0.0215797
0.0768112
0.0219561
0.0219967
0.0532764
0.226139
0.209489
0.0217601
0.0219067
7.18297
4.71857
0.0215617
1.85171
4.69122
0.0218203
0.0215665
0.0216694
0.0220604
0.0221405
0.0215309
0.0283976
6.37317
0.0217649
0.0219569
0.0216861
0.022158
0.021792
0.0218348
0.0215223
6.04375
0.0219955
0.23183
0.022153
0.0217982
0.022939
0.0218318
0.0221758
0.0291776
0.0221553
0.0222923
6.97576
0.0219899
0.0250359
0.0220215
0.0219655
0.022141
0.02181
0.119551
0.0220577
0.0221069
0.0219878
0.193466
0.0326638
0.022134
0.0221755
0.0219355
0.0230372
4.78432
0.023359
0.0236421
0.0219478
0.0221235
0.0219373
0.0517178
0.0231682
0.0228046
0.405383
0.0444265
0.0218039
0.0251579
0.0220008
0.0223531
0.0218136
5.24239
0.0219591
0.0220574
0.0218027
0.0296491
0.0234359
0.0226697
0.0219192
0.0217865
0.062003
7.85921
0.0218133
0.0555443
0.023451
0.023354
10.4578
0.0217423
0.0219825
0.0219479
0.0237288
0.0232088
0.021791
0.0242772
0.0219041
0.0997322
0.021498
0.0217144
0.0250829
0.0221427
0.0931171
0.0258065
14.8366
0.0654685
0.0222121
0.106281
4.93436
0.0224238
0.0245443
0.0220683
0.0252396
0.0217768
0.0395917
0.0440304
0.0218789
0.0289873
0.0217502
4.999
0.0222013
0.0235337
6.19462
0.0444997
0.0240275
0.155517
0.0221565
0.0219951
5.12534
0.0217375
10.5446
0.0218432
0.0218614
0.0769636
8.34998
0.0219085
0.0427441
11.4638
0.0218519
0.0221751
0.0219931
0.0274597
0.0255385
0.0227826
0.0220037
4.74267
0.0219611
0.0225727
0.0219356
0.0218961
0.0220361
0.0234345
0.0283819
8.20455
0.0222314
7.55253
0.0219368
0.0226161
0.0245458
0.0225764
0.0627274
0.0642818
0.0224017
0.0219216
0.021824
0.0945452
0.0217118
0.0218287
0.505395
0.122803
0.0217054
0.0220014
0.0217586
0.0220896
0.0246532
0.0799877
0.0219634
0.0221269
0.0217425
0.022152
0.0219618
0.0214994
0.0271216
5.12969
0.0216931
0.0221899
7.62145
0.0219025
0.0384303
0.0220691
0.0302384
0.0555007
20.4603
0.0222613
0.0220546
0.0217867
0.0221324
0.0220414
0.0214401
0.0221446
0.0221269
0.023224
0.0575325
0.0250229
0.0234969
7.19736
0.0220277
0.143033
0.0217172
0.0217961
0.0220146
5.51685
0.0218372
0.0546453
0.0229869
0.0226091
0.021934
0.0217455
0.0217647
0.0223245
0.021849
0.0218144
0.0479703
0.273207
6.85358
0.0217894
0.0500149
0.0223024