/*--------------------------------*- C++ -*----------------------------------*\
| =========                 |                                                 |
| \\      /  F ield         | OpenFOAM: The Open Source CFD Toolbox           |
|  \\    /   O peration     | Version:  v2012                                 |
|   \\  /    A nd           | Website:  www.openfoam.com                      |
|    \\/     M anipulation  |                                                 |
\*---------------------------------------------------------------------------*/
FoamFile
{
    version     2.0;
    format      ascii;
    class       volScalarField;
    location    "700";
    object      p;
}
// * * * * * * * * * * * * * * * * * * * * * * * * * * * * * * * * * * * * * //

dimensions      [0 2 -2 0 0 0 0];


internalField   nonuniform List<scalar> 
10042
(
0.0294308
0.026372
-0.00936506
0.00439967
-0.358511
0.0253388
-0.279902
-0.255412
-0.00385427
0.020041
-0.370908
0.00405207
0.00463436
0.00407846
0.0679146
0.0245119
0.0246549
0.0200358
0.0292071
0.258918
0.0170742
-0.211934
0.00502332
0.00670652
0.0262734
-0.05935
0.0262497
0.0351681
0.00567047
0.0274232
0.0286389
-0.378429
0.0199481
0.010332
-0.0340585
0.00709619
-0.0552378
-0.070357
0.00726215
0.0258349
0.279305
0.0599837
-0.287254
0.0353324
-0.36126
-0.11654
0.0512879
-0.14113
-0.0482055
-0.0771469
0.0189589
-0.0154251
0.0677621
-0.0220853
-0.0551209
0.0252547
0.00486036
0.050561
0.0096129
0.0657694
0.0275908
0.0282084
-0.0347045
-0.00851089
0.0599498
0.00700975
0.0518273
0.244581
-0.325943
0.0268653
-0.0213857
0.287006
0.0364314
0.153466
0.0504272
0.00650864
-0.356783
0.0292945
0.119925
-0.27862
-0.04588
-0.350603
0.0214425
0.0570712
0.0519227
0.0221845
0.0288667
-0.158557
0.0408184
0.028475
-0.00343866
-0.359563
0.0342691
-0.0147974
0.0283933
0.0124067
0.0254304
0.0177692
0.0253893
0.000460386
0.0198744
-0.152679
-0.252477
0.022078
0.0407823
-0.0235355
0.0320334
0.0253929
0.0170782
-0.000405126
0.0101647
0.0220037
-0.00507605
-0.32641
0.0588299
0.0245445
0.0339687
0.02951
0.0117246
-0.380635
0.0405898
-0.245557
0.0323405
0.0310438
-0.150093
0.0222543
-0.248415
-0.0477174
-0.0156125
0.0279515
0.121842
0.0470073
-0.379587
-0.211599
0.00133378
-0.0808782
-0.384221
-0.00339328
-0.147975
-0.169343
0.0466457
0.0343781
0.0451743
-0.19341
-0.0116895
0.0221809
-0.0993159
-0.00342528
0.0179707
0.0195876
-0.00594701
0.0193514
-0.280643
-0.383646
0.0254464
0.00462268
0.0711351
0.0285245
-0.0801576
-0.386866
-0.358552
-0.186881
0.0297548
-0.00544378
0.0181704
0.0461674
0.0560991
-0.374831
-0.378874
-0.3811
-0.0205593
0.018676
-0.354435
0.24375
0.109021
-0.305038
-0.319307
0.0339455
0.252274
-0.0291782
0.0734429
-0.379368
0.0530898
-0.0452643
0.0598424
-0.381136
-0.221812
0.00861539
-0.351494
-0.0234144
-0.0257644
0.0469229
-0.284542
-0.351119
-0.16692
-0.308974
-0.0406604
0.0309545
0.00485365
0.00244087
0.12971
0.00763356
0.020546
0.219174
0.053241
0.00585014
-0.0765582
0.0256903
0.0204826
0.0246123
-0.301334
0.00384626
0.0624691
-0.0902334
0.0695553
-0.22635
0.0470866
0.02351
-0.12322
0.0142616
-0.00807985
0.0726623
-0.172195
-0.0729953
0.0827717
-0.0628917
-0.235502
0.0233644
-0.203857
-0.022489
-0.00459443
0.133045
0.019023
-0.0218757
-0.00972667
0.016997
0.00787353
0.00358336
-0.0263531
-0.0347247
0.0298035
0.0336829
0.0181403
-0.00432409
0.024061
0.0284411
0.0070192
0.0403673
-0.0212311
0.0199364
0.00487181
0.0261807
0.0383687
-0.188259
-0.187233
-0.3505
0.115555
0.0955092
0.0685364
-0.127152
-0.281516
-0.0246867
0.0318256
0.00378567
0.00442725
0.00804205
-0.218298
-0.0281112
0.0284405
0.0245226
0.13816
-0.0222654
-0.0951062
0.101056
-0.188083
-0.0236868
-0.0337992
0.00884805
-0.0410829
-0.0124251
-0.0322949
0.036477
-0.058685
-0.380693
0.00616883
-0.00587713
-0.281617
-0.121145
0.00861252
0.027883
0.0374534
-0.301076
-0.116808
-0.199936
0.0189878
0.0047956
0.0231575
-0.00384431
-0.236258
0.0319073
0.0275606
0.0194459
0.0469739
-0.0694199
0.0610005
-0.0802664
-0.31045
0.0643491
-0.274382
0.0239455
-0.0392953
0.0264387
-0.384328
-0.155639
-0.316639
-0.319273
0.00585449
-0.0287501
0.0265458
0.0516494
-0.0625951
0.0220336
-0.0209448
0.00982696
0.00323655
0.0351436
-0.086279
0.0238561
-0.0214708
0.0456068
0.0588631
-0.326043
0.0243853
0.0255503
0.0172511
-0.00808629
-0.043953
-0.169639
0.0870595
-0.261669
-0.070806
-0.0420237
0.0464812
0.00385302
-0.00784258
0.0201527
-0.24964
0.0362205
0.00786196
-0.133024
0.0212304
0.0481925
0.0574635
-0.139137
-0.0120713
0.0812302
-0.0140954
-0.0164473
-0.00025763
0.0319035
-0.268204
-0.104993
-0.018374
-0.0441373
0.0224878
0.0188818
0.02219
0.0506983
-0.300556
-0.031592
0.0215584
0.0624442
0.0202792
0.0238446
0.243865
0.0311538
0.000282561
-0.383813
0.0157947
-0.263665
-0.252333
0.152288
-0.31586
-0.348282
0.0249034
0.151022
0.0257927
-0.0821352
0.0242504
0.0509529
-0.194293
0.0227166
0.053966
-0.102627
0.00489097
0.0173192
0.220446
0.00260461
0.00731471
-0.00294828
-0.377783
-0.158553
0.0188242
0.249487
-0.352028
0.0138629
0.0215807
0.00363454
0.0268146
0.00333815
0.00613326
-0.277081
-0.257477
0.0517031
-0.320238
0.00427234
0.0317066
-0.269024
-0.0139826
-0.269383
-0.122211
0.0588164
-0.000777192
-0.0025482
-0.0703854
-0.0215044
0.0291067
0.034285
-0.369619
0.0674608
-0.331442
0.0649993
0.0197238
0.0242706
-0.240836
0.0202414
0.1107
0.0293587
-0.0112901
-0.384639
-0.040633
0.034446
0.00953032
-0.382414
0.0274261
-0.0417538
0.00858463
0.00863732
-0.313786
-0.306778
0.0169969
0.0569179
-0.0331328
0.00499295
0.0244587
0.0318211
-0.38306
0.0303806
0.00403426
0.0571713
-0.253863
-0.115142
0.0203746
-0.0304897
-0.342293
-0.0724552
0.0352086
0.0315196
-0.212338
-0.0175054
0.0196321
0.1215
-0.00477451
0.0064266
0.0747273
0.00383194
0.064742
0.0325036
0.0205408
-0.369931
0.0122047
-0.0193265
0.0221953
0.0330963
-0.0237701
0.0171238
-0.00723911
-0.314445
0.0306426
-0.276843
-0.023486
0.0199583
0.0197716
-0.166511
0.0370777
0.0344794
0.017726
-0.0195767
0.078342
-0.278025
0.027939
0.0716216
0.0585792
-0.0717249
0.0209915
0.032467
-0.0147953
0.0224052
0.024994
-0.296851
-0.38399
0.0226941
-0.0475915
-0.0529954
-0.0510467
0.0514933
0.008239
-0.23498
-0.0761343
0.0310706
-0.000336082
-0.015672
-0.013099
0.0160808
-0.353308
-0.0412773
-0.0193513
0.00631449
0.0111959
0.0492999
-0.240879
-0.0419242
0.0261693
-0.383154
0.0332554
-0.0776368
-0.0315806
0.0243894
0.0015674
-0.0763509
-0.0935868
-0.295355
-0.371652
0.0820448
0.11386
0.0214828
-0.0211294
0.0560561
0.0215819
-0.362665
0.00675097
0.024176
-0.110198
0.0225208
-0.223237
-0.0218749
-0.185691
0.0122645
0.0246872
-0.0278003
-0.0363252
-0.0539431
-0.0345184
0.0447117
0.0243693
-0.0754869
0.000521473
0.0135873
0.0203713
-0.00771277
0.0287117
0.0834872
-0.115264
0.169098
0.0261553
0.0318914
0.0176053
0.0350833
0.168901
0.0173695
0.012704
-0.20436
0.00410139
-0.0930871
-0.0886017
0.0281355
-0.381789
-0.0919087
0.0231834
-0.231139
-0.0113905
0.020614
0.0461282
0.031058
0.0234351
-0.0212968
0.0501987
0.028829
0.0445534
0.0320695
0.00424326
-0.0279143
-0.0708205
0.0313125
-0.035526
0.00222311
-0.0674603
0.043942
0.0155349
-0.000214569
0.0785598
-0.00194876
0.0217444
-0.287818
0.00406212
0.171798
0.032087
-0.0236655
0.0115919
-0.0716038
0.0222299
-0.09462
0.00726118
-0.225487
0.0239768
-0.285996
-0.00345989
0.0596357
0.0249272
0.048194
0.0226529
-0.0197307
0.0287471
0.293962
-0.358602
-0.219052
-0.0332414
0.082701
0.0192433
0.0464515
-0.117105
0.019698
0.115644
0.0455879
-0.292291
-0.0835614
-0.337
-0.0393525
0.0308272
0.0220212
-0.0381886
-0.022786
-0.0525063
0.00605881
-0.00390136
-0.181678
0.019309
0.0351241
-0.0371618
-0.286946
0.0575558
-0.0276661
-0.0733682
0.0247085
-0.28291
0.00638677
0.0185181
0.0258536
-0.00476694
-0.384106
-0.123521
-0.291098
0.0179096
-0.311652
-0.376107
-0.244351
-0.0528753
-0.129535
-0.200642
0.0189368
0.0458293
0.029925
0.124046
-0.383001
0.0177833
0.05904
-0.277832
0.0328486
0.0210101
0.0142515
0.0414626
0.0229333
-0.0131737
-0.158508
-0.323155
-0.012354
0.0232617
-0.379343
-0.28694
0.0198816
0.0345737
0.0189959
0.0273923
-0.276843
-0.122344
-0.0675626
0.0428713
0.0211813
-0.00614938
0.075027
0.0273536
-0.0698493
0.0604198
-0.322196
0.0250369
0.0200361
-0.0186842
0.0177332
-0.0587552
0.115658
-0.0262561
-0.36919
-0.288224
0.032333
0.0248559
-0.271506
-0.375944
0.0389073
-0.0106651
-0.251761
0.17825
0.106983
0.044921
0.0173175
0.017372
-0.116076
-0.031951
0.192991
0.0208713
-0.322815
-0.292882
0.0323229
0.027719
0.287814
0.0257084
0.0112733
0.0314162
-0.373224
-0.288899
-0.290257
-0.0185182
-0.120693
0.0198139
0.0076742
0.0115207
0.0254391
-0.12169
0.0208921
0.0321443
-0.119306
0.0505769
-0.117851
0.0186584
0.0266258
0.00958255
0.0260068
-0.205718
0.0210015
0.0265657
-0.0912685
0.075657
0.0813989
0.0228538
-0.158512
-0.287016
-0.279922
0.0612431
-0.385571
-0.383974
0.0324846
0.00489052
0.0468765
0.0783693
-0.287898
0.00669317
0.0202524
0.0211787
-0.283706
0.046069
-0.0174522
0.020224
0.0351153
-0.0510177
0.0118714
0.0130341
-0.064661
0.0420158
0.0253452
-0.000737216
0.0838259
-0.00512775
0.0375641
0.0288549
0.0304102
-0.189736
0.0227202
0.0528829
0.0275628
-0.0385157
0.181955
0.020758
0.079794
-0.00985078
-0.289028
0.00531912
0.000666746
-0.0620397
-0.157469
0.218426
0.0604844
-0.344553
-0.277263
0.0647053
0.00919266
-0.245914
0.0273723
0.0218772
0.0105859
0.0217046
-0.108373
0.0192293
0.0237218
0.126683
0.0132367
0.00492718
0.101272
0.0723805
-0.307338
-0.026604
0.0540057
0.026753
-0.111412
0.0393215
-0.280258
-0.0312948
-0.357407
0.0211412
-0.0352441
0.0185683
0.0299803
0.03798
-0.180989
0.154086
-0.0683079
-0.354602
0.0207073
-0.262559
-0.0336468
0.00461244
0.148479
-0.0579389
-0.289554
0.0280822
0.0818592
0.080901
0.0106511
0.176873
0.0203864
0.00584596
0.0201656
-0.0355232
0.0257181
0.0202501
0.0113146
0.0103934
0.0220374
0.0237662
0.00390553
0.0218039
0.0258099
0.0667522
0.0290706
0.0959172
0.0306447
-0.286138
0.0261466
-0.304224
0.123116
-0.305559
-0.0633513
-0.0338227
-0.37926
-0.0730721
-0.0595306
-0.277947
-0.0519278
0.0212905
0.0193264
0.0264189
-0.196299
0.0151348
-0.379436
0.0231681
-0.341019
-0.285662
-0.0679395
-0.0207509
-0.382985
-0.319035
0.0812529
0.0312371
0.0248958
-0.0351702
0.00563795
0.00848044
-0.0715455
-0.195606
0.0274195
0.0159736
0.0647523
-0.244957
-0.0817031
0.025029
-0.00848045
-0.158541
0.0335587
0.0234922
-0.380531
0.0428097
0.0314702
-0.169256
0.0345534
0.0458376
-0.378222
-0.30864
-0.381417
0.0349428
0.0527484
-0.242297
0.011145
0.00693488
0.0235752
-0.0447551
0.027288
0.0185918
-0.0226932
0.212112
0.0538963
0.0152542
0.0434434
0.0272899
0.00700598
0.0451178
0.00667144
-0.19337
0.0297062
0.0351193
0.029655
0.013726
0.0188252
-0.00313906
-0.373737
-0.0566598
-0.00302788
0.0317337
0.162272
-0.279892
0.0284275
0.0187747
0.0289082
-0.00239845
-0.337268
-0.0709314
0.00609988
0.0180516
-0.0555016
-0.0130713
0.0257602
0.0241197
0.0369347
-0.00497813
-0.0440577
0.0456655
-0.280283
-0.0404762
0.0273186
-0.0263761
-0.349306
0.0747245
-0.190878
0.00215629
-0.243346
0.0214433
-0.0158591
-0.037043
-0.116582
0.0358319
-0.00979133
0.0229865
-0.0225777
0.191062
-0.0424462
-0.249152
-0.0192409
0.0174063
0.0428079
0.0344029
0.036227
-0.26894
0.0337235
0.00779971
0.0309298
-0.0110106
-0.300213
0.017029
0.0194789
-0.158367
-0.00699028
0.0267543
0.0355037
-0.153683
-0.0123191
-0.0442937
-0.366764
0.0337333
0.0256665
-0.28898
0.0182464
0.052413
0.014708
-0.00299239
0.0108856
0.0447565
0.0206789
-0.016634
-0.0227352
-0.346071
0.0312769
0.0200436
0.0757903
0.0810031
-0.230802
-0.354636
-0.0209742
0.021851
-0.256111
-0.0100584
-0.312121
0.0255614
0.0170054
0.00354559
-0.382556
0.0218531
0.0465601
0.0258947
-0.0719302
-0.288528
0.0211268
-0.0870387
0.0340938
0.0203271
-0.0652076
-0.0261438
0.0176398
-0.0222226
0.0322159
-0.281191
-0.380723
0.0255644
0.0765888
0.0231612
-0.256942
0.0247544
-0.363838
0.0313553
-0.00418576
0.00582035
-0.00234979
-0.0277601
0.019466
0.0294682
0.0496733
-0.254497
-0.165272
0.00972463
-0.0333612
-0.0335597
0.0252394
-0.00577178
0.110341
0.00262277
0.0460495
0.0820668
-0.0537397
0.0195186
0.018159
0.069381
1.52598e-05
-0.177566
-0.000336859
-0.0998288
0.0497271
0.0279118
-0.0104338
-0.0898851
-0.0119563
0.0138386
-0.0348782
-0.13799
0.047157
0.0142687
-0.0245787
0.0191893
-0.385949
-0.0299159
0.0137634
-0.38265
0.0782305
-0.0728509
-0.162631
0.0264363
-0.0560123
-0.378582
-0.0472849
-0.176658
-0.00483806
-0.0112721
0.0166973
0.0449551
-0.0436442
0.00929103
0.189548
0.0255901
0.0457262
-0.0497652
0.0316376
-0.107712
-0.0348764
0.0231798
0.0224258
0.120562
-0.173412
0.00244781
-0.0657183
-0.379354
0.193647
-0.00561167
-0.0481931
0.0192665
0.00894332
-0.334979
0.0190035
0.0130854
-0.107215
0.0308998
-0.0475873
0.00429739
0.0247924
-0.288568
0.00811969
0.00622496
-0.0115556
0.0355654
-0.00310731
0.0193561
-0.338796
0.0485918
0.0201375
-0.000191284
-0.143643
0.0633337
0.00611253
0.0363202
0.0441414
0.038162
0.036609
0.0112537
0.0267814
0.0130127
-0.0285278
-0.0584052
-0.0222393
0.0803358
-0.0753238
-0.142695
0.112991
0.113235
0.0627183
-0.275306
0.0436642
0.0124174
0.017097
0.0192489
0.0639503
0.0149898
-0.318939
-0.379433
-0.265801
0.020762
-0.0136135
0.00042034
0.000811379
0.178578
-0.000127944
-0.255449
-0.114898
-0.37622
-0.141431
-0.197213
-0.292153
0.00998056
-0.0251126
0.00180337
0.0121096
-0.284036
-0.00515091
0.104857
0.0169148
0.034878
0.0268695
-0.354993
-0.283561
0.0203551
-0.381839
-0.271934
-0.194342
-0.0978949
-0.121287
0.00646336
-0.377464
0.0332326
-0.266948
-0.379101
0.0206031
0.0343375
0.0195257
0.0624598
-0.0388921
-0.0634042
-0.205336
0.0205696
0.0271144
-0.0203416
-0.0117787
0.0184054
0.0272424
0.0198518
0.027353
-0.178834
-0.124427
0.0266602
-0.27557
-0.025003
0.0250186
0.0847992
-0.234581
0.0344527
0.0109439
-0.175524
-0.180453
-0.00256802
-0.00973079
-0.289284
-0.113977
-0.373622
0.0148425
-0.188992
-0.319607
-0.338587
0.0233135
0.0375612
-0.114258
0.062421
-0.022461
0.0442493
-0.367765
-0.105158
-0.210724
0.031897
0.01853
-0.382721
-0.174566
0.0249172
0.0250739
-0.380353
0.0346716
-0.000928685
-0.00977837
-0.0243388
0.0204478
0.109791
0.0470692
-0.0321843
0.00565737
-0.0690545
-0.357341
-0.0704638
-0.0624836
-0.337379
-0.145397
0.00456206
0.00941713
0.0104403
0.0192142
-0.182883
0.11381
-0.0149158
0.0317407
0.0314977
0.00684749
0.0808717
0.00600703
0.0964165
-0.0338697
0.0220948
-0.282037
-0.353998
0.0218717
-0.275427
0.0621351
-0.0373364
0.0249983
0.00404034
-0.377501
-0.141681
0.0188027
0.0104032
0.0353788
-0.0329438
0.0212797
-0.181615
0.00348585
0.0275657
0.0122493
-0.286828
-0.37974
-0.00165936
0.0503041
-0.119724
-0.0695476
0.0842803
-0.285163
-0.358993
-0.00910666
0.0199626
0.0512341
0.055241
-0.289522
0.0272768
0.0208846
-0.190751
-0.162625
0.0253324
0.0342744
0.264164
0.0206254
0.0271081
-0.163059
-0.148574
-0.381391
0.0184865
-0.0925785
0.113534
-0.112082
0.0780651
0.0368429
0.0265882
0.00407872
0.126895
0.0298169
0.0280487
0.00529953
-0.381315
0.00183771
0.0194798
0.00117494
-0.0471292
0.0250158
0.0198442
0.00336754
0.0264861
-0.27716
-0.337425
0.0520331
-0.260435
-0.340838
-0.379224
0.0293219
0.0442414
0.018388
0.0316191
0.0264474
0.0251877
0.0066746
0.019734
0.0132145
0.0825071
-0.341945
0.0265738
-0.217236
-0.0596589
0.0232376
0.0575276
-0.00824297
0.0512869
0.0221151
-0.0065644
0.000105236
-0.279884
-0.0922666
-0.00148712
-0.3329
0.0261927
0.00155097
0.00864807
-0.229857
-0.0954351
0.0744317
-0.0017006
0.0274756
0.0236975
0.101901
-0.0885378
-0.0435424
-0.26726
0.0237564
0.0175269
-0.265927
0.00231606
0.0257334
-0.187013
-0.0192702
-0.0236511
-0.224127
-0.130042
-0.385683
0.0165943
-0.00834495
0.0200551
0.0282776
0.0269724
0.000858355
-0.0884128
-0.0696752
-0.37601
0.0215536
-0.272292
-0.297277
-0.0311771
-0.28892
0.0427237
-0.166703
-0.381059
0.0185574
-0.163251
-0.00379222
0.107088
0.0207082
-0.212407
0.0256168
-0.255766
-0.0730424
-0.357846
0.0184244
-0.199961
-0.00609193
-0.0209333
-0.224824
0.0180711
-0.382787
-0.34003
-0.229576
-0.302697
-0.160022
-0.379782
-0.053355
0.028958
0.00117053
-0.100641
-0.295345
0.0231325
0.0173557
-0.00625896
-0.0812777
0.0452178
0.0470839
0.0359872
-0.377282
-0.289763
0.037518
-0.307558
0.0169407
0.01094
-0.0197015
0.052799
-0.289523
-0.0104206
0.010874
0.219706
0.0275413
0.019327
0.020374
-0.179481
-0.129899
-0.00195576
0.0649661
0.0265827
0.0207256
0.013445
-0.377611
0.0245795
0.0134335
-0.265112
-0.218234
-0.0297543
0.00676121
-0.291197
0.0751405
0.0547672
0.0297139
0.0922224
-0.019263
-0.0493589
0.0166102
-0.26685
-0.0164512
-0.125714
-0.00111395
-0.0468871
-0.0752438
-0.0492205
0.0494038
-0.29523
0.0192612
-0.187433
0.0274201
0.0253277
-0.0442146
-0.206591
-0.023048
-0.0372418
0.0220753
0.0605393
-0.132953
-0.136749
0.0382122
0.0213017
0.0172074
0.115843
-0.128518
0.0258594
-0.0962783
0.023526
0.0288386
-0.359321
0.0322657
-0.379008
0.0439576
0.108185
-0.12869
0.0324263
-0.0553056
-0.129992
-0.173424
0.0254724
-0.121454
-0.0188686
0.0231304
0.0353864
-0.383097
-0.28447
0.0291641
0.0359053
-0.00566964
0.0184885
-0.162518
-0.281924
0.0289303
0.129501
0.0111342
0.0135366
0.0230482
-0.247243
0.0132651
0.0392441
0.0312767
0.0169441
0.0381417
0.0198349
0.0202507
-0.0617933
-0.296595
-0.00328229
0.0316164
0.195319
-0.136138
0.0162334
-0.268795
-0.105973
0.0156599
-0.00324474
-0.0167334
-0.170878
0.00610653
-0.126496
-0.00842139
-0.0283223
0.0156689
-0.100167
0.00363873
0.0701926
0.0504266
0.0483871
-0.264481
-0.250923
0.00237107
0.0261189
-0.384758
-0.183842
-0.144065
-0.029469
-0.128321
-0.00331515
-0.358634
-0.0908669
-0.00902644
-0.298338
-0.304551
0.0495631
-0.0752283
-0.113915
0.0105474
-0.326002
0.045451
-0.0501229
-0.0289901
0.0409363
0.0182344
0.0568106
0.0225199
0.0163074
0.021715
-0.207772
0.0199699
0.0161112
0.00966606
0.0233441
0.0201659
0.0229982
-0.107275
0.213307
-0.0310052
0.0231298
-0.279487
0.0355289
0.0133454
0.0289689
-0.00512622
0.0268976
0.0173947
-0.0574498
-0.155172
0.0252514
-0.0607854
0.126238
0.00485373
0.0457656
-0.289204
0.00336674
0.00400722
0.0255575
0.23665
0.0230516
0.0201157
0.0167801
0.0400387
-0.256797
-0.381994
0.015178
0.0149576
0.0235872
0.105826
0.00388195
0.0170185
0.103716
-0.0174688
0.044116
0.0764904
0.0262657
-0.170157
-0.199755
-0.0241525
-0.0559697
0.00313191
-0.352531
0.0252374
0.0237944
-0.350209
0.106909
0.00408411
-0.1868
0.20899
-0.360956
0.0900273
0.260489
-0.0412472
-0.0387972
-0.381869
0.0507512
-0.186464
-0.0514144
-0.179809
-0.349521
0.0244636
0.0426643
0.0270945
-0.145798
0.00331813
-0.375936
-0.0789884
-0.368657
0.0652992
0.225617
-0.222062
0.0163393
0.0396392
0.221504
-0.000389388
0.0270395
-0.0294565
0.0724393
-0.146404
-0.146396
-0.16556
-0.374279
-0.1459
0.019553
0.0199015
-0.279018
0.194482
0.0135197
0.0330933
-0.310746
0.00130866
-0.0331605
0.0250281
0.0441293
0.0196753
0.0203044
0.188207
0.0489136
0.00678648
-0.375246
-0.361114
0.0108038
0.0744343
-0.0484367
-0.184063
0.0346586
-0.0118075
0.0191123
0.135332
-0.320717
0.0295699
0.106723
0.0108645
-0.276632
0.0221034
-0.0213187
-0.23843
-0.231798
0.0245904
0.0930063
-0.130253
-0.120887
0.0634795
0.0179998
-0.353877
0.0199544
-0.0461509
0.0484767
-0.0571189
-0.00060219
-0.0037445
-0.000420002
-0.13522
0.0204276
0.0182465
0.00284395
-0.0141138
0.0228215
0.0110246
-0.160437
-0.30564
-0.287172
-0.0395437
0.0279775
0.132381
-0.026242
-0.380124
0.0232836
0.152384
0.00578744
0.0303503
-0.0174664
-0.0560836
-0.283841
0.0326751
-0.36337
-0.0104681
0.00279199
-0.00266766
-0.273776
0.0512875
0.201996
-0.377711
0.0249023
0.0491099
-0.383245
0.0320024
-0.325599
0.0271288
-0.0683867
-0.340088
-0.0228121
0.0252054
0.0148884
-0.373418
-0.0484709
0.0263007
0.152008
0.0266857
-0.022648
-0.151997
-0.375083
-0.0107342
-0.330523
-0.318258
0.0565525
0.0382525
0.0755249
-0.229626
-0.00959653
0.0260008
0.0284461
-0.0450014
0.208618
0.0271693
0.0713213
0.0206299
0.0246521
-0.285375
0.022189
-0.379918
-0.000337536
-0.0484593
-0.0897741
0.0137165
0.00257323
-0.349282
-0.376073
-0.12027
0.0252003
-0.00525886
-0.0746182
0.0135055
-0.0758476
-0.17029
-0.0882824
0.00347072
-0.381517
-0.37338
0.00505046
0.0198031
0.00796993
0.0199767
-0.0240719
-0.0431136
-0.342961
0.0194848
0.0324849
-0.0710623
-0.372382
-0.000543183
-0.295537
-0.0034523
-0.18989
-0.122999
-0.280179
-0.0927367
0.111688
0.118017
-0.00180524
0.00317307
-0.230325
0.00397214
0.0253212
-0.298959
0.0217979
0.0267033
0.00535972
-0.105819
-0.0450194
-0.276987
0.205061
-0.0560057
-0.00319543
-0.0141254
-0.379462
-0.199297
0.00880859
0.0303469
0.000777937
-0.129471
-0.347565
0.0595047
-0.34199
0.0768789
0.012263
-0.381282
0.0311986
-0.344398
-0.329475
0.00645884
-0.016966
-0.20663
0.0407691
0.0750866
0.0173142
-0.377672
-0.047664
0.0301453
-0.380323
-0.31938
-0.0539287
-0.0444618
0.023728
-0.176275
-0.379576
-0.0252315
-0.0307167
-0.380364
0.11587
0.0785188
0.0192245
-0.283792
-0.380886
0.224644
0.0428655
-0.049422
0.0198501
-0.314696
-0.142967
-0.06411
-0.290413
-0.357789
-0.00228223
-0.201004
0.0238718
-0.315528
0.127665
-0.0429065
-0.0405375
-0.293103
0.00239118
-0.100133
-0.38557
-0.314934
0.0129141
0.0197621
0.0139628
0.00328678
-0.312414
-0.207334
-0.349451
-0.122111
-0.0581888
0.00676973
-0.353089
-0.148109
0.0348729
0.00991363
-0.379228
-0.382254
-0.382783
-0.380718
-0.344383
-0.38133
0.0286119
0.100631
-0.0478742
-0.011657
-0.379491
-0.291915
0.019616
-0.27026
0.0239253
0.0305121
0.0128462
-0.063646
0.0219963
-0.349793
0.2291
-0.209431
-0.00784274
-0.271706
0.108102
-0.247166
-0.382513
-0.0229519
-0.0538218
0.0131252
0.204318
0.00171706
-0.00365518
0.0199937
-0.362428
0.0143926
0.00436721
-0.158441
-0.0293834
-0.376092
0.0183113
-0.378584
0.0330032
0.0189829
0.0279868
0.033014
-0.0451871
-0.00354369
-0.378022
0.0832374
-0.0694083
-0.278191
0.0164792
-0.361355
0.0164753
-0.345247
-0.253376
-0.377364
-0.135236
0.0275121
0.025044
-0.277356
-0.0149794
-0.0460218
0.0238221
-0.0595185
-0.37276
0.0150459
0.0204528
0.0303952
0.0250308
-0.326047
-0.335174
0.013145
0.0027191
-0.346027
-0.347721
0.0226021
-0.302832
0.0250771
-0.354123
-0.363723
-0.118609
-0.150969
0.17471
0.161781
-0.381055
-0.118763
0.0447343
0.00147213
0.0138818
-0.35088
-0.332221
0.0109314
0.10724
-0.382138
0.0228714
-0.383168
-0.00968384
-0.0132752
0.000730392
-0.308766
-0.120016
0.00566482
-0.377756
0.0192225
-0.264926
-0.273351
0.00577181
0.0266746
-0.181385
0.0325981
0.00342225
0.0152352
-0.285968
0.0748977
0.0194472
0.0219211
-0.298461
0.0422146
0.00438321
0.0269558
-0.380023
0.0204326
-0.050609
0.00336161
-0.38114
-0.270344
-0.0241658
-0.130409
-0.120557
0.0269026
-0.0630407
-0.378621
0.00236989
-0.154363
0.0134146
-0.272884
0.027437
-0.375694
-0.310766
0.0993069
-0.37516
-0.377934
0.184268
-0.021675
-0.319694
0.0171175
-0.378154
0.0781712
-0.298438
0.02509
0.0656525
-0.0755507
0.0904721
0.0459992
0.0443926
0.0202025
-0.377033
-0.144352
-0.374952
-0.286527
0.105354
0.00355059
0.0377821
-0.356776
0.0750912
0.00349886
0.0217167
-0.331181
-0.298816
-0.350141
-0.37377
-0.0602779
0.0474892
0.0143391
-0.112399
-0.0977398
-0.289167
0.0270206
0.0271237
-0.381175
-0.132304
0.0214454
-0.119638
-0.298276
-0.176409
-0.00457621
0.0749082
-0.279573
-0.300072
-0.2677
-0.217727
0.0301821
0.0241122
0.00294991
0.0211554
0.0439939
0.0267025
0.0555652
0.0992284
-0.0516834
-0.0500537
0.0203158
0.0255317
0.0740009
-0.0218022
0.0324435
0.0720652
0.0157117
0.00577683
0.0351325
0.0148724
0.0283876
0.0263783
-0.207524
5.20044e-05
0.0869443
-0.283833
-0.289097
-0.377629
-0.347858
0.00928962
0.0191556
0.0231817
-0.27898
-0.0108706
0.00160171
0.0245012
-0.27695
0.0895829
-0.065368
-0.245218
0.0540333
0.0285202
-0.0076885
0.0219263
0.0635229
0.0250538
0.0513944
0.0135428
0.0341382
0.0189251
0.05051
-0.0404666
-0.281169
-0.0845927
-0.0736247
-0.126525
-0.178335
-0.069479
-0.135296
-0.0110655
-0.37346
0.0992172
0.0766914
0.0350202
-0.0233085
-0.0890281
0.0311074
-0.0329556
-0.379023
0.131905
0.276498
-0.160392
0.0273061
-0.0687234
-0.012206
0.0336371
-0.0207019
0.0264995
-0.109898
-0.0736872
-0.280356
0.0130271
-0.0750227
0.1072
-0.305671
-0.24549
-0.10011
0.0255302
-0.0997178
0.00464884
-0.13914
0.0189069
-0.281979
0.00495922
0.105444
0.0249507
0.0087868
-0.175497
-0.0096506
-0.291714
0.0282429
-0.0486242
-0.00294378
0.0255015
-0.263451
-0.344334
-0.200303
-0.0858768
-0.0914207
-0.00884127
-0.00168623
-0.287168
-0.147525
-0.00562197
-0.0212736
0.103214
0.0366656
-0.23793
0.0114035
-0.338499
-0.192896
-0.194194
-0.0132688
0.0504065
0.00651681
-0.00344134
-0.160294
0.15039
0.111646
-0.38232
0.0250229
0.0720349
0.100567
-0.277996
-0.00193275
-0.239926
0.00254786
-0.328714
0.0204669
0.0279697
0.168549
0.0182201
0.0442862
-0.194144
0.0446013
0.0405114
-0.000422641
-0.0695179
0.0104057
-0.290948
0.0306021
0.0425409
0.0149404
-0.188343
0.0166694
0.112218
-0.0944016
-0.276479
-0.303948
-0.217281
0.110086
-0.251824
-0.0640402
0.0751676
0.114762
0.0228281
0.026467
-0.369253
0.0938993
0.00416935
0.0263038
0.0198368
-0.0527848
-0.12084
0.0250756
0.133729
-0.18143
-0.200723
-0.0662257
0.0243414
0.0191792
-0.286635
-0.0316454
-0.00291407
-0.285266
-0.269757
0.00624758
0.000640449
0.0593963
0.0276026
0.17959
0.0191319
-0.265221
0.0250823
-0.291628
0.00694798
-0.378022
-0.0148339
0.0323251
-0.0999553
0.000535748
-0.0137735
0.0251036
-0.0554996
-0.272157
0.0246602
-0.201399
0.0217426
0.0197029
0.208079
-0.00721224
0.020902
0.0201141
0.00305272
0.0292922
-0.000975402
0.0240964
-0.257798
0.0202221
-0.00157005
0.0069353
0.00262909
0.0300821
0.0249411
0.001888
-0.302559
0.225508
0.00511411
-0.0253106
-0.0111288
0.0250244
-0.204944
0.0189173
0.0190873
-0.382594
0.0253293
-0.0978294
-0.0900342
0.0538141
-0.0097331
-0.211187
0.0317535
-0.228933
0.228101
-0.0101897
-0.269308
-0.298867
0.123116
0.0660564
0.0173933
0.0296286
0.0797223
-0.2123
0.000813164
0.0154283
-0.000959606
-0.0642893
0.0249754
0.0142777
0.0234326
-0.0899975
-0.250234
0.0322918
-0.195915
0.0207082
-0.0314349
0.00618507
0.00297388
0.00765107
0.0346838
0.0247543
0.00364446
0.0548826
0.0418435
-0.118155
-0.0122918
-0.322143
0.00348544
0.0139719
-0.141063
0.0229804
-0.164114
-0.122181
-0.0093194
-0.0131087
0.0226912
-0.0116843
-0.0228639
0.0465675
0.16674
-0.0452985
0.0398006
0.00382204
0.0660668
-0.274476
-0.00473876
0.0452208
-0.28303
-0.233836
0.00605713
0.00491576
-0.333693
0.0235478
-0.0272936
0.0601162
-0.165881
-0.00415504
0.0205616
0.098769
0.0439356
0.0197221
0.0102891
0.0195297
-0.126773
0.0262537
0.0244402
0.021237
-0.0106992
-0.261888
0.0193279
-0.375587
0.266796
0.00100297
-0.284283
-0.23381
-0.00998647
-0.0239228
-0.119109
0.0162862
0.0352914
-0.284232
0.0179074
-0.308974
0.106761
0.0109928
0.0705533
-0.0202409
0.0292439
-0.0088123
0.222689
0.0681965
0.0197377
0.0305948
-0.017267
-0.376938
-0.00260104
0.0136735
0.124393
-0.194222
0.193454
0.0231984
0.00109436
0.0449952
-0.00355104
0.0723671
0.0657651
-0.0527516
-0.274888
-0.00837531
-0.0206492
-0.303289
0.0222032
-0.106099
-0.198243
0.0275624
0.023278
-0.219035
-0.155286
-0.153349
-0.380773
-0.282998
-0.206539
-0.265313
-0.00750704
-0.0287942
0.00926288
0.0249324
-0.277287
0.0492554
-0.119291
-0.083816
-0.0432227
0.0749187
-0.276921
0.0278624
0.0232308
0.00692367
0.0285633
0.0281465
-0.00304951
-0.0148224
-0.138825
0.033124
0.0495779
0.0128137
0.126039
0.0193616
-0.282696
0.0344329
-0.0263103
0.0139677
0.0251324
0.0169916
0.0157621
-0.0297024
0.0740317
0.0303923
0.00282488
0.00587222
0.0228285
0.0301
0.129108
-0.0130131
0.028663
0.0281692
0.0277066
-0.0586056
0.029178
0.0297436
-0.165514
0.027271
0.0277118
-0.0344338
-0.288802
-0.114142
-0.0205345
-0.0933659
-0.353672
-0.171328
-0.212525
0.0484355
0.00948672
-0.0515455
-0.202991
0.000978522
-0.208619
-0.0195777
0.0161046
-0.00409018
0.0243585
-0.14008
-0.148038
-0.131584
0.0149648
0.0179616
-0.016668
0.0575465
0.077342
-0.00512331
-0.028001
0.110003
0.180576
-0.117883
0.0242024
-0.0288788
-0.296432
0.0755136
0.0229828
-0.382494
-0.264735
0.0200831
-0.0154603
-0.0272646
-0.142903
-0.381137
0.0304932
-0.238981
-0.269658
0.178
-0.122734
-0.00738654
-0.0210677
-0.0214093
-0.149897
0.0252416
0.13025
-0.0315349
-0.226665
0.0255241
0.0278379
-0.274181
-0.0315513
0.0763752
0.00573562
0.0253582
-0.0326745
-0.358753
0.0172593
0.0283701
-0.289322
-0.108949
-0.0129163
0.034206
0.0216946
0.0142609
-0.00790829
-0.202322
0.0279702
-0.000507904
0.0713354
-0.112815
0.0527055
0.0111484
0.0323571
0.0090602
0.0156919
-0.139594
-0.0121929
-0.0193182
0.00793125
0.0217375
-0.359497
-0.0526678
-0.013945
-0.381191
-0.0188049
0.0336565
-0.325414
-0.116472
-0.370212
0.0303866
-0.0273609
0.0263572
-0.0170715
0.00691978
-0.383213
-0.0194146
-0.155124
-0.00316389
-0.0156388
-0.0285148
0.00302075
0.143104
-0.28516
-0.272793
0.026793
0.0105685
-0.227476
0.0700709
0.000940212
0.0569403
-0.0519517
-0.248933
-0.11939
-0.00071447
-0.282147
-0.111036
0.0417037
-0.00229178
-0.00913702
0.09605
-0.377932
0.0247433
-0.0802899
-0.0241027
0.026871
-0.00261207
-0.018033
-0.37925
0.105961
0.00278256
0.0425613
0.0270329
0.103025
0.000136234
-0.0273776
0.00909516
-0.0262756
-0.249894
0.0304918
0.0251227
-0.160138
0.000365951
-0.00210286
-0.272797
0.0234989
-0.380801
-0.378617
-0.379868
0.0464238
0.0452073
0.0020655
0.0193101
0.00147788
0.0262904
-0.201555
-0.107695
-0.245418
-0.156066
0.0193515
-0.00295781
-0.0264692
0.011874
0.0249652
0.0413059
-0.00182714
0.029403
-0.00809739
-0.360606
0.0311799
0.0206348
0.0218898
-0.00280814
-0.276959
0.0307198
0.128245
0.00172486
-0.112194
-0.0283093
0.0274681
-0.111998
0.00286889
-0.0302531
-0.379571
0.0300483
0.0357101
0.0353733
-0.253775
-0.383398
-0.00629383
0.00847262
-0.0320337
0.0437915
-0.00679624
0.0191791
0.0187807
0.0326312
0.0216744
0.0157963
-0.0287619
-0.345909
0.164843
0.0307978
0.0336188
-0.0141238
-0.00670779
0.0256501
0.0583418
0.119644
-0.3793
-0.0358194
0.0379841
-0.0203783
0.027924
-0.159911
0.000861815
0.0228402
0.0744248
-0.0147343
0.10142
-0.363901
0.0124857
-0.0511924
0.0278666
0.0152818
0.02682
-0.00518068
-0.0272232
-0.171098
-0.17088
0.00320625
-0.0830208
-0.146166
0.0250903
-0.0741161
-0.0476263
-0.319439
0.0191736
0.0308924
-0.0199267
0.000936009
-0.144655
0.0273657
0.0293284
-0.0777022
-0.211811
-0.196986
0.00687558
0.0326075
-0.382599
-0.376138
-0.00374249
-0.31543
-0.257503
0.0168704
-0.00267211
-0.00855547
0.0435265