/*--------------------------------*- C++ -*----------------------------------*\
| =========                 |                                                 |
| \\      /  F ield         | OpenFOAM: The Open Source CFD Toolbox           |
|  \\    /   O peration     | Version:  v2012                                 |
|   \\  /    A nd           | Website:  www.openfoam.com                      |
|    \\/     M anipulation  |                                                 |
\*---------------------------------------------------------------------------*/
FoamFile
{
    version     2.0;
    format      ascii;
    class       volVectorField;
    location    "850";
    object      cellDisplacement;
}
// * * * * * * * * * * * * * * * * * * * * * * * * * * * * * * * * * * * * * //

dimensions      [0 1 0 0 0 0 0];


internalField   nonuniform List<vector> 
9793
(
(0 -0.000334627 0)
(0 3.74653e-05 0)
(0 -0.000718172 0)
(0 3.73627e-05 0)
(0 -0.000154707 0)
(0 1.60103e-05 0)
(0 2.32231e-05 0)
(0 3.72627e-05 0)
(0 -0.000271288 0)
(0 3.74667e-05 0)
(0 -0.00025864 0)
(0 -0.000284196 0)
(0 -0.000517728 0)
(0 6.37733e-06 0)
(0 -0.000382837 0)
(0 -0.000391315 0)
(0 -2.62592e-05 0)
(0 -0.000678228 0)
(0 3.71123e-05 0)
(0 -0.000377571 0)
(0 -0.000489357 0)
(0 -3.04195e-05 0)
(0 3.73321e-05 0)
(0 3.72521e-05 0)
(0 4.63432e-06 0)
(0 -8.69438e-05 0)
(0 -0.000443623 0)
(0 -5.08222e-05 0)
(0 -0.000373171 0)
(0 1.2274e-05 0)
(0 3.74632e-05 0)
(0 2.69578e-05 0)
(0 -0.000750429 0)
(0 -0.000655442 0)
(0 -3.08789e-05 0)
(0 -0.000167098 0)
(0 -0.000396596 0)
(0 -0.000148058 0)
(0 3.07425e-05 0)
(0 -7.53626e-05 0)
(0 9.52453e-06 0)
(0 3.22719e-05 0)
(0 3.70496e-05 0)
(0 -3.62254e-05 0)
(0 -0.000849582 0)
(0 -0.00082291 0)
(0 3.74462e-05 0)
(0 -5.12394e-05 0)
(0 -0.000579057 0)
(0 -0.000687711 0)
(0 -0.000176328 0)
(0 -3.62962e-05 0)
(0 -8.43047e-05 0)
(0 -0.000101072 0)
(0 -1.55627e-05 0)
(0 3.7279e-05 0)
(0 -0.000502442 0)
(0 -5.04613e-05 0)
(0 -0.000564598 0)
(0 -2.74042e-05 0)
(0 -0.000100257 0)
(0 3.19319e-05 0)
(0 -0.000721991 0)
(0 -0.000209214 0)
(0 -8.47117e-05 0)
(0 -0.000283582 0)
(0 3.74667e-05 0)
(0 -0.000176941 0)
(0 -0.000412095 0)
(0 3.32639e-05 0)
(0 -0.000525597 0)
(0 3.11098e-05 0)
(0 3.7319e-05 0)
(0 -0.000222773 0)
(0 2.46668e-05 0)
(0 -0.000100649 0)
(0 1.38849e-05 0)
(0 3.53446e-05 0)
(0 -0.000781736 0)
(0 -0.00010029 0)
(0 1.63697e-05 0)
(0 3.6974e-05 0)
(0 -3.36508e-05 0)
(0 -0.000128544 0)
(0 -0.000393971 0)
(0 2.86796e-05 0)
(0 -0.000131689 0)
(0 -0.000135445 0)
(0 2.93322e-05 0)
(0 3.14256e-05 0)
(0 3.69965e-05 0)
(0 3.43413e-05 0)
(0 3.44362e-05 0)
(0 -1.7151e-05 0)
(0 3.69912e-05 0)
(0 -0.000618823 0)
(0 2.58138e-05 0)
(0 -1.93101e-05 0)
(0 -0.000123279 0)
(0 -0.00011902 0)
(0 3.00974e-05 0)
(0 -8.95758e-05 0)
(0 -0.000248452 0)
(0 -0.000854295 0)
(0 1.03776e-05 0)
(0 3.59782e-05 0)
(0 -0.0002359 0)
(0 -0.000407753 0)
(0 -0.00079192 0)
(0 -6.00492e-05 0)
(0 -0.000103337 0)
(0 3.72141e-05 0)
(0 3.74607e-05 0)
(0 3.74654e-05 0)
(0 -0.000524963 0)
(0 -0.000552752 0)
(0 -0.000555348 0)
(0 -0.0007877 0)
(0 3.70763e-05 0)
(0 -0.000860245 0)
(0 5.90783e-06 0)
(0 -0.000121406 0)
(0 2.60543e-05 0)
(0 -9.43295e-05 0)
(0 -0.000378406 0)
(0 -0.000858277 0)
(0 -1.32182e-05 0)
(0 3.74599e-05 0)
(0 -0.000105965 0)
(0 -0.000113739 0)
(0 -0.000290599 0)
(0 -0.000478156 0)
(0 -0.000339627 0)
(0 -0.000207121 0)
(0 -0.000172974 0)
(0 2.86688e-05 0)
(0 1.89749e-05 0)
(0 -0.000534345 0)
(0 -7.54926e-05 0)
(0 -2.23428e-05 0)
(0 3.67846e-05 0)
(0 -0.000165498 0)
(0 -0.000462538 0)
(0 -0.00015013 0)
(0 3.74452e-05 0)
(0 3.56492e-05 0)
(0 -0.000874604 0)
(0 2.75594e-05 0)
(0 -0.000480887 0)
(0 -0.000873414 0)
(0 -0.000567108 0)
(0 3.73229e-05 0)
(0 -0.000133119 0)
(0 -0.000450533 0)
(0 -0.000707194 0)
(0 3.48534e-05 0)
(0 -2.27396e-05 0)
(0 -0.000709993 0)
(0 2.80849e-05 0)
(0 -0.000573528 0)
(0 -0.000135562 0)
(0 -0.00027514 0)
(0 -0.000478866 0)
(0 3.65104e-05 0)
(0 -0.000421146 0)
(0 3.47243e-05 0)
(0 -0.000252728 0)
(0 -0.000373641 0)
(0 -0.000374997 0)
(0 -0.000219365 0)
(0 -0.000465427 0)
(0 3.74701e-05 0)
(0 3.73689e-05 0)
(0 -7.73951e-06 0)
(0 -0.000519825 0)
(0 1.2767e-05 0)
(0 3.19856e-05 0)
(0 3.70308e-05 0)
(0 -0.000762819 0)
(0 -0.000193197 0)
(0 8.12383e-06 0)
(0 3.74517e-05 0)
(0 -0.000120153 0)
(0 -0.000835527 0)
(0 -0.000750782 0)
(0 -0.000390307 0)
(0 2.42365e-05 0)
(0 3.73644e-05 0)
(0 3.72903e-05 0)
(0 -0.000233268 0)
(0 -0.000300811 0)
(0 3.74511e-05 0)
(0 3.65126e-05 0)
(0 -0.000123306 0)
(0 -0.000624303 0)
(0 -0.000168394 0)
(0 3.73668e-05 0)
(0 -0.000304281 0)
(0 -0.000668926 0)
(0 -0.000315253 0)
(0 -0.000489686 0)
(0 -0.000531181 0)
(0 -0.000181152 0)
(0 -0.000281812 0)
(0 3.68657e-05 0)
(0 -0.000658654 0)
(0 -9.45388e-05 0)
(0 -0.000382868 0)
(0 -0.000299238 0)
(0 3.66146e-05 0)
(0 -2.60315e-05 0)
(0 3.67411e-05 0)
(0 -0.000265637 0)
(0 3.39558e-05 0)
(0 -0.000124806 0)
(0 -0.000416964 0)
(0 -0.000377156 0)
(0 2.80841e-05 0)
(0 -0.000530278 0)
(0 1.62882e-05 0)
(0 -1.56392e-05 0)
(0 -0.000520503 0)
(0 3.71652e-05 0)
(0 -4.38361e-05 0)
(0 -1.98011e-05 0)
(0 -0.000590195 0)
(0 -7.50514e-05 0)
(0 -0.000100809 0)
(0 1.56645e-05 0)
(0 1.73769e-05 0)
(0 3.64401e-05 0)
(0 -0.000105554 0)
(0 -0.000410611 0)
(0 -0.000202862 0)
(0 3.63881e-05 0)
(0 -0.000664524 0)
(0 3.74045e-05 0)
(0 3.74634e-05 0)
(0 -0.000292802 0)
(0 -0.000274741 0)
(0 3.11089e-05 0)
(0 -0.000561257 0)
(0 -0.000100855 0)
(0 -5.36341e-05 0)
(0 -3.76488e-05 0)
(0 -0.000287907 0)
(0 -0.000194742 0)
(0 -8.93567e-05 0)
(0 1.57114e-06 0)
(0 -0.000220682 0)
(0 -0.000773686 0)
(0 5.52465e-07 0)
(0 3.74067e-05 0)
(0 -0.000511438 0)
(0 -2.03041e-05 0)
(0 -0.000119417 0)
(0 -0.000328611 0)
(0 -5.90736e-05 0)
(0 3.72486e-05 0)
(0 -0.000887441 0)
(0 3.51952e-05 0)
(0 2.8618e-05 0)
(0 -0.000283888 0)
(0 -0.000502373 0)
(0 3.41742e-05 0)
(0 -4.08491e-05 0)
(0 -0.000191304 0)
(0 -3.94961e-05 0)
(0 2.99929e-05 0)
(0 3.62098e-05 0)
(0 -0.000112956 0)
(0 3.6027e-05 0)
(0 -4.53868e-05 0)
(0 -0.000238628 0)
(0 3.74077e-05 0)
(0 -0.000358072 0)
(0 3.74639e-05 0)
(0 -0.000109921 0)
(0 -0.00011071 0)
(0 3.7505e-05 0)
(0 2.15003e-05 0)
(0 9.42177e-06 0)
(0 -9.98595e-05 0)
(0 -0.000301561 0)
(0 -3.76116e-05 0)
(0 -0.000287212 0)
(0 -0.000649982 0)
(0 -0.000423428 0)
(0 3.63154e-05 0)
(0 -7.69271e-05 0)
(0 -0.000478934 0)
(0 -1.10101e-05 0)
(0 -0.000277095 0)
(0 -9.03894e-05 0)
(0 -0.00050047 0)
(0 3.72248e-05 0)
(0 -0.000449472 0)
(0 -0.000387667 0)
(0 -8.95202e-05 0)
(0 -0.000509488 0)
(0 3.74453e-05 0)
(0 3.55587e-05 0)
(0 2.31029e-05 0)
(0 -0.00025141 0)
(0 -0.000137218 0)
(0 -7.56553e-05 0)
(0 -0.000238508 0)
(0 3.73631e-05 0)
(0 -0.000866161 0)
(0 2.81746e-05 0)
(0 -0.000200119 0)
(0 -0.000836898 0)
(0 3.74667e-05 0)
(0 -0.000225148 0)
(0 -0.000738043 0)
(0 4.35128e-06 0)
(0 3.74606e-05 0)
(0 -0.000339444 0)
(0 -2.54027e-05 0)
(0 -0.000386696 0)
(0 -0.000327291 0)
(0 -0.000118339 0)
(0 8.57286e-06 0)
(0 -0.00065971 0)
(0 -0.000837123 0)
(0 -0.000267667 0)
(0 3.27437e-05 0)
(0 3.74595e-05 0)
(0 -0.0007302 0)
(0 -0.000421654 0)
(0 -0.00045659 0)
(0 3.74774e-05 0)
(0 3.74448e-05 0)
(0 3.73466e-05 0)
(0 -0.000636856 0)
(0 1.173e-05 0)
(0 -2.22817e-05 0)
(0 3.72341e-05 0)
(0 -4.76755e-05 0)
(0 -0.000732813 0)
(0 -0.000673558 0)
(0 -0.000449137 0)
(0 -4.50694e-05 0)
(0 -0.000312622 0)
(0 3.7239e-05 0)
(0 -0.000654766 0)
(0 -0.00045058 0)
(0 -0.000119038 0)
(0 3.7167e-05 0)
(0 3.40023e-05 0)
(0 -8.93615e-05 0)
(0 3.15662e-05 0)
(0 -0.00010122 0)
(0 3.75177e-05 0)
(0 3.72247e-05 0)
(0 3.67229e-05 0)
(0 -0.000140846 0)
(0 -6.76716e-05 0)
(0 2.08714e-05 0)
(0 3.67591e-05 0)
(0 3.71841e-05 0)
(0 -0.00011649 0)
(0 -5.63534e-05 0)
(0 -0.000105305 0)
(0 -0.000606027 0)
(0 -0.000431372 0)
(0 -0.000327408 0)
(0 -0.000450933 0)
(0 -4.00439e-06 0)
(0 3.71733e-05 0)
(0 -0.000251324 0)
(0 -6.34206e-06 0)
(0 -8.81812e-05 0)
(0 1.05767e-06 0)
(0 -0.00075113 0)
(0 -0.000120418 0)
(0 3.74462e-05 0)
(0 3.66156e-05 0)
(0 -9.54793e-06 0)
(0 -5.20115e-05 0)
(0 -0.000453132 0)
(0 -0.00013316 0)
(0 -0.00071529 0)
(0 3.43567e-05 0)
(0 -0.000125343 0)
(0 3.33889e-05 0)
(0 3.38173e-05 0)
(0 2.36945e-05 0)
(0 3.73842e-05 0)
(0 -0.000133196 0)
(0 -0.0002339 0)
(0 -0.000587001 0)
(0 1.98197e-05 0)
(0 3.41526e-05 0)
(0 -0.000673004 0)
(0 3.73047e-05 0)
(0 -0.000251327 0)
(0 -0.000379434 0)
(0 3.74974e-05 0)
(0 -0.000254789 0)
(0 -4.34131e-05 0)
(0 -0.000645947 0)
(0 -0.000242395 0)
(0 -0.000633717 0)
(0 -0.000433293 0)
(0 -8.47817e-05 0)
(0 2.97646e-05 0)
(0 -0.00034123 0)
(0 -0.000116055 0)
(0 -0.000300874 0)
(0 -0.000487771 0)
(0 2.61668e-05 0)
(0 -1.71688e-05 0)
(0 -0.000567395 0)
(0 -0.000374439 0)
(0 -1.41397e-05 0)
(0 -2.46075e-05 0)
(0 -0.000362911 0)
(0 3.74522e-05 0)
(0 -0.000343966 0)
(0 -0.000656833 0)
(0 3.64084e-05 0)
(0 -0.000289692 0)
(0 3.73658e-05 0)
(0 3.6896e-05 0)
(0 -0.000770404 0)
(0 -0.000719864 0)
(0 -0.000420115 0)
(0 -0.00026613 0)
(0 -0.000468422 0)
(0 2.85215e-05 0)
(0 1.77451e-05 0)
(0 3.48615e-05 0)
(0 -8.25013e-05 0)
(0 -0.000481392 0)
(0 -8.75098e-05 0)
(0 -0.000161175 0)
(0 3.68898e-05 0)
(0 -0.000103949 0)
(0 -0.000136974 0)
(0 -0.000180133 0)
(0 3.50515e-05 0)
(0 -0.000504974 0)
(0 -0.000563856 0)
(0 -0.000509074 0)
(0 -0.000114149 0)
(0 -0.000611774 0)
(0 -0.000379227 0)
(0 -0.000802495 0)
(0 -0.000203169 0)
(0 -0.000191923 0)
(0 -0.000275102 0)
(0 -5.9304e-05 0)
(0 -5.29073e-05 0)
(0 3.73078e-05 0)
(0 -0.000103449 0)
(0 3.45801e-05 0)
(0 3.74281e-05 0)
(0 -0.000629778 0)
(0 -0.000124008 0)
(0 2.12102e-05 0)
(0 -0.000605982 0)
(0 -0.000159632 0)
(0 -0.000437297 0)
(0 -1.14024e-05 0)
(0 -3.9317e-05 0)
(0 -0.00014945 0)
(0 -0.000597371 0)
(0 -0.000329589 0)
(0 2.19594e-05 0)
(0 3.30286e-05 0)
(0 3.54899e-05 0)
(0 -8.33099e-05 0)
(0 -0.000719438 0)
(0 -3.55732e-05 0)
(0 3.74525e-05 0)
(0 2.39887e-05 0)
(0 -0.000177158 0)
(0 -0.000342364 0)
(0 -2.75506e-05 0)
(0 3.41988e-05 0)
(0 -2.44719e-05 0)
(0 -0.000310236 0)
(0 -0.000463976 0)
(0 3.65557e-05 0)
(0 -0.000632911 0)
(0 3.19489e-05 0)
(0 9.8682e-06 0)
(0 -0.000570168 0)
(0 3.57565e-05 0)
(0 -0.000109782 0)
(0 3.41046e-05 0)
(0 -0.000493183 0)
(0 3.69351e-05 0)
(0 2.69851e-05 0)
(0 -0.000389833 0)
(0 3.37553e-05 0)
(0 -0.00062705 0)
(0 3.71117e-05 0)
(0 -0.000659933 0)
(0 -0.000580608 0)
(0 -0.000198342 0)
(0 -0.000697471 0)
(0 2.58765e-05 0)
(0 -0.00060758 0)
(0 -0.000547063 0)
(0 -0.000244889 0)
(0 -0.000619357 0)
(0 -0.000468079 0)
(0 7.93936e-06 0)
(0 -0.000187936 0)
(0 -0.000195765 0)
(0 -0.00031243 0)
(0 -0.000299989 0)
(0 3.74403e-05 0)
(0 2.68249e-05 0)
(0 -0.000188978 0)
(0 -1.37626e-05 0)
(0 -0.000280242 0)
(0 -0.000284002 0)
(0 -0.000896874 0)
(0 -0.000475579 0)
(0 3.72859e-05 0)
(0 -0.000560577 0)
(0 -3.24008e-05 0)
(0 3.74678e-05 0)
(0 3.2402e-05 0)
(0 8.41674e-07 0)
(0 -0.000511403 0)
(0 -5.76506e-05 0)
(0 -0.000323568 0)
(0 -0.000179943 0)
(0 -2.03079e-05 0)
(0 -0.000328122 0)
(0 -0.000227004 0)
(0 -0.000366545 0)
(0 3.72673e-05 0)
(0 -0.00012306 0)
(0 3.74596e-05 0)
(0 -8.64403e-06 0)
(0 3.34501e-05 0)
(0 -0.000643396 0)
(0 -0.000205548 0)
(0 3.7446e-05 0)
(0 -0.000633313 0)
(0 3.10071e-05 0)
(0 -0.000595706 0)
(0 -1.10755e-05 0)
(0 -0.000489533 0)
(0 8.60169e-06 0)
(0 3.69653e-05 0)
(0 -0.000441746 0)
(0 -0.000103837 0)
(0 -0.000589557 0)
(0 -3.55379e-05 0)
(0 -6.21968e-05 0)
(0 -6.58575e-07 0)
(0 3.66272e-05 0)
(0 -0.000142004 0)
(0 -5.57454e-05 0)
(0 1.4595e-05 0)
(0 -5.59684e-05 0)
(0 -0.000322689 0)
(0 -0.000431854 0)
(0 -7.02465e-05 0)
(0 -0.000232857 0)
(0 -4.47326e-05 0)
(0 -0.000297946 0)
(0 -0.000299017 0)
(0 -0.000224154 0)
(0 2.88837e-05 0)
(0 3.03333e-07 0)
(0 -0.00039161 0)
(0 3.74566e-05 0)
(0 -0.000578488 0)
(0 3.38543e-05 0)
(0 -0.00066163 0)
(0 -0.000400085 0)
(0 -0.000623647 0)
(0 -0.000309898 0)
(0 -0.000112367 0)
(0 3.45307e-05 0)
(0 -0.000384802 0)
(0 3.21782e-05 0)
(0 1.38605e-05 0)
(0 -1.331e-05 0)
(0 -1.06882e-05 0)
(0 3.74654e-05 0)
(0 -0.000198831 0)
(0 -1.45242e-05 0)
(0 3.73038e-05 0)
(0 3.42151e-05 0)
(0 3.61001e-05 0)
(0 7.05241e-06 0)
(0 3.2871e-05 0)
(0 -0.000329826 0)
(0 3.74644e-05 0)
(0 -0.000237259 0)
(0 -0.000405753 0)
(0 3.46729e-05 0)
(0 -4.9342e-05 0)
(0 3.63718e-05 0)
(0 -4.41581e-06 0)
(0 1.03839e-07 0)
(0 -9.0891e-05 0)
(0 3.69624e-05 0)
(0 3.73471e-05 0)
(0 -0.000222707 0)
(0 -4.90973e-06 0)
(0 -0.000288868 0)
(0 3.62066e-05 0)
(0 -0.000297187 0)
(0 -0.000651599 0)
(0 -0.000327787 0)
(0 -0.000590841 0)
(0 -2.11527e-05 0)
(0 3.6012e-05 0)
(0 3.55266e-05 0)
(0 3.73959e-05 0)
(0 -0.000202318 0)
(0 -0.000155569 0)
(0 3.332e-05 0)
(0 3.5944e-05 0)
(0 -0.000337159 0)
(0 -5.07901e-05 0)
(0 -0.000283037 0)
(0 3.75256e-05 0)
(0 -9.52866e-05 0)
(0 -0.000771665 0)
(0 2.28718e-05 0)
(0 3.59501e-05 0)
(0 3.73569e-05 0)
(0 -7.15354e-05 0)
(0 -9.28188e-05 0)
(0 3.36912e-05 0)
(0 -0.000195675 0)
(0 2.48274e-05 0)
(0 -0.000188532 0)
(0 -4.52184e-06 0)
(0 -8.62099e-05 0)
(0 -0.000185395 0)
(0 -0.000332065 0)
(0 -0.000709226 0)
(0 -0.000123169 0)
(0 -5.32264e-05 0)
(0 -0.000121493 0)
(0 1.4611e-05 0)
(0 2.43618e-05 0)
(0 -2.4041e-05 0)
(0 -0.000109095 0)
(0 -0.00050111 0)
(0 -0.000656316 0)
(0 -5.13112e-05 0)
(0 -0.000570982 0)
(0 1.19729e-05 0)
(0 -1.85491e-05 0)
(0 6.69791e-06 0)
(0 -3.70272e-05 0)
(0 3.39394e-05 0)
(0 -0.000496883 0)
(0 3.73849e-05 0)
(0 -0.000142545 0)
(0 1.13016e-05 0)
(0 -2.68936e-05 0)
(0 2.6047e-05 0)
(0 -0.000250702 0)
(0 -0.000582388 0)
(0 1.12963e-05 0)
(0 -0.000631922 0)
(0 -0.000332848 0)
(0 -3.29649e-05 0)
(0 2.65593e-05 0)
(0 -0.000539372 0)
(0 -0.000110033 0)
(0 2.37272e-05 0)
(0 -0.000207947 0)
(0 -0.000106792 0)
(0 2.31292e-05 0)
(0 -0.000371898 0)
(0 -1.74966e-05 0)
(0 -0.000373552 0)
(0 -0.000306335 0)
(0 -0.000477953 0)
(0 3.11068e-05 0)
(0 2.12627e-05 0)
(0 3.72901e-05 0)
(0 -0.00048513 0)
(0 -0.000848925 0)
(0 -0.000416568 0)
(0 -0.000582301 0)
(0 -0.000191705 0)
(0 -0.000134405 0)
(0 3.63916e-05 0)
(0 -0.000153704 0)
(0 -0.000220173 0)
(0 3.33828e-05 0)
(0 -0.000172129 0)
(0 -1.77512e-05 0)
(0 -0.000346422 0)
(0 3.74689e-05 0)
(0 -0.000318738 0)
(0 -0.00016768 0)
(0 2.44726e-05 0)
(0 3.74154e-05 0)
(0 -0.000577338 0)
(0 -0.000804294 0)
(0 -0.000725503 0)
(0 -0.000412245 0)
(0 -0.000235578 0)
(0 -0.000209041 0)
(0 2.37311e-05 0)
(0 -0.000274946 0)
(0 -7.51326e-05 0)
(0 -0.000342971 0)
(0 -0.000355285 0)
(0 5.00441e-06 0)
(0 3.72719e-05 0)
(0 -4.46895e-05 0)
(0 -0.00054821 0)
(0 -0.000597487 0)
(0 -7.29479e-05 0)
(0 -0.000117699 0)
(0 -9.99784e-05 0)
(0 -0.000602306 0)
(0 -0.000590037 0)
(0 3.74654e-05 0)
(0 -0.000242392 0)
(0 -7.99861e-05 0)
(0 -4.88157e-05 0)
(0 2.18677e-05 0)
(0 -0.000582229 0)
(0 -2.08094e-05 0)
(0 -0.00031215 0)
(0 3.70479e-05 0)
(0 -4.04168e-05 0)
(0 -5.11718e-06 0)
(0 3.64173e-05 0)
(0 -9.97985e-05 0)
(0 2.96327e-05 0)
(0 -3.30694e-05 0)
(0 -0.000498114 0)
(0 3.72346e-05 0)
(0 -9.17097e-05 0)
(0 -0.000647861 0)
(0 -0.000318827 0)
(0 -2.88969e-05 0)
(0 3.74203e-05 0)
(0 -0.000334641 0)
(0 -0.000883425 0)
(0 -0.000622545 0)
(0 -0.000602325 0)
(0 -0.000501946 0)
(0 -0.000323126 0)
(0 3.63138e-05 0)
(0 -2.2588e-05 0)
(0 -0.000205882 0)
(0 -0.000400954 0)
(0 -2.20052e-05 0)
(0 -1.31158e-05 0)
(0 -0.000413215 0)
(0 -8.2386e-05 0)
(0 -9.40618e-06 0)
(0 -0.000418334 0)
(0 -0.000153175 0)
(0 3.72606e-05 0)
(0 -6.85013e-05 0)
(0 -0.000502119 0)
(0 3.73272e-05 0)
(0 -0.000304905 0)
(0 -9.54007e-05 0)
(0 3.53861e-05 0)
(0 3.74269e-05 0)
(0 -0.000388987 0)
(0 -0.000301371 0)
(0 3.60993e-05 0)
(0 -8.02234e-05 0)
(0 -0.000169604 0)
(0 -0.000169773 0)
(0 -3.66318e-05 0)
(0 -1.37996e-05 0)
(0 1.00084e-05 0)
(0 -0.000730569 0)
(0 3.66874e-05 0)
(0 -0.000169314 0)
(0 -1.72402e-05 0)
(0 -0.000574719 0)
(0 -5.4085e-05 0)
(0 -0.00067202 0)
(0 -0.000125989 0)
(0 -0.000125008 0)
(0 3.33751e-05 0)
(0 -0.000459662 0)
(0 -0.000597798 0)
(0 -3.27238e-05 0)
(0 -0.000571479 0)
(0 -0.000346017 0)
(0 -0.000516916 0)
(0 -7.9792e-05 0)
(0 -0.000626789 0)
(0 -0.000122268 0)
(0 -1.54373e-05 0)
(0 -4.93573e-05 0)
(0 -2.60742e-05 0)
(0 -0.000331277 0)
(0 -0.000438317 0)
(0 3.74644e-05 0)
(0 -0.000121506 0)
(0 -0.000479267 0)
(0 -8.38659e-05 0)
(0 3.74624e-05 0)
(0 -0.000589377 0)
(0 -0.00087234 0)
(0 -0.000540649 0)
(0 2.30797e-05 0)
(0 -0.000124871 0)
(0 3.74374e-05 0)
(0 -0.000444263 0)
(0 -9.99547e-05 0)
(0 -0.000338931 0)
(0 -0.000309458 0)
(0 -1.54482e-05 0)
(0 2.63675e-05 0)
(0 -0.000354281 0)
(0 2.90675e-05 0)
(0 -0.000508475 0)
(0 2.31972e-05 0)
(0 -0.00045427 0)
(0 -0.000179775 0)
(0 -0.000630052 0)
(0 -0.000383082 0)
(0 1.99888e-05 0)
(0 3.74656e-05 0)
(0 -0.000319223 0)
(0 -8.07603e-05 0)
(0 -7.92714e-05 0)
(0 -0.000569574 0)
(0 3.74117e-05 0)
(0 3.74658e-05 0)
(0 -0.000111702 0)
(0 -0.000373507 0)
(0 -0.000456323 0)
(0 3.73989e-05 0)
(0 -0.000534647 0)
(0 3.74087e-05 0)
(0 -0.000674597 0)
(0 -0.00026469 0)
(0 -0.000356723 0)
(0 -0.000140629 0)
(0 -0.000383731 0)
(0 2.97471e-05 0)
(0 3.68433e-05 0)
(0 3.73894e-05 0)
(0 2.53664e-05 0)
(0 3.74571e-05 0)
(0 -0.000707835 0)
(0 -1.43325e-05 0)
(0 3.62314e-05 0)
(0 -9.53859e-06 0)
(0 -0.000312093 0)
(0 -0.000320641 0)
(0 -8.67321e-06 0)
(0 -0.000553935 0)
(0 3.71713e-05 0)
(0 -2.77026e-05 0)
(0 6.85251e-06 0)
(0 -0.00024799 0)
(0 3.5367e-05 0)
(0 3.7458e-05 0)
(0 3.73975e-05 0)
(0 -3.65314e-05 0)
(0 -9.09098e-05 0)
(0 -5.75966e-05 0)
(0 3.72334e-05 0)
(0 -0.000617223 0)
(0 3.66845e-05 0)
(0 1.78985e-05 0)
(0 2.73079e-05 0)
(0 3.51435e-05 0)
(0 3.20196e-05 0)
(0 -0.000225974 0)
(0 -0.000153056 0)
(0 -0.000252071 0)
(0 -0.00022986 0)
(0 3.72167e-05 0)
(0 3.74593e-05 0)
(0 -0.000307042 0)
(0 3.7433e-05 0)
(0 -0.00043301 0)
(0 -4.37829e-05 0)
(0 3.24221e-05 0)
(0 2.4344e-05 0)
(0 2.16841e-05 0)
(0 -0.000692365 0)
(0 -9.24497e-05 0)
(0 -0.00018607 0)
(0 -0.000381926 0)
(0 -0.000497688 0)
(0 -7.73418e-05 0)
(0 -0.000317402 0)
(0 3.61308e-05 0)
(0 -6.08922e-05 0)
(0 -0.000702898 0)
(0 1.89351e-05 0)
(0 -3.97188e-05 0)
(0 -1.5082e-05 0)
(0 -0.000258222 0)
(0 3.72529e-05 0)
(0 3.65394e-05 0)
(0 3.463e-05 0)
(0 -0.000107308 0)
(0 -4.85599e-05 0)
(0 -0.000255186 0)
(0 -4.94964e-05 0)
(0 -0.000593124 0)
(0 3.48556e-05 0)
(0 -0.000109435 0)
(0 -0.000266799 0)
(0 -0.000644282 0)
(0 -0.000192363 0)
(0 3.73788e-05 0)
(0 -8.71474e-05 0)
(0 -0.000767804 0)
(0 3.63322e-05 0)
(0 -0.000699689 0)
(0 -0.000102994 0)
(0 -0.000617533 0)
(0 -0.000149429 0)
(0 -0.000828447 0)
(0 -0.000341361 0)
(0 3.74192e-05 0)
(0 -7.72242e-06 0)
(0 -4.64342e-06 0)
(0 3.74468e-05 0)
(0 3.18365e-05 0)
(0 -0.000687356 0)
(0 -0.000501137 0)
(0 -8.97591e-05 0)
(0 -1.48042e-05 0)
(0 -0.000494752 0)
(0 -0.000397308 0)
(0 3.61885e-05 0)
(0 -0.000228161 0)
(0 -0.000263585 0)
(0 -8.4304e-05 0)
(0 -1.53937e-05 0)
(0 3.59221e-05 0)
(0 -0.000547556 0)
(0 1.00167e-06 0)
(0 -0.000419099 0)
(0 -0.000308803 0)
(0 3.67193e-05 0)
(0 7.62442e-06 0)
(0 -4.7011e-05 0)
(0 -0.000343241 0)
(0 -0.000551683 0)
(0 3.74482e-05 0)
(0 2.63518e-05 0)
(0 3.31929e-05 0)
(0 3.74903e-05 0)
(0 -0.000419002 0)
(0 -0.000570783 0)
(0 -0.000757042 0)
(0 3.7468e-05 0)
(0 -0.00013464 0)
(0 -5.64307e-05 0)
(0 -0.000281007 0)
(0 -0.000324887 0)
(0 -0.000479305 0)
(0 -5.82691e-05 0)
(0 -0.000359223 0)
(0 2.4897e-05 0)
(0 -0.000446745 0)
(0 -9.36268e-06 0)
(0 -5.13228e-05 0)
(0 -0.000337323 0)
(0 -0.000603028 0)
(0 -0.000358219 0)
(0 -4.1762e-06 0)
(0 3.73762e-05 0)
(0 -0.000164165 0)
(0 3.74553e-05 0)
(0 -0.000494535 0)
(0 -4.75127e-06 0)
(0 -0.000353274 0)
(0 2.29321e-05 0)
(0 -0.00065785 0)
(0 -0.000664218 0)
(0 -0.000196699 0)
(0 -1.01162e-05 0)
(0 -2.00206e-05 0)
(0 -0.000422823 0)
(0 -3.14594e-05 0)
(0 3.11004e-05 0)
(0 2.83247e-05 0)
(0 -0.000324877 0)
(0 -1.81827e-05 0)
(0 3.69914e-05 0)
(0 -0.00024502 0)
(0 3.42073e-05 0)
(0 1.14286e-05 0)
(0 2.10091e-05 0)
(0 -0.00039753 0)
(0 -0.000297907 0)
(0 -0.000123677 0)
(0 2.89681e-05 0)
(0 -0.000484476 0)
(0 -0.000210918 0)
(0 -0.000320668 0)
(0 -0.000369967 0)
(0 -0.000268767 0)
(0 -0.000398285 0)
(0 -0.000600125 0)
(0 -0.000898139 0)
(0 3.67392e-05 0)
(0 -9.07901e-05 0)
(0 -0.000215521 0)
(0 4.70155e-06 0)
(0 -0.000420761 0)
(0 -0.000742084 0)
(0 -1.50683e-05 0)
(0 2.52943e-05 0)
(0 3.01667e-05 0)
(0 7.13629e-06 0)
(0 -3.00263e-05 0)
(0 -9.39456e-05 0)
(0 3.71473e-05 0)
(0 -4.11204e-05 0)
(0 3.74617e-05 0)
(0 2.25988e-05 0)
(0 -0.000361958 0)
(0 -0.000367408 0)
(0 -0.000245732 0)
(0 3.72663e-05 0)
(0 3.73488e-05 0)
(0 1.09736e-05 0)
(0 3.30279e-05 0)
(0 -0.000411548 0)
(0 -0.000421585 0)
(0 -0.000162025 0)
(0 -0.00034634 0)
(0 3.74646e-05 0)
(0 -0.000140735 0)
(0 -0.000368089 0)
(0 1.06885e-05 0)
(0 3.56905e-05 0)
(0 8.74186e-06 0)
(0 -0.000226051 0)
(0 -0.000209722 0)
(0 1.87002e-05 0)
(0 -8.54366e-05 0)
(0 -0.00022945 0)
(0 3.64089e-05 0)
(0 3.2632e-05 0)
(0 -0.000252646 0)
(0 1.86951e-05 0)
(0 1.83884e-06 0)
(0 -3.50543e-06 0)
(0 2.80496e-05 0)
(0 -9.04674e-05 0)
(0 -0.000349606 0)
(0 -9.42111e-06 0)
(0 -0.000646264 0)
(0 -0.000178201 0)
(0 -9.01537e-05 0)
(0 3.74414e-05 0)
(0 -9.00813e-05 0)
(0 -4.0209e-05 0)
(0 2.39154e-05 0)
(0 -0.000399847 0)
(0 3.74363e-05 0)
(0 3.74569e-05 0)
(0 -0.000500857 0)
(0 3.73942e-05 0)
(0 -4.65071e-05 0)
(0 -0.000399601 0)
(0 -0.000516372 0)
(0 2.36307e-05 0)
(0 3.66678e-05 0)
(0 -0.000128641 0)
(0 -3.87838e-05 0)
(0 -0.000612076 0)
(0 3.39534e-05 0)
(0 -7.06628e-06 0)
(0 -4.79552e-05 0)
(0 -0.000432673 0)
(0 -0.000406115 0)
(0 -0.000374881 0)
(0 -7.90083e-06 0)
(0 -0.000207385 0)
(0 -3.07264e-06 0)
(0 -4.28171e-05 0)
(0 -0.000157665 0)
(0 3.6596e-05 0)
(0 2.58705e-05 0)
(0 -0.000226244 0)
(0 -9.05179e-05 0)
(0 -0.000239681 0)
(0 3.63482e-05 0)
(0 -0.000106463 0)
(0 -0.000614943 0)
(0 -0.000396471 0)
(0 -0.000628982 0)
(0 -0.00021289 0)
(0 3.74149e-05 0)
(0 3.63445e-05 0)
(0 2.6985e-05 0)
(0 -8.57003e-05 0)
(0 -0.000455142 0)
(0 3.55546e-05 0)
(0 -8.23972e-05 0)
(0 -0.00026265 0)
(0 3.72832e-05 0)
(0 -0.000402579 0)
(0 8.20121e-06 0)
(0 3.74596e-05 0)
(0 -0.000414689 0)
(0 3.74495e-05 0)
(0 3.72132e-05 0)
(0 2.40206e-05 0)
(0 3.74599e-05 0)
(0 -4.55678e-06 0)
(0 -0.000458667 0)
(0 -0.000222036 0)
(0 3.74463e-05 0)
(0 3.55532e-05 0)
(0 -0.000235015 0)
(0 3.74417e-05 0)
(0 -0.000120835 0)
(0 -0.0006038 0)
(0 -0.000115311 0)
(0 -0.000319376 0)
(0 -9.21203e-05 0)
(0 -0.000128832 0)
(0 3.6104e-05 0)
(0 3.74612e-05 0)
(0 3.5624e-05 0)
(0 -2.35693e-05 0)
(0 -3.42024e-05 0)
(0 1.63847e-05 0)
(0 3.74351e-05 0)
(0 -0.000402614 0)
(0 3.74688e-05 0)
(0 -2.44045e-06 0)
(0 -0.000138586 0)
(0 -0.000108032 0)
(0 -9.00584e-05 0)
(0 -0.000313682 0)
(0 -2.70094e-05 0)
(0 3.74303e-05 0)
(0 -0.00041305 0)
(0 -0.000424006 0)
(0 3.74204e-05 0)
(0 2.18479e-05 0)
(0 -9.84202e-05 0)
(0 -0.000124938 0)
(0 -9.86444e-06 0)
(0 -0.000725261 0)
(0 -6.1565e-05 0)
(0 -2.09019e-05 0)
(0 3.45947e-05 0)
(0 -0.000244205 0)
(0 -0.00040128 0)
(0 -1.24727e-05 0)
(0 3.74407e-05 0)
(0 -4.3482e-06 0)
(0 -0.000307702 0)
(0 3.58345e-05 0)
(0 -0.000337722 0)
(0 -0.000446746 0)
(0 -0.000643502 0)
(0 -0.00024136 0)
(0 -0.000410731 0)
(0 -0.000284041 0)
(0 3.48527e-05 0)
(0 -0.000149828 0)
(0 -7.68612e-05 0)
(0 3.72048e-05 0)
(0 -0.000116583 0)
(0 2.84262e-05 0)
(0 3.2941e-05 0)
(0 2.58244e-05 0)
(0 -1.22986e-05 0)
(0 -0.000548484 0)
(0 -0.000165209 0)
(0 -0.000349571 0)
(0 -0.000219495 0)
(0 2.88092e-05 0)
(0 -0.000465224 0)
(0 3.25726e-05 0)
(0 -9.32267e-05 0)
(0 -1.11046e-06 0)
(0 -0.000695035 0)
(0 3.60054e-05 0)
(0 -1.83064e-05 0)
(0 3.73487e-05 0)
(0 -5.25751e-05 0)
(0 3.73696e-05 0)
(0 -0.000248088 0)
(0 -6.62146e-06 0)
(0 2.3518e-05 0)
(0 -4.80058e-05 0)
(0 -0.000282127 0)
(0 3.527e-05 0)
(0 -3.65362e-05 0)
(0 3.55864e-05 0)
(0 -0.000465622 0)
(0 -1.46197e-05 0)
(0 -0.000714301 0)
(0 3.73481e-05 0)
(0 3.50923e-05 0)
(0 8.38395e-06 0)
(0 -0.000692925 0)
(0 -0.000738819 0)
(0 -6.50175e-06 0)
(0 3.74582e-05 0)
(0 -0.000181646 0)
(0 -0.000761227 0)
(0 -5.15671e-05 0)
(0 2.62476e-05 0)
(0 -7.11337e-05 0)
(0 -0.00030644 0)
(0 3.00327e-05 0)
(0 -0.000410007 0)
(0 -0.000138948 0)
(0 -0.000661788 0)
(0 -0.000187691 0)
(0 -0.000611362 0)
(0 3.49914e-05 0)
(0 -0.000596404 0)
(0 -0.000614943 0)
(0 2.48599e-05 0)
(0 3.74675e-05 0)
(0 -0.000306872 0)
(0 5.8397e-06 0)
(0 -0.000348612 0)
(0 3.01951e-05 0)
(0 -0.000438085 0)
(0 3.45795e-05 0)
(0 -0.000225692 0)
(0 2.46523e-05 0)
(0 -0.000426642 0)
(0 -0.0002395 0)
(0 3.7179e-05 0)
(0 -0.000205362 0)
(0 3.7303e-05 0)
(0 -0.000136107 0)
(0 3.74568e-05 0)
(0 -0.000262586 0)
(0 -0.000551829 0)
(0 -0.000394537 0)
(0 -0.000136831 0)
(0 -0.000101411 0)
(0 -0.000100363 0)
(0 3.74319e-05 0)
(0 -0.000189507 0)
(0 -0.000144051 0)
(0 9.4937e-06 0)
(0 -8.31305e-05 0)
(0 -0.000320985 0)
(0 -0.00010931 0)
(0 1.94782e-05 0)
(0 3.74674e-05 0)
(0 -0.000618249 0)
(0 3.65973e-05 0)
(0 -0.000355711 0)
(0 1.10201e-05 0)
(0 3.73264e-05 0)
(0 -9.81029e-05 0)
(0 -0.000876011 0)
(0 -0.00040458 0)
(0 -2.36984e-05 0)
(0 3.50766e-05 0)
(0 -0.000123978 0)
(0 -0.000102389 0)
(0 -0.000547355 0)
(0 -7.67716e-05 0)
(0 -0.000520384 0)
(0 3.69333e-05 0)
(0 3.70963e-05 0)
(0 3.74578e-05 0)
(0 -0.000499463 0)
(0 -0.000134236 0)
(0 3.62911e-05 0)
(0 -0.0003533 0)
(0 2.14841e-05 0)
(0 -0.000376747 0)
(0 3.52521e-05 0)
(0 -2.56888e-06 0)
(0 -0.000814684 0)
(0 1.19e-05 0)
(0 3.52794e-05 0)
(0 -0.00058141 0)
(0 -0.000146771 0)
(0 -0.000662969 0)
(0 4.70349e-06 0)
(0 3.5028e-05 0)
(0 2.11118e-05 0)
(0 3.64055e-05 0)
(0 -0.000407102 0)
(0 -0.000367759 0)
(0 3.71791e-05 0)
(0 -0.000297528 0)
(0 5.34634e-06 0)
(0 -5.99014e-05 0)
(0 -0.000186473 0)
(0 -0.000631319 0)
(0 3.57149e-05 0)
(0 -0.000166572 0)
(0 3.58859e-05 0)
(0 -0.000635632 0)
(0 2.71352e-05 0)
(0 -0.000222983 0)
(0 3.61139e-05 0)
(0 -0.000110437 0)
(0 -0.000136841 0)
(0 -0.000141955 0)
(0 3.70715e-05 0)
(0 -0.000529093 0)
(0 -6.57351e-05 0)
(0 3.43131e-05 0)
(0 2.33063e-05 0)
(0 3.74036e-05 0)
(0 3.67141e-05 0)
(0 -0.000278385 0)
(0 -0.000754408 0)
(0 -0.000453066 0)
(0 2.01603e-05 0)
(0 -0.000542045 0)
(0 1.18362e-06 0)
(0 2.48391e-05 0)
(0 -0.000145177 0)
(0 -1.97901e-05 0)
(0 -0.000404076 0)
(0 -0.000433361 0)
(0 -4.60273e-05 0)
(0 -0.000401986 0)
(0 3.74424e-05 0)
(0 1.90608e-05 0)
(0 3.47392e-05 0)
(0 3.30829e-06 0)
(0 -0.000198308 0)
(0 3.74444e-05 0)
(0 -0.000172959 0)
(0 -0.000179217 0)
(0 -0.000331488 0)
(0 -5.04888e-05 0)
(0 1.82972e-05 0)
(0 -0.000725954 0)
(0 -0.000358228 0)
(0 -0.000122633 0)
(0 -0.000384479 0)
(0 -1.09551e-05 0)
(0 2.23959e-05 0)
(0 3.74052e-05 0)
(0 1.07365e-05 0)
(0 -0.000320761 0)
(0 2.5139e-05 0)
(0 -0.000404287 0)
(0 -0.000559199 0)
(0 -0.000292288 0)
(0 3.54031e-05 0)
(0 2.55061e-05 0)
(0 -1.93976e-05 0)
(0 2.47823e-05 0)
(0 3.4087e-05 0)
(0 3.26599e-06 0)
(0 3.36215e-05 0)
(0 -0.000374024 0)
(0 -6.79941e-05 0)
(0 3.73506e-05 0)
(0 -0.000369687 0)
(0 3.56386e-05 0)
(0 -0.000492555 0)
(0 -0.000500347 0)
(0 -1.57641e-05 0)
(0 3.61098e-05 0)
(0 -0.000410619 0)
(0 1.2393e-05 0)
(0 3.67502e-05 0)
(0 2.93987e-05 0)
(0 -0.000256992 0)
(0 -9.74357e-05 0)
(0 -0.000181225 0)
(0 -0.000151309 0)
(0 3.38642e-05 0)
(0 -0.000292413 0)
(0 3.61692e-06 0)
(0 3.73911e-05 0)
(0 -0.000210617 0)
(0 -0.000454158 0)
(0 -0.000437882 0)
(0 3.66317e-05 0)
(0 -0.000636952 0)
(0 -0.000880316 0)
(0 2.13172e-05 0)
(0 -0.000251164 0)
(0 -0.000523151 0)
(0 2.79303e-05 0)
(0 -0.000193132 0)
(0 2.42548e-05 0)
(0 2.43307e-05 0)
(0 3.74534e-05 0)
(0 3.67492e-05 0)
(0 -0.000721992 0)
(0 -0.000606273 0)
(0 -0.000425332 0)
(0 -0.000303105 0)
(0 2.81921e-05 0)
(0 -0.000277626 0)
(0 3.69206e-05 0)
(0 -0.000168622 0)
(0 3.73391e-05 0)
(0 -0.000166399 0)
(0 -0.000396761 0)
(0 -0.000247971 0)
(0 -0.000360427 0)
(0 -2.93378e-05 0)
(0 -0.000366064 0)
(0 -0.000628425 0)
(0 1.63542e-05 0)
(0 -0.000487873 0)
(0 -0.000177779 0)
(0 -0.000250015 0)
(0 3.74629e-05 0)
(0 -0.000176731 0)
(0 -0.00076419 0)
(0 -0.000596829 0)
(0 -4.46971e-05 0)
(0 -0.000424996 0)
(0 -0.000254731 0)
(0 -0.000549841 0)
(0 -0.000320407 0)
(0 -0.000602406 0)
(0 -0.000449302 0)
(0 -0.000147234 0)
(0 -3.70668e-05 0)
(0 -0.000124875 0)
(0 3.73388e-05 0)
(0 3.73998e-05 0)
(0 3.73411e-05 0)
(0 -0.000433411 0)
(0 -0.000214686 0)
(0 -0.000735538 0)
(0 -0.000491519 0)
(0 -0.000738946 0)
(0 -0.000411525 0)
(0 -0.000162398 0)
(0 -0.000507646 0)
(0 -9.18651e-05 0)
(0 -0.000306748 0)
(0 -0.000709599 0)
(0 -0.000319914 0)
(0 3.72394e-05 0)
(0 -0.000574171 0)
(0 -0.000500273 0)
(0 3.73045e-05 0)
(0 -0.000136786 0)
(0 -0.00024558 0)
(0 3.73038e-05 0)
(0 3.74558e-05 0)
(0 -0.00042264 0)
(0 3.52731e-05 0)
(0 3.64366e-05 0)
(0 -0.000302607 0)
(0 1.25255e-05 0)
(0 -0.000180004 0)
(0 -0.000317108 0)
(0 -5.79137e-05 0)
(0 -4.77557e-05 0)
(0 -0.000320412 0)
(0 -0.000194707 0)
(0 -0.000155533 0)
(0 -0.000417385 0)
(0 3.74667e-05 0)
(0 -0.000389702 0)
(0 1.54381e-05 0)
(0 -0.000167347 0)
(0 -8.90003e-05 0)
(0 3.7267e-05 0)
(0 -0.000120316 0)
(0 -0.000418728 0)
(0 -0.000134068 0)
(0 -0.000134713 0)
(0 -6.26469e-05 0)
(0 3.55908e-05 0)
(0 3.73936e-05 0)
(0 3.49819e-05 0)
(0 2.71945e-05 0)
(0 3.56723e-05 0)
(0 -1.81548e-07 0)
(0 -5.0458e-05 0)
(0 3.60929e-05 0)
(0 2.68893e-05 0)
(0 -0.00018642 0)
(0 -3.7309e-05 0)
(0 -2.52386e-05 0)
(0 -0.000583669 0)
(0 -0.000156528 0)
(0 -0.000154006 0)
(0 1.45269e-05 0)
(0 -0.000479386 0)
(0 -0.000690954 0)
(0 1.08997e-05 0)
(0 -0.000408987 0)
(0 3.60762e-05 0)
(0 -0.000413845 0)
(0 3.73907e-05 0)
(0 2.11457e-05 0)
(0 -1.78963e-05 0)
(0 -0.000748581 0)
(0 -0.000213711 0)
(0 -3.37355e-05 0)
(0 -6.00617e-06 0)
(0 -0.0002434 0)
(0 4.63912e-06 0)
(0 2.94611e-05 0)
(0 2.47734e-06 0)
(0 -4.22181e-05 0)
(0 3.62216e-05 0)
(0 3.59997e-05 0)
(0 -0.000538569 0)
(0 2.45568e-05 0)
(0 1.21707e-05 0)
(0 3.592e-05 0)
(0 2.23654e-05 0)
(0 -0.000677913 0)
(0 -5.82399e-05 0)
(0 -0.000113455 0)
(0 -0.000242012 0)
(0 -0.00014422 0)
(0 -0.000350555 0)
(0 -0.000102838 0)
(0 3.54944e-05 0)
(0 -1.64917e-05 0)
(0 -0.000294483 0)
(0 2.52635e-05 0)
(0 2.69885e-05 0)
(0 3.74275e-05 0)
(0 3.59714e-05 0)
(0 -0.000146291 0)
(0 -0.000220328 0)
(0 -0.000809847 0)
(0 -0.000445156 0)
(0 -0.000105791 0)
(0 2.10686e-05 0)
(0 3.73336e-05 0)
(0 -0.000484942 0)
(0 3.62667e-05 0)
(0 -2.34607e-05 0)
(0 3.41119e-05 0)
(0 2.57005e-05 0)
(0 -3.76611e-05 0)
(0 -0.000206828 0)
(0 -0.00023609 0)
(0 3.7409e-05 0)
(0 3.73935e-05 0)
(0 9.66953e-06 0)
(0 3.68857e-05 0)
(0 -0.000540662 0)
(0 3.56551e-05 0)
(0 -0.000408506 0)
(0 -0.000481931 0)
(0 3.73752e-05 0)
(0 -6.25831e-05 0)
(0 -0.000558908 0)
(0 -0.000621621 0)
(0 2.84829e-05 0)
(0 3.74279e-05 0)
(0 3.51236e-05 0)