/*--------------------------------*- C++ -*----------------------------------*\
| =========                 |                                                 |
| \\      /  F ield         | OpenFOAM: The Open Source CFD Toolbox           |
|  \\    /   O peration     | Version:  v2012                                 |
|   \\  /    A nd           | Website:  www.openfoam.com                      |
|    \\/     M anipulation  |                                                 |
\*---------------------------------------------------------------------------*/
FoamFile
{
    version     2.0;
    format      ascii;
    class       surfaceVectorField;
    location    "850";
    object      ddtCorrDdt0(Uf);
}
// * * * * * * * * * * * * * * * * * * * * * * * * * * * * * * * * * * * * * //

dimensions      [0 1 -2 0 0 0 0];


internalField   nonuniform List<vector> 
14470
(
(0.00061637 -0.00198027 1.32849e-18)
(0.000605548 -0.00202932 -5.22908e-18)
(0.000541587 -0.00199656 -4.23297e-18)
(0.00313154 0.00538841 3.30386e-17)
(0.00466807 0.00437605 -4.08194e-17)
(0.000236332 -0.000257222 -1.70405e-18)
(0.000255911 -0.000247848 1.14593e-19)
(0.000257067 -0.00028442 -4.58405e-18)
(-0.00216788 -0.0645704 3.37147e-17)
(-0.00186364 -0.06538 2.18452e-17)
(-0.00207878 -0.0647103 2.73246e-18)
(2.34277e-06 -0.000128006 -9.47373e-19)
(1.94221e-06 -0.000131663 -8.15366e-19)
(3.88349e-06 -0.000188266 -1.69441e-18)
(0.0213166 0.0211972 1.32258e-17)
(0.0225167 0.0213399 -3.63452e-18)
(0.0219035 0.0203491 3.91688e-17)
(0.0148282 -0.00335329 4.60077e-18)
(0.0150846 -0.00259798 2.42304e-17)
(0.0158869 -0.00317003 -2.58277e-18)
(-0.0184642 0.000220158 -2.65573e-17)
(-0.0180158 0.000581388 1.33295e-17)
(-0.0229503 0.00107189 3.80963e-18)
(0.0012358 0.00128888 -6.70605e-20)
(0.00127163 0.00138585 -1.09593e-18)
(0.00135048 0.00127959 -3.86557e-19)
(4.63429e-05 -0.00030027 4.84703e-20)
(3.85183e-05 -0.000281583 6.44735e-19)
(3.78482e-05 -0.000271196 5.06664e-19)
(5.03133e-05 -0.000328298 8.26808e-19)
(5.41569e-05 -0.000319778 -1.32414e-21)
(0.000271771 0.000103935 1.4365e-18)
(0.000264138 0.000106613 -4.84725e-19)
(0.000275549 0.000101099 2.60086e-18)
(-0.0508559 -0.0372723 1.1406e-17)
(-0.0446415 -0.0409176 -2.50263e-17)
(-0.0478507 -0.0387175 4.14051e-17)
(0.000430039 0.000917654 -2.40473e-20)
(0.000406179 0.000855134 1.87327e-19)
(0.000347831 0.0009426 2.1403e-19)
(-0.00764583 0.00353383 4.20362e-18)
(-0.00820128 0.00391553 9.50582e-19)
(-0.00823438 0.00314113 -2.83205e-18)
(0.00986393 0.0119469 -7.61459e-18)
(0.0107358 0.0121695 -1.36778e-18)
(0.0106054 0.0112506 -1.26897e-17)
(0.000319064 -0.000173951 1.06932e-18)
(0.000336277 -0.000177167 -2.36325e-18)
(0.00032712 -0.000151188 2.11617e-19)
(0.0035375 -0.0485238 2.43034e-17)
(0.00429181 -0.050664 1.61603e-17)
(0.00131096 -0.0500914 3.16146e-17)
(-0.000195688 0.00023951 -7.47292e-20)
(-0.000203352 0.000213672 -5.05313e-19)
(-0.000214664 0.00022316 2.80937e-22)
(-0.00034107 0.000562979 8.28417e-19)
(-0.000390754 0.000553377 1.22081e-18)
(-0.00035924 0.000516475 -1.54176e-19)
(-6.53334e-07 -3.74087e-05 1.38829e-18)
(2.55228e-07 -3.76485e-05 2.92425e-19)
(-0.00255927 -0.0598368 1.82022e-18)
(-0.00144674 -0.0602135 -1.82024e-17)
(-0.0021416 -0.0616277 1.00524e-17)
(-0.015385 0.00128315 -8.65108e-18)
(-0.022013 0.000658772 2.80285e-17)
(-0.0541963 -0.0345391 1.79233e-17)
(-0.0579908 -0.0348335 -2.2992e-18)
(0.00192328 -0.00330709 4.26802e-20)
(0.00191496 -0.00318 6.01194e-18)
(0.00175726 -0.00327176 2.2304e-17)
(0.000152015 -0.000388527 1.13875e-18)
(0.000161308 -0.0003668 -4.22861e-19)
(0.00014799 -0.000384279 9.27137e-19)
(2.49134e-06 -3.24464e-05 4.15687e-19)
(2.73633e-06 -3.85167e-05 1.44731e-18)
(5.63487e-06 -4.9471e-05 -7.04528e-19)
(-0.00017907 0.000245949 3.10092e-19)
(-0.000194135 0.000260303 -1.46848e-20)
(0.016402 0.0055394 -1.60064e-17)
(0.0170852 0.00598924 5.15437e-18)
(0.0172239 0.00500166 -7.81874e-18)
(-0.0316321 -0.00153719 -2.40001e-17)
(-0.0312261 -0.00167937 3.21496e-17)
(-0.0330578 -0.000996332 -3.22839e-17)
(0.0249835 0.018233 -2.51269e-17)
(0.0251127 0.0180141 -4.60172e-18)
(0.02531 0.0175988 5.55971e-18)
(0.000177806 -0.000297149 -1.50856e-18)
(0.000165521 -0.00030607 7.3162e-19)
(0.000182337 -0.000269036 9.4644e-19)
(0.0003242 -4.94643e-05 -2.35548e-18)
(0.000332284 -5.53458e-05 7.9488e-19)
(0.000336064 -4.19538e-05 -8.95941e-20)
(3.75775e-05 1.01668e-05 1.99488e-19)
(4.1936e-05 1.01707e-05 7.5584e-19)
(5.66782e-05 7.36422e-06 3.87676e-19)
(-0.000351843 0.00866884 -2.35609e-18)
(-3.76518e-05 0.00838929 -1.03281e-17)
(6.10663e-05 0.00896615 -7.07854e-18)
(-0.00572475 0.00310664 1.70695e-18)
(-0.00524611 0.00319023 6.63938e-18)
(-0.00532008 0.00273625 4.04029e-18)
(-0.000164524 -0.00328602 -2.10755e-18)
(-0.000217932 -0.00338441 1.9925e-17)
(-3.54224e-05 -0.00337443 -1.65905e-17)
(0.0100228 -0.0604201 -8.07681e-18)
(0.0105619 -0.0606475 -2.36307e-18)
(0.0123616 -0.0619392 3.98332e-17)
(0.00551186 0.00610446 -8.86744e-19)
(0.00512369 0.00589272 -3.55657e-18)
(0.00507444 0.00640697 6.66124e-18)
(0.0156394 0.0049327 -6.66207e-18)
(0.0154646 0.00585113 -2.72549e-18)
(0.0658672 0.0139018 2.54976e-17)
(0.0621109 0.0112502 -3.08803e-17)
(0.065252 0.00905807 -4.32602e-18)
(-0.0277114 -0.0114259 1.44689e-17)
(-0.0275309 -0.00659767 8.29346e-18)
(-0.0322171 -0.00907922 -2.89322e-18)
(6.24513e-07 -1.94844e-05 -2.47065e-18)
(2.14266e-06 -2.99381e-05 -1.03893e-18)
(2.22371e-05 -0.000253422 -1.65633e-18)
(2.85221e-05 -0.000258433 -7.44448e-19)
(1.19083e-05 -0.000259195 -1.86033e-18)
(3.86826e-05 -0.000455147 -4.04081e-19)
(3.88617e-05 -0.000487736 -4.46761e-19)
(2.60135e-05 -0.000490115 -2.69554e-18)
(-0.0320529 0.00356318 2.28406e-17)
(-0.032313 0.00308527 1.87343e-17)
(-0.0320653 0.00361538 2.19432e-17)
(1.38966e-06 -6.65713e-05 -1.3121e-18)
(2.69275e-06 -3.13943e-05 -1.53906e-18)
(3.29394e-06 -2.96381e-05 3.16833e-18)
(-0.000982671 0.00038685 -3.32753e-18)
(-0.000953965 0.000304317 -4.77525e-18)
(-0.00104483 0.000320387 1.57185e-18)
(0.000300034 -0.000164604 3.71105e-18)
(0.000310504 -0.000191134 -1.75679e-18)
(-0.000823331 0.00911646 5.37595e-18)
(-0.000914436 0.0084434 3.58866e-18)
(3.24905e-05 1.23972e-05 -1.05196e-18)
(3.47548e-05 9.91053e-06 -5.4328e-19)
(0.00417047 0.010695 5.30601e-18)
(0.00482057 0.0108622 -2.87217e-18)
(0.0040722 0.0112235 1.83959e-17)
(8.58513e-06 -0.000101719 -1.1687e-18)
(6.51146e-06 -0.00011186 3.5907e-19)
(0.0034107 -0.00442162 -4.90126e-18)
(0.00349673 -0.00417566 -1.50348e-18)
(0.00369469 -0.00439493 -2.92217e-19)
(-0.00219298 -0.0645509 -6.81636e-18)
(-0.00293807 -0.0637264 -8.32166e-18)
(0.000244451 0.000112395 7.82973e-19)
(0.000240921 0.000109124 7.29101e-20)
(0.000236513 0.000113286 -4.77051e-19)
(0.00666027 0.0276985 1.54481e-17)
(0.00611997 0.0288883 -1.32281e-18)
(0.00527104 0.0278427 1.33699e-17)
(-0.000919744 0.000434345 8.7226e-19)
(-0.00100254 0.000464793 -3.52035e-19)
(1.81004e-06 -3.37172e-05 -6.62426e-20)
(0.000473215 -0.00372152 5.09579e-19)
(0.000425242 -0.00381718 1.48686e-17)
(0.0003456 -0.00371247 -1.20128e-17)
(0.00519454 -0.0092404 -1.63455e-18)
(0.00556111 -0.00930745 -4.76301e-18)
(0.00516651 -0.00977243 1.0589e-18)
(0.000260266 -0.000184847 -2.89915e-18)
(0.000249578 -0.000196865 1.31432e-18)
(0.00024359 -0.000180402 -5.87641e-18)
(-0.00682733 0.0134741 2.66216e-18)
(-0.0059294 0.0128992 1.81471e-17)
(-0.0070552 0.0125567 9.2985e-19)
(9.5181e-05 1.8108e-05 5.89719e-19)
(9.07989e-05 1.88173e-05 -1.10317e-18)
(9.29998e-05 2.37223e-05 4.05043e-19)
(0.00121161 0.00116567 -2.50394e-19)
(0.00113737 0.00127415 -6.07768e-19)
(-0.0280313 0.00163017 -3.74091e-18)
(-0.0264605 0.0019287 4.64386e-17)
(0.00142721 0.00445109 -1.13742e-18)
(0.00147269 0.00420003 1.79719e-18)
(0.00171663 0.00436805 4.02584e-18)
(-0.00620057 0.00295172 -2.54444e-18)
(-0.00665965 0.00273859 -8.84625e-18)
(-0.00620886 0.00237377 1.01248e-19)
(0.0210762 -0.0280486 2.15191e-17)
(0.0259869 -0.0247959 3.15666e-17)
(0.021578 -0.0225829 -3.11276e-17)
(0.000420396 -0.00125193 1.74024e-18)
(0.000388542 -0.00130544 -4.00119e-18)
(0.000377775 -0.00121203 3.60563e-18)
(-0.000506144 -0.00877661 -6.91164e-17)
(-0.000628817 -0.00899418 2.32183e-17)
(-0.000347104 -0.00900209 -1.56303e-18)
(-0.0269808 0.00201878 1.50229e-17)
(-0.0235007 0.00145134 -1.40374e-17)
(-0.0277462 0.00226181 -1.75364e-17)
(0.209995 0.108504 2.22498e-18)
(0.195228 0.129299 9.46139e-18)
(0.229005 0.104529 1.53113e-18)
(0.0636066 -0.0110173 2.61036e-18)
(0.059568 -0.0177438 -4.43789e-17)
(0.0700289 -0.0125211 -1.96086e-17)
(2.37192e-06 -7.21435e-05 3.25026e-19)
(2.6042e-06 -8.15237e-05 4.18795e-20)
(7.5036e-06 -0.000106266 -2.36775e-18)
(0.002311 -0.00683809 1.75833e-18)
(0.00265979 -0.00669358 -7.92969e-18)
(0.00231904 -0.00652254 -1.71445e-17)
(0.0416526 0.0105459 -1.63271e-17)
(0.0415394 0.00650516 3.5922e-19)
(0.0381041 0.00901922 -3.01778e-18)
(0.000149033 -0.000224159 1.11379e-18)
(0.000161244 -0.000215554 -2.51013e-18)
(0.000160194 -0.000219975 -2.00494e-18)
(4.53266e-06 -0.00011909 -5.06245e-18)
(3.59936e-06 -0.000114358 2.02319e-18)
(1.26505e-06 -7.41007e-05 -2.34925e-18)
(0.00233358 -0.00698193 -1.03148e-17)
(0.00207218 -0.00687305 -3.27787e-19)
(0.00169012 -0.0456209 1.94567e-17)
(0.00536852 -0.0467263 -3.65127e-18)
(0.00908912 0.0116199 3.08458e-18)
(0.00918207 0.0124844 4.40123e-18)
(0.00291993 -0.00116474 1.74439e-18)
(0.00302169 -0.00101453 3.67798e-18)
(0.00286836 -0.000989348 -1.29969e-18)
(-0.00608313 0.00351051 2.12605e-18)
(0.0283873 0.00745287 1.0467e-17)
(0.0278587 0.00596952 2.5944e-17)
(0.0270115 0.00737809 4.89864e-18)
(4.85808e-06 -0.000122634 -8.93446e-19)
(2.36057e-06 -0.000170224 -3.45541e-18)
(-0.00652401 0.0302375 -6.56824e-18)
(-0.00716782 0.0282509 5.78029e-18)
(-0.00866114 0.0297906 3.89273e-18)
(0.0120368 -0.0604841 -2.40589e-18)
(0.00798838 -0.0617178 3.84176e-18)
(0.00501891 -0.00885632 4.19213e-18)
(0.00466759 -0.00937643 1.49035e-17)
(-0.00555078 -0.058846 -9.15813e-18)
(-0.0043177 -0.0601655 2.68777e-17)
(-0.00486372 -0.0604251 8.75696e-18)
(0.0450109 0.00543399 -8.24573e-18)
(0.0441553 0.00818928 -1.91761e-17)
(0.0442277 0.00976564 1.87419e-17)
(0.0454858 0.0016782 -4.28876e-17)
(0.0440738 0.00217046 5.38436e-18)
(0.00936324 0.00359375 -6.79316e-18)
(0.010026 0.00356786 3.66318e-18)
(0.00961024 0.00416427 2.53739e-17)
(-0.0246805 -0.0187509 1.3768e-17)
(-0.0220354 -0.0139683 1.44106e-17)
(0.000421822 -0.000172024 -6.8653e-19)
(0.000438352 -0.000180476 -5.36808e-18)
(0.000413314 -0.00014096 -1.82777e-18)
(0.057911 -0.00905754 3.82852e-17)
(0.0728619 -0.00384665 5.74044e-18)
(0.0113735 0.00922756 9.41445e-18)
(0.0110864 0.00856611 -2.86048e-18)
(0.0105889 0.00922117 -2.06589e-17)
(0.00325891 0.00295697 -3.62297e-18)
(0.00339327 0.0031401 9.15188e-19)
(0.0035129 0.00288838 3.48477e-19)
(1.80036e-06 -7.97213e-05 2.44192e-18)
(3.07777e-06 -0.000132786 8.62837e-19)
(-0.0113556 -0.058888 6.7136e-18)
(-0.012987 -0.0583538 -1.05235e-17)
(-0.0145246 -0.0573491 -2.0415e-17)
(0.00435625 0.0100754 -1.37804e-17)
(0.0036139 0.0104544 6.78154e-18)
(0.0429858 0.201704 -3.79886e-18)
(0.0249427 0.206965 2.15615e-18)
(0.0331205 0.219805 -4.77384e-18)
(1.50087e-05 -0.000248739 3.74088e-18)
(3.34623e-05 -0.000251175 -2.74626e-18)
(0.094413 -0.029247 -2.36114e-17)
(0.0851456 -0.0342637 -1.22653e-18)
(0.0853084 -0.0310251 -6.27787e-18)
(0.0394828 0.00293137 4.09071e-17)
(0.0338483 0.00180258 4.51854e-17)
(0.0356684 0.000514841 -1.02281e-17)
(0.206554 0.0887125 -2.14079e-18)
(0.191384 0.105788 3.10568e-19)
(0.000148494 9.57327e-05 -4.99059e-20)
(0.000155931 9.67503e-05 2.27895e-19)
(0.000155143 0.000102462 -5.64028e-19)
(0.000138023 -0.000228302 -4.95874e-19)
(0.000135847 -0.000240416 6.58732e-18)
(-1.47902e-06 -3.55498e-05 1.70353e-18)
(1.07623e-05 -9.2071e-05 -2.22957e-18)
(1.24339e-05 -8.82928e-05 9.32426e-19)
(1.59086e-05 -0.000109436 -4.96896e-19)
(-0.0034621 -0.0599328 3.59398e-17)
(-0.00369684 -0.0581013 8.13263e-18)
(0.000651823 -0.0106657 2.10422e-17)
(-3.78782e-06 -0.0108962 -2.9198e-17)
(0.000832762 -0.0102999 -6.02069e-17)
(-0.0176912 -0.0041347 -4.24326e-18)
(-0.0192923 -0.00391109 -1.03958e-18)
(-0.0175969 -0.0025134 2.03584e-17)
(0.000403409 -0.00123732 -1.08395e-19)
(0.000423415 -0.00123775 -2.31235e-18)
(0.000109374 -0.000578806 1.14801e-19)
(0.000120098 -0.000564375 -5.49233e-18)
(0.000114091 -0.00057053 5.52562e-18)
(-0.00626558 -0.000701494 -1.53916e-18)
(-0.00595303 -0.00115334 9.07384e-19)
(-0.00666097 -0.00125969 1.30347e-18)
(6.17312e-05 -0.000488872 1.23072e-19)
(6.03043e-05 -0.000525536 2.26806e-18)
(7.02138e-05 -0.000481181 3.75697e-18)
(-0.00211799 -0.064509 -1.09899e-17)
(-0.00282366 -0.0638065 3.65539e-18)
(-0.00177404 -0.0645169 1.31228e-17)
(5.2487e-06 -0.000415442 -4.54994e-19)
(1.85787e-05 -0.00040369 -2.6267e-18)
(1.22108e-05 -0.000385657 -9.69987e-18)
(0.0825738 -0.0381177 1.39475e-17)
(0.0873298 -0.0373284 1.86747e-17)
(0.0746889 -0.0425071 3.54243e-18)
(-0.00559196 0.0319631 1.26339e-17)
(-0.004208 0.0304291 -3.90851e-18)
(0.0925838 0.00736 3.42905e-17)
(0.0821163 0.00330889 -4.63042e-18)
(0.0809146 0.00539742 2.97473e-17)
(0.00296164 0.0146701 8.37028e-18)
(0.00253628 0.0154643 -1.66831e-18)
(0.00207731 0.0146858 6.03153e-18)
(-0.00475474 0.00333031 3.73153e-19)
(-0.00508862 0.00372064 1.67618e-18)
(-5.20791e-06 -0.000424064 3.17861e-19)
(1.4342e-06 -0.000456327 3.21291e-18)
(0.011977 0.0106135 8.69405e-18)
(0.0124642 0.0112269 -1.52224e-17)
(0.0128857 0.0103893 7.60802e-18)
(-0.0321674 -0.00133125 -6.99439e-17)
(-0.0303637 -0.0018237 -2.70704e-17)
(0.000813257 0.0526461 9.10711e-18)
(-2.36685e-05 0.0508016 1.61123e-18)
(0.00245104 0.0501591 2.15234e-17)
(0.000326416 0.0549821 2.71086e-18)
(-0.000801836 0.0558779 -8.07544e-18)
(-0.00171313 0.00447853 -4.17927e-18)
(-0.00200694 0.00430808 1.20238e-18)
(-0.0017237 0.00418781 4.32385e-18)
(0.000376005 7.73761e-07 -8.4156e-20)
(0.000362809 1.40639e-05 -9.81441e-19)
(0.000350059 4.5799e-06 -6.86235e-20)
(0.00063301 -0.00188103 1.44209e-17)
(0.000706377 -0.00196112 9.14383e-18)
(0.00106492 0.00387988 -1.58243e-20)
(0.00114302 0.00367164 6.1919e-19)
(0.000898147 0.00372164 -2.78997e-18)
(0.00012705 0.00800948 -5.3633e-19)
(-0.000181112 0.00761463 8.11895e-18)
(0.000378779 0.00751708 8.68816e-18)
(0.0215935 -0.00250517 1.92956e-17)
(0.0205989 -0.00312686 2.01844e-17)
(0.0218451 -0.00389981 3.07714e-17)
(0.0244797 0.0309732 -9.591e-18)
(0.02339 0.0331063 -7.47976e-18)
(0.022988 0.0315799 1.13012e-17)
(-0.00663192 -0.000326333 6.19234e-18)
(-0.00597993 -0.000238285 -8.52657e-18)
(2.87826e-06 -6.70997e-05 3.02281e-18)
(3.09633e-07 -4.27625e-05 1.56606e-18)
(0.0108608 0.0139918 1.59233e-17)
(0.0110877 0.0145755 1.01437e-18)
(0.0116894 0.0138761 -4.25378e-18)
(0.00142757 -0.0395843 -1.03456e-17)
(0.000994205 -0.0423399 -6.63419e-18)
(0.00477934 -0.0414869 1.84324e-17)
(0.000510352 0.00821629 -6.5508e-18)
(0.000724719 -0.00104542 -1.13938e-18)
(0.000799625 -0.00103935 -4.91077e-18)
(0.000726727 -0.000963945 1.9716e-18)
(-0.00636127 0.023828 2.14936e-18)
(-0.00768404 0.0248072 -4.34426e-18)
(-0.00784169 0.0232141 -6.08878e-18)
(-0.0317206 0.00415478 3.59083e-18)
(-0.0317322 0.00472071 -8.4933e-18)
(-0.0324302 0.00445876 -7.70408e-18)
(0.0137259 -0.0139863 2.68099e-17)
(0.0132849 -0.0138805 -2.32425e-18)
(0.0132146 -0.0144656 1.0964e-17)
(-1.63285e-05 -0.00042239 -1.02583e-18)
(-2.06443e-05 -0.000457126 5.53439e-19)
(0.0565824 -0.0079539 5.42436e-17)
(0.0519098 -0.0138699 -1.77576e-19)
(0.000387922 -7.49317e-06 -3.83858e-19)
(0.000401384 -2.70602e-06 9.24505e-19)
(-1.55658e-05 -0.000391731 -2.89784e-18)
(0.000191415 -0.000392983 -3.61694e-18)
(0.000179688 -0.000413974 -1.50705e-18)
(0.000174772 -0.000441622 3.21996e-20)
(-0.0169369 0.00181775 3.13695e-18)
(-0.0310863 0.00607533 2.76652e-17)
(-0.0221406 0.00571834 1.40598e-17)
(0.00312786 0.00271812 2.11088e-18)
(0.00299239 0.00294991 -1.24893e-18)
(0.000141386 -0.000407609 -1.87117e-18)
(0.000159706 -0.000392075 1.50873e-18)
(8.385e-05 -0.000703198 2.44305e-18)
(0.000104134 -0.000694381 2.39615e-18)
(0.000102436 -0.000760657 3.47705e-18)
(0.0450697 -0.00587159 4.17865e-18)
(0.0446897 -0.0066762 1.42539e-17)
(0.0446968 -0.00935989 -3.16462e-17)
(0.0107369 0.0130844 1.01421e-17)
(0.0115486 0.0122947 -5.5032e-18)
(0.000273146 -0.000170834 -4.15525e-18)
(0.000278201 -0.000196786 -2.1271e-18)
(0.0246316 0.0185232 -8.26346e-18)
(0.0242408 0.0182094 -1.19774e-17)
(0.000421497 -0.000946957 -9.25121e-19)
(0.000409557 -0.000874068 -1.0245e-18)
(0.000447038 -0.000908218 -1.44818e-18)
(-0.00740618 0.0264454 -6.71589e-19)
(-0.00570077 0.0270028 1.9612e-18)
(-0.00170858 0.00478954 8.24177e-19)
(-0.00142904 0.00461358 -1.17354e-19)
(-0.000338138 0.00060194 -6.95041e-19)
(-0.000305772 0.00057237 2.10145e-18)
(0.00243332 -0.0112288 -9.63154e-18)
(0.00256551 -0.0115037 -1.3665e-17)
(0.00218877 -0.0114748 9.24231e-18)
(-0.00118581 0.00166965 3.64666e-18)
(-0.00108666 0.00179532 1.84142e-19)
(-0.00103397 0.0016676 1.32055e-18)
(0.0440268 0.0112703 -3.32116e-17)
(0.0408732 0.0146653 -2.1084e-17)
(0.00300639 0.211877 -3.55174e-19)
(-0.0229149 0.214909 -1.12318e-18)
(-0.0122422 0.231217 -1.71555e-18)
(-0.00102575 0.00221126 7.73157e-20)
(-0.000882283 0.00231173 8.87705e-20)
(-0.000872355 0.00215291 -1.70677e-18)
(0.000140083 9.46392e-05 -6.67767e-19)
(0.000132981 9.31353e-05 -4.28403e-19)
(0.000139987 9.98386e-05 -9.35131e-19)
(2.83985e-05 -0.000257043 6.61082e-19)
(2.13396e-05 -0.000220778 9.49304e-19)
(2.16026e-05 -0.000227391 -1.69325e-18)
(0.000677804 -0.00105209 -1.34855e-18)
(0.000732417 -0.00111734 -3.06101e-18)
(-0.00187684 -0.000703079 -2.59394e-17)
(-0.00158329 -0.00115232 -8.91323e-18)
(-0.00223556 -0.00123649 -2.30478e-18)
(-0.0341389 0.0129429 -6.56653e-19)
(-0.0335742 0.0128861 8.6904e-18)
(-0.0346753 0.0151814 -3.6078e-17)
(0.00973311 -0.0409204 5.61627e-18)
(0.00418716 -0.0436355 -2.11966e-17)
(0.0138577 -0.045495 -4.21282e-18)
(0.000280637 9.63449e-05 -5.60586e-19)
(0.000268188 9.9549e-05 -2.1952e-20)
(0.0201371 0.0208634 -3.47185e-17)
(0.0205379 0.0220384 -1.63273e-17)
(0.0103623 -0.0101465 2.35331e-18)
(0.0110188 -0.00971803 3.49633e-18)
(0.0103278 -0.00939211 -1.79931e-18)
(0.0021105 -0.0121948 -1.53894e-17)
(0.00178435 -0.0122648 -1.50344e-18)
(0.00186277 -0.0119887 -1.26175e-18)
(0.000174588 -0.00020673 -5.45533e-18)
(0.000188484 -0.000197865 -1.52679e-19)
(0.000192193 -0.000197767 -5.0365e-18)
(0.000913952 0.00460037 1.13725e-18)
(0.00118617 0.00452797 -3.28227e-18)
(0.000919969 0.00436651 -1.13259e-18)
(0.101617 -0.0206304 1.7098e-17)
(0.105659 -0.0243554 -4.89494e-17)
(-0.0298216 0.00338138 7.01365e-17)
(-0.00668015 0.0332888 1.86136e-17)
(-0.00459029 0.0334547 1.86569e-17)
(4.63537e-05 -0.000425629 -5.13771e-19)
(3.2044e-05 -0.000417877 -8.23165e-19)
(3.80486e-05 -0.000580482 2.04409e-19)
(3.1452e-05 -0.000594502 -9.708e-19)
(5.14348e-05 -0.000599061 -2.57968e-19)
(0.000141505 8.97921e-05 -6.05082e-19)
(0.102864 0.0126816 2.24291e-17)
(0.104938 0.0116086 1.37651e-17)
(-0.0266206 0.0019035 2.07422e-17)
(-0.0292861 0.00251188 3.68504e-17)
(-0.0282757 0.00649455 1.89004e-17)
(-0.0195877 0.00223582 2.73479e-17)
(0.0584287 0.197636 9.88607e-18)
(0.0513859 0.185561 -1.08589e-17)
(0.00116813 0.0010414 1.41514e-19)
(0.00112137 0.000947719 2.55247e-19)
(0.0010704 0.00106364 -2.67461e-19)
(0.0130514 -0.0642246 -4.03088e-17)
(0.0025693 -0.0616021 -2.31635e-17)
(0.00976742 -0.0703195 -3.67802e-18)
(0.00010883 -0.0101945 1.74382e-17)
(0.000280851 -0.0105478 -1.87164e-17)
(0.000561444 -0.0100943 -1.54367e-17)
(0.000700942 -0.00343872 4.66724e-18)
(0.000567879 -0.00346869 -8.40656e-19)
(0.000587302 -0.00333795 7.68828e-18)
(-0.00126247 -2.09327e-06 1.45184e-19)
(-0.00121023 8.40245e-05 -2.16394e-18)
(-0.00116225 -5.46438e-06 3.66698e-19)
(0.00201594 -0.00190525 -3.8301e-18)
(0.00193786 -0.00183328 6.7311e-19)
(0.00188026 -0.00195129 3.03137e-20)
(-0.000587049 -0.0114867 -4.54213e-19)
(-0.000682286 -0.0116301 -1.74904e-17)
(-0.000324313 -0.011696 7.11473e-17)
(-8.94693e-05 0.00021519 -1.89893e-20)
(-0.00010246 0.000223487 1.33352e-19)
(-8.91877e-05 0.000226128 -2.23077e-19)
(0.000346018 -0.000203637 -1.8384e-18)
(0.000346717 -0.000177509 -4.77284e-18)
(2.90919e-05 -0.000424168 -1.07105e-18)
(3.20747e-05 -0.000412737 1.10373e-18)
(2.33781e-05 -0.000369289 -2.68163e-19)
(0.000399246 -0.00136855 -7.89332e-18)
(0.000407194 -0.00144027 5.01888e-18)
(0.000448413 -0.00138795 1.30869e-18)
(-0.00051253 0.000498225 -7.53443e-19)
(-0.000535555 0.000456741 5.65547e-19)
(-0.000500632 0.00044906 -3.8435e-19)
(-0.0017413 0.00923421 1.74602e-18)
(-0.00117351 0.00947822 3.59464e-18)
(-0.00161604 0.00992151 -1.9345e-18)
(-0.00300165 0.00538174 3.01526e-18)
(-0.0029507 0.00573695 9.35738e-19)
(-0.00331068 0.00548826 7.94015e-18)
(0.00626466 -0.0618801 -1.62427e-17)
(0.00419424 -0.0631342 2.75589e-18)
(0.00524259 -0.0613611 -1.548e-17)
(5.62134e-05 -0.00096687 -8.86249e-18)
(9.00436e-05 -0.00100904 -9.0057e-18)
(8.99538e-05 -0.000937571 1.56316e-18)
(0.00436632 0.00567282 3.36351e-18)
(0.00401612 0.00556888 6.32657e-18)
(0.00433117 0.00527819 -2.63231e-18)
(-0.00114851 0.00210905 -7.69716e-19)
(-0.00118275 0.00226876 9.77256e-19)
(0.00115352 -0.00171396 -4.10811e-18)
(0.0010675 -0.00172478 6.53307e-18)
(0.00113403 -0.00166146 -3.82011e-18)
(0.00498351 -0.0132534 -2.48277e-18)
(0.00443023 -0.013246 3.90293e-18)
(0.00474368 -0.0138087 -2.79535e-18)
(0.0100709 0.0137287 7.38894e-19)
(0.00146209 -0.0369189 1.78502e-17)
(-0.00218364 -0.0374195 7.82326e-18)
(-3.87769e-05 0.000171158 -2.00622e-20)
(-4.00832e-05 0.000161416 -4.60406e-20)
(-2.81305e-05 0.00015746 1.6249e-19)
(0.0204258 -0.0313769 4.38883e-17)
(0.0171248 -0.029669 2.25985e-17)
(0.00280858 -0.00128964 2.44207e-18)
(0.00296364 -0.00133543 -1.10279e-18)
(-0.0270068 0.0041037 -8.14977e-20)
(-0.0295712 0.0050758 6.42552e-19)
(-0.0289319 0.00233633 -7.86868e-19)
(0.000495343 0.000894753 3.27975e-19)
(0.000462479 0.000976808 -6.93781e-20)
(0.0227471 -0.00184781 -3.82567e-17)
(0.0214842 -0.00125643 9.96974e-18)
(9.93861e-05 -0.000575563 2.96027e-18)
(9.82714e-05 -0.000589945 -2.61946e-18)
(0.000858992 -0.00721956 -1.42309e-18)
(0.000730527 -0.00698613 4.53919e-17)
(0.000544499 -0.00728824 -1.04489e-17)
(0.0116084 0.00987466 1.18338e-17)
(0.012109 0.00913784 6.65714e-18)
(-0.000470716 0.000519485 -3.15513e-20)
(-0.00050574 0.000552739 1.16363e-18)
(-0.00164212 -0.01161 1.67387e-17)
(-0.00208177 -0.0118027 -5.08727e-17)
(-0.00186001 -0.0120426 -5.361e-17)
(0.000209502 -0.0146816 -1.08468e-17)
(0.0101954 -0.010029 5.02282e-17)
(-0.00335949 -0.00518983 -1.14075e-17)
(0.00926314 0.00310252 -2.21849e-17)
(0.0089172 0.0036272 -2.2495e-17)
(0.00050829 -0.000261365 -1.64091e-18)
(0.000476924 -0.000259023 -7.96121e-19)
(0.000510815 -0.000310733 3.12365e-19)
(0.00340587 0.0179572 -8.79653e-18)
(0.00373181 0.0170862 9.53461e-18)
(0.00453735 0.0177496 1.98557e-18)
(-0.0273616 0.0608054 -1.9967e-17)
(-0.0219252 0.0472389 8.93535e-18)
(-0.0103968 0.0585614 -3.43418e-17)
(0.00132853 -0.00709808 4.33524e-18)
(0.00107202 -0.00717288 -2.92589e-17)
(0.00121669 -0.00689764 4.41727e-17)
(0.00136851 -0.00728675 4.82257e-17)
(0.00153247 -0.00704434 1.66436e-17)
(0.00132488 -0.0648211 -2.0428e-18)
(0.00133585 -0.0640916 -2.51849e-17)
(6.69551e-05 -0.0645747 -6.25965e-17)
(-0.00232096 0.0432953 -3.09613e-18)
(-0.0042373 0.0452224 -4.84794e-18)
(-0.000759798 0.0455696 9.88495e-19)
(-0.0251233 0.00534914 -2.04938e-18)
(-0.024803 0.00295878 -6.12476e-18)
(-0.00759253 0.014114 2.39178e-18)
(-0.00636557 0.0143299 -5.77788e-18)
(0.000155048 -0.0100486 6.70681e-17)
(3.30603e-05 -0.0101287 2.52253e-17)
(-0.000707709 -4.35579e-05 1.69702e-18)
(-0.000724998 -0.000109778 2.81813e-19)
(-0.000675857 -0.000104634 -2.98292e-19)
(0.00794341 -0.056972 -2.12692e-17)
(-0.0161119 -0.00544435 -4.02731e-18)
(-0.015969 -0.00422823 -2.08413e-17)
(-7.79539e-05 0.000201691 -2.10582e-19)
(-9.32258e-05 0.000206559 6.76126e-20)
(1.61183e-05 -0.000344268 1.6298e-18)
(1.43583e-05 -0.000349936 3.42097e-19)
(1.0604e-05 -0.000291084 9.00333e-19)
(0.0700623 0.0163268 4.71331e-17)
(0.061162 0.0185597 1.84657e-17)
(0.000510983 -0.000725683 -2.80662e-19)
(0.000525955 -0.000697821 -2.31318e-18)
(0.000543256 -0.00076283 -1.50118e-18)
(8.58641e-06 -8.09368e-05 -2.48936e-18)
(1.13156e-05 -0.000100764 -5.35485e-19)
(0.00479972 0.0325907 4.16558e-18)
(0.00624362 0.0323531 5.89646e-18)
(0.0050561 0.0312226 -1.53796e-17)
(0.00753807 0.0321265 -1.92273e-17)
(0.00797777 0.0308134 -5.15174e-18)
(0.00907627 0.0318697 -2.37755e-17)
(0.00127482 0.00104642 -9.64701e-20)
(0.000705404 0.00470647 3.1506e-18)
(0.000941043 0.00487767 -2.31452e-18)
(0.00473744 0.00576915 2.08549e-18)
(0.004383 0.00605981 3.42105e-18)
(0.00598573 -0.00391049 -1.54988e-18)
(0.00564319 -0.00398759 1.49256e-18)
(0.00590201 -0.00424285 -1.8874e-18)
(6.77586e-05 0.0050429 -4.158e-18)
(-6.56249e-05 0.00479429 -4.44524e-18)
(-0.000235191 0.004981 -1.95076e-17)
(0.000165489 -0.000213245 1.36766e-18)
(0.0103401 -0.000117053 -7.86803e-18)
(0.0102991 0.000330713 -3.04371e-18)
(0.00983176 5.09017e-05 -4.56838e-18)
(0.00126998 -0.0644631 4.54912e-18)
(0.000711791 -0.0648974 2.34939e-17)
(0.00172131 -0.0637579 1.62734e-17)
(-0.00043282 0.000538665 6.85615e-19)
(-0.000441241 0.000488214 -1.88369e-18)
(0.00556302 -0.0296018 -1.61198e-17)
(0.00755454 -0.0358598 -2.0535e-17)
(-0.00332755 -0.0325775 -2.64352e-17)
(6.19486e-06 -0.000137806 1.2794e-19)
(8.01526e-06 -9.56309e-05 -7.76179e-21)
(6.93808e-05 -0.000371263 -1.61559e-18)
(5.96456e-05 -0.000355503 3.1835e-18)
(6.80796e-05 -0.000385113 1.44046e-18)
(-3.02085e-05 2.77265e-05 8.31623e-20)
(-2.02875e-05 3.07851e-05 -2.54478e-19)
(-2.89237e-05 3.3476e-05 -3.6596e-21)
(-0.00147604 -0.0652144 -1.51645e-18)
(-3.07175e-05 -0.000252566 1.19425e-18)
(-2.33281e-05 -0.000248352 7.69347e-19)
(-1.32143e-05 -0.00025318 2.11839e-18)
(0.0438536 -0.00181311 -4.63171e-17)
(0.0376522 -0.0053824 -3.5653e-17)
(0.0413096 -0.0334744 -7.93028e-18)
(0.0454223 -0.029678 1.49611e-17)
(0.0470618 -0.0329638 3.42384e-17)
(0.000110056 -0.00022163 8.58625e-19)
(0.000110839 -0.000234755 -1.01322e-18)
(0.000120635 -0.000217243 -3.71869e-18)
(9.05144e-05 -0.000563955 -1.40193e-18)
(0.000102576 -0.000560118 -1.0994e-18)
(0.0360475 0.0218084 5.35424e-17)
(0.0360121 0.0223313 4.8007e-17)
(0.0378918 0.0187933 -6.00901e-18)
(-3.72802e-05 2.02172e-05 -3.2238e-19)
(-4.762e-05 2.16933e-05 2.68781e-20)
(9.67513e-06 -0.000203501 -5.26296e-19)
(9.73389e-06 -0.000199416 1.19417e-18)
(1.40095e-05 -0.000251039 5.45261e-18)
(-6.78592e-05 2.58743e-05 5.46362e-20)
(-6.19401e-05 2.57209e-05 -2.2118e-20)
(-7.35992e-05 1.60519e-05 1.20249e-20)
(0.0367367 -0.0355076 2.48521e-17)
(0.0384096 -0.038267 -9.7285e-18)
(0.00252204 -0.0109766 1.012e-17)
(0.00217167 -0.0109636 -2.12523e-17)
(0.00181493 -0.00292225 1.54081e-18)
(0.00175562 -0.00281633 9.34936e-18)
(0.00191733 -0.00281478 4.55547e-18)
(0.00633803 -0.0136352 2.33069e-18)
(0.00669356 -0.0129133 7.48918e-19)
(0.00711132 -0.0136648 6.17506e-18)
(0.00709401 0.0265904 9.45892e-18)
(0.00758637 0.0255005 5.0469e-19)
(0.00626967 0.0256018 1.97448e-17)
(0.0152237 0.192385 -1.1381e-17)
(0.00175221 -0.062563 -1.60602e-18)
(0.000712878 -0.0633242 3.12804e-18)
(0.0012174 -0.0593607 5.61669e-18)
(-0.000755374 0.00241069 -7.91125e-19)
(-0.000921396 0.00249348 -7.10977e-19)
(-0.0186152 -0.066134 5.86114e-17)
(-0.00432092 -0.0665342 -8.1202e-18)
(-0.0206828 -0.0768501 1.00397e-17)
(7.15967e-06 -8.44042e-05 5.75463e-19)
(7.56254e-06 -0.000126172 -1.45347e-19)
(5.20816e-06 -8.22801e-05 -1.61462e-18)
(-0.04697 0.0645865 2.68651e-18)
(-0.0346768 0.0779729 -2.58836e-18)
(-0.00283572 -0.0158165 -3.62254e-17)
(0.000155189 -0.00963804 -3.36223e-17)
(-0.00524838 -0.00806408 -2.40435e-17)
(0.00183578 -0.0599483 -1.07262e-17)
(0.00574578 -0.0597194 2.37592e-17)
(0.000713745 -0.0590787 -6.55122e-18)
(0.0763242 -0.039427 1.87925e-17)
(-0.00245161 0.0415416 -2.8823e-18)
(-0.000650635 0.0422373 1.58699e-17)
(-0.00228398 0.00413339 2.45791e-18)
(-0.00232245 0.00443281 -2.02537e-19)
(0.00838238 0.0113592 1.20457e-17)
(0.00899645 0.0108483 3.25789e-18)
(-0.00262272 0.0052416 -6.72427e-18)
(-0.00299622 0.00503687 -6.2321e-18)
(-0.00131889 -0.00010119 -9.17638e-19)
(-0.00134332 -0.000223683 3.53707e-19)
(-0.0012451 -0.00020291 4.42671e-19)
(-0.00174634 0.00190492 1.26104e-18)
(-0.00188165 0.00199634 2.17798e-18)
(-0.00190038 0.00179103 -2.66163e-18)
(0.00562132 -0.0133184 -2.62153e-18)
(0.00526256 -0.0127029 -4.6872e-19)
(0.00205431 -0.00335937 1.60749e-18)
(0.00190336 -0.00346603 -4.5163e-18)
(8.2478e-05 -0.000570282 -1.07709e-18)
(7.96387e-05 -0.000552411 -1.94717e-18)
(9.13537e-07 -1.13529e-05 1.92359e-18)
(1.14076e-07 -5.19213e-06 7.69313e-19)
(1.79022e-07 -5.66703e-06 6.38231e-20)
(-4.89052e-05 0.000183898 1.7511e-19)
(-3.63729e-05 0.000178852 6.88761e-20)
(-0.00017603 -6.09621e-07 -1.79987e-19)
(-0.000177134 -2.29954e-06 -5.56413e-20)
(-0.000176584 -1.77171e-06 5.72015e-20)
(-0.000426356 0.000588618 1.24515e-18)
(-0.000457155 -0.0547531 2.52381e-18)
(0.000781903 -0.0565339 -8.0438e-18)
(-0.00105414 -0.0552692 2.60003e-18)
(0.000182775 9.46979e-05 2.0173e-18)
(0.000175008 8.73663e-05 1.12799e-18)
(0.000175012 9.62859e-05 3.98182e-19)
(0.000430455 0.000774905 -1.5001e-19)
(0.000436921 0.000700895 -9.31497e-20)
(0.000483062 0.000730259 1.23793e-20)
(-0.000168854 -7.01942e-07 -1.82314e-20)
(-0.000176239 -1.02239e-06 3.71018e-19)
(-0.000170223 -4.82365e-06 -4.69587e-19)
(0.000251853 0.000109288 -1.08047e-18)
(0.000248921 0.00010899 1.91835e-18)
(0.00164454 -0.0632067 -1.13874e-17)
(0.00152003 -0.0642066 2.12892e-17)
(0.000705991 -0.0679437 -1.68332e-18)
(0.0140511 -0.0136725 9.23876e-18)
(0.0150417 -0.0155473 1.64704e-17)
(-0.00138707 -0.00796188 2.08448e-18)
(-0.00113295 -0.0078149 3.64962e-18)
(-0.00100902 -0.00808991 -2.64183e-17)
(0.00049479 -0.00242346 -6.86435e-18)
(0.000574984 -0.00249648 -1.59539e-19)
(0.000419376 -0.00251794 4.29729e-18)
(-0.00497801 0.0244883 5.98e-18)
(-0.00526809 0.0230343 -1.65075e-19)
(-0.000185145 -5.42276e-08 -3.4917e-19)
(0.171124 0.0788014 -5.82788e-18)
(0.0848541 0.0883202 2.74312e-18)
(0.137925 0.078335 5.85175e-20)