/*--------------------------------*- C++ -*----------------------------------*\
| =========                 |                                                 |
| \\      /  F ield         | OpenFOAM: The Open Source CFD Toolbox           |
|  \\    /   O peration     | Version:  v2012                                 |
|   \\  /    A nd           | Website:  www.openfoam.com                      |
|    \\/     M anipulation  |                                                 |
\*---------------------------------------------------------------------------*/
FoamFile
{
    version     2.0;
    format      ascii;
    class       surfaceVectorField;
    location    "100";
    object      Uf;
}
// * * * * * * * * * * * * * * * * * * * * * * * * * * * * * * * * * * * * * //

dimensions      [0 1 -1 0 0 0 0];


internalField   nonuniform List<vector> 
14907
(
(0.995991 0.00685693 7.40662e-21)
(0.996039 0.00723219 9.1118e-23)
(0.995726 0.00703693 3.6097e-21)
(0.998436 0.00144539 -6.96649e-22)
(0.99828 0.00160457 -2.56423e-21)
(0.998428 0.00172034 7.31072e-21)
(1.02437 0.0130142 0)
(1.02489 0.0132372 0)
(1.02478 0.0125358 -2.39436e-21)
(1.0085 0.000102758 1.15202e-21)
(1.00838 0.000126321 1.67939e-22)
(0.908266 0.173077 -5.76225e-22)
(0.858161 0.165771 -3.75654e-20)
(0.990989 0.162271 -1.97888e-20)
(0.998976 0.00159075 -3.52694e-22)
(0.999039 0.00144835 -1.25454e-21)
(0.998888 0.00148019 1.68978e-21)
(0.926426 -0.339634 -1.06332e-20)
(0.938748 -0.35302 -6.53178e-21)
(0.96661 -0.323418 6.56182e-22)
(1.0835 -0.234955 -3.51111e-20)
(1.09364 -0.234321 -6.36029e-21)
(1.08121 -0.247723 -7.88363e-20)
(1.02087 0.0121752 4.83252e-22)
(1.02071 0.012643 -1.19847e-21)
(1.02026 0.0122098 -1.01317e-21)
(1.00079 0.00290296 -1.01983e-21)
(1.00075 0.00302398 3.49933e-21)
(1.00087 0.00315387 1.15771e-21)
(-0.301364 0.0646325 -1.41498e-19)
(-0.323503 0.0591622 -4.59852e-20)
(-0.296449 0.0692435 -1.54569e-21)
(1.01129 0.000248712 3.80551e-22)
(1.00835 7.09603e-05 1.67803e-22)
(1.01216 0.00212994 5.04288e-22)
(1.012 0.00229425 -5.56813e-22)
(1.0123 0.00238766 -5.74727e-22)
(1.01276 0.00100274 -3.26239e-22)
(1.01258 0.000938868 8.39159e-22)
(1.0126 0.00116056 -6.86853e-22)
(0.9641 0.045282 -3.54556e-22)
(0.965656 0.043626 -7.00441e-21)
(0.963155 0.0427798 1.92545e-20)
(0.999117 0.00299201 -2.61311e-21)
(0.999126 0.00268088 3.11821e-22)
(0.999234 0.00281542 3.14367e-21)
(0.999147 0.00331285 -1.67758e-21)
(0.999012 0.00320952 2.70393e-21)
(1.00003 0.000256404 -2.64327e-22)
(1.00003 0.000266482 0)
(1.00004 0.000324388 0)
(0.995967 0.00645386 8.97704e-22)
(0.996282 0.00669509 1.18628e-21)
(0.68826 0.272444 4.80745e-20)
(0.712604 0.284094 -2.99023e-20)
(0.713576 0.262671 -1.14996e-20)
(1.00244 0.00366806 -1.56654e-21)
(1.00243 0.00383094 4.1605e-22)
(1.0026 0.00384702 -6.4074e-21)
(0.998581 -0.146198 0)
(1.00486 -0.137318 9.16984e-21)
(1.00971 -0.146685 1.00382e-20)
(1.01139 0.000487355 -2.87229e-22)
(1.01137 0.000497276 5.18354e-23)
(1.01174 0.000657362 5.57961e-22)
(1.01044 0.00401152 -5.10915e-22)
(1.01072 0.00408538 -1.03963e-21)
(1.01066 0.00379931 0)
(0.998577 0.00133764 3.10809e-21)
(0.998454 0.00121596 -3.0669e-21)
(1.05644 0.00686148 8.24183e-21)
(1.05667 0.00494562 1.39332e-20)
(1.05485 0.00591208 -9.66953e-21)
(0.998919 -0.000223305 2.30988e-21)
(0.999024 -0.000204077 6.08057e-21)
(0.999051 -3.01512e-05 2.72734e-21)
(0.994861 0.0450416 -2.3968e-22)
(0.993314 0.0443549 2.36767e-21)
(0.994877 0.0433237 -2.79539e-21)
(1.01475 0.0175999 2.81544e-23)
(1.01429 0.0180375 -1.3633e-23)
(1.01425 0.0173237 2.38353e-23)
(0.999922 0.038333 -5.99859e-24)
(1.0012 0.0388563 6.97483e-23)
(1.00013 0.0399903 1.6087e-22)
(0.997003 0.000403352 -4.40741e-21)
(0.996761 0.000448752 -5.35064e-21)
(0.996973 0.000121245 3.81494e-22)
(-0.13735 0.0379596 7.20228e-20)
(-0.137834 0.0496029 6.29162e-20)
(-0.130008 0.0368197 7.83298e-20)
(1.00084 0.0027824 -3.87827e-21)
(1.00074 0.00264958 0)
(1.01415 0.033349 0)
(1.01443 0.0345787 0)
(1.013 0.0338147 0)
(1.05206 0.0373727 2.59305e-21)
(1.05195 0.0350636 -1.66637e-20)
(1.05 0.0362179 -8.05458e-21)
(1.01016 0.00395593 4.20074e-22)
(1.01021 0.00425057 -2.23063e-22)
(1.05553 0.0104808 -8.99506e-21)
(1.05612 0.00849591 0)
(1.05398 0.00944468 0)
(1.05034 -0.00963127 0)
(1.04941 -0.00827942 -7.85542e-21)
(1.05109 -0.00808989 9.74265e-21)
(1.00985 0.00384612 -5.29212e-22)
(1.01011 0.00362032 2.3616e-22)
(1.008 0.0979534 -7.0762e-22)
(1.01064 0.100259 6.70271e-22)
(1.00588 0.100314 -7.48809e-22)
(0.667953 0.27619 8.37796e-20)
(0.673355 0.254321 -8.86619e-21)
(0.971723 0.0422103 1.56957e-22)
(0.970663 0.0440609 -4.62903e-21)
(0.972936 0.044056 -4.80835e-21)
(0.911886 -0.324033 -1.05886e-20)
(0.856918 -0.363423 -2.21382e-20)
(0.991732 0.0247661 -4.05828e-21)
(0.992392 0.0257318 8.34938e-22)
(0.992695 0.0243407 -2.369e-21)
(0.973412 0.180508 4.07325e-20)
(0.814835 0.181429 8.17542e-20)
(1.05867 -0.0417225 5.22352e-21)
(1.05533 -0.0401216 0)
(1.05809 -0.0374443 0)
(0.979001 0.0280757 -3.51282e-21)
(0.979246 0.0292886 -3.87424e-21)
(0.977984 0.0286899 0)
(1.011 -0.0509092 3.31991e-21)
(1.01476 -0.0479624 3.4156e-21)
(1.00997 -0.045433 1.47664e-21)
(1.05407 0.019222 1.46556e-21)
(1.05606 0.0200745 -2.85713e-22)
(1.05552 0.0179762 -1.43092e-20)
(1.03057 -0.0188369 1.20759e-21)
(1.02994 -0.0176255 -2.46246e-21)
(1.0314 -0.0175615 1.25209e-21)
(1.00026 0.000296131 1.02132e-21)
(1.00029 0.000353461 -7.05871e-22)
(1.00032 0.00031789 3.44523e-21)
(1.02762 0.00245229 -4.48824e-22)
(1.02794 0.00241994 -1.10608e-21)
(0.964572 0.0336542 0)
(0.962559 0.0341364 5.6105e-21)
(0.963269 0.0319584 0)
(1.03022 0.00228386 -5.92186e-22)
(1.03037 0.00264658 1.00694e-21)
(1.03064 0.00217271 -6.29579e-22)
(1.05716 0.0112421 -7.38796e-21)
(1.05507 0.0121215 3.29262e-21)
(0.998893 0.00180768 -1.75876e-22)
(0.999018 0.00169775 8.60407e-21)
(1.01514 0.0173327 3.5815e-23)
(1.01529 0.0180022 -6.88468e-23)
(0.978779 0.0265983 1.04922e-21)
(0.980167 0.0274192 -8.38722e-22)
(1.01521 0.032866 -5.24322e-22)
(1.01392 0.0322099 -1.60725e-22)
(0.966365 0.0327594 8.28044e-21)
(0.966012 0.0347271 1.84551e-21)
(0.997697 0.000806857 -6.17743e-22)
(0.997818 0.0005243 3.40188e-21)
(0.99759 0.000618931 7.6935e-21)
(0.996948 0.00265541 -3.74595e-21)
(0.997121 0.00279456 3.85571e-21)
(0.997173 0.00243519 7.87649e-21)
(1.05202 0.0393855 7.77649e-21)
(1.05412 0.0383817 8.6208e-21)
(1.02388 0.0127035 -1.61608e-22)
(1.02386 0.0133514 3.05639e-21)
(0.970527 0.010289 1.27211e-21)
(0.969362 0.0108621 -8.7262e-21)
(0.970366 0.011726 -4.66617e-21)
(1.01613 0.0323547 -4.99276e-22)
(1.01622 0.0313421 -3.45308e-22)
(1.01739 0.0318797 -1.76056e-21)
(0.977133 0.00658623 1.14593e-20)
(0.976577 0.00752268 1.47524e-20)
(0.977756 0.0072146 8.63269e-21)
(0.744175 0.197375 -3.5933e-20)
(0.747702 0.178043 1.66101e-20)
(0.762724 0.189665 -3.22741e-20)
(-0.147314 -0.037702 -7.08319e-20)
(-0.0540514 -0.0611111 -3.36936e-20)
(-0.086937 -0.0460225 2.04778e-19)
(0.99888 0.0203833 -2.1629e-21)
(0.998837 0.0211607 -2.90084e-21)
(0.998217 0.0206451 2.97809e-21)
(1.03014 0.00178953 -1.35146e-22)
(1.02978 0.00226681 -1.64646e-21)
(0.659824 0.294082 1.66361e-22)
(0.990769 0.0253284 -1.91723e-21)
(0.991044 0.0239339 -1.76984e-21)
(0.875974 0.0612409 -1.755e-20)
(0.879192 0.0553277 3.4034e-20)
(0.871075 0.0548111 2.7793e-21)
(0.977741 0.00374086 4.97586e-21)
(0.978231 0.00456232 0)
(0.978753 0.00368848 -7.86708e-21)
(1.01103 0.00414541 1.03883e-21)
(1.01078 0.0043799 -9.07425e-22)
(0.736417 0.15263 -6.56064e-20)
(0.830949 0.150409 5.97068e-20)
(0.995961 0.00613323 1.52612e-21)
(0.995952 0.00579377 -9.88567e-22)
(0.996233 0.00596223 9.78987e-21)
(0.911261 0.0797944 1.52155e-20)
(0.910082 0.0740423 7.32191e-21)
(0.915544 0.0771044 -6.24711e-21)
(1.00006 -0.3454 0)
(0.94943 -0.362507 -1.24023e-20)
(0.951166 -0.366818 -1.24538e-20)
(1.05258 0.0203685 1.4547e-20)
(1.05231 0.0182206 -2.96182e-21)
(1.05819 0.193982 -9.59643e-20)
(1.14817 0.184753 8.87887e-20)
(1.00355 0.0286713 -3.94497e-22)
(1.00395 0.0280193 -4.42285e-22)
(1.00438 0.0289179 7.56207e-23)
(0.973978 0.0387749 -1.12064e-20)
(0.973209 0.0370414 -6.54139e-21)
(0.975186 0.0371364 1.86833e-22)
(0.977669 0.00555183 -3.76494e-21)
(0.976474 0.00580601 -5.00265e-21)
(1.00004 0.000867449 -6.39564e-22)
(1.00003 0.000890512 2.16173e-21)
(1.00002 0.000762074 9.88171e-21)
(0.99637 0.00867037 -2.41963e-22)
(0.996196 0.00835391 -4.50959e-21)
(0.996036 0.00888759 -9.85407e-22)
(1.18629 0.244365 0)
(1.17513 0.239901 4.01518e-20)
(1.18578 0.233328 0)
(0.987207 0.0145168 -8.51369e-21)
(0.987478 0.0152297 -1.36985e-20)
(0.98668 0.0150381 7.27699e-21)
(0.996584 0.00918227 1.10307e-22)
(0.996763 0.00859463 3.67433e-23)
(1.02313 0.0248739 0)
(1.02364 0.0241169 1.43037e-21)
(1.02248 0.0241385 -5.50643e-23)
(1.13828 0.209704 -1.31879e-21)
(0.972313 0.196487 -8.79867e-20)
(0.996164 0.0458362 1.68399e-21)
(0.994629 0.0469687 -1.68842e-21)
(1.02747 0.00274527 5.73473e-22)
(0.998604 0.0379262 -8.02662e-23)
(0.999754 0.0369473 -7.97738e-23)
(1.01049 0.0228494 -1.2304e-22)
(1.00987 0.0230914 -5.62908e-22)
(1.01057 0.0234968 -2.88119e-22)
(0.998575 0.00624659 0)
(0.99844 0.00605787 4.46845e-22)
(0.998695 0.00599818 0)
(1.0059 0.022785 1.88768e-22)
(1.00628 0.0222101 -9.79069e-22)
(1.00557 0.0221225 7.25695e-24)
(1.00537 0.0942181 4.23601e-22)
(1.01053 0.094463 6.40677e-23)
(1.01786 0.0160329 -4.90059e-23)
(1.01841 0.0163225 -7.4924e-22)
(1.01814 0.015689 0)
(1 9.38464e-05 1.16428e-21)
(1 9.3663e-05 7.4809e-21)
(1.19805 0.15565 0)
(1.19236 0.164168 2.14541e-20)
(1.20486 0.163063 0)
(1.05894 -0.247456 -1.98042e-20)
(1.04462 -0.255857 6.09626e-21)
(1.04757 -0.241191 -4.43958e-21)
(1.00003 0.00101227 -3.90594e-21)
(1.00003 0.000878454 -4.84839e-21)
(0.989263 0.0417685 -2.9887e-21)
(0.988055 0.0407121 -4.60171e-22)
(0.989625 0.0400547 3.07738e-21)
(1.05232 0.176212 5.4151e-21)
(1.06008 0.176223 -8.88828e-21)
(1.05554 0.184699 0)
(0.994097 0.00588018 2.82476e-21)
(0.993848 0.00617864 -4.15951e-21)
(0.994181 0.0063316 9.53607e-21)
(0.998733 0.00644585 -5.09697e-21)
(0.998466 0.00650524 0)
(1.00229 0.00348486 2.70566e-21)
(1.00248 0.00348158 2.6402e-21)
(1.01751 0.00228797 -4.30218e-23)
(1.01721 0.00222361 8.86676e-23)
(1.00734 0.00107242 1.94007e-21)
(1.00709 0.000920385 -2.47642e-22)
(1.00708 0.00122131 -3.67153e-22)
(1.00162 0.0160788 -2.5013e-22)
(1.00206 0.016552 4.68347e-21)
(1.00156 0.0168194 1.39831e-21)
(1.03393 0.0605938 0)
(1.03213 0.0620118 2.49553e-21)
(1.03146 0.0596939 2.64536e-22)
(-0.19223 -0.0229788 -3.5216e-20)
(-0.218678 -0.029302 -1.31116e-19)
(0.971738 0.0099922 1.92023e-20)
(0.970808 0.00902739 -3.55563e-21)
(0.999881 0.014476 1.78907e-21)
(0.999858 0.0150229 2.12602e-21)
(0.9994 0.0147038 0)
(0.992317 0.000419522 -2.74758e-21)
(0.99274 0.000445937 3.21077e-21)
(0.992527 0.000796951 -2.1491e-21)
(0.995687 0.00629057 -6.20332e-21)
(1.0113 0.0225595 -2.17767e-22)
(1.01052 0.0221368 6.61726e-22)
(0.128125 0.0770134 1.27739e-20)
(0.0825649 0.084223 4.14252e-20)
(0.139358 0.0915764 -4.7208e-20)
(0.986953 0.0137721 -5.61564e-21)
(0.987798 0.0139126 -5.53075e-21)
(1.0696 -0.241694 0)
(1.07599 -0.227771 0)
(0.994473 0.0278415 -9.45954e-22)
(0.995284 0.0285193 4.11092e-21)
(0.995355 0.0273289 -5.1721e-22)
(0.994781 -0.000669964 -4.92734e-21)
(0.994831 -0.000370102 -6.08097e-21)
(0.995084 -0.000566291 2.22539e-23)
(1.2034 0.144541 0)
(1.19094 0.146643 4.44397e-20)
(1.00257 0.0285873 -1.36105e-21)
(1.00327 0.0298374 6.68653e-22)
(1.10288 -0.236885 2.94458e-20)
(1.10174 -0.226182 -1.43206e-20)
(1.0601 0.0308587 1.14413e-20)
(1.06023 0.0289908 -4.82262e-21)
(1.06204 0.0302204 1.37576e-20)
(1.04778 0.170467 1.24772e-21)
(1.04365 0.177628 5.29556e-21)
(0.996759 0.0095859 -2.21863e-21)
(0.996964 0.0100352 -4.67393e-21)
(0.99714 0.0094629 2.23089e-21)
(0.905698 0.0821187 -1.46781e-21)
(0.912122 0.0853843 -1.88384e-20)
(0.982126 0.0134632 6.39356e-21)
(0.982074 0.0145098 5.06406e-21)
(0.981133 0.0136806 -7.40578e-21)
(-0.0867258 0.126018 4.99146e-20)
(-0.134345 0.114433 0)
(-0.126402 0.113463 4.37113e-20)
(1.15882 -0.144281 4.38636e-20)
(1.14825 -0.140362 2.77943e-20)
(1.15001 -0.15412 3.75887e-20)
(1.01748 0.0165084 9.60126e-22)
(1.01725 0.0158036 -4.56783e-22)
(1.1178 0.144387 2.3534e-20)
(1.11358 0.137387 -8.41488e-21)
(1.12229 0.137706 3.03757e-20)
(-0.000657604 0.0602358 -8.82142e-21)
(-0.0369527 0.0592112 -1.81961e-19)
(-0.00500092 0.044401 -7.10739e-20)
(1.02384 0.0256618 -1.85039e-21)
(1.02263 0.025569 -1.0179e-21)
(1.00666 -0.0541417 3.93831e-21)
(1.0126 -0.0562313 5.73669e-21)
(1.19632 0.249121 0)
(1.18557 0.256357 2.43556e-20)
(0.9848 0.0418868 9.14446e-23)
(0.983647 0.0406622 -3.73551e-21)
(0.982981 0.0425014 -4.73783e-21)
(0.992069 0.000136645 -4.84584e-21)
(0.991899 0.000540476 9.01205e-22)
(0.983754 0.0361981 7.3434e-22)
(0.98474 0.0374428 -3.42996e-21)
(0.98531 0.0357821 -3.55696e-21)
(1.26515 0.09427 0)
(1.26141 0.107801 -2.98114e-20)
(1.25271 0.0953746 -5.98884e-20)
(1.02599 0.00381413 -1.45939e-22)
(1.0258 0.00350519 -6.54696e-22)
(1.02556 0.00381699 1.98055e-22)
(1.00123 0.0158529 3.96691e-22)
(1.0017 0.0156216 -1.60417e-21)
(1.13903 0.097497 -1.0299e-20)
(1.13231 0.0966709 6.8384e-21)
(1.13546 0.104133 1.81854e-20)
(1.02009 0.00330507 -1.77177e-22)
(1.01984 0.00344652 -1.63794e-22)
(1.02019 0.00360552 6.57455e-23)
(1.00626 0.0234358 -1.39174e-21)
(1.00551 0.0233708 0)
(1.01241 0.0697736 3.81968e-21)
(1.00953 0.0702154 1.9016e-22)
(1.01101 0.0673571 2.32259e-22)
(1.02192 0.0119334 -8.64079e-22)
(1.02193 0.0114204 9.52846e-22)
(1.02241 0.011749 -1.48962e-22)
(1.00002 0.000104363 5.23341e-21)
(1.00004 0.000135742 -4.41926e-22)
(1.00002 0.000105367 3.66612e-21)
(0.70588 -0.389449 3.74066e-21)
(0.800587 -0.370418 1.06947e-19)
(0.652713 -0.389672 -3.86013e-20)
(0.116096 0.127882 -4.15975e-20)
(0.0604435 0.126002 1.0457e-19)
(0.102619 0.121886 0)
(0.999551 0.000237232 7.79688e-21)
(0.999611 0.000142394 5.44223e-21)
(0.999624 0.000229438 5.34265e-21)
(1.01203 0.00194085 1.79007e-21)
(1.0123 0.0019855 1.21371e-21)
(0.958263 0.00556238 -1.60005e-20)
(0.960091 0.00611358 -8.47468e-21)
(0.959651 0.00413662 -1.4676e-22)
(0.99678 0.00252933 -9.70921e-21)
(0.99675 0.00287787 -7.59152e-21)
(1.11272 0.150444 0)
(1.12149 0.150664 7.99987e-21)
(0.181529 0.169438 7.02985e-21)
(-0.0744235 0.087622 4.27376e-20)
(-0.0590212 0.111927 -6.4854e-20)
(-0.350625 0.0356703 5.70646e-21)
(-0.348445 0.0330824 -8.68359e-20)
(-0.347852 0.0284478 8.98949e-20)
(1.1696 -0.0844763 -1.94161e-20)
(1.16005 -0.0846445 -2.16256e-20)
(1.16527 -0.095212 1.92675e-20)
(0.995982 0.00128733 0)
(0.996141 0.00143041 0)
(0.995872 0.00152923 0)
(1.02145 0.0120937 -4.39431e-22)
(1.02192 0.0124106 -1.7653e-21)
(1.0069 0.0300585 5.84799e-22)
(1.00651 0.0309036 -1.37796e-21)
(1.00746 0.0308507 -3.80863e-22)
(0.982241 0.0123129 0)
(0.983099 0.013218 0)
(0.963759 0.225968 6.71795e-22)
(0.96135 0.237597 5.51657e-22)
(0.973691 0.232153 4.80171e-22)
(0.579296 0.30652 5.9683e-20)
(0.640177 0.358466 9.55227e-20)
(-0.105887 0.0212608 -5.70688e-20)
(-0.0960759 0.0257782 -6.29058e-20)
(0.13005 0.135849 8.41314e-20)
(0.183211 0.13332 -9.11419e-20)
(1.03014 0.00380877 1.28564e-21)
(1.02965 0.00388789 -2.69339e-21)
(1.03003 0.00429194 -8.39491e-22)
(1.00259 0.0086173 -2.29226e-21)
(1.00275 0.00904016 -2.83876e-22)
(1.00293 0.00880523 2.34271e-21)
(1.27902 0.235334 1.59079e-19)
(1.16915 0.229103 1.12311e-19)
(0.724597 0.342972 -3.17142e-20)
(0.71674 0.311295 -5.50442e-20)
(0.69213 0.330893 7.17762e-20)
(0.917665 0.143584 8.57249e-21)
(0.925358 0.143792 6.94271e-21)
(0.921404 0.136281 2.79954e-20)
(0.631466 -0.169896 -2.46911e-20)
(0.704532 -0.193686 -2.22554e-20)
(0.604197 -0.209866 1.05456e-21)
(-0.24796 0.237044 0)
(-0.28571 0.167341 0)
(-0.220677 0.168382 0)
(0.993746 0.0271802 0)
(0.993016 0.0264499 2.35146e-21)
(0.993906 0.0259512 0)
(0.746897 0.218423 -3.99696e-20)
(0.725929 0.205891 1.76626e-22)
(1.05997 0.0793513 -2.72012e-21)
(1.05862 0.0756459 1.36547e-20)
(1.0561 0.079126 3.84593e-22)
(0.956318 0.00489908 -6.42061e-21)
(0.956761 0.00705722 -2.27203e-21)
(-0.116287 0.0427031 5.73982e-21)
(-0.0980545 0.0072522 -4.08334e-20)
(0.97595 0.00863363 3.77068e-21)
(0.976844 0.00934682 2.37896e-21)
(0.975374 0.00969899 3.42858e-21)
(1.05803 0.0317395 8.48924e-21)
(1.06017 0.0331964 -1.98665e-20)
(0.972794 0.0404448 2.21273e-21)
(0.970732 0.0404117 1.30529e-20)
(0.108595 0.0616587 -3.55824e-20)
(0.202895 0.0733131 3.3261e-21)
(1.23607 -0.131284 -4.41821e-21)
(1.22347 -0.136177 -3.99912e-20)
(1.22665 -0.121734 -6.90954e-20)
(1.01485 0.028791 -4.08637e-22)
(1.01431 0.0283507 5.47403e-22)
(1.014 0.0291546 6.32664e-22)
(-0.338745 0.00345479 1.36936e-19)
(-0.339359 0.00491633 1.46469e-19)
(-0.334787 -0.00224001 1.13428e-19)
(1.04024 0.0292173 -6.8651e-21)
(1.03878 0.0284021 -3.14228e-21)
(1.04028 0.027627 -1.14057e-20)
(0.837499 0.769339 7.62638e-21)
(0.827079 0.700228 4.87588e-21)
(0.77056 0.750063 5.3948e-21)
(0.982843 0.0351166 3.04371e-21)
(0.982046 0.0368221 9.30066e-21)
(0.581929 -0.41737 0)
(0.736688 -0.393867 -4.82474e-20)
(1.40104 0.253064 -2.60397e-20)
(1.3915 0.231974 5.75468e-21)
(1.0998 -0.0847361 8.44578e-21)
(1.10167 -0.0786308 2.82262e-20)
(1.10581 -0.0841905 2.18767e-20)
(1.54512 0.0565606 -8.94309e-20)
(1.53304 0.0461802 -8.70843e-20)
(1.52893 0.0786525 2.20242e-20)
(1.04813 0.0160323 0)
(1.04663 0.0159657 6.15473e-21)
(1.04748 0.0145642 -1.41572e-20)
(0.994792 0.005087 -2.14629e-21)
(0.994725 0.00545648 7.99865e-22)
(0.995076 0.00528922 -1.01934e-23)
(1.01193 0.00170672 -1.08939e-21)
(1.01174 0.00185369 6.44011e-22)
(1.02209 0.0460173 3.37117e-21)
(1.02362 0.0454233 -6.93338e-22)
(1.02324 0.0477525 1.55617e-21)
(0.894707 0.126 7.76394e-21)
(0.903151 0.128121 8.23801e-21)
(0.901331 0.12001 2.72997e-20)
(1.01566 0.0287602 -6.83432e-22)
(1.01517 0.0298193 -1.7856e-22)
(1.00259 0.0166292 6.16666e-22)
(1.00319 0.0169019 8.42824e-22)
(1.00287 0.0161102 -1.11988e-21)
(0.749088 0.342603 -3.25631e-20)
(0.732867 0.366332 -1.55718e-22)
(0.975066 0.00800123 0)
(1.01247 0.0103242 0)
(1.0129 0.0102819 0)
(1.01275 0.010776 -4.05284e-22)
(0.91291 0.864824 -1.83918e-21)
(0.913699 0.741925 -2.66078e-20)
(0.99934 0.000474997 -6.60806e-21)
(0.999324 0.000381814 5.15399e-21)
(0.999408 0.000433336 5.57483e-21)
(1.00002 0.000300326 -8.75767e-23)
(1.00002 0.000310836 -9.3282e-23)
(1.00003 0.000377525 6.51224e-21)
(0.99994 0.000355919 1.07358e-21)
(0.999929 0.000322215 -7.53888e-21)
(0.999904 0.00037815 1.44819e-22)
(1.51746 0.0689647 2.76439e-20)
(1.52065 0.0410526 -4.76835e-20)
(1.01246 0.000427319 -4.49353e-22)
(1.01267 0.000370661 3.29581e-22)
(1.01131 0.00022125 4.16947e-22)
(0.954178 0.220003 2.19143e-21)
(0.96502 0.215499 -1.36805e-21)
(1.06519 0.392917 3.32722e-20)
(1.04804 0.399616 4.69344e-20)
(1.06504 0.413612 6.07891e-20)
(0.961954 0.00656987 6.85782e-21)
(0.960733 0.00803581 0)
(1.2454 -0.142172 1.48773e-20)
(1.24663 -0.126527 1.10609e-19)
(0.981239 0.00272825 -5.56668e-21)
(0.980738 0.00352441 3.79816e-21)
(0.981643 0.00351516 1.43712e-21)
(0.999618 0.00418205 2.84223e-21)
(0.999477 0.00421947 -6.03656e-21)
(0.999584 0.00446884 2.51804e-21)
(1.15656 0.0731946 -6.09231e-20)
(1.15723 0.0652624 2.19874e-20)
(1.16529 0.0707891 -8.66053e-20)
(1.00646 0.0113029 0)
(1.00622 0.0109513 2.14614e-22)
(1.00608 0.0113044 2.08019e-21)
(1.03579 0.0592455 -2.73713e-21)
(1.03656 0.0618687 -9.3087e-22)
(0.957272 0.0134646 0)
(0.958315 0.0116332 0)
(0.959332 0.0133455 -8.84483e-21)
(1.14926 0.365529 -2.15405e-20)
(1.13559 0.359854 1.67924e-20)
(1.14657 0.350886 6.21057e-21)
(1.05132 -0.010954 2.83452e-21)
(1.04955 -0.0109713 -6.76549e-21)
(0.951043 0.0562399 -4.9075e-21)
(0.951324 0.0589578 4.41384e-22)
(0.948436 0.05739 0)
(1.05662 0.00324694 5.81924e-21)
(1.05646 0.00136422 6.4906e-21)
(1.05498 0.00240392 0)
(1.12803 -0.199896 4.65454e-21)
(1.13646 -0.192688 8.29746e-21)
(1.13616 -0.208037 4.89198e-20)
(1.00073 0.0155953 -1.18531e-21)
(1.0003 0.0153023 -1.12089e-21)
(1.00079 0.0150802 -1.42992e-21)
(1.21571 -0.0833365 0)
(1.22883 -0.087004 -6.4732e-20)
(1.22369 -0.0732967 -1.91142e-20)
(1.0301 0.00152783 3.62707e-21)
(1.03044 0.00148416 3.13418e-21)
(1.02093 0.0116897 1.64762e-21)
(0.833775 0.35296 5.3628e-21)
(0.852939 0.346241 -1.88818e-20)
(0.85164 0.367397 -9.75312e-21)
(1.00247 0.00824063 1.75769e-22)
(1.00232 0.00844853 -2.13818e-21)
(1.03001 0.00116738 -1.25251e-22)
(1.02976 0.00153915 -1.87671e-22)
(1.02536 0.0130617 0)
(1.02507 0.013613 1.66973e-21)
(1.01466 0.0699136 -1.9794e-21)
(1.01354 0.0727999 3.02989e-21)
(1.01126 0.0116728 0)
(1.01128 0.012112 -6.07748e-23)
(1.01168 0.0118679 -3.92243e-22)
(1.01302 0.000711175 1.01246e-21)
(1.01317 0.000625944 1.12942e-22)
(1.01317 0.000841965 0)
(1.03641 0.0155574 6.91435e-21)
(1.03716 0.0150492 4.10851e-21)
(1.03731 0.0160801 -1.23671e-21)
(1.03203 -0.0025628 3.69597e-21)
(1.03235 -0.00223914 1.79497e-21)
(1.03246 -0.00281056 9.83838e-22)
(0.995816 0.00109761 0)
(0.99613 0.000981473 3.46791e-21)
(0.993592 0.0283419 0)
(1.00721 0.0291861 1.1362e-21)
(1.0063 0.0292172 2.63724e-21)
(1.03003 0.0636447 2.59882e-21)
(1.03313 0.0653333 2.10962e-21)
(0.999862 0.01396 5.85728e-21)
(1.00031 0.0142597 -4.19407e-21)
(0.997218 0.000329297 0)
(0.997044 0.000636972 0)
(1.0101 0.000959856 -5.76549e-24)
(1.00985 0.000710549 1.75988e-25)
(1.00981 0.000989078 6.8292e-22)
(0.988908 0.0435177 -2.8707e-21)
(0.990562 0.0427188 -1.76552e-22)
(1.03029 0.0029799 0)
(1.03017 0.00343472 0)
(1.02978 0.0030446 0)
(1.00001 0.000177643 -4.35078e-21)
(1.00003 0.000242812 4.10178e-22)
(1.01184 0.00129355 5.89575e-22)
(1.01182 0.00108885 6.35637e-22)
(1.01203 0.00117166 3.72842e-22)
(0.998899 0.0195566 -2.13681e-21)
(0.999525 0.0200392 4.50867e-23)
(0.993558 0.0619065 1.71396e-21)
(0.99188 0.0634451 -7.0586e-21)
(0.994449 0.0641157 1.54084e-21)
(1.1541 0.377188 0)
(1.16357 0.365714 -4.35329e-20)
(1.17265 -0.0751332 0)
(1.17817 -0.0856581 1.72682e-20)
(-0.328219 0.00646601 3.21999e-20)
(-0.332929 0.0100157 1.33633e-20)
(0.914711 0.151357 8.28827e-22)
(0.910278 0.143464 1.12909e-20)
(0.93311 0.143818 7.64013e-21)
(0.941068 0.143902 3.34537e-21)
(0.935451 0.136532 6.94988e-21)
(0.962154 0.0468586 0)
(0.964886 0.0474829 0)
(1.05965 -0.0453533 5.13872e-21)
(1.05715 -0.0495334 0)
(1.06221 -0.0500703 -1.99496e-20)
(0.853792 -0.259164 0)
(0.838327 -0.236875 8.41631e-21)
(0.792769 -0.275394 -2.14606e-20)
(1.03558 0.0162606 1.63526e-21)
(1.03538 0.0151606 -3.78599e-21)
(0.994424 0.00564532 6.30718e-21)
(0.994082 0.00550112 2.84062e-21)
(1.0129 0.000865153 1.37793e-22)
(1.01285 0.000627152 6.2124e-22)
(1.02043 0.0469947 3.04391e-21)
(1.02089 0.0448693 -2.01013e-21)
(1.0109 0.0114903 1.51661e-21)
(1.01126 0.0112669 0)
(0.993006 -0.159937 -9.65318e-21)
(0.985762 -0.14668 7.75295e-21)
(1.03402 0.0050997 1.25523e-21)
(1.0337 0.0054497 4.9886e-21)
(1.03429 0.00554021 -1.19818e-21)
(0.996375 0.00968783 3.81739e-23)
(0.999981 0.000349703 8.46692e-21)
(0.999973 0.000394999 1.14429e-20)
(0.88769 0.121669 2.29028e-20)
(0.888118 0.129994 1.68883e-20)
(1.03072 0.00295641 -1.63108e-21)
(1.08046 0.386957 -3.28676e-20)
(1.06767 0.377796 -3.06045e-20)
(0.931032 0.151964 -1.24893e-20)
(1.22243 0.206088 0)
(1.22723 0.2174 2.15773e-20)
(1.2371 0.206087 -5.67546e-20)
(1.04023 0.0303133 2.64416e-21)
(1.04166 0.0295936 -2.75671e-22)
(1.03158 -0.00233848 4.53558e-22)
(1.03157 -0.00294879 1.89459e-21)
(1.01054 0.0113413 7.61753e-22)
(1.01051 0.0109515 -1.01599e-21)
(1.01016 0.0111531 -3.26988e-22)
(1.04097 0.00490637 1.40029e-21)
(1.0412 0.00454426 0)
(1.04154 0.00504004 -7.71971e-21)
(1.02638 0.00383228 -3.28166e-21)
(1.02607 0.00412324 -2.16006e-23)
(1.06438 0.0784758 -2.2911e-20)
(1.06203 0.0828289 -1.24423e-20)
(0.990755 0.015805 -1.6366e-22)
(0.990209 0.0155036 -9.26639e-21)
(0.990849 0.0150887 0)
(1.05813 0.00769447 0)
(-0.0315148 0.134586 -9.33184e-20)
(-0.0336099 0.13735 5.31956e-20)
(1.01232 0.00995004 0)
(1.01213 0.0103744 0)
(1.02222 0.0146898 -1.15106e-21)
(1.02242 0.0141709 0)
(1.02294 0.0146535 0)
(0.873781 -0.284761 5.07734e-22)
(0.884062 -0.250343 0)
(1.0632 -0.0417669 -1.23344e-20)
(1.01467 0.0274478 -8.63008e-23)
(1.01368 0.027664 -9.49478e-24)
(0.997424 0.000244446 -3.51129e-21)
(0.997503 0.000439887 -1.37159e-23)
(0.997656 0.000175584 7.45164e-22)
(0.99525 0.060016 -2.58761e-22)
(0.992838 0.05959 -2.48257e-21)
(0.562211 -0.142242 -1.58256e-21)
(0.669399 -0.12368 -1.5504e-21)
(1.12167 -0.00216584 4.20198e-20)
(1.11944 0.00378321 1.70401e-20)
(1.11559 -0.00212741 -1.61552e-21)
(1.26814 0.0835187 0)
(1.2771 0.0954964 -8.00394e-20)
(1.00024 0.00023535 -2.4546e-21)
(1.00021 0.000259185 -5.87088e-21)
(1.01187 0.00149325 -1.63919e-21)
(1.01213 0.00158169 -2.70554e-21)
(1.00068 0.0162313 2.08976e-21)
(1.02111 0.0129992 1.56806e-21)
(1.02049 0.013021 -8.2904e-22)
(1.11627 -0.194186 -5.11484e-21)
(1.11822 -0.209593 -1.60142e-20)
(0.994228 0.0122971 2.54143e-21)
(0.994354 0.0129133 -1.00102e-21)
(0.993825 0.0127945 -7.43874e-22)
(0.997778 0.000978279 -1.10632e-20)
(0.997545 0.00110163 -3.97572e-21)
(1.00246 0.0095645 -9.84698e-22)
(1.00266 0.00997201 -2.84979e-21)
(1.00233 0.00985905 -1.50129e-21)
(0.981777 0.00191529 -1.33311e-23)
(0.980803 0.00181524 1.68495e-21)
(1.04539 -0.0118758 -9.84774e-21)
(1.04396 -0.0130878 -5.36829e-21)
(1.04393 -0.011085 -2.60968e-22)
(0.972148 0.0516478 -2.05427e-22)
(0.971535 0.0537224 0)
(0.969748 0.0516373 -1.22897e-20)
(1.11227 0.21175 3.09781e-20)
(1.10299 0.207652 -3.60976e-20)
(1.11247 0.201752 -2.88031e-20)
(0.954935 -0.183669 1.19414e-19)
(1.09926 -0.19632 -1.02618e-19)
(1.03908 -0.221093 -3.60765e-20)
(0.967994 0.0315718 9.45517e-22)
(0.966516 0.0303124 -9.91968e-22)
(1.25579 -0.305569 -5.12812e-20)
(1.25823 -0.324201 -8.50522e-20)
(1.28623 -0.323429 1.5049e-20)
(0.999849 0.0134144 6.02871e-22)
(0.999851 0.0128851 -9.48625e-21)
(1.00024 0.0131879 -1.30163e-22)
(1.0402 0.0050983 1.86333e-21)
(1.04063 0.00586851 3.61203e-21)
(0.998829 -0.000212007 -5.95507e-22)
(0.998774 -0.000408539 -5.88484e-22)
(-0.116405 0.0888197 0)
(-0.128327 0.0884179 5.81146e-20)
(1.20691 0.135301 2.97554e-20)
(1.21069 0.125031 9.56709e-20)
(1.19951 0.126956 3.03554e-21)
(1.42956 0.2686 -1.31631e-19)
(1.4244 0.266605 -5.56187e-20)
(1.4433 0.25033 2.26872e-21)
(-0.168272 0.24268 0)
(1.01132 0.00425188 8.08606e-22)
(1.01137 0.00453601 -8.91089e-22)
(1.01161 0.00435274 -8.26208e-22)
(1.03372 0.00465287 0)
(1.03426 0.00464171 0)
(0.998705 0.0219965 -2.57272e-21)
(0.999381 0.0217007 2.01653e-21)
(0.979394 0.0589891 -1.0303e-21)
(0.981928 0.0583895 5.67936e-21)
(0.979908 0.0565067 4.72765e-21)
(1.05841 0.0040555 -8.75451e-22)
(1.00002 0.00060393 -3.02921e-21)
(1.00002 0.000530449 3.66392e-21)
(1.00001 0.00053424 -2.98617e-21)
(1.05057 0.0933724 1.34838e-20)
(1.05363 0.0907555 2.09194e-21)
(1.05373 0.0963682 7.17571e-21)
(1.00758 0.000993427 1.32402e-21)
(1.00752 0.00129992 1.73555e-21)
(1.01342 0.000559192 2.00221e-23)
(1.01355 0.0005038 -8.4037e-22)
(1.01331 0.000401164 -3.89325e-22)
(0.992079 0.0269006 2.15924e-21)
(1.11215 0.219853 1.34306e-20)
(1.12158 0.214451 -7.96669e-21)
(0.999995 0.00029093 3.58665e-21)
(0.999994 0.000167943 3.62477e-21)
(0.999994 0.000170731 3.71579e-21)
(1.03747 0.0274492 9.73418e-22)
(1.03728 0.0288296 -3.37375e-21)
(0.982479 0.0114781 1.44549e-22)
(0.982717 0.0105927 -1.41164e-20)
(0.983358 0.01128 3.15468e-22)
(0.9728 0.0496637 1.47508e-24)
(0.974509 0.051408 -2.24023e-22)
(-0.232327 0.01926 3.0042e-20)
(-0.210976 0.0589584 -9.69334e-20)
(-0.267439 0.0583159 -9.48902e-21)
(0.999451 0.0136402 3.71717e-21)
(0.99947 0.000236124 -2.39572e-22)
(0.999482 0.000341424 2.53006e-21)
(1.00149 0.00102151 0)
(1.00149 0.0011656 -2.91953e-21)
(1.00164 0.00113872 -2.94416e-21)
(1.0234 0.0124402 -1.70216e-22)
(1.02384 0.0121038 1.64852e-21)
(1.0786 0.117347 0)
(1.08209 0.122796 0)
(1.07429 0.121713 0)
(1.09376 -0.0860297 8.01555e-21)
(1.09725 -0.0919825 3.75611e-20)
(0.947283 0.142449 -8.2178e-21)
(0.946052 0.150127 -9.60331e-22)
(1.26547 -0.266324 -6.18499e-20)
(1.24686 -0.249669 1.70451e-21)
(1.27033 -0.244704 -7.73308e-20)
(1.04654 -0.0111367 4.19885e-21)
(1.04651 -0.0130438 -1.47959e-20)
(1.05589 0.0329832 8.25325e-21)
(1.05571 0.0308256 3.80617e-21)
(0.981553 0.011631 8.84785e-21)
(1.01292 0.00108798 4.1768e-23)
(1.02607 0.0235599 4.93181e-22)
(1.02638 0.0228578 -5.00327e-21)
(1.0255 0.0228975 -4.00163e-21)
(1.00001 0.000194403 0)
(1.00003 0.000277636 0)
(1.22402 -0.218639 6.03973e-20)
(1.23234 -0.20425 6.22119e-21)
(1.23817 -0.218416 -4.81443e-20)
(0.991267 0.0161017 3.69271e-21)
(0.990659 0.0166196 -5.97362e-21)
(1.01639 0.0335135 5.94908e-23)
(0.997077 -0.0219167 -1.6362e-21)
(1.00264 -0.0233651 0)
(1.00114 -0.0173184 1.90981e-21)
(1.00241 0.0172129 1.92717e-21)
(0.982867 0.0639112 8.05373e-21)
(0.984636 0.0621864 -3.49233e-21)
(0.985562 0.0647457 9.53609e-21)
(0.974982 0.0404587 8.85932e-22)
(0.991587 -0.0187585 -2.7877e-21)
(0.993256 -0.0264673 -6.24275e-22)
(1.02565 0.0083241 2.14239e-21)
(1.0259 0.00799493 1.24109e-21)
(1.02603 0.00852127 5.15661e-22)
(0.950608 0.0531395 -5.49969e-21)
(0.953751 0.0548145 -8.18983e-22)
(1.05096 0.16373 -5.27201e-21)
(1.04262 0.164352 -4.66773e-21)
(1.04683 0.0963403 5.0431e-21)
(1.04703 0.090915 -1.34971e-21)
(1.0247 0.0443016 -2.70876e-21)
(1.02608 0.0430306 -3.16072e-21)
(1.02406 0.0427349 -1.18692e-22)
(0.994331 0.00426918 0)
(0.99423 0.00460704 3.7391e-22)
(0.993949 0.00435001 4.22043e-25)
(1.25964 -0.28471 0)
(1.29012 -0.283696 0)
(1.14233 0.0915663 1.20579e-20)
(1.14517 0.099904 -4.33444e-20)
(1.02987 0.0105986 -1.6072e-21)
(1.03044 0.0102879 -2.22873e-21)
(1.03034 0.0109042 5.5326e-22)
(1.08251 0.112306 -1.63264e-20)
(1.07535 0.112261 -3.38083e-22)
(1.00019 0.00544737 -2.63935e-21)
(1.00008 0.00533765 0)
(1.00009 0.00556015 8.59394e-22)
(1.00261 0.00802666 1.82033e-21)
(1.00234 0.00785793 2.09206e-21)
(1.00034 0.00559025 -2.66767e-21)
(1.00031 0.00530323 3.4648e-22)
(0.980252 0.0631204 5.15941e-21)
(0.981244 0.0658996 1.32087e-21)
(1.39912 0.260522 2.14333e-20)
(1.38493 0.239068 4.64919e-20)
(1.36892 0.254357 -1.60361e-21)
(1.03363 0.000480632 0)
(1.03308 0.000381529 5.1199e-21)
(1.03323 0.000877855 -4.0025e-21)
(1.00002 0.000447594 3.20017e-21)
(1.00002 0.000524895 -3.02351e-21)