/*--------------------------------*- C++ -*----------------------------------*\
| =========                 |                                                 |
| \\      /  F ield         | OpenFOAM: The Open Source CFD Toolbox           |
|  \\    /   O peration     | Version:  v2012                                 |
|   \\  /    A nd           | Website:  www.openfoam.com                      |
|    \\/     M anipulation  |                                                 |
\*---------------------------------------------------------------------------*/
FoamFile
{
    version     2.0;
    format      ascii;
    class       volVectorField;
    location    "400";
    object      cellDisplacement;
}
// * * * * * * * * * * * * * * * * * * * * * * * * * * * * * * * * * * * * * //

dimensions      [0 1 0 0 0 0 0];


internalField   nonuniform List<vector> 
9793
(
(0 -0.000354491 0)
(0 1.763e-05 0)
(0 -0.000735494 0)
(0 1.75274e-05 0)
(0 -0.000157342 0)
(0 -3.81943e-06 0)
(0 3.38724e-06 0)
(0 1.74273e-05 0)
(0 -0.000290552 0)
(0 1.76314e-05 0)
(0 -0.000263978 0)
(0 -0.000290068 0)
(0 -0.00053196 0)
(0 -1.34753e-05 0)
(0 -0.000401004 0)
(0 -0.000410677 0)
(0 -4.60671e-05 0)
(0 -0.000695253 0)
(0 1.7277e-05 0)
(0 -0.000389307 0)
(0 -0.000505194 0)
(0 -3.09871e-05 0)
(0 1.74967e-05 0)
(0 1.74168e-05 0)
(0 -1.52193e-05 0)
(0 -0.000106866 0)
(0 -0.000453276 0)
(0 -5.21129e-05 0)
(0 -0.00038511 0)
(0 -7.55434e-06 0)
(0 1.76279e-05 0)
(0 7.12536e-06 0)
(0 -0.000765147 0)
(0 -0.000671609 0)
(0 -3.24299e-05 0)
(0 -0.000186741 0)
(0 -0.000415826 0)
(0 -0.000168029 0)
(0 1.09044e-05 0)
(0 -9.51164e-05 0)
(0 -1.03027e-05 0)
(0 1.24375e-05 0)
(0 1.72143e-05 0)
(0 -3.71793e-05 0)
(0 -0.00086639 0)
(0 -0.000836641 0)
(0 1.76108e-05 0)
(0 -5.22389e-05 0)
(0 -0.000596217 0)
(0 -0.000704709 0)
(0 -0.000195962 0)
(0 -3.81697e-05 0)
(0 -0.000104063 0)
(0 -0.000103037 0)
(0 -3.54385e-05 0)
(0 1.74436e-05 0)
(0 -0.000515933 0)
(0 -7.02807e-05 0)
(0 -0.000581808 0)
(0 -2.79396e-05 0)
(0 -0.000120202 0)
(0 1.20919e-05 0)
(0 -0.000738742 0)
(0 -0.000228891 0)
(0 -8.79788e-05 0)
(0 -0.000302784 0)
(0 1.76314e-05 0)
(0 -0.000196487 0)
(0 -0.000431364 0)
(0 1.34276e-05 0)
(0 -0.000544972 0)
(0 1.12686e-05 0)
(0 1.74836e-05 0)
(0 -0.000242675 0)
(0 4.82835e-06 0)
(0 -0.000102716 0)
(0 -5.97271e-06 0)
(0 1.55098e-05 0)
(0 -0.000797752 0)
(0 -0.000102263 0)
(0 -3.48585e-06 0)
(0 1.71386e-05 0)
(0 -5.34541e-05 0)
(0 -0.000148388 0)
(0 -0.000413265 0)
(0 8.84608e-06 0)
(0 -0.000134208 0)
(0 -0.000155251 0)
(0 9.49349e-06 0)
(0 1.15851e-05 0)
(0 1.7161e-05 0)
(0 1.45065e-05 0)
(0 1.46013e-05 0)
(0 -3.69686e-05 0)
(0 1.71559e-05 0)
(0 -0.000636275 0)
(0 5.97578e-06 0)
(0 -3.91212e-05 0)
(0 -0.000142977 0)
(0 -0.000121126 0)
(0 1.02585e-05 0)
(0 -0.000109326 0)
(0 -0.000268394 0)
(0 -0.000870856 0)
(0 -9.46558e-06 0)
(0 1.61432e-05 0)
(0 -0.000255801 0)
(0 -0.00041959 0)
(0 -0.000807824 0)
(0 -6.11154e-05 0)
(0 -0.000105902 0)
(0 1.73787e-05 0)
(0 1.76254e-05 0)
(0 1.76301e-05 0)
(0 -0.000544327 0)
(0 -0.000563156 0)
(0 -0.000574378 0)
(0 -0.000801155 0)
(0 1.72408e-05 0)
(0 -0.000874587 0)
(0 -1.39377e-05 0)
(0 -0.000141217 0)
(0 6.21699e-06 0)
(0 -0.000114095 0)
(0 -0.000397661 0)
(0 -0.000872393 0)
(0 -3.30331e-05 0)
(0 1.76246e-05 0)
(0 -0.000125811 0)
(0 -0.000133586 0)
(0 -0.00030991 0)
(0 -0.000494552 0)
(0 -0.000359473 0)
(0 -0.000226577 0)
(0 -0.000192595 0)
(0 8.83392e-06 0)
(0 -8.58533e-07 0)
(0 -0.000553398 0)
(0 -7.70665e-05 0)
(0 -4.2154e-05 0)
(0 1.69492e-05 0)
(0 -0.000185136 0)
(0 -0.000481842 0)
(0 -0.000169912 0)
(0 1.76098e-05 0)
(0 1.58131e-05 0)
(0 -0.000888692 0)
(0 7.72183e-06 0)
(0 -0.000497452 0)
(0 -0.000887697 0)
(0 -0.000578799 0)
(0 1.74876e-05 0)
(0 -0.0001528 0)
(0 -0.000460235 0)
(0 -0.000725823 0)
(0 1.50184e-05 0)
(0 -4.25498e-05 0)
(0 -0.000726838 0)
(0 8.25213e-06 0)
(0 -0.000592533 0)
(0 -0.000155359 0)
(0 -0.000294494 0)
(0 -0.000494739 0)
(0 1.66744e-05 0)
(0 -0.000439686 0)
(0 1.48897e-05 0)
(0 -0.000272677 0)
(0 -0.000392457 0)
(0 -0.000386217 0)
(0 -0.000223821 0)
(0 -0.000484754 0)
(0 1.76348e-05 0)
(0 1.75336e-05 0)
(0 -2.75954e-05 0)
(0 -0.000534271 0)
(0 -7.06192e-06 0)
(0 1.21471e-05 0)
(0 1.71953e-05 0)
(0 -0.000779047 0)
(0 -0.000212704 0)
(0 -1.17195e-05 0)
(0 1.76163e-05 0)
(0 -0.000139969 0)
(0 -0.000849629 0)
(0 -0.000763291 0)
(0 -0.000401924 0)
(0 4.3991e-06 0)
(0 1.7529e-05 0)
(0 1.7455e-05 0)
(0 -0.000253201 0)
(0 -0.000319927 0)
(0 1.76158e-05 0)
(0 1.66764e-05 0)
(0 -0.00014326 0)
(0 -0.00064162 0)
(0 -0.000188287 0)
(0 1.75315e-05 0)
(0 -0.000315237 0)
(0 -0.000686119 0)
(0 -0.000321152 0)
(0 -0.000509201 0)
(0 -0.000547272 0)
(0 -0.000200793 0)
(0 -0.000301231 0)
(0 1.70302e-05 0)
(0 -0.000677676 0)
(0 -0.000114263 0)
(0 -0.00040167 0)
(0 -0.000319048 0)
(0 1.67788e-05 0)
(0 -4.58404e-05 0)
(0 1.69057e-05 0)
(0 -0.000275619 0)
(0 1.41197e-05 0)
(0 -0.00014466 0)
(0 -0.000436624 0)
(0 -0.000395451 0)
(0 8.24965e-06 0)
(0 -0.000540198 0)
(0 -3.5677e-06 0)
(0 -3.54526e-05 0)
(0 -0.000536719 0)
(0 1.73297e-05 0)
(0 -6.37083e-05 0)
(0 -3.96183e-05 0)
(0 -0.000608069 0)
(0 -9.48385e-05 0)
(0 -0.000120706 0)
(0 -4.19203e-06 0)
(0 -2.47804e-06 0)
(0 1.66044e-05 0)
(0 -0.000125391 0)
(0 -0.000430256 0)
(0 -0.000222555 0)
(0 1.65518e-05 0)
(0 -0.000680531 0)
(0 1.75692e-05 0)
(0 1.76281e-05 0)
(0 -0.000303361 0)
(0 -0.000279628 0)
(0 1.12744e-05 0)
(0 -0.000580064 0)
(0 -0.000103305 0)
(0 -7.34593e-05 0)
(0 -5.74755e-05 0)
(0 -0.000307099 0)
(0 -0.00021425 0)
(0 -0.000109089 0)
(0 -1.82856e-05 0)
(0 -0.000240143 0)
(0 -0.000789814 0)
(0 -1.92842e-05 0)
(0 1.75714e-05 0)
(0 -0.000527527 0)
(0 -4.01662e-05 0)
(0 -0.000121724 0)
(0 -0.000335397 0)
(0 -6.18882e-05 0)
(0 1.74132e-05 0)
(0 -0.00090345 0)
(0 1.53602e-05 0)
(0 8.78016e-06 0)
(0 -0.000290921 0)
(0 -0.000511834 0)
(0 1.43396e-05 0)
(0 -4.2943e-05 0)
(0 -0.000195015 0)
(0 -4.13667e-05 0)
(0 1.01554e-05 0)
(0 1.63735e-05 0)
(0 -0.000132882 0)
(0 1.61907e-05 0)
(0 -6.52036e-05 0)
(0 -0.000258569 0)
(0 1.75724e-05 0)
(0 -0.000376967 0)
(0 1.76286e-05 0)
(0 -0.000112048 0)
(0 -0.000130611 0)
(0 1.76701e-05 0)
(0 1.65782e-06 0)
(0 -1.04223e-05 0)
(0 -0.000119694 0)
(0 -0.000320862 0)
(0 -5.74116e-05 0)
(0 -0.000306603 0)
(0 -0.000667359 0)
(0 -0.000442181 0)
(0 1.64794e-05 0)
(0 -9.68451e-05 0)
(0 -0.000487931 0)
(0 -1.13297e-05 0)
(0 -0.000287462 0)
(0 -9.27684e-05 0)
(0 -0.000516636 0)
(0 1.73894e-05 0)
(0 -0.000462331 0)
(0 -0.000405707 0)
(0 -9.17118e-05 0)
(0 -0.000523292 0)
(0 1.76101e-05 0)
(0 1.57227e-05 0)
(0 3.25469e-06 0)
(0 -0.000271363 0)
(0 -0.000157001 0)
(0 -7.74439e-05 0)
(0 -0.0002584 0)
(0 1.75278e-05 0)
(0 -0.000882604 0)
(0 8.33676e-06 0)
(0 -0.000219788 0)
(0 -0.000853859 0)
(0 1.76314e-05 0)
(0 -0.000245041 0)
(0 -0.000752528 0)
(0 -1.54864e-05 0)
(0 1.76255e-05 0)
(0 -0.000359165 0)
(0 -4.52954e-05 0)
(0 -0.000404758 0)
(0 -0.000347082 0)
(0 -0.000138245 0)
(0 -1.12849e-05 0)
(0 -0.00067562 0)
(0 -0.000851713 0)
(0 -0.000287612 0)
(0 1.29064e-05 0)
(0 1.76242e-05 0)
(0 -0.000747453 0)
(0 -0.000433879 0)
(0 -0.000474181 0)
(0 1.76422e-05 0)
(0 1.76095e-05 0)
(0 1.75114e-05 0)
(0 -0.000652676 0)
(0 -8.12507e-06 0)
(0 -4.21709e-05 0)
(0 1.73988e-05 0)
(0 -6.74854e-05 0)
(0 -0.000748839 0)
(0 -0.000690093 0)
(0 -0.000466726 0)
(0 -6.48641e-05 0)
(0 -0.000332181 0)
(0 1.74038e-05 0)
(0 -0.000666496 0)
(0 -0.000466735 0)
(0 -0.000138932 0)
(0 1.73316e-05 0)
(0 1.41661e-05 0)
(0 -9.18068e-05 0)
(0 1.17281e-05 0)
(0 -0.00012107 0)
(0 1.76827e-05 0)
(0 1.73895e-05 0)
(0 1.68872e-05 0)
(0 -0.000160653 0)
(0 -8.74361e-05 0)
(0 1.03827e-06 0)
(0 1.69234e-05 0)
(0 1.73487e-05 0)
(0 -0.000136447 0)
(0 -5.7781e-05 0)
(0 -0.000125232 0)
(0 -0.000622943 0)
(0 -0.000444124 0)
(0 -0.000346944 0)
(0 -0.000461024 0)
(0 -4.13428e-06 0)
(0 1.73381e-05 0)
(0 -0.000256425 0)
(0 -2.61608e-05 0)
(0 -0.000107917 0)
(0 -1.87828e-05 0)
(0 -0.000767131 0)
(0 -0.000140262 0)
(0 1.7611e-05 0)
(0 1.67796e-05 0)
(0 -2.94088e-05 0)
(0 -7.1818e-05 0)
(0 -0.000469054 0)
(0 -0.000152967 0)
(0 -0.000732454 0)
(0 1.4521e-05 0)
(0 -0.00013025 0)
(0 1.35525e-05 0)
(0 1.39797e-05 0)
(0 3.85774e-06 0)
(0 1.75489e-05 0)
(0 -0.000153107 0)
(0 -0.000239778 0)
(0 -0.000604686 0)
(0 -1.42308e-08 0)
(0 1.4317e-05 0)
(0 -0.000691983 0)
(0 1.74694e-05 0)
(0 -0.000257549 0)
(0 -0.000386604 0)
(0 1.76626e-05 0)
(0 -0.000264398 0)
(0 -6.32325e-05 0)
(0 -0.000661995 0)
(0 -0.000262345 0)
(0 -0.000645098 0)
(0 -0.000451817 0)
(0 -0.000104665 0)
(0 9.92211e-06 0)
(0 -0.000360971 0)
(0 -0.000136005 0)
(0 -0.000308499 0)
(0 -0.000505893 0)
(0 6.3294e-06 0)
(0 -3.69812e-05 0)
(0 -0.000582562 0)
(0 -0.000380942 0)
(0 -3.40161e-05 0)
(0 -4.44968e-05 0)
(0 -0.000382645 0)
(0 1.76169e-05 0)
(0 -0.000350324 0)
(0 -0.0006732 0)
(0 1.65724e-05 0)
(0 -0.000297121 0)
(0 1.75305e-05 0)
(0 1.70605e-05 0)
(0 -0.000783345 0)
(0 -0.000734265 0)
(0 -0.000438841 0)
(0 -0.000272796 0)
(0 -0.000485827 0)
(0 8.68191e-06 0)
(0 -2.10941e-06 0)
(0 1.50267e-05 0)
(0 -0.000102433 0)
(0 -0.000500358 0)
(0 -0.000107279 0)
(0 -0.00018115 0)
(0 1.70543e-05 0)
(0 -0.000123895 0)
(0 -0.000139262 0)
(0 -0.000199674 0)
(0 1.52154e-05 0)
(0 -0.000524313 0)
(0 -0.000582944 0)
(0 -0.000528531 0)
(0 -0.000118718 0)
(0 -0.000625929 0)
(0 -0.000397529 0)
(0 -0.000816165 0)
(0 -0.000208294 0)
(0 -0.000211777 0)
(0 -0.000294504 0)
(0 -7.91298e-05 0)
(0 -5.47088e-05 0)
(0 1.74724e-05 0)
(0 -0.000123382 0)
(0 1.47429e-05 0)
(0 1.75928e-05 0)
(0 -0.000647222 0)
(0 -0.000143903 0)
(0 1.3751e-06 0)
(0 -0.000623357 0)
(0 -0.0001657 0)
(0 -0.000456644 0)
(0 -3.12528e-05 0)
(0 -5.9134e-05 0)
(0 -0.000155133 0)
(0 -0.000607648 0)
(0 -0.000335791 0)
(0 2.1113e-06 0)
(0 1.31906e-05 0)
(0 1.5655e-05 0)
(0 -8.65318e-05 0)
(0 -0.000738038 0)
(0 -5.54744e-05 0)
(0 1.7617e-05 0)
(0 4.1472e-06 0)
(0 -0.000197114 0)
(0 -0.000361524 0)
(0 -4.74152e-05 0)
(0 1.43643e-05 0)
(0 -4.43082e-05 0)
(0 -0.000329961 0)
(0 -0.00048025 0)
(0 1.672e-05 0)
(0 -0.000650444 0)
(0 1.21108e-05 0)
(0 -9.97094e-06 0)
(0 -0.000585046 0)
(0 1.59198e-05 0)
(0 -0.000129478 0)
(0 1.42676e-05 0)
(0 -0.000511172 0)
(0 1.70997e-05 0)
(0 7.15255e-06 0)
(0 -0.000409173 0)
(0 1.39208e-05 0)
(0 -0.000644524 0)
(0 1.72764e-05 0)
(0 -0.000671457 0)
(0 -0.000598174 0)
(0 -0.000202402 0)
(0 -0.000714221 0)
(0 6.03809e-06 0)
(0 -0.000625208 0)
(0 -0.000564185 0)
(0 -0.00026483 0)
(0 -0.000635271 0)
(0 -0.000484533 0)
(0 -1.19017e-05 0)
(0 -0.000207738 0)
(0 -0.000215448 0)
(0 -0.00032071 0)
(0 -0.000307961 0)
(0 1.7605e-05 0)
(0 6.97964e-06 0)
(0 -0.000208933 0)
(0 -3.36209e-05 0)
(0 -0.000299616 0)
(0 -0.00030368 0)
(0 -0.000912788 0)
(0 -0.000492992 0)
(0 1.74506e-05 0)
(0 -0.000577632 0)
(0 -3.39427e-05 0)
(0 1.76325e-05 0)
(0 1.25676e-05 0)
(0 -1.90135e-05 0)
(0 -0.000525318 0)
(0 -5.87309e-05 0)
(0 -0.00034252 0)
(0 -0.000183433 0)
(0 -4.01704e-05 0)
(0 -0.000347877 0)
(0 -0.000246929 0)
(0 -0.000385782 0)
(0 1.74319e-05 0)
(0 -0.000125458 0)
(0 1.76241e-05 0)
(0 -9.54276e-06 0)
(0 1.36132e-05 0)
(0 -0.000661021 0)
(0 -0.000225374 0)
(0 1.76107e-05 0)
(0 -0.000644355 0)
(0 1.1172e-05 0)
(0 -0.000614155 0)
(0 -1.14947e-05 0)
(0 -0.000505075 0)
(0 -1.12406e-05 0)
(0 1.71298e-05 0)
(0 -0.000461111 0)
(0 -0.000123545 0)
(0 -0.000606516 0)
(0 -5.54071e-05 0)
(0 -6.43861e-05 0)
(0 -2.04933e-05 0)
(0 1.67918e-05 0)
(0 -0.000161972 0)
(0 -5.8171e-05 0)
(0 -5.26162e-06 0)
(0 -5.75093e-05 0)
(0 -0.000341655 0)
(0 -0.000449618 0)
(0 -9.00698e-05 0)
(0 -0.000240351 0)
(0 -6.46039e-05 0)
(0 -0.000305804 0)
(0 -0.000318591 0)
(0 -0.000243842 0)
(0 9.04033e-06 0)
(0 -1.95346e-05 0)
(0 -0.000409507 0)
(0 1.76211e-05 0)
(0 -0.000596153 0)
(0 1.4017e-05 0)
(0 -0.000680189 0)
(0 -0.000418799 0)
(0 -0.000641174 0)
(0 -0.000317977 0)
(0 -0.000114477 0)
(0 1.46937e-05 0)
(0 -0.000404458 0)
(0 1.23431e-05 0)
(0 -5.96799e-06 0)
(0 -3.31922e-05 0)
(0 -3.05582e-05 0)
(0 1.76305e-05 0)
(0 -0.000218314 0)
(0 -3.43847e-05 0)
(0 1.74685e-05 0)
(0 1.43783e-05 0)
(0 1.6265e-05 0)
(0 -1.27864e-05 0)
(0 1.30334e-05 0)
(0 -0.000348762 0)
(0 1.76291e-05 0)
(0 -0.00025694 0)
(0 -0.000424393 0)
(0 1.48363e-05 0)
(0 -5.06951e-05 0)
(0 1.65359e-05 0)
(0 -2.4272e-05 0)
(0 -1.97284e-05 0)
(0 -0.000110831 0)
(0 1.71269e-05 0)
(0 1.75119e-05 0)
(0 -0.000242395 0)
(0 -2.47411e-05 0)
(0 -0.000294119 0)
(0 1.63707e-05 0)
(0 -0.000317157 0)
(0 -0.000669066 0)
(0 -0.000347333 0)
(0 -0.000609687 0)
(0 -4.09625e-05 0)
(0 1.61761e-05 0)
(0 1.569e-05 0)
(0 1.75606e-05 0)
(0 -0.000221786 0)
(0 -0.000175465 0)
(0 1.34825e-05 0)
(0 1.61073e-05 0)
(0 -0.00035629 0)
(0 -7.05931e-05 0)
(0 -0.000302867 0)
(0 1.76906e-05 0)
(0 -0.000115172 0)
(0 -0.000784707 0)
(0 3.02368e-06 0)
(0 1.61136e-05 0)
(0 1.75217e-05 0)
(0 -7.44042e-05 0)
(0 -0.00011274 0)
(0 1.38558e-05 0)
(0 -0.000215291 0)
(0 4.99052e-06 0)
(0 -0.000208359 0)
(0 -2.43631e-05 0)
(0 -0.000106107 0)
(0 -0.000204916 0)
(0 -0.000350918 0)
(0 -0.000727758 0)
(0 -0.000143025 0)
(0 -5.42506e-05 0)
(0 -0.000141351 0)
(0 -5.21768e-06 0)
(0 4.52364e-06 0)
(0 -2.47603e-05 0)
(0 -0.000111893 0)
(0 -0.0005201 0)
(0 -0.000674339 0)
(0 -5.38365e-05 0)
(0 -0.000589788 0)
(0 -7.85474e-06 0)
(0 -3.84017e-05 0)
(0 -1.31548e-05 0)
(0 -3.79801e-05 0)
(0 1.41036e-05 0)
(0 -0.000510034 0)
(0 1.75496e-05 0)
(0 -0.000162304 0)
(0 -8.5588e-06 0)
(0 -4.67858e-05 0)
(0 6.21478e-06 0)
(0 -0.000260263 0)
(0 -0.000594519 0)
(0 -8.56301e-06 0)
(0 -0.000649606 0)
(0 -0.00035173 0)
(0 -5.27716e-05 0)
(0 6.71801e-06 0)
(0 -0.000555558 0)
(0 -0.000129884 0)
(0 3.88608e-06 0)
(0 -0.000227441 0)
(0 -0.000126693 0)
(0 3.28804e-06 0)
(0 -0.000390326 0)
(0 -3.7309e-05 0)
(0 -0.000392958 0)
(0 -0.000325429 0)
(0 -0.000493258 0)
(0 1.12652e-05 0)
(0 1.42035e-06 0)
(0 1.74548e-05 0)
(0 -0.000504538 0)
(0 -0.000863694 0)
(0 -0.000432454 0)
(0 -0.000601338 0)
(0 -0.000211489 0)
(0 -0.000154259 0)
(0 1.65557e-05 0)
(0 -0.000173459 0)
(0 -0.000225653 0)
(0 1.35486e-05 0)
(0 -0.000191778 0)
(0 -3.7637e-05 0)
(0 -0.000365218 0)
(0 1.76336e-05 0)
(0 -0.000337992 0)
(0 -0.000173545 0)
(0 4.63472e-06 0)
(0 1.75801e-05 0)
(0 -0.000592726 0)
(0 -0.000817793 0)
(0 -0.00074241 0)
(0 -0.000431531 0)
(0 -0.000244773 0)
(0 -0.000228738 0)
(0 3.89833e-06 0)
(0 -0.000294535 0)
(0 -9.49574e-05 0)
(0 -0.000362058 0)
(0 -0.000373993 0)
(0 -1.48332e-05 0)
(0 1.74366e-05 0)
(0 -6.45318e-05 0)
(0 -0.000559602 0)
(0 -0.000613199 0)
(0 -9.28095e-05 0)
(0 -0.000137651 0)
(0 -0.000119839 0)
(0 -0.000617334 0)
(0 -0.000608599 0)
(0 1.76301e-05 0)
(0 -0.000262325 0)
(0 -9.97332e-05 0)
(0 -6.86378e-05 0)
(0 2.01764e-06 0)
(0 -0.000600101 0)
(0 -2.14217e-05 0)
(0 -0.00033127 0)
(0 1.72126e-05 0)
(0 -4.22615e-05 0)
(0 -5.27121e-06 0)
(0 1.65815e-05 0)
(0 -0.000119743 0)
(0 9.79897e-06 0)
(0 -5.29684e-05 0)
(0 -0.000511388 0)
(0 1.73993e-05 0)
(0 -9.35113e-05 0)
(0 -0.00066628 0)
(0 -0.000337912 0)
(0 -4.87772e-05 0)
(0 1.7585e-05 0)
(0 -0.000341632 0)
(0 -0.00089989 0)
(0 -0.000640392 0)
(0 -0.000620017 0)
(0 -0.000515336 0)
(0 -0.00034206 0)
(0 1.64786e-05 0)
(0 -4.24659e-05 0)
(0 -0.000225731 0)
(0 -0.000409856 0)
(0 -4.18841e-05 0)
(0 -3.29313e-05 0)
(0 -0.000432552 0)
(0 -0.000102319 0)
(0 -9.68758e-06 0)
(0 -0.000433989 0)
(0 -0.000172928 0)
(0 1.74252e-05 0)
(0 -8.83897e-05 0)
(0 -0.000521019 0)
(0 1.74919e-05 0)
(0 -0.000310229 0)
(0 -0.000115298 0)
(0 1.55507e-05 0)
(0 1.75916e-05 0)
(0 -0.000406953 0)
(0 -0.000307578 0)
(0 1.6263e-05 0)
(0 -0.000100009 0)
(0 -0.000175571 0)
(0 -0.000173072 0)
(0 -5.64989e-05 0)
(0 -1.42516e-05 0)
(0 -9.81956e-06 0)
(0 -0.000745202 0)
(0 1.68514e-05 0)
(0 -0.000172611 0)
(0 -1.82484e-05 0)
(0 -0.00058472 0)
(0 -7.38815e-05 0)
(0 -0.000689937 0)
(0 -0.00014592 0)
(0 -0.000144968 0)
(0 1.35362e-05 0)
(0 -0.000472764 0)
(0 -0.000611695 0)
(0 -3.37077e-05 0)
(0 -0.000589048 0)
(0 -0.000364876 0)
(0 -0.000535028 0)
(0 -9.95403e-05 0)
(0 -0.000637574 0)
(0 -0.000142046 0)
(0 -3.5301e-05 0)
(0 -6.91477e-05 0)
(0 -4.58844e-05 0)
(0 -0.00033732 0)
(0 -0.000456064 0)
(0 1.76291e-05 0)
(0 -0.000141388 0)
(0 -0.000494323 0)
(0 -0.000103758 0)
(0 1.76271e-05 0)
(0 -0.00060523 0)
(0 -0.000888909 0)
(0 -0.000556987 0)
(0 3.24525e-06 0)
(0 -0.000144653 0)
(0 1.76022e-05 0)
(0 -0.000457245 0)
(0 -0.000119734 0)
(0 -0.000349738 0)
(0 -0.000329271 0)
(0 -1.64435e-05 0)
(0 6.52799e-06 0)
(0 -0.000373093 0)
(0 9.23378e-06 0)
(0 -0.000519007 0)
(0 3.35199e-06 0)
(0 -0.000466873 0)
(0 -0.000199657 0)
(0 -0.000648699 0)
(0 -0.000402713 0)
(0 1.39277e-07 0)
(0 1.76303e-05 0)
(0 -0.000339169 0)
(0 -0.00010065 0)
(0 -9.90527e-05 0)
(0 -0.000588269 0)
(0 1.75767e-05 0)
(0 1.76306e-05 0)
(0 -0.000131498 0)
(0 -0.000392167 0)
(0 -0.000466411 0)
(0 1.75636e-05 0)
(0 -0.00055113 0)
(0 1.75734e-05 0)
(0 -0.000690769 0)
(0 -0.000284264 0)
(0 -0.00037558 0)
(0 -0.000142849 0)
(0 -0.00040185 0)
(0 9.91222e-06 0)
(0 1.7008e-05 0)
(0 1.75541e-05 0)
(0 5.51988e-06 0)
(0 1.76218e-05 0)
(0 -0.000724509 0)
(0 -3.41856e-05 0)
(0 1.63963e-05 0)
(0 -9.86784e-06 0)
(0 -0.000331648 0)
(0 -0.000332142 0)
(0 -2.85138e-05 0)
(0 -0.000568545 0)
(0 1.73361e-05 0)
(0 -4.75973e-05 0)
(0 -1.29741e-05 0)
(0 -0.000267513 0)
(0 1.55314e-05 0)
(0 1.76227e-05 0)
(0 1.75621e-05 0)
(0 -5.64107e-05 0)
(0 -0.000110649 0)
(0 -6.01411e-05 0)
(0 1.73981e-05 0)
(0 -0.000631912 0)
(0 1.68486e-05 0)
(0 -1.93194e-06 0)
(0 7.46343e-06 0)
(0 1.53086e-05 0)
(0 1.2183e-05 0)
(0 -0.000245409 0)
(0 -0.000172785 0)
(0 -0.000260013 0)
(0 -0.000249693 0)
(0 1.73814e-05 0)
(0 1.7624e-05 0)
(0 -0.000318113 0)
(0 1.75978e-05 0)
(0 -0.00045229 0)
(0 -6.361e-05 0)
(0 1.25824e-05 0)
(0 4.5016e-06 0)
(0 1.84016e-06 0)
(0 -0.00070885 0)
(0 -0.000112377 0)
(0 -0.000205719 0)
(0 -0.000401145 0)
(0 -0.000516725 0)
(0 -9.7234e-05 0)
(0 -0.000323449 0)
(0 1.62958e-05 0)
(0 -6.32379e-05 0)
(0 -0.000719182 0)
(0 -8.98375e-07 0)
(0 -5.9543e-05 0)
(0 -3.49233e-05 0)
(0 -0.000277491 0)
(0 1.74175e-05 0)
(0 1.67042e-05 0)
(0 1.47948e-05 0)
(0 -0.000127259 0)
(0 -5.00036e-05 0)
(0 -0.000274465 0)
(0 -5.09876e-05 0)
(0 -0.000612021 0)
(0 1.50203e-05 0)
(0 -0.000129295 0)
(0 -0.000286074 0)
(0 -0.000662996 0)
(0 -0.000212022 0)
(0 1.75434e-05 0)
(0 -0.000106954 0)
(0 -0.00078612 0)
(0 1.64959e-05 0)
(0 -0.000716799 0)
(0 -0.000104633 0)
(0 -0.000632492 0)
(0 -0.000169218 0)
(0 -0.000842687 0)
(0 -0.000360695 0)
(0 1.75839e-05 0)
(0 -2.75404e-05 0)
(0 -5.12212e-06 0)
(0 1.76116e-05 0)
(0 1.1996e-05 0)
(0 -0.00070454 0)
(0 -0.000519976 0)
(0 -0.000109505 0)
(0 -1.5291e-05 0)
(0 -0.000507741 0)
(0 -0.000414903 0)
(0 1.63534e-05 0)
(0 -0.000248045 0)
(0 -0.000283186 0)
(0 -0.000104058 0)
(0 -3.52771e-05 0)
(0 1.60861e-05 0)
(0 -0.000566813 0)
(0 -1.8845e-05 0)
(0 -0.000431466 0)
(0 -0.000319895 0)
(0 1.68833e-05 0)
(0 -1.22081e-05 0)
(0 -6.68174e-05 0)
(0 -0.00036276 0)
(0 -0.000567684 0)
(0 1.76128e-05 0)
(0 6.51114e-06 0)
(0 1.33569e-05 0)
(0 1.76552e-05 0)
(0 -0.000428246 0)
(0 -0.000589699 0)
(0 -0.000771646 0)
(0 1.76328e-05 0)
(0 -0.000154569 0)
(0 -7.62816e-05 0)
(0 -0.000300951 0)
(0 -0.000343834 0)
(0 -0.000498316 0)
(0 -6.06723e-05 0)
(0 -0.000370154 0)
(0 5.05312e-06 0)
(0 -0.000462484 0)
(0 -2.92133e-05 0)
(0 -5.35689e-05 0)
(0 -0.000357083 0)
(0 -0.000618302 0)
(0 -0.000377529 0)
(0 -2.40343e-05 0)
(0 1.75409e-05 0)
(0 -0.000183941 0)
(0 1.76201e-05 0)
(0 -0.000507323 0)
(0 -2.4607e-05 0)
(0 -0.000372422 0)
(0 3.09527e-06 0)
(0 -0.000675325 0)
(0 -0.000680609 0)
(0 -0.000216618 0)
(0 -2.99874e-05 0)
(0 -3.99072e-05 0)
(0 -0.000432042 0)
(0 -5.12959e-05 0)
(0 1.12658e-05 0)
(0 8.48652e-06 0)
(0 -0.00034456 0)
(0 -3.80697e-05 0)
(0 1.71559e-05 0)
(0 -0.00026464 0)
(0 1.43724e-05 0)
(0 -8.39886e-06 0)
(0 1.17483e-06 0)
(0 -0.000415384 0)
(0 -0.000317839 0)
(0 -0.00014347 0)
(0 9.12502e-06 0)
(0 -0.000496917 0)
(0 -0.00023075 0)
(0 -0.000332166 0)
(0 -0.000376922 0)
(0 -0.000288468 0)
(0 -0.000416015 0)
(0 -0.000618747 0)
(0 -0.000913789 0)
(0 1.69035e-05 0)
(0 -0.000110578 0)
(0 -0.000234946 0)
(0 -1.51381e-05 0)
(0 -0.000436705 0)
(0 -0.000760103 0)
(0 -3.48991e-05 0)
(0 5.4553e-06 0)
(0 1.03242e-05 0)
(0 -1.26907e-05 0)
(0 -4.98975e-05 0)
(0 -9.6361e-05 0)
(0 1.73121e-05 0)
(0 -6.09782e-05 0)
(0 1.76264e-05 0)
(0 2.75455e-06 0)
(0 -0.000368133 0)
(0 -0.000386137 0)
(0 -0.000265099 0)
(0 1.74311e-05 0)
(0 1.75135e-05 0)
(0 -8.86682e-06 0)
(0 1.31899e-05 0)
(0 -0.000426949 0)
(0 -0.000440733 0)
(0 -0.000165178 0)
(0 -0.000352451 0)
(0 1.76293e-05 0)
(0 -0.00016037 0)
(0 -0.000386698 0)
(0 -9.13944e-06 0)
(0 1.58538e-05 0)
(0 -1.10996e-05 0)
(0 -0.000245439 0)
(0 -0.000229648 0)
(0 -1.15275e-06 0)
(0 -0.000105202 0)
(0 -0.000249095 0)
(0 1.65729e-05 0)
(0 1.27959e-05 0)
(0 -0.000272201 0)
(0 -1.15049e-06 0)
(0 -1.79945e-05 0)
(0 -2.33794e-05 0)
(0 8.21123e-06 0)
(0 -0.00011024 0)
(0 -0.000368488 0)
(0 -9.7596e-06 0)
(0 -0.000664777 0)
(0 -0.000198071 0)
(0 -0.000110093 0)
(0 1.76061e-05 0)
(0 -0.000109861 0)
(0 -4.20563e-05 0)
(0 4.08362e-06 0)
(0 -0.000410183 0)
(0 1.76011e-05 0)
(0 1.76216e-05 0)
(0 -0.000514109 0)
(0 1.75589e-05 0)
(0 -4.87392e-05 0)
(0 -0.00041733 0)
(0 -0.000534568 0)
(0 3.78763e-06 0)
(0 1.68325e-05 0)
(0 -0.000148411 0)
(0 -5.8688e-05 0)
(0 -0.000629134 0)
(0 1.41182e-05 0)
(0 -7.34388e-06 0)
(0 -6.77632e-05 0)
(0 -0.000442368 0)
(0 -0.00042588 0)
(0 -0.000393398 0)
(0 -2.77467e-05 0)
(0 -0.000227247 0)
(0 -2.2946e-05 0)
(0 -6.26783e-05 0)
(0 -0.000161311 0)
(0 1.67601e-05 0)
(0 6.03683e-06 0)
(0 -0.000245899 0)
(0 -0.000110373 0)
(0 -0.000259077 0)
(0 1.65126e-05 0)
(0 -0.000126354 0)
(0 -0.000632672 0)
(0 -0.000414214 0)
(0 -0.000646694 0)
(0 -0.000232676 0)
(0 1.75796e-05 0)
(0 1.65094e-05 0)
(0 7.15184e-06 0)
(0 -0.000105563 0)
(0 -0.000471446 0)
(0 1.57195e-05 0)
(0 -0.00010226 0)
(0 -0.000282243 0)
(0 1.74479e-05 0)
(0 -0.000417505 0)
(0 -1.16247e-05 0)
(0 1.76243e-05 0)
(0 -0.000429948 0)
(0 1.76142e-05 0)
(0 1.73779e-05 0)
(0 4.18763e-06 0)
(0 1.76246e-05 0)
(0 -2.44012e-05 0)
(0 -0.000477227 0)
(0 -0.00024189 0)
(0 1.76112e-05 0)
(0 1.57171e-05 0)
(0 -0.000254848 0)
(0 1.76064e-05 0)
(0 -0.000140531 0)
(0 -0.000622332 0)
(0 -0.000117164 0)
(0 -0.000338563 0)
(0 -0.000111881 0)
(0 -0.000148494 0)
(0 1.62674e-05 0)
(0 1.7626e-05 0)
(0 1.57869e-05 0)
(0 -4.34609e-05 0)
(0 -3.58219e-05 0)
(0 -3.45288e-06 0)
(0 1.75998e-05 0)
(0 -0.000420174 0)
(0 1.76336e-05 0)
(0 -2.22662e-05 0)
(0 -0.00014188 0)
(0 -0.000127884 0)
(0 -9.23357e-05 0)
(0 -0.000333421 0)
(0 -4.69019e-05 0)
(0 1.7595e-05 0)
(0 -0.00043187 0)
(0 -0.00043792 0)
(0 1.75851e-05 0)
(0 2.00458e-06 0)
(0 -0.000118228 0)
(0 -0.000127357 0)
(0 -2.96811e-05 0)
(0 -0.000743247 0)
(0 -6.41118e-05 0)
(0 -4.0754e-05 0)
(0 1.47601e-05 0)
(0 -0.000252113 0)
(0 -0.000410972 0)
(0 -3.23261e-05 0)
(0 1.76055e-05 0)
(0 -2.41722e-05 0)
(0 -0.000327484 0)
(0 1.59995e-05 0)
(0 -0.000356779 0)
(0 -0.000458738 0)
(0 -0.000662338 0)
(0 -0.000249139 0)
(0 -0.000425893 0)
(0 -0.000294585 0)
(0 1.50179e-05 0)
(0 -0.000169686 0)
(0 -9.67255e-05 0)
(0 1.73694e-05 0)
(0 -0.000136348 0)
(0 8.58658e-06 0)
(0 1.31056e-05 0)
(0 5.98499e-06 0)
(0 -3.21274e-05 0)
(0 -0.000567687 0)
(0 -0.000168578 0)
(0 -0.000368487 0)
(0 -0.000226487 0)
(0 8.96644e-06 0)
(0 -0.000478156 0)
(0 1.27325e-05 0)
(0 -0.000112954 0)
(0 -2.09494e-05 0)
(0 -0.00070829 0)
(0 1.61693e-05 0)
(0 -3.81904e-05 0)
(0 1.75134e-05 0)
(0 -5.47702e-05 0)
(0 1.75343e-05 0)
(0 -0.000267689 0)
(0 -2.64514e-05 0)
(0 3.68639e-06 0)
(0 -6.781e-05 0)
(0 -0.000292482 0)
(0 1.54349e-05 0)
(0 -5.634e-05 0)
(0 1.5751e-05 0)
(0 -0.000480435 0)
(0 -3.44671e-05 0)
(0 -0.000728334 0)
(0 1.75127e-05 0)
(0 1.52563e-05 0)
(0 -1.14789e-05 0)
(0 -0.000710942 0)
(0 -0.000750652 0)
(0 -2.63576e-05 0)
(0 1.76229e-05 0)
(0 -0.000201311 0)
(0 -0.00077699 0)
(0 -7.14157e-05 0)
(0 6.40894e-06 0)
(0 -9.09139e-05 0)
(0 -0.000326387 0)
(0 1.01904e-05 0)
(0 -0.000429231 0)
(0 -0.000158839 0)
(0 -0.000680248 0)
(0 -0.000207365 0)
(0 -0.00062752 0)
(0 1.51566e-05 0)
(0 -0.000612618 0)
(0 -0.000633762 0)
(0 5.02799e-06 0)
(0 1.76322e-05 0)
(0 -0.000311972 0)
(0 -1.39857e-05 0)
(0 -0.000367892 0)
(0 1.03534e-05 0)
(0 -0.000450549 0)
(0 1.47434e-05 0)
(0 -0.000245676 0)
(0 4.80882e-06 0)
(0 -0.000445953 0)
(0 -0.000246931 0)
(0 1.73436e-05 0)
(0 -0.000224971 0)
(0 1.74677e-05 0)
(0 -0.000155991 0)
(0 1.76215e-05 0)
(0 -0.000282519 0)
(0 -0.000568253 0)
(0 -0.000412287 0)
(0 -0.000156473 0)
(0 -0.000121155 0)
(0 -0.00012009 0)
(0 1.75967e-05 0)
(0 -0.000209014 0)
(0 -0.000163916 0)
(0 -1.03609e-05 0)
(0 -8.44879e-05 0)
(0 -0.000340103 0)
(0 -0.000129117 0)
(0 -3.54316e-07 0)
(0 1.76321e-05 0)
(0 -0.000636871 0)
(0 1.67616e-05 0)
(0 -0.00036684 0)
(0 -8.82133e-06 0)
(0 1.74911e-05 0)
(0 -0.000117877 0)
(0 -0.000891549 0)
(0 -0.000422009 0)
(0 -4.35067e-05 0)
(0 1.52414e-05 0)
(0 -0.000143711 0)
(0 -0.000104389 0)
(0 -0.000566294 0)
(0 -9.65493e-05 0)
(0 -0.000539152 0)
(0 1.70978e-05 0)
(0 1.7261e-05 0)
(0 1.76224e-05 0)
(0 -0.000508034 0)
(0 -0.000153887 0)
(0 1.6456e-05 0)
(0 -0.000360013 0)
(0 1.63415e-06 0)
(0 -0.000395078 0)
(0 1.54167e-05 0)
(0 -2.24287e-05 0)
(0 -0.000831814 0)
(0 -7.9543e-06 0)
(0 1.54422e-05 0)
(0 -0.000599297 0)
(0 -0.000166684 0)
(0 -0.000681221 0)
(0 -1.51229e-05 0)
(0 1.5191e-05 0)
(0 1.27949e-06 0)
(0 1.65695e-05 0)
(0 -0.000414818 0)
(0 -0.000387559 0)
(0 1.73437e-05 0)
(0 -0.000317161 0)
(0 -1.45089e-05 0)
(0 -7.97178e-05 0)
(0 -0.000205989 0)
(0 -0.000645952 0)
(0 1.588e-05 0)
(0 -0.00018655 0)
(0 1.60493e-05 0)
(0 -0.000654372 0)
(0 7.29013e-06 0)
(0 -0.000242746 0)
(0 1.62777e-05 0)
(0 -0.000130369 0)
(0 -0.000156488 0)
(0 -0.00016186 0)
(0 1.72362e-05 0)
(0 -0.000539969 0)
(0 -6.71245e-05 0)
(0 1.44756e-05 0)
(0 3.46595e-06 0)
(0 1.75683e-05 0)
(0 1.68784e-05 0)
(0 -0.00029795 0)
(0 -0.000772864 0)
(0 -0.000470724 0)
(0 3.18003e-07 0)
(0 -0.000551487 0)
(0 -1.86597e-05 0)
(0 5.00401e-06 0)
(0 -0.000165094 0)
(0 -2.07719e-05 0)
(0 -0.000418952 0)
(0 -0.000447513 0)
(0 -6.58193e-05 0)
(0 -0.000421667 0)
(0 1.76071e-05 0)
(0 -7.8397e-07 0)
(0 1.49041e-05 0)
(0 -1.65235e-05 0)
(0 -0.000205983 0)
(0 1.76091e-05 0)
(0 -0.000192695 0)
(0 -0.000199005 0)
(0 -0.00035059 0)
(0 -7.02761e-05 0)
(0 -1.55482e-06 0)
(0 -0.000744047 0)
(0 -0.000370008 0)
(0 -0.000142432 0)
(0 -0.000398575 0)
(0 -3.07861e-05 0)
(0 2.54789e-06 0)
(0 1.757e-05 0)
(0 -9.10572e-06 0)
(0 -0.000340401 0)
(0 5.29883e-06 0)
(0 -0.000421864 0)
(0 -0.000575468 0)
(0 -0.000299879 0)
(0 1.55659e-05 0)
(0 5.65991e-06 0)
(0 -3.92088e-05 0)
(0 4.9484e-06 0)
(0 1.42525e-05 0)
(0 -1.6593e-05 0)
(0 1.37836e-05 0)
(0 -0.000392383 0)
(0 -6.97898e-05 0)
(0 1.75153e-05 0)
(0 -0.00038822 0)
(0 1.58019e-05 0)
(0 -0.000503496 0)
(0 -0.000518774 0)
(0 -3.56283e-05 0)
(0 1.62732e-05 0)
(0 -0.000429404 0)
(0 -7.4352e-06 0)
(0 1.69142e-05 0)
(0 9.56133e-06 0)
(0 -0.000276949 0)
(0 -0.000117233 0)
(0 -0.000201022 0)
(0 -0.000171073 0)
(0 1.40298e-05 0)
(0 -0.000311817 0)
(0 -1.62265e-05 0)
(0 1.75558e-05 0)
(0 -0.000230601 0)
(0 -0.000473423 0)
(0 -0.000452462 0)
(0 1.67959e-05 0)
(0 -0.000654081 0)
(0 -0.000896233 0)
(0 1.47288e-06 0)
(0 -0.00027077 0)
(0 -0.000537558 0)
(0 8.0968e-06 0)
(0 -0.000212912 0)
(0 4.413e-06 0)
(0 4.48883e-06 0)
(0 1.76181e-05 0)
(0 1.69136e-05 0)
(0 -0.000738233 0)
(0 -0.000624919 0)
(0 -0.000444118 0)
(0 -0.000308856 0)
(0 8.35713e-06 0)
(0 -0.000297009 0)
(0 1.7085e-05 0)
(0 -0.000188378 0)
(0 1.75037e-05 0)
(0 -0.000186374 0)
(0 -0.000416505 0)
(0 -0.000257479 0)
(0 -0.000380247 0)
(0 -4.92154e-05 0)
(0 -0.000384747 0)
(0 -0.000642762 0)
(0 -3.47803e-06 0)
(0 -0.00050512 0)
(0 -0.000197548 0)
(0 -0.000269837 0)
(0 1.76276e-05 0)
(0 -0.000196711 0)
(0 -0.000776481 0)
(0 -0.000614708 0)
(0 -6.4496e-05 0)
(0 -0.000436816 0)
(0 -0.000264363 0)
(0 -0.00056084 0)
(0 -0.00032582 0)
(0 -0.000621381 0)
(0 -0.000467969 0)
(0 -0.000166982 0)
(0 -5.69704e-05 0)
(0 -0.000144763 0)
(0 1.75036e-05 0)
(0 1.75644e-05 0)
(0 1.75058e-05 0)
(0 -0.000449011 0)
(0 -0.000221493 0)
(0 -0.000754034 0)
(0 -0.000501602 0)
(0 -0.000756744 0)
(0 -0.000426832 0)
(0 -0.000182254 0)
(0 -0.000525941 0)
(0 -9.40191e-05 0)
(0 -0.000314692 0)
(0 -0.000723092 0)
(0 -0.000338885 0)
(0 1.74042e-05 0)
(0 -0.000593131 0)
(0 -0.000513341 0)
(0 1.74692e-05 0)
(0 -0.000156538 0)
(0 -0.000255039 0)
(0 1.74686e-05 0)
(0 1.76204e-05 0)
(0 -0.000433261 0)
(0 1.54368e-05 0)
(0 1.66007e-05 0)
(0 -0.00032204 0)
(0 -7.33398e-06 0)
(0 -0.000199976 0)
(0 -0.000327091 0)
(0 -7.77746e-05 0)
(0 -4.9549e-05 0)
(0 -0.000340069 0)
(0 -0.000201081 0)
(0 -0.000158582 0)
(0 -0.000433122 0)
(0 1.76314e-05 0)
(0 -0.000409139 0)
(0 -4.41675e-06 0)
(0 -0.000173102 0)
(0 -9.08407e-05 0)
(0 1.74317e-05 0)
(0 -0.000140272 0)
(0 -0.0004291 0)
(0 -0.000153785 0)
(0 -0.000154396 0)
(0 -6.41869e-05 0)
(0 1.5754e-05 0)
(0 1.75583e-05 0)
(0 1.51467e-05 0)
(0 7.3533e-06 0)
(0 1.58353e-05 0)
(0 -2.00449e-05 0)
(0 -5.17564e-05 0)
(0 1.62578e-05 0)
(0 7.05576e-06 0)
(0 -0.000206132 0)
(0 -5.71143e-05 0)
(0 -2.57393e-05 0)
(0 -0.00060214 0)
(0 -0.000159625 0)
(0 -0.000173928 0)
(0 -5.32554e-06 0)
(0 -0.000491539 0)
(0 -0.000704361 0)
(0 -8.92913e-06 0)
(0 -0.00042406 0)
(0 1.624e-05 0)
(0 -0.000433226 0)
(0 1.75556e-05 0)
(0 1.31473e-06 0)
(0 -3.77391e-05 0)
(0 -0.00076087 0)
(0 -0.000233668 0)
(0 -5.3636e-05 0)
(0 -2.58708e-05 0)
(0 -0.000262957 0)
(0 -1.52228e-05 0)
(0 9.61814e-06 0)
(0 -1.73621e-05 0)
(0 -4.40093e-05 0)
(0 1.63856e-05 0)
(0 1.61646e-05 0)
(0 -0.000553236 0)
(0 4.71654e-06 0)
(0 -7.68637e-06 0)
(0 1.60836e-05 0)
(0 2.5327e-06 0)
(0 -0.000696105 0)
(0 -7.80863e-05 0)
(0 -0.000133208 0)
(0 -0.000251351 0)
(0 -0.000163846 0)
(0 -0.000360916 0)
(0 -0.000122704 0)
(0 1.56591e-05 0)
(0 -3.63642e-05 0)
(0 -0.000304809 0)
(0 5.43055e-06 0)
(0 7.1432e-06 0)
(0 1.75922e-05 0)
(0 1.6135e-05 0)
(0 -0.000166061 0)
(0 -0.00023991 0)
(0 -0.000827149 0)
(0 -0.000464405 0)
(0 -0.000125546 0)
(0 1.21839e-06 0)
(0 1.74983e-05 0)
(0 -0.000502119 0)
(0 1.64306e-05 0)
(0 -2.44896e-05 0)
(0 1.42772e-05 0)
(0 5.86767e-06 0)
(0 -5.75275e-05 0)
(0 -0.000214656 0)
(0 -0.000256038 0)
(0 1.75737e-05 0)
(0 1.75582e-05 0)
(0 -1.0192e-05 0)
(0 1.70502e-05 0)
(0 -0.000559407 0)
(0 1.58183e-05 0)
(0 -0.000419923 0)
(0 -0.000500397 0)
(0 1.75399e-05 0)
(0 -8.24307e-05 0)
(0 -0.000577966 0)
(0 -0.000632928 0)