/*--------------------------------*- C++ -*----------------------------------*\
| =========                 |                                                 |
| \\      /  F ield         | OpenFOAM: The Open Source CFD Toolbox           |
|  \\    /   O peration     | Version:  v2012                                 |
|   \\  /    A nd           | Website:  www.openfoam.com                      |
|    \\/     M anipulation  |                                                 |
\*---------------------------------------------------------------------------*/
FoamFile
{
    version     2.0;
    format      ascii;
    class       surfaceVectorField;
    location    "400";
    object      ddtCorrDdt0(Uf);
}
// * * * * * * * * * * * * * * * * * * * * * * * * * * * * * * * * * * * * * //

dimensions      [0 1 -2 0 0 0 0];


internalField   nonuniform List<vector> 
14470
(
(0.000604463 -0.00196041 -3.58569e-19)
(0.000594232 -0.00201018 -1.68235e-17)
(0.000530373 -0.00197665 -4.26627e-18)
(0.00408427 0.00522167 -1.46109e-17)
(0.00560357 0.00423962 4.51436e-17)
(0.00022989 -0.000235237 1.97687e-18)
(0.000249146 -0.000226078 6.04809e-18)
(0.000250241 -0.000263152 9.89359e-18)
(-0.00237983 -0.0633618 8.83527e-18)
(-0.00199595 -0.0642213 1.50872e-17)
(-0.00230646 -0.0634721 3.25619e-18)
(2.39786e-06 -0.000128011 -4.27286e-19)
(1.99545e-06 -0.00013171 8.37053e-19)
(3.98645e-06 -0.000188169 1.89029e-18)
(0.0208787 0.0210339 4.86176e-18)
(0.0220596 0.0211456 -8.9939e-18)
(0.021428 0.0201318 1.91944e-17)
(0.0147785 -0.00308918 3.1001e-18)
(0.0150127 -0.00233362 -1.97707e-17)
(0.0158234 -0.00287857 -1.9231e-17)
(-0.0169498 0.00100002 3.41793e-17)
(-0.0163979 0.00129513 8.57424e-18)
(-0.0211466 0.00163482 -3.06014e-17)
(0.00119677 0.00128496 3.80188e-19)
(0.00123055 0.00138083 3.60697e-19)
(0.00130999 0.00127769 7.15468e-19)
(4.61659e-05 -0.000297712 -2.82631e-19)
(3.85021e-05 -0.000279453 -1.62833e-18)
(3.78307e-05 -0.000269265 -9.21321e-20)
(5.00976e-05 -0.000325088 5.91255e-19)
(5.39231e-05 -0.000316593 3.54867e-19)
(0.000262441 0.000111438 -1.65957e-18)
(0.00025521 0.000114668 -4.73698e-19)
(0.000266405 0.000109631 1.21831e-18)
(-0.0531932 -0.034565 -2.62867e-17)
(-0.045736 -0.0386161 1.58486e-17)
(-0.0492698 -0.0361835 4.62771e-19)
(0.00040866 0.000906767 4.85066e-19)
(0.000385062 0.000843778 -8.94168e-20)
(0.000326236 0.000931666 -2.89541e-19)
(-0.00767098 0.00333301 1.10042e-18)
(-0.00823289 0.00370066 -5.21289e-18)
(-0.00824808 0.00292928 -8.21222e-18)
(0.00959469 0.0119972 -1.49466e-17)
(0.0104559 0.0122293 -2.66818e-18)
(0.0103388 0.0113104 -3.8748e-18)
(0.000311096 -0.000154656 4.74112e-18)
(0.000327803 -0.000158808 -3.03773e-19)
(0.000319108 -0.000132229 1.78124e-18)
(0.00428169 -0.0481704 1.30912e-17)
(0.00477593 -0.0501754 -7.51777e-19)
(0.00209462 -0.0498729 4.15022e-18)
(-0.000194434 0.00023611 -3.01016e-19)
(-0.000201761 0.00021037 -5.11501e-19)
(-0.000212895 0.00021902 5.03562e-19)
(-0.000342549 0.000552135 3.9422e-19)
(-0.000391693 0.000541987 4.47785e-19)
(-0.000359641 0.000506048 9.4558e-19)
(-6.62572e-07 -3.70669e-05 -7.20735e-19)
(2.64202e-07 -3.73074e-05 3.78074e-19)
(-0.00304668 -0.0585982 -1.19064e-18)
(-0.00197495 -0.05824 2.68917e-18)
(-0.00194112 -0.060194 1.11235e-17)
(-0.0140588 0.00205268 7.90894e-18)
(-0.0203561 0.00140886 -1.37953e-17)
(-0.0557191 -0.0305716 4.71757e-18)
(-0.0603705 -0.0329891 4.80405e-18)
(0.00191273 -0.00327013 -5.2629e-18)
(0.00190216 -0.00314276 5.24952e-18)
(0.00174519 -0.00323697 5.26606e-18)
(0.00015063 -0.000377918 -1.74664e-18)
(0.000159445 -0.000355843 5.04886e-19)
(0.000146656 -0.000374394 -1.40614e-19)
(2.48809e-06 -3.2205e-05 7.69638e-19)
(2.70835e-06 -3.82426e-05 -7.87293e-19)
(5.60576e-06 -4.91759e-05 -3.32501e-18)
(-0.000178026 0.000242637 -1.23218e-19)
(-0.000193007 0.000256708 -1.66121e-19)
(0.0161552 0.0057558 -4.29589e-18)
(0.0168209 0.00621018 -1.18156e-17)
(0.0169774 0.00523997 -7.57935e-18)
(-0.0311686 -0.00136377 3.69353e-17)
(-0.030825 -0.00153367 1.63006e-17)
(-0.032623 -0.000900499 -8.8188e-18)
(0.0242028 0.0184622 1.68835e-17)
(0.0244125 0.018131 -2.39946e-17)
(0.0246797 0.0177448 1.80185e-20)
(0.00017449 -0.000274313 2.04211e-18)
(0.000162415 -0.000282946 1.74477e-18)
(0.000178803 -0.000245397 2.92123e-18)
(0.000316226 -3.14077e-05 1.66623e-18)
(0.000324162 -3.79122e-05 8.13212e-19)
(0.000327946 -2.4597e-05 -1.01285e-18)
(3.26767e-05 1.01293e-05 7.43817e-19)
(3.69807e-05 1.02346e-05 -3.68818e-19)
(5.17128e-05 7.41464e-06 1.07122e-18)
(-0.000508613 0.00859046 -2.74552e-18)
(-0.000189581 0.00831916 -7.92716e-18)
(-0.00010267 0.00889374 1.59784e-18)
(-0.00574913 0.00295046 1.1628e-18)
(-0.00527419 0.00304649 -5.974e-18)
(-0.00533641 0.00259095 8.21168e-19)
(-0.000171621 -0.00325286 1.83714e-17)
(-0.000226157 -0.00334967 -1.9508e-17)
(-4.50146e-05 -0.00334208 1.59088e-17)
(0.0128707 -0.0612458 2.65954e-18)
(0.00519062 -0.0610899 -9.40969e-18)
(0.0143223 -0.0545992 2.60428e-17)
(0.00536271 0.00614022 -4.05424e-18)
(0.00498349 0.00591838 3.09924e-18)
(0.00492197 0.00643561 3.81327e-18)
(0.0154127 0.00514422 3.32957e-18)
(0.015223 0.00604884 4.45104e-18)
(0.0659195 0.012572 3.72e-17)
(0.0622416 0.0103897 -2.40208e-17)
(0.0653588 0.00797188 5.84985e-17)
(-0.0252352 -0.0117681 -1.2952e-17)
(-0.0250617 -0.00692179 -8.5808e-18)
(-0.0296306 -0.00926272 2.91744e-18)
(6.01158e-07 -1.91947e-05 9.77823e-19)
(2.14857e-06 -2.96735e-05 1.28181e-18)
(2.0597e-05 -0.000227074 -1.34113e-18)
(2.70015e-05 -0.000232316 3.34739e-18)
(1.04222e-05 -0.000233171 -6.78909e-19)
(3.93054e-05 -0.000429895 -2.30318e-18)
(4.10516e-05 -0.000462264 -2.42465e-19)
(2.40155e-05 -0.000465083 -7.6038e-19)
(-0.0297698 0.0035867 -2.79333e-17)
(-0.0300764 0.00314217 -5.10839e-18)
(-0.0297456 0.00370358 -3.13708e-17)
(1.44552e-06 -6.63867e-05 -3.24335e-18)
(2.66996e-06 -3.10424e-05 -1.44871e-18)
(3.25798e-06 -2.91772e-05 1.99087e-18)
(-0.000973952 0.000361455 -3.92662e-19)
(-0.000945638 0.000278872 -1.79808e-18)
(-0.0010359 0.000294977 -4.12127e-19)
(0.00029261 -0.000144379 4.80671e-18)
(0.000302718 -0.000171397 1.12313e-18)
(-0.000989542 0.00902915 2.84636e-18)
(-0.00106746 0.00835494 1.76787e-18)
(2.77548e-05 1.22928e-05 2.22414e-19)
(2.98986e-05 9.8606e-06 -5.52239e-19)
(0.00395631 0.0106796 -7.64119e-18)
(0.00460081 0.0108564 3.86365e-18)
(0.00384925 0.0112021 5.23821e-21)
(8.58954e-06 -0.00010165 -9.73392e-19)
(6.51496e-06 -0.000111746 -3.86731e-18)
(0.00340343 -0.00436568 -1.09076e-18)
(0.00348844 -0.00412062 2.25588e-19)
(0.00368486 -0.0043416 -6.74152e-18)
(-0.00246065 -0.0633585 -1.68397e-17)
(-0.00317974 -0.062495 -3.75598e-18)
(0.000235758 0.00011973 1.21058e-19)
(0.000232598 0.000117006 -8.71712e-19)
(0.000228031 0.000120274 -1.68928e-18)
(0.00628043 0.0277625 4.31604e-18)
(0.00570816 0.0289732 -4.37958e-18)
(0.00486159 0.0278919 -8.19871e-18)
(-0.000912709 0.000410774 7.52255e-19)
(-0.000995875 0.000438031 3.12003e-19)
(1.7728e-06 -3.33363e-05 1.28092e-18)
(0.000469595 -0.00366531 3.79077e-18)
(0.000421683 -0.00376177 -1.46136e-18)
(0.000322008 -0.00366728 -6.0924e-18)
(0.00528454 -0.00920421 3.39472e-18)
(0.00566216 -0.00926397 -1.00961e-17)
(0.00527211 -0.00975476 2.96309e-18)
(0.000253761 -0.00016311 -2.7032e-18)
(0.000243347 -0.000174647 1.66334e-19)
(0.000237661 -0.000158047 4.40389e-18)
(-0.00705523 0.0132577 7.36778e-18)
(-0.00615132 0.0127044 1.46811e-18)
(-0.00726628 0.0123402 -1.97467e-19)
(9.12224e-05 1.95596e-05 -7.06212e-19)
(8.67153e-05 2.00809e-05 3.2911e-19)
(8.88019e-05 2.52e-05 7.87525e-19)
(0.00117447 0.00116401 -7.93712e-19)
(0.00110108 0.00126938 -5.3599e-19)
(-0.0264278 0.00165982 8.95787e-18)
(-0.0248385 0.00193668 -7.30847e-18)
(0.00133535 0.00443169 8.72987e-18)
(0.00138486 0.00418345 1.80923e-18)
(0.00162476 0.00435483 -1.22045e-19)
(-0.00621915 0.00278573 1.79359e-18)
(-0.00667135 0.0025643 -2.88352e-18)
(-0.00621549 0.002211 -1.41087e-18)
(0.0210806 -0.0285149 1.11252e-17)
(0.0261575 -0.0254888 -8.40887e-18)
(0.0222473 -0.0232048 2.49591e-17)
(0.000411349 -0.00123619 5.69664e-18)
(0.000380484 -0.00129004 4.83241e-18)
(0.000370096 -0.00119596 2.97014e-18)
(-0.000543657 -0.00877541 -1.73582e-17)
(-0.000671886 -0.0089933 1.31253e-17)
(-0.000381369 -0.00900456 -2.99747e-17)
(-0.0248294 0.00239556 4.97326e-18)
(-0.0214491 0.00192116 -5.05964e-17)
(-0.0254596 0.00258355 -2.87908e-17)
(0.201256 0.110844 -3.92801e-20)
(0.185917 0.131278 1.19844e-17)
(0.21979 0.107924 -4.71949e-19)
(0.0627781 -0.0109619 5.13112e-18)
(0.0589807 -0.0175534 3.6215e-17)
(0.0691893 -0.0121919 -2.41056e-17)
(2.44322e-06 -7.19207e-05 -3.69977e-19)
(2.61388e-06 -8.12467e-05 -1.57103e-18)
(7.52715e-06 -0.000105946 -1.29781e-18)
(0.00232454 -0.00679762 -2.60727e-18)
(0.0026685 -0.00664986 8.90475e-18)
(0.00232803 -0.0064827 2.66401e-17)
(0.0428745 0.010422 -1.07024e-17)
(0.0428107 0.00687085 -1.99844e-17)
(0.0398046 0.00909927 1.93957e-17)
(0.000146205 -0.00019969 9.2849e-19)
(0.000157809 -0.000191236 2.34807e-18)
(0.000157 -0.00019595 2.89195e-18)
(4.46281e-06 -0.000119052 9.94538e-19)
(3.58784e-06 -0.000114333 -3.66293e-18)
(1.24268e-06 -7.39478e-05 3.56935e-18)
(0.00235373 -0.00694548 -2.54332e-17)
(0.00208468 -0.00683949 -3.93511e-17)
(0.00257081 -0.0452637 -2.30033e-17)
(0.00617233 -0.0463635 -2.26991e-17)
(0.0088301 0.0116631 5.76456e-18)
(0.0089112 0.0125252 -1.263e-17)
(0.00288709 -0.00112894 7.89466e-19)
(0.00298652 -0.000979647 -2.95841e-18)
(0.00283422 -0.000955736 1.06176e-18)
(-0.00611555 0.00334144 2.00489e-18)
(0.0281645 0.00807324 2.06533e-17)
(0.0276596 0.00632649 6.20337e-18)
(0.0267058 0.00791268 -3.79559e-18)
(4.73564e-06 -0.000122648 -1.37235e-18)
(2.32519e-06 -0.000170147 6.75238e-19)
(-0.00707246 0.0300424 -2.31805e-17)
(-0.00767532 0.0280595 1.20462e-17)
(-0.00919322 0.029529 -2.52537e-17)
(0.0134002 -0.0600203 2.05644e-17)
(0.00894855 -0.0596996 -5.09992e-18)
(0.00509299 -0.0088137 3.18902e-17)
(0.00474172 -0.00936105 1.63627e-17)
(-0.00592324 -0.0573917 -5.44036e-18)
(-0.00468674 -0.0586807 2.60903e-18)
(-0.00530709 -0.0589888 3.74377e-17)
(0.044671 0.00217416 -1.19229e-17)
(0.0442532 0.00501559 -2.12422e-17)
(0.0445637 0.00567968 2.45322e-17)
(0.0460252 0.000751295 -1.07093e-17)
(0.0437251 0.000994326 -1.96728e-17)
(0.00921928 0.00370607 1.10735e-18)
(0.00987662 0.00369384 -1.08649e-18)
(0.0094543 0.00427978 -1.20317e-17)
(-0.0222389 -0.0190749 4.82563e-17)
(-0.0197249 -0.0144875 1.55838e-17)
(0.000408479 -0.000161962 -1.83014e-19)
(0.000428775 -0.000170044 -2.74011e-18)
(0.000401951 -0.000127186 1.26385e-18)
(0.0570868 -0.00924301 -6.64249e-18)
(0.0713275 -0.00395676 -1.17493e-17)
(0.011128 0.00930914 6.77114e-18)
(0.0108512 0.00865739 -2.17172e-17)
(0.0103513 0.00929467 -4.90273e-18)
(0.00317524 0.00297753 3.22972e-18)
(0.00330558 0.00316119 -4.65317e-18)
(0.00342782 0.00291311 -3.67072e-18)
(1.75972e-06 -7.96494e-05 6.30669e-19)
(3.03262e-06 -0.00013274 -5.94999e-20)
(-0.0119795 -0.0572958 -1.60298e-17)
(-0.0136457 -0.0567426 -6.99797e-18)
(-0.0151185 -0.0557007 -5.61908e-18)
(0.00415178 0.0100634 1.96959e-18)
(0.00340838 0.0104324 -1.98569e-18)
(0.0410759 0.203565 6.64935e-18)
(0.02336 0.209166 3.79075e-17)
(0.030932 0.221289 2.41044e-17)
(1.3479e-05 -0.000222301 -5.5082e-18)
(3.14639e-05 -0.000224628 -2.94821e-18)
(0.0935442 -0.0278877 -2.42652e-17)
(0.0842609 -0.0325428 6.57173e-18)
(0.0847012 -0.0299873 3.57805e-18)
(0.0407962 0.00360118 -1.53951e-17)
(0.0353815 0.00262775 2.38954e-17)
(0.0370451 0.00131949 -3.84776e-17)
(0.198891 0.0889314 6.05546e-19)
(0.181221 0.109032 -4.63948e-19)
(0.000140589 9.67115e-05 8.6059e-19)
(0.000147804 9.7862e-05 -6.01953e-19)
(0.000147271 0.000104166 9.94535e-19)
(0.000135848 -0.00020346 2.03173e-19)
(0.000133799 -0.000215514 8.31291e-18)
(-1.48646e-06 -3.51359e-05 2.70782e-18)
(1.071e-05 -9.16058e-05 5.38255e-19)
(1.24217e-05 -8.78357e-05 -4.62384e-19)
(1.58686e-05 -0.000108751 9.9179e-20)
(-0.00388643 -0.0584877 -1.65679e-17)
(-0.0041377 -0.0567001 1.35306e-17)
(0.000669807 -0.0107329 -3.70807e-17)
(2.16967e-05 -0.010993 7.47505e-17)
(0.000910338 -0.0104081 1.01034e-16)
(-0.0176965 -0.00404141 -3.60037e-17)
(-0.0192593 -0.00381973 -3.97765e-17)
(-0.0176486 -0.00246173 -7.15262e-17)
(0.000394866 -0.00122115 3.4447e-18)
(0.000414395 -0.00122261 -1.3646e-18)
(0.000108514 -0.000566759 -1.47843e-18)
(0.000119194 -0.000551506 2.12724e-18)
(0.00011311 -0.000557077 -2.77326e-18)
(-0.00620585 -0.000859292 1.55393e-18)
(-0.00588638 -0.00129975 2.81432e-18)
(-0.00658568 -0.00142215 -3.75491e-18)
(6.14565e-05 -0.000465907 8.8678e-19)
(5.93122e-05 -0.000504581 -1.08737e-18)
(6.89119e-05 -0.000457833 7.96347e-19)
(-0.00243612 -0.0633591 -4.76107e-17)
(-0.00321717 -0.0625817 8.78102e-18)
(-0.0021291 -0.0633819 -3.47865e-17)
(3.97123e-06 -0.000390476 1.19979e-18)
(1.73629e-05 -0.000378395 6.08876e-18)
(1.12161e-05 -0.000360284 -1.77012e-18)
(0.0816115 -0.0363943 -1.8498e-17)
(0.086206 -0.0359601 -4.15414e-17)
(0.0730121 -0.0407621 -5.5249e-17)
(-0.00621455 0.0317866 1.06695e-17)
(-0.00477919 0.0302882 -1.50179e-17)
(0.0904817 0.00661486 2.22093e-17)
(0.079938 0.00273106 1.43605e-17)
(0.0789637 0.00436543 4.87982e-17)
(0.00269657 0.0146209 3.36815e-17)
(0.00226052 0.0154105 -4.86277e-18)
(0.00181353 0.0146255 3.09421e-17)
(-0.00478747 0.00319765 -1.62061e-18)
(-0.00513159 0.00357754 -3.79093e-18)
(-6.22884e-06 -0.000399356 -9.23397e-18)
(5.37045e-08 -0.000432254 -1.24448e-18)
(0.011704 0.010691 -6.24024e-18)
(0.0121753 0.0113065 -2.43156e-18)
(0.0125996 0.0104767 -2.28059e-18)
(-0.0316197 -0.00115587 4.03563e-17)
(-0.0299668 -0.00158449 2.54021e-17)
(-0.000345818 0.0522623 -8.56538e-18)
(-0.000932369 0.0503888 -3.74065e-17)
(0.00131043 0.0498308 -4.86201e-17)
(-0.00097886 0.0547546 3.25291e-17)
(-0.00199285 0.0558366 3.61194e-17)
(-0.00178441 0.00440223 5.15918e-18)
(-0.00207306 0.00422359 -7.14305e-19)
(-0.00178915 0.00411365 3.43572e-19)
(0.000362741 -4.04933e-06 1.17865e-19)
(0.000349535 8.60504e-06 -1.05423e-18)
(0.000337116 -2.41593e-07 -7.10813e-19)
(0.00062241 -0.00186147 7.78683e-18)
(0.000694781 -0.00194236 9.04085e-18)
(0.000986087 0.0038586 -1.73087e-18)
(0.00106735 0.00365293 2.92058e-19)
(0.000823297 0.00369852 -3.27995e-19)
(-1.78259e-05 0.00794377 -2.20177e-18)
(-0.000318493 0.00754784 1.40392e-18)
(0.000238791 0.00745781 4.4708e-18)
(0.0214466 -0.00205634 -5.12548e-18)
(0.0204854 -0.00271587 5.44317e-18)
(0.0217515 -0.00342948 1.49469e-17)
(0.0241828 0.0299562 1.14207e-17)
(0.0234955 0.0320018 -1.25621e-17)
(0.0228914 0.0309084 2.96162e-18)
(-0.00657941 -0.000494424 6.95593e-18)
(-0.00592918 -0.000391427 -2.51413e-18)
(2.94774e-06 -6.68357e-05 6.29972e-20)
(3.48457e-07 -4.24683e-05 8.85797e-19)
(0.0105677 0.0140306 -3.40571e-19)
(0.0107928 0.0146134 6.01998e-18)
(0.0113873 0.013912 7.82954e-18)
(0.00236364 -0.0392747 1.92807e-17)
(0.00186574 -0.0419735 1.03334e-17)
(0.00563516 -0.0412318 3.2199e-17)
(0.000357619 0.00815599 -3.20022e-18)
(0.000713332 -0.00103413 -3.29827e-18)
(0.000790589 -0.00103182 1.20991e-18)
(0.000713844 -0.00094708 7.68996e-19)
(-0.00679594 0.0236329 1.94595e-17)
(-0.00814564 0.0245926 1.22998e-18)
(-0.00826862 0.0229888 6.28619e-18)
(-0.029391 0.00414202 -2.05197e-17)
(-0.0293609 0.00467031 -7.99101e-18)
(-0.0299808 0.00446464 -9.54405e-18)
(0.0136848 -0.0135885 -2.58362e-17)
(0.0133578 -0.0134514 2.75475e-17)
(0.0133298 -0.0139074 1.3205e-17)
(-1.70262e-05 -0.00039766 -3.10959e-18)
(-2.12252e-05 -0.000433151 -7.71351e-19)
(0.0556784 -0.00829316 -2.45857e-17)
(0.0513113 -0.0140664 1.87564e-18)
(0.000374682 -1.15058e-05 1.10647e-18)
(0.000387354 -7.49294e-06 4.77904e-19)
(-1.62941e-05 -0.00036648 -1.39807e-17)
(0.00018825 -0.000377083 -1.64453e-18)
(0.000177384 -0.000399273 7.03042e-19)
(0.000172738 -0.000425834 -2.48559e-20)
(-0.0169589 0.00175458 1.21243e-17)
(-0.0302212 0.0062471 -2.22775e-17)
(-0.0224119 0.00545581 1.12347e-17)
(0.00304904 0.00273748 4.97028e-18)
(0.00291077 0.00296624 2.54695e-18)
(0.000140405 -0.000397144 -1.31212e-18)
(0.000158073 -0.000380544 1.66227e-19)
(8.06532e-05 -0.00068623 -4.14337e-19)
(0.000101635 -0.000677427 -2.90125e-18)
(9.97039e-05 -0.000743761 -4.8892e-18)
(0.0446771 -0.0047818 -5.33127e-19)
(0.0434585 -0.00465527 2.98495e-17)
(0.0426909 -0.00953029 2.70811e-17)
(0.0104451 0.013139 -6.55129e-18)
(0.0112582 0.012363 1.86379e-17)
(0.000266424 -0.000149516 5.3677e-19)
(0.000271217 -0.000175871 -1.17295e-18)
(0.0238477 0.0184569 -1.64501e-17)
(0.0232802 0.018442 3.86835e-17)
(0.000412232 -0.000932078 -2.46602e-18)
(0.000400154 -0.000859502 9.87176e-18)
(0.000437 -0.000893559 9.01629e-18)
(-0.00789835 0.0262449 2.21448e-17)
(-0.00619147 0.0268338 3.11401e-17)
(-0.00178689 0.00471131 -2.35776e-18)
(-0.0015051 0.00454262 2.47673e-18)
(-0.000340657 0.000590322 1.20399e-18)
(-0.000307765 0.000561812 -3.77876e-19)
(0.00246493 -0.0112689 1.41976e-17)
(0.00259156 -0.0115591 2.64154e-17)
(0.00221493 -0.0115232 -4.17631e-17)
(-0.00120349 0.00162835 -1.58323e-18)
(-0.00110724 0.00175496 2.68869e-18)
(-0.00105263 0.0016299 1.73021e-18)
(0.0446611 0.0114383 2.14852e-17)
(0.0420697 0.0134823 2.97831e-18)
(0.00176182 0.214321 -8.93221e-18)
(-0.0232222 0.217188 -3.42344e-17)
(-0.0129368 0.23337 -2.89899e-17)
(-0.00105547 0.002168 7.39732e-19)
(-0.000915044 0.00227029 2.17233e-19)
(-0.00090189 0.00211347 -1.71855e-18)
(0.000132464 9.55263e-05 -8.87495e-20)
(0.000125653 9.40124e-05 4.9539e-19)
(0.000132557 0.000101303 -5.63351e-19)
(2.83539e-05 -0.000255449 4.21758e-19)
(2.13729e-05 -0.000219736 -1.68762e-18)
(2.16397e-05 -0.000226285 3.08925e-18)
(0.000666013 -0.00104049 -2.82946e-18)
(0.00072074 -0.00110663 -3.91954e-19)
(-0.00200955 -0.000817715 2.28356e-17)
(-0.00174094 -0.00124886 4.52025e-17)
(-0.00233916 -0.00135817 1.18563e-17)
(-0.0350418 0.0146476 -9.43351e-17)
(-0.0360446 0.014322 4.37998e-17)
(-0.0359252 0.0151385 -4.92144e-17)
(0.00884498 -0.0377857 3.90576e-17)
(0.00330057 -0.0405607 4.60578e-19)
(0.0127999 -0.042273 2.01486e-17)
(0.000270888 0.000103395 1.45961e-19)
(0.000258519 0.000105994 4.10371e-19)
(0.019717 0.0207393 -2.66624e-17)
(0.0201405 0.0218913 -6.52277e-18)
(0.0105092 -0.00994627 -2.95648e-18)
(0.0111626 -0.00949197 6.81903e-18)
(0.0104562 -0.0091893 1.88037e-18)
(0.00211985 -0.0122597 1.97479e-17)
(0.00176484 -0.0122906 2.43368e-17)
(0.00188004 -0.0120324 -5.46652e-18)
(0.000170593 -0.000182269 2.85872e-18)
(0.000184151 -0.000173796 -1.31821e-19)
(0.000187606 -0.000173585 -3.2441e-18)
(0.000823641 0.00457035 -5.07728e-18)
(0.00109448 0.00450364 2.33513e-19)
(0.000833798 0.00433947 -1.04633e-17)
(0.101041 -0.0193675 2.90926e-17)
(0.10486 -0.0230498 -4.87375e-17)
(-0.0277021 0.00335155 -3.43421e-17)
(-0.00736906 0.0331009 6.84519e-18)
(-0.00525013 0.0333425 -1.46189e-18)
(4.84681e-05 -0.000401112 -1.76279e-18)
(3.14397e-05 -0.000393135 2.21834e-18)
(3.36976e-05 -0.000563077 3.01393e-18)
(3.02148e-05 -0.00056963 -6.4007e-19)
(5.05307e-05 -0.000578494 1.9709e-18)
(0.000133667 9.01077e-05 5.754e-19)
(0.101468 0.0113864 -1.66813e-17)
(0.10297 0.0110152 3.06089e-18)
(-0.0245719 0.00232 1.01755e-17)
(-0.027088 0.00279752 6.7836e-17)
(-0.0282775 0.00597555 -1.92667e-17)
(-0.0176575 0.00242849 -2.29103e-17)
(0.0555001 0.199436 -2.99106e-17)
(0.0492231 0.18794 -3.77782e-18)
(0.0011328 0.00104028 2.66091e-19)
(0.00108818 0.000944043 -2.90612e-20)
(0.00103459 0.00105981 -3.68754e-19)
(0.01244 -0.0620788 -2.12775e-17)
(0.00236813 -0.0596549 1.02334e-17)
(0.00924058 -0.0681212 -1.62976e-17)
(7.03141e-05 -0.0102203 -6.70372e-18)
(0.00026232 -0.0105883 -2.56419e-17)
(0.000554807 -0.010106 2.3799e-17)
(0.000674712 -0.00342569 4.94113e-18)
(0.000514788 -0.00344282 -2.28861e-18)
(0.000557335 -0.00330435 -2.00347e-18)
(-0.0012439 -3.41396e-05 5.59424e-19)
(-0.00119426 5.41479e-05 2.74212e-18)
(-0.00114411 -3.43159e-05 -6.92753e-19)
(0.00199196 -0.00187826 8.3099e-18)
(0.00191481 -0.001807 -2.42423e-18)
(0.00185832 -0.00192344 4.98544e-18)
(-0.000668207 -0.0114343 2.23518e-17)
(-0.000754351 -0.0115688 -3.65031e-18)
(-0.000312151 -0.0116601 -9.59543e-18)
(-8.86529e-05 0.000211705 3.3204e-20)
(-0.000102266 0.000219508 1.0424e-19)
(-8.95887e-05 0.000222691 -1.95972e-19)
(0.000337157 -0.000185731 -1.60019e-18)
(0.000338119 -0.000159879 -2.35401e-18)
(2.90964e-05 -0.000421152 5.69834e-19)
(3.20748e-05 -0.000409841 2.45191e-18)
(2.34322e-05 -0.000367195 5.0435e-18)
(0.000390973 -0.00135393 2.11697e-18)
(0.000397829 -0.00142492 -3.67222e-19)
(0.000440058 -0.00137379 2.19251e-18)
(-0.000511639 0.000485531 -1.33565e-18)
(-0.000533382 0.000442821 -1.35548e-19)
(-0.000497796 0.000437652 -7.71168e-19)
(-0.00190505 0.00913062 -2.76727e-18)
(-0.00134447 0.00938169 4.02763e-18)
(-0.00179191 0.009816 4.0324e-18)
(-0.00308208 0.00527086 -1.26991e-18)
(-0.0030399 0.00562527 -9.19842e-19)
(-0.00339257 0.00537012 -1.52458e-18)
(0.00593324 -0.0610578 2.41536e-17)
(0.00352979 -0.0625591 -7.81176e-18)
(0.00487305 -0.06065 1.58998e-17)
(5.25086e-05 -0.000948693 5.28109e-18)
(8.50177e-05 -0.000991957 1.40057e-18)
(8.57961e-05 -0.000920334 -6.26944e-20)
(0.00423121 0.00569072 -5.78163e-19)
(0.0038847 0.00558438 -5.6766e-18)
(0.00420059 0.00530462 -1.41711e-17)
(-0.00117513 0.00206425 4.77252e-19)
(-0.00121287 0.00222212 2.03781e-18)
(0.00113673 -0.00169495 -4.8682e-18)
(0.00105145 -0.00170618 1.99718e-18)
(0.00111761 -0.00164339 2.97369e-18)
(0.00519137 -0.0134423 2.44011e-18)
(0.00456055 -0.0134093 -1.90845e-18)
(0.00491362 -0.0141347 4.18364e-18)
(0.00978137 0.0137675 -3.02355e-18)
(0.00248507 -0.0366642 -9.00028e-18)
(-0.00107334 -0.0372774 -4.68705e-17)
(-3.92033e-05 0.000167138 -7.60579e-20)
(-4.05947e-05 0.000157715 8.24417e-20)
(-2.90012e-05 0.000153482 -6.62328e-21)
(0.0204088 -0.0310323 -4.45422e-18)
(0.0178705 -0.0302962 7.16762e-18)
(0.00277805 -0.00125379 -2.62586e-18)
(0.00293252 -0.00129772 -1.28431e-18)
(-0.0269733 0.00345633 -3.09983e-18)
(-0.0295629 0.00437327 3.75493e-18)
(-0.0288553 0.0016473 -9.72871e-18)
(0.000473392 0.0008848 4.11093e-19)
(0.000440262 0.000965248 1.0037e-18)
(0.0225638 -0.00142379 -1.02292e-17)
(0.0213142 -0.000855486 1.57885e-18)
(9.86776e-05 -0.000564785 -9.54247e-19)
(9.75686e-05 -0.000578577 -1.74028e-18)
(0.000848116 -0.0071851 1.37411e-17)
(0.000718167 -0.00695193 -3.38286e-18)
(0.000532079 -0.00725481 4.41557e-18)
(0.0113517 0.00995218 5.97473e-18)
(0.0118542 0.00922927 1.43732e-17)
(-0.000470224 0.000506391 -4.35239e-20)
(-0.000504715 0.000539457 -1.25245e-18)
(-0.00164576 -0.0117021 2.36922e-17)
(-0.00209275 -0.0118728 7.46868e-18)
(-0.00186073 -0.012144 1.50138e-18)
(-0.000469531 -0.0104538 3.61713e-18)
(0.00892371 -0.0054771 -1.69638e-17)
(-0.00344301 -0.000989007 -1.42913e-17)
(0.00912704 0.00321441 6.82386e-18)
(0.00877708 0.00373182 1.54151e-17)
(0.000494947 -0.000253008 4.01244e-18)
(0.000465979 -0.000247354 1.4935e-18)
(0.000498657 -0.000300785 1.54404e-18)
(0.00309751 0.0179116 7.36662e-18)
(0.00343397 0.017046 -2.26277e-19)
(0.00423205 0.0177198 2.41014e-18)
(-0.0277055 0.0648641 1.03102e-18)
(-0.0224197 0.0514101 -4.94608e-17)
(-0.0110169 0.06272 2.22457e-17)
(0.00132462 -0.00706739 -3.5478e-18)
(0.0010656 -0.0071403 -2.43244e-19)
(0.00121375 -0.00686458 -2.72615e-17)
(0.00136319 -0.00726445 -1.20268e-17)
(0.00153057 -0.00701487 8.45625e-18)
(0.000943879 -0.0639121 1.91856e-17)
(0.000878293 -0.0631871 -4.68102e-17)
(-0.000388701 -0.0635904 -3.44103e-17)
(-0.00320739 0.0431852 7.76743e-18)
(-0.00503881 0.0451001 3.38094e-18)
(-0.00161196 0.0453707 2.50859e-18)
(-0.0251269 0.00474609 4.74966e-19)
(-0.0247565 0.00236458 1.21581e-18)
(-0.00783212 0.0138827 -2.03163e-18)
(-0.00661354 0.0141222 2.78483e-18)
(0.000111513 -0.0100838 3.9943e-18)
(1.4746e-06 -0.0101627 -4.13847e-17)
(-0.000694593 -6.16252e-05 6.94837e-19)
(-0.000709935 -0.000126405 6.99098e-19)
(-0.000662247 -0.00011969 1.70876e-18)
(0.00740717 -0.0549725 1.13249e-17)
(-0.0161552 -0.00533403 3.24367e-17)
(-0.0160013 -0.00414428 4.75782e-18)
(-7.78422e-05 0.00019837 -7.91408e-20)
(-9.27821e-05 0.000203464 1.34535e-19)
(1.61677e-05 -0.00034282 1.19045e-18)
(1.44388e-05 -0.000348445 4.94297e-19)
(1.07012e-05 -0.000290331 -2.30331e-18)
(0.0700087 0.0145952 -1.46751e-17)
(0.0609878 0.0169634 2.55138e-17)
(0.00049729 -0.00071496 -1.82535e-18)
(0.00051363 -0.000686303 -5.8774e-19)
(0.000531411 -0.000751066 -3.12492e-18)
(8.55479e-06 -8.0557e-05 -4.59474e-20)
(1.12651e-05 -0.000100229 -4.17084e-19)
(0.00426695 0.03273 2.02337e-17)
(0.0057587 0.0325336 7.55188e-18)
(0.00456627 0.0313339 -6.51336e-18)
(0.00710847 0.032336 -7.07303e-18)
(0.00758624 0.0309865 -8.88962e-18)
(0.00872724 0.0321133 3.83094e-17)
(0.00123713 0.00104603 4.62313e-19)
(0.000615327 0.00467221 2.59558e-18)
(0.000845578 0.0048468 1.6424e-19)
(0.00460133 0.00578905 6.24304e-18)
(0.00424539 0.00607447 5.85217e-18)
(0.00597697 -0.00382003 -2.31476e-18)
(0.00563751 -0.00390141 8.75924e-18)
(0.00589888 -0.00415185 2.56721e-18)
(-2.59116e-05 0.00499715 -1.11035e-18)
(-0.00015368 0.00474806 -2.44527e-18)
(-0.000326244 0.00492991 -8.16529e-18)
(0.000162318 -0.000188586 1.78741e-18)
(0.0102534 3.86791e-05 -4.41281e-19)
(0.0102043 0.0004841 -4.2085e-18)
(0.00974546 0.000194565 2.94378e-18)
(0.000433725 -0.0641209 1.30381e-18)
(-5.21717e-05 -0.0641303 1.28798e-17)
(0.000982782 -0.0634363 7.18413e-18)
(-0.000433036 0.000526363 1.13438e-18)
(-0.000440634 0.000476399 1.53759e-18)
(0.0046785 -0.0261826 -2.55397e-17)
(0.00664787 -0.0326701 2.30513e-17)
(-0.00403293 -0.0292776 -4.25926e-17)
(6.422e-06 -0.000137611 6.58154e-19)
(7.97477e-06 -9.5339e-05 7.9439e-19)
(6.90113e-05 -0.000367219 -1.60972e-18)
(5.94263e-05 -0.000351828 1.13169e-18)
(6.77949e-05 -0.000380873 3.04851e-18)
(-2.97594e-05 2.67345e-05 2.20682e-19)
(-1.99906e-05 2.96612e-05 -1.27483e-19)
(-2.83822e-05 3.23565e-05 -3.25546e-19)
(-0.00174281 -0.064073 1.44693e-17)
(-3.11137e-05 -0.000225635 -1.37593e-18)
(-2.38396e-05 -0.000221642 4.46399e-18)
(-1.39247e-05 -0.000226231 -2.36967e-20)
(0.0452828 -0.00129367 -3.33554e-18)
(0.0381089 -0.00614444 -4.56301e-18)
(0.0409312 -0.033159 -7.42884e-19)
(0.0450945 -0.0294154 1.42707e-17)
(0.0465846 -0.0325899 -1.89825e-17)
(0.000108858 -0.000216172 1.4455e-18)
(0.000109661 -0.000229098 -1.40188e-19)
(0.000119173 -0.000211197 4.08952e-19)
(8.97198e-05 -0.000554469 1.08152e-18)
(0.000101839 -0.00054962 2.39791e-18)
(0.0354432 0.0233196 3.05121e-17)
(0.0345716 0.0232293 -2.76751e-17)
(0.0358772 0.0211918 1.95753e-17)
(-3.76031e-05 1.94524e-05 -6.15633e-20)
(-4.75423e-05 2.10625e-05 -1.41823e-20)
(9.7441e-06 -0.000203159 -1.31586e-18)
(9.79184e-06 -0.000199064 8.18389e-19)
(1.40813e-05 -0.000250244 3.41199e-19)
(-6.6861e-05 2.50953e-05 -8.8714e-20)
(-6.12058e-05 2.49963e-05 5.4215e-20)
(-7.33255e-05 1.55965e-05 1.42147e-21)
(0.0364793 -0.0352403 1.11961e-17)
(0.0379898 -0.0377841 -9.75031e-18)
(0.00255586 -0.0110143 -1.32277e-17)
(0.00220663 -0.0109991 1.7192e-18)
(0.00179966 -0.00288467 -2.25262e-18)
(0.00173993 -0.00278004 -7.55066e-18)
(0.00190053 -0.00277742 -1.10085e-17)
(0.00664187 -0.0136931 4.44438e-19)
(0.00697199 -0.0129311 -2.1527e-19)
(0.00746977 -0.0136176 3.06811e-18)
(0.00673191 0.0266375 4.47937e-18)
(0.00724138 0.0255319 -9.11457e-18)
(0.00590436 0.0256266 1.54156e-18)
(0.0141356 0.195339 4.93512e-18)
(0.00154224 -0.060704 1.23782e-18)
(0.000473602 -0.0615178 1.4235e-17)
(0.000954361 -0.0575469 -5.5618e-18)
(-0.000790831 0.00237097 1.674e-18)
(-0.000957699 0.00245013 1.68311e-18)
(-0.0174654 -0.0651174 3.90898e-17)
(-0.00391435 -0.0654331 -3.29121e-18)
(-0.0193587 -0.0752755 8.19072e-17)
(7.16023e-06 -8.42297e-05 9.56337e-19)
(7.55992e-06 -0.000125979 -3.54289e-19)
(5.18596e-06 -8.21148e-05 -1.59668e-19)
(-0.0478543 0.0681722 1.00837e-17)
(-0.0347115 0.0816758 6.03505e-17)
(-0.00224793 -0.0159279 2.86196e-17)
(0.000465356 -0.0100901 2.16791e-17)
(-0.00432302 -0.00834235 1.69026e-17)
(0.00130845 -0.0582194 3.04462e-17)
(0.00510982 -0.0580186 -8.25994e-17)
(9.21905e-05 -0.0572539 -4.90722e-17)
(0.0752104 -0.0379079 8.09853e-17)
(-0.00334485 0.041453 -1.5067e-17)
(-0.00153837 0.0421833 2.03373e-17)
(-0.00234811 0.00403885 -1.7762e-18)
(-0.00239106 0.00433862 3.32887e-19)
(0.00813407 0.0113957 9.59244e-18)
(0.00874839 0.0108894 1.37805e-17)
(-0.00270715 0.00514135 1.58358e-18)
(-0.00306938 0.00493165 -3.82325e-18)
(-0.00129681 -0.000135288 1.30043e-19)
(-0.00131796 -0.000258157 7.43124e-19)
(-0.00122213 -0.000234184 4.7579e-19)
(-0.00176486 0.00184825 4.03006e-19)
(-0.00190138 0.00193629 1.79159e-19)
(-0.00191565 0.00173149 2.98095e-18)
(0.00590123 -0.0134906 -3.7535e-19)
(0.00548214 -0.0128183 1.07385e-18)
(0.00203962 -0.00333323 3.95536e-18)
(0.00189169 -0.00343145 -2.8156e-18)
(8.18389e-05 -0.000561288 -6.38685e-19)
(7.90163e-05 -0.000544016 -8.94125e-19)
(8.79009e-07 -1.11545e-05 1.79368e-18)
(1.03649e-07 -4.96575e-06 1.21263e-18)
(1.66421e-07 -5.41009e-06 -3.41939e-19)
(-4.93958e-05 0.000179969 2.47708e-19)
(-3.71716e-05 0.000174659 1.11505e-20)
(-0.000173103 -8.06446e-07 4.09438e-19)
(-0.00017375 -2.35322e-06 2.3867e-20)
(-0.00017415 -1.90812e-06 1.41248e-19)
(-0.000427468 0.000575831 1.95397e-18)
(-0.000851158 -0.0530033 -2.03463e-17)
(0.000431704 -0.0547482 -6.07088e-18)
(-0.00133778 -0.0535359 3.40455e-17)
(0.000174003 9.58714e-05 -2.02455e-20)
(0.000166322 8.78246e-05 5.62138e-19)
(0.000166547 9.75124e-05 2.01353e-19)
(0.00041016 0.000764676 2.41323e-19)
(0.000417345 0.000690911 4.09251e-20)
(0.000462483 0.000720677 1.72135e-19)
(-0.000165659 -6.39121e-07 1.19064e-19)
(-0.000173154 -8.89912e-07 -3.58599e-21)
(-0.000167566 -4.99545e-06 8.27228e-21)
(0.00024309 0.000117062 -3.58434e-19)
(0.000239764 0.000115735 -5.71673e-19)
(0.001625 -0.0627636 -1.20442e-17)
(0.00136504 -0.0637322 -1.36617e-17)
(0.000658263 -0.0674763 1.47297e-17)
(0.0142378 -0.0135485 -3.24594e-17)
(0.0146982 -0.0153195 -3.55172e-17)
(-0.00139782 -0.00792606 4.47573e-17)
(-0.00114906 -0.00779595 -3.70101e-18)
(-0.00104436 -0.00805896 -2.13303e-17)
(0.000485142 -0.00239714 1.37477e-17)
(0.000565513 -0.00247087 1.30089e-18)
(0.000409152 -0.00249202 -8.41361e-18)
(-0.00541882 0.0243245 1.52263e-17)
(-0.00568154 0.0228578 -2.72105e-18)
(-0.000181683 -1.13287e-07 1.77934e-19)
(0.169077 0.0781483 2.00244e-18)
(0.0861474 0.086513 1.0883e-18)
(0.136403 0.0769432 -6.372e-19)