/*--------------------------------*- C++ -*----------------------------------*\
| =========                 |                                                 |
| \\      /  F ield         | OpenFOAM: The Open Source CFD Toolbox           |
|  \\    /   O peration     | Version:  v2012                                 |
|   \\  /    A nd           | Website:  www.openfoam.com                      |
|    \\/     M anipulation  |                                                 |
\*---------------------------------------------------------------------------*/
FoamFile
{
    version     2.0;
    format      ascii;
    class       volVectorField;
    location    "700";
    object      U_0;
}
// * * * * * * * * * * * * * * * * * * * * * * * * * * * * * * * * * * * * * //

dimensions      [0 1 -1 0 0 0 0];


internalField   nonuniform List<vector> 
10042
(
(1.02525 0.0215055 6.40199e-22)
(0.902622 0.287636 1.20188e-20)
(1.03787 0.0346894 2.17456e-22)
(1.01292 -8.96882e-05 8.50972e-22)
(1.01366 -2.42916e-05 2.49597e-21)
(1.00146 -0.110196 -1.10999e-21)
(1.02769 0.0821039 8.60465e-21)
(0.780106 -0.0822661 -1.30295e-21)
(1.01699 4.43984e-05 0)
(0.995217 -0.0502585 -4.18165e-21)
(0.970517 -0.0477642 1.3492e-21)
(0.912174 0.301459 -1.03374e-20)
(0.98485 0.0097662 -1.7456e-21)
(1.02085 0.000108471 0)
(1.01432 -0.000168237 0)
(1.02088 0.000422863 8.53895e-22)
(1.02972 -0.150021 2.47861e-21)
(0.961238 -0.0400153 0)
(1.00917 0.00824528 1.15609e-22)
(1.03504 -0.00534633 0)
(0.984967 0.00703629 0)
(1.02263 0.0225185 0)
(1.01292 -5.37136e-05 4.00363e-22)
(0.740846 0.193191 2.90126e-21)
(1.01419 -0.000283947 0)
(1.01148 -9.40652e-05 -2.19132e-22)
(1.00057 -0.0479712 0)
(1.01609 0.000433264 -1.76032e-21)
(1.00535 -0.136706 1.81195e-22)
(0.732705 0.256029 0)
(1.01196 -2.64228e-05 0)
(0.982797 0.051351 1.71686e-21)
(1.01682 0.000207672 -1.62121e-21)
(1.01668 0.000242499 1.72386e-21)
(0.777871 -0.101786 5.38879e-21)
(0.791712 -0.153999 -4.52478e-21)
(1.0118 0.000104665 1.46684e-21)
(1.01571 -0.000251144 1.01627e-21)
(1.01339 1.41738e-05 -6.07503e-22)
(1.01396 -0.0235105 -2.12895e-23)
(0.736493 0.240962 9.29721e-21)
(1.01682 8.33888e-05 -8.17782e-22)
(0.902365 -0.0780595 -5.94858e-22)
(1.08619 0.25863 -2.35471e-21)
(1.01366 -0.000109605 0)
(1.01427 -0.000288247 -8.49807e-22)
(1.01483 0.000386249 0)
(1.01422 -0.000312196 -1.6634e-22)
(0.977709 -0.0148028 -1.26558e-21)
(0.913612 -0.269482 -6.24455e-22)
(0.909395 -0.101646 -1.13931e-21)
(1.0132 -3.75263e-05 -1.94031e-21)
(1.03555 -0.132804 -2.3087e-22)
(1.00962 0.00715075 0)
(0.546728 -0.352083 -3.21288e-20)
(0.98684 -0.516738 0)
(0.987631 0.00610097 1.84922e-21)
(0.998334 -0.0236899 -8.98027e-22)
(1.01368 -0.00133022 1.23705e-21)
(1.01995 -0.00264937 -7.42679e-23)
(0.975961 -0.0186259 1.12346e-21)
(0.472556 -0.0542859 0)
(0.91507 -0.058476 -1.59176e-21)
(0.834866 -0.0288301 -2.41379e-21)
(1.02689 -0.0170973 -3.23498e-22)
(1.01458 0.000574342 1.37241e-21)
(1.03324 -0.0020964 -6.57128e-23)
(1.03415 0.0182773 0)
(1.01462 0.000215152 0)
(1.03319 0.0191341 0)
(0.878147 -0.153502 -1.30375e-20)
(1.01954 -0.00667382 1.49712e-21)
(1.01634 0.000343203 -1.01889e-21)
(1.0137 -0.00119615 -6.21212e-22)
(1.01453 0.000370749 6.82001e-22)
(0.87628 -0.123629 1.08183e-20)
(1.01966 -0.0156712 0)
(1.01478 0.000372892 0)
(1.01871 -0.0162552 -8.25203e-23)
(1.0099 0.00925796 -5.08891e-22)
(1.10056 0.269278 4.11564e-21)
(0.741381 0.222383 -9.11474e-21)
(1.00737 2.94078e-05 7.57819e-22)
(1.01359 -0.000150959 2.41178e-21)
(1.03062 -0.0370658 -4.06522e-21)
(0.948407 -0.000552351 0)
(1.03148 -0.00145067 -7.46623e-22)
(1.03244 0.0353492 3.67377e-23)
(1.0152 -0.0024892 0)
(1.02254 -0.0138527 -2.1959e-22)
(0.995995 0.0109776 0)
(1.01451 -8.08953e-05 0)
(0.929952 -0.0560845 -2.02101e-21)
(0.935928 0.000685668 0)
(1.04834 -0.0266185 1.22711e-21)
(1.01588 -0.000668236 2.11185e-21)
(0.774346 0.44717 2.39276e-20)
(1.03323 -0.00429515 1.56907e-21)
(0.961782 -0.0799808 -4.68085e-22)
(1.01368 -0.000953135 -1.14397e-21)
(0.997513 0.00997583 5.87723e-22)
(0.972813 -0.0690629 1.13555e-21)
(1.01655 -0.0036192 1.41424e-21)
(0.995301 0.0442392 -2.80564e-21)
(1.00401 0.00548452 9.26708e-22)
(1.01559 -0.00245594 -1.26194e-21)
(0.839521 -0.550509 2.09194e-20)
(1.01467 0.000316939 -6.43104e-22)
(1.0026 0.0937616 -4.25613e-21)
(1.01554 -0.00267128 -3.13991e-22)
(1.01396 -0.00139891 4.69833e-22)
(0.978446 0.0659961 5.4524e-21)
(0.982385 -0.0696084 7.9173e-22)
(0.85772 -0.044985 0)
(1.02544 -0.0149381 -8.38146e-22)
(1.01439 7.60126e-05 -1.79613e-22)
(1.00761 0.00484201 -1.337e-21)
(1.01205 2.6372e-05 5.03951e-22)
(1.00281 -0.0215392 3.01897e-23)
(1.01422 -0.000422172 -5.11688e-22)
(1.01973 -0.0030215 7.6698e-23)
(0.939729 0.242404 -7.65649e-21)
(0.939847 0.245754 1.34541e-20)
(1.01378 -0.000114278 0)
(1.02199 -0.0147702 -2.08808e-22)
(1.01515 -0.00285621 1.04826e-21)
(1.01499 -0.00294708 -1.77269e-22)
(0.56612 -0.332992 -5.49954e-20)
(0.840449 0.0395981 7.58897e-21)
(1.00668 0.00438022 1.34102e-21)
(1.01622 -0.000568972 1.14444e-22)
(1.0143 -0.000249301 7.81667e-22)
(1.01533 -0.00398255 9.95034e-22)
(1.01501 0.000294137 -7.34311e-22)
(0.958632 0.064787 7.08273e-21)
(0.99519 -0.152455 -5.31322e-22)
(1.03157 0.00373746 0)
(0.778929 -0.370736 -2.1708e-20)
(1.01036 0.000948232 1.47053e-21)
(0.987456 -0.0503806 3.45155e-23)
(0.950928 -0.015878 4.53379e-21)
(1.01553 0.000100869 0)
(0.833348 -0.506402 -2.01954e-20)
(1.01604 0.000371143 1.39783e-21)
(1.00366 -0.00928846 -9.18053e-22)
(1.01579 -0.000296226 -1.07805e-21)
(1.0293 -0.0341365 -3.85533e-21)
(1.0146 6.69886e-05 -7.0869e-22)
(1.02156 -0.00340792 0)
(0.819222 -0.0766824 1.65234e-21)
(1.01458 0.000137385 1.72592e-24)
(1.01438 6.69076e-05 1.7664e-21)
(1.00927 0.00132007 1.21414e-21)
(0.977001 0.0104769 3.35747e-22)
(1.04133 -0.020194 -1.21278e-21)
(1.00363 -0.0105569 -1.01447e-21)
(0.854054 0.0307122 -1.53422e-20)
(1.10359 -0.413964 1.51325e-19)
(1.01502 -0.00387433 0)
(1.00923 -0.000259973 6.02249e-22)
(1.01208 3.14873e-05 0)
(1.01547 -0.027584 0)
(1.03287 -0.127856 4.97478e-21)
(1.01508 -0.00259673 -1.17716e-21)
(1.01162 0.000364686 -8.75629e-22)
(0.840058 -0.107491 1.49859e-21)
(1.01627 0.000211705 8.79457e-22)
(0.990333 0.0447287 1.47437e-21)
(0.780309 -0.139312 3.19965e-21)
(1.01649 0.000356695 -1.03236e-21)
(1.06882 -0.0182165 3.26647e-22)
(0.729116 0.263008 -8.40013e-21)
(0.943718 0.141528 2.81056e-20)
(1.01664 0.000346685 0)
(1.009 0.00620198 0)
(0.951044 0.18585 -2.84738e-20)
(1.01433 -0.000112083 -1.40358e-21)
(1.01582 -0.000341554 0)
(1.01428 -0.000337269 1.40121e-21)
(1.01467 0.000272433 -5.03877e-22)
(1.01069 0.000535791 -9.17215e-22)
(1.00287 0.00141998 -1.29949e-21)
(1.01362 -0.0010371 -1.83288e-21)
(1.01449 -0.000490995 -6.44546e-22)
(1.04549 -0.119588 0)
(0.999376 0.0198244 -2.727e-22)
(1.01882 -0.00714494 0)
(1.01979 -0.00206777 5.43336e-23)
(0.747858 -0.300115 4.02999e-21)
(1.01453 5.03991e-05 -1.01122e-21)
(0.880115 0.320144 -1.36577e-20)
(0.988035 0.00379537 0)
(1.01624 -0.000623396 -9.6354e-22)
(1.00395 0.00161873 0)
(0.710345 -0.389323 5.48078e-20)
(1.01459 -0.000143497 -3.57911e-22)
(0.745763 0.1822 -3.88579e-22)
(1.06941 0.00545656 -1.45581e-22)
(0.744358 0.419364 0)
(1.01358 -0.00011154 -7.03166e-22)
(0.801748 0.042988 -1.17689e-20)
(0.941273 -0.0318524 0)
(1.03234 0.0172515 7.11367e-22)
(1.01498 0.000323207 4.3384e-22)
(0.933876 -0.0563091 7.85487e-22)
(1.01553 -0.00373529 1.40472e-22)
(0.758923 0.082155 0)
(0.979247 0.00887091 0)
(1.01406 -0.00136806 -1.54378e-23)
(1.0152 0.000451808 -6.69231e-23)
(0.988304 0.0502022 -2.01458e-22)
(1.01516 0.000374734 -4.76989e-22)
(1.0377 0.0277843 -4.79762e-22)
(1.02782 0.00437008 0)
(1.01194 3.09056e-07 -1.01366e-21)
(1.03131 0.0163597 0)
(1.01476 0.000281238 0)
(0.932395 -0.0250549 0)
(1.01293 9.75426e-05 0)
(0.81339 0.0283935 1.21702e-20)
(0.665648 0.20867 0)
(1.05646 -0.011896 6.55298e-22)
(0.622755 0.218493 6.09084e-22)
(1.03137 0.0178031 0)
(1.01301 -0.000108744 0)
(0.931468 -0.0344178 2.65673e-21)
(1.02004 -0.00180795 1.6331e-21)
(1.02983 0.00366519 -1.38307e-21)
(1.00534 -0.0390339 0)
(1.01624 -0.0038138 0)
(1.0159 -0.000395779 -9.43402e-22)
(1.01501 -0.00316551 -1.35199e-21)
(0.998595 0.0180913 -1.96161e-23)
(1.01022 0.000103101 0)
(1.01434 -0.000124765 1.92705e-21)
(0.78241 -0.103522 -5.71768e-22)
(1.02602 0.00554451 0)
(0.763625 0.447816 -8.00793e-21)
(1.00482 -0.00847304 -2.59596e-21)
(0.745785 0.17959 -5.55712e-21)
(1.00157 -0.13575 -1.24847e-21)
(0.97873 0.101991 -2.66994e-20)
(1.02004 -0.00336928 7.75387e-23)
(1.01264 -0.0291394 1.08486e-22)
(0.705118 -0.446649 -4.21516e-21)
(1.01355 -2.10052e-05 -8.40386e-22)
(1.03245 0.105584 0)
(1.00615 -0.00854689 2.39102e-21)
(1.00868 0.00123663 0)
(1.0131 -7.38823e-05 -1.31259e-21)
(1.00539 0.00575529 -4.7621e-22)
(1.01636 -0.000709155 1.00147e-21)
(0.977173 -0.00746056 -2.38998e-21)
(0.630851 -0.290956 1.17707e-20)
(1.02118 -0.00283038 -1.25005e-21)
(1.02499 0.00513515 1.14314e-21)
(1.01365 4.56087e-05 1.21589e-21)
(1.02222 -0.00107588 -1.28486e-21)
(0.777629 0.456088 -6.2036e-21)
(1.01308 4.91888e-05 0)
(1.02195 -0.0130652 0)
(1.01579 -4.86489e-05 1.04239e-21)
(1.01323 -5.32166e-05 1.38324e-21)
(1.01489 0.000510094 -1.76586e-21)
(0.982465 0.0109082 1.87538e-21)
(0.680109 -0.299661 -1.51341e-20)
(1.02213 -0.0124078 -1.12063e-21)
(0.983247 -0.00756368 2.07488e-21)
(1.0072 -0.000185995 0)
(1.01515 -0.00335396 1.47176e-21)
(1.01307 -0.000701107 1.67591e-23)
(0.962014 -0.229298 0)
(1.01915 -0.00098922 0)
(0.825052 -0.178683 1.18027e-20)
(1.0215 -0.000768983 1.22829e-21)
(1.01478 -0.0223281 1.29016e-21)
(1.01447 0.00381952 0)
(1.01388 -0.000146139 4.19038e-22)
(1.00735 -6.41934e-05 1.27366e-21)
(0.806273 -0.467648 0)
(1.0162 0.00043552 -4.93847e-22)
(1.08743 -0.108097 5.87391e-21)
(0.765778 0.193261 -3.51686e-22)
(1.01444 0.00320931 -7.53844e-24)
(1.00863 6.75698e-05 -4.19702e-22)
(0.546702 0.393381 -3.52747e-20)
(1.00443 -0.000417492 -1.35164e-21)
(1.01532 0.00117396 -4.19944e-22)
(1.01702 0.0241913 -2.49237e-22)
(1.01345 7.64194e-05 -9.99147e-22)
(0.990392 0.00116241 5.59652e-22)
(1.00757 -0.00218986 1.25224e-21)
(1.00855 5.90665e-05 0)
(0.936847 -0.0419085 0)
(1.02403 -0.0148068 7.89457e-22)
(1.02036 0.00162892 -5.85693e-22)
(1.12846 -0.00814413 -5.20955e-21)
(1.02864 0.00496001 0)
(1.01307 -0.000742149 1.1383e-21)
(1.01476 0.000302344 7.95435e-22)
(1.00954 0.000760267 -1.67909e-21)
(1.0378 0.00882812 -7.18425e-22)
(1.02001 -0.00197587 -2.29166e-23)
(0.967284 -0.0994001 6.35129e-21)
(1.00508 0.000810376 7.77985e-22)
(0.494046 -0.0781744 0)
(1.01991 -0.00121844 -7.77389e-22)
(1.01682 -0.0358737 1.48703e-23)
(1.12673 -0.00496351 5.4603e-21)
(0.97908 -0.104186 -1.45225e-20)
(1.01061 -2.22951e-05 0)
(1.01474 7.07419e-06 -1.59537e-21)
(1.01562 -0.00068692 -2.73628e-21)
(1.02043 0.00132732 -3.09826e-22)
(1.00751 -0.00326595 9.57743e-22)
(1.01385 0.0242047 2.48994e-22)
(1.01494 0.000498985 2.27149e-21)
(1.05572 -0.118534 0)
(0.782589 0.185027 5.47974e-21)
(1.01435 -0.000119622 -5.51949e-22)
(1.01009 2.26673e-05 0)
(0.822467 -0.216527 -7.26395e-21)
(1.01633 -0.0197688 6.38708e-22)
(1.02534 0.0174564 4.01618e-23)
(1.02665 -0.108174 -3.81942e-22)
(1.01101 -6.97703e-07 0)
(1.03127 0.0100658 -5.98226e-24)
(1.01422 -0.000476302 1.53518e-21)
(1.02723 0.00467373 0)
(0.992261 0.000637046 2.17695e-21)
(1.01585 -0.00381102 -1.52988e-22)
(1.01446 -0.00129375 1.04677e-21)
(1.02577 0.0185523 -6.72989e-22)
(1.01385 8.07357e-06 9.66551e-25)
(0.759092 0.121015 -3.11396e-21)
(1.01897 0.0268618 0)
(0.848744 -0.52497 -2.33133e-20)
(1.03065 0.0162147 -6.33518e-23)
(1.01637 -0.000768745 1.03232e-21)
(0.878441 -0.0982771 3.36286e-21)
(0.957469 -0.0194936 1.50434e-21)
(0.986815 -0.000151201 2.67637e-21)
(1.01986 -0.00373856 -1.45682e-23)
(1.03438 0.00299487 3.30446e-22)
(1.01099 4.24653e-05 -3.90412e-23)
(1.01596 -0.000431127 9.14762e-22)
(1.01803 -0.000955169 -1.19341e-22)
(1.01331 -7.56587e-06 -1.00548e-23)
(1.01089 -0.00486973 2.46828e-21)
(0.750774 0.429595 -1.06715e-20)
(1.01446 0.00112382 1.73514e-22)
(1.0413 -0.0257558 0)
(1.01126 -0.00558901 0)
(1.0205 0.00336976 0)
(0.480709 -0.13913 -3.37083e-20)
(1.034 0.0105439 9.08902e-22)
(1.01986 -0.0023251 -3.29224e-22)
(1.00453 5.39824e-06 -5.81898e-22)
(0.704744 0.0464416 -1.63055e-21)
(1.00603 9.20088e-05 -7.91716e-22)
(1.01532 -0.00220534 1.33055e-21)
(1.01166 9.00261e-05 -1.60143e-21)
(1.01151 -0.000133575 0)
(0.855911 0.25062 1.27168e-20)
(0.902147 -0.118348 -1.69794e-21)
(1.01132 0.000704818 9.48524e-22)
(1.01343 -5.12285e-05 -7.89152e-22)
(1.01239 -0.00609061 8.53692e-22)
(1.01194 -0.00553786 -1.80885e-22)
(0.613485 -0.105472 2.67273e-20)
(1.01971 -0.0023734 0)
(1.00739 4.3679e-05 3.91032e-23)
(1.0194 -0.00122232 1.40632e-23)
(1.01459 -0.000432245 0)
(0.95456 -0.0110836 5.78089e-21)
(1.02006 -0.00213473 3.30498e-23)
(1.01034 -0.0215447 0)
(1.09337 -0.121901 -9.39272e-22)
(0.802563 -0.383213 -1.01632e-20)
(0.961953 -0.00969114 0)
(1.01504 -0.00166579 0)
(1.07 -0.150763 9.67029e-22)
(1.01029 -0.0409586 0)
(1.01422 -0.000548124 -2.86169e-21)
(0.961512 0.0187765 0)
(1.01424 -0.00019161 5.37445e-22)
(1.01303 3.04725e-06 -1.29537e-21)
(1.0143 -0.000529246 0)
(1.01376 -0.00208847 0)
(1.01536 0.00109485 4.60137e-22)
(1.02143 -0.000144677 -1.91193e-24)
(0.604153 -0.193217 1.73597e-19)
(1.0142 0.000913891 7.79149e-22)
(1.02727 0.0154926 -2.7811e-21)
(0.932695 -0.103199 0)
(0.612373 -0.237896 -1.03403e-20)
(1.01305 -0.000288663 8.56498e-22)
(0.79663 -0.081356 -3.27373e-21)
(1.01069 7.60234e-05 5.65796e-22)
(0.979554 0.0474719 -5.86841e-22)
(1.0132 -1.0865e-05 1.47603e-21)
(0.564583 0.301931 0)
(1.00639 -0.000757014 0)
(0.508709 -0.269551 4.04584e-20)
(0.794169 0.499432 -1.511e-20)
(1.0209 0.00326453 0)
(0.963489 -0.0153724 4.99258e-21)
(1.02313 0.00374966 0)
(0.999258 -0.11144 0)
(1.02076 1.04399e-05 3.53369e-24)
(1.08642 -0.0576808 -7.62232e-22)
(0.999715 -0.00622064 0)
(1.00017 0.0292828 -4.30815e-20)
(1.01415 0.000613364 -2.62499e-22)
(0.945049 0.0214685 0)
(1.01302 0.000862298 -2.63596e-22)
(1.00144 -0.0128519 0)
(0.545355 -0.171485 -6.04854e-20)
(1.01528 0.000763273 4.39483e-22)
(1.01329 0.000778247 1.15721e-21)
(1.01445 3.21146e-05 1.24562e-21)
(0.952213 -0.116692 -1.53315e-21)
(1.01605 -0.000490275 -9.63519e-22)
(1.01452 -0.000672008 0)
(0.942699 -0.0184206 -7.17112e-21)
(1.01398 0.00321837 0)
(1.02172 -0.0428581 3.45373e-21)
(1.08685 -0.054546 -7.49799e-22)
(1.01311 4.04356e-05 0)
(0.986215 0.00189794 0)
(1.01377 0.0028577 0)
(1.01477 0.000492272 0)
(0.999673 -0.00743802 0)
(0.812577 -0.146838 9.27631e-22)
(1.02277 0.00313536 3.32541e-22)
(1.01191 -0.000392732 0)
(1.01948 0.337481 0)
(1.00758 -0.0238388 9.51299e-22)
(1.00995 9.15985e-05 0)
(0.856661 -0.413506 1.41181e-19)
(1.01603 0.000256158 8.39946e-22)
(1.00843 -0.00392924 -5.46868e-22)
(1.03249 0.017897 7.59794e-22)
(0.753818 -0.24833 -6.38235e-21)
(0.964618 -0.188296 0)
(0.994171 -0.118011 -7.10285e-22)
(0.973126 0.0257447 0)
(1.04223 -0.0918524 -5.02979e-21)
(0.804787 -0.0468442 1.26302e-21)
(1.01449 -0.00104666 1.5759e-22)
(1.02009 -0.0194102 -7.33061e-22)
(1.13583 0.0689155 -1.06269e-21)
(1.12764 0.0756631 2.547e-21)
(0.965724 0.0180085 -2.92224e-21)
(1.01286 -3.71241e-05 -1.57977e-21)
(1.01821 -0.00115949 0)
(1.02875 -0.0166539 0)
(0.703108 -0.0854246 5.66837e-21)
(1.01441 -0.000417605 8.50228e-22)
(1.01921 -0.0159362 -1.44937e-22)
(1.01108 0.000122186 -9.66327e-22)
(1.01316 -0.000254724 0)
(1.01683 -0.00418844 1.93349e-23)
(1.0163 -0.00450588 -1.16524e-21)
(1.01391 -0.00215894 0)
(1.00536 3.15419e-05 0)
(1.02246 0.0262408 0)
(1.01574 0.00364794 -2.52922e-22)
(1.00845 -0.00485041 -1.20408e-21)
(1.06496 -0.0240035 8.92953e-22)
(1.06306 -0.0617951 5.52243e-21)
(1.01784 0.00142998 -8.73493e-22)
(0.419565 0.168563 0)
(1.0578 0.249913 -2.49471e-21)
(1.00635 -0.1884 3.50953e-21)
(1.01436 6.7438e-06 -6.051e-22)
(1.01153 0.0214991 0)
(1.01149 4.76715e-05 5.11423e-22)
(0.627237 -0.203263 0)
(1.01334 -0.000678037 1.0741e-21)
(1.05724 0.00707125 -2.15531e-22)
(1.01394 0.000417636 0)
(1.00663 -0.0678892 1.29829e-23)
(1.01516 0.000104366 0)
(1.00581 0.00723349 -1.90381e-22)
(1.02055 -0.0164891 0)
(1.02078 -0.0169446 1.18507e-21)
(1.03395 0.0262842 -1.02666e-22)
(1.01142 0.000157114 0)
(1.01467 -0.000237363 0)
(1.0149 0.000167873 -4.73148e-23)
(1.02894 0.330371 -4.09624e-20)
(1.01579 -0.000111278 -1.07923e-21)
(1.04166 0.00387162 -4.17168e-22)
(1.016 0.0322875 1.3655e-22)
(0.969023 -0.0167686 6.97539e-21)
(1.01993 0.00300198 0)
(1.04711 0.00188986 6.42313e-22)
(0.849342 -0.00787516 3.03698e-20)
(1.0617 0.168862 2.13407e-21)
(1.01406 -0.00115502 1.03957e-21)
(1.01094 3.41733e-05 -1.29721e-21)
(1.07793 -0.0398219 -2.63422e-21)
(1.00509 0.315464 2.34603e-20)
(0.987671 -0.0119318 -1.82102e-21)
(0.963265 -0.00676627 0)
(1.01405 4.92695e-05 0)
(1.07066 -0.11113 0)
(1.01507 -0.0301716 4.15139e-21)
(1.00767 -0.0213651 1.05316e-21)
(1.00803 -0.00709694 2.52286e-21)
(0.74757 0.0592079 5.14373e-22)
(1.01986 0.00265913 6.6826e-22)
(1.01291 6.81562e-07 -1.71224e-21)
(1.01508 -0.00279944 1.36755e-21)
(0.818451 -0.0436369 -1.65689e-20)
(1.01366 -0.000102694 -9.27824e-22)
(1.02975 -0.118788 0)
(1.01307 -0.000224354 0)
(1.01385 -0.000858236 -2.49672e-24)
(1.01813 0.000782254 1.05291e-21)
(1.0028 -0.0141672 3.69967e-21)
(0.960093 0.00109572 0)
(1.01585 -0.00359328 2.73552e-23)
(1.01193 -0.00081549 0)
(0.931266 0.0324216 0)
(1.07272 -0.00255806 0)
(1.04762 -0.02722 -5.91422e-23)
(1.01565 -0.00329141 1.89715e-21)
(1.01432 2.96675e-05 1.86179e-22)
(1.06742 -0.113438 9.52312e-24)
(1.08005 0.117247 4.36572e-23)
(1.01506 -0.00181349 0)
(1.01617 0.00163317 9.35932e-22)
(1.01595 0.0271121 -3.99877e-22)
(1.01613 -0.000768554 1.43381e-21)
(1.01449 -0.00113422 2.09764e-21)
(1.1119 -0.0432599 5.98921e-22)
(1.01612 -0.00050259 -1.01207e-21)
(0.665379 -0.397635 -4.44497e-20)
(1.01343 -6.24039e-05 0)
(1.00116 -0.0415128 0)
(1.02745 -0.00623347 1.13219e-21)
(0.610501 0.283594 -1.50157e-21)
(1.01367 -0.000104251 0)
(1.00763 0.0210515 -1.57412e-21)
(1.01274 0.000107149 0)
(1.01615 9.57777e-05 0)
(0.944805 0.0291425 -3.6376e-21)
(1.02026 -0.00415175 -8.2068e-23)
(1.04235 0.0391535 2.38445e-21)
(0.987062 -0.0109572 -2.00412e-21)
(1.01668 -7.0593e-05 -1.23354e-21)
(1.02407 0.0107493 8.17597e-23)
(0.861368 -0.506294 0)
(0.923111 0.0095466 -4.19138e-21)
(1.04566 -0.0186216 -8.97603e-22)
(1.01388 2.19562e-05 0)
(1.01606 0.00168557 -9.56286e-22)
(1.01463 -0.000158326 -6.97112e-22)
(1.01088 0.00267034 0)
(1.02387 -0.0136927 0)
(1.0152 -0.00262261 3.33779e-22)
(1.08702 0.151237 -6.51625e-21)
(1.01526 -0.000839045 2.01902e-21)
(1.01888 -0.00115324 -1.39835e-22)
(0.649926 0.562089 1.06081e-19)
(1.0036 0.00417554 3.09646e-23)
(1.02369 -0.0159768 9.3876e-22)
(1.00938 1.91211e-05 -9.16216e-22)
(1.01417 -0.000290324 0)
(0.611015 0.487963 -5.53377e-20)
(0.89251 0.231101 -6.76007e-21)
(1.02671 -0.0050478 -3.94123e-22)
(0.749264 0.026501 2.47089e-21)
(1.01285 -0.000722453 6.16818e-22)
(1.00359 0.0201374 0)
(1.01731 0.00215062 1.20154e-21)
(1.01684 -9.4685e-05 2.53983e-22)
(1.01489 0.000264843 3.73002e-22)
(1.01468 -1.14173e-05 1.7867e-21)
(1.01483 -0.00190001 -1.40706e-22)
(1.01409 4.40964e-05 1.51511e-23)
(0.578111 0.365961 3.00769e-21)
(1.01377 -2.03956e-05 -7.6585e-22)
(1.03132 -0.10171 2.26949e-21)
(1.01367 -0.000180266 1.60641e-21)
(1.02669 -0.00168705 0)
(1.01501 0.000604893 -1.15803e-21)
(1.04979 -0.032579 -3.26497e-21)
(0.965382 -0.100664 -4.43394e-21)
(1.01656 -0.000115544 -5.14539e-22)
(1.01377 -0.000150781 1.66488e-21)
(1.03867 -0.110239 -1.31143e-21)
(1.05694 -0.00659548 8.62938e-23)
(1.01519 0.000720949 9.44327e-22)
(0.76666 -0.385644 2.13203e-20)
(1.01349 -4.5731e-05 0)
(1.02106 0.0205526 0)
(1.01568 -0.000204275 0)
(1.01199 6.67471e-05 -1.44518e-21)
(1.01607 2.23098e-05 7.18488e-23)
(0.707609 0.0854628 -7.61327e-21)
(1.01506 0.000566682 9.34945e-22)
(1.01711 -0.00296292 0)
(1.02055 -0.00220717 9.47701e-22)
(0.745669 -0.431758 -3.52196e-20)
(1.01218 -0.000210751 2.04602e-23)
(1.01475 0.000131551 0)
(1.01399 5.93947e-05 0)
(1.04484 0.0539213 -9.1753e-22)
(1.01315 -0.000320353 1.81224e-21)
(1.01445 -9.52869e-05 1.6856e-21)
(1.01559 0.000106987 0)
(1.01451 -9.28374e-05 -2.85753e-21)
(1.00692 -0.00714862 -3.20516e-22)
(1.01442 -8.13478e-05 -1.04844e-21)
(1.02586 -0.00104529 -1.95148e-22)
(1.01757 0.00224478 2.62193e-22)
(0.798877 0.468009 -1.35172e-20)
(1.11364 0.214062 -3.49352e-21)
(0.984301 0.041852 2.06781e-22)
(1.02059 0.000492167 1.10689e-21)
(1.01408 0.0141213 -2.79856e-22)
(1.01299 9.28186e-05 -1.73552e-21)
(1.10868 -0.00337036 -2.4305e-22)
(1.01105 -9.16856e-05 1.16169e-21)
(0.756254 0.201722 -4.77934e-21)
(1.00359 0.0258993 -2.76808e-21)
(0.97253 0.0125308 -1.11296e-21)
(1.01845 0.0210876 0)
(1.01177 0.156243 2.77173e-20)
(1.01276 -0.000699319 -6.50667e-22)
(1.01464 -0.00145706 -1.70046e-23)
(0.699556 0.149377 2.41222e-20)
(1.03964 0.0483746 5.94319e-22)
(1.02942 0.0115904 -1.10784e-21)
(0.918105 0.0499857 -2.51045e-21)
(1.01366 -0.000603047 -1.04257e-21)
(0.974105 0.203852 5.18126e-21)
(1.01449 -0.00131702 0)
(1.01428 -0.00145756 -1.18586e-21)
(1.01804 0.00161409 1.01394e-21)
(1.01573 -0.00013746 2.17508e-21)
(1.0121 3.2017e-05 1.24031e-21)
(0.713131 0.102105 -3.62403e-20)
(1.01399 0.00284497 8.52598e-24)
(1.01143 -0.000111937 -2.38626e-22)
(0.498755 -0.0740456 -8.14394e-20)
(1.01496 -0.000477447 9.65948e-22)
(1.10946 -0.0167503 0)
(1.01691 -0.022552 -4.50438e-22)
(1.0154 0.00314796 0)
(1.03667 0.00162214 -5.12506e-22)
(1.0146 2.58727e-05 6.28723e-22)
(0.78062 0.143745 2.66905e-21)
(1.01409 -0.00147489 -8.87028e-22)
(1.01465 -8.77337e-05 -1.15839e-21)
(1.03292 -0.0902508 -3.35423e-21)
(1.0139 -0.000938911 -1.03582e-21)
(1.01941 -0.00141576 5.08703e-23)
(1.0106 -0.000126576 0)
(1.01449 -0.00149598 0)
(1.01414 -0.000720254 1.33838e-21)
(1.01347 -0.032417 0)
(1.10645 -0.0590075 -2.49422e-22)
(1.0941 0.203268 -8.27367e-21)
(1.01425 -0.000415132 0)
(1.01511 -0.00229898 0)
(1.01436 -0.00122094 0)
(0.94481 0.223444 -4.55312e-21)
(1.02039 -0.00720108 -1.03038e-21)
(1.01435 0.000204381 -7.89309e-22)
(1.01433 0.000196167 -3.78942e-22)
(1.01729 -0.00103678 0)
(0.941515 0.209186 -1.46437e-20)
(0.911255 -0.305302 -2.44877e-22)
(1.02913 -0.0561907 7.75885e-23)
(1.02078 -0.00164699 0)
(1.00798 -8.22783e-05 4.63127e-22)
(0.822916 0.450006 0)
(1.0055 0.0217799 0)
(1.01017 -0.00472137 -2.90879e-21)
(1.0357 -0.038388 -3.71558e-21)
(0.851217 -0.0256164 -3.75073e-22)
(0.516735 -0.149531 0)
(0.925316 0.234552 -3.96352e-21)
(1.0146 -0.00139885 -1.25051e-21)
(1.01392 7.05566e-05 9.62103e-22)
(1.01401 -0.0014012 9.13266e-22)
(0.904866 -0.00428149 3.94447e-21)
(1.01462 -0.00134514 1.37758e-21)
(1.01285 0.0167143 1.81448e-21)
(1.01432 -0.00312642 0)
(1.02009 -0.00456327 9.05268e-23)
(1.03365 0.00545894 -5.51088e-22)
(1.01408 -0.00450406 -2.68366e-21)
(0.656489 0.0310679 -4.27893e-21)
(0.728673 0.195998 0)
(1.01508 0.00109851 4.05853e-22)
(1.01366 -0.00011754 -3.31481e-21)
(1.01469 -0.000906617 6.38524e-22)
(1.01457 -0.119822 4.0754e-22)
(1.01574 -0.000192108 1.03306e-21)
(1.08006 -0.0812056 1.59811e-21)
(1.013 -0.00595546 -7.09405e-22)
(0.806508 -0.311044 1.23483e-21)
(1.01486 -0.00204987 -9.92513e-22)
(1.01885 0.00231441 -7.33359e-22)
(1.01656 -0.000169065 1.16912e-21)
(1.01293 -1.22064e-05 0)
(1.01442 -0.00120664 -1.06996e-21)
(1.02165 -0.0104952 1.26971e-22)
(1.01333 -0.000713619 0)
(1.01355 0.00025428 0)
(1.02978 0.0145401 1.37898e-21)
(1.00714 0.007333 0)
(1.05182 -0.0100936 -1.03316e-22)
(1.01246 -0.00068944 -1.20864e-21)
(1.04246 0.0390872 -1.54601e-22)
(0.877054 -0.018769 0)
(1.01045 -0.000119436 -8.10306e-22)
(1.15786 -0.503546 -1.38084e-19)
(1.01368 -0.000284116 1.79215e-21)
(1.01911 -0.00299857 -8.74974e-22)
(1.0057 0.000115415 -1.73731e-22)
(1.01345 -6.95797e-05 7.10822e-23)
(0.749933 0.00388491 0)
(1.01421 -0.00288538 0)
(1.01997 0.000543685 -5.47157e-22)
(1.01838 0.00092257 -1.0763e-21)
(0.813477 -0.554112 -4.44527e-20)
(1.01845 0.00213179 1.57744e-22)
(0.939663 0.00618859 -7.50828e-21)
(0.988533 -0.00858671 0)
(1.01493 -0.00221749 1.29719e-21)
(0.966011 -0.0758168 4.40499e-21)
(0.896185 -0.0291041 -1.38522e-21)
(1.01971 -0.0234246 1.19673e-22)
(1.01647 0.000481606 1.4643e-21)
(0.919865 0.0393793 2.29152e-21)
(1.00439 2.913e-05 0)
(1.11678 -0.101688 2.64978e-21)
(1.02532 0.0139544 3.73892e-23)
(1.01762 -0.0156077 8.91729e-23)
(1.03598 0.00814096 7.00919e-22)
(1.01412 -0.000531218 -1.01198e-21)
(1.01401 -0.00119008 0)
(1.01491 0.000686704 0)
(1.02872 -0.022451 0)
(1.00444 -0.00186609 0)
(1.03359 0.0119121 7.59438e-23)
(1.0008 0.0343528 0)
(1.02053 -0.00502319 5.77751e-26)
(1.00972 0.00192702 -2.40639e-21)
(1.01133 -8.82592e-05 0)
(1.0296 0.018674 -9.10196e-23)
(1.00443 1.30225e-05 -1.29072e-21)
(1.072 -0.10433 2.83966e-21)
(1.01456 0.000230751 0)
(1.01532 -0.00202678 0)
(1.00894 0.0305387 4.92496e-21)
(1.01466 -0.0017828 0)
(0.929516 0.035373 -3.89073e-21)
(1.00542 -0.0224787 3.48264e-21)
(1.00834 4.78767e-05 3.42655e-21)
(0.976374 0.0303727 0)
(1.01533 0.00934491 -1.02307e-21)
(1.01631 -0.00284142 -1.10909e-21)
(1.01494 -0.00548193 1.53283e-22)
(1.01366 -0.0376692 -5.32606e-21)
(1.02013 -0.00148338 4.43971e-22)
(0.543537 -0.225433 2.70928e-20)
(1.01359 1.74083e-05 7.96208e-22)
(1.01903 -0.0376704 -7.94249e-22)
(1.01307 0.0183861 0)
(0.970929 0.183621 -8.85445e-21)
(1.01528 -0.00517927 1.41291e-22)
(1.00767 -0.0186987 4.89788e-21)
(1.00421 -0.0116474 7.19036e-22)
(1.01329 0.000281189 0)
(0.990122 -0.00889138 2.56583e-21)
(1.01608 0.000303496 0)
(1.01237 -0.0326598 4.39779e-21)
(1.01771 -0.00305243 0)
(1.01454 0.000618348 2.15889e-22)
(1.0194 0.00245217 -5.07329e-25)
(1.01297 6.36387e-05 -3.34906e-22)
(1.01028 0.0021666 8.67802e-22)
(0.986772 -0.0146502 -9.11849e-21)
(1.01248 4.11249e-06 1.03451e-23)
(1.01394 -0.000418437 9.96936e-22)
(0.988973 -0.114952 0)
(1.016 0.000263471 -7.80169e-22)
(1.01471 -0.00194157 -3.42105e-22)
(1.01357 -0.000143401 0)
(1.01443 -0.000825239 -8.22253e-22)
(1.03132 -0.0587569 0)
(1.02531 0.00286454 1.2279e-21)
(1.02398 -0.000924672 1.30834e-21)
(1.01608 0.0154951 -2.27075e-21)
(0.952701 -0.0971091 0)
(1.01455 -0.00122993 -1.08747e-21)
(1.00641 -0.0152934 5.10585e-22)
(1.12264 -0.145518 -6.95828e-21)
(1.01715 -0.000871757 9.53919e-22)
(1.01636 -0.00359944 0)
(1.01462 -0.00108476 0)
(0.950384 0.00563212 0)
(0.860901 -0.0340628 -5.56284e-22)
(1.00438 0.00306526 1.63507e-21)
(1.01461 -0.000188148 -6.74702e-22)
(0.985868 -0.0205284 0)
(1.06065 0.0942698 -1.26092e-20)
(0.433703 -0.149435 -7.34469e-21)
(1.01363 -0.00518936 1.86867e-21)
(0.949337 0.017504 3.64204e-21)
(1.05102 -0.0395918 -5.22244e-21)
(1.01798 0.0273795 1.08484e-22)
(1.0143 0.00906451 -1.11375e-21)
(1.02115 -0.0113951 0)
(1.00893 0.0019077 2.44706e-21)
(1.03652 -0.0257463 0)
(1.09196 -0.0339642 -2.15164e-22)
(1.01392 0.000169667 0)
(0.398676 0.129286 -5.14784e-20)
(1.01535 -0.0169654 0)
(0.997912 0.0289025 -3.63957e-22)
(0.755217 -0.0147823 0)
(1.01955 -0.00317075 4.82876e-22)
(1.02136 -0.0147266 1.0111e-22)
(1.06302 -0.0562278 -1.83485e-20)
(1.00062 0.0144651 -8.76384e-23)
(0.697381 -0.349564 1.30051e-20)
(1.02705 -0.0241829 0)
(0.486962 0.354758 -4.8147e-20)
(1.02308 -0.000587393 1.29319e-21)
(0.867446 0.258629 -6.8282e-21)
(1.01399 -0.00102464 -2.12248e-21)
(1.01535 0.0140137 1.16144e-21)
(1.01185 -6.988e-06 0)
(1.01022 0.00375099 2.69306e-21)
(1.01925 -0.00208907 2.47352e-22)
(1.01421 -0.00152503 -9.66813e-22)
(1.01377 -0.000131221 4.15075e-22)
(0.859762 -0.367744 -1.49152e-20)
(1.01474 -0.00315249 1.09885e-21)
(1.02034 -0.00549919 1.63124e-23)
(0.67814 0.563261 -6.20021e-20)
(1.01389 -0.000840588 -1.08192e-21)
(0.998607 0.00685042 0)
(1.01315 -0.00530896 -2.10086e-21)
(1.03573 0.0134632 0)
(1.0142 -0.000475314 4.24512e-22)
(1.01157 -0.00109189 -1.74788e-22)
(1.01813 0.000744353 0)
(1.01601 -0.00419885 -1.09543e-21)
(1.01476 -0.000491054 -1.2191e-22)
(1.01134 0.0194729 -2.45634e-22)
(1.01415 -0.000750131 -1.69836e-22)
(0.923305 0.479414 0)
(1.01647 -0.0170461 0)
(1.02073 0.0347318 2.99651e-22)
(1.0146 -0.0032318 -3.73902e-22)
(1.10767 0.169884 1.52433e-20)
(1.01436 -0.000852834 1.20826e-21)
(0.93045 0.025721 -3.09259e-21)
(1.01304 -0.113642 6.99058e-22)
(1.00334 -0.00254111 1.58119e-21)
(1.01515 -0.000583302 -9.97284e-22)
(1.01448 0.000118332 0)
(1.01639 -0.00423585 0)
(1.01182 2.26078e-06 0)
(0.919227 0.0235187 5.16598e-21)
(1.05921 -0.0160171 0)
(1.0144 -0.00135218 0)
(0.966225 0.157257 8.98538e-22)
(1.01435 0.000173235 -8.47582e-22)
(1.01274 6.67965e-05 9.06415e-23)
(0.743707 0.140069 -5.21159e-21)
(1.01493 -0.000485888 0)
(1.01259 -2.07506e-06 4.93837e-22)
(0.941638 0.148609 0)
(1.01365 -0.00015537 0)
(1.07879 0.0585162 0)
(1.01066 0.00166975 -8.19716e-22)
(1.04932 -0.0627379 0)
(0.999322 0.01094 -5.7409e-22)
(1.0551 -0.011917 1.72859e-21)
(1.02559 0.011729 1.28033e-21)
(1.01556 -0.000849641 1.57612e-23)
(0.903592 0.423879 1.64095e-20)
(0.869756 0.430875 -1.56705e-20)
(1.01376 -0.000172326 1.62971e-21)
(1.0186 -0.030129 4.27415e-21)
(0.65969 -0.0234411 5.08855e-21)
(0.964673 0.408753 4.97894e-21)
(0.944342 0.0419767 0)
(1.00944 6.60707e-05 -5.95025e-22)
(1.01723 0.00125219 7.31535e-22)
(1.00268 -0.0115755 -6.54696e-22)
(1.01505 -0.00215738 -1.43458e-22)
(1.01385 0.00793928 1.12403e-21)
(1.07892 0.115739 -1.10554e-23)
(1.01276 0.0133644 3.69446e-22)
(1.01456 -0.000233941 -8.59271e-24)
(0.989305 0.0295088 0)
(1.04013 -0.192745 -6.14035e-21)
(0.872427 -0.0224726 3.84658e-22)
(1.01464 -1.89067e-05 -6.25007e-22)
(1.01484 -0.000922942 -1.267e-21)
(1.0108 -1.66138e-05 4.05965e-22)
(1.01357 -0.000623593 6.76871e-23)
(0.998465 -0.173478 1.04973e-21)
(1.03072 -0.0338733 -7.2555e-23)
(1.01943 0.00053518 5.18455e-22)
(1.00832 0.0153158 0)
(1.03014 -0.0216978 -1.54287e-21)
(1.0151 0.000849041 8.79401e-22)
(1.01102 7.76983e-05 1.39323e-21)
(0.429956 -0.259621 -5.9534e-20)
(1.02129 -0.00878558 2.46631e-21)
(1.1098 0.0378732 6.03412e-22)
(1.01199 0.00588992 0)
(1.01453 6.15601e-05 -3.016e-22)
(1.0141 -0.000389394 1.912e-22)
(1.02446 0.00304784 -4.2695e-22)
(1.09433 -0.0225057 2.12536e-22)
(1.00393 0.0120195 0)
(1.01484 0.000450718 -8.45257e-22)
(0.766929 -0.0814226 2.36731e-21)
(0.934815 0.00375691 0)
(1.06095 0.150411 0)
(1.00548 0.0029598 -1.1212e-21)