/*--------------------------------*- C++ -*----------------------------------*\
| =========                 |                                                 |
| \\      /  F ield         | OpenFOAM: The Open Source CFD Toolbox           |
|  \\    /   O peration     | Version:  v2012                                 |
|   \\  /    A nd           | Website:  www.openfoam.com                      |
|    \\/     M anipulation  |                                                 |
\*---------------------------------------------------------------------------*/
FoamFile
{
    version     2.0;
    format      ascii;
    class       volVectorField;
    location    "500";
    object      cellDisplacement;
}
// * * * * * * * * * * * * * * * * * * * * * * * * * * * * * * * * * * * * * //

dimensions      [0 1 0 0 0 0 0];


internalField   nonuniform List<vector> 
9793
(
(0 -0.000347319 0)
(0 2.20379e-05 0)
(0 -0.000726217 0)
(0 2.19359e-05 0)
(0 -0.00015565 0)
(0 7.20378e-07 0)
(0 7.89542e-06 0)
(0 2.18385e-05 0)
(0 -0.000283985 0)
(0 2.20392e-05 0)
(0 -0.000260739 0)
(0 -0.000286507 0)
(0 -0.000524486 0)
(0 -8.86963e-06 0)
(0 -0.000393881 0)
(0 -0.00040379 0)
(0 -4.12566e-05 0)
(0 -0.000686212 0)
(0 2.16874e-05 0)
(0 -0.000384073 0)
(0 -0.000498231 0)
(0 -3.06406e-05 0)
(0 2.19054e-05 0)
(0 2.18279e-05 0)
(0 -1.06027e-05 0)
(0 -0.000101502 0)
(0 -0.000447599 0)
(0 -5.13934e-05 0)
(0 -0.000379836 0)
(0 -2.98055e-06 0)
(0 2.2036e-05 0)
(0 1.15985e-05 0)
(0 -0.000756326 0)
(0 -0.000662839 0)
(0 -3.17912e-05 0)
(0 -0.000181087 0)
(0 -0.000408918 0)
(0 -0.000162243 0)
(0 1.53547e-05 0)
(0 -8.997e-05 0)
(0 -5.71034e-06 0)
(0 1.68774e-05 0)
(0 2.1625e-05 0)
(0 -3.66573e-05 0)
(0 -0.000856575 0)
(0 -0.000827804 0)
(0 2.20216e-05 0)
(0 -5.16263e-05 0)
(0 -0.000588595 0)
(0 -0.00069563 0)
(0 -0.000190256 0)
(0 -3.74074e-05 0)
(0 -9.88952e-05 0)
(0 -0.000101831 0)
(0 -3.06212e-05 0)
(0 2.18526e-05 0)
(0 -0.000508737 0)
(0 -6.53339e-05 0)
(0 -0.000574243 0)
(0 -2.76128e-05 0)
(0 -0.000114759 0)
(0 1.65428e-05 0)
(0 -0.000729555 0)
(0 -0.000223005 0)
(0 -8.64677e-05 0)
(0 -0.000296138 0)
(0 2.20392e-05 0)
(0 -0.000190705 0)
(0 -0.000424369 0)
(0 1.7862e-05 0)
(0 -0.000536546 0)
(0 1.57232e-05 0)
(0 2.18944e-05 0)
(0 -0.000236646 0)
(0 9.3164e-06 0)
(0 -0.000101452 0)
(0 -1.38392e-06 0)
(0 1.99318e-05 0)
(0 -0.000788435 0)
(0 -0.000101084 0)
(0 1.08388e-06 0)
(0 2.15499e-05 0)
(0 -4.85978e-05 0)
(0 -0.000142714 0)
(0 -0.000406368 0)
(0 1.33114e-05 0)
(0 -0.000132682 0)
(0 -0.000149787 0)
(0 1.39526e-05 0)
(0 1.604e-05 0)
(0 2.15718e-05 0)
(0 1.89352e-05 0)
(0 1.90295e-05 0)
(0 -3.21882e-05 0)
(0 2.15669e-05 0)
(0 -0.000627458 0)
(0 1.04566e-05 0)
(0 -3.43477e-05 0)
(0 -0.000137454 0)
(0 -0.000119802 0)
(0 1.47129e-05 0)
(0 -0.000104125 0)
(0 -0.000262191 0)
(0 -0.000861077 0)
(0 -4.88841e-06 0)
(0 2.05614e-05 0)
(0 -0.000249692 0)
(0 -0.000413479 0)
(0 -0.000798484 0)
(0 -6.04467e-05 0)
(0 -0.000104458 0)
(0 2.17881e-05 0)
(0 2.20338e-05 0)
(0 2.2038e-05 0)
(0 -0.000535903 0)
(0 -0.000556717 0)
(0 -0.000566604 0)
(0 -0.000792573 0)
(0 2.16511e-05 0)
(0 -0.00086537 0)
(0 -9.3322e-06 0)
(0 -0.000135838 0)
(0 1.06961e-05 0)
(0 -0.000108879 0)
(0 -0.00039085 0)
(0 -0.00086326 0)
(0 -2.83045e-05 0)
(0 2.20327e-05 0)
(0 -0.000120519 0)
(0 -0.000128246 0)
(0 -0.000303553 0)
(0 -0.000486891 0)
(0 -0.000352262 0)
(0 -0.000220605 0)
(0 -0.000186899 0)
(0 1.33022e-05 0)
(0 3.66275e-06 0)
(0 -0.000545739 0)
(0 -7.61109e-05 0)
(0 -3.73731e-05 0)
(0 2.13616e-05 0)
(0 -0.000179486 0)
(0 -0.00047378 0)
(0 -0.000164364 0)
(0 2.20198e-05 0)
(0 2.02347e-05 0)
(0 -0.000879492 0)
(0 1.21918e-05 0)
(0 -0.000489733 0)
(0 -0.000878439 0)
(0 -0.000571831 0)
(0 2.18968e-05 0)
(0 -0.000147206 0)
(0 -0.000454509 0)
(0 -0.000716422 0)
(0 1.9444e-05 0)
(0 -3.77627e-05 0)
(0 -0.000717688 0)
(0 1.27181e-05 0)
(0 -0.000583824 0)
(0 -0.000149897 0)
(0 -0.00028822 0)
(0 -0.000487813 0)
(0 2.10904e-05 0)
(0 -0.000432626 0)
(0 1.93154e-05 0)
(0 -0.000266445 0)
(0 -0.000385614 0)
(0 -0.0003805 0)
(0 -0.000221101 0)
(0 -0.000476675 0)
(0 2.2043e-05 0)
(0 2.19426e-05 0)
(0 -2.29016e-05 0)
(0 -0.000526728 0)
(0 -2.5023e-06 0)
(0 1.65966e-05 0)
(0 2.16073e-05 0)
(0 -0.000769781 0)
(0 -0.00020684 0)
(0 -7.12852e-06 0)
(0 2.2027e-05 0)
(0 -0.000134596 0)
(0 -0.000840607 0)
(0 -0.000755213 0)
(0 -0.000395999 0)
(0 8.8894e-06 0)
(0 2.19397e-05 0)
(0 2.18646e-05 0)
(0 -0.000247094 0)
(0 -0.000313159 0)
(0 2.20237e-05 0)
(0 2.10919e-05 0)
(0 -0.00013764 0)
(0 -0.000633752 0)
(0 -0.000182293 0)
(0 2.19404e-05 0)
(0 -0.000310539 0)
(0 -0.000677095 0)
(0 -0.000317522 0)
(0 -0.000500994 0)
(0 -0.000540083 0)
(0 -0.000195065 0)
(0 -0.000294938 0)
(0 2.14419e-05 0)
(0 -0.000668521 0)
(0 -0.000108991 0)
(0 -0.000394791 0)
(0 -0.000312096 0)
(0 2.11938e-05 0)
(0 -4.10351e-05 0)
(0 2.13183e-05 0)
(0 -0.000271327 0)
(0 1.85497e-05 0)
(0 -0.000139011 0)
(0 -0.000429508 0)
(0 -0.000388341 0)
(0 1.27214e-05 0)
(0 -0.00053405 0)
(0 9.98932e-07 0)
(0 -3.07039e-05 0)
(0 -0.000529537 0)
(0 2.17396e-05 0)
(0 -5.87863e-05 0)
(0 -3.48173e-05 0)
(0 -0.000599351 0)
(0 -8.97396e-05 0)
(0 -0.000115426 0)
(0 3.80294e-07 0)
(0 2.08176e-06 0)
(0 2.10188e-05 0)
(0 -0.000120104 0)
(0 -0.000423182 0)
(0 -0.000216704 0)
(0 2.09681e-05 0)
(0 -0.000672723 0)
(0 2.19774e-05 0)
(0 2.2036e-05 0)
(0 -0.000298832 0)
(0 -0.000276558 0)
(0 1.57214e-05 0)
(0 -0.000571431 0)
(0 -0.000101912 0)
(0 -6.84925e-05 0)
(0 -5.26069e-05 0)
(0 -0.000300409 0)
(0 -0.000208385 0)
(0 -0.000103854 0)
(0 -1.36026e-05 0)
(0 -0.00023415 0)
(0 -0.000780522 0)
(0 -1.46104e-05 0)
(0 2.19797e-05 0)
(0 -0.000520405 0)
(0 -3.53928e-05 0)
(0 -0.000120298 0)
(0 -0.000331292 0)
(0 -6.07827e-05 0)
(0 2.18224e-05 0)
(0 -0.000893646 0)
(0 1.97834e-05 0)
(0 1.32437e-05 0)
(0 -0.000286975 0)
(0 -0.000505985 0)
(0 1.87691e-05 0)
(0 -4.21429e-05 0)
(0 -0.000192762 0)
(0 -4.06429e-05 0)
(0 1.46103e-05 0)
(0 2.07917e-05 0)
(0 -0.000127317 0)
(0 2.06101e-05 0)
(0 -6.02881e-05 0)
(0 -0.000252427 0)
(0 2.19806e-05 0)
(0 -0.000370201 0)
(0 2.20365e-05 0)
(0 -0.000110727 0)
(0 -0.000125269 0)
(0 2.20784e-05 0)
(0 6.16645e-06 0)
(0 -5.83891e-06 0)
(0 -0.000114443 0)
(0 -0.000314451 0)
(0 -5.25286e-05 0)
(0 -0.000300279 0)
(0 -0.000659352 0)
(0 -0.000435126 0)
(0 2.08966e-05 0)
(0 -9.15584e-05 0)
(0 -0.000482368 0)
(0 -1.11614e-05 0)
(0 -0.000283013 0)
(0 -9.16853e-05 0)
(0 -0.000509542 0)
(0 2.17987e-05 0)
(0 -0.000455665 0)
(0 -0.000398561 0)
(0 -9.06809e-05 0)
(0 -0.000515972 0)
(0 2.20181e-05 0)
(0 2.01448e-05 0)
(0 7.76687e-06 0)
(0 -0.000264795 0)
(0 -0.00015153 0)
(0 -7.65889e-05 0)
(0 -0.000252278 0)
(0 2.19367e-05 0)
(0 -0.000872802 0)
(0 1.2803e-05 0)
(0 -0.000213956 0)
(0 -0.000844072 0)
(0 2.20392e-05 0)
(0 -0.000239001 0)
(0 -0.000743838 0)
(0 -1.08393e-05 0)
(0 2.20333e-05 0)
(0 -0.000351925 0)
(0 -4.04234e-05 0)
(0 -0.000397608 0)
(0 -0.000339936 0)
(0 -0.000132856 0)
(0 -6.65418e-06 0)
(0 -0.000666916 0)
(0 -0.000842529 0)
(0 -0.000280927 0)
(0 1.73495e-05 0)
(0 2.20322e-05 0)
(0 -0.000738132 0)
(0 -0.000427573 0)
(0 -0.000466998 0)
(0 2.20505e-05 0)
(0 2.20176e-05 0)
(0 2.19202e-05 0)
(0 -0.00064505 0)
(0 -3.51876e-06 0)
(0 -3.7324e-05 0)
(0 2.18089e-05 0)
(0 -6.25552e-05 0)
(0 -0.000740674 0)
(0 -0.000682129 0)
(0 -0.000459568 0)
(0 -5.99351e-05 0)
(0 -0.000325137 0)
(0 2.18137e-05 0)
(0 -0.000659121 0)
(0 -0.000459357 0)
(0 -0.000133541 0)
(0 2.17413e-05 0)
(0 1.85959e-05 0)
(0 -9.0711e-05 0)
(0 1.61732e-05 0)
(0 -0.000115607 0)
(0 2.20916e-05 0)
(0 2.18001e-05 0)
(0 2.12998e-05 0)
(0 -0.000154897 0)
(0 -8.23367e-05 0)
(0 5.54782e-06 0)
(0 2.13357e-05 0)
(0 2.17583e-05 0)
(0 -0.000130905 0)
(0 -5.69853e-05 0)
(0 -0.000119726 0)
(0 -0.000615238 0)
(0 -0.000437626 0)
(0 -0.000339792 0)
(0 -0.000455164 0)
(0 -4.06919e-06 0)
(0 2.17484e-05 0)
(0 -0.000253309 0)
(0 -2.14713e-05 0)
(0 -0.000102699 0)
(0 -1.41494e-05 0)
(0 -0.000758874 0)
(0 -0.000134652 0)
(0 2.20189e-05 0)
(0 2.11941e-05 0)
(0 -2.47018e-05 0)
(0 -6.6861e-05 0)
(0 -0.000461704 0)
(0 -0.000147273 0)
(0 -0.000723222 0)
(0 1.8951e-05 0)
(0 -0.000128256 0)
(0 1.79862e-05 0)
(0 1.84157e-05 0)
(0 8.36365e-06 0)
(0 2.19574e-05 0)
(0 -0.000147625 0)
(0 -0.000236496 0)
(0 -0.000596012 0)
(0 4.50198e-06 0)
(0 1.87483e-05 0)
(0 -0.000682755 0)
(0 2.18795e-05 0)
(0 -0.000254052 0)
(0 -0.000382184 0)
(0 2.20709e-05 0)
(0 -0.000260289 0)
(0 -5.83291e-05 0)
(0 -0.000654271 0)
(0 -0.000256176 0)
(0 -0.000637947 0)
(0 -0.000444706 0)
(0 -9.94874e-05 0)
(0 1.43866e-05 0)
(0 -0.000354281 0)
(0 -0.000130435 0)
(0 -0.000304268 0)
(0 -0.00049779 0)
(0 1.08079e-05 0)
(0 -3.22188e-05 0)
(0 -0.000575419 0)
(0 -0.000376814 0)
(0 -2.92099e-05 0)
(0 -3.96371e-05 0)
(0 -0.000375827 0)
(0 2.20263e-05 0)
(0 -0.000346392 0)
(0 -0.000664385 0)
(0 2.09891e-05 0)
(0 -0.000293019 0)
(0 2.1939e-05 0)
(0 2.14735e-05 0)
(0 -0.00077502 0)
(0 -0.000725686 0)
(0 -0.000431799 0)
(0 -0.000269073 0)
(0 -0.000478629 0)
(0 1.31462e-05 0)
(0 2.44672e-06 0)
(0 1.94519e-05 0)
(0 -9.71506e-05 0)
(0 -0.000493003 0)
(0 -0.000102101 0)
(0 -0.000175269 0)
(0 2.14658e-05 0)
(0 -0.000118421 0)
(0 -0.00013778 0)
(0 -0.000193882 0)
(0 1.96411e-05 0)
(0 -0.000516001 0)
(0 -0.000574289 0)
(0 -0.000520207 0)
(0 -0.000116868 0)
(0 -0.000617948 0)
(0 -0.000390334 0)
(0 -0.000807443 0)
(0 -0.000205434 0)
(0 -0.000205607 0)
(0 -0.000288243 0)
(0 -7.41284e-05 0)
(0 -5.39718e-05 0)
(0 2.18817e-05 0)
(0 -0.000117894 0)
(0 1.91731e-05 0)
(0 2.20009e-05 0)
(0 -0.000639303 0)
(0 -0.000138481 0)
(0 5.89667e-06 0)
(0 -0.000615568 0)
(0 -0.000163193 0)
(0 -0.000448741 0)
(0 -2.65394e-05 0)
(0 -5.42557e-05 0)
(0 -0.000152794 0)
(0 -0.000601093 0)
(0 -0.000331974 0)
(0 6.62957e-06 0)
(0 1.76324e-05 0)
(0 2.00761e-05 0)
(0 -8.50421e-05 0)
(0 -0.000728577 0)
(0 -5.05138e-05 0)
(0 2.20281e-05 0)
(0 8.64013e-06 0)
(0 -0.000191078 0)
(0 -0.00035489 0)
(0 -4.25964e-05 0)
(0 1.87931e-05 0)
(0 -3.95191e-05 0)
(0 -0.000322924 0)
(0 -0.000472732 0)
(0 2.11337e-05 0)
(0 -0.000641544 0)
(0 1.65603e-05 0)
(0 -5.39175e-06 0)
(0 -0.000577968 0)
(0 2.03414e-05 0)
(0 -0.00012411 0)
(0 1.86967e-05 0)
(0 -0.000503054 0)
(0 2.15112e-05 0)
(0 1.16267e-05 0)
(0 -0.000402296 0)
(0 1.83529e-05 0)
(0 -0.000635659 0)
(0 2.16874e-05 0)
(0 -0.000664139 0)
(0 -0.00058955 0)
(0 -0.000199929 0)
(0 -0.000705143 0)
(0 1.05187e-05 0)
(0 -0.000616426 0)
(0 -0.000556709 0)
(0 -0.000258296 0)
(0 -0.000627706 0)
(0 -0.000476942 0)
(0 -7.27724e-06 0)
(0 -0.000201611 0)
(0 -0.00020964 0)
(0 -0.000316203 0)
(0 -0.000303625 0)
(0 2.2013e-05 0)
(0 1.14655e-05 0)
(0 -0.000202809 0)
(0 -2.88892e-05 0)
(0 -0.000293324 0)
(0 -0.000296835 0)
(0 -0.000902962 0)
(0 -0.00048577 0)
(0 2.18599e-05 0)
(0 -0.000570108 0)
(0 -3.32812e-05 0)
(0 2.20433e-05 0)
(0 1.70068e-05 0)
(0 -1.43258e-05 0)
(0 -0.000517962 0)
(0 -5.80707e-05 0)
(0 -0.000335822 0)
(0 -0.000181276 0)
(0 -3.53967e-05 0)
(0 -0.00034072 0)
(0 -0.000240863 0)
(0 -0.000379034 0)
(0 2.18411e-05 0)
(0 -0.000124011 0)
(0 2.20344e-05 0)
(0 -9.25344e-06 0)
(0 1.80509e-05 0)
(0 -0.000652056 0)
(0 -0.000219476 0)
(0 2.20186e-05 0)
(0 -0.000637341 0)
(0 1.56198e-05 0)
(0 -0.000605353 0)
(0 -1.12977e-05 0)
(0 -0.000498189 0)
(0 -6.65286e-06 0)
(0 2.15409e-05 0)
(0 -0.000453182 0)
(0 -0.000118218 0)
(0 -0.000598881 0)
(0 -5.05373e-05 0)
(0 -6.34988e-05 0)
(0 -1.58129e-05 0)
(0 2.12052e-05 0)
(0 -0.000156234 0)
(0 -5.70975e-05 0)
(0 -6.77825e-07 0)
(0 -5.66803e-05 0)
(0 -0.000334988 0)
(0 -0.000442494 0)
(0 -8.50017e-05 0)
(0 -0.000236621 0)
(0 -5.96769e-05 0)
(0 -0.000301517 0)
(0 -0.00031165 0)
(0 -0.000237869 0)
(0 1.35148e-05 0)
(0 -1.48973e-05 0)
(0 -0.000402345 0)
(0 2.20326e-05 0)
(0 -0.000587536 0)
(0 1.84524e-05 0)
(0 -0.00067103 0)
(0 -0.000411839 0)
(0 -0.000632325 0)
(0 -0.000313548 0)
(0 -0.000113189 0)
(0 1.91241e-05 0)
(0 -0.000397535 0)
(0 1.67837e-05 0)
(0 -1.40958e-06 0)
(0 -2.83993e-05 0)
(0 -2.57789e-05 0)
(0 2.2039e-05 0)
(0 -0.000212399 0)
(0 -2.96472e-05 0)
(0 2.18775e-05 0)
(0 1.88106e-05 0)
(0 2.06823e-05 0)
(0 -8.19015e-06 0)
(0 1.74759e-05 0)
(0 -0.000342067 0)
(0 2.20371e-05 0)
(0 -0.000250892 0)
(0 -0.000417401 0)
(0 1.92652e-05 0)
(0 -4.99661e-05 0)
(0 2.09526e-05 0)
(0 -1.95445e-05 0)
(0 -1.5091e-05 0)
(0 -0.000105481 0)
(0 2.15378e-05 0)
(0 2.19206e-05 0)
(0 -0.00023643 0)
(0 -2.00731e-05 0)
(0 -0.000290852 0)
(0 2.07883e-05 0)
(0 -0.000310325 0)
(0 -0.000660085 0)
(0 -0.000340177 0)
(0 -0.000601739 0)
(0 -3.6173e-05 0)
(0 2.05932e-05 0)
(0 2.01132e-05 0)
(0 2.19695e-05 0)
(0 -0.000215829 0)
(0 -0.000169569 0)
(0 1.79166e-05 0)
(0 2.05264e-05 0)
(0 -0.000349674 0)
(0 -6.56428e-05 0)
(0 -0.000296031 0)
(0 2.20994e-05 0)
(0 -0.000109929 0)
(0 -0.000776345 0)
(0 7.53697e-06 0)
(0 2.05338e-05 0)
(0 2.19303e-05 0)
(0 -7.30987e-05 0)
(0 -0.000107329 0)
(0 1.82872e-05 0)
(0 -0.000209481 0)
(0 9.47694e-06 0)
(0 -0.000202565 0)
(0 -1.96952e-05 0)
(0 -0.000100743 0)
(0 -0.000199076 0)
(0 -0.000344022 0)
(0 -0.000718356 0)
(0 -0.000137623 0)
(0 -5.36221e-05 0)
(0 -0.000135959 0)
(0 -6.66369e-07 0)
(0 9.02643e-06 0)
(0 -2.43866e-05 0)
(0 -0.000110342 0)
(0 -0.000512633 0)
(0 -0.000666178 0)
(0 -5.27921e-05 0)
(0 -0.000581101 0)
(0 -3.2839e-06 0)
(0 -3.36436e-05 0)
(0 -8.55117e-06 0)
(0 -3.74529e-05 0)
(0 1.85367e-05 0)
(0 -0.000502973 0)
(0 2.19581e-05 0)
(0 -0.000156803 0)
(0 -3.95212e-06 0)
(0 -4.19071e-05 0)
(0 1.06945e-05 0)
(0 -0.000255989 0)
(0 -0.000587323 0)
(0 -3.95375e-06 0)
(0 -0.000640691 0)
(0 -0.000344977 0)
(0 -4.79265e-05 0)
(0 1.11951e-05 0)
(0 -0.000548303 0)
(0 -0.000124565 0)
(0 8.38053e-06 0)
(0 -0.000221519 0)
(0 -0.000121376 0)
(0 7.78619e-06 0)
(0 -0.000383166 0)
(0 -3.25514e-05 0)
(0 -0.000386166 0)
(0 -0.000318615 0)
(0 -0.000486487 0)
(0 1.57214e-05 0)
(0 5.9304e-06 0)
(0 2.18647e-05 0)
(0 -0.000496347 0)
(0 -0.000854399 0)
(0 -0.000425766 0)
(0 -0.00059341 0)
(0 -0.000205338 0)
(0 -0.000148536 0)
(0 2.09709e-05 0)
(0 -0.000167892 0)
(0 -0.000222576 0)
(0 1.79823e-05 0)
(0 -0.0001861 0)
(0 -3.28094e-05 0)
(0 -0.000358406 0)
(0 2.20419e-05 0)
(0 -0.000331488 0)
(0 -0.000170733 0)
(0 9.13647e-06 0)
(0 2.19887e-05 0)
(0 -0.000585483 0)
(0 -0.000809122 0)
(0 -0.000733177 0)
(0 -0.000424535 0)
(0 -0.000240707 0)
(0 -0.000222851 0)
(0 8.39025e-06 0)
(0 -0.000287778 0)
(0 -8.98593e-05 0)
(0 -0.000355406 0)
(0 -0.000367128 0)
(0 -1.02247e-05 0)
(0 2.18458e-05 0)
(0 -5.9617e-05 0)
(0 -0.000552836 0)
(0 -0.000605784 0)
(0 -8.77138e-05 0)
(0 -0.000132076 0)
(0 -0.000114578 0)
(0 -0.000610066 0)
(0 -0.00059982 0)
(0 2.20381e-05 0)
(0 -0.000256162 0)
(0 -9.4554e-05 0)
(0 -6.3701e-05 0)
(0 6.54026e-06 0)
(0 -0.000591429 0)
(0 -2.11014e-05 0)
(0 -0.000324367 0)
(0 2.16232e-05 0)
(0 -4.14585e-05 0)
(0 -5.19143e-06 0)
(0 2.0996e-05 0)
(0 -0.000114329 0)
(0 1.42579e-05 0)
(0 -4.80399e-05 0)
(0 -0.000504279 0)
(0 2.18089e-05 0)
(0 -9.23996e-05 0)
(0 -0.000657206 0)
(0 -0.00033096 0)
(0 -4.38564e-05 0)
(0 2.19931e-05 0)
(0 -0.000337422 0)
(0 -0.00088999 0)
(0 -0.000631505 0)
(0 -0.000611257 0)
(0 -0.000508177 0)
(0 -0.000335202 0)
(0 2.08944e-05 0)
(0 -3.75941e-05 0)
(0 -0.000219456 0)
(0 -0.000404645 0)
(0 -3.70168e-05 0)
(0 -2.82008e-05 0)
(0 -0.000425544 0)
(0 -9.70346e-05 0)
(0 -9.54129e-06 0)
(0 -0.000427362 0)
(0 -0.000167099 0)
(0 2.18344e-05 0)
(0 -8.33118e-05 0)
(0 -0.000513558 0)
(0 2.19013e-05 0)
(0 -0.000306855 0)
(0 -0.000109863 0)
(0 1.99731e-05 0)
(0 2.20001e-05 0)
(0 -0.000399863 0)
(0 -0.000303816 0)
(0 2.06806e-05 0)
(0 -9.488e-05 0)
(0 -0.000172721 0)
(0 -0.000171078 0)
(0 -5.16234e-05 0)
(0 -1.40259e-05 0)
(0 -5.22878e-06 0)
(0 -0.000736503 0)
(0 2.12653e-05 0)
(0 -0.000170609 0)
(0 -1.78758e-05 0)
(0 -0.00057837 0)
(0 -6.88351e-05 0)
(0 -0.00068171 0)
(0 -0.000140256 0)
(0 -0.000139364 0)
(0 1.79738e-05 0)
(0 -0.000465962 0)
(0 -0.000603869 0)
(0 -3.31978e-05 0)
(0 -0.000580482 0)
(0 -0.000358113 0)
(0 -0.000527565 0)
(0 -9.43725e-05 0)
(0 -0.000630691 0)
(0 -0.000136665 0)
(0 -3.05569e-05 0)
(0 -6.41902e-05 0)
(0 -4.10817e-05 0)
(0 -0.000333566 0)
(0 -0.000448926 0)
(0 2.2037e-05 0)
(0 -0.000135986 0)
(0 -0.000487617 0)
(0 -9.85837e-05 0)
(0 2.20352e-05 0)
(0 -0.000597819 0)
(0 -0.000879043 0)
(0 -0.000548873 0)
(0 7.75264e-06 0)
(0 -0.000139256 0)
(0 2.20107e-05 0)
(0 -0.000450596 0)
(0 -0.000114327 0)
(0 -0.000344402 0)
(0 -0.000322251 0)
(0 -1.60856e-05 0)
(0 1.1018e-05 0)
(0 -0.000366295 0)
(0 1.36969e-05 0)
(0 -0.000512736 0)
(0 7.8693e-06 0)
(0 -0.000460231 0)
(0 -0.000193577 0)
(0 -0.000639699 0)
(0 -0.000395809 0)
(0 4.67134e-06 0)
(0 2.20408e-05 0)
(0 -0.000332529 0)
(0 -9.54955e-05 0)
(0 -9.39277e-05 0)
(0 -0.000579596 0)
(0 2.19858e-05 0)
(0 2.20387e-05 0)
(0 -0.00012618 0)
(0 -0.000385269 0)
(0 -0.000460526 0)
(0 2.1972e-05 0)
(0 -0.000543023 0)
(0 2.19816e-05 0)
(0 -0.000682875 0)
(0 -0.000278069 0)
(0 -0.000368801 0)
(0 -0.000141378 0)
(0 -0.000394758 0)
(0 1.43676e-05 0)
(0 2.14199e-05 0)
(0 2.19624e-05 0)
(0 1.00162e-05 0)
(0 2.20298e-05 0)
(0 -0.0007154 0)
(0 -2.94531e-05 0)
(0 2.08131e-05 0)
(0 -9.70706e-06 0)
(0 -0.000324609 0)
(0 -0.000326891 0)
(0 -2.38208e-05 0)
(0 -0.000561617 0)
(0 2.17467e-05 0)
(0 -4.2696e-05 0)
(0 -8.37804e-06 0)
(0 -0.000260994 0)
(0 1.99542e-05 0)
(0 2.20306e-05 0)
(0 2.1971e-05 0)
(0 -5.14315e-05 0)
(0 -0.000105428 0)
(0 -5.90212e-05 0)
(0 2.18079e-05 0)
(0 -0.000624663 0)
(0 2.1262e-05 0)
(0 2.59608e-06 0)
(0 1.19501e-05 0)
(0 1.97315e-05 0)
(0 1.66252e-05 0)
(0 -0.00023938 0)
(0 -0.00016697 0)
(0 -0.000256026 0)
(0 -0.000243644 0)
(0 2.17927e-05 0)
(0 2.20323e-05 0)
(0 -0.00031307 0)
(0 2.20058e-05 0)
(0 -0.000445176 0)
(0 -5.87036e-05 0)
(0 1.70268e-05 0)
(0 8.99271e-06 0)
(0 6.34823e-06 0)
(0 -0.000700801 0)
(0 -0.000106973 0)
(0 -0.000199967 0)
(0 -0.000394315 0)
(0 -0.000509272 0)
(0 -9.21009e-05 0)
(0 -0.000319733 0)
(0 2.07132e-05 0)
(0 -6.23151e-05 0)
(0 -0.00071112 0)
(0 3.63744e-06 0)
(0 -5.4662e-05 0)
(0 -3.01908e-05 0)
(0 -0.000271188 0)
(0 2.18274e-05 0)
(0 2.11185e-05 0)
(0 1.92222e-05 0)
(0 -0.000121785 0)
(0 -4.92522e-05 0)
(0 -0.000268166 0)
(0 -5.02157e-05 0)
(0 -0.000603208 0)
(0 1.94463e-05 0)
(0 -0.000123976 0)
(0 -0.000279547 0)
(0 -0.000653915 0)
(0 -0.000206235 0)
(0 2.19523e-05 0)
(0 -0.000101629 0)
(0 -0.000776443 0)
(0 2.09123e-05 0)
(0 -0.000707649 0)
(0 -0.000103552 0)
(0 -0.00062517 0)
(0 -0.000163673 0)
(0 -0.000833656 0)
(0 -0.000354083 0)
(0 2.1992e-05 0)
(0 -2.28442e-05 0)
(0 -4.96716e-06 0)
(0 2.20195e-05 0)
(0 1.64452e-05 0)
(0 -0.000695435 0)
(0 -0.000512526 0)
(0 -0.000104297 0)
(0 -1.50483e-05 0)
(0 -0.000500748 0)
(0 -0.000407758 0)
(0 2.07702e-05 0)
(0 -0.000241989 0)
(0 -0.000276516 0)
(0 -9.88846e-05 0)
(0 -3.04809e-05 0)
(0 2.05058e-05 0)
(0 -0.000558255 0)
(0 -1.42091e-05 0)
(0 -0.00042515 0)
(0 -0.000314815 0)
(0 2.12967e-05 0)
(0 -7.61682e-06 0)
(0 -6.18907e-05 0)
(0 -0.000355494 0)
(0 -0.000559577 0)
(0 2.20216e-05 0)
(0 1.09892e-05 0)
(0 1.77953e-05 0)
(0 2.20641e-05 0)
(0 -0.000422828 0)
(0 -0.000581853 0)
(0 -0.000762829 0)
(0 2.20407e-05 0)
(0 -0.000148837 0)
(0 -7.12916e-05 0)
(0 -0.000294177 0)
(0 -0.000336927 0)
(0 -0.000490967 0)
(0 -5.97049e-05 0)
(0 -0.000364625 0)
(0 9.55727e-06 0)
(0 -0.000455229 0)
(0 -2.45123e-05 0)
(0 -5.26765e-05 0)
(0 -0.000349865 0)
(0 -0.000610969 0)
(0 -0.000370826 0)
(0 -1.93615e-05 0)
(0 2.19493e-05 0)
(0 -0.00017831 0)
(0 2.20283e-05 0)
(0 -0.000500395 0)
(0 -1.98773e-05 0)
(0 -0.000365734 0)
(0 7.59334e-06 0)
(0 -0.000667258 0)
(0 -0.000672721 0)
(0 -0.000210741 0)
(0 -2.52123e-05 0)
(0 -3.50601e-05 0)
(0 -0.000426618 0)
(0 -4.6464e-05 0)
(0 1.57129e-05 0)
(0 1.29519e-05 0)
(0 -0.000337418 0)
(0 -3.32417e-05 0)
(0 2.15669e-05 0)
(0 -0.000258553 0)
(0 1.88022e-05 0)
(0 -3.82791e-06 0)
(0 5.6968e-06 0)
(0 -0.000408305 0)
(0 -0.000310944 0)
(0 -0.000138079 0)
(0 1.35989e-05 0)
(0 -0.000490144 0)
(0 -0.000224817 0)
(0 -0.000326921 0)
(0 -0.000372636 0)
(0 -0.000281735 0)
(0 -0.000408783 0)
(0 -0.000609908 0)
(0 -0.000904025 0)
(0 2.13163e-05 0)
(0 -0.000105239 0)
(0 -0.000228867 0)
(0 -1.04915e-05 0)
(0 -0.000429646 0)
(0 -0.000750598 0)
(0 -3.01154e-05 0)
(0 9.9396e-06 0)
(0 1.47877e-05 0)
(0 -8.08017e-06 0)
(0 -4.50618e-05 0)
(0 -9.50231e-05 0)
(0 2.17224e-05 0)
(0 -5.59737e-05 0)
(0 2.20349e-05 0)
(0 7.27565e-06 0)
(0 -0.000364183 0)
(0 -0.000379278 0)
(0 -0.000258952 0)
(0 2.18404e-05 0)
(0 2.19222e-05 0)
(0 -4.26516e-06 0)
(0 1.76317e-05 0)
(0 -0.000420413 0)
(0 -0.000432943 0)
(0 -0.000163238 0)
(0 -0.0003486 0)
(0 2.20375e-05 0)
(0 -0.000154821 0)
(0 -0.000379781 0)
(0 -4.56672e-06 0)
(0 2.02743e-05 0)
(0 -6.51286e-06 0)
(0 -0.000239289 0)
(0 -0.000223689 0)
(0 3.39316e-06 0)
(0 -0.000100034 0)
(0 -0.000243094 0)
(0 2.09882e-05 0)
(0 1.72384e-05 0)
(0 -0.000265632 0)
(0 3.3766e-06 0)
(0 -1.33676e-05 0)
(0 -1.86673e-05 0)
(0 1.26783e-05 0)
(0 -0.000105048 0)
(0 -0.000361737 0)
(0 -9.59707e-06 0)
(0 -0.000655703 0)
(0 -0.000192005 0)
(0 -0.000104726 0)
(0 2.20146e-05 0)
(0 -0.000104672 0)
(0 -4.12686e-05 0)
(0 8.5751e-06 0)
(0 -0.000404522 0)
(0 2.20092e-05 0)
(0 2.20295e-05 0)
(0 -0.000507003 0)
(0 2.19677e-05 0)
(0 -4.78752e-05 0)
(0 -0.000410249 0)
(0 -0.000527099 0)
(0 8.28339e-06 0)
(0 2.1246e-05 0)
(0 -0.000142993 0)
(0 -5.37046e-05 0)
(0 -0.000621373 0)
(0 1.85502e-05 0)
(0 -7.21534e-06 0)
(0 -6.27509e-05 0)
(0 -0.000436733 0)
(0 -0.000418223 0)
(0 -0.000386442 0)
(0 -2.30567e-05 0)
(0 -0.000220961 0)
(0 -1.82381e-05 0)
(0 -5.76589e-05 0)
(0 -0.000159185 0)
(0 2.11754e-05 0)
(0 1.05227e-05 0)
(0 -0.000239917 0)
(0 -0.00010499 0)
(0 -0.000252972 0)
(0 2.09277e-05 0)
(0 -0.000121041 0)
(0 -0.000624778 0)
(0 -0.000407013 0)
(0 -0.000638732 0)
(0 -0.000226358 0)
(0 2.19879e-05 0)
(0 2.09251e-05 0)
(0 1.1628e-05 0)
(0 -0.000100214 0)
(0 -0.000463998 0)
(0 2.01397e-05 0)
(0 -9.7106e-05 0)
(0 -0.000275582 0)
(0 2.18576e-05 0)
(0 -0.000410906 0)
(0 -7.02855e-06 0)
(0 2.20326e-05 0)
(0 -0.000423102 0)
(0 2.20224e-05 0)
(0 2.17879e-05 0)
(0 8.68558e-06 0)
(0 2.20327e-05 0)
(0 -1.97322e-05 0)
(0 -0.000469258 0)
(0 -0.000235495 0)
(0 2.20204e-05 0)
(0 2.0137e-05 0)
(0 -0.000248357 0)
(0 2.20147e-05 0)
(0 -0.000135035 0)
(0 -0.00061348 0)
(0 -0.000115943 0)
(0 -0.000332041 0)
(0 -0.000106675 0)
(0 -0.000142982 0)
(0 2.0686e-05 0)
(0 2.20342e-05 0)
(0 2.02094e-05 0)
(0 -3.85921e-05 0)
(0 -3.51257e-05 0)
(0 1.10634e-06 0)
(0 2.20085e-05 0)
(0 -0.000412937 0)
(0 2.20416e-05 0)
(0 -1.75853e-05 0)
(0 -0.000139986 0)
(0 -0.000122367 0)
(0 -9.10648e-05 0)
(0 -0.00032636 0)
(0 -4.20017e-05 0)
(0 2.20036e-05 0)
(0 -0.000424866 0)
(0 -0.000431245 0)
(0 2.19934e-05 0)
(0 6.51134e-06 0)
(0 -0.000112989 0)
(0 -0.000125883 0)
(0 -2.49681e-05 0)
(0 -0.000733831 0)
(0 -6.29697e-05 0)
(0 -3.59818e-05 0)
(0 1.91868e-05 0)
(0 -0.000248197 0)
(0 -0.000406178 0)
(0 -2.76048e-05 0)
(0 2.20135e-05 0)
(0 -1.94799e-05 0)
(0 -0.00032047 0)
(0 2.04184e-05 0)
(0 -0.000350141 0)
(0 -0.0004523 0)
(0 -0.000654095 0)
(0 -0.000245275 0)
(0 -0.000419437 0)
(0 -0.00029007 0)
(0 1.94424e-05 0)
(0 -0.000164119 0)
(0 -9.14439e-05 0)
(0 2.1779e-05 0)
(0 -0.000131001 0)
(0 1.30515e-05 0)
(0 1.75416e-05 0)
(0 1.0466e-05 0)
(0 -2.74145e-05 0)
(0 -0.000559122 0)
(0 -0.000166522 0)
(0 -0.000361753 0)
(0 -0.000222985 0)
(0 1.34415e-05 0)
(0 -0.000471355 0)
(0 1.71774e-05 0)
(0 -0.000107701 0)
(0 -1.63032e-05 0)
(0 -0.00070019 0)
(0 2.05864e-05 0)
(0 -3.3377e-05 0)
(0 2.19231e-05 0)
(0 -5.37901e-05 0)
(0 2.19435e-05 0)
(0 -0.000261586 0)
(0 -2.17732e-05 0)
(0 8.18092e-06 0)
(0 -6.28023e-05 0)
(0 -0.000288045 0)
(0 1.98567e-05 0)
(0 -5.14715e-05 0)
(0 2.01722e-05 0)
(0 -0.000473861 0)
(0 -2.97353e-05 0)
(0 -0.000719893 0)
(0 2.19232e-05 0)
(0 1.96817e-05 0)
(0 -6.84952e-06 0)
(0 -0.000701683 0)
(0 -0.000742887 0)
(0 -2.16713e-05 0)
(0 2.2031e-05 0)
(0 -0.000195584 0)
(0 -0.000768734 0)
(0 -6.64565e-05 0)
(0 1.08989e-05 0)
(0 -8.58339e-05 0)
(0 -0.000319825 0)
(0 1.4656e-05 0)
(0 -0.000421516 0)
(0 -0.000153327 0)
(0 -0.000671098 0)
(0 -0.000201605 0)
(0 -0.00061994 0)
(0 1.9581e-05 0)
(0 -0.000605095 0)
(0 -0.000625682 0)
(0 9.51396e-06 0)
(0 2.20408e-05 0)
(0 -0.00030867 0)
(0 -9.36989e-06 0)
(0 -0.00036124 0)
(0 1.48178e-05 0)
(0 -0.000444062 0)
(0 1.91725e-05 0)
(0 -0.000239331 0)
(0 9.31451e-06 0)
(0 -0.000438119 0)
(0 -0.000243168 0)
(0 2.17533e-05 0)
(0 -0.000219108 0)
(0 2.18781e-05 0)
(0 -0.000150499 0)
(0 2.20294e-05 0)
(0 -0.000275859 0)
(0 -0.000560885 0)
(0 -0.00040514 0)
(0 -0.000150939 0)
(0 -0.00011589 0)
(0 -0.000114812 0)
(0 2.20047e-05 0)
(0 -0.00020313 0)
(0 -0.000158383 0)
(0 -5.73808e-06 0)
(0 -8.36008e-05 0)
(0 -0.00033311 0)
(0 -0.000123812 0)
(0 4.16374e-06 0)
(0 2.20403e-05 0)
(0 -0.000627936 0)
(0 2.11749e-05 0)
(0 -0.0003613 0)
(0 -4.2486e-06 0)
(0 2.19001e-05 0)
(0 -0.00011264 0)
(0 -0.000881914 0)
(0 -0.000414959 0)
(0 -3.86964e-05 0)
(0 1.96656e-05 0)
(0 -0.000138142 0)
(0 -0.000103173 0)
(0 -0.000558576 0)
(0 -9.14369e-05 0)
(0 -0.000531606 0)
(0 2.15101e-05 0)
(0 2.16716e-05 0)
(0 2.20303e-05 0)
(0 -0.000502572 0)
(0 -0.000148383 0)
(0 2.08725e-05 0)
(0 -0.000355879 0)
(0 6.15853e-06 0)
(0 -0.000387935 0)
(0 1.98402e-05 0)
(0 -1.77134e-05 0)
(0 -0.000822098 0)
(0 -3.34951e-06 0)
(0 1.98674e-05 0)
(0 -0.000591544 0)
(0 -0.000161116 0)
(0 -0.000672086 0)
(0 -1.0514e-05 0)
(0 1.96179e-05 0)
(0 5.78746e-06 0)
(0 2.09861e-05 0)
(0 -0.000410065 0)
(0 -0.000380149 0)
(0 2.17541e-05 0)
(0 -0.00031022 0)
(0 -9.8548e-06 0)
(0 -7.47133e-05 0)
(0 -0.00020011 0)
(0 -0.000638653 0)
(0 2.02999e-05 0)
(0 -0.000180639 0)
(0 2.04687e-05 0)
(0 -0.000646189 0)
(0 1.17779e-05 0)
(0 -0.000236354 0)
(0 2.06949e-05 0)
(0 -0.000124826 0)
(0 -0.000150919 0)
(0 -0.000156325 0)
(0 2.16477e-05 0)
(0 -0.000533475 0)
(0 -6.62836e-05 0)
(0 1.89079e-05 0)
(0 7.96285e-06 0)
(0 2.19769e-05 0)
(0 2.12925e-05 0)
(0 -0.000291678 0)
(0 -0.000763241 0)
(0 -0.000462988 0)
(0 4.83483e-06 0)
(0 -0.000545501 0)
(0 -1.40262e-05 0)
(0 9.49975e-06 0)
(0 -0.000159537 0)
(0 -2.03562e-05 0)
(0 -0.00041233 0)
(0 -0.000440708 0)
(0 -6.088e-05 0)
(0 -0.000414633 0)
(0 2.20151e-05 0)
(0 3.74052e-06 0)
(0 1.93306e-05 0)
(0 -1.19059e-05 0)
(0 -0.00020279 0)
(0 2.20173e-05 0)
(0 -0.000186712 0)
(0 -0.00019328 0)
(0 -0.000343992 0)
(0 -6.5307e-05 0)
(0 2.99112e-06 0)
(0 -0.000734613 0)
(0 -0.000364851 0)
(0 -0.000137047 0)
(0 -0.000392547 0)
(0 -2.60334e-05 0)
(0 7.06358e-06 0)
(0 2.19788e-05 0)
(0 -4.53107e-06 0)
(0 -0.000333872 0)
(0 9.78429e-06 0)
(0 -0.000414798 0)
(0 -0.000568102 0)
(0 -0.000295712 0)
(0 1.99902e-05 0)
(0 1.01604e-05 0)
(0 -3.44278e-05 0)
(0 9.44268e-06 0)
(0 1.86824e-05 0)
(0 -1.19219e-05 0)
(0 1.82212e-05 0)
(0 -0.000385268 0)
(0 -6.89772e-05 0)
(0 2.19244e-05 0)
(0 -0.00038127 0)
(0 2.02244e-05 0)
(0 -0.000497911 0)
(0 -0.000510531 0)
(0 -3.08828e-05 0)
(0 2.06919e-05 0)
(0 -0.000421753 0)
(0 -2.86295e-06 0)
(0 2.13279e-05 0)
(0 1.40199e-05 0)
(0 -0.000270689 0)
(0 -0.000111832 0)
(0 -0.000195283 0)
(0 -0.000165519 0)
(0 1.84609e-05 0)
(0 -0.000304964 0)
(0 -1.16078e-05 0)
(0 2.19642e-05 0)
(0 -0.000224365 0)
(0 -0.000466191 0)
(0 -0.000446081 0)
(0 2.12108e-05 0)
(0 -0.000646186 0)
(0 -0.000886481 0)
(0 5.98336e-06 0)
(0 -0.000264198 0)
(0 -0.000530832 0)
(0 1.25675e-05 0)
(0 -0.000207105 0)
(0 8.90438e-06 0)
(0 8.97976e-06 0)
(0 2.20261e-05 0)
(0 2.13259e-05 0)
(0 -0.000730081 0)
(0 -0.000616047 0)
(0 -0.000436353 0)
(0 -0.000305325 0)
(0 1.28221e-05 0)
(0 -0.00029029 0)
(0 2.14963e-05 0)
(0 -0.000182422 0)
(0 2.19136e-05 0)
(0 -0.00018045 0)
(0 -0.000408896 0)
(0 -0.00025337 0)
(0 -0.000372892 0)
(0 -4.42916e-05 0)
(0 -0.000377868 0)
(0 -0.000635559 0)
(0 1.05929e-06 0)
(0 -0.000497192 0)
(0 -0.000191836 0)
(0 -0.000263236 0)
(0 2.20359e-05 0)
(0 -0.00019073 0)
(0 -0.000768428 0)
(0 -0.000606879 0)
(0 -5.95773e-05 0)
(0 -0.000430579 0)
(0 -0.000260041 0)
(0 -0.000554202 0)
(0 -0.000322339 0)
(0 -0.000613348 0)
(0 -0.00046005 0)
(0 -0.000161205 0)
(0 -5.20029e-05 0)
(0 -0.000139338 0)
(0 2.19131e-05 0)
(0 2.1974e-05 0)
(0 2.19146e-05 0)
(0 -0.000441904 0)
(0 -0.000218076 0)
(0 -0.0007445 0)
(0 -0.000496293 0)
(0 -0.000747288 0)
(0 -0.000420013 0)
(0 -0.000176612 0)
(0 -0.000517668 0)
(0 -9.27727e-05 0)
(0 -0.000310326 0)
(0 -0.000714848 0)
(0 -0.000332024 0)
(0 2.18141e-05 0)
(0 -0.000585261 0)
(0 -0.000506298 0)
(0 2.18786e-05 0)
(0 -0.000151072 0)
(0 -0.000250892 0)
(0 2.18777e-05 0)
(0 2.20307e-05 0)
(0 -0.000427379 0)
(0 1.98613e-05 0)
(0 2.10169e-05 0)
(0 -0.000315099 0)
(0 -2.73913e-06 0)
(0 -0.000193938 0)
(0 -0.000322655 0)
(0 -7.26403e-05 0)
(0 -4.88389e-05 0)
(0 -0.000333533 0)
(0 -0.000197924 0)
(0 -0.000156704 0)
(0 -0.000426143 0)
(0 2.20392e-05 0)
(0 -0.00040225 0)
(0 1.61302e-07 0)
(0 -0.000170311 0)
(0 -8.97147e-05 0)
(0 2.18413e-05 0)
(0 -0.000134683 0)
(0 -0.000423322 0)
(0 -0.000148141 0)
(0 -0.000148783 0)
(0 -6.33162e-05 0)
(0 2.01769e-05 0)
(0 2.19673e-05 0)
(0 1.95716e-05 0)
(0 1.18264e-05 0)
(0 2.02574e-05 0)
(0 -1.53467e-05 0)
(0 -5.10365e-05 0)
(0 2.06751e-05 0)
(0 1.15341e-05 0)
(0 -0.000200049 0)
(0 -5.2244e-05 0)
(0 -2.54385e-05 0)
(0 -0.000593402 0)
(0 -0.000157716 0)
(0 -0.000168316 0)
(0 -7.40963e-07 0)
(0 -0.000484881 0)
(0 -0.00069623 0)
(0 -4.35829e-06 0)
(0 -0.000417325 0)
(0 2.06589e-05 0)
(0 -0.000425476 0)
(0 2.1965e-05 0)
(0 5.82386e-06 0)
(0 -3.29889e-05 0)
(0 -0.000752885 0)
(0 -0.000227365 0)
(0 -4.8692e-05 0)
(0 -2.11281e-05 0)
(0 -0.000256464 0)
(0 -1.05616e-05 0)
(0 1.40854e-05 0)
(0 -1.27376e-05 0)
(0 -4.3303e-05 0)
(0 2.08018e-05 0)
(0 2.05824e-05 0)
(0 -0.000546364 0)
(0 9.20562e-06 0)
(0 -3.08313e-06 0)
(0 2.05023e-05 0)
(0 7.04209e-06 0)
(0 -0.000686901 0)
(0 -7.29585e-05 0)
(0 -0.000127879 0)
(0 -0.000247312 0)
(0 -0.000158261 0)
(0 -0.0003562 0)
(0 -0.000117423 0)
(0 2.00806e-05 0)
(0 -3.154e-05 0)
(0 -0.000299946 0)
(0 9.9193e-06 0)
(0 1.16283e-05 0)
(0 2.20003e-05 0)
(0 2.0555e-05 0)
(0 -0.00016028 0)
(0 -0.000233963 0)
(0 -0.000817431 0)
(0 -0.000456452 0)
(0 -0.000120261 0)
(0 5.75313e-06 0)
(0 2.19076e-05 0)
(0 -0.000494232 0)
(0 2.08468e-05 0)
(0 -2.40982e-05 0)
(0 1.87062e-05 0)
(0 1.03523e-05 0)
(0 -5.26461e-05 0)
(0 -0.00021138 0)
(0 -0.000249571 0)
(0 2.19825e-05 0)
(0 2.19669e-05 0)
(0 -5.57146e-06 0)
(0 2.14616e-05 0)
(0 -0.000551753 0)
(0 2.02408e-05 0)
(0 -0.000413906 0)
(0 -0.000492273 0)
(0 2.19483e-05 0)
(0 -7.7404e-05 0)
(0 -0.000570168 0)
(0 -0.000625856 0)