/*--------------------------------*- C++ -*----------------------------------*\
| =========                 |                                                 |
| \\      /  F ield         | OpenFOAM: The Open Source CFD Toolbox           |
|  \\    /   O peration     | Version:  v2012                                 |
|   \\  /    A nd           | Website:  www.openfoam.com                      |
|    \\/     M anipulation  |                                                 |
\*---------------------------------------------------------------------------*/
FoamFile
{
    version     2.0;
    format      ascii;
    class       volScalarField;
    location    "500";
    object      ddt0(omega);
}
// * * * * * * * * * * * * * * * * * * * * * * * * * * * * * * * * * * * * * //

dimensions      [0 0 -2 0 0 0 0];


internalField   nonuniform List<scalar> 
9793
(
1.73895e-08
-1.03391
2.88013e-05
-0.0226101
2.36745e-05
0.0016873
0.00114373
0.342239
-1.24325e-05
0.493748
2.64155e-05
2.68267e-05
-5.38824e-06
-0.0494603
7.97266e-05
-0.000442871
0.000932287
-4.04715e-05
0.0517612
5.28087e-05
2.45749e-05
1.04506e-08
-0.0466997
0.341117
-0.079437
-9.30834e-06
1.06431e-05
-8.65422e-06
5.47636e-05
0.00192674
0.222302
-0.0591163
5.93573e-05
2.32691e-05
6.2108e-05
-0.000207498
-0.000273554
2.03752e-05
0.0351018
3.46044e-05
0.00133105
-0.0107467
0.434909
1.36883e-05
-7.51417e-06
-1.55465e-05
0.229389
1.49851e-05
-2.10887e-05
-2.71335e-05
-0.000229027
5.12244e-05
0.000104534
1.62721e-05
0.000174169
-0.00659161
-1.28357e-05
0.00317859
-1.83336e-05
1.37711e-08
4.19679e-06
0.0090069
2.00803e-05
-0.000680958
-1.77444e-05
-1.1594e-05
1.04852
-4.5523e-05
-0.000335089
0.227501
1.27048e-05
0.0102915
0.319855
0.315058
0.36436
2.1004e-05
-0.00233172
0.236418
1.70747e-05
1.08849e-05
-0.00387576
0.0498966
0.00102813
-5.15452e-06
-0.000332046
0.0403404
2.83494e-05
0.000970446
0.0402471
0.000103982
-0.0117804
-2.44907
-3.1184
0.000253122
0.372929
-2.0415e-07
0.494699
0.000565833
-9.18203e-06
2.242e-05
0.0137097
0.000123926
0.148198
-5.67037e-06
0.173155
0.371547
-0.0198247
3.71503e-05
1.05015e-05
2.10247e-05
2.31883e-05
-0.0285343
0.0310442
0.250478
5.53922e-06
5.10705e-05
-0.000237957
-3.74928e-05
0.00240905
-7.63738e-06
0.150647
0.00111434
0.751325
0.000299954
-0.000275197
-1.48006e-05
0.0013044
0.186955
-0.0110183
-0.0159289
-0.000155345
4.30892e-05
-1.56219e-06
-2.59223e-05
-0.000171652
0.0375642
-0.467744
-0.000239097
9.09551e-06
0.00171597
0.0604357
-0.000173509
-3.93105e-05
0.000402579
0.217402
-0.1025
-1.11665e-05
0.479228
3.0071e-05
-1.68333e-05
3.21994e-05
-0.834444
-2.46289e-05
1.09895e-05
1.08352e-05
9.18809
0.00118719
-2.56874e-06
-0.0843204
1.96934e-05
0.000951937
-0.000128469
2.26256e-05
-0.00846263
-2.36964e-05
0.0733603
-0.0949952
-3.11041e-05
6.35381e-06
1.89372e-06
-1.71405e-05
0.143758
0.0511287
0.149201
-5.16033e-06
0.00617937
0.00387014
0.0316675
1.22574e-05
-5.31076e-05
0.23838
0.217867
0.000895106
-1.90954e-05
-2.21145e-05
2.22496e-05
0.658646
0.283725
0.99707
0.238071
-3.39783e-06
-1.50557
-0.0482962
4.38863e-06
8.01997e-06
-7.13013e-06
0.0126026
4.9133e-07
-3.71355e-05
-7.27437e-06
-2.1917e-07
3.10936e-05
-0.000265159
-0.000238202
0.020668
-1.67574e-05
-2.34898e-05
-2.88841e-05
3.30698e-06
-0.301811
0.001521
0.0717272
2.96897e-05
0.127319
-1.3627e-05
-0.00220531
6.17025e-05
-0.022969
3.97141e-05
-0.000127348
0.000646177
3.04511e-05
-0.013761
0.173949
0.000295566
-3.6275e-06
0.000886066
0.0789692
0.000534326
-0.000448563
0.0163394
-0.00247819
-0.00213854
-0.000694406
-0.0324954
-5.49209e-06
-0.337466
0.197098
-1.41451e-05
5.26169e-06
-0.189632
6.09233e-06
2.44488e-05
0.00193202
0.00353742
-1.11376e-05
-6.15282e-05
-1.00176e-05
0.000205532
-0.00010646
1.54155e-05
0.00038724
0.0406719
2.10774e-05
0.155602
2.26009e-05
-3.7948e-05
6.19401e-05
-0.0118734
-9.13864e-06
3.0982
0.104056
4.67093e-05
1.96222e-05
3.31602
1.46877e-05
3.43649e-05
9.06616e-08
0.0621311
0.0371001
-2.05157e-05
-0.0620395
0.00281735
0.0541514
-0.103102
-1.48616e-05
2.70314
-3.88759e-05
-0.00172411
-0.0956722
0.0580491
0.145199
-0.00146983
-0.000162867
0.00085549
-0.000206799
3.22099e-05
-4.32549e-05
-0.021719
-4.68745e-06
1.4524e-05
-2.35483e-06
3.08079e-06
5.28351e-05
2.61043e-05
-0.0663636
8.29949e-06
8.17366e-05
6.74881e-05
-1.8548e-06
0.329409
-0.156441
-5.33266e-05
1.51348e-05
0.000587543
9.99996e-05
-2.03832
-0.790684
-8.55442e-06
0.191268
-0.000622714
6.65329e-06
-1.70965
-0.730067
6.5699e-05
0.000407467
-1.01574
1.21421e-05
2.1053e-05
8.14838e-05
1.0836e-05
-0.212964
0.000148374
2.12945e-05
-1.10068e-05
2.05619e-05
0.00541568
-0.00541978
2.24224e-05
5.29957e-05
-3.33925e-06
0.184214
0.119713
-0.32992
-5.99021e-06
0.000182168
-5.66692e-05
0.127442
0.00213253
-2.06717e-05
-2.62873e-05
-2.88683e-06
0.000756778
-1.1948e-05
0.21927
5.63573e-05
1.89069e-05
0.330897
-0.0680793
0.0573404
5.69327e-05
0.0156626
-1.36617e-05
0.000932647
0.308668
0.0156246
1.04535e-05
0.000137127
-0.238122
-0.0113556
-0.0278706
2.22077e-05
-2.20701e-05
-1.93867e-05
-2.05401e-05
7.12107e-05
-6.71809e-06
-2.00035e-05
-1.37031e-09
0.228895
2.89287e-06
0.00120009
-1.9507e-05
-0.770055
-2.08425e-05
-2.73666e-06
-0.512715
0.0237175
-0.0729654
0.00212783
-9.21424e-06
8.35815e-06
2.03501e-05
0.558332
5.23064e-06
0.0397828
0.0117794
0.00214443
-0.110338
-0.229833
9.5278e-05
1.53236e-05
0.041233
-0.97
-3.55184e-05
0.264212
0.000109731
-3.79528e-05
0.0425484
2.21487e-06
0.00336809
-6.14975e-06
-0.243714
3.24516e-05
-2.49539e-05
0.324493
-0.00138878
-0.00148215
-1.89334e-05
1.17702e-06
-1.82033e-05
0.736954
0.000807615
-2.18055e-05
1.98917e-05
2.09629e-05
-5.82062e-05
-0.00177386
0.19308
-2.54898e-05
3.72751e-05
0.478399
3.47119e-06
-0.0077887
-0.0938271
-2.22067e-05
5.70843e-05
-3.65917e-05
0.000108308
-1.87171e-05
0.0165795
1.49942e-05
0.773791
-7.65e-06
-0.000121
0.000300969
2.29528e-05
0.00273387
1.51333e-05
9.49682e-06
-4.94468e-05
0.025677
1.94074e-06
1.36485e-05
2.06268e-06
9.24935e-07
-1.32233e-06
3.36309e-05
-2.8452e-05
5.64861e-05
-2.43702e-06
-0.000196009
0.00259548
-4.1952e-05
0.0252484
-1.36603e-05
-0.0373673
-0.171036
3.04132e-05
0.379934
0.000970065
4.1473e-06
5.29397e-05
-4.9235e-05
0.237922
0.00286276
4.74516e-05
6.13242e-05
-3.98542e-05
-1.80391e-05
0.00467404
0.290788
-2.05236e-05
-2.52942e-06
2.10915e-05
0.2141
0.0497748
-6.35628e-06
-5.78521e-05
0.174741
0.0662805
-0.0237907
-1.39183e-05
4.0881e-05
0.0239019
-3.42268e-05
0.00403807
-0.146856
9.00946e-07
0.021475
-3.76379e-05
0.00864905
-1.69778e-05
0.0264351
-0.0764257
-0.000378943
2.58554
-2.02501e-05
0.238148
1.87032e-05
3.53722e-06
4.68335e-05
-2.88789e-05
0.262992
-5.63001e-06
-9.07999e-06
1.40373e-05
-6.29173e-06
5.40164e-05
0.000487397
3.69408e-06
-0.000607434
5.15606e-05
3.70424e-05
-0.251249
0.000621906
-8.67569e-06
0.165594
-0.000165132
-8.19717e-06
1.2811e-05
-9.61876e-06
-0.477047
-1.23658e-05
-2.29566e-05
0.348277
-0.0775113
-0.000328309
-4.83573e-05
1.73337e-05
-5.79013e-06
3.09627e-06
0.116129
-2.70154e-06
0.361755
-0.000227094
-0.0351964
2.11365e-05
1.10098
-3.44108e-06
0.0185716
-2.83028e-05
0.000231575
0.237455
2.50762e-05
0.252979
5.19166e-05
4.13339e-06
1.91593e-05
0.402636
0.0102286
-3.32583e-05
-4.18424e-05
-1.7996e-05
0.156978
-6.76161e-05
0.000462832
0.018949
2.11098e-05
-5.57286e-05
-2.25436e-05
2.24356e-06
-1.61854e-05
-5.07165e-06
0.0016537
-3.83647e-05
0.21111
3.99257e-06
-2.00663e-06
-0.000759625
0.00356551
-0.753869
8.81624e-05
1.03742
1.39733e-05
0.00274446
2.75803e-05
-3.57911e-05
-1.24907e-05
-1.28036e-05
1.57542e-05
-0.00229048
-0.00205514
0.312557
0.00460203
3.87291e-05
1.80351e-05
-0.132555
-3.42813e-05
0.0962658
0.276831
0.0326349
1.06061
-1.35458
0.00590398
-1.0939e-05
0.0284955
-0.000797645
-3.78218e-05
0.0531038
9.93209e-06
-0.0579571
0.000234693
-0.0155382
-1.95312e-06
-0.0514189
0.76911
-0.000781569
0.0105513
-3.50217e-06
0.265004
-8.69103e-06
-3.48967e-05
-2.30724e-05
-0.000128458
0.000572557
0.0195827
0.0379121
0.375958
-2.19956e-05
-1.28622e-05
0.00782649
0.00619759
-2.40152e-06
0.00178026
9.63094e-06
0.034605
0.354101
-3.74529e-05
-6.37184e-05
-0.0656817
1.02572
7.4251e-07
-1.84458e-05
0.973621
-0.000303075
0.575876
-0.000433906
-0.825738
1.31918e-05
-3.57215e-05
6.67357e-06
2.36625e-05
-0.071325
4.19566e-06
-0.181032
0.00727321
-0.00549482
2.69246e-06
-2.11687e-05
-0.000158572
1.39332e-05
6.5376e-05
-6.27062e-06
0.00436675
0.268627
-0.0913314
-1.06423e-05
-0.0368011
-5.47832e-05
0.246988
5.07382e-05
0.00547836
-0.00019652
0.0735795
4.54054e-05
3.33528e-05
0.000547407
-2.12564e-05
-1.68967e-05
0.0017162
-0.00583713
3.51612e-05
-0.0327395
0.0622567
-8.90219e-05
-0.107058
0.0678239
1.67847e-05
0.000766264
-0.000507475
-1.42888e-06
1.9307e-05
0.00270346
0.0680802
0.393407
4.28695e-06
-1.14647e-05
6.60981e-05
-0.000297186
7.35068e-06
4.1335e-06
-0.0726867
3.55811e-06
9.77573e-05
-0.527008
-0.000256653
7.49003e-05
3.60762e-06
0.739523
-0.000154114
-5.33555e-05
0.00788661
0.00255757
-1.3718e-05
-3.49812e-05
1.75375e-05
-0.000371262
5.22059e-05
-0.000694782
-0.0513065
6.45434e-06
0.00173431
2.48185e-05
-6.5456e-06
-0.793771
0.0642494
-0.1312
4.22216e-05
5.26685e-06
-0.0660093
2.13566e-05
-2.02275
1.90017e-05
1.98075e-05
0.216184
0.28648
2.96383e-05
0.00444625
-3.15334e-05
1.12335e-05
-3.40106e-06
-4.13895e-06
0.210684
-2.8394e-05
1.27143e-09
-0.00480943
9.07403e-06
-0.107065
4.00545e-05
-1.34073e-05
0.0778836
-6.66936e-05
9.36541e-06
-2.88094e-06
2.69868e-05
-0.10032
-3.73271e-05
-9.85194e-06
-1.43577e-05
-2.24935e-06
-5.47536e-05
1.79605e-05
0.484575
-0.000164685
-9.27614e-06
-2.09297e-05
0.00018895
0.00145725
-0.000448568
-3.69277e-06
1.05242e-05
5.69864e-05
1.14066e-05
-0.00395817
-0.247934
-0.000106688
0.406116
3.21036e-06
-2.38372e-06
2.45256
-0.0472169
3.43161e-05
-3.55385e-05
-0.00852084
0.000913131
-5.32465e-05
2.10979e-05
0.220132
7.10374e-06
0.00142494
5.42808e-05
0.0109144
2.2245e-05
-4.75087e-05
3.28609e-05
2.20612e-05
-3.45901e-06
-2.4971e-05
2.37745e-05
-0.00273687
-2.24269e-05
-5.28039e-06
6.56711e-07
-1.99592e-06
-7.58508e-06
-1.33459e-05
1.51872e-05
6.17687e-05
0.000358438
-0.113948
0.000635346
0.00193844
-2.95336e-06
-5.02039e-06
0.20971
0.49199
-9.10635e-06
-0.0568175
0.224968
1.53209e-05
-2.05626e-05
3.78852e-05
0.00432912
0.000544403
-0.0433458
1.06158e-06
3.81229e-05
1.06019e-06
1.01677e-05
-4.46175e-05
0.00107488
-1.62496e-05
0.0211509
6.33221e-06
0.00132922
2.61791e-06
-2.01266e-06
2.18817e-05
-0.00173868
-0.000273796
0.315651
0.242575
0.0288587
0.000756101
2.06614e-05
0.100488
0.017509
0.00100433
-8.89033e-07
-5.64451e-06
0.0163168
3.75191e-05
-0.052513
-1.10364e-05
-0.000591921
-2.52427e-05
-2.30005e-05
6.96372e-05
-0.05204
0.208646
-0.048977
-0.000373564
0.140758
3.25586e-06
0.217398
0.411748
7.37264e-06
1.77539e-06
7.17583e-05
-1.31298
2.94525e-06
0.460778
2.15576e-05
0.00696907
-1.17295e-05
2.90115
0.389205
-0.0335747
8.92699e-05
6.85261e-06
-5.42032e-05
-0.249028
4.52404e-05
-0.0120004
0.0161589
-0.00352624
0.331949
0.259976
-8.47813e-05
-5.16316e-06
-4.22146e-05
-0.00149947
0.392974
0.041891
6.55997e-05
0.00687479
-0.000448282
0.000349138
-0.00238038
-0.00631998
-0.0144366
-2.46589e-05
-9.82207e-06
-0.000353116
-0.000231166
-0.000157801
-0.293273
-2.42738e-05
0.291461
-8.38777e-05
-2.38127e-05
0.00260289
0.00315643
-1.99096
2.12342e-06
2.73441
0.932189
1.3233
1.80762e-05
-9.83526e-06
3.2683e-06
-4.11673e-06
2.34876e-05
-2.93881
-1.58511
-1.72385e-05
2.63839e-05
-0.000526135
-0.00185164
4.85319e-05
-1.94774e-05
0.00794306
-2.41436e-06
-7.19329e-06
2.21565e-05
0.000550831
-1.09307e-05
-0.000265109
-0.114891
0.00127226
2.74514e-05
0.0374378
0.0120652
-1.1806e-05
-7.39217e-05
8.20385e-05
8.79433e-06
-5.16783e-05
4.88344e-05
0.429974
-2.46537
7.20722e-06
4.81232e-05
-4.01905e-05
0.136628
7.27703e-06
0.179401
5.27283e-05
8.00143e-05
-0.0295659
0.0920977
0.00195672
-1.91725e-05
3.1084e-05
0.256527
0.026751
0.0159239
0.0382303
-3.23946e-05
-0.000116608
5.70102e-05
0.285502
-1.91166e-05
-1.53051
1.60378e-05
-7.10974e-06
-0.00014851
-1.05381e-05
-1.92753e-05
0.000952331
1.18522e-05
0.210672
-3.91489e-06
1.91208e-05
-2.04876e-06
-0.000260223
-0.0627591
-0.037979
0.000144289
0.165046
-1.92485e-05
0.000278123
-5.95322e-05
0.341973
3.48258e-05
2.67697e-06
0.329385
0.000123357
8.12765e-05
3.94032e-06
0.000217517
-0.0766934
0.0338442
-1.46601e-05
2.40165e-05
-0.0113547
-0.000737796
1.93947
0.0060477
0.00149368
-2.1109e-06
2.48387e-05
0.00102798
0.00186189
-4.83808e-05
3.37451e-05
8.18598e-05
-4.20797e-05
2.52979e-06
6.64618e-05
-1.06746e-05
1.28791e-05
-0.135573
3.73708e-05
1.05069e-05
0.000423009
5.08907e-05
3.14596e-05
0.000420411
0.0885087
0.000642566
0.00128657
-0.225937
-2.12899e-05
0.0773077
7.97813e-05
-0.0259559
0.000655685
1.10882e-05
-3.87163e-05
-5.79109e-05
-0.258934
0.0077234
0.000582358
0.00544304
3.98835e-05
2.95863e-05
1.95624e-05
2.81517e-06
0.261787
-6.06359e-05
1.42465e-05
0.00795608
-0.00487633
0.541241
9.89063e-06
0.260424
5.82802e-05
0.000225506
-0.000713411
-0.00936427
0.0180079
5.18912e-06
-0.0162871
-0.0509769
-3.60683e-05
0.0273543
0.000440499
-1.68413e-05
1.08679e-05
2.26015e-05
-5.05219e-05
7.14686e-06
-0.474423
0.000537849
5.77016e-05
0.163622
4.59187e-05
0.273658
-0.00547301
-5.1208e-05
-0.0298556
2.28605e-05
-2.42843e-05
-9.07107e-06
-0.0224152
0.535048
0.000243539
-1.57276e-05
-3.13549e-05
1.12109
1.73852e-07
4.74107e-05
-3.19758e-05
-9.95085e-06
1.55159e-05
0.42124
-4.48217e-06
6.04273e-05
2.73391e-07
4.29483e-06
-0.0345599
0.00704569
-0.00078293
-4.95663e-05
-8.9961e-05
0.00973325
0.330056
6.17023e-05
6.74403e-05
6.21724e-05
1.76128e-05
0.736396
0.48811
0.0109283
-2.52417e-05
3.49129e-05
0.58027
-0.245427
1.54225e-05
0.146414
-2.30096e-06
0.00310425
-0.213988
2.19489e-05
0.418393
0.138676
0.00564972
0.202783
0.460383
3.69279e-05
-6.38458e-06
0.0186287
0.0195521
-2.99265e-06
0.126524
-1.43134e-05
1.66415e-05
-6.38699e-06
-5.16638e-05
0.00018603
-2.62556e-05
0.014589
0.236994
0.00390806
1.86692e-05
-1.86279e-05
0.00209622
-0.00297607
6.06246e-05
0.000220312
0.000546829
2.53283e-05
-8.93729e-06
-7.97384e-06
-1.58872e-05
8.47283e-05
0.00846833
-1.37726e-05
7.22999e-06
0.00984553
0.0101476
0.00167643
2.01318e-05
0.000816459
3.3616e-05
9.06172e-06
0.310324
-0.260284
-1.66019e-05
3.39878e-05
0.205833
0.340705
0.000627582
-2.4218e-06
0.421985
3.25968e-05
2.61357e-05
-0.000167572
-1.7823e-05
3.30155e-05
-6.34238e-06
0.319792
-0.0106721
-1.89352e-05
-0.0412523
0.000186564
0.0230385
0.747273
0.043619
0.0051959
1.05769e-05
4.68774e-05
-1.86901e-05
-2.05992e-05
-0.000475405
-1.42094e-05
0.00199714
-1.43281e-05
-1.31966
4.43025e-05
-0.00583788
0.000239346
0.227378
3.38474e-05
0.0574383
-0.000568802
0.00278119
-0.0327653
2.39356e-05
-1.07271e-05
0.721168
0.00141337
2.3653
-1.83285e-05
0.428557
5.622e-05
0.312974
-0.00551088
0.000736321
8.46084e-06
-6.42369e-05
0.126309
0.235071
-0.000475675
-3.36294e-05
-0.865201
0.00206403
0.000521808
0.227793
0.0130326
1.96096e-05
0.544525
7.38478e-06
-0.00052786
1.98997e-05
0.0340727
2.07254e-05
-0.000132368
-0.0388755
0.0382786
-2.11947e-05
0.0014579
-0.000229468
-0.0128472
3.32855e-06
0.0470229
6.70143e-06
0.000757761
-3.2179e-05
-1.95368e-05
-0.00561268
-0.000292696
0.35334
0.496798
0.414339
1.03499e-05
4.02293e-05
4.02078e-05
-5.60083e-05
6.7248e-05
-3.93977e-05
-0.120219
-2.6259e-05
-0.672792
0.000285393
-9.18907e-07
-9.9658e-06
0.00121828
0.202763
0.305645
2.55724e-06
0.00783072
-3.93527e-06
0.467028
0.0292831
0.000431725
-3.98619e-07
-9.42979e-06
0.000275186
-6.09818
-2.04867e-05
3.43627e-06
-0.000121453
0.000532418
-8.86888e-05
0.221021
0.0407101
0.0457735
6.50813e-05
-7.28157e-05
0.381204
-2.44604e-05
-9.57408e-05
6.244e-05
-2.70629
7.84312e-05
7.48795e-06
0.00047631
-0.0182083
5.11372e-05
0.0850566
1.09851e-05
0.00563648
0.00493598
0.214356
-0.352052
-3.7295e-05
1.10417e-05
2.49236
-1.72153e-05
0.000194519
0.00314096
-2.5224e-05
4.3858e-05
0.270087
2.05509e-05
-0.00960148
-0.000115835
-0.0165932
7.14162e-06
0.0349381
-1.51234e-05
-2.42122e-05
0.249894
0.131454
3.30829e-05
5.15349e-06
0.0205589
0.0569863
0.000821768
0.122763
-0.000595542
-2.11306e-05
3.04147e-05
0.0810946
3.20333e-05
0.466589
0.00175728
-0.307409
-3.40179e-05
-4.39362e-06
2.19587e-05
0.000620515
-0.00216208
0.0212889
0.0134826
-3.4671
-0.00660241
5.84268e-05
-0.00819932
3.30675e-06
0.000389113
2.5518e-05
0.000394041
-7.56391e-08
1.85211e-05
5.8071e-05
0.000981964
6.02548e-06
0.00030799
0.00013043
0.124214
0.307321
-0.00134838
0.0587175
1.88633e-06
4.8383e-05
-1.49967e-05
-0.0173768
0.0040911
0.000562139
0.00497677
0.563797
0.000125951
0.00642409
6.21325e-05
2.99126e-05
-0.772175
1.47981e-05
0.14659
1.50341e-05
4.19507e-05
-0.157023
0.0310908
4.55229e-05
0.00228542
-0.0604346
0.245667
-0.379835
5.71151e-05
0.000446731
0.000152454
-3.05842
1.84746e-05
0.400628
-0.0309058
9.83422e-06
-0.00044445
-1.5939e-05
-0.472156
-3.557e-05
1.15427e-05
-0.0241407
1.21546e-05
-9.81839e-06
0.0135357
6.51307e-05
0.0242483
0.0157825
-0.00650202
-0.0356818
-2.27904e-05
3.8587e-06
6.90984e-05
-6.86059e-06
-0.0853597
3.04993e-06
0.00153091
6.46718e-06
0.350789
9.62625e-06
-2.94311e-06
6.65808e-05
-1.06644e-06
0.000274574
3.14552e-06
4.94755e-05
-0.198011
4.38942e-05
-5.62026e-05
-8.22293e-06
0.216842
1.23556e-05
-6.35792e-05
4.9865e-05
0.00122224
3.14541e-05
4.68335e-05
5.12123e-05
1.28394e-05
-0.000266317
7.43956e-05
1.19482e-05
-1.79787e-05
0.542967
0.224852
0.30154
0.0583723
2.11789e-05
-1.84852e-05
-1.38781e-06
9.20622e-05
3.2784e-05
1.90743e-05
-0.00778724
1.8474e-05
7.60625e-06
-1.68612e-05
6.1124e-05
-7.56343e-06
0.286805
-0.000192454
-1.85088e-05
-0.389529
-5.49605e-05
9.79011e-05
-0.252323
0.294731
2.90059e-05
0.193342
0.0877091
2.44222e-05
-5.45999e-06
-7.59336e-06
2.39426e-05
3.06952e-05
-7.01277e-05
-0.00152554
-1.85149e-05
-4.00105e-05
5.12946e-05
1.31711
-0.000767004
0.000128506
-2.77531e-05
-1.38391e-07
0.461027
2.21096e-06
-4.91999e-06
-1.71145e-05
-2.71429e-05
1.77427e-05
-0.185875
-0.560001
3.82883
-0.0225016
0.0231392
3.76711e-05
-2.60883e-05
0.662245
0.00436606
1.416e-06
0.00173394
4.6025e-09
4.07175e-05
-6.35911e-05
-0.345731
-0.000393188
-4.91822e-05
4.33476e-05
0.00183491
5.45759e-06
-0.100114
-6.66777e-05
-0.00412307
-0.00450556
-1.59151
-1.92698e-05
-7.48361e-06
-1.57433e-05
0.000243582
3.92667e-06
9.19535e-05
0.00641637
-1.7731
-6.00838e-06
0.0410609
0.516792
1.99748e-06
0.0597898
0.000173274
-0.00621573
0.00294628
7.98063e-06
-7.00255e-05
8.31182e-05
7.20987e-05
-4.04144e-05
-1.30642e-05
-1.17322
2.69105
-0.000187099
1.78935e-05
0.00817483
0.00247907
0.0443982
0.325951
1.79101e-05
-0.000346325
6.88377e-06
-3.46314e-05
8.2163e-05
-0.0006064
-0.307998
1.75266e-05
0.00119275
-9.64915e-05
0.249258
0.0111258
0.240102
3.69295e-05
4.17566e-06
-0.0134169
0.00616512
0.00209602
-0.0573476
-8.49048e-05
0.188265
5.59386e-05
4.70213e-05
-0.0239219
-0.258462
-0.000295988
2.98298e-05
-0.00136306
0.0187982
0.00285084
0.00234735
7.5713e-06
-1.36826e-05
8.89109e-05
0.00535623
0.602168
5.28569e-05
0.000153226
-0.0475582
0.00224067
0.0323739
0.000889317
-0.0956941
0.174799
8.91776e-05
-8.63653e-05
0.0215082
2.27889e-05
0.00048334
0.0183141
-0.435379
-4.91911e-06
-8.55833e-06
-0.250506
-0.0169295
-0.000570889
0.536571
0.0477424
0.0126636
-2.04186e-05
-1.27521e-05
1.15232e-05
-1.44493e-05
1.38794
8.17846e-05
0.0280551
-0.817856
-0.000756678
-3.44483e-06
-0.354561
5.7063e-06
-0.000354499
1.0821e-05
3.5965e-05
-0.65445
-6.94489
-1.51369e-05
-7.82819e-06
-0.0017146
-0.527793
0.0390447
-0.0928265
-0.000838985
2.16843e-05
0.00133556
-4.91414e-05
0.0066178
1.57597e-05
1.71991e-05
-0.213946
-0.026852
0.809259
0.00135192
1.10699e-05
-1.0614e-05
2.18273
-9.05586e-06
4.7047e-06
6.54755e-05
-1.4788e-06
-5.22366e-06
0.0842773
0.0854106
0.0266096
0.0137241
-0.100111
-0.000142826
8.80114e-06
-0.38065
-0.000160082
0.000918566
0.434285
2.25958e-06
0.520077
0.0937069
0.00112315
4.66378e-05
-0.0107658
-9.75296e-06
-0.0627957
0.000206457
-0.0324078
4.61655e-05
5.86562e-06
0.00019456
0.0164385
0.00503205
-0.00322715
0.100295
0.0952306
-0.00110733
0.00269794
0.00548147
-2.7297e-05
0.00283888
0.832053
-4.11798e-05
0.00513316
0.246869
-0.000683449
0.000197542
-3.46592e-05
4.41787e-05
-7.74758e-05
0.000880756
1.60121e-05
0.244499
-0.0218878
-0.0334693
0.145031
0.0418294
0.000146054
-0.00209672
0.348564
-2.53093e-06
-1.49066
0.408278
-0.160232
-2.2097e-05
1.02572e-05
-0.0369501
0.0481365
-2.0579e-05
0.0414942
7.3041e-05
-2.11297e-06
-0.0170828
9.93317e-06
-0.00993197
-0.00689945
0.0169874
0.00455297
1.90696e-05
-0.000108591
4.23795e-06
1.58636e-05
-0.00941455
0.00147575
-0.000155533
0.0323775
0.00490426
5.02949e-07
-0.000178549
0.0473453
-0.000116182
-0.0673841
5.09951e-05
0.021759
0.0253698
-0.138687
0.47176
0.241847
-0.00859039
0.0285255
0.017168
-0.00132946
1.85411e-05
0.00344449
0.00297851
-0.047524
0.0720124
4.74711e-05
-9.83829e-05
0.0753359
-0.0259546
-0.000243538
0.116767
1.24587e-05
-0.0196693
0.348233
0.333535
3.09015e-05
-0.02058
0.0370985
3.99729e-05
-0.00027199
0.491223
0.503812
0.327627
0.293251
2.60706e-05
-3.89672
0.00968493
1.95896e-05
0.0183668
-0.000977825
3.81506e-05
-5.12063e-05
-0.108195
0.0579801
-3.13073e-05
-2.45267e-05
-0.026011
0.00199354
0.0221534
0.0026925
0.166214
0.0341729
-5.54292e-06
0.251986
6.94228e-06
-0.000741873
-3.14003e-05
-7.7359e-05
-8.68261e-05
0.00030797
0.0480802
3.90532e-06
3.07847
0.000189761
-0.124134
-0.0872786
-0.00626287
4.00343e-05
0.332564
0.00532163
0.00495837
0.000156923
3.50507e-05
5.34613
0.225828
0.0720105
-2.52481e-05
8.58635e-07
-4.85215e-05
-0.479788
-0.0300525
8.32327e-05
1.79658
-4.3113e-05
-1.62391e-05
0.00456521
-4.51489e-06
0.177486
6.82007e-06
-0.00104764
-0.00128412
0.265698
0.0224585
-0.0143034
0.0256624
0.0108898
-0.258814
1.43939e-05
-0.367437
0.000314291
-1.87075e-05
1.24968e-06
-1.23986e-05
0.0771802
2.93823e-05
0.0300217
0.0212053
-0.00147665
0.0423922
0.000509636
0.0789165
-0.00203222
0.413668
0.0964345
0.0236602
0.00459155
1.02501e-05
-0.450225
0.00249232
-0.00366792
0.00890721
0.068355
0.000115739
-5.83626e-05
-3.55638e-05
-0.00203538
-7.92161e-06
1.49744e-05
3.28251e-05
0.0345588
-0.00091798
-0.000345583
0.00163323
0.000366017
-0.191216
-7.84426
0.0394556
-0.677276
0.0862142
0.151111
0.0336447
0.00158027
-4.64132e-05
-6.21231e-06
-0.0401564
0.00367705
0.060882
0.000276052
6.89029e-05
5.58863e-05
0.0142164
0.467032
-0.00054558
-3.5985e-05
-4.24669e-06
0.196926
3.24899e-05
6.26778e-05
0.00148217
0.0120559
-0.000783421
0.0038223
0.0237572
3.56554e-05
0.00106713
7.75704e-05
-3.07472e-05
0.000291373
-0.0307721
-2.12583e-05
7.30573e-05
0.000685668
0.44316
-4.82649e-06
0.344124
-3.78781e-05
0.0419163
-7.45475e-06
3.77461e-06
-9.47001e-06
0.0123706
-0.00107518
-0.0164267
-0.74576
-0.000494997
1.23601e-05
-2.01904e-05
0.64872
-0.201102
3.30794e-05
0.00888139
0.0222533
0.000839974
0.00428496
4.25921e-05
-1.29987e-06
2.46094e-05
0.00578122
0.000159353
-2.78173e-05
0.375622
-3.01713e-06
-3.90222e-05
0.108636
3.52025e-05
0.0189405
0.00118869
-0.136555
6.75854e-06
-4.47044e-07
-8.79727e-06
0.000976344
4.87349e-05
2.4399e-06
0.49174
0.250597
0.00212793
7.94e-05
0.0468027
-2.03336e-05
4.05801e-07
-5.7624e-05
-1.35929
0.392236
-4.37235e-05
0.461869
-6.66232
0.00144214
-0.0566821
-1.15783
0.109869
-0.144724
0.000389593
0.000422572
0.0169214
0.000617532
-4.14237e-05
7.6057e-06
-0.00038424
0.336534
5.30485e-05
0.186596
-8.67735e-06
-0.0114004
0.00434965
-1.34074e-05
3.39323e-05
0.0495485
-1.27749
-0.143378
-0.00205418
3.43566e-05
1.64602e-05
0.245665
-0.000190556
0.12917
-0.00134458
-0.000364905
0.0450589
-0.00159853
4.46126e-05
0.00544815
0.00926588
3.55629e-05
0.0124437
-2.47182
5.11749e-05
-4.20169e-05
-3.41498e-05
2.77949e-05
0.0291258
1.67144e-05
0.000559828
-5.95927e-06
-2.97633e-05
4.52321e-05
-8.88252e-06
-0.000145684
0.00318184
1.62627e-05
-1.0226e-06
0.00514993
-2.35496e-05
-1.32945e-05
-0.276898
0.130863
0.000428292
0.0317236
0.000414172
4.89994e-06
0.00720801
-0.12022
0.000248679
0.0169947
-0.112613
0.00181902
0.000217055
-0.000816708
0.00142199
4.35946e-05
0.452979
8.88541e-05
-1.87258e-05
3.59361e-05
0.046688
-0.0671016
2.25656e-05
-0.00127967
2.82157e-05
-0.000548528
0.00127319
-0.0897345
-1.48199e-05
0.00156271
0.0234307
-0.000195031
-7.91649e-06
6.92445e-06
0.0526006
0.173465
4.32301e-05
2.2603
-0.000741538
0.02885
-0.0759746
-2.97823e-05
-0.061495
-0.00043891
-1.62839e-05
-0.304762
-0.00393698
4.46423e-05
3.95845e-05
0.0898247
3.42168e-05
2.19662e-05
-0.00686802
-8.45963e-05
0.000226173
0.260252
-2.68551e-05
-0.00129119
0.0302579
-5.44494e-05
0.214101
0.287364
-3.76615e-05
-0.000154716
-0.00737456
3.70439e-06
0.0092304
6.42482e-05
-0.137313
0.0241144
-1.27749e-05
-0.568436
0.750377
4.6576e-06
-2.00597e-05
0.0102736
-0.00131705
-0.0207601
-0.00881902
-1.41332e-05
0.00028087
0.160731
8.69015e-06
0.000250749
0.00106306
0.000104561
-0.362631
0.0104281
-0.00011468
-0.0536862
1.8127
-4.19995e-05
0.281796
2.98422e-05
9.15595e-07
2.79683e-06
6.21804e-06
0.388884
-4.2934e-05
-0.00112094
-16.0651
0.0856614
-7.90708e-06
4.24773e-05
0.0527784
0.0247617
1.48838e-05
0.292196
4.18625e-05
0.00308785
4.36997e-05
1.1977e-05
-3.8314e-05
-4.22546e-06
4.19199e-05
0.299563
-4.42911e-05
5.48346e-05
3.30088e-05
0.553074
-0.00011767
-0.000171025
4.31041e-06
-3.86231e-05
1.06308e-05
0.000338061
0.0327965
-0.965445
0.000366035
5.72595e-07
-3.98756e-05
6.00409e-05
0.00103687
0.175091
0.0750975
7.98479e-06
-0.0381817
3.90437e-05
-0.0828355
0.00294094
0.0601648
8.63105e-05
0.00223613
0.00211067
0.349935
0.00463014
3.89849e-05
0.309456
0.0336943
3.98023e-06
-2.19103
-5.12529e-05
-8.22718e-06
0.000111389
0.270626
1.7851e-05
0.273523
4.56168e-05
-5.50309
-0.0058806
-6.92767e-05
-0.0337819
-2.97749e-05
-1.15477e-05
-0.034554
-1.31708e-05
0.0184601
0.235567
0.0191663
-7.6526e-06
-0.0283547
1.23876e-05
0.00302017
0.000351504
0.133365
-8.69988e-06
3.7896e-05
3.14007e-05
5.66108e-05
0.000126611
0.0911169
0.392881
-5.21968e-05
0.00101765
2.87748e-05
0.271954
-0.503971
0.00931378
1.54784e-05
-6.48099e-05
-0.000115845
-0.358695
1.03161e-05
-0.000172173
-0.285199
0.00192319
-1.06541e-05
0.0471829
0.00238091
4.69123e-05
3.78352e-05
0.00533076
-0.0384167
0.00240923
0.000328007
0.0736053
0.00128194
-0.186754
5.61021e-05
2.21606e-05
-5.40136e-06
1.56534e-06
0.00776151
0.00133031
-0.000293438
0.00191965
0.63373
1.35763e-05
-1.68574e-05
0.114682
0.139255
-0.0383035
0.00614272
-4.00868e-05
1.44454e-05
-2.3705e-06
5.64817e-05
4.45133e-05
0.00013201
1.27745e-05
-2.81921e-06
-2.88308e-05
8.57768e-06
1.16459e-06
2.91131e-05
0.000224578
-0.00122535
4.6902e-06
3.86412e-05
4.98798e-05
-7.81435e-06
1.28129e-05
-0.00225807
-2.216e-05
6.33758e-06
0.0700531
6.04032e-06
1.1787e-05
2.29006e-05
-0.000207005
0.142745
-0.211006
-0.0363806
0.255506
0.41061
-0.00179421
-2.10036e-05
0.00103077
1.6621e-06
0.0673728
-0.000103321
-2.41758e-06
2.04474e-05
0.00125607
-1.71499e-05
-9.87828e-05
-1.04487e-05
-0.288636
0.00890816
5.63194e-07
0.459753
0.373181
-3.86397e-05
-0.000663371
-1.68478e-05
-3.51133e-06
0.224602
-4.77609e-07
0.00128707
-0.00162187
-1.41107e-05
-1.25594e-05
0.0020364
0.0207027
2.04683e-06
-6.06458e-05
-0.00986045
2.07258e-05
0.158052
0.000922707
1.5451
1.62188e-05
0.00746171
-1.61185e-05
-8.10625e-06
-0.0186326
0.0015471
0.0679638
0.0112816
0.211425
-0.313465
0.00319398
0.00342021
9.92078e-05
-0.00413309
-2.79466e-05
3.37979e-05
-0.000964423
8.14494e-06
-8.4447e-06
1.26206e-05
3.46789e-05
-0.000143884
0.0259357
0.00469111
-0.0231822
0.0693141
-5.90083e-05
-1.55391e-05
3.77559e-05
8.65686e-07
0.00228811
1.95457e-05
-3.38129e-05
2.69982e-06
-5.6383e-05
-2.68427e-06
0.00967163
0.000167948
0.000617292
-1.28275e-05
8.39146e-05
1.00384e-05
0.0312199
0.223842
-2.4633e-05
2.1043e-05
-1.94747e-05
0.275017
-0.0392407
3.11763e-05
5.04402e-05
-1.76314e-05
-2.64086e-05
-0.577094
0.125733
0.219487
-1.05238e-05
0.408144
1.34054e-05
-0.0209089
0.000933158
6.41628e-06
3.76685e-05
-1.84327
3.92488e-06
4.28238e-05
-0.000396855
0.00282007
0.327685
-1.03842e-05
5.48112e-05
-0.000144451
0.00543336
7.90124e-05
0.0279302
0.283213
9.71589e-06
6.11615e-05
0.168566
8.00898e-05
1.78054e-05
1.9845
1.53146
-0.158528
0.0980394
-0.000259649
-0.0222367
-4.96057e-06
0.215096
-0.381554
0.107144
-0.000116124
-1.80048e-05
0.0150849
3.42458e-05
1.74854e-05
1.51851e-05
-0.725466
-3.38833e-05
-0.283173
-8.04413e-05
-1.32131e-05
-5.09511e-06
0.0182104
-3.93669e-05
-1.19359e-05
-3.94433e-05
0.288428
-0.0894111
0.20645
0.0479933
-0.000844369
1.26947e-05
1.47494e-05
-0.0471182
0.024085
2.90844e-05
-3.01604e-05
-0.0863321
-1.33404
1.77874e-06
-0.249193
0.214416
-0.00101548
2.31969e-05
-3.91209e-05
5.01132e-05
1.38106e-05
3.86386e-05
6.1881e-05
-1.30766e-05
-0.00217255
4.52998e-05
-0.00196095
3.63006e-06
4.14226e-06
0.105403
-0.000225415
-0.000114658
1.20029e-06
-0.00404406
1.64266e-06
-7.611e-05
2.58771e-05
1.55164e-05
-2.23168
-0.000540489
2.44255e-06
1.67365e-05
-1.1654e-05
-9.54622e-05
3.98806e-05
0.00150262
1.80708e-05
-1.48744e-05
0.18559
-0.000110655
0.0076852
-1.35471e-06
-1.05877e-06
0.000960793
6.96922e-05
5.8672e-05
-1.37657e-06
0.433304
-0.000157184
1.59985e-05
0.0147321
2.90244e-05
-1.28366e-05
3.47744e-05
-0.84588
3.68442e-05
-0.00420298
-8.66184e-05
2.81623e-06
1.34449e-05
-2.2915e-05
1.51962e-05
9.91676e-06
0.022886
-6.80867e-06
-6.01984e-06
3.3642e-05
-0.000418967
0.0423127
4.09215e-05
-0.00090038
-0.32156
1.77191e-05
2.00296e-06
0.344392
1.9233e-05
-0.00237375
-0.0279233
-0.000354334
2.96353e-05
6.04797e-05
6.46218e-06
-0.000200409
2.10387e-06
6.59773e-06
-5.21133e-06
-6.13709e-05
-7.35468e-05
-2.20351e-05
-1.6414e-05
0.00360499
1.2088e-05
-1.46301e-05
-1.1182e-05
-0.000966847
0.00555086
1.67309e-05
-6.54426e-06
0.0054624
-0.000104827
-2.01072e-05
-0.00344815
0.644023
-0.0817833
-1.10997e-05
-6.45114e-06
-0.00104843
7.51399e-06
-1.85587e-05
-0.000130559
-0.0681302
2.85427e-05
0.000466789
-1.1409e-05
4.4702e-05
-6.48943e-06
-7.75109e-05
3.60243e-05
0.000161753
-9.39591e-05
-0.000232269
0.0142944
-3.34138e-05
-5.67851e-07
2.47202e-05
-0.163665
-1.24036
-0.322526
-2.72883e-06
0.000735206
5.39742e-05
-5.37033e-05
-1.01608e-05
-3.1684e-05
0.0228238
-0.0203837
1.26911e-05
-0.000279479
0.944259
-2.69474e-06
0.00758371
-5.30908
0.0179807
-0.000436085
-8.78247e-06
0.000218777
-0.00011208
0.0396893