/*--------------------------------*- C++ -*----------------------------------*\
| =========                 |                                                 |
| \\      /  F ield         | OpenFOAM: The Open Source CFD Toolbox           |
|  \\    /   O peration     | Version:  v2012                                 |
|   \\  /    A nd           | Website:  www.openfoam.com                      |
|    \\/     M anipulation  |                                                 |
\*---------------------------------------------------------------------------*/
FoamFile
{
    version     2.0;
    format      ascii;
    class       surfaceVectorField;
    location    "500";
    object      Uf_0;
}
// * * * * * * * * * * * * * * * * * * * * * * * * * * * * * * * * * * * * * //

dimensions      [0 1 -1 0 0 0 0];


internalField   nonuniform List<vector> 
14470
(
(0.962793 -0.0161869 1.16827e-20)
(0.960925 -0.0159675 -9.23597e-23)
(0.962229 -0.0141831 0)
(-0.130193 -0.000725119 -5.76422e-20)
(-0.137844 0.000697154 4.86416e-20)
(0.992184 -0.00634735 6.87489e-21)
(0.992524 -0.00677187 -1.11406e-20)
(0.991908 -0.0070583 -1.33903e-20)
(-0.0431077 0.104337 -1.01346e-19)
(-0.0373737 0.103298 -7.42761e-20)
(-0.0389672 0.111196 -5.95582e-20)
(0.999963 -0.000552577 -4.22119e-21)
(0.999958 -0.000529088 -8.02224e-23)
(0.999928 -0.000715263 -3.51196e-21)
(1.22743 -0.0258808 1.84991e-20)
(1.23459 -0.023794 1.76393e-19)
(1.23216 -0.0318387 1.05903e-19)
(1.11496 -0.236176 2.42131e-20)
(1.12042 -0.225781 -3.9766e-20)
(1.13031 -0.23537 -9.0115e-21)
(-0.0997172 0.0485086 -5.71803e-20)
(-0.0892905 0.0515742 9.64398e-21)
(-0.137552 0.0491511 -8.6826e-20)
(1.02095 -0.0374955 2.67316e-22)
(1.02235 -0.0384256 -5.92234e-21)
(1.02064 -0.0392048 -8.66543e-23)
(1.00005 -0.00202727 -3.25515e-21)
(1.00004 -0.00188966 -7.40768e-21)
(1.00005 -0.00189072 2.65753e-22)
(1.00002 -0.00216164 0)
(1.00008 -0.00217825 0)
(1.00224 -0.00947296 1.17662e-21)
(1.00212 -0.00901138 -8.4799e-22)
(1.0019 -0.00930096 3.33152e-21)
(-0.0636806 0.144463 6.67102e-23)
(-0.0836777 0.143306 -5.92245e-20)
(-0.0833262 0.147832 5.82158e-20)
(1.01996 -0.0233748 2.82146e-22)
(1.01939 -0.0224181 -6.45745e-22)
(1.02069 -0.0225175 0)
(1.06663 -0.00402838 -2.56005e-21)
(1.06814 -0.00357377 -2.32903e-21)
(1.06673 -0.00250778 8.87247e-22)
(1.1367 -0.066876 -5.87192e-21)
(1.14296 -0.0689585 -2.41379e-20)
(1.13854 -0.0739188 1.43262e-20)
(0.994332 -0.00875223 9.80609e-21)
(0.994289 -0.00923418 -2.49801e-21)
(0.994763 -0.00893563 1.07344e-20)
(-0.0683112 -0.0658236 -1.0997e-20)
(-0.0668607 -0.0646821 -1.58854e-20)
(-0.0686213 -0.0756107 -5.57785e-20)
(1.01766 -0.00513956 5.61419e-22)
(1.01758 -0.00474831 -1.28491e-21)
(1.01799 -0.00495605 -5.99124e-22)
(1.02331 -0.010052 -2.88247e-21)
(1.02402 -0.00983597 -5.93509e-22)
(1.02322 -0.00943443 1.38274e-21)
(0.99999 -0.000211573 0)
(0.999991 -0.000221157 4.79511e-21)
(-0.0446256 0.151701 -2.85713e-20)
(-0.0407479 0.161262 -1.34547e-20)
(-0.0368537 0.152118 -1.2337e-20)
(-0.0694601 0.0445586 1.64843e-20)
(-0.122049 0.0457888 6.06471e-20)
(-0.0424366 0.140493 0)
(-0.0398925 0.143915 6.46256e-20)
(0.919261 -0.0591325 3.0992e-20)
(0.924271 -0.0579574 2.38409e-20)
(0.920173 -0.0534249 2.30199e-20)
(0.999958 -0.00356558 3.76215e-21)
(1.00003 -0.00375819 3.8176e-21)
(1.00005 -0.00348878 -3.55008e-23)
(1.00003 -0.000427939 5.12636e-22)
(1.00003 -0.00049009 -5.39191e-21)
(1.00006 -0.000604624 -6.22766e-21)
(1.01739 -0.00525545 -2.374e-22)
(1.01776 -0.00548695 -1.61326e-21)
(1.16032 -0.139734 -2.23703e-20)
(1.16838 -0.137875 -1.65786e-20)
(1.16629 -0.14725 6.10665e-21)
(-0.295641 0.0187404 -6.02136e-20)
(-0.297856 0.0188003 -3.86255e-20)
(-0.329121 0.0189908 -2.31299e-19)
(1.27411 -0.042863 8.22878e-20)
(1.26289 -0.0433084 4.40962e-20)
(1.26984 -0.0512688 7.07297e-20)
(0.996584 -0.0036091 1.65315e-22)
(0.996426 -0.00333626 -3.51844e-21)
(0.996242 -0.00377937 -3.75424e-21)
(0.997231 -0.00886992 3.36325e-21)
(0.997002 -0.00932497 -1.20404e-21)
(0.997396 -0.00936444 5.80699e-21)
(1.00561 -0.000626822 4.36117e-24)
(1.00533 -0.000620991 1.83933e-21)
(1.00517 -0.000354051 -2.77262e-22)
(1.08197 -0.0315895 -3.17944e-20)
(1.08095 -0.0337145 -1.2267e-20)
(1.08344 -0.0330309 -2.45107e-20)
(1.06265 -0.00761138 -1.01184e-20)
(1.06193 -0.00894642 -9.45273e-21)
(1.0609 -0.00784819 9.03171e-22)
(0.916963 0.00377621 -1.92955e-20)
(0.913525 0.00548647 -4.08701e-21)
(0.913934 0.000580332 -4.20585e-21)
(-0.1482 0.060622 -6.4544e-20)
(-0.142934 0.0563839 4.19643e-20)
(-0.14105 0.0506189 -4.14378e-20)
(1.08104 -0.0759179 0)
(1.07717 -0.0739325 0)
(1.08093 -0.0713832 1.00403e-21)
(1.15131 -0.142811 3.13753e-20)
(1.15309 -0.133996 2.19575e-20)
(1.0521 0.0415918 3.90683e-21)
(1.04716 0.0373319 0)
(0.890389 0.0525989 -5.57663e-20)
(-0.103896 0.0159075 0)
(-0.0946188 0.0314808 4.64016e-20)
(-0.126051 0.0229789 1.23339e-19)
(1.00001 -0.000277212 4.93567e-21)
(1.00002 -0.000404032 4.35107e-21)
(0.992521 -0.000355533 -5.88232e-21)
(0.992079 -0.000621773 3.99696e-21)
(0.992125 -5.02442e-05 -2.89679e-21)
(0.996424 2.87282e-06 0)
(0.996707 -0.000132847 -4.84722e-21)
(0.996665 0.000207883 0)
(-0.245763 0.0413604 5.69289e-20)
(-0.251251 0.0402845 5.66902e-20)
(-0.230002 0.0470101 5.88239e-20)
(0.999997 -0.000493781 9.58532e-23)
(1.00001 -0.000254212 3.89273e-21)
(1.00002 -0.000249144 -3.29854e-22)
(1.03193 -0.00811257 -4.85964e-22)
(1.03151 -0.00738966 1.61169e-21)
(1.03259 -0.0075441 1.53537e-21)
(0.994409 -0.00810459 -6.68536e-22)
(0.993884 -0.00846142 1.55691e-21)
(1.08351 -0.0288646 2.23278e-20)
(1.08043 -0.0295 1.7273e-20)
(1.00586 -0.000868494 -1.9807e-21)
(1.00591 -0.000579716 -1.22846e-21)
(1.1036 -0.0481376 -5.13234e-21)
(1.10701 -0.0506466 2.41724e-20)
(1.10645 -0.0459692 3.07984e-21)
(1.00001 -0.000716696 -7.10409e-21)
(0.999995 -0.000744729 6.13892e-22)
(0.897847 -0.117276 1.8715e-20)
(0.907236 -0.115664 5.3303e-21)
(0.904531 -0.125886 -1.14488e-21)
(-0.0506507 0.0962806 8.21051e-20)
(-0.0523206 0.104932 1.40907e-20)
(1.0024 -0.00859292 -1.20694e-22)
(1.00228 -0.00816366 0)
(1.00259 -0.00836851 -4.78283e-22)
(1.15385 0.0170759 2.79052e-20)
(1.15229 0.0227098 -3.61112e-21)
(1.14815 0.0188258 2.94438e-20)
(1.03134 -0.00850945 1.15792e-21)
(1.03232 -0.0087225 -1.72854e-21)
(1.00001 -0.000263417 0)
(0.902006 -0.0177123 5.44511e-21)
(0.896699 -0.0162998 1.86002e-20)
(0.901265 -0.0120447 2.24412e-20)
(0.828646 -0.323433 -1.23268e-21)
(0.84688 -0.332614 6.69368e-21)
(0.821887 -0.353983 -8.11597e-21)
(0.993902 -0.0068149 -4.57981e-21)
(0.99362 -0.00646309 1.35872e-21)
(0.994137 -0.00626412 -1.01722e-20)
(1.09045 -0.00425771 -1.16298e-20)
(1.09001 -0.00717141 -1.1256e-20)
(1.08759 -0.00497022 4.31078e-21)
(1.00279 -0.00125123 -1.85664e-21)
(1.00296 -0.00117394 -2.98328e-22)
(1.003 -0.00141854 -2.25409e-21)
(1.01964 -0.0365664 1.52313e-21)
(1.02107 -0.0360087 4.23676e-21)
(-0.258579 0.0275984 0)
(-0.250557 0.0269632 0)
(1.05483 -0.0462248 -1.42565e-20)
(1.05258 -0.0464216 3.55211e-22)
(1.05414 -0.0486092 3.30837e-22)
(1.06333 -0.00636704 -9.47212e-21)
(1.06373 -0.00491682 2.75106e-21)
(1.0621 -0.00522413 -9.21194e-21)
(0.0214546 0.00219186 -3.85803e-20)
(0.0471472 0.012513 -1.23614e-19)
(0.0554948 0.010149 2.49091e-20)
(0.979039 -0.0108298 3.00043e-21)
(0.977817 -0.0104957 3.62096e-21)
(0.978945 -0.00970484 2.35192e-21)
(0.599051 0.0281001 -3.6171e-20)
(0.579367 0.0414248 -3.62776e-20)
(0.577852 0.013349 8.26735e-20)
(-0.162906 0.0546566 0)
(-0.127105 0.0575349 -8.20753e-20)
(-0.160992 0.0577604 5.15771e-20)
(0.519693 0.207955 -3.56018e-21)
(0.396017 0.227527 2.25447e-20)
(0.514063 0.226064 -2.91717e-21)
(0.182677 0.0485633 0)
(0.122788 0.0442232 0)
(0.1816 0.0545819 -7.06791e-20)
(0.999999 -0.000693728 0)
(0.999992 -0.000750565 0)
(1.00002 -0.000943741 -2.34817e-21)
(0.792912 -0.133057 -5.15001e-20)
(0.807709 -0.140095 6.2155e-20)
(0.805166 -0.124072 9.20407e-20)
(0.923492 0.0121287 -1.0924e-19)
(0.752738 0.0253255 -8.57149e-20)
(0.761007 0.0194047 6.67279e-20)
(0.994634 -0.0032914 2.6457e-21)
(0.994412 -0.00370493 -4.15364e-21)
(0.994842 -0.00356119 7.98967e-21)
(0.999973 -0.000631438 -4.57179e-21)
(0.999977 -0.00063655 8.26473e-23)
(0.999987 -0.000433629 -4.49783e-21)
(0.782474 -0.13945 2.59988e-20)
(0.781035 -0.122406 -3.06589e-20)
(-0.071935 -0.0656722 5.69232e-20)
(-0.0678608 -0.0575683 4.5595e-20)
(1.13125 -0.0659038 1.76782e-21)
(1.13509 -0.0613861 -3.82902e-20)
(0.978757 -0.070209 2.06244e-21)
(0.981927 -0.0717201 4.10307e-21)
(0.98225 -0.0681237 3.84418e-21)
(1.06438 -0.00742457 -1.20859e-21)
(1.2613 -0.15113 -1.95301e-20)
(1.25525 -0.160061 9.05896e-20)
(1.25161 -0.148728 5.62194e-20)
(0.999968 -0.000630271 3.54808e-21)
(0.999947 -0.000816611 -4.39224e-23)
(1.11 0.0323508 -2.90543e-20)
(1.10771 0.0274815 1.32828e-20)
(1.10432 0.0313886 3.80799e-20)
(-0.153243 0.0650375 -6.03946e-20)
(-0.153868 0.0700384 -9.71041e-23)
(0.824201 -0.302499 -2.23704e-20)
(0.800783 -0.323082 -6.14696e-20)
(-0.0591291 0.133444 1.28152e-20)
(-0.052975 0.134807 0)
(-0.0584731 0.126665 6.0935e-20)
(1.3543 -0.185809 1.49517e-19)
(1.34831 -0.173452 1.08505e-20)
(1.36747 -0.176001 4.91926e-20)
(1.36992 -0.201612 -2.70877e-20)
(1.33833 -0.194127 4.88595e-21)
(1.0864 -0.12135 -1.5305e-20)
(1.0926 -0.127179 0)
(1.0931 -0.118788 -1.26499e-20)
(-0.107706 -0.00543474 -8.33274e-20)
(-0.0788453 0.00868036 0)
(0.995766 -0.0123589 -3.01508e-21)
(0.995943 -0.0129483 5.08986e-21)
(0.996303 -0.0123708 -6.11415e-21)
(0.185878 0.0506331 0)
(0.259297 0.055874 0)
(1.13507 -0.0905352 -3.82865e-20)
(1.13 -0.0939351 2.22849e-20)
(1.12957 -0.0872994 6.67766e-20)
(1.04129 -0.0656759 5.40587e-21)
(1.04409 -0.0668254 1.66657e-20)
(1.04152 -0.0688516 -1.0749e-21)
(0.999988 -0.000387421 0)
(0.999962 -0.000600097 0)
(-0.127402 0.104388 -1.35985e-20)
(-0.131256 0.108498 -4.12638e-20)
(-0.12277 0.111849 4.1228e-20)
(1.10117 -0.0511085 -4.8609e-21)
(1.10015 -0.0464242 3.18204e-21)
(-0.0909922 0.237072 2.11356e-21)
(-0.0980891 0.224458 -9.48942e-22)
(-0.0836579 0.20844 -2.03432e-20)
(0.992942 -9.55474e-06 4.51234e-21)
(0.99296 -0.000546312 -2.81307e-21)
(0.0873347 0.0936828 7.3146e-20)
(0.0268458 0.089664 5.49775e-20)
(0.0564785 0.0811973 2.47129e-20)
(0.597686 0.0380496 -1.83708e-21)
(0.463258 0.0433351 -7.89567e-21)
(0.446917 0.0488404 -7.93413e-21)
(0.675274 0.169727 0)
(0.538806 0.182025 -3.41839e-21)
(1.00476 -0.00713508 2.05697e-21)
(1.00472 -0.00743933 0)
(1.00446 -0.00711062 -2.51262e-21)
(0.994411 -0.00300611 0)
(0.994857 -0.00289528 0)
(0.999986 -0.000189359 0)
(1.00008 -0.00096556 2.27932e-21)
(1.0001 -0.000942412 3.36595e-21)
(1.00012 -0.0011228 0)
(-0.0486425 0.142163 -1.26923e-20)
(-0.0506624 0.149211 -1.30226e-20)
(0.114981 -0.120599 0)
(0.0798852 -0.127858 0)
(0.0842886 -0.0884901 -3.28055e-22)
(-0.287125 0.0107744 -7.57384e-20)
(-0.291036 0.011184 -3.95982e-20)
(-0.315444 0.0132047 0)
(0.980199 -0.0109707 -8.19884e-21)
(0.97932 -0.011678 4.96751e-21)
(0.99914 -0.00250125 -4.20548e-21)
(0.999122 -0.00270442 1.42166e-20)
(0.998983 -0.00257837 -3.07356e-21)
(1.05739 0.00135097 1.9813e-20)
(1.05628 0.00208736 -9.9375e-22)
(1.05783 0.00297009 -3.25975e-21)
(0.996817 -0.000712605 4.35641e-21)
(0.997068 -0.000787364 4.17446e-21)
(0.996866 -0.00100818 -5.30573e-22)
(-0.0582911 0.0891752 7.69318e-21)
(-0.0663842 0.0907053 -1.98248e-20)
(-0.064795 0.0822152 -8.41443e-20)
(0.996126 0.000610752 -1.45602e-21)
(0.996024 0.000327676 -1.02191e-20)
(0.995836 0.000561498 -5.4638e-21)
(-0.0125459 0.099439 2.84273e-20)
(-0.00947971 0.110564 -4.90483e-20)
(-0.0573141 0.104834 3.13672e-21)
(1.11235 0.0367651 -1.08466e-20)
(1.11591 0.0321897 -2.44044e-20)
(0.460845 0.0703211 9.54845e-20)
(0.363447 0.0579366 -4.59984e-20)
(0.388148 0.0648246 -4.52788e-20)
(1.11515 -0.0290059 -5.69537e-20)
(1.11601 -0.0248493 1.03195e-20)
(1.11222 -0.0259744 -8.15023e-21)
(1.06112 -0.0105599 9.96609e-21)
(1.06323 -0.0104396 1.43973e-24)
(0.996151 0.000921062 9.0623e-21)
(0.996398 0.000646786 1.08633e-20)
(1.14479 -0.0830681 -5.625e-21)
(1.15115 -0.0805098 0)
(1.15065 -0.0882426 3.42703e-20)
(-0.296401 0.0188876 -1.84169e-20)
(-0.266954 0.0193697 -3.96997e-20)
(1.09927 0.101017 -2.62735e-20)
(1.1035 0.0938236 0)
(1.1086 0.101736 0)
(1.09399 0.109109 -7.29501e-20)
(1.08801 0.100026 -2.62708e-20)
(1.05901 -0.0246265 3.59892e-22)
(1.05879 -0.0227955 -1.12683e-20)
(1.05735 -0.0239822 -1.10298e-20)
(1.00681 -0.0150938 0)
(1.00733 -0.0150532 1.75798e-24)
(1.00685 -0.0145701 0)
(0.964819 -0.0159738 1.90646e-20)
(0.963688 -0.0177139 9.275e-22)
(1.04959 -0.0426233 4.11683e-21)
(1.04753 -0.0430175 8.57209e-21)
(1.04812 -0.0409108 8.16708e-21)
(1.07895 -0.0348922 1.75037e-20)
(1.07615 -0.0338516 7.26719e-21)
(1.07647 -0.0368017 1.37554e-20)
(1.1986 -0.227284 1.55127e-20)
(1.18865 -0.234563 0)
(1.20267 -0.241594 -9.7993e-20)
(1.25249 0.0224313 -4.01077e-20)
(1.25423 0.0285091 -3.55702e-20)
(1.24121 0.0253289 1.86008e-20)
(1.0586 0.000948777 1.21346e-20)
(1.05713 6.99562e-05 -8.96579e-21)
(1.00001 -0.000667676 -5.0529e-21)
(0.999998 -0.000446987 0)
(1.15019 -0.058201 -2.07837e-20)
(1.15371 -0.0553957 0)
(1.15483 -0.0613326 0)
(-0.0658071 -0.0528393 3.29834e-20)
(-0.0705038 -0.059981 5.92465e-20)
(-0.062374 -0.0501334 1.35669e-20)
(1.08093 -0.036542 1.44699e-20)
(0.98391 -0.0191273 -7.84587e-21)
(0.984232 -0.0204594 2.05458e-21)
(0.985138 -0.0193236 2.47477e-21)
(1.10654 0.0159665 5.09682e-20)
(1.10425 0.0193297 -8.48021e-21)
(1.10264 0.0157943 3.20608e-20)
(-0.237975 0.0429496 -6.11502e-20)
(-0.231014 0.0440387 -5.73034e-20)
(-0.219525 0.0503251 -6.39716e-20)
(1.15017 -0.44641 -3.46193e-20)
(1.13363 -0.450101 0)
(1.14059 -0.468392 4.24477e-20)
(0.996173 0.00120293 -1.08168e-21)
(0.996441 0.00125138 0)
(0.196591 0.0529555 5.83192e-20)
(0.153527 0.0423969 -3.81496e-20)
(1.00637 -0.015176 0)
(1.00685 -0.0156371 2.01793e-21)
(0.995883 0.00114566 5.50421e-21)
(0.999103 -0.00401801 -1.95127e-21)
(0.999229 -0.00388005 4.86341e-21)
(0.999123 -0.00372555 -2.01121e-21)
(0.0575704 -0.042815 -5.39909e-20)
(0.278876 -0.0935142 1.47104e-19)
(0.13338 -0.0566616 1.26494e-19)
(1.03827 -0.0644724 7.39596e-21)
(1.04063 -0.0626837 0)
(0.999911 -0.00345522 1.43259e-21)
(0.999898 -0.00366689 -3.4845e-21)
(0.98538 -0.00261703 0)
(0.985644 -0.00332379 0)
(0.984833 -0.00326511 0)
(1.36862 -0.223955 6.97763e-22)
(1.34254 -0.22273 0)
(1.35702 -0.2378 2.33896e-20)
(1.14631 -0.0629024 -7.20344e-20)
(1.14913 -0.0709018 -3.90782e-20)
(0.994206 -0.00719484 5.80444e-22)
(0.993672 -0.00744096 -2.56597e-24)
(1.27858 -0.0347676 -2.85662e-20)
(1.28991 -0.0429236 3.79998e-20)
(0.983916 -0.0114019 -1.3753e-21)
(0.98479 -0.0110828 -3.66352e-21)
(0.984695 -0.0120866 1.05476e-20)
(1.10613 0.022926 -2.6068e-20)
(1.11096 0.0233677 2.84449e-20)
(1.06077 -0.025219 1.07964e-20)
(1.05924 -0.0264347 -1.11967e-21)
(1.02348 -0.0105687 -2.24298e-21)
(1.02281 -0.0102335 -4.48809e-21)
(0.586142 -0.412374 5.66917e-20)
(0.597305 -0.442895 -2.71931e-20)
(0.558017 -0.434327 0)
(1.03957 -0.0170465 0)
(1.03969 -0.0181187 -8.48859e-21)
(1.03842 -0.0176696 2.68155e-21)
(1.07659 -0.00190183 0)
(1.09656 -0.0130207 3.05676e-20)
(-0.0891831 0.204635 2.20096e-20)
(-0.0604409 0.187384 -5.65489e-21)
(-0.059764 0.171435 9.55473e-21)
(1.04219 -0.0208259 -1.24163e-20)
(1.04194 -0.0221356 -1.31926e-20)
(1.04066 -0.0213166 -4.86515e-21)
(1.00479 -0.00682022 1.61217e-22)
(1.00478 -0.00651467 -7.51977e-22)
(1.0045 -0.00651755 4.39505e-22)
(1.00002 -0.00172788 -4.02297e-21)
(1.00002 -0.00155451 -6.10143e-23)
(1.00001 -0.00154671 0)
(0.983522 -0.0183047 -1.91083e-21)
(0.982707 -0.0192388 -7.43665e-21)
(-0.22722 0.00170163 -5.21526e-20)
(-0.203145 -0.00264195 2.13647e-19)
(-0.236403 0.00405491 1.27386e-19)
(0.540534 -0.274486 -6.74517e-20)
(0.329074 -0.185539 -8.68766e-20)
(0.206431 -0.135178 3.33233e-20)
(-0.213191 0.167919 4.14462e-20)
(-0.212063 0.163214 -3.65617e-22)
(-0.208999 0.155314 9.22197e-21)
(1.00224 -0.0100331 7.76341e-22)
(1.00255 -0.00972545 1.11008e-22)
(1.21947 -0.028574 -3.07686e-21)
(1.2218 -0.0209676 -6.19593e-20)
(1.0197 -0.375236 -4.83267e-21)
(1.03679 -0.361613 1.88567e-20)
(1.01664 -0.354476 -1.55524e-20)
(0.572946 -0.523735 0)
(0.533847 -0.559883 2.40908e-20)
(0.532954 -0.495539 0)
(0.994155 -0.00416134 -3.08884e-21)
(0.994423 -0.00446376 -1.30618e-21)
(0.99391 -0.00461999 1.98518e-23)
(1.05634 -0.0418521 2.01266e-20)
(1.05552 -0.044129 -9.73827e-21)
(1.05396 -0.0417433 5.68012e-21)
(0.162215 0.0938595 6.67205e-21)
(0.130357 0.105933 4.72688e-20)
(-0.258601 0.0350467 8.51668e-20)
(1.10867 0.0401057 1.30298e-20)
(1.11502 0.0416871 1.26171e-20)
(0.996233 -0.000261353 -7.76981e-23)
(0.996157 8.81725e-05 0)
(0.997422 -0.000454647 4.00848e-21)
(0.997597 -0.000307815 -3.81932e-22)
(0.997631 -0.000557814 4.02801e-21)
(1.00507 -0.00711426 2.2053e-21)
(0.591555 0.0752897 1.87501e-20)
(0.557953 0.0790803 5.47578e-20)
(-0.167403 0.0513319 -2.72993e-20)
(-0.192622 0.0510963 0)
(0.834671 -0.387121 0)
(0.979025 -0.473763 0)
(-0.0691311 0.250347 -1.00527e-20)
(-0.0957899 0.259654 2.51724e-20)
(1.01855 -0.0356243 -7.3172e-22)
(1.01743 -0.0345766 0)
(1.01884 -0.0340767 1.35342e-21)
(-0.116961 0.253602 -2.99576e-20)
(-0.054132 0.278824 4.36186e-20)
(-0.146807 0.283183 -2.1266e-23)
(0.400273 -0.140793 9.1172e-21)
(0.378029 -0.156256 -4.40751e-20)
(0.409182 -0.166875 4.33077e-20)
(0.912807 -0.0218731 9.68078e-21)
(0.910986 -0.0182207 5.07036e-21)
(0.915474 -0.0182891 -1.10396e-20)
(1.03461 -0.0051363 -5.67558e-22)
(1.03413 -0.00577549 -7.55207e-23)
(1.03363 -0.00509281 6.86444e-21)
(0.960977 -0.0518676 -1.01402e-20)
(0.963048 -0.0498777 3.98669e-21)
(0.960117 -0.048731 -5.18688e-21)
(0.195696 0.105883 -1.58263e-20)
(0.161947 0.0991956 7.72298e-21)
(0.187981 0.067257 -1.61867e-19)
(1.01517 -0.00509736 -3.82266e-22)
(1.01557 -0.00521288 5.87071e-22)
(1.01533 -0.00540419 0)
(0.993993 -0.00966147 -9.57436e-21)
(0.99444 -0.00972663 -5.38538e-22)
(0.999735 -0.00150464 4.9811e-21)
(0.99977 -0.00154851 -3.80954e-21)
(0.999805 -0.00140345 4.63265e-21)
(0.97669 -0.010668 1.06506e-20)
(0.975405 -0.0109328 5.50089e-21)
(0.976438 -0.0119095 2.68974e-21)
(1.02561 -0.00910879 -7.45809e-22)
(1.026 -0.00880694 -2.79403e-21)
(1.02539 -0.00849037 7.83357e-22)
(1.08293 -0.0247209 1.88169e-20)
(1.08461 -0.0268268 1.61207e-20)
(1.08593 -0.024327 -9.67734e-21)
(1.06583 -0.0198168 5.64695e-21)
(1.06761 -0.0203924 3.43312e-21)
(1.06683 -0.0186704 -6.14724e-21)
(-0.0826784 0.00926157 -5.46179e-20)
(-0.0760474 0.0124127 -3.71077e-20)
(-0.0738682 0.000849849 -6.56944e-20)
(0.982177 -0.00163331 2.26334e-21)
(0.981391 -0.00219663 -1.8284e-20)
(0.982374 -0.00247655 -3.86649e-21)
(1.072 -0.0684776 -8.96664e-21)
(1.06971 -0.0659922 1.31458e-20)
(1.0686 -0.0695113 6.71851e-21)
(1.04232 -0.0196389 6.95143e-21)
(1.04345 -0.0203674 0)
(0.968688 -0.0291465 -6.80101e-21)
(0.968981 -0.0269515 0)
(0.970653 -0.028616 0)
(0.816434 -0.547809 1.76342e-22)
(0.776951 -0.552733 4.13506e-21)
(0.807978 -0.594131 2.56799e-22)
(1.14462 -0.057336 1.20798e-20)
(-0.0581184 -0.0438561 4.47277e-22)
(-0.0710029 -0.0516789 -5.47862e-20)
(1.01378 -0.00498012 0)
(1.0136 -0.00473411 2.72258e-22)
(1.01338 -0.00491202 -1.04425e-22)
(-0.00529008 -0.0045009 1.06824e-19)
(0.00262496 -0.00722663 0)
(0.975822 -0.0682861 -9.22667e-21)
(0.975167 -0.0719795 -7.1915e-21)
(1.07251 0.0101898 -6.43824e-21)
(1.07174 0.0102971 3.4322e-21)
(1.07213 0.00973402 -5.3576e-21)
(1.01945 -0.0240121 1.18785e-21)
(1.0206 -0.0240479 -8.70745e-22)
(1.20942 -0.220179 5.98631e-20)
(1.19747 -0.215094 -3.67963e-20)
(0.999247 -0.00244129 -9.33291e-21)
(0.999175 -0.00235742 -1.26875e-20)
(0.740185 -0.060782 4.74746e-20)
(0.750195 -0.0498191 5.78345e-20)
(0.731311 -0.0458647 -6.14219e-20)
(1.13934 -0.0867928 -8.30958e-20)
(1.14006 -0.0940456 -4.66542e-20)
(1.02518 -0.00941646 1.60494e-21)
(1.02594 -0.00964883 -2.60726e-21)
(0.332158 0.448851 3.2628e-20)
(0.380794 0.429753 -1.71359e-19)
(0.375763 0.483406 -8.19436e-20)
(-0.218612 0.215561 -5.50103e-20)
(-0.217073 0.223284 9.81565e-20)
(-0.216536 0.225587 3.16001e-20)
(1.08243 -0.124901 1.59543e-22)
(1.08202 -0.118169 -1.32454e-20)
(0.995521 -0.0147442 3.9177e-21)
(0.995301 -0.0140686 4.05144e-21)
(0.994818 -0.0147654 -3.07588e-21)
(1.1265 -0.0186366 1.40561e-20)
(1.12533 -0.0222395 1.73633e-20)
(1.13025 -0.0218509 -5.54962e-21)
(-0.172553 0.255837 2.39978e-20)
(-0.186468 0.255762 0)
(-0.190802 0.266644 -2.6819e-20)
(0.75548 -0.0870207 5.94037e-22)
(0.746848 -0.0736816 6.84834e-20)
(0.764513 -0.0774888 0)
(0.74331 -0.0960952 -4.39359e-20)
(0.760266 -0.0985216 4.25413e-22)
(-0.0872109 0.0483261 2.082e-20)
(-0.0957332 0.0514111 1.33565e-19)
(-0.089936 0.0582923 1.84227e-19)
(1.11329 0.0737456 -1.25974e-20)
(1.10639 0.0747894 2.09865e-20)
(1.1116 0.0808586 0)
(1.07298 0.0102554 -1.28052e-20)
(1.07266 0.00971242 1.43789e-21)
(1.09072 -0.00206649 -1.72852e-20)
(1.09297 -0.00412995 2.0901e-20)
(0.418529 -0.122043 -8.15776e-20)
(0.387409 -0.114004 1.82059e-20)
(1.02827 -0.00412651 3.82165e-21)
(1.02862 -0.00363993 -1.78524e-21)
(1.02789 -0.00357871 2.56232e-21)
(-0.0956488 0.195194 -2.87706e-20)
(-0.259714 0.00865253 -1.63937e-19)
(-0.284879 0.0105583 1.64773e-20)
(1.01481 -0.00500378 1.81083e-22)
(1.01505 -0.00483546 -1.79525e-22)
(0.999814 -0.00117114 -4.66494e-22)
(0.9998 -0.00112107 5.13688e-22)
(0.99986 -0.00102193 -9.67691e-21)
(1.04384 0.0455458 -6.98988e-22)
(1.16772 0.0338618 4.81854e-22)
(0.987689 -0.0138384 4.30008e-21)
(0.988552 -0.0143246 0)
(0.987582 -0.0150076 -4.78622e-21)
(1.00007 -0.000869262 3.60086e-21)
(1.00008 -0.00103375 4.4171e-21)
(1.14839 0.0385757 3.5324e-21)
(1.15452 0.037647 -1.7339e-20)
(1.14895 0.0332048 -1.51307e-20)
(1.1607 0.0362442 -8.51656e-22)
(1.16201 0.0301841 4.84589e-21)
(1.1682 0.0346208 3.47863e-21)
(1.01819 -0.0370174 -3.13404e-22)
(1.05712 -0.0400209 -3.06344e-21)
(1.05835 -0.0423029 1.19204e-20)
(1.07444 -0.0708773 -1.53233e-20)
(1.07521 -0.0670191 -2.96657e-20)
(0.955101 -0.173575 -4.17989e-21)
(0.946459 -0.166249 2.11679e-20)
(0.945175 -0.177702 -5.85532e-21)
(1.06015 -0.0359742 -1.07307e-20)
(1.05835 -0.0349847 -3.39097e-21)
(1.06004 -0.0339206 1.4734e-20)
(0.993873 -0.00387077 -6.65546e-21)
(1.06785 -0.168899 1.14103e-20)
(1.07126 -0.16352 1.00763e-20)
(1.0635 -0.162855 -8.72209e-22)
(-0.0404024 -0.00122321 -1.23713e-21)
(-0.0310199 -0.00765328 1.28969e-20)
(-0.0397708 -0.0122149 9.86633e-22)
(1.02457 -0.00967161 -1.16644e-22)
(1.02439 -0.00902324 1.83742e-21)
(-0.218329 0.192824 5.65629e-20)
(-0.216328 0.179833 -5.69901e-20)
(-0.215391 0.187753 -5.88662e-20)
(0.999974 -0.000921479 -4.64576e-21)
(1.00001 -0.000707364 -1.0409e-21)
(1.00004 -0.0024682 0)
(1.00002 -0.00230759 0)
(0.99999 -0.0024891 0)
(1.01185 -0.000809905 -3.26492e-24)
(1.01171 -0.00100566 9.73917e-23)
(1.01205 -0.00101187 -4.12362e-22)
(-0.0490675 0.0871635 -2.66944e-20)
(0.993754 0.00134634 0)
(0.993367 0.00112896 -1.37437e-20)
(0.993737 0.00092543 6.30763e-24)
(1.37666 -0.21405 -2.51376e-20)
(1.379 -0.228378 2.95509e-20)
(-0.00276317 0.0243319 3.77348e-20)
(0.0287664 0.0274345 -1.17157e-19)
(0.0021334 0.0308092 -5.69801e-20)
(1.00065 -0.00273463 -6.46449e-23)
(1.00061 -0.00279261 -1.89769e-21)
(1.00071 -0.00289854 -3.44271e-21)
(0.999365 -0.00236675 2.67409e-21)
(0.999331 -0.00252784 3.59827e-22)
(1.35206 -0.114132 9.90327e-20)
(1.36525 -0.107827 2.59345e-21)
(1.36911 -0.118363 5.43171e-20)
(1.01134 -0.000486056 7.40629e-22)
(1.01179 -0.000489955 -1.07216e-23)
(0.999943 -0.00102823 -8.87616e-21)
(0.999951 -0.00105599 4.71531e-22)
(0.99992 -0.00122117 7.27425e-22)
(1.01274 -0.000591301 7.87862e-24)
(1.01249 -0.000612043 -3.29939e-23)
(1.0115 -0.000362299 1.0391e-22)
(-0.0132373 0.0164064 -2.60186e-20)
(-0.0269943 0.0189688 -8.83297e-21)
(0.601994 -0.385673 3.80863e-21)
(0.566403 -0.375825 1.28448e-20)
(0.931844 -0.0527301 -2.03899e-21)
(0.935442 -0.0501648 1.2679e-20)
(0.935961 -0.0548595 3.19578e-21)
(0.889293 -0.533981 -2.21516e-22)
(0.899076 -0.499663 -6.44482e-22)
(0.925669 -0.523214 4.41509e-22)
(1.15487 0.0118507 2.16827e-20)
(1.15592 0.00638314 4.71611e-20)
(1.1504 0.00838717 5.837e-20)
(-0.111834 0.234015 5.64822e-20)
(-0.0500512 0.197373 -3.58379e-20)
(-0.038673 0.192161 1.0902e-19)
(-0.0509533 0.183771 7.81888e-20)
(1.0419 -0.0235302 2.64066e-21)
(1.04346 -0.0228903 3.75193e-21)
(-0.11045 -0.170073 4.84786e-20)
(-0.0490984 -0.200466 -1.78891e-19)
(-0.168199 -0.186485 7.7819e-20)
(1.00002 -0.000672143 6.14335e-21)
(1 -0.000907404 6.10296e-22)
(1 -0.000640084 -3.38821e-22)
(-0.139485 0.245515 -3.86927e-22)
(-0.155068 0.25315 -2.99011e-20)
(0.456762 -1.03996 -6.5735e-20)
(0.207904 -0.999292 -4.00379e-20)
(0.447349 -1.14079 -5.56816e-20)
(-0.174006 0.0983058 -1.88552e-20)
(-0.177856 0.0977862 1.29855e-19)
(-0.180425 0.106462 1.08786e-19)
(-0.0243713 0.0896623 2.44574e-20)
(1.11517 0.0674666 -4.53719e-21)
(1.12006 0.0733757 -8.63392e-20)
(1.05843 -0.0211069 0)
(1.06007 -0.0215987 -5.88894e-21)
(1.1262 -0.0644708 3.7153e-20)
(1.12747 -0.0699362 5.80137e-20)
(1.06451 -0.0212991 1.28809e-20)
(1.06404 -0.0191062 1.3731e-20)
(1.03512 -0.00448831 -2.33137e-21)
(1.03546 -0.00372291 2.55477e-21)
(1.03443 -0.00376406 4.54022e-23)
(1.04483 -0.0160139 2.81088e-21)
(1.0461 -0.0161269 0)
(1.04539 -0.0147276 -7.70985e-21)
(0.856949 -0.54012 -5.49548e-22)
(0.827303 -0.513075 1.20726e-20)
(0.918087 -0.0642377 -1.42484e-20)
(0.914815 -0.0592642 8.96246e-21)
(0.99939 -0.00223979 -3.76563e-21)
(0.999435 -0.0022958 4.5405e-21)
(1.00001 -0.000175194 -2.86268e-21)
(1 -8.49746e-05 -4.59957e-24)
(1 -9.20734e-05 2.71814e-21)
(1.01413 -0.0050863 -6.69103e-22)
(1.01389 -0.00526828 0)
(1.01652 -0.000114394 4.5693e-22)
(1.01633 -0.000192771 1.92982e-22)
(1.0168 -0.000203632 -3.97625e-22)
(1.02476 -0.010209 -4.33619e-21)
(-0.0584593 0.17257 2.69887e-20)
(-0.0541521 0.175036 5.03175e-20)
(-0.0540969 0.16845 -3.8092e-20)
(1.00467 -0.00847523 -4.05965e-22)
(1.00499 -0.00846451 2.28742e-21)
(1.00467 -0.0081202 1.85773e-22)
(1.01847 -0.0221419 -5.1037e-22)
(1.01761 -0.0217326 1.15071e-22)
(1.01769 -0.0227477 1.16809e-22)
(1.01624 -0.000180862 6.399e-22)
(1.01617 -0.000206657 3.14969e-22)
(1.01672 -0.00015783 3.96817e-22)
(1.00225 -0.00880712 -3.81151e-21)
(1.00257 -0.00902292 1.84289e-21)
(-0.0268379 -0.0591678 8.60441e-21)
(-0.0256172 -0.049274 -4.61679e-20)
(-0.015422 -0.0610502 2.87633e-20)
(1.16018 -0.426351 -1.01147e-20)
(1.17105 -0.449105 3.90826e-20)
(0.687942 0.0775218 -1.47639e-19)
(0.691801 0.0624414 -5.02674e-20)
(0.6725 0.0654482 -1.47525e-21)
(0.948351 -0.0131201 9.84681e-21)
(0.946866 -0.0149781 7.6695e-21)
(0.945819 -0.0119326 -8.68807e-21)
(1.11077 0.0162305 1.9725e-20)
(1.1084 0.012944 -1.62624e-21)
(1.0143 -5.22086e-05 -5.69281e-22)
(0.803864 0.137958 0)
(0.90467 0.111305 -1.43555e-21)
(0.826595 0.113901 0)
(-0.0445223 -0.0132335 5.87962e-20)
(0.0197182 -0.0271368 -7.82979e-22)
(0.992961 0.000463382 6.81529e-21)
(0.993348 0.000267819 6.71692e-21)
(0.0727187 0.0346272 -5.8518e-20)
(0.064234 0.0304201 2.23761e-20)
(1.09009 -0.00974594 0)
(1.08979 -0.0125517 -1.85977e-20)
(1.08743 -0.0103597 -3.5145e-21)
(0.991964 -0.00109598 5.80178e-21)
(0.991592 -0.000864003 1.53454e-20)
(-0.110025 -0.00269001 -2.84049e-20)
(0.78314 0.160226 0)
(0.996722 -0.003859 4.3622e-21)
(0.996878 -0.00346887 -5.38259e-22)
(1.06267 -0.175644 0)
(1.07268 -0.176389 -1.39316e-20)
(0.296438 0.453786 0)
(0.348321 1.09549 0)
(0.973745 -0.0262678 5.24293e-21)
(0.975409 -0.0269266 -7.78926e-21)
(0.975143 -0.0251075 -3.88272e-21)
(0.830138 0.0245977 -2.37428e-20)
(0.837443 0.0203671 2.64159e-20)
(0.830301 0.0158887 -7.31281e-21)
(1.01918 -0.0213723 1.73853e-21)
(0.969179 -0.0250077 -8.20542e-21)
(0.970725 -0.0242752 2.51606e-21)
(0.969138 -0.0230617 -1.11104e-20)
(-0.0658988 0.222026 -2.2513e-20)
(-0.0966163 0.230879 -3.48717e-20)
(-0.0425305 0.213806 8.43043e-21)
(0.899367 -0.181011 -1.17548e-20)
(0.905063 -0.17112 4.56474e-21)
(0.891514 -0.171811 -2.71991e-20)
(0.997495 -0.00842857 2.02749e-21)
(0.997141 -0.00838028 -5.15285e-21)
(0.995718 -0.000444359 -4.63651e-21)
(0.996007 -0.000521104 -5.05639e-21)
(0.995771 -0.000780614 6.36085e-22)
(0.950024 -0.0110614 0)
(0.95084 -0.0140719 1.75759e-20)
(1.09859 -0.373837 -1.0574e-21)
(1.07856 -0.372264 -1.70268e-20)
(1.08976 -0.355582 0)
(0.0780104 -0.185625 0)
(0.111229 -0.202442 1.51236e-19)
(0.0823563 -0.23192 -6.38695e-21)
(0.991853 -0.00600202 6.00957e-21)
(0.992458 -0.0058031 5.19628e-21)
(1.00499 -0.00773373 3.22097e-21)
(1.0047 -0.00774135 -2.15512e-21)
(1.02841 -0.015383 4.13842e-21)
(1.02858 -0.0146556 9.15275e-21)
(1.02922 -0.0154998 -4.83704e-21)
(-0.249715 0.00742234 -1.45444e-19)
(-0.22183 9.82754e-05 -2.05618e-19)
(-0.0875444 -0.106508 6.59725e-21)
(-0.107869 -0.105349 4.82948e-20)
(-0.085124 -0.0122494 0)
(-0.0132563 -0.0163612 5.7324e-20)
(-0.0541018 -0.0155029 0)
(1.02785 -0.00457233 7.29601e-22)
(1.02743 -0.00495374 -2.37522e-21)
(1.02713 -0.00443644 -2.23216e-21)
(0.908636 -0.190142 1.22687e-20)
(0.892803 -0.192903 2.96814e-21)
(0.83136 0.0338578 -1.67243e-20)
(0.822718 0.0304427 2.08898e-20)
(0.861771 -0.712542 -3.16821e-20)
(0.813253 -0.736126 8.48587e-21)
(0.872179 -0.770321 -1.75054e-20)
(1.1475 -0.00871102 0)
(1.14868 -0.00523596 0)
(1.15251 -0.00908538 -1.43356e-21)
(1.0288 -0.0012282 -2.21975e-21)
(1.02926 -0.00167439 5.67915e-22)
(1.02847 -0.00167002 1.01369e-23)
(1.03051 -0.00321295 3.39255e-21)
(1.03013 -0.00374237 1.86363e-22)
(1.03094 -0.00379948 -2.6168e-22)
(1.02823 -0.0161999 1.38828e-21)
(1.0275 -0.0152999 -2.51927e-21)
(1.12131 -0.0631493 1.42515e-20)
(1.12482 -0.0594086 -6.36525e-23)
(0.989691 -0.0345867 -3.46982e-21)
(0.990992 -0.0357255 6.90014e-21)
(0.989266 -0.0364027 -4.33742e-21)
(0.0181806 0.00712591 -2.96687e-20)
(-0.00503715 0.0139383 -1.22908e-19)
(-0.0489525 0.0166502 -2.0681e-19)
(0.998401 -0.00207778 1.68213e-21)
(0.998259 -0.00192685 -6.82221e-21)
(0.998244 -0.00220094 0)
(1.00875 -0.0141913 1.04487e-21)
(1.00875 -0.0147653 -1.60409e-21)
(1.00933 -0.014626 -2.42615e-21)
(-0.133976 0.298773 2.38475e-20)
(-0.152233 0.291601 -5.23402e-20)
(-0.162454 0.29198 7.109e-20)
(-0.0639256 0.168315 3.30806e-20)
(-0.0677936 0.176226 0)
(-0.0195578 -0.00305475 7.7816e-20)
(-0.0279322 -0.0104345 4.80332e-21)
(1.01616 -3.8498e-05 3.57679e-22)