/*--------------------------------*- C++ -*----------------------------------*\
| =========                 |                                                 |
| \\      /  F ield         | OpenFOAM: The Open Source CFD Toolbox           |
|  \\    /   O peration     | Version:  v2012                                 |
|   \\  /    A nd           | Website:  www.openfoam.com                      |
|    \\/     M anipulation  |                                                 |
\*---------------------------------------------------------------------------*/
FoamFile
{
    version     2.0;
    format      ascii;
    class       volScalarField;
    location    "700";
    object      ddt0(omega);
}
// * * * * * * * * * * * * * * * * * * * * * * * * * * * * * * * * * * * * * //

dimensions      [0 0 -2 0 0 0 0];


internalField   nonuniform List<scalar> 
9793
(
-5.01541e-08
-1.01857
2.87124e-05
-0.0221002
2.35948e-05
0.0202757
-0.000866022
0.344419
-1.26339e-05
0.459306
2.64416e-05
2.68532e-05
-5.39849e-06
-0.0511171
7.96764e-05
-0.000443662
0.00111128
-4.05087e-05
0.0527756
5.27817e-05
2.45524e-05
1.04259e-08
-0.0464249
0.330841
-0.0810229
-9.56329e-06
1.06373e-05
-8.64881e-06
5.4859e-05
0.00197348
0.219417
0.105567
5.92376e-05
2.32417e-05
6.22136e-05
-0.000209649
-0.000274661
2.04705e-05
0.035835
3.29693e-05
0.00166681
-0.0585428
0.43979
1.36955e-05
-7.4642e-06
-1.55514e-05
0.232127
1.49769e-05
-2.08649e-05
-2.70568e-05
-0.000231294
5.13392e-05
4.99098e-05
1.62666e-05
-9.86447e-05
-0.00564382
-1.28201e-05
0.00369012
-1.8111e-05
1.37891e-08
3.42437e-06
0.000749582
1.99694e-05
-0.000694823
-1.76839e-05
-1.17995e-05
1.04433
-4.65505e-05
-0.000336072
0.23251
1.27086e-05
0.0109594
0.322005
0.312579
0.369738
2.10184e-05
0.000861573
0.235736
1.70627e-05
1.09333e-05
0.00459671
0.0482281
0.00111792
1.44011e-07
-0.000332361
-0.0285622
2.83558e-05
0.000921911
0.039737
-0.00898674
-0.011503
1.5745
5.61133
0.000432304
0.368932
-1.74551e-07
0.500044
0.000423637
-7.43762e-06
2.23905e-05
0.0140903
6.76866e-05
0.148806
-5.60536e-06
0.176401
0.371869
-0.0236792
3.71164e-05
1.05368e-05
2.09968e-05
2.31879e-05
-0.0274135
0.0303927
0.24601
5.75211e-06
5.10335e-05
-0.000238155
-3.7473e-05
0.00274553
-7.49433e-06
0.152312
0.00131011
0.760283
0.000286482
-0.000276284
-1.46891e-05
0.00130192
0.1875
-0.00732888
-0.0122188
-0.000155637
4.29147e-05
-1.4943e-06
-2.64901e-05
-0.000173849
0.0300897
0.175642
-0.000239412
9.10289e-06
0.00158957
0.0625399
-0.000176801
-3.92257e-05
0.000329939
0.221077
0.0957947
-1.11149e-05
0.478956
3.0125e-05
-1.68008e-05
3.22223e-05
-0.874189
-2.61811e-05
1.10286e-05
1.087e-05
6.4899
0.0012471
-2.63472e-06
-0.0890683
1.97234e-05
0.000929546
-0.00012903
2.25891e-05
0.0149253
-2.38429e-05
0.0880971
-0.0942131
-3.10489e-05
6.37042e-06
1.91214e-06
-1.70274e-05
0.144635
0.0131126
0.148978
-5.15866e-06
0.0147101
0.00465665
0.0508056
1.21223e-05
-5.38584e-05
0.239722
0.215572
0.000845363
-1.90998e-05
-2.20805e-05
2.22223e-05
0.655662
0.275904
0.971694
0.237026
-3.53597e-06
-1.48846
-0.0476526
4.62457e-06
8.17727e-06
-1.08809e-05
0.0121392
5.40748e-07
-3.72047e-05
-7.27936e-06
-2.72299e-07
3.09808e-05
-0.000270323
-0.00023924
0.0210058
-1.66969e-05
-2.76255e-05
-2.86232e-05
3.38794e-06
-0.498338
0.00148192
0.070738
2.97499e-05
0.125529
1.26663e-05
-0.00226208
6.15879e-05
-0.00698605
3.96847e-05
9.10021e-05
0.000670172
3.04074e-05
0.0105512
0.173108
0.000377521
-3.65681e-06
0.000837233
0.0781221
-0.00113264
-0.0010303
0.0168743
-0.00286523
-0.00211751
-0.000698732
-0.0330998
-5.58207e-06
-0.329709
0.191213
-1.40889e-05
5.1451e-06
-0.19348
6.04401e-06
2.44407e-05
0.00162715
0.00695402
-1.13623e-05
-6.25962e-05
-1.27299e-05
0.000206932
-0.000107278
1.54134e-05
0.000420408
0.0378074
2.10614e-05
0.155167
2.2557e-05
-3.79277e-05
6.20216e-05
-0.0113902
-9.00078e-06
-3.1217
0.106592
4.67026e-05
1.96045e-05
0.821003
1.47607e-05
3.45495e-05
1.92331e-07
0.0611479
0.0299358
-2.04077e-05
-0.0432812
0.003147
0.0531725
-0.10266
-1.51073e-05
2.72632
-3.89369e-05
-0.00167569
-0.10155
0.0585919
0.142829
-0.00279264
-0.000163254
0.000844324
-0.000207584
3.2371e-05
-4.33647e-05
-0.0240005
-5.81781e-06
1.45124e-05
-2.34697e-06
3.12022e-06
5.2935e-05
2.60648e-05
-0.0657575
8.38994e-06
8.1747e-05
6.76103e-05
-1.84608e-06
0.334169
-0.153188
-2.49057e-05
1.50665e-05
0.000509421
0.000100053
-2.01968
-0.815368
-8.49252e-06
0.194518
-0.000645795
6.6319e-06
-1.71893
-0.733547
6.54274e-05
0.000521569
-0.798189
1.22193e-05
-7.86678e-06
8.1515e-05
1.09073e-05
-0.215207
3.53062e-05
2.12726e-05
-1.10737e-05
2.07661e-05
0.00454845
-0.00549812
2.23732e-05
5.30601e-05
-3.28027e-06
0.185071
0.11737
-0.320729
-5.96447e-06
0.0001099
-9.96639e-06
0.176764
0.00204333
-2.11834e-05
-2.63126e-05
-2.82625e-06
0.000778513
-1.20075e-05
0.226106
5.63435e-05
1.89846e-05
0.329947
-0.0625923
0.0589983
5.70361e-05
0.0155325
-2.0567e-05
-0.00339748
0.30914
0.0149246
1.17486e-05
0.000132983
-0.0778261
-0.0105572
-0.026345
2.25007e-05
-2.20736e-05
-1.9941e-05
-2.08415e-05
7.13098e-05
-6.65928e-06
-2.00041e-05
-1.37115e-09
0.23482
2.91208e-06
0.0012023
-2.48848e-05
-0.762621
-2.11711e-05
-5.91921e-08
-0.507753
0.0237333
-0.0745891
0.0020411
-9.27813e-06
6.73387e-06
2.03487e-05
0.521205
5.31897e-06
0.0415054
0.0108829
-0.000509865
-0.102014
-0.230191
9.52818e-05
1.52438e-05
-0.0164504
-0.779626
-3.54257e-05
0.26068
0.00010968
-3.79446e-05
0.0228043
2.25708e-06
0.00141304
-6.24414e-06
-0.246493
3.24422e-05
-2.50825e-05
0.323354
-0.00104138
-0.00150098
-1.8867e-05
1.20908e-06
-1.81918e-05
0.725688
0.000587954
-2.17567e-05
1.98714e-05
2.04011e-05
-0.00029072
-0.00175382
0.19659
-2.55093e-05
3.72422e-05
0.662555
3.46508e-06
-0.0109236
-0.154413
-2.21735e-05
5.71212e-05
-3.6779e-05
0.000108258
-1.87538e-05
0.0166478
-0.000746687
-0.0183458
-1.06977e-05
-0.00012137
0.000298381
2.3077e-05
0.00306356
1.40803e-05
9.4661e-06
-5.04268e-05
0.020774
2.09755e-06
1.36289e-05
2.02355e-06
1.02777e-06
-1.42138e-06
3.36198e-05
-2.84609e-05
5.64103e-05
-1.3132e-05
-0.000197745
0.00261271
-4.17374e-05
0.0251401
-1.35602e-05
-0.0381006
-0.164225
3.05819e-05
0.37435
0.000321991
4.29052e-06
5.30296e-05
-4.93187e-05
0.238645
0.00322965
4.75021e-05
6.13243e-05
-3.9843e-05
9.13181e-05
0.00465929
0.266194
-2.04626e-05
-2.44781e-06
1.36043e-05
0.208277
0.0483586
-6.25336e-06
-5.86034e-05
0.173563
0.0776974
-0.04935
-1.40951e-05
4.09244e-05
0.023705
-3.42041e-05
0.00456064
-0.144047
9.46922e-07
0.0082644
-3.82619e-05
0.0088938
-1.70577e-05
0.0272314
0.124209
-0.00037992
-2.70461
-2.03255e-05
0.21784
1.86985e-05
3.7093e-06
4.6855e-05
-2.87962e-05
0.260924
-5.58662e-06
-9.15318e-06
1.42157e-05
-6.26604e-06
5.38833e-05
0.000658507
6.05172e-06
-0.00063118
5.15916e-05
3.70724e-05
-0.242995
0.000624162
-8.45104e-06
0.162448
-0.000166927
-8.541e-06
1.28825e-05
-9.67899e-06
-0.466502
-1.23364e-05
-2.28676e-05
0.34942
-0.12865
3.59443e-05
-4.8341e-05
1.72963e-05
-5.95579e-06
3.05554e-06
0.113636
-2.68914e-06
0.361465
-0.000227495
-0.045504
2.12851e-05
1.10673
-3.40598e-06
0.0176571
-2.82832e-05
0.000540236
0.226376
2.50724e-05
0.256829
5.20723e-05
4.16829e-06
1.91878e-05
0.406557
0.00963941
-3.30413e-05
-4.42667e-05
-1.83573e-05
0.150828
-6.74409e-05
0.000490438
0.0188769
2.11704e-05
-5.56442e-05
0.000499144
2.26162e-06
-1.63571e-05
-5.09874e-06
0.00192086
-3.83309e-05
0.209041
4.01328e-06
-1.92353e-06
-0.000751136
-0.00757168
-0.953559
8.81237e-05
1.04786
1.40013e-05
0.00268663
2.75961e-05
-3.5842e-05
-1.25468e-05
-1.27904e-05
1.57161e-05
0.0276725
-0.00205007
0.321567
0.00479823
4.1721e-05
7.91262e-05
-0.0140733
-3.49184e-05
0.0950359
0.278115
0.0281372
0.133995
-1.34484
0.00571954
-1.10623e-05
0.0289096
-0.000805055
-3.78086e-05
0.0589171
9.94273e-06
-0.0558658
0.000133953
-0.00134238
-1.72215e-06
-0.0502396
0.766385
-0.000766433
0.0317748
-3.58077e-06
0.249528
-8.68055e-06
-3.49045e-05
-2.27243e-05
-0.000128954
0.00039115
0.0194957
0.0464066
0.37742
-2.25156e-05
-4.69744e-06
0.00760643
0.00575533
-2.82093e-06
0.001747
9.6855e-06
0.0275665
0.349342
-3.74353e-05
-3.06234e-05
-0.165935
1.00845
8.13938e-07
-1.87437e-05
0.985738
-0.000305744
0.584988
-0.00043477
-0.811874
-2.65036e-05
-3.64991e-05
6.62596e-06
2.36617e-05
-0.0694345
4.24319e-06
-0.183368
0.00575328
0.00153566
2.71025e-06
-2.11753e-05
-0.000158868
1.38941e-05
6.54729e-05
-6.28282e-06
0.00456215
0.266222
-0.0828989
-1.06403e-05
-0.0220698
-5.47622e-05
0.244704
4.07966e-05
-0.00435888
0.00012436
0.104921
4.53837e-05
3.33871e-05
0.000213513
-2.12695e-05
-1.70168e-05
0.00169491
-0.00601822
3.52589e-05
-0.0303678
0.0628329
-8.98121e-05
-0.109761
0.067395
1.67455e-05
0.000886139
-0.000507927
-1.59611e-06
1.93214e-05
0.00254719
0.0667476
0.395959
4.40423e-06
-1.14979e-05
6.60725e-05
-0.000297714
8.88272e-06
-5.56368e-06
-0.0788183
-1.22296e-05
9.7762e-05
-0.432417
-0.000263921
6.70587e-05
3.52997e-06
0.729625
-0.00015511
-5.32987e-05
0.0122716
0.00217257
-1.36823e-05
-3.49738e-05
1.75184e-05
-0.00036985
5.22549e-05
-0.000698995
-0.265124
6.23081e-06
0.00197315
2.42039e-05
-6.54955e-06
-1.04119
0.0654396
-0.115521
4.22881e-05
5.33016e-06
-0.064409
2.14181e-05
-2.09459
1.89892e-05
1.96331e-05
0.21495
0.280259
3.7945e-05
0.00558165
-9.52471e-06
1.11297e-05
-3.39333e-06
-4.296e-06
0.213797
-2.83037e-05
1.26959e-09
-0.0043838
9.2225e-06
0.144814
-3.99395e-05
-1.33836e-05
0.0773858
-6.67099e-05
9.34844e-06
-3.04457e-06
0.000115623
-0.099548
-3.72991e-05
-9.71091e-06
-1.43555e-05
-2.28225e-06
-5.47317e-05
1.79101e-05
0.865738
0.000423145
-1.67996e-05
-2.09408e-05
-0.000148542
0.00141084
-0.000450149
-3.709e-06
1.05319e-05
5.69678e-05
1.04926e-05
-0.00421584
-0.252239
-0.000107065
0.391544
3.15291e-06
-4.61384e-05
2.66088
-0.0470708
3.42317e-05
-3.55194e-05
-0.00858622
0.000844653
-5.31902e-05
2.12467e-05
0.217071
7.11162e-06
0.00177655
5.41642e-05
0.0108561
2.24251e-05
-4.74738e-05
3.28586e-05
2.88588e-05
-3.48165e-06
-2.47873e-05
2.45996e-05
-0.00262938
-2.23864e-05
-5.36377e-06
6.73665e-07
-1.85368e-06
-7.76692e-06
-1.34702e-05
1.09875e-05
6.17696e-05
0.000361568
-0.115845
0.000521147
0.00186439
-3.03106e-06
-5.01149e-06
0.207
0.484184
-9.09628e-06
-0.0584589
0.225308
1.54821e-05
-2.05044e-05
3.79843e-05
0.00544495
0.000534574
-0.0456778
1.23094e-06
3.76592e-05
1.08614e-06
1.02409e-05
-4.45883e-05
0.00194235
-1.64047e-05
0.0131071
6.36755e-06
-0.00209457
2.64697e-06
-2.16297e-06
2.19869e-05
-0.00174018
-7.72039e-05
0.30988
0.232219
0.0280338
0.000667935
2.04825e-05
0.0614693
0.0177023
0.00103637
-1.02598e-06
-5.65683e-06
0.0155543
3.76147e-05
-0.0459314
-1.1214e-05
-0.000596046
-2.53195e-05
-2.30106e-05
6.96057e-05
-0.0582807
0.206398
-0.0472076
-0.000313486
0.138136
3.21742e-06
0.218063
0.407253
7.38064e-06
1.5224e-06
7.17275e-05
-1.33842
2.92851e-06
0.458733
2.84865e-06
0.00710941
-1.15329e-05
1.48615
0.390705
-0.0332472
1.69222e-05
-8.05613e-06
-5.41208e-05
-0.297398
4.52463e-05
-0.0145567
0.0871975
-0.000383149
0.334983
0.261507
-8.61479e-05
-5.37062e-06
-4.21835e-05
-0.00233003
0.391576
0.0418477
6.5598e-05
0.0185727
-0.00045036
-0.00238407
-0.00227169
-0.00631647
-0.0147618
-2.46858e-05
-1.00994e-05
-0.000352764
-0.000230146
-0.000158409
-0.273436
-2.42328e-05
0.289384
-8.37322e-05
-2.41997e-05
0.00256863
0.00654459
-1.98919
1.70886e-06
2.52095
0.948908
2.94073
1.8196e-05
-9.825e-06
2.8311e-06
-4.10063e-06
2.35178e-05
-1.21264
-1.59888
-1.74591e-05
2.63851e-05
-0.000526721
-0.00289216
7.54977e-05
-1.94631e-05
0.00768869
-2.49134e-06
-7.2026e-06
2.21424e-05
0.000480081
-1.09943e-05
-0.000265599
-0.113964
0.00122076
2.74778e-05
0.0315544
0.0111903
-1.17717e-05
-7.43364e-05
0.000104337
8.81001e-06
-5.16517e-05
4.87882e-05
0.25111
-2.39428
6.50749e-06
8.41397e-05
-3.28865e-05
0.149974
7.47656e-06
0.179674
5.27959e-05
8.0053e-05
-0.0287834
-0.103707
0.00195764
-1.88226e-05
3.0999e-05
0.261825
0.0273003
0.0223505
0.0384207
-3.24008e-05
-0.000117271
5.69171e-05
0.282208
-1.94534e-05
-1.75496
1.60204e-05
-7.18128e-06
-0.000148872
-1.04468e-05
-1.93487e-05
0.000379096
1.18282e-05
0.205385
-3.80796e-06
1.91872e-05
-2.17579e-06
-0.000259543
-0.0623962
-0.0360197
7.65065e-05
0.164665
-1.92334e-05
0.000122455
-5.92714e-05
0.339192
3.48714e-05
2.72822e-06
0.3291
7.63838e-05
8.86839e-05
3.95961e-06
-0.0140755
-0.0838311
0.0358169
-1.4633e-05
2.63655e-05
-0.0740744
-0.000743705
-2.46919
0.00554987
0.0013367
-2.16941e-06
2.48122e-05
0.00101485
0.000887677
-4.83444e-05
-0.000504202
8.18122e-05
-4.20729e-05
1.65148e-07
6.64384e-05
-1.08891e-05
1.29536e-05
-0.0430391
4.45653e-05
9.96972e-06
0.000621668
5.10855e-05
3.16346e-05
0.00017714
0.0912163
-0.000420643
0.00149722
-0.197128
-2.12945e-05
0.0932905
-9.4855e-05
-0.0266333
0.000698865
1.10592e-05
-3.89019e-05
-5.84797e-05
-0.239051
0.00686253
0.000540031
0.005772
3.9858e-05
2.97138e-05
1.9505e-05
2.75652e-06
0.260979
-6.17024e-05
1.42672e-05
0.00666619
-0.00492224
0.544962
9.70142e-06
0.253057
3.21299e-05
0.000223483
-0.000725949
-0.00892658
0.0035773
5.2023e-06
-0.0165237
0.195327
-1.95171e-05
0.0278967
0.000393432
-1.69448e-05
1.08838e-05
2.2731e-05
-1.07146e-05
7.9373e-06
-0.551498
0.000541367
5.7806e-05
-0.15144
4.59279e-05
0.269477
-0.00583297
-5.1181e-05
-0.0541165
2.2952e-05
-2.43443e-05
-9.24037e-06
-0.0236673
0.576781
0.000254367
-1.50333e-05
-3.12569e-05
-0.571692
1.997e-07
3.89426e-05
-3.19832e-05
-9.97115e-06
1.54518e-05
0.427077
-2.93717e-08
4.95312e-05
-6.22804e-05
4.28974e-06
0.0190158
0.00533918
-0.000802593
-2.63866e-05
-9.01855e-05
0.0101361
0.314787
6.16654e-05
6.74181e-05
6.21857e-05
1.82284e-05
0.733101
0.283364
-0.000948868
-2.41852e-05
3.48837e-05
0.587387
-0.225777
1.50768e-05
0.142068
-2.31358e-06
0.00302434
-0.216515
2.19747e-05
0.407415
0.149083
0.00505865
0.204649
0.46866
3.6942e-05
-9.6581e-06
0.0173118
0.019318
-2.19463e-06
0.125552
-1.49125e-05
1.65838e-05
-6.40009e-06
-5.24014e-05
0.000223654
-2.76919e-05
0.0121449
0.23193
0.00460405
1.80071e-05
-1.85408e-05
0.0033365
-0.00260332
6.06167e-05
0.000538846
0.000486523
2.53117e-05
-1.40323e-05
-7.97439e-06
-1.57688e-05
0.000115413
0.00915783
-1.40209e-05
7.21265e-06
0.0115409
0.0102742
0.00175771
2.03082e-05
0.000943618
3.35397e-05
9.15765e-06
0.309401
-0.204223
-1.65593e-05
3.40271e-05
0.201699
0.339216
0.000538522
-2.46919e-06
0.423023
3.22263e-05
2.61458e-05
-0.000181631
-1.77804e-05
3.30001e-05
-6.30112e-06
0.283379
-0.0113577
-1.00303e-05
0.00504184
0.000161651
0.0222848
0.749116
0.0445856
0.0200033
1.04965e-05
4.68998e-05
-1.87589e-05
-2.0575e-05
0.00180656
-1.41027e-05
0.001906
-1.79222e-05
-1.21944
4.42776e-05
-0.00555029
-0.000137737
0.22639
3.39431e-05
0.0591752
-0.000579743
0.0166372
0.19318
3.76638e-05
-1.06762e-05
0.735239
0.00141773
0.477994
-1.83254e-05
0.429769
5.6255e-05
0.309324
0.0103782
-0.00017992
8.39358e-06
-6.4197e-05
0.121656
0.23414
-0.000475816
-3.34589e-05
-0.833795
0.00313137
0.000530453
0.228501
0.00961484
1.96537e-05
0.53999
7.39601e-06
-0.000535062
2.01151e-05
0.0624595
2.09308e-05
-0.000131873
0.0775244
0.0372983
-2.12185e-05
0.00158627
-0.000230635
-0.0202957
3.28002e-06
0.0612907
7.01952e-06
0.000652762
-3.25447e-05
-1.95127e-05
-0.00577527
-0.000294289
0.353768
0.482035
0.389869
1.05454e-05
3.99678e-05
4.01639e-05
-5.74571e-05
1.31643e-05
-3.9533e-05
-0.118725
-2.69528e-05
-0.70105
0.000150256
-9.34818e-07
-1.01883e-05
0.00114721
-0.0255187
0.301518
2.66937e-06
0.00806751
-3.99743e-06
0.465082
0.0289148
0.000436042
-3.33879e-07
-9.41004e-06
0.000363864
6.2692
-2.06033e-05
3.48322e-06
-0.000121953
0.000508058
-8.87245e-05
0.21694
0.0381027
0.042736
6.50787e-05
-7.38291e-05
0.348845
-2.44197e-05
-8.56927e-05
6.23225e-05
-1.56647
0.000145371
7.31606e-06
-7.64947e-05
-0.012052
5.08324e-05
0.0839864
1.09763e-05
0.00745374
0.0114738
-0.236987
-0.0665843
-3.72892e-05
1.11291e-05
3.11288
-1.6843e-05
0.000139499
0.0034462
-2.57561e-05
4.38629e-05
0.268079
2.06503e-05
-0.00983443
-0.000116477
0.00152456
7.73791e-06
-0.00348413
-1.46567e-05
-2.53745e-05
0.248879
0.0625857
3.3153e-05
5.15738e-06
0.0174219
0.0573541
0.00137489
0.0995647
-0.000592675
-2.1125e-05
3.07009e-05
0.0810239
3.20311e-05
0.472883
0.00467526
-0.30724
-3.39353e-05
-4.39359e-06
2.18389e-05
0.000500994
-0.00229359
0.0275907
0.0134739
-5.22941
-0.0384262
5.84486e-05
-0.00621942
3.8555e-06
0.00029014
2.50737e-05
0.000288732
1.21303e-05
1.86285e-05
5.81854e-05
0.000934224
6.0358e-06
0.000225271
0.000169746
0.124982
0.305433
-0.00135408
0.0581008
1.89066e-06
4.81916e-05
-1.4986e-05
-0.014443
0.00135943
0.000391218
0.00376335
-0.0224465
0.000134397
0.00541607
6.20043e-05
3.00989e-05
-0.827467
1.47356e-05
0.162295
1.50373e-05
4.20339e-05
-0.150047
0.0308146
4.55589e-05
0.00225819
-0.0591238
0.249209
-0.379386
3.83699e-05
0.000353962
0.000124543
-1.90414
1.86204e-05
0.39523
-0.0242621
1.00495e-05
-0.000442968
-1.59285e-05
-0.598915
-3.54267e-05
1.16754e-05
-0.0245408
1.19818e-05
-9.83829e-06
0.00901441
-7.87335e-06
0.0239822
0.0152542
-0.00666815
-0.0353104
-2.31413e-05
4.00523e-06
6.91859e-05
-6.77283e-06
-0.0834231
2.9998e-06
0.00165189
5.88612e-06
0.334993
9.13518e-06
-2.98432e-06
6.65981e-05
-9.50594e-07
-0.000111049
3.0168e-06
4.95001e-05
-0.0742437
4.41099e-05
-0.000108122
-7.72705e-06
0.210512
1.24162e-05
-6.35391e-05
4.96638e-05
0.0012037
3.14436e-05
4.6822e-05
5.11792e-05
1.28088e-05
-0.000266368
7.45727e-05
1.10502e-05
-2.68041e-05
0.532583
0.219794
0.301112
0.0591326
2.12083e-05
-1.846e-05
-1.36791e-06
9.21054e-05
3.27066e-05
1.90947e-05
-0.0102906
1.83994e-05
7.59674e-06
-1.68487e-05
6.10315e-05
-7.64407e-06
0.285061
-0.000192058
-1.84802e-05
-0.446097
-6.62307e-05
9.79388e-05
-0.236753
0.298071
2.90194e-05
0.160957
0.0501294
2.46422e-05
-4.91289e-05
-7.58784e-06
2.38828e-05
-5.69422e-05
-6.99676e-05
-0.00152124
-1.8494e-05
-4.00692e-05
5.13433e-05
1.32525
-0.000766999
-0.000289662
-2.77297e-05
-1.27214e-07
0.461986
2.25983e-06
-4.90007e-06
-1.78392e-05
-2.77668e-05
1.77384e-05
-0.130794
-0.659175
-2.16145
-0.0241295
0.0218996
0.000113972
-2.60807e-05
0.431846
0.013209
1.3738e-06
0.00166517
4.59615e-09
4.10391e-05
-6.36153e-05
-0.349773
0.000197864
-4.91533e-05
4.33991e-05
0.0174807
5.40427e-06
-0.0787081
-6.66335e-05
-0.00547765
0.00700722
-1.59431
-1.9224e-05
-7.30044e-06
-2.11683e-05
-8.78871e-05
4.22695e-06
7.03214e-05
0.00602389
-1.69143
-5.89775e-06
-0.0414991
0.507484
1.97988e-06
0.0598345
0.0004589
-0.00309808
0.00291704
7.92427e-06
-1.75562e-05
6.94614e-05
7.21071e-05
-4.21145e-05
-1.30691e-05
-1.15096
-0.986386
0.000335606
1.78839e-05
0.0098477
0.00240256
0.046347
0.322788
1.76313e-05
-0.000350638
6.76537e-06
-3.45356e-05
8.11975e-05
0.00380805
-0.302798
1.74559e-05
-0.0107499
-9.63259e-05
0.251025
0.00823362
0.237266
3.6948e-05
4.63889e-06
-0.0126431
0.00792149
-0.000560569
-0.0454047
-8.49843e-05
0.0194003
5.59444e-05
4.70882e-05
-0.02357
-0.265131
-0.000296022
2.98265e-05
0.00250285
0.0190232
0.00223052
0.00735784
7.55092e-06
-1.36544e-05
8.89964e-05
0.0061472
0.574541
5.28087e-05
0.000128909
-0.0486548
0.00208651
0.0381238
0.0012532
-0.0959707
0.17375
8.91236e-05
-8.67112e-05
0.0213795
2.2851e-05
-0.000138327
0.0219795
-0.418925
-4.78535e-06
-2.26037e-05
-0.248169
-0.0170366
-0.00423998
0.542076
0.0474022
0.0125378
-2.03821e-05
-1.26424e-05
1.16536e-05
-1.47921e-05
-0.233848
6.07668e-05
0.0272048
-0.366026
0.00137713
-3.55987e-06
-0.370365
5.57963e-06
-0.000356268
1.08465e-05
-6.46182e-05
-0.636147
-11.2024
-1.51057e-05
-7.83562e-06
-0.00171007
-0.512346
0.0251818
-0.0763668
0.000290345
2.19083e-05
0.00204506
-4.91297e-05
0.00609598
2.55347e-06
1.74143e-05
-0.21022
-0.026408
0.172831
0.00173893
1.11616e-05
-1.06117e-05
1.97377
-8.86292e-06
4.70179e-06
6.54728e-05
-1.51923e-06
-5.1295e-06
0.0832762
0.0889735
0.0271135
0.0143681
-0.0897064
-0.000144041
8.90023e-06
-0.380624
-0.000160771
0.000419625
0.434404
2.32224e-06
0.521124
0.0948355
0.00130308
5.51358e-05
-0.13177
-1.52015e-05
-0.0624938
6.73338e-05
-0.0323495
4.63301e-05
7.65053e-06
0.000256262
0.0157109
0.00612666
0.0062116
0.101032
0.0900413
-0.0010255
0.0143491
0.00573315
-2.82408e-05
0.00398954
0.841267
3.22805e-05
0.00125273
0.245111
-0.00069567
2.07097e-05
-3.46609e-05
2.39561e-05
-9.53955e-05
0.000765049
1.60634e-05
0.248696
-0.0240117
-0.0315858
0.143077
0.0388312
0.000134022
-0.00194712
0.332263
-2.47095e-06
-1.43111
0.402114
-0.177006
3.19564e-05
1.03924e-05
-0.0312974
0.0702454
-2.05758e-05
0.0409161
7.30363e-05
-2.10121e-06
-0.017329
1.04448e-05
-0.00833638
-0.00686473
0.0177298
0.00455558
1.91158e-05
-0.000112388
4.18336e-06
1.59279e-05
-0.00789189
0.00147041
-0.000156757
0.0339836
0.00517751
4.66394e-07
-0.000179934
0.0510101
-0.000116549
-0.0511258
4.38111e-05
0.0222725
0.0259098
0.0612352
0.478581
0.237986
-0.00778055
0.0290248
0.0176214
-0.00142625
1.76891e-05
0.00642588
0.00669024
-0.0470289
0.0758353
4.74763e-05
-9.82036e-05
0.0803634
-0.0247919
-0.000245079
0.115407
1.24006e-05
-0.0203912
0.348587
0.326221
3.09101e-05
-0.0204528
0.0386269
3.02182e-05
0.000298483
0.488783
0.479144
0.306855
0.284166
2.59263e-05
5.91092
0.00981553
0.00051362
0.0142759
-0.00101762
3.82322e-05
-5.24755e-05
-0.10367
0.0587041
-3.21132e-05
-2.44698e-05
-0.020499
0.00226032
0.0203893
0.00269256
0.189549
0.0341318
-5.53067e-06
0.259595
6.95005e-06
-0.000743779
-3.13662e-05
-7.72101e-05
-8.67665e-05
-5.80057e-05
0.0522071
3.9091e-06
-15.9442
0.000141981
-0.137546
-0.0691356
-0.0056152
4.00315e-05
0.335176
0.0051861
0.00499298
7.59982e-06
3.5183e-05
0.285786
1.12867
0.0721152
-7.01099e-05
1.08643e-06
-4.84607e-05
1.05285
-0.0329261
0.000355428
2.40082
-1.74274e-06
-1.62312e-05
0.00469169
-3.60245e-05
0.101133
6.75531e-06
-0.00104561
-0.000984898
0.257563
0.0211028
-0.00539382
0.0238861
0.0104843
-0.200803
1.43991e-05
-0.382687
-4.04341e-05
-1.86943e-05
1.24544e-06
-1.23617e-05
0.076246
1.19372e-05
0.0285828
0.0210555
-0.00147113
0.0376084
0.000181234
0.0774572
-0.00204542
0.40855
0.0974262
0.0239277
0.00336787
1.02322e-05
-0.452408
-0.00424505
-0.00331118
0.00847606
0.0697431
0.000441084
-5.83142e-05
-3.6547e-05
0.000108431
-7.90868e-06
1.48857e-05
3.43244e-05
0.0333091
-0.000917543
-0.000346364
0.00174612
0.000305465
0.260949
7.10962
0.0399521
-0.5577
0.0855984
0.152015
0.0326132
0.002776
-3.92438e-05
-6.04754e-06
-0.0393364
0.0033211
-0.0112947
0.000319972
0.000110715
5.5946e-05
0.000497462
0.471474
-0.000545937
-3.58834e-05
-4.07468e-06
0.621889
3.24246e-05
6.26291e-05
0.00141673
0.0131659
-0.000767645
-0.00205577
0.011358
4.74723e-05
0.00107635
7.76883e-05
-3.07347e-05
0.00040516
0.100017
-2.13455e-05
8.00421e-05
-0.000835259
0.446984
-4.69597e-06
0.337845
-3.77864e-05
0.0399893
-7.31875e-06
4.0816e-06
-9.47289e-06
0.00811878
-0.00107917
-0.015567
-0.742834
-0.000508254
1.23502e-05
-2.02528e-05
0.645281
1.83222
3.29486e-05
0.0205483
0.0209819
0.000819116
0.00458492
4.25733e-05
-1.32622e-06
2.46369e-05
0.00577489
0.000383432
-2.78034e-05
0.37614
-2.64231e-06
0.000214426
-0.0566132
3.53176e-05
0.0167934
0.00130793
-0.132294
6.64322e-06
-8.85675e-07
-8.44902e-06
0.00101253
4.88031e-05
2.51416e-06
0.505522
-0.0111302
0.00207002
7.94364e-05
0.0454715
-2.05399e-05
1.53706e-06
-5.75695e-05
-1.1452
0.393044
-4.40637e-05
0.449423
4.60306
0.00130184
-0.0532985
-1.49192
0.111129
-0.233077
0.000367151
0.000331078
0.0186608
0.000581064
-4.13719e-05
-2.67793e-05
-0.000385416
0.337728
5.3015e-05
0.188312
-8.61662e-06
-0.0117226
0.00430617
-1.32377e-05
3.41126e-05
2.3457
-1.25089
-0.140519
-0.00163741
3.42801e-05
-1.91233e-05
0.247338
-0.000191963
0.141287
0.000535593
-0.000396159
0.0440888
-0.00175966
4.46213e-05
0.00538419
0.00913726
3.56479e-05
0.0123577
-3.22562
5.13073e-05
-4.20273e-05
-3.40682e-05
2.7809e-05
0.039991
1.64821e-05
0.000505247
-5.94112e-06
-2.99087e-05
-0.000128383
-8.72164e-06
9.24527e-06
0.00292814
1.5981e-05
-1.01543e-06
0.00504873
-2.40507e-05
-4.97377e-05
-0.270452
0.13046
-2.61982e-06
0.0273646
-0.000115684
4.93034e-06
0.00677094
-0.0990629
0.000137569
0.0174978
-0.10357
0.00135375
0.000119176
-0.000816564
0.00152407
0.000108716
0.453435
8.88231e-05
-1.90524e-05
3.57945e-05
0.0471712
-0.0842632
9.81395e-05
-0.00129041
2.81043e-05
-0.000550699
0.0011499
-0.0204344
-1.49856e-05
0.00119992
0.0243085
-0.000235471
-7.88537e-06
7.01501e-06
-0.163345
0.166333
4.3303e-05
1.90074
-0.000747751
-0.0105912
-0.0644817
-2.97372e-05
-0.059174
-0.00044065
-1.62617e-05
-0.308798
0.0329307
4.46387e-05
3.9577e-05
-0.0664226
3.41881e-05
2.19699e-05
-0.00637647
-3.73965e-06
0.00163332
0.260607
-2.71507e-05
-0.00130061
0.0298678
-5.42695e-05
0.213794
0.276468
-3.91652e-05
-0.000196315
0.038492
3.65066e-06
0.00524303
6.4253e-05
-0.138334
0.0258884
-1.27483e-05
-0.612905
0.759114
4.80007e-06
-2.00401e-05
0.0106686
-0.00132585
-0.0204444
-0.00848121
-1.4079e-05
0.000383775
0.160559
8.44356e-06
0.000273429
0.000962506
1.80987e-05
-0.330837
0.0157766
-0.000114962
-0.0545252
0.410807
-6.38248e-05
0.283189
2.98527e-05
9.42029e-07
2.79726e-06
-7.23431e-05
0.391161
-4.29045e-05
-0.00112377
21.5066
0.0825946
-7.91346e-06
2.85478e-05
0.0513872
0.0248268
1.48331e-05
0.294598
4.81147e-05
0.00288317
1.16828e-05
1.2236e-05
-4.17519e-05
-3.9628e-06
4.20012e-05
0.299303
-4.42371e-05
2.56266e-05
3.29301e-05
0.561369
-0.000117341
-0.000171788
4.34808e-06
-3.96542e-05
1.07479e-05
0.000334423
0.0321021
-0.982833
1.40869e-05
1.60056e-05
-3.98414e-05
2.68122e-05
0.00111337
0.170542
0.0756327
8.02839e-06
1.10905
3.90451e-05
-0.0824982
0.00298034
0.0601658
8.62044e-05
0.00263979
0.00200492
0.340469
0.006207
3.89853e-05
0.306712
-0.0356868
2.372e-06
-2.13747
-5.11455e-05
-8.05235e-06
0.000131204
0.266478
1.78178e-05
0.2693
-4.84729e-05
0.432866
-0.00679723
-6.92144e-05
-0.0335778
3.74544e-06
-1.1575e-05
0.0902314
-1.32623e-05
0.0219759
0.238497
-0.00131211
-8.05918e-06
-0.0278144
1.23475e-05
0.00288382
0.000399699
0.151486
-8.55898e-06
3.80907e-05
-5.87863e-06
4.94135e-05
0.000106295
0.0894396
0.398183
-6.45472e-06
0.00124258
2.89599e-05
0.264809
-0.518214
0.0119298
1.5512e-05
-6.48359e-05
-0.000116246
-0.359023
1.02621e-05
-0.000173743
-0.287138
0.00163755
-1.06152e-05
0.0454043
0.00204939
4.69018e-05
3.5113e-05
0.00546771
-0.0393856
0.00316303
0.000398934
0.0712444
0.00106119
-0.207926
-7.22388e-05
2.22633e-05
-6.09271e-06
1.24726e-06
0.00715882
0.00140372
-0.000296912
0.00180139
0.641781
1.44719e-05
-1.6772e-05
0.112021
0.149214
-0.0317531
0.00427342
-1.19024e-05
1.4473e-05
-3.28436e-05
5.64732e-05
4.45982e-05
0.000110189
1.27972e-05
-2.81977e-06
-2.87649e-05
7.35078e-06
2.4586e-06
2.93529e-05
2.55831e-05
-0.00124485
4.50746e-06
3.86687e-05
4.98856e-05
-7.71547e-06
1.27585e-05
-0.00232799
-2.20988e-05
6.55752e-06
0.0701877
6.04237e-06
9.87809e-06
2.28866e-05
-0.000209862
0.136764
-0.189169
-0.0346589
0.252474
0.408493
0.0046022
-2.0992e-05
0.00106865
1.64448e-06
0.0160695
-0.000103852
0.000109933
2.04638e-05
0.00119121
-1.71489e-05
-9.83704e-05
-1.04302e-05
-0.289086
0.00805122
5.82419e-07
0.466616
0.357093
-3.87168e-05
-0.00103899
-1.67783e-05
-3.52209e-06
0.226928
-6.61473e-07
0.00132147
0.0229964
-1.40559e-05
-1.25219e-05
0.00208158
0.0203276
1.94578e-06
-6.10617e-05
-0.00954393
2.06836e-05
0.157391
0.00101748
0.962092
1.62313e-05
0.0074428
-1.60986e-05
-8.18708e-06
-0.0369488
0.00147473
0.0644669
0.0109373
0.208809
-0.312328
0.00160226
0.00461292
9.92336e-05
-0.00255559
-2.80454e-05
3.37283e-05
-0.00105407
8.16019e-06
-8.41246e-06
1.26205e-05
3.46914e-05
-0.000188557
0.0223152
0.00500538
-0.0237689
0.0672039
-5.95889e-05
7.90026e-06
3.75558e-05
1.12902e-06
0.00212053
1.90115e-05
-3.36838e-05
2.69721e-06
-5.72585e-05
-2.71234e-06
0.0105002
0.000237958
0.00048247
-1.28001e-05
6.75337e-05
-2.207e-05
0.030985
0.225849
-2.54788e-05
7.03652e-05
-1.94296e-05
0.285402
-0.0323136
3.11819e-05
5.04578e-05
-1.76551e-05
-2.64137e-05
-0.592293
-0.0862471
0.221289
-1.05853e-05
0.409111
1.33103e-05
-0.0215592
0.00101436
6.43584e-06
3.06701e-05
-1.8473
4.89827e-06
3.80375e-05
-0.000399616
0.00265886
0.328166
-1.03389e-05
5.48204e-05
6.80051e-06
0.00927487
7.89097e-05
0.0264919
0.285017
9.61374e-06
6.11397e-05
0.169695
2.15077e-05
1.77872e-05
-0.512195
3.04236
-0.159773
0.096104
-0.000263795
-0.0220861
-4.94803e-06
0.216802
-0.36148
0.0741831
-0.000156686
-1.92668e-05
0.0174083
6.76684e-05
1.74423e-05
1.52934e-05
-0.600175
-3.38705e-05
-0.330386
-8.06631e-05
-1.28514e-05
-1.13973e-05
0.0168781
-3.99738e-05
-1.20693e-05
-3.94038e-05
0.281823
-0.0880363
0.203388
0.0478609
-0.000858804
1.26692e-05
1.46415e-05
-0.0467522
0.0255847
2.90207e-05
-8.91547e-05
-0.104538
-1.2718
1.73321e-06
-0.244138
0.216211
-0.0010318
2.32201e-05
-3.96166e-05
5.02419e-05
1.38122e-05
3.86583e-05
6.1788e-05
-1.31617e-05
-0.00230459
4.53078e-05
-0.00158926
3.72569e-06
4.25036e-06
0.104722
-0.000256829
-0.000123379
4.76799e-07
-0.00322027
1.67843e-06
-7.58792e-05
0.000107771
1.54924e-05
-2.26548
-0.000548227
2.50993e-06
1.5066e-05
-1.19099e-05
-9.66355e-05
3.99423e-05
0.0117733
1.79302e-05
-1.50121e-05
0.169385
-0.000111529
0.00260665
1.65565e-05
-7.83275e-07
0.000865519
6.96851e-05
5.86597e-05
-1.66696e-06
0.420806
-0.000158257
1.6031e-05
0.014153
2.88631e-05
-1.28311e-05
3.48143e-05
1.94964
3.17151e-05
-0.0036348
-7.69332e-05
3.25804e-05
-1.75192e-05
-2.34785e-05
-1.42602e-05
-1.61787e-05
0.022244
-5.76943e-06
2.41816e-05
3.36317e-05
0.00976888
-0.0245461
4.10033e-05
-0.000901523
-0.305921
2.61987e-05
2.00163e-06
0.344562
-1.17626e-05
-0.00266153
-0.026672
-0.00035479
2.9648e-05
5.64882e-05
6.51214e-06
-0.000201399
2.13143e-06
9.3311e-06
-6.3034e-06
-6.13161e-05
-7.351e-05
1.6266e-05
-1.63982e-05
0.00352239
1.19983e-05
-1.4537e-05
-1.10547e-05
-0.000967956
0.00509932
1.67856e-05
-6.55298e-06
0.00482426
-0.000105328
-2.02904e-05
-0.00802059
0.642701
-0.0805821
-1.11613e-05
-7.13254e-06
-0.00104894
7.47454e-06
-1.85199e-05
-0.000151665
-0.0794772
2.86003e-05
-0.000607183
-1.15867e-05
4.46222e-05
-6.43354e-06
-7.73031e-05
3.5782e-05
0.000230941
-0.000113851
-0.000233714
0.0140617
-3.44782e-05
-0.000136259
2.47175e-05
-0.167868
-1.22948
-0.318623
-2.60562e-06
0.000828323
4.78184e-05
-5.37145e-05
-1.01347e-05
-0.000124829
0.0226912
-0.0195447
1.24915e-05
-0.000280595
0.938268
-2.61804e-06
0.013035
-1.23508
0.0177303
-0.000436693
-8.6446e-06
0.000245522
-0.000111497