/*--------------------------------*- C++ -*----------------------------------*\
| =========                 |                                                 |
| \\      /  F ield         | OpenFOAM: The Open Source CFD Toolbox           |
|  \\    /   O peration     | Version:  v2012                                 |
|   \\  /    A nd           | Website:  www.openfoam.com                      |
|    \\/     M anipulation  |                                                 |
\*---------------------------------------------------------------------------*/
FoamFile
{
    version     2.0;
    format      ascii;
    class       volScalarField;
    location    "700";
    object      k;
}
// * * * * * * * * * * * * * * * * * * * * * * * * * * * * * * * * * * * * * //

dimensions      [0 2 -2 0 0 0 0];


internalField   nonuniform List<scalar> 
9793
(
0.000149204
0.0132437
0.000147546
0.0293456
0.000149706
0.000198379
0.000170835
0.0543334
0.000148736
0.00460729
0.000149247
0.00014918
0.000147288
0.0492561
0.000147114
0.000157375
0.000170531
0.000147488
0.0357607
0.000144925
0.000145871
0.00014994
0.0273483
0.05528
0.0500582
0.000154355
0.000148538
0.000149723
0.000144984
0.000173553
0.0192908
0.000219449
0.000147947
0.000147532
0.000146974
0.000158774
0.000154509
0.000152799
0.0431649
0.000159998
0.000171324
0.0380295
0.0553378
0.000149794
0.00014766
0.000148148
0.0305956
0.000149886
0.000147159
0.000147535
0.000158587
0.000146822
0.000165261
0.000149772
0.000158047
0.0315696
0.000147338
0.000183884
0.000147161
0.000149938
0.000154521
0.000168286
0.000147607
0.000165157
0.000147558
0.000148461
0.0101669
0.000153259
0.000155329
0.0528493
0.00014799
0.000168085
0.0498802
0.0866006
0.0638342
0.000149727
0.000161275
0.065203
0.000147772
0.000149786
0.000161881
0.0368703
0.000170248
0.000151966
0.000155341
0.000196172
0.000149717
0.000179837
0.0438188
0.000167905
0.0319494
0.000386825
0.000530681
0.000163971
0.0544168
0.000147327
0.0673128
0.000168698
0.000153663
0.000149771
0.0413748
0.000164
0.0852086
0.000147686
0.0646185
0.0821247
0.0695982
0.000146989
0.000147797
0.000149879
0.000149516
0.02944
0.000427321
0.0148962
0.000147887
0.000148636
0.000154487
0.000148204
0.0344547
0.000148052
0.0624017
0.000181062
0.0777075
0.000168395
0.000154548
0.00014809
0.000171793
0.0235482
0.000205508
0.000207539
0.000152956
0.000146573
0.000148968
0.000151928
0.000157553
0.000181558
0.000312772
0.000154547
0.000149808
0.000172991
0.0396508
0.000157919
0.000147754
0.000175581
0.0318034
0.000214707
0.000148095
0.06527
0.000146572
0.000148053
0.00014833
0.0462202
0.000153008
0.000148492
0.000147619
0.000295924
0.00017144
0.000147575
0.000265223
0.000147646
0.000178455
0.000153183
0.000145928
0.000183506
0.00014882
0.0383599
0.0707557
0.000149449
0.000146994
0.000149398
0.000147819
0.0124421
0.0349693
0.0560742
0.000147248
0.000196251
0.000173395
0.000199037
0.000147681
0.000153217
0.068147
0.0264388
0.000183253
0.0001481
0.000148359
0.000146949
0.0770787
0.0459264
0.0223017
0.0941815
0.000148138
0.0150525
0.00018889
0.000153293
0.000147507
0.000150968
0.000304012
0.00014512
0.000147477
0.000149299
0.000148082
0.000146087
0.00015976
0.000155203
0.037576
0.000147725
0.000157665
0.000149471
0.000149078
0.000189066
0.000172319
0.0416461
0.000145326
0.0489252
0.000151979
0.000170532
0.000147195
0.000181283
0.000148698
0.000161683
0.000169534
0.000146082
0.000244689
0.0629464
0.000163356
0.000147281
0.000172237
0.067498
0.000161839
0.000162133
0.0385813
0.000197702
0.000169427
0.000165654
0.000185579
0.000146155
0.0278254
0.0176224
0.000145136
0.000149433
0.0259328
0.000147524
0.000149501
0.000188708
0.000190591
0.000148404
0.000153295
0.000158627
0.000160301
0.000153537
0.000147722
0.000163626
0.0304342
0.000145993
0.0583038
0.000149724
0.000149053
0.000145592
0.0325613
0.000147737
0.0010016
0.0510937
0.000148568
0.000148769
0.00177101
0.000147816
0.000149561
0.000147669
0.0484053
0.000179169
0.000152907
0.000190013
0.000182134
0.0776287
0.0240192
0.000149523
0.0201172
0.00014974
0.0667881
0.000603289
0.0465485
0.061907
0.00019591
0.000153081
0.000168904
0.00015458
0.000147728
0.00014985
0.00018977
0.000154491
0.00014883
0.000149882
0.000145312
0.000146663
0.000146003
0.0280032
0.000146932
0.000146982
0.00014855
0.000147296
0.024502
0.00021717
0.000163874
0.000150204
0.000175539
0.000149573
0.0175695
0.0368957
0.000147709
0.0544911
0.000163655
0.000147637
0.00843383
0.0320301
0.000147996
0.000164049
0.000738175
0.000148535
0.000157871
0.000146996
0.000148815
0.0683125
0.000160737
0.000147587
0.000148013
0.000149977
0.00017723
0.000430782
0.000147566
0.00014695
0.000147133
0.0104305
0.0346785
0.0409468
0.000145987
0.000161337
0.000158148
0.000273185
0.000177358
0.000146251
0.000146736
0.000147129
0.000168516
0.000148273
0.0575038
0.000148461
0.000146421
0.0872702
0.0287286
0.0455875
0.000147342
0.0409202
0.000152974
0.000412345
0.0585987
0.0379116
0.000151564
0.000160778
0.000364104
0.0325545
0.0303174
0.000154102
0.000149733
0.000153269
0.000146962
0.000146824
0.000148179
0.000148411
0.000149941
0.063174
0.00014932
0.000171272
0.000159771
0.0300147
0.000146237
0.00015213
0.0229809
0.000194247
0.0534452
0.000176774
0.000146422
0.000151707
0.00014756
0.000214222
0.000144814
0.0451913
0.000174331
0.000170565
0.0364519
0.0693887
0.000148815
0.000147244
0.000500496
0.000214072
0.000147714
0.0521506
0.000148771
0.000149092
0.000503243
0.000145312
0.000183889
0.000146199
0.0689506
0.000148501
0.000148873
0.0824889
0.000167452
0.000175288
0.000153347
0.000148361
0.000146947
0.075372
0.000168088
0.000145468
0.00014923
0.000158573
0.000158144
0.000175095
0.0276585
0.000149237
0.000147517
0.00018389
0.000148409
0.0321384
0.000199085
0.000148302
0.000147977
0.000149726
0.000148662
0.000147056
0.0423088
0.000162069
0.00435607
0.000155783
0.000152444
0.00016832
0.000152529
0.035201
0.000154003
0.000149765
0.000153318
0.00020955
0.000147827
0.000147675
0.000147997
0.000144836
0.000147768
0.000147054
0.000148159
0.000148962
0.000150227
0.000154491
0.000188647
0.000149359
0.000256792
0.000153596
0.000178256
0.0228774
0.000147729
0.0921343
0.000170824
0.000147522
0.000144845
0.000147781
0.0729248
0.000182097
0.000144822
0.000148694
0.000149249
0.00016442
0.000174425
0.0715263
0.000147652
0.000147631
0.000157057
0.0269277
0.0455106
0.000151407
0.000152069
0.0605552
0.0290416
0.00021229
0.000148655
0.000146496
0.0385295
0.000147382
0.000173432
0.03578
0.000145356
0.000177505
0.000156517
0.0385549
0.000146922
0.0362286
0.000205477
0.000156738
0.00118789
0.000147343
0.000269585
0.00014851
0.000147204
0.000149441
0.000147569
0.0583286
0.000147297
0.000147003
0.000150129
0.000146033
0.000146508
0.000163703
0.000150122
0.000164542
0.000148069
0.000148099
0.0257357
0.000165347
0.000151332
0.0579786
0.000153848
0.000148692
0.000147761
0.000147061
0.0488243
0.000146985
0.000148316
0.0213277
0.0297234
0.000160558
0.000147338
0.000149885
0.000148855
0.00014957
0.0569061
0.000148671
0.11014
0.000153861
0.000273933
0.000149724
0.011511
0.000151839
0.000182219
0.000147422
0.00018685
0.0263306
0.00014857
0.0665132
0.00014745
0.000149404
0.000145754
0.0744079
0.0371068
0.000147824
0.000157349
0.000146973
0.0607894
0.000148176
0.000163964
0.0371867
0.00015311
0.000148011
0.000161226
0.000149599
0.000149037
0.000147208
0.000187421
0.000147513
0.0654579
0.000148197
0.000148345
0.000167956
0.000165985
0.001023
0.000146854
0.013364
0.000147212
0.000178654
0.00014758
0.000149331
0.000147342
0.000148181
0.000149769
0.000178994
0.000169455
0.0705585
0.000181165
0.000158418
0.000158589
0.000415983
0.000152438
0.055362
0.0431372
0.000184523
0.025304
0.0166754
0.000177456
0.000149052
0.000480915
0.000167901
0.000149008
0.000192315
0.000149642
0.000189844
0.000159645
0.000202839
0.000154879
0.0302095
0.0460486
0.000166555
0.000200627
0.000149386
0.000206617
0.000150213
0.000147432
0.000148215
0.000153102
0.000167194
0.0394193
0.0001817
0.0422792
0.000151891
0.000151124
0.0388007
0.000185058
0.000151523
0.000175008
0.000149143
0.000478479
0.0863855
0.000148259
0.000163931
0.000180614
0.0441756
0.000147521
0.000153717
0.0813989
0.00015918
0.074995
0.000187416
0.0233124
0.00015373
0.000152665
0.000147833
0.000147601
0.000217914
0.000149886
7.87346e-05
0.000185795
0.000169667
0.000149706
0.000149444
0.000153033
0.000149199
0.000146676
0.000147539
0.00017933
0.076157
0.0495967
0.00014985
0.000197913
0.000147503
0.0396245
0.00017146
0.000161345
0.000157974
0.000202127
0.00014608
0.000148267
0.00016064
0.000147392
0.00014868
0.000173595
0.0415111
0.000146086
0.000206437
0.0463323
0.000153792
0.0665158
0.0469873
0.00014719
0.000170314
0.000158151
0.000148095
0.000145658
0.000168036
0.0470578
0.0512424
0.000147892
0.000147975
0.000145923
0.000155263
0.000150152
0.0001517
0.000193198
0.000171467
0.000148917
0.0116037
0.000159822
0.000157861
0.00014851
0.00640052
0.00015279
0.000147243
0.000170102
0.000317815
0.000145633
0.000148201
0.000147586
0.000156011
0.00014605
0.000166846
0.000299096
0.000148618
0.000187467
0.000151067
0.000148307
0.00190893
0.0384635
0.000232412
0.000148368
0.000145834
0.0511245
0.000153588
0.00431331
0.0001454
0.000147477
0.0176573
0.104115
0.000159022
0.000185893
0.000163898
0.000147252
0.000149793
0.000147884
0.0483285
0.000148231
0.000149947
0.0338463
0.000154777
0.000202858
0.000157435
0.000147403
0.036998
0.000149768
0.000147519
0.000147829
0.000157017
0.0268118
0.000148993
0.000147701
0.000147379
0.000147286
0.000147447
0.000147929
0.0337108
0.00015747
0.000150024
0.000148616
0.000157474
0.000172115
0.000157368
0.000155388
0.000149883
0.000145867
0.000151176
0.0345231
0.0677682
0.00015216
0.0484573
0.000149381
0.000153297
0.000251299
0.000329244
0.000147076
0.000149129
0.000184388
0.000172292
0.000147167
0.000149626
0.0655754
0.000149768
0.000170919
0.000147945
0.000202774
0.000149618
0.000152067
0.000148739
0.000158997
0.000149004
0.00015244
0.000153855
0.000173129
0.000146899
0.00014784
0.000149634
0.000147166
0.000148949
0.00014842
0.000160005
0.000148628
0.000173532
0.0552049
0.000167287
0.000173993
0.000149284
0.000147218
0.016177
0.0861831
0.000145561
0.0643563
0.0197913
0.000145907
0.000147678
0.000147063
0.000173392
0.000174285
0.000328849
0.000146853
0.000153739
0.000146854
0.000148929
0.000151776
0.000169889
0.000148867
0.000196305
0.000148496
0.000164316
0.000147103
0.000150595
0.000147568
0.000168078
0.000163586
0.0240419
0.120364
0.0643124
0.000170753
0.000147497
0.000306985
0.000439934
0.000176991
0.000148563
0.000148436
0.000291692
0.000147018
0.0273954
0.000146338
0.000160363
0.000149159
0.000149779
0.000147114
0.0435671
0.0498983
0.0278525
0.000165081
0.0214702
0.0001476
0.0697346
0.0832561
0.000149785
0.000148257
0.000145967
0.00648443
0.000145231
0.057488
0.000157383
0.000190074
0.000148921
0.00020844
0.0272804
0.000281886
0.000156451
0.000161169
0.000148113
0.0515309
0.000145205
0.000197988
0.000200176
0.000164936
0.0777134
0.0547171
0.000152895
0.000151319
0.000147466
0.000188956
0.0564992
0.0168991
0.000146061
0.000413913
0.000156814
0.00019058
0.000169927
0.0426779
0.0436771
0.000146749
0.000153894
0.000160953
0.000153825
0.000153602
0.0710769
0.000149248
0.0781998
0.000147507
0.000146515
0.000171133
0.00018773
0.00402352
0.000150225
0.0256625
0.0255555
0.000206911
0.000154359
0.00014951
0.000150221
0.000149466
0.000147613
0.000230405
0.00313676
0.000148816
0.000147604
0.000162263
0.000274635
0.000154536
0.000147579
0.000190202
0.000147545
0.000149817
0.000145321
0.000177039
0.000148062
0.00015505
0.0225664
0.000171581
0.000152261
0.000477317
0.000170439
0.000147518
0.00015159
0.00016261
0.000149724
0.000147606
0.000146681
0.0561468
0.00252306
0.000148714
0.000163691
0.000158631
0.000207741
0.000147815
0.0663162
0.000146881
0.000146115
0.000203201
0.000206409
0.000176024
0.000148115
0.000147172
0.0322134
0.0437899
0.000191833
0.000324478
0.000148564
0.000153456
0.000147971
0.0136399
0.000152091
0.00412127
0.000149882
0.000147856
0.000152919
0.000146269
0.000146967
0.00016514
0.000146386
0.0698923
0.000147638
0.000148662
0.000145555
0.000155025
0.0521201
0.0280116
0.000174192
0.0259615
0.000147713
0.000159684
0.000152096
0.0605707
0.0001479
0.000146578
0.100248
0.000158719
0.000157567
0.000148628
0.000206433
0.0391041
0.0480176
0.000148484
0.000158142
0.000211599
0.000162266
0.000244486
0.000184946
0.000171208
0.000147024
0.000149638
0.000177175
0.000166089
0.00014776
0.000190117
0.00014602
0.000149146
0.000148843
0.000146708
0.000147512
0.000147804
0.000207316
0.000154491
0.00015086
0.000163651
0.000146236
0.000147557
0.000162171
0.0528098
0.000166308
0.00016928
0.0602883
0.000149518
0.0653176
0.000156808
0.0158506
0.000165131
0.000149283
0.000148747
0.000152183
0.0535713
0.000285273
0.000164914
0.000174492
0.000145778
0.000147534
0.000149622
0.000149277
0.0199838
0.000155158
0.0001482
0.000191723
0.000180647
0.0775991
0.000150412
0.093566
0.00016274
0.000166952
0.000162789
0.000188176
0.00018528
0.000148835
0.044981
0.00021435
0.000159476
0.0471763
0.000169705
0.000149185
0.000149735
0.000147542
0.000150587
0.000154612
0.0223874
0.000172375
0.000146955
0.000208915
0.00014786
0.0270508
0.000444841
0.000147551
0.0294659
0.000147513
0.000146889
0.000148668
0.0424882
0.0432277
0.000172207
0.000156851
0.000147151
0.000213801
0.000149497
0.000158895
0.000148477
0.000148563
0.000147966
0.0784021
0.000150034
0.000160235
0.000156615
0.000149355
0.000183512
0.000179823
0.00016439
0.000153516
0.000152712
0.0377958
0.084735
0.000148179
0.000146729
0.000148173
0.000149657
0.0391933
0.0557708
0.000191711
0.000153829
0.000146449
0.0846886
0.0451096
0.000148722
0.0418691
0.000145953
0.000175964
0.0128
0.000146143
0.0317608
0.0596753
0.00017942
0.0233476
0.0774465
0.0001471
0.000149793
0.000299981
0.039826
0.000149535
0.0311863
0.000153896
0.0001475
0.000149809
0.000151718
0.000166948
0.00015443
0.000181981
0.0233259
0.000178058
0.000158061
0.000148388
0.000166991
0.000312973
0.000146614
0.000457626
0.000165618
0.000149416
0.000152725
0.000149573
0.000148664
0.000157077
0.000312808
0.000150113
0.000146407
0.0300397
0.0445947
0.000179543
0.000149719
0.000169982
0.00014756
0.000147334
0.079023
0.0145002
0.00014727
0.000144349
0.0670097
0.0264586
0.000165958
0.000148833
0.0830206
0.000150614
0.000147336
0.000153846
0.000147346
0.000145727
0.00014525
0.077231
0.00021156
0.0001541
0.000247798
0.000170314
0.0428183
0.0812991
0.0471027
0.000195485
0.000147776
0.000149554
0.000149524
0.000147771
0.000165774
0.000147021
0.000168568
0.000158703
0.00379325
0.000148174
0.0342613
0.000158675
0.0473439
0.000147294
0.000271186
0.000160832
0.000197924
0.000202805
0.000159267
0.000145222
0.0851482
0.000172198
0.000299998
0.000145479
0.0782723
0.00014804
0.0472485
0.000211216
0.000160666
0.000147524
0.000148469
0.0547779
0.0277428
0.000162179
0.000146009
0.00119764
0.000169995
0.000169036
0.112803
0.000166281
0.000147621
0.101173
0.000147561
0.000163372
0.000146262
0.0236763
0.000146262
0.000153116
0.000211776
0.000434202
0.000149429
0.000171342
0.000154018
0.000166561
0.000147006
0.000190819
0.000151072
0.00016529
0.000147724
0.00014772
0.0355079
0.00015911
0.0507854
0.0856612
0.023617
0.000149911
0.000146351
0.000146788
0.000155097
0.000164911
0.000160838
0.0200186
0.000152066
0.000222053
0.000161186
0.000149862
0.000147797
0.000179461
0.000236027
0.0147789
0.00014752
0.0364579
0.000146877
0.0758586
0.000258413
0.000170732
0.000147845
0.000146691
0.000165756
0.000617748
0.00015284
0.000149772
0.000153427
0.000169208
0.000151349
0.000249444
0.0355517
0.000472618
0.00014895
0.000155916
0.0814918
0.000149173
0.000163542
0.000147172
0.000183025
0.000159694
0.00014761
0.000161474
0.000174297
0.000148337
0.0724083
0.000147513
0.000189846
0.000180315
0.000256875
0.000181708
0.000149024
0.000148731
0.0262837
0.000148525
0.000160856
0.000182148
0.000152041
0.000145133
0.070332
0.000152767
0.000189306
0.000152747
0.000164745
0.000149534
0.00018665
0.000153185
0.000153676
0.0825942
0.00022293
0.000148465
0.000149804
0.000174372
0.0489804
0.000291428
0.000206988
0.000160314
0.000147592
0.00014669
0.0484502
0.000148821
0.0777673
0.000173424
0.0729445
0.000148594
0.000145984
0.000146435
0.000167058
0.000171991
0.000408509
0.0457006
0.000266353
0.000204095
0.000145085
0.000342463
0.000150613
0.000178629
0.000151033
0.000165857
0.000163416
0.000147559
0.000145001
0.000178248
0.000145518
0.000162809
0.000164756
0.030997
0.0703957
0.000167558
0.0462716
0.000146816
0.000146318
0.000148355
0.000175037
0.000163996
0.000166691
0.000176403
0.00275822
0.000160381
0.000173566
0.000147211
0.000150834
0.0417963
0.000147949
0.000181521
0.000144261
0.000147152
0.055993
0.000183075
0.000147219
0.000173861
0.00019487
0.0559846
0.0686777
0.000153645
0.000180047
0.000172767
0.00427915
0.000148246
0.0764182
0.0363785
0.000151419
0.000156803
0.000145456
0.000189518
0.000147318
0.000147769
0.0436554
0.000148809
0.000145211
0.000189358
0.000177211
0.0443402
0.0439025
0.000411488
0.0310039
0.000146521
0.000147524
0.000147235
0.000149308
0.0369392
0.000148352
0.0344517
0.000150587
0.0479288
0.000152322
0.000148504
0.000145619
0.000148815
0.000156953
0.000148493
0.000145016
0.000223965
0.00014672
0.000174141
0.000149362
0.0204854
0.000152375
0.000148398
0.000148356
0.000171602
0.000147185
0.000146169
0.000148462
0.000149376
0.000154919
0.000147144
0.000151323
0.00015694
0.0986248
0.0479729
0.0419649
0.0327353
0.000146307
0.000147857
0.000147605
0.000143961
0.000147559
0.000146106
0.000209255
0.000147114
0.000149649
0.000148316
0.000148146
0.000147909
0.0572092
0.000154182
0.000147652
0.0472971
0.000169806
0.000145823
0.0480794
0.0247641
0.000147972
0.000197283
0.000206552
0.000148189
0.000161099
0.000151741
0.000144815
0.000155507
0.000150234
0.000168836
0.000147911
0.000149617
0.000146195
0.0102122
0.000159722
0.000161267
0.000148053
0.000149748
0.0519
0.000153621
0.000148086
0.000152197
0.000152851
0.000149651
0.000176844
0.0246913
0.000280607
0.0404763
0.000177041
0.000159688
0.000149709
0.0239509
0.00018385
0.000150107
0.00017375
0.00014995
0.000147423
0.00014961
0.0807691
0.000162135
0.000147831
0.000148138
0.000196534
0.000146059
0.000190575
0.000147809
0.000267472
0.000200332
0.00920178
0.000148403
0.000150734
0.000157137
0.000159215
0.000148927
0.000159962
0.000166654
0.0103368
0.000149428
0.000189741
0.0838424
0.000145299
0.0469794
0.000160896
0.000182628
0.000176437
0.000147528
0.000155989
0.000167785
0.000145641
0.000154365
0.000144742
0.023288
0.000251562
0.000157991
0.000146628
0.000183476
0.000165381
0.000336452
0.000181423
0.000151261
0.000158751
0.000147605
0.000147663
0.000167613
0.000162517
0.0403896
0.000146685
0.000188471
0.000154424
0.0673345
0.000187727
0.068139
0.000145061
0.000150304
0.000310544
0.000277837
0.000160695
0.0311482
0.000151337
0.000178993
0.00014723
0.000147124
0.0306199
0.000380445
0.000155321
0.000148501
0.000165853
0.000299078
0.000174921
0.000164744
0.000146343
0.000147938
0.000145856
0.000323302
0.0428578
0.000146661
0.000170417
0.0545224
0.000173717
0.00018737
0.0350166
0.0167793
0.0734677
0.000146834
0.00015111
0.03924
0.000147148
0.00016203
0.000254469
0.0529795
0.000151008
0.000156458
0.0232283
0.000203798
0.000283765
0.0610381
0.0450238
0.0428712
0.000148622
0.000145465
0.000147809
0.000150368
0.0181972
0.000162666
0.000185665
0.000183997
0.000163297
0.000148021
0.000233558
0.00014673
0.000160972
0.000147296
0.000160214
0.0158647
0.00074168
0.000148332
0.000145383
0.00016797
0.0440604
0.000185523
0.048639
0.000160974
0.00014825
0.00016592
0.000144272
0.000167347
0.000157149
0.000147554
0.0459746
0.000173259
0.000203536
0.000166717
0.000148865
0.000145634
0.00357187
0.000153045
0.00014541
0.00014887
0.000149679
0.000145606
0.00961787
0.0368669
0.0358113
0.000262703
0.0408152
0.000153772
0.000147569
0.0818124
0.000153795
0.000186032
0.0679985
0.000146898
0.0609869
0.0316328
0.000169559
0.000157952
0.000203661
0.000150716
0.000289843
0.000161535
0.0298705
0.000146754
0.000150267
0.00016093
0.000425762
0.000182341
0.000164884
0.0306122
0.0708333
0.000164914
0.000193434
0.000414542
0.00015295
0.000185479
0.0138258
0.000159979
0.0001641
0.0731614
0.00016276
0.000159743
0.000148568
0.000165309
0.000166991
0.000166767
0.000148459
0.0703343
0.000172758
0.0309347
0.025438
0.0346249
0.000160452
0.000266448
0.072975
0.000146763
0.00162754
0.115092
0.0307623
0.000155937
0.000152073
0.0418184
0.0241033
0.000145528
0.000178034
0.000146112
0.000147224
0.000453494
0.000153243
0.0322973
0.0451458
0.0377982
0.0496089
0.000145218
0.00016424
0.000148079
0.00014674
0.000168983
0.000173157
0.000156523
0.000372126
0.0351647
0.000149805
0.000156234
0.000245664
0.000152227
0.000188243
0.000161441
0.0408268
0.0418064
0.000227453
0.0796309
0.0185575
0.0328376
0.0428904
0.0377467
0.000162996
0.000153032
0.000171047
0.000170899
0.0533585
0.0440946
0.000148775
0.000155124
0.0419839
0.0299519
0.000154611
0.0337362
0.000147704
0.000215413
0.0773425
0.0800755
0.0001473
0.0321075
0.000260559
0.000155228
0.000159031
0.0608093
0.0578069
0.0390037
0.0499507
0.000147974
0.00732361
0.0370826
0.000160008
0.000181993
0.000168516
0.000145975
0.000156145
0.0270609
0.0504965
0.000153547
0.000149069
0.0396182
0.000166534
0.0368739
0.00017095
0.000278312
0.044228
0.000147818
0.0667446
0.000149891
0.000161448
0.000148243
0.000148128
0.000145745
0.000161688
0.000181573
0.000144386
0.0099308
0.00018192
0.0108492
0.0530903
0.0319738
0.000147198
0.0753209
0.000265695
0.034179
0.00015905
0.000147559
0.00174107
0.000205159
0.0496358
0.000162674
0.000151113
0.000145629
0.00293639
0.0180526
0.000158503
0.00897145
0.000156754
0.000148609
0.0413385
0.000162427
0.028272
0.000147838
0.000161122
0.0342076
0.0385497
0.0404788
0.000205751
0.0414556
0.0365129
0.0072211
0.00014818
0.0213133
0.000162633
0.000146966
0.000145127
0.00014767
0.0200687
0.000161709
0.0424715
0.0396813
0.000166621
0.000172194
0.000184212
0.0323428
0.000178989
0.0597997
0.0334385
0.000252312
0.000167606
0.000145981
0.000504528
0.000163215
0.000196468
0.0408398
0.0524391
0.000275566
0.000148511
0.000152898
0.000161746
0.000148251
0.000148053
0.000156816
0.043704
0.000160182
0.000156125
0.0384877
0.000182113
0.000213085
0.00195009
0.045776
0.000206484
0.0493278
0.0326026
0.0341673
0.000164158
0.000160838
0.00014844
0.000251692
0.000176161
0.000200277
0.000163877
0.000163468
0.000144004
0.000193753
0.069332
0.000157642
0.000144986
0.000151546
0.00246037
0.000147
0.000148034
0.000168876
0.0380944
0.000159767
0.000162909
0.000175307
0.000156562
0.000176201
0.000147258
0.000147752
0.000163769
0.000202242
0.000148783
0.000159215
0.000179295
0.0630353
0.000148492
0.0806571
0.000147851
0.0451662
0.000150795
0.000150976
0.000144807
0.000187644
0.000164895
0.0144464
0.0563775
0.000164337
0.000148992
0.000148292
0.0728956
0.00156662
0.000147699
0.000185795
0.0391343
0.000167834
0.000165491
0.000143963
0.000149859
0.000147514
0.0424037
0.000165537
0.00014819
0.0618636
0.000149091
0.000163176
0.000207283
0.000145988
0.00016813
0.000169302
0.0563473
0.000149249
0.000153938
0.000150995
0.000167906
0.000143733
0.000147299
0.0715518
0.000206122
0.000173501
0.000149056
0.0462113
0.000149112
0.000149112
0.000147521
0.000213378
0.0619241
0.000152228
0.0833988
0.000496509
0.000168946
0.0286511
0.00449616
0.0390503
0.0160858
0.000174203
0.000178469
0.000193482
0.000166568
0.000147473
0.00015627
0.000160194
0.0635632
0.000148396
0.0567346
0.000147742
0.000189237
0.000173717
0.000150276
0.00015771
0.00893217
0.0217953
0.0206395
0.0346359
0.000146541
0.000180361
0.043281
0.000155996
0.0460179
0.000160019
0.000168394
0.0446712
0.000165296
0.000147785
0.000179703
0.000183484
0.000147594
0.0384373
0.000211515
0.000145833
0.000149559
0.0001487
0.000147902
0.0486162
0.000148502
0.000166542
0.00014801
0.000149735
0.000157216
0.000147556
0.0431057
0.000176132
0.000148518
0.000145468
0.00018201
0.000151746
0.000162595
0.0129235
0.0336432
0.000165403
0.000178169
0.000160034
0.000145128
0.000187875
0.0669759
0.000160985
0.0397971
0.0418582
0.000165309
0.000161981
0.000159574
0.000171525
0.000159796
0.0605823
0.00014864
0.000148617
0.000147695
0.0501024
0.0320677
0.000159254
0.000191533
0.000147722
0.000157662
0.000189598
0.000204896
0.000147591
0.0001667
0.0441993
0.000166722
0.000147818
0.000147698
0.0455872
0.0240677
0.000147558
0.000225624
0.000161488
0.000196752
0.000225028
0.000146928
0.0261404
0.000159742
0.000148
0.0754413
0.000196001
0.000147493
0.000148995
0.000205503
0.000146638
0.000148134
0.000204414
0.000160276
0.000161091
0.0275622
0.000154458
0.000169823
0.044065
0.000147423
0.0642561
0.0477791
0.000154318
0.000177204
0.000196575
0.00014798
0.000191772
0.000144175
0.0684033
0.000259092
0.000147868
0.0188366
0.0797259
0.000147769
0.000147779
0.000199112
0.000167451
0.0328994
0.0336333
0.000148514
0.000165333
0.0296005
0.000150538
0.000171825
0.000180052
0.00015851
0.0817455
0.000201171
0.000152427
0.000198443
0.00748536
0.000160818
0.124094
0.000147223
0.000144761
0.000149763
0.000160244
0.0796066
0.000148293
0.000163962
0.0138087
0.0332342
0.000149399
0.000157828
0.000285673
0.0460588
0.000149451
0.0692798
0.000162309
0.000173381
0.0001634
0.000150721
0.000155288
0.00014789
0.000147667
0.0655418
0.000147352
0.000162093
0.000147773
0.0637639
0.000152413
0.000153801
0.000145115
0.000152511
0.000147744
0.000165683
0.0194747
0.000963068
0.000162235
0.000160265
0.000147593
0.000157036
0.000170519
0.077081
0.0386972
0.000146653
0.00024543
0.000148026
0.00033554
0.0393875
0.0266781
0.000146646
0.000170465
0.000178327
0.0581783
0.000177798
0.00014709
0.0893558
0.000182173
0.000159058
0.00660676
0.000149049
0.000148096
0.000159965
0.0761842
0.000147669
0.0511485
0.000157969
0.000688022
0.000166698
0.000153177
0.0697383
0.000156245
0.000148372
0.000208266
0.000147798
0.000335044
0.0690824
0.000195751
0.000154874
0.000171988
0.000147735
0.000176173
0.000165607
0.0545085
0.000148156
0.000146004
0.000155116
0.000157724
0.000169087
0.0576469
0.108317
0.000158498
0.000176701
0.000146723
0.124188
0.013842
0.000179639
0.000147622
0.000149711
0.000152101
0.0784771
0.000148314
0.000156244
0.0711326
0.000182073
0.000148007
0.000178938
0.000180198
0.000147805
0.000153651
0.000179383
0.000274675
0.000168495
0.000164286
0.0485635
0.0442297
0.00027228
0.000154858
0.000148494
0.000152785
0.000152484
0.000182881
0.000171968
0.000157819
0.000180039
0.0659905
0.00015184
0.000147847
0.0312289
0.000181784
0.0322013
0.00019938
0.000154035
0.000151388
0.000151365
0.000146595
0.000147415
0.00016897
0.000145138
0.000150234
0.000149128
0.00015038
0.000151348
0.000147599
0.000159482
0.000166225
0.000148652
0.000147569
0.000148683
0.000149905
0.000149094
0.000178581
0.000148251
0.000150975
0.000252036
0.000146605
0.00015085
0.000148873
0.000157256
0.0305706
0.0627115
0.0312683
0.0732329
0.0993106
0.000199819
0.000147083
0.000169502
0.000148012
0.000329395
0.000151877
0.000156422
0.000148672
0.000171863
0.000147613
0.000160419
0.000146405
0.0713915
0.00018669
0.00014839
0.0611689
0.0937971
0.000148947
0.000186858
0.000147592
0.000145327
0.0106116
0.000148769
0.00017139
0.000190803
0.000148585
0.000145062
0.000173471
0.0385779
0.000152827
0.000151982
0.0341723
0.000147529
0.0325589
0.000170326
0.0148267
0.000145669
0.0368753
0.000147631
0.00014853
0.000203465
0.000173444
0.0378658
0.0375684
0.0182616
0.0774463
0.000208481
0.000179654
0.000148155
0.000198827
0.000148537
0.000146604
0.000167116
0.000147317
0.000147777
0.000145338
0.000145155
0.000175616
0.064515
0.0364708
0.000200702
0.0505132
0.000152145
0.00015641
0.000150842
0.000149964
0.000178684
0.000148108
0.000147303
0.000146637
0.000152353
0.000150588
0.000175112
0.000184264
0.000166991
0.000148609
0.000162519
0.000162739
0.0377836
0.0308209
0.000153648
0.00016652
0.000148467
0.0518829
0.0428557
0.000147494
0.000147366
0.000152953
0.000149364
0.000206083
0.000209436
0.0402115
0.000148474
0.117764
0.000148317
0.0312734
0.000170053
0.000146515
0.000156642
0.00913825
0.000154459
0.000156671
0.000160268
0.000175851
0.0790963
0.000147498
0.000147241
0.00015549
0.000190888
0.000147237
0.0356857
0.115188
0.000147889
0.000143891
0.0136226
0.000178793
0.000147632
0.00283205
0.0109377
0.0693185
0.1004
0.000158108
0.000284442
0.000148338
0.0362973
0.0832894
0.000208352
0.000178765
0.000152095
0.0308672
0.000153307
0.000146958
0.000143995
0.000381862
0.000145436
0.00979014
0.000150669
0.000148489
0.000152937
0.0394411
0.000152154
0.000150176
0.000148351
0.0720784
0.0242976
0.0482415
0.0468409
0.00016938
0.000147686
0.000151878
0.000216344
0.000168944
0.000147802
0.000172651
0.000134034
0.0212342
0.000148039
0.0260422
0.0350562
0.00016707
0.000148274
0.000152168
0.00014762
0.000146901
0.000147579
0.000148077
0.000149374
0.000167471
0.000148513
0.000193406
0.000149609
0.000149856
0.0243958
0.000180218
0.000152738
0.000150106
0.0335179
0.000145284
0.000156129
0.000154536
0.000146546
0.00190189
0.000161422
0.000150001
0.00016062
0.000147854
0.000156948
0.000147917
0.000192325
0.000146653
0.00014755
0.0625189
0.000152729
0.000198779
0.000162099
0.000151417
0.000183313
0.00014374
0.00014846
0.000149725
0.0570965
0.000152877
0.000147592
0.000290572
0.00014792
0.000145391
0.000147019
0.000251112
0.000157344
0.000195556
0.00015765
0.000156608
0.000161669
0.000152123
0.000155468
0.000161327
0.0338255
0.000148762
0.000156527
0.00014703
0.000180489
0.000199082
0.000147153
0.00016006
0.0775784
0.000156168
0.000145062
0.0629505
0.000154284
0.00016669
0.0292521
0.000158739
0.000147472
0.000157853
0.000147584
0.000154199
0.000147183
0.000151037
0.000154356
0.00014761
0.00014831
0.000157012
0.00014851
0.000178343
0.000147784
0.00015137
0.000147715
0.000160718
0.0361745
0.000148303
0.000148231
0.000167369
0.00015188
0.000147777
0.000204043
0.0672974
0.0268229
0.000148305
0.000152893
0.000164789
0.000149596
0.000148724
0.00016289
0.000175359
0.000144637
0.00016257
0.000147967
0.000147132
0.000147057
0.000144647
0.000150885
0.000165908
0.000162886
0.000156919
0.0384629
0.000152845
0.000155952
0.000146602
0.0588503
0.0216048
0.0740293
0.000148202
0.000168781
0.0001569
0.000148033
0.000148688