/*--------------------------------*- C++ -*----------------------------------*\
| =========                 |                                                 |
| \\      /  F ield         | OpenFOAM: The Open Source CFD Toolbox           |
|  \\    /   O peration     | Version:  v2012                                 |
|   \\  /    A nd           | Website:  www.openfoam.com                      |
|    \\/     M anipulation  |                                                 |
\*---------------------------------------------------------------------------*/
FoamFile
{
    version     2.0;
    format      ascii;
    class       volScalarField;
    location    "550";
    object      ddt0(k);
}
// * * * * * * * * * * * * * * * * * * * * * * * * * * * * * * * * * * * * * //

dimensions      [0 2 -3 0 0 0 0];


internalField   nonuniform List<scalar> 
9793
(
2.02319e-08
-0.00158181
2.09285e-07
0.000437467
1.46162e-07
1.86203e-06
3.77683e-08
0.00309417
-2.2548e-08
0.000318786
1.64257e-07
1.66771e-07
-1.59402e-08
0.00183922
4.82193e-07
-6.58037e-08
4.2799e-07
-2.36666e-07
-0.000455744
3.40077e-07
1.47142e-07
1.98706e-10
0.000525832
0.00311689
0.00165093
-1.97836e-09
6.51001e-08
-5.39171e-08
3.48239e-07
2.95539e-07
0.000578468
2.56478e-06
3.6804e-07
1.54418e-07
3.93407e-07
1.76376e-07
-2.42641e-07
1.16521e-07
-0.000478366
1.91059e-07
1.35486e-07
-0.00147571
0.00434581
8.37469e-08
-3.78432e-08
-8.4925e-08
0.00180168
9.10642e-08
-8.6679e-08
-1.58121e-07
1.88671e-07
3.26495e-07
3.46738e-07
9.86668e-08
1.40125e-08
0.00047798
-6.5538e-08
1.39473e-06
-6.73109e-08
2.56348e-10
5.36633e-08
2.27432e-07
1.40106e-07
-2.68948e-08
-1.00706e-07
-4.31841e-08
0.000849772
2.43708e-07
-2.77469e-07
0.00172357
8.92845e-08
2.65126e-07
0.00288119
-0.054132
0.00155309
1.30392e-07
-1.7784e-07
0.00234903
1.05672e-07
8.34178e-08
-2.66276e-07
-0.000201215
5.24924e-07
9.91408e-08
-2.72256e-07
6.35946e-06
1.89119e-07
1.84833e-06
-0.000423119
3.47722e-07
0.000673022
-0.000636295
0.000564571
1.57882e-07
0.00406884
2.00641e-08
0.00226288
1.57695e-07
2.16089e-07
1.38386e-07
0.000954608
3.74521e-07
0.0129477
-2.65503e-08
-0.00110778
0.00457776
-0.0641774
2.3881e-07
6.47059e-08
1.30845e-07
1.42666e-07
0.000584201
2.22046e-06
0.000181422
6.14081e-08
3.26293e-07
-1.28835e-07
-2.23347e-07
0.000465166
-3.81598e-08
-0.00202936
1.85947e-06
0.000890912
5.40699e-07
-2.48439e-07
-7.61229e-08
2.55653e-07
0.000735826
5.85122e-06
7.70699e-06
-1.6636e-07
2.89472e-07
-3.63828e-09
2.36472e-07
1.26771e-07
1.32264e-06
-0.0001081
-1.33296e-07
5.69152e-08
5.54342e-07
0.000535582
1.94217e-07
-2.42325e-07
1.29325e-06
0.00197196
-7.93884e-06
-5.44134e-08
0.00244995
2.07067e-07
-9.06572e-08
1.99742e-07
-5.09878e-05
1.19487e-07
6.59808e-08
8.53295e-08
-0.00221013
4.31142e-07
-3.68559e-09
4.15576e-05
1.45173e-07
1.65786e-06
2.09257e-08
1.44924e-07
5.42415e-06
-1.31711e-08
2.53921e-05
0.0125775
1.81837e-09
5.02244e-08
1.55936e-08
-9.73323e-08
0.000172172
0.00752522
0.000768553
-1.32523e-08
2.03139e-06
3.40094e-07
-2.13042e-06
8.07113e-08
2.12623e-07
-0.000766909
0.00171986
1.85221e-06
-1.07399e-07
-1.17879e-07
1.48785e-07
-0.00185608
0.00252375
-0.0111142
0.010296
-7.63597e-09
0.000795946
-9.23106e-06
4.64309e-08
1.10558e-07
1.29733e-08
-1.19427e-06
3.37689e-09
-2.15482e-07
-3.68342e-08
9.58899e-09
1.86054e-07
2.11196e-07
-3.73759e-08
-0.000599705
-1.03563e-07
2.144e-07
1.78553e-08
5.05476e-08
9.96118e-07
6.02349e-07
0.000937048
1.92741e-07
0.00121974
1.18021e-07
-9.56098e-07
3.71829e-07
6.7036e-07
2.55748e-07
1.0217e-07
1.97899e-07
1.77303e-07
-4.17725e-06
0.00218832
1.33552e-07
9.17712e-09
8.36342e-07
0.00609604
-4.47317e-08
9.68823e-08
0.000131447
1.47705e-06
-1.0544e-06
4.08713e-09
-2.2036e-07
-2.19895e-08
0.000448232
0.000293757
-7.72901e-08
3.78553e-08
-0.00360567
6.87281e-08
1.49983e-07
1.57845e-06
1.67644e-06
-2.75604e-08
2.04243e-07
2.42841e-07
1.43748e-07
9.03498e-08
9.71144e-08
1.04806e-07
-0.000179352
1.15801e-07
0.00137624
1.37466e-07
-2.32639e-07
4.05615e-07
0.000446245
-5.10159e-08
-0.00392436
0.000152423
2.89173e-07
1.30012e-07
0.000173074
1.15555e-07
2.23705e-07
2.84261e-08
-5.27673e-05
-3.69706e-06
-9.65838e-08
-8.02477e-06
1.2649e-06
0.0130499
0.000366157
1.01678e-07
-0.00176806
-2.37172e-07
0.00641768
-6.84111e-05
0.000151259
-0.00170001
1.73768e-06
-1.85486e-07
5.21324e-07
-3.34247e-08
2.6064e-07
-1.52345e-08
-1.11347e-05
-4.50924e-09
9.91421e-08
-1.3953e-08
2.93522e-08
3.46706e-07
1.5032e-07
0.000418512
6.58236e-08
4.98773e-07
4.34908e-07
1.10085e-08
-0.00107466
0.000114462
-3.20096e-08
1.14147e-07
1.28099e-06
6.36213e-07
-0.0384955
-0.000706703
-4.48534e-08
0.000767193
-5.43875e-08
5.48448e-08
-0.00119341
-0.0678854
4.12649e-07
2.06296e-07
4.95052e-05
9.55337e-08
-5.55139e-08
4.96111e-07
8.6311e-08
0.00411356
-2.19633e-07
1.39472e-07
-6.33543e-08
1.21709e-07
8.76734e-07
4.73215e-06
1.48946e-07
3.38688e-07
4.29443e-09
9.36609e-05
0.000591858
0.000631755
-2.9705e-08
1.77836e-07
-7.1629e-08
1.69953e-05
9.87336e-07
-1.02688e-07
-1.39195e-07
5.48132e-09
4.67503e-07
-6.42071e-08
0.00294796
3.48905e-07
1.3378e-07
0.00115076
0.000403033
0.00055579
3.69959e-07
0.000830389
-1.54425e-08
9.2211e-06
0.00344513
0.000129757
1.99584e-07
2.22621e-07
-8.52974e-05
0.000714977
0.000622064
5.95234e-08
-1.36098e-07
-6.87634e-08
-7.67347e-08
4.55858e-07
-3.62797e-08
-1.19883e-07
4.71414e-13
0.00324959
2.2134e-08
1.86203e-07
2.54418e-07
-0.016655
-1.03692e-07
1.03197e-07
0.000529605
3.43687e-06
0.00220219
9.9545e-07
-4.10415e-08
1.92105e-07
1.5307e-07
-1.71386e-05
4.75469e-08
0.000279577
1.03628e-06
-1.44521e-07
0.000863408
0.00471923
5.60644e-07
1.26443e-07
-1.64014e-05
1.67191e-05
-2.17357e-07
0.00285526
6.56995e-07
-2.27378e-07
-3.47329e-05
3.10724e-08
1.38883e-06
-2.05048e-08
0.0106792
2.01547e-07
-1.75642e-08
-0.00149668
-2.13772e-08
1.04867e-06
3.03113e-08
1.6506e-08
-8.44829e-08
0.00250279
1.89391e-07
-1.29833e-07
1.35059e-07
2.5614e-08
-1.00021e-07
6.87321e-07
0.0018241
-1.47135e-07
2.44524e-07
-2.80244e-05
9.81517e-09
-0.00016992
-4.14687e-06
-1.18685e-07
3.48672e-07
1.12692e-08
6.48057e-07
-8.86195e-08
0.000952948
3.49148e-07
0.00061039
-2.24452e-08
2.45133e-08
5.26136e-07
1.09977e-07
0.000550646
1.02287e-07
5.86888e-08
2.39658e-07
4.56434e-05
2.03023e-08
9.97998e-08
2.37218e-08
2.14433e-08
-1.56866e-09
1.96519e-07
-1.69087e-07
3.26931e-07
-1.03061e-08
-2.51452e-08
1.62339e-06
-2.35155e-07
5.11393e-06
-3.91746e-08
-1.26488e-06
0.000580711
2.60975e-07
-0.00158699
3.41118e-07
9.03741e-08
3.39301e-07
-3.01246e-07
-0.00310468
1.23604e-06
3.03487e-07
3.773e-07
-2.39148e-07
7.17509e-08
7.21423e-07
0.00320648
-1.17461e-07
1.15291e-09
1.97187e-08
0.00167135
0.0002095
-3.28599e-08
2.92996e-07
0.00155018
-0.000356403
2.26723e-06
-9.32332e-08
2.70512e-07
-0.000660921
-1.80738e-07
6.11279e-07
-0.0202986
1.28996e-08
-1.94685e-06
2.04542e-07
0.000869772
-7.77175e-08
-0.000763566
2.12739e-05
3.41533e-08
0.00125508
-9.84797e-08
1.69094e-05
1.16226e-07
5.53147e-08
2.91383e-07
-1.73079e-07
0.000944475
-8.86991e-09
-1.16411e-08
1.04694e-07
-3.83491e-08
3.53694e-07
5.02891e-08
1.16402e-07
-2.13376e-08
3.19336e-07
2.30994e-07
0.000228087
-8.27342e-08
-2.48296e-08
0.00086574
-2.65039e-08
-1.1775e-09
8.39343e-08
-2.74469e-08
0.000406378
-3.10035e-08
-1.32275e-07
0.000974664
-0.00148181
-6.33782e-09
-2.81637e-07
1.12468e-07
5.72694e-08
2.24163e-08
0.00192558
7.80819e-09
-7.7838e-05
-2.44607e-07
-6.82491e-06
1.48771e-07
0.000733098
-4.5617e-08
8.11646e-07
-1.53234e-07
3.11026e-06
-6.81971e-05
1.55501e-07
-0.00370386
3.71595e-07
2.86726e-08
1.08434e-07
-0.000319282
-0.000381762
-2.09408e-07
2.5326e-07
-6.40305e-08
0.00203555
-3.90638e-07
5.06387e-08
-0.000688375
1.05302e-07
-3.33118e-07
-4.22369e-08
1.57461e-08
2.16714e-08
-8.38407e-09
1.62936e-06
-2.34567e-07
0.00132339
2.74464e-08
6.82469e-10
2.08135e-07
1.59688e-07
-0.000986661
5.26049e-07
0.000945918
1.15005e-07
-3.4778e-08
1.981e-07
-3.34683e-08
-4.6559e-08
-7.38386e-08
1.03637e-07
-3.48738e-06
-7.19803e-07
-0.00189063
1.17435e-06
3.80572e-08
4.25099e-08
0.000362232
2.33342e-07
0.00192386
0.00176856
2.0935e-06
0.00729983
-0.0134581
9.32377e-07
6.4434e-08
-2.22453e-06
6.13381e-09
-9.35841e-08
-1.87324e-06
6.1164e-08
-8.08004e-06
5.37546e-08
3.20263e-06
-4.10842e-09
0.00033236
0.0032518
4.38864e-08
2.83113e-06
-1.21861e-08
-2.80051e-05
-3.50547e-08
-1.96316e-07
-1.29314e-07
-3.15458e-08
2.17226e-07
1.12389e-05
-1.27201e-06
0.00263397
2.50798e-07
1.5235e-08
0.000949432
4.19023e-07
4.98189e-07
9.15778e-07
8.22503e-08
-1.18497e-05
-0.00220264
-2.22756e-07
-1.17697e-08
2.00625e-05
0.00237494
1.52369e-08
-7.71465e-08
0.00393159
1.56535e-07
-0.0031393
2.85151e-06
-0.0209373
-5.66265e-10
2.10585e-07
4.97504e-08
1.60763e-07
2.51932e-05
2.75566e-08
0.000109533
6.51998e-07
-1.5054e-07
1.74483e-08
-1.31218e-07
-7.68683e-08
1.86783e-07
4.15338e-07
-1.37342e-08
5.70483e-07
-0.00384167
0.00141949
-6.55602e-08
2.14305e-06
-3.32448e-07
0.00112875
8.71861e-07
5.7015e-07
-5.70894e-08
-1.57619e-05
2.98608e-07
2.06583e-07
2.88554e-08
-1.03035e-07
-1.42095e-08
7.08675e-07
0.00123676
2.0688e-07
2.13303e-05
-0.000419877
1.73185e-07
0.00464908
-0.00073537
8.8307e-08
2.74826e-07
-6.31582e-08
2.28577e-09
1.16603e-07
-4.07495e-08
-0.000174762
0.00336792
3.81761e-08
-6.58708e-08
4.0853e-07
-1.92803e-07
1.15678e-07
1.07982e-07
1.94562e-06
8.59768e-07
5.7529e-07
-0.00121822
1.98088e-07
5.80032e-08
9.8963e-08
5.33342e-05
-1.62787e-07
-3.2473e-07
6.21797e-07
7.54092e-07
-7.68081e-08
-2.02428e-07
1.31609e-07
-2.41887e-07
3.38111e-07
1.05791e-07
-5.73468e-05
8.19107e-08
1.68062e-06
5.75825e-07
1.61641e-08
-0.00205056
0.000610469
2.08868e-06
2.61647e-07
3.84605e-08
-0.0274709
1.04499e-07
-0.00643818
1.26602e-07
1.71668e-07
0.000293719
0.00598113
1.34278e-07
1.47632e-06
-1.5134e-08
1.07515e-07
-2.03162e-08
-1.71996e-08
0.00264988
-1.64596e-07
1.64245e-11
0.000773104
1.38369e-08
2.53137e-05
-1.04008e-07
-6.98819e-08
0.000293135
-4.04264e-07
7.8916e-08
-1.59441e-08
8.18897e-08
0.000424028
-2.25615e-07
-5.49247e-08
-5.53495e-08
1.16386e-08
-3.32195e-07
1.35368e-07
0.00671435
1.01113e-07
-2.50404e-08
-1.22859e-07
3.31496e-08
3.0332e-07
-7.59039e-08
-1.5244e-09
6.4845e-08
3.5025e-07
2.24494e-07
-0.000294602
0.0015214
1.24108e-08
0.00324788
3.22643e-08
-1.40826e-08
0.00168449
-1.12537e-05
2.02026e-07
-2.18109e-07
-6.8763e-07
8.60941e-07
-3.23842e-07
1.48844e-07
0.000732386
4.4226e-08
4.52928e-08
3.33158e-07
3.51506e-07
1.48276e-07
-2.86884e-07
2.05074e-07
2.88676e-08
5.31551e-08
-1.00161e-07
6.96819e-08
-2.09542e-07
-1.24086e-07
-2.875e-08
5.08911e-09
2.08237e-08
8.29565e-08
2.37656e-08
1.68834e-07
3.80705e-07
1.02625e-06
0.00206303
4.09276e-07
7.00582e-07
-9.12044e-09
-8.39926e-09
0.00024679
-0.0307749
-6.00882e-08
0.00441415
0.000600047
1.01273e-07
-1.20998e-07
2.61991e-07
3.634e-07
1.17901e-06
-3.81269e-06
2.34723e-08
3.60021e-07
1.90051e-08
8.06906e-08
-2.61879e-07
1.06866e-07
2.58386e-08
3.01591e-06
3.91568e-08
1.23904e-08
2.47193e-08
1.60398e-08
1.56325e-07
-8.26464e-07
2.51701e-08
0.000989785
0.0006659
0.00465012
7.1478e-07
1.81115e-07
-6.82075e-05
2.79099e-06
1.48886e-06
8.5826e-08
-3.96624e-08
4.46419e-06
2.60744e-07
0.000412472
-3.77592e-08
-2.34381e-07
-4.1991e-09
-1.39652e-07
4.23247e-07
-0.00532481
0.00269849
0.000476511
-3.98696e-08
0.000520202
3.08091e-08
-0.00310192
0.00492024
4.58513e-08
2.59479e-08
4.57483e-07
-0.00810746
2.16707e-08
0.00389957
3.0764e-08
1.48081e-06
-2.80911e-08
-0.000611143
0.0012242
-1.91633e-06
1.40856e-07
2.57038e-07
-3.2434e-07
0.00468651
2.99579e-07
-9.49105e-07
-2.27057e-06
4.29655e-07
0.00312833
0.00174794
1.02528e-07
1.3572e-07
-2.58638e-07
3.39662e-06
0.00340302
0.00032644
4.21639e-07
1.6188e-06
-2.78401e-07
1.49068e-06
-1.53475e-07
0.00131749
0.00135532
-1.36728e-07
-3.57939e-08
1.4723e-07
-2.50862e-07
3.19815e-08
0.00136737
-1.42964e-07
0.00298931
-4.85575e-07
-1.10352e-07
6.88292e-07
1.68155e-06
-0.00510356
2.2879e-07
0.0224839
0.0152725
-0.000536298
3.55942e-08
-5.93988e-08
2.28883e-07
-2.39365e-08
1.66513e-07
-8.57138e-05
-0.00468103
-4.43182e-08
1.90913e-07
3.08734e-08
4.74691e-06
3.20738e-07
-1.10168e-07
4.22982e-07
1.7246e-09
-4.26657e-08
1.54963e-07
1.4653e-06
-6.20895e-08
-1.18086e-07
0.000470477
1.83766e-07
1.4146e-07
3.0896e-06
4.92574e-07
-6.17124e-08
9.17478e-08
3.29688e-07
5.53867e-08
-3.16278e-07
2.80864e-07
0.00545698
-0.00770104
7.34813e-08
3.62337e-07
-1.10286e-07
1.24667e-05
7.07097e-08
-0.0021932
3.38538e-07
5.12424e-07
6.56933e-08
-4.71713e-06
8.88369e-07
-1.12238e-07
2.14975e-07
0.00197775
0.000773483
-1.80542e-06
1.41332e-06
-1.94522e-07
1.85554e-07
3.50769e-07
0.000142135
-5.31205e-08
-0.0060085
1.31035e-07
-3.96145e-08
-5.84943e-08
-3.81605e-08
-1.08898e-07
-1.44795e-07
8.96969e-08
-0.00292388
2.8807e-09
1.22705e-07
4.82558e-09
-8.77818e-08
0.00216299
0.000494033
1.05264e-06
0.000727727
-1.1591e-07
1.6421e-09
2.80629e-07
-0.00956522
2.74644e-07
3.88345e-08
0.00396608
4.8688e-08
9.00465e-08
2.68782e-08
4.82191e-06
-0.00327733
-0.000685059
-7.13647e-08
-5.48319e-09
-8.0665e-08
-3.08158e-07
-0.00110668
9.1112e-07
5.4357e-07
-2.18811e-08
1.39441e-07
1.52852e-06
5.41428e-07
-2.97012e-07
3.09072e-06
5.19715e-07
-2.52735e-07
-8.71498e-10
3.93296e-07
-3.74532e-08
8.50014e-08
-6.01909e-06
3.2945e-07
2.81255e-07
1.35052e-07
3.26218e-07
1.90292e-07
9.64266e-08
-0.000357733
1.9585e-08
-4.90828e-09
0.00145782
-1.31549e-07
0.00287149
-4.59463e-08
0.000301507
2.78338e-07
7.89358e-08
-1.24893e-07
1.37479e-07
0.0011942
4.88518e-06
2.81259e-07
5.86706e-07
2.48174e-07
2.07523e-07
1.1804e-07
2.94794e-08
0.00070724
2.19813e-07
1.50559e-07
1.04787e-06
-3.70356e-07
-0.0032716
2.67654e-07
0.00800205
-1.26671e-08
4.07983e-07
-2.3001e-07
-5.9387e-07
-5.26522e-07
7.32411e-08
0.00149713
-4.48539e-06
-5.71961e-08
-0.000965031
7.1816e-07
4.38862e-08
6.81388e-08
1.5902e-07
-9.50609e-09
6.06984e-08
-0.00144812
9.32358e-07
3.66513e-07
4.35528e-06
2.89095e-07
-0.00111374
-1.19311e-06
-3.13446e-07
0.00356471
1.74063e-07
-1.68409e-07
4.68734e-08
0.00111212
0.0108893
9.21555e-07
-3.19149e-08
-1.515e-07
-0.000244416
3.76337e-09
7.93452e-08
-1.9278e-07
-4.97292e-08
1.44291e-07
-0.00442198
2.73077e-08
-6.74649e-08
-4.65365e-08
3.16918e-08
-4.09233e-06
-3.78967e-08
-1.96565e-07
-1.02884e-07
9.08087e-08
-0.000822353
0.000764476
4.44672e-07
3.97538e-07
4.4103e-07
2.01718e-07
0.00208748
0.00571957
4.72079e-06
-8.56904e-08
2.30853e-07
0.00471406
-0.0269185
1.33324e-07
0.00766616
-1.8813e-08
2.60334e-07
0.000131098
1.45787e-07
0.00167863
0.00271357
2.94056e-07
0.000777878
-0.00532386
2.50566e-07
1.24308e-09
-1.84918e-06
0.000116036
1.43445e-08
0.00100351
2.30863e-07
1.42792e-07
-3.58303e-08
2.26334e-07
4.06014e-07
2.5232e-07
2.38027e-06
0.000803834
1.44302e-06
-6.95941e-09
-1.0645e-07
-1.63442e-07
-1.03136e-06
3.58016e-07
6.79661e-07
1.20442e-07
1.57233e-07
1.17367e-09
-4.96599e-08
-8.74669e-08
6.36982e-08
-1.19211e-05
2.08213e-07
6.27219e-08
0.000778442
0.00131944
1.59237e-06
1.34436e-07
2.24076e-07
2.279e-07
7.25507e-08
-0.00410545
0.00167858
-1.00111e-07
2.32684e-07
-0.00275847
-0.000786499
1.65521e-07
5.55778e-09
0.00444996
5.34878e-07
1.68602e-07
-1.49667e-07
-1.07909e-07
2.10381e-07
-2.95955e-08
0.00280911
3.36643e-05
-6.75615e-08
-4.38097e-06
7.68933e-07
0.000771792
0.00178519
-0.00126495
2.50875e-06
1.10293e-07
2.91364e-07
8.07839e-08
-1.23826e-07
-1.14967e-06
-7.73154e-08
1.08177e-07
1.72643e-07
-0.00455361
2.73548e-07
0.000805215
-9.28411e-08
0.00235216
2.25682e-07
4.12734e-06
-2.2293e-07
1.76522e-06
2.63203e-06
7.82576e-08
-5.7756e-08
0.00504803
6.91923e-07
0.0013162
-1.20036e-07
-0.00581252
3.43118e-07
0.00274312
0.000103045
7.14266e-08
7.41143e-08
-3.79254e-07
0.00105709
0.00170255
7.67546e-08
-1.67088e-07
-0.00186008
1.68774e-07
5.549e-07
0.0053915
9.79866e-07
1.41129e-07
-0.0204666
7.1673e-08
-2.01718e-08
1.29905e-07
-0.000239652
1.38023e-07
-3.27947e-08
7.45105e-06
-6.56144e-06
-1.20352e-07
1.55511e-07
-2.14443e-07
7.29751e-07
3.03725e-08
-5.69207e-06
5.79477e-08
2.35037e-08
-1.91398e-07
-1.18493e-07
-0.000239868
1.30841e-07
0.00310119
-0.0356914
9.49224e-05
9.965e-08
2.5035e-07
2.21731e-07
2.29411e-07
4.37384e-07
3.51239e-07
0.000465246
2.04459e-07
7.64965e-06
7.71593e-08
-5.90807e-09
-7.6418e-08
1.58798e-06
5.23894e-05
0.000252015
3.25915e-08
0.000559167
-1.26404e-08
-0.000789567
4.59674e-06
8.07636e-07
6.26548e-09
-7.49677e-08
1.50903e-07
0.00260082
1.09692e-07
2.39627e-08
1.62282e-07
5.89807e-07
-7.73597e-08
-0.000163823
-0.000687113
1.03531e-06
4.05464e-07
2.16788e-07
0.00412886
-1.4404e-07
-3.93116e-08
3.74732e-07
-0.000583857
1.1637e-07
6.33115e-08
1.14692e-07
-1.66251e-07
4.00695e-07
0.0087326
8.96613e-08
1.50983e-06
5.54483e-06
-3.66229e-05
-8.86826e-06
-2.23488e-07
7.06617e-08
0.020716
-8.24657e-08
1.32314e-07
1.34618e-06
1.86259e-07
2.95758e-07
0.00286687
8.61056e-08
-8.62221e-07
-8.31379e-08
-1.02508e-06
1.17308e-07
-1.08202e-06
-7.04078e-08
2.49626e-07
0.00630232
1.34039e-05
2.06603e-07
3.26654e-08
3.71693e-07
-0.00133791
2.45715e-06
2.27399e-05
-2.47215e-07
-1.20665e-07
1.97832e-07
-0.000803519
1.99841e-07
-0.00401473
5.05381e-07
0.00381898
-2.01476e-07
-2.69906e-08
1.52762e-07
2.9595e-07
4.6453e-08
6.59289e-06
0.00136156
0.00175687
2.5212e-06
3.74438e-07
2.26582e-06
1.48491e-07
1.78793e-06
5.72071e-07
2.37776e-07
1.80141e-08
1.21618e-07
3.65358e-07
1.60567e-06
3.54787e-08
6.57865e-08
7.8337e-08
-0.000999365
-0.000237093
-4.51062e-07
-0.000891801
-7.16274e-10
3.11796e-07
-9.03465e-08
-8.99808e-07
7.69669e-07
9.28055e-08
2.67031e-07
-0.000744525
-1.8651e-08
4.11915e-07
3.71585e-07
2.09164e-07
0.00257159
1.33461e-07
4.62723e-06
1.24136e-07
2.99575e-07
0.00176225
2.13203e-06
3.0217e-07
3.48252e-07
-4.91193e-06
0.00130197
0.00919189
4.26894e-07
1.88844e-06
9.88524e-07
0.000300387
1.44553e-07
-0.00177051
0.00108227
5.97498e-08
-2.59843e-07
-1.06021e-07
3.87893e-06
-1.67916e-07
7.88175e-08
0.00126692
1.16527e-07
-5.1501e-08
-2.78341e-06
1.4377e-06
0.000972467
0.00113994
2.03545e-06
0.000390838
-1.09234e-07
4.75891e-08
4.50742e-07
-3.3973e-08
-0.00849006
3.02477e-08
0.000606441
1.49997e-07
0.002974
3.01167e-08
-1.57468e-08
4.214e-07
-6.07427e-09
1.59091e-07
1.0138e-07
3.33011e-07
8.08432e-05
2.96629e-07
1.03567e-06
7.69292e-09
0.000582586
5.9919e-08
-3.75152e-07
3.89923e-07
6.34673e-07
2.01334e-07
3.08732e-07
3.15249e-07
8.93464e-08
-3.12778e-07
4.90656e-07
2.3616e-07
-7.91425e-08
-0.0185634
0.00235044
0.00252945
-0.000833583
1.44822e-07
-1.10738e-07
4.65572e-09
5.85547e-07
2.22024e-07
1.26933e-07
2.98097e-05
1.49824e-07
4.79195e-08
-1.01063e-07
3.7958e-07
-3.94706e-08
0.00310881
-8.20391e-08
-1.11122e-07
0.00407577
7.37983e-07
6.1972e-07
0.00109503
0.00144036
1.75938e-07
-6.8094e-06
1.29923e-05
1.76319e-07
-1.58058e-07
-2.13408e-10
1.6316e-07
-2.02269e-08
-4.09511e-07
-1.78608e-07
-1.09897e-07
-2.4342e-07
3.26335e-07
0.00098291
-5.60628e-07
1.11644e-07
-1.66197e-07
1.14164e-09
0.003725
6.4564e-08
-3.91269e-08
1.10446e-07
1.27702e-07
1.08529e-07
1.75043e-07
-0.000629008
-0.000533938
0.000765789
2.13202e-06
3.28381e-08
-1.57302e-07
0.0079822
2.7616e-06
1.07692e-07
7.2887e-07
1.35735e-10
2.90353e-07
-3.85496e-07
0.0050329
1.49194e-08
-3.02307e-07
2.64857e-07
3.39867e-06
3.93277e-08
2.7795e-06
-3.93632e-07
7.64704e-06
1.08623e-06
-0.0119825
-9.33094e-08
-1.39737e-08
-6.26784e-08
8.71179e-08
5.28141e-08
1.29387e-07
-4.84767e-07
-0.0109129
4.73811e-09
3.32183e-06
0.00484772
1.38089e-08
-0.00112611
2.29149e-08
-2.09979e-07
4.40661e-07
7.28768e-08
-3.85827e-08
4.72684e-07
4.65506e-07
2.83955e-07
-5.60643e-08
-0.0211369
-0.00805681
9.21654e-08
1.2518e-07
1.09932e-06
-2.58233e-07
2.2625e-06
1.04887e-06
2.76611e-07
8.37923e-08
6.12679e-08
-1.99412e-07
4.80024e-07
-3.23331e-07
0.00366817
1.32778e-07
2.71659e-09
-5.43642e-07
0.000765597
-1.24374e-06
-0.00026756
2.42324e-07
4.94722e-08
-2.72811e-06
-1.07536e-05
2.65784e-07
0.000171672
-5.2353e-08
4.57158e-06
3.5068e-07
3.25535e-07
0.000218066
-0.00027625
-1.79686e-07
1.87438e-07
-3.78756e-07
-5.80388e-06
-2.51294e-07
-8.05438e-08
5.74692e-08
-8.21769e-08
5.65548e-07
-1.91974e-06
0.0027018
3.00982e-07
7.53398e-07
0.00237891
1.1813e-07
3.02188e-06
0.000684428
0.000257312
0.00675822
5.34919e-07
-1.43731e-07
-0.000517404
1.65624e-07
7.75972e-08
7.45632e-06
0.000774929
-4.24254e-08
-9.86385e-08
0.000469325
-1.6023e-06
5.39384e-06
0.00463582
-0.000802598
0.00111742
-1.16696e-07
-5.36427e-08
7.85661e-08
2.40502e-07
-0.0256937
6.18363e-09
4.41893e-06
-2.45064e-05
-5.40043e-08
9.50693e-09
9.35964e-05
4.99156e-08
1.65269e-07
7.16791e-08
1.68575e-08
-0.000159733
0.00509881
-8.87173e-08
-4.81723e-08
-6.1284e-07
-0.044323
-1.70732e-06
0.00142599
4.18778e-08
1.65691e-07
3.01111e-07
-2.81301e-07
1.09997e-06
-6.14561e-08
1.20254e-07
-0.0490156
-2.6975e-06
0.00017439
-1.07175e-07
1.14535e-07
-5.6121e-08
-0.00554732
1.73471e-08
2.72317e-08
4.07895e-07
-6.8197e-09
-1.66868e-08
0.000229037
1.16239e-05
-0.00083544
1.37628e-05
0.00107448
1.33416e-07
5.89392e-08
0.00623471
-6.42086e-09
3.87745e-06
-0.0121475
2.55309e-08
0.0043658
-0.000964033
4.22154e-08
8.67829e-08
5.22111e-07
5.23049e-08
-3.8178e-06
1.10385e-07
0.000497924
3.13376e-07
1.28091e-07
7.02492e-08
7.95004e-06
5.37875e-07
-4.42676e-07
0.000897096
0.00794439
-1.2756e-07
2.3706e-06
2.89193e-06
1.4548e-07
1.93144e-07
0.00119532
6.88654e-08
5.96179e-07
-0.00371249
-1.96568e-07
9.3009e-08
-2.038e-07
3.43542e-07
5.53812e-07
2.22844e-08
9.83749e-08
-0.00393515
-9.81979e-07
0.00046703
0.000645165
-0.000871437
2.6694e-08
4.95861e-06
-0.00219158
-1.71179e-09
-0.00502066
-0.0065366
-0.00583092
-4.80763e-08
5.66147e-08
0.000705719
-0.0032354
-1.35745e-07
2.83403e-06
4.67265e-07
1.13668e-08
-1.01398e-06
5.89894e-08
0.000290642
0.00153041
-0.000398055
-0.00741109
1.32446e-07
4.04913e-07
3.66277e-08
1.12277e-07
2.34258e-08
7.13914e-07
1.05712e-07
-3.46341e-06
0.00038753
7.39085e-11
1.11725e-07
7.7992e-06
-4.42924e-08
-1.36653e-06
-2.05319e-10
0.000160643
0.000244678
3.46734e-05
0.00131039
0.000380196
0.000673056
0.00038283
-0.000880957
-1.45075e-06
4.36964e-08
-3.32759e-07
-1.12335e-07
0.00226654
-0.0105298
3.14597e-07
-5.6893e-07
0.00147756
0.000548669
-8.19665e-08
0.00110729
1.16064e-07
-9.54838e-08
-0.00249886
-0.0316004
1.9756e-07
0.000563328
6.23312e-06
-4.92715e-08
1.1428e-07
0.00406045
0.00421472
0.00237231
0.0032668
1.79313e-07
-0.00312202
0.000471144
5.9465e-08
-5.44362e-08
-3.55737e-07
2.52815e-07
1.83881e-07
0.000376052
-0.00131468
2.64576e-07
-1.45245e-07
0.000635882
3.51725e-07
-0.000878535
1.55983e-07
1.64949e-06
0.000538628
-2.62175e-08
0.00202632
4.32308e-08
-3.85966e-07
-2.0029e-07
-4.30026e-07
-5.18661e-07
6.20502e-08
2.26465e-06
5.75615e-08
-0.00469987
2.48748e-06
-0.000371603
0.00164411
0.000585936
2.53029e-07
-0.0013302
-6.78978e-07
0.000296035
2.91446e-08
2.23654e-07
0.00566411
-0.000103802
-0.00137501
-1.00518e-08
-5.81307e-08
-2.79487e-07
0.00718415
0.000341287
1.46644e-07
0.0275405
-6.12787e-08
-8.34057e-08
0.00116678
-1.96473e-08
0.0112848
5.62953e-08
-1.08985e-06
0.000717417
0.00226626
4.67777e-05
2.18965e-06
0.000112865
0.000386162
-3.85488e-05
8.8035e-08
0.000370273
-2.32723e-07
-9.09434e-08
1.62828e-08
-6.66168e-08
0.000397995
3.78366e-09
0.000216395
-0.000204901
-5.65509e-07
2.24947e-06
3.48441e-06
-0.000751487
-8.7682e-08
0.00368097
0.0010322
3.07913e-06
8.15073e-08
5.85272e-08
-0.000462855
-5.88724e-08
-4.45064e-06
0.00106875
-0.000788109
3.60689e-06
-3.33239e-07
1.37922e-07
-3.70511e-07
-5.61944e-08
1.20408e-07
2.39696e-07
0.000354844
-9.87955e-07
-2.32063e-07
0.00103264
2.35065e-06
-1.63571e-05
-0.00207912
0.000740038
8.30881e-05
-0.00109354
0.0011367
-0.000678234
2.06249e-07
2.87366e-07
-2.66336e-08
-1.87822e-06
2.27783e-07
1.72413e-06
1.06763e-07
9.09853e-08
3.69351e-07
3.49935e-07
-0.0118859
-4.09441e-07
-2.04319e-07
5.01395e-07
0.000673999
2.21992e-07
3.84681e-07
2.14967e-07
0.000451975
-6.33616e-07
4.70065e-07
1.68969e-06
4.685e-08
1.40215e-06
4.99868e-07
-1.95406e-07
1.1423e-07
2.78621e-06
-1.09968e-07
8.43143e-08
5.12161e-08
-0.0149278
-2.21363e-08
0.00362896
-2.15428e-07
0.000506803
-4.49987e-08
2.21528e-09
-3.51628e-08
1.31635e-07
-4.39309e-07
0.000243538
-0.000385374
-9.29091e-07
8.74219e-08
-3.10692e-08
0.00222648
-0.00101166
2.76279e-07
-3.63008e-06
-0.000362738
1.11928e-07
5.15142e-07
2.8748e-07
6.78399e-08
1.7727e-07
0.00121743
9.21697e-08
-1.69969e-07
0.00395991
3.75264e-08
-1.47049e-08
-7.21682e-06
2.34244e-07
3.3745e-07
3.4193e-08
0.00438113
5.8098e-08
5.7937e-08
-2.87752e-08
9.96827e-08
3.33585e-07
4.12733e-08
-0.0110627
5.56683e-05
1.33483e-07
4.98456e-07
-0.00117107
-8.80839e-08
5.47316e-08
-3.52578e-07
-6.70568e-06
0.00392479
2.95143e-08
0.0048118
-0.00206858
3.52422e-07
0.000369815
-0.00158191
0.00140595
0.000300828
1.15542e-06
1.69167e-06
6.70342e-06
9.58141e-08
-2.52989e-07
-5.73139e-08
3.04646e-08
0.00376578
3.25915e-07
0.000273884
-4.6811e-08
-9.47393e-07
-1.35938e-07
4.45412e-08
2.38428e-07
-0.000267546
-0.00110431
0.000450997
0.000778062
2.29208e-07
2.08299e-06
0.00225021
1.3299e-07
0.000962999
-5.67098e-08
-3.43091e-08
-0.000567107
-1.78336e-06
2.80703e-07
3.80472e-07
3.54983e-07
2.46064e-07
0.000539568
0.00107507
3.3105e-07
-2.52817e-07
-2.01947e-07
1.6819e-07
0.00173638
2.1823e-07
1.83513e-08
-4.61991e-08
4.39805e-08
-8.26811e-08
-5.29892e-08
0.00133183
2.19952e-07
1.27872e-07
-8.5244e-09
1.00619e-06
2.56485e-07
-5.83895e-08
0.000132251
0.00115579
6.22337e-07
2.5661e-06
8.39081e-08
2.9425e-08
8.74617e-07
0.00230256
1.27699e-07
0.00037668
-0.0230412
7.51006e-08
9.86805e-08
-8.72601e-07
1.94907e-07
-9.24417e-09
0.00383202
5.58934e-07
-7.26216e-08
2.92661e-07
-0.00110155
-0.00311104
4.74589e-08
1.66904e-06
2.07116e-07
-4.23561e-07
1.8783e-06
9.82496e-06
-6.75474e-08
6.87464e-07
-0.00110131
-8.04975e-08
-4.35113e-08
5.07033e-08
0.00520754
0.000633774
2.79708e-07
-2.04758e-05
-3.79282e-07
-2.48867e-07
-5.3667e-06
-1.59324e-07
0.000470656
-7.10166e-08
-9.60366e-08
0.00210525
8.00848e-07
3.10313e-07
2.54045e-07
-1.18511e-06
2.00011e-07
1.3254e-07
1.44558e-06
-1.60825e-07
5.65838e-08
0.0014937
2.72308e-07
9.49255e-08
-0.00107395
-3.00941e-07
-0.00243415
0.00260898
2.81265e-07
1.4425e-06
2.359e-06
3.14321e-08
8.92509e-07
4.18466e-07
0.00632343
6.65911e-06
-7.68347e-08
-0.00913637
0.00201289
3.27847e-08
-1.23318e-07
1.17211e-06
-1.99683e-07
0.000519872
0.000745897
-6.3237e-08
1.61454e-07
0.00102077
4.16989e-07
9.19963e-07
1.98395e-06
1.59223e-07
0.00413663
1.59895e-06
-5.28699e-08
1.60974e-06
-0.00130756
-2.74987e-08
-0.0097734
1.91514e-07
1.36456e-08
1.88343e-08
-4.24127e-08
-0.00531715
-2.59322e-07
-5.88127e-07
-0.0033505
-0.000776874
-4.0826e-08
1.22886e-07
4.71888e-06
0.00121277
1.01371e-07
-0.00075415
2.90909e-07
-1.53355e-07
4.65689e-07
1.67426e-07
2.05574e-07
-1.17684e-08
2.64887e-07
-0.0145196
-2.69829e-07
9.51784e-08
2.05981e-07
0.00482384
-5.24288e-08
-1.44127e-07
2.53189e-08
2.31964e-07
5.73398e-08
1.58897e-07
0.000332906
-0.00140498
7.89039e-08
-2.57721e-08
-2.43853e-07
7.36259e-08
5.58962e-07
0.00874873
0.00127071
6.42133e-08
-0.00212402
2.33197e-07
-7.9915e-06
0.00107694
0.000702302
5.48351e-07
-3.03062e-07
1.04235e-06
0.00356124
8.22082e-07
2.69708e-07
0.00430948
2.4326e-06
-1.08443e-07
-0.0133495
-1.80767e-07
-4.89226e-08
-3.50355e-08
-0.0041774
1.29478e-07
-0.0203411
-7.15736e-08
-0.00414306
-1.14963e-06
-3.92687e-07
0.0085913
3.35103e-08
-7.6788e-08
-1.35918e-05
-8.75439e-08
5.32983e-07
0.00261275
2.45749e-06
2.66267e-08
-1.61418e-06
9.72636e-08
4.94937e-07
1.39284e-07
-7.78818e-05
-5.02249e-08
2.39328e-07
6.0262e-09
1.0636e-07
6.66659e-07
0.00255428
-0.0360245
-9.52078e-08
1.40267e-07
1.8761e-07
-0.0164293
-0.00587656
4.02748e-07
1.14161e-07
-3.936e-07
-1.69165e-07
0.00610391
7.22071e-08
1.08966e-07
0.00584511
1.3357e-06
-5.62594e-08
4.09089e-06
1.18796e-06
2.90654e-07
3.50576e-07
4.85984e-07
-7.34069e-06
-9.0347e-08
1.08588e-07
-0.00120444
0.00139622
-6.8621e-05
-1.00494e-07
1.46044e-07
1.71102e-07
1.12209e-08
-4.23126e-08
5.8426e-07
1.51098e-07
1.20645e-06
0.0051931
7.37842e-08
-9.83339e-08
0.000969346
3.47629e-06
0.000295569
3.45879e-06
1.97922e-08
9.29198e-08
-1.17079e-08
3.34085e-07
3.03928e-07
6.52738e-07
8.75287e-08
-1.69433e-08
-1.75082e-07
1.58241e-07
1.39911e-07
1.79443e-07
6.83194e-08
-4.51085e-07
1.12819e-07
2.43082e-07
3.28096e-07
-4.54455e-08
8.97095e-08
-3.35413e-07
-1.2233e-07
4.7631e-08
9.46833e-07
3.4851e-08
1.838e-07
1.47683e-07
1.38783e-07
0.00102738
0.00165869
0.000179454
-0.00343019
-0.00382612
1.811e-06
-1.00909e-07
1.12986e-07
1.10237e-08
-3.44625e-05
-6.91365e-08
1.07962e-07
1.35281e-07
7.32067e-07
-1.0204e-07
3.67796e-07
-4.84048e-08
0.00185556
6.11614e-07
2.01536e-09
0.00408258
-9.04833e-05
-1.0442e-07
3.61762e-06
-9.82163e-08
-2.08382e-08
7.2402e-05
1.01856e-07
1.73295e-07
2.93969e-06
-6.33078e-08
-6.75359e-08
6.45981e-08
-0.000702113
1.67879e-08
1.4203e-07
0.000735974
1.42044e-07
-0.000580298
5.98456e-07
-0.00251828
9.34702e-08
0.000641835
-8.65722e-08
-2.31464e-08
1.11561e-05
8.14746e-07
0.000292944
-0.000305028
0.000312122
0.00278976
9.17173e-07
5.67871e-07
6.12543e-07
3.05422e-07
-6.10254e-08
2.25606e-07
-6.62091e-08
7.54675e-08
-4.72979e-08
7.92034e-08
2.43125e-07
1.18794e-06
-0.0495155
0.000781135
5.88597e-05
-0.000336686
1.43111e-07
-2.43764e-08
6.39271e-07
1.05959e-07
1.07286e-06
1.35066e-07
-1.60627e-07
3.89304e-08
1.63047e-07
-6.79975e-09
5.4839e-07
2.69949e-06
2.58107e-07
-7.71058e-08
9.74375e-08
-1.4358e-08
-0.000236577
0.00133306
2.22607e-07
3.66482e-07
-9.43738e-08
0.000683349
0.000876979
2.20912e-07
3.13739e-07
1.25699e-07
-1.51263e-07
-0.00033154
-1.83282e-05
0.00198049
-6.13063e-08
-0.0242139
1.02533e-07
-0.000128381
5.4063e-07
5.66688e-08
1.73037e-07
-0.0124274
4.70269e-08
1.97681e-07
3.33273e-08
3.95002e-07
-0.00383536
-1.51385e-08
3.42609e-07
6.40911e-08
3.43929e-05
5.23794e-07
-0.000747216
-0.0287414
7.00397e-08
4.02685e-07
0.00018396
1.71026e-06
1.28211e-07
0.222386
-0.0651229
0.00700794
-0.0392066
1.51439e-07
9.07573e-07
-3.81101e-08
0.00194753
0.00526139
1.3194e-05
1.76764e-06
9.49167e-08
0.000813126
3.3865e-07
1.29967e-07
1.19387e-07
0.00301976
-2.16535e-07
-0.00407301
-1.70557e-07
-6.26262e-08
-3.42528e-08
0.000281952
1.63517e-08
4.6662e-08
-2.38256e-07
0.000755959
0.000431838
-0.000798725
0.000730575
2.49449e-07
1.00095e-07
9.5251e-08
1.984e-05