/*--------------------------------*- C++ -*----------------------------------*\
| =========                 |                                                 |
| \\      /  F ield         | OpenFOAM: The Open Source CFD Toolbox           |
|  \\    /   O peration     | Version:  v2012                                 |
|   \\  /    A nd           | Website:  www.openfoam.com                      |
|    \\/     M anipulation  |                                                 |
\*---------------------------------------------------------------------------*/
FoamFile
{
    version     2.0;
    format      ascii;
    class       volVectorField;
    location    "450";
    object      cellDisplacement;
}
// * * * * * * * * * * * * * * * * * * * * * * * * * * * * * * * * * * * * * //

dimensions      [0 1 0 0 0 0 0];


internalField   nonuniform List<vector> 
10042
(
(0 0.00208763 0)
(0 0.00554198 0)
(0 0.00484579 0)
(0 0.0013568 0)
(0 0.000752396 0)
(0 0.00604441 0)
(0 0.00244996 0)
(0 0.00342169 0)
(0 0.00152703 0)
(0 0.00323668 0)
(0 0.00374544 0)
(0 0.00552456 0)
(0 0.00160661 0)
(0 0.00380078 0)
(0 0.00166885 0)
(0 0.00379318 0)
(0 0.00605193 0)
(0 0.00380157 0)
(0 0.00158622 0)
(0 0.00404706 0)
(0 0.00167446 0)
(0 0.00202627 0)
(0 0.001293 0)
(0 0.00515826 0)
(0 0.00297749 0)
(0 8.40082e-05 0)
(0 0.0032525 0)
(0 0.00097574 0)
(0 0.00605392 0)
(0 0.00527817 0)
(0 0.000392339 0)
(0 0.000999522 0)
(0 0.00140973 0)
(0 0.0013354 0)
(0 0.00345757 0)
(0 0.00355634 0)
(0 0.000234586 0)
(0 0.00159515 0)
(0 0.000540973 0)
(0 0.000151848 0)
(0 0.00523233 0)
(0 0.00144734 0)
(0 0.00150618 0)
(0 0.00514829 0)
(0 0.00213164 0)
(0 0.00308699 0)
(0 0.000626503 0)
(0 0.00167074 0)
(0 0.00261663 0)
(0 0.00179069 0)
(0 0.00155633 0)
(0 0.00121321 0)
(0 0.0060425 0)
(0 0.00162498 0)
(0 0.00370124 0)
(0 0.00146494 0)
(0 0.00171257 0)
(0 0.00365001 0)
(0 0.00232508 0)
(0 4.55706e-05 0)
(0 0.00269637 0)
(0 0.00345531 0)
(0 0.00150475 0)
(0 0.00332344 0)
(0 0.00525368 0)
(0 0.00431351 0)
(0 0.00411283 0)
(0 0.00234105 0)
(0 0.000666241 0)
(0 0.00229061 0)
(0 0.00156494 0)
(0 0.00336405 0)
(0 0.00256275 0)
(0 0.00228245 0)
(0 0.00423957 0)
(0 0.00151717 0)
(0 0.00536058 0)
(0 0.000649932 0)
(0 0.00540057 0)
(0 0.00153152 0)
(0 0.00513464 0)
(0 0.00520725 0)
(0 0.000187419 0)
(0 0.00118804 0)
(0 0.00362944 0)
(0 0.00277297 0)
(0 0.00410095 0)
(0 0.00490056 0)
(0 0.00383859 0)
(0 0.00527363 0)
(0 0.00159922 0)
(0 0.00162931 0)
(0 0.00155257 0)
(0 0.00282877 0)
(0 0.00513753 0)
(0 0.00305731 0)
(0 0.00070418 0)
(0 0.00403956 0)
(0 0.00578831 0)
(0 0.00217838 0)
(0 0.00162956 0)
(0 0.00325597 0)
(0 0.00307994 0)
(0 0.00101089 0)
(0 0.00177262 0)
(0 0.00287825 0)
(0 0.00204398 0)
(0 0.00413617 0)
(0 0.00253426 0)
(0 0.0028766 0)
(0 0.00238404 0)
(0 0.00257916 0)
(0 0.00330223 0)
(0 0.0033535 0)
(0 0.00519036 0)
(0 0.000726444 0)
(0 0.00551194 0)
(0 0.000441729 0)
(0 0.00359202 0)
(0 0.000686586 0)
(0 6.11373e-05 0)
(0 0.00555453 0)
(0 0.00554207 0)
(0 0.00223142 0)
(0 0.00531122 0)
(0 0.00403704 0)
(0 0.00412207 0)
(0 0.00367733 0)
(0 0.00109908 0)
(0 0.00553015 0)
(0 0.00181494 0)
(0 0.00401281 0)
(0 0.00438651 0)
(0 0.00387209 0)
(0 0.00265709 0)
(0 0.00181796 0)
(0 0.00430532 0)
(0 0.00226915 0)
(0 0.00198885 0)
(0 0.00579047 0)
(0 0.00156389 0)
(0 0.000566123 0)
(0 0.00211093 0)
(0 0.000923202 0)
(0 0.00252468 0)
(0 0.0016795 0)
(0 0.00360389 0)
(0 0.000631366 0)
(0 0.00364054 0)
(0 0.0061134 0)
(0 0.00405939 0)
(0 0.000417372 0)
(0 0.00197579 0)
(0 0.00153862 0)
(0 0.00507287 0)
(0 0.00257694 0)
(0 0.00113266 0)
(0 0.00144671 0)
(0 0.00441136 0)
(0 5.68203e-05 0)
(0 0.00044639 0)
(0 0.000119802 0)
(0 0.0019025 0)
(0 0.00393365 0)
(0 0.00201499 0)
(0 0.00611216 0)
(0 0.00253882 0)
(0 0.00103283 0)
(0 0.0035244 0)
(0 0.00122537 0)
(0 0.00500972 0)
(0 0.00530823 0)
(0 0.00557989 0)
(0 0.00129583 0)
(0 0.0016829 0)
(0 0.00555871 0)
(0 0.00291218 0)
(0 0.00165293 0)
(0 0.00392684 0)
(0 0.000661955 0)
(0 0.0020204 0)
(0 0.00196778 0)
(0 0.00221849 0)
(0 0.000570583 0)
(0 0.000194896 0)
(0 0.00136031 0)
(0 0.00330069 0)
(0 4.32297e-05 0)
(0 0.0015811 0)
(0 0.000586075 0)
(0 0.00550814 0)
(0 0.00178095 0)
(0 0.00190824 0)
(0 0.00196094 0)
(0 0.00373138 0)
(0 0.001592 0)
(0 0.000861566 0)
(0 0.00487839 0)
(0 0.000717584 0)
(0 0.0010632 0)
(0 0.00108413 0)
(0 0.00155819 0)
(0 0.00572605 0)
(0 0.000390499 0)
(0 0.0058132 0)
(0 0.00428908 0)
(0 0.00499175 0)
(0 0.00158648 0)
(0 0.00240204 0)
(0 0.00389754 0)
(0 0.000989044 0)
(0 0.000431299 0)
(0 0.00576233 0)
(0 0.00566104 0)
(0 0.000342201 0)
(0 0.00228819 0)
(0 0.000361574 0)
(0 0.00560272 0)
(0 0.000680779 0)
(0 0.00112407 0)
(0 0.000912334 0)
(0 0.00494517 0)
(0 0.000947154 0)
(0 0.00226585 0)
(0 0.00146527 0)
(0 0.00151454 0)
(0 0.00361281 0)
(0 0.00429165 0)
(0 0.00321393 0)
(0 0.00303062 0)
(0 0.00172877 0)
(0 0.00421737 0)
(0 0.00140894 0)
(0 0.000304785 0)
(0 0.00297224 0)
(0 0.00345557 0)
(0 0.00439573 0)
(0 0.0007275 0)
(0 0.00251605 0)
(0 0.0051288 0)
(0 0.00567227 0)
(0 0.00538884 0)
(0 5.2241e-05 0)
(0 0.000155647 0)
(0 0.00397561 0)
(0 0.000773808 0)
(0 0.00534928 0)
(0 0.00256304 0)
(0 0.00198392 0)
(0 0.000613123 0)
(0 0.00175155 0)
(0 0.0019716 0)
(0 0.00588546 0)
(0 0.00375623 0)
(0 0.003639 0)
(0 0.00437296 0)
(0 0.00047798 0)
(0 0.00383596 0)
(0 0.000722079 0)
(0 0.000932465 0)
(0 0.00530021 0)
(0 0.00186762 0)
(0 0.00121577 0)
(0 0.000669521 0)
(0 0.00156435 0)
(0 0.00383444 0)
(0 0.00526243 0)
(0 0.00585401 0)
(0 0.000189196 0)
(0 0.00425321 0)
(0 0.00143226 0)
(0 0.00183315 0)
(0 0.00364154 0)
(0 0.00152515 0)
(0 0.00381419 0)
(0 0.00339864 0)
(0 0.00158405 0)
(0 0.00243859 0)
(0 0.000184813 0)
(0 0.00379922 0)
(0 0.00105783 0)
(0 0.00547742 0)
(0 0.00081871 0)
(0 0.00160956 0)
(0 7.43059e-05 0)
(0 0.000972577 0)
(0 0.0055312 0)
(0 0.000949185 0)
(0 0.00190414 0)
(0 0.000339729 0)
(0 0.00188803 0)
(0 0.00538235 0)
(0 0.000129104 0)
(0 0.00550793 0)
(0 0.00528996 0)
(0 0.00366552 0)
(0 0.0045231 0)
(0 0.00435457 0)
(0 0.00140256 0)
(0 0.000371315 0)
(0 0.00201951 0)
(0 0.00569971 0)
(0 2.9454e-05 0)
(0 0.00563619 0)
(0 0.0055172 0)
(0 0.00345684 0)
(0 0.0038218 0)
(0 0.000121968 0)
(0 0.00458073 0)
(0 0.00552812 0)
(0 0.000165183 0)
(0 0.0037488 0)
(0 0.00296843 0)
(0 0.00366433 0)
(0 0.00538601 0)
(0 0.00184408 0)
(0 0.000647773 0)
(0 0.000178407 0)
(0 0.0051149 0)
(0 0.000695288 0)
(0 0.000151302 0)
(0 0.00157209 0)
(0 0.0033421 0)
(0 0.00274332 0)
(0 0.000304932 0)
(0 0.000268155 0)
(0 0.00448406 0)
(0 0.00391724 0)
(0 0.00433637 0)
(0 0.00192369 0)
(0 0.00428007 0)
(0 0.00250067 0)
(0 0.00210962 0)
(0 0.000441079 0)
(0 0.0050445 0)
(0 0.00195053 0)
(0 0.00203354 0)
(0 0.00270178 0)
(0 0.00206499 0)
(0 0.00609341 0)
(0 0.00163812 0)
(0 0.0018855 0)
(0 6.87055e-05 0)
(0 0.00462517 0)
(0 0.000364006 0)
(0 0.00169914 0)
(0 0.00338787 0)
(0 0.000696946 0)
(0 0.00514715 0)
(0 0.000693857 0)
(0 0.00168281 0)
(0 0.00517754 0)
(0 0.00513939 0)
(0 0.00188573 0)
(0 0.00352688 0)
(0 0.00455717 0)
(0 0.00355892 0)
(0 9.78195e-05 0)
(0 0.00109558 0)
(0 6.74963e-05 0)
(0 0.00280966 0)
(0 0.000234176 0)
(0 0.00207757 0)
(0 0.00519309 0)
(0 0.00608975 0)
(0 0.00198464 0)
(0 0.000873377 0)
(0 0.0050547 0)
(0 0.00506699 0)
(0 0.00355547 0)
(0 5.25521e-05 0)
(0 0.000182526 0)
(0 0.00374274 0)
(0 2.7779e-06 0)
(0 0.00278362 0)
(0 0.00402183 0)
(0 0.00346533 0)
(0 0.00575663 0)
(0 0.0041628 0)
(0 0.00272274 0)
(0 0.00271537 0)
(0 0.00573007 0)
(0 0.00330668 0)
(0 0.00382568 0)
(0 0.00135029 0)
(0 0.00071681 0)
(0 0.000617947 0)
(0 0.000639205 0)
(0 0.0044301 0)
(0 0.000926096 0)
(0 0.00386832 0)
(0 0.00130912 0)
(0 0.0017299 0)
(0 0.00441093 0)
(0 0.00607167 0)
(0 0.00367286 0)
(0 0.00152134 0)
(0 0.00342342 0)
(0 0.000144079 0)
(0 0.00104725 0)
(0 0.0010914 0)
(0 0.000957983 0)
(0 0.00100984 0)
(0 0.00362388 0)
(0 0.000814262 0)
(0 0.00194268 0)
(0 0.00167587 0)
(0 0.00211494 0)
(0 0.00565202 0)
(0 0.00384296 0)
(0 0.00598016 0)
(0 0.00231104 0)
(0 0.00543254 0)
(0 0.00175004 0)
(0 0.00315 0)
(0 0.0048297 0)
(0 0.00261143 0)
(0 0.00357513 0)
(0 0.000762524 0)
(0 0.00476622 0)
(0 0.000448757 0)
(0 0.00606792 0)
(0 0.00177246 0)
(0 0.00054599 0)
(0 0.00152247 0)
(0 0.00491642 0)
(0 0.00349315 0)
(0 0.00596229 0)
(0 0.000934693 0)
(0 0.00181265 0)
(0 0.00490417 0)
(0 0.00071111 0)
(0 0.00236656 0)
(0 0.00353607 0)
(0 0.0021078 0)
(0 0.00210238 0)
(0 0.0025447 0)
(0 0.00352274 0)
(0 0.000141432 0)
(0 0.00140676 0)
(0 0.000887861 0)
(0 0.00533273 0)
(0 0.00468815 0)
(0 0.00153417 0)
(0 0.0017792 0)
(0 0.000157214 0)
(0 0.00311198 0)
(0 0.0019356 0)
(0 0.00335737 0)
(0 0.00053981 0)
(0 0.00327671 0)
(0 0.00474804 0)
(0 0.00477966 0)
(0 0.0013755 0)
(0 0.00118144 0)
(0 0.00349721 0)
(0 0.00515169 0)
(0 0.00127956 0)
(0 0.000618465 0)
(0 0.000148471 0)
(0 0.000354816 0)
(0 0.00162275 0)
(0 0.00292134 0)
(0 0.00300103 0)
(0 0.0043541 0)
(0 6.31634e-05 0)
(0 0.00201124 0)
(0 0.00150359 0)
(0 0.00534471 0)
(0 0.00505297 0)
(0 0.00202129 0)
(0 0.00155225 0)
(0 0.00112532 0)
(0 0.00248415 0)
(0 0.00569042 0)
(0 0.000500878 0)
(0 0.00119125 0)
(0 0.000189286 0)
(0 0.003641 0)
(0 0.0016308 0)
(0 0.00481192 0)
(0 0.00179782 0)
(0 0.00576024 0)
(0 0.000492852 0)
(0 0.00168288 0)
(0 0.000106085 0)
(0 0.00321987 0)
(0 0.00590211 0)
(0 0.00017684 0)
(0 0.00100469 0)
(0 0.00377834 0)
(0 0.0052691 0)
(0 0.00184961 0)
(0 0.00472116 0)
(0 0.00504816 0)
(0 0.00175136 0)
(0 0.00182975 0)
(0 0.00478969 0)
(0 0.00552149 0)
(0 0.00247318 0)
(0 0.00234436 0)
(0 0.000359334 0)
(0 0.005435 0)
(0 0.00530519 0)
(0 0.00240913 0)
(0 0.00595855 0)
(0 0.00052218 0)
(0 0.000115703 0)
(0 0.00329284 0)
(0 0.00299408 0)
(0 0.00256189 0)
(0 0.00496962 0)
(0 0.00182946 0)
(0 0.00115374 0)
(0 0.00279636 0)
(0 0.00555283 0)
(0 0.00210319 0)
(0 0.00568054 0)
(0 0.00153598 0)
(0 0.00214566 0)
(0 0.00166888 0)
(0 0.0026853 0)
(0 0.00595662 0)
(0 0.00296276 0)
(0 0.00216569 0)
(0 0.00600248 0)
(0 0.00492242 0)
(0 0.00393588 0)
(0 0.00291913 0)
(0 0.00416508 0)
(0 0.000143339 0)
(0 0.0024114 0)
(0 0.00272926 0)
(0 0.00117309 0)
(0 0.00502911 0)
(0 0.00310858 0)
(0 0.00249731 0)
(0 0.00423819 0)
(0 0.00174516 0)
(0 0.00390241 0)
(0 0.000943975 0)
(0 0.00318492 0)
(0 0.00280005 0)
(0 0.000919718 0)
(0 0.00209922 0)
(0 0.00125384 0)
(0 0.000561227 0)
(0 0.00235175 0)
(0 0.00598113 0)
(0 5.70418e-05 0)
(0 0.00593335 0)
(0 0.00234509 0)
(0 0.00148996 0)
(0 0.00423662 0)
(0 0.00202678 0)
(0 0.00554011 0)
(0 0.00503021 0)
(0 0.000418698 0)
(0 0.00116397 0)
(0 0.000547741 0)
(0 0.00117749 0)
(0 0.00309828 0)
(0 0.00280245 0)
(0 0.00504356 0)
(0 0.00282764 0)
(0 2.81165e-05 0)
(0 0.00312568 0)
(0 0.0018368 0)
(0 0.00315756 0)
(0 0.000131535 0)
(0 0.00118092 0)
(0 0.00314319 0)
(0 0.00515086 0)
(0 0.00273687 0)
(0 0.00491442 0)
(0 0.00125399 0)
(0 0.00131705 0)
(0 0.00144607 0)
(0 0.00155507 0)
(0 0.00394826 0)
(0 0.00381101 0)
(0 0.00267163 0)
(0 0.000507864 0)
(0 0.000933248 0)
(0 0.00186754 0)
(0 0.00373295 0)
(0 0.00223347 0)
(0 0.00256213 0)
(0 0.000686927 0)
(0 0.00392452 0)
(0 0.00564475 0)
(0 0.00147237 0)
(0 0.00233029 0)
(0 0.00027366 0)
(0 0.00490093 0)
(0 0.000738532 0)
(0 0.0040762 0)
(0 0.000841772 0)
(0 0.00197636 0)
(0 0.00161563 0)
(0 0.000435438 0)
(0 0.00225431 0)
(0 0.00103389 0)
(0 0.000656069 0)
(0 0.00393712 0)
(0 0.00408362 0)
(0 0.00406105 0)
(0 3.52494e-06 0)
(0 0.00391808 0)
(0 0.000485475 0)
(0 0.0049189 0)
(0 0.00162202 0)
(0 0.00279118 0)
(0 0.000559978 0)
(0 0.00280466 0)
(0 0.0025223 0)
(0 0.0029477 0)
(0 0.00250036 0)
(0 0.00149545 0)
(0 0.000762857 0)
(0 0.00508258 0)
(0 0.00587561 0)
(0 0.00389364 0)
(0 0.00129338 0)
(0 0.000689092 0)
(0 0.00441973 0)
(0 0.000169608 0)
(0 0.00514794 0)
(0 0.00579773 0)
(0 0.00584718 0)
(0 0.00191487 0)
(0 0.00530331 0)
(0 0.00120745 0)
(0 0.00257718 0)
(0 0.00547726 0)
(0 0.00491931 0)
(0 0.00443496 0)
(0 0.00107595 0)
(0 0.00199859 0)
(0 0.00511193 0)
(0 0.00312595 0)
(0 0.00247841 0)
(0 0.0015857 0)
(0 0.00174204 0)
(0 0.000449556 0)
(0 0.00550584 0)
(0 0.00166172 0)
(0 9.31364e-05 0)
(0 0.0012597 0)
(0 0.00276117 0)
(0 0.00433925 0)
(0 0.000125148 0)
(0 0.00153581 0)
(0 0.0046962 0)
(0 0.00059538 0)
(0 0.00506176 0)
(0 0.00411124 0)
(0 0.00366067 0)
(0 0.00367083 0)
(0 0.00221312 0)
(0 3.28046e-05 0)
(0 0.000314385 0)
(0 0.00343924 0)
(0 0.00224625 0)
(0 0.00576001 0)
(0 0.00421708 0)
(0 0.0050986 0)
(0 0.00162582 0)
(0 0.00374432 0)
(0 0.00333125 0)
(0 0.00515802 0)
(0 0.00341898 0)
(0 0.00424148 0)
(0 0.000311437 0)
(0 0.00322762 0)
(0 0.00529828 0)
(0 0.00182595 0)
(0 0.000214098 0)
(0 0.0036842 0)
(0 8.32772e-05 0)
(0 0.000763173 0)
(0 0.00126164 0)
(0 0.00521404 0)
(0 0.00371086 0)
(0 0.000174866 0)
(0 0.00352533 0)
(0 0.00525121 0)
(0 0.00312302 0)
(0 0.000466957 0)
(0 0.00419381 0)
(0 0.00325445 0)
(0 0.00300499 0)
(0 0.00126188 0)
(0 0.00439781 0)
(0 7.47328e-05 0)
(0 0.00457814 0)
(0 0.00468837 0)
(0 0.00113253 0)
(0 0.000864002 0)
(0 0.000928024 0)
(0 0.00214727 0)
(0 0.000478693 0)
(0 0.00019125 0)
(0 0.00172459 0)
(0 0.00600487 0)
(0 0.00497995 0)
(0 0.00166095 0)
(0 0.00364925 0)
(0 0.00345163 0)
(0 0.00152097 0)
(0 0.00126189 0)
(0 0.0024741 0)
(0 7.93329e-05 0)
(0 0.0015919 0)
(0 0.00188002 0)
(0 0.00445966 0)
(0 0.00166198 0)
(0 0.00585006 0)
(0 0.00100136 0)
(0 0.0048502 0)
(0 0.000285053 0)
(0 0.000139458 0)
(0 0.00151128 0)
(0 0.0022546 0)
(0 0.00409483 0)
(0 0.00105233 0)
(0 0.000362014 0)
(0 0.00488972 0)
(0 0.00437034 0)
(0 0.00386081 0)
(0 0.00170407 0)
(0 0.00389685 0)
(0 0.00337411 0)
(0 0.00321742 0)
(0 0.00223276 0)
(0 0.00374178 0)
(0 0.00328396 0)
(0 0.00331801 0)
(0 6.38289e-05 0)
(0 0.00265266 0)
(0 0.00112939 0)
(0 9.2196e-05 0)
(0 0.00585893 0)
(0 0.00433763 0)
(0 0.00539776 0)
(0 0.0046048 0)
(0 0.00162487 0)
(0 0.00233784 0)
(0 0.00421896 0)
(0 0.00363143 0)
(0 0.000983898 0)
(0 0.00255256 0)
(0 0.00244053 0)
(0 6.20753e-05 0)
(0 0.00112688 0)
(0 0.000181702 0)
(0 0.0047388 0)
(0 9.27778e-05 0)
(0 0.00601848 0)
(0 0.00165885 0)
(0 0.00280297 0)
(0 0.00580038 0)
(0 0.00354222 0)
(0 0.00115911 0)
(0 0.00296515 0)
(0 8.29444e-05 0)
(0 0.00304813 0)
(0 0.00162806 0)
(0 0.00388952 0)
(0 0.00472213 0)
(0 0.00333149 0)
(0 0.00391345 0)
(0 0.00360581 0)
(0 0.00190088 0)
(0 0.00342803 0)
(0 0.0012224 0)
(0 0.00534827 0)
(0 0.00463531 0)
(0 0.00293648 0)
(0 0.000584615 0)
(0 0.00191169 0)
(0 0.00227336 0)
(0 0.000954752 0)
(0 0.00326547 0)
(0 0.00399474 0)
(0 0.00167685 0)
(0 0.00353763 0)
(0 0.000685341 0)
(0 0.00189078 0)
(0 0.00249827 0)
(0 0.000460536 0)
(0 0.00180975 0)
(0 7.81426e-05 0)
(0 0.000804956 0)
(0 0.00363785 0)
(0 0.00208831 0)
(0 0.000566537 0)
(0 0.000244433 0)
(0 0.00228904 0)
(0 0.0039277 0)
(0 0.00177152 0)
(0 4.05293e-05 0)
(0 0.00252884 0)
(0 0.00352011 0)
(0 0.00581685 0)
(0 0.00310986 0)
(0 0.00417227 0)
(0 0.000497159 0)
(0 0.00597882 0)
(0 0.000240554 0)
(0 0.00189026 0)
(0 0.000884556 0)
(0 0.00269183 0)
(0 0.00240009 0)
(0 0.00128591 0)
(0 0.00483939 0)
(0 0.00597047 0)
(0 0.00205656 0)
(0 0.00587709 0)
(0 0.00158025 0)
(0 0.000101123 0)
(0 0.00112512 0)
(0 0.00576663 0)
(0 0.00418798 0)
(0 0.00181613 0)
(0 0.00116665 0)
(0 0.00547231 0)
(0 0.00301209 0)
(0 0.00483442 0)
(0 0.00416193 0)
(0 0.00530807 0)
(0 0.00591005 0)
(0 0.00529003 0)
(0 0.00391545 0)
(0 0.00358178 0)
(0 0.00103406 0)
(0 0.00391076 0)
(0 0.00524219 0)
(0 0.00227553 0)
(0 0.00172437 0)
(0 0.000422508 0)
(0 0.00536433 0)
(0 7.04892e-05 0)
(0 0.00247444 0)
(0 0.00229326 0)
(0 0.00426331 0)
(0 0.00426759 0)
(0 8.09325e-05 0)
(0 0.00319199 0)
(0 0.00217136 0)
(0 0.00173137 0)
(0 0.00491649 0)
(0 0.00251411 0)
(0 7.56932e-05 0)
(0 0.00220498 0)
(0 0.00378529 0)
(0 0.00435923 0)
(0 0.00266478 0)
(0 0.00123156 0)
(0 0.00237831 0)
(0 0.00266694 0)
(0 0.00545747 0)
(0 0.0050005 0)
(0 0.00434537 0)
(0 0.00503674 0)
(0 0.00224703 0)
(0 0.00122269 0)
(0 0.000267079 0)
(0 0.000968757 0)
(0 0.00281908 0)
(0 0.000704409 0)
(0 0.00434316 0)
(0 0.000310823 0)
(0 0.00554829 0)
(0 0.00415594 0)
(0 0.00343375 0)
(0 0.00534222 0)
(0 0.000345703 0)
(0 0.000601483 0)
(0 0.00507591 0)
(0 0.000410845 0)
(0 0.000461001 0)
(0 0.00539555 0)
(0 0.00120306 0)
(0 0.00481053 0)
(0 0.00192262 0)
(0 0.00380268 0)
(0 0.00159849 0)
(0 0.0041647 0)
(0 0.00431195 0)
(0 0.00292251 0)
(0 0.000854071 0)
(0 0.000814539 0)
(0 0.00234353 0)
(0 0.0033783 0)
(0 0.00120023 0)
(0 0.0025798 0)
(0 0.00272032 0)
(0 8.3482e-05 0)
(0 0.0030225 0)
(0 0.00056214 0)
(0 0.00273982 0)
(0 0.0015266 0)
(0 0.00500787 0)
(0 0.0013416 0)
(0 0.000573222 0)
(0 0.00123409 0)
(0 0.00565779 0)
(0 0.000294572 0)
(0 0.000576335 0)
(0 0.000436775 0)
(0 0.000107121 0)
(0 0.0020383 0)
(0 0.00606658 0)
(0 0.00577672 0)
(0 0.00192692 0)
(0 0.00137424 0)
(0 0.00559878 0)
(0 0.00421875 0)
(0 0.000340246 0)
(0 0.00134119 0)
(0 0.00345447 0)
(0 0.00497888 0)
(0 0.00137985 0)
(0 0.000566935 0)
(0 0.00171693 0)
(0 0.00223105 0)
(0 0.00426853 0)
(0 0.00527251 0)
(0 0.00412931 0)
(0 0.00395684 0)
(0 0.00559341 0)
(0 0.00510662 0)
(0 0.00188587 0)
(0 0.00340757 0)
(0 0.00126712 0)
(0 0.00121047 0)
(0 0.00475378 0)
(0 0.00110453 0)
(0 0.00263586 0)
(0 0.00392264 0)
(0 0.00522996 0)
(0 0.00558046 0)
(0 0.00472495 0)
(0 0.00141452 0)
(0 0.00117567 0)
(0 0.00406929 0)
(0 0.00488648 0)
(0 0.00474255 0)
(0 0.00407491 0)
(0 0.000169826 0)
(0 0.00119366 0)
(0 0.00387114 0)
(0 0.00241842 0)
(0 0.000675839 0)
(0 0.00355889 0)
(0 0.00294015 0)
(0 0.00357691 0)
(0 0.00155928 0)
(0 0.00383133 0)
(0 0.000419092 0)
(0 0.00390636 0)
(0 0.00516974 0)
(0 0.00278505 0)
(0 0.000346071 0)
(0 0.00239668 0)
(0 0.00506486 0)
(0 0.00310234 0)
(0 0.00153151 0)
(0 0.00138703 0)
(0 0.00442805 0)
(0 0.00323327 0)
(0 0.00467224 0)
(0 0.00392391 0)
(0 5.74682e-05 0)
(0 0.0035419 0)
(0 0.00375369 0)
(0 0.00431103 0)
(0 0.00583724 0)
(0 0.00240846 0)
(0 0.00409678 0)
(0 0.00151892 0)
(0 0.00164952 0)
(0 0.00540463 0)
(0 0.00534948 0)
(0 0.00240239 0)
(0 0.00277885 0)
(0 0.0048076 0)
(0 0.00563936 0)
(0 0.00179784 0)
(0 0.000752266 0)
(0 0.0015856 0)
(0 0.00511417 0)
(0 0.00321006 0)
(0 0.00292019 0)
(0 0.00507266 0)
(0 0.001177 0)
(0 0.00173798 0)
(0 0.00195973 0)
(0 0.00520938 0)
(0 0.00211446 0)
(0 0.00583025 0)
(0 0.0016474 0)
(0 0.00325218 0)
(0 0.00151636 0)
(0 0.00180899 0)
(0 0.00329881 0)
(0 0.00264368 0)
(0 0.00153464 0)
(0 7.96585e-05 0)
(0 0.00296767 0)
(0 0.00489434 0)
(0 0.00461438 0)
(0 0.00417541 0)
(0 0.00189525 0)
(0 0.00274832 0)
(0 0.00157537 0)
(0 0.0041041 0)
(0 0.00474031 0)
(0 0.0014267 0)
(0 0.00250818 0)
(0 0.00308895 0)
(0 0.00386717 0)
(0 0.00427825 0)
(0 0.00418422 0)
(0 0.0051931 0)
(0 0.000365395 0)
(0 0.00477543 0)
(0 0.00380331 0)
(0 0.00486805 0)
(0 0.00576659 0)
(0 0.00397882 0)
(0 0.00266321 0)
(0 0.00100556 0)
(0 0.00161396 0)
(0 0.00399016 0)
(0 0.00071338 0)
(0 0.00237347 0)
(0 0.000186535 0)
(0 0.00529045 0)
(0 0.00377948 0)
(0 0.00232259 0)
(0 0.00480764 0)
(0 0.00181784 0)
(0 0.00436823 0)
(0 0.00382018 0)
(0 0.00170256 0)
(0 0.00483384 0)
(0 0.00122337 0)
(0 0.00131648 0)
(0 0.00180915 0)
(0 0.000592655 0)
(0 0.00320454 0)
(0 0.00116277 0)
(0 0.00228722 0)
(0 0.0029101 0)
(0 0.00580823 0)
(0 0.00280177 0)
(0 0.0027208 0)
(0 0.00054611 0)
(0 0.00251941 0)
(0 0.00423988 0)
(0 0.00176247 0)
(0 0.00581686 0)
(0 0.000831427 0)
(0 0.000930703 0)
(0 0.00198237 0)
(0 0.00114136 0)
(0 0.00303855 0)
(0 0.00285699 0)
(0 0.00578134 0)
(0 0.00465948 0)
(0 0.00370248 0)
(0 0.00605093 0)
(0 0.00131973 0)
(0 0.00282194 0)
(0 0.00353897 0)
(0 0.00264703 0)
(0 7.84732e-05 0)
(0 0.002271 0)
(0 0.000426964 0)
(0 0.00190524 0)
(0 0.00468054 0)
(0 0.00386798 0)
(0 0.00184316 0)
(0 0.0047829 0)
(0 0.00303813 0)
(0 0.000328778 0)
(0 0.00377311 0)
(0 0.00179466 0)
(0 0.00120741 0)
(0 0.00371011 0)
(0 0.00458374 0)
(0 0.00237945 0)
(0 0.000872295 0)
(0 0.00376702 0)
(0 0.0003358 0)
(0 0.00251399 0)
(0 0.00575739 0)
(0 0.0016296 0)
(0 0.00294421 0)
(0 8.98384e-05 0)
(0 0.00297583 0)
(0 0.00472717 0)
(0 0.00189543 0)
(0 0.00551437 0)
(0 0.00058404 0)
(0 0.0024245 0)
(0 0.00206712 0)
(0 0.00357026 0)
(0 0.00173243 0)
(0 0.00288792 0)
(0 0.00179322 0)
(0 0.00147968 0)
(0 0.000148772 0)
(0 0.000172469 0)
(0 0.00291225 0)
(0 0.00079258 0)
(0 0.00289993 0)
(0 0.00222557 0)
(0 0.00238434 0)
(0 0.000908117 0)
(0 0.00418532 0)
(0 0.00353717 0)
(0 0.00571519 0)
(0 0.00143034 0)
(0 0.00538094 0)
(0 0.000289826 0)
(0 0.00385801 0)
(0 0.0048567 0)
(0 0.00513771 0)
(0 0.000812506 0)
(0 0.00587585 0)
(0 0.00212684 0)
(0 0.00219471 0)
(0 0.00219297 0)
(0 0.00358973 0)
(0 0.00155172 0)
(0 0.00500399 0)
(0 0.00477111 0)
(0 0.00163543 0)
(0 0.00401664 0)
(0 0.00493267 0)
(0 0.0029469 0)
(0 0.00526266 0)
(0 0.00112143 0)
(0 0.00279286 0)
(0 0.00546523 0)
(0 0.00105871 0)
(0 0.00204479 0)
(0 0.00288485 0)
(0 0.00287191 0)
(0 3.89597e-05 0)
(0 0.00169616 0)
(0 0.00186795 0)
(0 0.000893836 0)
(0 0.0058079 0)
(0 0.00168738 0)
(0 0.00299581 0)
(0 0.0021507 0)
(0 0.00346203 0)
(0 0.00178863 0)
(0 0.00417787 0)
(0 0.0049754 0)
(0 0.00273948 0)
(0 0.00491211 0)
(0 0.0015407 0)
(0 0.00294448 0)
(0 0.00293564 0)
(0 0.00550909 0)
(0 0.00284867 0)
(0 0.00282002 0)
(0 0.00204907 0)
(0 0.00314505 0)
(0 0.00377599 0)
(0 0.00226476 0)
(0 0.00506049 0)
(0 0.00281691 0)
(0 0.00319519 0)
(0 0.00432253 0)
(0 0.00539052 0)
(0 0.00449144 0)
(0 0.00518106 0)
(0 0.000253377 0)
(0 0.00129187 0)
(0 0.00520698 0)
(0 0.00346504 0)
(0 0.0056872 0)
(0 0.0019593 0)
(0 0.00158366 0)
(0 0.00173546 0)
(0 0.00225379 0)
(0 0.00480976 0)
(0 0.0003732 0)
(0 0.00164922 0)
(0 0.00464194 0)
(0 0.00310404 0)
(0 0.00304901 0)
(0 0.000751582 0)
(0 0.00248167 0)
(0 0.000329371 0)
(0 0.00297681 0)
(0 0.00427818 0)
(0 0.000734273 0)
(0 0.00503736 0)
(0 0.00320075 0)
(0 0.00169743 0)
(0 0.00285455 0)
(0 0.00437506 0)
(0 0.00512842 0)
(0 0.000453093 0)
(0 0.00213396 0)
(0 0.00138806 0)
(0 0.00213749 0)
(0 0.00356773 0)
(0 0.00118989 0)
(0 0.00136709 0)
(0 0.00280775 0)
(0 0.00358125 0)
(0 0.00187794 0)
(0 0.00531343 0)
(0 0.000239261 0)
(0 0.00401125 0)
(0 0.00493095 0)
(0 0.00470416 0)
(0 0.000209851 0)
(0 0.00068207 0)
(0 0.00511069 0)
(0 0.00267827 0)
(0 0.00222566 0)
(0 0.00200699 0)
(0 0.00161309 0)
(0 0.00237936 0)
(0 0.000750099 0)
(0 0.00533677 0)
(0 0.000213913 0)
(0 0.00436367 0)
(0 0.00187838 0)
(0 0.00326122 0)
(0 0.0026999 0)
(0 0.00314765 0)
(0 0.00169538 0)
(0 0.00195523 0)
(0 0.00197924 0)
(0 0.00395662 0)
(0 0.0016925 0)
(0 0.000180214 0)
(0 0.000748631 0)
(0 0.0012483 0)
(0 0.00168405 0)
(0 0.0037502 0)
(0 0.00164927 0)
(0 0.00264293 0)
(0 0.00185564 0)
(0 0.00172115 0)
(0 0.00184816 0)
(0 0.000275121 0)
(0 0.00506073 0)
(0 0.00115339 0)
(0 0.00495571 0)
(0 0.00254998 0)
(0 0.00153479 0)
(0 0.00322129 0)
(0 0.00163201 0)
(0 0.00201242 0)
(0 0.00175598 0)
(0 0.00364696 0)
(0 0.0037366 0)
(0 0.00247581 0)
(0 0.00578738 0)
(0 0.00103344 0)
(0 0.00455483 0)
(0 0.000500543 0)
(0 0.0035994 0)
(0 0.00110519 0)
(0 0.00435832 0)
(0 0.00255637 0)
(0 5.39965e-05 0)
(0 0.00332029 0)
(0 0.00317789 0)
(0 0.0027566 0)
(0 0.00494276 0)
(0 0.0011339 0)
(0 0.00212525 0)
(0 0.00540582 0)
(0 0.000353337 0)
(0 0.000683346 0)
(0 0.00160894 0)
(0 0.00532619 0)
(0 0.00424932 0)
(0 0.00252997 0)
(0 0.00156872 0)
(0 0.0034694 0)
(0 0.00224018 0)
(0 0.00174362 0)
(0 0.000654967 0)
(0 0.00322886 0)
(0 0.00106358 0)
(0 0.00493501 0)
(0 0.00545517 0)
(0 0.00144073 0)
(0 0.00161947 0)
(0 0.00150543 0)
(0 0.00161653 0)
(0 0.00222458 0)
(0 0.00338336 0)
(0 0.00114024 0)
(0 0.00132204 0)
(0 0.00310404 0)
(0 0.00235825 0)
(0 0.00154478 0)
(0 0.00268802 0)
(0 0.00146802 0)
(0 0.00145019 0)
(0 0.0047402 0)
(0 0.00363154 0)
(0 0.00472071 0)
(0 0.00138487 0)
(0 0.00333822 0)
(0 0.000878499 0)
(0 0.00170138 0)
(0 0.00289479 0)
(0 0.00250096 0)
(0 0.00150094 0)
(0 0.00307335 0)
(0 0.00509785 0)
(0 0.00459898 0)
(0 0.00172999 0)
(0 0.00418802 0)
(0 0.000746149 0)
(0 0.00101818 0)
(0 0.00199845 0)
(0 0.00404728 0)
(0 0.00115349 0)
(0 0.00344183 0)
(0 0.00199646 0)
(0 0.000167998 0)
(0 0.0025683 0)
(0 0.00316547 0)
(0 0.00227281 0)
(0 0.00555581 0)
(0 0.00412962 0)
(0 0.00577505 0)
(0 0.00106804 0)
(0 0.000934358 0)
(0 0.00250902 0)
(0 0.00154093 0)
(0 0.00194973 0)
(0 0.00202626 0)
(0 0.00236224 0)
(0 0.000350472 0)
(0 0.00109266 0)
(0 0.00242977 0)
(0 0.00144276 0)
(0 0.00307514 0)
(0 0.00276148 0)
(0 0.00325867 0)
(0 0.00180233 0)
(0 0.00368334 0)
(0 0.00140209 0)
(0 0.000920947 0)
(0 0.000175908 0)
(0 0.00177712 0)
(0 0.00237375 0)
(0 0.00148297 0)
(0 0.00449021 0)
(0 0.00350689 0)
(0 0.00178997 0)
(0 0.00157722 0)
(0 0.00392999 0)
(0 0.000124819 0)
(0 0.0017615 0)
(0 0.00458781 0)
(0 0.00259779 0)
(0 0.00562897 0)
(0 0.00279677 0)
(0 0.00125229 0)
(0 0.000297161 0)
(0 0.00525909 0)
(0 0.00497158 0)
(0 0.00292632 0)
(0 0.00427288 0)
(0 0.00451047 0)
(0 0.00305664 0)
(0 0.00374383 0)
(0 0.00234682 0)
(0 0.00375009 0)
(0 0.00480493 0)
(0 0.00224 0)
(0 0.00118597 0)
(0 0.0014202 0)
(0 0.00143713 0)
(0 0.00209532 0)
(0 0.00157657 0)
(0 0.00321224 0)
(0 0.00128128 0)
(0 0.00257065 0)
(0 0.00311504 0)
(0 0.00184286 0)
(0 0.0015957 0)
(0 0.00255464 0)
(0 0.00159111 0)
(0 0.00253343 0)
(0 0.00505489 0)
(0 0.000811996 0)
(0 0.00261888 0)
(0 0.00168185 0)
(0 0.00212254 0)
(0 0.0013615 0)
(0 4.768e-05 0)
(0 0.0048591 0)
(0 0.00123117 0)
(0 0.000863738 0)
(0 0.00122404 0)
(0 0.00115876 0)
(0 0.00315908 0)
(0 0.000741851 0)
(0 0.00367518 0)
(0 0.00157177 0)
(0 0.00283607 0)
(0 0.000446396 0)
(0 0.00533092 0)
(0 0.0013509 0)
(0 0.0010476 0)
(0 0.00170406 0)
(0 0.00176046 0)
(0 0.00134009 0)
(0 0.00176033 0)
(0 0.00117886 0)
(0 0.00171639 0)
(0 0.00532346 0)
(0 0.000812434 0)
(0 0.00333181 0)
(0 0.000185129 0)
(0 0.00208981 0)
(0 0.00466836 0)
(0 0.00179118 0)
(0 0.00137143 0)
(0 0.0025711 0)
(0 0.00477059 0)
(0 0.00259423 0)
(0 0.00106908 0)
(0 0.00496152 0)
(0 0.00163925 0)
(0 0.000214998 0)
(0 0.00551375 0)
(0 0.000618643 0)
(0 0.0026598 0)
(0 0.000448603 0)
(0 0.000705774 0)
(0 0.0016246 0)
(0 0.00136805 0)
(0 0.000353927 0)
(0 0.00193476 0)
(0 0.00517195 0)
(0 0.00423257 0)
(0 0.00211145 0)
(0 0.00122283 0)
(0 0.00123239 0)
(0 0.00524447 0)
(0 0.00107467 0)
(0 0.00195649 0)
(0 0.00467335 0)
(0 0.00179645 0)
(0 0.00175277 0)
(0 0.00136235 0)
(0 0.000692962 0)
(0 0.00470715 0)
(0 0.00313297 0)
(0 0.00129006 0)
(0 0.00549309 0)
(0 0.00463744 0)
(0 0.00192178 0)
(0 0.00525651 0)
(0 0.00472426 0)
(0 0.00461607 0)
(0 9.04063e-05 0)
(0 5.65456e-05 0)
(0 0.00245296 0)
(0 0.00299028 0)
(0 0.00398002 0)
(0 0.00215096 0)
(0 0.00151716 0)
(0 0.00173529 0)
(0 0.00187067 0)
(0 0.00167593 0)
(0 0.00153749 0)
(0 0.00487841 0)
(0 0.00128529 0)
(0 0.00182761 0)
(0 0.00495722 0)
(0 0.00527764 0)
(0 0.00384844 0)
(0 0.00462327 0)
(0 0.00141228 0)
(0 0.0048636 0)
(0 0.00310941 0)
(0 0.00181789 0)
(0 0.00280307 0)
(0 0.00190884 0)
(0 0.00444106 0)
(0 0.00307087 0)
(0 0.00201692 0)
(0 0.00100239 0)
(0 0.00355894 0)
(0 0.000366682 0)
(0 0.00299286 0)
(0 0.00523846 0)
(0 0.0012835 0)
(0 0.00470162 0)
(0 0.00187452 0)
(0 8.27311e-05 0)
(0 0.00162959 0)
(0 0.00568482 0)
(0 0.00177793 0)
(0 0.000723665 0)
(0 0.00211973 0)
(0 0.00171648 0)
(0 0.00390589 0)
(0 7.82231e-05 0)
(0 0.0017205 0)
(0 0.00190607 0)
(0 0.00352804 0)
(0 0.00491296 0)
(0 0.00529589 0)
(0 8.60606e-05 0)
(0 0.00238406 0)
(0 0.000150802 0)
(0 0.00251483 0)
(0 0.00207306 0)
(0 0.00155089 0)
(0 0.00343322 0)
(0 6.33552e-05 0)
(0 0.00253167 0)
(0 0.00163666 0)
(0 0.00222487 0)
(0 0.00181451 0)
(0 0.00208693 0)
(0 0.00178341 0)
(0 0.00443526 0)
(0 0.00265067 0)
(0 0.00188694 0)
(0 0.00184503 0)
(0 0.00375475 0)
(0 0.000358168 0)
(0 0.00212773 0)
(0 0.00232403 0)
(0 0.00226124 0)
(0 0.00313312 0)
(0 0.00168535 0)
(0 0.00465309 0)
(0 0.000986291 0)
(0 0.00220937 0)
(0 0.00168355 0)
(0 0.00013367 0)
(0 0.00250888 0)
(0 0.000358035 0)
(0 0.00185876 0)
(0 0.00203983 0)
(0 0.00190398 0)
(0 0.00151686 0)
(0 0.00212176 0)
(0 0.00150567 0)
(0 0.00399406 0)
(0 0.00211559 0)
(0 0.0043173 0)
(0 0.00373451 0)
(0 0.00459149 0)
(0 0.00211924 0)
(0 0.00224358 0)
(0 0.00148845 0)
(0 0.00241693 0)
(0 0.00208092 0)
(0 0.000369309 0)
(0 0.00361978 0)
(0 0.00174814 0)
(0 0.00293871 0)
(0 0.00219349 0)
(0 0.000449367 0)
(0 0.00415583 0)
(0 0.000431816 0)
(0 0.00192401 0)
(0 0.00157628 0)
(0 0.0022642 0)
(0 0.0015441 0)
(0 0.00148697 0)
(0 0.0024494 0)
(0 0.00155194 0)
(0 0.00218605 0)
(0 0.00384671 0)
(0 0.00352169 0)
(0 0.00236316 0)
(0 0.00135149 0)
(0 0.00189815 0)
(0 0.00018061 0)
(0 0.00218103 0)
(0 0.00214278 0)
(0 0.00474574 0)
(0 0.00377296 0)
(0 0.00315081 0)
(0 0.000698645 0)
(0 0.00196486 0)
(0 0.00376045 0)
(0 7.76563e-05 0)
(0 0.00129109 0)
(0 0.00123823 0)
(0 0.00397757 0)
(0 0.00165678 0)
(0 0.00240667 0)
(0 0.00224761 0)
(0 0.00160967 0)
(0 0.00450321 0)
(0 0.00376366 0)
(0 0.00153955 0)
(0 0.00134032 0)
(0 0.00014237 0)
(0 0.00516597 0)
(0 0.00460606 0)
(0 0.00166224 0)
(0 0.00276045 0)
(0 0.00138643 0)
(0 0.00141611 0)
(0 0.00181132 0)
(0 0.00128471 0)
(0 0.00189387 0)
(0 0.00209565 0)
(0 0.00138505 0)
(0 0.00536597 0)
(0 0.00229781 0)
(0 0.00206562 0)
(0 0.00180537 0)
(0 0.00129885 0)
(0 0.00174728 0)
(0 0.00272554 0)
(0 0.00442674 0)
(0 0.00200003 0)
(0 0.00166233 0)
(0 0.00179939 0)
(0 0.00130388 0)
(0 0.00286762 0)
(0 0.00212496 0)
(0 0.00420802 0)
(0 0.00174928 0)
(0 0.00147504 0)
(0 0.00156241 0)
(0 0.00478299 0)
(0 0.0008345 0)
(0 0.00245559 0)
(0 0.00123848 0)
(0 0.00157858 0)
(0 0.00151126 0)
(0 0.00034381 0)
(0 0.00265795 0)
(0 0.00464853 0)
(0 0.00476627 0)
(0 0.000957155 0)
(0 0.00354483 0)
(0 0.00077381 0)
(0 0.00527012 0)
(0 0.00212071 0)
(0 0.0035927 0)
(0 0.00207536 0)
(0 0.000175536 0)
(0 0.00426611 0)
(0 0.00142415 0)
(0 0.002251 0)
(0 0.000825582 0)
(0 0.00166759 0)
(0 0.0042245 0)
(0 0.00109372 0)
(0 0.003634 0)
(0 0.00215012 0)
(0 0.00152347 0)
(0 0.00229535 0)
(0 0.00319449 0)
(0 0.00222747 0)
(0 0.00218953 0)
(0 0.00371211 0)
(0 0.002547 0)
(0 0.00563859 0)
(0 0.00309771 0)
(0 0.00221281 0)
(0 0.0018397 0)
(0 0.00425585 0)
(0 0.00234019 0)
(0 0.00107048 0)
(0 0.00200622 0)
(0 0.00324451 0)
(0 0.00450874 0)
(0 0.00204654 0)
(0 0.00132536 0)
(0 0.00191812 0)
(0 0.00521184 0)
(0 0.00269364 0)
(0 0.00265205 0)
(0 0.00233108 0)
(0 0.00192119 0)
(0 0.00203354 0)
(0 0.00596357 0)
(0 0.00238032 0)
(0 0.00121894 0)
(0 0.000329198 0)
(0 0.00515792 0)
(0 0.00179918 0)
(0 0.00111323 0)
(0 0.00131717 0)
(0 0.00212787 0)