/*--------------------------------*- C++ -*----------------------------------*\
| =========                 |                                                 |
| \\      /  F ield         | OpenFOAM: The Open Source CFD Toolbox           |
|  \\    /   O peration     | Version:  v2012                                 |
|   \\  /    A nd           | Website:  www.openfoam.com                      |
|    \\/     M anipulation  |                                                 |
\*---------------------------------------------------------------------------*/
FoamFile
{
    version     2.0;
    format      ascii;
    class       volVectorField;
    location    "450";
    object      ddt0(U);
}
// * * * * * * * * * * * * * * * * * * * * * * * * * * * * * * * * * * * * * //

dimensions      [0 1 -2 0 0 0 0];


internalField   nonuniform List<vector> 
10042
(
(0.00636452 -0.00271483 -5.9934e-19)
(-0.0799139 -0.35217 2.48619e-17)
(0.00991461 -0.0393613 -3.03544e-19)
(0.00182507 -1.30061e-06 1.82131e-19)
(-0.00382419 -4.90954e-07 1.54119e-19)
(-0.0450375 0.0703212 1.41301e-18)
(-0.189936 0.0512685 -2.46178e-18)
(-0.0306794 0.0475806 2.87543e-20)
(-0.00020481 -7.15293e-05 -1.21488e-19)
(-0.00338608 0.00951564 1.15228e-18)
(0.0175591 -0.0111192 7.30259e-19)
(-0.0598132 -0.357512 -7.11482e-17)
(0.00342357 0.0146543 -9.24702e-20)
(-0.00154103 -0.000645494 -4.33702e-20)
(0.0022583 0.00116289 5.6557e-19)
(-0.00129961 -0.000667569 -3.48948e-19)
(-0.0759736 0.06386 -1.79465e-19)
(0.0143136 -0.0160172 1.51547e-19)
(-0.00274263 0.00383183 2.51475e-18)
(-0.0112298 -0.00609262 -1.35221e-18)
(0.00203225 0.0155802 3.89479e-19)
(0.00654803 -0.00178118 2.69396e-19)
(-0.00162589 -6.17582e-06 -1.45696e-19)
(-0.00221928 -0.143189 -6.04851e-18)
(-0.000750692 -0.00014986 -4.39191e-19)
(-0.000403766 1.94964e-06 3.31523e-20)
(-0.00798862 0.010253 -1.95488e-18)
(0.000141831 3.72769e-05 1.37036e-19)
(-0.0597805 0.0788376 2.27177e-20)
(0.0530823 -0.188792 1.40186e-17)
(0.000480401 3.31046e-06 -6.70181e-19)
(0.0194326 -0.000768346 -4.69116e-18)
(-0.000892431 -3.50525e-05 3.02614e-19)
(-0.00142716 -1.62476e-05 8.33409e-19)
(-0.0269386 0.0607231 -1.77775e-19)
(-0.0269479 0.100416 1.89229e-18)
(-0.00598039 4.2931e-05 6.03825e-20)
(0.000543871 5.63844e-06 -5.41849e-19)
(-0.00094835 1.35591e-05 -2.95821e-19)
(-0.00183205 -0.00318415 1.25127e-19)
(0.0405493 -0.197323 -1.05292e-17)
(-0.000807937 -7.15119e-05 6.95318e-21)
(0.0700265 0.0676128 6.27008e-19)
(-0.0617053 -0.345063 -8.86672e-19)
(-0.000937937 -0.000244278 -2.00173e-19)
(0.00238835 -0.000165546 3.50876e-19)
(0.000190514 0.000257218 4.11019e-19)
(0.0039104 0.00108058 2.85105e-20)
(-0.0262352 0.00205848 5.52824e-19)
(0.200579 0.181929 1.45024e-18)
(0.0742527 0.0786138 -6.6287e-19)
(-0.000132055 -3.8438e-05 2.82923e-20)
(-0.0714739 0.0642848 -3.06029e-20)
(-0.00237812 0.00375432 -3.67991e-19)
(0.235642 -0.0632775 2.29957e-17)
(-0.0403853 -0.134287 -8.58109e-19)
(0.00248049 0.0144692 -5.48601e-20)
(0.00407682 -0.000763283 -8.43322e-19)
(-0.00377195 0.00145179 1.4954e-19)
(-0.000223677 -0.000343746 -7.81985e-21)
(-0.0224779 -0.000957099 6.35326e-19)
(0.146843 -0.449116 -3.68107e-18)
(0.0551229 0.0631514 1.34674e-20)
(-0.0266785 0.0340193 2.89061e-19)
(0.000476171 -0.00101271 -5.94492e-19)
(8.54186e-05 0.000374485 -1.8869e-18)
(-0.00888026 -0.0074275 4.75721e-19)
(0.00675328 -0.0083687 3.15979e-19)
(6.37526e-05 0.000356926 1.76769e-19)
(0.00661907 -0.00704837 -2.52922e-19)
(0.101961 0.0822292 4.60359e-19)
(-0.00131267 0.000478175 -1.27051e-18)
(7.08797e-05 -0.000299138 5.3875e-20)
(-0.00288322 0.00135545 -1.30171e-19)
(-0.0015565 0.000355577 4.58098e-19)
(0.0921642 0.0734484 -8.02817e-19)
(-0.00372788 -0.00160221 2.09432e-21)
(0.000179369 0.000282121 -3.2745e-19)
(-0.00405482 -0.00164226 5.15457e-20)
(-0.00276485 0.00353499 -1.74232e-18)
(-0.0925316 -0.344911 3.687e-18)
(0.0165908 -0.172097 8.55349e-18)
(-0.00142775 -4.19054e-06 2.36983e-19)
(0.00243809 1.12381e-05 -8.2287e-20)
(-0.0186753 0.0106993 -6.99515e-19)
(-0.0432383 -0.0398477 2.678e-18)
(-0.0085777 -0.0071607 -2.38939e-19)
(0.0152299 -0.0355084 -2.08149e-19)
(0.00341718 0.000549607 1.76585e-19)
(-0.000965776 -0.00167211 3.88625e-20)
(0.000290922 0.00879951 4.88821e-19)
(0.00137515 0.00117649 2.01052e-19)
(0.0481776 0.0658464 2.07929e-19)
(-0.0331679 -0.059732 -2.10619e-18)
(0.00427865 -0.00253321 -4.57125e-19)
(0.000834359 -0.000546067 6.94834e-19)
(-0.128285 0.190065 -9.81937e-19)
(-0.0098212 -0.00605312 1.6186e-18)
(0.0589848 -0.0712425 1.658e-18)
(-0.00042955 0.00135379 1.2999e-20)
(-0.00137145 0.00829008 -1.12154e-18)
(0.00900382 0.00511775 1.67783e-18)
(-0.00928993 0.000562957 -2.72783e-19)
(0.0126887 -0.000578767 9.27297e-19)
(-0.00320951 0.00609227 1.12014e-18)
(-0.00128387 0.000411287 4.08433e-20)
(-0.120147 0.652409 -4.29438e-17)
(-0.000978175 0.00016943 -1.79698e-19)
(-0.199023 0.00297176 -1.74302e-18)
(-0.00470045 0.000500688 6.56781e-19)
(0.000262892 0.00108384 4.87501e-20)
(-0.165197 -0.0266374 5.11622e-18)
(0.00859175 0.0100484 1.87767e-20)
(-0.0280323 0.0413289 -4.63376e-19)
(0.000771664 -0.000692605 -7.7875e-19)
(0.000272955 0.000483797 -7.66717e-19)
(-0.000846032 0.00226944 8.12959e-19)
(-0.00134861 1.81128e-06 -1.50214e-19)
(0.00338896 0.000624108 -8.50796e-20)
(8.5471e-05 0.000508888 4.90927e-19)
(-0.000289021 -0.000371795 1.81857e-20)
(-0.0152502 -0.225962 -2.3937e-17)
(0.00904784 -0.218563 1.05536e-18)
(0.00161824 -0.000273226 1.49937e-19)
(-0.00115748 -0.00189705 2.5482e-19)
(0.00113457 0.000676016 8.02803e-19)
(-0.00298988 0.000749912 -7.98814e-20)
(0.163058 -0.206311 2.55592e-17)
(0.0745886 0.018042 1.59887e-19)
(-0.000207978 0.00214347 -7.35381e-19)
(0.000360408 1.38622e-06 5.31013e-20)
(0.00109725 0.000413079 1.00834e-18)
(0.000251092 0.000852899 2.8166e-19)
(0.00146625 -0.000264686 -2.76178e-20)
(-0.16119 -0.0646799 1.23342e-19)
(0.080797 0.15853 -1.48446e-19)
(-0.00509542 -0.0104643 -8.93153e-20)
(-0.00694612 0.858869 3.64161e-17)
(-0.00558254 0.00358579 3.40504e-19)
(0.0449043 -0.0760734 -9.52115e-19)
(0.0241485 0.0441363 3.27704e-19)
(-5.11079e-05 -3.01955e-05 1.75477e-19)
(-0.0735805 0.924757 2.96629e-17)
(0.0001673 3.23473e-05 6.36256e-20)
(-0.00685667 0.00684479 -6.64748e-20)
(0.000798578 4.58323e-06 6.05872e-19)
(-0.0186293 0.00931695 -1.29612e-18)
(1.66308e-05 0.000351923 -2.16132e-19)
(-0.009448 -0.00166087 -2.43227e-19)
(0.0413498 0.1288 1.0625e-19)
(0.00116312 0.000210937 -1.80034e-19)
(0.00069985 -1.07048e-05 -1.58266e-19)
(0.00228894 0.00416804 -8.16153e-20)
(0.00931939 0.0183337 4.73357e-20)
(0.00430226 -0.00184534 -2.17311e-19)
(-0.00736419 0.00677503 -5.03141e-19)
(0.0708683 0.0203163 -2.68865e-18)
(-0.0575666 -0.104894 -7.05293e-19)
(0.000175415 0.000953847 -2.13892e-19)
(-0.000342078 4.16916e-06 -7.76274e-20)
(-0.000707144 -1.12737e-05 2.52738e-19)
(-0.00168414 -0.00353804 -1.03208e-19)
(0.0487707 0.189106 3.0001e-18)
(-0.000333748 0.000620995 -8.75054e-19)
(-0.00677008 0.0029465 1.74613e-19)
(0.0258108 0.142388 9.51958e-19)
(4.2973e-05 -0.000225084 3.57484e-19)
(0.0145544 0.000278256 1.17944e-18)
(-0.0318891 0.0846395 -4.4725e-18)
(-0.00140855 1.27537e-05 1.05164e-19)
(-0.0115108 0.0150422 -1.57878e-19)
(0.061828 -0.179359 -1.30308e-17)
(0.0531479 -0.0287036 -6.0861e-19)
(-0.00157658 9.6599e-06 -2.67214e-19)
(-0.00229209 0.00400623 -1.07183e-18)
(0.0292458 -0.108887 -3.85736e-18)
(-0.00160014 -0.00023309 7.80786e-20)
(0.000868373 7.62941e-07 6.29919e-19)
(0.000184812 0.000364587 1.37903e-20)
(-7.45783e-05 0.000329994 -7.83379e-19)
(-0.0076906 0.00342359 -5.30777e-19)
(-0.00493504 0.00703328 -2.81228e-19)
(-0.00254492 0.00144685 3.78539e-19)
(0.000451714 0.000360722 -1.353e-19)
(-0.0160107 -0.00336262 8.29255e-20)
(0.00309595 0.00554246 9.25775e-19)
(-0.00122854 0.000890247 8.06262e-19)
(-0.000183934 -0.000261967 -2.98088e-20)
(0.204058 0.0226736 5.40332e-18)
(0.000678158 -4.55032e-05 -2.08088e-19)
(-0.0711828 -0.403831 1.86383e-18)
(0.000935676 0.0149505 3.35664e-20)
(-0.000552217 5.28332e-06 3.32366e-20)
(-0.00268602 0.00659572 2.01693e-20)
(0.0576619 -0.232756 -4.40252e-18)
(0.00184711 0.00114949 -5.20546e-19)
(0.104157 0.0141821 1.18715e-18)
(-0.028063 0.012344 -2.31956e-19)
(0.0809265 0.324 -2.2511e-19)
(0.00160793 8.68836e-06 1.34425e-19)
(0.083269 0.0176853 3.07719e-18)
(0.0345649 0.0541569 1.14644e-18)
(-0.0332326 0.00588464 -6.04305e-20)
(0.00133701 3.18622e-05 -6.33072e-20)
(0.0551504 -0.09767 6.83986e-19)
(0.00108805 0.000731741 -2.381e-19)
(-0.0169426 -0.0270862 -4.43866e-18)
(0.00576569 0.0179195 1.72272e-19)
(0.00326324 0.000937473 7.8268e-20)
(0.00108059 -0.000389166 -9.5047e-19)
(0.0163273 -0.00119769 9.65555e-19)
(0.0010465 4.63455e-05 5.4325e-19)
(-0.046173 -0.00435428 -1.24252e-20)
(-0.0205838 0.0214198 3.04489e-19)
(-0.00723436 1.35802e-05 -3.88972e-19)
(0.00423813 -0.00664622 -2.21291e-19)
(0.00046929 8.04207e-05 1.07257e-19)
(0.116099 0.053816 2.98595e-18)
(0.00273827 -6.22122e-05 -2.41169e-19)
(0.0810623 0.0208285 -2.71462e-18)
(0.0960827 0.0253075 -8.06982e-19)
(-0.00802123 0.0108143 9.10313e-19)
(0.0884884 0.0233808 2.24868e-18)
(0.00541587 -0.00642279 2.51797e-19)
(0.00274035 -3.46438e-05 -2.04943e-19)
(0.0406687 0.0536048 -1.87634e-18)
(-0.00435163 -0.00176939 -2.15816e-19)
(-0.00627318 -0.00960995 4.38171e-19)
(-0.0139699 0.00913598 2.75568e-18)
(-0.00879747 0.000709526 -3.69078e-19)
(0.000672464 5.4133e-07 -1.19693e-19)
(-0.00158472 0.00081247 3.8893e-19)
(0.00169526 0.00610283 1.23217e-19)
(-0.000599774 -3.37292e-06 7.32322e-20)
(-0.00221057 -0.00024502 1.45255e-19)
(-0.0344027 0.057721 -8.42614e-19)
(-0.00471908 -0.00842886 1.82e-18)
(-0.0295719 0.281946 1.4614e-18)
(-0.00620473 0.00641272 -5.04414e-19)
(0.00614994 -0.145117 1.50534e-17)
(0.0924714 0.0751634 -2.58221e-19)
(-0.0235483 0.0359304 1.26115e-18)
(-0.000274795 -0.000433738 5.67491e-21)
(-0.00230577 -0.00380496 1.52243e-19)
(0.218569 0.390646 4.01272e-18)
(-0.00382289 -1.31737e-06 1.05218e-19)
(-0.0399184 0.0260238 -2.75217e-18)
(-0.0057002 0.00589466 1.05346e-19)
(0.00273908 0.00443348 5.45822e-19)
(-0.0031824 8.16022e-06 4.39939e-20)
(-0.00302008 0.00553015 -5.49742e-19)
(-0.000312204 1.03961e-05 -3.22179e-19)
(0.00276326 0.0262975 -1.42175e-19)
(0.298664 0.0677405 7.78559e-18)
(-0.00995389 -0.00174375 7.25689e-19)
(-0.00260784 -0.00760368 5.87741e-19)
(0.00149912 -3.19337e-05 1.88036e-19)
(-0.00803689 -0.00319595 -5.35434e-19)
(-0.167153 0.162318 2.00426e-19)
(0.0024553 -9.32787e-05 -5.27491e-19)
(-0.000285859 -0.00193963 -1.77838e-19)
(-0.00052182 -7.18765e-05 -4.56436e-21)
(-3.3864e-05 -3.53555e-05 -1.02183e-18)
(0.000215309 0.000255127 1.50602e-18)
(0.0032308 0.0151893 -7.76018e-20)
(0.27953 0.167693 -4.07486e-18)
(-0.000119214 -0.00124996 9.64274e-20)
(0.00343096 0.0217858 -6.02178e-19)
(0.00509414 -1.70065e-05 5.18801e-20)
(-1.3512e-05 0.000817373 -1.89214e-19)
(0.00538879 0.000391294 -3.69904e-19)
(0.152846 0.206427 -8.35484e-19)
(-0.00170618 -0.00049403 -1.84154e-19)
(0.11943 0.0706269 8.6492e-19)
(-0.00619017 -0.00305711 -1.55842e-19)
(0.00242303 0.00344524 -1.0884e-18)
(0.00359261 0.00219439 -1.71292e-19)
(-0.00280272 -0.000164876 -1.75023e-19)
(0.0050785 -3.82506e-06 4.19663e-19)
(0.0100122 -0.128389 8.88743e-18)
(-0.000337904 3.83645e-05 7.43584e-19)
(-0.0410914 0.132629 4.70772e-19)
(0.109022 0.0111136 1.26332e-18)
(-0.00158119 0.00207282 8.14433e-19)
(-0.0220432 2.37668e-05 -1.48205e-19)
(0.0417863 0.0235192 2.37355e-18)
(7.44219e-05 0.00396317 -2.2407e-19)
(0.00012268 0.000299593 -2.93566e-19)
(0.0069748 -0.000236177 -3.9064e-20)
(0.00100247 -3.97137e-06 -3.69181e-20)
(-0.00191383 0.0140896 -8.25144e-20)
(-0.00272255 0.00334166 -3.17069e-19)
(-0.00766079 1.35762e-05 -2.0944e-19)
(-0.0197581 0.137524 -1.0686e-18)
(-2.86141e-05 -0.000875587 -2.03013e-19)
(0.000424514 -0.000802024 -4.26556e-20)
(-0.0723809 0.0211852 -1.48856e-19)
(-0.0048901 -0.0096417 -1.60975e-18)
(0.00495027 0.000394953 -3.45505e-19)
(0.000497151 7.03669e-05 -5.34637e-19)
(-0.0018938 0.00401687 3.96704e-20)
(-0.0329661 0.022055 3.97873e-19)
(-0.000146127 -0.000260818 -1.86771e-20)
(0.104289 0.0425118 -5.25721e-19)
(0.000574516 0.00334159 1.63021e-19)
(0.196852 -0.29118 3.48753e-18)
(-0.00182099 -0.000524657 -9.55772e-20)
(-0.00229777 -0.00421376 -4.81313e-20)
(-0.0831748 0.0261466 -4.61023e-22)
(-0.0219329 0.152263 5.30596e-19)
(-0.00103305 4.75373e-05 1.10656e-19)
(0.00211854 -0.000134169 -7.33769e-20)
(-0.00148534 -0.000387232 -6.06732e-19)
(0.000350481 -0.00073298 -1.91175e-20)
(-0.00316662 0.0035515 1.19249e-19)
(0.00722553 0.000763028 -9.04103e-19)
(0.000150395 0.000228899 -1.98575e-18)
(-0.0136592 -0.00491071 1.4821e-19)
(0.040495 -0.18398 1.32808e-17)
(0.000234691 0.000474209 1.70032e-19)
(0.000700364 4.93081e-06 1.78484e-19)
(0.139716 0.0679222 -2.14004e-19)
(0.00125902 0.00336408 3.45709e-19)
(-0.0120575 -0.0284645 5.24145e-20)
(-0.0132648 -0.00490758 -3.93685e-21)
(-0.00740263 2.34748e-05 1.2426e-19)
(-0.00738867 -0.00231962 -1.50916e-19)
(0.000643813 0.000377659 2.71375e-19)
(-0.00579183 -0.00876164 -5.32458e-19)
(-0.00346359 0.012985 6.85337e-20)
(0.00117442 0.000611381 2.12146e-21)
(0.00361851 0.000280812 2.47783e-19)
(0.00544474 -0.00309781 8.59832e-19)
(-0.000232943 1.62448e-06 -6.45742e-19)
(-0.00109472 -0.0876626 -1.81984e-18)
(0.00741647 -0.000937773 -3.69074e-19)
(-0.015091 0.876284 -1.65097e-17)
(-0.00588258 -0.0241111 -4.68917e-20)
(-0.00137129 1.62851e-05 3.66192e-19)
(0.0139411 0.124625 -5.04682e-18)
(0.0186803 0.0480436 -3.20455e-19)
(-0.000951098 0.0172082 6.28167e-21)
(-0.000296605 -0.000457548 -6.26938e-21)
(-0.00472777 0.000866416 -1.55225e-19)
(0.00193327 -1.82828e-05 -5.65252e-20)
(0.000723367 -5.01133e-06 -5.99993e-20)
(6.78522e-05 -0.000373043 -5.48006e-19)
(-0.000270955 -4.66711e-06 -1.50551e-18)
(-0.00318765 0.00253969 5.58851e-20)
(0.00476536 0.314832 -1.66841e-18)
(0.00385977 0.00169058 6.99385e-19)
(0.00446032 -0.00369546 1.78859e-19)
(-0.00359457 0.00250322 1.75548e-19)
(-4.12548e-05 -0.000475402 2.64337e-19)
(0.177395 -0.336488 1.25575e-17)
(-0.00880521 -0.00148076 3.754e-19)
(-0.00497998 -0.00139825 6.00708e-19)
(-0.00076781 1.41018e-05 -1.08356e-19)
(0.0938678 0.0163919 6.86041e-19)
(0.00056124 -2.54001e-07 4.6595e-19)
(2.91573e-05 0.000408163 1.57115e-20)
(-0.00613921 3.04782e-05 -3.66287e-19)
(-0.00666589 0.00300639 2.64449e-19)
(0.0595583 -0.216657 -2.84872e-18)
(-0.00607231 0.125307 5.32866e-20)
(-0.0054951 0.00307539 1.66859e-19)
(0.00197382 3.21523e-06 1.71097e-19)
(-0.00144315 0.00214327 4.86617e-20)
(-0.00119831 0.00226078 1.55082e-19)
(0.0435839 -0.633956 3.46531e-17)
(-0.000219456 -0.0002914 2.87742e-20)
(0.0032448 -1.0197e-05 -1.38854e-19)
(-0.00174004 -0.000473714 1.9296e-19)
(1.85978e-05 -6.38178e-05 2.1469e-22)
(-0.0314252 -0.0290368 5.20378e-18)
(-0.000834788 -0.000382147 2.17949e-20)
(0.00294773 0.00243191 -3.75863e-20)
(-0.00488102 0.175203 -3.48007e-19)
(0.0811321 0.597654 -4.14448e-17)
(-0.0344041 -0.0189005 -4.32466e-18)
(0.00102564 0.000263474 2.2127e-19)
(0.0332591 0.159183 -4.86516e-19)
(-0.0151594 0.010543 6.75864e-19)
(-1.89862e-05 0.000320705 2.62507e-19)
(0.0205091 0.0184593 4.50563e-19)
(8.95383e-05 0.000523717 -2.12098e-19)
(-0.000756904 1.13817e-06 6.98281e-19)
(0.000449382 0.000449454 -6.50257e-20)
(0.000899769 0.000821057 -2.37897e-19)
(0.000198593 0.00025773 5.14481e-21)
(-0.00600995 -0.00331486 6.20107e-19)
(0.0310227 -0.0685268 -1.72215e-18)
(0.00366163 0.00168477 -2.95808e-19)
(-0.00541559 -0.00740938 -5.80355e-20)
(-0.0103076 0.101366 1.23992e-18)
(0.293507 0.0193131 -2.69595e-18)
(-0.00139782 3.39514e-05 3.7165e-21)
(-0.0260377 0.053001 2.1591e-20)
(-0.0244411 3.68862e-05 -6.89422e-19)
(0.0197494 0.00133839 2.3573e-18)
(0.00072967 -3.48796e-05 -2.0785e-20)
(0.0702441 0.0287827 -4.34229e-19)
(-0.00189343 0.00324427 -8.85302e-19)
(0.243545 -0.131781 -2.61932e-17)
(-0.106242 0.146239 1.64232e-18)
(-0.000237917 -0.000515531 -1.51488e-19)
(0.0112432 0.0441947 3.67443e-19)
(0.000413722 -0.00090129 2.33115e-19)
(0.0794059 0.0739641 -2.50251e-21)
(-0.00381169 -0.0031101 8.57706e-19)
(-0.0773876 -0.00908899 -3.0185e-19)
(-0.00882923 0.00871334 -4.32201e-20)
(-0.0330254 0.0916398 -3.22621e-18)
(0.00658416 0.00162103 -4.77544e-19)
(-0.040534 0.00448728 -3.05523e-20)
(0.000291233 0.00147381 9.57026e-21)
(-0.0101478 0.007359 -7.6743e-19)
(0.105369 -0.460366 -1.72959e-17)
(0.000306267 0.000159708 -1.8387e-19)
(0.00123848 0.00133498 2.56286e-19)
(-0.000354065 -4.566e-06 2.58924e-19)
(-0.0268954 0.0990062 -1.43134e-18)
(0.000247486 -2.8191e-06 -1.20697e-19)
(0.000405655 0.000338143 1.95383e-20)
(0.0305854 0.045766 4.63335e-20)
(0.00079939 0.00129986 8.63444e-19)
(-0.0150526 0.0127033 -1.67866e-18)
(-0.0760053 -0.00999516 1.0667e-18)
(0.00254912 -7.61815e-05 1.64364e-19)
(0.00118588 0.0171197 -1.87674e-19)
(0.00126348 0.00142244 -7.38794e-19)
(8.18444e-05 0.000329136 -2.13337e-19)
(-0.00885716 0.0085763 1.22413e-18)
(-0.028619 0.0967317 8.84221e-18)
(0.000191498 -0.000707707 -2.64349e-19)
(-0.00372945 0.00282462 -4.14278e-20)
(-0.336642 0.0453824 -3.67411e-17)
(0.00364886 0.00200082 -1.2286e-18)
(7.05701e-05 3.12272e-06 8.14023e-20)
(-0.00767968 -0.110559 -5.32202e-18)
(0.000298135 7.52588e-06 3.40769e-19)
(-0.0050318 0.00331628 -3.0592e-19)
(0.000297451 -0.0208962 4.01625e-19)
(0.162101 0.0445485 -4.02476e-18)
(0.119857 0.158698 4.58073e-19)
(-0.0225683 0.00463779 -1.19315e-19)
(-0.0417928 -0.00114156 5.24208e-19)
(0.0135833 0.166758 -4.07094e-18)
(-0.025241 0.0388141 1.31366e-19)
(0.000165793 0.000323543 -1.05369e-19)
(0.000543435 0.00392481 5.66254e-19)
(-0.10999 -0.0434745 1.65611e-18)
(-0.115028 -0.0682532 -1.0562e-18)
(0.0174855 0.0178437 2.19132e-19)
(-0.00406649 -1.91647e-05 -3.54874e-19)
(0.000494182 -0.000345841 7.64714e-19)
(0.00170994 -0.00171995 -6.04171e-20)
(0.0167246 -0.0670304 3.65805e-20)
(0.000631687 0.000412183 -6.78809e-20)
(-0.0014807 -0.00197808 2.23885e-21)
(-0.00421442 -1.20361e-05 -3.69603e-19)
(-0.00246673 3.49255e-05 5.30326e-19)
(0.00133487 0.000612355 1.46586e-19)
(0.00119729 0.000666606 -3.34622e-19)
(7.81182e-05 0.000764294 1.65907e-19)
(-0.00314269 2.08539e-05 1.04924e-19)
(0.00707922 -0.00173861 -1.35489e-19)
(-0.000906441 0.00191282 1.665e-18)
(-0.00534323 0.00350991 3.6737e-19)
(-0.00519367 0.0104292 -5.59232e-20)
(-0.0253379 0.172197 3.28433e-18)
(0.000143386 -3.28642e-05 -3.90707e-19)
(0.0712432 -0.00804127 2.7638e-18)
(-0.360532 0.140522 8.12118e-18)
(0.0496655 0.0453498 -1.94588e-20)
(-0.000132992 -3.08614e-06 4.38281e-19)
(-1.99427e-05 0.00185501 7.94865e-19)
(0.000699922 5.73031e-06 6.02904e-20)
(0.290108 0.0296113 -5.74433e-20)
(0.00417372 0.000482065 -3.92746e-20)
(-0.023605 0.00809907 -5.5815e-19)
(0.00634322 0.00163905 1.48877e-19)
(0.045774 -0.0542059 -1.74871e-19)
(0.000168564 -2.00298e-05 -1.98112e-19)
(-0.00252161 0.00518868 -6.53452e-19)
(-0.00129768 -0.00211488 -1.10208e-19)
(-0.000332605 0.00352859 -7.81746e-19)
(-0.034676 -0.0944847 9.98676e-19)
(-4.33827e-05 6.83028e-06 6.09124e-19)
(0.00204231 3.99177e-05 -4.52785e-19)
(0.00070418 -0.000264518 1.92487e-19)
(-0.0305148 -0.448681 -9.29955e-18)
(-0.000523052 -4.12097e-05 7.65956e-19)
(-0.0108665 0.00436648 1.89662e-19)
(0.0269545 -0.0193312 6.52668e-19)
(0.00501296 0.0460989 1.56221e-18)
(-0.000356254 -0.000361097 -2.61816e-19)
(-0.0136036 0.00730425 -4.92363e-19)
(0.00230332 0.126165 1.63152e-18)
(-0.285997 0.0843275 5.99421e-19)
(0.00196158 0.000740071 1.89953e-19)
(0.00171826 -1.46898e-05 -2.77738e-20)
(-0.0486164 0.113434 3.85487e-18)
(0.000221562 -0.428101 -1.74967e-17)
(-0.0182284 0.0125532 -2.26063e-18)
(0.0163309 0.0572528 9.5095e-19)
(0.00128398 -2.39642e-05 -2.70414e-19)
(-0.00761547 -0.00846666 1.32197e-19)
(-0.0152896 0.00796332 -2.49997e-19)
(-0.0113363 0.00622139 -7.58342e-19)
(-0.00645367 0.00510847 -2.92724e-20)
(-0.0371729 0.015031 1.68203e-18)
(-0.000341127 -0.000303471 1.03877e-19)
(-0.00234838 -7.31089e-05 1.18163e-20)
(-0.00404599 0.000755685 6.22009e-19)
(0.00786995 0.141639 -1.69369e-18)
(0.0060543 -0.000269012 2.99026e-20)
(0.055844 0.104587 -5.96244e-20)
(0.00604116 3.63069e-05 5.77929e-19)
(0.00149123 0.000780583 7.92803e-20)
(0.000142898 1.05289e-05 -3.15431e-19)
(-0.0106618 0.00693077 5.64501e-19)
(0.0273624 0.058394 -8.44452e-19)
(-0.00852059 0.000761271 2.06281e-19)
(-0.00385753 0.00281197 1.046e-19)
(0.0444334 0.00485013 -8.34695e-20)
(-0.0255647 0.0170437 -7.5072e-19)
(-0.0317237 0.00501283 2.54939e-18)
(-0.00633144 0.000696543 -5.59782e-19)
(-0.00179459 0.000450314 -3.33247e-19)
(-0.00905246 -0.00783853 -7.92794e-20)
(-0.245644 0.115693 -7.19977e-19)
(0.00168276 0.000316698 -3.37684e-19)
(-0.000467561 0.000143735 9.6265e-19)
(0.0249918 -0.0148434 -4.73394e-19)
(0.00128428 -0.000556467 7.122e-19)
(-0.00421431 0.000175608 2.9624e-19)
(-0.0522668 0.0206528 1.14218e-19)
(0.000241976 -8.70986e-06 2.73518e-19)
(0.266557 0.254961 -3.13775e-18)
(0.00174243 -9.54433e-06 1.83603e-19)
(-0.0116003 0.008502 -1.43737e-21)
(-0.00274636 0.00124922 2.48936e-19)
(0.0807805 0.0344149 -1.04931e-18)
(0.00656336 -0.000272941 5.05373e-20)
(0.00107816 0.0028963 7.08963e-19)
(0.00462684 -3.84128e-05 4.76353e-19)
(-9.07097e-05 -0.000172102 5.05226e-19)
(0.0482203 0.00746067 2.27316e-19)
(-0.000279923 -0.000535176 -9.41719e-20)
(-0.0740044 0.261078 -9.2166e-19)
(-0.017999 0.0143382 -8.58648e-19)
(-0.000326324 -0.000107255 -1.24251e-19)
(-0.00295019 -0.00456413 9.62172e-20)
(0.066995 0.872367 3.0595e-17)
(0.0918985 0.052898 1.70126e-19)
(0.00311845 0.00103717 1.43286e-19)
(-0.000544791 1.1082e-06 -2.87236e-20)
(-0.000403337 0.000188155 -6.64529e-19)
(0.000154649 0.000310004 6.34741e-19)
(0.000283389 0.00226958 4.34086e-20)
(-0.00205737 0.00312257 5.70305e-20)
(-0.00474722 0.000613718 -1.75295e-19)
(-0.0871685 -0.219601 1.14415e-17)
(-0.00327671 -0.000149235 4.61226e-19)
(-0.000215858 -0.000153171 4.06376e-20)
(-0.0512322 -0.614538 3.29879e-17)
(-0.00379245 0.00639075 -4.90582e-20)
(-0.00122687 0.00367839 -3.45185e-19)
(0.000415619 -1.52951e-06 -4.2891e-19)
(-0.000679529 8.68412e-06 6.78174e-19)
(-0.0849755 -0.695135 -2.45496e-17)
(0.0585033 -0.216642 1.46301e-17)
(-0.00170897 0.000893022 -3.29485e-19)
(-0.0429905 0.0632374 6.92356e-19)
(0.00502445 0.00032304 -1.67598e-19)
(0.00301294 0.00421764 9.5346e-19)
(-0.00021196 -2.0766e-05 3.11347e-19)
(-2.89603e-05 -0.00011304 2.52892e-19)
(0.000809033 -0.000115603 4.06036e-19)
(0.00229136 -5.38983e-05 -7.27868e-19)
(0.00102697 0.000469183 -6.70009e-19)
(0.000282221 -1.64851e-05 1.7685e-19)
(0.0540138 0.0340722 -1.60573e-18)
(0.00728259 0.00157233 1.97929e-20)
(-0.00932167 0.0455406 -1.95129e-18)
(0.00111434 -0.000102063 -7.53338e-20)
(-0.00145865 5.07095e-05 -8.15403e-20)
(0.000155727 0.000227844 -6.03113e-19)
(-0.031449 0.00796276 -1.98267e-18)
(0.112458 0.0429135 1.94782e-18)
(1.23301e-05 -0.000102153 1.01118e-19)
(-0.00178341 -0.000131821 2.43673e-19)
(-0.0128704 -0.00594341 7.30603e-20)
(-0.0127303 0.0121849 3.30314e-19)
(0.000285881 0.000183452 3.24323e-20)
(0.160015 0.524982 2.24802e-17)
(0.00234348 -6.00535e-06 -4.35234e-19)
(0.0059829 -0.00113839 -1.3813e-19)
(0.000543001 3.02448e-06 -4.6155e-20)
(-0.00217235 -3.17176e-05 -5.15709e-19)
(-0.00123634 -0.000129334 -3.55439e-19)
(0.093033 0.0143992 -4.78325e-18)
(0.000165067 0.000198991 7.88748e-19)
(0.000731304 6.71186e-05 3.3188e-19)
(-0.000611456 -0.000424593 -1.34544e-19)
(0.162715 0.554675 9.66093e-18)
(1.09096e-07 -3.91344e-05 3.03669e-21)
(0.00182613 1.26015e-05 2.27891e-19)
(0.000761247 -3.00248e-05 -6.08785e-19)
(0.0169138 -0.0649013 -2.85509e-21)
(-0.0025697 3.23104e-05 1.15123e-18)
(-0.00298295 -0.000344174 -1.01539e-18)
(3.11102e-05 -2.84823e-05 3.14668e-19)
(-0.00158219 -0.000428174 8.11734e-19)
(-0.00600065 0.00562086 4.82569e-19)
(-0.00202648 -0.000260038 -2.39531e-19)
(-0.00124982 -6.85658e-05 -1.81534e-19)
(0.000223702 -3.89733e-05 -5.28525e-20)
(-0.150295 0.140029 -9.02458e-18)
(-0.0862143 -0.265617 -1.98551e-17)
(-0.00159432 -0.126246 4.60154e-18)
(-0.00327475 -0.00320207 3.3723e-19)
(0.000824034 0.00223867 -3.92008e-20)
(0.0028001 -6.10606e-05 1.2611e-20)
(-0.0713734 -0.0138737 -2.10371e-19)
(-0.0168555 7.0065e-05 3.77507e-19)
(0.0331299 -0.185873 -1.28823e-17)
(0.000176148 -0.0250982 5.45997e-19)
(0.021174 -0.11687 6.72749e-19)
(0.00624365 -0.000344792 2.17283e-19)
(-0.0271696 -0.0285569 8.40291e-18)
(0.0072509 0.000307048 -3.82998e-19)
(0.00150003 0.000299847 1.73662e-19)
(0.0587834 -0.0194536 1.88425e-18)
(0.0231376 -0.0535492 3.26877e-20)
(-0.00683981 -0.00368006 -1.47142e-20)
(0.0496632 0.00981488 -1.80111e-19)
(0.0039805 0.00141299 -2.67343e-20)
(0.0366939 -0.182693 -1.19292e-17)
(0.00181123 0.000179445 -7.23515e-19)
(0.00245583 0.000642356 -1.7918e-19)
(0.000131108 -5.95855e-05 -9.16593e-20)
(-6.76918e-05 -2.05447e-05 -2.40569e-20)
(0.0016435 -2.00268e-05 -1.49209e-19)
(0.044799 0.0271487 2.16897e-18)
(-0.00122831 0.00214364 -3.49693e-19)
(-0.000400009 6.38522e-06 1.30881e-19)
(0.050256 -0.0541278 1.49189e-18)
(-0.00741477 -0.000299661 4.38966e-19)
(-0.065151 0.000137511 1.36609e-18)
(-0.00161245 -0.00298019 -1.01321e-19)
(-0.0036528 0.00188353 -9.45096e-19)
(-0.00492768 0.00214482 -1.41868e-19)
(0.00156747 -4.22144e-05 9.397e-20)
(0.0278723 -0.137049 3.93078e-18)
(0.00109493 0.000469781 -1.38443e-19)
(-0.00204217 -9.18683e-05 -2.5902e-19)
(-0.010273 0.0362511 2.27138e-19)
(0.00199023 0.000814811 -1.69761e-19)
(-0.00020148 -0.000184577 -4.2593e-20)
(0.000561269 1.05348e-05 4.06649e-19)
(0.00208413 0.000234389 -2.11208e-19)
(0.0020758 1.29251e-05 -5.67877e-19)
(-0.0138032 -0.00517338 1.07292e-19)
(-0.0424736 0.0298502 1.77696e-18)
(-0.0660462 -0.272406 1.37596e-17)
(0.00346477 0.00101562 -1.76974e-19)
(0.000670426 0.000511926 6.01267e-20)
(0.00232478 0.000143201 -4.8494e-19)
(0.0382498 -0.18471 1.09701e-17)
(-0.00178936 0.000361667 2.28977e-19)
(-0.00176505 0.000492719 3.766e-19)
(0.000390272 6.95102e-05 -4.15371e-20)
(0.00208349 -0.000246895 2.99466e-20)
(0.00866787 -0.088709 -7.29328e-18)
(0.245637 0.225466 -7.80979e-18)
(-0.00446019 -0.00665406 -1.45085e-19)
(-0.00680009 -0.00221532 -7.68188e-19)
(0.00269033 -2.30368e-06 -2.82941e-19)
(-0.268838 -0.030222 8.54737e-18)
(0.00291163 0.00325448 6.2726e-19)
(-0.00548127 0.00279878 -1.87654e-19)
(-0.0208793 0.0115397 2.49948e-18)
(0.0171976 -0.00456291 9.27549e-20)
(0.262857 -0.100613 -7.63484e-19)
(0.025079 -0.142029 -1.39762e-17)
(0.0018235 0.000222336 -1.14744e-19)
(-0.000432787 -2.91771e-05 -1.86903e-19)
(0.00153348 0.000523545 3.42644e-19)
(-0.0338641 0.0237473 6.75077e-19)
(-0.00131155 0.000221811 -4.79528e-19)
(0.00174681 0.00225675 1.31978e-18)
(0.000905375 0.000981856 5.98493e-19)
(-0.000273452 -0.000562568 6.42358e-20)
(-0.00527463 0.000166856 -6.42175e-20)
(-0.000409066 0.00137929 3.36447e-20)
(0.0957911 0.0143216 -2.60714e-18)
(0.103367 0.020151 1.82118e-18)
(3.84762e-05 0.000380875 -5.7378e-19)
(-0.00124717 -0.000212879 2.83011e-20)
(9.3636e-05 0.00025371 3.03869e-19)
(-0.0210074 0.0023496 2.39907e-19)
(-7.17363e-05 -4.99195e-06 9.64175e-20)
(-0.0817781 0.009632 -8.39892e-19)
(-0.0012087 0.00191508 3.84024e-19)
(0.225941 0.0614685 7.04088e-18)
(-0.000562121 0.000458799 2.62299e-19)
(0.000892307 -0.00107861 -1.1953e-19)
(5.33205e-05 -0.000100834 5.8574e-20)
(-0.00198739 -8.28971e-05 -6.77054e-19)
(-0.00012524 0.000240349 7.79534e-20)
(-0.000695994 -0.00134013 6.25035e-20)
(0.00434283 0.000506344 -1.97384e-19)
(0.00380589 0.00180928 -1.85695e-19)
(-0.00718415 -0.00593078 7.46315e-20)
(-0.00353451 0.0046203 7.6678e-19)
(-0.0250738 -0.0580848 -2.97664e-19)
(0.0068361 0.000265687 -2.38245e-19)
(0.0108585 -0.0465103 7.61605e-20)
(0.0156228 -0.00456235 1.85924e-20)
(-0.0196302 6.30936e-05 -2.60276e-19)
(-0.092449 -0.112942 6.2995e-19)
(0.000408441 -8.05564e-05 -5.48222e-20)
(-0.000768375 -0.000152455 -1.5995e-19)
(-0.00176771 0.00376519 1.54002e-18)
(0.000182214 -3.13787e-06 -1.01947e-19)
(-0.0488566 0.0859011 -2.04076e-18)
(0.000434307 0.000917094 -6.93695e-20)
(-0.00217389 -0.00294294 -9.43302e-19)
(0.000185271 -3.13026e-06 6.43819e-19)
(0.00589193 0.086054 2.59293e-17)
(-4.53682e-05 -0.00101352 -5.05348e-19)
(-0.0375351 0.0175799 -7.09179e-19)
(-0.0143258 0.0154941 -4.98915e-19)
(0.000816711 0.000521127 3.68014e-19)
(0.0150348 0.00262909 -7.55271e-18)
(-0.0310366 0.0354371 6.57214e-19)
(-0.00132399 -0.0030274 6.40985e-21)
(0.000680242 -0.000376332 -1.3524e-19)
(0.0474693 0.0144139 1.83778e-18)
(0.00345449 -1.01713e-05 -4.83445e-20)
(-0.0548799 0.290459 -9.16833e-19)
(-0.00427604 -0.00658493 2.99267e-20)
(-0.00487843 -0.00110035 -1.47794e-19)
(-0.00913262 0.000353456 3.18932e-21)
(0.00352712 0.000935544 6.68788e-20)
(0.00267495 0.000865159 -1.61704e-19)
(-0.00068748 1.35725e-06 4.1401e-19)
(-0.0172423 0.00441419 -8.40704e-19)
(-0.00302088 0.00373172 -2.65126e-19)
(0.00925817 -0.0220067 -1.36609e-20)
(-0.127371 0.0263991 2.48303e-18)
(-0.000271622 -0.000647789 4.5318e-20)
(-0.000133999 0.00256056 -6.06695e-19)
(-0.025014 6.1827e-05 1.78113e-19)
(0.00314853 -0.0193278 -6.83538e-19)
(0.00391266 -9.03143e-06 1.55308e-19)
(-0.0810728 0.0308232 2.89268e-19)
(0.00244256 0.001319 -2.48933e-19)
(0.00291709 0.000329772 -2.84733e-19)
(-0.0103669 -0.0308582 -1.47713e-19)
(0.000473749 0.0003566 1.05988e-19)
(0.0439859 0.015125 6.95811e-19)
(-0.0125638 0.00650961 -1.73157e-18)
(0.00235895 1.44908e-05 -2.84625e-19)
(-0.0428845 -0.0122235 9.04982e-20)
(0.00216467 0.00119868 -5.88588e-19)
(0.00251137 0.000229037 1.92932e-19)
(-0.00169056 0.00115361 -3.20349e-19)
(-0.0157878 0.010113 1.16852e-18)
(-0.000932554 -0.000503538 1.73696e-19)
(0.282913 -0.031023 3.98296e-18)
(0.00434747 0.00172163 1.90737e-19)
(-0.0177597 0.0105903 1.36844e-18)
(0.00295043 0.00204931 8.80646e-19)
(0.0508696 -0.225315 1.34359e-17)
(-0.00181019 0.000998421 3.88857e-19)
(-0.00961458 0.0059633 -9.96543e-19)
(-0.00565927 -0.00025805 8.20141e-20)
(0.00103285 0.00197535 8.96879e-20)
(-0.0143194 0.0139205 1.07888e-19)
(0.000186078 1.8975e-05 2.01081e-19)
(-0.0157906 0.00847989 -1.5337e-18)
(-6.81634e-05 -3.39485e-06 -8.21207e-19)
(0.00569398 0.00145126 -6.63848e-19)
(0.000281703 -0.00109163 2.31417e-19)
(0.00259784 -4.01818e-05 5.57409e-19)
(0.000613294 0.00361328 5.55975e-19)
(-0.020191 0.00993544 -4.1732e-18)