/*--------------------------------*- C++ -*----------------------------------*\
| =========                 |                                                 |
| \\      /  F ield         | OpenFOAM: The Open Source CFD Toolbox           |
|  \\    /   O peration     | Version:  v2012                                 |
|   \\  /    A nd           | Website:  www.openfoam.com                      |
|    \\/     M anipulation  |                                                 |
\*---------------------------------------------------------------------------*/
FoamFile
{
    version     2.0;
    format      ascii;
    class       volScalarField;
    location    "450";
    object      ddt0(k);
}
// * * * * * * * * * * * * * * * * * * * * * * * * * * * * * * * * * * * * * //

dimensions      [0 2 -3 0 0 0 0];


internalField   nonuniform List<scalar> 
10042
(
-1.89185e-06
0.00808312
0.000126429
3.07779e-07
-5.69438e-07
0.000593507
-0.00371752
-0.000306189
-1.19832e-08
-3.10408e-06
0.00228164
0.00914233
1.71056e-07
-5.60764e-07
2.84111e-07
-5.25503e-07
0.000770704
0.00212277
-4.20322e-07
-8.59213e-07
2.82831e-07
3.03806e-06
-1.72919e-07
-0.000386181
-1.21646e-07
-5.90402e-07
-1.32502e-06
2.07011e-08
0.000910509
0.000296188
-2.22513e-07
-3.92217e-07
-1.11009e-07
-1.82698e-07
0.000305762
9.32033e-05
-1.01144e-06
4.36286e-08
-2.573e-07
-2.67837e-06
0.000252393
-9.60002e-08
-4.20682e-05
-0.00663727
-7.23404e-08
3.09346e-07
8.47604e-09
5.23834e-07
1.78026e-05
-0.0253965
-4.74104e-05
-1.32404e-08
0.000636548
-3.2382e-07
-0.0161064
-0.000250019
5.51072e-07
-9.34375e-05
-4.46259e-07
-1.57435e-09
1.81549e-05
0.0335043
-1.34722e-05
1.34468e-05
-2.37005e-05
-3.68779e-08
-7.81846e-07
3.69742e-05
-1.48059e-08
3.33162e-05
0.000207883
2.56947e-07
1.77828e-07
-3.31907e-07
-2.70411e-07
-3.31902e-05
5.09401e-06
3.02059e-09
5.55708e-06
-4.50878e-07
-0.00663361
0.000204291
-4.96271e-07
3.19568e-07
-1.86377e-05
0.000296358
-8.09821e-07
7.71607e-05
3.63775e-07
3.78003e-06
-9.95771e-08
1.53807e-07
-1.42172e-05
0.00140269
0.000103247
1.85257e-07
0.00801783
-8.27078e-07
0.00416632
-2.48055e-09
-2.89197e-07
-4.99934e-05
-1.10236e-06
-3.13076e-07
-3.16301e-07
-7.27129e-09
-0.00290274
-1.84795e-07
-0.00557462
-4.8962e-07
1.082e-07
-0.00194279
-4.91932e-05
1.54948e-05
-1.44729e-05
1.43678e-08
-5.16139e-07
-4.42668e-07
-4.30494e-05
6.62911e-10
-6.34121e-09
0.0115177
0.0121781
2.90801e-07
5.06337e-06
3.58384e-08
-5.42726e-07
-0.000930245
-4.80238e-06
-1.18331e-06
4.10045e-08
1.05888e-07
-2.77123e-08
1.69215e-07
0.0013287
-0.00990166
-7.49451e-07
-0.0115127
-5.1271e-07
0.00278894
-6.85529e-06
-2.11896e-08
-0.00457825
2.26198e-08
3.34026e-07
7.67994e-08
-3.034e-06
-1.8624e-08
-1.074e-06
-0.00174072
1.02156e-07
1.47893e-07
6.3572e-07
4.23252e-07
-7.62141e-05
2.5264e-07
3.00331e-06
-0.00234542
-7.44748e-08
-5.74897e-07
-2.4091e-07
-8.9344e-06
-0.0180569
-1.6291e-07
-7.15538e-07
0.000207888
1.44687e-07
-2.31798e-07
8.03669e-05
-1.845e-07
-0.00332901
0.000117713
0.0091711
-2.03746e-07
-2.90401e-07
0.0115382
-2.19605e-07
8.84838e-08
-1.22591e-08
-3.40249e-08
-8.10036e-07
-3.21399e-07
-2.89161e-07
5.51858e-08
-0.000367815
-1.29242e-07
2.85456e-07
-1.16531e-08
-0.0122235
2.0876e-07
0.00720802
6.65736e-07
-7.33304e-08
-1.12041e-08
0.0038777
2.12332e-07
1.08385e-05
-0.00367415
0.000927937
2.01685e-07
-4.8543e-06
-7.429e-08
-0.00190644
2.37778e-07
0.00319273
8.64609e-08
-0.00418522
3.34531e-07
5.39101e-07
1.2198e-07
-5.23259e-07
1.78592e-07
-0.00104005
-0.000483371
-8.73494e-07
1.43336e-05
1.26203e-07
0.00106012
4.38557e-07
-7.24398e-06
1.94562e-05
-0.0019978
2.29589e-05
1.38024e-05
4.30487e-07
3.5049e-06
-4.83284e-07
-5.3679e-07
-5.61448e-06
-1.03132e-06
6.18917e-08
-3.68349e-07
-3.01542e-07
-4.02094e-07
-3.08182e-07
-0.000308904
-4.80215e-07
0.00481257
2.87236e-07
-0.000694912
-0.0222419
0.006371
2.24924e-10
-5.12428e-06
-0.000572247
-5.76969e-07
0.00635256
3.59254e-07
7.23327e-07
-5.40827e-07
-3.20519e-07
-2.83999e-08
0.000317447
-0.0108414
-1.22574e-06
-1.57635e-07
3.41255e-07
-1.01826e-06
0.00772681
3.82623e-07
8.53323e-06
-7.00754e-08
-1.9674e-09
1.28784e-08
-1.90597e-07
-0.00570163
6.55664e-06
0.000135464
5.24583e-07
-1.04581e-07
7.84325e-07
-0.0228074
-3.77821e-07
0.000124883
-7.1284e-07
9.37664e-06
5.59e-07
-3.65471e-07
5.34549e-07
-5.71081e-06
-4.17289e-08
-0.001349
-1.24604e-06
-1.65165e-07
-3.39845e-06
0.000121246
-5.18533e-06
-2.08195e-09
-5.65533e-06
2.38021e-07
6.38581e-07
-3.04269e-06
-1.23851e-06
0.00865097
-3.2373e-05
-3.1229e-07
-0.000730281
-4.80501e-07
7.18628e-07
1.37702e-07
6.51528e-08
-0.00197034
-7.70459e-09
-0.00794751
-5.05659e-06
0.0182005
-4.97386e-07
-1.27689e-05
0.000275042
0.00250716
-4.55294e-07
2.53033e-07
-1.33206e-07
-3.79294e-07
-2.99104e-06
-6.33442e-06
7.62663e-09
0.000168196
-0.000939703
1.37015e-08
8.86136e-07
-0.000583889
-1.32445e-06
0.000716753
-0.000644451
-9.18649e-07
-0.000118075
4.91191e-08
-5.18838e-07
3.84864e-07
1.14709e-07
6.39761e-07
-4.00865e-06
1.57878e-07
-0.00222514
3.92631e-06
-0.00394476
0.000430756
-1.62422e-07
-0.000220428
5.04191e-07
1.15589e-06
-4.08673e-09
-7.37319e-05
1.36777e-07
7.41057e-08
-1.25287e-07
-9.24926e-08
-1.39593e-06
0.00539303
5.58234e-07
8.61302e-05
-1.62485e-06
-1.27023e-07
0.0113942
-0.000212355
-5.40248e-07
-3.66478e-07
-1.23932e-05
8.58515e-07
1.73993e-07
-1.13683e-06
-6.55601e-07
-0.00117648
0.00121904
-5.34225e-07
2.36645e-07
-7.31762e-07
-7.48811e-07
0.040259
-5.63934e-09
3.54065e-07
-4.21331e-07
-7.47794e-07
1.12477e-05
-4.89417e-07
-2.67718e-05
-0.0141234
0.00375662
-9.41689e-05
2.9794e-07
-0.0189983
-3.07767e-06
-4.13767e-08
-5.41116e-07
-5.25469e-09
-1.99714e-07
5.71894e-08
8.38954e-09
1.04269e-08
-7.0799e-07
7.3352e-05
5.41724e-07
-0.000236226
0.000712858
-0.0183615
-1.23586e-07
0.000255229
-3.53172e-06
-2.76236e-07
1.0776e-07
7.83493e-05
-1.22626e-06
-0.0013367
0.00385904
-1.47135e-07
8.39345e-07
-7.12808e-08
-0.0128825
-4.41786e-07
-0.00108373
9.52887e-08
0.00799537
9.48854e-07
-0.000108409
3.37562e-07
1.93591e-07
0.0163828
3.67922e-08
3.72577e-07
9.61784e-09
0.0012535
1.21597e-08
4.87532e-08
-1.12242e-05
6.70929e-07
-5.26577e-06
-0.000706396
3.97832e-07
9.61224e-07
7.28257e-07
-1.29387e-08
1.85914e-07
-0.000142728
-2.98733e-08
-2.70306e-07
0.00814653
-1.66922e-05
7.35744e-07
-0.00107633
3.58282e-08
-3.00789e-06
1.76405e-07
-0.00164603
-0.0200515
-0.0014607
-0.000138453
-0.00933141
0.00011328
1.62607e-08
7.9145e-06
-0.00515928
-0.00631474
-5.16405e-07
-5.16178e-07
-8.99717e-08
3.19602e-05
-0.000148867
7.46929e-08
1.12875e-06
-9.37527e-07
-2.8676e-07
7.83633e-07
8.33798e-07
-9.91044e-08
-5.72321e-07
7.68497e-06
-1.09448e-07
-2.78427e-06
-0.00293705
-0.0160735
-4.45467e-10
5.54675e-05
0.00764777
-0.0164917
1.51921e-07
-4.90972e-07
8.15196e-07
-0.0156538
6.17301e-07
-0.00193015
9.24535e-07
0.00367904
1.50773e-08
-3.08505e-07
1.12967e-06
6.06702e-07
0.000910341
6.6423e-07
2.79266e-07
6.69503e-08
-0.00283846
-7.91087e-08
-0.000555715
3.27492e-05
5.46635e-06
-1.34137e-07
-0.000931316
0.00840762
-0.00491285
3.53665e-07
6.16977e-08
0.000776387
-0.00113935
3.19057e-06
0.00146387
1.64701e-07
0.000576763
-4.34024e-06
-1.193e-06
1.00723e-07
-0.00451452
-1.09688e-07
-2.82598e-07
-4.10201e-07
0.00812168
9.10179e-07
-0.0226598
8.98317e-07
2.59526e-07
2.13103e-08
-5.86322e-08
0.00180077
-1.00018e-06
-2.91282e-07
0.00809906
-0.00396888
4.5492e-06
-7.1829e-07
-2.97653e-07
0.000731847
-0.00363424
3.96707e-07
-8.91706e-08
1.19227e-05
2.60634e-07
-4.58177e-07
-0.00171034
1.7748e-08
-0.00275414
2.20638e-07
-8.18598e-06
-2.93936e-07
7.67971e-05
9.85348e-07
-3.69716e-07
7.03839e-07
6.52984e-08
0.00679586
-7.5296e-10
0.00153509
3.06647e-06
-3.3424e-08
-3.04763e-05
-0.00521931
0.000743832
-2.6251e-05
5.38765e-08
-8.09606e-08
6.8382e-09
-7.71113e-07
1.46091e-07
-5.04253e-07
-0.00718673
-3.63573e-07
-1.96872e-07
-0.0437179
-3.2512e-07
2.06125e-06
8.38312e-07
-8.48033e-08
-0.0288453
-0.00159973
-4.12993e-07
-0.00341665
7.20524e-07
-9.7178e-08
-7.19558e-08
1.22668e-08
6.95864e-08
2.73265e-07
2.99527e-07
2.15701e-07
0.000121194
1.06061e-06
-0.00106011
1.58407e-07
-2.75511e-07
8.84987e-09
7.2868e-06
-0.0137359
8.5093e-09
-2.31226e-07
0.000447726
-0.00186736
3.22113e-08
0.00383966
2.80675e-07
6.73828e-07
4.20769e-08
-2.02134e-07
-1.07859e-07
-3.77515e-06
1.57125e-08
-2.52417e-08
-5.55019e-07
0.000964312
-8.84218e-07
2.04851e-07
3.30984e-07
0.00102722
-2.90956e-07
-3.45325e-07
-1.25107e-08
-1.39498e-07
1.95554e-07
-2.68894e-07
-2.51645e-07
-1.63464e-08
0.00617606
-0.00845344
0.000518073
-2.90188e-07
-9.87047e-08
4.64314e-07
-0.00121477
-2.52388e-06
-0.000647768
0.00219512
0.00125028
-2.08585e-06
0.00487122
1.04137e-06
3.51876e-07
-0.000977219
0.000736988
-0.000109652
-3.70082e-06
5.98002e-07
-0.000236134
2.11955e-07
4.52724e-07
-3.35187e-09
-2.75248e-08
1.25418e-07
-0.00011285
-8.11444e-08
-4.488e-07
-4.26333e-05
-9.58411e-07
-0.00218837
-2.2392e-06
-4.74962e-07
-9.75581e-05
2.45028e-07
-0.00121739
1.05232e-07
-3.19674e-07
0.000121453
3.34639e-07
-8.58369e-08
-1.73356e-07
2.3639e-07
2.87277e-07
-6.89052e-05
-0.000968592
-0.00974769
4.54128e-07
-6.89443e-09
2.87691e-07
-0.000490977
2.89006e-07
-3.1959e-07
1.38782e-07
2.16029e-07
0.00207379
-0.0163865
-2.68326e-05
-7.97879e-07
1.8957e-07
0.0089871
-1.63108e-07
-2.27424e-06
-1.96365e-05
-0.00034219
0.00346848
0.00073434
2.10353e-07
1.79858e-07
1.8208e-07
-0.000102511
-2.20112e-07
-4.61916e-08
-1.06051e-07
-2.83125e-09
-5.19051e-05
-2.50922e-07
-1.639e-05
5.25429e-06
-1.66928e-08
-1.23999e-07
7.43625e-09
-0.0015948
-3.47093e-08
-0.00131545
-4.04265e-07
-0.0309784
-1.51995e-07
-2.65772e-07
1.38411e-08
-2.27295e-07
1.11665e-07
-1.5118e-07
6.37452e-07
5.9329e-07
-0.000292267
-4.81945e-07
0.0012093
9.78525e-07
0.000225773
-0.000861079
-2.90858e-06
-0.000999715
4.87655e-08
-4.17081e-07
-1.24373e-06
1.96699e-07
-0.00198665
-1.57476e-07
-1.37257e-07
2.1104e-08
-0.00482206
-2.27491e-07
-0.000241147
1.08319e-06
2.4409e-08
-8.9263e-05
-0.000168792
-9.37727e-06
3.06351e-07
-5.29056e-07
4.49085e-07
-0.00196922
-8.49262e-05
5.39013e-06
-0.000246382
4.67424e-07
4.54889e-07
-1.22441e-07
-1.91991e-06
-2.20099e-06
0.000471915
-0.000977894
-1.57645e-08
-8.4052e-07
-3.57445e-06
6.99802e-08
5.63797e-07
-0.00135044
3.08004e-07
5.78295e-07
0.00257342
-3.74311e-09
-8.27912e-07
-1.3926e-06
9.30987e-08
0.000163274
-1.26582e-06
2.67132e-07
-1.64873e-07
-3.24978e-06
-4.33641e-07
-0.0138393
6.59127e-07
-1.91999e-06
8.97844e-08
0.0101292
-1.79985e-07
-4.40096e-07
-6.11785e-06
2.27237e-07
8.96617e-07
2.32975e-08
-6.38318e-06
-1.97783e-07
7.9721e-07
-4.69458e-07
4.35474e-07
3.17086e-07
3.13741e-06
-3.6748e-07
2.92106e-07
-0.00121044
1.03547e-07
-1.01515e-07
3.82988e-07
2.8929e-08
-6.33618e-05
1.26026e-07
-8.34096e-07
-5.41849e-06
-0.000695337
1.26992e-07
-5.55441e-05
-0.00690084
1.42333e-07
1.63124e-07
-6.7961e-09
0.00332024
-0.000441712
-9.76658e-08
1.54441e-07
2.14621e-06
-0.00402744
0.00017147
-3.52147e-07
0.00433534
-0.00824969
0.000819818
-1.2526e-06
-2.14985e-07
-8.39943e-07
5.28267e-05
-0.00154752
1.08109e-06
-2.47355e-05
4.40454e-06
0.000325577
-0.000235789
-5.13824e-07
4.2849e-06
0.00252254
-8.08912e-06
-0.001855
-1.62335e-06
9.47783e-05
-6.62441e-07
-0.000146054
3.36425e-07
-5.57597e-06
-3.45174e-07
3.94362e-06
-3.34704e-08
5.37721e-07
-2.12426e-07
0.00734887
-4.0204e-07
4.31114e-10
-0.0374393
2.01569e-07
-3.9598e-07
-3.89917e-07
0.000293202
-6.11634e-07
-7.01313e-08
3.43059e-07
5.17079e-08
-9.26833e-07
-1.04498e-07
4.82214e-09
0.00586514
5.74924e-06
6.2606e-05
-2.56052e-07
-0.0111316
1.55944e-07
8.7862e-07
-0.00112174
-3.87042e-06
-5.00551e-07
-1.25681e-09
5.08172e-08
-6.4193e-07
0.00136073
5.24814e-06
2.57244e-07
0.00829881
2.73085e-07
6.28863e-08
-0.00279401
-2.30894e-08
4.65337e-08
0.00621663
3.0671e-07
0.00311198
-5.09273e-07
7.63538e-05
5.29334e-08
1.01986e-05
-6.91201e-05
-1.3325e-07
0.0199268
0.0169009
-2.31571e-07
-2.98078e-06
1.74985e-05
0.0167435
0.0035807
-2.58158e-07
-3.72666e-07
-5.70816e-06
1.76792e-07
-1.27085e-06
0.000664102
-8.22331e-08
4.48215e-08
-2.66636e-07
-0.016108
-0.000755585
7.51825e-09
-1.16517e-08
-3.24421e-07
2.49405e-07
0.00106703
-9.68723e-05
6.93915e-09
-2.8754e-07
0.000106684
-8.72072e-08
5.56557e-07
0.000506682
-1.73517e-08
-0.00258877
-1.27092e-06
1.51896e-07
4.60242e-07
7.97206e-08
-0.00122965
-6.13118e-06
-1.23015e-07
0.000394291
0.000926442
-0.00320189
1.90336e-07
4.69301e-07
-0.000190186
5.02697e-08
0.00401606
-4.1514e-07
3.55384e-07
-1.12409e-08
0.00659462
0.00108085
2.61256e-07
-5.18973e-07
-1.42525e-07
-2.74132e-07
3.2223e-05
1.85181e-07
1.11797e-07
7.07505e-07
-1.36332e-07
2.58413e-07
-2.9839e-07
0.000595784
-2.59707e-07
-1.42497e-07
-8.46716e-06
-1.89539e-07
0.00243667
-3.60158e-07
-9.30135e-09
-0.00226442
1.6438e-06
1.9755e-07
1.48625e-06
-0.000220037
-1.27339e-07
-6.96234e-09
-3.74136e-07
-0.000178387
7.16887e-07
-1.37731e-07
-2.47596e-08
-5.16177e-06
-3.07994e-07
-0.00739493
-1.32788e-08
0.000225555
3.6084e-07
1.41561e-06
-1.65894e-07
5.01246e-07
7.92385e-06
-0.000384041
-0.00360479
-5.24283e-07
2.73078e-07
-6.03492e-06
-6.87909e-06
-5.48803e-06
-4.50272e-07
0.000651955
-3.48193e-07
6.32908e-07
5.76553e-06
-8.44875e-07
9.23997e-07
1.26835e-08
1.25472e-05
-0.00435952
0.00016202
-3.70667e-07
-8.97277e-08
-1.9583e-08
-4.52825e-06
1.355e-07
3.33977e-07
1.96884e-07
-4.4112e-08
6.14456e-08
-0.000364236
-1.85079e-07
0.00527891
3.98255e-08
1.20496e-08
-2.21865e-08
-1.57506e-07
-2.47417e-07
-1.17651e-06
0.00324097
1.36066e-07
-5.31808e-08
0.00819951
1.81198e-07
9.81713e-06
-3.11093e-07
0.0018813
0.00299844
4.47472e-07
-0.0143983
-1.03238e-06
3.76014e-07
4.54748e-06
-6.90743e-07
3.73323e-07
-2.86716e-08
-2.54172e-07
4.57915e-07
0.0103325
-2.28322e-05
0.0013107
0.00330026
0.000100663
-0.000239208
0.00356357
-1.54706e-07
-7.99009e-05
-1.5788e-07
-3.1049e-07
1.88257e-07
-4.61838e-07
-6.42654e-07
0.00113598
0.000608786
-2.99312e-07
4.92629e-06
1.2629e-07
0.00418528
2.84723e-07
7.88883e-08
-3.31386e-06
-5.14626e-06
0.00086488
6.17135e-07
3.33685e-08
-0.00137058
-3.74263e-06
1.35756e-06
4.96326e-07
-5.23862e-05
-1.222e-07
0.000322173
0.000369451
-8.10918e-08
1.29242e-07
1.57049e-08
2.39941e-07
-6.00705e-07
-1.14251e-07
3.97461e-07
-5.31769e-08
-1.59311e-07
3.4453e-08
-6.84351e-08
0.000752387
1.87712e-05
-5.62286e-08
-0.0075409
9.20113e-07
-2.56357e-08
-1.84442e-05
0.000301258
1.56191e-07
-1.38266e-06
1.62372e-05
9.89411e-08
1.26309e-06
-2.65822e-05
1.16583e-07
8.487e-08
-1.21566e-07
2.0502e-05
0.00471293
3.54195e-08
-0.0133291
-4.47628e-07
-5.54901e-08
0.00263914
-2.9161e-07
-8.1404e-08
-6.68941e-08
-1.07235e-07
-1.3179e-06
-0.00160361
1.38592e-07
6.28078e-07
-5.87344e-07
7.2154e-07
4.80596e-07
0.000779213
-1.33431e-08
-1.13425e-06
-0.0174315
-3.9006e-05
-4.84377e-07
-0.000723547
1.22781e-07
-0.00609386
2.97595e-07
1.58778e-05
8.30405e-08
0.000636793
-0.00193449
-0.00444618
3.65554e-07
-0.000114352
-0.00138849
-0.0040942
-2.75703e-07
-0.000112926
-1.96759e-07
0.000607815
-6.87348e-05
-2.29528e-06
-1.48865e-05
1.97291e-05
-0.0153671
4.21988e-05
-0.000746867
-0.000146989
3.83687e-07
-7.68561e-07
-2.67123e-05
-2.55077e-05
-5.80817e-07
-0.000584574
-8.50857e-07
-2.10181e-07
6.23743e-08
-5.66771e-05
8.49538e-08
-2.74141e-09
0.00277505
-2.5921e-07
-0.00268012
4.71473e-07
-6.08584e-08
7.94355e-07
-0.0163764
0.000948924
-2.26302e-07
0.0011509
-1.17496e-06
-1.07517e-06
8.14394e-07
0.00166901
-1.50974e-08
-3.12419e-07
-0.00139051
0.00416794
-1.61918e-07
1.70434e-05
-1.02456e-07
-2.84009e-07
2.78856e-06
-2.74151e-08
-6.40445e-06
-6.04713e-05
1.18354e-08
1.46872e-07
-1.30208e-07
-0.00452036
-8.23828e-07
-0.000303991
0.00210744
-1.29323e-07
7.21841e-07
5.16303e-08
1.34735e-06
1.87965e-07
4.34535e-07
-1.97847e-06
-8.26208e-06
-0.002241
-3.34887e-07
-2.19162e-07
-0.000138915
5.28304e-08
6.72026e-06
-1.17818e-07
3.63067e-07
0.000367133
0.00101716
-9.79587e-07
-2.20621e-05
-1.94437e-06
0.000801181
-2.64829e-07
-1.08015e-07
-2.62843e-06
-1.00071e-06
8.69318e-06
-0.00153255
-2.99776e-07
5.53407e-07
0.000362847
4.69507e-06
3.20716e-08
0.000738116
-0.00103309
-0.000987759
-1.85715e-07
-7.64084e-09
-0.00508414
-1.32712e-07
0.0104587
6.50739e-05
-2.11701e-05
0.0010519
-6.9551e-07
-3.40456e-07
-0.0153692
2.23953e-06
6.34404e-10
0.00178389
-5.71313e-07
-5.00482e-08
-8.40188e-06
1.27323e-07
3.25093e-07
2.74624e-07
1.11954e-07
-1.23668e-07
5.97412e-07
1.01125e-06
-9.68048e-07
-0.00262866
-3.22836e-07
-0.00250129
-4.18274e-07
1.23003e-08
9.50081e-08
5.0601e-07
0.000109184
-1.93499e-09
0.00167503
0.00239022
1.03626e-07
-0.0123077
-1.40386e-07
0.00495221
1.51053e-08
0.00128141
-4.89604e-06
-0.000478817
-7.37602e-08
-7.55652e-07
1.09582e-07
-0.00675544
-1.89499e-07
-8.16549e-05
-1.0784e-07
-1.34186e-07
-0.0123539
-3.80996e-08
0.00226217
7.20769e-07
-0.00384082
-8.89186e-08
1.26619e-07
1.21115e-09
0.000402123
2.63099e-07
-2.56097e-08
9.31377e-08
7.22238e-07
1.25145e-06
2.14294e-05
-0.0140599
-2.11222e-07
-1.75428e-07
4.44368e-07
6.93004e-07
-3.28821e-07
0.000378487
1.2121e-06
-2.87399e-07
2.60677e-07
-1.58773e-07
-7.23222e-09
2.5108e-07
-5.18264e-07
-9.02734e-08
0.00134043
0.0205492
0.00290557
-2.4674e-07
6.8445e-07
-5.83698e-07
5.31107e-07
3.41592e-07
1.04938e-07
8.77513e-07
-5.29473e-07
8.27711e-07
1.1511e-07
-2.17526e-06
-0.000424812
0.00780236
-7.86988e-07
8.53408e-07
-2.71993e-07
2.19066e-05
1.59716e-06
-2.98843e-08
5.28977e-07
1.64301e-07
3.19967e-07
-1.81876e-07
0.0117221
-1.2206e-07
-0.0141591
0.000931226
-1.66129e-06
-3.82761e-07
-4.40699e-07
-0.000214072
4.3823e-07
1.16903e-06
-5.99112e-07
-1.78901e-07
-4.2753e-08
-3.56298e-07
-0.00174318
0.000417102
-8.24812e-09
-5.92236e-09
-0.0124668
-1.63456e-07
-1.29122e-06
2.12193e-08
7.75102e-05
-1.6389e-07
-4.63297e-07
0.00340756
-0.00906544
2.33421e-06
-2.38216e-07
-4.43663e-07
-2.94885e-07
4.15385e-07
0.000325962
0.00230306
4.9016e-05
1.72008e-07
-0.000114183
-1.55007e-08
-0.00595345
-0.000619239
-2.83918e-07
0.000383867
7.13441e-05
1.76108e-07
6.20294e-05
4.19983e-07
1.38447e-07
0.00354674
2.58608e-07
-6.79315e-06
-2.04614e-06
0.000897322
0.00069724
-3.04914e-08
3.45606e-07
-8.62776e-08
5.0667e-08
4.89131e-07
7.58188e-08
-2.27263e-08
-0.00765514
-4.26209e-07
1.23788e-06
-0.00479032
0.00594836
1.01505e-06
-2.05011e-06
2.0484e-08
-0.000135462
-7.80081e-08
-0.000971997
2.1654e-05
0.00245038
-1.03908e-05
0.00225193
-0.0464529
8.36037e-08
6.05401e-08
-3.69818e-10
7.08299e-06
-6.98824e-07
0.00400994
-1.19833e-07
3.78096e-06
-2.2995e-07
-6.51576e-08
-2.74564e-07
3.68979e-07
-1.86107e-07
8.97509e-05
0.00225395
0.000581311
-3.61678e-08
2.30852e-07
4.88479e-07
2.50056e-07
-3.10492e-05
3.42967e-07
0.00234856
-0.00455538
1.26008e-07
-8.5807e-07
-0.00446834
-2.18704e-07
3.19243e-05
-0.00166033
-2.03744e-07
0.00215699
-7.52765e-07
6.69649e-05
5.11465e-07
-1.62157e-06
3.00696e-07
-1.92371e-05
2.37011e-06
0.00281515
0.00149493
-0.000150374
-9.17393e-06
1.10499e-05
-8.15095e-07
-3.81428e-08
0.00420906
0.000205103
-2.9667e-05
-5.19735e-08
1.07467e-05
0.00104787
-0.000241779
2.03561e-07
0.0127622
4.8639e-07
9.29427e-07
0.000910139
-2.38338e-08
2.69472e-07
-5.80806e-07
-1.11435e-07
-1.06567e-07
-1.43387e-07
2.10831e-08
0.00431707
-8.10069e-07
8.27659e-05
1.16465e-06
-1.46977e-05
-0.00176377
0.000970473
-2.5668e-07
6.18533e-07
-0.00320136
6.81825e-05
-1.49665e-06
-0.00242274
0.00197705
-0.00430731
-2.52631e-07
5.47815e-07
-2.26715e-07
-2.7155e-07
-0.000203819
1.55319e-06
0.000175229
-1.56635e-06
-1.15439e-08
-3.2141e-08
0.0137353
0.000159171
-4.08074e-07
0.00824566
8.79508e-07
8.80474e-07
4.35399e-07
0.00419724
5.74632e-07
-9.80949e-09
-1.29191e-07
1.0288e-06
0.0027325
-0.000643463
7.97514e-07
-4.89415e-06
0.000660167
1.36401e-08
-0.0106702
3.15514e-07
3.68736e-07
1.00724e-06
1.02862e-06
-0.0109988
-9.09083e-07
-6.53129e-08
-7.13568e-07
0.00036034
8.59949e-06
1.13782e-06
-6.86505e-07
9.50345e-08
9.766e-07
0.000260312
2.50307e-07
7.21942e-07
9.46113e-07
0.00079769
-7.29608e-07
0.000772625
3.52899e-07
2.36793e-07
1.08266e-07
-0.000364434
-0.000881743
-1.5725e-06
-0.00152703
-2.31057e-07
-1.91482e-06
0.00230166
-5.22574e-07
-0.00100118
-0.00844409
5.61142e-07
3.14194e-07
0.00739485
5.68271e-07
0.00370937
-2.10786e-08
0.00513704
0.000829957
0.00347252
5.62213e-08
1.80717e-07
6.66803e-07
-4.33298e-07
3.16942e-07
-2.89862e-08
-2.43381e-07
1.06625e-06
2.29545e-07
3.41845e-07
-4.26455e-07
-3.29229e-06
6.97225e-07
-0.0133851
-2.33217e-08
-0.00985506
-3.89621e-07
-1.49543e-07
0.00240955
-9.13512e-07
-0.00355793
0.00335613
-2.73272e-07
8.62775e-08
3.43026e-07
-3.83518e-05
-1.35618e-07
-0.000457812
9.51946e-08
-4.83202e-07
-0.00664397
-1.34562e-07
5.06801e-05
3.03027e-07
-7.86118e-05
-1.64432e-07
1.72095e-05
-0.000220183
0.00172362
5.89072e-07
9.64088e-08
2.56473e-07
-3.10132e-07
0.000413455
6.88534e-08
7.98338e-07
-1.67081e-07
-6.62221e-08
-0.00651352
0.00507125
-6.91513e-07
-6.24204e-08
-2.62238e-07
-8.93021e-08
3.2739e-07
2.99818e-07
-8.9178e-07
0.00668085
-0.000699292
2.2351e-06
-5.76925e-08
-6.88883e-08
6.20439e-07
-2.32638e-05
-0.014957
1.69986e-05
0.0052383
-9.39835e-05
9.86867e-07
5.87212e-07
2.47988e-06
-3.50676e-07
3.52928e-07
-1.17653e-05
6.24229e-07
-0.00156601
3.41799e-07
-0.00109713
-6.7208e-07
1.45273e-07
-2.23543e-06
3.71698e-07
-4.10598e-07
7.68328e-07
2.00654e-07
0.00843712
-4.38248e-07
-1.16515e-06
1.0263e-07
0.000582641
-0.0106885
6.59855e-07
-2.91605e-07
-4.17456e-07
7.88758e-07
-2.38001e-07
-6.03017e-07
-1.29316e-07
-9.1052e-07
4.14991e-07
-1.49087e-06
-4.12585e-07
-7.03504e-08
-0.00231436
-1.07469e-07
1.7671e-07
-0.00149859
-6.66928e-08
6.83075e-07
-0.000330273
1.08731e-07
0.00857265
-2.46318e-07
-3.2233e-07
-8.47632e-07
-1.55228e-05
-1.56358e-08
0.000415145
-7.35432e-08
-3.32809e-07
0.00439504
0.000118943
6.27854e-06
4.96728e-05
0.00310662
3.08885e-07
1.68936e-07
-4.2347e-08
-0.000741682
-2.36691e-07
-0.00103139
2.86207e-07
-2.45905e-07
7.38509e-06
-0.00124112
-7.58965e-08
-1.80506e-05
-0.000363456
4.49676e-07
1.6058e-07
1.41383e-07
5.15742e-07
-0.00436481
3.12134e-06
-2.30837e-07
-5.2643e-07
-8.62527e-08
0.00099764
1.00304e-06
-0.011817
5.6528e-09
9.7908e-07
5.26218e-07
-4.75851e-07
-0.00562227
-0.0032132
-1.96966e-07
0.000167552
0.000507108
1.89817e-07
-0.000568443
5.58814e-07
2.69296e-07
-4.07377e-07
2.81206e-07
-2.41415e-07
-2.60705e-07
1.02308e-08
3.43796e-07
-1.00974e-07
-1.11341e-05
1.80441e-09
-8.69936e-05
2.25457e-07
-1.71345e-07
0.0182734
7.55419e-08
-7.21125e-07
1.37114e-05
5.75816e-07
1.3396e-05
3.4239e-07
7.89101e-06
2.26735e-06
-4.9565e-08
-0.0121186
0.00014189
4.25569e-07
-7.35092e-07
-1.35779e-07
-0.00119486
3.07518e-07
-0.000798762
-0.00394498
-6.14745e-07
-4.14651e-07
2.34345e-06
-0.00357467
4.83509e-08
0.00265873
8.7391e-07
-0.00669727
-0.00778529
-4.1644e-05
0.00279741
6.97383e-07
-6.07377e-05
-0.00544214
0.00019734
-2.30027e-07
-1.4712e-06
2.771e-08
-5.77759e-07
2.32674e-07
3.72194e-07
0.00180206
-5.04176e-07
-0.000214645
-0.00639671
4.33988e-07
-0.00149646
-4.10118e-07
0.000106031
4.30011e-07
-4.1668e-07
1.0458e-06
0.000559012
1.80998e-05
-5.01581e-08
-3.46792e-07
-0.00197589
-5.33825e-12
1.07288e-06
-2.90017e-07
7.58e-08
1.39102e-07
-4.6601e-07
-1.60963e-07
-0.00235261
-1.26441e-07
-5.59716e-07
-1.82743e-07
-7.06306e-07
2.35062e-07
0.00538783
4.66397e-08
-1.00093e-06
5.99428e-08
0.00219156
-2.49699e-06
7.61298e-07
-7.12023e-08
-2.15986e-06
-2.04626e-06
-2.3078e-05
0.00211219
-3.97e-05
-1.91977e-07
-8.25935e-07
-6.83447e-07
4.92871e-07
-7.69158e-08
-0.00598393
-7.09162e-07
1.27185e-07
0.00843271
3.82907e-07
2.93348e-07
-0.000228431
0.00369742
-0.00614251
-1.09351e-06
0.00202869
0.00474799
-1.69658e-07
1.34433e-07
-2.05855e-06
0.00396629
0.000503741
-0.00338385
-0.0100313
3.56229e-07
-3.23194e-07
-4.26482e-05
-8.09041e-07
1.40805e-07
-1.12366e-06
2.84461e-08
4.94652e-07
-0.000189152
0.00200849
6.66981e-07
-5.04764e-08
3.92994e-07
4.68867e-06
-0.00783778
-1.51789e-07
4.80772e-07
5.58843e-07
-3.99333e-05
-1.2459e-07
-4.8692e-07
-0.00136397
-1.26766e-05
-3.44225e-08
2.01429e-07
-1.02556e-07
3.10837e-07
4.8452e-08
-6.95933e-06
-0.00218497
-2.21327e-07
-0.00631086
0.00768208
-0.0025252
1.31208e-06
-1.26863e-07
5.70274e-07
9.3127e-07
-4.81485e-07
-1.45406e-07
-1.38408e-08
0.00113993
-0.00523402
-2.87961e-07
-1.72894e-07
-1.05401e-06
-1.50773e-07
-0.0203163
-9.14066e-06
0.00566411
0.00862274
-0.000977985
-1.25984e-05
-1.62194e-06
2.92156e-07
-6.55406e-07
4.11422e-08
0.00721837
2.651e-07
-2.28344e-07
0.0184099
-0.00159193
0.000507961
0.0110263
0.00179599
-0.0045673
1.07096e-06
-1.1523e-05
0.000422326
0.0284275
3.81262e-07
-1.83968e-06
-8.17515e-07
1.91638e-07
4.10452e-07
-0.0145661
-2.32745e-07
-2.90156e-07
-0.0159173
-1.61781e-07
-0.00359535
1.24934e-08
-1.32069e-07
-2.43463e-06
0.0129249
2.59596e-06
0.00016427
-9.46889e-08
-0.00253676
6.05814e-07
4.33174e-07
-0.00181856
2.43424e-07
-1.96692e-07
1.96223e-08
-2.11819e-07
0.000128018
0.00674318
-0.000253252
-0.000490188
0.00586245
0.00252572
-0.00908906
-3.14141e-07
-5.90462e-07
-0.00557251
2.63824e-07
2.2339e-08
-8.32032e-08
1.03922e-07
0.00380256
2.68975e-07
-0.00186276
1.46042e-05
-1.86747e-07
0.00744419
7.46931e-08
6.96311e-07
-3.10265e-06
2.17284e-06
-1.93549e-06
-8.57217e-07
1.37435e-06
-0.000231711
3.43389e-07
3.02325e-07
-6.73628e-07
-2.13731e-09
4.57839e-06
1.5893e-07
-7.7564e-07
-0.000488132
0.0069391
-1.01725e-07
1.18834e-08
4.38852e-08
-2.33147e-07
-2.92859e-07
-6.17333e-07
0.00525771
0.00809555
3.9038e-07
-8.84473e-08
5.70109e-07
-7.78776e-06
0.000360442
4.51275e-07
0.00138389
0.00707647
1.85096e-07
-2.35636e-06
0.000466185
0.00130831
-6.07035e-07
-3.57505e-09
2.25127e-07
-0.000402638
-0.000119099
-0.00090037
2.59281e-07
0.0099991
4.87446e-06
0.00584102
-0.00854182
-1.11175e-05
-2.66915e-06
-0.00530547
0.00132883
0.0124417
-3.39751e-06
0.00161387
-2.06866e-06
0.00353702
2.95602e-07
1.57394e-07
2.00436e-07
-0.00158629
-0.000585627
-6.30529e-07
3.60484e-07
0.00180532
0.00495346
0.0102114
3.86002e-07
-4.54855e-07
-3.94688e-07
-1.89468e-07
-1.43233e-07
-1.58987e-07
0.00395413
0.00140779
1.86677e-08
-4.07466e-07
-5.21235e-05
1.23843e-08
3.06013e-07
-0.00348909
1.10835e-07
4.79907e-07
-1.69102e-07
0.000193532
3.90117e-06
0.0010464
-3.24569e-06
0.0015598
0.00687471
-4.26289e-07
0.000193545
-0.0127369
0.00317321
-0.0102807
-2.26246e-07
2.8025e-07
-4.0248e-06
3.92215e-07
2.45017e-07
1.36171e-07
-1.01223e-06
-2.9014e-06
-5.44031e-07
6.11029e-07
-1.95008e-05
-1.00159e-06
-3.87242e-05
-1.15284e-06
0.000256909
0.00313921
3.96897e-08
0.00880928
0.00800686
6.56149e-07
0.00170096
-0.0131601
1.60111e-07
2.63405e-07
1.06761e-06
-2.70072e-06
-0.00101621
8.56996e-07
-6.58816e-10
0.00129766
-6.02075e-07
-3.91217e-07
-4.96192e-07
-3.63921e-07
0.000591414
-9.76899e-08
5.97647e-07
-4.09691e-07
-0.00853432
-4.95357e-07
-0.0160187
0.00211849
0.00025483
0.0106657
1.21353e-07
-4.75295e-07
-5.82753e-07
1.33478e-07
0.00655817
0.000842337
-0.00268407
0.00174698
-1.72746e-07
2.78076e-07
-2.3881e-07
3.6303e-07
0.00175259
5.55899e-08
2.70784e-07
0.00169236
0.00181621
7.59381e-05
-6.65113e-07
-3.51897e-07
0.0103019
-6.3327e-07
-0.000505327
6.12357e-05
0.0129318
-0.00252684
-1.52797e-07
-4.83958e-07
-1.24903e-07
-2.59906e-07
-0.000194003
5.24524e-07
-2.20998e-06
2.8966e-07
3.67502e-07
-0.00486365
-5.69462e-07
-0.00106414
-2.02747e-06
4.37802e-07
3.4966e-07
0.00135403
2.38507e-07
-1.10625e-06
-0.00409177
1.99567e-07
4.15139e-07
1.30658e-07
3.31134e-05
5.3735e-07
3.02033e-08
-7.3952e-08
0.00443226
0.000574799
4.71967e-06
1.30412e-07
-7.77639e-09
1.59514e-06
3.10484e-07
-4.49028e-07
0.00338359
-0.00644449
0.00181882
-1.89437e-07
-4.88881e-06
-7.61804e-08
4.45998e-05
4.03723e-07
-0.000518572
9.00522e-05
7.31564e-08
0.0161993
5.612e-08
-0.0128895
2.30182e-07
-2.36695e-09
0.00012547
3.93781e-08
1.09588e-07
6.8242e-08
1.72991e-08
-1.30597e-06
0.00871374
-1.3245e-07
-4.87657e-07
1.37994e-06
-2.67402e-08
-5.19713e-07
-2.2987e-07
1.42939e-06
6.34585e-07
0.00227062
9.81355e-07
-1.06751e-07
8.96934e-07
1.09304e-07
3.75315e-08
0.00710472
0.00544417
8.90325e-08
-1.57942e-07
-7.6645e-08
8.22717e-06
-6.1766e-07
-5.85053e-07
2.83741e-07
7.89077e-06
-1.34916e-07
-1.01853e-07
6.54444e-05
1.35164e-07
0.00119186
-5.10823e-07
2.2397e-09
4.17977e-08
5.99818e-07
-5.10881e-08
-3.85435e-07
-0.0106285
0.000646218
-1.07066e-07
-5.93981e-06
-3.75821e-07
0.000202714
1.29153e-06
6.65872e-06
-3.46164e-07
2.77609e-07
-3.37978e-06
-9.6169e-07
0.00452768
-3.92622e-08
2.03093e-07
8.05708e-07
0.0119475
-8.79757e-07
-0.00249434
0.00263826
-5.06939e-07
0.00259632
0.00643897
0.000276828
0.000166666
1.63791e-05
1.5431e-06
3.6781e-07
-1.41963e-05
1.37042e-08
3.02617e-07
-1.98889e-06
-1.55631e-07
7.57227e-07
0.0433286
4.3841e-07
6.32759e-05
0.0117696
-2.7052e-07
5.49011e-08
-0.0114357
5.72956e-07
5.90845e-06
1.10344e-08
0.000756115
-0.00643657
0.000266748
5.82678e-07
2.02147e-07
-4.31246e-07
0.00286289
0.000540348
0.00121194
-0.00271803
-6.529e-07
-4.00841e-07
6.91681e-05
0.00380906
3.86305e-07
-3.97133e-07
-3.47785e-07
-2.26319e-07
-0.00466686
0.000246825
-3.87056e-09
0.00143491
1.2633e-08
-7.61475e-08
-5.4744e-08
7.13761e-08
-1.5914e-06
-0.0216852
2.61384e-07
0.00114069
-3.61082e-07
4.90967e-07
-3.8279e-07
-1.90826e-07
6.24381e-07
-4.29406e-07
0.00016185
-2.74676e-08
0.000628818
-0.000927051
-9.77181e-07
7.03421e-07
-1.85421e-06
1.62915e-06
2.69611e-07
-1.79694e-08
-8.23538e-07
-5.45841e-08
-0.00302962
0.000508769
-5.59102e-07
1.98557e-07
0.0070136
-6.01311e-08
-0.000669533
-4.33886e-07
-4.78716e-07
2.06691e-08
5.68953e-05
-0.000114318
0.000394317
-0.000322162
6.51687e-08
1.36198e-05
8.08235e-05
-1.14448e-07
1.87892e-07
1.50845e-07
3.86182e-07
2.13701e-07
-0.00803699
0.000148153
2.91603e-07
4.35045e-08
1.40178e-06
1.43802e-06
0.000119394
-4.16469e-07
2.34214e-08
-7.00028e-07
0.00326384
-2.20274e-07
-4.24216e-07
3.7688e-09
0.000148646
-5.54936e-07
0.00813326
-8.31721e-07
-3.17158e-07
-1.36124e-07
5.37237e-08
0.000766924
-2.71173e-07
1.33141e-07
-1.31958e-06
-1.41487e-07
0.00304134
0.00321101
9.55195e-06
1.26521e-07
-1.20691e-07
0.000203571
-7.8329e-06
-3.62797e-07
-8.23852e-07
-0.0198688
-1.54508e-06
-5.05846e-07
-0.00161863
1.01467e-06
-0.00567668
0.000890983
-0.000207729
3.24188e-07
1.28415e-07
1.46439e-07
3.28965e-08
-4.7955e-07
1.00134e-09
-0.000757049
-0.00730886
-7.61765e-07
1.31337e-07
6.21779e-07
-6.05679e-07
0.00262721
6.12657e-08