/*--------------------------------*- C++ -*----------------------------------*\
| =========                 |                                                 |
| \\      /  F ield         | OpenFOAM: The Open Source CFD Toolbox           |
|  \\    /   O peration     | Version:  v2012                                 |
|   \\  /    A nd           | Website:  www.openfoam.com                      |
|    \\/     M anipulation  |                                                 |
\*---------------------------------------------------------------------------*/
FoamFile
{
    version     2.0;
    format      ascii;
    class       volVectorField;
    location    "450";
    object      ddtCorrDdt0(U);
}
// * * * * * * * * * * * * * * * * * * * * * * * * * * * * * * * * * * * * * //

dimensions      [0 1 -2 0 0 0 0];


internalField   nonuniform List<vector> 
10042
(
(0.00656497 -0.0027114 -5.99332e-19)
(-0.0782857 -0.351632 2.48619e-17)
(0.0133724 -0.0393271 -3.03532e-19)
(-0.000365432 -5.69025e-07 1.82169e-19)
(-0.00022906 -8.54022e-07 1.5416e-19)
(-0.0457778 0.0703919 1.41301e-18)
(-0.184139 0.0502547 -2.46173e-18)
(-0.0302903 0.0475193 2.87539e-20)
(0.00020753 -7.10203e-05 -1.21497e-19)
(-0.000259882 0.00943113 1.15224e-18)
(0.01735 -0.0111262 7.30249e-19)
(-0.0582944 -0.357017 -7.11482e-17)
(0.00963299 0.0149084 -9.24578e-20)
(-0.000766035 -0.000646746 -4.33554e-20)
(0.000225948 0.00116083 5.65418e-19)
(-0.000766319 -0.000668348 -3.48927e-19)
(-0.0774365 0.0641391 -1.79465e-19)
(0.0139889 -0.0160277 1.51548e-19)
(0.00342511 0.00393568 2.51453e-18)
(-0.0110551 -0.00609708 -1.35213e-18)
(0.00794806 0.0157998 3.89423e-19)
(0.00681897 -0.00177649 2.69391e-19)
(-0.000347381 -6.58341e-06 -1.45689e-19)
(-0.00241517 -0.143236 -6.04852e-18)
(4.91647e-05 -0.000150371 -4.39142e-19)
(-0.000215652 1.92373e-06 3.31482e-20)
(-0.00204594 0.0100877 -1.95469e-18)
(0.000208292 3.7324e-05 1.37038e-19)
(-0.0608251 0.0789734 2.27159e-20)
(0.0535099 -0.188778 1.40186e-17)
(-0.000235598 3.34835e-06 -6.70075e-19)
(0.0234222 -0.000454831 -4.69124e-18)
(0.000225255 -3.37854e-05 3.02607e-19)
(0.000216208 -1.44841e-05 8.334e-19)
(-0.0268111 0.0607067 -1.77775e-19)
(-0.0270504 0.10043 1.89229e-18)
(-0.000244131 4.35364e-05 6.05072e-20)
(0.000180533 5.27956e-06 -5.41827e-19)
(-0.000268347 1.35441e-05 -2.95753e-19)
(-0.00186404 -0.00318384 1.25127e-19)
(0.0409665 -0.197276 -1.05292e-17)
(0.000214977 -7.03168e-05 6.94542e-21)
(0.0718903 0.0678781 6.27036e-19)
(-0.0579915 -0.34539 -8.86651e-19)
(-0.000298607 -0.000244702 -2.00259e-19)
(0.00010315 -0.000164208 3.50844e-19)
(2.81024e-05 0.00025728 4.11005e-19)
(0.000167002 0.00107734 2.85291e-20)
(-0.0206208 0.00194575 5.52819e-19)
(0.20402 0.182639 1.45023e-18)
(0.0765219 0.0789352 -6.62892e-19)
(-0.000203429 -3.84407e-05 2.83379e-20)
(-0.0724877 0.0644385 -3.06022e-20)
(0.00298443 0.00383574 -3.67929e-19)
(0.236973 -0.0623872 2.29958e-17)
(-0.0363721 -0.132636 -8.57999e-19)
(0.00650026 0.0146018 -5.4856e-20)
(0.00595918 -0.000732381 -8.43304e-19)
(-0.00103744 0.00145148 1.49497e-19)
(-0.000231698 -0.000343735 -7.81984e-21)
(-0.0167212 -0.00107451 6.35366e-19)
(0.151086 -0.447286 -3.68113e-18)
(0.0582402 0.0635452 1.3456e-20)
(-0.0264609 0.0339902 2.89061e-19)
(0.00105209 -0.0010189 -5.9448e-19)
(0.0012206 0.000375183 -1.8867e-18)
(-0.00869284 -0.00743173 4.75757e-19)
(0.00725803 -0.00836008 3.15975e-19)
(-4.86043e-05 0.000357019 1.76769e-19)
(0.00718507 -0.0070385 -2.52919e-19)
(0.105154 0.0828061 4.6034e-19)
(-0.00477222 0.000511837 -1.27029e-18)
(0.000303076 -0.000298724 5.38883e-20)
(-0.00094589 0.00135554 -1.3007e-19)
(0.00106909 0.000356435 4.58077e-19)
(0.0946334 0.0738792 -8.0278e-19)
(-0.00256432 -0.00161878 2.09401e-21)
(1.63812e-05 0.000282197 -3.27437e-19)
(-0.00302116 -0.00165791 5.15414e-20)
(0.00377017 0.00364975 -1.74223e-18)
(-0.0906335 -0.345187 3.68687e-18)
(0.0164578 -0.172119 8.55352e-18)
(-0.000149208 -4.15399e-06 2.36894e-19)
(-0.000196563 1.19607e-05 -8.23494e-20)
(-0.0140042 0.0105124 -6.99472e-19)
(-0.0386339 -0.0400199 2.67793e-18)
(-0.00749388 -0.00717898 -2.39051e-19)
(0.0186012 -0.0354485 -2.08156e-19)
(-0.000339148 0.000560318 1.76576e-19)
(-0.00103868 -0.00167133 3.88625e-20)
(0.00661578 0.00899418 4.88812e-19)
(0.000321922 0.00117552 2.01031e-19)
(0.0516481 0.0662309 2.07909e-19)
(-0.0285765 -0.0598797 -2.10609e-18)
(0.00320485 -0.00252563 -4.57112e-19)
(-0.00116517 -0.000541592 6.94676e-19)
(-0.126891 0.190797 -9.8194e-19)
(-0.00966027 -0.00605709 1.61858e-18)
(0.0596201 -0.0711934 1.65799e-18)
(-0.00072733 0.00135418 1.29671e-20)
(0.00587615 0.00849503 -1.12149e-18)
(0.0153744 0.00499415 1.67779e-18)
(-0.00268352 0.000532825 -2.72776e-19)
(0.0173094 -0.000286443 9.27165e-19)
(0.00284876 0.00619736 1.1202e-18)
(-0.00193033 0.000413273 4.09477e-20)
(-0.116456 0.653125 -4.29435e-17)
(0.000955754 0.000169886 -1.79715e-19)
(-0.193335 0.00198693 -1.743e-18)
(-0.00202427 0.000492721 6.56758e-19)
(-0.00112087 0.00108537 4.87976e-20)
(-0.158967 -0.0274273 5.11616e-18)
(0.0128534 0.00994681 1.87343e-20)
(-0.0279067 0.0413148 -4.63374e-19)
(0.000428537 -0.000689093 -7.78723e-19)
(-0.00010533 0.000484279 -7.66705e-19)
(0.00115267 0.00227537 8.12938e-19)
(-0.000203714 1.84226e-06 -1.50131e-19)
(0.00560058 0.000656109 -8.50698e-20)
(-0.00024655 0.000509514 4.90915e-19)
(-0.000274591 -0.000371819 1.81857e-20)
(-0.0116223 -0.224491 -2.3937e-17)
(0.0109619 -0.217808 1.05529e-18)
(-0.000329015 -0.000272227 1.50007e-19)
(-0.00133094 -0.00189496 2.54813e-19)
(-0.000366186 0.00068087 8.02635e-19)
(-0.000330151 0.000741594 -7.98337e-20)
(0.164601 -0.205234 2.55595e-17)
(0.077753 0.0186689 1.59925e-19)
(0.00156187 0.00214796 -7.35355e-19)
(0.000237118 1.22563e-06 5.3106e-20)
(0.000615636 0.000413443 1.0082e-18)
(-0.000611302 0.000856748 2.81595e-19)
(0.00067898 -0.000264689 -2.75879e-20)
(-0.155094 -0.0653698 1.23339e-19)
(0.0851176 0.158867 -1.48414e-19)
(-0.00489513 -0.0104677 -8.92339e-20)
(-0.00881948 0.858904 3.64173e-17)
(0.000375806 0.00362485 3.40477e-19)
(0.0454363 -0.0760518 -9.52108e-19)
(0.028252 0.0444601 3.27626e-19)
(0.000167631 -3.01138e-05 1.75469e-19)
(-0.0700601 0.924923 2.96625e-17)
(0.000206134 3.23742e-05 6.36186e-20)
(-0.00385366 0.00683928 -6.64498e-20)
(0.000197641 3.9369e-06 6.0585e-19)
(-0.013451 0.00912153 -1.29603e-18)
(-8.71316e-05 0.000352023 -2.16132e-19)
(-0.00416039 -0.00170906 -2.43234e-19)
(0.0425649 0.12895 1.06249e-19)
(0.000826234 0.000210985 -1.80033e-19)
(0.000139706 -1.08504e-05 -1.58249e-19)
(0.000587261 0.00415526 -8.16408e-20)
(0.0139298 0.0185715 4.73374e-20)
(0.00299913 -0.00183575 -2.17305e-19)
(-0.00431086 0.00676486 -5.03042e-19)
(0.0737213 0.0208451 -2.68859e-18)
(-0.0538914 -0.10349 -7.05288e-19)
(-0.000551281 0.000956957 -2.13866e-19)
(-0.000188767 4.1253e-06 -7.76228e-20)
(-0.000157293 -1.12728e-05 2.52574e-19)
(-0.00179329 -0.00353699 -1.03208e-19)
(0.0532624 0.189224 3.00001e-18)
(-0.000315791 0.000621053 -8.74873e-19)
(8.473e-05 0.00297865 1.74611e-19)
(0.0270698 0.142476 9.5196e-19)
(0.000337142 -0.000224522 3.5746e-19)
(0.019134 0.00058841 1.17947e-18)
(-0.031604 0.0845998 -4.47251e-18)
(0.000219531 1.43107e-05 1.05152e-19)
(-0.0128348 0.0150598 -1.57886e-19)
(0.0621384 -0.179371 -1.30308e-17)
(0.0560028 -0.0275856 -6.08584e-19)
(0.000217242 1.14876e-05 -2.672e-19)
(0.00268462 0.00407823 -1.07176e-18)
(0.0323663 -0.107657 -3.85731e-18)
(-5.11352e-05 -0.000234089 7.81501e-20)
(0.000197039 4.8941e-08 6.29899e-19)
(0.000505494 0.000364415 1.37259e-20)
(-2.40064e-05 0.000329967 -7.83372e-19)
(0.000177294 0.00346824 -5.30732e-19)
(0.00109114 0.0071101 -2.81276e-19)
(-0.000805479 0.00144762 3.78259e-19)
(-0.000247687 0.000361788 -1.35294e-19)
(-0.0157613 -0.00337127 8.29255e-20)
(0.00930342 0.00577772 9.25589e-19)
(-0.00476529 0.000923782 8.06112e-19)
(-0.000225847 -0.000261922 -2.98088e-20)
(0.207253 0.0237179 5.40328e-18)
(-9.40688e-05 -4.55548e-05 -2.08044e-19)
(-0.069634 -0.403459 1.86384e-18)
(0.00493321 0.0150681 3.35619e-20)
(0.000257622 6.42734e-06 3.32302e-20)
(0.00107389 0.00664257 2.01672e-20)
(0.060271 -0.230909 -4.40253e-18)
(0.000350164 0.00114814 -5.20437e-19)
(0.106566 0.0149094 1.1871e-18)
(-0.0277263 0.0123362 -2.31944e-19)
(0.0813032 0.324175 -2.25108e-19)
(-0.000184157 9.07284e-06 1.34443e-19)
(0.0867566 0.0184792 3.07716e-18)
(0.0387306 0.0545424 1.14636e-18)
(-0.0334898 0.00588712 -6.0423e-20)
(0.000145095 3.17091e-05 -6.33106e-20)
(0.0560013 -0.0975927 6.8398e-19)
(-0.000601651 0.000738893 -2.3806e-19)
(-0.0177669 -0.0273547 -4.43865e-18)
(0.011864 0.0182053 1.72252e-19)
(-0.00115965 0.000942031 7.81376e-20)
(0.000697968 -0.000389249 -9.50437e-19)
(0.0211313 -0.000843913 9.65703e-19)
(0.000143419 4.62163e-05 5.43232e-19)
(-0.0468374 -0.0043424 -1.24259e-20)
(-0.0189794 0.0214199 3.04475e-19)
(-0.000345777 1.33971e-05 -3.887e-19)
(0.00483186 -0.00663875 -2.21288e-19)
(6.76413e-05 8.04267e-05 1.07258e-19)
(0.119199 0.0545185 2.98594e-18)
(-0.000274234 -6.21552e-05 -2.41253e-19)
(0.0839355 0.0214443 -2.7146e-18)
(0.0979372 0.0259325 -8.06977e-19)
(-0.00853463 0.0108204 9.103e-19)
(0.0901619 0.0239577 2.24866e-18)
(0.00581772 -0.00641685 2.51796e-19)
(-0.00037382 -3.34765e-05 -2.0486e-19)
(0.0453985 0.0541033 -1.87616e-18)
(-0.00287351 -0.001779 -2.15769e-19)
(-0.00392354 -0.00963326 4.38034e-19)
(-0.00519764 0.00891 2.7554e-18)
(-0.00269838 0.000682449 -3.69e-19)
(0.000213686 1.27913e-08 -1.19709e-19)
(-0.000382588 0.000808551 3.88904e-19)
(0.00884118 0.00636252 1.23271e-19)
(-0.000158184 -3.32839e-06 7.31298e-20)
(-3.74979e-05 -0.000246386 1.45156e-19)
(-0.034096 0.0576703 -8.42614e-19)
(-0.000365628 -0.00844505 1.81991e-18)
(-0.0288445 0.282294 1.46141e-18)
(-0.00343639 0.00640849 -5.04285e-19)
(0.0056805 -0.14524 1.50534e-17)
(0.0943847 0.075467 -2.58219e-19)
(-0.0213581 0.0354804 1.26122e-18)
(-0.000260855 -0.000433762 5.67488e-21)
(-0.0023126 -0.00380488 1.52243e-19)
(0.220079 0.391375 4.01268e-18)
(-0.00022781 -1.70007e-06 1.0523e-19)
(-0.0375238 0.0255672 -2.7522e-18)
(-0.00358397 0.00588969 1.05259e-19)
(0.000604568 0.00441669 5.45898e-19)
(-0.000206261 7.77376e-06 4.40196e-20)
(0.00283202 0.00562784 -5.49804e-19)
(0.000276784 1.12879e-05 -3.22165e-19)
(0.00394929 0.0262946 -1.42156e-19)
(0.301747 0.0691623 7.78555e-18)
(-0.00373086 -0.00179486 7.25527e-19)
(-0.000134576 -0.00761184 5.8764e-19)
(-0.000107303 -3.20226e-05 1.87981e-19)
(-0.00314649 -0.00323241 -5.35544e-19)
(-0.165483 0.163151 2.00433e-19)
(-0.000231757 -9.3128e-05 -5.27286e-19)
(-0.000290289 -0.00193965 -1.77836e-19)
(0.000191695 -7.10646e-05 -4.55997e-21)
(-0.000205111 -3.53395e-05 -1.02156e-18)
(6.29499e-05 0.00025517 1.50598e-18)
(0.011335 0.015554 -7.76113e-20)
(0.282782 0.169014 -4.07487e-18)
(-0.000117776 -0.00125002 9.64455e-20)
(0.00396172 0.0217848 -6.0216e-19)
(-0.000158477 -1.60133e-05 5.18331e-20)
(-0.000468455 0.000819156 -1.89203e-19)
(-0.000269129 0.000394244 -3.69635e-19)
(0.158008 0.207117 -8.35452e-19)
(-0.00066747 -0.000496359 -1.84162e-19)
(0.123278 0.0714732 8.64906e-19)
(-0.00274863 -0.00307993 -1.5586e-19)
(0.00394456 0.00345995 -1.08838e-18)
(0.00161084 0.00217988 -1.71241e-19)
(-0.000177797 -0.000166303 -1.75053e-19)
(-0.000148063 -3.53373e-06 4.19571e-19)
(0.0144953 -0.125282 8.88676e-18)
(0.000210789 3.87862e-05 7.43561e-19)
(-0.0388157 0.132322 4.70741e-19)
(0.111374 0.0118149 1.26333e-18)
(0.00141729 0.00209332 8.14362e-19)
(-0.000100273 2.54953e-05 -1.48101e-19)
(0.0417127 0.0234908 2.37355e-18)
(0.00171699 0.00396208 -2.2404e-19)
(0.000204055 0.000299611 -2.93566e-19)
(0.0074294 -0.000228264 -3.90636e-20)
(0.000126257 -4.16173e-06 -3.69125e-20)
(0.00238165 0.0141879 -8.24944e-20)
(0.000665834 0.00333474 -3.17049e-19)
(-0.000334248 1.38493e-05 -2.0925e-19)
(-0.0179749 0.137203 -1.0686e-18)
(0.000496706 -0.00088149 -2.03033e-19)
(-0.000567502 -0.000801825 -4.26518e-20)
(-0.0650674 0.0199666 -1.48862e-19)
(-0.00237061 -0.00965979 -1.6096e-18)
(-0.000238736 0.00039766 -3.45414e-19)
(8.72238e-05 7.03566e-05 -5.34624e-19)
(0.000271824 0.00403215 3.96005e-20)
(-0.0332644 0.0220582 3.97858e-19)
(-0.000201406 -0.000260763 -1.86771e-20)
(0.106195 0.0428542 -5.2572e-19)
(0.00190003 0.00334205 1.63011e-19)
(0.201432 -0.289305 3.48754e-18)
(-0.000773702 -0.000527429 -9.55717e-20)
(-0.00232995 -0.0042134 -4.81313e-20)
(-0.0784191 0.0252568 -4.54847e-22)
(-0.0208717 0.152107 5.30593e-19)
(-0.000215253 4.75423e-05 1.10615e-19)
(0.00055673 -0.000133762 -7.33882e-20)
(-0.00114284 -0.000388102 -6.06604e-19)
(-0.000598875 -0.000732601 -1.91204e-20)
(0.000311226 0.00354095 1.19243e-19)
(0.00764884 0.000770181 -9.04099e-19)
(7.44408e-05 0.000228918 -1.9857e-18)
(-0.0135591 -0.00491384 1.4821e-19)
(0.040883 -0.183896 1.32808e-17)
(-0.000163239 0.000474787 1.7003e-19)
(5.32807e-05 4.94695e-06 1.78479e-19)
(0.14409 0.0689548 -2.14004e-19)
(0.00296483 0.00337817 3.45693e-19)
(-0.0121392 -0.0284638 5.24144e-20)
(-0.0131577 -0.00491204 -3.93685e-21)
(-0.000348971 2.3304e-05 1.24025e-19)
(-0.00581366 -0.00232614 -1.50913e-19)
(0.000446675 0.000377915 2.71342e-19)
(-0.00177059 -0.00878587 -5.32503e-19)
(0.00171293 0.0130893 6.85061e-20)
(-0.000669328 0.000619466 2.13427e-21)
(-0.00113163 0.00028753 2.47688e-19)
(0.00575968 -0.00309321 8.59822e-19)
(0.000105585 1.69367e-06 -6.45704e-19)
(-0.00195076 -0.0879329 -1.81983e-18)
(0.00805419 -0.000924944 -3.69068e-19)
(-0.00852072 0.87759 -1.65097e-17)
(-0.0058998 -0.0241112 -4.68907e-20)
(0.000302547 1.90367e-05 3.66185e-19)
(0.0159249 0.12468 -5.04683e-18)
(0.0226256 0.0483105 -3.20517e-19)
(0.0023337 0.0172897 6.26802e-21)
(-0.000307179 -0.000457528 -6.26931e-21)
(-0.0039476 0.000861531 -1.55223e-19)
(-0.000139127 -1.83291e-05 -5.66206e-20)
(0.00021094 -5.59376e-06 -6.00059e-20)
(-0.000555857 -0.00037184 -5.47958e-19)
(-0.000179511 -4.67016e-06 -1.50511e-18)
(-0.00042795 0.00252723 5.59071e-20)
(0.00624201 0.315598 -1.66841e-18)
(0.000709807 0.00167984 6.993e-19)
(0.00344246 -0.0036872 1.78859e-19)
(-0.000699751 0.00248781 1.75548e-19)
(0.000375665 -0.000474583 2.64329e-19)
(0.180236 -0.334974 1.25575e-17)
(-0.00805766 -0.00148539 3.75389e-19)
(-0.00309309 -0.00141095 6.00486e-19)
(-0.000119802 1.4103e-05 -1.08259e-19)
(0.0984322 0.0176555 6.85992e-19)
(-4.55299e-05 -2.90346e-07 4.65933e-19)
(-0.0017554 0.000412789 1.55721e-20)
(-0.000228366 3.10678e-05 -3.66315e-19)
(-0.000177896 0.00303238 2.64469e-19)
(0.0609345 -0.216673 -2.84875e-18)
(-0.00413333 0.125269 5.32876e-20)
(0.000272546 0.00310687 1.66777e-19)
(-0.000191462 3.4667e-06 1.71091e-19)
(-0.000955667 0.00214051 4.86573e-20)
(-0.000736993 0.0022585 1.55066e-19)
(0.0449498 -0.633088 3.46532e-17)
(-0.000244591 -0.000291368 2.87741e-20)
(-0.000162154 -1.03105e-05 -1.38709e-19)
(-0.000722386 -0.000476321 1.9297e-19)
(1.85978e-05 -6.38178e-05 2.1469e-22)
(-0.0241714 -0.0292449 5.20373e-18)
(-0.000883844 -0.000382009 2.17987e-20)
(0.00463617 0.00245118 -3.75833e-20)
(-0.00191923 0.175249 -3.48008e-19)
(0.085051 0.597363 -4.14448e-17)
(-0.0283549 -0.0190871 -4.32467e-18)
(-0.00141603 0.000268433 2.21212e-19)
(0.0360222 0.159378 -4.86503e-19)
(-0.00632095 0.0102843 6.75836e-19)
(0.000360157 0.000320365 2.62458e-19)
(0.0254319 0.0188396 4.5052e-19)
(-0.000192492 0.000524192 -2.12097e-19)
(-0.00017959 1.11944e-06 6.98162e-19)
(-0.000266821 0.000450764 -6.50213e-20)
(0.000169686 0.000822687 -2.37839e-19)
(0.000199159 0.000257737 5.14961e-21)
(-0.00230989 -0.00333643 6.19928e-19)
(0.0317351 -0.0682336 -1.72215e-18)
(0.000568234 0.0016747 -2.95714e-19)
(-0.00430088 -0.00741001 -5.80323e-20)
(-0.0100829 0.101355 1.23992e-18)
(0.296331 0.0204738 -2.69596e-18)
(-0.000411634 3.35747e-05 3.77232e-21)
(-0.0257495 0.0529646 2.1591e-20)
(-0.000110494 3.89352e-05 -6.88372e-19)
(0.0238397 0.00165994 2.35727e-18)
(-0.000201644 -3.47818e-05 -2.07536e-20)
(0.0717126 0.0293307 -4.34234e-19)
(-0.00177352 0.00324316 -8.85298e-19)
(0.246175 -0.130228 -2.61934e-17)
(-0.104982 0.146772 1.64234e-18)
(0.000300007 -0.000514478 -1.5148e-19)
(0.0169488 0.0445256 3.67455e-19)
(0.00010705 -0.000901933 2.3311e-19)
(0.0805635 0.0741055 -2.50894e-21)
(-0.00197622 -0.00311972 8.57664e-19)
(-0.0778573 -0.0090239 -3.01864e-19)
(-0.00278422 0.00873746 -4.31705e-20)
(-0.0310406 0.0912442 -3.22622e-18)
(0.000450026 0.0016037 -4.77561e-19)
(-0.0404593 0.00447964 -3.05515e-20)
(0.00153445 0.00147533 9.5312e-21)
(-0.00504373 0.00733369 -7.67387e-19)
(0.107148 -0.459244 -1.72962e-17)
(0.000165946 0.000159684 -1.83878e-19)
(0.00151461 0.00133534 2.56313e-19)
(0.000123822 -4.43287e-06 2.58894e-19)
(-0.0264609 0.0989753 -1.43134e-18)
(0.000226747 -2.84467e-06 -1.20705e-19)
(-0.000290439 0.000339303 1.95389e-20)
(0.0343965 0.0461039 4.63592e-20)
(0.00336221 0.00131334 8.63423e-19)
(-0.0100097 0.012518 -1.67866e-18)
(-0.0751691 -0.0101006 1.06669e-18)
(-0.000240064 -7.60354e-05 1.64395e-19)
(0.0042857 0.0172096 -1.87671e-19)
(0.00309281 0.00143084 -7.38777e-19)
(4.11547e-05 0.000329162 -2.13344e-19)
(-0.00328562 0.00858907 1.22403e-18)
(-0.0284139 0.096699 8.84227e-18)
(4.86409e-05 -0.000707989 -2.64344e-19)
(-0.00032038 0.00283607 -4.14689e-20)
(-0.335639 0.0447553 -3.67411e-17)
(0.00574345 0.00202837 -1.22859e-18)
(3.94486e-05 3.12207e-06 8.1411e-20)
(-0.00451652 -0.109237 -5.32213e-18)
(0.000205015 7.46582e-06 3.4075e-19)
(1.53857e-05 0.00329793 -3.05894e-19)
(0.00363575 -0.0208926 4.01596e-19)
(0.166288 0.045743 -4.0247e-18)
(0.124932 0.159317 4.58055e-19)
(-0.0225546 0.00463706 -1.19315e-19)
(-0.0416496 -0.00115437 5.24206e-19)
(0.0172901 0.166755 -4.07078e-18)
(-0.0249386 0.0387712 1.31366e-19)
(-0.000370843 0.000324653 -1.05368e-19)
(0.00200968 0.00393428 5.66271e-19)
(-0.105014 -0.0442225 1.65611e-18)
(-0.111525 -0.0686836 -1.05619e-18)
(0.023012 0.0182432 2.19147e-19)
(-0.000322131 -2.01873e-05 -3.54916e-19)
(-0.000602215 -0.000343395 7.64629e-19)
(0.00132712 -0.00171637 -6.04198e-20)
(0.0176933 -0.0666373 3.65834e-20)
(-0.000230469 0.000413548 -6.78815e-20)
(-0.00126722 -0.00197958 2.23885e-21)
(-0.000166039 -1.16092e-05 -3.69523e-19)
(-0.000409623 3.40149e-05 5.29966e-19)
(0.000840354 0.00061036 1.46616e-19)
(0.000982748 0.000665658 -3.34629e-19)
(0.000114994 0.000764322 1.65893e-19)
(-0.000244883 2.0914e-05 1.04816e-19)
(0.00773613 -0.00172528 -1.35487e-19)
(0.00164657 0.00193043 1.66477e-18)
(-0.00031025 0.00348696 3.67346e-19)
(-0.00660998 0.0104438 -5.59363e-20)
(-0.0214753 0.172025 3.28422e-18)
(0.000252829 -3.27277e-05 -3.90687e-19)
(0.0718189 -0.00782363 2.76379e-18)
(-0.358588 0.139343 8.12114e-18)
(0.0509103 0.0454119 -1.94582e-20)
(0.000118891 -3.0278e-06 4.38261e-19)
(0.00733173 0.00207982 7.95089e-19)
(8.88479e-05 5.73294e-06 6.02849e-20)
(0.293672 0.0308146 -5.74408e-20)
(-0.000367685 0.000484381 -3.93065e-20)
(-0.0223625 0.00807608 -5.58139e-19)
(0.00030349 0.00162299 1.48816e-19)
(0.0468082 -0.05417 -1.74877e-19)
(0.000162728 -2.00328e-05 -1.98106e-19)
(0.00340407 0.00529635 -6.53471e-19)
(-0.00107643 -0.00211631 -1.10208e-19)
(0.00139786 0.00353812 -7.81743e-19)
(-0.0343247 -0.0945087 9.98662e-19)
(6.70143e-05 6.83728e-06 6.09092e-19)
(-0.00026063 4.07351e-05 -4.52748e-19)
(0.000581829 -0.000264538 1.92414e-19)
(-0.0303152 -0.448665 -9.29945e-18)
(0.000201061 -4.0369e-05 7.65918e-19)
(-0.0102408 0.00436046 1.89644e-19)
(0.0303452 -0.0192085 6.52641e-19)
(0.0107219 0.0463676 1.56213e-18)
(0.000365941 -0.000359776 -2.61803e-19)
(-0.0128696 0.00729572 -4.92344e-19)
(0.00318195 0.125993 1.63152e-18)
(-0.282248 0.0831211 5.99398e-19)
(-0.00102421 0.000743041 1.89811e-19)
(-0.000139239 -1.4727e-05 -2.75311e-20)
(-0.0464649 0.113076 3.85483e-18)
(0.00104808 -0.428017 -1.74969e-17)
(-0.0106062 0.0125225 -2.26076e-18)
(0.0153087 0.0572444 9.50922e-19)
(-0.000188379 -2.39572e-05 -2.70367e-19)
(-0.00753391 -0.00846839 1.32197e-19)
(-0.0082136 0.00778403 -2.50082e-19)
(-0.00648551 0.00614715 -7.58264e-19)
(-0.00316499 0.00510235 -2.9308e-20)
(-0.0387249 0.0145518 1.68202e-18)
(0.00030936 -0.000302345 1.03864e-19)
(-0.000319436 -7.36414e-05 1.17305e-20)
(-0.00203078 0.000750288 6.21835e-19)
(0.00857769 0.141516 -1.69369e-18)
(-0.000370476 -0.000265446 2.98542e-20)
(0.0570515 0.104696 -5.96228e-20)
(-0.000395483 3.90435e-05 5.77936e-19)
(-0.000746168 0.000782047 7.93289e-20)
(0.000203867 1.06138e-05 -3.15439e-19)
(-0.00528479 0.0068939 5.6418e-19)
(0.0263082 0.0583685 -8.44438e-19)
(-0.00250031 0.000737541 2.06159e-19)
(-0.000566639 0.00282082 1.04562e-19)
(0.048889 0.0052963 -8.34705e-20)
(-0.0252167 0.0170365 -7.507e-19)
(-0.0225906 0.00456553 2.54925e-18)
(-0.00232016 0.000682283 -5.59622e-19)
(0.00082891 0.000449814 -3.33245e-19)
(-0.00901389 -0.00783945 -7.92794e-20)
(-0.240978 0.114439 -7.19951e-19)
(-0.00149789 0.000323446 -3.37602e-19)
(0.000306312 0.000144275 9.62634e-19)
(0.0254232 -0.0148303 -4.73344e-19)
(-0.00127952 -0.000550175 7.11897e-19)
(-0.00103658 0.000171329 2.96194e-19)
(-0.0451501 0.0198083 1.14178e-19)
(0.000222221 -8.73423e-06 2.73502e-19)
(0.267973 0.255724 -3.13762e-18)
(-0.000183743 -9.3004e-06 1.8349e-19)
(-0.00396634 0.00830902 -1.35985e-21)
(-0.00147259 0.00124981 2.4891e-19)
(0.0824616 0.0350338 -1.04929e-18)
(-0.000394414 -0.000268795 5.05931e-20)
(0.00797578 0.00312222 7.08965e-19)
(-0.00028377 -3.84221e-05 4.76182e-19)
(0.000281292 -0.000171495 5.05217e-19)
(0.0503275 0.00764287 2.27313e-19)
(-0.000295758 -0.000535144 -9.41718e-20)
(-0.0698375 0.260178 -9.21655e-19)
(-0.0104321 0.0143219 -8.58405e-19)
(0.000204235 -0.000106647 -1.24244e-19)
(-0.00177454 -0.00456254 9.62138e-20)
(0.0708118 0.872918 3.05952e-17)
(0.0947333 0.0533579 1.70113e-19)
(0.00180641 0.00104655 1.4329e-19)
(0.00010794 1.26126e-06 -2.87433e-20)
(0.000306628 0.000188615 -6.64525e-19)
(-0.000149114 0.000310313 6.34741e-19)
(0.000218136 0.00226981 4.34104e-20)
(0.000159135 0.00312988 5.70123e-20)
(-0.00193815 0.000606192 -1.75232e-19)
(-0.0820295 -0.219853 1.14411e-17)
(-0.00111072 -0.000153531 4.61123e-19)
(-0.000182592 -0.00015319 4.06376e-20)
(-0.0493147 -0.614868 3.2988e-17)
(0.00230455 0.00648777 -4.90842e-20)
(0.000481852 0.00368513 -3.45158e-19)
(3.64046e-05 -1.51965e-06 -4.28889e-19)
(-0.000215172 8.51893e-06 6.7799e-19)
(-0.0816507 -0.695501 -2.45497e-17)
(0.059596 -0.216635 1.463e-17)
(-0.00130367 0.000893283 -3.29483e-19)
(-0.0445232 0.0628157 6.9236e-19)
(-0.000174788 0.00032594 -1.67444e-19)
(0.00854279 0.00440979 9.5351e-19)
(0.000371713 -2.00727e-05 3.11346e-19)
(0.000207958 -0.000112758 2.52872e-19)
(0.000776725 -0.000115615 4.05922e-19)
(0.000589409 -5.34774e-05 -7.27738e-19)
(-0.00151679 0.000474312 -6.69851e-19)
(-6.01901e-05 -1.65123e-05 1.76813e-19)
(0.0548213 0.0343863 -1.60572e-18)
(5.49873e-05 0.00155777 1.98387e-20)
(-0.002783 0.0451062 -1.95121e-18)
(-0.000148794 -0.000101491 -7.5432e-20)
(-0.00126033 5.08204e-05 -8.15478e-20)
(0.000103892 0.000227853 -6.03095e-19)
(-0.0240972 0.00756594 -1.98267e-18)
(0.115298 0.0435423 1.9478e-18)
(0.000192445 -0.000101959 1.01127e-19)
(-0.000173988 -0.000132657 2.43465e-19)
(-0.0126433 -0.00595192 7.30598e-20)
(-0.0132181 0.0121917 3.303e-19)
(0.000147039 0.000183441 3.24229e-20)
(0.16392 0.525701 2.24801e-17)
(-0.000192 -5.738e-06 -4.35121e-19)
(0.0062677 -0.00113408 -1.38126e-19)
(0.000179879 2.66365e-06 -4.61414e-20)
(-0.000226721 -3.16819e-05 -5.15698e-19)
(0.000269908 -0.000126958 -3.55429e-19)
(0.0975478 0.0156701 -4.78323e-18)
(0.000106538 0.000198998 7.88727e-19)
(-0.000694529 7.25157e-05 3.31829e-19)
(-0.000935621 -0.000423426 -1.34522e-19)
(0.164177 0.555077 9.66169e-18)
(4.42597e-06 -3.91348e-05 3.03667e-21)
(0.000739449 1.27072e-05 2.27912e-19)
(2.51e-06 -3.01279e-05 -6.08732e-19)
(0.0228095 -0.0647851 -2.85276e-21)
(-0.000439238 3.13649e-05 1.15052e-18)
(-0.000260042 -0.000346173 -1.01526e-18)
(0.000174289 -2.84297e-05 3.14643e-19)
(-0.000299556 -0.000429251 8.11691e-19)
(-0.00312253 0.00561766 4.82551e-19)
(-5.76281e-05 -0.000261337 -2.39483e-19)
(-0.00102291 -6.83843e-05 -1.81541e-19)
(0.000380185 -3.87781e-05 -5.28562e-20)
(-0.149194 0.140525 -9.02467e-18)
(-0.0793065 -0.266469 -1.98552e-17)
(-0.00109294 -0.126254 4.60151e-18)
(-0.00155484 -0.00320979 3.37217e-19)
(0.00494989 0.00232463 -3.89223e-20)
(-0.00027085 -6.10202e-05 1.24526e-20)
(-0.0644222 -0.0145697 -2.10353e-19)
(-9.0814e-05 6.89391e-05 3.77212e-19)
(0.0335326 -0.185789 -1.28822e-17)
(0.000562751 -0.0250956 5.45972e-19)
(0.0216063 -0.116863 6.72725e-19)
(0.0064867 -0.000341146 2.17279e-19)
(-0.0246032 -0.0290109 8.40285e-18)
(-0.000191857 0.000311147 -3.82805e-19)
(-0.00124868 0.000304309 1.73643e-19)
(0.0579486 -0.0192871 1.88425e-18)
(0.0266696 -0.0534755 3.26872e-20)
(-0.00528326 -0.00368429 -1.47144e-20)
(0.0509821 0.00999463 -1.80074e-19)
(-0.000340153 0.00140951 -2.66665e-20)
(0.0377594 -0.182725 -1.1929e-17)
(-0.000116655 0.000182401 -7.2346e-19)
(-0.00123362 0.000647331 -1.79122e-19)
(0.000267406 -5.94091e-05 -9.16653e-20)
(0.00018996 -2.02672e-05 -2.40694e-20)
(-0.000147407 -2.00435e-05 -1.49377e-19)
(0.0442937 0.0272547 2.16897e-18)
(0.0012765 0.00216032 -3.49672e-19)
(-0.000217103 6.35392e-06 1.30882e-19)
(0.0489217 -0.0546678 1.49188e-18)
(-0.000884438 -0.000310339 4.38886e-19)
(-0.0583154 -0.000588123 1.36602e-18)
(-0.00153137 -0.00298089 -1.01321e-19)
(0.00144151 0.00191504 -9.4508e-19)
(-0.0042981 0.00214041 -1.41862e-19)
(-0.000189049 -4.21478e-05 9.39331e-20)
(0.0281862 -0.136961 3.93076e-18)
(0.000202835 0.000471329 -1.38466e-19)
(0.000477 -9.28197e-05 -2.59025e-19)
(-0.00422772 0.0359028 2.27166e-19)
(-0.000834167 0.000816806 -1.69738e-19)
(-0.000202067 -0.000184577 -4.25929e-20)
(-0.000224294 1.06557e-05 4.06673e-19)
(-6.49259e-05 0.000238059 -2.1116e-19)
(-0.000153516 1.50398e-05 -5.67774e-19)
(-0.0118691 -0.00523782 1.07291e-19)
(-0.0346015 0.0288422 1.77689e-18)
(-0.0579372 -0.272986 1.37594e-17)
(0.000161774 0.00101362 -1.76959e-19)
(-0.000297698 0.00051454 6.01102e-20)
(-2.86395e-05 0.000146754 -4.84963e-19)
(0.0399089 -0.18479 1.097e-17)
(-0.00524366 0.000399553 2.2895e-19)
(0.000992834 0.000492939 3.76616e-19)
(5.40216e-05 6.95319e-05 -4.15383e-20)
(-0.00049903 -0.000241821 2.99614e-20)
(0.010758 -0.089062 -7.29318e-18)
(0.248516 0.226168 -7.80966e-18)
(-0.00445644 -0.00665414 -1.45085e-19)
(-0.00303153 -0.00224122 -7.6809e-19)
(-0.000163315 -2.10898e-06 -2.82965e-19)
(-0.26802 -0.0298901 8.5474e-18)
(0.00861689 0.00345361 6.27045e-19)
(-0.000344242 0.00277619 -1.87639e-19)
(-0.0164549 0.0113413 2.49933e-18)
(0.0171948 -0.00456271 9.27549e-20)
(0.266574 -0.0990989 -7.63473e-19)
(0.0271468 -0.142291 -1.39761e-17)
(-0.000148224 0.00022553 -1.14766e-19)
(5.72698e-05 -2.90813e-05 -1.8694e-19)
(0.000264178 0.00052565 3.42668e-19)
(-0.0338291 0.0237435 6.75074e-19)
(-0.000166403 0.000220097 -4.79413e-19)
(0.00582674 0.00235689 1.31957e-18)
(-0.000232961 0.000985525 5.98452e-19)
(-0.000350403 -0.00056239 6.42358e-20)
(-0.00460531 0.000162992 -6.42147e-20)
(-0.000572858 0.00138017 3.36383e-20)
(0.100916 0.0158238 -2.60711e-18)
(0.105607 0.0208628 1.82109e-18)
(0.000170243 0.000380867 -5.73779e-19)
(-0.000271721 -0.000213432 2.84695e-20)
(-0.000336112 0.000254447 3.03865e-19)
(-0.0208775 0.00234362 2.39907e-19)
(0.000193645 -4.70504e-06 9.64077e-20)
(-0.0823914 0.00973693 -8.39889e-19)
(-0.000953932 0.00191373 3.84019e-19)
(0.229052 0.0624552 7.04079e-18)
(-0.000203378 0.000458094 2.62334e-19)
(-8.8326e-05 -0.00107999 -1.1952e-19)
(0.000195733 -0.00010068 5.85728e-20)
(-0.000310252 -8.3411e-05 -6.76962e-19)
(-0.0010741 0.000241692 7.79573e-20)
(-0.000647767 -0.00134035 6.25034e-20)
(-0.000316206 0.000508546 -1.97253e-19)
(0.000168401 0.00179952 -1.85705e-19)
(-0.00609677 -0.00593394 7.46304e-20)
(0.00330235 0.00473806 7.66798e-19)
(-0.0233488 -0.058157 -2.9768e-19)
(-0.000152746 0.000269748 -2.38106e-19)
(0.0139393 -0.046486 7.61641e-20)
(0.0156856 -0.00456555 1.85923e-20)
(-0.000200673 6.11254e-05 -2.60083e-19)
(-0.0867565 -0.110863 6.29891e-19)
(-0.000102898 -8.03148e-05 -5.48558e-20)
(-0.000877061 -0.000152022 -1.59941e-19)
(-0.00163181 0.00376394 1.54001e-18)
(0.000107338 -3.14636e-06 -1.01907e-19)
(-0.050314 0.0855668 -2.04076e-18)
(-0.000135625 0.000918828 -6.93894e-20)
(-0.00130054 -0.00294658 -9.4324e-19)
(0.0001979 -3.11242e-06 6.43808e-19)
(0.0104471 0.0889956 2.59288e-17)
(-8.32433e-06 -0.00101354 -5.05312e-19)
(-0.0374493 0.017571 -7.09178e-19)
(-0.00657706 0.015533 -4.98786e-19)
(-0.00023429 0.000523775 3.67963e-19)
(0.0234477 0.00250201 -7.55251e-18)
(-0.0309619 0.0354294 6.57212e-19)
(-0.00116156 -0.00302859 6.40985e-21)
(0.000299048 -0.000377093 -1.35236e-19)
(0.0491381 0.0146327 1.83767e-18)
(-0.000154008 -1.02596e-05 -4.82992e-20)
(-0.0479624 0.289832 -9.16813e-19)
(-0.00295121 -0.0065835 2.99239e-20)
(-0.00329672 -0.00112392 -1.47786e-19)
(-0.00829784 0.000347453 3.18596e-21)
(9.334e-05 0.00093414 6.68035e-20)
(-0.00102551 0.000868473 -1.61508e-19)
(0.00118583 2.56908e-06 4.13979e-19)
(-0.0121805 0.00426454 -8.4056e-19)
(-0.00269314 0.0037277 -2.65124e-19)
(0.00947361 -0.0220036 -1.36604e-20)
(-0.124515 0.026106 2.48302e-18)
(-0.000342889 -0.000647616 4.53179e-20)
(-0.000191572 0.00256084 -6.06693e-19)
(-0.00018833 6.02074e-05 1.77974e-19)
(0.00658278 -0.0193091 -6.83489e-19)
(-0.000159778 -9.05949e-06 1.55236e-19)
(-0.0815312 0.0309021 2.89264e-19)
(0.000420915 0.00131553 -2.48905e-19)
(-0.00165854 0.000340936 -2.84648e-19)
(-0.00929724 -0.0308564 -1.47707e-19)
(-0.00012421 0.000357852 1.05895e-19)
(0.044563 0.0151948 6.9583e-19)
(-0.00646465 0.00641548 -1.73146e-18)
(-0.000139804 1.43356e-05 -2.84523e-19)
(-0.0427685 -0.0122331 9.04984e-20)
(0.00246992 0.00119994 -5.8858e-19)
(-0.000587641 0.000240051 1.92906e-19)
(-0.0009427 0.00114939 -3.20335e-19)
(-0.00749676 0.00987145 1.16857e-18)
(-0.000829016 -0.000503893 1.7368e-19)
(0.28666 -0.0293331 3.98291e-18)
(4.48673e-05 0.00171217 1.90772e-19)
(-0.00933645 0.010316 1.36837e-18)
(0.00626348 0.00213634 8.8064e-19)
(0.057266 -0.224044 1.34356e-17)
(-0.00089196 0.000993416 3.88827e-19)
(-0.00621997 0.00591888 -9.96246e-19)
(-0.00518169 -0.000266947 8.20142e-20)
(0.000141602 0.00197303 8.96555e-20)
(-0.00644341 0.0139498 1.07757e-19)
(0.000208848 1.89919e-05 2.01077e-19)
(-0.00752485 0.00826789 -1.53362e-18)
(-0.000761795 -6.5205e-07 -8.21111e-19)