/*--------------------------------*- C++ -*----------------------------------*\
| =========                 |                                                 |
| \\      /  F ield         | OpenFOAM: The Open Source CFD Toolbox           |
|  \\    /   O peration     | Version:  v2012                                 |
|   \\  /    A nd           | Website:  www.openfoam.com                      |
|    \\/     M anipulation  |                                                 |
\*---------------------------------------------------------------------------*/
FoamFile
{
    version     2.0;
    format      ascii;
    class       surfaceScalarField;
    location    "450";
    object      meshPhi;
}
// * * * * * * * * * * * * * * * * * * * * * * * * * * * * * * * * * * * * * //

dimensions      [0 3 -1 0 0 0 0];
oriented        oriented;


internalField   nonuniform List<scalar> 
14885
(
0.000704964
0.0020146
-0.00274681
0.0240136
-0.0128715
-0.0111506
0.00195119
-0.0185839
0.0165526
0.00859152
-0.0123377
0.00297041
-0.000380797
0.00326264
-0.00359446
-0.0212996
0.00462612
0.0166302
-0.00324698
-0.0125707
0.0157839
0.00478282
-0.00562931
0.000855444
0.00335684
-0.00229508
-0.00118707
0.0204305
-0.00803333
-0.0124324
-0.0010495
-0.00451035
0.00552192
0.0116721
0.0123243
0.00235796
-0.0151478
0.012761
-0.00346063
0.00847242
-0.00516857
0.0193151
-0.00601932
-0.0134976
-0.00848927
0.00486188
0.0163661
-0.0151553
-0.00127174
0.00426845
-0.0053556
0.0167352
-0.00352693
-0.0132391
0.0245913
-0.00660645
-0.0181095
0.0147172
-0.0123877
-0.0020902
0.00276881
0.0111378
-0.00327561
-0.000986404
0.00978497
-0.00879135
-0.0175806
0.00383135
0.0132325
0.000125607
-3.0945e-05
-0.000145615
0.0177091
0.00268366
0.00198343
-0.00211744
1.77244e-05
-0.00294561
-0.0184113
0.00262201
0.00593269
-0.0085473
-0.00256558
0.0010706
0.00086134
0.013347
-0.00214701
-0.0112022
0.00307851
-0.0008811
-0.00230886
0.000984489
0.00199763
0.00554881
-0.000761916
0.00555464
-0.00495939
-0.000590858
0.00356061
-0.000805625
-0.00395222
-0.00331195
0.000358716
0.00274704
-0.00197388
-0.00114262
-0.000158272
0.000162308
-6.42281e-06
-0.00862452
0.0112594
0.00235721
-0.0127473
0.0152714
-0.00254663
-0.0247208
0.0221621
0.00253207
-0.0139449
0.00204532
0.0113057
-0.00524455
-0.012733
-0.000893813
-5.91318e-05
0.000885296
0.0169185
0.00212592
0.00176961
-0.0146884
0.0128953
0.0155082
-0.0163097
0.000782762
-0.0140194
0.00124109
-0.00023838
0.00635783
-0.00689519
0.0133837
0.00179484
0.0149033
-0.0197716
0.018399
0.0013527
-0.0140944
0.013061
0.00101827
0.00211414
0.0125636
0.00714902
-0.00231695
-0.00484066
0.0193261
-0.0170402
-0.00247329
-8.47609e-05
7.65989e-05
3.39576e-06
0.0165778
-0.0148356
0.0198279
-0.0184166
-0.0014332
0.0136177
0.00163297
0.00439883
-0.00511054
0.000710925
0.0127708
-0.00183944
-0.0110327
0.0219401
-0.00629453
-0.0159259
0.0233331
-0.00798637
-0.0154638
0.00243882
-0.00306435
0.000606293
0.000247925
0.000519556
-0.000820828
0.00287384
-0.000453355
0.0137142
-0.0142492
0.0005074
-0.00159086
-0.0176617
0.0190867
-0.000800837
-0.00430024
0.00493768
0.00347483
0.0156419
0.017002
0.00462614
-0.000330687
-0.00586859
0.0128349
-0.00705842
-0.00098471
2.19531e-05
0.0063589
-0.0123201
0.0114211
-0.0149741
-0.0219925
-0.00276353
-0.00960421
0.000548739
-0.00185703
0.000384633
0.00638864
-0.000876151
-0.00629019
0.0240704
-0.0095126
-0.0146156
-0.0159763
0.0165618
-0.000611386
0.017167
0.00605251
0.0182199
-0.0163491
-0.0130139
0.0132142
-0.000519808
-0.0044377
-0.0100442
0.0143498
0.0180526
-0.0122436
-0.00583695
0.00998996
-0.0161838
0.0138308
-0.000234309
0.00179281
-0.0177922
0.0116918
-0.00133231
-0.0104707
0.0159474
-0.018398
0.00211003
0.0091525
-0.00895041
0.0164849
0.0114602
-0.01341
0.00193755
-0.0181016
0.00202173
0.0158686
0.0132445
0.00477615
0.0178078
-0.0192784
0.00144599
-0.00603523
-0.0150448
0.0209203
-0.010296
0.0140062
0.0164247
-0.00172741
-0.0147289
-0.0187896
0.018579
1.04175e-06
0.0046332
-0.0124459
0.00780505
0.0207479
-0.00406418
0.0119258
-0.0152031
0.00171991
-0.0206962
0.0190348
-0.0229355
0.00361872
-0.00421001
0.0161099
0.0196739
-0.00190569
0.00520768
-0.000813183
0.0016885
0.0109651
0.000102886
0.000935056
-0.00110289
-0.00602183
0.0156787
-0.00975046
0.00184901
-0.000408117
-0.0020949
0.00180746
0.0053204
-0.000144659
0.00103011
-0.000945359
-9.03194e-05
-8.36678e-07
0.0222986
-0.0117403
-0.0105841
0.0157706
0.00651354
-0.00342605
-0.0110842
0.00672444
-0.0112652
-0.0126813
0.0136471
-0.00128373
-0.0144771
0.00159734
-0.00135231
-0.018443
0.0116616
-0.0108606
-0.000809175
-0.016275
0.0101538
-0.00380274
0.00381363
-0.000196603
0.0192822
-0.0139439
-0.00566721
-0.00152663
0.013441
-0.0121673
-0.0127949
0.0211144
-0.00863704
0.00976871
-0.0140005
0.00101437
-0.0140413
0.0129983
0.0220654
-0.00522092
-0.0169686
0.00775343
0.00927898
0.0200023
-0.0178923
-0.00218843
0.0142949
-0.00286713
0.00170529
-0.0142236
0.0124898
0.0010043
-0.000118586
-0.00103277
0.0151872
-0.0105654
7.17844e-05
0.00177958
-0.0125224
0.0189965
-0.00653768
-0.000619281
-0.00288029
0.010322
0.0136932
0.000953858
-0.000775506
0.020361
-0.000667338
-0.0198196
-0.00364545
0.0135936
-0.00995447
0.0149947
0.00543092
0.000857382
-0.000886213
-0.000147398
-0.0191961
0.0161528
0.00297191
0.0133376
-0.014581
0.00122397
0.00149012
0.0100786
0.00424703
-0.0168416
0.010792
0.000856376
-0.0112092
-0.00289815
-0.0130826
0.0113191
1.78278e-05
7.17107e-05
-0.00359785
0.00150674
0.00124963
-0.000149676
-7.82315e-06
0.013971
-0.0129848
0.000357182
0.00196585
-0.0182356
0.0161732
0.0144899
-0.0181434
0.00478307
-0.00577347
-0.013955
0.00366032
0.000482786
0.00508997
-0.00262703
0.00110343
0.00145586
0.0112228
-0.00144338
-0.00989592
-0.00565904
0.011597
-0.0167956
-0.00370616
0.0204893
-0.0017324
-0.0140634
0.0158219
-0.0203914
0.00358239
-0.00478455
-0.00777236
0.0121572
-0.00395931
0.00311431
0.0052854
0.013659
-0.000470119
0.000943795
0.0176989
0.00222101
0.0200748
-0.00814869
-0.0119553
-0.0148234
7.61944e-05
-0.000879461
0.000736373
0.000189456
-5.75929e-05
-0.000132544
0.00932495
0.0047782
-0.0141138
0.0158435
-0.0175853
2.74969e-05
-7.28593e-05
4.0289e-05
0.0128944
-0.000521966
-0.0123799
0.0021413
-0.00213533
-0.000424768
0.00364914
-0.0130395
0.0151133
-0.00392861
-4.42711e-05
0.00440729
0.0156301
-0.0188829
0.019869
-0.00100868
0.0168764
-0.0070339
0.00639057
-0.0112141
0.00481618
0.011004
-0.00135679
-0.00973301
-0.00956086
0.00891512
0.000643247
0.00575824
-2.24432e-05
0.00995309
-0.011575
0.00161775
-0.0142723
0.0139298
0.000317407
-0.0192313
0.00334824
0.015831
-0.000686199
0.00062894
-4.01378e-05
-0.0114199
-0.00199749
0.00108914
0.0120868
-0.000702908
-0.00823725
0.00893179
0.0143876
-0.00107853
0.0185898
0.000129521
-0.0161607
0.00312668
-0.000604935
-0.000859746
8.30022e-05
-0.0174547
-0.00183846
-0.0195288
0.0182262
0.00124202
0.00153269
-0.00452357
0.00182439
-0.00223957
-0.000622237
0.0028434
-3.83542e-05
0.000464964
-0.000510986
-0.00307871
0.0195755
-0.0165242
0.00444722
-0.000162057
-0.00517544
-0.000917502
-0.00992803
-0.000763423
0.010681
0.00127236
0.00983448
-0.0106857
0.000749482
0.000620545
-0.00626733
-0.00658241
-0.000465308
-0.00177761
-0.0176498
0.0192368
0.00634546
0.0156055
0.00261254
-0.0197146
0.0170645
0.00930491
-0.015463
-0.000687356
-0.00347453
-0.0090387
-0.00565
0.0146198
-0.00530601
0.000185525
0.00109239
0.0073659
-0.0125395
-0.00512543
0.0240657
-0.0083664
-0.0158333
0.00971558
-0.000569471
0.0167459
0.00219315
0.00892449
0.000858425
-0.00169623
0.0181535
-0.0165062
0.011455
-0.00142764
-0.0100241
-9.64197e-05
2.45196e-06
-0.000133976
-2.38145e-05
0.0167456
0.00107115
-0.017839
0.00295192
-0.0040437
0.00163712
0.00981533
0.0178823
-0.00121111
-0.0107112
-0.00853689
0.00274038
-7.97607e-05
-0.001605
0.0179947
-0.00390276
-0.000175425
0.0213216
-0.010244
-0.0111349
0.005298
0.01057
-0.0159029
0.0180711
0.00213616
0.00659643
0.0173274
0.000224553
0.00154336
0.0217457
-0.0175112
-0.00438496
-0.00532154
-0.00363283
0.000205486
-0.00639851
0.00535132
0.00251947
-0.0126769
-0.000261859
-0.00355329
0.0036277
-0.00645064
0.00549331
0.000969656
-0.00109798
-0.000783311
-0.0160867
0.0213386
-0.0103572
0.0127605
0.00906871
0.0121959
6.77807e-05
0.000383263
-0.00112541
0.00286607
-0.0121304
-0.00283158
0.0133168
-0.0109407
0.0144582
0.00102597
-0.00949953
0.00927765
5.18529e-05
-0.0135433
-0.000721715
0.00474082
0.0168297
0.00674749
-0.00181573
-0.00496739
0.0184943
-0.0060556
-0.0125301
0.0127754
-0.00154868
-0.011693
-0.00102259
0.000451624
-0.00192537
-0.00132427
-0.000878778
0.00131696
-0.0124351
0.0111099
0.0103776
-0.0039952
0.00234436
0.0160498
-0.00246292
0.000615903
0.000615256
0.00967123
0.000267396
-0.00993724
0.00605857
0.0107707
-0.0169007
0.00152107
0.000128396
-0.00171251
0.000313548
-0.00246661
0.00213788
4.1416e-05
0.000652458
0.0151065
-0.013152
-0.00199931
-0.000754708
0.0141858
-0.0135306
0.000708639
-0.00248208
0.000537273
0.00840086
-0.0120763
0.00368769
-0.012294
0.00403646
-0.00787371
0.00368405
-0.0191027
-0.00108651
0.0201569
0.0247795
-0.0185694
0.0101587
-0.0134221
0.000461803
-0.000584201
-0.00181665
-0.0162322
3.8745e-05
-1.51249e-05
-0.0174819
0.0157388
-0.00820454
0.0141955
0.0079288
0.0118808
0.00978402
-0.0107313
0.000758584
2.90064e-06
-0.000140431
-0.018299
-0.000828195
0.0119488
-0.00354019
0.0023882
0.000110973
-0.00736705
-0.0107964
0.017825
-0.00259122
0.0181585
-0.00311861
0.00702251
0.0129792
-0.0138312
0.0023616
-0.00206324
8.32388e-05
0.000837419
0.000123683
6.7625e-05
-0.00995527
0.000833161
0.0091261
-0.000909607
0.000949452
-0.00024014
-0.000126972
0.000241896
-0.0134388
-0.0001212
0.00175853
0.00494623
0.00360744
-0.000436771
-0.00318667
0.00029054
-0.000257171
-3.28517e-05
-0.0017016
0.00209858
-0.00959954
0.00101494
0.00849865
0.0174035
-0.012421
0.0162792
0.00198646
0.0130714
-0.0118888
0.0127143
-0.0176159
0.0182381
-0.000976945
-0.00107577
0.00306581
-0.00072481
0.000934809
-0.000442637
0.00875255
-0.00946492
-0.000393659
-0.00208692
0.0165817
-0.0109369
-0.00565299
0.0030577
0.00053065
-0.00379123
-0.000237217
-0.00212227
0.0166104
0.0135705
-0.0118932
-0.00193345
0.015292
-0.0133997
-9.36169e-05
-1.02833e-05
-0.0105947
0.00114383
0.0093439
0.00193015
-0.00164846
-0.00117375
-0.00404635
0.00315076
-0.00896991
0.00938252
-0.000625826
0.00223626
-0.00528216
0.00227618
0.00193121
-0.0167414
0.0146854
0.00144071
0.0145776
-0.0161537
0.0109306
-0.0123765
0.0156784
-0.0138638
-0.00219251
0.00270064
-0.000553582
7.86385e-05
-0.0185191
-0.00117078
-0.00852269
-0.019724
0.0177572
-0.000280595
-0.00131814
-0.00996463
0.011278
-0.000286019
7.12358e-05
7.12566e-05
0.0194859
-0.00117921
-0.00456057
0.00266091
0.0173857
-0.0155137
0.0108439
-0.00140684
-0.00943857
0.0126722
-0.0147945
-0.000631386
-0.0035425
0.00487653
-0.00207389
-0.00158219
0.0155141
-0.0140792
0.0139504
0.0194715
-0.0172831
-0.00221615
-3.17846e-06
0.000541273
0.00042528
0.000112812
8.22425e-06
-8.22425e-06
0.0118066
0.004735
-0.0105862
0.00999259
0.000418103
-0.00675374
0.0049031
-0.00223842
0.0182666
-0.0160721
-0.00157017
0.018013
-0.01646
0.0162133
-0.00442492
-0.0190544
0.0178467
0.00086889
0.0157669
-0.0180492
0.019661
-0.0170872
0.0141618
0.00293836
0.0152173
-0.00572587
-0.00949844
-0.00111148
-0.00211827
0.000861392
0.000103789
0.0146313
-0.012505
-0.00231542
0.0014784
-2.28343e-05
0.0225107
-0.017951
-0.0111287
0.0111238
-2.16103e-06
0.016211
-0.0149069
-0.00102459
0.00926144
-0.00831721
-0.00239941
0.0150494
0.021361
-0.0108296
-0.0135928
0.000788331
0.0121477
0.000845624
0.00470523
-0.0013923
-0.00189217
0.00786626
-0.0100152
0.00634503
-0.000732298
0.00992388
-0.0105864
0.000662803
-0.00127404
0.00119666
6.05107e-05
0.0184537
-0.00255494
-0.00866168
0.0112087
0.000499007
-0.00273994
0.000940375
0.0126055
0.00266733
0.000373882
-0.00309632
0.00191386
0.0161825
0.00465752
0.0176485
0.0196531
-0.00942542
-0.0102641
-0.00795846
0.0153812
-0.00748175
0.0104048
-0.0118336
0.00106622
0.0149938
0.00486673
-0.000654286
-0.00422311
0.0192711
-0.00237082
-0.0170526
0.00422523
-0.0176457
0.0133531
0.018097
4.53003e-05
0.00109767
-0.00121569
0.00699092
0.0121578
0.000914984
-0.000968555
-0.000135082
0.0109157
-0.0133304
-0.000802276
-0.00342291
-0.000713298
0.000725572
-0.000326615
0.013108
0.00506156
-0.0183092
0.0197906
-0.00153957
-0.018312
0.00851134
0.0111128
0.00455065
-0.00505689
-0.0150142
-0.00410263
0.017068
-0.000550753
-0.000499451
0.00795324
-0.0159727
-0.00192872
-0.00301206
-0.000297813
0.00291133
0.00165282
0.0156241
0.0134973
0.000716385
-0.0142191
-0.00496556
-0.000178248
-0.000127171
0.000201053
0.0117428
0.00130621
-0.00170055
0.001569
1.73487e-05
-0.00399674
0.0168761
0.00126231
0.0168162
-0.0181716
-0.00054876
0.00039078
0.000144237
-4.63549e-06
-0.000138747
0.00104343
0.0038022
0.000636099
0.0133025
-0.00426188
-0.000112145
0.000778157
-0.000723431
0.0063556
-0.00464003
0.014403
-0.0185661
0.00413398
-0.00444911
0.0188195
0.0110797
0.00413403
0.0052762
0.00531996
-0.00924191
4.8321e-05
0.0125012
-0.0119081
0.000773737
-9.20043e-05
1.32037e-05
-0.000148002
0.000135721
-0.00106688
-0.00144445
0.0151114
-0.00821516
-0.00745969
-0.0053358
0.005217
8.65914e-06
-0.000273585
-0.00516758
0.00199685
0.0124672
-0.000569586
-0.00249806
0.0166303
-0.0163848
0.00891741
-0.0129959
0.0101296
-0.011691
0.0142142
-0.0136111
-0.00234207
0.00205317
0.000228415
-0.0107837
8.40486e-05
0.0106981
0.0146016
-0.00110693
0.0138857
-0.00226635
-0.0116267
0.000355229
-0.00127162
0.0137349
-0.0122958
0.000136444
-0.000488198
0.00618367
0.0151433
-0.00174442
0.0142596
-0.0129151
0.0103988
0.000535846
0.0164083
-0.0154959
0.0123702
0.0019105
0.00088193
-9.01318e-06
0.0142234
-0.0158588
8.11784e-05
-6.71588e-05
0.00161075
0.00469987
0.00239303
-0.0134604
0.0110351
0.000143268
-0.000422674
0.00376527
-0.00400439
-0.000244919
0.0133877
0.0144329
0.00618315
-0.0206427
0.00313855
-0.00357979
-0.01135
0.0103405
0.000907702
0.018794
-0.00168274
-0.0171956
-0.0127722
0.0136871
0.00195783
0.000701583
-0.00105651
-0.0104351
-0.00164609
0.0126071
0.00179383
-0.0144223
-0.0176848
0.0176126
-0.000209615
-0.00115281
0.00181718
0.0117109
-0.00701976
0.021427
-0.011634
-0.00667223
0.018275
0.000979968
-0.0150456
0.0139896
-0.00167276
-0.00100049
0.00218406
-0.000107205
1.04736e-05
9.48653e-05
-0.0193693
0.00220953
0.0171045
-0.0188157
0.016601
0.00214597
-0.0188964
0.0179915
0.000824148
0.000832193
-0.00909183
0.00245811
-0.000550787
-0.0103365
0.00766845
0.00198655
0.0178496
0.000558907
-0.0185915
0.000191066
-0.0106371
-0.00300508
-0.0091385
0.0116041
0.0176244
0.00595624
0.00853573
-0.0172122
0.0176039
-0.000683295
-0.00237247
0.00217374
0.000135888
-0.0132744
0.0174343
-0.0127473
0.0136595
0.0228416
-0.0136739
-0.0157173
0.0172608
0.0237385
-0.0123984
-0.0113617
0.0095196
-0.0109605
-0.0191664
0.00326941
0.0158482
0.00455284
0.018094
-0.0182801
0.00131247
0.0167097
-9.3344e-05
-1.34635e-05
0.0155047
-0.00291745
-0.0182621
-0.00111887
-0.000882968
-0.000969983
0.00180316
0.00255143
0.0161387
-0.00979285
-0.0088613
-0.0176812
0.00134019
0.0160082
-0.0185879
0.000574306
0.0179638
0.00284224
0.0182575
-0.00153536
0.00197642
-0.00614167
-0.00204659
0.00438826
-0.00049536
-0.00393108
-0.000763539
0.00919282
-0.0127643
-0.0141735
0.0151408
-0.000981987
0.00443922
-0.000940336
0.00442351
-0.00442984
-0.000148622
0.0107264
0.0129695
-0.000100643
3.0701e-06
-0.00185565
-0.0160962
0.0179397
-0.0170562
0.00539439
-0.00325745
0.00119439
0.00194902
-0.00885682
0.00848588
0.000280683
0.00822896
0.00834635
-0.0204755
0.00263082
0.0177925
0.0114945
-0.000560933
-0.000559504
0.000904345
0.000859739
-0.00179124
-0.000712396
-6.08358e-05
0.000709523
-0.00152833
-9.00568e-06
0.0015046
-0.00584975
0.0010189
0.00479878
0.0193937
-0.0199855
0.00220144
0.0177554
-0.017198
0.0177354
-0.00087303
-5.59025e-05
2.22129e-05
2.69076e-05
0.0158514
-0.0146842
-0.00118595
0.0139504
-0.0157089
-0.00428244
-0.000184655
-0.000212535
-0.00502498
0.00412179
0.000415916
0.00165656
0.0141736
0.0101122
0.000732839
0.000600298
0.00373592
-0.00804641
0.00885702
0.0149765
-0.00704455
-0.00838237
0.00187699
-0.0156487
0.0137556
-0.00276648
0.00109881
0.0016174
-0.00128419
-0.00207951
0.0124715
-0.0214398
-0.0153149
0.00422407
-0.0186616
0.0192197
-0.000856171
-0.00114791
0.00165698
-0.000895267
-0.000913893
-0.01619
-0.00069676
0.0167152
0.0162158
-0.0178199
0.00158646
-0.012201
0.00112
0.0105618
0.00416119
-0.000431945
-0.00378509
0.00103353
-0.00100096
-0.0165775
-0.00262928
-0.0205901
-0.00143545
0.00251152
0.00144616
0.0108526
0.000231223
0.0106783
0.000969234
-0.000991362
-0.0175273
0.0159391
-0.00262211
-0.00327529
0.000278955
0.0024667
-0.00303071
0.00318543
-0.00380866
0.00158063
0.00132177
0.000156218
0.0041319
-0.00980577
0.00848415
0.000148249
0.000821902
-0.0111216
0.000258234
0.0106177
-0.00959828
-0.00114181
-0.0164778
2.63632e-06
2.36697e-06
-0.00311745
-0.000925797
0.00123149
-0.000636501
0.019097
-0.0178
-0.00134739
-0.00344043
-0.0107225
-0.0102289
0.014458
-0.00457215
0.000841031
-0.00110884
-0.0146725
0.00411867
-0.00108224
0.00696543
-0.0150674
0.000688396
0.0034146
-0.00155882
-0.00126268
-0.00788137
0.0200038
0.00214192
0.00316789
0.0100934
-0.0132948
0.021384
-0.0169248
0.00172819
0.00351352
-0.00444465
-0.0018725
0.0193885
-0.0175707
-0.00323389
-0.00102331
-0.0104425
0.0172619
-0.00689001
0.0148058
-0.0116733
0.00239573
-0.0088325
0.0104691
0.00692713
0.00759477
0.000121927
-0.0180764
0.00635694
-0.0109956
0.00461966
0.0170821
0.00194165
-0.00841434
0.00934292
0.00445029
-0.0106941
0.00623404
-0.0163068
0.0154661
0.000654262
-0.0106539
0.00994274
0.000697567
0.000679299
-0.0115577
0.0105038
-0.0195766
0.0180812
0.00118537
-0.000202978
-0.00219828
-0.000239857
0.00318767
-0.0036751
0.0107623
-0.00441971
0.016468
-0.0142138
-0.000188145
0.000107894
0.0115701
-0.000449285
0.0155362
-0.0175928
0.0017392
0.0176645
-0.0195909
3.68482e-05
0.000119139
0.000928337
0.0156073
-0.000356303
-0.00285692
0.000806245
0.00958954
-0.0135209
0.00135074
0.0119628
0.00915092
0.00843197
-0.00171989
0.0179138
-9.75298e-05
-0.0174009
-3.54931e-05
-2.77744e-05
-0.000406932
0.000956014
0.000743464
-0.0131507
0.0120382
-0.00939426
0.000657905
0.00831108
-0.0147496
0.0152402
-0.000532657
-0.00094234
-0.0176834
0.0191159
0.000869154
0.0172345
-0.000603834
0.00168225
0.0112602
-0.0127721
0.012251
0.000135661
-0.000541646
-0.0174192
-0.000385984
-0.013915
0.000487713
-9.9965e-05
0.00906653
-0.0095578
0.000201119
0.00157707
-0.0104145
-0.00659395
-0.00972767
-0.00021732
2.05182e-05
0.000193586
0.00294434
-0.0207675
0.000131398
0.00066958
-0.00196168
0.010422
-0.00546145
-0.00496851
-0.0123112
-0.0152603
-0.00159616
0.00817378
-0.0177339
1.7817e-06
-0.000132887
0.000128397
-0.00840496
0.0163098
-0.00882311
0.0103964
0.0112308
-0.0109397
-0.000748962
0.00110709
-0.000638878
-0.00146419
-0.0122668
0.00496333
-0.00103118
-0.00394554
0.00068234
0.0102059
-0.0146985
0.00195382
0.0067084
0.00717719
-0.0141003
-9.87541e-05
-8.63812e-06
-0.00873727
0.009777
0.00119565
-0.0146585
0.0132744
0.00103472
-0.011001
-0.00798115
-0.00324278
0.00142373
-0.00160038
0.000116615
-0.0109988
0.0124773
-0.000682048
0.00064674
-1.7299e-05
1.98695e-05
0.000130547
-0.00347244
0.00380413
-0.0132667
0.0144496
0.000915063
0.0120326
-0.0125617
-0.0137319
0.00202366
0.0114374
0.00907949
-0.00368047
-0.00556271
0.00088559
-0.00243076
-0.00377641
-0.00711492
0.00229483
0.0155996
-9.42661e-05
1.90954e-06
9.14178e-05
-0.0140173
0.0118929
0.0168767
-0.0160702
-0.000953403
-0.00951913
0.0159934
-0.00179877
0.0158507
-0.00538276
-0.0104929
-0.0133891
0.0114478
0.00127672
-0.0015796
0.000338412
-0.000233467
-0.000107057
-0.00205308
-0.000484726
0.00170681
0.000419492
-0.0114188
0.0100461
0.000901057
-0.0107856
0.000146713
0.0104487
-0.00121631
-7.66535e-05
0.000718143
3.33021e-05
0.000796448
-0.00886415
0.0123232
-0.00579109
0.00379633
0.0173758
-8.8522e-05
-0.00234709
0.0181695
0.00547321
0.00346212
0.00429699
0.0188112
-0.00115539
-0.0176965
-0.0123256
-0.0116404
-0.00765135
0.00416246
6.58604e-05
-3.64881e-05
-0.00570662
0.00127103
0.0126678
-0.00822922
-0.000418403
0.0161701
0.00173013
-0.017903
0.00853139
0.000652151
-0.0088962
0.0151718
-0.0100017
0.015437
0.00153132
0.000650006
-0.00623602
0.015941
-0.00990495
-0.0125348
0.0192112
-0.00674144
-0.0011379
0.00124758
-0.000125239
0.00343058
-0.00282424
-0.000624155
-0.0152795
0.000555614
0.0146857
-0.000101658
-1.03364e-07
-0.0014099
5.17306e-05
0.00133014
0.000558139
-0.0032879
-0.016209
0.0173811
-0.000540568
-0.000425464
0.0176381
-0.0138814
-0.0160765
0.0146304
0.00129732
0.000906203
0.00587649
-0.0163768
-0.0137301
0.00093917
0.0124447
0.00145673
0.011189
-0.00234021
-0.0165423
0.000914659
-0.00196878
0.00435367
-0.00332922
1.35874e-05
0.00194692
-0.00198599
-0.00019904
-0.0111043
0.0110347
0.0138071
-0.00116516
-0.012815
0.00243342
0.0171798
-7.22183e-05
-0.0108527
-0.0192604
0.000530044
0.0221688
-0.0125126
0.0196575
-0.00204879
-0.0176323
0.00128167
0.0123385
0.0186931
-0.00216641
-0.000588914
0.000629676
-4.42398e-05
7.95199e-05
-0.016282
0.00280135
0.0159562
-0.00174595
-0.00224237
-0.0109295
0.000192623
0.0105136
0.0141751
0.00154044
-0.015865
0.00394823
-0.00778069
0.00260597
-0.00584366
0.0022711
0.0173999
-0.000502976
-0.0169709
-0.0208712
0.0141721
-0.00238592
0.00134594
0.01766
-0.00255723
-0.015317
-4.47437e-05
4.07325e-05
0.00137418
7.9909e-05
-0.0119759
0.0104009
-0.0118877
0.000930366
-0.000881987
-0.000205432
-1.147e-05
0.00331865
-0.0030807
-0.000287756
0.0208861
-0.00365611
-0.0173679
0.00228793
-0.00198079
-0.000333896
-4.47437e-05
-0.0157275
-0.0060152
0.000662395
0.00531907
0.0181717
-0.00201648
0.000450043
0.00833979
0.0117898
-0.000128157
-0.0119275
4.93703e-05
0.00498645
-0.0177845
0.000200872
-0.000201668
0.0183259
0.000425827
0.00286563
0.00218279
0.0175598
-0.019783
0.0029074
0.000560946
0.0110035
-0.0151208
0.0137645
0.0011917
0.0156654
0.0135498
0.000629643
0.0124539
0.00180174
-0.0018128
-9.10987e-05
-2.45996e-06
2.86526e-05
-0.00146665
-0.0147216
0.0142804
0.000419056
0.00195387
-0.0194509
0.0174382
0.0155447
-0.0110208
0.000233605
-0.00375061
0.012378
-0.00867867
0.000731109
0.00360789
-0.00788273
0.00865744
-0.0103189
-0.000630821
0.012873
-0.00623648
0.0165519
-0.0184204
0.0200084
-0.00255651
-0.0175568
0.00214135
0.00474246
-0.0173369
0.00975574
-0.00948691
0.00322392
-0.0102322
0.0172254
0.00198988
0.000272181
-6.8356e-06
-0.00251878
0.00180911
-0.0211814
0.0113077
0.00978612
5.617e-05
-0.000114304
4.96772e-05
-0.0197783
-0.0112969
-0.00187205
0.0126659
-0.00163592
0.0184041
-0.016783
-0.0172513
0.0113932
-0.000100674
-8.80498e-06
-0.0137929
-0.000915897
-0.0168346
0.0152307
0.00129609
-0.0165881
0.0139714
0.00258087
-0.000824758
0.000662533
0.00274917
-7.70208e-05
-5.5249e-05
0.000104989
0.00140646
-0.0172264
-0.0164555
-0.00190432
0.0181255
0.000799798
-0.0129273
-0.000909954
0.0161243
0.00120209
-0.000639264
-0.0091373
-0.000572552
0.0144214
-0.0138538
-0.0127084
0.0159967
-0.0177587
-0.0102706
-0.000893104
-0.00872743
0.00793338
0.000400065
-0.0104651
0.0119011
-0.000230592
2.32277e-05
-0.00116994
-0.00211544
-0.0158191
-8.12875e-05
0.000953535
0.0123986
-0.0118395
0.00114369
-0.00375405
-0.000938838
0.0196367
-0.00230357
-0.0173766
-0.0123869
0.00170161
0.0179243
5.0617e-05
-0.000701595
0.000526112
-0.00205854
-0.00860835
0.000551272
-4.70008e-05
-0.000551024
-0.00247712
-0.00291486
0.0198209
-0.0181524
-0.00603979
0.0044785
-0.0137752
0.0196454
-0.00591023
0.0151437
0.017849
0.000507895
-0.0184017
-0.00204889
0.0152651
0.0172839
0.00230228
-0.000403203
-0.0201882
0.00735135
0.000953414
0.00884412
-0.00150246
-0.0112332
0.0180285
-0.0158717
0.0115903
-0.0105573
0.0140566
-0.014634
0.019453
-0.00970264
-0.000117012
-3.69428e-05
0.000111873
0.00698967
-0.0051237
-0.00197893
-8.24126e-06
-0.000581585
-0.020117
1.70192e-05
0.00175685
-0.0103081
0.00968151
0.000598515
-0.0125793
0.0142932
5.49483e-05
-0.000830827
-0.0128818
0.0013444
0.0115285
0.0028148
0.0110686
0.000165699
0.000172256
0.000820496
0.000558938
4.27838e-05
-1.23165e-05
-0.000144258
-0.000691838
-0.0157906
-0.0157677
0.00057916
0.0149511
-0.000299697
-0.0146716
0.00251575
2.37581e-05
-0.00260299
0.0144365
-0.0130591
-0.00140058
-0.000721615
0.0129214
-0.0122273
0.0118745
-0.0183293
-0.00170904
0.00211818
-0.00142944
-0.000317622
-0.0111952
0.0115102
0.0182306
-0.00201358
-0.0163427
-0.0103654
0.000540351
0.00978054
-2.08412e-05
0.0015788
-0.001588
0.000622314
-0.00205633
-0.0147639
0.0166589
0.000467265
0.00279392
0.0195581
0.0183089
0.00158932
0.011632
0.00545562
0.000339835
-0.0058103
-0.0198784
0.00334365
-0.0172598
0.0194335
0.0069493
0.0113498
0.000674012
0.0109133
-0.0112336
0.0112334
0.0013897
-0.0126312
-0.000680827
0.00829684
-0.00762928
0.00146917
0.0108675
-0.0123445
0.0176304
0.0016711
0.0118063
-0.0136964
-0.00240094
-0.0172354
0.0196097
0.0183214
-0.0106849
0.0175431
0.00171219
0.0127032
-0.00522051
0.0105664
-0.00535348
-0.0004164
-0.0107148
0.00207505
0.0160634
-0.0149163
0.00409505
0.011381
0.000150385
-0.000412375
-0.00165107
-0.0109255
0.0104601
-0.0133063
-0.00900027
0.0093156
-2.65291e-05
0.00910863
0.00123138
0.00564507
-0.0162056
-0.0145087
0.00108088
0.0134038
0.00551092
-8.86619e-05
-0.00543838
-0.00248142
0.00174272
0.0196916
-0.0160937
-0.0196875
0.0178105
-0.0156643
-0.00127864
0.00193398
0.00222174
-0.0177225
0.0154434
-0.010413
0.0097956
0.000597756
-0.0126616
0.000871384
0.0114712
-0.000402102
0.00258893
-0.00227668
0.00159957
-0.0146782
0.0176919
0.00165208
-0.000229234
-0.0117573
-0.0130757
0.0140844
0.0133425
-0.0118911
2.1131e-05
4.48304e-05
0.00704669
-0.003236
0.00140563
-0.0164079
0.00611443
0.0102337
-0.0164161
0.0175852
0.0199185
-0.00269416
-0.00221919
0.000240884
0.00194081
-0.00204096
-0.0106029
-0.0106574
0.00411156
-0.00977924
0.000463415
0.0152909
-0.0186129
0.0179149
0.000547497
-0.0141014
0.000834882
0.0132322
0.00211811
0.000226166
-0.00073078
0.00078467
-5.92627e-05
0.0168803
-0.000475145
-0.0122925
-0.000675349
0.00487886
-0.000859859
-0.00405117
-0.0164592
0.0189035
-0.00150554
0.00107705
-0.0158201
0.0146748
0.0106544
-0.000821543
0.0193905
-0.00119547
0.00424543
0.0151269
-0.000262304
0.00227556
-0.00204984
0.0164555
0.00130602
-0.0178914
-0.0136593
-0.000872235
0.00233716
-0.000240068
0.00125631
0.00789041
-0.00549108
0.00538897
-8.05976e-05
-0.00969462
-0.00489653
0.000102541
-5.49259e-05
-0.00792771
0.000132129
0.00755078
0.00988065
-0.000600677
-0.00932121
-0.0122273
0.0133198
0.0163623
0.00296704
1.58114e-05
-0.00309354
0.000202802
-0.00586423
0.00271432
-0.00202077
-0.000753041
0.00234325
0.0174931
-0.0144146
-0.00168521
0.00163456
0.0136152
0.000975404
-0.00773401
-0.0185919
0.00193854
0.00148598
0.0169003
0.0123136
0.0177024
0.00156784
-0.00136683
0.00178578
-0.00120807
0.00463101
-0.0184463
0.00463854
-0.00566608
0.000992978
-0.013673
-0.0130854
0.0118838
0.00119325
-0.0181542
0.011453
0.0177798
-0.00997766
0.000163979
0.0149529
0.00183614
-7.11797e-06
-0.00106748
-0.000875522
-0.0109861
-0.00191716
-0.0193078
0.0221694
-0.0140506
-0.00244609
-0.00033376
0.00277887
-0.00857587
-0.000282411
0.0021534
-0.00186691
-0.0195587
0.00184488
0.0176513
-0.00077871
0.00538181
0.00189434
0.000610371
0.00922707
0.00222009
6.73878e-05
-0.00236791
-0.0108793
0.0160297
0.00139747
0.000140582
0.00236463
-0.00309676
-0.0175562
0.0154962
0.0019199
-0.000792572
0.0113289
0.000350318
-0.00279506
0.00199627
-0.0146427
-0.00010364
-0.00655592
0.00115286
0.00530206
0.0138371
0.00559357
-0.00178499
0.000574876
0.0175973
0.000321278
-0.00886684
0.00907335
-0.000338302
0.000332206
0.00119422
-0.00203349
0.00139509
-5.14646e-05
-0.00141087
0.00135949
0.0131286
-0.0145057
-0.0109359
0.000464253
0.0104586
0.00499594
-0.00400711
0.00434251
-0.000799438
-0.0139714
-0.00103491
-0.0120196
0.012887
0.00494729
0.000514139
0.0155212
-0.000271522
-0.00521416
-0.00742715
0.000188917
0.00699681
-0.0125409
0.0185798
-0.0198725
-0.000156933
5.49704e-05
0.017317
-0.0160134
-0.00395896
0.00270549
-0.000316599
-0.00243288
-0.0134281
0.0172391
0.00224717
0.000365866
0.00230105
0.00951977
-0.00895196
0.000470482
0.00352449
-0.00399578
0.00043558
-5.03218e-05
-0.000431481
0.00171037
-0.0181637
0.0164363
0.0156375
-0.014628
0.00505124
-0.0102808
-0.0161766
-0.00159897
0.0196901
-0.00197113
-0.017771
-0.000448294
-0.0086664
0.00101742
-0.0107007
-0.0183613
0.00213879
0.00044702
-0.000431837
-7.11371e-05
-0.012608
-0.00828552
0.0141288
-0.00168023
-0.00753951
-0.000106862
0.00010637
-5.51466e-05
0.00383189
-0.00336199
0.000622995
0.00765114
-1.4717e-05
0.00246206
0.0112625
0.000905786
-0.0121727
-0.00298924
-0.00922691
-0.0138871
0.0138252
-0.0124825
0.00807399
6.45847e-05
-0.00831879
-0.00251906
0.000287844
0.00219386
-0.00543485
-0.00219137
-0.0016961
1.01428e-06
0.000569212
0.00049131
-0.0052201
0.0049938
0.000124877
-0.00878836
0.00847497
-0.000337952
-0.00524283
0.000381399
0.00475979
-0.013062
-0.00291872
0.00258439
0.00149068
-0.0202424
0.00219629
0.0179444
0.0198919
-0.0137459
0.0135015
0.00167908
-0.000106215
0.0044196
-0.00462771
0.00908652
-0.00498693
0.000150923
0.00024091
0.0178019
-0.0161074
-0.0186955
0.0161751
0.00250183
-0.0190605
0.00158976
-0.0012964
-0.000399804
0.00698572
-0.0123884
0.012517
-0.0122348
-0.000287001
0.0151549
-0.0109147
-0.00112298
-0.0160125
-0.000714381
-0.000227493
-0.001591
0.00181573
-0.0007088
0.00960082
-0.00889584
-0.00106223
-0.000251928
-0.00168224
0.00193419
-0.0111532
-0.00922306
0.000621741
0.00860257
0.000455071
0.00337604
-0.0189494
0.00358465
0.00225029
0.00902249
-0.000447408
0.00354052
-0.00309491
-0.0121775
0.011454
0.000712824
0.00983834
-0.0140629
0.000433931
0.0135955
0.0036952
-0.00324068
-8.31477e-05
0.00681502
-0.00697842
-8.39444e-05
4.09432e-06
5.09464e-05
0.00178038
-0.00203196
-0.000816705
-0.0132447
0.0140397
-0.000115089
-0.00959812
0.00910574
0.00184879
-0.0132733
0.0146001
0.0017848
-0.0096397
0.00999728
0.0029379
-1.8259e-06
-0.00300815
0.00553381
-0.01361
-0.0179829
-0.0147333
-0.00311565
0.00384747
-0.0171839
0.000630757
-0.00967224
0.00902118
0.00656777
-0.0126852
0.0109799
-0.00747744