/*--------------------------------*- C++ -*----------------------------------*\
| =========                 |                                                 |
| \\      /  F ield         | OpenFOAM: The Open Source CFD Toolbox           |
|  \\    /   O peration     | Version:  v2012                                 |
|   \\  /    A nd           | Website:  www.openfoam.com                      |
|    \\/     M anipulation  |                                                 |
\*---------------------------------------------------------------------------*/
FoamFile
{
    version     2.0;
    format      ascii;
    class       surfaceScalarField;
    location    "450";
    object      meshPhiCN_0;
}
// * * * * * * * * * * * * * * * * * * * * * * * * * * * * * * * * * * * * * //

dimensions      [0 3 -1 0 0 0 0];
oriented        oriented;


internalField   nonuniform List<scalar> 
14885
(
0.000366198
0.00109067
-0.00149442
0.0145727
-0.00798178
-0.00675775
0.000673486
-0.00638772
0.00543611
-0.00267967
0.00363604
-0.000661416
-0.000251751
0.00195406
-0.00231034
-0.00532118
0.00110177
0.00434335
-0.00259308
-0.0100588
0.0122734
0.00232437
-0.00284146
0.000439961
0.00049711
-0.000418043
-0.000155639
0.00997393
-0.00395791
-0.00618419
-0.000679588
-0.00280583
0.00351479
0.00693206
0.00749383
0.0014862
-0.00985229
0.00805525
-0.000663833
0.001489
-0.000940771
0.00870898
-0.0025505
-0.00598929
-0.0016739
0.000929753
0.00443998
-0.00388862
-0.000355629
0.00279932
-0.00343683
0.00587271
-0.00132221
-0.00495118
0.00277358
-0.000709074
-0.00208154
0.00904164
-0.00784759
-0.000990567
0.00130355
-0.00436998
0.00150832
-0.000445306
0.00445157
-0.00396946
0.00248761
-0.000507155
-0.00211061
7.217e-05
-2.13783e-05
-8.34781e-05
0.00829198
0.00126931
-0.000876707
0.000872004
-8.12322e-06
-0.000768533
-0.00437744
0.00121182
0.00274821
-0.00402531
0.000111775
-0.000192451
0.000189152
0.0105413
-0.00169815
-0.00897888
0.00032869
-0.000121905
-0.00040044
4.44256e-05
1.60147e-05
0.00265812
-0.00035857
0.0026299
-0.00235132
-0.000259534
-0.00325799
0.00065474
0.0016258
-0.000482245
5.03333e-05
0.000487088
0.000188911
-0.000174702
-0.000307412
0.000325571
-1.17904e-05
-0.00398887
0.0051187
0.000197405
-0.0105317
0.0125595
-0.00211191
-0.0147662
0.012908
0.00149087
-0.000144349
1.08446e-05
4.57997e-05
0.000903891
0.00185996
1.34978e-05
2.52134e-06
1.10979e-05
0.00803662
0.00105305
0.00112091
-0.00959122
0.00817479
0.0138882
-0.0148189
0.000698178
-0.0116651
0.00102417
-2.04937e-05
0.00101582
-0.00098373
0.00379947
0.00059531
0.00495553
-0.0156475
0.0144817
0.00105984
-0.0136954
0.0125555
0.000993997
0.00128077
0.00756974
0.00396367
-0.0013867
-0.00288642
0.00448716
-0.00416868
-0.000545152
1.02549e-05
-7.91933e-06
-8.20649e-07
0.0100971
-0.0093188
0.0154424
-0.0145846
-0.00114346
0.0110862
0.00133445
0.00208247
-0.00246615
0.000345887
0.00116159
-0.000164239
-0.00107492
-3.02728e-07
-3.8183e-05
-0.000130371
0.00286022
-0.000942
-0.00193426
0.00150453
-0.00194557
0.000371339
1.81445e-05
3.46632e-05
-3.87853e-05
0.00170713
-0.000279733
0.0114922
-0.0120639
0.000426089
-0.000344145
-0.00333482
0.00403789
-0.000250426
-0.00121379
0.00142756
0.000855622
0.00346683
-0.000314175
-7.57999e-05
-0.000277441
-0.000408946
0.000738153
-0.000462375
3.9013e-05
2.9214e-07
0.000454207
-0.000975765
0.0043819
-0.0060899
-0.0132904
-0.00165237
-0.0044103
7.25143e-05
-0.000447851
0.000137966
-0.000740615
-1.79423e-05
0.00118837
0.00760655
-0.00297041
-0.00497762
-0.0113633
0.0115695
-0.000438529
0.00201013
0.000752322
0.00634268
-0.00594292
0.000462515
7.52874e-05
-2.02784e-05
-0.000294786
-0.000705593
0.00101025
0.00952507
-0.00668354
-0.00312924
0.00415874
-0.00662835
0.0111251
-0.000189704
0.00126638
-0.0128998
0.00164572
-0.00015834
-0.00134799
0.00245892
-0.00255483
0.000319091
0.00883737
-0.00866414
0.0018175
0.00426099
-0.00510992
0.000775826
-0.00478342
0.000594316
0.00421427
0.00669817
0.00246248
0.00947137
-0.0106472
0.000781835
-0.00122495
-0.00296237
0.00354644
-0.00785305
0.0105279
0.00639695
-0.000684849
-0.00607165
-0.00239538
0.00245872
1.24815e-07
0.00476048
-0.012944
0.00807359
-0.000683615
6.54847e-05
0.00940959
-0.0123381
0.000264667
-0.00292904
0.00414242
-0.00477189
0.000785705
-0.00327866
0.0123363
0.0101475
-0.0010051
0.00243925
-0.000378085
0.000173476
0.00103425
-1.7065e-05
-6.24261e-05
0.000141195
-0.0015551
0.0039553
-0.00261777
0.000368152
-0.00015272
-0.000410807
0.000911823
0.00270576
4.13044e-05
-0.000253558
0.000268514
7.81893e-06
1.79013e-08
0.0122557
-0.00666952
-0.00585053
0.00864891
0.00347133
3.16777e-05
8.79709e-05
0.00041128
-0.000687839
0.000687334
-0.000483795
3.00811e-05
0.000441594
-6.70995e-05
-0.00108122
-0.0146799
0.0100731
-0.00944807
-0.000705946
-0.00423808
0.00247673
-0.000239886
0.000272846
-1.21989e-05
-0.00164888
0.00130399
0.000405691
0.000110188
-0.00102159
0.00104202
0.000425973
-0.000662601
0.000340689
0.00748417
-0.0110515
0.000866038
-0.0120434
0.0109316
0.00365774
-0.000794125
-0.00288108
0.00787741
0.00932032
0.00729923
-0.00690542
-0.000836708
0.00518491
-0.000987092
0.00130156
-0.0109679
0.00947504
-0.000119966
1.14498e-06
8.29067e-05
0.0154198
-0.0107866
-3.07789e-05
-0.000853514
-0.00397837
0.00592472
-0.00213249
-8.65748e-05
-0.000309766
0.00327751
0.00395782
9.08843e-05
-5.59211e-05
0.000837668
-4.62885e-05
-0.00127409
-0.00127223
0.00483521
-0.00370145
-0.000457017
-0.000179011
-0.000424897
0.00045199
6.3768e-05
-0.00743867
0.00636786
0.0011783
0.00921508
-0.0102473
0.000863635
0.000247824
0.00156919
0.00132351
-0.00548785
0.00925528
0.000732355
-0.0110173
-0.00280547
0.000763615
-0.000548893
7.82664e-06
4.4497e-05
0.000606639
-0.000605984
-9.0843e-05
-0.000271647
-1.61322e-05
0.0116897
-0.0110809
-2.37777e-05
0.000553771
-0.00572934
0.00463918
0.0046469
-0.00611725
0.00175341
-0.0020584
-0.0108432
0.00279998
0.000238374
0.00232911
0.00016743
-0.00016912
-0.000215605
0.00233343
-0.000272349
-0.00188345
-0.00267157
0.00537562
-0.00843008
-0.00180313
0.00998862
-7.13951e-05
-0.00481367
0.00512416
-0.0105314
0.00185324
0.000371294
0.000456159
-0.00100156
-0.000467076
0.000494704
-0.000559423
-0.00113479
-6.79442e-06
3.5637e-05
0.00593174
0.000752716
0.00779558
-0.00323508
-0.00486314
-0.00406554
9.82487e-06
-7.08673e-06
0.000116724
0.000391728
-0.000120459
-0.0003146
0.00541468
0.00281094
-0.00848602
0.00373989
-0.00375021
-1.13048e-06
4.37051e-06
2.56054e-06
0.0114041
-0.000463499
-0.0110967
-0.00167695
0.00151764
0.000276925
0.00230642
-0.00795199
0.00903796
-0.000366593
-4.5121e-06
0.00170053
0.0058777
-0.0152969
0.015935
-0.000819198
0.0071409
-0.00287592
0.00601655
-0.0105964
0.00452794
0.00262149
-0.000310181
-0.00235782
-0.00919388
0.00856673
0.000619264
-0.000496624
7.00801e-06
0.00873807
-0.0102621
0.00143539
-0.0113049
0.0108644
0.000250057
-0.00572223
0.00103054
0.00471571
0.000381772
-0.000257183
2.6457e-05
-0.00448365
-0.000728143
-7.97741e-05
-0.000716236
-0.000359106
-0.00421957
0.00472324
0.00966143
-0.000721336
0.00460725
3.08687e-05
0.000543394
-8.04846e-05
-0.000476445
0.000533113
-3.2763e-05
-0.00513844
-0.000522717
-0.00622986
0.0056697
0.000399709
0.00239574
-0.00656825
0.00297155
-0.00129648
-0.000352403
0.00156391
-9.74987e-06
0.00019774
-0.000127375
-0.00118831
0.00731768
-0.00645874
-0.00327645
9.83463e-05
0.00361531
-0.000797591
-0.00944465
-0.000727132
0.0101273
0.000277436
0.00212463
-0.0102075
0.000712732
0.000358669
0.00168034
0.00229877
-0.000370644
6.88527e-05
0.000550766
-0.00076663
0.00108238
0.00238248
0.00108869
-0.00861455
0.00683793
0.00187369
-0.00352967
-7.31704e-05
-0.000318193
0.000223684
7.52955e-05
0.00813215
-0.00302048
6.09294e-06
0.000304403
-0.000614858
0.000750229
-0.0026745
0.00398209
-0.00143476
-0.00292844
0.0093686
-0.000549362
0.00507327
0.000683127
0.00414217
0.000398679
-0.000623554
0.00649253
-0.00607772
0.00463952
-0.000588188
-0.00433689
5.91911e-06
-5.26153e-07
-0.000229733
-4.08386e-05
0.0132394
0.000855891
-0.0142527
0.00204677
-0.00290562
0.000646846
0.00367937
0.00526501
-0.00035715
-0.00409215
-0.00324226
0.00157336
-4.47785e-05
-0.000617396
0.00663694
-0.000444799
-1.35401e-05
0.0051989
-0.0024718
-0.0028546
0.00402528
0.00795082
-0.0122064
0.00014965
6.82785e-06
0.00109954
0.00265335
-0.000196297
-0.00127686
0.000812419
-0.00113091
-0.000169691
-0.0051573
-0.00352819
-8.42881e-05
0.00292308
-0.00244017
0.000187692
-0.000892719
-3.63848e-05
-0.000605236
0.000535077
0.000241553
-0.000236367
-3.83681e-05
6.69969e-05
-0.00052685
-0.0122682
0.0159442
-0.000814758
0.00100226
0.00227272
0.00287094
-8.32955e-05
-0.00026339
0.0011532
-0.000150733
0.00042303
-0.00204109
0.0101856
-0.00758076
0.0126454
0.000914457
-0.00127858
0.00112351
7.19871e-06
-0.0116148
-0.000617704
0.000196803
0.000256789
0.00281414
-0.00078829
-0.00226925
0.00721802
-0.00233309
-0.00475445
-0.0019783
0.000115911
0.00152548
0.00144045
-0.000759025
-0.00156935
0.000486207
0.000309979
0.000445936
-0.0042752
0.00350819
0.00973999
-0.00376889
0.000879941
0.00611846
-0.00759348
0.00234249
0.00143942
0.00932804
0.00025725
-0.00958343
0.00119302
0.00194473
-0.00331495
-0.000366412
-2.26812e-05
0.000376681
0.000121049
-0.00103216
0.000837116
-2.21455e-05
-0.000284817
0.00870577
-0.00773213
-0.00118057
-0.00010127
0.00182532
-0.00209865
0.000270864
-0.0024693
0.000935205
0.00319705
-0.00488779
0.0014437
-0.00104523
0.000818579
-0.00148115
0.000779354
-0.010235
-0.00057245
0.0102764
0.00431208
-0.00347587
0.00781182
-0.00936244
8.26849e-05
-3.10081e-05
-0.000684799
-0.00517143
4.08438e-06
1.68323e-06
-0.00652776
0.00571306
-0.00176218
0.00283265
0.00605749
0.0091471
0.00143304
-0.00171969
0.00012606
5.05232e-06
-0.000229669
-0.0101225
-0.000444087
0.00441551
-0.00135494
-0.00330228
-7.07277e-05
0.000259196
0.000167376
-0.000226124
-0.000363756
0.00277844
-0.000606047
0.00152861
0.00162857
-0.00210802
0.000873182
-0.000821287
-4.21634e-06
-2.56206e-05
0.000234496
0.000143529
-0.00451805
0.000387391
0.00406328
0.000212707
-0.000166815
0.000193052
0.000104248
-0.000202499
-0.0117118
-0.000104505
0.000697753
0.00185417
0.00224999
-0.000269734
-0.00197043
0.000584723
-0.000541171
-6.22621e-05
-0.00258596
0.00380309
-0.00255528
0.000282403
0.00206594
-0.00195286
0.00141841
0.0025191
0.00111223
0.00735133
0.000798918
-0.000633072
-0.00451736
0.00532782
-0.000289952
-0.000601911
0.00164288
-0.000138705
0.000145138
-5.89204e-05
0.00437642
-0.00458094
-0.000181386
-0.000953652
0.0164204
-0.0109829
-0.00569777
0.00191855
0.000333496
-0.000655907
-4.45127e-05
-0.000606245
0.00495002
0.0102793
-0.00915659
-0.00118026
0.00913333
-0.00811518
7.52018e-06
1.83907e-07
-0.00215779
0.000230181
0.00181822
-0.00110682
0.000826625
0.00061373
-0.000325949
0.000339586
-0.00100323
0.00117412
-8.25728e-05
-0.00049806
0.00149885
-0.00101496
-3.56368e-05
9.77115e-05
-0.000404241
0.000447995
0.00472988
-0.00495424
0.00125323
-0.00127732
-0.000626162
0.000245381
-0.00054067
0.000617266
-0.000136094
6.16502e-05
-0.0148699
-0.000285719
-0.00237092
0.000291732
-0.000412075
-3.70798e-05
-0.00121392
-0.00911621
0.0101977
0.000197589
-6.16489e-05
-3.51948e-05
0.00282555
-0.000179936
0.00289576
-0.00316806
0.00453136
-0.00446962
0.00429674
-0.000573846
-0.00392734
0.00317044
-0.0040435
-0.000214955
0.0016462
-0.00229726
0.000959978
6.87504e-05
-0.000761435
0.000631177
-0.000614598
0.0158712
-0.0141269
-0.00183587
2.8593e-08
-0.000326639
-0.000230726
1.46029e-05
-5.05038e-06
5.05038e-06
0.00798975
0.00317579
-0.00118641
0.00115524
3.74362e-05
-0.00314284
0.00209435
-0.000795892
0.00615036
-0.00567856
-0.00121831
0.0134712
-0.0127204
0.010763
-0.00306092
-0.00371978
0.00382016
0.000173617
0.00549786
-0.00658897
0.00770835
-0.00732073
-0.00163899
-0.000365479
0.011774
-0.00451263
-0.00740571
0.000300003
2.032e-05
-0.000122295
-1.44307e-05
-0.00146213
0.001245
0.000292927
-0.000373161
6.66654e-06
0.000939265
-0.00114688
-0.01046
0.0104404
-2.03256e-06
0.00506046
-0.00438981
-0.000359291
0.00337699
-0.00317147
-0.000559271
0.00370044
0.0159036
-0.00814753
0.00365854
-0.000232612
-0.00355865
0.000407904
0.00219648
-0.00410489
-0.00661462
0.00618018
-0.00798577
0.00134258
-0.000193693
0.00951698
-0.0101909
0.000635321
-0.000468841
0.000425157
2.604e-05
0.0143207
-0.00247214
-0.0083449
0.0107806
0.000126232
-0.00073847
0.000702428
0.00933094
0.000695159
9.54458e-05
-0.000746037
0.000673906
0.00568992
0.000237597
0.000498559
0.00582105
-0.00279349
-0.00297646
-0.00299433
0.0055733
-0.00291018
0.00391075
-0.00476259
0.00034995
0.00517379
0.00249957
-0.000326264
-0.00218494
0.000792107
-6.78279e-05
-0.00084819
0.00143506
-0.00638906
0.00457166
0.0146691
-1.22229e-05
-0.000376076
0.000408203
0.000374551
0.000392814
-1.9067e-06
-4.7553e-05
-2.23802e-05
0.00248787
-0.00309748
-6.09568e-05
-0.000261657
-6.47128e-05
0.00018864
-0.000253251
0.00165914
0.000744455
-0.0026587
0.00740501
-0.0005659
-0.007274
0.0024547
0.00327662
-0.0013587
0.0016237
-0.00928171
-0.00045822
0.00193704
1.72263e-05
2.74008e-05
0.00284872
-0.00614497
-0.000970177
-0.00140732
-7.6484e-05
0.000790956
0.000419056
0.00385868
0.0115598
0.000611324
-0.012225
-0.0025467
2.21285e-05
3.57859e-05
-5.3076e-05
0.0112014
0.00124002
0.00065539
-0.000634731
-5.65014e-06
-0.000424072
0.00148036
0.000356905
0.00440936
-0.00504958
-0.000482817
0.000336823
0.000416143
-1.58009e-05
-0.000402707
0.000549706
0.00192932
0.000524566
0.010974
-0.00211171
-1.06155e-05
0.000162346
-6.21496e-05
0.00251474
-0.00204038
0.00687013
-0.00921809
0.00202776
-0.00208726
0.00871612
0.00846071
0.00312227
-0.00193623
-0.00283879
-0.000856539
4.17586e-06
0.00147905
-0.011216
0.00072723
1.08133e-05
1.89808e-05
-0.000213706
0.000166199
-0.000496476
-0.000543899
-0.00407309
0.00201924
0.00181083
-0.00148776
0.00156283
2.23407e-06
-8.34267e-05
-0.00137082
-0.000154211
-0.0013115
-0.000217713
-0.00127537
0.0066077
-0.0066389
0.000831525
-0.00170992
0.00180319
-0.00188499
0.01142
-0.0110955
-0.000426438
0.000364951
4.69323e-05
-0.0102839
8.03686e-05
0.0101858
0.0123977
-0.000946958
0.00588139
-0.000970961
-0.00506681
8.10049e-05
-0.000251118
0.00740413
-0.00689091
-0.000104074
0.000375459
0.00454376
0.0111246
-0.000939907
0.00794255
-0.00655307
0.00233063
0.000127559
0.00549827
-0.00468377
0.00434007
0.000723869
-0.000120997
1.84225e-06
0.0054505
-0.00640417
0.00010705
-0.000114318
0.000626669
0.00162699
0.000735725
-0.00407463
0.00329884
3.03043e-05
-2.55877e-05
0.000517684
-0.000200162
-6.43708e-06
-0.000386606
0.00858215
0.00375682
-0.0123547
0.000356769
-0.000497107
-0.0024544
0.00216801
0.000197028
0.00656588
-0.000620058
-0.00624586
-0.0096178
0.0100715
0.000384259
0.000136326
-0.0002291
-0.00430081
-0.000697378
0.0104302
0.00149943
-0.0121446
-0.00480485
0.00517388
-6.10159e-05
0.000527122
-0.000844618
0.00406164
-0.00405271
0.0125673
-0.00661738
-0.00372455
0.00992921
0.000231205
-0.00352265
0.00341096
0.00196373
0.00117625
-0.00291018
-0.000207368
2.13875e-05
0.000175113
-0.00630839
0.000683906
0.00511271
-0.00570328
0.00474451
0.00061893
-0.00536622
0.00488577
0.000225785
0.000412815
-0.00434935
0.00039988
-0.000108907
0.00575054
-0.00479029
-0.00122676
0.00306505
0.000103242
-0.00335714
7.6821e-05
-0.00447399
0.00019597
0.000530715
3.41232e-05
0.00603728
-0.00136227
-0.00192615
-0.00518935
0.00562356
-0.000207782
-0.000543203
0.000502435
3.2976e-05
-0.00443586
0.0054804
-0.00295732
0.00329868
0.00438326
-0.00297148
-0.00417012
0.00434401
0.00670789
-0.00364107
-0.00356701
0.00206616
-0.00242286
-0.00490683
0.000723673
0.00348551
0.00085574
0.00310528
0.000680902
-7.75574e-05
-0.000955509
-0.000186563
-2.50182e-05
0.0126032
-0.00238963
-0.00316659
-0.000209298
0.000178348
0.000194297
-0.000480609
0.00087924
0.00564837
-0.00124302
-0.00109897
-0.00433855
0.000261259
0.00372847
-0.00824565
0.000249288
0.00748653
0.000214883
0.0142935
-0.00120196
-0.000909548
0.00278886
-0.000925631
0.00131336
-0.00015058
-0.00133557
-0.000732516
-0.000855319
0.00189302
-0.00811117
0.00837019
-0.000554476
-0.00332064
0.000789337
0.00146484
-0.00146544
-4.7708e-05
0.0028073
0.00366311
1.08557e-05
-6.48154e-07
-0.000944661
-0.00812443
0.00862616
-0.0101358
0.00312582
-0.00019357
1.79993e-05
9.7982e-05
-0.00279896
0.00254994
9.63805e-05
0.00806628
0.00821208
-0.00721212
0.000928262
0.00598461
0.00222754
-7.60101e-05
-0.000104287
7.42228e-05
-0.000183442
0.000264923
-0.000135114
-9.87565e-06
0.000193178
-0.000343707
-2.10495e-06
0.000356206
-0.002245
0.000371114
0.00152684
0.00306461
-0.0100526
0.00108294
0.00856843
-0.00227105
0.0021163
-9.84768e-05
-8.19098e-06
1.18245e-06
1.34932e-06
0.013554
-0.0126323
-0.00101262
0.00538347
-0.00641945
-0.00186511
0.000103778
0.000148363
-0.000987417
0.000831209
9.50221e-05
0.00141042
0.0119764
0.0038607
0.000285558
0.000193188
0.00106518
-0.00376424
0.00445256
0.0144887
-0.00645961
-0.00754232
0.00108275
-0.00908277
0.00775909
-0.000123317
-5.1589e-06
4.77162e-05
-0.000114168
-0.000113217
-0.000424494
0.000769689
0.000366612
-5.11694e-06
-0.00323762
0.0036745
-0.000170291
0.000628297
-0.00112929
0.000555983
-0.0008819
-0.00512532
-0.000243151
0.00596494
0.00809368
-0.00932037
0.000779825
0.00373487
-0.000401411
-0.00316747
0.00114017
-0.000131498
-0.00103703
-9.51994e-05
9.71074e-05
-0.00471645
-0.000744121
-0.0080441
-2.74837e-05
1.9839e-05
-0.000331747
-0.0018529
0.000428278
0.00240806
-0.00019828
0.000204271
-0.0139467
0.0122871
0.000544214
0.00124501
0.000115138
0.00113702
-0.000327764
0.000432452
-0.00056899
-5.62786e-05
0.000317582
4.73879e-05
0.00120976
-0.00915304
0.0078286
-1.9215e-05
-6.83737e-05
-0.00111601
2.4942e-05
0.00128328
-0.000999771
-0.000148927
-0.0132498
-3.61812e-06
-1.96934e-06
6.37234e-05
-5.94323e-05
0.000245671
-7.24002e-05
0.0071099
-0.00698089
-0.000502938
0.00081303
0.00257639
-0.00136082
0.00163263
-0.00053725
-2.70649e-05
4.70809e-06
-0.00203933
0.000555832
-0.00031613
-0.000267759
0.000523847
0.000167654
0.000941391
-5.68036e-05
-8.64598e-05
-0.0076509
0.0111793
0.00121557
0.00103798
0.00319387
-0.00428457
0.00133584
-0.00128308
0.000832614
-0.00194094
0.0024242
-0.00077876
0.0078823
-0.00762768
-0.00832594
-0.000455056
-0.00259355
0.00423159
-0.00167274
0.00499318
-0.00400701
0.000912119
-0.00355868
0.00389247
0.00715517
0.00799381
2.80308e-05
-0.00425057
0.00284671
-0.00486868
0.00212434
0.00609669
0.000729944
-0.0026703
0.00274526
0.00377328
-0.00915853
0.00534766
-0.00542237
0.0055363
0.000233408
-0.00384911
0.00346713
0.000252671
-6.92996e-05
0.00154028
-0.0012112
-0.00492738
0.00501412
0.000307733
-3.24084e-05
-0.000411889
-2.61485e-05
0.000346284
0.0016422
0.00480962
-0.00190204
0.0061941
-0.00547559
-0.000136222
8.43919e-05
0.0109048
-0.000423163
0.00118344
-0.00214616
0.000178432
0.00702612
-0.00832972
8.01426e-05
0.00023357
0.000348593
0.00587715
-7.23705e-05
0.00317664
-0.000995519
0.00470864
0.00164696
-0.000161509
-0.00139224
-0.000322399
-0.000125348
-0.000877222
0.00857244
-2.87847e-05
-0.00487878
-4.09755e-06
-3.99673e-06
0.000180184
-0.000268632
-0.000202107
0.00342796
-0.00293952
0.00214645
-0.00010746
-0.00173592
-0.00226155
0.00210777
-7.30341e-05
-0.000430179
-0.00837751
0.0100987
0.000472073
0.00865666
-0.000275882
-8.45692e-05
0.000283255
0.00344801
-0.00309871
-3.62618e-05
-0.000199421
-0.00299299
-6.43657e-05
0.000252954
0.000308977
-5.97684e-05
0.00170144
-0.00133831
2.89453e-05
0.000639528
-0.00446559
-0.00606228
-0.00890883
-0.000327788
3.22189e-05
0.000295039
-3.0201e-05
0.000195925
-5.65553e-05
0.000592853
-0.000143989
0.0101313
-0.005307
-0.00484246
-0.00724727
-0.000548285
-4.24514e-05
0.00241613
-0.00567908
1.71703e-06
-0.00014524
0.000143989
-0.00637785
0.0122301
-0.00362081
0.00398999
-0.000663498
0.000869482
-0.00034878
0.000541473
-0.000270081
0.000185383
0.00159117
0.00241481
-0.000489135
-0.00193109
-3.64609e-05
-0.000790152
-0.00758936
0.000989825
5.18733e-06
8.22136e-05
4.01616e-05
2.22017e-05
1.09934e-06
-0.00193018
0.00206984
-7.38111e-05
0.000850149
-0.000755889
0.000943645
-0.0102162
-0.00756444
-0.00306911
-0.000190418
0.000179632
-9.93326e-06
0.000162396
-0.000279448
-0.000203534
0.000276089
-5.72859e-06
4.94129e-05
0.000346732
-0.000393739
0.00113122
-0.00386483
-0.000744098
-4.84578e-05
0.0107162
-0.0113363
0.00137621
-0.000325797
-0.00109615
0.00300285
-0.00103062
-0.00184415
1.70401e-05
-6.21584e-05
0.00194539
0.00364123
0.000612756
0.00481661
-5.56322e-06
1.74255e-08
-1.01183e-06
-0.00720778
0.00670282
0.00494302
-0.00439358
-0.000275777
-0.00317737
0.00571014
-0.000676818
0.00454476
-0.00154259
-0.0031896
-0.0161884
0.0155629
0.00151159
-0.000537534
0.000394681
-0.00028576
-0.000119416
-0.00453278
-0.000803416
0.00290418
0.00041945
0.00463075
-0.00420581
-0.000358697
-0.000760137
1.12203e-05
0.000762674
-0.000465141
-2.40998e-05
1.18289e-05
-3.97941e-06
0.000351274
-0.0038581
-3.54739e-05
9.65636e-05
0.00030156
0.000940451
-1.87829e-05
-0.000525998
0.0147159
0.00172098
0.00127734
0.00207536
0.0104224
-0.000667144
-0.0102142
0.00142896
-0.00662934
-0.00442463
0.00193838
0.000138066
-8.29296e-05
-0.00147172
0.00029929
0.0105864
-0.00686598
0.000252491
0.00683502
0.000761863
-0.00836644
0.00295255
0.000246222
-0.000620727
0.000914699
-0.00232904
0.00813608
0.000835075
0.000162651
-5.77767e-07
-0.000135423
-6.33719e-05
-0.00284641
0.00393882
-0.00143549
-0.000645915
0.000655672
-6.05281e-05
0.00216396
-0.0017977
-0.000392919
-0.0117689
0.000426536
0.0111887
3.30252e-05
4.05638e-08
-0.000325231
1.11945e-05
0.000322523
0.00178582
-0.00908546
-0.00480746
0.0048814
0.000367066
0.000288905
0.00526515
-0.0040749
-0.00628243
0.00591092
0.000523433
0.000138206
0.00152353
-0.00420801
0.00273624
-0.000221052
-0.00243371
0.00119986
0.0093672
-0.000754811
-0.00537761
-0.00191676
0.00221405
0.00236315
-0.00182887
4.43951e-06
0.0005734
-0.000625679
-2.12472e-05
-0.000918237
0.00134842
-0.00113538
8.79912e-05
0.000954705
0.000900652
0.00615699
-1.01142e-05
-0.00172396
-0.0147624
0.000159212
0.0075441
-0.00657852
0.0085424
-0.000971524
-0.00809727
-0.000116665
-0.00113479
0.00513141
-0.000626789
-0.000577417
0.000551044
-4.06683e-05
2.15176e-05
-0.00434898
0.00148067
0.00843456
0.000620663
-0.000779928
-0.00120214
2.19569e-05
0.00127028
0.00530901
0.000553428
-0.00545536
0.000980832
-0.00194346
0.000104526
0.000954601
-0.000604519
0.00693104
-0.000197714
-0.00675454
-0.0119139
0.00773012
-0.000896681
0.00060713
0.00847526
-0.00125435
-0.00702813
-0.000153261
0.000138138
-0.000506637
-3.47908e-05
0.00240777
-0.00158279
0.00217043
-0.000206652
1.38416e-05
-0.000309899
-1.6975e-05
0.000648641
-0.000576436
-5.17356e-05
0.00168689
-0.000301002
-0.0016909
0.00082706
-0.000711937
-0.000117289
-0.000153261
-0.00361643
-0.002699
0.000277804
0.00218512
0.00697111
-0.000828367
9.97239e-05
0.00188144
0.000153125
2.41326e-06
0.000154975
1.42775e-05
0.00124523
-0.00434489
0.000181499
-0.000179324
0.0068464
9.61274e-05
0.000608595
0.00119051
0.00948026
-0.0111491
0.00230239
0.000527587
0.0103854
0.000812952
-0.000789113
-7.03702e-05
0.00391172
0.010803
0.000496074
0.00389273
0.000561781
-0.000603996
-3.25456e-05
-6.2856e-07
7.0052e-06
-0.00031982
-0.00352283
0.00309441
0.000101548
0.00074757
-0.00771264
0.00648724
0.00583791
-0.0104893
0.000221385
-0.000274893
0.000746363
-0.000646618
0.000408588
0.00193241
-0.00325843
0.00386911
-0.000733917
-4.25982e-05
0.000769017
-0.000340091
0.00831289
-0.00968493
0.00710711
-0.000893279
-0.00626958
0.00164966
0.00113744
-0.00429307
0.00936517
-0.00910598
0.000257291
-0.00439655
0.00542975
0.000733872
0.000102789
8.93791e-07
0.000106201
-0.000212965
-0.00452246
0.00222061
0.00196234
9.89782e-06
-1.3772e-05
5.16586e-06
-0.00437761
0.00063183
5.4982e-05
-0.000890738
-0.00117946
0.0128181
-0.0120886
-6.64467e-05
-1.67027e-05
6.16086e-05
3.90979e-06
-0.0118844
-0.000790287
-0.00604366
0.00573406
0.000482477
-0.00840232
0.0067324
0.00127697
4.11233e-05
0.000417381
0.00171259
1.8798e-05
1.35811e-05
-1.32055e-05
0.00038349
-0.00472756
-0.00143997
-0.000191699
0.00169936
-4.36409e-05
0.00100288
-4.615e-05
0.000477165
0.000639344
0.000166596
0.00199944
-0.000495124
0.0123567
-0.0119828
-0.00106999
0.00576975
-0.00664802
-7.75455e-07
-0.000463398
0.00108572
-0.000845803
-4.59632e-05
-0.00849345
0.00967595
-0.00051442
1.52866e-05
-0.000708733
-0.000249384
-0.00226748
-5.22557e-07
-2.38019e-05
-0.000256576
0.000381955
0.00151588
-0.00474505
-0.000335504
0.00441716
-0.00055932
-0.00471153
0.00353318
0.000677499
0.00741004
-2.92172e-05
0.000401328
-0.000342569
-0.000437791
-0.00408478
0.000352495
-2.69715e-05
-0.00031334
-0.00309566
-0.00356093
0.00724511
-0.00702376
-0.000814187
0.00115739
-0.00588788
0.00811477
-0.00251898
0.00571441
0.00673122
0.000187593
-0.00737532
-0.00102728
0.00746886
0.00310013
0.000478299
-0.000122766
-0.00269786
0.00714992
0.000928404
0.00860757
-0.00146276
0.00319751
0.00523578
-0.00503652
0.0103937
-0.00961225
0.0122184
-0.0128392
0.01458
-0.00737534
-0.000101569
-2.67562e-05
9.50637e-05
0.00246571
-0.00207346
-0.000785725
-8.45573e-06
-0.000617162
-0.00322794
5.24691e-06
0.000530577
-0.0032575
0.00298105
0.000196237
-0.00603764
0.0066763
8.6552e-06
-5.37691e-05
-0.00956882
0.000985055
0.00833551
0.00114803
0.00443708
0.000189758
0.000176082
0.000133242
0.000299246
2.12123e-05
-1.21005e-05
-0.000124737
-0.000222333
-0.00505885
-0.0039734
0.000141386
0.00268658
-5.89581e-05
-0.00288791
0.000640708
5.82618e-06
-0.000674148
0.00712778
-0.00668735
-0.000717375
-0.000144338
0.00251419
-0.00263939
-9.77381e-05
-0.000117065
0.000353378
-0.000300835
0.000423075
-0.000298145
-0.0104935
0.0107524
0.00278616
-0.000288626
-0.00238992
-0.00269759
0.000147531
0.0024945
-5.99804e-06
0.000429528
-0.000430279
-0.000281267
0.000902018
-0.00725492
0.00860018
0.000104908
0.000603843
0.00729781
0.00652922
0.000579237
-0.00026187
0.00253478
0.000149156
-0.00270971
-0.0080968
0.00132128
-0.00844079
0.00910349
0.00256949
0.00419592
0.000117643
0.010286
-0.0106236
0.00851216
0.0010639
-0.00973716
-0.000266757
0.00342433
-0.00293876
0.00103127
0.00759241
-0.00885309
0.00414384
-0.00018853
-0.00140349
0.00157179
-0.00117655
-0.00831156
0.00897286
0.00635596
-0.000652493
0.000921944
0.000805282
0.00597479
-0.0041131
0.00825681
-0.00423277
-4.47455e-05
-0.0010829
0.000723099
0.0053006
-0.00107328
0.000290775
0.000415289
6.43471e-06
0.000157125
-0.0012352
-0.00100099
0.00138518
0.000473171
-0.00861327
0.00890368
-3.12729e-06
0.00110858
0.000379968
0.00170481
-0.00589565
-0.00707911
0.00050414
0.00629194
0.00245428
-3.92535e-05
-0.00234842
4.77356e-05
-0.000155893
0.00175683
-0.00156636
-0.0101092
0.00935479
-0.00859912
4.51388e-05
-5.27565e-07
0.0010704
-0.00890865
0.00744503
-0.00346931
0.00319919
0.000204888
0.0017463
-0.000110114
-0.00172782
-8.83344e-05
0.000592577
-0.000560525
0.0008237
-0.00782871
0.00669063
0.000654959
4.65114e-05
0.00223864
0.000951831
-0.00101276
-0.00148247
0.0012728
4.34855e-05
9.33564e-05
0.00179552
-0.000730803
0.00111591
-0.000235877
0.00161419
0.00272242
-0.00428269
0.00526822
0.00295812
-0.000447174
-0.000321968
3.68289e-05
0.000261451
-0.000765333
-0.00243101
-0.00239615
0.00191539
-0.00455303
0.000357673
0.00149698
-0.00280671
0.0024201
8.6151e-05
-0.00243717
0.000141125
0.00206918
0.000762605
8.40888e-05
-0.00068637
0.000673168
-5.16889e-05
0.00608341
-0.00015809
0.00136383
9.05285e-05
0.00142859
-0.000269191
-0.00146946
-0.00559267
0.00643432
-0.00032263
0.00038554
-0.00525237
0.00508125
-0.00165271
9.49238e-05
0.00694648
-0.000417279
0.00423565
0.00386997
-3.53588e-05
0.000320475
-0.000289291
0.00425132
0.00032149
-0.00449858
-0.006873
-0.00044155
0.000830745
-8.49557e-05
0.000180131
0.00130147
-0.00150549
0.00166019
-2.25612e-05
-0.00686659
-0.00354009
1.73653e-05
-9.54925e-06
-0.00189945
3.22288e-05
0.00201557
0.00317234
-0.000187381
-0.00306547
0.000932271
-0.00114783
0.0118485
-9.00431e-05
-5.53216e-07
7.22787e-05
6.00134e-05
-0.00158071
0.000332941
-0.000283907
-7.2775e-05
0.000325197
0.00219275
0.00094202
-0.000492725
0.000480242
0.011564
0.000829409
-0.00154691
-0.00186215
0.000180918
0.00101197
0.0115216
-0.000312505
0.00638225
0.000577392
0.000216066
-0.00055635
4.95047e-05
0.00198438
-0.00814516
0.00230462
-0.00263007
0.000486288
-0.00231158
-0.0059463
0.00534379
0.000561044
-0.00191563
0.00118354
0.00379124
-0.0093719
0.000154331
0.0050217
0.000627444
-3.64619e-07
5.11879e-06
0.000340946
0.00407165
0.00122962
-0.00978273
0.00600941
-0.00392247
-0.00149307
-0.000205951
0.0017223
-0.00331679
-0.000207002
0.00145738
-0.00141044
-0.00688874
0.000619705
0.00565134
-0.000401671
0.0029173
0.000661651
0.000203033
0.00290915
-0.000347166
-9.06997e-06
0.000112127
-0.00653926
0.00795811
0.000648596
1.22918e-05
0.000441332
-0.000753531
-0.00450119
0.00378071
0.00046202
-0.000765137
0.0109188
0.000217409
-0.00172672
0.000314822
-0.00391644
-2.50711e-05
-0.00174497
0.000282901
0.00124561
0.0102771
0.00412089
3.06349e-05
1.41535e-05
0.00455968
8.64954e-05
-0.00131267
0.00140903
-5.15212e-05
0.000121565
0.000340073
0.000147652
-0.000512646
2.15002e-05
0.000507992
0.0012161
0.0117321
-0.0132436
-0.0093111
0.000389808
0.00880661
0.00168933
-0.0016301
0.00110347
-0.000133861
-0.00231659
6.26984e-05
0.000392512
-0.000552653
0.0017738
0.000195228
0.00370726
-4.52241e-05
-0.00100117
-0.00202868
5.78384e-05
0.00213557
0.00329263
0.00526059
-0.00579658
4.29725e-05
-9.33421e-06
0.00450974
-0.00431683
0.000730848
0.000574891
-7.20587e-05
-0.000508058
0.000885509
0.00142469
0.000226804
6.69183e-05
0.000466899
0.00324402
-0.00310326
0.000278994
0.00208111
-0.00228862
0.000296921
-3.03036e-05
-0.00029496
0.000917898
-0.0101912
0.00887491
0.0059828
-0.00538552
0.00395724
-0.00814879
-0.00533928
-0.000554177
0.0067698
-0.000716444
-0.00672044
5.97934e-05
0.00122046
0.000845248
-0.00896718
-0.00644336
0.000694282
0.000290784
-0.000199727
-3.80909e-05
-0.00753449
-0.00484563
0.00235805
-0.000666551
-0.00184538
-4.39409e-05
4.31178e-05
-1.41791e-05
0.00236235
-0.00201069
0.000271418
0.00337797
-4.00473e-06
0.00063656
0.00333385
0.000268862
-0.00389599
-0.000181807
-0.00190125
-0.00285556
0.0120054
-0.0110806
0.00162731
1.13701e-05
-0.00175466
-0.000410183
4.07124e-05
0.000333352