/*--------------------------------*- C++ -*----------------------------------*\
| =========                 |                                                 |
| \\      /  F ield         | OpenFOAM: The Open Source CFD Toolbox           |
|  \\    /   O peration     | Version:  v2012                                 |
|   \\  /    A nd           | Website:  www.openfoam.com                      |
|    \\/     M anipulation  |                                                 |
\*---------------------------------------------------------------------------*/
FoamFile
{
    version     2.0;
    format      ascii;
    class       surfaceScalarField;
    location    "100";
    object      meshPhiCN_0;
}
// * * * * * * * * * * * * * * * * * * * * * * * * * * * * * * * * * * * * * //

dimensions      [0 3 -1 0 0 0 0];
oriented        oriented;


internalField   nonuniform List<scalar> 
14470
(
-0.00669052
0.0020826
0.00460268
-0.000715357
-0.000471218
0.0108459
-0.0109074
-3.3242e-05
-0.000350736
-0.000468335
0.000819066
-0.000965962
0.000866497
-4.4846e-05
-0.00223226
0.00223651
-6.11517e-06
0.00157201
-0.00311136
0.00153599
-0.000310558
-0.000842931
0.00115349
-0.00746765
0.00126782
0.00621723
0.000310717
0.00290228
-0.00333014
0.00336467
-0.00315441
-7.39237e-05
-0.00889296
0.00916282
0.00226829
-0.00104415
-0.00122275
0.0108934
-0.00799576
-0.00310913
-0.00583164
0.00699497
-0.00126468
-0.00347572
0.00345067
6.7921e-06
0.0107536
-0.00339873
-0.00716081
-0.00126447
0.00106389
0.000200554
0.00364355
-0.00802002
0.00442726
0.00466579
0.00536564
-0.00998298
0.000447412
-0.000447412
-0.000199836
0.000991299
-0.000791474
-0.00100937
0.000698813
0.00146738
0.000802424
0.00108468
-0.00436513
0.00327797
0.0115502
-0.00369757
-0.00782631
-0.000266832
0.000592807
-0.000164999
-0.00276465
0.00645384
-0.00270991
0.000676159
0.002031
-0.000641279
-0.00026518
0.000906458
0.00216728
-0.00195526
-0.000211815
-0.00975077
0.00941244
0.000123805
0.00185888
0.00759879
-0.00948421
0.000599019
0.000446681
-0.000918559
-0.00243597
-0.00190456
0.00431051
0.00554685
0.000743033
-0.00628335
0.00054694
0.00293943
-0.00350156
0.000653933
0.000853017
-0.00150663
0.00476621
-0.00334618
-0.00143702
-2.70642e-05
-0.0026844
-0.00109857
-0.00060047
0.00169839
0.000391889
-0.00103256
0.000640605
4.38125e-06
-0.000318117
-0.00110348
-0.00701929
0.00814871
-0.00120099
-0.00677604
0.00804584
0.000564071
0.000468245
-0.00103231
-0.000121366
0.000649872
-0.000637593
0.00232088
-0.00871908
0.00652678
0.00059867
0.0103116
0.00319572
-0.00567714
0.00164065
-0.000825107
-0.00491187
0.00340187
0.00149258
-0.00215718
0.00191978
0.00397752
-0.00271937
-0.00126221
-0.00124895
0.000898199
0.00893359
0.000206458
-0.00887793
0.000229845
0.00270693
-0.0029379
-0.00539831
0.00782401
0.000649872
-0.00399043
0.000732761
0.0032492
0.00107738
-0.00207147
0.000994089
-0.0104584
0.0104941
-7.95289e-05
0.00604368
-0.00106783
-0.00499474
0.000406983
-0.00191835
0.00205698
-0.000211338
-0.00723053
-0.0004679
-0.000474533
7.18873e-05
-0.0049307
0.0048118
0.0004996
0.00580975
-0.00631651
0.0016514
-0.000494182
-0.00115747
-0.00936513
0.0040824
0.00526543
0.000204691
0.00136963
-0.00157396
0.000690762
-0.00123772
0.000546965
-0.00390903
0.00374991
0.000141742
-0.00132595
0.00203756
-0.000711298
-0.00138123
0.00161122
-0.000327437
0.00237573
-0.00288384
0.000505761
-0.0018577
0.000749643
0.00110774
0.00991721
-0.00259093
-0.00737939
0.00135257
-0.00147888
4.43472e-05
0.000158691
0.00221647
-0.000980779
-0.000283732
-0.00309653
-0.000392441
0.00480015
-0.00106468
-0.00376441
0.00603726
0.00173976
0.000172372
-0.00191375
0.00132935
-0.000195187
0.00408697
-0.00344805
-0.000692511
-0.000820754
0.0014751
-0.000621573
0.0016988
0.00086703
0.000276971
-0.00114404
6.95167e-05
-0.00124022
0.0011703
0.00156676
-0.00149776
-0.00202343
0.00340595
-0.00139438
0.00120775
-0.000815952
0.0100564
-0.00192685
-0.00806455
0.000566899
-0.00189281
0.00303956
-7.82894e-05
-0.00297306
-0.00522924
0.000911122
0.00428226
-8.17338e-05
-0.00100807
-0.000806256
-0.000742379
0.00154886
-0.00101032
-0.00392723
-0.00310657
0.00346729
-0.000375728
0.00778993
-0.00887272
-0.00242235
0.00188063
0.000539911
-0.00148718
0.000702573
0.00078438
-0.00364002
-0.000284643
-0.00884852
0.00820648
0.00070368
0.00815295
0.00173505
0.000260685
0.00238984
-0.00247139
4.23529e-05
-0.00103902
0.000839164
-0.000308719
-0.00081115
0.00111988
-0.000737124
-0.000194384
0.000931507
-0.00235999
-0.00702226
0.00211503
-0.00707062
0.0047118
0.00286841
-0.00820052
0.00526638
0.00678959
-0.000121224
-0.00649753
0.000335936
0.000826744
-0.00116267
0.00669644
-0.00792397
0.00124892
-0.000894256
-0.00115275
0.00204557
0.00391933
0.000123114
-0.0019957
0.00183687
0.000158067
0.000422257
0.00323766
-0.0036753
-0.0064317
0.00718339
0.00776739
-0.00101735
-0.00345984
0.00119042
0.00225733
0.000501717
-0.001143
0.00227408
-0.00323803
0.000961718
0.00351557
-0.00124474
0.00592961
1.26894e-05
-0.00590766
0.0119403
-0.0039322
-0.00801451
-0.000526768
-0.00616348
0.00532683
0.000408612
-0.00578448
0.00560026
-0.00490901
-0.000715073
-0.000957536
-0.000987476
0.00194303
-5.15476e-05
0.00192281
-0.0018714
0.00640581
-0.00358778
-0.00149585
8.13143e-05
-0.00326815
0.00122664
0.00203387
-0.00148139
0.00107894
0.000402303
0.00366473
0.00938041
-0.00281732
-0.00643971
0.000500602
0.00348321
-0.00402592
0.000440103
0.000629651
-0.00106975
-0.000569992
-0.000888559
0.00145803
-0.00809799
0.000309637
-0.000474538
0.00104152
0.00595028
0.00601903
-0.00029668
0.00276135
-0.0115602
0.00870145
0.00110336
-0.00144544
0.000342042
0.000196663
-0.00545329
0.00536822
0.00621959
0.00792441
-0.00747533
-0.000480058
0.00121072
-0.00174939
0.000538227
0.000146511
0.00329151
-0.0101821
-0.000231971
0.000453037
0.00171475
0.00634402
0.00144036
-0.00780606
-0.00385491
0.000361367
0.00526647
0.000657239
0.00771896
-0.0030051
0.000217024
-0.00109034
0.000873253
-0.00205336
0.00878932
-0.00666838
-0.00080849
-0.0010497
-0.0033062
0.00291052
0.000378976
-0.000903232
0.00804081
-0.00709259
0.00828042
-0.00919425
0.00116862
0.000235554
-0.00259428
0.00242572
0.00510116
0.00433258
0.000780892
-0.0012162
0.000435314
-0.00134126
0.000839601
0.000501662
-0.000757263
0.00214008
-0.00138479
0.00826848
-0.00816525
-0.00212774
-0.000108312
0.00220044
-0.000969869
-0.00123173
-0.0015554
0.000367861
0.00118746
0.011423
-0.00858193
-0.00286867
0.00127044
0.0041705
-0.00547975
-0.0016801
-0.000744248
0.00100418
0.000768807
0.0031119
-0.0071743
0.00604835
3.25257e-05
0.00566687
-0.00559814
-0.000421374
-0.00140747
-0.000589271
-0.000454055
0.00114483
-0.000681008
-0.000660276
-0.00330047
0.000177846
0.00735682
-0.00156655
-0.00577381
0.000214113
-0.000793199
0.000579093
0.00131536
-0.000219013
-0.0010963
-0.00417424
0.00404489
0.000123231
0.00769636
0.00128437
-0.00892693
0.000422191
-0.00511731
0.00468529
0.000983707
0.00011654
-0.00110026
-0.00723725
0.00316869
0.00436152
0.00456135
-0.00781367
0.00403785
-0.00424329
0.000268869
0.00307561
0.00451329
-0.00758173
0.00284486
0.00401018
-0.00682787
-0.00466986
0.00099096
0.0036351
-0.00660599
0.00510167
0.00148664
-0.000425422
0.00127375
-0.000848318
0.00841444
-0.00181172
-0.00656431
0.00384197
-0.00429963
0.000437666
-0.00752622
0.00665824
0.00153739
0.00522997
-0.00677571
-0.00176289
0.00130472
0.000458044
-0.00313384
-0.00111973
-0.000361784
0.00530873
-0.00541722
0.000284826
0.00128078
0.000370413
0.00101938
0.0037499
-0.00495419
0.00559528
-0.000677647
0.00539403
0.00537858
0.00129686
-0.00225644
-0.00458902
0.00650574
-0.00262791
0.00051666
0.00211219
0.000427746
0.00259886
-0.0056257
0.00849807
-0.000996829
-7.21997e-05
0.00106909
0.0010519
-0.00255478
0.00149377
0.00116414
-0.00319593
-0.0104431
0.00250702
0.00801732
0.000631066
-0.00376834
0.00311818
0.00268133
6.6123e-06
-0.00269116
-0.00220372
0.00227002
-6.48165e-05
-2.01279e-05
-0.00218284
-0.000793787
-0.000493828
0.00128767
-0.00202622
-0.00102277
0.0030446
0.000464667
-0.00547209
0.00225909
0.00375903
0.000251139
0.00106426
0.000558524
0.00790889
-0.00828961
-0.000708328
-0.00116529
0.000428161
-0.00209806
-0.00476916
-0.00307589
0.00302679
4.23587e-05
0.000931334
-0.00203061
0.0104076
-0.00917183
-0.00122005
0.000650346
0.00166598
0.000556468
0.0022264
-0.00278716
0.000201631
-0.00275282
0.00254447
0.00716985
-0.00311731
0.00435598
0.00402893
-0.000199371
-0.00318126
-6.20066e-05
0.00323294
0.00523463
-0.00454813
-0.000700228
0.00878402
0.00352548
-0.00202758
-0.00150481
0.000971356
9.36096e-05
-0.00106497
0.00293466
-0.00851003
-0.00114789
-0.00140805
0.00255087
-0.000553584
-0.00177025
-0.00553401
0.000469552
0.00535542
-0.00369929
0.00202835
0.00184696
-0.00091299
0.0081983
-0.000157652
-0.00802655
-0.000283819
0.00149416
0.00121238
-0.00183337
0.00062054
-0.00731597
0.00576541
0.00142504
0.00170832
-0.00636336
0.00179641
-0.000777071
-0.00101961
-0.00164282
-0.00145953
0.00230757
-0.00252634
1.05081e-05
0.000996838
0.00120552
-0.00152344
3.24236e-05
0.00117989
-0.00119436
0.00141126
0.0041109
0.000282751
-0.00438103
0.0017199
-0.000935859
-0.000784036
0.00251009
0.000347316
-0.00285926
0.000145859
0.00099084
-0.000835799
-0.000155032
0.00194017
0.00610889
-0.000308844
0.000816178
-0.000507345
-0.00192008
0.000228243
0.00202822
0.00283342
-0.000152605
-0.000292678
0.000787909
-0.000495236
0.0009359
-0.00207535
0.00114022
0.000985421
-0.00307076
0.00104021
-0.00595935
0.00600665
-0.00331664
0.000206202
-0.000653882
-0.0059606
0.000811442
0.00828821
-0.0091234
-0.00521831
0.00821642
-0.00296775
-0.000917417
-0.000845471
-0.0021085
0.00319175
0.00494027
-0.00325981
2.80978e-06
4.5755e-06
4.44387e-05
0.00148935
0.00405991
0.000194877
-0.00132401
0.00137805
0.00833547
0.00113494
-0.000448493
-0.000686439
0.010329
-0.00272237
-0.00740689
-0.000515039
-0.00764431
0.00796365
-0.000394226
-0.000325276
0.000841134
0.00939585
-0.000264173
-0.000996927
0.00103864
-4.17113e-05
-0.00143186
0.000861412
0.00228953
-0.00129453
-0.000994196
-0.000761131
-0.00367633
0.00441207
0.00363271
-0.00317146
-0.000469335
0.0036857
-0.00329946
-0.000400273
0.00122564
-0.000122311
0.00784338
-3.71512e-05
-0.000965721
-0.000867698
0.00548321
-0.00036411
-0.00513845
-0.00934908
0.00231691
0.000227077
3.29474e-05
-0.00944899
-0.000528139
0.00142836
0.00208864
-0.000471221
-0.000797204
0.00644511
-0.00739248
0.00092715
0.00231375
0.000401702
-0.00271008
-0.00871466
-0.000274833
-0.00579455
0.00605492
-0.000282118
-0.00219964
0.00248331
0.000243836
-0.00272153
0.0024749
-0.00856426
0.010401
0.00709703
5.50369e-05
-0.00710427
0.00415571
-0.00494649
0.00112826
0.000892598
-0.00202146
0.000850589
-1.47424e-05
-0.000835845
0.00812252
0.00267083
-0.000527968
0.00870711
-0.00105812
-0.00560623
0.00675704
0.000957303
-0.00017641
0.000708313
-0.00101717
0.00111326
-0.00138952
0.000276233
0.00771743
0.000323533
-0.00786344
-0.00219127
0.00243257
0.00281188
-0.00049145
-0.00151612
0.000868804
0.000647232
-0.00348636
0.00146728
0.00201723
0.000667369
0.0074649
-0.00793873
-0.000365353
-0.00787111
0.00843433
0.00641257
-0.00736707
-0.00312314
-0.000201858
0.00102108
-0.00686407
0.00588131
-0.00101978
0.000135095
0.000884622
-0.00484377
0.00640132
-0.00178273
-0.0101876
0.0125025
-0.0022232
-0.00256208
0.000689094
0.00186539
0.000541483
0.000593479
0.000608785
0.000671873
-0.000878158
0.00132371
-0.00153741
0.000731236
0.00351805
0.00111153
-0.00463291
-0.000975687
0.000331552
0.00064413
0.00136083
-0.000795917
-0.000564945
0.000465555
-0.00125932
-0.000276404
-0.00438349
0.00461145
0.00238334
0.00237309
-0.00184286
0.00179117
-0.0003445
0.00121149
-0.000762069
-0.000568399
-0.0020647
0.00262843
-0.000456628
0.00168188
-0.000993538
0.000300307
0.00381845
0.00156554
0.00718137
-0.00862049
0.00958851
-0.00874218
-0.000967014
0.00679259
-0.00573938
0.0116125
-0.00973143
-0.00162582
3.43823e-05
-3.43823e-05
0.000312105
-0.00133199
0.00319297
4.36293e-05
-0.00266757
0.00261535
0.0044609
-0.00401531
-0.000461392
-0.000643729
-0.0017647
0.00240657
-0.00619258
0.00702534
0.0032462
-0.00433705
-0.00099574
-3.06253e-05
0.00102637
0.00150728
-0.000556205
-0.000951089
0.00173074
0.000270083
-0.00199729
-0.000422573
-0.00306883
-0.0107331
0.000762016
-0.00428179
0.00396122
-0.00126199
-0.00969322
-0.00114944
-0.000687739
0.00183695
-0.0033212
0.00520137
-0.00136258
-0.000799308
0.00140797
0.00150399
-0.00230429
0.000799988
0.00211318
-0.000543377
0.000184897
0.000928344
0.00231144
-0.00259216
0.00595527
-0.000595929
-0.00573586
-0.0102139
0.0095648
0.000677056
0.00203473
-0.000111882
-0.00193653
0.000786733
0.00714394
0.00135433
0.000782138
0.000578674
0.000549636
0.00493653
0.00501445
-0.00358159
-0.00118586
-0.0010292
0.000736508
-0.0013475
-0.00376221
0.00273856
0.00844948
0.00282017
7.36669e-05
-0.00671513
0.00174301
-0.0074406
0.00544835
-0.00139687
0.00221297
-0.000820788
0.00153258
-0.00132756
-0.00102119
0.00432074
-0.00331149
-0.00338421
-0.000797089
-0.0101851
0.00496949
0.00537649
-0.00847646
0.000226797
0.0083675
0.000745766
0.00109058
-0.00300871
0.00291875
-0.00937279
0.0096815
-1.7315e-05
0.00442346
-0.00447004
-3.83612e-05
0.00212582
0.0018468
-0.0025114
-4.07589e-05
0.00255611
0.00380748
-0.00484034
-0.000295811
0.000925464
0.00444051
-0.000215305
0.00973515
-0.00220525
-0.000939708
0.00169183
-0.000752199
-0.00484852
-0.00516743
-0.000115948
0.00108731
-0.000601291
-0.000954217
-0.00581035
0.00593889
0.00985203
-0.000469552
-0.00960838
0.00240798
-0.00760061
-0.00728303
0.00306603
-0.00851876
-0.00181241
0.00107004
-0.000357222
0.000403368
0.00139278
-0.00365235
-0.00765988
0.00772786
-0.000102304
-0.00296948
0.00337782
-0.00293038
0.00346359
-0.000416278
0.00124304
-0.000467619
-0.00353514
0.00058567
0.0002098
0.00420228
4.33538e-05
-0.00147548
-0.000900579
-0.00634293
0.00726177
0.00835731
-0.00201477
0.00715978
-0.00411897
0.001344
-0.0109058
0.00261434
0.00842016
0.00658991
0.000317584
-0.00693471
0.00691291
2.23584e-06
0.0054072
-0.00564291
3.61771e-05
0.000642598
0.00462647
-0.00527243
-0.00579903
0.0051394
-0.0018484
0.00240157
0.00137646
-0.00109922
0.000559798
0.00126709
-0.000283388
-0.00018663
-0.0036041
0.00379268
0.00174543
-0.000241922
0.00106923
-7.83796e-05
0.00848606
-0.000255362
-0.00232403
-0.000936091
-0.00218003
0.00857838
-0.00723512
-0.0043432
0.00527681
-0.000754537
0.00778489
-0.00580431
-0.00184087
-0.000965038
0.00249908
-0.00153641
-0.00219638
0.00254144
0.00108033
-0.0065169
0.000386034
0.00587996
-0.000483829
-0.00350825
0.00147492
-0.00215163
0.000676929
0.00112103
0.00107876
-0.000737867
-0.00187428
0.00284332
0.00361023
0.00431804
-0.000462331
0.00302043
-0.00256151
0.000957453
-0.000489205
0.00171371
-0.000777326
-0.00105933
-0.00219355
0.00325602
-0.000221545
-0.00555492
0.00571098
0.00131381
-0.00246638
-0.00181971
0.00101072
-0.00110633
-0.00136074
0.00245998
-0.00533555
0.00737117
-0.00199806
0.0119606
-0.00416187
-0.00783464
0.00084712
-0.00127253
-0.0100205
0.00968022
0.000522104
0.00122138
-0.00219225
-0.00216485
0.000656982
0.00150649
-0.00785993
-0.00129554
0.000613124
-0.00180773
0.00392163
-0.00436087
0.000412009
0.000817864
0.000421896
-0.00123973
-0.00849881
0.000152022
-0.000603563
-0.000588869
0.00119242
-0.000965889
0.0018461
-0.00088109
-0.00646169
0.000535694
0.00101168
-0.00178904
0.00904621
0.00115309
-0.00070955
-0.000806684
-0.00100394
0.00607955
-0.00513744
0.00906347
-0.00846016
-0.000532331
1.50565e-05
-0.00286136
0.0098632
-0.00911615
0.00107148
0.00696846
-0.00882188
-0.00316065
0.00849042
-0.00522149
0.000800096
0.00408344
-0.00490163
0.00858015
-0.00807021
0.00797229
-0.00333041
0.00202485
0.00129806
-0.00725795
0.00287319
0.0043442
0.00440144
-0.00287602
-0.00382191
0.00663247
0.00484517
-0.00773189
-0.000206801
-0.000788935
0.00151208
-0.00198676
0.000475218
0.00333735
-0.00439387
-0.0021677
9.74111e-05
-0.00589776
0.000214064
-0.00645197
0.00624373
0.000551452
-0.0042661
0.00744931
-0.000540758
-0.000848822
-0.00845026
0.000903809
0.000789085
-0.00121253
-0.000570929
-0.000371505
0.000942433
0.000852002
-0.00145294
-0.00326064
7.45016e-05
0.000908111
-5.61051e-05
-0.000534633
0.00230726
-0.00825993
0.00596794
0.00339406
-0.00340157
3.5276e-05
0.00123113
0.00131547
0.00646652
-1.12811e-05
0.00283986
-0.00365714
0.000796096
0.000256664
0.00543766
-0.00566569
7.91639e-06
-0.00100472
-4.98573e-05
-0.00156978
-0.000943367
0.000475467
-0.000267042
0.00133411
-0.000389912
0.0019372
-0.000809298
-0.00209031
-0.00621908
0.00842843
0.00152355
0.0026117
-0.00417417
0.000959579
-0.00086597
0.00556836
-0.00666601
0.000849541
-0.00182324
0.000973137
0.008999
-0.00897349
-0.000157761
-0.000329562
0.000415809
1.73298e-05
-0.00826317
-0.00161326
-0.00148809
0.00235594
-0.000867099
5.56155e-05
0.00121814
0.00505182
-0.000402229
-0.00703953
0.00235899
-0.000721971
0.00294234
0.000595586
-0.00262601
0.000763926
-0.00136751
-0.000657842
0.00358632
0.0017638
-0.00198074
0.000914483
-0.00231167
-0.000574283
0.000802744
0.000194665
-0.000953151
-0.00383385
0.00616301
-7.10731e-05
-0.00722742
0.0073906
0.00119694
-0.00305178
0.00686712
0.000294689
-0.00667335
-0.00174547
-0.000814552
0.0103957
-0.00537454
0.000928795
0.00560342
-0.006526
-0.00121373
-0.00291101
0.00409007
-0.00204298
0.00197504
6.6402e-05
0.00086523
0.00150717
-0.0023735
-0.00845386
0.000600635
0.000482919
-0.00112512
0.00215955
-0.00103925
0.000501412
-0.00816679
0.00760596
-0.00779632
0.000331636
-0.000841546
0.00490756
0.00576351
0.00114415
0.00136515
0.000793846
-0.00513125
0.00554195
-0.000916886
0.00176579
-0.00232926
0.000187796
0.00213965
-0.00254528
-0.000641691
0.00318326
0.00372523
-0.00327436
-0.000458381
-0.000358434
-0.00067079
0.00537589
-9.18113e-05
-0.000777858
0.00200563
0.00110916
-0.000687961
-0.000421235
0.0012079
0.000728688
0.00107485
1.01695e-05
-0.00108525
-0.000695407
-0.00147056
0.00211315
-0.00741421
0.00358938
0.00100199
-0.000151404
-0.00484476
0.0035857
0.00108524
-0.000313856
0.00152136
0.000944717
-0.000157223
0.000802403
-0.00303798
-0.000229803
-0.00222182
0.00206911
0.000148125
0.00171939
0.00111591
-0.00283512
-0.000396877
0.000938387
0.000780062
-0.00135857
0.000578475
0.00211387
-0.0050576
-0.00230262
7.27691e-05
-0.000305583
-0.00273744
-0.00181676
0.000524859
0.00129176
-0.0041518
-0.00793749
0.00597641
0.00106256
0.00579646
0.00822948
-0.00107522
-0.00720092
0.00011461
-0.00313235
0.000852936
-0.00134671
-0.00178019
0.000844342
-0.00110977
0.000380421
0.000729348
0.00542374
-0.00506238
-0.00322974
0.00364467
-0.000451291
0.00126919
-0.000959576
0.00169709
-0.000737343
-0.00608888
0.00598424
-1.54995e-05
0.00294487
-2.04536e-05
-0.00293245
-0.00334095
0.00486631
-0.000983592
7.90564e-06
0.00162935
-0.0030359
-0.00576838
0.00164757
0.000642465
0.000844881
-0.00178475
-0.00028111
0.00106113
-0.00146281
-0.000120263
-0.00405576
-0.00167246
0.000833265
0.000838944
-0.000787623
-0.00392404
-0.00195805
0.000549433
0.00356563
-0.00208048
-0.00238984
0.00174397
0.00107081
0.00319056
-0.00426614
0.000405443
0.00858779
-0.00619658
-0.00238261
0.000215255
-0.00775458
0.00343348
-0.000734733
-0.00269623
9.67126e-05
0.000564767
0.0019259
0.00150893
-0.00256011
0.00168675
0.000871691
-0.000467057
0.0020371
-0.00157151
0.000123652
4.07857e-05
-0.000115716
0.000307288
0.00252731
-0.00262562
0.00825457
-0.00139573
-0.00688149
-0.00795357
0.00039492
0.00754008
0.0012692
0.000461681
0.00668104
0.0037741
-0.00257198
0.000238953
-0.00248392
0.00151681
0.000121678
-0.000485971
0.000117731
-0.00226054
0.00157257
6.85493e-05
0.00805972
-0.00766015
0.000740017
0.000369118
-0.00011117
0.00369005
-0.00362784
-0.00248294
0.00251668
-3.39513e-05
0.00030572
-0.00208138
0.00111496
-0.0114023
0.00337643
0.00813522
0.00879779
-0.00610985
0.00044022
-0.00275565
0.00358299
-0.00786105
-0.000351989
0.0035156
-0.00307252
-0.000455596
-0.000333885
-0.00114329
0.00147778
-0.00318966
0.00720907
0.00278434
-0.00193153
0.00133763
0.000594654
0.00406305
0.00114593
0.000635938
-0.000681095
-0.00124932
-0.000224888
0.00683129
-0.00304767
0.00264399
0.00426804
-0.0057173
0.00416217
-0.00875594
0.000604152
-0.00171621
-2.15425e-05
0.00173821
-0.000736955
0.000736623
-0.00126031
0.00052369
0.00602859
-0.00691689
-0.000188541
0.00732806
-0.00913332
0.000823791
0.00820794
-0.00760057
0.00144014
0.00610049
-0.00527603
-0.00202403
0.00484393
-0.00385473
-0.000711946
-0.000575791
0.00128779
0.0038872
-0.00405055
0.00442429
-0.000766815
-0.00105378
0.0041473
-0.00295918
0.000408368
-0.00730783
-0.000545121
-0.00110296
0.000482003
0.00062096
-0.000381058
-0.00554493
-0.000155696
-0.00340083
0.00412873
0.00125705
-0.00172532
0.000902138
-0.000785601
0.00245744
0.00745136
0.000276262
0.00919435
-0.000686864
-0.00394821
-0.00737833
0.00434281
-0.00191625
-7.62528e-05
0.00199187
-0.00010565
-0.00581642
0.00589652
-0.00137308
0.00256411
0.00027342
-0.0064958
-0.00766153
0.000395692
0.00225408
-0.00138944
0.001048
0.00027719
-0.00132524
0.00271373
-0.00240869
-0.000307981
-0.00155463
-0.0101055
0.00618749
-0.00750745
0.00143073
-0.00169858
0.00261171
-0.000918884
0.00356531
-0.00203141
-0.000522792
0.00255074
-0.00177004
0.00969503
-0.00780928
0.000362148
0.00861424
0.000897387
-0.00109177
-0.00047982
0.000670526
0.00279608
-8.97453e-05
0.000352685
-0.0023514
0.00199884
-0.000842745
0.000180397
-0.0015383
-0.00408184
0.0056391
-0.000819586
-0.000238589
0.00105813
-0.000843129
0.00228552
4.5755e-06
0.000886698
-0.00123126
-0.00146156
0.00317991
0.00198935
-0.000250415
-0.00244397
0.0028516
0.0074012
-0.00697101
-9.80984e-05
0.00114602
-0.00116735
-0.000350029
0.00829089
-0.00037418
-0.00791814
0.00573398
-0.00724592
0.00322917
-0.00367017
0.000427823
0.000967385
-0.000896733
-7.06519e-05
0.000209293
-0.00544547
-0.00799011
0.00784851
-0.00489093
0.00856044
0.00953991
0.00792787
0.00424267
0.00432926
-0.000175047
0.0012497
0.00357712
-0.000360897
0.00533823
-0.00469417
0.00892904
-0.00854153
-0.000135499
0.000850718
-0.00122636
0.00240786
-0.00641843
0.00506837
-0.00253642
5.80243e-07
-0.00874168
-0.000442424
-0.00218265
0.00653976
-0.0044193
0.000980193
-0.00109614
0.00142497
0.000832665
-0.00225657
-0.00665236
-0.00103024
-0.000373146
0.00020555
0.00285974
-0.00315895
0.00422714
-0.0016935
0.00084744
0.000845552
0.00114017
-0.000284122
-0.00085604
0.00999732
-0.00136754
-0.00865765
0.00406918
0.000762025
-0.00115012
0.00038822
-0.00216609
0.00278316
0.00414222
-0.00372703
0.00211754
-0.0027585
0.00100863
-0.000208088
1.10853e-06
0.000193049
-0.00254635
0.00251783
0.000216579
0.000239321
0.00126795
-0.000271355
-0.00234848
-0.000108628
-0.000574162
0.00159875
-0.000186662
-0.00645938
0.00411123
-0.00357437
-0.000537958
-0.000303867
-0.00761992
-0.00399498
0.00429035
0.00212835
-0.00270213
0.000855962
0.000773294
-0.00162904
0.00510808
0.00545116
-0.00118989
-0.00954852
-0.000372016
0.000471583
-0.00942594
0.00103993
-0.00455221
-0.000653594
0.00521765
0.00715717
-0.00711206
3.96151e-06
0.00301342
0.00571663
0.00193953
-0.00366097
0.00169497
0.00234381
-0.000609468
0.000228096
-0.00335547
0.00236508
0.00113997
0.00416346
0.0064207
-0.00100097
0.000597499
0.00040347
-0.000994239
-0.00165402
0.00263634
-0.00782584
-0.000711443
-0.00306783
0.0013432
0.00172783
-0.000472354
0.000974069
-0.0013464
0.00759414
-9.84071e-05
-0.000464341
-0.00785539
0.00827005
-0.00175269
0.00235487
-0.000605917
0.00303628
-0.00113162
0.000831452
0.00708781
0.00393493
0.00101061
-0.00501898
0.00974748
-0.00734582
-0.00210685
0.00494391
0.00138248
-0.000617057
-0.000941472
-0.00121619
0.00215706
-0.00738697
0.00286106
-0.0015328
0.00170371
0.0109412
-0.0104565
-0.000429683
0.000132449
-0.00230883
0.00217481
0.00923286
0.000661357
-0.0096749
-0.00576559
0.000642561
-0.000436885
-0.00724061
0.00764359
-0.000202576
-0.00497348
7.70128e-05
0.00139815
-0.00111103
0.000540102
0.00341998
-0.00330615
-0.00187089
-0.00119978
-0.00405789
0.000271446
-0.00883601
-0.00112408
0.000765609
0.000190842
-0.000413614
-0.00305919
0.00343388
0.00626644
0.00142767
-0.00767356
0.00802854
0.000748183
-0.00111067
0.000362489
0.00781579
-0.00832744
0.000499041
0.00839877
-0.000316111
0.00510811
-0.000524748
-0.00460553
0.00323196
0.00461406
-0.00780832
-0.000373318
-0.000345735
0.000804072
0.00675511
-0.000822417
-0.00100177
-0.00132409
0.000504438
0.00109462
-0.000275553
-0.000209444
0.00172215
-0.000475158
-0.000525818
-0.000293333
-0.00167644
0.00244118
-0.000767062
0.00135502
-0.000652622
0.000170455
-0.000198095
8.76767e-06
-0.00593476
0.00227543
-0.00899774
0.00664464
-0.000918532
-0.00147296
0.000630625
-0.008306
-0.000544219
-0.000716141
0.0025149
-0.00298125
0.00243389
-0.000313518
-0.0021259
0.00775835
-0.00660804
-0.00114227
-0.000822971
0.00169869
-0.000876155
-0.00073812
0.000916023
-0.000177907
0.000347374
-0.00117521
0.000827825
0.00323587
-0.00385469
0.000599082
-0.00414504
0.00384216
0.000284141
-0.000766889
0.00309931
-0.000599174
-0.000846335
0.00879184
-0.00118644
-0.00759255
-0.000283375
0.00114149
-0.000858013
0.000916409
0.00131954
0.00186416
0.000171089
-0.00203738
-7.88465e-05
-0.0011892
0.00126768
0.00118082
-0.00167528
-0.00576541
0.00120076
0.00660305
-0.00532791
-0.00131651
-0.000416642
0.00780059
0.00103486
-0.00429521
0.00322671
-0.000593687
-0.000644042
-0.000694656
-0.000521551
0.00263978
0.00639472
-0.00908127
-0.00092209
2.76714e-05
0.000894435
-0.000780541
-0.00569023
0.00242189
-0.000789349
0.00164569
0.00135947
-0.00169266
-0.000605128
0.00196486
-0.00764269
0.00745824
0.00309293
0.00400193
0.000558158
-0.00459988
-0.0061424
0.00626053
0.00194353
-0.000523522
-0.000254974
0.003508
-0.00307713
0.000922596
0.00047641
-0.00139911
-0.00264787
0.000428651
0.00322905
0.000174886
-0.00762267
0.00269283
-0.00196355
-0.000732653
3.76913e-05
0.0015762
-0.00249647
-5.77639e-06
0.00491829
-0.00495319
-0.00133186
0.000650824
0.00103442
-0.00155111
0.000516399
0.00082845
-0.00194598
0.00111687
-0.00352915
-0.000764999
-7.08901e-05
0.000945378
-0.00532074
0.00527106
-0.000708745
2.80701e-05
0.00880417
-0.00739873
-0.000865611
-0.00233599
0.000299717
-0.00354766
0.00483131
-0.00734051
0.00778841
0.00028076
0.00431395
-0.0046221
0.000808269
-0.00109239
-0.00476631
0.00414178
0.000563376
0.000681507
-0.00708371
0.00643593
0.000481211
-0.00144074
-0.0107601
0.0105724
-0.000451707
0.00011021
0.00711385
-0.000413301
-0.00706974
-0.00193512
-0.003981
0.00589721
-0.000838102
0.000840913
-2.81031e-06
0.00229353
0.000224385
-0.000937816
1.5728e-05
0.00185956
-0.000489518
-0.000340767
-0.00729233
0.000604549
0.00431621
-0.000593222
-0.00374353
-3.29528e-05
-0.000539188
0.00908009
-0.00811048
0.00806801
0.000809163
-0.00894259
0.00075213
0.000648375
-0.00140069
-0.00369272
0.000385076
-0.00506186
0.00493415
0.00328575
-0.00261415
0.00212895
-0.000675746
-0.00114141
-0.00886594
0.0064863
0.00127713
-0.00243126
-0.00929493
0.00817635
-0.00564066
0.00125366
-0.00140534
0.000151693
-0.0023811
6.44241e-05
0.00231463
0.00251831
-0.00558019
0.00670494
0.007919
-0.00785112
-7.73376e-05
0.000805898
-0.00110171
0.000558078
0.00111715
-0.00167529
-0.00132106
-0.000939736
-0.000539476
0.000871024
0.00916972
0.000106625
0.00146983
0.00666568
0.00203798
0.00719016
6.08818e-05
0.000836503
0.000409804
-0.00439826
-0.00174814
-0.000819907
0.00257163
-0.000340649
0.00447255
0.00160986
-0.00758223
0.00601713
0.00631025
-0.00159993
0.00224757
3.49382e-05
-0.00240853
-0.00643174
-0.00208476
0.00221573
-0.00163752
-0.00897165
0.000821785
-0.000537358
0.0020852
0.000651098
0.00487627
0.00498023
0.00521923
0.0015195
-0.001247
0.000569052
0.000525553
-0.000551151
-0.00351305
-0.00109619
0.000480811
0.000615376
-0.00859761
-0.000772524
0.00961132
-0.00358556
0.000546197
0.00502221
-0.00530213
-0.00127106
-0.000688305
-0.00112361
0.00937819
0.000659727
0.003056
0.000251477
-0.00332838
0.00245761
0.000462615
0.00253362
-0.00300345
0.001425
-0.00274836
0.00163579
-0.000860016
0.00179057
0.00163813
-0.0014097
-0.000228267
0.00150941
-0.00681432
0.00012512
-0.0016046
0.00147897
0.000982676
-0.00105482
0.00536588
-0.00483659
-0.000536236
-0.000499182
-0.00125067
-0.00216315
-0.000400058
-0.00774094
0.00904348
-0.00121747
-0.00476279
0.00439596
0.00317879
-0.000179828
0.00106477
-0.00927411
0.00361409
0.0085457
0.00480244
0.00562655
-0.00540812
-0.000696247
-0.00726952
0.00784349
-0.00882381
0.0068752
0.00198118
-0.00767891
-0.00129228
0.000580422
-0.000807864
0.00469093
-0.00531722
-9.03796e-05
0.00534715
-0.00191203
-0.010105
0.00192473
0.00814155
-0.00835156
0.00807899
0.000198872
0.00319928
0.000267834
-0.00347472
0.00110383
-0.00189404
0.000789549
0.000239135
-0.00195496
-0.00262105
7.42757e-05
-0.00222157
0.00200359
-0.00150831
0.000829444
-0.00127167
0.000442119
0.00264749
0.00146809
-0.00411559
-0.000661182
-0.000467219
0.0011284
0.00298918
-0.00146107
-0.00153079
0.000346596
0.00402101
-0.00103886
0.00512156
-0.00574749
0.000601943
0.000626669
0.000659339
-0.00128608
0.00104049
-0.000292288
0.00288468
-0.00086678
-0.00122625
-0.0095073
0.000774036
0.00636197
-0.0066893
0.000284135
0.00270052
-0.00422658
-0.000620112
0.000942433
-0.000322322
0.000670218
0.00389621
-0.00459432
-0.00721856
-0.000453136
0.000301289
0.00146033
-0.000698216
0.0021736
-0.00133772
-0.000834659
-0.00557373
0.000199034
0.00321763
-0.00178898
0.00214152
-0.000807667
0.00333733
-0.00254072
0.00465128
0.000714844
0.000904715
-0.001188
0.000704019
-0.00202532
-0.00249479
0.00807724
-0.00560439
-0.00184499
0.00124055
0.00194018
0.00012477
0.00286328
-0.000976806
-0.00188394
0.000516033
0.00112207
-0.000843549
0.00611042
-0.000174966
-3.27199e-05
0.0078144
-0.00114551
0.00250317
-0.00177608
0.00125079
-0.000897368
-0.000353412
-0.00411665
0.00193155
-0.000415556
0.0010019
0.000124209
-0.00175951
0.00163579
-0.000669517
-0.00723334
0.0078458
-0.000197734
-0.000799191
0.000716914
6.67859e-05
-0.000783697
0.00792378
-6.67129e-05
0.000906312
0.00308061
-0.00137714
-0.00888543
0.00130411
0.00739861
-0.000206183
-0.000815899
0.00168108
-0.000864647
0.00129201
-0.00025784
-7.56514e-06
0.00243807
0.000581919
-0.0013872
0.00873126
-0.00118068
-0.00076605
-0.000259796
1.97826e-05
-0.00108129
0.00418315
-0.00310761
-0.00930107
-0.00116969