/*--------------------------------*- C++ -*----------------------------------*\
| =========                 |                                                 |
| \\      /  F ield         | OpenFOAM: The Open Source CFD Toolbox           |
|  \\    /   O peration     | Version:  v2012                                 |
|   \\  /    A nd           | Website:  www.openfoam.com                      |
|    \\/     M anipulation  |                                                 |
\*---------------------------------------------------------------------------*/
FoamFile
{
    version     2.0;
    format      ascii;
    class       surfaceVectorField;
    location    "100";
    object      ddtCorrDdt0(Uf);
}
// * * * * * * * * * * * * * * * * * * * * * * * * * * * * * * * * * * * * * //

dimensions      [0 1 -2 0 0 0 0];


internalField   nonuniform List<vector> 
14516
(
(-0.137313 0.0331833 2.10253e-18)
(-0.13876 0.00234524 5.13347e-18)
(-0.114153 0.0163134 1.45947e-18)
(0.0427982 -0.0157349 -6.06319e-19)
(0.0432962 -0.0102394 -7.84793e-19)
(0.0449689 -0.0122122 3.77096e-18)
(-0.128767 0.0593139 -1.82477e-18)
(-0.160431 0.0515084 -2.87095e-18)
(-1.35286e-05 -2.52502e-05 4.29919e-20)
(-8.7006e-06 -1.80725e-05 -4.55691e-19)
(-2.18034e-05 -1.87204e-05 3.74702e-19)
(-0.0275974 -0.688699 3.87781e-18)
(-0.0288229 -0.709232 2.93923e-18)
(0.0412172 -0.806461 -4.35468e-18)
(0.00417592 -0.00455514 -3.81493e-20)
(0.00440202 -0.003954 4.62573e-19)
(0.00376975 -0.00405714 3.57794e-19)
(0.000170312 1.07278e-05 -1.49313e-20)
(0.000175645 1.2382e-05 1.12947e-19)
(0.000176003 6.96067e-06 -2.90473e-19)
(0.00025724 0.000477523 4.98699e-19)
(0.000244618 0.00041691 -3.75374e-20)
(0.00018757 0.00048113 -1.03315e-19)
(-0.00126891 0.000590179 -8.09229e-20)
(-0.00129022 0.000491743 7.19245e-20)
(-0.00134563 0.000604438 -3.062e-19)
(-0.0885088 -0.590085 2.06044e-18)
(-0.0114325 -0.668401 1.51902e-18)
(0.00426403 0.0123687 -2.48374e-19)
(0.00526012 0.0151174 -2.28208e-18)
(0.00140283 0.0140378 -2.06725e-18)
(-0.0577079 -0.0484324 3.79438e-19)
(-0.0508823 -0.070172 -5.13582e-20)
(-0.0680564 -0.061247 -8.41355e-19)
(-2.9184e-05 -1.47964e-05 1.76278e-20)
(-2.80713e-05 -2.54233e-05 1.02812e-19)
(0.000408592 -0.000398804 2.64647e-19)
(0.000604443 -0.00049524 2.38792e-19)
(0.000550718 -0.000288196 1.39077e-19)
(0.000101862 -7.64496e-06 1.1154e-19)
(0.000107595 -4.18931e-06 1.2567e-19)
(0.000245542 -0.000306322 9.55178e-20)
(0.00012187 -0.000165292 -7.88557e-20)
(0.000273335 -0.000135643 -3.34923e-19)
(-0.00146238 -0.00210657 -1.60247e-19)
(-0.00122425 -0.00212514 3.24216e-19)
(-0.00138841 -0.00189373 -3.62007e-19)
(-0.00169764 -0.00206747 -1.78992e-19)
(-0.00152534 -0.00234916 -6.56203e-20)
(-0.00211915 0.479649 -1.4157e-17)
(-0.0565646 0.569792 -1.24316e-17)
(-0.0317198 0.51831 2.04696e-17)
(0.000178889 -0.000520347 9.41426e-20)
(0.05615 -0.0400746 6.40196e-20)
(0.0617059 -0.0368208 -1.05928e-18)
(0.0561493 -0.0331876 -5.10018e-19)
(8.97113e-05 0.00711347 -8.39388e-19)
(-0.000500538 0.00730066 -4.20695e-19)
(-0.000298795 0.00661313 5.00615e-19)
(-0.0500413 0.00455824 -6.94167e-19)
(-0.0520196 -0.00748456 9.93903e-19)
(-0.0507385 0.0127242 3.74851e-19)
(-0.00553998 0.000696349 -1.68762e-20)
(-0.00504476 0.000692051 -3.37121e-19)
(-0.00460031 6.61483e-05 -1.33134e-19)
(-0.00477928 -0.000411683 -3.34279e-19)
(-0.00524169 3.83305e-05 -3.39484e-19)
(-2.0068e-05 -3.97181e-06 -1.5997e-19)
(-1.23047e-05 -5.16608e-06 -1.15225e-19)
(-0.000278984 5.15715e-05 -2.00891e-19)
(-0.000272651 -0.000145377 2.55846e-19)
(-0.000520513 -7.63876e-05 7.09668e-19)
(-0.000536846 -0.00181277 -1.05506e-19)
(-0.000414471 -0.0019101 4.47815e-20)
(-0.000377612 -0.00173265 -2.66284e-19)
(-0.00314866 -0.0118817 -2.69649e-19)
(-0.00280133 -0.00968617 7.43892e-19)
(-0.00542801 -0.011007 7.67625e-19)
(-0.00118672 0.000588692 2.48209e-19)
(-0.00125554 0.00067308 1.8483e-19)
(0.000633615 -0.0144912 -2.14673e-18)
(0.000301028 -0.0157888 -9.17736e-19)
(0.00207957 -0.015205 -2.04196e-18)
(-0.0458447 0.0177275 -1.46232e-18)
(-0.0469601 -0.00173155 1.06602e-18)
(0.0470464 0.00054775 4.07788e-18)
(0.03734 -0.0325134 1.815e-18)
(0.050246 -0.00798709 -7.31658e-19)
(-0.000184746 -3.23675e-06 -3.76477e-19)
(-0.000182139 2.20869e-09 2.58165e-19)
(-0.000151662 -4.24048e-06 -5.05861e-19)
(-0.00412306 -0.0154566 4.53088e-19)
(-0.00618448 -0.0192264 2.00721e-18)
(-0.00897051 -0.0169391 1.1182e-18)
(0.0720432 -0.0427771 -2.10612e-19)
(0.0759734 -0.0411355 4.73984e-20)
(0.0752518 -0.0460756 -1.14019e-18)
(0.000168512 3.9975e-06 -8.37496e-20)
(0.000129682 6.17135e-07 -4.94315e-19)
(0.000618327 0.00760671 -3.96077e-19)
(0.000617496 0.00688473 -4.25462e-19)
(0.000325707 0.000862258 -1.18371e-20)
(0.000357718 0.000967816 -1.01259e-19)
(0.000218876 0.000993798 9.55218e-20)
(-9.3157e-05 -3.1646e-05 8.05308e-20)
(-7.52406e-05 -2.88703e-05 -5.28921e-20)
(-9.29014e-05 -4.12647e-05 1.41854e-19)
(0.00101111 -0.0131925 2.02962e-18)
(-0.000478697 -0.0132991 1.45949e-18)
(0.000151556 -8.58032e-06 6.35085e-20)
(8.93298e-05 -4.71726e-06 1.46307e-19)
(-5.58744e-08 -4.86716e-06 -1.83372e-20)
(-2.0456e-05 -5.69138e-06 -3.21555e-20)
(-4.18034e-06 1.37427e-05 4.06145e-19)
(0.000188493 9.52013e-06 -5.33137e-20)
(0.000188529 6.87029e-06 3.52254e-19)
(0.000183411 7.49776e-06 -1.09164e-19)
(1.59812e-05 -1.69652e-06 2.30956e-19)
(1.23304e-05 -1.43599e-05 -1.70621e-19)
(-2.13266e-05 -1.48398e-05 1.45749e-19)
(-0.000167262 -0.0136758 7.58695e-19)
(0.0611772 0.00968623 -1.37543e-19)
(0.0625129 -0.00337834 -5.38759e-18)
(0.0552239 -0.00119239 1.20399e-18)
(0.0174983 -0.0208152 -3.86351e-20)
(0.0218267 -0.0154667 1.75574e-19)
(0.0140176 -0.0145134 4.3443e-19)
(-1.82579e-05 -3.1577e-05 -2.47686e-19)
(-9.73597e-06 -6.36662e-06 -3.40673e-19)
(-0.00798181 -0.0239194 3.20733e-18)
(-0.00151842 -0.0218057 -2.78583e-18)
(0.0139387 0.00752815 -3.35916e-18)
(0.0133149 0.0117545 -6.10661e-19)
(0.00998314 0.00939258 -3.21673e-19)
(0.00561982 -0.00287453 9.81543e-19)
(0.00568619 -0.00346354 -5.90246e-21)
(0.00633142 -0.00314414 1.07156e-19)
(-0.00101386 0.00133754 -2.52652e-19)
(-0.000924885 0.00124331 1.08003e-19)
(-0.000866995 0.00133069 -3.32281e-19)
(0.103018 -0.0860894 1.21136e-17)
(0.122016 -0.0768085 -4.22738e-18)
(0.0930571 -0.0678507 5.55456e-18)
(0.118473 -0.0968564 4.95765e-19)
(0.135534 -0.104022 4.04864e-19)
(0.123702 -0.144382 2.63883e-19)
(-0.000496626 0.000259259 -9.96792e-20)
(-0.000458291 0.000243588 -1.93598e-20)
(-0.0182789 0.050656 -1.18483e-19)
(-0.0223736 0.0439412 -6.34397e-19)
(-0.014048 0.045423 1.33777e-18)
(0.131865 -0.012599 -5.28972e-19)
(0.119541 0.0493774 1.09905e-18)
(0.133411 0.00466309 -2.81604e-20)
(0.000278783 0.000801189 2.57065e-19)
(0.000390814 0.000764692 -3.56608e-20)
(-9.60712e-05 -1.98525e-05 -1.57576e-19)
(-9.49858e-05 -1.90845e-05 -1.58609e-20)
(-0.000121769 -3.17216e-05 8.97235e-20)
(0.00636399 -0.000935758 -3.45586e-20)
(0.00660198 -0.00149619 -5.71875e-19)
(0.00711871 -0.000965554 -1.65846e-19)
(0.07113 -0.0338846 -4.67647e-18)
(0.0741028 -0.0183979 -2.74438e-19)
(0.0591163 -0.00530967 1.11933e-19)
(0.000100725 8.44038e-06 -1.96642e-19)
(9.56975e-05 1.45863e-05 -8.98729e-20)
(0.000104663 1.83472e-05 2.56015e-19)
(0.243296 -0.645356 5.919e-18)
(0.155464 -0.793942 7.9116e-18)
(0.0347099 0.0333257 -6.25256e-19)
(0.0381073 0.0106241 2.10805e-18)
(0.0322133 0.0127823 2.72395e-18)
(0.0629111 -0.0412324 1.30044e-19)
(0.0730079 -0.0514952 8.79922e-19)
(0.0505627 -0.041964 3.39929e-18)
(0.0395835 -0.0387686 1.92874e-19)
(0.0434136 -0.049404 -2.2465e-19)
(-0.0621022 -0.0290742 2.56145e-19)
(-0.0486918 -0.0402384 2.96895e-19)
(0.0063457 0.00967574 2.76769e-18)
(0.00288772 0.00943059 6.81083e-19)
(0.115481 -0.103381 3.98708e-18)
(0.081722 -0.0960926 9.9683e-19)
(-0.00122512 5.06415e-05 1.65944e-20)
(-0.0012316 8.65434e-05 4.36983e-21)
(-0.00134754 6.62058e-05 2.7215e-20)
(0.00030028 -0.00041606 -5.64655e-21)
(0.00036925 -0.000409336 -5.06778e-19)
(0.000332086 -0.000484295 -3.97668e-19)
(0.0187468 -0.0568418 3.06841e-18)
(0.0142159 -0.0588094 -9.01599e-19)
(0.0133525 -0.0634837 1.14572e-18)
(-0.0123097 -0.0278812 -3.26006e-18)
(-0.00579639 -0.0326345 2.50592e-19)
(0.139834 -0.061268 -1.03394e-18)
(0.127782 -0.0264796 -1.23162e-18)
(-0.000508074 0.000306126 4.04211e-19)
(-0.000518138 0.000359471 1.83592e-19)
(-0.000473774 0.000335073 8.1221e-20)
(-0.0211894 -0.014693 -2.97877e-19)
(-0.0243626 -0.0124359 1.86222e-19)
(-0.0238534 -0.0175468 -1.52609e-19)
(0.00132724 -0.00261633 -1.33887e-19)
(0.00150417 -0.00244536 -9.26109e-20)
(0.00125634 -0.00232836 -2.5319e-20)
(-0.000108868 -0.00208527 -5.23673e-20)
(6.37516e-05 -0.00193059 -2.24093e-19)
(-0.000128052 -0.0019424 -9.69806e-20)
(0.0358427 0.0490314 3.23249e-19)
(0.0221783 0.0423216 -1.56409e-19)
(0.00234659 -0.00243113 -5.91373e-20)
(0.00249648 -0.00212882 7.67531e-20)
(0.00214481 -0.00213231 8.66558e-20)
(0.0377672 -0.00745444 -1.14773e-18)
(0.0381038 -0.00472396 4.02969e-20)
(0.0340879 -0.00626405 -1.36662e-18)
(0.0126717 0.0285409 1.96991e-21)
(0.0214717 0.0315213 5.72054e-19)
(0.0157637 0.0226169 1.03945e-18)
(0.001531 -0.012081 -6.44532e-19)
(0.00263259 -0.0126502 5.77822e-19)
(0.0478437 0.0245824 1.74022e-19)
(0.0546365 0.0184187 6.83939e-20)
(0.0459702 0.0141456 -5.19624e-20)
(-8.85523e-05 -0.00225215 1.06261e-19)
(-0.000295417 -0.00223425 6.40511e-20)
(-0.000520957 0.000403506 -6.78345e-20)
(-0.000521545 0.000447113 -8.51614e-20)
(-0.000477247 0.000420344 5.3954e-20)
(0.00572051 -0.000905207 6.42297e-19)
(0.00510705 -0.000788786 2.27772e-20)
(0.00522056 -0.00126814 7.245e-19)
(0.00326519 -0.00160817 4.54909e-20)
(0.00322857 -0.0020062 -8.59309e-20)
(0.00368759 -0.00186984 -6.82842e-20)
(0.0394061 -0.0170759 1.26913e-18)
(0.0410542 -0.021243 2.85353e-18)
(0.319748 -0.0856655 1.04752e-18)
(0.317934 -0.172117 -2.22047e-18)
(0.293995 -0.148485 1.37243e-18)
(-0.000880716 0.000382014 1.29041e-19)
(-0.000975512 0.000423227 1.61176e-19)
(-0.000881058 0.000507933 -1.83501e-19)
(-0.0386522 0.031301 1.75493e-18)
(-0.0394749 0.0424047 -2.38569e-18)
(0.00617359 -0.000435729 9.94077e-19)
(0.00688869 0.0353365 -3.66475e-18)
(0.00491084 0.0248855 1.83758e-18)
(0.0992387 -0.0926926 1.12291e-18)
(0.110426 -0.069563 -1.22064e-19)
(0.0409243 -0.00892224 -2.0454e-19)
(0.0373071 -0.0105232 -1.09993e-19)
(-0.000878512 0.000275403 3.74258e-20)
(-0.000798858 0.000357142 7.52606e-20)
(-0.000190202 0.000663143 5.11955e-19)
(-0.000241344 0.000698407 3.24927e-19)
(-0.000244691 0.000596117 -3.99974e-19)
(-0.000118613 0.000743499 3.09051e-19)
(-0.000147074 0.000639859 -7.16959e-20)
(0.00345115 0.000411579 -2.52723e-19)
(0.00367442 8.42999e-05 -1.66162e-20)
(0.00391876 0.000450235 -3.56085e-20)
(-0.000666132 -0.000308556 1.35445e-19)
(-0.000721095 -0.000315701 1.09558e-19)
(-0.000720739 -0.000331146 5.63724e-20)
(-0.000612931 -0.000286736 -1.24559e-19)
(-0.000613177 -0.000303307 -3.80626e-19)
(-0.018639 -0.0115144 -2.84037e-20)
(-0.0179198 -0.0155181 -2.22665e-19)
(0.00167029 -0.0110748 9.53981e-22)
(0.000544332 -0.0114387 4.81598e-20)
(0.00466955 -0.000709667 -3.37191e-19)
(0.0050997 -0.000356916 -1.58128e-19)
(3.94799e-05 -2.48824e-05 -6.80743e-20)
(4.87642e-05 -2.90572e-05 -5.4112e-20)
(1.85985e-05 -4.54049e-05 2.87922e-20)
(0.00500818 -0.00263433 4.8227e-19)
(0.00553536 -0.00231733 1.44681e-19)
(0.0605578 -0.0351917 -1.60246e-18)
(0.0560569 -0.0376851 6.74943e-18)
(0.0550076 -0.0308111 -5.42706e-20)
(-0.00122865 2.00865e-05 -1.1879e-21)
(-0.0010888 3.76698e-05 3.69383e-20)
(0.0406854 -0.0645059 7.74463e-19)
(0.0295076 -0.0668497 -3.8947e-18)
(0.0418127 -0.074603 5.40802e-19)
(-0.000348296 0.000191629 -7.99222e-20)
(-0.000381104 0.000201399 -1.49186e-21)
(0.114744 0.00301431 3.25017e-19)
(0.129672 -0.0207193 2.55092e-18)
(0.1306 -0.00812133 -2.21456e-18)
(0.01339 0.00357194 -2.22764e-18)
(0.0179536 0.00558605 -1.53224e-18)
(-0.000539154 0.00028109 1.24855e-19)
(0.0187551 -0.0509768 3.05092e-18)
(0.00506627 -0.0635682 7.5087e-18)
(0.0102922 -0.0502629 -7.67677e-18)
(-0.0172226 -0.0332201 1.41219e-18)
(-0.0171348 -0.0241853 -6.96391e-18)
(0.00216802 -0.00268279 -3.7675e-20)
(0.00257674 -0.00277974 -6.61941e-20)
(-0.0370644 0.0208752 5.06333e-18)
(-0.0302848 0.0407564 1.87156e-18)
(0.0624735 -0.0310476 -3.20268e-19)
(0.064934 -0.0358358 5.99984e-19)
(-0.000811712 -4.66206e-06 -5.53442e-20)
(-0.000548352 -3.93141e-06 -3.49299e-21)
(-0.000570431 -3.17069e-06 -1.49312e-20)
(-0.000117588 0.000339213 1.49601e-19)
(-0.000129382 0.000380848 2.02384e-20)
(-0.000157613 0.000327268 1.61316e-19)
(0.00383442 -0.00504572 3.50852e-19)
(0.00459898 -0.00506007 -1.01875e-18)
(-0.00191874 0.00195479 -3.7803e-19)
(-0.00190798 0.00209891 5.29657e-20)
(-0.00172344 0.00195318 -7.24316e-20)
(0.0550556 -0.0480374 -4.68212e-19)
(0.0495813 -0.0432666 3.52006e-20)
(-0.0106179 0.00481534 -5.05593e-20)
(-0.0108591 0.00380502 7.50534e-20)
(-0.00987272 0.00424513 -2.88019e-20)
(0.0388435 0.0289684 -6.9156e-22)
(0.0456817 0.0376383 9.88698e-19)
(0.00113357 -0.00274954 3.16756e-20)
(0.00141262 -0.00292484 -1.80239e-19)
(0.000383893 -0.000179184 8.78514e-20)
(0.000352816 -0.000150891 -5.63173e-20)
(0.000335968 -0.000182544 -1.58263e-19)
(-0.00111086 -2.70972e-05 -1.11421e-19)
(-0.00106863 -1.46697e-05 8.89845e-20)
(-0.00123897 -2.96726e-05 5.90537e-20)
(-0.000562061 0.000385816 -1.90239e-19)
(0.000404367 -0.0001862 1.59215e-19)
(0.000413629 -0.000174601 1.4422e-19)
(0.00348494 0.00230157 5.52221e-21)
(0.00335255 0.00282601 2.74861e-20)
(0.00295429 0.0024606 -1.27121e-19)
(-0.00108955 0.000596713 5.23985e-21)
(-0.00110912 0.000505047 6.83946e-20)
(-0.000520038 0.00048275 -1.97692e-19)
(-0.00051937 0.000516806 -5.96147e-20)
(-0.000475997 0.000484485 -1.00946e-19)
(6.24782e-05 1.32054e-05 -5.17559e-19)
(0.000105181 1.19726e-05 -1.58027e-20)
(0.000189182 8.56421e-06 1.00243e-19)
(0.000184345 6.69412e-06 -1.36739e-19)
(-0.000313367 0.000202757 -2.09137e-19)
(-0.000327161 0.000163035 -3.95552e-19)
(6.11927e-05 -0.000154406 -4.09298e-20)
(7.98607e-05 -0.000176909 1.9718e-19)
(8.77676e-05 -0.000143595 3.03791e-19)
(-8.31682e-05 0.000345509 2.55452e-19)
(-9.66985e-05 0.000308548 6.48635e-20)
(-0.00415449 0.000972244 -2.17017e-19)
(-0.00442333 0.000515727 2.14115e-20)
(-0.00470843 0.00106217 -2.07766e-19)
(3.22877e-05 1.67565e-05 -2.9915e-20)
(2.7994e-05 6.06443e-06 -1.45338e-19)
(3.73784e-05 8.20934e-06 9.82532e-20)
(0.000179015 0.000958701 9.43443e-19)
(0.000183096 0.000897586 6.49609e-20)
(0.00027161 0.000991938 -2.15091e-19)
(0.00064048 -0.000772815 1.40901e-20)
(0.000840944 -0.00053788 -5.44005e-19)
(0.00113329 -0.00117776 -3.77825e-19)
(0.00073554 -0.00112849 3.36359e-19)
(0.000814362 -0.00154533 -8.16764e-19)
(0.027813 -0.026428 4.02234e-21)
(0.0278716 -0.0103881 -3.53624e-18)
(0.0336076 -0.00737466 4.765e-18)
(6.93027e-05 0.000898972 4.33742e-20)
(0.000137647 0.00101797 1.92443e-20)
(-0.000834008 -2.02618e-05 -1.55152e-19)
(-0.000854841 7.63529e-05 -4.87273e-20)
(-0.000910607 -2.63031e-05 2.95153e-20)
(0.313933 -0.0278266 -1.45438e-18)
(0.33417 -0.035499 4.15451e-18)
(0.00353057 0.104539 1.06927e-17)
(0.0108526 0.242551 8.93594e-18)
(0.0406634 0.135465 2.32084e-17)
(-0.0011801 -6.41005e-05 -5.94077e-19)
(-0.000978382 -2.31676e-05 -4.52197e-19)
(-0.0455915 0.0566169 -1.86451e-17)
(-0.0210548 -0.00336209 -1.23543e-17)
(-0.123619 -0.443204 3.16011e-18)
(-0.102819 -0.484292 -1.93718e-18)
(-0.000810423 -9.88583e-05 -3.42504e-20)
(-0.000762175 -1.61452e-05 -1.04653e-19)
(-0.000987202 -2.42207e-06 -2.13439e-20)
(-0.000957631 9.74137e-06 -3.27464e-19)
(-0.000216437 -0.000134912 3.96085e-20)
(-0.000177199 -9.8551e-05 1.03029e-19)
(-0.000173807 -0.000150543 3.45355e-19)
(-0.00385092 0.0013625 1.38777e-19)
(-0.00367591 0.00078939 6.75037e-20)
(-3.46963e-05 0.000821224 -1.79822e-19)
(1.33955e-07 0.000782401 -4.94392e-19)
(2.74476e-05 1.87106e-05 1.67498e-19)
(3.73705e-05 1.89147e-05 -1.16241e-19)
(0.000246946 0.000545184 1.90278e-19)
(0.000311186 0.00048115 1.1909e-21)
(-0.000607325 -0.00168368 6.53277e-20)
(-0.000678122 -0.00184366 2.85312e-20)
(2.87289e-05 0.000283207 2.47504e-19)
(7.92052e-05 0.000355938 -1.88829e-20)
(-5.70749e-05 0.000355471 6.01796e-19)
(0.0574665 0.371361 -2.58092e-17)
(0.118584 0.22337 -2.08889e-18)
(0.0905626 0.24266 2.94443e-17)
(0.0315991 -0.0366916 -2.73458e-18)
(0.0247347 -0.0478039 -3.02623e-18)
(0.0272557 -0.0373567 -1.62056e-18)
(0.0672491 -0.0402048 -2.05034e-18)
(0.0674224 -0.0341913 3.05458e-19)
(0.0621284 0.0237657 9.14603e-20)
(-0.00855936 0.00485761 3.13146e-19)
(-0.0076988 0.00480667 1.46191e-19)
(-0.0081882 0.00561522 1.71706e-18)
(-0.000120029 0.000127143 -1.76809e-19)
(-0.000278581 0.000222294 -2.14406e-19)
(0.00254932 0.000544739 8.25882e-20)
(0.0027144 0.00033726 2.51521e-19)
(0.00241023 0.0002891 3.06711e-20)
(-0.000853895 -0.00135345 3.05228e-20)
(-0.000650284 -0.00133298 1.09984e-19)
(-0.00082489 -0.00117501 1.96136e-19)
(-0.0443453 -0.117572 -4.95165e-19)
(-0.0661325 -0.135601 -3.69047e-18)
(-0.0539366 -0.125364 -3.44308e-18)
(0.0342013 -0.0368622 3.42989e-19)
(0.0382053 -0.0257685 5.47615e-19)
(-0.0324181 -0.108687 2.36509e-18)
(-0.0205656 -0.0966616 6.1091e-19)
(-0.00190153 0.00172991 2.61623e-19)
(-0.00190965 0.00183507 -5.56839e-20)
(-0.00173752 0.0017072 1.521e-19)
(0.0196763 0.442839 -3.14636e-18)
(-0.000568001 0.000476739 -2.1537e-20)
(-0.00437069 -0.000257774 4.03679e-19)
(-0.0039148 -5.34125e-05 -5.85498e-20)
(-0.00391388 -0.000491543 -3.44544e-20)
(0.000493878 -0.000269767 -1.66039e-19)
(0.000545294 -0.000265932 -1.02191e-19)
(0.000478554 -0.000239272 -6.59903e-20)
(-0.00593916 0.00103761 7.10174e-19)
(-0.00601385 0.000742036 -1.13681e-19)
(-0.00569785 0.000969453 -3.39207e-19)
(-0.271612 0.103045 5.98343e-19)
(-0.28574 0.103005 2.81313e-19)
(-0.265491 0.0445078 1.00246e-18)
(-0.0033694 0.000747896 4.64023e-19)
(-0.00321238 0.000728578 1.77635e-20)
(-0.00328945 0.000896287 1.26523e-19)
(-8.51808e-05 0.000863933 3.27377e-19)
(-0.004057 3.36731e-05 1.0488e-18)
(0.110314 -0.217135 4.32344e-18)
(0.134718 -0.170921 2.06163e-18)
(0.120249 -0.241463 9.51575e-18)
(0.000267239 -0.000373538 3.74687e-19)
(0.00024318 -0.00042393 7.8676e-19)
(-0.0132247 0.0581801 3.06585e-18)
(-0.0241341 0.058708 1.547e-18)
(0.000491157 -0.000301637 -1.93852e-19)
(0.000439942 -0.000260122 1.02452e-19)
(-1.4886e-06 0.000459401 -1.51245e-19)
(3.53473e-05 0.000473328 -5.39985e-20)
(4.30274e-05 0.000519522 -1.5021e-20)
(2.02081e-05 0.000194956 3.5337e-20)
(0.000111665 0.000229279 3.24965e-20)
(-0.00206087 0.00171284 -1.54907e-19)
(-0.00187256 0.00161203 3.99375e-20)
(-0.000107361 0.000115596 -7.11452e-20)
(-8.87532e-05 0.000119714 -2.90709e-19)
(-0.00012273 0.000136172 1.75726e-19)
(0.0108638 -0.0257387 -3.52132e-21)
(0.0182089 -0.02918 -6.07986e-19)
(0.0487748 -0.0610639 6.14374e-19)
(0.0417151 -0.0547269 -5.21466e-20)
(0.0550939 -0.0246067 6.00128e-19)
(-0.00574797 0.000973622 -3.49767e-19)
(-0.00587216 0.00118914 4.7979e-19)
(-0.245737 0.105005 2.46084e-18)
(-0.230718 0.0475628 2.30802e-18)
(-0.224484 0.122977 4.50288e-18)
(0.00213451 -0.000730401 -7.71294e-20)
(0.00231434 -0.000582898 8.77591e-20)
(0.00208944 -0.00050323 -1.19767e-19)
(-0.11753 -0.3632 1.36854e-17)
(-0.124271 -0.317453 -1.1293e-18)
(3.32656e-05 -0.000161033 -1.13192e-20)
(4.47484e-05 -0.000129233 -3.18699e-19)
(-0.00103853 0.000600762 -1.92636e-19)
(-0.00108653 0.000642688 -1.65868e-19)
(0.17022 0.110398 -1.21426e-18)
(0.187134 -0.00239492 2.77145e-18)
(0.193103 0.0218556 -5.39496e-18)
(0.141734 -0.0632403 2.53696e-19)
(0.152059 -0.104712 -3.68933e-18)
(0.000346869 -0.000133024 -2.03436e-19)
(0.000306022 -0.000134936 2.04145e-20)
(0.000330226 -9.81927e-05 -9.48622e-20)
(-0.000514776 0.000539832 4.74127e-19)
(-0.000565008 0.000549106 -1.62752e-19)
(-0.016073 -0.00898735 6.02765e-19)
(-0.0190102 -0.00755709 7.11638e-20)
(0.0672327 -0.0478613 7.56598e-20)
(0.000733531 0.000376182 2.87504e-19)
(0.000646866 0.000295866 1.44776e-19)
(0.000752884 0.000252236 -1.1216e-19)
(0.00184136 -0.0101614 -2.9402e-19)
(0.00276981 -0.0104347 -5.21837e-20)
(-0.00329254 0.00236254 -1.37054e-19)
(-0.00315681 0.00248142 -3.2448e-19)
(-0.00306563 0.00229349 6.40685e-20)
(-0.00806347 -0.001319 5.20746e-19)
(-0.00743366 -0.000771802 1.73722e-18)
(-0.00732903 -0.0017127 -1.61319e-19)
(0.0052339 -0.0286222 1.12995e-18)
(0.00518317 -0.0220273 -5.11742e-19)
(0.02559 -0.00779214 -5.13234e-20)
(0.0310561 -0.015188 6.09127e-19)
(-0.00112783 0.00142326 -3.46517e-19)
(-0.00113835 0.00134564 -1.54413e-20)
(-0.24948 0.163022 9.6186e-18)
(-0.256555 0.0635315 2.86385e-18)
(-0.000262012 -0.000128961 5.24789e-20)
(-0.000257733 -0.000183083 -1.72908e-19)
(0.00268195 0.00108994 1.86911e-19)
(0.00268935 0.00140704 -9.05266e-20)
(0.0023922 0.00123544 1.62972e-19)
(0.0821161 -0.244437 -1.69761e-18)
(0.0997939 -0.1908 -2.9215e-18)
(-0.0133988 -0.00696399 -2.16733e-19)
(-0.0135622 -0.00962257 -3.05633e-20)
(-0.0743101 0.178093 -9.61276e-19)
(-0.0866497 0.209475 4.32169e-19)
(-0.106518 0.174543 -5.58247e-19)
(-0.0408594 -0.0469906 7.23109e-18)
(-0.0496386 -0.0384742 -1.95602e-18)
(-0.05771 -0.054047 -1.38974e-18)
(-0.000263001 0.000383029 -7.0754e-21)
(-0.000312352 0.000404289 -1.25498e-19)
(-0.000267577 0.000360974 -3.30683e-20)
(-0.00209547 0.00195306 -1.18627e-19)
(-0.000121111 0.000110421 1.07526e-19)
(-0.00010292 9.75028e-05 3.63973e-19)
(0.030198 0.0308783 9.26477e-20)
(0.0257861 0.0412142 -2.89342e-18)
(0.133331 0.219943 1.70408e-18)
(0.00502843 -0.00378694 -1.53131e-19)
(0.00443553 -0.00334788 2.26455e-19)
(-0.000784504 -0.000162021 2.51189e-19)
(-0.000718301 -0.000153169 1.59639e-19)
(-0.000750544 -0.000207184 6.71975e-20)
(-0.0312158 -0.0427764 4.16629e-18)
(-0.0326324 -0.0557025 1.26967e-18)
(0.00236144 0.00573276 9.33474e-19)
(0.00463821 0.00519534 -9.07477e-19)
(0.00263757 0.00377208 -1.91201e-19)
(-0.00579335 -0.000176377 1.54587e-19)
(-0.00630219 0.000814151 4.76626e-19)
(-0.0048281 5.07657e-05 9.19737e-20)
(-0.00456891 0.000827592 -8.71367e-19)
(-0.00342535 0.000585746 -6.44251e-19)
(-0.00355668 0.000764835 -5.081e-20)
(-2.83515e-05 -0.000142489 -3.87989e-20)
(4.54272e-07 -0.000158447 1.26565e-19)
(-5.05154e-06 -0.000118811 -1.08073e-19)
(-0.00782384 0.00921281 4.52484e-20)
(-0.00891819 0.00808821 -2.95484e-19)
(-0.00736278 0.00795297 -2.15686e-19)
(-0.0616924 0.148129 1.64675e-18)
(-0.0416665 0.156 -3.52911e-19)
(-0.000296418 0.000231584 1.52208e-20)
(-0.000278684 0.000209654 -1.24337e-19)
(-0.000268862 0.000243326 7.76585e-20)
(-0.00061686 -0.000767035 7.08858e-19)
(-0.000680176 -0.000892971 -7.96218e-20)
(-0.000768331 -0.000743393 1.96553e-20)
(0.0842727 -0.111374 -5.09183e-19)
(0.0793812 -0.0846864 -3.55108e-18)
(0.00317138 -0.000499769 -1.57184e-19)
(0.0028907 -0.000757612 -1.75386e-20)
(0.00327181 -0.000865901 -9.62201e-21)
(0.0017959 -0.00933611 -1.54336e-18)
(0.00100552 -0.00978718 -6.06198e-19)
(0.00103092 -0.00011168 7.82365e-20)
(0.000942704 -0.000324812 -6.5747e-19)
(0.000835276 -0.0001535 -2.6149e-20)
(-0.000854167 -0.000500851 2.72571e-19)
(-0.000876196 -0.000393117 -1.9059e-19)
(-0.000995121 -0.000477124 4.32103e-19)
(0.0444017 0.00619002 -6.28898e-19)
(0.053103 0.0335535 -1.27253e-18)
(-0.00055111 -0.000663672 -1.57659e-19)
(-0.000612034 -0.000547491 -9.47841e-19)
(-0.000498733 -0.000567677 -3.53011e-19)
(-0.00086687 0.00016442 -1.60349e-19)
(-0.000791188 0.000160525 4.78779e-20)
(0.000288514 0.000345695 -2.75027e-19)
(0.000233212 0.000362189 2.26862e-19)
(-0.00351288 0.00177087 2.57107e-19)
(-0.00397154 0.00198347 6.98674e-20)
(-0.000953821 0.000177778 -1.40457e-19)
(-0.000200114 1.45409e-06 3.35374e-20)
(-0.000185828 -3.47809e-06 -1.48867e-19)
(0.000808982 0.00265041 -5.93481e-19)
(0.000618873 0.00254806 1.5053e-19)
(0.000670205 0.0027815 -1.75365e-19)
(-0.00536096 0.00223124 -2.32604e-19)
(-0.00526774 0.00221658 3.80457e-19)
(-0.00521993 0.00224043 1.26273e-19)
(0.0123594 -0.000507737 2.22722e-18)
(0.00960266 0.00217715 4.40233e-19)
(-0.0102633 0.00593367 -2.47389e-19)
(-0.00963717 0.00703584 -9.64891e-20)
(-0.00900023 0.00606358 -1.76112e-20)
(-0.00069731 -0.000264861 -1.89431e-19)
(-0.000627369 -0.00021344 -6.99096e-19)
(-0.000713265 -0.00019871 1.44495e-19)
(0.00255813 0.00903744 -2.46209e-19)
(0.00321141 0.00845602 -4.93665e-19)
(0.00349822 0.00949932 -6.35679e-19)
(-0.000484532 -0.00132483 1.63402e-19)
(-0.000462098 -0.00115972 -2.29036e-20)
(-0.000304762 -0.00130232 3.16344e-19)
(-0.00567062 0.0023982 -1.54333e-19)
(-0.00569414 0.0020404 -3.35325e-19)
(0.000803721 -0.00580056 -6.47477e-19)
(0.00134395 -0.00599771 -2.90557e-19)
(0.00120298 -0.00538597 -2.98988e-19)
(0.000619352 0.000590684 1.05438e-19)
(0.000678691 0.00047965 3.87151e-19)
(0.000570737 0.000491727 -1.787e-19)
(0.0186298 -0.00972685 -1.64256e-18)
(0.0141392 -0.03227 1.92789e-18)
(0.00327066 -0.0213913 -4.04502e-18)
(-0.000484116 -0.000778221 -1.54265e-19)
(0.0151913 -0.0034279 3.72797e-18)
(0.0106591 -0.00404643 5.17044e-19)
(-9.48083e-06 1.06483e-05 3.59307e-19)
(3.42425e-05 1.5305e-05 -9.64029e-20)
(-2.10198e-07 1.2552e-05 -4.52441e-19)
(-0.00867807 0.00398665 -1.52512e-18)
(-0.00962938 0.00461695 -9.64111e-20)
(-0.00952844 -0.00211636 -7.62725e-19)
(-0.0114827 -0.00266472 2.84168e-20)
(-0.0104266 -0.00113345 7.6897e-21)
(-0.00844041 -0.00261239 -5.12225e-20)
(-0.00802075 -0.00131171 -6.76979e-20)
(-0.0090122 -0.00205976 -7.00098e-21)
(-0.00878135 -0.000868013 -1.55003e-18)
(0.167793 -0.0628007 5.12305e-19)
(0.163829 -0.0445495 8.65593e-18)
(0.00427387 -0.000751696 1.2471e-19)
(0.00409785 -0.00113612 5.34629e-20)
(0.00384 -0.000724338 7.23818e-20)
(0.000693432 0.000669479 -9.32862e-21)
(0.000561837 0.000674144 2.42197e-20)
(0.00034712 0.00024 -2.51124e-19)
(0.00033004 0.000257744 -9.27216e-22)
(0.000338759 0.000240923 -1.43446e-19)
(-0.00306622 0.015926 -3.04403e-19)
(-0.00389898 0.0143618 -1.46512e-18)
(-0.00201058 0.0148527 -9.92685e-19)
(-0.000344907 0.000429978 -3.99656e-19)
(-0.000388814 0.000455095 -1.21299e-19)
(-0.000348583 0.000418366 -4.91587e-21)
(0.0417856 -0.0261763 -2.37172e-20)
(0.0388767 -0.0312474 1.16588e-19)
(0.0406875 -0.0248249 6.21328e-19)
(0.0440196 -0.0198992 -1.4609e-19)
(0.0420977 -0.0265222 -2.59921e-19)
(0.000370162 -0.000132581 1.20464e-19)
(0.0548365 -0.0575846 -5.60585e-20)
(0.0604303 -0.0624031 -7.97961e-20)
(-3.06393e-05 5.09608e-05 -2.69614e-19)
(-2.91324e-05 4.43044e-05 1.75999e-19)
(-4.11305e-05 4.81568e-05 1.44789e-19)
(-0.0114859 0.00569368 -2.96991e-20)
(-0.0031374 0.00212977 7.2571e-20)
(-0.0031169 0.00153293 -4.96068e-20)
(-0.00631041 -0.00143956 -6.13593e-20)
(-0.00609401 -0.000747829 1.43495e-19)
(-0.0069241 -0.000970868 7.9378e-21)
(0.000104288 -2.19716e-05 4.846e-20)
(0.000101561 -7.05988e-06 1.31905e-20)
(0.000121925 -1.77827e-05 -8.77062e-20)
(-0.000107836 -3.82559e-05 1.58687e-20)
(-9.52868e-05 -2.92899e-05 2.98911e-20)
(-0.000236148 0.000348389 -1.36442e-19)
(-0.000273096 0.000385616 -6.75098e-20)
(0.0010303 0.00274371 -2.19952e-19)
(0.000926832 0.0025195 -7.03012e-20)
(-0.00748303 0.00328322 7.9545e-19)
(-0.00703081 0.00306807 -1.69279e-19)
(-0.00717499 0.00356719 -4.76831e-19)
(0.000163447 3.31953e-05 4.44925e-19)
(0.000169605 2.07279e-05 4.72645e-20)
(0.000165086 2.6002e-05 3.53695e-19)
(-0.000464857 0.000525455 3.8166e-19)
(-0.00051082 0.00056166 1.15254e-19)
(-0.000325366 0.00024032 -2.04625e-19)
(0.0268086 -0.0469473 8.25801e-19)
(0.0288048 -0.0353279 3.61779e-18)
(0.00439722 -0.00191915 7.77588e-20)
(0.00445505 -0.00236289 -5.1835e-20)
(0.00397235 -0.00216431 -2.74354e-19)
(0.000153091 2.07214e-06 -2.23992e-19)
(-0.00110968 -7.77875e-05 -9.51659e-21)
(-0.000947324 -4.8529e-05 2.12901e-20)
(-0.000993743 -6.65611e-05 -1.63164e-19)
(0.00347492 0.00183213 -2.97415e-19)
(0.0039756 0.00211296 -9.29029e-20)
(-0.00185342 0.00263346 -5.19272e-20)
(-0.0018075 0.00286539 -1.19569e-19)
(-0.00161347 0.00270019 6.05596e-20)
(-0.00819607 0.0034055 -9.92597e-19)
(-0.00785453 0.00284796 7.55296e-19)
(-1.07974e-05 7.22002e-05 2.02458e-20)
(-1.81862e-05 7.4925e-05 -4.34645e-20)
(-1.63423e-05 6.97905e-05 -1.81674e-19)
(-0.0817651 -0.117804 7.79709e-19)
(-0.107089 -0.0145997 -1.41468e-18)
(-0.0485193 -0.0998583 3.38755e-18)
(-0.000850032 -0.000174833 1.94037e-19)
(0.0514865 0.101775 -6.86371e-19)
(0.0351003 0.0761661 -4.44643e-18)
(0.0200803 0.0647655 4.95524e-19)
(-0.0375633 -0.0957446 2.99448e-19)
(-0.0340734 -0.110265 1.24263e-18)
(-0.0429786 -0.103426 -6.73174e-19)
(4.98376e-05 -1.56462e-05 -1.03278e-19)
(3.23468e-05 -2.4301e-05 -1.6799e-19)
(0.000162711 -5.84491e-06 4.12245e-20)
(0.000165104 -6.33349e-06 7.39545e-20)
(0.000160197 -1.39868e-05 -1.37786e-19)
(0.000468207 0.000893282 3.94897e-20)
(0.000402071 0.000932062 2.32054e-19)
(0.000511301 0.000980801 -1.64012e-19)
(-0.00208978 0.0176872 7.9581e-19)
(-0.00440689 0.0170782 -3.98867e-19)
(-0.0053368 0.00675286 -1.64759e-19)
(-0.00563817 0.00614484 1.78213e-19)
(-0.00493323 0.00627466 -6.77847e-20)
(-0.00278341 0.00239273 -3.25473e-19)
(-0.00249031 0.00213152 -2.33982e-20)
(-0.0024235 0.00260877 -1.64144e-19)
(0.0665826 0.118571 -2.17804e-19)
(0.0805547 0.132515 -1.34908e-18)
(-6.86536e-05 3.63197e-05 -1.15444e-19)
(-9.87529e-05 2.35885e-05 1.37818e-20)
(-7.40475e-05 4.61725e-05 1.58732e-19)
(0.000519774 0.000824498 -1.45334e-19)
(0.000441751 0.000799205 -3.06299e-19)
(-0.00499925 0.00749111 -2.8068e-19)
(-0.0059349 0.00740765 1.27719e-19)
(0.00203548 0.00257169 2.88999e-20)
(0.00189785 0.00284861 -5.18767e-20)
(0.00223615 0.00281456 1.18772e-19)
(0.000153823 0.00177209 -1.61891e-20)
(0.000180336 0.00165987 -9.73546e-20)
(4.13116e-05 0.0016502 -6.3607e-20)
(0.00293555 -0.0014303 -8.43774e-20)
(0.00331584 -0.00123974 1.51109e-19)
(0.0311654 0.0220498 6.50444e-19)
(-0.00142722 -7.52256e-05 1.77276e-20)
(-0.00160871 -0.000101291 1.89796e-20)
(-0.00152593 4.12062e-05 8.79795e-20)
(-0.00433868 0.0129371 -1.33411e-18)
(-0.00335015 0.0121446 5.64672e-19)
(-0.00473698 0.0116122 2.10536e-19)
(-0.00349625 0.00241749 -1.23876e-19)
(-0.0034046 0.00224191 2.28583e-19)
(-0.000881441 -1.12187e-06 2.97867e-19)
(-0.000998471 -1.12256e-05 -5.35609e-20)
(-0.000941175 6.41834e-05 5.18619e-19)
(0.0221907 -0.0553077 -1.17813e-18)
(-0.188231 0.438047 8.57912e-18)
(-0.209808 0.364841 5.02394e-18)