/*--------------------------------*- C++ -*----------------------------------*\
| =========                 |                                                 |
| \\      /  F ield         | OpenFOAM: The Open Source CFD Toolbox           |
|  \\    /   O peration     | Version:  v2012                                 |
|   \\  /    A nd           | Website:  www.openfoam.com                      |
|    \\/     M anipulation  |                                                 |
\*---------------------------------------------------------------------------*/
FoamFile
{
    version     2.0;
    format      ascii;
    class       surfaceScalarField;
    location    "100";
    object      phi;
}
// * * * * * * * * * * * * * * * * * * * * * * * * * * * * * * * * * * * * * //

dimensions      [0 3 -1 0 0 0 0];
oriented        oriented;


internalField   nonuniform List<scalar> 
14516
(
0.373598
-0.295673
-0.0775401
-0.741821
0.385707
0.356139
0.278839
0.0951759
0.431997
0.012163
-0.443785
0.129762
0.0260082
-0.155549
0.282477
-0.523165
0.240997
0.387498
-0.646244
0.259761
0.161405
0.402125
-0.563569
0.371138
-0.37759
0.00647199
0.200311
-0.0703103
0.237804
0.00567603
-0.243327
0.210471
-0.362137
0.15174
-0.165808
0.598043
0.618724
-0.376087
-0.242658
0.61572
-0.614168
-0.405349
0.660283
-0.254914
0.149715
-0.531981
0.38213
0.559069
-0.409122
0.160406
-0.40432
0.244083
0.213355
0.40594
-0.193321
-0.212554
0.407276
-0.192458
-0.215051
0.349244
-0.599171
0.249958
-0.319669
-0.295054
0.324308
-0.551261
0.227208
0.458266
-0.624043
0.409349
-0.666493
0.257191
0.674936
-0.435868
-0.239155
0.0731429
-0.2252
0.152292
-0.0477829
0.418848
0.343016
0.00631097
-0.349014
0.67056
-0.321231
-0.363415
0.626199
-0.262534
-0.593767
0.601369
-0.00751529
-0.255397
0.0741464
0.181393
0.141633
-0.391588
0.250127
0.56935
-0.181186
0.248717
0.158323
0.204048
0.343048
-0.546546
0.686343
-0.360389
-0.326116
-0.0674507
0.410731
0.084245
0.532979
-0.561708
0.0374126
0.524345
0.676838
-0.370026
-0.305967
0.0333377
-0.595156
0.495799
-0.182157
-0.701396
0.383796
0.317617
0.431141
-0.274708
-0.156583
-0.405504
0.418105
0.255525
-0.181228
0.275828
-0.153947
-0.121812
-0.220474
0.459187
-0.238637
-0.193209
-0.199125
0.392599
0.333841
-0.133172
-0.200634
-0.195997
-0.118134
0.314363
0.319288
0.185642
0.103552
-0.223392
0.119903
0.115181
-0.384437
0.269568
-0.287687
0.491752
-0.669026
0.443167
0.225968
-0.27083
0.466105
-0.195245
0.351115
0.0328798
-0.383966
-0.575249
0.0993788
0.476922
-0.185114
0.124339
-0.621668
0.336382
0.285332
-0.108566
0.459806
-0.272949
-0.130107
0.403012
0.374554
-0.164
0.291267
-0.0533912
0.190876
0.142996
-0.497968
0.609095
-0.111126
0.277844
-0.531934
0.253681
0.16424
0.402775
-0.567031
0.370872
-0.115147
0.388616
-0.273149
-0.578037
0.305837
0.272377
-0.479968
0.610419
-0.130445
0.245982
-0.595905
0.349786
0.23429
-0.576646
0.342348
-0.294353
-0.327257
0.267647
-0.607207
0.339649
-0.407214
0.508578
-0.101345
-0.791217
0.397637
0.393608
0.355968
-0.423246
-0.725992
0.402338
0.323707
-0.352732
0.586905
-0.529797
0.301953
0.227915
-0.161307
-0.34017
0.501742
-0.302092
0.620945
-0.318651
-0.341292
-0.400506
-0.225834
0.1926
0.0333027
-0.193059
-0.345742
0.53888
0.430193
0.240434
-0.432116
-0.367401
-0.423786
0.137689
-0.333601
0.167802
-0.574981
-0.53395
0.341022
0.726121
-0.288406
-0.437632
0.405074
0.321143
-0.30416
0.619153
-0.314837
-0.199305
0.53622
-0.336695
0.340094
-0.539185
0.164808
-0.644739
-0.0826352
0.43864
0.0135403
-0.353712
0.434368
-0.642616
0.208497
0.256775
-0.47694
-0.649271
0.485501
0.163726
-0.542707
0.0447437
-0.396477
0.212469
0.183934
0.229313
0.226594
-0.329376
0.0513256
0.278388
0.134074
0.14182
-0.258524
-0.570624
0.290431
0.280439
0.214991
0.156085
0.580621
-0.31287
-0.240721
0.671095
-0.534046
-0.115269
0.0425772
0.442016
-0.4846
0.280167
0.233202
-0.512708
0.432724
-0.150041
-0.45022
0.242075
0.208235
0.212306
0.193699
0.0918725
-0.229194
0.137477
-0.376581
-0.349358
0.57656
-0.330658
0.104326
-0.428515
0.32433
-0.705543
0.486788
0.218768
-0.223894
0.392884
-0.288588
0.604664
-0.41599
-0.188707
0.339611
-0.387242
-0.521489
0.248068
0.273528
-0.0039478
-0.570448
0.439968
0.237683
0.519555
-0.288706
0.390143
0.228916
-0.61902
0.483171
-0.20254
0.292762
-0.511476
0.218887
0.682636
-0.298511
-0.383522
-0.702585
0.289834
0.412707
0.27927
-0.655392
-0.609522
0.361904
0.247632
-0.618619
0.393487
0.225158
-0.388561
-0.314068
-0.173548
0.519864
-0.346141
-0.231753
0.00597705
-0.0552369
0.220266
-0.16481
-0.355021
-0.350508
0.16081
-0.215767
0.184085
0.0164788
-0.507194
0.333825
-0.376337
0.418911
0.679979
-0.322988
-0.356904
0.506325
-0.213403
-0.755715
0.367204
0.291936
0.391199
-0.345184
0.506399
0.306683
0.368176
-0.617084
0.405132
0.211942
-0.383317
0.0697116
0.313662
0.105575
-0.549004
0.443464
0.279699
-0.472715
-0.299039
-0.175204
-0.15044
0.325721
-0.227256
0.63663
-0.612075
0.30286
0.309206
0.10924
-0.472156
0.363563
-0.546351
0.212245
0.334219
-0.436355
0.541989
-0.376988
-0.16914
-0.483205
0.261095
0.222121
-0.222867
-0.219432
0.207818
0.372312
-0.58011
0.580192
-0.251119
-0.328902
-0.0635892
0.23852
-0.174916
0.0993039
0.123569
-0.222827
-0.154567
-0.153272
0.307824
-0.350596
-0.187013
0.142615
-0.360011
0.21767
-0.259009
0.536724
0.241284
-0.137629
0.351766
0.228587
-0.498791
0.275429
0.224099
-0.389166
-0.227928
-0.21231
-0.270862
-0.419855
0.481544
-0.0615753
0.27563
0.155347
-0.196436
-0.200104
-0.381635
-0.253067
0.189405
-0.00519354
-0.297178
0.302536
0.558512
-0.316814
-0.241581
-0.0401127
0.224469
0.537872
-0.147676
-0.0130232
0.352779
-0.352773
0.523899
-0.170991
-0.311068
0.193267
0.209629
0.263623
-0.473022
0.463799
-0.215565
-0.452542
0.617365
0.421363
-0.64412
0.332009
0.312062
0.346793
-0.429542
-0.239737
0.363062
-0.12364
0.331005
-0.136136
-0.194717
0.476512
-0.201113
-0.442878
0.168124
0.209021
-0.402314
0.272946
-0.278014
0.436344
0.243725
0.586284
-0.346006
-0.240407
0.3249
-0.182087
0.0917641
-0.544295
0.233584
0.145901
-0.379351
-0.328314
0.202425
0.126376
0.512709
-0.319394
-0.193225
-0.189039
-0.586132
0.166343
0.716109
-0.318447
-0.282983
-0.296011
-0.226829
0.221036
0.322022
-0.542951
-0.167919
-0.159965
-0.25292
0.113651
0.139307
-0.686813
0.36714
-0.623198
0.328158
-0.308431
0.153729
0.609878
-0.160262
-0.449534
0.106138
-0.230989
0.124927
-0.152956
0.386614
-0.275314
-0.230313
0.50659
-0.214724
-0.321005
0.536312
0.335867
-0.198089
-0.652226
0.39676
0.255707
-0.0892196
0.43581
-0.625336
0.314932
0.310387
-0.552962
0.317266
0.236258
0.209753
-0.573109
-0.303296
0.541112
-0.237565
0.191442
0.328594
0.643901
-0.241901
0.281154
0.225385
-0.342369
-0.148062
-0.445652
0.415559
-0.236492
-0.178944
0.11739
-0.284894
0.167561
0.289824
-0.155696
-0.23913
0.114837
0.124362
-0.29661
-0.215845
0.513169
-0.433164
0.219945
0.213068
0.226284
0.271669
-0.497499
0.279982
-0.162569
0.51968
-0.317468
-0.201855
-0.669527
0.327757
0.341689
-0.60035
0.4754
0.124888
-0.517845
0.134019
0.155851
0.426965
0.177449
-0.604392
-0.337934
0.162838
-0.470614
-0.0528008
0.52341
-0.701807
0.231175
0.15551
0.175638
0.298212
0.225812
-0.372012
0.486866
-0.114311
-0.253734
-0.415856
0.601421
-0.380714
-0.220601
0.133362
-0.332755
0.199592
0.506005
-0.287773
-0.218229
0.630192
-0.515864
-0.114341
0.525869
0.104314
-0.218973
-0.415651
0.219128
0.621044
-0.353132
-0.267966
-0.147184
0.500043
-0.218633
-0.601334
0.207559
0.393758
0.556943
0.0099453
-0.566396
0.24644
0.439783
0.341558
0.171198
0.225119
0.190585
-0.00881655
-0.237569
0.246443
-0.676167
0.432118
0.244909
0.242881
0.221074
0.245469
-0.322633
-0.247782
-0.46656
0.220616
0.246654
0.200002
0.275436
0.345264
-0.620666
0.358825
0.245822
-0.386648
0.193914
0.192718
0.223067
-0.231869
0.333451
0.243297
-0.576802
0.442883
-0.215241
-0.227238
-0.286006
0.546207
-0.345354
-0.201012
0.267167
-0.464074
0.196699
-0.104365
0.538971
0.380387
-0.628335
0.248681
0.611737
-0.492096
-0.119713
0.313782
-0.180268
0.363576
-0.309619
-0.0539258
-0.276526
-0.22441
0.501178
0.410126
0.135978
0.63649
-0.358553
-0.27826
0.485083
0.126585
0.348632
0.0149767
0.225973
-0.407182
0.181263
0.169991
0.206099
-0.376007
0.249761
-0.551602
0.339553
-0.28512
-0.240655
0.525977
0.153573
0.182446
-0.335905
0.0596949
-0.299675
-0.286363
-0.250718
0.537153
-0.384735
-0.060952
-0.279501
0.340561
0.597555
-0.194785
0.662474
-0.57071
0.199001
-0.0996313
-0.384942
0.189553
0.195308
-0.123765
-0.260367
0.353658
-0.138366
-0.383311
-0.194048
0.577397
0.162879
0.175767
0.18611
0.263924
-0.568091
0.347003
-0.436433
0.28492
-0.174177
-0.110617
-0.303521
-0.278854
0.582193
0.271713
0.252557
-0.389824
0.377324
0.597991
-0.571546
-0.0263249
0.102535
-0.538442
0.0301054
0.259017
-0.28884
0.530162
-0.178514
0.236846
-0.522975
0.205151
-0.372745
-0.279247
0.292545
0.367757
0.609673
0.274349
0.0938375
-0.368409
0.340248
-0.266935
0.21762
-0.417541
0.200034
-0.39538
0.0513896
0.344229
-0.180721
-0.235518
0.416359
0.246583
-0.0668656
0.400549
-0.333865
-0.410443
0.211526
-0.248438
-0.170906
0.419458
-0.415366
0.00269309
-0.195378
0.192938
0.286479
-0.0955248
0.123151
0.118213
0.188377
-0.185415
-0.171428
0.445622
-0.468934
-0.102958
0.572074
0.492695
-0.219627
-0.371462
-0.297479
-0.465814
-0.134575
-0.296228
0.546158
0.0747721
0.535186
0.504779
-0.23783
-0.10427
0.451127
0.265473
-0.326332
-0.0202472
-0.374962
0.221749
-0.115499
-0.341302
-0.0501336
-0.502327
0.262754
0.23959
-0.295743
0.532188
-0.236567
0.303793
0.116133
-0.267822
0.151755
-0.175128
-0.247217
-0.186088
0.168647
-0.396834
0.228103
-0.327976
0.248392
0.527013
-0.193968
-0.376702
0.183433
0.193081
0.573393
-0.597679
0.0243819
0.162268
-0.522789
-0.373903
-0.241656
-0.45022
0.202786
-0.357693
0.290932
0.39391
-0.0562536
-0.337796
-0.283906
0.0433195
0.683671
-0.246051
-0.437569
0.21333
-0.104686
-0.148207
0.157358
0.408238
-0.565626
-0.68732
0.455515
0.231974
-0.0482611
-0.341176
-0.180979
-0.0551771
0.236216
0.299288
0.384433
-0.285787
-0.339567
0.351564
-0.151024
-0.200451
0.416555
-0.207998
-0.208452
0.382998
0.218527
0.00898647
-0.338065
0.162035
-0.482282
-0.201746
0.617002
-0.233896
0.178116
-0.330751
0.152857
0.393374
0.136616
0.257719
-0.141604
-0.203422
-0.316409
-0.0543895
-0.544739
-0.542671
0.255963
0.286851
-0.169038
-0.274307
-0.268213
-0.608612
0.31262
-0.358268
-0.353217
-0.256296
-0.192711
-0.213987
0.406856
0.374998
0.245946
0.340169
-0.170137
0.131123
0.18541
0.216304
-0.40187
0.242206
0.277817
-0.191118
-0.201487
0.606643
0.346332
-0.107739
0.54691
-0.031541
-0.514598
0.0615255
0.278678
-0.394401
0.635198
-0.24078
-0.619601
0.205353
0.414325
0.641167
-0.42896
-0.190626
-0.355873
-0.256219
-0.49258
0.214545
0.277947
0.473032
-0.201205
0.566872
0.556824
0.0185293
-0.574354
0.34967
0.0440806
0.246172
0.142729
0.316369
0.242266
0.139747
0.146823
-0.61641
-0.267431
0.376802
-0.187343
0.273698
0.142939
0.271202
-0.264709
-0.179143
0.270087
-0.0908996
0.207774
0.268513
0.163233
0.024523
-0.367871
0.344192
0.423347
-0.0829676
-0.340281
0.177315
0.169098
0.324473
-0.146072
0.553531
-0.356072
-0.186665
0.542791
0.40017
0.236046
-0.258009
-0.268354
0.526768
0.0891435
0.132709
-0.276176
0.510011
0.377417
0.243673
-0.216395
-0.281647
0.172386
0.364085
-0.110585
0.553917
-0.352538
0.0992492
0.253766
0.0988867
0.158785
0.152835
0.172258
-0.344766
0.517424
0.0586361
0.25534
0.628813
-0.256489
0.0876711
0.513792
0.64272
-0.316712
-0.325983
-0.229717
0.0957831
0.327571
0.230271
-0.507561
0.249983
-0.62856
0.388235
0.240414
-0.403837
0.503872
-0.482087
0.227911
0.2544
-0.163861
-0.370224
-0.313241
-0.362124
-0.337552
0.363163
-0.231677
-0.2326
0.338408
-0.442492
-0.175356
0.340358
-0.307283
-0.284902
0.496227
0.0772163
0.523127
-0.0961423
-0.189217
0.372374
-0.239634
0.305302
-0.243655
-0.00340557
-0.534047
0.537941
-0.294399
-0.285101
0.579506
0.211609
-0.528266
-0.245379
0.214854
-0.510893
-0.168941
0.269533
-0.135367
0.322972
-0.595282
0.272382
-0.113573
0.0136283
0.248148
-0.261711
0.612056
-0.321537
-0.290445
-0.25297
-0.212853
-0.323054
-0.272969
-0.16279
0.375188
0.223734
0.278428
-0.142583
-0.135837
-0.584794
-0.25783
-0.294587
-0.169528
0.283213
-0.220912
0.496922
0.0566223
0.175935
-0.2324
0.182208
0.322359
-0.17902
0.341595
0.270544
-0.20923
-0.115469
0.454147
0.350818
-0.560736
0.210023
0.241528
-0.48074
0.239301
0.117319
0.120715
-0.107
0.402711
-0.295473
-0.215436
0.566433
-0.0669101
0.424477
-0.357206
-0.427932
0.321385
0.546264
-0.116075
0.247927
-0.234179
0.477979
-0.240933
0.482496
-0.28302
-0.216741
0.499975
-0.223097
-0.194998
0.418031
0.624071
-0.34861
-0.454454
0.387486
-0.20268
0.369089
-0.166307
-0.103836
0.2271
-0.597723
0.217127
0.271406
0.198105
-0.46943
-0.208642
0.0277276
-0.197466
-0.264111
0.461386
0.575359
-0.348819
-0.226472
-0.372569
0.124403
0.269078
-0.168379
-0.175086
0.186583
0.0871196
0.0980881
-0.409617
-0.191732
-0.259366
-0.351296
0.113756
-0.239875
0.321876
-0.0821489
-0.555008
0.532809
-0.523923
-0.00809954
-0.277439
0.607138
-0.329668
-0.0538105
-0.41503
0.424545
-0.0839164
-0.617737
0.323319
0.183468
-0.20303
0.0196243
0.2043
-0.147559
0.172504
0.105932
0.146722
0.178052
-0.180654
-0.432365
0.0987776
0.141026
-0.239715
-0.159969
0.431399
0.333912
-0.549726
0.215703
0.180931
0.213752
-0.394442
0.265389
-0.457246
0.191776
-0.6281
0.276227
0.351838
-0.311565
-0.20884
0.520395
0.471145
0.0861702
0.324486
-0.533336
0.0681597
-0.180037
0.111938
0.625526
-0.282009
-0.343512
0.376726
0.242102
-0.618808
-0.146819
-0.151963
0.29877
-0.36345
0.248706
0.11451
-0.154263
-0.182681
-0.349546
-0.272438
0.496959
-0.224492
0.257672
-0.455455
-0.211463
0.468731
-0.21957
-0.184599
0.0405508
0.275743
-0.315934
0.188823
-0.544884
-0.0599828
0.277009
-0.216955
-0.364559
-0.384255
-0.258147
0.276644
-0.217908
0.192284
0.159385
0.267243
0.195884
-0.425759
0.230036
-0.220949
-0.28136
-0.244968
-0.106254
0.0376839
0.234046
-0.105519
-0.25813
-0.360585
-0.206039
0.567001
0.257657
0.215072
-0.386525
0.0604505
0.21958
-0.194493
0.420501
0.332637
-0.239005
-0.0989735
0.453393
-0.354399
-0.496185
0.276128
0.220118
0.234833
-0.42741
0.147852
0.123904
-0.271687
-0.377764
-0.267684
-0.483668
0.211355
-0.597128
0.228462
0.368544
-0.308914
0.569099
-0.259817
-0.570546
0.262148
0.283522
0.570312
-0.409691
-0.160563
-0.343001
-0.270527
-0.501639
0.227908
0.34252
-0.601994
0.333218
0.269351
0.228738
-0.417025
0.188171
-0.276901
0.612857
-0.335951
0.115401
0.208998
0.510001
0.00671254
-0.516442
-0.211457
0.413856
-0.185181
0.215088
-0.177576
0.240056
-0.141133
-0.154887
0.5359
0.295866
-0.521651
0.225817
-0.269021
-0.214526
0.225991
0.329624
-0.555349
-0.373089
0.624604
-0.251515
0.493385
-0.170375
-0.623814
0.25074
-0.304574
0.541382
-0.263414
-0.232752
0.367575
0.25796
-0.215608
-0.104426
0.320225
-0.330553
-0.356613
-0.452279
0.53721
0.0270681
0.388193
-0.41496
0.455341
-0.189974
0.216643
-0.5234
0.307149
0.248812
0.36829
-0.102815
-0.140409
0.0485584
-0.458184
-0.192882
-0.200748
0.39387
0.175227
-0.107027
-0.298071
-0.252996
0.0026651
0.552707
-0.554473
0.211841
0.430906
-0.180373
-0.0429813
-0.276407
-0.320837
0.214305
-0.125045
-0.00158468
-0.505294
0.350378
-0.396042
0.578692
-0.182569
0.220814
-0.413549
-0.45126
0.390903
0.06062
-0.366631
-0.193987
0.560634
-0.549151
0.277134
0.272192
0.217595
-0.611904
-0.422422
0.579778
-0.242779
0.141807
0.057292
-0.199055
-0.489714
0.228416
-0.11103
-0.42395
-0.123932
-0.07369
-0.317103
-0.284314
-0.611333
0.309173
0.302002
-0.411513
0.588694
-0.177176
0.132443
0.137233
-0.232228
0.528245
-0.0443923
-0.211311
0.255681
-0.178172
0.39333
-0.206259
0.348918
0.526537
0.0711376
-0.482646
-0.12993
-0.120891
0.250921
-0.527505
0.222975
-0.43242
0.111614
0.139751
0.129345
-0.269021
0.244866
0.287195
0.350815
0.224604
-0.34795
-0.201049
-0.354248
0.545504
-0.191296
0.596605
-0.245716
0.23893
0.268157
-0.506987
-0.585001
0.177598
0.407381
0.61975
-0.379182
-0.240547
-0.352405
-0.0190534
0.371534
-0.503905
0.158544
-0.290879
0.508789
-0.612586
0.315328
0.297541
-0.546874
0.0146502
0.532465
-0.584972
0.257872
0.326998
-0.648328
0.366324
0.292953
0.276917
0.358297
0.204432
-0.53154
0.3271
-0.138373
0.301127
-0.33193
0.69223
-0.360258
-0.407067
0.183961
-0.236691
0.0575053
0.526673
-0.212649
-0.313892
0.405329
-0.197002
-0.0550618
0.303406
-0.439821
0.0875637
0.215477
-0.11404
-0.101313
-0.371408
0.426032
-0.377478
0.552296
-0.342928
-0.209488
-0.257322
0.470612
-0.213146
-0.273373
0.0671307
-0.572075
0.515086
0.0572315
-0.168774
0.589477
-0.420718
0.204975
0.324121
-0.529011
-0.177324
0.561095
0.314925
0.237252
0.399133
0.22062
0.292621
-0.0896147
-0.485475
0.132618
0.14957
-0.296454
-0.286274
0.0911172
-0.349878
0.294496
0.0557476
-0.0709176
-0.278601
-0.615081
0.273819
0.341273
0.533748
-0.328662
-0.379657
-0.13594
0.341377
-0.47334
0.179286
0.00802105
-0.378714
0.370369
-0.585821
0.237105
0.605907
-0.286401
0.550539
-0.263328
-0.518908
-0.345887
-0.265584
-0.478313
0.243444
0.23485
-0.197314
-0.254748
0.452337
0.151191
0.446923
0.4747
-0.536038
0.0611768
-0.0101093
-0.385761
-0.0667694
-0.587202
0.234855
0.352348
0.549378
-0.323186
-0.625374
0.335022
0.290446
0.161943
0.293371
-0.279272
-0.294908
-0.240724
0.0156959
-0.309833
0.514316
-0.0100072
0.495455
0.414215
-0.583
-0.260249
-0.304665
0.565
-0.19077
0.167878
-0.301097
0.133224
-0.160909
-0.151487
0.312421
-0.184441
0.109353
0.368065
-0.477455
0.116801
0.111686
0.173907
-0.540532
0.238839
-0.552762
0.314158
0.333928
0.192876
-0.0137611
0.488291
-0.269198
0.546745
-0.277726
-0.00933368
0.26793
-0.258665
0.517158
-0.484079
-0.0331091
-0.202996
-0.196693
0.399652
-0.57069
0.319998
0.250806
-0.529052
0.287268
0.241773
-0.602563
0.260383
0.342178
-0.370665
0.610035
-0.239307
-0.54067
0.367836
0.172926
-0.448138
-0.0557867
-0.464706
0.217747
0.246796
0.320699
-0.17377
-0.0534658
0.402993
-0.349435
0.435735
-0.103358
-0.250333
0.205968
0.238148
-0.0390797
-0.0254759
0.487053
-0.461372
0.117089
0.0985134
0.30781
-0.568111
0.117948
-0.247758
-0.20984
-0.566749
0.289863
0.43691
0.0732778
-0.322069
-0.303216
0.19541
-0.00273737
-0.592197
0.337549
0.255207
-0.183872
-0.18814
0.371783
-0.11186
0.552614
0.520217
-0.174939
-0.260559
0.314078
-0.122457
-0.191253
-0.619801
0.415007
0.204826
0.297629
0.230418
-0.534721
-0.540856
0.25479
-0.568585
0.134156
0.434387
0.253455
0.289707
-0.542469
0.402911
-0.209115
-0.305443
0.544455
0.250171
0.3465
-0.435629
-0.135809
-0.551234
0.205198
0.506219
-0.129453
-0.198259
-0.163812
0.250633
-0.431125
-0.45434
-0.635378
0.322681
0.312701
-0.494233
0.29736
-0.435892
-0.132735
0.290292
-0.5596
-0.251408
0.107824
0.143663
-0.442626
0.289453
0.153205
0.267175
0.203579
0.303176
-0.135344
-0.565928
0.288499
0.649891
-0.296714
-0.353202
-0.20655
0.540366
-0.141442
-0.408404
0.200254
0.114193
0.267483
-0.0918132
-0.175611
-0.173228
-0.203317
0.376299
-0.560982
0.143436
0.417524
-0.464943
0.226139
0.238879
-0.261551
0.543031
-0.281354
0.265881
-0.3734
-0.20276
0.383836
-0.426853
-0.267994
-0.0115244
-0.520549
0.533278
-0.19719
0.41789
-0.308276
0.254244
0.205709
-0.459585
-0.128462
-0.109556
0.238146
0.170436
0.264264
0.360343
-0.31282
-0.591166
0.360116
0.231134
-0.0817809
0.23858
0.227572
0.15336
-0.507741
-0.300354
-0.274104
-0.349694
-0.514578
0.20297
0.0124056
0.326294
-0.338612
0.238073
-0.511475
0.499602
-0.613611
0.254362
0.359292
-0.214961
-0.318605
0.533697
0.290463
0.359405
0.529494
-0.317308
0.59349
0.198867
0.522495
-0.379054
0.167625
0.354871
0.640587
-0.30108
-0.339575
0.246883
0.309276
-0.555989
0.136961
-0.36538
-0.34305
-0.204465
0.547516
0.0815799
0.156674
0.494564
-0.519854
0.290455
-0.420661
-0.429855
0.560887
-0.253248
-0.416069
0.107345
0.308607
-0.376568
-0.243205
0.325619
-0.378943
0.290371
-0.129528
-0.160769
-0.201198
-0.325377
0.526621
0.50591
-0.237848
-0.608977
0.26707
0.341923
0.186226
0.204431
-0.390323
-0.21124
0.109772
-0.561022
0.269152
0.291967
0.233338
-0.579524
-0.0929555
-0.147576
-0.349378
-0.259582
-0.637894
0.363783
-0.268114
0.120333
0.148075
-0.554684
0.30261
0.252277
-0.309838
0.173816
-0.55383
0.233458
0.356222
-0.589652
-0.142087
-0.438854
0.580917
0.229337
-0.289174
-0.593643
0.263704
0.329944
0.285823
-0.604932
0.334409
-0.611725
0.360832
0.250932
0.312998
0.263488
-0.433404
0.213926
-0.119766
-0.148064
0.19093
-0.533988
-0.175051
0.333881
-0.45156
0.414903
0.0366527
-0.207182
0.388978
-0.181708
0.376904
-0.369025
0.123659
0.172381
-0.295996
0.147481
0.120085
-0.25253
-0.276517
0.307114
-0.522457
-0.218615
-0.253845
0.0423065
-0.257726
0.266164
-0.184485
-0.284282
0.53225
-0.248212
0.50373
-0.553463
0.229589
0.323877
0.519885
-0.522585
0.131612
-0.239547
0.108011
-0.309731
0.159914
0.149672
-0.16785
-0.0935735
0.526609
0.275873
-0.127973
-0.505156
0.505561
-0.000466546
-0.56165
0.299068
0.262969
-0.528853
0.244464
-0.263387
-0.350187
0.176495
0.239982
-0.594201
0.234011
0.299164
-0.531349
-0.155082
-0.0962539
-0.426371
0.237775
0.188604
0.14572
0.120137
-0.277713
0.537475
-0.260091
-0.109239
0.240875
0.194026
-0.39704
0.150103
0.170816
0.656486
-0.380517
-0.275984
-0.232136
-0.385645
0.289071
-0.347435
0.184003
0.22164
-0.405475
0.178796
-0.330303
-0.301013
-0.259908
-0.102049
0.557861
-0.280672
-0.192859
-0.392163
-0.134103
0.268161
0.278404
-0.340913
-0.316376
-0.222792
0.539051
0.397944
0.591816
0.260825
0.236171
0.233734
-0.116525
-0.316278
-0.239958
0.556469
0.363367
0.354988
-0.541604
0.32977
-0.615451
0.285567
0.220402
-0.415324
0.594286
-0.0464408
-0.131292
0.271091
0.537286
0.336953
-0.296156
-0.040601
-0.387756
0.203545
0.184434
0.208027
-0.5786
-0.594393
0.40502
0.189371
0.113048
0.153211
-0.0896137
0.438684
-0.349167
0.285374
-0.51451
0.16285
0.127595
-0.313476
-0.23105
0.544434
0.281917
-0.518542
-0.220219
0.487265
-0.350809
-0.20048
0.441991
-0.191294
0.127656
-0.271672
0.144111
0.261781
-0.249298
0.262256
-0.473973
-0.236953
-0.267016
0.562183
-0.295347
0.21303
0.180545
-0.393397
-0.0647396
0.551527
-0.405871
0.213486
0.192341
0.448421
-0.15889
0.412119
0.339175
-0.622181
0.283564
-0.650363
0.202598
0.202821
0.402619
-0.596601
0.197767
-0.402734
0.205065
0.279693
-0.532681
0.253153
-0.227225
0.404761
-0.177726
0.560938
-0.246116
-0.337177
-0.489785
0.191814
0.342918
-0.239449
-0.238883
-0.332838
-0.258165
-0.236225
0.495056
0.259273
0.310194
0.218232
-0.249865
0.447367
-0.295613
0.456448
0.101116
0.128467
0.208679
0.257422
-0.465594
0.20812
-0.335494
-0.116324
0.26219
-0.242782
-0.264742
0.507638
0.274038
-0.190617
-0.0831973
0.416008
-0.194215
-0.269353
0.280445
0.0412836
-0.284081
-0.160388
-0.330863
0.491129
-0.44874
0.222887
0.225793
-0.441837
0.410607
0.579247
-0.266692
-0.31287
-0.23077
0.0929972
0.147208
0.314439
-0.182541
-0.131832
-0.326759
-0.239345
0.56613
0.264603
-0.542772
-0.236598
0.535968
0.272192
0.23531
-0.343766
0.392927
-0.275637
-0.117022
-0.585981
0.259232
0.226771
0.191213
-0.250092
-0.305853
0.556039
-0.162543
0.375521
0.101447
-0.215371
0.399483
-0.181155
-0.0885245
-0.363011
-0.394194
-0.233512
-0.199378
0.453891
-0.160177
0.338947
0.261143
0.207197
0.612447
-0.258804
-0.353573
-0.251336
-0.297383
0.549076
-0.562362
0.245592
0.533255
-0.321003
-0.212236
-0.401651
0.204958
0.377668
-0.115106
-0.272093
-0.542094
0.22867
0.568216
-0.238803
0.129332
0.424624
-0.197839
0.50554
-0.244454
0.115426
0.118425
0.215071
0.198727
-0.00824901
-0.505586
0.440736
-0.202945
-0.267094
-0.286356
-0.238406
0.0924844
0.145969
0.231726
-0.489439
0.282146
-0.638029
0.355906
-0.114966
0.231862
0.331163
-0.130631
-0.479259
-0.517318
0.255906
0.291709
-0.24922
0.282891
-0.473036
0.190102
0.384944
-0.187261
-0.325599
0.573465
-0.247738
-0.385301
0.143566
0.177742
-0.384772
0.262402
-0.186982
0.484609
-0.297491
0.381732
-0.177404
-0.204181
-0.560778
0.235272
-0.350797
-0.239677
0.59052
-0.636251
0.277534
0.358735
0.114966
0.634689
-0.354218
-0.280467
-0.640062
0.284582
0.355497
-0.0979737
-0.140386
0.531839
0.228518
0.189789
-0.418067
-0.201306
0.286396
0.348298
-0.477653
0.259679
0.218036
0.328849
0.242117
-0.570977
0.223647
-0.232922
-0.253293
-0.274377
0.526483
0.249066
-0.194466
-0.234163
0.428453
-0.35365
0.414779
-0.202927
-0.21161
-0.549597
-0.272344
0.482685
-0.21015
-0.215277
0.381299
-0.166225
-0.301411
-0.378037
-0.49967
0.266284
0.233436
-0.205725
0.470399
-0.264052
-0.260782
-0.332855
0.029406
0.557036
-0.586393
0.270144
-0.122418
0.27622
-0.432814
-0.354085
-0.249932
0.522646
-0.353421
-0.151908
0.27253
-0.550369
0.287935
0.263244
-0.192846
0.281099
0.277152
-0.558269
-0.239216
0.596834
-0.357646
-0.25739
0.530127
-0.272786
-0.322012
-0.237513
0.559729
0.136244
0.10761
-0.243848
-0.518019
0.230297
-0.579888
0.258144
-0.586424
0.224652
0.361735
-0.204743
-0.335845
0.492469
-0.0213657
-0.18966
-0.24763
0.437761
0.302367
-0.552965
0.332264
-0.536621
0.390613
-0.11138
0.281876
-0.572842
0.518526
-0.45343
0.292916
0.0286732
0.53776
-0.566435
0.346716
0.319681
-0.547005
0.384571
-0.138722
-0.245904
0.551576
-0.314359
0.376171
-0.187053
-0.188823
-0.423099
-0.128263
0.265009
-0.504948
0.240115
-0.408637
0.389892
0.162149
0.112144
0.330441
0.209315
-0.539581
-0.363742
-0.222719
0.277828
-0.16471
0.516018
-0.22925
0.245411
-0.166331
-0.0790312
0.219164
-0.0643127
-0.154819
0.00716501
-0.518652
0.512779
0.284437
-0.629283
0.270516
0.3588
-0.108129
0.297587
0.307572
-0.126077
-0.287811
-0.231795
0.520401
-0.565594
0.126668
-0.621082
0.256361
0.364752
0.242117
-0.106718
-0.135399
0.316756
-0.113821
-0.631048
0.275031
0.356041
0.469466
-0.193336
0.23407
-0.408899
0.174886
-0.545349
0.356489
-0.0960321
0.2721
0.14091
0.151847
-0.292875
0.25185
-0.118452
-0.133379
0.29798
-0.135036
-0.348203
0.581675
-0.161192
-0.148373
-0.145966
0.294451
-0.61078
0.334204
-0.27205
0.142315
0.129715
-0.313551
-0.250577
0.563959
0.274476
-0.192332
0.470226
-0.594041
0.336831
0.25721
-0.317049
-0.226435
0.543673
0.141105
0.282657
-0.177564
0.305255
0.241446
-0.105249
-0.353493
-0.248469
0.528428
-0.0888432
-0.214522
0.303473
0.532626
-0.210148
0.542602
-0.257678
0.41571
-0.400498
0.215079
-0.143843
-0.241392
0.513251
-0.520595
0.508016
-0.510941
-0.192715
0.407797
0.523936
-0.144549
-0.378929
0.547629
-0.514024
-0.278887
-0.254164
0.533051
0.411132
-0.213724
-0.197122
0.249017
-0.545831
-0.125043
0.240109
-0.115109
0.192839
-0.139835
0.263456
0.389348
-0.185545
-0.429958
0.17192
-0.354222
-0.0991422
0.195488
-0.0963587
0.0767079
0.0630887
0.346863
0.623913
-0.399273
0.481245
-0.219473
-0.103968
0.215412
-0.111456
0.552425
-0.138151
-0.414239
-0.168811
0.302682
-0.133794
0.201795
0.156634
-0.358345
0.224317
0.399583
0.405934
-0.495638
0.52383
-0.241726
-0.143964
-0.27907
0.149293
0.129776
-0.509766
0.266851
-0.21618
0.239448
-0.472567
0.233684
-0.496358
0.179651
0.322222
-0.577744
0.255536
-0.605077
0.35636
0.248728
0.436552
-0.202262
0.466978
-0.215747
-0.25101
0.21014
0.185687
-0.396077
0.140421
0.121923
0.342841
-0.536888
0.521098
0.116569
0.247159
0.138114
-0.258851
0.208192
0.18642
-0.394802
-0.158413
-0.0733306
-0.0696843
0.349839
0.508369
-0.24311
0.138853
0.592052
0.240279
-0.587842
0.347568
0.00716204
-0.461923
0.349354
-0.588451
0.249715
0.282209
-0.243539
0.202014
0.179086
-0.601064
0.268834
0.332204
0.434258
0.152558
-0.249758
0.552685
-0.260305
0.520179
-0.259869
-0.0368555
-0.496876
0.534657
0.182946
0.162275
-0.274563
-0.261082
0.536209
-0.220832
0.481441
0.273629
0.263523
-0.106014
-0.110069
-0.185513
0.119023
-0.244086
0.143447
0.305063
0.213943
0.193804
-0.407779
0.174293
0.181549
-0.503792
-0.290186
0.151544
0.138625
0.173787
0.202707
0.0189734
0.146437
-0.246733
0.290225
-0.27999
0.172362
0.130399
0.181731
0.130715
-0.333759
-0.267334
-0.130967
0.0807519
0.245484
0.0623198
-0.307484
0.521491
0.312843
-0.140491
0.552973
-0.150008
0.140687
-0.230468
0.0898648
-0.227695
0.482423
-0.114117
0.234138
-0.108127
0.248824
-0.350538
0.0528708
-0.469823
0.237473
0.200091
0.175387
0.158033
-0.351909
0.184574
0.167284
-0.12627
-0.127301
0.253542
0.029414
-0.411773
0.382392
-0.368182
0.194858
0.173502
0.484282
-0.25647
-0.227789
-0.564974
0.314469
0.0605398
-0.222408
-0.226396
0.508108
-0.580666
0.0720834
-0.320671
0.172196
0.148493
0.190058
0.17179
-0.361687
-0.276692
0.461877
-0.185322
0.270145
0.241012
-0.510648
0.310486
-0.136758
-0.443187
0.221483
0.221832
-0.305468
-0.305469
0.422346
-0.193767
-0.191743
0.401812
-0.499754
0.477403
-0.513204
-0.167465
0.369172
0.262227
-0.129563
0.154387
0.146621
-0.441822
0.178276
0.63007
-0.405766
0.172431
0.190831
0.241352
0.341316
-0.582221
-0.61537
0.359293
0.256107
0.398535
0.231521
0.558279
-0.487099
-0.0711863
0.334151
0.265943
0.216921
-0.0888115
0.391639
0.320396
-0.205672
-0.276361
-0.577228
-0.248424
-0.363261
0.113827
0.156574
-0.621038
0.263376
0.35769
0.182756
-0.343066
-0.275598
0.51674
-0.24086
0.00825508
-0.198758
-0.300689
0.543905
-0.24286
-0.327376
0.58454
-0.257297
0.259697
-0.510516
0.251354
0.232684
-0.134069
0.614132
-0.356065
-0.258035
0.521277
-0.528981
0.0091105
0.357347
0.143107
0.172912
-0.316101
0.549316
-0.251796
-0.225797
-0.196683
-0.400955
0.354115
-0.285621
0.530416
-0.245164
0.202892
0.235664
0.0223248
-0.257723
0.018946
0.216955
0.241051
-0.112674
0.217271
-0.104611
-0.587678
0.348349
-0.240885
0.590327
0.341554
0.158127
0.176147
-0.334377
0.287866
-0.135445
-0.504112
0.268782
-0.267608
-0.353402
0.712866
-0.386967
-0.325761
-0.204145
-0.196493
0.410476
-0.161921
0.298071
-0.136031
0.570464
-0.248014
0.2677
-0.487794
0.373746
-0.167932
-0.205419
0.221719
0.19298
-0.414686
0.472002
-0.23216
0.189069
0.210491
-0.519677
0.368159
-0.588604
0.233014
0.581948
-0.516294
-0.0644464
-0.293876
0.139429
0.154294
-0.618823
0.351241
0.14218
0.153723
-0.2961
0.00947727
0.232342
-0.241722
-0.494157
0.300844
-0.489872
0.264889
0.218522
0.246376
0.195507
0.226488
-0.421674
0.162324
0.361973
0.263186
-0.147458
-0.0959113
0.388309
-0.0511002
-0.221077
0.488584
-0.517131
-0.215049
-0.212624
0.389858
-0.177134
-0.338965
0.17401
0.164949
0.136803
-0.220748
-0.276301
0.496509
0.203739
0.181116
-0.380191
-0.197781
-0.0765777
0.274501
0.419425
-0.251462
-0.167526
0.117001
0.426657
-0.245059
-0.181232
0.223479
0.188719
-0.355106
-0.249822
0.0908308
0.124844
0.178292
0.262653
-0.619066
0.356439
0.0568474
0.211761
-0.389909
0.216909
0.273075