/*--------------------------------*- C++ -*----------------------------------*\
| =========                 |                                                 |
| \\      /  F ield         | OpenFOAM: The Open Source CFD Toolbox           |
|  \\    /   O peration     | Version:  v2012                                 |
|   \\  /    A nd           | Website:  www.openfoam.com                      |
|    \\/     M anipulation  |                                                 |
\*---------------------------------------------------------------------------*/
FoamFile
{
    version     2.0;
    format      ascii;
    class       pointVectorField;
    location    "100";
    object      pointDisplacement;
}
// * * * * * * * * * * * * * * * * * * * * * * * * * * * * * * * * * * * * * //

dimensions      [0 1 0 0 0 0 0];


internalField   nonuniform List<vector> 
10142
(
(0 0 0)
(0 0 0)
(0 0 0)
(0 0 0)
(0 0 0)
(0 0 0)
(0 0 0)
(0 0 0)
(0 0 0)
(0 0 0)
(0 0 0)
(0 0 0)
(0 0 0)
(0 0 0)
(0 0 0)
(0 0 0)
(0 0 0)
(0 0 0)
(0 0 0)
(0 0 0)
(0 0 0)
(0 0 0)
(0 0 0)
(0 0 0)
(0 0 0)
(0 0 0)
(0 0 0)
(0 0 0)
(0 0 0)
(0 0 0)
(0 0 0)
(0 0 0)
(0 0 0)
(0 0 0)
(0 0 0)
(0 0 0)
(0 0 0)
(0 0 0)
(0 0 0)
(0 0 0)
(0 0 0)
(0 0 0)
(0 0 0)
(0 0 0)
(0 0 0)
(0 0 0)
(0 0 0)
(0 0 0)
(0 0 0)
(0 0 0)
(0 0 0)
(0 0 0)
(0 0 0)
(0 0 0)
(0 0 0)
(0 0 0)
(0 0 0)
(0 0 0)
(0 0 0)
(0 0 0)
(0 0 0)
(0 0 0)
(0 0 0)
(0 0 0)
(0 0 0)
(0 0 0)
(0 0 0)
(0 0 0)
(0 0 0)
(0 0 0)
(0 0 0)
(0 0 0)
(0 0 0)
(0 0 0)
(0 0 0)
(0 0 0)
(0 0 0)
(0 0 0)
(0 0 0)
(0 0 0)
(0 0 0)
(0 0 0)
(0 0 0)
(0 0 0)
(0 0 0)
(0 0 0)
(0 0 0)
(0 0 0)
(0 0 0)
(0 0 0)
(0 0 0)
(0 0 0)
(0 0 0)
(0 0 0)
(0 0 0)
(0 0 0)
(0 0 0)
(0 0 0)
(0 0 0)
(0 0 0)
(0 0 0)
(0 0 0)
(0 0 0)
(0 0 0)
(0 0 0)
(0 0 0)
(0 0 0)
(0 0 0)
(0 0 0)
(0 0 0)
(0 0 0)
(0 0 0)
(0 0 0)
(0 0 0)
(0 0 0)
(0 0 0)
(0 0 0)
(0 0 0)
(0 0 0)
(0 0 0)
(0 0 0)
(0 0 0)
(0 0 0)
(0 0 0)
(0 0 0)
(0 0 0)
(0 0 0)
(0 0 0)
(0 0 0)
(0 0 0)
(0 0 0)
(0 0 0)
(0 0 0)
(0 0 0)
(0 0 0)
(0 0 0)
(0 0 0)
(0 0 0)
(0 0 0)
(0 0 0)
(0 0 0)
(0 0 0)
(0 0 0)
(0 0 0)
(0 0 0)
(0 0 0)
(0 0 0)
(0 0 0)
(0 0 0)
(0 0 0)
(0 0 0)
(0 0 0)
(0 0 0)
(0 0 0)
(0 0 0)
(0 0 0)
(0 0 0)
(0 0 0)
(0 0 0)
(0 0 0)
(0 0 0)
(0 0 0)
(0 0 0)
(0 0 0)
(0 0 0)
(0 0 0)
(0 0 0)
(0 0 0)
(0 0 0)
(0 0 0)
(0 0 0)
(0 0 0)
(0 0 0)
(0 0 0)
(0 0 0)
(0 0 0)
(0 0 0)
(0 0 0)
(0 0 0)
(0 0 0)
(0 0 0)
(0 0 0)
(0 0 0)
(0 0 0)
(0 0 0)
(0 0 0)
(0 0 0)
(0 0 0)
(0 0 0)
(0 0 0)
(0 0 0)
(0 0 0)
(0 0 0)
(0 0 0)
(0 0 0)
(0 0 0)
(0 0 0)
(0 0 0)
(0 0 0)
(0 0 0)
(0 0 0)
(0 0 0)
(0 0 0)
(0 0 0)
(0 0 0)
(0 0 0)
(0 0 0)
(0 0 0)
(0 0 0)
(0 0 0)
(0 0 0)
(0 0 0)
(0 0 0)
(0 0 0)
(0 0 0)
(0 0 0)
(0 0 0)
(0 0 0)
(0 0 0)
(0 0 0)
(0 0 0)
(0 0 0)
(0 0 0)
(0 0 0)
(0 0 0)
(0 0 0)
(0 0 0)
(0 0 0)
(0 0 0)
(0 0 0)
(0 0 0)
(0 0 0)
(0 0 0)
(0 0 0)
(0 0 0)
(0 0 0)
(0 0 0)
(0 0 0)
(0 0 0)
(0 0 0)
(0 0 0)
(0 0 0)
(0 0 0)
(0 0 0)
(0 0 0)
(0 0 0)
(0 0 0)
(0 0 0)
(0 0 0)
(0 0 0)
(0 0 0)
(0 0 0)
(0 0 0)
(0 0 0)
(0 0 0)
(0 0 0)
(0 -0.000325332 0)
(0 -0.00037351 0)
(0 -0.000244952 0)
(0 -0.000284218 0)
(0 -0.00018659 0)
(0 -0.000315543 0)
(0 -0.00015552 0)
(0 -0.000342134 0)
(0 -0.000116942 0)
(0 -0.000249431 0)
(0 -0.000133624 0)
(0 -8.79894e-05 0)
(0 -8.95579e-05 0)
(0 -0.000301402 0)
(0 -8.16138e-05 0)
(0 -6.5443e-05 0)
(0 -6.16166e-05 0)
(0 -0.000349549 0)
(0 -0.000210825 0)
(0 -0.000173175 0)
(0 -5.0114e-05 0)
(0 -3.36122e-05 0)
(0 -0.000323351 0)
(0 -0.000382772 0)
(0 -0.000338105 0)
(0 -0.000327508 0)
(0 -0.000252076 0)
(0 -9.78946e-05 0)
(0 -0.000127445 0)
(0 -0.000111476 0)
(0 -9.97613e-05 0)
(0 -3.29379e-05 0)
(0 -2.06334e-05 0)
(0 -1.77573e-05 0)
(0 -0.00033951 0)
(0 -0.000372911 0)
(0 -0.000312461 0)
(0 -0.000280907 0)
(0 -0.00030635 0)
(0 -0.000216771 0)
(0 -0.000144018 0)
(0 -0.000173349 0)
(0 -0.000247927 0)
(0 -5.79379e-05 0)
(0 -0.000166608 0)
(0 -0.000107089 0)
(0 -8.0301e-05 0)
(0 -6.5793e-05 0)
(0 -4.56494e-05 0)
(0 -8.11585e-05 0)
(0 -8.90599e-06 0)
(0 -0.00217271 0)
(0 -0.00208392 0)
(0 -0.00220001 0)
(0 -0.00210987 0)
(0 -0.00222919 0)
(0 -0.0021386 0)
(0 -0.00226122 0)
(0 -0.00217099 0)
(0 -0.00229628 0)
(0 -0.00220736 0)
(0 -0.00233397 0)
(0 -0.00224725 0)
(0 -0.00237282 0)
(0 -0.00228846 0)
(0 -0.00241573 0)
(0 -0.00232925 0)
(0 -0.00245852 0)
(0 -0.00237297 0)
(0 -0.00250439 0)
(0 -0.00242432 0)
(0 -0.00256287 0)
(0 -0.00247951 0)
(0 -0.00262244 0)
(0 -0.00253989 0)
(0 -0.0026806 0)
(0 -0.00260554 0)
(0 -0.0027466 0)
(0 -0.00267442 0)
(0 -0.00282019 0)
(0 -0.00274704 0)
(0 -0.00289344 0)
(0 -0.00282358 0)
(0 -0.00296995 0)
(0 -0.00290383 0)
(0 -0.00305097 0)
(0 -0.00298833 0)
(0 -0.00313685 0)
(0 -0.00307794 0)
(0 -0.00322472 0)
(0 -0.00316701 0)
(0 -0.00331015 0)
(0 -0.00325651 0)
(0 -0.00340139 0)
(0 -0.00334677 0)
(0 -0.00349403 0)
(0 -0.00343748 0)
(0 -0.0035877 0)
(0 -0.0035343 0)
(0 -0.0036875 0)
(0 -0.00363461 0)
(0 -0.00378684 0)
(0 -0.00373469 0)
(0 -0.00388848 0)
(0 -0.00357723 0)
(0 -0.0036823 0)
(0 -0.00393638 0)
(0 -0.00403535 0)
(0 -0.00329877 0)
(0 -0.00276939 0)
(0 -0.00242318 0)
(0 -0.004086 0)
(0 -0.00418077 0)
(0 -0.00423452 0)
(0 -0.00432694 0)
(0 -0.00437815 0)
(0 -0.00446883 0)
(0 -0.00452232 0)
(0 -0.00461512 0)
(0 -0.00466795 0)
(0 -0.00475978 0)
(0 -0.0048045 0)
(0 -0.00489371 0)
(0 -0.00493298 0)
(0 -0.00502318 0)
(0 -0.00505669 0)
(0 -0.00514719 0)
(0 -0.00517179 0)
(0 -0.00525728 0)
(0 -0.00527527 0)
(0 -0.00535171 0)
(0 -0.00536418 0)
(0 -0.00543274 0)
(0 -0.0054237 0)
(0 -0.00550405 0)
(0 -0.00549523 0)
(0 -0.00557553 0)
(0 -0.00556396 0)
(0 -0.00564333 0)
(0 -0.00562817 0)
(0 -0.00570537 0)
(0 -0.0056918 0)
(0 -0.00576743 0)
(0 -0.00575379 0)
(0 -0.00582791 0)
(0 -0.00580985 0)
(0 -0.00587885 0)
(0 -0.0058564 0)
(0 -0.0059225 0)
(0 -0.00589725 0)
(0 -0.00596245 0)
(0 -0.00599531 0)
(0 -0.00601657 0)
(0 -0.00604626 0)
(0 -0.00606961 0)
(0 -0.00571148 0)
(0 -0.00608828 0)
(0 -0.00611119 0)
(0 -0.00614658 0)
(0 -0.00616278 0)
(0 -0.00618976 0)
(0 -0.00619669 0)
(0 -0.00620829 0)
(0 -0.0062141 0)
(0 -0.00621323 0)
(0 -0.0062239 0)
(0 -0.00622038 0)
(0 -0.00622027 0)
(0 -0.00620645 0)
(0 -0.00619749 0)
(0 -0.00617611 0)
(0 -0.00618046 0)
(0 -0.00615883 0)
(0 -0.00613249 0)
(0 -0.00613626 0)
(0 -0.00610849 0)
(0 -0.00607561 0)
(0 -0.00604384 0)
(0 -0.00600772 0)
(0 -0.0059698 0)
(0 -0.00529247 0)
(0 -0.00596576 0)
(0 -0.00592496 0)
(0 -0.00587823 0)
(0 -0.00586785 0)
(0 -0.0058241 0)
(0 -0.00576564 0)
(0 -0.00571615 0)
(0 -0.00565186 0)
(0 -0.00559366 0)
(0 -0.00558217 0)
(0 -0.00552445 0)
(0 -0.00546115 0)
(0 -0.00545267 0)
(0 -0.00539153 0)
(0 -0.00532393 0)
(0 -0.00531632 0)
(0 -0.00525148 0)
(0 -0.00284017 0)
(0 -0.00516993 0)
(0 -0.00509862 0)
(0 -0.00501322 0)
(0 -0.00493738 0)
(0 -0.00492506 0)
(0 -0.00485026 0)
(0 -0.00477255 0)
(0 -0.00476017 0)
(0 -0.00468495 0)
(0 -0.00459469 0)
(0 -0.00451845 0)
(0 -0.00442839 0)
(0 -0.00434803 0)
(0 -0.00433567 0)
(0 -0.00425643 0)
(0 -0.00417498 0)
(0 -0.0041631 0)
(0 -0.00408267 0)
(0 -0.00398889 0)
(0 -0.00246235 0)
(0 -0.00219878 0)
(0 -0.00537922 0)
(0 -0.00531131 0)
(0 -0.00539724 0)
(0 -0.00533059 0)
(0 -0.00541285 0)
(0 -0.00534599 0)
(0 -0.00543511 0)
(0 -0.00535716 0)
(0 -0.00542923 0)
(0 -0.00536448 0)
(0 -0.00542639 0)
(0 -0.00536261 0)
(0 -0.00541778 0)
(0 -0.00535272 0)
(0 -0.00540352 0)
(0 -0.0053372 0)
(0 -0.00537985 0)
(0 -0.00530866 0)
(0 -0.00534526 0)
(0 -0.00526714 0)
(0 -0.00529744 0)
(0 -0.00537697 0)
(0 -0.00531966 0)
(0 -0.00539862 0)
(0 -0.00533392 0)
(0 -0.00541076 0)
(0 -0.0052142 0)
(0 -0.00518311 0)
(0 -0.0053423 0)
(0 -0.00541761 0)
(0 -0.00512864 0)
(0 -0.00509786 0)
(0 -0.00534193 0)
(0 -0.00541359 0)
(0 -0.00504268 0)
(0 -0.00501077 0)
(0 -0.00531303 0)
(0 -0.00539943 0)
(0 -0.00495352 0)
(0 -0.00491668 0)
(0 -0.00486071 0)
(0 -0.00482128 0)
(0 -0.00530183 0)
(0 -0.00537693 0)
(0 -0.00476714 0)
(0 -0.00473033 0)
(0 -0.00526987 0)
(0 -0.00534482 0)
(0 -0.0046728 0)
(0 -0.00464156 0)
(0 -0.00520013 0)
(0 -0.00457838 0)
(0 -0.00455359 0)
(0 -0.00522503 0)
(0 -0.00530356 0)
(0 -0.00459715 0)
(0 -0.0044863 0)
(0 -0.00446743 0)
(0 -0.00517046 0)
(0 -0.00525133 0)
(0 -0.0043989 0)
(0 -0.00438307 0)
(0 -0.00510759 0)
(0 -0.00518686 0)
(0 -0.00431368 0)
(0 -0.00429805 0)
(0 -0.00578199 0)
(0 -0.00503566 0)
(0 -0.00511518 0)
(0 -0.00422581 0)
(0 -0.00421053 0)
(0 -0.00427057 0)
(0 -0.00418287 0)
(0 -0.00411996 0)
(0 -0.00409532 0)
(0 -0.00468768 0)
(0 -0.00495723 0)
(0 -0.00503787 0)
(0 -0.00402917 0)
(0 -0.00400559 0)
(0 -0.00406025 0)
(0 -0.00397423 0)
(0 -0.00391273 0)
(0 -0.00388634 0)
(0 -0.00381968 0)
(0 -0.00379746 0)
(0 -0.00487252 0)
(0 -0.00495248 0)
(0 -0.00511367 0)
(0 -0.00502792 0)
(0 -0.00485851 0)
(0 -0.0049334 0)
(0 -0.00495908 0)
(0 -0.00393793 0)
(0 -0.00204363 0)
(0 -0.00372741 0)
(0 -0.00371022 0)
(0 -0.00509887 0)
(0 -0.00500429 0)
(0 -0.00483373 0)
(0 -0.00490476 0)
(0 -0.0047289 0)
(0 -0.00480024 0)
(0 -0.00497153 0)
(0 -0.00486849 0)
(0 -0.00469141 0)
(0 -0.00475913 0)
(0 -0.00423151 0)
(0 -0.00493211 0)
(0 -0.00482296 0)
(0 -0.00464487 0)
(0 -0.00471054 0)
(0 -0.00452801 0)
(0 -0.00459503 0)
(0 -0.00477875 0)
(0 -0.0046614 0)
(0 -0.00447744 0)
(0 -0.0045393 0)
(0 -0.00471376 0)
(0 -0.00459475 0)
(0 -0.00441728 0)
(0 -0.00447505 0)
(0 -0.00363722 0)
(0 -0.00362416 0)
(0 -0.00364616 0)
(0 -0.00429127 0)
(0 -0.00434776 0)
(0 -0.00452251 0)
(0 -0.00439763 0)
(0 -0.00421994 0)
(0 -0.00427157 0)
(0 -0.0052868 0)
(0 -0.00539527 0)
(0 -0.00444088 0)
(0 -0.00431706 0)
(0 -0.00414547 0)
(0 -0.00419335 0)
(0 -0.00401879 0)
(0 -0.0040677 0)
(0 -0.00423123 0)
(0 -0.00410753 0)
(0 -0.00393962 0)
(0 -0.0039831 0)
(0 -0.00414667 0)
(0 -0.00402446 0)
(0 -0.00385294 0)
(0 -0.00389276 0)
(0 -0.00371759 0)
(0 -0.00375374 0)
(0 -0.00391421 0)
(0 -0.0037825 0)
(0 -0.00361889 0)
(0 -0.00365096 0)
(0 -0.00380768 0)
(0 -0.00367847 0)
(0 -0.00351979 0)
(0 -0.00354901 0)
(0 -0.00338948 0)
(0 -0.00341917 0)
(0 -0.00356933 0)
(0 -0.00344355 0)
(0 -0.00328987 0)
(0 -0.00331486 0)
(0 -0.00354998 0)
(0 -0.00353861 0)
(0 -0.003604 0)
(0 -0.00352074 0)
(0 -0.00357337 0)
(0 -0.00349461 0)
(0 -0.00343769 0)
(0 -0.00341638 0)
(0 -0.00335661 0)
(0 -0.00333854 0)
(0 -0.00346064 0)
(0 -0.00333465 0)
(0 -0.00318812 0)
(0 -0.00321012 0)
(0 -0.00306288 0)
(0 -0.00308542 0)
(0 -0.00322339 0)
(0 -0.0031009 0)
(0 -0.00296148 0)
(0 -0.00297917 0)
(0 -0.00312503 0)
(0 -0.00298998 0)
(0 -0.00285879 0)
(0 -0.00286688 0)
(0 -0.00298821 0)
(0 -0.00287092 0)
(0 -0.00274392 0)
(0 -0.00274993 0)
(0 -0.00287218 0)
(0 -0.00275199 0)
(0 -0.00286892 0)
(0 -0.00274941 0)
(0 -0.00286075 0)
(0 -0.0027423 0)
(0 -0.00263172 0)
(0 -0.0026256 0)
(0 -0.00273066 0)
(0 -0.00261471 0)
(0 -0.00251013 0)
(0 -0.00249968 0)
(0 -0.00259882 0)
(0 -0.00248419 0)
(0 -0.00257812 0)
(0 -0.00246363 0)
(0 -0.00255272 0)
(0 -0.00243866 0)
(0 -0.00252297 0)
(0 -0.00240944 0)
(0 -0.00232511 0)
(0 -0.00229688 0)
(0 -0.00237657 0)
(0 -0.00226511 0)
(0 -0.00234018 0)
(0 -0.0022302 0)
(0 -0.00230071 0)
(0 -0.0021917 0)
(0 -0.00225796 0)
(0 -0.00212203 0)
(0 -0.00214977 0)
(0 -0.00221165 0)
(0 -0.00210455 0)
(0 -0.00216211 0)
(0 -0.00205603 0)
(0 -0.00210965 0)
(0 -0.00200411 0)
(0 -0.00205385 0)
(0 -0.00239618 0)
(0 -0.00195071 0)
(0 -0.00194877 0)
(0 -0.00199467 0)
(0 -0.00188989 0)
(0 -0.00193225 0)
(0 -0.00471445 0)
(0 -0.00327582 0)
(0 -0.00325997 0)
(0 -0.00182763 0)
(0 -0.00186654 0)
(0 -0.003535 0)
(0 -0.00215938 0)
(0 -0.00319244 0)
(0 -0.00317596 0)
(0 -0.00457429 0)
(0 -0.0017622 0)
(0 -0.00179773 0)
(0 -0.00172332 0)
(0 -0.0019017 0)
(0 -0.00182974 0)
(0 -0.0019332 0)
(0 -0.00185825 0)
(0 -0.00236816 0)
(0 -0.00548325 0)
(0 -0.00310288 0)
(0 -0.00323463 0)
(0 -0.00310709 0)
(0 -0.00175529 0)
(0 -0.00178108 0)
(0 -0.00196084 0)
(0 -0.00263687 0)
(0 -0.00167855 0)
(0 -0.00170186 0)
(0 -0.00159965 0)
(0 -0.00162081 0)
(0 -0.0015186 0)
(0 -0.00153773 0)
(0 -0.00163913 0)
(0 -0.00155406 0)
(0 -0.00165418 0)
(0 -0.00549461 0)
(0 -0.00143544 0)
(0 -0.00141569 0)
(0 -0.00497619 0)
(0 -0.00495368 0)
(0 -0.00133246 0)
(0 -0.00131229 0)
(0 -0.00311476 0)
(0 -0.00589191 0)
(0 -0.00298097 0)
(0 -0.00262212 0)
(0 -0.00221315 0)
(0 -0.00560957 0)
(0 -0.00356096 0)
(0 -0.00296126 0)
(0 -0.00255401 0)
(0 -0.00228617 0)
(0 -0.00122909 0)
(0 -0.00120861 0)
(0 -0.00427644 0)
(0 -0.00112531 0)
(0 -0.00110448 0)
(0 -0.00527302 0)
(0 -0.00240266 0)
(0 -0.00183005 0)
(0 -0.0017308 0)
(0 -0.00523678 0)
(0 -0.00258807 0)
(0 -0.00267274 0)
(0 -0.00277179 0)
(0 -0.00275551 0)
(0 -0.0028556 0)
(0 -0.0028361 0)
(0 -0.00293747 0)
(0 -0.0029146 0)
(0 -0.00301681 0)
(0 -0.00299116 0)
(0 -0.00309334 0)
(0 -0.00306452 0)
(0 -0.00316808 0)
(0 -0.00313753 0)
(0 -0.00323923 0)
(0 -0.00320064 0)
(0 -0.00330408 0)
(0 -0.00325566 0)
(0 -0.00336306 0)
(0 -0.00330011 0)
(0 -0.00342213 0)
(0 -0.00337002 0)
(0 -0.00348213 0)
(0 -0.00342624 0)
(0 -0.00353829 0)
(0 -0.00118582 0)
(0 -0.00108143 0)
(0 -0.00116061 0)
(0 -0.00105622 0)
(0 -0.00113313 0)
(0 -0.0010288 0)
(0 -0.00110342 0)
(0 -0.000999554 0)
(0 -0.00107172 0)
(0 -0.000968654 0)
(0 -0.00103828 0)
(0 -0.000936307 0)
(0 -0.00100331 0)
(0 -0.000902667 0)
(0 -0.00096671 0)
(0 -0.000867792 0)
(0 -0.000928719 0)
(0 -0.00102727 0)
(0 -0.000986166 0)
(0 -0.000889469 0)
(0 -0.00094319 0)
(0 -0.00103976 0)
(0 -0.00099321 0)
(0 -0.000899001 0)
(0 -0.000944742 0)
(0 -0.00103884 0)
(0 -0.000986057 0)
(0 -0.000895266 0)
(0 -0.000932601 0)
(0 -0.00102331 0)
(0 -0.00096611 0)
(0 -0.000878097 0)
(0 -0.000906795 0)
(0 -0.000994568 0)
(0 -0.000930424 0)
(0 -0.00101684 0)
(0 -0.000846527 0)
(0 -0.000948698 0)
(0 -0.00103402 0)
(0 -0.000961942 0)
(0 -0.00104673 0)
(0 -0.000970539 0)
(0 -0.00105622 0)
(0 -0.000974472 0)
(0 -0.00106017 0)
(0 -0.000892406 0)
(0 -0.000973098 0)
(0 -0.00105769 0)
(0 -0.00110557 0)
(0 -0.000966624 0)
(0 -0.00105113 0)
(0 -0.00114915 0)
(0 -0.000955692 0)
(0 -0.00104015 0)
(0 -0.000874645 0)
(0 -0.000939951 0)
(0 -0.00102417 0)
(0 -0.00112783 0)
(0 -0.00111159 0)
(0 -0.00121841 0)
(0 -0.00120236 0)
(0 -0.00109055 0)
(0 -0.00118144 0)
(0 -0.00129641 0)
(0 -0.00127543 0)
(0 -0.00115497 0)
(0 -0.00124878 0)
(0 -0.0011225 0)
(0 -0.00121619 0)
(0 -0.00134589 0)
(0 -0.00131331 0)
(0 -0.00220212 0)
(0 -0.00234309 0)
(0 -0.00117784 0)
(0 -0.00127508 0)
(0 -0.00141371 0)
(0 -0.00137557 0)
(0 -0.00151716 0)
(0 -0.00147909 0)
(0 -0.00133154 0)
(0 -0.00143508 0)
(0 -0.00102096 0)
(0 -0.00104005 0)
(0 -0.0018714 0)
(0 -0.00177041 0)
(0 -0.00163332 0)
(0 -0.00167353 0)
(0 -0.00154059 0)
(0 -0.00158081 0)
(0 -0.00180659 0)
(0 -0.00145317 0)
(0 -0.00149408 0)
(0 -0.00289167 0)
(0 -0.00128155 0)
(0 -0.0013852 0)
(0 -0.00212987 0)
(0 -0.00227755 0)
(0 -0.000895908 0)
(0 -0.00347969 0)
(0 -0.00359259 0)
(0 -0.00313989 0)
(0 -0.0015417 0)
(0 -0.00149212 0)
(0 -0.00132936 0)
(0 -0.00143596 0)
(0 -0.00160166 0)
(0 -0.00154528 0)
(0 -0.00265413 0)
(0 -0.00171344 0)
(0 -0.00165735 0)
(0 -0.00148272 0)
(0 -0.00159473 0)
(0 -0.00177188 0)
(0 -0.0017093 0)
(0 -0.0015257 0)
(0 -0.00164057 0)
(0 -0.00182625 0)
(0 -0.0017579 0)
(0 -0.00156551 0)
(0 -0.00168309 0)
(0 -0.00187761 0)
(0 -0.00180335 0)
(0 -0.00200005 0)
(0 -0.00192699 0)
(0 -0.00172341 0)
(0 -0.0018478 0)
(0 -0.00205376 0)
(0 -0.00197456 0)
(0 -0.00176094 0)
(0 -0.00188719 0)
(0 -0.00210297 0)
(0 -0.00201598 0)
(0 -0.0022333 0)
(0 -0.00214752 0)
(0 -0.00192323 0)
(0 -0.00205519 0)
(0 -0.00228047 0)
(0 -0.00218782 0)
(0 -0.00195501 0)
(0 -0.00208754 0)
(0 -0.00232188 0)
(0 -0.00222331 0)
(0 -0.0024592 0)
(0 -0.0023636 0)
(0 -0.00212049 0)
(0 -0.00226231 0)
(0 -0.00250415 0)
(0 -0.00240283 0)
(0 -0.00215378 0)
(0 -0.0022951 0)
(0 -0.00254271 0)
(0 -0.00243491 0)
(0 -0.00217729 0)
(0 -0.00231769 0)
(0 -0.00257522 0)
(0 -0.00245969 0)
(0 -0.00271663 0)
(0 -0.00260344 0)
(0 -0.00233953 0)
(0 -0.00248518 0)
(0 -0.00274726 0)
(0 -0.00263057 0)
(0 -0.00236157 0)
(0 -0.00250951 0)
(0 -0.0027778 0)
(0 -0.00266034 0)
(0 -0.00292765 0)
(0 -0.00281372 0)
(0 -0.00253973 0)
(0 -0.00269511 0)
(0 -0.00296348 0)
(0 -0.00284559 0)
(0 -0.00256807 0)
(0 -0.00272105 0)
(0 -0.0029957 0)
(0 -0.00287374 0)
(0 -0.002585 0)
(0 -0.00273699 0)
(0 -0.00302481 0)
(0 -0.00288567 0)
(0 -0.00316995 0)
(0 -0.00303066 0)
(0 -0.00273924 0)
(0 -0.00288529 0)
(0 -0.0031735 0)
(0 -0.00302958 0)
(0 -0.00273431 0)
(0 -0.00287913 0)
(0 -0.00317165 0)
(0 -0.00302095 0)
(0 -0.00330758 0)
(0 -0.00315682 0)
(0 -0.00286573 0)
(0 -0.00300167 0)
(0 -0.00328521 0)
(0 -0.0031327 0)
(0 -0.00340897 0)
(0 -0.00326129 0)
(0 -0.00352984 0)
(0 -0.00338404 0)
(0 -0.00310908 0)
(0 -0.00323174 0)
(0 -0.0034952 0)
(0 -0.00334724 0)
(0 -0.00360036 0)
(0 -0.00345988 0)
(0 -0.00370379 0)
(0 -0.00356798 0)
(0 -0.00332187 0)
(0 -0.00343421 0)
(0 -0.00366882 0)
(0 -0.00353803 0)
(0 -0.00330277 0)
(0 -0.00340879 0)
(0 -0.00316975 0)
(0 -0.00327628 0)
(0 -0.00376183 0)
(0 -0.00303254 0)
(0 -0.00313888 0)
(0 -0.00337281 0)
(0 -0.00323821 0)
(0 -0.00299616 0)
(0 -0.00309747 0)
(0 -0.00291625 0)
(0 -0.00346279 0)
(0 -0.00295436 0)
(0 -0.00284822 0)
(0 -0.00294957 0)
(0 -0.00269468 0)
(0 -0.0027944 0)
(0 -0.0030375 0)
(0 -0.00288322 0)
(0 -0.00311301 0)
(0 -0.00296265 0)
(0 -0.00272991 0)
(0 -0.0028134 0)
(0 -0.00303574 0)
(0 -0.00289314 0)
(0 -0.00266624 0)
(0 -0.00275305 0)
(0 -0.0025849 0)
(0 -0.00252151 0)
(0 -0.002617 0)
(0 -0.0031059 0)
(0 -0.00271004 0)
(0 -0.00512092 0)
(0 -0.000803102 0)
(0 -0.00205126 0)
(0 -0.00220635 0)
(0 -0.0038388 0)
(0 -0.00547105 0)
(0 -0.00353107 0)
(0 -0.00364315 0)
(0 -0.00238209 0)
(0 -0.00357706 0)
(0 -0.00369088 0)
(0 -0.00375217 0)
(0 -0.00380483 0)
(0 -0.00373317 0)
(0 -0.00384905 0)
(0 -0.00392104 0)
(0 -0.00396427 0)
(0 -0.00388527 0)
(0 -0.00400087 0)
(0 -0.00407819 0)
(0 -0.00411521 0)
(0 -0.00419071 0)
(0 -0.0042291 0)
(0 -0.0041482 0)
(0 -0.00426361 0)
(0 -0.00434276 0)
(0 -0.00437837 0)
(0 -0.00429407 0)
(0 -0.00440978 0)
(0 -0.00449141 0)
(0 -0.00452322 0)
(0 -0.00460176 0)
(0 -0.00463491 0)
(0 -0.00455105 0)
(0 -0.00466354 0)
(0 -0.00474397 0)
(0 -0.00477347 0)
(0 -0.00468717 0)
(0 -0.00479771 0)
(0 -0.00488096 0)
(0 -0.00490563 0)
(0 -0.00481616 0)
(0 -0.00492472 0)
(0 -0.00501071 0)
(0 -0.00503072 0)
(0 -0.00511411 0)
(0 -0.00513539 0)
(0 -0.00504561 0)
(0 -0.00515076 0)
(0 -0.00523728 0)
(0 -0.00525236 0)
(0 -0.00533478 0)
(0 -0.00534993 0)
(0 -0.00526286 0)
(0 -0.00535971 0)
(0 -0.00544265 0)
(0 -0.00545164 0)
(0 -0.00536408 0)
(0 -0.00545593 0)
(0 -0.00553876 0)
(0 -0.00554364 0)
(0 -0.00545566 0)
(0 -0.00554395 0)
(0 -0.00562735 0)
(0 -0.00562816 0)
(0 -0.0057084 0)
(0 -0.0057105 0)
(0 -0.00562549 0)
(0 -0.00570946 0)
(0 -0.00578944 0)
(0 -0.00578978 0)
(0 -0.0057059 0)
(0 -0.00578744 0)
(0 -0.00586536 0)
(0 -0.00586234 0)
(0 -0.0059325 0)
(0 -0.00592909 0)
(0 -0.00585329 0)
(0 -0.00592092 0)
(0 -0.0059982 0)
(0 -0.00598047 0)
(0 -0.00590563 0)
(0 -0.00596186 0)
(0 -0.00602728 0)
(0 -0.00600639 0)
(0 -0.00606291 0)
(0 -0.00603894 0)
(0 -0.00597945 0)
(0 -0.00600936 0)
(0 -0.00606224 0)
(0 -0.00602914 0)
(0 -0.0060754 0)
(0 -0.00604017 0)
(0 -0.00594753 0)
(0 -0.0060819 0)
(0 -0.00604533 0)
(0 -0.00600009 0)
(0 -0.00600437 0)
(0 -0.00604449 0)
(0 -0.00600295 0)
(0 -0.00596148 0)
(0 -0.00595859 0)
(0 -0.00599378 0)
(0 -0.00594678 0)
(0 -0.00137142 0)
(0 -0.00141562 0)
(0 -0.0013297 0)
(0 -0.00153778 0)
(0 -0.00146069 0)
(0 -0.00158598 0)
(0 -0.00150904 0)
(0 -0.00138667 0)
(0 -0.00143525 0)
(0 -0.00130774 0)
(0 -0.00136971 0)
(0 -0.00149198 0)
(0 -0.00142616 0)
(0 -0.00131086 0)
(0 -0.00136252 0)
(0 -0.00125421 0)
(0 -0.00130122 0)
(0 -0.00119815 0)
(0 -0.00124877 0)
(0 -0.00131352 0)
(0 -0.000934857 0)
(0 -0.000952666 0)
(0 -0.0054707 0)
(0 -0.00611307 0)
(0 -0.00242029 0)
(0 -0.00295537 0)
(0 -0.00242633 0)
(0 -0.00341424 0)
(0 -0.00591815 0)
(0 -0.00155912 0)
(0 -0.00227887 0)
(0 -0.00366747 0)
(0 -0.0023559 0)
(0 -0.00256017 0)
(0 -0.00214917 0)
(0 -0.00597686 0)
(0 -0.00592721 0)
(0 -0.00360915 0)
(0 -0.00355811 0)
(0 -0.00362666 0)
(0 -0.00356632 0)
(0 -0.00362658 0)
(0 -0.00355956 0)
(0 -0.00361518 0)
(0 -0.00354049 0)
(0 -0.00358896 0)
(0 -0.00350843 0)
(0 -0.00355219 0)
(0 -0.00346432 0)
(0 -0.00346525 0)
(0 -0.00351125 0)
(0 -0.00341615 0)
(0 -0.00346344 0)
(0 -0.00356295 0)
(0 -0.00351623 0)
(0 -0.00361845 0)
(0 -0.00357159 0)
(0 -0.00367395 0)
(0 -0.00362805 0)
(0 -0.00373134 0)
(0 -0.00368876 0)
(0 -0.003791 0)
(0 -0.00374795 0)
(0 -0.00385153 0)
(0 -0.00380834 0)
(0 -0.00391349 0)
(0 -0.00386698 0)
(0 -0.00397378 0)
(0 -0.00392228 0)
(0 -0.00403245 0)
(0 -0.00398349 0)
(0 -0.00409376 0)
(0 -0.00404698 0)
(0 -0.00415759 0)
(0 -0.00411189 0)
(0 -0.00422337 0)
(0 -0.00417814 0)
(0 -0.00429013 0)
(0 -0.00424475 0)
(0 -0.00340985 0)
(0 -0.00357793 0)
(0 -0.00380186 0)
(0 -0.00435979 0)
(0 -0.00431365 0)
(0 -0.00399309 0)
(0 -0.00417618 0)
(0 -0.00426334 0)
(0 -0.00413292 0)
(0 -0.00443055 0)
(0 -0.00396067 0)
(0 -0.00414054 0)
(0 -0.00421406 0)
(0 -0.00446871 0)
(0 -0.00454217 0)
(0 -0.00408665 0)
(0 -0.00416066 0)
(0 -0.00429163 0)
(0 -0.00457378 0)
(0 -0.00464963 0)
(0 -0.00423898 0)
(0 -0.00437222 0)
(0 -0.00377421 0)
(0 -0.00340236 0)
(0 -0.00230732 0)
(0 -0.00350315 0)
(0 -0.00527965 0)
(0 -0.00410369 0)
(0 -0.00418289 0)
(0 -0.00114725 0)
(0 -0.000846484 0)
(0 -0.000863294 0)
(0 -0.000828667 0)
(0 -0.00203616 0)
(0 -0.00125224 0)
(0 -0.00121254 0)
(0 -0.00189322 0)
(0 -0.00414222 0)
(0 -0.00213526 0)
(0 -0.00367091 0)
(0 -0.00114093 0)
(0 -0.00595326 0)
(0 -0.00600342 0)
(0 -0.00590038 0)
(0 -0.00587525 0)
(0 -0.0035848 0)
(0 -0.00467244 0)
(0 -0.00459837 0)
(0 -0.00475012 0)
(0 -0.00472855 0)
(0 -0.00250221 0)
(0 -0.00270015 0)
(0 -0.00214143 0)
(0 -0.00584622 0)
(0 -0.0058208 0)
(0 -0.00202159 0)
(0 -0.000755928 0)
(0 -0.000771792 0)
(0 -0.00319709 0)
(0 -0.00401945 0)
(0 -0.00404401 0)
(0 -0.00224243 0)
(0 -0.00198867 0)
(0 -0.00201199 0)
(0 -0.00113887 0)
(0 -0.00110732 0)
(0 -0.00165805 0)
(0 -0.00161923 0)
(0 -0.00412625 0)
(0 -0.00482904 0)
(0 -0.00480825 0)
(0 -0.00468923 0)
(0 -0.0046152 0)
(0 -0.00496937 0)
(0 -0.00264699 0)
(0 -0.0028377 0)
(0 -0.00288581 0)
(0 -0.00281558 0)
(0 -0.00291544 0)
(0 -0.00284943 0)
(0 -0.00295123 0)
(0 -0.00288448 0)
(0 -0.00298917 0)
(0 -0.00292138 0)
(0 -0.00303003 0)
(0 -0.00296063 0)
(0 -0.00284771 0)
(0 -0.00288569 0)
(0 -0.00300187 0)
(0 -0.00292665 0)
(0 -0.00304408 0)
(0 -0.00296993 0)
(0 -0.00308939 0)
(0 -0.00301494 0)
(0 -0.00313738 0)
(0 -0.00306121 0)
(0 -0.0031821 0)
(0 -0.00311031 0)
(0 -0.00323198 0)
(0 -0.00316268 0)
(0 -0.00328355 0)
(0 -0.00321472 0)
(0 -0.00333504 0)
(0 -0.00326646 0)
(0 -0.00339223 0)
(0 -0.00332122 0)
(0 -0.00592186 0)
(0 -0.00206296 0)
(0 -0.00213885 0)
(0 -0.000663076 0)
(0 -0.000678041 0)
(0 -0.00345299 0)
(0 -0.0033828 0)
(0 -0.00117617 0)
(0 -0.0010739 0)
(0 -0.00287882 0)
(0 -0.0030075 0)
(0 -0.00296933 0)
(0 -0.00208906 0)
(0 -0.0018335 0)
(0 -0.0032604 0)
(0 -0.00284628 0)
(0 -0.00104235 0)
(0 -0.00106639 0)
(0 -0.00579007 0)
(0 -0.00576539 0)
(0 -0.0057904 0)
(0 -0.00253953 0)
(0 -0.00274336 0)
(0 -0.00337493 0)
(0 -0.0044403 0)
(0 -0.00183672 0)
(0 -0.00340212 0)
(0 -0.00199052 0)
(0 -0.00469896 0)
(0 -0.00462384 0)
(0 -0.00396524 0)
(0 -0.00390343 0)
(0 -0.00382943 0)
(0 -0.00580789 0)
(0 -0.00324249 0)
(0 -0.00330169 0)
(0 -0.00343024 0)
(0 -0.00347766 0)
(0 -0.00335483 0)
(0 -0.00359591 0)
(0 -0.00351846 0)
(0 -0.00340084 0)
(0 -0.00355277 0)
(0 -0.00343828 0)
(0 -0.00216503 0)
(0 -0.00224164 0)
(0 -0.00208616 0)
(0 -0.00611461 0)
(0 -0.00614302 0)
(0 -0.00613992 0)
(0 -0.00616586 0)
(0 -0.00616767 0)
(0 -0.00615786 0)
(0 -0.00393395 0)
(0 -0.00406369 0)
(0 -0.00415011 0)
(0 -0.00427523 0)
(0 -0.00435177 0)
(0 -0.00447569 0)
(0 -0.00453779 0)
(0 -0.00439506 0)
(0 -0.00441516 0)
(0 -0.00458847 0)
(0 -0.00446768 0)
(0 -0.00462915 0)
(0 -0.00451212 0)
(0 -0.00466295 0)
(0 -0.00454992 0)
(0 -0.00439802 0)
(0 -0.00443905 0)
(0 -0.00428487 0)
(0 -0.00432797 0)
(0 -0.00447341 0)
(0 -0.00436444 0)
(0 -0.00421488 0)
(0 -0.00425444 0)
(0 -0.00410463 0)
(0 -0.00414396 0)
(0 -0.0039967 0)
(0 -0.0056998 0)
(0 -0.00211691 0)
(0 -0.0054518 0)
(0 -0.00228189 0)
(0 -0.00244056 0)
(0 -0.00345186 0)
(0 -0.00505619 0)
(0 -0.00366498 0)
(0 -0.00330077 0)
(0 -0.00343854 0)
(0 -0.00355997 0)
(0 -0.00369037 0)
(0 -0.0038 0)
(0 -0.00392775 0)
(0 -0.00303785 0)
(0 -0.00223336 0)
(0 -0.00588593 0)
(0 -0.00423077 0)
(0 -0.00282445 0)
(0 -0.00432026 0)
(0 -0.00318519 0)
(0 -0.00328773 0)
(0 -0.00343125 0)
(0 -0.00205273 0)
(0 -0.00608059 0)
(0 -0.00391662 0)
(0 -0.00163948 0)
(0 -0.00171821 0)
(0 -0.00177605 0)
(0 -0.00185535 0)
(0 -0.00296434 0)
(0 -0.00306166 0)
(0 -0.00319929 0)
(0 -0.00570154 0)
(0 -0.0057793 0)
(0 -0.00576784 0)
(0 -0.0058415 0)
(0 -0.00582633 0)
(0 -0.00589472 0)
(0 -0.00590948 0)
(0 -0.00595735 0)
(0 -0.00597194 0)
(0 -0.00254878 0)
(0 -0.00268684 0)
(0 -0.00276722 0)
(0 -0.00290444 0)
(0 -0.00184738 0)
(0 -0.005087 0)
(0 -0.00518837 0)
(0 -0.00515525 0)
(0 -0.00525445 0)
(0 -0.00521636 0)
(0 -0.00531186 0)
(0 -0.00456451 0)
(0 -0.00467136 0)
(0 -0.00462911 0)
(0 -0.00473325 0)
(0 -0.0046856 0)
(0 -0.00414761 0)
(0 -0.00425833 0)
(0 -0.00420738 0)
(0 -0.0043202 0)
(0 -0.00231224 0)
(0 -0.00244301 0)
(0 -0.00251234 0)
(0 -0.00264072 0)
(0 -0.00206694 0)
(0 -0.00259812 0)
(0 -0.00176344 0)
(0 -0.00113573 0)
(0 -0.00166676 0)
(0 -0.00219122 0)
(0 -0.00225062 0)
(0 -0.00237611 0)
(0 -0.00187706 0)
(0 -0.00192034 0)
(0 -0.00203584 0)
(0 -0.00207201 0)
(0 -0.00482973 0)
(0 -0.000919132 0)
(0 -0.00154906 0)
(0 -0.00165472 0)
(0 -0.00168015 0)
(0 -0.00178788 0)
(0 -0.00180703 0)
(0 -0.00191769 0)
(0 -0.00193152 0)
(0 -0.00182097 0)
(0 -0.00193853 0)
(0 -0.00182983 0)
(0 -0.00194103 0)
(0 -0.00183337 0)
(0 -0.00148405 0)
(0 -0.00328052 0)
(0 -0.00126695 0)
(0 -0.00226938 0)
(0 -0.00269295 0)
(0 -0.00245193 0)
(0 -0.00257798 0)
(0 -0.00126481 0)
(0 -0.00113396 0)
(0 -0.00328377 0)
(0 -0.00369338 0)
(0 -0.00296648 0)
(0 -0.00308711 0)
(0 -0.00306603 0)
(0 -0.000770141 0)
(0 -0.000704555 0)
(0 -0.000673617 0)
(0 -0.000606839 0)
(0 -0.000577924 0)
(0 -0.000635076 0)
(0 -0.000536019 0)
(0 -0.00056169 0)
(0 -0.00544443 0)
(0 -0.00346256 0)
(0 -0.00526272 0)
(0 -0.000879634 0)
(0 -0.00303071 0)
(0 -0.00116369 0)
(0 -0.00109516 0)
(0 -0.000995383 0)
(0 -0.000921133 0)
(0 -0.000641783 0)
(0 -0.000548265 0)
(0 -0.000609033 0)
(0 -0.000517945 0)
(0 -0.000575533 0)
(0 -0.000487217 0)
(0 -0.00054147 0)
(0 -0.00045613 0)
(0 -0.000506985 0)
(0 -0.000424858 0)
(0 -0.000472192 0)
(0 -0.00039351 0)
(0 -0.000437212 0)
(0 -0.000362184 0)
(0 -0.000402119 0)
(0 -0.000475622 0)
(0 -0.00043669 0)
(0 -0.000367068 0)
(0 -0.00039766 0)
(0 -0.000332124 0)
(0 -0.000358607 0)
(0 -0.000422723 0)
(0 -0.000379473 0)
(0 -0.000442323 0)
(0 -0.000394822 0)
(0 -0.000336332 0)
(0 -0.000347404 0)
(0 -0.000404596 0)
(0 -0.000293466 0)
(0 -0.000352894 0)
(0 -0.000408837 0)
(0 -0.000352804 0)
(0 -0.000407582 0)
(0 -0.00034719 0)
(0 -0.00040085 0)
(0 -0.000296997 0)
(0 -0.000465675 0)
(0 -0.00045786 0)
(0 -0.000388632 0)
(0 -0.000444561 0)
(0 -0.000370918 0)
(0 -0.000425851 0)
(0 -0.00050405 0)
(0 -0.000484452 0)
(0 -0.000401861 0)
(0 -0.00045994 0)
(0 -0.000464959 0)
(0 -0.000489627 0)
(0 -0.000527148 0)
(0 -0.000297347 0)
(0 -0.00240138 0)
(0 -0.00103214 0)
(0 -0.000647323 0)
(0 -0.00099396 0)
(0 -0.000907561 0)
(0 -0.000863899 0)
(0 -0.000781683 0)
(0 -0.000732895 0)
(0 -0.000654521 0)
(0 -0.00379994 0)
(0 -0.00382565 0)
(0 -0.00370782 0)
(0 -0.00372739 0)
(0 -0.0036087 0)
(0 -0.00384621 0)
(0 -0.00374232 0)
(0 -0.0038622 0)
(0 -0.000951496 0)
(0 -0.00184407 0)
(0 -0.00261095 0)
(0 -0.00136895 0)
(0 -0.00128092 0)
(0 -0.00116848 0)
(0 -0.00107429 0)
(0 -0.00204299 0)
(0 -0.000552849 0)
(0 -0.00441279 0)
(0 -0.000838495 0)
(0 -0.00154319 0)
(0 -0.00144215 0)
(0 -0.00331315 0)
(0 -0.00171658 0)
(0 -0.00160225 0)
(0 -0.00147301 0)
(0 -0.00135305 0)
(0 -0.00471879 0)
(0 -0.00472709 0)
(0 -0.00461331 0)
(0 -0.00461582 0)
(0 -0.00449963 0)
(0 -0.00422896 0)
(0 -0.00148316 0)
(0 -0.00499593 0)
(0 -0.00382638 0)
(0 -0.00535924 0)
(0 -0.00535059 0)
(0 -0.00525364 0)
(0 -0.0052396 0)
(0 -0.00513937 0)
(0 -0.00512016 0)
(0 -0.00522204 0)
(0 -0.00511841 0)
(0 -0.00517401 0)
(0 -0.00191251 0)
(0 -0.00178151 0)
(0 -0.00164139 0)
(0 -0.00150412 0)
(0 -0.00312539 0)
(0 -0.00563615 0)
(0 -0.00208369 0)
(0 -0.00194863 0)
(0 -0.0058228 0)
(0 -0.00580152 0)
(0 -0.0057327 0)
(0 -0.00570782 0)
(0 -0.00563551 0)
(0 -0.00560572 0)
(0 -0.00567721 0)
(0 -0.00445976 0)
(0 -0.00431703 0)
(0 -0.000812806 0)
(0 -0.00122532 0)
(0 -0.00124757 0)
(0 -0.00619858 0)
(0 -0.00228772 0)
(0 -0.00213627 0)
(0 -0.00198306 0)
(0 -0.00182414 0)
(0 -0.00167114 0)
(0 -0.00358969 0)
(0 -0.00575271 0)
(0 -0.00313993 0)
(0 -0.00140263 0)
(0 -0.00243124 0)
(0 -0.00226848 0)
(0 -0.00447908 0)
(0 -0.00120743 0)
(0 -0.000969004 0)
(0 -0.00617638 0)
(0 -0.0061923 0)
(0 -0.00580773 0)
(0 -0.00573432 0)
(0 -0.00426573 0)
(0 -0.00421193 0)
(0 -0.00435256 0)
(0 -0.00591501 0)
(0 -0.00587125 0)
(0 -0.00586208 0)
(0 -0.00581681 0)
(0 -0.00580171 0)
(0 -0.00297188 0)
(0 -0.00573495 0)
(0 -0.00132152 0)
(0 -0.00121354 0)
(0 -0.00102042 0)
(0 -0.0049925 0)
(0 -0.00449785 0)
(0 -0.00478891 0)
(0 -0.00191551 0)
(0 -0.00199576 0)
(0 -0.00469703 0)
(0 -0.00460952 0)
(0 -0.00451071 0)
(0 -0.0050959 0)
(0 -0.00547998 0)
(0 -0.00547098 0)
(0 -0.00028713 0)
(0 -0.000241678 0)
(0 -0.00180245 0)
(0 -0.00163365 0)
(0 -0.00152969 0)
(0 -0.00515459 0)
(0 -0.00179852 0)
(0 -0.00165731 0)
(0 -0.00150808 0)
(0 -0.00303536 0)
(0 -0.00183074 0)
(0 -0.000735847 0)
(0 -0.000705309 0)
(0 -0.00616585 0)
(0 -0.0061782 0)
(0 -0.00620342 0)
(0 -0.00252762 0)
(0 -0.00400041 0)
(0 -0.00211868 0)
(0 -0.00194952 0)
(0 -0.00179875 0)
(0 -0.00525602 0)
(0 -0.0048438 0)
(0 -0.00173393 0)
(0 -0.00311768 0)
(0 -0.00295905 0)
(0 -0.00557611 0)
(0 -0.00575503 0)
(0 -0.00169764 0)
(0 -0.00187996 0)
(0 -0.0031115 0)
(0 -0.00479022 0)
(0 -0.00335454 0)
(0 -0.0043385 0)
(0 -0.00440483 0)
(0 -0.00409886 0)
(0 -0.000632535 0)
(0 -0.000596751 0)
(0 -0.000528713 0)
(0 -0.00426199 0)
(0 -0.000825276 0)
(0 -0.00089891 0)
(0 -0.00303552 0)
(0 -0.0036747 0)
(0 -0.00396412 0)
(0 -0.0038342 0)
(0 -0.00235001 0)
(0 -0.00618931 0)
(0 -0.00300868 0)
(0 -0.00109635 0)
(0 -0.00136431 0)
(0 -0.00490997 0)
(0 -0.00489018 0)
(0 -0.00276815 0)
(0 -0.000487579 0)
(0 -0.00449815 0)
(0 -0.00461359 0)
(0 -0.0044174 0)
(0 -0.00452607 0)