/*--------------------------------*- C++ -*----------------------------------*\
| =========                 |                                                 |
| \\      /  F ield         | OpenFOAM: The Open Source CFD Toolbox           |
|  \\    /   O peration     | Version:  v2012                                 |
|   \\  /    A nd           | Website:  www.openfoam.com                      |
|    \\/     M anipulation  |                                                 |
\*---------------------------------------------------------------------------*/
FoamFile
{
    version     2.0;
    format      ascii;
    class       volScalarField;
    location    "200";
    object      k_0;
}
// * * * * * * * * * * * * * * * * * * * * * * * * * * * * * * * * * * * * * //

dimensions      [0 2 -2 0 0 0 0];


internalField   nonuniform List<scalar> 
10042
(
0.000147279
0.000148186
0.000147717
0.0001578
0.07547
0.000148338
0.0822907
0.00181589
0.000146887
0.000147891
0.0306387
0.00015761
0.000144544
0.000144279
0.000151157
0.000148056
0.000147995
0.000149697
0.0001473
0.000170331
0.000147136
0.000220339
0.000145339
0.000145194
0.000148238
0.000158885
0.000148784
0.000149816
0.000146939
0.000149116
0.000147988
0.00712295
0.000147968
0.000148814
0.000155039
0.000145282
0.000157937
0.000163441
0.000145285
0.000157075
0.000171365
0.000150598
0.0836039
0.000148074
0.0749439
0.000177328
0.000149044
0.000191812
0.000156705
0.00017643
0.000149028
0.000149587
0.000150624
0.000151316
0.000157955
0.000148285
0.000146955
0.00014896
0.000148778
0.000150315
0.000148154
0.000147854
0.000155235
0.000147622
0.000148844
0.0001488
0.000148255
0.000165157
0.0603692
0.000147501
0.000151203
0.000172636
0.000148098
0.000157047
0.000148158
0.000145185
0.0810187
0.000147351
0.000156267
0.0851666
0.000156001
0.0609988
0.000148001
0.000149986
0.00014827
0.000149373
0.000147194
0.000181228
0.000147829
0.000147181
0.000148574
0.0568346
0.000149963
0.000149334
0.000149014
0.000147399
0.000147375
0.000147348
0.000156445
0.000146997
0.000149933
0.000176662
0.00724121
0.00014929
0.00014958
0.000164297
0.000147333
0.000147335
0.000147194
0.000144252
0.000145846
0.000147038
0.000154089
0.0536984
0.000148813
0.000147064
0.000147535
0.000147326
0.000147359
0.0373494
0.000147788
0.00111641
0.000148173
0.000147757
0.000176716
0.000148005
0.000970654
0.000157157
0.000163996
0.000147148
0.000156719
0.000148132
0.037314
0.000200834
0.000146995
0.000167582
0.0251995
0.000148618
0.000192539
0.000183162
0.00014983
0.000147523
0.000149339
0.000185345
0.000148146
0.000147028
0.000168535
0.000145254
0.000147426
0.000153387
0.000147093
0.000149676
0.0685589
0.0397599
0.000149169
0.000144501
0.000149606
0.000147797
0.000167515
0.01502
0.0268599
0.000188008
0.000147759
0.000147063
0.000148216
0.000148062
0.00016464
0.0169173
0.0066708
0.0445176
0.000150294
0.000146773
0.0358157
0.000172934
0.00015955
0.0825712
0.0280192
0.000148128
0.000166427
0.0001591
0.000149869
0.0104785
0.000148451
0.000156978
0.0001504
0.0398288
0.000205068
0.000148241
0.0328335
0.000152099
0.000304145
0.00014936
0.0686373
0.00876918
0.0001853
0.00267581
0.000154671
0.000147375
0.000144527
0.000151076
0.00015903
0.000148324
0.000147008
0.000173339
0.000148386
0.00014589
0.000358814
0.000148962
0.000149711
0.000149583
0.000313965
0.000148129
0.000163842
0.000186505
0.000149552
0.000205998
0.000147938
0.000147749
0.000171424
0.000146395
0.000154247
0.000149846
0.000195821
0.000164369
0.000153197
0.000159885
0.000191732
0.000147045
0.000192424
0.000151758
0.000146917
0.000171454
0.000146822
0.000151701
0.000147862
0.000153645
0.00014609
0.000144246
0.00015133
0.000156827
0.000147809
0.000148205
0.00014807
0.000154146
0.000147029
0.000148043
0.000145262
0.00014973
0.000150753
0.000149772
0.00014455
0.000147428
0.000152095
0.000204907
0.00018808
0.0262309
0.00015971
0.000159502
0.000151369
0.000179255
0.0690308
0.000150887
0.000147344
0.000144407
0.000150967
0.000146057
0.000196152
0.000151842
0.000147171
0.000149638
0.000159583
0.000150886
0.000184913
0.000159606
0.000186206
0.000152192
0.000156784
0.000146042
0.000154702
0.000148245
0.000159714
0.000147638
0.000158907
0.0420566
0.000145879
0.00014741
0.0679824
0.000177434
0.0001481
0.000148147
0.000151806
0.0834096
0.000171459
0.000186398
0.000149136
0.000144506
0.000147068
0.000146978
0.000189552
0.000147335
0.000148111
0.000146789
0.00014794
0.00016465
0.000151448
0.000169389
0.0929108
0.000150018
0.0449038
0.000146985
0.000154383
0.000148723
0.0159238
0.000177394
0.000114077
0.0235185
0.000145094
0.000151902
0.000147533
0.000151708
0.000159895
0.000149575
0.000159387
0.000145796
0.000144516
0.00014816
0.000170486
0.000149883
0.000151581
0.000147974
0.000151244
0.0400781
0.00014702
0.0001491
0.000147737
0.000147484
0.000163222
0.00018567
0.000159471
0.00184071
0.000164894
0.000156061
0.000148045
0.000144143
0.000148866
0.000149766
0.000161021
0.000147653
0.00014882
0.000200439
0.000147035
0.000152524
0.000150189
0.000200917
0.000147874
0.000152981
0.000163365
0.00015914
0.000151007
0.000147421
0.00935429
0.000168796
0.000149265
0.000162944
0.00014746
0.000146838
0.000147444
0.00015252
0.000305476
0.000154105
0.00014963
0.000149932
0.000149943
0.000149787
0.000170328
0.0001474
0.000145548
0.0285182
0.000146703
0.0277144
7.45505e-05
0.000157346
0.0864493
0.0229074
0.000155524
0.000171832
0.000148974
0.000177018
0.000149937
0.000148817
0.00021747
0.000148301
0.000152057
0.000768215
0.000148962
0.000147148
0.000161838
0.00027334
0.000148638
0.000145167
0.00776315
0.000177355
0.00014676
0.000165164
0.00620993
0.000146395
0.000149738
0.00014556
0.000147082
0.000144292
0.000145794
0.0245312
0.0105681
0.00014891
0.0833308
0.000144302
0.00014731
0.000233891
0.000148416
0.0277061
0.000172791
0.00015
0.000145366
0.000145059
0.000174702
0.000150571
0.000155618
0.000149113
0.0342406
0.00014932
0.00159435
0.000150839
0.000147364
0.000147082
0.000225542
0.000147475
0.000153363
0.000147334
0.000147766
0.0120023
0.000154734
0.000147478
0.000146371
0.0113531
0.000147112
0.000155075
0.000150898
0.000146078
0.0683537
0.0860427
0.000147005
0.000148655
0.000154356
0.00014454
0.00014789
0.000147696
0.0152263
0.000147836
0.000146815
0.000155776
0.0039149
0.000170161
0.00014977
0.000158837
0.0085715
0.000166354
0.000147544
0.000147446
0.000200899
0.000149037
0.000147409
0.000155844
0.00014714
0.000145791
0.000150103
0.000144857
0.000159927
0.000147329
0.000147506
0.0249234
0.000146174
0.000150092
0.000148315
0.000148959
0.000159483
0.000147033
0.000147363
0.000117928
0.000149384
0.0857845
0.000150783
0.000149868
0.000149831
0.000179614
0.000147571
0.000147515
0.000147916
0.000149549
0.000155101
0.083659
0.000147136
0.000159865
0.0003751
0.000166243
0.000149716
0.000147607
0.000148592
0.000149297
0.000147014
0.0334027
0.0213713
0.000148371
0.000157202
0.000159418
0.000158816
0.00014819
0.000145477
0.000173285
0.000174255
0.000314917
0.000145286
0.000148768
0.000148253
0.000146739
0.0628571
0.000160769
0.000149551
0.000147278
0.000146797
0.000148062
8.59391e-05
0.000154779
0.000148837
0.0111867
0.000229089
0.000191066
0.000164794
0.000147944
0.00014703
0.000181441
0.000167404
0.0502868
0.0246396
0.000152493
0.000153616
0.000149349
0.000151481
0.000148662
0.000149272
0.0286639
0.000145198
0.000146986
0.000176867
0.000149348
0.000180304
0.000150406
0.000194534
0.000156714
0.000149597
0.000151513
0.000155111
0.00016965
0.000164861
0.000167742
0.000149871
0.000176474
0.000150233
0.000147381
0.000148685
0.000148941
0.000148092
0.000152757
0.000170248
0.000160023
0.00014886
0.000149541
0.000147885
0.000147431
0.00017089
0.000147321
0.000150824
0.000214874
0.000144863
0.000167478
0.000190611
0.000148126
0.0356782
0.000168131
0.000149345
0.000207366
0.00014812
0.000149771
0.000147933
0.000147729
0.000149944
0.000152136
0.000148092
0.000214624
0.000149811
0.000147632
0.000148625
0.000159691
0.000162227
0.000147729
0.000153528
0.000147027
0.000162687
0.000147767
0.000156795
0.000145628
0.000150244
0.000144983
0.000147348
0.0923317
0.000145603
0.00016956
0.000147668
0.000150508
0.00014605
0.000162575
0.000148376
0.000168879
0.000148074
0.00020207
0.000149724
0.0763433
0.000145232
0.000151015
0.000149792
0.000148015
0.000147539
0.00015205
0.000148088
0.000169978
0.0117124
0.000179068
0.00015253
0.000159258
0.000146972
0.000160228
0.000177349
0.000147913
0.00015563
0.000168043
0.0529951
0.000191125
0.00272571
0.000155932
0.000148434
0.0001495
0.000154243
0.000152172
0.000167146
0.000145108
0.000151059
0.00018551
0.000149742
0.000147431
0.000154087
0.083877
0.000150802
0.000158242
0.000181346
0.000149646
0.0851341
0.000145238
0.000146718
0.000149158
0.00014718
0.0182743
0.000181174
0.0757002
0.000148231
0.000584068
0.0313936
0.000124941
0.000166839
0.000179827
0.000192411
0.00016124
0.00014797
0.000147372
0.000156249
0.0171303
0.000146935
0.000156221
0.0851308
0.000147326
0.000147185
0.000147445
0.000150137
0.000147483
0.000148109
0.000178843
0.0132523
0.000147979
0.000147824
0.0356761
0.0643186
0.00014701
0.000147553
0.000148944
0.000147101
0.000237568
0.000181203
0.000182963
0.000149604
0.000147148
0.000146998
0.000149918
0.000148216
0.000162407
0.000149632
0.0945344
0.000147876
0.000148371
0.0001621
0.000146875
0.000164522
0.000164718
0.000151083
0.00545184
0.0659691
0.000148464
0.000147012
0.0675088
0.0242084
0.000159417
0.000148009
0.00234997
0.000174325
0.000153275
0.000147893
0.000147787
0.000147275
0.000189423
0.000152448
0.000167992
0.000149771
0.0441797
0.000288023
0.000147624
0.000147757
0.000169368
0.000148916
0.000146031
0.00015297
0.0548157
0.0513892
0.082911
0.000149715
0.000175736
0.000160822
0.00014537
0.000147592
0.000149227
0.000188336
0.000149316
0.000147597
0.000175775
0.00014815
0.000170829
0.000148629
0.000148603
0.000145737
0.000148919
0.000198957
0.000149265
0.000147386
0.00016713
0.000163748
0.000186542
0.000149347
0.000177955
0.0609817
0.0867097
0.000150192
0.0168734
0.0148373
0.000147325
0.000144626
0.000149677
0.000150713
0.0444022
0.000151014
0.000148713
0.000149318
0.0636154
0.000159943
0.000149519
0.000148854
0.000147535
0.00016352
0.000146125
0.00014681
0.000161775
0.000149974
0.000149304
0.000146841
0.000231284
0.000147395
0.000149853
0.000148052
0.000149047
0.000184744
0.000149296
0.000150331
0.00014835
0.000154039
0.000204255
0.000149941
0.000186
0.000154248
0.0460061
0.00014602
0.000151107
0.000161478
0.000177699
0.000161898
0.000149609
0.00450661
0.0406122
0.000149406
0.000147028
0.000125478
0.000148403
0.000149644
0.000146136
0.000149576
0.000169747
0.000149948
0.000149949
0.000164669
0.000156194
0.00015652
0.000157014
0.000149846
0.0862702
0.00015126
0.000210271
0.000147081
0.000176717
0.000159905
0.0731678
0.000152673
0.0576258
0.000149778
0.000155447
0.000148129
0.000148294
0.000147627
0.000193761
0.000159875
0.00017549
0.0211922
0.000148691
0.00017148
0.000155935
0.000146789
0.000156744
0.000159207
0.0629388
0.000147719
0.000155295
0.000162944
0.000150927
0.000160141
0.000149882
0.000144855
0.000149878
0.000184631
0.0001488
0.000147856
0.000146158
0.00014598
0.00014738
0.000147751
0.000148817
0.000146887
0.000148922
0.000149317
0.000153274
0.000156785
0.000147801
0.0492272
0.000147925
0.000508613
0.000159126
0.0464098
0.0001626
0.000155156
0.00853864
0.00016254
0.000186789
0.0872014
0.000163258
0.000149268
0.000146812
0.000150124
0.0001855
0.000147441
0.0522355
0.00014742
0.00613034
0.0794374
0.000180294
0.00015033
0.0338277
0.0421066
0.000150552
0.000147728
0.000149736
0.000153443
0.000144784
0.000145643
0.000166833
0.000208996
0.000148396
0.000147413
0.000149098
0.000225397
0.000182456
0.000148961
0.000153501
0.000179724
0.000149258
0.000148027
0.0475804
0.000148899
0.000147331
0.000507133
0.000151693
0.000147857
0.00521711
0.0866413
0.0436662
0.000147423
0.00015053
0.000244095
0.000146172
0.000147345
0.000149886
0.000160403
0.000148148
0.000148626
0.000152226
0.000161026
0.000175503
0.000146475
0.000147774
0.000148402
0.000147167
0.000149488
0.000145031
0.000188906
0.000156148
0.000147909
0.000147734
0.00014635
0.000147649
0.000149185
0.0570505
0.000158604
0.000145134
0.000147394
0.000160021
0.0654597
0.000148144
0.0001477
0.00014805
0.000145089
0.00192747
0.000175343
0.000146653
0.000148304
0.000158382
0.000170774
0.000149049
0.000149875
0.000152762
0.00014797
0.000155638
0.000149114
0.0637118
0.000160808
0.000148336
0.000154557
0.0341571
0.000155449
0.000198377
0.00015329
0.000251567
0.000149788
0.000148919
0.000153894
0.000180721
0.000147463
0.000147506
0.000149589
0.000150294
0.000168856
0.000172704
0.00279579
0.000149971
0.000147769
0.000155719
0.00014797
0.00014796
0.0579342
0.00015136
0.000147899
0.000147753
0.000182246
0.000152597
0.000147757
0.000148247
0.000183034
0.000147137
0.000148578
0.000147533
0.000182891
0.000150599
0.000155613
0.00594373
0.000148829
0.000149044
0.0619292
0.000147166
0.000174468
0.000147159
0.000151091
0.000161804
0.000148056
0.000148474
0.000149223
0.000151448
0.00816534
0.000147358
0.000148802
0.000177123
0.000153395
0.000156757
0.068793
0.000163478
0.000149362
0.000212345
0.000147562
0.0345715
0.000149042
0.000148031
0.00014661
0.0109225
0.000149362
0.000149057
0.000148982
0.000162742
0.0598603
0.000155929
0.000166644
0.000147634
0.000148804
0.000162969
0.000157234
0.000146723
0.000153728
0.000147322
0.0750561
0.0428171
0.000148835
0.000150167
0.000149439
0.00501294
0.000148966
0.00965605
0.000147731
0.000147248
0.000146649
0.00014923
0.000152083
0.000149792
0.000147775
0.000148091
0.00314093
0.000187517
0.000147337
0.000153179
0.000152896
0.000161304
0.000147377
0.000153476
0.000150147
0.000147943
0.000150593
0.000161491
0.000149855
0.000147212
0.000154359
0.000146747
0.000183383
0.000150553
0.000175998
0.000148487
0.000148106
0.00014765
0.000186997
0.000161603
0.000146348
0.000153313
0.000178357
0.000149262
0.000146391
0.000154086
0.000149448
0.0117848
0.000179208
0.000153039
0.0197089
0.000150456
0.000163448
0.000179957
0.000160346
0.000164105
0.00901584
0.000160856
0.000194088
0.000148039
0.000150402
0.0001473
0.000147835
0.000155587
0.000146661
0.000175156
0.000147997
0.000148091
0.000168414
0.000147477
0.000174816
0.000156076
0.000153487
0.000147434
0.000160646
0.00022668
0.000143762
0.000160939
0.0576431
0.000160154
0.000146966
0.000160829
0.000147781
0.000146814
0.00742882
0.000146752
0.000146321
0.000169986
0.000147896
0.000156941
0.000146729
0.00014784
0.0849566
0.000147308
0.000145699
0.000152914
0.000147435
0.000145118
0.000149648
0.00513211
0.000148592
0.000148438
0.000145195
0.00018442
0.000149223
0.000152589
0.00014752
0.000158983
0.000149708
0.000147502
0.000150119
0.000148555
0.0001463
0.000171882
0.00016355
0.000156931
0.000150989
0.000165277
0.000178516
0.00015472
0.000155165
0.000150168
0.0883493
0.000147769
0.000147897
0.00014728
0.000149549
0.000158981
0.000147105
0.058838
0.0344781
0.0131158
0.000148436
0.00015298
0.000161156
0.000144777
0.000167143
0.000163167
0.000246462
0.000180701
0.0538614
0.000178286
0.000200148
0.0418884
0.000156019
0.000150839
0.000153465
0.000146762
0.0563034
0.000149573
0.000155864
0.000146608
0.000153072
0.000148155
0.0404529
0.0648625
0.000149298
0.0149559
0.000233915
0.000218761
0.000168089
0.000171509
0.000145714
0.0592217
0.000147949
0.048279
0.0301207
0.000149303
0.000147623
0.000147838
0.000150846
0.000154359
0.000162318
0.000199145
0.00014873
0.000148114
0.000153616
0.000149176
0.000148083
0.000154163
0.000146779
0.00014826
0.000224487
0.000171663
0.00014813
0.0827878
0.000150859
0.000149796
0.000150924
0.000208075
0.00014753
0.000146116
0.000184189
0.000185097
0.000147099
0.000153544
0.000288037
0.000170694
0.0458303
0.000146473
0.000202422
0.0649028
0.0880479
0.000148432
0.000147691
0.000178694
0.000153987
0.000162282
0.000149023
0.0721487
0.000169586
0.000195579
0.00014825
0.000147656
0.0153278
0.000225432
0.000148915
0.000149797
0.0497907
0.000147435
0.000145495
0.000147551
0.00015151
0.000149249
0.00015608
0.000148495
0.000152394
0.000145287
0.000162167
0.0151784
0.000167014
0.000161654
0.0282104
0.000175841
0.000145574
0.000146796
0.000147393
0.000149877
0.000182136
0.000156113
0.000148742
0.000147997
0.000147684
0.000145076
0.000157681
0.000145201
0.000162141
0.000152917
0.000148725
0.0705873
0.0346758
0.000148569
0.0923736
0.000158552
0.000160093
0.000149738
0.000145412
0.0229879
0.00017549
0.000147273
0.000146159
0.000147524
0.000155227
0.000149726
0.000201524
0.000144517
0.000148263
0.000148039
0.0525915
0.0543172
0.00014487
0.000148106
0.000177328
0.00019468
0.000152358
0.0849395
0.0755309
0.000147395
0.000148851
0.000148566
0.000150368
0.0446611
0.000148105
0.000149886
0.000186021
0.000179114
0.00014936
0.000147569
0.000165022
0.000149881
0.000148373
0.000178087
0.000180744
0.0446161
0.000147705
0.000188023
0.000160318
0.00017527
0.000150461
0.000155262
0.000147405
0.000149163
0.000170443
0.000153771
0.000147815
0.000153011
0.029649
0.000144759
0.000146853
0.000144733
0.000168688
0.000147456
0.000148449
0.000143893
0.000147453
0.000242364
0.0902629
0.000148801
0.0129423
0.059537
0.0463498
0.000147412
0.000147831
0.000146721
0.000147274
0.000148673
0.000148915
0.000145263
0.000148422
0.000146315
0.000152068
0.0259196
0.000159838
0.000137036
0.000160324
0.000148054
0.000150594
0.000158815
0.00014869
0.000146892
0.000161702
0.000158505
0.000232324
0.000168372
0.000144717
0.0437236
0.000149839
0.000144402
0.000147361
0.000239921
0.000168202
0.000149917
0.000154044
0.000148356
0.000148514
0.000157496
0.000167807
0.000159214
0.0493143
0.000148438
0.000148042
0.000232071
0.000160645
0.000153189
0.000189918
0.000150924
0.000166633
0.000217327
0.000172753
0.0103108
0.000147223
0.000147242
0.000147401
0.000148183
0.000148515
0.000150654
0.00016656
0.000177762
0.0452711
0.000148362
0.0881141
0.0194295
0.000154176
0.000329689
0.000148791
0.000179625
0.0225165
0.000147197
0.000183178
0.000145439
0.000246817
0.000149254
0.000202698
0.000147038
0.000121244
0.000167968
0.0320315
0.000146806
0.000197378
0.000146339
0.000150969
0.00018383
0.000146753
0.0106497
0.0659382
8.18033e-05
0.0302767
0.000185193
0.0515513
0.00016269
0.000147967
0.000162684
0.000168338
0.0681349
0.00014839
0.000147949
0.000149847
0.000165994
0.000147871
0.000148829
0.000148761
0.0387071
0.0575255
0.00014765
0.0552747
0.000164881
0.000145984
0.00016133
0.000155033
0.0643309
0.000157413
0.000146747
0.000196397
0.000148352
0.000147383
0.000148476
0.000182303
0.000174854
0.00014708
0.00015435
0.000148627
0.000149713
0.000146386
0.0554496
0.000149895
0.000146503
0.0097476
0.000211503
0.000152565
0.000147138
0.0412946
0.000155591
0.000150769
0.000147867
0.000162954
0.000150966
0.000157442
0.000152837
0.0314373
0.000162822
0.000174507
0.000144621
0.00016352
0.000173826
0.00015827
0.00014919
0.0957331
0.000149651
0.000202704
0.000147139
0.000149227
0.000162984
0.000201364
0.000151563
0.00015411
0.000148654
0.000159748
0.00017662
0.000189209
0.000155698
0.000149944
0.000147573
0.000155155
0.000188934
0.0001474
0.000168756
0.000147935
0.000147434
0.0374762
0.000147295
0.0607846
0.000147788
0.000154525
0.000181707
0.000147798
0.000158327
0.000196133
0.000182755
0.000147837
0.000188223
0.000149875
0.000149733
0.000147551
0.0280732
0.0697125
0.000147262
0.000147516
0.000146158
0.000146985
0.000183161
0.0756015
0.000147778
0.000228154
0.000146109
0.000146417
0.000147099
0.00124186
0.000150026
0.000151559
0.000147507
0.000147891
0.000147691
0.000149684
0.000149705
0.00016067
0.00356991
0.000145911
0.000147721
0.000160106
0.000173967
0.000146547
0.0387782
0.000168758
0.000146791
0.000145099
0.000149186
0.000190646
0.000146546
0.000185936
0.00015688
0.000152655
0.000146736
0.000168447
0.00014455
0.000172225
0.000155409
0.000149187
0.018058
4.85689e-05
0.000143818
0.00014706
0.0167498
0.000186139
0.000180416
0.000153907
0.000185851
0.000145296
0.069724
0.000184017
0.000147428
0.0337008
0.0873439
0.00015069
0.000165131
0.000171163
0.000146688
0.0884367
0.000148694
0.000156557
0.000157947
0.000148866
0.000148178
0.00016331
0.000146977
0.000147035
0.000146962
0.00113706
0.000147273
0.000147382
0.000146595
0.000147082
0.000147342
0.000149493
0.000175004
0.000160971
0.000152256
0.000149635
0.000335254
0.000148883
0.00014676
0.000147218
0.000146042
0.000148447
0.00014762
0.000158655
0.000184862
0.000149446
0.000159733
0.000162416
0.000146629
0.000155359
0.0539288
0.000149819
0.000144783
0.000148413
0.000166375
0.000149295
0.000149293
0.000152365
0.000152897
0.020183
0.013457
0.000146609
0.000146852
0.000147423
0.000165583
0.00015826
0.00014683
0.000155422
0.000167445
0.000148663
0.000154649
0.00014879
0.000179498
0.000219418
0.000150692
0.000173211
0.000154136
0.0449321
0.00014931
0.000147112
0.074357
0.000170296
0.000152546
0.000208367
0.000167322
0.0183051
0.000161778
0.000197906
0.000154944
0.000154768
0.0184145
0.000154611
0.000224667
0.000161069
0.00018144
0.0369073
0.000149951
0.000148563
0.000147669
0.000193047
0.000143939
0.0128155
0.00016543
0.0225173
0.000150327
0.000169803
0.000195928
0.000147446
0.000148729
0.000166001
0.000157335
0.000148466
0.000155249
0.000166826
0.000178634
0.000175453
0.000190042
0.0215005
0.000179336
0.000148656
0.000149281
0.0765205
0.000165791
0.000149737
0.00016039
0.0522592
0.000148843
0.000152825
0.000147415
0.00015615
0.00014811
0.000148588
0.000159401
0.000148482
0.000155431
0.0297888
0.0152935
0.00014592
0.000153657
0.000156529
0.00018551
0.000161726
0.000149256
0.000147301
0.000168797
0.00704613
0.000147381
0.000153003
0.000148263
0.0720935
0.00014697
0.000158059
4.12947e-05
9.81275e-05
0.000149796
0.000172316
0.000173346
0.000172776
0.000153605
0.000147974
0.0807284
0.000146851
0.000156385
0.000148838
0.000159278
0.000145517
0.000145908
0.000148341
0.000173912
0.00014695
0.000147666
0.00014688
0.000148477
0.000146971
0.000148094
0.000179338
0.0214124
0.0564558
0.000154682
0.000148243
0.000157271
0.000151991
0.0505481
0.000149891
0.000174913
0.000145442
0.000147831
0.000149553
0.000161606
0.0750679
0.000147612
0.034573
0.000148901
0.000144554
0.000150655
0.0843254
0.000150967
0.000160894
0.0633162
0.000149889
0.000148706
0.0134657
0.000147299
0.0311436
0.000148467
0.000161528
0.0205543
0.00015034
0.000148534
0.000146811
0.0178278
0.000156368
0.000147066
0.000203861
0.00014754
0.000150313
0.000177493
0.0476261
0.000177804
0.0629003
0.0105679
0.000166562
0.000151201
0.000175716
0.000202065
0.000147444
0.000147327
0.00015015
0.000157553
0.000166376
0.000147764
0.000153299
0.000147152
0.000147547
0.0530151
0.000149456
0.0283094
0.000145063
0.00016339
0.000182688
0.000146587
0.00014451
0.0558335
0.0642367
0.000171001
0.000148417
0.000153333
0.000178684
0.000146309
0.000164214
0.000181867
0.000167006
0.000159078
0.0264532
0.0368422
0.000144658
0.000148787
0.000145407
0.000149231
0.000150776
0.000158213
0.0106491
0.000148693
0.000147631
0.00017297
0.0305826
0.000145148
0.00044938
0.000145631
0.000188555
0.000173351
0.0929609
0.000185596
0.000163244
0.000163538
0.000144824
0.000144438
0.000201567
0.000153882
0.000148466
0.000308595
0.000146917
0.000148441
0.000145293
0.000169476
0.00018014
0.000232953
0.000171982
0.000158466
0.000157196
0.00014846
0.0426708
0.000218364
0.000150548
0.000147667
0.000146713
0.000192289
0.0882992
0.000159471
0.085348
0.000150191
0.000146704
0.0391359
0.00014784
0.0672334
0.0626224
0.000146259
0.000157623
0.000202786
0.000152145
0.000159254
0.00014713
0.0504884
0.000156202
0.000174621
0.0116316
0.0244953
0.000158091
0.000159235
0.000148815
0.000182615
0.0530746
0.000151182
0.000152558
0.0481322
0.000162402
0.000165438
0.000149739
0.0292013
0.0148598
0.000167865
0.000147866
0.000156439
0.000147088
0.000369513
0.000178136
0.000161609
0.0615581
0.0417954
0.000144891
0.000190947
0.000148562
0.0074285
0.000168047
0.000157259
0.000155087
0.000289522
0.000143629
0.000182203
0.0142597
0.0620271
0.000150482
0.000148051
0.000146396
0.000168888
0.000679841
0.00019015
0.0618815
0.000195312
0.00016376
0.000147035
0.0508854
0.000180589
0.000156088
0.000176918
0.0067326
0.0322611
0.0220776
0.0330467
0.0392177
0.0219025
0.000148279
0.000155849
0.000160481
0.000148163
0.0373479
0.000305223
0.000147967
0.0835915
0.00014877
0.0001478
0.000146253
0.000160268
0.000146951
0.0433721
0.000163709
0.000215459
0.000147034
0.000233026
0.00016218
0.000250163
0.0184573
0.000150533
0.000157677
0.00016077
0.000164617
0.000146782
0.0001459
0.00014706
0.0387191
0.000146388
0.000146775
0.000231012
0.000151754
0.0516061
0.000148152
0.0587839
0.000147559
0.000148257
0.000147894
0.000148015
0.000157525
0.000152741
0.0575508
0.000157187
0.000167094
0.0799393
0.000147081
0.0766489
0.000146582
0.0733106
0.00536458
0.0603268
0.000176309
0.000147958
0.000149799
0.0879779
0.000148615
0.000156467
0.00014864
0.000160262
0.0683112
0.000147011
0.000146834
0.000147266
0.000149745
0.0387905
0.074496
0.000147157
0.000143905
0.0480628
0.0880632
0.000146941
0.0770234
0.000149739
0.0855238
0.0640508
0.000182891
0.000193175
0.000213273
0.000167061
0.0341887
0.000188191
0.000147997
0.000144795
0.00014637
0.0798763
0.0840944
0.000150436
0.000155434
0.0350109
0.000147009
0.0271208
0.000147508
0.000148185
0.00014557
0.00743115
0.000185299
0.000146626
0.0449001
0.000149656
0.0402805
0.0824732
0.000146476
0.000148625
0.000187155
0.000147567
0.000148718
0.000146637
0.0699643
0.000157639
0.000148051
0.000148771
0.0820363
0.000147807
0.000161728
0.000147727
0.0532534
0.000148559
0.000171699
0.000160416
0.0436399
0.0787152
0.000158729
0.00018886
0.000173304
0.000148372
0.000169263
0.0554466
0.000146688
0.000180652
0.000146307
0.000232917
0.000147162
0.0629932
0.0861806
0.000169541
0.034807
0.045798
0.000160005
0.000150144
0.000335597
0.000147331
0.0579798
0.00015331
0.00031267
0.000147394
0.000158112
0.000165633
0.00015677
0.000148486
0.000147788
0.000149239
0.0135391
0.000175903
0.0387044
0.047929
0.000154968
0.000145362
0.000164087
0.050008
0.000158378
0.000146888
0.000148408
0.00521894
0.00557934
0.032835
0.0283433
0.00016246
0.000148936
0.000146384
0.000171125
0.000167698
0.000283842
0.000147824
0.000148333
0.00989599
0.000173615
0.000149893
0.000179183
0.000292997
0.000184334
0.000145906
0.000162514
0.000232683
0.00030623
0.0847827
0.000212498
0.000147303
0.000149774
0.000149954
0.00014989
0.000147917
0.000148488
0.00015855
0.000177595
0.000161268
0.00015819
0.000156481
0.000149181
0.000153998
0.000150192
0.000159393
0.00015813
0.000147097
0.000156439
0.000147497
0.000146701
0.000149416
0.000148696
0.000202486
0.000145333
0.000166792
0.000283827
0.000874241
0.0627247
0.0346087
0.000153154
0.000149533
0.000147146
0.0849648
0.000148013
0.000144205
0.000149089
0.0881279
0.000157234
0.000162091
0.000241618
0.000151002
0.000148071
0.000157589
0.000147001
0.000162631
0.000149893
0.000158988
0.000146812
0.000147769
0.00015031
0.000151171
0.000154986
0.000276136
0.000166338
0.000173202
0.000171989
0.000194157
0.000164743
0.000173767
0.000147881
0.0323106
0.000152303
0.000154436
0.000147802
0.000150435
0.000174638
0.000147759
0.00016679
0.00590832
0.000155923
0.000184972
0.000178093
0.000164078
0.000168305
0.000165655
0.000147446
0.000157165
0.000148485
0.000170983
0.000166211
0.0801764
0.000146318
0.000165812
0.000154071
0.0559284
0.00052751
0.000168161
0.000148541
0.000168012
0.000144872
0.000176463
0.000149988
0.0663041
0.000145625
0.000153611
0.000147949
0.00016018
0.000196896
0.000158171
0.0259022
0.000148123
0.000162088
0.000165694
0.000147942
0.0315345
0.0845688
0.000194402
0.000178821
0.00016695
0.000147371
0.000146875
0.046335
0.000175961
0.000146188
0.000149938
0.000152789
0.00014753
0.000208239
0.00014678
0.078709
0.000185939
0.000193238
0.000161128
0.000149074
0.00014563
0.000147229
0.000181073
0.000166703
0.000154267
0.030219
0.000149086
0.000150565
0.000154769
0.0951344
0.000144771
0.000302557
0.000143621
0.0695692
0.000147185
0.000147191
0.000159274
0.000147713
0.000148804
0.000188367
0.00014839
0.000148992
0.000146901
0.000164939
0.000153899
0.0428763
0.0001478
0.000148459
0.00014674
0.000189913
0.000146577
0.000155606
0.000168141
0.0863082
0.0659561
0.000475527
0.00020908
0.000212107
0.000163997
0.000165076
0.000154688
0.000149644
0.000148699
0.0731654
0.000164113
0.000144623
0.000147575
0.000147494
0.000157596
0.000171908
0.000149647
0.000156417
0.000187107
0.00019738
0.000173268
0.000147588
0.000149549
0.0580884
0.000152398
0.000145481
0.0751132
0.0717212
0.000146014
0.000143983
0.000154698
0.000148228
0.000159218
0.000149627
0.00869962
0.000149799
0.0435793
0.000147845
0.0125294
0.000157834
0.000147861
0.000181205
0.000145249
0.0001483
0.000149742
0.000160733
0.000231562
0.000147315
0.000195079
0.000149895
0.000149268
0.000169592
0.000146801
0.000148754
0.000148564
0.000144259
0.000147926
0.000144678
0.000149033
0.00830558
0.000146877
0.000146776
0.00016491
0.000145511
0.000147421
0.00014904
0.000148601
0.0928164
0.000187391
0.000148047
0.000150962
0.000147899
0.000149894
0.000214445
0.000148222
0.000147706
0.00947961
0.000147546
0.000167936
0.000179694
0.000160261
0.000147603
0.000203198
0.000147665
0.000208863
0.000164831
0.000147698
0.0603957
0.0355354
0.000155307
0.000171218
0.000147206
0.000147266
0.000161851
0.00020896
0.000146814
0.000146808
0.00014869
0.00016387
0.000148582
0.000160237
0.000148635
0.000166791
0.00251433
0.000160834
0.000212198
0.000147247
0.000154982
0.000156169
0.000160642
0.000145839
0.00014754
0.000150226
0.000159625
0.000166056
0.000149131
0.000195368
0.000147927
0.074732
0.000144663
0.000146353
0.00017456
0.000149792
0.000178754
0.000191496
0.000161028
0.000148176
0.000150238
0.000147988
0.000161315
0.000148396
0.000163178
0.000155463
0.000148615
0.000145933
0.000155097
0.0928522
0.000158834
0.000163509
0.0802438
0.00216981
0.000161262
0.000144874
0.0712993
0.000147858
0.000151965
0.000149262
0.000187701
0.000147726
0.000159787
0.000155183
0.000151258
0.000148703
0.000153707
0.00014927
0.000174939
0.000147367
0.000149171
0.000147895
0.000156597
0.00859803
0.000148023
0.017851
0.000166727
0.000144107
0.0935366
0.000101742
0.000147493
0.000151416
0.000191494
0.000146733
0.000147419
0.0623855
0.000148018
0.06654
0.000153327
0.000152884
0.000149771
0.000149767
0.00014772