/*--------------------------------*- C++ -*----------------------------------*\
| =========                 |                                                 |
| \\      /  F ield         | OpenFOAM: The Open Source CFD Toolbox           |
|  \\    /   O peration     | Version:  v2012                                 |
|   \\  /    A nd           | Website:  www.openfoam.com                      |
|    \\/     M anipulation  |                                                 |
\*---------------------------------------------------------------------------*/
FoamFile
{
    version     2.0;
    format      ascii;
    class       surfaceScalarField;
    location    "200";
    object      phi;
}
// * * * * * * * * * * * * * * * * * * * * * * * * * * * * * * * * * * * * * //

dimensions      [0 3 -1 0 0 0 0];
oriented        oriented;


internalField   nonuniform List<scalar> 
14907
(
-0.449697
0.309649
0.140063
-0.580747
0.367853
0.212932
-0.22754
-0.0189264
0.246402
0.587892
-0.587362
-0.0595331
0.0292152
0.0303178
0.420988
-0.53042
0.10936
0.0985149
-0.0568816
-0.0416284
0.159934
-0.157645
-0.00229
0.399266
-0.223021
-0.176123
-0.379403
-0.0981975
0.477645
-0.0097542
-0.00119552
0.0109497
0.0661906
0.522341
0.349512
-0.610862
0.261573
0.643434
-0.343949
-0.29942
0.230918
-0.123985
-0.106935
0.543559
-0.357092
-0.186245
0.302706
0.241068
-0.29226
-0.299125
0.591376
-0.250868
-0.198795
-0.00968624
0.0685732
-0.058888
-0.396918
-0.132185
0.529812
0.112856
0.0539127
-0.166769
0.39413
-0.622694
0.228873
-0.546427
0.290848
0.25545
-0.342062
-0.238667
-0.260014
0.141018
0.119017
0.630158
-0.362759
-0.267263
0.265772
-0.146568
-0.11922
0.396224
-0.196396
-0.199711
-0.300325
0.194481
0.105817
-0.180839
0.411771
-0.230912
0.000245652
0.00687135
-0.00711702
0.204842
-0.584341
0.119302
0.130885
-0.250183
-0.100633
0.232712
-0.132104
-0.312627
-0.233958
-0.294919
0.158439
0.1365
0.0887709
0.121715
-0.210454
-0.580165
0.267833
-0.0967068
0.148335
-0.0516474
0.0370235
-0.0467101
-0.229399
0.131867
0.0975215
0.077849
0.0206707
-0.138318
0.284842
-0.146582
-0.0345684
-0.0249649
-0.149202
0.236085
-0.0868735
-0.279888
0.204812
0.0750481
-0.10785
-0.0862334
0.194097
-0.061412
-0.14787
0.209285
-0.164523
0.271674
-0.107136
-0.583406
0.117039
0.466586
-0.0811913
-0.192075
-0.0343683
0.164368
-0.13003
0.369776
-0.265307
-0.104494
-0.110668
-0.184234
0.434664
-0.0136126
0.302913
0.0934248
-0.166021
-0.11391
0.273708
-0.154413
-0.179264
0.14485
0.289816
-0.494196
0.20442
0.311623
0.133724
-0.445213
-0.22225
0.121596
0.0815873
-0.309192
-0.267614
0.213692
0.0539298
-0.136157
-0.119466
0.255611
-0.0792656
0.231538
-0.152291
0.086553
-0.0767876
-0.00976694
0.000628421
-0.00647509
0.0058466
-0.171285
0.350131
-0.1788
0.221807
0.14795
0.0604049
0.144051
-0.28243
0.130156
-0.156765
0.0266068
0.187193
0.0772585
-0.264516
0.495546
-0.205079
-0.00549058
0.0347056
0.415747
-0.210398
-0.20531
0.166517
-0.0930173
-0.073505
-0.0287865
0.0751409
-0.0463499
-0.183965
0.12257
-0.087212
0.0526433
-0.124821
-0.147291
0.272056
0.242139
-0.122546
-0.119589
-0.254764
0.175474
0.518483
0.0863132
-0.604812
0.0813511
-0.28671
0.205302
-0.00224589
-0.101957
0.104202
-0.325539
0.105181
0.220287
0.350847
-0.26949
-0.144708
0.275697
-0.13098
-0.0473236
-0.0398887
0.183665
0.082092
-0.285475
-0.159711
-0.140642
0.129897
-0.283353
0.153495
0.485993
-0.188805
-0.297129
0.169745
0.150849
-0.320559
-0.194518
0.0977868
-0.399335
0.132748
0.266692
0.396155
0.20086
0.107828
-0.126801
0.0189689
-0.150508
0.0610623
0.0894442
0.54694
-0.028618
0.258513
-0.14274
-0.115771
-0.126521
0.131045
-0.00452432
-0.389847
0.314651
0.0751161
0.149046
0.336992
-0.589482
0.193252
-0.235621
-0.271054
0.572487
-0.303195
-0.268833
-0.468358
0.320022
0.148442
0.222484
-0.128621
-0.093881
-0.00712747
0.00775586
-0.20739
-0.0602168
-0.250227
0.439044
-0.188695
0.269407
-0.350856
0.0814469
0.16491
0.296641
-0.16669
0.0014229
-0.00213638
0.000713348
-0.12323
-0.202405
0.0855164
0.0744172
-0.138861
0.284705
-0.145856
0.199408
0.179269
-0.37865
0.140125
-0.0323012
-0.266286
0.141436
-0.123331
-0.0343143
-0.224478
0.179439
0.0450274
-0.0168361
-0.109687
-0.152524
0.369813
-0.217228
0.0501627
0.116349
-0.367366
0.210343
0.157027
0.00255342
-0.00932101
0.00676756
-0.17529
0.0926985
0.0825861
-0.217667
-0.18156
-0.0917945
-0.0654209
0.157208
-0.00493037
-0.00148077
0.00641106
0.132919
-0.277662
0.0713436
-0.179187
0.0925331
-0.0947798
0.141095
-0.252832
0.11171
0.0186103
0.250793
-0.128428
0.248623
-0.120218
0.119479
-0.108244
-0.0112398
-0.230844
0.351673
-0.120914
-0.273545
-0.19473
0.139562
-0.0193919
-0.120181
0.444938
-0.227359
-0.217474
0.31397
-0.144162
0.235239
-0.126908
-0.108336
-0.363218
0.154318
0.208962
-0.00877304
0.529265
-0.520532
0.0274311
-0.0103586
-0.0170697
-0.000268183
-0.00278363
0.00305172
0.582066
-0.300436
-0.281209
-0.198612
0.548245
0.245782
-0.120791
-0.125003
-0.0420065
0.353756
-0.136684
0.0448863
0.00395546
-0.00641328
0.00245775
0.0131594
-0.00414192
-0.00901749
-0.182898
0.0896842
0.0932083
-0.128826
-0.222242
0.351071
-0.198282
-0.164877
-0.147794
-0.128238
0.27597
-0.184777
-0.182585
-0.10962
0.00141678
0.108203
0.0244666
-0.0205113
0.00791333
-0.00689806
-0.00190181
0.00163351
0.133662
0.153882
-0.287579
-0.463554
0.293914
0.169459
0.017051
-0.064375
0.067123
-0.06477
-0.0023541
0.0284127
0.0892065
-0.117624
0.116942
-0.0526019
-0.0643258
-0.0116574
0.0102015
0.0014559
0.280456
-0.14454
-0.135957
0.0612867
0.0252649
0.109951
0.0802362
-0.190199
0.115173
0.130598
0.00494178
-0.00469616
-0.0922818
-0.158598
0.250813
-0.095652
-0.128842
-0.125336
-0.104074
-0.000209704
0.00163247
-0.105461
0.133776
-0.0283195
0.263517
-0.112884
-0.150631
-0.000209645
0.00973456
-0.00952493
-0.10512
-0.135335
0.240478
0.0567099
0.0152384
-0.0719483
-0.261925
0.133458
-0.000415681
0.0278494
-0.0792151
0.0962655
0.167548
-0.0266184
-0.140929
0.00585477
0.0755067
-0.0813621
-0.125392
-0.105188
0.230598
-0.210174
0.390045
-0.179935
0.361678
-0.560138
-0.291453
0.209733
0.0817125
0.0162324
0.102896
-0.119134
0.25332
0.01021
-0.0897145
0.3232
-0.233453
0.00687895
0.060243
0.139236
-0.408692
0.449144
-0.040283
0.00415925
0.0525506
0.408934
0.146248
-0.554711
-0.299679
-0.29083
0.590413
-0.531052
-0.00667597
0.537105
-0.0990769
0.104931
-0.613919
0.604064
0.0106328
-0.10886
-0.000760211
0.0861532
-0.0934529
0.00729995
-0.256101
0.135296
0.0276783
-0.133139
-0.112427
0.299982
-0.18763
-0.316715
-0.146304
0.462874
-0.178369
0.145114
0.0332507
0.480554
-0.213837
-0.266661
0.138782
0.0836826
0.23733
-0.11102
-0.126317
0.0141174
-0.100398
0.0862801
-0.107155
0.195963
-0.194599
0.152532
0.0420439
-0.223359
0.1184
0.104983
0.175475
-0.0904436
-0.0850314
0.459173
-0.247005
-0.212045
0.139232
-0.0143502
-0.124887
0.363492
-0.141702
0.201094
-0.0576633
-0.00659826
0.0642608
-0.273552
-0.190172
0.208593
0.154879
0.19201
-0.211013
0.173839
0.0613955
-0.185699
-0.200185
0.386104
-0.730595
0.477353
0.253585
-0.100354
0.242887
-0.142507
0.284509
-0.162842
-0.121626
0.232996
-0.361798
0.141561
0.135381
-0.283218
-0.229058
0.100407
-0.389602
0.139594
-0.417584
0.236733
0.555983
-0.00265856
-0.55311
0.109348
0.149167
0.0904334
-0.270471
0.179987
-0.693019
0.400748
-0.324064
-0.216191
0.540781
-0.343523
0.172296
-0.135598
-0.0568702
0.192436
-0.0683007
0.0824177
-0.0966893
-0.0862132
-0.00926579
0.00905614
0.113709
-0.0853001
0.0267951
0.0911154
-0.117916
0.0789792
0.151938
-0.0263868
0.202023
-0.175625
-0.13146
0.116613
0.0148558
-0.276272
0.175923
-0.234643
-0.155293
-0.394194
-0.336098
-0.158122
-0.13334
-0.379731
0.194214
-0.0874802
0.200343
0.258806
-0.0588269
-0.200001
0.198321
-0.521295
-0.0104284
-0.0905809
0.10681
-0.174888
0.0898073
-0.0036539
0.115999
-0.0154511
-0.0924945
0.107944
-0.216671
0.111574
0.163497
0.121054
0.20447
0.191397
-0.395678
-0.00738948
0.139472
-0.132125
0.0552025
-0.286107
0.176773
-0.0668407
0.254392
0.0102735
-0.264731
-0.101556
0.00729145
-0.00473807
-0.00285875
-0.405778
-0.376555
0.237348
0.139176
-0.0915007
-0.039949
-0.175584
0.189973
-0.302912
0.188869
0.262865
-0.451802
0.0970123
-0.232643
0.0544991
0.0624585
0.0459837
-0.162618
0.116615
0.124571
-0.00509631
0.007272
-0.590541
-0.178839
0.540691
0.185728
0.111331
-0.33425
0.0957782
0.0796974
-0.36463
0.237262
0.127388
-0.125539
0.415532
-0.330943
0.399788
-0.0688167
-0.315197
0.202706
-0.236478
0.143043
0.0934758
-0.128478
0.187225
-0.0587571
0.0202786
-0.109898
0.0896188
-0.0138419
-0.0185937
0.032435
-0.0657268
-0.113588
0.025221
0.0501836
-0.0754054
0.232277
-0.406371
0.174402
0.157904
-0.165295
0.253683
0.376593
0.0123494
-0.0125074
-0.110836
0.134072
-0.0232386
0.0059253
-0.0952312
0.0893052
-0.00570817
-0.180892
-0.288376
0.469082
0.221582
0.0372045
0.130139
0.220033
0.100111
0.100837
-0.200972
-0.0823193
0.644617
-0.3451
-0.299448
-0.210421
0.13842
0.0719899
0.392737
0.180197
-0.583356
0.600422
-0.0168249
0.140258
-0.0818171
0.102095
0.587805
-0.346857
-0.240784
0.147992
-0.283347
0.305096
-0.159449
-0.145681
-0.209262
0.0807608
0.00809993
-0.00959397
0.00149406
-0.157112
0.262366
0.320092
-0.345603
-0.226804
0.572559
-0.224862
0.306373
0.0950505
0.0632884
-0.158351
0.142037
0.0255108
-0.0239006
0.115015
-0.00618027
0.112044
-0.105865
-0.183515
-0.0529247
-0.233341
0.13767
0.120287
0.24932
-0.140559
0.276287
-0.135708
-0.596019
0.296822
0.132147
-0.0254287
-0.106719
-0.00650842
0.260852
0.137557
-0.0735986
-0.124979
0.198575
0.230329
-0.030708
-0.122788
0.153473
0.116808
0.124286
-0.197881
-0.135532
0.254023
-0.118528
-0.126986
-0.0676416
0.118458
-0.135293
-0.123932
-0.0865038
-0.0668324
0.228514
-0.161706
-0.387454
0.216976
0.170449
0.074566
-0.0807474
0.129313
0.0102407
0.00528865
0.192564
-0.197862
0.16637
-0.0713325
0.133865
-0.36344
0.22937
0.172975
-0.446558
0.393977
-0.260264
-0.153905
0.12318
0.00894182
0.0928807
-0.101823
-0.148388
0.243736
-0.0953485
-0.601973
0.341505
0.260407
-0.187018
0.121259
0.301086
0.295929
0.337941
0.250018
0.00380213
0.172523
-0.382733
0.192543
-0.413877
0.221582
0.00201041
-0.00694086
-0.191069
-0.268565
0.45968
-0.141732
0.0506504
0.0910807
0.10193
0.0302168
0.112557
0.0175963
-0.10661
0.0462764
0.0603503
-0.00963633
-0.104828
0.186482
-0.0816734
-0.0760879
0.0184237
0.32986
-0.572518
0.243005
0.0415656
-0.206069
0.325393
0.271622
0.291485
-0.164909
-0.12661
0.247716
-0.0996467
-0.148055
-0.638792
0.231396
0.407448
0.206907
-0.106812
-0.0240642
0.076808
-0.151563
0.546074
0.370996
-0.502378
0.0725497
-0.0875761
0.0150234
-0.0357781
0.0510165
0.145811
-0.265257
-0.216535
0.4143
-0.197727
0.00151297
0.00640034
0.0292843
-0.136223
0.42986
-0.0101204
-0.0666681
0.00266681
0.34454
0.136105
-0.318291
-0.283756
-0.447832
0.235245
0.212728
-0.167458
0.365105
-0.197474
-0.562238
-0.0207075
-0.366605
0.363764
0.0997861
-0.0649933
0.125431
-0.0127588
0.052215
-0.0394566
-0.581072
0.237582
-0.180067
-0.184533
-0.0796558
-0.0258671
0.105521
-0.251738
0.296105
-0.0444819
-0.0806695
-0.102151
0.148115
0.0994011
-0.221941
-0.225049
-0.159034
0.384056
-0.422971
0.206431
0.0920906
-0.0981085
0.00601772
-0.136849
0.0806188
-0.185468
-0.123155
0.25544
-0.132303
0.000981487
-0.0107357
-0.127747
-0.128368
-0.0732906
0.099983
-0.223978
-0.276297
-0.195159
0.471438
0.19214
0.118608
-0.0417674
-0.0768418
-0.182472
0.462864
-0.280384
0.137724
0.0536586
-0.191378
0.195651
-0.312448
0.116836
0.155741
-0.291264
-0.00629811
-0.000115233
-0.0921096
0.228534
-0.136382
-0.0928473
-0.188861
0.281763
0.00795001
0.543514
-0.550937
-0.0112877
0.0038253
0.00746239
-0.165256
0.372947
-0.207526
-0.193309
0.101228
0.258962
-0.148999
-0.109949
-0.175073
-0.0684565
0.0556978
-0.0520956
-0.516517
0.413048
0.10375
-0.0331709
-0.174208
0.0881724
-0.236554
-0.502338
-0.500215
0.207102
0.293379
0.172977
-0.387544
-0.00379008
0.00928031
-0.00549026
0.184309
-0.39573
-0.468021
-0.145287
0.0782279
-0.158213
0.0799849
-0.0766684
0.166112
0.162071
-0.0111634
-0.150915
-0.593187
0.293404
-0.105293
0.185514
0.000642434
0.243189
-0.100107
-0.35853
0.177649
0.180921
-0.18864
-0.198844
-0.0993452
-0.0759502
0.207862
-0.202601
0.193273
-0.46946
-0.0774333
0.167208
-0.089783
-0.250515
0.3619
0.0611762
-0.427835
0.173554
0.0637705
-0.230258
0.432028
-0.201646
-0.121874
0.0334868
0.0883799
0.225877
0.0886984
0.267214
-0.449696
0.0105138
-0.0117093
0.538248
-0.263236
-0.274977
-0.140709
0.294527
-0.58554
0.192933
0.392565
-0.275914
0.152708
0.198
-0.0595917
-0.355017
-0.161165
0.138633
-0.363514
-0.0862902
0.0855883
0.180105
-0.265708
0.0551226
-0.0441164
-0.0110042
-0.11939
-0.156885
-0.296856
-0.398489
0.599432
-0.130533
0.0264063
0.104125
0.168917
-0.310303
0.141237
-0.310363
0.217541
0.226591
-0.58452
0.358468
-0.308422
0.143768
0.164685
-0.0041907
0.120974
-0.116792
0.0587085
-0.0874914
0.204617
-0.131251
0.00936901
0.0252763
0.132591
0.110638
-0.330043
-0.262801
0.592749
-0.202608
-0.164144
0.366798
-0.162121
0.323967
-0.161939
-0.442932
0.529262
0.382656
-0.186732
-0.195675
-0.00615442
0.00828083
-0.00770848
0.00622768
-0.372376
-0.266364
0.0498935
0.129534
0.000209969
-0.158527
0.158341
-0.166141
0.1664
0.253539
-0.0663747
-0.312872
-0.279807
0.593083
-0.0949963
-0.0645576
0.159555
-0.00591239
0.0980024
-0.046672
0.214696
-0.43961
-0.325638
0.163429
-0.338319
0.0864385
0.252655
-0.443773
0.00534558
-0.00113414
-0.00421155
-0.0887367
-0.0871605
0.17588
-0.115839
-0.146063
-0.193805
0.339962
-0.302118
-0.261352
0.563913
0.258498
0.0650311
-0.323608
-0.171664
0.103179
0.134491
-0.497372
-0.0110119
0.00722175
0.0260523
-0.0618305
-0.0191027
-0.0590846
0.0781873
0.0818474
0.0491954
-0.19724
-0.358152
0.140567
0.245663
-0.117607
-0.128045
-0.113726
-0.0612191
0.174931
-0.000481629
0.00496427
-0.00448263
0.00560546
0.018861
0.206273
-0.119505
-0.0867892
0.171965
0.44198
0.134374
-0.576351
-0.104678
0.252676
-0.195836
0.162637
0.536708
-0.0947977
0.00161507
0.0115443
0.441183
0.114918
-0.187879
-0.218189
-0.224433
0.124931
0.0995067
0.129237
-0.572012
0.223281
-0.0703745
-0.152894
-0.268569
0.149172
0.0884562
0.0557772
-0.14424
-0.0894543
-0.0883683
0.17781
-0.507715
0.501063
-0.10259
-0.147367
0.249967
0.107692
0.124997
-0.154454
-0.0233792
0.128739
-0.0468954
0.00148265
-0.0856713
0.0841878
-0.281866
0.6068
0.128158
0.143531
-0.263211
0.148187
0.114983
-0.0627265
-0.220601
-0.28183
-0.28477
0.566565
-0.269108
0.128542
0.287978
0.148971
-0.436897
0.0792665
0.0402069
0.12186
0.0512474
0.0642848
-0.115537
-0.57938
0.349158
0.230073
-0.130378
0.215957
0.53417
-0.307204
-0.133537
-0.180266
0.31378
-0.0585314
-0.0175575
0.3094
0.224637
-0.53361
0.254628
-0.127986
-0.126626
0.146429
-0.0925129
0.190956
-0.421097
-0.133131
0.237446
-0.200273
-0.037153
-0.228709
-0.0018006
0.00185089
-5.03897e-05
-0.0711745
0.198462
-0.127288
-0.563366
0.317589
0.246041
-0.0308105
-0.0827627
0.113573
0.00667804
-0.205426
0.198681
-0.596851
0.305874
0.154288
-0.309902
0.155602
-0.183356
0.375838
-0.192401
0.337111
0.259904
-0.241483
0.109065
0.13242
0.0352123
0.223236
-0.0329865
0.0590387
-0.100489
0.241568
0.18117
-0.383681
0.151252
-0.297999
0.146779
0.158943
0.0390434
-0.104278
-0.092793
0.197071
-0.1821
0.381568
0.111448
-0.23868
0.127268
-0.177384
-0.180695
-0.0986371
0.220396
0.32154
-0.149707
-0.171835
-0.179346
0.0898694
0.40274
-0.20994
0.240874
-0.109762
0.191996
0.236635
-0.428624
-0.17431
-0.226257
0.400468
-0.00630818
0.0320597
-0.0257517
-0.262256
-0.185435
-0.0735881
0.015055
0.387003
-0.214011
0.135399
0.139956
-0.275317
0.549865
-0.305174
-0.244467
0.233732
-0.133249
-0.100461
-0.295121
-0.290458
-0.184837
0.11366
-0.139362
0.329314
0.0758437
-0.106654
-0.214838
0.552788
0.111962
-0.0341064
0.281677
0.163355
-0.135913
-0.073372
0.469789
0.172949
-0.642387
0.199554
0.100355
-0.0356464
-0.327985
-0.164999
-0.076483
-0.415896
0.234385
0.181545
-0.0592874
0.0186318
0.0270187
-0.0456506
0.113496
0.109799
-0.23158
0.191925
0.0396927
0.0970951
-0.121002
-0.138147
0.343096
-0.204973
-0.0552793
-0.0753119
0.130589
0.108203
0.127891
0.508607
-0.303652
-0.155554
0.0781148
-0.0816071
0.0830886
0.00336507
-0.00384669
0.0521548
0.0926455
-0.0138033
-0.0788428
-0.125666
-0.136604
-0.131823
0.268426
0.350522
0.29417
0.248003
-0.0900974
-0.199209
-0.0174524
-0.199417
0.00464779
0.194861
0.31435
-0.109921
-0.121556
0.231441
0.0209284
-0.117621
0.511596
-0.520398
-0.292833
0.159299
-0.135645
0.247126
-0.00461599
0.0117047
-0.00708898
-0.222542
0.0866009
0.0988173
-0.204121
0.115353
0.13032
-0.0322947
-0.475563
0.0182647
0.512143
-0.275665
-0.236514
-0.173112
-0.240941
0.413953
0.215643
-0.021164
0.0662007
-0.31666
0.00234253
0.0100068
0.193844
-0.0831953
-0.110639
-0.000129633
-0.00448656
-0.63081
0.260472
0.370742
0.0547697
-0.088939
0.0341689
0.000564647
-0.00201245
0.00144772
0.142436
-0.0405062
-0.0204611
-0.178861
0.166975
0.035053
-0.0044642
0.14369
-0.0552338
0.132571
-0.077336
-0.300801
0.141287
0.297919
-0.102187
0.0741827
0.0135587
-0.0124316
-0.200843
-0.150103
0.350922
-0.0755752
0.153798
0.0286135
0.000531401
-0.0291443
-0.353736
0.2725
0.0811523
0.258259
0.174689
-0.433021
-0.25648
0.193761
-0.249316
0.129541
0.119753
-0.325261
0.289456
-0.0388091
0.223676
-0.184915
-0.0872535
-0.0432811
-0.0375262
0.113032
0.215188
-0.547092
0.230185
-0.00990942
0.000588387
-0.00705505
-0.0129836
0.0200399
0.185046
-0.178795
-0.179692
-0.395599
0.512823
0.20564
-0.109658
0.0300012
0.0900282
0.103826
-0.0504872
-0.0429656
-0.243233
-0.175251
0.433359
0.188796
-0.359641
0.170962
-0.265156
-0.229011
0.105824
-0.219246
0.113449
-0.221828
0.0347784
-0.0231512
0.00930884
0.262098
-0.506688
0.24473
-0.593781
0.257991
0.335612
-0.167066
0.153233
0.0138308
0.151172
-0.351906
0.131517
-0.214415
0.0829462
-0.0614787
0.0854398
-0.023962
0.165803
-0.268386
-0.01351
-0.0279458
0.0414557
0.00223183
-0.00236143
-0.272721
0.1361
0.19502
0.0700763
0.022558
-0.0926349
-0.00946107
0.0155692
-0.00610809
0.0560132
-0.148246
0.092235
0.198619
-0.159978
0.0366467
-0.00583855
0.0576109
-0.0517735
0.0950476
0.0726237
-0.167675
-0.156751
-0.14412
-0.557778
0.212326
-0.279429
0.0896153
0.00019215
-0.21306
-0.0184839
0.0676307
0.00239981
-0.0700321
-0.591579
0.261471
0.00053637
0.00756355
-0.0134736
0.106353
0.199658
-0.363726
0.250444
0.16058
-0.411021
-0.00296054
0.0353964
0.373847
0.195717
0.354316
0.206722
-0.108371
-0.0983677
0.00370319
0.000208817
-0.00391203
0.00385428
0.00156864
-0.00542278
0.0444991
-0.0508078
0.158575
-0.299348
0.200849
-0.140616
-0.0602409
-0.148504
0.0932728
-0.434884
-0.145035
0.167248
-0.468845
-0.584426
0.284197
0.0888561
0.000759213
0.386429
0.238999
-0.625391
0.37062
-0.189393
0.143973
0.0568709
-0.17753
-0.126511
-0.0518624
0.283199
0.259911
-0.542773
0.267391
-0.491825
0.224793
0.401181
-0.324581
-0.254961
0.157468
-0.064776
-0.153741
0.540373
-0.189173
-0.154297
0.0722476
0.112029
-0.18428
-0.104828
-0.00403215
0.00376505
-0.0503539
0.0465885
0.405298
0.200625
-0.605569
-0.160299
0.107306
0.052993
0.0041636
-0.0112168
0.026099
0.0290256
-0.127801
0.227194
0.00707589
-0.0123123
0.00523642
-0.00135638
-0.127962
-0.191627
-0.419041
-0.128676
-0.124181
0.220884
-0.108175
-0.112715
-0.00445266
-0.00187117
0.00632355
0.100854
-0.56389
0.28214
0.431048
-0.584828
-0.013398
0.0857566
-0.141038
-0.149875
0.308393
0.291626
0.271639
-0.563009
0.173935
0.171359
-0.345244
0.0993592
0.0669981
0.233101
-0.551121
0.00530357
0.545978
0.116528
-0.215111
-0.139992
-0.29609
-0.28812
-0.175613
0.374927
-0.199184
-0.0378159
-0.0240147
-0.212453
-0.16413
-0.259352
0.112778
0.395465
-0.279745
0.119993
0.122586
-0.0193353
-0.103255
0.534737
0.228804
-0.113863
-0.11498
-0.324356
0.438475
-0.114128
-0.227983
0.122845
-0.0581951
0.0411923
0.0170027
0.304821
0.292194
-0.0586717
0.0624361
-0.0750751
0.21385
0.00494272
0.00139505
-0.00633745
-0.260791
-0.361654
0.142875
-0.0993168
0.215899
-0.090242
-0.0700576
0.0842551
-0.0117081
-0.198387
-0.0234678
0.0841951
0.0084498
-0.0889416
-0.0694682
0.158418
-0.255839
0.101607
0.154245
-0.0103869
0.55423
0.0390779
0.103358
0.175085
0.289843
-0.464754
0.27334
-0.618543
-0.408125
0.215113
0.193167
0.614847
0.0638211
0.110647
-0.17448
0.383611
0.213404
0.250158
0.0193515
-0.0808324
0.102463
-0.190842
-0.153797
-0.433293
-0.0492955
0.138127
-0.088841
0.145288
-0.256321
0.0336209
-0.155294
0.251505
-0.0961768
-0.0575
0.0245133
0.173394
0.191884
-0.116226
0.141772
-0.00287634
-0.0169361
0.0198124
0.11161
-0.24128
0.129724
-1.46425e-05
0.00536014
0.336598
-0.599385
-0.0553854
0.197097
-0.141674
0.496725
-0.568665
0.0721782
0.155315
-0.287136
-0.147172
0.316001
0.141013
-0.0525659
0.0276153
-0.10762
0.0800027
-0.238891
0.127411
0.111492
-0.00897143
-0.282876
-0.32561
0.608541
-0.0612622
0.0477522
-0.272608
0.109814
0.163825
0.195418
-0.359125
-0.0900864
-0.0666812
-0.0269593
0.159718
-0.132747
-0.00347679
0.00570864
-0.147779
0.398253
-0.1055
0.101298
-0.0983506
-0.00647731
0.105643
-0.0315356
0.0827788
-0.292207
0.54736
-0.406217
-0.140874
-0.300159
-0.0913899
0.0632639
0.0281256
-0.407085
0.498686
-0.0919798
-0.400675
0.3025
0.232531
0.190254
-0.422541
0.15765
-0.460706
0.219505
-0.405958
0.259701
0.275713
-0.124475
0.211337
0.18537
-0.396486
0.476645
-0.250919
0.123157
0.0841453
0.12256
0.0958108
-0.145118
0.399845
-0.215527
-6.01211e-06
0.00494872
0.315662
-0.137773
-0.177884
-0.0409678
0.0957371
0.130804
-0.0279138
-0.00712737
0.0041839
0.00294351
-0.0365315
-0.110982
0.147499
0.175563
-0.230928
0.00967097
-0.00461576
-0.00505523
0.0845956
-0.188878
-0.0695897
0.068392
-2.7648e-05
-0.0683631
0.16824
-0.0688881
0.565427
-0.467273
-0.129786
-0.0968435
0.226602
0.014337
-0.347713
0.0912663
0.00122534
0.00127808
-0.00250348
0.284743
-0.292393
0.00769104
0.0729415
-0.0543098
0.0204694
-0.135332
-0.12029
-0.148291
-0.00739335
-0.00220061
0.142313
-0.193781
0.373126
0.507749
-0.0375291
-0.105418
-0.133224
0.431858
0.11579
0.161862
-0.474271
-0.0755897
-0.0610979
0.123217
0.124518
0.17145
-0.495784
-0.18804
-0.159645
-0.119733
-0.131202
0.0479244
0.0706831
0.118682
-0.23628
0.169683
0.398199
-0.568021
0.16157
-0.236647
-0.113739
-0.0567453
0.170483
0.109693
0.14573
-0.21337
0.47156
-0.258179
-0.00243456
0.00365985
0.183349
-0.298643
0.115256
-0.0109572
0.248208
-0.057103
-0.111872
0.208855
-0.17865
-0.136614
-0.0068845
0.00792492
0.0731072
-0.0553229
-0.0177726
0.00853961
-0.00668886
0.173004
-0.316915
0.143848
0.127243
0.101524
0.132108
-0.107557
-0.0245511
-0.175435
-0.299495
0.153509
0.587458
-0.13328
-0.106461
0.239767
0.351398
-0.476673
0.454095
-0.170535
-0.134998
-0.0749353
-0.012644
0.0110047
-0.064177
0.0531719
0.494125
-0.265683
-0.22845
0.309314
-0.131146
-0.178217
0.266913
-0.485997
0.0702301
-0.263922
0.119926
-0.257174
-0.230598
0.488192
0.122177
-0.126647
-0.113918
0.05369
-0.259388
0.205697
-0.39102
0.219259
0.171906
-0.232635
-0.180656
0.413446
-0.293308
-0.219381
0.513027
-0.145602
-0.0953347
0.240944
0.000491887
0.00321125
0.238728
-0.119675
0.186993
0.389437
0.0918982
-0.0129085
0.0100325
-0.231569
-0.184291
0.218618
-0.511598
0.383332
-0.230988
0.0775076
0.0066867
-0.11072
0.558434
-0.551119
-0.00726009
-0.359499
-0.27097
-0.140566
0.113604
0.0902898
-0.00414115
-0.0861492
0.564022
-0.307265
-0.256855
0.627644
-0.356231
0.199609
-0.106204
-0.0934352
-0.151863
-0.139141
0.2911
-0.23438
0.130061
0.104316
-0.21705
0.158117
0.0589078
-0.123042
0.0744257
-0.163178
0.468981
-0.229263
-0.239778
-0.0386879
-0.138331
0.177009
-0.0168023
0.0707753
-0.0539734
0.151416
-0.0304462
0.0141949
-0.139305
0.125105
0.101543
-0.207207
0.105632
0.10668
0.288137
-0.60643
0.162193
0.155551
-0.317825
-0.103174
-0.124762
0.212705
-0.122669
0.156884
0.161103
-0.318124
-0.189074
0.335689
-0.146587
0.583271
-0.281697
-0.301143
0.281789
-0.146361
-0.00595887
-0.0972786
0.0809728
0.0163055
-0.212541
0.15677
0.0557833
0.146475
-0.26677
0.307758
0.0996991
-0.172568
0.0728636
0.155612
-0.302211
-0.153885
0.207531
0.0524212
-0.128698
0.076278
0.101534
-0.213442
0.155209
-0.294605
-0.377102
-0.0446327
-0.0467574
-0.0106419
-0.0884358
0.0256449
0.443072
-0.468275
0.142241
-0.270554
0.1243
-0.150916
0.348758
-0.159877
0.50211
-0.266033
-0.235811
0.351644
-0.074159
0.198459
-0.0619256
0.19496
-0.133084
-0.15688
-0.0775057
0.00368414
-0.000835917
-0.00284824
-0.1397
-0.136265
-0.30981
-0.0121717
0.0163368
-0.261167
-0.215193
0.476274
-0.0658651
0.0768695
-0.532158
-0.0188313
0.551507
0.118571
0.0878898
0.0446818
0.292626
-0.275659
-0.0170269
0.398515
0.157988
-0.556501
-0.311372
0.161435
0.257272
-0.123393
-0.133879
0.086461
-0.00895421
0.155346
-0.276879
0.568431
0.00728481
-0.0633493
0.0560639
0.0550851
0.0974266
0.0910896
-0.155646
-0.000379506
-0.000754769
-0.0343511
0.152806
0.663501
-0.312916
0.096038
-0.121907
0.163625
-0.318647
0.155056
0.0141881
0.0750083
-0.0891963
-0.234113
-0.144989
0.280319
0.520329
0.0843999
-0.00528055
-0.00600718
0.31514
0.348378
0.049169
-0.266252
0.239342
0.125036
0.108718
0.0815839
0.104878
-0.157955
0.0967268
-0.260348
0.0430326
0.217302
-0.292207
0.106935
-0.143477
-0.194527
0.0919244
0.102577
-0.178277
0.427936
-0.2496
0.163401
-0.218042
0.054639
-0.346235
0.166192
0.0198062
-0.0301622
0.00485685
-0.0149906
-0.39252
0.169712
0.00384306
-0.263304
-0.299803
-0.0712439
-0.141286
0.321245
-0.562225
0.240857
0.000798788
0.00288534
-0.217749
-0.348692
0.136252
0.125599
0.432822
0.101341
-0.246943
0.112923
-0.245878
0.132984
-0.50112
-0.151722
0.652973
-0.133517
-0.257356
0.179467
-0.307253
-0.106467
-0.0535108
-0.0741469
0.160489
-0.0863438
-0.137843
0.291866
-0.153963
0.232322
-0.120646
-0.247675
0.142296
-0.150076
0.0727405
0.303547
0.148708
-0.132869
-0.130381
-0.143762
0.298026
0.206053
-0.0637448
0.13402
-0.22711
0.0931108
0.00455512
-0.505591
-0.503997
0.243099
0.0904044
-0.170295
0.0798874
-0.348703
0.17322
0.0859924
-0.101444
-0.0829707
0.231151
-0.0069228
0.0982115
-0.0912889
0.141829
0.121038
-0.262855
0.467326
0.140406
-0.329506
0.0898954
-0.207133
0.117255
-0.111904
-0.0551644
0.187778
-0.420205
0.129215
-0.101509
-0.0765828
0.178091
-0.103831
-0.394387
0.124712
-0.556195
-0.0310808
0.587334
0.0111993
-0.076503
0.0701773
0.00632573
-0.216049
0.0960417
0.120001
0.00204662
0.0115121
-0.10042
-0.0811796
0.181607
-0.105269
0.211122
-0.155646
0.0419053
-0.0601443
-0.0883577
-0.0792611
0.210831
0.00277289
-0.232784
0.0995215
-0.0606008
0.17377
-0.113176
0.134979
-0.286737
0.159988
-0.221965
-0.193222
0.344072
0.142887
0.0120173
-0.19597
-0.181156
0.375896
-0.194742
-0.0469937
0.0411544
0.235955
0.0797151
0.0335287
0.259039
-0.0551395
0.0969595
-0.0418188
-0.37212
0.183468
-0.107506
0.209068
-0.101566
-0.0754768
-0.21579
0.0888703
0.0301584
0.254614
-0.0224407
-0.0781854
0.100624
-0.263072
0.111176
0.151919
-0.266218
-0.260078
0.526332
-0.0844319
0.202858
0.00399413
-0.00271613
-0.0856992
0.0953525
-0.00965778
-0.205206
-0.138526
-0.09424
-0.209979
0.506848
-0.296561
-0.37296
0.324129
0.0488667
-0.01334
0.109605
0.226688
0.240611
-0.507483
0.266939
-0.187483
0.0810615
0.106414
0.144663
0.14712
-0.291782
0.00707112
-0.173622
0.166569
-0.190339
0.354224
0.469352
-0.0699074
0.0599525
0.00996132
-0.138517
-0.160899
-0.299486
0.360702
0.193805
-0.0351626
-0.158641
-0.142352
0.315312
0.397947
-0.116126
0.437156
0.0921098
-0.0900937
-0.145279
0.261584
-0.116343
-0.263319
-0.330636
0.422488
-0.207732
0.0933631
0.0827309
-0.176092
-0.125603
-0.130225
0.105382
0.11027
-0.215681
-0.152895
-0.153887
0.306824
-0.0902365
-0.0580081
-0.110193
0.31146
-0.154697
-0.250993
0.131335
0.119662
0.440178
-0.172553
-0.246268
0.486799
-0.00698892
-0.0680907
-0.0996366
0.167723
-0.104606
-0.0899463
0.0696286
0.15125
0.0642266
0.101527
-0.165759
-0.164941
0.0634282
0.158187
-0.0749784
-0.0832192
-0.0835168
-0.0720424
0.0704458
-0.198267
0.035157
-0.00654189
0.168045
-0.317728
0.143315
0.14936
-0.292754
-0.295252
0.52037
-0.516409
-0.0397692
-0.0511457
0.154471
-0.103332
-0.119037
-0.412615
-0.0542685
0.00352054
0.00651626
-0.0100368
0.125656
-0.0926545
-0.0330019
0.00293468
0.395601
0.0421788
0.15163
0.155139
-0.0582108
-0.0969275
-0.212458
-0.235689
0.448113
0.0756575
-0.0732591
-0.0289386
0.12069
-0.0917506
0.0421166
-0.0838843
0.120853
0.0918602
0.00103496
0.00328174
-0.00431675
-0.0681081
-0.0968363
0.110316
-0.0961176
0.00176529
-0.00621797
0.185827
-0.0833674
0.142778
-0.29807
0.147789
-0.0462723
-0.187405
0.367151
-0.179695
0.00274877
0.00110573
0.0956326
-0.23392
0.138287
0.0704505
-0.150625
0.0801713
0.391782
-0.221264
-0.17053
0.0912077
0.39827
0.0970466
-0.494943
-0.000589176
-0.00941078
0.00999991
0.00808644
-0.00533755
0.320214
0.263351
-0.583327
-0.00428834
0.0081136
-0.109384
0.0890061
0.0203772
-0.104484
-0.0966724
0.201164
-0.105703
0.182319
-0.0766247
0.133948
-0.448657
0.149172
0.00134279
-0.000307902
0.289997
-0.134409
-0.0239894
0.0940649
-0.00589193
0.00941246
0.231225
0.342263
-0.573265
-0.0329053
-0.227478
0.298739
0.231835
0.11236
0.0627429
-0.142337
0.0795823
0.0884018
0.0690603
-0.567523
0.0351513
0.363361
-0.0616733
-0.156365
-0.143295
-0.132778
0.276063
0.00487366
0.492106
-0.199627
0.0815393
0.118065
-0.314819
0.246
-0.467717
0.202496
-0.139833
0.0112995
0.125413
-0.136718
0.464936
0.0819425
-0.0135485
0.305758
0.383512
0.210467
-0.593773
0.0923578
0.11369
-0.0399071
0.10149
-0.0615827
-0.243769
0.262381
-0.230979
0.421425
-0.107586
0.128514
0.109327
-0.0727239
-0.0366043
-0.32644
0.183587
0.142933
-0.015528
0.177103
0.0934723
-0.104115
-0.0988151
-0.00656082
-0.000723861
0.00728465
0.227465
0.10217
-0.174446
0.0722711
-0.00583653
-0.000638597
0.00700031
-0.0417313
0.0347306
0.326461
-0.542576
0.216349
-0.228653
0.238863
-0.0886138
0.213553
0.0802714
-0.176915
0.0966359
0.034303
0.118926
0.242236
0.00426249
-0.00500549
0.000742898
-0.0779059
-0.109586
0.08071
-0.0950618
0.151377
0.133315
-0.2993
0.518295
0.00399973
-0.105892
0.226537
-0.120616
0.490991
0.326493
-0.582013
0.255656
-0.000484987
-0.00043911
0.000924012
-0.224513
-0.0683051
-0.299624
0.140658
0.205842
0.129876
0.119883
0.137388
0.55179
-0.0783317
0.148776
0.118758
-0.26409
0.0990854
0.140385
-0.239416
0.224223
0.233245
-0.45724
-0.0941812
-0.0537897
0.0593949
-0.117074
0.0414837
0.162345
-0.0996178
0.012338
-0.010844
0.0910081
0.0603552
-0.151368
-0.424377
0.162237
-0.0768705