/*--------------------------------*- C++ -*----------------------------------*\
| =========                 |                                                 |
| \\      /  F ield         | OpenFOAM: The Open Source CFD Toolbox           |
|  \\    /   O peration     | Version:  v2012                                 |
|   \\  /    A nd           | Website:  www.openfoam.com                      |
|    \\/     M anipulation  |                                                 |
\*---------------------------------------------------------------------------*/
FoamFile
{
    version     2.0;
    format      ascii;
    class       surfaceVectorField;
    location    "1000";
    object      ddtCorrDdt0(Uf);
}
// * * * * * * * * * * * * * * * * * * * * * * * * * * * * * * * * * * * * * //

dimensions      [0 1 -2 0 0 0 0];


internalField   nonuniform List<vector> 
14470
(
(-0.000324116 0.00070046 7.49515e-19)
(-0.000313683 0.000720843 2.4432e-19)
(-0.000332103 0.000669746 -9.92673e-18)
(-0.00933149 0.000115557 1.2825e-17)
(-0.0103512 -0.000227929 -6.79543e-17)
(-3.25567e-05 -0.00046481 -5.85095e-19)
(-3.67202e-05 -0.000463192 3.50282e-19)
(-3.26627e-05 -0.000435427 3.25932e-18)
(-0.00214497 0.00210095 9.29479e-18)
(-0.00180533 0.00317493 7.2258e-18)
(-0.00183444 0.00319157 -2.31586e-17)
(-3.43721e-06 0.000143301 -1.00578e-18)
(-3.34609e-06 0.000147125 1.8814e-18)
(-6.0472e-06 0.000183697 4.20868e-19)
(0.010979 -0.029536 -6.54808e-18)
(0.0104842 -0.0310717 5.28723e-17)
(0.00927032 -0.0302627 -6.49101e-17)
(-0.0117858 -0.00915521 1.33709e-18)
(-0.0111399 -0.00978761 -3.38741e-17)
(-0.012171 -0.0103221 -2.52506e-18)
(-0.020701 0.0116643 -3.11238e-18)
(-0.0238887 0.010707 3.05047e-17)
(-0.0119352 0.0120978 -3.47904e-18)
(0.00042175 -0.000933067 -1.77061e-19)
(0.000447726 -0.00099817 -4.65951e-19)
(0.000366323 -0.000980363 -5.48317e-19)
(-3.43384e-05 0.00014346 -1.27735e-18)
(-3.27035e-05 0.000152562 -6.14063e-19)
(-3.15586e-05 0.000148606 -2.90036e-20)
(-3.56552e-05 0.000141692 -2.6572e-18)
(-4.20105e-05 0.000132321 4.98032e-19)
(8.52927e-05 -0.000335479 2.16396e-18)
(7.85208e-05 -0.000342175 4.36233e-19)
(7.44709e-05 -0.000354479 1.24915e-18)
(0.00943561 -0.0312738 1.66769e-17)
(0.00619929 -0.0293794 -8.54851e-18)
(0.00673798 -0.0319132 1.94592e-17)
(0.000504846 -0.000294762 6.91018e-19)
(0.00048693 -0.000250328 3.36032e-19)
(0.000533738 -0.00028244 2.65344e-19)
(0.00646958 0.00277885 -1.31251e-18)
(0.00694592 0.0028862 -4.12991e-18)
(0.00654899 0.0032926 9.24746e-18)
(0.00456088 -0.0129798 8.54665e-18)
(0.00447226 -0.0138676 -6.11127e-18)
(0.00367478 -0.0133434 2.39426e-17)
(-2.50379e-05 -0.000467542 -3.39666e-19)
(-2.66041e-05 -0.000453658 1.69297e-18)
(-2.64818e-05 -0.000474766 -3.90232e-18)
(-0.0113608 -0.019772 -3.2327e-17)
(-0.0101654 -0.0181458 -4.33374e-17)
(-0.00918493 -0.0185605 -2.51402e-17)
(0.000116168 5.55634e-05 4.00352e-19)
(0.000100926 5.43386e-05 8.20117e-19)
(0.000113786 5.96563e-05 -1.454e-19)
(0.000400521 9.46881e-05 3.42553e-19)
(0.000414157 0.000112292 7.9357e-19)
(0.000373812 0.000106941 5.54369e-20)
(7.13109e-07 5.3263e-05 2.28769e-18)
(3.66744e-07 5.38179e-05 5.70314e-19)
(0.000228218 0.00328285 1.15261e-17)
(0.000810319 0.00444476 1.30385e-17)
(-0.000127489 0.0046796 -9.19881e-18)
(-0.0261522 0.0114168 -4.27713e-19)
(-0.0157586 0.0117807 -1.49485e-17)
(0.012547 -0.0308276 4.42887e-18)
(0.0128875 -0.0331728 2.67201e-17)
(-0.00168967 0.00140558 -6.82406e-18)
(-0.00162353 0.00132288 2.28038e-19)
(-0.00154254 0.00144667 2.04617e-18)
(-5.71761e-05 -6.67116e-05 9.73485e-19)
(-5.50811e-05 -9.03437e-05 -1.82371e-18)
(-6.20225e-05 -4.99432e-05 -2.42279e-19)
(-3.10421e-06 3.69109e-05 2.46726e-19)
(-3.68752e-06 4.22711e-05 1.57694e-18)
(-6.6784e-06 4.83174e-05 3.27053e-18)
(0.000117658 4.58692e-05 -3.35112e-19)
(0.000131932 5.4227e-05 -7.26294e-20)
(-0.00450064 -0.0156422 4.02734e-18)
(-0.00437491 -0.0164451 1.71954e-17)
(-0.00534491 -0.0160759 -8.42221e-18)
(0.0113859 0.0015292 -1.82628e-17)
(0.0114732 0.00131212 -4.44986e-17)
(0.0169798 0.00110331 -7.84672e-17)
(0.0136953 -0.0383036 1.29737e-17)
(0.00917045 -0.0360856 1.43576e-17)
(0.00935667 -0.0373819 -1.91184e-17)
(-3.89908e-05 -0.000448637 -6.46064e-19)
(-3.59044e-05 -0.000448578 1.81758e-18)
(-3.71393e-05 -0.00047337 6.83907e-20)
(-1.05764e-05 -0.000492257 -1.36198e-18)
(-7.36472e-06 -0.000487488 -3.38571e-19)
(-7.70919e-06 -0.000484191 -9.1663e-19)
(0.000126636 -1.09734e-05 -1.55347e-19)
(0.00012329 -1.315e-05 -9.74667e-19)
(0.000108792 -8.34836e-06 -1.6229e-18)
(0.00609527 -0.00379691 -2.02672e-18)
(0.00571816 -0.00389719 8.64571e-18)
(0.00604288 -0.0042144 -1.25214e-17)
(0.00519118 0.00196114 -7.31265e-18)
(0.00499426 0.0016494 8.72271e-18)
(0.00478321 0.00194612 9.38824e-18)
(2.2105e-05 0.00171592 1.23951e-17)
(6.88866e-05 0.00180622 -1.3926e-19)
(-8.42207e-05 0.00179492 2.7624e-19)
(-0.0165398 -0.020074 1.05202e-17)
(-0.0154143 -0.0184856 7.51807e-18)
(-0.0169313 -0.0200681 6.49381e-18)
(0.00153392 -0.0066711 -6.09242e-18)
(0.00157007 -0.00621646 4.80709e-18)
(0.00202003 -0.00652688 -1.7129e-17)
(-0.00469041 -0.0146214 1.84444e-17)
(-0.00374288 -0.0150305 1.40041e-17)
(-0.188085 -0.0409766 3.4648e-18)
(-0.187445 -0.0394395 3.6637e-17)
(-0.186735 -0.0398848 3.41282e-17)
(-0.0105299 -0.0372794 -4.02262e-18)
(-0.0126516 -0.0360801 1.63278e-18)
(-0.0136444 -0.0414362 -1.5931e-17)
(-1.39698e-06 2.50513e-05 -3.0301e-18)
(-2.83244e-06 3.4627e-05 -2.27158e-18)
(-7.17446e-06 -0.000517522 -7.46681e-19)
(-8.45436e-06 -0.000509982 -2.45085e-18)
(-8.391e-06 -0.000509666 -3.20877e-18)
(-1.586e-05 -0.00035891 6.30538e-20)
(-1.46524e-05 -0.000323176 2.62789e-18)
(-8.22391e-06 -0.00032347 1.43728e-19)
(0.0401535 0.0102733 -5.69546e-18)
(0.0385249 0.00982625 -1.7668e-17)
(0.0246036 0.0113168 2.58906e-17)
(-1.18519e-06 8.1275e-05 3.8368e-18)
(-3.75249e-06 4.33016e-05 8.94116e-19)
(-4.60557e-06 4.27302e-05 -1.43272e-18)
(0.000673849 0.000556219 -1.80823e-18)
(0.000600601 0.000581007 5.09522e-19)
(0.000673827 0.00064055 -8.32178e-19)
(-2.71264e-05 -0.000486204 2.73794e-18)
(-2.65099e-05 -0.000468073 -7.33645e-19)
(0.0065599 -0.00364576 4.57689e-18)
(0.00613978 -0.00338744 1.22121e-18)
(0.000128791 -1.41979e-05 -1.24057e-19)
(0.00013061 -1.0085e-05 7.51891e-19)
(0.00575458 -0.00777336 -4.51794e-18)
(0.00564122 -0.00835855 -8.60769e-18)
(0.006285 -0.00788347 -2.37357e-18)
(-1.06541e-05 0.000112144 2.4924e-18)
(-9.16504e-06 0.000124585 3.46457e-19)
(-0.00367336 0.0018485 -8.26147e-18)
(-0.00364479 0.00158831 6.68542e-18)
(-0.00393203 0.00168102 -1.12667e-18)
(-0.00237586 0.000975327 -3.6519e-17)
(-0.00256255 0.00103855 1.08299e-17)
(8.30857e-05 -0.000324534 -2.64045e-19)
(7.32233e-05 -0.000333221 -1.41526e-18)
(8.35465e-05 -0.000312931 1.12852e-18)
(0.0194391 -0.0125669 -3.95673e-18)
(0.0203012 -0.0119239 -6.05278e-18)
(0.0193477 -0.0114209 -1.44806e-17)
(0.000664782 0.000489103 -3.40416e-19)
(0.000740082 0.000536848 4.1209e-19)
(-2.7039e-06 4.66128e-05 -6.21633e-19)
(-0.000524982 0.00203928 -6.316e-18)
(-0.000528766 0.00212759 7.20761e-18)
(-0.000424074 0.00207939 3.28559e-18)
(-0.0101081 0.00617745 -1.43626e-17)
(-0.0106203 0.00576135 -3.77035e-18)
(-0.0107536 0.00675623 -1.61721e-17)
(-2.93322e-05 -0.000502068 1.2428e-18)
(-3.42225e-05 -0.000498951 2.17766e-18)
(-2.8355e-05 -0.000514218 -1.0828e-18)
(0.0114615 -0.00168166 -1.02563e-17)
(0.0108969 -0.00196774 -8.49841e-18)
(0.0110703 -0.00129593 -4.54663e-18)
(4.6415e-05 -5.60198e-05 -5.25125e-19)
(5.45456e-05 -5.07421e-05 -5.07695e-19)
(5.47318e-05 -6.08175e-05 -2.3307e-19)
(0.000381398 -0.000853651 -1.77197e-19)
(0.000457608 -0.000873073 1.28288e-19)
(0.0542294 0.00466293 3.57047e-17)
(0.0589257 0.00524278 -2.56001e-17)
(0.00220372 -0.00292487 -2.44172e-18)
(0.00205948 -0.00280751 1.66267e-18)
(0.00204816 -0.0030031 3.01962e-18)
(0.00539698 0.00230075 -1.15944e-17)
(0.0055309 0.00268093 6.68779e-19)
(0.0051019 0.00263427 -4.51141e-18)
(-0.0365091 -0.0386941 1.04556e-17)
(-0.0431932 -0.041552 -2.05621e-19)
(-0.0428964 -0.0425389 -8.34232e-18)
(-0.000129059 0.000230285 -2.80197e-18)
(-0.000133808 0.000246003 -3.04868e-18)
(-0.000152707 0.00020132 2.13251e-18)
(0.000528539 0.00938619 6.4939e-19)
(0.000833489 0.00983371 2.4404e-18)
(0.000247626 0.00991827 3.67162e-17)
(-0.0057488 0.00996414 1.9351e-17)
(-0.0155408 0.00843362 -1.5736e-17)
(-0.00662715 0.00812367 -1.21825e-17)
(0.031453 -0.0287623 1.83569e-17)
(0.0116692 -0.038846 1.55905e-17)
(0.0156516 -0.0374853 -1.0561e-18)
(-0.0831469 -0.0504668 -1.79776e-17)
(-0.0697472 -0.0467758 1.13896e-17)
(-0.0847805 -0.0488374 1.69167e-17)
(-3.54008e-06 8.22075e-05 1.28601e-19)
(-2.85501e-06 8.97611e-05 3.37318e-19)
(-8.38118e-06 0.000105364 -3.14885e-19)
(-0.00371109 0.00518116 -6.17012e-18)
(-0.00405962 0.00489888 1.84613e-18)
(-0.0035868 0.0048577 2.9837e-17)
(-0.159843 -0.0184022 -1.13898e-17)
(-0.153173 -0.0168221 -3.92156e-17)
(-0.1492 -0.0147184 3.74263e-17)
(-2.59317e-05 -0.000526187 -2.18227e-19)
(-2.70014e-05 -0.000527151 1.85396e-18)
(-3.03178e-05 -0.000524529 -9.63656e-19)
(-5.48093e-06 0.000136505 5.56025e-19)
(-4.66211e-06 0.000131458 -2.10554e-18)
(-1.89907e-06 9.36079e-05 -1.39822e-18)
(-0.00388004 0.00545531 5.15326e-18)
(-0.00350198 0.00536208 -1.78873e-17)
(-0.0117308 -0.021789 4.14195e-17)
(-0.0134098 -0.0215245 6.92651e-18)
(0.00463815 -0.0122039 -6.08923e-20)
(0.00535279 -0.0125856 -2.85548e-17)
(-0.00158869 -0.000504123 -2.52511e-18)
(-0.00159831 -0.000649704 -4.74454e-18)
(-0.00147246 -0.000586502 -1.91449e-18)
(0.00563511 0.00196765 -2.88129e-18)
(-0.0113524 -0.0269417 2.07348e-17)
(-0.0119667 -0.0252646 7.83162e-18)
(-0.0102597 -0.025608 -6.10411e-18)
(-5.59828e-06 0.000136192 2.82555e-20)
(-1.41249e-06 0.00016806 2.54818e-18)
(0.0200949 -0.00459249 3.26639e-17)
(0.0194162 -0.00427207 -4.61515e-18)
(0.020103 -0.00372973 5.19488e-18)
(-0.0177072 -0.0210157 -1.55225e-17)
(-0.0158079 -0.0197076 -6.84607e-18)
(-0.00948066 0.00593806 1.06526e-17)
(-0.00945409 0.00699982 -1.0812e-17)
(-0.000539421 -1.31899e-05 -3.19353e-18)
(-0.000876972 0.00137224 2.33996e-18)
(-0.00153788 0.000428381 1.18479e-17)
(-0.0268651 -0.0296697 6.18227e-17)
(-0.0182342 -0.032487 1.52823e-17)
(-0.0487053 -0.0259175 4.39785e-17)
(-0.038008 -0.025459 2.40269e-17)
(-0.0176953 -0.0290818 -2.51637e-17)
(-0.00236997 -0.00835452 -4.32908e-18)
(-0.00273202 -0.00889923 -6.88299e-18)
(-0.0020645 -0.00889996 8.91463e-18)
(-0.00765088 -0.0373296 -2.91275e-17)
(-0.0119482 -0.0368307 2.41437e-17)
(-3.79272e-06 -0.000377293 -2.98406e-19)
(-5.30838e-06 -0.000356696 -3.92948e-18)
(-3.00076e-07 -0.000387002 -2.4059e-18)
(-0.081611 -0.0527973 6.73174e-18)
(-0.102459 -0.055098 -2.0002e-17)
(0.0014053 -0.0130389 -5.92206e-18)
(0.000957882 -0.0124624 3.49894e-19)
(0.00175284 -0.012403 2.44704e-18)
(0.000408722 -0.00320687 1.39349e-18)
(0.000478614 -0.00342003 -4.13081e-18)
(0.000248546 -0.00334603 -1.75513e-18)
(-3.28565e-06 9.97859e-05 2.25443e-19)
(-4.21439e-06 0.000147898 1.75664e-19)
(-0.00599433 -0.0145815 -1.58886e-17)
(-0.00593754 -0.0160626 2.1168e-18)
(-0.00454289 -0.0150648 1.30137e-17)
(0.00518962 -0.00760279 -5.83914e-18)
(0.00572395 -0.00728424 1.16704e-18)
(0.0183164 -0.0944178 -2.47709e-17)
(0.0222447 -0.101736 -1.19457e-17)
(0.0268857 -0.0984227 -2.65013e-18)
(-7.46188e-06 -0.000523328 2.292e-20)
(-1.05302e-05 -0.000520224 -1.07486e-18)
(-0.0726986 -0.03753 2.21189e-18)
(-0.0625431 -0.0353505 1.58132e-17)
(-0.0664574 -0.0369526 -8.91549e-18)
(-0.146477 -0.0134967 -4.27784e-17)
(-0.131539 -0.00741415 -1.33879e-17)
(-0.136171 -0.0101079 -1.359e-17)
(0.0486868 -0.0181242 -1.35503e-17)
(0.0476627 -0.0167664 7.62649e-19)
(0.000135676 -0.000146992 -5.60218e-19)
(0.000137138 -0.000153841 1.71251e-19)
(0.000129 -0.000167743 1.3475e-18)
(-2.34453e-05 -0.000527253 -1.28585e-18)
(-2.46917e-05 -0.000520723 -1.7845e-18)
(1.8291e-06 5.28732e-05 -1.14856e-18)
(-1.16823e-05 7.55997e-05 1.13845e-18)
(-1.29411e-05 7.26365e-05 -9.16819e-19)
(-1.55497e-05 7.98088e-05 -9.57921e-19)
(-0.000411368 0.00255774 2.21201e-17)
(0.00104355 0.00192406 6.77622e-18)
(-2.15346e-06 0.015667 2.95482e-17)
(0.00130469 0.0152842 -8.31208e-17)
(0.000636409 0.0141076 1.52463e-16)
(0.00977086 0.00108969 4.59473e-17)
(0.0102343 0.00108076 3.61468e-17)
(0.0129307 0.000799906 -2.5423e-17)
(-0.000109321 0.00022994 -7.11566e-19)
(-0.000119421 0.000219267 2.80374e-18)
(-5.58672e-05 1.5854e-05 8.22369e-19)
(-6.00176e-05 -1.68095e-05 -6.91997e-19)
(-5.38942e-05 -3.17315e-05 1.1762e-18)
(0.00356988 0.00445801 1.8908e-18)
(0.00317654 0.00458119 -1.73898e-18)
(0.00355673 0.00499613 5.73552e-18)
(-2.99552e-05 -0.00031812 -1.0548e-18)
(-2.96447e-05 -0.000278849 -2.99934e-18)
(-2.89881e-05 -0.000318522 -3.94659e-18)
(-0.00275065 -0.000180437 -5.30105e-17)
(-0.00337711 -0.00121132 -1.51405e-17)
(-0.00331382 -0.00154747 -5.52465e-17)
(-4.03943e-06 -0.000402084 -5.74638e-19)
(-1.18003e-05 -0.000414749 -8.9581e-19)
(-1.2807e-05 -0.00042883 2.24865e-18)
(-0.0575795 -0.0345333 2.64055e-17)
(-0.058655 -0.0341868 4.95942e-18)
(-0.0506867 -0.0335271 2.59424e-17)
(0.0207956 -0.00491112 -4.73703e-18)
(0.0201502 -0.00552849 1.08803e-17)
(-0.142351 -0.05764 6.04979e-17)
(-0.12673 -0.0570568 -1.15489e-17)
(-0.132743 -0.057949 3.29655e-17)
(0.00927219 -0.00832435 -7.12085e-18)
(0.0100085 -0.00826572 -4.92536e-18)
(0.00955351 -0.00761871 -5.73445e-18)
(0.00478988 0.00131629 7.76128e-19)
(0.00519496 0.00128592 -2.48613e-18)
(-3.7676e-06 -0.00039111 -1.26737e-18)
(7.4408e-07 -0.00035865 4.6124e-19)
(0.00243313 -0.0142947 1.47691e-19)
(0.00285203 -0.0149491 1.20047e-17)
(0.00189214 -0.0150161 7.81423e-18)
(0.0118796 0.00196889 2.6916e-17)
(0.00779086 0.00197041 -6.15788e-17)
(0.0237746 -0.00568258 -1.82716e-17)
(0.0241905 -0.00545131 6.51603e-19)
(0.0235855 -0.00519592 -3.35034e-17)
(0.0229532 -0.00625129 3.11847e-17)
(0.0243622 -0.0063128 1.18352e-17)
(0.00387256 -0.00101628 3.05796e-18)
(0.00392339 -0.000754534 1.86696e-18)
(0.0036894 -0.000867581 1.12019e-18)
(0.000183187 -4.14451e-05 3.78284e-19)
(0.000191076 -2.63514e-05 -1.49752e-18)
(0.000183301 -3.95487e-05 4.65726e-19)
(-0.000316426 0.00070314 1.6347e-18)
(-0.000356191 0.000680055 2.56275e-18)
(0.00209009 -0.00236332 -1.37409e-18)
(0.00189217 -0.0022683 -6.96412e-18)
(0.00204551 -0.00215171 5.54309e-19)
(0.00533801 -0.00380817 1.76438e-17)
(0.00523179 -0.00347296 -7.6852e-18)
(0.00494922 -0.00375221 8.61726e-18)
(-0.0140481 -0.0158459 -7.68332e-18)
(-0.0142777 -0.0146325 8.7103e-18)
(-0.0153395 -0.01558 -9.7148e-18)
(0.0363541 -0.0390171 -5.90203e-18)
(0.0364425 -0.0368154 -9.677e-18)
(0.0386864 -0.0356731 1.83616e-17)
(0.00396674 0.00443765 -3.52797e-18)
(0.0035923 0.00403877 2.87788e-19)
(-3.93778e-06 7.73884e-05 2.79629e-18)
(-1.48767e-06 5.50867e-05 -1.48157e-19)
(0.00604928 -0.0147058 2.48961e-17)
(0.00661584 -0.0151233 1.63478e-17)
(0.00576009 -0.0153374 5.85489e-18)
(-0.0132534 -0.0261051 -3.36501e-17)
(-0.0124187 -0.0240126 1.81274e-17)
(-0.0153045 -0.025107 -5.2839e-17)
(0.00539009 -0.00415536 1.85023e-17)
(-0.000223761 8.44105e-05 -7.12625e-18)
(-0.000155747 0.000103629 5.8047e-19)
(-0.000201512 0.000132311 -2.5844e-19)
(0.0171279 -0.00410905 -3.31649e-17)
(0.0177969 -0.00360397 -1.30319e-17)
(0.0169839 -0.00331356 -5.089e-18)
(0.0415737 0.0107482 2.32957e-17)
(0.042655 0.0111382 1.00887e-17)
(0.024478 0.0115001 1.93905e-17)
(-0.025001 -0.00230976 7.33313e-18)
(-0.024115 -0.00145794 6.93126e-18)
(-0.0257402 -0.0008036 1.57523e-17)
(-1.46218e-06 -0.000393544 -6.61449e-19)
(3.20695e-06 -0.000357707 4.86621e-18)
(-0.0823456 -0.0564561 3.35624e-17)
(-0.0718684 -0.0489548 1.57549e-18)
(0.000171144 -5.68172e-05 -1.03344e-18)
(0.000179937 -3.85969e-05 9.73009e-19)
(-5.28313e-07 -0.000421981 -7.63032e-19)
(-5.56602e-05 -0.000219283 -9.27772e-19)
(-5.28712e-05 -0.000183069 -8.25312e-19)
(-5.73932e-05 -0.000170973 5.43868e-20)
(-0.0114062 0.00253953 2.49567e-17)
(-0.0287633 0.00736133 -2.84592e-18)
(-0.018517 0.00299619 -4.87691e-17)
(0.000323084 -0.00296634 3.64607e-19)
(0.000552371 -0.00302289 3.01054e-18)
(-5.79889e-05 -4.8867e-05 1.33768e-19)
(-5.99967e-05 -8.14451e-05 -1.04657e-19)
(-2.92474e-05 -0.000169974 8.07228e-19)
(-3.84957e-05 -0.000173754 -1.24684e-18)
(-3.64975e-05 -0.000126648 3.4242e-18)
(-0.0360807 -0.0260853 5.15319e-18)
(-0.0199642 -0.030577 -2.13631e-18)
(-0.027754 -0.0261909 -4.17774e-18)
(0.00531196 -0.014291 -1.83705e-17)
(0.00431073 -0.0146281 -1.31588e-17)
(-2.80104e-05 -0.000502205 -4.63661e-19)
(-2.85451e-05 -0.000484042 4.06122e-18)
(0.0167372 -0.0402879 2.34165e-17)
(0.0142325 -0.0408016 -8.5648e-18)
(-0.000114012 5.26363e-06 -2.11106e-18)
(-0.000111112 -2.26716e-05 1.83826e-18)
(-0.000121021 -5.68187e-06 3.32044e-18)
(0.0186333 -0.00395191 -1.13731e-17)
(0.0187579 -0.00482123 -2.60224e-17)
(0.00407408 -0.00118087 -2.9769e-18)
(0.00381593 -0.00125691 8.68904e-19)
(0.000427385 8.3602e-05 1.94451e-18)
(0.000387314 7.77991e-05 7.03453e-19)
(-0.00807779 0.0132304 1.56596e-17)
(-0.00878611 0.0135376 -9.13182e-18)
(-0.0078375 0.0140703 3.39542e-18)
(0.0016793 7.13342e-05 1.85504e-19)
(0.00169244 -3.66097e-05 -2.80947e-18)
(0.00158525 -5.88398e-06 3.4833e-18)
(-0.168739 -0.0231006 2.99477e-18)
(-0.164166 -0.0214353 2.65887e-17)
(0.022933 -0.106276 2.40278e-17)
(0.0202737 -0.111834 -2.63211e-18)
(0.0269007 -0.111084 -1.97812e-17)
(0.00195285 -0.000261066 -2.42552e-18)
(0.00194225 -0.000382479 2.29977e-18)
(0.00182138 -0.000319012 -2.46084e-18)
(0.000134409 -0.000140902 4.94301e-19)
(0.000132412 -0.000135933 9.44386e-19)
(0.00012643 -0.000155044 7.62827e-19)
(-2.31234e-05 0.00015901 1.00558e-18)
(-2.09303e-05 0.000155968 -9.29597e-19)
(-2.12478e-05 0.00015855 1.43406e-18)
(-0.000198967 9.01343e-05 -4.03554e-18)
(-0.000230541 0.000119451 -9.5098e-19)
(0.00702099 0.00036137 2.92382e-17)
(0.00616605 0.000418213 -5.44354e-17)
(0.00720723 0.000314757 -4.51073e-17)
(-0.0339604 0.0106826 -6.36376e-17)
(-0.0236836 0.0083482 6.32189e-17)
(-0.020472 0.00618767 -8.49901e-17)
(-0.0181476 -0.0379001 3.00092e-17)
(-0.0162952 -0.0366427 -1.36548e-17)
(-0.0201694 -0.0351353 1.31657e-18)
(8.85668e-05 -0.000324084 -4.37252e-21)
(9.43193e-05 -0.000313238 -2.68317e-19)
(0.0113475 -0.0276038 7.87705e-18)
(0.0127597 -0.0283032 -1.07696e-17)
(-0.0163323 0.000268964 1.33075e-17)
(-0.0162306 -0.000867942 1.53416e-18)
(-0.0153289 -0.000196019 4.76294e-18)
(-0.00943055 0.0155052 -2.25861e-17)
(-0.00908239 0.0168115 1.22033e-17)
(-0.00822532 0.0154118 1.1414e-17)
(-2.5598e-05 -0.00052837 1.6654e-18)
(-2.92622e-05 -0.000528221 -6.81659e-19)
(-2.69479e-05 -0.000527536 -4.66596e-18)
(0.00263171 -0.00274598 3.23901e-18)
(0.00235799 -0.00267073 -1.10708e-18)
(0.00259373 -0.00248338 4.54697e-18)
(-0.0868996 -0.0402824 9.50711e-18)
(-0.082021 -0.03754 -2.0344e-18)
(0.0621888 0.00795698 -4.61783e-17)
(0.021413 -0.00448358 -1.96501e-17)
(0.0215265 -0.00539967 -2.78047e-17)
(-1.72751e-05 -0.000396762 -3.10285e-19)
(-1.84567e-05 -0.000401034 -9.25191e-19)
(-2.05536e-05 -0.00021148 -8.1238e-19)
(-2.14323e-05 -0.000169356 9.65827e-19)
(-1.74768e-05 -0.000171009 -5.5183e-18)
(0.000141332 -0.000126382 -2.03754e-19)
(-0.158761 -0.0551986 1.0935e-17)
(-0.151601 -0.056511 1.10066e-17)
(-0.00427622 0.0114237 2.01343e-17)
(0.00402341 0.0112713 2.77277e-17)
(-0.0459216 0.0144326 3.53773e-17)
(-0.0476109 0.0116781 1.61198e-17)
(0.0122533 -0.0888966 4.81058e-17)
(0.0108569 -0.0909201 1.47306e-18)
(0.000359074 -0.000759483 -2.9806e-20)
(0.000338485 -0.000673407 2.84302e-19)
(0.000412468 -0.000712826 -9.87405e-20)
(0.00340019 0.00538158 2.61463e-18)
(0.0013785 0.00708053 -9.45945e-18)
(0.00169406 0.00447389 -1.77578e-17)
(-0.00122887 0.0126452 4.14376e-19)
(-0.00152362 0.0147437 1.23167e-17)
(-0.00363388 0.0127955 -4.02285e-17)
(-0.000667216 0.00184145 4.9338e-18)
(-0.000494933 0.00183347 -2.5419e-18)
(-0.000566754 0.00169671 5.03618e-18)
(0.000604616 0.000986466 5.50485e-19)
(0.000627959 0.000896107 -4.84229e-19)
(0.000539729 0.000917655 1.10596e-18)
(-0.00123978 0.00031277 7.48125e-19)
(-0.00112266 0.000309786 1.84425e-18)
(-0.00115252 0.000429807 -9.18705e-19)
(0.000920599 0.0151298 -1.40912e-17)
(0.001263 0.0153896 -2.68695e-17)
(0.00102442 0.0155336 -3.19544e-17)
(9.57181e-05 5.19463e-05 1.69445e-19)
(0.000106503 5.54668e-05 -2.32755e-19)
(0.000114208 5.21648e-05 -5.79089e-19)
(-3.05804e-05 -0.000430871 4.87026e-18)
(-3.45936e-05 -0.000447812 4.35091e-18)
(-2.39888e-05 0.000232062 -1.76472e-19)
(-2.65339e-05 0.000227495 1.37057e-19)
(-2.09671e-05 0.000230504 5.23328e-19)
(-0.000153545 0.000277055 -3.46428e-18)
(-0.000160958 0.000316812 1.25649e-18)
(-0.000177425 0.000287337 2.35901e-18)
(0.000442278 0.000185229 5.25776e-19)
(0.00043821 0.000221118 2.74468e-19)
(0.000398414 0.000191776 -1.15417e-18)
(0.0070665 -0.0031156 -4.26757e-18)
(0.00698777 -0.00356033 -3.52182e-18)
(0.00743994 -0.00346521 -4.49688e-18)
(0.00509846 -0.000671781 1.01509e-17)
(0.0053359 -0.000912169 1.18751e-17)
(0.00537137 -0.00052238 1.44946e-17)
(-0.0083632 -0.0111166 6.25674e-18)
(-0.00747283 -0.00971202 -7.77186e-18)
(-0.00764482 -0.0103153 -9.61154e-18)
(-4.30893e-05 1.19642e-05 -2.83612e-18)
(-6.16547e-05 3.53996e-05 1.05553e-17)
(-5.05032e-05 -1.01193e-05 -1.93671e-18)
(0.00182948 -0.00552768 1.06453e-18)
(0.00186802 -0.00521459 3.43205e-18)
(0.00154245 -0.00529538 -5.2259e-18)
(0.00194447 -0.000146911 5.03539e-19)
(0.00208117 -0.000210108 3.21975e-18)
(-0.000560352 0.000433669 3.41498e-18)
(-0.000524421 0.000459405 -1.22462e-17)
(-0.000527125 0.00041819 1.00665e-18)
(-0.0157668 0.0116496 7.41891e-18)
(-0.0148259 0.0125927 -2.70021e-18)
(-0.0165649 0.0130791 4.20524e-18)
(0.00615745 -0.0139777 7.03819e-18)
(-0.0139556 -0.0285798 1.59672e-17)
(-0.0102189 -0.0284229 -4.02731e-17)
(9.7972e-05 6.43709e-05 5.17122e-19)
(9.54039e-05 6.16293e-05 -4.55206e-20)
(0.000100185 6.59474e-05 1.50927e-19)
(-0.0314884 -0.035958 3.14162e-17)
(-0.0313297 -0.0362482 3.40126e-17)
(-0.0015667 -0.000374261 4.3971e-18)
(-0.00170186 -0.000415887 3.10109e-18)
(0.015028 0.0101368 -3.26339e-19)
(0.0162636 0.0105474 -2.13119e-18)
(0.015129 0.0114197 8.58819e-18)
(0.000479733 -0.000316469 2.07724e-19)
(0.000533603 -0.000337535 3.4434e-19)
(-0.0140506 -0.0172988 -5.60236e-18)
(-0.0130297 -0.0164394 -1.00779e-17)
(-5.22961e-05 5.38842e-05 4.258e-19)
(-5.03442e-05 4.80632e-05 4.81289e-18)
(-0.00181185 0.0064569 -6.52475e-18)
(-0.00155727 0.00597717 -2.45964e-17)
(-0.00114557 0.00656693 -6.57452e-18)
(0.00187637 -0.0136004 -1.05528e-17)
(0.00101431 -0.0136451 4.38829e-19)
(0.000435625 0.000164748 -7.49064e-19)
(0.000469564 0.000170888 -1.21335e-18)
(0.00513324 0.0169599 -2.07534e-17)
(0.00583601 0.0163981 9.17532e-18)
(0.00608584 0.0172618 -5.50261e-18)
(-0.0124352 -0.0507272 1.87289e-17)
(-0.0150214 -0.0520879 -3.90682e-17)
(-0.0105303 -0.0547205 -1.72333e-17)
(-0.00270397 -0.00798208 -9.28222e-19)
(-0.00219801 -0.00799109 -7.93513e-18)
(-4.7833e-07 -0.000260147 -8.46575e-20)
(-1.73327e-05 -0.000291494 2.39707e-19)
(-1.14368e-05 -0.000267525 -5.65263e-20)
(0.0117849 -0.00954969 1.50642e-17)
(0.0108974 -0.00953604 7.72424e-18)
(0.0112291 -0.010484 1.42966e-17)
(0.00187701 -0.0801768 1.02351e-17)
(-0.000683369 -0.0753979 5.06433e-18)
(-0.00137243 -0.0781548 7.82491e-18)
(-0.00239609 0.0061715 1.62794e-17)
(-0.00190325 0.00634018 -1.57252e-17)
(-0.00215492 0.00581813 -2.28828e-18)
(-0.00260533 0.00639756 -1.71598e-17)
(-0.00263261 0.0059533 7.91493e-18)
(-0.00708834 -0.0078788 1.30921e-17)
(-0.00778011 -0.00903295 -1.47151e-17)
(-0.00688809 -0.00760267 2.40853e-17)
(0.0244165 -0.00509664 1.90073e-17)
(0.0244141 -0.00486222 1.29934e-17)
(0.0243521 -0.00500777 3.50789e-17)
(0.0147538 0.00897808 -5.26484e-18)
(0.0139536 0.00988578 -8.37999e-18)
(0.0120351 -0.00150684 -8.48549e-18)
(0.0118674 -0.00219189 1.25954e-17)
(-0.000676478 0.0130332 -5.35358e-18)
(-0.0014179 0.0133897 2.77611e-17)
(0.00021363 0.000571221 -8.75384e-19)
(0.000190299 0.000623776 -8.5388e-19)
(0.000167038 0.000582651 -6.09264e-19)
(0.00427193 0.00403349 1.26992e-17)
(0.00783557 0.00132516 9.97746e-17)
(0.00950161 0.0011193 -6.73612e-18)
(9.72418e-05 5.31752e-05 3.57915e-20)
(9.20292e-05 4.72287e-05 2.99326e-20)
(-1.48226e-05 0.000237383 -1.22941e-18)
(-1.50202e-05 0.000241097 -1.06304e-18)
(-1.15059e-05 0.000226488 -4.5002e-20)
(-0.187447 -0.0417016 1.74707e-18)
(-0.169551 -0.0412403 8.30425e-18)
(-0.000106346 -9.91634e-05 1.64506e-18)
(-0.000106913 -0.000104456 7.96956e-19)
(-0.000108023 -6.49101e-05 6.76496e-18)
(-9.15826e-06 7.19762e-05 1.42613e-18)
(-1.23377e-05 8.12397e-05 2.03521e-18)
(0.0228993 -0.0100448 -7.64023e-18)
(0.0232522 -0.0111582 -3.6835e-18)
(0.0219414 -0.010565 -5.64398e-18)
(0.0235739 -0.0122944 2.65959e-17)
(0.02254 -0.0130231 2.43767e-17)
(0.024063 -0.0137236 -3.90788e-17)
(0.000301762 -0.00081389 -6.01587e-20)
(0.00275356 -0.00259833 -1.64018e-18)
(0.00283249 -0.0028652 2.73356e-18)
(0.0017242 -0.00586154 7.20208e-18)
(0.00213114 -0.00574151 5.26235e-18)
(-0.00588784 -0.000359623 -4.28644e-18)
(-0.00563375 9.71101e-06 5.98909e-18)
(-0.00604706 -1.603e-05 7.80439e-18)
(0.00337158 -0.00235593 -2.25288e-19)
(0.00326962 -0.00217239 2.3215e-18)
(0.00348236 -0.00214398 -1.63268e-17)
(-2.73126e-05 -0.000529114 1.88461e-18)
(-0.0060983 -0.00695018 2.8847e-18)
(-0.00561345 -0.00714094 1.29065e-18)
(-0.00562512 -0.00658635 -2.30795e-18)
(-0.00399561 -0.00443078 -2.67808e-18)
(-0.0031216 -0.00346865 1.31374e-17)
(-0.00422256 -0.00538874 1.82167e-18)
(0.000426206 0.000136019 -6.15338e-19)
(0.000397331 0.000151063 -7.63849e-19)
(-0.0156444 -0.0438639 -2.4805e-17)
(-0.0169176 -0.0407296 5.78276e-18)
(-0.0129519 -0.0428459 -5.18251e-17)
(-5.01224e-06 0.000137123 -4.42711e-19)
(-1.07838e-05 0.000112315 -8.85299e-19)
(-4.6751e-05 0.000118979 -9.89614e-19)
(-4.29413e-05 0.000136723 -3.41265e-18)
(-4.64332e-05 0.000122226 -1.47131e-18)
(5.6195e-05 1.8898e-05 9.4143e-20)
(4.6598e-05 2.16931e-05 -4.7861e-21)
(4.17966e-05 2.15188e-05 2.02611e-20)
(-0.00216488 0.000686431 -1.55069e-18)
(-1.50669e-06 -0.000525012 4.45203e-19)
(-3.12778e-06 -0.000525327 1.96806e-18)
(-4.88237e-06 -0.000525029 -2.79085e-19)
(-0.0480896 -0.0238294 1.15891e-17)
(-0.0644515 -0.0189628 -3.5055e-17)
(-0.0414569 -0.0369452 2.97404e-17)
(-0.0482503 -0.0387334 4.59777e-17)
(-0.0446868 -0.0372364 -5.56613e-17)
(-4.44066e-05 -2.12136e-05 -4.84147e-19)
(-4.59831e-05 -1.82928e-05 7.13447e-19)
(-4.34946e-05 -4.39541e-05 1.31003e-18)
(-4.79125e-05 8.52953e-05 8.82709e-19)
(-5.52732e-05 5.61499e-05 -2.76441e-20)
(-0.102506 -0.0237137 -2.65707e-18)
(-0.0735937 -0.0297362 -3.16874e-17)
(-0.0558658 -0.0306983 -5.62043e-17)
(7.58e-05 1.33983e-05 -5.0843e-20)
(6.80973e-05 1.29621e-05 -2.6661e-19)
(-1.10864e-05 0.000182769 -2.19289e-18)
(-1.11752e-05 0.000178388 3.09051e-18)
(-1.55488e-05 0.00019862 2.46493e-18)
(4.57673e-05 1.43587e-05 4.48356e-19)
(5.03238e-05 1.52982e-05 -4.39933e-20)
(6.43619e-05 7.8202e-06 -2.8308e-19)
(-0.0379523 -0.0353525 6.71681e-19)
(-0.0370441 -0.0339616 2.0438e-17)
(-0.007776 0.012453 1.95019e-17)
(-0.0070885 0.0130306 -1.07785e-17)
(-0.0014586 0.00112956 -8.1656e-19)
(-0.00137418 0.00107017 -1.79459e-18)
(-0.00151017 0.00102522 8.31643e-19)
(-0.0175245 0.00929433 1.05586e-18)
(-0.0168619 0.00809231 2.01049e-18)
(-0.0182711 0.00808518 -3.96126e-20)
(0.0185723 -0.0131144 9.10196e-18)
(0.0176273 -0.0135721 2.48751e-17)
(0.0176596 -0.0124288 -1.98027e-18)
(0.0180471 -0.102947 -3.19141e-17)
(0.00282511 0.00548971 -2.72037e-18)
(0.00168302 0.00623505 -1.25812e-17)
(0.00281441 0.00489089 7.54606e-18)
(0.00193269 -0.00050794 5.82314e-19)
(0.00208346 -0.000463553 -1.16048e-18)
(0.00459079 -0.0187535 -8.5784e-18)
(0.00031623 -0.00810567 6.95892e-18)
(0.0170108 -0.0168943 4.35268e-17)
(-8.95544e-06 9.80843e-05 -1.49813e-18)
(-8.59815e-06 0.000127273 -4.12593e-19)
(-7.37227e-06 9.61159e-05 -2.10838e-18)
(0.00477293 -0.0815925 -2.08233e-17)
(0.00365202 -0.0852642 -2.92856e-17)
(-0.0103018 0.029225 -4.26501e-19)
(-0.00454075 0.0280789 9.79264e-18)
(-0.0102504 0.0309635 -1.86156e-18)
(-0.0147182 -0.0228257 -1.82329e-17)
(-0.0165365 -0.0239379 8.01486e-18)
(-0.0147512 -0.0243596 6.27709e-17)
(-0.0544889 -0.034485 7.5342e-18)
(0.0240946 -0.00516973 -2.76312e-17)
(0.0244379 -0.0054652 -2.09684e-17)
(0.00394424 -0.000502921 9.0652e-21)
(0.00416827 -0.000642184 1.07971e-18)
(0.00467254 -0.0114836 1.31835e-17)
(0.0039838 -0.0117664 2.93593e-17)
(0.004843 -0.000834115 -1.25779e-17)
(0.0048637 -0.000501041 -1.62596e-17)
(0.000589727 0.00108284 -2.62033e-18)
(0.00054245 0.00120748 -1.45627e-19)
(0.000478311 0.00111157 -9.96848e-19)
(0.00217513 0.000302904 1.87337e-18)
(0.00232441 0.000333551 1.41317e-18)
(0.00219462 0.000482008 2.23934e-18)
(-0.0167601 0.0102954 -1.47758e-19)
(-0.0151343 0.010372 -9.39301e-19)
(-0.00182972 0.00141413 -6.88008e-18)
(-0.00174 0.0015725 -9.4669e-18)
(-4.6353e-05 0.000113847 -6.17072e-19)
(-4.10237e-05 0.00011693 1.10825e-19)
(-1.19202e-06 1.45099e-05 1.59375e-18)
(-1.40673e-07 7.35739e-06 8.97888e-19)
(-2.36923e-07 8.05546e-06 1.06091e-19)
(9.92592e-05 6.3285e-05 6.78011e-19)
(0.000105123 6.74559e-05 -2.49501e-19)
(-2.92103e-05 1.54545e-05 3.94641e-19)
(-3.83941e-05 1.35027e-05 -4.73182e-20)
(-2.35713e-05 1.76553e-05 4.88676e-19)
(0.000455446 0.000122107 5.89253e-21)
(0.0045649 0.00261407 -1.85741e-17)
(0.00337107 0.00363254 -3.06238e-18)
(0.0034508 0.00269463 -2.33073e-19)
(0.000143613 -0.000167291 -3.65962e-19)
(0.000148799 -0.00014554 7.20998e-19)
(0.000138557 -0.000164242 -1.40284e-19)
(0.00045137 -0.000224308 -3.60468e-19)
(0.000419776 -0.000197907 -8.57403e-20)
(0.000424721 -0.000237626 1.29767e-19)
(-4.6338e-05 1.28746e-05 -2.56815e-19)
(-4.44282e-05 1.28201e-05 -8.30592e-19)
(-3.62151e-05 1.92613e-05 -1.13082e-18)
(8.2873e-05 -0.000332837 2.91391e-19)
(9.15651e-05 -0.000312857 1.19155e-18)
(-0.00335791 -0.0075937 -7.14843e-18)
(-0.00303605 -0.00628379 2.11597e-17)
(-0.00191251 -0.00463154 1.0006e-17)
(-0.024845 -0.00350294 4.67847e-18)
(-0.0258745 -0.00315777 -6.4917e-18)
(0.00169491 0.00767295 1.6287e-17)
(0.00133196 0.00742898 3.73038e-17)
(0.00118139 0.00794362 -1.29034e-17)
(-0.000361423 0.000991096 -1.85219e-18)
(-0.000448992 0.00105559 6.54563e-18)
(-0.000290837 0.00108732 3.76292e-20)