/*--------------------------------*- C++ -*----------------------------------*\
| =========                 |                                                 |
| \\      /  F ield         | OpenFOAM: The Open Source CFD Toolbox           |
|  \\    /   O peration     | Version:  v2012                                 |
|   \\  /    A nd           | Website:  www.openfoam.com                      |
|    \\/     M anipulation  |                                                 |
\*---------------------------------------------------------------------------*/
FoamFile
{
    version     2.0;
    format      ascii;
    class       surfaceScalarField;
    location    "1000";
    object      phi;
}
// * * * * * * * * * * * * * * * * * * * * * * * * * * * * * * * * * * * * * //

dimensions      [0 3 -1 0 0 0 0];
oriented        oriented;


internalField   nonuniform List<scalar> 
14470
(
-0.118318
0.254862
-0.136544
-0.00615492
0.00577134
-0.199457
-0.205315
0.40482
-0.00122341
0.00346981
-0.00224639
-0.365661
-0.213
0.57878
0.103191
0.0502996
-0.153489
-0.171544
0.0892315
0.0823146
0.016632
-0.0149852
-0.00164673
-0.199457
0.355777
-0.15632
0.70343
-0.370099
-0.333257
0.319771
0.383723
0.651919
-0.409935
-0.242089
-0.0108227
0.0174416
-0.00661944
-0.0287776
-0.344736
0.37363
-0.234936
-0.0558947
0.290888
0.101801
0.119001
-0.22079
-0.239413
0.467778
-0.228479
0.0111067
-0.0141683
0.00306161
-0.530375
0.0768662
0.453505
-0.523844
0.362474
0.161343
0.322201
0.274814
-0.00336999
0.000370575
0.00299943
0.00573204
0.0109
0.00286068
-0.013684
0.212542
-0.0880926
-0.124449
-0.0852925
0.480832
-0.395542
-0.568513
-0.0343117
0.602724
-0.471434
-0.0589407
-0.0620463
0.161938
-0.0998899
-0.0181474
0.0199337
-0.00178627
0.0679632
0.0831161
-0.151079
-0.257021
-0.185878
0.443036
-0.525463
0.346288
0.179193
0.574117
-0.587596
0.0134532
0.280763
-0.204629
-0.0761126
0.191329
-0.346183
0.154857
-0.224395
0.157325
0.0670761
-0.0173613
0.00248153
0.0148797
-0.0379796
-0.17623
0.214222
-0.176852
0.114808
0.078095
-0.0859726
0.00787803
-0.0211497
0.0120286
0.00912115
-0.612699
0.0442218
-0.458932
0.317555
0.141348
0.542064
-0.289609
-0.2525
-0.0169984
0.0204786
-0.00348025
0.597269
-0.354461
-0.242736
-0.494301
0.199826
0.294392
-0.454921
0.215418
0.1847
0.096093
0.161511
0.412518
-0.108245
-0.0985019
0.20676
0.346743
0.250602
-0.0405417
-0.122363
0.162907
0.00526127
-0.00648468
0.39333
-0.574036
0.180566
-0.200358
0.12784
0.0725218
-0.300216
-0.194153
0.242554
-0.0885735
0.175711
-0.0871346
-0.127077
0.0892054
0.037872
0.271417
0.158588
-0.429981
0.0959687
-0.246015
0.150062
-0.651678
0.329283
0.322068
-0.373109
0.173645
0.0145692
-0.0145692
0.312997
-0.184255
-0.128711
-0.337032
0.221269
0.115774
-0.00998861
0.00171491
0.00827387
-0.0521161
0.255922
-0.203799
-0.064353
0.0429677
0.0213851
0.0189813
-0.00289969
-0.0160816
0.105668
0.0916874
-0.197344
-0.0067971
-0.0101253
0.0169225
-0.511515
-0.0195928
0.531171
0.0713585
0.0588427
-0.1302
0.00183575
0.0410321
-0.0428676
-0.199838
0.420143
-0.220274
0.29115
0.287612
-0.57871
0.0966033
-0.0252444
0.014716
-0.00360929
-0.102645
0.204455
-0.134396
0.294941
-0.160528
-0.145691
0.0822541
-0.156949
0.0746964
-0.271555
0.562855
-0.0807669
-0.149215
0.230011
-0.00343367
-0.0139278
-0.0932477
-0.0338293
-0.00570109
0.00344218
0.00225892
-0.148373
0.104299
0.0440748
-0.0696455
-0.0787275
-0.183803
-0.0284452
0.212256
-0.015464
-0.00568561
-0.238219
0.484845
-0.246657
-0.0146688
0.00787188
0.0988005
-0.193976
0.095183
-0.126785
0.267565
-0.140758
-0.63415
0.268582
0.0149367
-0.00958435
-0.00535242
-0.207764
0.099535
-0.0421358
0.0081651
0.0339806
-0.238423
-0.220537
0.0162648
-0.00508552
-0.0111785
0.00228792
-0.0201451
0.0178573
-0.132327
0.238007
0.19424
0.321184
-0.515442
0.210163
-0.409986
-0.311871
-0.245539
-0.276987
0.52256
0.00055123
-0.00392121
-0.00518178
0.0103231
-0.00514129
0.0149503
-0.0153852
0.000434835
-0.271437
0.219323
-0.638883
0.224613
0.41445
-0.400756
0.178139
0.222662
0.281036
-0.502105
0.220963
0.00191935
-0.00754345
0.00562409
-0.413135
0.0249998
0.388114
-0.00248313
0.0125915
-0.0101077
0.144693
-0.225435
0.0137851
0.00862828
-0.0224129
-0.241427
0.146115
0.0953232
-0.216995
-0.129185
0.0472263
-0.460404
-0.0541954
0.18845
-0.134247
-0.0180372
-0.000110176
0.189295
-0.0448286
-0.144463
0.0418583
0.147441
-0.144636
0.28079
-0.136166
-0.0812539
0.413146
-0.33187
-0.246812
0.12849
0.190518
-0.305681
0.115195
0.0865522
0.173702
-0.260235
0.160016
-0.120212
-0.0398026
-0.171606
0.115906
0.0557002
-0.126085
-0.274634
0.115507
-0.627
-0.0629892
0.150217
-0.0872223
0.0180547
-0.00807257
-0.00998209
-0.118056
-0.063071
0.311249
-0.248241
-0.231541
0.144055
0.0875089
0.0183594
-0.014425
-0.00393443
0.121265
-0.0768279
-0.0444363
0.354508
-0.464275
-0.00669643
-0.00797236
-0.362638
0.281381
0.4017
0.604983
-0.303736
-0.301171
-0.00339724
0.00857532
-0.00517806
-0.294062
0.167296
-0.417465
0.332165
-0.115179
-0.217812
0.332996
0.0723555
0.0545084
-0.126864
0.176859
-0.0578492
-0.184411
0.455795
0.130505
-0.0625412
0.247687
-0.383754
0.136075
0.0835944
-0.232785
0.146307
-0.290935
-0.144837
-0.379037
-0.0565674
0.0531469
0.00342056
0.382042
-0.174884
-0.207188
0.0751699
-0.0733339
-0.0176242
0.0106272
0.00700726
0.353751
-0.196635
-0.157135
0.326573
0.190056
-0.516767
0.671918
-0.34909
-0.322877
-0.273307
0.21021
0.012496
0.000340327
-0.0128363
0.0163149
-0.0191994
0.0028845
-0.014532
-0.00459951
0.0191326
0.270649
0.381174
-0.0751946
0.178388
-0.0514817
0.125862
-0.0743794
0.0288204
0.0213816
-0.050202
-0.221327
-0.224882
0.446223
0.320017
-0.186809
-0.133182
-0.0090659
0.0253318
0.00136103
0.226246
-0.0815323
0.207743
0.334272
0.51069
-0.250452
-0.260304
0.520738
-0.0377858
0.0515716
0.017501
0.00148022
0.057784
-0.041469
-0.00348818
-0.0386391
0.174183
-0.385212
0.211027
-0.00298394
-0.00264913
0.00563307
-0.0290367
0.0271528
0.00188383
0.0713295
0.109113
-0.180441
0.264193
-0.429146
0.164917
0.258054
-0.13207
-0.125976
-0.0055699
0.0116365
-0.0060666
-0.119218
0.437398
-0.318339
0.33204
0.135653
0.256068
0.30137
-0.557475
-0.349487
0.236854
0.112627
-0.462312
0.386256
0.0760448
0.118803
-0.285221
0.166446
-0.145852
-0.127596
0.273465
-0.00179744
-0.00924012
0.0110376
-0.145302
0.310447
-0.165171
0.138113
0.0845739
-0.222674
0.180343
0.173394
0.303259
-0.17091
-0.132344
0.0422359
-0.0785947
0.0363589
0.113879
0.00673939
0.0113154
0.18574
0.251596
-0.437427
-0.0110941
0.00110566
-0.27114
0.13676
-0.199736
-0.0581047
0.257866
-0.30595
0.277244
0.0938022
0.0662153
-0.375731
-0.263003
0.0766301
-0.109978
0.0333474
0.177449
-0.0786403
-0.366454
-0.0958713
-0.00979358
-0.0281673
0.0379608
0.0136096
0.0101537
-0.02376
-0.156414
-0.0273829
0.253039
-0.482111
0.229033
0.232225
-0.130632
-0.10158
-0.031104
0.0253272
0.00577808
0.101446
0.00909931
-0.110546
0.0826283
0.0188176
0.0114372
-0.00263303
-0.00880424
-0.213767
0.174425
0.0393469
-0.296023
0.0963214
0.225043
-0.129059
-0.033023
0.00398624
-0.453504
0.27897
0.174444
-0.00328955
0.00135554
0.0135948
-0.412183
0.292756
0.275717
0.279682
-0.555369
0.0814825
-0.00338706
-0.144225
-0.223384
0.367593
-0.50598
0.260493
0.234377
-0.117345
-0.117027
0.219136
-0.141828
-0.0773033
-0.198932
0.231257
0.0887817
-0.0753834
0.213506
0.123745
-0.165942
0.0422026
-0.101693
-0.166114
0.267818
0.198843
-0.0507799
0.172858
-0.122073
-0.0113333
0.00102251
0.0103108
-0.556439
0.189959
-0.0129783
0.0248928
-0.0119122
0.529214
-0.182366
0.391748
-0.635737
0.243791
-0.0121827
-0.391957
0.404062
0.00718061
-0.226549
0.409643
-0.183106
0.118895
-0.0465396
-0.00676655
0.0111179
-0.00435107
-0.334778
-0.256616
0.591482
-0.587538
0.211854
-0.0482323
0.141883
-0.0936501
-0.490343
0.477825
-0.283639
-0.273156
0.556919
0.565842
-0.568383
0.00215239
0.00222068
-0.00898712
-0.0211335
-0.0354339
0.125686
-0.211803
0.08611
-0.0542536
-0.0409527
0.0952064
0.137105
-0.199592
0.0624906
-0.00945015
0.00226022
0.000473712
-0.00273393
-0.383349
0.186719
-0.00572033
-0.0161848
0.0219052
-0.203562
0.563901
-0.360572
-0.00507495
-0.0260289
-0.00897106
-0.0381659
0.0471369
0.0073491
0.0115946
-0.0189439
-0.00756821
-0.0553832
-0.158379
0.143893
0.136884
0.0991666
-0.201802
-0.261497
0.115657
-0.454559
0.305243
0.14933
-0.294138
0.0315068
0.262621
0.0865021
-0.0442661
0.156912
0.0556308
-0.187911
-0.399611
0.625952
-0.348144
-0.277841
0.404371
-0.218768
-0.637184
0.377488
0.259575
-0.193981
-0.000954348
0.00180869
-0.000854347
-0.0814742
0.477046
-0.395684
0.461736
-0.272769
-0.188849
0.563762
-0.464705
-0.0991053
-0.0988207
0.492047
0.0119669
-0.0134911
0.00152412
0.0694451
0.0518197
0.0248
-0.0762637
0.0514632
-0.289147
0.189742
0.09941
-0.0590294
-0.17249
-0.0339729
-0.0711436
-0.143452
0.214607
-0.00193595
-0.00146126
0.179813
-0.418256
0.0089812
0.00213687
0.150905
-0.256866
0.105977
-0.0517926
0.369351
-0.00615492
-0.20346
0.186913
-0.443789
-0.163039
0.112264
0.00232074
-0.0547902
0.184178
0.107134
-0.291305
0.0868411
-0.131537
0.0446924
0.117122
0.317204
-0.198681
-0.118518
-0.0304175
0.0313127
-0.000895419
0.183024
-0.0661287
-0.116894
-0.288905
-0.236543
0.257652
-0.472348
0.21467
-0.170892
-0.118247
0.0746325
-0.121854
0.0472219
-0.00570936
-0.00693546
0.0126448
0.190826
-0.390255
0.498698
-0.177488
-0.484362
0.281162
0.203153
-0.000615342
0.0131113
-0.0177957
0.0120753
-0.0065108
0.00234665
0.00416417
0.264211
-0.468512
0.204214
0.129265
0.0537618
-0.0390549
0.125892
0.058205
-0.0756592
0.0174542
-0.0803467
0.177175
-0.0968239
0.483224
-0.224251
-0.259091
0.442486
-0.265042
-0.177559
-0.248782
-0.235632
-0.106123
0.205297
-0.373277
0.18242
0.190839
0.0052607
-0.0050035
-0.000257155
-0.515051
0.0516354
0.463545
-0.288361
-0.161161
0.449482
0.010789
-0.0124767
0.00169122
-0.00305497
0.00210062
-0.00959961
-0.00149441
-0.410134
-0.227167
0.0097904
0.00514621
0.177211
-0.280044
0.102838
0.0433843
-0.0253835
-0.0180009
-0.00232356
0.00655971
-0.00423612
0.000561398
0.0108758
0.287973
-0.137464
-0.150482
-0.173501
0.13553
-0.0839571
-0.0876476
-0.00391354
-0.00178754
0.00399342
-0.161554
0.131805
0.02975
-0.581162
0.0555444
0.525467
0.200223
-0.0745409
-0.441348
0.254748
0.186522
-0.197235
-0.308627
0.505957
-0.155527
-0.217765
-0.18685
-0.320342
0.507037
0.311828
0.285187
0.000988057
0.0042727
0.301779
0.210852
-0.1165
-0.094347
-0.0996052
-0.123305
0.222921
0.150792
-0.104162
-0.0466281
0.259672
0.223451
0.152594
0.142361
0.00636665
0.000828415
-0.00719506
0.00921135
-0.0285993
0.0193879
-0.0220561
0.0176797
0.00437519
-0.191008
0.110668
0.189519
-0.477995
0.138219
0.149779
-0.438768
0.233476
0.13741
-0.0843566
-0.0530535
-0.59416
0.056284
0.53758
0.00216289
-0.0117624
0.0415215
0.0676907
-0.109212
-0.0391212
-0.132421
-0.00832017
0.00180938
-0.0285746
-0.0018431
0.347224
-0.560873
0.213917
0.289352
0.137118
-0.426485
-0.0254882
0.141395
0.0597638
0.0776468
0.181763
-0.327115
0.00762186
-0.00994541
0.558297
-0.210751
-0.19358
-0.342878
0.53627
0.0378706
-0.0468417
0.44442
-0.193005
-0.0632501
-0.189381
-0.00115474
0.0117901
-0.0250032
-0.489983
0.136875
0.24514
0.0138404
-0.00589147
-0.00794661
-0.0339253
-0.0304279
0.260106
-0.0731504
-0.186947
-0.109576
0.180908
-0.0428703
-0.378639
0.421416
-0.206066
0.347694
-0.141684
0.018993
-0.0103643
-0.100667
-0.093301
0.274301
0.180886
-0.45535
-0.26147
-0.268784
0.530345
-0.130604
0.0900649
-0.094759
0.136634
-0.0418777
0.15587
0.104244
-0.0170662
0.00264124
-0.283961
0.539934
-0.0107901
0.357121
-0.0382865
-0.0258195
0.0641061
0.394302
-0.437253
-0.00172416
-0.00960916
-0.0273275
0.056148
0.280586
0.230041
0.271937
-0.475401
0.203602
-0.295236
0.00108949
0.223874
0.469199
-0.188121
0.00678717
-0.0163716
0.0857289
-0.106032
0.0577999
-0.0495013
0.138422
0.171527
-0.309922
-0.143158
-0.0982588
-0.120757
-0.103633
-0.00265802
-0.00488543
-0.168051
0.079483
0.431724
-0.644665
0.126214
0.114996
-0.0455502
0.355479
-0.155675
-0.199817
-0.0132363
0.260925
-0.0935712
-0.074851
-0.519623
-0.246722
0.484687
-0.238028
0.22859
-0.417294
0.188729
-0.197921
0.478883
0.365169
0.211019
-0.576034
-0.296439
0.178367
0.118075
-0.134279
-0.127208
0.133432
0.100948
-0.526398
-0.0113845
0.537283
0.0105163
-0.0160862
0.218469
-0.133103
-0.0853682
-0.0599249
0.101447
0.000714698
0.00154552
-0.190353
0.0245833
-0.0137864
0.158447
-0.0692124
-0.174085
-0.2551
0.470315
0.0105859
-0.480987
-0.118365
-0.211478
0.329772
0.0266116
-0.0122462
-0.0143641
-0.12706
-0.0725277
0.52649
-0.256335
0.539389
-0.282875
0.533859
-0.232666
-0.0425648
-0.0101211
0.0526854
0.0780207
-0.129502
0.0433202
-0.439577
-0.212439
-0.295337
0.180152
0.147407
-0.0623426
-0.0850634
0.00367018
0.0168084
-0.00914172
0.0164907
-0.22622
0.171152
0.0550649
0.304834
-0.153205
-0.15159
-0.0233476
0.0103715
0.0162603
0.0589099
0.17674
-0.172932
-0.0038034
-0.187582
-0.125189
0.312755
-0.163133
0.422651
-0.259493
-0.0120377
0.0102403
0.277106
0.161254
-0.438464
0.0658409
0.0600216
0.0273046
-0.0992527
0.071949
-0.257281
0.531465
-0.0673722
0.0462389
0.148699
0.0972031
-0.245886
-0.0111307
0.00510035
0.00603029
0.173065
-0.379194
0.000856389
0.0124717
-0.013328
0.164199
-0.0399898
-0.124209
0.0805753
-0.315458
0.111717
0.0301663
0.196934
-0.435229
-0.0220324
0.0802374
-0.621822
0.248356
0.373504
0.125613
0.328907
-0.454551
-0.592045
0.243115
-0.251261
-0.203746
-0.0011438
0.298732
0.186075
0.489215
-0.146526
-0.342758
-0.271632
0.190918
0.0807184
-0.228533
-0.240071
0.25006
0.0568005
0.10589
-0.162686
0.10022
-0.282596
0.182399
-0.095099
-0.592074
0.416422
0.175713
-0.408428
-0.183619
-0.000239276
0.00660592
-0.0514517
-0.0020785
0.0535298
-0.130562
-0.0956622
0.0103621
-0.271638
0.137367
0.353717
-0.207121
-0.146597
-0.398705
0.340298
0.12884
0.000689796
0.00165689
0.18893
0.586517
-0.647813
0.0610003
0.020702
-0.0196232
-0.00107873
-0.0446672
-0.0413052
-0.0397205
0.163469
-0.50899
0.582269
-0.307353
0.300079
-0.143124
-0.156956
-0.280419
-0.258892
0.539283
0.0143711
-0.0262814
-0.102007
0.286182
0.0835319
-0.0214536
-0.0620682
0.337951
-0.181718
-0.156241
0.017256
-0.0270496
0.563463
-0.275767
0.000861154
0.0137081
-0.573005
0.0650136
0.507605
-0.0469007
0.121534
-0.441837
0.279058
0.162708
-0.26536
0.190683
0.0746995
-0.00873403
0.00975654
-0.332448
-0.289311
-0.0455509
0.00433968
0.0412115
0.224229
0.171542
-0.395704
-0.395405
-0.223818
0.619161
-0.27857
0.439861
-0.0268833
-0.010544
0.0374275
0.00307207
-0.0123122
0.19284
0.233288
-0.241593
-0.0097353
-0.440477
-0.086428
0.147947
0.0249138
-0.0129336
0.01379
0.156313
0.00101632
-0.533289
-0.00839816
0.54125
-0.0615869
0.12043
-0.51999
0.53182
-0.0118572
0.335623
-0.0355487
0.447164
-0.269311
-0.177899
0.218961
-0.0855237
0.322658
-0.563294
0.240336
0.0187432
-0.00858762
0.00423214
-0.412755
-0.388806
0.249595
0.139212
0.276187
-0.18704
-0.089125
0.0730589
0.0177107
-0.0907689
-0.157589
0.136003
0.021587
0.171436
-0.444083
-0.010899
0.414957
-0.0442113
0.122233
0.377129
-0.168322
-0.208781
-0.20491
0.385226
0.473971
-0.406376
0.410448
0.310806
-0.0885322
0.0443212
-0.15362
-0.142367
-0.044049
-0.00150155
-0.061588
0.147662
-0.0860723
-0.0981581
0.120218
-0.0220587
-0.0860191
-0.0826401
0.168664
-0.0172538
0.0551245
-0.110965
0.301512
0.0245814
-0.010209
-0.0112437
0.0172543
-0.00601055
0.06748
-0.11438
-0.06003
0.0748996
-0.0148694
0.131781
-0.104476
-0.0560124
0.108885
0.226741
-0.00940549
0.00369612
0.117529
0.158685
-0.379838
0.10052
-0.0330402
-0.0189576
-0.501018
0.0322485
0.155297
-0.195013
0.0849761
0.0784278
-0.163401
-0.153927
0.132014
0.0219105
-0.00359344
0.000538454
-0.0280385
0.0135517
0.0144868
-0.2774
0.0903809
-0.0882876
0.173268
0.549488
-0.273759
0.0840687
-0.0882095
0.00414095
0.104223
-0.198405
-0.243509
-0.352866
0.197303
-0.150918
0.328846
-0.177889
-0.199918
0.0992582
-0.0116602
0.00902712
0.0513535
-0.0923061
-0.00380948
0.0202303
-0.0164209
-0.118245
-0.187405
0.195794
0.0622649
-0.00722552
-0.00390521
0.0270367
0.00713244
-0.0341693
-0.174351
-0.136025
0.310443
0.103635
-0.196843
0.0932154
0.221298
0.0819661
0.0331301
0.0102543
0.0074782
0.00636703
-0.22162
-0.0336143
0.0584139
-0.0805794
0.042293
-0.015442
-0.0125964
-0.172224
0.501313
0.112126
0.00373453
-0.00911899
0.00538464
0.274876
-0.156045
0.00929778
-0.047083
-0.0621268
-0.203212
0.0182278
0.132565
-0.215969
0.104461
0.111512
-0.295194
-0.083248
-0.267825
0.351076
-0.395973
0.178195
0.042085
-0.172284
0.130201
0.574792
-0.332251
-0.121738
0.163826
0.0836352
0.089207
-0.172841
0.165239
-0.0773088
-0.0879291
-0.336313
0.598876
-0.262591
-0.643734
0.361715
0.281883
0.151909
-0.302456
0.150569
0.193564
-0.336154
0.142606
-0.352071
0.513572
0.212404
-0.356666
0.0813737
-0.142959
0.00948005
0.0171327
0.0122231
-0.0388525
-0.542366
0.0282319
-0.112588
0.617295
-0.303352
-0.314211
-0.0196197
0.00837598
0.282912
-0.145745
-0.13714
-0.0596397
-0.0610043
0.120644
-0.133817
0.0625515
0.101649
0.0823714
-0.391587
0.309161
0.205181
0.399861
-0.125682
0.0640969
0.440242
0.220171
-0.363313
-0.0800966
-0.125882
0.205989
-0.0115959
0.0120869
-0.000491305
0.247196
0.139057
-0.130424
0.0107166
-0.0198755
0.0091586
0.146727
-0.248402
0.0262371
-0.00616801
0.0168843
0.412909
-0.184319
0.123263
-0.253604
0.197754
-0.133412
-0.251802
0.191974
-0.470598
-0.0247126
0.0671955
-0.0424831
-0.00828109
-0.015576
-0.00484929
0.0204253
0.20337
0.1521
0.418991
-0.161366
0.259895
-0.448632
0.188807
0.140761
-0.340295
0.199575
-0.184053
0.284298
-0.123908
-0.147216
0.0162929
-0.0470605
0.0307675
0.183478
0.0994638
-0.195429
0.100575
-0.0843139
-0.100495
0.0563108
-0.154467
-0.204295
0.42447
0.00052473
-0.0129491
0.0124244
0.311347
-0.167464
0.563373
-0.286895
-0.276829
0.0793481
0.0858919
0.00914185
0.00249466
0.463714
-0.282953
-0.487619
-0.280163
0.301868
0.386074
-0.30373
-0.0523379
0.0670692
-0.146805
0.0797366
0.362294
-0.222746
-0.139531
0.161484
0.0574827
-0.314667
0.140392
0.163839
-0.36815
-0.0263393
-0.131249
-0.0210314
0.00754433
0.0134871
0.102965
0.0911632
-0.194125
-0.498154
0.194499
-0.357735
-0.0787985
0.43648
0.151528
0.0105645
-0.162089
-0.0589334
0.138217
-0.16826
0.0300456
0.453168
-0.121597
-0.331628
0.381124
-0.156891
-0.0132514
-0.00213382
0.0800532
-0.251604
-0.0599559
0.187799
-0.0829712
0.0304374
0.0525336
0.390136
0.289605
-0.40266
0.280477
0.122177
-0.00382098
0.0136517
-0.00983066
0.509753
0.076432
0.248871
-0.00672329
0.00280978
-0.106695
-0.0472332
-0.0514776
0.133732
-0.0868117
-0.0447292
-0.287565
-0.286592
-0.00664351
-0.0143878
0.243614
-0.447454
0.16089
-0.403436
0.242537
-0.224619
-0.178048
0.104472
0.0890695
-0.193535
-0.00484363
0.00340421
0.00143942
0.519656
-0.128105
0.227926
0.181704
0.33416
0.106033
-0.183411
0.329467
-0.281875
0.198643
-0.0534878
-0.00654205
-0.0636581
0.168137
-0.130345
-0.166093
0.359497
0.189523
-0.549178
-0.186017
0.147177
0.0412788
0.115103
0.175833
0.0825106
0.560727
-0.158451
0.418386
0.259319
-0.0537352
-0.205547
-0.0116314
0.00990721
-0.0276957
0.0131399
0.0145553
-0.175246
0.313689
-0.0193855
0.538066
-0.258373
-0.122903
-0.0930626
0.0488671
-0.127064
0.0781969
-0.00727424
-0.00797105
0.0152453
-0.14607
0.387828
-0.241737
-0.316127
-0.0206054
-0.00902639
0.0296317
0.145391
0.0868432
0.305233
0.25779
0.279908
0.0122575
0.00648711
0.302121
-0.582407
0.280297
-0.0791793
-0.097671
0.458969
0.0191119
-0.00990055
-0.558532
0.285426
-0.727042
0.43924
0.287254
-0.53475
0.278511
-0.101791
-0.117713
0.219508
0.33382
-0.140265
-0.129671
-0.0821393
-0.102209
-0.0593436
-0.046039
0.0424236
0.0036153
-0.333302
0.251686
-0.469107
0.222299
0.399146
0.199694
-0.00841138
0.337282
0.300319
-0.323419
0.0230999
0.188094
0.168398
-0.356506
0.114625
0.207111
0.215576
-0.0828673
-0.132693
-0.00583974
-0.0162174
-0.20426
0.0981419
0.103388
-0.183476
0.265539
0.198342
0.00138974
-0.0146479
0.0132581
0.141608
-0.13281
-0.00879066
-0.26417
0.456024
0.0237567
-0.0305359
0.00677837
-0.0182375
0.000200269
-0.349058
-0.00870609
0.407704
0.481736
-0.263442
-0.218261
-0.0627897
-0.0952379
0.15803
-0.019912
0.235508
-0.012456
0.279681
0.182883
-0.290064
0.107222
-0.177072
-0.333781
0.510691
0.146297
-0.28781
-0.439755
0.160556
-0.104888
-0.0556672
0.0702719
0.230039
-0.0709123
-0.0860362
0.264411
0.250387
-0.514829
0.140931
-0.0489375
-0.0919924
0.279747
-0.524
0.244133
0.131783
-0.263848
-0.389863
0.240362
0.14951
-0.269871
0.11628
-0.079472
0.0369068
0.00337901
0.0173229
-0.0215388
-0.142381
-0.00459182
0.0283494
0.0959537
-0.226573
0.157747
0.0402621
-0.0575159
0.00091758
0.219737
-0.164465
-0.0552501
0.280845
-0.435222
0.154374
0.293925
0.00050818
-0.0128107
0.0123025
0.295885
0.18588
-0.00137382
-0.162355
0.441231
-0.13031
0.273685
-0.14336
-0.397152
0.251563
0.145577
-0.522455
0.415282
0.107123
0.227634
0.0803223
-0.0759821
0.00849454
-0.0123155
-0.0045281
0.00228171
-0.0603908
0.00893875
-0.0116864
0.0130762
-0.435687
0.000428853
-0.0115454
0.0111178
-0.00111948
-0.0190255
0.25514
0.324342
-0.579467
-0.206382
-0.55085
0.262428
0.288486
0.165938
-0.147709
-0.458893
0.201515
-0.0177495
0.0129003
0.0818161
0.0655924
-0.0943104
0.182445
-0.0881316
-0.111852
-0.19962
0.311475
0.144112
-0.0857595
-0.0583525
0.0120093
0.00280264
-0.014812
0.00960892
-0.00175628
-0.00785263
0.100454
0.0978384
-0.198283
0.116812
0.103918
-0.220718
-0.453896
-0.0797489
0.024926
-0.0163507
-0.207138
0.458383
-0.25124
-0.0366774
0.0327915
0.00388577
0.130183
-0.0798821
0.0334914
-0.105843
0.0723527
0.0368791
-0.0316853
-0.00519362
-0.0077595
0.0094746
0.119354
-0.285454
-0.110162
-0.168953
0.279141
0.563526
-0.241186
-0.260101
0.0936149
0.166506
0.0135932
-0.0164929
0.0096132
-0.00927287
-0.533543
0.333926
0.199663
-0.0218396
-0.0127232
0.0345628
0.304267
-0.189132
0.101796
-0.0510324
0.00499316
-0.0159753
0.00437912
-0.0109747
-0.00500091
0.231511
0.210871
0.094019
0.148042
-0.257254
0.109237
0.120947
-0.128872
0.280821
-0.0189611
0.603044
-0.325225
-0.277967
0.025676
-0.0295502
0.00387431
0.387899
-0.621314
0.232801
0.476368
-0.244973
-0.0956592
-0.0684776
0.164139
-0.20178
0.150477
0.015462
-0.332948
0.17253
0.160446
0.0356544
0.0221296
0.0369651
0.0250166
-0.0619815
-0.126119
0.0463363
0.079783
0.0251099
0.377839
-0.540174
0.162265
-0.19576
-0.137158
-0.108599
0.486386
-0.195431
-0.188309
-0.0772515
-0.0708377
0.209057
0.259213
0.0965615
0.214662
0.162491
-0.252861
0.146478
0.106401
-0.0167258
0.0087548
-0.129054
-0.139163
0.268251
0.340938
-0.116279
-0.224687
0.0247592
0.00227747
0.285959
0.169805
0.00937373
-0.531844
0.245985
0.227673
-0.264632
0.324954
-0.255628
-0.0693102
0.00121632
0.000686729
-0.00190305
0.0766099
-0.573262
-0.0277904
0.00595084
-0.00470614
0.0476737
0.501314
0.14124
-0.31646
0.103483
-0.20945
0.105981
0.557262
0.587493
-0.278885
-0.308855
0.268956
-0.439837
0.170924
-0.0619149
0.0378368
0.0240782
0.0718604
-0.215304
0.210964
0.151345
-0.104268
0.0378073
0.0880814
0.102085
-0.0180155
-0.0970216
-0.174411
0.00194122
0.0106509
0.190097
-0.209044
-0.324417
-0.0057191
-0.0152999
0.021019
0.0791873
-0.154864
0.0756783
-0.0873683
-0.203613
-0.149286
0.268512
0.18099
-0.449494
-0.0118031
-0.00526307
0.00985344
-0.0174073
0.00755383
-0.0882837
0.116516
0.000410435
-0.0257939
-0.162139
0.521426
-0.304803
0.153946
-0.393071
0.207314
-0.0161362
0.00288489
-0.223471
0.0937952
-0.171601
0.197092
-0.0254907
-0.242241
0.0713547
0.402243
-0.194998
-0.207261
-0.130909
0.377093
0.204415
-0.581904
0.487065
-0.297216
0.126652
0.0142804
0.462922
-0.273464
-0.0118168
0.434877
0.130649
-0.300678
-0.38482
0.263137
0.19579
0.0037649
0.013914
-0.00424462
-0.000283478
0.244699
-0.157168
-0.000947368
0.0138029
-0.0128555
-0.314515
0.547169
-0.232785
0.0296048
0.125693
0.144563
0.160307
-0.0662737
0.0755722
0.369829
-0.0645599
-0.427466
0.0403064
-0.0422177
0.00192121
0.0768907
-0.147492
0.08122
0.0662741
-0.557721
0.0479912
0.128753
0.0831468
-0.00166388
-0.0133223
0.00852364
0.00479868
-0.313894
0.1263
-0.147684
0.0803147
0.0673696
-0.00259297
-0.0255743
-0.140651
-0.123319
0.263981
0.138218
-0.083709
-0.0842203
0.167858
-0.244547
-0.1546
0.399107
-0.0956391
-0.146595
0.16073
0.106551
-0.532128
0.217389
-0.0693995
-0.216832
0.340084
0.109883
0.243833
0.442061
-0.256989
-0.184996
-0.238805
-0.0317429
0.270523
-0.189939
-0.0262574
0.0425503
0.231384
-0.0484725
-0.16405
0.311548
-0.147461
-0.106233
0.199798
-0.458541
0.258777
0.162962
0.185377
-0.348301
0.077604
-0.183114
0.105515
-0.00641179
0.0105851
-0.00417285
-0.07352
0.0488071
0.0978624
-0.17704
0.00782397
-0.282128
-0.361728
-0.00287582
0.0047415
-0.00186561
-0.2255
0.173147
0.0523562
0.00772007
-0.00849624
0.00077617
-0.0277817
-0.106168
0.133951
-0.531826
0.27041
0.351078
0.164866
0.123807
-0.288655
0.000703216
-0.00453622
0.00383304
0.0171225
-0.0166143
-0.0622399
0.168134
-0.0618106
0.297622
-0.45607
0.201171
0.174891
-0.376041
0.248879
0.269293
0.019167
-2.67831e-05
-0.0191403
-0.250446
0.13732
0.113145
-0.227324
0.391173
-0.169502
0.01893
-0.0395355
-0.00591375
-0.0500239
0.0559376
0.149851
-0.313864
0.00167577
-0.0534231
-0.0295483
0.249457
-0.0603836
-0.189064
0.106872
-0.247514
-0.0153431
-0.0213343
-0.134209
0.0459252
0.296966
-0.0482336
-0.248715
0.00485606
-0.0158311
-0.0970261
0.175457
0.0309008
-0.0945133
0.0636109
-0.00745838
-0.00586375
0.242084
-0.167116
-0.217619
0.541971
-0.228961
0.310156
0.0609033
0.11481
-2.9556e-06
0.00149433
-0.00149137
0.0103024
0.1351
-0.480275
-0.10736
-0.15939
0.0649011
0.0944893
0.537678
-0.275353
-0.26227
0.000225984
0.011741
0.014575
-0.00533562
-0.00923934
0.28391
-0.0155856
-0.00361378
-0.125367
-0.443289
0.151112
-0.395737
-0.161472
0.349559
-0.00777157
-0.0045884
0.0123597
-0.014735
0.0517002
-0.22859
0.0841674
-0.14651
0.433344
-0.178697
-0.0826353
0.128972
0.116779
-0.512239
0.210437
-0.0871061
-0.123325
0.200889
-0.321704
0.0796732
0.242023
-0.383713
0.156396
-0.0581312
0.0654133
-0.00728132
-0.293014
0.162675
0.083326
-0.0524267
-0.173822
-0.0516746
-0.275003
-0.262537
0.537496
0.0825127
-0.158394
0.0758826
0.256943
-0.0526244
0.229834
0.284233
-0.0125747
-0.000358793
-0.00499532
0.385213
-0.166811
-0.218334
0.173546
0.268597
0.248658
0.136601
-0.0714369
0.217099
-0.145637
0.016858
-0.0208717
0.00401371
-0.0119713
-0.0499435
-0.0740837
0.148781
0.188935
-0.24156
0.261502
0.00772172
-0.00060401
-0.00711754
-0.00764984
0.159181
0.367211
-0.156222
0.0224739
0.0102414
-0.0327153
-0.557537
0.278947
0.2785
-0.079288
0.153625
-0.0743345
-0.0044814
0.00447845
0.472059
-0.261321
-0.210776
0.0153956
-0.00338632
-0.00188771
-0.0688035
0.151318
-0.0172401
-0.000997461
-0.0642327
0.00610168
0.315139
-0.413877
0.0987689
-0.173489
-0.119521
-0.0379212
0.0383316
-0.00373507
-0.00792511
-0.312009
0.138521
0.0121518
-0.0130991
0.210776
0.056806
-0.395695
-0.475408
0.484752
0.163566
-0.299559
0.106308
-0.159087
0.265159
-0.106049
0.0205396
-0.0459346
0.0253949
0.0182149
0.000952162
-0.0276743
-0.0290975
0.0567719
-0.0658678
-0.202929
-0.445151
0.0807208
-0.153232
0.0725147
0.005953
0.00365592
-0.45019
0.193267
0.0188237
0.00403567
-0.0228594
0.177808
-0.133534
-0.0442711
0.261457
-0.536399
-0.127444
-0.559174
-0.301747
0.176544
-0.0646721
-0.082817
-0.0205675
0.0198804
0.000687044
0.240061
-0.208534
-0.169298
-0.299731
0.468938
0.00487603
-0.0105323
0.00565626
-0.0114256
0.0171987
-0.00577312
0.22367
-0.0831296
-0.140523
-0.261531
-0.296959
-0.195134
0.213446
-0.413045
0.19965
0.367279
-0.582871
0.215414
-0.0337303
0.0432126
-0.0858599
0.016925
0.0689352
-0.550691
0.305908
0.244559
-0.460135
0.391826
0.0682263
-0.00476047
-0.00678437
-0.00569249
-0.00779858
0.0230038
0.154809
0.153834
0.0138725
-0.0174716
0.00359926
0.17105
0.140894
-0.311876
0.296123
0.218546
-0.51469
-0.329693
-0.226812
-0.324114
-0.174991
0.472601
0.476789
-0.0726039
0.0201211
0.0167581
0.0860041
0.135701
-0.221699
0.169146
0.0197905
0.0184307
0.0195301
0.207642
-0.114283
-0.0933422
0.0166406
0.02484
-0.0211052
-0.00166237
-0.0120663
0.0137286
-0.0846953
0.177786
-0.0930845
-0.258249
0.161234
-0.28007
-0.311826
-0.131784
0.320268
-0.563961
0.243464
0.0249255
0.080132
-0.105057
-0.216065
0.495657
-0.0585624
0.0372039
0.0213583
0.0902106
-0.0276199
0.163624
0.221299
0.252216
-0.473424
-0.00206342
-0.00465985
0.0662718
0.0703597
0.0131001
-0.00547818
-0.0797246
0.446922
0.00767891
0.020959
-0.0286379
-0.253619
-0.172979
0.0762736
0.0737447
-0.150018
0.108652
0.0643877
0.00306725
0.00369612
-0.0067632
0.0939782
-0.219851
-0.08798
-0.0390834
-0.461956
0.197641
0.00798037
0.0574339
-0.236296
-0.238976
-0.0197162
0.00363463
0.0328515
0.0821442
0.0634334
-0.123072
0.408887
-0.19981
-0.209082
0.459225
-0.221975
-0.237414
-0.0157323
0.0111331
0.00359251
-0.104802
-0.175602
-0.0420282
-0.129572
0.0832484
0.233002
-0.0944473
-0.138546
-0.122114
0.100584
0.0668496
-0.0491386
-0.171205
0.372381
-0.0946664
0.071502
0.0231736
-0.39729
-0.110377
-0.49763
0.269047
-0.0078263
-0.0780334
-0.169441
-0.328231
0.149091
0.17979
-0.00637674
0.00123545
0.232754
0.285897
-0.518725
-0.0869319
0.201742
0.0389358
-0.220657
-0.0683219
-0.5733
0.0549706
0.186486
-0.0790413
-0.107444
0.0988721
0.217981
-0.359578
0.141539
-0.23714
0.557185
-0.0085593
0.119933
0.154971
-0.0150065
-0.00470965
0.0260368
0.115581
0.000671837
-0.00940587
-0.13422
-0.137408
0.325112
0.135851
-0.460944
0.440419
-0.145457
-0.104969
0.235909
-0.11372
-0.122172
0.23455
-0.11772
0.000747608
0.00046871
-0.303255
0.185034
0.0778645
0.149899
-0.227758
-0.00472242
-0.106533
0.111257
0.0609149
-0.53632
0.3925
-0.206994
-0.185524
0.0720317
0.151657
-0.156334
0.0723782
0.0138744
-0.0133497
0.28246
0.142221
-0.4247
0.00577582
-0.00843384
0.309826
-0.032797
-0.00342124
0.0139375
-0.166171
0.176488
0.191763
0.212382
-0.404151
0.251354
0.169647
-0.421066
0.0994189
0.101101
-0.200514
-0.08096
-0.0459032
-0.156392
0.271692
-0.115284
0.313248
-0.126734
-0.178006
0.134753
0.318188
-0.176951
-0.0319598
-0.0549738
0.0869337
-0.00169664
0.0158908
-0.021364
0.00547322
0.537133
-0.270296
-0.266617
0.245152
-0.107814
-0.00433513
0.0300112
0.260027
-0.0841217
0.00785762
0.463444
-0.257759
-0.205601
0.0561327
-0.0961774
-0.0697587
0.344168
-0.255864
-0.0883
0.124543
-0.0342285
-0.0331436
0.361878
-0.16569
-0.196134
0.0173211
-0.00137756
-0.0159421
-0.213229
-0.190212
0.101661
0.0807872
-0.0508232
0.102177