/*--------------------------------*- C++ -*----------------------------------*\
| =========                 |                                                 |
| \\      /  F ield         | OpenFOAM: The Open Source CFD Toolbox           |
|  \\    /   O peration     | Version:  v2012                                 |
|   \\  /    A nd           | Website:  www.openfoam.com                      |
|    \\/     M anipulation  |                                                 |
\*---------------------------------------------------------------------------*/
FoamFile
{
    version     2.0;
    format      ascii;
    class       volScalarField;
    location    "650";
    object      omega_0;
}
// * * * * * * * * * * * * * * * * * * * * * * * * * * * * * * * * * * * * * //

dimensions      [0 0 -1 0 0 0 0];


internalField   nonuniform List<scalar> 
9793
(
0.0222052
12.9346
0.0219229
5.51678
0.0222596
0.305837
0.0874125
11.2142
0.0219873
20.1448
0.0221973
0.0221881
0.021911
4.31206
0.0217155
0.0258648
0.0559171
0.021918
8.4391
0.0215318
0.0215629
0.0222916
6.18138
11.2793
4.3208
0.0258665
0.0221004
0.022262
0.0215425
0.0911565
18.0459
0.551384
0.0220091
0.0219327
0.021863
0.0285265
0.0238972
0.0242917
4.56646
0.0311147
0.0766046
4.75086
8.90368
0.0222716
0.0219543
0.0220425
12.2201
0.0222842
0.021561
0.0219249
0.0281876
0.0218461
0.038025
0.0222684
0.0319671
4.94689
0.0219204
0.0829557
0.0215703
0.0222914
0.0261513
0.0909245
0.021938
0.0360238
0.0219625
0.0219318
39.4654
0.0238728
0.024312
6.62767
0.0219077
0.0942845
10.9525
1.47509
7.35066
0.0222624
0.0437795
8.92389
0.0219749
0.0222704
0.0465461
8.43725
0.0531971
0.0235991
0.0243862
0.363411
0.022261
0.0654821
4.51807
0.0864362
4.55798
5.79691
4.99784
0.0416985
8.6337
0.0218956
6.69067
0.0523175
0.0245196
0.0222684
4.19178
0.0362726
3.73655
0.0219604
6.16269
9.07865
0.686474
0.0218739
0.0219796
0.0222835
0.0222334
5.23199
2.98519
20.7079
0.0218939
0.0221131
0.0234446
0.0220512
4.63362
0.0220269
5.55026
0.0681255
3.47804
0.0429226
0.0239466
0.0220331
0.0651034
14.9409
0.16455
0.172177
0.0233706
0.0217863
0.0221298
0.0230706
0.0272834
0.189858
0.595403
0.023495
0.0222734
0.0647319
7.82297
0.0275486
0.021873
0.0544756
11.2095
0.536457
0.0220336
5.82162
0.0217808
0.0220273
0.0220713
11.6052
0.0240181
0.0220926
0.0218977
4.8838
0.060146
0.0219326
0.787707
0.0218811
0.0622099
0.0234813
0.0215723
0.307316
0.0218291
8.73847
3.66199
0.021984
0.0218751
0.0222173
0.0218833
11.093
25.3179
4.57874
0.0219046
0.267929
0.132684
0.614202
0.0219583
0.0237935
6.26217
12.3159
0.0730666
0.0220348
0.0220733
0.0218685
2.81889
11.2161
18.1356
3.74475
0.0218794
33.7678
0.412263
0.0247027
0.0215599
0.0230129
1.96411
0.0215744
0.0219161
0.0222044
0.0219199
0.021546
0.0294161
0.0246617
4.9606
0.0218938
0.0282398
0.0219775
0.0221853
0.395122
0.0621834
7.56823
0.0216169
7.7129
0.0236018
0.0480869
0.0217261
0.183704
0.0221223
0.0478955
0.0568489
0.0215517
1.54138
4.62832
0.0396791
0.0218796
0.0512859
4.34957
0.0470499
0.047873
4.58578
0.113544
0.0442589
0.0367541
0.346288
0.0214812
25.7211
18.3429
0.0215826
0.0222222
3.15689
0.0218735
0.0222311
0.0942274
0.110723
0.0219281
0.0238176
0.0294524
0.0371968
0.023851
0.0219646
0.0446797
6.06383
0.0215542
4.66193
0.0222618
0.0221714
0.0216374
4.92905
0.0219747
7.78534
7.40611
0.0221037
0.0221323
8.06907
0.0217559
0.0222394
0.0217141
7.27201
0.24759
0.0243982
0.378596
0.080975
3.67948
10.8197
0.0220188
6.7639
0.0222641
4.43007
9.39767
4.46345
5.78056
0.107663
0.0233794
0.0483509
0.0243051
0.021565
0.0220258
0.39572
0.0260251
0.0221411
0.0222838
0.0216138
0.0215508
0.0215614
7.08703
0.0218647
0.0217157
0.0216668
0.0219132
9.18979
0.523824
0.060466
0.0225979
0.0550762
0.0217378
0.346537
9.88398
0.0219669
7.82462
0.0339489
0.0219468
20.9736
0.551758
0.0220179
0.0472822
14.9912
0.0220207
0.032363
0.0217118
0.0220904
4.69646
0.039841
0.0219431
0.0220201
0.0224936
0.17025
3.27573
0.0219268
0.0218672
0.0216345
11.1455
8.91237
12.0125
0.0214883
0.0421663
0.0329352
1.78426
0.0689338
0.0214555
0.0214969
0.0216398
0.0467225
0.0219754
12.4777
0.0220885
0.0217613
4.05831
7.02127
8.37351
0.0215988
4.1994
0.0243025
4.26837
12.1399
4.69025
0.0233019
0.0318367
0.61463
4.40059
4.965
0.0255995
0.0222633
0.0247693
0.0215359
0.0218477
0.0219582
0.0220823
0.022292
12.1432
0.0222067
0.0659336
0.0307686
1.43237
0.021451
0.0236871
9.59074
0.457577
4.42493
0.0670088
0.0217657
0.0233808
0.0219259
0.473199
0.0215532
8.28262
0.148173
0.0873654
12.5387
4.30324
0.022138
0.0218811
0.65978
0.453175
0.0218937
12.5209
0.0221318
0.0221775
6.70674
0.0216149
0.0874671
0.0214906
3.65003
0.0220936
0.0218309
4.48107
0.0881879
0.0612788
0.0247278
0.0220748
0.021808
3.62289
0.0522645
0.0215022
0.0221956
0.0333954
0.0328706
0.061116
11.4142
0.0221967
0.021929
0.367332
0.0220816
5.66194
0.598005
0.0220652
0.022015
0.0220049
0.0221168
0.0216205
4.21503
0.04827
9.57181
0.0277804
0.0227024
0.0431581
0.0240299
4.48245
0.0254716
0.0222676
0.023881
0.475268
0.0218863
0.0218815
0.0219089
0.0215564
0.0219821
0.0217392
0.0220449
0.0221582
0.022635
0.0242588
0.0922697
0.0217392
1.53574
0.024988
0.196845
16.3576
0.0215752
3.86675
0.0868537
0.0215727
0.0215558
0.0218723
5.52741
0.085143
0.021552
0.0221212
0.0221982
0.0620851
0.147305
8.93635
0.0219759
0.0218982
0.0303315
11.9385
4.4542
0.0232779
0.022817
4.61799
8.07966
0.257176
0.0220607
0.0217737
4.92556
0.0218984
0.131473
1.15325
0.021495
0.220042
0.0269478
4.13321
0.0218111
6.66175
0.465031
0.025361
7.59307
0.0218975
1.54772
0.0220947
0.0218782
0.022223
0.0219327
7.69143
0.0218903
0.021571
0.0225809
0.0214973
0.0217734
0.0468074
0.0225733
0.0352238
0.0220345
0.0220386
7.58009
0.0695628
0.0232326
4.58887
0.0238503
0.0220783
0.0219792
0.0216175
11.4667
0.0215604
0.0220693
16.5487
4.69769
0.0384146
0.0219186
0.022284
0.0219384
0.0222406
4.7611
0.0220623
3.79968
0.0236189
1.94726
0.0222619
33.7171
0.0220419
0.220274
0.0219048
0.0910748
7.61615
0.0221035
3.23877
0.0218835
0.0222182
0.0215572
6.54996
4.94789
0.021878
0.027872
0.0215463
4.70612
0.0216739
0.0455159
6.77649
0.0245184
0.0220265
0.0433944
0.022245
0.0219652
0.0216596
0.0851757
0.0219545
4.61445
0.0220524
0.0219895
0.0405824
0.0713326
0.663174
0.0217101
34.2001
0.0218754
0.191929
0.0218979
0.0219328
0.021895
0.0220504
0.022268
0.199876
0.0447161
4.26261
0.139259
0.0337166
0.0330887
5.04258
0.0233578
4.71238
9.13449
0.248423
10.9237
1.01507
0.174026
0.0219653
3.33479
0.0402798
0.0218711
0.33494
0.0222509
0.388343
0.0351519
0.275926
0.0266142
6.05262
9.64704
0.0380043
0.233612
0.0222163
0.555112
0.0225541
0.0219075
0.0219624
0.0227116
0.0475872
4.56092
0.247694
10.5837
0.0230847
0.0231068
4.10031
0.295749
0.0226165
0.0624382
0.0222071
4.88401
4.24525
0.0220597
0.0603979
0.233272
9.40477
0.0219572
0.0251603
5.35265
0.0286747
2.11675
0.0924165
1.25645
0.0251501
0.0234769
0.0218078
0.0219008
0.226002
0.0222841
0.244703
0.176429
0.0835213
0.0222595
0.0222237
0.0228894
0.0217137
0.0218273
0.0218772
0.124179
5.42501
4.21688
0.0222796
0.361104
0.0219448
9.19838
0.0468671
0.0443328
0.0325948
0.426143
0.0217386
0.0220623
0.041229
0.0218974
0.0218963
0.0631383
3.98144
0.0215429
0.208624
4.49259
0.0240962
4.62824
4.53073
0.0217464
0.0574449
0.026623
0.0218762
0.0215594
0.0934528
4.47069
10.3731
0.0218933
0.0220136
0.021617
0.0237544
0.0225967
0.023453
0.552818
0.0468366
0.0221521
7.08415
0.0295678
0.032137
0.0218603
40.3869
0.0232049
0.0219158
0.0869012
2.05818
0.0214999
0.0220506
0.0219334
0.0247772
0.0217339
0.0387462
0.664542
0.0220567
0.0847568
0.0224549
0.0218225
0.727022
8.17137
0.343691
0.0220763
0.021502
4.69367
0.0251456
1.67938
0.0214825
0.021881
19.4345
3.81791
0.0300512
0.0900843
0.0588379
0.0218757
0.0222717
0.0218513
8.62649
0.0220572
0.0222928
4.23595
0.026472
0.463856
0.0312092
0.0219299
8.25777
0.0222678
0.0218953
0.0218468
0.0296957
6.98378
0.0221636
0.0219671
0.0218959
0.0218852
0.0219359
0.0218207
10.9483
0.0306195
0.0225717
0.0221108
0.0306524
0.0655181
0.0257578
0.0273562
0.0222839
0.0216118
0.023023
5.22506
4.35434
0.0225524
10.2274
0.0222155
0.0247467
1.94366
2.12249
0.0217017
0.0221816
0.330404
0.051166
0.0219046
0.0222483
4.58116
0.0222681
0.0761003
0.0220087
0.4939
0.0222472
0.0220458
0.0221277
0.0307164
0.0216811
0.0240125
0.025229
0.152028
0.0218585
0.0219941
0.0222497
0.0218724
0.0219269
0.0217041
0.0310808
0.0221114
0.0507918
4.48103
0.0433467
0.0673879
0.0222025
0.0216531
18.2712
4.30045
0.0215523
4.8845
16.9436
0.0215077
0.0219621
0.0218716
0.107225
0.0526236
2.2648
0.021852
0.024809
0.0218549
0.0221303
0.0220697
0.0874621
0.0218956
0.369476
0.0220938
0.0559704
0.0218895
0.0228238
0.0218907
0.0410573
0.0563416
15.2005
0.540692
4.81099
0.0481744
0.0218761
2.75015
3.20968
0.0589935
0.0218382
0.0220857
2.08883
0.0218633
6.33389
0.0214828
0.0295095
0.0219469
0.0222698
0.0217089
2.23104
7.97768
6.10595
0.0674967
15.1237
0.021938
5.13123
9.2698
0.0222705
0.0219776
0.0217155
0.987906
0.0214966
9.95203
0.0310546
0.189069
0.0221038
1.05251
10.7909
1.72969
0.0287409
0.0324207
0.0220408
15.2958
0.0214664
0.612195
0.335695
0.0648921
8.21795
7.02617
0.023473
0.0231035
0.0219473
0.104705
10.791
10.0316
0.0217314
3.85816
0.0252208
0.105373
0.119065
4.00907
3.98626
0.0214887
0.0253356
0.0306545
0.0235908
0.0231002
4.22244
0.0221978
9.49302
0.0216459
0.021477
0.0853546
0.0996229
0.795049
0.0223281
19.5188
12.5842
0.863917
0.0258694
0.0222329
0.0223348
0.0222269
0.0218825
1.2457
1.26603
0.0220046
0.0218947
0.032172
1.65828
0.0255977
0.021906
0.380364
0.0219247
0.0222748
0.021471
0.0589545
0.022029
0.024386
10.1504
0.065845
0.0221797
4.3385
0.115873
0.0219207
0.0224044
0.0342617
0.0222624
0.0219606
0.0216982
9.9969
0.306827
0.0220768
0.0358677
0.0344454
0.556747
0.0218932
5.59242
0.0218565
0.0217399
0.59752
0.350155
0.0663648
0.0219378
0.0218881
11.0246
4.325
0.315993
2.77847
0.0221029
0.0228832
0.0220137
22.2628
0.0237637
1.81087
0.0224559
0.0218231
0.0228848
0.021612
0.0218716
0.0616651
0.0217609
5.35777
0.0217051
0.0220516
0.0214852
0.0243274
4.42542
5.8575
0.0522821
15.3544
0.0219773
0.0351564
0.0228086
1.57101
0.0215751
0.0214942
3.84809
0.0334299
0.0315239
0.0221122
0.222023
3.05711
6.55508
0.0220171
0.0329023
0.934511
0.0318201
2.97004
0.162465
0.0875934
0.0216882
0.0223428
0.0591024
0.0744753
0.0219853
0.105141
0.021724
0.0221845
0.0221255
0.0217203
0.0218829
0.0219869
0.793306
0.0254669
0.0226519
0.0467115
0.0217271
0.0219121
0.0381211
6.79953
0.0786448
0.0661336
4.55014
0.0222338
11.7684
0.028694
8.88738
0.0604524
0.0222023
0.021864
0.0230749
11.7814
1.72181
0.0514202
0.149349
0.0216116
0.0218402
0.0222477
0.0222017
16.6054
0.0253686
0.0217967
0.21297
0.286531
6.15716
0.022468
3.84816
0.0523592
0.0408906
0.0325355
0.417969
0.253767
0.0220964
4.05438
0.345989
0.0368568
6.35543
0.0454915
0.0219606
0.0222638
0.0218941
0.0228448
0.0262707
21.3842
0.0498735
0.0218666
0.47758
0.0220035
7.85917
3.44152
0.0219514
26.3181
0.0217131
0.0216804
0.021735
3.87583
11.5898
0.0483157
0.0299903
0.0215455
0.717377
0.0222313
0.0306742
0.0220911
0.0220159
0.0217686
5.92862
0.0225563
0.039546
0.0283802
0.0222115
0.325165
0.161536
0.0349374
0.0248723
0.0233513
6.03258
4.14759
0.0216171
0.0217132
0.0216126
0.0223804
10.4752
10.151
0.302029
0.0251113
0.0217626
8.19651
4.62402
0.0220694
20.3492
0.0216868
0.0988535
13.6359
0.0217208
11.0496
12.1135
0.153947
14.9492
6.05645
0.0218062
0.0224528
2.39495
4.45627
0.0223546
13.3531
0.0246834
0.0218859
0.0222738
0.0227193
0.0405945
0.024954
0.274332
15.0805
0.228474
0.0326974
0.022079
0.0614269
2.31513
0.0217183
3.59032
0.0490484
0.0222197
0.024184
0.0222414
0.022063
0.0303124
2.31968
0.022101
0.0217775
12.5429
4.20104
0.0649474
0.0222611
0.0592113
0.0219132
0.0219298
5.42884
8.9466
0.0219186
0.0214647
4.93052
8.33774
0.0500054
0.0221061
8.84816
0.022319
0.0219231
0.0228885
0.0219298
0.021607
0.0216014
8.08685
0.196878
0.0253737
1.73802
0.0453853
4.28282
4.88855
5.38465
0.172826
0.0218854
0.0222381
0.0220261
0.0219921
0.0716321
0.0218771
0.101451
0.0294335
0.812534
0.0220482
4.15236
0.0343163
12.6107
0.0219229
1.73038
0.0301708
0.199616
0.408647
0.03084
0.0215982
7.64815
0.0587857
2.62533
0.021554
5.69494
0.0220264
10.8238
0.473636
0.0407762
0.0219078
0.0220881
4.6432
10.8764
0.0322199
0.021437
0.83755
0.0874056
0.0455643
1.23024
0.0764191
0.0218526
3.84204
0.0218985
0.0337135
0.0215086
9.28129
0.021516
0.0226846
0.478925
3.78586
0.0222218
0.0747253
0.0237899
0.0740045
0.021875
0.326091
0.0230028
0.0618375
0.0218662
0.0219848
5.0855
0.0285902
10.5989
4.28166
9.12321
0.0224796
0.021542
0.0217019
0.0253928
0.0375293
0.0318156
12.6016
0.0231832
0.351095
0.0406178
0.022281
0.0218546
0.0640918
0.514938
22.374
0.0218882
4.37903
0.0218578
6.71334
1.53439
0.0467069
0.0219917
0.0216683
0.0436496
5.22364
0.0240311
0.0222685
0.0229094
0.0455036
0.0222882
1.21634
7.62267
3.96406
0.0221577
0.0260904
9.52239
0.0221879
0.0583488
0.0217337
0.793147
0.0355362
0.0219381
0.0420123
0.168192
0.0216563
4.08334
0.0219006
0.178047
0.229156
0.543618
0.307025
0.0221682
0.0220616
17.5211
0.0220376
0.038616
0.0757753
0.0231994
0.0214556
9.13461
0.024155
0.373886
0.0225245
0.0636904
0.0223569
0.385044
0.0246276
0.0243747
3.99102
0.975399
0.0220896
0.022273
0.153911
5.36678
1.89619
0.654127
0.0294466
0.0219026
0.0217743
4.53829
0.0221394
6.25179
0.108549
4.48448
0.0221071
0.0216939
0.0217807
0.0435005
0.0527705
3.64954
4.23552
2.33759
0.298145
0.0215877
2.42358
0.0227569
0.0635255
0.02246
0.0406591
0.0562612
0.0219099
0.0215458
0.0615754
0.0216022
0.0393861
0.064278
7.93568
6.507
0.0398617
4.6453
0.0216729
0.0215364
0.0220746
0.181637
0.0582028
0.0476884
0.131448
8.25466
0.0380437
0.142444
0.0217344
0.0218202
13.0031
0.0217707
0.260324
0.0214345
0.0218274
4.55178
0.296787
0.0218071
0.0920272
0.498747
7.88248
3.55983
0.0247636
0.0696785
0.0492114
8.02417
0.0219528
6.29486
12.6545
0.0232412
0.0251732
0.0215661
0.422444
0.0215436
0.0219791
3.92524
0.022092
0.0215091
0.283727
0.0609463
4.30924
4.23254
3.47262
5.19163
0.0214699
0.021887
0.0218111
0.0222055
1.79386
0.0219571
4.45901
0.0227387
10.5416
0.0238839
0.0220007
0.0216655
0.0220869
0.0295156
0.0218367
0.0214507
0.438582
0.0217979
0.0519233
0.022287
17.0618
0.0238726
0.022078
0.0216481
0.0546573
0.0219024
0.0217509
0.0220891
0.0222148
0.0234492
0.0218067
0.0231004
0.0303978
3.81791
12.4633
10.922
6.13502
0.0217479
0.0220047
0.0219017
0.0214032
0.021917
0.0217118
0.179547
0.0218302
0.0222515
0.0220692
0.0220439
0.021831
12.4267
0.0231789
0.0219671
17.5239
0.044079
0.0216981
11.8623
14.2047
0.0220199
0.410721
0.594873
0.0219503
0.0436634
0.0234638
0.0215357
0.0269459
0.0218031
0.0431524
0.0220123
0.022247
0.0217224
41.527
0.0280945
0.0435778
0.0220324
0.0222649
9.94335
0.0250167
0.0220367
0.0235713
0.0239413
0.0222518
0.216338
11.7688
2.83993
3.79664
0.210496
0.0362091
0.0222596
10.7493
0.207027
0.0225228
0.0627145
0.0222931
0.0218789
0.0222461
4.8206
0.0448452
0.0219968
0.0220432
0.259413
0.0217072
0.375971
0.0218745
1.77835
0.356684
1.6063
0.022079
0.02287
0.0305402
0.0345747
0.0221107
0.0377304
0.0799855
0.925829
0.0218116
0.46633
8.84324
0.0215073
4.7654
0.0420139
0.328091
0.125193
0.0219035
0.0273914
0.0412526
0.0216697
0.024781
0.0215193
3.57608
4.79679
0.031661
0.0218209
0.196249
0.0694004
2.82116
0.26072
0.0230594
0.0280533
0.0219358
0.0218597
0.0413216
0.0498668
18.2125
0.0217936
0.432957
0.0221976
6.93391
0.250511
4.65842
0.0215834
0.0226591
1.94009
1.742
0.0410669
7.77058
0.0222692
0.198003
0.021909
0.0218167
5.47526
0.403939
0.0238195
0.0220939
0.0712291
2.16149
0.173183
0.0626206
0.0217526
0.0220137
0.0217035
2.348
10.3241
0.0217055
0.045377
4.19076
0.0848355
0.275419
4.33553
8.4735
4.22771
0.0217165
0.0221717
4.8351
0.0218846
0.0473173
1.50859
11.3383
0.0229982
0.0291457
9.26073
0.613306
1.98606
9.27917
4.64979
4.18936
0.0221112
0.0215803
0.0219867
0.0221647
19.281
0.0511935
0.352557
0.386286
0.0540649
0.0218121
0.267295
0.0216151
0.0307736
0.0219166
0.0392012
8.64289
8.73184
0.0220712
0.0215612
0.041153
3.92281
0.238017
12.0694
0.0425616
0.0219577
0.0760735
0.0214276
0.0880742
0.0306622
0.0218876
3.86126
0.152864
0.560846
0.0593831
0.0221003
0.0214971
12.2023
0.0245155
0.0215877
0.0221464
0.0222559
0.0216701
7.91687
7.27206
5.41217
1.36041
12.413
0.0230886
0.0219324
4.54232
0.0238612
0.0999436
4.62
0.021862
9.66628
6.90689
0.0647167
0.0324022
0.778468
0.0228456
1.75944
0.0375199
5.19884
0.0217967
0.022634
0.0396777
3.54735
0.148458
0.0651988
13.8498
4.17564
0.0669517
0.216514
3.28744
0.0239312
0.336863
33.0916
0.035398
0.0587696
5.17486
0.0326544
0.0356609
0.0221041
0.037599
0.0399026
0.0587635
0.022089
2.58275
0.146278
4.86884
15.4212
5.77327
0.038425
1.53621
3.26998
0.0218408
0.258648
3.90264
2.3308
0.0273755
0.023625
3.76273
8.6398
0.0215646
0.21161
0.0217412
0.0219032
4.34087
0.0246344
5.10048
4.12022
7.76354
1.7595
0.0216019
0.0359948
0.0219242
0.0218379
0.105762
0.0588116
0.0263189
2.57557
4.64798
0.0222729
0.0258656
1.31445
0.0229513
0.348551
0.0448271
4.37264
4.34998
0.596349
6.1431
18.9696
4.49889
4.34633
5.19983
0.0312012
0.0246016
0.113043
0.112512
4.30478
1.43676
0.0221325
0.0222252
12.5881
5.20471
0.0241182
13.065
0.0218855
0.790213
5.87788
4.37775
0.0219184
4.452
1.50539
0.0263915
0.0338862
10.0048
9.60367
10.8704
8.58958
0.0219073
9.59265
4.42198
0.0386717
0.222526
0.0989103
0.0217227
0.02644
6.90644
5.71019
0.0242527
0.0221716
3.78326
0.0813116
5.34797
0.0817149
1.84892
4.37635
0.0219867
9.20692
0.0222852
0.0306342
0.0219548
0.0216865
0.0216929
0.0371113
0.248353
0.0214685
13.6865
0.0775237
4.99811
12.0337
4.68665
0.021905
6.09965
1.52296
4.81956
0.0337822
0.0219092
8.5689
0.46958
5.01187
0.0515136
0.0230231
0.021675
10.2051
9.42136
0.0326678
11.4496
0.0296409
0.0220624
4.08103
0.0505928
18.2426
0.0217852
0.0290652
4.32925
11.1045
4.44324
0.22886
4.37774
4.53504
5.77247
0.0220491
8.83713
0.0463906
0.0218021
0.0215037
0.0218642
11.8551
0.046387
4.36355
4.64212
0.0382844
0.148168
0.0932196
5.92138
0.257114
10.9662
13.2191
1.28059
0.0801776
0.0215914
0.483878
0.0531746
0.120576
4.11735
6.45542
1.62822
0.0220939
0.0237873
0.0462851
0.0220601
0.0218273
0.0277493
4.37365
0.0279982
0.0241585
4.00771
0.0779525
0.430592
4.90661
4.41031
0.504914
4.60091
13.0598
5.48768
0.0597305
0.0317678
0.0219875
1.2462
0.125537
0.354964
0.0586297
0.0563566
0.0214357
0.256872
5.55775
0.0257012
0.0215656
0.0226073
6.98442
0.0218698
0.0220251
0.0671241
4.3669
0.028074
0.0518792
0.158557
0.0292998
0.0571607
0.0218104
0.0219749
0.0415464
0.313757
0.0221034
0.0309132
0.245223
3.35128
0.0219988
9.71719
0.0218056
4.41537
0.0228587
0.0230325
0.021528
0.250683
0.0352311
8.14156
10.7583
0.0622982
0.0221636
0.0217153
4.27172
7.35201
0.0215994
0.256247
4.74458
0.0552669
0.0712561
0.0213982
0.0224462
0.0219089
4.11236
0.0428216
0.0220516
11.4887
0.0222038
0.0535052
0.379706
0.0217242
0.0899605
0.0649434
14.633
0.0222198
0.0254394
0.0229866
0.057326
0.0213814
0.0218967
5.65802
0.400561
0.0854646
0.021689
5.05055
0.0222114
0.0222029
0.0219565
0.62421
11.4825
0.0234465
9.05909
6.82182
0.0685747
6.02763
6.49918
12.6938
6.13842
0.0517236
0.0636639
0.32552
0.0496959
0.0219492
0.0289429
0.0296883
12.4514
0.0220797
7.2754
0.0219738
0.381415
0.103099
0.0225562
0.0223907
10.5927
12.3823
14.2769
4.23069
0.0218021
0.0741827
11.659
0.0255769
8.30991
0.0389277
0.0990986
4.57197
0.0346696
0.0219922
0.153155
0.193354
0.021891
4.29413
2.20454
0.0216928
0.0222391
0.0221213
0.0220091
12.291
0.0216953
0.0490931
0.0220255
0.0219633
0.0308618
0.0219286
4.08911
0.097928
0.0220235
0.0215914
0.141251
0.0229478
0.0522867
8.52443
12.8755
0.0536049
0.239857
0.0386907
0.0215662
0.184165
11.4411
0.0375415
4.32345
4.18503
0.0704315
0.0386504
0.027173
0.0741909
0.0366102
10.3729
0.0221139
0.0220144
0.0215867
6.12966
9.06075
0.0346242
0.113052
0.0217484
0.0257697
0.0879458
0.420134
0.0218543
0.061119
5.58341
0.0811368
0.0219858
0.0218757
17.7104
15.7672
0.0219195
0.89834
0.0307308
0.299407
0.276175
0.0218533
7.05631
0.0290527
0.022025
5.05786
0.308044
0.0219072
0.0221639
0.404651
0.0217385
0.0220427
0.130732
0.0398472
0.0432933
13.1383
0.0249419
0.0448547
5.30256
0.0217854
4.29069
11.4295
0.0247956
0.0606263
0.225367
0.0219117
0.220278
0.0214455
4.17373
1.48576
0.0220024
1.04508
3.54954
0.0218811
0.0218955
0.508013
0.0400128
4.31494
4.17019
0.0220947
0.0437092
13.2854
0.0221931
0.047785
0.0669142
0.0327646
4.99423
0.225874
0.0225442
0.350792
7.6619
0.0430105
0.633033
0.0219073
0.0215288
0.0222674
0.0401177
5.52725
0.0220659
0.0339086
12.5088
7.99526
0.0222179
0.0293699
1.91242
4.32008
0.0222245
5.58816
0.033946
0.0987812
0.0351288
0.0227914
0.0256367
0.0218929
0.0219525
5.66309
0.0219317
0.0486256
0.0219747
7.89573
0.0225227
0.0229229
0.0215613
0.0233559
0.0219772
0.0414969
10.6372
0.747297
0.0378392
0.0400837
0.0219663
0.0302809
0.0528028
3.95914
12.7204
0.0218245
3.7785
0.0220218
2.36389
4.02678
13.4195
0.0218202
0.103125
0.0688485
11.6474
0.212853
0.0218081
3.81715
0.299009
0.035593
1.43143
0.0219096
0.0219275
0.0379478
5.28124
0.021892
1.60127
0.0324634
5.58307
0.0828687
0.0221551
4.04601
0.0275652
0.0219867
0.36471
0.0218287
2.81422
8.59943
0.160268
0.0265902
0.144569
0.0218917
0.120242
0.0447654
6.64457
0.0219327
0.0215318
0.0263553
0.0291862
0.0433147
4.82231
0.487106
0.0339855
0.209702
0.0217774
0.426033
1.1186
0.187351
0.0218951
0.0222599
0.0223572
4.16528
0.0219591
0.025928
4.05256
0.0737858
0.0219136
0.239725
0.073543
0.0219812
0.0247519
0.146775
1.35547
0.0717021
0.0435427
4.77309
4.12818
0.331996
0.0261394
0.0219953
0.0240278
0.0239524
0.180862
0.0585598
0.0271328
0.0711439
8.43697
0.0234746
0.0219912
13.572
0.267857
4.90598
0.181366
0.0252767
0.0231988
0.0232409
0.0217251
0.0218368
0.0433546
0.0214907
0.022594
0.0219944
0.0226526
0.0231839
0.0219354
0.0367799
0.0373372
0.0218753
0.0219206
0.0221196
0.0224434
0.0221503
0.251251
0.0220576
0.0229689
1.34475
0.0216054
0.0228976
0.0220879
0.0268628
13.0753
11.5154
5.50668
5.0704
3.7171
0.266537
0.0218636
0.0620427
0.0219052
0.661274
0.0223874
0.0285737
0.0220355
0.0544804
0.0219484
0.0310597
0.0217664
5.09312
0.226123
0.0220791
7.44131
3.77733
0.0218723
0.0998118
0.0219377
0.02155
12.8183
0.0218972
0.0702827
0.278565
0.0221049
0.0215061
0.0802257
5.02249
0.0242648
0.0229568
4.09357
0.0219297
8.59117
0.0501043
10.4688
0.0216435
4.29016
0.021865
0.0220435
0.329449
0.0586165
8.32688
4.87091
18.8411
5.04598
0.151648
0.163291
0.0220466
0.11992
0.0217494
0.0218123
0.0873538
0.0218994
0.0219782
0.0215634
0.0215944
0.0556848
3.90543
4.18971
0.395827
6.89549
0.023084
0.0290284
0.0223668
0.0225036
0.0718145
0.0219393
0.0215318
0.0217947
0.0232167
0.0227668
0.16947
0.0871537
0.046493
0.0221095
0.0505502
0.0520582
8.4772
12.9943
0.0243856
0.039395
0.0220882
9.73221
3.80358
0.0219064
0.0219305
0.0240852
0.0222132
0.376148
0.394748
12.0238
0.0219937
1.00424
0.0219887
5.61717
0.0504448
0.0218036
0.0277827
2.86827
0.0260311
0.0276562
0.0297923
0.092367
5.52583
0.0215436
0.0219115
0.0271826
0.166333
0.021813
5.29114
0.428095
0.021899
0.0213971
12.5982
0.0670154
0.0218933
3.51661
11.7487
4.13161
0.332357
0.0275797
1.88475
0.0220721
11.6066
4.89865
0.670448
0.0666712
0.0235293
13.072
0.0245677
0.0218616
0.0214327
0.19874
0.0216062
1.32184
0.0220706
0.0220337
0.0244013
4.39388
0.0234982
0.022523
0.0220737
6.94935
7.90719
9.4098
4.44888
0.0431199
0.0218915
0.0235183
0.205518
0.102001
0.0219809
0.0489256
0.184813
2.18724
0.0217912
15.1252
12.3167
0.0388707
0.0220633
0.0234404
0.0219402
0.0216496
0.0219253
0.0220323
0.0217135
0.090346
0.022096
0.10323
0.0223287
0.0224455
14.6549
0.0738662
0.0224898
0.0225127
5.04582
0.021485
0.0222931
0.025672
0.0218082
1.34561
0.030975
0.0224904
0.0415654
0.0218584
0.0268579
0.0215354
0.147506
0.0218081
0.0218538
5.0587
0.0227028
0.188581
0.0333481
0.0232399
0.0736715
0.0213869
0.0220887
0.0224079
10.2586
0.0232173
0.0218974
1.99417
0.0219012
0.0215913
0.0218803
1.35325
0.0308469
0.10874
0.0319273
0.0294442
0.046569
0.0235104
0.0266236
0.044394
5.43203
0.0221028
0.0278564
0.0217432
0.227723
0.281595
0.0219022
0.0280277
4.89223
0.0286116
0.0214929
12.0438
0.0254295
0.0775919
5.28861
0.0280087
0.0218406
0.0290217
0.0219007
0.0231538
0.0219004
0.0229818
0.0254708
0.0219695
0.0220683
0.0303435
0.0220126
0.106399
0.0217848
0.0232156
0.0218729
0.0288556
4.25826
0.0219575
0.0218224
0.0906152
0.022409
0.0218634
0.251411
8.98543
6.59571
0.0219551
0.0240792
0.0353181
0.0222445
0.0221262
0.0338793
0.159922
0.0215134
0.0502408
0.0219111
0.0218836
0.021659
0.0214968
0.0223678
0.0427602
0.0340418
0.0263493
5.2331
0.0237965
0.0273448
0.0216611
4.46364
0.321047
4.15681
0.0219367
0.0464627
0.0278641
0.0219111
0.0221208
0.0395833
4.62424
5.22277
0.0216751
0.0271617
7.61871
0.0224623
0.259143
10.8283
5.04201
0.0289975
0.0219169
0.0382858
0.0438431
0.165969
9.2087
1.26987
4.83906
0.0224104
0.0221741
0.0218801
0.125621
0.0217984
0.0216585
0.0379178
0.0218581
0.0217498
0.0218736
0.0482238
0.0218106
0.0217656
0.0219631
5.28993
0.0214784
0.021938
0.0221072
0.0220916
0.0219372
0.0666713
0.069578
1.00162
0.0214705
0.0276629
0.0921723
11.2325
6.87956
0.0220903
0.022275
0.0490661
0.089046
0.0253037
0.354432
0.0219167
0.349946
0.022278
4.29134
0.022538
0.0218745
0.0465519
0.021895
0.0216851
0.0224876
0.580795
0.0240533
0.0222331
0.0221786
0.0219021
0.0398887
0.0216149
0.0219093
0.0256013
0.0959064
0.0239362
0.0215665
4.31906
5.36713
0.0219027
0.607394
0.0221448
0.0292312
0.0815294
0.298886
0.0231111
0.0226762
0.021965
0.237002
0.0280219
0.0219054
0.0218886
0.0229067
0.181809
0.0216729
0.0350085
0.0235458
0.0330525
0.0468345
0.0379388
0.0840966
3.7814
0.0245379
0.0220401
8.84137
0.452185
0.0219292
0.0214672
0.0220631
0.0219104
0.0218698
0.0235596
0.0216486
0.0220781
9.5125
4.35084
0.0320972
0.0218929
5.33167
0.0235204
0.0216882
10.1467
0.0230636
0.0215937
0.0220936
0.0220375
0.0374593
0.0219538
0.0530546
0.0219053
0.0217688
0.0219011
0.0324996
0.0359388
0.0218874
0.0560858
4.25249
0.0227742
0.0218843
0.0568269
0.0216585
0.0219092
0.0218502
0.0302193
0.0220534
11.6541
0.0221578
0.228426
3.13258
0.0581782
0.0227031
0.0220108
0.021942
0.0219244
0.0289944
0.2035
0.144077
0.0217935
0.023267
12.7168
0.0214946
0.156399
0.021959
0.0223849
0.0306232
0.058473
0.0219518
0.0338286
0.0273277
0.0547149
4.02101
6.26032
0.0216474
0.0219235
0.0310127
0.0221509
0.0224199
0.0506411
0.0222761
0.0829632
0.0217714
0.0648175
0.0221062
0.0735908
0.058891
4.27792
12.3707
0.021913
0.038842
0.720667
0.311308
0.0215482
0.0215326
0.163866
0.0219297
0.0217928
0.0217241
0.0214743
0.0678441
0.0821726
18.1399
0.0220204
0.0465229
0.0222548
0.0215456
0.0227699
4.47601
0.142561
0.0218691
0.0219987
0.0218212
9.13852
0.021999
0.0218954
0.0222396
0.0219016
0.0408755
0.0218283
5.13013
0.0219794
0.0221051
0.0220841
0.0218392
0.0216907
0.0220057
8.43075
0.0217706
0.0218962
0.362338
0.0217686
0.0220427
0.0221124
0.0221576
0.0555331
0.0218629
0.0219662
2.42454
0.0228854
0.0220386
0.0220931
0.0214257
4.52523
0.0226235
0.0220592
0.0218583
0.0255146
0.0219588
1.71829
0.0217866
0.0220085
9.35738
0.0219765
0.065931
0.0220408
0.0213877
0.0214402
0.0292234
0.0367576
0.0218048
0.022286
0.0233153
0.0218902
0.0221102
0.0219735
0.0216591
0.0215319
0.0215483
4.44552
0.021947
0.021817
7.77121
0.0218953
0.0265067
0.159692
4.34528
0.0217936
0.0219547
0.0219468
0.0216049
0.0226017
0.0387221
0.0234485
0.0381274
0.0217322
0.0246866
0.0219044
0.0214486
0.0270341
0.0596794
0.0231638
0.0280872
0.0220268
0.0219456
0.0221202
5.01527
0.0227168
0.0220111
9.14018
0.0222452
2.22052
0.0220633
0.0219198
0.0216899
4.17395
0.0218698
0.0246087
0.0224087
0.0220721
0.021959
0.0220876
0.021848
0.0237001
0.0218654
0.0366825
0.0222476
0.0394181
0.0214186
0.0216015
0.0232866
2.74894
0.0221502
0.0220486
0.0223357
0.0218931
0.023514
4.52622
0.0224532
0.0262849
4.87285
0.492103
0.022436
0.0221721
0.139957
0.0767395
0.0225566
0.0221155
0.0216392
0.530988
0.0220874
11.4626
0.0215924
0.0215184
0.022104
0.0215901
0.022793
0.0215603
0.0219877
0.0222649
0.0637678
0.0232185
0.0221584
0.0215806
0.337235
0.070013
0.0214706
0.0221035
0.0229729
0.0222389
0.022059
0.0215357
3.9566
0.0215402
0.0218789
0.0636411
0.0215324
7.15597
0.0218146
0.0474943
0.0263284
0.0219606
0.0214801
0.0219062
0.0217051
0.0220428
0.0215182
0.0215771
0.708028
4.33285
5.07259
0.0215744
2.35797
0.0218951
0.0584083
0.0219039
0.0219098
0.0221094
5.50434
0.0219349
0.0218927
0.0221272
0.0218936
0.648351
0.0218927
5.59392
0.0214211
0.0220005
5.68701
12.7794
0.0219827
0.0219468
0.0265979
0.0220153
0.162092
0.0217394
0.766314
0.0217379
0.035193
0.0221398
0.0218037
0.0219289
0.0218876
0.0227731
0.0218284
0.0310923
0.0358993
0.113698
0.0215045
10.471
0.0218873
10.0063
0.0218937
9.25413
5.59857
0.0217363
0.0218971
0.0215419
0.0218162
0.0220438
0.0216449
0.0215374
0.0220166
0.0214155
0.0986031
0.02211
4.16413
0.0215351
0.0214677
0.0219115
0.0219036
0.0221858
2.82838
0.0224143
2.14523
0.0214432
0.0221197
0.0357952
0.0215614
0.176331
0.0228247
0.0219156
0.0395844
0.0214843
0.0219715
0.0222226
0.0215336
0.0279603
0.0402109
0.0215869
0.0221125
0.0220459
9.65747
0.0230054
0.0214625
11.3774
0.0540213
0.0215823
0.0219066
0.214365
0.0222853
0.0214128
0.320354
0.194595
0.0222974
0.0214146
0.0222397
0.0351159
0.0215435
0.168629
0.0215786
0.0215815
0.0418357
0.0552029
0.0215771
0.0215372
0.0214185
0.0216744
0.0216875
0.0389181
0.0219596
0.0216866
0.0221108
0.0218364
6.40431
0.0222722
3.263
0.0258961
0.0276713
0.0221421
4.50335
0.0217984
4.27967
0.0214262
0.0219468
0.456149
0.0219656
0.0225578
0.0216299
0.024385
0.0216236
0.0266298
0.0214615
2.97691
0.0220398
0.0214787
0.0214878
0.0215497
0.119752
0.0217502
5.72177
0.0219055
0.0244261
0.0214788
0.0220154
0.199047
0.0219947
0.103951
0.0218022
0.0227903
0.0220153
0.0221339
0.0222326
0.0218787
0.0219745
0.216723
0.02155
0.0219318
0.0223196
0.0220582
0.0220554
0.0333846
0.0215802
0.0219052
0.0218234
0.0215691
0.0217507
0.0219911
10.0232
0.193215
1.25291
0.0214129
0.0230595
0.0221268
0.0261686
0.145568
0.22221
0.0325203
0.0215301
0.0219721
0.0216249
0.0221456
0.0221154
0.0219011
3.68953
0.052302
0.0219254
0.19646
0.0221385
8.1263
0.0219505
0.0218845
0.0217928
0.02147
0.0214627
0.0216284
0.0216329
0.0217555
0.0398305
0.0223698
0.0218926
6.14036
0.0215449