/*--------------------------------*- C++ -*----------------------------------*\
| =========                 |                                                 |
| \\      /  F ield         | OpenFOAM: The Open Source CFD Toolbox           |
|  \\    /   O peration     | Version:  v2012                                 |
|   \\  /    A nd           | Website:  www.openfoam.com                      |
|    \\/     M anipulation  |                                                 |
\*---------------------------------------------------------------------------*/
FoamFile
{
    version     2.0;
    format      ascii;
    class       volScalarField;
    location    "600";
    object      ddt0(k);
}
// * * * * * * * * * * * * * * * * * * * * * * * * * * * * * * * * * * * * * //

dimensions      [0 2 -3 0 0 0 0];


internalField   nonuniform List<scalar> 
10042
(
-2.32277e-08
-3.25076e-08
3.4918e-08
-2.3613e-07
-0.0143295
5.6498e-08
-0.0146357
-0.00352188
-2.36625e-07
-3.20847e-08
0.00221385
-2.85717e-07
-1.61471e-07
-6.19245e-08
3.79199e-08
-2.13978e-07
-1.90911e-07
1.30404e-08
-4.76812e-08
-5.11872e-07
-4.73013e-07
1.50853e-05
-1.41945e-07
8.95354e-08
-1.69378e-08
-6.79909e-07
-9.27602e-08
5.54477e-08
-1.7991e-07
5.76932e-08
-1.30358e-08
0.000261616
7.31933e-08
-3.20319e-08
-2.34082e-07
1.11215e-07
-6.10335e-07
-1.11229e-06
-2.01595e-07
-3.37584e-08
-3.8612e-07
6.75927e-08
-0.0121824
1.89726e-07
-0.0098078
-6.07686e-07
1.83534e-07
-3.23509e-08
-4.35275e-07
-1.77203e-06
-1.14797e-07
-1.97072e-08
1.5529e-07
-2.63399e-07
-6.136e-07
-6.7738e-08
-1.95584e-07
2.01778e-07
-2.9937e-09
2.12114e-07
-4.23288e-08
-1.58953e-07
-2.3202e-07
1.95723e-08
5.04404e-08
-1.85151e-08
9.40504e-08
-8.18552e-07
0.00573647
1.45806e-08
-2.71341e-07
1.80322e-06
1.75335e-07
-2.96903e-09
2.0256e-07
3.11687e-07
-0.00690542
-6.19528e-08
3.52895e-08
-0.00834898
-4.99803e-07
-0.00194947
1.59374e-07
5.82422e-08
1.15268e-07
5.41098e-09
1.16084e-07
-3.85066e-07
2.37047e-07
1.98069e-08
-1.22119e-07
-0.00717065
4.3295e-08
-1.08712e-07
7.08728e-08
-4.54226e-08
-6.0956e-08
-2.69258e-08
-5.78656e-08
-2.30368e-07
8.21868e-12
-3.41089e-07
-0.00352137
1.04062e-07
1.73135e-08
-2.0985e-07
1.49144e-07
-4.78058e-08
-4.22791e-07
-1.39479e-07
-3.04938e-07
-9.49228e-08
-6.55831e-08
0.00493416
5.19831e-08
-6.38735e-08
6.53421e-09
-5.7603e-08
-6.00532e-08
0.00328056
2.6226e-07
-0.023917
1.13404e-07
-3.2796e-08
-3.48452e-07
1.14269e-07
-0.00241381
-3.08865e-07
-1.07337e-07
-5.07521e-08
3.5289e-08
8.6301e-08
0.00299404
1.22068e-07
-2.05871e-07
-2.64483e-07
0.00201001
-1.19144e-08
-2.83126e-07
-2.84415e-07
1.29119e-07
2.67628e-08
1.13648e-07
-1.37346e-07
3.45924e-08
-6.7781e-08
-2.74285e-07
-1.38539e-07
-7.09843e-08
-4.85727e-08
-1.86259e-07
2.91247e-08
0.00101471
0.00363501
-3.20207e-07
-9.54764e-08
8.07135e-08
-1.87749e-07
-2.88079e-07
0.000636062
0.00199806
-3.4529e-07
-7.23536e-09
-1.86572e-07
1.72567e-07
8.73628e-08
-1.08627e-07
-6.13647e-05
0.000298755
0.00449924
-2.07202e-07
1.81472e-07
-0.00621857
2.71072e-06
-3.51148e-08
-0.0114513
0.00193991
1.70837e-07
9.88196e-08
-1.6044e-07
7.51177e-08
0.000357266
1.8786e-07
-2.92195e-07
7.62035e-08
0.00358289
3.57313e-06
-1.28763e-08
0.00278725
-3.1674e-07
-1.85035e-05
1.75444e-07
0.000754877
-0.00210611
-3.17049e-07
0.0657406
-4.92357e-07
9.37524e-08
-1.15069e-07
-8.61302e-08
-1.12825e-09
-4.40838e-08
4.76411e-09
-7.42795e-06
1.02445e-07
-2.15792e-07
0.000117032
-3.80375e-07
6.73025e-08
4.53818e-07
-8.63005e-05
-3.78289e-07
-1.0595e-07
6.53788e-07
8.571e-08
-1.95137e-06
2.16516e-07
1.31061e-07
-2.12075e-07
-3.88918e-08
-6.99384e-08
8.35126e-08
1.22802e-06
-1.20804e-06
1.36705e-07
-7.5269e-07
3.50025e-05
-1.06723e-07
-3.61543e-07
-3.00966e-07
-2.35695e-07
-5.98097e-07
1.83104e-07
-2.85559e-07
8.1814e-08
-7.72668e-08
-2.90562e-07
-2.14084e-07
-3.29438e-07
-9.51146e-07
-3.18373e-08
1.49656e-07
1.20821e-07
-3.76668e-09
-2.05622e-07
2.05107e-08
-1.06923e-07
8.49025e-09
-1.87296e-07
9.80233e-09
-4.22204e-07
3.57593e-09
1.36977e-07
6.88011e-07
-3.8096e-07
0.00243111
-6.55303e-08
-3.82532e-08
3.20462e-08
-4.77733e-07
-0.02286
-2.72213e-07
1.40083e-07
-1.97138e-07
-8.20537e-08
-2.46478e-07
2.78102e-05
-2.93539e-07
3.39378e-08
4.99293e-07
-2.23495e-08
-2.55303e-07
-1.85937e-06
-6.27284e-08
-2.06154e-07
-3.3672e-07
-9.2558e-07
-2.05408e-07
-2.68353e-07
1.34822e-08
-1.87929e-07
1.95611e-07
-6.71764e-07
0.0037266
-1.17942e-07
-2.4816e-08
-0.0237745
-5.40963e-07
9.24896e-08
7.15009e-08
7.16886e-08
-0.0109742
-1.41473e-07
-1.40334e-07
-7.06096e-08
-1.42942e-07
-9.36308e-08
-2.37615e-07
-1.37925e-05
3.75914e-08
-2.03607e-07
1.72197e-09
1.78724e-07
-1.31133e-06
5.96169e-08
-3.06196e-07
-0.0091203
2.41305e-07
-0.025017
-3.23966e-07
-4.93237e-07
-8.62143e-08
0.00109095
-2.61932e-07
0.000257972
0.000526187
1.64435e-07
-2.91116e-07
1.26588e-08
8.70766e-08
-7.45216e-07
-4.19146e-08
-2.20201e-07
-3.54558e-07
-1.50067e-07
1.64338e-07
-2.61339e-07
-1.00314e-07
-1.79637e-07
1.65977e-07
1.00262e-07
0.00347445
-2.07009e-07
-3.21248e-07
-9.12708e-08
3.50411e-08
-1.34138e-07
-3.73884e-07
-5.95467e-08
-0.000141787
-1.30585e-06
-2.95201e-07
1.65995e-07
-7.74426e-08
-1.79588e-07
4.75754e-08
-1.68115e-05
1.72557e-07
-3.52264e-08
-5.85656e-07
1.12174e-08
7.17546e-08
4.38335e-08
3.13454e-07
-2.96863e-08
1.30472e-07
-1.66033e-07
-2.07162e-07
-3.5401e-08
5.16078e-08
-0.000855301
-2.34008e-07
-1.55301e-07
-1.50789e-07
2.27284e-07
4.2594e-08
1.50069e-07
1.58735e-08
-1.0289e-05
-5.37413e-07
4.12602e-08
1.6017e-07
7.27911e-11
-1.02297e-07
5.57769e-07
5.44809e-08
-3.55564e-07
0.00233371
-4.76262e-08
-0.0175407
0.000384653
1.06914e-08
-0.00643504
0.00230175
-9.3205e-09
-8.73926e-07
-2.74312e-07
-1.74058e-06
6.51522e-10
1.86476e-07
-0.00348683
-4.47093e-08
4.33085e-08
8.60665e-05
-2.19959e-07
-6.30336e-07
1.01487e-08
7.70084e-05
-8.52844e-08
-6.21866e-08
0.000315383
-2.94492e-07
3.03048e-07
2.01623e-07
0.000680828
-9.53884e-08
4.92726e-08
-2.01205e-07
-2.01489e-07
-2.7383e-07
-7.85124e-08
-0.00640139
-0.0245389
1.88077e-07
-0.0146054
-3.26596e-07
2.48084e-08
4.69804e-07
7.5539e-08
-0.00853107
-1.13148e-07
4.34973e-08
-1.36259e-08
5.98797e-09
-1.50856e-07
-1.98444e-07
-1.62178e-08
7.66481e-08
0.00254322
9.10578e-08
-0.000744973
7.19331e-08
1.50263e-08
-6.09281e-08
1.53337e-05
-1.3241e-08
-5.38977e-09
-1.02902e-08
-1.24932e-07
0.000506526
-5.67872e-07
-1.21046e-07
-2.84686e-07
0.000683579
-1.78635e-07
-5.40701e-07
-1.02352e-07
-2.49102e-07
-0.0207738
-0.00669943
-3.10618e-07
5.4493e-08
-5.54613e-07
-4.67456e-07
-2.80221e-07
-3.01684e-08
0.00106115
1.16561e-08
-3.93201e-07
-8.50576e-08
-0.0102605
-1.85682e-07
6.85134e-08
-1.53244e-07
5.54403e-05
-1.41009e-06
-2.88318e-08
5.02037e-08
-6.50755e-06
-9.80662e-08
-1.0006e-07
6.79771e-08
-1.74706e-07
2.90662e-08
8.10556e-08
-1.60348e-07
-3.89666e-08
1.5408e-07
2.51171e-09
0.00179927
-2.76301e-08
-1.25118e-07
4.68478e-08
1.37072e-07
-2.00302e-07
-3.54281e-07
-5.88593e-08
0.000117739
5.2096e-08
-0.00382672
-2.52612e-07
8.43873e-10
-4.73717e-08
-3.46462e-07
3.37142e-07
-4.92458e-08
-3.09428e-07
-2.59928e-07
-2.24735e-08
-0.0135243
-5.3031e-08
-3.91303e-08
1.1268e-05
-1.39885e-06
6.20478e-08
-5.92006e-08
1.77682e-08
-6.55105e-09
-2.81582e-07
-0.000142825
0.00164141
-4.31239e-08
-3.31826e-07
-9.5983e-07
-9.86192e-07
1.25928e-07
-2.43927e-07
-0.00238835
-1.27126e-07
1.5506e-05
-1.74603e-07
7.62238e-09
1.08147e-07
6.06628e-08
0.00642045
-1.62196e-07
-2.6291e-07
-1.57649e-07
-3.46558e-07
1.94721e-07
-0.0034071
-5.58038e-07
1.01002e-07
0.000670274
-1.29254e-05
4.52203e-06
-2.59739e-07
-2.79645e-07
-1.91619e-07
-1.91128e-06
-2.54772e-07
0.00420954
0.00221318
1.13723e-07
-1.25686e-08
9.08994e-09
-2.54178e-07
1.26073e-07
6.30452e-08
0.0021408
-8.04477e-08
-3.18741e-07
-7.47875e-07
-1.02934e-07
-0.000134822
-2.28864e-07
-1.0755e-06
-6.77918e-08
-1.28801e-08
-3.51161e-07
-2.38238e-07
-2.4254e-06
-2.38212e-07
-1.26304e-07
2.66756e-07
-1.9012e-06
4.85811e-09
-1.3859e-08
6.6906e-08
-1.06019e-07
-4.26254e-08
1.17991e-07
-2.15806e-07
-1.59063e-09
1.27718e-07
4.48733e-08
-2.36667e-07
8.00945e-08
1.37924e-06
-3.03678e-07
-8.34191e-08
-7.67867e-06
-1.98634e-07
-2.26778e-07
-8.1082e-07
1.39628e-09
0.00295266
-7.58946e-07
-1.8878e-07
-1.6021e-06
4.25597e-08
9.59646e-08
9.41245e-08
-1.12021e-07
3.15353e-10
-2.37068e-07
1.74485e-07
-1.52502e-05
9.86581e-08
-1.33204e-07
-1.06234e-07
-1.88391e-07
-6.44535e-07
-7.92824e-08
-5.5628e-07
-1.93497e-07
-1.19279e-06
7.1558e-08
-5.53654e-08
-3.9356e-07
6.92524e-08
-1.97315e-08
9.63968e-08
-0.0138796
-2.067e-07
9.28184e-07
-1.84253e-08
-3.799e-07
-1.77967e-07
-8.86638e-07
4.28994e-08
-7.56229e-07
2.28828e-08
4.39207e-07
-3.4453e-09
-0.0193826
-1.41812e-07
1.05607e-07
-2.13311e-07
2.08866e-07
1.90014e-07
-2.19659e-07
-2.62735e-08
2.00847e-07
0.00194505
0.00064279
-4.51975e-07
-4.71822e-09
6.26356e-08
-9.17985e-08
-6.23571e-07
-8.06559e-08
5.32401e-08
-1.2503e-07
0.00437408
-6.27852e-07
-0.0182528
-2.90922e-07
7.38841e-08
-4.98776e-08
-4.94241e-07
-2.94712e-07
-2.33636e-06
2.44515e-07
-9.56901e-09
-3.23885e-07
2.38956e-08
1.54076e-08
-5.95836e-07
0.00646779
1.21164e-07
-1.87326e-07
-2.25741e-06
1.19524e-07
-0.00725059
2.32374e-08
1.42781e-07
3.16348e-09
-1.55656e-07
0.00126552
-5.67398e-07
0.00729994
-2.45806e-07
-3.68167e-05
0.0018195
3.18021e-05
-2.28472e-06
-4.61022e-07
-5.57353e-07
-1.75162e-07
2.25069e-07
-8.51533e-08
6.72534e-08
0.00115818
6.59836e-08
-6.34162e-08
-0.000874633
1.94619e-07
7.66985e-08
-1.22618e-09
8.44554e-08
1.63157e-07
1.22803e-08
-4.01483e-07
-0.0304243
-6.60991e-08
1.47312e-07
0.00272833
0.00105792
4.39605e-08
-3.35202e-08
-1.05841e-07
-1.76545e-07
7.01709e-07
-6.77475e-07
1.38405e-06
3.85491e-08
1.6603e-07
-2.45792e-07
5.86206e-08
-3.16263e-08
-9.63714e-07
1.54971e-07
-0.00227225
-1.49229e-07
1.56629e-07
-1.94054e-07
-1.31867e-07
-1.57275e-06
-9.42095e-08
-3.25319e-07
0.00216192
0.0062365
1.05691e-07
-2.83963e-07
-0.0295258
0.00158393
-1.7018e-07
5.88936e-08
-0.00262111
8.34035e-07
3.63715e-08
2.23858e-07
-7.15452e-08
-4.23576e-07
-1.53759e-06
-4.50813e-07
6.71589e-07
4.28421e-08
0.00389571
-2.93252e-06
-1.05052e-07
-1.55452e-08
1.46977e-07
-3.54046e-07
-1.76787e-07
2.47672e-08
0.0054285
0.00341485
-0.0193314
-1.07046e-07
-3.93936e-07
-1.62411e-07
-2.06118e-07
-4.9067e-07
-1.55294e-07
-2.25609e-06
-1.10308e-08
-8.4051e-08
-4.22134e-07
1.11386e-07
-2.59946e-07
-2.37578e-07
-3.4888e-07
-3.33848e-07
1.35264e-07
-3.22702e-06
-1.29118e-07
6.71512e-09
-6.20732e-07
-1.03284e-07
-2.03068e-06
-2.25703e-07
-2.18286e-07
0.00133049
-0.00454343
7.73909e-08
0.00120808
0.000449864
2.00032e-07
-1.74758e-07
1.31275e-07
3.60111e-08
0.00125676
-1.15815e-07
-3.43973e-08
3.63511e-08
0.00113786
-1.31723e-07
-1.03332e-07
-1.62929e-07
-5.94501e-08
-1.58375e-07
-2.21782e-08
-1.07492e-07
-1.14299e-06
9.45878e-08
-1.53988e-07
-2.33029e-07
-5.69338e-06
-2.11331e-08
3.36725e-08
4.79939e-08
1.00364e-07
-1.28585e-07
-1.39177e-07
1.75406e-07
2.10374e-08
-5.54566e-07
1.30235e-05
1.1308e-10
-2.56511e-06
-1.40996e-07
0.00193452
-1.41432e-07
-3.82525e-08
-1.19454e-06
-2.27347e-07
-2.09736e-09
1.46583e-07
0.00925001
-0.0307473
2.90484e-08
-2.25787e-07
-0.000125943
-1.62933e-07
6.75928e-08
-1.63767e-07
2.79226e-09
-1.66127e-07
-7.2695e-12
3.57287e-10
-8.08108e-08
-1.02947e-07
-9.48872e-08
2.2438e-08
9.37112e-08
-0.0132819
-3.74348e-07
1.07239e-06
-2.01416e-07
-6.87271e-07
-1.64466e-07
0.00215446
-4.49992e-07
0.00545098
-8.80179e-09
-7.72056e-07
-1.47686e-07
7.89842e-08
2.35296e-07
-3.48001e-07
-2.85712e-09
-2.25895e-06
0.0016679
-4.72146e-08
-0.0016607
-8.50856e-07
-1.78819e-07
-6.65669e-09
-5.44998e-07
0.00541757
-5.67462e-08
-5.58096e-09
-9.32922e-08
-8.44385e-08
9.73105e-09
6.82905e-08
-2.68629e-07
4.56282e-08
4.39725e-06
3.70961e-07
-4.61306e-08
-2.57716e-07
-9.36087e-08
1.79362e-07
-7.17787e-08
-1.48688e-08
-2.77296e-07
-4.7865e-07
9.20535e-08
-6.15382e-09
1.48836e-08
-6.49917e-09
0.00225722
5.4048e-08
-1.00169e-05
-1.9659e-08
0.00369887
-2.71815e-07
-6.66762e-07
0.000451701
-6.61109e-07
2.87302e-06
-0.0118666
-2.10845e-07
8.2968e-09
1.31274e-07
5.93492e-08
-1.38223e-07
-5.31611e-08
0.00579592
-4.02163e-09
0.0166046
-0.0161402
-2.63691e-06
-2.12773e-07
0.00287264
0.00357543
6.93461e-08
-9.85976e-08
-3.28099e-07
-5.54135e-07
-2.81036e-07
-3.51014e-07
-1.95709e-07
-0.00323729
-1.513e-08
-3.11389e-08
9.52482e-08
6.77608e-06
-1.5433e-06
1.08739e-07
-1.54166e-07
-1.83762e-07
6.77783e-08
-2.09082e-08
0.00481744
1.48928e-07
9.68045e-08
0.00010809
7.3706e-08
1.84593e-07
0.00022564
-0.00381749
0.00361371
1.58326e-07
1.67849e-07
7.06616e-06
-1.62238e-07
-1.55818e-07
-1.17369e-07
-1.26984e-06
-2.77326e-07
-2.88832e-07
-3.27725e-07
1.28258e-08
9.97492e-08
3.34756e-08
1.55168e-07
-8.2727e-08
-2.01398e-07
1.13019e-07
-3.62493e-07
-3.42627e-07
-3.3739e-08
8.0156e-08
-2.43735e-07
-1.52153e-07
-2.73084e-07
-1.21052e-07
0.00613446
-7.33578e-07
-7.26525e-08
8.96932e-08
-1.35085e-08
0.00236107
-2.84587e-08
-2.65365e-07
4.55523e-08
8.9371e-09
-0.0183692
-2.07795e-06
2.853e-08
-2.48614e-07
-4.33357e-07
-1.85246e-07
8.34309e-08
1.13953e-07
8.19396e-08
-3.00926e-07
-6.05499e-07
1.56476e-07
-0.0269079
-2.03096e-07
7.69806e-08
-1.86029e-07
-0.00615643
-3.74398e-08
9.27139e-07
-4.3742e-09
1.25175e-05
2.44349e-09
-7.76471e-09
-5.29547e-07
-7.65579e-07
3.13117e-07
-1.00276e-07
-3.03636e-07
-3.44771e-07
-2.35123e-06
-2.63573e-07
-0.0460595
-1.99043e-07
-2.65957e-07
-8.53477e-08
1.28922e-07
1.90725e-07
-0.0303666
8.04577e-08
5.644e-08
-4.21662e-08
-1.51627e-07
-0.000409538
-2.96627e-07
2.01066e-07
-2.88286e-07
-2.23824e-07
-2.44728e-07
-6.77432e-08
-2.80661e-07
6.28712e-09
-5.60912e-07
0.00015671
1.5132e-07
-2.76987e-07
0.00141084
8.50103e-08
-1.08373e-06
-3.2891e-07
-4.23581e-08
-1.86089e-07
2.32101e-07
8.49047e-09
-9.01234e-08
-2.52277e-07
0.0194285
9.70856e-08
8.22276e-08
-3.81739e-07
1.4223e-07
-2.05846e-05
0.00754829
-1.19051e-07
-3.43543e-08
2.00812e-06
-1.64354e-07
-0.00360946
-3.89365e-07
1.42869e-07
-3.63915e-07
0.000658714
-1.2497e-08
1.9163e-07
8.66081e-08
-9.24249e-07
0.00166707
-7.09108e-08
-3.11105e-07
1.02154e-07
-3.90767e-09
-2.27008e-07
-1.14426e-07
-4.69893e-08
-2.11377e-07
2.68351e-08
0.000483808
0.00394652
4.90419e-07
5.14218e-08
-1.86264e-07
-0.0423146
1.03068e-07
1.52081e-05
-2.81843e-08
-9.2211e-08
7.8511e-08
-1.04457e-07
-3.61202e-07
-8.65306e-08
-2.77179e-07
1.04278e-07
-0.00221465
-8.86416e-08
-1.12757e-07
-5.25621e-07
-5.24856e-07
-1.70741e-07
-4.00885e-08
2.1842e-09
2.24641e-08
1.23633e-07
7.51405e-08
-1.21654e-06
-7.51558e-08
-2.0564e-07
-5.09094e-09
-2.45085e-07
-3.74017e-07
-6.47901e-08
-1.22198e-07
7.07542e-08
-4.14892e-08
-4.74157e-09
-1.38595e-06
-1.86107e-07
-2.16019e-07
-5.42678e-07
-2.78002e-07
1.65319e-07
-9.16282e-08
-2.33296e-07
-2.6477e-08
0.000771686
-2.0079e-07
-6.46652e-08
0.00130667
6.53965e-09
-1.03956e-06
-1.48624e-07
-1.53472e-07
-1.64913e-06
0.000445894
-1.22269e-06
-2.03192e-07
-3.22785e-07
-4.38725e-08
2.40875e-08
7.38508e-08
-4.75798e-07
1.36715e-08
3.53212e-06
3.94478e-08
2.3892e-07
-2.31036e-07
2.70835e-08
-6.77657e-07
-8.23874e-07
-1.90411e-08
1.29415e-08
-7.17024e-08
0.141356
-6.51425e-08
-8.45631e-07
0.00696645
3.55202e-08
-2.43382e-07
-1.2494e-06
-2.4499e-07
-6.21218e-08
-0.00864298
1.88282e-08
-5.95136e-08
-3.04565e-07
7.66392e-08
-6.79675e-07
-1.02791e-07
-1.66786e-07
-0.00681749
-1.43754e-07
-9.60384e-08
-1.66713e-07
1.11833e-07
-1.78375e-07
5.02849e-09
-0.000147569
1.99569e-07
1.62918e-07
-9.56659e-08
-5.78652e-07
3.37804e-08
-3.19902e-08
-5.04176e-08
-1.30756e-07
4.22842e-08
2.94804e-07
-4.73419e-08
-2.53419e-07
7.51705e-08
-2.09617e-07
-2.85197e-07
-1.06772e-07
3.59807e-08
-3.11222e-07
-2.33619e-07
7.33172e-08
5.72138e-08
1.14827e-07
-0.00367211
1.14146e-08
1.78697e-07
-3.74666e-07
-1.53456e-09
-5.40755e-08
-3.45249e-07
-0.0150645
0.00256853
-0.0048776
-6.50383e-09
-1.86176e-07
-1.93724e-07
1.95766e-08
-3.02361e-08
-1.48756e-07
0.000100888
-7.46853e-07
0.00583183
-2.50738e-07
-9.90135e-06
0.00086962
-9.80278e-08
-2.81946e-07
9.24815e-08
-6.04164e-08
0.00397942
-1.33934e-07
-7.76016e-09
5.43195e-08
7.55738e-08
-3.96057e-07
0.00320234
0.00511514
-1.52239e-07
0.00098324
4.6585e-07
-1.86136e-05
-2.93389e-07
-2.17684e-07
-2.64459e-08
0.00718991
1.32141e-07
-0.0196646
0.00213419
-1.42794e-07
1.6094e-07
-8.18968e-08
8.28734e-08
-5.16248e-07
-3.88046e-07
-3.24837e-06
-8.36249e-08
-3.09745e-07
-2.21438e-07
-1.25825e-07
-2.1398e-07
-1.78939e-08
3.62052e-08
7.41054e-08
0.000617505
-1.37205e-07
-4.00185e-08
-0.0174054
-3.11905e-07
-1.3028e-07
7.77677e-08
-2.94344e-06
1.15892e-08
-1.96444e-07
-2.68928e-07
-2.40915e-07
-2.01954e-07
-2.10822e-07
-1.83229e-06
-1.41317e-07
0.00397412
2.14151e-08
-2.42374e-06
0.00651505
-0.0100203
-1.97068e-07
2.06801e-07
-7.71218e-07
-7.38968e-09
-1.28579e-07
1.23773e-07
0.0082436
-3.11549e-07
-4.40598e-07
1.1364e-07
-2.98887e-07
0.00107529
6.3944e-05
-5.433e-08
-8.87344e-08
0.0056176
-8.86972e-09
-1.69347e-07
-9.19278e-08
-2.65077e-07
-2.40424e-07
2.27829e-08
2.39858e-07
-5.27362e-07
-2.35766e-07
-9.16577e-07
-0.0420184
-1.66592e-07
-3.13657e-07
0.00254058
-1.71973e-07
-1.69138e-07
-6.56441e-08
-8.96123e-08
-2.939e-08
-1.81497e-07
2.1451e-08
-8.56357e-08
1.22129e-07
-1.06919e-07
-4.82702e-07
-3.14427e-08
1.31628e-08
-8.20925e-08
-5.59454e-07
-3.44673e-08
0.00506465
0.00280946
-7.52242e-08
-0.00629879
-9.07373e-08
-1.49739e-07
-2.70703e-07
-4.08441e-07
0.000708266
-1.7629e-07
7.36191e-08
-1.69092e-07
-1.08148e-07
-1.8812e-07
2.98265e-09
-2.55082e-06
-5.31231e-07
8.63081e-08
1.60469e-07
0.00116973
0.00642558
5.10764e-08
1.51013e-07
-2.6649e-07
-1.05626e-05
1.25341e-07
-0.00693922
0.00854704
-1.45766e-07
-1.04076e-08
1.27704e-07
1.11665e-07
0.00116746
-3.41604e-07
4.8655e-08
-2.30923e-07
-1.9322e-07
6.70446e-08
3.81226e-08
-1.03275e-07
9.45183e-08
1.46238e-07
-3.04984e-07
-2.10687e-07
0.00457941
-2.17002e-07
-1.23688e-06
-6.29025e-08
-6.40318e-07
4.64017e-08
-3.35146e-09
-1.55691e-07
-4.45322e-07
-5.46466e-08
5.09343e-08
-2.47054e-08
-2.90825e-09
0.00215375
1.28679e-07
-1.61031e-07
1.52398e-07
-2.18509e-07
8.3544e-08
1.67275e-07
-9.93839e-08
-1.63129e-07
-1.16678e-05
-0.00246097
1.83855e-07
-0.00612411
0.00544355
0.0044849
-8.85543e-08
1.52562e-07
2.97229e-07
2.37273e-08
-3.59745e-07
5.07715e-08
2.03031e-07
1.58077e-07
-1.03037e-07
1.21742e-07
0.00249188
-1.6166e-07
-0.00182718
-1.06277e-06
1.21552e-07
1.27625e-07
-8.07362e-08
1.81527e-07
-3.96034e-07
-2.42702e-07
-9.98961e-08
2.03397e-06
-8.65724e-07
2.4555e-07
-0.0306086
6.33792e-08
-4.23872e-08
-1.51454e-07
-5.80266e-05
-5.55935e-07
9.52153e-08
1.16565e-08
-1.35347e-07
-1.34237e-07
2.42902e-08
-7.81134e-07
-1.08267e-06
-0.0264339
-1.30382e-07
-3.70861e-07
2.6702e-06
-1.23163e-07
-2.08752e-08
-5.03359e-07
-1.49444e-07
-2.09009e-07
-1.09516e-06
-2.31198e-07
0.000614663
2.48296e-08
-8.90766e-08
-1.05174e-08
-3.68781e-08
-2.42452e-07
-5.93065e-08
-6.28323e-07
-2.31168e-06
0.00239609
-1.62016e-07
-0.0162308
-0.00441482
-5.08366e-07
5.03058e-06
1.49867e-07
-1.88564e-07
0.0011502
3.82523e-08
-2.90167e-07
-1.15435e-07
-4.44792e-06
-2.16087e-07
-1.5664e-06
-2.77979e-07
0.00014907
-1.49092e-06
0.00248166
-2.80424e-08
-1.69096e-06
-2.13412e-07
-1.53391e-07
-6.04896e-05
-5.81472e-09
0.000677407
0.00631513
-0.00312516
-0.00314158
-2.82715e-07
0.0055388
-2.45642e-07
-7.57185e-09
-1.80346e-07
-2.65484e-07
-0.0226824
-9.03306e-08
-3.70464e-07
-1.40044e-07
-3.04029e-07
1.01077e-07
1.79518e-07
1.94686e-07
0.0018531
0.00137468
2.43268e-07
-0.0128996
-1.62129e-07
5.1859e-08
-1.32116e-07
-7.40272e-08
0.00177432
-1.69834e-07
4.12603e-10
2.30229e-05
-1.04493e-07
3.80408e-09
9.13018e-08
-1.76727e-07
-1.54501e-07
-1.92875e-07
-4.62935e-08
-2.53836e-07
1.13814e-07
-5.89566e-08
0.0046227
2.59826e-07
-4.62004e-07
-0.0181859
-2.07706e-06
-4.50929e-07
-1.36748e-07
0.000893173
-3.78805e-08
1.45877e-07
5.48378e-08
-9.80709e-08
-1.38097e-07
-8.76217e-07
-4.37443e-08
-0.0138702
-1.30219e-07
-2.93403e-07
2.3972e-07
-1.74521e-06
-1.83022e-06
-8.94393e-07
2.17591e-07
-0.00974241
1.4985e-08
-7.11306e-07
-2.36086e-07
-3.93407e-07
-1.67439e-06
-2.70994e-08
-2.53204e-07
-5.12634e-07
-4.95895e-08
-6.14828e-08
-3.02887e-07
-6.7348e-07
-6.52114e-08
1.61828e-10
-2.97251e-07
6.86831e-08
-6.14588e-07
-4.30235e-08
-7.0196e-07
-7.50869e-09
-1.80132e-07
0.00286618
6.63947e-08
0.00665405
1.04144e-07
7.65439e-08
-4.60882e-07
1.14041e-07
-7.86545e-07
4.23376e-07
-2.33892e-07
-4.45606e-08
-4.55626e-07
-2.13682e-07
-2.48076e-07
2.055e-07
0.00220535
0.000685943
3.59925e-08
6.89076e-09
-1.93708e-07
3.94644e-08
-3.22541e-07
-0.000143697
-1.4498e-08
-1.31084e-05
-2.64405e-07
-9.17131e-08
1.4287e-08
0.00118299
-3.57233e-08
1.21113e-07
2.98857e-08
3.43371e-09
2.09596e-07
-2.87831e-08
3.08796e-08
-4.13148e-07
0.00509928
-1.40357e-07
7.0449e-08
4.28527e-08
-2.08473e-07
2.72712e-07
-0.0154464
-1.06918e-07
-6.52924e-10
-2.20396e-07
-9.56051e-08
-3.10682e-07
-7.40014e-08
-3.03462e-07
-1.78232e-07
-2.7923e-07
-1.13868e-07
-3.18855e-07
-5.0544e-07
-2.5218e-07
-8.12838e-08
2.31657e-07
-0.0298859
-0.00115076
-1.39206e-07
-1.36937e-07
0.00114677
-3.3365e-07
-2.78333e-07
-5.41233e-07
-4.82377e-07
-5.73009e-08
0.00801806
-1.39425e-06
-1.34601e-07
-0.000239208
-0.00327903
1.69079e-07
-3.02832e-07
-2.02739e-07
8.51569e-08
-0.0111632
2.05822e-07
-6.20555e-07
-1.90674e-07
1.48638e-07
-2.36571e-07
-1.22826e-07
-2.43285e-07
-3.51764e-07
1.20527e-08
-0.0920965
5.90111e-09
-1.68642e-07
2.95576e-08
-1.8528e-07
-4.05968e-08
-3.12077e-07
-7.63273e-07
-6.00148e-10
-5.45385e-07
-2.47213e-07
1.4218e-05
1.86918e-07
-2.08105e-07
8.30794e-08
-1.00402e-07
1.44096e-07
-1.47561e-07
-7.40053e-07
-2.39307e-07
6.69329e-08
-5.31608e-07
-6.89105e-08
-6.45962e-08
-6.47342e-08
0.00411181
1.03622e-07
-3.44825e-07
1.6406e-08
3.89179e-07
-1.74037e-07
-1.06199e-07
-3.44533e-08
8.22863e-08
-0.00884504
0.000519019
-1.61481e-07
-4.16774e-07
1.25952e-07
-9.86491e-08
-3.41927e-07
-2.16557e-08
1.1393e-09
-1.73577e-07
1.87104e-07
3.44056e-08
1.98322e-07
-2.45833e-07
3.91426e-05
-3.1195e-07
-2.21053e-07
-5.75931e-08
0.00366152
-3.93597e-07
-4.06064e-08
0.00807038
-2.23649e-07
-7.73876e-08
2.75632e-06
9.75919e-07
-0.000602506
-9.44489e-08
3.20227e-06
-5.27645e-07
-6.04379e-07
0.00126897
-1.17049e-08
0.000153438
-1.21645e-06
-1.7073e-07
0.0031126
3.34007e-10
2.34757e-07
6.36597e-08
-1.679e-06
-4.17585e-08
0.00038951
-1.01448e-06
0.00171909
1.56394e-07
-1.49283e-07
-2.95365e-07
-1.57348e-07
2.32522e-07
1.16448e-06
-1.18414e-07
-8.31139e-08
-7.35726e-07
-9.84547e-08
-2.15647e-07
-1.82359e-07
-2.9072e-07
0.000528373
-4.68731e-07
4.96627e-08
-7.2514e-08
0.0015435
-2.01471e-08
-4.88864e-08
-1.67774e-07
0.00478068
-5.20696e-08
-5.53909e-07
8.13853e-08
-7.54455e-08
1.10184e-07
3.69526e-08
1.62787e-08
1.65012e-07
-2.95026e-07
0.00209601
-0.00093378
-6.30474e-07
8.91065e-08
-6.0085e-07
-1.98062e-07
-8.44763e-08
-1.02698e-07
-2.34302e-08
1.95256e-07
0.00536657
-8.87529e-08
-4.64444e-09
2.98222e-08
-0.0237037
-2.8543e-07
-1.66035e-07
0.000176743
0.000378603
2.78905e-07
-1.75035e-07
-4.34509e-07
-1.81317e-07
2.86781e-09
-1.39051e-07
0.00669416
-1.64639e-07
-6.71037e-07
1.8259e-07
-9.85897e-07
-2.47278e-07
-1.64364e-07
-1.0018e-07
-1.61951e-07
-1.53285e-07
-3.14924e-07
-2.07019e-07
-5.51634e-08
-3.45215e-07
1.46364e-07
-1.84971e-07
-0.00235609
0.0013158
-5.552e-07
-3.6979e-08
5.0396e-08
-3.60458e-07
0.00519888
-1.53482e-07
2.26614e-06
-1.11827e-07
1.36913e-08
-1.82288e-07
-1.78994e-07
-0.000157761
-4.89152e-08
0.00258549
-2.3065e-07
-3.68864e-07
-7.89669e-08
-0.021139
1.00447e-07
5.87204e-08
0.00702526
-1.96473e-07
1.91142e-07
0.000846232
3.03241e-08
-0.0122567
-1.64074e-07
-8.50456e-07
0.00161505
-3.42914e-07
1.81218e-07
-3.36257e-07
0.000487892
-5.97771e-07
-3.16097e-07
1.73617e-05
-5.76106e-08
-2.70542e-07
-1.86902e-07
0.00096429
-1.24677e-06
0.00598707
0.00422178
-1.14107e-07
8.99927e-08
5.95669e-07
2.91038e-07
-1.75806e-07
5.19881e-08
5.94509e-08
-8.31595e-07
-1.83656e-06
4.33218e-08
7.32979e-08
1.31667e-07
2.25825e-08
0.00121606
8.23779e-09
0.00167663
-1.1854e-07
-1.71002e-06
-1.29547e-06
-4.50583e-07
-3.68853e-07
0.00500884
0.00797182
-2.22012e-07
8.87808e-08
-1.32712e-07
-2.10146e-06
-1.53812e-07
-1.007e-06
-2.00607e-07
-8.0622e-07
-3.18985e-07
0.00178067
0.0020191
-5.92834e-07
1.09737e-07
-1.90741e-07
-7.66084e-08
-3.10111e-07
-9.53043e-07
-0.000414834
6.19461e-08
-9.33316e-08
-1.94483e-06
0.00217709
-9.5799e-08
0.000170979
6.34198e-08
-3.80615e-07
-1.79858e-07
-0.00126074
-1.23184e-06
-1.04593e-07
-8.31705e-08
5.35122e-08
-5.71748e-07
-2.15505e-07
3.39416e-08
1.80141e-07
-4.53602e-07
-2.61799e-07
5.23587e-08
-2.02319e-07
-2.10387e-07
1.62473e-06
2.19319e-07
2.62578e-08
-8.24116e-07
-1.42825e-07
-6.54995e-08
0.00307504
-0.000172133
-8.81209e-08
-1.03274e-07
-2.45103e-07
-6.31388e-07
-0.000606845
-6.95384e-08
-0.0143316
8.71671e-08
-6.42837e-08
0.00346566
8.24807e-08
0.00678293
-0.0180939
5.79451e-08
-1.63659e-07
-0.00466981
9.57999e-08
-4.58516e-08
1.29876e-07
0.00524648
-5.93567e-07
1.5347e-06
0.000694068
-0.00296652
-8.86724e-07
-1.09933e-06
-1.48154e-07
-2.43768e-07
0.00364319
-2.88829e-07
-4.35456e-07
0.00511052
-9.04731e-08
-9.66001e-08
-2.26408e-09
-0.0277254
0.000938168
2.85032e-07
1.60706e-07
-6.16338e-07
8.46e-08
8.50772e-05
-2.14097e-07
-3.27552e-07
-0.0235541
0.00328922
1.15001e-07
-3.31803e-07
-8.5721e-08
-3.00062e-05
-7.87449e-08
-8.72091e-07
-5.79295e-07
3.01131e-06
1.11318e-07
-1.19086e-06
0.000967926
0.00614029
-8.01674e-08
1.06783e-08
-2.21793e-07
-1.54048e-07
-0.000465925
-1.45975e-07
0.00595149
-1.50636e-07
-2.23198e-07
-7.86346e-08
0.0043118
-2.22791e-07
-8.43286e-08
-8.46945e-07
0.000287301
0.00270238
0.00163031
0.00221182
0.00339509
0.00141828
9.44092e-08
1.30518e-08
-2.00237e-07
5.20488e-08
0.00239238
1.00561e-05
-1.12298e-08
-0.0190042
-1.74379e-08
-4.57734e-08
-1.02272e-07
-6.01249e-07
-1.31574e-07
0.00355927
1.53856e-07
2.05837e-05
-7.04226e-08
1.21228e-06
-1.13083e-07
-1.31921e-07
0.00131277
-2.77849e-07
-6.77318e-07
-1.88039e-07
-5.37673e-09
-2.05826e-07
-1.26123e-07
1.31666e-07
0.00297176
-1.33463e-07
-2.40288e-07
-0.00530455
-4.22158e-07
0.00452373
-2.30189e-07
0.00695615
-3.72897e-08
-2.19955e-07
4.80848e-08
1.25311e-07
-8.26364e-07
-1.68843e-07
0.00541803
-1.65829e-08
-1.57898e-06
0.00580869
8.65722e-08
0.00707992
5.53791e-08
0.00776148
-0.0359375
0.00751046
-1.83368e-07
3.69218e-08
4.09254e-09
-0.00181367
2.37736e-08
-7.20868e-07
-9.6481e-08
-1.07276e-06
0.00763527
-2.67979e-07
5.4404e-08
1.5639e-07
7.46312e-08
-0.0031969
-0.0199967
-8.42345e-08
-3.69094e-07
0.0040512
-0.00593084
-3.41992e-07
-0.0171178
-1.55406e-07
0.00229826
0.00682372
-7.92933e-07
-3.19005e-06
-1.06579e-05
-8.34221e-08
0.00266858
-6.72731e-07
1.93709e-07
1.34811e-07
-1.94506e-07
0.00755575
-0.0159114
-7.25263e-08
3.85365e-09
0.00287914
-3.02852e-07
0.00198913
-1.60958e-07
-8.87292e-08
-3.6101e-07
0.00133754
-7.61847e-07
-6.04357e-08
0.00399215
-5.71227e-09
-0.0254917
-0.00288234
-7.11739e-08
-2.03101e-07
-3.87621e-07
-8.86038e-08
-2.9827e-07
-1.98323e-07
0.000679563
-5.52002e-08
-7.55555e-08
1.4635e-07
0.00142885
1.61015e-07
-1.77414e-07
5.701e-08
0.00623426
8.95682e-08
-1.977e-07
-3.34411e-07
0.00426613
-0.0215605
-1.58699e-07
-5.2655e-07
-2.71956e-07
5.56828e-08
-2.7114e-07
0.00636391
-6.23656e-08
-2.79229e-07
-2.54879e-07
2.0778e-06
-2.42523e-07
0.00745785
0.00183172
-9.98967e-08
0.00255421
0.00427713
4.11088e-08
-2.73459e-07
0.000212879
-3.07672e-07
0.00426287
1.4154e-07
-7.61868e-06
-6.7707e-09
-8.03613e-08
-2.07086e-07
2.21869e-09
2.39053e-07
1.08256e-07
-1.42067e-07
0.000540787
-2.00615e-07
0.00302024
0.00188642
1.80507e-08
-3.98961e-07
-1.49244e-07
-0.00523487
-3.25759e-08
-2.00968e-07
-2.18292e-07
-0.013866
0.00113206
-0.0063223
0.00198371
-2.19399e-07
1.85549e-07
-2.20153e-07
-3.08969e-07
-1.93159e-07
9.29699e-06
4.18026e-08
7.35651e-08
0.0013542
-1.18258e-07
6.74806e-09
-6.23312e-07
2.60512e-05
-2.73455e-07
-1.11497e-07
-1.01827e-07
1.48577e-06
2.39378e-05
-0.0142437
-7.37542e-06
1.07496e-07
9.22079e-08
-3.73533e-07
-7.65767e-09
1.89387e-07
1.10794e-07
-1.03649e-07
-9.73092e-07
-1.84109e-07
-8.62679e-07
-1.74626e-08
8.43546e-08
7.90641e-08
-2.69319e-07
-1.60903e-07
-6.92902e-08
8.26622e-08
-1.16281e-07
2.021e-07
-1.60865e-07
6.49709e-08
-2.59793e-07
1.77142e-06
-1.64411e-07
-8.74523e-08
-2.40381e-06
-0.000131224
0.00614271
0.00303822
-1.1312e-07
-6.21635e-08
1.82554e-08
0.00280635
-7.34925e-08
-2.56245e-07
2.21811e-07
-0.00562149
-1.20555e-08
-4.01188e-07
-2.23502e-05
1.36289e-07
4.45992e-08
-1.45739e-07
1.53012e-08
-1.21471e-07
-8.92077e-08
-1.18583e-07
-1.11843e-07
7.64509e-08
-7.40935e-09
8.78372e-08
-5.74595e-07
-1.0611e-05
-7.6636e-07
-2.217e-07
-1.06733e-07
-4.36634e-07
-2.85134e-07
-1.647e-07
-3.91427e-09
0.0023492
1.09351e-08
3.88511e-08
1.05386e-07
-3.78728e-07
-2.22441e-07
-3.27412e-09
-2.03843e-07
0.000272995
2.77233e-08
-4.36596e-06
-2.44391e-07
-1.56423e-07
-2.4985e-07
-1.79986e-07
6.8866e-08
-9.87976e-08
6.49148e-08
-3.33125e-07
-1.81069e-07
0.00449386
-1.29713e-07
-1.44667e-07
6.77818e-08
0.00535882
-0.00217779
-2.77746e-07
-5.52592e-08
-1.71101e-07
-3.79063e-07
-1.49261e-07
-3.44412e-08
0.00441427
-2.17625e-07
6.1191e-08
-1.50463e-07
-1.79457e-07
1.85218e-07
-1.5607e-07
-0.00534472
4.31787e-08
-1.44603e-06
-1.75958e-07
4.82682e-08
-0.0212829
0.00486874
-2.55778e-07
-1.62808e-06
-2.80405e-07
-2.1958e-07
-2.36754e-07
-0.0150642
-3.89747e-07
-1.77348e-07
-3.5704e-07
2.75911e-08
3.35742e-07
-1.62912e-06
-7.36189e-08
0.00758503
-1.19521e-07
-6.73365e-07
-1.03308e-07
1.9671e-07
-1.83663e-07
-8.28866e-08
-2.9714e-07
-6.87235e-08
5.5446e-08
0.00224982
8.30206e-08
1.14826e-07
9.22654e-10
-0.00869372
2.29705e-07
-0.00100074
-3.16109e-07
0.00680439
6.67135e-08
-1.60384e-07
8.37285e-09
-1.50488e-07
1.9325e-07
-2.85542e-07
2.93354e-07
1.38989e-07
-2.82512e-07
-2.14651e-07
-4.39562e-08
0.000790889
-3.39078e-08
2.397e-07
-3.95205e-07
-5.05383e-07
2.73306e-07
2.72135e-08
-6.68779e-07
-0.00300834
-0.0230148
0.000163801
4.34805e-06
1.60645e-06
-2.8272e-07
-9.49562e-08
5.50656e-08
-3.3572e-07
-2.0228e-07
0.00742594
-9.34263e-08
-2.76019e-07
9.90291e-08
-1.0131e-07
-6.56785e-07
-3.51391e-07
7.43748e-08
6.39996e-08
-2.97267e-07
1.48442e-07
-2.32019e-07
-9.9084e-08
-1.61511e-08
0.0012166
-4.75141e-07
1.55149e-07
-0.000305845
-0.0240606