/*--------------------------------*- C++ -*----------------------------------*\
| =========                 |                                                 |
| \\      /  F ield         | OpenFOAM: The Open Source CFD Toolbox           |
|  \\    /   O peration     | Version:  v2012                                 |
|   \\  /    A nd           | Website:  www.openfoam.com                      |
|    \\/     M anipulation  |                                                 |
\*---------------------------------------------------------------------------*/
FoamFile
{
    version     2.0;
    format      ascii;
    class       volVectorField;
    location    "600";
    object      ddtCorrDdt0(U);
}
// * * * * * * * * * * * * * * * * * * * * * * * * * * * * * * * * * * * * * //

dimensions      [0 1 -2 0 0 0 0];


internalField   nonuniform List<vector> 
10042
(
(0.000468352 -9.97814e-05 1.19216e-18)
(0.000227551 0.00037154 -2.53436e-18)
(-0.00111544 -0.00149311 -9.24284e-19)
(-0.000156356 -4.0169e-06 -6.78863e-19)
(0.128626 -0.0111712 -1.73927e-17)
(0.00019849 0.000419016 -5.40248e-18)
(0.201506 -0.0180539 3.45666e-17)
(0.0119515 -0.0309935 -5.33373e-17)
(-0.000693823 -0.00103043 1.12301e-18)
(0.00020349 1.56669e-06 4.15393e-18)
(-0.0325315 -0.000809549 -8.44252e-17)
(-0.000220782 -6.09854e-06 -8.96785e-19)
(-0.000165632 -6.65329e-05 -2.57163e-19)
(-0.000164759 -3.18627e-05 1.10626e-19)
(0.00271497 0.00225083 -3.0692e-18)
(0.000262956 0.00021727 6.1096e-19)
(0.000275469 0.000171153 1.84936e-19)
(6.50518e-06 5.54281e-05 -7.60275e-19)
(0.000443782 -9.68276e-05 9.75144e-19)
(0.00782577 0.0161117 -1.34716e-17)
(0.000136536 -0.000195216 3.92359e-19)
(-0.000926004 -0.0379916 5.15521e-17)
(-0.000131108 -1.39136e-05 5.1687e-19)
(-0.000127609 -8.57901e-05 1.75159e-19)
(0.000213108 0.000411374 -2.86101e-18)
(-0.00347096 -0.00878553 1.61028e-17)
(7.17881e-05 0.000684117 -1.55257e-18)
(0.00270614 0.000231087 1.74767e-18)
(0.000216654 -0.00081383 -5.51328e-20)
(0.00224063 -0.000207097 1.05449e-18)
(0.000152399 0.000388973 1.56487e-18)
(-0.00693149 0.000603951 -1.25278e-16)
(0.000201275 2.2432e-05 -5.1417e-18)
(0.00160558 -0.00130619 3.382e-19)
(0.00156918 -0.00608683 -1.01996e-18)
(-0.00011819 -8.21082e-05 -3.14725e-20)
(-0.00293138 -0.008204 2.97918e-18)
(-0.00798697 -0.0100407 -8.00615e-18)
(-0.00011242 -7.45409e-05 -1.8384e-19)
(0.00700842 -0.000561939 -1.68876e-19)
(0.00718031 0.0161272 2.28042e-17)
(0.00271764 0.0017594 2.24383e-18)
(0.195558 -0.0202856 -3.16572e-18)
(0.0014097 0.000383053 3.54135e-18)
(0.123485 -0.0115129 -6.84831e-17)
(-0.00906289 -0.0195521 7.24584e-19)
(0.00177301 0.00128446 -5.55983e-18)
(-0.019537 -0.0277431 1.33834e-17)
(-0.00107459 -0.00752121 7.67575e-18)
(-0.0209725 -0.0101447 5.30137e-18)
(5.12592e-05 4.78629e-05 2.11274e-18)
(-0.00313238 0.00115372 1.99854e-18)
(0.00208657 0.00230633 -2.25772e-18)
(-0.00466119 0.000207211 1.05537e-18)
(-0.00250651 -0.00820902 3.09604e-19)
(0.000222115 0.000385908 5.29934e-18)
(0.000183098 -0.000869134 -5.84346e-20)
(0.00170543 0.00127058 -3.98823e-18)
(0.00148861 -0.00134574 4.25148e-19)
(0.00213557 0.00219096 -1.01597e-18)
(0.000183701 0.000434073 2.004e-18)
(0.000263296 0.00021673 -2.5346e-18)
(0.00187988 -0.00620496 1.04007e-17)
(-0.00104744 -0.00142682 2.43496e-18)
(0.000863194 0.001837 2.24129e-17)
(0.0013601 -0.00152762 3.64978e-19)
(0.000596631 0.00134401 -3.09214e-18)
(0.00673237 0.013164 1.1538e-17)
(0.0019519 -0.0131915 3.08759e-17)
(0.00102328 -2.81996e-05 8.40853e-19)
(-0.00463556 0.000495333 2.00521e-18)
(0.00723551 0.0168737 -3.20805e-17)
(0.00143129 0.000476547 -5.77432e-18)
(0.00315901 0.00693121 -1.4895e-17)
(0.000396471 0.00123031 -5.9354e-18)
(-0.000132667 -9.38679e-05 -7.81427e-20)
(0.125453 -0.0111348 5.34223e-17)
(0.000412728 -6.31237e-05 1.3551e-18)
(0.0044232 0.00532697 -6.76238e-19)
(0.183689 -0.0114594 5.37609e-17)
(-0.001145 -0.00716606 -9.18882e-18)
(0.119814 -0.016018 4.5226e-18)
(0.00133424 -0.000354791 6.75481e-19)
(0.00236017 0.00169007 -1.25629e-18)
(0.000525676 0.00136199 2.17788e-18)
(3.96867e-05 0.000259131 -3.72008e-18)
(0.000474886 -8.65398e-05 2.15134e-18)
(0.0245413 -0.00681743 2.06216e-17)
(0.000952901 0.000621983 1.05998e-18)
(0.000486126 -0.000132827 -4.11328e-18)
(0.000353445 -0.00204044 -1.57394e-18)
(0.10612 -0.0150631 1.00487e-16)
(0.00281365 0.000155942 -3.89704e-18)
(-0.00292421 0.00101696 -1.79073e-18)
(0.00215403 -0.000118264 -9.75104e-19)
(0.000783152 -0.000707707 6.54017e-20)
(0.000366684 -0.000131443 2.1373e-18)
(0.000843003 -0.000421726 -2.36826e-19)
(0.00670681 -0.000533043 2.76057e-19)
(-0.000114466 -0.00106254 -1.51751e-18)
(-1.02918e-06 1.08586e-05 -4.39822e-18)
(0.0195545 -0.0123363 3.80802e-17)
(0.0690003 -0.027453 4.75402e-18)
(4.87357e-05 0.00027201 3.65258e-18)
(0.00247801 0.000626765 3.71501e-18)
(0.0139778 -0.00127293 4.37132e-20)
(0.000447358 2.53087e-05 2.84418e-18)
(0.000384454 -0.000153421 -2.56319e-20)
(0.000137379 -0.000179732 -9.72966e-19)
(-0.000419082 7.69468e-05 2.09233e-19)
(-7.48645e-05 -3.04985e-05 3.03584e-19)
(0.000670727 -0.000204939 -9.62364e-19)
(0.00417126 -0.00323934 5.37536e-18)
(-0.00630539 -0.011984 -3.7885e-17)
(0.000779137 0.00179708 -1.54484e-17)
(0.000658658 -0.000164481 3.1575e-18)
(0.000203545 0.000164378 2.562e-18)
(0.000433001 -6.55013e-05 -3.66381e-18)
(0.000720332 -0.000733199 -3.21383e-20)
(-0.00124294 0.00759394 -6.01127e-17)
(0.000889694 0.000575572 8.154e-18)
(-0.00756892 -0.0347603 -4.99101e-17)
(0.00154035 0.000230543 2.16233e-18)
(0.000106436 0.00026112 -4.87409e-19)
(0.0186915 -0.0128063 -2.04224e-17)
(0.0014362 -0.000291043 -8.96409e-19)
(-0.0161171 -0.0354226 7.54178e-17)
(0.00105922 -0.00771348 3.21101e-18)
(0.0134632 -0.00104703 3.07493e-18)
(0.000528909 -0.000130851 -6.17918e-18)
(0.0046534 0.00550462 1.65214e-17)
(0.000932889 0.000989204 1.13496e-17)
(-0.0238583 0.00217316 -2.12125e-17)
(0.00299933 -0.0293842 -6.01002e-17)
(-8.39972e-05 -0.00102107 -3.98598e-19)
(0.0140183 -0.00734883 -1.8012e-17)
(-0.012216 0.00527919 7.92883e-17)
(0.000471283 -0.00207314 4.02375e-18)
(-0.0184951 -0.0290872 6.56805e-18)
(0.0256345 -0.00677586 -3.86765e-17)
(0.00257572 0.000974462 -1.9722e-18)
(0.000204744 0.000177102 -3.90396e-18)
(0.00221781 0.000925967 -3.53385e-18)
(0.0185267 -0.0195505 -3.98259e-17)
(-0.0021543 0.000390121 4.2524e-18)
(0.000654423 -0.000205148 1.13031e-18)
(0.0120211 -0.0108517 1.54753e-17)
(-0.000750694 8.74058e-05 5.38234e-19)
(0.000917579 -0.000424184 4.99645e-19)
(0.00466971 -0.001104 -8.65586e-20)
(-0.000922417 -0.00108921 4.99631e-18)
(4.38359e-06 2.01143e-05 -4.3988e-18)
(0.115002 0.00744226 -4.39021e-17)
(-0.00684598 0.00669889 -8.78843e-18)
(4.22353e-05 0.000565842 2.08168e-18)
(-0.000162813 -5.70902e-05 1.75582e-19)
(0.000547304 0.002593 7.61529e-18)
(0.000259444 0.000196121 2.6646e-18)
(0.014496 -0.00695345 -8.57245e-18)
(-0.00311671 -0.00339956 -5.26734e-17)
(-0.0336438 -0.00108644 6.35869e-20)
(0.00368329 -0.0263068 -8.49761e-18)
(0.000208949 0.000258458 -1.14866e-18)
(-0.000842023 -0.00110725 -4.62193e-19)
(0.00147171 -0.000623847 -7.32797e-20)
(0.000877353 0.000940949 -5.45738e-18)
(0.0134979 0.0057135 1.53144e-19)
(-0.00673948 -0.00555709 9.60453e-17)
(-0.0103337 0.00263317 -2.8504e-17)
(0.00119759 0.00638231 -6.02334e-17)
(-0.00380668 -0.000371959 -5.67734e-18)
(0.000266505 -0.000306536 8.72304e-19)
(0.0880018 -0.0225545 -1.15212e-16)
(0.00950905 0.016803 1.23556e-17)
(0.00781717 0.00565068 -1.82952e-17)
(0.171182 -0.0323824 -1.85736e-17)
(-0.013958 0.00668838 -1.36131e-17)
(0.00149163 0.000324534 -1.03814e-17)
(0.0069281 0.0135654 4.62111e-18)
(0.00650116 -0.00556143 5.08128e-18)
(0.000575718 0.00272535 6.80436e-18)
(-0.00492783 0.00149058 3.96015e-17)
(0.0007208 0.00141673 -7.3761e-18)
(0.00124867 -0.00746162 -1.13903e-17)
(0.00255193 0.0017701 8.08833e-18)
(0.00165157 0.00749274 1.82658e-18)
(0.00647821 -0.0297789 1.18025e-17)
(0.00113107 -0.00122689 2.46383e-18)
(-0.0266719 -0.00545269 6.42672e-19)
(0.000285238 -0.00453467 -5.64642e-19)
(0.0157978 0.0265622 -3.03815e-18)
(0.0022088 0.00106612 5.4246e-18)
(0.112845 0.00690911 2.30988e-17)
(0.0417149 -0.0281987 -1.53264e-17)
(-0.00148406 -0.0256858 -2.51824e-17)
(0.0055183 -0.0373483 -5.91704e-17)
(-0.00202411 -0.00618685 1.08789e-17)
(0.000400903 4.89959e-06 -2.43039e-18)
(-0.000151203 -5.37296e-05 -4.71182e-19)
(0.00272638 -0.00232178 -1.1118e-18)
(0.00663747 0.00647656 8.76314e-19)
(0.0011674 -0.00131039 -1.28518e-18)
(0.000618759 -0.000233105 2.64054e-18)
(0.0105553 0.016859 1.60061e-18)
(0.000665368 0.00144089 7.77056e-18)
(-0.000126318 -0.000391256 3.78224e-19)
(0.0177149 0.0287516 4.2393e-18)
(6.65649e-05 0.000625175 4.30818e-18)
(6.34459e-06 6.79397e-05 4.11371e-19)
(4.41866e-06 0.000281525 -6.80245e-20)
(0.0161549 -0.0383603 1.28378e-17)
(-0.000183052 -1.24504e-05 -2.09843e-19)
(0.0128316 0.00563544 1.3168e-18)
(0.0246989 0.0105088 5.7e-18)
(0.000651694 0.00246142 -5.9229e-18)
(0.00693463 -0.0301824 -2.51029e-17)
(0.000370701 0.00097977 1.63743e-17)
(0.000286938 1.57229e-05 2.05783e-21)
(0.0110614 -0.0144839 -1.66811e-18)
(0.000209423 -0.00027661 -4.50986e-19)
(0.00418455 -0.00359087 -9.37188e-18)
(0.00100849 0.00265557 1.19456e-17)
(0.0295497 0.00437439 -3.1687e-17)
(-0.008408 -0.0105681 7.33993e-18)
(0.00357903 0.00308044 3.71319e-18)
(-0.00433662 -0.00921987 2.92671e-18)
(0.00777155 -0.0289181 -6.52829e-17)
(0.00065857 -0.000184351 -7.84829e-18)
(0.00730798 -0.027417 -2.17127e-17)
(-0.0050239 0.000714072 -1.99185e-19)
(-0.000772733 -0.00102951 -2.08675e-18)
(0.0137834 0.0142093 -2.5141e-17)
(0.000270815 -0.000304336 -3.99019e-18)
(-0.00499018 0.0010269 1.01618e-17)
(-0.00114186 -0.0015704 3.64173e-18)
(0.00482944 -0.00134282 -1.13166e-19)
(1.20602e-05 -0.000374715 -3.10548e-21)
(-0.000176047 -1.83354e-05 -9.99545e-20)
(-0.00193514 -0.00386072 8.55968e-19)
(-0.00925187 0.000102663 -1.22008e-17)
(0.000192094 0.000274039 -1.14789e-17)
(0.00155259 0.000303073 -1.62747e-18)
(0.00140505 -0.000590994 5.87333e-19)
(0.00440303 -0.00312883 -2.94461e-18)
(0.00062092 -0.000186288 -4.00368e-18)
(0.000171213 0.000404925 2.86861e-18)
(-9.93857e-05 -1.91885e-05 2.32876e-19)
(0.00260561 0.000572666 5.85832e-18)
(-0.00419582 -1.52665e-05 2.68439e-18)
(4.02463e-06 4.09245e-05 -3.07541e-19)
(-0.000139939 -3.34452e-05 1.54369e-19)
(0.000963745 -6.08745e-05 1.65427e-18)
(0.00411802 0.000262269 -1.3446e-18)
(0.0309882 0.0047055 6.49141e-18)
(0.00434519 -0.0260358 1.17579e-17)
(-0.0297223 -0.00439571 8.80284e-18)
(0.0079645 0.00605302 -9.4182e-18)
(0.00813488 0.00481679 -1.58783e-17)
(0.00287499 0.00226868 7.51189e-18)
(-0.00847994 -0.021442 -3.13325e-18)
(0.212495 -0.025231 2.05669e-17)
(-0.00184112 -0.00363686 8.14203e-18)
(0.00042434 2.81504e-05 1.53883e-18)
(-0.000164326 -2.02463e-05 6.33925e-19)
(0.00270905 -0.00218835 -3.03621e-18)
(3.39073e-06 -0.000349143 3.5488e-19)
(-0.0066198 -0.0408949 -2.64791e-17)
(-0.00440343 -0.00222582 4.60335e-18)
(0.000533658 -0.000111585 7.65054e-19)
(2.97261e-06 0.000249383 3.3935e-20)
(0.00656438 0.00690537 -1.50844e-17)
(-0.0043984 -2.80178e-05 -3.9045e-19)
(0.0248777 0.00920654 4.43953e-18)
(0.00824482 0.00528466 1.5712e-17)
(0.0247002 -0.0120117 -1.31843e-17)
(0.000480683 -0.00464453 1.16876e-18)
(-0.00939197 0.000687508 2.05752e-18)
(1.97701e-05 -0.000311328 1.46045e-19)
(-0.00502619 -0.00482994 1.08575e-17)
(-0.00226016 0.000296277 -4.88467e-18)
(0.00680457 -0.00565986 -5.70075e-18)
(0.000903249 0.000376754 -2.73856e-19)
(-0.00304565 -0.00878605 6.47386e-20)
(-0.0177011 0.00249648 1.62962e-17)
(-0.000119241 -0.000320083 -5.95208e-19)
(-0.000705107 -0.00140318 5.80592e-19)
(0.217153 -0.0237339 -1.23936e-17)
(-0.0083826 -0.020311 2.15067e-18)
(0.00106374 -0.00118334 -4.90118e-20)
(0.00016675 0.000451707 -1.08109e-17)
(0.00393909 0.000248081 1.83498e-18)
(0.164686 -0.0363103 2.24849e-17)
(0.00295857 -0.016887 9.26863e-18)
(0.0184298 -0.0204155 -4.32938e-17)
(4.45048e-05 4.2395e-05 3.55198e-19)
(-0.000150483 -4.5626e-05 6.84058e-19)
(0.000679377 -0.000197002 1.67844e-18)
(-0.000672822 -0.00109642 -2.35444e-18)
(0.0105847 -0.0293461 4.21813e-18)
(0.000732301 5.78249e-05 2.02551e-18)
(0.000199929 0.00040591 -2.14326e-18)
(0.000316804 -0.000299586 2.02185e-18)
(0.000314202 0.000968172 -7.92184e-18)
(-0.0106215 -0.00951739 -1.05678e-18)
(0.00329109 0.00183865 -1.88547e-17)
(0.018264 -0.0035313 -5.14606e-18)
(0.160933 -0.0208408 -1.61342e-17)
(0.00198972 0.00207036 -2.98574e-18)
(0.139482 -0.0237525 8.30961e-19)
(0.000568964 -0.000208188 -1.35544e-18)
(-0.0048663 -0.00463111 3.09663e-18)
(7.47152e-05 0.000680832 5.57186e-19)
(-0.03119 0.00213604 -8.49553e-17)
(0.0177982 -0.0144236 -1.78718e-17)
(0.0267711 -0.0270526 5.05143e-18)
(-0.0137943 0.0142459 3.25222e-17)
(-0.000151199 -0.000113436 7.63256e-19)
(-0.0046011 -0.00214142 -4.6883e-18)
(0.00106375 -4.43198e-05 1.66416e-19)
(0.00369813 0.00121237 6.01732e-18)
(-0.00374662 -0.00927904 -3.62882e-18)
(1.47473e-05 0.000162949 1.38384e-18)
(0.00764192 -0.00427098 -7.51661e-18)
(-7.52015e-05 -2.71956e-05 2.7067e-19)
(-0.000182372 -1.23306e-05 -2.86567e-19)
(0.0014962 0.000385571 7.42428e-18)
(0.0190267 -0.00348341 1.42845e-17)
(-5.6003e-07 6.62997e-05 3.90703e-19)
(0.000308578 -0.00425333 1.05413e-19)
(0.00076898 0.000896782 4.94656e-18)
(0.00320149 0.00170735 7.97505e-18)
(-0.0119617 -0.00541063 1.61023e-16)
(0.000604665 -0.000187088 4.4737e-18)
(5.06137e-05 0.000595158 -3.65507e-19)
(0.000118347 -2.53895e-05 -2.09898e-18)
(-0.00105987 -0.00132536 -2.2782e-18)
(0.0107483 -0.00540951 9.59785e-18)
(-0.0018482 -0.0261758 1.33846e-17)
(0.00851034 0.00449503 2.49157e-18)
(-0.0208404 -0.0370523 1.19766e-17)
(-0.010051 -0.00993947 2.65453e-18)
(0.00113358 -0.00706932 1.31278e-18)
(0.000817676 0.000962087 4.28919e-18)
(-0.00017094 -2.98703e-05 -2.8737e-19)
(-2.04402e-05 -0.00244557 -2.42787e-18)
(4.46819e-06 4.64118e-05 5.21294e-19)
(0.00973126 -0.0322403 -6.54877e-17)
(0.000964527 0.000389974 2.24526e-19)
(0.00148986 -0.00146529 -7.73072e-19)
(-0.0304259 -0.0278785 3.73243e-18)
(0.000663193 -0.00024503 -8.19847e-19)
(0.0041005 0.000979309 4.78293e-18)
(0.00242336 0.00166881 -8.02595e-18)
(-0.0302422 -0.0301193 -1.14934e-17)
(-0.00182188 -0.000959769 -1.56412e-18)
(0.00342589 0.00301917 7.47982e-18)
(0.0127886 -0.00134331 4.77782e-18)
(0.00752802 -0.00391769 1.8082e-18)
(0.00236351 -0.00258901 5.30084e-19)
(0.000367524 5.04656e-05 -5.54547e-18)
(-0.00283192 -0.0367684 1.67887e-17)
(0.0121592 -0.0114614 -2.00812e-17)
(-0.00223592 -0.00203756 -1.95474e-18)
(0.010213 -0.00569887 -2.61544e-18)
(0.000298497 -0.000151921 -3.05659e-18)
(0.000256182 -0.00030296 2.69511e-18)
(0.000295837 -0.000164604 1.6859e-18)
(0.00413771 0.00110911 4.04036e-18)
(0.0341454 -0.022765 -3.76163e-17)
(-0.00672282 -0.000976895 -1.39771e-18)
(1.15512e-05 0.000129639 7.07898e-18)
(0.00201281 0.00199386 -8.89394e-18)
(1.87659e-09 1.2193e-05 -4.09182e-18)
(4.09926e-06 0.000129668 -8.25331e-18)
(0.00898693 0.0159452 -3.27259e-18)
(0.000384712 2.10834e-05 -2.0936e-18)
(-0.000482849 -0.000437848 -1.59634e-18)
(-0.0103186 0.00574391 -7.82082e-17)
(0.000112768 -0.000242001 -3.12374e-18)
(0.177095 -0.0214904 2.95698e-17)
(0.00734107 -0.0309457 -2.71959e-17)
(0.0035881 0.0070444 5.77792e-18)
(0.13889 -0.0436524 3.78524e-17)
(-0.029643 -0.00465567 5.12903e-17)
(0.00603852 -0.000667283 8.30171e-20)
(0.0130442 0.0148718 1.77235e-17)
(5.85914e-05 0.000641334 2.51399e-18)
(-0.0208942 -0.0114908 -4.90646e-18)
(-4.64038e-07 4.46589e-05 -3.49188e-18)
(0.00155691 0.00128953 5.94491e-18)
(-0.0255809 -0.0443764 -2.58356e-17)
(0.0002024 0.000248566 1.35681e-19)
(0.00382087 0.00132696 -2.54141e-18)
(0.0112611 0.0343074 -3.07539e-17)
(-0.000158496 -1.0168e-05 -2.54473e-19)
(0.000151293 -0.00019526 -9.33551e-20)
(0.00457593 0.0106961 7.82318e-18)
(0.0168882 0.0259231 5.0293e-18)
(0.00128537 -0.00146466 1.6577e-19)
(-0.000724334 -2.75704e-06 3.15549e-18)
(-0.00881308 0.0027545 3.79763e-17)
(0.018769 -0.013973 7.03077e-18)
(0.000280999 -0.000307979 -1.55159e-19)
(0.00596446 0.0130947 -5.29653e-18)
(-0.019956 -0.00377649 -3.6528e-17)
(0.000219049 -0.000277692 -1.60014e-18)
(6.72763e-06 9.31581e-05 -1.98123e-18)
(-0.000257859 -0.000376211 2.80564e-19)
(0.000568599 -0.000150459 -9.92053e-19)
(-0.0001815 -1.57704e-05 3.8251e-19)
(-0.000108486 -0.00030328 -3.35712e-19)
(0.0587135 -0.0261088 -4.05202e-17)
(0.0604889 -0.0275315 -2.90398e-18)
(0.00163081 0.00132402 4.18723e-18)
(0.163242 -0.0211582 2.50384e-17)
(-0.000150783 -2.56793e-05 3.67156e-19)
(0.00068739 2.16474e-05 4.05156e-18)
(0.0334661 -0.0154139 -2.18328e-17)
(-0.00177718 -0.00157326 -3.31522e-18)
(0.150192 -0.0183309 3.16003e-17)
(0.00314501 -0.0175717 9.2056e-18)
(0.00231296 0.00175606 1.7651e-17)
(-0.000586696 -0.000360319 -2.30146e-18)
(-0.000681179 -2.43661e-05 -3.61003e-18)
(0.0223203 0.00431783 9.50109e-18)
(-0.00407245 -0.000359941 6.30319e-18)
(0.00613318 -0.00033957 8.78157e-20)
(0.00224991 0.000242895 1.87558e-18)
(-0.0296681 -0.00122701 3.50749e-17)
(0.000615423 0.00234829 3.92327e-18)
(0.0249394 -0.0295521 -1.85422e-17)
(0.00267273 0.00208952 1.29094e-18)
(0.000233125 -0.00019277 -2.41747e-18)
(0.000681393 -0.000169393 4.06961e-19)
(0.0340179 -0.00172251 1.76642e-17)
(0.000243012 -0.000154956 -2.80315e-18)
(0.00134239 0.00475176 6.92901e-18)
(0.000812141 1.3242e-05 -3.13933e-18)
(-0.00173001 -0.000932145 1.23555e-18)
(-0.00607564 -0.000962048 4.64048e-17)
(-0.00147759 -0.00629067 -9.95272e-18)
(0.00025958 0.000181277 1.36422e-17)
(-9.06357e-05 -2.11693e-05 7.62179e-20)
(-0.0163874 0.00311282 2.29772e-18)
(0.000548774 -0.000142988 1.37809e-18)
(-0.00136584 -0.00663002 3.98617e-18)
(0.00284245 -0.00184717 2.16164e-18)
(2.77502e-05 -0.000332332 -2.02486e-19)
(0.162452 -0.0210974 -1.62107e-18)
(0.141991 -0.03981 1.73043e-18)
(0.000148455 -0.000241098 2.63601e-18)
(0.000729938 0.00165853 -1.67474e-18)
(-0.00690455 -0.00133551 -5.66054e-18)
(-0.000139913 -3.86801e-05 -3.40484e-19)
(0.0002905 0.000103957 4.81487e-18)
(6.39553e-05 0.000237177 6.69085e-18)
(-0.0174066 0.00335994 5.66403e-17)
(5.10357e-05 0.000315439 -5.49033e-18)
(-0.00016512 -1.57875e-05 3.49172e-19)
(0.00610672 0.00165901 2.21421e-19)
(0.0252987 -0.0349888 5.46607e-17)
(0.00958405 -0.0142052 1.56655e-18)
(3.92734e-06 5.18804e-05 -5.90756e-19)
(0.00588747 -0.00584096 -1.7443e-18)
(-0.0123799 -0.00297092 4.85157e-17)
(-0.0113883 -0.0100224 7.46223e-18)
(9.12451e-05 0.000241903 -7.17306e-19)
(0.000349625 5.00431e-05 -7.58717e-18)
(0.00334466 -0.0291628 1.111e-17)
(-0.0021827 -0.00195304 -7.33799e-18)
(0.000226035 -0.00017553 3.41974e-18)
(0.00383759 0.00533399 -2.99424e-17)
(-0.000736769 -0.00118835 1.68705e-18)
(-9.35704e-05 -0.000314366 3.61754e-19)
(0.00109046 0.00270092 -1.79491e-19)
(-0.000240576 -0.000154193 2.8573e-19)
(0.00940299 0.00341336 -4.00765e-19)
(0.000453172 4.99398e-05 -2.11663e-18)
(0.000249738 -0.000143805 2.06285e-18)
(-0.0363939 -0.000585345 -3.02876e-17)
(-1.95844e-05 -0.000128865 -2.72989e-20)
(-0.00364421 -0.000177966 1.00285e-17)
(0.000206206 0.000227113 2.22069e-18)
(0.00213817 0.000180465 -1.84825e-18)
(0.00727718 -0.00468279 1.07965e-17)
(0.000147445 -0.000228575 -1.21298e-19)
(-0.000983666 -0.0012504 1.03253e-18)
(0.0313364 -0.025016 6.58499e-17)
(0.00243572 -3.83073e-05 1.38899e-18)
(0.165739 0.00708209 2.29094e-17)
(-0.00158518 -0.00358484 -6.14289e-18)
(1.09133e-07 2.10977e-05 4.23473e-18)
(9.99857e-07 1.80059e-05 -1.28722e-18)
(0.0215001 -0.012184 -2.94933e-18)
(0.000765527 0.000368385 -3.55797e-18)
(0.000225355 0.000184752 -1.0869e-18)
(0.000128018 -6.11192e-06 -1.75316e-18)
(-0.00272832 -0.00197872 -2.62295e-18)
(0.00499438 0.00295958 7.50761e-18)
(0.202446 -0.0135362 -1.83799e-17)
(0.000549081 -0.00012385 1.53367e-18)
(0.00909751 0.00366217 7.16395e-19)
(0.014904 0.0267188 1.81377e-18)
(-0.0120254 -0.00961267 7.01765e-18)
(5.92418e-06 8.27818e-05 9.81626e-19)
(0.000173927 0.000164219 3.65089e-18)
(-0.00245739 -0.000741954 3.94069e-18)
(5.08452e-05 0.000289713 4.76072e-19)
(0.00054599 -0.0001975 3.94316e-18)
(0.0165522 0.0275551 3.80661e-17)
(-0.0162186 0.00435625 4.21612e-17)
(0.000195115 0.000289487 2.52511e-18)
(0.000673539 -0.00776062 -1.27229e-18)
(-0.00897875 -0.00563372 -1.22161e-17)
(-0.00865459 -0.00540892 -1.77117e-17)
(0.000386726 0.00130092 1.11818e-17)
(-8.65514e-05 -2.28554e-05 8.70779e-20)
(-0.0114302 -0.040247 -7.50591e-18)
(0.0223126 0.00338109 2.6978e-18)
(0.0145906 0.0268148 -2.34701e-20)
(-0.000540694 -0.000341201 2.73836e-18)
(-0.00249567 -0.000842394 -9.61227e-18)
(-0.00168113 -0.00151712 2.64594e-18)
(0.000124826 -0.000251397 1.04994e-18)
(0.0111031 -0.00704244 2.2021e-17)
(0.00696115 -0.00643207 -1.35618e-17)
(-0.00250259 -0.00205852 -1.88629e-18)
(0.000431462 -0.000959183 -5.03326e-19)
(-7.13866e-05 -2.86168e-05 2.77107e-19)
(0.000323791 0.00111718 -5.0976e-19)
(-0.0136345 -0.0386524 -1.46723e-17)
(-0.00175456 -0.00638394 -4.56058e-18)
(5.59369e-05 0.000692681 6.34895e-18)
(-0.0207595 0.00225262 3.03722e-17)
(0.0165452 0.0241566 6.19911e-19)
(0.0241768 0.0132067 -9.57991e-18)
(0.0141679 -0.00214164 -2.40468e-18)
(0.000279252 0.000139981 -9.8391e-19)
(-3.62996e-05 -0.00103036 -1.71403e-18)
(-0.0266732 -0.00901271 -1.33995e-17)
(0.0105709 -0.0110346 5.21369e-18)
(0.0218184 0.00392768 -1.14203e-17)
(-0.00120585 -0.0025049 -7.84165e-17)
(0.00305311 0.00307895 -4.7083e-18)
(0.00122744 0.00482349 -2.04683e-18)
(3.87101e-05 0.000217428 1.51068e-18)
(0.000103862 -0.00414272 1.02828e-18)
(0.000818611 0.00165817 5.39773e-18)
(4.55655e-05 0.000240033 -1.62868e-18)
(-0.0333394 -0.00130837 -4.09103e-17)
(-9.91252e-05 -2.00272e-05 -2.37398e-19)
(0.000553014 -0.000207836 2.45755e-18)
(-0.0115706 -0.0184732 -3.54523e-18)
(4.13516e-05 0.00027817 2.08451e-19)
(-0.0281666 -0.0503064 1.68014e-17)
(-0.00151562 -0.00337606 6.86506e-18)
(-0.00411692 -0.0309682 1.46079e-17)
(0.00664819 -0.00162018 1.70691e-18)
(2.54228e-05 0.000283795 -3.50073e-18)
(-0.00372953 -0.00275984 1.66241e-18)
(0.00131498 -0.00635984 1.62898e-17)
(-0.019586 -0.00191139 -1.02241e-18)
(0.0138067 -0.00261885 4.03153e-18)
(0.0157162 0.00755779 -3.12991e-19)
(-4.69698e-06 8.12719e-05 8.99466e-19)
(-0.0221417 -0.00916122 -6.03058e-18)
(0.00195301 -0.00236477 3.74858e-18)
(0.000805819 -0.000631907 -1.40258e-20)
(0.000118011 0.0001998 -1.50782e-18)
(0.000153961 -0.00248689 5.80735e-19)
(5.75004e-05 0.000491626 3.0239e-18)
(0.00322525 0.00316115 -1.30691e-17)
(0.00904971 -0.0144675 -2.40348e-17)
(0.00573292 0.00841289 -3.0956e-17)
(3.73067e-05 0.000701892 -9.02755e-18)
(0.00255562 -3.92663e-06 1.54037e-18)
(0.000124754 -8.50822e-06 2.10571e-18)
(0.000372539 0.000171763 -5.50557e-19)
(0.0122519 0.0145422 -4.82009e-19)
(0.000141623 -0.000149867 1.10887e-18)
(0.00295806 -0.00151589 -1.6612e-19)
(-0.00523183 -0.037217 5.30042e-18)
(-0.000223064 -0.000140983 -5.57003e-19)
(0.0111924 -0.0107207 -8.28883e-18)
(-0.0333419 -0.0141735 -8.54679e-18)
(0.00016317 0.000436355 7.02749e-18)
(-0.000405933 0.00654219 8.75372e-17)
(-0.00415457 -0.0142989 2.0183e-17)
(4.30149e-05 0.000321534 1.04607e-18)
(0.00898233 -0.0305788 -5.59055e-17)
(-0.00131855 -0.00171312 -7.97879e-19)
(4.10018e-06 5.72127e-05 3.76577e-20)
(0.000554038 0.000917616 1.03759e-17)
(0.000147643 0.0002321 6.89512e-18)
(-1.17349e-06 3.06846e-05 -1.37497e-18)
(0.000984344 -0.00438335 -8.00069e-19)
(0.000315624 0.00118633 3.23029e-19)
(0.0178944 0.0220001 5.87996e-19)
(0.00258766 0.000848134 6.98412e-18)
(0.000188188 0.00017884 -3.35392e-18)
(0.00113005 -0.00163123 -2.2813e-18)
(0.00739324 -0.00501942 -4.51046e-18)
(-0.00186358 -0.0108266 -1.28285e-18)
(9.32475e-05 0.000251724 4.90392e-18)
(-0.00504828 -0.00356063 -4.36176e-18)
(1.97412e-05 -0.0009824 1.25927e-19)
(-0.0082222 -0.00936125 -2.17771e-18)
(0.000266128 0.000724349 4.49348e-18)
(0.00683494 -0.00128442 -7.25571e-19)
(-0.00052313 -0.000471291 1.41694e-18)
(0.000692896 0.00295545 6.38641e-18)
(-0.000649064 -8.9309e-05 1.53394e-18)
(0.000295624 -0.000204683 2.51452e-18)
(0.168925 -0.017172 -6.66944e-19)
(-0.000205918 -0.00034063 8.03966e-19)
(0.0117588 0.0138264 1.33766e-17)
(8.58424e-05 0.000222284 1.48103e-18)
(-0.00324377 -0.002241 2.46572e-18)
(-3.40182e-05 -0.00011414 -1.35183e-20)
(-0.00451083 -0.0107975 3.61514e-19)
(0.000195244 0.000258516 2.57947e-18)
(-0.00372929 -0.0148536 -1.79038e-17)
(0.000954686 -0.00122589 -3.43009e-19)
(0.00906957 -0.0298507 2.03754e-17)
(7.3319e-06 0.000169131 5.25755e-18)
(0.212211 -0.0213807 -2.78971e-17)
(-0.000747409 0.000153603 9.65486e-19)
(0.00303488 0.0017531 -9.67762e-18)
(5.72465e-07 0.000154106 -1.23569e-18)
(0.000394385 0.00106411 4.50322e-19)
(0.000297681 -0.000119852 3.69625e-18)
(0.0011289 -0.00428347 -1.19176e-18)
(9.53753e-05 0.000464841 -4.45671e-18)
(0.00668343 0.0159979 6.12288e-18)
(-0.000508128 0.00984921 -1.68759e-17)
(-0.0354862 -0.050894 5.60695e-18)
(-0.00261288 -0.00452625 -1.14082e-18)
(0.00835513 0.00411211 3.60572e-18)
(0.000589237 -0.00027267 4.85617e-19)
(0.0099391 0.00226458 -8.43762e-19)
(-0.0100219 -0.0196438 5.79887e-18)
(0.000196283 3.55866e-06 1.87655e-18)
(0.00388036 0.00504453 6.29896e-18)
(0.0161509 0.00831015 2.34066e-19)
(0.0297782 0.00247037 1.08241e-17)
(-0.0344791 -0.0125333 7.16111e-18)
(0.0355343 -0.0181669 8.02795e-17)
(0.00142824 -0.00673109 -1.85156e-17)
(0.00175296 0.00011528 5.31811e-18)
(2.40961e-05 0.000197667 -1.18601e-19)
(-0.00500291 -0.0043263 7.06411e-19)
(0.000694763 -0.00454918 -5.46336e-18)
(-0.0177246 -0.00198289 1.22175e-17)
(-0.000146286 -0.000104068 -1.91947e-18)
(0.0020952 -0.00288405 3.73893e-18)
(0.00466242 -0.0252373 -1.93399e-17)
(3.74086e-06 1.76238e-05 3.02232e-18)
(0.000347134 0.000184586 7.93069e-18)
(-0.00536908 -0.00375566 3.55889e-18)
(0.102651 -0.0166881 2.94767e-17)
(0.00294214 0.00161216 5.80112e-18)
(0.00555449 -0.00534967 5.94442e-18)
(-0.0279623 -0.00755572 -4.58824e-18)
(1.45782e-05 0.000249899 9.81177e-19)
(0.179077 -0.0147714 -1.61182e-17)
(-0.00013812 -0.000108779 1.7625e-19)
(0.000289511 -0.000297822 3.82955e-18)
(0.00223955 -0.000291639 4.66544e-19)
(-0.000688515 -0.00124039 2.07821e-18)
(-0.0285638 0.00292918 8.57662e-17)
(-0.012454 -0.0216145 5.70433e-18)
(0.0709691 -0.011928 2.21516e-17)
(0.000112687 1.42855e-05 5.16582e-19)
(0.0387955 -0.00477989 1.6948e-18)
(-0.00623002 0.00982364 5.12874e-18)
(0.0099626 -0.0299347 2.73188e-17)
(-0.017019 -0.00242896 -1.38527e-17)
(-0.00920973 -0.0219152 4.45646e-19)
(0.00646539 -0.0272404 1.99661e-17)
(0.010879 0.000475215 -8.28374e-19)
(0.000719851 0.000908453 -9.70338e-19)
(0.000849011 4.87939e-05 1.34488e-18)
(0.00407955 0.00551393 1.73025e-17)
(-0.036003 0.00130881 2.48142e-17)
(0.000582775 -0.000313239 -6.41433e-20)
(0.00634772 0.001857 1.2212e-20)
(0.153878 0.0026454 1.71324e-17)
(0.00049415 3.36216e-05 1.26558e-18)
(0.000293029 -0.000258246 2.71405e-19)
(0.000869173 -0.000627158 3.48753e-19)
(0.0028628 0.000606318 -2.90226e-18)
(0.000299968 -0.000112758 -1.51631e-18)
(-0.00202868 -0.000905012 -2.26743e-18)
(0.0214135 -0.0110229 4.75845e-17)
(0.0257847 -0.0374415 3.03944e-17)
(-0.00194059 -0.00087524 -3.79914e-19)
(0.000283863 3.55303e-05 1.87091e-20)
(-0.0264311 0.00154721 6.47384e-18)
(0.0952199 0.0068905 -4.84119e-19)
(0.000625893 -0.000251706 4.50388e-19)
(8.8674e-05 0.000220692 -4.66405e-18)
(5.30468e-05 5.72515e-05 -1.95469e-18)
(0.000573424 -0.000134896 6.24494e-19)
(0.0351882 -0.0145552 -2.17311e-17)
(-0.0136773 -0.0215317 3.8136e-18)
(0.0235228 0.0108912 1.84432e-17)
(0.00246501 0.000747299 -6.83425e-18)
(0.00030247 -0.000268546 5.39561e-19)
(-0.0010022 -0.000980382 -3.64737e-18)
(0.000478178 0.00281378 -9.10521e-18)
(0.000172618 0.000472877 -3.4818e-18)
(-0.00604495 -0.0102366 -6.80836e-18)
(0.00192029 0.00186597 7.12924e-18)
(0.153469 -0.0190425 3.24315e-17)
(0.00029023 0.000123673 4.51542e-18)
(0.000155614 0.000138516 -2.86141e-18)
(0.0110605 -0.00273698 3.31139e-19)
(0.000535482 -0.000305205 1.10367e-18)
(-0.0137549 -0.00558129 7.8078e-18)
(0.0117294 0.00934984 -2.11527e-17)
(-0.00351025 -0.00262269 -7.53931e-18)
(0.0037293 0.0137449 -4.10705e-17)
(0.0552074 -0.00524563 -1.70343e-17)
(0.00177103 0.000194168 -4.15415e-18)
(0.000565713 -0.000197156 -4.02704e-19)
(0.179646 -0.0125202 8.54525e-18)
(-0.0364713 0.000829451 4.31099e-17)
(0.00914823 0.00120895 -5.34022e-19)
(-0.00129588 -0.00163604 3.38454e-18)
(0.00999654 -0.0308284 -2.47125e-18)
(0.0120309 0.0163991 -9.87907e-18)
(0.00167702 0.00450685 -3.91474e-17)
(0.000674735 0.000836981 5.00028e-18)
(0.000118889 -1.7591e-05 1.09062e-18)
(0.000145864 -0.000163287 1.4234e-18)
(0.0262947 0.00874505 1.2513e-17)
(-0.00245937 -0.00446562 1.52071e-18)
(0.0103087 0.0132844 -6.96518e-19)
(4.09151e-06 6.37861e-05 -1.65421e-18)
(-0.0111872 -0.00763059 -2.24776e-16)
(0.0329392 -0.0230365 1.7166e-17)
(0.00017392 0.00017387 1.02005e-18)
(0.000293918 0.000134203 1.08335e-18)
(0.00625966 0.0156463 1.87821e-17)
(8.61473e-05 0.000627863 -8.92362e-18)
(-3.60083e-05 -0.00010442 -8.98399e-19)
(0.00460791 -0.000258266 5.84786e-19)
(-6.86988e-05 -0.00170578 7.59117e-17)
(0.0444303 0.00536598 -9.04808e-18)
(0.171152 -0.0187043 2.73835e-17)
(-0.00339908 -0.000238674 -3.69851e-18)
(-0.00520531 -0.0196719 -1.39431e-17)
(0.0103851 0.000247792 -3.15665e-18)
(-0.000107701 -7.03006e-05 2.6103e-19)
(-6.53994e-05 -2.06638e-05 7.27551e-21)
(3.54773e-05 0.000551021 -2.559e-18)
(0.0264489 0.00740698 3.17271e-18)
(3.7685e-05 0.000181946 -4.38186e-19)
(0.000208983 0.000165155 1.24251e-18)
(-0.00588362 -0.0195696 -8.54129e-18)
(0.000476726 0.00122698 -5.94897e-18)
(0.011166 -0.0136978 -1.96034e-17)
(8.47887e-05 5.41639e-05 1.39171e-18)
(9.18456e-05 0.000654343 2.8941e-18)
(-8.10792e-05 -2.42538e-05 1.28916e-19)
(4.5873e-05 0.000696322 2.64367e-18)
(0.00244741 -0.0290518 4.61664e-17)
(4.19464e-05 0.000201716 -1.77165e-19)
(0.000926166 -4.63042e-05 -2.86844e-19)
(-0.00148182 -0.0139231 1.17611e-17)
(0.0123169 0.0062637 3.61677e-18)
(0.0166733 0.0191239 -1.05825e-18)
(4.18717e-05 0.00030101 -2.16676e-19)
(0.00979277 -0.0199734 -3.59628e-18)
(0.0759216 0.00308043 1.02746e-17)
(0.168969 0.00347827 -3.57416e-17)
(0.00235707 0.00190571 -1.55954e-17)
(-0.0236337 0.00306119 2.00592e-17)
(-0.00526212 0.000549674 -1.49665e-17)