/*--------------------------------*- C++ -*----------------------------------*\
| =========                 |                                                 |
| \\      /  F ield         | OpenFOAM: The Open Source CFD Toolbox           |
|  \\    /   O peration     | Version:  v2012                                 |
|   \\  /    A nd           | Website:  www.openfoam.com                      |
|    \\/     M anipulation  |                                                 |
\*---------------------------------------------------------------------------*/
FoamFile
{
    version     2.0;
    format      ascii;
    class       volScalarField;
    location    "600";
    object      omega;
}
// * * * * * * * * * * * * * * * * * * * * * * * * * * * * * * * * * * * * * //

dimensions      [0 0 -1 0 0 0 0];


internalField   nonuniform List<scalar> 
10042
(
0.0219197
0.0220485
0.0219449
0.0232067
11.8514
0.0220689
5.12799
1.47525
0.0217803
0.0220087
4.64193
0.0231441
0.0215345
0.0214974
0.0234662
0.0220312
0.0220231
0.0222585
0.021922
0.130058
0.0219045
0.197933
0.0215902
0.0216204
0.0220555
0.0278633
0.0221317
0.0226454
0.021792
0.0223389
0.0220202
5.52277
0.0220195
0.0222444
0.0255772
0.0216325
0.0272092
0.0313469
0.0216345
0.0290126
0.143175
0.0230922
4.90718
0.0219854
11.9188
0.050842
0.0222947
0.080565
0.026498
0.0444909
0.022167
0.0225339
0.0231531
0.0232227
0.0272425
0.0220618
0.0217934
0.0222658
0.0222362
0.0229589
0.0220443
0.0220042
0.0257256
0.0219171
0.0222349
0.0222525
0.0220381
0.0726343
4.47634
0.0218742
0.0231744
0.157323
0.0219898
0.0319781
0.0220168
0.0216176
11.829
0.0219318
0.0298128
5.06693
0.0259451
11.3021
0.0219777
0.0227425
0.0220441
0.0222136
0.0218981
0.139859
0.0219408
0.0219004
0.0221843
10.8324
0.0227153
0.0224301
0.022295
0.0218604
0.0219394
0.0218481
0.028523
0.0218014
0.0222908
0.0954399
3.05745
0.0222021
0.022537
0.0489768
0.0219212
0.0219333
0.0219127
0.0214658
0.0217153
0.0218277
0.0252892
4.09249
0.0222243
0.0218437
0.0219475
0.0219277
0.0218581
8.04577
0.0219353
0.965507
0.0220135
0.021985
0.0937672
0.0219801
0.758268
0.0270728
0.0472924
0.0218915
0.0307576
0.0220041
4.37271
0.161792
0.021801
0.054385
5.22309
0.0221922
0.0841285
0.162824
0.0226468
0.0219444
0.0224302
0.126156
0.0220476
0.0218279
0.0534958
0.021571
0.0218609
0.0249749
0.0218081
0.0222555
4.07777
6.45067
0.0221853
0.0215296
0.0225964
0.0219965
0.0550803
11.7477
5.31612
0.104418
0.0219887
0.0218092
0.0220426
0.0219883
0.0581352
28.5813
5.68647
7.72567
0.0227647
0.0218452
8.67938
0.16191
0.0375837
3.93113
4.91097
0.0220002
0.0841187
0.0305881
0.0227399
6.55805
0.0220899
0.0269934
0.0229806
9.67028
0.191949
0.0220593
4.40897
0.0236834
2.97501
0.0224266
3.92026
3.09516
0.0827719
1.00584
0.0250466
0.0219327
0.0215341
0.0232655
0.0365724
0.0220938
0.0218209
0.172103
0.0220789
0.0216841
4.47276
0.0221563
0.0222603
0.0222427
0.694043
0.0218772
0.054112
0.28927
0.0225639
0.197512
0.0219686
0.0219902
0.0587727
0.0217715
0.0253692
0.0227119
0.350314
0.0322067
0.0252316
0.0285849
0.291397
0.0218354
0.131168
0.0234466
0.0217798
0.132493
0.0218537
0.023411
0.0219805
0.0251332
0.0217096
0.0214842
0.0232148
0.0263575
0.0219953
0.0220192
0.0220006
0.0253564
0.0218446
0.0220288
0.0216228
0.0225992
0.0229653
0.0222689
0.0215352
0.0218666
0.024093
0.471387
0.104715
5.59542
0.0381761
0.0368634
0.0236383
0.0562652
4.76365
0.0230103
0.0219244
0.0215023
0.0232043
0.0217087
0.195186
0.0234066
0.0218937
0.0222504
0.0383839
0.0230238
0.271886
0.0374744
0.1646
0.0237448
0.0263358
0.0217124
0.0249116
0.0220688
0.0317418
0.0219107
0.0279047
4.72797
0.0216848
0.0218759
4.94192
0.0519259
0.0220253
0.0220431
0.0238306
3.81509
0.0483853
0.131056
0.0221819
0.0215301
0.0218358
0.0217916
0.28345
0.0218873
0.0220383
0.0218429
0.02197
0.0322906
0.0236659
0.070943
9.56968
0.0227736
6.98472
0.0218487
0.0247288
0.0221232
6.64273
0.0931542
1.04141
6.0154
0.021603
0.0234514
0.0218787
0.0238272
0.0286272
0.0222416
0.0318856
0.021709
0.0215008
0.0220053
0.0776501
0.0222839
0.0234108
0.0219709
0.0235136
3.9256
0.0218487
0.0221757
0.021988
0.021892
0.0403097
0.0830737
0.0367358
0.859192
0.0325707
0.0262394
0.0219852
0.0214804
0.0222719
0.022268
0.374971
0.0219096
0.0222535
0.0929551
0.0218229
0.024463
0.0228556
0.0976501
0.0219733
0.0250548
0.0447319
0.0316279
0.0232068
0.0219383
2.09526
0.0542325
0.0223763
0.0399284
0.021951
0.0218575
0.0219489
0.0244024
0.678398
0.0246389
0.0222493
0.0227241
0.0222923
0.0222709
0.128747
0.0219364
0.0216285
5.67113
0.0218411
5.26512
0.354812
0.0325673
3.36768
6.58071
0.0273035
0.136309
0.0221582
0.0453954
0.0222913
0.0222095
0.918252
0.0220642
0.0240541
12.6231
0.0220183
0.0219059
0.0499617
2.26385
0.0221765
0.0215658
5.41978
0.0942979
0.0218412
0.0731987
15.8652
0.0217703
0.0222641
0.0216437
0.0218739
0.0214816
0.0216776
4.78892
2.90165
0.0222447
9.74203
0.021499
0.0218879
0.485702
0.02212
4.82695
0.051739
0.0227571
0.0216043
0.0215557
0.129197
0.022881
0.0273252
0.0223316
4.27365
0.0224508
1.86531
0.0232744
0.021937
0.0218431
0.571204
0.0219524
0.0256746
0.0218695
0.0219438
9.11594
0.0250894
0.0219372
0.0217531
5.48985
0.0218827
0.0253487
0.0231869
0.0217132
9.20201
3.4648
0.0218857
0.0221666
0.0247394
0.0215347
0.022009
0.0219734
5.30588
0.0219962
0.021745
0.0281453
1.83548
0.0535017
0.0222685
0.0301474
17.2073
0.0338766
0.0219404
0.0219437
0.16072
0.0223037
0.0219428
0.0291155
0.0218257
0.0216786
0.0228616
0.0215681
0.0374295
0.0219182
0.0219565
5.96911
0.0217651
0.0226989
0.0220661
0.0222714
0.0316713
0.0218898
0.0218611
1.00956
0.0224481
5.62465
0.0229782
0.022282
0.0222767
0.114604
0.0219101
0.021942
0.0220125
0.0224673
0.0274713
5.49849
0.0218865
0.0372413
4.66908
0.0337686
0.0222612
0.0219624
0.0221693
0.0222029
0.0218622
2.18736
4.88549
0.022074
0.0270908
0.0280143
0.0275568
0.0220267
0.02166
0.366412
0.129278
3.36173
0.0215977
0.0222132
0.0220679
0.0218462
5.39097
0.0332634
0.0224753
0.0218487
0.0218059
0.0219959
0.454719
0.0250926
0.0221393
6.4895
1.37936
0.402107
0.0497425
0.0220162
0.0218061
0.0506881
0.0491628
3.41396
28.0811
0.0245869
0.0259917
0.0222104
0.0233664
0.0221572
0.0221997
4.87336
0.0216161
0.0218532
0.0488371
0.0222101
0.311461
0.022804
0.112137
0.0286378
0.0222447
0.0232555
0.0255821
0.0370758
0.049655
0.079959
0.0222824
0.0444303
0.0228263
0.0218582
0.0221184
0.0222953
0.0220348
0.0248363
0.0536033
0.0407704
0.0221428
0.0225057
0.0220084
0.0219247
0.12402
0.0219302
0.0231574
0.179808
0.0215695
0.0492457
0.0653616
0.0220405
9.41755
0.0373296
0.0222096
0.211083
0.022034
0.0222686
0.0219673
0.0219825
0.0222924
0.0237479
0.0220036
0.978999
0.022649
0.0219671
0.0221792
0.0320739
0.0309689
0.0219801
0.0242497
0.021806
0.0306496
0.0219415
0.0288326
0.0216344
0.0229583
0.0215515
0.0219354
9.04472
0.0216498
0.111823
0.0219691
0.0228324
0.0217462
0.0309859
0.0220745
0.038357
0.0220261
0.185156
0.0222621
5.07324
0.0215673
0.0233642
0.0222715
0.0219847
0.0219622
0.0237031
0.0220344
0.124058
33.1713
0.222146
0.0237862
0.0357907
0.0218131
0.0376113
0.0507668
0.0220118
0.0287538
0.084193
3.61919
0.0655553
3.43929
0.0261956
0.0220902
0.0222313
0.024663
0.0237491
0.0345967
0.0216071
0.0232472
0.095161
0.0222649
0.0219253
0.0245745
6.88073
0.0232172
0.0290334
0.0505424
0.0222515
4.85728
0.0216232
0.0218305
0.0223611
0.0218285
5.74791
0.0570742
5.92427
0.0220564
2.31139
14.1691
0.345452
0.0342322
0.0567858
0.129944
0.0392702
0.0219715
0.0218726
0.0298865
7.32046
0.0218056
0.0288003
6.22539
0.0219129
0.0219118
0.0218632
0.0227969
0.0219542
0.0220305
0.11328
2.8515
0.0219963
0.0220002
4.2811
3.34757
0.0218168
0.021944
0.0221549
0.0218779
0.522055
0.0569251
0.262815
0.0225373
0.0219063
0.0217889
0.022771
0.0220527
0.0305983
0.022565
9.44565
0.0220074
0.0220747
0.0393561
0.0218019
0.0320175
0.0645476
0.02307
29.901
4.91654
0.0220959
0.0218575
7.70659
5.52602
0.0346279
0.0220132
1.48188
0.181343
0.0255981
0.0219562
0.0219947
0.021924
0.308948
0.0237428
0.0909571
0.0222686
3.86944
0.627784
0.021965
0.0219914
0.116711
0.0221496
0.0217435
0.0247673
5.35193
3.45272
8.99771
0.0225389
0.0505202
0.0377382
0.0216464
0.0218699
0.0221935
0.297146
0.022206
0.0219622
0.0503769
0.0220155
0.0582323
0.0221113
0.0221062
0.0216945
0.022151
0.148361
0.022199
0.0218625
0.0369541
0.0542963
0.38583
0.0222098
0.0767036
2.97858
5.57379
0.0228584
5.38227
11.139
0.0219142
0.0215459
0.0225833
0.0232342
2.61414
0.0232449
0.0221223
0.0222061
3.46003
0.0364797
0.022485
0.022142
0.0219407
0.0402309
0.0217577
0.0218373
0.0298449
0.0227339
0.0222042
0.0217768
1.41894
0.0218745
0.0226593
0.0220291
0.0223087
0.128738
0.0222027
0.0229318
0.0220716
0.0246428
0.798995
0.0222919
0.3476
0.0253439
2.88394
0.0216692
0.0232595
0.0295817
0.0765141
0.0501256
0.0225566
4.07045
5.08614
0.022475
0.0218088
0.326577
0.0220791
0.0222511
0.0217301
0.0222418
0.0452742
0.0222928
0.0222931
0.063788
0.0277371
0.0230014
0.0309325
0.0227154
9.65295
0.023169
0.847881
0.0218695
0.0488522
0.0360237
5.20071
0.0239113
4.86335
0.0222695
0.0254308
0.0220419
0.0220441
0.0219143
0.107014
0.0398032
0.0432439
7.11328
0.0221191
10.4456
0.0257426
0.021769
0.031194
0.0285906
4.56002
0.0219862
0.0277469
0.050174
0.0232076
0.0413101
0.0222838
0.0215771
0.0222833
0.299398
0.0221332
0.0220038
0.021738
0.0217302
0.0219397
0.0219903
0.0222606
0.0218546
0.0221506
0.0224529
0.0249078
0.0304289
0.0219913
3.19611
0.0219499
1.81806
0.0366257
3.29022
0.0337707
0.0252231
5.50958
0.0312956
0.306515
6.47293
0.039808
0.0221991
0.0218494
0.0227931
0.131165
0.0218651
6.71466
0.0218616
16.2828
4.85553
0.0488502
0.0227941
7.89418
3.73647
0.023165
0.0219813
0.0222639
0.0242308
0.0215674
0.021673
0.054075
1.07308
0.022078
0.0218584
0.0223525
0.574655
0.0525741
0.0221555
0.0247892
0.0747913
0.0223905
0.0220271
5.83787
0.0222406
0.021884
11.1285
0.0237928
0.0219547
5.93295
3.34296
12.4659
0.0219219
0.0230483
0.321456
0.0217366
0.021857
0.0222844
0.0288162
0.0220435
0.0221114
0.0237092
0.0457558
0.175868
0.0217848
0.0219403
0.0220793
0.0218231
0.022479
0.0216011
0.113214
0.0280591
0.0219506
0.0219872
0.0217686
0.0219756
0.0223908
5.90716
0.0276225
0.0215599
0.021935
0.0405897
4.58838
0.0220426
0.0219824
0.0220291
0.0215617
2.74227
0.0431259
0.0217424
0.0220666
0.0280117
0.101581
0.0221693
0.0222828
0.0246344
0.022012
0.0254477
0.0223121
5.26577
0.0336048
0.0220693
0.0253189
8.70543
0.0278584
0.127013
0.0247216
0.345531
0.022271
0.0222659
0.0246002
0.0545121
0.0219054
0.0218811
0.0222436
0.0227598
0.106661
0.114103
4.06529
0.0226375
0.0219921
0.0277671
0.0219604
0.0219582
5.66943
0.023497
0.0219724
0.0219856
0.285502
0.617397
0.0219906
0.0220473
0.0743991
0.0218202
0.0221039
0.0219377
0.0725053
0.0229511
0.0254576
12.7793
0.0222193
0.022168
2.87346
0.0219091
0.160685
0.0218955
0.0232474
0.0405951
0.0219877
0.0220888
0.0223696
0.0233277
4.24192
0.0219285
0.0221349
0.211835
0.0254302
0.229618
6.35884
0.0450629
0.022212
0.363727
0.021897
5.80603
0.0221673
0.0219929
0.0217185
5.94067
0.0222121
0.0222972
0.0221599
0.0309863
2.57975
0.0275731
0.0458923
0.0219036
0.0221349
0.0347474
0.0278656
0.0218392
0.0248183
0.0218925
4.61327
4.96431
0.0221381
0.022901
0.0222227
4.01402
0.0221563
21.8378
0.0219795
0.0218436
0.0217358
0.0224002
0.0236098
0.0222715
0.0219928
0.0220046
1.21161
0.0852715
0.0218562
0.0242127
0.0239171
0.0398644
0.0218717
0.0257459
0.022804
0.0219671
0.0231835
0.0295322
0.0222802
0.0219154
0.0264184
0.0217583
0.14051
0.0229953
0.136041
0.0221006
0.0220377
0.021909
0.0595954
0.0383615
0.0217711
0.0242445
0.0595389
0.0223899
0.0217741
0.0249899
0.0222247
8.68716
0.212166
0.0246093
6.19056
0.023076
0.0315569
0.076651
0.0366843
0.0317258
5.28111
0.0290846
0.10467
0.022023
0.0228786
0.0218419
0.0219514
0.0257066
0.0217596
0.192607
0.0219696
0.0219938
0.0710762
0.021948
0.0461517
0.0258227
0.0250402
0.0218641
0.0417575
0.657542
0.0214262
0.0294627
8.32026
0.0418128
0.02179
0.0290911
0.0219937
0.0217771
2.71768
0.021836
0.0217865
0.0434799
0.021942
0.0262698
0.0217625
0.0220027
4.23432
0.0218521
0.0216686
0.0243406
0.0219203
0.0215525
0.0222518
3.01698
0.0221325
0.022084
0.0215881
0.0680117
0.0223893
0.0242266
0.0219329
0.0338681
0.0225945
0.0219079
0.0227842
0.0220997
0.0217828
0.112362
0.0397093
0.0278024
0.0234178
0.0426891
0.0611559
0.0273187
0.02798
0.0228561
6.43131
0.0219419
0.0219667
0.0219246
0.0222384
0.0347624
0.0218933
8.75805
4.24937
2.62376
0.0220835
0.0243628
0.0377575
0.0215437
0.0868356
0.0454728
0.730786
0.0542198
5.69916
0.0613475
0.134574
2.34033
0.0276627
0.0229735
0.0247438
0.0217754
3.94361
0.0225342
0.0289165
0.0218013
0.024768
0.0220444
3.97474
4.78969
0.0222036
5.04831
0.541915
0.16337
0.0410466
0.0585117
0.0216721
6.85784
0.0219569
6.90174
4.56204
0.0222042
0.0219037
0.0220015
0.0232666
0.0247047
0.0327789
0.149381
0.0221245
0.0220391
0.0247463
0.0223752
0.0220356
0.0256489
0.0218398
0.0220587
0.681671
0.055064
0.022041
6.45428
0.022985
0.0222722
0.0234208
0.220403
0.0219444
0.0217332
0.0900958
0.165674
0.0218153
0.0248218
0.52084
0.0477548
4.42871
0.021782
0.131538
4.80744
10.3642
0.0220819
0.0219189
0.0514918
0.0259306
0.0397137
0.0222887
8.01739
0.0435529
0.149567
0.0220308
0.0219764
5.11115
0.187852
0.022149
0.0222723
8.25656
0.0219304
0.021617
0.0218844
0.0233381
0.0221968
0.0293678
0.0221022
0.023676
0.0216246
0.030477
21.9194
0.0555556
0.0320356
4.81924
0.0654219
0.0216491
0.0217745
0.0218619
0.0222837
0.108908
0.0295235
0.0222184
0.0219685
0.0219755
0.0216081
0.0318778
0.0216178
0.0473804
0.0239631
0.022123
5.38414
4.22996
0.0221014
7.15039
0.0332869
0.0318137
0.0222642
0.0216299
11.9766
0.0635967
0.0219241
0.0217298
0.0219382
0.0257525
0.0222624
0.123421
0.0215261
0.0220591
0.0220028
2.54744
8.7658
0.0215397
0.0220077
0.142558
0.45588
0.024494
4.4558
8.21151
0.0218556
0.0221417
0.0221237
0.0229548
2.55286
0.0220377
0.0222844
0.166268
0.078248
0.0222121
0.0219468
0.0724115
0.0222837
0.0220741
0.094085
0.0668707
6.89223
0.021983
0.0621135
0.0403976
0.0475181
0.0230861
0.0270333
0.0219434
0.0219963
0.117504
0.0254768
0.0219989
0.0245136
4.50946
0.0215476
0.0218124
0.021541
0.0720531
0.021951
0.022086
0.0214463
0.0219506
0.562116
10.054
0.022206
3.38073
4.62432
5.12603
0.0219421
0.0219489
0.021834
0.0219006
0.022116
0.0221492
0.021628
0.0220821
0.0217837
0.024223
4.96199
0.0352486
0.559035
0.0286884
0.0220308
0.023084
0.0314307
0.0221652
0.0218532
0.0388065
0.0312162
0.436549
0.037233
0.0215206
7.69547
0.0226561
0.0215035
0.0218586
0.292272
0.0385973
0.0227675
0.0253078
0.0220727
0.0220931
0.0319205
0.0365407
0.0279226
6.67142
0.0220826
0.0220299
0.531264
0.0363263
0.0248834
0.10736
0.023086
0.0623686
0.22441
0.058461
7.70977
0.02183
0.0218229
0.0219419
0.022048
0.022095
0.0230307
0.0359966
0.0458281
20.0764
0.0220726
7.70133
3.4775
0.0246668
1.15519
0.0222006
0.0800541
9.60823
0.0219132
0.077724
0.0215933
1.91086
0.0221975
0.162457
0.0218664
0.38088
0.0354139
4.44696
0.0218527
0.137424
0.021683
0.0230977
0.222685
0.0218435
7.53676
5.28363
0.902942
5.09575
0.0775897
6.17033
0.0375266
0.0220178
0.0434243
0.0417482
4.72962
0.0220763
0.0220167
0.0226503
0.0454453
0.0219538
0.0222126
0.0221927
21.4444
2.73118
0.0219143
8.21792
0.0564861
0.0217316
0.0369667
0.0270687
2.6974
0.0289845
0.0217719
0.709295
0.0220721
0.0219395
0.0220892
0.107549
0.0537246
0.0218159
0.0263751
0.0221109
0.0222607
0.0217964
13.1531
0.0222857
0.0218167
3.55162
0.193775
0.0238881
0.0218163
2.32417
0.0280693
0.0231832
0.0219365
0.0506644
0.0231063
0.0266258
0.0245157
5.49803
0.0420372
0.0521652
0.0215115
0.0313167
0.041431
0.0271716
0.0223625
8.81357
0.0222527
0.133428
0.021895
0.0221933
0.0309384
0.153257
0.0233817
0.0247657
0.022113
0.0364995
0.0556136
0.0732555
0.0276174
0.0222924
0.0219649
0.0280253
0.0703861
0.0219429
0.0387204
0.022015
0.021946
4.04484
0.0218991
10.669
0.0219451
0.027042
0.059774
0.0219268
0.0273925
0.0846759
0.0864852
0.0219335
0.0671897
0.0226159
0.0222634
0.0219021
5.24375
3.63727
0.0219143
0.0219355
0.0216637
0.0218106
0.0770048
4.3072
0.02192
1.41492
0.0217347
0.0218014
0.0218974
1.15667
0.0227517
0.0237296
0.0219531
0.0219566
0.0219205
0.0222568
0.0222595
0.0301494
11.4819
0.0216516
0.021911
0.0416568
0.0610507
0.0217997
6.16198
0.0481539
0.0217892
0.0215498
0.0223633
0.0936167
0.0217427
0.0653978
0.0279531
0.0238465
0.0217869
0.0409914
0.0215301
0.13379
0.0274705
0.0223585
4.78663
0.57204
0.0214332
0.0218652
5.81378
0.0999023
0.0642015
0.0245567
0.0653201
0.0215797
6.91033
0.0552002
0.0218538
2.01801
3.21767
0.0231358
0.0423045
0.0474003
0.0217653
10.0207
0.0221667
0.0261941
0.0288475
0.0222308
0.022049
0.0511123
0.0218751
0.0218905
0.0218738
5.90917
0.0218387
0.0219384
0.0217548
0.021894
0.0218493
0.0222302
0.0460266
0.0456054
0.0236231
0.0222499
1.18411
0.0222372
0.0218373
0.021905
0.0216554
0.0220845
0.0219716
0.0276075
0.0747714
0.022224
0.0290064
0.0492936
0.0217484
0.0273464
3.70559
0.022646
0.0215347
0.0220791
0.0832621
0.0222026
0.022203
0.0241217
0.0246656
4.36976
14.3069
0.0218271
0.0218649
0.0219462
0.0682353
0.0232568
0.0217971
0.0282369
0.0715175
0.0221506
0.0267796
0.0221329
0.0935255
0.174542
0.0229284
0.122742
0.0254796
3.96981
0.022205
0.0218984
7.22415
0.115146
0.0241922
0.156757
0.0918443
31.8381
0.0452338
0.712076
0.0252827
0.0249556
5.10347
0.0264848
0.2088
0.029251
0.110101
4.06349
0.0222933
0.0221206
0.0219795
0.337349
0.0214542
7.37866
0.0335601
25.2551
0.0229411
0.117798
0.167024
0.0219472
0.0221777
0.0792944
0.0290888
0.0220884
0.0254211
0.0763484
0.0649813
0.0678384
0.0892374
14.1285
0.133153
0.0221149
0.0222014
5.55141
0.0757219
0.0226063
0.0371793
3.7773
0.0222707
0.0239053
0.0219452
0.0284837
0.0220387
0.0221048
0.0389445
0.0220966
0.0227579
4.58752
32.3192
0.0217314
0.0256478
0.0262041
0.172853
0.0420405
0.0223923
0.0219278
0.102533
16.6341
0.0219369
0.0252341
0.0220647
5.57074
0.0218309
0.0291638
0.290034
0.266221
0.0222721
0.136742
0.0796862
0.0504006
0.0255156
0.0220205
8.98276
0.0218163
0.0259346
0.0222206
0.027938
0.0216221
0.0216506
0.0221043
0.0587745
0.0218198
0.0219778
0.0217842
0.022127
0.0218725
0.022021
0.0764176
3.77463
2.81793
0.0251207
0.0220567
0.032094
0.0235961
9.79661
0.0222851
0.177841
0.0216236
0.0219969
0.0224876
0.0331412
4.07337
0.0219618
4.19352
0.0222776
0.0215272
0.0230248
7.85475
0.0233082
0.045062
9.58975
0.0222848
0.0221722
6.3847
0.0218937
6.28767
0.0220883
0.0300071
6.27461
0.0227667
0.0220957
0.0218592
12.1143
0.026069
0.0218755
0.807066
0.0219627
0.0227572
0.0713187
24.8503
0.188937
4.76216
2.49444
0.0727763
0.0234116
0.181271
0.191626
0.0218763
0.0218565
0.022801
0.0266786
0.0787611
0.0219923
0.0252868
0.0219069
0.0219635
2.72959
0.0222251
11.227
0.0215722
0.0312103
0.053719
0.0218283
0.0215211
4.48079
7.90049
0.0592636
0.0220796
0.0246988
0.047141
0.0217688
0.0322292
0.0846357
0.0358806
0.0233884
8.2123
26.6469
0.0215457
0.022133
0.0216516
0.0221944
0.0229462
0.0271758
20.2402
0.0221201
0.0219644
0.0405096
23.3796
0.0215811
0.662536
0.0216198
0.110514
0.0507784
7.59715
0.0580458
0.0530203
0.0560248
0.021532
0.021513
0.197846
0.025233
0.0220863
0.619559
0.0218296
0.0220835
0.0216242
0.044454
0.207583
0.479718
0.145545
0.0274149
0.0289028
0.0221294
14.4971
0.168364
0.0229968
0.021977
0.021757
0.0768177
10.2261
0.0356333
10.5279
0.0229178
0.0217708
4.78799
0.0219334
5.63757
9.38572
0.0217015
0.0289781
1.30569
0.0240875
0.0355809
0.0218199
5.4634
0.0259296
0.158904
5.18116
4.47124
0.0271771
0.0279343
0.022135
0.134984
14.5822
0.0231266
0.0238461
6.33985
0.0489511
0.0666709
0.0222635
4.71471
5.03739
0.0972259
0.0219494
0.0260649
0.0218975
1.21624
0.062953
0.0315823
8.29376
3.97416
0.0215349
0.126052
0.0220997
1.78837
0.0923537
0.0265231
0.025125
0.676083
0.0214085
0.0537675
5.78688
4.48895
0.02297
0.0220307
0.0217921
0.0865892
0.830324
0.144583
5.08321
0.0797778
0.0400146
0.0217856
4.19972
0.0668433
0.028132
0.18608
5.62711
6.03764
5.31624
11.5988
3.99182
6.53006
0.0220462
0.0288649
0.0315322
0.0220467
14.3772
0.581133
0.0220191
7.41446
0.0221286
0.021993
0.0217741
0.029448
0.0218712
3.94236
0.0616083
0.165034
0.0217791
0.460033
0.04757
0.35807
5.04104
0.0228517
0.0269341
0.0373411
0.0669136
0.0217682
0.0216493
0.021893
4.02473
0.0217813
0.0217667
0.451644
0.0233702
22.3704
0.0220452
9.20472
0.0219544
0.0220596
0.0219416
0.0219683
0.0266749
0.0242598
11.3384
0.0310275
0.0344961
6.46934
0.0218145
8.77183
0.0217955
6.64496
3.97285
7.53666
0.0571514
0.0219589
0.0222726
6.58676
0.022168
0.0259768
0.0221105
0.0286949
8.16583
0.0218853
0.0218517
0.0218801
0.0222651
6.55444
10.3061
0.0218205
0.0214468
4.00575
10.6924
0.0218659
4.30078
0.0222643
9.95754
6.0135
0.0580785
0.341039
1.06717
0.0853467
4.41057
0.0670703
0.0219741
0.0215492
0.021787
8.45772
10.1567
0.0229484
0.0282805
4.57164
0.021836
4.66356
0.0218912
0.0220469
0.0216324
1.80208
0.0622638
0.0217499
4.55955
0.0222526
6.16151
4.84582
0.0217352
0.0221103
0.0984631
0.0219573
0.0219398
0.0218319
3.47231
0.0317554
0.0220307
0.0221294
2.73988
0.0219404
0.0402447
0.0219876
7.88155
0.0221008
0.100615
0.0236465
5.55032
7.13201
0.0304399
0.0706561
0.0492944
0.0220739
0.072598
6.52316
0.0217534
0.0702044
0.0217663
0.439063
0.0219
7.15505
2.60307
0.105248
4.22091
4.88841
0.0411699
0.0226987
0.89701
0.0219315
14.4737
0.0252917
0.726157
0.0218603
0.032502
0.0455395
0.0303536
0.0220968
0.0219448
0.0221955
5.93442
0.0635844
4.17452
3.02219
0.0276085
0.021623
0.0537107
9.33089
0.0334487
0.0217856
0.0220791
2.20186
1.51551
6.71572
4.92225
0.0345771
0.0222556
0.0217784
0.0461858
0.0481961
0.541304
0.0220005
0.0220687
35.6948
0.0588773
0.0222854
0.0533784
0.578644
0.0880812
0.0216438
0.0479871
0.4573
0.798012
6.26785
0.192776
0.0218759
0.0222692
0.0220855
0.022285
0.0219577
0.0220899
0.03316
0.221246
0.032794
0.0271339
0.0285176
0.0221876
0.0260445
0.0227062
0.0344784
0.0326211
0.0218146
0.0278697
0.0218978
0.0218429
0.0224717
0.0221206
0.363101
0.0216039
0.0774599
0.493242
0.565419
11.6362
4.16516
0.0224244
0.0222368
0.0219052
6.84535
0.0220121
0.0214773
0.0221737
6.03092
0.0311358
0.0319767
0.334594
0.0233349
0.0220326
0.0291179
0.0218814
0.0477518
0.0222854
0.0339416
0.0217826
0.0219224
0.0228946
0.0234471
0.0250901
0.477723
0.035023
0.107922
0.0542721
0.104415
0.0423997
0.0612261
0.0219692
4.40611
0.0245937
0.0265759
0.021928
0.0228152
0.11864
0.0219844
0.0624269
6.69622
0.0294304
0.396628
0.0929746
0.0530087
0.0671818
0.0588414
0.0219364
0.0279103
0.0220895
0.0739127
0.049323
6.35418
0.0217592
0.046137
0.0264672
3.94012
1.06212
0.0424942
0.0220967
0.0492587
0.0215726
0.0584808
0.0227269
4.9016
0.021656
0.0259225
0.0220171
0.0356079
0.107329
0.0301806
4.418
0.0220395
0.030109
0.0593635
0.0220161
5.68694
9.04781
0.127518
0.0479455
0.045404
0.021857
0.0217774
7.01908
0.0939976
0.0216668
0.02261
0.0250798
0.0219064
0.357623
0.0217759
7.46975
0.123013
0.118713
0.0367792
0.022309
0.0216648
0.0218427
0.140426
0.0811488
0.026703
4.48994
0.0221732
0.0231107
0.0272532
8.49751
0.0215222
0.672297
0.0214085
5.46941
0.0219119
0.0219055
0.0383576
0.0219842
0.0222084
0.114036
0.0220691
0.0222772
0.0217834
0.0427727
0.0253051
2.27681
0.0219921
0.0220871
0.0218486
0.106535
0.0218062
0.0286372
0.0377442
6.07901
8.81144
11.2094
0.833715
0.333517
0.0399344
0.0619137
0.0273587
0.0222511
0.0221206
8.61406
0.0570743
0.0215419
0.0219672
0.0219548
0.0269425
0.0758398
0.0222518
0.0303326
0.0981636
0.137592
0.113172
0.0219688
0.0222376
3.25954
0.0237149
0.0216065
3.71205
7.21166
0.0216975
0.021441
0.0267302
0.0220544
0.0383392
0.0222485
4.05246
0.0222726
2.24747
0.0219681
5.36844
0.0291393
0.0219353
0.0527245
0.0215975
0.0220775
0.0222647
0.0311024
0.399884
0.0218515
0.133822
0.0222856
0.0221996
0.115526
0.0217459
0.0221277
0.0221017
0.0214731
0.0219494
0.0215199
0.0221656
2.58986
0.0218605
0.0217654
0.0561806
0.0216342
0.0219423
0.0221668
0.022176
9.33204
0.418781
0.0220211
0.0230196
0.021984
0.0222855
0.178771
0.0220547
0.0219835
7.95253
0.0219635
0.0417683
0.0495503
0.0377463
0.0219144
0.165043
0.0219031
0.257381
0.0693616
0.0219335
7.56997
2.31967
0.028335
0.120319
0.0218297
0.0218741
0.0450337
0.176779
0.0217698
0.0218582
0.0222135
0.0396313
0.0221024
0.0358002
0.0221099
0.0448642
0.509608
0.0388318
0.164619
0.0218378
0.0251539
0.0228646
0.0236538
0.02169
0.021898
0.022846
0.0235101
0.0671752
0.0223345
0.0796733
0.0219825
6.07856
0.021523
0.0217769
0.0653101
0.0222716
0.0927785
0.0729652
0.0367192
0.0220499
0.0228567
0.0220066
0.0366568
0.0220712
0.0556678
0.0254349
0.0221404
0.0216798
0.0273413
7.43615
0.0315062
0.0512804
4.34334
3.84775
0.0382816
0.0215743
5.86981
0.0219402
0.0235511
0.0223974
0.0852987
0.0219514
0.0350749
0.0278041
0.0234815
0.0221212
0.0251423
0.0222
0.0524616
0.0219383
0.0221851
0.0219511
0.0278529
2.02108
0.0219878
9.63537
0.087059
0.0214608
8.73731
0.212424
0.021879
0.0232948
0.0728494
0.0217905
0.0219092
4.10052
0.0220268
4.89091
0.0255724
0.0244635
0.0226705
0.0225531
0.0219077
0.0218749
0.0614683
0.0225481
0.0219607
0.0219054
0.0224906
5.6006
0.0361762
0.0220333
0.0291043
0.120361
0.0665555
0.0218866
0.0220262
0.0219586
0.0247608
0.0228035
0.0224231
0.0267126
5.69106
0.0218548
0.0230666
2.70081
0.0244422
0.0944738
0.122491
0.0218684
0.0222701
3.56825
0.0722292
0.397541
5.92279
5.29193
0.15071
4.8497
0.02182
0.0233657
0.0216829
0.0221862
5.0535
0.0219945
0.0489844
0.0570446
0.0298049
0.0249609
0.438278
0.0219105
0.0221156
0.02506
0.0219414
0.0220493
0.0217875
0.022219
0.0592433
0.0219444
0.0221371
0.0217825
0.0458223
0.0221322
8.02905
0.0219245
0.0233231
0.0218169
0.0222521
0.0227239
0.0219509
0.0371402
0.0229581
0.021937
0.0277524
0.0220337
0.0222646
0.0219783
0.0311789
0.0223835
0.0220338
0.0220468
0.0220598
0.0281292
0.022021
0.0220088
0.0886388
0.0220744
0.0219117
0.0239787
3.20135
0.0461145
0.0225493
0.0468331
10.6131
0.0984086
0.175938
0.0238798
0.0227751
0.0265583
2.65196
0.022088
0.207918
0.0228973
0.0218919
0.0278193
0.0220508
0.0616549
0.0663882
0.057192
0.0229276
0.021946
0.0278398
0.02715
0.0229363
0.024203
0.0238618
0.0442279
0.0751065
0.062206
0.0219238
0.0245484
2.04573
0.023126
0.0222853
7.04777
0.439972
0.021942
0.0224894
0.0235734
0.0656095
12.6912
0.0219621
0.319651
6.88844
0.0386735
0.0531272
0.0217435
0.0235792
0.0227734
0.0691895
0.0222318
0.0296788
0.0236276
0.216513
0.0221935
0.0220617
6.94921
0.0236671
0.0230106
0.0221661
0.0222125
0.0371458
4.11838
0.0275283
0.0220432
2.98803
0.0818363
0.0223683
0.0219483
0.021828
0.0240338
0.0217785
0.172485
0.0218633
0.0242156
0.0249205
0.0512725
0.026123
0.0218323
0.0270039
0.0241195
0.0218255
0.0810645
0.0221318
0.0233957
0.0216904
0.022272
23.0507
0.0276392
0.0223573
4.63723
0.0228421
0.0219514
1.11035
0.0578155
4.11178
0.0219149
0.0231738
0.0218805
0.0226447
0.0229798
4.80702
0.0226003
0.0744066
0.0218008
0.0223109
0.0241862
0.0219693
0.0368047
7.42054
0.418416
0.0219553
0.0217223
0.192813
0.0225727
0.0221553
0.0262075
0.0266961
0.348009
0.077469
0.0227896
5.7481
0.0751713
0.0223893
0.0217664
0.0222702
0.0284287
5.14224
0.0222839
0.05736
0.0228901
0.0220898
0.0215961
0.0226293
19.061
0.0269998
0.0217785
0.023698
0.0220949
0.0254126
0.0214516
0.0235671
0.0219638
0.023083
0.378267
0.0220297
0.0222127
0.0809875
0.0216189
0.0215866
6.99582
0.0218837
7.41256
5.57688
14.6398
0.0263919
0.0221268
0.0215118
0.0221389
0.0214865
0.0235771
0.168638
0.0449538
0.36761
0.0711904
0.0240206
0.0216218
0.0231327
0.022592
0.0222726
0.0221171
0.0215754
0.0728527
0.0225424
22.6265
0.0222548
0.0226924
0.0222635
0.022095
8.42628
0.138408
0.0287329
0.0215105
0.046264
0.0233133
0.0219749
0.0688419
0.0214565
0.0235665
10.2399
0.0219636
0.0219007
0.0219002
6.05402
5.14891
0.0216868
0.0226067
0.0251332
0.0220925
0.0217168
0.0219531
0.0220754
0.0219019
0.0218435
0.0218997
0.0249734
4.30274
0.0383729
0.0219424
0.0219393
0.0223767
0.0221764
0.0221774
0.0258318
0.0276379
18.408
0.0254812
0.0221692
0.0230849
0.021952
0.078045
0.0216126
0.0222234
0.0232509
0.0279746
0.0267106
9.91915
0.0221073
0.0304417
0.0226205
0.0225796
0.0221043
0.0216422
0.0231417
0.0936388
0.123705
0.021753
0.0341011
0.0641817
0.0222647
0.0371308
0.0373078
3.99892
0.0222495
0.0235104
0.0226234
0.0216046
0.0639902
0.0219632
0.0220002
0.0472772
0.181198
0.147281
0.0217779
0.0219082
6.77295
4.39771
0.0216168
0.782345
4.34687
0.0218261
0.0216114
0.0218084
0.0220624
0.0221399
0.0215663
0.027901
7.63639
0.0218244
0.0219631
0.0216986
0.0221574
0.0217953
0.0218409
0.0215563
4.07322
0.0220342
0.338699
0.0221495
0.0218013
0.0230425
0.0218334
0.0221755
0.028313
0.0221542
0.0223329
6.2548
0.021994
0.0252131
0.022015
0.0219852
0.0221402
0.021813
0.098154
0.0220574
0.0221059
0.0220244
0.15779
0.0326852
0.0221685
0.0221751
0.0219449
0.0230874
4.0754
0.0233333
0.0236215
0.0219556
0.0221225
0.0219501
0.0481717
0.0232684
0.0229737
0.33539
0.0424655
0.021809
0.0250604
0.0220327
0.02248
0.0218291
4.6107
0.0219638
0.022058
0.0218053
0.0298956
0.0235271
0.0233039
0.0219173
0.02179
0.0536013
9.70434
0.0218207
0.0562649
0.0234187
0.0233291
13.407
0.0217579
0.0219871
0.0219549
0.0238055
0.0234145
0.0217958
0.0241747
0.0219107
0.0813845
0.0215411
0.0217211
0.025457
0.0221418
0.0776835
0.0260779
17.8248
0.0557131
0.0222119
0.0936858
4.3713
0.0228866
0.0245181
0.0220679
0.0252239
0.0217813
0.0358753
0.0420567
0.0218903
0.0290064
0.0219466
4.56149
0.0222799
0.0241805
5.1773
0.0400981
0.0240873
0.14484
0.0221556
0.0219951
4.75401
0.0217639
13.3961
0.021851
0.0218712
0.0635097
2.21955
0.02192
0.0426703
7.7861
0.0218599
0.0221743
0.0219889
0.0275152
0.0254032
0.0228755
0.0220068
4.15343
0.0219673
0.0226739
0.0219455
0.0219061
0.0220362
0.0234399
0.0285975
10.9803
0.0222314
9.63061
0.0219466
0.0229264
0.0244408
0.0227507
0.0546825
0.0536619
0.0225071
0.021935
0.0218301
0.0770897
0.0217422
0.021834
0.398133
0.108464
0.0217543
0.0220045
0.0217885
0.0220881
0.024537
0.0784076
0.0219684
0.0221268
0.021748
0.0222498
0.0219673
0.0215125
0.0273452
4.43293
0.0217015
0.0224158
6.8413
0.0219144
0.0374219
0.0220689
0.0291287
0.0475147
19.1206
0.0222613
0.0220548
0.021792
0.0221944
0.0220421
0.0214597
0.0221436
0.0221268
0.0233071
0.0497557
0.0249411
0.023567
9.42952
0.0220289
0.137557
0.0217394
0.021958
0.0220164
5.49359
0.0218436
0.0496189
0.0230782
0.0226169
0.0219345
0.0217577
0.0219034
0.0224626
0.0218562
0.0218201
0.0461309