/*--------------------------------*- C++ -*----------------------------------*\
| =========                 |                                                 |
| \\      /  F ield         | OpenFOAM: The Open Source CFD Toolbox           |
|  \\    /   O peration     | Version:  v2012                                 |
|   \\  /    A nd           | Website:  www.openfoam.com                      |
|    \\/     M anipulation  |                                                 |
\*---------------------------------------------------------------------------*/
FoamFile
{
    version     2.0;
    format      ascii;
    class       surfaceScalarField;
    location    "600";
    object      phi;
}
// * * * * * * * * * * * * * * * * * * * * * * * * * * * * * * * * * * * * * //

dimensions      [0 3 -1 0 0 0 0];
oriented        oriented;


internalField   nonuniform List<scalar> 
14907
(
-0.447102
0.313918
0.133197
-0.581225
0.364368
0.21687
-0.220687
-0.0264471
0.247202
0.588577
-0.58855
-0.080541
0.0435578
0.0369835
0.424647
-0.529758
0.105197
0.0850602
-0.0359253
-0.0491359
0.14589
-0.145914
2.5617e-05
0.399855
-0.23057
-0.169304
-0.372793
-0.106194
0.479062
-0.00725477
-0.000652716
0.0079075
0.0649065
0.523629
0.353483
-0.61253
0.259142
0.644356
-0.340738
-0.303367
0.229932
-0.121162
-0.108756
0.542071
-0.360893
-0.181266
0.307244
0.234747
-0.290713
-0.300527
0.591291
-0.256683
-0.190412
-0.0110333
0.0702095
-0.0591754
-0.386103
-0.144157
0.529965
0.0986652
0.0518202
-0.150484
0.394398
-0.623745
0.229516
-0.545553
0.285782
0.260056
-0.339284
-0.24192
-0.25624
0.133495
0.122752
0.630438
-0.366264
-0.264247
0.264618
-0.149233
-0.11536
0.39454
-0.201216
-0.193339
-0.299117
0.197854
0.101298
-0.173561
0.409636
-0.236063
0.000207378
0.00739516
-0.00760252
0.212649
-0.585259
0.125763
0.125924
-0.251656
-0.103334
0.230133
-0.12677
-0.306071
-0.239179
-0.291498
0.151407
0.140098
0.0794775
0.126111
-0.205591
-0.579084
0.273026
-0.0947322
0.147172
-0.0524236
0.036784
-0.0478169
-0.228949
0.12917
0.0997974
0.0518674
0.0331919
-0.146117
0.285837
-0.139663
-0.0489656
-0.0315751
-0.149207
0.225847
-0.0766349
-0.278093
0.206111
0.0720145
-0.111231
-0.0684443
0.179673
-0.0542237
-0.149669
0.203912
-0.176218
0.267709
-0.0914905
-0.582465
0.114961
0.467478
-0.0774598
-0.197665
-0.031043
0.16243
-0.131361
0.375242
-0.264806
-0.110398
-0.113601
-0.177889
0.433894
-0.00925113
0.306877
0.0876463
-0.168521
-0.109528
0.274652
-0.148845
-0.177776
0.14677
0.295947
-0.494398
0.198447
0.30774
0.138039
-0.445837
-0.22056
0.117254
0.0894157
-0.310022
-0.269146
0.211505
0.0576508
-0.142
-0.112371
0.254414
-0.0853508
0.233126
-0.147759
0.0869307
-0.0783052
-0.00862427
0.00286977
-0.000631811
-0.00223785
-0.163078
0.348233
-0.185144
0.220994
0.154283
0.061469
0.138052
-0.284117
0.130955
-0.156183
0.0252317
0.182438
0.0828667
-0.265256
0.495174
-0.208944
-0.00507063
0.0486286
0.415201
-0.216926
-0.198274
0.165946
-0.0938769
-0.0720607
-0.0400884
0.0697063
-0.0296189
-0.179362
0.125149
-0.109723
0.0607577
-0.13154
-0.140751
0.272354
0.241739
-0.125106
-0.116618
-0.255312
0.16999
0.521363
0.0835136
-0.604849
0.0928908
-0.291799
0.198966
0.000823755
-0.102653
0.101831
-0.327039
0.111308
0.215782
0.353369
-0.260444
-0.151492
0.275587
-0.124067
-0.0608564
-0.0488661
0.185817
0.078823
-0.287666
-0.16313
-0.135952
0.137889
-0.284893
0.147022
0.487492
-0.194297
-0.293185
0.163112
0.156274
-0.319373
-0.193325
0.0986144
-0.398007
0.127354
0.270632
0.395426
0.201589
0.104107
-0.124927
0.0208249
-0.139757
0.0599557
0.079803
0.546874
-0.0253681
0.257807
-0.145732
-0.112058
-0.12642
0.13037
-0.00394696
-0.391453
0.31026
0.0812572
0.154526
0.332984
-0.589356
0.202982
-0.240296
-0.268772
0.572767
-0.302108
-0.270671
-0.464985
0.324678
0.140282
0.22082
-0.130122
-0.0906688
-9.97593e-05
0.00296958
-0.204733
-0.0644018
-0.240022
0.437556
-0.19755
0.26442
-0.352095
0.0876899
0.158518
0.296724
-0.158818
-0.00100383
-0.00150611
0.00251004
-0.130261
-0.19671
0.0803763
0.0655145
-0.144645
0.284615
-0.139936
0.193448
0.185146
-0.378598
0.137994
-0.0338823
-0.26828
0.13678
-0.112414
-0.0334982
-0.220359
0.179164
0.0412159
-0.0172618
-0.109154
-0.163732
0.372153
-0.208426
0.0489281
0.117026
-0.365971
0.214429
0.151562
0.000617235
-0.00703626
0.00641906
-0.164319
0.0864936
0.0778297
-0.222512
-0.175512
-0.0897485
-0.0653631
0.155119
-0.00534234
-0.00125278
0.00659517
0.127855
-0.279302
0.0537726
-0.165003
0.0940095
-0.0931843
0.14402
-0.252491
0.108503
0.0123825
0.252052
-0.13196
0.248336
-0.116344
0.117782
-0.104281
-0.0134968
-0.236835
0.353837
-0.116916
-0.278593
-0.186404
0.137292
-0.0195314
-0.117752
0.446246
-0.224758
-0.221484
0.312589
-0.149477
0.233643
-0.128055
-0.105569
-0.363557
0.161568
0.201997
-0.00841031
0.529106
-0.520629
0.0295133
-0.0251554
-0.0043585
-0.00031444
-0.00173682
0.00205133
0.581978
-0.303467
-0.278777
-0.195659
0.54933
0.245089
-0.117711
-0.127362
-0.0464802
0.354162
-0.135286
0.0455436
0.00480706
-0.00691405
0.00210704
0.00947644
-0.0033326
-0.00614383
-0.173322
0.0850936
0.0882342
-0.135354
-0.21761
0.352984
-0.191754
-0.171796
-0.142142
-0.133141
0.275344
-0.189617
-0.176332
-0.110149
0.00143882
0.108712
0.028108
-0.0233009
0.0083359
-0.00726663
6.4095e-05
-0.000378442
0.128293
0.160211
-0.288463
-0.462903
0.283684
0.179413
0.0134488
-0.0743049
0.0689916
-0.065374
-0.00361678
0.0274612
0.0900441
-0.117501
0.0577723
-0.046361
-0.0114162
-0.00440557
0.00521137
-0.000805788
0.280861
-0.150895
-0.129919
0.0627195
0.0242122
0.107264
0.0807724
-0.188019
0.112352
0.132753
0.00543553
-0.00522813
-0.0989524
-0.15346
0.252459
-0.0902942
-0.130039
-0.122537
-0.106394
-0.00134158
0.000337859
-0.0984438
0.126694
-0.0282468
0.259616
-0.10615
-0.153437
-0.000283219
0.00599251
-0.00570927
-0.109254
-0.129629
0.238895
0.0590673
0.0157341
-0.0748013
-0.262546
0.130625
0.0183091
0.0112038
-0.0826394
0.0960889
0.156436
-0.0227476
-0.133686
0.000627092
0.0767553
-0.0773817
-0.129913
-0.0982013
0.228123
-0.217055
0.390486
-0.173369
0.365552
-0.561028
-0.288381
0.210288
0.0781169
0.015029
0.103838
-0.118861
0.253703
0.00593235
-0.100925
0.326058
-0.225109
0.00777378
0.0612185
0.134194
-0.404196
0.449985
-0.0458306
0.00460515
0.0544622
0.409291
0.144847
-0.554434
-0.298742
-0.291524
0.590374
-0.530614
-0.00603301
0.537122
-0.0949144
0.0955424
-0.616578
0.604299
0.0121396
-0.109449
-0.000697054
0.0867317
-0.0954038
0.00867244
-0.255469
0.137777
0.0275776
-0.12602
-0.118322
0.300769
-0.182391
-0.311276
-0.151686
0.463127
-0.174319
0.141205
0.0331211
0.476611
-0.203876
-0.272695
0.140087
0.0807613
0.237088
-0.11364
-0.123431
0.0168983
-0.102589
0.0856912
-0.111522
0.190994
-0.193542
0.153012
0.0405486
-0.219651
0.110561
0.109096
0.163374
-0.0853259
-0.0780471
0.456308
-0.253915
-0.202425
0.131576
-0.0121777
-0.119394
0.368606
-0.147582
0.208085
-0.0590012
-0.006362
0.0653639
-0.263341
-0.199381
0.207907
0.160733
0.189033
-0.215407
0.174327
0.0593332
-0.179253
-0.205951
0.385136
-0.731775
0.480985
0.250898
-0.093235
0.239481
-0.146229
0.288998
-0.159705
-0.129297
0.227847
-0.363199
0.136256
0.141015
-0.283106
-0.228003
0.097914
-0.389219
0.149126
-0.415908
0.242395
0.556134
-0.00170886
-0.554212
0.105845
0.151978
0.0844569
-0.270644
0.186241
-0.69292
0.402244
-0.327002
-0.214742
0.541641
-0.342908
0.179839
-0.132733
-0.0590832
0.191848
-0.0674508
0.0843497
-0.0918817
-0.0814356
-0.00684897
0.00656576
0.11366
-0.0861962
0.0257826
0.0918048
-0.117582
0.076801
0.153144
-0.0172592
0.187934
-0.170672
-0.101361
0.0758009
0.0255576
-0.273644
0.180436
-0.228864
-0.162516
-0.397917
-0.333751
-0.159599
-0.128755
-0.37813
0.198836
-0.0800369
0.178701
0.2564
-0.0535951
-0.202774
0.189669
-0.521403
-0.00871686
-0.0914041
0.106438
-0.180317
0.0918468
-0.00511466
0.115831
-0.0185135
-0.0888229
0.107338
-0.216971
0.107723
0.172319
0.116676
0.197854
0.197018
-0.394903
-0.000977601
0.13455
-0.133542
0.0509358
-0.287705
0.174606
-0.0673238
0.260178
0.00167885
-0.261807
-0.104826
0.00510948
-0.00449219
0.00192302
-0.406095
-0.376645
0.24445
0.132258
-0.0586894
-0.0426735
-0.166459
0.194693
-0.300778
0.182235
0.269283
-0.451444
0.0992476
-0.231947
0.0449137
0.0128533
0.0421526
-0.156781
0.114642
0.120517
-0.00273123
0.00863167
-0.591082
-0.1759
0.541603
0.177693
0.103473
-0.334056
0.0881108
0.0752654
-0.363304
0.245363
0.117958
-0.119612
0.415468
-0.323418
0.401222
-0.0777518
-0.31565
0.19738
-0.235191
0.134276
0.100911
-0.12595
0.186526
-0.0605623
0.0218492
-0.110067
0.08822
-0.0193983
-0.0276739
0.0470727
-0.0621235
-0.115614
0.0246663
0.0582776
-0.082943
0.22233
-0.406175
0.183722
0.162688
-0.163652
0.256667
0.373708
0.0119686
-0.0122817
-0.107195
0.131799
-0.0245995
0.0119774
-0.093623
0.0816464
-0.00331644
-0.177677
-0.290705
0.468659
0.224184
0.0322455
0.1233
0.224943
0.0972571
0.102947
-0.200179
-0.0861516
0.644586
-0.345267
-0.299332
-0.208147
0.1376
0.0705581
0.393336
0.179381
-0.586261
0.601242
-0.0147936
0.134984
-0.0802406
0.102092
0.58785
-0.345536
-0.242415
0.151944
-0.281539
0.304536
-0.164817
-0.139681
-0.208598
0.082669
0.00142338
-0.00355074
0.00212739
-0.166959
0.259951
0.321778
-0.341312
-0.231086
0.572503
-0.217455
0.306954
0.0940353
0.0627449
-0.156768
0.1344
0.02204
-0.023092
0.114901
-0.00344406
0.102175
-0.0987297
-0.176202
-0.0589942
-0.230284
0.140017
0.114956
0.246656
-0.146156
0.2758
-0.129629
-0.595998
0.295543
0.1239
-0.0258991
-0.0979993
0.00187878
0.25834
0.132684
-0.0912715
-0.095711
0.18699
0.223779
-0.0334757
-0.120506
0.154005
0.119215
0.0977978
-0.189068
-0.12908
0.252992
-0.12386
-0.12802
-0.0654986
0.117591
-0.134848
-0.123505
-0.0846274
-0.0709545
0.228025
-0.15703
-0.387289
0.223376
0.163957
0.0768407
-0.0802837
0.126628
0.0106721
0.0117696
0.189922
-0.201661
0.164451
-0.0704035
0.143969
-0.366432
0.22265
0.183614
-0.446858
0.39711
-0.252986
-0.154626
0.121169
0.0141861
0.0873711
-0.101556
-0.15482
0.245127
-0.090284
-0.601991
0.34137
0.260688
-0.185349
0.123252
0.300635
0.29638
0.33424
0.253516
0.00483624
0.165871
-0.38288
0.186522
-0.413932
0.227334
0.00166725
-0.00700953
-0.201567
-0.259908
0.461544
-0.132814
0.0526204
0.0801945
0.0938227
0.0300782
0.112065
0.0188929
-0.040044
0.0396135
0.000425511
-0.00654743
-0.105661
0.185432
-0.0797539
-0.0774518
0.0184513
0.33205
-0.572596
0.240319
0.0240429
-0.200263
0.323697
0.273318
0.29034
-0.167703
-0.122599
0.211307
-0.0668272
-0.144483
-0.63808
0.227115
0.410993
0.205514
-0.108238
-0.0250452
0.0803028
-0.152666
0.547122
0.362413
-0.506967
0.0735663
-0.0872511
0.013687
-0.0370568
0.0527909
0.149344
-0.261697
-0.212646
0.415348
-0.202648
0.00146724
0.00686867
0.0308025
-0.144964
0.428899
-0.0117383
-0.066566
0.00167951
0.348208
0.128408
-0.318546
-0.283368
-0.449093
0.240958
0.208116
-0.178138
0.365909
-0.187835
-0.562619
-0.0235969
-0.362051
0.364002
0.101508
-0.0593794
0.121856
-0.018595
0.0697999
-0.0512044
-0.582149
0.241402
-0.189448
-0.173839
-0.0755541
-0.0299059
0.105461
-0.24546
0.296235
-0.0506819
-0.0728571
-0.0998427
0.142008
0.0964757
-0.22157
-0.218786
-0.166542
0.385423
-0.423391
0.210838
0.0914329
-0.0988359
0.00740386
-0.142307
0.0787932
-0.184437
-0.118924
0.25441
-0.135458
0.000120867
-0.00737563
-0.130439
-0.125011
-0.0706612
0.102254
-0.223397
-0.265272
-0.207142
0.47252
0.183627
0.117966
-0.0387599
-0.0792058
-0.192898
0.463934
-0.270959
0.135789
0.055002
-0.190789
0.186775
-0.312503
0.125729
0.162018
-0.291065
-0.00639248
-0.000521532
-0.0969751
0.227102
-0.130129
-0.0995217
-0.184733
0.284223
0.00808781
0.54358
-0.551601
-0.0119281
0.00399631
0.0079318
-0.176715
0.374376
-0.197721
-0.192991
0.0960166
0.256893
-0.150796
-0.106081
-0.18032
-0.0845218
0.0659271
0.00486498
-0.511081
0.418207
0.0927837
-0.027306
-0.177416
0.0825936
-0.237396
-0.503043
-0.499434
0.201638
0.297671
0.179323
-0.387428
-0.00387142
0.00978029
-0.00590885
0.190545
-0.395649
-0.468108
-0.148588
0.0767891
-0.157705
0.0809219
-0.0711702
0.150975
0.157956
-0.0106082
-0.14734
-0.593177
0.29453
-0.102344
0.183134
-0.00119749
0.24027
-0.106
-0.358616
0.183739
0.17487
-0.194805
-0.192441
-0.0937234
-0.0705913
0.211775
-0.199965
0.205459
-0.470708
-0.0759381
0.166758
-0.0908091
-0.258469
0.361953
0.0659366
-0.427908
0.171186
0.0659153
-0.226763
0.432821
-0.206031
-0.122216
0.0340192
0.088202
0.229355
0.0809655
0.258319
-0.451137
0.00828588
-0.00893859
0.537591
-0.254358
-0.283104
-0.136529
0.296797
-0.586239
0.197161
0.389182
-0.274978
0.156096
0.195354
-0.0577405
-0.361567
-0.149637
0.145814
-0.363216
-0.0794359
0.0810009
0.183515
-0.264485
0.0543914
-0.0543252
-6.61268e-05
-0.113256
-0.160363
-0.297467
-0.398212
0.599762
-0.129611
0.0287095
0.100904
0.160406
-0.309082
0.148777
-0.311173
0.211644
0.233014
-0.586794
0.353606
-0.309987
0.149658
0.160345
-0.00612867
0.12133
-0.115192
0.0438431
-0.0839321
0.195432
-0.130991
0.00878232
0.0264602
0.12275
0.117515
-0.330051
-0.262596
0.592748
-0.196844
-0.170256
0.367086
-0.168404
0.325801
-0.157314
-0.445596
0.529148
0.382751
-0.19661
-0.186241
-0.0022306
0.00153121
-0.00792933
0.00667657
-0.375337
-0.262711
0.0537392
0.125444
0.00986006
-0.16273
0.152872
-0.161395
0.171249
0.253832
-0.0713672
-0.312102
-0.281412
0.593564
-0.0843759
-0.059672
0.14405
-0.00757287
0.0990069
-0.0483409
0.221291
-0.440065
-0.32771
0.159381
-0.338219
0.0928729
0.243967
-0.445404
0.00102784
-0.00369009
0.00266234
-0.088567
-0.0848921
0.173474
-0.120052
-0.15277
-0.187071
0.339838
-0.29884
-0.264831
0.56367
0.253922
0.0707193
-0.324583
-0.155545
0.0971888
0.131086
-0.497258
-0.0115061
0.00763465
0.026928
-0.0639847
-0.0203449
-0.0598263
0.0801715
0.0807454
0.0496289
-0.192315
-0.358027
0.135508
0.243639
-0.134114
-0.109528
-0.11138
-0.0601374
0.171529
0.00317954
-0.00322691
4.74894e-05
0.00526248
0.0228456
0.205418
-0.120707
-0.084691
0.17138
0.438369
0.137944
-0.576251
-0.099033
0.250999
-0.193106
0.165825
0.536667
-0.0981854
0.00104896
0.00842749
0.442059
0.114254
-0.197537
-0.208758
-0.215156
0.111558
0.103603
0.126373
-0.572041
0.197492
-0.0664449
-0.13105
-0.26661
0.153381
0.0850651
0.0484842
-0.133543
-0.0900884
-0.0865548
0.176659
-0.507356
0.50132
-0.0963761
-0.152026
0.248422
0.102754
0.127406
-0.150564
-0.0382686
0.127898
-0.0471476
0.00175452
-0.0864807
0.0847275
-0.28242
0.606445
0.141697
0.126013
-0.261557
0.143228
0.118375
-0.0709596
-0.213907
-0.28024
-0.285981
0.566367
-0.268535
0.122409
0.282051
0.154493
-0.436563
0.0774185
0.0392999
0.118663
0.0501395
0.0653249
-0.11546
-0.579003
0.351373
0.227743
-0.133008
0.214035
0.535389
-0.30245
-0.13956
-0.174275
0.31387
-0.0590954
-0.0183555
0.301015
0.232426
-0.533569
0.252933
-0.123981
-0.128934
0.133656
-0.0818357
0.195019
-0.421772
-0.130902
0.248326
-0.18727
-0.0610601
-0.233639
-0.000325754
0.00106306
-0.000737228
-0.0746784
0.192933
-0.118245
-0.563472
0.321472
0.241848
-0.0310367
-0.0769225
0.107961
0.0141659
-0.208874
0.194769
-0.596855
0.305449
0.160063
-0.30998
0.149938
-0.189183
0.376088
-0.186942
0.33606
0.260955
-0.240709
0.111957
0.128766
0.0298638
0.224096
-0.0340737
0.0610018
-0.0969334
0.240981
0.186982
-0.383871
0.144895
-0.295985
0.151107
0.157616
0.0377514
-0.106648
-0.0867407
0.193401
-0.188408
0.381827
0.105345
-0.237876
0.132535
-0.172922
-0.185113
-0.089223
0.215326
0.321832
-0.155554
-0.16626
-0.178356
0.0882868
0.402556
-0.216121
0.239997
-0.107037
0.186928
0.242636
-0.429468
-0.185383
-0.216491
0.402009
-0.0103679
0.0440421
-0.0336738
-0.25877
-0.190347
-0.0750012
0.015907
0.387272
-0.207951
0.140715
0.134585
-0.275297
0.547334
-0.313005
-0.234309
0.228542
-0.124812
-0.103726
-0.298931
-0.287201
-0.180502
0.105833
-0.133057
0.327799
0.070892
-0.101927
-0.218817
0.553066
0.0915555
-0.0396896
0.284686
0.161561
-0.133284
-0.0752934
0.470401
0.171713
-0.642345
0.194485
0.10634
-0.0443807
-0.321872
-0.161373
-0.07932
-0.415629
0.228888
0.186734
-0.0593501
0.0187771
0.0294994
-0.0482764
0.10809
0.0893988
-0.226717
0.192573
0.0341492
0.0976836
-0.120769
-0.148433
0.344365
-0.195879
-0.0547794
-0.0756047
0.130388
0.11063
0.115221
0.50921
-0.296521
-0.155158
0.0792296
-0.0823118
0.0840675
-0.00195861
0.00513829
0.0774846
0.0991998
-0.0190493
-0.0801499
-0.127505
-0.141198
-0.126719
0.267942
0.351842
0.292725
0.245998
-0.0832906
-0.196387
-0.0205759
-0.191167
-0.00879666
0.19993
0.317876
-0.113467
-0.116563
0.230075
0.0199059
-0.111784
0.511862
-0.520214
-0.293523
0.153973
-0.14102
0.246371
-0.00441827
0.0217806
-0.0173619
-0.221971
0.0887123
0.0993492
-0.201676
0.133689
0.109946
-0.0315397
-0.475713
0.0337798
0.512461
-0.272758
-0.23954
-0.181357
-0.232537
0.41403
0.214624
-0.016753
0.0587418
-0.317193
0.00191438
0.0100542
0.184336
-0.0866317
-0.097704
0.00856404
-0.012982
-0.630565
0.256928
0.373545
0.0505516
-0.089074
0.0385229
-0.000667156
-0.00269854
0.00336576
0.133741
-0.0399165
-0.0079839
-0.183215
0.161015
0.0269216
-0.0051377
0.136719
-0.0549172
0.132172
-0.077251
-0.300321
0.135558
0.297812
-0.111059
0.072891
0.0122751
-0.0114339
-0.192549
-0.158659
0.351259
-0.0765127
0.153309
0.0314952
0.0104775
-0.0419725
-0.349663
0.275069
0.0746609
0.248571
0.185963
-0.434422
-0.259356
0.188422
-0.248609
0.132162
0.116474
-0.32945
0.285215
-0.0317974
0.221082
-0.189225
-0.0846409
-0.0449673
-0.0371747
0.113931
0.221247
-0.547054
0.235973
-0.00830528
0.00126904
0.0152285
-0.0149104
-0.000318104
0.177662
-0.184631
-0.173995
-0.397147
0.512097
0.196183
-0.108292
0.0327389
0.0946292
0.0897075
-0.0508607
-0.0445427
-0.242646
-0.185445
0.434174
0.182201
-0.360184
0.177969
-0.27068
-0.223717
0.0971907
-0.214507
0.117317
-0.223191
0.0378685
-0.0365578
0.0171599
0.26723
-0.506331
0.23906
-0.594105
0.262472
0.33185
-0.16598
0.152094
0.013892
0.159729
-0.352301
0.14148
-0.213951
0.0724635
-0.0624581
0.086201
-0.0237417
0.171473
-0.267828
-0.0147756
-0.0293263
0.044102
0.0136257
-0.00506149
-0.272363
0.131198
0.185117
0.0765822
0.0293659
-0.105947
-0.00777028
0.0125171
-0.00474685
0.0554022
-0.147814
0.0924149
0.203264
-0.149673
0.0372592
-0.0065576
0.0591167
-0.0525584
0.0933598
0.0738476
-0.167201
-0.162449
-0.137815
-0.557399
0.216204
-0.288598
0.0900943
0.00175296
-0.213149
-0.0135646
0.0681782
0.00321747
-0.0713943
-0.591587
0.261605
-0.00100759
0.00243099
-0.0177778
0.10515
0.193589
-0.363877
0.246423
0.164919
-0.411314
-0.00188251
0.0352769
0.373817
0.187876
0.359477
0.205743
-0.1099
-0.0958212
-0.00141701
0.00142411
-7.04744e-06
0.00510294
-0.00772145
0.00261864
0.0536873
-0.0640548
0.164538
-0.301013
0.195329
-0.133009
-0.0623115
-0.148015
0.0931008
-0.439295
-0.139784
0.170012
-0.468948
-0.584386
0.280796
0.0909847
-0.000889945
0.382766
0.242413
-0.62514
0.370757
-0.183795
0.13526
0.0600767
-0.172418
-0.12325
-0.0510639
0.286514
0.256625
-0.543252
0.264636
-0.491899
0.227041
0.40139
-0.326803
-0.252076
0.147433
-0.0609338
-0.157592
0.540283
-0.181402
-0.161498
0.0663377
0.112466
-0.178793
-0.105204
-0.00424355
0.00393533
-0.0518217
0.0478866
0.408519
0.196991
-0.605724
-0.154754
0.104003
0.0507538
0.00525079
0.0099775
0.0339411
0.0204502
-0.130181
0.226674
0.00740167
-0.0125906
0.00518892
-0.000956917
-0.120232
-0.194129
-0.41834
-0.125382
-0.127078
0.220033
-0.105738
-0.114287
0.00119344
0.00313082
-0.00432393
0.0973105
-0.563715
0.283523
0.42734
-0.584855
0.00339873
0.0860053
-0.14078
-0.145948
0.310539
0.292642
0.27021
-0.562939
0.168238
0.176691
-0.344946
0.0982426
0.0662197
0.224709
-0.551685
0.00657803
0.545329
0.121852
-0.211088
-0.142734
-0.30011
-0.284404
-0.16933
0.374806
-0.205494
-0.0393352
-0.0246494
-0.206319
-0.17027
-0.258491
0.109278
0.395369
-0.278636
0.115546
0.120574
-0.0211985
-0.0993718
0.534793
0.228327
-0.116333
-0.111959
-0.328229
0.438019
-0.109765
-0.224829
0.126624
-0.0599878
0.0428837
0.0171043
0.304852
0.292163
-0.0600215
0.0639573
-0.0718576
0.211966
0.004306
-0.00619311
0.00188718
-0.260314
-0.363305
0.139366
-0.0907719
0.212608
-0.0876954
-0.0670561
0.084084
-0.0105156
-0.196926
-0.0262405
0.0860251
0.0131752
-0.0651133
-0.0635351
0.128647
-0.254959
0.0985038
0.15646
-0.0112246
0.554953
0.0384009
0.0953417
0.170493
0.293967
-0.464562
0.273407
-0.618578
-0.408024
0.208374
0.199633
0.614814
0.0598067
0.109231
-0.169026
0.383765
0.21325
0.251479
0.0190791
-0.0815358
0.103209
-0.18975
-0.154366
-0.43405
-0.0479512
0.137641
-0.0896813
0.142025
-0.255645
0.0421265
-0.148819
0.250489
-0.101658
-0.0592527
0.0251792
0.183916
0.181929
-0.104522
0.14141
0.00830981
-0.0281537
0.0198443
0.105046
-0.23862
0.133573
0.00165364
-0.000625728
0.336794
-0.59939
-0.0481546
0.195257
-0.147101
0.502325
-0.565808
0.0634663
0.16006
-0.286754
-0.15316
0.313633
0.130743
-0.0456698
0.0265709
-0.107409
0.0808419
-0.237304
0.111027
0.126278
-0.00714215
-0.281401
-0.326852
0.608296
-0.0640613
0.0492857
-0.277817
0.11811
0.170067
0.188444
-0.35852
-0.0909082
-0.0652723
-0.0217366
0.156141
-0.134395
0.00385462
0.00977137
-0.152166
0.398594
-0.106061
0.0999414
-0.0989732
-0.00622862
0.102153
-0.0327117
0.0828547
-0.292446
0.549466
-0.405589
-0.143879
-0.299548
-0.0934142
0.0639969
0.0294179
-0.406728
0.498733
-0.0917258
-0.404456
0.298308
0.225218
0.197283
-0.422568
0.159151
-0.461088
0.211885
-0.408193
0.256517
0.274081
-0.129144
0.203825
0.191523
-0.395432
0.47655
-0.250345
0.119925
0.0818524
0.123911
0.0968315
-0.144773
0.400155
-0.209608
0.00818087
-0.00387463
0.313792
-0.130897
-0.182869
-0.0438543
0.0944062
0.130739
-0.026896
-0.000390936
-0.000610516
0.00100151
-0.0379218
-0.107599
0.145536
0.183652
-0.231792
0.0102311
-0.00490545
-0.00532561
0.0786212
-0.185256
-0.0712054
0.0669168
0.010223
-0.0771393
0.166044
-0.0677924
0.565342
-0.46824
-0.125985
-0.100124
0.226139
0.0162961
-0.344833
0.085485
0.000869276
-0.00163702
0.000767803
0.289059
-0.289987
0.000935921
0.0761691
-0.0573919
0.0328643
-0.117396
-0.114018
-0.152563
-0.0018627
-0.00168801
0.143828
-0.188061
0.373175
0.507665
-0.0375451
-0.099224
-0.138648
0.43144
0.118007
0.162572
-0.474718
-0.0739253
-0.0613554
0.130163
0.0811406
0.1673
-0.495536
-0.180133
-0.164682
-0.116143
-0.134184
0.0452382
0.072729
0.0977994
-0.231916
0.172113
0.396313
-0.568309
0.162663
-0.2345
-0.109066
-0.0540594
0.163131
0.105528
0.14891
-0.2084
0.470805
-0.262354
-0.000337041
0.00120637
0.179375
-0.298359
0.119024
-0.00113532
0.246525
-0.0594561
-0.108767
0.208044
-0.173209
-0.142388
-0.00704535
0.00832316
0.031984
0.00140667
-0.0333941
0.0125899
-0.0115267
0.166644
-0.316785
0.1502
0.124357
0.104004
0.125638
-0.100752
-0.0248846
-0.182823
-0.300018
0.147244
0.587422
-0.142227
-0.0987961
0.241026
0.356032
-0.475787
0.454233
-0.167851
-0.141018
-0.0759033
-0.0113454
0.0109937
-0.0653768
0.0543836
0.492984
-0.257289
-0.235622
0.309129
-0.136661
-0.172429
0.271489
-0.485945
0.0777647
-0.264852
0.122982
-0.254506
-0.233745
0.488157
0.115701
-0.120834
-0.114514
0.0456014
-0.257523
0.211944
-0.392202
0.215339
0.176782
-0.224209
-0.189602
0.413797
-0.286631
-0.226958
0.513481
-0.149504
-0.0899792
0.239501
-0.00249085
0.00107391
0.23522
-0.112466
0.19063
0.389307
0.0918987
-0.010821
0.0191311
-0.226424
-0.189214
0.22528
-0.512015
0.383407
-0.236366
0.0849335
0.0010922
-0.0956068
0.559406
-0.55221
-0.00684136
-0.357242
-0.273403
-0.136528
0.114805
0.091676
-0.00501633
-0.0866587
0.563681
-0.309743
-0.253857
0.628071
-0.3546
0.198778
-0.107838
-0.0909118
-0.157489
-0.132861
0.290332
-0.235143
0.124914
0.110246
-0.218721
0.156428
0.0623182
-0.104804
0.072681
-0.161234
0.468577
-0.224899
-0.243608
-0.0345125
-0.139721
0.174256
-0.024014
0.0857021
-0.0616877
0.150129
-0.0287919
0.00984063
-0.127636
0.117799
0.0982181
-0.205493
0.107308
0.0997406
0.287921
-0.606448
0.167989
0.151638
-0.319556
-0.0963078
-0.128524
0.202977
-0.108348
0.149243
0.168099
-0.31725
-0.194979
0.337683
-0.142672
0.583436
-0.284762
-0.298948
0.282404
-0.141682
-0.00682183
-0.0978816
0.0826054
0.0152771
-0.139052
0.0910209
0.0480267
0.151199
-0.265189
0.304208
0.100494
-0.171822
0.0713382
0.162433
-0.302057
-0.15803
0.203671
0.0563719
-0.119234
0.0628621
0.103911
-0.212648
0.160753
-0.293758
-0.377252
-0.0459271
-0.0474867
-0.0147177
-0.0801958
0.0221943
0.444172
-0.466447
0.137138
-0.270216
0.119849
-0.142594
0.349191
-0.166993
0.501959
-0.269772
-0.232352
0.351953
-0.0672042
0.187057
-0.0558686
0.191447
-0.135536
-0.153001
-0.0821275
0.00359208
-0.000997192
-0.00259488
-0.143255
-0.131681
-0.31287
0.0148046
-0.0095539
-0.247502
-0.228723
0.476398
-0.0670704
0.0780647
-0.533438
-0.01704
0.550422
0.114591
0.0875849
0.0445908
0.28847
-0.276971
-0.0114479
0.396396
0.160349
-0.556664
-0.313263
0.167369
0.255307
-0.11764
-0.137646
0.0912285
-0.00629439
0.161677
-0.275646
0.56845
0.00743355
-0.064786
0.0573529
0.0565976
0.09643
0.0826677
-0.142338
-0.00806963
0.00437966
-0.034445
0.152042
0.663142
-0.311283
0.092039
-0.121944
0.170107
-0.318723
0.148636
0.0190063
0.0794425
-0.0984485
-0.232972
-0.138594
0.27967
0.5226
0.0816216
-0.00565266
-0.00627542
0.313391
0.34977
0.0462163
-0.264903
0.236959
0.128171
0.100373
0.0797204
0.10573
-0.155143
0.0950142
-0.265979
0.0519136
0.214089
-0.293424
0.103825
-0.141734
-0.192327
0.0890125
0.10334
-0.188882
0.429028
-0.240104
0.160515
-0.218166
0.0576677
-0.346389
0.156954
0.00693229
-0.0320882
0.00477247
-0.0138693
-0.392553
0.169877
0.00131566
-0.259453
-0.304169
-0.0456043
-0.0934524
0.318856
-0.562028
0.243297
0.000611409
0.00298069
-0.21175
-0.349322
0.143036
0.126635
0.433106
0.0955375
-0.245018
0.107135
-0.2437
0.136573
-0.501259
-0.151684
0.65288
-0.138027
-0.254261
0.183664
-0.30617
-0.0984921
-0.0511795
-0.0661086
0.149866
-0.0837536
-0.145673
0.293078
-0.147401
0.229283
-0.124244
-0.246289
0.147067
-0.149772
0.0725241
0.303246
0.148364
-0.12822
-0.133293
-0.137604
0.297698
0.205308
-0.061468
0.142265
-0.227258
0.0849933
0.00428243
-0.505588
-0.504849
0.257304
0.0916886
-0.169721
0.0780428
-0.348587
0.179232
0.0829502
-0.101462
-0.0862066
0.229463
-0.00860451
0.0992811
-0.0906758
0.137231
0.125131
-0.262349
0.467722
0.136449
-0.331371
0.0646575
-0.198972
0.134312
-0.111252
-0.0547219
0.195942
-0.420203
0.132966
-0.099552
-0.0698872
0.169444
-0.106096
-0.393462
0.126017
-0.556752
-0.0300238
0.586808
0.0115462
-0.078325
0.0711172
0.00720823
-0.214647
0.0975854
0.117083
0.00133498
0.0109401
-0.102586
-0.0787366
0.181325
-0.109087
0.206276
-0.149314
0.040252
-0.0596158
-0.0883959
-0.0698573
0.211325
0.00296446
-0.233466
0.0912444
-0.0519962
0.160101
-0.108098
0.128566
-0.286077
0.164106
-0.21993
-0.186224
0.342528
0.148642
0.0156884
-0.195044
-0.174783
0.376096
-0.201259
-0.0483429
0.0417859
0.239551
0.0742617
0.0282969
0.260224
-0.053916
0.0967326
-0.0428156
-0.37219
0.177416
-0.110132
0.201186
-0.0910456
-0.082558
-0.214558
0.0865216
0.0365735
0.252497
-0.021654
-0.0789901
0.100646
-0.231798
0.126483
0.105307
-0.270215
-0.257523
0.527907
-0.0884682
0.199032
0.00642903
-0.00806596
-0.0866177
0.0949804
-0.00835933
-0.198628
-0.147271
-0.0861905
-0.21778
0.507247
-0.289558
-0.369867
0.326691
0.0431918
-0.0178569
0.113947
0.219922
0.232781
-0.50728
0.274592
-0.181431
0.0757423
0.105699
0.138144
0.153129
-0.29125
-0.00134421
-0.169235
0.170589
-0.184144
0.354233
0.468821
-0.0556524
0.0269729
0.028678
-0.146266
-0.153754
-0.294415
0.360378
0.194205
-0.0377829
-0.156407
-0.148641
0.315327
0.398765
-0.114098
0.437421
0.0917152
-0.0946745
-0.140671
0.261166
-0.120455
-0.266197
-0.327698
0.423351
-0.202009
0.0938666
0.0716524
-0.165518
-0.128058
-0.126895
0.102069
0.112243
-0.214283
-0.147304
-0.159331
0.306623
-0.0906119
-0.0571988
-0.106491
0.310664
-0.161337
-0.249694
0.12692
0.122798
0.440189
-0.17569
-0.253654
0.486617
-0.00620487
-0.066773
-0.0984763
0.165257
-0.105233
-0.0870695
0.0676197
0.152422
0.0630454
0.100035
-0.163073
-0.157165
0.0576181
0.157777
-0.0734573
-0.0843095
-0.0846187
-0.07053
0.0674314
-0.197591
0.0466953
-0.0152
0.162317
-0.31787
0.136978
0.154845
-0.291748
-0.288958
0.52121
-0.516004
-0.0406966
-0.0503322
0.154354
-0.104014
-0.122317
-0.411186
-0.065515
0.00348345
0.00465703
-0.00814046
0.125342
-0.0919996
-0.0333416
0.000220087
0.396231
0.0450725
0.149146
0.154317
-0.0577614
-0.0965518
-0.20557
-0.24242
0.44812
0.0769665
-0.0737478
-0.0290975
0.120531
-0.0914305
0.0447835
-0.0835429
0.105184
0.0977938
-0.00174113
0.00207277
-0.000331584
-0.0624827
-0.0946776
0.0994404
-0.0896001
-0.000840548
0.00203419
0.184596
-0.0813739
0.147603
-0.296396
0.145844
-0.0475992
-0.179638
0.365521
-0.185867
-0.0052532
0.0103563
0.0899834
-0.232657
0.142694
0.0690955
-0.150256
0.0811667
0.391578
-0.213831
-0.177684
0.088905
0.394636
0.100961
-0.49581
-0.000130463
-0.00515676
0.00528726
0.0117012
-0.0169542
0.31802
0.265113
-0.583237
-0.00465786
0.00865421
-0.109376
0.0860422
0.0233343
-0.0837822
-0.094104
0.177885
-0.104861
0.176854
-0.071981
0.130602
-0.448105
0.153754
0.00358434
-0.00532539
0.290162
-0.127691
-0.0275044
0.104088
-0.00437469
0.00785815
0.233891
0.339191
-0.573179
-0.0415142
-0.224427
0.291468
0.231444
0.104999
0.0642853
-0.140688
0.0764161
0.0827445
0.0646928
-0.567387
0.0300993
0.364403
-0.0644749
-0.153677
-0.14862
-0.126199
0.274851
0.0117061
0.490559
-0.198587
0.0794439
0.119165
-0.319408
0.241706
-0.467516
0.196907
-0.101642
0.0109027
0.121916
-0.132811
0.465341
0.0876994
-0.0207823
0.30608
0.385507
0.208162
-0.593819
0.0901949
0.115124
-0.0403874
0.0967936
-0.0564046
-0.24859
0.260984
-0.224082
0.421332
-0.102442
0.122351
0.108448
-0.0692876
-0.0391586
-0.328457
0.17757
0.150885
-0.0126775
0.17535
0.0875147
-0.102231
-0.0969617
-0.00435789
0.000485319
0.00387261
0.220347
0.0986101
-0.158203
0.0595978
0.00345556
-0.00408725
0.0127515
-0.0588689
0.0461178
0.329972
-0.542498
0.212423
-0.230743
0.232468
-0.0928594
0.204419
0.0784444
-0.176307
0.0978735
0.0340382
0.118061
0.241725
0.00914161
-0.0124518
0.00331026
-0.0729864
-0.108434
0.0775913
-0.0897667
0.156691
0.127958
-0.293407
0.518561
0.00412765
-0.113814
0.201663
-0.0878552
0.490958
0.32897
-0.581992
0.252937
-0.000998228
0.00258176
-0.00158345
-0.219095
-0.0744242
-0.302657
0.136126
0.211771
0.125945
0.114246
0.141082
0.551734
-0.0794511
0.148554
0.123121
-0.263742
0.0930594
0.145185
-0.238248
0.22105
0.236387
-0.457467
-0.0863356
-0.058286
0.0635486
-0.115859
0.0419375
0.159812
-0.09551
0.00614129
-0.00401389