/*--------------------------------*- C++ -*----------------------------------*\
| =========                 |                                                 |
| \\      /  F ield         | OpenFOAM: The Open Source CFD Toolbox           |
|  \\    /   O peration     | Version:  v2012                                 |
|   \\  /    A nd           | Website:  www.openfoam.com                      |
|    \\/     M anipulation  |                                                 |
\*---------------------------------------------------------------------------*/
FoamFile
{
    version     2.0;
    format      ascii;
    class       pointVectorField;
    location    "600";
    object      pointDisplacement;
}
// * * * * * * * * * * * * * * * * * * * * * * * * * * * * * * * * * * * * * //

dimensions      [0 1 0 0 0 0 0];


internalField   nonuniform List<vector> 
10356
(
(0 0 0)
(0 0 0)
(0 0 0)
(0 0 0)
(0 0 0)
(0 0 0)
(0 0 0)
(0 0 0)
(0 0 0)
(0 0 0)
(0 0 0)
(0 0 0)
(0 0 0)
(0 0 0)
(0 0 0)
(0 0 0)
(0 0 0)
(0 0 0)
(0 0 0)
(0 0 0)
(0 0 0)
(0 0 0)
(0 0 0)
(0 0 0)
(0 0 0)
(0 0 0)
(0 0 0)
(0 0 0)
(0 0 0)
(0 0 0)
(0 0 0)
(0 0 0)
(0 0 0)
(0 0 0)
(0 0 0)
(0 0 0)
(0 0 0)
(0 0 0)
(0 0 0)
(0 0 0)
(0 0 0)
(0 0 0)
(0 0 0)
(0 0 0)
(0 0 0)
(0 0 0)
(0 0 0)
(0 0 0)
(0 0 0)
(0 0 0)
(0 0 0)
(0 0 0)
(0 0 0)
(0 0 0)
(0 0 0)
(0 0 0)
(0 0 0)
(0 0 0)
(0 0 0)
(0 0 0)
(0 0 0)
(0 0 0)
(0 0 0)
(0 0 0)
(0 0 0)
(0 0 0)
(0 0 0)
(0 0 0)
(0 0 0)
(0 0 0)
(0 0 0)
(0 0 0)
(0 0 0)
(0 0 0)
(0 0 0)
(0 1.32235e-05 0)
(0 1.32235e-05 0)
(0 0 0)
(0 0 0)
(0 0 0)
(0 0 0)
(0 0 0)
(0 0 0)
(0 0 0)
(0 0 0)
(0 0 0)
(0 0 0)
(0 0 0)
(0 0 0)
(0 0 0)
(0 0 0)
(0 0 0)
(0 0 0)
(0 0 0)
(0 0 0)
(0 0 0)
(0 0 0)
(0 0 0)
(0 0 0)
(0 0 0)
(0 0 0)
(0 0 0)
(0 0 0)
(0 0 0)
(0 0 0)
(0 0 0)
(0 0 0)
(0 0 0)
(0 0 0)
(0 0 0)
(0 0 0)
(0 0 0)
(0 0 0)
(0 0 0)
(0 0 0)
(0 0 0)
(0 0 0)
(0 0 0)
(0 0 0)
(0 0 0)
(0 0 0)
(0 0 0)
(0 0 0)
(0 0 0)
(0 0 0)
(0 0 0)
(0 0 0)
(0 0 0)
(0 0 0)
(0 0 0)
(0 0 0)
(0 0 0)
(0 0 0)
(0 0 0)
(0 0 0)
(0 0 0)
(0 0 0)
(0 0 0)
(0 0 0)
(0 0 0)
(0 0 0)
(0 0 0)
(0 0 0)
(0 0 0)
(0 0 0)
(0 0 0)
(0 0 0)
(0 0 0)
(0 0 0)
(0 0 0)
(0 1.32235e-05 0)
(0 1.32235e-05 0)
(0 1.32194e-05 0)
(0 1.32381e-05 0)
(0 1.31984e-05 0)
(0 1.32207e-05 0)
(0 -4.92232e-05 0)
(0 -5.97513e-05 0)
(0 -6.19396e-05 0)
(0 -6.27662e-05 0)
(0 -7.68337e-05 0)
(0 1.32454e-05 0)
(0 -5.53167e-05 0)
(0 -8.4971e-05 0)
(0 1.32192e-05 0)
(0 -4.37235e-05 0)
(0 -5.16433e-05 0)
(0 -4.3447e-05 0)
(0 -3.64387e-05 0)
(0 1.32228e-05 0)
(0 1.32324e-05 0)
(0 -2.13535e-05 0)
(0 -2.38278e-05 0)
(0 -6.66383e-05 0)
(0 -6.46773e-05 0)
(0 -5.74818e-05 0)
(0 1.32182e-05 0)
(0 1.32199e-05 0)
(0 -1.42582e-05 0)
(0 -1.48737e-05 0)
(0 -5.43383e-05 0)
(0 -5.79358e-05 0)
(0 -5.49e-05 0)
(0 -4.60913e-05 0)
(0 -7.91978e-05 0)
(0 -9.10268e-05 0)
(0 -4.89377e-05 0)
(0 -3.75605e-05 0)
(0 -2.97672e-05 0)
(0 -3.99636e-05 0)
(0 -6.26031e-06 0)
(0 -5.55328e-05 0)
(0 -0.000108179 0)
(0 -0.00010889 0)
(0 -0.000158494 0)
(0 -0.000161273 0)
(0 -0.000207373 0)
(0 -0.000205148 0)
(0 -0.000250779 0)
(0 -0.00025561 0)
(0 -0.00029601 0)
(0 -0.000302561 0)
(0 -0.000339741 0)
(0 -0.000346185 0)
(0 -0.000380917 0)
(0 -0.000385976 0)
(0 -0.000417712 0)
(0 -0.000420939 0)
(0 -0.00044904 0)
(0 -0.000451896 0)
(0 -0.000477411 0)
(0 -0.000474058 0)
(0 -0.000499376 0)
(0 -0.000494819 0)
(0 -0.000516437 0)
(0 -0.00051095 0)
(0 -0.000529182 0)
(0 -0.000522729 0)
(0 -0.000538542 0)
(0 -0.000531478 0)
(0 -0.000544586 0)
(0 -0.000537448 0)
(0 -0.000547687 0)
(0 -0.000540434 0)
(0 -0.000548216 0)
(0 -0.000540418 0)
(0 -0.000555478 0)
(0 -0.000554081 0)
(0 -0.000561729 0)
(0 -0.000558471 0)
(0 -0.000566582 0)
(0 -0.000561561 0)
(0 -0.000569763 0)
(0 -0.000563391 0)
(0 -0.000571914 0)
(0 -0.000564125 0)
(0 -0.00057321 0)
(0 -0.000563702 0)
(0 -0.000554287 0)
(0 -0.000573195 0)
(0 -0.000562397 0)
(0 -0.000572046 0)
(0 -0.000560515 0)
(0 -0.000570207 0)
(0 -0.000557767 0)
(0 -0.00056733 0)
(0 -0.000553862 0)
(0 -0.000563046 0)
(0 -0.000549251 0)
(0 -0.000558814 0)
(0 -0.000544489 0)
(0 -0.000533606 0)
(0 -0.00055508 0)
(0 -0.000539802 0)
(0 -0.000550798 0)
(0 -0.000534458 0)
(0 -0.000545931 0)
(0 -0.000529005 0)
(0 -0.000540543 0)
(0 -0.000523231 0)
(0 -0.000534516 0)
(0 -0.000517367 0)
(0 -0.000528288 0)
(0 -0.00050825 0)
(0 -0.000523094 0)
(0 -0.000504712 0)
(0 -0.000518266 0)
(0 -0.000498941 0)
(0 -0.000513063 0)
(0 -0.000493109 0)
(0 -0.000508677 0)
(0 -0.000488229 0)
(0 -0.000551439 0)
(0 -0.000505251 0)
(0 -0.000484482 0)
(0 -0.000525199 0)
(0 -0.000501166 0)
(0 -0.000481463 0)
(0 -0.000503374 0)
(0 -0.000498519 0)
(0 -0.000479385 0)
(0 -0.000497867 0)
(0 -0.000478424 0)
(0 -0.000497258 0)
(0 -0.000478518 0)
(0 -0.000497901 0)
(0 -0.000479547 0)
(0 -0.000499626 0)
(0 -0.000481862 0)
(0 -0.000516165 0)
(0 -0.000502232 0)
(0 -0.000485553 0)
(0 -0.000506917 0)
(0 -0.000490875 0)
(0 -0.000575398 0)
(0 -0.000513102 0)
(0 -0.000497233 0)
(0 -0.000519765 0)
(0 -0.000505148 0)
(0 -0.000528151 0)
(0 -0.000514533 0)
(0 -0.000537676 0)
(0 -0.000525104 0)
(0 -0.000550491 0)
(0 -0.000548263 0)
(0 -0.00053657 0)
(0 -0.000512742 0)
(0 -0.000525009 0)
(0 -0.00050061 0)
(0 -0.000513537 0)
(0 -0.000537386 0)
(0 -0.000526983 0)
(0 -0.000502587 0)
(0 -0.000516939 0)
(0 -0.000540864 0)
(0 -0.000531904 0)
(0 -0.000507228 0)
(0 -0.000523421 0)
(0 -0.000547964 0)
(0 -0.000540739 0)
(0 -0.000565273 0)
(0 -0.000558908 0)
(0 -0.000533797 0)
(0 -0.000552768 0)
(0 -0.00052717 0)
(0 -0.000547258 0)
(0 -0.000572476 0)
(0 -0.00056788 0)
(0 -0.000542364 0)
(0 -0.000563689 0)
(0 -0.000537755 0)
(0 -0.00055999 0)
(0 -0.000585358 0)
(0 -0.000582123 0)
(0 -0.000556533 0)
(0 -0.000578869 0)
(0 -0.000553165 0)
(0 -0.000576275 0)
(0 -0.000550238 0)
(0 -0.000574388 0)
(0 -0.000547744 0)
(0 -0.00057096 0)
(0 -0.000545188 0)
(0 -0.000568557 0)
(0 -0.000543376 0)
(0 -0.000568538 0)
(0 -0.000542873 0)
(0 -0.000568196 0)
(0 -0.000542776 0)
(0 -0.000568699 0)
(0 -0.000543181 0)
(0 -0.000569604 0)
(0 -0.000544046 0)
(0 -0.000571034 0)
(0 -0.000545695 0)
(0 -0.000573148 0)
(0 -0.000548242 0)
(0 -0.000576944 0)
(0 -0.000551714 0)
(0 -0.000582148 0)
(0 -0.000556369 0)
(0 -0.000587408 0)
(0 -0.000561981 0)
(0 -0.000593788 0)
(0 -0.00056857 0)
(0 -0.000606078 0)
(0 -0.000595191 0)
(0 -0.000607002 0)
(0 -0.000521245 0)
(0 -0.000516962 0)
(0 -0.000471386 0)
(0 -0.000530072 0)
(0 -0.000462995 0)
(0 -0.000480002 0)
(0 -0.000532944 0)
(0 -0.000532286 0)
(0 -0.000525206 0)
(0 -0.000523846 0)
(0 -0.000456593 0)
(0 -0.000582485 0)
(0 -0.000891792 0)
(0 -0.00087267 0)
(0 -0.00086827 0)
(0 -0.000907252 0)
(0 -0.00084779 0)
(0 -0.000844085 0)
(0 -0.00082273 0)
(0 -0.000819831 0)
(0 -0.000797824 0)
(0 -0.000796258 0)
(0 -0.000815292 0)
(0 -0.000794141 0)
(0 -0.000810838 0)
(0 -0.00079175 0)
(0 -0.000806463 0)
(0 -0.000788734 0)
(0 -0.000772761 0)
(0 -0.00076965 0)
(0 -0.000783801 0)
(0 -0.000764751 0)
(0 -0.000749313 0)
(0 -0.000745015 0)
(0 -0.000758103 0)
(0 -0.000740063 0)
(0 -0.000725159 0)
(0 -0.000722589 0)
(0 -0.000705587 0)
(0 -0.000705172 0)
(0 -0.00072066 0)
(0 -0.000705174 0)
(0 -0.00068816 0)
(0 -0.000689256 0)
(0 -0.000704192 0)
(0 -0.000689214 0)
(0 -0.000672196 0)
(0 -0.000672178 0)
(0 -0.000686225 0)
(0 -0.00067021 0)
(0 -0.000653339 0)
(0 -0.000651998 0)
(0 -0.00066666 0)
(0 -0.000648911 0)
(0 -0.000661865 0)
(0 -0.000645002 0)
(0 -0.000656698 0)
(0 -0.0006418 0)
(0 -0.000628152 0)
(0 -0.000626358 0)
(0 -0.000639638 0)
(0 -0.000625318 0)
(0 -0.000638358 0)
(0 -0.00062551 0)
(0 -0.000638298 0)
(0 -0.000627331 0)
(0 -0.000613055 0)
(0 -0.000616786 0)
(0 -0.000630216 0)
(0 -0.000620937 0)
(0 -0.0006331 0)
(0 -0.000624658 0)
(0 -0.000635436 0)
(0 -0.000628104 0)
(0 -0.00061626 0)
(0 -0.000620448 0)
(0 -0.000631211 0)
(0 -0.000623998 0)
(0 -0.00061208 0)
(0 -0.000615764 0)
(0 -0.000626791 0)
(0 -0.000618558 0)
(0 -0.000628892 0)
(0 -0.000620823 0)
(0 -0.00063042 0)
(0 -0.00062273 0)
(0 -0.000611731 0)
(0 -0.000613315 0)
(0 -0.000623896 0)
(0 -0.000613555 0)
(0 -0.000623561 0)
(0 -0.000611722 0)
(0 -0.000600435 0)
(0 -0.000621347 0)
(0 -0.000607975 0)
(0 -0.000617109 0)
(0 -0.000602697 0)
(0 -0.000611579 0)
(0 -0.00059576 0)
(0 -0.000604799 0)
(0 -0.000586929 0)
(0 -0.000577832 0)
(0 -0.000567346 0)
(0 -0.000557779 0)
(0 -0.000629289 0)
(0 -0.000144842 0)
(0 -0.000134293 0)
(0 -0.000119217 0)
(0 -0.000124266 0)
(0 -0.000109695 0)
(0 -0.000114791 0)
(0 -0.000100549 0)
(0 -0.000105867 0)
(0 -0.00012059 0)
(0 -0.000111784 0)
(0 -9.7486e-05 0)
(0 -0.000103488 0)
(0 -8.97752e-05 0)
(0 -9.58234e-05 0)
(0 -8.27248e-05 0)
(0 -8.88791e-05 0)
(0 -0.00010246 0)
(0 -9.56659e-05 0)
(0 -8.25022e-05 0)
(0 -8.9532e-05 0)
(0 -7.67839e-05 0)
(0 -8.37331e-05 0)
(0 -7.17911e-05 0)
(0 -7.83315e-05 0)
(0 -6.74283e-05 0)
(0 -7.43243e-05 0)
(0 -6.35068e-05 0)
(0 -7.08306e-05 0)
(0 -6.02917e-05 0)
(0 -6.77829e-05 0)
(0 -5.78775e-05 0)
(0 -6.57296e-05 0)
(0 -5.5858e-05 0)
(0 -6.41971e-05 0)
(0 -5.43991e-05 0)
(0 -6.31667e-05 0)
(0 -5.3455e-05 0)
(0 -6.26423e-05 0)
(0 -5.32057e-05 0)
(0 -6.29007e-05 0)
(0 -5.37357e-05 0)
(0 -6.38141e-05 0)
(0 -5.50737e-05 0)
(0 -6.54297e-05 0)
(0 -5.71461e-05 0)
(0 -6.80164e-05 0)
(0 -5.99157e-05 0)
(0 -7.13137e-05 0)
(0 -6.35305e-05 0)
(0 -7.51617e-05 0)
(0 -6.75912e-05 0)
(0 -7.97266e-05 0)
(0 -7.21891e-05 0)
(0 -8.47176e-05 0)
(0 -7.78297e-05 0)
(0 -9.06642e-05 0)
(0 -8.42066e-05 0)
(0 -9.78208e-05 0)
(0 -9.11981e-05 0)
(0 -9.32546e-05 0)
(0 -7.27031e-05 0)
(0 -7.79546e-05 0)
(0 -8.49186e-05 0)
(0 -7.2136e-05 0)
(0 -7.90935e-05 0)
(0 -9.24788e-05 0)
(0 -8.66346e-05 0)
(0 -7.37435e-05 0)
(0 -8.13153e-05 0)
(0 -6.8785e-05 0)
(0 -7.65092e-05 0)
(0 -8.94467e-05 0)
(0 -8.49277e-05 0)
(0 -7.2806e-05 0)
(0 -8.08314e-05 0)
(0 -8.28014e-05 0)
(0 -9.37806e-05 0)
(0 -8.94443e-05 0)
(0 -7.6535e-05 0)
(0 -8.53168e-05 0)
(0 -7.25897e-05 0)
(0 -8.16396e-05 0)
(0 -6.94552e-05 0)
(0 -7.82153e-05 0)
(0 -6.67686e-05 0)
(0 -7.55646e-05 0)
(0 -6.46787e-05 0)
(0 -7.51635e-05 0)
(0 -6.3292e-05 0)
(0 -7.12591e-05 0)
(0 -6.14273e-05 0)
(0 -6.91639e-05 0)
(0 -5.94891e-05 0)
(0 -6.79713e-05 0)
(0 -5.85814e-05 0)
(0 -6.78806e-05 0)
(0 -5.82207e-05 0)
(0 -6.81677e-05 0)
(0 -5.83912e-05 0)
(0 -6.86355e-05 0)
(0 -5.90679e-05 0)
(0 -6.97745e-05 0)
(0 -6.03451e-05 0)
(0 -7.16006e-05 0)
(0 -6.22756e-05 0)
(0 -7.38315e-05 0)
(0 -6.48628e-05 0)
(0 -7.70346e-05 0)
(0 -6.82296e-05 0)
(0 -8.18366e-05 0)
(0 -7.24281e-05 0)
(0 -8.67394e-05 0)
(0 -7.72095e-05 0)
(0 -9.17521e-05 0)
(0 -8.27442e-05 0)
(0 -9.80083e-05 0)
(0 -8.91459e-05 0)
(0 -0.000105428 0)
(0 -9.69671e-05 0)
(0 -0.000113893 0)
(0 -0.000105919 0)
(0 -0.000123701 0)
(0 -0.000115599 0)
(0 -0.000134723 0)
(0 -0.000126342 0)
(0 -0.000146915 0)
(0 -0.000138389 0)
(0 -0.00011828 0)
(0 -0.00013057 0)
(0 -0.000111087 0)
(0 -0.000123784 0)
(0 -0.000104762 0)
(0 -0.000137883 0)
(0 -7.86396e-05 0)
(0 -8.34488e-05 0)
(0 -0.000109903 0)
(0 -6.08759e-05 0)
(0 -5.83751e-05 0)
(0 -9.49788e-05 0)
(0 -0.00010687 0)
(0 -5.19154e-05 0)
(0 -7.41974e-05 0)
(0 -0.000143371 0)
(0 -7.67516e-05 0)
(0 -5.07066e-05 0)
(0 -4.84495e-05 0)
(0 -4.47393e-05 0)
(0 -5.63322e-05 0)
(0 -4.9334e-05 0)
(0 -0.000595224 0)
(0 -0.000545643 0)
(0 -0.000535119 0)
(0 -0.000521262 0)
(0 -0.000509917 0)
(0 -0.000535582 0)
(0 -0.000454006 0)
(0 -0.00048155 0)
(0 -0.000547643 0)
(0 -0.000454912 0)
(0 -0.000482578 0)
(0 -0.0004556 0)
(0 -0.000494294 0)
(0 -0.000482781 0)
(0 -0.000497448 0)
(0 -0.000465913 0)
(0 -0.000483918 0)
(0 -0.000452712 0)
(0 -0.000467536 0)
(0 -0.000436327 0)
(0 -0.000448226 0)
(0 -0.000416704 0)
(0 -0.000425633 0)
(0 -0.000392363 0)
(0 -0.000399669 0)
(0 -0.000367395 0)
(0 -0.00050562 0)
(0 -0.000773402 0)
(0 -0.000771542 0)
(0 -0.000745122 0)
(0 -0.0007394 0)
(0 -0.000642551 0)
(0 -0.000633263 0)
(0 -0.000637264 0)
(0 -0.000614719 0)
(0 -0.000670562 0)
(0 -0.00071001 0)
(0 -0.00060186 0)
(0 -0.000617688 0)
(0 -0.000611379 0)
(0 -0.000150209 0)
(0 -0.000601226 0)
(0 -0.00060289 0)
(0 -0.000601013 0)
(0 -0.000700071 0)
(0 -0.000565966 0)
(0 -0.000535786 0)
(0 -0.000517468 0)
(0 -0.000595492 0)
(0 -0.00052757 0)
(0 -9.93027e-07 0)
(0 1.57454e-06 0)
(0 -1.67801e-06 0)
(0 1.00107e-06 0)
(0 -2.34086e-06 0)
(0 3.08953e-07 0)
(0 -0.000373243 0)
(0 -0.000403321 0)
(0 -7.9709e-05 0)
(0 -0.000462421 0)
(0 -0.000607187 0)
(0 -0.000620986 0)
(0 -0.000339887 0)
(0 3.34266e-06 0)
(0 2.55588e-06 0)
(0 -0.000504201 0)
(0 -0.000374244 0)
(0 -0.000403064 0)
(0 -0.000668242 0)
(0 -0.000611231 0)
(0 -0.000623177 0)
(0 -0.000421845 0)
(0 -0.000654465 0)
(0 -6.60801e-07 0)
(0 1.56278e-06 0)
(0 4.43311e-06 0)
(0 3.45172e-06 0)
(0 -7.71035e-05 0)
(0 -0.000613167 0)
(0 -0.00060042 0)
(0 -0.000624379 0)
(0 -0.000632224 0)
(0 -0.000356216 0)
(0 -0.000370014 0)
(0 -0.000398659 0)
(0 -0.000614393 0)
(0 5.98475e-06 0)
(0 5.00305e-06 0)
(0 2.39106e-06 0)
(0 3.84342e-06 0)
(0 6.24735e-06 0)
(0 4.97941e-06 0)
(0 7.17228e-06 0)
(0 5.89804e-06 0)
(0 7.82817e-06 0)
(0 6.5213e-06 0)
(0 8.30238e-06 0)
(0 6.96084e-06 0)
(0 8.61742e-06 0)
(0 7.22729e-06 0)
(0 8.79451e-06 0)
(0 7.40523e-06 0)
(0 9.10289e-06 0)
(0 7.49434e-06 0)
(0 8.90719e-06 0)
(0 7.39728e-06 0)
(0 8.72943e-06 0)
(0 7.16724e-06 0)
(0 8.47212e-06 0)
(0 6.86588e-06 0)
(0 8.15314e-06 0)
(0 6.51956e-06 0)
(0 7.82707e-06 0)
(0 6.10993e-06 0)
(0 7.37538e-06 0)
(0 5.62668e-06 0)
(0 6.87709e-06 0)
(0 5.12965e-06 0)
(0 6.43088e-06 0)
(0 4.49935e-06 0)
(0 5.9377e-06 0)
(0 3.70459e-06 0)
(0 5.26559e-06 0)
(0 3.54782e-06 0)
(0 2.85432e-06 0)
(0 4.47152e-06 0)
(0 1.90806e-06 0)
(0 3.61897e-06 0)
(0 5.70533e-06 0)
(0 7.96305e-09 0)
(0 5.90894e-06 0)
(0 5.12953e-06 0)
(0 2.66528e-06 0)
(0 4.2532e-06 0)
(0 1.5952e-06 0)
(0 3.27367e-06 0)
(0 5.66204e-06 0)
(0 4.75848e-06 0)
(0 2.1604e-06 0)
(0 3.72092e-06 0)
(0 6.90453e-06 0)
(0 8.70762e-07 0)
(0 2.51671e-06 0)
(0 7.85682e-06 0)
(0 5.2988e-06 0)
(0 4.93089e-06 0)
(0 2.15766e-06 0)
(0 -6.22342e-07 0)
(0 1.14026e-06 0)
(0 4.0419e-06 0)
(0 2.73185e-06 0)
(0 5.34874e-06 0)
(0 4.11594e-06 0)
(0 -2.54189e-06 0)
(0 6.43789e-06 0)
(0 5.31986e-06 0)
(0 2.73477e-06 0)
(0 4.00397e-06 0)
(0 1.08974e-06 0)
(0 2.43924e-06 0)
(0 5.13384e-06 0)
(0 3.60249e-06 0)
(0 8.97843e-06 0)
(0 6.02085e-06 0)
(0 4.55534e-06 0)
(0 1.80857e-06 0)
(0 2.88871e-06 0)
(0 5.42286e-06 0)
(0 3.71008e-06 0)
(0 6.13154e-06 0)
(0 4.23452e-06 0)
(0 6.59455e-06 0)
(0 4.57832e-06 0)
(0 6.83573e-06 0)
(0 4.69096e-06 0)
(0 6.8351e-06 0)
(0 4.56502e-06 0)
(0 6.63931e-06 0)
(0 4.17832e-06 0)
(0 6.18833e-06 0)
(0 3.52699e-06 0)
(0 5.48154e-06 0)
(0 2.62455e-06 0)
(0 4.55485e-06 0)
(0 1.45811e-06 0)
(0 3.49368e-06 0)
(0 -5.09637e-08 0)
(0 3.54147e-07 0)
(0 -4.14519e-06 0)
(0 1.97695e-06 0)
(0 1.39214e-06 0)
(0 -0.000689076 0)
(0 -0.000638207 0)
(0 -0.000674658 0)
(0 -0.000624599 0)
(0 -0.000614674 0)
(0 -0.000481053 0)
(0 -0.000574485 0)
(0 -0.00062109 0)
(0 -0.000636403 0)
(0 -4.35348e-06 0)
(0 -6.57049e-06 0)
(0 -0.000363587 0)
(0 -0.000391053 0)
(0 9.92066e-06 0)
(0 -0.000649037 0)
(0 -0.000126983 0)
(0 -0.000552803 0)
(0 -0.000619147 0)
(0 -0.000335547 0)
(0 -0.000160324 0)
(0 -9.30681e-05 0)
(0 -0.000421438 0)
(0 -0.000426441 0)
(0 -0.000456144 0)
(0 -0.000425793 0)
(0 -0.00035374 0)
(0 -0.000380716 0)
(0 -0.000418274 0)
(0 -0.000407662 0)
(0 -0.000367667 0)
(0 -0.000394215 0)
(0 -0.000587249 0)
(0 -0.000604175 0)
(0 -0.000455357 0)
(0 -0.000423697 0)
(0 -0.000453556 0)
(0 -0.000420652 0)
(0 8.93841e-06 0)
(0 -0.000623535 0)
(0 -0.000614226 0)
(0 8.11892e-06 0)
(0 -8.75e-06 0)
(0 -1.1281e-05 0)
(0 -0.000552539 0)
(0 -0.000569789 0)
(0 -0.000444902 0)
(0 -0.000351941 0)
(0 -0.000378596 0)
(0 9.86868e-06 0)
(0 -0.000318306 0)
(0 -0.000332853 0)
(0 -0.000303717 0)
(0 -0.000319093 0)
(0 -0.000290337 0)
(0 -0.000306081 0)
(0 -0.000277673 0)
(0 -0.000295407 0)
(0 -0.000266498 0)
(0 -0.000285291 0)
(0 -0.00025749 0)
(0 -0.000279124 0)
(0 -0.000249425 0)
(0 -0.000267471 0)
(0 -0.000241737 0)
(0 -0.000260817 0)
(0 -0.000235507 0)
(0 -0.00025498 0)
(0 -0.0002304 0)
(0 -0.000250322 0)
(0 -0.000226834 0)
(0 -0.00024689 0)
(0 -0.000224474 0)
(0 -0.00024458 0)
(0 -0.000222884 0)
(0 -0.000243204 0)
(0 -0.000265656 0)
(0 -0.000264429 0)
(0 -0.000242513 0)
(0 -0.000264173 0)
(0 -0.000242471 0)
(0 -0.000264718 0)
(0 -0.000243245 0)
(0 -0.000266411 0)
(0 -0.000245037 0)
(0 -0.000268386 0)
(0 -0.000247506 0)
(0 -0.000270199 0)
(0 -0.000250539 0)
(0 -0.0002731 0)
(0 -0.000254423 0)
(0 -0.000277293 0)
(0 -0.000259514 0)
(0 -0.00028118 0)
(0 -0.000265031 0)
(0 -0.000287365 0)
(0 -0.000271062 0)
(0 -0.00029798 0)
(0 -0.000275485 0)
(0 -0.000299764 0)
(0 -0.000280669 0)
(0 -0.000305662 0)
(0 -0.00028806 0)
(0 -0.000312784 0)
(0 -0.000296314 0)
(0 -0.000294568 0)
(0 -0.000270885 0)
(0 -0.000280121 0)
(0 -0.000307763 0)
(0 -0.000289318 0)
(0 -0.000265798 0)
(0 -0.000275356 0)
(0 -0.000297985 0)
(0 -0.000285033 0)
(0 -0.000260419 0)
(0 -0.000272603 0)
(0 -0.000296303 0)
(0 -0.00028349 0)
(0 -0.000258102 0)
(0 -0.00027142 0)
(0 -0.000248769 0)
(0 -0.000260447 0)
(0 -0.00023796 0)
(0 -0.000250758 0)
(0 -0.000228722 0)
(0 -0.000242922 0)
(0 -0.000221104 0)
(0 -0.000236147 0)
(0 -0.000214859 0)
(0 -0.000230484 0)
(0 -0.000209818 0)
(0 -0.000225894 0)
(0 -0.000205936 0)
(0 -0.00022262 0)
(0 -0.000242827 0)
(0 -0.000240001 0)
(0 -0.000220517 0)
(0 -0.000238207 0)
(0 -0.000219307 0)
(0 -0.000237488 0)
(0 -0.000219146 0)
(0 -0.000238249 0)
(0 -0.000258939 0)
(0 -0.000283355 0)
(0 -0.000220128 0)
(0 -0.000240072 0)
(0 -0.000222068 0)
(0 -0.00024249 0)
(0 -0.000224905 0)
(0 -0.00024645 0)
(0 -0.000228484 0)
(0 -0.000250771 0)
(0 -0.000232681 0)
(0 -0.000254605 0)
(0 -0.000237489 0)
(0 -0.000259477 0)
(0 -0.000244215 0)
(0 -0.000269171 0)
(0 -0.000252095 0)
(0 -0.000274348 0)
(0 -0.000257636 0)
(0 -0.000282653 0)
(0 -0.000269943 0)
(0 -0.000292133 0)
(0 -0.000296737 0)
(0 -0.000258114 0)
(0 -0.000265447 0)
(0 -0.000276344 0)
(0 -0.000287659 0)
(0 -0.00028572 0)
(0 -0.000316974 0)
(0 -0.000279069 0)
(0 -0.000301804 0)
(0 -0.000253872 0)
(0 -0.000289134 0)
(0 -0.000318104 0)
(0 -0.000200746 0)
(0 -0.000351389 0)
(0 -0.000288842 0)
(0 -0.000311929 0)
(0 -0.000325176 0)
(0 -0.000335222 0)
(0 -0.000348589 0)
(0 -0.000358435 0)
(0 -0.000345487 0)
(0 -0.000368679 0)
(0 -0.000355616 0)
(0 -0.000378769 0)
(0 -0.000365619 0)
(0 -0.000388737 0)
(0 -0.000236259 0)
(0 -0.000208186 0)
(0 -0.000221684 0)
(0 -0.000375751 0)
(0 -0.000398975 0)
(0 -0.000392248 0)
(0 -0.000225257 0)
(0 -0.000200349 0)
(0 -0.000231019 0)
(0 -0.000211248 0)
(0 -0.000203539 0)
(0 -0.000259285 0)
(0 8.46745e-06 0)
(0 -0.000385375 0)
(0 -0.000407954 0)
(0 -0.000261829 0)
(0 -0.000393942 0)
(0 -0.000415799 0)
(0 -0.000229647 0)
(0 -0.000532884 0)
(0 -0.000478679 0)
(0 -0.000394493 0)
(0 -0.000517043 0)
(0 -0.000536221 0)
(0 -0.000401819 0)
(0 -0.000423733 0)
(0 -0.000450888 0)
(0 -0.000417374 0)
(0 -0.000824083 0)
(0 -0.000603356 0)
(0 -0.000603792 0)
(0 -0.000334207 0)
(0 -0.000361877 0)
(0 -0.000405205 0)
(0 -0.000389192 0)
(0 -0.000431089 0)
(0 -0.000415425 0)
(0 -0.0003731 0)
(0 -0.000399936 0)
(0 -0.000440228 0)
(0 -0.000425617 0)
(0 -0.000384861 0)
(0 -0.00041176 0)
(0 -0.000369735 0)
(0 -0.000398073 0)
(0 -0.000436636 0)
(0 -0.000444288 0)
(0 -0.000385061 0)
(0 -0.00038134 0)
(0 -0.000438459 0)
(0 -0.000426907 0)
(0 -0.00038397 0)
(0 -0.000415237 0)
(0 -0.00037276 0)
(0 -1.3855e-05 0)
(0 -0.000621273 0)
(0 -0.00062802 0)
(0 -0.000303656 0)
(0 -0.000368932 0)
(0 -0.000401498 0)
(0 -0.00045027 0)
(0 -0.000431662 0)
(0 -0.000307136 0)
(0 -0.000308649 0)
(0 -0.000432312 0)
(0 -0.000452205 0)
(0 -1.66957e-05 0)
(0 -1.39927e-05 0)
(0 -1.98062e-05 0)
(0 -1.68865e-05 0)
(0 -0.000385162 0)
(0 -0.000416813 0)
(0 -2.32868e-05 0)
(0 -2.02538e-05 0)
(0 -0.000624196 0)
(0 -0.000628977 0)
(0 -0.00048076 0)
(0 -0.000502054 0)
(0 -0.000559528 0)
(0 -0.000520179 0)
(0 -0.000465155 0)
(0 -0.0004853 0)
(0 -0.000534348 0)
(0 -0.000501331 0)
(0 -0.000341622 0)
(0 -0.000459038 0)
(0 -0.000446955 0)
(0 -0.000400338 0)
(0 -0.000433445 0)
(0 7.46983e-06 0)
(0 8.31678e-06 0)
(0 9.0994e-06 0)
(0 9.80642e-06 0)
(0 1.03545e-05 0)
(0 1.09381e-05 0)
(0 1.13256e-05 0)
(0 1.17669e-05 0)
(0 1.20389e-05 0)
(0 1.14384e-05 0)
(0 1.16599e-05 0)
(0 1.22537e-05 0)
(0 1.19386e-05 0)
(0 1.24268e-05 0)
(0 1.21274e-05 0)
(0 -0.000346673 0)
(0 -0.000343319 0)
(0 -0.00037782 0)
(0 -0.00034045 0)
(0 -0.000591015 0)
(0 -0.000591951 0)
(0 -0.000442606 0)
(0 -1.96964e-05 0)
(0 -1.6724e-05 0)
(0 1.25735e-05 0)
(0 1.22921e-05 0)
(0 1.26897e-05 0)
(0 1.24525e-05 0)
(0 -0.00044112 0)
(0 -0.000460356 0)
(0 -0.000456291 0)
(0 -0.000382885 0)
(0 -0.000287916 0)
(0 -0.00054774 0)
(0 -0.000449637 0)
(0 -0.000468209 0)
(0 -0.000478877 0)
(0 -0.000486185 0)
(0 -0.000475215 0)
(0 -0.000492396 0)
(0 -0.000481385 0)
(0 -0.000497774 0)
(0 1.27874e-05 0)
(0 1.25815e-05 0)
(0 1.21598e-05 0)
(0 1.23243e-05 0)
(0 1.26915e-05 0)
(0 1.24613e-05 0)
(0 1.27838e-05 0)
(0 1.25788e-05 0)
(0 1.21695e-05 0)
(0 1.23167e-05 0)
(0 1.26819e-05 0)
(0 1.24497e-05 0)
(0 1.1717e-05 0)
(0 -0.000370953 0)
(0 1.27679e-05 0)
(0 1.25617e-05 0)
(0 1.28377e-05 0)
(0 1.26635e-05 0)
(0 1.21295e-05 0)
(0 1.18586e-05 0)
(0 -0.000374293 0)
(0 -0.000337402 0)
(0 -0.00024718 0)
(0 -2.71311e-05 0)
(0 -2.41155e-05 0)
(0 -0.000516652 0)
(0 1.17979e-05 0)
(0 -0.000623862 0)
(0 -0.000627129 0)
(0 -0.000619244 0)
(0 -0.000632662 0)
(0 -0.000629481 0)
(0 -0.000635038 0)
(0 -0.000630667 0)
(0 -0.000636414 0)
(0 -0.000630952 0)
(0 -0.000636663 0)
(0 -0.000630427 0)
(0 -0.000635954 0)
(0 -0.000628887 0)
(0 -0.000634662 0)
(0 -0.000627004 0)
(0 -0.000633081 0)
(0 -0.000624899 0)
(0 -0.000631504 0)
(0 -0.000623031 0)
(0 -0.00063023 0)
(0 -0.000621929 0)
(0 -0.000629361 0)
(0 -0.000621392 0)
(0 -0.000629076 0)
(0 -0.000621616 0)
(0 -0.000629621 0)
(0 -0.000622424 0)
(0 -0.000636837 0)
(0 -0.000630881 0)
(0 -0.000624005 0)
(0 -0.000640161 0)
(0 -0.000632729 0)
(0 -0.000626038 0)
(0 -0.000635084 0)
(0 -0.000628872 0)
(0 -0.000638011 0)
(0 -0.000632435 0)
(0 -0.000638144 0)
(0 -0.000641665 0)
(0 -0.000636296 0)
(0 -0.000625306 0)
(0 -0.000629879 0)
(0 -0.000640793 0)
(0 -0.000635591 0)
(0 -0.000646333 0)
(0 -0.000642662 0)
(0 -0.000652831 0)
(0 -0.000650639 0)
(0 -0.000659848 0)
(0 -0.000658492 0)
(0 -0.000615612 0)
(0 -0.000667086 0)
(0 -0.000666379 0)
(0 -0.000655689 0)
(0 -0.000664996 0)
(0 -0.000674574 0)
(0 -0.000674856 0)
(0 -0.000683538 0)
(0 -0.000684705 0)
(0 -0.000674069 0)
(0 -0.000684432 0)
(0 -0.00067225 0)
(0 -0.000683511 0)
(0 -0.000694654 0)
(0 -0.000695077 0)
(0 -0.000682455 0)
(0 -0.000695539 0)
(0 -0.000707169 0)
(0 -0.000708887 0)
(0 -0.00069571 0)
(0 -0.000710171 0)
(0 -0.000695385 0)
(0 -0.000711733 0)
(0 -0.000725482 0)
(0 -0.00072933 0)
(0 -0.000713996 0)
(0 -0.000733941 0)
(0 -0.000747516 0)
(0 -0.00075353 0)
(0 -0.000739088 0)
(0 -0.00075945 0)
(0 -0.000744313 0)
(0 -0.000765797 0)
(0 -0.000779625 0)
(0 -0.00078667 0)
(0 -0.000771957 0)
(0 -0.000792925 0)
(0 -0.000777513 0)
(0 -0.000798774 0)
(0 -0.000782355 0)
(0 -0.000813074 0)
(0 -0.000804626 0)
(0 -0.000787264 0)
(0 -0.000811046 0)
(0 -0.000793135 0)
(0 -0.000817943 0)
(0 -0.000799212 0)
(0 -0.000834414 0)
(0 -0.00082449 0)
(0 -0.000804974 0)
(0 -0.000778018 0)
(0 -0.000784137 0)
(0 -0.000814903 0)
(0 -0.000790651 0)
(0 -0.000760502 0)
(0 -0.000761612 0)
(0 -0.000767905 0)
(0 -0.000797023 0)
(0 -0.000774681 0)
(0 -0.000803387 0)
(0 -0.000782545 0)
(0 -0.000629173 0)
(0 -0.000611814 0)
(0 -0.000740836 0)
(0 -0.000616595 0)
(0 -0.000481831 0)
(0 -0.000479083 0)
(0 -0.000306188 0)
(0 -0.00030928 0)
(0 -0.000475657 0)
(0 1.22947e-05 0)
(0 1.24229e-05 0)
(0 1.27566e-05 0)
(0 1.2541e-05 0)
(0 1.28345e-05 0)
(0 1.26452e-05 0)
(0 1.29013e-05 0)
(0 1.2733e-05 0)
(0 1.22795e-05 0)
(0 -0.000260661 0)
(0 -0.00048645 0)
(0 -0.000506569 0)
(0 7.62413e-06 0)
(0 1.25544e-05 0)
(0 -0.000501702 0)
(0 -0.000562536 0)
(0 1.29274e-05 0)
(0 -7.03237e-05 0)
(0 1.27975e-05 0)
(0 -0.000654875 0)
(0 9.67258e-06 0)
(0 -6.57705e-05 0)
(0 -5.2017e-05 0)
(0 1.24268e-05 0)
(0 1.22001e-05 0)
(0 -0.000527046 0)
(0 -0.000517087 0)
(0 -4.49854e-05 0)
(0 -4.73157e-05 0)
(0 -0.000484979 0)
(0 -1.94516e-06 0)
(0 -5.9497e-05 0)
(0 -4.96359e-05 0)
(0 8.63317e-06 0)
(0 -0.000628853 0)
(0 -0.000463195 0)
(0 -6.17071e-05 0)
(0 -0.000577299 0)
(0 -0.000457961 0)
(0 -0.000190042 0)
(0 -0.000507924 0)
(0 -0.000621268 0)
(0 -0.000430156 0)
(0 -0.000760935 0)
(0 -5.15773e-05 0)
(0 -0.000559567 0)
(0 -0.000612397 0)
(0 -0.000755174 0)
(0 -0.000516163 0)
(0 -0.000202948 0)
(0 -0.000722402 0)
(0 -0.000500612 0)
(0 -0.00048127 0)
(0 -0.000473447 0)
(0 -0.000454223 0)
(0 -0.000445908 0)
(0 -0.000426853 0)
(0 -0.000436236 0)
(0 -0.000583534 0)
(0 -0.000589359 0)
(0 -0.000607845 0)
(0 -0.000613099 0)
(0 -0.000679879 0)
(0 -0.00066059 0)
(0 -2.30433e-05 0)
(0 -1.99689e-05 0)
(0 -0.000519161 0)
(0 -8.0968e-07 0)
(0 -0.000105577 0)
(0 -0.000112452 0)
(0 -0.000121108 0)
(0 -0.000128316 0)
(0 -0.000137947 0)
(0 -0.00014573 0)
(0 -0.000155867 0)
(0 -0.000148224 0)
(0 -0.000166743 0)
(0 -0.000159243 0)
(0 -0.000164217 0)
(0 -0.000154299 0)
(0 -6.39844e-05 0)
(0 -0.000215839 0)
(0 -0.000431493 0)
(0 -0.000622156 0)
(0 -0.000575743 0)
(0 -0.000542148 0)
(0 -0.000100133 0)
(0 -0.000719581 0)
(0 -0.000617539 0)
(0 -0.000575337 0)
(0 -0.000656661 0)
(0 -0.000225929 0)
(0 -0.000692391 0)
(0 -0.000645495 0)
(0 -0.000817258 0)
(0 -0.000833122 0)
(0 -0.000823397 0)
(0 -0.000838114 0)
(0 -0.000613292 0)
(0 -9.03831e-05 0)
(0 -0.00063193 0)
(0 -0.000765924 0)
(0 -0.000103364 0)
(0 -0.000799546 0)
(0 -0.000618504 0)
(0 -0.000250266 0)
(0 -0.000271151 0)
(0 -0.000258131 0)
(0 -0.000616962 0)
(0 1.29584e-05 0)
(0 1.28089e-05 0)
(0 1.25056e-05 0)
(0 1.26041e-05 0)
(0 1.28803e-05 0)
(0 1.26914e-05 0)
(0 1.1819e-05 0)
(0 1.2363e-05 0)
(0 -3.13863e-05 0)
(0 -2.82383e-05 0)
(0 -2.12783e-05 0)
(0 -2.53278e-05 0)
(0 -1.86852e-05 0)
(0 -2.26813e-05 0)
(0 -1.62351e-05 0)
(0 -2.02445e-05 0)
(0 -1.35771e-05 0)
(0 -1.82245e-05 0)
(0 -2.46998e-05 0)
(0 -2.26792e-05 0)
(0 -1.66068e-05 0)
(0 -2.07606e-05 0)
(0 -1.51703e-05 0)
(0 -1.88955e-05 0)
(0 -1.39105e-05 0)
(0 -1.75983e-05 0)
(0 -1.27819e-05 0)
(0 -1.68887e-05 0)
(0 -1.20878e-05 0)
(0 -1.61586e-05 0)
(0 -1.15243e-05 0)
(0 -1.56106e-05 0)
(0 -1.10734e-05 0)
(0 -1.55453e-05 0)
(0 -1.10766e-05 0)
(0 -2.47057e-05 0)
(0 -1.57614e-05 0)
(0 -1.14277e-05 0)
(0 -1.63756e-05 0)
(0 -1.20473e-05 0)
(0 -0.00058224 0)
(0 -0.000370973 0)
(0 -0.000334219 0)
(0 -0.000299286 0)
(0 -0.000296417 0)
(0 -0.000330806 0)
(0 -0.000293339 0)
(0 -0.000326739 0)
(0 -0.000289107 0)
(0 -0.000321208 0)
(0 -0.000282642 0)
(0 -0.000407048 0)
(0 -0.000643422 0)
(0 -0.000592842 0)
(0 -0.000463071 0)
(0 -0.000477154 0)
(0 -0.000496778 0)
(0 -0.000509785 0)
(0 -0.000526231 0)
(0 -0.000514761 0)
(0 -0.000511794 0)
(0 -0.000420707 0)
(0 -0.000361904 0)
(0 -0.000327163 0)
(0 -0.000173209 0)
(0 -0.000465389 0)
(0 -0.000308139 0)
(0 -9.81985e-05 0)
(0 -8.44891e-06 0)
(0 -1.25056e-05 0)
(0 -1.33875e-05 0)
(0 -1.78931e-05 0)
(0 -1.89956e-05 0)
(0 -2.39979e-05 0)
(0 -2.26194e-05 0)
(0 -2.53703e-05 0)
(0 -2.95829e-05 0)
(0 -2.02974e-05 0)
(0 -3.5782e-05 0)
(0 -4.25521e-05 0)
(0 -2.69788e-05 0)
(0 -2.21143e-05 0)
(0 -5.14778e-05 0)
(0 -0.000643065 0)
(0 -0.000449306 0)
(0 -0.000468516 0)
(0 -0.000461792 0)
(0 -2.95395e-05 0)
(0 -0.0006007 0)
(0 -0.000706897 0)
(0 -0.000551769 0)
(0 -7.88796e-08 0)
(0 -0.000750805 0)
(0 -0.000766299 0)
(0 -0.000632254 0)
(0 -0.000337415 0)
(0 -0.000319444 0)
(0 -0.000287117 0)
(0 -0.000321204 0)
(0 -0.000333228 0)
(0 -0.000345734 0)
(0 -0.000358 0)
(0 -0.00034154 0)
(0 1.19489e-05 0)
(0 -0.000824876 0)
(0 -0.000681585 0)
(0 -1.17028e-06 0)
(0 -0.000758754 0)
(0 -0.00010795 0)
(0 -0.00011846 0)
(0 -0.000123343 0)
(0 -0.000134704 0)
(0 -0.000139902 0)
(0 -0.000129909 0)
(0 -0.000147006 0)
(0 -0.000142324 0)
(0 -0.000173508 0)
(0 -0.000163794 0)
(0 -0.000716531 0)
(0 -0.000727933 0)
(0 -0.000723662 0)
(0 -0.000345446 0)
(0 -0.000370652 0)
(0 -0.000358379 0)
(0 -0.000383509 0)
(0 -0.000371866 0)
(0 -0.000396724 0)
(0 -0.000385908 0)
(0 -0.000381898 0)
(0 -0.000360601 0)
(0 -0.000375476 0)
(0 -0.000640735 0)
(0 1.18183e-05 0)
(0 -0.000313705 0)
(0 -0.000274439 0)
(0 -0.000304111 0)
(0 -0.000264156 0)
(0 -3.24158e-05 0)
(0 -0.000635576 0)
(0 -0.000592527 0)
(0 -0.000274668 0)
(0 -0.000457504 0)
(0 -0.000418206 0)
(0 -0.000350343 0)
(0 -0.000365872 0)
(0 -0.000341391 0)
(0 -0.000357739 0)
(0 -0.000334214 0)
(0 -0.000353775 0)
(0 -0.000380352 0)
(0 -2.94913e-05 0)
(0 -3.85124e-05 0)
(0 -3.46968e-05 0)
(0 -4.46336e-05 0)
(0 -4.05969e-05 0)
(0 -3.11018e-05 0)
(0 -3.72173e-05 0)
(0 -2.80928e-05 0)
(0 -3.45227e-05 0)
(0 -2.56869e-05 0)
(0 -3.21281e-05 0)
(0 -2.40782e-05 0)
(0 -2.99807e-05 0)
(0 -2.26355e-05 0)
(0 1.29827e-05 0)
(0 -8.63816e-05 0)
(0 -0.000666584 0)
(0 -0.000370998 0)
(0 -0.000362282 0)
(0 -0.00038503 0)
(0 -0.000376883 0)
(0 -0.000400555 0)
(0 -0.000392268 0)
(0 -0.000592636 0)
(0 -0.000300188 0)
(0 -0.000330564 0)
(0 -0.000496364 0)
(0 -3.78522e-07 0)
(0 -0.000169487 0)
(0 -7.43248e-05 0)
(0 1.09874e-05 0)
(0 -0.000240944 0)
(0 -0.000256888 0)
(0 -1.74365e-05 0)
(0 -1.31181e-05 0)
(0 -0.000122723 0)
(0 1.2278e-05 0)
(0 1.12952e-05 0)
(0 -8.38591e-05 0)
(0 -7.43488e-05 0)
(0 -0.000523491 0)
(0 -8.98993e-05 0)
(0 1.29379e-05 0)
(0 1.27635e-05 0)
(0 -0.000390672 0)
(0 -0.000409172 0)
(0 -2.20344e-05 0)
(0 -7.94039e-05 0)
(0 -0.000253879 0)
(0 -2.00154e-05 0)
(0 1.16219e-05 0)
(0 4.52744e-06 0)
(0 -0.000266554 0)
(0 2.19937e-06 0)
(0 -0.000610524 0)
(0 -0.000607058 0)
(0 -0.000637274 0)
(0 -0.000508372 0)
(0 -0.000849373 0)
(0 -0.00085296 0)
(0 -0.000578567 0)
(0 -0.000591852 0)
(0 -0.000578965 0)
(0 -0.000590682 0)
(0 -0.000632206 0)
(0 -0.000416041 0)
(0 -0.000407902 0)
(0 -0.000384124 0)
(0 -0.000400088 0)
(0 -0.000376534 0)
(0 -0.000393246 0)
(0 -0.000369711 0)
(0 -0.000387139 0)
(0 -0.00036356 0)
(0 -0.000381759 0)
(0 -0.000358386 0)
(0 -0.000377424 0)
(0 -0.000354169 0)
(0 -0.0003742 0)
(0 -0.000350842 0)
(0 -0.000371672 0)
(0 -0.000348234 0)
(0 -0.000369504 0)
(0 -0.000346407 0)
(0 -0.000368812 0)
(0 -0.000570928 0)
(0 1.15373e-05 0)
(0 1.19017e-05 0)
(0 1.29399e-05 0)
(0 -2.89757e-05 0)
(0 -2.43614e-05 0)
(0 1.22068e-05 0)
(0 -0.00041837 0)
(0 -0.000178598 0)
(0 -0.000171274 0)
(0 -0.000292285 0)
(0 -0.000252191 0)
(0 -0.000265782 0)