/*--------------------------------*- C++ -*----------------------------------*\
| =========                 |                                                 |
| \\      /  F ield         | OpenFOAM: The Open Source CFD Toolbox           |
|  \\    /   O peration     | Version:  v2012                                 |
|   \\  /    A nd           | Website:  www.openfoam.com                      |
|    \\/     M anipulation  |                                                 |
\*---------------------------------------------------------------------------*/
FoamFile
{
    version     2.0;
    format      ascii;
    class       surfaceScalarField;
    location    "850";
    object      meshPhi;
}
// * * * * * * * * * * * * * * * * * * * * * * * * * * * * * * * * * * * * * //

dimensions      [0 3 -1 0 0 0 0];
oriented        oriented;


internalField   nonuniform List<scalar> 
14516
(
-0.00107494
-0.00322904
0.00428596
-1.73367e-06
-6.66611e-05
6.72386e-05
0.00360627
-0.00470105
0.00128052
-0.00175064
0.00029315
0.00650745
-0.0045502
-0.00196772
-0.00528645
0.000659156
0.00457361
0.000372204
-3.31791e-05
-0.000498841
-0.00313723
0.0027588
0.000276689
0.00467548
0.000464503
-0.00519284
0.00269558
0.00379981
0.00380163
-0.00475915
0.000945518
0.00458923
-0.00034152
-0.0042621
0.00127946
-0.000212877
-5.6959e-05
-0.000877428
0.000916525
-8.32001e-05
-5.80403e-05
-0.00085343
-1.83989e-05
0.000851867
-0.00308995
0.00104412
0.00200575
-0.00107516
-0.00205919
0.00554689
-0.000556784
-0.00500321
-0.000928837
-0.000421064
-0.00479874
0.00520278
0.00052573
-0.00439532
0.00384766
0.002166
-0.000734728
-0.0014409
-2.45597e-05
2.45597e-05
0.00457099
-0.000620492
-0.00400961
0.000813201
0.000247029
0.000796202
6.84562e-06
-0.000822602
-6.83374e-05
-0.00217299
0.00219758
-0.005435
0.00181703
0.00360113
0.00499216
-0.000372162
0.00455372
-0.00544621
0.000863431
0.000421964
0.00172519
0.00332293
-0.000701647
-0.00263292
-7.47738e-05
-7.16478e-05
9.61662e-05
0.00200503
-0.00616449
0.00414417
0.00553188
-0.00061684
-0.00493149
5.16654e-06
0.0002418
-0.00395625
0.00445919
0.00362837
-0.00278539
-0.00093376
-6.28016e-05
0.000317051
-0.000319011
0.00582129
-0.00130236
-0.000280558
5.81764e-05
0.000494302
-0.000853769
0.000156506
-4.25267e-05
0.000364832
-0.000468779
0.000494422
-0.000251763
-0.000216532
-0.00344207
0.000130252
-0.00139815
0.00125791
-0.00068027
-0.00449191
0.0051593
-0.000473602
-0.00143276
-0.00283378
-0.00334591
7.30213e-05
-0.00385112
0.00376783
0.00532829
-0.0012795
-0.00408737
-0.00552088
0.00567404
-0.000219422
0.000555695
-0.00349099
0.00292764
0.00524539
-0.00542231
0.000160439
-0.00367441
0.00386014
-0.00447116
0.0011444
0.00331969
0.00457906
0.000162265
-0.00475436
0.00240074
0.00116574
5.6962e-06
0.000164004
-0.000234116
0.00506007
-0.000807526
-0.00428973
0.00429043
-0.0049034
0.00060123
0.000509566
-0.00126932
0.000452449
0.00360872
0.00192132
-0.000406992
-0.00301414
0.00340727
0.00535384
-0.00107985
-0.00464441
0.00516317
-0.000533033
0.000616919
0.00395594
-0.000303423
0.00409306
-0.00348565
0.00403277
6.84594e-06
0
-7.90109e-06
0.0045731
-0.000838736
-0.00381888
-0.000126585
0.000108836
1.71544e-05
0.00129626
-0.00414526
-9.91011e-05
0.00466429
-0.000517804
-0.00388542
0.00429667
6.06262e-05
-3.54734e-09
-6.08867e-05
-0.00278164
0.000676872
0.00207404
-0.00333686
0.00103393
0.00225391
-0.00280223
0.00238282
-0.00313989
0.000723556
0.00237373
7.36868e-05
6.4492e-07
-7.44296e-05
-1.71639e-05
-0.0014023
0.00140386
0.00534656
0.000438909
0.000101864
-0.00136389
0.00124988
-0.00235018
-0.0010288
9.49909e-06
-0.004164
0.00405849
-0.00456384
0.00472033
-0.000207903
0.00340981
-0.000779248
-0.00267681
-9.77032e-05
9.49408e-05
-0.000482498
-0.00412261
0.00459838
0.00135019
-0.0010998
-0.000280095
0.00216682
-0.00176254
0.000456976
-0.0014574
0.00142466
0.0053463
-0.000114816
6.80649e-05
4.45272e-06
0.000383652
0.000935012
0.000205682
-0.000912238
0.000677374
-0.000775627
0.000949076
0.00339781
-0.000618462
-0.00282926
0.00150415
-0.000320999
-0.00122846
0.00113902
0.000317717
5.4442e-05
3.06132e-06
0.00570361
-0.000390259
0.00543323
-0.000753968
0.000223667
-3.80085e-06
-0.000301464
0.00440984
0.000868637
-0.00023704
-0.00108586
0.00131657
2.84231e-08
4.50573e-06
0.000192844
0.00488608
-0.00509181
0.00483069
-0.00403636
-0.00125842
0.00623481
-0.00499495
0.00370533
-0.00364224
-0.00429604
0.000470271
-0.00292068
0.0024388
-0.00278044
0.00406125
-0.000553717
-0.0026283
0.00179536
0.00034868
0.000937623
-0.00117995
-3.31929e-06
6.86791e-07
8.62588e-07
0.0040244
-0.00427972
0.000134517
-0.000183181
-0.00514763
-0.000226972
-0.00421432
0.0044018
-0.0051783
0.00474025
-0.00408238
0.000969826
0.00310037
0.00137244
-0.00128247
-0.000448331
-0.00236574
-0.00478821
0.00117873
0.0035011
1.71684e-06
7.9264e-06
-1.49767e-05
-0.00396669
-0.00238036
-0.00248604
-0.0003461
-0.00305703
0.00335857
0.0038914
0.0010388
0.0001757
-0.00431016
0.00404257
0.000588834
-0.000373285
0.000314717
-0.000499617
0.000488928
0.00414841
0.000172023
-0.000191119
-2.71704e-06
2.38424e-05
0.00388944
0.00464863
-0.000456943
-0.00425201
4.07482e-05
-0.000885337
0.000678506
-0.000195652
0.000868859
-0.000695766
-0.000931765
3.64325e-05
6.97887e-05
0.000908131
-0.000996003
1.20869e-06
1.96631e-05
-2.30037e-05
0.000834238
-0.00105614
0.00161095
-0.000464007
-0.00118686
0.00365152
-0.00414003
0.00395287
0.000906558
-0.00486807
-1.77996e-05
1.38107e-05
0.00511129
-0.00116854
-0.00198575
0.00466924
0.000427837
0.00114062
-2.79337e-06
-1.93209e-06
-7.55007e-06
6.83096e-05
-8.20964e-05
0.000629086
0.00396182
-0.000222422
0.00102333
-0.000728156
0.000627966
-0.00232222
-0.000896131
0.00185972
-0.00196727
5.52583e-05
0.000724478
-0.00079766
-0.00105768
0.00644459
-0.00540093
-9.6037e-05
3.04616e-05
6.52188e-05
-0.00573817
0.0009149
-0.00124306
-0.00510333
0.00467104
0.000409918
0.000833679
-5.57062e-05
0.000529709
-0.00332746
0.00274579
-0.00600299
0.0017182
0.0042004
0.00203716
-0.0040387
0.0019974
-6.9394e-05
-3.01328e-05
-0.00158959
0.00361775
-0.000470357
-0.00376488
0.00419492
0.00447764
-0.00407821
-5.16589e-05
4.0868e-05
7.58865e-06
0.00078255
-0.00376007
0.00289277
0.00568257
-0.00260362
-0.00309301
0.00410418
-0.00309148
-0.0010162
-0.00491311
0.00454819
0.000337987
-0.00102961
0.00405645
0.00451916
9.59808e-05
-0.00462789
0.00446807
2.81222e-06
-0.00098247
-0.00349631
-0.00276536
0.00346615
-9.71229e-05
0.00409214
-0.00411229
-0.000747393
0.000785254
-0.00441386
0.00390096
0.00252332
-3.84049e-05
-0.00264196
0.00453249
-0.00522577
-0.00483446
0.00501457
0.000699331
0.00138554
0.00428116
-0.00657743
0.0016504
0.00491156
-0.000296298
-0.00266467
0.00291096
-0.00513822
0.00314067
1.22791e-05
0.00014156
0.00457633
-0.000736585
-0.00199053
-0.00368085
0.00565821
-9.18469e-06
-0.00543056
-0.00407375
0.0030814
0.00089123
-0.000300741
-0.00409387
5.21521e-05
9.68705e-07
-0.000222575
3.0539e-05
0.000800918
-0.000852036
0.00512888
0.000546139
-0.00449087
-0.000106848
0.00457488
0.000241632
0.00374823
-0.0040071
-0.000326834
0.00484518
0.000510711
-0.00501888
-0.00411827
-0.00144627
-0.00294305
-0.00364626
5.87476e-05
-8.81557e-05
-0.000418283
-0.00282705
0.00319985
-0.000264471
0.00477264
5.38036e-05
-3.40338e-06
0.00497439
-0.0047199
-0.000268861
-0.000275429
0.00431646
-0.00406334
-0.00169075
-0.00331663
0.00490017
-0.00402764
8.82379e-06
0.00230026
-5.54444e-05
-0.00136026
0.00444389
-0.00477837
0.00538208
-0.00148116
0.0010717
0.000369329
0.00356306
-0.00385823
0.00040025
-0.00384816
0.00343865
-1.22842e-05
-1.41653e-05
8.7619e-06
1.46741e-05
-0.00127711
-0.00366119
7.03485e-05
-0.000149977
5.97397e-05
-0.00428598
0.000828887
0.00344736
0.00453948
0.00042304
-0.00390586
0.00370522
3.93461e-05
0.00430219
-0.00428837
-0.000103116
0.000165541
0.00516638
0.000751427
0.00254313
-0.00334746
0.00551213
-0.000409513
5.42419e-05
-0.000917753
0.000844506
2.56305e-05
0.0038461
-0.00396252
0.00305291
0.000259938
-0.00404614
-8.26121e-06
0.0039646
-0.00147075
0.000970664
6.33528e-06
0.00266168
0.00468804
-0.00412062
-0.00112214
-0.000177831
6.18601e-05
0.00056589
0.00350579
-0.00410996
-0.00505003
0.000587728
0.00444122
-0.000323937
0.00401871
0.000638617
-0.00398699
0.0033384
-0.00356521
0.00383105
-0.000362294
-0.0002068
0.00460091
-0.00442027
-0.00548321
0.00452748
0.000870512
-0.00139422
-0.00367384
-0.000340959
-0.00456292
0.00485281
-0.000147528
-0.000806395
0.000931415
0.000957919
0.000311006
-0.00127026
0.000174574
-0.00386026
0.00352631
7.39811e-05
-9.73976e-05
-5.06348e-06
-0.0011488
-0.00397627
3.32256e-05
-3.78635e-05
4.06277e-06
-4.78502e-06
3.76369e-05
-0.00351538
0.00374072
0.00187151
-0.00556466
-0.0045021
-0.000966498
0.00540241
-0.000783937
0.00061831
-7.96958e-05
-0.00061195
0.000667422
-0.0058267
0.00159462
0.00420753
-0.000588845
-0.00381546
0.00430869
6.42712e-05
4.3206e-05
-0.000107685
-2.68856e-05
9.09856e-05
-0.00297845
0.000222268
-0.00506934
-7.54966e-05
0.00112048
-0.00129178
-0.00345417
0.000357892
0.00426632
-1.59869e-05
5.03864e-05
-3.52046e-05
-0.00016567
0.000189078
-0.000115181
-0.000358158
0.000233226
0.00206905
-0.00384332
-0.0037716
0.004296
-0.00608221
0.00256643
0.00349527
3.08964e-05
0.000627623
-0.000817694
0.00397173
-0.00435662
-0.00357713
-0.00209259
0.00255394
0.000687192
-0.00523799
0.00448736
0.000242042
-2.26455e-05
1.61057e-05
-1.44622e-06
0.00291009
-0.00330058
0.000308924
-0.00469168
0.00434733
-0.00285406
-0.00324657
0.0014648
-0.00174113
5.88997e-05
-0.0036712
-0.00184681
0.00550548
-0.00109077
-0.00159969
-0.00196868
0.00357094
0.00261993
0.000190842
-0.0028075
0.000182065
-3.35205e-05
0.000273999
-1.26177e-05
-0.000372348
0.000276577
0.000555769
-0.000850564
-0.00189063
-0.00395833
-0.00265892
-0.00149416
0.00413439
-0.00379879
0.0036911
5.50242e-05
0.00129442
-0.00289363
-1.72358e-05
0.000658535
-0.000914059
-0.000565061
0.000823076
0.00133034
-0.0040082
0.00468511
-0.000226262
-0.00450163
-0.00521841
0.00416405
0.00100678
0.00285216
0.000504295
0.00130357
0.00413179
-0.00383516
-0.000364124
-0.00528382
0.00449168
0.000767446
-0.00499329
0.000480619
0.00363283
-0.0034373
-0.000270742
-9.64245e-05
-0.006823
0.00306912
0.00374235
-2.96998e-06
0.000110323
3.04448e-05
2.15181e-05
0.00159843
0.00250215
0.000470539
-0.00482994
0.00432711
-0.00455289
0.00470249
0.000921516
-0.00371923
-0.00064919
0.000723831
-9.35013e-05
0.00413616
-0.00360935
0.00446383
0.00300996
0.000337074
0.00504618
0.000437574
0.000639656
0.00230445
-0.00295237
-0.00281446
0.00232926
0.000402571
0.000530596
-0.000542817
0.00314886
0.0013605
-7.54348e-05
-9.73224e-05
0.000132976
-0.00247376
0.000255611
-0.00588312
0.00359705
0.00226909
0.00116771
-0.00401176
0.00333912
0.000217555
0.00215086
-0.00255452
0.00325514
-0.00079764
0.000760414
-8.66355e-06
0.00428084
-0.00495856
0.000649787
-0.00290481
-0.00424572
-0.00451048
0.000148645
0.00432156
0.00343016
-0.00440479
0.000905779
0.00474626
-0.00475257
-4.51313e-05
-0.00322118
-0.00440963
0.000913324
0.00349213
0.00125775
0.0043503
-0.00493996
0.00518851
-0.000274208
-4.41784e-05
-0.00507499
0.00219203
0.00286771
0.000424002
-0.00391863
-0.00413771
0.00314873
-0.0023742
-0.00271602
0.00505191
-0.000806411
-0.00258545
0.00346048
-0.000921368
0.00202355
-0.00497756
0.00013592
-0.000182823
-0.000393767
0.00134911
0.00327363
-0.000470858
9.73542e-05
-4.58904e-05
-0.000201924
0.00282433
0.00537041
-0.000355286
-0.00318906
-0.00364463
0.00409989
-0.000737458
-0.00107848
-0.00321695
0.003554
-0.00418383
0.000206007
-0.00435972
0.00411304
-0.00373215
-0.000241146
0.00387921
-0.00280359
-0.00449272
0.000595049
0.00388084
6.42164e-05
0.00396604
-0.00419626
-0.0055078
0.00101578
0.00443672
0.000243552
0.00442365
-0.000201367
0.0014515
0.000542681
-0.00494059
0.00436948
-4.1995e-05
-3.37971e-05
4.65689e-05
0.00024477
1.8344e-05
-0.000809544
-0.00431497
-0.000546331
0.00448804
-0.00185426
-0.00256235
0.00268565
-0.00434581
0.00162774
0.000267733
0.00374195
5.01516e-05
0.00143999
-0.00149929
0.00508116
0.00372419
-0.00333274
-5.99628e-05
5.56472e-05
5.09246e-06
1.39455e-05
0.000265157
-0.000342436
0.00400643
-0.000911576
-0.00421566
0.00441262
-0.00020459
-0.00137722
0.00141842
0.000904195
-0.000868421
-0.000582298
0.00423617
-0.00368756
-0.00272302
-0.00220933
0.00492481
0.000570356
-0.00067434
-0.00555208
0.00427713
-0.00434883
-2.53418e-05
-0.00452618
-6.04379e-05
0.000606802
0.00386946
0.000200918
-0.00409057
-0.00216247
0.00326516
-0.00119724
-0.00330819
-0.00496907
-0.000795063
-0.00157085
0.000826718
0.000316385
0.00368992
-0.00404687
-0.00423565
-0.00393054
0.00420519
0.000566179
0.0026541
0.000884475
-0.000920141
0.00097273
-0.00455467
0.00527646
-0.000736271
0.000896893
-0.00118938
-0.00171505
-0.00354966
-0.00322197
-0.00526262
0.00476691
0.000441593
-0.00483012
0.00443883
-0.00425211
0.000769745
-6.37588e-05
0.00112112
-0.0037388
0.000493993
-0.00107907
0.000416881
-0.00577678
0.00400719
-0.000476966
-4.19306e-05
0.000499663
-0.000947374
0.0019458
-0.00100796
-4.09757e-05
0.00090005
-0.00185565
-0.00265325
0.00313489
0.000269169
-0.00469114
0.00440636
3.31159e-05
0.000334094
-0.000371422
-0.000194154
0.000219385
-0.000150292
-0.00138958
0.0040435
-0.00457223
0.00445932
0.00259953
-0.00294679
0.00417293
-0.0037587
6.75926e-05
-0.0035174
-0.00254194
-0.00431467
-0.00624557
0.0035146
-0.00383744
-0.0016306
0.00433505
-0.000451555
-0.0038901
-0.00475528
0.00441421
-0.0061035
0.00401844
-0.00217417
-0.00200036
0.00300091
-0.00523813
0.00221541
-0.00331719
0.00442195
-0.000155824
0.00400419
1.81177e-07
-0.00218166
0.00253836
-0.000363969
0.000605179
-0.000869755
0.00401859
-0.00366331
-0.00040075
-0.0042753
0.00318748
-0.00463446
0.000237587
0.00226511
-0.00308532
0.00401333
-0.00422797
-0.00166783
0.00129598
0.000142336
-4.03486e-05
1.18898e-05
0.00511819
-0.00514926
-0.0048366
0.00362592
-0.00470746
0.00443206
-0.00127
-0.000444097
-0.00581085
0.00389606
-7.35047e-07
3.96165e-05
-0.000200115
7.81226e-05
-5.45442e-06
3.20124e-05
-3.97953e-05
0.00295008
0.00527862
-0.00229732
-0.00311545
0.000369958
0.0036022
5.51338e-05
0.000517128
-0.000594215
-0.00104576
-0.000479171
0.000497562
-0.00471104
0.00417118
0.00142492
-0.000492421
-0.000723395
0.000606619
0.0017183
0.00212932
-0.00264929
0.00284345
0.00483943
0.000489608
-0.00410349
-0.00403787
-0.000877749
-0.00450159
3.3519e-05
-0.000102258
-1.16612e-05
5.86681e-05
-0.00430174
-0.000662842
-0.00437635
-0.00288095
-0.00294412
0.000461981
-0.0003577
-0.000340486
0.000704527
-0.000794883
-0.000147193
-0.00305935
0.000342423
-0.00383389
-0.00391965
0.000264916
1.96631e-05
-0.000322445
-0.00354895
7.40429e-05
-1.80723e-05
-7.43362e-05
-0.00448864
0.00596422
-0.00313463
-0.00284675
-0.000298047
0.00110395
-0.000833985
-0.00489202
0.00551234
-0.00242517
0.00306712
0.00511246
-0.000239208
-0.00349481
8.49711e-06
0.00448612
-0.0045036
0.000102328
0.00381338
-0.00387579
-0.00345342
-0.00040447
0.00389971
7.67961e-05
-0.00459888
0.0038177
0.00076659
-0.0027423
0.00254262
-0.00371021
0.000798308
-0.00112528
0.00385258
0.00518755
-0.000392842
0.00159542
0.000338032
-0.00199015
0.00399053
0.00011727
-0.00416442
-0.00339942
0.00313874
0.00382651
-0.0015833
-0.00230727
0.00185312
-0.000315367
0.00193974
-0.000616212
-0.00151137
0.000809072
0.00293368
2.66818e-05
-0.00316715
0.00246035
0.00348477
-0.000885618
0.00393436
-4.97615e-07
0.0039265
-0.00373019
-0.000262446
-0.00459216
0.00473711
-0.000201674
-1.5742e-06
-2.728e-05
0.00105305
0.000683287
-0.00488064
-0.00042091
0.00528292
-0.00349341
-0.000651733
5.87384e-05
-0.00069576
0.003377
-0.00350013
9.14264e-05
0.000210052
-0.00443266
0.00464729
-0.00457175
-0.000137336
-0.000178262
-0.00114244
0.00130672
0.000827803
-0.00579548
-2.61934e-05
-0.00246351
-0.00447067
-0.00399156
-0.00385832
0.00351592
4.16519e-05
-5.82283e-05
0.00620591
-0.00213102
0.00467742
-0.00436455
-0.000336925
0.00469771
0.000636085
-0.000164757
-0.00124491
0.00225731
0.000147332
-1.3662e-05
-0.000134495
-0.0036448
0.00102539
0.000546979
-0.00460158
0.000247341
-0.00305382
0.000688594
0.00400121
-0.00469553
-0.00195084
-0.00265893
0.00440682
-0.00440723
-0.00421626
0.00403821
-0.000214689
4.72203e-05
-0.00390614
0.00349764
0.000395933
0.00362923
-0.00028272
-0.0013231
6.53129e-05
0.00125712
-0.00472024
0.00420652
0.000458391
0.00431219
0.000350278
-0.00467655
5.70935e-05
-0.000461285
0.00039019
-0.00112968
0.00133118
-0.000209801
9.15473e-05
-0.000333293
-0.000370091
0.0004132
-0.00386412
0.000694711
0.00316531
-4.7287e-05
0.000470088
-0.000438426
0.000104798
-0.000128916
-3.26441e-06
-0.00409892
0.00399455
8.04281e-05
-0.00285724
-0.00208125
0.00491644
-0.00346298
-0.0035152
0.00261241
-0.00384983
5.60372e-05
0.00368117
0.00430146
0.000287311
0.00447258
-0.000230934
0.00423002
-0.00479829
0.00196759
-0.00115438
-0.000937971
-0.00255558
0.000367863
0.00586982
-0.00360131
-0.00227501
0.00135248
0.000187366
-0.000260156
-0.00330842
-0.00252042
0.00366291
-0.00427948
0.00392484
-0.00439226
-0.000637808
0.00498072
-0.00412422
0.00429045
0.00228011
-0.00443096
-0.00533474
0.00392758
-0.0046262
0.00174803
-0.00148702
0.00155679
-0.000142486
-0.00301947
0.0045675
0.000445314
-0.00538306
0.00396814
0.00452906
0.000110242
-0.00297284
-0.0019988
0.00454306
-0.000626027
-0.00392248
-0.000402693
0.00389728
-0.00355658
-0.00524652
0.00067867
0.0037732
-0.00449161
0.000701441
0.000281185
-0.000437579
3.04245e-05
-0.00399186
-1.1951e-05
-0.00217916
0.00212412
-0.0030079
-0.000278979
0.00323812
0.000387872
-0.00344863
0.00371903
-0.000892211
-0.000636234
0.00150512
-1.20221e-05
1.20221e-05
0.000334103
-0.00169891
0.000782625
-0.000406914
-0.00183307
0.00206022
0.00479219
5.33324e-05
-0.00487473
0.00021001
-3.25956e-05
-0.000194466
-0.0040662
0.00367272
-0.00011151
0.000110998
-5.52385e-05
-0.00430104
-0.000191224
0.0049517
-0.00251123
-0.00284206
-0.00065316
-0.00326577
0.000195178
-1.62419e-05
0.00328745
0.000434311
-0.00380794
-0.00384737
0.00376964
-0.00185044
0.00157898
0.00020273
-0.000401317
-4.76339e-05
0.000437495
2.82707e-07
5.78715e-05
4.7941e-05
-0.000461861
0.00350549
-0.000238683
0.00270004
-0.00315097
0.000408477
-0.000471716
-0.00363349
0.00388044
-0.000264337
-0.000288735
0.000245777
-0.00027371
-0.000111545
-0.00393721
0.00370508
0.000153481
-0.000383166
0.00467872
-0.0027337
0.000659364
0.00194392
-0.000595059
0.000511421
0.00426848
-0.00333238
9.18217e-05
-5.17948e-05
0.0049656
-0.00408599
-0.000925666
-0.00104602
-0.00282176
0.0029132
-0.00357912
0.000424547
-0.000327871
-0.000299818
-4.70277e-05
2.85086e-05
-0.0018318
0.00297167
0.00209504
-0.00217134
-0.000981918
-0.00330287
0.0042919
0.000228862
0.00244502
-0.00250248
-0.000678289
0.00316347
0.00413915
0.000776273
0.00278952
0.000952163
-0.00382025
-0.0022617
0.00254042
-0.0002887
0.000444092
-0.00181397
0.00134453
-0.000555298
5.55785e-05
-5.98651e-05
-5.41616e-07
-0.00435484
0.00430196
-0.00409266
-0.000216318
-5.58155e-05
-0.00021917
-0.00318684
-0.00123022
0.00373195
-0.00500153
0.00178039
-0.00238185
-0.000205939
0.00334529
-0.00315377
0.00130282
-0.000105029
-0.00121468
-0.00398657
0.00365276
0.00359216
-0.000394835
-0.00575764
0.00250573
0.0032286
0.00489952
-0.00037363
0.00332598
0.00109698
-0.000244007
0.00135548
-6.91157e-05
-0.00342238
0.00353297
-0.00012411
0.000275086
0.00315268
0.000573553
0.00327684
0.00299149
-0.00326218
0.000266397
-0.00391009
0.00357549
0.00111433
-0.00130654
-0.00102741
0.00145083
-0.00249289
-0.00018568
0.00267447
-0.00013631
0.00123608
0.00255399
-0.00278999
0.000223138
8.39421e-05
-0.00105572
0.000966282
-0.000831025
-0.0017278
0.00252377
0.00410021
-0.00436339
0.000243147
0.00182847
-0.00379852
-0.00251705
-0.000369214
-0.000300916
-0.00212618
0.00225176
-0.000115941
0.000148505
-0.000104962
0.000529974
-0.00247148
0.00191243
3.89125e-05
0.000414229
-0.000330437
-0.00048128
0.000420858
-0.0024389
0.0002732
0.00216079
0.00413236
-1.45898e-05
0.00152243
-0.000162538
-0.00137118
4.15603e-05
-0.0046904
-2.85368e-05
0.0043583
0.000131744
-0.00335259
0.0032127
-9.12594e-05
0.00445263
0.00475105
-0.00033184
-0.000327301
0.00439938
-0.000119471
-0.00324876
0.00336134
-0.000459548
2.96233e-05
5.98994e-05
-0.00015568
0.00134952
-0.00119249
-0.00424434
-0.000304613
0.00448414
-0.00100663
0.00432835
-0.000328647
-0.000643481
0.000846383
0.00108722
-0.000138478
-0.000952464
-0.00175667
0.00131436
0.000399024
-0.00113398
-0.000269781
-0.00137778
0.00122322
0.00135428
-0.00221451
-9.03124e-05
0.00383057
-1.03892e-05
0.000915427
-0.00402448
-0.000100288
-0.00202248
0.00419931
0.000402041
-0.00519349
0.0047778
-0.00480793
0.0051964
5.39008e-05
-0.000424797
0.0003603
-0.000264178
-0.00153741
-0.00056178
0.00672546
-0.00458547
9.15786e-06
0.000475441
-0.00580541
0.00268673
0.00309357
0.000168476
-0.00132609
-5.89687e-05
-0.00293917
-0.000103235
0.00291156
0.000358975
0.00264861
-0.00286672
0.000314341
0.00419301
-0.0045401
0.00454729
-0.00416127
-0.000447031
-0.000220449
0.000104133
0.00164767
0.000612261
-0.00230417
-0.00336415
0.000846663
0.004505
0.000124195
-0.00102322
0.000889159
-0.000206625
-0.00170712
-3.77239e-05
-0.00113425
0.00103294
-0.00471635
0.00431619
-0.00229207
0.00037941
-0.00176964
0.00357491
-0.00210788
-0.000335557
-0.00149956
0.000407428
0.000904321
0.000178587
0.00273589
-0.00266215
-0.000149878
0.00475093
0.00386076
0.000461493
-0.00434216
-0.00418864
0.0045443
-0.000384527
-0.00312119
-0.00241398
0.00175385
0.000435563
-0.00343707
0.00321119
-0.00268066
0.000410904
-0.0015452
0.000269979
0.00122389
-0.00315074
0.00327445
0.00210626
-0.000498154
-0.00346096
-0.000386446
0.00383708
-0.0054361
0.00311673
0.00228557
-0.000703498
-0.000627759
0.00132668
-0.00450356
0.00477662
-0.000300406
0.000234826
0.00233351
-0.00259991
0.000177052
0.00367261
-0.00393481
5.32708e-05
-0.000439234
0.000378611
-0.0010243
-8.67853e-05
0.00109635
0.000212116
0.00228455
-0.00250347
-0.00100839
0.00283552
-0.000261495
-0.00428321
0.0044895
-0.000283575
-0.00395216
-0.0022602
0.000789521
0.00143934
0.00117199
-0.00416517
-0.00297449
-0.00280229
-0.00131852
0.00291357
-0.000455822
9.98016e-05
0.00012844
0.00326356
-0.00338995
0.0026994
-4.30342e-05
-0.00358669
0.000150585
0.00441467
1.99193e-05
0.000171766
4.92123e-05
-0.000206804
-0.00124658
0.00106169
3.31848e-05
-0.00416156
-3.95054e-05
0.00227901
-0.00241542
0.00504205
-0.00433688
-0.00072863
0.000286803
-9.93975e-05
-2.81639e-07
1.11224e-05
0.000451913
-0.000380345
0.00454264
-0.00418237
1.03366e-05
7.7473e-05
-0.000122012
-0.000249019
-0.00311777
0.000375624
0.00014275
-0.00319779
0.00011697
-0.0010989
0.000980728
-0.0029924
0.00239658
0.000421585
-0.000300866
0.00502378
-0.00123415
-0.000355331
-0.00120368
0.00105313
7.11069e-05
-0.000201621
-0.00136759
0.00399833
-3.04472e-06
8.53782e-05
-0.00469955
0.00434377
0.00453137
0.000158392
0.000237266
-6.67684e-05
0.0012362
-0.00130692
0.000123595
0.000877582
-0.00100378
0.00111969
-0.00364966
0.000176172
0.000207255
0.00369374
-0.00390718
0.000425524
0.00424534
-0.00468795
0.00415381
-0.00452364
-0.000511682
0.00435332
1.84044e-05
0.000128562
-3.88247e-05
0.000481567
-0.000456181
-0.00115673
-0.000166334
-0.0013711
0.00143584
0.00413425
-0.0045346
-0.000498727
0.00419158
-0.00370308
0.00520937
-0.00375321
-0.00147551
0.00013069
-0.00106719
0.000935296
0.000417861
-0.00463257
0.00417854
0.00208576
-0.000340228
-0.00175511
-0.000112276
0.000718377
-0.00416286
-0.00060841
-0.000969121
0.00407465
-0.000678419
0.000152599
0.000187474
0.00462666
-0.00120356
-0.0013775
0.00352333
-0.00354086
-2.28478e-05
-0.00340194
0.00377023
-0.000380781
5.23525e-05
-0.00042604
0.000366995
-0.000219041
0.000141243
0.00102131
-0.00117611
-0.00398731
-0.00518245
0.00433572
-0.00276128
0.000267965
-0.00133284
0.000465774
-0.000430329
0.00015077
-0.00128768
0.00574486
-0.00554827
-0.000208217
-0.000169015
-0.000371803
-0.000584778
0.000115919
-0.00103401
0.000905705
0.00186221
-0.00155385
-0.000354692
-0.00046307
0.000411128
-0.000379458
-0.000424319
-4.96207e-05
0.00452045
-0.000129781
-0.000938812
-0.00103398
0.000902857
-0.000586841
0.00257544
-0.00202435
0.00327229
-0.00368738
0.000403178
-0.00394857
0.000213762
-0.00226601
0.00254254
-0.000289079
-0.00375988
0.00243685
-0.000394881
-0.000293994
0.00470548
0.000442894
-0.000275911
-0.000238494
0.00285725
-0.00257998
0.00466772
-0.00214904
7.78566e-05
-9.78313e-05
-0.00145275
-0.000835787
-0.000185569
0.00367131
-0.00348989
0.00264337
-0.00218019
-0.000497731
-0.000215301
-0.00257729
5.0387e-05
-0.00045312
0.00039366
-0.00481705
0.00426929
0.000524537
-0.00466041
-0.00358377
0.000230044
-0.00259602
0.00233387
-0.00327183
0.000402513
-0.00444202
0.00266029
-0.000426539
0.000467802
4.07665e-05
0.000411976
0.000470102
-0.00426199
0.00377808
0.000227958
0.00174827
-0.00200556
-0.000238823
0.00397118
0.00024636
-0.000760494
0.000648096
9.06591e-05
0.00111281
-0.000985113
-0.000130617
0.0014691
0.00439071
5.45313e-05
-0.000439994
0.000379082
-1.46741e-05
9.15143e-07
1.00134e-05
8.78787e-05
0.000685338
-0.000789383
0.0022304
-0.002711
-0.00124174
0.00546077
0.0041025
-0.00364568
-0.00262997
0.00035178
-0.0033317
-0.00106051
-0.00253427
-0.00169976
0.00419023
-0.00446847
-0.00057854
0.00502219
-0.00393647
-0.00189823
-0.00484229
0.00402168
0.000801424
0.00393293
-0.00444281
0.0039635
-0.00387318
0.00347435
0.000259688
0.00528204
-0.00438928
-0.00396114
0.000312507
-0.00040305
-0.00336158
-0.00361567
-0.000145091
0.00367379
-0.000318555
0.000185875
-0.00132634
0.00113827
0.000145396
0.00014903
0.00340159
0.000472198
-0.00388434
-1.84192e-06
-0.00374088
0.00372785
-0.00443984
0.000570051
-7.71217e-05
-0.000505912
0.00426252
-0.00057067
-0.000444091
0.0010139
0.000309947
0.00297127
-0.00332862
0.000125895
-0.00383091
0.0010318
-0.000927667
-0.0046541
0.00455866
8.82734e-05
-0.00164864
0.00317243
0.000326732
0.00374577
-0.00354435
0.000155607
0.0044098
-0.00461043
0.00351991
-0.00342249
-0.00348658
-0.000378201
0.00385494
0.00372687
-0.000334618
-0.00480764
0.000277579
-0.00438511
0.00408117
-9.73424e-05
-0.0014345
0.00152034
-0.00206085
0.00230503
-0.00156695
-0.000435103
-0.00479595
0.00443993
0.000298507
0.00420392
0.000314514
-0.00244519
0.00264289
0.000273109
-7.43107e-05
-0.00430727
0.00103754
-0.000958775
-0.00362552
0.00348365
-0.00388093
-0.00107581
-0.0028186
0.00311129
-0.000305573
-0.000642467
-0.000156155
0.00373468
-0.0037917
-0.000251452
0.00350752
-0.00201717
0.00210076
-0.000150668
-0.000324265
0.00211307
0.000418038
0.00137733
9.1121e-06
-0.00151941
0.00439458
0.000280416
-0.000309921
0.000635223
0.00309297
-0.000105468
-0.000390943
-0.00231239
-0.00168945
0.00398187
0.000481813
0.00442429
-0.00492702
-0.00117711
0.000137436
6.43792e-07
1.67019e-05
-1.75772e-05
-0.00355316
0.00314562
0.00142184
-0.000626209
-0.0007981
0.00357936
-5.05489e-05
-0.00374375
0.003554
0.00418803
-0.00394706
-0.000252698
0.00349801
0.000282977
0.0043791
-0.000285725
-0.000382465
-0.00445321
-0.000360645
0.00483787
-0.00407284
0.000431437
0.00362399
0.00175027
0.00398451
0.00412536
0.000281993
-0.00432969
0.00442416
-0.000799934
-0.00362961
0.00486526
-0.00443988
-0.000471274
7.17296e-06
-2.65331e-06
2.40306e-05
0.00466038
-0.00471262
-0.000452415
0.0046794
-0.000311347
0.00364107
-0.000130515
-0.00356995
0.000150231
-0.00452848
0.00439631
0.00062206
7.97187e-05
0.00442754
0.000246746
-0.0047155
0.00279947
0.000387929
-0.00328209
0.00558026
-0.000238487
-0.00537632
-0.00016104
-0.00121507
-0.000998629
-0.00155987
0.00442018
-0.00145611
-0.00423327
0.00451549
-0.000919391
-0.00370769
0.00379587
-0.00022491
-0.00331063
0.0029817
0.0047351
-0.00454403
0.000970468
-0.00289602
0.000111616
-0.000404259
-0.00497748
0.00264384
-0.00461125
0.000919382
0.00365457
-0.000407165
0.00375262
-0.000249198
0.00354792
-0.00350531
-0.000162365
5.24334e-05
0.00308154
-0.0031443
-0.000285158
0.00466621
-0.00248654
0.00427653
-0.00461725
-0.0038764
0.00446703
-0.00407141
-0.000402035
0.000392896
0.00431401
-0.0047349
-0.000400197
-0.000803511
-7.73483e-05
-0.00321303
0.00328223
0.00396763
-0.00415546
0.0034887
0.000156964
0.00460473
-0.00477352
-0.000874353
0.000993698
-0.000150828
-0.00384586
0.000352793
0.00337542
-0.000300831
0.003561
-0.00367472
0.00450618
-0.000198677
0.00455856
-0.00437288
0.000143403
-0.00104885
0.00442951
-0.00468766
0.0021612
-0.00217719
-4.72289e-05
0.00503993
-0.000219274
-0.00344566
0.00019003
-0.00029692
0.00499138
-0.00399888
0.00142566
0.000218448
-0.000324525
0.00363956
-0.000151417
0.00442936
-0.000252366
0.00414575
-0.00443649
-2.68464e-05
0.000113616
-0.000106804
0.00284352
-0.00277276
-0.000187209
-0.000561152
0.00214502
-0.000445257
-0.00267627
0.00310478
0.000244488
0.00450248
-0.000156804
0.00380025
0.00272838
0.000187671
0.003984
-0.000168762
0.00049778
0.00326106
-0.000251299
0.0046196
-7.36874e-05
0.00368565
-0.00354945
0.00329051
0.00458504
-0.00480718
0.000702888
-0.000439893
-0.000377901
0.00474009
0.00134345
-0.00115995
0.000152039
0.00351622
-0.00367396
-0.00403014
0.000194509
-0.000352473
2.94053e-05
0.000307624
-0.0031939
-0.000250012
-0.000405079
0.00452136
3.64306e-05
0.000235716
0.00183953
-0.00108644
-0.00288829
0.00435345
-0.000128101
-0.00428042
-0.000253882
0.00464481
-0.00181936
-0.000225929
0.00202161
0.000749121
-0.00511096
-0.00507122
0.000577557
-0.00351684
0.00369337
-0.000362009
-0.00337423
-0.000538233
0.00444162
-0.0039196
0.00022055
-0.00206399
-0.00112936
0.00126013
-0.000145312
3.17809e-05
-0.000350878
0.000304751
-0.0037656
-3.01041e-05
-0.000333664
0.000347701
2.86892e-05
-0.000350015
0.000305386
-0.00350139
0.00364781
-0.000248778
0.00436861
-0.00471969
0.000328792
-0.00435583
-0.000347798
0.000301655
0.000321081
0.00429201
-0.00464263
3.01623e-05
-4.1308e-05
-1.14536e-06
-0.00258166
-0.00289142
0.00272732
-0.00277533
-9.73095e-05
-0.00515676
-0.00370067
0.00348629
0.000212814
-0.000334989
-0.000217448
0.00468103
-0.00452932
0.000194375
-0.00423974
-0.000541065
0.00473385
-0.00423365
-0.000246746
0.00444227
-0.00239255
0.000765663
0.000433639
0.00329887
-0.00383272
0.00462959
-0.000532309
-0.00418357
0.000457452
-0.000409238
2.04113e-05
-1.71396e-05
-1.39926e-05
-0.000435266
0.0043545
0.00456928
0.000571088
-0.00033504