/*--------------------------------*- C++ -*----------------------------------*\
| =========                 |                                                 |
| \\      /  F ield         | OpenFOAM: The Open Source CFD Toolbox           |
|  \\    /   O peration     | Version:  v2012                                 |
|   \\  /    A nd           | Website:  www.openfoam.com                      |
|    \\/     M anipulation  |                                                 |
\*---------------------------------------------------------------------------*/
FoamFile
{
    version     2.0;
    format      ascii;
    class       surfaceScalarField;
    location    "850";
    object      phi;
}
// * * * * * * * * * * * * * * * * * * * * * * * * * * * * * * * * * * * * * //

dimensions      [0 3 -1 0 0 0 0];
oriented        oriented;


internalField   nonuniform List<scalar> 
14516
(
0.330618
-0.259059
-0.0713956
-0.76781
0.444009
0.323818
0.247009
0.0837881
0.431045
0.0126989
-0.443506
0.0306174
0.0990562
-0.129564
0.280328
-0.526643
0.246431
0.387638
-0.644524
0.257355
0.155543
0.405437
-0.560977
0.378767
-0.378787
-4.43688e-06
0.148531
-0.117783
0.221643
0.0241233
-0.2457
0.170091
-0.374064
0.204014
-0.166243
0.597477
0.616906
-0.378168
-0.238761
0.613954
-0.613414
-0.407751
0.658961
-0.251207
0.152006
-0.533914
0.381859
0.560806
-0.408698
0.274978
-0.327389
0.0525029
0.209131
0.456261
-0.236547
-0.219671
0.405083
-0.195546
-0.209633
0.310891
-0.558477
0.247603
-0.305534
-0.302293
0.324998
-0.551444
0.226557
0.457479
-0.62361
0.412476
-0.665644
0.253186
0.676763
-0.439155
-0.237623
0.0809356
-0.222018
0.141181
-0.0414678
0.420163
0.343761
0.00994027
-0.353586
0.625169
-0.314232
-0.356084
0.704674
-0.348469
-0.592715
0.600104
-0.00734606
-0.249904
0.0828264
0.167142
0.190604
-0.473391
0.282869
0.567769
-0.179875
0.242181
0.162804
0.208021
0.337195
-0.544992
0.684762
-0.358993
-0.325918
-0.0694839
0.413343
0.0820369
0.532445
-0.561336
0.0377789
0.523655
0.674747
-0.367471
-0.306946
0.03326
-0.594545
0.495373
-0.168925
-0.659988
0.344255
0.315737
0.413757
-0.286354
-0.127456
-0.405047
0.417984
0.249909
-0.167011
0.268579
-0.136032
-0.132516
-0.216291
0.46174
-0.245425
-0.198611
-0.19425
0.392944
0.315159
-0.121117
-0.194009
-0.248286
-0.157481
0.405876
0.314816
0.192064
0.136906
-0.234498
0.0976223
0.32293
-0.371555
0.0487551
-0.283037
0.491024
-0.667642
0.442666
0.224983
-0.266476
0.468672
-0.202178
0.391384
-0.0658122
-0.325559
-0.574561
0.0969814
0.478048
-0.165864
0.115547
-0.676241
0.342015
0.334242
-0.0247918
0.41623
-0.310962
-0.07161
0.382555
0.363724
-0.193578
0.288064
-0.0663911
0.18613
0.129062
-0.495461
0.60513
-0.109668
0.283192
-0.533325
0.249945
0.248156
0.371851
-0.620022
0.351288
-0.101278
0.424059
-0.101012
-0.580714
0.301707
0.279039
-0.512761
0.609649
-0.0968833
0.239227
-0.597553
0.358255
0.231581
-0.57808
0.346531
-0.357562
-0.318655
0.257022
-0.605632
0.34865
-0.445576
0.515615
-0.0700256
-0.757129
0.380795
0.376353
0.35845
-0.427854
-0.682506
0.368575
0.313961
-0.357865
0.589413
-0.531518
0.297794
0.233727
-0.167769
-0.336696
0.504584
-0.288744
0.617427
-0.328578
-0.341887
-0.425907
-0.215628
0.160976
0.0546976
-0.191608
-0.344919
0.536554
0.376974
0.248236
-0.434224
-0.342461
-0.414648
0.159482
-0.407723
0.133256
-0.578807
-0.531758
0.340213
0.723537
-0.288065
-0.435435
0.402721
0.320862
-0.292051
0.612206
-0.320066
-0.197952
0.534855
-0.336789
0.34011
-0.537947
0.140463
-0.653192
-0.0828367
0.441304
0.0197452
-0.356436
0.434252
-0.641246
0.20702
0.263323
-0.479487
-0.628231
0.446477
0.181718
-0.539681
0.0442221
-0.445392
0.22453
0.22084
0.235698
0.22195
-0.413639
0.0809423
0.332848
0.118686
0.149923
-0.265842
-0.64778
0.366206
0.281683
0.209509
0.14188
0.581478
-0.324413
-0.245807
0.622875
-0.492461
-0.135804
0.0425689
0.441078
-0.483654
0.283702
0.230222
-0.513658
0.436065
-0.155654
-0.45054
0.239083
0.211485
0.231924
0.22438
0.10299
-0.238275
0.135357
-0.352263
-0.330214
0.580737
-0.341556
0.100365
-0.427999
0.327604
-0.702724
0.484562
0.21817
-0.229807
0.391248
-0.290949
0.595682
-0.415739
-0.179947
0.346152
-0.387599
-0.52291
0.243611
0.279322
-0.00257319
-0.571657
0.440318
0.23474
0.521555
-0.285237
0.390237
0.22842
-0.618637
0.484116
-0.200243
0.292867
-0.510718
0.217928
0.681267
-0.299672
-0.381296
-0.69981
0.289749
0.410036
0.274841
-0.653039
-0.60699
0.364448
0.242542
-0.688064
0.324957
0.363127
-0.386005
-0.31383
-0.172141
0.517841
-0.34561
-0.194961
-0.0206273
-0.137757
0.260305
-0.122447
-0.3532
-0.349515
0.0989545
-0.236587
0.203588
-0.054921
-0.505379
0.333334
-0.374617
0.417182
0.679516
-0.322765
-0.356695
0.504694
-0.211765
-0.752896
0.366915
0.289481
0.392035
-0.347309
0.502749
0.308621
0.368128
-0.616329
0.407988
0.208327
-0.334867
0.25965
0.0752647
0.227824
-0.62624
0.398442
0.300994
-0.5374
-0.291408
-0.171744
-0.147789
0.319565
-0.223456
0.635938
-0.606182
0.29205
0.314151
0.104149
-0.471256
0.367423
-0.433571
0.123237
0.31038
-0.422124
0.649996
-0.332371
-0.101113
-0.484156
0.258795
0.225352
-0.0598506
-0.225094
0.214268
0.363457
-0.57771
0.581618
-0.25498
-0.32661
-0.0685471
0.239344
-0.170789
-0.0276492
0.233358
-0.205681
-0.159022
-0.150859
0.309876
-0.350154
-0.185652
0.36493
-0.439778
0.0749629
-0.253999
0.537114
0.245593
-0.108637
0.349484
0.232162
-0.49976
0.279162
0.220879
-0.391842
-0.224501
-0.215605
-0.268553
-0.420579
0.48251
-0.0619409
0.298398
0.1153
-0.221313
-0.224095
-0.3358
-0.253397
0.184832
0.0103422
-0.251314
0.241059
0.556158
-0.323331
-0.232771
0.0470194
0.156715
0.537593
-0.147324
-0.00707905
0.353262
-0.36711
0.366724
0.000460127
-0.394016
0.236685
0.206281
0.266451
-0.472713
0.464813
-0.22115
-0.475133
0.615608
0.491629
-0.641637
0.332916
0.308698
0.350667
-0.433553
-0.240807
0.362299
-0.121617
0.3241
-0.137767
-0.186261
0.475699
-0.17739
-0.410235
0.123874
0.20566
-0.404306
0.21208
-0.201674
0.435971
0.243603
0.579862
-0.348671
-0.231227
0.435495
-0.07048
0.0720274
-0.54715
0.178273
0.136524
-0.314727
-0.307759
0.181967
0.125992
0.511962
-0.324284
-0.187656
-0.191718
-0.587336
0.166744
0.67748
-0.296669
-0.10741
-0.303216
-0.223306
0.219557
0.321678
-0.541183
-0.165063
-0.142518
-0.251547
0.123377
0.12819
-0.678266
0.372729
-0.620372
0.31809
-0.311594
0.152522
0.609611
-0.160412
-0.449147
0.12046
-0.238173
0.117747
-0.133051
0.311363
-0.279934
-0.227669
0.507975
-0.211952
-0.324125
0.536365
0.406277
-0.246747
-0.646329
0.403208
0.243241
-0.0879823
0.438554
-0.622736
0.310779
0.311944
-0.552781
0.320015
0.233033
0.266061
-0.622112
-0.306064
0.54106
-0.234855
0.190002
0.327931
0.641481
-0.236125
0.280733
0.224053
-0.341691
-0.147957
-0.444731
0.416165
-0.232521
-0.183614
0.118173
-0.283898
0.165746
0.282654
-0.163947
-0.247137
0.127647
0.119523
-0.298796
-0.213251
0.512397
-0.430663
0.225801
0.204807
0.221964
0.275626
-0.497403
0.278442
-0.160255
0.522413
-0.322116
-0.200151
-0.667263
0.324681
0.342539
-0.591608
0.48523
0.106344
-0.517928
0.140896
0.141777
0.426457
0.176978
-0.603436
-0.331276
0.159575
-0.480304
-0.0369884
0.517289
-0.698993
0.218675
0.155632
0.168534
0.34394
0.0228511
-0.37868
0.488345
-0.109443
-0.254261
-0.413036
0.600541
-0.382476
-0.217996
0.1223
-0.324137
0.201919
0.506597
-0.29333
-0.213286
0.647509
-0.544766
-0.102757
0.582472
0.0650271
-0.221821
-0.476077
0.254745
0.622066
-0.353515
-0.268562
-0.144111
0.497483
-0.21663
-0.596095
0.195557
0.400525
0.554917
0.0109486
-0.565748
0.245366
0.439274
0.344681
0.167289
0.220771
0.195431
-0.00711822
-0.235055
0.242206
-0.674241
0.433007
0.241642
0.24836
0.216501
0.242116
-0.369194
-0.278495
-0.468704
0.216871
0.252116
0.200559
0.274758
0.344053
-0.618788
0.360779
0.234907
-0.385754
0.189931
0.195808
0.219874
-0.226989
0.334608
0.242891
-0.577575
0.316624
-0.331526
0.0150758
-0.285743
0.422566
-0.370448
-0.0521679
0.190236
-0.535003
0.344672
-0.103453
0.537735
0.38104
-0.626794
0.245935
0.609622
-0.489221
-0.120436
0.304212
-0.181847
0.357009
-0.305686
-0.0513096
-0.275537
-0.222267
0.497909
0.425412
-0.00288057
0.637644
-0.360574
-0.277171
0.48211
0.127478
0.344251
0.0127691
0.231773
-0.407539
0.175775
0.164337
0.210878
-0.375182
0.259229
-0.547852
0.325233
-0.281913
-0.242665
0.524642
0.144869
0.184159
-0.328984
0.0583638
-0.29926
-0.283255
-0.25244
0.535756
-0.37806
-0.08156
-0.189609
0.271227
0.655458
-0.283612
0.64942
-0.577392
0.143931
-0.171546
-0.38351
0.185226
0.198241
-0.306123
-0.0653059
0.333249
-0.123605
-0.385699
-0.191016
0.576734
0.166058
0.176931
0.168356
0.269995
-0.562026
0.351904
-0.439985
0.276241
-0.180617
-0.0955661
-0.308212
-0.272851
0.580969
0.271281
0.252406
-0.387401
0.380515
0.596489
-0.570347
-0.0260991
0.101135
-0.540278
0.0412125
0.219261
-0.260348
0.531874
-0.182459
0.238717
-0.521854
0.311714
-0.378126
-0.268085
0.288758
0.370206
0.612431
0.277818
0.0883397
-0.366271
0.333184
-0.210027
0.213983
-0.41716
0.203217
-0.393093
0.0475269
0.345648
-0.175444
-0.241239
0.416726
0.234176
-0.151911
0.349125
-0.1973
-0.410067
0.215874
-0.269415
-0.157829
0.42729
-0.406093
0.0126728
-0.197208
0.184645
0.278492
-0.0923145
0.152289
0.0933429
0.189816
-0.177028
-0.16546
0.443202
-0.465416
-0.0947643
0.560283
0.361567
-0.149423
-0.370461
-0.297179
-0.486578
-0.105054
-0.284805
0.544101
0.0748454
0.534817
0.560977
-0.370842
-0.102081
0.45392
0.166967
-0.248473
-0.0166643
-0.376378
0.228137
-0.107629
-0.383451
-0.0898697
-0.504593
0.261744
0.242871
-0.30055
0.532146
-0.231665
0.33559
0.119081
-0.269022
0.149974
-0.289599
-0.239984
-0.190731
0.163639
-0.396745
0.23305
-0.465163
0.412749
0.527517
-0.193143
-0.374826
0.17871
0.196029
0.572768
-0.597147
0.0244336
0.162525
-0.521642
-0.37687
-0.2464
-0.447868
0.207796
-0.326226
0.174346
0.396761
-0.0595725
-0.337263
-0.189207
0.0245513
0.631322
-0.24694
-0.384362
0.172028
-0.114624
-0.136908
0.267018
0.348258
-0.615301
-0.685773
0.455217
0.23062
-0.0434362
-0.343823
-0.130082
-0.084308
0.214424
0.289701
0.341641
-0.282109
-0.34064
0.352932
-0.14711
-0.205792
0.421013
-0.303
-0.11795
0.384808
0.215801
0.00227333
-0.41578
0.158828
-0.482648
-0.205784
0.61641
-0.231531
0.170064
-0.322528
0.152571
0.391784
0.140005
0.258582
-0.139499
-0.244168
-0.316978
-0.0466173
-0.511839
-0.536484
0.250147
0.2864
-0.171784
-0.267587
-0.26883
-0.604995
0.320293
-0.358847
-0.355277
-0.251716
-0.262641
-0.109099
0.371824
0.375976
0.246057
0.338475
-0.174116
0.140278
0.180169
0.222273
-0.402537
0.240499
0.282055
-0.193626
-0.198142
0.606136
0.341839
-0.102464
0.547124
-0.0347197
-0.512033
0.0552325
0.283256
-0.396078
0.635099
-0.239012
-0.572584
0.218288
0.354327
0.639274
-0.362544
-0.210038
-0.35931
-0.246857
-0.499252
0.190506
0.308707
0.47231
-0.200928
0.562108
0.554135
0.0199068
-0.573773
0.349164
0.0475128
0.0833782
0.340797
0.323213
0.233006
0.131716
0.146829
-0.615301
-0.270829
0.375024
-0.189688
0.193675
0.227397
0.276326
-0.266306
-0.172253
0.251365
-0.0790763
0.181314
0.294298
0.158541
0.0287332
-0.370928
0.342542
0.447274
-0.107192
-0.340037
0.178609
0.163266
0.315851
-0.145655
0.57728
-0.206179
-0.234879
0.441085
0.400067
0.23749
-0.257046
-0.263903
0.521126
0.103953
0.124229
-0.280715
0.511182
0.386128
0.231378
-0.213998
-0.285477
0.170946
0.364037
-0.110046
0.552747
-0.442199
0.151126
0.29128
0.102442
0.156129
0.0835181
0.352061
-0.344758
0.515848
0.0465986
0.257699
0.62392
-0.260453
0.0872054
0.512942
0.641885
-0.316423
-0.325448
-0.219469
0.11611
0.331175
0.22051
-0.503804
0.246945
-0.628245
0.390225
0.238078
-0.40609
0.503365
-0.484323
0.226057
0.258358
-0.130597
-0.361887
-0.314384
-0.359477
-0.336535
0.365717
-0.216745
-0.318351
0.343584
-0.445596
-0.178038
0.215453
-0.281181
-0.31798
0.495822
0.0769707
0.522415
-0.0959609
-0.191444
0.370027
-0.243722
0.30225
-0.246968
-0.00322675
-0.533796
0.537393
-0.293072
-0.286784
0.579761
0.201683
-0.52493
-0.249056
0.211908
-0.510435
-0.296007
0.260727
-0.119756
0.322794
-0.594897
0.272147
-0.356288
0.0216023
0.232563
-0.254128
0.609588
-0.319758
-0.289801
-0.259759
-0.208649
-0.33324
-0.264376
-0.187648
0.41216
0.222048
0.368695
-0.231273
-0.137401
-0.583844
-0.255246
-0.297274
-0.155579
0.278972
-0.218438
0.497824
0.0648007
0.168883
-0.233611
0.356037
0.204841
-0.179201
0.340818
0.268802
-0.176656
-0.113073
0.456763
0.353909
-0.559661
0.205819
0.244711
-0.480681
0.235984
0.134595
0.115309
-0.102929
0.399517
-0.296483
-0.211425
0.565426
-0.0672415
0.425097
-0.35775
-0.425623
0.3229
0.608122
-0.110492
0.24293
-0.221263
0.480432
-0.237472
0.482185
-0.279852
-0.218771
0.4987
-0.228378
-0.190432
0.418767
0.621605
-0.346829
-0.455286
0.388
-0.211377
0.395553
-0.184122
-0.0705711
0.222916
-0.596692
0.214296
0.269828
0.190435
-0.460226
-0.200875
0.0708304
-0.19445
-0.267915
0.462287
0.566753
-0.353015
-0.213699
-0.374491
0.105188
0.268425
-0.156439
-0.381613
0.182283
0.14157
0.0681372
-0.414049
-0.182058
-0.312905
-0.346452
0.111416
-0.384519
0.462803
-0.0783387
-0.554685
0.532245
-0.525701
-0.00823643
-0.244445
0.605506
-0.36104
-0.0594614
-0.405895
0.414613
-0.199038
-0.643618
0.286028
0.177246
-0.15841
-0.0187944
0.206855
-0.142001
0.14135
0.227366
0.145141
0.17085
-0.181787
-0.431249
0.105044
0.137319
-0.24232
-0.152926
0.422773
0.304085
-0.536994
0.232845
0.176408
0.218144
-0.394469
0.302615
-0.476967
0.174321
-0.628722
0.275088
0.353612
-0.325948
-0.186322
0.512253
0.470518
0.0844814
0.326427
-0.532118
0.124691
-0.202463
0.0778011
0.625971
-0.280524
-0.345442
0.376436
0.241473
-0.617911
-0.149704
-0.150112
0.299813
-0.362721
0.247112
0.115512
-0.150982
-0.186244
-0.347216
-0.276406
0.497784
-0.221371
0.261486
-0.456071
-0.208144
0.469456
-0.0908901
-0.236418
0.0402888
0.275535
-0.315644
0.257461
-0.463629
-0.0496999
0.328665
-0.278924
-0.364539
-0.382686
-0.258536
0.263753
-0.217107
0.197188
0.155781
0.270291
0.190683
-0.426479
0.235839
-0.224498
-0.280072
-0.243275
-0.103143
0.0337434
0.239157
-0.105683
-0.257112
-0.363137
-0.202643
0.565994
0.248273
0.219513
-0.384982
0.0617198
0.216748
-0.189211
0.420993
0.327859
-0.239613
-0.347299
0.529873
-0.182558
-0.497445
0.281312
0.216147
0.081765
-0.344329
0.147003
0.126691
-0.27366
-0.37578
-0.26838
-0.484447
0.208072
-0.594936
0.223727
0.371145
-0.312899
0.560125
-0.24705
-0.559152
0.246503
0.28595
0.567024
-0.407925
-0.159064
-0.334399
-0.273037
-0.500608
0.225876
0.341212
-0.603109
0.330831
0.272563
0.235537
-0.415336
0.179757
-0.27643
0.612651
-0.336223
0.112194
0.214194
0.5088
0.00698267
-0.515615
-0.216609
0.413004
-0.177481
0.214972
-0.181293
0.242124
-0.137015
-0.153298
0.534484
0.297793
-0.521048
0.223292
-0.272258
-0.212159
0.22157
0.332756
-0.554173
-0.375991
0.626884
-0.250891
0.493052
-0.170236
-0.625692
0.249715
-0.301235
0.53996
-0.260659
-0.236787
0.369439
0.256541
-0.20547
-0.107311
0.312871
-0.330526
-0.355189
-0.453014
0.535235
0.0234298
0.39242
-0.415737
0.484533
-0.181921
0.214832
-0.522748
0.308021
0.246458
0.370017
-0.117967
-0.127688
0.0379729
-0.452028
-0.190824
-0.203678
0.394604
0.196419
-0.0717045
-0.297254
-0.254106
0.00409313
0.550741
-0.554395
0.211665
0.430236
-0.170799
-0.0636817
-0.271362
-0.323635
0.218773
-0.114769
0.0114218
-0.543097
0.183991
-0.446684
0.619006
-0.172278
0.223735
-0.414482
-0.449611
0.392551
0.0571511
-0.242297
-0.239358
0.481671
-0.547394
0.276956
0.270523
0.215529
-0.611546
-0.365855
0.632871
-0.286491
0.110512
0.0879514
-0.198433
-0.490627
0.238159
-0.10354
-0.426108
-0.121004
-0.109151
-0.315958
-0.286853
-0.549497
0.286885
0.262567
-0.408767
0.584707
-0.175934
0.138161
0.122641
-0.229625
0.527514
-0.0459082
-0.208698
0.254597
-0.172521
0.392069
-0.358712
0.307489
0.526659
0.0708212
-0.479577
-0.12972
-0.124749
0.254517
-0.526288
0.22509
-0.434984
0.100861
0.0600355
0.174965
-0.234962
0.240032
0.292042
0.357711
0.209075
-0.34601
-0.201311
-0.20689
0.541014
-0.334151
0.591503
-0.233752
0.235481
0.348175
-0.583595
-0.546701
0.170618
0.376069
0.621842
-0.385161
-0.236654
-0.3562
-0.0218775
0.378115
-0.359134
-0.0112981
-0.293157
0.50845
-0.613632
0.312666
0.30111
-0.546189
0.0152063
0.53104
-0.589123
0.254961
0.334116
-0.648528
0.368007
0.388003
0.275292
0.359816
0.222705
-0.441946
0.219242
-0.138117
0.304127
-0.3123
0.642298
-0.32998
-0.408052
0.17964
-0.217547
0.0452872
0.446972
-0.177842
-0.269088
0.405284
-0.193765
-0.0341829
0.44692
-0.448128
0.0919959
0.222469
-0.100477
-0.121938
-0.373235
0.420326
-0.382357
0.535838
-0.328349
-0.207554
-0.260012
0.471661
-0.21159
-0.247055
-0.111636
-0.571639
0.512142
0.0596323
-0.162259
0.535242
-0.372993
0.202749
0.325463
-0.52816
-0.185668
0.529902
0.307769
0.228004
0.403611
0.21825
0.212519
-0.182563
-0.486323
0.132922
0.148155
-0.297879
-0.279849
0.082738
-0.405146
0.336715
0.0685957
-0.0899999
-0.314985
-0.617868
0.27362
0.344256
0.533072
-0.330257
-0.381728
0.08421
0.227634
-0.473673
0.180676
0.00310821
-0.380623
0.377387
-0.572905
0.219948
0.605805
-0.290114
0.550023
-0.259587
-0.510466
-0.312241
-0.237295
-0.481819
0.247129
0.234692
-0.195543
-0.25779
0.453452
0.150507
0.446027
0.475232
-0.532724
0.0574049
-0.0497195
-0.396884
-0.0903253
-0.590654
0.229158
0.361494
0.548396
-0.326715
-0.62439
0.332516
0.29194
0.161552
0.322975
-0.28274
-0.418684
-0.23066
0.00871264
-0.216602
0.439332
-0.0405059
0.486945
0.371935
-0.534202
-0.256792
-0.305968
0.562785
-0.185814
0.167686
-0.301408
0.133728
-0.16431
-0.148903
0.313231
-0.181524
0.108682
0.369151
-0.477865
0.135201
0.102983
0.246299
-0.488586
0.237194
-0.551743
0.314686
0.281384
0.16563
-0.0101478
0.485283
-0.250443
0.467558
-0.217172
-0.0150315
0.272311
-0.257314
0.484888
-0.478189
-0.00672598
-0.21115
-0.187958
0.399119
-0.580867
0.327642
0.253271
-0.529207
0.291633
0.237562
-0.606411
0.257832
0.348574
-0.379009
0.609706
-0.230664
-0.512905
0.185193
0.327753
-0.405466
0.0463383
-0.465893
0.214436
0.251393
0.310309
-0.16507
-0.052625
0.401515
-0.348833
0.43486
-0.10712
-0.248611
0.202707
0.253301
-0.109336
-0.0253325
0.48659
-0.461007
0.102726
0.119797
0.309471
-0.566289
0.122609
-0.252268
-0.20671
-0.566467
0.290041
0.436203
0.0727212
-0.323202
-0.301122
0.191604
-0.030583
-0.592744
0.340186
0.252813
-0.179319
-0.189569
0.368791
-0.110011
0.550546
0.518734
-0.174672
-0.259303
0.295002
-0.120323
-0.174516
-0.618558
0.414314
0.204237
0.299686
0.226727
-0.532538
-0.540404
0.250399
-0.528953
0.11276
0.416169
0.250334
0.291853
-0.541939
0.446921
-0.222488
-0.306037
0.543329
0.237153
0.354383
-0.434502
-0.135799
-0.500034
0.187743
0.505576
-0.12913
-0.166402
-0.207624
0.255938
-0.431289
-0.455435
-0.634335
0.324372
0.309995
-0.522966
0.397106
-0.403811
-0.125167
0.223883
-0.474347
-0.211705
0.0811014
0.13065
-0.495263
0.326687
0.168595
0.269605
0.202114
0.30294
-0.135272
-0.555823
0.311383
0.651075
-0.295444
-0.355642
-0.216633
0.520666
-0.168248
-0.368814
0.184757
0.110409
0.254224
-0.0962734
-0.157918
-0.16787
-0.205034
0.3728
-0.544152
0.104641
0.439498
-0.466948
0.224276
0.2427
-0.170294
0.462488
-0.292131
0.263643
-0.370901
-0.207041
0.383505
-0.431408
-0.0850913
-0.0130027
-0.520509
0.533949
-0.189575
0.417994
-0.309183
0.252199
0.202023
-0.454066
-0.12616
-0.117552
0.243777
0.170309
0.263875
0.363013
-0.314401
-0.588565
0.371003
0.217603
-0.0729074
0.234287
0.234409
0.333565
-0.54052
-0.301789
-0.273074
-0.352603
-0.502844
0.176862
0.108361
0.266738
-0.37505
0.24492
-0.512552
0.499345
-0.615752
0.247257
0.368516
-0.211984
-0.321006
0.533067
0.289377
0.361687
0.601758
-0.319345
0.594408
0.202027
0.530946
-0.426303
0.111031
0.419916
0.643398
-0.296463
-0.346951
0.22045
0.239689
-0.460085
0.130283
-0.398976
-0.278543
-0.239012
0.517561
0.174837
0.0785151
0.494696
-0.519789
0.318444
-0.390083
-0.430386
0.5587
-0.249308
-0.419781
0.113202
0.306517
-0.375798
-0.242766
0.32489
-0.377453
0.208919
-0.182606
-0.0262706
-0.199657
-0.330861
0.530535
0.578235
-0.230103
-0.612219
0.265076
0.347152
0.161774
0.208526
-0.37016
-0.216844
0.11884
-0.569482
0.268997
0.300512
0.223563
-0.572301
-0.0812693
-0.14931
-0.354357
-0.257853
-0.639421
0.366347
-0.256376
0.124463
0.132046
-0.550856
0.299526
0.251418
-0.305108
0.16739
-0.557458
0.230388
0.357924
-0.58829
-0.130715
-0.404265
0.534966
0.291229
-0.340862
-0.59716
0.258003
0.339154
0.289529
-0.600255
0.327221
-0.611294
0.364156
0.247156
0.322019
0.258673
-0.332535
0.241701
-0.124818
-0.13143
0.242258
-0.520789
-0.166804
0.316939
-0.454363
0.414811
0.0395507
-0.220104
0.391051
-0.170904
0.379245
-0.376181
0.124421
0.171344
-0.295755
0.131495
0.122772
-0.2481
-0.281113
0.308911
-0.521901
-0.217124
-0.320157
0.0474887
-0.252874
0.235897
-0.0610158
-0.288798
0.532152
-0.243464
0.517549
-0.511145
0.225079
0.28607
0.520092
-0.52214
0.12589
-0.245139
0.11929
-0.313124
0.161325
0.151747
-0.165519
-0.0914714
0.524902
0.276901
-0.129875
-0.464808
0.466367
-0.00159668
-0.553135
0.307567
0.245749
-0.528927
0.240072
-0.255463
-0.360272
0.171106
0.245662
-0.593267
0.230348
0.301095
-0.530695
-0.150348
-0.0613145
-0.426787
0.243426
0.183357
0.146872
0.123615
-0.280949
0.48606
-0.205234
-0.118483
0.244391
0.184004
-0.395144
0.146923
0.163489
0.624251
-0.349051
-0.275206
-0.286845
-0.356791
0.281785
-0.350041
0.179497
0.226348
-0.405782
0.182648
-0.33156
-0.31232
-0.257132
-0.101089
0.556464
-0.333699
-0.183298
-0.363418
-0.136243
0.263957
0.203544
-0.351371
-0.351265
-0.236517
0.587742
0.39771
0.542552
0.265303
0.232489
0.238511
-0.135734
-0.320251
-0.234586
0.554939
0.400892
0.224916
-0.459769
0.331454
-0.614224
0.28276
0.22566
-0.416084
0.591896
-0.0443298
-0.164157
0.224224
0.444379
0.328466
-0.290245
-0.0381366
-0.366964
0.213063
0.154009
0.197087
-0.576047
-0.611514
0.332566
0.278944
0.187069
0.0488703
-0.0662726
0.415471
-0.34926
0.28876
-0.515948
0.178981
0.0299804
-0.374422
-0.132796
0.507185
0.286749
-0.518461
-0.218705
0.488255
-0.353987
-0.205662
0.442101
-0.186143
0.130099
-0.274092
0.144037
0.330849
-0.222446
0.266262
-0.47453
-0.240863
-0.364332
0.538659
-0.174385
0.218441
0.177107
-0.395483
-0.0647106
0.549271
-0.403635
0.220553
0.183076
0.504179
-0.177456
0.412692
0.341647
-0.608909
0.267541
-0.608964
0.198951
0.206367
0.404747
-0.595722
0.20127
-0.402207
0.200975
0.281805
-0.531243
0.249516
-0.219684
0.403072
-0.183476
0.52912
-0.221408
-0.368292
-0.490673
0.193467
0.312104
-0.243973
-0.237845
-0.3434
-0.263885
-0.231749
0.4959
0.244205
0.316097
0.223438
-0.255684
0.404512
-0.304478
0.455906
0.0984164
0.122712
0.205842
0.255541
-0.466619
0.211059
-0.34134
-0.119172
0.266112
-0.239061
-0.269015
0.508111
0.261385
-0.200502
-0.0607816
0.416276
-0.189879
-0.272222
0.373969
0.0887803
-0.288946
-0.355231
-0.164669
0.519862
-0.450207
0.2268
0.223375
-0.441917
0.407363
0.507781
-0.23063
-0.277253
-0.217213
0.0999442
0.142247
0.398538
-0.248648
-0.149849
-0.3263
-0.23784
0.56414
0.200263
-0.481381
-0.234
0.535198
0.276478
0.231851
-0.218696
0.373128
-0.113169
-0.259843
-0.583941
0.257632
0.231546
0.187185
-0.245187
-0.308988
0.55419
-0.158193
0.376604
0.125979
-0.226404
0.398216
-0.174744
-0.0912597
-0.363109
-0.39192
-0.234714
-0.195479
0.447783
-0.157292
0.339922
0.2643
0.204988
0.611948
-0.258411
-0.353497
-0.249121
-0.299087
0.548341
-0.563232
0.247437
0.573837
-0.359899
-0.213914
-0.400329
0.212392
0.377216
-0.125575
-0.267159
-0.530355
0.155946
0.568128
-0.245376
0.127874
0.425237
-0.193695
0.506175
-0.240775
0.134766
0.103795
0.222065
0.190928
-0.0058441
-0.505823
0.441135
-0.197715
-0.254994
-0.256142
-0.218273
0.0636042
0.154695
0.226693
-0.490404
0.281954
-0.638903
0.356966
-0.104295
0.239535
0.30974
-0.124865
-0.482712
-0.429361
0.259125
0.285456
-0.237889
0.286583
-0.474223
0.187617
0.384395
-0.183169
-0.321143
0.566501
-0.245315
-0.385492
0.139041
0.164698
-0.384739
0.267792
-0.180549
0.47733
-0.296719
0.396631
-0.200555
-0.196014
-0.55339
0.232298
-0.354102
-0.229645
0.583771
-0.637469
0.277635
0.359851
0.111918
0.634985
-0.35532
-0.279667
-0.640634
0.284152
0.356491
-0.0622494
-0.155999
0.531758
0.21308
0.201483
-0.414466
-0.205084
0.28577
0.349213
-0.483087
0.266456
0.21666
0.328499
0.241946
-0.570458
0.222051
-0.237064
-0.250083
-0.278062
0.527618
0.244956
-0.257149
-0.10712
0.364175
-0.354855
0.41586
-0.197826
-0.217967
-0.545047
-0.276209
0.48441
-0.208115
-0.220453
0.38234
-0.161988
-0.311819
-0.378744
-0.499759
0.270375
0.229344
-0.201203
0.471558
-0.27011
-0.256467
-0.340695
0.0293077
0.555899
-0.585172
0.257518
-0.125915
0.290207
-0.417657
-0.355498
-0.245175
0.524327
-0.354733
-0.135128
0.259715
-0.550155
0.291759
0.2587
-0.198833
0.282319
0.276423
-0.558705
-0.236993
0.594464
-0.357491
-0.260568
0.521062
-0.260507
-0.322818
-0.235702
0.55863
0.133822
0.113474
-0.247284
-0.519089
0.225762
-0.578904
0.256242
-0.576777
0.217806
0.358954
-0.350396
-0.162473
0.495589
-0.0262276
-0.187671
-0.250704
0.438586
0.303486
-0.55232
0.290229
-0.529177
0.341645
-0.0944634
0.286503
-0.536709
0.490121
-0.507813
0.152542
0.0287564
0.5368
-0.565584
0.354279
0.277891
-0.506085
0.379984
-0.134813
-0.2452
0.520035
-0.292048
0.393521
-0.202108
-0.191291
-0.389999
-0.110079
0.269411
-0.505295
0.235922
-0.419315
0.397568
0.171659
0.0898419
0.330493
0.207971
-0.538369
-0.360675
-0.21612
0.218599
-0.0314932
0.517294
-0.227972
0.222313
-0.0245445
-0.19774
0.221586
-0.190898
-0.0306678
0.00580525
-0.517091
0.511889
0.265019
-0.631363
0.271327
0.360066
-0.110772
0.295639
0.295784
-0.128596
-0.292027
-0.228657
0.52102
-0.516442
0.112135
-0.623691
0.25754
0.366178
0.244159
-0.11639
-0.127761
0.295174
-0.112986
-0.63266
0.275476
0.357207
0.46555
-0.175372
0.239801
-0.409365
0.169583
-0.545011
0.357633
-0.102115
0.271061
0.142504
0.153122
-0.295666
0.220769
-0.159264
-0.0614852
0.201785
-0.022754
-0.350038
0.580434
-0.159463
-0.0360321
-0.178591
0.214678
-0.608764
0.337337
-0.275681
0.143224
0.132456
-0.315437
-0.246319
0.561685
0.27292
-0.178762
0.487448
-0.59419
0.34073
0.253453
-0.316954
-0.219666
0.536715
0.142396
0.223881
-0.179075
0.209107
0.243711
-0.109902
-0.355004
-0.244969
0.526887
-0.0251799
-0.177349
0.202586
0.464175
-0.234009
0.524336
-0.251234
0.413906
-0.399115
0.221543
-0.142294
-0.238695
0.512956
-0.518372
0.5075
-0.510367
-0.185595
0.407669
0.522985
-0.147621
-0.375167
0.546737
-0.513243
-0.183666
-0.270132
0.453796
0.453964
-0.20039
-0.253451
0.246318
-0.545184
-0.0655469
0.225833
-0.160289
0.236977
-0.0253393
0.258724
0.374358
-0.161181
-0.512007
0.167306
-0.35586
-0.0780825
0.207274
-0.129193
0.114761
0.198573
0.226772
0.601144
-0.383351
0.481828
-0.215782
-0.139398
0.223104
-0.0837066
0.508019
-0.135588
-0.372412
-0.156238
0.290032
-0.133757
0.201923
0.150039
-0.351934
0.213047
0.388084
0.413751
-0.480082
0.523682
-0.236873
-0.143528
-0.282012
0.149954
0.132065
-0.510319
0.271181
-0.226191
0.24432
-0.472822
0.228742
-0.495922
0.179498
0.325352
-0.575689
0.250328
-0.608283
0.357918
0.250378
0.437129
-0.197256
0.467631
-0.212051
-0.255492
0.215995
0.178155
-0.394258
0.140947
0.125236
0.255537
-0.49491
0.520641
0.104228
0.243179
0.13832
-0.262996
0.213897
0.181854
-0.395859
-0.143216
-0.0517308
-0.116652
0.49051
0.50859
-0.239121
0.139588
0.584312
0.238867
-0.586018
0.347123
0.00723434
-0.462662
0.34928
-0.586205
0.245872
0.285929
-0.231322
0.207209
0.175032
-0.576551
0.251134
0.325394
0.43742
0.151966
-0.248212
0.551921
-0.161573
0.459799
-0.298223
-0.0360025
-0.497788
0.53432
0.189213
0.158053
-0.277065
-0.259187
0.536508
-0.218085
0.482155
0.289216
0.196722
-0.125434
-0.100716
-0.335743
0.15981
-0.225351
0.180193
0.324025
0.220033
0.188719
-0.408808
0.16974
0.188089
-0.497398
-0.292457
0.152055
0.140401
0.180142
0.213513
0.0459806
0.139163
-0.172501
0.197135
-0.282065
0.160752
0.129317
0.184943
0.128307
-0.320714
-0.25586
-0.133287
0.190849
0.267727
0.00342321
-0.271005
0.519265
0.298928
-0.138175
0.551863
-0.152238
0.131275
-0.233614
0.10238
-0.225848
0.484348
-0.136664
0.234339
-0.118078
0.249363
-0.352338
0.197065
-0.44603
0.159109
0.204821
0.171757
0.161499
-0.352928
0.18855
0.16435
-0.162934
-0.060055
0.222995
0.0302555
-0.409808
0.379585
-0.369258
0.199043
0.170273
0.413966
-0.135873
-0.278101
-0.562883
0.316611
0.0798392
-0.225677
-0.224563
0.508568
-0.581615
0.0728813
-0.322453
0.176247
0.146208
0.194056
0.168713
-0.362717
-0.301408
0.48073
-0.179374
0.272801
0.238299
-0.51088
0.337349
-0.138782
-0.443712
0.216546
0.22721
-0.308445
-0.300379
0.413982
-0.200877
-0.184749
0.400709
-0.501934
0.477316
-0.512723
-0.161524
0.363405
0.252038
-0.113766
0.157105
0.146977
-0.444814
0.184082
0.597056
-0.384019
0.167614
0.197424
0.239323
0.342125
-0.581195
-0.617832
0.362401
0.255454
0.385321
0.211725
0.557652
-0.486775
-0.0706999
0.337089
0.269364
0.215128
-0.070104
0.311307
0.296886
-0.186231
-0.279845
-0.567778
-0.244532
-0.366744
0.118504
0.139125
-0.624057
0.261943
0.362132
0.187011
-0.344367
-0.279484
0.516821
-0.237223
-0.00949932
-0.190951
-0.302338
0.543104
-0.240614
-0.331051
0.582556
-0.251537
0.264879
-0.511847
0.247165
0.237495
-0.117653
0.61536
-0.361425
-0.253918
0.52163
-0.528522
0.00740781
0.358984
0.14042
0.17761
-0.31806
0.502999
-0.259589
-0.223469
-0.196653
-0.400479
0.355744
-0.289659
0.530093
-0.240602
0.222873
0.270508
-0.0317004
-0.238684
0.0306749
0.239944
0.237255
-0.149714
0.216852
-0.0671351
-0.585749
0.347889
-0.238809
0.58814
0.343211
0.155321
0.180532
-0.335903
0.279479
-0.138244
-0.505186
0.273784
-0.265248
-0.35879
0.658139
-0.33776
-0.320312
-0.216231
-0.191397
0.411412
-0.150938
0.287745
-0.136756
0.568582
-0.243132
0.270064
-0.488718
0.359144
-0.152067
-0.206914
0.226239
0.188982
-0.415222
0.472215
-0.227732
0.182306
0.215935
-0.5202
0.369603
-0.587498
0.237075
0.581024
-0.514939
-0.0655051
-0.295968
0.140451
0.155461
-0.621024
0.355793
0.142902
0.155669
-0.298648
-0.0439465
0.195052
-0.15105
-0.494806
0.307099
-0.490738
0.269154
0.224529
0.242378
0.190499
0.232124
-0.42251
0.164411
0.358729
0.251897
-0.13008
-0.101169
0.388992
-0.04872
-0.219376
0.489361
-0.516384
-0.22105
-0.214415
0.362621
-0.148143
-0.339517
0.176912
0.1626
0.0453406
-0.216762
-0.280542
0.497069
0.20753
0.176819
-0.37762
-0.179942
-0.0895105
0.269518
0.420584
-0.246381
-0.174044
0.0356597
0.428072
-0.240101
-0.187835
0.228047
0.184658
-0.347847
-0.252405
0.0318109
0.125027
0.177899
0.261815
-0.622238
0.360441
0.0301421
0.216325
-0.388841
0.222908