/*--------------------------------*- C++ -*----------------------------------*\
| =========                 |                                                 |
| \\      /  F ield         | OpenFOAM: The Open Source CFD Toolbox           |
|  \\    /   O peration     | Version:  v2012                                 |
|   \\  /    A nd           | Website:  www.openfoam.com                      |
|    \\/     M anipulation  |                                                 |
\*---------------------------------------------------------------------------*/
FoamFile
{
    version     2.0;
    format      ascii;
    class       pointVectorField;
    location    "850";
    object      pointDisplacement;
}
// * * * * * * * * * * * * * * * * * * * * * * * * * * * * * * * * * * * * * //

dimensions      [0 1 0 0 0 0 0];


internalField   nonuniform List<vector> 
10142
(
(0 0 0)
(0 0 0)
(0 0 0)
(0 0 0)
(0 0 0)
(0 0 0)
(0 0 0)
(0 0 0)
(0 0 0)
(0 0 0)
(0 0 0)
(0 0 0)
(0 0 0)
(0 0 0)
(0 0 0)
(0 0 0)
(0 0 0)
(0 0 0)
(0 0 0)
(0 0 0)
(0 0 0)
(0 0 0)
(0 0 0)
(0 0 0)
(0 0 0)
(0 0 0)
(0 0 0)
(0 0 0)
(0 0 0)
(0 0 0)
(0 0 0)
(0 0 0)
(0 0 0)
(0 0 0)
(0 0 0)
(0 0 0)
(0 0 0)
(0 0 0)
(0 0 0)
(0 0 0)
(0 0 0)
(0 0 0)
(0 0 0)
(0 0 0)
(0 0 0)
(0 0 0)
(0 0 0)
(0 0 0)
(0 0 0)
(0 0 0)
(0 0 0)
(0 0 0)
(0 0 0)
(0 0 0)
(0 0 0)
(0 0 0)
(0 0 0)
(0 0 0)
(0 0 0)
(0 0 0)
(0 0 0)
(0 0 0)
(0 0 0)
(0 0 0)
(0 0 0)
(0 0 0)
(0 0 0)
(0 0 0)
(0 0 0)
(0 0 0)
(0 0 0)
(0 0 0)
(0 0 0)
(0 0 0)
(0 0 0)
(0 0 0)
(0 0 0)
(0 0 0)
(0 0 0)
(0 0 0)
(0 0 0)
(0 0 0)
(0 0 0)
(0 0 0)
(0 0 0)
(0 0 0)
(0 0 0)
(0 0 0)
(0 0 0)
(0 0 0)
(0 0 0)
(0 0 0)
(0 0 0)
(0 0 0)
(0 0 0)
(0 0 0)
(0 0 0)
(0 0 0)
(0 0 0)
(0 0 0)
(0 0 0)
(0 0 0)
(0 0 0)
(0 0 0)
(0 0 0)
(0 0 0)
(0 0 0)
(0 0 0)
(0 0 0)
(0 0 0)
(0 0 0)
(0 0 0)
(0 0 0)
(0 0 0)
(0 0 0)
(0 0 0)
(0 0 0)
(0 0 0)
(0 0 0)
(0 0 0)
(0 0 0)
(0 0 0)
(0 0 0)
(0 0 0)
(0 0 0)
(0 0 0)
(0 0 0)
(0 0 0)
(0 0 0)
(0 0 0)
(0 0 0)
(0 0 0)
(0 0 0)
(0 0 0)
(0 0 0)
(0 0 0)
(0 0 0)
(0 0 0)
(0 0 0)
(0 0 0)
(0 0 0)
(0 0 0)
(0 0 0)
(0 0 0)
(0 0 0)
(0 0 0)
(0 0 0)
(0 0 0)
(0 0 0)
(0 0 0)
(0 0 0)
(0 0 0)
(0 0 0)
(0 0 0)
(0 0 0)
(0 0 0)
(0 0 0)
(0 0 0)
(0 0 0)
(0 0 0)
(0 0 0)
(0 0 0)
(0 0 0)
(0 0 0)
(0 0 0)
(0 0 0)
(0 0 0)
(0 0 0)
(0 0 0)
(0 0 0)
(0 0 0)
(0 0 0)
(0 0 0)
(0 0 0)
(0 0 0)
(0 0 0)
(0 0 0)
(0 0 0)
(0 0 0)
(0 0 0)
(0 0 0)
(0 0 0)
(0 0 0)
(0 0 0)
(0 0 0)
(0 0 0)
(0 0 0)
(0 0 0)
(0 0 0)
(0 0 0)
(0 0 0)
(0 0 0)
(0 0 0)
(0 0 0)
(0 0 0)
(0 0 0)
(0 0 0)
(0 0 0)
(0 0 0)
(0 0 0)
(0 0 0)
(0 0 0)
(0 0 0)
(0 0 0)
(0 0 0)
(0 0 0)
(0 0 0)
(0 0 0)
(0 0 0)
(0 0 0)
(0 0 0)
(0 0 0)
(0 0 0)
(0 0 0)
(0 0 0)
(0 0 0)
(0 0 0)
(0 0 0)
(0 0 0)
(0 0 0)
(0 0 0)
(0 0 0)
(0 0 0)
(0 0 0)
(0 0 0)
(0 0 0)
(0 0 0)
(0 0 0)
(0 0 0)
(0 0 0)
(0 0 0)
(0 0 0)
(0 0 0)
(0 0 0)
(0 0 0)
(0 0 0)
(0 0 0)
(0 0 0)
(0 0 0)
(0 0 0)
(0 0 0)
(0 0 0)
(0 0 0)
(0 0 0)
(0 0 0)
(0 0 0)
(0 0 0)
(0 0 0)
(0 0 0)
(0 0 0)
(0 0 0)
(0 0 0)
(0 0 0)
(0 0 0)
(0 0 0)
(0 0 0)
(0 -0.000161038 0)
(0 -0.000180359 0)
(0 -0.000123579 0)
(0 -0.000147375 0)
(0 -9.94235e-05 0)
(0 -0.000148151 0)
(0 -8.4989e-05 0)
(0 -0.000159886 0)
(0 -6.79484e-05 0)
(0 -0.000114495 0)
(0 -7.41236e-05 0)
(0 -5.10943e-05 0)
(0 -5.02558e-05 0)
(0 -0.000153354 0)
(0 -4.73301e-05 0)
(0 -3.70147e-05 0)
(0 -3.57028e-05 0)
(0 -0.000174993 0)
(0 -0.00011064 0)
(0 -9.35241e-05 0)
(0 -2.84805e-05 0)
(0 -1.94137e-05 0)
(0 -0.000150755 0)
(0 -0.000181602 0)
(0 -0.000158769 0)
(0 -0.00016001 0)
(0 -0.000129386 0)
(0 -5.45654e-05 0)
(0 -7.02357e-05 0)
(0 -6.47284e-05 0)
(0 -5.79808e-05 0)
(0 -1.88072e-05 0)
(0 -1.1855e-05 0)
(0 -1.02386e-05 0)
(0 -0.000162291 0)
(0 -0.000183468 0)
(0 -0.000155604 0)
(0 -0.000142016 0)
(0 -0.000154068 0)
(0 -0.000113097 0)
(0 -7.90568e-05 0)
(0 -9.42481e-05 0)
(0 -0.000131146 0)
(0 -3.28508e-05 0)
(0 -8.9423e-05 0)
(0 -6.22016e-05 0)
(0 -4.65797e-05 0)
(0 -3.8132e-05 0)
(0 -2.64212e-05 0)
(0 -4.56924e-05 0)
(0 -5.12874e-06 0)
(0 -0.000989589 0)
(0 -0.000948078 0)
(0 -0.00100349 0)
(0 -0.000961345 0)
(0 -0.00101839 0)
(0 -0.000976004 0)
(0 -0.00103471 0)
(0 -0.000992445 0)
(0 -0.00105252 0)
(0 -0.00101081 0)
(0 -0.00107162 0)
(0 -0.00103092 0)
(0 -0.00109136 0)
(0 -0.00105174 0)
(0 -0.00111312 0)
(0 -0.00107246 0)
(0 -0.00113497 0)
(0 -0.00109469 0)
(0 -0.00115871 0)
(0 -0.00112131 0)
(0 -0.00118886 0)
(0 -0.00114998 0)
(0 -0.00121964 0)
(0 -0.00118139 0)
(0 -0.00125009 0)
(0 -0.00121519 0)
(0 -0.001284 0)
(0 -0.0012503 0)
(0 -0.0013216 0)
(0 -0.00128734 0)
(0 -0.00135911 0)
(0 -0.0013265 0)
(0 -0.00139849 0)
(0 -0.00136778 0)
(0 -0.00144045 0)
(0 -0.00141141 0)
(0 -0.001485 0)
(0 -0.00145775 0)
(0 -0.0015307 0)
(0 -0.00150396 0)
(0 -0.00157528 0)
(0 -0.00155046 0)
(0 -0.00162278 0)
(0 -0.00159752 0)
(0 -0.00167113 0)
(0 -0.00164504 0)
(0 -0.00172006 0)
(0 -0.00169562 0)
(0 -0.00177209 0)
(0 -0.00174795 0)
(0 -0.00182407 0)
(0 -0.00180025 0)
(0 -0.00187732 0)
(0 -0.00172152 0)
(0 -0.00177629 0)
(0 -0.00189904 0)
(0 -0.00195106 0)
(0 -0.00156527 0)
(0 -0.00129189 0)
(0 -0.00111359 0)
(0 -0.00197427 0)
(0 -0.00202433 0)
(0 -0.00204921 0)
(0 -0.00209812 0)
(0 -0.00212175 0)
(0 -0.00216978 0)
(0 -0.00219453 0)
(0 -0.00224385 0)
(0 -0.00226834 0)
(0 -0.00231709 0)
(0 -0.0023376 0)
(0 -0.00238541 0)
(0 -0.00240314 0)
(0 -0.00245214 0)
(0 -0.00246698 0)
(0 -0.00251644 0)
(0 -0.00252682 0)
(0 -0.00257398 0)
(0 -0.00258125 0)
(0 -0.0026239 0)
(0 -0.00262855 0)
(0 -0.00266716 0)
(0 -0.00266425 0)
(0 -0.0027073 0)
(0 -0.00270443 0)
(0 -0.00274765 0)
(0 -0.00274325 0)
(0 -0.00278612 0)
(0 -0.00277983 0)
(0 -0.00282164 0)
(0 -0.00281613 0)
(0 -0.00285729 0)
(0 -0.00285165 0)
(0 -0.00289229 0)
(0 -0.00288429 0)
(0 -0.00292251 0)
(0 -0.00291232 0)
(0 -0.00294919 0)
(0 -0.00293766 0)
(0 -0.00297421 0)
(0 -0.00299578 0)
(0 -0.00300545 0)
(0 -0.00302567 0)
(0 -0.00304276 0)
(0 -0.0028232 0)
(0 -0.00305133 0)
(0 -0.00306843 0)
(0 -0.00309108 0)
(0 -0.00310468 0)
(0 -0.00312311 0)
(0 -0.00313204 0)
(0 -0.00313732 0)
(0 -0.00314589 0)
(0 -0.00315112 0)
(0 -0.00315602 0)
(0 -0.00316012 0)
(0 -0.00316553 0)
(0 -0.00316452 0)
(0 -0.00316562 0)
(0 -0.00316081 0)
(0 -0.00316261 0)
(0 -0.00315768 0)
(0 -0.00315011 0)
(0 -0.00315164 0)
(0 -0.00314346 0)
(0 -0.0031323 0)
(0 -0.0031218 0)
(0 -0.00310889 0)
(0 -0.00309504 0)
(0 -0.00258821 0)
(0 -0.00309292 0)
(0 -0.00307782 0)
(0 -0.00305942 0)
(0 -0.00305472 0)
(0 -0.00303756 0)
(0 -0.00301321 0)
(0 -0.00299294 0)
(0 -0.00296535 0)
(0 -0.00294079 0)
(0 -0.00293483 0)
(0 -0.00291057 0)
(0 -0.00288339 0)
(0 -0.00287868 0)
(0 -0.0028526 0)
(0 -0.00282295 0)
(0 -0.00281889 0)
(0 -0.00279042 0)
(0 -0.00133824 0)
(0 -0.00275332 0)
(0 -0.00272114 0)
(0 -0.00268187 0)
(0 -0.00264702 0)
(0 -0.00264089 0)
(0 -0.00260648 0)
(0 -0.00257026 0)
(0 -0.00256419 0)
(0 -0.002529 0)
(0 -0.00248608 0)
(0 -0.00244976 0)
(0 -0.00240636 0)
(0 -0.00236748 0)
(0 -0.00236124 0)
(0 -0.00232288 0)
(0 -0.00228301 0)
(0 -0.00227702 0)
(0 -0.00223759 0)
(0 -0.00219116 0)
(0 -0.0011456 0)
(0 -0.0010096 0)
(0 -0.00263452 0)
(0 -0.00259612 0)
(0 -0.00264203 0)
(0 -0.00260424 0)
(0 -0.00264832 0)
(0 -0.00261025 0)
(0 -0.00265839 0)
(0 -0.00261401 0)
(0 -0.00265309 0)
(0 -0.00261594 0)
(0 -0.00264988 0)
(0 -0.0026133 0)
(0 -0.00264388 0)
(0 -0.00260666 0)
(0 -0.00263515 0)
(0 -0.00259721 0)
(0 -0.00262182 0)
(0 -0.00258135 0)
(0 -0.00260339 0)
(0 -0.00255941 0)
(0 -0.00257851 0)
(0 -0.00262331 0)
(0 -0.00259378 0)
(0 -0.00263848 0)
(0 -0.00260529 0)
(0 -0.00264896 0)
(0 -0.00253217 0)
(0 -0.00251269 0)
(0 -0.002614 0)
(0 -0.00265691 0)
(0 -0.0024849 0)
(0 -0.00246559 0)
(0 -0.00261832 0)
(0 -0.00265949 0)
(0 -0.00243765 0)
(0 -0.00241789 0)
(0 -0.002608 0)
(0 -0.00265719 0)
(0 -0.00238903 0)
(0 -0.00236695 0)
(0 -0.00233875 0)
(0 -0.0023157 0)
(0 -0.00260787 0)
(0 -0.00265092 0)
(0 -0.00228865 0)
(0 -0.00226716 0)
(0 -0.00259651 0)
(0 -0.0026398 0)
(0 -0.00223884 0)
(0 -0.00222025 0)
(0 -0.00255684 0)
(0 -0.00218927 0)
(0 -0.00217388 0)
(0 -0.00257906 0)
(0 -0.00262414 0)
(0 -0.00220175 0)
(0 -0.00214098 0)
(0 -0.00212849 0)
(0 -0.00255686 0)
(0 -0.00260321 0)
(0 -0.00209505 0)
(0 -0.00208403 0)
(0 -0.00253061 0)
(0 -0.0025765 0)
(0 -0.00205029 0)
(0 -0.0020394 0)
(0 -0.00287132 0)
(0 -0.00250006 0)
(0 -0.00254595 0)
(0 -0.0020044 0)
(0 -0.00199375 0)
(0 -0.00202273 0)
(0 -0.00197703 0)
(0 -0.00194676 0)
(0 -0.00193147 0)
(0 -0.0022432 0)
(0 -0.00246624 0)
(0 -0.00251196 0)
(0 -0.00189987 0)
(0 -0.00188528 0)
(0 -0.00191145 0)
(0 -0.0018671 0)
(0 -0.00183788 0)
(0 -0.00182219 0)
(0 -0.00179064 0)
(0 -0.00177702 0)
(0 -0.00242849 0)
(0 -0.00247366 0)
(0 -0.00255528 0)
(0 -0.00251659 0)
(0 -0.00243101 0)
(0 -0.00247373 0)
(0 -0.00245544 0)
(0 -0.00184681 0)
(0 -0.000931555 0)
(0 -0.00174401 0)
(0 -0.00173281 0)
(0 -0.00255726 0)
(0 -0.00251476 0)
(0 -0.00242839 0)
(0 -0.00246974 0)
(0 -0.00238036 0)
(0 -0.00242196 0)
(0 -0.0025093 0)
(0 -0.00246227 0)
(0 -0.00237181 0)
(0 -0.00241177 0)
(0 -0.00201035 0)
(0 -0.00250035 0)
(0 -0.00244991 0)
(0 -0.0023586 0)
(0 -0.00239774 0)
(0 -0.002304 0)
(0 -0.00234384 0)
(0 -0.00243833 0)
(0 -0.00238347 0)
(0 -0.00228866 0)
(0 -0.00232594 0)
(0 -0.00241608 0)
(0 -0.00236013 0)
(0 -0.00226812 0)
(0 -0.00230347 0)
(0 -0.00169853 0)
(0 -0.00168942 0)
(0 -0.00170608 0)
(0 -0.00220795 0)
(0 -0.00224256 0)
(0 -0.00233366 0)
(0 -0.00227392 0)
(0 -0.00218114 0)
(0 -0.00221339 0)
(0 -0.00257383 0)
(0 -0.00267632 0)
(0 -0.00230202 0)
(0 -0.00224264 0)
(0 -0.00215261 0)
(0 -0.00218313 0)
(0 -0.00209132 0)
(0 -0.00212238 0)
(0 -0.00220853 0)
(0 -0.00214876 0)
(0 -0.0020601 0)
(0 -0.00208839 0)
(0 -0.00217466 0)
(0 -0.00211582 0)
(0 -0.00202463 0)
(0 -0.00205118 0)
(0 -0.00195777 0)
(0 -0.00198213 0)
(0 -0.00206795 0)
(0 -0.00200259 0)
(0 -0.00191514 0)
(0 -0.00193726 0)
(0 -0.00202113 0)
(0 -0.00195705 0)
(0 -0.00187195 0)
(0 -0.00189266 0)
(0 -0.00180695 0)
(0 -0.00182782 0)
(0 -0.00190852 0)
(0 -0.00184587 0)
(0 -0.00176299 0)
(0 -0.00178126 0)
(0 -0.00165466 0)
(0 -0.00164654 0)
(0 -0.0016771 0)
(0 -0.00163545 0)
(0 -0.00165994 0)
(0 -0.00162058 0)
(0 -0.00159413 0)
(0 -0.00158165 0)
(0 -0.00155395 0)
(0 -0.0015431 0)
(0 -0.00185999 0)
(0 -0.0017967 0)
(0 -0.0017174 0)
(0 -0.00173403 0)
(0 -0.00165412 0)
(0 -0.00167089 0)
(0 -0.00174569 0)
(0 -0.00168351 0)
(0 -0.00160791 0)
(0 -0.00162195 0)
(0 -0.00170154 0)
(0 -0.00163255 0)
(0 -0.00156051 0)
(0 -0.0015691 0)
(0 -0.0016361 0)
(0 -0.00157529 0)
(0 -0.0015052 0)
(0 -0.00151216 0)
(0 -0.00157969 0)
(0 -0.00151688 0)
(0 -0.00158155 0)
(0 -0.001519 0)
(0 -0.00158069 0)
(0 -0.00151857 0)
(0 -0.00145718 0)
(0 -0.00145712 0)
(0 -0.00151557 0)
(0 -0.00145432 0)
(0 -0.00139603 0)
(0 -0.0013932 0)
(0 -0.0014486 0)
(0 -0.00138744 0)
(0 -0.00144008 0)
(0 -0.00137871 0)
(0 -0.00142876 0)
(0 -0.00136736 0)
(0 -0.00141482 0)
(0 -0.00135345 0)
(0 -0.00130593 0)
(0 -0.00129233 0)
(0 -0.00133736 0)
(0 -0.00127665 0)
(0 -0.00131916 0)
(0 -0.00125916 0)
(0 -0.00129913 0)
(0 -0.00123954 0)
(0 -0.00127714 0)
(0 -0.0012 0)
(0 -0.00121789 0)
(0 -0.00125304 0)
(0 -0.00119427 0)
(0 -0.00122706 0)
(0 -0.00116868 0)
(0 -0.00119924 0)
(0 -0.00114099 0)
(0 -0.00116931 0)
(0 -0.00133543 0)
(0 -0.00111056 0)
(0 -0.0011111 0)
(0 -0.00113729 0)
(0 -0.00107908 0)
(0 -0.00110327 0)
(0 -0.0022962 0)
(0 -0.00151414 0)
(0 -0.00150446 0)
(0 -0.00104495 0)
(0 -0.00106715 0)
(0 -0.00163922 0)
(0 -0.00122752 0)
(0 -0.00147338 0)
(0 -0.00146353 0)
(0 -0.00221828 0)
(0 -0.00100881 0)
(0 -0.00102906 0)
(0 -0.000986625 0)
(0 -0.00108714 0)
(0 -0.00104723 0)
(0 -0.00110499 0)
(0 -0.00106337 0)
(0 -0.00133734 0)
(0 -0.00269974 0)
(0 -0.00143001 0)
(0 -0.00149027 0)
(0 -0.00143399 0)
(0 -0.00100575 0)
(0 -0.00102034 0)
(0 -0.00112055 0)
(0 -0.001476 0)
(0 -0.000962835 0)
(0 -0.000976035 0)
(0 -0.000918553 0)
(0 -0.000930563 0)
(0 -0.000872898 0)
(0 -0.000883749 0)
(0 -0.000940923 0)
(0 -0.000892965 0)
(0 -0.000949349 0)
(0 -0.00268921 0)
(0 -0.000825885 0)
(0 -0.000814669 0)
(0 -0.00240428 0)
(0 -0.00238552 0)
(0 -0.000767467 0)
(0 -0.000756002 0)
(0 -0.00147988 0)
(0 -0.00292788 0)
(0 -0.00164346 0)
(0 -0.00144159 0)
(0 -0.00124511 0)
(0 -0.00277177 0)
(0 -0.00170241 0)
(0 -0.00139068 0)
(0 -0.00117998 0)
(0 -0.00104377 0)
(0 -0.000708701 0)
(0 -0.000697048 0)
(0 -0.00207514 0)
(0 -0.000649571 0)
(0 -0.000637654 0)
(0 -0.00257913 0)
(0 -0.00110654 0)
(0 -0.00085053 0)
(0 -0.000801158 0)
(0 -0.00255439 0)
(0 -0.001465 0)
(0 -0.00151075 0)
(0 -0.00156395 0)
(0 -0.00155521 0)
(0 -0.00160875 0)
(0 -0.00159813 0)
(0 -0.00165215 0)
(0 -0.00163961 0)
(0 -0.00169391 0)
(0 -0.00167981 0)
(0 -0.00173389 0)
(0 -0.00171801 0)
(0 -0.00177266 0)
(0 -0.0017557 0)
(0 -0.00180916 0)
(0 -0.0017879 0)
(0 -0.00184205 0)
(0 -0.00181555 0)
(0 -0.00187133 0)
(0 -0.00183702 0)
(0 -0.00190035 0)
(0 -0.00187192 0)
(0 -0.00192966 0)
(0 -0.00189931 0)
(0 -0.00195636 0)
(0 -0.000684038 0)
(0 -0.000624438 0)
(0 -0.000669599 0)
(0 -0.000609968 0)
(0 -0.000653816 0)
(0 -0.000594154 0)
(0 -0.000636684 0)
(0 -0.000577238 0)
(0 -0.00061836 0)
(0 -0.000559335 0)
(0 -0.000599007 0)
(0 -0.000540568 0)
(0 -0.000578761 0)
(0 -0.000521051 0)
(0 -0.000557547 0)
(0 -0.000500823 0)
(0 -0.000535528 0)
(0 -0.000591929 0)
(0 -0.000568146 0)
(0 -0.000512814 0)
(0 -0.000543285 0)
(0 -0.00059844 0)
(0 -0.000571537 0)
(0 -0.000517777 0)
(0 -0.000543555 0)
(0 -0.000597101 0)
(0 -0.000566659 0)
(0 -0.000514987 0)
(0 -0.000535855 0)
(0 -0.000587359 0)
(0 -0.00055444 0)
(0 -0.000504468 0)
(0 -0.000520304 0)
(0 -0.000570021 0)
(0 -0.000533134 0)
(0 -0.000581946 0)
(0 -0.000485633 0)
(0 -0.000542793 0)
(0 -0.000590852 0)
(0 -0.000549495 0)
(0 -0.000597136 0)
(0 -0.000553491 0)
(0 -0.000601549 0)
(0 -0.000554786 0)
(0 -0.000602782 0)
(0 -0.000508728 0)
(0 -0.000553034 0)
(0 -0.000600361 0)
(0 -0.000631923 0)
(0 -0.000548397 0)
(0 -0.000595652 0)
(0 -0.000652551 0)
(0 -0.00054126 0)
(0 -0.000588461 0)
(0 -0.000495914 0)
(0 -0.000531432 0)
(0 -0.000578422 0)
(0 -0.000637344 0)
(0 -0.000627047 0)
(0 -0.000687682 0)
(0 -0.000677396 0)
(0 -0.000614005 0)
(0 -0.000664322 0)
(0 -0.000729411 0)
(0 -0.000716147 0)
(0 -0.000648056 0)
(0 -0.000699619 0)
(0 -0.000628358 0)
(0 -0.000679733 0)
(0 -0.000752799 0)
(0 -0.000732806 0)
(0 -0.00101409 0)
(0 -0.0010803 0)
(0 -0.000656668 0)
(0 -0.000709716 0)
(0 -0.000787505 0)
(0 -0.000764358 0)
(0 -0.000843655 0)
(0 -0.000820427 0)
(0 -0.000738043 0)
(0 -0.000794008 0)
(0 -0.00058993 0)
(0 -0.000600897 0)
(0 -0.000869281 0)
(0 -0.0008191 0)
(0 -0.000752779 0)
(0 -0.000771049 0)
(0 -0.000706806 0)
(0 -0.000725138 0)
(0 -0.000835427 0)
(0 -0.000663521 0)
(0 -0.000682253 0)
(0 -0.00162687 0)
(0 -0.00070856 0)
(0 -0.000764505 0)
(0 -0.000981772 0)
(0 -0.00105138 0)
(0 -0.000517784 0)
(0 -0.00192395 0)
(0 -0.00198171 0)
(0 -0.00175501 0)
(0 -0.00085139 0)
(0 -0.000821977 0)
(0 -0.00073191 0)
(0 -0.000789074 0)
(0 -0.000880531 0)
(0 -0.000847349 0)
(0 -0.00150059 0)
(0 -0.000939917 0)
(0 -0.000906735 0)
(0 -0.000810895 0)
(0 -0.000870065 0)
(0 -0.000967054 0)
(0 -0.000930201 0)
(0 -0.000829991 0)
(0 -0.000890126 0)
(0 -0.000991218 0)
(0 -0.000951189 0)
(0 -0.000846755 0)
(0 -0.000907803 0)
(0 -0.00101316 0)
(0 -0.000969959 0)
(0 -0.00107626 0)
(0 -0.00103364 0)
(0 -0.000923969 0)
(0 -0.000987991 0)
(0 -0.00109873 0)
(0 -0.00105296 0)
(0 -0.000938433 0)
(0 -0.00100301 0)
(0 -0.00111848 0)
(0 -0.00106868 0)
(0 -0.00118475 0)
(0 -0.00113557 0)
(0 -0.00101619 0)
(0 -0.00108325 0)
(0 -0.00120291 0)
(0 -0.00115031 0)
(0 -0.00102706 0)
(0 -0.00109402 0)
(0 -0.00121786 0)
(0 -0.0011625 0)
(0 -0.00128692 0)
(0 -0.00123323 0)
(0 -0.0011054 0)
(0 -0.00117702 0)
(0 -0.00130393 0)
(0 -0.00124774 0)
(0 -0.00111745 0)
(0 -0.00118862 0)
(0 -0.00131787 0)
(0 -0.00125873 0)
(0 -0.00112467 0)
(0 -0.00119515 0)
(0 -0.00132885 0)
(0 -0.0012662 0)
(0 -0.00139929 0)
(0 -0.00133783 0)
(0 -0.00120157 0)
(0 -0.00127411 0)
(0 -0.00140911 0)
(0 -0.00134606 0)
(0 -0.00120793 0)
(0 -0.00128107 0)
(0 -0.00141848 0)
(0 -0.00135524 0)
(0 -0.00149177 0)
(0 -0.00143032 0)
(0 -0.00129073 0)
(0 -0.00136681 0)
(0 -0.0015034 0)
(0 -0.00144019 0)
(0 -0.00129937 0)
(0 -0.00137399 0)
(0 -0.00151323 0)
(0 -0.00144839 0)
(0 -0.00130228 0)
(0 -0.00137617 0)
(0 -0.0015217 0)
(0 -0.00144782 0)
(0 -0.00159101 0)
(0 -0.00151708 0)
(0 -0.00137071 0)
(0 -0.00144049 0)
(0 -0.00158484 0)
(0 -0.00150899 0)
(0 -0.0013615 0)
(0 -0.00143022 0)
(0 -0.00157608 0)
(0 -0.00149718 0)
(0 -0.00163986 0)
(0 -0.001561 0)
(0 -0.00141646 0)
(0 -0.00148035 0)
(0 -0.00162095 0)
(0 -0.00154157 0)
(0 -0.00167832 0)
(0 -0.00160127 0)
(0 -0.00173388 0)
(0 -0.00165782 0)
(0 -0.00152241 0)
(0 -0.00157893 0)
(0 -0.00170848 0)
(0 -0.00163176 0)
(0 -0.00175612 0)
(0 -0.00168307 0)
(0 -0.00180288 0)
(0 -0.00173212 0)
(0 -0.00161136 0)
(0 -0.00166249 0)
(0 -0.00177757 0)
(0 -0.00170938 0)
(0 -0.00159414 0)
(0 -0.00164226 0)
(0 -0.00152551 0)
(0 -0.00157413 0)
(0 -0.00181908 0)
(0 -0.00145561 0)
(0 -0.00150417 0)
(0 -0.00161758 0)
(0 -0.00154899 0)
(0 -0.00143219 0)
(0 -0.00147797 0)
(0 -0.001402 0)
(0 -0.00165759 0)
(0 -0.00144265 0)
(0 -0.00135829 0)
(0 -0.00140408 0)
(0 -0.0012822 0)
(0 -0.0013271 0)
(0 -0.0014429 0)
(0 -0.00136653 0)
(0 -0.00147617 0)
(0 -0.0014021 0)
(0 -0.00129158 0)
(0 -0.00132921 0)
(0 -0.00143483 0)
(0 -0.00136488 0)
(0 -0.00125743 0)
(0 -0.00129626 0)
(0 -0.00123174 0)
(0 -0.00118681 0)
(0 -0.0012297 0)
(0 -0.00146589 0)
(0 -0.00133599 0)
(0 -0.00250533 0)
(0 -0.000463875 0)
(0 -0.000946616 0)
(0 -0.00101987 0)
(0 -0.00187337 0)
(0 -0.0026802 0)
(0 -0.00194752 0)
(0 -0.00200531 0)
(0 -0.00111893 0)
(0 -0.00196863 0)
(0 -0.00202706 0)
(0 -0.002061 0)
(0 -0.0020849 0)
(0 -0.00204539 0)
(0 -0.00210398 0)
(0 -0.00214341 0)
(0 -0.00216186 0)
(0 -0.00211874 0)
(0 -0.00217674 0)
(0 -0.00221882 0)
(0 -0.00223378 0)
(0 -0.00227474 0)
(0 -0.00229022 0)
(0 -0.00224641 0)
(0 -0.00230336 0)
(0 -0.00234619 0)
(0 -0.00235966 0)
(0 -0.00231406 0)
(0 -0.00237073 0)
(0 -0.00241486 0)
(0 -0.00242601 0)
(0 -0.00246848 0)
(0 -0.00248025 0)
(0 -0.00243488 0)
(0 -0.0024894 0)
(0 -0.00253279 0)
(0 -0.00254227 0)
(0 -0.00249578 0)
(0 -0.0025489 0)
(0 -0.00259362 0)
(0 -0.00260041 0)
(0 -0.0025524 0)
(0 -0.00260415 0)
(0 -0.0026502 0)
(0 -0.00265434 0)
(0 -0.00269893 0)
(0 -0.00270367 0)
(0 -0.00265572 0)
(0 -0.00270519 0)
(0 -0.00275133 0)
(0 -0.00275265 0)
(0 -0.00279645 0)
(0 -0.00279785 0)
(0 -0.00275163 0)
(0 -0.00279646 0)
(0 -0.00284038 0)
(0 -0.00283857 0)
(0 -0.00279224 0)
(0 -0.00283428 0)
(0 -0.00287805 0)
(0 -0.00287404 0)
(0 -0.00282755 0)
(0 -0.0028676 0)
(0 -0.00291162 0)
(0 -0.00290539 0)
(0 -0.00294771 0)
(0 -0.00294212 0)
(0 -0.00289729 0)
(0 -0.00293479 0)
(0 -0.00297698 0)
(0 -0.00297028 0)
(0 -0.00292603 0)
(0 -0.00296217 0)
(0 -0.00300326 0)
(0 -0.00299482 0)
(0 -0.00303196 0)
(0 -0.00302334 0)
(0 -0.00298331 0)
(0 -0.00301227 0)
(0 -0.00305312 0)
(0 -0.00303695 0)
(0 -0.00299773 0)
(0 -0.00302084 0)
(0 -0.00305508 0)
(0 -0.00303802 0)
(0 -0.00306758 0)
(0 -0.00304911 0)
(0 -0.00301797 0)
(0 -0.00302781 0)
(0 -0.00305578 0)
(0 -0.00303295 0)
(0 -0.00305761 0)
(0 -0.00303388 0)
(0 -0.00299533 0)
(0 -0.00305627 0)
(0 -0.0030319 0)
(0 -0.00300772 0)
(0 -0.00300531 0)
(0 -0.00302687 0)
(0 -0.00300006 0)
(0 -0.00297777 0)
(0 -0.00297185 0)
(0 -0.00299089 0)
(0 -0.00296148 0)
(0 -0.000623134 0)
(0 -0.000643482 0)
(0 -0.000603998 0)
(0 -0.00070234 0)
(0 -0.000664268 0)
(0 -0.000724578 0)
(0 -0.000686577 0)
(0 -0.000627818 0)
(0 -0.000650219 0)
(0 -0.00058906 0)
(0 -0.000617997 0)
(0 -0.000676541 0)
(0 -0.000644171 0)
(0 -0.000589124 0)
(0 -0.000612781 0)
(0 -0.000561079 0)
(0 -0.000582522 0)
(0 -0.00053349 0)
(0 -0.000556918 0)
(0 -0.000587226 0)
(0 -0.000540631 0)
(0 -0.000550901 0)
(0 -0.00268151 0)
(0 -0.00307788 0)
(0 -0.00111918 0)
(0 -0.00166173 0)
(0 -0.00115365 0)
(0 -0.00188668 0)
(0 -0.00295005 0)
(0 -0.000707834 0)
(0 -0.00107228 0)
(0 -0.00180644 0)
(0 -0.00109101 0)
(0 -0.00118611 0)
(0 -0.000994728 0)
(0 -0.00297791 0)
(0 -0.0029473 0)
(0 -0.00167641 0)
(0 -0.0016496 0)
(0 -0.00168408 0)
(0 -0.00165305 0)
(0 -0.00168373 0)
(0 -0.0016495 0)
(0 -0.00167805 0)
(0 -0.0016402 0)
(0 -0.0016653 0)
(0 -0.00162489 0)
(0 -0.00164771 0)
(0 -0.00160196 0)
(0 -0.0016044 0)
(0 -0.00162833 0)
(0 -0.00158113 0)
(0 -0.00160574 0)
(0 -0.00165515 0)
(0 -0.00163289 0)
(0 -0.00168387 0)
(0 -0.00166157 0)
(0 -0.00171285 0)
(0 -0.00169129 0)
(0 -0.00174293 0)
(0 -0.00172291 0)
(0 -0.00177416 0)
(0 -0.00175396 0)
(0 -0.00180599 0)
(0 -0.00178565 0)
(0 -0.00183866 0)
(0 -0.00181684 0)
(0 -0.0018708 0)
(0 -0.00184676 0)
(0 -0.00190224 0)
(0 -0.00187957 0)
(0 -0.00193514 0)
(0 -0.00191356 0)
(0 -0.00196954 0)
(0 -0.00194853 0)
(0 -0.00200509 0)
(0 -0.0019844 0)
(0 -0.00204136 0)
(0 -0.0020207 0)
(0 -0.00158023 0)
(0 -0.00166794 0)
(0 -0.00178617 0)
(0 -0.00207934 0)
(0 -0.00205837 0)
(0 -0.00188846 0)
(0 -0.00198841 0)
(0 -0.00203534 0)
(0 -0.00195294 0)
(0 -0.00211801 0)
(0 -0.00186103 0)
(0 -0.00197331 0)
(0 -0.00201286 0)
(0 -0.00213494 0)
(0 -0.0021751 0)
(0 -0.00194843 0)
(0 -0.00198819 0)
(0 -0.00205458 0)
(0 -0.00218874 0)
(0 -0.00223024 0)
(0 -0.00203027 0)
(0 -0.00209783 0)
(0 -0.00176314 0)
(0 -0.00189299 0)
(0 -0.00109823 0)
(0 -0.00162124 0)
(0 -0.00256538 0)
(0 -0.00196178 0)
(0 -0.0020043 0)
(0 -0.000509994 0)
(0 -0.000489943 0)
(0 -0.00049968 0)
(0 -0.00047963 0)
(0 -0.00116218 0)
(0 -0.000565815 0)
(0 -0.000547687 0)
(0 -0.000872378 0)
(0 -0.00200001 0)
(0 -0.00100271 0)
(0 -0.00170678 0)
(0 -0.000657637 0)
(0 -0.00296164 0)
(0 -0.00299248 0)
(0 -0.00292942 0)
(0 -0.00291543 0)
(0 -0.00198217 0)
(0 -0.00223953 0)
(0 -0.00219893 0)
(0 -0.00228201 0)
(0 -0.00227329 0)
(0 -0.00116128 0)
(0 -0.00125349 0)
(0 -0.001017 0)
(0 -0.00289659 0)
(0 -0.00288234 0)
(0 -0.000950939 0)
(0 -0.000437894 0)
(0 -0.000447109 0)
(0 -0.00178852 0)
(0 -0.00191261 0)
(0 -0.00193413 0)
(0 -0.00105122 0)
(0 -0.00093206 0)
(0 -0.000956209 0)
(0 -0.000511536 0)
(0 -0.000497334 0)
(0 -0.000950399 0)
(0 -0.000928203 0)
(0 -0.00197815 0)
(0 -0.00232509 0)
(0 -0.00231669 0)
(0 -0.00224594 0)
(0 -0.00220547 0)
(0 -0.00241925 0)
(0 -0.00123105 0)
(0 -0.00132002 0)
(0 -0.00132303 0)
(0 -0.00129003 0)
(0 -0.00133835 0)
(0 -0.00130737 0)
(0 -0.00135668 0)
(0 -0.00132539 0)
(0 -0.00137628 0)
(0 -0.00134442 0)
(0 -0.00139738 0)
(0 -0.00136473 0)
(0 -0.00130982 0)
(0 -0.00132947 0)
(0 -0.00138612 0)
(0 -0.00135066 0)
(0 -0.00140804 0)
(0 -0.00137304 0)
(0 -0.00143142 0)
(0 -0.00139627 0)
(0 -0.00145611 0)
(0 -0.00142029 0)
(0 -0.00147956 0)
(0 -0.00144583 0)
(0 -0.00150569 0)
(0 -0.00147282 0)
(0 -0.00153263 0)
(0 -0.00150005 0)
(0 -0.00155988 0)
(0 -0.00152822 0)
(0 -0.0015908 0)
(0 -0.00155784 0)
(0 -0.00294139 0)
(0 -0.00117722 0)
(0 -0.00121898 0)
(0 -0.000384398 0)
(0 -0.000393079 0)
(0 -0.0016233 0)
(0 -0.00159042 0)
(0 -0.000531126 0)
(0 -0.000482172 0)
(0 -0.00133676 0)
(0 -0.00139929 0)
(0 -0.00138401 0)
(0 -0.000977532 0)
(0 -0.000857595 0)
(0 -0.0015167 0)
(0 -0.00131277 0)
(0 -0.000465509 0)
(0 -0.000476132 0)
(0 -0.00286281 0)
(0 -0.00284882 0)
(0 -0.0028655 0)
(0 -0.00117114 0)
(0 -0.00125627 0)
(0 -0.0015597 0)
(0 -0.00211198 0)
(0 -0.000870894 0)
(0 -0.00163414 0)
(0 -0.000904389 0)
(0 -0.00224916 0)
(0 -0.00220835 0)
(0 -0.00189188 0)
(0 -0.00186324 0)
(0 -0.00182359 0)
(0 -0.00287327 0)
(0 -0.00153345 0)
(0 -0.00155915 0)
(0 -0.00162332 0)
(0 -0.00164321 0)
(0 -0.00158184 0)
(0 -0.00170272 0)
(0 -0.00165984 0)
(0 -0.00160098 0)
(0 -0.00167324 0)
(0 -0.00161589 0)
(0 -0.00123367 0)
(0 -0.00127561 0)
(0 -0.00119019 0)
(0 -0.00307403 0)
(0 -0.00309423 0)
(0 -0.00308802 0)
(0 -0.00310694 0)
(0 -0.00311259 0)
(0 -0.00309815 0)
(0 -0.00191601 0)
(0 -0.00198403 0)
(0 -0.00202236 0)
(0 -0.0020882 0)
(0 -0.00212171 0)
(0 -0.00218713 0)
(0 -0.00221358 0)
(0 -0.00215228 0)
(0 -0.00214872 0)
(0 -0.00223427 0)
(0 -0.00217032 0)
(0 -0.00224999 0)
(0 -0.00218791 0)
(0 -0.0022623 0)
(0 -0.00220221 0)
(0 -0.00212746 0)
(0 -0.0021434 0)
(0 -0.00206769 0)
(0 -0.00208478 0)
(0 -0.00215612 0)
(0 -0.00209871 0)
(0 -0.00202553 0)
(0 -0.00204115 0)
(0 -0.00196797 0)
(0 -0.00198364 0)
(0 -0.00191182 0)
(0 -0.00291598 0)
(0 -0.000968405 0)
(0 -0.00281898 0)
(0 -0.00105205 0)
(0 -0.00122651 0)
(0 -0.001716 0)
(0 -0.0026548 0)
(0 -0.00172976 0)
(0 -0.00166085 0)
(0 -0.00172572 0)
(0 -0.00179098 0)
(0 -0.00185234 0)
(0 -0.0019118 0)
(0 -0.00197231 0)
(0 -0.00155176 0)
(0 -0.00113966 0)
(0 -0.00298114 0)
(0 -0.00199968 0)
(0 -0.00145839 0)
(0 -0.00232228 0)
(0 -0.0016234 0)
(0 -0.0016801 0)
(0 -0.00174978 0)
(0 -0.0010577 0)
(0 -0.00308271 0)
(0 -0.0021308 0)
(0 -0.000749298 0)
(0 -0.000788295 0)
(0 -0.000815017 0)
(0 -0.000854454 0)
(0 -0.00152774 0)
(0 -0.0015818 0)
(0 -0.00164968 0)
(0 -0.00295077 0)
(0 -0.00298512 0)
(0 -0.0029858 0)
(0 -0.003018 0)
(0 -0.00301673 0)
(0 -0.00304619 0)
(0 -0.00304721 0)
(0 -0.00307261 0)
(0 -0.00307351 0)
(0 -0.0013379 0)
(0 -0.00140714 0)
(0 -0.0014536 0)
(0 -0.0015222 0)
(0 -0.000967289 0)
(0 -0.00269099 0)
(0 -0.00273858 0)
(0 -0.00272744 0)
(0 -0.00277377 0)
(0 -0.00276007 0)
(0 -0.0028043 0)
(0 -0.00245431 0)
(0 -0.00250602 0)
(0 -0.00248909 0)
(0 -0.00253933 0)
(0 -0.00251947 0)
(0 -0.00225652 0)
(0 -0.0023114 0)
(0 -0.00228899 0)
(0 -0.00234515 0)
(0 -0.00123057 0)
(0 -0.00129687 0)
(0 -0.00133782 0)
(0 -0.00140251 0)
(0 -0.00111576 0)
(0 -0.00121448 0)
(0 -0.000969877 0)
(0 -0.000647022 0)
(0 -0.000885228 0)
(0 -0.00117965 0)
(0 -0.00121535 0)
(0 -0.00127966 0)
(0 -0.00103003 0)
(0 -0.00105652 0)
(0 -0.00111746 0)
(0 -0.0011402 0)
(0 -0.0025533 0)
(0 -0.000518741 0)
(0 -0.000863483 0)
(0 -0.000920664 0)
(0 -0.00093701 0)
(0 -0.000995154 0)
(0 -0.00100814 0)
(0 -0.00106773 0)
(0 -0.00107789 0)
(0 -0.00101815 0)
(0 -0.00108414 0)
(0 -0.00102525 0)
(0 -0.00108768 0)
(0 -0.00102922 0)
(0 -0.000800098 0)
(0 -0.00154103 0)
(0 -0.000695861 0)
(0 -0.00128589 0)
(0 -0.00150119 0)
(0 -0.00138 0)
(0 -0.00128018 0)
(0 -0.000728922 0)
(0 -0.000630625 0)
(0 -0.0015682 0)
(0 -0.00186143 0)
(0 -0.00163926 0)
(0 -0.0017022 0)
(0 -0.00169444 0)
(0 -0.000444772 0)
(0 -0.000407253 0)
(0 -0.000389345 0)
(0 -0.000351077 0)
(0 -0.000334349 0)
(0 -0.000367434 0)
(0 -0.000310416 0)
(0 -0.000325292 0)
(0 -0.00269016 0)
(0 -0.00161098 0)
(0 -0.00262099 0)
(0 -0.000503125 0)
(0 -0.00169925 0)
(0 -0.000640299 0)
(0 -0.00060117 0)
(0 -0.000547281 0)
(0 -0.000505277 0)
(0 -0.000370943 0)
(0 -0.000317187 0)
(0 -0.000352014 0)
(0 -0.00029964 0)
(0 -0.000332653 0)
(0 -0.000281868 0)
(0 -0.000312965 0)
(0 -0.000263886 0)
(0 -0.000293031 0)
(0 -0.00024579 0)
(0 -0.000272912 0)
(0 -0.000227644 0)
(0 -0.000252676 0)
(0 -0.000209503 0)
(0 -0.000232357 0)
(0 -0.00027458 0)
(0 -0.000252056 0)
(0 -0.000212055 0)
(0 -0.000229464 0)
(0 -0.000191805 0)
(0 -0.00020684 0)
(0 -0.000243618 0)
(0 -0.000218572 0)
(0 -0.000254572 0)
(0 -0.000227084 0)
(0 -0.000193584 0)
(0 -0.000199647 0)
(0 -0.000232341 0)
(0 -0.000168769 0)
(0 -0.000202469 0)
(0 -0.000234385 0)
(0 -0.000202059 0)
(0 -0.000233252 0)
(0 -0.000198469 0)
(0 -0.000228973 0)
(0 -0.00016989 0)
(0 -0.000266266 0)
(0 -0.0002613 0)
(0 -0.000221551 0)
(0 -0.000253192 0)
(0 -0.000210999 0)
(0 -0.00024201 0)
(0 -0.00028679 0)
(0 -0.000275045 0)
(0 -0.00022788 0)
(0 -0.000260582 0)
(0 -0.000266784 0)
(0 -0.000281924 0)
(0 -0.000301143 0)
(0 -0.000171634 0)
(0 -0.00133553 0)
(0 -0.000578638 0)
(0 -0.000375283 0)
(0 -0.000555883 0)
(0 -0.000508334 0)
(0 -0.000482679 0)
(0 -0.000437428 0)
(0 -0.000409095 0)
(0 -0.000365882 0)
(0 -0.00207213 0)
(0 -0.00208114 0)
(0 -0.00202178 0)
(0 -0.00202747 0)
(0 -0.0019676 0)
(0 -0.0020872 0)
(0 -0.00203051 0)
(0 -0.0020906 0)
(0 -0.000549977 0)
(0 -0.00105291 0)
(0 -0.00143198 0)
(0 -0.000740131 0)
(0 -0.000690239 0)
(0 -0.000631418 0)
(0 -0.000578568 0)
(0 -0.00115923 0)
(0 -0.000319227 0)
(0 -0.00239819 0)
(0 -0.000473732 0)
(0 -0.00082187 0)
(0 -0.00076541 0)
(0 -0.00184104 0)
(0 -0.000901018 0)
(0 -0.000838178 0)
(0 -0.000772461 0)
(0 -0.00070718 0)
(0 -0.0025002 0)
(0 -0.00249847 0)
(0 -0.0024437 0)
(0 -0.00243904 0)
(0 -0.00238285 0)
(0 -0.00217057 0)
(0 -0.000773341 0)
(0 -0.002673 0)
(0 -0.00203644 0)
(0 -0.0027767 0)
(0 -0.00276568 0)
(0 -0.00272108 0)
(0 -0.00270734 0)
(0 -0.00266094 0)
(0 -0.00264465 0)
(0 -0.00269176 0)
(0 -0.00271425 0)
(0 -0.00274404 0)
(0 -0.000986974 0)
(0 -0.000917116 0)
(0 -0.00084611 0)
(0 -0.000773399 0)
(0 -0.00145712 0)
(0 -0.00295712 0)
(0 -0.00106524 0)
(0 -0.000993797 0)
(0 -0.00295441 0)
(0 -0.00293713 0)
(0 -0.00290735 0)
(0 -0.00288836 0)
(0 -0.00285673 0)
(0 -0.00283543 0)
(0 -0.00286661 0)
(0 -0.00226379 0)
(0 -0.00235132 0)
(0 -0.000458396 0)
(0 -0.000641965 0)
(0 -0.000719222 0)
(0 -0.00316556 0)
(0 -0.00115203 0)
(0 -0.00107313 0)
(0 -0.000998241 0)
(0 -0.000916 0)
(0 -0.000840929 0)
(0 -0.00196201 0)
(0 -0.00298447 0)
(0 -0.00146576 0)
(0 -0.000630959 0)
(0 -0.00121021 0)
(0 -0.00112617 0)
(0 -0.00232761 0)
(0 -0.000696029 0)
(0 -0.00056031 0)
(0 -0.00315989 0)
(0 -0.0031616 0)
(0 -0.00301353 0)
(0 -0.00298137 0)
(0 -0.00204864 0)
(0 -0.00202387 0)
(0 -0.00209498 0)
(0 -0.00295294 0)
(0 -0.00292496 0)
(0 -0.00292487 0)
(0 -0.00289609 0)
(0 -0.00289306 0)
(0 -0.00137826 0)
(0 -0.00283191 0)
(0 -0.000703358 0)
(0 -0.000643651 0)
(0 -0.000558763 0)
(0 -0.00253685 0)
(0 -0.00238784 0)
(0 -0.00238179 0)
(0 -0.000882258 0)
(0 -0.00092233 0)
(0 -0.00234018 0)
(0 -0.00229169 0)
(0 -0.00224668 0)
(0 -0.00251382 0)
(0 -0.00269828 0)
(0 -0.00267419 0)
(0 -0.000163927 0)
(0 -0.00013806 0)
(0 -0.000831524 0)
(0 -0.000752424 0)
(0 -0.000705416 0)
(0 -0.00267524 0)
(0 -0.000918735 0)
(0 -0.000844469 0)
(0 -0.000769431 0)
(0 -0.00163468 0)
(0 -0.000923481 0)
(0 -0.000415417 0)
(0 -0.000397444 0)
(0 -0.00315356 0)
(0 -0.00315345 0)
(0 -0.00316078 0)
(0 -0.00119443 0)
(0 -0.00193582 0)
(0 -0.00105434 0)
(0 -0.000967599 0)
(0 -0.000894904 0)
(0 -0.0025614 0)
(0 -0.00233043 0)
(0 -0.000812352 0)
(0 -0.00144283 0)
(0 -0.00135767 0)
(0 -0.00274619 0)
(0 -0.00284614 0)
(0 -0.000805312 0)
(0 -0.000894183 0)
(0 -0.00146837 0)
(0 -0.00230401 0)
(0 -0.0017834 0)
(0 -0.00220682 0)
(0 -0.00210102 0)
(0 -0.00210809 0)
(0 -0.000356776 0)
(0 -0.000335946 0)
(0 -0.000297913 0)
(0 -0.00202247 0)
(0 -0.000453357 0)
(0 -0.000494939 0)
(0 -0.00140978 0)
(0 -0.00192994 0)
(0 -0.00205751 0)
(0 -0.00199429 0)
(0 -0.00107631 0)
(0 -0.00312464 0)
(0 -0.0013836 0)