/*--------------------------------*- C++ -*----------------------------------*\
| =========                 |                                                 |
| \\      /  F ield         | OpenFOAM: The Open Source CFD Toolbox           |
|  \\    /   O peration     | Version:  v2012                                 |
|   \\  /    A nd           | Website:  www.openfoam.com                      |
|    \\/     M anipulation  |                                                 |
\*---------------------------------------------------------------------------*/
FoamFile
{
    version     2.0;
    format      ascii;
    class       volVectorField;
    location    "400";
    object      U;
}
// * * * * * * * * * * * * * * * * * * * * * * * * * * * * * * * * * * * * * //

dimensions      [0 1 -1 0 0 0 0];


internalField   nonuniform List<vector> 
10042
(
(0.995781 0.00556607 0)
(0.998455 0.00126526 0)
(1.02185 0.0125643 5.61638e-23)
(1.0058 6.70746e-05 2.94309e-21)
(1.42122 -0.27215 0)
(0.999007 0.00149918 4.92197e-21)
(1.23521 0.029557 -3.06066e-20)
(1.07859 0.0021477 0)
(1.01827 0.0119829 2.90353e-21)
(1.00061 0.00253629 -2.09498e-21)
(-0.630415 -0.0754531 1.0495e-19)
(1.00911 0.000108609 0)
(1.0109 0.00215543 -8.7646e-21)
(1.01138 0.000939456 1.17786e-23)
(0.964861 0.0388918 0)
(0.999129 0.0022821 0)
(0.999043 0.00247962 5.40157e-21)
(1.00001 9.71629e-05 0)
(0.995934 0.00520312 1.16592e-22)
(0.700559 0.262375 -2.43199e-20)
(1.002 0.00320787 0)
(1.10185 -0.0662636 1.09888e-20)
(1.01039 0.000471087 -1.59423e-21)
(1.00934 0.00384559 0)
(0.998558 0.0011626 1.23352e-20)
(1.04719 0.00842933 -8.8852e-21)
(0.999064 -1.89009e-05 0)
(0.993103 0.0399051 3.46204e-22)
(1.01228 0.0166091 1.25624e-21)
(0.998835 0.035133 4.26836e-21)
(0.997122 -0.000406355 -1.13791e-20)
(-0.123668 0.00776254 -1.13931e-19)
(1.00061 0.00236058 -3.62031e-21)
(1.01129 0.0312965 -5.71964e-21)
(1.04349 0.033108 -6.49832e-21)
(1.00901 0.00391814 6.63733e-21)
(1.04647 0.0112421 5.7137e-22)
(1.04284 -0.00311455 0)
(1.00881 0.00365739 3.22822e-23)
(1.00684 0.0915934 -1.72762e-21)
(0.671608 0.255852 3.32582e-20)
(0.97194 0.0385288 3.3953e-21)
(1.24721 0.00136778 -6.68244e-20)
(0.991704 0.0214324 2.21263e-20)
(1.40584 -0.23319 -1.04372e-19)
(1.05464 -0.02659 0)
(0.978959 0.0243593 5.42164e-21)
(1.03343 -0.0629974 7.14719e-21)
(1.04655 0.0186842 -8.50183e-21)
(1.01847 -0.0130355 1.46422e-21)
(1.00015 0.000239462 5.69445e-21)
(1.02668 0.00410551 3.06445e-22)
(0.964466 0.0289544 -1.80124e-20)
(1.02877 0.00519678 0)
(1.04705 0.0125431 -8.26968e-21)
(0.998995 0.00156166 -1.17852e-20)
(1.01284 0.0166554 1.20706e-21)
(0.979486 0.0233047 -2.27308e-22)
(1.01171 0.030296 4.87684e-21)
(0.966432 0.0291401 -7.6086e-21)
(0.997852 0.0002708 -1.27288e-20)
(0.997176 0.00142716 0)
(1.04465 0.0348735 4.218e-21)
(1.02131 0.0127101 0)
(0.971278 0.00717304 2.23977e-20)
(1.01364 0.0296178 -2.93552e-21)
(0.978172 0.00437445 8.52213e-21)
(0.749977 0.174481 -2.7928e-20)
(0.676111 -0.496753 -6.03906e-20)
(0.997772 0.0178687 9.2227e-21)
(1.02864 0.00495874 0)
(0.654838 0.266696 0)
(0.990767 0.0211994 -9.42609e-21)
(0.87841 0.0497577 -2.58185e-20)
(0.979323 0.00173732 0)
(1.00955 0.00407305 0)
(1.34909 -0.296689 0)
(0.995947 0.00441216 0)
(0.913826 0.0703432 0)
(1.19067 0.090415 0)
(1.04493 0.0187012 -8.54721e-21)
(1.52881 -0.206196 -1.82692e-19)
(1.00237 0.0254623 -1.51997e-21)
(0.974273 0.0328961 2.95615e-21)
(0.978117 0.00348563 0)
(0.999958 0.000305418 0)
(0.996037 0.00734771 -1.26367e-20)
(1.221 0.210287 -3.55365e-20)
(0.987224 0.012301 6.31327e-21)
(0.996326 0.00746553 1.39678e-20)
(1.01968 0.0230884 -1.77487e-22)
(1.51464 -0.16286 4.56405e-20)
(0.993929 0.0414634 0)
(1.02629 0.00417577 -2.81754e-22)
(0.997955 0.0339458 8.71632e-21)
(1.00831 0.0210934 0)
(0.998318 0.0046712 6.96563e-21)
(1.00436 0.0198099 0)
(1.00634 0.0883457 6.13866e-22)
(1.01573 0.0153926 0)
(0.999997 3.26627e-05 1.07116e-20)
(1.20554 0.109119 1.33059e-20)
(1.11192 0.00947057 -2.03828e-20)
(0.999956 0.00040985 0)
(0.988195 0.036455 0)
(1.05997 0.166015 -1.99273e-20)
(0.994015 0.00456939 -6.88994e-21)
(0.998307 0.00497051 -3.6331e-21)
(1.00194 0.00299162 0)
(1.01586 0.00246379 0)
(1.00619 0.000906131 5.20482e-21)
(1.0008 0.0141145 0)
(1.02789 0.0552874 0)
(0.573767 -0.453603 1.38995e-20)
(0.97224 0.00642495 -3.08394e-20)
(0.999017 0.0128233 -8.61908e-21)
(0.992871 -0.00108884 0)
(0.995763 0.00475666 -5.80527e-21)
(1.00874 0.0205862 -8.4947e-22)
(0.132903 0.360315 0)
(0.987435 0.0116613 5.32128e-21)
(1.08884 -0.00164725 -1.88441e-20)
(0.994153 0.0242592 9.98727e-21)
(0.995221 -0.00200524 -2.07498e-20)
(1.19866 0.0985247 -2.93524e-20)
(1.00176 0.0258924 0)
(1.07077 -0.00639535 0)
(1.051 0.0277773 1.00319e-20)
(1.05136 0.162994 2.36908e-20)
(0.99665 0.00837963 9.91134e-21)
(0.911358 0.0756759 2.75626e-20)
(0.982267 0.0109995 1.15505e-20)
(-0.421745 0.00972272 1.07059e-19)
(1.07958 -0.0492439 0)
(1.01519 0.015497 5.00749e-23)
(1.11691 0.116961 0)
(-0.235335 0.397952 -2.70359e-19)
(1.01977 0.0240221 -9.15766e-22)
(1.03875 -0.0662549 -6.37621e-21)
(1.23524 0.222551 3.93222e-20)
(0.983331 0.0371049 0)
(0.992512 -0.00115568 -4.22014e-21)
(0.984274 0.0320951 0)
(1.22754 0.0192796 3.02273e-20)
(1.02415 0.0047346 -5.87345e-22)
(1.00064 0.0137174 0)
(1.12356 0.0740854 2.04189e-20)
(1.01835 0.00370112 1.83154e-21)
(1.00431 0.020586 0)
(1.00857 0.0633767 -3.71057e-21)
(1.01965 0.0113452 0)
(1.00001 4.4848e-05 -1.83076e-22)
(0.95432 0.206412 0)
(0.0075853 0.244354 3.72822e-19)
(0.999592 -0.00033683 -9.05259e-21)
(1.01091 0.00190569 8.72423e-21)
(0.961344 0.00147313 0)
(0.996938 0.00141379 0)
(1.11828 0.125086 0)
(-0.070346 0.0635819 -5.62077e-20)
(-0.528558 -0.0777512 0)
(1.09627 -0.0440605 -1.88158e-20)
(0.99618 5.9021e-05 5.15974e-21)
(1.01932 0.0117868 2.07849e-21)
(1.00503 0.0276931 6.4048e-21)
(0.982933 0.0102936 2.02189e-22)
(0.967645 0.225091 -4.29775e-21)
(0.404966 0.257185 -2.33782e-19)
(-0.0728147 -0.00234607 0)
(0.159528 0.229985 -5.03966e-19)
(1.02783 0.00599505 3.49509e-22)
(1.00207 0.00787651 0)
(1.61356 -0.13163 1.22983e-20)
(0.703225 0.315492 0)
(0.921855 0.134086 2.9251e-20)
(1.21212 -0.280539 0)
(0.477406 -0.239957 -4.59772e-21)
(0.992861 0.0229253 -2.02762e-20)
(0.735603 0.193539 5.00394e-21)
(1.05179 0.0689623 -1.50333e-20)
(0.959211 0.00189204 0)
(-0.130181 -0.00585111 0)
(0.977038 0.00624629 -6.76826e-21)
(1.05004 0.02912 -1.04994e-20)
(0.971951 0.0361446 9.94287e-21)
(0.20217 0.382224 3.426e-19)
(1.09621 -0.0776079 0)
(1.01185 0.0265525 -1.8404e-21)
(-0.175261 -0.186279 -4.07634e-20)
(1.03384 0.0266407 -8.38517e-22)
(0.770882 0.731782 0)
(0.982698 0.0316036 -9.05362e-21)
(0.971391 0.212459 2.29031e-20)
(1.60557 -0.111206 -1.00985e-20)
(1.08151 -0.0359265 2.76968e-20)
(1.33275 -0.241473 1.08657e-19)
(1.04032 0.0158485 -1.64802e-22)
(0.994853 0.00367043 5.48162e-21)
(1.01067 0.00174869 1.97814e-21)
(1.01918 0.0424461 -6.25703e-22)
(0.900574 0.117937 0)
(1.01258 0.0268608 4.85551e-21)
(1.00183 0.0142998 7.71359e-21)
(0.727151 0.338477 -4.28581e-20)
(0.976934 0.00520311 -7.58158e-21)
(1.01103 0.00996119 7.25351e-21)
(0.852288 0.763289 5.90299e-20)
(0.999381 0.000238537 -9.6494e-21)
(1.00001 0.000106654 6.16734e-21)
(0.999905 -0.000305147 -2.03656e-21)
(1.30541 -0.218224 0)
(1.01097 0.000333062 0)
(0.962029 0.214246 0)
(1.05636 0.417384 0)
(0.962767 0.00312295 0)
(1.09723 -0.0854633 -2.69068e-21)
(0.98214 0.00137326 -1.21133e-20)
(0.999427 0.00332233 -5.50084e-21)
(1.13464 0.0429858 -4.19817e-20)
(1.00515 0.00967555 -4.7363e-21)
(1.03043 0.0548374 5.65042e-21)
(0.959988 0.00851128 1.78411e-20)
(1.16579 0.390813 0)
(1.04301 -0.00472283 0)
(0.951258 0.0517382 -1.53915e-20)
(1.04724 0.00564194 -1.59597e-22)
(1.06497 -0.0347425 2.62739e-20)
(0.999819 0.0132878 1.67572e-20)
(1.11652 -0.062067 3.28606e-20)
(1.02903 0.00478344 0)
(1.01872 0.0116253 -1.72258e-21)
(0.838102 0.348568 0)
(1.00181 0.00753401 -5.44198e-21)
(1.02902 0.00458341 8.76517e-23)
(1.02217 0.0130147 -5.2744e-22)
(1.01096 0.0646123 -1.68272e-21)
(1.00977 0.0110635 -1.09353e-21)
(1.01184 0.000657123 0)
(1.03198 0.0155122 4.49053e-21)
(1.03058 0.00414782 0)
(0.99617 -0.00017835 -4.89197e-21)
(0.993146 0.0241151 3.12801e-22)
(1.00491 0.0266116 -4.45485e-21)
(1.02758 0.0578981 1.52537e-21)
(0.999313 0.0124418 9.4553e-21)
(0.997274 -0.00022188 7.266e-21)
(1.00878 0.000864119 9.82661e-23)
(0.988708 0.0382514 -7.59839e-21)
(1.02825 0.00550355 0)
(1.00001 8.36284e-05 0)
(1.01068 0.00112456 0)
(0.998223 0.0172669 -5.80708e-21)
(0.991929 0.0578476 1.25207e-20)
(1.17614 0.407092 5.67457e-20)
(1.10054 -0.0443563 2.43155e-20)
(-0.277466 -0.117337 4.17531e-20)
(0.914607 0.138326 3.53367e-20)
(0.936855 0.134596 -1.2022e-20)
(0.96432 0.0413585 1.78906e-20)
(1.05868 -0.0309193 -9.28191e-21)
(1.26634 -0.132671 7.30357e-20)
(1.03103 0.0155975 7.82495e-22)
(0.994197 0.00413938 1.72887e-20)
(1.01165 0.000654853 -2.93322e-21)
(1.0176 0.0421916 3.17968e-21)
(1.00955 0.0106552 2.3865e-21)
(1.10965 -0.0699105 -2.76999e-21)
(1.03054 0.00748212 0)
(0.996313 0.00816631 -1.09257e-20)
(0.999941 -0.000239965 -2.59112e-22)
(0.891004 0.118968 0)
(1.02863 0.0054202 0)
(1.07066 0.402787 7.02691e-21)
(0.930295 0.139065 -2.67396e-20)
(1.26714 0.149553 -8.30124e-20)
(1.03451 0.0276848 0)
(1.0305 0.00432374 0)
(1.00889 0.0102339 0)
(1.03585 0.00741307 -2.97016e-21)
(1.02443 0.00496502 5.69297e-22)
(1.05523 0.0703973 1.55928e-20)
(0.990542 0.0131552 -5.08065e-21)
(1.04785 0.00975786 -9.18018e-21)
(-0.230684 0.00185719 4.83215e-19)
(1.0107 0.00971897 -7.69918e-21)
(1.0198 0.0140601 3.80701e-21)
(1.26612 -0.101421 -7.87437e-20)
(1.05753 -0.0276487 0)
(1.0117 0.0257757 -3.06634e-21)
(0.997698 -9.75168e-05 6.0565e-21)
(0.99249 0.055383 -8.17713e-21)
(1.19489 -0.327099 0)
(1.09112 0.00201221 0)
(1.22962 0.00888222 -2.7213e-20)
(1.00012 0.000175927 -6.04548e-21)
(1.01075 0.00151076 -7.28154e-21)
(1.00003 0.0137227 -9.70563e-21)
(1.01836 0.012475 -2.16958e-21)
(1.06862 -0.0307073 -2.03704e-20)
(0.993928 0.0109566 0)
(0.997819 0.000462209 7.61016e-21)
(1.00176 0.00870577 0)
(0.982243 0.00042774 0)
(1.03754 -0.00586001 9.42504e-21)
(0.971245 0.0471917 1.71719e-20)
(1.12182 0.190393 0)
(1.03454 -0.388221 1.63947e-21)
(0.967706 0.0269769 2.37273e-20)
(0.982882 -0.11097 1.58579e-20)
(0.999319 0.0115605 -1.32517e-20)
(1.03528 0.00769126 -1.21052e-21)
(0.998928 -2.15004e-05 9.31798e-21)
(-0.916911 0.113208 -2.08942e-19)
(1.19752 0.0755094 2.32106e-20)
(1.54339 -0.038957 -1.23113e-19)
(0.483698 -0.241297 5.2048e-21)
(1.01012 0.00426146 0)
(1.03062 0.00723549 0)
(0.998045 0.0186065 3.40475e-21)
(0.979893 0.0529462 -1.23794e-20)
(1.04817 0.0069555 1.08513e-20)
(0.999981 9.70986e-05 6.53304e-21)
(1.04798 0.0834499 1.1756e-20)
(1.00645 0.000964414 8.76083e-21)
(1.01214 0.000493329 -1.49731e-21)
(0.991911 0.0227398 -2.60317e-22)
(1.12969 0.199167 -3.42665e-20)
(0.999995 2.92862e-05 -6.99049e-21)
(1.0323 0.0265992 0)
(0.983404 0.00867228 -1.27362e-20)
(0.973118 0.0458319 -8.34287e-21)
(0.49784 -0.339063 2.08979e-20)
(0.999058 0.0119707 9.06851e-21)
(0.999509 -0.000155119 1.4661e-20)
(1.00129 0.000938228 1.0763e-20)
(1.02104 0.0120686 0)
(1.07523 0.105618 1.95076e-20)
(1.08052 -0.0366542 -3.82289e-20)
(0.945319 0.138102 1.1776e-20)
(1.03017 -0.1195 -1.79991e-20)
(1.03912 -0.00588198 -3.88236e-21)
(1.04769 0.0291657 8.93056e-21)
(0.982663 0.00917646 -2.07718e-20)
(1.01158 0.000911826 0)
(1.02232 0.0220234 1.21273e-22)
(1.00001 9.20606e-05 6.08424e-21)
(1.04874 -0.0921182 -3.16517e-20)
(0.99073 0.0136126 1.07544e-20)
(1.01304 0.0304524 -2.11186e-22)
(0.992696 -0.0700718 -5.69697e-22)
(1.00135 0.0145422 4.18037e-21)
(0.983521 0.0588364 1.33696e-20)
(0.974031 0.0351196 -1.564e-20)
(0.994776 -0.0797118 -4.5182e-22)
(1.02337 0.0084323 7.1833e-22)
(0.952651 0.0494257 1.22286e-20)
(1.04967 0.154918 -6.43043e-21)
(1.0439 0.083868 2.27865e-21)
(1.02089 0.0398859 0)
(0.994252 0.00279998 1.69307e-20)
(1.01417 -0.123685 -1.87448e-20)
(1.1281 0.0702358 1.3777e-20)
(1.02682 0.0108383 -6.48635e-22)
(1.07433 0.0994391 -2.28443e-20)
(0.999834 0.0042916 6.74742e-21)
(1.00183 0.007183 4.68292e-21)
(0.999968 0.00429012 -1.21307e-20)
(0.981009 0.0591355 1.47188e-20)
(1.48138 0.0240403 0)
(1.03087 0.00489184 9.95222e-22)
(0.999991 0.000119724 -7.05675e-21)
(0.969539 0.0271976 -1.52237e-20)
(1 3.46569e-05 0)
(0.999985 -1.12735e-05 7.61401e-21)
(0.717412 0.280872 3.98651e-20)
(0.994749 0.0033061 5.57705e-21)
(1.01502 0.00778259 -2.49779e-21)
(-0.147202 0.383472 2.58903e-19)
(1.00311 0.00516344 -7.25223e-21)
(1.13845 0.0162508 0)
(1.04111 -0.0821507 1.38733e-20)
(0.87832 0.0568878 5.11156e-21)
(1.12578 -0.424715 5.05923e-20)
(-0.243656 -0.099451 0)
(1.00593 0.0798872 0)
(0.815301 0.344994 0)
(0.999362 2.1772e-05 9.44571e-21)
(1.019 -0.0159302 -1.20701e-21)
(0.999999 7.62866e-06 6.12913e-21)
(0.979101 0.020548 2.58962e-22)
(0.971104 -0.181733 1.6867e-21)
(0.999829 0.00209368 -1.04133e-20)
(0.977982 0.0546146 2.08119e-20)
(0.627588 0.934347 0)
(1.00991 0.000421611 0)
(1.00192 0.00331543 -2.14682e-23)
(0.794905 0.0984616 2.56513e-20)
(0.806232 0.660815 0)
(1.01319 0.0285718 1.53501e-21)
(1.01785 0.00395007 1.8364e-21)
(-0.0889178 -0.0177899 -1.34686e-19)
(1.20612 0.0853707 -1.26706e-20)
(1.00205 0.00823539 6.86846e-22)
(0.745644 0.159182 0)
(0.136178 -0.0707991 0)
(1.00545 0.00990625 0)
(0.999998 9.94586e-05 6.98583e-21)
(1.01246 0.00820691 7.74208e-22)
(0.997391 0.0100539 0)
(1.01209 0.000584525 0)
(1.01071 0.00921791 -4.37078e-21)
(0.999546 -0.1069 -1.23434e-20)
(1.09841 0.0115975 2.52085e-20)
(0.978507 0.0217067 9.6387e-21)
(1.10479 -0.386316 0)
(1.01125 0.000804016 -3.44172e-21)
(0.99408 0.010322 -1.19237e-20)
(1.42631 0.166589 9.35265e-20)
(1.02448 0.0107476 0)
(1.1215 0.0234292 0)
(1.0937 -0.000861748 -2.62406e-20)
(0.972684 0.031784 -1.0176e-20)
(1.01588 0.00640744 -2.30004e-21)
(1.01748 0.00391788 0)
(1.08417 0.318505 2.20062e-20)
(1.02821 0.00588326 -4.05258e-22)
(1.0024 0.081608 4.69419e-22)
(0.993316 0.0340844 -6.60028e-21)
(-0.494987 -0.110111 -9.38085e-20)
(0.964667 0.00254034 0)
(1.60367 -0.0488064 0)
(0.967457 0.0383784 0)
(1.00097 0.00387259 1.1881e-21)
(0.99924 0.01327 -9.84308e-21)
(1.28101 0.382251 0)
(1.00073 0.00369302 -5.20163e-21)
(0.924063 0.0131793 0)
(0.995789 0.0136426 1.41796e-22)
(1.02294 0.00848293 -3.99715e-22)
(-0.10265 0.0467368 2.13936e-19)
(1.04131 0.0181176 -8.75765e-21)
(0.992387 6.73364e-05 5.25695e-23)
(1.00663 0.000579422 -3.55597e-21)
(-0.155202 0.156541 -1.8306e-21)
(0.996985 0.00924619 0)
(1.04252 0.0186044 0)
(1.01464 0.0436093 3.66266e-21)
(1.00911 0.0106129 -2.48293e-21)
(1.12316 -0.340216 0)
(1.15441 -0.37508 0)
(1.00223 0.00412742 -7.81535e-21)
(0.973797 0.00677452 2.35698e-20)
(1.03118 0.00485558 -1.33613e-21)
(1.01056 0.00131299 5.02983e-21)
(0.999066 0.00288177 0)
(0.994566 -0.00304764 0)
(-0.340739 0.324029 0)
(0.995715 -0.00283306 8.70492e-21)
(1.01126 0.000429348 0)
(0.976605 0.0875327 0)
(1.11422 -0.00297417 3.66811e-20)
(1.12216 0.0389776 -4.04789e-20)
(1 9.75202e-05 -6.2591e-21)
(1.05183 0.064566 0)
(0.335756 -0.124733 -5.7163e-22)
(1.03693 -0.0076375 -6.78375e-21)
(0.991835 -0.00312739 -5.85221e-21)
(0.994568 0.00245759 1.11529e-20)
(1.08157 -0.0521739 0)
(1.02624 0.0107858 -1.28745e-21)
(1.00098 0.00368398 0)
(0.912487 0.0596046 -2.16774e-20)
(1.01901 0.0127649 -1.76531e-21)
(1.01044 0.00906259 3.89314e-21)
(0.958188 0.00980325 -4.33329e-21)
(1.01184 0.00437159 2.96838e-21)
(0.968006 0.144559 0)
(0.993646 0.00485998 -3.81898e-21)
(1.00061 0.00370477 0)
(-0.760436 -0.0472772 0)
(1.00513 0.00382471 8.67266e-22)
(1.02742 0.0057561 -1.11734e-22)
(0.999969 0.00209138 7.0484e-21)
(0.994165 0.032788 0)
(1.04939 0.0781206 -7.9282e-21)
(1.00212 0.00394225 -3.57857e-24)
(1.02049 0.0120683 7.2432e-22)
(1.53736 0.0174564 1.24606e-19)
(0.996495 0.0372554 6.27434e-22)
(1.04161 0.143374 0)
(1.03062 0.0165897 2.71404e-21)
(1 5.68267e-05 -4.78649e-21)
(1 5.16729e-05 0)
(1.22796 0.123836 -1.22727e-19)
(0.990135 0.0105831 0)
(0.992421 -0.000233447 -6.84236e-21)
(1.00105 0.00104457 5.59742e-21)
(1.02734 0.0100737 -1.15991e-21)
(0.956006 0.0755176 0)
(1.20523 0.0728251 -1.33648e-20)
(0.996633 0.00903089 0)
(0.961024 0.141829 0)
(0.672548 0.750081 0)
(1.03551 -0.0075303 1.54826e-22)
(1 0.000109714 7.75212e-22)
(0.994078 -0.0010783 0)
(1.02501 0.0072267 -6.54632e-23)
(0.999927 0.000386727 4.70065e-22)
(0.998568 0.0105313 0)
(0.516357 -0.248718 0)
(-0.396814 0.358235 0)
(0.999846 0.00200902 2.00884e-21)
(1.05034 0.0259719 -2.83367e-20)
(1.03522 0.00110312 3.96036e-21)
(1.03495 0.00149234 4.93451e-22)
(0.978425 0.00108983 1.25762e-20)
(1.00779 0.000977146 -7.5359e-21)
(1.10452 -0.0217875 4.89513e-22)
(1.09547 0.308112 0)
(0.707484 0.72654 0)
(1.01545 0.00637119 1.87851e-21)
(1.02542 0.00751117 -2.97882e-23)
(1.02392 0.0109238 3.52472e-23)
(1.00299 0.00529599 0)
(0.562583 -0.440706 1.11019e-19)
(1.06264 0.0689074 -1.88539e-22)
(1.02727 0.0105912 -1.29658e-22)
(1.01223 0.0191786 0)
(1.00527 0.000394422 2.63199e-21)
(0.980347 -3.9302e-05 1.17813e-20)
(1.10279 -0.0134145 -1.63379e-20)
(1.04137 0.0166235 9.74318e-21)
(0.999132 -0.000155926 -5.06474e-21)
(-0.35114 0.245106 -2.14085e-19)
(0.787574 0.621806 -9.78995e-21)
(1.02502 0.452765 0)
(1.06888 0.162224 8.74093e-22)
(0.999127 0.00266188 0)
(1.0151 0.016182 4.15572e-21)
(1.00547 -0.00942547 2.12596e-21)
(1.11328 0.0664207 0)
(0.746594 -0.298884 2.77045e-21)
(0.548743 0.286086 1.45778e-19)
(0.951797 0.0432807 0)
(0.920674 0.0110675 0)
(0.999975 0.000369661 0)
(1.03179 0.0253191 0)
(0.974571 0.00722798 1.50053e-20)
(0.999966 0.000459433 0)
(-0.547689 -0.0911911 0)
(1.00904 0.000943798 4.8134e-21)
(0.999126 0.0111093 -4.32948e-21)
(1.04668 -0.0265854 -6.43897e-21)
(0.999929 0.000275538 0)
(1.10541 -0.12094 4.71571e-21)
(1.0297 0.016492 -1.85357e-22)
(1.08185 -0.0471864 0)
(1.01795 0.083959 -3.93557e-22)
(0.999907 -0.000365436 0)
(1.03083 0.00907287 7.65013e-22)
(1.04446 0.0312785 -9.9468e-22)
(1.02127 0.00242199 1.17304e-21)
(1.07187 0.156307 1.1777e-20)
(0.967842 0.276642 -4.86582e-22)
(0.999996 -5.23366e-06 1.76224e-23)
(1.01574 -0.0108908 0)
(1.01945 0.035976 0)
(1.00745 0.0208115 -1.94993e-21)
(1.00021 0.0014084 7.18421e-21)
(1.02243 0.0228189 -1.24177e-22)
(0.99707 -0.0024022 0)
(0.950411 0.0460071 0)
(1.11945 0.0352987 3.20321e-20)
(0.85688 0.110099 0)
(0.999136 -0.000374032 -7.73232e-21)
(0.995696 0.0385816 3.33186e-21)
(1.00109 0.000973469 0)
(0.991825 0.00273307 -7.68908e-21)
(0.801194 0.32595 4.46601e-20)
(1.00172 0.00263831 0)
(1.01163 0.0446565 0)
(1.09523 -0.0689574 -6.95047e-22)
(1.01158 0.00422011 -3.10739e-21)
(1.11596 0.0725165 -2.99221e-20)
(0.984743 -0.0198535 0)
(0.997529 -0.000275202 -7.6405e-21)
(0.134203 0.416006 0)
(1.05952 -0.00476856 0)
(0.99989 0.000207375 -8.04143e-21)
(1.11976 -0.0974712 3.53933e-20)
(1.02319 0.0126734 0)
(1 0.000100721 -1.9691e-22)
(0.982939 0.00486761 0)
(0.99522 -0.00115396 -1.05412e-20)
(0.999998 2.95216e-05 -6.75817e-21)
(1.03353 0.0309898 0)
(0.979506 -0.000420033 -1.6067e-20)
(0.834483 0.575014 8.80739e-22)
(0.985125 0.0375688 2.19564e-21)
(0.994389 -0.000758442 0)
(1.01504 0.0275627 0)
(1.0532 0.0776187 1.31598e-20)
(1.05629 0.00939477 2.16006e-21)
(0.994994 -0.00233916 -6.23041e-25)
(1.03326 0.00732072 -3.21663e-22)
(1.01461 0.0162618 2.49798e-21)
(1.04135 -0.00244424 0)
(0.984746 0.000496283 2.63366e-21)
(1.01518 0.0871711 -5.24226e-22)
(1.01542 0.00797431 3.57363e-21)
(0.954609 0.00298853 3.66723e-20)
(1.01691 0.00412013 1.90422e-21)
(1.00017 0.00458492 0)
(0.945235 -0.252841 0)
(1.01211 0.00833874 -8.2474e-22)
(0.804905 0.307748 -5.39648e-20)
(0.994372 -0.00274231 0)
(1.02908 0.00934047 -8.9713e-22)
(1.00553 0.00370215 3.16053e-21)
(1.05058 0.00251885 -1.15417e-20)
(0.999962 0.0020156 -2.2014e-21)
(1.06178 -0.00543401 0)
(1.01245 0.02509 2.71208e-21)
(1.12565 -0.0877279 -9.52331e-22)
(0.999968 -7.0126e-05 0)
(1.25876 -0.0334849 3.19026e-20)
(1.01848 0.00352703 -1.17962e-21)
(0.972411 0.0434086 8.22358e-21)
(0.999977 -0.00019229 7.0408e-21)
(0.981228 0.00180927 6.37275e-21)
(0.999755 0.00402889 6.14018e-21)
(1.03269 0.0316576 0)
(0.997076 -0.00196366 8.44109e-21)
(0.664728 0.220534 0)
(0.798095 0.544004 -2.10407e-19)
(1.0943 -0.133482 -1.93676e-20)
(1.03483 0.0137782 -1.97308e-21)
(0.950151 0.132436 -3.1847e-20)
(1.00278 0.014657 -1.83154e-21)
(0.986969 0.144265 -4.96325e-21)
(1.05212 -0.0279751 -7.71246e-21)
(1.00069 0.00236496 4.10652e-21)
(0.918488 0.0603084 2.42039e-20)
(0.962393 0.291652 5.12133e-21)
(0.762688 -0.268073 -2.55693e-21)
(0.982792 -0.014785 2.6573e-21)
(1.58103 0.235576 8.41651e-20)
(1.04667 0.0312991 -9.14689e-21)
(0.995553 0.0278399 0)
(0.999972 0.000141831 0)
(1.03458 0.00749592 4.29383e-21)
(1.03408 0.0288704 0)
(1.02368 0.00210123 3.72183e-23)
(1.00991 0.004023 4.66819e-21)
(1.0232 0.0378124 -3.65722e-22)
(1.10455 -0.0402526 -2.9727e-20)
(1.00001 3.93838e-05 6.15674e-21)
(0.991807 0.00220628 -7.21759e-23)
(1.03363 0.00680233 0)
(0.841612 -0.247051 0)
(0.974296 0.0421394 0)
(1.04874 0.0627078 -1.39906e-21)
(1.00312 -0.00527838 -3.21104e-22)
(0.999934 -0.000307118 4.67644e-21)
(1.20648 0.0669002 -2.80782e-21)
(1.0097 0.0046344 -2.61816e-21)
(1.00236 0.00889605 5.88847e-21)
(1.00014 0.0351743 -3.34795e-22)
(1.01904 0.0132427 2.12942e-21)
(-0.83586 0.141744 4.02618e-19)
(1.04811 -0.0362015 -9.16769e-21)
(0.831204 -0.257917 0)
(1.00077 0.00036084 -9.09402e-24)
(1.38236 0.470723 6.87292e-20)
(0.0683349 0.0946253 0)
(1.04744 -0.0725148 -2.57972e-20)
(1.02469 0.00127237 0)
(1.05718 -0.0328991 6.41414e-21)
(1.11001 -0.0582767 -2.75149e-20)
(1.01559 0.145374 -5.14058e-22)
(0.983185 0.00772405 -2.04045e-22)
(0.995402 0.014026 -7.86209e-21)
(0.909613 0.0646391 -3.28574e-20)
(-1.02413 0.061237 -1.25082e-19)
(1.00375 0.0149454 0)
(0.974815 0.0915527 0)
(0.889105 0.034479 0)
(0.993386 0.00590745 4.14046e-21)
(1.00054 0.00527906 6.09008e-21)
(1.00708 0.0213194 -2.2891e-21)
(0.988066 0.0416862 4.15381e-22)
(0.999638 0.00405974 -7.1376e-21)
(1.02407 0.00796983 0)
(1.2187 0.137087 6.2407e-20)
(1.32357 -0.276046 -5.39003e-20)
(1.02362 0.00796213 -5.97533e-22)
(0.99954 0.00317683 0)
(-0.499955 -0.0108836 0)
(0.933406 0.248627 1.2413e-20)
(1.00234 0.0148621 0)
(0.992351 -0.00320173 -1.36089e-20)
(1.00016 0.000289962 0)
(0.997018 0.0098608 5.37408e-21)
(1.44443 0.191999 -1.24447e-19)
(1.04455 -0.0372478 0)
(1.03469 0.411589 -2.30063e-20)
(0.986487 0.0361321 0)
(1.00047 0.00556598 -6.27098e-21)
(1.01974 0.0103698 -8.664e-22)
(0.957804 4.53206e-05 1.5469e-20)
(0.998056 0.000239542 6.58387e-21)
(1.04659 0.000153168 5.9394e-22)
(0.971024 0.0250843 0)
(1.04819 -0.43035 3.64634e-20)
(0.998818 0.00274142 -1.27204e-20)
(1.00041 0.0016727 -7.86517e-21)
(1.05237 0.125771 -2.69737e-21)
(1.00368 0.0142817 0)
(1.02971 -0.00243549 3.30222e-21)
(0.895897 0.239819 1.65294e-20)
(1.03022 0.00932255 0)
(0.859139 0.654602 -2.3569e-20)
(0.806381 -0.244995 -1.01857e-21)
(0.994412 0.0277867 -5.54589e-21)
(0.998697 0.0110355 -4.82368e-21)
(0.958273 -0.080746 1.76926e-20)
(-0.866173 0.00658767 -4.94141e-20)
(0.99517 0.127089 -5.98369e-21)
(1.02271 0.0125493 0)
(1.06063 -0.00189984 8.18822e-21)
(0.770716 0.372861 -4.48477e-20)
(0.927587 0.0196097 -3.89821e-20)
(0.983941 0.0071699 4.85047e-23)
(1.00121 0.000809876 -6.49559e-21)
(1.00177 0.0028471 -6.36195e-21)
(1.08999 0.409663 -7.73512e-20)
(1.03438 0.0142439 0)
(0.79256 0.267294 0)
(1 0.000104532 0)
(0.517495 -0.376331 -2.6758e-20)
(1.45192 0.000960631 -4.8938e-20)
(0.994193 -0.0014042 0)
(0.997359 0.00223243 2.05614e-21)
(0.678682 0.20773 -5.71665e-20)
(0.999317 0.000395892 1.01168e-20)
(1.00576 0.00377967 4.00336e-21)
(0.998456 0.0634678 8.26963e-21)
(0.228426 -0.190903 0)
(0.769768 -0.157457 0)
(0.969863 -0.246056 -1.70774e-20)
(1.02702 0.00595299 1.12217e-22)
(1.06548 -0.0217219 0)
(1.01468 0.137562 5.11817e-22)
(1.00848 0.00368055 -5.02362e-21)
(1.00488 0.000223838 -6.08548e-21)
(0.999629 -0.000505989 0)
(1.10459 0.395017 6.57244e-20)
(1 0.000371891 0)
(0.994303 -0.000413076 0)
(1.06312 -0.0224527 -6.79081e-21)
(0.979214 0.00272304 0)
(1.13221 0.0498416 -2.23566e-20)
(1.00037 0.000465257 7.14238e-21)
(0.998756 3.9504e-05 -4.5848e-24)
(1.00669 0.000800729 -7.61547e-23)
(0.99925 -0.000416246 -2.48531e-21)
(1.08199 -0.0463116 -1.11766e-21)
(0.999995 0.000451473 0)
(0.997891 0.0164544 0)
(1.06654 0.00246734 -1.3514e-20)
(0.948104 0.213492 6.77795e-21)
(0.832398 0.487264 -1.34194e-20)
(0.99991 0.000247313 -3.96173e-21)
(1.13893 -0.00396284 0)
(0.870973 0.286147 6.04582e-20)
(1.0732 0.144085 -1.92873e-20)
(0.970604 0.0324307 1.33364e-20)
(-0.663891 0.225785 -2.32494e-20)
(-0.0787509 -0.0051994 -2.33518e-19)
(0.993669 0.00557863 0)
(1.01067 0.0022297 2.22171e-21)
(0.98305 0.0351578 0)
(0.955038 0.0202849 0)
(0.67074 0.0459072 6.47299e-21)
(1.01628 0.0439695 -1.16827e-21)
(1.00021 0.00131818 -3.76012e-23)
(0.999988 0.000374351 0)
(0.913664 0.247665 -3.36307e-20)
(0.987822 0.136827 0)
(1.02664 0.00571847 -9.0429e-23)
(1.00015 0.00108785 -3.18256e-23)
(0.991924 -0.0022771 1.48302e-20)
(1.08046 0.0954675 -1.01968e-20)
(1.00537 0.00391304 -9.26126e-22)
(1.00382 0.000357762 -4.8386e-21)
(1.04119 -0.00109325 0)
(0.98741 0.039867 0)
(0.999706 -0.000645965 -8.68413e-21)
(1.01634 0.0137514 1.43548e-21)
(0.733336 0.607316 7.94352e-21)
(1.01933 0.0143975 -1.02983e-21)
(0.991178 0.0400587 -1.10561e-22)
(0.996938 -0.00264147 0)
(0.996402 0.0341474 0)
(1.23593 0.0432049 -3.6311e-20)
(0.999909 0.000349187 0)
(0.978114 0.0393302 3.39581e-21)
(0.998043 -0.00113298 0)
(1.03922 0.016465 1.31823e-21)
(0.656039 0.530804 5.13623e-20)
(1 3.99353e-05 0)
(0.845116 0.46669 0)
(1.03116 0.0526603 -1.92575e-21)
(0.74393 -0.0248338 0)
(1.01003 0.00046936 -2.09474e-21)
(1.02057 0.0413337 0)
(1.03992 -0.000611977 8.21855e-22)
(1.14284 -0.00104046 0)
(0.796167 0.11157 -2.73824e-20)
(0.970991 0.0238215 3.43929e-21)
(1.57444 0.206432 1.09602e-19)
(1.22934 -0.061452 0)
(0.967074 0.0126391 1.35031e-20)
(1.00656 0.000438647 4.14035e-21)
(1.0438 -0.0623586 1.18884e-20)
(0.998155 -0.00153374 6.81059e-21)
(0.999987 0.000103531 4.16888e-22)
(1.0076 0.0098934 0)
(0.999984 0.000114949 5.76387e-21)
(1.08994 0.00944057 0)
(1 6.80137e-06 3.06631e-21)
(0.999998 2.42576e-05 6.93975e-21)
(0.882872 0.2366 -3.23864e-20)
(1.01665 0.0799152 6.64575e-23)
(1.00844 0.000105747 -1.79745e-21)
(0.93246 0.0939922 -2.46719e-20)
(0.960221 0.00634624 0)
(1.06098 -0.367304 -4.85788e-20)
(1.03154 0.013625 -1.18792e-22)
(0.822243 0.547319 -3.03792e-21)
(0.997459 0.0106277 0)
(1.0496 -0.025738 1.55955e-20)
(0.994562 0.134416 6.29666e-21)
(0.90803 0.0966089 8.23972e-23)
(1.0363 0.019707 3.11386e-22)
(0.389362 -0.37842 -2.19747e-19)
(0.999999 0.000103776 0)
(1.03117 0.00428736 0)
(1.00076 0.00131385 1.6018e-21)
(0.99612 0.0266978 0)
(0.989451 0.010551 0)
(1.07961 -0.0481505 0)
(0.873256 0.119106 1.44931e-20)
(1.01504 -0.00497948 1.05e-21)
(-0.583796 -0.0398103 0)
(1.00017 0.00146981 -5.17509e-21)
(0.995547 0.892804 -5.13457e-20)
(1.0307 0.00421762 -5.74492e-22)
(1.01279 0.0154099 0)
(0.884353 0.0464532 8.6245e-21)
(1.05461 0.0204935 0)
(0.79715 -0.207602 6.6211e-22)
(0.997115 0.00220107 0)
(0.952175 0.0754946 1.84991e-20)
(0.94429 0.200965 1.25835e-20)
(1.01336 0.0451078 -2.0054e-21)
(0.847321 0.112475 0)
(1 6.51998e-05 1.88409e-22)
(1.00987 0.0024027 -2.7415e-21)
(1 6.08453e-05 -1.83154e-22)
(0.983789 0.442889 -2.10639e-20)
(0.999234 0.000761474 1.4588e-21)
(1.00055 0.00257591 7.65311e-24)
(1.00698 0.00928389 -4.68449e-21)
(1.00603 0.000714531 -8.63544e-21)
(1.00004 0.00455287 0)
(0.999319 0.003253 -7.33606e-21)
(1.01559 0.0286334 0)
(1.00045 0.00935171 -5.36516e-21)
(0.999314 0.000203779 -1.07583e-20)
(0.965203 0.000617392 1.2775e-20)
(1.00076 0.0652754 0)
(0.937999 0.0920892 -1.96459e-20)
(0.995529 -0.00257613 0)
(0.775477 0.0073263 -1.07087e-20)
(0.998758 0.0237532 7.29943e-21)
(1.38453 0.454235 1.25268e-19)
(0.907264 0.12347 0)
(0.690667 -0.340662 3.31832e-21)
(1.07232 0.0431578 -1.49701e-20)
(1.03109 0.00439576 1.20477e-21)
(-0.0742516 0.00831741 0)
(1.05827 0.00966784 7.46413e-21)
(1.01823 0.433098 0)
(1.01226 0.0793265 -5.16889e-21)
(1.07944 0.0898185 1.85705e-20)
(0.99998 0.000454805 -2.245e-22)
(1.00176 0.00830312 0)
(1.00045 0.0428009 -7.15597e-21)
(1.23919 0.0309924 4.02505e-20)
(1.00634 0.0212637 0)
(0.200484 -0.000448361 2.13794e-19)
(1.00037 0.0186668 -3.43089e-21)
(1.02986 0.694513 3.66699e-20)
(1.26639 -0.0663615 4.90349e-20)
(1.00571 -0.00175614 0)
(1.02926 0.0173558 0)
(0.0584785 0.397081 -2.8076e-19)
(0.556532 -0.340376 1.40549e-21)
(0.952179 0.00338643 -2.32129e-20)
(0.995081 -0.00172866 2.12368e-20)
(0.999958 -0.000273093 -8.92445e-21)
(1.03344 0.00791103 -2.41909e-21)
(1.01004 0.00231177 0)
(1.00759 0.000767547 5.12335e-21)
(1.10962 0.132518 3.58316e-20)
(0.946956 -0.182269 -4.05924e-21)
(0.998155 -0.00118152 -7.56008e-22)
(1.00574 0.0208154 4.04143e-21)
(0.967004 0.000238985 0)
(1.29873 0.37252 4.37389e-20)
(1.00356 -0.0138928 0)
(0.999497 0.000729971 0)
(1.02939 0.0503341 -4.33251e-21)
(1.10987 -0.0224077 2.19134e-21)
(0.994046 0.0355387 0)
(0.999512 0.00255174 1.38929e-21)
(0.0313537 0.0245223 4.5266e-19)
(0.986138 0.0282258 0)
(0.994207 0.0113463 0)
(0.882683 0.915769 -1.17471e-20)
(0.994958 0.0545845 -9.76564e-22)
(0.983185 4.84335e-05 0)
(-0.11745 0.0681714 0)
(1.1667 -0.297792 -1.33108e-19)
(0.298579 0.414722 0)
(0.991894 0.00389231 8.55736e-21)
(0.978416 0.0416435 9.01879e-21)
(1.06981 -0.0946961 0)
(1.00719 0.00973031 4.89804e-21)
(1.01197 0.0198857 0)
(0.999996 4.00531e-05 0)
(1.03012 0.00238818 -8.82278e-22)
(0.998003 0.000635076 1.32772e-20)
(1.0004 0.000438059 -4.55528e-21)
(1.02937 0.00445895 -9.43387e-23)
(0.806539 0.0903719 2.37442e-20)
(0.909845 0.398728 0)
(1.00451 0.0096626 0)
(0.985178 0.00445129 1.45868e-21)
(0.998165 -0.00189336 -6.24112e-21)
(1.01168 0.0186338 -1.56897e-21)
(0.984465 0.0338673 -8.99855e-21)
(1.0092 0.00256606 -2.57997e-21)
(1.1121 -0.0500501 -3.04977e-20)
(1.00208 0.0860033 -7.33214e-22)
(0.991737 0.0189955 7.10944e-21)
(0.996166 0.00101247 1.08994e-20)
(1.00539 0.00914698 3.97431e-23)
(1.00106 0.00263664 -7.21579e-21)
(1.02023 0.0271553 4.34489e-22)
(0.299687 -0.182542 8.30307e-20)
(1.04548 0.00829773 0)
(1.01798 0.00367888 0)
(0.994329 0.00320594 -1.68119e-20)
(0.863499 0.120067 -8.74469e-21)