/*--------------------------------*- C++ -*----------------------------------*\
| =========                 |                                                 |
| \\      /  F ield         | OpenFOAM: The Open Source CFD Toolbox           |
|  \\    /   O peration     | Version:  v2012                                 |
|   \\  /    A nd           | Website:  www.openfoam.com                      |
|    \\/     M anipulation  |                                                 |
\*---------------------------------------------------------------------------*/
FoamFile
{
    version     2.0;
    format      ascii;
    class       surfaceVectorField;
    location    "400";
    object      Uf_0;
}
// * * * * * * * * * * * * * * * * * * * * * * * * * * * * * * * * * * * * * //

dimensions      [0 1 -1 0 0 0 0];


internalField   nonuniform List<vector> 
14907
(
(0.995845 0.00541605 7.33647e-21)
(0.99587 0.00584191 4.24576e-23)
(0.995578 0.00560388 2.56487e-21)
(0.998514 0.00120807 -2.93643e-21)
(0.998366 0.00122365 -1.23066e-21)
(0.99849 0.00136519 -1.27102e-21)
(1.0216 0.0126529 4.41502e-23)
(1.02204 0.0128676 3.57309e-23)
(1.02198 0.0122366 2.56238e-24)
(1.00744 9.14574e-05 -1.51709e-21)
(1.00733 0.000115848 -1.07974e-21)
(1.41317 -0.256549 1.47541e-19)
(1.38109 -0.289129 2.10699e-20)
(1.45628 -0.288772 2.11551e-20)
(0.999003 0.00153198 -2.00263e-22)
(0.999063 0.00148891 -2.76431e-21)
(0.998941 0.00144534 5.01655e-21)
(1.24116 0.0115065 3.74149e-20)
(1.22266 0.0458893 -3.64186e-20)
(1.23681 0.0191844 1.32397e-20)
(1.08585 0.000476031 -1.33168e-21)
(1.0766 -0.00146798 -7.63779e-21)
(1.08222 0.0117176 -1.59508e-20)
(1.01852 0.0117986 -5.49397e-22)
(1.01834 0.0122608 5.30065e-22)
(1.01795 0.0118425 6.04376e-22)
(1.00061 0.00245598 -3.12255e-21)
(1.00058 0.00254696 -2.20399e-22)
(1.00067 0.00262862 1.49126e-21)
(-0.561926 -0.09498 -2.33261e-20)
(-0.695682 -0.062626 4.00811e-21)
(-0.613262 -0.0731395 3.13214e-20)
(1.00999 0.000226138 0)
(1.0073 6.30393e-05 1.7002e-21)
(1.0109 0.00201982 1.61749e-21)
(1.01075 0.00219085 -2.92724e-22)
(1.01103 0.00226307 -1.48678e-21)
(1.01148 0.000924362 -1.96831e-22)
(1.01132 0.000865393 2.40879e-21)
(1.01134 0.00107232 -4.0024e-22)
(0.964579 0.0402341 1.60428e-20)
(0.966125 0.0386388 9.55115e-21)
(0.963779 0.0377217 8.88913e-21)
(0.999087 0.00237769 2.38251e-21)
(0.999109 0.00219263 -1.2001e-21)
(0.999195 0.00230483 2.14903e-21)
(0.999094 0.00258693 2.90314e-21)
(0.998973 0.0024866 -1.18421e-21)
(1.00001 8.94385e-05 1.10897e-21)
(1.00001 9.20798e-05 5.89836e-21)
(1.00001 0.000110318 2.7456e-21)
(0.995836 0.00496067 7.41509e-21)
(0.996123 0.00521828 9.46657e-22)
(0.683866 0.257738 0)
(0.707405 0.270148 0)
(0.709348 0.248899 -2.27065e-20)
(1.00197 0.00310936 2.59027e-22)
(1.00195 0.00325221 2.25891e-21)
(1.00211 0.00330546 -2.34128e-21)
(1.10589 -0.0686864 -7.82457e-21)
(1.09845 -0.0689273 -6.43922e-21)
(1.10273 -0.0624694 -2.49135e-20)
(1.01015 0.000455143 -5.16065e-22)
(1.01015 0.000468023 -9.60764e-22)
(1.01052 0.00060969 1.46232e-21)
(1.00918 0.0038812 -6.61061e-24)
(1.00945 0.00397064 2.10282e-22)
(1.0094 0.00369443 4.1306e-22)
(0.998641 0.00121413 2.07401e-21)
(0.998538 0.00108002 -2.37471e-21)
(1.04754 0.00915216 4.68942e-21)
(1.04773 0.00767072 2.54248e-21)
(1.04633 0.00839799 3.55512e-21)
(0.998999 -2.02139e-05 1.99565e-21)
(0.999099 -9.22638e-05 2.48384e-21)
(0.999115 5.71955e-05 -5.06689e-22)
(0.99355 0.0407396 7.04366e-21)
(0.992128 0.0400249 -4.19314e-21)
(0.993591 0.0390963 -5.01402e-22)
(1.01257 0.0166374 -1.93292e-21)
(1.01213 0.016973 2.57278e-21)
(1.01213 0.0163271 -1.72987e-21)
(0.998374 0.0345513 9.07441e-21)
(0.999549 0.035123 0)
(0.998513 0.0361358 1.41746e-22)
(0.997198 -0.00032138 5.62941e-21)
(0.996975 -0.000390566 4.70644e-21)
(0.997185 -0.000550637 3.02935e-21)
(-0.126701 -0.000298437 1.10263e-21)
(-0.124098 0.0161302 -8.44825e-20)
(-0.109731 0.00333156 6.75073e-20)
(1.00065 0.00236667 -3.14625e-22)
(1.00057 0.00228574 -9.55004e-23)
(1.01147 0.0307812 0)
(1.01166 0.0319068 0)
(1.01041 0.0311458 1.11683e-21)
(1.04413 0.0341189 -5.48512e-22)
(1.04401 0.0321803 -3.18893e-21)
(1.04241 0.0331901 -3.07295e-21)
(1.00891 0.00380285 1.24666e-22)
(1.00895 0.00408409 2.7396e-21)
(1.04681 0.0119678 -7.75451e-21)
(1.04728 0.0104272 1.95741e-21)
(1.04563 0.0111404 -3.4881e-21)
(1.04294 -0.00387775 -1.04527e-22)
(1.04213 -0.00276189 1.15263e-21)
(1.04353 -0.00260822 -2.29647e-21)
(1.00862 0.00367328 3.31404e-21)
(1.00887 0.00349035 -7.58464e-22)
(1.00647 0.0905799 -1.34907e-21)
(1.00911 0.0927364 -1.21178e-21)
(1.0045 0.092954 1.28618e-21)
(0.663307 0.260987 0)
(0.669141 0.239463 -3.36442e-20)
(0.971918 0.0373451 6.99408e-21)
(0.970852 0.0391167 -8.42674e-21)
(0.973018 0.0391772 1.18085e-20)
(1.25453 -0.0192666 6.63708e-20)
(1.23321 0.00176243 3.74107e-20)
(0.991197 0.0212619 2.1335e-21)
(0.99177 0.0221539 -1.06584e-21)
(0.992087 0.0209078 -2.15142e-21)
(1.46647 -0.231006 5.73335e-20)
(1.31667 -0.21498 4.41118e-20)
(1.05618 -0.0271772 2.73485e-21)
(1.05363 -0.0272909 -3.86785e-21)
(1.05457 -0.0244249 5.04733e-21)
(0.97917 0.0239199 1.06942e-20)
(0.979333 0.0251075 2.4497e-21)
(0.978168 0.0244301 -1.6685e-21)
(1.03574 -0.065086 7.98501e-22)
(1.0339 -0.0596153 3.40971e-21)
(1.02978 -0.0638889 3.05729e-21)
(1.04564 0.0189457 4.4158e-21)
(1.04718 0.0196436 -2.5735e-21)
(1.04677 0.0179409 0)
(1.01867 -0.0145335 8.4739e-23)
(1.0171 -0.0117587 3.85577e-22)
(1.0202 -0.011611 -2.41536e-22)
(1.00013 0.000210155 1.5031e-21)
(1.00016 0.000263691 0)
(1.00018 0.000246637 0)
(1.02653 0.00411999 3.1036e-22)
(1.02686 0.00423941 1.34439e-22)
(0.965415 0.0288521 2.65196e-20)
(0.963484 0.0293093 5.23984e-22)
(0.964191 0.0272053 1.0245e-20)
(1.02879 0.00509161 -1.07261e-22)
(1.02873 0.00532349 -1.52893e-22)
(1.02906 0.00518084 -1.74113e-22)
(1.04806 0.0125993 -3.51139e-21)
(1.04645 0.0132774 -4.79634e-22)
(0.998921 0.00161644 3.40705e-21)
(0.999036 0.00162016 7.2795e-23)
(1.01296 0.0164381 2.35376e-21)
(1.01304 0.0170677 -2.97734e-21)
(0.978974 0.022489 9.64128e-21)
(0.980292 0.0232931 -1.93762e-21)
(1.01244 0.0303923 2.72815e-21)
(1.01129 0.029732 -8.0576e-22)
(0.967078 0.0280391 7.46384e-21)
(0.966654 0.029917 7.93486e-21)
(0.997836 0.000376484 1.24684e-22)
(0.99796 0.000251867 3.37224e-21)
(0.997741 0.00018098 -3.40161e-21)
(0.997046 0.00141477 1.06066e-21)
(0.997208 0.00158134 -1.76901e-21)
(0.99727 0.00132083 -9.19876e-23)
(1.04415 0.0358358 3.11478e-21)
(1.04587 0.034888 1.30167e-21)
(1.02118 0.0123584 0)
(1.02113 0.0129899 -7.7025e-22)
(0.971772 0.00683667 9.90675e-22)
(0.970634 0.00728382 1.23343e-20)
(0.971557 0.00820328 5.13415e-21)
(1.01329 0.029988 1.66997e-21)
(1.0134 0.0290732 -1.44198e-21)
(1.01444 0.0296146 -2.99268e-21)
(0.978144 0.00396087 9.01588e-21)
(0.977592 0.00476221 1.62163e-21)
(0.978723 0.00461885 -2.71916e-21)
(0.742097 0.184494 4.84801e-20)
(0.746623 0.165324 3.61908e-21)
(0.761031 0.177903 1.80088e-20)
(0.623553 -0.471371 -2.2374e-20)
(0.719737 -0.491243 1.37483e-21)
(0.678499 -0.505625 1.50631e-20)
(0.997994 0.0175792 -2.77298e-21)
(0.997919 0.018276 1.05993e-22)
(0.997365 0.0177877 0)
(1.02895 0.00482047 4.45612e-22)
(1.02853 0.00493066 -3.03809e-23)
(0.654184 0.278158 3.6693e-20)
(0.990284 0.0217236 0)
(0.990599 0.0204909 0)
(0.878547 0.0538579 -1.06566e-20)
(0.881867 0.0480002 -2.58797e-20)
(0.873842 0.0473562 1.16163e-20)
(0.978843 0.00140624 -3.47383e-21)
(0.979262 0.00221921 -3.14667e-22)
(0.979797 0.00148092 1.46582e-20)
(1.00975 0.00404549 -1.2361e-21)
(1.00949 0.00425143 -2.85871e-22)
(1.24953 -0.294751 7.46334e-20)
(1.36175 -0.328059 -7.26689e-20)
(0.99585 0.00460622 3.23053e-21)
(0.995862 0.00422794 2.18339e-21)
(0.996119 0.00440996 0)
(0.912691 0.0730902 -1.44523e-20)
(0.911624 0.0673855 0)
(0.916943 0.0704915 1.22259e-20)
(1.20137 0.0769444 3.0995e-20)
(1.19823 0.0760523 -1.62479e-21)
(1.17196 0.105005 1.05972e-20)
(1.04447 0.0198681 3.45748e-21)
(1.04425 0.0181559 -1.56587e-21)
(1.51622 -0.185681 1.43053e-19)
(1.54342 -0.207897 -7.78845e-20)
(1.002 0.0255802 -3.63585e-21)
(1.00236 0.0249744 -7.26921e-22)
(1.00275 0.025892 -2.84863e-21)
(0.97413 0.0340416 6.18876e-21)
(0.97345 0.0323458 0)
(0.975294 0.0324728 -7.91421e-22)
(0.978683 0.00307829 -8.12156e-21)
(0.97755 0.00319244 -1.02349e-21)
(0.999956 0.000361924 0)
(0.999939 0.000358591 0)
(0.999958 0.000228019 0)
(0.996148 0.00734869 -3.62654e-21)
(0.995996 0.00701806 1.88058e-21)
(0.99581 0.00754694 1.3878e-21)
(1.22875 0.216895 0)
(1.21153 0.214482 0)
(1.22359 0.202025 0)
(0.987337 0.0120083 -4.06607e-21)
(0.987557 0.0126475 -3.43563e-21)
(0.986835 0.0124214 2.61267e-21)
(0.996312 0.00785466 -2.9343e-21)
(0.996485 0.00728369 5.52333e-21)
(1.01972 0.023573 -7.62063e-23)
(1.02023 0.0229149 2.96053e-22)
(1.01921 0.0228982 1.12941e-21)
(1.56732 -0.152392 1.9081e-19)
(1.45091 -0.155319 1.67319e-20)
(0.994748 0.0415488 -2.60323e-21)
(0.993305 0.0425725 3.46351e-21)
(1.02622 0.0043553 -1.58311e-22)
(0.997165 0.034083 4.18387e-21)
(0.998248 0.0332046 6.37844e-21)
(1.00851 0.020847 1.60374e-21)
(1.00794 0.0209812 9.27076e-22)
(1.00854 0.0214547 -4.84233e-21)
(0.998306 0.00482462 -1.61267e-21)
(0.998209 0.00461312 -3.46973e-21)
(0.998442 0.00458531 -1.35224e-21)
(1.00434 0.020214 6.88582e-22)
(1.00469 0.0197124 -1.67584e-21)
(1.00405 0.0195649 2.62046e-21)
(1.0038 0.0870921 2.40682e-21)
(1.0087 0.0871522 1.77935e-21)
(1.01549 0.0154453 1.48716e-22)
(1.01598 0.0157287 4.43248e-22)
(1.01578 0.0151322 7.55691e-22)
(1 4.094e-05 -3.65088e-21)
(1 4.11469e-05 -2.03542e-21)
(1.20288 0.10484 -1.27718e-20)
(1.20144 0.115859 1.9554e-20)
(1.21378 0.108717 -3.35913e-20)
(1.10592 0.0104559 -6.44117e-21)
(1.11933 0.0158713 8.76982e-21)
(1.11538 0.00305396 1.05146e-20)
(0.999931 0.000527953 0)
(0.999955 0.000388983 -4.07028e-21)
(0.988416 0.0373863 -3.9388e-21)
(0.987318 0.0363176 4.51408e-21)
(0.988788 0.0357388 0)
(1.05579 0.164866 -9.40047e-21)
(1.0638 0.163996 3.92145e-22)
(1.05972 0.173357 2.80082e-21)
(0.994093 0.0043848 -3.38763e-21)
(0.993838 0.00472393 -3.17278e-22)
(0.994157 0.00487595 4.15774e-21)
(0.998437 0.00506175 9.30613e-21)
(0.998189 0.00511436 1.40943e-21)
(1.00184 0.00291907 3.2914e-21)
(1.00201 0.00295272 3.32858e-21)
(1.01598 0.0025447 1.09314e-21)
(1.01569 0.00246235 -2.17713e-23)
(1.00633 0.000939383 -2.32979e-21)
(1.00611 0.000798754 -6.37118e-22)
(1.0061 0.0010596 2.90481e-21)
(1.00071 0.0139177 0)
(1.00108 0.0143327 0)
(1.00061 0.0145316 -3.56436e-21)
(1.02918 0.0550659 8.84867e-22)
(1.0276 0.0564575 -4.20675e-22)
(1.02689 0.05437 3.66915e-22)
(0.573404 -0.436341 -5.84267e-21)
(0.510195 -0.43832 -5.854e-21)
(0.972959 0.0066182 -3.06899e-21)
(0.972093 0.00562427 -1.08742e-20)
(0.999176 0.012619 2.33659e-21)
(0.99913 0.0130643 0)
(0.998719 0.0128062 0)
(0.99269 -0.00114542 4.12345e-21)
(0.993077 -0.00118518 6.61158e-22)
(0.992864 -0.000809939 8.12811e-21)
(0.99558 0.00478133 -4.93355e-22)
(1.00923 0.0206952 5.31168e-21)
(1.00855 0.0202047 1.71739e-21)
(0.161104 0.370953 1.57939e-20)
(0.00799211 0.346895 -1.21963e-19)
(0.180209 0.359435 -3.81428e-20)
(0.987142 0.0113533 -1.38883e-21)
(0.987916 0.0115552 -8.74405e-21)
(1.09711 0.00575017 1.36592e-21)
(1.09215 -0.00555121 2.74022e-20)
(0.99364 0.0242108 -1.6367e-21)
(0.994359 0.0248854 -5.18066e-21)
(0.994464 0.0237741 4.45662e-21)
(0.995107 -0.00216884 4.92422e-21)
(0.995145 -0.00187417 0)
(0.995398 -0.00199745 0)
(1.20303 0.0910173 -1.98235e-20)
(1.19105 0.0990436 2.34984e-21)
(1.0011 0.0253919 -2.15203e-21)
(1.00165 0.0266591 0)
(1.06795 -0.00329098 1.27336e-20)
(1.0734 -0.0107716 -7.10351e-21)
(1.05056 0.0284033 4.78139e-21)
(1.05059 0.0268423 -2.50225e-21)
(1.05211 0.0277663 1.597e-20)
(1.05059 0.159181 -6.81449e-21)
(1.0468 0.167084 4.95553e-22)
(0.99647 0.00827153 4.3898e-21)
(0.996622 0.00871848 1.00603e-20)
(0.996812 0.00818743 2.67298e-21)
(0.907187 0.0752559 -1.25689e-20)
(0.91342 0.0785948 1.96105e-20)
(0.982616 0.0106538 1.25245e-22)
(0.982515 0.0115795 1.05114e-20)
(0.981667 0.0107509 -3.98932e-21)
(-0.335412 0.0052232 -1.01171e-19)
(-0.462708 -0.00341031 -5.07772e-20)
(-0.507099 0.0165307 2.29803e-20)
(1.08138 -0.0501667 7.98735e-21)
(1.08161 -0.0467552 8.5073e-21)
(1.07882 -0.0474247 -1.07047e-20)
(1.01514 0.0158798 -1.58067e-21)
(1.01494 0.0152358 -5.45956e-22)
(1.11772 0.121311 -2.16238e-20)
(1.1119 0.11552 1.44771e-21)
(1.12047 0.114004 -1.89852e-20)
(-0.199309 0.38494 -2.60926e-20)
(-0.330416 0.373929 1.09895e-19)
(-0.18876 0.404287 1.33969e-19)
(1.0203 0.024282 -4.81068e-22)
(1.01925 0.0241988 -6.01302e-22)
(1.03816 -0.0699025 1.59974e-21)
(1.04184 -0.064736 -7.65008e-21)
(1.245 0.220687 -7.68307e-21)
(1.23193 0.234903 0)
(0.984229 0.0373573 -2.09184e-21)
(0.983176 0.0361373 -7.11053e-23)
(0.982498 0.0378928 3.59778e-21)
(0.992459 -0.00138922 0)
(0.992314 -0.000991669 -5.43444e-21)
(0.983425 0.0317961 4.69157e-21)
(0.984292 0.0330451 -1.3894e-22)
(0.98491 0.0314769 -4.09518e-21)
(1.22857 0.0131453 2.68972e-21)
(1.23351 0.0254605 7.34231e-20)
(1.21995 0.0206288 3.40712e-20)
(1.02434 0.00487536 -4.06927e-23)
(1.02425 0.00456244 -6.86257e-22)
(1.02392 0.00478141 -3.29121e-22)
(1.00034 0.0137351 2.55076e-21)
(1.00081 0.0135215 2.42129e-21)
(1.12586 0.072007 2.69719e-20)
(1.11977 0.0731274 -1.10186e-20)
(1.12467 0.0789165 -3.70559e-20)
(1.01843 0.00359838 -4.11114e-22)
(1.01817 0.00368905 8.10564e-23)
(1.0185 0.00385843 7.35992e-22)
(1.00464 0.0208721 -1.93117e-23)
(1.00395 0.0207248 6.57489e-22)
(1.00982 0.0640444 5.53319e-21)
(1.00718 0.0645074 -1.29779e-21)
(1.00848 0.0618519 -1.02772e-23)
(1.01949 0.0115707 1.60925e-21)
(1.01954 0.011067 3.83171e-24)
(1.01995 0.0113953 9.42293e-22)
(1.00001 3.92668e-05 -2.92551e-21)
(1.00002 4.93137e-05 2.87592e-21)
(1.00001 4.16368e-05 -4.47494e-21)
(0.963199 0.208653 1.90879e-20)
(0.984419 0.193313 3.706e-21)
(0.916951 0.21904 -2.63183e-21)
(0.0768399 0.234256 -6.06995e-21)
(-0.113462 0.219042 4.54109e-19)
(0.0325812 0.262424 1.13497e-19)
(0.999552 -0.000233567 5.06867e-21)
(0.999609 -0.000415876 7.1468e-23)
(0.999616 -0.00033309 4.67352e-21)
(1.01079 0.00183804 3.41794e-21)
(1.01104 0.00186929 4.41059e-21)
(0.960299 0.00169256 -6.76557e-21)
(0.962028 0.00230011 -7.03489e-21)
(0.961675 0.000392854 -6.74272e-21)
(0.996892 0.00126653 3.95088e-21)
(0.996842 0.0015301 -4.11297e-21)
(1.1141 0.128785 0)
(1.12316 0.126935 6.08233e-21)
(0.139658 0.143135 5.10656e-20)
(-0.0948812 0.0564745 7.02075e-20)
(-0.0799124 0.0964583 -4.06627e-20)
(-0.534213 -0.0868451 3.353e-20)
(-0.556219 -0.0569104 -5.06922e-20)
(-0.439991 -0.118384 7.27507e-20)
(1.09904 -0.0437173 6.16655e-21)
(1.09624 -0.0411021 2.39817e-20)
(1.09544 -0.0453994 -4.06087e-21)
(0.996176 -4.994e-05 3.02559e-22)
(0.996322 0.000127076 2.59372e-21)
(0.996054 0.000131244 -1.87122e-21)
(1.01905 0.0117201 1.00657e-22)
(1.01945 0.0120444 -6.56163e-24)
(1.00498 0.0271686 -3.32463e-21)
(1.0046 0.0279413 3.71196e-21)
(1.00548 0.0279773 5.89811e-21)
(0.982783 0.00966861 3.77388e-24)
(0.983513 0.0105387 0)
(0.964575 0.220485 -5.04411e-21)
(0.961922 0.232394 -5.49084e-21)
(0.974724 0.226963 1.1712e-21)
(0.470017 0.269014 -9.46869e-21)
(0.537304 0.331836 7.83691e-20)
(-0.0821836 -0.00967592 0)
(-0.0731969 -0.00461963 0)
(0.121743 0.204357 -2.20118e-19)
(0.265038 0.242491 9.31647e-21)
(1.02807 0.00593028 1.52992e-22)
(1.02766 0.00587853 -3.04178e-24)
(1.02784 0.00622087 1.29869e-22)
(1.00192 0.00770461 -2.86466e-21)
(1.00206 0.00807193 -1.50186e-22)
(1.00223 0.00786365 -1.47543e-22)
(1.60999 -0.120773 -6.41068e-20)
(1.58393 -0.105161 -1.74901e-19)
(0.717169 0.329277 0)
(0.710193 0.297279 0)
(0.684769 0.316267 -5.58013e-20)
(0.918108 0.136281 5.22391e-22)
(0.925853 0.136521 -1.43243e-20)
(0.921912 0.129005 1.04688e-20)
(1.2007 -0.308453 -2.05957e-22)
(1.22417 -0.264285 -1.83346e-21)
(1.20513 -0.279321 -1.93746e-21)
(0.479165 -0.229919 0)
(0.451418 -0.224043 0)
(0.514371 -0.272741 0)
(0.992981 0.0235499 -4.50815e-22)
(0.992374 0.0228334 2.40629e-21)
(0.993193 0.0224424 8.82378e-21)
(0.74422 0.205955 2.45148e-20)
(0.72363 0.192842 -6.71357e-20)
(1.05333 0.0699824 -4.39514e-21)
(1.0518 0.0667807 2.00691e-22)
(1.04987 0.0701648 -3.28551e-21)
(0.958472 0.000987954 -7.72502e-21)
(0.958805 0.00306992 5.47232e-21)
(-0.113232 -0.000599157 4.23453e-21)
(-0.0986377 -0.0205295 3.83052e-21)
(0.97698 0.00569444 -4.67876e-21)
(0.977774 0.00644865 3.18999e-21)
(0.976354 0.00664157 8.94655e-21)
(1.04892 0.0292135 -1.51906e-21)
(1.0507 0.03033 -8.30852e-21)
(0.972969 0.0356378 7.64734e-21)
(0.971011 0.03557 1.72503e-21)
(0.120144 0.38919 2.31337e-19)
(0.300587 0.386933 5.85486e-20)
(1.09697 -0.0805956 0)
(1.09192 -0.0749443 0)
(1.09964 -0.0737705 2.89683e-20)
(1.01225 0.0267309 -3.15091e-21)
(1.01177 0.0262835 -3.43491e-21)
(1.01145 0.0269917 -1.07569e-21)
(-0.220942 -0.152232 -2.23345e-20)
(-0.180558 -0.190553 -5.24407e-20)
(-0.0905449 -0.215891 -2.36134e-20)
(1.03429 0.0273977 -2.46306e-21)
(1.03309 0.0267075 0)
(1.03434 0.0260537 -2.14812e-21)
(0.799804 0.749005 -1.247e-20)
(0.794432 0.683426 0)
(0.738741 0.726805 0)
(0.982577 0.0307194 -5.17227e-21)
(0.981763 0.0323513 1.04518e-20)
(0.942802 0.230254 1.51999e-20)
(1.00776 0.19725 0)
(1.60032 -0.0794949 -5.5868e-24)
(1.57988 -0.122442 -1.42644e-19)
(1.08137 -0.0362646 9.4565e-21)
(1.08146 -0.0347275 -2.03262e-20)
(1.08286 -0.0359212 -1.5889e-20)
(1.31814 -0.232265 6.09116e-20)
(1.32324 -0.258266 4.6474e-20)
(1.3577 -0.245596 -1.45829e-20)
(1.04091 0.0163206 7.45734e-23)
(1.03974 0.0162451 -1.8227e-21)
(1.04043 0.0151322 6.11059e-21)
(0.994798 0.00349271 0)
(0.994715 0.00389744 0)
(0.995055 0.00369543 0)
(1.0107 0.00161532 -2.6933e-21)
(1.01052 0.00176753 7.43872e-24)
(1.01839 0.0423487 9.13078e-22)
(1.01975 0.0418197 0)
(1.0194 0.0438835 5.01018e-22)
(0.895483 0.118406 -2.33609e-21)
(0.903805 0.120624 9.28736e-21)
(0.902139 0.11259 2.98933e-20)
(1.01292 0.0267679 -8.94412e-22)
(1.01246 0.0275954 -1.29473e-21)
(1.00158 0.0143912 0)
(1.00212 0.0146155 0)
(1.00184 0.0139364 2.17306e-21)
(0.741202 0.330389 -2.78686e-20)
(0.723886 0.352856 0)
(0.976189 0.00505499 -7.65613e-21)
(1.01083 0.00984907 1.29637e-21)
(1.01124 0.00987113 -1.40206e-21)
(1.01108 0.0102864 -3.77253e-21)
(0.866646 0.840505 -1.06721e-20)
(0.873295 0.728287 1.90735e-20)
(0.999356 0.000348535 6.05625e-21)
(0.999347 0.000223947 -1.0595e-20)
(0.999425 0.000162124 -7.18213e-21)
(1.00001 9.92769e-05 3.11482e-21)
(1 0.000100735 -3.30266e-21)
(1.00001 0.000119129 3.51584e-21)
(0.999926 -0.000281067 6.63347e-22)
(0.999906 -0.000329562 8.87821e-21)
(0.99988 -0.000306313 6.94957e-21)
(1.31648 -0.201932 -6.23129e-20)
(1.28786 -0.214122 2.77819e-20)
(1.01115 0.000391318 0)
(1.01134 0.000339217 -1.37747e-21)
(1.01001 0.000196848 -2.14187e-23)
(0.95464 0.214128 -1.70516e-21)
(0.965933 0.209543 -9.26593e-21)
(1.06239 0.409961 -5.37099e-21)
(1.04246 0.414436 -1.04111e-20)
(1.05836 0.432454 7.46237e-22)
(0.96375 0.00284025 -6.13125e-21)
(0.962515 0.00414725 0)
(1.09268 -0.0875474 1.18691e-20)
(1.10155 -0.0853499 -1.12907e-20)
(0.98219 0.000920868 -3.20688e-21)
(0.981686 0.00158992 -3.19023e-21)
(0.982535 0.00169729 -3.11539e-21)
(0.999483 0.00325015 -2.94339e-21)
(0.999357 0.00326079 6.10965e-21)
(0.999436 0.00344374 -5.845e-21)
(1.13331 0.0465588 1.02958e-20)
(1.13148 0.0398771 9.72517e-21)
(1.13937 0.0418281 -5.27467e-21)
(1.00532 0.00981181 2.1537e-21)
(1.00512 0.00949664 2.36813e-21)
(1.00497 0.00980131 2.27415e-21)
(1.0308 0.0537841 5.67623e-22)
(1.03155 0.0560912 -4.97887e-22)
(0.959013 0.00922645 7.12216e-22)
(0.960084 0.00749976 -1.96374e-21)
(0.960983 0.00918332 -1.73209e-21)
(1.17135 0.401855 -1.27281e-20)
(1.15446 0.389835 5.71545e-20)
(1.1727 0.381174 7.28643e-21)
(1.04383 -0.00497461 -8.77594e-22)
(1.04232 -0.00502598 6.69e-21)
(0.951875 0.0507246 -1.7804e-21)
(0.952066 0.053411 -3.49251e-21)
(0.949288 0.0517617 -5.31506e-21)
(1.04772 0.00635585 2.8406e-21)
(1.04763 0.00490024 3.73097e-22)
(1.04646 0.00568118 2.62936e-22)
(1.06748 -0.0323188 0)
(1.0681 -0.0375158 -1.82107e-21)
(1.06234 -0.0329578 0)
(0.99991 0.013528 -1.22557e-21)
(0.999515 0.013285 -3.91539e-21)
(0.99999 0.0130927 7.59863e-22)
(1.11328 -0.0595619 -1.32068e-20)
(1.1166 -0.0654116 0)
(1.12008 -0.0589345 -1.92829e-20)
(1.0291 0.00468689 -6.95188e-23)
(1.02929 0.00481423 3.23871e-23)
(1.0186 0.0113267 -5.93558e-22)
(0.82523 0.345553 0)
(0.845181 0.339664 0)
(0.842617 0.361195 -1.31511e-20)
(1.00182 0.00736453 -2.2977e-21)
(1.00167 0.00754898 3.50325e-21)
(1.02927 0.00450014 1.91634e-22)
(1.02891 0.00451764 -2.60146e-22)
(1.02249 0.0127614 -1.24201e-23)
(1.02216 0.0132437 -2.66571e-22)
(1.01195 0.0641165 -8.13358e-22)
(1.0109 0.066857 1.60155e-21)
(1.00966 0.0108635 5.41281e-22)
(1.00966 0.0112551 5.4064e-22)
(1.01003 0.0111047 -1.52782e-21)
(1.01173 0.00065691 -1.01575e-21)
(1.01186 0.000583293 -1.61158e-21)
(1.01187 0.000787031 -9.33293e-22)
(1.03155 0.0155974 0)
(1.03219 0.015184 1.79274e-21)
(1.03226 0.0160782 -1.5354e-21)
(1.03062 0.00425393 -1.90367e-22)
(1.03073 0.00419299 -1.9105e-22)
(1.03067 0.0040922 1.02409e-22)
(0.996033 -0.000262485 2.12914e-21)
(0.99633 -0.000255934 -5.27207e-21)
(0.992794 0.0246475 7.55256e-22)
(1.00529 0.026384 2.57485e-21)
(1.00447 0.0263218 -6.00125e-21)
(1.02577 0.0579758 1.47485e-22)
(1.02854 0.0593548 1.40921e-21)
(0.999181 0.0122043 2.24198e-21)
(0.999581 0.0124405 -2.68959e-22)
(0.997408 -0.000250861 -2.34982e-22)
(0.997221 -0.000120391 1.89855e-21)
(1.00892 0.000915687 -6.91833e-22)
(1.00869 0.000674667 2.14843e-21)
(1.00864 0.000938773 1.40503e-21)
(0.988055 0.0390624 -3.78329e-21)
(0.989601 0.0383487 -2.798e-22)
(1.02849 0.00546239 7.11237e-23)
(1.02825 0.00571875 1.36312e-22)
(1.02809 0.00539393 3.69997e-24)
(1 6.86036e-05 -1.67855e-22)
(1.00001 8.54173e-05 -2.06699e-21)
(1.01062 0.00122124 2.43677e-21)
(1.0106 0.00102603 -1.9912e-21)
(1.0108 0.00109833 -9.97438e-22)
(0.998044 0.0168508 6.31672e-22)
(0.998609 0.0172867 4.86546e-23)
(0.992172 0.0567348 3.60091e-21)
(0.990595 0.058204 8.48608e-21)
(0.993032 0.0588229 -4.96106e-21)
(1.17141 0.418551 -2.33841e-20)
(1.18948 0.409016 -2.53899e-20)
(1.10246 -0.0414906 -1.58267e-21)
(1.10177 -0.0466328 -1.31592e-20)
(-0.255416 -0.10907 0)
(-0.339997 -0.0968524 0)
(0.915039 0.144072 2.62048e-20)
(0.910652 0.136076 2.53837e-20)
(0.933602 0.136631 -1.83303e-22)
(0.941516 0.136731 5.59934e-21)
(0.93596 0.129431 -1.63109e-21)
(0.962703 0.041723 6.03816e-21)
(0.965271 0.0423893 -9.56947e-21)
(1.05811 -0.0290715 2.69045e-21)
(1.05808 -0.0321997 0)
(1.06097 -0.030784 0)
(1.26557 -0.122707 -1.58741e-20)
(1.26106 -0.156084 -4.51815e-21)
(1.25689 -0.142792 -1.12107e-20)
(1.03083 0.0161492 -9.86895e-22)
(1.03075 0.0152086 0)
(0.994418 0.00411326 -5.48475e-21)
(0.994111 0.00396511 -3.60007e-21)
(1.01162 0.000797454 4.2642e-23)
(1.01157 0.00057551 1.61997e-21)
(1.01689 0.0432298 8.62581e-22)
(1.01733 0.0413272 -4.92433e-22)
(1.00933 0.0106398 0)
(1.00967 0.010505 2.27724e-21)
(1.1147 -0.067925 3.9213e-22)
(1.11008 -0.076243 1.0753e-20)
(1.03064 0.00736101 6.65606e-22)
(1.03032 0.00754869 7.24423e-22)
(1.03077 0.00768997 -6.80635e-22)
(0.996098 0.00836616 -2.55469e-21)
(0.999963 -0.000202318 -1.27619e-20)
(0.99994 -0.000235687 -6.69601e-21)
(0.888505 0.113959 -1.01568e-20)
(0.888821 0.122368 1.21729e-21)
(1.02883 0.00557994 2.20965e-22)
(1.08062 0.407021 2.3929e-20)
(1.06861 0.393566 1.42801e-21)
(0.93144 0.144754 -1.25265e-20)
(1.25749 0.147692 0)
(1.2702 0.15887 -2.75498e-20)
(1.27547 0.138554 -7.80864e-20)
(1.03424 0.0283463 8.64116e-22)
(1.03546 0.0277201 5.07719e-23)
(1.03062 0.00441733 3.42058e-23)
(1.03049 0.00435947 0)
(1.00901 0.0104391 5.41426e-22)
(1.00899 0.0100893 8.48939e-22)
(1.00866 0.0101997 -5.10171e-23)
(1.03563 0.00756372 2.1898e-21)
(1.03583 0.00729415 1.85195e-21)
(1.03606 0.00769099 3.16569e-21)
(1.02471 0.00495572 6.00172e-22)
(1.02435 0.00514673 4.44975e-22)
(1.05717 0.0688513 -3.62723e-21)
(1.05547 0.0728929 -3.42298e-21)
(0.990603 0.0133616 2.85996e-21)
(0.990141 0.0130844 -8.7259e-21)
(0.990723 0.012803 -8.30771e-21)
(1.04883 0.00983113 4.502e-21)
(-0.198525 0.0133923 -1.67099e-19)
(-0.145186 -0.0149458 2.60494e-19)
(1.01071 0.00949923 1.3722e-21)
(1.01052 0.00984949 2.27538e-21)
(1.01954 0.0142426 2.15878e-21)
(1.01977 0.013748 6.97175e-22)
(1.02019 0.0142194 4.5796e-22)
(1.26661 -0.0867504 -2.81365e-20)
(1.25608 -0.104632 -1.896e-20)
(1.05895 -0.0260003 -2.11971e-21)
(1.0121 0.0254638 1.82915e-21)
(1.01119 0.025605 -2.04549e-21)
(0.997605 -0.000194247 6.73905e-22)
(0.997667 -1.02796e-05 -3.95855e-22)
(0.997821 -0.000104375 6.78252e-21)
(0.993776 0.0549821 -5.1316e-21)
(0.991526 0.0545128 4.09973e-21)
(1.17072 -0.355803 1.92818e-21)
(1.19209 -0.331724 2.21563e-20)
(1.09246 0.000690773 9.31514e-21)
(1.09209 0.00474511 -3.19179e-21)
(1.0888 0.00156432 -8.07121e-22)
(1.22368 0.00240417 1.34359e-20)
(1.23649 0.00509357 -7.42848e-20)
(1.00012 0.000160696 4.95126e-21)
(1.0001 0.000165457 -4.66924e-21)
(1.01065 0.00141249 8.80585e-22)
(1.01089 0.00148612 -2.714e-21)
(0.999835 0.0140461 -8.50573e-22)
(1.01868 0.012615 -9.20353e-22)
(1.0181 0.0126414 0)
(1.07286 -0.030802 0)
(1.0685 -0.0254893 0)
(0.994009 0.0106651 1.02014e-20)
(0.994101 0.0112002 -4.36907e-21)
(0.993612 0.011064 6.95204e-21)
(0.997907 0.000539672 6.44812e-21)
(0.997693 0.000513632 4.06361e-21)
(1.00176 0.00852249 0)
(1.00194 0.00886373 -3.51913e-21)
(1.00164 0.00878193 0)
(0.98273 0.000239309 0)
(0.981811 2.75348e-05 0)
(1.03862 -0.00575748 4.42055e-21)
(1.03731 -0.00678961 8.17875e-22)
(1.0373 -0.00498782 2.38568e-21)
(0.972122 0.0465434 -2.31403e-22)
(0.971502 0.0485302 -5.20147e-21)
(0.969896 0.0464724 1.35597e-20)
(1.1258 0.195441 0)
(1.11446 0.192024 0)
(1.12427 0.1839 0)
(1.03738 -0.407561 4.63398e-21)
(1.04385 -0.37655 2.82675e-20)
(1.00555 -0.368114 1.36842e-20)
(0.968647 0.0269407 0)
(0.967278 0.0257119 0)
(0.99115 -0.107364 -1.06631e-21)
(0.972415 -0.102742 -1.00261e-20)
(0.980861 -0.12124 9.48042e-21)
(0.99919 0.0117664 -2.41726e-21)
(0.999215 0.0113375 -4.38569e-21)
(0.99956 0.0115814 4.36441e-21)
(1.03507 0.00769325 6.90565e-22)
(1.03536 0.00823898 1.31801e-21)
(0.998915 5.43872e-05 -5.13239e-22)
(0.998878 -0.000108507 -4.99928e-22)
(-0.883319 0.1271 -2.02906e-20)
(-0.907792 0.11421 -1.86231e-20)
(1.20164 0.0801591 4.91421e-21)
(1.20021 0.0687779 7.43137e-20)
(1.19057 0.0760617 8.15695e-22)
(1.57595 -0.0463484 1.4211e-19)
(1.53948 -0.0125714 5.34415e-20)
(1.51673 -0.0527039 -3.51108e-20)
(0.516674 -0.245902 0)
(1.01003 0.00415694 -2.28677e-21)
(1.01006 0.00442928 1.99328e-21)
(1.0103 0.00425703 -1.22111e-21)
(1.03049 0.00704704 0)
(1.03088 0.00711802 0)
(0.997763 0.0190086 2.57515e-22)
(0.998394 0.0187739 7.53241e-21)
(0.978899 0.0538007 -4.78365e-21)
(0.981303 0.0532249 -7.7727e-22)
(0.979379 0.0513921 7.25043e-22)
(1.04909 0.00701134 -3.97679e-22)
(0.999977 0.000117616 0)
(0.999984 9.58389e-05 -2.12479e-22)
(0.999982 8.68265e-05 -5.9035e-23)
(1.04605 0.0836651 3.61294e-21)
(1.04862 0.081005 -8.83744e-22)
(1.04913 0.0861044 1.97801e-21)
(1.00655 0.000875385 -5.03139e-21)
(1.00648 0.00114542 -2.81403e-21)
(1.01211 0.000539632 0)
(1.01225 0.000495468 -7.69575e-22)
(1.01199 0.000381868 -1.67038e-21)
(0.991466 0.0232633 -5.87635e-21)
(1.12736 0.205137 1.17679e-20)
(1.13751 0.196701 1.17694e-20)
(0.999992 2.75625e-06 -3.98687e-21)
(0.999996 2.44803e-05 -3.45755e-21)
(0.999996 1.98105e-05 -3.41482e-21)
(1.03201 0.0258905 9.91671e-22)
(1.03183 0.0270994 1.22556e-21)
(0.983045 0.00892786 6.20672e-21)
(0.983292 0.00819053 6.4238e-21)
(0.983863 0.00884678 2.48456e-23)
(0.972765 0.0446223 4.15377e-21)
(0.974351 0.0463498 6.38891e-22)
(0.52078 -0.364009 2.43153e-21)
(0.54582 -0.334444 -1.55776e-21)
(0.447034 -0.308786 -5.48222e-21)
(0.998812 0.0119529 3.26195e-22)
(0.999485 -0.000140738 4.93214e-21)
(0.999486 -4.26151e-05 2.90314e-21)
(1.00125 0.000872811 -3.79167e-22)
(1.00125 0.000990804 0)
(1.00138 0.000963744 -3.5951e-21)
(1.02078 0.0120859 -4.36835e-22)
(1.0212 0.0117805 -3.74787e-22)
(1.07478 0.102698 6.63962e-21)
(1.07887 0.107293 0)
(1.07135 0.107432 -1.06865e-20)
(1.08005 -0.0372587 2.94864e-20)
(1.0813 -0.0380347 3.37879e-20)
(0.947674 0.135251 0)
(0.946503 0.142924 0)
(1.02124 -0.11933 0)
(1.03108 -0.110519 -6.29571e-21)
(1.03771 -0.124159 2.91452e-21)
(1.03961 -0.00514826 -1.77108e-21)
(1.0397 -0.00682829 3.54697e-21)
(1.0472 0.0303093 -1.81904e-22)
(1.04702 0.0285083 8.05368e-21)
(0.98213 0.00897298 3.18275e-24)
(1.01164 0.00100698 2.46335e-22)
(1.02238 0.0224303 -5.9317e-23)
(1.02269 0.0217969 1.32811e-22)
(1.02191 0.0218241 4.45585e-23)
(1 7.44334e-05 2.99116e-23)
(1.00001 9.47408e-05 -3.159e-21)
(1.04498 -0.0852364 6.74733e-21)
(1.05536 -0.088485 -3.17966e-20)
(1.04745 -0.0960585 4.70075e-21)
(0.991064 0.0136305 4.72093e-21)
(0.990499 0.0140372 1.13089e-20)
(1.01346 0.0310357 1.26409e-21)
(0.993291 -0.0746337 -2.42419e-21)
(0.996386 -0.0671442 -2.10487e-21)
(0.986148 -0.0673015 3.60596e-22)
(1.00137 0.014902 1.75797e-21)
(0.982229 0.0585873 7.09394e-21)
(0.983815 0.0569132 1.70037e-21)
(0.984741 0.0593784 1.42359e-21)
(0.975032 0.0357029 -2.33664e-22)
(0.988726 -0.0839318 4.84306e-22)
(1.00071 -0.0810569 2.19211e-21)
(1.02319 0.00846494 -1.70193e-23)
(1.02346 0.00823351 -4.90214e-23)
(1.02351 0.00867198 -3.68229e-22)
(0.951469 0.0476559 -1.18145e-20)
(0.954498 0.049305 -7.32024e-21)
(1.05312 0.151983 3.14731e-21)
(1.04464 0.15344 -3.13396e-21)
(1.04282 0.0867284 2.13056e-21)
(1.04262 0.0816907 1.44738e-21)
(1.02074 0.0407916 0)
(1.02198 0.0396627 0)
(1.02019 0.0393974 0)
(0.994411 0.00263356 -2.74738e-21)
(0.994289 0.00300876 -3.18528e-21)
(0.994042 0.00274454 5.53142e-21)
(1.00801 -0.113534 0)
(1.01313 -0.131037 1.2009e-20)
(1.12725 0.0657652 3.23741e-20)
(1.13158 0.0723247 6.85068e-21)
(1.02656 0.0109084 -7.72091e-22)
(1.02709 0.0107084 4.32409e-23)
(1.02693 0.0112032 -2.58827e-22)
(1.07777 0.0973218 -3.81553e-21)
(1.07094 0.0983083 1.09034e-21)
(0.999895 0.00428267 3.60116e-21)
(0.999799 0.0041679 -2.23265e-21)
(0.999789 0.00437569 -4.61491e-22)
(1.00196 0.00717373 3.19336e-21)
(1.00171 0.00700542 -2.94212e-21)
(1 0.00442531 0)
(1 0.00417821 4.62395e-22)
(0.979672 0.0578097 -7.69277e-21)
(0.980603 0.0604977 1.28704e-21)
(1.51041 0.0192513 -3.1637e-20)
(1.46545 0.0100244 -2.83713e-20)
(1.47667 0.0459835 4.71488e-21)