/*--------------------------------*- C++ -*----------------------------------*\
| =========                 |                                                 |
| \\      /  F ield         | OpenFOAM: The Open Source CFD Toolbox           |
|  \\    /   O peration     | Version:  v2012                                 |
|   \\  /    A nd           | Website:  www.openfoam.com                      |
|    \\/     M anipulation  |                                                 |
\*---------------------------------------------------------------------------*/
FoamFile
{
    version     2.0;
    format      ascii;
    class       volScalarField;
    location    "550";
    object      ddt0(k);
}
// * * * * * * * * * * * * * * * * * * * * * * * * * * * * * * * * * * * * * //

dimensions      [0 2 -3 0 0 0 0];


internalField   nonuniform List<scalar> 
10042
(
0.000142636
-0.00728247
0.000158337
-1.05026e-07
1.99036e-07
-0.00324623
0.000316503
-0.00307976
2.96599e-08
-1.5212e-06
-0.00324221
-0.00903282
-1.34429e-06
2.31327e-07
-2.4866e-08
2.01393e-07
-0.00437811
-0.00256596
5.81675e-08
1.632e-06
-1.37026e-06
0.000171042
7.0408e-08
-7.11273e-05
7.88481e-08
9.2395e-09
1.79405e-08
2.32069e-08
-0.00400956
0.00382611
8.91249e-09
-2.94244e-06
9.18885e-08
1.34122e-07
-0.00101504
0.000479051
2.30613e-07
-2.58708e-08
6.36409e-08
-2.1159e-06
0.00235878
8.11958e-08
0.00354058
-0.0138568
3.77378e-08
-7.1364e-08
-1.34028e-08
-1.21362e-07
8.30465e-07
0.0684446
0.00964913
-5.49334e-09
-0.003715
8.091e-08
-0.0216251
0.00052581
-1.12249e-06
6.22042e-05
2.64296e-07
-4.85851e-09
1.10229e-06
-0.0053695
6.28737e-05
-0.0026848
-2.37927e-05
2.89747e-07
1.42444e-06
0.000466899
-6.84316e-09
0.000407896
0.0565089
7.91407e-07
3.83534e-08
2.38551e-07
3.31967e-07
0.0348319
6.66724e-05
-8.12984e-09
8.40778e-05
7.81439e-08
-0.00922208
0.00104382
6.65147e-08
-1.08662e-07
3.37679e-06
-1.7976e-06
9.82943e-07
8.53656e-05
-2.37132e-07
2.16857e-05
-5.712e-07
2.11799e-09
2.87542e-05
4.61537e-06
0.000107658
-2.2439e-07
0.0120246
1.53588e-06
0.00346189
7.32105e-08
-3.45886e-07
2.19573e-06
5.84104e-07
-1.87621e-06
9.79407e-09
6.10523e-08
-0.0156211
2.64086e-07
0.000183877
2.26537e-07
4.57166e-08
4.73503e-05
-6.08556e-06
-0.00223428
-1.98505e-05
-3.66926e-08
4.35233e-05
9.0058e-08
4.2676e-05
-3.93404e-08
-3.82535e-09
-0.00896243
-0.00946318
-1.0026e-07
3.13883e-05
-1.69546e-07
3.20824e-08
-0.0218359
-0.0004823
5.35049e-05
4.52358e-08
9.67646e-08
-3.64645e-07
4.79215e-08
2.36161e-05
0.0371406
-2.73318e-07
0.00719018
3.75933e-07
0.00756427
-9.01962e-07
3.48952e-08
-0.00976538
2.08622e-08
4.37925e-07
-4.09517e-08
1.98236e-06
-7.51609e-09
6.60815e-07
0.00772368
1.18586e-07
-2.21767e-08
-5.83761e-08
-2.26783e-06
8.27183e-05
4.80112e-07
-0.00010945
0.00115515
-3.29685e-07
3.86941e-09
3.06844e-08
-3.48659e-06
0.0231612
-7.50648e-08
4.93823e-07
0.00538657
5.55991e-08
-2.15813e-06
0.000141303
1.37154e-07
-0.00029049
0.00423325
-0.00302145
1.48558e-07
6.61835e-08
-0.00584164
7.86629e-08
-4.21641e-08
1.23783e-07
7.29481e-09
5.1868e-07
1.2717e-07
2.33906e-07
-6.36855e-08
-0.00227039
-7.20004e-07
6.62319e-07
-2.24507e-09
0.00765672
-6.21248e-09
-0.00651856
-1.12383e-06
1.0376e-07
6.17775e-08
-0.017471
-2.56343e-08
-0.0183784
-0.000623615
0.0123432
-9.51812e-08
0.00205269
-3.31219e-05
0.000473144
-6.26943e-08
0.00451613
-3.56584e-07
-0.00379167
-1.96001e-06
-1.36988e-07
6.10285e-08
-2.52295e-06
-4.44565e-08
-0.00396938
2.85032e-05
2.40699e-07
0.000102868
-1.31631e-08
0.0153392
-1.36116e-07
0.00405712
-0.00626367
-0.000200167
-0.00432752
0.00010904
-1.61691e-07
-5.29722e-05
1.08236e-07
-4.7148e-07
4.34336e-07
6.02236e-07
-9.06361e-09
-8.62731e-08
-6.60888e-07
3.09263e-08
1.14825e-07
-0.00166078
-7.95437e-07
0.0137006
3.68725e-07
-0.000731165
0.0045128
0.00195862
-8.27235e-09
-5.64545e-06
-0.00703349
1.97669e-07
0.00183429
4.64613e-07
-1.16697e-07
1.69287e-07
4.35911e-08
1.14256e-07
-1.79461e-05
-0.0196896
5.95924e-07
-9.66332e-07
-5.83857e-08
2.17233e-07
0.0139211
-1.44176e-07
3.52349e-05
4.78967e-08
-1.11851e-08
-1.09573e-08
-1.53893e-06
-0.00979846
9.78547e-06
-0.000614777
-2.3524e-07
-2.08573e-07
-3.02927e-07
0.0923296
1.67213e-07
0.0668002
1.13655e-08
8.56943e-07
-1.2311e-07
1.44574e-07
-2.31351e-07
-0.0171129
5.90705e-08
-0.000582473
-0.0252526
1.55094e-07
9.67728e-07
-0.00546439
5.41049e-05
3.27171e-08
-0.000269408
-4.96843e-08
-7.38479e-07
1.29232e-05
3.19641e-07
-0.00070086
-3.5781e-05
3.61502e-09
-0.0018957
-5.84339e-07
-2.72632e-07
-1.12125e-08
1.32539e-07
0.000314151
-3.93723e-09
0.00691149
5.60083e-05
-0.00485936
2.66255e-07
-2.06773e-06
-0.00112946
-0.000955005
6.58923e-08
-1.4392e-08
-9.02105e-08
2.92554e-08
1.16218e-05
-0.000242688
-4.93123e-09
-0.00225727
-0.000396815
-4.01394e-08
-4.73508e-09
0.0536592
3.98904e-06
0.00166808
-0.00303231
2.56788e-07
-5.73217e-06
5.36495e-08
-7.10833e-07
-3.82256e-07
-3.64182e-07
-2.52447e-07
7.80121e-05
2.75837e-08
-0.00416696
-0.000364455
-0.0173136
0.00141712
2.02446e-07
0.00277012
1.51708e-06
-1.16245e-06
-7.71983e-09
1.12827e-05
-6.91472e-08
-1.46515e-08
4.71132e-08
5.10331e-09
1.28099e-06
0.0139571
-1.00309e-07
0.00011535
9.14893e-07
2.13029e-08
-0.0191136
-1.53204e-05
1.99797e-07
9.70982e-09
0.0088717
6.12295e-09
-6.70349e-08
2.91641e-07
4.78807e-07
0.00113865
0.00113074
3.84179e-07
-9.87312e-08
-1.05789e-09
7.56042e-07
-0.0227281
-2.16688e-09
-1.74028e-07
1.87123e-07
1.23508e-08
-2.61096e-06
1.49379e-07
1.37551e-05
0.00107481
-3.70253e-05
2.48526e-06
-1.44747e-07
0.000843712
9.01196e-07
7.46182e-08
-3.73653e-06
-3.65104e-08
3.13249e-08
-6.84791e-08
1.09192e-07
1.82743e-08
-1.57761e-07
-0.0313882
-8.35173e-08
-2.18377e-05
0.00049562
-0.0261926
-1.03563e-08
-0.00213536
9.96425e-07
-3.17927e-06
-4.13937e-08
-0.00357955
1.17983e-06
-0.0251498
0.0212195
-1.6087e-07
-3.81576e-06
-9.3695e-07
0.00158187
-3.40329e-07
-0.00453526
3.39297e-07
0.00129499
-2.33052e-07
-0.000359671
6.79884e-07
5.71772e-07
-0.0244101
1.52353e-08
6.20451e-07
5.38722e-08
-0.00139295
5.08302e-08
-6.1289e-08
-6.19489e-06
8.73835e-10
1.68415e-06
-0.00513284
-1.5249e-07
-1.17936e-06
1.20127e-07
1.17227e-08
2.82011e-07
0.000354275
-3.68624e-07
3.39266e-07
0.0236989
7.59944e-06
6.27422e-08
-0.00234158
7.29905e-09
8.82009e-06
-4.66014e-07
0.0148924
0.0703765
-0.000597461
2.54455e-05
0.00773987
-0.0027552
-4.88257e-08
-5.00748e-07
-0.00535949
-0.00564914
-3.31294e-06
1.71516e-07
3.93398e-08
3.2194e-06
0.00527585
-7.52729e-08
-7.84259e-08
2.16726e-07
3.65629e-08
5.06514e-07
8.19613e-07
8.77876e-08
5.78129e-08
-0.000333676
1.26341e-07
7.50506e-06
-0.000266861
0.0044136
1.36465e-08
-0.0179522
0.0294194
-0.00633016
1.57502e-08
-2.23096e-07
3.08596e-10
-0.0218208
-2.43635e-07
-0.000335302
-2.29979e-07
0.00514638
1.68665e-08
-8.94792e-09
5.47583e-08
4.28996e-06
0.00157495
7.66275e-08
-8.19517e-08
5.96439e-08
-0.00925459
4.93383e-08
-6.47655e-05
7.4097e-05
-4.96315e-06
4.21033e-08
-8.40412e-05
-0.000330925
0.00276358
-1.09313e-07
-7.08498e-08
9.04708e-05
-0.0110193
-7.29088e-08
0.00128292
-1.42336e-08
-0.00141105
1.26096e-06
9.68045e-07
5.05925e-07
-0.00371469
-5.11537e-08
1.1668e-07
2.84006e-07
-0.00158641
-3.4631e-07
0.000748813
-3.1743e-07
-8.15673e-08
-4.47939e-08
7.01705e-07
0.00173874
5.64213e-07
3.51597e-07
0.00285325
-0.000676941
-5.51125e-06
4.83085e-07
3.18993e-07
-0.00212693
0.00340708
-1.66541e-07
9.94625e-08
2.62762e-05
-2.56804e-07
1.14204e-07
-0.00557676
4.23364e-08
-0.00665015
-9.9102e-08
-1.40262e-06
3.82848e-06
-0.00244283
-3.73972e-07
-4.08433e-07
-2.50567e-07
3.99388e-08
0.00274083
-9.26323e-09
-0.0110283
-4.72089e-08
4.20525e-08
2.1867e-06
-0.0220899
0.00909438
9.74652e-05
6.56198e-08
9.21077e-08
-2.82906e-08
-5.50969e-07
4.12467e-06
2.6805e-07
-0.0115706
3.17644e-08
9.8065e-09
0.000950897
5.83605e-08
1.38918e-06
2.63789e-08
8.37057e-08
0.000357088
0.000486125
3.40273e-06
-0.00302917
-2.52749e-07
-5.95028e-07
1.02295e-07
2.2459e-08
1.05333e-07
-9.15155e-09
-1.05832e-07
2.75612e-09
-0.00202379
-2.82154e-07
0.000456016
-3.45233e-08
2.00704e-06
-2.05414e-09
1.35353e-06
0.011889
2.16642e-08
1.00981e-07
-0.00282953
-0.000170683
1.37774e-08
-0.00333042
-1.35235e-07
8.56213e-05
-2.80413e-08
7.14441e-08
9.37184e-08
0.00184352
7.86535e-10
-4.39713e-08
1.74078e-07
-0.0081786
3.34353e-08
5.01648e-08
-3.08305e-08
0.00241303
6.54812e-08
1.25526e-07
3.03508e-08
7.45857e-08
4.07688e-07
9.53084e-08
1.38911e-06
8.41678e-08
0.0187684
-0.0149106
0.00946101
-3.65927e-07
-1.47834e-07
-1.47746e-07
-0.00233828
6.80715e-07
-4.59106e-05
-0.00465276
0.0100608
5.43817e-05
0.00190545
-3.37067e-07
-1.56586e-07
0.000271083
0.00152241
-3.2129e-06
-4.00375e-06
-1.10775e-07
0.000496423
-1.02293e-07
-1.49646e-07
2.05965e-08
1.3347e-08
-8.20712e-08
-9.28199e-05
1.35695e-07
-1.33604e-09
-0.0472439
2.2099e-07
-0.00279966
-1.14939e-06
2.57646e-07
1.56504e-05
-4.4156e-08
-0.00249711
-1.16515e-08
1.36855e-07
8.46922e-06
-1.04398e-07
1.27562e-09
1.71311e-08
-1.16048e-07
-9.5558e-08
0.0038895
-0.00922538
-0.0163435
-9.63343e-08
-8.78201e-08
-1.29837e-07
0.000857892
7.71764e-07
3.59291e-07
-8.93518e-09
-8.61669e-08
0.00233312
0.0477754
4.39304e-05
1.43408e-07
-2.64821e-07
0.0253234
-5.8293e-07
1.59345e-06
2.80146e-07
0.00289335
-0.0135389
0.00197864
-1.02775e-07
2.87981e-08
1.95985e-08
-0.00137429
6.66692e-08
-2.69082e-07
-1.52869e-07
-1.22965e-08
8.60433e-06
-4.1183e-07
0.0072687
-0.0135095
2.81146e-08
5.8805e-08
-3.61326e-08
-0.00143609
1.43913e-08
-0.00454972
-6.69377e-07
0.00959237
3.95869e-09
-1.05751e-07
1.53127e-08
5.98571e-08
-8.04965e-08
-9.38872e-09
-2.46516e-07
-9.91831e-08
-2.50221e-05
8.18861e-08
0.00691048
-2.64966e-07
0.00028854
0.0021912
8.28414e-07
0.000995549
-1.5784e-09
6.93809e-08
1.54766e-06
2.85714e-08
-0.00240135
-7.46369e-08
-4.12125e-07
-3.61005e-08
-0.0178798
-9.15507e-08
-0.000833397
-3.83986e-07
-9.44989e-08
6.30547e-06
-0.00209066
-8.33808e-07
-2.62682e-08
-4.44856e-06
-2.16938e-07
-0.00684382
-8.232e-06
6.68913e-05
-2.2589e-05
-1.08444e-07
-1.46003e-07
2.50757e-07
1.70236e-06
-3.17522e-07
0.00104659
2.87309e-05
-1.31026e-08
-7.50847e-08
1.05678e-06
1.95084e-06
-2.30836e-07
-0.00393652
-6.51687e-08
-2.11746e-07
-0.00490617
-4.36973e-08
-5.21763e-06
9.239e-07
-2.42125e-07
0.000611272
-3.11938e-06
-1.82444e-07
-5.69727e-07
9.55253e-07
2.19226e-07
-0.0210073
-1.55793e-07
1.408e-06
-3.42735e-07
-0.00627556
-4.81938e-07
9.11656e-07
3.19249e-06
6.00579e-08
1.26827e-08
1.65652e-08
9.23367e-07
2.17945e-08
-2.00351e-07
-9.77202e-08
-1.51885e-07
2.84821e-08
3.19016e-07
4.35036e-08
-1.41322e-08
2.08283e-05
-2.91025e-08
-4.75825e-09
-1.15761e-07
-5.27635e-08
7.78485e-05
5.22669e-07
3.39571e-07
2.07791e-05
0.000632497
-9.6108e-08
4.86481e-05
0.000588014
-4.9207e-08
-2.8522e-07
-3.41352e-08
0.00200238
0.00292398
3.66421e-08
-5.23998e-08
2.06909e-07
0.000972257
-0.0443409
-5.20394e-07
0.00259896
0.00119089
0.00562114
-3.73489e-06
-6.22955e-08
5.59216e-07
0.00640796
-0.000647662
-3.01298e-07
-0.0261578
0.000183947
0.000927831
-0.00138352
1.83948e-08
2.3183e-05
-0.0116465
3.10194e-05
-0.0043053
1.44437e-06
-0.0122765
2.15744e-07
0.00187406
-1.17832e-07
1.03148e-05
5.53301e-08
-9.19253e-06
2.23345e-09
-1.6418e-07
9.66726e-08
0.0074146
-6.87989e-08
-2.45477e-08
0.000680357
-5.95341e-08
-1.27425e-07
-3.79523e-07
0.000800677
1.90224e-08
2.93137e-07
-3.50394e-07
-3.80678e-07
2.31346e-07
-3.72521e-07
1.26506e-08
0.0246123
0.000146407
0.000127134
-1.26242e-07
-0.0143794
-5.45181e-08
-5.32389e-06
-0.00225725
-1.34755e-06
8.01674e-08
-2.22737e-08
-3.72609e-07
1.43187e-07
0.0143096
2.11209e-06
-1.11608e-07
-0.00259346
1.14071e-08
-2.44614e-08
-0.00325158
-9.02043e-09
-5.40663e-08
0.0128256
-1.01373e-07
0.00102664
3.50069e-07
1.73835e-05
-5.06814e-07
2.78954e-06
5.88006e-07
-8.20998e-08
0.0419333
0.0386038
1.02552e-07
8.10377e-07
0.00742419
0.0406693
8.88957e-06
-1.08735e-08
1.6737e-07
7.94029e-06
-3.79629e-08
-2.11204e-06
0.000506145
-1.23948e-07
-5.37835e-08
-1.64895e-06
-0.00643995
0.00237825
-2.78871e-08
-2.56228e-08
-7.63071e-09
2.04248e-08
-0.00456995
0.00625306
-4.87471e-08
-2.00825e-07
0.00141586
2.13769e-07
-1.84922e-07
-0.0345591
8.08979e-07
-0.000559696
-1.60198e-06
1.77367e-08
-8.87664e-08
1.57696e-07
-0.000467526
8.79185e-06
2.40706e-07
-0.000585778
0.0201627
-0.00964671
-2.51236e-09
6.40873e-07
-0.030795
-2.48893e-06
2.67981e-05
-1.16056e-06
-1.71031e-07
6.80875e-08
-0.00902601
0.0064199
5.90773e-07
-5.25597e-08
-3.10018e-06
3.11363e-10
3.37702e-05
4.39567e-07
-1.92104e-07
5.24512e-08
-1.795e-06
-1.49169e-07
1.21951e-07
0.00255215
9.96888e-08
1.40069e-07
3.85364e-06
-2.20318e-07
-0.000180203
3.82749e-08
-4.11348e-07
-0.0123373
3.05388e-08
-6.50379e-08
2.73366e-07
0.000625575
8.93901e-08
1.96494e-08
-2.21694e-07
-0.00118472
-2.89642e-07
-4.50802e-07
4.56804e-08
-3.81815e-07
-4.48025e-08
-0.0170112
2.36472e-07
-0.000100163
-1.26421e-07
-2.60196e-06
1.53104e-07
-1.11644e-07
-2.42664e-05
0.00531626
8.27493e-05
8.80652e-08
-2.46406e-07
0.00250025
-0.000177304
6.67966e-07
2.57538e-07
0.000804037
1.67197e-07
3.91824e-06
1.3613e-05
-2.73869e-07
-3.05353e-07
-1.4055e-09
4.98976e-06
-0.0111375
0.000149386
-5.30172e-07
7.13282e-07
-3.74491e-07
2.18766e-05
-6.38265e-08
-8.95888e-08
-2.84991e-06
5.27603e-09
-1.06703e-08
0.000157668
-4.98672e-07
0.00538492
3.95085e-08
-3.90723e-08
4.72193e-08
7.82185e-07
-5.41859e-07
-1.43617e-06
0.0101332
-5.0154e-08
-2.34285e-07
0.00980287
-3.12141e-07
3.20906e-06
1.09888e-07
0.000107455
-0.00109651
-9.111e-08
-0.00482938
1.61585e-06
-1.34369e-07
-0.0043623
3.51957e-07
-2.47317e-07
1.20266e-08
1.0853e-07
-1.89013e-07
-0.010865
1.37092e-06
-0.00165316
-0.000604545
-0.001177
-0.000119734
-0.00199022
1.16902e-08
5.06232e-05
1.23363e-07
-6.217e-07
7.12924e-09
1.32665e-07
7.27654e-07
0.00254122
-0.00080739
-1.65238e-08
0.00685428
8.03795e-08
1.42866e-06
-3.20893e-08
4.12919e-07
-1.08424e-06
1.65558e-05
0.00768793
-2.22999e-07
3.72194e-09
0.0970961
-1.30127e-05
3.29872e-06
4.11509e-06
0.00369571
-5.63235e-07
0.00337485
-0.0032266
7.67261e-08
-2.66362e-08
-3.77847e-08
5.1619e-07
2.35048e-08
3.25785e-07
-1.33601e-07
8.92485e-07
-5.40834e-07
-3.59438e-07
6.29236e-07
0.000102654
0.000621273
8.35778e-09
-0.00114513
-2.58999e-07
-3.11174e-06
-4.56381e-06
-0.000402996
-5.84928e-08
-1.59746e-06
-1.28552e-05
-3.4287e-08
7.76298e-07
0.00480721
2.45463e-08
-1.74826e-08
-1.80975e-08
0.00256406
0.000116109
-7.65088e-08
-0.00289062
1.29856e-07
8.11463e-08
0.0846472
1.1878e-07
2.91671e-07
1.49953e-07
4.31233e-07
-2.73324e-06
-0.00163959
-8.55866e-08
1.55959e-07
1.97101e-07
-2.8793e-07
-1.69519e-07
-0.00260822
2.86473e-08
4.96323e-07
-0.0206498
0.00387949
2.50496e-07
0.00434657
-3.34707e-08
-0.00163961
9.6271e-07
3.85082e-05
-8.02937e-09
0.00103346
0.0309081
-0.00829586
-1.22946e-07
8.16328e-05
0.000453967
-0.00126311
-2.82351e-07
8.32115e-05
-3.13494e-08
-0.0023435
0.00304961
2.69328e-06
0.0205969
0.00332556
-0.00385597
-0.0117142
3.17288e-05
0.00337643
-1.1686e-07
5.06786e-08
-0.00036231
5.96299e-06
1.92171e-07
0.00114778
4.36477e-07
6.51406e-08
-4.54902e-08
5.38336e-05
1.11065e-06
-4.21543e-07
0.00562988
6.98346e-07
0.000325302
-1.02365e-07
5.47366e-08
-2.42985e-07
-0.00436479
0.00161246
8.61197e-07
0.00282917
6.75009e-07
3.41902e-07
1.96192e-07
0.000516904
4.86648e-07
1.04711e-07
-0.00624489
0.0194899
-4.23195e-07
1.96477e-05
1.80166e-08
-1.57321e-06
1.01453e-05
-3.13318e-08
0.00392857
-0.00255957
-4.31686e-08
6.95039e-08
5.91216e-08
-0.000735808
1.94216e-07
0.044284
-5.39296e-05
8.48104e-08
1.46262e-07
1.10962e-08
2.40165e-07
-1.99934e-08
4.44899e-06
-8.16952e-07
5.58683e-06
-0.000339359
7.21264e-07
-3.62607e-07
0.00320133
-6.8275e-07
1.0609e-07
3.87203e-08
-1.13409e-07
-0.0429113
0.00177062
4.93444e-07
0.0288225
3.36963e-06
0.00172056
1.16367e-07
2.21392e-07
6.69691e-06
2.77444e-07
-2.39535e-06
-0.000301497
-5.50156e-07
-1.69955e-08
0.000853398
6.98714e-07
5.39857e-07
-0.000109784
0.000139779
0.000199474
8.67683e-08
1.65081e-08
-0.00125333
9.78636e-09
0.0100719
-0.0017167
1.843e-06
0.00272281
6.02104e-07
-4.95606e-07
0.0437903
-0.00222369
-8.41499e-08
0.0728342
1.09738e-07
1.07241e-08
-5.98574e-06
7.39262e-08
-3.68704e-07
-2.57867e-06
5.37125e-07
4.99391e-08
-2.02387e-07
-3.47317e-07
2.84811e-07
0.000322913
-1.16081e-06
-0.00333134
9.1128e-08
-4.47677e-07
-4.63711e-08
-1.96253e-07
0.00340614
6.13242e-08
-0.000236223
-0.00287446
2.60873e-07
-0.00334023
-1.51561e-06
0.000177553
-3.97123e-08
-0.000557357
-3.40485e-05
-0.000111408
4.67805e-07
4.3847e-08
-4.85796e-08
4.51617e-05
6.18566e-07
8.45101e-05
-2.03213e-06
2.10836e-07
-0.00418151
-1.04223e-08
0.0108544
-2.64168e-07
-0.0114133
-2.58916e-07
-3.94751e-08
9.17316e-09
0.00052581
-9.58789e-08
-4.65693e-08
-1.19543e-08
-2.87866e-07
-3.9522e-07
1.23956e-05
-0.00490044
-1.90065e-07
-1.95514e-07
-1.33788e-07
-2.56944e-07
1.32331e-07
-9.96875e-05
-0.0283821
-2.10503e-07
-2.4543e-07
6.15018e-08
2.8503e-08
4.96829e-07
-7.37073e-08
7.35602e-08
-0.000675025
-0.0219083
1.85843e-05
-9.01064e-08
-2.90567e-07
1.95002e-07
-2.03012e-07
-1.10651e-07
1.91767e-07
-3.36819e-07
1.934e-07
-1.22238e-06
-4.2568e-07
-9.28498e-07
-0.0153015
0.0217752
1.08972e-06
-2.87892e-07
5.15523e-08
-0.0161613
-1.26145e-07
-1.66295e-07
-2.34399e-07
-5.61393e-08
-2.81922e-07
8.91177e-08
-0.0101343
1.7126e-07
-0.00229897
0.0019143
-2.73141e-06
7.08342e-08
-1.05414e-07
0.00270523
-6.13868e-08
7.83724e-08
2.16012e-07
-2.21653e-06
1.44928e-07
-2.10236e-07
-1.90868e-06
0.00335715
-6.54205e-08
6.13883e-08
-0.025761
-1.5795e-07
-2.14186e-06
-2.44331e-08
-0.00127598
-5.61153e-09
-9.67684e-08
0.000148099
-0.00487339
-4.0289e-06
7.36037e-08
1.80869e-07
8.75568e-09
-6.21183e-08
-0.0002029
0.00243268
0.00210693
-3.3163e-08
-0.0168328
-3.02345e-08
-0.0168219
-0.00336575
1.2581e-07
-0.00758567
-0.000492001
-5.36764e-08
-1.11917e-05
1.91211e-07
-3.94875e-07
-0.000269332
-9.63721e-08
-0.040823
2.43465e-06
-0.0549356
0.042947
-2.77779e-06
-3.06648e-07
-3.48477e-07
2.2938e-07
-1.90648e-07
2.31004e-08
6.74188e-08
0.00146655
2.49112e-07
4.56578e-07
-0.000104513
0.0323636
5.15362e-07
-1.98069e-06
-2.28622e-08
-0.0504776
3.54626e-09
0.00031659
0.024067
0.0306534
0.0179198
0.00227278
0.0013845
-8.70276e-09
-3.15772e-07
2.0507e-08
3.44105e-07
1.47766e-07
0.0159871
-1.77809e-07
-0.0063901
-2.27826e-07
8.23986e-09
-5.06934e-08
-6.75577e-08
1.39352e-07
-0.000784028
0.0130825
0.00995035
-9.37269e-08
-3.72534e-08
-3.10962e-08
-3.79668e-07
-2.92093e-05
-1.44652e-07
0.000644771
-0.00030047
1.89725e-07
1.20466e-06
-0.000150019
-2.34021e-07
-6.29464e-05
-0.000927025
3.38067e-08
0.00333158
1.79476e-07
0.00756326
-1.86847e-07
-3.51548e-05
6.97578e-09
-0.001293
-6.66621e-07
-0.00280721
0.00200208
-0.0218428
-4.71509e-05
5.46892e-05
5.95405e-07
8.78031e-07
0.00114839
-0.000482279
-6.38914e-05
-5.40615e-07
-0.0190723
-1.51435e-05
-0.000386698
-2.8761e-06
-0.013632
-1.23082e-06
-6.6274e-07
0.00543481
-5.72721e-07
-1.08735e-06
1.03712e-07
8.91492e-09
8.51953e-09
8.18767e-08
1.0177e-07
0.0765381
3.87867e-07
-0.000147418
-2.21347e-05
0.0016298
0.00010013
-0.00166076
-3.30341e-08
-9.87573e-08
-0.000798474
0.000140761
1.71558e-06
-0.000371118
-0.0667097
-0.00153786
7.6562e-08
-7.66618e-07
5.89467e-07
-6.84738e-06
-0.000111665
0.000147828
0.00323262
-3.5221e-06
-2.70036e-07
-2.4924e-08
1.10988e-06
0.000211329
-4.16485e-06
-0.000668625
-3.11113e-07
-3.83623e-07
-1.34327e-07
-0.000696354
-1.8228e-07
7.10061e-09
4.76831e-08
-3.09173e-07
-0.0104423
0.000902768
-2.04134e-07
-2.16152e-06
0.000351349
1.00893e-06
-0.00320936
-1.73219e-07
4.11188e-07
-3.94466e-07
5.2205e-07
0.00974719
2.89175e-07
-6.59843e-08
3.19497e-08
-6.38433e-06
-2.3614e-05
-1.08528e-07
4.13729e-07
1.71217e-07
-2.5337e-07
-0.00103207
7.14134e-07
-1.97249e-07
-2.3856e-07
-0.000645602
2.59928e-07
0.00230308
1.83182e-07
2.94547e-07
1.06339e-09
0.0197374
-0.000141264
-3.41345e-06
-0.00441803
9.63879e-08
5.89082e-07
-0.00200898
1.1176e-07
0.00111717
0.0273302
-1.03598e-07
-7.24404e-08
0.0918245
-2.14663e-07
-0.00331334
8.8355e-08
0.00885835
0.0034552
8.08349e-05
1.90264e-07
-4.39986e-08
-2.55069e-07
9.14902e-08
4.98461e-08
-6.82714e-09
-2.13132e-07
-3.83594e-07
-6.99284e-08
9.87285e-08
1.46261e-07
7.36964e-07
-2.3711e-07
0.0871685
6.39111e-08
-0.0016215
2.39558e-07
9.88365e-08
0.012084
2.92394e-07
-0.0103951
-0.000832556
-1.58864e-07
2.23496e-07
-2.72313e-06
-0.00229346
-3.09521e-08
0.0212993
7.87117e-08
-6.36388e-07
-0.0205488
-4.63542e-09
-0.00332002
-3.46154e-08
3.53444e-05
1.98873e-08
0.000281791
-0.0336003
-0.00145999
-1.19166e-07
3.50571e-07
-8.39052e-08
7.02034e-08
-0.000975195
-7.54316e-08
-3.13183e-07
-3.45769e-06
-1.41326e-08
-0.0160968
5.79918e-05
3.60937e-07
8.40398e-07
8.37304e-08
-4.82325e-07
2.0311e-08
-8.91483e-08
4.84813e-07
0.0792116
-0.0666895
1.68621e-05
3.31337e-07
2.37494e-07
-1.14336e-07
2.11567e-06
-0.0405605
1.40964e-07
0.00730414
-0.00291265
-3.14067e-07
-1.97636e-07
1.1267e-05
1.23782e-07
8.49036e-08
4.6222e-06
-1.335e-07
7.33119e-05
-8.0338e-08
-0.000617494
2.94008e-07
1.66428e-07
-5.96276e-06
-1.12535e-07
6.71347e-08
-2.61447e-07
5.3144e-07
-0.000529391
-5.75964e-07
9.39791e-07
-2.97096e-07
0.0104315
-0.00255059
-4.8813e-08
-7.68836e-08
1.75871e-07
2.07043e-08
3.6404e-07
-4.70824e-05
5.52772e-08
5.60487e-07
-8.46371e-08
3.80832e-06
-1.00914e-06
-2.92907e-07
-0.00606909
1.35431e-07
1.92777e-07
-8.59531e-05
3.08439e-07
-3.6799e-08
8.33006e-05
1.86244e-07
-0.00439784
7.87851e-08
1.32175e-07
4.74573e-07
4.56908e-06
-3.04532e-08
0.0020791
2.30801e-07
1.58177e-07
0.00578475
0.00331502
0.000393663
-0.00154246
0.00115671
5.08313e-07
-3.54852e-08
3.24124e-07
0.00208884
1.31501e-07
-0.00847284
2.22444e-07
-1.40094e-06
-8.15017e-06
-0.000157916
5.22057e-08
-0.0106946
0.00104759
-1.51742e-07
6.28505e-07
1.99758e-07
-1.18563e-07
-0.00304082
3.60916e-05
1.46821e-07
2.00631e-07
8.52197e-08
-0.000148906
-2.79358e-07
-0.00332801
-1.78671e-06
-2.67352e-07
-1.96135e-07
2.1762e-07
0.0246023
-0.00023847
6.80372e-08
0.00982479
0.00366751
1.25613e-07
-0.00217499
-1.10533e-07
-8.59523e-08
1.81151e-07
-8.62045e-08
7.983e-09
4.39918e-07
2.12315e-07
2.15596e-07
1.17343e-07
-5.84595e-06
3.70346e-07
0.0061551
9.44944e-08
-6.45632e-09
1.69443e-06
-7.98658e-10
2.81369e-07
4.91532e-07
-2.05031e-07
-0.00261224
-1.3979e-07
-4.33491e-06
-0.0317317
6.62214e-08
0.00117499
0.000946788
-1.62751e-07
2.18482e-07
1.95466e-07
0.000367148
-2.95762e-08
-7.97745e-05
-0.000725027
1.49516e-08
8.80792e-08
5.2296e-07
-0.00135763
6.09089e-08
0.000177552
-2.23423e-07
-0.000996625
0.000229089
-2.94277e-05
0.00102282
1.22836e-07
-6.31112e-05
-0.000759665
0.000529925
1.39382e-07
-3.85279e-06
3.0199e-07
-3.9868e-06
-5.25449e-08
-1.62235e-07
-0.00519499
6.21287e-08
0.000568031
-0.00137183
-1.42946e-07
0.000420089
2.07258e-07
2.42671e-05
-9.1729e-08
-3.30979e-08
-0.00884101
-6.01514e-05
-0.00480834
-1.88252e-06
-8.32562e-08
-0.016357
-2.33884e-08
-3.83702e-07
8.44016e-09
2.45524e-07
-4.29414e-07
-1.04785e-08
4.3877e-08
-0.0097265
-4.15439e-07
2.39971e-07
-1.05247e-08
2.30568e-07
-1.48805e-07
-8.07587e-06
1.63805e-08
0.0285488
-6.77633e-07
-0.00291051
2.17151e-07
-2.6235e-07
5.81187e-08
-6.8141e-06
6.18615e-07
0.035134
0.0207162
0.00208001
6.48204e-07
4.39677e-07
3.30349e-07
-1.74948e-07
-7.78872e-09
0.000190376
6.60511e-07
1.38445e-07
0.00678257
-1.48232e-07
1.9163e-07
-0.000745954
1.59452e-05
-0.0108294
7.3638e-07
-0.0114005
0.00424547
7.81118e-08
-4.11617e-08
-9.77195e-07
0.00737034
0.0109117
-0.000519939
0.00056192
-2.79472e-07
1.37665e-07
-7.90793e-05
9.38624e-07
1.5854e-07
-5.50346e-06
2.22377e-07
-1.83512e-07
0.00144598
0.00236515
-1.29815e-06
-3.9226e-07
-1.10446e-06
-4.50465e-06
-0.0095045
1.10673e-07
-1.72595e-07
-2.13067e-07
1.9546e-05
4.42133e-08
5.02096e-09
-0.00576894
0.000212796
-6.45693e-08
-1.13509e-07
8.05587e-08
-6.81387e-08
5.8111e-08
3.75544e-06
5.14852e-05
2.48926e-07
0.00583739
-0.000211013
0.001118
-5.10408e-07
6.63498e-07
-2.32328e-07
-3.43341e-07
1.91765e-07
-6.65081e-09
3.2961e-08
-0.00308729
-0.0107209
-2.23441e-07
1.00269e-07
6.12109e-07
-2.5364e-07
-0.0240406
2.31573e-06
-0.00575758
-0.000619294
-0.000158708
-2.49062e-06
5.31271e-07
-4.6994e-09
2.14577e-07
-2.45361e-07
0.0130888
-1.98719e-07
-9.19164e-08
6.48138e-06
-0.00364411
0.000406858
-2.88806e-06
0.0265674
-0.000441016
-3.38327e-07
2.13231e-06
-0.00204139
0.0182757
-2.22544e-07
1.58842e-07
2.48926e-07
-1.52761e-07
-2.08305e-07
-0.0240278
1.19131e-07
7.52776e-08
-0.00419944
-5.06645e-08
-0.0186736
-4.37038e-08
8.74353e-08
2.91122e-06
-5.64049e-07
1.42925e-05
0.00360362
2.08692e-06
-0.0195479
-1.46892e-06
-1.43364e-07
-0.00392869
-9.70091e-08
-7.98312e-09
2.2701e-08
7.0849e-08
-0.0117485
0.0120043
-0.0196531
-3.22968e-07
-0.000640922
0.000601887
-0.0051453
9.66586e-08
2.33829e-07
-6.08988e-05
-8.17575e-08
1.57719e-07
5.23118e-07
-1.31891e-07
0.00873405
-2.30131e-08
-0.00158955
-0.000119922
1.43475e-07
-0.00280867
-5.33692e-07
-2.66665e-07
8.30308e-07
-9.11209e-07
5.77643e-07
2.45858e-07
-5.63329e-07
-0.000251068
-2.1528e-07
-1.26061e-07
-4.01276e-07
-2.96857e-06
0.000325271
-6.06181e-08
3.3933e-08
-5.42726e-05
0.010174
5.57919e-08
-5.23793e-08
-1.57726e-08
5.21815e-08
1.21751e-08
1.02279e-07
0.014591
0.075006
-1.45738e-07
1.85814e-07
-6.60319e-08
2.06496e-06
-0.000654871
-3.7041e-07
1.40438e-05
0.0101636
7.18999e-09
1.89367e-06
-0.00550022
0.012788
9.22768e-07
2.29553e-08
-8.2664e-08
-0.00399724
-4.90731e-05
-0.0166951
3.11332e-07
0.00933819
-6.10128e-06
0.00199508
-0.00149329
-0.00660098
0.000201329
-0.00851989
0.00300402
0.0214485
9.68044e-07
-1.56554e-05
5.01976e-07
0.00725748
-4.43376e-09
2.40409e-07
-1.40381e-07
-0.0189468
0.000353946
2.19286e-07
-3.74527e-07
-9.40062e-05
0.0129676
0.00761868
-1.27518e-07
1.67411e-07
5.69938e-08
7.24248e-07
-5.3104e-07
-2.54374e-06
-0.0041584
0.00153342
5.88444e-07
1.04084e-08
-0.000150997
1.68159e-07
-1.12662e-07
0.000769355
3.65776e-08
1.17249e-07
-4.93958e-09
-0.00275526
-4.12494e-06
0.00329451
6.63695e-07
0.000532566
0.00489591
-1.38394e-06
0.000205631
-0.0562583
0.00310305
-0.0111776
7.20727e-08
-7.7453e-08
-6.46715e-06
-1.40014e-07
-4.07127e-07
4.2953e-08
6.69296e-07
1.99972e-06
-1.31082e-06
-2.19208e-07
0.00234957
-8.79914e-07
-0.00272888
3.90227e-07
-0.0103596
-0.0130633
7.07526e-07
0.0871845
-0.0156616
-3.09521e-06
0.000594938
-0.0732985
2.11265e-07
-1.44207e-08
-1.72545e-06
2.35221e-06
0.010882
-2.87995e-07
7.86418e-07
0.00275225
2.05704e-07
1.56962e-07
-1.88665e-07
-3.30345e-07
0.000350363
9.57618e-08
-2.86594e-07
3.21418e-07
-0.0341212
1.61783e-07
-0.0390504
-0.00335703
0.000238606
-0.00509925
-2.25907e-08
8.53807e-08
3.08222e-07
-1.97225e-07
0.0249203
0.000194769
0.000567051
-0.00437301
1.13939e-08
8.16836e-07
6.78491e-07
-1.3922e-07
0.00256091
9.52346e-10
-5.7135e-08
-0.0072085
-0.00422998
3.84379e-05
2.10421e-07
1.01047e-07
-0.0110494
-8.75191e-07
-7.21244e-05
-0.00144704
0.0133237
-0.00960538
-1.10703e-08
1.85752e-07
4.19145e-08
-1.42746e-07
0.000723127
-2.09943e-07
0.000141468
-1.2509e-07
-1.5377e-07
0.00116117
-4.11902e-07
0.000280052
6.22247e-07
-3.28444e-07
-1.95384e-07
-0.0149504
-6.97836e-08
-4.86206e-07
-0.0160805
-1.39774e-07
-1.94281e-07
-3.00373e-06
-0.0068263
1.00015e-07
1.58013e-06
-2.29281e-08
-0.00371253
0.00133866
1.09983e-06
-2.58226e-07
1.31906e-08
-1.73462e-07
-3.41433e-07
0.00196568
0.0104491
-0.000516838
0.00606418
-1.52075e-09
-3.69211e-05
6.08659e-08
-2.65342e-05
-2.04025e-07
-0.00408792
0.000316764
-1.35327e-07
0.0254959
-3.14137e-08
-0.0379656
-2.34096e-06
-2.30076e-08
3.04744e-05
-2.93929e-08
-3.22795e-08
-4.84445e-08
1.04428e-08
4.07897e-06
-0.000499611
-1.62e-07
2.50815e-07
-2.0469e-06
4.00388e-08
-1.13984e-07
2.53483e-07
-5.38031e-07
-2.35676e-07
0.00983326
-1.62097e-06
1.35635e-08
-2.66362e-07
2.25281e-07
-1.04309e-07
-0.00379748
0.00988847
-1.16636e-07
1.00982e-07
7.82838e-07
-7.1934e-05
2.07159e-07
7.2502e-07
2.42322e-07
-2.65536e-07
1.09419e-08
4.26209e-07
0.000290634
-2.54541e-07
0.00462439
1.6876e-07
2.3887e-08
-1.14838e-08
-2.63582e-07
4.62932e-08
4.67244e-08
-0.01417
0.00198467
7.87593e-08
7.7307e-07
1.72526e-06
-0.00287414
-6.6855e-07
4.97708e-07
1.32897e-08
1.2415e-07
-2.8059e-05
5.02518e-07
0.00212318
-9.99207e-07
-8.249e-08
-1.41186e-07
0.0206639
4.58144e-07
-0.0168707
-3.61899e-06
1.54982e-07
0.00837657
0.0155539
0.00199694
0.00160247
-0.000111908
-6.11935e-07
-1.10136e-07
-0.0035961
-2.37728e-07
-1.16677e-06
3.35144e-06
2.75245e-09
-2.85439e-07
0.0394495
-1.45374e-07
0.00495016
0.0158877
2.66127e-07
-1.39861e-07
-0.000211625
-2.81121e-07
0.000325166
-1.18545e-08
0.00315819
-0.00256039
-0.00361483
-2.86948e-07
-6.80067e-08
3.60956e-07
0.0181266
-0.0100268
-0.00476186
-0.00807972
5.64136e-06
6.6959e-08
0.000984565
0.0555231
-1.81111e-07
-4.04789e-08
2.9529e-08
7.31984e-08
-0.0432972
-0.00022123
3.0321e-07
0.00556824
4.28683e-09
1.78432e-08
2.18677e-08
-1.28404e-07
5.32807e-07
9.18084e-05
-1.02369e-07
0.0122429
1.74858e-07
1.71248e-08
1.98062e-07
-2.93916e-07
-2.74231e-07
8.12008e-08
4.30092e-05
3.38698e-08
0.00045826
0.00323691
4.80825e-05
-3.07466e-07
0.000182105
-1.18461e-06
2.95931e-08
3.44703e-08
2.41479e-07
4.92164e-08
0.0208174
0.0013142
1.26306e-07
3.01364e-07
0.00745826
8.0299e-07
0.00037403
-4.25309e-07
1.51035e-07
-2.65408e-07
1.8664e-05
-0.000413875
-0.0102003
-0.000292859
-5.48608e-09
2.03483e-05
3.02574e-05
1.97208e-07
-1.02759e-07
-5.10642e-08
3.67774e-07
3.99829e-07
0.00967177
0.00165064
5.61904e-07
-1.38497e-08
-1.61702e-06
-5.42094e-07
5.83608e-06
2.01584e-08
0.000229367
4.09715e-07
0.000239529
-1.53691e-06
2.63571e-07
-3.47282e-08
-1.90324e-05
-3.70944e-08
-0.00354811
2.59539e-07
1.40392e-07
-3.71289e-08
-1.34376e-07
0.00700641
6.15392e-08
-1.53252e-07
2.11132e-06
9.26057e-09
-0.000601311
0.00515615
3.99117e-07
-7.00529e-08
-2.34644e-07
-0.000970035
-5.20551e-05
1.28974e-07
2.43083e-07
-0.00486356
5.06659e-07
1.01311e-07
0.000574583
-4.0854e-07
-0.000965695
0.0008999
0.00278767
7.07507e-07
-1.30546e-08
-1.09241e-07
1.93388e-07
1.5212e-07
4.23487e-08
-0.00739031
-0.0245643
5.47661e-07
3.4275e-08
-2.27022e-07
4.80069e-07
0.035862
5.21271e-08
3.82582e-07
2.4533e-07
1.7094e-08
-2.49248e-09
-9.05109e-06
-6.37267e-07
1.72677e-07
-2.33104e-07
5.32524e-08
-5.69193e-08
1.73962e-08
0.000723351
8.78933e-06
1.09024e-07
9.48531e-12
-8.1948e-08
5.65204e-08
0.00257672
-6.51478e-08
-0.00440643