/*--------------------------------*- C++ -*----------------------------------*\
| =========                 |                                                 |
| \\      /  F ield         | OpenFOAM: The Open Source CFD Toolbox           |
|  \\    /   O peration     | Version:  v2012                                 |
|   \\  /    A nd           | Website:  www.openfoam.com                      |
|    \\/     M anipulation  |                                                 |
\*---------------------------------------------------------------------------*/
FoamFile
{
    version     2.0;
    format      ascii;
    class       volVectorField;
    location    "550";
    object      U_0;
}
// * * * * * * * * * * * * * * * * * * * * * * * * * * * * * * * * * * * * * //

dimensions      [0 1 -1 0 0 0 0];


internalField   nonuniform List<vector> 
10042
(
(0.990768 0.0108099 1.82416e-21)
(0.830772 -0.218421 1.7233e-20)
(1.06314 -0.0200038 -4.53396e-22)
(1.01535 0.00141779 2.42075e-22)
(1.0122 0.000411093 2.70695e-22)
(0.962528 -0.259667 2.57765e-20)
(1.09418 0.230648 0)
(0.911682 -0.270188 -2.84521e-21)
(1.01301 -0.000782441 -1.3906e-21)
(0.968957 0.0617727 2.20013e-21)
(0.942765 0.0143046 -2.85286e-21)
(0.868746 -0.218022 -9.64051e-20)
(1.06815 0.0293482 1.08081e-20)
(1.01312 -0.000933001 -2.05531e-21)
(1.02717 0.00226561 -5.71579e-21)
(1.01327 -0.0011881 -2.05186e-21)
(0.976706 -0.264868 0)
(0.945663 0.0254658 -1.5504e-21)
(1.0462 0.0119098 2.44535e-21)
(1.0087 -0.00582377 -3.33858e-21)
(1.06708 0.0324802 -4.91871e-21)
(0.990297 0.00444803 1.8001e-21)
(1.0152 0.00135699 0)
(0.9042 -0.315942 2.24393e-21)
(1.01376 0.00235589 0)
(1.01051 -0.000106715 6.49638e-22)
(0.971149 0.0558159 -3.82969e-21)
(1.01262 -0.000476222 1.94063e-23)
(0.962933 -0.279321 -2.21597e-20)
(0.897621 -0.286798 1.80648e-20)
(1.00891 0.000118421 -8.18223e-22)
(1.0728 0.0100537 0)
(1.01294 -0.000727438 1.46657e-21)
(1.01285 -0.000688191 -1.5398e-21)
(0.911145 -0.268379 0)
(0.909497 -0.27012 -6.46422e-21)
(1.01642 0.000450194 5.80362e-22)
(1.01199 -7.40674e-05 -1.8083e-21)
(1.01033 0.000240643 8.63534e-22)
(1.0162 -0.00585852 -9.69667e-23)
(0.896559 -0.304218 -9.32688e-21)
(1.01289 -0.000738315 0)
(1.19519 -0.00917159 0)
(0.974122 -0.261584 2.68714e-21)
(1.01469 0.00206431 5.43073e-22)
(1.01378 0.00240334 -7.2787e-22)
(1.01339 -0.000704241 0)
(1.02645 0.00218463 7.23305e-22)
(1.0272 0.101223 -5.92564e-22)
(0.990504 -0.0649608 -1.10736e-20)
(1.2031 -0.00628518 0)
(1.0136 0.00101664 4.76852e-22)
(0.989539 -0.257147 1.15874e-20)
(1.04461 0.0117769 0)
(0.814784 0.342144 -1.46305e-20)
(0.69745 -0.413978 1.28304e-20)
(1.06375 0.0325046 5.09846e-21)
(0.986567 0.00444594 1.15681e-21)
(1.02363 0.00793053 -2.27815e-21)
(1.01636 -0.00111383 -8.67344e-23)
(1.01778 0.100835 3.49464e-23)
(0.844645 0.303688 -1.74707e-20)
(1.16324 -2.87174e-05 0)
(0.954493 -0.220264 -2.75173e-21)
(0.994896 0.0301068 -6.94918e-22)
(1.01358 0.00375303 -2.92521e-21)
(1.01307 -0.00534122 -4.702e-21)
(0.998729 0.042514 0)
(1.01368 -0.000977206 1.79385e-22)
(0.994211 0.0355873 0)
(1.13636 -0.0460532 -5.20412e-21)
(1.014 0.00880327 0)
(1.01324 -8.15843e-05 -1.80559e-21)
(1.02361 0.00734384 2.21877e-21)
(1.01356 0.00341251 0)
(1.16703 -0.0367473 5.644e-21)
(1.03239 0.023586 1.04393e-21)
(1.01345 -0.000768837 7.25555e-23)
(1.03649 0.0226947 -1.21826e-21)
(1.04723 0.010683 3.0032e-21)
(0.952695 -0.281088 0)
(0.906028 -0.314075 -2.34128e-21)
(1.00564 9.0459e-05 -1.82227e-21)
(1.01264 0.00074054 9.84213e-24)
(0.976204 0.0136935 2.1484e-21)
(1.01058 0.154927 7.48235e-23)
(1.01421 -0.00399151 2.18481e-21)
(1.06635 -0.0117823 -1.28202e-21)
(1.01388 0.000505506 2.05526e-21)
(1.01653 0.0276918 0)
(1.05736 0.023147 0)
(1.02765 0.00174783 2.08665e-21)
(1.16109 0.0113459 0)
(0.998942 0.164117 -1.4603e-22)
(0.983155 0.0115034 -7.05641e-21)
(1.0166 0.00401428 -4.21863e-23)
(0.0552006 0.00327168 -8.38337e-20)
(1.0107 -0.00459985 4.82052e-21)
(0.958269 0.273214 8.26926e-21)
(1.02408 0.00663668 -2.36446e-21)
(1.05566 0.0227586 -5.93457e-21)
(0.948366 0.0906801 4.98831e-22)
(1.01768 0.00796452 0)
(1.07046 0.0101224 2.43806e-20)
(1.04622 0.0196363 -1.0258e-21)
(1.0186 0.00682935 -1.214e-21)
(0.563433 -0.348794 4.36086e-20)
(1.01379 0.00344362 0)
(1.0734 0.237332 0)
(1.01883 0.00731329 7.57799e-22)
(1.02234 0.00718438 3.48948e-21)
(1.0558 0.213791 -4.62746e-21)
(0.945817 0.0797791 0)
(0.954907 -0.22046 1.98963e-21)
(0.996509 0.0234193 -2.8055e-21)
(1.01407 -0.00129733 8.12967e-22)
(0.987242 -0.00397991 2.48076e-21)
(1.00953 0.000180478 0)
(0.99074 0.00186135 -1.21779e-21)
(1.01443 -0.00148553 2.46449e-22)
(1.01631 -0.00122377 1.08174e-22)
(0.952305 -0.0885059 0)
(0.98602 -0.0770342 -4.50977e-20)
(1.01481 0.00220685 -7.19797e-22)
(1.02111 0.029263 1.38527e-21)
(1.01427 0.000366132 -2.09438e-21)
(1.01436 0.000244724 6.29552e-22)
(0.825437 0.3481 1.18749e-20)
(1.09497 -0.0588263 -1.15272e-20)
(0.988115 -0.00854783 0)
(1.01244 -0.000276128 2.03376e-22)
(1.01335 0.0023064 -4.24518e-21)
(1.01558 0.000145819 0)
(1.01435 0.00352336 1.76501e-21)
(1.04002 0.215768 1.13837e-20)
(1.22897 0.072166 1.12682e-20)
(1.01967 -0.00528893 -2.19183e-21)
(0.538179 -0.250895 1.26157e-20)
(1.03437 0.0135707 4.89454e-21)
(0.982666 0.25467 0)
(1.11652 0.0280221 -4.24318e-22)
(1.01173 -0.00013038 1.14696e-21)
(0.563064 -0.317294 -4.26843e-20)
(1.01254 -0.000440666 6.93888e-22)
(1.02608 0.0335356 1.19792e-21)
(1.01211 -7.95881e-05 -7.46289e-24)
(0.981109 0.0134446 -2.2779e-21)
(1.01374 -0.000995102 0)
(1.0148 0.00466577 0)
(0.844703 -0.303018 9.01106e-21)
(1.0137 0.00315117 0)
(1.0105 -5.18765e-05 -1.57507e-21)
(1.03607 0.0153154 1.24679e-21)
(1.07623 0.028787 0)
(0.987724 0.00714003 6.70895e-21)
(1.02393 0.0345579 -3.44381e-22)
(1.09862 -0.0492975 7.33299e-21)
(0.72253 -0.42008 0)
(1.01549 -0.000135616 0)
(1.00854 -0.000246699 -1.2861e-21)
(1.01121 0.000307086 8.45984e-22)
(1.01618 -0.00688196 -1.19602e-22)
(1.24654 0.11457 2.09164e-21)
(1.014 0.000422263 2.08889e-21)
(1.03188 0.0113659 0)
(0.857519 -0.324566 4.47043e-21)
(1.01324 -2.59136e-05 0)
(1.07117 0.0107239 -1.31133e-20)
(0.905581 -0.276599 7.89985e-21)
(1.01278 -0.000626426 -2.77945e-21)
(0.982829 -0.0104635 -7.18371e-23)
(0.887257 -0.262826 1.36879e-20)
(1.0434 0.0705768 3.8534e-21)
(1.01288 -0.000667276 3.954e-21)
(1.04374 0.0129834 0)
(1.02362 0.0141531 -2.34354e-21)
(1.01427 0.00257644 6.24644e-22)
(1.01211 -0.000106078 0)
(1.01333 0.00216273 9.32828e-22)
(1.01358 -0.000906355 0)
(1.03323 0.0132024 -4.65663e-21)
(1.04219 0.0241061 -2.41682e-22)
(1.02421 0.00718074 0)
(1.01414 -0.00118475 0)
(0.950894 -0.0227096 0)
(1.06103 0.0156866 1.79746e-20)
(1.01416 0.00987682 0)
(1.01625 -0.000898146 2.63552e-23)
(0.763034 -0.199456 -3.95916e-21)
(1.0104 8.97794e-05 -1.74852e-21)
(0.821737 -0.26632 2.21225e-20)
(1.06211 0.0354565 0)
(1.01252 -0.000252341 0)
(1.04148 0.0228433 -3.21571e-21)
(0.842296 0.354641 -1.28602e-20)
(1.02749 0.00120087 -2.36998e-21)
(0.664276 -0.0270135 -2.18623e-20)
(0.994253 -0.0296506 -3.03072e-21)
(0.000145521 0.0469964 0)
(1.01274 0.000689277 1.1125e-21)
(1.07045 -0.0906941 -1.14811e-20)
(1.13484 0.0214901 0)
(0.939023 0.0484771 -1.47353e-21)
(1.01243 -0.000204939 0)
(0.951301 0.292833 5.28812e-21)
(1.01528 0.000365395 2.82294e-22)
(0.936861 -0.259782 1.99365e-20)
(1.07436 0.0306582 0)
(1.02174 0.00682642 -1.39899e-21)
(1.01457 0.00370278 -2.3886e-21)
(1.07213 0.01025 9.95686e-22)
(1.01269 -0.000228662 -6.04234e-22)
(0.921652 0.0525278 0)
(0.960739 0.0566662 -2.63374e-21)
(1.01555 0.000384231 9.75135e-22)
(1.00395 0.0277682 0)
(1.01271 -0.00025496 0)
(1.09772 0.217436 -2.08463e-20)
(1.01477 0.000738041 0)
(1.09566 -0.0817948 1.16242e-20)
(0.393537 -0.0527565 0)
(0.9893 -0.0117429 -6.88614e-21)
(0.344664 -0.077117 5.14696e-21)
(0.998324 0.0285318 0)
(1.01542 0.00150135 2.34997e-22)
(1.1372 0.012415 1.60778e-22)
(1.01594 0.00449317 -7.50055e-22)
(1.01985 -0.00379089 2.32112e-21)
(0.982552 0.0471683 -4.95745e-21)
(1.018 0.0084882 -6.27204e-22)
(1.01221 -0.000116925 0)
(1.01463 9.03944e-05 -1.86142e-21)
(1.06011 0.0170862 -1.78334e-20)
(1.00782 0.000172371 0)
(1.01418 0.00258041 2.42226e-23)
(0.906135 -0.275398 -7.40565e-21)
(1.02223 -0.000111999 0)
(0.0341225 -0.00591767 6.61605e-20)
(1.02645 0.0309107 -1.84283e-21)
(0.907049 -0.312795 -4.27151e-21)
(1.03578 0.209761 -2.40367e-21)
(0.809068 -0.0480707 0)
(1.01643 -0.00136332 0)
(1.01505 -0.00693822 2.25194e-22)
(0.772036 0.298304 -5.27817e-20)
(1.01219 0.000430991 2.60101e-22)
(0.81754 -0.0610355 0)
(1.02467 0.0291972 1.68403e-21)
(1.03655 0.0162525 -1.35443e-22)
(1.01156 0.00026485 0)
(1.04552 0.01802 3.95125e-21)
(1.01263 -0.000297914 0)
(0.952882 -0.0993173 0)
(0.764817 0.288436 -3.60317e-21)
(1.01526 0.00455255 0)
(1.02171 0.000791659 0)
(1.00952 8.26269e-05 3.17503e-21)
(1.016 0.00309707 1.12105e-21)
(0.149492 -0.0469198 -1.94724e-20)
(1.01448 0.000892895 -6.13066e-23)
(1.01194 0.0330368 0)
(1.01221 -6.8502e-05 0)
(1.01349 0.000995491 -6.01479e-22)
(1.01333 -0.000692718 2.26072e-21)
(1.07089 0.0285397 -5.60367e-21)
(0.736085 0.271723 -3.042e-20)
(1.00706 0.0302854 -2.65517e-21)
(0.966394 -0.091173 0)
(1.00484 -0.000115966 1.56251e-21)
(1.01484 0.000130946 3.41427e-21)
(1.01973 0.00144503 4.01775e-23)
(1.10366 0.00487065 0)
(1.01289 0.000397627 0)
(1.00066 -0.0920377 0)
(1.01625 0.00329693 0)
(0.998329 -0.0108677 -2.50169e-21)
(1.03761 0.00469491 3.90951e-21)
(1.01425 0.00218795 0)
(1.00482 -3.81065e-05 0)
(0.855609 0.35611 -1.3438e-20)
(1.01267 -0.000524621 -1.74977e-21)
(0.819212 0.0797489 1.23968e-21)
(0.708337 -0.0139189 2.41772e-20)
(1.03648 0.00459824 -1.84395e-21)
(1.01356 0.000108185 -1.02893e-21)
(0.158968 -0.1849 4.02263e-22)
(0.999791 -0.0218223 4.60462e-24)
(1.01349 -0.000813076 -1.69822e-22)
(0.990233 -0.00791573 0)
(1.00959 -1.66903e-05 0)
(1.05685 0.0377569 0)
(1.00774 -0.0136941 0)
(1.0122 0.000212123 0)
(0.808042 0.0818819 0)
(1.00018 0.0347038 3.5504e-21)
(1.01409 -0.00164303 0)
(0.902315 -0.129817 1.89184e-21)
(1.02146 -0.00262869 1.83641e-21)
(1.01992 0.0012749 0)
(1.01261 -0.000238508 1.31144e-21)
(1.0347 0.0151627 -5.50195e-21)
(0.948725 0.0604547 1.63155e-21)
(1.01633 -0.000899025 -7.53786e-23)
(1.06147 0.215063 -1.32727e-21)
(0.99666 -0.0180447 5.15377e-21)
(0.840569 0.289129 0)
(1.01289 0.000457111 -1.2585e-21)
(1.01487 -0.00835708 0)
(0.897433 -0.147655 -1.06959e-22)
(0.808249 0.115122 -5.26221e-21)
(1.01504 0.000192099 8.1328e-23)
(1.01403 0.00307722 2.16808e-22)
(1.01666 0.00400102 0)
(1.01386 -0.00150716 0)
(1.0104 -0.0147858 1.82512e-21)
(0.992317 -0.0136195 0)
(1.01327 -0.000627755 -3.42291e-21)
(0.961083 -0.0250522 1.78414e-21)
(0.914756 -0.295242 -1.47664e-20)
(1.01416 -0.00132797 2.72688e-22)
(1.00763 -9.93015e-05 0)
(0.955116 -0.111465 0)
(1.0016 -0.0107073 0)
(1.05798 0.0655146 7.42613e-22)
(0.937887 0.00145231 -2.59657e-22)
(1.01469 0.000273286 -8.15759e-22)
(1.01739 -0.0150496 5.20069e-21)
(1.01325 0.00189402 0)
(1.02117 -0.00139953 -2.01354e-21)
(1.05379 0.0369579 -4.17063e-21)
(1.01535 0.000610002 -2.82788e-22)
(1.01919 0.0051012 1.0619e-22)
(0.996644 0.0123671 -1.47911e-21)
(1.00993 -1.57174e-05 1.76534e-21)
(0.925478 -0.287384 0)
(0.983465 -0.00535635 -6.01725e-22)
(0.595678 -0.315832 0)
(1.0532 0.0639112 1.28159e-21)
(1.01272 -0.000267166 0)
(0.864225 -0.308231 7.06726e-21)
(1.11858 0.0376214 1.01529e-21)
(1.062 0.042239 -3.73172e-21)
(1.01639 -0.00145935 0)
(1.00843 -0.0127675 -2.73892e-21)
(1.01043 0.000273375 -2.52692e-23)
(1.01221 -0.000162329 0)
(1.01279 0.00054903 0)
(1.01267 0.00049878 -9.12573e-22)
(1.01614 -0.00742313 1.4365e-21)
(-0.0117921 0.0546764 -1.99897e-21)
(1.03156 0.00370854 -6.89545e-22)
(0.985313 0.0184562 0)
(1.01775 -0.007004 0)
(1.01561 0.000134478 1.11037e-22)
(0.835498 0.316114 2.1631e-20)
(1.01655 -0.0180213 -2.53161e-21)
(1.01583 0.00489876 -5.40413e-22)
(1.00334 6.5217e-05 1.16215e-21)
(0.749715 -0.103265 0)
(1.0045 2.21827e-05 -1.28996e-21)
(1.01886 0.00659076 1.18476e-21)
(1.01637 0.00042881 -1.91397e-21)
(1.03093 0.0119286 0)
(0.879574 -0.241119 5.24685e-21)
(0.88176 -0.312205 0)
(1.03301 0.0117104 0)
(1.01298 0.000665574 -5.83093e-23)
(1.01904 -0.00489956 2.27659e-21)
(1.01786 -0.00561137 3.37221e-22)
(0.840431 0.337637 -1.79094e-20)
(1.01625 -0.00100247 0)
(1.0066 0.000151358 8.57158e-22)
(1.01294 0.000554383 1.12074e-21)
(1.01211 -0.000300693 0)
(1.00586 0.138838 -6.85928e-23)
(1.01309 0.00121487 2.60463e-21)
(0.99578 -0.00583579 2.47449e-21)
(0.963316 0.17261 -1.755e-21)
(0.725095 0.0921763 0)
(1.01504 0.132331 0)
(1.0186 0.00552699 -6.04525e-22)
(0.983874 0.185435 6.22026e-22)
(0.978457 0.0409175 -4.04099e-21)
(1.01323 0.00176113 4.79636e-22)
(1.08484 0.0180898 -4.58804e-21)
(1.01433 -0.00145577 -2.55756e-22)
(1.01224 0.000430502 1.08099e-21)
(1.01436 -0.0013951 -1.22981e-21)
(1.01359 -0.000187478 -1.49301e-21)
(1.01339 -0.000743436 -7.58535e-22)
(1.01663 0.00315467 1.93617e-21)
(0.556309 -0.465957 -6.10875e-21)
(1.03107 0.00436369 -7.26619e-21)
(1.02705 -0.0147533 4.16085e-21)
(0.897812 -0.287233 0)
(0.783859 0.275216 9.47607e-21)
(1.01637 0.00179475 4.33545e-22)
(0.922454 -0.258743 0)
(1.01603 0.000122952 -1.34517e-21)
(1.07316 0.0104319 0)
(1.01373 0.000929214 -5.19095e-22)
(0.209739 -0.118923 4.9198e-22)
(1.02119 -0.00341074 -1.37336e-21)
(0.816796 0.323271 -1.71014e-20)
(0.294106 -0.205513 1.13858e-19)
(1.01589 0.000176855 0)
(1.11044 0.0424318 8.53848e-21)
(1.01738 0.0010149 -8.89345e-22)
(1.02433 0.17811 5.74614e-21)
(1.01672 0.00335327 -1.30109e-21)
(1.06521 -0.0534429 1.47435e-20)
(1.0348 0.0365197 0)
(0.805651 0.00780932 -1.38967e-20)
(1.0301 0.00430427 3.06121e-21)
(1.03197 -0.104095 -3.9532e-21)
(1.01079 0.00296385 0)
(1.02279 0.0404533 -1.49678e-21)
(0.83743 0.336977 6.29618e-22)
(1.01308 -0.00054047 -1.47019e-21)
(1.01136 0.00303519 -1.89559e-21)
(1.0105 5.07673e-06 0)
(0.915432 -0.289075 1.09459e-20)
(1.01231 -0.000182245 8.62536e-22)
(1.01424 -0.00120534 9.22331e-22)
(1.1211 0.0220684 3.84231e-21)
(1.0124 0.00910853 0)
(0.972291 0.0266789 8.04375e-22)
(1.08091 -0.0470973 1.26904e-20)
(1.01437 0.000888203 -1.43955e-22)
(1.06424 0.0389999 0)
(1.01179 0.00822668 0)
(1.01349 -0.000873837 0)
(1.03279 0.037839 0)
(0.914024 -0.27244 3.60411e-20)
(1.01725 0.000456298 0)
(1.02988 0.0113346 0)
(1.06142 0.434114 -7.2968e-20)
(0.991822 -0.00467232 0)
(1.0078 -5.11371e-05 -2.92746e-21)
(0.679201 -0.446484 -1.18228e-20)
(1.01244 -0.000404162 -1.50842e-21)
(1.01269 -0.0128912 -1.75917e-21)
(1.03799 -0.0082489 -4.37686e-21)
(0.805729 -0.16967 7.85096e-21)
(1.17921 0.0299437 0)
(0.92641 -0.0441584 1.62813e-21)
(1.04633 -0.0796746 1.09142e-20)
(1.2298 0.124052 1.30823e-20)
(0.936198 -0.24011 -1.1766e-20)
(1.0145 -0.00133584 -6.41545e-22)
(1.00494 -0.0140422 0)
(0.949828 -0.150355 -1.28405e-24)
(0.968716 -0.141606 5.28266e-24)
(1.08272 0.01983 8.38815e-21)
(1.01518 0.00122564 0)
(1.01291 0.000671115 -1.68524e-23)
(0.992799 0.0184668 0)
(0.610046 -0.491452 1.46111e-20)
(1.01418 -0.00127085 9.91068e-22)
(1.01733 -0.00411885 5.45534e-23)
(1.00938 0.00025195 1.0149e-21)
(1.01606 0.00180536 0)
(1.01256 -0.00107808 1.93295e-21)
(1.01223 -0.000749553 0)
(1.01368 -8.6095e-05 1.54666e-21)
(1.00785 0.000114075 9.71158e-22)
(0.982832 0.00173038 6.14333e-22)
(1.03738 0.00253346 4.09122e-21)
(1.01481 -0.0136844 3.1355e-21)
(0.980975 -0.00314359 1.82193e-22)
(1.21586 0.149152 0)
(1.01406 -0.000693814 1.84137e-21)
(0.279773 -0.262631 4.59965e-21)
(1.09873 0.400547 3.52029e-20)
(0.907064 0.224691 -9.62731e-21)
(1.01045 -1.99421e-05 -3.2573e-21)
(1.05838 0.00729997 0)
(1.00871 -0.000112275 0)
(0.791331 0.255788 0)
(1.0203 0.00226264 0)
(1.00109 -0.0275329 0)
(1.02963 0.00490078 3.81911e-21)
(0.984283 0.232739 0)
(1.01133 -8.76373e-05 -1.81115e-21)
(1.04698 0.0165408 0)
(1.01762 -0.00442333 -6.11015e-23)
(1.00728 -0.012937 0)
(1.04725 0.159719 0)
(1.00911 -5.00242e-05 1.33119e-21)
(1.01192 0.000322488 0)
(1.01426 0.00332899 0)
(0.967887 -0.298524 3.47064e-20)
(1.01221 -6.17621e-05 -1.93347e-21)
(1.00612 -0.0189241 0)
(1.06655 0.0141326 -2.85762e-21)
(1.1091 0.0513856 -4.1594e-21)
(1.0153 -0.000123575 -1.18277e-22)
(1.00229 -0.0204172 -3.70207e-22)
(0.815095 0.0804879 0)
(1.1115 0.30684 0)
(1.02126 0.00588898 0)
(1.01012 0.000251524 -9.60976e-22)
(0.810825 0.0360606 9.79406e-21)
(0.991257 -0.270597 -3.11813e-20)
(1.03964 0.0695248 -1.49499e-21)
(0.897971 -0.142405 -3.274e-23)
(1.01008 0.00016114 -2.09011e-22)
(0.984313 -0.0271542 0)
(0.990845 0.030173 0)
(1.00612 0.0360612 0)
(1.02466 0.0249637 1.96973e-21)
(0.92614 -0.249257 -1.40254e-20)
(1.0153 -0.000271582 0)
(1.01497 0.00116588 -7.18584e-23)
(1.01965 0.00821327 0)
(0.829047 0.119721 0)
(1.01495 0.00212136 1.07707e-22)
(1.00199 0.169238 1.09766e-21)
(1.01595 0.00172836 7.71643e-22)
(1.02164 0.00490215 0)
(1.01406 -0.000877095 -1.96748e-21)
(1.01976 0.0392958 3.59404e-22)
(0.879074 -0.133418 3.63676e-23)
(1.01853 0.00857021 1.30953e-21)
(1.02892 0.0117126 0)
(0.786909 -0.116691 -4.41456e-21)
(0.988526 -0.0243275 0)
(0.980566 -0.010371 4.93586e-21)
(1.01882 0.00829883 3.20658e-22)
(1.01331 0.00274458 0)
(0.976337 -0.0262246 0)
(1.13255 0.280466 2.6469e-22)
(1.01885 0.00590836 6.27335e-22)
(1.01363 -0.000700063 -8.36305e-24)
(1.05726 0.0158434 -2.32261e-22)
(1.01668 0.00418307 -1.18143e-22)
(1.0183 0.00442048 -8.11832e-22)
(0.930497 -0.0692768 0)
(1.01233 -0.000237307 9.04993e-22)
(0.755048 0.309422 3.77596e-20)
(1.01309 0.000718456 0)
(0.980228 0.0546245 6.42069e-21)
(1.01989 -0.0088509 -1.58078e-21)
(0.236743 -0.0756021 -4.72248e-21)
(1.01509 0.00214399 -1.68928e-23)
(1.05895 0.010195 -1.03565e-20)
(1.01465 0.00064599 -3.75097e-23)
(1.01288 -6.07037e-05 2.17512e-21)
(0.806546 -0.109652 4.53441e-22)
(1.01657 -0.00161503 1.05673e-22)
(0.879966 0.268199 0)
(1.04437 0.0697751 2.8293e-21)
(1.0127 -0.000688594 2.67375e-21)
(1.02222 -0.00840621 -1.40954e-22)
(0.624032 -0.294652 -2.84845e-20)
(1.1023 0.174317 0)
(0.987628 0.000999083 3.44365e-21)
(1.00995 4.72713e-06 1.64141e-21)
(1.01366 -0.000736806 0)
(1.01382 -0.000943599 6.43831e-24)
(1.01692 -0.0044622 1.31926e-21)
(1.01209 -0.0130862 -5.31532e-22)
(1.01935 0.00763251 -1.83091e-22)
(1.00564 -0.170726 0)
(1.01695 0.00402715 -2.12352e-22)
(1.01543 -0.000553151 1.97199e-22)
(0.852472 0.367149 2.50608e-20)
(1.04495 0.0210397 9.88879e-22)
(1.0106 -0.0147133 0)
(1.00715 -8.25636e-05 0)
(1.01209 0.000434815 0)
(0.863987 0.353827 -1.16151e-20)
(0.895983 -0.229532 -7.72279e-21)
(1.01972 -0.00733248 -5.18897e-22)
(0.934951 -0.203784 1.67848e-20)
(1.01932 0.000773261 1.67121e-21)
(1.05961 0.0129843 -1.21627e-20)
(1.01405 -0.000614924 -4.32274e-22)
(1.01283 -0.000729531 -9.15562e-22)
(1.01417 0.00346272 -2.21387e-21)
(1.0139 0.00303275 8.20195e-24)
(1.01956 0.00648184 -8.04337e-22)
(1.00993 3.82181e-05 -1.70522e-21)
(0.151267 -0.126588 -5.58739e-22)
(1.02823 0.00530567 4.04344e-21)
(0.905083 0.0268259 0)
(1.01386 0.00190394 0)
(1.02092 -0.00386268 2.13264e-21)
(1.01323 -0.000623171 1.04903e-21)
(0.972985 -0.0107377 -1.04262e-20)
(1.07422 0.238348 0)
(1.01257 -0.000623771 8.94246e-24)
(1.01412 0.00206417 7.28505e-22)
(0.947514 -0.00633713 -1.78747e-21)
(0.992796 -0.0171259 3.36137e-21)
(1.01312 -0.000563352 1.55259e-21)
(0.728349 0.192809 -3.73272e-20)
(1.01281 0.000570699 -6.2945e-22)
(0.994681 0.00121878 -1.96592e-21)
(1.01199 -6.05905e-05 0)
(1.01296 0.000414079 3.17644e-22)
(1.01275 -5.47211e-05 -2.04885e-21)
(0.730076 -0.089815 0)
(1.01318 -0.000561518 0)
(1.01421 0.00126791 -2.12457e-21)
(1.01293 0.00122472 -1.33547e-21)
(0.764621 0.230812 -4.74741e-20)
(1.01035 -0.000158399 0)
(1.01398 0.00327766 2.1668e-21)
(1.00994 -2.48866e-06 -1.83967e-21)
(1.08959 -0.0380128 2.879e-22)
(1.01641 0.00191788 -2.43296e-23)
(1.01486 0.002743 9.24402e-22)
(1.01183 -0.000148734 3.70558e-22)
(1.01497 0.00277734 -7.30239e-22)
(1.02576 0.0267858 -1.93979e-21)
(1.01442 0.00268326 0)
(1.02024 -0.00304467 -1.97095e-21)
(1.01419 -0.000592875 -4.78773e-22)
(0.260959 -0.141234 7.25663e-21)
(0.969093 -0.237609 0)
(1.00962 0.235322 -1.36805e-20)
(1.01698 0.00335732 -4.70336e-22)
(1.05178 0.0056278 -2.6055e-22)
(1.01472 0.000736351 0)
(0.977081 -0.0836566 -4.92657e-21)
(1.01644 -7.18017e-05 -9.71141e-22)
(0.904196 -0.307111 1.3871e-20)
(0.912967 -0.00449489 7.98237e-22)
(0.995758 0.259964 0)
(0.995472 -0.00409248 0)
(0.82929 -0.102887 9.28953e-21)
(1.01907 0.000746896 0)
(1.01909 0.0053851 -8.19084e-22)
(0.885088 -0.0529244 3.61998e-20)
(1.08602 -0.0278624 0)
(1.02022 -0.0143049 -2.39014e-21)
(1.08078 -0.00918186 0)
(1.02569 0.00573757 -3.02844e-21)
(0.910483 -0.184226 0)
(1.01281 0.000760544 -1.63403e-21)
(1.02072 0.00633835 -1.37399e-22)
(1.01422 -0.000660784 -1.86926e-21)
(1.0121 -5.81423e-05 0)
(1.01148 0.00032732 0)
(0.870599 0.00577351 -5.41147e-20)
(1.0359 0.0055022 -1.90291e-21)
(1.01047 -0.000135222 0)
(0.443513 -0.433643 2.16804e-21)
(1.01643 0.00349461 8.64718e-23)
(0.962361 -0.0768371 0)
(1.01689 -0.00581444 4.79623e-22)
(1.03624 0.00274617 -7.66447e-21)
(1.00582 -0.013868 2.93619e-21)
(1.01059 0.000143689 -1.0551e-21)
(0.929278 -0.284707 0)
(1.01334 0.000660291 -1.37906e-21)
(1.01396 0.00291998 -1.56434e-21)
(0.91938 0.0318015 0)
(1.0217 0.00534661 1.66233e-21)
(1.01588 -0.000653259 0)
(1.00768 -6.23093e-06 -2.25774e-22)
(1.01308 0.000761046 2.8322e-23)
(1.0123 0.000739466 0)
(1.08996 0.00665651 0)
(0.907154 -0.0692064 0)
(0.990616 -0.215264 7.15257e-21)
(1.02602 0.00161669 0)
(1.01368 0.000539241 -2.76716e-21)
(1.01297 0.000900441 3.80325e-21)
(0.889723 -0.196205 0)
(1.0131 0.00840186 2.66483e-23)
(1.01331 0.00305489 0)
(1.01233 -0.000255215 0)
(1.01271 0.00065802 -1.92211e-21)
(0.833638 -0.144167 -1.22799e-20)
(0.93049 -0.0920078 4.90765e-20)
(1.00612 -0.0101386 -8.25062e-22)
(1.01587 0.00405552 7.30537e-22)
(1.01215 -8.68021e-06 -4.30194e-22)
(0.443642 -0.204105 0)
(1.06 0.0111379 1.4792e-20)
(1.01556 -0.00905223 -3.00367e-21)
(0.972646 0.00806162 0)
(0.879247 -0.0812521 -1.34186e-21)
(0.829742 0.279833 -8.55814e-21)
(0.850361 -0.178699 0)
(1.01281 0.000717544 1.58615e-21)
(1.00994 1.28866e-05 3.46581e-21)
(1.0133 0.000661999 1.76593e-21)
(0.994048 -0.1709 0)
(1.01272 0.000697256 -1.77622e-21)
(1.05437 0.00667437 -1.26039e-20)
(1.01457 -0.000424967 0)
(1.01657 -0.00170884 -2.22153e-22)
(1.01121 -0.0139536 0)
(1.01635 -0.00144247 0)
(0.653394 -0.128182 2.24018e-21)
(0.547918 -0.0155977 0)
(1.01363 -0.000956949 -6.4507e-22)
(1.01454 0.00203996 1.02108e-21)
(1.01434 -0.00113545 -9.06899e-22)
(0.931583 -0.0296388 -2.33296e-21)
(1.0121 -6.13346e-05 1.83981e-21)
(1.04178 -0.118637 -1.68605e-20)
(1.01884 -0.00371175 -2.86048e-21)
(0.822509 -0.172983 9.76064e-22)
(1.01345 0.000564226 -5.37716e-22)
(1.01493 -0.00118076 1.15849e-21)
(1.01257 -0.000613238 -2.09041e-21)
(1.01492 0.00124088 1.12282e-22)
(1.01889 0.00479362 -2.42113e-24)
(1.01763 -0.00319715 1.32299e-22)
(1.02053 0.00210221 -1.78892e-21)
(1.02946 0.00625747 1.20617e-22)
(1.024 -0.0168356 0)
(1.04621 0.0148717 0)
(1.0678 0.149605 -8.3827e-21)
(1.0185 0.000195901 0)
(1.06962 -0.0278312 -2.38557e-22)
(0.895552 -0.0152118 0)
(1.01542 -2.00222e-05 0)
(0.732348 -0.383602 -7.84369e-21)
(1.01348 0.00176846 -9.02888e-22)
(1.0138 0.00181955 -1.25095e-21)
(1.02198 -0.00407377 1.27063e-21)
(1.00953 -9.2828e-05 0)
(0.917339 -0.179385 0)
(1.01434 -0.000361569 0)
(1.01695 0.00352532 -8.72944e-22)
(1.01425 -0.000866096 3.0222e-21)
(0.866938 0.344376 -1.68967e-20)
(1.01475 -0.00105186 0)
(1.01371 -0.145586 0)
(1.04874 0.0595996 0)
(1.01361 0.000511634 5.3626e-22)
(0.939081 0.0988224 -3.32401e-21)
(0.973889 -0.199917 0)
(1.01755 -0.00630734 -8.66164e-23)
(1.01339 -0.000106547 0)
(1.08635 -0.00728414 0)
(1.00392 8.59698e-05 -7.51032e-22)
(0.920502 0.230905 -6.33832e-21)
(1.02599 -0.0116482 -2.43689e-21)
(1.03784 0.0169939 1.31487e-21)
(1.01289 -0.0179718 2.76705e-21)
(1.02529 0.00166994 0)
(1.02175 0.00622091 -1.54637e-21)
(1.01408 0.00403443 1.26261e-21)
(0.993688 0.00894805 8.06275e-22)
(1.02297 -0.00217695 -1.00925e-23)
(1.01865 0.0857544 -7.64205e-23)
(1.08256 0.184723 6.40357e-21)
(1.01677 -0.00186853 1.17947e-22)
(1.01799 -0.00459957 1.38815e-21)
(1.01651 3.2983e-05 0)
(1.03978 -0.00428365 1.95254e-21)
(1.00411 7.24675e-05 0)
(1.03101 -0.173036 0)
(1.0288 0.00231795 -4.65989e-21)
(1.01865 0.00615775 -5.40423e-22)
(0.910316 0.0090295 1.46709e-21)
(1.01324 0.000643381 0)
(1.08746 -0.00223203 0)
(1.00589 0.040262 -2.36084e-22)
(1.01269 0.000190677 -1.51802e-21)
(1.0577 -0.0409034 0)
(1.01175 -0.00398271 -1.75222e-21)
(1.01419 0.000936559 0)
(1.01782 -0.000514216 -2.21366e-21)
(0.98184 0.0350432 4.11762e-21)
(1.01292 0.000646882 -1.12949e-21)
(0.811231 0.289383 1.78709e-20)
(1.02855 0.00606874 1.25914e-22)
(0.979608 0.0278794 1.14705e-21)
(1.05585 0.0063841 7.8369e-21)
(1.0915 -0.0706387 -1.31503e-20)
(1.01728 -5.57662e-05 0)
(1.00972 0.0344479 0)
(1.0159 0.00170774 0)
(1.02978 0.00706809 -4.47544e-21)
(1.04447 0.0571733 0)
(1.01249 -0.000454211 -8.73487e-23)
(0.988568 0.0349213 0)
(1.01419 0.00150197 -4.55713e-21)
(1.03008 0.00292896 2.4572e-21)
(1.01494 -0.00149014 -2.33476e-21)
(1.0142 0.00067367 -5.55085e-23)
(1.03674 0.0129558 2.17113e-22)
(1.03373 0.0748467 -1.53496e-21)
(1.0098 0.000176418 -7.1245e-22)
(1.02605 0.00373417 -6.05143e-21)
(0.935772 -0.0683495 -9.4945e-22)
(1.01247 -0.000360067 1.57436e-21)
(1.01338 0.00057964 5.4633e-22)
(1.014 0.00183867 0)
(1.0144 -0.00132466 -2.0836e-21)
(1.00311 -0.00937046 8.58556e-22)
(1.01964 0.000770045 -2.01517e-21)
(1.01581 0.00204205 0)
(1.00534 -0.00673373 5.68877e-23)
(0.940332 -0.0972535 0)
(1.01855 0.00471708 6.85319e-22)
(0.998025 0.00231741 0)
(0.942791 0.2144 1.20477e-21)
(1.01258 0.000577359 2.40013e-22)
(1.015 0.000962007 -1.13789e-21)
(1.01447 -0.00124216 0)
(0.850682 -0.145656 0)
(0.878068 -0.0408926 1.4377e-21)
(1.04293 0.0209594 -6.48362e-23)
(1.01191 0.000290941 9.1182e-22)
(1.01687 0.0774917 0)
(1.12057 0.25013 -2.52539e-22)
(0.412043 -0.405245 -2.0675e-21)
(1.01744 -0.00240941 9.96889e-22)
(0.832772 -0.120875 -4.07557e-22)
(1.18138 0.145124 0)
(1.03503 0.195881 1.06378e-20)
(1.01235 -0.00497117 1.76855e-21)
(1.01758 -0.00332501 0)
(1.01873 -0.00488586 2.47429e-23)
(1.07789 0.120028 8.68795e-21)
(0.956875 -0.0518221 6.37192e-21)
(1.02876 0.00479281 -4.48461e-21)
(0.302157 -0.321731 0)
(1.04835 0.0119597 0)
(1.06692 -0.0232488 7.82486e-21)
(0.924184 -0.117027 0)
(1.01372 0.00201238 0)
(1.02439 0.0253221 -3.95087e-22)
(0.903936 0.274201 -1.02789e-20)
(1.04437 0.0509195 -1.67197e-21)
(0.729605 0.276606 1.66624e-20)
(0.99293 0.011545 0)
(0.202667 -0.239801 -6.73273e-21)
(1.01623 0.0024362 -1.12779e-21)
(0.8603 -0.21752 2.49477e-21)
(1.02124 0.00543657 -1.41737e-21)
(1.00734 -0.00695958 2.11036e-21)
(1.00972 0.000155549 9.99019e-24)
(0.997619 0.00411614 -1.98045e-23)
(1.01608 -0.000860098 0)
(1.02117 0.0068084 2.18522e-21)
(1.01439 0.00211998 6.0212e-22)
(0.696641 -0.0674335 -4.68266e-21)
(1.01458 -8.70254e-05 -6.37128e-22)
(1.01679 -0.00196759 0)
(0.838593 0.354544 -1.13985e-20)
(1.02036 0.00448297 3.26706e-22)
(1.05235 0.0243372 -2.47433e-21)
(1.01761 -0.00322423 -2.68711e-21)
(1.01501 0.0752004 0)
(1.01259 -0.000262379 0)
(1.02888 0.0128334 -3.79344e-21)
(1.01662 0.00389056 0)
(1.01579 0.000738489 -2.29041e-21)
(1.01647 0.00339801 -1.36342e-22)
(1.05691 0.00765666 0)
(1.01239 0.000794572 -1.67864e-21)
(0.976688 0.469733 -2.3502e-21)
(1.04581 0.0167345 0)
(1.06889 0.00571785 -9.63888e-22)
(1.01469 -0.000227817 7.0184e-22)
(0.983997 -0.195732 -7.25157e-21)
(1.0122 0.00062251 1.69367e-21)
(1.09262 0.000457308 -2.85354e-21)
(0.927108 -0.00739726 2.68092e-21)
(1.02403 -0.00105653 1.22311e-21)
(1.01659 0.0036969 6.98699e-23)
(1.01392 -0.00118173 -1.76359e-21)
(1.01574 0.00104451 0)
(1.01574 0.000358878 0)
(1.11255 0.178985 1.00106e-20)
(0.988169 -0.0281108 4.54897e-21)
(1.01305 0.000839051 -1.97202e-21)
(1.1078 -0.0312668 1.33365e-20)
(1.01097 -9.31999e-05 -2.08391e-22)
(1.01381 0.000587059 3.11475e-22)
(0.911175 -0.301472 -1.35572e-20)
(1.0141 -0.000831444 0)
(1.01619 0.000514434 -8.19557e-22)
(1.12085 0.0251521 1.3447e-20)
(1.01256 0.000702314 0)
(1.04662 -0.0895502 4.6151e-22)
(1.0354 0.0125777 0)
(0.941571 0.00386472 6.33697e-21)
(1.05489 0.020625 5.78361e-21)
(0.994575 -0.0251373 -4.5126e-21)
(1.02256 -0.0105128 -1.49621e-22)
(1.01688 0.00414348 1.8307e-22)
(0.802903 -0.428594 1.36587e-20)
(0.688063 -0.350215 1.63475e-20)
(1.01398 0.00203005 -8.66166e-22)
(0.989162 0.0256277 1.61252e-21)
(0.683862 -0.145355 4.39855e-21)
(0.977011 0.441995 -4.05284e-20)
(1.02228 0.201585 4.77899e-21)
(1.00854 -1.28983e-05 1.51704e-21)
(1.01406 -0.000425838 1.34842e-21)
(1.01479 0.00225458 -3.34466e-23)
(1.01934 0.00680936 7.92477e-22)
(1.01324 -0.00483575 2.63853e-23)
(0.947711 -0.102244 1.70853e-22)
(1.05123 0.0069841 0)
(1.01391 -0.00104786 -2.08e-21)
(1.06928 0.0151506 0)
(0.904983 0.19832 0)
(0.887487 -0.0091111 1.33367e-21)
(1.01373 -0.000917784 0)
(1.01436 -0.00105485 9.06395e-22)
(1.00979 -0.000108383 -1.37107e-21)
(1.02591 0.0063774 0)
(0.946546 -0.292269 1.50245e-20)
(1.0948 0.0644827 -2.04682e-22)
(1.01489 -0.00111973 0)
(1.05415 0.0108348 -1.56725e-22)
(1.03243 0.0954089 2.51342e-22)
(1.01433 0.00425932 -1.15058e-21)
(1.01231 0.000359524 -1.94193e-22)
(0.416967 -0.343113 0)
(1.01135 0.00884972 1.11199e-21)
(0.966688 -0.0534194 0)
(1.01525 -0.00542068 0)
(1.01038 3.46751e-05 0)
(1.02607 0.00266508 5.60046e-21)
(1.01876 0.000793136 2.06343e-21)
(0.968966 -0.0610765 5.61777e-21)
(1.03681 0.0459043 9.83746e-22)
(1.014 0.00370102 0)
(0.846479 0.087716 0)
(1.09919 0.206189 1.16824e-20)
(1.0323 -0.151049 -5.93537e-21)
(1.04202 0.0199631 -1.19209e-20)
(1.01231 0.00924691 -1.16576e-21)
(0.375257 -0.326487 0)
(1.07239 0.0149126 1.2002e-20)
(0.911911 -0.0121584 1.62928e-20)
(1.06693 0.0106415 -3.79756e-21)
(1.01872 0.0052621 -6.54515e-22)
(1.01319 0.00140969 -1.57676e-21)
(1.06429 -0.126522 -2.26872e-21)
(1.07764 0.183372 0)
(1.01174 0.00378894 1.68502e-21)
(1.05251 0.0110181 -1.68633e-20)
(1.07495 0.0135177 -7.7178e-21)
(1.01429 0.00170498 2.24532e-21)
(1.05862 -0.0061317 -2.57216e-22)
(1.01187 0.00435887 0)
(1.0147 0.00102106 2.18129e-21)
(1.00862 -7.8127e-05 7.47367e-22)
(1.07067 0.0142394 0)
(1.01413 0.00104106 -1.95828e-23)
(1.01439 0.002219 0)
(0.0934242 0.11602 1.42062e-20)