/*--------------------------------*- C++ -*----------------------------------*\
| =========                 |                                                 |
| \\      /  F ield         | OpenFOAM: The Open Source CFD Toolbox           |
|  \\    /   O peration     | Version:  v2012                                 |
|   \\  /    A nd           | Website:  www.openfoam.com                      |
|    \\/     M anipulation  |                                                 |
\*---------------------------------------------------------------------------*/
FoamFile
{
    version     2.0;
    format      ascii;
    class       volVectorField;
    location    "150";
    object      cellDisplacement;
}
// * * * * * * * * * * * * * * * * * * * * * * * * * * * * * * * * * * * * * //

dimensions      [0 1 0 0 0 0 0];


internalField   nonuniform List<vector> 
10042
(
(0 0.0021446 0)
(0 0.00193374 0)
(0 0.00222603 0)
(0 9.38226e-05 0)
(0 -9.63836e-06 0)
(0 0.00180175 0)
(0 0.000182167 0)
(0 0.000130567 0)
(0 0.00233341 0)
(0 0.0017617 0)
(0 -1.64689e-05 0)
(0 0.000180413 0)
(0 0.00141196 0)
(0 0.000850575 0)
(0 0.000628803 0)
(0 0.00194579 0)
(0 0.00198972 0)
(0 0.000202711 0)
(0 0.00215582 0)
(0 -3.77766e-06 0)
(0 0.00171629 0)
(0 0.000326596 0)
(0 0.000459093 0)
(0 0.00170391 0)
(0 0.00188624 0)
(0 0.00105146 0)
(0 0.00139599 0)
(0 0.000948585 0)
(0 0.00209825 0)
(0 0.00113395 0)
(0 0.00193413 0)
(0 -1.6499e-05 0)
(0 0.00170846 0)
(0 0.00133961 0)
(0 0.000867799 0)
(0 0.00167844 0)
(0 0.00106463 0)
(0 0.00111351 0)
(0 0.00159312 0)
(0 0.000330087 0)
(0 -5.28606e-06 0)
(0 0.000715756 0)
(0 0.000197261 0)
(0 0.0014554 0)
(0 -1.00218e-05 0)
(0 0.000660214 0)
(0 0.00103622 0)
(0 0.000696652 0)
(0 0.00101075 0)
(0 0.00126735 0)
(0 0.000245682 0)
(0 0.00279596 0)
(0 0.0007166 0)
(0 0.00244328 0)
(0 0.00104021 0)
(0 0.00183408 0)
(0 0.00209295 0)
(0 0.00107032 0)
(0 0.00137482 0)
(0 0.000740416 0)
(0 0.00192463 0)
(0 0.00210092 0)
(0 0.000822159 0)
(0 0.00223395 0)
(0 0.00099414 0)
(0 0.00140952 0)
(0 0.00121506 0)
(0 1.09355e-05 0)
(0 -1.48841e-05 0)
(0 0.00177869 0)
(0 0.00248732 0)
(0 -7.41446e-06 0)
(0 0.00143681 0)
(0 0.000149618 0)
(0 0.00124376 0)
(0 0.00178286 0)
(0 -1.0671e-05 0)
(0 0.00215759 0)
(0 0.000207641 0)
(0 0.000146445 0)
(0 0.00104803 0)
(0 -8.44224e-06 0)
(0 0.00154287 0)
(0 0.000819994 0)
(0 0.00120961 0)
(0 0.000769462 0)
(0 0.00213234 0)
(0 2.52293e-05 0)
(0 0.00156269 0)
(0 0.00214174 0)
(0 0.00164478 0)
(0 -8.73867e-06 0)
(0 0.000919069 0)
(0 0.0028107 0)
(0 0.00116427 0)
(0 0.00183192 0)
(0 0.00224404 0)
(0 0.00184589 0)
(0 0.000354445 0)
(0 0.00215589 0)
(0 3.63176e-05 0)
(0 6.12529e-05 0)
(0 0.000154734 0)
(0 0.000822304 0)
(0 0.000969933 0)
(0 0.000100905 0)
(0 0.00204536 0)
(0 0.00224892 0)
(0 0.00165682 0)
(0 0.00270949 0)
(0 0.000514909 0)
(0 0.00202729 0)
(0 0.000658489 0)
(0 -1.54125e-05 0)
(0 0.00101807 0)
(0 0.0020405 0)
(0 0.00187461 0)
(0 0.00214705 0)
(0 0.00185991 0)
(0 -1.59667e-05 0)
(0 0.00158728 0)
(0 0.000143793 0)
(0 0.00142358 0)
(0 0.00188453 0)
(0 6.93058e-05 0)
(0 0.00151515 0)
(0 0.000126076 0)
(0 0.000807988 0)
(0 0.000108028 0)
(0 0.002133 0)
(0 0.000191214 0)
(0 0.00136144 0)
(0 -1.63316e-05 0)
(0 0.000150596 0)
(0 0.00215488 0)
(0 0.000131457 0)
(0 -1.63461e-05 0)
(0 0.00160339 0)
(0 0.000653266 0)
(0 1.97706e-05 0)
(0 0.000890122 0)
(0 0.00185432 0)
(0 0.00100352 0)
(0 6.16326e-05 0)
(0 0.00285175 0)
(0 0.00204388 0)
(0 0.000172932 0)
(0 0.00295071 0)
(0 0.00180647 0)
(0 0.000580935 0)
(0 0.00235706 0)
(0 8.47698e-05 0)
(0 7.33261e-05 0)
(0 -1.60173e-05 0)
(0 0.00101807 0)
(0 0.00130724 0)
(0 0.000751506 0)
(0 0.00210306 0)
(0 0.000118584 0)
(0 -1.63845e-05 0)
(0 -1.64953e-05 0)
(0 0.000180451 0)
(0 0.00200231 0)
(0 0.0023325 0)
(0 0.00147568 0)
(0 0.00139816 0)
(0 4.44431e-05 0)
(0 -1.62483e-05 0)
(0 -1.65108e-05 0)
(0 -1.58219e-05 0)
(0 0.002436 0)
(0 0.00220255 0)
(0 -7.5418e-06 0)
(0 -7.12738e-06 0)
(0 0.000113712 0)
(0 0.000332813 0)
(0 -1.61719e-05 0)
(0 0.0014368 0)
(0 6.40555e-06 0)
(0 0.000416397 0)
(0 0.000713986 0)
(0 -1.64577e-05 0)
(0 0.00117769 0)
(0 0.000806806 0)
(0 0.000744693 0)
(0 -1.58655e-05 0)
(0 9.24868e-05 0)
(0 0.00154318 0)
(0 -1.64152e-05 0)
(0 0.00119893 0)
(0 -1.59438e-05 0)
(0 0.000984365 0)
(0 8.30595e-05 0)
(0 -5.72734e-06 0)
(0 0.000313167 0)
(0 2.29283e-06 0)
(0 0.00124172 0)
(0 0.00209336 0)
(0 0.00118309 0)
(0 0.000943319 0)
(0 0.000114039 0)
(0 0.00152295 0)
(0 0.00205062 0)
(0 -7.3612e-06 0)
(0 0.00117053 0)
(0 0.0023472 0)
(0 -1.60656e-05 0)
(0 0.00129399 0)
(0 0.000238929 0)
(0 0.000568374 0)
(0 5.68149e-06 0)
(0 0.000349632 0)
(0 5.09243e-05 0)
(0 -5.79105e-06 0)
(0 0.000782724 0)
(0 8.18686e-05 0)
(0 0.00135643 0)
(0 0.00207966 0)
(0 0.00017541 0)
(0 0.00221844 0)
(0 0.000649495 0)
(0 0.00073471 0)
(0 -3.82861e-06 0)
(0 0.0010847 0)
(0 0.000423571 0)
(0 0.00104595 0)
(0 0.0001236 0)
(0 0.00204223 0)
(0 0.000113519 0)
(0 0.00248603 0)
(0 0.00235121 0)
(0 -3.03666e-06 0)
(0 0.00219803 0)
(0 0.00252523 0)
(0 0.00218934 0)
(0 0.000563874 0)
(0 0.00229449 0)
(0 0.000734333 0)
(0 0.00162006 0)
(0 0.00211199 0)
(0 0.00198441 0)
(0 0.00140243 0)
(0 0.00152396 0)
(0 0.000625132 0)
(0 0.0020684 0)
(0 0.00193685 0)
(0 0.000516439 0)
(0 0.000937718 0)
(0 0.00245776 0)
(0 0.000154702 0)
(0 0.000847674 0)
(0 0.00182046 0)
(0 0.00061952 0)
(0 -6.03239e-06 0)
(0 0.000171784 0)
(0 -1.64841e-05 0)
(0 0.000101428 0)
(0 0.000127518 0)
(0 0.000599538 0)
(0 0.000589616 0)
(0 0.000277447 0)
(0 0.00166022 0)
(0 0.00205404 0)
(0 0.000710284 0)
(0 0.000958958 0)
(0 0.00228973 0)
(0 0.000321952 0)
(0 0.00204517 0)
(0 0.00212343 0)
(0 0.00048779 0)
(0 0.000103056 0)
(0 0.00242858 0)
(0 -4.15563e-06 0)
(0 0.000115001 0)
(0 2.80543e-05 0)
(0 0.00115336 0)
(0 0.00215444 0)
(0 0.00226846 0)
(0 0.00159392 0)
(0 0.00280359 0)
(0 0.000391798 0)
(0 0.00169724 0)
(0 0.00102574 0)
(0 -1.61858e-05 0)
(0 0.00233543 0)
(0 0.00217467 0)
(0 0.000262357 0)
(0 0.000618441 0)
(0 0.00158792 0)
(0 0.00190315 0)
(0 0.000657301 0)
(0 0.000358555 0)
(0 0.00036391 0)
(0 5.89811e-05 0)
(0 0.000207469 0)
(0 0.00107535 0)
(0 0.00202638 0)
(0 0.00229789 0)
(0 0.000132588 0)
(0 0.00192472 0)
(0 0.00195259 0)
(0 0.0022245 0)
(0 0.00134895 0)
(0 0.00120712 0)
(0 0.000610908 0)
(0 6.00431e-05 0)
(0 -4.94018e-06 0)
(0 0.000783394 0)
(0 2.73852e-05 0)
(0 0.0021072 0)
(0 0.00162653 0)
(0 0.00147917 0)
(0 -1.65007e-05 0)
(0 7.7437e-05 0)
(0 -3.09481e-06 0)
(0 -1.62742e-05 0)
(0 0.00188705 0)
(0 0.00205239 0)
(0 0.00175126 0)
(0 0.000618403 0)
(0 0.00101888 0)
(0 0.000493838 0)
(0 0.000339896 0)
(0 0.000536505 0)
(0 0.000583975 0)
(0 0.0014165 0)
(0 5.22826e-05 0)
(0 0.000141796 0)
(0 0.00124013 0)
(0 0.00143384 0)
(0 0.000642832 0)
(0 -1.59046e-05 0)
(0 0.00208105 0)
(0 0.00112239 0)
(0 0.00067813 0)
(0 0.00227992 0)
(0 0.000205155 0)
(0 0.000314943 0)
(0 0.000129162 0)
(0 3.79112e-05 0)
(0 0.00116732 0)
(0 0.00084554 0)
(0 0.00139647 0)
(0 0.000860092 0)
(0 0.00165645 0)
(0 0.000167316 0)
(0 5.95639e-05 0)
(0 0.00168776 0)
(0 0.00137497 0)
(0 0.000855343 0)
(0 0.00202909 0)
(0 0.000575887 0)
(0 0.000787041 0)
(0 0.000811467 0)
(0 0.00248193 0)
(0 0.000448336 0)
(0 0.00012223 0)
(0 0.000345731 0)
(0 0.00100335 0)
(0 0.00204486 0)
(0 3.28149e-05 0)
(0 0.000168367 0)
(0 0.00211983 0)
(0 0.000221899 0)
(0 0.0021688 0)
(0 0.00218313 0)
(0 0.00215714 0)
(0 0.000555039 0)
(0 -4.50176e-08 0)
(0 0.00213047 0)
(0 0.000418509 0)
(0 0.000810099 0)
(0 4.23993e-05 0)
(0 0.00027347 0)
(0 -4.50986e-06 0)
(0 0.00208172 0)
(0 0.00251676 0)
(0 -1.62623e-05 0)
(0 0.00190783 0)
(0 0.000164026 0)
(0 6.16824e-05 0)
(0 0.000144058 0)
(0 0.000391392 0)
(0 -1.64947e-05 0)
(0 0.000415626 0)
(0 -4.03656e-06 0)
(0 0.00125235 0)
(0 0.00120481 0)
(0 8.60346e-05 0)
(0 0.00110472 0)
(0 0.000675173 0)
(0 0.00173108 0)
(0 0.00058408 0)
(0 -1.64459e-05 0)
(0 0.000328275 0)
(0 0.0017603 0)
(0 4.13406e-05 0)
(0 -1.55346e-05 0)
(0 0.00145237 0)
(0 0.00287644 0)
(0 -1.64979e-05 0)
(0 6.85383e-05 0)
(0 0.00221263 0)
(0 1.27384e-05 0)
(0 -1.64016e-05 0)
(0 0.00222256 0)
(0 0.000299443 0)
(0 0.00240791 0)
(0 0.00210973 0)
(0 0.000684558 0)
(0 0.00233665 0)
(0 3.25453e-05 0)
(0 0.000143556 0)
(0 0.00107121 0)
(0 -3.43412e-06 0)
(0 0.000715871 0)
(0 0.00195178 0)
(0 1.84502e-06 0)
(0 0.00225313 0)
(0 0.000150968 0)
(0 0.000343907 0)
(0 0.000810954 0)
(0 0.00261183 0)
(0 0.00283948 0)
(0 9.93174e-06 0)
(0 0.00241422 0)
(0 0.000397842 0)
(0 0.00109992 0)
(0 -1.64262e-05 0)
(0 0.000820882 0)
(0 -5.24677e-06 0)
(0 0.000664873 0)
(0 0.00200561 0)
(0 0.0020254 0)
(0 -5.49244e-06 0)
(0 0.00200008 0)
(0 0.000347599 0)
(0 0.00190192 0)
(0 0.0024961 0)
(0 -1.64325e-05 0)
(0 0.0011692 0)
(0 0.00188577 0)
(0 0.000354722 0)
(0 -1.65015e-05 0)
(0 0.00212129 0)
(0 0.00112241 0)
(0 0.0009352 0)
(0 0.00227766 0)
(0 -7.91148e-07 0)
(0 0.000362284 0)
(0 0.00187031 0)
(0 0.00106883 0)
(0 0.00207164 0)
(0 0.000954808 0)
(0 0.00205069 0)
(0 0.00182587 0)
(0 -1.6486e-05 0)
(0 0.00183455 0)
(0 0.000424803 0)
(0 0.000321119 0)
(0 0.000171327 0)
(0 0.000209467 0)
(0 0.000182736 0)
(0 0.00044638 0)
(0 -1.62685e-05 0)
(0 0.00118652 0)
(0 0.00175021 0)
(0 0.00205798 0)
(0 0.000141529 0)
(0 0.00215369 0)
(0 0.0019706 0)
(0 0.000226289 0)
(0 0.00227411 0)
(0 0.00232236 0)
(0 0.000702127 0)
(0 0.00210377 0)
(0 0.000132874 0)
(0 0.00202206 0)
(0 0.00201085 0)
(0 -1.65059e-05 0)
(0 0.00151932 0)
(0 0.00249626 0)
(0 0.00169255 0)
(0 0.00114888 0)
(0 0.000363714 0)
(0 0.00184822 0)
(0 0.00229478 0)
(0 -2.69361e-06 0)
(0 0.00105529 0)
(0 6.96879e-05 0)
(0 0.00164335 0)
(0 7.88276e-05 0)
(0 5.9255e-05 0)
(0 4.61253e-05 0)
(0 0.00174758 0)
(0 0.0018734 0)
(0 0.000804828 0)
(0 0.00214203 0)
(0 0.000330424 0)
(0 0.000151407 0)
(0 0.00211277 0)
(0 0.000132321 0)
(0 -1.63331e-05 0)
(0 0.00122228 0)
(0 0.000278369 0)
(0 0.00191762 0)
(0 0.00250892 0)
(0 0.000833489 0)
(0 0.00212999 0)
(0 -1.47896e-05 0)
(0 -1.64345e-05 0)
(0 0.00166734 0)
(0 0.00083714 0)
(0 0.00151777 0)
(0 0.00155571 0)
(0 0.00120344 0)
(0 0.000551877 0)
(0 0.000192728 0)
(0 1.26721e-05 0)
(0 -1.60966e-05 0)
(0 0.00258693 0)
(0 0.00245872 0)
(0 0.00226797 0)
(0 0.00194297 0)
(0 -1.50543e-05 0)
(0 0.000371193 0)
(0 0.0021122 0)
(0 0.00194054 0)
(0 0.00027208 0)
(0 0.00126916 0)
(0 0.000173935 0)
(0 0.00118981 0)
(0 0.00133873 0)
(0 -1.65131e-05 0)
(0 -1.51963e-05 0)
(0 -8.71724e-06 0)
(0 0.000102739 0)
(0 0.00201096 0)
(0 0.00211667 0)
(0 0.00132986 0)
(0 0.000206123 0)
(0 -1.27475e-05 0)
(0 -1.60964e-05 0)
(0 0.00047548 0)
(0 0.000327852 0)
(0 0.000729416 0)
(0 0.00129087 0)
(0 0.00109243 0)
(0 0.000793129 0)
(0 -1.64861e-05 0)
(0 0.000597527 0)
(0 0.00212119 0)
(0 0.000762679 0)
(0 0.000774451 0)
(0 0.000410554 0)
(0 0.00168401 0)
(0 0.000321316 0)
(0 0.000382979 0)
(0 0.000559327 0)
(0 0.00194629 0)
(0 0.000877475 0)
(0 0.00167836 0)
(0 0.00011247 0)
(0 2.10923e-05 0)
(0 0.000165644 0)
(0 0.00131154 0)
(0 0.00112924 0)
(0 0.00183801 0)
(0 0.00118222 0)
(0 0.00161243 0)
(0 0.0017949 0)
(0 0.000450232 0)
(0 0.000221617 0)
(0 7.75684e-05 0)
(0 0.00129119 0)
(0 0.00100856 0)
(0 0.000734535 0)
(0 0.00190029 0)
(0 -3.11303e-06 0)
(0 0.00157702 0)
(0 0.000914767 0)
(0 0.000349039 0)
(0 0.00204743 0)
(0 0.000189274 0)
(0 0.00120042 0)
(0 0.00190597 0)
(0 -1.59741e-05 0)
(0 0.000710923 0)
(0 0.000787056 0)
(0 6.84464e-05 0)
(0 0.00216382 0)
(0 0.000199326 0)
(0 0.00141804 0)
(0 0.00193238 0)
(0 6.95889e-05 0)
(0 0.00110149 0)
(0 0.00122982 0)
(0 -1.46075e-05 0)
(0 0.000905424 0)
(0 0.00193913 0)
(0 0.00148279 0)
(0 0.000354161 0)
(0 0.000806181 0)
(0 0.00186581 0)
(0 0.0017946 0)
(0 0.00211449 0)
(0 0.00117135 0)
(0 0.00146295 0)
(0 0.000362756 0)
(0 0.00252641 0)
(0 0.000641863 0)
(0 0.00276275 0)
(0 0.00216319 0)
(0 1.42823e-06 0)
(0 0.00239597 0)
(0 -3.5004e-07 0)
(0 0.00183946 0)
(0 0.00206511 0)
(0 0.00149495 0)
(0 0.000935591 0)
(0 0.00163577 0)
(0 0.000667999 0)
(0 0.00162406 0)
(0 7.52147e-05 0)
(0 0.000343235 0)
(0 0.000219883 0)
(0 0.00298499 0)
(0 0.000665169 0)
(0 0.000280699 0)
(0 0.00132076 0)
(0 0.00214815 0)
(0 0.00108931 0)
(0 0.00182184 0)
(0 -4.17169e-06 0)
(0 -1.6248e-05 0)
(0 0.000438435 0)
(0 0.00154293 0)
(0 0.000143398 0)
(0 0.00205476 0)
(0 0.000142227 0)
(0 0.000683826 0)
(0 0.00168576 0)
(0 0.000244656 0)
(0 1.58095e-05 0)
(0 -1.13566e-05 0)
(0 0.00125354 0)
(0 -8.82687e-06 0)
(0 0.000838663 0)
(0 0.00133019 0)
(0 0.000604159 0)
(0 0.00167604 0)
(0 0.00113557 0)
(0 0.00170176 0)
(0 0.00180904 0)
(0 0.00104564 0)
(0 0.000178582 0)
(0 7.07999e-05 0)
(0 0.00189224 0)
(0 0.00176597 0)
(0 -5.40924e-06 0)
(0 0.0007013 0)
(0 0.000473641 0)
(0 0.00138077 0)
(0 0.000477029 0)
(0 0.00016072 0)
(0 0.001902 0)
(0 0.00222059 0)
(0 0.00115106 0)
(0 0.00223907 0)
(0 -1.64957e-05 0)
(0 0.000685662 0)
(0 -7.43012e-06 0)
(0 0.000303305 0)
(0 -1.11649e-05 0)
(0 -1.60635e-05 0)
(0 7.27084e-05 0)
(0 0.00168887 0)
(0 0.000596102 0)
(0 0.000125752 0)
(0 0.000145586 0)
(0 0.00142864 0)
(0 0.00187053 0)
(0 0.000209133 0)
(0 -1.65159e-05 0)
(0 0.00206066 0)
(0 0.000297183 0)
(0 2.74093e-05 0)
(0 0.00199973 0)
(0 0.00217036 0)
(0 0.00180537 0)
(0 0.000859392 0)
(0 0.00215894 0)
(0 0.00248607 0)
(0 4.6726e-05 0)
(0 8.46664e-07 0)
(0 0.00250892 0)
(0 0.00204601 0)
(0 -1.63775e-05 0)
(0 9.13616e-05 0)
(0 0.00203663 0)
(0 0.00177101 0)
(0 0.000291205 0)
(0 0.00210096 0)
(0 -6.66114e-07 0)
(0 0.000716628 0)
(0 -5.35101e-06 0)
(0 0.000953482 0)
(0 0.00218454 0)
(0 0.00242576 0)
(0 0.000685545 0)
(0 0.00188269 0)
(0 0.00103593 0)
(0 0.000854926 0)
(0 -6.95256e-06 0)
(0 0.00205549 0)
(0 0.00139461 0)
(0 0.000177086 0)
(0 0.00208823 0)
(0 0.00151607 0)
(0 2.70572e-05 0)
(0 0.00197714 0)
(0 -1.63572e-05 0)
(0 -8.2389e-06 0)
(0 0.00130877 0)
(0 0.00211194 0)
(0 2.92928e-05 0)
(0 -1.6504e-05 0)
(0 0.000185415 0)
(0 0.0021935 0)
(0 0.000110172 0)
(0 -7.37131e-06 0)
(0 0.000364618 0)
(0 0.0014652 0)
(0 0.00059843 0)
(0 0.0016452 0)
(0 -5.12124e-06 0)
(0 0.00154846 0)
(0 3.51036e-06 0)
(0 0.000216417 0)
(0 -1.57638e-05 0)
(0 2.51197e-06 0)
(0 0.00190344 0)
(0 0.00214261 0)
(0 -1.82767e-06 0)
(0 0.00135817 0)
(0 0.00152435 0)
(0 0.000568097 0)
(0 -1.56493e-05 0)
(0 -7.60469e-06 0)
(0 3.87903e-06 0)
(0 0.00251189 0)
(0 0.000546559 0)
(0 0.000161567 0)
(0 0.00156079 0)
(0 0.000180787 0)
(0 0.000943158 0)
(0 -3.52074e-06 0)
(0 0.000666941 0)
(0 0.001953 0)
(0 0.000569821 0)
(0 0.00124869 0)
(0 0.000177248 0)
(0 0.000375427 0)
(0 0.0016002 0)
(0 0.000474403 0)
(0 0.00120837 0)
(0 0.000168451 0)
(0 0.000730073 0)
(0 0.00184394 0)
(0 0.000620395 0)
(0 4.94048e-05 0)
(0 -1.23605e-05 0)
(0 0.000782982 0)
(0 0.000159445 0)
(0 8.90651e-05 0)
(0 7.96958e-05 0)
(0 0.000768452 0)
(0 -1.65015e-05 0)
(0 -1.64089e-05 0)
(0 0.00201904 0)
(0 0.00141506 0)
(0 0.000921936 0)
(0 0.000627631 0)
(0 2.11588e-06 0)
(0 0.000920583 0)
(0 0.00112022 0)
(0 0.000698501 0)
(0 8.03417e-05 0)
(0 0.000158344 0)
(0 0.00256919 0)
(0 0.000984398 0)
(0 0.00178897 0)
(0 0.000222838 0)
(0 0.00154279 0)
(0 0.000217582 0)
(0 0.00120194 0)
(0 0.000888253 0)
(0 0.00082981 0)
(0 0.00225184 0)
(0 -1.51254e-05 0)
(0 0.00216134 0)
(0 0.000926733 0)
(0 0.00179376 0)
(0 0.00113946 0)
(0 5.56578e-05 0)
(0 0.000836298 0)
(0 0.000783816 0)
(0 0.00172119 0)
(0 0.00127642 0)
(0 -1.47169e-05 0)
(0 5.25761e-05 0)
(0 -1.11546e-05 0)
(0 0.000681155 0)
(0 -2.85427e-06 0)
(0 0.000464713 0)
(0 0.000962317 0)
(0 0.00126042 0)
(0 0.000153119 0)
(0 3.84169e-05 0)
(0 0.000870778 0)
(0 -9.1998e-06 0)
(0 0.000248663 0)
(0 0.000867044 0)
(0 0.00028061 0)
(0 7.63636e-05 0)
(0 0.0016387 0)
(0 0.000431073 0)
(0 0.0022329 0)
(0 0.000483499 0)
(0 0.000376724 0)
(0 6.68354e-06 0)
(0 6.83337e-05 0)
(0 2.478e-05 0)
(0 0.000412614 0)
(0 0.000164455 0)
(0 0.000200509 0)
(0 0.000737853 0)
(0 -3.04719e-06 0)
(0 0.00171203 0)
(0 -1.40269e-05 0)
(0 0.00208875 0)
(0 0.000732784 0)
(0 0.000167035 0)
(0 2.83572e-05 0)
(0 0.00131432 0)
(0 -1.54669e-05 0)
(0 0.000227816 0)
(0 0.00205947 0)
(0 0.00106918 0)
(0 0.00138123 0)
(0 0.00171345 0)
(0 0.000345253 0)
(0 8.5301e-05 0)
(0 0.00142971 0)
(0 -1.65159e-05 0)
(0 0.00122909 0)
(0 -1.62406e-05 0)
(0 0.00212169 0)
(0 0.00217382 0)
(0 0.000166647 0)
(0 0.000797932 0)
(0 -7.25307e-06 0)
(0 0.00214649 0)
(0 0.000318595 0)
(0 5.68522e-05 0)
(0 0.00090099 0)
(0 6.90396e-05 0)
(0 9.31502e-05 0)
(0 0.00135034 0)
(0 8.51772e-05 0)
(0 -8.05611e-06 0)
(0 0.00146612 0)
(0 0.00178167 0)
(0 0.00220479 0)
(0 0.000413809 0)
(0 0.00217107 0)
(0 0.0020779 0)
(0 0.00143644 0)
(0 0.00221156 0)
(0 0.00131357 0)
(0 0.00082642 0)
(0 0.000550622 0)
(0 0.000218824 0)
(0 0.00185136 0)
(0 6.90556e-07 0)
(0 0.00155034 0)
(0 -1.0007e-05 0)
(0 0.000112888 0)
(0 -1.46573e-05 0)
(0 0.000444139 0)
(0 0.00208651 0)
(0 -1.65035e-05 0)
(0 0.000765246 0)
(0 -7.08532e-06 0)
(0 7.0862e-05 0)
(0 0.00024099 0)
(0 0.000763462 0)
(0 0.00221832 0)
(0 0.00093627 0)
(0 5.41573e-05 0)
(0 0.00179662 0)
(0 -1.56663e-05 0)
(0 0.00181407 0)
(0 -1.6017e-05 0)
(0 0.000235313 0)
(0 0.00144907 0)
(0 0.00166656 0)
(0 -1.6057e-05 0)
(0 -1.57535e-05 0)
(0 0.000607243 0)
(0 0.00189976 0)
(0 0.000367403 0)
(0 0.00176438 0)
(0 0.00132723 0)
(0 0.000447055 0)
(0 0.000118698 0)
(0 0.000712823 0)
(0 0.00167754 0)
(0 0.00181553 0)
(0 0.000864793 0)
(0 -4.66094e-06 0)
(0 0.00126632 0)
(0 0.00129023 0)
(0 0.000724293 0)
(0 0.000215319 0)
(0 0.00106953 0)
(0 0.0019405 0)
(0 -1.5904e-05 0)
(0 0.00112498 0)
(0 0.00192502 0)
(0 -1.6274e-05 0)
(0 0.000680161 0)
(0 0.00138488 0)
(0 -1.65064e-05 0)
(0 0.000306072 0)
(0 -1.56774e-05 0)
(0 0.00191334 0)
(0 0.000754564 0)
(0 6.61728e-05 0)
(0 0.00222287 0)
(0 0.00190418 0)
(0 0.000140276 0)
(0 0.00183372 0)
(0 0.0019432 0)
(0 0.000345849 0)
(0 0.00252116 0)
(0 4.96618e-05 0)
(0 -5.3849e-06 0)
(0 0.00221727 0)
(0 0.00152502 0)
(0 0.00159662 0)
(0 0.00197369 0)
(0 0.000969506 0)
(0 0.00132589 0)
(0 0.000139701 0)
(0 0.000367356 0)
(0 0.00154748 0)
(0 0.00207162 0)
(0 0.00220219 0)
(0 0.00169942 0)
(0 0.00145192 0)
(0 -1.55066e-05 0)
(0 0.00110978 0)
(0 0.00291727 0)
(0 0.00205495 0)
(0 7.66723e-05 0)
(0 2.54071e-05 0)
(0 0.0017942 0)
(0 0.00164568 0)
(0 0.00182095 0)
(0 0.00280175 0)
(0 -7.98443e-06 0)
(0 0.00138064 0)
(0 0.000338372 0)
(0 0.000290438 0)
(0 0.000827322 0)
(0 1.35064e-05 0)
(0 0.00105634 0)
(0 0.000158793 0)
(0 0.000566596 0)
(0 0.00190115 0)
(0 0.00153591 0)
(0 0.00105442 0)
(0 0.000225769 0)
(0 0.000347383 0)
(0 0.00179832 0)
(0 0.000802682 0)
(0 -8.43715e-06 0)
(0 0.000321555 0)
(0 0.00032985 0)
(0 0.000672907 0)
(0 6.75967e-05 0)
(0 0.000235705 0)
(0 0.00256334 0)
(0 0.00125749 0)
(0 0.000762845 0)
(0 0.00183251 0)
(0 0.00286507 0)
(0 0.000498478 0)
(0 0.00212123 0)
(0 1.52352e-07 0)
(0 1.27372e-05 0)
(0 0.000583858 0)
(0 0.00170367 0)
(0 0.000748417 0)
(0 0.000355727 0)
(0 0.00151065 0)
(0 0.00151173 0)
(0 0.000174818 0)
(0 0.000720104 0)
(0 0.00167202 0)
(0 0.00191569 0)
(0 -7.85379e-06 0)
(0 6.35003e-06 0)
(0 0.000331925 0)
(0 0.00144613 0)
(0 0.000332442 0)
(0 0.00241244 0)
(0 0.0014734 0)
(0 0.00175808 0)
(0 0.000359158 0)
(0 0.00123853 0)
(0 0.00150478 0)
(0 -1.64847e-05 0)
(0 0.00117877 0)
(0 0.0011533 0)
(0 0.000100808 0)
(0 0.00193191 0)
(0 -3.0722e-06 0)
(0 0.000190859 0)
(0 0.00100653 0)
(0 0.000139908 0)
(0 0.00143003 0)
(0 0.00141327 0)
(0 0.0025847 0)
(0 0.00135035 0)
(0 -8.65943e-06 0)
(0 0.00208053 0)
(0 0.000983799 0)
(0 -7.8397e-06 0)
(0 0.000416547 0)
(0 0.000197595 0)
(0 -1.44575e-05 0)
(0 0.000131523 0)
(0 0.000651055 0)
(0 5.19652e-06 0)
(0 0.00247858 0)
(0 2.24752e-06 0)
(0 0.0011938 0)
(0 0.00155272 0)
(0 0.000432745 0)
(0 -1.65071e-05 0)
(0 0.000729933 0)
(0 0.00105859 0)
(0 0.00114543 0)
(0 0.000959366 0)
(0 9.95103e-05 0)
(0 0.000402852 0)
(0 0.000224495 0)
(0 0.00170206 0)
(0 0.00104849 0)
(0 0.000418177 0)
(0 0.000534941 0)
(0 0.0021623 0)
(0 0.000855546 0)
(0 0.00194444 0)
(0 7.27723e-05 0)
(0 -1.6135e-05 0)
(0 0.00141752 0)
(0 0.000671795 0)
(0 0.00067353 0)
(0 0.000543994 0)
(0 0.00127173 0)
(0 -1.64879e-05 0)
(0 0.00183097 0)
(0 0.0021892 0)
(0 0.00042 0)
(0 0.0014144 0)
(0 0.00133763 0)
(0 8.50483e-05 0)
(0 0.00206223 0)
(0 0.00122332 0)
(0 0.000103472 0)
(0 0.000369877 0)
(0 0.00187868 0)
(0 0.00127654 0)
(0 0.00179476 0)
(0 0.000135253 0)
(0 0.00221321 0)
(0 0.000343515 0)
(0 0.00113373 0)
(0 0.00142193 0)
(0 0.000599042 0)
(0 0.00157736 0)
(0 6.47388e-05 0)
(0 0.00189083 0)
(0 0.000382648 0)
(0 0.00227508 0)
(0 3.34783e-05 0)
(0 0.00108732 0)
(0 1.38892e-05 0)
(0 0.00121549 0)
(0 0.00193256 0)
(0 0.00282354 0)
(0 0.00118951 0)
(0 0.000185185 0)
(0 0.00218414 0)
(0 0.00129389 0)
(0 0.000407883 0)
(0 0.00100729 0)
(0 0.00220719 0)
(0 0.00083715 0)
(0 0.00013319 0)
(0 -1.65178e-05 0)
(0 -4.46419e-06 0)
(0 0.00063702 0)
(0 -1.65062e-05 0)
(0 0.000640403 0)
(0 0.00100623 0)
(0 0.000195623 0)
(0 0.000168698 0)
(0 0.00157305 0)
(0 -1.64931e-05 0)
(0 0.00176894 0)
(0 0.000385171 0)
(0 0.00185859 0)
(0 0.00127854 0)
(0 0.00187039 0)
(0 0.00142625 0)
(0 0.00105103 0)
(0 0.00217589 0)
(0 -8.94237e-06 0)
(0 0.00151754 0)
(0 0.00139047 0)
(0 4.97412e-05 0)
(0 0.00204636 0)
(0 0.000725566 0)
(0 0.00207236 0)
(0 0.000555656 0)
(0 0.0018162 0)
(0 8.02004e-05 0)
(0 0.000803937 0)
(0 0.001532 0)
(0 0.00101827 0)
(0 -1.52821e-05 0)
(0 6.50302e-05 0)
(0 0.00239755 0)
(0 0.00172853 0)
(0 0.00169986 0)
(0 0.0021145 0)
(0 -4.02178e-06 0)
(0 0.00222233 0)
(0 0.00160222 0)
(0 0.000455537 0)
(0 0.00155727 0)
(0 0.00154948 0)
(0 0.00220451 0)
(0 0.00207009 0)
(0 0.000206376 0)
(0 0.00190555 0)
(0 0.00232363 0)
(0 0.000837312 0)
(0 0.00188263 0)
(0 0.00299635 0)
(0 0.00011889 0)
(0 -6.88979e-06 0)
(0 0.00118726 0)
(0 0.00134404 0)
(0 0.00258383 0)
(0 0.000540938 0)
(0 0.000902192 0)
(0 0.000720555 0)
(0 0.00177479 0)
(0 0.000195173 0)
(0 0.000956213 0)
(0 0.00179998 0)
(0 0.00103779 0)
(0 0.0016195 0)
(0 0.0016611 0)
(0 1.08704e-05 0)
(0 0.00026093 0)
(0 0.000535794 0)
(0 0.000594901 0)
(0 0.000242016 0)
(0 0.000378804 0)
(0 0.000286176 0)
(0 0.000264382 0)
(0 0.00076656 0)
(0 3.53565e-05 0)
(0 0.0014585 0)
(0 0.00162751 0)
(0 0.00152291 0)
(0 0.000122308 0)
(0 0.000169052 0)
(0 0.00022082 0)
(0 -6.93994e-07 0)
(0 -1.64125e-05 0)
(0 5.15996e-05 0)
(0 0.00146662 0)
(0 0.00085145 0)
(0 0.000178283 0)
(0 0.00247816 0)
(0 6.88475e-06 0)
(0 0.000107851 0)
(0 -7.42276e-06 0)
(0 0.000797932 0)
(0 -1.56903e-05 0)
(0 0.000366652 0)
(0 0.000318559 0)
(0 -1.24128e-06 0)
(0 0.000434436 0)
(0 0.00174317 0)
(0 0.000642046 0)
(0 0.00212362 0)
(0 -4.80193e-06 0)
(0 0.00136989 0)
(0 0.00024778 0)
(0 0.0022154 0)
(0 0.00054793 0)
(0 0.00195212 0)
(0 -1.62847e-05 0)
(0 -3.14119e-06 0)
(0 0.000596673 0)
(0 -1.64562e-05 0)
(0 -1.80606e-06 0)
(0 0.000508125 0)
(0 0.00045917 0)
(0 0.000190114 0)
(0 0.00230231 0)
(0 -1.52978e-05 0)
(0 0.00152483 0)
(0 3.70635e-05 0)
(0 -1.64655e-05 0)
(0 0.000633501 0)
(0 0.00171362 0)
(0 0.00171928 0)
(0 0.000674345 0)
(0 0.00170312 0)
(0 0.000507242 0)
(0 0.000178424 0)
(0 0.00117021 0)
(0 0.00197867 0)
(0 0.000840926 0)
(0 0.00167721 0)
(0 0.00105544 0)
(0 0.000497048 0)
(0 0.00222527 0)
(0 0.00185512 0)
(0 0.000762897 0)
(0 0.000233086 0)
(0 0.00196407 0)
(0 8.31827e-05 0)
(0 0.00203573 0)
(0 0.000250561 0)
(0 0.000566553 0)
(0 5.798e-05 0)
(0 0.00183767 0)
(0 0.0021938 0)
(0 0.00019312 0)
(0 2.35269e-05 0)
(0 0.00220103 0)
(0 0.00075151 0)
(0 1.01856e-05 0)
(0 0.000355964 0)
(0 -1.61178e-05 0)
(0 0.00221971 0)
(0 0.000433367 0)
(0 -1.4229e-05 0)
(0 -7.53321e-06 0)
(0 0.00164864 0)
(0 0.00167126 0)
(0 0.00074459 0)
(0 0.000418703 0)
(0 0.000185585 0)
(0 0.00107876 0)
(0 -1.41516e-05 0)
(0 0.000445616 0)
(0 0.00010201 0)
(0 0.00139117 0)
(0 0.00161019 0)
(0 -1.64782e-05 0)
(0 0.000724601 0)
(0 0.00132111 0)
(0 0.000234908 0)
(0 -1.56438e-05 0)
(0 0.00191057 0)
(0 0.00260906 0)
(0 0.00290649 0)
(0 0.0013627 0)
(0 0.000661093 0)
(0 0.000227729 0)
(0 0.00123163 0)
(0 0.00172125 0)
(0 0.00212912 0)
(0 0.00101307 0)
(0 -1.57941e-05 0)
(0 0.000108193 0)
(0 0.000534991 0)
(0 -1.61766e-05 0)
(0 0.000210875 0)
(0 0.00237602 0)
(0 0.00212764 0)
(0 0.0018485 0)
(0 8.38568e-06 0)
(0 7.17832e-05 0)
(0 0.000225813 0)
(0 0.00261636 0)
(0 0.00150728 0)
(0 0.00192942 0)
(0 0.00123048 0)
(0 0.000201114 0)
(0 0.00192594 0)
(0 6.33811e-05 0)
(0 0.00168979 0)
(0 0.0013299 0)
(0 3.73989e-07 0)
(0 -1.6402e-05 0)
(0 0.0014323 0)
(0 2.74102e-05 0)
(0 0.000189034 0)
(0 0.000394898 0)
(0 0.000327789 0)
(0 0.00236265 0)
(0 -1.61768e-05 0)
(0 0.000230795 0)
(0 0.00194268 0)
(0 0.00224599 0)
(0 0.00179432 0)
(0 0.000809225 0)
(0 0.000292003 0)
(0 0.000465937 0)
(0 0.00189654 0)
(0 0.00183638 0)
(0 0.0015811 0)
(0 4.95164e-05 0)
(0 -1.54327e-05 0)
(0 0.00275685 0)
(0 0.00121051 0)
(0 1.51538e-05 0)
(0 -9.7838e-06 0)
(0 0.000476752 0)
(0 0.000190495 0)
(0 -1.36157e-05 0)
(0 0.00294655 0)
(0 0.00091581 0)
(0 0.00117276 0)
(0 0.000769709 0)
(0 5.45229e-06 0)
(0 0.00197387 0)
(0 0.000110437 0)
(0 2.36948e-05 0)
(0 0.000166255 0)
(0 0.000753961 0)
(0 0.00176016 0)
(0 1.02071e-05 0)
(0 0.000102797 0)
(0 0.00178429 0)
(0 7.59503e-05 0)
(0 0.00037632 0)
(0 -1.58855e-05 0)
(0 0.00154985 0)
(0 0.00117094 0)
(0 9.04471e-05 0)
(0 0.000681681 0)
(0 0.000642111 0)
(0 0.000397432 0)
(0 0.00223079 0)
(0 0.000338487 0)
(0 -3.57932e-08 0)
(0 0.000513413 0)
(0 0.00211588 0)
(0 0.000681725 0)
(0 -1.64412e-05 0)
(0 0.00235881 0)
(0 0.00211918 0)
(0 0.00243001 0)
(0 4.43856e-05 0)
(0 0.00222418 0)
(0 0.00119074 0)
(0 0.00109856 0)
(0 0.00222455 0)
(0 -1.17186e-06 0)
(0 -9.28532e-06 0)
(0 0.00110449 0)
(0 5.54776e-05 0)
(0 -1.52525e-05 0)
(0 -1.6028e-05 0)
(0 0.0021569 0)
(0 0.00149283 0)
(0 0.00221229 0)
(0 0.0020162 0)
(0 0.00152815 0)
(0 0.00134477 0)
(0 0.00182846 0)
(0 0.00115511 0)
(0 0.00175766 0)
(0 0.000502662 0)
(0 -1.62788e-05 0)
(0 0.000187128 0)
(0 0.000500059 0)
(0 0.00128898 0)
(0 0.00190927 0)
(0 0.000727316 0)
(0 0.000330311 0)
(0 0.00113969 0)
(0 0.00219935 0)
(0 0.000171974 0)
(0 0.000317498 0)
(0 5.90661e-06 0)
(0 0.000736268 0)
(0 0.00278025 0)
(0 -3.9293e-06 0)
(0 0.000981551 0)
(0 0.0022924 0)
(0 0.00187438 0)
(0 0.000125883 0)
(0 0.000595223 0)
(0 0.000705734 0)
(0 0.000623525 0)
(0 0.00164256 0)
(0 0.0015893 0)
(0 0.000184474 0)
(0 0.000781208 0)
(0 0.00185657 0)
(0 5.41753e-05 0)
(0 0.00165955 0)
(0 0.000211132 0)
(0 -1.90746e-06 0)
(0 0.000197147 0)
(0 0.000571868 0)
(0 0.000199007 0)
(0 0.00138201 0)
(0 5.48575e-05 0)
(0 0.000135538 0)
(0 0.000216041 0)
(0 -1.65173e-05 0)
(0 0.00190823 0)
(0 0.00302865 0)
(0 0.00201938 0)
(0 0.00179392 0)
(0 0.00153517 0)
(0 0.00104345 0)
(0 0.00065923 0)
(0 0.00141179 0)
(0 -1.58053e-05 0)
(0 0.00152781 0)
(0 2.81364e-05 0)
(0 9.3039e-06 0)
(0 0.00216897 0)
(0 -8.65777e-06 0)
(0 0.00115782 0)
(0 0.000163405 0)
(0 -1.62188e-05 0)
(0 0.0019569 0)
(0 0.000286804 0)
(0 0.00289995 0)
(0 -1.58531e-05 0)
(0 0.00069727 0)
(0 0.000180749 0)
(0 0.00212312 0)
(0 4.28835e-05 0)
(0 0.00123577 0)
(0 -1.64525e-05 0)
(0 0.00217188 0)
(0 0.000198036 0)
(0 0.00288253 0)
(0 0.001391 0)
(0 0.00021931 0)
(0 0.00217533 0)
(0 -1.65186e-05 0)
(0 -1.4689e-05 0)
(0 0.000467118 0)
(0 5.54499e-06 0)
(0 0.000381012 0)
(0 -1.57379e-05 0)
(0 0.000281635 0)
(0 0.00194993 0)
(0 0.000120592 0)
(0 0.000427999 0)
(0 0.000303495 0)
(0 0.0016766 0)
(0 0.000214713 0)
(0 0.00132876 0)
(0 0.000223722 0)
(0 0.00145255 0)
(0 0.00112587 0)
(0 0.00119054 0)
(0 -1.5944e-05 0)
(0 7.67013e-05 0)
(0 0.00169284 0)
(0 2.32322e-06 0)
(0 5.63181e-05 0)
(0 0.00184836 0)
(0 0.000217127 0)
(0 0.000373717 0)
(0 0.000126914 0)
(0 0.000429849 0)
(0 0.00213331 0)
(0 -1.42608e-05 0)
(0 0.00168185 0)
(0 0.00195114 0)
(0 0.00135753 0)
(0 8.15816e-05 0)
(0 0.000387639 0)
(0 0.00218708 0)
(0 0.000389801 0)
(0 0.00141545 0)
(0 0.000263678 0)
(0 0.00159341 0)
(0 -1.52371e-05 0)
(0 0.000152927 0)
(0 0.000703535 0)
(0 0.000276302 0)
(0 0.000173256 0)
(0 0.00129828 0)
(0 0.00200581 0)
(0 -3.59087e-06 0)
(0 0.000301835 0)
(0 0.000714478 0)
(0 0.00157296 0)
(0 5.53787e-05 0)
(0 0.00133249 0)
(0 0.00151012 0)
(0 0.000647309 0)
(0 6.46596e-05 0)
(0 0.00014839 0)
(0 0.000417186 0)
(0 0.00272759 0)
(0 0.00181636 0)
(0 0.00129185 0)
(0 0.0015523 0)
(0 0.00101322 0)
(0 1.64963e-06 0)
(0 8.7903e-05 0)
(0 0.0004112 0)
(0 0.00215874 0)
(0 0.000974556 0)
(0 0.00188254 0)
(0 0.000200485 0)
(0 0.00129877 0)
(0 0.00113483 0)
(0 0.00140343 0)
(0 0.000142761 0)
(0 0.000425282 0)
(0 0.000706128 0)
(0 0.000368317 0)
(0 5.91411e-05 0)
(0 0.00107637 0)
(0 0.000265212 0)
(0 0.000789644 0)
(0 0.0022391 0)
(0 0.00064034 0)
(0 0.00198938 0)
(0 0.00217308 0)
(0 -1.63682e-05 0)
(0 0.00198493 0)
(0 -1.49869e-05 0)
(0 0.00141912 0)
(0 0.000306532 0)
(0 0.00064599 0)
(0 0.00160885 0)
(0 0.00119021 0)
(0 0.000859996 0)
(0 0.000182298 0)
(0 0.00159839 0)
(0 0.000838602 0)
(0 0.00175675 0)
(0 0.000326462 0)
(0 0.00176428 0)
(0 -1.63082e-05 0)
(0 0.000105257 0)
(0 0.00214377 0)
(0 0.00180056 0)
(0 0.00290419 0)
(0 0.00204151 0)
(0 0.000298831 0)
(0 9.68839e-05 0)
(0 0.0016188 0)
(0 -1.54514e-05 0)
(0 0.00216847 0)
(0 0.00153041 0)
(0 0.00223373 0)
(0 0.000204807 0)
(0 0.00104997 0)
(0 0.000677615 0)
(0 0.0020565 0)
(0 0.00160011 0)
(0 0.00167617 0)
(0 0.00018838 0)
(0 0.00022376 0)
(0 0.000650753 0)
(0 -1.58079e-05 0)
(0 0.00265147 0)
(0 0.00165276 0)
(0 6.87887e-05 0)
(0 0.000217533 0)
(0 0.00221114 0)
(0 4.97245e-05 0)
(0 0.000255619 0)
(0 0.00211419 0)
(0 0.00302823 0)
(0 0.00254555 0)
(0 0.000395445 0)
(0 0.00223712 0)
(0 0.000762379 0)
(0 0.000459446 0)
(0 0.00218855 0)
(0 0.00213638 0)
(0 0.000468421 0)
(0 0.00191092 0)
(0 -9.59984e-07 0)
(0 0.000357718 0)
(0 0.00101507 0)
(0 0.00025206 0)
(0 6.86031e-05 0)
(0 0.00164537 0)
(0 0.0020957 0)
(0 -1.65003e-05 0)
(0 0.000165775 0)
(0 0.000406457 0)
(0 0.00222974 0)
(0 0.000726897 0)
(0 0.00287068 0)
(0 -1.43807e-05 0)
(0 0.00116476 0)
(0 0.00298903 0)
(0 -1.41631e-05 0)
(0 0.000332097 0)
(0 0.000743187 0)
(0 0.00026238 0)
(0 0.000392538 0)
(0 0.0021531 0)
(0 -5.75331e-06 0)
(0 0.00117491 0)
(0 0.00115904 0)
(0 0.000504601 0)
(0 0.00114354 0)
(0 0.000740847 0)
(0 6.05585e-05 0)
(0 0.00222189 0)
(0 0.00154811 0)
(0 0.00222585 0)
(0 -1.58831e-05 0)
(0 0.00188966 0)
(0 0.000385542 0)
(0 0.00219533 0)
(0 0.00223095 0)
(0 0.00185239 0)
(0 0.000614901 0)
(0 0.000753051 0)
(0 5.28519e-05 0)
(0 0.00177598 0)
(0 0.000446121 0)
(0 -8.78876e-06 0)
(0 0.00115918 0)
(0 0.000264971 0)
(0 0.00213748 0)
(0 0.00283474 0)