/*--------------------------------*- C++ -*----------------------------------*\
| =========                 |                                                 |
| \\      /  F ield         | OpenFOAM: The Open Source CFD Toolbox           |
|  \\    /   O peration     | Version:  v2012                                 |
|   \\  /    A nd           | Website:  www.openfoam.com                      |
|    \\/     M anipulation  |                                                 |
\*---------------------------------------------------------------------------*/
FoamFile
{
    version     2.0;
    format      ascii;
    class       volScalarField;
    location    "150";
    object      ddt0(omega);
}
// * * * * * * * * * * * * * * * * * * * * * * * * * * * * * * * * * * * * * //

dimensions      [0 0 -2 0 0 0 0];


internalField   nonuniform List<scalar> 
10042
(
-1.35927e-05
-8.99854e-05
-0.000136856
0.00027751
3.45066
1.1677e-05
-0.375582
-0.012887
6.62898e-05
4.97328e-05
-2.21577
0.000311071
0.000184242
0.000124583
-0.000105193
0.000188543
0.000170196
-2.95473e-06
9.41008e-07
0.00610422
0.000303757
0.0833983
0.000182074
-1.83132e-05
-0.000102229
8.75625e-05
9.17218e-05
-0.000131741
0.00010499
-0.000117993
2.55632e-05
0.721765
-1.75432e-05
-3.73502e-05
-0.000109561
-3.43756e-05
3.85641e-05
0.000318861
0.000155901
9.65272e-05
0.000800395
-0.000108956
-0.627793
-9.89391e-05
-2.36232
0.00289506
-0.000135799
0.0115561
-3.10196e-05
-0.000988705
0.000106744
-0.000157301
-0.000165681
-0.000143305
4.29524e-05
9.83569e-05
0.000108037
-0.000130284
-4.06454e-05
-0.000199776
1.68204e-05
7.58279e-05
-0.00010326
-0.000132824
-1.9738e-05
-4.23454e-05
-5.37001e-05
0.00169916
1.73954
4.83469e-05
-0.000132327
0.00512618
-0.0001039
4.2981e-05
-0.000126743
-0.000143826
-3.70348
4.53016e-06
4.0927e-05
-0.842027
3.41424e-05
-10.325
-0.000131494
-9.83805e-05
-6.47536e-05
-2.30519e-06
-9.42144e-05
0.021983
-0.000126553
-3.08478e-05
-1.02502e-05
-17.9159
-0.000116494
-9.39514e-05
-0.000123735
2.89172e-05
2.91034e-05
3.27486e-05
0.000221822
8.92657e-05
4.33798e-08
0.00880812
-0.0327556
-4.78242e-05
-8.87099e-05
0.00131317
-0.000115213
2.263e-05
0.000274214
0.000112316
0.00030349
0.000101847
-3.43262e-05
2.03442
-2.66379e-05
8.11095e-05
-9.10697e-06
4.74074e-06
3.39477e-05
-3.54848
-0.000149771
-0.0294311
-7.57826e-05
3.87673e-06
0.00308909
-9.42726e-05
0.0892738
-0.000103016
0.00134078
2.36709e-05
9.85902e-05
-1.72922e-05
-1.79926
-0.00635958
7.50188e-05
0.00116565
-2.45167
-8.71584e-05
0.014369
0.0302651
-0.000172247
-1.79906e-05
-0.000130164
-0.00578591
-0.000119038
7.95353e-05
-5.29914e-05
8.73716e-05
6.49571e-05
2.02081e-05
2.63832e-05
2.6603e-05
-0.307583
-0.399913
0.000233627
0.000138192
-7.50909e-05
9.17442e-05
0.00110537
-0.350713
-2.80351
-0.00320384
-6.80681e-06
2.6945e-05
-0.000168312
-2.19294e-05
0.00231677
-5.81232
0.854157
1.66591
-0.000113254
-9.99292e-05
2.49302
0.0203831
0.000510466
-0.43614
3.56758
-0.000100932
0.00277607
9.21649e-05
-8.11929e-05
-1.22238
-0.000119438
-9.92118e-05
-0.000112274
-4.37597
-0.0565639
-2.57128e-05
-0.921477
-3.82012e-05
-4.19268
-0.000168341
-0.63838
-0.179224
0.00878115
-0.131164
-2.85001e-05
-9.87324e-05
0.000160405
-2.62557e-05
0.000390558
-1.45414e-06
3.98556e-05
0.0388689
-5.90983e-05
9.80129e-05
5.12181
0.000266143
-3.6606e-05
-0.000228172
-0.105737
0.000337229
0.00187479
-0.0557293
-8.39975e-05
-0.070325
-0.000141685
-6.97694e-05
0.000176842
4.2047e-05
-4.62094e-05
-7.58569e-05
0.132451
0.000393027
-0.000186123
0.000135896
-0.0101325
0.000101033
-0.0223969
-0.000155011
6.22334e-05
0.0149062
-0.000101077
-0.000158386
-0.000200394
3.32419e-05
0.000164564
0.000200202
-7.56507e-05
-9.64391e-05
2.68426e-05
-9.57958e-05
-0.000127816
-6.71909e-05
0.000173046
-4.73637e-06
0.000175028
-9.09963e-05
-0.000156483
-5.21813e-06
0.000337083
5.99602e-05
-0.000153039
0.233442
-0.00598011
-1.33951
0.000601083
0.000465176
-0.000104378
0.00450212
-0.800158
-8.58093e-05
-0.000109125
0.000192677
-2.70553e-05
0.000140368
0.0886675
-0.000166145
-4.08729e-05
-0.000271993
0.000381327
-0.000110899
-0.030409
0.000534221
0.0268731
-3.25591e-05
-0.000113561
0.000107734
-0.000291386
-0.00012976
0.000113007
-0.00010191
9.40104e-05
-1.50003
2.65715e-05
-6.10887e-05
-0.495811
0.00326212
-9.61081e-05
-3.64114e-05
-0.000148221
-0.450407
0.000493
-0.0101668
7.479e-05
0.00016963
9.47127e-05
7.15111e-05
0.00155004
-1.33069e-05
0.000109155
2.3915e-05
-0.000121225
0.000285546
-0.000104532
-0.00119656
0.476658
-0.00021492
-0.151585
0.00024396
-0.000109918
9.07375e-05
-3.67694
0.000697931
0.139234
2.831
-5.30136e-05
-0.000170316
4.68139e-05
-0.000145317
0.000143237
1.33065e-05
0.000110058
0.000335081
0.000158433
-9.41985e-05
0.0100123
7.76966e-05
-0.000124293
-8.07924e-05
-0.000150719
7.12986
0.000169377
0.000234251
0.000120767
-0.000129063
0.000362
0.0087869
0.000499099
-0.225834
0.000348682
-7.1137e-05
-7.55704e-05
0.000129598
-4.79118e-06
-2.4904e-05
-0.165545
-7.56971e-05
-2.35236e-05
0.00774493
2.72139e-05
-0.000146533
-9.58845e-05
0.0118183
-0.000101766
-0.000206031
0.00122731
0.000133368
-6.12269e-05
-5.18805e-05
-0.196105
-7.309e-05
-6.21728e-05
0.000583146
-0.000130309
-3.55518e-05
-8.28214e-05
-0.000124139
0.201424
-0.000147811
-4.09356e-05
-0.000154953
-7.71113e-09
7.94481e-05
0.00469557
-6.85581e-05
0.000184069
-4.10016
3.70151e-05
0.00574399
-0.178418
3.78565e-05
-0.644816
-1.63096
6.99927e-05
-0.0250328
0.000186822
-0.000666824
-3.71118e-08
-0.000106001
0.156275
6.64899e-05
-0.000121703
1.20011
0.000222041
0.000403052
0.000826889
2.37423
1.69185e-05
3.91965e-05
0.919796
0.000348063
-0.000167045
0.0015457
-12.4648
7.86431e-05
-4.53372e-05
7.90404e-05
0.000132743
0.000228971
-1.40605e-06
-0.190177
-0.00726673
-0.000117048
-1.80952
0.000274692
-9.6778e-06
0.210801
-0.000197683
-0.012352
0.000624769
-7.07505e-05
-3.18062e-05
-4.46196e-06
0.0172863
-0.000139196
3.10296e-05
-0.000113687
-1.80356
-8.14795e-05
0.193706
-8.62611e-05
5.02663e-06
8.3702e-05
0.259668
2.41017e-05
-0.000109565
3.75609e-05
-3.00383e-05
-2.44363
3.29742e-05
6.14257e-05
0.000284956
-0.269531
0.000114145
1.84186e-05
2.81065e-06
0.00014198
-6.53646
-0.506498
0.000201668
-1.81883e-05
-0.000144616
0.000365741
0.000206233
3.7885e-06
-0.877532
-1.71729e-05
0.000338459
0.000249735
0.0217474
-0.000557447
-3.66951e-05
7.98413e-05
-8.57603
0.000353191
1.93837e-05
-5.3725e-05
-0.00941624
-9.28868e-05
8.21258e-05
-7.05607e-05
2.86371e-05
-6.49352e-05
-7.64354e-05
0.000124829
0.000936054
-0.000113253
1.92088e-05
-2.79326
3.18397e-06
-0.000170782
2.95273e-05
-0.000155863
0.00013497
0.000228696
-5.05036e-05
0.290407
-0.000118021
-0.127532
-9.39064e-05
1.25883e-06
1.88255e-05
0.0095933
-0.000213909
1.89893e-05
0.000218027
-1.34244e-05
-2.49647e-05
-0.516937
2.45466e-05
0.00106091
0.112504
0.000322088
-4.74388e-05
2.64291e-05
-0.000188637
4.50382e-05
0.000201411
-0.780006
-0.271235
6.43572e-05
-7.206e-05
5.66715e-05
8.1395e-05
-7.8912e-05
0.000254198
0.0620932
0.0170963
0.408145
7.52533e-05
-0.000180612
-0.000208735
-2.55538e-05
0.55901
0.000120648
-1.81565e-05
9.28661e-05
0.000312512
-0.000126775
0.0546241
2.05992e-05
-1.57319e-05
-0.562222
-0.110696
0.0204153
0.00143243
0.000208105
7.9814e-05
-0.00339016
0.000283689
2.74051
-3.17248
-0.000188738
4.67763e-05
-2.86508e-05
-7.50377e-05
-7.93819e-05
-4.09731e-05
-2.3286
0.000151869
0.000237784
0.00218535
8.80898e-05
0.133191
-8.52515e-05
0.0259118
0.00012503
4.35952e-05
-9.3528e-05
-0.000106126
-0.000262145
0.00167441
0.00529484
-0.000146545
-0.0010016
-0.000105223
9.90708e-06
-4.8733e-05
-4.72879e-05
3.67289e-05
-0.000158669
0.000735934
0.000259717
-5.99645e-05
-0.00012372
0.000191329
-4.4791e-05
-0.0259521
0.000203383
-5.98546e-06
0.0724004
0.000154096
6.48409e-05
-0.0088864
5.75157e-06
-5.0145
0.000884354
0.000174186
-0.0888474
-0.000166806
-5.73232e-05
-5.36042e-05
5.99415e-05
-7.78046e-08
-5.84867e-05
-0.000115231
-0.162518
-0.000153234
6.48362e-05
3.08398e-05
0.000125643
0.000222407
2.73327e-05
-4.06082e-05
8.18879e-05
0.000293498
-5.06128e-05
5.76284e-05
0.000191698
-7.22028e-05
1.28617e-05
-4.66755e-05
-0.0046077
8.43599e-05
0.0306776
-6.65917e-07
-1.21502e-05
0.000105673
0.000308571
3.43391e-05
0.000994194
-5.20535e-05
-0.0704264
4.02031e-05
-0.494811
9.20084e-05
-0.000163247
0.000166317
-0.000133925
-0.000111905
-7.33179e-05
3.00927e-05
0.000533498
0.285291
0.147077
-3.94749e-05
0.000467088
-9.56667e-06
0.000861278
0.00272226
7.46779e-05
2.62512e-05
0.00536185
2.62836
-0.0100232
1.26915
-8.58743e-05
-8.42706e-05
1.88502e-05
-9.31767e-05
-4.94339e-05
6.44125e-07
-0.000101545
-0.000110763
-0.00326992
2.31811e-05
-8.14156e-06
-3.36561e-05
1.71329
-0.000188804
0.000133322
-0.00249597
-3.76161e-05
-0.33439
2.74348e-05
-5.8953e-05
-7.99301e-05
3.08721e-05
-5.5867
0.00434074
1.8579
0.000206954
1.22879
-6.30395
-0.148743
4.90548e-05
0.00446989
-0.0220332
0.000743094
-0.000124981
9.40887e-05
-2.08775e-05
-4.08958
-1.8422e-05
0.000231394
2.08518
-0.000140533
-3.19566e-05
-1.44609e-05
-0.000151446
-0.000103312
-0.000134823
0.00978108
-1.92597
-8.41816e-05
-7.10162e-05
-1.82096
-3.37657
7.08832e-06
2.11624e-05
9.66254e-05
0.000116717
0.207226
0.00396353
0.104064
-9.96851e-05
-9.08789e-05
8.78195e-05
-6.51374e-05
1.20298e-05
0.000295648
-0.000127205
1.41457
0.000107131
-7.56357e-05
0.000697593
0.00011642
7.60992e-05
0.00215881
-9.04459e-05
4.16539
1.99813
-0.000103415
0.000204713
0.0901395
-3.11329
0.000589973
-0.000182084
-0.00729681
0.00434848
-6.07467e-05
-0.000128855
0.000101472
0.00027478
0.0323564
-3.96936e-05
-0.00214546
-2.87864e-05
5.04227
0.117447
4.99915e-05
-2.40424e-05
0.000595122
0.000237442
0.000108805
-2.68345e-05
-0.0729911
1.99798
-2.20443
-0.000160224
0.00270239
0.000761737
0.000162579
0.000373578
0.000153916
0.0151088
-7.73588e-06
2.92028e-05
0.00274116
-7.31789e-05
-0.00140943
0.000184438
0.000259866
0.000319311
-6.06132e-05
0.000645644
5.28096e-05
6.11175e-05
0.000724491
0.00188355
0.244859
0.000166681
-0.00258513
-2.4733
0.100391
-9.49664e-05
0.529316
-4.7999
-0.000149047
0.000191953
-0.000158814
-6.75082e-05
1.33324
9.86e-06
8.73088e-06
-4.30104e-05
-0.518957
0.000616542
-0.000148718
8.54843e-05
3.5509e-05
-4.62686e-05
2.79507e-06
0.000170407
0.000264001
-0.000159018
0.000153451
9.35329e-05
0.14471
-6.17158e-05
-0.000104112
-2.10438e-05
-0.000140185
0.00165712
0.00013003
-0.000233188
-5.8445e-06
4.30262e-05
0.246351
-6.13323e-09
0.0860231
-1.70484e-05
1.41857
0.000185379
-4.56302e-05
0.000228349
-0.00257633
0.00083179
-0.000113115
0.422367
-0.264742
-6.79065e-06
0.000236105
-0.145542
9.49307e-05
-5.45159e-05
0.000106502
-2.56976e-05
0.000487861
3.78657e-10
-1.58875e-08
0.00194563
0.000173659
0.000197901
0.000157553
-8.7703e-05
-0.972325
-3.93943e-05
0.128229
0.000137477
0.00233504
0.000363424
2.45677
1.5476e-05
0.249873
-7.18316e-06
-9.01295e-05
0.00012278
-7.27018e-05
-0.000145682
0.0260817
0.000377702
-0.00116739
-3.59482
1.77609e-05
6.18762
-8.96223e-05
8.98551e-05
7.47316e-05
0.000134184
1.90215
2.62922e-06
-3.34993e-05
0.00143641
-1.22495e-07
0.00031811
-3.63475e-05
0.000243274
-2.35617e-05
-0.0376652
-0.000195416
6.03198e-05
0.000171773
0.000181226
-9.52685e-05
6.89696e-05
-5.14895e-05
0.000199717
0.000329786
-8.33117e-05
-2.12299e-05
0.000124655
-1.29786e-05
1.62743
-3.72856e-05
1.10845
0.00037248
2.20803
0.000206068
-0.000121373
0.21191
0.000224695
0.261364
-0.0140809
0.000144288
-2.55605e-05
-5.36752e-05
-0.000131584
-0.00170712
2.46848e-05
1.13636
5.52176e-05
43.2719
-1.01525
-0.00272379
-9.22292e-05
-4.33389
7.83908
-8.00581e-05
4.52351e-05
0.000238437
-3.20451e-05
0.000248521
0.000329387
0.00172215
0.142105
8.01509e-06
1.06343e-05
-7.96971e-05
0.269363
-0.00586569
-8.58646e-06
-1.56536e-05
-0.00125927
-0.000115327
5.10482e-05
-0.300527
-0.00010803
-4.69922e-05
1.07038
-0.000121479
-0.000127896
-0.772628
-0.190451
-4.77247
-9.10571e-05
-0.00021235
-0.175005
0.000107289
8.80585e-05
9.35011e-05
-6.52147e-05
0.000143313
0.000221606
-0.000177562
0.000475421
0.0221729
3.81101e-06
-0.000102423
4.58394e-05
0.000127155
-0.000128869
0.000273678
-0.0107684
0.000122637
-1.81483e-05
0.00012378
0.000111453
0.000188304
-2.84562e-06
0.0955148
0.000100742
5.21982e-05
-7.77219e-05
0.000322557
2.385
3.14902e-05
0.000184307
-1.90291e-05
-7.1558e-06
1.42732
-0.00114775
0.000109477
0.000208741
6.99043e-06
0.00957279
-3.41743e-05
-4.67675e-05
-6.98821e-05
0.000119496
-0.000100524
-0.000123631
-0.440454
0.000106495
-2.12427e-05
-0.000115576
-3.10143
7.56775e-05
0.035924
-6.26969e-05
-0.180408
-9.0398e-06
-0.00019132
3.83763e-05
0.00314364
-0.000213092
-2.368e-05
0.000215138
-1.24295e-05
0.0128324
0.0122733
1.43983
-5.82874e-05
0.000203056
0.000165821
-4.54e-05
-0.000105755
0.0495078
-0.000139751
-7.23106e-05
2.7254e-05
0.12391
-0.0593991
0.000245291
-0.0001911
0.0068089
6.49628e-05
0.000133311
4.07518e-05
0.00746931
-0.000188816
-0.000110016
-4.72822
-0.000148209
0.000189819
-0.84799
-2.88786e-05
0.0175065
0.000303398
-7.52977e-05
0.000624999
-0.000116201
8.95792e-06
-0.000155526
-9.88854e-05
0.14226
-9.84139e-05
-4.35196e-05
0.0203816
-0.000159503
0.0392082
0.906567
0.00110424
7.51311e-06
0.164515
3.68274e-07
-4.26801
0.000273535
-0.000140263
0.000323395
-0.0582235
-4.58279e-06
-0.000143936
-3.51866e-05
0.000307938
0.151815
4.80073e-05
7.93259e-05
-1.4736e-05
-1.00094e-05
0.000169688
-6.02671e-06
4.20344e-05
-9.28391e-05
-1.52191e-05
-0.320729
-1.29775
-0.00025107
-6.06297e-05
0.000173893
1.57163
-1.64437e-05
-7.5393
3.04388e-06
-8.72348e-06
8.25755e-05
-1.73049e-05
-3.88941e-05
6.5669e-05
0.000143669
-7.94397e-05
-0.00217177
0.0151098
5.66524e-05
5.48296e-05
-1.60832e-05
0.000761605
-4.74688e-05
-0.000145501
-0.000107776
-6.75398e-05
-9.50589e-05
8.27116e-06
4.56421e-05
0.000152307
6.54764e-05
0.000102323
0.0157068
-5.04872e-05
0.0192986
7.81088e-06
2.16274e-05
-7.66638e-05
-0.00747178
0.000597393
0.000144465
5.43654e-05
0.00404211
-0.000146726
7.59516e-05
-4.21344e-05
4.76337e-05
5.54024
0.0806943
1.48837e-05
-3.86487
-3.62941e-05
0.000372604
-0.00226722
0.000698605
7.73658e-05
0.395578
-5.62426e-05
0.0276459
0.000145161
-0.000165648
-1.2881e-05
-5.06778e-05
6.7565e-06
-2.39071e-05
-0.0102642
-3.80905e-05
-0.000116619
0.00710028
-3.93038e-05
0.00207292
-9.32907e-05
-4.76415e-06
4.16298e-05
0.00067408
0.0922421
6.19112e-05
0.000201694
3.76392
0.000552666
8.59942e-05
-5.0288e-05
0.000172665
3.32959e-05
-0.0774905
1.80707e-05
1.15749e-05
0.000838784
-2.47466e-05
-4.38295e-05
3.06039e-05
0.0001137
-2.39173
7.98095e-05
-9.09406e-06
-4.07886e-05
-7.3027e-05
0.000118065
3.67908e-05
0.123502
-8.93438e-05
-7.92127e-05
3.44835e-05
0.00896926
-5.62571e-06
-3.91329e-05
3.17761e-05
0.000208355
-0.000116481
-0.000196404
-3.29012e-05
0.000188201
-8.1685e-05
0.0123521
0.000234041
-1.82513e-06
-7.28495e-05
0.000237217
0.00358078
-0.000121598
-7.16208e-05
-0.000125433
1.14646
-1.07755e-05
-0.000149433
0.000240432
3.62409e-05
0.000414806
0.000316561
-5.14693
-1.86145
-0.170592
2.43058e-05
-1.69909e-07
0.000421236
-7.67442e-06
0.00367245
0.00150862
0.621489
0.00267807
-0.148915
0.00345978
0.0465975
1.08504
0.000180542
-8.0405e-05
-0.000102275
3.96041e-05
1.86876
-2.64712e-05
6.46448e-05
6.8904e-06
-6.4086e-05
0.000179702
-0.922746
1.78129
8.58932e-05
-1.47349
0.337446
0.0832806
0.000669257
-0.000692855
-3.84186e-05
0.728187
-5.99605e-05
-0.0964163
-2.59378
7.28628e-05
-5.87819e-05
7.4673e-05
-0.000111761
-9.45188e-05
3.35503e-05
0.00406428
1.84989e-05
0.000140051
-4.19575e-05
-3.79299e-05
0.00016549
9.05588e-06
7.255e-06
-3.80956e-05
0.101518
-0.000886146
-6.92423e-05
-0.135598
-8.25228e-05
9.73989e-05
-0.000100378
-0.0848509
-9.4302e-06
0.000123755
-0.00412554
0.0300678
6.11803e-05
3.84461e-05
-0.106971
0.00045488
-0.825844
1.0051e-05
0.0526511
2.00493
-0.0845228
0.000137181
-0.000110723
0.00280169
0.000103918
0.000663294
-0.000109981
1.58462
0.000839191
-0.0283277
-8.31686e-05
0.000204742
-0.713551
0.0768024
9.18849e-05
6.99874e-05
3.77774
4.76228e-06
5.84854e-05
-2.29698e-05
-9.98655e-05
0.000132455
0.000102522
-0.000109226
1.68236e-05
0.000147415
0.000298388
1.25416
0.00135133
0.000109943
6.25557
-0.00171023
5.05683e-05
3.51423e-05
4.8628e-05
2.13862e-05
-0.00512876
9.2787e-05
-0.000117652
-6.57205e-05
5.76179e-05
0.000333531
0.000243646
3.51401e-05
0.0012085
1.35577e-05
8.89162e-05
2.00512
-1.0145
0.000100966
1.56728
0.000511235
0.000121059
0.000213009
0.000212558
-6.53497
-0.000810878
-2.2821e-05
9.33684e-05
6.78847e-05
-0.000117086
-1.82593e-05
0.0449432
0.000359265
-2.81054e-05
-0.000141438
-0.873093
5.0674
-2.0456e-05
-0.000108601
0.0247623
0.268059
-0.000146786
-3.98966
1.82022
2.42436e-05
1.50102e-05
-3.58315e-05
-0.000176014
1.19878
0.000182044
-3.12173e-05
0.0263821
-0.00260475
2.07384e-05
-2.85386e-05
0.00169614
-5.702e-05
-5.90184e-05
0.000510139
0.00531096
0.969112
0.000156742
-0.00621638
0.000805444
0.00227951
-6.51108e-05
0.000209306
7.11635e-05
0.000374483
0.00679852
-9.68601e-06
-1.00035e-05
-4.39944e-05
-3.06082
-7.76491e-05
0.000138948
-9.21934e-05
0.00338355
-5.68639e-05
-7.52663e-05
0.000129278
7.35404e-05
0.288693
1.51084
-8.91242e-05
-0.161621
0.814529
-0.817502
1.76303e-05
-9.85862e-05
-0.0001629
-2.40838e-05
0.000264304
1.88341e-05
-7.40232e-05
-7.19087e-05
4.03331e-05
-0.000155694
5.8017
0.000224679
0.160849
0.00018038
-3.43263e-05
-0.000183282
0.000116677
-9.247e-05
0.000275734
0.000427082
0.000139442
0.104465
0.000907335
-0.000128999
-8.48965
-0.000136243
5.42789e-05
7.51593e-05
0.00665965
0.000824613
-7.71153e-05
-6.66771e-05
8.50647e-05
8.96702e-05
0.000180045
0.000741262
-8.49129e-05
-0.171162
8.78681e-05
0.000292973
0.307046
0.000823981
3.50983e-06
0.00178283
-0.000157763
0.0031654
-0.00169689
0.000411501
-0.572926
-1.29559e-05
1.08296e-05
2.42239e-05
3.41017e-05
0.000132454
-4.49193e-05
0.00067143
-0.00191679
-8.28499
0.000137594
0.840652
-1.64564
-0.000164503
0.870479
-0.000101481
-0.0034938
-2.93615
4.75342e-07
0.00496811
5.34347e-05
0.165943
0.000109419
0.00824232
0.000191089
-0.268516
0.000256451
-1.6405
2.46844e-05
0.0107216
9.67649e-05
-0.000159297
0.0592116
1.12685e-05
2.68282
0.948256
0.17518
-2.7815
0.0110376
0.21369
0.000208831
1.84189e-05
0.000652038
0.000595019
-0.618692
9.50089e-05
0.000292193
-3.82706e-05
0.000354009
-6.13067e-05
-0.000101427
-0.000167422
-8.45452
-1.99767
-0.000145863
-3.91851
0.00184194
-9.3315e-05
0.000374465
0.000256525
0.94108
0.000219046
-9.87288e-06
0.165761
6.88734e-05
1.65039e-05
-5.80689e-05
-0.00565649
0.00194597
5.7279e-05
0.000114658
0.000127944
-7.14233e-05
9.50218e-06
-1.88223
-0.000136277
0.00034747
0.111639
0.022417
1.62318e-05
7.83644e-05
1.04158
8.25095e-05
-0.000223748
-1.74574e-05
0.00152583
-0.00014242
3.10863e-05
1.23329e-06
-0.107897
0.00085361
0.0021633
-0.000123235
-3.83371e-05
-0.000508803
1.92594e-05
-0.00017106
0.972766
3.25434e-05
0.0476881
0.000153323
0.000298516
-8.77572e-05
0.0181102
-7.85416e-05
1.8128e-05
9.73447e-05
0.000165916
0.0027122
0.00859002
8.95726e-05
8.83597e-09
0.000210674
-7.45622e-05
0.00456021
4.36234e-06
0.00108888
3.97337e-05
8.0079e-05
-1.34891
-5.03953e-05
4.96389
-7.86105e-05
-5.89203e-05
0.00524166
-3.25145e-05
0.000109881
0.00326157
-0.00535664
5.43006e-05
0.00217245
-6.68325e-05
0.000182193
-0.000112293
-3.04971
-5.44026
-4.47947e-05
6.54076e-06
8.43139e-05
3.58092e-06
0.00655297
0.000398207
4.26516e-05
0.103284
0.000167661
4.57326e-05
7.04862e-06
0.0592497
-3.84947e-05
-0.000142531
-4.59829e-05
-2.04642e-05
-0.000120984
1.80868e-05
-1.32256e-05
9.15437e-05
-10.5387
4.15493e-05
4.36732e-06
0.00051817
-0.000240875
-0.000141272
-0.160314
7.24871e-05
2.82226e-05
0.000150866
-0.00015336
0.0211794
-1.58525e-06
0.00472536
0.000121892
-0.000218582
0.000103223
0.000680084
0.000336015
0.0123463
5.3878e-05
-0.000171615
0.121327
-0.103844
0.000120808
9.66569e-05
-0.782472
-0.00662778
0.00559348
-0.00015151
0.00607989
2.58525e-05
1.02755
-0.000512864
2.48191e-05
-0.595114
-0.405949
-0.000201264
0.000250485
0.000763773
-6.5016e-05
0.0264417
-0.000107294
3.42087e-05
0.000100298
-0.000119747
0.000177584
0.00170287
0.000172566
0.000222416
1.91214e-05
-36.0394
3.37481e-05
0.000193423
-3.78121e-05
0.000129644
5.78168e-05
0.000219427
0.00190124
0.000300315
2.84387e-05
0.00018187
0.889454
-0.000175268
0.000233613
-6.6311e-05
3.11784e-05
-5.69509e-05
0.000126085
9.25082e-05
0.0107733
2.20828e-05
7.4721e-05
0.00131425
1.4755e-06
0.00019985
2.13504
-0.000174826
0.00029852
-9.07482e-06
0.00284564
0.000170448
6.79258e-05
-3.22691e-07
-8.59773e-05
-0.187898
-5.00103
0.000103127
0.000287148
-7.13564e-05
0.00237927
0.000347677
4.28131e-05
3.44374e-05
0.00411235
-0.00010539
2.31992e-05
-9.68381e-05
-0.00356891
0.097769
-6.84514e-05
0.0139548
3.4304e-05
-0.56132
0.000298483
3.22507e-05
1.29515
0.00641638
-1.40176e-05
0.0615746
0.00417279
-2.822
0.0011972
0.144986
2.30934e-05
-7.22257e-05
-2.44357
0.000195517
0.102158
-1.76152e-05
-0.00255044
-0.295599
-7.09977e-10
-0.000134871
-8.34527e-05
0.0949548
0.000114328
-3.43028
0.000480237
-7.45592
-0.000151695
0.00657213
-0.0495659
0.000186592
-0.000173143
0.00272578
0.000186151
4.66633e-05
-0.000160672
0.00381997
0.00157628
-0.00120139
0.0188351
-9.35765
0.0220252
-4.84983e-06
5.04861e-05
2.39171
0.00269556
-1.98032e-05
0.00043901
3.20675
-3.23786e-05
6.56987e-06
-5.46044e-05
0.000142228
-4.0134e-05
-2.93252e-05
0.000352439
-5.23948e-05
0.000277492
-2.22466
-1.23087
0.000469384
-0.00010826
3.22811e-05
0.0334867
0.000956901
-8.63457e-05
3.5752e-05
0.00426029
12.0315
2.06788e-05
1.31331e-05
-5.67059e-05
-0.206568
0.000229491
0.000175592
0.0634911
0.0696917
-0.000146487
0.0129464
0.00269281
0.00113912
4.5521e-05
0.000126348
1.87727
0.000142165
-4.50003e-05
-9.90308e-05
0.000171158
0.000102635
6.01164e-05
4.44155e-06
-0.000412036
0.000141062
0.00021276
9.48564e-05
-0.000119238
0.000236149
-0.00013161
-0.00271004
-2.86053
-4.17604
1.88526e-05
3.43606e-05
3.17545e-05
-3.69893e-05
0.70716
0.000112207
0.0342369
0.000160395
-1.28489e-05
-5.14876e-05
0.000162359
-0.855387
2.25481e-05
-1.67598
2.28155e-05
0.000250785
-4.96604e-05
0.840789
-0.000207108
0.000629006
5.70925
0.00015975
-9.53944e-05
0.449937
-2.20837e-05
-4.47233
9.56375e-05
0.000214069
3.92635
-1.23892e-05
-3.40177e-05
0.000237463
-7.33328
3.4797e-05
0.000215721
0.195819
8.31938e-07
-6.69675e-05
-0.00228678
-5.87087
0.0125848
1.40883
-1.82593
0.00375778
-0.000157172
0.034173
-0.0699001
2.11394e-05
2.61182e-05
-0.000147085
-6.71894e-05
0.00270533
-7.02504e-05
-7.35303e-05
-6.607e-05
-1.65978e-05
0.0629561
-3.60517e-06
-5.2129
5.53424e-05
-3.28356e-05
-0.000917788
0.000341023
0.000250955
0.231358
1.6755
0.00060716
3.02214e-06
-1.72835e-05
-0.00170991
0.000108571
0.00039681
-0.00679639
0.00074529
0.000341093
-4.68897
-4.06003
0.00043865
-4.78226e-05
0.000161995
5.76677e-05
-6.96876e-05
-8.92654e-05
7.63808
-1.51052e-05
4.49638e-05
-0.000642608
-8.15323
3.23916e-05
-0.156544
-7.11667e-05
-0.00993157
0.0010198
1.9153
-0.00754398
0.00178492
0.00149139
-1.91348e-05
0.000382802
-0.064058
-6.46488e-05
-3.04683e-05
0.0976061
0.000210862
-2.81409e-05
0.000105265
0.000640993
0.0625256
0.208095
0.0270759
0.000116589
0.000140723
-0.000118709
-4.9256
0.110586
-1.22871e-05
2.94535e-05
0.000105458
0.00484037
1.42164
0.000427911
-2.21736
-9.47896e-05
5.00339e-05
-1.81775
-2.05868e-05
0.908866
-6.97129
0.000108525
0.000158508
0.190988
-0.000135465
0.000194128
-6.44996e-05
-0.484119
1.75766e-05
0.0204355
-0.68852
-4.22215
0.000126623
-7.62558e-05
0.000102972
0.0181488
-3.21909
-0.000113741
-2.29714e-05
0.695385
0.00133043
0.00269489
2.20261e-05
0.0515884
-1.26753
0.00439379
-8.35816e-05
3.97541e-05
-3.67464e-05
0.453461
0.00267339
0.000125932
-2.56276
-0.998596
-5.73398e-05
-0.0221695
5.62345e-05
-1.22445
0.00548552
-5.58162e-05
-0.000101598
0.21594
-2.27423e-05
0.000707911
-0.344197
2.21947
-1.65297e-05
1.81789e-05
0.000172699
0.00760625
-0.0245555
-0.0180773
0.557524
0.000122121
0.00012711
0.000197083
-0.246586
0.00529384
0.000121556
0.0181024
-0.0284012
-4.75666
-3.23198
-4.95362
1.43611
-3.46219
-9.27547e-05
5.47878e-05
3.76361e-05
-0.000124173
-5.24701
0.0212161
2.99132e-05
0.248363
1.84899e-05
2.91116e-05
4.05154e-05
9.22802e-05
0.000107202
-0.335533
0.00133159
0.139364
8.7241e-06
0.166222
0.00123642
-0.213062
-2.39562
-6.31702e-05
4.60209e-05
0.000883263
0.00196405
8.8122e-05
3.75324e-05
-8.03383e-05
-1.35066
9.92132e-05
0.000112621
0.0299504
-2.41443e-05
-5.4718
0.000172884
5.74886
8.9526e-06
0.000159986
-2.05253e-05
-5.67269e-05
-6.69109e-05
1.345e-05
0.920829
0.000198736
0.000218723
1.72523
-4.17679e-05
2.16073
8.41961e-06
1.23581
3.35387
1.60032
0.00246541
-3.15128e-05
-1.84297e-05
2.02312
-0.000188741
-3.28065e-05
6.12229e-05
0.000194205
1.73847
0.000266578
-6.10311e-06
-8.76606e-05
-8.1765e-05
-5.97885
-11.9428
6.11457e-05
0.000270614
0.287148
-0.193151
0.000234698
-0.597526
0.000140243
2.2137
0.541959
0.00378055
0.111823
0.137321
0.0038256
-2.40016
0.00190818
-9.42912e-05
-7.93342e-05
0.000161436
1.76781
-1.19672
-1.26576e-05
1.7454e-05
-2.42797
0.000240985
-3.23024
-2.35662e-06
-7.88045e-05
0.000186852
-1.16818
0.00417386
6.04329e-07
-0.877099
3.05784e-05
-0.0933906
-1.10011
-8.51096e-06
0.000100096
-0.000785376
3.29217e-05
0.000296673
0.000122201
-3.21988
0.000254607
7.212e-05
4.05973e-05
-0.0267348
-9.05487e-05
0.00113979
-7.84388e-05
3.26856
-5.61522e-05
0.0133217
0.000348267
-0.813927
-0.0395509
0.000129394
0.00712223
0.00121285
-3.08822e-05
0.00625145
0.505048
-1.68712e-06
0.0031789
0.000168783
0.110878
0.000157143
0.923061
-0.856928
0.00785233
-1.82499
-1.08717
0.000477502
-4.58936e-05
0.0210455
0.000207196
-2.30204
-0.000186643
0.26759
6.94542e-05
0.000188429
6.94632e-05
0.000174277
-0.000110051
-8.33657e-05
8.77091e-05
-2.53872
-0.00061465
-1.45678
1.44319
7.4495e-06
0.000208802
0.00197461
-2.63095
0.00033986
9.26414e-05
0.000180906
-0.253941
-0.992367
-5.36956
-2.47955
0.000159679
-0.00011496
0.000147789
0.0011013
0.000137936
-0.0447583
-6.60478e-05
-3.7062e-05
-0.103687
-0.000394683
-1.10934e-05
0.00336968
0.00130745
-0.000242353
4.90028e-05
0.00143193
0.160365
0.350315
-0.203133
0.0253955
-4.61039e-05
-3.23954e-05
0.000361996
-7.92025e-06
-0.0001015
-4.51512e-05
0.000362124
0.0560186
9.9837e-05
4.66767e-05
0.000130782
-6.76399e-05
-3.97268e-05
-4.66273e-05
0.000414325
0.000342333
-4.79405e-05
0.000180949
-0.000117764
0.00010536
-0.000124223
0.000131222
0.107372
7.12658e-05
0.00355873
-0.171206
-0.180678
2.55724
0.571451
8.90135e-05
5.46393e-05
3.8016e-06
1.96203
-4.89657e-05
0.000189693
-8.8644e-05
0.0164134
0.000191532
0.000111804
-0.153142
-0.000234308
-6.11483e-06
0.000216049
1.66825e-05
0.00143686
7.04444e-05
0.000449583
8.73985e-05
1.54353e-05
-6.74204e-05
-0.000192283
-9.43392e-05
-0.120347
0.000625045
0.0123418
-0.000194776
0.0297291
0.000336349
-0.000283699
-8.46921e-05
-1.92796
-4.10222e-05
-7.28348e-05
-3.38463e-05
-7.09439e-06
0.0120726
-1.53725e-05
0.003588
0.674175
-2.56623e-05
0.107034
0.00151097
0.00250091
0.00673506
0.00264978
-4.63522e-05
2.09187e-06
-4.57329e-05
0.000965161
0.000540067
1.97315
0.000100863
0.000593962
-9.24839e-05
2.9396
0.0814916
0.000432816
8.03741e-05
-0.000215597
0.000267999
0.00214361
-4.90774e-05
1.96794
7.26281e-05
-0.000114841
0.000108622
0.000660607
0.0350754
0.000178432
-1.42669
-6.08929e-06
-4.40828e-05
0.00335845
-4.16002e-05
-0.0410555
1.84047
-0.00546469
-0.000969666
0.000348594
4.38329e-05
9.14298e-05
-1.04155
0.0108248
8.90728e-05
2.69422e-05
-7.92555e-05
-0.000220276
0.138158
4.86804e-05
1.53501
-0.00943544
0.00732476
0.000428662
-0.000152973
5.52223e-05
-1.47419e-05
0.0217579
0.00388419
-8.89674e-05
-2.78669
-1.06022e-07
-0.000118186
6.35772e-06
1.43871
-0.000114455
0.0791271
0.000218084
1.38104
-1.86528e-05
9.68125e-05
0.000209886
0.00012032
-0.000122327
-0.0154705
-0.000146026
-0.000127673
0.000127911
0.000504389
-3.23675e-06
0.971078
5.34339e-06
-0.00012788
0.000250749
0.00251776
-0.000143208
5.8048e-05
0.000885756
2.02643
-4.75231
1.09279
0.308838
0.082732
0.000286562
0.00269071
-9.05941e-05
0.000213245
9.87884e-05
1.91785
0.00229049
0.000229364
-9.78725e-05
8.12517e-05
5.50346e-05
0.00442854
-8.15049e-05
-4.90881e-05
0.000417468
0.00738313
0.0161384
6.71618e-05
3.73227e-05
-0.413797
-1.03734e-05
-0.000137704
-3.10184
-0.0422883
0.000156469
0.000385972
0.000140885
-3.31056e-05
0.000428909
9.81359e-05
2.99094
1.77485e-05
1.01628
-2.5871e-06
-0.920406
0.000221906
-4.06269e-05
0.000334199
5.80963e-05
-0.000151835
2.06364e-05
2.24423e-05
0.00707812
5.95135e-05
-0.0121078
-5.49824e-05
2.05736e-05
0.00766516
2.25575e-05
8.04395e-05
-5.87829e-05
0.000192789
-2.59937e-05
-0.00012558
2.81272e-05
-0.115145
-3.53128e-05
0.000107335
0.00260822
0.000129278
-4.2024e-05
-3.82384e-06
2.60158e-05
-0.258697
0.0364332
7.46856e-06
-8.83622e-05
-0.00015302
-1.74162e-05
0.079228
0.000146688
0.000163996
-0.358137
-2.13528e-06
0.000563239
-0.000409502
0.000771156
-7.67106e-05
0.00950055
7.34615e-06
0.0164624
0.00189204
-0.000131578
0.389604
0.189389
3.77054e-07
0.0109388
-8.11299e-06
-8.11527e-05
0.00113796
0.0322906
8.27732e-05
0.000139507
-4.20278e-05
0.000282793
-6.00347e-05
0.000517156
0.000139698
0.000284538
-0.1311
0.000520995
0.0676103
3.50562e-05
-0.000133492
0.000183196
0.000524959
-0.000119095
-5.53868e-05
-0.000119194
0.000356334
0.00357633
-0.000118027
0.00267887
-4.09394e-05
1.67208
0.000245539
0.000113345
-0.00143859
0.000118572
-0.00104542
0.0040281
0.000463178
-7.89174e-05
-0.000112441
-0.000173917
0.00030397
-0.000110263
0.00116949
-4.36891e-05
-0.000167627
0.000159384
0.000121452
1.48912
0.000132288
0.00180183
-0.684058
1.9264
0.000573863
9.40629e-05
1.31113
4.42343e-06
-6.87903e-05
-4.9899e-05
0.0158667
9.29188e-05
0.000301916
5.07928e-05
-0.000129779
-4.65474e-05
-6.32639e-06
-7.01338e-06
0.0020766
0.000106504
-8.84911e-05
-3.31961e-05
4.91171e-05
-0.147756
-0.000134689
-6.90536
0.00207564
0.000218996
1.06144
0.071914
2.27117e-05
-0.000122901
-0.00123237
9.41207e-05
-0.000108094
1.2109
0.000206622
2.20748
-8.81324e-05
-1.32316e-05
-9.03803e-05
-2.27897e-05
4.67273e-05
-8.32341e-05
0.00136879
-0.000100031
0.000126649
1.80748e-05
-0.00015158
-0.784927
0.000574226
0.000286786
-4.12488e-05
0.00494629
0.00209491
0.000137644
8.60182e-05
-0.000129615
-8.99517e-05
-7.74086e-05
-0.000100604