/*--------------------------------*- C++ -*----------------------------------*\
| =========                 |                                                 |
| \\      /  F ield         | OpenFOAM: The Open Source CFD Toolbox           |
|  \\    /   O peration     | Version:  v2012                                 |
|   \\  /    A nd           | Website:  www.openfoam.com                      |
|    \\/     M anipulation  |                                                 |
\*---------------------------------------------------------------------------*/
FoamFile
{
    version     2.0;
    format      ascii;
    class       volVectorField;
    location    "150";
    object      ddtCorrDdt0(U);
}
// * * * * * * * * * * * * * * * * * * * * * * * * * * * * * * * * * * * * * //

dimensions      [0 1 -2 0 0 0 0];


internalField   nonuniform List<vector> 
10042
(
(0.00059302 0.000277267 -5.54535e-19)
(0.000237947 0.000753583 1.14509e-18)
(-0.000900769 -0.00159801 -1.44615e-18)
(-0.000205102 -1.95246e-06 -7.08557e-20)
(0.137517 -0.186597 -2.0178e-17)
(0.000209952 0.000320724 -4.14819e-19)
(-0.191518 -0.250432 -6.12536e-18)
(0.0176411 -0.134067 1.02068e-18)
(-0.000560937 -0.00101765 -4.13441e-19)
(0.000275484 0.000362779 -1.13123e-18)
(0.243194 -0.0472332 6.08463e-18)
(-0.000305162 -1.70462e-06 1.24704e-19)
(-0.00028507 -1.22729e-05 -2.18532e-20)
(-0.000269707 1.04101e-05 4.53968e-20)
(0.00285584 0.00249756 -2.25944e-18)
(0.000286205 0.000749387 9.28349e-19)
(0.000311863 0.000807641 7.38498e-19)
(-5.88929e-06 -4.7097e-06 -2.42567e-18)
(0.000573613 0.000201557 8.92592e-18)
(-0.00178306 0.0147376 -2.61432e-18)
(0.000259317 -0.000118959 -7.16151e-19)
(-0.0792212 -0.0467426 -8.39228e-19)
(-0.000277164 -1.69177e-05 3.13622e-20)
(-0.000224407 -0.000227942 -5.77582e-21)
(0.000208565 0.000598506 1.17619e-18)
(-0.00286101 -0.00787528 -3.55463e-18)
(7.16028e-05 0.000495559 1.05277e-18)
(0.00314538 0.000165962 1.26424e-18)
(0.000441223 -0.00146389 7.18366e-19)
(0.002687 -0.000386451 -2.25539e-19)
(0.000169767 0.00125373 6.92145e-20)
(0.0472676 -0.0176906 -6.26479e-18)
(0.00025103 0.000348698 6.21067e-19)
(0.00215062 -0.0018697 2.44882e-18)
(0.00242019 -0.00620106 1.3254e-17)
(-0.000191626 -0.000260368 8.61539e-21)
(-0.00220907 -0.00762633 -5.59126e-18)
(-0.00587568 -0.00676131 7.55712e-19)
(-0.000183593 -0.000254455 -1.40978e-19)
(0.00916308 0.00054862 1.20808e-18)
(-0.00163904 0.0142971 1.46747e-17)
(0.00294249 0.00206644 2.24937e-19)
(-0.232283 -0.246562 -1.03241e-17)
(0.00160486 0.00082808 -2.59709e-18)
(0.130661 -0.224551 9.40345e-17)
(-0.0144829 -0.00981571 -6.68994e-18)
(0.001928 0.00191669 3.63945e-18)
(-0.0294286 0.0154956 8.85599e-19)
(-0.000415863 -0.00726636 -6.40599e-18)
(-0.00244716 -0.00174848 -6.69215e-19)
(9.35944e-05 0.000112725 2.97502e-18)
(-0.00394416 9.04028e-05 8.42735e-19)
(0.00224264 0.00270664 3.36475e-18)
(-0.00467086 -0.00117478 -4.92024e-19)
(-0.00189098 -0.00773466 2.88601e-19)
(0.000206906 0.000429819 5.33101e-19)
(0.000419291 -0.00149498 4.84685e-19)
(0.00179612 0.00177521 -5.48774e-19)
(0.00203097 -0.0018855 -1.72595e-18)
(0.00225124 0.00266898 -4.02819e-18)
(0.000183612 0.000936371 9.27499e-18)
(0.000331349 0.00106193 4.8936e-19)
(0.00273569 -0.00631492 -1.02999e-17)
(-0.000789262 -0.00152107 -3.53885e-19)
(0.000815976 0.00209742 -9.77507e-18)
(0.00191862 -0.00204111 1.93699e-21)
(0.000633766 0.00101925 1.2556e-18)
(0.000582579 0.0133074 1.29757e-17)
(0.0528943 0.111982 -6.58244e-17)
(0.00123345 0.000153211 1.22654e-18)
(-0.0047827 -0.000996488 3.70091e-18)
(-0.00239437 0.0147696 -1.9418e-18)
(0.00156538 0.000826763 -4.97786e-19)
(0.00234251 0.00717955 2.66438e-17)
(0.000447743 0.0008105 2.45749e-18)
(-0.000239175 -0.000232331 -7.77864e-20)
(0.192992 -0.173242 3.61717e-17)
(0.000553067 0.000154837 8.25111e-18)
(0.00388758 0.0060021 -1.03213e-17)
(-0.138452 -0.300975 6.95385e-18)
(-0.000358093 -0.00713941 6.87078e-18)
(-0.05757 -0.267004 -1.24777e-16)
(0.00178619 -0.000286652 -1.79051e-20)
(0.00254356 0.0020468 6.7283e-18)
(0.000530204 0.000990543 5.16264e-18)
(4.52978e-05 0.00062715 2.85055e-18)
(0.000667349 0.000234407 -2.49633e-18)
(0.0602056 -0.0169523 1.11116e-17)
(0.000953936 0.000294397 -3.40959e-18)
(0.000663425 0.00029117 -1.63495e-18)
(0.00086505 -0.00214567 1.00227e-18)
(-0.029214 -0.285454 1.71241e-16)
(0.00330585 5.5583e-05 2.89555e-19)
(-0.00370751 0.000124768 -7.10835e-19)
(0.00258708 -0.000210962 2.26947e-19)
(0.00114743 -0.00110584 -1.22462e-19)
(0.000519931 -1.53786e-05 4.03142e-18)
(0.00123043 -0.000282936 -4.31552e-20)
(0.00868915 0.000324747 4.7643e-19)
(4.38902e-05 -0.00134351 -2.60522e-19)
(7.05576e-07 -1.33057e-05 -1.12025e-18)
(0.0315173 -0.0326455 4.55623e-18)
(-0.035539 -0.159834 8.57625e-20)
(4.46091e-05 0.000685266 -2.87186e-18)
(0.00282717 0.000810746 -7.87125e-20)
(0.0217662 0.00181742 -4.28605e-17)
(0.000557125 0.000418172 -4.39644e-18)
(0.000532505 -2.93208e-05 -3.13471e-18)
(0.000249679 -0.000128866 8.82352e-20)
(-0.000525078 0.000317867 -6.34625e-19)
(-8.65308e-05 -2.06524e-05 -5.04124e-19)
(0.000916704 -0.000293734 1.36924e-18)
(0.0056487 -0.00327475 3.14617e-18)
(0.0561985 0.0928694 -4.58116e-17)
(0.0007681 0.00189463 1.52952e-17)
(0.000833682 -0.000454621 -4.93907e-19)
(0.000244037 0.000430608 1.86484e-18)
(0.00057376 0.000209103 -1.06759e-17)
(0.00107136 -0.00113782 4.57244e-19)
(-0.0964513 0.174049 2.60621e-16)
(0.000931551 0.000237875 4.95308e-18)
(-0.00554629 -0.141861 -3.21713e-18)
(0.00178277 0.000691953 1.9297e-18)
(0.000136327 0.000960811 4.58579e-18)
(0.0280117 -0.0317418 -9.8344e-18)
(0.00177751 -0.000232246 -4.21784e-19)
(0.0229271 -0.125203 -1.54505e-18)
(0.00155282 -0.00797744 1.24401e-17)
(0.0207849 0.00238944 2.09847e-17)
(0.00068251 0.000200381 -1.11771e-19)
(0.00409868 0.00634665 -7.54078e-18)
(0.000954077 0.000773339 -1.8095e-18)
(-0.00368652 -0.188999 1.01839e-16)
(0.0104315 -0.0422163 -1.74841e-17)
(0.000104535 -0.00135518 4.39109e-19)
(0.0223091 -0.0124556 1.85144e-17)
(-0.0398505 0.266499 -5.74667e-17)
(0.0009761 -0.00220456 -7.01818e-19)
(-0.0344681 0.0137125 3.10347e-19)
(0.0673732 -0.0158639 4.98603e-18)
(0.0028466 0.00123131 -2.93122e-19)
(0.000260647 0.000476436 -4.84608e-19)
(0.00249202 0.00138182 2.2703e-18)
(0.00872317 -0.0461831 -2.96072e-17)
(-0.00260328 0.000141445 -2.60774e-18)
(0.00081896 -0.000327805 -1.02366e-18)
(0.0155513 -0.0179655 2.4215e-17)
(-0.00101835 0.000403114 -1.11577e-18)
(0.00128404 -0.000318379 -1.39608e-19)
(0.00594361 -0.000997392 5.2073e-18)
(-0.000785735 -0.00114138 2.61031e-19)
(-3.07827e-06 -8.29483e-06 5.5755e-19)
(0.0467387 -0.48326 3.89944e-20)
(-0.167571 -0.109796 -5.48083e-17)
(5.33256e-05 0.00132519 -1.74927e-18)
(-0.000284816 -1.01245e-05 4.54464e-20)
(0.000495781 0.0030526 1.36241e-17)
(0.000329303 0.00101347 2.07045e-18)
(0.0240303 -0.0117047 -1.26004e-17)
(0.0349585 -0.0698023 -1.09701e-16)
(0.314539 -0.02785 -6.06868e-18)
(0.00121179 -0.0286552 9.01407e-18)
(0.000243922 0.00109213 4.09942e-18)
(-0.000694272 -0.00113581 1.17729e-18)
(0.0019153 -0.000905029 8.1698e-20)
(0.00090974 0.000599985 -1.40783e-18)
(0.0149917 0.0150519 -4.16411e-18)
(-0.147743 -0.108624 -5.1218e-17)
(0.0506213 -0.00880469 -1.11636e-16)
(-0.214173 -0.139077 -9.04242e-17)
(-0.0037354 -0.00109686 2.34146e-18)
(0.000471168 -0.000336089 -4.64675e-19)
(-0.132959 -0.284925 -2.09686e-17)
(-0.00308999 0.0164234 5.00949e-18)
(0.0073084 0.00873029 2.52328e-18)
(-0.40162 -0.0466597 3.4069e-18)
(0.0240744 0.32118 -1.00389e-18)
(0.0016803 0.00079638 -6.51303e-20)
(0.000261111 0.0137659 -7.19823e-18)
(0.0086715 -0.0060697 4.50607e-18)
(0.000546054 0.00311802 -4.42083e-18)
(0.0448649 -0.009514 7.54254e-17)
(0.000706354 0.00121815 5.53767e-18)
(0.00189013 -0.00762947 8.99116e-19)
(0.00273441 0.00212823 4.47833e-18)
(-0.165687 0.200574 -1.1498e-16)
(0.0111105 -0.0158167 4.93503e-19)
(0.00163717 -0.00184121 -2.80572e-18)
(0.263562 -0.0241382 2.13822e-16)
(0.00108548 -0.00444886 -4.09792e-18)
(-0.0314415 0.0164282 1.61155e-18)
(0.00240673 0.00144993 1.95294e-18)
(0.00158103 -0.481375 1.28065e-17)
(-0.0582035 -0.244514 1.21955e-17)
(-0.0125432 -0.0293663 1.39438e-17)
(-0.166105 -0.0690114 3.35856e-17)
(-0.00123385 -0.0060715 2.50983e-19)
(0.000517302 0.000253421 -4.17129e-18)
(-0.000282157 -1.79998e-05 -4.82684e-20)
(0.00356649 -0.0026017 2.82849e-19)
(0.00545425 0.00872987 -2.40025e-17)
(0.00162119 -0.00188144 1.97304e-18)
(0.00085132 -0.000216125 1.02967e-18)
(-0.00343684 0.0177232 -1.7929e-17)
(0.000684448 0.00115529 -2.83269e-18)
(-7.6561e-05 -0.000856154 1.85853e-19)
(-0.0428324 0.0228356 -5.61382e-17)
(8.90028e-05 0.000990419 -3.30406e-18)
(-5.82505e-06 -1.13395e-05 2.18442e-18)
(-1.0709e-05 0.000300885 -3.10278e-18)
(-0.102238 -0.0602728 -4.47935e-18)
(-0.000265544 4.57187e-06 7.83438e-20)
(0.0141163 0.0139269 2.51696e-18)
(0.0224963 0.0506012 -3.23162e-17)
(0.000595774 0.00293112 1.6635e-18)
(0.0108889 -0.0113009 1.36923e-17)
(0.000403117 0.000615682 -1.54099e-18)
(0.000397928 0.000576272 -2.6678e-18)
(0.010176 -0.0228758 3.73834e-17)
(0.000380856 -0.000278634 4.26159e-19)
(0.00567238 -0.00362389 -1.98223e-18)
(0.00106509 0.00316373 -4.93551e-18)
(0.0634894 0.0527877 -6.51837e-18)
(-0.00619219 -0.0067446 -1.59821e-18)
(0.00352151 0.00339533 -2.1586e-18)
(-0.00356038 -0.00792659 -4.29981e-18)
(0.0271883 -0.0731365 -9.03521e-18)
(0.000831131 -0.000423878 -1.4728e-18)
(0.00151031 -0.0206663 5.03159e-17)
(-0.00512584 -0.00112842 -2.03665e-18)
(-0.000649766 -0.0010409 -4.78006e-19)
(0.00149518 0.0235992 -5.58821e-18)
(0.000474918 -0.000248893 -8.35495e-19)
(-0.00528672 -0.000967383 -2.01907e-18)
(-0.000865093 -0.00168526 2.08916e-18)
(0.00617682 -0.00120827 1.54349e-18)
(0.000128852 -0.000847523 3.53969e-20)
(-0.000247246 3.44959e-05 -1.1573e-19)
(-0.00117472 -0.00398063 2.33764e-19)
(-0.00689352 -0.00358259 -7.37839e-19)
(0.000228961 0.0011323 -3.43407e-19)
(0.00178153 0.000768271 9.32017e-20)
(0.00180187 -0.000816458 -3.2652e-19)
(0.00587363 -0.00309448 -1.3164e-18)
(0.000801847 -0.00046637 1.89356e-18)
(0.000171801 0.00121275 -4.59522e-18)
(-0.000230367 -5.79691e-05 -6.04185e-20)
(0.00297651 0.000704985 1.57444e-19)
(-0.00418097 -0.00104021 -8.50086e-19)
(-3.65446e-06 -1.68548e-05 1.31572e-18)
(-0.000271649 -9.00369e-06 7.94057e-20)
(0.00118225 7.87232e-05 -2.91144e-18)
(0.00490859 0.000353653 3.15384e-19)
(0.0677993 0.062424 1.3703e-17)
(0.00126646 -0.0272816 -1.06477e-17)
(0.313529 -0.0298451 -8.77142e-17)
(0.00716035 0.00940928 1.07676e-19)
(0.00824078 0.00822095 2.05136e-18)
(0.00301354 0.00255304 1.61697e-18)
(-0.0170681 -0.0120388 1.22869e-18)
(-0.312549 -0.13263 7.54255e-18)
(-0.00111025 -0.00377145 -7.48989e-18)
(0.000540424 0.000363773 5.53628e-18)
(-0.000264558 2.00365e-05 -2.58015e-19)
(0.00356348 -0.00242809 -6.10607e-19)
(0.000124375 -0.000793563 -6.67988e-20)
(-0.0919885 -0.051519 4.76425e-19)
(-0.00357085 -0.00269403 1.32213e-18)
(0.000678207 0.000221076 -9.45191e-19)
(-4.58668e-05 0.000131697 2.48151e-18)
(0.00513877 0.00902676 -2.50474e-17)
(-0.0044148 -0.00114889 -8.63967e-19)
(0.0280503 0.0487371 9.17429e-17)
(0.00810699 0.00867478 9.86801e-19)
(0.05409 -0.0435003 -5.58854e-17)
(0.00129906 -0.00448927 2.25587e-18)
(-0.00724634 -0.00357261 -1.4008e-19)
(0.000148821 -0.000655473 -1.02532e-19)
(-0.00355104 -0.00471969 3.11515e-18)
(-0.0026815 6.12384e-05 2.65018e-18)
(0.00910893 -0.00651178 -5.52908e-18)
(0.000932599 1.82043e-05 4.51871e-19)
(-0.00248502 -0.00802475 1.25714e-17)
(-0.0627417 -0.222886 -1.79647e-17)
(-5.27639e-05 -0.000838146 -2.39331e-20)
(-0.000459924 -0.00138607 1.64891e-18)
(-0.283249 -0.144025 -9.15807e-18)
(-0.0150119 -0.0111052 6.99928e-18)
(0.00151558 -0.00181791 9.96886e-19)
(0.00016408 0.000986979 -1.61193e-18)
(0.00464148 0.000212406 -2.44173e-19)
(-0.432317 0.0127349 -2.03233e-19)
(-0.000687068 -0.0187678 4.29198e-18)
(0.0045876 -0.0473899 -1.15196e-17)
(7.44051e-05 0.000115748 -2.02931e-18)
(-0.000280874 -1.17899e-05 5.70364e-20)
(0.000860731 -0.000363459 4.38364e-19)
(-0.000500559 -0.00107382 -7.69299e-19)
(0.0211677 -0.0809893 -7.98798e-18)
(0.000828389 -1.06512e-05 -3.74843e-18)
(0.000194227 0.00101624 -2.80606e-18)
(0.000531593 -0.000395116 -1.57832e-19)
(0.000328721 0.000625593 -1.41341e-18)
(-0.00630137 -0.00545355 -2.20685e-19)
(0.00357206 0.00201387 5.17028e-18)
(0.0343252 -0.00237331 -2.53033e-17)
(0.108924 0.157257 -2.26016e-17)
(0.00202972 0.002549 6.55025e-18)
(0.111422 0.0449822 2.6538e-17)
(0.000760943 -0.000438098 5.91851e-18)
(-0.00339912 -0.00453777 2.94659e-18)
(8.20786e-05 0.000293093 1.20308e-18)
(-0.259775 -0.120051 -2.80017e-17)
(0.0223379 -0.0347854 -1.83852e-17)
(-0.0155742 -0.201081 4.85468e-17)
(0.202626 0.351959 -9.15819e-17)
(-0.000273888 -0.000187965 1.61129e-19)
(-0.00373681 -0.00268291 -4.9559e-19)
(0.00129058 0.000206854 -1.27306e-18)
(0.00411826 0.00134981 -4.8598e-18)
(-0.00319478 -0.0081407 4.44131e-19)
(-2.42728e-06 0.000148944 3.28223e-18)
(0.0106212 -0.00457419 -5.58381e-19)
(-9.15074e-05 -3.1698e-05 2.19637e-19)
(-0.000214644 5.18862e-05 3.37441e-20)
(0.00169098 0.00082703 1.47037e-18)
(0.0372044 -0.0017791 4.8161e-17)
(5.43499e-07 -8.12869e-05 2.17762e-18)
(0.00107565 -0.00416835 1.56497e-18)
(0.000803713 0.000492076 8.43417e-18)
(0.00348294 0.00188294 -5.13625e-18)
(0.0488021 0.116653 1.03541e-16)
(0.000788818 -0.000450888 -4.0945e-18)
(6.82627e-05 0.00127375 -6.73131e-19)
(0.000187846 6.73498e-05 -1.30262e-18)
(-0.000855418 -0.00140832 2.49782e-18)
(0.0159052 -0.00675765 -2.38823e-17)
(-0.0140768 -0.0301848 -9.57604e-18)
(0.00889307 0.00792104 -1.92126e-18)
(0.0717868 0.0290489 -2.48327e-17)
(-0.00636691 -0.00573986 -2.09103e-18)
(0.00186843 -0.00722039 -5.91307e-18)
(0.000842884 0.00062009 1.67271e-18)
(-0.000266287 1.9689e-05 8.1375e-20)
(0.000578422 -0.0023071 -4.85742e-19)
(-3.07166e-06 -2.03592e-05 1.69913e-18)
(0.048993 -0.0027517 3.73949e-17)
(0.00101475 4.54835e-05 3.27279e-19)
(0.00201276 -0.00204538 1.66639e-18)
(-0.00640129 0.0408724 8.18818e-19)
(0.000927681 -0.000238462 -3.54928e-19)
(0.00463761 0.0011995 -1.123e-18)
(0.00268135 0.00200556 -4.21507e-18)
(-0.0126265 0.0466731 -1.17266e-18)
(-0.00180558 -0.00112954 -7.35846e-19)
(0.00339941 0.00319881 3.31931e-18)
(0.0197873 0.00155857 1.04608e-17)
(0.0104671 -0.00400616 -2.7483e-18)
(0.0032166 -0.00278543 -6.99835e-19)
(0.000472232 0.000297104 -1.76934e-18)
(0.0764485 0.0420849 1.19058e-17)
(0.0148574 -0.0192612 2.05068e-17)
(-0.00191888 -0.00227988 -2.7486e-19)
(0.0150183 -0.00721844 -1.79478e-17)
(0.000458425 -1.39869e-05 2.1906e-18)
(0.000452341 -0.000207182 1.68548e-18)
(0.000445826 -3.12603e-05 -1.23521e-18)
(0.00469444 0.00105845 -3.19499e-18)
(0.0402148 -0.16444 -2.31598e-17)
(-0.00539842 -0.00266806 3.47381e-18)
(-1.17193e-06 7.58767e-05 -4.36485e-18)
(0.00198402 0.0025292 -8.56478e-18)
(4.48138e-08 -1.31683e-05 1.45245e-18)
(-2.54831e-06 -5.96502e-05 -2.44785e-19)
(-0.00228562 0.016086 -8.73353e-18)
(0.000507558 0.000251376 -9.74164e-19)
(-0.000544495 -0.000378563 -9.80641e-20)
(-0.0453144 0.235558 1.49518e-16)
(0.000265456 -0.000242087 -4.78158e-19)
(-0.0665394 -0.184405 -3.59311e-19)
(0.0574348 -0.0130995 4.20175e-17)
(0.00257524 0.00728595 -2.7418e-17)
(-0.449816 0.0848384 -9.20718e-19)
(0.343277 -0.0329988 2.54813e-17)
(0.00769246 -9.38973e-05 2.17768e-18)
(4.78227e-05 0.0224786 1.51789e-18)
(7.57946e-05 0.00103458 -2.10983e-18)
(-0.00314551 -0.000494793 1.74886e-18)
(2.20701e-06 -4.45021e-05 3.31168e-18)
(0.00163745 0.00176268 1.23324e-18)
(-0.0471577 0.153013 -5.53237e-18)
(0.000223946 0.000233919 1.19482e-19)
(0.00423811 0.0015157 3.5847e-18)
(-0.0431278 0.011563 6.28961e-17)
(-0.000301066 -1.10888e-05 -4.20948e-20)
(0.000262551 -0.000141875 6.98563e-19)
(0.00170227 0.0108117 -3.96898e-17)
(-0.0283851 0.0295627 2.78884e-18)
(0.0018077 -0.00202739 5.59592e-19)
(-0.000957162 0.000351139 8.19404e-19)
(0.0375708 -0.00599013 6.2685e-17)
(0.0255661 -0.0352347 -5.91106e-18)
(0.000492541 -0.00038561 1.98239e-19)
(0.00041135 0.0126863 8.51165e-18)
(0.539304 -0.0217914 -6.35474e-17)
(0.000374702 -0.000247689 -5.35672e-19)
(-5.73801e-06 -3.33596e-05 4.62531e-19)
(-0.00030905 -0.000465978 1.9141e-20)
(0.000743136 -6.6381e-05 -4.92901e-19)
(-0.000225559 5.57489e-05 -1.27578e-20)
(-0.000109652 -0.000779714 -1.45733e-20)
(0.10015 0.0298187 -4.8122e-18)
(-0.0145613 -0.154822 1.27655e-18)
(0.00171122 0.00188 -6.15706e-18)
(0.0661283 0.134516 8.41091e-17)
(-0.000264796 5.18105e-06 -6.48884e-20)
(0.000808956 5.4129e-05 -3.32637e-18)
(0.102171 -0.103976 -4.59581e-17)
(-0.00156078 -0.00187078 6.53248e-19)
(-0.0440104 -0.182534 6.36116e-19)
(-0.000948237 -0.019462 5.20313e-18)
(0.00249183 0.00221516 -4.64723e-18)
(-0.000691883 -0.000310673 -3.61253e-19)
(-0.000892874 0.000323812 -5.43679e-19)
(0.0362553 0.0283798 -3.59379e-17)
(-0.00394311 -0.00119087 -1.2691e-18)
(0.00779558 0.000312673 3.67719e-19)
(0.00264068 0.000351794 6.17427e-19)
(0.230642 -0.0505439 -2.77939e-17)
(0.000581831 0.00275241 5.27355e-19)
(0.0232739 -0.222051 3.27194e-17)
(0.00279793 0.00235921 1.57637e-18)
(0.000366321 -0.000121816 -1.8565e-18)
(0.00086158 -0.000409201 -1.90035e-19)
(0.120912 0.038124 8.26291e-18)
(0.000375012 -1.92235e-05 -5.80318e-19)
(0.00116267 0.00468918 4.59259e-18)
(0.000957992 -0.000264794 -2.13818e-18)
(-0.00169572 -0.00109058 6.91157e-19)
(0.0107626 -0.0597591 2.52678e-16)
(-0.000699007 -0.00626935 -8.19583e-18)
(0.000328827 0.000481967 -8.18071e-18)
(-0.000113175 -2.92238e-05 4.90812e-23)
(0.0119267 0.0775356 -4.66403e-17)
(0.000716814 8.58725e-05 -9.33578e-19)
(-0.000535256 -0.00645225 1.22145e-17)
(0.00369503 -0.00214895 -2.43061e-18)
(0.000159145 -0.000711754 -5.28127e-20)
(-0.025969 0.11514 -7.15008e-19)
(-0.417287 0.00861993 -6.53985e-19)
(0.000274583 -9.12446e-05 1.85744e-18)
(0.000786966 0.00165289 -8.82989e-18)
(-0.00537369 -0.00289596 -3.14014e-18)
(-0.00027477 -6.21534e-06 -1.77227e-19)
(0.000360855 0.000767662 2.97451e-19)
(8.4431e-05 0.000715154 6.64296e-19)
(-0.0446885 0.186538 -6.88436e-17)
(7.16688e-05 0.001205 1.81246e-18)
(-0.000267626 1.0253e-05 -1.36176e-19)
(0.00708722 0.00281635 1.68758e-19)
(-0.0413462 -0.144597 2.16663e-19)
(0.00851696 -0.0208483 -2.95352e-18)
(-3.18158e-06 -2.29526e-05 -4.06691e-18)
(0.00801905 -0.00628002 -2.45404e-18)
(0.650567 -0.0918144 -3.82606e-17)
(-0.00654487 -0.00516955 4.39392e-18)
(0.000129902 0.000548943 -2.81415e-18)
(0.000456648 0.000258311 -1.02962e-18)
(0.0118735 -0.0378261 1.15024e-17)
(-0.00183073 -0.00223936 -8.21678e-19)
(0.000359811 -7.7838e-05 2.44405e-18)
(0.00326353 0.00575408 4.20975e-18)
(-0.000538023 -0.00117856 -3.329e-19)
(-8.99832e-05 -0.000759318 2.77572e-20)
(0.00113127 0.00311397 -6.00259e-18)
(-0.000354752 -7.34012e-05 1.06814e-19)
(0.0109047 0.00712336 -9.93232e-19)
(0.000574014 0.000468524 -7.37968e-19)
(0.000381464 3.23587e-05 -1.53703e-18)
(0.28421 -0.034552 -1.08323e-16)
(3.76395e-05 -0.000179732 -3.43947e-20)
(-0.00368523 -0.000884167 -1.3129e-18)
(0.00020948 0.000192796 1.69118e-18)
(0.00251684 0.000335233 -9.89111e-19)
(0.0100919 -0.00507572 -1.31391e-17)
(0.000278955 -0.000105047 -1.68458e-18)
(-0.000789977 -0.00132939 -1.8643e-18)
(0.0157266 -0.196774 -2.56253e-17)
(0.00289768 -0.000133566 -2.34166e-19)
(0.1245 -0.320002 3.02506e-18)
(-0.000897395 -0.00369611 4.42807e-18)
(-2.89916e-07 -2.89144e-05 1.2534e-18)
(-3.63783e-06 -2.19793e-05 6.95222e-19)
(0.0391414 -0.0365835 3.28002e-17)
(0.000821529 0.000115841 -6.93859e-18)
(0.00029734 0.000467354 3.95013e-18)
(0.000170211 0.000111601 -1.54992e-18)
(-0.00220069 -0.00230229 -2.79201e-18)
(0.00542544 0.00376321 -1.19861e-17)
(-0.121327 -0.268074 3.78163e-18)
(0.000706685 0.000123143 -1.50486e-18)
(0.0102766 0.00746368 1.55144e-19)
(-0.0294943 0.00574793 -3.85099e-17)
(-0.00642618 -0.00492883 -2.39648e-19)
(-5.58097e-06 -1.38179e-05 -2.09693e-18)
(0.000235773 0.00047095 -1.445e-18)
(-0.00242901 -0.000936074 6.37447e-19)
(4.75448e-05 0.000743692 -2.67157e-18)
(0.000740114 -0.000252161 -4.33783e-19)
(0.157726 0.274185 -7.62163e-17)
(-0.0880741 0.247176 7.84605e-17)
(0.000212443 0.000117628 6.592e-19)
(0.00124753 -0.00786876 -8.82819e-18)
(-0.0054311 -0.00488457 1.47125e-18)
(-0.0052717 -0.00477372 2.78541e-18)
(0.000427701 0.000918982 -4.5822e-18)
(-0.000163106 -7.1824e-05 -2.41008e-19)
(-0.0390282 -0.110984 -5.09215e-19)
(0.0388124 0.0254571 2.10954e-17)
(-0.0284818 0.0110859 1.23128e-17)
(-0.000638597 -0.000296834 1.05404e-18)
(-0.00247394 -0.00110991 -5.93622e-19)
(-0.00143221 -0.00177378 1.80418e-19)
(0.000280765 -0.000221767 -5.08725e-19)
(0.127455 0.00673583 -2.18383e-16)
(0.00944533 -0.00773994 -8.92212e-18)
(-0.00204701 -0.00240162 -2.49421e-18)
(0.000734327 -0.00157268 5.66611e-19)
(-4.24111e-05 -7.13351e-06 2.91938e-19)
(0.000327249 0.000732094 -1.86263e-18)
(-0.0297307 -0.127115 -2.38289e-19)
(-0.00108162 -0.00628961 -7.21858e-18)
(6.51107e-05 0.000625106 2.22385e-19)
(-0.103648 0.14024 4.40058e-17)
(-0.0217715 0.0272164 7.81529e-18)
(0.0123268 0.0522098 -3.53466e-17)
(0.0229424 0.000490058 -4.48069e-18)
(0.00033463 0.000795155 -6.33539e-19)
(0.000179954 -0.00144182 1.00119e-18)
(0.00428527 -0.00245831 2.09565e-19)
(0.0130028 -0.0170019 -3.23805e-19)
(0.0478039 0.247959 -8.79704e-17)
(-0.28493 -0.134903 2.89683e-17)
(0.00298846 0.00323647 7.99266e-18)
(0.00107086 0.00476522 1.46272e-18)
(4.163e-05 0.000546774 3.57432e-18)
(0.000849322 -0.00402291 2.49072e-18)
(0.000761785 0.00169571 2.25435e-19)
(6.58612e-05 0.000622715 -3.81113e-18)
(0.301836 -0.0327475 4.46596e-17)
(-0.000244544 -5.51604e-05 3.91693e-19)
(0.000743764 -0.000390202 -2.99931e-20)
(-0.0138302 -0.00579049 4.97527e-18)
(4.33917e-05 0.000660253 2.01293e-18)
(-0.134288 0.00329409 -1.24929e-18)
(-0.000858911 -0.003503 2.98441e-18)
(-0.0323295 -0.0390559 4.9083e-18)
(0.00874635 -0.000965612 -2.44728e-18)
(-1.29617e-05 0.000277944 4.46912e-19)
(-0.00294491 -0.00309725 1.50444e-18)
(0.00214937 -0.00646792 -2.58061e-18)
(-0.0042761 -0.00847372 1.81354e-19)
(0.0227638 -0.000529178 2.17741e-17)
(0.01542 0.0209604 3.76672e-18)
(3.55866e-06 -8.58753e-05 -4.35883e-18)
(-0.00122022 -0.0025423 -4.07107e-19)
(0.0027085 -0.00262346 9.28646e-19)
(0.00116214 -0.00093427 8.1761e-20)
(0.00017259 4.939e-05 -2.89158e-18)
(0.000714123 -0.0023649 2.62347e-18)
(4.75301e-05 0.00127382 2.01856e-18)
(0.00325738 0.00326103 -7.98822e-20)
(0.00754554 -0.0207381 2.12121e-17)
(0.00375508 0.00990365 -1.90265e-17)
(4.965e-05 0.000725218 7.91569e-18)
(0.00305386 -0.000113672 4.41522e-19)
(0.00017627 0.000102184 1.16817e-18)
(0.000468205 0.000618346 2.50391e-18)
(0.000245335 0.0209091 7.09855e-18)
(0.00025567 -0.000113682 -1.74711e-18)
(0.00377856 -0.00186369 -1.6721e-18)
(-0.0753807 -0.0394946 5.77472e-19)
(-0.000342139 -6.82784e-05 -3.76562e-20)
(0.0144005 -0.0168975 1.85598e-17)
(0.0165001 0.00816352 1.36813e-18)
(0.000152663 0.00108522 4.89312e-18)
(-0.163547 0.198355 -4.35491e-17)
(-0.00590265 -0.0116487 -5.05794e-18)
(4.54837e-05 0.000756741 1.93503e-18)
(-0.00201352 -0.00672129 -7.51936e-17)
(-0.00100652 -0.00179214 7.72352e-19)
(-2.82007e-06 -2.71617e-05 -2.79022e-18)
(0.000578847 0.000526332 -3.72923e-18)
(0.000203067 0.000869513 6.46768e-19)
(2.05836e-06 -3.3227e-05 -3.03376e-18)
(0.00176903 -0.00430509 -2.92025e-19)
(0.000329604 0.000840097 6.00924e-18)
(-0.0187794 0.0325536 5.15249e-17)
(0.00290122 0.00105624 3.95972e-20)
(0.000246016 0.000520527 -1.14666e-18)
(0.00162946 -0.00212839 -2.27973e-18)
(0.0101377 -0.00571169 2.99695e-18)
(-0.00226778 -0.0101301 8.47074e-19)
(0.000120817 0.000873432 -5.01886e-18)
(-0.00369903 -0.00380448 -9.86659e-19)
(0.000223671 -0.00146255 -3.19971e-19)
(-0.00573573 -0.00639937 4.91591e-18)
(0.000336029 0.000668109 3.69847e-18)
(0.00897282 -0.000537103 -4.2047e-19)
(-0.000575615 -0.000412802 7.38804e-19)
(0.000648926 0.00336149 3.88691e-18)
(-0.000816512 0.000244209 2.10523e-20)
(0.000452061 -0.000111455 7.62002e-19)
(0.112561 0.185653 -8.53065e-18)
(-0.000271768 -0.000532855 -1.23885e-19)
(0.00130707 0.0200065 -4.31185e-18)
(0.000117179 0.000644793 4.57515e-18)
(-0.00266299 -0.00261847 -3.60158e-19)
(1.14472e-05 -0.000103797 4.45229e-19)
(-0.00427074 -0.00883288 3.09514e-18)
(0.000206878 9.67993e-05 8.32544e-19)
(-0.00591575 -0.0122759 2.01714e-17)
(0.00140767 -0.00186349 6.94442e-20)
(-0.00296829 -0.012035 3.22425e-17)
(4.96775e-07 -2.83461e-05 9.23819e-19)
(-0.238018 -0.200726 1.7516e-17)
(-0.00102387 0.000411442 -4.47652e-19)
(0.00329171 0.00193975 5.74547e-20)
(-1.25631e-05 -7.64724e-05 4.28758e-18)
(0.000424672 0.000655403 -8.36675e-19)
(0.000446388 0.000113104 -4.80686e-19)
(0.00198725 -0.00416243 1.92737e-18)
(6.93291e-05 0.00126613 -1.39302e-18)
(-0.00128631 0.0138182 6.31577e-17)
(-0.173796 -0.0687634 9.52082e-17)
(-0.133132 0.0239192 -2.83603e-18)
(-0.00180192 -0.00464465 -3.69231e-18)
(0.00890844 0.00735898 -4.90266e-19)
(0.000841702 -0.000134694 2.52025e-19)
(0.0124629 0.00599859 5.72955e-18)
(-0.0150366 -0.00831298 5.57002e-18)
(0.00025495 0.000331266 -2.11831e-19)
(0.00340861 0.00542432 2.29227e-18)
(0.0149261 0.0228593 6.93281e-19)
(0.0619967 0.243878 2.60878e-17)
(0.0190424 0.00438707 -2.48866e-18)
(0.278942 -0.171954 -3.89807e-17)
(0.00218107 -0.00691185 -2.11994e-18)
(0.00205011 0.000463906 8.27356e-19)
(8.77283e-06 0.000324156 4.19777e-19)
(-0.00352325 -0.00437356 3.27432e-18)
(0.00146112 -0.00440575 -4.14978e-18)
(-0.00525162 -0.00745905 5.70953e-19)
(-0.000256313 -0.000184539 3.04396e-20)
(0.00297178 -0.00291799 -4.58593e-18)
(7.69828e-05 -0.0265392 -2.83716e-17)
(-2.67204e-06 -7.31806e-06 1.68291e-18)
(0.000446503 0.000596932 3.32881e-19)
(-0.00385617 -0.00394291 2.21659e-18)
(0.101839 0.214002 -8.90014e-17)
(0.00322038 0.00180742 1.89684e-18)
(0.00761923 -0.00591384 5.52581e-19)
(0.0060803 -0.00492035 2.38246e-19)
(9.9626e-06 9.57212e-05 -1.95761e-18)
(-0.180266 -0.295859 1.00299e-17)
(-0.000236157 -0.000285647 -4.45653e-20)
(0.000498685 -0.00050494 2.92045e-19)
(0.0026855 -0.000554693 3.38197e-19)
(-0.000483699 -0.00122542 1.83132e-18)
(-0.210088 -0.119022 -1.6684e-16)
(-0.0189957 -0.00476304 1.79794e-18)
(0.0902623 0.217146 7.97562e-17)
(0.00012873 2.34597e-05 1.32615e-19)
(0.260478 0.0600493 -1.37097e-16)
(-0.231687 0.00822343 -8.0455e-17)
(0.0508331 -0.0231129 -1.61196e-17)
(-0.00532986 -0.00688008 -2.00997e-19)
(-0.018425 -0.0109306 -8.56291e-18)
(0.00272094 -0.0220319 -3.59995e-17)
(0.0151281 0.00381766 7.33711e-18)
(0.000743242 0.000505514 -5.29703e-18)
(0.000989207 -0.000222943 2.31441e-18)
(0.00341612 0.00603256 2.01958e-17)
(-0.0493697 -0.0959724 -4.3349e-17)
(0.000829508 -0.000118929 2.2067e-19)
(0.00737288 0.00317901 -6.61893e-19)
(0.288886 -0.12818 -7.13416e-18)
(0.000635522 0.000502313 1.96587e-18)
(0.000451144 -0.000110341 2.21561e-18)
(0.00126631 -0.00089731 4.338e-19)
(0.00326374 0.000645952 1.32916e-18)
(0.000450074 0.000104399 4.88247e-18)
(-0.00203541 -0.0010442 -1.89163e-18)
(0.0413266 -0.0313958 -1.63043e-17)
(-0.201451 -0.0701646 -3.12609e-17)
(-0.001925 -0.00102207 1.87186e-18)
(0.000371083 0.000610813 2.45178e-18)
(0.0219482 -0.142447 -5.27423e-17)
(-0.0852819 -0.548103 1.62277e-17)
(0.000877546 -0.000171026 -1.27993e-18)
(0.000124334 0.000492675 3.44304e-18)
(9.97737e-05 0.000129078 -2.27798e-18)
(0.000738006 -5.34005e-06 -6.60628e-19)
(0.121183 -0.105423 2.00205e-17)
(-0.0187575 -0.00235436 2.10467e-18)
(0.0188648 0.0462341 2.79231e-17)
(0.00279919 0.00101098 -3.13914e-19)
(0.0004606 -9.02672e-05 -3.58195e-18)
(-0.00091293 -0.00105409 -1.82045e-18)
(0.000502666 0.00334676 2.7534e-18)
(0.000168937 0.000753524 -2.51377e-18)
(-0.00498519 -0.00777313 5.21752e-18)
(0.00192308 0.00240399 3.35798e-19)
(0.120972 0.151149 7.0318e-17)
(0.000361936 0.000827636 1.65259e-18)
(0.000179111 4.62902e-05 3.08112e-18)
(0.0164508 -0.00181919 -1.57073e-18)
(0.00078278 -0.000156467 -2.0932e-19)
(-0.00566678 -0.00506948 -2.95115e-18)
(0.00808343 0.0169439 1.05998e-18)
(-0.00278303 -0.0029735 -3.73633e-18)
(-0.134376 -0.0525997 7.01269e-17)
(0.0870622 0.221753 2.52812e-17)
(0.00207306 0.000569184 8.06328e-19)
(0.00075524 -0.000322983 -7.40641e-19)
(0.168085 0.0183842 2.72087e-17)
(0.206326 -0.0586008 1.34341e-17)
(0.011735 0.00396028 -4.51518e-18)
(-0.000950468 -0.00179231 -3.10031e-18)
(0.040017 -0.12534 -4.35892e-18)
(-0.00319406 0.0210134 9.18465e-18)
(0.00151489 0.00450021 -1.11331e-17)
(0.000711545 0.000446603 -1.63555e-17)
(0.000178411 7.05127e-05 -6.63682e-19)
(0.000257754 -0.000133417 1.21388e-18)
(0.0330251 0.0538124 -4.70909e-18)
(-0.00158768 -0.00454294 8.31481e-19)
(0.00177976 0.017705 6.58514e-18)
(-4.01906e-06 -2.82296e-05 -6.22282e-19)
(0.0462846 0.119302 -1.33674e-17)
(0.021991 -0.153035 -3.30271e-17)
(0.000209097 0.000521241 -4.63235e-18)
(0.000372166 0.000837517 4.22548e-18)
(-0.00130107 0.0137611 -5.27355e-18)
(9.30126e-05 0.000827071 5.22642e-18)
(-2.55186e-06 -8.61625e-05 3.56141e-19)
(0.00566319 -0.000105228 1.16286e-18)
(0.0918972 -0.123548 1.10743e-16)
(0.0965018 0.241029 4.5957e-17)
(0.0796487 0.174443 -5.73186e-17)
(-0.00347326 -0.000831319 6.61412e-19)
(-0.0115549 -0.0151733 6.65297e-18)
(0.0143527 0.00311827 6.45752e-18)
(-0.000150774 -0.00026293 1.61007e-19)
(2.45476e-05 -7.45034e-06 4.13472e-19)
(3.98264e-05 0.0012996 3.95179e-19)
(0.0389601 0.050444 -3.96082e-19)
(4.33466e-05 0.000464186 1.87592e-18)
(0.000277314 0.000459949 1.80346e-18)
(-0.0122198 -0.0142422 -1.57654e-17)
(0.000513757 0.000830505 -7.33451e-18)
(0.0113462 -0.0219873 -2.53112e-17)
(0.000129695 1.8922e-05 5.81193e-19)
(9.33412e-05 0.000109873 -4.17805e-18)
(-0.000104379 -3.83037e-05 -3.67687e-19)
(4.49665e-05 0.000963953 1.44574e-18)
(0.00510685 -0.042578 1.51792e-17)
(6.05557e-05 0.000533037 -2.37162e-18)
(0.00113055 -2.17722e-05 -8.14942e-19)
(-0.00341291 -0.0131045 -1.05091e-17)
(0.0126768 0.0142339 -6.68934e-18)
(-0.00939142 0.0303461 1.54709e-19)
(4.63176e-05 0.000714479 -1.33712e-18)
(0.00191955 -0.0262201 -2.88107e-18)
(-0.119841 -0.572469 -3.57014e-17)
(0.0949675 -0.339267 -5.2624e-18)
(0.00247419 0.00235012 8.48296e-18)
(-0.299668 0.0927108 -7.55019e-17)
(0.0254892 -0.030202 1.14145e-16)
(0.000591405 0.000462275 -2.27121e-18)
(-0.000288006 -2.01299e-05 1.48366e-19)
(0.00270969 0.00132687 -1.06277e-18)
(0.00157317 0.00333423 -2.64827e-18)