/*--------------------------------*- C++ -*----------------------------------*\
| =========                 |                                                 |
| \\      /  F ield         | OpenFOAM: The Open Source CFD Toolbox           |
|  \\    /   O peration     | Version:  v2012                                 |
|   \\  /    A nd           | Website:  www.openfoam.com                      |
|    \\/     M anipulation  |                                                 |
\*---------------------------------------------------------------------------*/
FoamFile
{
    version     2.0;
    format      ascii;
    class       volScalarField;
    location    "450";
    object      ddt0(k);
}
// * * * * * * * * * * * * * * * * * * * * * * * * * * * * * * * * * * * * * //

dimensions      [0 2 -3 0 0 0 0];


internalField   nonuniform List<scalar> 
10042
(
-1.02576e-07
-2.14513e-08
-4.31653e-07
-2.1792e-07
-0.0035599
-1.64818e-07
0.00954521
0.0153034
9.76856e-08
-1.53786e-07
-0.00136715
-1.43933e-07
-2.29143e-07
-4.46591e-07
7.7657e-09
1.8844e-07
1.59191e-07
-6.12476e-08
-7.31792e-08
-3.55073e-07
4.15128e-07
-1.66601e-05
-3.16541e-07
-5.38659e-07
-3.98409e-08
1.72758e-07
1.0369e-07
-8.51732e-08
1.93867e-07
-1.28756e-07
-1.59786e-08
2.2019e-05
-2.93165e-07
-2.32503e-08
-2.5327e-07
-5.72538e-07
1.28395e-07
4.91967e-07
-1.2688e-07
-2.42831e-07
-2.5122e-07
-6.53625e-08
0.00743965
-2.83685e-07
-0.00362609
-3.49148e-07
-2.04618e-07
-6.87682e-07
-3.65087e-08
4.58828e-07
1.15051e-08
-2.77743e-07
-2.19544e-07
-9.82264e-08
1.24521e-07
-3.60334e-09
2.02025e-07
-2.36446e-07
-8.13071e-08
-3.14221e-07
1.87037e-08
1.42846e-07
-2.5705e-07
-3.89319e-07
2.32154e-08
-1.00951e-07
-1.05832e-07
5.90964e-08
-0.00447334
-4.47594e-10
-6.94329e-08
-4.43255e-07
-3.01019e-07
-2.58357e-08
-3.13475e-07
-8.54468e-07
-0.00352478
-5.11326e-08
-6.24835e-08
0.00331022
8.48061e-08
-0.00400946
-2.81056e-07
3.15686e-08
-1.48552e-07
-5.68039e-08
-3.15367e-07
-9.20943e-07
-4.00691e-07
-1.64433e-07
-6.58527e-08
-0.00455842
-8.38396e-08
-2.27457e-07
-1.39993e-07
3.49208e-08
-3.10354e-08
1.96612e-09
-2.13491e-07
1.70549e-07
2.51266e-11
-1.97901e-07
0.0107038
-2.08432e-07
1.53236e-08
-8.23828e-08
-3.36796e-07
-6.47372e-08
3.43694e-07
-1.62354e-07
-8.31185e-08
7.36292e-08
-1.8632e-07
-0.00388013
6.35609e-09
7.27215e-08
-5.79554e-08
-5.52257e-08
5.96213e-08
-0.000532578
-4.50734e-07
0.16418
-1.20685e-07
2.44434e-08
-2.67865e-07
-1.84987e-07
0.000112281
-2.08577e-07
-1.24674e-07
-3.01189e-08
-7.09124e-08
-6.02111e-08
-0.00116872
-1.46948e-06
1.39117e-07
-2.28841e-07
-0.000501778
-2.49962e-07
-8.85241e-07
1.20348e-06
-1.43914e-07
-5.34882e-08
-1.24544e-07
-8.25673e-07
-4.13212e-07
2.15487e-08
-2.76237e-07
-9.31482e-08
1.11968e-07
-6.00197e-08
-4.77639e-08
-8.5747e-08
-0.00221293
-0.000801587
4.16842e-07
-3.65482e-07
-7.17908e-08
1.70967e-07
-1.56879e-07
-6.75638e-05
-0.00158464
-1.11263e-06
-6.44342e-08
-3.90022e-08
-3.21504e-07
-7.07724e-08
-5.21498e-08
-4.76934e-05
-4.80044e-05
-0.000842798
-2.0949e-07
-5.10389e-07
-0.00545471
-1.34136e-06
-9.91876e-08
0.0146073
0.00255577
-2.38779e-07
-9.40716e-08
-1.55106e-07
-6.99658e-08
7.9708e-05
-2.91483e-07
-2.0937e-07
-6.95448e-08
-0.000309856
-1.69038e-06
-4.80028e-08
-0.0020091
5.70269e-08
-1.84101e-05
-2.16809e-07
-0.00194606
-0.00223407
-8.31275e-07
-0.115322
6.93152e-08
-2.53665e-07
-3.64806e-07
-6.5068e-08
-9.79389e-08
1.59804e-08
-1.11342e-07
-1.31169e-06
-1.08968e-07
7.37863e-08
-7.88097e-06
4.81712e-07
-1.33479e-07
-7.04828e-07
5.21424e-05
-7.56527e-09
-3.77557e-08
-5.87027e-06
-7.85989e-08
-2.14243e-06
-3.11501e-07
-3.52044e-07
-1.44711e-07
-1.41648e-07
-2.09051e-07
-4.38291e-08
8.64142e-07
5.7613e-07
-2.4378e-07
2.21626e-07
0.000137453
8.02056e-08
-1.50873e-06
-3.92333e-08
8.38783e-08
1.05322e-06
-5.1587e-07
-4.68548e-08
-5.61325e-07
-5.99292e-08
2.32482e-07
-2.59191e-07
3.6246e-08
5.53998e-07
1.26864e-08
-2.12477e-07
-2.23471e-07
-2.99531e-07
3.02068e-07
-1.0557e-07
-3.77209e-07
1.27261e-08
-2.44065e-07
-3.80267e-08
4.66471e-09
1.59754e-08
-2.54506e-07
1.15934e-05
-1.13686e-06
-0.00169556
-7.17948e-08
-9.97491e-08
7.80294e-10
-4.04851e-07
0.0220142
-8.50564e-08
-3.12492e-07
-2.62999e-07
-6.52025e-08
1.59833e-07
7.38766e-05
-1.8759e-07
-1.83829e-07
-7.4442e-07
-6.48553e-08
-9.61158e-08
-3.56927e-07
-5.05963e-08
-8.15145e-07
1.11784e-07
5.2987e-07
1.24024e-07
-5.11307e-07
-3.81203e-07
-2.66939e-07
-3.8586e-07
1.58287e-07
-0.00133727
-1.59109e-07
-2.51276e-07
0.0223964
-4.15376e-07
-2.69834e-07
-1.4309e-07
-2.20339e-07
0.0153142
-5.75401e-07
-1.04241e-06
-3.54343e-08
-3.36661e-07
7.06541e-08
6.07681e-08
-0.000163767
-1.18761e-07
2.33641e-07
-1.85685e-07
-2.5982e-07
6.07534e-07
-8.51624e-08
-7.519e-08
-0.00274791
-3.71183e-07
0.00861172
4.82766e-07
-4.28569e-09
9.41452e-08
-0.000179887
-4.3365e-07
3.31553e-05
0.00259962
-6.3534e-07
-1.69105e-07
9.32921e-09
-1.60485e-07
2.2047e-07
-1.09812e-09
-1.55185e-07
-2.12047e-08
-3.5733e-07
-2.51774e-07
4.4757e-08
1.24143e-07
-1.85859e-07
-2.07009e-07
-1.86203e-07
-0.00108417
2.94406e-07
4.18027e-07
-2.11683e-07
-4.36392e-07
-2.80167e-07
-8.19951e-07
-3.2185e-08
0.001329
6.42084e-07
-2.27904e-07
-2.03716e-07
-4.23807e-07
-1.40408e-08
-8.51204e-08
8.58849e-05
-3.36453e-07
-2.85528e-08
-1.08475e-06
-1.10713e-07
-1.93019e-07
2.87774e-08
-9.46645e-07
-3.91049e-07
-2.35935e-07
-1.65585e-08
-1.78504e-07
-1.77158e-07
-1.63765e-07
0.00374282
-3.03987e-07
-2.24226e-07
-2.50696e-07
-5.33187e-07
-2.883e-07
-3.97604e-07
-1.21684e-07
-2.377e-05
1.07449e-07
-9.40469e-08
-2.2051e-07
-2.91291e-11
1.27025e-07
8.02021e-07
-1.87576e-07
2.61421e-07
-0.000517133
-2.11073e-07
0.0276507
-2.56563e-05
-3.43903e-08
0.0127054
-0.00153358
-2.07266e-07
-1.65308e-06
3.66671e-07
3.57239e-07
-2.75426e-10
-2.04653e-07
-2.34049e-05
-7.85903e-08
-1.09442e-07
-1.52521e-05
-1.78847e-07
6.72363e-07
-7.94496e-08
1.42004e-06
4.5476e-08
-2.17009e-07
1.29839e-05
-4.28265e-07
-7.07984e-07
1.00961e-07
-0.000117636
-4.39906e-08
-1.06007e-07
-1.13469e-09
2.14678e-07
-1.95549e-07
-2.13582e-07
0.00998407
-0.0461243
-2.04775e-07
-0.00144883
-1.10887e-07
-1.04005e-07
-8.78682e-06
-5.72551e-07
0.0100722
-6.75573e-07
4.17508e-08
-3.28471e-07
-3.13662e-07
-8.83337e-07
-2.44426e-07
-2.16147e-07
-1.1426e-07
-0.00158034
-8.07846e-08
-0.00195534
-5.05855e-08
-2.4436e-07
7.40906e-08
-1.84683e-05
-2.0014e-07
4.28095e-08
-5.00254e-08
-1.78722e-07
0.000199886
2.45903e-07
1.13484e-07
-1.79434e-07
-0.000123179
1.74553e-07
2.05705e-07
5.87297e-08
1.63895e-07
0.000333585
0.0117677
1.86074e-07
1.18587e-08
1.45594e-07
6.85884e-08
2.91299e-07
2.57451e-08
-0.000246196
-2.1975e-08
-1.2022e-08
-7.38096e-10
0.00393831
-2.41782e-07
-1.141e-07
-2.42408e-07
0.0010112
6.89496e-07
7.33646e-08
-1.63901e-07
-1.61367e-06
-3.00802e-07
-7.23615e-08
-8.75549e-08
-6.31757e-08
-3.40719e-07
-3.71655e-08
-1.92102e-07
-1.50545e-07
-3.46768e-07
-2.13793e-07
-0.00115756
-3.35106e-07
-3.47248e-07
-1.7951e-07
-2.63157e-07
-1.48439e-07
2.47366e-07
-2.48716e-07
8.24183e-05
-7.77001e-08
-0.00168014
-1.17509e-07
-2.62951e-08
4.29611e-08
-4.62283e-07
-6.16895e-07
-6.74915e-09
1.75541e-07
-3.05882e-08
-8.08164e-08
0.00702887
-3.20393e-08
-1.42423e-07
-2.02883e-06
6.6755e-07
-1.28174e-07
5.36757e-08
-4.98887e-07
-7.66883e-08
3.64404e-07
4.42648e-05
-0.000431758
-8.11534e-08
-1.92168e-07
3.62763e-07
5.48035e-07
-1.78095e-07
-1.77003e-07
-7.29314e-05
-4.9574e-07
4.13288e-06
-7.8901e-08
-4.86517e-07
-6.3693e-07
-3.66566e-07
-0.0039307
-2.61185e-07
-4.43837e-08
1.57843e-07
-1.18063e-07
-3.00546e-07
0.00178942
2.16839e-07
-1.80473e-07
-8.15336e-05
7.08442e-06
-3.08041e-06
-6.1202e-08
2.91401e-07
1.25921e-07
3.88116e-07
-1.78163e-07
-0.00245797
-0.00278357
-1.62674e-07
5.87747e-08
-9.41866e-08
-4.71853e-08
-1.67248e-07
-1.70294e-07
-0.0015887
-4.16322e-07
4.66222e-07
-3.85814e-07
7.99532e-08
-0.000341408
-1.51958e-07
-1.63443e-06
-1.68743e-07
4.5009e-10
-1.3417e-08
-2.60303e-07
1.18118e-06
-9.92677e-08
-8.58543e-08
-3.90376e-07
4.84896e-07
-2.5575e-07
-2.04352e-08
-1.85111e-07
-1.54628e-07
6.57904e-08
-1.71789e-07
-2.33789e-07
-9.883e-08
-2.20454e-07
-7.46575e-08
2.87388e-08
-1.62709e-07
-2.25136e-06
1.73944e-07
7.98382e-08
-4.28863e-06
-1.76079e-07
-3.29819e-07
-6.37121e-09
-7.71034e-08
-0.000232073
-2.71884e-07
2.07702e-07
-1.47336e-06
-4.95158e-07
-1.47057e-07
-1.19417e-07
1.43962e-07
-8.3366e-11
-5.03112e-08
-2.65969e-07
-3.55228e-05
-9.23927e-08
1.67147e-07
8.15331e-08
-1.86126e-07
-7.13983e-08
1.02665e-07
2.41527e-07
1.33727e-07
5.96835e-07
-6.04426e-08
-2.81451e-07
3.23497e-07
-3.88661e-08
-3.04546e-07
-3.49906e-07
-0.000660334
1.18142e-08
-4.28869e-07
1.33699e-08
7.55463e-08
-1.20881e-07
2.20458e-07
-1.72822e-07
-2.13901e-07
-1.52941e-07
-3.33386e-06
-1.94527e-08
0.0170573
-6.6247e-08
-1.71827e-07
2.85404e-07
-3.10588e-07
-4.62645e-07
-6.53291e-08
3.76736e-08
-2.71819e-08
-0.000405663
-0.000203578
2.22172e-07
-1.27423e-07
-2.28527e-07
-4.04484e-08
-4.70527e-07
-8.25698e-08
-6.29595e-08
-8.91504e-08
-0.00277145
-5.00351e-08
-0.00144918
-2.07816e-07
-4.91971e-08
8.43799e-09
1.00084e-08
2.31374e-08
1.40475e-06
-7.6807e-07
-2.54852e-07
-1.06618e-06
-7.64441e-08
-7.91613e-08
2.29074e-07
-0.00583983
-2.03199e-07
-1.2742e-07
4.81775e-07
-1.74733e-07
0.00254195
-4.13991e-07
-4.23134e-07
-1.27535e-08
-4.29336e-08
-0.000237115
-4.48924e-07
-0.00501028
9.30821e-08
-0.0028466
0.000545716
-0.000521083
1.43165e-06
-5.06801e-07
-1.42347e-06
-2.71205e-08
-3.45258e-07
1.03562e-07
-9.29579e-08
-0.000303786
-2.27114e-07
-6.38897e-08
-0.00437409
-4.16366e-07
-3.17151e-07
-6.46598e-08
-1.34165e-07
-4.50016e-07
-4.07673e-07
-3.5448e-07
0.0478994
-3.13519e-07
-3.71997e-07
-0.00117447
-0.000567369
-1.84062e-07
7.81929e-08
-7.75368e-09
1.77179e-07
-7.39985e-06
-4.18609e-07
2.93771e-06
-2.43702e-08
-4.62229e-07
1.03832e-07
-3.45282e-08
6.03762e-09
4.07571e-07
-2.06611e-07
-0.00396755
8.82366e-08
-3.56674e-07
-5.13496e-08
9.19553e-08
7.92755e-07
-5.33272e-08
-6.27564e-08
-0.000470086
-0.00402322
-1.28042e-07
3.72621e-07
0.00695392
-0.000841752
1.29866e-08
-5.42707e-07
0.0044345
5.98413e-08
-3.75649e-08
-3.50471e-07
-1.87333e-07
3.45596e-07
-5.87217e-07
2.09542e-07
4.65453e-07
-8.71527e-08
-0.00215947
-3.20894e-05
1.27686e-07
-8.37104e-08
-9.98857e-08
4.45753e-07
-1.32139e-07
-1.60165e-07
-0.00246788
-0.00218313
0.000451227
-3.62939e-07
-5.80493e-07
1.71204e-08
-1.22798e-07
4.8651e-08
1.91874e-07
-4.29546e-06
-5.3286e-08
7.72804e-08
-5.24771e-07
-1.65949e-07
-1.79751e-07
1.42591e-07
4.69977e-07
-5.6799e-08
-2.34859e-07
-1.64843e-06
1.0244e-07
7.53229e-09
-2.68163e-07
-3.31378e-08
-8.93816e-08
2.59135e-07
-4.12985e-07
0.000432567
-0.000725244
-5.52904e-08
-0.000224276
0.000431868
-4.42139e-07
-2.03429e-07
-1.32575e-07
-4.5818e-08
-0.000437846
7.52184e-08
-7.26228e-08
-1.0675e-07
-0.000906247
-3.87416e-08
-3.32414e-07
1.03321e-07
1.0791e-07
-2.35245e-07
-3.40263e-07
-3.69916e-07
5.90417e-07
-1.45558e-07
1.90585e-07
1.50651e-07
5.51225e-07
-2.47253e-07
-3.91133e-08
-6.04514e-08
-2.0395e-07
-9.77358e-07
1.26781e-07
-2.24237e-07
-4.31437e-08
2.87177e-07
-2.40825e-06
-4.58864e-11
-2.72472e-06
-1.13095e-07
-0.00109763
-3.11198e-07
-1.85814e-07
6.21857e-07
-4.05058e-07
-8.69704e-08
-1.9003e-07
-0.0029203
0.017054
5.70761e-08
-2.81331e-07
0.000175387
2.29699e-07
-1.32159e-07
6.06526e-08
-5.91035e-08
-3.73299e-07
8.11178e-12
-1.04278e-10
-9.64495e-08
-1.07134e-07
-3.87938e-07
-1.40848e-07
-6.64763e-08
-0.00157352
7.71816e-08
-4.0292e-06
2.24719e-07
-3.15099e-07
9.63261e-09
-0.00390959
2.46285e-07
-0.00347301
-5.75535e-09
4.57491e-07
-1.63756e-08
-4.29303e-08
-4.37009e-07
-1.71795e-06
-6.81512e-08
6.71909e-07
-0.00140825
-1.04011e-07
0.000629331
4.86928e-07
1.12618e-07
-2.87311e-08
7.67871e-08
-0.00357284
-2.78727e-08
-1.27157e-07
-3.59371e-08
7.5328e-08
-1.18012e-07
-1.14014e-07
-1.09136e-07
-8.2756e-08
1.15472e-06
-5.98305e-07
-1.62444e-07
1.95413e-07
-3.89254e-07
-4.38733e-07
-4.72323e-08
-1.2098e-07
2.87541e-07
6.45303e-07
-8.90607e-08
-1.66195e-07
-1.48038e-07
3.78579e-09
-0.00133732
-5.77571e-08
0.00179031
-9.06807e-08
-0.00205344
-2.57699e-07
2.86093e-07
-9.45172e-05
-5.70948e-08
3.16143e-06
0.00213442
-1.84165e-07
-8.60834e-08
-4.05228e-07
-1.85939e-07
-8.79133e-07
3.25195e-08
-0.00163825
1.4849e-08
-0.0428873
0.0137622
5.02767e-07
-1.713e-07
-0.000432246
-0.00112489
-4.29871e-08
1.30176e-07
4.48344e-07
2.34414e-07
-7.62461e-08
-4.47946e-08
-1.89687e-07
-3.10582e-05
1.83819e-08
-1.77339e-08
-9.355e-08
-2.65233e-06
-4.15215e-08
-2.17087e-07
-5.22771e-08
-6.30299e-07
-1.04621e-07
-1.31982e-07
-0.00143457
-1.91847e-07
-2.16839e-07
9.54933e-05
-2.23085e-07
-2.7037e-07
-0.000119071
0.00497497
4.08914e-05
-2.96556e-07
-2.46428e-07
-3.51071e-05
5.89135e-08
1.64633e-07
1.42639e-07
5.60995e-07
3.25294e-07
1.96567e-07
-1.65669e-08
-9.6015e-08
-6.72114e-07
-2.404e-07
-2.67833e-07
1.26741e-07
2.49683e-07
-1.24883e-07
6.87003e-08
-1.10789e-06
-2.1176e-07
-1.21551e-07
2.97287e-07
-2.3636e-09
1.72627e-07
-2.72156e-08
-0.00250263
3.06005e-07
-1.98003e-07
-2.46033e-07
-5.14823e-08
-0.00287877
4.29956e-08
1.61129e-07
-6.01191e-08
-3.12369e-07
0.00101643
6.15471e-07
-5.59115e-07
9.70224e-08
-7.5283e-08
-8.24482e-08
-1.58762e-07
-1.71353e-07
-2.81396e-07
2.66146e-07
-1.39722e-08
-1.94777e-07
0.0257828
-2.81786e-07
-1.40651e-07
-1.59823e-07
-0.00633942
-3.90552e-08
-1.02739e-06
-2.88442e-07
1.56008e-05
-3.0283e-08
-4.6369e-07
2.71381e-07
-3.72809e-07
-6.0244e-07
-1.82679e-07
3.76578e-07
2.85177e-08
2.48594e-07
-1.63239e-07
0.00194626
-1.58107e-07
7.37791e-08
-8.00823e-08
-1.57364e-07
-3.16825e-07
0.0203824
-2.59694e-07
-2.11559e-07
4.2942e-08
-3.49291e-06
0.00218714
9.76691e-08
-3.85908e-07
-6.88174e-07
3.17319e-08
3.46914e-07
1.29864e-07
-7.08806e-07
-4.38983e-07
-2.65726e-08
-0.000188933
-2.6786e-07
3.72004e-07
0.000689287
-3.71562e-07
-7.12684e-07
-2.18155e-08
-1.89274e-07
6.79023e-09
-3.50692e-07
-1.55504e-07
-3.74665e-07
-9.79403e-08
-0.00568175
-2.56734e-07
-2.22433e-07
-5.54278e-09
-2.75747e-07
-0.000202202
-0.00420023
-5.56842e-08
-3.89053e-08
-5.13215e-06
-1.04716e-07
0.00269256
4.88996e-07
-2.58487e-07
-7.34592e-08
-0.000121569
-5.92146e-08
-2.3085e-07
-1.6106e-07
3.13684e-07
0.00134166
-2.30235e-07
-2.42361e-07
-2.19542e-07
-1.12146e-07
-1.9465e-07
-3.48548e-07
-1.55227e-07
-8.99552e-08
-9.87194e-08
-0.002885
-0.00129865
-7.51643e-07
2.34527e-08
2.05074e-07
0.00391287
-2.30216e-07
0.000183712
2.15579e-08
-1.32806e-07
-6.22594e-07
-6.81959e-08
9.43764e-08
7.79898e-08
3.55225e-07
-1.28969e-07
0.0032706
-1.04445e-06
1.07562e-07
3.5445e-07
2.23941e-07
-5.30501e-08
-2.14516e-07
3.34898e-08
-2.62754e-07
-1.61165e-07
-3.28146e-08
4.8467e-07
8.15842e-08
6.1845e-08
-3.41545e-08
1.67652e-07
-6.9413e-07
-9.89395e-08
-3.41251e-07
-7.70592e-09
3.17902e-08
-3.47044e-07
-5.70259e-08
-5.20534e-08
1.09175e-07
3.61468e-07
-5.75464e-07
-1.98222e-07
-8.92018e-08
-7.15623e-08
-4.89427e-08
-0.000112241
4.44835e-07
-8.71271e-08
-0.000326277
6.47844e-08
3.60737e-07
-5.84309e-07
4.68759e-08
8.72559e-07
-7.60396e-05
4.79429e-07
-1.40217e-06
3.20842e-07
-3.77097e-07
-1.13395e-07
-6.57148e-08
9.56489e-08
-1.74929e-07
-4.14776e-06
-2.48433e-08
-3.48703e-07
1.53458e-08
-1.1878e-07
-4.06457e-07
4.4192e-07
-1.21705e-07
-3.71826e-09
-6.58136e-08
-1.51387e-05
-4.28232e-07
3.14213e-07
-0.00177098
-1.21765e-07
1.05774e-07
4.8903e-07
1.39576e-07
-2.9925e-08
0.00750413
-2.13373e-07
-2.65969e-07
-3.73819e-07
-9.59085e-08
2.13789e-07
-2.47597e-08
1.1e-07
0.00379952
1.45437e-07
-1.91813e-07
-5.51483e-08
-2.31864e-07
-1.39023e-08
-6.16389e-08
-0.00241794
-2.25589e-07
-3.62651e-07
-2.02162e-07
-7.37541e-07
4.27707e-08
-2.40671e-07
8.79362e-08
3.91594e-08
-4.06254e-08
-5.48627e-07
7.10678e-09
3.34538e-07
-4.76591e-07
-6.25262e-08
-1.02866e-07
-3.52384e-07
-3.9414e-08
-1.88784e-07
-6.2656e-07
-1.17338e-07
-5.82177e-08
-1.41689e-07
-0.00241184
2.79974e-08
-3.73656e-07
2.60394e-07
-6.88439e-08
-1.07943e-07
3.92479e-09
0.00111984
-0.00122788
0.00634153
-1.19436e-07
-1.79627e-08
-5.54461e-08
-3.79808e-07
-1.43792e-07
-6.65556e-08
5.40498e-05
-3.55178e-07
-0.00216693
-5.88762e-07
-6.49076e-06
-0.000177974
-9.68616e-08
-9.99044e-08
-4.05949e-07
-3.92301e-08
-0.00259365
-6.90381e-08
-3.984e-08
-2.68331e-07
-2.81737e-07
4.97037e-07
-0.00246342
-0.00352109
1.38446e-07
-0.000222163
3.59334e-06
-6.83767e-06
-3.18616e-07
-1.31843e-07
-2.61738e-07
-0.00238631
-1.78102e-07
0.00949765
-0.00103019
1.32072e-07
-3.01922e-07
-8.22945e-08
-9.1824e-08
3.3891e-08
-2.58188e-07
-3.3104e-06
-1.68624e-08
3.83917e-07
-4.95159e-08
-1.66459e-07
6.19946e-08
-2.43e-07
-2.31866e-07
-1.47954e-07
-1.2068e-05
-2.63829e-07
-2.40061e-08
0.00697597
-9.40509e-08
1.95142e-07
-3.95664e-08
-2.96625e-06
-4.40447e-08
8.58178e-08
-7.80264e-07
-8.36204e-07
5.18265e-08
2.09997e-08
-0.00011505
-5.6922e-07
-0.00197629
-2.21565e-07
-2.35153e-06
-0.00481103
-0.0032504
1.86619e-07
-3.92106e-07
-3.59455e-07
-8.71973e-08
-7.10133e-08
-1.53042e-07
-0.00379943
-4.08867e-07
-4.51731e-07
-1.18485e-07
1.94805e-07
-0.000256344
3.65232e-06
-1.06428e-08
1.21521e-07
-0.00101417
-4.00394e-08
-9.86957e-08
-1.88434e-07
-1.00344e-07
2.47037e-07
-8.85037e-08
-3.12832e-07
3.11725e-07
4.1369e-09
3.57169e-07
-0.0222615
-1.27466e-07
-3.18438e-07
0.00206393
-3.95483e-07
-5.92471e-08
-2.50793e-08
8.76604e-08
1.25612e-08
-7.52681e-07
-2.28497e-08
-2.96252e-07
-1.45144e-07
1.33266e-07
2.12208e-07
-8.05343e-08
-4.03944e-07
-1.20473e-08
2.7632e-07
-6.22744e-08
-0.00402068
-0.00209321
-1.31762e-08
-0.00142381
-2.62488e-08
-2.36017e-07
3.9141e-07
3.25077e-07
-0.000141046
-4.48563e-07
-3.30279e-07
8.06128e-08
1.65579e-07
-2.97068e-07
-5.2377e-08
-1.74368e-06
3.0935e-07
-1.54315e-07
-3.54251e-07
0.0012401
-0.00130459
-4.07417e-07
-2.29231e-07
2.16077e-07
-7.63553e-06
-1.86312e-07
0.00362027
-0.0042374
-6.49337e-08
-8.51312e-08
-1.24717e-07
-1.29687e-07
-0.00023145
4.2497e-07
-9.62137e-08
-8.42798e-07
-4.83934e-07
-1.13873e-07
-6.14063e-08
1.05093e-07
-1.45096e-07
-2.40403e-07
-4.51206e-07
-6.36346e-07
-0.000926604
7.76978e-08
-1.155e-07
-7.85423e-08
-4.72841e-07
4.03911e-08
-2.13827e-07
9.265e-08
1.09117e-07
-2.96959e-07
-2.03615e-07
-6.47792e-08
-2.753e-07
-0.000762014
-5.43555e-07
1.22498e-07
-5.84187e-07
-6.29865e-08
-2.56327e-07
-5.00065e-07
-4.07741e-07
1.05421e-07
-1.4645e-06
-0.0040365
-2.17857e-07
0.0024558
-0.00420428
-0.00154465
-8.47022e-10
-2.57722e-07
-6.95019e-07
-1.12469e-07
4.85972e-07
-1.50762e-07
-6.88861e-07
-4.01759e-07
-1.77849e-07
-1.78246e-07
0.00177284
2.58588e-08
-0.000103525
5.68633e-07
-3.42744e-07
-2.11552e-07
-2.26655e-07
-2.14751e-07
4.95845e-07
-2.15407e-08
-2.25633e-07
-1.14292e-05
-1.70889e-07
-7.18472e-07
0.00197352
-1.51576e-07
-3.44469e-07
1.55079e-07
-5.71387e-05
-3.29428e-07
-6.95563e-08
-3.09454e-07
2.00325e-07
1.20399e-07
-1.44193e-07
-3.07142e-07
4.06197e-07
0.0119866
1.14867e-07
2.26748e-07
3.44424e-06
-5.52904e-08
-1.21951e-07
-1.19383e-06
-2.94639e-07
-2.74554e-08
-4.07826e-06
-1.52761e-07
-8.62385e-05
-1.30827e-07
-1.00598e-07
-2.0658e-07
5.41065e-08
3.44773e-07
-6.87272e-08
-2.45037e-07
7.02643e-07
-3.44598e-05
8.60563e-08
0.00211762
0.00216941
9.95281e-08
-0.000320219
-1.91738e-07
-4.93671e-07
2.09652e-05
-2.76692e-07
-7.08649e-07
-1.38071e-07
-1.38064e-06
2.19441e-07
-2.72843e-06
3.51616e-07
0.000500221
5.67007e-07
-0.00188519
-1.86241e-07
-2.23727e-06
7.40394e-08
-2.98035e-07
2.59647e-05
-2.17522e-07
-6.68704e-05
-0.00455151
9.56666e-05
0.00371125
-8.39375e-07
-0.00171792
-1.37859e-07
-3.28752e-08
-4.27368e-08
-2.70924e-07
0.0260673
-2.09405e-08
2.26093e-07
-1.03546e-07
-1.89133e-07
-1.35556e-07
-2.34564e-07
-3.56286e-07
-0.000787677
0.00111736
-4.50813e-07
0.00220925
-2.16952e-08
-4.34767e-07
-2.48788e-07
-1.35398e-08
0.000876788
-1.21112e-08
-1.60282e-07
5.98007e-06
1.54864e-07
-2.24687e-07
-2.51295e-07
-7.03756e-07
-7.25555e-07
4.84911e-08
1.3953e-08
3.60595e-07
-1.86852e-07
-2.69461e-07
-0.000266431
-3.90414e-07
2.03289e-07
0.00538034
4.77734e-06
2.52484e-07
1.27603e-07
-0.000289703
-3.16923e-08
-2.6943e-07
-7.02008e-08
-1.21074e-08
-2.68358e-07
3.74113e-07
-7.6278e-08
0.0122014
-1.32578e-08
-6.23827e-07
-7.19666e-07
9.12522e-07
4.7396e-07
3.81292e-07
-2.63991e-07
-0.00227176
-7.81858e-08
-2.1489e-06
2.67201e-07
5.31378e-07
7.83615e-07
-1.64835e-06
-5.28847e-08
2.28423e-07
-4.10187e-08
-1.441e-07
-6.07141e-07
-6.63949e-07
-1.22964e-07
-6.31567e-11
1.26213e-07
-1.17218e-07
-4.86003e-07
-8.55456e-08
-2.6609e-07
-1.51872e-07
1.38457e-07
-0.00214005
-1.86767e-07
-0.00139686
-1.51665e-07
-1.07595e-07
-4.52033e-07
-1.6112e-07
3.74533e-07
-7.81266e-07
-7.36879e-07
1.24294e-07
-4.57328e-07
-1.7309e-07
3.26073e-07
-4.11574e-07
-0.000601037
-0.00125997
-1.84909e-07
6.00756e-09
6.79653e-09
-1.80025e-07
-7.33405e-07
-0.00186887
5.44053e-08
-1.30292e-06
1.73524e-07
-2.13281e-07
-1.88078e-07
-0.00302828
-6.05421e-10
-2.28317e-07
-1.27132e-07
2.14803e-08
-3.83079e-07
-9.97199e-09
-8.2329e-08
-2.06083e-07
0.0254202
-6.53531e-08
-7.29358e-08
-1.28046e-07
-3.11668e-07
-6.39111e-07
0.00637616
-2.97659e-07
-8.96517e-08
3.15387e-08
-3.6877e-07
-1.07572e-06
-8.56942e-08
-3.76063e-07
-3.05276e-08
-1.93802e-07
8.77437e-08
-3.99577e-07
2.49817e-07
3.52113e-07
-1.80994e-08
-2.70549e-07
-0.000689755
-0.0227908
-2.85238e-07
1.15304e-07
-0.000199191
-1.02144e-06
-6.40344e-07
1.16621e-07
-4.3526e-07
-2.1378e-07
-0.00406726
-1.40287e-07
-3.98553e-08
8.45935e-05
0.00574209
-2.394e-07
-1.2641e-07
-5.4979e-07
-3.05464e-07
-0.00271737
-2.79529e-07
2.30509e-07
-2.55593e-07
-2.11065e-07
9.83461e-08
-1.78074e-08
2.36474e-07
2.09295e-07
-1.81872e-07
0.14525
-4.85281e-08
-1.33319e-07
-2.23801e-07
1.28508e-07
4.1974e-08
3.86717e-07
-3.33574e-07
-8.76677e-08
3.32355e-07
3.23759e-07
-0.000101027
-3.48327e-07
-2.28864e-07
-2.45717e-07
-1.22087e-07
-2.37117e-07
-6.57276e-08
3.27001e-07
-8.40283e-07
-1.1282e-07
7.80845e-08
-8.23753e-08
-1.05935e-07
-7.18299e-08
-0.00259056
-4.71903e-07
-1.39742e-07
-1.03509e-07
-2.55681e-08
1.64541e-07
6.99855e-08
-9.74233e-08
-2.92807e-07
0.0103317
-0.000178386
-5.69395e-08
2.30221e-07
-3.52671e-07
-5.69497e-08
-9.63519e-08
-7.6474e-08
-3.96789e-08
-8.50176e-08
-2.72703e-07
-1.45595e-07
-3.27866e-07
-3.20168e-07
-1.02372e-05
-7.63633e-08
-4.01446e-08
-1.91016e-07
-0.00282555
5.32258e-07
-1.4031e-07
-0.00462963
-1.88312e-07
-8.03731e-08
1.21026e-06
-3.36258e-07
-0.000193613
1.90567e-08
5.14828e-06
1.91311e-07
1.60708e-07
-0.000286461
-1.24289e-07
-1.50504e-06
4.7434e-07
-6.81319e-07
-0.0022023
-1.40118e-10
-3.94672e-07
-2.1355e-07
-2.35338e-06
-5.28968e-07
0.000204632
1.45699e-07
-0.0012982
-1.853e-07
-2.34407e-08
-1.80979e-06
-1.48184e-07
-4.31521e-07
3.71116e-07
-1.26059e-07
1.27884e-07
3.65623e-07
-8.69842e-08
-7.23079e-07
-3.4393e-07
-1.06915e-06
0.00045077
3.79363e-06
-2.41368e-07
1.51048e-08
-0.00429217
-1.1519e-07
1.55436e-08
2.30173e-08
-0.00353579
-9.42351e-08
2.80714e-07
-2.5187e-07
-7.4732e-08
-3.36207e-07
-1.51078e-07
-9.85129e-08
-1.6814e-07
-2.26445e-07
-0.00115334
0.00181666
4.11372e-07
-2.17187e-07
2.11592e-07
-9.63868e-07
-5.9369e-08
-2.11717e-07
-1.8558e-07
-2.54356e-07
0.0292318
2.85444e-10
4.05458e-08
-1.16548e-07
0.0157226
3.69731e-07
-6.34688e-08
-0.000651845
-0.000818924
-4.14437e-07
-1.53687e-07
-1.82514e-07
-6.33754e-07
-8.60439e-08
-6.52666e-08
-0.00450851
1.19115e-07
1.98834e-07
-1.96562e-07
6.18525e-07
9.32106e-08
-4.00718e-08
-6.14667e-08
-3.75925e-07
1.37977e-07
2.00485e-07
1.80035e-07
-3.22019e-07
4.0152e-07
-3.42457e-07
-4.95824e-07
0.00130653
0.000864982
2.50539e-07
5.57313e-08
-1.07093e-07
9.24256e-08
-0.000732381
2.03249e-07
-1.87638e-06
-3.4739e-07
-4.71609e-08
-1.88175e-07
-3.10628e-07
-0.00178484
3.4616e-08
-0.00182738
3.97458e-08
1.6912e-07
-1.03493e-07
0.00406087
-1.8271e-07
-1.52571e-07
-0.00203856
2.54435e-07
-2.12741e-07
-0.000131219
-1.15125e-07
-0.00258096
2.2919e-07
2.32744e-07
0.00312645
3.60207e-08
-3.526e-07
1.19788e-07
0.000319855
1.79833e-07
4.13983e-07
6.70615e-06
-4.4368e-08
-1.27725e-07
-4.18272e-07
-0.00206851
-9.58474e-07
-0.00461864
-0.000287893
-6.4129e-08
-2.62856e-07
4.99945e-08
-1.85842e-06
-5.73338e-08
-9.31081e-08
-2.19033e-07
2.64295e-07
8.4848e-08
-1.7221e-07
-2.12686e-07
-4.17201e-07
-1.91583e-07
0.000968576
-5.98159e-08
0.000162055
-1.71455e-07
8.83545e-07
7.46325e-08
1.8577e-07
1.60953e-07
-0.00369314
-0.002718
-2.62493e-07
-2.14878e-07
-5.95369e-08
4.48505e-07
1.83234e-09
3.07353e-07
-7.17682e-07
-1.34106e-07
-1.66847e-07
-0.000190952
-0.00457719
2.29869e-07
-2.84318e-07
-1.38264e-07
7.46686e-09
-8.14689e-08
2.93178e-07
-0.0232215
-2.54465e-07
1.13442e-07
4.99838e-07
-0.00199308
-2.10762e-07
-0.00378571
-3.94694e-07
-1.41784e-06
-5.83651e-07
-0.00510501
-1.62323e-08
-3.93349e-08
-4.1599e-08
-4.12872e-07
3.67951e-07
-2.15499e-06
-2.98672e-07
-3.51616e-07
9.86844e-05
3.27942e-07
-1.22673e-07
-4.16449e-08
-4.52709e-07
5.38771e-08
-9.79652e-06
-3.95289e-07
4.02961e-07
-1.23871e-07
-3.23849e-07
0.000293137
-1.60893e-05
8.55483e-08
5.95713e-08
1.7697e-07
-4.9308e-07
-0.00412729
-1.13204e-07
-0.00288933
-5.95212e-08
-2.24042e-08
-0.00107906
-1.08601e-07
-0.00447676
0.000508252
-6.19359e-07
-9.21764e-08
-3.92142e-05
-2.32879e-07
-1.51806e-07
-3.04373e-07
-0.00185519
1.66826e-07
-4.09361e-07
-0.000144473
0.00272619
5.25961e-07
4.21395e-07
1.19189e-07
-9.08388e-07
0.000116439
-1.44526e-07
1.87187e-07
-0.00135522
-4.01269e-08
-5.82026e-08
-3.95847e-08
0.0148005
-0.000224659
-1.79896e-07
-2.28568e-07
2.0775e-07
-3.45774e-07
-9.39564e-05
-5.95197e-07
-3.09352e-07
0.00237736
-0.00245048
-5.00123e-07
-1.39378e-06
2.84446e-08
-0.00766508
-1.43875e-07
3.18107e-07
8.59086e-08
-2.63e-05
-6.40856e-07
-1.97579e-07
-0.000178606
-0.00462475
8.90919e-08
-2.02219e-07
5.51975e-08
-8.76374e-08
0.0305322
-1.18132e-06
-0.00402717
-7.34839e-07
-1.36875e-07
-4.37563e-07
-0.00323645
-6.27762e-07
-1.34244e-07
-1.65977e-06
-5.78033e-05
-0.000614366
-0.000374276
4.86391e-05
-0.0021975
-0.000236316
-8.54169e-08
-1.15291e-07
-2.99622e-07
-4.32563e-07
0.000366251
-8.04405e-05
-1.72536e-07
0.0045214
-7.72356e-08
5.00508e-08
-1.77097e-07
5.21827e-08
4.80623e-08
-0.00278162
-4.27261e-07
2.83008e-05
-9.73752e-08
-1.09239e-05
-2.21761e-08
-6.53585e-05
-0.000323444
-1.19785e-07
2.42327e-07
-1.72338e-08
-1.09151e-07
1.35911e-07
-1.3122e-07
-4.20244e-07
-0.00210299
-1.74167e-08
2.23173e-07
-1.06804e-05
1.51524e-07
-0.000760777
1.01085e-07
-0.001648
5.05024e-09
1.01138e-07
-5.60063e-08
-1.54482e-07
2.59266e-07
2.01232e-08
-0.000790623
-7.77717e-08
7.44702e-07
-0.00549242
-2.4867e-07
-0.00410022
-2.62105e-07
-0.00469845
0.00488913
-0.00232415
-7.11553e-07
-4.96123e-08
-7.4225e-09
-0.00359473
-5.05469e-07
2.47628e-07
4.62644e-08
5.93481e-07
-0.00319037
-6.88721e-08
-2.7441e-07
-3.04358e-07
-1.06156e-07
0.00220729
-0.00167419
7.37927e-08
6.16469e-09
-0.0032081
-0.00346877
3.99585e-07
0.0222402
1.94612e-07
-0.00434682
-0.00362562
-4.29629e-07
-2.31348e-06
-5.7559e-06
-1.23256e-07
-0.000969109
-3.94288e-07
-2.61528e-07
-5.52348e-07
1.78863e-08
-0.00471702
-0.00198736
8.53794e-08
-8.90898e-09
-0.000912795
4.40542e-07
-0.000598916
-1.19177e-07
-2.5128e-07
2.75331e-07
0.00708231
-4.61892e-07
-1.01324e-07
-0.00173523
-4.96876e-08
0.0159947
-0.0015944
-1.2023e-07
2.83651e-07
-9.4901e-07
8.4178e-08
-1.33608e-07
-9.55234e-09
-0.0010173
-3.64812e-08
-8.76844e-08
-3.09297e-07
0.0034188
-2.40724e-07
2.55114e-08
-2.01403e-07
-0.00143705
-2.50993e-07
-1.62936e-07
-2.0944e-07
-0.00119185
0.0070181
-1.78585e-07
-5.32149e-07
-5.01522e-07
-1.27251e-07
3.96342e-09
-0.0020371
-1.27195e-07
-5.9524e-07
1.63586e-07
-1.18454e-05
2.7599e-07
-0.00279607
0.00702409
-1.55926e-07
-0.00132385
-0.00160096
-1.61575e-07
-1.09385e-07
-0.04501
1.64718e-07
-0.000367312
-3.01923e-07
-3.32293e-05
4.14993e-08
-2.78419e-08
-2.72256e-07
-1.03244e-07
-3.205e-07
-1.50413e-07
1.04801e-07
1.72049e-05
-4.42083e-07
-0.00154864
-0.000971639
-1.28461e-08
3.17186e-07
-1.5386e-08
-0.00258516
-1.01342e-07
1.72471e-07
1.5825e-07
-0.00321943
0.00186766
-0.00072635
-0.00115246
-2.40962e-07
-2.28658e-07
1.13059e-07
-3.4116e-07
-2.56917e-07
0.000507379
-1.66491e-07
-1.47071e-07
-0.000270967
-4.05738e-07
-3.74731e-08
-4.17521e-07
-6.60216e-06
-7.78911e-07
-1.08226e-07
3.58791e-09
-1.1887e-05
-1.15061e-05
0.00541402
-3.40083e-06
-2.22173e-07
-1.44362e-07
-7.93819e-08
-7.84253e-09
-2.69857e-07
-1.95374e-07
-1.58938e-08
1.35778e-06
-3.20807e-07
4.09003e-07
-2.56569e-07
-1.46856e-07
-2.11204e-07
-1.08193e-07
-4.39239e-08
-3.8808e-08
-2.52317e-07
-7.05183e-08
-4.19182e-07
-8.6922e-08
-9.04677e-08
3.67256e-07
-5.39136e-06
-8.64236e-08
-8.39368e-08
-0.000270589
-0.0170595
-0.0012754
-0.00194981
-6.41946e-07
9.76962e-09
-1.94615e-07
-0.00559064
-2.22455e-07
-2.55816e-08
-3.83931e-07
-0.00111102
-1.06032e-07
-2.78856e-07
-0.000104294
-2.653e-07
-7.88002e-08
-7.6179e-08
-1.88992e-07
-1.9973e-08
1.21464e-07
-1.99085e-08
7.4273e-08
-9.15361e-08
-3.57277e-08
-1.80565e-07
5.90176e-08
7.74772e-05
-2.26652e-07
-2.46634e-07
-3.44528e-07
-1.35274e-06
-1.63427e-07
-3.0048e-07
-3.75685e-07
-0.00137435
3.24462e-08
-1.48615e-07
-1.73486e-07
7.94525e-08
-3.63334e-07
-2.23983e-09
-3.61726e-08
-2.1175e-05
-1.04103e-07
-1.41044e-06
-3.93889e-07
-8.56448e-09
-1.51058e-07
-3.2109e-08
-1.50873e-07
-3.21881e-07
-1.4398e-07
-1.14589e-07
-3.24735e-07
-0.00516667
-3.50541e-09
-3.33499e-07
-1.15534e-07
-0.00390894
-0.00226768
-2.17301e-07
-4.97276e-09
-2.89858e-07
6.79023e-08
-8.10834e-07
3.21303e-08
-0.00342141
1.49707e-08
-1.1469e-07
9.09698e-08
-1.22874e-07
-1.5578e-06
-9.4917e-08
0.00428805
-7.60445e-08
6.14278e-07
-3.00024e-08
-1.93626e-07
0.0155886
-0.00490199
-1.46639e-06
2.08577e-07
-1.75384e-07
-9.59998e-09
1.46001e-07
0.00374502
-1.80326e-07
-1.09515e-08
1.23932e-07
1.80585e-08
-6.23745e-07
-2.4482e-06
-1.5455e-08
-0.00509132
-9.83558e-07
-1.22637e-06
-2.84925e-07
-2.54971e-07
-3.18393e-08
-1.46615e-07
-2.01117e-06
-1.2641e-07
-1.081e-07
-0.000755846
-1.75889e-07
-1.94091e-07
1.07072e-08
-0.00201369
-6.89547e-07
0.0031782
-1.01703e-07
-0.00494982
-3.12959e-07
1.40461e-07
-1.14188e-07
-3.28022e-08
-2.74426e-07
-1.28388e-06
-4.6106e-07
-1.99531e-07
2.40382e-07
-1.85006e-07
-1.21998e-07
0.000201065
2.68917e-08
-3.97819e-07
2.4547e-07
-1.21772e-06
-6.45821e-07
-2.2024e-08
-1.99129e-07
-0.00360112
0.00134028
-3.13122e-05
6.5854e-07
-4.42702e-06
-9.89978e-08