/*--------------------------------*- C++ -*----------------------------------*\
| =========                 |                                                 |
| \\      /  F ield         | OpenFOAM: The Open Source CFD Toolbox           |
|  \\    /   O peration     | Version:  v2012                                 |
|   \\  /    A nd           | Website:  www.openfoam.com                      |
|    \\/     M anipulation  |                                                 |
\*---------------------------------------------------------------------------*/
FoamFile
{
    version     2.0;
    format      ascii;
    class       volScalarField;
    location    "450";
    object      omega;
}
// * * * * * * * * * * * * * * * * * * * * * * * * * * * * * * * * * * * * * //

dimensions      [0 0 -1 0 0 0 0];


internalField   nonuniform List<scalar> 
10042
(
0.0219076
0.0220486
0.021844
0.0229643
11.688
0.02207
5.80002
2.43237
0.0217204
0.0220087
5.39264
0.0229107
0.021527
0.0214899
0.0234528
0.022031
0.0220223
0.0222585
0.0219103
0.128188
0.0219021
0.23446
0.0215774
0.021614
0.0220559
0.0286841
0.0221324
0.02265
0.0217713
0.0223392
0.0220183
5.55031
0.0220197
0.0222215
0.0259263
0.0216261
0.0278905
0.0330775
0.0216287
0.029267
0.140825
0.0230914
5.62214
0.0219864
11.8442
0.0601355
0.0222929
0.098545
0.0270186
0.0497788
0.022167
0.0221197
0.0231213
0.0227
0.0279237
0.0220627
0.0217712
0.0222619
0.0222139
0.0229293
0.0220438
0.022001
0.0261029
0.0218283
0.0222083
0.022228
0.0220202
0.0718101
5.17927
0.0218742
0.0226388
0.155004
0.0219918
0.0316615
0.0219986
0.0216105
11.1322
0.0219207
0.029658
5.61904
0.0262978
12.5115
0.0219752
0.0227336
0.0220257
0.0222138
0.0218859
0.152332
0.0219327
0.0218878
0.0221266
12.7748
0.0227211
0.0220586
0.0222956
0.0218495
0.0219316
0.0218464
0.0287611
0.0217631
0.0222908
0.104887
3.88444
0.0222024
0.0225424
0.0502796
0.0219087
0.0219249
0.0219105
0.0214378
0.0217082
0.0218253
0.0255413
5.10029
0.0221973
0.0218386
0.0219395
0.0219162
0.0218466
6.33005
0.0219257
1.61247
0.0220161
0.0219815
0.103497
0.0219785
1.46216
0.027772
0.0484583
0.0218797
0.0306033
0.0219929
4.78643
0.19969
0.021764
0.0573095
5.06485
0.0221337
0.102839
0.173659
0.0226533
0.0219364
0.0224314
0.146209
0.0218192
0.0218251
0.0568519
0.0215145
0.0218584
0.0251242
0.0217376
0.0222555
3.91604
5.37986
0.0221858
0.021522
0.022536
0.0219925
0.0577348
11.406
6.12245
0.127649
0.0219846
0.0217401
0.0220357
0.0219762
0.0587544
26.6885
5.91604
5.89804
0.0223767
0.0218387
13.0952
0.163273
0.0375882
4.80247
10.3003
0.022002
0.0831689
0.0313853
0.0226724
5.93098
0.0220676
0.0276657
0.0229699
7.37544
0.245373
0.0220342
5.53577
0.023686
2.85877
0.0224273
3.77605
10.5571
0.100688
5.77684
0.0251567
0.0219213
0.0215273
0.0232844
0.0364082
0.0220677
0.0218183
0.167119
0.0220576
0.0216708
4.35615
0.0221571
0.0222603
0.0222428
1.74551
0.0218235
0.0545341
0.302927
0.0225109
0.254663
0.0219525
0.0219878
0.0642511
0.0217667
0.0256406
0.0226575
0.368641
0.0342594
0.0252178
0.0295955
0.324792
0.0218318
0.161586
0.0228359
0.0217187
0.133962
0.0218472
0.0227981
0.021876
0.0253102
0.0216988
0.0214748
0.0230594
0.0254892
0.0219917
0.0220212
0.0219943
0.0256085
0.0218391
0.0220274
0.0216151
0.0226006
0.0225138
0.0222689
0.0215283
0.0218658
0.0241511
0.478566
0.128005
6.55122
0.0381222
0.0369017
0.0236235
0.0674925
5.46791
0.0228617
0.0219123
0.021492
0.0232172
0.021699
0.243703
0.0230402
0.0218815
0.0222503
0.0382236
0.0225548
0.285716
0.0374944
0.183271
0.023761
0.0254487
0.0217039
0.0247582
0.0218423
0.0325652
0.0219027
0.0287498
4.80553
0.021673
0.021805
5.58703
0.0614908
0.0220032
0.0220425
0.023874
4.79945
0.0542613
0.153035
0.022182
0.0215232
0.0218325
0.0217349
0.304929
0.0218764
0.0220376
0.0218361
0.0219539
0.0341314
0.0236578
0.0752183
9.49482
0.022761
8.6186
0.021842
0.02454
0.0221239
7.71337
0.103879
2.24943
12.2461
0.0215949
0.0230537
0.0218787
0.0238493
0.0296715
0.0222416
0.0324614
0.0217029
0.0214863
0.0220092
0.0813249
0.0222839
0.0233877
0.0219577
0.0235189
5.94069
0.021842
0.0221763
0.0219883
0.0218017
0.0414121
0.101126
0.0367578
3.21894
0.034566
0.0267387
0.0219729
0.021473
0.0221972
0.022268
0.608493
0.0219028
0.0222284
0.111282
0.0218208
0.0245027
0.0228473
0.117531
0.0218294
0.0250284
0.0457198
0.032193
0.0232071
0.0219271
6.42266
0.0577286
0.0221885
0.0410526
0.0219465
0.021851
0.0219442
0.0244591
0.927392
0.0239864
0.0222493
0.022706
0.0222923
0.0222708
0.126638
0.0219253
0.0216002
5.19537
0.0218363
5.99218
0.525214
0.0322798
4.33493
7.49395
0.027557
0.137126
0.0221589
0.0515694
0.0222913
0.0222042
0.23745
0.0220652
0.0240935
12.3256
0.0219468
0.0219035
0.0493325
2.176
0.0221521
0.0215157
5.59502
0.10461
0.0218349
0.0722284
12.2738
0.0217655
0.022264
0.0216271
0.0218636
0.0214699
0.021666
7.91575
3.79886
0.022238
9.90976
0.0214922
0.0218769
0.584742
0.0219671
5.58669
0.0586446
0.0227456
0.0215704
0.0215097
0.134617
0.0224694
0.0275585
0.0223331
4.94265
0.0224033
6.45906
0.0232598
0.0219339
0.0218384
0.638867
0.0219498
0.025509
0.0218631
0.0218116
8.12888
0.0252292
0.0219279
0.0217386
5.9455
0.0218713
0.0255766
0.0232012
0.0217042
10.091
4.35519
0.021882
0.022142
0.0241527
0.021528
0.0220075
0.0219701
5.77361
0.021994
0.0217063
0.0282111
2.2579
0.0580258
0.0222685
0.0310102
17.859
0.0361166
0.0219338
0.0219332
0.200244
0.0221213
0.0219402
0.0289362
0.0217594
0.021667
0.0227983
0.0215565
0.0374605
0.0219055
0.021954
6.88234
0.0217599
0.0222992
0.0220671
0.0222732
0.0323273
0.0218864
0.0217827
1.85646
0.0224505
5.93929
0.0228327
0.022282
0.0222767
0.12726
0.0218988
0.0219327
0.0220128
0.0222566
0.0274637
6.17612
0.021875
0.0373873
4.5175
0.0359559
0.0222611
0.0219561
0.0219538
0.0222032
0.0218535
2.00904
5.16896
0.0220752
0.027794
0.0281854
0.0276309
0.022006
0.0216537
0.457619
0.131755
3.25556
0.021568
0.0220017
0.0219339
0.0218412
5.68544
0.0342057
0.0222631
0.0218247
0.0217934
0.0219771
0.622096
0.0252232
0.0221399
7.02692
1.33944
0.404358
0.0512165
0.0220153
0.0217727
0.0575545
0.0519241
3.10971
26.3685
0.0245556
0.0257923
0.0222106
0.0233331
0.0221323
0.0221999
5.63361
0.0216088
0.0218456
0.0573999
0.0222104
0.260549
0.022665
0.138126
0.0289829
0.0222448
0.022956
0.0259309
0.0381775
0.0511928
0.0808696
0.0222823
0.0497017
0.022812
0.0218495
0.022119
0.0222245
0.0220337
0.024799
0.0583249
0.0404701
0.0221432
0.022506
0.0220088
0.0219122
0.122955
0.0219288
0.0231696
0.200307
0.0215589
0.0519662
0.0777143
0.0220398
7.32745
0.0415419
0.0222099
0.270927
0.0219244
0.0222686
0.0219531
0.0219782
0.0222924
0.0237713
0.0219837
0.961018
0.0226533
0.0219611
0.0221482
0.0327657
0.0329299
0.0219767
0.0239366
0.0217737
0.0320204
0.0219273
0.0291053
0.0216031
0.022879
0.0215111
0.0219303
9.39632
0.0216338
0.110313
0.0219652
0.0225618
0.0217408
0.0328319
0.0220756
0.0428741
0.0220003
0.234765
0.0222621
5.77616
0.0215096
0.0233566
0.0222715
0.0219674
0.0219582
0.0237207
0.0220332
0.121632
32.1336
0.244686
0.0236402
0.0358683
0.0218109
0.0378281
0.0600345
0.0220119
0.0286107
0.0849955
3.33393
0.0785591
8.58782
0.0266841
0.0220935
0.0222313
0.0244462
0.0237652
0.0351192
0.0215998
0.023259
0.115362
0.0222649
0.0219132
0.0242823
6.63819
0.0232157
0.0299656
0.0572325
0.0222515
5.4147
0.0216158
0.0218244
0.0223633
0.0217662
6.6817
0.0688338
5.78217
0.0220568
3.74746
11.4913
0.468869
0.0348967
0.0681286
0.160346
0.0397925
0.0219583
0.0218669
0.0297168
8.64846
0.0218032
0.0288464
6.35403
0.0218997
0.0219059
0.0218555
0.022809
0.0219498
0.0218608
0.124653
7.66494
0.0218429
0.0219986
4.79658
3.08671
0.021815
0.0219379
0.022155
0.0218669
0.632656
0.0686593
0.262756
0.0225394
0.0218998
0.0217157
0.0226961
0.0220527
0.0322005
0.0225492
9.12206
0.0220055
0.0220755
0.0401386
0.0217991
0.0328421
0.064501
0.0227877
29.7238
4.71952
0.0220997
0.0218496
8.61857
6.63173
0.0348825
0.0218999
3.0057
0.181254
0.0254449
0.0219428
0.021995
0.0219222
0.322685
0.0236105
0.0921671
0.0222685
5.53733
0.870076
0.021959
0.0219871
0.114323
0.0221506
0.021738
0.0248661
5.20203
3.21445
9.46389
0.0221967
0.0590688
0.038175
0.0216404
0.0218551
0.0221939
0.305434
0.0222061
0.0219553
0.0590257
0.0219963
0.0631116
0.0221115
0.022107
0.0216867
0.0221514
0.183431
0.0221992
0.0218608
0.0408298
0.0547012
0.384561
0.0222101
0.0883684
2.65455
5.96329
0.0228441
6.11893
9.72768
0.0219011
0.0215385
0.0225864
0.023177
2.16549
0.023264
0.0221229
0.0222063
3.16948
0.0367204
0.0221414
0.0221424
0.021933
0.041469
0.0217523
0.0218313
0.0310305
0.0227409
0.0222045
0.0217332
1.38034
0.0218061
0.0226638
0.022028
0.0223101
0.147759
0.0222031
0.0229285
0.0220716
0.0246976
0.781754
0.0222919
0.351329
0.0256134
2.54861
0.0216469
0.0232748
0.0305156
0.088144
0.0495909
0.0225391
9.49009
5.40025
0.022442
0.021784
0.378163
0.0220789
0.0222511
0.0217233
0.0222418
0.0499707
0.0222928
0.0222931
0.0636598
0.0280485
0.0227908
0.0308636
0.0226581
9.71231
0.0229786
0.838609
0.0218596
0.057453
0.0362597
5.10182
0.0238834
5.35359
0.0222695
0.0247344
0.0220424
0.0220488
0.0219041
0.131562
0.0395637
0.0472398
7.87366
0.0221199
10.4134
0.0249806
0.0217464
0.0309104
0.0297634
4.38469
0.0219813
0.0277468
0.050399
0.0232234
0.0409901
0.0222838
0.0215708
0.0222833
0.306906
0.0221345
0.0220036
0.0217318
0.0217233
0.0219346
0.0219878
0.0222271
0.0218465
0.0221516
0.0224016
0.0250385
0.0303851
0.0219888
2.92345
0.021952
2.7471
0.0364607
3.12534
0.0356518
0.024567
5.77568
0.0333885
0.315726
7.03555
0.0410449
0.0221994
0.0218426
0.0227973
0.151863
0.0218593
5.49855
0.0218616
16.4147
5.62748
0.0542035
0.0226604
6.33882
5.2005
0.0230756
0.0219773
0.0222639
0.0239429
0.021561
0.0216643
0.0566292
0.227083
0.022078
0.0218532
0.022307
0.647357
0.0609079
0.0221567
0.0249715
0.0882579
0.0223925
0.022027
5.16298
0.0222444
0.0218742
10.9254
0.0238362
0.0219395
5.78912
3.99242
9.6967
0.0219087
0.0230421
0.395235
0.0217305
0.0218349
0.0222843
0.0283542
0.022043
0.0221116
0.0229917
0.0452513
0.177055
0.0217801
0.0219263
0.0220789
0.0218014
0.0224834
0.0215955
0.138335
0.0282665
0.0219497
0.0219821
0.0217635
0.0219749
0.0223431
5.39587
0.0283305
0.021508
0.0219235
0.0403159
4.35055
0.0220418
0.021982
0.0220279
0.0215173
8.8527
0.0472416
0.0217125
0.0220669
0.0289938
0.10378
0.0221695
0.0222828
0.0247169
0.0219444
0.0253813
0.0223124
5.94899
0.0343933
0.0220696
0.0256102
13.199
0.0278504
0.153618
0.024883
0.388562
0.0222709
0.0220105
0.0246719
0.0654779
0.0218928
0.0217189
0.0222436
0.022481
0.105302
0.118928
1.09514
0.0225058
0.0219924
0.0279113
0.0219612
0.0219582
6.39989
0.0235321
0.0219505
0.0219817
0.283222
1.13846
0.0219909
0.0220424
0.0899687
0.0217366
0.0221038
0.0219302
0.0876824
0.0229049
0.0253969
11.4514
0.0222232
0.0221686
2.59853
0.0219056
0.162719
0.0218943
0.023251
0.0412097
0.0219784
0.0220896
0.0220708
0.0232702
9.97468
0.0219166
0.0221354
0.210273
0.0254218
0.271257
6.18045
0.0460889
0.0222122
0.422758
0.0217828
9.80038
0.0221682
0.0219861
0.0216825
6.46061
0.0222123
0.0223009
0.0221602
0.0327889
2.31227
0.0278363
0.048246
0.0218992
0.0221354
0.0363734
0.0286258
0.0218332
0.0250056
0.0218808
4.60968
4.85857
0.0221393
0.0228334
0.0222229
1.57364
0.0221574
19.7999
0.0219766
0.0217833
0.0217054
0.0223523
0.0235594
0.0222715
0.0219884
0.0219839
2.3712
0.104229
0.0218396
0.0242325
0.0236303
0.040291
0.0217988
0.0255628
0.0227956
0.0219529
0.0230976
0.0297993
0.0222802
0.0219124
0.0264417
0.0217216
0.15678
0.0229924
0.136292
0.0220911
0.0220371
0.0217436
0.0710559
0.0389968
0.0217658
0.0242516
0.0706848
0.0223886
0.021769
0.0252519
0.0222247
9.38692
0.215799
0.0247387
7.36924
0.0230061
0.033559
0.0901109
0.0370175
0.0323453
5.51531
0.0288989
0.128039
0.021958
0.0228331
0.021838
0.0219366
0.0260346
0.0217491
0.190565
0.0219715
0.0219845
0.0735118
0.021938
0.0536373
0.0251061
0.0252056
0.0218641
0.0416688
0.201537
0.0214149
0.0307296
6.27221
0.0413748
0.0217187
0.0289219
0.0219934
0.0217653
7.82571
0.0218295
0.0217814
0.0483882
0.0219453
0.0262404
0.0217379
0.0220006
4.79669
0.0218326
0.0216573
0.0244677
0.0219069
0.0214981
0.0222518
9.82982
0.0221265
0.0220848
0.0215585
0.0829121
0.0223578
0.0243344
0.0219234
0.0340335
0.0226006
0.0218954
0.0227806
0.0221005
0.0217775
0.114804
0.0410491
0.0284868
0.0233583
0.0444983
0.0724417
0.0271629
0.0278228
0.0228458
6.73359
0.0219278
0.0219526
0.0219231
0.0222384
0.0348635
0.021892
10.1952
4.84949
5.4993
0.0220844
0.0244776
0.0382744
0.0215213
0.0868016
0.0462761
0.798674
0.0651987
5.21679
0.072588
0.162657
1.89495
0.028031
0.0227954
0.0249089
0.0217677
3.77331
0.0224805
0.0288331
0.0217964
0.0248707
0.0220442
4.98123
4.61988
0.0222037
5.29568
0.636901
0.188032
0.0451591
0.0636946
0.0216616
5.73052
0.0219594
8.30765
5.3673
0.0222044
0.0218991
0.0220014
0.023254
0.024454
0.0347749
0.183961
0.0221252
0.0220386
0.0249354
0.0222826
0.022036
0.0258353
0.021833
0.0220588
0.207502
0.0606835
0.0220408
7.11881
0.0226944
0.0222721
0.0233239
0.282467
0.0219362
0.0217272
0.108523
0.18268
0.0217658
0.0250128
0.693189
0.0532487
4.75962
0.0217773
0.15689
5.21576
9.9041
0.0220832
0.0219115
0.0612689
0.0259824
0.0405184
0.0222913
6.77855
0.0484126
0.179045
0.022035
0.021976
5.48164
0.188288
0.0221503
0.0222723
6.17405
0.0219185
0.0215802
0.0217188
0.0232722
0.0221969
0.0292591
0.0220978
0.023446
0.0216151
0.0321193
21.8457
0.0578954
0.0340051
9.27248
0.0748184
0.0216346
0.021763
0.021847
0.0222837
0.124806
0.0293996
0.0219638
0.0219714
0.0219704
0.0216026
0.0318982
0.0216098
0.047458
0.0237453
0.0221241
5.1725
5.26077
0.0221025
7.56276
0.0334016
0.0327784
0.0222641
0.0216153
10.939
0.0728702
0.021921
0.021723
0.0219297
0.0261342
0.0222624
0.147371
0.0215157
0.022059
0.0219865
2.0709
6.46883
0.0215015
0.0219871
0.151435
0.464408
0.0244436
5.01983
7.03606
0.0216935
0.0221421
0.0221129
0.0229493
2.08909
0.0220371
0.0222844
0.184211
0.0910907
0.0222123
0.0219415
0.0713694
0.0222836
0.0220746
0.105608
0.0801046
5.54908
0.0219829
0.0740802
0.0403747
0.0554583
0.0230107
0.0272274
0.0219351
0.0219286
0.118234
0.0256436
0.0219954
0.0246411
5.26312
0.0215298
0.0218089
0.0215211
0.0744484
0.0219445
0.0220866
0.0214377
0.0219429
0.673367
9.25956
0.0221966
6.5376
5.40207
4.90508
0.0219319
0.0219354
0.0218277
0.0218878
0.0221169
0.0221504
0.0216209
0.0220827
0.0217785
0.0241768
9.13699
0.035617
0.266514
0.0293803
0.0220308
0.0230815
0.0319048
0.0221575
0.0218453
0.0394773
0.0316175
0.540205
0.041418
0.0214836
10.9011
0.0226609
0.0214861
0.021839
0.340178
0.0428612
0.0226987
0.025546
0.0220724
0.0220946
0.0318556
0.040513
0.0274203
7.94006
0.0220839
0.0220303
0.619461
0.0368474
0.0250016
0.131853
0.023016
0.064481
0.295068
0.0647371
8.26883
0.0218271
0.0216662
0.0219388
0.0220472
0.0220948
0.0230247
0.0396203
0.0505049
16.5563
0.0220736
8.33843
8.16063
0.0239975
1.40198
0.0222034
0.0938375
8.39366
0.0219097
0.0936453
0.0215347
1.83512
0.0221977
0.200474
0.0218572
0.712833
0.0379583
5.28768
0.0218464
0.168938
0.0215973
0.0230205
0.266587
0.0218372
8.25108
5.78749
0.304245
9.32874
0.0944843
5.31261
0.0386068
0.0220158
0.0442099
0.0457156
5.4179
0.0220775
0.0220171
0.0226023
0.0476202
0.0219397
0.0222051
0.0221969
18.3223
2.33967
0.0219057
9.90758
0.0576177
0.0217257
0.0376865
0.0271545
2.54971
0.029511
0.0217618
0.674702
0.0220719
0.0219368
0.02209
0.1245
0.0620786
0.0217668
0.0264035
0.0221107
0.0222606
0.0217914
10.2188
0.0222857
0.0218131
2.97468
0.243526
0.0238731
0.021794
1.8864
0.0280689
0.0231908
0.0219402
0.0509063
0.0230479
0.0266203
0.0246378
7.23925
0.0429389
0.0604161
0.0214793
0.0311957
0.045526
0.0272032
0.0223605
9.16394
0.0222527
0.157907
0.0218836
0.0221938
0.0304721
0.18802
0.0233409
0.0249092
0.0221142
0.0366702
0.065248
0.0904187
0.0277978
0.0222923
0.0219648
0.02787
0.0864806
0.0219349
0.0433053
0.0220141
0.0219364
4.90636
0.0218863
7.92223
0.0219309
0.0269179
0.0722206
0.0219269
0.0279546
0.103216
0.103391
0.0219347
0.0819667
0.022474
0.0222634
0.0218933
5.07694
3.53516
0.0219021
0.0219256
0.0215835
0.0218083
0.0928832
4.35644
0.0219214
1.37117
0.0217286
0.0217966
0.0218886
1.23397
0.0227482
0.0237671
0.0219437
0.0219495
0.021912
0.0222568
0.0222595
0.0317968
12.4268
0.0216005
0.021911
0.0411915
0.0684556
0.0217945
7.82339
0.051805
0.0217858
0.0214946
0.0220721
0.114515
0.0217255
0.0796271
0.028534
0.0232856
0.0217833
0.0451745
0.0215197
0.134623
0.0275723
0.0223526
4.72597
1.56626
0.0214219
0.0218561
6.63631
0.121188
0.0769531
0.0238103
0.0796937
0.0215271
6.33847
0.0654083
0.0216907
1.80938
3.90854
0.0231392
0.0441289
0.0532746
0.0217567
9.87563
0.0221648
0.0265259
0.029696
0.0222356
0.0220494
0.0515727
0.0218662
0.021888
0.0218655
5.48934
0.0218383
0.021938
0.0217447
0.021885
0.0218485
0.0222303
0.053452
0.0450393
0.0233626
0.0222498
1.45553
0.0222418
0.0218338
0.0218928
0.021584
0.0220853
0.0219715
0.0283211
0.0911136
0.0222241
0.0302906
0.049329
0.0217286
0.0274723
3.46632
0.0226258
0.0215215
0.0220804
0.082509
0.022203
0.0222031
0.0242094
0.024726
7.45214
13.2145
0.0218222
0.0218623
0.0219404
0.0685762
0.023003
0.0217943
0.028143
0.0733359
0.0221515
0.0267792
0.0221335
0.106912
0.207878
0.0227357
0.12414
0.0257218
5.00943
0.0222053
0.0218892
6.68823
0.115872
0.0242935
0.161168
0.0910687
30.2737
0.0454282
0.68311
0.0254999
0.0246435
5.18278
0.0265963
0.205288
0.0293545
0.125227
5.40215
0.0222933
0.0221215
0.0219744
0.351363
0.021444
6.47118
0.03631
23.1097
0.0229176
0.117063
0.205218
0.021947
0.0221802
0.0788979
0.0294744
0.0220881
0.0244448
0.0767992
0.0767932
0.0772524
0.109098
12.2015
0.143467
0.0221154
0.0222015
5.50028
0.0754739
0.0225972
0.0375584
4.10498
0.0222317
0.0236336
0.0219381
0.028601
0.0220392
0.0221056
0.0385055
0.0220889
0.022596
5.36116
30.8334
0.0217263
0.0256646
0.026556
0.187891
0.0425804
0.0223049
0.0219247
0.102616
17.8262
0.0219261
0.0250597
0.0220443
6.2822
0.0218267
0.0299254
0.363322
0.322242
0.022272
0.137924
0.0866631
0.0574242
0.0255581
0.0220209
7.69526
0.0218125
0.0259146
0.0222174
0.0285011
0.0215891
0.0215983
0.0220587
0.0663251
0.0218165
0.0219776
0.0217565
0.0219079
0.0218637
0.0220032
0.0896626
8.77645
2.37072
0.0252972
0.0220563
0.0318955
0.0235568
7.31992
0.022285
0.179917
0.0216092
0.021994
0.0223521
0.0346459
4.11938
0.0219559
4.95288
0.0221888
0.021514
0.023018
8.54424
0.0233225
0.0446285
7.0819
0.0222848
0.0221665
7.08547
0.0218815
10.8154
0.0220883
0.0314831
11.5654
0.0224768
0.0220972
0.0218563
10.2165
0.0263146
0.0218652
0.781905
0.0219561
0.0225729
0.082708
22.8625
0.192324
5.42668
8.42504
0.0732822
0.0234421
0.181851
0.241037
0.0217608
0.0218547
0.0228044
0.0264128
0.0784995
0.0219882
0.0252985
0.0219011
0.0219583
2.211
0.0222252
9.20623
0.0215425
0.0311357
0.0634118
0.0218248
0.0215078
5.27069
6.25496
0.0642705
0.0220809
0.0248645
0.0529147
0.0217634
0.0344692
0.10095
0.039604
0.0231113
6.75486
24.825
0.0215381
0.0221333
0.021646
0.0221945
0.0226153
0.0267221
19.5998
0.0221205
0.0219591
0.0437555
20.8355
0.0215508
1.53318
0.0215674
0.135111
0.0578875
7.699
0.0692455
0.0531902
0.0559201
0.021493
0.0215016
0.247019
0.0254568
0.0220877
0.852721
0.0218249
0.0220844
0.0216143
0.0491771
0.214556
0.575676
0.144689
0.0279781
0.02936
0.0219107
11.5382
0.208155
0.0230023
0.0219708
0.0217223
0.0942931
9.12604
0.0357844
10.153
0.0228486
0.0217647
4.84658
0.0219357
5.94533
10.4999
0.0216773
0.0296209
0.257869
0.0241422
0.0357028
0.0218172
5.06467
0.0261086
0.16128
5.47536
9.41048
0.0276003
0.0274688
0.0221364
0.150055
11.5095
0.0227576
0.0238014
5.32352
0.0490256
0.0669197
0.0222635
4.46571
5.23952
0.096394
0.0219385
0.0262888
0.0218918
2.41479
0.0742147
0.0336016
9.5832
4.87417
0.0214907
0.155685
0.0221012
5.0831
0.0927635
0.0261175
0.0248321
0.915065
0.0213975
0.0639522
6.40408
4.83464
0.0229749
0.0220312
0.0217867
0.0880636
1.73235
0.172861
5.60115
0.0967833
0.0413332
0.0217518
5.07769
0.0800624
0.0283128
0.189613
5.58993
5.31951
5.16481
9.37223
5.64376
5.82849
0.0220503
0.0287844
0.0328704
0.0218171
11.5759
0.804771
0.0220193
8.1158
0.0221301
0.0219897
0.0217688
0.030869
0.0218627
5.11845
0.0610393
0.225701
0.0216416
0.559668
0.0476736
0.41067
5.15925
0.0225273
0.0274896
0.0377555
0.0665571
0.0217355
0.0215958
0.021887
4.81454
0.0217759
0.0217439
0.185794
0.0231241
20.3424
0.0220455
6.75192
0.0219467
0.0220601
0.0219449
0.0219712
0.0264253
0.0243764
8.51179
0.0310093
0.0365805
6.1238
0.0218107
7.31707
0.0217907
6.49218
1.55254
5.97094
0.066828
0.0219611
0.0222725
6.80292
0.0219524
0.0259243
0.0221121
0.0294093
6.56704
0.0218836
0.0218446
0.02187
0.0222651
10.252
10.638
0.0218123
0.0214364
5.15619
9.87843
0.0218571
5.1699
0.0222642
8.57661
5.83729
0.0702111
0.35464
1.04865
0.0853972
4.8939
0.0818042
0.0219632
0.02153
0.0217816
7.3919
10.0609
0.0229528
0.0281816
4.88309
0.0218316
5.38854
0.0217817
0.0218578
0.0216055
6.77799
0.0755658
0.021732
4.75189
0.0222526
7.50377
5.10137
0.0217187
0.0221104
0.1201
0.0219495
0.0218777
0.0218273
3.3901
0.0317963
0.0220312
0.0221304
3.21196
0.0219284
0.0408243
0.0219833
6.01529
0.0221016
0.104077
0.0233223
5.05449
7.87284
0.0311458
0.0866893
0.0562923
0.0220746
0.0756442
5.50454
0.0217251
0.0838917
0.0217612
0.543298
0.0218886
5.98582
3.32663
0.10609
4.85081
4.84689
0.0407793
0.0224074
2.02568
0.0219303
11.5755
0.0252919
0.973105
0.0218597
0.0325875
0.0475151
0.0303052
0.022093
0.0219304
0.0221956
5.66493
0.0728011
4.70508
2.67457
0.0274973
0.0216072
0.0544155
11.9092
0.033488
0.0217582
0.0220802
6.80597
4.48543
11.2968
5.78786
0.0360248
0.0222561
0.0217733
0.0520088
0.0512103
0.746686
0.0219973
0.0220693
34.4562
0.0663714
0.0222853
0.0639098
0.791124
0.106499
0.0215807
0.0483345
0.557124
1.05552
6.89163
0.249208
0.0218674
0.0222691
0.0220032
0.0222849
0.0219468
0.0220908
0.0332874
0.221919
0.0341374
0.0271794
0.0287961
0.0221877
0.0260472
0.0224031
0.034713
0.0326696
0.0218106
0.0282451
0.021888
0.0218391
0.0224721
0.0221205
0.397844
0.0215749
0.0777552
0.632339
1.25502
8.82733
5.71675
0.0223363
0.0222368
0.0218968
6.6598
0.0217851
0.0214616
0.0221745
6.44266
0.0311202
0.0339818
0.407068
0.0233452
0.0220314
0.0296337
0.0218731
0.0481893
0.0222854
0.0341384
0.0217775
0.0219216
0.0228981
0.0234552
0.024848
0.656234
0.0384446
0.11227
0.0604607
0.127541
0.0441043
0.0687749
0.021775
5.09571
0.0244314
0.0265847
0.0219268
0.022558
0.122648
0.0219815
0.0642984
6.99763
0.0292098
0.381444
0.10478
0.053947
0.0696204
0.0602364
0.0219256
0.0286208
0.0220905
0.0788574
0.0514624
6.10106
0.0217541
0.0481175
0.0263367
3.98055
0.995372
0.046291
0.0220982
0.0523189
0.0215633
0.0682117
0.0227266
4.7481
0.0216425
0.0257889
0.0220158
0.036001
0.131604
0.0306873
8.84843
0.0220387
0.0300028
0.0609046
0.0220147
7.01403
7.9894
0.158279
0.0548626
0.0479547
0.0217586
0.0217325
9.25798
0.103056
0.021591
0.0223628
0.0249316
0.0218948
0.40974
0.0217684
6.99381
0.145057
0.147261
0.0373988
0.0223064
0.0216547
0.0217841
0.15293
0.0813144
0.0265419
5.12025
0.0221741
0.0230803
0.0271708
8.90851
0.0214807
0.644192
0.021398
5.88592
0.0219065
0.0218935
0.0380241
0.0219842
0.0222099
0.138769
0.0220655
0.0222809
0.0217419
0.0444334
0.0254992
1.80202
0.0219892
0.0220867
0.0218451
0.130702
0.0218009
0.0285062
0.0419507
6.30923
9.83737
10.9973
0.845142
0.39742
0.041351
0.0625002
0.0272
0.0222511
0.0221208
7.03245
0.0574418
0.0215329
0.0219613
0.0219526
0.0274924
0.0816542
0.0222517
0.0301116
0.119798
0.169333
0.11759
0.0219643
0.0222376
2.79708
0.0235412
0.0215597
3.78501
8.03454
0.0216844
0.0214214
0.0267764
0.0220545
0.0379359
0.0222485
2.07593
0.0222726
1.77431
0.0219422
5.3742
0.0297884
0.0219374
0.0626856
0.0215719
0.0218926
0.0222647
0.0327215
0.507931
0.0218507
0.166046
0.0222855
0.0221997
0.114146
0.0216539
0.0221284
0.0221023
0.0214604
0.0219523
0.0214876
0.0221666
5.47068
0.0218532
0.0217191
0.0573161
0.0216144
0.0219319
0.0221678
0.0221371
9.45329
0.409366
0.0219894
0.0227126
0.0218604
0.0222855
0.193993
0.0220552
0.021983
7.97634
0.0219579
0.0456133
0.0577724
0.0379745
0.0218062
0.204516
0.0219029
0.290776
0.0688962
0.0218251
8.68696
2.07361
0.0281414
0.12171
0.0218272
0.0218653
0.045212
0.219993
0.0217355
0.0218547
0.0221668
0.0410165
0.0221039
0.0361824
0.0221114
0.0474309
1.5339
0.0392065
0.18041
0.0218369
0.0244047
0.0226839
0.023326
0.0216806
0.0218901
0.0228507
0.0232124
0.0678653
0.0223377
0.0968038
0.0218227
6.22135
0.0215088
0.0217717
0.0737449
0.0222715
0.105377
0.0889998
0.0373219
0.0218611
0.022863
0.0218867
0.0373827
0.0220657
0.0554606
0.0255284
0.0221422
0.0216606
0.0273586
7.90942
0.0319328
0.0519578
4.56342
0.843226
0.0388745
0.0215657
6.1343
0.0219399
0.023488
0.0223781
0.104193
0.0218881
0.0353806
0.0277332
0.0235058
0.0221217
0.0253415
0.0222
0.0607605
0.0219297
0.0221858
0.0219487
0.0283956
4.2094
0.0219846
8.59333
0.0858692
0.0214423
9.15988
0.27305
0.0217611
0.0232187
0.0888921
0.021787
0.0218958
3.77524
0.0220272
5.0027
0.0254268
0.0245816
0.0226215
0.0222996
0.02191
0.02178
0.0609558
0.0224997
0.021959
0.0219069
0.0221384
5.52371
0.0366577
0.0220337
0.0289196
0.148846
0.0662543
0.0218774
0.021983
0.0219447
0.024938
0.0227543
0.0223808
0.0270927
6.40532
0.0217587
0.0229816
3.23621
0.0245413
0.106913
0.144822
0.0218664
0.02227
0.412489
0.0873239
0.183035
5.54819
5.07333
0.184063
6.52647
0.0217353
0.0231273
0.0216777
0.0221869
5.47171
0.0219767
0.0559517
0.0669451
0.0293169
0.0249547
0.59927
0.0218987
0.022117
0.0252595
0.0219315
0.0220485
0.021733
0.0219631
0.0704119
0.0219347
0.0221295
0.0217766
0.0457261
0.0221325
8.25105
0.0219117
0.0228863
0.0218125
0.0222521
0.0227244
0.021943
0.0379769
0.02291
0.021926
0.0281674
0.0220072
0.0222646
0.021982
0.0309687
0.0222847
0.0220327
0.0220463
0.0220597
0.0288496
0.0220192
0.0220065
0.108356
0.0220748
0.0219135
0.0237439
3.1986
0.0519345
0.0222964
0.0541847
11.0928
0.119996
0.218926
0.0239025
0.0227694
0.0267807
0.321836
0.0220442
0.231495
0.0224245
0.0218897
0.0283028
0.0220514
0.0710077
0.0775847
0.0648494
0.0229356
0.0219407
0.0284802
0.0272203
0.0228672
0.0243131
0.0232815
0.0442101
0.0749118
0.0753963
0.0219248
0.0237959
1.77638
0.0230749
0.0222853
6.03291
0.507552
0.02194
0.0223742
0.02307
0.0749374
9.80057
0.0219541
0.363715
7.73915
0.0383068
0.0593779
0.0216245
0.0235739
0.0226194
0.0837304
0.0222319
0.0294772
0.0233563
0.260601
0.0221937
0.0220613
7.41099
0.0234525
0.0229551
0.022136
0.0222126
0.0380036
4.90681
0.0278425
0.0220425
2.86359
0.0983652
0.0222634
0.0219491
0.0218243
0.0241098
0.0216725
0.194544
0.0218572
0.0243283
0.024929
0.061036
0.026214
0.0218196
0.0272149
0.0242061
0.0218206
0.0993668
0.0218641
0.0233776
0.0216817
0.0222719
23.3197
0.0284912
0.0222448
4.81684
0.0227392
0.0219459
2.39883
0.0698946
4.70769
0.0219158
0.0229731
0.0218698
0.0225379
0.022983
5.68191
0.0224415
0.0907332
0.0217477
0.0220205
0.0235225
0.0219324
0.0365978
7.85529
0.525165
0.021948
0.0217164
0.24275
0.0225206
0.0221126
0.0262922
0.0271021
0.407904
0.0835458
0.0227691
6.32625
0.0905369
0.0223918
0.0217182
0.0221871
0.0283789
4.97504
0.0222839
0.0672028
0.0226773
0.0220905
0.0215508
0.022225
15.697
0.0268722
0.0217478
0.0237285
0.022095
0.0252787
0.0214289
0.0230778
0.0219434
0.022846
0.430436
0.0220339
0.022213
0.0990705
0.0215911
0.0215453
7.56631
0.0218744
5.77747
5.60376
11.5492
0.0265337
0.0221251
0.0214969
0.0221391
0.0214694
0.0236185
0.213089
0.0518639
0.426015
0.084237
0.0240979
0.0215752
0.0229157
0.0225847
0.0222725
0.022118
0.0215358
0.073899
0.0224807
22.9602
0.0222583
0.0226925
0.0222635
0.0220382
8.95081
0.140439
0.0285153
0.0214943
0.0534955
0.023043
0.0219691
0.0832216
0.0214459
0.0232659
7.59925
0.0219561
0.0218905
0.0218893
5.924
5.09981
0.0215893
0.022593
0.024391
0.0220915
0.0216058
0.0219485
0.0220759
0.0218997
0.021843
0.0218981
0.0241277
5.23255
0.0380749
0.021932
0.021929
0.0222653
0.0221037
0.0221775
0.0258996
0.0274507
15.2293
0.0258065
0.0221714
0.0225307
0.0219435
0.0950391
0.0215878
0.0222236
0.0232059
0.0286292
0.0266206
8.26555
0.0220935
0.0305735
0.0226244
0.0225721
0.0221044
0.0215697
0.0229109
0.114613
0.18577
0.0217267
0.0372291
0.0751386
0.0222647
0.0400925
0.0383283
4.5013
0.0222495
0.0235446
0.022473
0.0215797
0.0766783
0.0219561
0.0219967
0.0532203
0.225607
0.209608
0.02176
0.0219067
7.18302
4.71794
0.0215618
1.84808
4.649
0.0218204
0.0215665
0.0216696
0.0220603
0.0221405
0.0215308
0.02839
6.3846
0.0217647
0.0219569
0.0216861
0.022158
0.021792
0.0218347
0.0215223
6.0182
0.0219949
0.230353
0.0221528
0.0217981
0.0229367
0.0218318
0.0221758
0.0291598
0.0221553
0.0222922
6.97845
0.0219899
0.0250284
0.0220213
0.0219655
0.022141
0.0218101
0.11927
0.0220576
0.0221068
0.0219872
0.1936
0.0326382
0.0221332
0.0221754
0.0219355
0.0230348
4.78015
0.023357
0.0236401
0.0219478
0.0221235
0.0219374
0.0516822
0.0231654
0.0228026
0.404379
0.0443963
0.0218038
0.0251504
0.0220002
0.022352
0.0218134
5.2386
0.0219591
0.0220574
0.0218027
0.0296474
0.0234325
0.0226687
0.021919
0.0217864
0.0619252
7.87815
0.0218132
0.0555183
0.0234488
0.023352
10.4987
0.0217422
0.0219824
0.021948
0.0237247
0.0232059
0.021791
0.024273
0.0219042
0.0995373
0.021498
0.0217145
0.0250754
0.0221427
0.0929462
0.0257971
14.863
0.0653734
0.0222121
0.106135
4.93281
0.022423
0.0245383
0.0220683
0.025237
0.0217768
0.0395514
0.0439994
0.021879
0.028983
0.0217504
4.99733
0.0222004
0.0235304
6.19372
0.0444487
0.0240228
0.153537
0.0221565
0.0219951
5.12253
0.0217374
10.5863
0.0218433
0.0218615
0.0768728
8.26442
0.0219086
0.0427346
11.4574
0.021852
0.022175
0.0219928
0.0274462
0.02553
0.0227806
0.0220037
4.74075
0.0219611
0.0225711
0.0219357
0.0218962
0.0220361
0.0234311
0.0283796
8.23333
0.0222314
7.57068
0.0219368
0.0226146
0.0245422
0.0225749
0.0626755
0.0641986
0.0224005
0.0219217
0.021824
0.0944193
0.0217117
0.0218288
0.505153
0.122801
0.0217053
0.0220014
0.0217587
0.0220895
0.0246492
0.0799653
0.0219634
0.0221268
0.0217425
0.0221512
0.0219618
0.0214994
0.0271088
5.12813
0.0216931
0.0221892
7.61875
0.0219026
0.0384079
0.0220691
0.0302175
0.0554303
20.5384
0.0222613
0.0220546
0.0217868
0.0221317
0.0220413
0.0214401
0.0221446
0.0221269
0.0232211
0.0574676
0.0250159
0.0234933
7.21427
0.0220277
0.143887
0.0217171
0.0217961
0.0220146
5.53402
0.0218373
0.0546033
0.0229845
0.0226076
0.021934
0.0217454
0.0217646
0.0223234
0.0218491
0.0218145
0.0479509
0.270844
6.86853
0.0217895
0.0499566
0.0223024
0.0220848
0.0217375
0.0220797