/*--------------------------------*- C++ -*----------------------------------*\
| =========                 |                                                 |
| \\      /  F ield         | OpenFOAM: The Open Source CFD Toolbox           |
|  \\    /   O peration     | Version:  v2012                                 |
|   \\  /    A nd           | Website:  www.openfoam.com                      |
|    \\/     M anipulation  |                                                 |
\*---------------------------------------------------------------------------*/
FoamFile
{
    version     2.0;
    format      ascii;
    class       surfaceScalarField;
    location    "900";
    object      meshPhiCN_0;
}
// * * * * * * * * * * * * * * * * * * * * * * * * * * * * * * * * * * * * * //

dimensions      [0 3 -1 0 0 0 0];
oriented        oriented;


internalField   nonuniform List<scalar> 
14885
(
-0.000436283
-0.00131178
0.00174858
-0.0140331
0.00766212
0.00657562
-0.00052754
0.00489444
-0.00404016
0.00451641
-0.00625484
0.0013334
0.000293052
-0.00222247
0.00271308
0.00780969
-0.00165386
-0.0062775
0.00169557
0.00661083
-0.00789996
-0.00334053
0.00397477
-0.000620526
-0.00161457
0.00117348
0.000538816
-0.00356904
0.00143359
0.00229883
0.000824214
0.00346158
-0.00434789
-0.00669945
-0.00714361
-0.000926841
0.00631242
-0.00509026
0.00078505
-0.00184673
0.00112434
-0.00493163
0.00141458
0.00329915
0.00192666
-0.00110693
-0.00629065
0.00563773
0.00049758
-0.00335876
0.00411072
-0.00266342
0.000647947
0.00235369
0.00308731
-0.000924566
-0.00222016
-0.0055213
0.00486811
0.00116642
-0.00158633
0.0067556
-0.00216281
0.000482337
-0.00481718
0.00430784
-0.000898012
0.000145346
0.000695588
-7.35607e-05
2.33561e-05
8.676e-05
-0.00271853
-0.000429315
0.000152586
-0.000115859
1.72792e-06
0.00110807
0.00655628
-0.00130359
-0.00295203
0.00433245
0.000207978
4.97764e-05
-0.000291332
-0.00830732
0.00133147
0.00712906
-0.00140175
0.000424045
0.00119695
-0.000391365
-0.000715521
-0.00387889
0.000518855
-0.00363883
0.00322314
0.00036204
0.00426329
-0.000902512
-0.00278173
0.000151498
-1.09271e-05
-0.000252079
5.85934e-05
0.000307326
0.000296103
-0.00031593
1.13172e-05
0.00430385
-0.00551161
-0.000989195
0.00740775
-0.00881013
0.00150294
0.0126753
-0.010985
-0.00129958
-0.00195971
0.000263321
0.00174122
-0.000424214
-0.000844141
0.000337789
2.16697e-05
-0.000355347
-0.00476335
-0.000618733
-0.000584897
0.00520125
-0.0043018
-0.00991567
0.0106632
-0.000500995
0.00824399
-0.000713419
5.0503e-05
-0.00150846
0.00144628
-0.00529173
-0.000248762
-0.00215313
0.0118452
-0.0107956
-0.000796932
0.0118728
-0.0107951
-0.000850378
-0.000770895
-0.00458121
-0.00517513
0.00175289
0.00369206
0.000120387
5.08671e-05
-5.36841e-05
-2.80962e-05
2.70148e-05
1.71252e-06
-0.00501813
0.00479554
-0.0110179
0.0106425
0.000828326
-0.00771346
-0.000939727
-0.00317413
0.00368182
-0.000519422
-0.00137743
0.000203279
0.00120809
-0.00139794
0.000394354
0.00119089
0.002254
-0.000889872
-0.00144241
-0.00170167
0.00216672
-0.000420184
-0.000112485
-0.000239874
0.00037662
-0.00196688
0.000316828
-0.00815996
0.00861926
-0.000300209
-6.54234e-05
-0.00120062
0.000818681
0.000196447
0.00104327
-0.00117766
-3.68366e-05
0.000225723
-0.000749389
-0.000261336
0.000198853
0.000918736
-0.00187431
0.00103201
0.00036486
-8.87442e-06
-0.00104333
0.00202309
-0.00225684
0.00323713
0.0114694
0.00139282
0.00477153
-3.9488e-05
0.00038361
-0.000135273
-0.000869289
0.000210309
0.000356044
-0.000452714
0.000193292
0.000609299
0.00658645
-0.00658888
0.000257647
0.0017792
0.00051618
-0.00503914
0.0048381
0.00184376
-0.00238891
0.000112659
0.000571797
0.001211
-0.0018607
-0.00554653
0.00395158
0.00185673
-0.00234229
0.00362313
-0.00765664
0.000130063
-0.000725157
0.00761528
-0.00161464
0.000154318
0.00127028
0.00118203
-0.0016275
0.000152355
-0.00820192
0.00807085
0.00212624
-0.004818
0.00582976
-0.000864306
0.000486079
-0.00010968
-0.000476409
-0.00381757
-0.00139916
-0.00398845
0.00473246
-0.000333819
-0.000278532
-0.000742913
0.00158433
0.00611177
-0.0081622
-0.00290671
0.000311528
0.00290409
-0.00218043
0.002057
1.30467e-07
-0.00391733
0.0108005
-0.00667249
-0.000569867
0.000143342
-0.0060697
0.00812289
0.000153829
-0.00214738
0.00032387
-0.000677731
6.80477e-05
0.00208645
-0.00778782
-0.00405724
0.000420969
-0.00376554
0.00058008
-0.00019276
-0.00126254
-2.01314e-05
-0.000307703
0.000300659
0.00228701
-0.00581868
0.00376384
-0.000422825
0.000174687
0.000491553
-0.00123933
-0.00362306
2.83412e-07
-4.29244e-06
-3.4823e-05
-2.82322e-05
-2.05543e-07
-0.0117959
0.00640288
0.00569873
-0.00825399
-0.0033628
-0.000604862
-0.00169438
-0.000891206
0.00139322
0.00157833
-0.00194959
0.000201149
0.00214387
-0.000215393
0.000824516
0.0112891
-0.00783736
0.00739851
0.000557735
0.0062544
-0.0037488
0.000729042
-0.000714424
4.51095e-05
-0.000270604
8.28804e-05
0.000112758
0.000157248
-0.00134459
0.00106493
-0.000217101
0.000168017
-7.75242e-05
-0.00468718
0.00707494
-0.000599665
0.00842019
-0.00755317
5.54649e-05
-0.00014882
0.000102681
-0.00654865
-0.00766663
-0.00318572
0.00324013
0.000392953
-0.00580547
0.00113422
-0.000863512
0.0073963
-0.00636797
-0.000272598
4.71635e-05
0.000316992
-0.0125102
0.00883953
4.13755e-06
0.000184316
0.00041523
-0.00058593
0.000310848
2.99506e-05
-1.7573e-05
-0.000157156
8.63524e-05
-0.000415879
0.000336992
0.00376804
-0.000109061
-0.00327855
0.00176425
-0.00670419
0.00507134
-0.000443103
-0.000209806
0.000147409
-0.000168663
-1.33072e-05
0.00349577
-0.00304785
-0.000578379
-0.00606894
0.0067999
-0.000580042
-0.000244224
-0.00158991
-9.07209e-05
0.000639879
-0.00716474
-0.000561749
0.00960788
0.00245943
0.00149972
-0.00144104
-7.26859e-06
-4.67081e-05
0.000347392
0.000156971
-0.000199283
0.00025866
1.55656e-05
-0.00797844
0.00765596
-3.90166e-05
-0.000133138
0.00190852
-0.00120182
-0.00655285
0.00850635
-0.00124639
0.00152409
0.00849038
-0.00216472
-0.000331872
-0.00330016
0.00075853
-0.000219636
-0.000299887
-0.00234145
0.000265763
0.00186605
0.0028646
-0.00576043
0.00819367
0.00178047
-0.00971561
0.00067901
0.00204324
-0.0020661
0.0102452
-0.00177743
-0.000137592
-0.000273777
0.000404317
0.000218422
-0.000355655
-1.88531e-05
-0.000246325
0.000202683
-0.000399905
-0.00226348
-0.000287774
-0.00321886
0.00134207
0.00213314
0.00051203
-2.7307e-05
0.000228884
-0.000308667
-0.000383754
0.000118127
0.000313864
-0.00352719
-0.00186635
0.00566231
0.00034745
-0.000826958
1.33237e-05
-2.87185e-05
1.4407e-05
-0.00839577
0.000338307
0.00825776
0.00116882
-0.000997984
-0.00017706
-0.00219656
0.00478394
-0.0053859
0.000904547
8.4977e-06
-0.000722915
-0.00234854
0.0120964
-0.0124262
0.000643405
-0.00413183
0.00164243
-0.00527653
0.00929468
-0.00393177
-0.00282954
0.000331815
0.00257765
0.00846154
-0.0078594
-0.000566861
-0.000994048
-6.30025e-07
-0.00691615
0.00821312
-0.00115373
0.00771679
-0.00735183
-0.000168034
0.00754537
-0.00132262
-0.00623571
-5.83625e-05
-5.65067e-05
-8.05505e-06
0.00515181
0.000850365
-0.000111809
-0.00143513
0.000385141
0.00453419
-0.00505337
-0.00628246
0.00046295
-0.000270811
-4.30129e-07
-0.000355916
6.60857e-05
0.000377881
-0.000141576
-7.94506e-06
0.00676866
0.000710712
0.00773788
-0.00709676
-0.000483287
-0.00180877
0.00490574
-0.00227453
0.00151876
0.000414412
-0.00187667
3.43136e-05
-0.00052078
0.000461484
0.00122892
-0.00744814
0.00660189
0.00397358
-0.000123401
-0.00442913
0.000621824
0.00824423
0.000639981
-0.00881811
-0.000282351
-0.00213356
0.008961
-0.000619023
-0.000421186
-0.00302372
-0.00363475
0.000256876
-0.000461475
-0.00438322
0.00495374
-8.88589e-05
0.000327831
-0.000266552
0.00241545
-0.00146431
0.000445758
-0.00034013
5.67661e-05
7.9068e-05
0.00138962
0.000923194
-0.00514858
0.0019251
-7.80859e-06
-0.000331151
0.000102295
-0.000207911
0.00365726
-0.000905306
0.000298076
0.00098363
-0.00865759
0.000506661
-0.000398266
-8.3904e-05
-0.00446591
-0.000430625
0.000658934
-0.00694357
0.00655441
-0.00458944
0.000585007
0.00437414
-3.10938e-05
1.16449e-06
0.000215292
3.84987e-05
-0.00987907
-0.000643983
0.0108467
-0.00235378
0.00342646
-0.000650965
-0.00364519
-0.000331351
1.3526e-05
0.00189495
0.00145987
-0.00170207
4.95363e-05
0.000282952
-0.00286828
0.00104182
4.73678e-05
-0.00791871
0.00376595
0.00428248
-0.00283517
-0.00554586
0.00877237
0.00391351
0.000466812
-0.000315167
-0.000363833
0.000141365
0.000915806
0.00369059
-0.00249289
-0.000766585
0.00481014
0.00330926
0.000108677
-0.00375967
0.00312364
-0.000288371
0.00144405
1.03069e-05
0.000319563
-0.000264113
0.00086569
-0.000838192
-0.000358711
0.000385314
0.000346709
0.00871558
-0.010983
0.00112188
-0.00146925
-0.00344515
-0.00442454
7.29085e-05
0.000205723
-0.000981916
-0.000362975
0.00172837
0.00139559
-0.0071257
0.0050569
-0.00892959
-0.00064783
0.00200389
-0.00187135
-1.11688e-05
0.00837827
0.000448935
0.000757779
0.0032447
-0.00433149
0.00116985
0.00337607
-0.0039972
0.00129686
0.00255924
0.00195922
-0.000158185
-0.00146554
-0.0012794
0.000684991
0.00125038
-2.12413e-05
2.00045e-06
-0.000467737
0.00464435
-0.00374496
-0.00854992
0.00334173
-0.000463662
-0.00333445
0.00628397
-0.00198695
-0.00114125
-0.00831199
-0.00022823
0.00857553
-0.00200061
-0.0033968
0.0055821
-0.000295359
-3.65733e-05
0.000365402
-0.000145391
0.00121932
-0.00102633
9.31977e-06
6.44028e-05
-0.0050233
0.00451755
0.000695201
0.000206325
-0.00377297
0.0039433
-6.7434e-05
0.00165027
-0.000729856
-0.00350465
0.00535973
-0.00154504
0.00135123
-0.000955317
0.00171076
-0.000907426
0.00714057
0.000382317
-0.00698924
-0.000682439
0.000855106
-0.00556191
0.00637373
-0.000366325
0.000374686
0.000306208
0.00640687
1.86369e-05
-8.48747e-06
0.00684224
-0.00593318
0.00284025
-0.004707
-0.00426184
-0.00638703
-0.0021668
0.00248565
-0.000178157
-4.71978e-06
0.00021279
0.00711663
0.000317966
-0.00485311
0.00152442
0.00399994
0.000100882
1.23441e-05
0.000360556
-0.00062841
-0.000239936
0.00138211
0.000708737
-0.00179953
-0.00346099
0.00404674
-0.00106126
0.000958298
-3.02448e-05
-0.000318753
-0.000226479
-0.000141041
0.00486573
-0.000416339
-0.00436982
9.00874e-05
-0.000140113
-7.19217e-05
-4.02237e-05
7.69244e-05
0.00852033
7.47696e-05
-0.00111599
-0.00296495
-0.0025832
0.000314822
0.0022669
-0.000569221
0.000530218
5.99765e-05
0.0019509
-0.00296926
0.00268967
-0.000298854
-0.00215799
-8.52167e-05
1.29322e-05
-5.2433e-05
-0.000624598
-0.00416412
0.00125634
-0.00158959
0.000315141
-0.000966048
5.73279e-05
0.000725889
-0.00201863
6.32427e-05
-6.08194e-05
2.75467e-05
-0.00469124
0.00493268
0.000210121
0.0010832
-0.0130026
0.00879475
0.00459364
-0.00220259
-0.00037711
0.00133759
7.48646e-05
0.00088043
-0.00715156
-0.00673245
0.00602084
0.000707626
-0.00539975
0.00482996
-3.39948e-05
-2.78701e-06
0.00220832
-0.000234635
-0.0018309
0.000383829
-0.000220371
-0.00016883
0.0003982
-0.000433724
0.00180198
-0.00206931
0.000141373
-0.000139055
0.000105003
0.000265618
-0.000263759
0.00244387
-0.00184381
-0.000175875
-0.00204282
0.00201517
-0.00130442
0.00127741
-0.00182536
0.00190419
0.00102295
-0.00122312
0.000256121
-4.531e-05
0.011082
0.000301653
0.00253173
-0.00469797
0.00438925
2.0192e-05
0.00100831
0.00749868
-0.00830592
-4.44725e-05
2.46373e-05
-4.21908e-06
0.00190707
-0.000104662
-0.0043437
0.00401068
-0.000745319
0.00113834
-0.00463652
0.00061654
0.00422213
-0.00478392
0.00591221
8.50097e-05
-0.000406956
0.000561902
-0.000262713
0.000181863
-0.00170367
0.00157722
-0.00159453
-0.0122171
0.0110433
0.00142656
-8.92645e-07
0.000115101
7.85349e-05
-2.35008e-05
9.67245e-06
-9.67245e-06
-0.00443067
-0.00173352
0.00213519
-0.00200198
-7.77118e-05
0.00446601
-0.00306467
0.000893981
-0.00701112
0.00651323
0.000888387
-0.00963891
0.00937599
-0.00587199
0.00174318
-0.000920005
0.000511102
3.89307e-05
-0.00606492
0.007324
-0.00154918
0.00197565
-3.19629e-05
1.05373e-06
-0.00842227
0.0032775
0.00528794
6.21154e-05
0.000494983
-0.000102287
-7.85127e-06
-0.000776587
0.000681218
5.15822e-05
-0.000293077
2.98416e-06
0.0033904
-0.00229015
0.00899023
-0.00892243
1.72627e-06
-0.00187383
0.00149669
0.000384348
-0.00361174
0.00340296
0.000858223
-0.00561961
-0.0108889
0.00569963
-0.00701395
0.000434525
0.00651002
-0.000604314
-0.00327676
0.00339075
0.00557828
-0.00479895
0.00624966
-0.0018722
0.000208594
-0.00839657
0.00904151
-0.000558127
0.000489071
-0.000448348
-2.65879e-05
-0.010448
0.00230335
0.00774347
-0.00994437
-0.000238279
0.00133399
-0.000454668
-0.00609539
-0.00125755
-0.000171374
0.00137608
-0.000726869
-0.0060067
0.000618593
0.0029237
-0.00761816
0.00370981
0.00390541
0.00085217
-0.00148636
0.00092639
-0.00399149
0.00494716
-0.0001314
-0.00217886
-0.00364992
0.000490914
0.00316979
-0.00271294
0.000320437
0.00251959
-0.000187703
0.00123805
-0.000696102
-0.01112
-7.64518e-06
-0.000100292
0.000122956
-0.00103193
-0.00164016
-0.000187671
0.000237731
4.60889e-05
-0.00382327
0.00472579
0.000122667
0.000342709
0.000203335
-0.000332521
0.000173544
-0.00232064
-0.000947169
0.00350394
-0.00131401
9.97762e-05
0.00166331
-0.00319303
-0.00431632
0.00184626
-0.00219563
0.00561847
0.000703465
-0.00285191
0.000225051
0.000192697
-0.000672069
0.00178289
0.00130093
0.00189954
0.000141121
-0.00142305
-4.97975e-05
-0.000379706
-0.0081782
-0.00043292
0.0087492
0.00350459
7.96882e-05
3.43259e-05
-6.41652e-05
-0.00953449
-0.00107
-6.56428e-06
1.81332e-05
-1.13991e-06
0.00100247
-0.00390546
-0.000238937
-0.00265955
0.00323309
0.0003583
-0.000237447
-0.000421231
1.61849e-05
0.000407088
-0.000772211
-0.00281387
-0.000353481
-0.00741154
0.00308274
2.63856e-05
-0.000240555
0.000123259
-0.00409436
0.003195
-0.00515379
0.00691827
-0.00149175
0.00159847
-0.00653869
-0.00603565
-0.00218751
0.00310393
0.0039333
0.00163715
-8.32603e-06
-0.00158695
0.00970613
-0.000633259
1.56366e-05
-1.73205e-05
0.000195275
-0.000146403
0.000504815
0.00052548
0.00748406
-0.00380588
-0.00349042
0.00284873
-0.00292119
-4.50322e-06
0.000150552
0.00264657
-0.000161762
-0.000593386
5.42017e-05
0.0014526
-0.00386424
0.0039229
-0.00213061
0.00356965
-0.00175562
0.00180263
-0.00756282
0.00743145
0.00107114
-0.000944809
-0.000112802
0.00888005
-6.98471e-05
-0.00875063
-0.00865505
0.000668314
-0.00623757
0.00103508
0.0054129
-2.9289e-05
9.82079e-05
-0.0050748
0.00481063
3.50523e-05
-0.000132408
-0.00305566
-0.00745718
0.000527061
-0.00457542
0.0034874
-0.00248272
-0.000139037
-0.00197546
0.00140828
-0.00482862
-0.000793685
-0.000230951
1.5509e-06
-0.002534
0.00310354
-9.57657e-05
0.000107478
-0.00103935
-0.00277739
-0.000899847
0.00509724
-0.00407935
-0.000119838
0.000273604
-0.000860815
0.000584014
3.2275e-05
8.97944e-05
-0.00767623
-0.00329914
0.0110446
-1.80513e-06
7.86009e-05
0.00259162
-0.00224318
-0.000208133
-0.0056212
0.000528525
0.00544436
0.00620773
-0.00648087
-0.000830205
-0.00029398
0.000239421
0.00475776
0.000754571
-0.00702697
-0.00101602
0.00831099
0.000725785
-0.00113241
1.22805e-05
-0.000148246
0.000273816
-0.00405135
0.00368704
-0.011223
0.00327855
0.00177154
-0.00466388
-0.000358304
0.00545616
-0.00520118
-0.00163833
-0.000990837
0.00246717
0.000198934
-2.05989e-05
-0.00016587
0.00021628
9.12108e-06
0.000278782
-0.000192063
0.000447056
5.68129e-05
0.000225006
-7.67787e-05
1.46689e-06
-0.000445161
0.00470318
-0.000973773
0.000237142
-0.00770537
0.0061942
0.00161249
0.00125917
3.17273e-05
-0.00118438
-8.61165e-05
0.00494765
-0.000763394
-0.0021854
0.0020803
-0.00657747
0.00270288
0.00391736
0.00130494
-0.00165495
5.37099e-05
0.00124855
-0.00116801
-7.42977e-05
0.000453527
-0.000278706
0.00462555
-0.00507919
0.00128974
-0.000440352
0.00064734
-0.000389867
-0.00985389
0.0053128
0.00508666
-0.00214108
0.00254882
-0.000303333
0.00015331
0.000860212
0.000268159
0.00135657
0.000807019
-4.22248e-05
-0.000406514
0.00018111
2.39365e-05
-0.00838237
0.00160618
-0.00127548
-6.07537e-05
7.40314e-05
6.07329e-05
-5.31112e-05
-0.000758457
-0.0047572
-0.0010104
-0.000898289
0.000107206
5.91144e-05
9.33006e-05
0.00411181
-0.000125811
-0.00335338
-0.000541848
-0.0104535
0.000889691
0.000197408
-0.000686952
0.000281095
-0.00257667
0.000294287
0.00247858
0.000649489
0.00264869
-0.00436104
0.00552445
-0.00560487
0.000381748
0.0040478
-0.000945087
-0.000953639
0.000940217
3.64705e-05
-0.00423345
-0.00537368
-3.74483e-05
1.50935e-06
0.00106589
0.00936506
-0.0100186
0.00525461
-0.00160691
0.00120581
-0.000383161
-0.000724214
0.00299478
-0.00272962
-0.000103402
-0.00630829
-0.00646853
0.00729879
-0.000948927
-0.00600081
-0.00222932
0.000102692
0.000148241
-0.00013916
-8.5339e-05
0.000233145
0.000348351
2.8789e-05
-0.000396668
0.00047044
2.93063e-06
-0.000483294
0.00378876
-0.000648284
-0.00277466
0.00159924
0.008311
-0.000909629
-0.00701062
-0.00180337
0.00208169
-0.000110771
-2.33154e-05
1.26687e-05
1.18038e-05
-0.010219
0.00968551
0.000765107
-0.00233118
0.00294243
0.00301203
-5.97946e-06
-3.82538e-05
0.00166833
-0.00130407
-0.000152294
-0.00105858
-0.0088519
-0.00418197
-0.000309515
-0.000366503
-0.00214142
0.00408261
-0.00479642
-0.0110781
0.00485664
0.0057076
-0.000728837
0.00604739
-0.00508168
0.000733846
-0.000233052
-0.000422917
0.000520373
0.000740779
-0.000118816
3.41492e-06
0.000361763
-0.000243655
-0.00123303
0.000925404
-3.3275e-05
-0.000383444
0.00078733
-0.000351453
0.000789182
0.00143259
8.7898e-05
-0.00212197
-0.0034068
0.0041946
-0.000329712
-0.00291759
0.000280579
0.00244282
-0.00224629
0.000251302
0.0020365
-0.000337746
0.000320228
0.000254226
2.07826e-05
0.00845559
0.00045096
-0.000785492
0.00028595
0.00188329
-0.000411571
-0.00249496
-0.0002171
0.000224109
0.0103695
-0.00888209
0.000193252
-0.000211555
-0.000143406
-0.001425
-2.69385e-05
-9.92944e-05
0.000350846
0.000165064
-0.000279242
-2.45082e-05
-0.000792787
0.00772905
-0.00655047
-4.48669e-05
-0.000285354
0.00279717
-6.34641e-05
-0.00281382
0.00185832
0.000237711
0.0100481
4.92823e-06
3.25534e-06
0.000101961
-2.76404e-05
-3.22356e-05
-2.04028e-05
-0.00568813
0.00566632
0.000394407
-0.0016191
-0.00522434
0.000493149
-0.000521785
0.0002491
-0.000332235
0.000459086
0.000720578
-0.000128335
2.66433e-05
0.00023548
-0.000444046
-0.000344339
-0.00186543
0.000386276
0.000371888
0.00717753
-0.00942696
-0.00100879
-0.00124309
-0.00386702
0.00524264
0.00237826
-0.00163257
-0.000535514
0.00245284
-0.00308267
0.000405194
-0.00417994
0.0044426
0.00675797
0.000490982
0.0038472
-0.00632718
0.00253288
-0.00585034
0.0047472
-0.00116061
0.00366449
-0.00402709
-0.00554048
-0.00615246
1.30578e-06
-8.01134e-05
-0.00309866
0.00531108
-0.00229606
-0.00479781
-0.000595455
0.00284407
-0.00290805
-0.0029075
0.00713515
-0.00417034
0.00144081
-0.00179608
-7.64716e-05
0.00421242
-0.00381798
-0.000276624
-3.32158e-05
0.00025994
-0.000434658
0.000326512
-0.000773186
-2.8054e-05
8.57609e-05
0.00100395
-3.14225e-06
-1.78636e-05
-0.000379581
-0.00524544
0.00209408
-0.00321225
0.00289269
0.000155414
-9.75802e-05
-0.00929177
0.000364888
0.00239328
-0.00189658
0.000216609
-0.00321088
0.00428829
-7.82514e-05
-0.000226306
-0.000192008
-0.00332449
7.407e-05
-0.00260922
0.000821117
-0.00504027
0.000247496
-3.58616e-05
-0.000285638
-0.000103917
-0.000373671
0.000371661
-0.0033767
6.67902e-06
0.000934221
-1.3915e-05
-1.31059e-05
-0.000123169
0.000134888
8.56941e-05
-0.00137153
0.0010545
-0.000338495
-2.23482e-05
0.000103178
0.00346227
-0.00337337
0.000119576
0.000211344
0.00453617
-0.00842012
-0.00040433
-0.00532561
0.000164472
-0.000204759
-0.00222372
-0.00145837
0.00114264
1.47513e-05
0.000217157
-0.0015225
-3.45478e-05
0.000892727
-0.000665141
0.000133803
-0.00277193
0.0023293
-5.14504e-05
-0.000674435
0.0045852
0.00438687
0.00647845
0.00029473
-2.91124e-05
-0.000265897
0.000659679
-0.00470276
0.000105499
-0.000276925
-0.000661326
-0.00955993
0.00502723
0.00461825
0.0050086
0.00284465
0.000279652
-7.49511e-05
0.00056926
-1.47126e-06
0.000130606
-0.000131473
0.00448449
-0.00840623
0.00385013
-0.00426521
-0.000968449
0.000713816
0.000144442
-0.000181887
9.4994e-05
1.22702e-05
0.00013432
-0.00369388
0.00075776
0.00292405
-5.79842e-05
-0.00068967
0.00509504
-0.000649023
-0.00114257
-0.00131843
0.00234634
-4.63878e-05
-3.29773e-06
0.00200031
-0.00211419
-0.000127112
0.00159081
-0.00147992
-0.000770388
0.0085029
0.00667094
0.0026802
-0.000484629
0.00058068
-4.74177e-05
-0.00134324
0.00168482
0.000291766
-0.000366824
8.72594e-06
-4.93845e-05
-0.00034922
-4.58206e-05
-0.00151866
0.00520474
-0.00158423
-9.75609e-05
-0.00774165
0.00828104
0.00093752
-8.10805e-06
-0.000797403
-0.00322839
0.00113246
0.00196532
-0.000267582
0.000753936
-0.00263619
-0.00501379
-6.35989e-05
-0.00109045
-1.69586e-05
4.34762e-07
2.30728e-05
0.00390363
-0.00391463
-0.00112057
0.000809304
6.82566e-05
0.00339713
-0.0024947
0.000315619
-0.00542816
0.00187839
0.00378361
0.0128378
-0.0123568
-0.00119009
0.000402529
-0.000317738
0.000225654
8.5738e-05
0.00349397
0.000570262
-0.00203553
-0.000364629
-0.00275236
0.00237225
0.00019305
0.00218003
-3.13467e-05
-0.0020694
0.000479583
2.574e-05
-0.000161842
-3.76003e-06
-0.000383094
0.00421249
-0.00204783
0.000865776
0.000324245
0.00212903
4.45555e-05
0.00120569
-0.0116808
-0.0018759
-0.00135418
-0.00319552
-0.00526859
0.000358026
0.00533036
0.000681554
0.00307965
0.00207654
-0.00302235
-0.000134492
8.11906e-05
0.00124635
-0.000269317
-0.00804508
0.00521239
-8.89727e-05
-0.00777099
-0.000873785
0.00942354
-0.00315654
-0.000264077
0.00147542
-0.00240227
0.00245683
-0.00516088
-0.000525887
-1.29444e-05
0.000236008
-0.000560633
0.000534182
-0.00084915
0.00167156
-0.000517575
0.000636461
-0.000649477
6.08109e-05
-0.00237783
0.00197073
0.000434536
0.00752
-0.000271386
-0.00710453
-5.49231e-05
-6.22806e-08
0.000411731
-1.49101e-05
-0.000408296
-0.00147322
0.00736368
0.0034192
-0.00332213
-0.000171585
-0.000135049
-0.00709521
0.00556587
0.00324491
-0.00317086
-0.000271603
8.37984e-05
-0.00219712
0.00614054
-0.000516431
7.17835e-05
0.000452787
-0.000898935
-0.00712727
2.47583e-05
0.000181465
0.00220043
-0.00289622
-0.00319341
0.00247661
-6.31055e-06
-0.000853549
0.000910332
4.94731e-05
0.00260684
-0.0029442
-0.0011328
0.000103561
0.00111679
-0.000140995
-0.000761406
1.57198e-05
0.00250099
0.0105623
-3.54501e-05
-0.000703724
0.00446107
-0.00784803
0.000884222
0.0074958
-9.4094e-05
-0.00092899
0.000693353
-4.48574e-05
0.000507124
-0.00047255
3.56173e-05
-3.42872e-06
0.000787265
-0.000699208
-0.00411815
2.64592e-05
7.2212e-05
0.0028218
-5.11453e-05
-0.00277084
-0.00263795
-0.000255354
0.00249951
-0.00109189
0.00213967
0.000102958
-0.00151208
0.000837559
-0.00347059
9.93145e-05
0.00338161
0.00571612
-0.00350556
0.00105785
-0.000701677
-0.00451398
0.000689382
0.00356366
0.000156671
-0.000141795
-5.41496e-05
3.10212e-06
-0.000436686
0.00176322
-0.00227896
0.000185976
0.000139195
0.000279141
1.52627e-05
-0.00132944
0.00118727
0.000111995
0.00259522
-0.000477691
-0.0018645
-0.00111462
0.000938383
0.000159637
0.000156671
-0.000151889
0.00376502
-0.000402501
-0.00314895
-0.00798873
0.000930131
-0.000151656
-0.00291666
-0.00211281
1.93703e-05
0.00184975
-1.74849e-05
-0.00190625
0.00669127
-0.000151705
0.000147989
-0.00287732
-0.00013041
-0.000869139
-0.000514094
-0.00411014
0.00508777
-0.00150901
-0.000443952
-0.00881847
0.0016484
-0.00148054
-0.000125031
-0.00597822
-0.00710231
-0.000323968
-0.00465637
-0.000796237
0.00083915
1.28655e-05
7.59893e-08
-8.45914e-06
0.000406114
0.00431886
-0.0038728
-0.000121414
-0.000297738
0.00312331
-0.00224091
-0.00247441
0.00909007
-0.000189641
0.000643646
-0.00202428
0.00151647
-0.000529034
-0.00259837
0.00357774
-0.00421613
0.00213499
0.000120648
-0.00175886
0.000819453
-0.00930724
0.0107817
-0.00703755
0.000865935
0.00625887
-0.00118254
0.000285134
-0.000866972
-0.00822672
0.00803318
0.00038276
0.00466139
-0.0014938
-0.00100332
-0.000136155
-9.86308e-07
-0.000139088
0.00030058
0.00677312
-0.00339279
-0.00303894
1.00082e-05
-2.38106e-05
1.32662e-05
-0.00029719
-0.00120292
-0.000197675
0.00163165
0.000834032
-0.00900531
0.00870135
0.00307808
-0.00197301
-8.42008e-05
-6.07859e-06
0.00926984
0.000615142
0.00220651
-0.00226331
-0.000184016
0.00468033
-0.00363715
-0.000693238
9.25284e-05
-0.000457873
-0.00189587
-3.8781e-05
-2.74901e-05
3.81902e-05
-6.61925e-05
0.000937862
-0.000850342
-9.79722e-05
0.000862917
-9.17928e-05
0.0012017
-0.000165088
0.00322297
-0.000428172
-4.61624e-05
-0.000270875
0.000360567
-0.00888808
0.00876049
0.00225268
-0.00479094
0.00562641
0.00179031
0.000377004
0.00046052
-0.000607989
-2.15596e-05
0.00627067
-0.00715288
0.000506648
-1.48034e-05
0.000694378
-0.000244284
-0.0013772
3.43924e-05
-0.00033478
-0.00182929
0.00158237
-0.00112493
0.00344799
0.00033531
0.000432257
-2.37748e-05
0.000481071
-0.00160582
-0.00062836
-0.00673891
5.7985e-06
-7.44884e-05
9.75821e-05
0.000323473
0.00441439
-0.000481294
3.87354e-05
0.0004401
0.00222992
0.00253715
-0.00680393
0.00665816
0.00200872
-0.00204309
0.00444778
-0.00609392
0.00195862
-0.00269094
-0.00169877
-4.723e-05
0.00221494
0.000588782
-0.00416748
0.00121226
7.37054e-05
0.000130911
-0.00206564
-0.00686294
-0.000888981
-0.00822116
0.00140735
-0.00242648
0.000380472
0.000102889
-0.00830011
0.00777447
-0.00888918
0.0094892
-0.0089689
0.00456849
0.000136952
3.8772e-05
-0.000130542
-0.00242451
0.00202919
0.000789476
7.40282e-06
0.000549593
-0.00159594
-7.27495e-06
-0.000754985
0.00368262
-0.00341439
-0.00022024
0.00380915
-0.00416732
-2.393e-05
0.000303772
0.00710866
-0.000721223
-0.00613157
-0.00121321
-0.00467805
-0.000159104
-0.000137707
-0.000406256
-0.0003926
-2.61953e-05
1.54607e-05
0.000166211
5.0975e-05
0.00117878
0.00580851
-0.000209588
-0.00370722
7.7488e-05
0.00387704
-0.00133773
-1.23114e-05
0.00137858
-0.00436383
0.00417124
0.000455975
0.000174049
-0.00299791
0.00306621
-0.000204091
0.000656137
-0.0005557
0.000564943
-0.000613888
0.000248335
0.00864406
-0.0087964
0.0020064
-0.00023876
-0.00195805
0.00311754
-0.000171523
-0.00283696
8.12181e-06
-0.000582075
0.000588432
0.000173915
-0.000493556
0.00411693
-0.00509032
-0.000199361
-0.00120098
-0.00292612
-0.00644363
-0.000588127
-0.000218479
-0.00312808
-0.000188586
0.00332011
0.00825886
-0.00132702
0.00723077
-0.00772981
-0.00109428
-0.00175216
5.99016e-05
-0.00864498
0.00898778
-0.0063758
-0.000792058
0.00734039
0.000294373
-0.00376028
0.00324699
-0.000772054
-0.00573033
0.00673486
0.000117753
-2.81642e-05
-9.4972e-05
0.000150272
0.00103099
0.00742267
-0.00793464
-0.0065508
0.00158435
-0.00250048
-0.000471173
-0.00357261
0.00311211
-0.00625608
0.00323753
0.000105472
0.00273774
-0.000581452
-0.00408678
0.00231219
-0.000614469
-0.00222478
-3.00397e-05
6.31614e-05
0.00092959
0.00259432
-0.00282891
-0.00107407
0.00785879
-0.00811468
5.35218e-06
-0.00187634
-0.000363354
-0.00169093
0.00107405
0.00403872
-0.000275419
-0.00349901
-0.00323412
5.24969e-05
0.00309558
-1.60009e-05
0.000179852
0.00130701
-0.000892591
0.00875605
-0.00380642
0.00371055
-0.000161757
0.0001335
-0.000433407
0.00390685
-0.00312085
0.00385514
-0.00356694
-0.00022643
-0.000482001
2.29443e-05
0.000566987
0.000221477
-0.00147096
0.00131347
-0.000506403
0.00498747
-0.0031346
-0.000353207
-1.00636e-05
-0.000432707
0.00122631
-0.00136093
-0.000300647
0.000300642
-4.21011e-05
-9.0741e-05
-0.00202309
0.000827021
-0.000864223
0.00106492
-0.00241507
-0.00407734
0.00643103
-0.00116351
0.00204044
-0.000248188
0.000654147
-7.08396e-05
-0.000563681
0.000394503
0.00359712
0.00350115
-0.00205861
0.00490499
-0.000229797
0.00211518
0.00340968
-0.00303314
-9.84391e-05
0.00329276
-0.000187972
-0.0029269
-0.000954597
-0.000102038
0.000630608
-0.00061291
4.78168e-05
-0.00317831
0.000175564
-0.000197244
-2.56977e-05
-0.0028235
0.000513975
0.00265018
0.00496775
-0.00562302
0.000442537
-0.000180011
0.00227312
-0.00233296
0.00189284
-0.000139483
-0.00680779
0.000398036
-0.00337655
-0.00584916
8.04448e-05
-0.000689316
0.000624514
-9.44774e-05
7.87984e-06
-7.30289e-05
0.00400311
0.00026111
-0.00107266
0.000109708
-0.000305459
-0.00213088
0.00156401
-0.0017558
2.30195e-05
0.0045539
0.00239242
2.16372e-05
-9.31901e-06
0.00283416
-4.75495e-05
-0.00291964
-0.00358597
0.000214308
0.00344491
0.0010417
-0.0010429
-0.00828002
-0.000669294
-3.57149e-06
0.000733145
-6.3353e-05
0.00161108
-0.00100241
0.000780776
0.000249676
0.000244992
0.0022157
0.00142175
0.000679279
-0.00065692
-0.0080046
-0.000575572
0.00241194
-0.000671445
6.23159e-05
-0.000713728
-0.00797153
-0.00181973
-0.0062393
-0.00058299
8.35435e-05
0.000174375
0.000162879
-0.00146346
0.00621767
-0.0029704
0.00344326
-0.00063887
0.00269848
0.00671241
-0.00597645
-0.000622711
-0.00268421
0.00172819
0.000467488
0.0079754
-0.000132266
-0.00245912
-0.000303918
1.51521e-06
0.000471887
-0.000210977
-0.00242155
-0.000508439
0.00881043
0.000287092
-1.47025e-05
0.00147952
0.000203167
-0.00169801
0.00366344
0.000212293
-0.00148996
0.00141928
0.00279533
-0.000248793
-0.00180924
0.000504571
-0.00368123
-0.000280399
-0.000226016
-0.00329589
-0.000427337
-1.41514e-05
0.000708627
0.00445458
-0.00439058
-0.000330105
-1.41224e-05
-0.000423494
0.000860401
9.72579e-05
7.49311e-05
1.25586e-05
0.00070814
-0.0099877
-0.000216996
0.00172407
0.000135421
0.0047122
3.14181e-05
0.00160799
-0.000250619
-0.00115658
-0.00626711
-0.00248326
-0.000105841
1.07414e-05
6.07883e-05
-3.32146e-06
0.0013497
-0.00146445
5.29811e-05
-0.000155334
-0.000397849
-0.000331286
-9.0282e-05
-8.97514e-07
6.31439e-05
-0.000859003
-0.00829562
0.00947282
0.00717093
-0.000295733
-0.00674503
-0.00308237
0.00276355
-0.00233304
0.000194062
0.00343146
0.000101054
0.0014688
-0.00148383
-0.00251231
-0.000274091
-0.00559856
8.15109e-05
0.00179743
0.00287872
-7.88114e-05
-0.00293639
-0.00130032
8.11227e-05
1.92367e-05
-8.57068e-05
2.39185e-05
-0.000491425
0.000668174
-0.00115423
-0.00109456
0.000132508
0.00096062
0.00124054
0.00131452
0.000102564
-0.00013744
-0.000921975
-0.00358476
0.0034234
-0.000327069
-0.002532
0.00274369
-0.000421575
4.50397e-05
0.000414996
-0.000438175
0.00503516
-0.00417878
-0.00297005
0.00255237
-0.0029556
0.00614541
0.000716681
8.84847e-05
-0.00384774
0.000401596
0.00426299
2.26137e-05
0.000257234
-0.000683701
0.00730717
0.00124016
-9.48956e-05
-0.000603807
0.000480599
8.84497e-05
0.00381705
0.0023582
-0.00334556
0.000363232
0.00269535
8.10555e-05
-8.21065e-05
3.39674e-05
-0.00269876
0.00225616