/*--------------------------------*- C++ -*----------------------------------*\
| =========                 |                                                 |
| \\      /  F ield         | OpenFOAM: The Open Source CFD Toolbox           |
|  \\    /   O peration     | Version:  v2012                                 |
|   \\  /    A nd           | Website:  www.openfoam.com                      |
|    \\/     M anipulation  |                                                 |
\*---------------------------------------------------------------------------*/
FoamFile
{
    version     2.0;
    format      ascii;
    class       volVectorField;
    location    "900";
    object      U_0;
}
// * * * * * * * * * * * * * * * * * * * * * * * * * * * * * * * * * * * * * //

dimensions      [0 1 -1 0 0 0 0];


internalField   nonuniform List<vector> 
10042
(
(1.00635 0.016667 -1.62892e-21)
(1.03562 0.230867 4.36853e-20)
(1.00235 0.0450561 -2.46523e-21)
(1.01313 0.000115999 -2.11896e-21)
(1.01418 -0.000100018 1.25305e-21)
(1.00322 -0.192743 -6.57947e-21)
(0.974275 0.0854293 -1.33464e-20)
(0.837014 -0.170029 -6.66341e-22)
(1.01493 -4.34294e-05 0)
(1.01378 -0.0827339 -6.0325e-21)
(0.978498 -0.00264794 6.19288e-21)
(0.990654 0.243826 -5.18533e-20)
(0.979431 0.0090827 3.06637e-21)
(1.01906 0.00274326 -7.00947e-22)
(1.01489 2.17333e-05 1.59924e-21)
(1.01896 0.00281657 0)
(0.951389 -0.133932 1.33846e-20)
(0.976971 0.00611114 0)
(1.00788 0.00805276 -7.15143e-22)
(1.03854 0.00791087 -2.00405e-21)
(0.97935 0.00591632 0)
(1.0039 0.014167 0)
(1.0131 0.000135124 2.00596e-21)
(0.777059 0.185115 -3.01761e-21)
(1.01412 -0.000930908 0)
(1.01277 -5.55338e-05 -6.09364e-22)
(1.02086 -0.0757613 0)
(1.01455 -8.02384e-05 5.44338e-22)
(0.975458 -0.201515 5.08878e-21)
(0.77409 0.268628 1.20517e-20)
(1.01242 1.13913e-05 0)
(0.976938 0.0535593 2.39738e-22)
(1.01485 -6.40416e-05 -1.27023e-21)
(1.01478 -5.97484e-05 -1.32873e-21)
(0.844589 -0.169403 0)
(0.833706 -0.177045 0)
(1.01244 0.000130558 -1.73291e-21)
(1.01463 0.000239514 -1.29809e-21)
(1.01394 6.63454e-05 0)
(1.0303 0.0015468 0)
(0.781338 0.254947 0)
(1.01485 -4.42089e-05 0)
(0.910078 -0.0703085 7.31756e-22)
(0.846921 0.278235 1.7092e-21)
(1.01364 -1.32712e-05 2.53411e-21)
(1.01419 -0.00100665 -1.03284e-21)
(1.01525 -0.00103653 -1.26306e-22)
(1.01483 -0.000109408 -8.68787e-22)
(0.961713 -0.0344801 7.85887e-21)
(0.973768 -0.214807 -1.30684e-21)
(0.921655 -0.0890307 -1.44122e-21)
(1.01335 -9.03166e-05 0)
(1.0013 -0.147952 -3.6654e-20)
(1.00854 0.00691037 -3.09461e-22)
(0.66359 -0.575482 -4.42071e-20)
(0.990591 -0.655056 8.2794e-20)
(0.982432 0.00467393 9.09863e-22)
(0.999701 -0.000549975 -1.46281e-21)
(1.01465 -0.00114083 2.29009e-21)
(1.01911 7.09108e-05 0)
(0.961368 -0.0419218 0)
(0.556442 -0.320448 -1.07732e-20)
(0.917095 -0.0515395 -7.23549e-22)
(0.91285 -0.1479 0)
(1.02895 0.0141108 3.46318e-22)
(1.01381 -0.00261629 -1.63425e-21)
(1.03351 0.00991894 2.25458e-21)
(1.01764 0.0277565 0)
(1.01557 -0.00149857 -8.28851e-22)
(1.01482 0.0258525 0)
(0.910042 -0.138431 1.28293e-20)
(1.02272 -0.00413909 0)
(1.01544 0.00104021 0)
(1.01462 -0.000970109 -9.14698e-22)
(1.01402 -0.00264915 0)
(0.900795 -0.113905 -1.31259e-20)
(1.03721 0.00386027 0)
(1.01531 -0.0011471 -1.3834e-22)
(1.03854 0.00290833 1.70194e-22)
(1.00857 0.0092238 9.01788e-23)
(0.856875 0.304216 -5.43135e-21)
(0.766987 0.228657 0)
(1.00771 3.24792e-05 1.15893e-21)
(1.014 -0.000324087 1.40635e-21)
(1.058 -0.0362098 -6.92723e-21)
(0.907785 -0.0293235 0)
(1.03111 0.00927055 -2.14123e-21)
(0.997112 0.0399094 5.10901e-22)
(1.01827 -0.00265446 -1.06458e-21)
(1.03318 0.00815153 4.79348e-22)
(0.992395 0.0102287 2.09421e-21)
(1.01506 9.36126e-05 5.32823e-22)
(0.9299 -0.0476434 -2.97825e-21)
(0.886341 -0.0289306 0)
(1.02113 0.0157658 0)
(1.01592 0.000344466 -2.87542e-21)
(0.673411 0.488106 -8.35829e-20)
(1.03547 0.00770377 1.75566e-23)
(0.959413 -0.0357492 0)
(1.01451 -0.000728491 -4.0427e-22)
(0.994216 0.00913389 9.21846e-22)
(0.981646 -0.131109 1.02606e-20)
(1.01809 -0.00229862 0)
(0.990514 0.0463906 -3.2012e-22)
(1.00227 0.00437511 2.29616e-21)
(1.01667 -0.00146708 0)
(0.875143 -0.499984 7.47223e-20)
(1.0141 -0.00225282 7.93714e-22)
(0.945978 0.0949306 -1.44744e-20)
(1.01674 -0.00172333 0)
(1.01491 -0.0010696 -1.3646e-21)
(0.925253 0.0624463 -1.00251e-20)
(1.00238 -0.126594 -8.2453e-21)
(0.932137 -0.142836 0)
(1.02806 0.0124112 -1.11238e-21)
(1.01592 -0.00204043 -1.03788e-21)
(1.00409 -0.017748 0)
(1.01256 3.86178e-05 0)
(1.00245 -0.00187815 -1.35575e-21)
(1.01646 -0.00237471 9.21447e-22)
(1.0192 7.1756e-07 -2.17332e-24)
(0.875766 0.113349 -4.44347e-20)
(0.815485 0.105899 2.16084e-20)
(1.01374 1.18388e-05 -3.08498e-21)
(1.0346 0.00758643 -9.8271e-22)
(1.01879 -0.00313029 -8.1152e-22)
(1.01883 -0.00346718 -2.9124e-22)
(0.710123 -0.542905 -1.38764e-19)
(0.833952 0.0278674 1.83639e-20)
(1.00528 -0.0199823 0)
(1.01479 0.000110797 -1.24875e-21)
(1.01476 -0.00274673 0)
(1.02069 -0.0038351 -7.16087e-22)
(1.01423 -0.00127354 9.68611e-22)
(0.90088 0.061992 -1.17295e-20)
(1.01273 -0.112157 0)
(1.02668 0.0141483 -2.01908e-21)
(0.7728 -0.295807 0)
(1.01044 0.000258351 9.55435e-22)
(0.970447 0.00578648 -3.93064e-23)
(0.944883 -0.0123817 -8.04683e-21)
(1.01419 5.19123e-05 9.19981e-22)
(0.885616 -0.443032 1.92488e-21)
(1.01453 -6.74048e-05 5.96442e-22)
(1.00499 -0.0144165 1.57009e-21)
(1.01468 0.000239249 1.72424e-21)
(1.05351 -0.0324514 1.94298e-21)
(1.01571 -0.00152454 5.12362e-22)
(1.02281 0.000497706 2.21997e-21)
(0.762154 -0.265277 -1.29054e-20)
(1.01428 -0.00228005 1.70241e-21)
(1.01316 5.61028e-05 0)
(1.00913 0.000403459 -1.17277e-21)
(0.970847 0.0104468 5.67168e-22)
(1.02094 0.0135105 0)
(1.00536 -0.0161604 0)
(0.849188 0.0212986 -1.24426e-20)
(1.06003 -0.615308 3.87249e-20)
(1.02043 -0.00427589 4.00295e-22)
(1.01037 -0.000243552 1.20259e-21)
(1.01232 8.2963e-06 1.95853e-23)
(1.03103 0.002524 1.18363e-23)
(1.04038 -0.084591 -7.01967e-21)
(1.01835 -0.00297377 2.05777e-21)
(1.01198 -6.05056e-05 0)
(0.78062 -0.286131 1.03456e-20)
(1.01537 0.000926715 0)
(0.985193 0.046779 -5.09217e-22)
(0.832496 -0.173081 0)
(1.01469 -7.23378e-05 1.60082e-21)
(1.01969 0.00958606 -9.48677e-22)
(0.792233 0.264266 -1.62924e-20)
(0.718252 -0.106127 -2.49024e-21)
(1.01476 -7.11402e-05 -1.65904e-24)
(1.00797 0.00579261 6.45449e-22)
(0.751619 -0.0266769 2.0784e-21)
(1.01408 -0.000447606 0)
(1.01466 0.000195642 -1.47452e-21)
(1.01484 -0.00261994 0)
(1.01547 -0.00137626 -1.481e-21)
(1.01091 -0.000114602 0)
(1.00145 -0.000627101 0)
(1.01448 -0.000844545 -2.71351e-21)
(1.01636 -0.001806 0)
(1.07644 0.00168025 0)
(0.995935 0.0202297 -1.114e-22)
(1.02224 -0.00506459 0)
(1.01893 3.6372e-05 7.18656e-23)
(0.84091 -0.27968 -7.02509e-21)
(1.01444 0.000232149 5.43733e-22)
(1.04083 0.266939 -5.42179e-20)
(0.982741 0.00185588 -4.54137e-21)
(1.01484 0.000125489 -1.31526e-21)
(1.00276 -0.000257766 -2.78772e-21)
(0.852004 -0.531186 4.17353e-20)
(1.01516 2.42216e-05 0)
(0.703144 0.160409 3.11435e-21)
(1.02278 0.00407079 0)
(0.644954 0.451146 -4.68179e-21)
(1.01396 -0.000253946 -1.64161e-21)
(0.793706 0.0222807 2.00699e-21)
(0.93768 -0.026669 -2.9992e-22)
(0.978177 0.00132693 8.22564e-22)
(1.01436 -0.000179904 0)
(0.930895 -0.0324086 0)
(1.02039 -0.00335867 5.65437e-22)
(0.853855 0.052424 -1.9741e-22)
(0.97313 0.00854831 0)
(1.015 -0.000979807 2.80447e-21)
(1.01421 -0.00103134 7.67594e-22)
(0.982821 0.0525359 0)
(1.01457 -0.000217519 7.16118e-22)
(0.969698 0.00279661 1.35194e-21)
(0.989538 0.00415095 -1.46968e-22)
(1.01245 3.5042e-05 4.13566e-22)
(1.01763 0.0196895 9.1743e-22)
(1.01468 -0.000315707 -1.15422e-21)
(0.843657 -0.174287 -2.97128e-21)
(1.01305 0.000174301 -1.17259e-22)
(0.808693 0.0112535 -3.22753e-21)
(0.599842 0.17167 0)
(1.01807 0.00895542 1.13168e-21)
(0.552409 0.16745 4.89276e-21)
(1.01522 0.0214444 -5.20271e-22)
(1.01321 0.000115744 3.33562e-24)
(0.929391 -0.0296857 3.44306e-21)
(1.02033 0.00113837 1.88032e-21)
(1.02502 0.0128066 4.31257e-21)
(1.02239 -0.0580381 -1.62763e-21)
(1.0179 -0.00265702 6.9604e-22)
(1.01471 0.0001904 0)
(1.01928 -0.00377587 1.94627e-21)
(0.995137 0.0183435 4.44098e-22)
(1.01064 0.000117987 0)
(1.0141 -0.000532394 5.94522e-22)
(0.830843 -0.170441 2.1293e-21)
(1.01951 0.0111875 1.96712e-21)
(0.66213 0.48836 6.30192e-20)
(1.00622 -0.0129267 7.74779e-22)
(0.803918 0.175446 3.17487e-21)
(0.949676 -0.0907658 0)
(1.14144 0.0191803 0)
(1.01933 8.41283e-05 -1.02517e-22)
(1.0326 0.00204088 -6.53805e-23)
(0.670453 -0.564867 2.48641e-20)
(1.01403 -0.00010474 6.42457e-22)
(1.16133 0.022873 0)
(1.00807 -0.0126086 0)
(1.00847 0.00017995 1.51164e-21)
(1.01357 -0.000130271 0)
(1.00386 0.00483731 -3.09824e-21)
(1.01489 0.000104423 1.36697e-21)
(1.01191 -0.070194 -3.93768e-23)
(0.645131 -0.551288 1.63743e-20)
(1.02205 0.000811457 0)
(1.01893 0.0100285 9.13871e-22)
(1.01354 0.00019011 -1.65743e-22)
(1.02173 0.00301969 -1.86765e-21)
(0.681109 0.500197 -7.47828e-21)
(1.01318 0.000109922 -2.61151e-21)
(1.0332 0.0100928 0)
(1.01486 0.000492101 0)
(1.01341 -0.000123262 0)
(1.01513 -0.000996256 -2.22129e-21)
(0.976829 0.0104584 -3.71784e-21)
(0.65964 -0.555439 0)
(1.03186 0.010584 1.29344e-21)
(1.02143 -0.066101 4.03962e-23)
(1.00744 -0.000169534 0)
(1.01965 -0.00371507 -1.4837e-21)
(1.0137 -0.000431128 -1.35772e-21)
(1.00806 -0.174257 0)
(1.01909 0.00183767 0)
(0.872454 -0.170106 0)
(1.02086 0.00288826 8.75475e-22)
(1.00754 -0.00769362 -2.58169e-21)
(1.01436 0.00391696 1.0582e-22)
(1.01379 -0.000268196 2.07933e-21)
(1.00757 -4.37299e-05 0)
(0.90723 -0.550449 -1.38717e-19)
(1.01459 -8.03575e-05 -7.57051e-22)
(1.17046 -0.0912995 3.23234e-21)
(0.723303 0.178673 -1.98508e-21)
(1.01444 0.00329084 1.50868e-23)
(1.00927 6.03243e-05 -1.89834e-21)
(0.450967 0.282412 0)
(1.01373 -0.0247838 -8.92229e-22)
(1.01496 -0.0010614 6.45172e-22)
(0.9991 0.0085195 1.95508e-21)
(1.01226 6.21826e-05 0)
(0.985493 -0.00161711 -4.82435e-21)
(1.01707 -0.0184748 0)
(1.00916 6.79386e-05 0)
(1.10653 -0.0857453 -3.28091e-20)
(1.03118 0.0129377 -1.73754e-21)
(1.01829 0.00296528 -1.95189e-23)
(1.15346 0.19064 0)
(1.02264 0.0128483 -1.77789e-21)
(1.01371 -0.000483124 0)
(1.01456 -0.000282528 0)
(1.00957 -0.000134631 -7.50501e-22)
(0.984155 0.00839059 5.54149e-22)
(1.01892 8.08685e-05 -3.11529e-23)
(0.92318 -0.124517 0)
(1.01155 -0.0231461 0)
(0.536956 -0.350045 -3.71352e-20)
(1.01963 0.00216066 -3.93961e-22)
(1.0335 0.0032776 7.89656e-24)
(1.12875 0.230565 0)
(1.12458 -0.118304 2.74694e-20)
(1.01126 -1.00129e-05 3.14301e-21)
(1.0143 -0.0015097 1.94896e-21)
(1.01573 0.000257587 2.48975e-21)
(1.01838 0.00288724 -2.50889e-22)
(1.01904 -0.0187224 -6.55938e-22)
(0.997384 0.00513419 0)
(1.01507 -0.000888749 2.97219e-21)
(1.07404 0.00493178 -7.24812e-23)
(0.862419 0.192117 1.35597e-21)
(1.0161 -0.00209102 1.21064e-23)
(1.00956 -9.51397e-05 0)
(0.880357 -0.200446 0)
(1.00945 -0.0072956 0)
(1.06398 0.0349794 -5.44059e-23)
(1.06862 -0.00934665 0)
(1.01157 1.97016e-05 -1.75548e-21)
(1.01996 0.00570961 -3.39771e-23)
(1.01505 -0.00274768 0)
(1.02155 0.0115338 1.54401e-23)
(0.987885 -0.00234988 3.98101e-21)
(1.0207 -0.00295443 -9.29908e-22)
(1.01517 -0.00065962 1.61343e-21)
(1.00954 0.0149312 1.94124e-21)
(1.01296 9.92868e-05 0)
(0.842834 0.105015 1.93195e-22)
(0.997712 0.0121425 -2.58595e-21)
(0.941253 -0.453207 -5.28561e-20)
(1.05321 0.0316645 1.22414e-21)
(1.01493 0.000120766 -1.41729e-21)
(0.831368 -0.268579 -4.8372e-21)
(0.950218 -0.0153861 0)
(0.980752 -0.00291033 -3.30648e-21)
(1.01946 1.82692e-06 1.05622e-22)
(1.02028 0.00594048 4.41731e-23)
(1.01117 3.71599e-05 -1.47295e-21)
(1.0147 0.000149815 1.21062e-21)
(1.01847 0.00128574 8.1453e-22)
(1.0136 -7.18091e-05 -1.92914e-23)
(1.02146 -0.0121854 4.45273e-22)
(0.650788 0.465674 -1.03834e-21)
(1.01482 0.00122951 0)
(1.02375 0.0161207 0)
(1.02273 -0.011642 0)
(1.01641 0.000851115 0)
(0.604635 -0.414626 -4.59214e-20)
(1.01972 0.00570125 -3.67608e-22)
(1.02051 0.000570517 0)
(1.00476 3.60564e-06 0)
(0.694953 0.00282617 0)
(1.00576 3.43935e-05 0)
(1.01632 -0.0013117 1.8515e-21)
(1.01231 0.000116242 1.48343e-23)
(1.01198 -0.00061116 1.86628e-21)
(0.981875 0.202999 8.5844e-21)
(0.853179 -0.278847 -6.55045e-21)
(1.01156 0.000219877 0)
(1.01371 -0.000142154 -1.67247e-21)
(1.02373 -0.00970873 1.02767e-21)
(1.02271 -0.0104155 -4.39125e-22)
(0.816114 -0.325406 -1.55958e-19)
(1.01902 7.58432e-07 0)
(1.00769 4.53146e-05 0)
(1.01944 0.00188829 3.41264e-22)
(1.01322 1.84551e-05 1.94758e-23)
(0.922694 -0.0428394 0)
(1.02059 0.00200664 -6.08822e-22)
(1.00587 -0.00542202 0)
(0.989724 0.0352947 -3.8138e-21)
(0.637409 -0.467541 5.36073e-20)
(0.933553 -0.0370806 -2.63975e-21)
(1.0158 -0.000839596 0)
(0.98501 -0.00175626 1.02344e-21)
(1.03144 -0.0572808 1.6078e-21)
(1.01512 -0.00261924 3.88881e-22)
(0.955183 0.0195023 0)
(1.01624 -0.00232262 -9.97889e-22)
(1.01332 -5.04452e-05 -1.51462e-21)
(1.01649 -0.00219857 -1.1304e-23)
(1.01731 -0.00525867 0)
(1.01491 -0.000937442 4.19862e-23)
(1.02028 0.00332684 -2.48695e-21)
(0.733905 -0.537774 -6.33931e-20)
(1.01458 0.0010087 1.46134e-21)
(1.01977 0.00612121 -8.14491e-22)
(0.9066 -0.253063 1.16391e-20)
(0.62694 -0.519255 0)
(1.01337 -5.06189e-06 -8.06664e-22)
(0.866978 -0.164934 5.79431e-22)
(1.01143 6.72623e-05 1.25104e-21)
(0.973637 0.0493798 -7.65829e-23)
(1.01334 -4.09074e-05 0)
(0.471195 0.230789 -1.35745e-20)
(1.01894 -0.0123476 -2.91776e-21)
(0.60573 -0.528884 6.33288e-20)
(0.710039 0.521457 1.71383e-20)
(1.01665 0.000939172 0)
(0.955354 -0.012135 -1.0676e-21)
(1.01788 0.00165402 8.83241e-22)
(0.985253 -0.0547916 -2.18473e-21)
(1.01956 0.0030542 0)
(1.0364 0.0578795 -7.25325e-21)
(0.998687 -0.0112131 0)
(1.15138 -0.0303174 6.57461e-21)
(1.01459 0.000724055 -6.06868e-22)
(1.04411 -0.0659868 -3.22197e-21)
(1.01299 -0.00560287 0)
(1.00299 -0.0202573 -8.60977e-21)
(0.729354 -0.415213 6.33421e-20)
(1.01478 -0.000628481 2.0136e-21)
(1.0132 -0.00521976 -1.26511e-21)
(1.01335 9.41632e-05 0)
(0.925925 -0.253248 -9.80664e-21)
(1.01474 0.000144236 0)
(1.01655 -0.0018234 -1.75669e-21)
(0.937725 -0.0148142 9.63197e-21)
(1.01001 -0.00282818 2.90224e-21)
(1.05033 -0.0518062 -5.17315e-21)
(1.07091 0.0499036 -2.46355e-20)
(1.01321 8.96157e-05 -2.24229e-21)
(0.980307 -0.000198504 -5.41548e-21)
(1.01027 -0.00335231 -2.59495e-21)
(1.01527 -0.00129124 1.58517e-22)
(0.998891 -0.0129298 0)
(0.843969 -0.177984 -7.42159e-21)
(1.01776 0.00124987 0)
(1.01248 -0.000786088 -1.90213e-21)
(1.04336 0.410387 -1.05134e-20)
(1.00341 -0.00510364 0)
(1.0097 -4.09305e-05 5.30053e-23)
(0.912133 -0.648926 -7.84165e-22)
(1.01452 -4.47652e-05 0)
(1.02012 -0.0169434 6.31831e-22)
(1.0145 0.0270566 1.91968e-21)
(0.831278 -0.241068 7.24037e-21)
(0.998301 -0.145562 0)
(1.07094 -0.00809023 3.40251e-22)
(1.06623 -0.0465121 -6.67669e-22)
(1.03312 -0.0565466 0)
(0.87772 -0.15989 -6.01966e-22)
(1.01694 -0.00204444 2.1273e-22)
(1.01138 -0.00866701 0)
(1.03996 0.197026 0)
(1.01977 0.176151 -1.76213e-21)
(0.959459 0.0187316 2.05897e-21)
(1.01304 0.000134911 0)
(1.01879 0.00127581 -3.30856e-23)
(1.02571 0.0131759 1.07247e-21)
(0.795836 -0.480513 6.05858e-21)
(1.01631 -0.00197271 -9.48853e-22)
(1.02606 0.000494614 0)
(1.01144 0.00011463 2.8888e-21)
(1.01342 3.31415e-05 1.22664e-21)
(1.01482 -0.000765614 0)
(1.01456 -0.000715506 0)
(1.01741 -0.00493667 0)
(1.00578 3.63857e-05 0)
(1.00013 0.0155903 1.5047e-21)
(1.01574 0.00382548 -3.39756e-23)
(1.02171 -0.0171348 0)
(1.02051 0.0117706 1.09942e-21)
(1.04144 -0.0302819 -1.01774e-20)
(1.01536 -1.77442e-05 -1.69888e-21)
(0.433203 -0.0603228 0)
(1.07386 0.321912 -1.30349e-20)
(1.03825 -0.111905 -1.90469e-21)
(1.01352 0.000114045 -7.46951e-22)
(1.00926 0.0225671 -6.26174e-22)
(1.01084 -0.000100532 0)
(0.631136 -0.483905 0)
(1.01397 -0.000361853 -1.35164e-21)
(1.02011 0.00456343 0)
(1.01442 0.000514386 -1.00771e-21)
(0.991578 0.000196766 3.94344e-22)
(1.01386 5.83319e-05 -1.43298e-21)
(1.00417 0.00658372 7.08109e-22)
(1.02594 0.00113881 0)
(1.01274 -0.00784626 0)
(0.967504 0.120265 -6.01066e-21)
(1.01119 -3.46719e-05 1.17884e-21)
(1.01538 -0.000183135 -6.80271e-22)
(1.01425 -0.00127039 1.89623e-21)
(0.826107 0.331363 2.97383e-20)
(1.01483 0.000435126 1.32664e-21)
(1.01863 0.00586909 1.12054e-22)
(0.988473 0.0224104 -2.1748e-21)
(0.959496 -0.0136145 -1.62162e-20)
(1.01615 0.000598357 0)
(1.01783 0.00594608 -1.11395e-22)
(1.03098 -0.072155 3.02889e-20)
(1.01463 0.183457 0)
(1.0149 -0.000726472 1.45352e-21)
(1.01115 2.44978e-05 -1.49161e-21)
(1.18208 -0.0618517 -6.7818e-21)
(0.802243 0.306654 -3.6912e-20)
(0.979973 -0.0226562 -1.18591e-20)
(0.969517 -0.101904 0)
(1.01424 0.000198183 0)
(1.05919 0.0121947 9.98763e-23)
(1.03146 -0.037846 4.33822e-21)
(1.01558 -0.0295189 1.53741e-21)
(1.01003 -0.010053 -7.65295e-21)
(0.842608 0.0129775 1.52015e-22)
(1.01618 0.000496102 -8.4016e-22)
(1.01306 0.000148757 5.35915e-22)
(1.01641 -0.00206893 -1.92877e-21)
(0.993705 -0.100092 -1.46946e-20)
(1.01367 8.14065e-05 -4.39582e-24)
(1.00039 -0.0205254 2.48264e-21)
(1.01333 4.72154e-05 -3.55439e-21)
(1.0146 -0.000481667 0)
(1.01548 -4.38439e-05 1.11866e-22)
(1.00545 -0.0216001 -6.09181e-21)
(0.954827 -0.0970564 3.04535e-21)
(1.01742 -0.00260799 0)
(1.01264 -0.00123108 0)
(0.864486 -0.0921906 2.40222e-21)
(1.02276 0.00528514 0)
(1.07291 -0.00705275 2.45413e-21)
(1.01712 -0.00234926 1.7856e-21)
(1.01441 -0.00289177 -2.12844e-22)
(1.06378 0.0104563 0)
(1.0311 0.135611 0)
(1.0159 -0.000991931 -1.56562e-21)
(1.01492 -0.000648023 -1.49233e-21)
(0.993153 0.0188448 -2.007e-21)
(1.01621 0.000334088 1.97386e-21)
(1.01505 -0.000465455 1.43008e-21)
(1.1817 0.0533468 4.55119e-22)
(1.01474 0.000115986 1.38513e-21)
(0.648425 -0.578059 3.33062e-20)
(1.0137 -0.000157036 2.4576e-21)
(1.01707 -0.064936 1.84594e-21)
(1.01994 -0.00458151 -1.09488e-21)
(0.522431 0.236506 -5.88041e-21)
(1.01369 0.000116025 1.16972e-21)
(1.00501 0.0218974 -1.85678e-22)
(1.01288 0.000173501 0)
(1.01522 0.000776077 0)
(0.892464 -0.0883487 4.091e-22)
(1.01967 0.000125538 9.64548e-23)
(0.840593 0.143498 -3.31869e-21)
(0.978565 -0.020682 1.55933e-20)
(1.01479 1.50334e-05 -7.45834e-22)
(1.01921 0.00557979 0)
(0.967654 -0.4272 -5.42456e-20)
(0.90667 -0.108734 -1.6677e-22)
(1.01887 0.0125033 -1.10343e-21)
(1.01288 9.95932e-05 -1.19235e-21)
(1.01493 -0.000751751 7.55541e-22)
(1.01594 -0.00141705 -9.85387e-22)
(1.01503 -0.00699161 -3.72777e-23)
(1.01552 -0.00745167 -2.2564e-21)
(1.01643 -0.00181903 1.91704e-21)
(0.915234 0.17551 -1.14605e-21)
(1.01551 3.34832e-05 -1.35433e-21)
(1.01789 6.0409e-05 -1.51114e-24)
(0.818901 0.51228 -1.51285e-19)
(1.00194 0.00280099 -1.57738e-21)
(1.01463 -0.00848829 2.44544e-21)
(1.00901 -7.64744e-05 3.73953e-23)
(1.01487 -0.000379468 1.4995e-21)
(0.756713 0.43567 6.72622e-20)
(1.00682 0.180044 -7.53946e-21)
(1.01976 -0.00370409 1.09374e-21)
(0.852004 -0.0239517 -8.02232e-22)
(1.01348 -0.000508619 0)
(1.0006 0.0207284 3.54281e-22)
(1.01517 -0.000248647 1.60826e-21)
(1.01487 1.43261e-07 0)
(1.01419 -0.0016196 1.34606e-21)
(1.01431 -0.00169226 -2.19273e-21)
(1.01579 -0.00118951 -1.79172e-21)
(1.0138 0.000204455 -1.03912e-21)
(0.47299 0.304721 1.09975e-20)
(1.01433 9.51085e-05 0)
(1.10795 -0.13939 0)
(1.01367 -0.000376419 0)
(1.02038 -0.001599 0)
(1.01498 -0.000850081 7.76493e-22)
(1.08187 -0.0121385 0)
(0.874872 -0.165125 -2.30137e-21)
(1.01474 5.57771e-05 -1.52261e-21)
(1.01372 -0.000289752 -2.08196e-21)
(1.07146 -0.00421917 1.20189e-22)
(1.01754 0.00734359 -1.78407e-22)
(1.01484 -0.000695948 0)
(0.650592 -0.523998 -2.649e-20)
(1.01382 -0.000135873 1.0223e-21)
(1.00441 0.0107347 1.29175e-21)
(1.01465 0.000281148 -1.29196e-21)
(1.01211 9.34344e-05 0)
(1.01513 0.000685674 -6.8264e-22)
(0.685543 0.0448029 0)
(1.01496 -0.000751357 0)
(1.02011 -0.000826538 -1.58455e-21)
(1.02079 0.00229143 0)
(0.650318 -0.531036 7.00648e-20)
(1.01124 5.89861e-05 -2.52381e-23)
(1.01423 -0.00181273 -2.22085e-21)
(1.01344 0.00019919 1.11398e-21)
(0.987235 0.0670143 -2.30591e-22)
(1.01347 -1.31367e-05 -1.14755e-21)
(1.01419 -6.06435e-05 -2.88128e-21)
(1.01424 3.19358e-05 1.54646e-21)
(1.01425 4.57415e-06 2.1946e-21)
(1.00864 -0.0105172 4.58947e-21)
(1.01413 -0.000374463 6.62883e-22)
(1.0199 -0.00109908 0)
(1.01525 -0.000199 -8.86944e-22)
(0.713336 0.508241 -2.5338e-20)
(0.880489 0.253526 0)
(0.927575 0.0931116 0)
(1.01897 0.00327134 0)
(1.01265 0.0147666 2.81311e-21)
(1.01309 0.000163899 1.21369e-21)
(1.11398 0.0888561 -8.63658e-22)
(1.01179 -0.000105319 -2.59605e-21)
(0.825068 0.210443 -4.08235e-22)
(0.973713 -0.0301063 -1.98751e-21)
(0.933335 0.0551497 -7.0541e-23)
(1.0025 0.00813052 -1.45375e-21)
(1.14695 0.0582235 0)
(1.01339 -0.000491209 0)
(1.01539 -0.000769999 -2.35076e-23)
(0.788394 0.104467 1.66956e-20)
(0.988864 0.0575591 0)
(1.01985 0.00581624 -6.68577e-22)
(0.910169 0.0486946 -1.53323e-21)
(1.01436 -0.000421277 1.53036e-21)
(1.06965 0.125731 -6.37301e-22)
(1.01603 -0.00187919 0)
(1.01519 -0.000951649 1.87637e-22)
(1.01544 2.03238e-05 1.72457e-21)
(1.01475 0.000376978 -1.17108e-21)
(1.01229 1.38587e-05 1.56185e-21)
(0.820658 0.0440998 -1.85227e-20)
(1.01402 0.00287404 -2.04186e-22)
(1.01273 -9.86284e-05 3.37167e-22)
(0.620553 -0.423692 7.37539e-21)
(1.01504 0.000238487 -2.56427e-21)
(1.13413 0.0761312 -7.3938e-21)
(1.02904 0.0018177 -5.94508e-23)
(1.01546 0.00330721 -2.19263e-23)
(1.01966 0.00630964 0)
(1.01478 0.000202136 6.64494e-22)
(0.863551 0.143557 0)
(1.01645 -0.0038579 -1.76884e-21)
(1.01434 -0.00154145 -1.40307e-21)
(1.09954 -0.123149 0)
(1.01469 -0.000558342 0)
(1.01845 6.21272e-05 1.55914e-24)
(1.01099 -9.9699e-05 0)
(1.01633 -0.00236198 -1.35318e-21)
(1.01506 -0.00104705 1.79616e-22)
(1.06732 0.00323503 -1.66444e-21)
(1.20896 0.042292 0)
(0.878754 0.221894 -2.64472e-22)
(1.01487 -0.000212016 0)
(1.01792 -0.00253673 0)
(1.0159 -0.0021656 1.41169e-21)
(1.06242 0.143066 3.47398e-21)
(1.02391 -0.00420967 0)
(1.0142 -0.0029367 0)
(1.01436 -0.000306767 1.993e-21)
(1.0181 0.000801707 -2.60413e-23)
(1.09575 0.111284 -7.58785e-21)
(0.981968 -0.242441 1.17106e-21)
(1.0431 0.00290877 7.73191e-23)
(1.0209 0.00169395 2.34767e-23)
(1.00857 -8.74212e-05 1.10301e-21)
(0.754892 0.484006 -3.27455e-20)
(1.00261 0.0226068 0)
(1.02126 -0.0136199 -1.75402e-21)
(1.06705 -0.033557 0)
(0.833012 -0.0188376 1.20829e-21)
(0.550008 -0.429402 -3.25058e-21)
(1.07283 0.140649 -1.01448e-21)
(1.01621 -0.00184002 1.26389e-21)
(1.01322 0.000188127 1.15483e-21)
(1.01638 -0.00409074 7.44593e-24)
(0.990058 -0.111601 -1.3545e-21)
(1.01615 -0.00168415 -1.26523e-21)
(1.01108 0.017478 1.53534e-21)
(1.01896 -0.00493147 -6.23461e-22)
(1.01987 3.58212e-05 -1.10006e-22)
(1.02017 0.00579425 2.60901e-22)
(1.0212 -0.00621003 1.05255e-21)
(0.651167 -0.027333 0)
(0.679126 0.17312 4.67764e-21)
(1.0151 -0.00134955 1.8316e-21)
(1.01363 -6.95729e-05 -5.33776e-22)
(1.0168 -0.00166857 9.2138e-22)
(1.07504 -0.00647103 -3.77193e-22)
(1.01472 0.000328658 1.13349e-21)
(1.01251 0.0238604 5.9741e-21)
(1.02355 -0.00860049 -2.92536e-22)
(0.889915 -0.27178 0)
(1.01735 -0.00256678 -2.52014e-21)
(1.01733 0.00282172 0)
(1.01475 6.31978e-05 3.47189e-21)
(1.01307 0.000143152 0)
(1.01508 -0.000572532 3.48419e-22)
(1.02298 0.000659933 -1.37204e-22)
(1.01397 -0.00040833 -1.39841e-21)
(1.01405 0.00029775 -1.33148e-21)
(1.0199 0.0059556 1.29677e-21)
(1.00569 0.00683177 -1.30072e-21)
(1.025 0.0801299 0)
(1.01311 -0.000541954 1.40335e-21)
(1.00126 0.053061 1.71247e-21)
(0.784257 -0.0199341 1.54721e-22)
(1.01115 -0.000123699 -3.11711e-21)
(1.06404 -0.579082 -2.93109e-20)
(1.01378 -0.000612986 0)
(1.02109 0.00101158 5.82456e-22)
(1.01814 -0.0132972 1.40874e-21)
(1.01233 -2.94604e-05 9.54779e-23)
(0.839705 -0.046167 1.68267e-22)
(1.01857 -0.00491262 0)
(1.01838 0.00293588 1.59339e-21)
(1.0156 -1.08879e-05 8.1119e-22)
(0.865699 -0.56709 -2.94563e-20)
(1.01712 0.00270817 -1.86453e-21)
(1.02253 -0.0916953 2.44851e-21)
(0.981541 -0.015882 -9.59013e-21)
(1.01766 -0.00271857 1.43663e-23)
(0.966277 -0.144577 -8.82634e-21)
(0.968018 -0.127903 0)
(1.02844 0.00284371 9.48041e-23)
(1.01559 0.00117896 -2.64227e-23)
(0.912793 0.0382558 -3.2698e-21)
(1.00461 3.24901e-05 0)
(0.907547 0.0875551 1.20539e-20)
(1.01952 0.00601311 9.52639e-22)
(1.03849 0.000665125 -5.51536e-22)
(1.0196 0.00568075 -8.42302e-23)
(1.01475 -0.000314919 0)
(1.01488 -0.000797813 0)
(1.01383 -0.00190923 1.19074e-21)
(1.0445 -0.0173813 -3.03249e-21)
(1.02065 -0.014875 0)
(1.03541 0.042393 -6.3983e-22)
(0.957482 0.0341424 1.02166e-20)
(1.02014 0.000180194 0)
(1.01577 -0.00831294 1.42885e-21)
(1.01206 -9.40799e-05 2.80133e-21)
(1.01126 0.0250097 2.01678e-21)
(1.00465 1.79746e-05 1.98403e-23)
(1.01787 -0.0270246 6.39792e-21)
(1.01508 0.000391195 -2.24626e-22)
(1.01623 -0.00111785 -2.98143e-23)
(0.970452 -0.0245612 2.75401e-21)
(1.01682 -0.00250666 1.60202e-22)
(0.922798 0.0349543 0)
(1.0129 -0.0323096 1.6886e-21)
(1.00897 5.33574e-05 2.29756e-21)
(1.08025 -0.0219601 -1.49533e-22)
(1.01072 -0.0015155 1.74582e-21)
(1.0195 -0.00157929 0)
(1.02305 -0.00520803 -6.35658e-22)
(1.03431 -0.0498834 1.3854e-21)
(1.02 0.00222946 0)
(0.584699 -0.507472 3.04149e-20)
(1.01415 9.33455e-05 1.26296e-21)
(1.04236 -0.0457233 -1.2064e-21)
(1.01118 0.0192806 0)
(0.765166 0.086575 0)
(1.02261 -0.00454721 8.29512e-22)
(1.01426 -0.0256764 5.77803e-21)
(1.03233 -0.00999714 -9.78397e-22)
(1.01378 0.00027043 0)
(0.984172 -0.0164982 4.63835e-21)
(1.01453 -5.5369e-05 -7.48928e-23)
(1.02926 -0.0432143 0)
(1.02052 -0.00028745 -6.89991e-22)
(1.015 0.000764516 8.22395e-22)
(1.01761 0.00301138 0)
(1.01305 0.000104559 -1.64007e-21)
(1.01009 0.00156657 5.05175e-23)
(0.97911 -0.0283472 0)
(1.01301 2.31746e-05 0)
(1.01457 -0.000201388 -1.16631e-21)
(1.07721 -0.00146715 2.02471e-22)
(1.01454 -4.71913e-05 0)
(1.0171 -0.00268106 -6.69183e-22)
(1.01357 -0.000252758 0)
(1.01673 -0.00204021 6.68174e-22)
(1.04542 0.00209582 0)
(1.01953 0.00145453 0)
(1.02331 0.00424796 -1.90901e-21)
(1.00553 0.00136732 -2.00557e-21)
(1.06896 0.0030986 0)
(1.01517 -0.000547378 -1.8489e-21)
(1.00671 -0.00116206 2.47821e-21)
(0.937816 0.0500902 -1.08293e-20)
(1.01782 0.000839403 0)
(1.02059 -0.00215218 -8.1791e-22)
(1.01697 -0.00185932 0)
(0.92804 -0.106292 -1.49892e-21)
(0.835066 -0.0291861 -5.94227e-22)
(1.00304 0.00159256 -2.58069e-21)
(1.01531 -0.000149206 -7.21467e-22)
(0.980337 -0.0392653 1.22417e-20)
(1.00747 0.104379 2.66275e-20)
(0.589365 -0.446131 -3.66755e-20)
(1.0223 -0.0073133 9.62482e-23)
(0.916176 -0.0917284 4.49996e-21)
(1.02198 -0.0168656 1.01904e-20)
(0.960224 0.105751 0)
(1.01053 -0.00265349 -1.75137e-21)
(1.0235 0.000531535 0)
(1.01586 -0.00928692 0)
(1.04699 0.0418434 -1.72277e-21)
(1.13681 0.0317269 3.41771e-21)
(1.01445 0.000291679 1.09541e-21)
(0.466854 -0.159387 2.37223e-21)
(1.04206 -0.00255411 0)
(1.08972 -0.00841723 -1.64509e-21)
(0.841928 -0.0515142 1.65304e-21)
(1.02142 0.00132154 -3.38858e-22)
(1.03493 0.00599654 -8.72893e-22)
(0.84945 0.108873 -5.80465e-21)
(0.9932 -0.000469695 -1.12194e-21)
(0.661314 -0.567194 -1.35009e-20)
(1.04332 -0.0207766 0)
(0.433831 0.158984 5.72997e-20)
(1.02217 0.0039755 2.84265e-21)
(1.0085 0.188904 3.55889e-21)
(1.01478 -0.000605828 -1.48498e-21)
(1.00643 -0.000113899 0)
(1.01233 -1.0889e-05 0)
(1.00648 -0.0116877 0)
(1.01893 -0.00010584 9.9976e-23)
(1.01517 -0.00106529 -2.10103e-23)
(1.01371 -0.000163364 5.2307e-22)
(0.677864 -0.327337 -6.68931e-20)
(1.01905 -0.00421677 -9.07671e-22)
(1.02039 7.02195e-05 9.50892e-23)
(0.881526 0.466175 7.1716e-20)
(1.01459 -0.000404664 -3.70843e-22)
(0.99567 0.00551055 -1.95861e-21)
(1.02245 -0.00818034 -4.52477e-22)
(1.03021 0.0372855 6.33141e-22)
(1.0151 -0.000143337 -5.71635e-22)
(1.01233 -0.00165024 -2.22857e-21)
(1.01653 0.00188195 1.52374e-21)
(1.02132 -0.00295431 0)
(1.01488 0.000179919 2.60112e-21)
(1.0092 0.0203702 -2.12423e-21)
(1.0151 -0.00114052 0)
(0.973814 0.553373 2.33447e-20)
(1.04143 -0.000349447 0)
(0.989561 0.0283708 2.31806e-21)
(1.01918 -0.00447548 3.27191e-22)
(0.91169 0.205876 2.83234e-21)
(1.0154 -0.00101066 0)
(0.92433 0.025563 3.76427e-21)
(1.06704 -0.0123529 0)
(1.0218 -0.0163594 1.45108e-21)
(1.01526 0.000205841 -2.70043e-21)
(1.0158 -0.00183767 0)
(1.02152 -0.00247833 0)
(1.01238 3.10823e-05 1.13565e-21)
(0.862882 -0.129406 0)
(1.07593 0.0188038 0)
(1.01611 -0.00235612 -2.89728e-21)
(0.792003 0.0509944 0)
(1.01323 -1.30803e-05 -1.42511e-21)
(1.01282 0.000101692 1.0076e-23)
(0.814637 0.120557 -7.84565e-22)
(1.01647 -0.00117273 1.2102e-22)
(1.01302 5.43195e-05 -1.80815e-21)
(0.793107 -0.00612174 8.89949e-22)
(1.01409 -0.000332242 -3.09531e-21)
(1.007 0.107507 0)
(1.01062 0.00111463 -1.6898e-21)
(1.11334 -0.0590864 -1.99727e-21)
(0.9963 0.0103 -2.79004e-22)
(1.06663 0.0193771 -1.6474e-21)
(1.01948 0.00577507 0)
(1.01578 0.000111685 -2.39665e-21)
(0.886638 0.391396 -6.80773e-21)
(0.830793 0.430014 0)
(1.01373 -0.000363971 -2.02216e-21)
(1.03656 -0.0353879 -4.09992e-21)
(0.672787 -0.0796527 -6.77384e-21)
(1.03122 0.511568 0)
(0.881415 0.032384 1.38627e-20)
(1.01054 1.56894e-05 0)
(1.01627 0.00191031 0)
(1.03407 -0.00994505 1.31249e-21)
(1.01609 -0.00137852 -2.03187e-22)
(1.01128 -0.00333014 1.73974e-21)
(1.09312 0.0393401 1.01116e-22)
(1.01129 0.0138678 0)
(1.01603 -0.001592 1.9699e-21)
(0.984556 0.0305612 -2.59953e-22)
(1.05952 -0.100605 -3.38722e-21)
(0.790331 -0.0245879 -1.69116e-22)
(1.01577 -0.00138667 0)
(1.01687 -0.00151247 -8.65017e-22)
(1.01197 -9.53927e-05 -1.40117e-22)
(1.01429 -0.000477057 -3.22748e-21)
(0.8875 -0.176628 -4.32803e-22)
(1.06375 0.0287188 -1.17544e-22)
(1.01612 -7.1299e-05 2.87743e-21)
(1.0062 0.0157001 1.80985e-22)
(1.03918 0.0210666 -9.5193e-22)
(1.01376 -0.00158776 2.04695e-23)
(1.01123 0.00010455 -1.71935e-21)
(0.597218 -0.408175 0)
(1.02586 -0.0055172 -2.64759e-21)
(1.06179 0.00470675 3.51537e-22)
(1.01245 -0.00563549 0)
(1.01423 0.000239118 1.33993e-21)
(1.01472 -0.000174505 1.10849e-21)
(1.01891 0.00148949 0)
(1.12448 0.0492625 1.29398e-21)
(0.99579 0.000602832 1.96254e-21)
(1.014 -0.00191344 -3.11897e-21)
(0.809601 -0.00953189 0)
(0.797828 -0.191032 7.71432e-21)
(0.892365 0.154696 -7.61733e-22)
(1.00437 0.00156092 2.27842e-21)
(1.02457 -0.00538605 -2.19452e-22)
(0.527642 -0.331476 0)
(0.977776 0.0332383 1.04429e-21)
(0.824457 -0.0228134 0)
(0.996987 0.0357243 -4.56176e-22)
(1.01552 -0.000739615 1.52873e-21)
(1.0155 -0.00300155 -2.33661e-22)