/*--------------------------------*- C++ -*----------------------------------*\
| =========                 |                                                 |
| \\      /  F ield         | OpenFOAM: The Open Source CFD Toolbox           |
|  \\    /   O peration     | Version:  v2012                                 |
|   \\  /    A nd           | Website:  www.openfoam.com                      |
|    \\/     M anipulation  |                                                 |
\*---------------------------------------------------------------------------*/
FoamFile
{
    version     2.0;
    format      ascii;
    class       volVectorField;
    location    "50";
    object      cellDisplacement;
}
// * * * * * * * * * * * * * * * * * * * * * * * * * * * * * * * * * * * * * //

dimensions      [0 1 0 0 0 0 0];


internalField   nonuniform List<vector> 
9793
(
(0 0.000591084 0)
(0 -5.50754e-06 0)
(0 0.00117705 0)
(0 -5.34738e-06 0)
(0 0.000240314 0)
(0 2.96329e-05 0)
(0 1.79796e-05 0)
(0 -5.17303e-06 0)
(0 0.00049685 0)
(0 -5.50981e-06 0)
(0 0.000400861 0)
(0 0.000441232 0)
(0 0.000844397 0)
(0 4.36998e-05 0)
(0 0.000666513 0)
(0 0.00068778 0)
(0 9.73245e-05 0)
(0 0.00110927 0)
(0 -4.9505e-06 0)
(0 0.000605713 0)
(0 0.000817773 0)
(0 4.44551e-05 0)
(0 -5.29711e-06 0)
(0 -5.15359e-06 0)
(0 4.65571e-05 0)
(0 0.000194384 0)
(0 0.000683288 0)
(0 7.60896e-05 0)
(0 0.000596653 0)
(0 3.60374e-05 0)
(0 -5.50235e-06 0)
(0 1.18709e-05 0)
(0 0.00121078 0)
(0 0.00106864 0)
(0 3.91101e-05 0)
(0 0.000324525 0)
(0 0.000695875 0)
(0 0.000292005 0)
(0 5.277e-06 0)
(0 0.000179642 0)
(0 4.06187e-05 0)
(0 3.13557e-06 0)
(0 -4.83813e-06 0)
(0 5.31874e-05 0)
(0 0.0013959 0)
(0 0.00133149 0)
(0 -5.47885e-06 0)
(0 7.59985e-05 0)
(0 0.000977138 0)
(0 0.00112355 0)
(0 0.000339246 0)
(0 4.45215e-05 0)
(0 0.000190512 0)
(0 0.000150708 0)
(0 8.02141e-05 0)
(0 -5.21234e-06 0)
(0 0.000820205 0)
(0 0.000134945 0)
(0 0.000953879 0)
(0 4.051e-05 0)
(0 0.000214268 0)
(0 3.63101e-06 0)
(0 0.00117682 0)
(0 0.000388996 0)
(0 0.000116699 0)
(0 0.000516092 0)
(0 -5.50981e-06 0)
(0 0.000345577 0)
(0 0.000721371 0)
(0 1.09207e-06 0)
(0 0.000892335 0)
(0 4.94208e-06 0)
(0 -5.26675e-06 0)
(0 0.000411439 0)
(0 1.46054e-05 0)
(0 0.000156505 0)
(0 3.22307e-05 0)
(0 -1.9833e-06 0)
(0 0.00127253 0)
(0 0.00014317 0)
(0 2.82679e-05 0)
(0 -4.73317e-06 0)
(0 0.000109082 0)
(0 0.000261271 0)
(0 0.000691514 0)
(0 8.89243e-06 0)
(0 0.000191624 0)
(0 0.00026897 0)
(0 7.56603e-06 0)
(0 4.48328e-06 0)
(0 -4.76214e-06 0)
(0 -3.6817e-07 0)
(0 -5.2544e-07 0)
(0 8.43335e-05 0)
(0 -4.74386e-06 0)
(0 0.00102338 0)
(0 1.27728e-05 0)
(0 8.66956e-05 0)
(0 0.000258678 0)
(0 0.000180524 0)
(0 6.3811e-06 0)
(0 0.000199271 0)
(0 0.000452823 0)
(0 0.00140126 0)
(0 3.76874e-05 0)
(0 -3.02586e-06 0)
(0 0.000432511 0)
(0 0.000658787 0)
(0 0.00128978 0)
(0 9.08232e-05 0)
(0 0.000153267 0)
(0 -5.10852e-06 0)
(0 -5.49171e-06 0)
(0 -5.50709e-06 0)
(0 0.00089124 0)
(0 0.00086145 0)
(0 0.000952953 0)
(0 0.00127178 0)
(0 -4.88677e-06 0)
(0 0.00139919 0)
(0 4.4781e-05 0)
(0 0.000246774 0)
(0 1.24921e-05 0)
(0 0.000205737 0)
(0 0.000666129 0)
(0 0.00139422 0)
(0 7.6584e-05 0)
(0 -5.49685e-06 0)
(0 0.000223827 0)
(0 0.000236374 0)
(0 0.000526119 0)
(0 0.000801959 0)
(0 0.000598749 0)
(0 0.00039431 0)
(0 0.000334416 0)
(0 9.14075e-06 0)
(0 2.45319e-05 0)
(0 0.000918682 0)
(0 0.000116448 0)
(0 9.12142e-05 0)
(0 -4.4316e-06 0)
(0 0.00032217 0)
(0 0.000793333 0)
(0 0.00029263 0)
(0 -5.4762e-06 0)
(0 -2.49487e-06 0)
(0 0.001423 0)
(0 1.00228e-05 0)
(0 0.000807944 0)
(0 0.00142193 0)
(0 0.000886915 0)
(0 -5.25192e-06 0)
(0 0.000274869 0)
(0 0.000694192 0)
(0 0.00117883 0)
(0 -1.19657e-06 0)
(0 9.17183e-05 0)
(0 0.00115779 0)
(0 1.00747e-05 0)
(0 0.000964929 0)
(0 0.000269348 0)
(0 0.000501156 0)
(0 0.000801286 0)
(0 -3.9093e-06 0)
(0 0.000731431 0)
(0 -9.51477e-07 0)
(0 0.00046052 0)
(0 0.00065602 0)
(0 0.000598624 0)
(0 0.000339576 0)
(0 0.000797933 0)
(0 -5.50366e-06 0)
(0 -5.32205e-06 0)
(0 6.58354e-05 0)
(0 0.000851072 0)
(0 3.49068e-05 0)
(0 3.5283e-06 0)
(0 -4.75266e-06 0)
(0 0.00124119 0)
(0 0.000371602 0)
(0 4.13864e-05 0)
(0 -5.48816e-06 0)
(0 0.000244963 0)
(0 0.00135564 0)
(0 0.00120472 0)
(0 0.000627361 0)
(0 1.53808e-05 0)
(0 -5.34236e-06 0)
(0 -5.18998e-06 0)
(0 0.000427925 0)
(0 0.000543199 0)
(0 -5.48308e-06 0)
(0 -3.93981e-06 0)
(0 0.000251524 0)
(0 0.00105237 0)
(0 0.000326833 0)
(0 -5.33783e-06 0)
(0 0.000479564 0)
(0 0.00109631 0)
(0 0.000470173 0)
(0 0.000834923 0)
(0 0.000888595 0)
(0 0.000346884 0)
(0 0.000510548 0)
(0 -4.55826e-06 0)
(0 0.00110643 0)
(0 0.00021169 0)
(0 0.000670871 0)
(0 0.000536526 0)
(0 -4.06627e-06 0)
(0 9.69999e-05 0)
(0 -4.3629e-06 0)
(0 0.000414652 0)
(0 8.75682e-10 0)
(0 0.000255244 0)
(0 0.000724809 0)
(0 0.000658798 0)
(0 1.01196e-05 0)
(0 0.000822861 0)
(0 2.82767e-05 0)
(0 8.07114e-05 0)
(0 0.000872375 0)
(0 -4.99516e-06 0)
(0 0.00012235 0)
(0 8.8786e-05 0)
(0 0.000982649 0)
(0 0.000174312 0)
(0 0.000214063 0)
(0 2.91291e-05 0)
(0 2.64589e-05 0)
(0 -3.86653e-06 0)
(0 0.000222982 0)
(0 0.000713992 0)
(0 0.000378322 0)
(0 -3.74318e-06 0)
(0 0.00110975 0)
(0 -5.40726e-06 0)
(0 -5.50351e-06 0)
(0 0.000459936 0)
(0 0.000416356 0)
(0 5.04499e-06 0)
(0 0.000945449 0)
(0 0.00015082 0)
(0 0.000139726 0)
(0 0.000114649 0)
(0 0.000523017 0)
(0 0.000373852 0)
(0 0.000202815 0)
(0 5.31559e-05 0)
(0 0.000414361 0)
(0 0.00125951 0)
(0 5.56201e-05 0)
(0 -5.41476e-06 0)
(0 0.000855824 0)
(0 8.56156e-05 0)
(0 0.000179978 0)
(0 0.000508157 0)
(0 7.52277e-05 0)
(0 -5.16338e-06 0)
(0 0.00145435 0)
(0 -1.76895e-06 0)
(0 8.37935e-06 0)
(0 0.000432772 0)
(0 0.000777416 0)
(0 -9.41184e-08 0)
(0 4.77921e-05 0)
(0 0.000281276 0)
(0 4.98121e-05 0)
(0 6.2065e-06 0)
(0 -3.41878e-06 0)
(0 0.000237007 0)
(0 -3.09488e-06 0)
(0 0.000127138 0)
(0 0.000437174 0)
(0 -5.41301e-06 0)
(0 0.000631467 0)
(0 -5.50523e-06 0)
(0 0.000168138 0)
(0 0.000230711 0)
(0 -5.50826e-06 0)
(0 2.02171e-05 0)
(0 3.91614e-05 0)
(0 0.000213788 0)
(0 0.000543327 0)
(0 0.000115488 0)
(0 0.000519527 0)
(0 0.00109561 0)
(0 0.000735846 0)
(0 -3.57398e-06 0)
(0 0.000178179 0)
(0 0.000737758 0)
(0 1.64052e-05 0)
(0 0.000434753 0)
(0 0.00012755 0)
(0 0.000838131 0)
(0 -5.1111e-06 0)
(0 0.000736748 0)
(0 0.000673102 0)
(0 0.000131614 0)
(0 0.000832664 0)
(0 -5.47212e-06 0)
(0 -2.34177e-06 0)
(0 1.79361e-05 0)
(0 0.000458814 0)
(0 0.000271972 0)
(0 0.000113219 0)
(0 0.000435754 0)
(0 -5.32275e-06 0)
(0 0.00142029 0)
(0 9.05021e-06 0)
(0 0.00037525 0)
(0 0.00137619 0)
(0 -5.50981e-06 0)
(0 0.000414579 0)
(0 0.00118708 0)
(0 4.93311e-05 0)
(0 -5.49939e-06 0)
(0 0.000601348 0)
(0 9.59626e-05 0)
(0 0.000671739 0)
(0 0.000580682 0)
(0 0.000244067 0)
(0 4.14975e-05 0)
(0 0.0010722 0)
(0 0.00136211 0)
(0 0.000485179 0)
(0 2.30389e-06 0)
(0 -5.49554e-06 0)
(0 0.00119659 0)
(0 0.000685444 0)
(0 0.000780809 0)
(0 -5.51095e-06 0)
(0 -5.47461e-06 0)
(0 -5.30771e-06 0)
(0 0.00106275 0)
(0 3.64209e-05 0)
(0 9.09902e-05 0)
(0 -5.07427e-06 0)
(0 0.000130735 0)
(0 0.0012217 0)
(0 0.00112872 0)
(0 0.000768748 0)
(0 0.000127395 0)
(0 0.000558332 0)
(0 -5.12977e-06 0)
(0 0.00103825 0)
(0 0.000752797 0)
(0 0.000243326 0)
(0 -5.01731e-06 0)
(0 -7.57246e-08 0)
(0 0.000127292 0)
(0 4.01294e-06 0)
(0 0.000217608 0)
(0 -5.51148e-06 0)
(0 -5.10284e-06 0)
(0 -4.32748e-06 0)
(0 0.000281948 0)
(0 0.000167026 0)
(0 2.15836e-05 0)
(0 -4.37906e-06 0)
(0 -5.06222e-06 0)
(0 0.000242758 0)
(0 8.34839e-05 0)
(0 0.000224349 0)
(0 0.00101974 0)
(0 0.000706451 0)
(0 0.000582244 0)
(0 0.000694504 0)
(0 5.46194e-06 0)
(0 -5.02111e-06 0)
(0 0.000390061 0)
(0 6.57043e-05 0)
(0 0.000199951 0)
(0 5.25199e-05 0)
(0 0.0012514 0)
(0 0.000248189 0)
(0 -5.47649e-06 0)
(0 -4.12543e-06 0)
(0 6.85019e-05 0)
(0 0.000137666 0)
(0 0.000755754 0)
(0 0.000269527 0)
(0 0.00117044 0)
(0 -3.65219e-07 0)
(0 0.000171656 0)
(0 8.72526e-07 0)
(0 5.0718e-07 0)
(0 1.7192e-05 0)
(0 -5.36992e-06 0)
(0 0.000268513 0)
(0 0.000351463 0)
(0 0.000975932 0)
(0 2.31174e-05 0)
(0 -1.21535e-08 0)
(0 0.00112983 0)
(0 -5.23632e-06 0)
(0 0.000381562 0)
(0 0.000575898 0)
(0 -5.49284e-06 0)
(0 0.000394408 0)
(0 0.000123962 0)
(0 0.00107933 0)
(0 0.000443685 0)
(0 0.00100088 0)
(0 0.000750844 0)
(0 0.000187879 0)
(0 7.11352e-06 0)
(0 0.000600029 0)
(0 0.000240042 0)
(0 0.000456712 0)
(0 0.000829068 0)
(0 1.22881e-05 0)
(0 8.35274e-05 0)
(0 0.000941414 0)
(0 0.0005687 0)
(0 7.79127e-05 0)
(0 9.49857e-05 0)
(0 0.000635599 0)
(0 -5.48723e-06 0)
(0 0.000514632 0)
(0 0.00107305 0)
(0 -3.73619e-06 0)
(0 0.000437528 0)
(0 -5.34971e-06 0)
(0 -4.53204e-06 0)
(0 0.00124025 0)
(0 0.00115388 0)
(0 0.000730385 0)
(0 0.000402894 0)
(0 0.000798824 0)
(0 8.93481e-06 0)
(0 2.59159e-05 0)
(0 -1.23221e-06 0)
(0 0.000188072 0)
(0 0.000831222 0)
(0 0.000194908 0)
(0 0.000313792 0)
(0 -4.57809e-06 0)
(0 0.000220244 0)
(0 0.000213766 0)
(0 0.000350597 0)
(0 -1.51268e-06 0)
(0 0.000859439 0)
(0 0.000950529 0)
(0 0.000866075 0)
(0 0.000156497 0)
(0 0.000982083 0)
(0 0.00066376 0)
(0 0.00129764 0)
(0 0.00030318 0)
(0 0.000364329 0)
(0 0.000500252 0)
(0 0.000148832 0)
(0 6.7345e-05 0)
(0 -5.24153e-06 0)
(0 0.000220529 0)
(0 -7.31331e-07 0)
(0 -5.44615e-06 0)
(0 0.00106261 0)
(0 0.0002514 0)
(0 2.13795e-05 0)
(0 0.00102252 0)
(0 0.000228181 0)
(0 0.000754887 0)
(0 7.25576e-05 0)
(0 0.000117677 0)
(0 0.000210347 0)
(0 0.000931814 0)
(0 0.000494088 0)
(0 1.99449e-05 0)
(0 1.81692e-06 0)
(0 -2.21675e-06 0)
(0 0.000111624 0)
(0 0.0011991 0)
(0 0.000109859 0)
(0 -5.48968e-06 0)
(0 1.62252e-05 0)
(0 0.000339211 0)
(0 0.000608406 0)
(0 9.70765e-05 0)
(0 -5.17274e-08 0)
(0 9.36357e-05 0)
(0 0.000554795 0)
(0 0.0007766 0)
(0 -4.0625e-06 0)
(0 0.00104506 0)
(0 3.59333e-06 0)
(0 3.81873e-05 0)
(0 0.000944104 0)
(0 -2.68087e-06 0)
(0 0.000236917 0)
(0 -8.1369e-08 0)
(0 0.000837018 0)
(0 -4.66823e-06 0)
(0 1.17237e-05 0)
(0 0.000685262 0)
(0 6.04379e-07 0)
(0 0.00103581 0)
(0 -4.87462e-06 0)
(0 0.00104631 0)
(0 0.000966154 0)
(0 0.000307313 0)
(0 0.00113669 0)
(0 1.26998e-05 0)
(0 0.00100732 0)
(0 0.000924959 0)
(0 0.000449296 0)
(0 0.0010341 0)
(0 0.000785185 0)
(0 4.33168e-05 0)
(0 0.000357631 0)
(0 0.000367689 0)
(0 0.000475727 0)
(0 0.000453868 0)
(0 -5.46783e-06 0)
(0 1.18519e-05 0)
(0 0.000358735 0)
(0 7.54335e-05 0)
(0 0.000508837 0)
(0 0.000512145 0)
(0 0.00147042 0)
(0 0.000810976 0)
(0 -5.20607e-06 0)
(0 0.000946388 0)
(0 2.9812e-05 0)
(0 -5.50722e-06 0)
(0 2.93227e-06 0)
(0 5.44334e-05 0)
(0 0.000833104 0)
(0 8.45445e-05 0)
(0 0.000576166 0)
(0 0.00027345 0)
(0 8.54077e-05 0)
(0 0.000582849 0)
(0 0.000417339 0)
(0 0.000646755 0)
(0 -5.16853e-06 0)
(0 0.000178517 0)
(0 -5.49956e-06 0)
(0 2.40689e-06 0)
(0 1.13734e-06 0)
(0 0.00106068 0)
(0 0.000380541 0)
(0 -5.4771e-06 0)
(0 0.000997458 0)
(0 5.06924e-06 0)
(0 0.000996577 0)
(0 1.20208e-05 0)
(0 0.000815479 0)
(0 4.05219e-05 0)
(0 -4.71728e-06 0)
(0 0.000761562 0)
(0 0.000226778 0)
(0 0.00099296 0)
(0 0.00010929 0)
(0 7.69205e-05 0)
(0 5.75774e-05 0)
(0 -4.18373e-06 0)
(0 0.000282583 0)
(0 6.16905e-05 0)
(0 3.13129e-05 0)
(0 8.1355e-05 0)
(0 0.000574927 0)
(0 0.000742198 0)
(0 0.000166113 0)
(0 0.000334843 0)
(0 0.00012405 0)
(0 0.000450655 0)
(0 0.000536451 0)
(0 0.00041252 0)
(0 8.58549e-06 0)
(0 5.38468e-05 0)
(0 0.000677847 0)
(0 -5.49722e-06 0)
(0 0.000962928 0)
(0 4.67099e-07 0)
(0 0.00110173 0)
(0 0.000698162 0)
(0 0.00103132 0)
(0 0.000471497 0)
(0 0.000164865 0)
(0 -6.50919e-07 0)
(0 0.000671976 0)
(0 3.16704e-06 0)
(0 3.2787e-05 0)
(0 7.44526e-05 0)
(0 7.23854e-05 0)
(0 -5.44425e-06 0)
(0 0.000380866 0)
(0 7.62186e-05 0)
(0 -5.25265e-06 0)
(0 -1.21659e-07 0)
(0 -3.26598e-06 0)
(0 4.28268e-05 0)
(0 2.0869e-06 0)
(0 0.000586078 0)
(0 -5.50409e-06 0)
(0 0.000434255 0)
(0 0.000706821 0)
(0 -8.81255e-07 0)
(0 7.17075e-05 0)
(0 -3.66189e-06 0)
(0 6.31395e-05 0)
(0 5.43978e-05 0)
(0 0.000201401 0)
(0 -4.68243e-06 0)
(0 -5.31886e-06 0)
(0 0.000410392 0)
(0 6.25229e-05 0)
(0 0.000433394 0)
(0 -3.42597e-06 0)
(0 0.000536578 0)
(0 0.00107216 0)
(0 0.000582972 0)
(0 0.00100773 0)
(0 9.00567e-05 0)
(0 -3.17706e-06 0)
(0 -2.28717e-06 0)
(0 -5.39451e-06 0)
(0 0.000386741 0)
(0 0.000306057 0)
(0 1.16908e-06 0)
(0 -3.00406e-06 0)
(0 0.000600083 0)
(0 0.000136082 0)
(0 0.000510359 0)
(0 -5.51953e-06 0)
(0 0.00020485 0)
(0 0.00124253 0)
(0 1.83706e-05 0)
(0 -2.9803e-06 0)
(0 -5.33519e-06 0)
(0 9.75247e-05 0)
(0 0.000204327 0)
(0 6.30848e-07 0)
(0 0.00037025 0)
(0 1.45655e-05 0)
(0 0.000353241 0)
(0 6.15736e-05 0)
(0 0.000194625 0)
(0 0.000359381 0)
(0 0.000591289 0)
(0 0.00118065 0)
(0 0.000251075 0)
(0 7.92929e-05 0)
(0 0.000248329 0)
(0 3.16368e-05 0)
(0 1.60228e-05 0)
(0 3.4874e-05 0)
(0 0.000159913 0)
(0 0.000863114 0)
(0 0.00111122 0)
(0 6.6323e-05 0)
(0 0.000960643 0)
(0 3.59399e-05 0)
(0 8.38636e-05 0)
(0 4.3309e-05 0)
(0 5.51402e-05 0)
(0 3.25421e-07 0)
(0 0.000801731 0)
(0 -5.38106e-06 0)
(0 0.000280533 0)
(0 3.58014e-05 0)
(0 9.85107e-05 0)
(0 1.32684e-05 0)
(0 0.000368109 0)
(0 0.00091542 0)
(0 3.66868e-05 0)
(0 0.00104415 0)
(0 0.000590851 0)
(0 0.000108105 0)
(0 1.19683e-05 0)
(0 0.000903163 0)
(0 0.000230433 0)
(0 1.65629e-05 0)
(0 0.000393981 0)
(0 0.000224596 0)
(0 1.74811e-05 0)
(0 0.000652948 0)
(0 8.35281e-05 0)
(0 0.000658646 0)
(0 0.000551815 0)
(0 0.000794475 0)
(0 4.76272e-06 0)
(0 2.05601e-05 0)
(0 -5.21907e-06 0)
(0 0.000828042 0)
(0 0.00138294 0)
(0 0.000694929 0)
(0 0.00099726 0)
(0 0.000363707 0)
(0 0.000270736 0)
(0 -3.71428e-06 0)
(0 0.000298458 0)
(0 0.000332287 0)
(0 1.31535e-06 0)
(0 0.000332373 0)
(0 8.16478e-05 0)
(0 0.000611996 0)
(0 -5.5105e-06 0)
(0 0.000570781 0)
(0 0.000246918 0)
(0 1.58823e-05 0)
(0 -5.41769e-06 0)
(0 0.000959685 0)
(0 0.0012992 0)
(0 0.00118454 0)
(0 0.000721682 0)
(0 0.00033938 0)
(0 0.000388149 0)
(0 1.71495e-05 0)
(0 0.000498127 0)
(0 0.000174049 0)
(0 0.000608984 0)
(0 0.000625904 0)
(0 4.62412e-05 0)
(0 -5.20131e-06 0)
(0 0.000125935 0)
(0 0.000853594 0)
(0 0.000995806 0)
(0 0.000170124 0)
(0 0.000242318 0)
(0 0.000213622 0)
(0 0.000998311 0)
(0 0.000988785 0)
(0 -5.50518e-06 0)
(0 0.00044215 0)
(0 0.000187512 0)
(0 0.000132301 0)
(0 1.98232e-05 0)
(0 0.000970427 0)
(0 3.04068e-05 0)
(0 0.000561736 0)
(0 -4.84371e-06 0)
(0 4.08548e-05 0)
(0 7.41936e-06 0)
(0 -3.83236e-06 0)
(0 0.00021597 0)
(0 7.325e-06 0)
(0 0.000108328 0)
(0 0.000810126 0)
(0 -5.14144e-06 0)
(0 0.000140597 0)
(0 0.00107864 0)
(0 0.000572498 0)
(0 0.000102239 0)
(0 -5.43757e-06 0)
(0 0.000518474 0)
(0 0.00145001 0)
(0 0.00103111 0)
(0 0.000999857 0)
(0 0.000813424 0)
(0 0.00057748 0)
(0 -3.61646e-06 0)
(0 9.1856e-05 0)
(0 0.000386565 0)
(0 0.000617677 0)
(0 9.07752e-05 0)
(0 7.64111e-05 0)
(0 0.000723727 0)
(0 0.000187817 0)
(0 1.3841e-05 0)
(0 0.000695535 0)
(0 0.000303136 0)
(0 -5.18473e-06 0)
(0 0.000162915 0)
(0 0.000864569 0)
(0 -5.28173e-06 0)
(0 0.0004645 0)
(0 0.000209195 0)
(0 -2.05716e-06 0)
(0 -5.43879e-06 0)
(0 0.000674938 0)
(0 0.000465273 0)
(0 -3.22606e-06 0)
(0 0.000182343 0)
(0 0.000250586 0)
(0 0.000247416 0)
(0 0.000111485 0)
(0 1.85082e-05 0)
(0 3.99397e-05 0)
(0 0.00117464 0)
(0 -4.24005e-06 0)
(0 0.000249524 0)
(0 1.74962e-05 0)
(0 0.000891664 0)
(0 0.000144967 0)
(0 0.00113596 0)
(0 0.000258154 0)
(0 0.00025628 0)
(0 1.29354e-06 0)
(0 0.000754623 0)
(0 0.000957365 0)
(0 4.66854e-05 0)
(0 0.0009525 0)
(0 0.000611613 0)
(0 0.000884099 0)
(0 0.000186276 0)
(0 0.000985966 0)
(0 0.000248196 0)
(0 7.82117e-05 0)
(0 0.000134379 0)
(0 9.72492e-05 0)
(0 0.000496472 0)
(0 0.000752642 0)
(0 -5.50409e-06 0)
(0 0.00024693 0)
(0 0.000794355 0)
(0 0.000186879 0)
(0 -5.50118e-06 0)
(0 0.000983463 0)
(0 0.00143225 0)
(0 0.000898455 0)
(0 1.83955e-05 0)
(0 0.000252386 0)
(0 -5.45406e-06 0)
(0 0.000729068 0)
(0 0.00021817 0)
(0 0.000534681 0)
(0 0.000552186 0)
(0 1.39533e-05 0)
(0 1.27462e-05 0)
(0 0.000624916 0)
(0 8.32938e-06 0)
(0 0.000783025 0)
(0 1.77526e-05 0)
(0 0.00074177 0)
(0 0.000344944 0)
(0 0.00105207 0)
(0 0.000669199 0)
(0 2.3259e-05 0)
(0 -5.50325e-06 0)
(0 0.000564861 0)
(0 0.00018162 0)
(0 0.000181333 0)
(0 0.000957924 0)
(0 -5.35644e-06 0)
(0 -5.50401e-06 0)
(0 0.000231481 0)
(0 0.000654538 0)
(0 0.000702955 0)
(0 -5.39304e-06 0)
(0 0.00089028 0)
(0 -5.41903e-06 0)
(0 0.00112765 0)
(0 0.000480015 0)
(0 0.000628674 0)
(0 0.000219819 0)
(0 0.000667822 0)
(0 7.1416e-06 0)
(0 -4.51408e-06 0)
(0 -5.38954e-06 0)
(0 1.42291e-05 0)
(0 -5.49183e-06 0)
(0 0.00115261 0)
(0 7.70377e-05 0)
(0 -3.45046e-06 0)
(0 1.20522e-05 0)
(0 0.000557746 0)
(0 0.000502495 0)
(0 6.84239e-05 0)
(0 0.000915592 0)
(0 -5.021e-06 0)
(0 9.73863e-05 0)
(0 4.45565e-05 0)
(0 0.000458355 0)
(0 -2.04213e-06 0)
(0 -5.49577e-06 0)
(0 -5.38522e-06 0)
(0 0.000114804 0)
(0 0.000202615 0)
(0 6.04828e-05 0)
(0 -5.10249e-06 0)
(0 0.00101968 0)
(0 -4.19116e-06 0)
(0 2.66233e-05 0)
(0 1.12665e-05 0)
(0 -1.64509e-06 0)
(0 3.02341e-06 0)
(0 0.000423381 0)
(0 0.000303799 0)
(0 0.000368742 0)
(0 0.000419483 0)
(0 -5.09654e-06 0)
(0 -5.48466e-06 0)
(0 0.000475596 0)
(0 -5.44952e-06 0)
(0 0.00075583 0)
(0 0.000124323 0)
(0 2.88841e-06 0)
(0 1.55523e-05 0)
(0 1.97811e-05 0)
(0 0.00115928 0)
(0 0.000202728 0)
(0 0.00035451 0)
(0 0.000671774 0)
(0 0.000857999 0)
(0 0.000177649 0)
(0 0.00047881 0)
(0 -3.2966e-06 0)
(0 7.08746e-05 0)
(0 0.00117493 0)
(0 2.52698e-05 0)
(0 0.000118099 0)
(0 7.88068e-05 0)
(0 0.000475352 0)
(0 -5.12559e-06 0)
(0 -3.96689e-06 0)
(0 -7.99591e-07 0)
(0 0.000227514 0)
(0 6.83137e-05 0)
(0 0.000470553 0)
(0 6.90774e-05 0)
(0 0.000995243 0)
(0 -1.1763e-06 0)
(0 0.000228817 0)
(0 0.000489933 0)
(0 0.00107487 0)
(0 0.000363892 0)
(0 -5.35872e-06 0)
(0 0.000196683 0)
(0 0.00127676 0)
(0 -3.6527e-06 0)
(0 0.00114387 0)
(0 0.000160661 0)
(0 0.0010226 0)
(0 0.000291534 0)
(0 0.00134519 0)
(0 0.000605989 0)
(0 -5.43329e-06 0)
(0 6.78179e-05 0)
(0 1.83856e-06 0)
(0 -5.47059e-06 0)
(0 3.78919e-06 0)
(0 0.0011247 0)
(0 0.000862838 0)
(0 0.000200058 0)
(0 1.96425e-05 0)
(0 0.00079092 0)
(0 0.0006835 0)
(0 -3.40289e-06 0)
(0 0.000418658 0)
(0 0.00047988 0)
(0 0.000190952 0)
(0 7.99153e-05 0)
(0 -2.95658e-06 0)
(0 0.000926554 0)
(0 5.27374e-05 0)
(0 0.000682313 0)
(0 0.000478355 0)
(0 -4.27275e-06 0)
(0 4.23637e-05 0)
(0 0.000130043 0)
(0 0.000607897 0)
(0 0.000912309 0)
(0 -5.48001e-06 0)
(0 1.24617e-05 0)
(0 1.58867e-06 0)
(0 -5.47495e-06 0)
(0 0.000645445 0)
(0 0.000976111 0)
(0 0.00122206 0)
(0 -5.50899e-06 0)
(0 0.000272461 0)
(0 0.000144336 0)
(0 0.000506699 0)
(0 0.000580525 0)
(0 0.000828021 0)
(0 7.8759e-05 0)
(0 0.000570422 0)
(0 1.49875e-05 0)
(0 0.000743759 0)
(0 6.92097e-05 0)
(0 6.97227e-05 0)
(0 0.000596811 0)
(0 0.00100152 0)
(0 0.000633469 0)
(0 6.00585e-05 0)
(0 -5.37051e-06 0)
(0 0.000315123 0)
(0 -5.48863e-06 0)
(0 0.000783947 0)
(0 6.36873e-05 0)
(0 0.000625624 0)
(0 1.7599e-05 0)
(0 0.00110947 0)
(0 0.00111221 0)
(0 0.000368855 0)
(0 7.14555e-05 0)
(0 8.57078e-05 0)
(0 0.00065146 0)
(0 0.000104905 0)
(0 5.005e-06 0)
(0 8.91557e-06 0)
(0 0.000577961 0)
(0 8.23444e-05 0)
(0 -4.70465e-06 0)
(0 0.000447586 0)
(0 -1.29476e-07 0)
(0 3.68349e-05 0)
(0 2.17713e-05 0)
(0 0.000687555 0)
(0 0.000534014 0)
(0 0.000250447 0)
(0 8.51344e-06 0)
(0 0.00076723 0)
(0 0.000389154 0)
(0 0.000502525 0)
(0 0.00055786 0)
(0 0.000487644 0)
(0 0.000687649 0)
(0 0.00100507 0)
(0 0.00147137 0)
(0 -4.28651e-06 0)
(0 0.000203367 0)
(0 0.000408435 0)
(0 4.86622e-05 0)
(0 0.00070016 0)
(0 0.00122823 0)
(0 8.12516e-05 0)
(0 1.36553e-05 0)
(0 6.28219e-06 0)
(0 4.47071e-05 0)
(0 0.000101737 0)
(0 0.00013781 0)
(0 -4.97744e-06 0)
(0 0.000122527 0)
(0 -5.48085e-06 0)
(0 1.87193e-05 0)
(0 0.000552791 0)
(0 0.000645215 0)
(0 0.000455594 0)
(0 -5.17244e-06 0)
(0 -5.30851e-06 0)
(0 3.83016e-05 0)
(0 1.79978e-06 0)
(0 0.000680595 0)
(0 0.000732385 0)
(0 0.000243979 0)
(0 0.000523969 0)
(0 -5.50524e-06 0)
(0 0.000287003 0)
(0 0.000645705 0)
(0 3.82462e-05 0)
(0 -2.54454e-06 0)
(0 4.01005e-05 0)
(0 0.000425148 0)
(0 0.000390165 0)
(0 2.49376e-05 0)
(0 0.000191883 0)
(0 0.000422186 0)
(0 -3.73291e-06 0)
(0 2.52356e-06 0)
(0 0.000464371 0)
(0 2.4488e-05 0)
(0 5.15389e-05 0)
(0 6.01433e-05 0)
(0 9.38087e-06 0)
(0 0.000199246 0)
(0 0.000617274 0)
(0 1.12039e-05 0)
(0 0.00107683 0)
(0 0.000342221 0)
(0 0.000197774 0)
(0 -5.44568e-06 0)
(0 0.000197984 0)
(0 5.5426e-05 0)
(0 1.68237e-05 0)
(0 0.000627433 0)
(0 -5.45882e-06 0)
(0 -5.49316e-06 0)
(0 0.0008048 0)
(0 -5.36502e-06 0)
(0 5.79744e-05 0)
(0 0.000689521 0)
(0 0.000883904 0)
(0 1.6664e-05 0)
(0 -4.18036e-06 0)
(0 0.00025843 0)
(0 0.000115325 0)
(0 0.00103052 0)
(0 3.27411e-07 0)
(0 7.2243e-06 0)
(0 0.000134964 0)
(0 0.000666227 0)
(0 0.000703079 0)
(0 0.000656194 0)
(0 6.71798e-05 0)
(0 0.000389071 0)
(0 5.96747e-05 0)
(0 0.000125306 0)
(0 0.000242956 0)
(0 -4.04226e-06 0)
(0 1.37719e-05 0)
(0 0.000416837 0)
(0 0.000200698 0)
(0 0.000445437 0)
(0 -3.74276e-06 0)
(0 0.000222806 0)
(0 0.00104084 0)
(0 0.000684281 0)
(0 0.00106413 0)
(0 0.000397696 0)
(0 -5.42623e-06 0)
(0 -3.66378e-06 0)
(0 1.15819e-05 0)
(0 0.000193301 0)
(0 0.000761853 0)
(0 -2.34467e-06 0)
(0 0.000185162 0)
(0 0.000478959 0)
(0 -5.17595e-06 0)
(0 0.000661661 0)
(0 4.22337e-05 0)
(0 -5.47761e-06 0)
(0 0.000684199 0)
(0 -5.48194e-06 0)
(0 -5.08647e-06 0)
(0 1.68282e-05 0)
(0 -5.49699e-06 0)
(0 6.168e-05 0)
(0 0.00078589 0)
(0 0.000412501 0)
(0 -5.40876e-06 0)
(0 -2.42158e-06 0)
(0 0.000433463 0)
(0 -5.46605e-06 0)
(0 0.00025473 0)
(0 0.00101014 0)
(0 0.000181179 0)
(0 0.000572175 0)
(0 0.000202606 0)
(0 0.000268122 0)
(0 -3.26731e-06 0)
(0 -5.49937e-06 0)
(0 -2.48076e-06 0)
(0 9.10713e-05 0)
(0 2.98779e-05 0)
(0 2.93193e-05 0)
(0 -5.44646e-06 0)
(0 0.000692536 0)
(0 -5.49887e-06 0)
(0 6.04665e-05 0)
(0 0.000210437 0)
(0 0.000228548 0)
(0 0.000132783 0)
(0 0.000560369 0)
(0 9.6787e-05 0)
(0 -5.43335e-06 0)
(0 0.000719367 0)
(0 0.000701008 0)
(0 -5.43052e-06 0)
(0 1.96452e-05 0)
(0 0.000210401 0)
(0 0.000184577 0)
(0 7.1578e-05 0)
(0 0.00119934 0)
(0 8.59553e-05 0)
(0 8.7728e-05 0)
(0 -7.69742e-07 0)
(0 0.000364163 0)
(0 0.000657715 0)
(0 7.39958e-05 0)
(0 -5.4665e-06 0)
(0 6.35432e-05 0)
(0 0.000550435 0)
(0 -2.78313e-06 0)
(0 0.000600581 0)
(0 0.000722663 0)
(0 0.00109434 0)
(0 0.000356749 0)
(0 0.000676972 0)
(0 0.000446421 0)
(0 -1.16216e-06 0)
(0 0.000293053 0)
(0 0.000179252 0)
(0 -5.06272e-06 0)
(0 0.000239997 0)
(0 9.08944e-06 0)
(0 1.8632e-06 0)
(0 1.29867e-05 0)
(0 7.45318e-05 0)
(0 0.000927402 0)
(0 0.00025647 0)
(0 0.00061783 0)
(0 0.000300604 0)
(0 8.81261e-06 0)
(0 0.000761764 0)
(0 2.42656e-06 0)
(0 0.000208629 0)
(0 5.61244e-05 0)
(0 0.00110647 0)
(0 -3.16831e-06 0)
(0 8.4786e-05 0)
(0 -5.31001e-06 0)
(0 7.42153e-05 0)
(0 -5.32426e-06 0)
(0 0.000452891 0)
(0 6.53826e-05 0)
(0 1.73558e-05 0)
(0 0.000135029 0)
(0 0.000442373 0)
(0 -1.90032e-06 0)
(0 0.000113698 0)
(0 -2.39109e-06 0)
(0 0.000769595 0)
(0 7.78985e-05 0)
(0 0.00114243 0)
(0 -5.31471e-06 0)
(0 -1.58236e-06 0)
(0 4.04866e-05 0)
(0 0.00114604 0)
(0 0.00117712 0)
(0 6.39027e-05 0)
(0 -5.49615e-06 0)
(0 0.000346942 0)
(0 0.00126616 0)
(0 0.000136708 0)
(0 1.29258e-05 0)
(0 0.000168787 0)
(0 0.000544574 0)
(0 6.66661e-06 0)
(0 0.000714052 0)
(0 0.000275593 0)
(0 0.00110108 0)
(0 0.000355726 0)
(0 0.00102276 0)
(0 -1.43504e-06 0)
(0 0.00099822 0)
(0 0.00104674 0)
(0 1.52491e-05 0)
(0 -5.49665e-06 0)
(0 0.000473464 0)
(0 4.6594e-05 0)
(0 0.000617893 0)
(0 6.52366e-06 0)
(0 0.000714797 0)
(0 -7.29627e-07 0)
(0 0.000420276 0)
(0 1.53856e-05 0)
(0 0.000739406 0)
(0 0.000337174 0)
(0 -5.05441e-06 0)
(0 0.000385919 0)
(0 -5.23897e-06 0)
(0 0.000270858 0)
(0 -5.49412e-06 0)
(0 0.000477762 0)
(0 0.000926278 0)
(0 0.000680868 0)
(0 0.00028093 0)
(0 0.000218026 0)
(0 0.000217996 0)
(0 -5.4525e-06 0)
(0 0.000366156 0)
(0 0.000283617 0)
(0 3.99981e-05 0)
(0 0.000129869 0)
(0 0.000576586 0)
(0 0.000227624 0)
(0 2.38611e-05 0)
(0 -5.50824e-06 0)
(0 0.00103339 0)
(0 -4.10407e-06 0)
(0 0.000565202 0)
(0 3.64866e-05 0)
(0 -5.27141e-06 0)
(0 0.000210863 0)
(0 0.00143203 0)
(0 0.000694751 0)
(0 9.4524e-05 0)
(0 -1.55275e-06 0)
(0 0.000258317 0)
(0 0.000150933 0)
(0 0.000938054 0)
(0 0.000177735 0)
(0 0.000893491 0)
(0 -4.58318e-06 0)
(0 -4.92245e-06 0)
(0 -5.4944e-06 0)
(0 0.000763872 0)
(0 0.000276196 0)
(0 -3.55916e-06 0)
(0 0.000536584 0)
(0 2.05868e-05 0)
(0 0.000658882 0)
(0 -1.84473e-06 0)
(0 5.98044e-05 0)
(0 0.00134019 0)
(0 3.61376e-05 0)
(0 -1.91571e-06 0)
(0 0.0009865 0)
(0 0.000288649 0)
(0 0.00110082 0)
(0 4.80374e-05 0)
(0 -1.47723e-06 0)
(0 2.13428e-05 0)
(0 -3.7288e-06 0)
(0 0.000620878 0)
(0 0.000642341 0)
(0 -4.99968e-06 0)
(0 0.000533945 0)
(0 4.6901e-05 0)
(0 0.00014965 0)
(0 0.000361427 0)
(0 0.00104177 0)
(0 -2.60563e-06 0)
(0 0.000323914 0)
(0 -2.88802e-06 0)
(0 0.00107967 0)
(0 1.13641e-05 0)
(0 0.000414165 0)
(0 -3.26457e-06 0)
(0 0.000232211 0)
(0 0.000280977 0)
(0 0.000280493 0)
(0 -4.80812e-06 0)
(0 0.000819484 0)
(0 0.000100855 0)
(0 -3.19825e-07 0)
(0 1.69349e-05 0)
(0 -5.39657e-06 0)
(0 -4.22133e-06 0)
(0 0.000502297 0)
(0 0.0012562 0)
(0 0.00077137 0)
(0 2.22272e-05 0)
(0 0.000834163 0)
(0 5.24108e-05 0)
(0 1.54195e-05 0)
(0 0.000288753 0)
(0 1.32694e-05 0)
(0 0.000663784 0)
(0 0.000717824 0)
(0 0.00012935 0)
(0 0.000700225 0)
(0 -5.46683e-06 0)
(0 2.40409e-05 0)
(0 -9.85609e-07 0)
(0 4.93428e-05 0)
(0 0.000292983 0)
(0 -5.46859e-06 0)
(0 0.000334795 0)
(0 0.000338984 0)
(0 0.000591053 0)
(0 0.00013678 0)
(0 2.59319e-05 0)
(0 0.00120208 0)
(0 0.000571318 0)
(0 0.00024878 0)
(0 0.000622866 0)
(0 7.44126e-05 0)
(0 1.9218e-05 0)
(0 -5.40825e-06 0)
(0 3.70743e-05 0)
(0 0.000569947 0)
(0 1.42243e-05 0)
(0 0.000695695 0)
(0 0.000936867 0)
(0 0.000440954 0)
(0 -2.12306e-06 0)
(0 1.41742e-05 0)
(0 8.74336e-05 0)
(0 1.56155e-05 0)
(0 5.85105e-08 0)
(0 5.00552e-05 0)
(0 8.10546e-07 0)
(0 0.00065448 0)
(0 9.50403e-05 0)
(0 -5.29528e-06 0)
(0 0.00064832 0)
(0 -2.46662e-06 0)
(0 0.000807685 0)
(0 0.000848852 0)
(0 7.90456e-05 0)
(0 -3.27464e-06 0)
(0 0.000713099 0)
(0 3.57712e-05 0)
(0 -4.32667e-06 0)
(0 7.11815e-06 0)
(0 0.000467399 0)
(0 0.000213273 0)
(0 0.000342054 0)
(0 0.000294589 0)
(0 4.45877e-07 0)
(0 0.000530142 0)
(0 4.85759e-05 0)
(0 -5.38121e-06 0)
(0 0.000395857 0)
(0 0.000790232 0)
(0 0.000720711 0)
(0 -4.09431e-06 0)
(0 0.00107202 0)
(0 0.00144142 0)
(0 2.03207e-05 0)
(0 0.000460582 0)
(0 0.000863417 0)
(0 1.02267e-05 0)
(0 0.000361343 0)
(0 1.58424e-05 0)
(0 1.56903e-05 0)
(0 -5.48734e-06 0)
(0 -4.3382e-06 0)
(0 0.00120579 0)
(0 0.00101487 0)
(0 0.000735919 0)
(0 0.000454144 0)
(0 9.62674e-06 0)
(0 0.000507578 0)
(0 -4.63118e-06 0)
(0 0.000327356 0)
(0 -5.29952e-06 0)
(0 0.00032175 0)
(0 0.000687598 0)
(0 0.000374754 0)
(0 0.000630998 0)
(0 0.000103073 0)
(0 0.000642697 0)
(0 0.00103416 0)
(0 2.87736e-05 0)
(0 0.000824219 0)
(0 0.000337114 0)
(0 0.000457704 0)
(0 -5.50113e-06 0)
(0 0.000340937 0)
(0 0.00122315 0)
(0 0.00101219 0)
(0 0.0001267 0)
(0 0.000686352 0)
(0 0.000376528 0)
(0 0.000855297 0)
(0 0.000492435 0)
(0 0.00102906 0)
(0 0.000772012 0)
(0 0.000293936 0)
(0 0.000113544 0)
(0 0.000252495 0)
(0 -5.29405e-06 0)
(0 -5.40037e-06 0)
(0 -5.30827e-06 0)
(0 0.000719394 0)
(0 0.000290197 0)
(0 0.00122457 0)
(0 0.00079746 0)
(0 0.00121977 0)
(0 0.000679173 0)
(0 0.000312913 0)
(0 0.000859658 0)
(0 0.000137513 0)
(0 0.000465732 0)
(0 0.00113302 0)
(0 0.000572708 0)
(0 -5.13097e-06 0)
(0 0.000982568 0)
(0 0.000797285 0)
(0 -5.21489e-06 0)
(0 0.000271873 0)
(0 0.000360732 0)
(0 -5.23537e-06 0)
(0 -5.49309e-06 0)
(0 0.000664654 0)
(0 -1.86548e-06 0)
(0 -3.77012e-06 0)
(0 0.000544847 0)
(0 3.41715e-05 0)
(0 0.000342638 0)
(0 0.000500294 0)
(0 0.000149303 0)
(0 5.6524e-05 0)
(0 0.000568796 0)
(0 0.000254683 0)
(0 0.00023635 0)
(0 0.000692566 0)
(0 -5.50981e-06 0)
(0 0.000684724 0)
(0 3.04059e-05 0)
(0 0.000204373 0)
(0 0.000138287 0)
(0 -5.18447e-06 0)
(0 0.000246609 0)
(0 0.000654165 0)
(0 0.0002749 0)
(0 0.000277342 0)
(0 9.28128e-05 0)
(0 -2.39637e-06 0)
(0 -5.36397e-06 0)
(0 -1.38574e-06 0)
(0 1.09399e-05 0)
(0 -2.56043e-06 0)
(0 5.54676e-05 0)
(0 7.6157e-05 0)
(0 -3.25532e-06 0)
(0 1.20343e-05 0)
(0 0.000356615 0)
(0 0.0001151 0)
(0 3.6499e-05 0)
(0 0.000977985 0)
(0 0.000241327 0)
(0 0.000304236 0)
(0 3.18741e-05 0)
(0 0.000755866 0)
(0 0.00109938 0)
(0 3.78952e-05 0)
(0 0.000673397 0)
(0 -3.17554e-06 0)
(0 0.000719208 0)
(0 -5.32881e-06 0)
(0 2.11717e-05 0)
(0 8.33077e-05 0)
(0 0.00119894 0)
(0 0.000398748 0)
(0 0.000107726 0)
(0 6.5023e-05 0)
(0 0.000450223 0)
(0 4.77985e-05 0)
(0 7.52433e-06 0)
(0 5.02439e-05 0)
(0 5.46892e-05 0)
(0 -3.4402e-06 0)
(0 -3.06074e-06 0)
(0 0.000890492 0)
(0 1.51035e-05 0)
(0 3.56907e-05 0)
(0 -2.93221e-06 0)
(0 1.95953e-05 0)
(0 0.00112403 0)
(0 0.000149795 0)
(0 0.000236236 0)
(0 0.000360794 0)
(0 0.000292937 0)
(0 0.000560345 0)
(0 0.000217511 0)
(0 -2.2328e-06 0)
(0 8.19851e-05 0)
(0 0.000453098 0)
(0 1.46744e-05 0)
(0 1.15687e-05 0)
(0 -5.44335e-06 0)
(0 -3.01656e-06 0)
(0 0.000291694 0)
(0 0.000410141 0)
(0 0.0013345 0)
(0 0.00076757 0)
(0 0.0002242 0)
(0 2.13829e-05 0)
(0 -5.26264e-06 0)
(0 0.000818547 0)
(0 -3.50911e-06 0)
(0 2.53377e-05 0)
(0 7.48974e-08 0)
(0 1.37133e-05 0)
(0 0.00011322 0)
(0 0.00030744 0)
(0 0.000435023 0)
(0 -5.40602e-06 0)
(0 -5.37569e-06 0)
(0 3.87571e-05 0)
(0 -4.56467e-06 0)
(0 0.000926256 0)
(0 -2.49243e-06 0)
(0 0.000654638 0)
(0 0.000821462 0)
(0 -5.36663e-06 0)
(0 0.000154087 0)
(0 0.000959081 0)
(0 0.000979959 0)
(0 9.30212e-06 0)
(0 -5.42055e-06 0)
(0 -1.67003e-06 0)
(0 1.14374e-05 0)
(0 0.00073083 0)
(0 0.000750093 0)
(0 0.000348684 0)
(0 -5.37879e-06 0)
(0 -5.3833e-06 0)
(0 0.000685534 0)
(0 0.000252781 0)
(0 7.78631e-05 0)
(0 4.59378e-05 0)
(0 3.67821e-07 0)
(0 -4.22512e-06 0)
(0 -5.4591e-06 0)
(0 0.000242222 0)
(0 0.000679603 0)
(0 0.000956831 0)
(0 -3.56012e-06 0)
(0 0.000920243 0)
(0 2.56272e-05 0)
(0 -5.28381e-06 0)
(0 -5.1607e-06 0)
(0 0.000411041 0)
(0 0.000127343 0)
(0 -5.48475e-06 0)
(0 -3.96744e-06 0)
(0 -5.36462e-06 0)
(0 -4.76416e-06 0)
(0 1.05929e-05 0)
(0 1.21664e-05 0)
(0 0.000581865 0)
(0 0.000102211 0)
(0 0.00144389 0)
(0 0.000734057 0)
(0 -5.26178e-06 0)
(0 2.74439e-05 0)
(0 -3.77566e-06 0)
(0 -3.99571e-06 0)
(0 1.75908e-05 0)
(0 0.000605843 0)
(0 0.000301141 0)
(0 0.000777757 0)
(0 0.000338704 0)
(0 0.000747205 0)
(0 4.15247e-05 0)
(0 -5.45162e-06 0)
(0 -1.5308e-06 0)
(0 0.000183302 0)
(0 0.000715512 0)