/*--------------------------------*- C++ -*----------------------------------*\
| =========                 |                                                 |
| \\      /  F ield         | OpenFOAM: The Open Source CFD Toolbox           |
|  \\    /   O peration     | Version:  v2012                                 |
|   \\  /    A nd           | Website:  www.openfoam.com                      |
|    \\/     M anipulation  |                                                 |
\*---------------------------------------------------------------------------*/
FoamFile
{
    version     2.0;
    format      ascii;
    class       surfaceVectorField;
    location    "50";
    object      ddtCorrDdt0(Uf);
}
// * * * * * * * * * * * * * * * * * * * * * * * * * * * * * * * * * * * * * //

dimensions      [0 1 -2 0 0 0 0];


internalField   nonuniform List<vector> 
14470
(
(9.09367e-05 0.000420462 3.72432e-18)
(-2.38116e-05 0.000614544 4.54859e-19)
(3.93928e-05 0.000453837 2.75853e-18)
(0.332063 -0.0274841 -2.73104e-17)
(0.272737 -0.00779131 6.61196e-17)
(0.000119669 -6.28076e-06 1.2691e-18)
(0.000166384 -1.44737e-05 -2.07523e-18)
(0.000135158 0.000134295 -1.16182e-18)
(0.0405843 0.232844 1.51788e-17)
(0.0296894 0.211084 -2.37662e-17)
(0.0440509 0.212783 1.61815e-18)
(1.63119e-05 -0.000645428 -4.62102e-19)
(1.78481e-05 -0.000648212 4.94094e-18)
(2.0562e-05 -0.000629585 -2.33728e-18)
(0.0244935 0.0511761 -2.55534e-18)
(0.0285071 0.0568547 -7.5223e-18)
(0.0316292 0.0502515 -3.98081e-18)
(-0.00547803 -0.00826567 -1.27341e-18)
(-0.00362631 -0.00991634 -6.56466e-18)
(-0.00605751 -0.0118499 -4.80939e-18)
(-0.197143 -0.00617496 1.45265e-17)
(-0.155951 0.0451634 1.82424e-17)
(-0.250684 0.003002 2.09422e-17)
(0.00075369 0.00147935 5.33607e-19)
(0.000853813 0.00151016 -1.36444e-18)
(0.000878453 0.00140933 2.75388e-19)
(4.16836e-05 0.000286933 1.10006e-18)
(6.1279e-05 0.000154291 1.57609e-18)
(5.8443e-05 0.000138646 2.14743e-18)
(2.60248e-05 0.000386528 -3.18878e-19)
(5.00202e-05 0.000392503 -2.55747e-18)
(0.000192835 0.000256355 9.37688e-19)
(0.000197746 0.000127007 -1.50836e-18)
(0.00020989 0.000142728 2.45111e-18)
(0.178347 0.131449 -1.0517e-17)
(0.149502 0.258661 -5.15889e-18)
(0.154357 0.0319813 -2.14523e-17)
(-0.000122524 0.001311 -2.66427e-18)
(-0.00015616 0.0012686 1.35221e-19)
(-0.000186142 0.00132994 -1.51723e-18)
(-0.00448857 0.0125018 2.17505e-19)
(-0.00415694 0.0134902 7.03927e-21)
(-0.00532336 0.0132784 5.06827e-19)
(0.011763 0.00625856 -8.02858e-18)
(0.0128174 0.00652525 6.86183e-18)
(0.0126606 0.00553465 -2.76142e-18)
(0.000180853 7.15086e-07 -1.80695e-19)
(0.000209992 0.000113397 2.97766e-18)
(0.000224312 -4.29116e-05 -3.31718e-18)
(0.562505 0.3161 -1.24399e-17)
(0.683027 0.279934 2.37552e-17)
(0.515993 0.0877124 -1.84769e-17)
(-0.000791906 0.00017005 1.54964e-20)
(-0.000783272 0.000106282 -2.43329e-18)
(-0.000804344 7.7763e-05 5.6763e-19)
(-0.00113999 0.000664353 -6.92415e-20)
(-0.00119346 0.000587608 2.18293e-18)
(-0.00116867 0.000573184 8.40286e-19)
(6.99925e-07 -0.000324378 -6.41717e-19)
(-2.11441e-06 -0.000325003 1.75246e-18)
(0.0647119 0.241442 4.29577e-17)
(0.0704929 0.181842 -4.26222e-17)
(0.0547254 0.173308 3.61018e-17)
(-0.168674 -0.0172283 -2.09311e-17)
(-0.241156 -0.0445841 -1.20673e-17)
(0.194529 0.193701 -1.00152e-18)
(0.221356 -0.0338534 1.04707e-17)
(0.000868506 -0.00151548 3.22219e-18)
(0.00093169 -0.00147892 -6.99643e-19)
(0.00076961 -0.00148793 -1.1043e-17)
(-3.63101e-06 -0.000407039 1.67175e-18)
(-9.73907e-06 -0.000491695 -4.13104e-19)
(-1.35359e-06 -0.000379029 4.65581e-19)
(1.89715e-05 -0.00022858 3.37253e-19)
(2.3626e-05 -0.000248069 2.3233e-18)
(3.83603e-05 -0.000242073 1.22724e-19)
(-0.00076208 0.000237445 -9.42798e-19)
(-0.000802028 0.000236237 -6.41756e-19)
(0.0168105 -0.00921249 6.42094e-18)
(0.0192043 -0.00974818 8.58759e-18)
(0.0172169 -0.0119524 -7.63474e-19)
(-0.0700101 -0.0700861 -4.10316e-18)
(-0.0423774 -0.0725421 2.47199e-17)
(-0.040961 -0.0415805 -4.24624e-17)
(0.0783436 0.0646599 -1.5883e-17)
(0.0686749 0.0588846 1.32341e-18)
(0.080038 0.052742 -1.87889e-17)
(8.1003e-05 -0.000288235 1.16284e-18)
(6.01412e-05 -0.000300157 5.6188e-19)
(8.35083e-05 -0.00028287 -5.28418e-19)
(0.000225617 -0.000232691 2.61563e-18)
(0.000209918 -0.000115527 -2.37418e-19)
(0.000235591 -0.000148516 -2.64204e-18)
(-2.38829e-05 3.42146e-05 3.36204e-18)
(-6.74401e-06 3.55353e-05 1.99843e-18)
(2.1374e-05 1.66566e-05 3.90951e-18)
(0.00399888 0.00677294 4.57789e-19)
(0.0039927 0.00646712 1.48095e-19)
(0.00423557 0.00670375 5.0048e-20)
(-0.00401596 0.0093838 -2.7765e-19)
(-0.00357686 0.0086884 7.0806e-19)
(-0.00429129 0.00858246 1.51031e-19)
(-0.00078896 -0.000722132 1.06329e-17)
(-0.000932378 -0.000905897 7.23932e-18)
(-0.000677881 -0.000966957 2.02371e-18)
(-0.259446 0.653904 -2.42896e-18)
(-0.27702 0.678886 -2.4876e-18)
(-0.234219 0.674698 2.30891e-18)
(0.00599221 0.00265984 3.77716e-18)
(0.00554522 0.00271533 -1.80783e-18)
(0.00579942 0.00310987 8.37375e-19)
(0.0144271 -0.00884746 -2.96357e-17)
(0.0158087 -0.00720068 -2.51615e-18)
(0.0341857 0.171432 -5.2521e-18)
(0.0504437 0.170259 -1.83352e-17)
(0.0481591 0.186766 -1.61282e-19)
(0.0115817 0.279 6.37691e-18)
(0.0266259 0.284948 9.95547e-18)
(-0.0265975 0.256539 -1.52501e-18)
(1.17644e-05 -0.000172827 5.66439e-19)
(1.76125e-05 -0.000218696 2.46255e-19)
(6.06001e-06 -0.000467211 4.51899e-18)
(2.38678e-05 -0.000405482 -2.30611e-18)
(1.04514e-05 -0.000431276 2.47815e-18)
(1.74622e-05 -0.000577245 -2.05917e-19)
(3.41518e-06 -0.000716832 -8.76634e-20)
(1.1682e-05 -0.000708768 -2.10205e-18)
(-0.485371 0.0288956 -2.13413e-18)
(-0.489295 0.00857479 3.51739e-18)
(-0.438042 0.0251195 -2.76686e-19)
(1.63961e-05 -0.000448568 -5.86745e-18)
(1.77385e-05 -0.000279556 -2.09696e-18)
(2.10786e-05 -0.000265877 -4.57429e-19)
(-0.00221051 0.000490572 9.39858e-19)
(-0.00223771 0.0003593 6.62479e-19)
(-0.00235712 0.000490105 -4.53886e-19)
(0.000183262 -0.00014448 3.45999e-19)
(0.000189806 8.40917e-06 1.20284e-19)
(0.00406221 0.00725872 2.62852e-18)
(0.00362922 0.00697855 1.20459e-18)
(-4.86387e-05 5.44361e-05 4.56384e-19)
(-4.04323e-05 3.65902e-05 -2.04779e-18)
(0.00706375 0.00580316 -7.67427e-19)
(0.0075069 0.00583403 3.10867e-18)
(0.00717267 0.00591622 1.51842e-18)
(2.33161e-05 -0.000560183 -1.40263e-18)
(2.56394e-05 -0.000579472 -2.78413e-18)
(0.00261206 -0.00251367 -3.98131e-18)
(0.00286022 -0.00249335 1.11387e-17)
(0.00292576 -0.00237838 -6.41217e-19)
(0.032613 0.255839 -3.6913e-18)
(0.0363023 0.271575 1.84408e-18)
(0.000191336 0.000134651 2.90782e-19)
(0.000190711 4.61605e-05 4.82181e-18)
(0.00019206 0.000133808 1.50776e-19)
(-0.00779537 0.0046076 7.98199e-18)
(-0.0089442 0.00125112 2.44105e-18)
(-0.0054737 0.0016925 2.35297e-18)
(-0.00211411 0.000488025 -1.5936e-19)
(-0.00220813 0.000577183 4.08013e-19)
(1.4006e-05 -0.00029567 1.40474e-18)
(-0.000269877 -0.00191644 -5.40215e-18)
(-0.000464773 -0.00192472 -4.15969e-18)
(-0.000467818 -0.00179214 -2.03985e-17)
(0.0140735 -0.000559966 -6.42451e-18)
(0.0137293 0.00107243 1.152e-17)
(0.0166461 -0.000229615 -7.71513e-18)
(0.000162287 -0.000253333 -1.48452e-18)
(0.000179217 -0.000278981 7.33769e-19)
(0.000144762 -0.000340253 5.11807e-19)
(0.00717623 0.0125382 1.32424e-18)
(0.00647265 0.0116876 2.491e-18)
(0.00621613 0.0128343 4.41023e-19)
(7.70218e-05 5.47557e-06 -6.28316e-20)
(7.22064e-05 -3.07313e-06 -7.72395e-19)
(7.94689e-05 -3.22609e-06 -8.42038e-19)
(0.000725571 0.00137587 -2.02403e-19)
(0.000642265 0.00146164 6.65558e-19)
(-0.523931 0.018939 -3.5097e-18)
(-0.482479 0.0652762 1.50644e-18)
(0.00229974 0.00375464 -1.4508e-19)
(0.00221654 0.00361719 -3.02719e-20)
(0.0024662 0.00362766 -3.53332e-19)
(-0.00445247 0.00991365 -6.85481e-19)
(-0.00505533 0.0106003 7.25526e-20)
(-0.00528703 0.00968803 2.56468e-19)
(-0.162913 0.529512 -1.38282e-18)
(-0.225521 0.49321 1.80126e-18)
(-0.144566 0.439217 2.4324e-18)
(8.84009e-05 8.06791e-05 -1.76433e-18)
(4.68362e-05 4.78585e-05 2.02544e-18)
(5.77748e-05 0.000128692 -7.42293e-19)
(-0.00354474 -0.0158812 2.29379e-17)
(-0.00458056 -0.0168636 4.26124e-17)
(-0.00308702 -0.0174378 -3.67829e-17)
(-0.269103 0.0506669 -3.85869e-18)
(-0.174587 0.0923164 7.95669e-19)
(-0.240452 0.0898212 3.01898e-18)
(0.361089 -0.142719 -1.33894e-18)
(0.368442 -0.157814 2.22484e-17)
(0.3463 -0.144459 7.80335e-19)
(-0.421026 0.357651 1.50104e-18)
(-0.352884 0.352677 2.05629e-18)
(-0.423433 0.31312 5.15077e-19)
(1.81348e-05 -0.000440352 2.75937e-19)
(1.21288e-05 -0.000454879 -3.91004e-19)
(3.16803e-05 -0.000458425 -6.01667e-19)
(0.00347405 -0.00613448 -3.70162e-17)
(0.00442138 -0.00599638 1.67897e-17)
(0.00360973 -0.00605839 4.95064e-17)
(0.20508 0.149629 2.93067e-17)
(0.212017 0.175776 6.10934e-18)
(0.23436 0.159651 -4.6369e-18)
(7.85428e-05 -0.000402866 8.86042e-19)
(8.63905e-05 -0.000441887 -3.50271e-18)
(8.70203e-05 -0.0003851 -2.9677e-18)
(1.19203e-05 -0.000624661 -3.04782e-18)
(1.58743e-05 -0.000616215 -3.78467e-19)
(1.08577e-05 -0.000492526 -1.76927e-18)
(0.0038218 -0.0068655 -6.599e-17)
(0.00400257 -0.00641082 -3.23645e-17)
(0.404683 0.30211 9.9368e-18)
(0.509865 0.414784 4.1034e-18)
(0.0110581 0.00595495 -3.97399e-18)
(0.0111342 0.0067579 -1.46608e-17)
(0.0015857 -0.000270878 -2.00018e-18)
(0.00170323 -0.000263237 5.67766e-18)
(0.00161898 -0.000127846 3.21765e-18)
(-0.00374855 0.0101432 -3.34173e-19)
(0.0625349 -0.0457688 -1.09832e-17)
(0.0526853 -0.048348 2.60478e-17)
(0.0546909 -0.0375007 3.79148e-18)
(7.93709e-06 -0.000632374 -1.47645e-18)
(1.8408e-05 -0.000622109 -7.0252e-19)
(0.0186524 -0.00667728 -2.56882e-19)
(0.018544 -0.00257785 -5.9865e-19)
(0.0225438 -0.00367124 -4.78975e-20)
(-0.278431 0.64236 -1.68195e-18)
(-0.287799 0.676156 -2.99605e-17)
(0.0125332 -0.00150762 -1.79835e-17)
(0.0141949 -0.00307635 -2.05005e-17)
(0.0268441 0.420676 5.92191e-18)
(0.042789 0.337738 6.61284e-17)
(0.0322836 0.383291 5.80078e-18)
(0.119976 -0.136723 -5.55426e-17)
(0.124197 -0.111023 1.61618e-17)
(0.15125 -0.135815 -2.82327e-17)
(0.108196 -0.169539 -1.6242e-17)
(0.0910446 -0.139503 -2.42811e-17)
(0.00661064 -0.00113724 1.88692e-18)
(0.00700264 -0.00199177 5.50457e-18)
(0.00745448 -0.00111454 -5.46971e-18)
(0.00788948 0.274655 -4.95073e-18)
(0.034617 0.294835 7.17474e-20)
(0.000248856 0.000617954 2.84702e-18)
(0.000255809 0.000687687 5.28785e-18)
(0.0002607 0.000602659 -7.59832e-19)
(-0.359529 0.391123 -8.0821e-18)
(-0.340901 0.319233 1.53913e-18)
(0.0130438 0.00198103 -2.28944e-18)
(0.0122842 0.00150781 -2.54194e-18)
(0.0120534 0.00239087 3.69293e-18)
(0.00279961 0.00214799 3.88487e-19)
(0.00301 0.00217516 1.85514e-19)
(0.00298254 0.00198488 1.10393e-19)
(8.35441e-06 -0.00052039 -4.1673e-19)
(1.58756e-05 -0.000651382 2.29711e-19)
(-0.0325857 0.800754 8.04551e-18)
(-0.0232138 0.807817 1.90311e-17)
(0.00139937 0.799957 4.31974e-18)
(0.00671848 0.00548101 -2.88315e-18)
(0.00668921 0.00607016 -1.11833e-18)
(0.31887 -0.0165127 -5.80927e-18)
(0.255073 0.0298557 1.1687e-17)
(0.243351 -0.0591088 1.87085e-17)
(7.43751e-06 -0.000499707 3.10792e-18)
(1.91164e-05 -0.000503539 -4.3405e-18)
(-0.236503 0.0393028 -2.82003e-19)
(-0.274262 0.0946914 9.11358e-19)
(-0.181802 0.0877555 -1.56777e-18)
(0.217814 0.197109 -3.28347e-17)
(0.233222 0.199691 -1.03133e-17)
(0.22069 0.216587 -7.31537e-18)
(0.339306 -0.120887 -1.59681e-18)
(0.372861 -0.138481 -8.89079e-18)
(8.27626e-05 0.000453641 -1.88412e-18)
(9.1163e-05 0.000474203 -1.32805e-18)
(0.000102837 0.000410017 8.57086e-19)
(7.59675e-05 -0.000416979 2.7138e-18)
(7.18504e-05 -0.000366026 1.79999e-18)
(-8.4414e-06 -0.000314488 -2.00631e-18)
(5.53228e-05 -0.000240476 1.1481e-18)
(5.57423e-05 -0.000234667 1.71805e-18)
(6.05208e-05 -0.000166758 3.72513e-18)
(0.0567536 0.293935 3.64487e-17)
(0.0528275 0.324806 -5.60909e-17)
(-0.00178374 -0.0334051 1.94993e-17)
(0.00189784 -0.0338997 2.49964e-17)
(-0.000159631 -0.0373339 4.66957e-18)
(0.23751 -0.0638758 -1.20348e-16)
(0.222168 -0.0652245 -6.6661e-17)
(0.325447 -0.0444832 -6.71966e-17)
(0.000146674 0.000132956 3.36905e-18)
(0.000192043 8.35171e-05 -1.6092e-18)
(-1.19917e-05 -0.000278251 -6.13633e-18)
(-5.48065e-06 -0.000439191 -4.08671e-19)
(-5.13763e-05 -0.000468942 -3.69792e-19)
(-0.0100773 0.00747525 -6.12502e-19)
(-0.0106146 0.00649167 -7.56717e-19)
(-0.0113898 0.00778187 4.64359e-19)
(-1.8601e-06 -0.000711469 9.19912e-19)
(2.68444e-06 -0.000795436 2.03789e-18)
(2.17773e-05 -0.00070346 1.52061e-18)
(0.0226116 0.285945 7.20817e-18)
(0.0138295 0.337997 -1.24769e-17)
(0.00455249 0.311864 -3.67047e-17)
(1.59162e-05 -0.000454093 5.49462e-19)
(4.19741e-06 -0.000428222 3.5702e-18)
(3.51986e-05 -0.000402661 6.53791e-18)
(-0.33476 0.124838 -2.56183e-18)
(-0.387065 0.0568699 3.35737e-19)
(-0.349056 0.145681 -7.0106e-18)
(0.0185864 -0.0111213 -3.56564e-19)
(0.0140158 -0.00846948 -1.22386e-19)
(-0.167006 0.243037 1.12984e-18)
(-0.166714 0.256936 -4.30866e-19)
(-0.146375 0.257315 -8.78856e-19)
(0.00702185 0.00756691 5.43275e-18)
(0.00690238 0.00776216 1.128e-18)
(0.00687373 0.00759266 3.44451e-19)
(-0.00314623 0.0080418 3.35862e-19)
(-0.00279817 0.008724 -9.61784e-20)
(3.69227e-06 -0.000532234 -2.01419e-18)
(-3.8596e-05 -0.000587936 -8.72916e-19)
(0.0150276 0.00368759 4.85967e-18)
(0.0158668 0.00445805 1.46057e-18)
(0.01637 0.00326975 7.20293e-18)
(-0.100761 -0.0596207 -3.42618e-17)
(-0.106876 -0.0916361 -1.60476e-17)
(0.049074 -0.0964696 6.92804e-20)
(0.0411253 -0.0843272 1.32451e-18)
(0.0333521 -0.0979608 4.00192e-18)
(0.0588295 -0.109579 1.4416e-18)
(0.0682402 -0.0927136 -1.12633e-18)
(0.000117457 0.00537801 1.84889e-20)
(-0.000207243 0.00551996 7.76577e-20)
(-0.000123559 0.00517407 1.9894e-19)
(7.85459e-05 0.00061785 2.7079e-18)
(6.2116e-05 0.000673298 -3.30235e-18)
(9.07453e-05 0.000561124 9.73376e-20)
(0.000127763 0.000428564 6.7911e-19)
(0.000193876 0.00042915 6.03955e-19)
(0.00172243 0.00359503 1.86869e-19)
(0.00165955 0.00345782 3.16215e-19)
(0.00149164 0.0035684 3.3685e-19)
(0.00385599 0.00621042 2.08675e-19)
(0.00331914 0.00623098 -6.20254e-19)
(0.0035495 0.00584423 7.08279e-19)
(-0.00449421 -0.0361769 1.71645e-17)
(-0.00798306 -0.0310927 7.20539e-18)
(-0.0126245 -0.0380141 3.44811e-17)
(-0.0159315 0.104947 -2.42653e-18)
(-0.0288013 0.107547 -2.97679e-18)
(-0.0250442 0.0925214 -1.0656e-19)
(-0.00979876 0.00852436 -4.41529e-19)
(-0.00917153 0.00743163 5.98329e-19)
(1.86599e-05 -0.000426032 -9.80575e-19)
(1.39036e-05 -0.000336349 -9.30432e-19)
(0.0131869 0.00906901 -2.04113e-18)
(0.013258 0.0100063 -4.47192e-18)
(0.0142825 0.00910013 6.65348e-18)
(0.162971 0.390296 -7.97968e-18)
(0.260062 0.330786 -8.67195e-19)
(0.256625 0.468235 -1.62381e-17)
(0.00416371 0.00610571 3.34386e-19)
(0.000286852 0.000227768 -2.3909e-18)
(0.000296378 0.000196129 -2.52687e-18)
(0.000337356 0.000199347 2.21941e-18)
(0.0142073 0.00427488 1.37255e-19)
(0.0167987 0.00369906 2.91556e-19)
(0.015736 0.00606306 1.81688e-19)
(-0.478578 0.0501921 -4.76519e-18)
(-0.463852 0.0566248 -6.44473e-19)
(-0.415798 0.0688525 -2.79317e-18)
(-0.0247796 0.0589987 -4.82811e-17)
(-0.0170265 0.0545727 1.32193e-17)
(-0.0102879 0.0660792 -1.73986e-17)
(1.63118e-05 -0.000490455 -5.90249e-19)
(-1.12511e-05 -0.000602244 3.92926e-19)
(-0.307196 0.371649 -2.34755e-18)
(-0.365332 0.435296 -3.24738e-18)
(0.000112188 0.00062286 1.07598e-18)
(9.26145e-05 0.00064231 1.40868e-18)
(-2.4505e-05 -0.000404739 3.4032e-19)
(4.80524e-05 -0.000670289 1.77424e-18)
(4.20223e-05 -0.000695393 7.30898e-19)
(3.68996e-05 -0.000715589 7.39524e-19)
(0.0698216 0.120169 2.38791e-17)
(0.02601 0.179774 5.8171e-17)
(0.0429435 0.289539 -2.76911e-17)
(0.00263575 0.00201024 1.12172e-18)
(0.00260684 0.00221496 -4.3903e-19)
(-1.6585e-06 -0.000344783 1.09456e-18)
(1.791e-05 -0.000486701 -2.80054e-18)
(9.1016e-06 0.000783299 -4.23244e-18)
(3.85136e-05 0.000774542 3.90748e-19)
(1.52747e-05 0.000714767 -1.37558e-18)
(0.0518639 -0.192065 -1.69452e-17)
(0.0422461 -0.16414 3.35167e-17)
(0.0210941 -0.187218 -3.88246e-17)
(0.0130704 0.00800878 4.65971e-18)
(0.0142284 0.00652489 -4.33602e-18)
(0.000167785 -0.000248555 -5.0193e-19)
(0.000171794 -0.000132257 -2.65771e-18)
(0.0741992 0.0754221 -1.06893e-17)
(0.0873502 0.0701643 6.24919e-18)
(9.9527e-05 0.000445402 1.97009e-19)
(0.000125126 0.000476629 2.09354e-18)
(0.000167263 0.000447088 -3.15421e-18)
(0.0175284 0.00090199 2.10383e-20)
(0.0150503 -0.00110668 -1.38e-18)
(0.000372743 0.00558826 -3.12861e-20)
(0.000417277 0.00525609 -5.89951e-20)
(-0.00114526 0.000786093 -3.04995e-18)
(-0.00105177 0.000749562 -9.78863e-19)
(0.0209992 -0.018598 4.58753e-17)
(0.024297 -0.0159564 3.38272e-17)
(0.0228672 -0.0203055 -1.3474e-17)
(-0.00171991 0.00235567 -3.47495e-19)
(-0.00152498 0.00248394 -3.14952e-19)
(-0.00155232 0.00228957 4.46983e-19)
(0.17351 0.139559 8.77932e-18)
(0.194654 0.126339 8.66564e-20)
(0.181669 0.0759594 -1.34857e-17)
(0.0860091 0.124197 -1.49887e-17)
(0.106115 0.0457411 -8.81126e-18)
(-0.00118069 0.00292254 -1.32003e-18)
(-0.000990555 0.00297401 -8.05048e-19)
(-0.0011085 0.00282514 -1.97153e-20)
(8.71994e-05 0.000442384 9.46102e-19)
(6.9956e-05 0.000411442 2.1447e-18)
(0.000103131 0.000360869 -8.44031e-19)
(6.44229e-05 4.80036e-06 -1.1136e-19)
(6.48541e-05 -0.00016173 7.14535e-19)
(5.80689e-05 -0.000179209 -1.2047e-18)
(0.000224128 0.00024462 -3.23365e-18)
(0.000285481 0.000124259 2.35695e-18)
(0.492043 0.122188 2.25592e-17)
(0.418663 0.0877632 -8.50686e-17)
(0.495564 0.0360241 -2.94778e-17)
(0.456377 -0.0905801 1.43751e-17)
(0.453922 -0.148444 8.97278e-18)
(0.537026 -0.162568 -1.27722e-17)
(0.0233162 -0.042707 2.98925e-17)
(0.0194519 -0.0117041 1.35179e-17)
(-0.0193872 0.0536758 -2.84211e-18)
(0.000209128 0.000373284 1.0128e-18)
(0.00018613 0.000376371 -3.44676e-18)
(0.0217683 0.0441201 1.06774e-18)
(0.0174549 0.0492798 1.64597e-17)
(0.00190415 0.0176038 2.51871e-18)
(-0.0019244 0.0162009 -2.13863e-18)
(0.000957096 0.0141236 6.25956e-19)
(0.0324249 -0.0275273 6.23162e-18)
(0.0306808 -0.0328386 2.82995e-17)
(0.0273488 -0.0269212 -1.44881e-17)
(9.36855e-05 -0.000459737 -1.79507e-18)
(0.000118189 -0.000441205 2.61382e-18)
(0.000130863 -0.00042768 -1.48667e-18)
(0.00205602 0.00404726 2.09132e-19)
(0.00217281 0.00391015 -9.94228e-20)
(0.00186091 0.00397091 -4.9336e-20)
(-0.249726 0.0107691 6.71533e-19)
(-0.282428 -0.0238793 -4.38074e-18)
(-0.51348 0.0329793 -4.91178e-19)
(0.0228489 -0.0139212 -4.04652e-20)
(0.0170815 -0.0163293 1.20944e-18)
(3.46492e-05 -0.000494837 -3.37257e-19)
(-7.95924e-06 -0.000462049 1.9814e-18)
(-6.92905e-06 -0.000941722 -1.09257e-18)
(-1.18317e-05 -0.000977312 -2.03711e-18)
(-1.34904e-05 -0.000970028 9.89189e-19)
(7.58757e-05 0.000461502 1.08701e-19)
(-0.152629 0.2171 -1.4414e-18)
(-0.184805 0.21433 5.06357e-19)
(-0.29495 0.0116636 -3.28298e-18)
(-0.349848 0.0154044 -7.55945e-18)
(0.362386 0.000404805 -3.09437e-17)
(0.260221 0.0231018 1.24741e-17)
(0.35786 -0.0657616 -3.22113e-17)
(0.382903 0.00612268 -1.41874e-17)
(0.000752884 0.00128855 -2.23887e-18)
(0.000701113 0.00127444 -6.23701e-19)
(0.000725793 0.00134647 1.61411e-18)
(0.468029 -0.0822605 -5.88113e-18)
(0.174862 -0.434132 1.86776e-19)
(0.552719 -0.610547 1.08152e-17)
(0.00378245 -0.0259464 -2.75498e-17)
(0.00425302 -0.0274439 -5.80358e-17)
(0.0047494 -0.0254739 -3.65688e-17)
(-6.14939e-05 -0.00127046 -5.17532e-18)
(-0.000247226 -0.00129811 2.08233e-19)
(-0.000204963 -0.00109559 -6.88152e-18)
(-0.00300186 0.000467069 -4.02002e-19)
(-0.00281913 0.000475828 1.23799e-18)
(-0.00280434 0.000336896 4.53642e-19)
(0.000909331 4.40904e-05 3.50408e-18)
(0.000839937 7.39195e-05 -3.35522e-18)
(0.000881227 2.16875e-05 -1.09343e-18)
(-0.0036592 -0.0359703 -2.84848e-17)
(-0.00228764 -0.0355226 -4.87993e-17)
(-0.000954659 -0.0351069 -6.09268e-17)
(-0.00063416 0.000294962 7.00962e-19)
(-0.000657619 0.000317244 4.85515e-19)
(-0.000629836 0.000316508 1.3158e-18)
(0.000220283 0.000267037 2.07812e-18)
(0.00022641 0.000216789 2.3011e-18)
(1.89287e-05 0.000302175 6.30082e-19)
(2.57776e-05 0.000284895 -1.06776e-18)
(2.16185e-05 5.82017e-05 -2.37903e-18)
(7.48011e-05 6.31333e-05 -8.77838e-19)
(8.74841e-05 9.50665e-05 -3.45252e-18)
(0.000135034 0.000111443 2.69724e-18)
(-0.00143696 0.00036024 -7.24682e-20)
(-0.00147927 0.000294549 -6.23783e-19)
(-0.00141792 0.000271954 -3.40013e-19)
(0.00380524 0.00793932 -4.32285e-20)
(0.0041664 0.007618 2.39449e-18)
(0.00433706 0.00808748 5.36678e-19)
(0.000100131 0.00721092 -7.72216e-20)
(0.000498897 0.00738686 -6.32067e-19)
(2.95002e-05 0.00760671 -4.11435e-19)
(-0.420701 0.438561 -7.40699e-18)
(-0.381631 0.348003 -8.61211e-18)
(-0.465458 0.320337 -3.13074e-17)
(-2.93349e-06 0.000550806 -3.99193e-18)
(1.92707e-05 0.000508139 -5.35269e-18)
(2.73133e-05 0.000567702 1.36517e-18)
(0.00492075 0.00305363 -5.74902e-19)
(0.00466021 0.00318087 1.32502e-18)
(0.00469129 0.00290716 -4.32641e-19)
(-0.00136699 0.00286426 1.48522e-20)
(-0.00129006 0.00303969 -1.18894e-19)
(0.000385413 0.00071525 3.71543e-18)
(0.000370958 0.00075766 3.18996e-18)
(0.000428877 0.000730035 -2.09972e-19)
(0.0383695 0.00335187 -4.04438e-18)
(0.039114 -0.00100148 1.18233e-17)
(0.044275 0.00147109 -1.12045e-18)
(0.012015 0.00860549 4.19798e-18)
(0.0955293 0.414919 4.88507e-18)
(0.108191 0.347714 -1.26066e-17)
(-0.000544178 0.000282695 -7.8153e-19)
(-0.000545522 0.00026078 8.10655e-19)
(-0.000519741 0.00028424 -1.45176e-18)
(-0.119641 0.573872 9.35346e-19)
(-0.104039 0.529068 -2.6579e-18)
(0.00148149 -0.000254506 -6.107e-19)
(0.00159317 -0.000425523 -6.28999e-18)
(-0.00216517 0.0512602 3.68194e-18)
(0.00132253 0.0566194 -2.20132e-18)
(-0.00590359 0.0565152 -2.70174e-18)
(-4.93205e-05 0.00132449 -1.64391e-18)
(-8.09138e-05 0.00133946 8.36199e-19)
(-0.000543884 -0.0418252 4.61982e-18)
(0.000669374 -0.035151 -1.02659e-17)
(-2.72518e-05 -7.39596e-05 -2.08945e-18)
(-9.85196e-06 -0.00014725 -2.39438e-18)
(0.000776517 -0.00855298 -7.91694e-18)
(1.62033e-05 -0.00813728 4.53615e-18)
(-0.000204769 -0.0091458 -7.88339e-18)
(0.0131021 0.00314966 -8.7145e-19)
(0.0142216 0.00218709 -5.09951e-18)
(-0.00135861 0.000443665 -1.73661e-19)
(-0.00140098 0.0005 1.09024e-18)
(-0.0204553 -0.0423605 8.20095e-18)
(-0.0230168 -0.0387884 6.46312e-18)
(-0.02549 -0.0424866 -1.89934e-18)
(-0.0591299 -0.71349 2.05294e-17)
(-0.190134 -0.906376 3.37136e-17)
(-0.115183 -0.930162 4.57399e-17)
(0.0062417 -0.00126242 -2.31538e-18)
(0.00627886 -0.000790811 -7.8731e-19)
(0.000277264 0.000792293 2.49219e-18)
(0.000257604 0.000789678 7.37064e-19)
(0.000255258 0.000782824 -1.71476e-18)
(0.00638187 0.00785343 1.37724e-18)
(0.00676286 0.00815392 -1.027e-18)
(0.0064471 0.00852437 4.31213e-19)
(-0.16583 -1.29154 -1.21565e-17)
(-0.18748 -1.32651 1.41915e-17)
(-0.162339 -1.26855 4.92726e-17)
(0.00134967 -0.00781714 1.2435e-17)
(0.0014479 -0.008335 -6.45581e-18)
(0.000939053 -0.00772176 -2.79676e-17)
(0.000764629 -0.00990736 -2.84113e-17)
(0.00246294 -0.00830754 1.70529e-17)
(-0.180829 0.43998 1.01675e-18)
(-0.17637 0.517542 -3.30716e-17)
(-0.130134 0.466011 -3.40879e-18)
(0.023376 -0.0553372 -8.91492e-20)
(0.0344334 -0.0560112 -3.01988e-18)
(0.0252619 -0.066295 -3.98614e-18)
(0.000370582 0.0457669 3.26928e-18)
(-0.00527213 0.0464503 -5.0857e-19)
(0.00797625 0.0129332 -3.42409e-19)
(0.00781829 0.011783 -3.1822e-19)
(0.00283773 -0.0253325 5.30854e-17)
(0.00281463 -0.0268348 4.30939e-17)
(-0.00194905 -0.00015464 1.09755e-18)
(-0.00202631 -0.000191438 4.5469e-19)
(-0.00190735 -0.000226285 -3.87322e-19)
(0.324071 0.218873 -3.87083e-17)
(0.19193 -0.084621 -3.81446e-18)
(0.267701 -0.0624734 6.35395e-17)
(-0.000600338 0.000270251 1.19662e-18)
(-0.000626171 0.000275182 1.47516e-19)
(1.48565e-05 -0.000121099 4.3747e-19)
(2.8055e-05 -0.000115609 -6.26048e-19)
(2.25835e-05 -0.000356373 3.64439e-18)
(0.0193137 0.176375 5.16073e-18)
(0.0244104 0.16171 -1.20115e-17)
(0.000220432 0.000576717 -6.5332e-19)
(0.000223508 0.000571985 2.87318e-18)
(0.000207105 0.000489762 -1.59937e-18)
(4.22566e-05 -0.000286078 -3.6323e-18)
(6.08776e-05 -0.000240573 -5.78193e-19)
(-0.0122499 -0.0115634 2.19075e-20)
(-0.0168657 -0.00768882 -7.75717e-19)
(-0.0106375 -0.00628195 -1.34021e-18)
(-0.0215563 -0.00359117 4.01152e-18)
(-0.0187601 0.00130526 1.78421e-18)
(-0.0255042 0.00210764 4.01613e-18)
(0.000767603 0.00132546 -2.01094e-19)
(0.00197773 0.00419517 4.42301e-20)
(0.00222685 0.00415578 5.80379e-19)
(0.00519802 0.00294838 -2.70439e-18)
(0.00511812 0.00328189 -3.41792e-20)
(0.00320689 -0.000682662 -4.84254e-19)
(0.00339341 -0.000832318 5.60425e-18)
(0.00326282 -0.000495865 -1.17795e-18)
(0.00168092 0.00465923 3.62311e-19)
(0.00144599 0.00457045 -1.71396e-19)
(0.00146729 0.00477919 -1.00144e-19)
(7.53203e-05 -0.000463564 -5.42653e-18)
(0.00324243 -0.00296225 -2.20322e-18)
(0.00354955 -0.00325402 -5.07653e-19)
(0.00357966 -0.00258086 3.22186e-19)
(-0.295802 0.0231649 9.97957e-18)
(-0.240579 -0.071423 5.4682e-18)
(-0.351696 -0.0615514 3.12729e-17)
(-0.00130148 0.00050069 -8.75637e-19)
(-0.00132553 0.000397766 -2.3676e-18)
(0.0233469 -0.312684 -2.71398e-17)
(0.0357685 -0.149673 -1.44779e-18)
(0.106982 -0.201091 -2.83061e-18)
(1.89965e-05 -0.000568381 2.7662e-20)
(2.36855e-05 -0.000562943 4.00502e-19)
(2.61228e-05 0.000428668 2.58105e-19)
(2.99823e-05 0.00042997 -3.12298e-18)
(1.54241e-05 0.000439444 -1.65086e-18)
(-0.000456632 6.43308e-05 -1.88339e-18)
(-0.000451199 8.53741e-05 1.19433e-18)
(-0.000471384 7.08807e-05 -1.16204e-18)
(0.0138401 0.251096 5.43511e-18)
(-7.01331e-06 -0.000455296 3.39142e-18)
(-2.86822e-05 -0.000457961 4.19892e-18)
(-1.53211e-05 -0.000474956 -2.37431e-18)
(0.0858571 -0.193344 -3.85127e-17)
(0.0483037 -0.228943 -7.19185e-17)
(0.107125 0.310305 3.2463e-19)
(-0.0625374 0.313835 -2.4033e-18)
(0.119873 0.255994 -2.72161e-18)
(3.08147e-06 -0.000123273 2.8259e-18)
(4.24256e-06 -0.000113739 1.79573e-18)
(8.67006e-06 -0.000195681 -1.77397e-18)
(-2.61011e-05 0.000161551 4.36895e-18)
(-2.93998e-05 -8.50215e-06 -1.98493e-18)
(0.21871 -0.0187035 -2.48869e-17)
(0.187288 -0.00613911 -3.76985e-17)
(0.176401 -0.0273002 -1.01668e-17)
(-0.000411071 4.14092e-05 -1.82683e-19)
(-0.000439925 4.12202e-05 -2.18991e-18)
(2.93907e-05 -0.000547269 4.86062e-19)
(3.75337e-05 -0.000539913 3.86986e-19)
(4.00683e-05 -0.000384678 6.72926e-19)
(-0.000503042 3.62358e-05 -8.96146e-19)
(-0.000486813 3.59332e-05 6.64504e-19)
(-0.000420396 2.75681e-05 2.68285e-20)
(0.120968 0.377363 1.23023e-19)
(0.216977 0.291414 3.68014e-18)
(0.0191554 -0.0175456 -1.37834e-18)
(0.0184641 -0.0200101 -4.44327e-18)
(0.000826517 -0.00108802 1.03414e-18)
(0.00078903 -0.00092617 2.22348e-18)
(0.000915794 -0.00101794 -1.12002e-18)
(0.0355841 0.0142986 -3.42781e-18)
(0.0303538 0.0141271 2.17183e-19)
(0.0332207 0.0195703 3.60021e-19)
(-0.0060109 0.00725757 7.49639e-19)
(-0.00437557 0.00940423 3.92063e-18)
(-0.00300871 0.00674897 -7.58229e-18)
(0.255642 0.0588733 1.14841e-17)
(0.160778 0.0666767 -1.41622e-17)
(0.0912852 0.0524153 3.2551e-17)
(0.133111 0.144701 -1.05625e-16)
(-0.000773029 0.00303234 -2.26869e-19)
(-0.000851295 0.00316961 5.03707e-19)
(-0.0528826 0.059598 2.72873e-18)
(0.00122407 0.0418689 -5.40049e-18)
(-0.102651 0.0579311 -3.44184e-17)
(3.04962e-05 -0.000506463 -7.12274e-19)
(3.06508e-05 -0.000539617 -1.51136e-18)
(1.92372e-05 -0.000510425 8.80112e-19)
(-0.130087 -1.28529 -4.97711e-17)
(-0.159013 -1.20732 -1.39977e-17)
(0.0623716 -0.0794212 1.95736e-17)
(0.0221848 -0.100986 1.75817e-17)
(0.0812068 -0.107675 1.71448e-17)
(-0.401495 0.49174 -5.92394e-18)
(-0.38654 0.421186 9.88464e-18)
(-0.414721 0.376281 -4.91925e-18)
(-0.291882 0.184395 1.95077e-19)
(0.0198848 -0.0461595 1.24715e-18)
(0.0141057 -0.0537334 5.5881e-18)
(-0.000580681 0.00564124 -3.45678e-20)
(-0.000335351 0.00589331 6.26259e-20)
(0.0104088 0.00570836 2.86343e-18)
(0.010978 0.00513684 -6.98847e-19)
(0.000178694 0.00674645 6.62054e-19)
(-0.000289786 0.0070282 5.49523e-19)
(-0.0031863 0.000431374 4.94718e-19)
(-0.00335791 0.000365643 -1.56276e-19)
(-0.00314151 0.000239306 2.84093e-19)
(-0.0021332 0.00304695 4.7898e-19)
(-0.00215439 0.00323863 4.29879e-19)
(-0.0023367 0.00313682 -3.37433e-19)
(0.037343 0.00902446 -4.09289e-19)
(0.0340056 0.00380571 -4.28497e-18)
(0.000950209 -0.0016086 5.68433e-18)
(0.00110648 -0.00176447 4.92092e-18)
(-1.93294e-05 0.000257906 9.81128e-19)
(-4.62496e-05 0.000330161 3.67364e-19)
(8.25079e-06 -0.000103834 -2.66298e-18)
(9.82532e-07 -5.74589e-05 -3.51333e-19)
(1.83153e-06 -6.23744e-05 -1.12269e-18)
(-0.000561952 0.000296572 -1.01856e-19)
(-0.000541939 0.000299513 -5.52623e-19)
(-0.000421277 -3.55711e-05 1.29879e-18)
(-0.000412935 -2.6777e-05 2.58751e-19)
(-0.000391793 -4.71161e-05 7.06332e-20)
(-0.00128122 0.000669045 -1.67863e-18)
(0.120919 0.267612 9.55295e-17)
(0.130776 0.218663 -1.10234e-17)
(0.0959783 0.275778 3.36493e-17)
(8.0003e-05 0.000555651 -3.30516e-18)
(6.88669e-05 0.00053969 -8.48857e-19)
(0.0001117 0.000516882 -7.86601e-19)
(-0.000144819 0.00125794 1.35832e-18)
(-0.000134933 0.00127276 -1.06722e-19)
(-9.49046e-05 0.00130586 6.47664e-19)
(-0.000385203 -2.70253e-05 -7.11052e-19)
(-0.000401699 -2.84397e-05 -4.78775e-19)
(-0.000365351 -4.48432e-05 -8.10717e-19)
(0.000183336 0.000125406 -4.03503e-18)
(0.000201435 0.000232312 -5.21674e-18)
(-0.127722 -0.62234 -7.29309e-18)
(-0.209248 -0.506348 1.17273e-17)
(-0.0384442 -0.617655 7.69356e-18)
(-0.0345654 0.0520126 -1.55691e-17)
(-0.0366667 0.0705143 -2.04244e-18)
(-0.00666857 -0.0108247 -2.27396e-17)
(-0.00570954 -0.0107123 -8.44508e-18)
(-0.0060416 -0.0119712 2.14034e-17)
(-4.49801e-05 0.000448441 -3.49376e-18)
(8.90458e-05 0.00041532 -5.76913e-18)
(-0.000124066 0.000335925 -1.71805e-18)
(0.0125614 0.00250993 2.61728e-19)
(0.0123874 0.00459314 3.00403e-19)
(-0.000414904 -1.33469e-05 -1.51683e-18)
(0.318753 -0.0948362 1.81501e-18)
(0.295601 -0.0677135 1.67156e-18)
(0.332344 -0.084924 2.47235e-18)
(0.142071 0.0588135 -4.41028e-17)
(0.125899 0.00266409 -3.7041e-17)
(-7.37825e-06 -0.000485833 1.11733e-19)
(1.32005e-05 -0.000485943 5.868e-18)
(-0.267658 0.354728 -2.16263e-18)
(-0.327876 0.431217 -2.0112e-18)
(0.00608515 0.0110346 1.06666e-18)
(0.00557665 0.0104489 -8.90855e-20)
(0.00535053 0.0112891 -5.16521e-19)
(5.17871e-05 -0.000373958 -4.95284e-18)
(4.44124e-05 -0.000338778 -2.97137e-18)
(0.352388 -0.00268649 -6.33907e-18)
(0.299492 -0.107555 3.18289e-18)
(8.44045e-05 -0.000284878 -8.89052e-19)