/*--------------------------------*- C++ -*----------------------------------*\
| =========                 |                                                 |
| \\      /  F ield         | OpenFOAM: The Open Source CFD Toolbox           |
|  \\    /   O peration     | Version:  v2012                                 |
|   \\  /    A nd           | Website:  www.openfoam.com                      |
|    \\/     M anipulation  |                                                 |
\*---------------------------------------------------------------------------*/
FoamFile
{
    version     2.0;
    format      ascii;
    class       volScalarField;
    location    "50";
    object      k_0;
}
// * * * * * * * * * * * * * * * * * * * * * * * * * * * * * * * * * * * * * //

dimensions      [0 2 -2 0 0 0 0];


internalField   nonuniform List<scalar> 
9793
(
0.000148736
0.0449226
0.000147413
0.0229113
0.000149708
0.00018961
0.000167292
0.0148331
0.000147706
0.0145803
0.000149246
0.000149179
0.000147197
0.0143616
0.000146508
0.000153043
0.000166047
0.000147366
0.00660503
0.000144999
0.00014564
0.000149939
0.0178681
0.0150039
0.0151679
0.000152928
0.000148528
0.000149721
0.000145064
0.000168624
0.0504202
0.000206816
0.000147905
0.000147396
0.000146833
0.000153171
0.000150624
0.000151746
0.0315674
0.000155167
0.000167084
0.000331097
0.00244026
0.000149792
0.000147607
0.000148168
0.0161952
0.000149884
0.000146555
0.000147399
0.00015296
0.000146719
0.000158702
0.00014977
0.000156372
0.0218761
0.000147241
0.000176507
0.000146528
0.000149937
0.000153308
0.000165402
0.000147479
0.000158562
0.000147527
0.000147538
0.00868104
0.000150193
0.000151425
0.00113274
0.000147616
0.000165834
0.0108219
0.00245107
0.0014883
0.000149724
0.000159511
0.000744606
0.000147717
0.000149785
0.000159912
0.00745067
0.000165299
0.000150506
0.000151292
0.000187732
0.000149718
0.000176509
0.0274451
0.000164981
0.0162675
0.000345645
0.00040432
0.000160589
0.00222106
0.000147262
0.00060075
0.000164502
0.0001511
0.000149772
0.0211687
0.000157707
0.00335039
0.000147646
0.0341001
0.00138637
0.000543831
0.000146923
0.000147744
0.00014988
0.000149512
0.0167781
0.000348038
0.0512843
0.000147535
0.000148629
0.000152491
0.000148222
0.0206253
0.000148054
0.0424569
0.000177768
0.000571186
0.00016169
0.000150449
0.000148104
0.000167211
0.0572424
0.000197585
0.000199355
0.000149109
0.000146432
0.000148565
0.000149432
0.000152392
0.000175763
0.000211806
0.000152362
0.000149805
0.000168441
0.00373974
0.00015257
0.000147447
0.000170999
0.0135965
0.000197281
0.000148118
0.000741221
0.000146448
0.000148067
0.000148314
0.0443435
0.000150649
0.000148476
0.000147372
0.000443445
0.000166834
0.000147443
0.000214514
0.000147404
0.000174862
0.000149303
0.000145683
0.000178113
0.000147376
0.00031845
0.00471514
0.000147677
0.000146925
0.000149392
0.000147527
0.0226921
0.0212011
0.0330101
0.000147156
0.000187275
0.000169732
0.000187814
0.000147614
0.000150009
0.0250818
0.0151043
0.000179684
0.000148109
0.000148403
0.000146885
0.00048824
0.0152071
0.0104283
0.00252641
0.000147382
0.00960237
0.000182945
0.000152108
0.000146993
0.000150094
0.000286113
0.000145184
0.000147359
0.000149297
0.000147707
0.000145712
0.000153754
0.000150273
0.0343659
0.000147427
0.000153497
0.000147685
0.000148771
0.000183377
0.000167675
0.00299823
0.000145372
0.00130425
0.00015056
0.000176305
0.000146612
0.000175446
0.000148697
0.000160269
0.000165235
0.000145708
0.000245563
0.0295015
0.00016013
0.000147215
0.000166342
0.0228823
0.000160323
0.000160475
0.0262121
0.000188714
0.000171858
0.000159113
0.000182223
0.000145876
0.0185601
0.064027
0.000145207
0.000149431
0.000297873
0.000147318
0.000149497
0.000178512
0.000179104
0.000147521
0.000150006
0.000154119
0.000158301
0.000149842
0.000147653
0.000160978
0.0268035
0.000145678
0.0327643
0.000149722
0.000149056
0.000145566
0.0231803
0.00014774
0.00111827
0.00744441
0.000148558
0.000148762
0.000334766
0.000146729
0.000149557
0.000146933
0.00835759
0.000175649
0.000151634
0.000182309
0.000175464
0.00380274
0.0184956
0.000147761
0.00821472
0.000149738
0.0211402
0.000651722
0.0158724
0.0418489
0.000187312
0.000149128
0.000164162
0.000149897
0.000147239
0.000147859
0.000183028
0.00015307
0.000148827
0.000149881
0.00014536
0.000146903
0.000145689
0.0178589
0.000146872
0.000146469
0.000148844
0.000147198
0.021173
0.000195397
0.000162486
0.000149521
0.000171009
0.000149873
0.000179947
0.0522695
0.00014769
0.00318489
0.000157083
0.000147561
0.0274977
0.000248192
0.000147956
0.000161497
0.000793288
0.000148282
0.00015662
0.000146445
0.000148516
0.0226895
0.000158982
0.000147453
0.000148001
0.000149352
0.000172746
0.00038485
0.000147433
0.000146884
0.000146518
0.0173078
0.00778652
0.103688
0.000145699
0.000159498
0.000156803
0.000235105
0.000172209
0.000146087
0.00014639
0.0001465
0.000163375
0.000148229
0.0718356
0.000148479
0.00014637
0.0151578
0.0181965
0.00213583
0.000147588
0.0195386
0.000151199
0.000390218
0.0489654
0.0288648
0.00015008
0.000155771
0.000213972
0.0173378
0.0167795
0.000153001
0.000149731
0.000151986
0.000146454
0.000146751
0.000148151
0.00014839
0.000149941
0.0703884
0.000149316
0.000166885
0.000154805
0.000308043
0.000146096
0.000150574
0.0246348
0.000186268
0.0075338
0.000171557
0.000146356
0.000150148
0.000147425
0.000194993
0.000144946
0.00238397
0.000169914
0.000167119
0.105055
0.0193593
0.000148811
0.000147185
0.000218311
0.000198368
0.000147406
0.0542578
0.000148765
0.000149097
0.000466872
0.000145364
0.000176349
0.000145881
0.00435522
0.000148513
0.000147402
0.0241193
0.00016541
0.000185016
0.000152201
0.000148342
0.000146729
0.000613822
0.000163908
0.0001453
0.000149232
0.000157001
0.000156914
0.000185685
0.0132084
0.000149242
0.000147373
0.000177984
0.000148394
0.0282145
0.000188468
0.000148341
0.000147934
0.000147795
0.000148654
0.000146407
0.0192904
0.000160408
0.000468871
0.000154659
0.000149975
0.000161735
0.000151477
0.0169016
0.000152788
0.000149767
0.000150183
0.000193089
0.000147496
0.000147416
0.000147631
0.000144963
0.000147699
0.00014669
0.000148172
0.000148961
0.000149528
0.000149907
0.000179058
0.000149533
0.000258413
0.000152295
0.000173324
0.017989
0.000147205
0.0141439
0.000167224
0.000146963
0.000144962
0.000147491
0.0369773
0.000175331
0.000144946
0.000148694
0.000149255
0.000162429
0.000170304
0.00070522
0.000147623
0.000147362
0.000155653
0.0177821
0.0153159
0.000150516
0.000148645
0.030755
0.000327253
0.000186191
0.000148467
0.000146397
0.036972
0.000147292
0.000169729
0.000300968
0.000145229
0.000173583
0.000152642
0.0211937
0.000146711
0.00768278
0.000195926
0.000152219
0.000321325
0.000147275
0.000227529
0.00014853
0.000147159
0.000149435
0.000147434
0.00200899
0.000147241
0.000146358
0.000149536
0.000145711
0.00014641
0.00016122
0.000149298
0.000157926
0.000148044
0.000148075
0.0260689
0.000163445
0.000150444
0.0325636
0.00014956
0.000148541
0.000147769
0.000146404
0.0996856
0.000146363
0.000148308
0.0274693
0.000319021
0.000158564
0.000147235
0.000149884
0.000147706
0.000149564
0.0345007
0.000148428
0.00280324
0.000149772
0.000264279
0.000149724
0.0146912
0.000148654
0.000176075
0.000147338
0.000194032
0.0234931
0.000148582
0.000360549
0.000147312
0.000149404
0.000145568
0.00565935
0.0327952
0.000147516
0.000153139
0.00014643
0.0300503
0.000148312
0.000161312
0.00841638
0.000152022
0.000147996
0.000159478
0.000149597
0.000147769
0.00014659
0.000178881
0.000147465
0.0311548
0.000148174
0.000148269
0.000162449
0.000163261
0.000215586
0.000146409
0.0147724
0.000147157
0.000173447
0.000147398
0.000147583
0.000147281
0.000148163
0.00014977
0.000173571
0.000171466
0.000385578
0.000174136
0.000156942
0.00015681
0.000390755
0.000149653
0.0331771
0.00442728
0.000177433
0.00917775
0.000267906
0.00017288
0.000147767
0.000569211
0.000162472
0.000147467
0.000182944
0.000149641
0.000183392
0.000157689
0.000189612
0.000153807
0.0203529
0.00469853
0.000160433
0.000187079
0.000149386
0.000192325
0.000149392
0.000147337
0.000148164
0.000151578
0.000163224
0.0260363
0.000175301
0.0074657
0.000149439
0.000150202
0.0238045
0.000177925
0.000148433
0.000169916
0.000148831
0.00045128
0.0196956
0.000148288
0.000162514
0.000174868
0.00449695
0.000147487
0.00015234
0.000507907
0.000153317
0.000409125
0.000193465
0.000281497
0.000152117
0.000149894
0.000147105
0.000147379
0.000211904
0.000149885
0.000214776
0.000178304
0.000166485
0.000149706
0.00014944
0.000150605
0.000148492
0.000146592
0.000147335
0.000172828
0.0347678
0.0182477
0.000149849
0.000189666
0.000147405
0.00757146
0.000165502
0.000159576
0.000156694
0.000194339
0.00014603
0.000148246
0.000158921
0.000147309
0.000147607
0.000168522
0.0380073
0.000145711
0.000201146
0.0281718
0.00015012
0.0236011
0.0338175
0.000146754
0.000165833
0.000153417
0.000147382
0.000145519
0.000165501
0.0226877
0.00580772
0.000147559
0.000147961
0.000145738
0.000153518
0.000149307
0.000150397
0.000191019
0.000165479
0.000148915
0.000311703
0.00015383
0.000156372
0.000147505
0.015304
0.000148952
0.000147188
0.000166854
0.00029239
0.000145409
0.000148226
0.00014746
0.000152135
0.000146003
0.000160635
0.000215173
0.000148374
0.000179277
0.000148298
0.000147389
0.000224119
0.00691479
0.000192439
0.000148352
0.00014556
0.000355366
0.00015246
0.000229794
0.000145259
0.000147314
0.0611852
0.00268628
0.000154631
0.000177362
0.000162145
0.000147191
0.000149793
0.0001474
0.002512
0.000148221
0.000149947
0.0185331
0.000153645
0.000193482
0.000156124
0.0001473
0.00681975
0.000149765
0.000147365
0.000147399
0.000155285
0.0261108
0.000148996
0.000147695
0.00014731
0.000147237
0.000147344
0.000147182
0.0131293
0.000155766
0.000149435
0.000148604
0.000155813
0.000167491
0.000153254
0.000154214
0.000149883
0.000145705
0.000149631
0.0299927
0.0422297
0.000149986
0.00579276
0.000149379
0.000151784
0.00035262
0.000306515
0.000146459
0.000149131
0.000180381
0.000166396
0.000147109
0.000149625
0.0314427
0.000149767
0.000166797
0.000147895
0.000188322
0.000149616
0.00014943
0.000148736
0.00015557
0.000148379
0.000151277
0.000152766
0.00016941
0.000146839
0.000147772
0.000149632
0.000147123
0.000147658
0.000147321
0.00015509
0.000148637
0.000167776
0.0063675
0.0001621
0.000169493
0.000149283
0.000146619
0.0585121
0.000571983
0.000145445
0.0251334
0.0456947
0.000145585
0.000147661
0.000147023
0.000169296
0.00016893
0.000307561
0.00014679
0.000151462
0.000146782
0.000148629
0.000149263
0.000166714
0.000147591
0.000187995
0.000148484
0.000162188
0.000147033
0.000149819
0.000147385
0.000167468
0.000161999
0.0321047
0.0428518
0.0262273
0.000164533
0.000147305
0.000274117
0.000376772
0.000172128
0.000147435
0.000148418
0.000292267
0.000146972
0.0257316
0.000146052
0.000154555
0.00014768
0.000149784
0.000146513
0.000324328
0.00217079
0.0232081
0.000163244
0.0782782
0.00014747
0.0402089
0.00173564
0.000149784
0.000148228
0.000145954
0.000240058
0.00014515
0.00398781
0.000155951
0.00018175
0.000148186
0.000251148
0.0109044
0.000268903
0.000154732
0.000155641
0.000148099
0.0449903
0.000145116
0.000196266
0.000191769
0.000162552
0.000510943
0.000883523
0.000149577
0.000149674
0.000147412
0.000207499
0.00810343
0.0325414
0.000146022
0.000400314
0.000153184
0.000179188
0.000168531
0.0342218
0.0354038
0.00014644
0.000152567
0.000154635
0.00014991
0.000151229
0.045109
0.000149249
0.00226551
0.00014756
0.000146259
0.000167218
0.000178294
0.000227205
0.000148478
0.00770483
0.0235465
0.000207306
0.000153247
0.000149509
0.000148484
0.000149465
0.000147394
0.000259772
0.000229292
0.000147754
0.000147406
0.000155759
0.000255224
0.00015214
0.000147344
0.000183075
0.00014741
0.00014982
0.000145204
0.000173412
0.000148059
0.000150419
0.0189119
0.000167127
0.000149257
0.000464965
0.000167549
0.00014739
0.000149521
0.000156644
0.000149724
0.000147518
0.000146289
0.00798299
0.000195039
0.000148388
0.00015759
0.000157329
0.000194089
0.000147496
0.0422165
0.000146812
0.000146066
0.000193885
0.000193997
0.000170866
0.000148053
0.000147116
0.0121541
0.0149328
0.000184262
0.000307307
0.000148548
0.000151639
0.000147935
0.0461413
0.000151017
0.000224188
0.000149254
0.000147176
0.000150403
0.000146032
0.000146899
0.000162971
0.000146334
0.0409744
0.000146915
0.000148374
0.000145375
0.000150519
0.00858569
0.022293
0.000169911
0.0733239
0.000147638
0.000157711
0.000148712
0.000358201
0.000147423
0.000146236
0.00224686
0.000156915
0.000156094
0.000148614
0.000184785
0.00031885
0.0259156
0.00014831
0.00015669
0.000211627
0.000156238
0.000287384
0.000177691
0.000167427
0.000146428
0.000149049
0.00017264
0.000163705
0.000147693
0.000201153
0.000145998
0.000149149
0.000148634
0.000146474
0.000147338
0.000147815
0.000202393
0.000152011
0.000148982
0.000161158
0.000146263
0.000147387
0.000159313
0.0189758
0.000164339
0.00016556
0.00339908
0.000149514
0.0744226
0.000154755
0.0206248
0.000162822
0.000149283
0.000147501
0.000149165
0.100082
0.000274809
0.000162186
0.000170296
0.000145655
0.000147362
0.000149618
0.000149277
0.0378987
0.000151448
0.000147303
0.000183326
0.00017863
0.000946798
0.000148748
0.00160238
0.000161133
0.000160327
0.000156478
0.000184996
0.000179115
0.000148269
0.0279076
0.000194008
0.000158017
0.0351449
0.000163201
0.000147706
0.000149735
0.000147379
0.000149787
0.000153408
0.0307449
0.000166315
0.000146855
0.000200843
0.000147818
0.0211721
0.000450627
0.000147452
0.0182542
0.000146685
0.000146318
0.000147488
0.0466169
0.0343366
0.000166004
0.000155523
0.00014664
0.00020237
0.000149497
0.000155725
0.000148459
0.000148136
0.000147192
0.00579683
0.000149441
0.00015876
0.000154534
0.000149351
0.000178422
0.000174267
0.000158279
0.000151715
0.000149367
0.0116508
0.0180364
0.00014753
0.000146419
0.000147563
0.000149054
0.00673642
0.0089679
0.000183998
0.000151967
0.000146383
0.000747095
0.000338069
0.000148342
0.0351254
0.000145949
0.000170272
0.0213932
0.000146167
0.0110864
0.0773102
0.000174014
0.0510983
0.00188951
0.000146885
0.000149307
0.000281374
0.0205733
0.000149116
0.0858554
0.000151209
0.000147342
0.000149812
0.000148567
0.000160191
0.000151306
0.000177265
0.0453879
0.000174069
0.000156608
0.000148381
0.000163882
0.000311047
0.000146447
0.000415477
0.000162454
0.000149411
0.000151103
0.000149569
0.000148446
0.000155675
0.000308527
0.000147976
0.000146298
0.0973368
0.019308
0.000174499
0.000149718
0.000165771
0.000147402
0.000147289
0.024415
0.000366187
0.000147209
0.000144436
0.0394649
0.0230442
0.000162775
0.000148573
0.00112613
0.000148163
0.000147246
0.000152627
0.000147288
0.000145622
0.000145302
0.000514844
0.000217174
0.00015221
0.000251604
0.000163778
0.0161474
0.000412664
0.0470015
0.000182879
0.000147474
0.000149547
0.000147789
0.00014774
0.000163455
0.000146958
0.000166324
0.000154113
0.000231484
0.00014816
0.021824
0.000157365
0.0628587
0.000147241
0.000257829
0.000154826
0.000184842
0.000194745
0.000155772
0.000145283
0.000632044
0.000167475
0.000635786
0.000145403
0.00379879
0.000148004
0.0104872
0.000193391
0.000158951
0.000147377
0.000148523
0.0316433
0.0118471
0.000155695
0.000145931
0.000210398
0.000166802
0.00016297
0.0385455
0.000164154
0.000147474
0.00307759
0.00014739
0.000156744
0.00014587
0.000385142
0.000145857
0.00015167
0.000201289
0.000420538
0.000149429
0.000167077
0.000149738
0.000163921
0.000146939
0.000182402
0.000150185
0.000163046
0.000147472
0.000147685
0.030851
0.000153259
0.00779758
0.000434314
0.0214832
0.000149358
0.000145865
0.000146326
0.000151469
0.000158433
0.000155217
0.0193815
0.00014965
0.000229306
0.000159205
0.000149862
0.000147513
0.000175303
0.000205335
0.0442365
0.000147357
0.0160534
0.000146808
0.00130274
0.000256116
0.000164262
0.000147837
0.000146176
0.000161951
0.000682875
0.000150711
0.00014977
0.000151475
0.000162935
0.000149519
0.000215295
0.00732457
0.000478498
0.000148947
0.000151907
0.00212942
0.000149176
0.000162092
0.000146637
0.000176913
0.000157752
0.000147503
0.000159581
0.000171229
0.000147507
0.0137335
0.000147367
0.000181494
0.000174586
0.000207697
0.000177434
0.000149028
0.000148349
0.0192222
0.000148421
0.0001588
0.000175506
0.000149655
0.000145072
0.00107691
0.000151652
0.0001815
0.000151568
0.000162425
0.000149017
0.000183164
0.000151894
0.000150867
0.0130569
0.00020347
0.000148455
0.000149802
0.000170144
0.0469519
0.000282489
0.000193765
0.000154528
0.000147339
0.000146608
0.0353099
0.000148813
0.00266649
0.000169324
0.0174135
0.000148591
0.000145989
0.00014632
0.000161997
0.000178015
0.000398076
0.0151734
0.000282772
0.000190886
0.000145169
0.00031353
0.000149293
0.000177432
0.000148288
0.000160654
0.000161546
0.000147388
0.000145071
0.00017396
0.000145488
0.000159794
0.000162493
0.0141519
0.00963477
0.000164272
0.0371718
0.000146268
0.000145858
0.000148341
0.000172004
0.000162022
0.000162639
0.000171704
0.000312361
0.000158435
0.000169298
0.000146641
0.00015117
0.0375072
0.000147175
0.000175455
0.000144327
0.000146908
0.00568432
0.000177383
0.000147222
0.000168846
0.000190462
0.00129815
0.00484641
0.000151451
0.000180636
0.00016761
0.000299637
0.000147971
0.00444727
0.103836
0.000150489
0.000153371
0.000145412
0.000183499
0.000146865
0.000147765
0.0403495
0.000148366
0.000145153
0.000182112
0.000176571
0.0153452
0.018096
0.000408537
0.0207006
0.000146294
0.000147361
0.000147152
0.000149305
0.00029959
0.000147864
0.0162525
0.000149303
0.00758251
0.000151296
0.000148132
0.000145637
0.000148416
0.00015523
0.00014743
0.000144975
0.000200483
0.000146545
0.000170078
0.000149013
0.0539859
0.000151325
0.000148454
0.000147576
0.000166356
0.00014711
0.000146102
0.000148455
0.000149375
0.000153496
0.000146962
0.000149704
0.000155745
0.00425081
0.0657154
0.0093642
0.0208829
0.000146294
0.000147831
0.000147351
0.000144041
0.000147409
0.000146128
0.000220265
0.000146884
0.000149645
0.0001483
0.000148127
0.000147187
0.070948
0.000152486
0.000147566
0.0440522
0.000163378
0.000145818
0.102773
0.0216079
0.000147935
0.000186562
0.000192734
0.000148043
0.000159613
0.00015078
0.000144925
0.000153409
0.000150334
0.000166913
0.000147887
0.000149613
0.00014622
0.00874347
0.000155277
0.000159522
0.000148034
0.000149744
0.00453786
0.000152476
0.000148053
0.000150218
0.000150553
0.000149649
0.000174632
0.0309036
0.00041278
0.0558161
0.000173157
0.000157907
0.000149707
0.00773798
0.00017731
0.00014897
0.000168976
0.000149949
0.000147289
0.000149606
0.0153611
0.000160148
0.000147775
0.000148115
0.00018718
0.000146078
0.000182233
0.000147577
0.000247171
0.000192563
0.000250143
0.000148453
0.00014998
0.000155841
0.000157335
0.000148259
0.000158272
0.000164226
0.000249239
0.000148926
0.000186158
0.00109543
0.000145205
0.0411574
0.000159164
0.000180999
0.000171526
0.000147379
0.00015372
0.000160879
0.000145658
0.000151073
0.000144845
0.000253945
0.000907055
0.000156246
0.00014654
0.000177232
0.000163363
0.000332569
0.000174986
0.000149698
0.000152965
0.000147493
0.000147386
0.000160884
0.000160554
0.0360769
0.000146521
0.000186437
0.000153723
0.000399445
0.000180916
0.0334976
0.00014515
0.000149654
0.000283419
0.00026887
0.000158884
0.0213886
0.000149627
0.000173069
0.000147151
0.000146874
0.0283028
0.000198642
0.000153375
0.000148511
0.000163346
0.000290289
0.000171416
0.000162436
0.000146322
0.00014789
0.000145843
0.000312348
0.00597965
0.00014633
0.000163852
0.00432847
0.000168748
0.000179828
0.0159519
0.0200946
0.0166573
0.000146453
0.000149621
0.0367411
0.000147106
0.000160231
0.000239453
0.0986107
0.000150165
0.00015524
0.0251191
0.000192294
0.000268013
0.00242694
0.0361403
0.0218459
0.000148609
0.000145449
0.000147809
0.00014815
0.00413584
0.000160903
0.000180484
0.000182646
0.000161269
0.000147234
0.000235538
0.000146191
0.000154685
0.000147209
0.000158613
0.0154215
0.000789334
0.00014832
0.000145355
0.000166929
0.000268456
0.000179059
0.10181
0.000159449
0.000148041
0.000163759
0.000144334
0.000165048
0.000155923
0.000147371
0.000267412
0.000170048
0.000182574
0.000163612
0.000148323
0.000145424
0.00617242
0.00015197
0.000145406
0.000148864
0.000149684
0.000145631
0.0064313
0.00032738
0.0240213
0.000245535
0.106164
0.000151586
0.000147463
0.0119907
0.000149582
0.000205778
0.000504172
0.000146831
0.00313191
0.012737
0.000165733
0.000156484
0.000201902
0.000149636
0.000270354
0.000158899
0.0174443
0.000146572
0.000149287
0.000158938
0.00043142
0.00017537
0.000162543
0.0947633
0.0156148
0.00016287
0.000184229
0.000385845
0.000150495
0.000180384
0.0110466
0.00015786
0.000162003
0.0386698
0.000156416
0.000157822
0.000148555
0.000158462
0.000160212
0.000163657
0.000148447
0.000368089
0.000170632
0.0200806
0.0811482
0.0167915
0.000158533
0.000255724
0.000382067
0.000146687
0.000107328
0.00339938
0.000296156
0.000153766
0.000151036
0.0572836
0.0003513
0.00014545
0.000173996
0.000146056
0.000147142
0.000460841
0.000152159
0.0272515
0.0238417
0.00848883
0.000329748
0.000145279
0.000157628
0.000147653
0.000146661
0.000166706
0.000167918
0.000151775
0.000351156
0.0228124
0.000149803
0.000151382
0.000232654
0.000148732
0.000180575
0.000159724
0.0170553
0.0157436
0.000207187
0.000431386
0.0564291
0.016277
0.0150293
0.0327638
0.000161942
0.000151893
0.000167844
0.00016738
0.00663694
0.000304631
0.000148769
0.000154403
0.100175
0.0187596
0.000150043
0.0921908
0.000147437
0.00020399
0.0120268
0.000726434
0.000147217
0.0227435
0.000256873
0.000152888
0.000157141
0.00413458
0.00308704
0.00938413
0.00272129
0.000147943
0.000681036
0.0166947
0.000158343
0.00017694
0.000166033
0.000145942
0.000152241
0.0271088
0.0459289
0.000150696
0.000149067
0.0588507
0.00016455
0.0214904
0.00016685
0.000236159
0.0140247
0.000147806
0.00115425
0.000149891
0.000155711
0.000148062
0.000148128
0.000145741
0.000158815
0.000175266
0.000144471
0.0019542
0.000186322
0.000307886
0.0966754
0.0172217
0.000147124
0.0149944
0.000255686
0.02667
0.000157155
0.000147372
0.00259217
0.000195379
0.0444149
0.000161064
0.000150234
0.000145647
0.00170084
0.0317743
0.000156666
0.00138965
0.000155514
0.000148463
0.0296609
0.000160834
0.0247666
0.000147089
0.000159163
0.0159899
0.0117605
0.0205638
0.000185233
0.0178359
0.0208279
0.000301353
0.000148162
0.0248045
0.000160542
0.000146748
0.000145087
0.000147365
0.0627423
0.000160124
0.0158419
0.0306261
0.000163801
0.000169145
0.000202381
0.0254373
0.000177027
0.00877681
0.0967241
0.000242621
0.000164565
0.000145744
0.000197884
0.000161149
0.000219219
0.0260775
0.0306671
0.000263692
0.000148554
0.000150355
0.000159965
0.000148225
0.000147249
0.000153493
0.014808
0.000157541
0.000154525
0.0317013
0.000186193
0.000199299
0.00278777
0.0127364
0.000194641
0.0384929
0.0762026
0.0285933
0.00016208
0.000155176
0.000148084
0.000235359
0.000171454
0.000192564
0.000161933
0.000161433
0.000144095
0.000185775
0.000949452
0.000154615
0.000145086
0.000148472
0.000285287
0.000146952
0.000148009
0.000165286
0.0162677
0.000155485
0.000160812
0.000170577
0.000155132
0.000171152
0.000147237
0.000147662
0.000160616
0.000191418
0.000148574
0.000156051
0.000176241
0.000395475
0.00014813
0.00280527
0.000146867
0.0132519
0.000149955
0.000150188
0.000144908
0.000180654
0.000159507
0.0128026
0.0906286
0.000162351
0.000148993
0.00014714
0.000629445
0.000295381
0.000147013
0.000179438
0.0334427
0.000164257
0.000163422
0.000144043
0.000149021
0.000147374
0.0264075
0.000161262
0.000148159
0.0275667
0.00014875
0.000161519
0.000195442
0.000145952
0.000165279
0.000165545
0.0460945
0.000148783
0.000152828
0.000150136
0.00016437
0.000143821
0.000147241
0.00156718
0.000196223
0.000168562
0.000149353
0.0451966
0.000148833
0.000148768
0.000147481
0.000198669
0.0190593
0.000150077
0.00138134
0.000314695
0.000165301
0.026741
0.000295225
0.097026
0.000309008
0.000168766
0.000176185
0.000185864
0.000163034
0.000147427
0.000155057
0.000154113
0.0582679
0.000148386
0.0094176
0.000147733
0.000182532
0.000169275
0.000148917
0.000157825
0.00329671
0.0318796
0.0186635
0.0174617
0.00014643
0.00018529
0.0210546
0.000151098
0.000318671
0.00015839
0.000166813
0.0306627
0.000166647
0.000147738
0.000174093
0.000177236
0.0001474
0.0154394
0.000231667
0.000145838
0.000149553
0.000148696
0.00014786
0.0976993
0.000147501
0.000162825
0.000147973
0.000147904
0.000155982
0.000147436
0.0283502
0.000170463
0.000148164
0.000145448
0.000175135
0.000149212
0.000161182
0.0121268
0.0853668
0.00016254
0.000175298
0.000158405
0.000145194
0.000180261
0.0783401
0.000158708
0.0155107
0.000404528
0.000163509
0.000159329
0.00015753
0.000167234
0.000158042
0.00579451
0.000148635
0.00014797
0.000147064
0.0429279
0.000350448
0.00015738
0.000225129
0.000147048
0.000154399
0.000182034
0.000195534
0.00014731
0.000163655
0.0475761
0.000164578
0.000147797
0.000147401
0.0432826
0.0703738
0.000147412
0.000210039
0.000155755
0.000188739
0.000190684
0.000146864
0.017697
0.000153798
0.000147979
0.036291
0.000189161
0.000147367
0.000148995
0.000196318
0.000146614
0.00014811
0.000197049
0.000158711
0.000159576
0.0244279
0.000151284
0.000167871
0.0476301
0.000146631
0.000369729
0.0154057
0.000151077
0.000177033
0.000186005
0.000147581
0.000183513
0.00014426
0.0171651
0.000250783
0.000147813
0.00027119
0.0004482
0.000147452
0.00014746
0.000192933
0.000164101
0.0282828
0.0238631
0.000148555
0.00016141
0.0690793
0.000148241
0.000165647
0.000177945
0.000156687
0.0306302
0.000186271
0.000150761
0.000191343
0.000302148
0.000159328
0.0394898
0.000147142
0.000144874
0.000149761
0.000158818
0.00894046
0.000148281
0.000159044
0.00405008
0.0107065
0.000149397
0.000154956
0.000273164
0.0135325
0.000149447
0.000391044
0.000156568
0.00016881
0.000157099
0.000149319
0.000151766
0.000147539
0.000147589
0.000631396
0.0001473
0.000160302
0.000147707
0.0011674
0.000150858
0.000152532
0.000145184
0.000149643
0.000147653
0.000161088
0.0479123
0.000208898
0.000159211
0.000158847
0.000147551
0.000155584
0.000165776
0.0123443
0.101487
0.000146569
0.000274278
0.00014799
0.000291771
0.0315344
0.0932576
0.000146551
0.000167388
0.000173128
0.0277982
0.000173788
0.000146851
0.0110609
0.000177737
0.000157611
0.000252129
0.000147561
0.000147665
0.000158318
0.0359257
0.000147421
0.000347764
0.000156687
0.00155414
0.000164596
0.000150972
0.0127489
0.000153815
0.000148199
0.000194975
0.000147249
0.000317387
0.000594642
0.000182223
0.00015362
0.000169257
0.00014745
0.000171061
0.000162022
0.000323243
0.000147752
0.000145647
0.000152836
0.000154735
0.000162322
0.0362722
0.0206473
0.000157201
0.00017469
0.000146612
0.0426903
0.000264831
0.000174428
0.000147406
0.000149707
0.000150883
0.0117823
0.000147873
0.000151426
0.0130338
0.000175796
0.000147633
0.000174422
0.00017423
0.000147743
0.000151413
0.000173628
0.000234771
0.000165297
0.000161137
0.0412517
0.0233438
0.00019894
0.000152709
0.000148024
0.000150721
0.000151435
0.000176534
0.000166981
0.000152248
0.000174402
0.00139411
0.000150844
0.000147829
0.091814
0.000175666
0.0262985
0.00018292
0.000151935
0.000150445
0.000150365
0.000146494
0.000147148
0.000162257
0.000145078
0.000149488
0.000147678
0.00014923
0.000150005
0.000147492
0.000157846
0.000161623
0.000147548
0.00014742
0.000148673
0.000149189
0.000148509
0.000175949
0.0001483
0.00015009
0.000241058
0.000146096
0.000149612
0.000148334
0.00015207
0.0778329
0.0857936
0.0288156
0.0380702
0.00779166
0.000188564
0.000147036
0.00016565
0.000147807
0.000216027
0.000150214
0.00015466
0.00014817
0.000166733
0.000147488
0.000154718
0.000146323
0.03187
0.000179804
0.00014837
0.00104524
0.0111352
0.000147466
0.000206628
0.00014746
0.000145304
0.0234435
0.000147603
0.000167106
0.000183168
0.000148615
0.00014505
0.000168657
0.0385096
0.000151801
0.000148971
0.0288727
0.000147386
0.00814067
0.000165154
0.00301839
0.000145634
0.0157336
0.000147334
0.000148405
0.000192254
0.000168378
0.00674377
0.0324731
0.0598042
0.0267866
0.000209954
0.000174126
0.000148135
0.000198305
0.000147268
0.0001465
0.000166061
0.00014724
0.000147753
0.000145332
0.000145237
0.000172963
0.000276279
0.0174417
0.000189416
0.0177883
0.000149186
0.000155114
0.00014819
0.000149233
0.000173091
0.000148073
0.000146895
0.000146488
0.000149409
0.000149769
0.000170867
0.000193299
0.000162522
0.000148609
0.000160766
0.000161386
0.00645372
0.0397574
0.000150889
0.000159557
0.000148517
0.00278258
0.0513411
0.000147368
0.000147294
0.000150754
0.000149364
0.000212851
0.000196725
0.0290118
0.000148054
0.0157341
0.000148233
0.0282804
0.000164831
0.000146421
0.000153676
0.00024499
0.000153192
0.00015348
0.000154167
0.000170406
0.0184139
0.0001471
0.000147166
0.000153752
0.000211477
0.00014706
0.0283433
0.0358975
0.000147542
0.000143975
0.0312452
0.00018026
0.000147403
0.000138515
0.00289362
0.0140033
0.0390194
0.000152546
0.000262776
0.000148315
0.0195889
0.0220709
0.00019441
0.000182602
0.000150172
0.100395
0.000151289
0.00014692
0.000144082
0.00876541
0.000145438
0.000261895
0.000149203
0.000148394
0.000151626
0.0175006
0.000150098
0.000148887
0.00014834
0.000406004
0.0245191
0.00140738
0.0116472
0.000165034
0.000147422
0.000150881
0.000214109
0.00016627
0.000147747
0.000167652
0.000641129
0.000267735
0.000147245
0.0189032
0.0347662
0.000162057
0.000148261
0.00015004
0.000147515
0.00014636
0.000147437
0.000148047
0.000148788
0.00016598
0.000148505
0.000189836
0.000148956
0.000148966
0.0879317
0.000186506
0.000151638
0.000148918
0.0292461
0.000145176
0.000155805
0.000152183
0.000146454
0.000216828
0.000155177
0.000148953
0.000159131
0.000147508
0.000152386
0.000147607
0.000181128
0.000146515
0.00014727
0.000409613
0.00015076
0.000183887
0.000156061
0.000150487
0.000180335
0.000143827
0.00014847
0.000149006
0.00552328
0.00014902
0.000147392
0.000296697
0.00014792
0.000145398
0.000146953
0.000227853
0.000155873
0.000190999
0.000156406
0.000155229
0.000160332
0.00015014
0.000152996
0.000159823
0.0290819
0.000148593
0.000153981
0.000146727
0.000174683
0.000189089
0.000147092
0.000157213
0.0478826
0.00015481
0.000145028
0.0485855
0.000152029
0.000164286
0.0179526
0.000152939
0.000147196
0.000154354
0.0001474
0.000152649
0.000147104
0.000149673
0.000152071
0.000147574
0.0001483
0.000155761
0.000148288
0.000172383
0.00014705
0.00015047
0.000147416
0.00015737
0.0158653
0.000147962
0.000147369
0.00016517
0.000150115
0.000147636
0.000190861
0.00165134
0.0198476
0.000147882
0.000150774
0.000159482