/*--------------------------------*- C++ -*----------------------------------*\
| =========                 |                                                 |
| \\      /  F ield         | OpenFOAM: The Open Source CFD Toolbox           |
|  \\    /   O peration     | Version:  v2012                                 |
|   \\  /    A nd           | Website:  www.openfoam.com                      |
|    \\/     M anipulation  |                                                 |
\*---------------------------------------------------------------------------*/
FoamFile
{
    version     2.0;
    format      ascii;
    class       volVectorField;
    location    "1000";
    object      cellDisplacement;
}
// * * * * * * * * * * * * * * * * * * * * * * * * * * * * * * * * * * * * * //

dimensions      [0 1 0 0 0 0 0];


internalField   nonuniform List<vector> 
9793
(
(0 -0.00161667 0)
(0 -0.000109192 0)
(0 -0.00164746 0)
(0 -0.000630793 0)
(0 -0.00128175 0)
(0 -0.00252997 0)
(0 -0.000270978 0)
(0 -0.00172599 0)
(0 -0.00156105 0)
(0 -0.00130035 0)
(0 -0.000950605 0)
(0 -0.00271236 0)
(0 -0.00057148 0)
(0 -0.00118342 0)
(0 -5.07872e-05 0)
(0 -0.00112452 0)
(0 -0.00218832 0)
(0 -0.00222152 0)
(0 -0.00186603 0)
(0 -0.00116248 0)
(0 -0.0024022 0)
(0 -0.00197269 0)
(0 -0.00216559 0)
(0 -1.59553e-05 0)
(0 -0.00273592 0)
(0 -0.000467216 0)
(0 -0.00109795 0)
(0 -0.00210318 0)
(0 -0.00130103 0)
(0 -0.00157186 0)
(0 -0.002695 0)
(0 -0.00214362 0)
(0 -0.00288395 0)
(0 -0.000125802 0)
(0 -0.00132822 0)
(0 -0.00235585 0)
(0 -0.000192245 0)
(0 -0.00199952 0)
(0 -0.0020719 0)
(0 -0.000309907 0)
(0 -0.0027081 0)
(0 -9.42923e-05 0)
(0 -0.000295657 0)
(0 -0.000271119 0)
(0 -0.00023552 0)
(0 -0.000400376 0)
(0 -0.00129083 0)
(0 -0.00178324 0)
(0 -0.0029284 0)
(0 -0.000712485 0)
(0 -0.00131717 0)
(0 -0.00100718 0)
(0 -0.00247067 0)
(0 -0.00177451 0)
(0 -0.00113984 0)
(0 -0.00253766 0)
(0 -0.00136022 0)
(0 -0.00070818 0)
(0 -0.00298081 0)
(0 -0.00201602 0)
(0 -0.000205155 0)
(0 -0.00239208 0)
(0 -0.00295714 0)
(0 -0.000264518 0)
(0 -0.0011581 0)
(0 -0.0028638 0)
(0 -0.002967 0)
(0 -0.00296648 0)
(0 -0.00272318 0)
(0 -0.000986048 0)
(0 -0.00117365 0)
(0 -9.22041e-06 0)
(0 -0.00193766 0)
(0 -0.000174985 0)
(0 -0.00133809 0)
(0 -0.00299213 0)
(0 -0.00140872 0)
(0 -6.58059e-05 0)
(0 -0.00244234 0)
(0 -0.00220851 0)
(0 -0.0028827 0)
(0 -0.00247564 0)
(0 -8.75506e-05 0)
(0 -0.00185016 0)
(0 -0.00269223 0)
(0 -0.00180935 0)
(0 -0.00224456 0)
(0 -0.00145555 0)
(0 -0.00238033 0)
(0 -0.00253601 0)
(0 -0.000151137 0)
(0 -0.00109755 0)
(0 -0.00151493 0)
(0 -0.00211193 0)
(0 -0.00237413 0)
(0 -0.00187721 0)
(0 -0.00252242 0)
(0 -0.00010998 0)
(0 -0.00148127 0)
(0 -0.00125954 0)
(0 -0.00123856 0)
(0 -0.00254214 0)
(0 -0.00152152 0)
(0 -0.00147887 0)
(0 -8.12844e-05 0)
(0 -0.00270186 0)
(0 -0.00235825 0)
(0 -0.000226973 0)
(0 -0.00245181 0)
(0 -0.00172865 0)
(0 -9.67457e-06 0)
(0 -0.00254055 0)
(0 -0.00123413 0)
(0 -0.00244409 0)
(0 -0.00103915 0)
(0 -0.00139476 0)
(0 -0.00282828 0)
(0 -0.00137178 0)
(0 -0.00250953 0)
(0 -0.00208692 0)
(0 -0.00175818 0)
(0 -3.616e-06 0)
(0 -0.0015507 0)
(0 -0.0025519 0)
(0 -0.00174724 0)
(0 -0.00243736 0)
(0 -0.000851718 0)
(0 -0.00183515 0)
(0 -0.00247564 0)
(0 -0.0016664 0)
(0 -1.86089e-05 0)
(0 -0.00144306 0)
(0 -0.00171238 0)
(0 -0.0026134 0)
(0 -0.00156138 0)
(0 -0.00150032 0)
(0 -0.000216726 0)
(0 -0.000276122 0)
(0 -0.0012022 0)
(0 -0.000232237 0)
(0 -0.00152446 0)
(0 -0.00271359 0)
(0 -0.000437705 0)
(0 -0.00126186 0)
(0 -0.00122277 0)
(0 -0.00127774 0)
(0 -4.31976e-05 0)
(0 -0.00128313 0)
(0 -0.00147207 0)
(0 -0.00105468 0)
(0 -0.00157432 0)
(0 -2.06866e-05 0)
(0 -0.00155163 0)
(0 -0.00134683 0)
(0 -0.00143617 0)
(0 -6.76498e-06 0)
(0 -0.000109203 0)
(0 -0.0026874 0)
(0 -0.00125277 0)
(0 -0.000435512 0)
(0 -0.0017905 0)
(0 -0.00208694 0)
(0 -0.000987638 0)
(0 -0.0019397 0)
(0 -0.000116102 0)
(0 -0.00237206 0)
(0 -0.00180902 0)
(0 -0.00166421 0)
(0 -0.001061 0)
(0 -0.00242213 0)
(0 -0.00239716 0)
(0 -0.00311871 0)
(0 -0.000106355 0)
(0 -0.00312339 0)
(0 -0.00171604 0)
(0 -0.00189171 0)
(0 -0.00148591 0)
(0 -5.83793e-05 0)
(0 -0.00183491 0)
(0 -0.00133241 0)
(0 -0.000486646 0)
(0 -0.00142313 0)
(0 -0.00127206 0)
(0 -0.00271013 0)
(0 -0.00302944 0)
(0 -0.00189517 0)
(0 -0.000702329 0)
(0 -0.00183807 0)
(0 -0.00159553 0)
(0 -0.00100779 0)
(0 -0.00169123 0)
(0 -0.00077232 0)
(0 -0.00294798 0)
(0 -0.0025067 0)
(0 -0.00295656 0)
(0 -0.00134307 0)
(0 -0.00164391 0)
(0 -0.00234893 0)
(0 -0.00137982 0)
(0 -0.000206053 0)
(0 -0.00157082 0)
(0 -0.00201123 0)
(0 -0.00251256 0)
(0 -0.00159888 0)
(0 -0.0015288 0)
(0 -6.25293e-05 0)
(0 -0.00238201 0)
(0 -0.0011681 0)
(0 -0.00268348 0)
(0 -0.00165817 0)
(0 -0.00140137 0)
(0 -0.00295211 0)
(0 -0.00291992 0)
(0 -0.00176527 0)
(0 -0.00164077 0)
(0 -0.000107881 0)
(0 -0.00248088 0)
(0 -0.00303855 0)
(0 -7.80662e-05 0)
(0 -0.0028628 0)
(0 -0.00145343 0)
(0 -0.00148716 0)
(0 -0.0017216 0)
(0 -0.000717039 0)
(0 -0.00185528 0)
(0 -0.00196275 0)
(0 -0.00250463 0)
(0 -0.00141362 0)
(0 -0.00141816 0)
(0 -0.00105805 0)
(0 -2.84565e-05 0)
(0 -2.72589e-05 0)
(0 -0.00139932 0)
(0 -0.000170395 0)
(0 -0.000887243 0)
(0 -0.00287421 0)
(0 -0.00117826 0)
(0 -0.00228701 0)
(0 -0.00254503 0)
(0 -0.00247969 0)
(0 -0.0026911 0)
(0 -0.00122911 0)
(0 -0.00226055 0)
(0 -0.0028846 0)
(0 -0.00219317 0)
(0 -0.00145889 0)
(0 -0.00166038 0)
(0 -0.00268705 0)
(0 -0.00149395 0)
(0 -0.000153941 0)
(0 -0.00202274 0)
(0 -0.00151885 0)
(0 -0.00107696 0)
(0 -0.000866668 0)
(0 -0.00211874 0)
(0 -0.00207249 0)
(0 -0.00233712 0)
(0 -0.00151522 0)
(0 -0.00263752 0)
(0 -0.00116656 0)
(0 -0.00187745 0)
(0 -0.0022347 0)
(0 -0.00110991 0)
(0 -0.000114424 0)
(0 -0.00163628 0)
(0 -4.59394e-05 0)
(0 -6.02255e-05 0)
(0 -0.00142801 0)
(0 -0.00203875 0)
(0 -0.00235671 0)
(0 -0.00118824 0)
(0 -0.000838339 0)
(0 -0.00191729 0)
(0 -0.00148487 0)
(0 -0.000167113 0)
(0 -0.000137624 0)
(0 -0.00164703 0)
(0 -0.00248345 0)
(0 -0.000404933 0)
(0 -0.000838908 0)
(0 -0.0026573 0)
(0 -6.22514e-05 0)
(0 -0.000171366 0)
(0 -0.000313786 0)
(0 -0.00083353 0)
(0 -0.00150534 0)
(0 -0.0020409 0)
(0 -0.00160177 0)
(0 -0.000419288 0)
(0 -0.00154385 0)
(0 -0.00121315 0)
(0 -0.00284599 0)
(0 -0.00243559 0)
(0 -0.000190529 0)
(0 -2.60544e-05 0)
(0 -0.00260988 0)
(0 -0.00181126 0)
(0 -0.00158901 0)
(0 -0.000543755 0)
(0 -0.00201913 0)
(0 -0.00145037 0)
(0 -0.00301996 0)
(0 -0.00283517 0)
(0 -0.000169109 0)
(0 -0.000237782 0)
(0 -0.00124097 0)
(0 -0.00191523 0)
(0 -0.0017763 0)
(0 -0.00262635 0)
(0 -0.00300954 0)
(0 -0.000247689 0)
(0 -0.00121225 0)
(0 -0.00178939 0)
(0 -0.00212133 0)
(0 -0.00192561 0)
(0 -0.00250339 0)
(0 -0.00182843 0)
(0 -0.00237058 0)
(0 -0.00188303 0)
(0 -0.00163185 0)
(0 -0.00218958 0)
(0 -0.000161489 0)
(0 -0.00174344 0)
(0 -0.000148702 0)
(0 -7.12346e-05 0)
(0 -0.000501552 0)
(0 -0.00184472 0)
(0 -0.00296126 0)
(0 -0.00138053 0)
(0 -0.000898409 0)
(0 -0.00124332 0)
(0 -0.00141328 0)
(0 -0.00250674 0)
(0 -0.00267186 0)
(0 -0.000946839 0)
(0 -0.00158155 0)
(0 -0.000265799 0)
(0 -0.00156365 0)
(0 -0.000191895 0)
(0 -0.00215044 0)
(0 -0.00160241 0)
(0 -0.00188658 0)
(0 -0.00213952 0)
(0 -0.0020482 0)
(0 -0.00248642 0)
(0 -0.00110341 0)
(0 -4.98597e-05 0)
(0 -0.00196615 0)
(0 -0.00165543 0)
(0 -0.0015981 0)
(0 -0.00177836 0)
(0 -0.00170009 0)
(0 -0.00210586 0)
(0 -0.00253323 0)
(0 -0.00309124 0)
(0 -0.00176019 0)
(0 -0.00227248 0)
(0 -5.22998e-05 0)
(0 -0.00121253 0)
(0 -0.00118265 0)
(0 -0.0007355 0)
(0 -0.00119626 0)
(0 -0.00198744 0)
(0 -0.00268875 0)
(0 -0.00167195 0)
(0 -0.000204109 0)
(0 -0.00189232 0)
(0 -0.00245871 0)
(0 -0.000155851 0)
(0 -0.00281966 0)
(0 -0.00267654 0)
(0 -0.00173521 0)
(0 -0.001679 0)
(0 -0.000878048 0)
(0 -0.00231797 0)
(0 -0.00278168 0)
(0 -0.0017956 0)
(0 -0.00286568 0)
(0 -0.00129977 0)
(0 -8.62756e-05 0)
(0 -0.00204372 0)
(0 -0.00172357 0)
(0 -0.00307117 0)
(0 -0.000472919 0)
(0 -0.0018789 0)
(0 -7.37352e-05 0)
(0 -0.000250548 0)
(0 -0.00111964 0)
(0 -0.0017353 0)
(0 -0.00203537 0)
(0 -0.00309851 0)
(0 -0.00169647 0)
(0 -0.000754869 0)
(0 -0.00203069 0)
(0 -0.00171073 0)
(0 -0.00102944 0)
(0 -0.000101565 0)
(0 -0.000278102 0)
(0 -0.00154833 0)
(0 -0.00141806 0)
(0 -0.00200541 0)
(0 -0.00125205 0)
(0 -0.00149869 0)
(0 -0.00216679 0)
(0 -0.000821827 0)
(0 -0.00240118 0)
(0 -0.00232172 0)
(0 -0.00200731 0)
(0 -0.00078427 0)
(0 -0.00145407 0)
(0 -0.00188345 0)
(0 -0.0012926 0)
(0 -0.00244747 0)
(0 -0.00118877 0)
(0 -0.00219353 0)
(0 -0.00289121 0)
(0 -0.00178272 0)
(0 -0.00288952 0)
(0 -0.00242465 0)
(0 -0.00234739 0)
(0 -0.00130113 0)
(0 -0.00200401 0)
(0 -0.000411653 0)
(0 -0.00194172 0)
(0 -0.000973902 0)
(0 -0.00168582 0)
(0 -0.00265568 0)
(0 -0.00181552 0)
(0 -0.000951365 0)
(0 -0.00134626 0)
(0 -0.000416975 0)
(0 -0.00196618 0)
(0 -0.000680426 0)
(0 -0.00233204 0)
(0 -0.0012391 0)
(0 -0.00235529 0)
(0 -0.00242933 0)
(0 -0.00299919 0)
(0 -0.000187732 0)
(0 -0.00245985 0)
(0 -0.0001866 0)
(0 -0.00171467 0)
(0 -0.00300827 0)
(0 -0.00233941 0)
(0 -0.00121955 0)
(0 -0.00104476 0)
(0 -0.00243528 0)
(0 -0.00184886 0)
(0 -0.00219916 0)
(0 -0.0027 0)
(0 -0.00107127 0)
(0 -0.00296867 0)
(0 -0.00249769 0)
(0 -0.00110846 0)
(0 -0.00227918 0)
(0 -0.00137488 0)
(0 -0.00148788 0)
(0 -8.70045e-05 0)
(0 -0.00258583 0)
(0 -0.000255608 0)
(0 -0.00283974 0)
(0 -0.000908087 0)
(0 -0.00158975 0)
(0 -0.00252693 0)
(0 -0.0015798 0)
(0 -0.00151187 0)
(0 -0.00015053 0)
(0 -0.00249811 0)
(0 -0.00132048 0)
(0 -0.00305261 0)
(0 -0.00155204 0)
(0 -0.00194934 0)
(0 -4.35741e-05 0)
(0 -0.000151832 0)
(0 -4.67342e-05 0)
(0 -0.00248312 0)
(0 -0.0023082 0)
(0 -0.00247629 0)
(0 -0.00281213 0)
(0 -0.000771428 0)
(0 -0.000362737 0)
(0 -0.00269441 0)
(0 -0.00176889 0)
(0 -0.000414228 0)
(0 -0.00105685 0)
(0 -0.00285468 0)
(0 -0.00265662 0)
(0 -0.0017513 0)
(0 -0.00295845 0)
(0 -0.00298301 0)
(0 -8.97131e-05 0)
(0 -8.38311e-05 0)
(0 -0.00188325 0)
(0 -0.00267716 0)
(0 -0.00197862 0)
(0 -0.000219409 0)
(0 -0.00024745 0)
(0 -0.00239345 0)
(0 -0.00237835 0)
(0 -0.00216294 0)
(0 -2.12435e-05 0)
(0 -0.00110572 0)
(0 -0.000114821 0)
(0 -0.00301354 0)
(0 -0.00179087 0)
(0 -0.00136589 0)
(0 -0.00240884 0)
(0 -0.0024532 0)
(0 -0.00256078 0)
(0 -0.00265843 0)
(0 -0.00263452 0)
(0 -0.000934427 0)
(0 -0.00225288 0)
(0 -0.00104978 0)
(0 -0.00156601 0)
(0 -0.00116154 0)
(0 -0.00279865 0)
(0 -0.00188257 0)
(0 -0.00135005 0)
(0 -0.000717259 0)
(0 -0.002659 0)
(0 -0.00166009 0)
(0 -0.002475 0)
(0 -0.0007186 0)
(0 -0.00211608 0)
(0 -0.00160037 0)
(0 -0.0005845 0)
(0 -0.0020692 0)
(0 -0.00286321 0)
(0 -0.000856717 0)
(0 -0.00180541 0)
(0 -0.00245679 0)
(0 -0.00244002 0)
(0 -0.00228459 0)
(0 -0.00171505 0)
(0 -3.36788e-05 0)
(0 -0.000509959 0)
(0 -0.0025684 0)
(0 -0.000732906 0)
(0 -0.000876101 0)
(0 -0.00277169 0)
(0 -0.00138632 0)
(0 -0.00212178 0)
(0 -0.00159547 0)
(0 -0.00224505 0)
(0 -3.05468e-05 0)
(0 -0.00093623 0)
(0 -0.00305724 0)
(0 -0.00150249 0)
(0 -0.000505018 0)
(0 -8.46072e-05 0)
(0 -0.00246855 0)
(0 -0.00158284 0)
(0 -0.00308161 0)
(0 -0.00184071 0)
(0 -0.00221516 0)
(0 -0.00219375 0)
(0 -0.000214535 0)
(0 -0.00271635 0)
(0 -0.0029692 0)
(0 -0.00290208 0)
(0 -0.00109341 0)
(0 -0.00115012 0)
(0 -0.00266252 0)
(0 -0.00151798 0)
(0 -8.78429e-05 0)
(0 -0.00112179 0)
(0 -0.00274337 0)
(0 -0.00180057 0)
(0 -0.00183206 0)
(0 -0.00302538 0)
(0 -0.000618534 0)
(0 -0.00158294 0)
(0 -0.000209108 0)
(0 -0.00142516 0)
(0 -0.00223807 0)
(0 -0.00053398 0)
(0 -0.000685894 0)
(0 -0.00015223 0)
(0 -0.00149537 0)
(0 -0.00167469 0)
(0 -0.00131216 0)
(0 -0.00193504 0)
(0 -0.00146755 0)
(0 -0.00208421 0)
(0 -0.00206622 0)
(0 -0.0018221 0)
(0 -0.000812415 0)
(0 -0.00260626 0)
(0 -0.00231869 0)
(0 -0.000747817 0)
(0 -0.000228006 0)
(0 -0.00194172 0)
(0 -0.00151652 0)
(0 -0.0015385 0)
(0 -0.00208105 0)
(0 -0.00277111 0)
(0 -0.00155298 0)
(0 -0.00137891 0)
(0 -0.00164834 0)
(0 -0.00136473 0)
(0 -0.00249765 0)
(0 -0.00198008 0)
(0 -0.00154399 0)
(0 -0.00212483 0)
(0 -0.00196479 0)
(0 -0.00315441 0)
(0 -0.00198132 0)
(0 -0.00196928 0)
(0 -0.00127693 0)
(0 -0.000274018 0)
(0 -0.00150258 0)
(0 -0.00169302 0)
(0 -0.00267123 0)
(0 -0.0027097 0)
(0 -0.00219992 0)
(0 -0.00179934 0)
(0 -1.03502e-05 0)
(0 -0.00232793 0)
(0 -0.00178914 0)
(0 -0.000811559 0)
(0 -0.00212239 0)
(0 -0.000273413 0)
(0 -0.00144269 0)
(0 -0.000124951 0)
(0 -0.00169912 0)
(0 -0.00214124 0)
(0 -0.00136728 0)
(0 -0.00111387 0)
(0 -0.000169334 0)
(0 -0.00199751 0)
(0 -0.00148919 0)
(0 -0.00149706 0)
(0 -0.000611026 0)
(0 -9.27321e-05 0)
(0 -0.00064096 0)
(0 -0.00208691 0)
(0 -0.00196863 0)
(0 -0.000668766 0)
(0 -0.00136477 0)
(0 -0.000277883 0)
(0 -0.000181911 0)
(0 -0.0015472 0)
(0 -0.00302637 0)
(0 -0.00113544 0)
(0 -0.000767997 0)
(0 -0.000922264 0)
(0 -0.00010088 0)
(0 -0.00254643 0)
(0 -0.000531988 0)
(0 -0.00273346 0)
(0 -0.000216303 0)
(0 -4.61188e-05 0)
(0 -0.000684036 0)
(0 -0.00169688 0)
(0 -0.000898955 0)
(0 -0.00113492 0)
(0 -0.00277212 0)
(0 -0.00285133 0)
(0 -0.00251809 0)
(0 -0.00160247 0)
(0 -0.00258917 0)
(0 -0.00209907 0)
(0 -0.000716055 0)
(0 -8.31777e-05 0)
(0 -0.00301129 0)
(0 -0.00131664 0)
(0 -0.00152172 0)
(0 -0.000711201 0)
(0 -0.00158096 0)
(0 -0.0015305 0)
(0 -0.00245943 0)
(0 -0.00081719 0)
(0 -0.0030631 0)
(0 -0.00175077 0)
(0 -0.00113886 0)
(0 -0.00194886 0)
(0 -0.00175555 0)
(0 -0.00199763 0)
(0 -0.000504147 0)
(0 -0.00278673 0)
(0 -0.00236977 0)
(0 -0.0017423 0)
(0 -0.00109914 0)
(0 -0.0020348 0)
(0 -0.00263809 0)
(0 -0.000929974 0)
(0 -0.000605997 0)
(0 -0.00180465 0)
(0 -0.0015683 0)
(0 -0.00211292 0)
(0 -0.00274184 0)
(0 -0.00153467 0)
(0 -0.00284536 0)
(0 -0.0014579 0)
(0 -0.00227309 0)
(0 -0.00256674 0)
(0 -0.00303546 0)
(0 -0.00120399 0)
(0 -0.000889713 0)
(0 -0.00015365 0)
(0 -0.00240522 0)
(0 -0.000668218 0)
(0 -0.00252418 0)
(0 -0.000665064 0)
(0 -0.00257529 0)
(0 -0.00127159 0)
(0 -0.00189372 0)
(0 -0.00101246 0)
(0 -0.00171329 0)
(0 -0.00106356 0)
(0 -0.00314265 0)
(0 -0.00176721 0)
(0 -0.00307947 0)
(0 -0.00255084 0)
(0 -0.000697379 0)
(0 -0.000684677 0)
(0 -9.59769e-05 0)
(0 -0.00180858 0)
(0 -0.00223564 0)
(0 -0.00277247 0)
(0 -0.000508147 0)
(0 -0.0014766 0)
(0 -0.00164419 0)
(0 -0.00178297 0)
(0 -0.00177764 0)
(0 -0.0022659 0)
(0 -0.000612373 0)
(0 -0.000336164 0)
(0 -0.00147115 0)
(0 -0.00119639 0)
(0 -0.0023631 0)
(0 -0.00232195 0)
(0 -0.000576606 0)
(0 -0.00168781 0)
(0 -0.000788278 0)
(0 -0.00279336 0)
(0 -0.00210073 0)
(0 -0.000170376 0)
(0 -0.00253216 0)
(0 -0.0016283 0)
(0 -0.000735832 0)
(0 -0.00148412 0)
(0 -0.00264986 0)
(0 -0.0030682 0)
(0 -0.00284849 0)
(0 -0.00228708 0)
(0 -0.000210176 0)
(0 -0.00191826 0)
(0 -0.00287313 0)
(0 -0.00134614 0)
(0 -0.00133961 0)
(0 -0.00155189 0)
(0 -0.000608917 0)
(0 -0.00303835 0)
(0 -0.000890307 0)
(0 -0.00307416 0)
(0 -0.00127732 0)
(0 -0.00256805 0)
(0 -0.00171813 0)
(0 -0.00148097 0)
(0 -0.00190916 0)
(0 -0.00169061 0)
(0 -0.001466 0)
(0 -0.00152149 0)
(0 -0.00153471 0)
(0 -0.000637347 0)
(0 -0.000738356 0)
(0 -0.00261254 0)
(0 -0.00151148 0)
(0 -0.00313799 0)
(0 -0.00187657 0)
(0 -0.00308308 0)
(0 -0.00158552 0)
(0 -0.00168571 0)
(0 -0.00217161 0)
(0 -0.00249817 0)
(0 -0.00197193 0)
(0 -0.000598106 0)
(0 -0.0014124 0)
(0 -0.00269281 0)
(0 -0.00304448 0)
(0 -0.00212898 0)
(0 -0.00151582 0)
(0 -0.00200699 0)
(0 -0.00198012 0)
(0 -0.00174513 0)
(0 -0.000530335 0)
(0 -0.000100405 0)
(0 -0.00072397 0)
(0 -0.0018471 0)
(0 -0.00106759 0)
(0 -0.00230581 0)
(0 -0.000250975 0)
(0 -0.000151331 0)
(0 -0.000611271 0)
(0 -0.00110971 0)
(0 -0.000974592 0)
(0 -0.00186025 0)
(0 -0.00020272 0)
(0 -1.72465e-05 0)
(0 -0.000635418 0)
(0 -0.00151715 0)
(0 -0.00013934 0)
(0 -0.00139394 0)
(0 -0.00196667 0)
(0 -0.00154647 0)
(0 -0.00147628 0)
(0 -0.0010531 0)
(0 -0.00246129 0)
(0 -0.0015553 0)
(0 -0.00150716 0)
(0 -0.000218899 0)
(0 -0.00305716 0)
(0 -0.000122961 0)
(0 -0.00268531 0)
(0 -0.00208325 0)
(0 -0.00225258 0)
(0 -0.000695621 0)
(0 -0.00134289 0)
(0 -0.00150903 0)
(0 -0.00309713 0)
(0 -0.000894263 0)
(0 -0.00306175 0)
(0 -0.00225281 0)
(0 -0.00149569 0)
(0 -0.000231069 0)
(0 -0.000678742 0)
(0 -0.00179377 0)
(0 -0.00183107 0)
(0 -0.00155362 0)
(0 -0.00117002 0)
(0 -0.00191649 0)
(0 -0.00143278 0)
(0 -0.0027306 0)
(0 -0.00241593 0)
(0 -0.000172907 0)
(0 -0.00185651 0)
(0 -0.00184668 0)
(0 -0.00146576 0)
(0 -0.00197206 0)
(0 -0.00010333 0)
(0 -0.00209199 0)
(0 -0.000709431 0)
(0 -0.00275216 0)
(0 -0.000933875 0)
(0 -8.92476e-05 0)
(0 -0.000590435 0)
(0 -0.00149602 0)
(0 -0.00148475 0)
(0 -0.00116565 0)
(0 -0.00241767 0)
(0 -0.00276 0)
(0 -0.000697882 0)
(0 -0.000661759 0)
(0 -0.00161216 0)
(0 -0.00216108 0)
(0 -0.000873936 0)
(0 -0.000204911 0)
(0 -0.00136356 0)
(0 -0.00171803 0)
(0 -0.000659022 0)
(0 -0.00282656 0)
(0 -0.000632909 0)
(0 -0.00191315 0)
(0 -0.0014215 0)
(0 -0.00138817 0)
(0 -0.00233371 0)
(0 -0.00311595 0)
(0 -0.00110906 0)
(0 -0.00254782 0)
(0 -0.00258037 0)
(0 -0.000552393 0)
(0 -0.000203349 0)
(0 -0.00295398 0)
(0 -0.00210471 0)
(0 -0.00178361 0)
(0 -0.00182855 0)
(0 -0.000139008 0)
(0 -0.00204044 0)
(0 -0.0006299 0)
(0 -0.00232191 0)
(0 -0.0028432 0)
(0 -0.00062227 0)
(0 -0.00187676 0)
(0 -0.00209855 0)
(0 -0.000898909 0)
(0 -0.00249 0)
(0 -0.0025264 0)
(0 -0.00124438 0)
(0 -0.00064778 0)
(0 -0.000651242 0)
(0 -0.00120695 0)
(0 -0.00217011 0)
(0 -0.00140418 0)
(0 -0.0022922 0)
(0 -0.000931419 0)
(0 -0.0014373 0)
(0 -0.00233397 0)
(0 -0.00059661 0)
(0 -2.18987e-05 0)
(0 -1.9155e-05 0)
(0 -0.00103066 0)
(0 -0.0024632 0)
(0 -0.00180475 0)
(0 -0.00117172 0)
(0 -0.00260662 0)
(0 -0.00142556 0)
(0 -0.00184962 0)
(0 -0.00256963 0)
(0 -0.00224299 0)
(0 -0.0025359 0)
(0 -0.00149 0)
(0 -0.00120627 0)
(0 -0.00196014 0)
(0 -0.00206402 0)
(0 -0.00233324 0)
(0 -0.001333 0)
(0 -0.000553242 0)
(0 -0.00182329 0)
(0 -0.00275509 0)
(0 -0.00168234 0)
(0 -0.000107412 0)
(0 -0.000932868 0)
(0 -0.00125958 0)
(0 -0.00176411 0)
(0 -0.000345067 0)
(0 -0.00131055 0)
(0 -0.0015625 0)
(0 -0.00267988 0)
(0 -0.0018716 0)
(0 -0.001391 0)
(0 -0.00212751 0)
(0 -0.00142774 0)
(0 -0.00188797 0)
(0 -0.000857258 0)
(0 -0.00217072 0)
(0 -0.00109253 0)
(0 -0.00302949 0)
(0 -0.000968554 0)
(0 -0.00214977 0)
(0 -0.00154845 0)
(0 -0.00193979 0)
(0 -0.00291697 0)
(0 -0.00191217 0)
(0 -0.000671458 0)
(0 -0.00181889 0)
(0 -0.00152334 0)
(0 -0.002506 0)
(0 -0.000224972 0)
(0 -0.00304974 0)
(0 -0.00148773 0)
(0 -0.0012358 0)
(0 -0.00307548 0)
(0 -0.0015126 0)
(0 -0.00280692 0)
(0 -0.00183717 0)
(0 -0.0014541 0)
(0 -0.00147807 0)
(0 -0.00137608 0)
(0 -0.00075568 0)
(0 -0.00165517 0)
(0 -0.00237215 0)
(0 -0.00258804 0)
(0 -0.000784536 0)
(0 -0.0016926 0)
(0 -0.000361743 0)
(0 -0.000630985 0)
(0 -0.00310402 0)
(0 -0.00173705 0)
(0 -0.00191677 0)
(0 -0.00144601 0)
(0 -3.60559e-05 0)
(0 -0.000584254 0)
(0 -0.00159146 0)
(0 -0.00243221 0)
(0 -0.00112752 0)
(0 -0.000663907 0)
(0 -0.00313274 0)
(0 -0.00173822 0)
(0 -0.00223159 0)
(0 -0.00059863 0)
(0 -0.00205931 0)
(0 -0.00208163 0)
(0 -0.00125764 0)
(0 -0.00218406 0)
(0 -0.00202664 0)
(0 -0.00271391 0)
(0 -0.00314522 0)
(0 -0.00161054 0)
(0 -1.19577e-05 0)
(0 -0.0021109 0)
(0 -0.00306149 0)
(0 -0.00173114 0)
(0 -0.00275727 0)
(0 -0.00188887 0)
(0 -0.00179275 0)
(0 -0.000879836 0)
(0 -0.00182707 0)
(0 -0.00181429 0)
(0 -0.00202551 0)
(0 -0.00176721 0)
(0 -0.002884 0)
(0 -0.0027017 0)
(0 -0.00186687 0)
(0 -0.00283642 0)
(0 -0.00136791 0)
(0 -0.00128358 0)
(0 -0.00266138 0)
(0 -0.00201524 0)
(0 -0.00214846 0)
(0 -0.00144444 0)
(0 -0.00251674 0)
(0 -0.000227544 0)
(0 -0.00175777 0)
(0 -0.00271516 0)
(0 -0.000624321 0)
(0 -0.001123 0)
(0 -0.00140532 0)
(0 -0.000866083 0)
(0 -0.00181882 0)
(0 -0.00112397 0)
(0 -0.00309309 0)
(0 -0.00186079 0)
(0 -0.00315226 0)
(0 -0.00278881 0)
(0 -0.000509862 0)
(0 -0.00309473 0)
(0 -0.00271862 0)
(0 -0.0011405 0)
(0 -0.00259257 0)
(0 -0.00113926 0)
(0 -0.00304832 0)
(0 -0.00183531 0)
(0 -0.00119196 0)
(0 -0.0021187 0)
(0 -0.00296789 0)
(0 -0.00118917 0)
(0 -0.00173465 0)
(0 -0.00174095 0)
(0 -0.00162625 0)
(0 -0.000667304 0)
(0 -0.00203438 0)
(0 -0.00257346 0)
(0 -0.000241605 0)
(0 -0.00272215 0)
(0 -0.00154852 0)
(0 -0.00208372 0)
(0 -0.000177343 0)
(0 -0.00150352 0)
(0 -0.000740692 0)
(0 -0.00281523 0)
(0 -0.00216167 0)
(0 -0.000199948 0)
(0 -0.000903998 0)
(0 -0.00241829 0)
(0 -0.003125 0)
(0 -0.00145147 0)
(0 -0.00094359 0)
(0 -0.00173165 0)
(0 -0.00143714 0)
(0 -0.000784779 0)
(0 -0.00216945 0)
(0 -0.000364141 0)
(0 -0.00216994 0)
(0 -0.00171419 0)
(0 -0.00083929 0)
(0 -0.00131482 0)
(0 -0.000477656 0)
(0 -0.000732553 0)
(0 -0.00158807 0)
(0 -5.40732e-05 0)
(0 -0.00241849 0)
(0 -0.0013223 0)
(0 -0.00218366 0)
(0 -0.00184606 0)
(0 -0.00218983 0)
(0 -0.00172138 0)
(0 -0.00221793 0)
(0 -0.00283402 0)
(0 -0.00265687 0)
(0 -0.0026517 0)
(0 -0.00222845 0)
(0 -0.00155382 0)
(0 -0.00047721 0)
(0 -0.00160844 0)
(0 -0.000482783 0)
(0 -0.000475133 0)
(0 -0.000803839 0)
(0 -0.00192817 0)
(0 -0.0027481 0)
(0 -0.00187945 0)
(0 -0.000469895 0)
(0 -0.00179916 0)
(0 -0.00290017 0)
(0 -5.01754e-05 0)
(0 -0.00158146 0)
(0 -0.00080412 0)
(0 -0.0024043 0)
(0 -0.00307006 0)
(0 -0.000488897 0)
(0 -0.00161438 0)
(0 -0.00181618 0)
(0 -0.00265935 0)
(0 -0.00163456 0)
(0 -0.00251411 0)
(0 -0.00190579 0)
(0 -0.00162014 0)
(0 -0.0015564 0)
(0 -0.00153965 0)
(0 -0.000625144 0)
(0 -2.6993e-05 0)
(0 -0.00124319 0)
(0 -0.00291393 0)
(0 -0.000492882 0)
(0 -0.00138581 0)
(0 -0.000492356 0)
(0 -0.00120634 0)
(0 -0.00147605 0)
(0 -0.00208015 0)
(0 -0.000393493 0)
(0 -0.00114328 0)
(0 -0.00295587 0)
(0 -0.00141896 0)
(0 -0.0011019 0)
(0 -0.00150124 0)
(0 -0.00147646 0)
(0 -0.00134457 0)
(0 -0.0027155 0)
(0 -0.000197104 0)
(0 -0.000250737 0)
(0 -0.0014323 0)
(0 -0.00257452 0)
(0 -0.001685 0)
(0 -0.000737137 0)
(0 -0.00220553 0)
(0 -0.00314791 0)
(0 -9.16478e-05 0)
(0 -0.00138491 0)
(0 -0.00169224 0)
(0 -0.00181007 0)
(0 -0.00175497 0)
(0 -0.00249588 0)
(0 -0.00306457 0)
(0 -0.00148682 0)
(0 -0.00256474 0)
(0 -0.000899549 0)
(0 -0.00138179 0)
(0 -0.00137417 0)
(0 -0.000589511 0)
(0 -0.00108886 0)
(0 -0.000533256 0)
(0 -0.000482957 0)
(0 -0.000105343 0)
(0 -0.00172308 0)
(0 -0.000467491 0)
(0 -0.00137913 0)
(0 -0.00137053 0)
(0 -0.00110099 0)
(0 -0.0014621 0)
(0 -0.000458028 0)
(0 -0.000988949 0)
(0 -0.00148548 0)
(0 -0.000473844 0)
(0 -0.00291859 0)
(0 -0.0022136 0)
(0 -0.000185066 0)
(0 -0.00119636 0)
(0 -0.00127754 0)
(0 -0.000552225 0)
(0 -0.000672191 0)
(0 -0.000951943 0)
(0 -0.00148643 0)
(0 -0.00064828 0)
(0 -0.00163201 0)
(0 -0.00118477 0)
(0 -0.00171977 0)
(0 -0.0017355 0)
(0 -0.00299985 0)
(0 -0.00106418 0)
(0 -0.00258349 0)
(0 -0.00113081 0)
(0 -0.000609749 0)
(0 -0.000690487 0)
(0 -0.00113411 0)
(0 -0.000490526 0)
(0 -0.00175617 0)
(0 -0.000735689 0)
(0 -0.00305807 0)
(0 -0.00254592 0)
(0 -0.00201833 0)
(0 -0.00213016 0)
(0 -0.00127031 0)
(0 -0.000892591 0)
(0 -0.000262099 0)
(0 -0.000109935 0)
(0 -0.00218591 0)
(0 -0.00213899 0)
(0 -0.000116311 0)
(0 -0.00247745 0)
(0 -0.00228987 0)
(0 -0.00156641 0)
(0 -0.000614354 0)
(0 -0.00213132 0)
(0 -0.00232644 0)
(0 -0.000497216 0)
(0 -0.00194893 0)
(0 -0.0031512 0)
(0 -0.00262236 0)
(0 -0.000485193 0)
(0 -0.000551898 0)
(0 -0.000528609 0)
(0 -0.00299268 0)
(0 -0.00134398 0)
(0 -0.00200347 0)
(0 -0.000579231 0)
(0 -0.00156402 0)
(0 -0.00144359 0)
(0 -0.00184895 0)
(0 -0.00131407 0)
(0 -0.00158625 0)
(0 -0.0016896 0)
(0 -0.00124981 0)
(0 -0.00124001 0)
(0 -0.00134907 0)
(0 -0.000700629 0)
(0 -0.00169756 0)
(0 -3.24938e-05 0)
(0 -0.00154038 0)
(0 -0.000445381 0)
(0 -0.00221424 0)
(0 -0.00169902 0)
(0 -0.00209182 0)
(0 -0.00114528 0)
(0 -0.00258748 0)
(0 -5.43515e-05 0)
(0 -0.00153136 0)
(0 -0.00178408 0)
(0 -0.00110652 0)
(0 -0.00165524 0)
(0 -0.00103846 0)
(0 -0.00309798 0)
(0 -0.00144316 0)
(0 -0.00140603 0)
(0 -0.00256569 0)
(0 -0.00106976 0)
(0 -0.000471174 0)
(0 -0.00111114 0)
(0 -0.00193933 0)
(0 -0.00117121 0)
(0 -0.00165506 0)
(0 -0.000728705 0)
(0 -0.00223345 0)
(0 -0.00136541 0)
(0 -0.0024902 0)
(0 -0.000206116 0)
(0 -0.00146059 0)
(0 -0.0011327 0)
(0 -0.0020611 0)
(0 -0.0030203 0)
(0 -0.00067431 0)
(0 -0.00278124 0)
(0 -0.000589472 0)
(0 -0.00307128 0)
(0 -0.00164852 0)
(0 -0.00148439 0)
(0 -0.00262172 0)
(0 -0.00129634 0)
(0 -0.00252525 0)
(0 -0.000613582 0)
(0 -0.000783243 0)
(0 -0.000530689 0)
(0 -0.00147876 0)
(0 -0.00154689 0)
(0 -0.000761868 0)
(0 -0.000621865 0)
(0 -0.00116098 0)
(0 -0.000564238 0)
(0 -0.0015998 0)
(0 -0.000209347 0)
(0 -0.00151369 0)
(0 -0.00214111 0)
(0 -0.00097406 0)
(0 -0.00268962 0)
(0 -0.000743724 0)
(0 -0.00100957 0)
(0 -0.000476849 0)
(0 -0.000510167 0)
(0 -0.00293558 0)
(0 -0.00164898 0)
(0 -0.00127645 0)
(0 -0.00159679 0)
(0 -0.000651076 0)
(0 -0.00187746 0)
(0 -0.001637 0)
(0 -0.00305341 0)
(0 -0.00165165 0)
(0 -0.00241185 0)
(0 -0.00277136 0)
(0 -0.000103955 0)
(0 -0.00147424 0)
(0 -0.00161833 0)
(0 -0.00298516 0)
(0 -0.00150035 0)
(0 -0.00279798 0)
(0 -0.0012154 0)
(0 -0.00176365 0)
(0 -0.00163774 0)
(0 -0.00275978 0)
(0 -0.00210899 0)
(0 -0.000707615 0)
(0 -0.00266642 0)
(0 -0.000102879 0)
(0 -0.00187822 0)
(0 -0.00113828 0)
(0 -0.00129452 0)
(0 -0.00193273 0)
(0 -0.00131248 0)
(0 -0.00150297 0)
(0 -0.00132318 0)
(0 -0.00105249 0)
(0 -0.00128217 0)
(0 -0.000113248 0)
(0 -0.00154568 0)
(0 -0.0026753 0)
(0 -0.0016844 0)
(0 -0.00155487 0)
(0 -0.000967447 0)
(0 -0.001588 0)
(0 -0.00105344 0)
(0 -0.00128095 0)
(0 -0.00110378 0)
(0 -0.00154971 0)
(0 -0.00159555 0)
(0 -0.000861535 0)
(0 -0.00171445 0)
(0 -0.00151923 0)
(0 -0.00125384 0)
(0 -0.000719049 0)
(0 -0.000646293 0)
(0 -0.00117258 0)
(0 -0.000107748 0)
(0 -0.00148307 0)
(0 -0.00145589 0)
(0 -0.00167154 0)
(0 -0.00288597 0)
(0 -8.88618e-05 0)
(0 -0.00150412 0)
(0 -0.00178141 0)
(0 -0.00249444 0)
(0 -0.00165035 0)
(0 -0.00169683 0)
(0 -0.00144883 0)
(0 -0.000608153 0)
(0 -0.00110063 0)
(0 -0.00106448 0)
(0 -0.00268718 0)
(0 -0.00150276 0)
(0 -0.00134064 0)
(0 -0.00123278 0)
(0 -0.00113081 0)
(0 -0.00205531 0)
(0 -0.000475878 0)
(0 -0.00127086 0)
(0 -0.00165194 0)
(0 -0.00166279 0)
(0 -0.00141099 0)
(0 -0.00147334 0)
(0 -0.0021909 0)
(0 -0.00187214 0)
(0 -0.00177727 0)
(0 -0.00166867 0)
(0 -0.00206072 0)
(0 -5.12114e-05 0)
(0 -0.000815758 0)
(0 -0.000526577 0)
(0 -0.000924704 0)
(0 -0.000114831 0)
(0 -0.00133215 0)
(0 -0.00112602 0)
(0 -0.00131265 0)
(0 -0.00151029 0)
(0 -0.00144716 0)
(0 -0.00141622 0)
(0 -0.00163342 0)
(0 -0.00183259 0)
(0 -0.00165178 0)
(0 -0.00212119 0)
(0 -0.00120777 0)
(0 -0.00113624 0)
(0 -0.00166614 0)
(0 -0.000158491 0)
(0 -0.0021653 0)
(0 -5.30902e-05 0)
(0 -0.00210084 0)
(0 -0.00185027 0)
(0 -0.00159845 0)
(0 -0.000641015 0)
(0 -0.0013105 0)
(0 -0.00187245 0)
(0 -0.00184149 0)
(0 -0.000911376 0)
(0 -0.00157666 0)
(0 -0.000682252 0)
(0 -0.00150225 0)
(0 -0.00175321 0)
(0 -3.78011e-05 0)
(0 -0.000726297 0)
(0 -0.00152382 0)
(0 -0.00107924 0)
(0 -0.000773061 0)
(0 -0.0019871 0)
(0 -0.00159484 0)
(0 -0.00164406 0)
(0 -0.00145054 0)
(0 -0.00114645 0)
(0 -0.000205939 0)
(0 -0.00133794 0)
(0 -0.00298683 0)
(0 -0.00162497 0)
(0 -0.00185952 0)
(0 -0.0012906 0)
(0 -0.00152162 0)
(0 -0.000901339 0)
(0 -0.0019941 0)
(0 -0.00130694 0)
(0 -0.00195829 0)
(0 -0.0013269 0)
(0 -0.00111098 0)
(0 -0.00137709 0)
(0 -0.000105792 0)
(0 -0.000935186 0)
(0 -0.00171726 0)
(0 -0.00316049 0)
(0 -0.00275959 0)
(0 -0.00115313 0)
(0 -0.00198264 0)
(0 -0.00126138 0)
(0 -0.00190669 0)
(0 -0.000262415 0)
(0 -0.00147188 0)
(0 -0.00171854 0)
(0 -0.0018394 0)
(0 -0.000217409 0)
(0 -0.00184389 0)
(0 -0.00181724 0)
(0 -0.000780434 0)
(0 -0.0018619 0)
(0 -0.00177043 0)
(0 -0.00205466 0)
(0 -0.000603624 0)
(0 -0.00307328 0)
(0 -0.000888149 0)
(0 -0.00105346 0)
(0 -0.00168897 0)
(0 -0.00148411 0)
(0 -0.00203131 0)
(0 -0.00223674 0)
(0 -0.00137618 0)
(0 -0.00115265 0)
(0 -0.00304292 0)
(0 -0.00179498 0)
(0 -0.000976385 0)
(0 -0.00201311 0)
(0 -0.00191426 0)
(0 -0.00193694 0)
(0 -0.0012025 0)
(0 -0.00184419 0)
(0 -0.00145198 0)
(0 -0.00157337 0)
(0 -0.00138385 0)
(0 -0.00276173 0)
(0 -0.00256646 0)
(0 -0.00136893 0)
(0 -0.00117648 0)
(0 -0.000642248 0)
(0 -0.00155107 0)
(0 -0.00137367 0)
(0 -0.00166304 0)
(0 -0.00180145 0)
(0 -0.0012993 0)
(0 -0.00216849 0)
(0 -0.00304947 0)
(0 -0.00189276 0)
(0 -0.00190405 0)
(0 -0.00168111 0)
(0 -0.000106984 0)
(0 -0.00140848 0)
(0 -0.00161223 0)
(0 -0.00134737 0)
(0 -0.00116719 0)
(0 -0.000438539 0)
(0 -0.00188772 0)
(0 -0.00268985 0)
(0 -0.00168596 0)
(0 -0.00157245 0)
(0 -0.00171697 0)
(0 -0.00175084 0)
(0 -0.000646287 0)
(0 -0.00115309 0)
(0 -0.00143113 0)
(0 -0.00176041 0)
(0 -0.00303027 0)
(0 -0.00132475 0)
(0 -0.00166428 0)
(0 -0.00227621 0)
(0 -0.00151882 0)
(0 -0.00122425 0)
(0 -0.00202339 0)
(0 -0.00125116 0)
(0 -0.00177441 0)
(0 -0.00192058 0)
(0 -0.00170687 0)
(0 -0.0021907 0)
(0 -0.00258508 0)
(0 -0.00176868 0)
(0 -0.00122552 0)
(0 -0.00161475 0)
(0 -0.000349608 0)
(0 -0.00131722 0)
(0 -0.00200622 0)
(0 -0.0006111 0)
(0 -0.00219084 0)
(0 -0.00157255 0)
(0 -0.00138547 0)
(0 -0.00210163 0)
(0 -0.00209773 0)
(0 -0.00149941 0)
(0 -0.00201816 0)
(0 -0.00229905 0)
(0 -0.00183321 0)
(0 -0.00278341 0)
(0 -0.00158741 0)
(0 -0.00164983 0)
(0 -0.00129281 0)
(0 -0.00240502 0)
(0 -0.00160498 0)
(0 -0.00215033 0)
(0 -0.00179686 0)
(0 -0.00208181 0)
(0 -0.00298495 0)
(0 -0.00166305 0)
(0 -0.000646501 0)
(0 -0.00113691 0)
(0 -0.00226164 0)
(0 -0.000741129 0)
(0 -0.00186096 0)
(0 -0.00248355 0)
(0 -0.00238511 0)
(0 -0.000578145 0)
(0 -0.00190714 0)
(0 -0.00108091 0)
(0 -0.00299901 0)
(0 -5.05843e-05 0)
(0 -0.00184038 0)
(0 -0.00219006 0)
(0 -0.00207073 0)
(0 -0.000459259 0)
(0 -0.00284052 0)
(0 -0.00168848 0)
(0 -0.000705184 0)
(0 -0.00165425 0)
(0 -0.00139301 0)
(0 -0.00183626 0)
(0 -0.000481742 0)
(0 -0.00188782 0)
(0 -0.000871341 0)
(0 -0.00166376 0)
(0 -0.001191 0)
(0 -0.00145205 0)
(0 -0.00214602 0)
(0 -0.00138644 0)
(0 -0.00301659 0)
(0 -0.00311792 0)
(0 -0.00294559 0)
(0 -0.00188246 0)
(0 -0.0010393 0)
(0 -0.00132679 0)
(0 -0.001557 0)
(0 -0.00166069 0)
(0 -0.000550695 0)
(0 -0.00101631 0)
(0 -0.00248074 0)
(0 -0.000929269 0)
(0 -0.00305548 0)
(0 -0.00174818 0)
(0 -0.00308974 0)
(0 -0.00278805 0)
(0 -0.0020452 0)
(0 -0.00119561 0)
(0 -0.000883233 0)
(0 -0.00292465 0)
(0 -0.00315989 0)
(0 -0.00239671 0)
(0 -0.00151511 0)
(0 -0.00278285 0)
(0 -0.000606328 0)
(0 -0.000945509 0)
(0 -0.00309538 0)
(0 -0.0016522 0)
(0 -9.99105e-05 0)
(0 -7.75553e-05 0)
(0 -0.000608761 0)
(0 -0.00163888 0)
(0 -0.00237426 0)
(0 -0.00271936 0)
(0 -0.00229503 0)
(0 -0.0014062 0)