/*--------------------------------*- C++ -*----------------------------------*\
| =========                 |                                                 |
| \\      /  F ield         | OpenFOAM: The Open Source CFD Toolbox           |
|  \\    /   O peration     | Version:  v2012                                 |
|   \\  /    A nd           | Website:  www.openfoam.com                      |
|    \\/     M anipulation  |                                                 |
\*---------------------------------------------------------------------------*/
FoamFile
{
    version     2.0;
    format      ascii;
    class       volVectorField;
    location    "1000";
    object      ddtCorrDdt0(U);
}
// * * * * * * * * * * * * * * * * * * * * * * * * * * * * * * * * * * * * * //

dimensions      [0 1 -2 0 0 0 0];


internalField   nonuniform List<vector> 
9793
(
(-0.0702926 -0.0438489 -1.31817e-18)
(0.00493273 0.106571 7.93241e-19)
(-0.0800258 -0.0361608 6.26906e-18)
(7.98363e-05 -3.47715e-05 3.78256e-19)
(-0.010072 -0.397516 2.09612e-18)
(0.00429605 -0.00110274 3.09859e-20)
(5.3303e-05 -1.12936e-05 -5.48496e-19)
(0.000147058 -7.42011e-05 2.46945e-19)
(0.000492548 -0.000649538 1.11016e-18)
(-0.000456814 -0.350103 -2.07383e-18)
(0.0289453 -0.0197926 3.26023e-18)
(0.0603943 -0.0445128 4.21503e-19)
(7.61231e-05 -2.90363e-05 -4.53051e-19)
(-0.000661711 -0.00122826 -2.02929e-19)
(2.728e-05 4.3434e-07 -3.69978e-19)
(-0.000872884 -0.000835932 -1.00008e-19)
(0.00224788 -0.000869997 2.15201e-18)
(0.00275452 -0.00111501 -9.90599e-20)
(-0.0799485 0.00772908 7.30707e-19)
(-0.000922377 -0.00106841 2.20853e-19)
(0.0707384 0.030446 1.12629e-19)
(-0.00483972 0.00089285 4.71219e-20)
(-0.0412037 0.0570743 -1.94611e-19)
(0.000201744 0.000173396 -2.50675e-20)
(-0.00206058 0.00202803 1.44633e-18)
(7.59676e-05 -2.63384e-05 1.66686e-19)
(-0.00143441 -0.000324722 -4.01427e-19)
(0.0010686 0.00046574 -9.39723e-19)
(0.00360795 -0.0310968 -4.84983e-19)
(0.000486175 -0.000632802 -1.02656e-18)
(0.01504 -0.0150387 1.6171e-18)
(-0.033082 0.0524406 4.66862e-19)
(-0.00319137 0.162061 2.26557e-18)
(1.82741e-05 3.89261e-06 6.85336e-20)
(-0.000176988 -0.0361471 -3.5516e-19)
(0.118315 0.0370716 -8.91599e-19)
(5.77312e-05 -7.37271e-06 4.49428e-19)
(-0.00465415 0.00151151 -1.0797e-19)
(0.000279503 -9.9297e-05 -8.10241e-19)
(3.37905e-05 -1.39053e-05 3.99641e-19)
(0.0127398 -0.0155751 -1.37191e-18)
(4.37338e-05 4.73921e-07 1.52614e-19)
(7.4792e-05 -1.43319e-05 -5.16237e-19)
(4.21457e-05 -1.30955e-05 -7.73621e-19)
(8.15172e-05 -9.53273e-06 -1.4158e-19)
(7.00157e-05 -1.69656e-05 1.14159e-19)
(0.00417138 -0.0334499 -1.09947e-19)
(0.0294961 -0.0141505 7.92338e-19)
(-0.0310084 -0.0464164 -4.73003e-20)
(7.70145e-05 -4.28117e-05 -7.79635e-19)
(-0.000288623 -0.0387497 5.95187e-19)
(0.0280132 -0.0276553 2.15836e-18)
(0.00465272 0.00108722 -3.89653e-19)
(-0.000307177 -0.000704201 2.56549e-19)
(0.0347226 -0.0835842 7.20041e-19)
(0.0903208 -0.0296635 -7.1275e-19)
(0.00025158 -0.000166586 3.81491e-22)
(0.0527163 -0.00915426 5.2163e-18)
(-0.0879169 -0.0387298 -2.15747e-18)
(0.000246094 -0.000111487 2.77136e-18)
(1.51086e-05 -9.42283e-06 -3.31761e-19)
(0.00350105 0.00306558 1.52482e-20)
(-0.0779763 -0.0842044 7.46555e-19)
(0.00013725 2.67571e-06 -8.63552e-20)
(0.129154 -0.185864 -4.3832e-18)
(-0.00957502 0.105588 2.55058e-18)
(-0.0793105 -0.0585144 -5.03307e-19)
(-0.0613073 -0.0475635 -1.11086e-19)
(0.051979 -0.0453234 1.90051e-19)
(0.0263549 -0.0209779 -2.92655e-18)
(0.0292018 -0.0898485 4.28684e-19)
(1.24784e-05 4.74705e-06 5.74218e-21)
(0.000259281 -0.000226584 6.29689e-19)
(-0.00353254 0.0517657 4.6046e-19)
(-0.00331761 -0.0434067 -9.04494e-20)
(-0.0995907 -0.00751253 2.85184e-18)
(0.00023911 -0.000207512 3.8307e-20)
(0.0010364 0.00154998 1.36507e-20)
(-0.00162321 0.0020494 6.23493e-19)
(0.000876687 0.00120135 8.61117e-20)
(-0.0261897 0.103132 -7.94995e-19)
(-0.0023089 0.000585583 -2.65134e-19)
(0.00286377 0.11414 1.13031e-18)
(0.0178078 0.00790072 -6.99999e-19)
(0.0112588 -0.0122764 -3.33172e-19)
(0.0286041 -0.00224207 -1.02262e-18)
(0.00116364 0.00142484 1.44869e-18)
(0.000214874 -0.000234737 1.16397e-19)
(0.00273635 0.00215365 -4.08651e-19)
(-0.00260859 -0.000886233 -5.7847e-19)
(-0.000981868 0.115683 -9.87113e-19)
(0.151756 -0.0449468 3.73278e-19)
(-0.000339382 0.000433974 -2.56552e-19)
(-0.0212389 0.0574514 -4.48984e-19)
(0.00290513 0.00280919 2.88284e-19)
(0.0162476 0.0116984 6.39231e-19)
(0.0929193 -0.0212755 2.26685e-19)
(0.00183521 0.117454 -7.38924e-19)
(-0.0002922 0.000338075 3.16805e-19)
(0.00017049 0.000323714 -2.90593e-19)
(0.000205628 0.000283072 -6.73623e-19)
(-0.000702993 -0.00209798 -2.04742e-19)
(-3.6322e-05 -0.000328806 -5.72246e-20)
(-1.32265e-05 -0.000285387 -7.41354e-19)
(0.000734 0.00141379 -5.32616e-20)
(0.00915495 -0.012294 6.44293e-19)
(0.00225969 0.0020792 6.16487e-20)
(4.58298e-05 2.1655e-06 -1.15774e-19)
(0.00392893 0.00107315 2.58076e-19)
(0.0391528 -0.0249661 3.07306e-19)
(9.9116e-06 3.71057e-06 3.15851e-21)
(0.0683331 -0.00469509 1.09244e-19)
(0.000221542 -0.000113438 6.24922e-20)
(0.134185 -0.0654841 -3.28673e-18)
(0.0261448 -0.0307001 -3.13903e-18)
(0.000260308 -0.000197808 9.93625e-20)
(0.0357917 0.115143 4.03744e-18)
(-0.00783228 -0.0427112 -3.16666e-19)
(-0.0028364 0.000924719 5.30465e-19)
(-0.0137729 0.0511161 -2.57746e-19)
(0.0422537 -0.0233984 -1.04961e-18)
(2.6193e-05 1.62316e-06 6.92549e-20)
(4.08265e-05 -4.62276e-05 1.63424e-20)
(0.00485164 -0.00164365 -1.25465e-18)
(-0.000672452 -0.00158479 2.04632e-18)
(0.0699685 0.0210621 -6.70738e-20)
(0.0193152 -0.00296371 -1.1168e-17)
(0.0289935 0.00264903 3.39715e-19)
(-0.0018705 0.00268211 5.6361e-19)
(0.000205958 6.97361e-06 -3.21096e-19)
(7.52202e-06 4.84408e-07 -9.50849e-20)
(0.000234745 -0.000233384 -1.8085e-19)
(0.000214949 6.12691e-06 -1.56273e-19)
(0.00121629 -0.00203533 -1.99398e-18)
(0.000428009 -0.000544514 3.5698e-19)
(0.000184714 -0.000259602 -2.40843e-19)
(0.000137264 5.09076e-06 -1.80282e-19)
(3.58845e-05 -1.30722e-05 2.23445e-20)
(0.000206669 -0.000107748 -4.75326e-20)
(6.97284e-06 3.30996e-05 -1.42596e-18)
(4.35626e-05 -2.66721e-05 -2.15115e-20)
(-0.00120889 0.00224316 -1.82517e-18)
(7.27823e-05 9.42416e-06 6.47799e-19)
(0.000443413 0.000143425 9.46795e-19)
(-0.000636278 -0.00151334 -2.61284e-20)
(-0.000894726 -0.00222772 -4.359e-19)
(0.0209922 0.0355227 -1.2379e-19)
(0.000429562 0.000230594 4.42213e-19)
(-0.000320939 7.76732e-05 4.10102e-19)
(0.130911 -0.055299 5.38021e-19)
(-0.0459484 0.108074 5.82696e-19)
(5.81086e-06 -1.72306e-06 9.05361e-20)
(-0.0894126 0.0571883 -1.69311e-18)
(-0.0423713 -0.338533 2.0116e-18)
(-0.000267022 4.17465e-05 -8.84794e-20)
(1.32233e-05 -1.42933e-06 3.7643e-20)
(3.02261e-05 9.58581e-06 3.47942e-19)
(-0.0008423 0.0020717 1.61325e-18)
(0.00031841 0.000242806 -1.23843e-18)
(7.74779e-05 9.07334e-06 -1.84569e-19)
(0.000159033 -9.24098e-05 1.39035e-18)
(0.00113888 0.00021974 7.29888e-19)
(-0.000816507 0.00011655 -9.60635e-19)
(-0.124503 0.0774194 2.73054e-18)
(0.00934676 0.0548636 2.53889e-19)
(0.0873336 0.0367793 -1.9999e-18)
(0.0322735 -0.00676443 5.41111e-19)
(-0.00741465 -0.00824274 -2.91267e-19)
(-0.00122581 -0.000134385 -1.44659e-19)
(-0.000335643 -0.00125602 -2.068e-19)
(-0.00029895 -0.000723836 3.97701e-19)
(-0.00663289 -0.245234 -2.21e-18)
(0.0119475 0.0611734 1.11669e-19)
(0.0124329 -0.228708 -9.38328e-18)
(-0.000339535 -0.00151066 8.32775e-20)
(-0.104717 0.0308379 2.36758e-18)
(0.000209841 -0.000260804 -2.50796e-19)
(7.79797e-05 0.000163134 5.48413e-20)
(0.000264356 -6.03801e-06 -4.21011e-19)
(0.00400341 -0.0118963 4.28948e-18)
(0.160434 0.00603018 1.5347e-19)
(0.00180722 -0.00220487 -9.44941e-19)
(0.000287494 0.000309692 -1.03358e-18)
(-0.00161402 0.00191536 -8.58905e-19)
(-0.0650032 0.0198492 2.82153e-18)
(0.000231584 -0.000224774 -5.30399e-19)
(0.05668 -0.0101618 -1.41701e-18)
(0.000265906 -3.76113e-05 2.62229e-21)
(2.60792e-05 4.27937e-05 6.14184e-20)
(-0.000816179 -9.68003e-05 2.39162e-19)
(-0.000187097 -0.00159459 1.65485e-19)
(0.000133905 -4.37134e-05 1.49378e-19)
(-0.0380815 -0.0381968 7.25349e-19)
(0.069264 0.0028481 1.419e-19)
(-0.0643738 -0.0640682 3.24278e-19)
(0.00376919 -0.0111344 -1.92981e-18)
(-0.0743832 -0.0497115 2.04076e-18)
(-0.000911932 -0.000571573 3.38342e-19)
(-0.118561 -0.388897 1.27332e-18)
(1.07365e-05 3.08852e-05 1.38961e-18)
(0.000416723 -0.000519694 -2.57589e-19)
(-0.159763 0.158409 -6.42698e-18)
(0.100128 -0.0429096 -3.20622e-18)
(0.000189855 3.25572e-05 2.55636e-19)
(0.000172694 -0.000286534 1.84974e-19)
(0.000730775 0.00105286 -8.16855e-20)
(0.102025 0.0250147 1.91381e-18)
(0.00012721 -0.000717027 6.62981e-19)
(0.0081463 -0.00972238 1.79919e-18)
(-0.000820254 -0.00311963 -1.64198e-19)
(0.000146494 -0.0175379 7.34439e-19)
(-0.0379735 -0.0292794 -9.30612e-20)
(-0.0282655 -0.0578681 -6.99524e-19)
(-0.000294736 -0.000820761 -1.48704e-19)
(-0.0751357 -0.0568282 2.48482e-18)
(3.35795e-05 8.40371e-06 1.07024e-18)
(0.000302771 -0.00147223 -5.04802e-19)
(-0.0712651 -0.000883311 -3.10915e-18)
(0.000518224 0.000966582 7.91708e-20)
(0.0300729 -0.218044 -6.51763e-19)
(-0.0256712 -0.0545107 -8.0688e-19)
(0.00010232 -0.000160575 4.81305e-20)
(-0.000497449 -0.00169016 1.89265e-20)
(0.000139242 -3.78634e-05 -6.44457e-20)
(0.0223425 0.00764154 6.67079e-19)
(-0.147596 0.103885 -2.35215e-18)
(0.00436783 -0.000348945 4.54966e-19)
(-0.000222312 -6.39793e-05 6.04454e-19)
(-0.018594 -0.0552884 7.32806e-19)
(0.0206868 -0.0219481 1.72059e-18)
(0.000201046 0.000248801 1.35001e-20)
(0.000147074 0.000180752 3.49526e-21)
(0.00204982 -0.0022599 9.27819e-19)
(1.67438e-05 2.3737e-05 3.72012e-20)
(0.0233186 -0.00789027 4.15382e-18)
(0.0120752 -0.197778 -5.3055e-19)
(0.000183575 -0.000106621 1.24738e-19)
(-0.00022607 -0.000439248 1.02514e-18)
(0.0839402 -0.016972 1.47637e-19)
(-0.00139371 -0.00122089 6.12584e-19)
(0.00651282 -0.00966373 -1.00102e-18)
(-0.000141187 -0.00131552 1.74797e-18)
(-0.000304362 -0.000178552 7.05161e-19)
(-0.0111286 0.141567 -5.66047e-18)
(-0.000148322 -0.000334418 3.44523e-19)
(-0.000294272 0.000178401 1.55446e-19)
(0.000133613 -8.57766e-05 -1.22775e-19)
(-0.00040916 0.00221704 -8.4789e-19)
(-0.000346147 0.000238197 -6.38305e-20)
(1.60386e-05 5.49236e-06 -1.8197e-19)
(-0.000981244 0.000624572 2.68945e-20)
(-5.79262e-05 -0.00684082 -7.62108e-19)
(0.0223184 -0.0302173 1.56466e-18)
(0.0212884 -0.00532238 1.12494e-17)
(-0.000180782 -8.04853e-05 1.54369e-19)
(-0.00511595 0.00434295 -2.95645e-19)
(-7.45586e-05 -0.000700112 -3.58642e-20)
(-0.000228968 -0.007473 5.46681e-19)
(0.00232035 -0.00441433 7.60881e-19)
(0.000240753 -0.000512894 -3.55044e-19)
(0.0561275 -0.0192281 1.10108e-18)
(-0.000147259 -0.000409048 -4.94307e-19)
(0.0199478 -0.0330421 1.15218e-18)
(3.95469e-06 -6.1531e-06 3.72364e-19)
(-0.00734168 -0.00951568 -3.0125e-20)
(0.000400908 0.000507574 1.82959e-20)
(0.000294183 0.000486444 2.56433e-20)
(-0.0015886 -0.0177364 3.93566e-19)
(-0.152503 0.184845 4.99994e-18)
(0.00202748 0.00142923 -2.06577e-18)
(0.000332689 -0.000449655 4.16487e-19)
(-0.000270735 -3.12308e-05 1.55618e-19)
(-0.0127046 0.0020324 -4.02553e-19)
(0.000132677 -0.000199147 2.24372e-20)
(-0.00151357 0.104312 -3.89265e-19)
(0.0040715 0.0983664 2.15461e-19)
(0.000197755 3.39822e-05 -1.10003e-19)
(0.0783548 0.00529257 -2.73608e-19)
(0.000123722 -1.23626e-05 8.46053e-20)
(0.0210725 -0.00334539 1.09098e-18)
(-0.000156792 0.00197039 -2.54345e-19)
(0.000180925 0.000337418 4.11793e-20)
(4.04001e-05 3.47162e-06 -1.51887e-19)
(2.79939e-05 -1.57262e-05 -5.59364e-19)
(0.0186445 -0.00147213 1.08684e-17)
(9.34335e-05 -0.000147167 -8.71755e-21)
(-0.000897909 0.000768335 2.01156e-20)
(-0.0044651 -0.00916215 7.29834e-19)
(7.04726e-05 -1.61035e-05 -1.6671e-18)
(0.000144033 -0.000277775 3.71604e-19)
(0.000191807 -0.000111861 1.58618e-20)
(0.0238917 0.130064 -3.90469e-18)
(0.00300548 0.000604773 9.27796e-19)
(4.98061e-05 -7.56771e-06 3.18354e-19)
(9.05126e-06 -9.37525e-07 -3.54899e-21)
(0.000847647 -0.00229159 9.30265e-19)
(-0.00152279 -0.00151508 -4.40971e-19)
(-0.00468106 -0.00977694 -5.09473e-20)
(0.000130481 8.76879e-06 4.21212e-19)
(-0.0885356 0.215153 -1.3245e-17)
(-0.000269436 -5.13817e-05 2.27729e-19)
(-0.0640437 0.0181102 -1.13318e-18)
(0.0262983 0.13707 5.54657e-18)
(4.59657e-05 9.87182e-07 -1.00491e-19)
(1.64008e-05 -7.65564e-07 -4.88276e-19)
(0.000475198 -0.000114541 -1.7811e-18)
(-0.0142471 0.00250906 3.24619e-19)
(-0.00691359 -0.00405422 1.8174e-20)
(0.000354277 0.00170141 -5.21613e-19)
(-0.061082 0.0378517 3.79918e-18)
(0.00012524 -1.446e-05 -1.82658e-19)
(0.000427593 -0.000192831 4.43918e-19)
(-0.00758688 -0.0038229 -3.12864e-20)
(-0.000739481 0.00153221 3.97884e-19)
(-0.000533045 0.000136286 -5.17414e-20)
(-0.00205065 -0.000869335 -7.22648e-19)
(0.0234172 0.00362681 1.93174e-19)
(-0.00040732 0.000375194 -3.6685e-19)
(-0.0109858 -0.000189445 -6.00952e-19)
(-0.000593908 -0.00345912 9.73721e-19)
(-0.000174198 0.000233209 -1.94337e-19)
(-0.000282218 0.0595797 -9.02707e-19)
(-0.0964578 -0.027477 2.96735e-18)
(0.001946 0.0446508 2.07032e-21)
(0.000426806 0.00077783 -1.86104e-20)
(0.141925 0.00233451 2.11178e-17)
(-0.00204559 -0.00134333 -7.40532e-19)
(-0.0822159 -0.114591 4.86089e-18)
(-0.00952241 -0.0488086 1.6001e-18)
(-0.000457676 0.000140618 -9.06866e-19)
(0.00391414 -0.00218276 1.14183e-18)
(-0.0146384 -0.0483787 -5.28759e-20)
(-0.000450793 -0.00177213 2.20136e-18)
(0.00588974 -0.0076686 -8.45644e-19)
(0.0328086 -0.0248759 -3.88063e-18)
(0.000107456 -0.000114558 8.48159e-20)
(6.62352e-05 -1.11194e-05 1.4583e-18)
(0.000377706 -0.00048384 -3.01715e-19)
(3.50973e-05 4.66047e-06 3.6267e-19)
(0.00113008 0.000677834 1.11458e-18)
(-0.0738692 -0.0525443 -9.99465e-19)
(0.000286983 -6.23421e-05 -1.17671e-19)
(-0.000148735 0.000178995 1.08049e-18)
(-0.0796022 0.284466 2.17038e-17)
(-0.00111665 -0.00148293 -1.85724e-18)
(-0.00101499 -0.000629536 -3.17801e-19)
(0.000511311 0.000661074 -4.86936e-20)
(-0.00301066 0.000271424 -1.62321e-20)
(0.000122635 -0.000114097 7.78673e-19)
(-0.0623257 -0.0571792 2.77963e-18)
(-0.00106008 -0.0015989 -4.29608e-21)
(-6.15567e-05 -7.05689e-05 2.73735e-21)
(-0.000376938 0.00112258 1.26256e-19)
(-0.00110876 -0.0019256 6.06969e-19)
(-0.0317811 -0.171013 2.48447e-18)
(-0.000215282 -0.000664969 -8.81116e-20)
(0.00457965 0.0219178 2.8642e-19)
(0.000112477 0.000198442 -1.17257e-20)
(0.00962761 -0.0207384 3.25313e-18)
(0.0313559 -0.104854 -6.00403e-18)
(0.0570367 -0.015553 -6.30891e-18)
(0.0108331 -0.0218103 -2.14682e-18)
(-0.00273511 0.000512595 6.65944e-21)
(0.00190142 -0.00279685 1.55868e-18)
(-0.0853124 -0.0525547 -3.12664e-18)
(1.89087e-05 -9.32443e-06 -4.68049e-19)
(0.0585327 -0.01028 -1.10812e-18)
(-0.0017986 -0.000487094 1.73792e-18)
(2.25254e-05 2.25028e-05 -1.70496e-19)
(0.0393167 0.10969 -1.45063e-17)
(0.00465789 -0.00750599 3.01193e-19)
(-0.0908497 -0.0283628 1.56428e-19)
(-5.64178e-05 -8.5809e-05 6.39037e-21)
(0.0250649 -0.00867154 -1.52305e-18)
(0.102106 0.0731908 -1.81256e-19)
(-0.00476372 -0.00192519 1.4479e-18)
(0.000198619 -0.000194177 -7.03237e-19)
(0.0146515 0.152817 -4.64743e-18)
(0.00480656 -0.00762453 -2.64105e-18)
(0.015229 0.0441573 -1.99571e-19)
(-0.00559431 0.00358032 -6.49481e-20)
(-6.04467e-05 -0.00065682 1.26888e-19)
(-0.0509703 0.0041551 -1.22569e-18)
(0.000130316 9.17926e-06 -1.97263e-19)
(-0.00261162 -0.00103119 1.67957e-19)
(-4.6173e-06 8.35714e-07 -3.0644e-19)
(3.55793e-05 -8.64645e-06 4.99175e-19)
(-0.00134128 -0.000632994 8.66544e-19)
(-0.000121919 -0.000723208 -2.7407e-19)
(-0.004975 0.00279581 -8.32121e-20)
(-0.025185 -0.18607 -5.64185e-19)
(-7.3791e-05 -0.00130851 6.56447e-19)
(0.103095 -0.0875399 3.03646e-18)
(0.0150259 0.0646073 -1.51075e-19)
(-0.0936835 -0.0376223 -1.13729e-18)
(0.0216142 -0.0195372 -1.22903e-18)
(0.00979349 0.0271734 4.41309e-21)
(-1.44502e-06 -8.12285e-06 -3.8154e-19)
(0.000380316 -0.000447057 2.06976e-19)
(0.020782 -0.118259 2.36432e-19)
(0.0246148 0.0562482 -5.29373e-19)
(0.000110318 -0.00131179 -6.22444e-19)
(0.00105012 -0.00120483 -1.77929e-18)
(-0.0839076 0.394929 3.10772e-17)
(-0.000264995 4.75596e-05 -3.46946e-19)
(0.139493 -0.0249838 -7.44227e-18)
(-0.0002209 -0.00053102 -1.17549e-18)
(-0.00527263 0.00209932 -4.26758e-19)
(-0.000218671 7.40455e-05 3.31924e-19)
(-0.00428663 -0.0202439 2.22971e-19)
(0.000284618 -9.31048e-05 -3.44926e-19)
(0.00515011 -0.00838365 -2.7366e-18)
(0.080851 0.0132102 -7.95514e-20)
(0.000247745 -0.000674898 1.5074e-19)
(-0.0504302 0.0492016 -2.17632e-19)
(0.00410769 0.00598774 4.83045e-19)
(-0.00130813 -0.00173225 2.82409e-19)
(0.00298388 0.00676425 -7.09015e-20)
(-0.00144642 -0.000543413 -1.52491e-18)
(0.00195919 0.00177615 1.84016e-18)
(-0.000401518 -0.00233134 1.43796e-18)
(-0.146831 0.124008 1.63351e-18)
(0.000126628 -9.98281e-06 1.31948e-19)
(-0.000605746 0.000170721 3.62236e-20)
(0.0316396 -0.02775 -3.54428e-18)
(7.13895e-05 -0.000635523 -5.23079e-19)
(0.00158591 -0.00479082 -1.67738e-18)
(-0.00183325 -0.00162398 4.13987e-19)
(-0.000672733 0.000191316 1.1145e-18)
(0.00340293 -0.0130273 -7.81337e-19)
(8.55132e-05 5.50844e-06 6.28091e-19)
(-0.000603241 0.00031199 1.56875e-20)
(-8.16787e-05 0.000186956 1.22653e-19)
(-0.068219 -0.029887 -8.1906e-19)
(-0.000958151 -0.00180261 1.17946e-18)
(-0.0630835 -0.0483329 7.41591e-19)
(-0.000104231 -0.00131455 7.33957e-19)
(-0.0501573 -0.0123701 -7.91431e-19)
(7.43352e-05 -6.75644e-06 -1.2294e-18)
(-0.000542264 -0.00146386 -1.11227e-18)
(2.46719e-05 -4.44728e-06 -2.50776e-19)
(-0.000157052 -0.00121893 -4.32824e-19)
(-0.0939598 0.0179026 -3.23927e-18)
(-0.00100504 -0.000333763 -1.13454e-18)
(0.0245972 -0.111666 1.9808e-18)
(-0.000955644 -0.000222751 -8.44528e-20)
(-0.000381423 -0.000785879 1.01792e-18)
(-0.0024158 -0.00140434 5.9444e-19)
(-0.062812 0.411861 -1.09619e-17)
(0.0168233 -0.0169146 -1.21728e-18)
(0.0507247 -0.0801479 1.2239e-18)
(-0.0420702 -0.0212816 2.10067e-18)
(0.00490172 0.000193422 -7.19612e-19)
(0.000104743 1.08677e-06 1.0342e-19)
(0.00927705 0.0294633 -6.17143e-20)
(0.00220594 -0.0133768 -2.41243e-18)
(-0.00514111 -0.0180779 -5.42647e-20)
(0.00607606 0.105531 -4.75303e-19)
(0.0377281 -0.120805 9.67553e-19)
(0.000118682 -1.13627e-05 -2.47349e-19)
(0.00221209 0.0047678 2.74455e-19)
(0.0249581 -0.0111041 -4.31756e-18)
(2.14449e-05 -3.6496e-05 -1.53685e-20)
(-0.00275366 -0.000309824 -1.7458e-19)
(2.50052e-05 1.49073e-05 -6.39304e-20)
(-9.35001e-05 -0.000312392 3.96766e-19)
(1.68366e-05 -5.87876e-06 -5.32633e-19)
(0.0986254 -0.074141 -8.6735e-19)
(0.00448394 -0.00922615 2.67418e-18)
(-0.0665954 -0.0117282 -1.69756e-18)
(-0.000137935 -0.000354402 1.31462e-18)
(-0.0143313 0.00492914 1.15385e-19)
(8.55282e-05 0.000142658 -7.18468e-21)
(2.2003e-05 5.13475e-06 1.08803e-18)
(2.69657e-05 -3.14859e-06 -2.96194e-19)
(-0.0023438 6.71898e-05 5.88161e-19)
(0.0120966 0.027078 1.39271e-19)
(3.45467e-05 -0.00152617 -5.69563e-19)
(0.00151111 0.00411426 -1.17099e-19)
(-0.000170408 0.000267278 2.47537e-19)
(0.000145673 4.88919e-06 1.08427e-19)
(0.000539938 -0.00597129 1.23858e-19)
(0.0373759 -0.0229192 1.70011e-19)
(7.41159e-05 -1.30038e-05 -7.69955e-20)
(0.000108673 5.21293e-06 -4.1757e-20)
(0.0165141 0.170149 -2.61206e-18)
(0.00425983 -0.00598253 9.73025e-19)
(-0.000877931 -0.00175548 -1.4257e-18)
(-0.0897535 -0.0943424 -1.13974e-18)
(-0.0474168 -0.0205646 -8.72585e-19)
(-6.76182e-06 2.2535e-06 -5.98311e-19)
(3.57325e-06 -3.37328e-06 -1.32856e-19)
(-0.00302359 -0.00102865 -2.01163e-19)
(0.00151042 -0.00580112 8.92573e-19)
(-0.000677496 0.00034472 5.25763e-21)
(0.000109475 -9.17553e-06 -1.10942e-18)
(0.000121296 2.19921e-07 -3.83029e-20)
(-0.00098585 -0.000783103 -1.40695e-19)
(-0.000140555 -0.000786651 -1.33546e-18)
(-0.000205305 -0.000132161 1.43263e-18)
(0.0246637 0.0199804 -1.54566e-19)
(0.021737 -0.0368166 -2.17104e-18)
(2.13914e-05 1.31817e-05 -5.90943e-19)
(-0.073842 0.0337026 6.20651e-18)
(-0.0251575 -0.00347224 8.47012e-19)
(-7.56924e-05 0.00037524 3.17216e-19)
(0.00280575 0.0011242 -3.82261e-19)
(-0.00197762 0.00162874 5.56189e-19)
(0.0617397 -0.00743692 5.77028e-19)
(0.000234817 0.00197134 1.94938e-18)
(0.0854608 -0.0298601 7.50803e-19)
(-0.000550769 8.32234e-05 7.82986e-19)
(-0.000267443 -0.000269766 9.66584e-20)
(0.0225566 -0.0244394 -1.25863e-18)
(3.72072e-05 5.59117e-05 -1.31286e-20)
(0.0112586 -0.0145912 2.95264e-18)
(0.0467904 0.0739644 5.41776e-18)
(-0.0125408 7.04025e-05 -3.11106e-19)
(-1.32744e-05 0.000396514 -1.35368e-19)
(0.11775 -0.079843 -2.80969e-19)
(0.00331565 -0.00580466 -1.37849e-18)
(8.35757e-05 0.000216088 -1.35143e-19)
(-0.000820642 -0.000105889 9.2692e-19)
(0.0291546 0.000307374 7.94446e-18)
(0.000145686 0.000255038 7.70319e-20)
(9.59953e-05 0.000183875 -8.35522e-19)
(0.000123787 1.94735e-08 -1.95952e-19)
(0.000126824 0.000232325 3.595e-19)
(0.000175902 0.123562 -5.27483e-18)
(0.0231612 -0.00584256 -1.0369e-17)
(-0.0229029 -0.00262675 3.52238e-19)
(0.00358063 0.000532984 -7.30449e-19)
(-0.000710028 -3.54111e-06 1.37062e-18)
(-0.000271314 0.00029677 -1.88195e-18)
(-4.76225e-05 -0.00046095 4.93619e-20)
(3.42222e-06 -1.53857e-06 -7.77314e-21)
(0.000125523 -2.05733e-06 3.72142e-19)
(0.0504125 -0.00551234 5.50447e-19)
(0.0614107 -0.0178127 5.014e-19)
(-0.000311203 -7.65963e-05 -4.11289e-19)
(0.00404359 -0.00106502 -4.18058e-19)
(0.0383838 -0.13095 3.22782e-18)
(0.000495369 0.000323619 -2.10331e-19)
(0.00505657 -0.0159477 2.14997e-19)
(0.002549 0.0246929 1.9559e-19)
(1.83357e-06 4.33925e-08 -1.07877e-19)
(0.030875 -0.0217517 4.20295e-18)
(-0.0511174 -0.01552 -2.58259e-18)
(0.000114542 -0.000187586 -8.58821e-20)
(0.0653316 0.0197859 7.39484e-18)
(0.00012985 0.000364891 7.14219e-20)
(0.118889 -0.0514056 6.06885e-18)
(-0.00312115 -0.00857722 -7.29181e-20)
(-0.0833882 0.0321258 -5.0241e-18)
(0.000224141 -0.000192586 9.08981e-19)
(-0.000268156 -0.000114084 -1.42443e-18)
(0.00223268 -0.000230674 -1.80638e-18)
(-0.00920556 0.121554 2.86441e-18)
(0.00239667 -0.00277379 -2.48806e-19)
(-0.100578 -0.0755895 8.2309e-19)
(-0.0374634 0.116182 -5.95888e-19)
(0.186813 -0.0529506 -1.79281e-18)
(0.0121519 -0.0155936 1.07834e-18)
(0.0907539 -0.0235769 -8.39407e-20)
(-0.00737819 -0.0178023 1.59212e-19)
(3.87962e-05 8.0454e-07 8.36943e-19)
(0.0108468 -0.00903488 -1.95603e-18)
(0.00349764 -0.00136101 4.63113e-19)
(0.0511259 -0.0500488 -1.22065e-18)
(-0.000466043 -0.000400332 6.40855e-19)
(-0.057366 -0.00386973 3.02619e-19)
(0.000157674 0.000256508 2.33842e-19)
(0.0093526 -0.0324515 -6.22613e-19)
(4.10819e-05 3.85461e-06 5.91944e-19)
(0.00153282 -0.00123056 1.44573e-18)
(-0.000237769 0.00022448 1.65657e-18)
(0.0740459 0.0126884 2.42463e-18)
(4.7821e-05 0.000341512 -9.86527e-20)
(-1.53297e-05 -3.92293e-06 -4.24818e-19)
(0.00115957 -0.00275191 2.01142e-19)
(-0.00154927 -0.00369273 3.52366e-19)
(0.00476977 -0.0100256 -1.96234e-18)
(0.000278843 -0.000193609 -8.13888e-19)
(7.35458e-05 7.21514e-05 9.36425e-20)
(0.000419474 0.000302475 3.95909e-19)
(0.000415909 0.000224536 1.42295e-19)
(-0.066041 -0.013928 2.21354e-18)
(8.48003e-05 -5.05419e-05 -1.04343e-18)
(0.043341 -0.11275 1.60179e-18)
(0.0476485 0.210216 1.03858e-17)
(8.50126e-05 -4.6349e-05 5.21078e-19)
(4.42251e-05 3.27795e-06 -8.76347e-19)
(-0.0160771 0.00537717 -7.047e-19)
(0.000946617 -0.00129926 -2.75989e-19)
(4.07409e-05 1.50889e-06 1.09236e-19)
(-0.000866966 0.00112254 7.4907e-20)
(-0.00443723 -0.00278055 6.20512e-19)
(-0.00228837 -0.00896307 1.60625e-18)
(0.00203558 -0.00171509 8.62128e-19)
(-0.00119571 -0.00394107 -8.5257e-19)
(7.22865e-05 0.000106579 -1.18646e-18)
(-0.00258752 0.00154316 4.85606e-19)
(-0.00233381 0.000331019 2.04699e-21)
(-0.0012115 -0.00778523 7.80562e-19)
(-0.000543732 0.0014297 -3.27858e-19)
(-0.00344332 0.000298363 9.71558e-21)
(0.0516346 0.176123 -4.7058e-18)
(0.000138417 0.000397374 1.31671e-19)
(-0.156704 0.105808 -8.12811e-19)
(0.00505743 -0.00625397 6.6693e-20)
(6.08145e-05 -1.01681e-05 9.69518e-20)
(6.49736e-05 6.83147e-05 1.403e-19)
(4.98547e-05 -0.000188029 4.32078e-19)
(8.82882e-05 -0.00375626 1.21938e-18)
(0.000580462 -0.00431049 -7.82227e-19)
(-0.000194193 -0.000267264 5.21117e-20)
(-0.0015947 0.00032242 -8.32331e-19)
(0.000108557 0.000101251 2.26693e-20)
(-0.000357968 0.000280167 -4.50558e-19)
(-0.00153285 0.000618627 7.41536e-19)
(0.000142094 2.69901e-05 1.27674e-19)
(-0.00363458 0.00487862 -1.09858e-18)
(2.39194e-05 4.64599e-05 -9.25196e-19)
(0.00145847 -0.00138881 -2.34315e-18)
(7.82546e-06 4.20928e-07 3.61185e-19)
(2.94623e-05 -0.000696355 -2.56227e-19)
(-0.00284119 0.00465302 9.85562e-19)
(0.00217059 -0.00183698 -1.17976e-18)
(0.0116651 -0.0100011 5.63024e-18)
(2.36757e-05 -4.47546e-07 3.70365e-19)
(-7.72837e-05 -0.000153881 3.11036e-19)
(6.19692e-05 4.93947e-05 -8.86924e-20)
(3.72379e-05 0.000149582 -3.01171e-20)
(0.000544747 -6.17321e-05 6.71055e-19)
(2.09863e-05 1.08491e-05 1.61718e-19)
(0.000658779 5.54123e-06 3.05808e-19)
(-0.000103619 0.000183163 -2.56217e-19)
(9.74043e-05 0.000402672 7.08718e-20)
(0.000104622 0.00033385 2.05827e-19)
(0.00106276 -0.0212231 -5.16086e-19)
(1.2301e-07 -1.06116e-05 -6.85102e-19)
(3.7593e-05 2.76128e-06 -8.11871e-19)
(4.98968e-05 -9.34326e-05 3.07895e-20)
(-0.0561377 0.00326964 -1.0113e-19)
(0.000126124 -8.28267e-05 3.24748e-20)
(-0.000194617 0.000137789 -2.47925e-19)
(0.0289575 -0.0161954 2.54903e-18)
(6.1916e-05 0.000319825 -1.53665e-19)
(0.000227255 -0.00196949 -5.71071e-19)
(0.0798102 0.0126433 -2.82965e-17)
(-0.00234278 0.00161312 -3.45822e-19)
(7.31857e-05 -7.65764e-07 1.58921e-18)
(2.58519e-05 -3.21676e-06 -9.66609e-20)
(0.0513741 -0.0042926 4.65084e-18)
(7.1526e-05 -0.000184126 1.98817e-18)
(0.0270232 -0.012096 -6.35108e-18)
(0.175307 -0.104373 3.42876e-18)
(0.0420328 0.0263573 5.20168e-18)
(-0.0218238 0.0740337 -8.62551e-20)
(0.000311013 -0.00173647 -8.97521e-19)
(2.202e-05 -9.23059e-05 -7.21921e-22)
(0.0567784 -0.055282 -8.18257e-21)
(0.000199001 -0.00302495 5.93587e-19)
(-0.000117328 0.000193419 -6.471e-19)
(0.013966 0.0305664 1.06889e-19)
(-0.0542931 -0.0109716 -2.37437e-19)
(0.0789793 -0.120465 -7.16727e-20)
(5.0748e-05 4.12924e-05 9.07148e-21)
(0.0316721 4.22433e-05 4.7664e-18)
(3.01142e-05 -0.000103493 4.85024e-20)
(4.91753e-05 -7.13923e-05 -2.36356e-20)
(0.112386 -0.0865755 6.49162e-18)
(0.000137442 2.91038e-05 4.38223e-19)
(0.0295358 -0.0252204 -7.09105e-19)
(0.00126136 0.00386868 -7.93435e-19)
(0.0190304 -0.0397115 -9.43555e-20)
(-6.92462e-05 -0.000113429 3.01941e-19)
(-0.00425349 -0.00381736 4.88788e-19)
(-0.00206686 0.0005112 2.26868e-20)
(0.0710269 0.0195829 -6.58491e-18)
(0.0608828 -0.198999 -1.65972e-18)
(-0.000333888 -0.00059218 4.49822e-19)
(0.000757685 0.00341515 1.14253e-18)
(0.008624 -0.00431395 1.93282e-18)
(-8.88244e-05 0.000142081 -6.33617e-19)
(0.00307086 -0.00468615 -1.21722e-18)
(0.0267585 -0.0151159 5.08782e-19)
(0.115514 -0.0203895 -9.56039e-18)
(0.000178133 -0.000213181 -1.36073e-19)
(0.00193594 -0.0171144 -1.82281e-20)
(0.000649359 -0.00293193 -8.32777e-19)
(0.0668404 -0.00505963 1.96166e-18)
(-0.00011017 -0.0150487 1.5712e-19)
(0.0312372 0.144132 -2.31586e-18)
(-0.0484852 -0.0406358 1.7157e-19)
(0.000188546 0.0016545 3.41671e-20)
(0.0134588 -0.000796413 3.22677e-19)
(-0.0546645 0.00124236 4.80803e-18)
(0.000125527 -9.21181e-05 -5.53747e-19)
(0.000148662 2.57163e-05 2.91719e-19)
(4.49263e-05 -2.32719e-06 -9.09917e-20)
(-0.000240688 0.00285761 6.44207e-19)
(1.59358e-05 0.000282973 -8.0214e-19)
(0.0911455 -0.0485772 6.39382e-18)
(-4.55815e-05 0.000214002 3.64359e-19)
(0.0143138 -0.170065 1.41081e-17)
(0.00353854 -0.00226519 -2.88107e-18)
(0.03013 0.0135598 -1.39696e-19)
(0.0257186 -0.0242512 4.2221e-18)
(-2.87573e-05 -0.000528934 1.73028e-19)
(0.0456408 -0.0756171 -1.22111e-18)
(0.083773 -0.0662331 4.53051e-19)
(-0.000700767 -0.00135399 -9.81293e-19)
(-0.0649277 0.0234345 3.97735e-19)
(0.0123398 0.000141688 -1.63395e-18)
(0.0404122 -0.0018606 1.58399e-17)
(-3.20028e-05 0.000270295 -2.10167e-19)
(6.4888e-05 0.000286201 -1.987e-20)
(0.0355802 -0.0742982 -3.85094e-18)
(0.000777534 -0.000130625 9.96225e-20)
(0.0813308 -0.133532 6.56273e-18)
(8.33721e-05 1.16551e-05 5.08361e-19)
(-0.0526675 -0.0526896 -8.33608e-19)
(0.000248188 -0.000111648 -2.46453e-19)
(0.0316332 -0.0194351 -1.1131e-18)
(0.0269364 -0.100603 2.52699e-18)
(0.000474314 0.00165038 5.03427e-19)
(0.152979 -0.0875196 2.17916e-17)
(0.000117618 -1.18005e-05 -4.10936e-19)
(0.0014127 -0.00287881 5.43997e-19)
(0.0103648 -0.0179387 -7.49641e-18)
(0.0689762 0.0832496 -1.0462e-17)
(0.0419527 0.230773 1.13234e-17)
(0.00050007 -0.000468957 6.45548e-19)
(0.000283981 -0.000155513 3.04226e-19)
(-0.000218613 0.000203199 2.93239e-19)
(0.0386423 0.0612202 -4.94603e-18)
(-0.0794714 0.36005 -1.00851e-18)
(0.000124178 3.81989e-07 2.74901e-19)
(0.00786461 0.000145744 -1.69578e-19)
(0.00788915 -0.0171859 1.91126e-19)
(-0.00012127 0.000257307 3.34221e-19)
(6.47705e-05 -0.000121776 -1.33262e-19)
(0.00160739 -0.00214634 9.1555e-19)
(0.0321358 -0.020725 3.94422e-19)
(-0.00839533 -0.00115113 2.82471e-19)
(0.000983506 -0.000112386 4.46566e-20)
(3.70066e-05 2.46734e-06 -3.93379e-19)
(0.000199435 -0.000129984 8.95013e-19)
(-0.0316706 0.0763746 4.82301e-19)
(0.0587167 -0.114422 5.21886e-19)
(-0.0191285 -0.00297915 5.76376e-19)
(4.89954e-05 0.000171897 1.06908e-19)
(5.86756e-05 1.72007e-06 -1.71619e-19)
(-0.0598769 0.0136968 -2.47621e-19)
(0.000144432 2.9048e-05 -5.239e-19)
(-0.0759578 0.0118218 -2.67129e-18)
(0.00585928 -0.0288921 2.51507e-19)
(0.00314 -0.19143 -1.22162e-17)
(0.0381595 -0.0329753 -5.1115e-20)
(-0.0511331 -0.056523 6.15744e-19)
(0.000126586 0.000138737 -5.6041e-20)
(3.75226e-05 -0.000565633 1.12568e-18)
(0.00141475 -0.00522743 -1.53616e-18)
(0.000953902 -0.00236495 1.15752e-18)
(-0.0013806 -0.0083739 2.66167e-19)
(0.000129463 1.88123e-05 -2.24362e-19)
(0.032349 -0.00249429 -1.21285e-17)
(0.0638404 -0.0509116 2.35616e-19)
(0.000111696 -0.000232052 2.62468e-20)
(0.0750369 -0.101156 2.53583e-18)
(0.000181468 -0.00014441 -1.29635e-18)
(0.0435813 -0.0546552 1.72572e-18)
(0.000520355 -0.000909941 1.89905e-20)
(0.0297066 -0.0622543 -2.45539e-19)
(-0.0030904 0.00769846 5.45907e-19)
(0.00233276 0.00576425 -1.26796e-18)
(0.000176434 -0.000309345 -1.25657e-18)
(0.000532038 -0.00240894 1.16878e-18)
(-0.00753387 -0.00956502 -2.36203e-19)
(0.0611289 -0.0393128 -1.44817e-18)
(-0.0617059 -0.0187574 -3.39355e-18)