/*--------------------------------*- C++ -*----------------------------------*\
| =========                 |                                                 |
| \\      /  F ield         | OpenFOAM: The Open Source CFD Toolbox           |
|  \\    /   O peration     | Version:  v2012                                 |
|   \\  /    A nd           | Website:  www.openfoam.com                      |
|    \\/     M anipulation  |                                                 |
\*---------------------------------------------------------------------------*/
FoamFile
{
    version     2.0;
    format      ascii;
    class       volScalarField;
    location    "1000";
    object      k;
}
// * * * * * * * * * * * * * * * * * * * * * * * * * * * * * * * * * * * * * //

dimensions      [0 2 -2 0 0 0 0];


internalField   nonuniform List<scalar> 
9793
(
0.000431049
0.00701469
0.000279249
0.000140946
0.0356551
0.000153632
0.000150526
0.000139418
0.000146152
0.0370802
0.00018347
0.000277175
0.000141433
0.000138304
0.000159968
0.000137559
0.000145264
0.000148195
0.0261911
0.000138214
0.00029474
0.000151108
0.00633413
0.000130903
0.00014708
0.000142414
0.000137778
0.000141574
0.000175618
0.000146075
0.000184898
0.00544582
0.00995691
0.000152435
0.000180561
0.0019502
0.000155376
0.000151078
0.000140313
0.000143289
0.000184834
0.000160341
0.000151588
0.000151379
0.000151758
0.000144241
0.000178885
0.000866323
0.00709174
0.000140685
0.000182631
0.000188238
0.000154022
0.000146569
0.000263955
0.000370141
0.000144182
0.000203391
0.00465354
0.000140164
0.000149848
0.00015345
0.00473367
0.000148968
0.0483178
0.00828978
0.00423362
0.00685724
0.000250753
0.000183445
0.000229762
0.000143968
0.000142273
0.00520124
0.000187287
0.0032162
0.000144186
0.000137364
0.000145477
0.000142684
0.00781706
0.000145075
0.00638635
0.000542128
0.000175411
0.000754246
0.000143712
0.000144216
0.000151677
0.00014712
0.00766843
0.0109899
0.000137461
0.00511789
0.000152523
0.000641711
0.000358179
0.00711841
0.0001371
0.000136157
0.000136008
0.000146045
0.000137107
0.000136932
0.000136847
0.000173343
0.000151009
0.000150304
0.000152899
0.000489917
0.00014582
0.000258935
0.000143923
0.00170926
0.000188067
0.000144257
0.0102262
0.000186896
0.000147241
0.0043615
0.000614947
0.000160557
0.000143589
0.000154672
0.000148177
0.000266432
0.000169385
0.000858324
0.000149309
0.000142196
0.000149757
0.000144288
0.000142247
0.000147554
0.000145722
0.000144263
0.000152031
0.000149814
0.000143856
0.000133781
0.000143481
0.000146634
0.000143102
0.000136429
0.000139189
0.000141508
0.00329382
0.000136509
0.000136944
0.00266205
0.00169265
0.00014963
0.00227456
0.0352905
0.000136724
0.000155921
0.000141364
0.000146291
0.000136208
0.000142637
0.000139469
0.000141605
0.000136132
0.0378372
0.00491022
0.000452123
0.00103491
0.000156306
0.000137274
0.00014306
0.000143673
0.0110852
0.00506627
0.0111142
0.000147947
0.0337514
0.000144321
0.000130781
0.000142533
0.000158989
0.000763312
0.000149814
0.000136327
0.000146685
0.00215627
0.000142119
0.00020958
0.000142477
0.000143427
0.000136236
0.000148008
0.000143172
0.00818117
0.000258356
0.00663535
0.000158569
0.027718
0.000142054
0.0251556
0.000134556
0.000145665
0.0425086
0.000456624
0.000142202
0.00014439
0.000134802
0.000662474
0.00013637
0.000167766
0.000150069
0.000163231
0.00662156
0.00800285
0.000146785
0.0381441
0.000140319
0.000144147
0.00225988
0.000134308
0.0111698
0.000208761
0.000143828
0.00014824
0.000143183
0.000783262
0.0417479
0.000153492
0.000136599
0.000203498
0.000177205
0.000131241
0.000130887
0.000150058
0.00013617
0.000173996
0.0108682
0.000143711
0.000142764
0.000308968
0.000144368
0.000167204
0.000138324
0.000142354
0.00924198
0.000142272
0.000136905
0.000139291
0.000146245
0.00013714
0.000150594
0.000147385
0.0001537
0.000185272
0.000171753
0.000141719
0.000153107
0.000143424
0.000154237
0.000154401
0.000136053
0.00377928
0.000142497
0.000185682
0.000149922
0.000157162
0.000132305
0.000132124
0.00016316
0.043037
0.000150054
0.000136253
0.00013424
0.000156909
0.000143981
0.0073772
0.00716544
0.000142263
0.000284119
0.00014375
0.000171694
0.000145946
0.000131603
0.000154173
0.000142088
0.000169299
0.00014379
0.000147403
0.000155804
0.000142398
0.000144342
0.000143779
0.0101413
0.000151079
0.000156734
0.000150212
0.000147411
0.000148646
0.000156598
0.000142595
0.0277005
0.000136772
0.00517344
0.0108927
0.000153978
0.000151839
0.000136391
0.000158098
0.000153566
0.000145564
0.00571916
0.000147421
0.000136246
0.000153687
0.000148189
0.000146186
0.000145768
0.000627576
0.00014271
0.000155384
0.000150348
0.000141684
0.00551799
0.0408658
0.00410843
0.000133071
0.000353614
0.000148946
0.00666038
0.000193742
0.000135042
0.000152049
0.000192117
0.000144737
0.000162153
0.000190299
0.000139055
0.000150604
0.000145369
0.000144355
0.00014213
0.00520422
0.000142535
0.000141464
0.0315764
0.000144615
0.000137412
0.000133019
0.000149454
0.000139195
0.0169423
0.00014841
0.000144216
0.000147275
0.000145829
0.0076489
0.000146372
0.000172164
0.000130917
0.000168881
0.000350601
0.000211098
0.000170717
0.000149288
0.00015109
0.040529
0.000150192
0.00363673
0.000144421
0.000136734
0.00993194
0.000161716
0.0371548
0.000144244
0.000176385
0.00314229
0.000153111
0.00014185
0.0103974
0.000156518
0.00374195
0.000153007
0.000146116
0.00650652
0.000142945
0.000149261
0.000152288
0.000145899
0.00013809
0.000146357
0.000151929
0.00835629
0.000147444
0.000555275
0.00523802
0.0413259
0.000177443
0.00228845
0.000142698
0.00014534
0.0351381
0.00490481
0.000138374
0.000148025
0.0416368
0.000134175
0.00330272
0.000143012
0.00015193
0.000134003
0.000165049
0.000142476
0.000157313
0.000311302
0.000136552
0.00653839
0.000162262
0.000148692
0.000163013
0.000143335
0.000150217
0.000142044
0.0260199
0.000143511
0.000146353
0.000189864
0.000145885
0.000154355
0.000148957
0.000135766
0.000160156
0.000142819
0.000146461
0.00013355
0.00750946
0.00014031
0.00757208
0.000143301
0.00879983
0.000158852
0.000143856
0.000155185
0.000147434
0.00255374
0.000141851
0.000151027
0.000136721
0.000143817
0.000149252
0.0401412
0.00019243
0.000261773
0.00760973
0.000154351
0.000142764
0.000181365
0.000159861
0.000163556
0.00659931
0.00929753
0.000146496
0.000154996
0.000176667
0.000143692
0.000146573
0.000143504
0.000137015
0.000153368
0.000837042
0.000157445
0.00400918
0.000137243
0.000158966
0.000130601
0.000150572
0.000150552
0.000145397
0.000182357
0.000143985
0.000151926
0.000134122
0.000144463
0.000156093
0.000579112
0.000143446
0.00014274
0.0116585
0.000158318
0.000148463
0.00423789
0.00862516
0.000149958
0.00015343
0.000149571
0.00015612
0.000146601
0.000153792
0.000150906
0.00014253
0.000143662
0.000141909
0.00222199
0.000190782
0.000141406
0.00216113
0.000165406
0.000136568
0.000151053
0.000145721
0.000252409
0.000145911
0.00023379
0.000135376
0.000142423
0.000181575
0.000143315
0.000165567
0.00816977
0.000156545
0.000136522
0.000653924
0.000157694
0.000138069
0.000143716
0.000180313
0.00014093
0.000137907
0.000142743
0.000140829
0.00911407
0.000173882
0.000163966
0.000152142
0.000143412
0.000142174
0.00014545
0.000144482
0.000142929
0.00022867
0.000216868
0.000134421
0.000153559
0.0385887
0.000144783
0.000313042
0.000172925
0.000143232
0.000185607
0.00484954
0.000143936
0.00021894
0.000131712
0.000633171
0.000155354
0.00661365
0.000141994
0.000142128
0.000145331
0.00849406
0.000151639
0.00381555
0.00785029
0.0435857
0.00016661
0.000175988
0.00016346
0.000160226
0.000162347
0.000152363
0.00586878
0.000146359
0.0086018
0.000133458
0.00219276
0.000152434
0.000148608
0.000141925
0.00022749
0.000133823
0.000142063
0.000149886
0.000150839
0.00015824
0.000142387
0.000142939
0.000144448
0.000144144
0.0221309
0.000140639
0.00912723
0.0145615
0.000140733
0.000150964
0.000159795
0.000148048
0.000143407
0.000147748
0.000153712
0.000155412
0.000149607
0.000150875
0.000137381
0.00014676
0.000148862
0.000154419
0.000147932
0.000149757
0.0146447
0.00014434
0.0367792
0.00015573
0.000151287
0.000143043
0.000138933
0.000152311
0.000154867
0.000142188
0.000141008
0.00013036
0.000142466
0.000140863
0.000141993
0.000152939
0.000132732
0.000148636
0.000153869
0.000146103
0.000152671
0.000149821
0.000163584
0.000154991
0.000141457
0.000143125
0.000137734
0.000134392
0.000144554
0.000134798
0.000141269
0.000144404
0.000133749
0.000166721
0.000143621
0.000154478
0.000143724
0.00869039
0.000141041
0.000133942
0.000182354
0.000131582
0.000147049
0.000233475
0.000147171
0.00015465
0.000149688
0.000203268
0.000139019
0.000179358
0.0483181
0.00580331
0.00698897
0.00014657
0.000143845
0.00605391
0.000147971
0.000133711
0.00249002
0.00805822
0.0339139
0.000143225
0.000183202
0.000143859
0.000143649
0.0013195
0.000142105
0.000313739
0.000152031
0.000190458
0.000141301
0.000151975
0.000148667
0.000225946
0.0135115
0.000143369
0.000150267
0.000158147
0.00014111
0.000155436
0.000179861
0.000294561
0.000141757
0.000258659
0.000148088
0.00412668
0.000248857
0.0109084
0.00804659
0.000143074
0.000167244
0.00470899
0.000141059
0.000141897
0.000154226
0.000146718
0.000133603
0.000469977
0.00013348
0.0103054
0.000151758
0.00151096
0.000183388
0.000145662
0.000246774
0.00861987
0.000147909
0.0070976
0.000165464
0.000191664
0.000133673
0.000131462
0.00806903
0.000144959
0.013004
0.000140964
0.0071268
0.000137776
0.000785506
0.00902935
0.000143044
0.00115082
0.000144262
0.000150166
0.000167884
0.00901671
0.0137714
0.000134475
0.000138014
0.000134163
0.00688375
0.0366119
0.000156766
0.000158725
0.000345046
0.00013392
0.000140894
0.00014851
0.000300718
0.000160384
0.000145845
0.000142777
0.000139794
0.00696171
0.0307714
0.000793728
0.000137853
0.000140373
0.00959482
0.000141996
0.00633387
0.000174656
0.0108603
0.00239798
0.00790423
0.00014026
0.000145667
0.000152516
0.000149325
0.000154896
0.000142343
0.000183383
0.00584324
0.000137156
0.00919029
0.000139685
0.00400967
0.000146888
0.0064543
0.000155819
0.000162856
0.000142063
0.000140881
0.000164784
0.00591166
0.00475736
0.000145525
0.000165635
0.000142938
0.000150082
0.000152481
0.000336555
0.000167565
0.000192434
0.00014011
0.000158707
0.00014308
0.000132972
0.000152087
0.000140607
0.0283332
0.000141813
0.000150288
0.000155306
0.000153693
0.000133543
0.000185957
0.000149695
0.000149073
0.000140438
0.000140991
0.00573224
0.000141114
0.000243396
0.000137334
0.000199193
0.000142591
0.000243399
0.000145208
0.000271794
0.000146906
0.000145393
0.000140009
0.00871821
0.005834
0.00423717
0.000273704
0.010633
0.00014485
0.000152122
0.00821356
0.00013419
0.00732603
0.00439408
0.000185523
0.000228341
0.000149974
0.00593103
0.000158105
0.00715345
0.00814573
0.000149901
0.000146576
0.00548912
0.0218718
0.000164904
0.000152785
0.000142224
0.000149868
0.000165886
0.00014445
0.00013425
0.000149573
0.000247113
0.000167809
0.000153625
0.00527349
0.000140163
0.000134894
0.00251284
0.0259167
0.000166659
0.000149859
0.0002205
0.000138202
0.000134083
0.010555
0.000133665
0.000149632
0.00631216
0.00730256
0.000143722
0.00665738
0.000281028
0.000234037
0.000712581
0.00031807
0.000153622
0.00925011
0.000147539
0.000139987
0.000144173
0.000149997
0.000143782
0.000504517
0.000146639
0.011195
0.000139491
0.00017309
0.000148135
0.000166583
0.000158825
0.000144981
0.000174716
0.00013963
0.000134404
0.0002051
0.000154767
0.000161273
0.000144424
0.000134697
0.00652656
0.00937378
0.000156341
0.000130549
0.00013038
0.000138376
0.00014874
0.031621
0.000202127
0.000671477
0.000165128
0.00450359
0.000146043
0.000162949
0.000160482
0.000153106
0.000235688
0.000142163
0.000141535
0.000640391
0.000167518
0.00043598
0.000141642
0.00490083
0.0102156
0.000165649
0.000170587
0.000152614
0.0289316
0.00014604
0.000155194
0.00867542
0.000154463
0.000141767
0.000254344
0.00014732
0.000137507
0.000141167
0.000275176
0.000147789
0.000156287
0.00209223
0.000169597
0.000156135
0.000165585
0.00112282
0.00751793
0.000960054
0.000134478
0.000145904
0.000149051
0.000159919
0.000145776
0.00901343
0.00810447
0.000152642
0.0052626
0.000254514
0.00659322
0.000146135
0.00788287
0.00014285
0.00783903
0.000190078
0.000138441
0.00632161
0.0083865
0.000139782
0.000145239
0.000144934
0.000281162
0.00647298
0.000156768
0.000188295
0.000155849
0.000315393
0.00038698
0.00681342
0.000143539
0.000143695
0.00045437
0.00212283
0.000141744
0.000144451
0.00013464
0.000147712
0.000146645
0.000155001
0.0148103
0.000143854
0.000158215
0.00387034
0.000147178
0.00015281
0.000154516
0.0108334
0.000145898
0.00015698
0.00116131
0.000147884
0.000134662
0.000148121
0.000140552
0.000149827
0.00982275
0.00725276
0.000146071
0.00123992
0.000161176
0.000844397
0.000143499
0.000152228
0.00014936
0.000147733
0.00699327
0.000146191
0.000152975
0.000156756
0.000148965
0.000141521
0.000155897
0.000142564
0.000208777
0.00014567
0.00014112
0.00787458
0.000141868
0.0121195
0.000166923
0.00014098
0.00032689
0.000154869
0.000163859
0.000337393
0.00013559
0.00264725
0.00014104
0.000143642
0.0406394
0.00483455
0.000135758
0.00014544
0.000138854
0.000146973
0.000193146
0.000149136
0.000146283
0.000151747
0.000149114
0.000148828
0.000144042
0.000137028
0.00014068
0.000142105
0.00561284
0.000154365
0.000134362
0.000170598
0.000147013
0.00221612
0.000288627
0.000164346
0.000145232
0.000142746
0.000191133
0.000152822
0.000145003
0.000147476
0.0102802
0.00023316
0.000143583
0.000132516
0.00018637
0.00018457
0.000131311
0.00764699
0.000170863
0.000145894
0.00014789
0.000198836
0.000146555
0.000163571
0.00752784
0.000147575
0.000234871
0.000209675
0.000251406
0.000132583
0.000143795
0.000132567
0.000132472
0.000231436
0.000141906
0.000247602
0.000185194
0.000132471
0.000148144
0.000195893
0.000151155
0.000146994
0.000143555
0.000151685
0.00651931
0.000132579
0.000145283
0.00688472
0.000151554
0.00014654
0.000163231
0.000142003
0.00014676
0.000142419
0.00014503
0.000152235
0.000152651
0.000230757
0.00273118
0.000132688
0.000144102
0.000132626
0.000214092
0.000141028
0.000154414
0.000143435
0.000135612
0.000179424
0.000136958
0.000161012
0.000144093
0.000137111
0.00480816
0.00463025
0.000147211
0.000145865
0.000140632
9.86385e-05
0.000158703
0.000143552
0.0073112
0.0128487
0.000152659
0.000140902
0.0104601
0.000152323
0.00938177
0.000192805
0.00025362
0.000142439
0.000172316
0.000208601
0.000136632
0.00461588
0.000471883
0.000143627
0.00117728
0.00399847
0.000165485
0.00984648
0.000132718
0.000157956
0.000178286
0.000142608
0.00620248
0.000132831
0.000171857
0.00020437
0.000132637
0.00193113
0.0001483
0.000148897
0.000164686
0.000153192
0.000284284
0.000539798
0.000134978
0.000153678
0.000354416
0.000138934
0.000154738
0.000139749
0.010251
0.00817997
0.000151691
0.000145707
0.000155115
0.000329704
0.000385144
0.000160321
0.000132753
0.000140418
0.000426407
0.00477376
5.60805e-05
0.000150705
0.000151571
0.000156495
0.000134493
0.000152944
0.000167795
0.000152472
0.000140771
0.00016736
0.00811261
0.000445593
0.000140781
0.000246027
0.000154264
0.000325145
0.00113433
0.000181327
0.0155339
0.000335077
0.000132826
0.000209596
0.000211078
0.00687727
0.00599631
0.000143603
0.000215861
0.00659508
0.000175926
0.000154331
0.00607385
0.00569638
0.000141632
0.000155704
0.000154334
0.000142524
0.00018842
0.000143292
0.000155329
0.000138339
0.000132931
0.00014796
0.000144046
0.000150595
0.000155887
0.00412462
0.000166645
0.00598776
0.000139882
0.0001572
0.000146101
0.000730923
0.00871139
0.000142343
0.000178531
0.000146276
0.000135399
0.000143023
0.000135384
0.000141809
0.000218034
0.000146542
0.00182579
0.000143816
0.000140526
0.00880731
0.000153337
0.000147941
0.00014174
0.000143762
0.00328058
0.000187842
0.00655134
0.000250675
0.0119369
0.000145673
0.000147573
0.00014639
0.000153849
0.00019488
0.00019276
0.000477441
0.000140976
0.000175588
0.000149345
0.000509207
0.000417175
0.000154739
0.000857299
0.00282164
0.000155903
0.000173391
0.000140988
0.000175558
0.000154515
0.00020213
0.00017441
0.000132944
0.00294206
0.00778244
0.000146969
0.000151267
0.000148328
0.000256491
0.000142053
0.000147404
0.00635156
0.000139675
0.00390084
0.000167164
0.000162735
0.000149277
0.000147852
0.00454572
0.000142024
0.00553377
0.000154303
0.000143607
0.000139021
0.000235116
0.000150416
0.000541509
0.000152875
0.00016714
0.000153869
0.00019715
0.00015175
0.000144142
0.0068224
0.000147175
0.000136829
0.000500278
0.00679995
0.000166774
0.000137761
0.000151292
0.0203572
0.000200373
0.000141899
0.000278328
0.000138631
0.000231444
0.000200968
0.000148562
0.000141865
0.000204324
0.000140829
0.000139087
0.000143607
0.00019671
0.000937105
0.00015965
0.000165
0.000147768
0.000148962
0.0102319
0.00019375
0.000150389
0.000147378
0.000141428
0.00024003
0.000782581
0.000311462
0.000142658
0.000222888
0.00013545
0.000135209
0.000150951
0.00014876
0.000173827
0.000143459
0.00021196
0.00472556
0.00320928
0.000153853
0.000145464
0.000145885
0.000171829
0.000138216
0.000144064
0.000167033
0.000145668
0.000143158
0.000149227
0.000165174
0.00013407
0.000839004
0.000172832
0.000165716
0.000152785
0.00016716
0.000152247
0.0355269
0.000143735
0.000142872
0.000145259
0.000141547
0.000145061
0.000140768
0.000228666
0.000217307
0.00014632
0.000150122
0.000143741
0.000165511
0.000151438
0.00018492
0.000149113
0.000318277
0.000143158
0.000147892
0.000141537
0.000198686
0.00014514
0.000339951
0.000144926
0.000145896
0.000130437
0.000370622
0.000152123
0.000304881
0.000451629
0.000148313
0.000145099
0.00014199
0.000144045
0.000159124
0.000149547
0.000155224
0.00294085
0.000146312
9.00145e-05
0.000894703
0.000152656
0.000215306
0.000146273
0.000152797
0.000141222
0.00013649
0.000135529
0.000143572
0.00351264
0.000205127
0.000139899
0.00679647
0.000251277
0.000142699
0.00212403
0.000136266
0.000166908
0.000150847
0.000141107
0.00373832
0.000145669
0.00015522
0.000152952
0.000177556
0.000194693
0.00014838
0.000140937
0.000149888
0.000848467
0.00149604
0.000168504
0.000157735
0.000145049
0.000144145
0.00450437
0.000148018
0.000161359
0.000169579
0.00606385
0.000145429
0.000167596
0.000145983
0.000147692
0.000165987
0.000163171
0.000163813
0.000149266
0.000148335
0.000156881
0.00462067
0.000202175
0.000136838
0.000155447
0.000199294
0.000152668
0.000173657
0.000146752
0.000147423
0.000143428
0.000196221
0.0102817
0.000139936
0.00014567
0.00500053
0.000165828
0.00015797
0.000145471
0.000143478
0.000143503
0.000134621
0.000191925
0.000155378
0.00015005
0.000149113
0.000144017
0.000145213
0.000245956
0.000143845
0.000143951
0.000147656
0.00329568
0.000397799
0.000144864
0.000143203
0.000144892
0.00545978
0.000148724
0.000358597
0.00014544
0.000190613
0.000145023
0.000147513
0.000198986
0.000147215
0.000164938
0.000147412
0.000144534
0.000136399
0.000150031
0.000235429
0.00014822
0.000148833
0.00735481
0.00014666
0.000149801
0.000149039
0.000146806
0.000144099
0.000148387
0.000197516
0.000139213
0.000139764
0.000140484
0.00426247
0.000153944
0.0098278
0.000145898
0.000147492
0.0065912
0.00754435
0.00781565
0.000156727
0.000167267
0.00976588
0.00014591
0.00842847
0.000150061
0.000209353
0.000141079
0.000574316
0.00248191
0.000130536
0.000152302
0.000156313
0.000149709
0.000134009
0.00645797
0.000140335
0.00939039
0.00014717
0.000143882
0.000147651
0.000134031
0.000147675
0.000227386
0.000143886
0.000141822
0.000141928
0.00014706
0.00014373
0.000194127
0.0161548
0.00738949
0.000145925
0.00013707
0.000153391
0.000144988
0.000143669
0.000204189
0.000171794
0.000152226
0.000143127
0.00116749
0.00015073
0.000246245
0.00628481
0.000150705
0.000136049
0.000142848
0.000177358
0.00359785
0.000146759
0.000142635
0.000252843
0.000215753
0.000175346
0.00995709
0.000143459
0.000163372
0.000162026
0.000133712
0.00014762
0.00358954
0.00398327
0.00316763
0.000142954
0.00855415
0.00014743
0.000145968
0.00016754
0.000148551
0.00016788
0.000190889
0.000142837
0.000144793
0.000144073
0.000140223
0.000133766
0.0001429
0.000155247
0.00575156
0.000182865
0.00013045
0.000133903
0.000142752
0.000148102
0.000143836
0.000337696
0.000148756
0.000148957
0.00014858
0.00888535
0.000142782
0.000151589
0.0046768
0.000143119
0.000143252
0.000310287
0.000143735
0.00014353
0.00014245
0.000308542
0.000185212
0.000173107
0.000147654
0.00133005
0.000136646
0.000135055
0.000136936
0.000143065
0.000184242
0.000142907
0.000146968
0.000174408
0.000144106
0.00741944
0.000157247
0.000161652
0.000147637
0.000204071
0.000162907
0.000145672
0.000141736
0.000149587
0.000146104
0.000143773
0.00631284
0.000140574
0.000202787
0.000142219
0.0001478
0.0295074
0.000141632
0.0118654
0.000197047
0.000143531
0.000245881
0.000142089
0.000148314
0.000142747
0.000147674
0.000139002
0.000143929
0.000144021
0.000145119
0.000211197
0.00014567
0.000140541
0.000148093
0.000139543
0.000142477
0.000142531
0.000144031
0.000137601
0.000143001
0.00014356
0.000143558
0.000143046
0.000148158
0.0387328
0.000144209
0.000149017
3.37655e-05
0.00706773
0.000134988
0.00017729
0.000140813
0.000143604
0.000143385
0.000146323
0.0111399
0.0073348
0.000141584
0.000151447
0.00637045
0.000146538
0.000216315
0.00248433
0.000133906
0.00153916
0.000145257
0.000267547
0.000152936
0.00214268
0.0411999
0.00691238
0.000140854
0.000141777
0.000135052
0.000153869
0.000203585
0.000150505
0.000237382
0.00578272
0.000143832
0.000349903
0.000232676
0.000143698
0.000136686
0.000166173
0.000163773
0.000143786
0.000141337
0.000136757
0.000164819
0.000164071
0.000167868
0.000163332
0.000166135
0.00269696
0.000141961
0.000143838
0.000142069
0.000282355
0.000167288
0.000168114
0.000271703
0.00232074
0.000198515
0.000141573
0.000167013
0.000142715
0.00016591
0.00014343
0.000148661
0.000242909
0.000158091
0.000198496
0.00013306
0.00703561
0.000180447
0.000201853
0.00732134
0.00930645
0.000141949
0.000143382
0.000143345
0.000117355
0.000144032
0.000139987
0.000143465
0.000161675
0.00533368
0.00513519
0.000166408
0.00016395
0.00263891
0.000171515
0.00610962
0.000211327
0.000227466
0.000169552
0.00466365
0.00790075
0.000141579
0.000141673
0.00014221
0.000180442
0.000169801
0.000194746
0.000143673
0.000142937
0.000143847
0.000265174
0.000142251
0.000143407
0.000141541
0.000167695
0.000140741
0.000142121
0.000136181
0.000158736
0.013336
0.000163091
0.000162649
0.000145311
0.00541366
0.000166833
0.000134632
0.000143144
0.000273796
0.000688913
0.000146567
0.000147035
0.000297206
0.000143012
0.000141136
0.000140951
0.000146223
0.000102471
0.000140899
0.000146138
0.000141805
0.000147108
0.000143496
0.000142181
0.0001412
0.000143271
0.000145041
0.0038102
0.000142597
0.000138672
1.42586e-05
0.000197958
0.000169274
0.00018475
0.000140943
0.000536962
0.000142851
0.000180765
0.000141588
0.00268827
0.000142658
0.00014258
0.000134888
0.00204858
0.000167193
0.00014251
0.00402609
0.00014344
0.000134929
0.000143627
0.000149786
0.000159009
0.00014099
0.00240855
0.000144896
0.000205013
0.000192583
0.000145324
0.000164308
0.000140835
0.000138662
0.000142297
0.00224074
0.000171702
0.000184166
0.000198011
0.00318982
0.000157223
0.000154524
0.000168066
0.000143862
0.00013243
0.000304031
0.00204963
0.000140712
0.000182192
0.00014096
0.000141353
0.00578795
0.000137976
0.00014379
0.000383144
0.000206151
0.00346561
0.000144543
0.000141338
0.000221514
0.000140742
0.000135642
0.00127423
0.000143517
0.000231188
0.00747376
0.0375837
0.000143466
0.00014959
0.000141841
0.000133638
0.000164681
0.000146314
0.000143763
0.000172219
0.000138744
0.000206578
0.000145113
0.000150293
0.000164535
0.00801249
0.000165447
0.000148134
0.000237952
0.00742433
0.000143966
0.00124095
0.000147614
0.000143696
0.000145202
0.000141294
0.000166051
0.000157043
0.00104177
0.000143114
0.000166524
0.000148795
0.000131933
0.000141622
0.00014462
0.000158023
0.000139473
0.000143322
0.00014956
0.000146297
0.00223691
0.000143491
0.000150393
0.000184109
0.000151392
0.000135362
0.00614168
0.00180823
0.0026646
0.0256932
0.000186944
0.000138385
0.000149005
0.00547488
0.0103537
0.000193915
0.00251001
0.00692167
0.000145086
0.0046394
0.00248147
0.000146301
0.000594177
0.000148165
0.00626693
0.00129325
0.0033455
0.000148527
0.000141647
0.000192645
0.000144325
0.000145564
0.000917193
0.000296471
0.000143746
0.00014411
0.000142929
0.00707603
0.00014234
0.000141946
0.000142609
0.000140929
0.000141224
0.000428962
0.000148095
0.000140755
0.000145707
0.000166665
0.00154448
0.0101583
0.000143951
0.00014275
0.000150521
0.000143655
0.000141029
0.000141667
0.00129402
0.000143549
0.000168968
0.00014189
0.000146662
0.000135952
0.000144298
0.00319429
0.00101243
0.00013773
0.000148486
0.00783137
0.00364547
0.00020037
0.00393976
0.00014465
0.000166663
0.000141842
0.000131836
0.000142315
0.000135097
0.000141543
0.000142841
0.000146873
0.000204468
0.000133815
0.00361408
0.00837752
0.00013361
0.000193072
0.000180456
0.000148115
0.000141891
0.000142283
0.000144181
0.000142057
0.00676022
0.00013262
0.000142585
0.00114809
0.000141837
0.000143342
0.000140749
9.97735e-05
0.000143794
0.000143636
0.0120593
0.000138628
0.000138136
0.00014222
0.000215717
0.000142928
0.000131005
0.000141752
0.000134054
0.00559449
0.000396461
0.000141444
0.000741621
0.000132244
0.000143374
0.0001491
0.00268036
0.0132527
0.000133865
0.000155644
0.000143542
0.000142267
0.000142425
0.000141673
0.00501445
0.00716459
0.000144271
0.000147977
0.000171302
0.000140544
0.000141869
0.000166258
0.000158886
0.012569
0.000144379
0.000154027
0.00566686
0.00014205
0.000165672
0.000357888
0.0248134
0.000141563
0.000140853
0.000142515
0.000142828
0.000140841
0.00545375
0.00014171
0.00580222
0.00201569
0.000148181
0.000165473
0.00800719
0.000136316
0.000673691
0.00417446
0.000268642
0.000158568
0.000142312
0.00015312
0.00500719
0.000139503
0.000195331
0.000140834
0.000134053
0.000134162
0.000134753
0.000142052
0.00475502
0.000147152
0.0075617
0.00127682
0.000195638
0.0035047
0.000132083
0.000143572
0.000151004
0.0029699
0.000142157
0.00723657
0.000186872
0.000133909
0.000140548
0.00501994
0.000140629
0.000195729
0.00727947
0.000141426
0.00938959
0.000147777
0.000206967
0.00017174
0.000143793
0.000138136
0.000197615
0.000392946
0.000143625
0.00015103
0.000134902
0.000151962
0.000140115
0.00716038
0.000141376
0.000134538
7.60468e-05
0.000134659
0.00957434
0.000143944
0.000142043
0.000142977
0.00576504
0.000141145
0.000140331
0.00446692
0.000637899
0.00457325
0.000144775
0.000134822
0.000186129
0.0101891
0.000574226
0.000240611
0.00016216
0.000164593
0.00014671
0.000143137
0.000168007
0.000147475
0.000142642
0.000136461
0.000192972
0.000168119
0.000140538
0.000130872
0.000146342
0.000138017
0.000144831
0.000169565
0.000499577
0.0032576
0.000187974
0.00222381
0.0101646
0.00013857
0.000140637
0.000148453
0.000167914
0.000136394
0.000145128
0.000140352
0.000141483
0.000142079
0.000181524
0.000144182
0.000238408
0.000142825
0.000140354
0.000205044
0.000170839
0.000145358
0.000140551
0.00013999
0.010713
0.000136484
0.000145995
0.000135479
0.000151875
0.000140629
0.000142726
0.000141232
0.000219002
0.000140794
0.000139903
0.000166423
0.000137297
0.000197587
0.000165705
0.000141477
0.000143687
0.00368167
0.000250117
0.00220444
0.00465429
0.000164594
0.000152402
0.000147168
0.000142624
0.000206366
0.000139952
0.00898375
0.00954663
0.000151177
0.000175608
0.00555711
0.000140235
0.00671663
0.000158234
0.000619827
0.00015482
0.000139435
0.000139656
0.000147429
0.00014156
0.000281478
0.00655428
0.000207682
0.000143298
0.000140838
0.000139924
0.000337527
0.000158664
0.000214918
0.000140129
0.000144454
0.000204768
0.000141879
0.000152069
0.000278299
0.000140223
0.000145472
0.000131704
0.000143579
0.0077145
0.0410864
0.000139998
0.000141773
0.000138796
0.00812151
0.000141973
0.00015321
0.000230767
0.000279809
0.0120845
0.000589187
0.00465043
0.000142659
0.000158936
0.000145889
0.000142135
0.000151438
0.000233741
0.000137155
0.000142573
0.000224978
0.000144222
0.000136652
0.00787086
0.000134089
0.000142351
0.000220369
0.00266441
0.000134134
0.000135259
0.00017868
0.00343939
0.000191472
0.00234049
0.000151371
0.0106697
0.000140624
0.000218165
0.000209883
0.00536045
0.00561718
0.000177681
0.0136881
0.000370467
0.000279506
0.000138221
0.000140854
0.000135928
0.00014365
0.000324906
0.000139245
0.000182522
0.000135192
0.000147748
0.000145081
0.00841169
0.000143078
0.00160487
0.000157519
0.000185212
0.000208966
0.000191405
0.00040801
0.000131534
0.000171372
0.000143368
0.000466203
0.000146106
9.22446e-05
0.00078851
0.000181346
0.0044523
0.000139458
0.00425463
0.000165323
0.000175875
0.000144414
0.0104145
0.000147241
0.000140153
0.000142384
0.00110758
0.00014567
0.00013547
0.000256322
0.00016342
0.000238858
0.000139603
0.000133981
0.0106214
0.000188552
0.00842381
0.00724409
0.000140384
0.000302095
0.00999918
0.000181379
0.000138745
0.000221783
0.00777518
0.000139306
0.000152997
0.000132122
0.000494266
0.00554716
0.00422716
0.000227578
0.00013948
0.000138545
0.000147205
0.000135033
0.000158307
0.000166387
0.000148841
0.000136769
0.00700024
0.000149576
0.000144466
0.000154657
0.00207264
0.00087756
0.000153857
0.000167551
0.000167509
0.00479485
0.000139497
0.00397506
0.000142947
0.000168446
0.00125759
0.000146856
0.00428191
0.000136595
0.000133217
0.000139741
0.000139717
0.000138656
0.000140105
0.000131921
0.000783485
0.000165254
0.000141142
0.00634063
0.000140337
0.000145172
0.00013842
0.0118442
0.000141868
0.000151338
0.00024522
0.000252938
0.000140083
0.000132024
0.0100518
0.000143327
0.00781752
0.000512829
0.000145171
0.000146997
0.000183285
0.000843189
0.000167339
0.000135508
0.000138343
0.000155622
0.000178212
0.000151898
0.000268721
0.000250363
0.000151288
0.000147391
0.000163772
0.000148479
0.000224426
0.00677119
0.000137816
0.00447219
0.000209442
0.000142819
0.000140442
0.000140599
0.000140313
0.000138355
0.000141255
0.000139035
0.000149221
0.000117123
0.000153001
0.000143104
0.000152254
0.000154992
0.000138152
0.000138795
0.000201579
0.000152493
0.000158039
0.000137934
0.000146858
0.000137724
0.000133753
0.00562799
0.000143411
0.000141182
0.00483188
0.00815596
0.00334921
0.000140213
0.00137818
0.000145669
0.00036576
0.00637298
0.000148122
0.00847253
0.000138636
0.000135827
0.00285013
0.000139612
0.000184712
0.0328253
0.00521379
0.000165954
0.00159679
0.000144879
0.000140033
0.000152629
0.000138423