/*--------------------------------*- C++ -*----------------------------------*\
| =========                 |                                                 |
| \\      /  F ield         | OpenFOAM: The Open Source CFD Toolbox           |
|  \\    /   O peration     | Version:  v2012                                 |
|   \\  /    A nd           | Website:  www.openfoam.com                      |
|    \\/     M anipulation  |                                                 |
\*---------------------------------------------------------------------------*/
FoamFile
{
    version     2.0;
    format      ascii;
    class       volScalarField;
    location    "1000";
    object      p;
}
// * * * * * * * * * * * * * * * * * * * * * * * * * * * * * * * * * * * * * //

dimensions      [0 2 -2 0 0 0 0];


internalField   nonuniform List<scalar> 
9793
(
0.024433
-0.0100704
0.0268233
0.00431712
-0.042827
0.00696729
0.00561831
0.00580963
-0.00548588
-0.022525
-0.0322442
0.00710069
0.00437021
0.00482477
0.00556001
0.00472167
0.00572051
0.00578469
-0.0142808
0.00483887
-0.00321529
0.00142322
-0.00182657
0.00012066
0.00692076
0.00434925
0.00469901
0.00576453
-0.00269007
-0.00505054
0.00982423
-0.000543731
-0.0425836
0.0047964
0.00174506
-0.0158914
0.00547904
0.00189599
0.00605392
0.00525093
0.010485
0.00540564
0.00423957
0.00530204
0.00432013
0.0043484
-0.00155365
0.00351152
0.0104409
0.00433813
0.00320923
-0.0234086
0.00652557
-0.00334817
0.0145325
-0.0159708
-0.000449785
-0.0646434
-0.0453361
0.00600835
0.00529065
0.00587195
-0.00539561
0.00292133
-0.0482127
-0.0191719
-0.00293655
0.0047573
0.00865191
-0.028213
0.0171015
0.000137302
0.0043795
-0.00172695
0.00678609
-0.0352795
-0.00073308
0.000514751
0.00594425
0.00569816
-0.0200286
0.00624114
-0.00956299
0.00360552
0.00969641
0.0033525
0.00570939
-0.000988173
0.00558194
0.00648297
-0.0130128
0.0037609
0.00521633
-0.00342537
0.00554593
0.00322859
-0.0119161
-0.0122013
0.00521347
0.00500378
0.00496843
0.00668169
0.00546993
0.00546636
0.000579181
0.00974324
0.00520002
0.0055238
0.00619261
0.0066774
0.000230716
0.000733486
0.000636677
-0.0338605
-0.0194775
-0.000750038
-0.030951
0.00913666
0.00623557
-0.00122105
0.00678119
0.000362556
0.00043442
0.00706869
-0.0051911
-0.00217045
-0.0491524
0.00313716
0.0059395
0.00327113
0.000703468
-0.00105139
0.00329688
0.00675745
-0.00466355
-0.00116479
0.00293957
0.00555406
0.000803476
0.00337724
0.000641807
0.00676931
0.00502303
0.00491696
0.00492082
0.0050682
-0.000882746
0.00494145
0.00528076
0.00507671
-0.0178045
0.000644114
-0.015584
-0.00702734
0.00528632
0.000382632
0.00279491
0.00673641
0.00493435
0.00511678
0.00584905
0.00571355
0.00448859
-0.0213131
-0.00327811
-0.00736388
0.00278259
-0.00104242
0.00462418
0.0064926
0.0060526
-0.0431037
-0.00350251
-0.0374908
-0.00574111
-0.0133516
-0.00126515
0.000454477
0.00354548
-0.0153023
-0.166387
-0.0141676
0.00496334
0.00689427
-0.0394008
0.00436114
-0.0649308
0.0036744
0.000915603
0.00452435
-0.00626536
0.00201078
0.0102381
-0.000252594
0.0050093
-0.0153553
0.0245183
0.00628139
-0.00188251
0.00333514
-0.00429373
-0.0349705
-0.0217997
0.00307785
-0.0014237
0.00043723
-0.0115748
0.00479425
0.00931564
-0.0073623
-0.00728436
0.00894045
0.0113715
-0.00367919
0.0240052
0.00278412
0.00655202
-0.0327965
0.000539359
-0.0124439
0.0199995
-0.000124669
-0.00572645
0.00209731
0.00310432
-0.0226309
0.00677845
0.00531462
0.017867
-0.0237506
0.000195518
0.000174127
-0.0149452
0.00323507
-0.0446677
-0.0071652
0.000939716
0.0057853
-0.00734164
0.00653407
0.00924491
0.00490451
0.00585436
-0.0323339
0.00559432
0.00524903
0.00578533
0.00666913
0.00524969
0.00487987
0.000556584
-0.010244
-0.0169623
-0.0477474
0.00564417
0.00385517
0.00580984
-0.00982314
0.00779017
0.00479235
-0.011493
0.00565652
-0.0128324
0.0041911
-0.00109625
0.000321628
0.000393583
-0.0050191
-0.0367237
0.00520071
0.00481683
0.00429633
0.00552187
-0.000467777
-0.00956446
-0.00923057
0.00311233
-0.0030519
0.00233982
-0.0502164
0.00665157
0.000439478
0.00548413
0.0053433
-0.0504231
-7.75884e-05
0.000893591
-0.00425956
0.00548869
-0.0013161
0.000746785
-0.0323974
0.00585673
0.00548364
0.00120562
0.00683268
-0.00371709
-0.00395354
0.00246098
-0.0860628
0.00531389
-0.0294516
-0.0528397
0.00536811
0.0056643
0.00488838
0.00624469
-0.000155454
0.00657038
-0.0328296
0.0023957
0.00486753
0.000629929
0.00218024
-0.0002822
0.00651985
0.00309263
0.00617923
0.00412797
-0.00809469
0.00590483
-0.00318217
0.0163381
-0.000279531
0.000582483
-0.156104
-0.00282301
-0.0514485
0.0121491
0.00433943
-0.0218737
0.0142363
0.00663412
0.00880466
-0.0285769
0.00576362
0.00453216
-0.0039663
0.00462313
0.00574787
0.031091
0.00378632
0.00582512
-0.0923831
0.00651892
0.00471325
0.000405765
7.52762e-05
0.00580165
0.0278304
-0.00451005
-0.000232568
0.00208297
0.00668259
-0.0186003
-0.00328034
0.00704133
0.000387285
-0.0157593
0.0179905
-0.0580768
-0.0158044
0.000271523
0.00700812
0.0126099
0.00521957
-0.00982714
0.00638468
0.00317037
-0.0439726
0.00870113
0.0122958
-0.000297048
-0.044988
-0.0175686
0.00794444
0.00426069
-0.0429031
-0.0192673
-0.00042673
0.0035103
-0.00353858
-0.0472363
0.00250728
-0.00185257
0.00364717
0.00531053
0.00471799
-0.00367709
0.00289485
-0.0308581
-0.00575242
-0.0335428
-0.00778201
0.00854667
-0.0271832
-0.000344898
0.00513241
-0.0038266
0.0275342
-0.00850108
0.0048824
-0.0101245
-0.107192
0.00425173
-0.0404887
0.00584849
0.0024865
0.004186
-0.00186593
0.00389808
-0.0191535
-0.00411996
0.00480372
-0.0039058
0.00643038
-0.00440034
0.00660827
0.00637051
0.00511115
0.00501592
-0.00977603
0.00234245
-0.000249168
-0.0248064
-0.00369166
0.00805253
-0.00351717
0.00442353
-0.0131813
0.00524002
0.000137518
0.00396237
-0.00459953
0.0049245
-0.0048345
0.00646886
0.00489701
0.004416
0.00650074
0.00554547
-0.00525963
-0.0338781
0.00626427
0.0219006
0.00461743
0.00616405
-0.00257319
-0.114357
0.0105696
0.00742304
0.00854676
0.00676439
0.00179046
0.00790474
-0.0113543
-0.0017692
-0.00691712
-0.0158709
0.00236168
0.00670164
-0.0413355
0.000362779
0.00642512
0.000743164
0.00545221
0.00514018
-0.0299129
-0.0174656
-0.0362369
0.00545789
0.0067613
0.00033837
0.00467435
0.00194636
0.0062781
0.00759671
0.00657461
0.00662707
0.00410011
0.0029186
0.00838989
0.00473716
0.00538903
0.00186585
-0.0563652
0.00832992
-0.00513779
-0.00620603
0.00611764
0.00350707
0.00403271
-0.00153426
0.00828236
0.000128966
0.00408272
0.00261953
0.00637905
0.00595211
0.00568996
-0.00114579
-0.0109853
0.00311288
-0.0384595
0.0105267
0.00511007
0.00568162
0.00604698
0.00316613
0.00658429
-0.0101194
0.00440938
0.00579179
-0.0225043
0.00110302
-0.0226291
-0.0391722
0.00483063
0.00508604
-0.0443764
0.00820951
0.00571014
0.00638276
-0.0644933
0.00597019
0.00569003
0.00231841
0.00592052
-0.023363
-0.0482878
0.00958933
0.00618364
0.00629065
0.00603921
-0.00254885
0.00105225
0.00235341
0.00582575
-0.0582974
0.00435496
0.00689089
0.0258469
0.00364267
0.00579451
0.00731165
0.000916543
-0.0329929
-0.0417173
-0.000398897
-0.12037
0.00062587
-0.0276651
-0.00559232
-0.0360501
0.00426111
0.00579148
0.00585958
-0.0164242
0.00696116
-0.0134616
-0.0266248
-0.0246568
-0.0226319
-0.00925247
0.000236669
0.00569521
-0.0279587
0.00688237
-0.00793736
-0.00208691
0.000877992
0.00368796
0.00657804
0.00537067
-0.0125753
0.00595879
-0.112713
0.00388058
0.00385606
-0.0120701
-0.00642827
-0.0174507
0.00425561
0.00160018
0.00346769
0.00353765
-0.00930234
0.00423671
-0.0189864
-0.0668102
0.0042366
0.00542506
0.00759458
-0.00987972
0.000789294
0.00151206
0.00802385
-0.00682066
-0.0151197
-0.00725331
0.00563482
0.00612178
-6.51831e-05
-0.00840764
0.00225869
0.000319531
-0.0590743
0.00245401
-0.00809739
-0.0208958
0.00547353
0.0014419
0.00586424
0.00697092
0.00716588
0.00567548
0.00535657
9.11485e-05
0.0060973
0.00531211
0.00269354
0.00405034
0.00324809
-0.0123352
0.00494921
-0.00387069
0.00397203
-0.0158633
-0.0277868
0.00556561
0.00537638
0.00130039
0.0056916
0.00362877
0.00304308
0.00372278
0.00577903
0.00231011
0.0038222
-0.00616592
0.00505637
0.0054897
0.000187905
0.00162699
0.00397602
0.00413669
-0.0369039
0.000773359
0.0066641
-0.115536
0.0069566
0.00482023
0.00200173
-0.0691179
0.00585576
-0.0414093
-0.027797
-0.0357921
-0.00940944
0.00650928
-4.73955e-05
-0.00122249
0.00600037
0.0040261
-0.000274199
0.00259292
0.0223866
0.0011301
-0.0656634
-5.6607e-05
0.000393424
-0.0375396
0.00262373
0.00778713
0.00470387
-0.00700311
0.00534672
-0.00286942
0.000145187
-0.122241
-0.0671593
0.00598439
0.00468964
-0.0307373
0.00570245
0.00791877
-0.0373008
-0.0955016
0.00438968
0.00630396
0.00592375
-0.0213651
0.005935
-0.0431208
0.00245768
0.00579593
0.00804445
-0.0335175
0.00401528
0.00280062
0.00538226
0.00572583
0.00385853
-0.0253416
0.00390048
-0.0287594
-0.020588
0.00170375
-0.0242191
-0.0029367
0.00414842
-0.0216933
-0.00469593
-0.0457408
0.00815891
-0.0678329
0.00391782
0.000735813
-0.0188867
0.0046527
-0.0553265
0.0051857
-0.00543098
0.00560802
0.00259573
-0.0198142
0.00573206
-0.0917899
0.00241934
-0.0129436
-0.0173178
-0.0762298
-0.089847
0.00357146
0.00561586
0.00415078
-0.0397533
-0.0881373
0.00288752
0.00760164
0.00600133
0.00404125
0.00464866
0.00681102
0.00739114
0.00832814
0.00485306
0.00455833
0.00594864
-0.00820347
0.0253275
0.00577224
0.00570089
0.00487284
1.89177e-05
0.00271843
-0.0373509
-0.00540857
-0.0356854
0.00323964
-0.00172913
0.00579868
-0.00322417
-0.0132
-0.0111431
-0.0082175
0.00251009
-0.0617527
-0.0039613
0.00552464
-0.0239734
0.00592862
0.0064742
-0.00677872
0.00449374
0.00530416
0.00520169
0.00474588
0.00411896
0.00570209
-0.023538
-0.0325448
0.00331679
0.00179801
0.00581506
0.000769636
-0.00269579
-0.132241
0.00363284
-0.063274
0.00573962
-0.0327339
0.00574444
0.00326177
0.00486213
0.00481136
-0.00485029
0.00291175
-0.00144815
0.00546839
0.0010703
0.00375659
0.0149708
0.00451575
-0.0139232
0.00583347
0.00464588
-0.0168335
0.00381871
0.0010595
0.0055332
0.00644202
0.00468662
0.00738982
0.00381419
0.00569253
0.00184878
0.00465458
0.00496083
-0.0276279
-0.0159251
0.00453273
-0.015767
-0.00519414
0.00483637
-0.012175
-0.0159486
0.00381429
-0.010618
-0.00963409
0.0170324
0.0103798
-0.000469446
-0.0212719
0.00876489
-0.00892581
-0.0170377
-0.00182737
-0.00207908
-0.0198113
-0.0710679
0.00247937
0.00369254
0.00248138
0.00664907
-0.0422798
0.00293526
0.00357195
-0.0119301
0.00690672
-0.0198169
0.00602917
-0.0284552
0.004912
0.00377769
0.00646585
-0.0359038
-0.047319
0.00248082
0.0061049
0.00566033
0.00375111
-0.0347631
0.00371249
-0.000827224
-0.0232154
-0.0250065
0.00584088
-0.00114052
0.0117982
0.00409752
0.00541751
-0.122528
0.00363198
0.00786505
0.00198231
0.00571526
0.00115696
0.00445657
0.00578416
-0.0844484
0.00567031
-0.0471759
0.00402362
0.0127062
0.00181735
-0.0452299
0.00538363
0.00665524
-0.00812902
0.00402228
0.00373085
0.00610392
0.00629716
-0.00866972
0.00567228
0.00445828
-0.00966273
-0.0574458
0.00463812
0.000151051
0.000147425
0.00454093
0.00579181
-0.00605172
0.00178341
0.00369003
-0.00350334
-0.0138597
0.00667724
0.00678604
0.00783035
-0.011927
0.0154946
0.00461156
0.00554657
-0.00504852
-0.0074481
-0.127661
0.00462101
-0.0307002
-0.0227614
0.00291763
-0.0407189
-0.0216193
0.000532724
0.00542139
-0.0192985
-7.51858e-05
0.00713137
0.00462472
0.00584804
0.00241288
0.00565274
0.00525624
-0.0226144
0.00297827
-0.0309926
0.00916952
-0.0378042
0.00546177
0.00368526
0.00210155
-0.0238736
0.00150112
0.00379161
-0.00172367
-0.0108912
0.00557578
0.00509297
-0.00339734
0.00265492
-0.0225109
0.00690454
0.00651175
-0.00709337
-0.0017297
-0.000309563
0.00173829
-0.0258669
-0.0580313
0.00582614
-0.0734582
-0.00949195
0.00505302
-0.00242032
0.0052459
-0.0849309
0.00176536
0.00191209
0.0129541
0.00630505
0.000274778
-0.109999
0.00501099
0.00637713
0.00114524
-0.0680345
-0.00542039
0.00416007
0.00482501
0.00362243
0.00115333
0.0019905
-0.022096
-0.0259568
0.00338651
0.00856729
-0.0142527
-0.00680667
0.000576843
0.00474506
-0.00430643
-0.00305021
0.00721239
0.00156938
-0.00412725
0.00432668
-0.0034434
0.00550471
0.00128917
-0.0244404
-0.0132428
0.00688642
0.00186526
0.0084207
0.00555269
0.000757654
0.00704887
0.000877001
0.00266991
-0.00582351
0.00653064
0.00544838
0.00319376
0.00756779
0.00410208
-0.0291612
0.00215059
-0.0336727
-0.00138644
0.00386972
-0.0420744
0.00449578
-0.041299
0.00973169
0.00524593
0.00518974
0.00701129
-0.0255555
-0.00836411
0.00500379
0.00929061
0.00523456
0.000902961
-0.0899796
-0.0313117
0.0050268
-0.00226133
0.00589029
-0.0062585
-0.0722407
0.00100544
0.00669559
0.00554019
0.0066659
-0.0100555
0.0037404
0.00336745
0.00489413
0.00261213
-0.00361043
0.00482612
0.00323678
-0.0438435
0.00583505
-0.0045042
0.00630723
-0.0416077
-0.00188959
0.00188024
-0.053146
0.00427248
0.00522411
0.00305646
-0.0222767
-0.0324013
0.000555469
0.0032976
-0.0622037
0.01539
0.000371965
-0.00470234
-0.00580088
0.0037647
-0.00302596
0.00636824
-0.00424525
0.00687272
-0.0134162
0.00668831
0.00817809
0.0067436
0.0056722
0.00323453
0.000173211
0.00349803
0.00336286
-0.039891
0.00473991
0.0118574
0.013518
0.00342816
-0.00406355
0.00906922
0.00242954
-0.00717307
0.00210515
0.00576106
-0.012779
0.00343585
-0.00325663
-0.0130267
0.0076112
-0.00547694
0.00535639
0.00448631
-0.0059917
0.0026297
-0.00294307
0.00454001
0.00146813
0.015637
0.0124221
0.00331009
-0.000405546
0.00337235
0.0087735
0.00447257
0.00446104
0.00331485
0.00485448
0.00625872
0.00551043
-0.0299862
-0.000767563
0.00553303
0.00419054
-0.023294
0.00284628
0.00264027
0.00482015
0.00583674
0.0235143
0.00225911
-0.0101167
-0.0381653
0.00425349
0.00602283
-0.0310899
-0.000875118
-0.0169754
0.00699321
0.00716389
0.00245231
0.00879965
-0.0285095
0.00543007
0.00439046
-0.107932
0.00130251
-0.148907
-0.200604
0.00520722
-0.0173194
0.00311392
-0.0135795
0.00346196
0.00199099
-0.010841
0.00305663
-0.0347404
0.0182688
0.00317328
0.0110966
0.00351902
0.00269057
-0.0205376
-0.0211065
-0.116123
-0.0638839
0.00446779
-0.0117383
-0.0777382
0.00582028
-0.025737
0.00571604
-0.0254837
0.00518077
0.00453223
0.0065997
-0.0285347
-0.0954672
-0.0596284
-0.0279925
0.00324997
0.00548339
-0.042938
0.00764048
0.00674805
0.00178097
0.00350094
-0.0209872
0.00439187
0.00521397
0.00406253
0.00422401
0.00608465
0.00430313
-0.0247868
-0.00193953
0.00489755
-0.088163
0.00457994
-0.00423077
-0.165329
0.0117483
-0.0541294
-0.00674925
0.0031915
-0.101616
-0.109178
-0.02897
0.00266437
0.0034482
-0.0962115
-0.0193056
0.00580997
0.00247645
0.00179487
0.00533369
0.00418842
-0.0223285
-0.0229784
0.00213877
-0.0673107
0.0016473
0.00217298
0.00579813
0.00299997
0.00358821
0.000253838
0.00266099
-0.0280122
0.00173823
0.00302955
-0.0187885
0.00574082
-0.0303205
-0.00445292
0.00497257
-0.0395102
0.00256265
0.00686576
0.00670213
0.00503662
0.00235687
0.00484844
0.00484945
0.00740029
-0.00520975
0.0072942
0.00569434
0.0048228
-0.0353811
0.00323638
-0.0106726
0.00307351
0.00378597
0.00985598
-0.07128
-0.0324525
-0.0960792
-0.00636562
-0.00375037
-0.0093749
0.00661299
-0.0203033
0.00713856
-0.0852502
-0.0309096
0.00516788
0.0080071
-0.0104708
0.00709313
-0.0882622
-0.0268127
-0.124912
0.000850328
0.00522723
0.00766529
0.00603495
-0.0341478
0.00807223
-0.0576115
-0.031107
0.00313509
-0.174044
-0.0295223
-0.00599672
-0.0199889
-0.00855363
-0.0777573
0.00560677
-0.00682071
-0.00267986
0.00566336
-0.0614003
0.00956049
0.00219191
-0.0123348
-0.00764993
0.00672269
0.00311611
-0.00532256
-0.0241133
0.00152454
0.00581518
0.0117849
0.00268276
-0.0489742
0.00785941
0.0031995
0.00230074
-0.0048288
-0.0198128
0.00219091
7.8083e-05
-0.00822294
0.00551736
0.00304072
-0.00130926
0.00374422
0.00568076
0.00774511
0.0224153
0.0190618
0.00282241
0.00586227
0.00459967
0.0191832
0.00388742
-0.0098265
0.00359066
-0.0365751
0.00513372
0.00571096
0.000697675
-0.0630696
-0.0688064
0.00474231
0.00264972
-0.00987305
-0.0125314
-0.0276933
0.00926155
0.00378547
-0.00867196
0.00472421
0.0015569
-0.00747513
-0.0164899
0.00202259
-0.0890033
0.00500164
0.00482149
0.00706568
-0.0111422
-0.00137302
0.000908406
0.00425699
-0.0055475
-0.195581
-0.0214266
-0.00330713
-0.00396564
0.00129701
0.00577037
0.00465013
0.010117
-0.0020289
0.00180691
0.00148651
0.00248369
0.00428783
-0.144456
-0.0407247
0.00494817
-0.0187119
0.00424906
-0.0193779
0.0189511
6.39097e-05
0.00160853
-0.00309199
0.00472991
-0.00247918
0.00607827
0.017326
0.0027702
-0.00467408
0.00273813
0.00464382
0.00514574
0.00311399
0.0159219
-0.00897469
-0.0807269
0.0011665
-0.00246328
0.00557694
-0.029857
-0.00318789
-0.0632313
-0.00268913
-0.00274134
0.000311048
-0.0463192
-0.0110803
0.00346317
-0.0333276
-0.000138593
-0.00301389
0.00354307
-0.000583396
0.00450867
0.0025493
-0.0178727
-0.013456
-0.00521905
0.0168776
0.0267577
-0.0109045
-0.0275396
0.000813253
-0.0197587
0.00542096
0.00539706
0.00503671
0.000450185
-0.0010601
-0.0255886
0.00565781
-0.0470473
0.011858
0.00188846
0.00681296
0.00534882
0.0105469
0.00401062
0.004376
0.0231814
-0.00105428
0.00516894
0.000771683
0.0178009
-0.0528767
-0.00265573
0.00514958
0.0017913
-0.0978648
0.00801045
-0.0457017
-0.0336184
-0.00203703
-0.000826252
-0.0054902
0.00384677
-0.0104517
0.00456699
-0.00229371
-0.0013701
-0.0376626
0.00133134
-0.00159808
0.00939516
-0.0212924
0.0085878
-0.0129106
-0.00907279
-0.0141626
-0.00377114
0.00742301
0.00550455
-0.0262049
-0.0761061
-0.00969072
0.00128409
-0.00542679
-0.00372217
0.000795268
0.00650712
-0.00103736
0.0152475
-6.51226e-05
0.0262398
0.00513926
-0.0116028
-0.00367935
0.000655848
0.00105818
0.00308598
0.0149275
0.00706977
-0.0064892
-0.00963543
0.000441184
-0.00161403
-0.0791191
0.00103654
-0.000308025
-0.00471194
0.00272945
0.0278727
-0.00189584
0.00555789
-0.00264841
-0.00167998
0.000671683
0.0223924
-0.00167514
0.0132879
-0.00178996
0.00333534
0.00835987
-0.00414084
-0.0178867
-0.00718711
0.00232557
0.00537681
0.00124664
-0.0870329
0.00323395
-0.00947622
-0.00695885
0.00230204
0.00229882
-0.011453
0.000814203
0.00542278
-0.00330024
0.0125672
0.00573449
0.00563495
0.00475614
0.00790227
-0.00606005
-0.0443164
-0.00207328
0.0016068
0.00732782
0.00230712
-0.0115389
-0.0285086
0.00686396
-0.014594
-0.00103529
-0.0191591
0.00537971
-0.0955354
0.00539262
0.00342185
0.00909151
0.000403621
0.00010284
0.00616399
0.00185331
0.00313112
-0.00553526
0.00541664
-0.0146098
-0.00622876
-0.000106898
-0.00313245
0.00320378
-0.00211671
-0.0279527
0.000278803
0.00300248
0.00319601
0.00281812
0.000173602
0.0100147
-0.0264394
-0.0267762
-0.00068894
0.0045824
-0.0189379
-0.00291659
0.00067948
-0.100572
-0.0316845
0.00640493
0.00175499
0.00871688
-0.00404258
0.00627849
-0.00787289
0.0022053
0.00529567
0.00198834
0.00677069
-0.0427609
0.00563073
0.0021871
0.0127048
-0.0885342
-0.0373437
-0.02701
0.00108164
0.00254743
0.00276259
0.00361047
-0.00700859
0.00718784
-0.0193076
-0.0195109
0.00148299
-0.000424707
-0.00419298
0.00101505
0.00376863
-0.0103292
0.00416789
0.0112097
0.00209034
-0.00239261
0.00169561
0.00539856
0.00407759
0.0055087
-0.00180538
-0.000275042
0.00410409
0.000369431
0.00422356
0.00200172
-0.00786797
0.000662983
0.00388241
-0.0116487
-0.0128604
-0.00874227
-0.012009
0.00175118
-0.00128821
0.0115889
0.00125768
0.00143957
-0.0225171
0.00537262
0.000891536
0.00259466
-0.00787438
0.00452291
0.00970281
-0.00366402
-0.0104736
0.00450055
0.004817
0.00552297
0.00198331
0.00780163
0.00151453
-0.00757302
-0.0278909
0.000434315
0.00386499
0.00725087
-0.00315178
-0.00783921
0.00952564
-0.0426834
-0.000395274
0.00303451
0.0031845
-0.00472159
0.000880762
0.00671039
0.0044362
0.00716023
0.00288451
0.00604304
0.0169021
0.00440355
-0.0674785
-0.0578421
0.0012678
0.0116312
0.00317678
0.00236395
0.0017701
-0.005265
0.00572766
0.000915953
0.00272676
0.00358508
0.0218235
-0.00234549
0.00445668
-0.00879788
0.00564204
0.00228484
0.00231006
-0.000141942
0.00566974
0.00192062
0.00272119
0.00125212
0.00178007
-0.00229478
-0.112624
0.00649274
0.00290965
0.00889492
-0.00960869
0.00303413
0.00643168
0.00473535
0.00576931
0.00145696
0.00484252
-0.0712272
-0.00774381
0.00325046
0.00380578
-0.0120189
0.000943141
0.00595281
-0.00566345
0.00378249
-0.0298842
-0.00265961
0.0102757
0.00159469
0.00481723
-0.0207602
-0.0179156
0.00457225
0.00372577
0.0036161
0.00305501
0.020769
0.00306906
0.00908439
-0.000684913
0.00238806
-0.0409552
0.0132449
0.00419263
0.00549475
0.00940176
0.00919838
0.00208788
0.00482528
0.00381157
0.00249405
0.00239551
0.00333136
0.00273687
0.00272753
0.00217855
0.00495818
0.0043082
0.00293094
-0.107119
0.00377076
0.00411294
-0.0119269
0.00533767
0.00595117
0.00493538
0.00431553
0.00222011
-0.039834
0.00122374
-0.00245578
0.0123837
0.00728149
0.0208693
0.00308006
-0.0141192
0.00832915
-0.0520165
-0.00471112
0.00020205
0.00375601
0.00108178
0.000980781
0.0126168
-0.000402848
0.00498245
0.000601972
0.00777097
-0.0584439
-0.00328512
0.00482225
0.00530728
0.00580856
0.00387118
-0.0134907
0.0118807
0.0124327
-0.0350146
0.00618298
0.00417704
0.00320727
0.0031025
0.00379307
0.0127821
0.00535249
0.0129985
0.00198215
0.00212661
0.00511565
-0.0871789
0.0026997
0.00522051
0.00452059
0.00709127
0.00520477
0.00298232
0.00532576
0.00647902
-0.000590419
0.00664863
0.00240796
-0.00359118
0.0250603
0.00808579
0.00316362
0.00185426
0.00557935
0.00710519
0.00128445
0.00251827
-0.00375107
0.00530567
0.00491041
0.00530702
0.00542724
0.010272
0.00440956
-0.00247393
0.00351714
0.000989827
0.00363998
0.00358022
0.00367053
0.00300916
0.00426125
0.00524989
0.00202062
0.00556356
0.0100362
0.0122098
0.00859245
-0.0705107
0.00498573
0.0101509
0.00204044
0.00668728
0.00389776
0.0111095
0.00537901
0.0020206
0.00478815
0.0101804
0.00312576
0.00248598
0.00854563
0.00449052
0.004759
0.00480341
0.00275474
-0.0109305
0.00545633
-0.00683533
-0.00209499
0.00413119
0.00834349
0.00503356
-0.0435775
0.00423438
0.00581978
0.00253064
-0.0517218
0.00671206
0.00469034
0.00933358
0.0235245
-0.0316851
0.0124814
0.00364875
0.00185749
0.00292269
-0.0140196
0.00992641
0.004515
0.00854121
0.0060282
0.00501408
-0.0221009
0.00565008
0.00283767
0.00928726
0.0120739
-0.00674244
0.00446887
0.0046301
0.00419457
0.00534866
0.00374692
0.00515538
0.00508344
0.00511169
-0.00156623
-0.118703
0.000622761
0.0023539
0.00332687
0.00261773
0.0042679
-0.00544821
0.00121117
0.00619848
0.00583593
0.00561125
0.00405992
0.00308959
0.00543905
-0.0296992
0.00282577
0.00438655
-0.107044
-0.0188242
0.00496461
0.0089779
0.00389185
0.00304191
0.00520998
0.00557647
0.00487473
0.00655189
0.00858447
0.00518205
0.00469447
0.00488534
0.00269404
0.00513443
0.00532135
0.0079872
0.00527986
0.00608357
0.00536415
0.00524216
-0.00839932
0.00139836
0.00587017
0.0170104
0.00633709
0.00507054
-0.00334847
-0.0255294
-0.0187731
0.0226271
-0.0578153
0.00570852
0.00159264
0.00233567
-0.0463986
0.00655677
-0.00431956
-0.0133732
-0.00267989
-0.0180339
-0.00887535
0.00180653
0.00794751
-0.00172349
-0.00816404
0.00521387
-0.0497306
0.000824243
0.00570745
0.0152278
0.00499132
0.00556452
0.00269677
-0.00519985
0.000493482
-0.000651135
0.00604479
-0.0589674
0.00543298
0.00527323
0.00201349
0.00448165
0.00481898
0.00755054
-0.00918125
0.00505379
0.00540368
0.00667033
0.00307466
-0.0091999
0.00317576
0.00526542
0.00221167
0.00251301
0.00490195
0.00307041
-0.00570221
0.00432396
-0.000337638
0.00313993
0.00581109
0.00529642
0.00285432
-0.000126118
0.00477374
0.00569639
0.00625631
0.00418356
-0.0283388
0.00446175
-0.00893148
0.00428015
0.00695438
0.00381018
0.00259731
0.00510086
0.00478938
0.00430791
0.00190407
0.00146939
0.0210093
0.0036762
-0.0028488
-0.0102828
0.0024994
0.0055214
0.0111206
7.18097e-05
0.00339227
0.00266186
0.00650394
0.00585522
-0.0157583
0.00293827
0.00602074
0.00236427
0.00403501
0.00126268
0.00458079
0.0137605
-5.86233e-06
0.000396782
-0.0122396
0.00580805
0.0057653
0.0052098
0.00435091
0.00192691
0.00109555
0.00394525
0.00364723
-0.000143053
0.0069479
0.0049207
0.00272556
0.00280739
0.00281782
0.00676615
-0.00379159
-0.033523
0.00439051
0.00800033
0.000899565
0.00366797
0.00533022
0.00377327
0.00518613
-0.010709
0.0041055
-0.000896664
0.00396594
0.00461188
0.00506321
0.0030338
0.00656124
-0.0101228
0.0039101
0.00473014
-0.00886987
0.00384654
0.00510103
0.013282
-0.0141269
0.00308435
0.00542826
0.00577338
0.00562055
0.00497621
-0.015107
0.00503837
-0.00841421
0.00109904
-0.0112005
0.00494051
0.0029025
0.00330468
0.00376288
0.00796321
0.00671492
0.00640363
0.00274188
0.00473708
0.00684913
0.00528161
0.00508957
0.00528483
0.0043601
0.00452954
0.0047864
0.00362052
-0.0480521
0.00340356
-0.0302159
0.00369327
-0.048037
0.00108115
0.00279999
0.00107339
-0.0186758
-0.000984147
0.00279962
0.0118446
0.00615236
0.00435487
0.0052528
-0.0142159
0.00545648
0.00743874
-0.0121107
0.00452425
-0.0110413
-0.000639499
0.0115705
0.0127225
0.000129846
0.00577261
0.0114147
0.0210073
0.00550037
-0.00566521
0.00494167
0.0046198
0.0055495
0.00400268
0.00551154
0.00282509
0.0092555
0.00469182
-0.0111267
-0.000137882
0.00265258
0.00599255
0.00299488
0.00554063
0.00552883
-0.035239
0.0105914
0.00166229
0.00667127
0.00472735
0.0109498
0.00871068
0.0041864
-0.0701858
0.00288686
0.0025078
0.00290743
0.0016078
0.00393434
-0.00129579
0.00596664
0.00545263
0.00578897
0.0042798
0.00538416
0.00119618
0.0024164
0.00574621
0.00652289
0.00498926
0.00289645
0.00867666
0.00702282
0.0304484
-0.0462378
0.00585724
0.00518895
-0.00150776
0.00532389
0.0033267
0.00673107
0.00529566
0.00566429
0.00339192
-0.0185105
0.00447421
0.00597426
0.00166185
0.00597896
0.00685662
0.0110875
0.00664581
0.00591373
0.00562463
-0.00470096
0.00695478
0.0019487
0.00506977
0.00504253
0.00532715
0.0020394
0.00499936
-0.0308336
0.00442716
0.00556489
0.0113288
0.00560486
-0.000668668
0.00512085
0.00511059
0.0012957
0.00631402
0.00436105
0.00529547
-0.0101935
0.00529011
0.00503979
-0.00779985
0.00258476
0.00789408
0.00588674
0.00749505
-0.062139
0.00380046
0.0114379
0.00522258
0.00590659
-0.0120326
0.00660419
-0.0239461
0.00497523
0.00573719
0.00580898
-0.00274309
0.00409997
0.00366563
-0.0196873
0.00562786
0.00544361
0.00588505
0.00547094
0.00447313
0.0066378
0.00653277
0.00544516
0.00648003
0.00548993
0.00580091
0.00690305
0.00462144
0.0056185
0.00445498
0.00248795
0.00618987
-0.00746136
0.00191676
0.00552954
0.0052391
0.00590007
0.00313242
0.00301358
-0.0221386
-0.0708942
0.00715032
0.0142063
0.0050503
-0.000973587
0.0019091
-0.00923859
-0.00447726
0.00538578
-0.0184992
0.00364276
0.00558629
0.00555679
0.00560233
0.00527971
0.00405888
-0.0222797
0.00280206
0.00595588
0.00568005
0.00695739
0.00432831
0.00501053
0.0134152
0.00687005
0.00805814
-0.0190499
0.00429258
-0.00637262
0.00453199
0.00599798
0.00522829
-0.00303072
-0.00606075
0.00641903
-0.0131414
0.00375786
-0.072693
0.00578184
0.00415157
0.00489999
0.00397441
0.00618118
0.00567101
0.00905969
0.00311882
0.0067021
0.0054982
-0.00637086
0.00193635
0.000448508
0.00783514
0.00749491
0.00566883
0.0058732
0.00403787
0.00238967
0.0114935
0.00331763
0.00364111
0.00575775
0.00831565
0.00978332
0.00489199
-0.0228593
0.00566766
-0.0020608
0.00528041
0.00529197
-0.000187398
0.00957299
0.00601345
0.00533435
0.00240057
0.00277136
0.00150491
0.00790304
0.008684
0.00781581
-0.00143276
0.00519005
0.00432036
0.00422914
0.0086094
-0.0254097
0.00181296
0.00596594
0.00645905
-0.0269579
0.0100929
0.00586436
0.00758286
-0.00998981
0.00571318
0.00519687
0.00304979
0.00360741
-0.0104606
-0.0138678
0.00705696
0.00559285
0.00580968
-0.00330857
0.00495086
0.00551363
0.00487408
-0.00826679
0.00543385
0.00468722
0.00679895
0.00645514
0.00413713
0.0062888
0.0030696
0.00359733
0.00605475
0.0061328
-0.0321685
0.00578331
-0.00566519
0.00201685
-0.0101092
-0.0265918
0.00672461
-0.0375438
0.00549116
0.00232159
0.00585471
0.00549319
0.0058665
0.00595178
0.00287586
0.00152255
0.00525201
0.00508574
0.00650714
0.00575384
0.00652933
0.00580183
-0.056663
0.00614339
0.00348093
0.00790907
0.00898113
0.00486479
0.00296535
-0.0197726
0.00478947
-0.0200736
-0.0257983
0.0065038
-0.00371844
0.0105154
0.00900021
0.00830643
0.00482552
0.00578049
0.0055041
0.00821838
-0.0180644
0.00850853
0.00842998
0.005392
-0.00845105
0.00660574
-0.000926038
0.00843968
0.00404728
0.00571235
-0.0188201
0.00795539
0.00189143
0.00523778
0.00589836
0.0058817
0.00575765
0.0051761
0.00567303
0.00694932
0.00966499
0.00770008
0.00616974
-0.0202894
-0.0233445
0.00577324
0.00572002
0.0259793
0.00678215
0.00716984
0.00573521
0.00669102
0.00570004
0.00421737
0.00388731
0.000718181
0.00372633
0.00820981
-0.00683254
0.00910363
0.0055082
-0.0430346
0.000588355
-0.0125126
0.00570719
0.00740764
-0.00775525
0.00577373
0.00526869
-0.00243167
0.00514586
0.0109021
-0.110412
0.00903669
0.00502622
0.000518723
0.00658401
0.0058726
0.00546901
0.00578038
0.00879746
0.00972937
0.00542888
0.00722599
0.00249737
0.00249217
0.00583375
0.00911687
0.00807534
0.0133119
0.00651552
0.00406298
-0.0316992
0.00400478
-0.0347315
-0.0155509
0.00871661
-0.0215116
0.00192889
0.00654246
0.00279038
0.00112688
0.00590151
0.00300867
-0.0533673
-0.0173404
0.0132726
0.00129538
0.00868856
0.00547609
0.00578039
0.024647
-0.029777
0.00574795
0.00606492
0.00510128
0.00215641
0.00592948
0.00571528
0.00501075
0.00205626
-0.00764834
-0.000752809
0.00539816
0.0054715
-0.0145215
0.00336168
0.00574725
-0.0215046
0.00400918
-0.0304246
0.00922319
0.00402234
-0.0151716
0.00661342
0.00799315
0.00244975
0.0200755
0.00498055
0.0064862
0.00510335
0.00279706
0.00562347
0.00706647
-0.00556746
-0.00412088
0.00573902
0.00914585
0.00380401
0.00532024
0.0056993
-0.0426268
0.00416809
-0.0658562
-0.0102515
-0.0216303
0.0057124
0.00449531
-0.000361854
0.00712286
-0.00429877
0.00835301
0.00573453
0.00369183
0.00507247
0.0031384
0.00578728
0.0108244
0.0057489
-0.0303799
0.00528187
0.000387506
0.0182164
0.00287681
0.0100709
-0.0212255
0.00607483
0.0056478
0.00504442
0.00800395
0.00139264
0.00479193
0.00620581
0.00608564
0.00501849
0.00657182
0.00862288
0.005676
0.00604318
0.0018788
-0.0362694
0.00168672
-0.00938231
-0.00180355
0.00701236
0.00442385
0.0130048
0.00455393
0.00671665
0.00123371
0.00121232
0.00576827
0.00556305
-0.0199553
0.0036256
0.00762002
0.00501672
0.0077544
-0.00101594
0.00394129
0.00439401
0.00343759
-0.0174432
0.00758129
0.001079
0.00556872
0.00475609
0.00867435
-0.00761848
-0.0140489
-0.0168077
0.00467682
0.0014371
0.00573149