/*--------------------------------*- C++ -*----------------------------------*\
| =========                 |                                                 |
| \\      /  F ield         | OpenFOAM: The Open Source CFD Toolbox           |
|  \\    /   O peration     | Version:  v2012                                 |
|   \\  /    A nd           | Website:  www.openfoam.com                      |
|    \\/     M anipulation  |                                                 |
\*---------------------------------------------------------------------------*/
FoamFile
{
    version     2.0;
    format      ascii;
    class       surfaceScalarField;
    location    "350";
    object      phi;
}
// * * * * * * * * * * * * * * * * * * * * * * * * * * * * * * * * * * * * * //

dimensions      [0 3 -1 0 0 0 0];
oriented        oriented;


internalField   nonuniform List<scalar> 
14470
(
-0.116914
0.25471
-0.137794
-0.00565183
0.0064149
-0.203285
-0.20141
0.404775
-0.00443982
-0.000785294
0.00522512
-0.365236
-0.213403
0.5788
0.0970558
0.0487808
-0.145835
-0.168435
0.084831
0.0836077
0.00671041
-0.00666819
-4.22202e-05
-0.196025
0.353386
-0.157379
0.703286
-0.371082
-0.332097
0.318634
0.384745
0.651143
-0.40612
-0.245212
0.0151062
-2.94246e-05
-0.0150781
-0.0327442
-0.340504
0.373454
-0.226355
-0.0653743
0.291832
0.0990652
0.11528
-0.214327
-0.243121
0.468741
-0.22581
0.00261126
-0.00548077
0.00286952
-0.530994
0.0801983
0.450764
-0.524799
0.359145
0.165593
0.32203
0.274985
-0.00501659
0.00912361
-0.00410701
0.000867326
0.00584308
0.0125674
0.00253728
0.212941
-0.0884319
-0.124506
-0.0888915
0.481831
-0.392966
-0.568368
-0.0345853
0.60279
-0.469383
-0.0616306
-0.0628797
0.15857
-0.0956876
-0.0149667
0.0162556
-0.00128888
0.0663551
0.0765437
-0.142899
-0.254036
-0.188646
0.442899
-0.525688
0.343346
0.182372
0.573285
-0.587221
0.0138238
0.277693
-0.199421
-0.0782409
0.184419
-0.345387
0.160958
-0.225399
0.157894
0.0675199
-0.0139224
0.0125241
0.00139804
-0.0382244
-0.172497
0.210738
-0.173029
0.110151
0.0891345
-0.101133
0.0119989
-0.00778168
0.00239919
0.00538255
-0.6127
0.0443775
-0.458772
0.320105
0.138642
0.542501
-0.287758
-0.254808
-0.0127602
0.0146384
-0.00187824
0.597314
-0.354695
-0.24251
-0.494714
0.204153
0.290402
-0.454922
0.211639
0.178284
0.0994568
0.160647
0.412437
-0.102913
-0.0976652
0.200595
0.347539
0.24989
-0.0396533
-0.123186
0.162843
-0.00615849
0.00171869
0.389514
-0.573444
0.183676
-0.19049
0.11873
0.0717615
-0.296785
-0.198061
0.242319
-0.0889637
0.176447
-0.0874752
-0.127846
0.0887673
0.0390787
0.274986
0.154896
-0.429833
0.0841769
-0.238772
0.154619
-0.651325
0.329729
0.321052
-0.37114
0.175086
0.0132946
-0.0132946
0.309338
-0.179939
-0.129351
-0.3364
0.213772
0.122635
-0.00217313
0.00450979
-0.0023364
-0.0490117
0.254729
-0.205704
-0.064935
0.0435711
0.0213635
0.010307
-0.00250088
-0.0078061
0.0316336
0.0544868
-0.0861026
-0.0175592
0.00144507
0.0161139
-0.510984
-0.0202141
0.531292
0.0725065
0.058368
-0.130872
-0.0012882
0.0575462
-0.0562577
-0.202959
0.420954
-0.217931
0.290618
0.288192
-0.578728
0.0973322
-0.0248251
0.00614786
-0.00353655
-0.0992487
0.198327
-0.134053
0.293988
-0.159909
-0.151972
0.0833602
-0.152327
0.0689686
-0.272087
0.56293
-0.0848361
-0.135121
0.22001
-0.0140353
0.000112463
-0.0946297
-0.0332162
0.00228679
0.00562259
-0.00790935
-0.144053
0.0963572
0.0476966
-0.0632372
-0.0808157
-0.181447
-0.0267796
0.208238
-0.00459582
-0.00318577
-0.241748
0.485111
-0.243431
-0.0169011
-0.000658104
0.0967462
-0.189112
0.0923777
-0.124302
0.264478
-0.140141
-0.634113
0.269005
0.00638561
-0.0164434
0.0100576
-0.202327
0.0994395
-0.02513
0.0433889
-0.0182436
-0.241122
-0.217671
-0.00473555
0.00840403
-0.00366669
0.00050566
-0.0325561
0.0320507
-0.0757956
0.107445
0.197455
0.31758
-0.51509
0.207587
-0.41052
-0.311975
-0.24642
-0.276071
0.522529
-0.00856118
0.00354461
-0.00518527
0.0104399
-0.00525464
0.0134024
-0.0139499
0.000547534
-0.270752
0.22174
-0.639419
0.226644
0.413033
-0.405567
0.187208
0.218432
0.279187
-0.502103
0.222747
0.00509108
-1.03444e-05
-0.00508075
-0.415182
0.0272966
0.38786
-0.00228057
-0.00710718
0.00938915
0.129146
-0.213937
0.00874181
0.0189531
-0.0276942
-0.234411
0.138679
0.0957474
-0.209268
-0.136131
0.0449898
-0.460228
-0.0532201
0.182952
-0.129719
-0.0142715
-0.000695175
0.168939
-0.0360341
-0.132903
0.0335424
0.1354
-0.147935
0.278266
-0.130363
-0.0857601
0.413933
-0.328147
-0.246942
0.130023
0.186016
-0.30285
0.116884
0.0806852
0.174704
-0.255366
0.156262
-0.120542
-0.0357177
-0.160233
0.108178
0.0520547
-0.133592
-0.271915
0.11608
-0.627032
-0.0606142
0.14492
-0.0842978
0.00659664
-0.00188113
-0.00471536
-0.118705
-0.0660226
0.311943
-0.246046
-0.222905
0.130957
0.0919893
0.0129062
-0.0108164
-0.00208979
0.122002
-0.0798742
-0.0421274
0.356977
-0.46451
-0.0128326
-0.00406849
-0.36431
0.278529
0.401928
0.603908
-0.300083
-0.303729
-6.69376e-05
0.0103632
-0.0102963
-0.291237
0.166962
-0.419033
0.330101
-0.118173
-0.215233
0.333426
0.0758817
0.0469436
-0.122825
0.171164
-0.0558708
-0.180782
0.455722
0.122556
-0.0562012
0.245503
-0.384308
0.138829
0.0875593
-0.222634
0.140632
-0.288557
-0.148061
-0.37679
-0.057625
0.0537103
0.00391481
0.381731
-0.179323
-0.20247
0.0902755
-0.0915632
-0.022638
0.029783
-0.00712892
0.352444
-0.200278
-0.152206
0.322949
0.193423
-0.516611
0.67182
-0.348149
-0.323749
-0.274856
0.208778
0.0121739
0.000242438
-0.0124163
0.0183809
-0.0256431
0.00726223
-0.0345018
0.0283238
0.00617981
0.267165
0.383808
-0.0722287
0.169288
-0.0491494
0.125632
-0.0764818
0.0285712
0.0222274
-0.0507985
-0.225067
-0.222041
0.447133
0.315656
-0.186763
-0.128854
-0.0177444
0.0130109
0.000146043
0.211914
-0.0827295
0.20983
0.3326
0.510719
-0.251959
-0.258859
0.520264
-0.0462949
0.0550378
0.00924895
0.00105802
0.0666046
-0.0482237
-0.04392
0.0188058
0.171035
-0.382927
0.211872
-0.0038342
-0.0103401
0.0141743
-0.0292746
0.0275112
0.0017634
0.0716054
0.109443
-0.181042
0.259778
-0.429435
0.169597
0.257815
-0.131595
-0.126211
-0.00559102
0.0117811
-0.00619005
-0.116027
0.435327
-0.319583
0.330198
0.138403
0.254726
0.302769
-0.557564
-0.350717
0.235607
0.115101
-0.462694
0.3835
0.0791682
0.121275
-0.280653
0.159424
-0.138086
-0.131026
0.269131
-0.00608766
0.00220054
0.00388711
-0.148508
0.311439
-0.162966
0.134832
0.0845457
-0.219358
0.184035
0.16838
0.302902
-0.172065
-0.13083
0.0413141
-0.0792285
0.0379145
0.110562
0.00152314
0.00507362
0.183283
0.253402
-0.436853
-0.00140925
-0.000763651
-0.270442
0.136417
-0.183897
-0.0782758
0.262209
-0.306788
0.274164
0.0948089
0.0614549
-0.374346
-0.264864
0.076667
-0.110688
0.0340196
0.172643
-0.075884
-0.362955
-0.0997734
-0.00997017
-0.028303
0.0382731
0.0393644
-0.0339768
-0.00537888
-0.153678
-0.0277604
0.256702
-0.482594
0.225814
0.223367
-0.123003
-0.100345
0.0139627
0.0286107
-0.0425701
0.101702
0.00965652
-0.11136
0.0832706
0.018431
0.00465069
-0.00779164
0.00314089
-0.194698
0.16313
0.0315737
-0.297386
0.113542
0.215864
-0.131663
-0.0334107
0.00413606
-0.453256
0.274617
0.178478
-0.0104399
0.00084321
0.0125592
-0.410624
0.294236
0.27682
0.27859
-0.555385
0.0938414
-0.00470626
-0.147902
-0.22
0.367879
-0.506216
0.259869
0.220556
-0.112806
-0.107745
0.206744
-0.131914
-0.0748233
-0.200131
0.230361
0.085328
-0.0751296
0.209975
0.122333
-0.165921
0.0435978
-0.103845
-0.161357
0.265216
0.195948
-0.0481797
0.169805
-0.121619
-0.00280657
0.00187672
0.000929851
-0.556584
0.193561
-0.0399563
0.0123647
0.0275965
0.529415
-0.181712
0.393507
-0.635849
0.242037
-0.01071
-0.392234
0.402773
-0.00106744
-0.229366
0.409922
-0.180576
0.118308
-0.0424261
0.00073111
-0.00143199
0.00070136
-0.332247
-0.258444
0.590817
-0.587984
0.213705
-0.0454251
0.140378
-0.0949531
-0.489028
0.477727
-0.284499
-0.272227
0.556917
0.564592
-0.568042
0.00277216
0.000990303
-0.000259107
-0.0220907
-0.0355342
0.125912
-0.212007
0.0860819
-0.0533123
-0.0429393
0.0962517
0.128348
-0.190317
0.0619714
0.0207659
0.0116298
-0.00696933
-0.00466043
-0.382247
0.181971
-0.00421122
-0.00804724
0.0122585
-0.202832
0.563814
-0.361329
0.0405
-0.0265367
-0.0101964
-0.039275
0.0494713
0.0200878
-0.0118164
-0.0082721
0.00612439
-0.0461212
-0.148572
0.147649
0.130586
0.0969956
-0.196231
-0.258165
0.120087
-0.454784
0.300589
0.154211
-0.289471
0.0258155
0.26362
0.0874602
-0.0461461
0.156973
0.0559692
-0.189364
-0.398594
0.625948
-0.348138
-0.277863
0.403103
-0.220057
-0.636245
0.377512
0.258466
-0.197488
0.00830749
-0.00162964
-0.00667786
-0.0854364
0.477506
-0.392268
0.460329
-0.269074
-0.19106
0.563128
-0.463811
-0.0994473
-0.102214
0.491538
0.00314788
-0.00409429
0.000946403
0.0674052
0.0545974
0.0253551
-0.0771568
0.0518009
-0.289625
0.190659
0.0989886
-0.0628958
-0.15997
-0.0336302
-0.0552885
-0.0962062
0.15151
-0.00179046
0.00172355
0.177291
-0.418435
0.00573831
-0.0071702
0.139804
-0.250705
0.110923
-0.0485971
0.368725
-0.00565184
-0.131071
0.189729
-0.44353
-0.160677
0.112505
0.00195389
-0.0546942
0.182566
0.108923
-0.291472
0.0876693
-0.132409
0.044734
0.120027
0.317303
-0.197313
-0.119976
-0.012827
-0.0154462
0.0282721
0.18367
-0.0673463
-0.116321
-0.28575
-0.239912
0.255617
-0.472434
0.216773
-0.171959
-0.117639
0.0770852
-0.12148
0.0443952
-0.0057901
-0.00705747
0.0128476
0.18793
-0.391165
0.498277
-0.180682
-0.482308
0.283038
0.1992
-0.000575803
0.0127497
-0.00848224
0.00427104
-0.00487117
0.00226619
0.002605
0.259905
-0.468022
0.207952
0.128665
0.0550076
-0.0391133
0.126776
0.0577353
-0.0770037
0.0192685
-0.0743751
0.168341
-0.0939635
0.482575
-0.227872
-0.254905
0.442335
-0.260716
-0.181821
-0.250986
-0.231401
-0.102488
0.199492
-0.372781
0.183641
0.189104
-0.000437489
-0.000170999
0.000608554
-0.513647
0.0498746
0.463982
-0.283896
-0.165668
0.449477
-0.0514767
0.034247
0.0172371
0.000968779
0.00733869
-0.00216163
0.000752509
-0.408952
-0.227565
-0.005568
0.0119535
0.176718
-0.279054
0.102338
0.0444551
-0.0261276
-0.0183275
6.46984e-05
0.000254586
-0.000319248
0.00514861
-0.000497943
0.286734
-0.136572
-0.150115
-0.170826
0.132611
-0.0787919
-0.0814404
-0.00647845
0.00876527
-0.00293857
-0.162411
0.132582
0.0298335
-0.580977
0.0548999
0.525843
0.20047
-0.0745659
-0.44154
0.25062
0.19076
-0.200801
-0.304743
0.505679
-0.156899
-0.215912
-0.190438
-0.317137
0.507328
0.31181
0.285205
-0.00331974
0.00288235
0.300674
0.20487
-0.114228
-0.090633
-0.0990766
-0.11988
0.218972
0.1386
-0.0978732
-0.0407245
0.262565
0.219838
0.152107
0.141904
-0.00265817
0.000589248
0.00206892
0.00944044
-0.0289781
0.0195376
0.00760665
0.0118262
-0.0194362
-0.18291
0.108541
0.193332
-0.477444
0.137831
0.148946
-0.438231
0.236865
0.134895
-0.0863415
-0.0485532
-0.591835
0.0540303
0.537289
-0.00060941
-0.00155209
0.0440446
0.0657443
-0.109789
-0.0362396
-0.132194
-0.00687261
0.00200146
0.0218767
-0.0347047
0.345128
-0.560568
0.215818
0.292905
0.133371
-0.426294
-0.0241479
0.132326
0.0552018
0.0796934
0.17938
-0.327963
0.00499432
-0.00492961
0.557974
-0.212383
-0.195149
-0.34174
0.536617
0.0379523
-0.0481487
0.444264
-0.191164
-0.0621396
-0.193507
0.0204696
0.00932959
-0.0230969
-0.490441
0.140815
0.240859
-0.0407349
0.0332428
0.00749673
-0.0340268
-0.0309085
0.260654
-0.0894722
-0.171168
-0.109866
0.181478
-0.03952
-0.380123
0.419488
-0.202535
0.346974
-0.144554
0.026912
-0.00795825
-0.0988389
-0.0902615
0.278418
0.175803
-0.454517
-0.262991
-0.267257
0.53036
-0.130407
0.090758
-0.0956523
0.137688
-0.0420398
0.137427
0.12324
-0.0119191
0.00110269
-0.285447
0.539999
-0.0141955
0.35761
-0.0397038
-0.0253298
0.0650337
0.395708
-0.4354
-0.00288123
7.46543e-05
-0.0283806
0.0569519
0.28216
0.228466
0.268842
-0.47512
0.20648
-0.295493
0.0059934
0.226239
0.466297
-0.183395
-0.0120081
-0.00443529
0.0863228
-0.115609
0.070184
-0.0498351
0.145169
0.164233
-0.30936
-0.136679
-0.0977188
-0.121047
-0.104338
-0.00649299
0.00648263
-0.168661
0.0797089
0.431443
-0.644765
0.122615
0.116577
-0.0491711
0.355835
-0.153581
-0.20227
-0.016148
0.261662
-0.0959941
-0.0730101
-0.519367
-0.243007
0.483458
-0.240543
0.225569
-0.416015
0.190473
-0.199863
0.478929
0.363248
0.212928
-0.575977
-0.296113
0.177718
0.118396
-0.12786
-0.130298
0.127985
0.0925747
-0.52614
-0.0108653
0.536162
0.0106529
-0.0162439
0.218855
-0.133389
-0.0854668
-0.0586517
0.102697
0.00982606
0.00180369
-0.194991
-0.0212199
-0.0302399
0.155725
-0.0708898
-0.178641
-0.25086
0.471382
0.00834528
-0.479912
-0.120669
-0.209536
0.330067
0.000591088
0.0175531
-0.0181418
-0.119597
-0.0707177
0.525189
-0.254394
0.53927
-0.284608
0.534005
-0.231506
-0.0427481
-0.0105185
0.0532664
0.0804602
-0.129609
0.0580522
-0.438586
-0.213301
-0.296902
0.178723
0.148056
-0.0622798
-0.0857727
0.00227815
0.0123603
0.00981895
0.0102684
-0.226572
0.171621
0.054947
0.302975
-0.147848
-0.155062
-0.0100369
-0.0299149
0.0161183
0.0741577
0.16618
-0.161639
-0.00453313
-0.186174
-0.126788
0.312923
-0.167492
0.423475
-0.255968
-0.00506026
-0.0010274
0.280612
0.157546
-0.438338
0.0681212
0.0575121
0.0253337
-0.0964949
0.0711626
-0.253005
0.531208
-0.0682647
0.0461742
0.145174
0.0972955
-0.242443
-0.0026741
0.00851076
-0.0058367
0.17594
-0.378599
-0.0027573
0.00654026
-0.00378295
0.155544
-0.0352094
-0.120334
0.0883304
-0.314588
0.115674
0.0247052
0.193401
-0.435288
-0.0237913
0.0815267
-0.621512
0.246694
0.374878
0.122011
0.331753
-0.453829
-0.592045
0.24414
-0.254604
-0.200472
0.00718378
0.295827
0.189207
0.489943
-0.150766
-0.339307
-0.272195
0.190671
0.081542
-0.232592
-0.235602
0.246504
0.0542328
0.106479
-0.160705
0.100724
-0.28219
0.181504
-0.0989499
-0.590741
0.417424
0.173389
-0.409781
-0.180941
-0.00222539
-0.000432781
-0.0516731
-0.00242204
0.0540946
-0.13115
-0.0954251
-0.0221347
-0.268951
0.141097
0.353003
-0.205351
-0.14766
-0.399097
0.341485
0.124713
0.00394705
-0.0016808
0.193023
0.585958
-0.647833
0.061392
0.015564
-0.014615
-0.000948924
-0.0525346
-0.0485976
-0.0409954
0.163333
-0.508731
0.58229
-0.307152
0.297237
-0.138526
-0.158724
-0.281647
-0.257657
0.539265
0.0366605
-0.00905985
-0.103563
0.286121
0.0306364
-0.0459313
0.0153156
0.335785
-0.185914
-0.149897
0.017318
-0.0272882
0.563484
-0.275163
0.00120053
0.0120941
-0.572308
0.0644236
0.50723
-0.0439654
0.121051
-0.440797
0.281181
0.159492
-0.253388
0.168116
0.0853111
-0.000165874
0.0020426
-0.334025
-0.28739
-0.0549696
0.00258448
0.0523857
0.220842
0.174739
-0.395462
-0.395271
-0.223969
0.619133
-0.274176
0.439662
-0.0324374
0.00386071
0.0285761
0.0038385
-0.00163796
0.191187
0.229744
-0.237537
0.029334
-0.439458
-0.0875355
0.146514
0.0232938
-0.00625931
0.00350204
0.157062
0.000843458
-0.533615
-0.00770747
0.540624
-0.0626447
0.121015
-0.520286
0.531739
-0.0114981
0.335479
-0.0382613
0.445664
-0.265085
-0.180661
0.204869
-0.076877
0.319876
-0.562904
0.242539
0.00164535
-0.0356173
0.000828828
-0.410781
-0.388102
0.247734
0.140362
0.271829
-0.177043
-0.0947528
0.0728415
0.0187714
-0.0916115
-0.148616
0.12726
0.0213568
0.174014
-0.442884
-0.0110165
0.414902
-0.0416481
0.122109
0.377041
-0.165403
-0.211582
-0.199294
0.383269
0.473894
-0.407763
0.408319
0.310341
-0.0878785
0.0462309
-0.138202
-0.159131
-0.0569033
0.00193431
-0.0614527
0.142621
-0.081166
-0.0990984
0.120731
-0.0216289
-0.0851009
-0.0836099
0.168718
-0.0186154
0.0565677
-0.112302
0.298362
0.0171441
0.0195197
-0.00327381
0.00696175
-0.0036879
0.0705231
-0.114488
-0.0723354
0.0939228
-0.0215871
0.124251
-0.0989161
-0.0533579
0.111899
0.223574
-0.00952122
0.00373112
0.12473
0.147143
-0.378709
0.101039
-0.0305159
-0.0193208
-0.500951
0.0341479
0.153793
-0.194781
0.0808581
0.0733718
-0.154225
-0.15488
0.132842
0.0220375
-0.00699314
0.00796189
-0.0104497
0.00242337
0.00802633
-0.27442
0.0974072
-0.0825782
0.163444
0.549592
-0.272781
0.0824447
-0.0892058
0.00676124
0.105368
-0.195367
-0.245563
-0.352552
0.195589
-0.158975
0.331504
-0.172475
-0.195342
0.0965121
-0.00428612
-0.00350557
0.050234
-0.0931734
-0.00307068
0.0110948
-0.00802414
-0.119424
-0.183379
0.195751
0.0620701
-0.0106799
0.00800574
0.0271584
0.00738211
-0.0345407
-0.168786
-0.139462
0.308366
0.097609
-0.189254
0.0916539
0.221907
0.0810061
0.0337177
0.0107375
0.00697489
-0.0477002
-0.220103
-0.0336925
0.0590471
-0.0816279
0.0419243
-0.0081887
-0.00226091
-0.171548
0.500946
0.11203
-0.000108114
-0.0171023
0.0172107
0.2708
-0.149482
0.00599934
-0.0522931
-0.0694997
-0.183849
0.0161887
0.122413
-0.215693
0.104602
0.111096
-0.2922
-0.0858072
-0.264508
0.350303
-0.3963
0.181127
0.0336785
-0.153809
0.12013
0.574756
-0.332458
-0.110587
0.144266
0.078473
0.0867535
-0.165225
0.164044
-0.0747477
-0.0892951
-0.336376
0.598851
-0.262525
-0.64383
0.360789
0.28283
0.14401
-0.301087
0.157105
0.19862
-0.336752
0.138148
-0.352297
0.512869
0.209981
-0.357931
0.0767732
-0.138222
-0.0168631
0.0174562
0.00452115
-0.0386521
-0.542414
0.0233448
-0.109686
0.616588
-0.305893
-0.311156
-0.00876816
0.00549438
0.273336
-0.146143
-0.127145
-0.0606186
-0.060849
0.121468
-0.134771
0.0571157
0.0984289
0.0866236
-0.39239
0.305661
0.202434
0.40155
-0.126223
0.063582
0.438606
0.222571
-0.361142
-0.0780389
-0.120691
0.198743
-0.0114151
-0.000982476
0.012397
0.248254
0.135235
-0.120269
-0.010352
-0.00869219
0.0190435
0.142288
-0.246109
0.0250519
-0.0178388
0.00748575
0.411493
-0.18594
0.119438
-0.2558
0.190507
-0.131007
-0.251934
0.195548
-0.469833
-0.0253645
0.0679196
-0.0425555
-0.0205093
-0.00615611
-0.00408323
0.0102393
0.201483
0.15434
0.419133
-0.163555
0.263064
-0.447883
0.184921
0.149566
-0.344304
0.194805
-0.182854
0.283618
-0.123694
-0.14672
0.0162494
-0.0474541
0.0312046
0.170364
0.103023
-0.196934
0.108455
-0.0923356
-0.102328
0.0560329
-0.155126
-0.199875
0.422441
0.000226145
-0.0115122
0.0112861
0.309258
-0.161636
0.562897
-0.285314
-0.278154
0.0805742
0.0834713
0.00932539
0.00245569
0.461714
-0.286148
-0.487757
-0.283303
0.302137
0.387089
-0.300534
-0.0585291
0.0619387
-0.136878
0.0749402
0.361218
-0.220822
-0.140374
0.154066
0.0508087
-0.312734
0.144082
0.166544
-0.366462
-0.0257869
-0.122828
-0.00924312
0.00449709
0.00474608
0.0958298
0.0853442
-0.18117
-0.497511
0.197536
-0.360266
-0.0749174
0.43507
0.100158
0.0239987
-0.124151
-0.0592064
0.117567
-0.146345
0.0287813
0.453348
-0.126214
-0.327249
0.380833
-0.159977
-0.0116333
-0.00231666
-0.0132648
-0.247614
-0.0591998
0.177931
-0.0836204
0.0303396
0.0532807
0.390039
0.289518
-0.400539
0.280546
0.119973
-0.00261014
0.00582267
-0.00321248
0.5098
0.0756169
0.248877
0.00166465
-0.00814303
-0.107295
-0.0475843
-0.0456191
0.12898
-0.0875841
-0.0448302
-0.289932
-0.283729
-0.00426679
-0.00497626
0.244068
-0.447312
0.15789
-0.403284
0.245391
-0.225418
-0.17515
0.105247
0.0883015
-0.193536
0.00398176
-0.00481712
0.00083536
0.519526
-0.126328
0.23073
0.179171
0.335744
0.102776
-0.186829
0.326205
-0.282013
0.196218
-0.0682736
-0.00406156
-0.0629145
0.168174
-0.130808
-0.165308
0.356574
0.192159
-0.548995
-0.186093
0.142471
0.0404899
0.123573
0.168345
0.0830063
0.560725
-0.15446
0.417579
0.258113
-0.0541581
-0.203894
-0.00314021
0.000258978
0.019362
0.00140322
-0.0207661
-0.169454
0.314648
-0.00922679
0.537996
-0.259419
-0.122914
-0.0927765
0.042718
-0.123287
0.0805699
-0.00737291
-0.00809961
0.0154725
-0.149434
0.38697
-0.23751
-0.317461
-0.0206877
-0.00922382
0.0299114
0.142323
0.0810577
0.303322
0.259005
0.279115
-0.0324867
0.0341361
0.302209
-0.582406
0.28021
-0.0795071
-0.0935205
0.458764
0.0193233
-0.00988286
-0.558432
0.286282
-0.726175
0.439017
0.28625
-0.534684
0.280427
-0.100222
-0.116336
0.216559
0.334501
-0.135908
-0.129745
-0.0822741
-0.102843
-0.0595642
-0.046349
0.0429006
0.00344814
-0.334881
0.249198
-0.468383
0.225251
0.399295
0.199497
-0.00478189
0.336468
0.301006
-0.321289
0.0202768
0.183346
0.172301
-0.355692
0.111671
0.205497
0.204224
-0.0742708
-0.129927
0.0192909
-0.0116876
-0.198957
0.0964735
0.0991057
-0.177134
0.264138
0.194607
0.00103383
-0.0134227
0.0123889
0.0535122
-0.0808487
0.0273485
-0.260067
0.455397
-0.0303378
5.69164e-05
0.030278
-0.0146237
0.000352115
-0.347779
-0.0125531
0.407969
0.481238
-0.260018
-0.221186
-0.064216
-0.0910915
0.155311
-0.0238262
0.228085
-0.0125582
0.276482
0.181212
-0.287859
0.106718
-0.180711
-0.330489
0.510914
0.14525
-0.287984
-0.439058
0.159302
-0.106094
-0.0532083
0.0737486
0.227237
-0.0720267
-0.080299
0.260944
0.253559
-0.514561
0.141676
-0.0506182
-0.0910561
0.275825
-0.523617
0.247574
0.132085
-0.263676
-0.389733
0.242988
0.146775
-0.267945
0.129789
-0.0801844
0.037436
0.00239908
0.0131649
0.0204698
-0.037276
-0.0372563
0.00692119
0.0962584
-0.219244
0.16085
0.0403944
-0.0590098
0.000918682
0.210752
-0.152709
-0.0580038
0.276179
-0.433738
0.15754
0.291278
0.000524214
-0.0129582
0.012434
0.292392
0.188878
0.00319648
-0.166524
0.440976
-0.135499
0.270493
-0.134973
-0.396659
0.247525
0.149102
-0.522275
0.41544
0.106757
0.224151
0.0892533
-0.0866679
0.00195213
-0.0045622
0.00543937
-0.000214254
-0.0609296
0.00925592
-0.0109326
0.0119665
-0.435415
-0.0091816
0.0219684
-0.0127845
-0.00012967
-0.0324263
0.255067
0.324421
-0.579469
-0.204462
-0.550944
0.265495
0.285521
0.154044
-0.137854
-0.458373
0.205184
-0.00723108
0.0031479
0.0826097
0.0654494
-0.089059
0.173608
-0.0845432
-0.113121
-0.197214
0.310324
0.14093
-0.0800758
-0.0608538
0.0085785
0.00133839
-0.00991688
0.00973857
-0.00185585
-0.00788271
0.101063
0.0970361
-0.198081
0.11628
0.100138
-0.2164
-0.453413
-0.0807735
0.034626
-0.0242627
-0.211153
0.458291
-0.24715
-0.0369902
0.0331569
0.00383317
0.123783
-0.0750012
0.0347187
-0.106644
0.0719271
0.0540551
-0.0471334
-0.00692136
0.00381439
0.000695694
0.121745
-0.283083
-0.110372
-0.167151
0.277562
0.563146
-0.243786
-0.246195
0.106048
0.14018
0.00409798
-0.00659885
0.00925397
-0.00901153
-0.533839
0.331014
0.202871
-0.0220106
-0.0127196
0.0347302
0.305385
-0.181759
0.0939441
-0.0516064
0.00525706
0.00102743
-0.0124432
-0.0127345
0.0137617
0.235275
0.206875
0.0943474
0.140429
-0.252626
0.112237
0.126486
-0.135248
0.279321
0.00765776
0.603118
-0.326378
-0.276946
0.0406608
-0.0421536
0.00149296
0.388348
-0.620464
0.231098
0.475955
-0.240877
-0.0915134
-0.0696409
0.161158
-0.191107
0.13932
0.0147262
-0.330387
0.168865
0.161562
0.0378317
0.0287729
0.0513658
0.0249372
-0.0763027
-0.121771
0.0399245
0.0818472
0.0252893
0.37812
-0.540136
0.161905
-0.191952
-0.138393
-0.108326
0.48636
-0.1986
-0.185672
-0.0790525
-0.0625367
0.180108
0.25891
0.0944601
0.217347
0.159744
-0.247827
0.137884
0.109973
-0.0169517
0.00885205
-0.128112
-0.138063
0.266233
0.34099
-0.113746
-0.227282
0.0250106
0.00214776
0.289689
0.165987
0.0095944
-0.531896
0.242104
0.218559
-0.262649
0.32478
-0.249622
-0.0751411
-0.00636369
0.00847988
-0.00211619
0.0751577
-0.572776
-0.0279721
0.00596146
-0.00448409
0.0480548
0.50123
0.147188
-0.316609
0.0990902
-0.204608
0.105538
0.55727
0.587073
-0.281775
-0.305722
0.265116
-0.438825
0.173773
-0.0805774
0.0545039
0.0260738
0.080343
-0.17654
0.211332
0.149906
-0.103217
0.0378136
0.0889566
0.102797
-0.0203517
-0.0940496
-0.176701
0.00551474
-0.0126206
0.193547
-0.211912
-0.32182
-0.00566563
-0.015522
0.0211877
0.0751083
-0.146033
0.0709268
-0.0852968
-0.201858
-0.150753
0.265126
0.183765
-0.448886
-0.00899755
-0.00292158
0.0159486
-0.00543105
-0.0105175
-0.0911016
0.114447
0.000129759
-0.0262574
-0.164982
0.521213
-0.307327
0.148451
-0.393609
0.205142
-0.0144049
0.00277159
-0.223654
0.0939016
-0.158486
0.177289
-0.0188059
-0.242689
0.0707516
0.399926
-0.19168
-0.208291
-0.136825
0.37722
0.203117
-0.581025
0.487432
-0.294357
0.125674
0.0160031
0.462713
-0.2695
0.00837233
0.434468
0.129573
-0.300853
-0.386619
0.260251
0.188676
0.0166553
-0.00483142
0.000969713
0.00446968
0.236538
-0.144511
-0.00154955
0.0119561
-0.0104066
-0.311285
0.546907
-0.235856
0.0281786
0.125616
0.13939
0.163643
-0.0725262
0.0785269
0.370466
-0.0698472
-0.427353
0.0307968
0.0191036
-0.04988
0.0777475
-0.148002
0.082041
0.065968
-0.558028
0.0464418
0.119744
0.0935307
0.000311548
-0.00121662
-0.00190695
0.00312345
-0.314008
0.127803
-0.148462
0.0804797
0.0679826
-0.0024641
-0.025839
-0.146089
-0.114163
0.260262
0.132049
-0.0851046
-0.0822634
0.16074
-0.24057
-0.157706
0.398192
-0.0949045
-0.147761
0.147897
0.107561
-0.53202
0.220354
-0.0780457
-0.21981
0.338562
0.108621
0.244376
0.441007
-0.253657
-0.18723
-0.235531
-0.0342317
0.269727
-0.187607
-0.0266192
0.0428685
0.229397
-0.048134
-0.160632
0.308935
-0.148245
-0.106434
0.203268
-0.45837
0.255145
0.166056
0.182519
-0.348504
0.0778794
-0.180885
0.103013
0.000969582
-0.00217405
0.00120518
-0.074194
0.0488291
0.0940663
-0.173573
-0.0174772
-0.282864
-0.361156
0.00295755
0.00336639
-0.00632384
-0.224104
0.172715
0.0513888
0.00742072
-0.00804379
0.000623067
-0.0256269
-0.107471
0.1331
-0.531953
0.269032
0.349842
0.159984
0.126228
-0.286188
-0.00162592
-0.0010773
0.00270329
0.0172809
-0.0167567
-0.0595962
0.166082
-0.063864
0.300871
-0.455339
0.198957
0.176638
-0.375556
0.247905
0.270727
0.0146967
6.23551e-05
-0.0147591
-0.247291
0.13363
0.113688
-0.222943
0.389494
-0.161283
0.0192695
-0.0399573
0.00363815
-0.0531196
0.0494803
0.150888
-0.311466
0.0496185
-0.0541499
-0.0294703
0.242955
-0.0607452
-0.182198
0.0975852
-0.243667
-0.0153656
-0.0216247
-0.133098
0.0419968
0.296305
-0.0497677
-0.246517
-0.0140145
0.00127924
-0.0917413
0.165117
0.0315123
-0.0953061
0.0637913
-0.00499406
0.0037775
0.23496
-0.169433
-0.21755
0.541979
-0.231808
0.309809
0.0612297
0.115223
-0.000480939
0.000665694
-0.000184761
0.0142109
0.128131
-0.479613
-0.107734
-0.150745
0.0601463
0.0905984
0.537453
-0.27272
-0.264669
-0.00106419
0.00421207
0.0147057
-0.00538506
-0.00932066
0.280783
-0.021823
-0.00382009
-0.126427
-0.442109
0.154195
-0.39492
-0.16572
0.349036
-0.0110342
0.0106139
0.000419744
-0.0161928
0.0675588
-0.220378
0.084878
-0.147158
0.4336
-0.183165
-0.0850812
0.125006
0.116874
-0.512238
0.20779
-0.0856154
-0.122169
0.203757
-0.321731
0.0782513
0.243465
-0.382238
0.159299
-0.0567641
0.0487638
0.00800061
-0.292856
0.162057
0.0840784
-0.0525688
-0.173384
-0.0507182
-0.274006
-0.263468
0.537401
0.0777004
-0.154951
0.0772538
0.252213
-0.0522067
0.228913
0.281745
-0.0023871
-0.0038722
0.0412285
0.383729
-0.170509
-0.213122
0.176088
0.265046
0.250862
0.132934
-0.0703209
0.216302
-0.145936
0.00682251
-0.00970664
0.00288414
-0.0119216
-0.0686556
-0.0750154
0.143985
0.188549
-0.240764
0.257799
0.0211864
-0.00312171
-0.0180644
-0.0153726
0.115535
0.365622
-0.154249
0.0252396
0.0159141
-0.0411536
-0.55693
0.275782
0.280978
-0.0785316
0.148703
-0.0701676
-0.00424575
0.00376481
0.471615
-0.257412
-0.214286
0.010648
-0.00206946
-0.000362093
-0.0701605
0.147863
-0.0134204
-0.00120326
-0.0527788
-0.00398619
0.312289
-0.413489
0.101245
-0.172687
-0.120165
-0.0387175
0.0388472
-0.0087741
0.00448793
-0.311909
0.139224
0.00957142
-0.011121
0.209136
0.0553688
-0.395498
-0.475262
0.4848
0.157803
-0.297219
0.106288
-0.15599
0.262144
-0.106119
0.0206051
-0.0464407
0.0258354
0.01434
0.000356731
-0.0276633
-0.0297644
0.0574278
-0.0658516
-0.203656
-0.444616
0.0775785
-0.151481
0.0739077
0.00603557
0.00370299
-0.449228
0.19567
0.0191091
0.00414113
-0.0232503
0.173786
-0.131816
-0.041966
0.26253
-0.536449
-0.126942
-0.559029
-0.301961
0.175143
-0.0644494
-0.083546
-0.0209099
0.0201441
0.000765769
0.23766
-0.211812
-0.172409
-0.296448
0.468685
0.00482567
-0.00959127
0.00476561
-0.0165717
0.00351343
0.0130586
0.213159
-0.0836784
-0.12945
-0.260825
-0.297542
-0.190104
0.210436
-0.413016
0.202665
0.367238
-0.582452
0.214913
-0.0333719
0.0165134
-0.0992282
0.0150681
0.0841605
-0.550286
0.303284
0.246637
-0.460708
0.390385
0.070156
0.0192686
0.00270083
-0.00257707
-0.00151722
0.0214614
0.15233
0.155282
0.0272398
-0.0303827
0.00314316
0.165846
0.144295
-0.310024
0.292996
0.221434
-0.514487
-0.333104
-0.229081
-0.32159
-0.171102
0.47194
0.477685
-0.0749034
0.0267896
0.0272658
0.0847299
0.112647
-0.197371
0.168461
0.0200858
0.0184561
0.0198169
0.20134
-0.106642
-0.0946723
0.00394041
0.0338903
-0.033998
-0.0110696
0.00488009
0.00618901
-0.0809818
0.168078
-0.0870839
-0.257613
0.163577
-0.280722
-0.311097
-0.134725
0.317004
-0.563748
0.246368
0.0264243
0.079533
-0.105956
-0.218881
0.494439
-0.059156
0.0372903
0.0218653
0.090108
-0.0263793
0.15364
0.218781
0.254625
-0.473261
0.0088882
-0.00722349
0.0669559
0.0707292
0.0076157
-0.00262136
-0.0793995
0.446479
0.00791932
0.0211899
-0.0291092
-0.249652
-0.163552
0.0742017
0.068303
-0.142504
0.107572
0.0666837
0.0154954
0.00339752
-0.0188926
0.0919014
-0.212579
-0.0901015
-0.0331853
-0.461178
0.200847
-0.00568629
0.0544512
-0.238819
-0.236111
-0.01022
0.00241393
0.0357325
0.0808442
0.0631052
-0.123721
0.408771
-0.196677
-0.212093
0.459312
-0.220509
-0.239048
0.00566372
0.0226604
0.00165041
-0.107371
-0.171173
-0.0397454
-0.118743
0.0845558
0.226027
-0.0933662
-0.132649
-0.00444568
0.0249316
0.0677887
-0.0490167
-0.17283
0.371801
-0.0167353
0.0447301
-0.027977
-0.397212
-0.112804
-0.497438
0.264786
-0.0059326
-0.0932954
-0.173127
-0.324362
0.156681
0.17487
-0.00641242
0.00115779
0.233812
0.284892
-0.518828
-0.0865485
0.196702
0.032412
-0.218342
-0.0682052
-0.573179
0.0518687
0.187195
-0.078827
-0.108361
0.10005
0.216007
-0.359588
0.143473
-0.240311
0.556942
0.000698282
0.123229
0.147614
-0.00664507
-0.00357496
-0.0159662
0.0694947
0.000670362
-0.000836235
-0.135292
-0.136884
0.327913
0.132124
-0.460017
0.439166
-0.141896
-0.105366
0.230283
-0.113483
-0.116774
0.230098
-0.11379
0.00126316
-0.00762685
-0.300484
0.181096
0.0755959
0.125795
-0.201386
-0.00363382
-0.107533
0.111169
0.0610797
-0.536341
0.391044
-0.204296
-0.186797
0.074695
0.138498
-0.14638
0.067589
0.011714
-0.0114878
0.284827
0.13968
-0.424527
-0.00548612
-0.00100688
0.306433
-0.0288
-0.00340928
0.0140622
-0.157429
0.171663
0.189368
0.214901
-0.404267
0.247528
0.172502
-0.420154
0.0978101
0.0985154
-0.196317
-0.0830634
-0.039761
-0.154463
0.269475
-0.11499
0.313909
-0.13498
-0.172245
0.12832
0.318888
-0.171715
-0.0342203
-0.0542873
0.0885076
0.0010595
0.0160375
-0.0215474
0.00550996
0.537079
-0.268418
-0.268344
0.241763
-0.108105
-0.00384963
0.0445104
0.261185
-0.0848069
0.00764952
0.461324
-0.254061
-0.207124
0.050829
-0.095069
-0.0708428
0.342557
-0.257411
-0.0851321
0.125032
-0.0341891
-0.0340753
0.361149
-0.169311
-0.191765
0.0373285