/*--------------------------------*- C++ -*----------------------------------*\
| =========                 |                                                 |
| \\      /  F ield         | OpenFOAM: The Open Source CFD Toolbox           |
|  \\    /   O peration     | Version:  v2012                                 |
|   \\  /    A nd           | Website:  www.openfoam.com                      |
|    \\/     M anipulation  |                                                 |
\*---------------------------------------------------------------------------*/
FoamFile
{
    version     2.0;
    format      ascii;
    class       surfaceVectorField;
    location    "650";
    object      Uf_0;
}
// * * * * * * * * * * * * * * * * * * * * * * * * * * * * * * * * * * * * * //

dimensions      [0 1 -1 0 0 0 0];


internalField   nonuniform List<vector> 
14516
(
(0.962087 0.084146 -3.9646e-21)
(0.950653 0.078523 0)
(0.961989 0.0686483 -3.32251e-21)
(0.968528 -0.0418233 2.92557e-21)
(0.95653 -0.0757864 -9.34135e-23)
(0.97501 -0.0701473 -9.81171e-23)
(0.976823 0.0881262 4.90476e-21)
(0.963782 0.0999119 -6.46312e-21)
(1.01345 -0.000761875 -1.53104e-22)
(1.01346 -0.000831015 -5.99356e-24)
(1.01354 -0.00078487 -7.05422e-22)
(0.531388 -0.0356647 0)
(0.545844 0.00617113 0)
(0.525083 -0.0958042 0)
(1.01353 -0.0139977 1.58091e-22)
(1.01465 -0.0137157 -1.0015e-21)
(1.01386 -0.0127113 5.5306e-22)
(1.00887 -6.06771e-05 1.25289e-22)
(1.00968 -0.000218856 -9.20251e-22)
(1.01039 -0.000311477 1.23018e-22)
(1.01269 -0.0010788 -1.67029e-22)
(1.01259 -0.00102287 -5.19582e-22)
(1.01267 -0.0010933 -1.12251e-21)
(1.02675 -0.00227733 1.80545e-22)
(1.02703 -0.00196844 -7.62049e-22)
(1.02727 -0.00252671 -1.27801e-21)
(0.539262 0.00055898 0)
(0.543276 -0.0616404 -1.19841e-22)
(1.00745 -0.0974948 -3.8241e-22)
(1.007 -0.104397 -6.13147e-21)
(1.0149 -0.100121 1.82406e-22)
(0.920046 -0.0974907 0)
(0.925389 -0.110668 0)
(0.907488 -0.110308 0)
(1.01337 -0.000685449 5.92273e-22)
(1.01336 -0.000723843 -1.29604e-23)
(1.01365 0.00235642 5.01557e-22)
(1.01339 0.00209028 5.04838e-22)
(1.01358 0.00188808 1.7012e-23)
(1.00388 -4.74301e-05 1.16924e-21)
(1.0039 1.21998e-05 -6.90797e-22)
(1.01398 0.00260075 -2.78548e-23)
(1.01426 0.00270164 9.86618e-22)
(1.01406 0.00229152 -2.74043e-23)
(1.01388 -0.00375886 1.10617e-21)
(1.01455 -0.00347563 9.59955e-22)
(1.01378 -0.00309001 -8.71928e-22)
(1.01313 -0.00401429 9.28519e-22)
(1.01412 -0.00471281 2.99438e-22)
(0.905681 0.254891 3.09305e-21)
(0.880821 0.265208 -3.7173e-22)
(0.891259 0.275462 -3.14869e-21)
(1.01384 0.00290082 0)
(1.07099 -0.117195 9.39717e-22)
(1.08841 -0.118733 3.00913e-21)
(1.07769 -0.103148 7.68605e-22)
(1.02407 -0.00594767 1.41273e-24)
(1.02373 -0.00575516 -5.81521e-23)
(1.02379 -0.006187 -6.84624e-23)
(1.05899 0.0579167 7.89359e-21)
(1.04955 0.0752009 2.93485e-22)
(1.06205 0.0634369 1.97809e-21)
(1.01817 0.00238392 -1.82657e-22)
(1.01797 0.00231201 -2.44084e-22)
(1.01757 0.000769104 8.77111e-22)
(1.01736 0.00137678 7.7943e-22)
(1.01832 0.00133334 -8.25515e-25)
(1.01313 -0.000527507 -3.23514e-22)
(1.01333 -0.000604503 1.63842e-21)
(1.01525 0.0035262 6.40519e-23)
(1.01489 0.00356315 -1.8445e-21)
(1.0154 0.00405647 -8.64834e-22)
(1.01504 -0.00167899 1.03405e-21)
(1.01543 -0.00172229 -9.85065e-22)
(1.01507 -0.00137815 9.21514e-22)
(0.975887 -0.0406795 -1.92955e-23)
(0.981804 -0.0427091 1.12132e-21)
(0.980018 -0.0366043 0)
(1.02623 -0.0020399 -1.32384e-21)
(1.02648 -0.00251519 0)
(0.98879 -0.0283207 -6.66742e-21)
(0.986943 -0.0317939 -7.04094e-21)
(0.992409 -0.0315907 -3.8276e-21)
(1.06665 0.0388449 -1.33216e-21)
(1.05531 0.0509415 -2.62467e-22)
(1.08799 0.00341463 -6.10831e-21)
(1.08151 -0.0316441 -5.28656e-21)
(1.07196 0.0151874 -1.07358e-20)
(1.00824 6.01271e-05 -6.0681e-22)
(1.00823 3.2121e-05 0)
(1.00598 3.5324e-05 1.04752e-21)
(0.970056 -0.0374318 -7.72278e-22)
(0.964704 -0.0334798 3.37589e-22)
(0.969603 -0.0297747 -4.82765e-22)
(1.11407 -0.161353 -7.05363e-22)
(1.14134 -0.166248 -4.32972e-21)
(1.12171 -0.190446 -3.09419e-21)
(1.00793 -4.38063e-05 -1.08877e-21)
(1.00624 5.12432e-05 -1.27546e-21)
(1.02449 -0.00570251 5.9491e-23)
(1.02426 -0.00614684 5.82413e-23)
(1.01316 -0.00139391 -1.41936e-21)
(1.01324 -0.0014663 -6.31222e-22)
(1.0133 -0.00150882 1.06781e-21)
(1.01051 -3.23329e-05 -1.91551e-21)
(1.01007 -6.24449e-05 -1.88058e-22)
(1.0109 -1.33665e-05 -3.94999e-23)
(0.991372 -0.0243934 3.64356e-21)
(0.986074 -0.0229892 8.74393e-22)
(1.00644 1.72206e-05 9.37895e-22)
(1.00357 -5.5101e-05 2.88861e-22)
(1.01183 -0.000478365 -4.17662e-23)
(1.0125 -0.000403879 -1.08842e-21)
(1.01186 -0.000458641 -1.02663e-22)
(1.00955 -0.000147339 9.76937e-22)
(1.00875 -0.000191452 4.13648e-22)
(1.01039 -0.000122921 2.16889e-21)
(1.00953 -0.000272441 -5.13677e-23)
(1.0119 -0.000397942 6.63109e-22)
(1.01295 -0.000466333 -1.42134e-21)
(0.971191 -0.0454641 1.9752e-22)
(1.00521 -0.0551192 7.41735e-23)
(0.997311 -0.0576101 5.45753e-21)
(0.998957 -0.0477212 -6.20854e-22)
(0.931862 0.0691298 -1.5636e-21)
(0.919025 0.061515 1.22641e-21)
(0.937198 0.055762 -1.99724e-21)
(1.01347 -0.00091515 -1.30738e-21)
(1.01339 -0.000877601 1.55053e-22)
(0.957525 -0.0308038 2.56371e-22)
(0.95913 -0.0397011 7.57797e-22)
(0.98514 -0.0953978 2.36349e-21)
(0.989128 -0.102151 1.80412e-21)
(0.993208 -0.095273 0)
(1.01787 -0.0145672 -7.45512e-22)
(1.01713 -0.01525 -3.53333e-22)
(1.01839 -0.015795 1.80279e-21)
(1.0246 -0.00520213 0)
(1.02436 -0.00495746 0)
(1.02422 -0.00516959 -1.31998e-21)
(0.847628 -0.0843213 6.15032e-23)
(0.842027 -0.100896 1.51997e-21)
(0.862142 -0.0923236 -4.81835e-22)
(0.993681 -0.215438 -1.66358e-22)
(0.986688 -0.236451 -2.63577e-21)
(0.970474 -0.221939 -2.11636e-21)
(1.02116 0.000170371 -1.23485e-22)
(1.02078 0.00022151 0)
(1.03647 -0.173679 5.50776e-21)
(1.0466 -0.167159 -1.03102e-20)
(1.03471 -0.163188 3.83802e-21)
(0.829246 0.311155 0)
(0.813079 0.312498 2.08856e-21)
(0.836883 0.3342 8.93559e-21)
(1.01308 -0.0013488 4.74122e-23)
(1.01304 -0.00129986 -6.80954e-22)
(1.00884 -5.32102e-05 0)
(1.00829 3.84151e-05 -5.09594e-22)
(1.0097 -6.37681e-05 -1.43419e-21)
(1.02129 -0.013684 -1.1099e-21)
(1.02087 -0.0144525 -1.15405e-21)
(1.02206 -0.014602 1.21951e-22)
(0.830618 0.148332 -1.10991e-22)
(0.807219 0.161676 3.44746e-23)
(0.815543 0.130779 -1.55942e-21)
(1.0143 -0.000374414 2.46876e-22)
(1.01492 -0.000491951 1.06398e-21)
(1.01401 -0.000376602 -3.34999e-22)
(0.557624 -0.238395 -1.36397e-21)
(0.534213 -0.205719 5.86157e-21)
(1.09558 0.0301924 0)
(1.09776 -0.00169446 9.4316e-23)
(1.09751 -0.000239172 -3.0865e-21)
(0.854905 0.129508 -3.32807e-21)
(0.853111 0.156234 4.82061e-21)
(0.874967 0.117373 -8.49488e-21)
(0.893496 0.104823 -8.39823e-22)
(0.893413 0.122644 -1.34782e-21)
(0.915131 -0.0849426 -1.0054e-21)
(0.929518 -0.0872904 -2.61249e-21)
(1.00107 -0.0930086 6.42065e-21)
(1.00934 -0.0891758 2.181e-21)
(0.831701 -0.0751701 -1.5447e-21)
(0.852099 -0.066099 8.21303e-21)
(1.01316 0.000254066 0)
(1.0136 0.000313858 2.09678e-23)
(1.01438 0.000478677 5.51167e-23)
(1.0151 -0.00355853 1.09084e-22)
(1.0153 -0.00375236 9.80991e-22)
(1.01513 -0.00374527 4.19183e-22)
(1.05926 0.00399917 -3.22917e-22)
(1.05962 0.00140427 -7.88245e-24)
(1.05867 0.0175802 -3.47961e-22)
(0.953429 -0.0238317 1.81596e-21)
(0.947966 -0.0302024 -1.57808e-23)
(0.847968 0.29928 0)
(0.825998 0.284598 0)
(1.02132 -5.5257e-05 -1.36934e-22)
(1.02149 -0.000301521 0)
(1.02104 -0.000199222 0)
(1.02144 0.00316762 -8.3217e-24)
(1.02146 0.00278598 -2.15371e-26)
(1.02202 0.00309589 -1.37255e-22)
(1.01896 0.00311029 -1.05695e-21)
(1.01806 0.00311089 1.50355e-21)
(1.01818 0.00243947 7.32843e-22)
(1.01681 -0.00151352 0)
(1.01671 -0.00106343 0)
(1.0162 -0.00140247 0)
(1.09135 0.0566505 6.94119e-22)
(1.08955 0.0527563 1.33569e-21)
(1.01638 0.0043276 0)
(1.01557 0.00389442 0)
(1.01609 0.00351728 6.9064e-22)
(0.929681 -0.0810277 -4.98383e-23)
(0.922051 -0.110937 -8.79845e-22)
(0.916351 -0.08596 -8.44057e-22)
(1.03644 -0.0250895 4.35177e-22)
(1.03372 -0.0313206 4.43671e-23)
(1.03032 -0.024453 3.10416e-22)
(0.994409 -0.0215437 -1.27934e-22)
(0.996835 -0.0249899 3.64471e-22)
(1.01986 -0.0467105 -6.58171e-22)
(1.01285 -0.0519583 2.41509e-21)
(1.01312 -0.042034 -6.33279e-22)
(1.01749 -0.00167989 -8.77792e-22)
(1.01687 -0.0020763 0)
(1.02161 -0.000515184 1.20159e-22)
(1.02171 -0.000748027 3.61573e-22)
(1.0213 -0.000637115 -2.40876e-23)
(1.02071 -0.0128978 0)
(1.02023 -0.0120041 1.48768e-22)
(1.01973 -0.0125486 -8.96993e-22)
(1.01374 0.00375881 -3.97245e-22)
(1.01428 0.00442508 0)
(1.01342 0.00458012 -4.14687e-22)
(0.959747 -0.0134897 1.17097e-20)
(0.978018 -0.0109149 2.21501e-21)
(0.720385 -0.173484 1.33623e-21)
(0.680291 -0.182 1.13244e-21)
(0.712905 -0.151987 3.53845e-21)
(1.01471 0.00115953 9.73371e-22)
(1.01492 0.0012975 3.11236e-22)
(1.01495 0.00113553 -3.27312e-23)
(1.07085 0.0211382 4.0906e-21)
(1.07535 0.0239463 -3.91148e-21)
(1.02177 -0.0130052 -5.82123e-22)
(1.04344 -0.0256268 -5.47595e-21)
(1.03791 -0.0193833 3.62557e-22)
(0.999503 -0.195786 -7.36029e-23)
(1.01547 -0.20731 0)
(0.942397 -0.0792561 0)
(0.93653 -0.0451287 0)
(1.01448 0.00114104 1.34225e-22)
(1.01451 0.0010334 6.74401e-22)
(1.01415 0.000252153 9.19334e-23)
(1.01431 0.000278694 1.21002e-21)
(1.01407 0.000327417 5.12359e-22)
(1.01422 0.000162103 -4.74237e-23)
(1.014 0.000220467 -4.97188e-22)
(1.01185 0.000622948 1.56336e-21)
(1.01178 0.00125865 -1.54011e-21)
(1.01135 0.000760802 4.2826e-22)
(1.01296 0.000305403 1.92521e-21)
(1.01303 0.000409278 3.13297e-21)
(1.01303 0.000310587 8.42932e-23)
(1.01287 0.000304624 6.10038e-22)
(1.01288 0.000221464 0)
(1.02094 0.0031652 -8.15586e-24)
(1.02135 0.00355297 -2.00112e-22)
(0.996746 -0.0191216 -3.38706e-22)
(0.99255 -0.0174865 -6.65633e-22)
(1.02011 -0.0114386 4.92462e-23)
(1.02086 -0.0116649 9.49666e-22)
(1.00842 1.34192e-05 -1.19789e-22)
(1.00897 -9.57758e-05 2.34182e-21)
(1.00979 -0.000120742 9.71564e-22)
(1.01753 -0.0134605 1.54963e-21)
(1.01861 -0.0138768 1.14024e-21)
(0.957362 -0.0641556 -4.75015e-23)
(0.943924 -0.0609942 9.11006e-21)
(0.956017 -0.0489437 -2.09132e-21)
(1.01288 0.000265547 0)
(1.01172 0.000111664 5.17913e-23)
(1.02092 -0.132447 1.45853e-22)
(1.0085 -0.126383 -6.44898e-24)
(1.00707 -0.142074 -6.5026e-24)
(1.01941 0.000403121 1.95793e-22)
(1.01971 0.00032631 0)
(1.05118 -0.301511 -6.27277e-21)
(1.0279 -0.274103 4.76464e-21)
(1.01745 -0.302047 4.05309e-22)
(0.981941 -0.088671 2.05639e-22)
(0.976962 -0.095707 -2.68579e-22)
(1.02162 7.20661e-05 -2.06777e-22)
(1.08047 -0.0911264 2.10757e-21)
(1.06606 -0.124639 4.14779e-21)
(1.07355 -0.11594 -1.21008e-20)
(0.94824 -0.0172954 1.68277e-21)
(0.957702 -0.0175156 -2.63231e-21)
(1.01727 0.00457305 0)
(1.0166 0.00527799 7.68662e-22)
(1.06604 0.0194568 -1.10613e-20)
(1.07305 0.00601716 1.47734e-22)
(0.968464 -0.0663461 -8.36781e-22)
(0.959787 -0.0793609 6.14039e-22)
(1.00813 0.000145854 3.58374e-23)
(1.00504 5.08527e-05 1.54335e-22)
(1.00519 4.55574e-05 1.01488e-22)
(1.0195 -0.00218378 1.91e-22)
(1.01975 -0.00233327 8.01821e-23)
(1.01974 -0.00212781 -5.32862e-23)
(1.01224 -0.0138701 -4.92593e-24)
(1.01318 -0.0151969 -6.72086e-23)
(1.02591 -0.00760477 2.17628e-21)
(1.02559 -0.00781105 1.16569e-21)
(1.02551 -0.00730187 1.03838e-21)
(1.06067 -0.131151 2.79018e-23)
(1.05607 -0.115749 2.62305e-22)
(1.05769 -0.0721147 3.43761e-21)
(1.06082 -0.0683461 2.93458e-21)
(1.05585 -0.0679538 1.77259e-21)
(1.02546 -0.0418017 -4.1628e-23)
(1.02755 -0.0515751 0)
(1.01992 0.00284127 -2.71279e-21)
(1.01975 0.00384738 3.92904e-22)
(1.01616 -0.00334948 1.33987e-22)
(1.01623 -0.00323995 -8.31807e-22)
(1.01601 -0.00320074 -4.55985e-22)
(1.01146 0.000172054 -6.22553e-23)
(1.01099 0.000187155 -5.96966e-23)
(1.01269 0.000265031 -2.76397e-23)
(1.02191 -0.000405231 3.19296e-22)
(1.01612 -0.00343429 6.03179e-22)
(1.01632 -0.00348246 2.51356e-22)
(1.01147 -0.00225998 8.32503e-22)
(1.01165 -0.00299193 0)
(1.012 -0.00256735 0)
(1.0258 -0.00182034 1.22439e-22)
(1.0261 -0.00159141 -9.72889e-22)
(1.0218 -0.000974543 2.38491e-22)
(1.0219 -0.00122931 3.29867e-23)
(1.02151 -0.00108378 0)
(1.01238 -0.000216225 -1.73961e-21)
(1.01445 -0.000339673 -5.65998e-22)
(1.00896 -4.78693e-05 0)
(1.01035 -0.000193438 3.30746e-22)
(1.01923 0.000235895 2.34215e-22)
(1.01908 0.000425039 -1.72585e-22)
(1.01331 0.000408998 -7.16756e-22)
(1.01346 0.000455655 6.07479e-22)
(1.01332 0.000428006 1.01219e-21)
(1.01928 -0.00222191 1.19535e-22)
(1.01927 -0.00203882 -1.04256e-23)
(1.01781 -0.000355679 -4.62429e-22)
(1.01778 0.000213986 0)
(1.01854 -5.69738e-05 0)
(1.01213 -0.000461574 4.26553e-25)
(1.01234 -0.000451418 -1.3652e-21)
(1.01196 -0.000455843 4.58492e-22)
(1.01435 -0.00013075 0)
(1.01421 -8.35416e-05 0)
(1.01433 -0.000211661 0)
(1.01311 0.00230215 0)
(1.01309 0.00173998 2.03775e-21)
(1.01227 0.00206284 -7.35154e-23)
(1.01272 0.00259233 1.07724e-21)
(1.01222 0.00284374 -6.47207e-22)
(1.05131 -0.0378681 0)
(1.04474 -0.0445732 2.02058e-22)
(1.04174 -0.0540542 0)
(1.01433 -3.50728e-05 -4.39263e-22)
(1.01456 -0.000167308 1.15448e-21)
(1.01386 0.00102343 -5.70511e-22)
(1.01406 0.00107378 -7.96815e-22)
(1.01398 0.0011329 -6.11608e-23)
(0.747325 -0.175515 -1.22468e-23)
(0.720768 -0.198876 -5.55803e-21)
(0.784895 0.373252 1.89529e-21)
(0.797008 0.355691 -6.92148e-21)
(0.799058 0.381621 -4.42116e-21)
(1.01231 0.000304774 1.84726e-22)
(1.0102 5.56879e-05 0)
(0.770995 0.35796 -5.81826e-22)
(0.765723 0.383479 9.63791e-23)
(0.552009 0.0765183 0)
(0.554234 0.0205567 1.31176e-23)
(1.01367 0.000962363 -1.04752e-21)
(1.01372 0.000938419 -8.12307e-22)
(1.01029 0.00021257 -6.57359e-23)
(1.01017 0.000216043 -2.55137e-22)
(1.01214 0.000209733 0)
(1.01152 0.000151895 4.05414e-22)
(1.01252 0.000277728 0)
(1.01779 -0.00084815 -9.86458e-22)
(1.01726 -0.000508508 -1.23027e-21)
(1.0143 7.14913e-05 4.73551e-23)
(1.01414 6.74491e-05 -3.71404e-22)
(1.01225 -0.000476065 1.51038e-22)
(1.01193 -0.000367389 -6.85936e-22)
(1.01278 -0.00113687 1.04888e-21)
(1.01271 -0.0010632 -5.6341e-22)
(1.0147 -0.0015877 -1.36475e-21)
(1.01488 -0.00194494 6.17963e-23)
(1.01523 0.0027118 8.5087e-22)
(1.01541 0.00264038 2.23581e-22)
(1.01564 0.00293727 -8.69871e-23)
(0.932544 0.239124 6.1605e-21)
(0.968402 0.216982 0)
(0.948949 0.239415 0)
(1.05247 -0.0265828 -3.74066e-21)
(1.0575 -0.010095 -7.34406e-22)
(1.05413 -0.027767 7.94421e-22)
(1.09974 -0.137992 -1.79273e-22)
(1.10961 -0.118526 1.81259e-21)
(1.01278 -0.0631134 5.91439e-22)
(1.01328 -0.00940563 4.58348e-23)
(1.01509 -0.00984591 1.87308e-22)
(1.0144 -0.0080794 -2.91882e-23)
(1.01515 0.00310323 8.86818e-22)
(1.01557 0.00340026 2.68753e-21)
(1.01251 -6.2395e-06 2.93307e-22)
(1.01252 0.000402391 -1.39671e-21)
(1.01272 0.000323174 -1.69841e-21)
(1.01368 -0.00244131 -1.72523e-21)
(1.01373 -0.00271867 -5.94305e-22)
(1.01379 -0.00237614 -1.49988e-21)
(0.791621 -0.0294215 5.59877e-21)
(0.811302 0.00774062 -1.14826e-20)
(0.793173 0.030687 7.25296e-21)
(1.04859 -0.0226455 -6.46241e-23)
(1.04541 -0.0426042 1.50693e-21)
(0.791396 -0.0902192 1.78523e-21)
(0.784559 -0.0576107 0)
(1.02648 -0.00716299 0)
(1.02621 -0.00747131 0)
(1.02604 -0.0068844 6.9324e-22)
(0.922094 0.233634 5.56224e-21)
(1.02212 -0.000872095 -4.8267e-23)
(1.01755 0.00227563 6.3529e-23)
(1.01739 0.0021561 -7.89486e-23)
(1.01733 0.0022361 -7.35047e-23)
(1.01614 -0.00387997 -5.10778e-22)
(1.01635 -0.00403328 1.42399e-22)
(1.01625 -0.00380072 -4.4878e-22)
(1.02019 -0.0311661 -5.80038e-21)
(1.01754 -0.0316774 2.09331e-21)
(1.01991 -0.0336736 -2.51848e-21)
(1.08624 -0.400546 3.16703e-20)
(1.08555 -0.436291 -3.5876e-21)
(1.12209 -0.425004 -1.68734e-20)
(1.03442 -0.010703 5.40005e-22)
(1.03397 -0.00992328 2.4411e-21)
(1.03344 -0.0106101 -2.50303e-22)
(1.01448 7.44936e-05 4.63289e-22)
(1.01706 0.000378277 0)
(0.898524 0.302631 4.18194e-21)
(0.883823 0.315372 6.96391e-21)
(0.895256 0.319585 7.21594e-21)
(1.01504 -0.00339816 4.59704e-23)
(1.01492 -0.00336559 -9.62963e-22)
(1.02626 -0.179534 -8.92758e-21)
(1.03901 -0.185812 1.11216e-20)
(1.01602 -0.00393934 -5.8961e-22)
(1.01596 -0.00370799 5.74611e-22)
(1.01927 -0.00262257 -4.47582e-25)
(1.01904 -0.00265093 8.52723e-24)
(1.01926 -0.00281835 8.30551e-24)
(1.01502 0.00277774 -1.14263e-22)
(1.01491 0.00249343 -1.12662e-22)
(1.02691 -0.00750985 1.05034e-21)
(1.02677 -0.0069337 0)
(1.017 -0.00019013 -2.31753e-22)
(1.01701 -0.000264395 1.57721e-23)
(1.01714 -0.000197477 -1.87896e-22)
(0.946686 0.0751914 5.02663e-21)
(0.929757 0.0833591 -1.63578e-21)
(1.03455 -0.138875 1.45541e-22)
(1.03239 -0.122981 8.61451e-22)
(0.855051 0.105073 1.79446e-22)
(1.02271 -0.0310626 -2.44584e-21)
(1.02066 -0.0292146 -4.00669e-22)
(0.874629 0.142799 5.28464e-21)
(0.896226 0.127849 6.47775e-21)
(0.916694 0.137689 2.47801e-21)
(1.01374 0.00152592 0)
(1.01348 0.00148767 0)
(1.01351 0.00121851 0)
(0.590401 0.158114 0)
(0.58429 0.138151 0)
(1.01329 0.000387879 -8.43364e-22)
(1.01306 0.000353838 -1.28369e-21)
(1.02538 -0.00166527 1.61276e-21)
(1.0256 -0.00203632 4.06087e-22)
(1.01007 0.182961 8.00709e-21)
(1.03738 0.153212 -2.05766e-20)
(1.04874 0.13926 7.4493e-21)
(1.00349 -0.252613 -7.78642e-21)
(0.979414 -0.256262 -1.64757e-21)
(1.01629 -0.0031546 -1.2712e-21)
(1.01615 -0.00299802 -7.54386e-22)
(1.01636 -0.0030567 -4.79976e-22)
(1.02197 -0.0014539 2.56561e-22)
(1.02228 -0.0013555 -3.43567e-22)
(1.02042 0.00316585 0)
(1.02055 0.00288959 0)
(1.08678 -0.154894 -1.34419e-21)
(1.01365 0.000467299 1.56803e-23)
(1.01366 0.00067523 -6.39722e-23)
(1.0136 0.000645129 1.11236e-21)
(0.999126 -0.0170005 1.13786e-21)
(1.00072 -0.0197782 8.21299e-22)
(1.0261 -0.0110965 0)
(1.02558 -0.0105815 -9.019e-22)
(1.0262 -0.0104573 0)
(1.00337 -0.0264475 0)
(1.00674 -0.0279651 0)
(1.00349 -0.0297272 -7.73963e-22)
(0.961446 0.0769658 1.4916e-21)
(0.963317 0.0659088 1.7027e-21)
(0.905687 0.0506862 1.19136e-21)
(0.899669 0.067424 -6.208e-21)
(1.02476 -0.00561052 5.59126e-22)
(1.02503 -0.00533998 0)
(0.851512 0.157494 2.04301e-21)
(0.829437 0.144337 -3.43667e-21)
(1.01187 0.000228131 0)
(1.01271 0.000261996 6.04845e-22)
(1.01226 -0.000760755 -8.43382e-22)
(1.01223 -0.00121166 1.20018e-21)
(1.01246 -0.00108505 5.17976e-22)
(0.916363 0.295938 4.32047e-21)
(0.903314 0.28374 3.68606e-21)
(1.02001 0.00315359 8.92428e-23)
(1.02034 0.00343641 1.14902e-22)
(0.744485 -0.0089974 -1.32069e-20)
(0.727808 -0.0106017 -7.67164e-21)
(0.741312 -0.0535235 1.97132e-21)
(0.933164 0.00786662 -3.56258e-21)
(0.940305 0.0159847 -4.39258e-21)
(0.927903 0.019185 1.59688e-21)
(1.02029 -0.00155912 -3.02177e-23)
(1.02052 -0.00147282 2.94875e-24)
(1.02018 -0.00138897 -8.8097e-23)
(1.02625 -0.00797786 0)
(1.01697 -0.000113516 -2.4555e-22)
(1.01686 -0.000182388 8.64935e-22)
(1.03055 -0.0361565 -8.52612e-23)
(1.03806 -0.0385673 -1.18754e-23)
(0.988277 0.193075 2.61061e-21)
(1.01578 -0.0146461 1.13327e-22)
(1.01562 -0.0132719 -2.29884e-21)
(1.01352 0.000894074 -4.48354e-24)
(1.01339 0.00082195 1.5243e-21)
(1.01336 0.000817601 0)
(0.937852 -0.00131604 -1.75201e-21)
(0.926155 0.000587798 2.31319e-22)
(1.00684 -0.0795834 0)
(1.00037 -0.0809301 5.96087e-22)
(1.0031 -0.0751125 0)
(1.01818 0.00252401 6.7045e-23)
(1.01839 0.00248736 -1.50016e-22)
(1.01777 0.00230674 5.75456e-23)
(1.01781 0.0021778 -4.47423e-23)
(1.0354 -0.0109085 7.61576e-22)
(1.03465 -0.0117602 -4.68621e-21)
(1.01289 0.000329709 2.06748e-23)
(1.01315 0.000344169 1.31673e-22)
(1.01278 0.000314446 -3.66274e-22)
(1.04241 -0.0858024 -6.09151e-21)
(1.04706 -0.0825218 -6.04131e-21)
(1.04132 -0.0806493 8.72714e-22)
(0.764858 -0.00920896 2.49146e-21)
(0.749433 0.0301386 2.63888e-21)
(1.01907 0.000102147 2.68143e-23)
(1.01879 0.00013504 -4.40166e-24)
(1.01892 -2.27125e-05 -1.31563e-22)
(1.01397 -0.002388 1.52637e-21)
(1.01393 -0.00239296 5.99621e-22)
(1.01395 -0.00220358 1.41626e-21)
(0.984037 -0.18409 1.70151e-22)
(1.00262 -0.177208 -1.57556e-23)
(1.01271 0.00191757 1.68571e-21)
(1.01322 0.00214208 -6.34856e-22)
(1.01295 0.00258728 -2.02957e-22)
(1.00093 -0.0152514 1.21216e-22)
(0.99788 -0.0139165 6.88464e-22)
(1.01322 0.000888384 1.18567e-21)
(1.01316 0.00125955 1.04959e-21)
(1.01338 0.00121453 -2.0833e-21)
(1.014 -0.00192695 -7.62226e-22)
(1.01403 -0.0018148 -1.06499e-22)
(1.01405 -0.00177594 -6.64414e-22)
(1.09511 -0.00160395 7.92374e-21)
(1.08932 0.0393271 7.67401e-21)
(1.014 -0.00236145 9.2866e-23)
(1.01398 -0.00220544 -7.59691e-22)
(1.01401 -0.00233888 1.49901e-21)
(1.01427 0.00111796 -1.85272e-21)
(1.0141 0.00100877 -5.30048e-22)
(1.01251 -0.000939785 5.6214e-22)
(1.0125 -0.000964984 2.56525e-21)
(1.01764 -0.00137279 -2.28887e-22)
(1.01832 -0.00129484 -2.31994e-21)
(1.01442 0.00125254 -1.20642e-21)
(1.00936 -3.46837e-05 2.60187e-22)
(1.00801 8.5136e-05 -5.46634e-22)
(1.02238 -0.00658578 -3.42294e-23)
(1.0224 -0.00643043 -1.75619e-23)
(1.02259 -0.00659209 -4.41448e-23)
(1.02271 -0.017977 -1.26004e-22)
(1.02414 -0.0182307 -1.80624e-21)
(1.02337 -0.0169577 -1.48628e-21)
(0.978862 -0.0809668 -3.53416e-21)
(0.986432 -0.0815497 -2.6948e-21)
(1.05464 -0.0758908 -1.26021e-22)
(1.051 -0.0793963 -3.60298e-21)
(1.04957 -0.0747227 -3.68133e-21)
(1.01395 -0.00183918 -7.16917e-24)
(1.0139 -0.00183251 3.6912e-22)
(1.01393 -0.00175698 -1.51584e-21)
(1.02634 -0.00532596 1.35883e-21)
(1.02652 -0.00597521 4.78436e-22)
(1.02724 -0.00530557 7.34858e-24)
(1.01381 -0.00296187 3.29971e-22)
(1.01392 -0.00286138 3.29363e-22)
(1.01392 -0.00320303 -1.13413e-21)
(1.0214 -0.0176681 1.88457e-21)
(1.02214 -0.0192173 1.01964e-21)
(1.00785 -0.00797898 1.16077e-21)
(1.00805 -0.0094577 -2.03155e-21)
(1.00903 -0.00866004 1.83354e-21)
(1.01376 0.000191011 -1.22087e-22)
(1.0137 0.00031744 2.93797e-22)
(1.01371 0.000366936 2.46436e-22)
(0.941242 -0.2004 1.50978e-21)
(0.928624 -0.196678 -4.96162e-21)
(0.928664 -0.215623 -2.61957e-21)
(1.01401 -0.00255904 -1.54983e-21)
(0.971014 -0.0804147 -3.82017e-21)
(0.97648 -0.0738088 9.18325e-22)
(1.00836 0.000126021 5.72063e-22)
(1.00982 4.17329e-05 2.87553e-22)
(1.00886 3.78131e-05 -1.96457e-21)
(1.01227 -0.0110733 3.98415e-23)
(1.01124 -0.00885114 1.30314e-22)
(1.0191 0.00289267 -4.75369e-23)
(1.01941 0.00292575 -1.00611e-22)
(1.01917 0.00279612 -6.07498e-25)
(1.01894 0.00299581 -3.59056e-23)
(1.01882 0.00281182 5.34679e-23)
(1.00016 -0.024877 0)
(1.00388 -0.0233123 0)
(1.06658 0.112839 -1.489e-20)
(1.03019 0.16346 -8.29053e-21)
(1.0196 -0.0109859 -4.88777e-22)
(1.01888 -0.0109414 -3.87092e-22)
(1.01916 -0.0102951 1.58462e-22)
(1.01382 3.92902e-05 -2.8327e-22)
(1.0138 9.44092e-05 -2.59136e-22)
(1.01437 0.001626 0)
(1.01431 0.00164037 0)
(1.01418 0.00152206 0)
(1.02399 0.00291574 1.76089e-21)
(1.02251 0.00161562 1.48239e-21)
(1.02449 0.00140343 -1.24821e-21)
(1.02073 -0.0013744 0)
(1.02098 -0.00128612 0)
(1.02063 -0.00117205 0)
(1.00462 -0.0166733 1.06004e-21)
(1.00528 0.0124865 0)
(0.992854 -0.0045978 0)
(1.00547 -0.0454659 6.51119e-21)
(1.01689 -0.029262 4.61373e-21)
(1.01644 -0.00329613 2.68978e-22)
(1.04926 -0.144734 -3.92827e-23)
(1.03508 -0.157466 -2.3565e-23)
(1.0165 -0.000347108 -3.30957e-22)
(1.01646 -0.00031636 6.19512e-23)
(1.01653 -0.000305182 6.38172e-23)
(1.05986 -0.0766763 4.08891e-21)
(1.01747 -0.0018081 9.58815e-22)
(1.01711 -0.00138607 2.02247e-21)
(1.01836 0.00279203 6.27607e-23)
(1.01829 0.00265591 -4.10493e-23)
(1.01854 0.0027417 8.9637e-24)
(1.00818 -7.2235e-05 -9.97016e-22)
(1.00602 -3.92816e-05 -1.19345e-21)
(1.00816 -2.59334e-05 7.58398e-22)
(1.01095 -6.9318e-05 -9.29504e-22)
(1.01017 3.47853e-06 6.1661e-22)
(1.02012 -0.00168077 -3.65332e-23)
(1.02039 -0.00173722 -1.46485e-23)
(1.02235 -0.00674152 2.36825e-22)
(1.02215 -0.00657054 -3.61258e-22)
(1.01489 -0.0136665 0)
(1.0164 -0.0144468 0)
(1.01601 -0.0127716 1.25586e-22)
(1.01131 -0.000317473 -2.04588e-21)
(1.01103 -0.000228089 3.28712e-22)
(1.01155 -0.000348054 -1.1484e-21)
(1.02169 -0.0015469 2.08913e-22)
(1.02204 -0.00168932 -5.61056e-23)
(1.01938 6.39262e-05 2.89384e-23)
(1.08137 -0.0651376 4.83908e-22)
(1.09026 -0.0638885 -2.99649e-21)
(1.01786 -0.0119126 -2.76205e-23)
(1.01722 -0.0123972 7.90046e-22)
(1.01702 -0.0115353 -8.50347e-22)
(1.00631 -0.000147512 -1.68983e-21)
(1.01195 0.000145174 1.90312e-22)
(1.01013 0.00020482 -4.51668e-23)
(1.01099 0.000151032 6.4067e-22)
(1.01149 -0.00159474 1.5448e-23)
(1.01095 -0.0019055 -2.89662e-22)
(1.02467 -0.00798247 8.4863e-24)
(1.02439 -0.00796557 -3.61742e-22)
(1.02445 -0.00766032 -7.62425e-22)
(1.01308 -0.0127563 0)
(1.01354 -0.0148495 0)
(1.01615 -0.000558785 0)
(1.01618 -0.000648494 4.21231e-22)
(1.01624 -0.000575387 8.36839e-22)
(0.930056 0.254702 -3.98667e-20)
(0.912053 0.302073 3.47689e-20)
(0.94304 0.256594 2.16683e-20)
(1.01361 0.000976345 -4.21247e-23)
(0.936422 0.290296 0)
(0.918686 0.300218 -4.97345e-21)
(0.931867 0.282836 6.17628e-21)
(0.980258 -0.220991 1.73603e-21)
(0.97896 -0.189761 -1.37612e-21)
(0.961026 -0.227207 2.44006e-21)
(1.0062 2.3934e-05 8.01909e-23)
(1.00798 3.43268e-05 -9.52623e-22)
(1.00828 -1.72205e-05 2.23951e-22)
(1.00901 -0.000116177 6.45165e-22)
(1.00978 -0.000191098 6.58384e-23)
(1.01403 -0.000160662 9.73812e-22)
(1.01409 -0.000172559 1.61274e-22)
(1.01421 -0.000288838 5.75303e-22)
(1.02557 0.00427269 1.03638e-21)
(1.02307 0.00466185 -1.37501e-22)
(1.01914 -0.00634045 0)
(1.01876 -0.00728948 0)
(1.0197 -0.00700111 0)
(1.01719 -0.00215855 7.68901e-22)
(1.01672 -0.00207134 -1.71368e-21)
(1.01691 -0.00244106 1.0043e-21)
(0.951776 0.274808 7.62261e-21)
(0.935035 0.297466 0)
(1.01612 -0.000312026 3.00224e-22)
(1.01574 -0.000360099 0)
(1.01629 -0.000167483 -6.18475e-22)
(1.01396 -0.000104958 -1.99952e-21)
(1.0139 -1.40544e-05 7.05472e-22)
(1.01961 -0.00537408 0)
(1.01836 -0.00543242 8.39527e-23)
(1.02213 -0.00747045 0)
(1.0224 -0.00738054 0)
(1.02244 -0.00763916 0)
(1.02216 -0.00553742 5.83518e-23)
(1.02194 -0.00538018 4.39635e-23)
(1.02221 -0.00536622 8.64128e-23)
(1.0139 0.00319729 -1.88897e-21)
(1.01325 0.00317974 1.1404e-22)
(1.02401 -0.0336284 -1.51426e-22)
(1.01452 -0.00136001 7.81721e-22)
(1.01464 -0.00126914 -1.54513e-22)
(1.01466 -0.00134546 -6.77182e-23)
(1.02159 0.00036556 2.66218e-22)
(1.02223 -0.00079455 -4.32623e-22)
(1.02066 -0.000903292 -9.8267e-22)
(1.02598 -0.0116303 8.45551e-22)
(1.02664 -0.0114915 -1.76623e-21)
(1.01404 -0.00152958 0)
(1.01416 -0.00151082 0)
(1.01411 -0.00152074 0)
(1.05693 0.00910403 -2.96612e-22)
(0.84661 0.210451 0)
(0.858598 0.191932 0)
(0.881693 0.199794 6.65808e-22)
(1.0592 -0.0111357 -3.36011e-22)
(1.05894 0.00111789 -1.07008e-23)
(1.01967 0.00303857 1.96172e-22)
(1.01958 0.00323385 -9.1678e-23)
(1.06368 -0.385118 1.4077e-20)
(1.09018 -0.379786 -7.05053e-21)
(1.02412 -0.00790216 -1.67274e-22)
(1.0239 -0.0078151 6.84851e-22)
(1.024 -0.00759505 3.97585e-22)
(0.804062 0.302039 -1.96684e-20)
(0.789607 0.283548 1.26931e-20)
(0.943649 -0.0105533 -2.23848e-21)
(0.937538 -0.0162637 -3.44235e-21)
(1.01506 0.00219514 2.31494e-22)
(1.0149 0.00202597 -1.89205e-22)
(1.01516 0.00211849 -4.44834e-22)
(1.04076 -0.0153503 -1.00454e-21)
(1.04144 -0.016901 -9.81511e-22)
(0.949046 -0.00312672 1.11654e-21)
(1.01223 0.000542721 1.16629e-21)
(1.01192 8.14995e-05 -2.87909e-22)
(1.00284 -0.0137193 -7.46125e-22)
(1.00391 -0.0159082 -6.78442e-22)
(0.99367 -0.109035 3.70802e-21)
(1.00031 -0.108414 2.30912e-21)
(0.996002 -0.116581 -2.09451e-21)
(1.01243 -0.000849827 0)
(1.01235 -0.000820254 2.07148e-23)
(1.01236 -0.000776677 0)
(1.01088 -0.000202325 0)
(1.01225 -0.00049866 6.55697e-22)
(1.02506 -0.00140947 4.01037e-22)
(1.0249 -0.00169644 2.21619e-22)
(1.01038 5.30316e-05 0)
(1.01043 6.10103e-05 0)
(1.00926 5.68347e-05 6.01209e-22)
(1.01583 -0.00200084 -5.53132e-22)
(1.01581 -0.00159083 -1.55271e-21)
(0.91535 0.113371 4.5102e-21)
(0.947105 0.110841 -2.51564e-21)
(0.930427 0.101221 0)
(1.01589 -0.00397632 -1.44621e-22)
(1.0161 -0.00413715 -5.98672e-22)
(1.01393 -0.0015382 0)
(1.01398 -0.00155712 -1.52987e-21)
(0.954158 0.180343 -5.68922e-20)
(1.01226 0.00165082 8.58308e-22)
(1.01263 0.00135514 3.56732e-21)
(1.01456 0.00313233 -1.04166e-22)
(1.01453 0.00276473 9.76716e-22)
(1.01974 0.00286508 -8.48622e-23)
(1.02367 -0.00691271 -3.06302e-23)
(1.02364 -0.00682976 0)
(1.02357 -0.00698424 8.17339e-23)
(1.01251 -0.000892639 -1.18596e-21)
(0.87716 0.117051 -1.37701e-21)
(1.02497 -0.00796774 -1.41165e-22)
(1.02528 -0.00789197 -1.36971e-21)
(1.02499 -0.00756157 0)
(1.02088 -0.00312326 0)
(1.02098 -0.0032863 -9.29861e-23)
(1.02071 -0.0032515 5.4386e-23)
(1.02132 -0.00687997 2.86315e-23)
(1.02157 -0.00708283 -4.04546e-23)
(1.02128 -0.00714214 8.0306e-22)
(1.01182 0.00195597 -2.7476e-21)
(0.786728 0.0812561 1.00843e-22)
(0.799746 0.110696 0)
(0.790245 0.0630752 0)
(1.02451 -0.00471809 -7.31527e-22)
(1.0241 -0.00467779 0)
(1.05008 -0.0178839 7.32224e-22)
(1.04616 -0.0174515 -1.08265e-21)
(1.04816 -0.0215093 -7.17951e-22)
(1.0177 0.00241161 9.01322e-23)
(1.00236 -0.0526485 2.13948e-21)
(1.0066 -0.0519736 1.57282e-21)
(1.00314 -0.0494174 2.09942e-21)
(0.816661 -0.0639632 4.15396e-21)
(0.810198 -0.0832331 -1.85325e-21)
(1.01564 -0.185458 -8.36483e-21)
(1.01543 -0.173471 3.27568e-21)
(0.99752 -0.0535231 0)
(1.00185 -0.0567144 -1.41952e-21)
(1.02361 -0.00695267 -3.19151e-23)
(1.02368 -0.00693017 -1.20459e-23)
(1.01083 -0.00422884 -7.92403e-22)
(1.01121 -0.00346997 -8.57672e-22)
(1.01047 -0.00323476 -1.06787e-21)
(0.85414 0.174649 0)
(0.816268 0.182006 -3.57988e-21)
(1.00816 -0.000117694 0)
(1.00949 2.60024e-05 -1.07339e-21)
(0.954172 -0.2024 4.35366e-21)
(0.956344 -0.185192 -1.54001e-21)
(1.01402 0.00267696 -4.52871e-22)
(1.01447 0.00306456 -1.4397e-21)
(1.01239 0.000301384 1.07359e-21)
(1.013 0.000350947 7.04757e-22)
(0.980783 -0.241144 0)
(1.00125 -0.211477 1.06472e-20)
(1.00437 -0.0124192 0)
(1.00203 -0.0113108 -5.63415e-23)
(0.844403 0.229521 -1.92813e-22)
(0.817791 0.223016 1.44444e-21)
(1.02074 -0.00297082 0)
(1.02103 -0.00303829 -9.2066e-23)
(1.03779 -0.0885924 -1.24702e-20)
(1.04385 -0.0911736 2.29885e-21)
(1.15235 -0.147782 -5.11858e-23)
(1.1609 -0.170583 -9.6549e-22)
(1.01128 0.00448534 -1.2401e-21)
(1.01214 0.00570625 5.42667e-23)
(1.01251 0.00443746 -9.75175e-22)
(1.01498 -0.0032043 -8.88725e-22)
(1.01481 -0.00304323 8.37494e-23)
(1.01491 -0.00303925 -2.26576e-21)
(1.06737 -0.065734 2.47578e-21)
(1.02891 -0.0297588 3.12009e-21)
(1.03087 -0.0291053 -2.1466e-21)
(1.02911 -0.0278617 -3.09734e-21)
(1.05549 -0.0240896 8.46801e-24)