/*--------------------------------*- C++ -*----------------------------------*\
| =========                 |                                                 |
| \\      /  F ield         | OpenFOAM: The Open Source CFD Toolbox           |
|  \\    /   O peration     | Version:  v2012                                 |
|   \\  /    A nd           | Website:  www.openfoam.com                      |
|    \\/     M anipulation  |                                                 |
\*---------------------------------------------------------------------------*/
FoamFile
{
    version     2.0;
    format      ascii;
    class       volVectorField;
    location    "50";
    object      ddt0(U);
}
// * * * * * * * * * * * * * * * * * * * * * * * * * * * * * * * * * * * * * //

dimensions      [0 1 -2 0 0 0 0];


internalField   nonuniform List<vector> 
9793
(
(0.00704152 -0.0196725 1.99218e-18)
(-0.000399616 0.00013026 -1.46018e-22)
(0.00513036 -0.0175034 -7.37351e-18)
(0.00570451 0.000183453 6.54228e-20)
(0.0412301 -0.249277 4.57388e-19)
(-0.00957907 0.0113378 -1.83746e-19)
(0.00245326 -1.93076e-05 -8.29583e-19)
(0.00393954 -0.000721849 1.94222e-19)
(0.00676161 -0.000888835 -2.17107e-19)
(0.0300711 -0.215621 -1.04358e-18)
(0.0101194 0.0277208 -2.73537e-19)
(-0.18485 0.384891 -2.56187e-17)
(0.00848637 0.000175639 1.04131e-19)
(0.00163542 -0.000752363 3.19307e-20)
(-0.000682611 3.17478e-05 1.87524e-19)
(0.00133691 -0.00078711 -4.51475e-20)
(0.00752384 0.000408691 -4.41409e-19)
(0.00591278 0.000115869 2.45669e-19)
(0.00669393 0.100672 2.30997e-19)
(0.00160148 -0.00079325 2.07297e-20)
(-0.0738123 -0.28511 -2.40935e-19)
(0.00702773 -0.00814713 7.89353e-19)
(-0.0171164 0.0028874 7.68518e-19)
(-3.7765e-06 -7.75809e-05 -1.62206e-21)
(0.00936142 -0.00155764 4.64129e-19)
(0.00907103 9.56655e-05 -3.62685e-19)
(0.00113715 -0.000773437 7.66429e-20)
(0.00547348 0.00182409 7.82712e-19)
(0.0171802 0.00149191 -1.25708e-18)
(0.00868287 -0.000936403 1.20982e-19)
(-0.00343239 0.0878417 -4.58109e-18)
(-0.0128326 0.00380537 2.19138e-19)
(-0.0846239 0.0513801 5.38654e-18)
(0.00188657 5.94803e-06 -6.45666e-20)
(0.023541 -0.00191914 3.94811e-18)
(0.0960971 -0.448834 6.4862e-18)
(0.00449757 -3.66213e-06 6.01015e-19)
(0.00613635 -0.00843636 4.78056e-19)
(0.000385705 -0.00153912 7.30834e-19)
(0.00408503 0.000270945 -4.67062e-19)
(0.00892026 0.0775972 3.77338e-18)
(-0.000527754 2.88748e-05 1.71113e-19)
(0.00861692 3.34559e-05 -1.28072e-19)
(0.00381851 -2.26334e-05 -2.00654e-19)
(0.00945767 5.78379e-05 -1.19223e-19)
(0.00913481 0.000115713 3.81843e-19)
(0.0242245 0.00132148 -2.16787e-18)
(0.0079895 -0.00204034 8.46099e-21)
(0.0638679 -0.0840193 -1.28885e-18)
(0.00405322 0.000164688 3.76805e-19)
(0.0253936 -0.00243987 -5.29509e-18)
(0.0229606 0.0260461 8.41651e-19)
(-0.0121081 0.00665894 -1.2285e-19)
(0.00220347 -0.00167655 4.36163e-20)
(0.0857013 -0.0205064 -1.12512e-17)
(-0.010693 -0.0185331 -8.45036e-18)
(0.00235949 -0.000439466 -1.36045e-19)
(-0.0193019 0.0650976 2.42951e-19)
(-0.0324625 -0.0971855 -4.3667e-19)
(0.00362198 -0.0013574 -3.21848e-19)
(0.00307902 0.000122069 4.44074e-20)
(-0.0116481 0.000645992 -1.41916e-18)
(-0.0734392 -0.125009 -2.11504e-19)
(0.00565695 2.85472e-05 -2.84137e-19)
(0.157707 -0.198473 -2.78121e-19)
(-0.0609425 0.068053 -6.09406e-18)
(-0.0572019 -0.132405 2.77985e-18)
(-0.0103148 -0.124132 -3.06339e-18)
(-0.16596 0.374355 1.5306e-17)
(0.0148751 0.0243468 1.88892e-19)
(0.0787706 -0.0275699 -1.82922e-18)
(-1.93439e-05 -9.41362e-05 -1.85782e-21)
(0.00983478 0.00141815 2.26583e-19)
(-0.000184289 -9.63104e-05 -4.10781e-23)
(0.0263041 -0.00565051 2.15938e-18)
(-0.0549779 -0.100371 -1.52703e-19)
(0.00471684 -0.000563326 -4.61309e-19)
(-0.000168787 -0.000165771 -3.46645e-21)
(0.00173822 0.0097729 -2.57092e-19)
(0.00568685 0.00323848 5.84114e-19)
(-0.063241 0.103723 4.76205e-20)
(-0.00452036 0.00772637 5.10402e-19)
(-0.000335491 0.000157703 5.74402e-22)
(0.00348977 0.00281765 2.1354e-20)
(0.00102033 0.0592425 -3.49164e-18)
(0.00637436 0.000603615 -3.80158e-20)
(0.00685051 0.00335262 -1.48403e-18)
(0.00543226 -0.000666553 5.82121e-19)
(-0.0103484 0.00157259 -1.57956e-20)
(-0.00926363 0.00450775 -6.53334e-20)
(-0.000408165 0.000117314 1.658e-22)
(0.152673 -0.103618 -7.02805e-18)
(0.00179105 -0.000350401 7.10566e-19)
(-0.011461 0.00767338 4.05298e-20)
(-0.00962585 0.000625362 8.081e-19)
(0.00301433 0.00334185 2.81335e-19)
(-0.0389719 -0.0685405 -1.03384e-17)
(-0.000398572 0.000148039 -9.8663e-22)
(0.00141638 -0.000343354 -1.99493e-19)
(0.00165131 -0.000222896 -1.22836e-19)
(0.00156495 -0.00018957 -9.53171e-20)
(-0.00629004 -0.00282026 -4.80462e-20)
(0.00214649 0.0003483 5.1947e-19)
(0.00224156 0.000318752 -6.277e-20)
(-0.000248953 -0.000147741 3.28153e-21)
(0.00742301 0.0533307 2.92702e-18)
(-0.00689311 0.00128239 1.00814e-19)
(0.0029257 -0.000142978 1.20526e-19)
(-0.012412 0.00563621 -2.57314e-19)
(0.00588142 -0.00991145 1.40419e-19)
(2.99911e-05 -9.47644e-05 4.15776e-22)
(-0.194043 -0.00320583 -1.0331e-17)
(-0.00592083 -0.000340104 2.94705e-19)
(0.152936 -0.395552 7.83841e-18)
(0.0265716 0.0228585 -9.17832e-19)
(0.00430802 -0.000499514 -1.77683e-21)
(-0.0750183 -0.0110915 -1.37812e-18)
(0.0241381 -0.00750513 1.87167e-18)
(-0.00523568 0.00985956 3.16392e-19)
(-0.00787792 0.00743324 -2.61921e-19)
(0.00875957 -0.0106078 1.71666e-19)
(0.000162755 -1.85778e-05 4.40511e-21)
(-7.07631e-06 -0.000387998 5.79526e-20)
(-0.0099348 0.0136314 9.3532e-20)
(0.00362084 -0.00235852 6.64698e-20)
(-0.11643 -0.233492 -2.07844e-19)
(-0.00829263 0.0113401 8.29585e-19)
(0.00660676 0.00189791 -1.48278e-19)
(0.00175395 0.0117891 8.22201e-20)
(0.00789385 0.000764924 -2.18929e-19)
(0.00020959 -0.000111828 1.11254e-20)
(0.00548399 -0.000628348 4.65525e-19)
(0.00783803 0.000787283 1.80557e-19)
(-0.00109178 -0.00670515 -1.01071e-20)
(0.00577287 -0.000898868 9.11545e-19)
(0.00425318 -0.000742667 4.06788e-19)
(0.00738634 2.76435e-05 1.90708e-19)
(0.00395212 -1.59257e-05 -3.24796e-19)
(-0.00313907 -0.000330699 2.25751e-19)
(0.00106176 -0.000242121 1.92972e-19)
(0.00217016 -0.000335489 -3.25096e-19)
(0.00931217 -0.00235724 1.6333e-18)
(0.00503234 -2.84016e-05 1.07323e-19)
(0.00240861 -0.000165565 -3.31327e-19)
(0.00170681 -0.000739562 -2.58182e-20)
(0.00151561 -0.000803017 1.89422e-19)
(-0.000349503 -0.000113354 -3.84919e-22)
(0.0023837 -0.000189206 -4.6871e-20)
(0.00147794 -5.75801e-05 -1.7516e-19)
(0.174914 -0.0905582 1.85284e-18)
(-0.107023 -0.0434939 -4.64484e-20)
(0.000275607 -9.37617e-05 1.64157e-20)
(-0.10747 -0.0551326 -2.79882e-19)
(-0.00454634 -0.188918 1.41967e-18)
(0.00163836 6.82169e-05 4.6329e-19)
(0.000113449 -4.7419e-05 7.31545e-22)
(0.000600394 -9.49849e-05 2.83427e-20)
(0.0090104 -0.00243515 -1.29953e-18)
(0.00189266 -0.000176084 -1.56343e-19)
(0.00513463 -3.32187e-05 1.52016e-19)
(0.00479335 -0.000802516 5.48273e-19)
(0.00558411 0.00146821 1.13841e-20)
(0.00130362 -0.000614224 -6.44063e-20)
(0.0636539 0.0882503 -7.63642e-20)
(-0.000480132 -7.96605e-05 6.07727e-22)
(-0.0192467 -0.343325 1.88041e-18)
(0.00906452 -0.000492671 -2.8964e-21)
(0.00928613 -0.00611962 1.5364e-18)
(0.00117179 -0.000726662 -2.40372e-20)
(-0.00247691 -0.001697 -2.61131e-19)
(0.000471115 0.00310876 1.68479e-19)
(0.0706748 -0.18665 -5.67198e-18)
(-0.000591359 -4.52084e-05 -8.55885e-22)
(0.0644934 -0.195402 3.99758e-18)
(0.0052468 -0.00212736 1.31899e-19)
(0.0358231 0.0784966 -1.45287e-19)
(0.00429276 -0.000714529 -4.16375e-19)
(-2.93817e-06 5.7622e-07 -1.76889e-21)
(0.00531877 0.000997416 1.6579e-19)
(0.0104413 0.00144047 -2.02399e-19)
(-0.257766 0.261203 -3.21057e-18)
(0.00522383 -0.000657878 6.77729e-19)
(0.00191572 -0.000194365 2.53771e-19)
(0.00967517 -0.00165457 -3.85851e-19)
(-0.0638373 -0.09237 -6.53266e-20)
(0.00784933 0.00131144 -1.38138e-19)
(-0.0214232 0.0768113 -5.46926e-20)
(0.00530359 0.00103859 -4.08155e-19)
(-0.000199535 -0.000360555 2.74965e-20)
(0.0013363 -0.000664747 -8.01899e-20)
(0.00512578 -0.0020318 4.92699e-19)
(0.00696995 -0.000198211 2.47422e-19)
(0.0466205 -0.0863645 3.71777e-18)
(-0.173649 -0.0917104 1.22044e-17)
(-0.0230138 -0.124262 2.84066e-18)
(0.0114171 0.00116824 -3.4799e-19)
(-0.00345896 -0.0160893 1.40549e-20)
(-0.00285977 0.0014176 2.71469e-19)
(-0.0373539 -0.188166 -5.60172e-19)
(0.000913534 -0.000206381 -3.01329e-19)
(0.00529312 -0.00089965 -4.50529e-19)
(0.0847635 0.102961 -1.65986e-19)
(0.0322685 -0.0988424 5.92262e-18)
(0.00647049 0.000632967 2.40967e-19)
(0.00286578 -0.00079679 -2.81244e-19)
(-9.34248e-05 -0.000184672 -4.65712e-22)
(0.00915208 -0.3789 7.03512e-19)
(0.00204591 -0.000373253 8.43315e-20)
(0.00214163 0.0431687 -3.56494e-18)
(0.0113759 -0.00263218 2.51487e-19)
(0.0114864 -0.000272914 2.0898e-19)
(0.0419809 -0.0706907 -6.34423e-18)
(0.0593295 -0.0800127 -4.6762e-18)
(0.00546648 -0.00173185 5.17876e-20)
(-0.00996314 -0.0163222 -1.26591e-18)
(0.000558415 -0.000122663 -1.43353e-20)
(-0.000556757 -0.00370852 5.53758e-19)
(-0.0813157 -0.0675959 -3.43101e-19)
(-4.48738e-05 -0.000167569 1.03726e-22)
(-0.117084 0.150245 2.04206e-17)
(0.0177322 -0.017785 2.54565e-18)
(0.00555361 -0.000572087 -2.85118e-19)
(0.00368147 -0.00223959 -1.70915e-19)
(0.00719525 -0.000161992 5.90761e-20)
(0.00466666 0.00310314 7.56585e-20)
(0.0687843 0.0824211 3.21146e-19)
(-0.0110501 0.00959785 -1.3921e-19)
(0.0022266 0.000349892 -3.61851e-20)
(0.0202071 -0.0162663 -8.74068e-19)
(0.0160685 0.0171094 2.01288e-20)
(8.88882e-05 -6.67497e-05 2.84035e-21)
(-2.5321e-05 -3.1514e-05 5.80813e-22)
(0.00772771 -0.000539955 -6.14873e-19)
(0.000745127 -0.000141966 -7.99146e-20)
(-0.00135364 0.0172569 -4.3459e-19)
(-0.108525 0.109876 -4.38429e-18)
(0.000819758 -0.000366694 1.75065e-19)
(0.00128591 0.00217939 -6.70614e-19)
(-0.0856826 -0.00534453 4.01898e-17)
(-0.00663021 0.000909543 -3.87122e-20)
(0.00682285 0.0390832 3.82102e-18)
(0.00169645 -0.000603613 1.68424e-19)
(0.00226491 0.0013005 1.43572e-21)
(-0.0800429 0.0654376 -4.60572e-18)
(0.0041756 0.00175743 -6.45683e-19)
(0.00128808 -0.000204353 8.10598e-21)
(0.00397986 -0.000596158 1.11534e-19)
(0.00837219 -0.00310946 7.39289e-20)
(0.00149331 -0.00028266 -4.51534e-19)
(0.00211865 3.64804e-06 -9.21617e-20)
(0.00186163 -0.00304235 1.09847e-20)
(0.00771224 -0.00190426 2.33735e-19)
(0.0259107 0.018645 1.17262e-19)
(-0.00362967 0.014095 -1.1332e-18)
(0.00125987 0.00083322 4.30867e-19)
(0.00228886 -0.0113141 -2.33968e-18)
(0.00209692 0.0031355 4.62062e-19)
(0.00809323 -0.00193214 -3.88801e-19)
(0.000758413 0.0166039 -1.83591e-18)
(0.00230809 -0.00023254 -1.31791e-19)
(0.0252182 -0.0547977 -1.2318e-18)
(0.00453155 0.00203316 7.65269e-19)
(0.0284359 0.0154743 2.56223e-18)
(0.00159129 -3.33729e-05 -1.63918e-19)
(0.0100975 -0.00595244 4.15087e-19)
(3.80382e-05 -0.000169439 6.60621e-22)
(0.000152327 -0.000139339 1.19947e-21)
(0.0119006 -0.00137404 3.57821e-20)
(0.102098 0.122493 6.61846e-19)
(-0.00942339 0.00207007 -3.69218e-19)
(0.00231453 -0.00018817 -8.90846e-20)
(0.000672211 -0.000427221 1.06901e-19)
(0.00387932 -0.0140503 1.60958e-18)
(0.0062922 -0.00065026 1.13293e-19)
(-0.00025905 8.01684e-05 -3.23218e-22)
(-0.000281869 8.63984e-05 2.51599e-22)
(0.0101009 0.00068843 2.73489e-19)
(-0.133484 -0.160739 -1.86027e-18)
(0.0110984 -6.28849e-05 -9.07356e-21)
(-0.00553367 0.0128431 7.22327e-19)
(0.00705973 -0.00312379 2.69966e-19)
(0.000155451 -8.16504e-05 1.11418e-21)
(0.0025125 -6.6754e-05 2.16757e-19)
(0.00413792 0.000284451 5.36617e-19)
(-0.00921323 0.0100821 -9.40212e-19)
(0.0060337 -0.000570074 -5.82501e-19)
(0.00134009 -0.00296775 -7.04237e-19)
(0.00885808 -0.00405448 -3.4405e-20)
(0.00284743 -4.31099e-05 -7.64087e-19)
(0.0029592 -0.00080409 4.45723e-19)
(-0.00282 -0.000367169 -2.66417e-19)
(-0.078879 0.00838718 -2.95323e-18)
(-0.0125247 0.00516595 -2.64072e-19)
(0.00448792 -1.44856e-05 1.74557e-20)
(0.000380552 -3.10068e-05 -8.71314e-21)
(-0.00237868 -0.00635222 -5.27675e-20)
(0.00531954 -0.00319875 -7.56541e-20)
(0.0117869 -0.00466975 -4.28935e-19)
(0.0104774 -5.48362e-06 -1.05234e-19)
(-0.00916289 0.239606 -9.65876e-18)
(0.00177222 0.000249393 -4.53147e-19)
(0.0594845 0.0572415 4.70414e-18)
(-0.0626318 0.00670421 2.84518e-19)
(0.00285896 -9.30383e-05 -3.07972e-19)
(0.00347548 9.93463e-05 5.75162e-19)
(0.00253015 -0.000143937 -8.16421e-20)
(0.00534403 -0.0150294 -9.21701e-19)
(0.0067909 -0.00712291 2.00273e-19)
(0.00576433 -0.00371767 3.81371e-19)
(0.0496904 0.0663741 -4.41238e-18)
(0.0130206 -5.05624e-05 -2.60407e-19)
(0.00246583 -0.000131713 -3.2628e-19)
(0.00728759 -0.00777231 -5.33995e-19)
(0.00104096 -0.00322949 -8.30182e-19)
(0.00300849 -0.00183675 3.6811e-20)
(-0.00753089 0.00336717 -1.78342e-20)
(0.0049002 0.00215568 2.19896e-20)
(0.00648628 -0.000156598 -5.25437e-19)
(0.00521282 -0.0119811 3.13372e-18)
(0.0103351 -0.00253443 -1.72804e-19)
(0.00616115 -0.000136891 2.87748e-19)
(-0.000541349 -7.48105e-05 2.58107e-22)
(-0.00815878 0.0230241 -2.00136e-18)
(-0.000206439 -0.00012673 1.14626e-22)
(6.19605e-05 -0.000169965 6.39217e-23)
(-0.257521 0.268975 -2.24175e-18)
(0.00587664 -0.00379322 -7.17143e-20)
(-0.0359988 -0.083561 8.60531e-19)
(0.0237225 -0.0107361 -4.62378e-18)
(0.000938559 -0.000489529 5.30035e-20)
(0.00654276 0.000655099 3.87038e-18)
(0.0218778 -0.0125357 8.88396e-19)
(-0.00361692 -0.00258911 -1.50272e-19)
(0.00336738 0.0319236 -3.57015e-18)
(0.0162409 0.0334015 -2.57828e-19)
(0.00452898 -0.000420465 -4.94012e-19)
(0.009404 3.78701e-05 3.21055e-19)
(-0.000874048 -0.000938236 2.40536e-19)
(0.0016996 -1.13214e-05 -2.22918e-19)
(0.00620545 0.00212007 -6.68913e-19)
(0.00289267 -0.0226557 -3.10621e-18)
(0.00729348 0.00118711 2.97797e-19)
(0.00509586 -2.69771e-05 3.78603e-20)
(0.00201055 0.218462 2.08047e-17)
(-0.0065074 -0.000456854 -9.5557e-19)
(0.00131902 -0.000786241 1.89944e-20)
(3.13085e-05 -0.000184536 6.80505e-22)
(0.00703437 -0.00576126 4.48742e-19)
(0.00387518 -0.000525929 6.82036e-19)
(-0.000318473 -0.0249101 -2.9238e-18)
(0.00341017 -0.00269852 7.20959e-20)
(0.00287857 -0.000752172 1.5701e-19)
(0.00078781 -0.00210203 -5.23438e-19)
(-0.00707672 -0.0014926 5.02353e-19)
(0.0597989 -0.121866 -9.72716e-19)
(0.00313778 -0.00157755 1.89427e-20)
(-0.0182739 -0.0399572 6.6606e-19)
(-1.2079e-05 -6.07077e-06 4.6852e-21)
(0.00773211 0.00740032 7.15908e-19)
(0.0838067 -0.0437817 -4.07005e-18)
(-0.00700106 0.0793294 1.32817e-20)
(0.00834121 0.00816385 2.79735e-19)
(0.00498247 -0.00552137 -2.32167e-19)
(-0.00282722 -0.00915278 1.44127e-20)
(-0.0164165 -0.00371967 1.8155e-18)
(0.00301963 0.000138576 -2.79801e-19)
(0.0322999 -0.0428986 1.35879e-18)
(-0.00544969 0.00381451 -2.01321e-19)
(0.00068702 -0.000113995 4.26883e-21)
(-0.0652544 -0.00102359 -5.72135e-19)
(0.00561836 0.0290461 3.52175e-18)
(-0.0237457 0.0282212 2.33443e-19)
(0.00371102 -0.00067443 -1.07345e-20)
(-0.00289202 0.0197899 1.41946e-19)
(0.138945 -0.444319 -6.04808e-18)
(0.0166824 0.00346371 2.90726e-18)
(0.00835265 0.00107142 1.93437e-19)
(-0.0863177 0.0270686 5.30427e-19)
(0.00551821 0.00153039 2.64909e-19)
(-0.000377254 -0.000115845 9.77579e-22)
(0.00343762 -0.0109925 -3.93488e-18)
(0.00699892 -0.00144425 8.11791e-19)
(-0.110558 0.00318846 -3.91599e-18)
(0.013952 -4.99539e-06 -3.84879e-20)
(0.00725245 -0.00454425 7.09179e-20)
(0.00103353 -5.86349e-06 5.60757e-20)
(0.0048113 0.000184641 4.2679e-19)
(0.00115933 -0.000801462 -2.85799e-20)
(0.00420181 -0.00151707 -6.37429e-19)
(0.0043641 -0.00978545 3.28785e-18)
(0.064664 -0.131992 -2.16282e-18)
(0.00801919 -0.00186656 -6.22375e-19)
(0.332613 0.443248 3.81985e-18)
(0.000230129 0.0235752 4.11182e-19)
(-0.011708 0.00404268 -2.74207e-19)
(0.0137545 0.0184866 7.19674e-19)
(-7.44154e-06 -0.00016732 3.41464e-23)
(0.00215825 -1.68284e-06 -8.91866e-20)
(-0.000366476 -0.000827615 -5.2123e-19)
(0.00918312 -0.0720279 2.90414e-18)
(0.00686149 0.0226834 -1.18831e-19)
(0.00173026 -0.000524505 -1.08283e-19)
(0.00232391 -0.000837 -5.03382e-19)
(0.159013 -0.0900981 -1.79018e-17)
(0.000651414 -0.000420733 8.68556e-21)
(0.206626 -0.541739 1.30025e-17)
(0.000227248 0.00251801 9.33173e-19)
(0.00562078 -0.00948891 -2.4874e-18)
(0.000617063 -0.000403853 -5.2262e-21)
(0.0110291 -0.00279953 5.93052e-19)
(0.00817533 0.00121977 -1.42826e-19)
(0.00903775 0.00176787 -4.18734e-19)
(-0.103018 -0.250402 1.39095e-18)
(0.00208748 -0.00029852 1.36566e-20)
(-0.0170637 -0.00157936 -1.34597e-19)
(0.00965387 -0.00845941 -2.28156e-19)
(0.0054616 -0.00296095 3.88282e-20)
(0.00997342 -0.00765713 1.12894e-19)
(-0.00509633 0.00278672 5.45946e-19)
(-0.00761151 0.00137424 7.38146e-19)
(0.00157491 -0.000726688 -6.77925e-20)
(0.0669133 0.0217023 -4.27558e-19)
(0.0114757 -6.31755e-05 3.46787e-19)
(0.00367301 -0.00205386 2.88181e-19)
(0.0207156 0.0308611 -1.30082e-18)
(0.00863326 -0.00132498 4.74262e-20)
(0.00328115 0.0161708 3.75737e-19)
(0.00636729 -0.00349649 -6.7339e-21)
(0.00102619 -0.000552803 9.96833e-20)
(0.0103979 0.00133325 4.80815e-19)
(0.00430154 -5.48503e-05 1.43934e-19)
(0.00353966 -0.00210709 3.96994e-19)
(0.000979432 -0.000400755 9.26642e-20)
(-0.00666304 -0.00974962 1.14154e-19)
(0.00155291 -0.000805738 -1.6519e-19)
(-0.00458924 -0.00890516 -1.18481e-20)
(-0.00202815 -0.00242516 -6.60878e-20)
(0.000302199 -0.0542222 -2.34969e-18)
(0.00721923 5.19472e-05 -8.93766e-20)
(-0.00368901 -0.00169614 4.01578e-19)
(0.00339224 2.15457e-05 -5.55123e-19)
(0.00870681 -0.00181685 4.98497e-19)
(-0.0598577 -0.0953465 -2.81722e-19)
(-0.00263311 0.00228281 2.26649e-19)
(0.0735961 -0.0508068 -9.50948e-19)
(0.00129862 -0.000720802 6.50524e-20)
(0.00544886 0.00329605 -4.45179e-19)
(0.00781449 -0.00418603 7.70255e-19)
(0.191073 -0.224532 3.72115e-17)
(-0.0013008 0.102982 6.70633e-18)
(0.108145 -0.00924157 -3.25779e-19)
(0.0272895 -0.0609275 1.61306e-18)
(-0.0111977 0.00936671 -2.98213e-20)
(0.000655985 -8.18906e-05 -3.16522e-20)
(-0.0202711 -0.0604196 -5.81955e-18)
(0.0108036 0.000607487 -1.04535e-18)
(0.00856841 -0.00347423 5.4107e-19)
(-0.000353704 0.000144353 3.57294e-22)
(-0.00552102 0.00245595 1.48677e-20)
(0.0129519 -4.24774e-05 -2.88971e-20)
(0.0063046 -0.0070285 -4.23542e-19)
(0.000536605 0.0205375 2.97054e-19)
(0.000658909 -0.000430972 -1.14892e-19)
(-0.00812031 0.0064249 -3.9938e-20)
(-0.000253101 -0.000368096 -2.461e-20)
(0.00219718 0.000413597 1.09784e-19)
(0.0026126 7.27551e-05 -6.33522e-22)
(0.119836 -0.156 2.51834e-18)
(0.0103275 0.00131971 -1.21413e-19)
(-0.095892 -0.0384041 -6.56766e-19)
(0.00190197 0.000425353 5.68548e-19)
(0.00398163 -0.0166119 1.27321e-18)
(2.34167e-05 -5.91076e-06 -3.45067e-21)
(0.00194609 -6.71026e-07 -1.03334e-19)
(0.000431617 2.57653e-05 -6.91702e-20)
(-0.00571306 0.0064865 3.42184e-20)
(-0.0260591 -0.0596863 4.89142e-18)
(-0.00114397 -0.00317281 -1.30583e-19)
(0.00581939 -0.00633384 -1.4156e-19)
(0.000602397 -0.000440131 -1.22225e-19)
(0.00650259 6.05209e-05 -2.13588e-19)
(0.00850541 0.0171639 -8.42388e-19)
(0.00939241 -0.00781756 -2.28876e-19)
(0.00279538 -5.56033e-05 -1.63494e-20)
(-0.000770797 -5.59824e-05 -1.39966e-19)
(-0.0662849 0.00989963 1.38342e-18)
(-3.80379e-05 0.0239116 -1.2908e-18)
(0.00348471 -0.00254271 -1.3357e-19)
(-0.0997013 -0.118204 7.42289e-19)
(0.00966609 -0.0691966 -5.02022e-18)
(0.00133059 -3.47866e-05 -5.97333e-20)
(0.00142454 -1.50651e-05 5.16951e-20)
(0.00898941 -0.00502436 -1.38519e-19)
(0.00605058 0.0185012 -4.0395e-19)
(0.00197945 -0.00228797 -4.99048e-19)
(0.00438443 7.56329e-05 -3.15332e-19)
(0.0132479 -2.26723e-05 2.90442e-19)
(-0.00368779 0.00106213 -2.95984e-19)
(0.000185178 0.00339258 -4.98612e-19)
(0.00239146 0.00103431 -1.829e-19)
(-0.000219665 -0.000107012 1.53966e-22)
(0.0290577 0.016551 -4.12767e-19)
(0.000728541 -6.5114e-05 8.55285e-20)
(-0.0473734 -0.105389 -4.21203e-19)
(0.0131497 -0.0153215 1.42281e-18)
(0.00177989 -0.000409534 -7.66498e-20)
(-0.0126633 0.00371329 2.33576e-19)
(-0.000188629 0.00961719 -6.87489e-19)
(-0.216103 0.0517714 8.56101e-18)
(0.00674793 -0.00374303 4.36519e-19)
(-0.0141463 0.230884 1.86035e-17)
(0.00119312 -0.00054264 1.20232e-21)
(0.00209764 0.00158098 -9.05385e-19)
(0.0198056 0.0194739 4.03091e-20)
(0.00156238 -0.000308865 1.85184e-19)
(0.00657508 0.00766133 5.50146e-20)
(-0.0574741 -0.00109052 -7.55782e-19)
(0.00488029 -0.0127844 1.14576e-18)
(0.0017518 -0.000381382 2.83872e-19)
(0.27076 0.650488 -3.93061e-17)
(0.00141733 0.0218508 1.00661e-18)
(0.00221941 0.00122553 1.32004e-19)
(0.00732718 0.00137128 -6.46405e-20)
(-0.0153085 0.0185687 1.09309e-18)
(0.00410682 -0.00136244 3.21674e-19)
(0.00192639 0.000980368 2.09161e-19)
(0.00755291 -6.31853e-06 -1.3039e-19)
(0.00256515 -0.00121019 -2.64381e-19)
(-0.072013 0.0472745 2.32464e-18)
(-0.00422615 0.0162149 -1.26734e-19)
(0.0106982 -0.0145803 1.37247e-19)
(-0.0133881 0.00615552 6.40035e-19)
(0.00784863 0.00106189 -1.57209e-18)
(0.00609964 -0.000146838 -1.03031e-19)
(0.00689176 -0.00120081 2.77453e-19)
(0.000321048 -0.000104031 -5.8391e-21)
(0.010274 -4.00047e-05 -2.77703e-19)
(-0.219778 0.0679883 -2.91782e-18)
(-0.00404636 0.0937227 -2.01307e-19)
(0.000610826 -0.00046784 -8.18595e-20)
(0.0029071 -0.0104838 -1.97044e-20)
(0.0153329 -0.0843395 2.06652e-18)
(0.00536162 0.00136463 -1.2196e-19)
(0.00236306 -0.00241355 -2.03274e-21)
(-0.015361 -0.0442159 -3.26282e-18)
(0.000263748 -0.000146053 -2.69269e-20)
(0.0125305 0.0306466 -5.31274e-19)
(-0.0973811 -0.0384105 1.2276e-18)
(0.00651566 -0.000634891 2.20292e-19)
(-0.105583 0.0525647 -3.12608e-18)
(0.000194841 -8.0075e-05 9.01262e-21)
(0.0692185 -0.277234 -7.59417e-18)
(0.00922931 -0.00336792 -6.77141e-19)
(-0.0999971 0.0389971 8.58176e-19)
(0.00937699 0.00116352 -4.7361e-19)
(0.0015012 0.00104407 -1.10742e-19)
(0.00702168 0.000946904 -8.06376e-20)
(-0.000500586 9.5295e-05 -1.32245e-21)
(-0.00163205 -0.0100343 -6.89517e-20)
(-0.104279 -0.126465 7.08531e-19)
(-0.0670185 0.114073 4.66602e-18)
(0.187854 -0.166521 1.54583e-18)
(0.00740339 0.00841868 -1.5046e-19)
(-0.0300662 0.304041 1.37093e-17)
(0.0085547 -0.00468255 -2.20495e-18)
(0.000199285 4.07504e-05 -3.19798e-19)
(0.00374387 0.00629543 3.85741e-19)
(0.00259708 -0.00988352 6.12969e-20)
(0.00725918 -0.0460528 -2.82044e-19)
(0.00164151 -0.00169632 -4.40668e-19)
(-0.0197009 -0.0378002 1.89668e-18)
(0.000908677 -0.000353289 2.1837e-20)
(0.000467568 -0.00448415 4.8188e-20)
(0.00250447 -0.000131574 -1.53645e-19)
(0.00510741 -0.000522172 1.69819e-18)
(0.00406202 -7.50757e-06 -3.30092e-19)
(-0.108515 0.0888427 2.57392e-18)
(0.000777702 -0.000432341 -4.51618e-22)
(0.00163508 3.94577e-05 -6.08934e-20)
(0.00608222 -0.00125898 -1.20687e-18)
(0.0116948 -0.00302935 -6.18009e-19)
(0.0115858 0.0016642 -2.38928e-20)
(0.00956107 0.00135966 3.1772e-19)
(0.00697524 -0.000165439 5.15718e-21)
(0.00727333 0.00119911 -1.19973e-21)
(0.00816989 0.00128735 1.55636e-20)
(-0.0262434 0.0963834 -5.60559e-20)
(0.00585228 0.00024785 -3.08401e-19)
(-0.00662019 0.00539956 6.7845e-21)
(0.250352 -0.589696 -5.28842e-18)
(0.00404519 0.000228192 -5.03713e-19)
(0.00294389 -0.00016323 2.93033e-19)
(0.00615066 -0.0173918 3.05702e-18)
(0.00212139 -0.000982503 1.10074e-18)
(0.00212776 -0.000322221 -9.0737e-21)
(0.000939326 -0.00314354 2.13558e-20)
(0.0167811 0.00497341 1.78961e-18)
(0.00816524 -0.0029575 9.97427e-19)
(0.00755431 -0.000362082 -2.74345e-19)
(0.0106854 -0.00290405 4.03946e-19)
(0.00172436 0.000275205 -1.50411e-20)
(-0.00318872 0.010777 1.90043e-19)
(0.0032739 -0.00489819 9.64604e-20)
(0.00777934 -0.00247278 -6.96155e-20)
(0.00102423 -0.00275719 7.46587e-19)
(0.00732737 -0.00627067 8.56523e-19)
(0.0302505 0.0125263 -2.40029e-19)
(0.0029703 9.28865e-05 1.08058e-19)
(0.056186 0.0321243 2.06099e-20)
(0.00448249 0.0014981 -1.71291e-18)
(0.00239378 -2.47631e-05 1.31103e-20)
(0.00634705 -0.000206662 -1.15731e-19)
(0.00367911 -0.000341359 6.63529e-19)
(-0.00966598 -0.00807363 2.75413e-20)
(-0.010714 -0.0100401 -1.38757e-19)
(0.00437194 0.00152408 -2.03861e-19)
(0.00205228 -0.000405053 -3.70631e-19)
(5.22793e-05 -6.06897e-05 2.50908e-23)
(0.00631309 1.10547e-05 2.954e-19)
(0.00154558 -0.000314579 9.02184e-20)
(0.00383356 8.68359e-05 3.79016e-19)
(-0.000134182 -0.0105593 9.72993e-19)
(0.00100436 -0.000287489 -3.65448e-20)
(0.00533658 -0.000651733 1.39461e-19)
(0.000722209 -3.11168e-06 -1.10317e-19)
(0.00648508 -0.0014053 4.55083e-19)
(-0.00168494 -0.00959332 -1.98263e-18)
(0.00894456 -0.000358599 -1.32828e-18)
(0.00267083 0.00728264 -5.87563e-19)
(0.00308386 8.05981e-05 -6.44998e-19)
(0.00605893 0.000964102 1.55478e-19)
(0.00639662 -0.000221669 1.07873e-19)
(0.00127938 0.000893801 -8.75657e-19)
(0.000503882 -0.000393876 -7.42086e-20)
(0.000912932 -4.04219e-05 -2.01263e-20)
(0.000421199 -0.000413016 6.53568e-20)
(0.00683075 -0.00012438 1.56032e-19)
(0.00340516 -0.000101164 5.57141e-20)
(0.000729098 -0.000413985 -3.60991e-20)
(0.0120904 0.000591715 -8.98743e-19)
(0.0021421 2.74508e-05 -4.28249e-19)
(0.0024793 5.61331e-05 -6.13347e-20)
(0.0018032 -0.000447258 -7.6766e-19)
(-0.0125334 -0.0280855 -4.0379e-19)
(0.00801941 0.000348587 -4.52365e-20)
(0.000633751 -0.000412423 8.96932e-20)
(0.00619694 0.0266803 2.65893e-19)
(0.000166553 -6.99194e-05 -1.10518e-20)
(0.0035218 0.00728545 -1.83553e-19)
(-0.120245 0.104563 -8.55999e-19)
(0.00958534 -0.000917493 -8.38918e-19)
(0.00464753 4.02461e-05 -5.82765e-19)
(0.000470642 6.97586e-05 4.46713e-20)
(-0.0271874 0.0593072 5.90873e-19)
(0.00373903 -0.000404896 8.34679e-19)
(-1.3902e-05 0.023588 -9.23432e-21)
(0.168931 -0.165494 -3.32567e-18)
(-0.0388664 0.0114162 -8.65667e-20)
(-0.0311607 0.0951749 1.56315e-18)
(0.00327389 0.00668229 -2.76626e-21)
(0.00354771 -0.000553882 6.60852e-19)
(-0.00897437 -0.0047995 9.40157e-20)
(0.00302825 -0.0016379 -1.18293e-18)
(0.000626035 -0.000416085 -9.22033e-20)
(-0.000207915 -0.000160355 -1.86399e-22)
(-0.0165641 -0.0541152 1.70115e-18)
(0.0427435 -0.0948221 -6.72701e-20)
(0.00484249 -0.00025787 -2.22533e-19)
(-0.0178423 0.0222921 -1.34773e-18)
(0.00369834 -0.00051403 -2.24299e-19)
(0.000136932 -0.000395103 5.95944e-19)
(0.159186 -0.334393 2.13296e-20)
(0.00400861 5.2761e-05 2.42797e-19)
(0.043925 -0.0281022 -9.01597e-20)
(0.00150249 0.000298979 -3.94404e-19)
(0.0309802 0.0124184 2.03052e-18)
(0.00563895 0.000795553 -4.69565e-19)
(0.00796619 -0.00515781 1.87521e-19)
(0.00175219 -0.00465195 -1.11534e-18)
(-0.119358 0.0651739 3.51175e-18)
(0.00147498 0.227072 2.67907e-18)
(-0.00068318 0.00272369 1.45954e-19)
(0.00157725 0.000119751 2.83914e-19)
(0.000929753 0.0037528 -1.69369e-18)
(0.00623659 -2.85837e-05 -7.39609e-20)
(-0.00255229 0.0183298 1.77486e-18)
(0.00330405 0.0237651 -1.13765e-19)
(-0.136303 0.397718 4.51744e-18)
(0.00856225 0.00111485 1.57718e-19)
(0.001953 -0.00258986 2.11477e-20)
(0.00323083 -0.00144699 3.04475e-19)
(-0.0397437 -0.00840528 3.22425e-19)
(0.00158433 -0.00229114 -1.44831e-20)
(-0.0834423 0.00415516 8.1532e-20)
(-0.00247021 0.000195193 -1.00283e-19)
(0.00435376 0.00509714 -2.71055e-19)
(-0.0395828 0.0263864 3.83595e-21)
(0.0763019 0.030703 -1.57643e-18)
(0.00189536 0.00040258 1.87524e-19)
(0.00689094 0.000161439 -3.89724e-20)
(0.00382086 1.74512e-05 -7.07987e-19)
(0.00613597 0.00849664 5.47016e-20)
(0.000889565 -0.000418309 7.38196e-20)
(0.0635667 -0.0432933 1.26698e-18)
(0.000957546 -0.000403531 1.70957e-19)
(-0.00211517 0.00474487 -4.79082e-21)
(0.00811106 0.000355929 -2.983e-18)
(0.00816272 0.00470472 3.52426e-19)
(0.0186152 0.0232491 -2.69488e-20)
(0.00644886 -0.00127421 -2.1781e-19)
(0.0997385 0.00165229 -1.30144e-18)
(0.0351509 -0.0873785 1.28826e-18)
(0.00407524 -0.00232832 1.07337e-19)
(-0.114269 0.0314257 1.616e-18)
(-0.0368724 0.0202214 2.23821e-19)
(-0.0250414 0.0369569 -3.66849e-19)
(0.000922405 -0.000427894 -1.91548e-19)
(0.000177889 -5.16945e-05 -1.17413e-22)
(0.00468247 -0.0641397 -1.0143e-18)
(0.0012169 0.00271783 -1.1189e-20)
(0.0115144 0.259235 2.48668e-18)
(0.00626217 -5.68468e-05 -2.76685e-21)
(-0.00682118 0.00631786 -4.10089e-20)
(0.00309685 0.000400373 -4.01408e-19)
(0.0101665 -0.00418137 3.2885e-20)
(-0.00182996 -0.0575606 5.63263e-20)
(0.0049279 0.00463248 -2.72537e-19)
(0.102068 0.815316 -6.68606e-17)
(0.00971404 -5.82457e-05 1.87695e-20)
(0.0076242 -0.00114691 -7.43369e-19)
(0.0076624 0.00776555 4.44733e-19)
(0.265218 -0.614491 2.07192e-17)
(0.258945 -0.603664 2.00448e-18)
(0.000393863 -0.000399822 3.93393e-20)
(0.00314649 0.000382343 -2.35111e-19)
(0.000609824 -0.000427705 -7.29862e-20)
(-0.0469281 0.00777548 5.53297e-19)
(0.0687854 0.108107 5.4972e-18)
(0.0100558 -7.48776e-06 -5.23195e-19)
(-0.0160807 0.014404 1.75519e-19)
(0.00251351 -0.00260699 1.04319e-20)
(0.000610636 -0.000437253 7.47523e-20)
(0.00411664 0.000628935 2.55015e-19)
(-0.000965665 -0.00765366 -1.80935e-20)
(0.0422726 -0.0176156 -4.83474e-19)
(0.019589 -2.04819e-05 -1.65837e-18)
(-0.00120314 0.0031591 1.37282e-19)
(0.00169909 -2.87748e-05 1.49368e-19)
(0.0042197 -0.00102838 2.91883e-19)
(-0.0470827 0.120767 -2.30916e-18)
(0.0322685 -0.0840362 2.25554e-18)
(0.000108162 -0.00129626 8.26419e-20)
(0.00170139 0.000995305 6.00497e-20)
(0.00727988 4.57872e-05 1.11356e-19)
(-0.0124065 -0.018158 2.06674e-19)
(0.00809292 0.00011758 4.79393e-20)
(-0.107581 0.0211717 2.31632e-18)
(0.0163579 0.00389909 3.3299e-18)
(-0.00258787 0.0047395 -7.83505e-20)
(0.00393557 -0.0119088 2.09134e-20)
(-0.00550074 0.00303301 -1.4155e-19)
(0.00489874 -0.000995609 -7.56338e-20)
(0.00651894 -0.00125571 -1.14526e-19)
(0.00724997 -0.00115002 4.67067e-19)
(0.00444379 -0.0013572 -4.64585e-19)
(0.00736581 -0.00246296 -4.64244e-19)
(0.0110527 1.47424e-05 -4.72561e-19)
(-0.0150718 0.0251417 -4.31858e-19)
(-0.0113449 -0.00427807 -2.63843e-19)
(0.00250966 0.00030451 7.46252e-19)
(0.043742 -0.126903 4.339e-18)
(0.00436641 -0.000898772 -4.09045e-19)
(0.0338856 -0.153579 -1.69737e-18)
(0.00665474 -0.00111098 9.21992e-20)
(-0.00273467 -0.0133886 -1.29408e-19)
(-0.00507401 -0.0137394 -4.0829e-19)
(0.0124943 0.00814552 -8.93069e-19)
(0.00614482 0.00159437 -7.3108e-19)
(0.000199384 -0.000491147 -3.78418e-21)
(0.000721029 -0.0017189 1.00634e-20)
(-0.0217353 0.0105605 4.72394e-19)
(0.0780979 0.022426 3.20271e-19)
(0.00454225 0.000773498 -5.6563e-20)
(0.0119144 -0.00549763 5.68838e-18)
(0.00405003 -0.000871473 -1.58056e-19)
(0.00734937 -0.00684828 5.62162e-19)
(0.0072291 -0.00558445 1.10479e-19)
(-0.241056 0.302265 -3.25825e-19)
(0.00694644 1.54485e-05 1.17247e-19)
(-0.0198987 0.0407245 1.41378e-19)