/*--------------------------------*- C++ -*----------------------------------*\
| =========                 |                                                 |
| \\      /  F ield         | OpenFOAM: The Open Source CFD Toolbox           |
|  \\    /   O peration     | Version:  v2012                                 |
|   \\  /    A nd           | Website:  www.openfoam.com                      |
|    \\/     M anipulation  |                                                 |
\*---------------------------------------------------------------------------*/
FoamFile
{
    version     2.0;
    format      ascii;
    class       volScalarField;
    location    "50";
    object      ddt0(omega);
}
// * * * * * * * * * * * * * * * * * * * * * * * * * * * * * * * * * * * * * //

dimensions      [0 0 -2 0 0 0 0];


internalField   nonuniform List<scalar> 
9793
(
0.00944657
0.000124736
0.0103225
0.000114177
-0.670852
0.000247293
4.00481e-05
8.32683e-05
0.000138271
-0.834418
-0.00551893
-0.0311594
0.000170049
-0.000125413
-0.000164092
-0.000165828
0.000196283
0.000260326
1.05142
-0.000149134
0.144345
0.000199564
-0.114419
-6.21526e-05
0.000324903
0.000183387
-0.000265442
-6.36884e-06
0.000515435
0.000178375
0.363065
-0.0608906
0.0102695
0.000133852
0.000920714
0.193113
6.78237e-05
0.000202306
2.00393e-05
0.000254537
0.294058
-0.000164523
0.000190542
7.036e-05
0.000203197
0.000177049
0.000492373
0.00965648
0.589772
8.02062e-05
0.0014404
-0.00532039
6.49676e-05
5.59185e-05
0.00715308
0.0423258
4.66111e-05
-0.00907915
-0.0827638
8.50501e-05
8.38679e-05
-5.31558e-06
0.581809
0.000105808
-1.66566
-0.0132365
0.600662
0.580401
-0.046685
-0.00480294
-0.00188556
9.16831e-05
0.000214353
0.000329637
0.00227103
-0.0839657
9.6117e-05
0.000107755
-5.45669e-07
8.98537e-05
-0.0247107
0.000471996
0.000251527
-0.000486263
0.086938
-0.00230462
0.000179207
0.000111568
-2.47152e-05
0.000567854
0.00013839
-0.00409296
5.32488e-05
-0.0374956
1.4921e-05
-0.000735238
0.0666459
0.000201016
3.30549e-05
1.1033e-05
9.08464e-05
6.6125e-05
-9.419e-05
-9.98471e-05
9.69635e-05
0.052889
3.85943e-05
-9.43039e-06
7.29377e-05
0.026727
8.6501e-05
0.067775
-0.000126751
0.287794
-0.00502275
8.74656e-05
0.113798
0.00290156
0.000373716
-0.0177557
0.0347945
-3.28735e-06
6.83831e-06
0.000512413
9.68832e-05
0.116817
-0.0013566
-7.31029e-05
-0.000831442
0.000181678
-4.62362e-05
0.000112103
0.00018229
-0.000134179
0.000116112
8.83497e-05
0.000133959
7.7053e-05
-6.79297e-05
-4.78551e-05
5.30878e-05
0.000294549
9.49751e-05
0.000137615
-6.93103e-05
-0.000187486
0.000118877
0.000118357
9.50308e-05
0.00482274
-0.288247
-5.78144e-05
-0.118908
-0.696047
8.32932e-05
-3.76834e-06
6.75137e-05
0.000258566
0.000152706
9.81887e-05
0.000102705
1.73951e-05
-0.000113168
0.046745
0.0002215
0.0977211
0.0106513
0.000430874
-0.000209473
3.85223e-06
1.96473e-05
-0.0155104
0.000172791
-0.0165562
0.000124876
0.55299
8.80819e-05
2.48942e-05
0.000131433
8.69471e-05
-0.342276
0.000126174
0.000107026
0.000299751
-0.011905
0.000170812
-0.00553296
0.000130996
5.41781e-06
-0.000119442
0.000118992
0.000149452
0.48955
0.0769432
0.589886
2.03756e-05
0.0281935
3.65435e-05
-0.394968
-5.82733e-05
0.000106165
-1.31151
0.0474082
0.000151022
5.93603e-05
0.00013
0.196251
1.13044e-05
0.00418534
0.000276151
0.00037087
0.342564
0.639431
0.000124709
0.0205084
9.28466e-05
4.75128e-05
-0.0116289
0.00011682
-0.0880654
0.00633332
0.000119435
9.50795e-05
0.000153528
-0.00123683
-0.121998
0.000243599
0.00010745
0.00515037
-0.00258161
-3.12062e-05
-7.61169e-05
0.00018535
-7.19149e-05
-0.00264216
-0.072827
1.62046e-05
2.63128e-05
0.0829538
3.57264e-05
0.00181425
-3.87687e-05
3.74561e-05
-0.00163785
8.24723e-05
5.35193e-05
8.3148e-05
0.00023062
6.88045e-05
0.000119111
7.16118e-05
0.000206038
-0.0033797
-0.00162402
1.10606e-05
9.37359e-05
4.43145e-05
0.00019825
0.000768243
3.86152e-05
0.0776767
9.24169e-05
-0.00292194
4.0743e-05
0.00044455
0.000143127
7.31559e-05
0.000423225
-1.43765
-5.68361e-05
4.67066e-05
-9.44348e-05
2.04673e-05
0.000133195
0.000143958
0.000146185
0.000227996
0.0971543
0.000232826
-0.00185776
0.000185796
1.70076e-05
-9.8454e-05
0.000185277
-0.00139543
0.000130164
6.8721e-05
0.000425271
4.90903e-05
6.24497e-05
-6.05913e-05
0.0703468
-4.42823e-05
8.93243e-05
-6.57569e-05
-0.000311443
0.000145643
0.000502165
0.00022497
0.120573
0.000121729
0.0428552
0.0575763
3.59421e-05
-0.000230341
0.00014973
0.000369689
0.000242282
0.000145534
0.0309212
0.000255486
0.000119217
0.000213024
9.94824e-05
7.79482e-05
-0.000412866
-0.00109083
0.000111291
0.000272013
0.000251644
0.000105686
0.000277941
0.0444218
0.000307104
0.000100993
-0.32724
0.000157266
-0.114236
0.00349121
-3.98731e-05
0.00015261
0.00398421
7.79437e-05
0.00274826
-0.00707467
9.44705e-05
0.00020635
-2.33605e-05
8.72509e-05
3.89863e-05
0.0156653
0.000172856
8.32139e-05
-0.117364
2.39214e-05
-0.000161286
0.000149887
0.000180445
8.33713e-05
0.0336311
9.68919e-05
6.71926e-05
7.44931e-05
0.000110353
-0.0265331
7.3101e-05
-0.0214498
-2.36897e-05
-0.000504473
0.0103566
-0.00996631
-0.00107616
0.000139039
-0.000465602
0.0156757
0.000117426
0.115612
-4.23051e-05
-7.22987e-05
0.0923843
0.00284882
0.118619
8.43187e-05
-0.00315889
0.0696752
0.00127684
0.000178929
0.0550532
2.81997e-05
0.000179829
8.5827e-05
0.000151818
-0.00499915
0.000295073
0.000185589
4.55694e-05
0.00029902
-0.000263346
9.48164e-05
0.000195915
-0.0342789
0.00017708
1.67262
0.0425516
0.00793827
-0.00276856
0.000207313
-3.15727e-05
-1.28291e-05
-0.0047847
0.051964
-6.42689e-07
4.96372e-05
-0.485015
-6.8834e-05
0.295966
7.7117e-06
0.000167275
-6.18175e-05
0.000522317
0.000189459
6.39993e-05
0.129434
1.6259e-05
-0.146194
-0.000127416
0.000142456
0.000410585
2.30046e-05
-8.31647e-06
6.80705e-06
-0.0256572
0.00024165
9.39428e-05
-0.00666296
0.000183366
0.000782429
0.00016094
-6.3405e-05
6.04989e-05
8.18264e-05
9.33598e-05
-3.5764e-05
-0.116263
-0.000244681
-0.0678617
2.24982e-05
0.153603
0.00015244
5.56306e-05
4.58995e-05
0.000192088
-0.0526778
4.21204e-05
0.0198141
-0.000143263
0.000124049
0.000194491
-0.416795
0.439312
0.00631624
0.242021
0.000204221
2.22915e-05
-0.00255124
6.96545e-05
0.000563915
0.000142181
0.0402722
0.000258748
0.000327513
-0.00321571
2.09336e-05
0.000535922
3.60534e-06
-5.11349e-05
0.000114475
0.106821
9.76782e-05
0.0086934
-4.08927e-05
-0.000274258
1.44784e-05
0.00012213
1.30793e-05
0.000511325
0.0134611
4.55233e-05
8.8107e-05
-2.42873e-05
0.000136607
0.00110772
0.0321258
4.64621e-05
-9.0253e-06
0.053394
0.0017995
9.81719e-05
0.446245
0.239419
2.9189e-05
5.16923e-05
0.00023195
0.00114845
6.35079e-05
9.37876e-05
0.00025761
5.04881e-05
4.66913e-06
3.68862e-05
2.72169e-05
-0.00330194
-3.7595e-05
-0.0213501
-0.000727791
-8.49301e-05
-5.78983e-05
0.000182209
0.0421732
0.000176388
0.14703
-6.84044e-05
3.83678e-05
-0.00327039
4.23982e-05
-0.00074881
0.0868175
-0.000152656
-7.77414e-05
-0.718558
0.00155044
-0.000125645
0.000152368
-0.00235326
7.48443e-05
-0.000110117
0.000163614
4.14382e-05
-0.00981772
-0.00272817
0.00078895
2.83902e-05
0.000154468
0.000101404
0.000149651
-6.19251e-05
0.000219837
0.0333634
-0.00623327
-0.000122106
0.000283042
0.0116609
0.00015677
-8.09751e-05
-0.0175732
-5.7699e-05
-0.00622513
-0.00545616
0.000139038
0.0702054
2.67455e-05
0.154953
0.000262747
0.0529654
0.000202721
1.82709e-05
0.00016
0.000197649
-0.000518559
0.17756
-0.0197503
-0.352688
-0.000933487
0.101471
0.000585919
-0.000150809
-0.000372259
-1.50049e-05
0.033093
4.43136e-05
0.0891313
-4.32601e-05
0.00269224
-0.00014855
0.000112843
5.88116e-05
0.0725017
-2.31492e-05
2.54053e-05
0.000140947
0.000292474
9.90589e-05
0.00021214
0.0001558
0.000191383
0.000206433
0.727014
0.000119924
0.0527911
-0.0901965
8.13084e-05
-7.95963e-05
-0.0010453
4.54014e-05
5.26942e-05
7.87424e-05
0.00137156
0.00028931
0.000176876
0.0002783
-3.92707e-05
0.000323609
0.000108257
0.000201662
9.35866e-05
0.00020484
0.327414
9.22969e-05
-0.0361098
3.83523e-05
4.09455e-05
0.00014287
8.35319e-05
-0.00143981
-0.0016421
8.44537e-05
5.68961e-05
-3.56847e-05
0.000105985
0.000100672
8.92289e-05
0.000107402
-3.45971e-05
0.000118314
0.000113587
0.000139464
7.01676e-05
0.000214819
-0.000631874
-0.000177147
0.000114797
0.000143393
-0.000185763
-0.000256089
-2.87636e-05
-0.000254268
0.00012136
0.000100689
-3.18545e-05
0.000207918
-4.11752e-05
-0.000206069
4.33466e-05
0.0495745
0.000167599
-5.0159e-05
-0.00565827
2.35685e-05
0.000171257
0.0998512
0.000356144
0.000112753
-2.16042e-06
-0.00637353
8.28094e-05
-0.00448466
-1.75384
0.0645053
-0.0344929
0.000146108
7.99869e-05
0.0298445
0.000258904
-4.03318e-05
0.000170686
0.133372
0.072291
0.000110508
-0.00310347
8.30056e-05
8.84972e-06
0.242395
9.23549e-05
-0.596197
0.000170205
-0.00293408
0.000104882
0.000271883
7.17437e-05
0.0841382
0.1034
-8.50399e-06
0.000184435
-0.000155508
0.000109363
0.000754379
-0.00448735
0.64044
0.000180619
-0.000110466
0.00032253
0.106593
-0.000114501
0.0947981
0.00289711
0.000286738
0.0044881
0.0471724
4.10257e-05
0.000153472
0.000348696
0.000515699
-1.97921e-05
0.0315711
-2.90546e-05
0.0202887
0.000192805
0.00326499
-0.00446435
0.000139578
-0.000945961
-0.169305
0.000105959
0.0132605
0.00303672
-0.00514803
-1.45433e-05
3.48253e-05
0.0223534
7.57028e-05
0.0957976
0.000120884
0.0125482
-0.000102166
0.0262937
0.028997
0.000237081
-0.297674
0.000197964
0.000178637
-0.00109552
-0.0535623
-0.104866
-0.000231933
-8.5921e-05
-3.19827e-05
0.0728402
-0.566521
0.000182264
0.000465863
-0.0001291
-1.64569e-05
8.15815e-05
-0.000220994
-0.401773
0.00193687
3.94099e-05
7.61406e-05
9.42203e-05
-0.0346789
0.0204189
-2.86568e-06
-0.000139387
0.000142942
0.0360394
0.000178246
0.0255511
-0.0002124
0.0278682
0.0239095
0.00426741
9.02337e-05
0.000139536
0.000170367
0.000101583
0.000239471
0.00023745
-0.00352838
0.0424228
-0.000128514
-0.132875
9.69825e-05
-0.100432
0.000137053
0.0245286
-9.44841e-05
0.00788862
0.000128006
-0.000109313
-0.000195473
0.0814359
0.005933
0.000143283
0.000908368
0.000117767
0.000201043
0.000204942
-0.174026
9.94658e-05
-0.0058018
0.00011082
-0.000219201
-5.77145e-06
-3.72373e-05
8.7639e-05
0.000145028
0.0992174
0.000111315
0.000213815
0.000116098
-5.35549e-05
-3.41887e-05
0.00390617
9.62184e-05
0.000101969
4.5856e-05
0.000145283
0.0547289
0.000115256
0.0878006
-0.000138314
-0.000117272
4.93361e-05
0.0836113
4.98372e-05
-0.0250179
4.60825e-05
4.17653e-05
0.000127442
0.0281479
0.0321679
-0.13387
0.0563115
0.0152615
7.78598e-05
0.000203796
0.000222553
-9.38489e-05
0.016411
0.0580318
0.00438088
0.00309174
0.000199604
0.0569267
0.00237816
-0.27222
0.000198753
0.00024614
7.57323e-05
0.0478358
0.90197
9.8794e-05
0.000103341
0.000143588
0.000179879
-0.00113765
2.5003e-05
-0.000253624
8.69833e-05
3.73576e-06
-0.000950122
5.1907e-05
0.0914151
0.000128234
-0.000251227
0.00415682
-0.560806
-0.00121604
0.000288036
-0.000137027
-7.68369e-05
-0.000160763
0.122931
-8.22652e-05
0.000208313
0.039545
0.041816
0.000579585
-0.130487
0.00606724
0.0393071
0.033883
-0.333552
0.000144674
0.570287
6.54258e-05
0.000123771
0.000162352
0.000101527
0.00014035
-0.355411
0.000271063
0.0998557
-0.000198938
-0.00361824
9.57585e-05
-0.00119585
0.00127215
7.40033e-05
-0.000233698
-0.000221971
-0.000214081
0.000805483
-6.19518e-05
0.000285169
0.000316954
-0.000156888
0.0438129
0.0634373
0.00020486
-2.43781e-05
2.55466e-05
-5.95424e-05
-0.000453643
0.503667
3.69201e-05
0.0504211
0.000474981
0.0483611
0.000270189
-0.00636888
-0.00090464
0.000195448
0.00428198
0.000124828
4.20731e-05
-0.0316039
8.9162e-05
-0.338052
0.000182709
0.0819603
0.0153708
3.80477e-05
-0.00181054
0.000209627
0.316994
1.6561e-05
8.44385e-05
0.00750056
0.000926901
0.000162154
-0.000127779
7.57467e-05
-0.000110907
0.000118733
0.164498
9.58247e-05
-6.0857e-05
-0.0519401
-0.00160152
9.13592e-05
0.000928881
-0.00177523
-0.0250079
-0.00153148
-0.000199529
7.11992e-05
0.000109549
0.00216509
-3.06984e-05
0.0301543
0.00370202
0.000206785
-0.0523969
6.6015e-05
0.00350129
5.84357e-05
0.0035264
0.000154244
0.0295354
-0.00734304
1.16211e-05
-0.058038
0.0318486
0.000128523
0.00012465
5.97394e-05
1.66142
-0.0912742
0.000308945
0.00179138
-0.000172358
3.20005e-05
-0.359009
0.00693631
9.36688e-06
-2.6081e-05
-0.477931
0.0074435
0.000176206
0.000120511
-0.000254138
6.9852e-05
8.25727e-05
4.02444e-05
-0.478783
0.000172536
0.00229767
0.0199552
4.20476e-05
-8.79975e-05
3.61042e-06
0.0134981
0.000112742
0.000548606
-0.00211705
0.000105293
-5.86399e-05
0.000106253
0.000112285
0.000148352
0.0378158
-0.0331646
0.000320265
0.00084148
0.00249169
-3.82762e-06
4.70905e-05
-0.00215238
0.0001386
9.44382e-05
0.0166336
-0.00020784
1.24957e-06
0.000155483
0.000678134
-0.000152136
-5.90117e-05
0.00014326
-0.0134955
8.01554e-05
0.000141602
0.0444769
0.000159018
0.222725
0.00301783
0.000112395
-0.686427
0.000363089
-0.000588186
0.117976
-6.72292e-05
-0.0714259
0.000100998
1.62328e-05
-0.644995
-0.126838
-7.84007e-05
0.000143782
4.97701e-05
0.000117374
-0.00332937
7.18493e-05
0.000291563
-0.000167063
0.000173054
0.000118047
0.000206508
-6.14521e-05
0.000108196
0.00014814
-0.0292518
-1.90053e-05
-6.27943e-05
-0.00175896
0.000131696
-0.00235332
-8.6444e-05
-0.000817641
0.000122735
0.00011228
-0.00809345
7.5386e-05
7.33283e-05
9.4613e-05
0.0223804
-0.013897
8.51958e-05
-3.1895e-05
-0.00558262
0.00372875
-1.5174e-05
-0.00702778
0.000196042
0.000108007
0.000161042
2.35522e-05
0.000138945
-0.00617378
-0.0239085
-6.30836e-05
0.00720298
0.000394634
-0.000186559
-3.59635e-05
9.55508e-05
2.63864e-05
-4.98803e-06
-0.013804
0.000103287
0.0380863
-5.69016e-05
2.3362e-05
0.000104275
0.00508189
7.18399e-05
8.24938e-05
0.000400494
-3.42462e-06
-0.0205404
3.72421e-06
9.49868e-05
0.0203382
0.000744662
0.000189228
0.0126198
0.000170796
0.000184889
0.000158281
-5.43584e-05
0.000192883
-5.86834e-05
0.00496592
0.598748
-4.4858e-05
8.41903e-05
-2.51692e-05
0.0012897
9.05907e-05
-9.08017e-08
0.000213396
0.000248727
0.000239063
-0.000135976
-0.000225733
0.000113837
-0.000128532
0.000577238
0.0677551
9.95967e-05
0.000111709
8.68728e-05
0.0357153
0.00878913
0.000260957
-0.108533
0.202544
5.85748e-05
-0.00019142
0.0388541
0.000226576
0.0157611
-0.0582156
0.0355271
0.00013242
-0.0119601
-0.0139321
-7.05393e-05
0.00079903
-0.336247
-4.57983e-05
-0.371833
-0.330127
6.43418e-05
0.0158324
-8.68928e-05
8.75904e-05
0.002045
8.04422e-05
0.0576263
-8.35569e-05
-0.00184443
0.00552204
-4.97523e-05
0.439545
7.67503e-05
9.19659e-05
-0.00052124
0.000215321
1.16343
-0.56335
-0.000138348
0.000175311
-0.218107
9.19592e-05
0.000113756
0.000114245
0.0365627
0.0746505
0.000185954
7.95977e-05
4.21971e-05
0.246715
-0.0144073
-0.000121491
-5.21397e-05
8.89699e-05
3.00376
-0.0309057
0.0220211
0.000200317
0.00017564
-2.356e-06
-0.000156897
8.00829e-05
8.21034e-05
4.4597e-05
2.06686e-05
0.000139799
-0.0394869
-0.275476
8.64493e-05
0.820406
-1.75833e-05
-0.139635
-0.394908
0.00147478
0.32303
0.11553
-9.04365e-05
0.0268986
0.0371556
0.0138203
0.000904141
0.000210418
0.0233584
0.013675
0.00222025
5.4849e-06
0.00117425
0.0051384
0.000140975
2.29475e-05
0.000121695
0.000191932
-0.00359943
1.09339e-05
3.56941e-05
6.31708e-05
-3.68975e-05
3.53067e-05
7.32751e-05
0.000187575
-4.97304e-05
0.0334621
3.61249e-05
0.0175423
0.000123516
-0.000136427
0.000199879
0.0435226
0.0689648
0.000132248
0.00208185
-0.000103227
-8.49672e-05
0.000258844
0.000224716
0.00010761
-8.16982e-05
0.000187803
0.00015975
0.000160087
9.4452e-05
-0.0246369
6.7881e-05
9.60706e-05
9.85709e-05
0.000219855
-0.0221446
-0.00315058
0.100727
1.40833
0.00824791
0.000188925
6.28614e-05
0.00011775
0.000154025
-0.0210137
0.000257434
5.42886
0.000135127
0.00224785
0.000104623
0.000227807
-0.355959
0.000102977
-0.401224
-0.047841
7.80696e-05
0.00218892
6.24964e-05
-0.00312328
0.000975404
-0.0116732
-0.00244603
-9.39945e-05
-0.305176
-0.018279
0.000117596
0.000161359
0.000132088
1.73932
-7.05929e-05
4.32684e-05
0.0331401
8.43943e-05
0.00460806
0.00332676
0.000297059
8.81265e-05
5.64596e-05
0.0378818
7.32345e-05
-0.00252484
0.000110318
0.000101144
9.15535e-05
0.118111
0.00012579
-0.462279
0.000853868
7.08402e-07
0.000150255
-0.00199858
0.000196878
0.000150017
0.00104552
7.50722e-05
-4.61523e-05
-7.66244e-05
0.0008467
0.000140269
-0.000108913
0.000752872
0.0243547
0.00530531
0.000112058
-0.00021135
-0.00010691
0.00492891
0.000323227
0.000161071
0.00012755
-0.0144513
8.1584e-05
9.18798e-05
7.93258e-05
-0.00817895
-0.354585
9.43404e-06
5.49437e-05
5.01311e-05
0.000125163
0.0260757
0.00672832
6.14079e-05
5.36118e-05
0.000197334
0.0784556
-0.23227
-0.214773
0.000112403
0.0284298
-7.66813e-05
0.000193194
0.000219221
0.000145399
0.000846831
2.15327e-05
0.000382296
0.000522864
-0.349821
0.00014796
0.000151146
0.000178357
0.00113929
3.72855e-05
7.88555e-05
0.00128985
0.000116779
5.81328e-05
8.16747e-05
0.00015445
-0.000131845
-0.379243
-0.00233273
0.000105158
0.000246612
0.000361357
0.000257822
-0.436828
0.000167483
0.000260399
9.55701e-05
0.000185173
4.91244e-05
1.5929e-05
0.00376743
0.000387125
0.000166803
-6.09615e-07
0.000139781
4.09334e-05
0.000165735
0.00252009
0.000120411
0.203208
0.000268788
0.00015369
8.37642e-06
-0.011693
5.55126e-06
0.502853
3.19145e-06
0.000104747
3.5456e-05
2.25288
0.000215954
0.00018977
4.71205
8.74628e-05
6.21817e-06
0.00014222
0.000110232
0.000254621
0.00020469
0.000114881
0.0153934
0.00023545
-0.0064114
0.00201365
0.000209151
-0.0135982
6.91135e-05
0.000239293
9.57521e-05
-4.68636e-05
-0.000112429
0.00012938
0.000235803
-0.0119111
7.82265e-05
0.1746
0.0218767
0.00010476
-0.00650596
-2.32181e-05
-0.000764387
9.96962e-05
9.00918e-05
0.0150151
7.90158e-05
0.000107237
0.000259003
0.00259394
-0.00894384
0.000126376
6.74141e-05
0.000157135
-0.372421
-0.151937
-0.00145
-0.000160873
0.000118147
0.000110951
0.00539091
3.54798e-05
0.000234058
0.000356268
0.0553867
0.000104369
-0.0012188
6.31858e-05
0.000143065
-0.000896383
-0.000319226
-0.000361704
8.7465e-05
0.000130141
0.000126698
0.198826
0.0227155
-0.000129537
-2.16801e-05
4.75719e-05
0.000216375
0.00103133
0.000161195
0.000151536
5.06635e-05
-2.76325e-05
0.017182
-0.00615246
2.6281e-05
0.0184003
0.000116886
0.000101815
0.000101909
0.000143163
5.70755e-06
0.000147297
-0.00240607
0.00026401
0.0002794
0.000114565
6.77769e-05
0.000115768
0.436038
-8.09461e-05
0.000142594
0.000161194
0.0069401
0.00691644
4.75558e-05
7.15796e-05
-2.05078e-06
3.4553e-05
7.62569e-05
0.011664
0.000108171
-0.00924423
0.000111602
9.71373e-05
0.0576981
0.000165897
-0.000494583
4.03695e-05
0.000278412
-3.58553e-05
0.000190252
0.0125362
7.91005e-05
0.000121341
0.0125997
8.61403e-05
9.92339e-05
0.000107002
5.01892e-05
0.000154201
0.000134299
0.0198502
9.10559e-05
8.28848e-05
6.42128e-05
0.000614254
0.000249431
-0.00226661
7.41132e-05
6.28653e-05
0.0793088
0.0172857
0.000628382
-0.00012019
0.00310305
0.0022231
7.45836e-05
0.0113753
-4.59326e-05
0.00487599
0.00010562
5.61833e-05
-0.0179188
4.45583e-05
0.000220469
0.000207731
9.03036e-05
3.87827e-05
-0.0391671
8.66156e-05
0.00152907
0.000148749
7.62085e-05
0.000149055
-1.44112e-05
0.000144333
-0.010673
7.98801e-05
8.36699e-05
5.61438e-05
0.000110311
0.000113207
-0.101399
0.173362
-0.0186955
7.54457e-05
-0.000180757
0.000164568
-5.91636e-05
1.96023e-05
0.0193459
-0.00178791
7.30092e-05
7.45889e-05
-0.122565
0.00028991
-0.465538
0.133493
0.000194386
4.43471e-05
6.04695e-05
0.0011467
0.0735719
5.77967e-05
0.000104602
0.0793901
0.017333
-0.00296434
0.137895
-1.69093e-05
0.000209578
-1.99287e-05
-0.00015613
9.07973e-05
0.000602647
0.105672
-0.0266175
0.000259937
0.0111931
0.000154268
6.73797e-05
0.000126287
0.000158302
8.80258e-05
0.0808055
0.000111385
0.000128257
0.000161599
8.69628e-05
-5.43825e-05
5.60461e-05
0.000389366
0.000707038
0.00039718
6.26104e-05
-0.0001256
6.04814e-05
8.78399e-05
3.00342e-05
0.000288601
0.000142679
0.000123083
0.000106193
0.000974833
0.000182247
0.000245784
-0.0813415
0.000129834
2.00366e-05
-0.360327
0.000123594
2.00352e-05
0.000262405
0.0753225
0.000308421
0.00220481
0.00014972
-0.0774096
-9.75864e-05
0.000184224
-0.00010774
5.52151e-05
-0.042252
0.000258358
9.0601e-05
-0.00233138
0.000148627
0.0436592
0.000668379
0.000449554
-2.02119e-05
-0.0898073
-0.000576729
2.82397e-05
0.000100692
9.23257e-05
0.000203134
2.87809e-05
-0.00288661
0.000107854
0.0128769
0.000122197
5.00574e-06
0.0459303
0.000170907
-0.0443047
-0.00869066
1.32649e-06
-0.0334156
0.000109748
0.000254711
0.000172498
0.000162647
9.08632e-05
0.000135654
0.000133996
0.000160567
0.00669945
0.000123311
9.4192e-05
8.53047e-05
8.74041e-05
0.000141286
0.000131674
4.90154e-05
-0.000153352
0.000183233
0.00011215
-4.63468e-05
6.28735e-05
0.000130167
-0.40829
0.000156921
0.000166538
0.0128091
0.00302735
0.000211946
-0.000191361
8.14605e-05
0.000703807
3.6485e-06
3.89135e-05
-0.00707482
0.00279363
0.000175845
0.000124453
0.0284799
7.11364e-05
5.80434e-05
0.112787
-7.99167e-05
0.232958
0.000124432
-0.0195317
0.000259635
0.000224023
-1.09395
-0.0389701
4.47298e-05
0.000127372
-0.000229593
0.000207745
0.00531988
0.000132911
-0.00265672
0.0625413
0.000276069
4.96507
0.276228
-4.24987e-05
-8.4729e-05
-0.00480929
-0.00162867
0.000166226
0.000196161
-0.000257282
4.17397e-05
0.000240039
4.42502e-06
6.50871e-05
4.20873e-05
0.00514947
7.94234e-05
0.000136215
0.000118242
2.13156
0.000157064
6.29005e-05
0.00892268
0.0107137
-0.000173405
0.000136305
0.000174468
0.000148254
-0.0010359
-3.97616e-05
0.000127729
0.124464
-0.000135502
0.00410598
-5.09257e-05
0.000471769
-0.0284602
-0.012021
0.00937975
0.0228772
0.000199779
-2.03254e-05
7.08986e-05
-0.0181444
8.49501e-05
0.00011425
0.000195992
0.000160084
0.119832
0.000122926
4.29409e-05
-4.17858e-05
0.0137122
0.00125942
0.00028441
0.125538
0.605734
-0.00147831
0.0226287
5.25123e-05
0.000136984
0.000143069
0.000173983
0.0513574
-2.83646e-05
0.647953
-2.66918e-05
0.000103213
0.000169669
2.62907
0.000139369
0.000166304
0.00017346
0.00136394
7.3924e-05
7.32173e-05
4.92755e-06
-0.00107133
-0.0179857
-0.00336476
0.000364235
-3.60197e-06
-0.0140231
0.00264246
8.31663e-05
0.000191312
0.0001339
0.00199434
6.81913e-05
0.000106209
0.0195722
0.000117383
0.000170256
9.10819e-05
4.93497e-05
0.0610064
1.3298e-05
5.52504e-05
7.29363e-05
4.82948e-05
0.000211558
0.000147223
0.00012493
0.000103968
7.15297e-05
0.00219147
3.64051e-05
4.13264e-05
0.0375759
-0.00841847
0.00556138
-0.0017492
0.000105158
-0.0520385
0.000199148
0.00159077
0.000109923
0.323828
9.32823e-05
0.000161548
0.000129359
0.175163
-6.63995e-06
0.000154799
-0.0169022
0.000176973
0.000115137
0.000134836
0.000284706
0.000112525
9.99511e-05
0.0174501
4.70192e-05
-4.57928e-05
0.0425468
9.99959e-05
-0.000848689
4.93312e-05
-5.43346e-05
0.000177025
0.204691
-0.000506488
0.000192365
0.190378
0.00954161
-0.000148053
0.368719
0.000134084
0.00016851
-6.26844e-05
0.115224
0.111412
4.519e-05
0.0610599
6.8217e-05
0.000146401
0.136843
-7.43632e-05
0.000134184
-0.0458355
0.49649
-0.136887
7.1906e-05
0.000189427
0.000397277
8.95226e-05
-0.000253392
0.0165181
0.000161796
0.000161316
0.0833404
-0.509287
0.000123601
9.04522e-05
4.7842e-05
9.66931e-05
-2.01448e-05
0.000235835
-2.69047e-05
-0.0129112
5.40821e-05
-0.000303347
7.07647e-05
0.000118831
0.00015335
0.0828258
7.70843e-05
-5.38773e-05
0.11078
0.0518996
0.000169967
0.0521249
-3.34624e-05
0.00013909
9.6971e-05
5.00362e-05
0.000151282
-0.000155907
0.0331595
0.000107401
1.74314e-05
-1.68496e-05
-2.66366e-05
0.00010978
0.000145596
0.00161945
0.00014565
-7.11074e-06
-1.86044e-05
5.22253e-05
-0.105995
-4.67928e-05
-1.3658e-05
0.00380531
8.25438e-05
4.41398e-05
-0.00021657
-0.0612945
-0.11977
0.0201239
-0.00535803
-9.89323e-05
5.53312e-05
0.0107403
0.267472
0.00103861
0.107519
0.00658381
4.69371e-05
0.0178426
-0.269061
7.6321e-05
0.0173137
0.000130478
-0.0138969
0.00824047
0.281454
4.81925e-05
9.56833e-06
-0.00170039
0.00011649
0.000110797
2.28381e-05
0.113062
2.32229e-05
0.000111161
2.48327e-05
0.0823048
9.87205e-05
8.66128e-05
0.000192511
4.33687e-05
0.000171181
0.0120422
8.47752e-05
8.13312e-05
0.000117098
-0.00368775
0.003272
0.00354485
0.000170948
8.59583e-05
0.000173651
0.00010768
0.00010594
0.000101673
-0.120434
0.000180039
0.000572738
8.02574e-05
4.55706e-05
-2.04897e-05
0.000156602
0.462461
0.00661908
-0.00025726
6.16399e-05
3.91017e-05
-0.116798
0.00087021
-0.0733705
7.03267e-05
0.00226937
0.000183127
-4.06597e-05
8.50975e-05
0.000167854
0.000141148
9.82266e-05
4.66346e-05
0.0076941
-0.00012984
0.1939
-0.00754589
9.0827e-05
-0.00142336
-0.00801105
8.54111e-05
7.93509e-05
0.000247322
0.000126644
1.68386e-05
0.056065
-6.77534e-05
5.33466e-05
0.00286857
0.0001749
1.46403e-05
6.71872e-05
-0.00826926
0.000159239
0.00012228
0.00815126
9.10152e-05
3.00426e-05
8.84152e-05
0.000728535
0.000112275
0.000161745
0.000185169
-0.000207829
0.0052108
0.00112407
0.000147927
-0.000148389
-5.28118e-05
0.000101311
0.000289911
0.0945519
-0.00469049
-7.45898e-05
0.00154951
-1.62175e-05
0.000175441
9.1781e-05
0.000106252
-0.000148749
0.0331635
0.000143832
0.000123173
1.12022e-05
6.3837e-05
8.12004e-05
1.56273e-05
-8.85054e-05
0.00951243
0.000144188
-4.88271e-05
0.0609432
0.000216456
6.07011e-05
-0.0353429
-0.845937
-4.13721e-05
0.000109968
9.40399e-05
6.69497e-05
8.63121e-05
0.000203585
0.00010696
0.0473277
0.215572
8.1437e-05
0.000149614
0.000122683
0.000254939
0.00211726
-0.00537894
-0.000119173
-0.00210859
0.000109744
0.000107164
0.000165219
0.000106455
0.000204774
9.56116e-05
-0.000135673
-6.00447e-05
0.000118678
0.000200311
0.150681
4.09138e-05
0.122758
0.0486851
-0.0114378
0.376077
-2.93319e-05
5.21501e-06
0.000206021
0.14005
0.000112355
-0.0891631
-0.000101557
-8.84012e-05
0.000120558
0.000168874
9.90761e-05
-0.0420796
0.00781016
0.000186894
0.00343377
0.000127869
0.240512
-0.0135974
0.000109384
5.22421e-06
0.324567
0.00713371
0.000130936
0.0003058
9.97116e-05
9.72328e-05
8.82656e-05
0.00920989
5.37932e-05
0.000177296
0.0184071
3.27569e-05
0.00258543
7.96699e-05
0.0001534
2.50439e-05
0.0137823
9.76875e-05
8.87253e-05
0.257389
-0.0321796
-0.0123427
0.000202643
8.56772e-05
0.13359
-0.081907
0.0704551
0.167985
-0.000118157
0.00019422
9.7116e-05
5.94211e-05
0.000108118
0.000148339
5.37157e-05
-0.000144624
0.000635288
0.000121339
9.99112e-05
0.000156019
0.000114209
1.26149e-05
0.000164865
0.0148305
0.00133187
-0.0697227
0.00153301
-0.000191827
0.00898406
4.58164e-07
0.000122803
9.73968e-05
0.00132226
-6.23197e-05
0.000234515
0.000113197
4.9998e-05
0.000160019
-0.00331335
8.00284e-05
-0.00052767
0.000173589
1.38184e-05
0.0142887
-0.00114351
0.000214494
3.85305e-05
8.02174e-05
0.00685331
0.000244676
0.000104952
-0.000106912
8.66412e-06
9.54214e-05
0.000106623
0.000108547
-0.0154232
4.08324e-05
7.63444e-05
0.206229
5.61787e-05
-0.00194353
7.80753e-05
0.00013512
9.97313e-05
0.000215162
0.00119278
0.0240869
0.0320735
0.000140124
0.00010518
5.21746e-05
0.000308314
-0.162567
6.8e-05
0.486878
-0.0221144
0.000103215
0.206956
-0.000112081
5.44299e-05
0.183721
-0.00048798
4.41554
2.50501e-05
9.93183e-05
8.9364e-05
0.000153219
0.000139344
-0.00126977
0.0777353
-0.00228535
6.15884e-05
4.20677e-05
8.87414e-05
0.000776718
-0.000274117
0.023312
8.63914e-05
0.000147451
-0.000948033
2.53218e-05
0.00325496
7.34065e-05
9.13784e-05
3.69221e-05
-4.74304e-05
9.2738e-05
0.00478247
0.000912384
7.91298e-05
0.000111144
1.2673e-05
0.000191238
8.16878e-05
0.000208871
-0.00776721
0.00789156
-0.101539
0.00469667
0.00368964
0.00016018
0.000158281
0.000171741
9.33872e-05
0.000233762
-5.33649e-06
9.15389e-05
8.54234e-05
0.00101904
0.000151021
-1.65967e-05
0.0537553
0.000131806
4.77979e-05
-0.00270029
0.0105489
-0.00015948
-3.84883e-05
0.00296349
-0.00483089
0.0264058
-0.0914362
-1.54545e-06
0.00353607
6.17899e-05
-0.000275062
0.000843446
-0.565054
0.0517845
-6.76307e-05
0.00913988
-8.81139e-05
4.13119
8.30379e-06
0.000145914
0.000242039
0.000222514
0.000709661
0.000126452
0.0029568
0.000196099
2.90203e-05
0.000140857
0.0203024
0.000186073
0.000132005
0.0015188
-0.0246871
-0.000134611
-0.00030683
-0.000675272
-2.9118e-05
-0.00419337
0.000156005
-0.00069096
0.000110867
0.00831295
-0.0200374
0.019485
0.0402021
9.06506e-05
0.140823
0.000122265
0.010021
1.96213e-05
0.0209629
7.54638e-05
7.78165e-05
0.000174406
-9.55017e-06
9.30564e-05
-0.0582517
-0.448169
0.00216972
-0.0196137
0.0001544
-0.000147788
-0.0288428
0.0932785
0.0470041
-0.0481153
1.55358e-05
0.000343495
0.0399582
0.00307355
6.58967e-05
0.0222342
0.00593546
9.28511e-05
8.94256e-05
3.02215e-06
0.0927787
0.0672136
0.0117568
-0.0056472
9.33802e-05
8.95999e-05
0.000137062
3.29318e-06
-6.54809e-05
5.9403e-05
0.000128964
-6.45075e-05
0.00665859
0.00021501
0.00013684
2.76826e-05
0.016537
-0.000136679
0.000203273
0.0505991
-0.000142445
0.0132561
8.75774e-05
0.060618
0.000202511
-0.00043718
-0.306651
0.000151855
0.0843582
-2.02064e-05
5.45007e-05
8.86777e-05
8.19344e-05
2.82683e-06
5.30378e-05
1.69374e-05
-0.00147548
8.67413e-05
0.000110111
0.0405514
8.07936e-05
0.000129074
6.90048e-05
0.0550358
6.24531e-05
0.000121014
-0.413248
-0.34165
0.000162235
3.3015e-08
0.11487
0.000158189
0.164192
-0.514981
0.000117378
0.000124183
0.036717
-0.00693311
-0.308361
0.000212859
8.86363e-05
2.8041e-05
0.00425832
0.000243284
-0.401339
-0.445092
4.97938e-06
5.31822e-05
0.000620593
9.57612e-05
-0.111765
-0.0268087
-0.000282046
0.132001
0.0195824
-6.62734e-05
0.000108416
4.08565e-05
5.38583e-05
0.000107419
0.000120046
0.000129857
0.000398046
-0.0914563
0.00113599
0.000100113
0.000253797
2.27905e-05
2.38514e-06
7.34458e-05
0.0112238
0.000270604
0.00600749
-6.81117e-05
6.82386e-05
-0.000297373
-0.000139045
0.0621276
0.000146823
7.20936e-06
-0.00243208
-0.0898631
0.0326476
9.24164e-05
0.234665
6.43487e-05
0.102659
0.0252447
0.000526594
-0.0485639
0.00010656
-2.97102e-06
0.256909
0.000152257
0.00298556
-0.319124
0.0534651
0.00015623
0.236476
6.88924e-05
7.05573e-05
0.00023675
8.99599e-05
0.0542699
0.000916859
9.07792e-05
0.0618203
-0.00233814
-2.05215e-05
8.46884e-05
-0.138854
-0.00125198
0.635203
-0.000406009
-6.06674e-05
0.135153
0.0002491
0.095804
0.0564704
-0.0185275
-0.0626851
0.00012928
0.0537727
3.82241e-05
0.0383765
0.0135805
-6.58361e-05
0.228559
0.053944
0.190818
7.19564e-06
0.000481659
-0.000148036
0.000100563
-0.588367
0.128746
9.20289e-05
0.000260052
-4.26446e-05
1.2018e-05
0.00301834
0.000106345
-0.00198991
0.205259