/*--------------------------------*- C++ -*----------------------------------*\
| =========                 |                                                 |
| \\      /  F ield         | OpenFOAM: The Open Source CFD Toolbox           |
|  \\    /   O peration     | Version:  v2012                                 |
|   \\  /    A nd           | Website:  www.openfoam.com                      |
|    \\/     M anipulation  |                                                 |
\*---------------------------------------------------------------------------*/
FoamFile
{
    version     2.0;
    format      ascii;
    class       volScalarField;
    location    "50";
    object      p;
}
// * * * * * * * * * * * * * * * * * * * * * * * * * * * * * * * * * * * * * //

dimensions      [0 2 -2 0 0 0 0];


internalField   nonuniform List<scalar> 
9793
(
0.0213361
-4.149e-06
0.0215391
-0.000973892
0.0209644
0.000758413
-0.00185895
-0.00190484
-0.00300193
0.0254147
0.00698418
-0.21772
-0.00101493
-0.0005332
-0.00215528
-0.000493932
-0.00437237
-0.00442286
0.00238159
-0.000484432
0.000855037
0.00964511
-0.00213309
-7.34833e-06
-0.00523282
-0.000991582
-0.000366956
-0.0038004
0.0129997
-0.00267098
-0.0230315
-0.00232987
-0.0169571
-0.00143516
0.0153822
-0.0511936
-0.0020523
0.00996969
-0.00191649
-0.00219183
-0.0239254
-0.00240347
-0.00117699
-0.00229401
-0.00100098
-0.0010554
0.0142445
-6.68054e-05
-0.0453665
-0.000993074
0.0162916
0.0100863
0.0045949
0.000574054
0.0280945
-0.124029
-0.00139495
0.00620791
-0.0194674
-0.00191405
-0.00189571
0.00748818
-0.0380327
-0.000393571
0.00897275
-0.0335629
-0.0314791
-0.0322822
-0.204487
0.00746262
0.028458
-1.81174e-05
-0.000339281
6.74583e-06
0.0190294
-0.0139422
-0.00133873
-5.40277e-06
-0.00461342
-0.00439867
-0.0483499
-0.00333854
6.0223e-06
-0.000912513
-0.0174877
-0.000411102
-0.00457133
-0.00125412
0.00590232
-0.00218996
-4.8065e-06
0.0249906
-0.00191647
-0.00242196
0.00730219
-0.00106783
-0.114416
1.47793e-06
-0.00192103
-0.00142911
-0.00138124
-0.000696724
-0.00250932
-0.00248829
-1.21689e-05
-0.0167664
0.00615271
-0.00208344
0.00470005
0.0016277
-3.22358e-05
-0.0684113
-0.000956293
-0.151359
0.0108792
-0.00146019
-0.00768087
0.0193604
-0.00349879
-0.00214183
0.00161146
-4.33152e-05
7.28957e-05
0.000866224
0.00147165
-0.00786355
-0.00721541
-0.000414236
-0.00487517
0.000192532
-6.42765e-05
-0.00139104
0.000254799
-0.000300876
-0.00266671
-0.00110257
-0.000335008
-0.00204412
-0.000852771
-0.000528157
7.70415e-05
-0.004544
-0.00162099
-0.00120129
-0.000508824
-0.000432046
-1.1614e-05
-0.00126317
-0.00207452
0.0218289
-9.70465e-05
-9.38512e-05
0.00606883
0.0336799
-0.00208486
-4.49901e-05
-0.000422913
-0.00413878
-0.00131575
-0.00161103
-0.00190581
-0.0038981
-0.000406959
0.000328019
1.85882e-06
-0.00248843
-0.000144905
0.0103868
-0.000395149
-0.00113147
-0.00272668
-0.0279004
3.70272e-07
-0.0251233
0.00059726
0.00592546
-0.00125189
-2.81669e-05
0.000305264
0.00347973
-0.0482575
-0.00480812
-0.00137829
-0.0049157
-0.0127374
-0.000412254
0.00754318
0.000195077
0.000375305
-0.000447642
0.000153646
-0.000237593
-0.0342049
-0.0449356
-0.0370057
0.00288124
0.0209012
-0.00196447
0.0342484
-0.000529341
-0.00242236
-0.00274426
-0.125673
0.000193807
-0.00109466
-6.05468e-06
-0.0310033
-0.000784574
-0.0125979
0.00198224
0.00901204
-0.0317101
-0.0520294
0.00052486
0.0205099
-0.000386833
-0.000871708
-0.0106379
-9.50475e-06
-0.1092
0.0219087
-0.000467541
0.000978824
-0.000223931
-0.000762144
0.00305002
0.00210478
-0.00215419
0.0215531
0.0071542
-7.85202e-06
-6.25937e-06
-0.00510422
-0.000480934
-0.00159713
-0.108176
-0.000712373
-0.00233214
-0.112579
-0.0014846
-0.0119846
-0.000621155
-0.00250198
-0.0223441
-0.00204137
-0.00200007
-0.001921
-0.00382595
-0.00199795
-0.00146128
0.00442161
0.00305994
0.0112679
-0.00453252
-0.00215439
0.0123899
-0.00223299
0.00379162
-0.00517254
-0.000838948
0.00420109
-0.00213725
0.0124066
-0.000801483
0.0106189
-8.66745e-06
-9.7752e-06
0.00986932
-0.00818095
0.00438364
-0.000864734
-0.00057154
0.0148614
-0.000699882
-7.14202e-06
-6.30988e-06
0.000246413
-0.0450339
-0.000200584
-0.00610725
-0.00355965
-1.54821e-05
-0.00218884
-0.00203523
-0.00899549
-0.00036513
0.00455288
0.00782793
-0.00189213
-0.0009232
-0.000807852
-0.0125728
0.00373798
-0.00200014
-0.00010689
0.000151516
0.00346814
0.00830317
-0.000204973
-0.0577886
-0.00215706
-0.0197603
0.00354991
-0.00227786
-0.00201535
-0.00102682
0.0155819
0.0102978
-0.002983
-0.0169624
-0.000204278
-0.00102059
0.0108358
0.00584088
0.00249489
-0.0017807
-0.000727598
-0.00293899
0.0133492
0.00166222
-0.00240781
6.31202e-06
0.0166425
-9.21758e-07
-2.56872e-05
-0.033199
0.00455101
-0.0215436
0.0198798
-0.000462531
-0.0085257
0.0202097
-0.000693446
-0.00909468
0.00962241
-0.00193981
-0.00099245
-0.00228899
-0.0012795
-0.00400739
0.0231303
0.00024525
-0.002329
-0.0650738
-0.0013711
-0.000445571
-1.90804e-05
0.0070192
-0.00190853
0.0221553
0.00247908
0.000557506
0.00452583
-0.000841089
-0.0264432
0.000367961
0.0232985
-2.02224e-05
0.00707455
0.0276168
0.00732686
0.00786147
0.00693446
0.000179043
0.0178757
-0.00204274
0.00522195
-0.0021015
-0.000451528
0.00442567
-0.00876955
0.0154512
0.00043057
-0.000479649
-0.045875
-0.00913871
-0.000481343
-0.013966
-0.000889468
-8.05996e-06
0.0120788
-0.00027202
-0.0172686
-0.000204987
0.00564385
-0.000623619
-0.00214089
-0.000399424
-6.32163e-05
0.0111356
-0.0352367
-0.000285979
-0.194918
-0.00239692
0.0156942
0.0060998
-2.21166e-06
-0.00184166
-0.00234246
0.0294353
-0.00305799
-0.000673649
-0.00446276
-0.0901794
-0.000532545
-0.151935
-0.00240367
0.010725
-0.000532422
0.0116358
9.41006e-05
-0.000214112
-0.0308169
-0.00082084
-0.00230983
-0.00280469
0.00296399
-0.003494
-0.00211997
0.00532097
-0.000487701
0.0127905
-0.000199452
0.00277425
0.0104407
-0.000817288
-0.00683207
0.00401931
-0.000423274
0.00525664
-0.00171367
0.00299041
-0.000477487
-0.00210634
-0.000453977
-0.00220726
-0.00115439
-0.0188469
-0.00114565
-0.00109841
-0.00212152
1.5413e-05
-0.0114521
-0.00216154
0.0296952
-0.000438873
-0.00298394
0.00510945
-0.119519
-0.0366864
0.023614
-0.0244162
0.00339439
-0.000113725
0.0247025
0.00604983
0.0114013
7.86513e-06
0.000290377
-0.000202072
-0.00311682
0.00110409
0.000155164
-0.00265949
0.000268524
-0.00246477
-0.00209164
-0.125775
0.000925245
-0.00993973
-0.00247378
0.016191
-1.98097e-05
-0.00151912
-0.00028592
-0.00288604
0.0253181
-0.000808381
-0.00325886
-0.000442886
-0.000372176
-0.00890655
0.00093808
-0.00194027
-0.000125293
0.00389355
-0.00669446
0.00198476
-0.025433
-0.0243227
-0.000666117
-0.00086381
0.00627099
-0.00799784
0.0032935
-0.000759148
-0.000317315
-0.00167762
-0.0024939
-0.00224271
7.34518e-06
0.0138755
-0.000454901
-0.0140515
0.0170583
-0.00173729
0.00439614
-0.00407201
-0.0714025
-0.00319286
-0.15075
-0.00045609
-0.0023869
0.00865433
0.00033488
0.00289278
0.00332587
0.0143185
-0.00167558
-0.226024
-0.00656067
-0.00275187
-0.00362335
-0.00430092
-0.00215649
-0.00269766
-0.00017931
-0.00212419
-0.0227596
-0.00337882
0.016875
0.00357051
-0.00336336
-0.00265846
-0.000193421
-0.000115023
-0.000182247
-0.0530926
0.00779044
-0.000565867
0.000161626
0.0321151
0.00181582
9.69944e-05
0.0237694
-0.000105002
0.00764019
-0.0146486
-0.000573559
0.0142558
-2.72252e-05
-0.133474
0.00726242
-0.0170084
-0.000414847
-0.00238548
-0.00411431
1.35018e-05
0.000201344
-0.0193217
-0.0487393
0.0123474
0.00371051
-0.161776
0.0122717
-0.00194245
-0.00178665
0.000108167
0.0033741
0.00144091
-0.0148128
-0.000336042
0.000790617
-0.00233568
-0.00601625
-0.00253487
0.0123584
-0.000372995
-0.000722626
-0.00247766
0.00357972
0.0015349
-0.00020358
0.00023275
0.00171393
0.00143097
0.00522115
-0.000905921
0.000407045
-0.170998
-0.000921463
-0.00224654
0.0167735
-0.00402014
0.000170657
0.00516912
-0.00943424
0.00666128
-0.00639108
0.00310742
-0.00251103
-0.00419616
0.00625802
0.00478497
0.0053748
0.00776242
-0.0159265
0.00185922
0.0113125
-0.00275249
-0.00199191
0.000277105
-0.00197288
0.000423675
0.00129435
-0.00221438
-0.00218632
-6.50675e-06
-0.00282084
-0.00207073
-0.000194792
0.0120844
-0.000468402
-0.00548608
-0.00168209
-0.000643429
0.0113341
-0.00652687
-0.00085659
-0.00216221
-0.0018141
0.00020869
-0.00255749
-0.00021011
-0.000459484
-0.000200451
-0.00222365
0.00181853
-0.000355354
0.0104555
-0.00196446
-0.00227744
-0.000104378
-0.0156078
-0.000661748
-0.00049977
0.00496625
-4.46335e-05
-0.00334483
0.0114585
-0.00537535
-0.00130974
-0.000242898
0.00540652
-0.00196643
0.00229567
0.0194015
0.00313101
-0.0511488
-0.00297061
9.53337e-05
-0.00078618
-0.00336214
-0.000476193
-3.25142e-07
-0.0180128
0.0335309
0.000238003
-0.00259428
-1.46351e-08
-6.09261e-05
-0.140836
-0.000176744
0.00319294
-0.00148712
0.0148255
-0.00177037
0.00693907
0.0060131
0.0145135
-0.0391934
-0.00261413
-0.00156466
-0.00754717
-0.00214888
-0.00526276
0.00379127
-0.0455929
-0.000616816
0.000238022
-0.00349737
0.00258672
0.000120544
-0.00193928
0.000740069
-0.0042909
0.0026697
-0.017174
-0.000666819
-0.000196688
-0.00212932
-0.00533731
-0.000397618
-0.12108
-0.000445184
0.000551136
-0.00800415
-0.000601336
0.0084526
-0.000296778
0.0217606
-0.0227994
0.00147491
-0.018536
0.00277196
0.00236787
-0.000419731
-4.32938e-05
0.00270472
0.000866435
-0.0545248
-0.0016563
0.000654045
-0.00284376
7.73379e-05
0.00298892
-0.00450381
-0.271297
-0.000133901
-0.00287216
0.00644464
-0.168586
-0.167758
-0.00016464
-0.00289478
-0.000469499
0.00490137
-0.0677634
-3.12099e-05
0.00311616
0.000222014
-0.000448867
-0.00110471
-0.000116164
0.00364062
-0.011485
0.00112882
-0.00129799
-0.00190162
-0.0576996
0.0315234
0.000269788
-0.00259829
-0.00137309
-0.0137083
-0.000177149
-0.0141648
0.0123507
0.000749353
0.00101711
0.00087403
-0.00200275
-0.000631719
-7.65547e-05
-0.00253692
0.00530402
-0.000179434
-0.00114597
-0.000514195
-0.0026207
-0.0263048
-0.00191095
-0.00540828
-0.00287927
0.00208938
0.0141944
-0.00777985
-0.000842789
-7.88086e-05
8.08342e-05
0.00172664
-0.0172994
0.00255542
0.0133291
-0.0033384
0.00828127
0.0073046
-0.0525491
-0.000440965
0.00346111
-0.001971
-0.00821695
-0.00215926
-0.000479985
-0.00176155
-0.00132892
0.0214131
-0.000197877
0.00711349
-0.00219544
-0.00011632
-0.00036011
0.019491
-0.00107164
-0.00650977
-0.00200723
-0.00108864
-4.25114e-05
-0.000584529
-0.00827817
-0.00266393
0.00023192
-0.00130123
0.00244116
-0.000733965
-0.201368
0.00414751
0.00116737
-0.00145188
-0.000281596
0.000231609
-0.00890146
0.00408426
-0.012304
0.000533667
0.000312258
1.56553e-05
-0.000288196
0.00350159
3.08028e-05
0.0197927
0.0235528
0.00752932
-0.000568385
-0.0112822
-0.00117871
5.18807e-06
0.00646051
0.00173338
-0.000141311
-0.0372999
-0.000209179
0.0116542
-0.000172645
-0.0018242
-0.00714092
-0.000430979
-0.000194059
-0.00286659
0.000386007
0.00563629
0.00679411
0.00282252
-0.00140677
-0.000215524
0.000956269
-0.0197943
-0.00945195
-0.000218419
0.000221791
-0.00293921
-0.000270298
-0.0015756
-0.00031836
0.0067722
-0.000157993
-0.000535607
-0.00436954
-0.0148621
0.0262989
-0.0455525
-0.00242418
-0.0625603
-0.000475933
-0.036346
0.00492061
-0.00194007
0.00130045
-0.00119288
-0.00347535
-0.17356
-0.00512847
0.00110053
-9.76681e-05
0.0194877
0.00567494
-0.0077354
-0.00730096
-0.000506155
0.0115813
-0.000109508
-0.000234815
0.0200341
-0.00326925
0.00765494
-0.00487264
-0.000601857
0.000178664
-0.154194
-4.33197e-05
-8.32334e-06
-9.68342e-06
-0.000281316
-0.00550194
0.00855348
0.0189116
-0.00204739
0.0109818
-0.000584991
-0.00394329
0.0189103
0.00331931
0.00139963
0.0244709
-0.000657687
-0.00203329
0.00254893
0.0102545
-0.0765932
-0.0008718
0.00404879
0.0024713
-0.00031354
-0.00221543
-0.00723779
0.0109828
-0.00198445
-0.00212199
0.000674348
0.000600609
-0.000826602
0.000200207
0.00461595
-0.00255314
-0.00167936
0.000882246
0.00503387
-0.010051
0.000111992
-0.00179067
0.0151035
0.0140622
-0.00142357
-0.0510663
-0.00145556
-0.000251436
0.00116581
-0.00280196
-0.00683836
-0.00189225
-0.0129332
0.000918373
-0.00817472
-0.0065183
0.000299542
-0.0332001
0.00143686
0.000907338
0.000281829
2.24804e-05
0.00324743
-0.00229726
-0.161897
-0.000242682
-0.00152616
-0.00035895
-0.0017541
-0.0276877
-0.0121077
0.0124461
0.020268
0.000177891
-4.42052e-06
-0.0931631
0.00142528
-0.00187586
-0.000665394
-0.177827
-0.0056244
-0.00045194
0.000285844
-0.000178512
0.00498557
0.00377573
-0.0044378
-0.011774
0.0013391
-0.0101363
-0.00816452
-0.00218661
-5.10239e-05
0.0137092
-0.0120154
-8.98647e-05
0.00129982
-0.00114404
0.00197017
-0.000494764
0.00292103
-0.00190607
0.00806712
0.00117109
-0.0544667
-0.00504319
-0.000726914
-0.0120312
0.000267309
-0.000483138
0.000576536
0.00751489
0.00498709
0.00047891
-0.00143168
-0.00226194
0.0129783
-0.00730964
-8.73533e-05
-0.00928974
0.000193348
0.010662
0.00116303
-0.00059558
-0.0181285
-0.000662346
-0.013015
-0.0170902
-0.00171623
0.000487478
0.000886909
0.000469727
-0.141911
-0.0015964
-0.000773425
-0.00164949
-0.000657957
-0.0671907
-0.0184288
-0.00161961
0.000111335
-0.0020782
-0.00194336
0.0024186
0.00702168
-0.00384639
-0.00216799
-0.00167598
-0.00239308
0.00127638
-0.000549469
-0.00134026
-0.000188631
-0.0440956
0.013351
-0.00049937
-0.00387248
-0.00499775
-0.00543135
0.000244883
-0.00807398
0.000181905
0.000226857
0.00419613
0.0116706
-0.00165799
0.00451609
0.00227043
0.00847948
-0.000553947
-0.000319265
0.000513795
0.0191054
-1.46964e-05
-0.00142197
0.0116466
0.00255242
0.00289702
-0.00304484
-0.000307109
0.02003
-0.0394086
-0.000919901
-0.123418
-0.00306113
-7.29182e-05
-0.000284612
0.000142688
-0.000420958
-0.000357031
0.00795493
-0.000895324
-0.122614
0.0199446
-0.000396443
0.00241958
-0.0159357
-0.000281338
-0.00297748
-0.000307454
0.00522086
-0.0248644
-0.000380742
-0.00146893
0.00478333
-0.00624744
-0.00183916
-0.00764293
-0.00059118
-0.0020521
0.000318395
-0.00202382
-4.83708e-05
-0.000167223
0.0238919
-0.044192
-0.000305478
-0.00117992
-0.000342078
0.021485
-0.000947651
0.0133207
-0.000404235
-0.00122918
-0.00283957
-0.00256603
-0.0040323
-0.000819332
-0.00262304
0.000383062
0.00271097
2.29631e-05
-6.08416e-05
-0.00128944
-0.00285738
0.0207225
-0.000252693
-0.00399187
-0.012314
-0.000971915
0.000139248
-0.000364461
0.00891859
0.00287898
0.0109464
0.00202508
0.000266972
-0.000291497
0.0119657
-0.00241003
0.000426268
-0.124447
-0.000576922
-0.133461
-0.135522
-0.00170596
0.00364818
-0.000222815
0.00359866
0.0161377
-9.14734e-05
0.000390857
-0.000194834
0.000887174
0.0207398
-0.000252819
-0.0381612
0.00536627
-4.12434e-05
0.00333993
-0.00586918
-0.0135929
-0.215907
-0.00056698
0.00201653
-0.100141
-0.00196209
-0.00782702
-0.00191764
0.00174248
-0.0196077
-0.000161041
-0.00116529
-0.00973548
-0.0660972
-0.126415
-0.00345747
-0.000270824
-0.00186342
-0.138304
-0.00421862
-0.0031204
0.00934655
0.0105728
-0.00212778
-0.000604416
-0.00165106
-0.000746652
0.0108016
-0.00195422
-0.0010061
-0.000281375
0.0172741
-0.00134091
0.00178075
0.0129546
0.013477
-0.0827815
0.0205389
-0.0157268
-0.160807
-0.000237922
0.00886629
0.0103406
-0.0195937
0.000424742
0.00110373
0.00943092
0.000745356
0.0159937
0.0121698
0.000342572
0.00117213
-0.000526561
-0.00389428
-0.00602255
0.000136159
0.000735831
0.000774334
-0.000291399
-0.0021955
-0.0001684
0.00475567
0.000583447
0.00953061
-0.00809507
-0.0013734
-0.000302608
0.000155496
-0.00192818
-0.00821749
-0.00137246
0.0204352
-0.0197289
0.00018696
0.0168698
-0.00039419
-0.00168311
-0.000184328
-0.00126359
-0.00106317
0.0215455
-0.00147208
6.24854e-05
-0.00456802
-0.00129477
0.000204103
-0.000432472
-0.00549006
-0.000187114
0.00102497
-2.87239e-05
-0.000607144
0.00403897
-0.00330052
-0.0118225
-0.00128698
-0.00496144
-0.00111583
-0.00433896
0.00551269
0.00217635
-0.13296
-0.00161414
0.0167947
-0.00183721
6.40577e-05
-0.137592
-0.00895795
-0.157039
0.00596767
-0.0016987
0.0164044
-0.00206476
0.00310567
-0.00790646
0.00690385
0.00354086
-0.000207711
-0.157173
-0.0474138
-0.00157201
-0.00822336
-0.00173466
-0.00734889
-0.00245274
-0.00163807
-0.0226318
-0.0018921
-0.146915
-0.0165922
-0.000356783
-0.00391162
-0.00168726
-0.0191554
5.63112e-05
-0.0351561
-0.00712848
0.000997565
-0.0019599
-0.10077
0.00895016
-0.196763
-0.00686767
-0.000424828
0.0118225
0.0162476
-0.00700681
0.0015879
0.000389353
-0.00451732
-0.00251821
7.65952e-05
0.000281434
-0.00056331
-0.00264374
-0.00702625
0.0196515
0.0204833
-0.000176298
-4.30517e-06
-0.00031221
0.0250125
4.13893e-05
-0.00267139
-0.000122846
0.00895166
-0.00155306
-0.00192008
-0.000624686
0.00507836
-0.285277
-3.91356e-05
-0.000384329
-0.00494834
-0.00483119
0.00101687
-0.0173983
-0.000648768
-0.00451209
-0.00104237
-0.0217196
-0.00129878
-0.00328371
0.000254379
0.00895354
-0.00161107
-0.00124406
0.00100876
-0.00370368
0.0135588
-0.000483405
4.47293e-05
-0.00249457
-0.0996248
-0.00536371
-0.00110095
-0.00116489
0.0141217
-0.00221103
0.000344092
0.0184936
0.000618893
0.000676251
0.00732588
-0.000188298
-0.000599647
-0.0992038
-0.000922997
-0.00134737
-0.00430525
1.08296e-05
-0.00571016
0.0246568
-0.0005016
0.000160623
-0.0012016
-0.001015
-0.000759545
-0.00192104
0.0252001
0.0201928
-0.00122964
-4.04663e-05
0.000147132
-0.00172003
0.0102192
0.0200708
-0.000762631
-0.0741341
-0.00016529
0.00335494
-0.00241593
0.010584
-0.0017993
-0.100107
-0.00224778
0.000241441
-2.04145e-05
-0.115045
0.00117864
6.26625e-05
-0.116819
0.00546499
-0.00154131
-3.89986e-05
-0.000962732
-2.6596e-05
-8.18268e-05
-0.00104108
-0.0169679
-0.00196353
0.0195385
0.0296108
0.00178298
0.0123363
0.00319088
-0.00531798
-0.00187422
-0.00233742
-0.00167133
-0.000451428
-6.53488e-06
0.0122224
-0.00190858
-0.0125763
-0.146934
-8.33002e-05
0.0191098
-0.00224008
0.0187656
-0.000705299
-0.000854433
0.0198973
0.00144056
-0.00146594
0.00997437
0.0198991
0.00552905
0.00392164
-0.0015732
0.00841454
-0.221777
-0.00225534
-0.00658676
-0.0101787
-0.000251816
-0.000956412
-0.00242428
0.00462332
0.00693077
7.57434e-06
-0.0283179
0.00092748
-0.00291531
0.0030297
0.00369025
0.0187462
0.00220358
0.0175865
-0.00460882
-0.00231281
0.00262459
-0.0216717
-0.0156513
-0.00253078
-0.00733779
0.00443659
0.00267424
0.0146356
-0.00130775
0.0016118
-0.000408071
-0.00283309
-0.0125553
0.0201212
0.00212127
0.0204802
-0.00147124
0.00471012
-0.00165603
-0.000391311
-0.000529034
-0.000110231
0.020077
0.000604036
0.00272976
-0.00142683
0.000736088
0.0004498
-0.00261808
-0.000789665
-0.000836705
0.00108513
-0.0115231
0.0282614
-0.000382037
-0.00173009
-0.00204451
0.000230669
0.00641961
0.0274415
0.000657301
0.020626
7.59278e-06
0.0044548
-0.0202484
0.000889791
0.004537
-0.00208316
-0.000220574
-0.00230059
0.00842618
0.00265155
0.00541736
-0.00176474
0.000341243
0.00385636
0.0082825
-0.00346474
0.00367379
-0.00103878
0.00341572
-0.144702
-0.00190568
-0.00189234
-0.00125178
-0.00210278
0.00601143
-0.0174427
0.000853816
0.00476525
-0.0196829
0.00278035
7.54097e-05
-0.00755879
0.0219975
0.000103642
0.00171168
-0.000503252
0.00423386
0.00857753
-0.00182202
8.37197e-05
-0.000772114
-2.81693e-05
0.00945223
-0.00352875
0.00792777
-0.000130441
-0.0518131
-0.0018102
8.75057e-05
-0.00138693
-0.000834233
0.00246326
-0.000140774
0.00327877
0.0115302
0.000469834
-0.000132681
-3.2524e-05
0.00419689
-0.000630854
0.00330841
-0.0122909
-0.0515732
0.00197717
-0.000349193
-0.0038093
-0.00180558
0.000548531
0.00731503
0.00224334
0.00254005
-0.00028897
-0.000836198
0.00554277
-0.000348493
-0.0255481
0.00964616
-0.00213933
-0.000200578
-0.00764244
-0.0117797
1.66698e-05
0.000343303
-0.1006
0.00805395
0.00176831
-0.0155666
0.000594478
-6.52509e-05
-1.90468e-05
-0.000262295
-0.00140521
-0.00227258
0.00156693
-0.0312581
0.000108472
-0.0120304
0.00118635
0.00291086
-0.000822229
-0.0032828
-0.00087302
-0.0290065
0.000509122
-0.0021954
0.00155045
-0.00178114
-0.000504566
-0.00172353
0.00962187
0.000289346
-0.00108083
-2.77223e-05
-0.000598743
-0.000179881
-0.00145106
0.000682666
6.75923e-05
-0.00434325
-0.005421
-0.00145195
8.94939e-05
0.000124847
0.00837325
-0.151941
-0.00019372
0.000607114
-0.0118422
-0.00111223
-0.000547363
-0.000193151
0.00585131
-0.00112145
0.0169987
0.00200291
-0.0140907
-0.00036776
-0.00127536
-0.00255081
0.000707782
0.00723996
4.64684e-05
-0.00409909
0.00481365
0.000891845
-0.00191735
0.00135225
0.0103672
-0.0023906
0.00249972
-0.0104507
0.00189406
-0.000204983
-0.000350955
-0.00172303
0.000795336
-0.00185891
-0.00102659
-0.00520254
0.000192871
-0.000490273
0.0335201
-0.000680363
-0.166572
0.00542906
0.000817916
-0.175012
8.49111e-05
-0.000226648
6.78333e-05
0.000619089
-0.00192053
0.000944357
0.00163131
0.00212993
0.0262798
0.000315385
-0.00104645
-0.00252596
-0.00188618
0.000205191
0.000266526
-0.00114141
-0.00251948
-0.000236581
0.00127416
-0.000544329
0.000573365
0.00383504
-0.121598
-0.00135968
-0.000244234
-0.0171545
0.000203662
-9.11676e-05
-0.00092776
-0.00119597
-0.00462031
0.000721143
0.00150383
-0.025515
0.00031774
-0.000276174
0.0101143
0.000944794
0.00348576
1.12567e-06
-0.0113893
-0.000312162
-0.0666313
-0.000643343
-0.168685
0.0108794
0.000305081
0.00691754
-0.0276028
-0.00105917
-0.000211556
-0.000153426
0.012408
0.020659
0.00921068
-0.140807
-0.031151
-0.00018813
-0.0708162
-0.0743041
-6.97783e-05
-0.00245677
0.0192239
0.0182471
0.00134264
-0.00117105
-0.000130857
-0.000240848
-0.000187854
-0.000405806
-9.87283e-06
-0.000403482
-0.0104172
-0.00114233
0.000641436
5.92785e-05
-0.0193525
-0.000719272
-0.000815894
0.0106814
-0.0136996
0.000106025
-0.00123251
-0.00113758
0.000417301
-0.00548076
-0.000463418
0.00446157
-0.078981
0.004581
0.0197119
-0.000180797
7.87835e-05
0.00305966
0.00743667
0.000580767
-0.0137611
-0.000109086
-0.000423192
-0.000356239
-0.162691
-0.00107059
-0.00145462
-0.000272153
0.0179807
-0.161998
-1.09958e-05
-0.00127289
-0.000395337
-0.0156215
0.0148194
6.50466e-05
-0.0813849
-0.0579763
-0.000353225
-0.0162539
3.69053e-05
-0.000285941
-0.000248195
8.82853e-06
-0.118052
-0.000379589
-0.0533798
-0.000238241
0.000599404
-0.000543549
-0.014819
0.0001719
-0.000961045
-0.000817145
0.0156557
-0.00163624
9.87736e-05
-0.00220405
0.0128755
0.0148301
0.0193419
-0.000193867
-0.00203475
0.0322605
-0.0113336
-0.000118889
-0.000271255
-8.42852e-07
0.000727011
0.00364662
0.00418244
0.0132855
-0.0012971
-0.00130131
-0.00174142
0.000183258
-0.0245033
-0.000936311
0.00081406
-0.00013685
0.00417984
0.00096942
0.000114165
-0.000516747
0.00102578
0.0014634
-0.0431025
-0.000118789
-0.00204753
-0.0212543
0.0208856
-0.0151886
-0.00245494
-0.00140515
0.00290115
-0.000204295
-0.00849354
-0.000388254
-0.0304245
-0.00156709
6.40739e-05
-0.00125275
-0.0286715
-0.000403557
0.000330415
0.0173889
0.00018544
-0.00116676
-0.000135755
9.57651e-05
0.00561857
-0.00190614
-0.0109794
-0.00062567
7.29043e-06
-0.00765111
0.000444146
-0.00966366
-0.000850829
-0.00263335
0.00013538
-0.143368
-0.000559275
-3.48632e-05
-0.034411
0.0194294
-0.00950829
-0.0390029
-0.000551533
0.00134585
-0.000210319
0.00141721
-0.0235626
-0.00104129
-0.00161289
-0.00200364
-0.00137417
0.00156588
-0.00288406
0.00139193
0.000817893
-0.0430267
-0.0103795
0.000884423
-0.000984015
-0.000945973
-0.00178154
-0.000144368
0.0185219
-0.000660436
-1.76172e-05
0.0177682
-0.107731
-0.000126726
0.00773378
-8.96015e-05
-0.000104409
-3.60219e-05
-0.00229812
-0.000696185
0.0248932
-0.00202668
-4.26888e-05
0.00169165
0.0085466
-0.00167325
-0.0153633
-0.000200455
0.00398272
0.00867026
3.72835e-05
-0.000221096
-0.0220711
0.00405174
0.00133813
2.88333e-05
-0.00206293
-0.00164632
-0.00262152
-0.018825
-0.00102454
-0.00134583
0.00382187
-0.000224704
-0.0014701
-0.000536555
-0.0102595
-0.00168361
-0.00292915
0.00351697
0.000654705
-0.00783057
-0.000476234
0.00278939
0.0194581
0.00179149
-0.00175407
0.000271532
-0.0132275
-0.0107394
0.0190515
0.00175015
-0.00291784
0.00690166
-0.0122109
-0.0201142
0.000484874
0.00131514
0.000222313
-0.00102311
0.000195738
-0.00818064
0.00345618
-0.0176769
0.00428527
-0.0114201
-0.0129426
-0.150595
0.00605434
-0.00225513
0.0198183
-5.43488e-05
-0.000571215
9.56267e-05
-0.134946
0.000440016
-0.00109645
-0.00284906
-0.164277
-0.00175744
-0.00159458
0.000116397
-0.000971035
-0.00118581
-0.0154082
-0.00302837
-0.00148739
-0.00011028
0.0210266
-0.00952878
-0.0116483
0.00145019
-0.0013257
0.00915502
0.0012976
-0.00130325
-0.000263408
0.00489223
0.000425865
0.0130731
-6.09515e-05
-0.000555664
-0.00214721
0.00179273
-0.0133063
-0.0115351
-0.00248324
-0.000810319
3.19998e-05
-0.0151514
-0.0059144
-0.00971834
0.00115468
0.0204244
-0.000210332
-0.000205164
-0.00122122
-0.00118951
-0.000645712
0.000399053
0.00400781
0.0265133
-0.000280093
-0.0223625
-0.0113177
-9.56262e-05
-0.00260464
0.0210221
0.00520963
-6.80488e-05
-0.000203272
-0.00114241
-0.00250259
-4.95162e-05
-0.000199084
-0.00280505
-0.00861592
-0.000327923
0.000533402
-0.00107805
-0.107475
-0.000619955
-0.000547542
-0.0121353
-0.00205441
-0.00224963
-0.00142103
-0.00080917
0.000484683
-7.29106e-05
-0.000317423
-0.000245119
-0.0103302
-0.0023936
-0.00124225
8.86548e-05
-0.000211604
0.00108469
-0.000400177
0.00359542
-0.0890933
-0.00080017
-0.00984966
0.00049501
0.000126319
-0.00155072
-0.000293885
1.91209e-05
0.000297216
0.00112319
0.0045463
-1.08633e-05
-0.00113761
-0.00131426
-0.000374463
0.0171925
-0.0112096
0.00133328
0.0124589
-0.032495
-0.000111315
-0.00168557
-0.146327
0.00988449
-0.000483799
-0.00185382
-0.00417237
-0.00198444
-0.00139909
6.90127e-05
-0.00131668
-0.0271894
-0.0226695
-0.00547701
-0.00149288
4.60286e-05
-7.77552e-05
-0.00761043
-0.00211564
0.000310936
0.0133528
0.000221387
-0.00148922
6.04809e-05
-0.00168289
-2.57203e-05
-0.00170694
-0.000706985
-0.00115678
-0.00127909
-1.45537e-06
-0.012507
0.00394477
0.00166502
0.00122874
0.00638934
-0.0163672
-0.000221478
-0.000577416
-0.00740615
-0.0282275
8.97375e-05
-0.127653
-0.00281314
-0.00073081
-0.00168027
5.55366e-05
-0.00186445
-0.000138845
0.000248066
-0.000859393
0.000118771
0.00435457
-0.0633118
0.0199394
-0.00073123
-0.00232499
-0.0470323
0.0199646
-0.00143383
0.00421767
-0.00162268
-0.00018464
-0.00188144
-0.00179017
-0.0019701
-9.30622e-05
-0.0194865
-0.0010966
9.8554e-05
-0.000940588
-0.000119259
-0.00275699
-0.0136645
-0.00198772
-0.00188986
-0.041897
0.0196386
-0.0546108
-0.00426414
-0.00111416
-0.0289881
-0.122688
-0.00523549
0.00343955
4.25683e-05
-0.000128114
0.00374716
0.000528068
-0.00076614
0.00356114
-0.00268397
-0.00238703
-0.00337711
-0.00088784
-0.00180115
-9.41331e-05
0.00347747
-0.00232905
-0.00130566
-0.008055
-0.00679552
-0.210196
-0.00136257
0.0287336
-0.0184928
-0.00228239
-0.00161246
0.00479966
0.0150209
-0.000521312
-0.00456439
-0.0017107
-0.00215627
4.75228e-05
0.00983008
0.000632093
0.000936919
2.69172e-05
-0.00186842
-0.00363882
0.0199047
-0.00401199
-0.00198281
-0.00191047
-0.0108693
4.89913e-05
0.00314638
-0.0017401
-0.000747482
-0.00174425
0.00032576
-0.00137139
0.0109574
-0.000964843
-0.00187759
-0.0318335
-0.00260292
0.0174029
-0.00157216
-0.00145884
0.00095159
6.37766e-05
-0.00215862
-0.00207905
-0.170268
-0.00198979
-0.00169294
-0.00365697
-0.000188221
0.0025031
-0.0019063
-0.033856
-0.0227202
0.00931752
-0.0330552
1.65129e-05
-0.00196623
-0.0113278
-0.00183306
-0.10219
-0.000771836
-0.00190191
-0.00190985
0.00243965
-0.000503827
-0.00497019
0.00182254
-0.00229428
-0.0014477
-0.00214191
-0.00181448
-0.00574047
-0.00241484
-0.00343631
-0.00181518
-0.00281712
-0.00147303
-0.00236925
0.000576783
-0.0029186
-0.00190451
0.00148403
-0.000207337
-0.00313153
0.000398312
0.0108939
-0.00185806
-0.00157194
-0.00219359
4.87701e-05
-1.77715e-05
-0.00686965
0.00425582
-0.0144375
0.0177142
-0.0106734
-0.00954382
3.84034e-05
0.00642619
-0.00181837
-0.00171667
-0.00630632
3.2759e-05
-0.00254142
-0.0019187
-0.0010361
-0.000677743
-0.000215246
-9.40887e-05
-0.000103391
-0.00265038
-0.000238547
-0.0257092
-0.000638949
-0.00165003
0.018345
-0.00228459
-0.000508416
-0.00775411
-7.80293e-05
-0.0106222
-0.00106375
3.66663e-05
-0.00676887
0.0160998
-0.0382533
-0.00305676
-0.0117682
4.98792e-05
-0.0321273
-0.00227711
-0.000812632
-0.00136493
0.000839787
-0.00243216
-0.00188764
0.0177628
-9.92431e-05
-0.000564548
-0.000701917
-0.000394931
-0.000257227
-1.89166e-06
-0.00966244
0.00138069
-0.000169282
2.34285e-05
-0.00047039
-0.000215847
0.0193687
0.00102333
-0.000659574
-0.000775519
-0.0157985
2.8531e-06
-0.00784149
-0.0100539
-0.00188607
-0.028917
-0.00173464
-0.00708714
0.000760587
-0.0960835
-0.000814158
-0.00173158
0.000139416
9.68663e-05
0.0027749
-0.000774795
0.00581595
-0.0102147
0.014956
-0.00161909
-0.000663845
-0.0957474
-0.00868536
-6.62899e-05
-0.014094
-0.00195922
4.51434e-05
0.000872929
0.0178346
-0.00206376
0.00341697
0.000220251
-0.0019092
-0.00049799
-0.000304256
-0.00689823
0.000754029
0.000172899
0.00215308
-0.00186088
-0.00207753
0.00163189
-0.00156603
-0.00227038
-0.00129831
-0.000508902
-0.00241881
-0.0114462
-0.000104875
-0.00256565
-5.52452e-05
-0.00228865
9.1565e-05
-4.99511e-05
-0.0065375
-0.00301046
-0.0114623
-0.00191436
-0.00126301
-0.000215536
0.00933259
-0.0150867
-0.000405206
-0.0131654
-0.00243979
-9.59968e-05
-0.00192291
-0.00181755
-0.00222325
-0.00190223
-0.000284683
-0.00592997
-0.00171255
-0.00148709
-0.0113395
-0.0020314
-0.00254621
-0.00215679
-0.0250579
-0.00266748
0.00987388
0.00519049
0.00667287
-0.00136619
-0.000281844
-0.012935
-0.000285238
-0.00543745
-0.0167283
-0.00226454
0.000921014
-0.0243804
-0.00534083
0.00108435
-0.00117369
-0.00213549
-0.00181271
-0.0138778
-0.00507712
0.00432601
0.00611852
-0.00221337
-0.00407597
-0.0009482
0.00524072
0.00567325
-0.0105648
-0.00243813
0.00095413
0.00483423
-0.000168917
-0.00165563
-0.00202568
-0.00200423
-0.00208851
-0.00156746
-0.00190084
0.000337278
0.00428296
-0.00861542
-0.00306976
-0.0066872
-0.00553638
-0.00241977
-0.00194727
0.0272551
0.000476347
0.000309938
-0.00237396
-0.000684101
-0.00240544
-0.000624433
-0.0291317
-0.000305628
-0.000558815
-0.00385758
-0.0196507
-0.00881507
-0.00185948
-0.118007
0.00243295
-0.134956
-0.00874392
-0.00653919
-0.0222446
-0.00202097
-0.00209217
-0.0129285
-0.00159283
0.0180492
-0.147179
-0.00647752
-0.001533
-0.0180466
-0.00081696
-0.00194336
-0.00205084
-0.00210651
-0.0128268
-0.00255744
-0.00178907
-0.0167206
-0.00319629
-0.000215343
-0.00209282
0.00379405
-0.0117819
-0.0510053
-0.00264167
2.00478e-05