/*--------------------------------*- C++ -*----------------------------------*\
| =========                 |                                                 |
| \\      /  F ield         | OpenFOAM: The Open Source CFD Toolbox           |
|  \\    /   O peration     | Version:  v2012                                 |
|   \\  /    A nd           | Website:  www.openfoam.com                      |
|    \\/     M anipulation  |                                                 |
\*---------------------------------------------------------------------------*/
FoamFile
{
    version     2.0;
    format      ascii;
    class       volVectorField;
    location    "50";
    object      U;
}
// * * * * * * * * * * * * * * * * * * * * * * * * * * * * * * * * * * * * * //

dimensions      [0 1 -1 0 0 0 0];


internalField   nonuniform List<vector> 
9793
(
(0.930694 -0.0531963 -3.01794e-21)
(0.997915 0.00133415 6.06059e-25)
(0.927872 -0.0500765 -5.32022e-21)
(1.01687 -6.65177e-05 -8.57088e-23)
(0.682304 -0.144988 0)
(1.04237 0.0309456 -2.67968e-22)
(1.01453 -0.000271772 -4.91625e-22)
(1.01602 -0.000341956 0)
(1.01666 -0.00282673 1.63932e-23)
(0.717582 -0.131245 1.58289e-20)
(1.0332 -0.0692577 -2.59228e-21)
(0.931419 0.210326 0)
(1.01686 -0.000116144 0)
(1.00232 -0.00776562 -8.57828e-23)
(1.00487 -7.86095e-05 0)
(1.00199 -0.00711779 -2.89612e-22)
(1.02442 -0.0156713 5.73053e-22)
(1.02387 -0.0173909 5.89109e-22)
(0.979429 -0.0818999 -1.69234e-21)
(1.002 -0.00750457 1.45794e-22)
(0.706324 0.285192 3.60544e-22)
(0.991343 0.00212828 1.54274e-21)
(1.01756 0.000640943 4.12858e-22)
(0.99908 -0.000502103 0)
(1.02377 -0.0213623 -5.23658e-22)
(1.01677 -0.00010002 -2.90309e-22)
(1.00112 -0.00669605 -1.09413e-22)
(1.02634 -0.00887889 0)
(0.993574 -0.064131 4.82409e-21)
(1.01627 -0.00260279 -1.0528e-22)
(1.16395 0.0598612 1.66235e-20)
(1.01711 -0.00284476 -1.105e-21)
(0.782689 -0.0628999 -6.1833e-21)
(1.0059 -0.000335142 -4.07919e-22)
(0.985768 -0.0678735 1.48935e-22)
(0.615746 0.208892 1.33141e-20)
(1.0123 3.03544e-05 2.97756e-22)
(0.991087 0.00442189 4.91533e-22)
(1.01505 -0.000542607 3.14584e-22)
(1.01379 -0.00050321 -2.79701e-22)
(1.15766 0.0419836 -1.19625e-20)
(1.00781 -0.000174901 -6.11454e-22)
(1.01565 -0.000145957 4.34779e-23)
(1.01424 -0.000229458 0)
(1.01494 -0.00012628 0)
(1.01647 -4.64061e-05 3.03808e-22)
(0.992237 -0.0678761 2.34297e-21)
(1.00005 -0.025196 1.77665e-23)
(1.05349 -0.187955 0)
(1.0169 -6.49933e-05 -3.96262e-22)
(0.983098 -0.0713577 -2.27527e-21)
(1.02767 -0.078214 1.90871e-21)
(1.03063 0.0386451 0)
(1.01172 -0.00135189 1.39339e-22)
(0.964376 -0.157563 8.8778e-21)
(0.569808 0.596616 -1.78818e-20)
(1.0151 0.000560768 -3.58524e-22)
(1.06866 -0.0577577 0)
(0.667722 -0.0481059 0)
(1.01527 -0.00036882 -3.53681e-22)
(1.01143 -0.00054851 0)
(1.0172 0.0373023 -2.38034e-21)
(0.856277 -0.208729 0)
(1.01496 0.000168978 -1.03295e-22)
(0.697887 -0.304303 4.38664e-21)
(0.861433 -0.119527 5.20441e-21)
(0.886384 -0.190947 -2.49497e-21)
(0.95267 -0.189662 0)
(1.02123 0.152278 0)
(1.02967 -0.0690136 2.49562e-21)
(0.953901 -0.150661 -7.88037e-21)
(0.999184 2.47637e-05 -3.47625e-24)
(1.02124 0.00289885 0)
(0.99782 0.00025168 0)
(0.976894 -0.0745259 0)
(0.718227 -0.0413291 0)
(1.01506 0.000463658 0)
(0.998716 -0.000582647 4.88716e-24)
(1.04047 0.00591577 0)
(1.03059 -0.00760073 0)
(0.850402 -0.0926547 4.00595e-21)
(1.03458 0.0141513 0)
(0.998033 0.00164116 -1.13818e-24)
(1.00833 -0.0180498 -4.69627e-22)
(1.12833 0.044674 8.34393e-21)
(1.00362 -0.0231673 -8.60862e-23)
(1.03183 -0.00896926 0)
(1.01498 0.000418774 0)
(1.01933 0.0303856 -8.80945e-22)
(1.02798 0.0210493 3.93773e-22)
(0.997795 0.00138514 -1.39618e-25)
(0.881941 -0.269698 -7.05102e-21)
(1.01093 -0.0088792 5.34361e-22)
(1.02191 -0.00568807 3.5407e-22)
(1.01665 0.0335115 7.16146e-22)
(1.00949 -0.0171902 -8.5315e-24)
(0.580447 0.585824 1.97739e-20)
(0.997938 0.00159124 1.10191e-24)
(1.01099 -0.00858056 0)
(1.00861 -0.00707647 0)
(1.00834 -0.00695601 4.22754e-22)
(1.01355 0.0160222 -1.29456e-22)
(1.01551 -0.00637362 0)
(1.01546 -0.00590148 4.39857e-22)
(0.998729 -0.000622637 -4.43288e-24)
(1.12179 0.032856 -8.11328e-21)
(1.01797 0.0277054 -7.46275e-22)
(1.01278 -0.000253636 3.13056e-22)
(1.02859 0.0342478 0)
(0.988917 -0.0249271 1.91412e-22)
(0.999139 -5.87259e-06 1.33838e-24)
(0.780266 0.502433 2.23349e-20)
(1.0146 0.000811373 -2.26908e-22)
(0.612449 0.482286 4.13922e-20)
(1.02294 -0.0809169 2.06084e-21)
(1.01518 0.00043717 0)
(0.855968 -0.0917404 -1.00242e-21)
(0.972613 -0.0714218 0)
(1.03823 0.0159713 0)
(1.02008 -0.00881729 0)
(0.989931 -0.0284816 0)
(0.999335 -1.09636e-05 0)
(1.01435 0.00174616 3.31357e-26)
(1.04699 0.0332622 2.15028e-22)
(1.00907 -0.00539313 -6.90534e-23)
(0.714758 0.36445 -1.41163e-22)
(1.03559 -0.0469349 -6.81472e-22)
(1.00581 -0.0230858 -1.79798e-22)
(1.04422 0.00560053 0)
(1.0178 0.00287561 7.85744e-23)
(0.999185 -0.000102347 -9.27777e-24)
(1.01511 0.000334568 0)
(1.01799 0.00305853 -1.34042e-22)
(1.00454 0.0079766 1.42084e-22)
(1.01632 -0.00201807 -7.64635e-22)
(1.01483 0.000406113 0)
(1.01398 0.000144178 1.05218e-22)
(1.01455 -0.000205607 0)
(1.01447 0.000821731 3.52709e-22)
(1.00185 -0.00102694 1.49066e-22)
(1.01444 0.00178311 -8.24421e-24)
(1.02005 -0.0194472 6.71973e-22)
(1.01624 -0.000450185 0)
(1.00705 -0.00754025 4.21567e-22)
(1.00232 -0.00818578 0)
(1.00188 -0.00881668 2.62548e-22)
(0.998136 0.000408411 2.41992e-25)
(1.00733 -0.00762053 3.86344e-22)
(1.01181 -0.00827681 7.09858e-24)
(0.906782 -0.294046 4.25589e-21)
(0.790294 0.0966665 -2.0782e-22)
(0.99927 -0.00013028 2.65452e-23)
(0.79079 0.082193 -1.26601e-22)
(0.735316 -0.0931105 -1.15276e-20)
(1.01193 -0.0079127 7.0087e-24)
(0.999176 -2.22048e-05 8.46541e-24)
(1.00075 -0.000255264 0)
(1.01907 -0.0177825 8.37541e-22)
(1.00775 -0.00724822 -3.57126e-22)
(1.01627 -0.000438183 0)
(1.01593 -0.000261605 0)
(1.02556 -0.00962758 -1.27089e-21)
(1.00124 -0.00566073 -1.06187e-22)
(0.951849 -0.112107 0)
(0.997977 0.000420997 5.28923e-25)
(0.662991 0.236347 -1.86263e-22)
(1.00272 -0.025889 8.90041e-23)
(0.987542 -0.0231371 -7.58093e-22)
(1.00117 -0.0063226 1.23612e-22)
(1.0153 0.0100876 7.9591e-22)
(1.02931 -0.00300363 9.51429e-22)
(0.899915 0.0512577 6.68272e-21)
(0.998 0.000532447 -1.44032e-24)
(0.903494 0.0110107 -6.14031e-21)
(1.01064 -0.00540416 0)
(0.961144 -0.0871784 1.90292e-21)
(1.01497 0.000299607 0)
(0.999196 -0.000497064 0)
(1.01884 0.00381152 -6.97225e-23)
(1.00833 -0.0370429 -9.11488e-22)
(1.18223 0.188049 0)
(1.01829 -0.0132583 -1.54284e-22)
(1.00807 -0.00734015 -4.04457e-22)
(1.02246 -0.0194923 1.26126e-21)
(0.684571 0.0502457 0)
(1.02099 0.00247073 0)
(1.07774 -0.0578628 -1.62191e-21)
(1.01912 0.0036144 3.76181e-23)
(1.01453 0.00227667 0)
(1.00149 -0.00587857 -1.49975e-22)
(1.01135 -0.00592929 0)
(1.01397 0.000700449 0)
(1.03159 -0.168126 0)
(0.756963 0.476748 1.29685e-20)
(0.929956 -0.213659 3.13862e-21)
(1.00918 -0.0356086 4.67996e-22)
(0.91635 -0.0473167 -2.22831e-21)
(1.02175 0.010094 3.54673e-22)
(0.735834 -0.0539312 0)
(1.0017 -0.000862064 -2.77439e-22)
(1.01602 -0.00181664 1.23328e-21)
(0.911751 -0.130369 0)
(0.563751 0.588568 -1.96365e-20)
(1.01728 0.00271987 -2.55567e-23)
(1.01481 0.000290422 3.37515e-22)
(0.998794 -0.00059737 1.4897e-25)
(0.630398 0.274718 -1.15332e-20)
(1.00384 -0.00759156 0)
(1.10268 0.0344738 -6.65735e-22)
(1.00728 -0.0115102 0)
(0.997434 -0.0433117 3.99089e-21)
(1.03451 -0.143345 0)
(1.05073 -0.217787 0)
(1.01163 -0.00199504 0)
(0.914024 -0.0439117 -2.1267e-21)
(1.00069 -0.000219901 -2.08607e-22)
(1.0109 0.00828198 -2.51622e-22)
(0.74801 0.0483902 -3.15876e-22)
(0.99882 -0.000636656 -1.37295e-24)
(0.676415 -0.216396 -5.6018e-20)
(0.95114 -0.0721189 -7.63803e-22)
(1.01444 0.00112204 -9.48827e-24)
(1.00981 -0.0060254 -2.95922e-23)
(1.01389 0.000631995 3.63179e-23)
(1.00805 -0.0200878 2.46903e-22)
(0.93054 -0.112056 0)
(1.03818 0.0331478 6.94357e-22)
(1.01258 -0.00736159 0)
(0.955859 -0.0759134 7.80813e-21)
(1.02191 -0.0657573 0)
(0.999074 -0.000546199 0)
(0.999113 -0.000517 -1.68779e-24)
(1.01889 -0.0141301 6.24346e-22)
(1.0014 -0.000606951 0)
(1.03473 -0.0530007 0)
(0.743694 -0.246694 3.72977e-20)
(1.01436 0.000850281 -1.5114e-22)
(1.02623 -0.0027389 4.23377e-22)
(0.620898 0.581159 2.91477e-20)
(1.02092 0.0157862 -7.50045e-22)
(1.09829 0.0255375 0)
(1.00293 -0.00824728 -3.64954e-22)
(1.02437 -0.00421501 -9.39319e-22)
(0.790525 -0.079988 6.54153e-21)
(1.02455 -0.00220285 3.81413e-22)
(1.01139 -0.00830265 3.64068e-22)
(1.01608 -0.000217518 -2.69486e-22)
(1.01687 -0.0172821 -7.4163e-22)
(1.01134 -0.00861258 -6.9075e-22)
(1.00695 -0.000462912 4.96849e-22)
(1.00755 0.00587576 -8.33489e-22)
(1.00546 -0.0228706 0)
(1.01812 -0.0776628 -2.51533e-21)
(1.03525 -0.0497141 -6.2261e-22)
(1.02232 -0.00331732 9.99652e-22)
(0.984866 0.0122213 2.57001e-21)
(1.02842 -0.000981519 0)
(1.00434 -0.0241886 0)
(1.05906 0.0127025 0)
(1.00457 -0.00740005 -8.23688e-24)
(0.941973 -0.089902 0)
(1.02543 -0.00204238 -4.41616e-22)
(1.01286 -0.0795145 5.48826e-22)
(1.00304 -0.000286673 3.49722e-23)
(0.987417 -0.0257104 5.32929e-21)
(0.99897 -0.000589528 0)
(0.998996 -0.000620287 0)
(0.994397 -0.0427837 3.11127e-21)
(0.905803 -0.162183 0)
(1.02066 0.0241325 5.25857e-22)
(1.00488 -0.00750776 0)
(1.0023 -0.00467747 -1.73162e-22)
(0.970745 -0.0041581 -3.16465e-21)
(1.01455 0.000862142 0)
(0.997743 0.00112692 0)
(0.997844 0.00104748 3.78387e-25)
(1.01744 0.00291097 5.18073e-23)
(0.683662 0.480693 -1.3535e-20)
(1.01425 0.000231926 0)
(1.03631 -0.0482916 5.99465e-22)
(1.0162 -0.0155589 -1.61932e-22)
(0.999066 -0.00059796 0)
(1.01102 -0.000279791 1.31503e-21)
(1.01371 -0.000632393 2.94152e-22)
(1.03668 -0.0459216 -1.31127e-21)
(1.01439 0.00124497 9.75915e-23)
(1.00781 0.00685317 -1.62872e-21)
(0.993856 -0.025254 -2.22644e-21)
(1.01591 -0.000273214 2.75011e-22)
(1.01466 0.000435489 -2.48057e-22)
(1.01446 0.000833468 -4.69872e-23)
(0.838755 -0.0965836 3.22386e-21)
(1.02846 0.0271234 5.83059e-22)
(1.01238 -0.000189845 2.65419e-22)
(0.999472 -0.000176794 -3.35907e-23)
(1.00541 0.0105463 -4.2586e-23)
(1.00536 -0.00461271 1.59531e-22)
(0.992735 -0.0264437 -2.24286e-21)
(1.01489 0.000493617 -4.37787e-24)
(1.08074 -0.254265 1.89158e-20)
(1.01242 -0.00778317 1.3178e-23)
(0.69757 0.163983 0)
(0.868763 0.0282964 1.78531e-22)
(1.01075 -4.84711e-05 1.79008e-22)
(1.01371 -0.000332596 -5.8858e-22)
(1.00604 -0.00764163 1.05313e-22)
(0.967423 -0.00484004 7.44473e-21)
(0.988415 -0.0133658 -2.82296e-21)
(1.01404 -0.0131558 -1.94493e-23)
(0.689223 0.145613 0)
(1.01341 -5.72138e-05 -1.62674e-23)
(1.00583 -0.00747071 -2.90256e-22)
(0.986577 -0.0131007 2.90855e-21)
(1.00708 0.0116025 0)
(1.0107 0.0033967 0)
(1.02564 0.0180866 3.42755e-22)
(1.00645 -0.0206741 1.94348e-22)
(1.02177 -0.00761376 5.91983e-22)
(0.976434 -0.00702798 -2.94956e-21)
(1.00769 -0.0126542 7.75269e-23)
(1.02031 -0.00502052 4.46918e-22)
(0.997844 0.000370731 -1.91014e-24)
(0.929162 -0.0401272 0)
(0.997909 0.000189709 2.46641e-25)
(0.998896 -0.000637589 -5.2099e-24)
(1.18876 0.151466 0)
(1.00322 -0.00388488 -9.53976e-22)
(0.66452 -0.079606 -1.29329e-20)
(0.967341 -0.0757752 -3.27317e-21)
(1.00151 -0.00501487 4.0411e-23)
(1.02416 -0.0196067 -2.44849e-21)
(0.963002 -0.0726417 5.32003e-21)
(1.01366 0.0132885 0)
(1.08569 0.0270211 0)
(1.03608 -0.0774467 0)
(1.01619 3.38256e-05 6.08994e-22)
(1.01564 -0.000173825 5.78691e-22)
(1.01591 -0.00134922 -3.92883e-22)
(1.00653 -0.000738211 0)
(1.02781 -0.00919874 0)
(0.920484 -0.0541635 5.88592e-21)
(1.01963 0.00388132 -3.85714e-23)
(1.02027 -0.00443773 -4.94359e-22)
(1.09577 -0.292122 -1.1386e-20)
(1.01829 0.0152933 5.43844e-22)
(1.00172 -0.00684582 -1.28449e-22)
(0.998913 -0.0005954 5.69056e-24)
(0.998536 0.00194513 -7.30125e-22)
(1.01611 -6.54466e-06 -5.10511e-22)
(0.915321 -0.0523912 0)
(1.00729 -0.00511834 4.59898e-22)
(1.0137 0.00193964 0)
(1.01012 0.0103106 1.34349e-21)
(1.01631 0.0172752 -3.79981e-22)
(0.79464 0.184411 0)
(1.01224 -0.00118691 -1.37871e-23)
(0.942683 0.0654142 0)
(0.999143 -0.00052319 1.83434e-24)
(1.00928 -0.055592 0)
(0.937542 -0.163235 1.72841e-20)
(1.07884 -0.0684247 0)
(1.00943 -0.0574192 1.89165e-21)
(0.999466 0.00318835 5.83258e-22)
(0.99953 0.00926669 1.83169e-22)
(0.919854 -0.0377929 8.43811e-21)
(1.01132 -0.000483759 0)
(0.955469 -0.094497 0)
(1.02649 0.0152269 -3.45866e-22)
(1.00126 -0.00052383 8.00235e-23)
(0.87767 0.00808498 0)
(1.0821 0.0204152 0)
(0.936901 -0.0356624 6.54565e-21)
(1.01378 0.00178092 -2.79477e-23)
(1.03593 -0.054655 -1.66739e-22)
(0.643382 0.0970764 0)
(1.04471 -0.0259636 1.98881e-21)
(1.0202 0.00197189 -7.28601e-23)
(0.80502 -0.0694672 0)
(1.01504 -0.031378 8.15724e-23)
(0.998059 0.000363278 0)
(0.984982 0.00909712 1.83551e-21)
(1.01313 -0.00131384 5.39115e-23)
(0.73855 0.108408 -3.21327e-21)
(1.01496 0.000417107 0)
(1.00092 -0.0028204 -1.1836e-21)
(1.00136 -0.000188903 -3.5748e-22)
(1.01308 -0.000326005 -3.40399e-22)
(1.00139 -0.00696173 2.42038e-22)
(1.01273 -0.00164868 -5.29678e-23)
(0.988139 0.00793559 -3.23364e-21)
(0.813151 0.164072 0)
(1.0123 -0.0047161 1.15218e-22)
(1.17008 -0.571875 -4.16299e-20)
(1.03887 -0.0192902 1.14094e-21)
(0.922946 -0.038597 0)
(1.02505 -0.063684 0)
(0.998032 9.87538e-05 6.76778e-25)
(1.0113 -0.00100748 -1.86616e-22)
(1.01605 -0.00125471 0)
(0.881091 -0.0833917 0)
(1.03845 -0.0262792 5.23245e-22)
(1.00324 -0.00846306 -2.66114e-23)
(1.01809 -0.00738493 -2.687e-22)
(0.975842 -0.310063 4.61582e-20)
(1.00205 -0.00453935 0)
(0.656551 0.354815 2.53233e-20)
(1.02719 -0.00254259 5.37461e-22)
(0.988375 0.00526404 -9.96558e-22)
(1.00209 -0.00428137 0)
(0.988988 -0.0449375 -3.58042e-21)
(1.01988 0.00361991 4.48451e-23)
(1.01459 -0.0330164 0)
(0.670627 0.41418 0)
(1.00415 -0.00772219 -2.82066e-22)
(1.01261 0.00313101 -5.08565e-22)
(0.999715 -0.0266097 -1.14883e-21)
(1.00618 -0.0055518 -1.66337e-22)
(1.00274 -0.0288636 0)
(1.02456 0.0132391 0)
(1.01859 0.0254522 2.22515e-22)
(1.00226 -0.0090911 1.67694e-22)
(0.889662 -0.0723363 -3.00906e-21)
(1.01437 0.000260146 -8.31323e-23)
(1.01019 0.00356771 0)
(1.0323 -0.0806973 -2.21557e-21)
(1.01391 -0.00142284 -2.2838e-22)
(1.06046 0.00768373 1.46232e-21)
(1.00409 -0.00499539 8.20737e-22)
(1.00126 -0.00536923 1.22585e-22)
(1.00623 -0.0388703 6.1376e-22)
(1.01602 -0.000345602 0)
(1.01017 0.00446842 -1.25747e-21)
(1.00172 -0.00351746 1.44418e-22)
(0.992052 0.000335334 8.60499e-22)
(1.00194 -0.00835914 -1.33263e-22)
(0.990501 -0.00123378 -1.3257e-21)
(1.01376 0.0091882 0)
(0.998953 -0.110401 -3.77529e-21)
(1.01357 7.3985e-05 -3.93617e-22)
(1.01553 0.0122136 -3.89155e-22)
(1.01224 -0.000151209 0)
(1.01192 -0.00423267 -5.20143e-23)
(0.727723 -0.00868132 3.15648e-21)
(1.02353 0.00967775 0)
(0.925507 -0.152914 0)
(1.00148 -0.00621389 1.33081e-22)
(1.03019 -0.00355793 0)
(1.0018 -0.00418198 9.84247e-22)
(0.963109 -0.281228 -1.43739e-20)
(1.19185 0.0661699 -3.89441e-22)
(0.985397 -0.180196 4.7081e-21)
(1.02229 -0.127504 5.84667e-21)
(1.03622 0.038041 -6.49648e-22)
(1.01469 0.0012307 0)
(0.917065 0.0780471 4.79333e-21)
(1.00378 -0.0383196 0)
(0.988352 -0.0413621 0)
(0.997992 0.0014261 -7.96421e-25)
(0.976805 -0.0111847 1.01452e-23)
(1.01373 -2.16424e-05 -9.63658e-23)
(1.00509 -0.0234207 1.43882e-21)
(1.03443 -0.0568971 3.48271e-22)
(1.01428 0.00184979 -3.25264e-23)
(1.03165 0.0198358 5.4352e-22)
(1.01444 0.00208053 6.66225e-23)
(1.01498 -0.00664917 0)
(1.00944 -0.000240104 -3.17841e-22)
(0.608164 0.564613 -1.54322e-22)
(1.01241 -0.033283 0)
(0.76643 0.0672795 -2.6893e-21)
(1.01487 -0.00720368 0)
(0.964238 -0.00117312 -5.25008e-21)
(0.999226 -0.000477695 0)
(1.00654 -0.000479239 -4.0591e-22)
(1.00017 2.06312e-05 -9.74718e-23)
(1.03192 0.0161453 -9.89794e-22)
(0.921726 0.0895379 0)
(1.01217 0.00973175 0)
(1.00749 -0.0218059 -9.26112e-22)
(1.0014 -0.00411449 -1.16412e-23)
(1.01558 0.000294754 0)
(1.06575 0.000198353 5.41865e-22)
(0.993236 -0.0286658 -7.72294e-23)
(1.01578 -0.000290745 0)
(1.01465 0.00117087 3.18834e-23)
(0.846212 0.0275189 -1.81559e-22)
(1.07187 0.021149 -3.29967e-21)
(1.00806 -0.00589632 6.98153e-22)
(0.80878 -0.189449 -2.96778e-21)
(1.00297 -0.126479 -6.15806e-21)
(1.00154 -0.000261199 4.08514e-22)
(1.00221 -0.000124084 1.38681e-22)
(0.999332 -0.00301417 2.51078e-21)
(1.06616 0.00572182 -5.31714e-22)
(1.00961 0.00463805 3.09758e-22)
(1.01465 2.99666e-05 2.28387e-22)
(1.01413 4.26244e-05 2.46697e-23)
(1.02105 0.011515 0)
(1.02952 -0.00145831 5.3255e-22)
(1.02306 -0.00339013 -1.38306e-21)
(0.998215 0.000377035 -5.82539e-25)
(1.01226 -0.0858734 2.73511e-21)
(1.00098 -0.00029871 7.68201e-23)
(0.676867 0.01714 -7.51803e-21)
(0.956546 -0.0221031 -4.55358e-21)
(1.01007 -0.00774504 6.46034e-22)
(1.02494 0.0275544 2.49051e-22)
(1.03913 0.00899632 0)
(0.861573 0.472204 -1.29874e-20)
(1.01428 -0.0148 1.92527e-22)
(0.562182 0.495413 2.28925e-20)
(1.00151 -0.0052771 0)
(1.02484 -0.00357337 -9.80995e-22)
(1.02256 -0.0705147 0)
(1.01466 0.00226652 5.52844e-24)
(1.01684 -0.0484795 -1.21766e-21)
(0.89836 0.0114528 0)
(0.973091 -0.00776712 3.51605e-21)
(1.00975 -0.00765774 2.94468e-22)
(1.22281 -0.494665 5.95967e-21)
(1.06914 0.016121 3.50355e-21)
(1.02061 -0.00236844 0)
(1.02716 -0.00850105 7.43284e-22)
(1.04222 -0.0502446 1.72196e-22)
(1.01665 -0.00352868 2.55421e-22)
(1.02012 -0.00256633 2.30055e-22)
(1.01458 0.000523891 -5.76619e-23)
(1.01682 -0.00332143 6.52138e-22)
(0.838073 -0.112611 -9.84627e-21)
(1.03614 -0.0512018 0)
(0.958739 -0.0202445 0)
(1.03058 0.030486 0)
(1.0259 -0.00805506 -1.55392e-21)
(1.021 -0.00620775 1.06533e-21)
(1.01342 -0.000259868 -7.89654e-25)
(0.999432 -0.000283629 0)
(1.01461 0.00043343 9.31944e-23)
(0.976187 0.393058 -1.3342e-20)
(1.08892 -0.0723208 0)
(1.00226 -0.0049532 1.78533e-22)
(0.994826 -0.00253525 3.2769e-23)
(0.869191 -0.0933157 0)
(1.0192 0.00890346 0)
(0.998744 -0.0154675 -3.14076e-23)
(0.934297 0.060466 0)
(0.999335 -0.000249103 0)
(1.03545 -0.0720796 0)
(0.717225 0.0980047 5.803e-21)
(1.01447 0.000976845 1.44056e-22)
(1.06023 9.15482e-05 5.63535e-22)
(0.999082 -0.000626466 0)
(0.577988 0.537891 -7.42891e-20)
(0.99686 -0.0249147 1.56503e-22)
(0.91241 0.0313435 3.82322e-21)
(1.02043 0.00235932 1.64472e-22)
(1.02349 -0.00407425 1.40685e-21)
(1.02608 -0.014612 -1.47915e-21)
(0.997594 0.0015657 0)
(0.997645 0.00770551 -9.05491e-23)
(0.79896 -0.151598 0)
(0.795149 -0.0622661 -2.19971e-21)
(0.77954 -0.339348 4.31963e-21)
(1.0165 -0.0502776 1.10622e-21)
(0.555661 0.425716 2.74843e-20)
(0.985019 -0.0401856 3.48688e-21)
(1.0076 -0.000109953 -1.04497e-21)
(1.02187 -0.0420022 2.0448e-22)
(0.996442 -0.000343789 -4.96246e-23)
(0.950168 -0.0429843 -1.00877e-21)
(1.01104 0.000337667 -7.98118e-22)
(0.988733 -0.0893308 0)
(1.00061 -0.00295008 -2.26575e-23)
(0.992035 -0.0139185 7.32478e-23)
(1.01211 -0.000285713 -3.93056e-22)
(1.0201 -0.00914035 -1.4096e-21)
(1.02102 -0.00549722 -5.32858e-22)
(1.085 0.00305822 0)
(1.00087 -0.00342783 -1.22822e-22)
(1.00298 -0.000553614 2.12183e-22)
(1.01483 -0.0132629 0)
(1.0042 -0.0130098 9.60187e-22)
(1.0119 -0.0351199 0)
(1.02095 0.00324847 3.41577e-23)
(1.01501 0.00217933 0)
(1.01871 0.00810398 -3.43315e-22)
(1.01908 0.00747155 4.88738e-24)
(0.974467 -0.0554787 -8.90986e-22)
(1.01695 3.08807e-05 5.85566e-22)
(0.975056 -0.00892081 0)
(0.781558 0.0543801 -1.79091e-20)
(1.01691 1.18993e-05 -4.92871e-23)
(1.01249 -0.000299217 -1.15515e-21)
(0.961038 -0.00199381 2.18837e-21)
(1.0174 -0.00746182 2.67741e-22)
(1.01449 0.00194077 0)
(1.00737 0.00897864 -1.58286e-21)
(1.04811 -0.0241448 2.74604e-21)
(0.998428 -0.0260468 2.90853e-21)
(1.02057 -0.0125459 4.84831e-22)
(1.00513 -0.0137992 -4.73875e-22)
(1.01795 -0.00206041 1.03399e-22)
(1.04079 0.0126457 0)
(1.00129 0.00289257 0)
(1.00192 -0.0239018 0)
(1.00837 0.0115985 1.66453e-21)
(0.996774 0.00177433 9.37062e-22)
(0.993246 -0.179335 -3.9377e-21)
(1.01579 0.00670795 5.101e-22)
(0.900677 -0.0772693 0)
(1.01763 -0.0293925 0)
(1.01427 -0.000243495 -8.91335e-23)
(1.01491 0.00222758 8.76878e-25)
(1.01658 0.000797329 3.4844e-22)
(1.00385 0.0197639 2.59138e-22)
(0.999681 0.020179 -3.81474e-22)
(1.02425 -0.00284722 0)
(1.01143 -0.0113059 0)
(0.999218 -0.000428276 0)
(1.02184 -0.00674973 1.4391e-22)
(1.01106 -0.0112983 4.0574e-22)
(1.01543 0.000900727 0)
(0.987919 0.0171258 -2.0716e-21)
(1.00162 -0.00116533 1.82151e-22)
(1.01932 -0.00943874 5.75539e-22)
(1.00704 -0.000355353 2.81332e-22)
(1.01359 -0.00168259 0)
(0.990877 0.0182971 0)
(1.02068 -0.0132436 5.81557e-22)
(1.02177 -0.0440351 -2.68719e-22)
(1.01158 -4.40415e-05 6.87699e-22)
(1.02178 -0.00191272 4.61075e-22)
(1.01478 0.00207338 -9.03736e-25)
(1.01915 -0.001767 -6.49517e-22)
(0.999532 -0.00274658 4.2298e-24)
(1.00077 -0.000201321 0)
(0.999487 -0.00291992 1.21433e-22)
(1.01969 -0.00404573 -4.4101e-22)
(1.01541 0.00649407 3.11054e-22)
(1.00071 -0.00328993 0)
(0.99623 -0.0497184 3.3024e-21)
(1.01149 -0.000969403 5.16741e-22)
(1.01173 -0.000241609 -9.82899e-22)
(1.01431 0.00153516 -4.9327e-23)
(0.998231 -0.08548 2.98064e-21)
(1.01737 0.000571592 1.42517e-22)
(1.00186 -0.00414574 0)
(1.03528 -0.0643544 1.95449e-21)
(0.999132 -0.000627484 -1.67732e-23)
(1.03954 0.00181186 9.7319e-22)
(1.09686 0.0129236 -4.70774e-21)
(1.02588 -0.0212127 6.85297e-22)
(1.01428 -0.000178892 6.19556e-24)
(1.00017 1.93327e-07 5.31575e-23)
(1.06592 -0.0511246 0)
(1.0164 0.000649007 -3.54534e-22)
(1.03586 -0.0591258 0)
(0.750622 -0.30414 -4.50356e-21)
(0.92551 0.0289387 -4.76833e-22)
(0.957477 -0.116362 -1.32321e-20)
(1.03766 0.00251212 -7.88473e-22)
(1.01416 0.00162831 2.56553e-23)
(0.975109 -0.0194322 1.95276e-22)
(1.01618 -0.0162935 -1.08137e-21)
(1.00168 -0.00375796 0)
(0.998066 0.000202183 9.96516e-25)
(0.985459 -0.101619 0)
(0.862749 -0.126057 -4.93406e-21)
(1.01468 0.0020935 0)
(1.04366 -0.0505042 0)
(1.0142 0.00151934 -1.50156e-23)
(1.01435 0.00159643 4.28487e-23)
(0.636917 0.511996 -4.48206e-20)
(1.01531 0.00090894 0)
(0.903797 -0.046666 -5.64567e-22)
(1.00849 -0.0122143 0)
(1.0062 -0.0870707 2.98301e-21)
(1.0212 -0.00193878 -3.42319e-22)
(0.995705 -0.0122928 2.00287e-21)
(1.00233 0.00393613 0)
(1.06804 0.0104225 0)
(0.547823 0.0020354 2.45805e-21)
(1.02819 -0.00342871 -1.56974e-21)
(1.00856 -0.0120041 -1.6369e-22)
(1.0264 -0.0333419 -2.5481e-24)
(1.01967 -0.0035802 -1.07081e-22)
(1.06194 0.0165109 0)
(1.03383 -0.0618182 -7.86853e-23)
(1.26523 -0.0196485 -1.02275e-20)
(1.02044 0.00167297 -1.42393e-22)
(0.997903 -0.0145768 -1.35746e-23)
(1.01702 -0.0165307 4.54211e-22)
(0.93603 -0.00716582 -3.16462e-22)
(0.998192 -0.0135465 1.40447e-23)
(0.830544 -0.0440046 1.34869e-22)
(0.994104 -0.00600666 -2.43511e-22)
(1.03345 -0.0038395 0)
(1.06185 0.087421 0)
(0.738074 0.165146 -3.88074e-21)
(1.01758 0.000613437 0)
(1.01565 0.00101597 0)
(1.01032 -0.000112108 6.554e-22)
(1.04139 -0.00323876 0)
(1.0011 -0.00334247 1.01808e-22)
(0.577104 0.588448 1.96012e-20)
(1.00153 -0.00338058 -1.37915e-22)
(0.975953 -0.00929752 -9.06986e-23)
(1.02315 -0.0185215 0)
(1.01084 -0.0239713 -3.2368e-22)
(1.02648 -0.0725312 -1.76561e-21)
(1.01343 -0.000673916 2.38244e-24)
(0.996368 -0.16545 -3.99635e-21)
(0.926438 -0.155108 0)
(1.00926 -0.0043138 -3.17561e-22)
(0.807088 0.0824661 4.36739e-21)
(1.05316 0.0812637 5.68961e-22)
(1.05105 -0.0511537 -4.54918e-22)
(1.00127 -0.00348446 -1.10595e-22)
(0.999148 -0.000598 2.08154e-24)
(0.894612 -0.043197 -1.0514e-21)
(1.02417 0.00900785 0)
(0.536982 0.0383794 -5.22822e-21)
(1.0163 -0.000426698 0)
(0.999805 -0.00104963 -3.09466e-22)
(1.01906 -0.00545529 5.40132e-22)
(0.99848 -0.0274617 -6.37669e-24)
(0.893463 -0.0231795 7.28123e-22)
(1.03315 -0.00540883 -9.09512e-22)
(1.32528 -0.12317 -1.27148e-19)
(1.01409 0.000133689 1.12272e-23)
(1.01541 -0.0142109 3.14793e-23)
(1.01206 -0.0529638 0)
(0.856536 0.168583 0)
(0.907262 0.0253624 0)
(0.999183 -0.00249626 0)
(1.01927 -0.00601262 2.62645e-22)
(1.0016 -0.00425862 1.71435e-23)
(0.910771 0.0298068 -1.84229e-22)
(1.05939 -0.327402 2.82161e-20)
(1.01281 -1.28177e-05 0)
(1.04485 0.0558099 -6.68831e-22)
(0.998564 -0.0167361 5.29683e-23)
(1.00143 -0.0038671 -1.36359e-22)
(1.01884 -0.000115498 -4.51777e-22)
(1.00249 0.00736898 -8.26961e-23)
(0.914779 -0.051583 0)
(1.04452 -0.0392688 0)
(1.02515 0.0109994 0)
(1.0066 -0.000844332 0)
(1.0156 -0.000101023 2.19499e-22)
(0.920672 -0.0873629 7.17099e-21)
(0.873791 -0.111313 0)
(0.996438 -0.00850447 0)
(1.01963 -0.00194835 2.16486e-22)
(1.0167 -0.000409563 0)
(1.00011 -0.079351 8.71762e-22)
(1.01554 0.00103462 0)
(0.854721 0.0555412 -3.99296e-21)
(0.998096 -0.0632474 0)
(0.973352 -0.0090718 5.92527e-23)
(0.98575 -0.0231409 -9.74696e-23)
(0.997768 -0.00298756 -4.32923e-23)
(1.01669 -0.00226745 -3.90435e-22)
(1.0138 -0.000986385 4.63284e-22)
(1.01122 -0.0207983 -1.02938e-22)
(1.01489 -0.0114388 -1.13912e-23)
(1.00079 -0.0251759 -1.64621e-21)
(1.01501 0.000634184 -3.01365e-23)
(1.04386 -0.052424 -2.23069e-22)
(0.971441 -0.0182143 3.61352e-23)
(1.01674 -0.00531325 0)
(0.918178 -0.126193 6.06856e-21)
(1.0157 5.10392e-05 -2.43414e-22)
(0.842899 -0.00301124 0)
(1.01615 -0.00426646 0)
(0.97957 -0.0163684 -4.33864e-23)
(0.982015 0.0258083 -5.43846e-21)
(1.04796 -0.0193946 2.2968e-21)
(1.02221 0.00167616 2.02226e-22)
(0.998352 -0.0023271 5.63993e-23)
(0.997971 -0.0105659 7.95478e-24)
(0.959277 0.00445981 0)
(0.746864 0.178746 4.81176e-21)
(1.01729 0.0100633 -7.09146e-22)
(0.982011 -0.0427646 5.04249e-22)
(1.01683 -0.0139107 -1.00685e-21)
(0.995407 0.00261396 1.76396e-21)
(0.994626 -0.0130036 2.07325e-21)
(1.21598 0.109169 0)
(1.01082 3.33455e-06 -6.79787e-23)
(1.05229 -0.0547223 0)
(1.01683 -0.00212066 -3.92384e-22)
(1.02773 -0.0343917 1.81118e-21)
(1.02734 -0.00147998 0)
(1.00164 -0.00106183 0)
(1.00767 -0.000447366 -3.22272e-22)
(1.01673 -0.000393223 -4.43363e-22)
(0.844097 -0.282551 7.52087e-21)
(1.01591 0.00112364 0)
(0.996877 -0.00496706 -6.79606e-22)
(1.01258 -5.0859e-05 0)
(0.999427 -9.99278e-05 5.93306e-23)
(1.00077 -0.00307558 2.68164e-23)
(0.958082 -0.0581298 6.09352e-21)
(1.00475 -0.00049556 0)
(1.02075 -0.0106173 0)
(1.01682 -0.00266356 7.82811e-22)
(1.01914 -2.87582e-06 6.47197e-22)
(0.97563 0.0106681 0)
(1.01707 0.000609734 2.02683e-22)
(0.776948 0.375383 2.08554e-24)
(1.01694 -0.00578043 0)
(0.997654 -0.0127146 -6.79286e-23)
(1.0071 -0.000883004 0)
(0.927661 -0.0424108 -6.67766e-22)
(1.00253 -0.000394965 -1.2016e-22)
(0.912333 0.303739 -3.29445e-20)
(1.01063 0.00920806 -1.38725e-21)
(1.02405 0.0101095 -4.29961e-23)
(1.01664 -0.000487881 4.81426e-22)
(0.963132 -0.0058577 4.21101e-23)
(0.969668 0.0174408 0)
(0.848111 -0.038264 -2.47577e-21)
(1.07904 -0.231594 0)
(1.00405 -0.0703314 -7.43402e-22)
(1.02525 0.00845496 -1.20592e-22)
(1.01042 -0.0193725 5.48496e-23)
(0.997515 0.00144532 -5.25379e-24)
(1.00018 -0.00327262 1.71355e-22)
(0.932744 -0.0368103 0)
(0.954606 -0.0586361 -4.75715e-22)
(0.953613 -0.055145 -6.96792e-22)
(0.976763 -0.127861 5.96926e-21)
(0.996614 -0.00144566 0)
(0.969305 0.00540791 -2.79088e-23)
(1.06967 -0.0090016 0)
(0.981214 -0.00322394 -5.1963e-22)
(0.997734 0.0015455 1.62013e-25)
(0.998626 -0.00467117 7.05563e-22)
(1.01047 0.000307994 2.9676e-22)
(0.96454 0.0138678 -8.57088e-23)
(1.08136 -0.19498 -8.6746e-21)
(1.01061 -8.47797e-06 6.06809e-23)
(0.987777 0.0137218 -6.66625e-23)
(1.01503 0.000712805 -1.05745e-24)
(1.00369 -0.0129603 4.47316e-22)
(1.03228 -0.0439782 0)
(1.00066 -0.000187723 -7.50864e-23)
(0.999425 -0.00261 -5.70856e-23)
(1.01541 -0.0123933 8.90664e-22)
(0.996347 -0.0117435 0)
(1.01447 -0.0529656 -9.32424e-22)
(1.02155 0.037983 -1.7146e-21)
(0.926651 0.00231269 0)
(1.01669 -0.000469052 0)
(0.999599 -0.00306372 6.51567e-23)
(0.990772 -0.0150889 0)
(0.788714 -0.166499 1.29654e-20)
(1.03517 -0.0437528 0)
(1.01338 4.47034e-05 -7.88468e-23)
(0.997 -0.00924179 9.44096e-23)
(1.02059 -0.00496302 1.10872e-21)
(1.00005 -0.00312632 -1.61071e-22)
(0.85459 -0.0661244 -1.69888e-21)
(1.00041 -0.0030124 3.71502e-24)
(0.998426 -0.0012868 0)
(0.960058 0.00724775 0)
(0.964361 -0.00114136 0)
(1.03591 -0.0008691 -1.44337e-21)
(0.857959 -0.0727503 -7.42924e-22)
(0.966823 -0.17731 -1.09607e-20)
(0.905089 0.42743 6.75524e-21)
(0.980966 -0.0310563 -4.75134e-22)
(1.24502 0.0754336 0)
(1.01423 3.583e-05 0)
(0.990477 -0.198473 0)
(1.00902 0.0103145 -1.79209e-21)
(1.0167 -0.00181851 8.61709e-23)
(1.01405 0.00393469 4.07485e-22)
(1.00484 -0.00048996 4.23188e-22)
(1.01678 -0.0144815 3.65791e-22)
(1.33091 -0.119415 3.72012e-20)
(1.03551 -0.0108153 0)
(0.840549 -0.0193128 -5.96416e-23)
(0.998522 -0.00257178 0)
(0.941118 -0.016958 3.21759e-21)
(1.0065 0.0101985 0)
(1.03381 -0.0447557 0)
(1.04896 -0.0112965 1.40236e-21)
(1.00909 0.00839675 2.56194e-22)
(1.00098 -0.0641569 2.45522e-21)
(0.998552 -0.00274564 0)
(0.999765 -0.00302905 0)
(0.985213 -0.101484 0)
(1.01296 -0.0181766 -1.58084e-22)
(0.999655 -0.0405089 -3.79077e-21)
(1.0342 -0.00865694 0)
(1.00249 -0.00541513 0)
(1.00162 -0.0030048 -1.07168e-22)
(0.70986 0.115246 1.85799e-21)
(0.997887 -0.00206166 1.52694e-23)
(0.999197 -0.000472566 0)
(0.999314 -0.000421431 0)
(1.00032 -0.00593419 -8.42764e-23)
(1.04478 0.00181671 -1.95218e-21)
(0.957076 -0.0508528 -4.00279e-21)
(0.9936 -0.101989 -6.94576e-21)
(0.975717 -0.0323848 0)
(0.992109 -0.0458021 3.79412e-21)
(0.943197 -0.0710482 -1.27081e-22)
(1.03747 -0.00456217 -1.22328e-21)
(0.965723 0.0468057 3.84902e-21)
(1.0456 0.0631276 0)
(1.00866 -0.0219029 -6.44294e-23)
(0.965355 -0.125528 -1.98604e-21)
(1.02196 0.00212723 -1.9456e-23)
(1.02193 -0.00278368 -6.88247e-22)
(0.674922 0.140576 0)
(0.997794 -0.0524649 -4.48819e-21)
(1.26283 0.0926164 -2.1589e-20)
(1.02085 0.00102721 -2.39395e-23)
(0.933441 0.0168182 1.02175e-21)
(0.901399 0.0246417 1.8686e-22)
(1.01086 8.36115e-05 -9.73975e-23)
(1.03167 -0.0507607 0)
(1.02263 -0.0213689 0)
(0.95128 -0.0362758 -3.33969e-21)
(1.01525 -0.000186054 -3.16795e-22)
(1.0163 -0.0281091 0)
(0.990411 -0.000157346 4.90855e-22)
(1.01019 0.0303286 -6.96101e-23)
(1.0212 0.00133175 9.54912e-24)
(0.997111 -0.00981461 -1.71219e-23)
(1.01085 0.01139 -7.59013e-22)
(1.01855 -0.00212115 4.12553e-22)
(1.02081 -0.00159677 4.16787e-22)
(1.10588 -0.219039 -4.69083e-22)
(1.01136 0.0138095 1.50621e-21)
(1.02828 -0.0292772 -2.09963e-21)
(0.862519 0.0935268 -3.45196e-22)
(1.02969 -0.0500501 -5.55636e-22)
(0.977958 0.0242542 5.50937e-21)
(0.978503 -0.0411088 -4.85501e-22)