/*--------------------------------*- C++ -*----------------------------------*\
| =========                 |                                                 |
| \\      /  F ield         | OpenFOAM: The Open Source CFD Toolbox           |
|  \\    /   O peration     | Version:  v2012                                 |
|   \\  /    A nd           | Website:  www.openfoam.com                      |
|    \\/     M anipulation  |                                                 |
\*---------------------------------------------------------------------------*/
FoamFile
{
    version     2.0;
    format      ascii;
    class       volScalarField;
    location    "500";
    object      k_0;
}
// * * * * * * * * * * * * * * * * * * * * * * * * * * * * * * * * * * * * * //

dimensions      [0 2 -2 0 0 0 0];


internalField   nonuniform List<scalar> 
9793
(
0.000622515
0.00473042
0.000324369
0.00014112
0.0225264
0.000156749
0.000152163
0.000139867
0.000146881
0.0280274
0.000177603
0.000261537
0.00014165
0.000149018
0.000162602
0.000145599
0.000160979
0.000178836
0.056671
0.000148636
0.000248751
0.00015492
0.000642077
0.000131276
0.000150137
0.000142721
0.000152093
0.000145487
0.000172213
0.000146826
0.000185273
0.000489001
0.00470259
0.000153546
0.000176261
0.000433255
0.000157689
0.000154917
0.00014113
0.000144305
0.000185264
0.00016303
0.000152695
0.00015326
0.00015293
0.000144698
0.000174649
0.00392218
0.000217916
0.000140841
0.000177512
0.000181436
0.000157305
0.000147713
0.00362645
0.00033001
0.000144546
0.000193441
0.0122911
0.000140953
0.000151865
0.000156761
0.0132716
0.000149673
0.0366025
0.00404324
0.0135645
0.010649
0.000254034
0.000177559
0.0031056
0.000144302
0.000143051
0.00286891
0.000181634
0.010546
0.000144584
0.000143186
0.000156309
0.000147648
0.00479258
0.00015363
0.00527901
0.000102616
0.000177912
0.00276597
0.0001506
0.000144669
0.000154714
0.000156363
0.00451559
0.0790953
0.000141349
0.000401336
0.000155654
0.000219905
0.000310164
0.00503707
0.00014026
0.000137712
0.000137371
0.000151665
0.000138602
0.000138145
0.000142311
0.000177052
0.000153993
0.000152097
0.000156002
0.00415598
0.000146047
0.000250924
0.000144194
0.000594506
0.00018115
0.000144655
0.00287518
0.000180398
0.000159673
0.00039739
0.00430097
0.000159044
0.000144064
0.000157903
0.000149384
0.000247306
0.000166202
0.00217991
0.000163132
0.000142749
0.00014991
0.000144732
0.000142828
0.000151915
0.0001465
0.000144765
0.000153006
0.000151501
0.000144113
0.000134172
0.000143918
0.000148749
0.000143473
0.000138412
0.000153392
0.000175443
0.00328822
0.000138591
0.00013953
0.0787912
0.00796538
0.000149685
0.0071854
0.0334698
0.000138867
0.000155056
0.000142743
0.000147818
0.000137818
0.000142982
0.000139977
0.000145433
0.000140863
0.0563155
0.00323015
0.000266811
0.00369868
0.000158257
0.000147967
0.000146588
0.000144956
0.00148808
0.00346419
0.00201045
0.000149
0.0569235
0.000144811
0.000130997
0.000143313
0.000158001
0.000631003
0.000150093
0.00013812
0.000148956
0.00613211
0.000142827
0.000198967
0.000143249
0.000143953
0.000141067
0.000149001
0.000143292
0.000194624
0.000251316
0.0105669
0.000157564
0.0377176
0.000145618
0.0265668
0.000135056
0.000146438
0.0410011
0.000358106
0.000142703
0.000144945
0.00013845
0.000303589
0.000139492
0.000170897
0.000150991
0.000161864
0.000386259
0.000437276
0.000147885
0.0513201
0.00014181
0.000147625
0.00449939
0.000137499
0.00435603
0.00016985
0.000144253
0.000149378
0.000143305
0.000389427
0.0537061
0.000156684
0.000138391
0.000178913
0.000172922
0.000131599
0.000131184
0.0001503
0.000136925
0.000170131
0.00454241
0.000143951
0.000143642
0.000290962
0.000149914
0.000170568
0.000144939
0.000142977
0.00445894
0.000142961
0.00013952
0.000139741
0.000147632
0.000140312
0.000151973
0.000149386
0.000153855
0.000179381
0.000168176
0.000142167
0.000157402
0.00014467
0.000154325
0.000157847
0.000138237
0.00666721
0.000143269
0.000179314
0.000151222
0.000158529
0.000133358
0.000132795
0.000161725
0.0385995
0.000152946
0.000138608
0.000135571
0.000162228
0.000144421
0.00413628
0.00423096
0.000142807
0.00026111
0.000143903
0.000168102
0.000147028
0.000131961
0.000156378
0.000142985
0.000166076
0.00014422
0.000149452
0.000156709
0.000142949
0.000144917
0.000144029
0.00330866
0.000153997
0.000159344
0.000150712
0.000151836
0.000150326
0.000157292
0.000142729
0.0451034
0.000138859
0.00776476
0.00288085
0.000155967
0.000153826
0.000138445
0.000163705
0.000156558
0.000146441
0.00793385
0.000147896
0.000138233
0.00015697
0.000150643
0.000147713
0.000152552
0.000694854
0.00014323
0.000160117
0.000151153
0.000142051
0.00308663
0.059848
0.0027252
0.000134837
0.000385954
0.00015093
0.014081
0.000190303
0.000137584
0.000151894
0.000193867
0.000149544
0.000165862
0.000183211
0.000139492
0.000151513
0.00014613
0.000145312
0.000146471
0.00993136
0.000143364
0.000141825
0.0453136
0.000150033
0.000144908
0.000134851
0.000152347
0.000139648
0.0304639
0.000149821
0.000145016
0.000149431
0.000151514
0.000355289
0.000147486
0.000178625
0.000131181
0.00016623
0.0217928
0.000199286
0.000167846
0.000152174
0.000156878
0.0569472
0.00015183
0.00643085
0.00015054
0.000137591
0.00218762
0.0001654
0.0607927
0.000145033
0.000171889
0.000578436
0.000158943
0.000142433
0.00410145
0.00015577
0.00312429
0.000157416
0.000147156
0.00207341
0.000143098
0.000151618
0.000153045
0.000147247
0.000152669
0.000147398
0.000156057
0.000569701
0.0001484
0.076401
0.00138583
0.0568437
0.000173017
0.00249049
0.000143886
0.000146101
0.0669261
0.00244199
0.000145895
0.000148457
0.0340562
0.000135554
0.00090769
0.000143999
0.000156077
0.000135191
0.000163674
0.000143294
0.000156417
0.000264166
0.000139685
0.000885791
0.000171963
0.00015024
0.000172341
0.000148644
0.000153105
0.000174442
0.0107349
0.000143651
0.000147905
0.000182891
0.000146853
0.000157746
0.000150782
0.000139909
0.000158955
0.000143225
0.000148106
0.000134491
0.00531437
0.000166092
0.00618647
0.000146651
0.00831383
0.000161037
0.00014807
0.000157627
0.000148426
0.00845466
0.000145479
0.0289536
0.000142465
0.000145192
0.000151406
0.0263579
0.000190501
0.00200435
0.000535015
0.00015757
0.000142955
0.000187472
0.00015876
0.000162973
0.00499192
0.00668651
0.000146873
0.000160131
0.000172316
0.000144225
0.000156064
0.00014401
0.000138623
0.000155121
0.000503525
0.000156592
0.00330779
0.000139221
0.000164793
0.000130815
0.000151883
0.000151222
0.000154052
0.000188432
0.000147594
0.000156169
0.000135678
0.000144802
0.000159719
0.00433975
0.000144088
0.000142924
0.00389055
0.00016183
0.000149785
0.0142586
0.00561632
0.000151484
0.000153747
0.000152125
0.0001598
0.000148278
0.000155213
0.000151715
0.000146631
0.000145042
0.000142411
0.00309841
0.000183931
0.000142863
0.00812822
0.000170281
0.000138787
0.000154022
0.000156518
0.000243723
0.000146922
0.000328433
0.000138108
0.000143116
0.000176254
0.000143797
0.00016308
0.00193428
0.000161623
0.000138636
0.0741553
0.000161299
0.000138337
0.000144768
0.000175338
0.000141371
0.000138152
0.000142865
0.00014125
0.00376826
0.000169913
0.000169447
0.000155239
0.000144305
0.000142593
0.000146462
0.00014512
0.000143054
0.000225434
0.000206455
0.000135941
0.000158656
0.0696596
0.000146618
0.00225014
0.000180065
0.000144103
0.000179648
0.00277472
0.000144391
0.000205744
0.000132163
0.000392729
0.000155904
0.00138044
0.000142635
0.000142682
0.000160439
0.00402958
0.000157093
0.0144013
0.00514225
0.0581242
0.000163891
0.000322001
0.000162979
0.00016296
0.000160345
0.000157255
0.00513336
0.000147648
0.0122017
0.000134725
0.00339285
0.000154299
0.000148953
0.000142348
0.000214372
0.000135277
0.000143282
0.00015028
0.000151843
0.000157276
0.000143212
0.000143331
0.000146155
0.000145716
0.0557456
0.000140798
0.00633132
0.00473645
0.000140894
0.000152668
0.000165852
0.000148507
0.000143861
0.000149991
0.00015911
0.000155851
0.000149867
0.000151852
0.000137569
0.000159652
0.000151432
0.000154709
0.0001503
0.000152815
0.00716945
0.000145766
0.0200548
0.000155061
0.00015301
0.000143457
0.000139468
0.000159512
0.000162144
0.000142812
0.000154565
0.000130571
0.000142954
0.000154329
0.000142176
0.000156967
0.000133046
0.000149009
0.000155484
0.000147071
0.000156606
0.00015005
0.000161393
0.00015728
0.00014186
0.000143527
0.000137938
0.000137102
0.000146132
0.000138076
0.000141582
0.000145798
0.000135201
0.000164787
0.000144813
0.000156619
0.000144208
0.0114434
0.000141258
0.000135167
0.000176862
0.000131951
0.000150166
0.000222475
0.000150501
0.00015597
0.000150932
0.00019314
0.000139559
0.000174366
0.051852
0.00194533
0.00527128
0.000149582
0.000144395
0.00585531
0.000176811
0.000134797
0.00274637
0.0117818
0.0723133
0.000143657
0.00017763
0.000144413
0.000144107
0.000627809
0.000142282
0.00106139
0.00018773
0.000184019
0.000141668
0.000154262
0.000151198
0.000212918
0.00275654
0.000144513
0.000180055
0.000156881
0.000141412
0.000158725
0.000174827
0.000198332
0.00014231
0.00257565
0.000175807
0.00268977
0.00204768
0.00329726
0.00394262
0.000148697
0.000171185
0.00765351
0.000141298
0.000142094
0.000156264
0.000158043
0.000134804
0.000395695
0.000134447
0.00764821
0.000151656
0.00191678
0.000177496
0.000146678
5.06771e-05
0.00924438
0.000149195
0.00151641
0.000169658
0.000184529
0.000134861
0.000131823
0.00665636
0.000147016
0.00141601
0.000141228
0.00438384
0.000138583
0.00421315
0.00575647
0.000148624
0.0597166
0.000144448
0.000150496
0.000165016
0.00361517
0.00556845
0.000137468
0.000139018
0.000135708
0.00178171
0.0435921
0.000158125
0.00016238
0.00270081
0.00013528
0.000141162
0.000152542
0.00142304
0.000168439
0.000148173
0.000143985
0.000140436
0.00546541
0.0697208
0.00298848
0.000138062
0.000140542
0.0118337
0.000142185
0.00181187
0.000171349
0.00821989
0.00399864
0.00414415
0.000140625
0.000146637
0.000152595
0.000149788
0.000155156
0.000142492
0.000177859
0.00510644
0.000138056
0.00727637
0.000140338
0.00116864
0.000147561
0.0037021
0.000160352
0.000208803
0.000142762
0.0001519
0.00150677
0.00473708
0.00717194
0.000147519
0.000165287
0.000154017
0.000153371
0.000154735
0.000382425
0.000170991
0.00018477
0.000140431
0.000157336
0.000144155
0.000133295
0.00015363
0.000140784
0.0755266
0.000142024
0.000153115
0.000157748
0.000153518
0.00013481
0.000189314
0.000151091
0.000149356
0.00014083
0.000141285
0.0052043
0.000141322
0.000238381
0.000138435
0.00232861
0.000143771
0.000856874
0.000146441
0.000260258
0.000148924
0.0001476
0.000140167
0.00778823
0.00455589
0.00211963
0.000210679
0.0117602
0.000146903
0.000152289
0.00383315
0.000136392
0.00546353
0.00568701
0.00019256
0.000155064
0.000152981
0.00633435
0.000161986
0.0102069
0.00445852
0.000152442
0.000147918
0.00572795
0.0411205
0.000167188
0.000156941
0.00014238
0.000152508
0.000163204
0.000146161
0.000136902
0.000150002
0.00284148
0.000165151
0.000156865
0.00216025
0.000140324
0.000138227
0.00352617
0.0065816
0.000163851
0.00015052
0.00233629
0.000138831
0.000136206
0.00264373
0.000135183
0.000152407
0.00683869
0.00727775
0.000150692
0.00388598
0.00293934
0.000231245
0.00609051
0.000284767
0.000154934
0.005511
0.000149759
0.000140305
0.000145207
0.000150874
0.000157468
0.0273891
0.000159347
0.00308439
0.000148683
0.000179926
0.000150544
0.000163787
0.000197752
0.000148514
0.000171303
0.000148866
0.000136981
0.000199439
0.000194017
0.000160051
0.000151981
0.000136423
0.00519982
0.00224128
0.000184047
0.00013076
0.000130563
0.000152887
0.000162438
0.0592562
0.000195261
0.00512769
0.000163754
0.00628277
0.000149073
0.000168517
0.00016431
0.000153181
7.38082e-05
0.000142907
0.000141939
0.000283451
0.000165287
0.00115365
0.000142161
0.00244824
0.00327591
0.000168436
0.000167227
0.00015241
0.0591334
0.000147048
0.000154621
0.00329354
0.000165729
0.000142337
0.00218783
0.00014953
0.000137702
0.000141509
0.000898932
0.000150192
0.000155344
0.000339033
0.000166393
0.000160877
0.000165345
0.000275531
0.00582277
0.00014755
0.000137173
0.000147146
0.000149535
0.000189412
0.000147143
0.0116745
0.00370969
0.0001524
0.000807103
0.00272573
0.0044955
0.000147411
0.00421033
0.000143246
0.00760247
0.000183073
0.000138859
0.00288795
0.00621578
0.000139939
0.000146205
0.000145537
0.000227093
0.0022671
0.000159804
0.00019452
0.00202284
0.000637274
0.000689121
0.00350955
0.000148683
0.000143913
0.0408483
0.01622
0.000142267
0.000146334
0.000137931
0.000149904
0.000148618
0.000154404
0.0026563
0.000145281
0.000162112
0.0160161
0.000147871
0.000152329
0.000159032
0.0116937
0.000146935
0.000165091
0.000613811
0.000149246
0.000136635
0.000149691
0.000140793
0.000153041
0.00560128
0.00507587
0.000148847
0.00284837
0.000168502
0.00275684
0.000143768
0.00015912
0.000152276
0.000150077
0.00480293
0.000152916
0.000155104
0.000160236
0.000154033
0.000153592
0.000155007
0.000142929
0.00019863
0.000146888
0.000141338
0.000877871
0.000142475
0.00916263
0.000170882
0.000141263
0.00353288
0.000162436
0.000161612
0.000310318
0.000136494
0.000457082
0.000141351
0.000143876
0.0449146
0.013583
0.000136813
0.000146491
0.000139453
0.000147722
0.000185552
0.000151988
0.000149358
0.000153704
0.00015149
0.000149344
0.000145632
0.000137845
0.000140912
0.000142274
0.0053261
0.000158621
0.000134865
0.000167178
0.000158701
0.0157583
0.00246582
0.000161943
0.000146268
0.000143127
0.000183583
0.000156603
0.000145558
0.000149796
0.00375148
0.000232653
0.000143868
0.000133229
0.000180146
0.000188193
0.000131689
0.0102794
0.00016833
0.000148045
0.000149502
0.000233807
0.000147578
0.000169349
0.00440725
0.000150096
0.000229067
0.000255108
0.00098925
0.000133409
0.000144371
0.000133064
0.000133064
0.000225183
0.000142538
0.000224089
0.00019109
0.000132954
0.000149638
0.000188659
0.000152592
0.000147676
0.000143701
0.000154676
7.0597e-05
0.000133182
0.000146126
0.00637391
0.000155536
0.000147347
0.000208354
0.000142669
0.000147521
0.000142893
0.000145718
0.000177504
0.000153046
0.000371091
0.00021909
0.00013353
0.000144473
0.000133342
0.000222464
0.000141319
0.000159029
0.000143732
0.000136612
0.000184727
0.000137558
0.000159262
0.000144571
0.000137766
0.0038172
0.00401862
0.000147719
0.000146214
0.000140854
0.00643565
0.000268296
0.000143694
0.00104042
0.00909415
0.000153426
0.00150304
0.00349707
0.000155402
0.00473375
0.000196336
0.0013238
0.000142854
0.00017585
0.000198158
0.00013756
0.00351501
0.00519925
0.000143835
0.00938328
0.0178572
0.000168795
0.00398046
0.000133715
0.000157168
0.00017489
0.000142817
0.00502517
0.000133972
0.000168348
0.000175091
0.000133559
0.000236519
0.000150871
0.000149561
0.000162457
0.000152929
0.000248027
0.0591294
0.000137159
0.00015364
0.00355623
0.000139409
0.000154091
0.000140097
0.00461373
0.00582048
0.000169049
0.000147883
0.000154371
0.000614166
0.0279191
0.000158681
0.000133717
0.000140646
0.0599233
0.000486623
0.00692787
0.000154321
0.000155221
0.000155663
0.000135969
0.000154167
0.000171356
0.000156176
0.000141473
0.000170827
0.0102782
0.000254194
0.000141035
0.000238722
0.0001586
0.000243749
0.00283972
0.000188667
0.00667028
0.000311085
0.000133894
0.000198372
0.000199524
0.00767454
0.00405241
0.000144903
0.000203788
0.00356694
0.00017349
0.000158399
0.0043878
0.00350335
0.000142112
0.000154957
0.000153809
0.000142844
0.000182031
0.000143954
0.000155975
0.000138719
0.000134205
0.000150446
0.000144811
0.000154065
0.000155038
0.00582242
0.000169585
0.00425139
0.000140224
0.000156114
0.000147001
0.0738676
0.000626493
0.000142739
0.000174797
0.000150836
0.000136104
0.000143148
0.000136161
0.000142397
0.000224966
0.000147405
0.00165043
0.000150887
0.00014073
0.00997868
0.000154573
0.000148334
0.000141995
0.000145213
0.000305077
0.000181541
0.00183209
0.000244657
0.0118772
0.000146576
0.000147979
0.000148326
0.000153499
0.000196225
0.000185389
0.0757026
0.000141235
0.000173468
0.000149881
0.00110119
0.00568522
0.000154056
0.00930048
0.0259754
0.000157612
0.000172455
0.000141498
0.000171461
0.000158462
0.000192096
0.000170505
0.000134148
0.0198432
0.00633144
0.000147785
0.000151227
0.000148976
0.000243786
0.000159586
0.000148156
9.93173e-05
0.000139988
0.00190234
0.000171093
0.00016473
0.000149662
0.000148556
0.00108574
0.00014244
0.00516228
0.000153735
0.00014442
0.000139502
0.00021801
0.000153793
0.0671098
0.000156651
0.000170304
0.000158192
0.000189005
0.00015169
0.000145419
0.00464682
0.000147651
0.000137215
0.000906442
0.00498863
0.000170185
0.000137978
0.000155591
0.0247122
0.000185251
0.000142101
0.00138242
0.000153358
0.000228426
0.000535767
0.00014909
0.00014234
0.000194762
0.000141098
0.000139466
0.000143864
0.000188029
0.0670937
0.000276152
0.000167619
0.000148183
0.000149339
0.00308396
0.000184654
0.000151675
0.000147848
0.000141868
0.000237857
0.0209705
0.0239963
0.000143039
0.000210836
0.000136221
0.000135871
0.000156844
0.000149212
0.000170987
0.000143699
0.000629155
0.0001906
0.00589195
0.00015344
0.000146368
0.000146794
0.000169794
0.000138554
0.000145778
0.000173431
0.00014681
0.000143766
0.000152093
0.0001674
0.000135072
0.00148431
0.000169095
0.000168802
0.000152656
0.000368502
0.000152158
0.0556971
0.000144121
0.000143218
0.000146138
0.000142032
0.000145948
0.000141485
0.00346485
0.000215565
0.000147209
0.000150923
0.000145295
0.000168763
0.000155214
0.000192888
0.00014978
0.000239119
0.000143434
0.000149583
0.000156117
0.000189709
0.000145904
0.00577253
0.000145533
0.000146998
0.000130616
0.0413832
0.000152408
0.000744793
0.0684668
0.000150592
0.000145903
0.000142501
0.000144466
0.000254967
0.000150203
0.000154712
0.0128215
0.000147149
0.00013461
0.028205
0.000152875
0.000204867
0.000147973
0.000152615
0.000141555
0.000137325
0.000136355
0.000143893
0.00291369
0.000195777
0.000140194
0.0115041
0.000230283
0.000142908
0.000497521
0.000137083
0.000173473
0.000151969
0.000141413
0.00286013
0.000146942
0.000156763
0.000156713
0.000187323
0.000186657
0.000150201
0.000141231
0.00015309
0.0410545
0.00101407
0.000165437
0.000156516
0.00014599
0.000144608
0.000298215
0.00015056
0.000160137
0.000420934
0.000262784
0.000146598
0.000164695
0.000147711
0.000149477
0.000172811
0.000161127
0.000169609
0.000149604
0.000148922
0.000156215
0.00404518
0.000203705
0.000137346
0.00015467
0.000190356
0.000153036
0.000170871
0.000147614
0.000148721
0.000143694
0.000228749
0.0115585
0.000164731
0.000147093
0.00510519
0.000169058
0.000157172
0.000146326
0.000143779
0.000143723
0.000137152
0.00019977
0.000165433
0.000151161
0.000149689
0.000144807
0.000146282
0.000244566
0.000144079
0.000144344
0.000148842
0.00469568
0.017457
0.000145746
0.00014439
0.000145534
0.00497208
0.000151302
0.0181075
0.000146567
0.000198091
0.000145996
0.000149886
0.000199888
0.000148361
0.000162603
0.000148102
0.000144744
0.000137304
0.000153317
0.000228809
0.000150737
0.000149419
0.00516031
0.000148694
0.000152912
0.000149461
0.000148619
0.000145801
0.000150126
0.000229374
0.000139599
0.000140061
0.000140674
0.00791379
0.000154671
0.00234163
0.000147073
0.000149665
0.00098685
0.00352823
0.00513788
0.000155713
0.000173175
0.00599614
0.000147231
0.0101926
0.00015294
0.000198106
0.000141387
0.00109332
0.000273215
0.000130714
0.00015561
0.000192726
0.000152837
0.000135817
0.0055745
0.000140557
0.00590856
0.000147976
0.00014424
0.000149133
0.000136006
0.000149378
0.000220903
0.000144558
0.000142097
0.000142324
0.000149258
0.00014407
0.000306864
0.00504872
0.00680085
0.000147323
0.000147497
0.000153134
0.000145713
0.000144303
0.000194082
0.000168315
0.000155241
0.000143273
0.000585203
0.000152457
0.00258964
0.00378111
0.000154303
0.000136826
0.000142985
0.000190312
0.0136807
0.000149434
0.000143072
0.000217792
0.000203473
0.00017117
0.0011698
0.000144061
0.00016543
0.000163915
0.000135472
0.000148389
0.00593766
0.00360086
0.000559834
0.000143299
0.0102821
0.000148654
0.000147623
0.000171055
0.000149036
0.000171465
0.000190133
0.000143359
0.000145345
0.000145179
0.000140439
0.000134815
0.00014395
0.000156876
0.00488799
0.000275968
0.000130614
0.000134767
0.000142898
0.000148827
0.000144553
0.000876812
0.000149163
0.000149294
0.000149226
0.0055539
0.000143114
0.000154387
0.000286562
0.000143363
0.000143827
0.0199339
0.000145265
0.000143773
0.0001426
0.0270836
0.000273462
0.000172608
0.000149051
0.000342216
0.000144754
0.00013561
0.000137381
0.000143688
0.000187767
0.000143209
0.00014751
0.000170513
0.000144985
0.0069583
0.000165551
0.000161056
0.000148271
0.000270564
0.000160757
0.000147031
0.000141963
0.000150349
0.000146952
0.000144516
0.00769318
0.000140737
0.000203965
0.000142664
0.000150784
0.0752683
0.000142136
0.0040399
0.00018796
0.00014423
0.000237412
0.00014256
0.000148847
0.000143037
0.000148791
0.000139381
0.000144772
0.000145374
0.000147066
0.00328791
0.000146761
0.000140699
0.000148671
0.000139858
0.000142841
0.000142946
0.00014437
0.000137789
0.000143136
0.000144673
0.000143761
0.000143592
0.000150016
0.0255688
0.000145969
0.000149678
0.000182076
0.00606217
0.000137892
0.000188176
0.000141068
0.000150378
0.000144028
0.000148769
0.000537988
0.00589823
0.000141816
0.000154904
0.00410873
0.00014832
0.000191618
0.0126634
0.000135677
0.000431185
0.000146189
0.000239299
0.00015695
0.00328269
0.0268216
0.000351683
0.000141106
0.000142236
0.000138531
0.00015835
0.000191629
0.00015383
0.000232089
0.000293974
0.000144004
0.0291988
0.000211911
0.00015575
0.000137063
0.000173031
0.000169794
0.000144836
0.000141748
0.000142081
0.000167024
0.000166115
0.000171192
0.000165222
0.000168911
0.00518907
0.000142613
0.000145422
0.000142444
0.000241936
0.000170736
0.000171743
0.000620776
0.00139665
0.00171109
0.000142068
0.000170338
0.000143207
0.000163234
0.000143642
0.000150685
0.000213162
0.000161752
6.13448e-05
0.000134454
0.00523458
0.000183948
0.000191886
0.00484707
0.0110765
0.000142496
0.000143614
0.000143602
0.000246898
0.000144407
0.000140137
0.000143802
0.000168057
0.00205638
0.00383548
0.000169546
0.000167548
0.00134314
0.000169709
0.00472592
0.0002069
0.000208413
0.000166416
0.0013904
0.00350537
0.0001418
0.000141887
0.000142886
0.000223704
0.000152349
0.000207904
0.000144778
0.000143516
0.000145453
0.000246754
0.000142645
0.00014477
0.000142015
0.000168306
0.000140995
0.000142542
0.000137045
0.000162995
0.00356446
0.000168517
0.000164475
0.000146114
0.0619854
0.000172461
0.000137213
0.000143286
0.000220517
0.00336145
0.000148406
0.000149183
0.0183169
0.000144146
0.000141484
0.000141242
0.000148767
0.000228208
0.00014115
0.000147329
0.000142228
0.000149078
0.000144801
0.00014279
0.000141402
0.000144306
0.000147088
5.15618e-05
0.000142782
0.00013894
0.000212205
0.000201016
0.000207703
0.000179142
0.000141239
0.000263037
0.000142981
0.000196854
0.000142
0.00014695
0.000143596
0.000142859
0.000135377
0.000184832
0.00017031
0.000142981
0.000924225
0.000144839
0.000135463
0.000145133
0.000150486
0.000158269
0.000141279
0.0102554
0.000145744
0.000370881
0.00019317
0.000147542
0.000161892
0.000141038
0.000139061
0.000142647
0.00111228
0.000184919
0.000216225
0.000195896
0.00169083
0.000156113
0.000209362
0.000171624
0.000144891
0.000133248
0.0103071
3.431e-05
0.000140925
0.000184845
0.000141486
0.000141766
0.00194317
0.000138468
0.000145034
0.00025066
0.000203667
0.00854847
0.000146445
0.000141743
0.000270646
0.000140998
0.000139735
0.000275241
0.00014496
0.000256069
0.001662
0.0373483
0.000143846
0.000152608
0.000142228
0.000135177
0.000232745
0.000147089
0.000143985
0.000178603
0.000139229
0.000694245
0.000147124
0.000153516
0.000167844
0.000998504
0.000168014
0.000150745
0.000232252
0.00645588
0.000145636
0.000108325
0.000150077
0.000144964
0.000147409
0.000141629
0.000169251
0.000282628
8.78648e-06
0.000144334
0.00016973
0.000151545
0.000132474
0.000142118
0.000146588
0.000165509
0.00013965
0.000144355
0.00015244
0.000148798
0.00978383
0.000143683
0.000153367
0.00019095
0.000154439
0.000135995
0.00533661
0.0168229
0.0105927
0.0240778
0.000180681
0.000138773
0.000151794
0.00691081
0.000272185
0.00323258
0.00568306
0.00627451
0.000145939
0.00346642
0.00766225
0.000148172
0.000107662
0.000150097
0.00786157
0.00100476
0.00136918
0.000151056
0.000142056
0.000197434
0.000146167
0.000147929
0.000968475
0.000290608
0.000144362
0.000144523
0.000143733
0.00237342
0.000143104
0.000142556
0.000142929
0.000141194
0.000141597
1.37169e-05
0.000148628
0.000141009
0.000148085
0.000172143
0.00301777
0.00840944
0.000145355
0.000143764
0.000154037
0.000144745
0.000141346
0.000141876
0.0273476
0.000144984
0.000166961
0.000142243
0.000149394
0.00013661
0.000145785
0.013833
0.000832844
0.000137939
0.000151562
0.00353548
0.0111103
9.53798e-05
0.00626786
0.000146552
0.00017225
0.000142353
0.000132333
0.000143125
0.000135717
0.000141998
0.0001433
0.000148838
0.00387946
0.00013563
0.00490182
0.00607204
0.000135004
0.000152895
0.000188083
0.000150361
0.000142326
0.000142439
0.000145964
0.000142562
0.00610956
0.000133599
0.000143215
0.00271051
0.000142385
0.0001439
0.000140978
0.000230368
0.000144166
0.000143954
0.00842531
0.000139081
0.000138452
0.000142968
0.000213975
0.000143437
0.000131216
0.000142242
0.000136227
0.0089011
0.000586656
0.000141891
0.00098725
0.000132964
0.000144396
0.000152698
0.00542167
0.00066898
0.000134311
0.0001618
0.000144127
0.000142951
0.000143257
0.000142102
0.00234736
0.00561188
0.000146023
0.00014999
0.000270081
0.000140725
0.000142468
0.000169221
0.000164703
0.0100777
0.000146121
0.000158107
0.00374401
0.000142663
0.000168941
0.000260664
0.00685124
0.000142957
0.000141116
0.00014731
0.000143788
0.000141111
0.00476784
0.000142251
0.00164103
0.0044268
0.000148563
0.000168569
0.0038954
0.000140392
0.00147405
0.00476017
0.00264461
0.000162864
0.000142761
0.000154361
0.00288481
0.00013968
0.000236696
0.000141101
0.000134736
0.000134396
0.000135176
0.000142622
0.012075
0.000149454
0.00195357
0.00457484
0.000186693
0.0135933
0.000132709
0.000143796
0.000151025
0.00477707
0.000142536
0.000254459
0.000218591
0.000134458
0.000140774
0.00420299
0.000140866
0.000201735
0.00637409
0.000141858
0.00574278
0.00014977
0.000202387
0.000107111
0.000144128
0.000138446
0.000195378
0.000116413
0.000145066
0.000152375
0.000135227
0.000169786
0.000140357
0.00831352
0.000141741
0.00013691
0.00020655
0.000135106
0.00575838
0.000144299
0.000142255
0.000143879
0.00530223
0.000141451
0.000140569
0.000490892
9.46269e-05
0.00260463
0.00014611
0.000135338
0.000187045
0.000345555
0.0054946
0.000236607
0.000163953
0.000166713
0.00014885
0.000143669
0.000171608
0.000149241
0.000143346
0.000136858
0.000147529
0.000171733
0.000140773
0.000131032
0.00014832
0.000138289
0.00014637
0.000143582
0.00118387
0.000287323
0.00019489
0.0269189
0.00173993
0.000139042
0.000140871
0.000150594
0.000168155
0.000137135
0.000146963
0.000140561
0.000141855
0.000142606
0.000176114
0.000145925
0.000651684
0.000143116
0.000141012
0.00678152
0.000178101
0.000146601
0.000141019
0.000140266
0.0117197
0.000235909
0.000147818
0.000136221
0.000209995
0.000140865
0.000143159
0.000141605
0.000208853
0.000141018
0.000140155
0.000232467
0.000137544
0.000188807
0.000168947
0.000141926
0.000144476
0.00251818
0.000724517
0.00705305
0.000388649
0.000168
0.000153499
0.000147747
0.000142773
0.000203807
0.000140461
0.00436319
0.000804544
0.000154553
0.000203771
0.00245166
0.000140734
0.00227422
0.000165106
0.0778323
0.000222633
0.000139814
0.000140092
0.000148924
0.000141995
0.000461686
0.00500104
0.000199684
0.000144586
0.000141217
0.000140151
0.000663497
0.000165978
0.00686671
0.000140349
0.000145093
0.000183559
0.000142336
0.00337192
0.00097621
0.000140483
0.000147646
0.000132132
0.000144743
0.00550149
0.0543623
0.000140243
0.000142317
0.000139381
0.00403513
0.000142332
0.000152889
0.00022178
0.000100095
0.0410615
0.000520832
0.0100374
0.000142939
0.000158238
0.000146737
0.000142814
0.000151435
0.000476109
0.0001374
0.000143426
0.000450411
0.000146005
0.000143041
0.00696598
0.000136007
0.000142901
0.000364925
0.000292376
0.000135084
0.000135869
0.000176926
0.00315514
0.000193202
0.00804768
0.00018219
0.0120253
0.000140814
0.00101377
0.000137011
0.000962944
0.00442854
0.000205785
0.0104244
0.000670106
0.000154314
0.00013856
0.000141036
0.000137226
0.000145095
0.000430205
0.00013958
0.000179252
0.00013855
0.000150587
0.000147246
0.00702305
0.000143208
0.00212404
0.000165388
0.000185039
0.000311169
0.000640161
0.00104673
0.000131864
0.000178439
0.000144531
0.000405824
0.000148659
0.000193425
0.000245856
9.12888e-05
0.0156308
0.000139785
0.00494735
0.000168686
0.000119891
0.00014536
0.000556479
0.000150107
0.000140357
0.000142736
0.00118036
0.000147337
0.000215278
0.000263288
0.000170035
0.000233263
0.000139768
0.0001347
0.00343743
0.000190193
0.00717762
0.00155954
0.000140979
0.000192178
0.0069064
0.000178156
0.000139273
0.000339107
0.00586625
0.000139684
0.000194043
0.00013266
0.0050481
0.00480163
0.0030848
0.000414142
0.000139762
0.000138975
0.000148532
0.000135528
0.000179728
0.000169608
0.000149577
0.00013789
0.000598924
0.000153419
0.000145054
0.000194959
0.00771413
0.0011998
0.000168985
0.000193669
0.000200682
0.00250049
0.000139925
0.00446307
0.000143073
0.000165881
0.02335
0.000149979
0.0137083
0.000136925
0.000134364
0.000140244
0.000139955
0.000139176
0.000140738
0.000132364
0.00393215
0.000168495
0.000141488
0.000380695
0.000140648
0.000146
0.000138828
0.00029382
0.000145677
0.000154906
0.000290805
0.000232516
0.000140228
0.00013253
0.00225047
0.000144681
0.00223034
0.0118124
0.000145968
0.000148185
0.000185771
0.000236624
0.00110781
0.000136431
0.000138713
0.00015775
0.000200696
0.000151862
0.000476774
0.000240295
0.000172695
0.000147873
0.00017616
0.000150706
0.000220596
0.000828571
0.00013803
0.00236163
0.000224632
0.000142984
0.000140654
0.000141036
0.000140776
0.000138708
0.000141627
0.000139367
0.000155063
0.000237594
0.000159516
0.000148497
0.000152117
0.000154326
0.000138456
0.000139156
0.00333596
0.000155676
0.000172252
0.000138186
0.000149737
0.000137937
0.000134419
0.000109233
0.000143712
0.000141378
0.000317294
0.00359519
0.000265332
0.000140446
0.000796593
0.00014718
0.000325544
0.000414593
0.000152676
0.00252154
0.000139052
0.000136414
0.0133304
0.000139778
0.000178951
0.0182656
0.000307979
0.00016919
0.00463415
0.000147311
0.000140521
0.000154688
0.000138815
0.000314742
0.000264246
0.000140234
0.000343782
0.00376495