/*--------------------------------*- C++ -*----------------------------------*\
| =========                 |                                                 |
| \\      /  F ield         | OpenFOAM: The Open Source CFD Toolbox           |
|  \\    /   O peration     | Version:  v2012                                 |
|   \\  /    A nd           | Website:  www.openfoam.com                      |
|    \\/     M anipulation  |                                                 |
\*---------------------------------------------------------------------------*/
FoamFile
{
    version     2.0;
    format      ascii;
    class       volScalarField;
    location    "500";
    object      omega_0;
}
// * * * * * * * * * * * * * * * * * * * * * * * * * * * * * * * * * * * * * //

dimensions      [0 0 -1 0 0 0 0];


internalField   nonuniform List<scalar> 
9793
(
0.275711
0.240792
0.271293
0.0210208
1.88392
0.0232933
0.0220436
0.0207942
0.0216244
1.79267
0.0461645
0.0623437
0.0210731
0.0212617
0.0232035
0.020951
0.022691
0.0236731
1.4868
0.0213414
0.069717
0.0236883
0.0624843
0.0195866
0.0218727
0.021184
0.0213296
0.0210657
0.0389388
0.021617
0.0330791
0.0491957
0.35719
0.0220458
0.0437825
0.118062
0.0226629
0.0236628
0.0208761
0.0211597
0.0327429
0.0232402
0.0222774
0.0221685
0.0223018
0.0213937
0.0417759
0.289657
0.0632816
0.0209911
0.0451542
0.0510395
0.0236606
0.0217036
0.69775
0.0960072
0.0214532
0.0760765
0.845488
0.0208627
0.0218847
0.023649
0.700445
0.0219863
1.96698
0.337011
0.714024
0.64286
0.0593029
0.0458843
0.985033
0.020873
0.0211734
0.222666
0.050277
0.827035
0.0214487
0.020337
0.0220431
0.0212339
0.372117
0.0217848
0.247864
0.0200945
0.0301493
0.255213
0.0214926
0.0214464
0.0229824
0.0220573
0.238282
2.01085
0.0206244
0.0376879
0.0232941
0.0176274
0.0894285
0.244495
0.0205521
0.0203427
0.0203161
0.0217379
0.0204942
0.0204692
0.0203168
0.0296964
0.0227795
0.0219594
0.0232486
0.281578
0.0210567
0.0658891
0.0214298
0.152738
0.0506326
0.021458
0.268897
0.0487785
0.0223263
0.0321236
0.287015
0.0225404
0.0213598
0.023624
0.0220574
0.0682358
0.0331865
0.233887
0.0224709
0.0211852
0.0214673
0.0214559
0.0211889
0.0218784
0.021585
0.0214464
0.0223681
0.0219817
0.0214212
0.02
0.0213478
0.0217395
0.0212319
0.0203664
0.0217612
0.0222094
0.224777
0.0203806
0.0205167
2.07706
1.03648
0.0214504
1.12039
1.71072
0.0204737
0.0220067
0.020791
0.0216383
0.0203356
0.0211777
0.0207958
0.0210594
0.0204787
1.5621
0.228243
0.0775084
0.283602
0.0261508
0.0210178
0.0212556
0.0212647
0.171798
0.231386
0.214565
0.0219749
1.54776
0.021455
0.0195841
0.0212165
0.0261813
0.664764
0.0223228
0.0203599
0.0217603
0.6172
0.0211547
0.0853751
0.0212099
0.0213367
0.0204981
0.02198
0.0213391
0.268495
0.0665309
0.639434
0.025944
1.71923
0.0211474
1.62094
0.020082
0.0215793
1.55205
0.104786
0.0211891
0.0214581
0.020091
0.0887648
0.0203815
0.027576
0.0226173
0.0292178
0.165548
0.106949
0.0217319
1.74123
0.0206804
0.0213772
0.531486
0.0200731
0.473823
0.0608618
0.0213942
0.0220639
0.0213411
0.11378
1.58228
0.0233346
0.0204492
0.0639572
0.0397943
0.0196198
0.0195879
0.0223653
0.0202503
0.0370306
0.481281
0.0214021
0.0211629
0.0814939
0.021538
0.0272024
0.0208815
0.0211018
0.34535
0.0211163
0.0205097
0.0207801
0.0216167
0.020561
0.0218818
0.0219243
0.0239406
0.0479754
0.0350352
0.0210453
0.0246138
0.0212453
0.0242074
0.0232594
0.020323
0.353604
0.0211381
0.0477326
0.0217182
0.0264348
0.0197287
0.0196953
0.029132
1.54698
0.022459
0.0203486
0.020089
0.0276963
0.0214142
0.235081
0.237226
0.0211946
0.0720106
0.0213842
0.0351138
0.02154
0.0196488
0.0224259
0.0210223
0.0331371
0.0213896
0.021922
0.0253692
0.0211314
0.0214501
0.0214105
0.293254
0.0226733
0.0227974
0.0215471
0.0218662
0.0222796
0.0257767
0.021254
1.35717
0.0204813
0.476842
0.259571
0.0224253
0.0221844
0.0203527
0.0285951
0.0248672
0.0214582
0.483756
0.021804
0.0203343
0.0250957
0.0221267
0.0216511
0.0217645
0.165536
0.0211032
0.0265505
0.0226676
0.0210125
0.227086
1.67467
0.217846
0.0198651
0.42528
0.0224419
0.841719
0.0579395
0.0202052
0.0229161
0.0597308
0.0215341
0.0258259
0.0540055
0.0207536
0.0221379
0.0215542
0.0211785
0.0211424
1.36305
0.0212129
0.0209993
1.40274
0.0215559
0.0209171
0.0198525
0.0227751
0.0207692
1.6775
0.0221569
0.02142
0.0218757
0.0217213
0.0629422
0.0216675
0.0350077
0.019594
0.0324798
1.70188
0.0864746
0.0340281
0.0226994
0.0224477
1.71312
0.021931
0.351163
0.0215669
0.0203097
0.228503
0.0254719
1.61024
0.0214239
0.0393672
0.146851
0.0229729
0.0211265
0.32432
0.0247982
0.224204
0.0246457
0.0216266
0.315579
0.021285
0.0226331
0.0219486
0.0214481
0.02136
0.021664
0.0240793
0.090535
0.0218478
2.17988
0.189663
1.70758
0.0400186
0.210197
0.0210737
0.0215518
1.85936
0.233311
0.0209356
0.0218957
1.49389
0.0200831
0.207086
0.0211886
0.0241155
0.0200571
0.0307394
0.0212057
0.025213
0.0741553
0.020408
0.0876033
0.0248781
0.0222831
0.0251207
0.0213955
0.0225402
0.022329
1.02676
0.0213569
0.021681
0.0533705
0.0215959
0.0232
0.0224322
0.0203895
0.0268738
0.0211918
0.0216986
0.0199945
0.348978
0.0220218
0.377655
0.0212716
0.599927
0.0232303
0.0213924
0.0225932
0.0218526
0.748474
0.0211266
1.8257
0.0206435
0.0212832
0.0226005
1.46977
0.035138
0.641907
0.336337
0.023659
0.0212749
0.0401834
0.0267886
0.0300612
0.243703
0.385581
0.0216862
0.0231218
0.0394912
0.0213697
0.0220165
0.0213471
0.0204926
0.0222833
0.138312
0.0252982
0.442589
0.0205256
0.0291441
0.0195674
0.0218691
0.021682
0.0218269
0.0404284
0.0213663
0.0226217
0.0200731
0.0214429
0.023608
0.293489
0.0212522
0.021272
0.31046
0.0245004
0.022163
0.731869
0.541478
0.0217083
0.0220976
0.0227959
0.0236829
0.0217215
0.0225749
0.0222298
0.0212342
0.0212743
0.0210639
0.221484
0.0536728
0.0208016
0.722366
0.0342487
0.0204385
0.0226986
0.0220429
0.0614595
0.0215259
0.0880588
0.0202458
0.0211185
0.043976
0.0213245
0.0298315
0.217403
0.0274648
0.020423
2.28873
0.024201
0.0205607
0.0212474
0.0445705
0.0209313
0.0205462
0.0212766
0.020925
0.320986
0.0370781
0.0331729
0.0229717
0.0212062
0.021052
0.02155
0.0209853
0.0212937
0.0534601
0.0949135
0.0201171
0.0227898
1.84907
0.0214589
0.240824
0.0363168
0.0208599
0.0491708
0.386486
0.0214079
0.111854
0.0196677
0.114299
0.025029
0.254578
0.0211444
0.021081
0.0225829
0.230913
0.0225235
0.76277
0.382021
1.83009
0.030541
0.0864457
0.0300053
0.0232327
0.0277057
0.0226019
0.311552
0.0216733
0.677845
0.0199783
0.265859
0.0222467
0.0220095
0.0210335
0.125478
0.0200304
0.0208895
0.0223875
0.0229302
0.0257367
0.0211884
0.0212838
0.0214218
0.0213896
1.47102
0.0209876
0.381381
0.588089
0.0209997
0.0220598
0.0299884
0.0218963
0.021338
0.0220128
0.0230831
0.0250041
0.0222369
0.0229273
0.0205044
0.0223688
0.0224652
0.0243794
0.0220507
0.0229391
0.495027
0.0214151
1.40276
0.0243949
0.0221577
0.0212954
0.0207308
0.0226257
0.0229496
0.0210991
0.0216003
0.0195426
0.0210782
0.0215774
0.0211807
0.0243172
0.0198841
0.0220131
0.0222563
0.0216257
0.0240875
0.0222929
0.0285814
0.0225803
0.0210355
0.0213056
0.0205421
0.0201124
0.0211315
0.02018
0.0209801
0.0214232
0.0200185
0.0316189
0.0211772
0.022479
0.0213763
0.652467
0.021046
0.02005
0.0453099
0.0196576
0.0217593
0.136291
0.0219035
0.022589
0.0215852
0.0761298
0.020742
0.0422338
1.81956
0.224424
0.400063
0.0216831
0.021388
0.366281
0.0231726
0.0200169
0.214961
0.665129
1.89345
0.0213168
0.0482687
0.0213899
0.0213686
0.160267
0.0211955
0.141825
0.0239022
0.0536769
0.0210191
0.0237806
0.0223876
0.123686
0.420959
0.0212293
0.0234342
0.0254185
0.0209721
0.0235773
0.0425484
0.23357
0.0211134
0.252835
0.0231544
0.26927
0.23091
0.28793
0.27346
0.0213357
0.0287196
0.468126
0.0210472
0.021168
0.0224383
0.022059
0.0200006
0.115272
0.0199847
0.397824
0.0228414
0.221537
0.0456928
0.0215708
0.132442
0.586958
0.0220084
0.259179
0.0282194
0.0598771
0.020011
0.0196469
0.349293
0.0214684
0.306917
0.0209867
0.277403
0.0205336
0.296823
0.328111
0.0213239
2.67449
0.0214364
0.0224461
0.0315709
0.516029
0.687147
0.0201333
0.0205552
0.0200799
0.209434
1.45604
0.0229725
0.02532
0.256836
0.0200455
0.0210064
0.0219928
0.18157
0.0249648
0.0215793
0.0210083
0.0208283
0.403386
1.90222
0.254885
0.0205488
0.0209377
0.662411
0.021181
0.299265
0.038014
0.404522
0.271235
0.272862
0.0208791
0.0215736
0.0232998
0.0222338
0.0245805
0.0212257
0.047966
0.355684
0.0204811
0.51172
0.0208173
0.142984
0.0217136
0.259192
0.0256929
0.0248965
0.0211369
0.0210507
0.191733
0.337179
0.44819
0.0215479
0.0319723
0.021717
0.023111
0.0240815
0.394479
0.0246902
0.0598079
0.0208684
0.0256914
0.0212071
0.0199107
0.0220756
0.020966
1.90746
0.0211561
0.0231668
0.0226202
0.0218983
0.0199912
0.0544304
0.0217122
0.0221105
0.0208953
0.0210184
0.288561
0.0210575
0.0628063
0.0205017
0.242605
0.0209957
0.129579
0.021215
0.0649358
0.0217849
0.0215184
0.0208949
0.320418
0.278045
0.228616
0.733645
0.667036
0.0214495
0.0232033
0.22738
0.0200908
0.321071
0.329689
0.0567344
0.0885888
0.0230435
0.305339
0.0240883
0.424632
0.236972
0.0229328
0.0217159
0.298189
1.27318
0.024375
0.0243375
0.0212101
0.022174
0.0301339
0.0211158
0.0200924
0.022283
0.260223
0.031577
0.023614
0.24187
0.0209135
0.0202006
0.266149
0.787058
0.0308094
0.0221027
0.238818
0.0205651
0.0200711
0.257045
0.0200077
0.0228535
0.312417
0.315746
0.0215036
0.344301
1.34117
0.0568733
0.365838
0.347542
0.0225514
0.517555
0.0219391
0.0208568
0.0214054
0.021758
0.0220002
2.58637
0.0223958
0.275709
0.0209859
0.0407078
0.0221292
0.0306845
0.0258569
0.021483
0.0379426
0.0209993
0.0201174
0.0722199
0.0248142
0.0277489
0.0215637
0.0201555
0.290985
0.384731
0.0245143
0.0195609
0.0195484
0.0212709
0.022382
1.56038
0.0670251
0.35211
0.0308017
0.346902
0.0216397
0.0296638
0.0261069
0.0235907
0.11614
0.021152
0.0210323
0.0830268
0.0319089
0.912742
0.021092
0.256545
0.246612
0.0245049
0.0338454
0.0231202
1.54488
0.0215516
0.0242081
0.24767
0.0231961
0.0211074
0.230201
0.0218746
0.020517
0.0210109
0.270985
0.0219792
0.0245384
0.0514525
0.0329316
0.0260957
0.031899
0.0150459
0.415163
0.0119436
0.0201404
0.021603
0.022147
0.0256815
0.0214043
0.676555
0.267257
0.0231331
0.105466
0.257031
0.368059
0.0216416
0.277569
0.021273
0.320148
0.0566523
0.0206441
0.446472
0.376883
0.0208673
0.0215292
0.02143
0.20827
0.231464
0.026915
0.0508683
0.228411
0.115558
0.928836
0.255208
0.0214081
0.0214028
2.592
0.631998
0.0211185
0.0214056
0.0201702
0.0220145
0.0217325
0.0240505
0.438766
0.0213594
0.0241782
0.618721
0.0217593
0.0217295
0.0252956
0.65767
0.0216005
0.0233082
0.158699
0.0220059
0.0201473
0.0220987
0.0209281
0.0229374
0.323037
0.388427
0.0217117
0.255231
0.0250542
0.250031
0.0213668
0.0225935
0.022702
0.0219804
0.284906
0.0218183
0.0223498
0.0269609
0.0222151
0.0212787
0.0243813
0.0212407
0.07885
0.0215732
0.0210581
0.199604
0.0211218
0.523681
0.0263342
0.0209852
0.350972
0.0229882
0.0286765
0.0858334
0.0202743
0.0667109
0.0209962
0.0213924
1.51052
0.802676
0.0202985
0.0215464
0.02071
0.0217362
0.0622595
0.0225926
0.0216628
0.0221893
0.0220428
0.0221044
0.0213763
0.0203461
0.0209725
0.0211951
0.39718
0.0249659
0.0200579
0.0339096
0.0221163
0.632464
0.245965
0.029102
0.0215262
0.0212617
0.0568216
0.0240676
0.0214392
0.0218987
0.263807
0.124168
0.0213772
0.0198549
0.0522816
0.0518126
0.0196244
0.424419
0.0347786
0.0215943
0.0220518
0.034181
0.021691
0.0304447
0.370251
0.0218074
0.0527765
0.0417561
0.165074
0.0198601
0.0213807
0.019869
0.0198534
0.117402
0.0211184
0.0480942
0.0495628
0.0198569
0.0221027
0.0306824
0.0217672
0.021727
0.0213932
0.0229365
0.0879864
0.0198674
0.0215412
0.345556
0.0225714
0.0216765
0.0258197
0.0211384
0.0217009
0.0212176
0.0215253
0.023991
0.0218239
0.102797
0.0255836
0.019876
0.0214397
0.0198705
0.0857413
0.0210284
0.0253204
0.0213163
0.0202479
0.0280139
0.0204549
0.0269194
0.0214267
0.0204704
0.271634
0.315459
0.0217876
0.0216407
0.0209711
0.370139
0.174614
0.0213949
0.0973047
0.522021
0.0220111
0.206342
0.253329
0.0242663
0.298051
0.041262
0.181305
0.0212229
0.0308378
0.0777499
0.0204291
0.268792
1.75894
0.021395
2.21909
2.85204
0.0239129
0.272153
0.0198697
0.0258094
0.0421119
0.0212562
0.286194
0.0198776
0.0348304
0.0598774
0.0198655
0.0335724
0.0220929
0.0219912
0.0294389
0.0233487
0.209344
2.55508
0.0201903
0.0238668
1.50917
0.0207352
0.0238962
0.0208327
0.2939
0.54354
0.0222622
0.0215144
0.0240434
0.56779
2.40994
0.0265829
0.0198825
0.0209142
2.4427
0.0700728
0.376198
0.0233993
0.0235944
0.0247596
0.0201226
0.0223693
0.0245841
0.0238291
0.0209157
0.0244057
0.41462
0.0743408
0.0209848
0.151904
0.024984
0.0698122
1.33342
0.0451058
0.481522
0.0837408
0.0198884
0.0913516
0.0965736
0.483076
0.275199
0.021333
0.0998097
0.255019
0.0403328
0.0257068
0.277779
0.258448
0.0211048
0.0243624
0.0237547
0.0212382
0.0557631
0.0213144
0.0221573
0.020646
0.0198872
0.0220016
0.0214005
0.0232224
0.0243724
0.363063
0.0246364
0.269971
0.0208457
0.0249453
0.0216199
2.15261
0.190884
0.0212121
0.0420808
0.0217138
0.0202546
0.0213034
0.0202211
0.0211039
0.092507
0.0216775
0.18163
0.0215033
0.0209592
0.411813
0.0225492
0.0218668
0.0211445
0.0213466
0.0462759
0.055329
0.217192
0.167941
0.650783
0.0215747
0.0217983
0.021598
0.023615
0.0411507
0.0630552
2.23408
0.0209904
0.0402221
0.022245
0.155173
2.2226
0.0239006
2.52356
1.25981
0.0226847
0.0388113
0.0209343
0.0383062
0.0232268
0.0716196
0.037126
0.0198968
2.96476
0.428219
0.0217386
0.0226784
0.0219942
0.165296
0.0219867
0.0218105
0.0335011
0.0208284
0.340209
0.0264777
0.024048
0.0221844
0.0218957
0.237106
0.0211708
0.394323
0.0237427
0.0213458
0.0207462
0.0451257
0.0230872
2.45346
0.0228307
0.0246722
0.0254943
0.0601078
0.0228349
0.0213965
0.281244
0.0217395
0.0204403
0.113373
0.28363
0.0245513
0.0205364
0.0225268
1.5263
0.0582223
0.0211679
0.203751
0.0212957
0.12259
0.0894278
0.0220272
0.0211444
0.073416
0.020978
0.020761
0.0213841
0.0652423
2.53237
0.0522367
0.024427
0.0218415
0.0220969
0.238953
0.02981
0.02176
0.021774
0.0210642
0.0617113
1.12897
1.11627
0.0212512
0.110177
0.0202559
0.0201992
0.0224316
0.0220619
0.0376695
0.021365
0.103588
0.0425976
2.48204
0.0236031
0.0215552
0.0215975
0.0363953
0.0206308
0.0213642
0.0357301
0.0215706
0.0213002
0.022593
0.0244507
0.0200614
1.46607
0.0358604
0.0240043
0.023236
0.0673454
0.0230147
1.57089
0.0213881
0.0212791
0.0215366
0.0210785
0.0215153
0.0209155
0.576189
0.0921464
0.0216506
0.0221421
0.0213302
0.0239253
0.0236069
0.0533321
0.022208
0.550772
0.0213202
0.0220522
0.0217333
0.0646633
0.0215314
1.99404
0.0215193
0.0215989
0.0195573
2.44804
0.0232251
0.107277
2.37147
0.0222253
0.0215247
0.0211597
0.0214266
0.0462972
0.0220752
0.0242526
0.771093
0.0216445
0.0559114
1.79463
0.0234867
0.086319
0.0216658
0.023238
0.0210063
0.0204113
0.0202723
0.021372
0.219492
0.0724427
0.0208517
0.577864
0.0505466
0.0212657
0.192472
0.0203851
0.0355749
0.0222331
0.0210399
0.655713
0.0215709
0.0226184
0.0248208
0.0522831
0.0618177
0.0222077
0.020991
0.0229325
2.76072
0.12826
0.0322544
0.0252132
0.0215111
0.0214346
0.104515
0.0219975
0.0278033
0.0781112
0.120614
0.0215426
0.0313089
0.0216179
0.0220064
0.034692
0.0283123
0.0331882
0.0221804
0.0219916
0.0251563
0.360702
0.0439488
0.0204414
0.0242077
0.0727079
0.0235168
0.0375314
0.0217108
0.0218852
0.0213572
0.0320331
0.647383
0.0573171
0.0215722
1.06342
0.0239783
0.025806
0.0215587
0.0213604
0.0213741
0.0200817
0.0553813
0.0232118
0.0226399
0.0222012
0.0213957
0.0215216
0.154839
0.0214225
0.0214158
0.0219251
0.458092
1.62924
0.0214941
0.0212302
0.0215137
0.284773
0.0223818
1.66514
0.0215461
0.0535966
0.0215061
0.021895
0.0413464
0.0218214
0.0294972
0.0218069
0.021466
0.0204021
0.0230728
0.135626
0.0220943
0.0221104
0.292884
0.0217291
0.022819
0.0221401
0.0217663
0.0213459
0.022215
0.0486212
0.0207748
0.0208385
0.0209587
0.403442
0.0243015
0.227009
0.0216039
0.0219421
0.361115
0.252339
0.263928
0.0247552
0.0323205
0.283838
0.0216087
0.413506
0.0224414
0.0905215
0.0209909
0.135223
0.0410962
0.0195672
0.0242662
0.0250668
0.0228211
0.0199801
0.403953
0.0209105
0.28233
0.0217748
0.0214115
0.021963
0.0200091
0.0220041
0.107937
0.021385
0.0211533
0.0211586
0.0218039
0.0213922
0.0472728
0.478789
0.4489
0.0216092
0.021
0.0234796
0.0215188
0.0213608
0.0839251
0.0347197
0.0229383
0.0213293
0.0821932
0.0230595
0.277105
0.3557
0.0233698
0.0203576
0.0212936
0.0290716
0.619575
0.0217047
0.0212453
0.0450338
0.0992118
0.0381689
0.292535
0.0213371
0.0241589
0.023889
0.0200136
0.0218602
0.381847
0.297134
0.141498
0.0212891
0.618666
0.0218857
0.0216191
0.0245956
0.022025
0.0245417
0.0325122
0.0212656
0.0215088
0.0213924
0.0208983
0.0200242
0.0211986
0.0253514
0.280789
0.02952
0.0195598
0.0200389
0.0212807
0.0219596
0.0213766
0.126353
0.0220595
0.022094
0.0220649
0.274098
0.021269
0.0237413
0.0623427
0.0213186
0.0213132
1.06552
0.0213063
0.0213746
0.0212342
2.05966
0.0302538
0.0387038
0.0219632
0.0984697
0.0207744
0.0201825
0.0204514
0.0212889
0.0367746
0.0212866
0.021717
0.0370415
0.0214036
0.406133
0.0233975
0.0285157
0.0218406
0.0417743
0.028183
0.0215748
0.0211445
0.0220443
0.0216214
0.0213679
0.413206
0.0209784
0.0440717
0.0211943
0.0218698
1.9317
0.0210982
0.552598
0.0648987
0.021341
0.0538606
0.0211761
0.0219236
0.0212674
0.0219266
0.0207502
0.0213828
0.0213811
0.0214963
0.591815
0.0215732
0.0209738
0.0219261
0.0208152
0.0212301
0.021234
0.0214353
0.0205284
0.0213156
0.0213336
0.0213842
0.0212895
0.0221573
1.46219
0.0212954
0.0219896
0.029695
0.297765
0.0201076
0.0271854
0.020995
0.0214715
0.0213256
0.0216442
0.125945
0.294113
0.0211243
0.0234073
0.266867
0.0217179
0.019184
0.761371
0.0200417
0.124617
0.0215334
0.054545
0.0248082
0.260565
1.49522
0.0816332
0.0210054
0.0211331
0.0202068
0.0254816
0.0586138
0.0230812
0.0526914
0.159931
0.0213895
2.29984
0.0413524
0.0214859
0.0204265
0.0347181
0.033157
0.021361
0.0210513
0.0204642
0.024411
0.0242899
0.0247732
0.0241726
0.0245842
0.516366
0.021116
0.0213466
0.0211783
0.192261
0.0245566
0.0245813
0.4268
0.348821
0.213196
0.0210732
0.0243263
0.0212521
0.0300691
0.0213658
0.0223603
0.0426691
0.0251393
0.0809111
0.0199102
0.265839
0.0346332
0.0708752
0.288377
0.638011
0.02115
0.0213556
0.0213472
0.0570027
0.0214304
0.0208943
0.0213547
0.0310794
0.352156
0.235037
0.0241277
0.0288905
0.234915
0.036248
0.253161
0.0411309
0.0395095
0.0328462
0.368579
0.227661
0.0211241
0.0211373
0.0211773
0.0465806
0.0271134
0.039274
0.0209808
0.0212746
0.0213272
0.173245
0.0212008
0.0212709
0.0210855
0.0342682
0.0209662
0.0211826
0.0203748
0.0262047
0.601492
0.0296442
0.0240666
0.0215463
1.97246
0.0257678
0.0200851
0.0213336
0.0199885
0.271228
0.0217165
0.021808
1.92099
0.02122
0.0210249
0.020984
0.021621
0.0408945
0.0210162
0.0216353
0.02114
0.0218454
0.0213192
0.021178
0.0210705
0.0213011
0.0214807
0.0338778
0.0212554
0.0207041
0.0350599
0.055463
0.0348179
0.0510793
0.0209994
0.039577
0.021295
0.0301292
0.0211082
0.0192984
0.0211757
0.0212472
0.0201627
0.0292748
0.0246903
0.0212288
0.329842
0.0213
0.0201628
0.0213124
0.0220697
0.026554
0.0209788
0.738537
0.0214998
0.0507239
0.0386708
0.0215073
0.0291227
0.021015
0.0206348
0.0212085
0.241769
0.0261851
0.0258874
0.0375952
0.607308
0.0249704
0.0393796
0.024739
0.0213699
0.0198276
1.82224
0.0275086
0.0209925
0.0345846
0.0209317
0.0210447
0.228338
0.0205457
0.0213572
0.0368942
0.0376373
0.66315
0.0214208
0.021059
0.0228295
0.0209583
0.0202936
0.136028
0.0212915
0.0241155
0.348217
1.46344
0.0213504
0.0226949
0.0211472
0.019927
0.0332485
0.0216451
0.0214133
0.0348896
0.0207065
0.129526
0.0214941
0.0229357
0.0237832
0.242879
0.0245095
0.0220048
0.143544
0.304888
0.0213469
0.0365655
0.0219045
0.0213456
0.0214854
0.0210031
0.0240229
0.0385526
0.0489478
0.0212403
0.024161
0.022137
0.0197685
0.0210689
0.0214112
0.0242349
0.0208263
0.0212124
0.0222928
0.0216389
0.74689
0.0213768
0.0224748
0.0543383
0.0226928
0.0202546
0.289338
0.644379
0.796748
1.58747
0.0524079
0.0205823
0.0224851
0.557837
0.0816261
0.272585
0.330536
0.305153
0.0215204
0.23141
0.677997
0.0216676
0.0538469
0.0221538
0.616716
0.219624
0.262839
0.0223073
0.0210317
0.0541117
0.0213852
0.0215274
0.10518
0.0796162
0.021371
0.0214356
0.0211582
0.382311
0.0211355
0.0210994
0.0212485
0.0210165
0.0210373
0.064956
0.0219262
0.0209751
0.0215523
0.0313196
0.380918
0.614739
0.0213717
0.0211936
0.0232312
0.021345
0.0210115
0.0211368
1.21033
0.0213161
0.0335829
0.0211555
0.0216838
0.0203429
0.0214096
0.731846
0.284916
0.0205498
0.0219946
0.227526
0.803726
0.0520632
0.613619
0.0214377
0.0313914
0.0211373
0.0197543
0.0211511
0.0201831
0.0210924
0.0212686
0.0217868
1.02279
0.0200308
0.385665
0.604882
0.0199075
0.0297188
0.0444047
0.0221646
0.0211513
0.0212152
0.0212918
0.0210659
0.301865
0.0198507
0.0211128
0.444759
0.0211312
0.0213242
0.0209933
0.0475793
0.021396
0.0213805
0.611157
0.0206924
0.0206184
0.0211351
0.0168872
0.0212764
0.0196207
0.0211252
0.0200644
0.587288
0.0722444
0.0210579
0.110845
0.0198046
0.0213139
0.0220636
0.321348
0.279071
0.0200339
0.0235597
0.0213476
0.0211862
0.0211517
0.0211197
0.206698
0.297258
0.0213967
0.0221044
0.0399428
0.0209702
0.0211012
0.0245719
0.0288353
0.619288
0.0214118
0.0246368
0.325991
0.0211588
0.0239446
0.0624061
0.87773
0.020819
0.0209636
0.0212362
0.0211814
0.020987
0.253922
0.0210829
0.242224
0.367987
0.0219216
0.0239741
0.232856
0.0202429
0.294696
0.354533
0.252145
0.0262491
0.0212058
0.0224343
0.221804
0.0208295
0.02697
0.0209704
0.0200556
0.0200883
0.0201501
0.0211636
0.598889
0.0218174
0.222931
0.303819
0.0616535
0.723239
0.0197872
0.021384
0.0226197
0.381188
0.0211895
0.033368
0.0287904
0.0200379
0.0209423
0.239312
0.0209381
0.0272793
0.302166
0.0210715
0.280412
0.0220503
0.0392299
0.0872868
0.0214005
0.0206103
0.0366521
0.107522
0.0212856
0.0230746
0.0201987
0.0224513
0.0208798
0.417765
0.0210163
0.0200428
0.0362644
0.0201296
0.28055
0.02142
0.0211862
0.0211747
0.504528
0.0209871
0.0209036
0.132096
0.0694234
0.297803
0.0214122
0.0201482
0.0321751
0.0552938
0.369766
0.138928
0.023952
0.0243695
0.021739
0.0213006
0.0246119
0.0219534
0.0211285
0.0204025
0.031528
0.0245319
0.0209342
0.0196195
0.0216756
0.0205958
0.0213624
0.0201709
0.288671
0.074322
0.0263366
1.76506
0.189633
0.0206602
0.0209539
0.0222916
0.0343554
0.020278
0.0215031
0.0209187
0.0210155
0.0211713
0.0437104
0.0213824
0.11043
0.0212772
0.0208809
0.375221
0.0386216
0.0214915
0.0209008
0.020862
0.642124
0.0899731
0.0216207
0.0202699
0.0254059
0.0209457
0.0212561
0.0210301
0.0935953
0.0210047
0.0208571
0.0453179
0.0204888
0.0597833
0.0239609
0.0210526
0.0213561
0.210869
0.150879
0.377205
0.0996788
0.0237906
0.0223165
0.0217472
0.0212497
0.0277915
0.020846
0.504701
0.154265
0.0232269
0.0374569
0.210514
0.0208725
0.264887
0.0237838
2.13832
0.0262287
0.0207993
0.0208193
0.0219192
0.0211002
0.151133
0.348811
0.053124
0.0212506
0.0209273
0.0208644
0.173552
0.0239039
0.376627
0.0208871
0.0212903
0.0448997
0.0210493
0.274225
0.186794
0.020886
0.0215346
0.0197385
0.0212469
0.293449
1.65132
0.0208681
0.02108
0.0206916
0.235177
0.0211664
0.0233519
0.123218
0.0612933
1.41646
0.189565
0.606534
0.0212569
0.0265273
0.0215962
0.0211143
0.0227648
0.066354
0.0204757
0.0211555
0.0959204
0.0213673
0.0205695
0.309582
0.019989
0.0210899
0.0760622
0.0347935
0.0200684
0.0202353
0.0429349
0.276841
0.0389004
0.743364
0.0250268
0.637951
0.0209833
0.174188
0.0632744
0.243684
0.353208
0.0269896
0.618351
0.0840785
0.1791
0.0206232
0.0210193
0.0202958
0.0213316
0.0523162
0.0207815
0.0469152
0.0201713
0.0218317
0.0214678
0.383153
0.0213252
0.202337
0.0241326
0.0252332
0.094731
0.147718
0.183153
0.0197251
0.0390078
0.0213088
0.138246
0.0216048
0.0322086
0.0354075
0.0345062
0.611004
0.0208051
0.38826
0.0238882
0.030064
0.0214374
0.228658
0.0217783
0.0208954
0.0212194
0.124033
0.0215743
0.0294156
0.0415658
0.025119
0.0631429
0.0208435
0.0200461
0.443607
0.0367994
0.310185
0.171573
0.0208836
0.0297838
0.391339
0.0451307
0.0207012
0.0578469
0.295362
0.0207858
0.0218097
0.0198065
0.370234
0.344988
0.219304
0.0711991
0.0208112
0.0206803
0.0218451
0.0202035
0.0234864
0.0241137
0.0221576
0.0204484
0.0846718
0.0221321
0.0212862
0.0272446
0.383254
0.134519
0.0221706
0.0260199
0.0257117
0.381307
0.0208028
0.300869
0.0213073
0.0322825
1.07085
0.0217124
0.601986
0.0204173
0.0198623
0.0208248
0.0208415
0.0206741
0.0208581
0.0197817
0.477434
0.0238917
0.0210174
0.0596719
0.0208903
0.0213888
0.0206584
0.156117
0.0211366
0.0234192
0.046469
0.0350598
0.0209084
0.0197935
0.423007
0.0212796
0.242399
0.99177
0.0213829
0.0217832
0.0309086
0.0344657
0.1415
0.0202286
0.0206532
0.0226467
0.0330304
0.0229347
0.071071
0.0368419
0.0229442
0.0217754
0.0249154
0.0222878
0.0331727
0.106249
0.0205614
0.254444
0.0342644
0.0212868
0.0209301
0.0209047
0.0208796
0.0206604
0.0210239
0.0207575
0.0221666
0.0354954
0.0230949
0.0213341
0.0230211
0.0240339
0.0206031
0.0207255
0.983733
0.0229579
0.0237088
0.0205836
0.0217135
0.0205572
0.020018
0.0481126
0.0213513
0.0210674
0.0494052
0.327834
0.0430667
0.0208911
0.194002
0.021574
0.0929191
0.0651148
0.0220417
0.249718
0.0206988
0.020327
0.725045
0.0208454
0.0466243
1.28971
0.0490843
0.0240065
0.374889
0.0214092
0.0208534
0.0222343
0.0206655
0.0479502
0.0407575
0.0208754
0.044867
0.422642
0.0197344
0.0206862
0.0351702
0.0372597
0.0503509
0.0264055
0.215882
0.237773
0.0213042
0.58794
0.304466
0.0338532
0.32894
0.0226302
0.0553141
0.0197743
0.331681
0.020324
0.0198448
0.167686
0.4323
0.0458973
0.0196362
0.0391473
0.0204164
0.0206864
1.67019
0.501421
0.0206942
0.0215772
0.235103
0.0197883
0.0348344
0.0208093
0.0931124
0.366844
0.0222657
0.0215434
0.260789
0.0398516
0.633069
0.155971
0.0211031
0.235972
0.0210303
0.233859
0.0255405
0.0204405
0.391633
0.0214227
0.0339448
0.0213662
1.51155
0.0211361
0.0213604
0.0202572
0.021439
0.0205131
0.0217127
1.11217
0.689106
0.0206037
1.35489
0.361598
0.0203415
0.0205652
0.243388
0.0521878
0.161263
0.288011
0.635495
0.0205691
0.0212696
0.379792
0.0248437
0.360159
0.0302283
0.0206346
0.0212949
0.021265
0.0198218
0.0206094
0.036762
0.0205883
0.312285
0.0209066
0.021368
0.0675677
0.0197796
0.0375499
0.55274
0.0208557
0.0207918
0.0209629
0.0280856
0.0196357
0.0202036
0.0345407
0.373018
0.0385697
0.0215177
0.0334439
0.0205352
0.0211953
0.0212588
0.636551
0.330201
0.304446
0.38462
0.0334018
0.033213
0.0826566
0.02103
0.0233683
0.0196478
0.0196343
0.0273509
0.020822
0.232285
0.217131
0.0236651
0.682954
0.0273335
0.263312
0.0605872
0.0200483
0.356251
0.023139
0.380601
0.0213514
0.0204652
0.0201333
0.0308401
0.40501
0.332704
0.393358
0.020971
2.06825
0.0205915
0.383707
0.171662
0.0204876
0.0230265
0.0211184
0.40335
0.296363
0.0216878
0.0196251
0.053522
0.0243635
0.293111
0.0215397
0.0213786
0.232716
0.224977
0.0205355
0.0309505
0.0207139
0.0237478
0.0217507
0.31129
0.0207138
0.02195
0.15661
0.0213459
0.0208525
0.328635
0.363987
0.0215198
0.0213332
0.0217176
0.0205999
0.0205113
0.378799
0.377022
0.0208881
0.0250169
0.0208342
0.0213659
0.0213554
0.0211573
0.254771
0.385485
0.0365291
0.333658
0.0207618
0.0310243
0.0208439
0.021608
0.287434
0.0215921
0.358377
0.0207365
0.381113
0.0215589
0.388638
0.391037
0.0204819
0.0208383
0.0517622
0.03534
0.108954
0.243675
0.297555
0.245012
0.0241813
0.0211935
0.284846
0.0207681
0.294094
0.0199713
0.238319
0.0304013
0.0208434
0.0222145
0.0208805
0.0376192
0.24234
0.0212249
0.344928
0.0206914
0.039985
0.0204799
0.0237582
0.370851
0.0204518
0.21041
0.118126
0.0202206
0.114656
0.0902366
0.562597
0.0204685
0.248689
0.0212384
0.0202787
0.0427966
0.0204744
0.654759
0.0200004
0.0208227
0.0205227
0.023757
0.231208
0.0207536
0.3172
0.0197366
0.0245988
0.0423722
0.0214963
0.375415
0.358785
0.0330497
0.0848574
0.0214334
0.0205406
0.675141
0.020499
0.0203931
0.0211042
1.85155
0.310533
0.169445
2.0562
0.0201169
0.0210454
0.0212382
0.0511152
0.0206728
0.164154
0.0791456
0.0212438
0.212006
0.0899368
0.310857
0.0204209
0.0204005
0.0211094
0.0213604
0.059456
0.0542312
0.0203543
0.0240447
0.0207057
0.391611
0.340484
0.021345
0.0472537
0.0209827
0.0214336
0.0197583
0.020332
0.0723608
0.128221
0.0204449
0.373497
0.296414
0.0198208
0.397632
0.0206161
0.0208904
0.257096
0.0204222
0.0340562
0.0198377
0.0434166
0.535838
0.0197734
0.0200992
0.021035
1.55592
0.0257636
1.98322
0.375556
0.0319293
0.0236418
0.383827
0.0205041
0.498393
0.0327444
0.0206468
0.220627
0.580169
0.364408
2.18291
0.371914
0.0204059
0.404475
0.0728326
0.221095
0.300306
0.0204748
0.0203939
0.0207467
0.456448
0.0203518
0.0201644
0.240311
0.0612827
0.0213379
0.0203783
0.0208538
0.0203167
0.0206199
0.0425911
0.0208268
0.173522
0.26121
0.0233486
0.0235224
0.0206333
0.0204369
0.366147
0.188461
0.496089
0.227025
0.0205068
0.020678
0.0375834
0.895419
0.312841
0.0204455
0.233596
0.310656
0.0199525
0.0341704
0.029285
0.0201544
0.020912
0.0212359
0.0218301
0.0201006
0.345102
0.446206
0.0210903
0.228674
0.0214324
0.0358042
0.0209066
0.0213463
0.0282632
0.306326
0.0251828
0.0203529
0.0198359
0.0203329
0.0203385
0.286953
0.0461493
0.346819
0.0604765
0.260588
0.103498
0.0203715
0.0791672
0.271156
0.0212875
0.2508
0.0224023
0.0197729
0.240419
0.623462
0.0236353
0.0692371
0.27458
0.708183
0.0307134
0.0202994
0.023862
0.0207117
0.32207
0.0206804
0.255423
0.0603206
0.0337505
0.384266
0.0357574
0.0428284
0.0703888
0.0209469
0.0204546
0.0213109
0.0208873
0.308941
0.0206261
0.0206378
0.0254357
0.022235
0.0202191
0.287667
0.322736
0.266488
0.0202602
0.7206
0.306708
0.263433
0.0215961
0.0205073
0.0241696
0.0201852
0.391481
0.0242325
0.0203203
0.0287759
0.0205775
0.247258
0.056496
0.0206122
0.626818
0.13014
0.0203674
0.304185
0.113072
0.0591738
0.0214637
0.162655
0.391381
0.0196432
0.0205045
0.299457
0.0310596
0.0210016
0.386742
0.0210952
0.0204626
0.020522
0.0203701
0.322237
0.0201985
0.0204289
0.276445
0.0679582
0.0204981
0.0208131
0.192714
0.0419498
0.0224017
0.0446642
0.0203939
0.625061
0.0643085
0.0215981
0.0202378
0.615348
0.494738
0.0242991
0.0201163
0.121483
0.0218509
0.0202366
0.46303
0.0209218
0.112792
0.0204694
0.413234
0.289907
0.390546
0.148219
0.020422
0.0875356
0.0213724
0.0327762
0.298397
0.0201681
0.19344
0.0198873
0.112612
0.0206956
0.0203674
0.0199811
0.0204558
0.020283
0.0201201
0.0558189
0.0215022
0.0574716
0.0223161
0.0197211
0.0227879
0.217868
0.0205525
0.0287388
0.0202878
0.0211143
0.458431
0.0217797
0.358476
0.0237671
0.0363763
0.0200867
0.0201483
0.0219656
0.0215518
0.0202572
0.0232633