/*--------------------------------*- C++ -*----------------------------------*\
| =========                 |                                                 |
| \\      /  F ield         | OpenFOAM: The Open Source CFD Toolbox           |
|  \\    /   O peration     | Version:  v2012                                 |
|   \\  /    A nd           | Website:  www.openfoam.com                      |
|    \\/     M anipulation  |                                                 |
\*---------------------------------------------------------------------------*/
FoamFile
{
    version     2.0;
    format      ascii;
    class       pointVectorField;
    location    "500";
    object      pointDisplacement;
}
// * * * * * * * * * * * * * * * * * * * * * * * * * * * * * * * * * * * * * //

dimensions      [0 1 0 0 0 0 0];


internalField   nonuniform List<vector> 
10142
(
(0 0 0)
(0 0 0)
(0 0 0)
(0 0 0)
(0 0 0)
(0 0 0)
(0 0 0)
(0 0 0)
(0 0 0)
(0 0 0)
(0 0 0)
(0 0 0)
(0 0 0)
(0 0 0)
(0 0 0)
(0 0 0)
(0 0 0)
(0 0 0)
(0 0 0)
(0 0 0)
(0 0 0)
(0 0 0)
(0 0 0)
(0 0 0)
(0 0 0)
(0 0 0)
(0 0 0)
(0 0 0)
(0 0 0)
(0 0 0)
(0 0 0)
(0 0 0)
(0 0 0)
(0 0 0)
(0 0 0)
(0 0 0)
(0 0 0)
(0 0 0)
(0 0 0)
(0 0 0)
(0 0 0)
(0 0 0)
(0 0 0)
(0 0 0)
(0 0 0)
(0 0 0)
(0 0 0)
(0 0 0)
(0 0 0)
(0 0 0)
(0 0 0)
(0 0 0)
(0 0 0)
(0 0 0)
(0 0 0)
(0 0 0)
(0 0 0)
(0 0 0)
(0 0 0)
(0 0 0)
(0 0 0)
(0 0 0)
(0 0 0)
(0 0 0)
(0 0 0)
(0 0 0)
(0 0 0)
(0 0 0)
(0 0 0)
(0 0 0)
(0 0 0)
(0 0 0)
(0 0 0)
(0 0 0)
(0 0 0)
(0 0 0)
(0 0 0)
(0 0 0)
(0 0 0)
(0 0 0)
(0 0 0)
(0 0 0)
(0 0 0)
(0 0 0)
(0 0 0)
(0 0 0)
(0 0 0)
(0 0 0)
(0 0 0)
(0 0 0)
(0 0 0)
(0 0 0)
(0 0 0)
(0 0 0)
(0 0 0)
(0 0 0)
(0 0 0)
(0 0 0)
(0 0 0)
(0 0 0)
(0 0 0)
(0 0 0)
(0 0 0)
(0 0 0)
(0 0 0)
(0 0 0)
(0 0 0)
(0 0 0)
(0 0 0)
(0 0 0)
(0 0 0)
(0 0 0)
(0 0 0)
(0 0 0)
(0 0 0)
(0 0 0)
(0 0 0)
(0 0 0)
(0 0 0)
(0 0 0)
(0 0 0)
(0 0 0)
(0 0 0)
(0 0 0)
(0 0 0)
(0 0 0)
(0 0 0)
(0 0 0)
(0 0 0)
(0 0 0)
(0 0 0)
(0 0 0)
(0 0 0)
(0 0 0)
(0 0 0)
(0 0 0)
(0 0 0)
(0 0 0)
(0 0 0)
(0 0 0)
(0 0 0)
(0 0 0)
(0 0 0)
(0 0 0)
(0 0 0)
(0 0 0)
(0 0 0)
(0 0 0)
(0 0 0)
(0 0 0)
(0 0 0)
(0 0 0)
(0 0 0)
(0 0 0)
(0 0 0)
(0 0 0)
(0 0 0)
(0 0 0)
(0 0 0)
(0 0 0)
(0 0 0)
(0 0 0)
(0 0 0)
(0 0 0)
(0 0 0)
(0 0 0)
(0 0 0)
(0 0 0)
(0 0 0)
(0 0 0)
(0 0 0)
(0 0 0)
(0 0 0)
(0 0 0)
(0 0 0)
(0 0 0)
(0 0 0)
(0 0 0)
(0 0 0)
(0 0 0)
(0 0 0)
(0 0 0)
(0 0 0)
(0 0 0)
(0 0 0)
(0 0 0)
(0 0 0)
(0 0 0)
(0 0 0)
(0 0 0)
(0 0 0)
(0 0 0)
(0 0 0)
(0 0 0)
(0 0 0)
(0 0 0)
(0 0 0)
(0 0 0)
(0 0 0)
(0 0 0)
(0 0 0)
(0 0 0)
(0 0 0)
(0 0 0)
(0 0 0)
(0 0 0)
(0 0 0)
(0 0 0)
(0 0 0)
(0 0 0)
(0 0 0)
(0 0 0)
(0 0 0)
(0 0 0)
(0 0 0)
(0 0 0)
(0 0 0)
(0 0 0)
(0 0 0)
(0 0 0)
(0 0 0)
(0 0 0)
(0 0 0)
(0 0 0)
(0 0 0)
(0 0 0)
(0 0 0)
(0 0 0)
(0 0 0)
(0 0 0)
(0 0 0)
(0 0 0)
(0 0 0)
(0 0 0)
(0 0 0)
(0 0 0)
(0 0 0)
(0 0 0)
(0 0 0)
(0 0 0)
(0 0 0)
(0 0 0)
(0 0 0)
(0 0 0)
(0 0 0)
(0 0 0)
(0 0 0)
(0 0 0)
(0 0 0)
(0 0 0)
(0 0 0)
(0 0 0)
(0 0 0)
(0 0 0)
(0 0 0)
(0 0 0)
(0 -9.18896e-05 0)
(0 -0.00010214 0)
(0 -6.97433e-05 0)
(0 -8.30045e-05 0)
(0 -5.6371e-05 0)
(0 -8.59886e-05 0)
(0 -4.79964e-05 0)
(0 -9.36905e-05 0)
(0 -3.85389e-05 0)
(0 -6.88706e-05 0)
(0 -4.18472e-05 0)
(0 -2.89506e-05 0)
(0 -2.82347e-05 0)
(0 -8.61987e-05 0)
(0 -2.68376e-05 0)
(0 -2.07932e-05 0)
(0 -2.02817e-05 0)
(0 -9.88087e-05 0)
(0 -6.2306e-05 0)
(0 -5.31393e-05 0)
(0 -1.61314e-05 0)
(0 -1.10166e-05 0)
(0 -8.79301e-05 0)
(0 -0.000103634 0)
(0 -9.23674e-05 0)
(0 -9.1794e-05 0)
(0 -7.35721e-05 0)
(0 -3.07464e-05 0)
(0 -3.96173e-05 0)
(0 -3.67807e-05 0)
(0 -3.28612e-05 0)
(0 -1.07055e-05 0)
(0 -6.68932e-06 0)
(0 -5.77257e-06 0)
(0 -9.29854e-05 0)
(0 -0.000104281 0)
(0 -8.85985e-05 0)
(0 -8.01197e-05 0)
(0 -8.72352e-05 0)
(0 -6.39425e-05 0)
(0 -4.44723e-05 0)
(0 -5.33417e-05 0)
(0 -7.37865e-05 0)
(0 -1.85506e-05 0)
(0 -5.07374e-05 0)
(0 -3.53588e-05 0)
(0 -2.64089e-05 0)
(0 -2.16633e-05 0)
(0 -1.50007e-05 0)
(0 -2.57202e-05 0)
(0 -2.88542e-06 0)
(0 -0.000567576 0)
(0 -0.000543523 0)
(0 -0.000574337 0)
(0 -0.000549963 0)
(0 -0.000581466 0)
(0 -0.000557076 0)
(0 -0.000589298 0)
(0 -0.000565109 0)
(0 -0.000598102 0)
(0 -0.000574217 0)
(0 -0.000607697 0)
(0 -0.000584299 0)
(0 -0.000617704 0)
(0 -0.000594985 0)
(0 -0.00062911 0)
(0 -0.000605952 0)
(0 -0.000640928 0)
(0 -0.000618123 0)
(0 -0.000653834 0)
(0 -0.000632491 0)
(0 -0.000670184 0)
(0 -0.000647964 0)
(0 -0.000686834 0)
(0 -0.000664895 0)
(0 -0.00070311 0)
(0 -0.000683259 0)
(0 -0.000721726 0)
(0 -0.000702691 0)
(0 -0.000742688 0)
(0 -0.000723497 0)
(0 -0.000764016 0)
(0 -0.000745538 0)
(0 -0.000786326 0)
(0 -0.000768627 0)
(0 -0.000809918 0)
(0 -0.000793022 0)
(0 -0.000834984 0)
(0 -0.000818861 0)
(0 -0.00086048 0)
(0 -0.000844661 0)
(0 -0.00088536 0)
(0 -0.000870761 0)
(0 -0.000912047 0)
(0 -0.000897394 0)
(0 -0.000939166 0)
(0 -0.000924319 0)
(0 -0.000966601 0)
(0 -0.000952941 0)
(0 -0.000995815 0)
(0 -0.000982406 0)
(0 -0.00102501 0)
(0 -0.00101181 0)
(0 -0.00105498 0)
(0 -0.000967537 0)
(0 -0.000998465 0)
(0 -0.001067 0)
(0 -0.00109626 0)
(0 -0.000880667 0)
(0 -0.00072693 0)
(0 -0.000631653 0)
(0 -0.0011093 0)
(0 -0.00113731 0)
(0 -0.00115132 0)
(0 -0.00117852 0)
(0 -0.0011918 0)
(0 -0.00121839 0)
(0 -0.0012323 0)
(0 -0.00125949 0)
(0 -0.00127322 0)
(0 -0.00129995 0)
(0 -0.00131141 0)
(0 -0.00133772 0)
(0 -0.00134787 0)
(0 -0.00137502 0)
(0 -0.00138381 0)
(0 -0.00141107 0)
(0 -0.00141755 0)
(0 -0.00144339 0)
(0 -0.00144821 0)
(0 -0.00147183 0)
(0 -0.00147519 0)
(0 -0.00149671 0)
(0 -0.0014944 0)
(0 -0.00151897 0)
(0 -0.00151673 0)
(0 -0.00154123 0)
(0 -0.00153832 0)
(0 -0.00156254 0)
(0 -0.00155867 0)
(0 -0.00158221 0)
(0 -0.00157879 0)
(0 -0.00160194 0)
(0 -0.00159851 0)
(0 -0.00162129 0)
(0 -0.00161677 0)
(0 -0.00163824 0)
(0 -0.00163277 0)
(0 -0.00165347 0)
(0 -0.00164719 0)
(0 -0.00166766 0)
(0 -0.00167988 0)
(0 -0.00168537 0)
(0 -0.00169696 0)
(0 -0.00170672 0)
(0 -0.00158351 0)
(0 -0.00171172 0)
(0 -0.00172138 0)
(0 -0.00173432 0)
(0 -0.00174208 0)
(0 -0.0017529 0)
(0 -0.00175829 0)
(0 -0.0017615 0)
(0 -0.00176666 0)
(0 -0.00176997 0)
(0 -0.00177297 0)
(0 -0.00177562 0)
(0 -0.00177912 0)
(0 -0.00177897 0)
(0 -0.00178008 0)
(0 -0.00177799 0)
(0 -0.00177894 0)
(0 -0.0017767 0)
(0 -0.00177282 0)
(0 -0.0017736 0)
(0 -0.00176943 0)
(0 -0.00176356 0)
(0 -0.00175781 0)
(0 -0.00175048 0)
(0 -0.00174248 0)
(0 -0.00145284 0)
(0 -0.00174135 0)
(0 -0.00173288 0)
(0 -0.00172264 0)
(0 -0.00172015 0)
(0 -0.00171052 0)
(0 -0.00169712 0)
(0 -0.00168594 0)
(0 -0.00167097 0)
(0 -0.00165735 0)
(0 -0.00165432 0)
(0 -0.00164076 0)
(0 -0.00162545 0)
(0 -0.00162318 0)
(0 -0.00160839 0)
(0 -0.0015916 0)
(0 -0.00158965 0)
(0 -0.00157359 0)
(0 -0.000751502 0)
(0 -0.00155309 0)
(0 -0.00153513 0)
(0 -0.00151329 0)
(0 -0.00149381 0)
(0 -0.0014905 0)
(0 -0.00147137 0)
(0 -0.00145115 0)
(0 -0.00144778 0)
(0 -0.00142801 0)
(0 -0.00140386 0)
(0 -0.00138351 0)
(0 -0.0013594 0)
(0 -0.00133772 0)
(0 -0.00133434 0)
(0 -0.00131288 0)
(0 -0.00129056 0)
(0 -0.00128728 0)
(0 -0.00126537 0)
(0 -0.00123967 0)
(0 -0.000644425 0)
(0 -0.000570895 0)
(0 -0.00147908 0)
(0 -0.0014577 0)
(0 -0.00148348 0)
(0 -0.00146245 0)
(0 -0.00148713 0)
(0 -0.0014659 0)
(0 -0.00149284 0)
(0 -0.00146792 0)
(0 -0.00148974 0)
(0 -0.00146879 0)
(0 -0.0014879 0)
(0 -0.00146741 0)
(0 -0.00148483 0)
(0 -0.00146418 0)
(0 -0.00148047 0)
(0 -0.0014595 0)
(0 -0.00147349 0)
(0 -0.00145114 0)
(0 -0.0014634 0)
(0 -0.00143942 0)
(0 -0.00144982 0)
(0 -0.00147465 0)
(0 -0.00145859 0)
(0 -0.00148358 0)
(0 -0.00146532 0)
(0 -0.00148959 0)
(0 -0.0014247 0)
(0 -0.00141422 0)
(0 -0.00147015 0)
(0 -0.00149385 0)
(0 -0.0013991 0)
(0 -0.00138856 0)
(0 -0.00147242 0)
(0 -0.0014953 0)
(0 -0.0013733 0)
(0 -0.00136248 0)
(0 -0.00146689 0)
(0 -0.00149434 0)
(0 -0.00134689 0)
(0 -0.00133501 0)
(0 -0.00131984 0)
(0 -0.00130766 0)
(0 -0.00146724 0)
(0 -0.00149117 0)
(0 -0.00129282 0)
(0 -0.00128179 0)
(0 -0.00146132 0)
(0 -0.00148517 0)
(0 -0.0012663 0)
(0 -0.00125701 0)
(0 -0.00143932 0)
(0 -0.00124037 0)
(0 -0.00123257 0)
(0 -0.00145176 0)
(0 -0.00147649 0)
(0 -0.00124635 0)
(0 -0.00121513 0)
(0 -0.00120838 0)
(0 -0.00143932 0)
(0 -0.00146481 0)
(0 -0.00119068 0)
(0 -0.00118421 0)
(0 -0.00142451 0)
(0 -0.00144989 0)
(0 -0.00116627 0)
(0 -0.0011598 0)
(0 -0.00160958 0)
(0 -0.00140707 0)
(0 -0.00143259 0)
(0 -0.00114109 0)
(0 -0.00113528 0)
(0 -0.00115066 0)
(0 -0.00112656 0)
(0 -0.00111044 0)
(0 -0.00110243 0)
(0 -0.00126922 0)
(0 -0.00138771 0)
(0 -0.00141333 0)
(0 -0.00108546 0)
(0 -0.00107788 0)
(0 -0.00109198 0)
(0 -0.00106836 0)
(0 -0.00105261 0)
(0 -0.00104427 0)
(0 -0.00102726 0)
(0 -0.00101995 0)
(0 -0.00136651 0)
(0 -0.00139173 0)
(0 -0.00143729 0)
(0 -0.00141536 0)
(0 -0.00136797 0)
(0 -0.00139173 0)
(0 -0.00138263 0)
(0 -0.00105724 0)
(0 -0.000531731 0)
(0 -0.00100209 0)
(0 -0.000996259 0)
(0 -0.00143815 0)
(0 -0.00141501 0)
(0 -0.00136688 0)
(0 -0.00139044 0)
(0 -0.00134055 0)
(0 -0.00136412 0)
(0 -0.00141287 0)
(0 -0.00138652 0)
(0 -0.00133599 0)
(0 -0.00135813 0)
(0 -0.0011446 0)
(0 -0.00140752 0)
(0 -0.00137937 0)
(0 -0.00132837 0)
(0 -0.00135042 0)
(0 -0.00129795 0)
(0 -0.00132035 0)
(0 -0.00137322 0)
(0 -0.00134249 0)
(0 -0.00128931 0)
(0 -0.00131025 0)
(0 -0.00136083 0)
(0 -0.00132966 0)
(0 -0.00127807 0)
(0 -0.00129818 0)
(0 -0.000977609 0)
(0 -0.000973318 0)
(0 -0.000980986 0)
(0 -0.00124481 0)
(0 -0.00126456 0)
(0 -0.0013156 0)
(0 -0.00128264 0)
(0 -0.00123069 0)
(0 -0.00124896 0)
(0 -0.00144526 0)
(0 -0.00150527 0)
(0 -0.00129865 0)
(0 -0.00126534 0)
(0 -0.00121458 0)
(0 -0.00123153 0)
(0 -0.0011797 0)
(0 -0.001197 0)
(0 -0.00124555 0)
(0 -0.00121168 0)
(0 -0.00116172 0)
(0 -0.00117752 0)
(0 -0.00122616 0)
(0 -0.00119299 0)
(0 -0.00114162 0)
(0 -0.00115668 0)
(0 -0.00110412 0)
(0 -0.00111784 0)
(0 -0.00116611 0)
(0 -0.00112933 0)
(0 -0.00108009 0)
(0 -0.00109263 0)
(0 -0.00113997 0)
(0 -0.00110396 0)
(0 -0.0010559 0)
(0 -0.00106769 0)
(0 -0.00101927 0)
(0 -0.00103127 0)
(0 -0.00107674 0)
(0 -0.00104172 0)
(0 -0.000994991 0)
(0 -0.00100555 0)
(0 -0.000954184 0)
(0 -0.000950507 0)
(0 -0.000967435 0)
(0 -0.000945203 0)
(0 -0.000958744 0)
(0 -0.000937581 0)
(0 -0.000922834 0)
(0 -0.000916312 0)
(0 -0.000900771 0)
(0 -0.000894993 0)
(0 -0.00104998 0)
(0 -0.00101446 0)
(0 -0.000969618 0)
(0 -0.000979116 0)
(0 -0.000933874 0)
(0 -0.000943426 0)
(0 -0.000985761 0)
(0 -0.000950676 0)
(0 -0.000907916 0)
(0 -0.000916037 0)
(0 -0.000961169 0)
(0 -0.000922205 0)
(0 -0.000881463 0)
(0 -0.000886402 0)
(0 -0.000924291 0)
(0 -0.000890005 0)
(0 -0.000850485 0)
(0 -0.000854604 0)
(0 -0.00089282 0)
(0 -0.000857554 0)
(0 -0.000894314 0)
(0 -0.000859031 0)
(0 -0.000894149 0)
(0 -0.000858958 0)
(0 -0.000824013 0)
(0 -0.000824128 0)
(0 -0.000857384 0)
(0 -0.000822672 0)
(0 -0.000789582 0)
(0 -0.000788033 0)
(0 -0.000819525 0)
(0 -0.000784757 0)
(0 -0.00081476 0)
(0 -0.000779803 0)
(0 -0.000808393 0)
(0 -0.000773398 0)
(0 -0.00080051 0)
(0 -0.000765624 0)
(0 -0.000738631 0)
(0 -0.000731128 0)
(0 -0.000756648 0)
(0 -0.000722414 0)
(0 -0.000746481 0)
(0 -0.000712617 0)
(0 -0.000735297 0)
(0 -0.000701625 0)
(0 -0.00072302 0)
(0 -0.000679156 0)
(0 -0.000689474 0)
(0 -0.000709503 0)
(0 -0.000676202 0)
(0 -0.000694896 0)
(0 -0.000661818 0)
(0 -0.000679246 0)
(0 -0.000646238 0)
(0 -0.000662412 0)
(0 -0.000755269 0)
(0 -0.000628888 0)
(0 -0.000629428 0)
(0 -0.00064444 0)
(0 -0.000611487 0)
(0 -0.00062536 0)
(0 -0.00128843 0)
(0 -0.000878847 0)
(0 -0.000873995 0)
(0 -0.000592346 0)
(0 -0.000605065 0)
(0 -0.000947758 0)
(0 -0.000695385 0)
(0 -0.000857007 0)
(0 -0.000852713 0)
(0 -0.00124566 0)
(0 -0.000572021 0)
(0 -0.000583599 0)
(0 -0.000559348 0)
(0 -0.000616496 0)
(0 -0.000593971 0)
(0 -0.000626651 0)
(0 -0.000603144 0)
(0 -0.000756992 0)
(0 -0.00151775 0)
(0 -0.000834539 0)
(0 -0.000867409 0)
(0 -0.000835137 0)
(0 -0.00057054 0)
(0 -0.000578853 0)
(0 -0.000635467 0)
(0 -0.00083542 0)
(0 -0.000546284 0)
(0 -0.000553803 0)
(0 -0.000521211 0)
(0 -0.000528035 0)
(0 -0.000495347 0)
(0 -0.000501518 0)
(0 -0.000533896 0)
(0 -0.000506759 0)
(0 -0.000538736 0)
(0 -0.00151009 0)
(0 -0.000468742 0)
(0 -0.000462316 0)
(0 -0.00135528 0)
(0 -0.00134505 0)
(0 -0.000435617 0)
(0 -0.000429051 0)
(0 -0.000830565 0)
(0 -0.00164124 0)
(0 -0.000929509 0)
(0 -0.000814842 0)
(0 -0.000704346 0)
(0 -0.0015538 0)
(0 -0.000957224 0)
(0 -0.000781585 0)
(0 -0.000666291 0)
(0 -0.000597734 0)
(0 -0.000402324 0)
(0 -0.00039565 0)
(0 -0.00116579 0)
(0 -0.00036881 0)
(0 -0.000361981 0)
(0 -0.00145068 0)
(0 -0.000645905 0)
(0 -0.000476788 0)
(0 -0.000449567 0)
(0 -0.00143457 0)
(0 -0.000830086 0)
(0 -0.000855903 0)
(0 -0.000886159 0)
(0 -0.000881038 0)
(0 -0.00091152 0)
(0 -0.00090527 0)
(0 -0.000936059 0)
(0 -0.000928696 0)
(0 -0.000959675 0)
(0 -0.000951452 0)
(0 -0.000982219 0)
(0 -0.000973108 0)
(0 -0.00100405 0)
(0 -0.000994419 0)
(0 -0.00102463 0)
(0 -0.00101254 0)
(0 -0.00104312 0)
(0 -0.00102806 0)
(0 -0.00105956 0)
(0 -0.00104008 0)
(0 -0.00107578 0)
(0 -0.00105965 0)
(0 -0.0010921 0)
(0 -0.00107488 0)
(0 -0.00110693 0)
(0 -0.0003882 0)
(0 -0.00035444 0)
(0 -0.000379965 0)
(0 -0.000346203 0)
(0 -0.000370996 0)
(0 -0.000337191 0)
(0 -0.000361255 0)
(0 -0.000327531 0)
(0 -0.000350816 0)
(0 -0.000317352 0)
(0 -0.000339816 0)
(0 -0.000306727 0)
(0 -0.000328311 0)
(0 -0.00029566 0)
(0 -0.000316263 0)
(0 -0.000284177 0)
(0 -0.00030377 0)
(0 -0.000335651 0)
(0 -0.000322147 0)
(0 -0.000290865 0)
(0 -0.000308034 0)
(0 -0.000339211 0)
(0 -0.000323963 0)
(0 -0.000293589 0)
(0 -0.000308127 0)
(0 -0.000338359 0)
(0 -0.000321085 0)
(0 -0.00029194 0)
(0 -0.000303618 0)
(0 -0.000332647 0)
(0 -0.000313976 0)
(0 -0.000285845 0)
(0 -0.000294682 0)
(0 -0.000322648 0)
(0 -0.000301814 0)
(0 -0.00032928 0)
(0 -0.000275078 0)
(0 -0.000307198 0)
(0 -0.000334274 0)
(0 -0.000310952 0)
(0 -0.00033778 0)
(0 -0.000313158 0)
(0 -0.000340191 0)
(0 -0.000313811 0)
(0 -0.000340801 0)
(0 -0.000287865 0)
(0 -0.000312757 0)
(0 -0.000339394 0)
(0 -0.000357492 0)
(0 -0.000310132 0)
(0 -0.000336764 0)
(0 -0.000368818 0)
(0 -0.00030612 0)
(0 -0.000332671 0)
(0 -0.000280513 0)
(0 -0.000300485 0)
(0 -0.00032691 0)
(0 -0.000360202 0)
(0 -0.000354379 0)
(0 -0.000388736 0)
(0 -0.000382894 0)
(0 -0.000346982 0)
(0 -0.000375342 0)
(0 -0.000412245 0)
(0 -0.000404569 0)
(0 -0.000365967 0)
(0 -0.000395161 0)
(0 -0.000354714 0)
(0 -0.000383934 0)
(0 -0.000425492 0)
(0 -0.000414277 0)
(0 -0.000592857 0)
(0 -0.000629416 0)
(0 -0.000370994 0)
(0 -0.000401291 0)
(0 -0.000445462 0)
(0 -0.000432357 0)
(0 -0.000477361 0)
(0 -0.000464168 0)
(0 -0.000417435 0)
(0 -0.00044914 0)
(0 -0.000334993 0)
(0 -0.000341266 0)
(0 -0.000487167 0)
(0 -0.000459703 0)
(0 -0.000423003 0)
(0 -0.000433478 0)
(0 -0.000397797 0)
(0 -0.000408312 0)
(0 -0.000469193 0)
(0 -0.000373955 0)
(0 -0.000384667 0)
(0 -0.000921266 0)
(0 -0.000400704 0)
(0 -0.00043226 0)
(0 -0.000572546 0)
(0 -0.000611825 0)
(0 -0.000293825 0)
(0 -0.00108853 0)
(0 -0.00112101 0)
(0 -0.000993933 0)
(0 -0.000481488 0)
(0 -0.000464549 0)
(0 -0.000413612 0)
(0 -0.000445936 0)
(0 -0.000497672 0)
(0 -0.000479104 0)
(0 -0.000850082 0)
(0 -0.000531428 0)
(0 -0.000512761 0)
(0 -0.00045863 0)
(0 -0.00049201 0)
(0 -0.000546678 0)
(0 -0.00052576 0)
(0 -0.000469332 0)
(0 -0.000503056 0)
(0 -0.000559976 0)
(0 -0.00053727 0)
(0 -0.000478448 0)
(0 -0.00051266 0)
(0 -0.000572079 0)
(0 -0.000547561 0)
(0 -0.000607514 0)
(0 -0.000583127 0)
(0 -0.000521273 0)
(0 -0.000556834 0)
(0 -0.000619277 0)
(0 -0.000592987 0)
(0 -0.000528449 0)
(0 -0.000564647 0)
(0 -0.000629783 0)
(0 -0.000601645 0)
(0 -0.00066712 0)
(0 -0.000639177 0)
(0 -0.000571702 0)
(0 -0.000609222 0)
(0 -0.000676959 0)
(0 -0.000647037 0)
(0 -0.000577289 0)
(0 -0.000615421 0)
(0 -0.000685636 0)
(0 -0.000654619 0)
(0 -0.000725041 0)
(0 -0.000694602 0)
(0 -0.000622438 0)
(0 -0.000662655 0)
(0 -0.00073436 0)
(0 -0.000702499 0)
(0 -0.000628912 0)
(0 -0.000669341 0)
(0 -0.000742619 0)
(0 -0.000709635 0)
(0 -0.000633738 0)
(0 -0.000674163 0)
(0 -0.00074985 0)
(0 -0.000714644 0)
(0 -0.000789799 0)
(0 -0.000755037 0)
(0 -0.000678271 0)
(0 -0.000719162 0)
(0 -0.000795207 0)
(0 -0.000759892 0)
(0 -0.00068212 0)
(0 -0.000723647 0)
(0 -0.000800899 0)
(0 -0.000765478 0)
(0 -0.000841881 0)
(0 -0.000807329 0)
(0 -0.000729272 0)
(0 -0.000772055 0)
(0 -0.000848515 0)
(0 -0.000813978 0)
(0 -0.000734928 0)
(0 -0.000777777 0)
(0 -0.000856181 0)
(0 -0.000819536 0)
(0 -0.000737422 0)
(0 -0.000778296 0)
(0 -0.000859254 0)
(0 -0.000817803 0)
(0 -0.000897531 0)
(0 -0.000856463 0)
(0 -0.000774763 0)
(0 -0.000813594 0)
(0 -0.000894396 0)
(0 -0.000851694 0)
(0 -0.000768959 0)
(0 -0.000807412 0)
(0 -0.000889178 0)
(0 -0.000845058 0)
(0 -0.000925045 0)
(0 -0.000881166 0)
(0 -0.000799746 0)
(0 -0.0008363 0)
(0 -0.000915492 0)
(0 -0.00087119 0)
(0 -0.000947774 0)
(0 -0.00090439 0)
(0 -0.00097851 0)
(0 -0.000935988 0)
(0 -0.000860213 0)
(0 -0.000892643 0)
(0 -0.00096557 0)
(0 -0.000923975 0)
(0 -0.00099378 0)
(0 -0.000954178 0)
(0 -0.00102085 0)
(0 -0.000982642 0)
(0 -0.000915385 0)
(0 -0.000944978 0)
(0 -0.0010091 0)
(0 -0.000972002 0)
(0 -0.000907324 0)
(0 -0.000934829 0)
(0 -0.000869051 0)
(0 -0.000896989 0)
(0 -0.00103317 0)
(0 -0.000829906 0)
(0 -0.000857878 0)
(0 -0.000922072 0)
(0 -0.000883377 0)
(0 -0.000817239 0)
(0 -0.000842935 0)
(0 -0.000799073 0)
(0 -0.000944678 0)
(0 -0.000815925 0)
(0 -0.000775265 0)
(0 -0.000801246 0)
(0 -0.000732167 0)
(0 -0.000758981 0)
(0 -0.000825012 0)
(0 -0.000783401 0)
(0 -0.000845631 0)
(0 -0.000804825 0)
(0 -0.000742059 0)
(0 -0.000764215 0)
(0 -0.000823882 0)
(0 -0.000784581 0)
(0 -0.000723967 0)
(0 -0.000746392 0)
(0 -0.000703788 0)
(0 -0.000684201 0)
(0 -0.000709035 0)
(0 -0.000841732 0)
(0 -0.000754512 0)
(0 -0.00140457 0)
(0 -0.000263279 0)
(0 -0.000551307 0)
(0 -0.000593066 0)
(0 -0.00105935 0)
(0 -0.00150702 0)
(0 -0.0011016 0)
(0 -0.00113403 0)
(0 -0.000645381 0)
(0 -0.00111335 0)
(0 -0.00114614 0)
(0 -0.00116532 0)
(0 -0.0011786 0)
(0 -0.00115628 0)
(0 -0.00118915 0)
(0 -0.00121144 0)
(0 -0.00122168 0)
(0 -0.00119736 0)
(0 -0.00123002 0)
(0 -0.00125374 0)
(0 -0.0012621 0)
(0 -0.00128521 0)
(0 -0.00129373 0)
(0 -0.00126901 0)
(0 -0.0013009 0)
(0 -0.00132497 0)
(0 -0.00133238 0)
(0 -0.00130672 0)
(0 -0.00133841 0)
(0 -0.00136323 0)
(0 -0.00136927 0)
(0 -0.00139327 0)
(0 -0.0013996 0)
(0 -0.00137404 0)
(0 -0.0014045 0)
(0 -0.00142907 0)
(0 -0.00143418 0)
(0 -0.00140789 0)
(0 -0.00143774 0)
(0 -0.00146317 0)
(0 -0.0014669 0)
(0 -0.00143952 0)
(0 -0.00146887 0)
(0 -0.00149518 0)
(0 -0.00149727 0)
(0 -0.00152256 0)
(0 -0.00152482 0)
(0 -0.0014977 0)
(0 -0.0015253 0)
(0 -0.00155129 0)
(0 -0.00155177 0)
(0 -0.00157644 0)
(0 -0.00157709 0)
(0 -0.00155108 0)
(0 -0.00157631 0)
(0 -0.00160111 0)
(0 -0.00160014 0)
(0 -0.00157395 0)
(0 -0.00159774 0)
(0 -0.00162254 0)
(0 -0.00162025 0)
(0 -0.00159382 0)
(0 -0.00161649 0)
(0 -0.00164137 0)
(0 -0.00163774 0)
(0 -0.00166134 0)
(0 -0.00165807 0)
(0 -0.00163303 0)
(0 -0.00165378 0)
(0 -0.00167726 0)
(0 -0.00167323 0)
(0 -0.00164847 0)
(0 -0.00166822 0)
(0 -0.00169122 0)
(0 -0.00168598 0)
(0 -0.0017068 0)
(0 -0.00170145 0)
(0 -0.00167917 0)
(0 -0.0016949 0)
(0 -0.00171737 0)
(0 -0.00170809 0)
(0 -0.00168653 0)
(0 -0.00169902 0)
(0 -0.00171775 0)
(0 -0.00170834 0)
(0 -0.00172453 0)
(0 -0.00171431 0)
(0 -0.00169715 0)
(0 -0.00170242 0)
(0 -0.00171786 0)
(0 -0.00170518 0)
(0 -0.00171884 0)
(0 -0.00170561 0)
(0 -0.0016844 0)
(0 -0.00171787 0)
(0 -0.00170414 0)
(0 -0.00169099 0)
(0 -0.00168928 0)
(0 -0.00170089 0)
(0 -0.00168597 0)
(0 -0.00167382 0)
(0 -0.00167014 0)
(0 -0.00168051 0)
(0 -0.00166411 0)
(0 -0.000351622 0)
(0 -0.000363206 0)
(0 -0.000340722 0)
(0 -0.00039618 0)
(0 -0.000375205 0)
(0 -0.000409081 0)
(0 -0.000388293 0)
(0 -0.000355124 0)
(0 -0.000368317 0)
(0 -0.000333764 0)
(0 -0.000350546 0)
(0 -0.000383637 0)
(0 -0.000365852 0)
(0 -0.000334667 0)
(0 -0.000348786 0)
(0 -0.000319615 0)
(0 -0.000332513 0)
(0 -0.000304897 0)
(0 -0.000318763 0)
(0 -0.000336431 0)
(0 -0.000307071 0)
(0 -0.000312916 0)
(0 -0.00150563 0)
(0 -0.00173007 0)
(0 -0.000651166 0)
(0 -0.000941716 0)
(0 -0.000659152 0)
(0 -0.00106742 0)
(0 -0.00165806 0)
(0 -0.000401583 0)
(0 -0.000617948 0)
(0 -0.00101951 0)
(0 -0.000634029 0)
(0 -0.000689448 0)
(0 -0.000577837 0)
(0 -0.00167288 0)
(0 -0.00165592 0)
(0 -0.000967389 0)
(0 -0.000952951 0)
(0 -0.00097096 0)
(0 -0.00095407 0)
(0 -0.000970087 0)
(0 -0.000951305 0)
(0 -0.000966212 0)
(0 -0.000945611 0)
(0 -0.000958574 0)
(0 -0.000937006 0)
(0 -0.000948563 0)
(0 -0.000925067 0)
(0 -0.000925439 0)
(0 -0.000937368 0)
(0 -0.000911835 0)
(0 -0.000924054 0)
(0 -0.000950681 0)
(0 -0.000937579 0)
(0 -0.000965024 0)
(0 -0.000951486 0)
(0 -0.000979633 0)
(0 -0.000965914 0)
(0 -0.000994898 0)
(0 -0.000982015 0)
(0 -0.00101077 0)
(0 -0.000997711 0)
(0 -0.00102684 0)
(0 -0.00101394 0)
(0 -0.00104355 0)
(0 -0.00102997 0)
(0 -0.00106016 0)
(0 -0.00104537 0)
(0 -0.00107659 0)
(0 -0.0010627 0)
(0 -0.00109414 0)
(0 -0.00108102 0)
(0 -0.00111276 0)
(0 -0.00109997 0)
(0 -0.001132 0)
(0 -0.00111945 0)
(0 -0.00115169 0)
(0 -0.00113937 0)
(0 -0.000909043 0)
(0 -0.00095072 0)
(0 -0.0010115 0)
(0 -0.00117249 0)
(0 -0.00116019 0)
(0 -0.00106609 0)
(0 -0.00112056 0)
(0 -0.0011468 0)
(0 -0.00110521 0)
(0 -0.00119369 0)
(0 -0.00105743 0)
(0 -0.00111161 0)
(0 -0.00113397 0)
(0 -0.00120366 0)
(0 -0.00122553 0)
(0 -0.00109763 0)
(0 -0.00112008 0)
(0 -0.00115717 0)
(0 -0.00123383 0)
(0 -0.00125625 0)
(0 -0.00114335 0)
(0 -0.00118084 0)
(0 -0.00100756 0)
(0 -0.00107197 0)
(0 -0.000628228 0)
(0 -0.000937679 0)
(0 -0.00144162 0)
(0 -0.00110503 0)
(0 -0.00112845 0)
(0 -0.000290936 0)
(0 -0.000278291 0)
(0 -0.000283818 0)
(0 -0.000272446 0)
(0 -0.000658996 0)
(0 -0.00031959 0)
(0 -0.000309369 0)
(0 -0.00051045 0)
(0 -0.00112399 0)
(0 -0.000577617 0)
(0 -0.000980809 0)
(0 -0.000373033 0)
(0 -0.00166333 0)
(0 -0.00168029 0)
(0 -0.00164549 0)
(0 -0.00163802 0)
(0 -0.00112165 0)
(0 -0.00126217 0)
(0 -0.00124031 0)
(0 -0.00128509 0)
(0 -0.00127963 0)
(0 -0.000673969 0)
(0 -0.000727487 0)
(0 -0.000581635 0)
(0 -0.00162701 0)
(0 -0.0016194 0)
(0 -0.000547126 0)
(0 -0.000248698 0)
(0 -0.000253914 0)
(0 -0.0010131 0)
(0 -0.00107723 0)
(0 -0.00108911 0)
(0 -0.00060615 0)
(0 -0.000536676 0)
(0 -0.000547793 0)
(0 -0.000289335 0)
(0 -0.000281427 0)
(0 -0.00053893 0)
(0 -0.000526247 0)
(0 -0.00111347 0)
(0 -0.0013086 0)
(0 -0.00130348 0)
(0 -0.00126648 0)
(0 -0.00124471 0)
(0 -0.00135737 0)
(0 -0.000713365 0)
(0 -0.000764431 0)
(0 -0.000767647 0)
(0 -0.000747731 0)
(0 -0.000774757 0)
(0 -0.000755797 0)
(0 -0.000783617 0)
(0 -0.000764264 0)
(0 -0.000792909 0)
(0 -0.000773144 0)
(0 -0.000802707 0)
(0 -0.000782646 0)
(0 -0.000751886 0)
(0 -0.000761304 0)
(0 -0.000792724 0)
(0 -0.000771478 0)
(0 -0.00080306 0)
(0 -0.000782223 0)
(0 -0.00081434 0)
(0 -0.000793507 0)
(0 -0.000826606 0)
(0 -0.000805383 0)
(0 -0.000838437 0)
(0 -0.000818476 0)
(0 -0.000852003 0)
(0 -0.00083279 0)
(0 -0.000866249 0)
(0 -0.000847317 0)
(0 -0.000880964 0)
(0 -0.000862384 0)
(0 -0.00089782 0)
(0 -0.000878642 0)
(0 -0.0016516 0)
(0 -0.000667512 0)
(0 -0.000691122 0)
(0 -0.000218273 0)
(0 -0.000223218 0)
(0 -0.000915815 0)
(0 -0.000896699 0)
(0 -0.000300228 0)
(0 -0.000273228 0)
(0 -0.000775443 0)
(0 -0.000809553 0)
(0 -0.000799219 0)
(0 -0.000563473 0)
(0 -0.000494052 0)
(0 -0.000860229 0)
(0 -0.000748923 0)
(0 -0.000263841 0)
(0 -0.000269849 0)
(0 -0.00160803 0)
(0 -0.00160055 0)
(0 -0.00161028 0)
(0 -0.00068254 0)
(0 -0.00072709 0)
(0 -0.000901246 0)
(0 -0.00119892 0)
(0 -0.000498861 0)
(0 -0.000918278 0)
(0 -0.000518325 0)
(0 -0.00126905 0)
(0 -0.00124718 0)
(0 -0.00106563 0)
(0 -0.00104911 0)
(0 -0.00102686 0)
(0 -0.00161365 0)
(0 -0.000879531 0)
(0 -0.000894481 0)
(0 -0.000929913 0)
(0 -0.000941853 0)
(0 -0.000907993 0)
(0 -0.000974605 0)
(0 -0.000952246 0)
(0 -0.000919345 0)
(0 -0.000960608 0)
(0 -0.00092805 0)
(0 -0.000699464 0)
(0 -0.000723157 0)
(0 -0.000674882 0)
(0 -0.00172761 0)
(0 -0.00173911 0)
(0 -0.00173532 0)
(0 -0.00174609 0)
(0 -0.00174944 0)
(0 -0.0017408 0)
(0 -0.00108374 0)
(0 -0.00112087 0)
(0 -0.00114296 0)
(0 -0.00117881 0)
(0 -0.00119829 0)
(0 -0.00123378 0)
(0 -0.00124923 0)
(0 -0.00121387 0)
(0 -0.00121428 0)
(0 -0.00126162 0)
(0 -0.0012273 0)
(0 -0.00127117 0)
(0 -0.0012375 0)
(0 -0.00127806 0)
(0 -0.00124517 0)
(0 -0.00120422 0)
(0 -0.00121268 0)
(0 -0.00117133 0)
(0 -0.00118075 0)
(0 -0.0012197 0)
(0 -0.00118877 0)
(0 -0.00114907 0)
(0 -0.00115829 0)
(0 -0.00111835 0)
(0 -0.00112768 0)
(0 -0.00108796 0)
(0 -0.00164232 0)
(0 -0.000549878 0)
(0 -0.00158881 0)
(0 -0.000593709 0)
(0 -0.00069441 0)
(0 -0.000967525 0)
(0 -0.0014969 0)
(0 -0.000991942 0)
(0 -0.000937125 0)
(0 -0.000972967 0)
(0 -0.00100996 0)
(0 -0.00104374 0)
(0 -0.00107741 0)
(0 -0.00111087 0)
(0 -0.000875606 0)
(0 -0.000644021 0)
(0 -0.00167711 0)
(0 -0.0011384 0)
(0 -0.000823034 0)
(0 -0.00131117 0)
(0 -0.000915579 0)
(0 -0.000947454 0)
(0 -0.000986408 0)
(0 -0.000596393 0)
(0 -0.00173289 0)
(0 -0.00120411 0)
(0 -0.000423457 0)
(0 -0.000444668 0)
(0 -0.000460026 0)
(0 -0.000481405 0)
(0 -0.000862284 0)
(0 -0.000892572 0)
(0 -0.000930993 0)
(0 -0.00166321 0)
(0 -0.00168203 0)
(0 -0.00168263 0)
(0 -0.00170032 0)
(0 -0.00169982 0)
(0 -0.00171612 0)
(0 -0.00171631 0)
(0 -0.00173058 0)
(0 -0.00173054 0)
(0 -0.000753859 0)
(0 -0.000793155 0)
(0 -0.000819554 0)
(0 -0.000858241 0)
(0 -0.000543778 0)
(0 -0.00151838 0)
(0 -0.00154492 0)
(0 -0.00153892 0)
(0 -0.00156455 0)
(0 -0.00155708 0)
(0 -0.00158143 0)
(0 -0.00138551 0)
(0 -0.00141461 0)
(0 -0.00140524 0)
(0 -0.00143349 0)
(0 -0.00142243 0)
(0 -0.001275 0)
(0 -0.00130581 0)
(0 -0.00129334 0)
(0 -0.00132469 0)
(0 -0.000693001 0)
(0 -0.000730323 0)
(0 -0.000753548 0)
(0 -0.000789995 0)
(0 -0.000629874 0)
(0 -0.000682572 0)
(0 -0.000548255 0)
(0 -0.000365863 0)
(0 -0.000498204 0)
(0 -0.00066568 0)
(0 -0.000685786 0)
(0 -0.000721897 0)
(0 -0.000582367 0)
(0 -0.000597352 0)
(0 -0.000631818 0)
(0 -0.000644767 0)
(0 -0.00143983 0)
(0 -0.000293175 0)
(0 -0.000488621 0)
(0 -0.000521097 0)
(0 -0.000530378 0)
(0 -0.000563348 0)
(0 -0.000570637 0)
(0 -0.000604285 0)
(0 -0.000609919 0)
(0 -0.000576234 0)
(0 -0.000613375 0)
(0 -0.000580191 0)
(0 -0.000615344 0)
(0 -0.000582379 0)
(0 -0.000451986 0)
(0 -0.000885275 0)
(0 -0.000393242 0)
(0 -0.00072819 0)
(0 -0.000849493 0)
(0 -0.000780851 0)
(0 -0.000722956 0)
(0 -0.000413556 0)
(0 -0.000356358 0)
(0 -0.000880779 0)
(0 -0.00104986 0)
(0 -0.000927386 0)
(0 -0.000962721 0)
(0 -0.000958569 0)
(0 -0.000252411 0)
(0 -0.000231141 0)
(0 -0.00022095 0)
(0 -0.000199238 0)
(0 -0.000189741 0)
(0 -0.000208538 0)
(0 -0.000176172 0)
(0 -0.000184603 0)
(0 -0.0015129 0)
(0 -0.000930732 0)
(0 -0.0014746 0)
(0 -0.000284783 0)
(0 -0.000962422 0)
(0 -0.000361771 0)
(0 -0.000339612 0)
(0 -0.000309092 0)
(0 -0.000285374 0)
(0 -0.000210491 0)
(0 -0.000180008 0)
(0 -0.000199744 0)
(0 -0.000170063 0)
(0 -0.000188764 0)
(0 -0.000159991 0)
(0 -0.000177605 0)
(0 -0.000149796 0)
(0 -0.000166304 0)
(0 -0.000139526 0)
(0 -0.000154891 0)
(0 -0.000129213 0)
(0 -0.0001434 0)
(0 -0.0001189 0)
(0 -0.000131861 0)
(0 -0.000155807 0)
(0 -0.00014302 0)
(0 -0.00012034 0)
(0 -0.000130202 0)
(0 -0.000108862 0)
(0 -0.000117378 0)
(0 -0.000138193 0)
(0 -0.000123993 0)
(0 -0.000144347 0)
(0 -0.000128758 0)
(0 -0.000109841 0)
(0 -0.000113211 0)
(0 -0.000131658 0)
(0 -9.57889e-05 0)
(0 -0.000114722 0)
(0 -0.00013273 0)
(0 -0.000114397 0)
(0 -0.000132014 0)
(0 -0.000112289 0)
(0 -0.000129546 0)
(0 -9.61773e-05 0)
(0 -0.0001507 0)
(0 -0.000147866 0)
(0 -0.000125343 0)
(0 -0.000143279 0)
(0 -0.000119404 0)
(0 -0.000136964 0)
(0 -0.00016224 0)
(0 -0.000155593 0)
(0 -0.000128963 0)
(0 -0.000147419 0)
(0 -0.000151122 0)
(0 -0.000159872 0)
(0 -0.000170404 0)
(0 -9.74393e-05 0)
(0 -0.000755292 0)
(0 -0.000326663 0)
(0 -0.000213069 0)
(0 -0.000313693 0)
(0 -0.000286928 0)
(0 -0.000272381 0)
(0 -0.000246945 0)
(0 -0.000230919 0)
(0 -0.000206609 0)
(0 -0.00117102 0)
(0 -0.00117604 0)
(0 -0.00114253 0)
(0 -0.00114559 0)
(0 -0.00111186 0)
(0 -0.00117931 0)
(0 -0.00114711 0)
(0 -0.001181 0)
(0 -0.000312212 0)
(0 -0.000596514 0)
(0 -0.000809293 0)
(0 -0.000418412 0)
(0 -0.000390067 0)
(0 -0.000357139 0)
(0 -0.00032712 0)
(0 -0.000656243 0)
(0 -0.000181128 0)
(0 -0.00135491 0)
(0 -0.000267855 0)
(0 -0.000462776 0)
(0 -0.000430665 0)
(0 -0.00104217 0)
(0 -0.000506113 0)
(0 -0.000470834 0)
(0 -0.000433574 0)
(0 -0.000396986 0)
(0 -0.00140988 0)
(0 -0.0014087 0)
(0 -0.001378 0)
(0 -0.00137509 0)
(0 -0.00134366 0)
(0 -0.00122348 0)
(0 -0.000434534 0)
(0 -0.00150829 0)
(0 -0.00114861 0)
(0 -0.00156495 0)
(0 -0.0015586 0)
(0 -0.00153363 0)
(0 -0.00152585 0)
(0 -0.00149987 0)
(0 -0.00149065 0)
(0 -0.0015169 0)
(0 -0.00153161 0)
(0 -0.00154829 0)
(0 -0.000555918 0)
(0 -0.000516909 0)
(0 -0.00047637 0)
(0 -0.000435752 0)
(0 -0.000840645 0)
(0 -0.00166665 0)
(0 -0.000601802 0)
(0 -0.000561777 0)
(0 -0.00166247 0)
(0 -0.00165269 0)
(0 -0.00163613 0)
(0 -0.0016254 0)
(0 -0.00160752 0)
(0 -0.00159565 0)
(0 -0.00161308 0)
(0 -0.00127519 0)
(0 -0.00132884 0)
(0 -0.000259043 0)
(0 -0.000360112 0)
(0 -0.00040835 0)
(0 -0.00178007 0)
(0 -0.000652531 0)
(0 -0.000607743 0)
(0 -0.000565374 0)
(0 -0.00051873 0)
(0 -0.000476162 0)
(0 -0.00110888 0)
(0 -0.00168203 0)
(0 -0.000827097 0)
(0 -0.000359775 0)
(0 -0.000683833 0)
(0 -0.000636226 0)
(0 -0.00131295 0)
(0 -0.000394865 0)
(0 -0.000318279 0)
(0 -0.00177743 0)
(0 -0.00177791 0)
(0 -0.00169809 0)
(0 -0.0016804 0)
(0 -0.00115285 0)
(0 -0.00113879 0)
(0 -0.00117849 0)
(0 -0.00166011 0)
(0 -0.00164408 0)
(0 -0.00164448 0)
(0 -0.00162803 0)
(0 -0.00162669 0)
(0 -0.000780522 0)
(0 -0.00159136 0)
(0 -0.000396024 0)
(0 -0.000362116 0)
(0 -0.000315811 0)
(0 -0.00142776 0)
(0 -0.00134686 0)
(0 -0.00134038 0)
(0 -0.000497371 0)
(0 -0.000519109 0)
(0 -0.00131715 0)
(0 -0.00129 0)
(0 -0.00126499 0)
(0 -0.00141578 0)
(0 -0.0015128 0)
(0 -0.00150231 0)
(0 -9.27217e-05 0)
(0 -7.81765e-05 0)
(0 -0.0004859 0)
(0 -0.00044286 0)
(0 -0.000414506 0)
(0 -0.00150791 0)
(0 -0.000519252 0)
(0 -0.000477572 0)
(0 -0.000434947 0)
(0 -0.000922742 0)
(0 -0.000522725 0)
(0 -0.000234851 0)
(0 -0.000224569 0)
(0 -0.00177393 0)
(0 -0.00177333 0)
(0 -0.00177689 0)
(0 -0.000669594 0)
(0 -0.00108795 0)
(0 -0.000596307 0)
(0 -0.00054737 0)
(0 -0.000506733 0)
(0 -0.00144106 0)