/*--------------------------------*- C++ -*----------------------------------*\
| =========                 |                                                 |
| \\      /  F ield         | OpenFOAM: The Open Source CFD Toolbox           |
|  \\    /   O peration     | Version:  v2012                                 |
|   \\  /    A nd           | Website:  www.openfoam.com                      |
|    \\/     M anipulation  |                                                 |
\*---------------------------------------------------------------------------*/
FoamFile
{
    version     2.0;
    format      ascii;
    class       volScalarField;
    location    "200";
    object      ddt0(k);
}
// * * * * * * * * * * * * * * * * * * * * * * * * * * * * * * * * * * * * * //

dimensions      [0 2 -3 0 0 0 0];


internalField   nonuniform List<scalar> 
9793
(
2.32159e-08
-0.00110011
2.09824e-07
0.000196489
1.44033e-07
4.9217e-07
5.88953e-08
0.00286198
1.73356e-09
0.00078801
1.61122e-07
1.63674e-07
-9.81672e-09
0.00165223
4.84024e-07
9.9619e-08
4.60096e-07
-2.30597e-07
-0.000485722
3.36355e-07
1.58883e-07
1.4061e-10
0.000345175
0.00280276
0.00161878
9.72347e-09
6.07767e-08
-5.35177e-08
3.42283e-07
4.50944e-07
0.000341911
4.79587e-05
3.68257e-07
1.57176e-07
3.95628e-07
2.96711e-07
-1.23313e-07
1.20089e-07
-0.000597318
2.81843e-07
3.57996e-07
-0.00237389
0.00342684
8.22865e-08
-3.35987e-08
-7.75373e-08
0.00169397
8.93867e-08
-6.50733e-08
-1.51479e-07
3.19791e-07
3.28343e-07
4.46186e-07
9.66118e-08
1.68015e-08
0.000227166
-5.87387e-08
1.30037e-06
-4.62129e-08
1.84452e-10
6.72712e-08
4.20692e-07
1.44912e-07
1.47833e-07
-9.64616e-08
-2.23925e-08
0.000838528
3.13521e-07
-1.43691e-07
0.0010375
8.39182e-08
7.95709e-08
0.00268027
-0.0564227
0.000815456
1.27422e-07
-4.49811e-07
0.000532864
1.09448e-07
8.46806e-08
-1.13224e-07
-0.000285754
5.24456e-07
1.08867e-07
-1.34851e-07
1.37535e-05
1.89236e-07
1.87876e-06
-0.000562468
-3.80966e-07
0.000436935
0.0011252
0.00363738
1.75382e-07
0.00303311
2.29652e-08
0.00145067
2.83127e-07
2.67755e-07
1.36023e-07
0.000653494
4.82636e-07
0.00993678
-2.27398e-08
-0.00155733
0.00267654
-0.0599627
2.38451e-07
6.92676e-08
1.28826e-07
1.39762e-07
0.000394868
1.07613e-07
-5.08068e-05
5.88988e-08
3.23133e-07
-1.97707e-09
-2.15756e-07
0.00021822
-3.69875e-08
-0.00243961
1.91643e-06
0.00112681
6.57703e-07
-1.27657e-07
-7.17558e-08
3.97683e-07
0.000473573
6.31417e-06
5.29336e-06
-7.41842e-08
2.85226e-07
-3.26808e-09
2.97294e-07
2.37896e-07
5.28317e-07
1.1431e-05
-8.48216e-09
5.57393e-08
5.0685e-07
0.000268229
2.95073e-07
-2.43379e-07
1.34239e-06
0.00176845
-5.36752e-05
-5.0624e-08
0.00156793
2.00636e-07
-8.40178e-08
1.97034e-07
-9.32048e-05
1.7677e-07
6.33718e-08
8.54796e-08
-6.15182e-05
4.78876e-07
1.30056e-09
-5.2656e-05
1.31969e-07
1.66208e-06
1.0968e-07
1.57084e-07
8.42839e-07
2.61785e-08
0.000285834
0.0121237
5.11417e-08
5.25653e-08
1.42201e-08
-9.76384e-08
7.39118e-05
0.00548411
5.98205e-05
-7.53084e-09
1.17048e-06
-1.45583e-07
4.14929e-06
8.45242e-08
2.86661e-07
-0.0011326
0.00160145
1.94346e-06
-9.99854e-08
-1.11691e-07
1.4959e-07
-0.000525749
0.00234968
-0.00315679
0.00604468
7.408e-10
0.000768234
-1.70986e-06
4.66858e-08
1.33062e-07
2.5396e-08
-2.71922e-07
4.18755e-09
-2.08644e-07
-3.57523e-08
7.50796e-09
2.00211e-07
3.38446e-07
8.19352e-08
-0.000639586
-9.69214e-08
2.81922e-07
6.5477e-08
4.85222e-08
-1.52307e-05
5.81533e-07
0.000555902
1.89619e-07
0.000737829
1.50765e-07
-7.58998e-07
3.76672e-07
3.40076e-07
2.53488e-07
-8.25655e-08
3.22232e-07
1.90639e-07
-2.32568e-06
0.00138199
1.96865e-07
8.4963e-09
8.34558e-07
0.00510243
3.07321e-07
2.17124e-07
-9.48857e-05
2.02687e-06
-7.98209e-07
1.88735e-07
-4.24194e-06
1.22122e-09
0.000512804
5.6269e-05
-7.68815e-08
3.86703e-08
-0.00321838
6.10568e-08
1.47283e-07
1.67227e-06
2.02303e-06
-1.11666e-08
2.83177e-07
2.95793e-07
1.6484e-07
1.74015e-07
1.00432e-07
1.51664e-07
-0.000283538
1.28566e-07
0.000792418
1.34761e-07
-2.2923e-07
3.99974e-07
0.000200914
-4.33646e-08
0.00161724
-0.000181069
2.85545e-07
1.28942e-07
-0.00269936
1.36231e-07
2.19987e-07
3.40434e-08
-0.000274745
2.39575e-06
-8.95855e-08
3.83337e-06
1.13235e-06
0.0112656
0.000364152
1.51675e-07
-0.000307334
-2.33847e-07
0.00572183
3.81482e-05
-0.000133448
-0.00211009
2.17192e-06
-8.57985e-08
4.86748e-07
6.31846e-08
2.82708e-07
4.16293e-08
-3.85527e-06
6.57715e-09
9.8567e-08
-1.37656e-08
3.05865e-08
3.35763e-07
1.61488e-07
0.000379268
6.53871e-08
4.98818e-07
4.24865e-07
1.77731e-08
-0.000922256
4.24996e-05
-1.89861e-08
1.15668e-07
1.34996e-06
6.28442e-07
-0.0274224
-0.000507676
-3.9491e-08
0.000253053
1.07976e-07
6.17489e-08
-0.00070732
-0.0496773
4.13622e-07
2.45945e-07
0.000163671
9.07378e-08
-6.13935e-08
4.94315e-07
8.06167e-08
0.00476018
-1.4281e-07
1.42473e-07
-5.30147e-08
1.25651e-07
4.23894e-07
-8.78786e-07
1.49657e-07
3.352e-07
2.73965e-08
5.76965e-05
0.0001916
9.63691e-05
-8.84504e-09
-6.1837e-08
-9.57275e-08
8.00826e-05
9.84338e-07
-6.97929e-08
-1.17074e-07
2.71607e-08
4.47815e-07
-6.96431e-08
0.000919666
3.43336e-07
1.29272e-07
-0.00150639
0.000365211
0.000304958
3.5732e-07
0.000541007
-2.26486e-10
-2.12286e-06
0.00208845
-0.000162005
2.17677e-07
2.77721e-07
-7.25164e-05
0.000494049
0.000395613
6.34943e-08
-1.34453e-07
-6.8382e-08
-5.14065e-08
4.4861e-07
-4.51305e-08
-1.19683e-07
-3.00728e-12
0.000847353
2.04838e-08
3.52803e-07
3.26077e-07
-0.011991
-7.24644e-08
9.88283e-08
0.0003298
9.90008e-07
0.00202185
9.65907e-07
-4.14243e-08
2.24271e-07
1.56859e-07
3.50595e-05
4.54061e-08
8.73031e-05
-1.37845e-07
-7.33571e-08
0.000369134
0.00529182
5.46701e-07
1.22857e-07
-0.0001223
4.17746e-05
-2.10588e-07
0.00185359
6.44592e-07
-2.24419e-07
1.71385e-05
3.39814e-08
1.32309e-06
4.39131e-10
0.0110236
1.98355e-07
1.91278e-08
-0.00311814
-2.03809e-07
9.99592e-07
4.28202e-08
1.88977e-08
-8.56196e-08
0.00187465
3.2161e-07
-1.14938e-07
1.34756e-07
5.20852e-08
-6.50329e-08
6.13751e-07
0.00158474
-1.43982e-07
2.46549e-07
1.94348e-05
9.47176e-09
-0.000261333
-4.98651e-06
-1.12489e-07
3.44497e-07
6.50872e-08
6.35667e-07
-6.6016e-08
0.000652945
3.9829e-07
0.000217792
-1.90698e-08
1.17159e-07
6.34473e-07
1.12613e-07
0.000291991
1.08463e-07
5.76191e-08
3.13697e-07
9.47694e-05
1.30847e-08
9.09519e-08
2.18332e-08
1.89837e-08
5.34381e-09
1.94919e-07
-1.6009e-07
3.17987e-07
-3.93179e-09
7.00947e-08
1.65971e-06
-2.45624e-07
5.032e-06
-2.79462e-08
6.25798e-07
0.000639786
2.83698e-07
-0.00433078
4.44851e-07
1.14382e-07
3.33067e-07
-3.08129e-07
-0.00336016
1.15768e-06
2.96984e-07
3.69632e-07
-2.36317e-07
3.22336e-08
1.32625e-07
0.00110812
-1.1303e-07
3.9577e-09
3.18645e-08
0.00159166
-5.54442e-05
-3.00869e-08
3.69093e-07
0.000830131
-0.00159786
-1.74546e-06
-9.88011e-08
2.65174e-07
-0.000704921
-1.77096e-07
2.03742e-08
-0.0131939
2.43001e-08
4.74924e-07
3.03284e-07
0.000583447
-7.99908e-08
-0.000718487
4.41195e-05
1.89458e-07
-0.00050881
-9.4695e-08
5.35618e-07
1.14453e-07
5.24869e-08
2.85206e-07
-1.64821e-07
0.000304998
-8.03302e-09
1.15675e-08
1.02072e-07
-1.89966e-08
3.47271e-07
1.88271e-07
1.24422e-07
1.29472e-07
3.15567e-07
2.28711e-07
3.20348e-05
2.87741e-08
-2.13028e-08
6.19501e-05
7.26051e-08
-6.4566e-09
8.61601e-08
-5.51244e-09
-0.00022093
-8.78954e-09
-1.29123e-07
0.00099135
-0.00310121
9.30647e-08
-2.70733e-07
1.12511e-07
9.21586e-08
2.16577e-08
0.00135329
4.97089e-09
-0.00451756
-1.31749e-07
-5.94308e-06
1.47949e-07
0.000777546
1.95898e-08
9.77375e-07
-1.45899e-07
2.49157e-06
-0.000280801
1.52881e-07
0.00044934
3.63315e-07
2.88289e-08
1.17743e-07
-0.000278467
-0.000453344
-2.12042e-07
3.18544e-07
-3.60271e-08
0.00140205
-3.96837e-07
9.72386e-08
-0.000648671
1.08189e-07
-3.2669e-07
-2.19443e-07
1.5613e-08
6.36982e-08
1.02303e-08
1.50707e-06
-2.29147e-07
0.000441937
2.85326e-08
2.89139e-09
3.82811e-07
9.93396e-07
-0.000864739
5.23104e-07
0.000976985
1.10284e-07
9.11154e-07
1.93354e-07
1.39705e-08
-4.53115e-08
-7.05699e-08
1.0381e-07
6.03789e-06
-5.27614e-07
0.00139329
1.56269e-06
4.32126e-08
6.65298e-08
-0.000390871
2.91264e-07
0.00136601
0.00125826
1.13629e-06
0.00974784
-0.00987227
4.52787e-07
1.05496e-07
-1.35876e-06
1.9417e-07
-4.78978e-08
2.12429e-06
6.00689e-08
-3.69731e-06
1.19171e-07
2.5829e-06
-4.39918e-09
0.000316303
0.00227434
2.23304e-07
3.58695e-06
-1.01915e-08
9.58814e-06
-2.58569e-08
-1.87539e-07
-1.32301e-07
7.19349e-08
2.20976e-07
-0.000173681
3.87467e-06
0.00217714
2.96647e-07
2.68786e-08
0.000657824
3.65621e-07
5.69454e-07
8.58095e-07
7.84239e-08
9.34267e-06
-0.00415266
-2.14992e-07
-1.84944e-09
-9.12201e-06
0.00135114
1.86045e-08
-7.1343e-08
0.00392975
2.9092e-07
-0.00106564
2.92454e-06
-0.015419
1.89078e-08
2.78718e-07
6.487e-08
1.56625e-07
1.50751e-06
2.59978e-08
0.000107731
9.62033e-07
-2.36607e-07
1.72198e-08
-1.30128e-07
2.56999e-08
2.20657e-07
4.17648e-07
-2.29248e-08
1.63923e-06
-0.00396336
0.0014889
-6.4973e-08
-2.10921e-05
-3.21759e-07
0.000836592
1.00649e-06
4.25828e-07
-8.21378e-08
5.11323e-05
2.95318e-07
2.03624e-07
2.19649e-08
-9.87284e-08
2.21433e-08
7.54979e-07
0.000992183
2.19604e-07
6.26401e-06
-0.000639216
2.51607e-07
0.00502569
-0.000937672
9.38354e-08
3.21578e-07
1.13281e-07
1.00197e-08
1.24333e-07
-3.91003e-07
-0.000444638
0.00305639
3.05718e-08
-5.49414e-08
4.0607e-07
-6.70075e-08
1.27277e-07
1.07793e-07
-2.82669e-06
9.83508e-07
5.60997e-07
-0.000778672
3.27144e-07
6.10365e-08
1.31179e-07
-7.9285e-06
-6.58179e-08
-3.16654e-07
1.01848e-06
1.0971e-06
-6.17849e-08
-1.93205e-07
1.3716e-07
-9.57571e-08
3.3506e-07
2.88901e-07
2.31304e-05
7.90696e-08
1.53143e-06
6.38903e-07
4.80478e-08
-0.00169009
0.000223158
3.45252e-06
2.57513e-07
5.3422e-08
-0.0204342
1.03087e-07
-0.00419076
1.36947e-07
1.69332e-07
4.95006e-05
0.00168722
2.31118e-07
1.54101e-06
-5.63012e-09
1.01496e-07
-2.00267e-08
-1.22908e-08
0.00180512
-1.60732e-07
1.26379e-11
0.000535891
1.36854e-08
-1.11602e-05
-6.13669e-08
-6.30028e-08
-6.87135e-05
-3.98323e-07
7.5091e-08
-1.25154e-08
1.01343e-07
0.000201754
-2.21633e-07
-4.78105e-08
-5.32158e-08
1.16342e-08
-3.21941e-07
1.45102e-07
0.0122085
1.29463e-07
-3.67108e-08
-1.18883e-07
5.95468e-08
4.32224e-07
8.93956e-08
-4.22828e-09
6.39027e-08
3.48304e-07
2.49402e-07
-0.000372612
0.00201034
1.00524e-07
0.00284507
3.34059e-08
-4.32918e-09
-0.00299197
6.63901e-06
2.11829e-07
-2.14808e-07
-5.10747e-07
8.33938e-07
-3.15621e-07
1.48034e-07
1.8148e-05
4.36858e-08
2.83846e-07
3.31818e-07
1.18091e-06
1.45022e-07
-2.36204e-07
2.01713e-07
1.2509e-07
8.99839e-08
-8.82841e-08
7.30234e-08
-1.87836e-07
-1.19085e-07
-2.35403e-08
5.05818e-09
1.65645e-08
1.22134e-07
6.21972e-08
2.59593e-07
3.72706e-07
1.12815e-06
0.00210339
3.40518e-07
6.80911e-07
-7.11084e-09
1.26933e-08
3.05475e-05
-0.0274921
-4.97305e-08
0.00415936
0.00042499
1.14843e-07
-1.14737e-07
2.57317e-07
3.24587e-07
1.27221e-06
3.35287e-06
2.28617e-08
3.96016e-07
2.18253e-08
7.59271e-08
-2.14103e-07
8.5822e-08
6.49054e-08
1.56494e-05
3.75414e-08
2.03538e-07
2.75114e-08
2.16784e-08
1.48014e-07
-5.5166e-07
-2.71881e-08
0.000975807
-0.00537764
0.00424539
7.62716e-07
1.7659e-07
9.50624e-05
-1.8975e-06
1.50719e-06
1.2046e-07
-4.23643e-08
4.7707e-06
2.56079e-07
0.000183356
-1.07623e-08
-5.28421e-08
4.28799e-08
-1.37894e-07
4.26968e-07
-0.00134915
0.00180669
0.000235556
-6.29207e-08
0.000267119
3.7098e-08
-0.00359375
0.00310721
4.52827e-08
2.49582e-08
4.50641e-07
-0.00649311
3.0704e-08
0.00358968
3.87005e-08
1.34842e-06
-2.26537e-08
0.000825644
0.000566261
-2.15476e-06
1.59493e-07
3.68073e-07
-3.18094e-07
0.00467433
3.03915e-07
-6.34111e-07
-8.42869e-07
-5.02606e-07
0.00226674
0.00105927
1.86103e-07
1.54275e-07
-2.52679e-07
5.6962e-06
0.00317836
0.000189783
4.16236e-07
2.83755e-06
-1.1529e-07
2.03148e-06
-1.45721e-07
0.0010838
0.00119668
-1.13162e-07
-2.78826e-08
2.92606e-07
-1.43635e-07
1.39352e-07
0.00189833
-1.41394e-07
0.00269515
-4.86733e-07
-8.02798e-08
6.36588e-07
1.60531e-06
-0.00417069
2.80411e-07
0.0105708
-0.00142987
-1.02483e-05
3.85195e-08
-5.85492e-08
2.78172e-07
-2.34726e-08
1.53165e-07
6.6877e-05
-0.00297729
-1.80056e-08
1.85725e-07
1.97139e-07
-9.03016e-06
3.79328e-07
-1.04915e-07
6.21261e-07
6.47881e-09
-4.21031e-08
1.62962e-07
1.49442e-06
-5.28493e-08
1.78255e-10
0.000335182
3.47338e-07
1.96921e-07
4.51632e-06
3.68045e-07
-5.94342e-08
1.68955e-07
4.32924e-07
5.48534e-08
-3.07234e-07
2.81251e-07
0.0100944
-0.00432116
7.41357e-08
4.58553e-07
-9.62963e-08
1.14121e-05
6.85116e-08
-0.00261418
3.34493e-07
5.05569e-07
3.25546e-07
1.6194e-05
8.748e-07
-1.14429e-07
2.13207e-07
0.00162074
0.000480432
-5.77114e-06
1.38374e-05
-1.90547e-07
2.74526e-07
3.50785e-07
-7.5304e-05
-5.03704e-08
-0.00446955
1.31092e-07
-2.76564e-08
4.80793e-08
-4.13917e-08
-1.03557e-07
-3.14339e-08
8.84784e-08
-0.00339381
7.60097e-09
1.14012e-07
1.95999e-08
2.3626e-08
0.00193979
0.000252202
1.11745e-06
0.000363119
-1.1052e-07
5.99281e-08
3.61347e-07
-0.00448913
2.9652e-07
5.92427e-08
-0.000214673
4.79302e-08
1.00346e-07
2.52533e-08
1.69564e-06
-0.00171354
-0.000839657
-7.85456e-08
-2.53037e-09
-1.86019e-06
-1.16386e-07
-0.00040028
1.08649e-06
5.6345e-07
-4.72159e-09
1.42638e-07
1.55248e-06
8.67327e-07
-2.89248e-07
3.81766e-06
5.11621e-07
-2.49404e-07
-3.38501e-09
3.88847e-07
-4.34957e-08
8.63099e-08
-2.31344e-06
3.61898e-07
3.24243e-07
2.52318e-07
3.16527e-07
1.88553e-07
1.34461e-07
-0.000691214
1.33178e-07
1.2198e-07
0.00187636
-1.30346e-07
0.000558517
-2.75867e-08
0.000165579
1.66535e-07
7.91312e-08
-8.08594e-08
2.15526e-07
-0.000287277
2.92334e-06
3.97666e-07
1.65534e-07
2.47027e-07
1.92437e-07
1.15564e-07
3.08208e-08
0.000651424
2.96152e-07
1.78366e-07
1.47406e-06
-3.00903e-07
-0.00166373
3.12389e-07
0.0047824
1.48346e-09
5.11571e-07
-6.05927e-08
-3.09343e-07
1.5566e-06
7.45457e-08
0.00127415
8.53307e-07
-5.30183e-08
-0.0010678
7.53232e-07
8.85244e-08
6.7406e-08
1.51263e-07
1.76018e-09
7.31913e-08
-0.00102172
8.90344e-07
3.68232e-07
-1.72767e-05
2.88384e-07
-0.00098153
-3.69289e-07
-3.03754e-07
0.00338959
1.82555e-07
-1.49833e-07
9.05736e-08
0.000945042
0.00610406
1.05987e-06
-7.79135e-09
-1.26311e-07
2.74217e-05
4.12344e-09
1.27005e-07
-1.8851e-07
-4.74561e-08
1.69024e-07
-0.00273626
3.27145e-08
-5.41132e-08
2.44309e-09
2.99839e-08
6.45855e-06
1.61545e-06
3.58722e-09
-8.47996e-08
1.7325e-07
-0.000759033
-0.0016702
4.70943e-07
3.94654e-07
4.64525e-07
1.98366e-07
0.00121371
0.0100438
5.61126e-06
-5.82412e-08
2.25083e-07
0.00488367
-0.0199877
1.34547e-07
0.0069683
-1.80655e-08
3.28968e-07
-0.000314875
1.4375e-07
0.00108912
0.000799851
1.39431e-06
0.000577751
-0.0030534
2.40957e-07
1.42647e-08
9.6043e-06
-7.89882e-05
7.11657e-09
0.000494975
2.83661e-07
1.35148e-07
-3.54341e-08
3.03305e-07
5.24593e-07
3.04878e-07
-2.09476e-07
0.000668664
4.76828e-07
-2.53049e-09
-1.03741e-07
-6.93114e-08
6.53519e-07
3.53248e-07
2.82921e-06
1.93517e-07
1.54354e-07
3.38034e-08
-4.95633e-08
-8.46553e-08
8.25439e-08
8.90621e-06
2.64902e-07
6.31808e-08
0.000444086
0.00100291
1.59733e-06
1.31296e-07
3.09876e-07
2.24487e-07
7.53421e-08
-0.00371145
-0.00115606
-9.71123e-08
2.32834e-07
-0.00326514
-0.000764762
2.16093e-07
1.03174e-09
0.00339038
5.86323e-07
1.70505e-07
-4.67588e-08
-1.0479e-07
2.12584e-07
-2.79204e-08
0.00242648
2.11001e-05
-3.764e-08
-1.56626e-06
7.91459e-07
0.000484353
0.00303476
-0.001369
5.12317e-07
1.11265e-07
2.85113e-07
1.30885e-07
-1.20172e-07
9.26596e-07
-7.37199e-08
1.40442e-07
2.41707e-07
-0.00366867
2.70516e-07
0.000580665
-3.79598e-08
0.00154452
2.27601e-07
-4.11467e-06
-4.5261e-08
8.12421e-07
1.47277e-05
8.79507e-08
-5.65174e-08
0.00519639
6.73543e-07
-0.00228262
-1.11157e-07
-0.00401902
3.38492e-07
0.0025588
-1.10056e-05
1.57686e-07
7.15983e-08
-3.69501e-07
0.000438724
0.00128132
2.36695e-07
-1.39697e-07
-0.00129867
1.73941e-07
6.63611e-07
0.000699956
8.48914e-07
1.29391e-07
-0.0211375
6.63992e-08
1.4409e-07
1.46929e-07
-0.00251746
1.50199e-07
7.00462e-08
-1.30814e-05
-5.1206e-06
-1.1793e-07
3.60319e-07
-9.9582e-08
-1.28994e-06
3.38876e-08
-4.82938e-06
6.00225e-08
5.95137e-08
-1.91751e-07
-1.14793e-07
-0.000342863
2.75108e-07
0.00289374
-0.0329341
-0.000239695
1.00524e-07
2.69463e-07
2.25421e-07
2.82417e-07
5.36673e-07
4.59465e-07
0.000306611
2.44741e-07
-0.000117804
1.20914e-07
-5.88049e-09
-6.92884e-08
1.58669e-06
4.35304e-06
5.55989e-05
2.17467e-08
0.000301712
-9.19216e-09
-0.000368352
3.72806e-06
7.95292e-07
6.94739e-09
-6.01737e-08
2.91182e-07
-0.00129603
1.55772e-07
2.25432e-08
2.67669e-07
7.10107e-07
-9.1818e-10
8.87586e-05
-0.000662603
1.67992e-06
3.98557e-07
3.02762e-07
0.00278223
-1.42305e-07
-2.32928e-08
3.75985e-07
0.000479985
1.57889e-07
6.94902e-08
3.1294e-07
-5.82104e-08
4.25936e-07
0.00739486
8.54092e-08
1.20216e-06
-1.96037e-06
1.31061e-05
2.6048e-05
-2.2064e-07
6.90948e-08
0.0101794
-8.45003e-08
6.22116e-08
1.28835e-06
2.39705e-07
3.0276e-07
0.00167029
9.14487e-08
-6.0422e-07
4.31947e-09
-3.50291e-07
1.15113e-07
7.69202e-07
-6.43644e-08
3.12865e-07
0.00367537
-5.69099e-06
2.03089e-07
3.20432e-08
3.43473e-07
-0.00149668
-5.98142e-06
-1.02301e-05
-6.46496e-08
-1.14949e-07
1.93905e-07
-0.00104963
1.96864e-07
-0.00222704
3.74974e-07
0.00446915
-1.97334e-07
-2.73085e-08
1.52302e-07
3.27682e-07
-7.2242e-08
6.76303e-06
0.00103617
0.00122804
3.78066e-06
3.67868e-07
-4.47106e-06
1.69486e-07
1.81541e-06
6.30862e-07
2.75449e-07
2.21115e-08
1.20573e-07
3.59077e-07
1.62134e-06
3.86776e-08
1.11443e-07
5.97816e-08
-0.000924837
-0.000567005
-1.93725e-07
-0.00104268
1.54661e-08
3.2829e-07
-8.71776e-08
1.84275e-07
1.23434e-07
2.51987e-07
3.94387e-07
0.00449341
4.00314e-08
-2.41318e-07
3.78493e-07
1.99881e-07
0.00189296
1.58089e-07
4.89672e-06
1.28551e-07
2.8916e-07
0.00195054
-5.32509e-07
2.91079e-07
4.98612e-07
-3.6752e-06
0.000678235
0.00998036
4.57449e-07
1.91386e-06
1.0879e-06
3.85989e-05
1.42203e-07
-0.00105833
0.00039377
6.3066e-08
-1.00114e-07
-9.88926e-08
-6.2047e-06
-1.40768e-07
8.25714e-08
0.00103567
1.19991e-07
-4.15958e-08
8.13007e-06
1.47243e-06
0.000660138
0.000827569
2.76956e-06
0.000345888
-7.87242e-08
3.41788e-08
4.37749e-07
-3.40101e-08
-0.00260805
3.92331e-08
0.000341227
1.65492e-07
0.00272007
3.44203e-08
-1.53175e-08
4.14182e-07
-5.79031e-09
1.7573e-07
1.32096e-07
3.36996e-07
1.39506e-05
2.84816e-07
1.09666e-06
9.51554e-09
0.000333654
6.62421e-08
-3.65289e-07
4.21477e-07
7.33797e-07
2.02137e-07
3.05393e-07
3.1088e-07
8.91334e-08
-1.88443e-07
4.725e-07
2.5729e-07
-7.09171e-08
-0.0190326
0.00139265
0.00225165
-0.000791215
1.41031e-07
-1.07442e-07
6.08924e-09
5.78511e-07
2.1995e-07
1.24921e-07
1.52386e-05
1.44029e-07
4.72196e-08
-9.75372e-08
3.76007e-07
-2.55252e-08
0.00107847
3.59989e-08
-1.04962e-07
0.00405054
8.55421e-07
6.10289e-07
6.78283e-05
0.00140828
1.74758e-07
1.84163e-05
-5.30014e-06
1.70008e-07
-2.01093e-07
6.51845e-09
1.63264e-07
-2.35112e-08
-4.19131e-07
1.04254e-08
-1.06522e-07
-2.39987e-07
3.1839e-07
0.00083482
-3.60275e-07
2.57194e-07
-1.62126e-07
7.66329e-10
0.00323885
8.12413e-08
-3.89873e-08
1.52458e-07
1.75158e-07
1.06523e-07
4.14632e-07
-4.50254e-05
-0.000392609
0.000702052
2.11743e-06
5.35985e-08
-1.55003e-07
0.0133784
-3.5756e-06
1.2652e-07
8.02316e-07
8.14966e-11
2.8077e-07
-3.80039e-07
0.00448716
2.30561e-07
-2.94638e-07
2.62037e-07
1.89402e-06
3.93596e-08
-3.57376e-06
-3.8957e-07
5.89291e-07
1.2693e-06
-0.00926474
-8.70942e-08
-9.11304e-09
-5.17673e-08
1.12667e-07
5.98752e-08
4.45752e-08
9.9258e-08
-0.00832886
-2.01837e-09
-3.15433e-07
0.00446547
2.29181e-08
-0.00126524
-8.21794e-08
-2.02027e-07
5.00648e-07
7.02472e-08
1.91086e-08
5.95247e-07
4.59455e-07
3.31342e-07
-5.09326e-08
-0.0178848
0.000530809
1.54316e-07
1.26536e-07
-1.20639e-06
2.02065e-07
4.04461e-06
4.948e-06
2.82128e-07
2.22201e-07
6.64983e-08
-2.04938e-07
6.28079e-07
-3.02704e-07
0.00546526
1.28e-07
-2.48924e-07
-5.43105e-07
0.000698745
5.99349e-06
-0.000801345
2.37438e-07
5.0299e-08
-1.33483e-06
3.50372e-06
4.0259e-07
0.000211932
2.30342e-08
-1.93422e-05
3.48154e-07
3.13971e-07
3.61043e-05
-0.000186398
-4.94696e-08
1.84918e-07
1.85196e-07
8.2949e-06
1.19161e-06
3.49421e-07
5.60653e-08
-7.82582e-08
5.57788e-07
8.1784e-08
0.00201017
3.01646e-07
8.24172e-07
0.00215389
2.22774e-07
2.66652e-06
0.000414874
0.00016893
0.0048815
5.29889e-07
-7.26115e-08
-0.000587491
1.63253e-07
1.89477e-07
-1.95342e-06
-0.000282513
-3.52962e-08
-6.51627e-08
0.00029402
-1.06142e-06
6.21497e-07
0.00402352
-0.000925887
0.000809196
-1.14615e-07
-5.54895e-08
8.20922e-08
2.96685e-07
0.0237544
1.21772e-08
2.55274e-06
3.2718e-05
5.19953e-08
3.26183e-08
-8.23585e-05
6.58884e-08
3.09173e-07
7.47137e-08
-1.10712e-08
-0.000159465
-0.00100533
-8.63639e-08
-4.17648e-08
-3.66598e-07
-0.0318744
4.68874e-06
0.000128715
1.36533e-07
1.60698e-07
1.11651e-09
-2.71991e-07
1.21223e-06
-5.23436e-08
1.01742e-07
-0.038415
-4.48381e-07
-0.000115948
1.27836e-08
1.18641e-07
-4.18074e-08
-0.000459173
2.50983e-08
3.02512e-08
4.00982e-07
-6.99046e-09
-1.57903e-08
0.000108017
-0.00252359
-0.000801567
-1.80221e-05
0.000255184
2.36523e-07
6.20651e-08
0.00555204
8.92213e-08
4.49054e-06
-0.00718851
2.85655e-08
0.00395761
-0.000889345
2.18038e-07
8.96855e-08
-1.49925e-06
6.24254e-08
-3.3608e-06
2.03053e-07
0.000402009
3.054e-07
1.37398e-07
1.80294e-08
9.51624e-06
4.89506e-07
-2.81692e-07
0.000434742
0.00660597
-1.33486e-07
1.58319e-06
3.88906e-06
2.02057e-07
-2.63773e-06
0.00114263
1.61478e-07
5.82702e-07
-0.00415706
-2.4626e-08
9.40357e-08
-1.98694e-07
4.6458e-07
6.68973e-07
1.61604e-07
9.53661e-08
-2.73448e-05
-1.19678e-07
0.000400764
0.000307083
-0.000823748
7.98742e-08
-8.31775e-06
0.00106311
1.71486e-09
-0.00310142
-0.0101134
-0.00252071
6.3065e-09
6.33502e-08
0.000690022
-1.2441e-05
-1.26607e-07
3.75262e-06
4.60006e-07
1.75772e-08
-7.67015e-07
6.36893e-08
8.22861e-05
0.00125005
-0.000407439
-0.0018168
1.32467e-07
5.14615e-07
4.38952e-08
1.13375e-07
-2.32769e-07
7.6256e-07
2.01563e-07
-5.01202e-06
0.000155263
-3.44586e-10
2.3219e-07
-6.31881e-06
4.2089e-08
-4.64237e-06
1.19018e-08
-3.41398e-05
3.79962e-05
1.61492e-05
0.00318921
0.000129038
0.000415518
0.000144719
-0.000822032
-1.03566e-06
4.98699e-08
5.20612e-07
3.37817e-07
0.00203732
-0.00356765
3.11218e-07
-5.69196e-07
0.000504264
0.000299673
3.79306e-08
0.000509977
1.16264e-07
-7.13874e-07
-0.00194693
-0.0282056
1.98755e-07
0.000457095
-1.27714e-05
-6.96902e-08
1.86949e-07
0.00381475
0.00371992
0.00199711
0.00230435
1.71555e-07
0.00355441
0.000226326
1.37527e-07
6.63574e-07
-2.24642e-07
2.52239e-07
2.89414e-07
0.000172803
-0.00150125
3.29755e-07
-1.42299e-07
0.000598959
-6.25291e-07
-0.000831106
7.431e-08
1.86819e-06
0.000262697
-2.08328e-08
0.00183239
4.2712e-08
-1.69347e-07
-1.92894e-07
-4.33242e-07
-5.08045e-07
1.54014e-07
3.12234e-06
6.4041e-08
-0.00220686
2.44462e-06
-0.00312832
1.06888e-05
0.000328839
2.51889e-07
-0.00119999
-6.85486e-07
8.44707e-05
1.46738e-07
2.21009e-07
-0.00121778
-4.13091e-05
-0.00156662
-2.31201e-09
-5.32247e-08
-2.72517e-07
-0.000134661
0.000235974
1.18059e-07
-0.0199431
-5.99674e-08
-8.63956e-08
0.000869723
-9.91225e-09
0.0127643
7.83412e-08
-8.27777e-07
0.000452931
0.00204389
-0.000130195
5.1629e-06
-7.19513e-05
0.000154887
-7.76127e-05
8.91865e-08
0.000389478
-1.28966e-07
-9.32402e-08
2.26121e-08
-7.3371e-08
0.000222888
1.38707e-08
1.16939e-05
-0.000346591
-2.92351e-07
-1.82107e-06
3.57596e-06
-0.000734664
-8.76491e-08
0.00337818
0.000474688
1.13736e-06
1.78198e-07
7.24941e-08
-0.000338147
3.01543e-07
-2.65558e-06
0.000768363
-0.0010699
5.71472e-07
-3.2294e-07
2.1489e-07
-7.0477e-07
-5.72188e-08
1.38627e-07
3.21889e-07
0.000111139
-7.40551e-07
-9.27391e-08
0.000758655
2.35433e-06
-2.87477e-05
-0.015821
0.000423209
-0.000123547
-0.00133265
0.000633566
-0.00067652
-3.76138e-07
4.19041e-07
-2.54509e-08
-3.87875e-06
4.15246e-07
3.46389e-07
4.19529e-08
9.21029e-09
3.66486e-07
1.87504e-06
-0.00703308
-2.20573e-07
-2.02491e-07
5.73047e-07
0.000358988
2.2137e-07
3.83189e-07
1.71745e-07
0.00021013
-4.16853e-07
6.57896e-07
-1.82294e-07
5.26348e-08
1.44225e-06
4.84165e-07
-1.87385e-07
1.55425e-07
-8.73482e-07
-1.14421e-07
1.24302e-07
-9.48769e-08
-0.00914256
-2.12712e-08
0.00330992
-1.89778e-07
0.000220282
-3.85153e-08
3.63271e-09
-3.05961e-08
3.81312e-06
-2.07134e-07
9.25832e-05
-0.000878889
-2.55548e-07
8.8237e-08
6.40688e-09
0.0017054
0.00170946
2.98604e-07
7.74595e-07
-0.000461616
1.7619e-07
8.18693e-08
2.87094e-07
6.66783e-08
1.7364e-07
0.00091732
3.49756e-07
-1.67035e-07
0.00271323
3.3858e-08
1.06061e-09
3.43812e-06
2.34089e-07
3.58991e-07
1.89581e-07
0.00316284
6.11384e-08
7.81012e-08
-1.98666e-08
1.72583e-07
3.34219e-07
4.29759e-08
-0.00717191
1.68924e-05
1.33454e-07
4.77043e-07
-0.0012691
-9.17242e-08
5.5955e-08
-3.4602e-07
6.86464e-05
0.0030528
7.69823e-08
0.00363185
0.00137874
3.1399e-07
0.000153254
-0.00160038
0.000583505
-0.00261553
1.23285e-06
1.71666e-06
-7.90297e-06
1.90271e-07
-2.47927e-07
-5.29718e-08
1.77319e-07
0.00132658
3.21306e-07
-0.000218758
-4.08102e-08
-6.3385e-07
-5.55218e-09
6.48536e-08
2.26999e-07
0.0116907
-0.000776415
0.000372222
0.000518843
2.27546e-07
2.08843e-06
0.00208013
2.49674e-07
-0.000762982
-7.43559e-08
-7.24434e-09
-0.00071207
-1.29663e-06
2.8037e-07
1.28899e-06
-4.74108e-07
2.40442e-07
0.000284429
-0.000710676
3.2476e-07
-2.49814e-07
-1.97802e-07
1.67223e-07
0.000364936
2.48952e-07
2.12995e-07
-4.57874e-08
9.75914e-08
-5.65655e-08
-4.67913e-08
0.0010456
1.62627e-07
1.30579e-07
-4.06244e-09
8.3404e-07
3.13538e-07
-3.53747e-08
7.73017e-05
0.000562076
7.65854e-07
-3.20945e-07
2.29862e-07
3.0665e-08
1.63424e-06
4.35106e-05
1.86735e-07
0.000143176
-0.0156717
1.53691e-07
1.77143e-07
-6.29544e-07
3.88403e-07
4.52457e-08
0.00362829
5.51874e-07
-6.16133e-08
3.12769e-07
-0.00128748
0.00205257
9.29779e-08
2.06708e-06
2.26319e-07
-2.37067e-07
1.81399e-06
2.9902e-05
-7.61505e-08
4.15982e-07
-0.00111831
1.54575e-08
-3.56954e-08
4.55835e-08
0.00687142
0.000306769
2.7691e-07
-3.49705e-06
-1.74165e-07
6.57164e-07
1.74884e-06
-1.55352e-07
0.000340068
8.28187e-08
-9.30833e-08
0.00249496
3.89238e-06
3.05401e-07
2.51432e-07
-4.17837e-06
1.96986e-07
1.33101e-07
2.17269e-06
-8.12399e-08
-1.0157e-07
0.00145098
3.24131e-07
2.15912e-07
-0.00111288
-2.71074e-07
0.000717126
0.0023974
3.41439e-07
1.47754e-06
1.10606e-06
3.76385e-08
1.64255e-06
4.15708e-07
0.00637465
-7.88184e-06
-7.27107e-08
-0.00374819
0.00243853
2.65782e-08
-1.18898e-07
1.11984e-06
-9.7708e-09
0.000436103
0.000560062
-6.02508e-08
2.69432e-07
0.000651528
4.70265e-07
1.01202e-06
2.05546e-06
1.37306e-07
0.00372002
5.73473e-06
3.32029e-08
9.25253e-07
-0.00177599
1.63938e-08
-0.0135485
1.92537e-07
1.22866e-08
1.84217e-08
6.62388e-08
-0.00377091
-2.5413e-07
-3.78476e-07
0.0153575
-0.000751116
-3.97592e-08
1.83953e-07
2.36734e-06
0.000875535
1.01632e-07
0.00142997
4.26514e-07
7.42878e-08
5.7016e-07
1.91508e-07
2.64906e-07
-1.5996e-08
2.63302e-07
-0.00915706
-2.63607e-07
-1.46307e-07
2.08598e-07
0.00370999
2.83531e-08
-4.12147e-08
2.72622e-08
2.91856e-07
5.41563e-08
3.2395e-07
0.000199803
-0.0010146
1.50257e-07
-3.63154e-08
-2.38376e-07
8.03217e-08
6.02999e-07
0.00670697
0.000506536
6.64625e-08
-0.000134338
2.3076e-07
-7.61179e-06
0.000792501
0.000413472
5.4222e-07
5.90719e-08
1.03978e-06
0.00264075
5.79378e-07
2.60284e-07
0.00109673
-6.43812e-07
-9.56303e-08
-0.00614795
-1.30244e-07
-4.17947e-08
5.27557e-08
-0.00438641
1.29341e-07
-0.0129028
-4.09522e-08
0.0069501
1.34077e-07
-3.56961e-07
0.00817412
5.90978e-08
-7.95356e-08
-4.99935e-06
-7.70043e-08
2.28582e-06
0.00039982
2.7472e-06
3.92582e-08
-1.30234e-06
1.0009e-07
7.56179e-07
2.72402e-07
-0.00096828
-4.49619e-08
2.49943e-07
2.53705e-08
1.54759e-07
7.14054e-07
0.00194029
-0.0425194
-8.51736e-08
1.1042e-07
1.80116e-07
-0.0219565
-0.00314578
7.04583e-07
1.12628e-07
-3.87994e-07
-8.82413e-08
0.00574132
7.65301e-08
2.19453e-07
0.00659927
1.29167e-06
-5.27775e-08
4.07376e-06
1.08474e-06
2.90566e-07
3.83993e-07
7.19851e-07
-6.41063e-06
1.20894e-07
1.6161e-07
-0.00139182
0.00109928
-4.42408e-05
-7.70394e-08
1.46099e-07
2.16142e-07
1.97699e-08
2.80398e-07
6.00575e-07
2.86082e-07
1.08626e-06
0.00430821
8.05275e-08
-9.03225e-08
0.000474696
1.096e-05
0.00027618
3.95676e-06
8.64583e-08
9.81461e-08
-5.071e-10
3.28842e-07
2.91056e-07
7.29051e-07
9.36944e-08
-8.79055e-09
-1.50936e-07
1.56842e-07
1.62351e-07
1.76645e-07
4.39149e-08
-1.93511e-07
1.47078e-07
2.37722e-07
3.24599e-07
-4.05171e-08
9.67499e-08
-2.27085e-07
-1.17791e-07
4.97831e-08
9.23493e-07
5.04362e-08
1.73623e-07
1.51475e-07
2.46024e-07
0.000571605
-0.00023812
9.71353e-06
-0.00432801
-0.00731486
1.3642e-06
-1.0045e-07
2.51721e-07
9.42731e-09
-2.73126e-05
1.21062e-08
1.15993e-07
1.3548e-07
7.67379e-07
-9.5008e-08
4.97427e-07
-4.69884e-08
0.00249431
2.72403e-06
-9.88796e-10
0.0030088
-0.00323145
-5.70742e-08
4.18871e-06
-9.03728e-08
-1.53502e-08
9.15947e-07
1.37861e-07
3.56e-07
-9.12773e-07
-6.02284e-08
-5.98255e-08
2.68168e-07
-0.000746837
2.57072e-08
2.13711e-07
0.000570427
1.46241e-07
-0.000753353
6.75459e-07
0.000277811
9.44107e-08
0.000374969
-9.10382e-08
-2.11009e-08
1.539e-06
7.91034e-07
4.02977e-05
-0.000374124
6.76701e-05
0.00292452
6.2956e-07
3.18883e-07
6.03311e-07
1.57082e-06
-1.99699e-08
2.23919e-07
-3.75138e-08
7.62104e-08
-3.87505e-08
8.33723e-08
2.47697e-07
1.21551e-06
-0.0399825
0.000505068
6.45067e-06
-0.000608437
2.14076e-07
-1.73306e-08
6.98227e-07
1.08046e-07
1.05311e-06
1.31557e-07
-1.34235e-07
3.62644e-08
2.39095e-07
8.79911e-10
2.12814e-06
2.39173e-06
2.21563e-07
-7.54173e-08
-3.72024e-08
-9.42971e-10
-0.000285193
0.00122421
2.87493e-07
4.78991e-07
-8.80754e-08
0.00742476
0.000823373
2.16208e-07
3.10892e-07
1.67078e-07
-1.4834e-07
-0.000177385
-3.59411e-06
0.00182973
-5.82573e-08
-0.0297343
9.90321e-08
-0.000194953
5.843e-07
5.84862e-08
2.45794e-07
-0.00888407
6.08425e-08
2.59175e-07
1.73117e-07
2.90155e-07
-0.00323569
1.19748e-08
3.39206e-07
1.13572e-07
5.67349e-05
5.09565e-07
-0.000741945
-0.0355292
6.99122e-08
4.01979e-07
6.2341e-05
1.78904e-06
1.28059e-07
-0.121372
0.0517864
0.00717795
-0.0482379
2.82759e-07
6.40511e-07
-3.99559e-08
0.001833
0.00475192
-7.02259e-06
1.86434e-06
1.33979e-07
0.00045466
3.018e-07
1.3077e-07
1.2061e-07
0.00151505
-2.09109e-07
-0.00235733
-1.03756e-07
-6.64242e-08
-2.41594e-08
5.74849e-05
5.95852e-08
6.6676e-08
-2.33571e-07
0.00168423
0.000217341
0.00433014
0.000394936
4.12697e-07
1.02145e-07