/*--------------------------------*- C++ -*----------------------------------*\
| =========                 |                                                 |
| \\      /  F ield         | OpenFOAM: The Open Source CFD Toolbox           |
|  \\    /   O peration     | Version:  v2012                                 |
|   \\  /    A nd           | Website:  www.openfoam.com                      |
|    \\/     M anipulation  |                                                 |
\*---------------------------------------------------------------------------*/
FoamFile
{
    version     2.0;
    format      ascii;
    class       volScalarField;
    location    "200";
    object      omega_0;
}
// * * * * * * * * * * * * * * * * * * * * * * * * * * * * * * * * * * * * * //

dimensions      [0 0 -1 0 0 0 0];


internalField   nonuniform List<scalar> 
9793
(
0.0223793
15.6412
0.021936
2.63096
0.0222597
0.210509
0.0842046
5.23341
0.0221513
15.9635
0.0221967
0.0221874
0.021917
1.75816
0.0217868
0.0265725
0.0539866
0.021931
2.15128
0.0215568
0.0216245
0.0222917
2.66397
5.33507
1.83575
0.026623
0.0220993
0.022262
0.0215672
0.0814916
7.86868
0.386657
0.0220115
0.0219448
0.0218679
0.0287006
0.0246075
0.0249437
1.57323
0.0310604
0.0698748
9.11899
4.09316
0.0222717
0.0219609
0.0220422
5.91856
0.0222844
0.0217139
0.0219383
0.0284037
0.0218509
0.037949
0.0222686
0.0331603
2.20196
0.021926
0.0925616
0.0217208
0.0222914
0.0270457
0.0980323
0.0219512
0.0354919
0.021963
0.0220765
26.2591
0.0242769
0.0250856
3.07984
0.021973
0.102732
4.81177
4.25276
4.1192
0.0222624
0.0458914
10.5999
0.0219819
0.0222705
0.0498582
2.08001
0.0521481
0.0239923
0.0251111
0.250296
0.0222612
0.0694337
1.58663
0.0941245
1.85709
1.50944
1.59937
0.0414876
3.80204
0.0219034
4.64192
0.0507753
0.0248064
0.0222685
1.45847
0.0360874
2.42466
0.0219661
3.43096
10.1907
4.12123
0.0218777
0.021986
0.0222835
0.0222336
2.19165
3.28468
7.57463
0.0219505
0.0221126
0.0243867
0.0220503
1.87412
0.0220279
2.97661
0.0745217
6.59785
0.042813
0.0246392
0.0220336
0.0616226
6.1698
0.19003
0.198347
0.0238698
0.0218006
0.0222751
0.0234558
0.0275427
0.164344
0.690663
0.0244278
0.0222737
0.0619371
2.17591
0.0278133
0.0219307
0.0566012
5.73252
0.629871
0.0220343
4.45355
0.0217968
0.0220282
0.0220699
14.0824
0.0243337
0.0220923
0.0219186
1.32305
0.0576192
0.0219461
0.605703
0.021913
0.0653274
0.0239835
0.0216315
0.359977
0.0220863
9.88137
2.27564
0.0222863
0.0218789
0.0222174
0.0219441
6.24657
26.569
1.94351
0.0219103
0.191167
0.138598
0.753168
0.0219667
0.0242183
3.8192
7.16402
0.0814952
0.022035
0.0220729
0.0218723
7.18495
4.66976
22.0592
2.56901
0.0220005
21.5441
0.420317
0.02544
0.0217567
0.023318
1.98656
0.0215938
0.0219288
0.022204
0.0219919
0.0216244
0.0295426
0.0252294
1.75578
0.0219254
0.0282821
0.0222838
0.0223363
0.436683
0.0594101
2.31366
0.0216319
2.65073
0.0240139
0.0431253
0.0218
0.159744
0.0221214
0.0504792
0.0543893
0.0216278
1.4207
2.06816
0.0397188
0.0218886
0.0520364
2.08541
0.0496423
0.0505021
1.60596
0.140929
0.0408722
0.0362272
0.371868
0.0215891
4.54488
6.45102
0.0215997
0.0222223
8.71599
0.0219005
0.0222313
0.112448
0.12527
0.022067
0.0242452
0.0293884
0.0383718
0.0243165
0.0219729
0.0443922
2.96055
0.0216252
1.9687
0.022262
0.0221701
0.0216581
2.12634
0.0219774
3.43562
2.67285
0.0221033
0.0221311
3.95742
0.0218324
0.0222397
0.0217961
2.4186
0.270617
0.02498
0.442542
0.086776
2.31942
3.94841
0.0223106
22.514
0.0222643
2.07532
7.72725
1.63175
3.06788
0.137225
0.023897
0.0480966
0.0248333
0.0217901
0.0223868
0.453814
0.0267894
0.0221396
0.0222838
0.0216293
0.0216527
0.0216285
2.52677
0.021868
0.0217773
0.0218375
0.021919
5.52226
0.603607
0.0639818
0.0228762
0.0571727
0.0219424
2.72237
10.2151
0.0219714
3.11667
0.0336206
0.0219551
24.7175
3.83485
0.0220194
0.0466132
13.2199
0.0221333
0.0339544
0.0217777
0.022221
2.18052
0.0411293
0.0219543
0.0220215
0.0227473
0.175775
3.33987
0.02194
0.0218716
0.0217474
6.96079
4.43387
6.94973
0.0215846
0.0435756
0.0347666
2.17544
0.0697858
0.0215834
0.0216413
0.0217478
0.0466008
0.0220598
6.81886
0.0220882
0.0217765
2.66358
2.43545
2.31181
0.0217235
1.45087
0.0247437
4.09394
6.24245
1.67898
0.023649
0.0323608
0.807939
1.7254
2.11147
0.0264919
0.0222634
0.0253578
0.021681
0.0218522
0.0220396
0.0220816
0.022292
7.93106
0.0222066
0.0617991
0.0306435
6.36679
0.0215781
0.0240814
5.12579
0.498776
1.85608
0.0678245
0.0217802
0.0237323
0.0219397
0.469329
0.021565
2.2405
0.162523
0.0845338
5.72199
2.21413
0.0221374
0.0218885
1.12569
0.434336
0.0219245
5.48395
0.0221314
0.0221757
6.71505
0.0216301
0.0944589
0.0215995
2.28659
0.0220935
0.0220981
2.70503
0.0968907
0.0531992
0.0254256
0.0220748
0.0218317
5.9591
0.0505616
0.0215684
0.0221947
0.0343637
0.0347557
0.0526433
6.93816
0.0221957
0.0219416
0.395514
0.0220813
2.55195
0.714749
0.0220647
0.0220164
0.0223549
0.0221165
0.0217319
1.47771
0.0509112
6.81648
0.0289338
0.0233966
0.0430331
0.0246584
1.74149
0.0262964
0.0222678
0.0242901
0.520632
0.0219392
0.0219165
0.0219721
0.0215679
0.0219865
0.0217961
0.0220439
0.0221577
0.0228797
0.0247887
0.111537
0.0219256
1.4709
0.0256774
0.215381
5.02691
0.0217978
2.84741
0.0823129
0.0217662
0.0215682
0.0219355
3.53469
0.088259
0.0215648
0.0221205
0.0221972
0.0674717
0.155483
10.4207
0.0219764
0.0219206
0.0316601
6.52964
1.59166
0.0236991
0.0233325
2.04757
9.84704
0.259945
0.0221775
0.0217882
1.65765
0.0219082
0.13655
7.28361
0.0215567
0.238424
0.027154
1.4397
0.0218326
1.90739
0.301752
0.0260637
2.90423
0.0219062
1.96103
0.0220946
0.0218849
0.0222231
0.0219461
3.47996
0.021898
0.0217037
0.0228287
0.0215941
0.0217889
0.0465076
0.0228041
0.0348532
0.022034
0.0220383
4.04131
0.0748949
0.0236501
2.00774
0.0243734
0.0221838
0.0219818
0.0217308
8.7498
0.0216937
0.0220692
8.21013
8.96767
0.0390865
0.0219247
0.0222841
0.0221394
0.022241
1.88705
0.0221797
2.97369
0.024257
1.86068
0.022262
19.3209
0.0222112
0.231281
0.0219148
0.0886288
4.22391
0.0221033
8.94189
0.0218983
0.0222182
0.0216144
4.78714
1.80442
0.021944
0.0279723
0.0216888
2.00258
0.0218154
0.0450707
1.80955
0.0252449
0.0220265
0.0457898
0.0222451
0.0221884
0.0217652
0.104105
0.0219559
2.19095
0.0220519
0.0220778
0.0395254
0.077798
1.73331
0.0217651
18.1837
0.0218831
0.205258
0.0219146
0.0222375
0.0219036
0.0220497
0.0222682
0.223214
0.041045
9.05381
0.112912
0.0352844
0.034341
5.28528
0.0237562
1.83512
3.55921
0.270042
12.2038
5.6782
0.181314
0.0221949
3.41197
0.0391653
0.0221395
0.368753
0.0222509
0.448869
0.0360066
0.225766
0.0276212
2.1159
4.89167
0.0372402
0.204636
0.022216
0.679201
0.0228668
0.0219182
0.0220442
0.0235968
0.0467875
1.55244
0.282492
4.83913
0.0234609
0.0234346
1.43217
0.357585
0.0230848
0.0624454
0.0223598
4.90793
2.81912
0.0220587
0.0642691
0.278418
5.19758
0.0219579
0.0258448
7.68739
0.0288344
7.79191
0.0924789
6.33728
0.0257369
0.0238678
0.0219208
0.0219189
0.261251
0.0222842
0.301114
0.134495
0.0824455
0.0222596
0.0222238
0.0236602
0.0221098
0.0218325
0.0219023
0.103058
3.67719
1.86815
0.0222797
0.345652
0.0219501
4.02539
0.0470406
0.0470365
0.0341796
0.27577
0.0217469
0.0220606
0.0433004
0.0219073
0.0220875
0.0610811
1.49677
0.0216236
0.241998
1.67847
0.0245319
2.08942
1.74578
0.0218131
0.0552324
0.0272574
0.021993
0.0216113
0.103081
1.67697
4.743
0.0219535
0.0220159
0.0216595
0.0247953
0.0228344
0.0238351
0.575668
0.0466879
0.0221515
6.98617
0.0296487
0.0336252
0.0220421
19.333
0.0237329
0.021918
0.0836519
2.10737
0.0215725
0.0220499
0.0219466
0.0255304
0.0217426
0.0380126
0.681947
0.0221678
0.103569
0.0228843
0.0219899
2.44307
2.76749
0.374432
0.0220751
0.0215863
5.33361
0.0258782
2.19471
0.0215507
0.0218993
6.73466
2.75478
0.0300003
0.101857
0.0629897
0.0218849
0.0222717
0.0219463
3.16172
0.0220572
0.0222928
1.60325
0.0274638
0.306897
0.0328503
0.0219355
2.53966
0.022268
0.0219097
0.0219352
0.0306883
3.42305
0.022162
0.0219706
0.0219049
0.0218931
0.0219417
0.0219339
13.6257
0.0317104
0.0227996
0.02211
0.0316995
0.0618761
0.0265054
0.0285033
0.0222839
0.0216529
0.0233399
2.15697
2.38023
0.0232408
4.65034
0.0222153
0.0252679
1.32684
2.19156
0.0217773
0.0221805
0.345016
0.0519114
0.021907
0.0222486
2.25781
0.0222682
0.069774
0.0220115
0.615882
0.0222475
0.0222404
0.0221268
0.0310557
0.022062
0.0245158
0.0261148
0.163561
0.0218626
0.0219974
0.0222498
0.0218796
0.0221548
0.0219592
0.0309718
0.0221112
0.0525859
1.95229
0.043302
0.0641424
0.0222019
0.0217646
6.75848
4.61067
0.0216015
2.02713
7.51753
0.0215925
0.0219663
0.0218764
0.0972813
0.0545948
2.42183
0.0218561
0.0251555
0.0218591
0.0222663
0.0222286
0.0868414
0.0221292
0.255901
0.0220933
0.0585832
0.0218933
0.0231135
0.0219095
0.0386278
0.0601512
6.98186
2.98086
2.016
0.0484133
0.0218983
2.9599
3.76626
0.0624694
0.0220394
0.0220849
1.98831
0.0218687
3.14847
0.0216041
0.029564
0.0222041
0.0222698
0.0217841
8.76052
3.08995
2.90428
0.0724679
5.35177
0.0219509
3.01489
10.1829
0.0222705
0.022062
0.0217263
3.70355
0.0215519
5.11572
0.0324536
0.145612
0.0222617
1.00629
8.13646
1.70367
0.0295481
0.032174
0.0220408
18.2859
0.021531
0.606083
0.225981
0.0687477
9.78828
3.26471
0.0239271
0.023416
0.021949
0.096878
5.32676
5.2499
0.0217413
3.95143
0.0260309
0.123883
0.122587
1.52236
1.5673
0.0216343
0.0260378
0.0306791
0.0242338
0.0239381
2.53586
0.0221969
11.3248
0.0217565
0.0216139
0.0795931
0.112201
3.28033
0.0226241
22.9882
14.6777
0.699651
0.0268663
0.022233
0.0226281
0.022227
0.0219107
0.945871
1.72346
0.0221764
0.0219147
0.0320309
1.71239
0.0259415
0.0219226
0.437892
0.0219387
0.0222749
0.0215406
0.0607121
0.0220293
0.0250133
4.35756
0.0617013
0.0222637
4.26658
0.130182
0.0219339
0.0230027
0.0341211
0.0222624
0.0219652
0.0217462
12.7734
1.48679
0.0221973
0.0357247
0.036206
0.666654
0.0219392
3.22386
0.0218612
0.0217492
0.692921
0.261366
0.0661142
0.022019
0.0218938
5.84476
1.51613
0.294784
2.85855
0.0221029
0.0237897
0.0220151
8.42868
0.0242287
2.38641
0.0226941
0.0219292
0.0236233
0.0216672
0.0218753
0.0644778
0.0217752
3.19316
0.0217963
0.0221725
0.0215593
0.0249699
1.81975
2.79855
0.0528277
5.56822
0.0219808
0.0361001
0.0233259
8.02362
0.0218218
0.021623
2.76304
0.0347392
0.0328396
0.0221117
0.228591
8.84635
2.26156
0.0221168
0.034464
0.912406
0.031615
1.10704
0.125525
0.0821768
0.0217634
0.0225594
0.0620846
0.0772359
0.021988
0.100398
0.0217342
0.022183
0.0222466
0.0217609
0.0219028
0.0219893
0.820381
0.025796
0.0229574
0.0462566
0.0217446
0.021926
0.0383407
2.71695
0.0846119
0.0618151
2.25593
0.022234
8.89386
0.0293568
5.29173
0.0618531
0.0222018
0.0220894
0.0234963
8.21883
1.7426
0.0510923
0.158479
0.0216499
0.0218925
0.022248
0.022201
7.80819
0.0257038
0.0219645
0.161203
0.288068
5.89457
0.022752
2.57865
0.0558045
0.0407373
0.0323299
0.426309
0.25126
0.022236
1.59645
0.299425
0.0387593
2.13459
0.0456726
0.0222145
0.0222638
0.0219101
0.0231407
0.0271677
18.2065
0.0511514
0.0218704
0.31778
0.022004
4.36981
3.35109
0.0219567
27.5981
0.0217932
0.0217495
0.0220182
1.58585
14.8418
0.049216
0.0312583
0.0217081
0.577192
0.0222313
0.0310542
0.0220908
0.0221286
0.0219112
5.23102
0.0227875
0.0421256
0.029059
0.0222115
0.364291
0.136478
0.0344168
0.0253628
0.0238065
1.72907
2.63698
0.0218804
0.0217581
0.0218777
0.0225615
5.82853
12.8666
0.214051
0.0256528
0.0217791
9.23663
5.19962
0.0221938
22.2876
0.0217061
0.0860863
11.5197
0.0217369
6.66282
7.56158
0.128197
6.36319
5.64963
0.0218386
0.0226576
2.47766
1.51688
0.0225353
4.92007
0.0249944
0.0219033
0.0222738
0.0231775
0.0404571
0.0252875
0.31137
6.55669
0.235701
0.0342698
0.022079
0.0608464
2.17968
0.0217537
3.62954
0.0479798
0.0222199
0.0246278
0.0222416
0.0221777
0.0315356
2.30139
0.0224788
0.0217876
5.12458
1.54177
0.0713975
0.0222613
0.0565888
0.0219266
0.0219313
4.12108
9.12585
0.021921
0.0214853
2.76786
4.48782
0.0486479
0.0222383
9.82622
0.0227081
0.0219275
0.0239161
0.0219321
0.0216436
0.021618
9.62516
0.207613
0.0259388
1.60926
0.0456772
1.49005
8.39026
1.95766
0.163579
0.0219299
0.0222387
0.0223142
0.0219925
0.0757125
0.0218808
0.109595
0.029338
3.22176
0.0220466
1.53772
0.0362214
5.11382
0.0219247
1.74735
0.0301416
0.181939
0.257529
0.0311939
0.0216149
8.88284
0.0568906
1.58674
0.0215988
5.32821
0.0220266
4.6781
0.510121
0.0435673
0.0219202
0.0220885
1.86969
7.15307
0.0320773
0.0215566
1.40974
0.0863481
0.0454142
2.82641
0.0806148
0.0219105
3.8482
0.0219144
0.033459
0.0216103
9.30004
0.0216178
0.0235823
0.332922
3.5751
0.0222218
0.0681456
0.0243865
0.0790319
0.0218791
0.351599
0.023416
0.0641003
0.0219264
0.0219853
2.00496
0.0287455
4.79613
4.57774
5.33489
0.0227148
0.0216354
0.0217556
0.0257224
0.0372039
0.0315494
5.57443
0.0235486
0.558994
0.0420817
0.022281
0.0219354
0.0703829
0.43486
9.09612
0.021905
1.6298
0.0218621
5.23229
1.46552
0.0473669
0.0219952
0.0217273
0.0433077
1.84554
0.0243568
0.0222687
0.0238003
0.045293
0.0228865
1.55906
2.0631
3.90676
0.0221561
0.0264035
10.944
0.0221867
0.061849
0.0218039
0.862916
0.036587
0.0219487
0.0434859
0.186098
0.0219264
2.18577
0.0219132
0.142508
0.255437
0.506306
0.32538
0.0221663
0.0221857
19.5839
0.0221411
0.0400998
0.0844585
0.0235582
0.0215214
10.8216
0.0248796
0.404372
0.0233891
0.066816
0.0225272
0.405307
0.0252648
0.0247074
2.42359
1.21595
0.0220891
0.022273
0.16776
2.07893
1.93864
0.818565
0.0295004
0.0219203
0.0217962
1.81385
0.0221382
5.54799
0.100421
2.37455
0.022107
0.0217127
0.021791
0.043447
0.0457861
3.72678
1.56945
1.10676
0.235183
0.021601
2.51812
0.0230396
0.064135
0.0228863
0.0406134
0.0608598
0.0219235
0.0215695
0.0654239
0.0216312
0.0395051
0.0708446
3.34295
4.23505
0.0379534
1.75199
0.021738
0.021629
0.0220739
0.201073
0.0615972
0.0468012
0.114744
4.59667
0.039596
0.157459
0.0218091
0.022071
14.6883
0.0219127
0.30314
0.0214619
0.0218538
2.06172
0.334997
0.0218461
0.0815568
0.512117
3.37143
2.41975
0.0251341
0.0677528
0.0499132
5.38464
0.0220509
4.92086
5.52709
0.0237087
0.0260009
0.0216056
0.458083
0.0217271
0.0219826
1.6028
0.0222242
0.0215584
0.209201
0.0598406
1.52908
1.51933
3.33634
1.87738
0.0216066
0.0219048
0.0218513
0.0222051
8.64769
0.0220722
1.76
0.0230184
4.65804
0.0244791
0.0221064
0.0216776
0.0222196
0.0303847
0.0220318
0.0215111
0.364273
0.0218152
0.0521482
0.022455
7.16813
0.0245158
0.0220784
0.0219259
0.0539631
0.0219061
0.0217591
0.0220886
0.0222147
0.0245347
0.0218428
0.0234152
0.0315717
3.86167
5.19878
4.68516
2.51603
0.0217626
0.0220048
0.0219209
0.0214241
0.0219304
0.0217291
0.189321
0.0218533
0.0222517
0.0220685
0.0220425
0.0219414
6.6833
0.0241712
0.0219715
19.31
0.0439538
0.0217083
7.52179
7.62122
0.0220196
0.474066
0.73222
0.022036
0.045987
0.0239551
0.0215539
0.0274949
0.0220129
0.0402452
0.0220123
0.0222473
0.0217399
28.1624
0.0285368
0.0458085
0.0220322
0.0222653
4.65282
0.025784
0.0220358
0.023888
0.0242553
0.0222519
0.221267
11.2139
1.32106
1.57923
0.227886
0.0375693
0.0222597
12.6126
0.166778
0.022763
0.060816
0.0222932
0.0218943
0.0222464
2.7496
0.0464414
0.0219985
0.0220415
0.190304
0.0217245
0.438944
0.0219426
1.86256
0.236049
4.103
0.0220792
0.0232095
0.0318294
0.0356417
0.0222633
0.0389762
0.086246
5.71617
0.0219693
0.489426
9.40975
0.0215613
1.837
0.0436222
0.333596
0.108299
0.0219168
0.0279029
0.0411212
0.0216811
0.0251287
0.0215397
4.25208
1.90206
0.0327468
0.0218262
0.155079
0.0751589
2.83214
0.310723
0.0233799
0.028281
0.0219465
0.0219155
0.0411891
0.0519026
19.6356
0.0218108
0.449241
0.0225412
9.7004
0.184368
2.40504
0.021597
0.0229444
1.98769
1.80532
0.0432056
2.19647
0.0228761
0.247252
0.021913
0.0218463
2.63911
0.530357
0.0248359
0.0220937
0.0754918
2.16662
0.196677
0.0667874
0.0217674
0.022014
0.0217132
2.39776
5.13658
0.0217501
0.0455718
1.83607
0.0760762
0.289471
1.65499
5.57302
2.22438
0.0217666
0.0227695
1.59847
0.0218895
0.0494653
1.56277
9.09924
0.0233859
0.030259
4.88752
0.626426
2.02033
5.02716
1.68572
1.49418
0.0221108
0.0216123
0.0219896
0.0225658
25.3497
0.0549246
0.372818
0.384702
0.0567237
0.0219458
0.396677
0.0216994
0.0307669
0.0219213
0.0408199
6.68475
2.80877
0.0220711
0.021598
0.0386738
4.73518
0.194045
6.85678
0.0446914
0.0220511
0.0836576
0.0214592
0.0964314
0.0320554
0.0219073
4.75405
0.179903
0.566317
0.0584385
0.0222408
0.0215725
7.19345
0.0252275
0.0216169
0.022145
0.0222559
0.0216798
5.59561
9.85028
1.95382
1.40359
5.95929
0.023985
0.0219418
2.79321
0.024378
0.0856856
6.58277
0.0218658
5.30969
2.85949
0.0606474
0.0337533
0.787479
0.023124
1.7818
0.037832
2.01914
0.0218162
0.0228789
0.0410486
3.24254
0.117623
0.0686036
4.93636
2.15103
0.0719198
0.165434
3.28039
0.0242634
0.367993
18.4864
0.0360487
0.0631715
3.12163
0.0324061
0.0370273
0.0221035
0.0373114
0.0396486
0.0569173
0.0220884
8.6664
0.165903
1.83713
5.26309
2.14708
0.0398042
1.59682
8.71457
0.0218455
0.921121
3.18032
8.70214
0.027936
0.024224
1.65718
9.79291
0.0216068
0.239797
0.0217499
0.0219084
4.17139
0.0253974
2.28906
1.5784
1.83607
8.64143
0.0216172
0.0356809
0.0219851
0.0218425
0.110343
0.0580458
0.0266382
2.79855
1.84576
0.0222731
0.0262648
1.35056
0.0234479
0.401548
0.0479579
1.48359
1.4831
0.426003
9.14276
7.26009
1.81945
1.50147
1.7138
0.0312061
0.0251975
0.118044
0.121617
1.81225
8.46976
0.0221319
0.0225955
5.38822
2.33233
0.0247515
4.89186
0.0219211
0.817879
4.64907
4.88837
0.0219226
1.67234
1.55224
0.0269054
0.0349197
5.5336
4.90965
4.88188
3.52394
0.0219805
7.10412
1.62221
0.0408005
0.228699
0.108613
0.0217317
0.0267291
3.45976
2.25861
0.0245988
0.0221716
1.57891
0.0853787
1.80416
0.0755184
2.23765
1.53454
0.0219904
11.0502
0.0222852
0.0305022
0.0220463
0.0218167
0.0217012
0.0374173
0.285081
0.0214896
16.6744
0.071976
7.47264
7.34339
1.99667
0.0219086
4.50375
1.5258
2.0098
0.0345061
0.0219234
4.2133
0.411931
2.05098
0.0550943
0.0234401
0.021684
5.46809
5.3148
0.0335435
16.3611
0.031047
0.0221694
1.46773
0.0540791
20.1829
0.021903
0.0295346
1.67229
4.76318
1.49849
0.230099
1.48629
1.70732
6.61127
0.0220475
7.51876
0.0478937
0.0218298
0.0215493
0.0219152
5.2071
0.0494063
1.49787
1.55361
0.0366682
0.153718
0.078589
2.60511
0.263651
5.71855
4.92165
1.30243
0.0895558
0.0216451
0.710704
0.0572276
0.109731
1.4521
2.58226
1.71652
0.0220944
0.0241446
0.0477279
0.0220593
0.0219597
0.027887
1.52598
0.0286732
0.025278
1.43031
0.0732293
0.319712
4.52797
1.57514
0.472644
1.90845
4.87698
2.23563
0.0623756
0.0314641
0.0220927
1.29657
0.108941
0.23197
0.0630486
0.0608986
0.021448
0.183098
6.2088
0.0265743
0.0215815
0.0230756
4.10177
0.0218736
0.0220252
0.0633123
1.5543
0.0285231
0.0553067
0.181185
0.030533
0.0601165
0.0218508
0.021982
0.0414673
0.228042
0.0222194
0.031366
0.271011
6.93864
0.022106
11.3933
0.0218674
1.56509
0.0232359
0.0233888
0.0215484
0.185197
0.034527
5.5597
11.083
0.0683531
0.0221619
0.0219381
5.5013
3.40497
0.0217998
0.250272
1.59822
0.0530585
0.077302
0.0214215
0.0226618
0.0219219
1.49037
0.0426514
0.0220504
6.31733
0.0223446
0.0576867
0.269128
0.0217332
0.0988441
0.0607227
18.0642
0.0223953
0.0261743
0.0233831
0.054849
0.0213985
0.021904
5.84915
0.338716
0.0764412
0.0218708
1.84483
0.0223473
0.0223485
0.0219575
0.520579
6.19488
0.0237782
9.78992
1.96603
0.0649529
2.97349
5.45485
5.05054
7.57736
0.0536478
0.0640658
0.223339
0.0484311
0.0219506
0.030098
0.0297473
7.58
0.022079
3.19672
0.0219775
0.409819
0.0925387
0.0228102
0.0229349
9.72274
10.6989
5.43935
1.58937
0.0218096
0.0675345
4.6227
0.0260141
9.93992
0.0407195
0.107265
1.63445
0.033992
0.021993
0.126815
0.1522
0.0219123
1.51091
0.8311
0.0217052
0.0222394
0.0221212
0.0220095
6.28349
0.0219723
0.0479344
0.0220249
0.0223376
0.0323084
0.0219382
1.51665
0.0856639
0.0221358
0.0216219
0.112613
0.0233363
0.0552778
5.99523
4.85557
0.0537992
0.225618
0.0405992
0.0215889
0.139597
9.8845
0.0379754
1.48384
6.196
0.0752066
0.0388787
0.0280313
0.0677098
0.0378887
5.68273
0.0221133
0.0221503
0.021795
2.31035
9.83
0.0359649
0.0979609
0.0218675
0.0266116
0.109149
0.27706
0.0219033
0.0604579
1.80188
0.0875978
0.0219903
0.0219197
19.7346
5.67137
0.0219329
0.587925
0.0306078
0.205155
0.303231
0.0218589
2.97284
0.0291643
0.0220248
2.6023
0.206517
0.0219197
0.0221623
0.279266
0.0217677
0.022041
0.153783
0.0419377
0.0456786
6.42445
0.0252767
0.0418486
1.74904
0.0218335
9.19755
4.74697
0.0251358
0.0594013
0.181897
0.0219644
0.162916
0.021464
2.14435
1.50449
0.0220037
7.01051
7.74668
0.0219302
0.0219327
0.57369
0.0380742
1.60232
1.55103
0.022095
0.043328
5.05281
0.0226264
0.0487685
0.0695734
0.0337788
2.88353
0.204246
0.0233124
0.235734
6.22503
0.0453574
3.23356
0.0219113
0.0215468
0.0222675
0.0421218
4.94791
0.0220657
0.0333077
15.507
2.66692
0.0222177
0.0298371
1.98671
1.57535
0.0222247
9.30799
0.0338287
0.0883798
0.0347797
0.0230773
0.0259627
0.0219491
0.0219613
6.18181
0.0219335
0.0520566
0.0219822
4.60718
0.0233001
0.023923
0.0215855
0.0237634
0.0219829
0.0416418
5.23067
1.00797
0.0379741
0.0422807
0.0219674
0.0315779
0.0518693
2.2807
5.18375
0.0218297
1.01018
0.0220228
2.29246
1.43716
5.07422
0.0218262
0.107057
0.0715819
5.80741
0.236946
0.0218396
2.59709
0.324538
0.0378094
2.88396
0.0221712
0.0219883
0.0393169
3.44116
0.0219193
7.09265
0.0338923
2.74172
0.089625
0.0223693
2.16204
0.0280932
0.0220856
0.273192
0.021925
2.80779
10.2937
0.16105
0.0275222
0.152271
0.0219258
0.103496
0.0442907
9.71927
0.0220058
0.0216131
0.0268228
0.0295709
0.0433301
1.88216
3.87223
0.0357319
0.226102
0.0218009
3.42002
6.67767
0.18486
0.0219168
0.0222602
0.0231322
2.63539
0.0220463
0.0263117
2.29858
0.083742
0.021973
0.262404
0.0786295
0.0219876
0.0251129
0.120462
1.54394
0.0695987
0.0432425
1.92435
1.54248
0.428697
0.0265968
0.0220982
0.0243635
0.0246074
0.140747
0.0568704
0.0274595
0.0771079
5.19497
0.0240327
0.0219952
4.90419
0.302352
1.76544
0.183849
0.0257034
0.0236752
0.0235642
0.0217579
0.0218775
0.0433773
0.0215421
0.0228876
0.0220236
0.0229183
0.0235182
0.0219466
0.0385085
0.0361927
0.0220729
0.0219336
0.0221192
0.0227012
0.0223123
0.245778
0.0220572
0.023381
1.44897
0.0216873
0.0231923
0.0222266
0.0271781
4.91687
9.3378
2.55981
2.97135
3.01358
0.204655
0.0218707
0.0585063
0.0219879
0.751846
0.0230835
0.0293603
0.0221545
0.053866
0.021959
0.0308684
0.02178
2.40335
0.166412
0.0220787
4.1289
2.8053
0.0221324
0.0877284
0.0219502
0.0215896
7.37507
0.0221071
0.0648738
0.195514
0.022105
0.0215488
0.0724959
1.65117
0.0249457
0.0233913
1.50646
0.0219429
3.81131
0.0498275
10.0683
0.021666
1.56228
0.0219106
0.0221449
0.239819
0.0581077
2.2464
1.74896
6.79112
2.65017
0.165209
0.138839
0.0220462
0.133453
0.0219998
0.0218191
0.0924671
0.0219078
0.0219831
0.021598
0.0216086
0.0555126
4.71301
1.51483
0.400541
2.53257
0.0235069
0.0302361
0.0227895
0.0227135
0.0743024
0.0220178
0.0217179
0.0218088
0.0236391
0.0231169
0.202712
0.0798376
0.04596
0.0221089
0.0542156
0.0552524
1.93941
5.3048
0.0247159
0.0391702
0.0220883
11.9906
1.65912
0.021918
0.0219336
0.0244056
0.022213
0.580211
0.287179
4.63183
0.0220999
3.67905
0.022077
2.69311
0.0500494
0.0218098
0.0280813
3.55138
0.0268782
0.0278297
0.0298485
0.0814737
4.43575
0.0217505
0.0219151
0.0279098
0.155203
0.0218525
1.98625
3.72126
0.0219491
0.0214169
6.25257
0.0636281
0.0219173
5.20408
15.9832
2.17928
3.78416
0.0278196
1.96246
0.0220713
4.76205
2.9207
0.84128
0.0631089
0.0238485
5.12946
0.0249452
0.0218664
0.0214461
0.327356
0.0216295
6.32882
0.0226145
0.0221345
0.0249659
1.51331
0.0238125
0.0227709
0.0220736
9.57107
4.04756
11.3493
1.60905
0.0413727
0.0219205
0.0240719
0.233156
0.109322
0.0219872
0.0490661
0.181315
3.73298
0.0219343
4.01159
4.82691
0.0375995
0.022063
0.0237659
0.0219511
0.0217316
0.0219381
0.0220318
0.0221463
0.0954898
0.0220956
0.12059
0.0225487
0.0226639
5.1163
0.0665712
0.0233729
0.0227579
2.18302
0.0215484
0.0227327
0.0260247
0.0218142
1.89134
0.0309264
0.0227206
0.044036
0.0219447
0.0271837
0.0218007
0.143346
0.0218184
0.0218983
6.5036
0.0234786
0.183246
0.0330227
0.023702
0.0812872
0.0214028
0.0220882
0.0226089
5.25724
0.0237515
0.0219164
1.92077
0.0219688
0.0216177
0.0218838
0.694879
0.0319558
0.133556
0.0333181
0.0306041
0.0493886
0.0238194
0.0270898
0.0472029
2.29296
0.0222175
0.0283521
0.0217962
0.253865
0.20553
0.0219046
0.0286392
2.78275
0.0297454
0.0215407
7.00463
0.0258069
0.0813385
2.38049
0.0282432
0.0218871
0.0292324
0.0219173
0.0241618
0.0219048
0.023296
0.0258872
0.0219702
0.0220682
0.0317012
0.0221242
0.0914665
0.0219019
0.0236544
0.0219223
0.0292642
1.56763
0.0220631
0.0219797
0.0975309
0.0230909
0.0219363
0.265017
5.70311
2.96873
0.0220449
0.0244119
0.0345749
0.0222447
0.0221252
0.0334932
0.180358
0.0215307
0.0525182
0.0219629
0.0218886
0.0217493
0.0215212
0.0227893
0.0426382
0.0336888
0.0267516
1.65164
0.0241452
0.0279513
0.0217184
2.1006
3.24966
2.4254
0.0220213
0.0465216
0.0281281
0.0219925
0.0221201
0.0411589
1.5271
2.39512
0.0219165
0.027478
8.1423
0.0227228
0.181765
6.08664
1.6025
0.0291015
0.0219795
0.0383166
0.0436495
0.149613
11.1493
8.21014
1.56177
0.0226962
0.0221738
0.0219213
0.103816
0.0219126
0.0216815
0.0376348
0.0219028
0.0218692
0.0218772
0.0516302
0.0219508
0.021775
0.0219719
2.40048
0.0215363
0.0220134
0.0221068
0.0225711
0.021939
0.0714029
0.0674256
7.22143
0.0215732
0.0281987
0.110636
5.2966
2.378
0.0222006
0.0222752
0.0526507
0.0942991
0.025806
0.360484
0.0219296
3.83816
0.0222781
1.48363
0.022789
0.0219126
0.0437214
0.0219373
0.0219719
0.0227161
0.713776
0.024403
0.0224213
0.0221782
0.0219534
0.0396278
0.0219431
0.0219168
0.0259311
0.102242
0.0242685
0.0218482
1.47374
6.36319
0.0219717
0.868448
0.0221432
0.0296936
0.0751924
0.211066
0.0234194
0.0229515
0.0220537
0.25923
0.0283862
0.0221685
0.0219012
0.0232027
0.157395
0.0220662
0.034494
0.0238561
0.0347766
0.0500972
0.0376497
0.088341
3.59006
0.024936
0.022039
6.88578
0.348223
0.0219308
0.0214856
0.0220632
0.0219626
0.0219063
0.0238833
0.0216688
0.0220785
5.74803
1.55755
0.0317918
0.0219343
3.04516
0.0238404
0.0216973
5.74053
0.0237058
0.0216437
0.0220942
0.022037
0.0362487
0.0220397
0.0544747
0.0219209
0.0217787
0.0219455
0.0321834
0.0356182
0.0218927
0.0561928
1.51037
0.023112
0.0218907
0.0604284
0.0217104
0.0219911
0.0218591
0.0301985
0.0220523
4.67117
0.0222959
0.230464
3.14201
0.0554412
0.0232961
0.0222571
0.0220225
0.0219377
0.0294326
0.16324
0.11525
0.0218064
0.0237672
4.93723
0.0215795
0.170555
0.021965
0.023145
0.0308453
0.0617942
0.0219565
0.0332798
0.0279947
0.0582505
1.46811
7.4433
0.0218642
0.0219268
0.0324202
0.02276
0.0226222
0.0495193
0.0227001
0.0999704
0.0217801
0.0691209
0.0221061
0.0799014
0.0564678
1.47898
5.16367
0.0219212
0.0386489
0.931868
0.209295
0.0215902
0.0217685
0.128083
0.0219416
0.0219309
0.0217391
0.0215081
0.0706392
0.0709139
20.1258
0.0220202
0.0438039
0.022255
0.0215825
0.0230498
1.75251
0.167997
0.0219123
0.0221021
0.0218365
6.50666
0.022011
0.0219332
0.0224317
0.0219462
0.0428918
0.0218333
1.84057
0.0219856
0.0225758
0.0223422
0.0218912
0.0217384
0.0220075
12.6451
0.0217798
0.0219397
0.240582
0.0218868
0.0220426
0.0221117
0.0221559
0.0536772
0.0219027
0.0219745
2.46413
0.0235464
0.0220382
0.022234
0.0215132
1.53832
0.022938
0.0221832
0.021898
0.0259708
0.0219684
5.94398
0.0217936
0.0220108
6.04631
0.021977
0.0618184
0.0221616
0.0214063
0.0215015
0.0304831
0.0372772
0.021841
0.0222862
0.0240038
0.0219033
0.0221105
0.0220758
0.0218683
0.0217425
0.0218086
6.05473
0.0219582
0.0218345
1.81926
0.0219375
0.0268056
0.123568
1.60514
0.0218128
0.0220482
0.0219588
0.0216316
0.0229051
0.0389287
0.0238633
0.0366064
0.0217644
0.0254787
0.0219806
0.0214702
0.0279948
0.0584743
0.0235055
0.0288972
0.0220263
0.0219584
0.0221201
2.17802
0.0234941
0.0220117
3.73894
0.0229337
2.56816
0.0220632
0.0219318
0.0217319
1.60648
0.0219393
0.0249922
0.0229344
0.0220723
0.0219654
0.0220881
0.0220111
0.0242622
0.0218988
0.0387892
0.0222479
0.0391924
0.0214921
0.0216275
0.0238998
8.29071
0.0221484
0.0220483
0.0225608
0.0219246
0.0240863
2.05934
0.0227055
0.0271183
1.96304
0.695853
0.0226643
0.02271
0.146774
0.0918429
0.0231504
0.0221148
0.0218751
4.05005
0.0226192
6.00689
0.0216884
0.0215362
0.0221044
0.0218976
0.0231445
0.0215807
0.0219878
0.0222651
0.0590026
0.0237266
0.0225323
0.0216232
0.348637
0.0624311
0.0215079
0.0221041
0.0233993
0.022239
0.0220587
0.0215841
1.50272
0.0215967
0.0219283
0.0658469
0.0215741
1.96468
0.021821
0.0428617
0.0272286
0.0219683
0.0215334
0.0219202
0.0221523
0.0220428
0.0217633
0.0216136
2.39296
1.64666
1.87236
0.0216072
5.49488
0.0219624
0.0554682
0.0219186
0.0219227
0.0221091
5.84172
0.0219469
0.021905
0.022126
0.0219594
1.5294
0.0219279
1.71541
0.0214435
0.0224844
2.43053
4.86689
0.0219829
0.0219568
0.0269159
0.0220163
0.143135
0.0217495
0.613977
0.0217636
0.0355238
0.0221392
0.0218144
0.021942
0.0219515
0.0231325
0.0218729
0.0310194
0.0349093
0.119102
0.0217266
5.06567
0.0218936
12.5906
0.0219083
5.76059
1.31098
0.0217466
0.0219081
0.0215933
0.0218621
0.0220438
0.0220139
0.0215821
0.0224885
0.0214371
0.0880564
0.0221105
1.51932
0.0215739
0.021527
0.0219246
0.0219198
0.0226566
4.72815
0.0230128
3.15893
0.0215381
0.0221189
0.0348996
0.0215804
0.145341
0.0232223
0.0219287
0.0397117
0.0215035
0.0219718
0.0224304
0.0216995
0.0287335
0.0401723
0.0216316
0.0221124
0.0220458
6.32967
0.0233893
0.0215765
4.76169
0.052151
0.0216213
0.0219165
0.157388
0.0228128
0.0214352
3.8455
0.21235
0.0228225
0.0214415
0.0222398
0.0353908
0.0215649
0.17738
0.0216133
0.0216759
0.0416465
0.053003
0.0216073
0.0216072
0.0215002
0.0217312
0.0217434
0.0409369
0.0219696
0.0217514
0.022111
0.0218469
2.82772
0.0222722
3.61874
0.026354
0.0279134
0.0221421
1.73467
0.0219133
1.90463
0.0215242
0.0219589
0.461805
0.021972
0.0228193
0.021653
0.0247993
0.0217037
0.0270427
0.0215631
2.73041
0.022161
0.0215712
0.0215322
0.0215712
0.10333
0.0217768
3.81459
0.021915
0.0248576
0.0214974
0.0220168
0.220456
0.0219994
0.108464
0.0218138
0.0230748
0.0221271
0.0221331
0.0224404
0.0219164
0.0219821
0.257215
0.0215691
0.0219461
0.0225228
0.0220572
0.0220542
0.0330876
0.0218539
0.0219157
0.0218466
0.0216186
0.0217607
0.021996
11.2332
0.192942
3.7508
0.0214324
0.02362
0.0221259
0.0265237
0.119426
0.22277
0.0322288
0.0215666
0.021978
0.0219467
0.0221439
0.0221146
0.0219098
2.98966
0.0510046
0.0219284
0.265133
0.022137
5.85372
0.0219619
0.0218901
0.0218022
0.0215612
0.0214804
0.0218332
0.0216562
0.0217916
0.0415788
0.0228653
0.0219157
1.70902
0.0215632
0.022717
0.0219863
0.0215941
0.0219253
0.30781
0.021787
6.54172