/*--------------------------------*- C++ -*----------------------------------*\
| =========                 |                                                 |
| \\      /  F ield         | OpenFOAM: The Open Source CFD Toolbox           |
|  \\    /   O peration     | Version:  v2012                                 |
|   \\  /    A nd           | Website:  www.openfoam.com                      |
|    \\/     M anipulation  |                                                 |
\*---------------------------------------------------------------------------*/
FoamFile
{
    version     2.0;
    format      ascii;
    class       volVectorField;
    location    "450";
    object      ddtCorrDdt0(U);
}
// * * * * * * * * * * * * * * * * * * * * * * * * * * * * * * * * * * * * * //

dimensions      [0 1 -2 0 0 0 0];


internalField   nonuniform List<vector> 
10042
(
(3.67238e-05 -8.00419e-05 -5.69584e-18)
(5.39848e-05 0.000566934 6.60012e-19)
(-0.000294956 -0.00038841 -4.2645e-19)
(-0.000158297 -8.47232e-06 -1.4287e-18)
(-0.0457792 -0.382274 2.81964e-17)
(6.27827e-05 0.000278429 3.05247e-18)
(0.189196 0.416735 -5.47904e-17)
(0.00926895 0.388195 6.3268e-17)
(-0.000253851 -3.63539e-06 1.75491e-19)
(7.33125e-05 0.000156258 -5.36585e-19)
(-0.342505 -0.117904 2.57222e-17)
(-0.00024983 -5.57924e-06 4.34047e-19)
(-0.000181595 1.56074e-05 2.05422e-19)
(-0.000170143 -2.12361e-05 -1.23013e-18)
(-0.000287397 -0.000120359 8.86752e-18)
(5.25927e-05 0.000497794 -5.64403e-19)
(8.51279e-05 0.00044507 1.10229e-18)
(-2.35743e-05 -0.000164842 1.0691e-18)
(4.75631e-05 -0.000200718 3.888e-19)
(-0.0206058 -0.0116926 -1.06091e-17)
(-2.52729e-05 -0.000154998 -5.3246e-19)
(0.139702 0.0429024 -1.68732e-17)
(-0.000178473 5.38801e-06 9.56033e-19)
(-0.000234429 4.83918e-05 -4.55464e-20)
(4.59283e-05 0.000485616 2.15341e-18)
(0.00098049 -0.000294396 -9.75064e-18)
(-5.13116e-06 0.000260939 -2.93688e-18)
(0.000104321 -0.000229144 1.22762e-18)
(-0.000165774 -0.000217346 5.97918e-19)
(3.74477e-05 -0.000248161 -7.74143e-19)
(8.06843e-05 0.000611778 -1.31017e-18)
(0.0549057 0.00573916 -8.37803e-18)
(5.24131e-05 0.000214403 7.48745e-19)
(3.71712e-05 -0.000307193 3.4547e-20)
(-1.2473e-06 -0.000191526 4.15716e-18)
(-0.000239156 -2.54285e-06 -4.17731e-20)
(0.000702909 -0.000432237 4.17548e-18)
(0.00337694 -0.00131788 3.73007e-19)
(-0.000244633 -2.72132e-05 -8.18194e-19)
(0.00115514 0.00228031 -4.81991e-19)
(-0.0198778 -0.0124126 6.14649e-18)
(-0.000192091 -2.44964e-05 -4.64177e-18)
(0.268422 0.23822 -1.61461e-17)
(0.000101303 -0.00052277 7.14883e-19)
(0.00414439 -0.383863 -2.52964e-17)
(0.015073 0.00604195 9.19241e-18)
(-7.24284e-05 -0.000143887 -1.40989e-18)
(0.0413445 -0.0232826 -2.16501e-18)
(0.000101894 -0.000447967 9.89253e-18)
(0.00263572 -0.0145285 -2.09885e-19)
(-3.33247e-05 3.72615e-05 -5.26283e-18)
(-0.00099183 -3.9929e-05 -7.06292e-19)
(-7.87849e-05 -0.000142253 1.35751e-17)
(-0.00108299 -0.000413622 5.65705e-19)
(0.000584448 -0.000382394 8.39567e-19)
(1.10348e-05 0.000370132 -3.92601e-18)
(-0.000207272 -0.000134803 8.17807e-20)
(2.89507e-05 -0.000227365 8.62724e-18)
(2.3142e-05 -0.00025176 -4.29641e-20)
(-0.000169571 -0.000287407 1.61045e-18)
(5.28673e-05 0.000638281 -2.64997e-18)
(7.07818e-05 0.000108006 5.05746e-18)
(-1.9278e-05 -0.00025855 9.10749e-18)
(-0.000257646 -0.000297733 4.66232e-20)
(-0.000181514 -0.000650593 -1.48408e-17)
(2.97714e-05 -0.000193672 -7.44547e-19)
(2.47973e-06 -0.000916563 -9.25495e-19)
(-0.0141127 -0.00755381 2.72258e-18)
(0.105934 0.040453 3.45153e-17)
(5.55287e-05 -0.000649734 2.30351e-18)
(-0.00111607 -0.000365943 -1.02595e-18)
(-0.0206343 -0.014965 1.70551e-17)
(0.000115846 -0.000523142 -1.97687e-18)
(-0.00254745 -0.00193164 1.12248e-17)
(1.84053e-05 -0.000766288 9.67307e-18)
(-0.000237447 8.41125e-05 -4.64411e-19)
(-0.0309615 -0.396411 -2.30729e-17)
(4.43792e-05 -0.00040166 3.17256e-18)
(-0.00230677 -7.70153e-05 -1.0906e-17)
(-0.0498527 0.714683 -9.09814e-18)
(0.000107948 -0.000313033 -1.2095e-18)
(0.0393123 -0.318591 6.01271e-18)
(-1.59648e-05 -0.000337582 1.18163e-18)
(-0.000187351 6.28276e-06 1.69301e-18)
(9.75977e-05 -0.000888954 6.59515e-18)
(-4.84111e-05 -1.78017e-05 3.95517e-19)
(0.000117909 0.000160275 -3.6978e-18)
(0.0529463 0.00636876 -2.20223e-17)
(7.04468e-05 -0.000792541 2.0224e-19)
(9.38239e-05 0.000135517 -1.59007e-18)
(-9.8931e-05 0.000235719 2.23084e-18)
(0.0843767 -0.327317 -3.7327e-17)
(6.72472e-05 -0.000151735 1.97248e-18)
(-0.000953416 2.05558e-05 2.2037e-19)
(5.95768e-05 -0.000266814 4.79515e-20)
(-3.76128e-05 -0.00041402 -5.20657e-19)
(4.1414e-05 -0.000597896 8.51251e-18)
(-1.40934e-05 -0.000285798 -6.56106e-19)
(0.000890994 0.00190253 3.53333e-19)
(-0.000221005 0.00023711 -1.74678e-19)
(3.69414e-06 -4.55068e-05 2.40132e-18)
(0.0274575 -0.0236632 2.57699e-17)
(0.151807 0.370531 -3.17113e-17)
(-6.1322e-05 5.8508e-05 -1.49356e-19)
(5.00956e-05 -0.000132169 -3.83604e-18)
(0.00710337 0.00846294 -3.22895e-17)
(-9.79127e-06 -5.25934e-05 2.0771e-18)
(9.96448e-06 -0.000499944 -6.69077e-18)
(-2.83096e-05 -0.000189039 8.14784e-19)
(-0.000245913 0.000162431 2.08467e-19)
(-0.000204307 -2.76395e-05 5.89186e-19)
(-5.91535e-05 -0.000739009 1.30133e-18)
(0.000856832 0.000852347 -4.33617e-18)
(0.0677364 0.0519837 -1.27051e-17)
(-5.69777e-05 -0.000736555 3.02541e-18)
(6.26897e-05 -0.00077299 2.15602e-18)
(-4.04764e-05 -0.000584425 3.26732e-19)
(3.08905e-05 -0.000275537 1.88276e-18)
(-6.40182e-05 -0.000411394 1.02432e-18)
(-0.303152 0.234854 -4.95482e-17)
(0.000106309 -0.000771776 -3.76397e-19)
(0.104733 0.343787 -3.36175e-17)
(9.48645e-05 -0.000328262 2.43958e-18)
(2.16234e-05 -0.00045131 -6.26821e-18)
(0.0231893 -0.0240575 -2.79721e-17)
(4.97495e-05 -0.000221038 -2.53556e-18)
(-0.00873469 0.347553 -4.35102e-17)
(-0.000215505 -0.000386746 9.78323e-18)
(0.00617307 0.00823356 1.62984e-17)
(0.000100781 0.000145331 -1.34999e-18)
(-0.00280098 2.69784e-05 -9.57213e-18)
(5.30357e-05 -0.000817734 1.47406e-20)
(-0.448145 -0.0718887 -2.38077e-17)
(-0.0661931 0.0951114 7.41813e-17)
(-0.000195952 0.000185161 1.23617e-19)
(0.0119508 -0.00368162 1.25302e-17)
(-0.17167 0.189896 1.80001e-16)
(-0.000100456 0.000181095 -1.73876e-18)
(0.0472939 -0.0214896 1.98109e-18)
(0.0600983 0.0101139 -3.05265e-17)
(-3.78207e-05 -0.000126726 7.73537e-19)
(-3.14079e-05 -0.000489439 4.85505e-18)
(4.47224e-05 -0.000105148 1.25267e-18)
(0.00407049 -0.0538826 -1.49952e-18)
(-0.000691864 0.000167421 3.31882e-19)
(9.11407e-06 -0.000768509 1.03268e-18)
(0.00504012 -0.00967711 1.02423e-17)
(-0.000375573 0.000230646 -8.24882e-19)
(-1.52996e-05 -0.000294388 8.95645e-20)
(0.000476221 0.000665161 -2.40726e-19)
(-0.000301368 -0.000232574 1.75642e-19)
(-1.55763e-05 -6.69374e-05 2.66477e-18)
(0.132012 0.473585 -1.51965e-16)
(-0.30421 0.211274 -1.36397e-16)
(-1.27762e-05 0.000375344 4.71393e-18)
(-0.000175082 -1.54949e-06 3.24996e-20)
(-0.000131308 -0.000430478 -4.30111e-18)
(8.86988e-05 -5.15121e-05 -6.63349e-18)
(0.0132641 -0.00251371 -1.04647e-17)
(0.057404 -0.0802247 -8.14513e-17)
(-0.164382 -0.0621317 2.0154e-17)
(-0.0475334 0.0359935 -1.01558e-17)
(4.61e-05 -0.000117156 -1.01473e-18)
(-0.000288966 -0.000149595 2.34393e-19)
(2.32638e-05 -0.000365772 1.96557e-18)
(7.6903e-05 -0.000793453 -9.96838e-18)
(-0.00644595 0.0127994 -2.21326e-18)
(-0.188043 -0.141227 1.95503e-16)
(0.0259682 0.0339688 -7.60123e-17)
(-0.349341 0.203994 3.68809e-17)
(-0.000811398 -0.000280014 -9.7239e-19)
(1.6634e-05 -0.000174298 3.24798e-18)
(0.132524 -0.273914 -1.33139e-17)
(-0.026272 -0.0117044 1.24616e-17)
(-0.00442206 0.00285456 1.62859e-17)
(0.203323 -0.382775 1.96277e-18)
(-0.170692 -0.120177 4.89778e-18)
(0.000115386 -0.000408463 4.50877e-18)
(-0.0152447 -0.00839313 1.81115e-17)
(0.00156075 -0.000234553 -7.41027e-18)
(-0.000202497 -0.000239889 3.90002e-19)
(0.0618694 0.0142842 2.87331e-17)
(1.77204e-05 -0.000904779 1.03912e-17)
(-0.000216228 -0.000333521 2.36897e-18)
(-0.000124352 -5.48313e-05 -1.50547e-17)
(-0.364183 0.210842 9.44379e-17)
(-0.113641 0.0208397 7.85541e-18)
(-7.54493e-05 -0.000254985 3.74661e-19)
(-0.0834764 -0.0445165 1.96482e-17)
(6.56236e-05 -1.16456e-05 2.08289e-18)
(-0.0896475 -0.0393034 6.79735e-18)
(-2.13213e-05 -0.000104512 1.8286e-18)
(0.126988 0.530884 3.70187e-17)
(0.0924128 -0.245678 -9.02197e-18)
(0.00118242 0.0429922 -4.70823e-18)
(-0.0427196 -0.199846 -4.61868e-17)
(0.000195716 -0.000721209 -2.43576e-18)
(2.85211e-05 -0.00038795 5.23297e-18)
(-0.000171167 5.87386e-06 -7.35408e-19)
(0.000140154 0.000221177 3.54683e-18)
(-0.00462433 0.00107867 -1.9993e-18)
(-8.07142e-05 -0.000301181 -3.32457e-19)
(-7.71897e-06 -0.000692577 -2.45278e-18)
(-0.0290828 -0.00981571 3.8084e-17)
(3.62058e-05 -0.000886957 4.51079e-18)
(-0.000262583 -6.8149e-05 4.26522e-19)
(-0.115912 -0.0300199 -9.52197e-18)
(1.01962e-05 0.00045934 -9.92413e-18)
(-2.23425e-05 -0.000203536 9.08022e-19)
(-7.97318e-06 -0.000426327 5.32071e-18)
(-0.0647684 -0.190961 -1.68063e-17)
(-0.000213842 -5.29318e-06 8.346e-19)
(-0.00614966 0.0116744 4.52684e-19)
(-0.0288935 0.0602875 6.24838e-17)
(-3.43172e-05 -0.00045243 -1.51191e-18)
(-0.122987 0.0102139 1.2462e-17)
(-5.12724e-06 -0.00052577 -3.06031e-18)
(0.000104769 -4.45374e-05 -2.78933e-20)
(-0.00253138 -0.0148337 3.85874e-17)
(-0.000109404 -0.0004761 -9.29538e-19)
(0.000626528 0.000703981 5.05914e-20)
(-0.000133405 -0.000514433 -6.77888e-18)
(0.0226023 0.0880178 1.11574e-17)
(0.00387667 -0.00134345 -1.84308e-18)
(-0.000933526 0.000126313 -1.62483e-18)
(0.00138483 -0.000227193 -5.26978e-19)
(-0.0761745 0.206452 3.34924e-17)
(2.36763e-05 -0.000803745 -6.4782e-19)
(-0.0758121 0.00344884 -5.05302e-18)
(-0.00122639 -0.000465438 3.15522e-19)
(-0.000285777 -9.25487e-05 2.18323e-19)
(-0.0306394 0.00562001 5.76704e-18)
(1.41702e-05 -6.28738e-05 -6.72155e-19)
(-0.00129513 -0.000445668 -3.72727e-19)
(-0.000238771 -0.000397447 -1.44098e-19)
(0.000466531 0.000814272 -2.54108e-18)
(-0.000214105 -0.000235072 3.56311e-19)
(-0.00017489 -1.29454e-06 -6.89563e-19)
(-6.73287e-05 -0.00077039 2.15303e-18)
(-0.00184421 -0.00205108 -1.9658e-18)
(4.2846e-05 -3.59817e-05 7.24621e-18)
(0.00010139 -0.000332125 -3.04912e-18)
(1.08466e-05 -0.000386492 -2.37179e-18)
(0.000634542 0.000671852 1.36428e-18)
(7.75937e-05 -0.000744543 -5.77334e-18)
(6.57743e-05 0.000621921 -1.14813e-18)
(-0.000230204 -2.75704e-06 1.84115e-18)
(6.17979e-05 -0.000155267 -1.74196e-18)
(-0.000945167 -0.000290381 -2.96586e-19)
(-1.465e-05 -0.000134054 -2.01617e-18)
(-0.000154206 -1.401e-06 -1.03816e-18)
(6.69197e-05 -0.00071518 4.6561e-18)
(0.00014745 0.000181731 -8.61938e-19)
(0.0231441 0.1016 -5.49725e-18)
(-0.0505164 0.0287983 -1.80419e-17)
(-0.0942785 -0.0271434 2.4078e-17)
(-0.00511928 0.00300748 -5.56326e-18)
(-0.00346696 0.00366744 -8.6794e-18)
(-0.000460881 -4.53294e-05 1.84884e-18)
(0.018562 0.0101428 5.51648e-18)
(0.406747 -0.319692 -1.63569e-17)
(-6.30675e-05 -0.000735378 -1.44332e-19)
(3.04841e-05 -0.000184774 -2.4851e-18)
(-0.00017883 -1.83546e-05 -4.72276e-19)
(0.000201398 0.000230841 1.74061e-18)
(-0.000217401 -0.000213348 -7.51037e-21)
(0.156723 0.0378205 -1.81304e-18)
(-0.000414766 -0.000813151 -2.30736e-18)
(0.000130781 0.000158331 -3.84929e-18)
(-2.43468e-05 -0.000503492 -5.09635e-18)
(-0.00507427 0.000834484 -1.14334e-17)
(-0.0010427 -0.000344625 3.02521e-20)
(-0.0196249 0.0616624 -6.27069e-17)
(-0.00416763 0.00354612 -2.27863e-18)
(0.0584902 -0.0255518 1.31418e-17)
(4.82308e-05 -0.000114425 1.83281e-18)
(-0.00210604 -0.00202092 -7.04657e-19)
(-0.000206671 -0.000214144 -4.56114e-19)
(0.000224075 -0.00121937 5.40975e-18)
(-0.000721259 0.000141403 -4.73757e-19)
(0.00176731 -0.000313036 7.56691e-18)
(0.000188993 -0.000796207 -1.97688e-18)
(0.000757889 -0.000212479 -4.14407e-18)
(-0.323455 -0.0919808 4.16141e-17)
(-0.000255991 -0.000116833 -7.77416e-19)
(-0.000224336 5.06747e-06 -1.15815e-19)
(0.433728 -0.258298 -3.042e-19)
(0.0153817 0.00778177 -1.02277e-17)
(-3.50176e-05 -0.000300509 8.29347e-20)
(5.494e-05 0.000637809 1.81128e-18)
(6.90101e-05 7.13251e-05 -1.45464e-18)
(0.155538 -0.348878 -1.43337e-18)
(-0.0087344 0.00322505 9.64048e-18)
(-0.000661702 -0.0580741 6.84581e-18)
(-4.56807e-05 2.91413e-05 2.57666e-18)
(-0.000165874 -7.51274e-06 4.66628e-19)
(-7.04689e-06 -0.00081812 3.26374e-18)
(-0.00025079 4.99485e-05 -3.26089e-19)
(-0.0453413 0.216806 -1.09055e-17)
(0.000131156 -0.000262957 -9.23166e-18)
(4.19345e-05 0.000657032 6.99656e-19)
(2.47753e-05 -0.000271113 4.23199e-19)
(-6.52843e-06 -0.000453014 -4.54809e-18)
(0.00387224 -0.00321129 1.57185e-18)
(-0.000245518 -3.31102e-05 -9.20315e-18)
(0.019645 0.0100603 -1.67689e-17)
(0.390858 0.0589903 3.45286e-17)
(-0.000147396 -0.000117707 1.45558e-17)
(-0.0434451 0.0531339 6.95743e-18)
(6.76008e-05 -0.000577578 -5.51483e-18)
(0.000196086 -0.0011889 -2.69817e-18)
(1.49679e-05 0.000168903 -1.9422e-18)
(-0.505581 0.0597962 -7.39979e-17)
(0.0168697 -0.0295719 2.20408e-18)
(0.0698433 -0.203328 -7.06351e-17)
(-0.222099 -0.195699 -1.31712e-17)
(-0.000230778 0.000143385 1.25087e-18)
(-0.000446881 -0.000891569 9.18812e-19)
(2.46056e-05 -0.000573785 -6.68451e-18)
(-5.82104e-05 2.71138e-05 2.60725e-18)
(0.00112727 -0.00010862 1.53625e-18)
(-3.69108e-05 -0.000303641 4.01535e-18)
(0.00231358 0.000540566 -1.00842e-17)
(-0.000222633 -2.48154e-05 -1.89338e-18)
(-0.000155259 1.97089e-05 -6.35314e-19)
(0.000130323 -0.000415245 -6.6695e-18)
(0.0224756 0.0113774 1.45736e-17)
(1.28112e-06 -0.000247372 -3.90102e-18)
(7.1835e-05 -2.6805e-05 1.23481e-18)
(7.5866e-05 -0.000747296 -2.80643e-18)
(-0.000242913 -1.46068e-05 1.02054e-18)
(-0.0289983 0.0655344 3.87201e-17)
(6.89831e-05 -0.000646341 5.02683e-18)
(-4.54419e-06 0.000465465 1.05716e-18)
(4.23356e-05 -9.09747e-06 3.21766e-18)
(-0.000300912 -0.000339007 3.97892e-19)
(0.0055972 -6.87815e-05 -7.9373e-18)
(0.00573762 0.0456753 5.57415e-18)
(-0.00322149 0.00411057 8.5907e-18)
(-0.28626 -0.0029421 3.07225e-17)
(0.00405172 -0.0028083 -7.87465e-18)
(-0.00013588 -0.000270521 -2.93461e-18)
(6.00801e-05 -0.000802485 4.35467e-18)
(-0.000179425 -1.76028e-05 5.3038e-19)
(-0.000120403 0.000227668 1.90544e-18)
(-1.51269e-05 -0.000151381 -1.38687e-18)
(-0.205481 0.0480644 -4.01784e-17)
(1.73951e-05 -0.000890137 5.57711e-19)
(3.3549e-05 -0.000246311 1.66298e-19)
(0.023206 -0.0504009 -1.11904e-19)
(9.00587e-06 -0.000708161 5.00945e-19)
(0.00016891 2.82508e-05 -4.13535e-18)
(-0.000120072 3.98468e-05 9.42448e-18)
(0.0291707 -0.054499 5.05581e-19)
(-0.000474143 -0.000433628 -1.57666e-19)
(-0.00063253 2.11414e-05 6.93081e-18)
(0.00601856 0.00713332 -1.2454e-17)
(0.00229549 0.0008298 -2.0276e-19)
(0.000255442 0.000406364 3.0939e-18)
(3.28214e-05 -0.000447942 -8.54961e-18)
(-0.356064 -0.0286291 1.51179e-17)
(0.00435429 -0.0111147 2.01652e-17)
(-0.000393328 -0.000737611 -1.30123e-18)
(0.00507174 -0.000402241 -9.38764e-18)
(8.7975e-05 -0.000528855 -1.26187e-18)
(1.11357e-05 -4.81742e-05 -7.17856e-20)
(6.67271e-05 -0.00054072 -1.43195e-18)
(-0.000155196 0.000845747 9.60359e-19)
(0.115526 -0.155172 -1.1635e-17)
(-0.00100794 -0.00117003 -2.23759e-18)
(-3.00151e-05 -0.000282832 -2.34288e-18)
(-8.62593e-05 -0.000273135 -9.63428e-19)
(-4.22209e-08 -4.86823e-05 2.83725e-19)
(-1.20437e-05 -0.000389801 3.64648e-18)
(-0.0237103 -0.0100761 9.77163e-18)
(3.98045e-05 -0.000446388 -1.90606e-18)
(-0.000265521 1.40518e-05 2.00608e-19)
(-0.203188 0.213341 -2.09097e-16)
(-2.42808e-05 -0.000102241 -2.02734e-18)
(0.178715 0.394689 7.06649e-18)
(-0.221832 0.0797379 -3.16595e-17)
(-0.00303243 -0.00179216 -1.36247e-17)
(0.0861748 -0.331208 -5.73357e-18)
(-0.0888022 -0.0104753 1.60501e-17)
(0.000655571 0.00134379 1.75737e-18)
(-0.030855 0.00212451 3.40243e-18)
(8.25965e-06 0.000473151 2.81837e-18)
(0.00443393 -0.0154102 1.10223e-18)
(3.08449e-06 -0.000156892 -3.87506e-19)
(-3.76743e-05 -0.000329866 7.95011e-19)
(0.040459 -0.118066 3.48395e-18)
(3.86459e-05 0.000263232 1.56275e-19)
(-8.50817e-05 0.000157068 2.69825e-18)
(-0.0871879 -0.0711365 -2.04235e-17)
(-0.000184864 6.38038e-07 -6.53697e-19)
(-1.96033e-05 -0.000194617 1.83461e-19)
(-0.00681185 -0.00526458 -2.48453e-17)
(-0.0876183 -0.0147356 4.66026e-18)
(-8.69293e-05 -0.000197553 3.71359e-19)
(-0.000367358 0.000203403 -1.4447e-19)
(0.0264556 0.0400066 -1.58331e-17)
(0.0220824 -0.0293693 -1.54049e-18)
(1.70857e-05 -0.000236753 -1.15492e-18)
(-0.0121803 -0.00855479 -1.27887e-17)
(-0.181701 0.0115957 -5.12645e-18)
(-0.000140228 -0.000404161 1.80047e-19)
(-2.21925e-05 -0.00028599 -1.03508e-18)
(-0.000249567 0.000216119 -1.36166e-18)
(0.000102815 -7.0215e-05 1.75802e-18)
(-0.00016581 2.3622e-05 6.23362e-19)
(-0.000268801 -8.42764e-05 -8.57045e-19)
(-0.226329 0.0407786 -1.91342e-17)
(0.0715692 0.404025 -1.09416e-18)
(-7.73377e-05 -0.000270136 -1.95275e-18)
(0.15241 -0.0900898 9.5035e-18)
(-0.000171745 -2.41158e-05 4.54426e-19)
(0.000154446 -0.000126358 9.80633e-19)
(0.139991 -0.0652703 1.54311e-17)
(-0.000383934 -0.000616031 -7.56601e-19)
(0.0762053 0.459478 3.51872e-18)
(-0.0102872 0.00364316 1.16748e-17)
(-0.000229532 -0.000133465 -1.18793e-17)
(-0.000297482 -0.000177242 2.31094e-20)
(-0.000350477 0.000179073 1.57543e-19)
(0.00415045 0.0431669 4.4498e-17)
(-0.00084632 -0.000334103 7.44772e-19)
(0.000529752 0.00150508 -6.1583e-19)
(6.02623e-05 -0.000200495 5.25495e-18)
(-0.295347 -0.134771 -3.37875e-17)
(8.65947e-05 -0.000380177 3.43399e-18)
(0.111537 -0.222979 1.52036e-17)
(-0.000199579 -0.000124004 -5.96533e-18)
(3.61106e-05 -0.000420148 3.89721e-18)
(2.91312e-05 -0.000828724 5.65235e-19)
(0.0976598 0.0934166 5.7762e-17)
(5.38551e-05 -0.000422433 -1.42088e-18)
(-0.00054414 -0.0012885 6.19127e-18)
(0.000121719 -0.000780571 -6.68442e-18)
(-0.00043104 -0.000416638 -7.85133e-19)
(0.0222457 -0.0611468 -1.45203e-17)
(9.04075e-05 -0.000538409 3.71944e-18)
(-1.77371e-05 -0.00040746 -8.18223e-19)
(-0.000207993 -1.71806e-05 1.22416e-19)
(-0.0722186 0.0381138 -1.0714e-16)
(0.000103351 7.29329e-05 4.57281e-19)
(0.000116314 -0.000575324 -5.5572e-18)
(0.000223305 0.00013689 -1.16644e-18)
(-0.000206918 -0.000227667 -1.04562e-18)
(-0.255644 -0.213003 -1.5809e-17)
(0.121359 -0.36372 4.36697e-18)
(-4.98225e-05 -2.37285e-05 1.92191e-18)
(-5.71032e-06 -0.000700241 -2.93619e-18)
(-0.000904288 -0.00130748 1.62634e-18)
(-0.000164516 1.28339e-05 1.2514e-18)
(9.04058e-05 0.00023288 -3.43255e-18)
(4.65088e-07 -0.000726556 -2.73569e-18)
(-0.120602 0.0830655 6.64387e-17)
(8.88881e-06 -0.000125645 3.28424e-18)
(-0.000202482 2.28549e-06 -9.32642e-19)
(-0.000513862 0.0016816 -7.46485e-19)
(0.224644 0.289558 7.50458e-17)
(-0.0039906 -0.011252 6.62208e-18)
(-1.33272e-05 -0.000168291 5.76887e-19)
(0.00124107 -0.000424483 -8.45553e-19)
(-0.205588 -0.0352176 -6.03172e-18)
(0.00441432 -0.0037747 -8.40683e-18)
(-2.00761e-05 -0.000370818 -3.24314e-18)
(3.33071e-05 -0.000582542 1.0827e-18)
(-0.0758468 0.0835765 -2.03377e-18)
(-0.000393355 -0.000681544 1.3626e-18)
(3.84065e-05 -0.000415817 -4.73657e-18)
(-0.00208898 -0.00062655 2.28707e-18)
(-0.000224105 -2.52209e-05 -3.61765e-20)
(-0.000256332 -0.000114423 1.20942e-18)
(-0.000279464 -0.000423941 2.15378e-18)
(-0.000209603 7.56617e-05 -6.76354e-19)
(-0.00209048 0.00513716 -1.01575e-18)
(5.20398e-05 4.26658e-05 -3.39576e-18)
(6.09294e-05 -0.00040903 9.02222e-21)
(-0.341968 -0.0896232 -4.57589e-17)
(-0.00014423 -0.000298166 2.07118e-18)
(-0.000831605 -0.00018553 -5.0042e-19)
(1.74802e-05 0.000208709 1.07811e-19)
(6.97756e-05 -0.000213092 -3.34272e-19)
(0.00202741 0.000282543 2.22499e-18)
(-4.30214e-05 -9.13258e-05 7.8268e-19)
(-0.000284729 -0.000259948 -5.26125e-19)
(0.0938924 -0.18209 -3.83815e-17)
(0.000146972 -0.000283206 -2.76859e-19)
(0.0523346 0.461833 6.69823e-17)
(-5.2448e-05 -0.000693045 2.38942e-19)
(-8.48457e-07 -8.80896e-05 -5.67149e-19)
(-6.12429e-06 -7.24878e-05 2.97125e-18)
(0.038022 -0.0246784 3.45073e-18)
(0.00016255 -0.000479401 -1.89275e-18)
(3.48467e-05 -0.000417934 3.22476e-19)
(2.53205e-05 7.16117e-05 3.41574e-19)
(-0.00037951 -0.00075103 -1.38707e-18)
(-0.000988323 0.000592969 -1.09734e-17)
(-0.0507949 0.654496 3.22228e-17)
(0.00011825 9.68519e-05 1.04917e-18)
(-0.00253839 0.00505776 4.71148e-18)
(-0.0793698 -0.0553062 5.52886e-18)
(0.00412287 -0.00441847 4.51946e-18)
(-2.02425e-05 -0.000244002 -1.61093e-18)
(2.20099e-05 -0.000807351 -5.92023e-18)
(-0.000596505 -0.00024847 -1.0916e-18)
(-6.96587e-05 7.25223e-05 -3.43376e-18)
(8.03031e-05 -0.000240742 3.17786e-18)
(0.0450978 -0.24576 -1.2215e-17)
(-0.168187 0.161528 -6.38819e-17)
(2.40624e-05 0.000139938 -6.85954e-19)
(-0.000206564 -0.00040612 -5.58491e-18)
(0.000924225 -0.00258792 2.63696e-18)
(0.000715761 -0.00242965 5.44377e-19)
(-5.65982e-05 -0.000716103 -7.25921e-18)
(-0.000230183 -2.32163e-05 7.69265e-19)
(0.170717 0.20443 3.20296e-17)
(0.00913301 0.041343 3.61586e-18)
(-0.0791812 -0.0486039 -1.08269e-17)
(-0.000284787 -0.000168398 1.52279e-19)
(-0.000580875 -0.000328191 2.92698e-19)
(-0.000380549 -0.000607149 6.54624e-19)
(-2.56878e-05 -7.88181e-05 8.27961e-19)
(0.164142 -0.131189 4.55407e-17)
(0.00177594 -0.00101611 3.67885e-18)
(-0.000343216 -0.000785134 2.11308e-18)
(-0.000175863 -0.000279361 8.54137e-19)
(-0.000148169 -3.27771e-05 -2.3199e-18)
(-4.23499e-05 -0.00066087 4.90845e-18)
(0.187654 0.24795 -6.30837e-17)
(0.000136932 -0.000647797 5.20152e-18)
(1.38149e-05 0.000308619 2.39843e-18)
(-0.142854 0.066219 -7.86324e-17)
(-0.0746127 -0.0161839 3.907e-18)
(-0.0435592 0.0535108 -9.98859e-18)
(0.00860872 0.00751809 2.12001e-17)
(7.8387e-05 0.000369218 -3.33637e-18)
(-0.000218457 0.00015586 3.18716e-20)
(-0.00231723 -0.0207456 -5.88266e-21)
(0.00262332 -0.00845749 -4.81232e-18)
(-0.222763 -0.693348 2.91302e-17)
(-0.376135 -0.181755 -1.43735e-16)
(-0.000635503 -0.000220083 -6.61965e-18)
(-0.000525497 -0.000990612 -4.45695e-18)
(-5.35396e-05 4.62916e-06 2.04647e-18)
(7.17909e-05 -8.91547e-05 -2.10292e-18)
(-6.48954e-05 -0.000983039 -7.9299e-19)
(-4.60123e-05 6.18444e-05 -2.04202e-18)
(-0.192687 -0.07997 -7.20809e-18)
(-0.000228969 1.51336e-05 -9.60498e-19)
(7.20762e-05 -0.000446473 2.8133e-18)
(0.0161743 2.22932e-05 -8.05878e-19)
(-5.5311e-05 -2.23389e-05 4.42657e-18)
(0.153653 -0.0577458 -4.54763e-19)
(-8.2904e-05 -0.000630479 -3.34675e-20)
(0.0483627 0.0635889 1.7183e-17)
(0.00111193 0.001594 -4.18141e-18)
(-6.32445e-05 -0.000459803 2.45065e-19)
(-0.00031659 -0.000904631 1.14048e-18)
(-4.47704e-05 -0.000245943 -3.34138e-18)
(-0.00468597 -0.00915058 -3.80205e-19)
(0.00902813 0.00654902 -5.15694e-18)
(-0.0121527 0.0190037 -4.55096e-18)
(1.6461e-05 -0.000287528 -1.60967e-18)
(0.000985203 -0.0153605 4.19436e-19)
(0.000235155 0.000130999 -3.03936e-18)
(-6.41552e-05 -0.000368599 1.13121e-18)
(-6.80916e-06 2.82608e-05 -5.44282e-18)
(-0.00012009 0.000242212 -1.63262e-18)
(-1.47653e-06 0.000685036 1.38408e-18)
(-0.000746434 -0.000165612 -6.89368e-18)
(-0.00510517 -0.0105939 2.50721e-18)
(-0.00578835 -0.00116781 1.19931e-17)
(1.56444e-05 0.000393394 -2.27903e-18)
(0.000147074 -0.000197621 2.12681e-19)
(3.54201e-05 5.14415e-05 5.97187e-19)
(2.7365e-05 8.19423e-05 -1.46139e-18)
(-0.0284624 0.00042929 8.79036e-18)
(-2.65519e-06 -0.000248375 5.41403e-18)
(0.000220225 5.14282e-05 -1.77405e-19)
(0.123942 0.0353843 5.55243e-18)
(-0.000212216 9.71343e-05 1.31836e-18)
(0.00395156 -0.00865574 5.77694e-18)
(-0.00430524 -0.034967 -5.27953e-19)
(5.1391e-05 0.000698445 3.07368e-18)
(-0.357936 0.123408 -3.80381e-17)
(0.00277088 0.00362295 -4.7633e-18)
(-4.46449e-05 -1.02435e-05 2.22627e-19)
(-0.113064 -0.0261176 7.20397e-18)
(-0.000315664 -0.000466816 -1.42193e-20)
(-1.32154e-05 -0.000185589 -1.85523e-19)
(4.02968e-05 -0.000580185 7.3077e-18)
(3.1189e-05 -0.000521755 -5.91949e-18)
(4.89365e-06 -0.000113702 -2.91028e-18)
(0.000111844 4.20329e-06 -6.08836e-19)
(-5.35746e-06 -0.00073856 -3.11789e-18)
(-0.0735704 -0.00221901 5.65187e-18)
(4.41241e-06 -0.000123431 -3.97719e-18)
(2.97984e-05 -0.000782222 -2.31275e-18)
(-8.59217e-05 -0.000101144 -1.19532e-20)
(0.00210759 -2.20566e-05 -4.72766e-18)
(0.000354673 0.000810909 1.20265e-18)
(9.74706e-06 -0.000567965 4.48669e-18)
(-6.50573e-05 -0.00115767 -6.85037e-19)
(-0.00018802 0.000124441 -3.59484e-20)
(0.00302318 -0.00167266 5.41504e-18)
(8.11091e-06 -9.38803e-05 -5.57025e-18)
(0.00100646 0.00172664 2.88274e-18)
(-0.00027214 -2.8311e-05 2.37765e-19)
(-0.000283851 -0.00035868 3.77588e-18)
(-0.000355936 0.000119526 -2.86625e-20)
(3.95389e-05 -0.000482363 -1.95051e-18)
(0.340195 0.0367269 -1.55215e-17)
(-0.000253321 0.000188766 -1.24625e-20)
(-0.0253421 0.000771446 -1.21939e-17)
(-2.20425e-06 -0.000779558 4.26943e-18)
(-0.000376405 -0.000793927 -1.94482e-18)
(-0.00017151 -0.000232503 -1.91671e-19)
(0.00191691 0.000481121 -5.28999e-19)
(8.49439e-06 0.0001155 -1.63818e-18)
(0.00238461 0.00430627 -2.39984e-18)
(-5.22659e-05 -0.000309829 4.16966e-21)
(-0.101399 -0.023393 2.22665e-18)
(-1.70171e-05 -0.000458511 -5.8425e-18)
(0.423191 -0.0234718 4.11261e-17)
(-0.000360658 0.000223164 -2.22519e-19)
(-0.000231848 -5.38227e-05 -1.62703e-18)
(-1.07046e-05 -0.000454425 3.27654e-18)
(3.13135e-05 -0.000627646 1.30475e-17)
(8.03869e-05 -0.000504618 3.84057e-18)
(4.95185e-05 0.000147383 1.9725e-18)
(1.64079e-05 0.000688844 1.32877e-18)
(-0.0177798 -0.0131084 6.94702e-18)
(-0.276369 -0.111955 -5.40024e-17)
(0.139348 -0.0723661 -5.71637e-19)
(6.89885e-05 -0.000956922 2.44461e-18)
(-0.00280047 0.00392471 -7.19785e-18)
(-1.71571e-05 -0.000594617 -1.35536e-18)
(-0.000519416 0.00584269 -4.41197e-19)
(0.0166727 0.00385125 -9.69733e-19)
(5.82725e-05 0.000172777 4.19599e-19)
(-0.00193224 -0.000530304 -3.34189e-18)
(-0.0131122 0.0198943 7.23541e-18)
(-0.260351 -0.917958 -1.34504e-17)
(-0.00751602 -0.0335949 2.88264e-18)
(0.37093 -0.0885741 8.27943e-18)
(-5.00496e-05 -0.000309085 5.81567e-18)
(8.46395e-05 -0.000244516 -9.79367e-19)
(-4.84587e-05 -0.000220893 2.48381e-18)
(0.000184135 -0.00115657 2.92534e-18)
(2.66892e-05 -0.000104019 -3.03579e-18)
(-0.00345007 -0.00770274 3.40519e-19)
(-0.000236281 0.000130581 -1.20181e-18)
(0.000292578 0.000425844 -6.14682e-20)
(-0.0456733 0.0216106 8.5973e-18)
(-1.3529e-05 -5.94804e-05 1.08525e-18)
(4.45956e-05 2.49031e-05 -1.10217e-18)
(8.60227e-06 -0.00126071 -5.6797e-18)
(0.299207 -0.354869 1.44894e-17)
(-0.00014886 -7.87783e-05 1.09039e-19)
(0.00109745 -0.000114615 -5.89083e-18)
(-0.00514761 -0.0209611 -1.11507e-18)
(-1.08833e-05 -0.000541698 -2.14117e-18)
(0.00191895 0.647705 -7.7119e-17)
(-0.00023811 6.76087e-05 7.66336e-19)
(1.2718e-05 -0.00043298 1.60675e-18)
(0.000109108 -0.0003604 6.78283e-19)
(-0.000245619 3.16377e-05 1.04363e-20)
(-0.469261 0.080328 1.63487e-16)
(0.0237809 0.000203467 -4.24461e-18)
(0.283284 -0.357641 -1.01154e-18)
(-1.14744e-05 2.9587e-05 -3.25432e-18)
(0.268383 0.149509 4.67818e-18)
(-0.23681 0.0638247 -8.91432e-17)
(-0.194566 0.097946 1.39816e-17)
(-0.00281508 -0.00723083 -9.4058e-19)
(0.0213575 0.00890454 -1.047e-17)
(-0.0720175 0.0112625 9.48448e-18)
(0.00189719 0.00635855 1.92833e-18)
(6.27685e-05 -0.000711231 3.52084e-18)
(0.000126366 -0.000832605 4.24125e-18)
(-0.00227817 -0.000595541 -1.45872e-18)
(-0.618014 0.0122235 1.34634e-17)
(-6.33185e-05 -0.000479454 -6.08168e-19)
(-0.000515526 0.00189682 1.7857e-19)
(0.0785857 0.316222 -3.2398e-18)
(3.64337e-05 0.000245886 3.50936e-18)
(2.07357e-05 -0.000241181 -7.19892e-18)
(-6.21036e-05 -0.000343551 2.89842e-20)
(3.12686e-05 -0.000149247 3.62012e-18)
(9.04859e-05 -0.000481836 4.44622e-19)
(-0.000592803 -0.000356017 2.40449e-19)
(0.038526 -0.0180924 -1.18997e-17)
(-0.0650867 -0.20615 1.33977e-17)
(-0.000555972 -0.000321557 -2.05466e-19)
(9.08922e-05 7.83721e-05 1.18576e-18)
(-0.479497 -0.0959694 8.84223e-17)
(0.150563 0.593439 -6.54168e-17)
(3.18267e-05 -0.00062789 6.97664e-19)
(-2.04396e-05 -0.000538821 -6.79608e-18)
(-3.02458e-05 4.29303e-05 2.86024e-18)
(0.00011556 -2.64421e-05 3.65135e-19)
(0.158853 -0.0596752 -8.887e-18)
(0.0243538 -0.00319804 -6.12706e-18)
(-0.0306197 0.0513281 -1.73261e-17)
(6.86734e-05 -0.000125617 -9.86085e-19)
(1.34673e-05 -0.000170615 6.06763e-18)
(-0.000334664 -0.000320423 3.51901e-19)
(-0.000174609 -0.000351346 -4.79062e-18)
(4.7617e-05 0.000561559 -3.13902e-18)
(0.00257401 -0.000298096 2.86532e-18)
(-0.000276626 -0.000173947 3.44177e-18)
(0.438347 0.0444743 -5.86056e-17)
(9.99129e-05 0.000245414 2.79992e-18)
(2.29633e-06 7.73395e-05 -9.51494e-18)
(0.0048388 0.00366795 5.15512e-19)
(-7.99693e-05 -0.000523602 -4.3638e-20)
(0.000533204 -0.00574485 -5.00248e-19)
(-0.0127808 0.00685881 -2.96729e-18)
(-0.000326755 -0.000860688 -2.16822e-18)
(-0.205969 -0.08658 -3.16737e-17)
(-0.0178666 -0.785256 1.03884e-17)
(8.8387e-05 -0.000222492 1.16623e-18)
(8.74828e-05 -0.000391308 -1.48978e-18)
(-0.0662853 0.0572424 1.77183e-17)
(-0.489222 -0.0786746 1.10032e-17)
(0.000164322 0.00457116 1.92745e-18)
(-0.000254287 -0.000382348 1.74559e-19)
(-0.0989428 0.386177 -1.87576e-17)
(-0.033578 -0.00373109 -1.0209e-17)
(-0.000698254 -0.001095 1.03439e-17)
(4.83728e-05 -0.000631314 1.30642e-17)
(3.47683e-05 2.16446e-05 -2.35511e-18)
(-1.23651e-05 -0.000257359 -4.24578e-18)
(-0.0163451 0.0723883 -4.23676e-17)
(8.73793e-05 -0.000862347 -2.48243e-18)
(-0.0210461 -0.00152348 -1.91599e-17)
(-1.40329e-05 -0.000203486 8.7151e-19)
(0.0111649 0.0821783 -5.73058e-17)
(0.0924776 -0.154434 3.09272e-17)
(9.0068e-06 -0.000788281 6.97151e-18)
(8.4988e-05 -0.000168112 -4.7499e-18)
(-0.0160414 -0.0125545 -1.43044e-17)
(-2.77097e-05 0.000408449 9.03779e-18)
(-0.000185334 -0.000199766 -2.62192e-18)
(0.000260747 0.000551431 1.47989e-18)
(0.153431 -0.20852 2.53372e-17)
(0.146815 -0.375835 -1.87743e-17)
(0.29639 0.0523303 2.17261e-18)
(-0.00078671 -0.000173418 7.31765e-19)
(0.00819589 0.0121427 -2.1109e-17)
(0.00173146 0.00564993 -1.68349e-18)
(-0.000235534 -6.27903e-05 -2.43156e-18)
(-0.000138806 -2.43329e-05 2.00255e-18)
(-1.27772e-05 0.00029774 1.7792e-18)
(-0.0070073 0.0713519 8.34024e-17)
(-5.08852e-05 3.94935e-06 -6.57461e-19)
(2.30644e-05 -0.000801496 4.5259e-18)
(0.009884 0.0112877 1.29176e-17)
(2.46501e-05 -0.000786323 -3.25339e-18)
(-0.000600471 -0.0138101 3.55971e-17)
(-1.8965e-05 2.55134e-06 1.62379e-18)
(1.38288e-05 6.74021e-05 -9.13058e-19)
(-0.000207975 -2.35895e-05 -6.529e-20)
(1.45709e-05 0.000475554 -1.43685e-18)
(-0.0514678 0.0903637 -9.14601e-17)
(-4.19246e-05 5.43406e-05 -7.07506e-19)