/*--------------------------------*- C++ -*----------------------------------*\
| =========                 |                                                 |
| \\      /  F ield         | OpenFOAM: The Open Source CFD Toolbox           |
|  \\    /   O peration     | Version:  v2012                                 |
|   \\  /    A nd           | Website:  www.openfoam.com                      |
|    \\/     M anipulation  |                                                 |
\*---------------------------------------------------------------------------*/
FoamFile
{
    version     2.0;
    format      ascii;
    class       volScalarField::Internal;
    location    "450";
    object      V0;
}
// * * * * * * * * * * * * * * * * * * * * * * * * * * * * * * * * * * * * * //

dimensions      [0 3 0 0 0 0 0];


value           nonuniform List<scalar> 
10042
(
0.0572237
0.111733
0.0375194
0.173361
0.00235614
0.122066
0.0078433
0.0055279
0.0597704
0.122342
0.00130313
0.176205
0.14568
0.153873
0.0226754
0.101121
0.109651
0.17743
0.0718991
0.00397173
0.142664
0.00848415
0.163131
0.135727
0.0989578
0.0199523
0.141134
0.0269194
0.0517168
0.0341944
0.0865108
0.00136567
0.140785
0.0339187
0.0207751
0.135104
0.0226058
0.0160455
0.145299
0.012617
0.00292945
0.022773
0.00755935
0.0438317
0.00238595
0.0152076
0.0236961
0.0126348
0.0205445
0.022476
0.174988
0.0396544
0.0199964
0.0381393
0.0199569
0.102188
0.0490841
0.0309716
0.0390735
0.0226351
0.100444
0.0887654
0.0179594
0.0467889
0.027936
0.0374573
0.0330536
0.00595055
0.0020979
0.0495209
0.0403767
0.00271292
0.0416437
0.0122434
0.0358952
0.122916
0.00179592
0.067269
0.0122789
0.00691565
0.0180443
0.00300956
0.0401731
0.0251289
0.0389921
0.170223
0.0529325
0.00499464
0.0354973
0.0707894
0.0371006
0.0023643
0.0239727
0.0432428
0.0340747
0.0418572
0.0864962
0.0425872
0.0187828
0.0465319
0.192294
0.00546993
0.0058455
0.158734
0.027726
0.00697019
0.0516318
0.0833965
0.156309
0.0901869
0.134367
0.0638651
0.0202861
0.00174136
0.0305375
0.0667967
0.0592162
0.0567428
0.0479177
0.00191703
0.0413804
0.00583553
0.0359561
0.067178
0.00699038
0.0346291
0.00600127
0.0141913
0.00859415
0.0649359
0.0112374
0.0431413
0.00170529
0.00719479
0.0539692
0.00856256
0.00171684
0.0321067
0.0117717
0.00448378
0.0262024
0.0452653
0.0290296
0.0053746
0.0514386
0.0610755
0.00801943
0.0786691
0.0410222
0.0196966
0.0516558
0.172468
0.00596883
0.00187093
0.131596
0.146755
0.0271499
0.0693554
0.00807323
0.00150487
0.00137827
0.00804729
0.0657996
0.0494296
0.0332665
0.0462121
0.00610498
0.001894
0.00140424
0.00211326
0.0407363
0.097859
0.00233716
0.00456236
0.0089931
0.00950382
0.0013415
0.0365458
0.00527676
0.014899
0.0265187
0.00121162
0.0405049
0.017741
0.0227197
0.0022167
0.00533673
0.0301541
0.00133602
0.024789
0.00210206
0.0270231
0.00703352
0.00288906
0.00789976
0.00267919
0.0233238
0.0634083
0.147805
0.0242579
0.0096184
0.0245361
0.0663227
0.00340625
0.0373924
0.0848458
0.00156672
0.124819
0.169339
0.144151
0.00350027
0.184378
0.00741852
0.00318439
0.0284332
0.00436635
0.0413002
0.104534
0.0090229
0.0859481
0.0185945
0.026749
0.00368495
0.0146765
0.0134253
0.017428
0.00507439
0.0663514
0.00620954
0.0348066
0.0556016
0.0032728
0.0901818
0.0367745
0.0305933
0.0173971
0.0672809
0.174176
0.0275621
0.0240638
0.0703221
0.0342112
0.0355823
0.018245
0.0629733
0.0901823
0.165079
0.0264252
0.0405837
0.2067
0.135135
0.0525887
0.0183248
0.00294599
0.00656728
0.00127271
0.00868549
0.00991603
0.0191738
0.0146904
0.00782461
0.0337185
0.0621538
0.162883
0.027531
0.0626934
0.00950452
0.0240611
0.0604173
0.140953
0.00857676
0.0373919
0.00355225
0.00992968
0.00489461
0.0183126
0.0270529
0.0715704
0.0131484
0.04093
0.0144224
0.039424
0.0186508
0.00201544
0.0707876
0.0518532
0.00946594
0.0134471
0.0404852
0.100095
0.0218751
0.0100073
0.0119743
0.00437804
0.169779
0.142238
0.0567875
0.0526017
0.0067218
0.0527956
0.0865022
0.0824256
0.0444271
0.0179311
0.016538
0.00584526
0.0025941
0.0213313
0.00354706
0.0647538
0.0160956
0.131571
0.00126198
0.00588551
0.00326385
0.00122924
0.107616
0.0228841
0.0425429
0.0206235
0.0165407
0.168027
0.0116507
0.116034
0.168743
0.0355822
0.00548956
0.16482
0.0289523
0.03796
0.0190267
0.00160456
0.0614516
0.122276
0.174773
0.047106
0.0101457
0.00703548
0.00849734
0.00431316
0.0147974
0.020438
0.0359191
0.143016
0.0299753
0.175876
0.00454244
0.0371525
0.0333847
0.0167319
0.0625832
0.0175784
0.0241314
0.014886
0.0340565
0.0173067
0.00958534
0.0140982
0.0278968
0.063681
0.00329359
0.00646204
0.028979
0.0118102
0.0818012
0.0918338
0.0907446
0.017578
0.0035832
0.0248941
0.163024
0.0219528
0.175433
0.15095
0.00414867
0.06366
0.0666628
0.00178755
0.0904201
0.00635453
0.00444132
0.00987631
0.0112551
0.00146366
0.0147427
0.00287969
0.127628
0.0181962
0.191067
0.0297653
0.0141469
0.133149
0.0188674
0.00206446
0.145886
0.122705
0.00604272
0.00157226
0.0324327
0.0819062
0.00114965
0.00568637
0.0882467
0.00544248
0.00135748
0.068191
0.16413
0.0782024
0.0598694
0.160826
0.0634235
0.00392625
0.00410538
0.0285224
0.00319605
0.14717
0.0600701
0.00348623
0.0408478
0.00574681
0.0102718
0.0232697
0.0791075
0.0813398
0.00382211
0.034927
0.0153093
0.0278223
0.00129414
0.0286227
0.00266855
0.023805
0.106351
0.0578127
0.00328357
0.0988232
0.0180884
0.0450522
0.0427617
0.00135183
0.0219194
0.0462835
0.189814
0.00148988
0.065671
0.016814
0.0233359
0.0635045
0.00302627
0.010215
0.0872861
0.032319
0.0239342
0.129293
0.0933923
0.0693054
0.00125899
0.0786124
0.143819
0.0120296
0.00644756
0.00842076
0.172129
0.0145435
0.00157877
0.0160695
0.0580904
0.0637683
0.00576353
0.0305457
0.107519
0.0131578
0.0573701
0.0723231
0.0222908
0.0819173
0.00715193
0.0478841
0.094016
0.00125324
0.108402
0.0384369
0.115851
0.0304985
0.0135589
0.0927676
0.0520265
0.00321602
0.0323728
0.0052495
0.0278268
0.214287
0.174337
0.00546284
0.0455771
0.0559602
0.170176
0.0358315
0.0131872
0.00647568
0.062486
0.00903457
0.00178282
0.0174081
0.171403
0.0633409
0.0424444
0.1477
0.0624341
0.00197666
0.00126797
0.138624
0.0138812
0.0187216
0.019753
0.0327914
0.148052
0.00761182
0.00493581
0.00236753
0.084193
0.040571
0.0464695
0.0883571
0.0017613
0.0121569
0.0253206
0.0483196
0.140099
0.0452574
0.00728817
0.0205463
0.120362
0.00117515
0.00164868
0.00218221
0.00737338
0.093862
0.0423565
0.0200346
0.0102484
0.00229819
0.00203937
0.0177039
0.0164966
0.152332
0.0261828
0.0302844
0.144736
0.00141773
0.12096
0.0649223
0.0146538
0.153205
0.00937959
0.0283792
0.00823094
0.0135593
0.135179
0.0265832
0.0191127
0.0150852
0.0076856
0.00444499
0.178738
0.0220547
0.0281606
0.0475399
0.144338
0.0292828
0.086576
0.0165987
0.00789968
0.00774959
0.117556
0.0241504
0.159873
0.0505469
0.00307246
0.135089
0.0240887
0.00634163
0.0794617
0.00813822
0.0182816
0.0842872
0.0017475
0.0148394
0.140359
0.00401617
0.0318815
0.166646
0.0406906
0.0659276
0.168527
0.017318
0.0329712
0.00161132
0.0259715
0.0655674
0.0342247
0.0121363
0.0137816
0.0695625
0.0230205
0.037806
0.017498
0.045401
0.0135719
0.0633039
0.0253187
0.0872418
0.0925258
0.00221446
0.0731934
0.00414345
0.0672865
0.0298322
0.117279
0.0171168
0.124403
0.0126769
0.0403779
0.00360869
0.145865
0.00790331
0.0602997
0.0189224
0.167616
0.0413913
0.0908605
0.0174443
0.0772314
0.00306623
0.00180926
0.0115326
0.0192116
0.00887253
0.0653665
0.00832718
0.0144463
0.124148
0.0123607
0.00431756
0.00246141
0.019479
0.00248715
0.0185921
0.0313403
0.151606
0.0239662
0.0146777
0.0184395
0.1194
0.0259253
0.00578666
0.169065
0.0448702
0.0237174
0.0026155
0.0207877
0.0160179
0.0203861
0.125545
0.00731962
0.109149
0.0826833
0.0250006
0.0472076
0.00138983
0.0118136
0.00249495
0.15352
0.00219815
0.00174829
0.00493988
0.0180457
0.0107963
0.00657225
0.00833393
0.0372655
0.0426254
0.0113527
0.0012475
0.0561559
0.011637
0.00395031
0.0434428
0.0868316
0.0409083
0.0243771
0.079167
0.0342472
0.00509477
0.0025562
0.0408488
0.118808
0.00154404
0.00617647
0.0569543
0.0591482
0.160795
0.0595545
0.00250179
0.012359
0.00243915
0.0260116
0.0842244
0.0507596
0.0254022
0.0959223
0.0161258
0.0234691
0.00204434
0.0950466
0.130305
0.00977163
0.0565103
0.0186427
0.00506925
0.0309571
0.00140978
0.00226927
0.0316496
0.0603495
0.00429365
0.00149267
0.0101091
0.0307352
0.00576891
0.00277188
0.0148258
0.0394253
0.162626
0.148323
0.00310575
0.0194206
0.00428536
0.170924
0.000945835
0.00350021
0.0635299
0.077913
0.0034112
0.0890641
0.0895199
0.0175121
0.00168821
0.00261523
0.00262215
0.0382178
0.00999297
0.00959737
0.121269
0.125128
0.130532
0.00332828
0.163686
0.0635339
0.0110562
0.0348639
0.00821443
0.13713
0.100398
0.137692
0.121302
0.00731908
0.146329
0.0483722
0.0113599
0.00612807
0.00204367
0.15981
0.00558583
0.00626195
0.0044696
0.0234243
0.00125847
0.00139582
0.0479911
0.114851
0.0258543
0.0210324
0.00344394
0.0218522
0.141007
0.157118
0.00576008
0.00933769
0.0392227
0.152516
0.0520688
0.0100631
0.101233
0.161181
0.01793
0.0255723
0.136787
0.0560832
0.00191382
0.046024
0.0254218
0.0806537
0.0320215
0.00474424
0.143521
0.0232734
0.0945197
0.0215652
0.00240368
0.175832
0.00256952
0.0186248
0.00312226
0.127931
0.0236527
0.0177689
0.00513325
0.00574378
0.0220737
0.00196726
0.00854233
0.0255702
0.162372
0.00522344
0.0977937
0.163472
0.0703168
0.164278
0.0120036
0.16345
0.165912
0.00463384
0.0149729
0.139149
0.0107026
0.0308927
0.0027901
0.0287095
0.00192085
0.0583459
0.0140409
0.00959814
0.00366871
0.0245013
0.00167047
0.170613
0.0212481
0.153461
0.0336981
0.0429567
0.00726403
0.00696338
0.019677
0.000956442
0.151704
0.00138832
0.0272606
0.0580557
0.0117863
0.0139559
0.00275009
0.0760271
0.0115838
0.00663034
0.0218516
0.00594338
0.173047
0.100555
0.176833
0.00289617
0.103352
0.0934793
0.0761911
0.122003
0.0834871
0.0789758
0.0327148
0.0618151
0.112229
0.0278486
0.0170652
0.0119796
0.0771412
0.00361407
0.0411721
0.00231695
0.00962473
0.00164977
0.0114302
0.0278751
0.00130414
0.0131502
0.0019855
0.00583933
0.0107036
0.148816
0.0897973
0.0228022
0.00417942
0.0381147
0.00180169
0.0399647
0.00188241
0.00823936
0.0213161
0.0288255
0.00175197
0.00129617
0.0230147
0.0655822
0.132164
0.0233304
0.104114
0.124375
0.00802144
0.0150978
0.103495
0.0491973
0.0285217
0.00277491
0.0189496
0.128599
0.020039
0.0093053
0.0285814
0.102789
0.00175997
0.0335142
0.0388121
0.00150737
0.0199417
0.0439791
0.00137361
0.00995751
0.00178279
0.0483499
0.0229558
0.00444074
0.0728283
0.0406926
0.164346
0.021875
0.0953422
0.121199
0.0341204
0.00635946
0.00267274
0.0810721
0.0404142
0.0998434
0.0415704
0.0253953
0.112663
0.00585989
0.0154762
0.0397869
0.0611182
0.0801219
0.119309
0.0241754
0.00189271
0.0190247
0.0748327
0.0637219
0.00626905
0.00368321
0.0800218
0.119357
0.0739717
0.0804124
0.00246166
0.0196427
0.168333
0.127972
0.0117936
0.00446709
0.120952
0.190619
0.0175109
0.0352579
0.0195007
0.0195502
0.00742294
0.0108789
0.0936899
0.0166507
0.00249768
0.0122915
0.0078033
0.0192946
0.00453936
0.163819
0.0390039
0.0226489
0.013792
0.0433969
0.0482273
0.145469
0.0297374
0.00389101
0.00453759
0.0118073
0.0294734
0.146735
0.0133018
0.042505
0.0292652
0.00690629
0.0203089
0.0374472
0.0668131
0.00242429
0.00339917
0.135687
0.0319876
0.00779823
0.0484357
0.102877
0.0559434
0.0105546
0.0204343
0.0154521
0.00103829
0.0305521
0.124451
0.00670974
0.108184
0.00324573
0.160207
0.0231806
0.00821205
0.0350799
0.119567
0.0400421
0.0258103
0.00210024
0.0556407
0.14752
0.00259456
0.0107927
0.00718856
0.00190432
0.0089566
0.162662
0.00408174
0.0460303
0.00305065
0.131002
0.0366443
0.175933
0.00140534
0.0934759
0.0227788
0.117247
0.0168609
0.00626507
0.015846
0.00946764
0.0349003
0.147451
0.0107775
0.0148171
0.085821
0.0168947
0.0529607
0.00536795
0.0016635
0.0888844
0.0188651
0.140323
0.0109068
0.127953
0.000902852
0.0677049
0.0450793
0.136932
0.0262925
0.0234162
0.153043
0.054145
0.0404964
0.0057623
0.00817028
0.0422404
0.022856
0.0234255
0.00889948
0.0440918
0.013704
0.0266794
0.0404919
0.0197263
0.018754
0.115025
0.117766
0.01489
0.0522822
0.00456829
0.0241827
0.00407183
0.0309872
0.0965321
0.0466125
0.017555
0.0103374
0.0795757
0.0231242
0.00990483
0.0171766
0.0814058
0.0149334
0.172638
0.00109195
0.00274369
0.0185887
0.00143711
0.0189904
0.0154472
0.00893871
0.00978551
0.0184193
0.00137074
0.0205167
0.00894765
0.0342094
0.0258529
0.0465502
0.0439068
0.0128986
0.0565904
0.00235244
0.0355392
0.0337026
0.00509569
0.0601745
0.0138322
0.0228619
0.0174064
0.0349657
0.00692337
0.0163526
0.114572
0.0153489
0.00185501
0.00724156
0.0510812
0.0210034
0.12128
0.0456303
0.00321934
0.0741675
0.103336
0.0112421
0.0368104
0.0199148
0.0550552
0.0896732
0.00771876
0.0455426
0.0620567
0.0149611
0.0487733
0.0676423
0.115282
0.00261982
0.0309678
0.123874
0.0789005
0.0094045
0.025109
0.0202535
0.0448948
0.0101384
0.0269167
0.0427645
0.0270639
0.0886547
0.0990842
0.00395931
0.0101515
0.0147534
0.0194244
0.010348
0.00895682
0.012857
0.0125125
0.0216708
0.00402423
0.0454586
0.0372883
0.125207
0.175389
0.0110789
0.146439
0.00291634
0.00120829
0.00445474
0.0999181
0.0153262
0.0099395
0.0892905
0.0044354
0.00697442
0.00219668
0.0140378
0.00165638
0.00912361
0.00590732
0.00286745
0.014658
0.0327604
0.0111593
0.0589917
0.00261861
0.0248165
0.0111512
0.0639279
0.0168604
0.094136
0.00148232
0.00278942
0.150458
0.00142974
0.00248484
0.0118229
0.0112977
0.00738714
0.0771592
0.001728
0.0395846
0.00442966
0.00102305
0.149534
0.0349639
0.120559
0.0235027
0.0253261
0.00977606
0.00659763
0.144429
0.0772161
0.0168258
0.0297601
0.117108
0.0160126
0.0593791
0.0946668
0.0152903
0.00815921
0.0898338
0.00597714
0.0335742
0.161813
0.0186537
0.00409667
0.045933
0.0767331
0.00622844
0.00453073
0.0481088
0.0150846
0.00370481
0.010425
0.0014491
0.0709857
0.00899474
0.00210514
0.00246762
0.115985
0.0349448
0.0141071
0.0147932
0.00741187
0.0260096
0.00183328
0.0114154
0.00422336
0.034744
0.122102
0.00125738
0.014122
0.11651
0.148955
0.0018447
0.0494762
0.0520305
0.0520557
0.0249443
0.143646
0.0114806
0.0313356
0.0225446
0.090549
0.0161438
0.00176265
0.00565551
0.012414
0.00159536
0.00774037
0.0803604
0.0443914
0.0461502
0.12764
0.0063629
0.0120879
0.0410577
0.0388519
0.0652692
0.113496
0.00957186
0.0958116
0.00676727
0.0216922
0.131666
0.00281514
0.00132547
0.128069
0.00371591
0.00981702
0.0126574
0.152122
0.0786922
0.00173209
0.00846757
0.113003
0.065419
0.0477609
0.0137457
0.171082
0.0101257
0.0939829
0.0950136
0.0358095
0.0038487
0.0017755
0.0854685
0.0299021
0.00407531
0.00163148
0.0164751
0.00709728
0.00204351
0.0558099
0.143231
0.030756
0.0244376
0.00310639
0.0792583
0.169584
0.00412331
0.0057063
0.130536
0.0623132
0.00467388
0.174368
0.0952078
0.00575327
0.00934965
0.00170294
0.124136
0.0152541
0.00780232
0.0126846
0.0159052
0.0151795
0.0750738
0.140476
0.0041368
0.01627
0.0827712
0.018381
0.00144017
0.0907284
0.0586628
0.088904
0.004609
0.0867769
0.0996605
0.110728
0.0762422
0.0021489
0.00231455
0.0291103
0.00459074
0.00170275
0.00192443
0.0665519
0.0384798
0.0799902
0.0527542
0.104492
0.100491
0.107441
0.110352
0.101345
0.0175699
0.00120415
0.0101689
0.0103816
0.0177245
0.105244
0.0223982
0.0120503
0.0336087
0.0616358
0.00940842
0.0119477
0.0035077
0.0135349
0.0816945
0.00215026
0.0242291
0.0894665
0.0425638
0.00444141
0.0107033
0.0314193
0.0115664
0.0929015
0.107093
0.00927438
0.013864
0.0217513
0.00442309
0.110996
0.132156
0.00224233
0.0103168
0.0181842
0.00651311
0.0269266
0.00596587
0.00492585
0.0067855
0.0013475
0.0503841
0.0544183
0.103972
0.0839662
0.099669
0.0250884
0.0127284
0.0196569
0.00200718
0.107429
0.00375638
0.00324892
0.0270129
0.00243257
0.0361486
0.00559101
0.00121439
0.10334
0.00539228
0.0718621
0.00186239
0.150371
0.00646396
0.062779
0.00395065
0.0163901
0.00126793
0.087264
0.006823
0.0630624
0.0265561
0.00720828
0.0878949
0.00115326
0.00176344
0.0103039
0.00318281
0.00897242
0.00180559
0.0103973
0.0598328
0.00739292
0.0111364
0.0078443
0.101855
0.130145
0.0235711
0.00940397
0.0397476
0.0354831
0.0287253
0.00193406
0.00557857
0.0363637
0.00289614
0.00547643
0.0835667
0.00976064
0.0138404
0.00656225
0.0136598
0.0393392
0.00235649
0.096912
0.104977
0.128848
0.00669816
0.00915457
0.0350577
0.0144623
0.104285
0.158624
0.112721
0.0019652
0.152147
0.114562
0.00814481
0.00626332
0.0220784
0.0378569
0.00215542
0.011218
0.0203561
0.039022
0.00655871
0.0257322
0.0193087
0.0188851
0.00463178
0.00845995
0.0101441
0.0820487
0.0207658
0.0184462
0.0199979
0.0182188
0.00238309
0.159127
0.00875052
0.0656985
0.128842
0.0229627
0.00686491
0.0244232
0.0223115
0.118331
0.00744214
0.00984067
0.0124031
0.0141417
0.164011
0.127035
0.0125907
0.0135147
0.0847982
0.0102306
0.112872
0.0673469
0.00142716
0.0522647
0.00182625
0.0433179
0.0129244
0.0101245
0.0372194
0.0183671
0.0158322
0.00741683
0.0415699
0.0138223
0.0299372
0.15152
0.0454477
0.00168507
0.00613665
0.0427968
0.0416674
0.0665621
0.0522505
0.00632925
0.00666095
0.0406049
0.00156416
0.0796622
0.115597
0.0756487
0.00689409
0.0257505
0.0236012
0.0611919
0.0377886
0.0319657
0.183284
0.172915
0.0131245
0.00176003
0.057252
0.0373032
0.00774801
0.00886875
0.0691133
0.00437921
0.0101807
0.0567716
0.0492142
0.0377392
0.00835457
0.0561535
0.0131944
0.0142921
0.0248687
0.0576023
0.011071
0.0862088
0.00337402
0.0135994
0.0191205
0.00802796
0.00484599
0.11139
0.0610579
0.00103354
0.00484318
0.00971479
0.0285071
0.0122688
0.0721993
0.00207346
0.0137708
0.0534345
0.00187286
0.0109848
0.0210138
0.0103717
0.0114368
0.0458336
0.00303556
0.030507
0.0188843
0.0144229
0.0289485
0.116288
0.00771624
0.072041
0.11217
0.0773717
0.00183959
0.044791
0.144958
0.0534603
0.0717852
0.040429
0.146849
0.0133646
0.00679814
0.0245909
0.140207
0.0022972
0.0285206
0.142685
0.0408092
0.0544159
0.0963345
0.124916
0.0196179
0.0096678
0.133876
0.0137782
0.00639499
0.0553924
0.0133999
0.00244633
0.0265517
0.12551
0.0942782
0.00448897
0.133366
0.149828
0.0190952
0.0165819
0.0044044
0.00130888
0.102931
0.124122
0.0760084
0.00494244
0.160683
0.0584228
0.0116725
0.0047952
0.0302018
0.0118982
0.109963
0.00601635
0.0102127
0.0279264
0.00370361
0.0131882
0.00150108
0.132593
0.0704699
0.00200862
0.00378457
0.019802
0.0112724
0.00423328
0.00177796
0.00686094
0.00233593
0.0126926
0.0221082
0.00149367
0.0143778
0.0128117
0.018661
0.00521922
0.00142323
0.162751
0.0307221
0.0778743
0.00367119
0.0896466
0.00113761
0.0146508
0.00192618
0.0227718
0.00387514
0.00461327
0.12227
0.0299958
0.00460206
0.0134571
0.0977846
0.0274553
0.00496618
0.00736889
0.0066358
0.00988359
0.00157217
0.00438996
0.133247
0.149597
0.00360621
0.00461777
0.0261115
0.00936037
0.00196294
0.0355676
0.023792
0.0785888
0.0122606
0.124074
0.109477
0.00810672
0.031712
0.155243
0.00136377
0.00155257
0.124182
0.0139695
0.0181739
0.00360582
0.00744301
0.0284277
0.108162
0.00469345
0.00177837
0.0613704
0.0172008
0.0328283
0.00672205
0.0584043
0.0136597
0.00685037
0.00744808
0.157486
0.0035055
0.00650079
0.0100504
0.014821
0.118757
0.00204189
0.0584417
0.020373
0.0339597
0.0178093
0.0763618
0.0543009
0.0332141
0.00889067
0.0607278
0.124868
0.0473876
0.0427812
0.0647454
0.033976
0.00821897
0.00306247
0.00558657
0.0154491
0.0870343
0.00911064
0.0233694
0.00197884
0.159676
0.00270705
0.129589
0.0725607
0.0307087
0.0142881
0.00623906
0.0630139
0.00131619
0.0317316
0.0786603
0.0245002
0.00366076
0.019427
0.00669844
0.00186311
0.172819
0.0288278
0.00108032
0.0527499
0.00231495
0.0927542
0.0163429
0.00152665
0.0309968
0.111093
0.123559
0.0011696
0.0193519
0.0639822
0.00223552
0.0790771
0.0281789
0.00775034
0.00173337
0.00352531
0.00184961
0.00318186
0.00483024
0.0210434
0.00262691
0.00499643
0.045702
0.0480258
0.0216363
0.020216
0.00445338
0.0816306
0.0158012
0.0904754
0.0808244
0.00330846
0.148091
0.00159394
0.0775617
0.0196564
0.0143762
0.111937
0.0679637
0.00171605
0.00185331
0.00680127
0.112508
0.0218511
0.0193739
0.079428
0.0151684
0.00762906
0.016377
0.155573
0.00158668
0.0017084
0.129513
0.141296
0.112883
0.145168
0.0295603
0.0216108
0.00181311
0.140924
0.0611267
0.0186631
0.00165225
0.0763974
0.00384587
0.0670441
0.00501122
0.00944941
0.0027989
0.0168023
0.00587439
0.00562594
0.0816703
0.0912138
0.00445066
0.0130021
0.104411
0.00327637
0.0598811
0.0974425
0.0880652
0.0115729
0.00268897
0.00322361
0.00342669
0.0178019
0.0136021
0.0446764
0.00172868
0.0112976
0.0221785
0.0596936
0.0511569
0.0139893
0.00222432
0.0107839
0.00234267
0.0284155
0.0660526
0.00155745
0.0391584
0.00188851
0.00261125
0.158534
0.01371
0.0102207
0.0135835
0.010026
0.0493751
0.0016161
0.0191208
0.00335049
0.00125295
0.00299599
0.0183922
0.0221169
0.117172
0.00458558
0.00190893
0.0325255
0.0234006
0.00173138
0.00616496
0.00550821
0.184772
0.0106372
0.00133627
0.00413963
0.0371294
0.018913
0.0896176
0.00325444
0.00827037
0.0130736
0.00299144
0.00146734
0.077052
0.00569186
0.112441
0.00356494
0.00393397
0.0214475
0.0210691
0.00332184
0.120785
0.0124089
0.00113127
0.00198267
0.023278
0.124043
0.0900218
0.00438258
0.00314151
0.00451364
0.00179995
0.0147409
0.00968535
0.148648
0.00161634
0.00904658
0.0139325
0.00332111
0.00115675
0.00152417
0.00144637
0.00164092
0.00137658
0.00153574
0.032137
0.0108181
0.0128798
0.0536784
0.00170032
0.00334132
0.124983
0.00420313
0.116046
0.0677914
0.0983781
0.0109675
0.0744565
0.00154584
0.00524859
0.0107831
0.0548009
0.00340139
0.0067775
0.00390657
0.00140687
0.0304124
0.0191062
0.00977952
0.00490875
0.0592604
0.048935
0.0883737
0.00141256
0.0815349
0.0289666
0.014048
0.0249788
0.00210571
0.118173
0.00186408
0.0587789
0.104554
0.0379894
0.0367756
0.0199862
0.0215974
0.00189781
0.00981482
0.0164455
0.00287192
0.0495444
0.00203415
0.0617226
0.00194542
0.0138634
0.0017859
0.00907139
0.037051
0.146851
0.00343431
0.042244
0.0180854
0.118595
0.0175362
0.00199636
0.14713
0.0831051
0.0544374
0.134355
0.00280967
0.00247406
0.0467635
0.114958
0.00154525
0.00229053
0.0636958
0.00864122
0.14146
0.00213973
0.00180243
0.0134403
0.00383086
0.00137059
0.00437412
0.00128798
0.0142401
0.0429093
0.085651
0.0871527
0.0020626
0.00255009
0.0245632
0.0121358
0.00147883
0.0604285
0.00122188
0.0429592
0.044832
0.0664473
0.00312639
0.0142617
0.0553772
0.00140723
0.165667
0.00478249
0.00637917
0.0562465
0.0973882
0.00678047
0.0566669
0.153896
0.10146
0.00633561
0.0100804
0.122171
0.132104
0.00999819
0.0391008
0.00874608
0.0807039
0.00181467
0.117029
0.00469118
0.15479
0.00162071
0.00443842
0.0139771
0.0135667
0.0105354
0.0936799
0.00516364
0.0017457
0.0537339
0.00784031
0.0790087
0.00353322
0.070905
0.00200363
0.0108882
0.00375809
0.00146147
0.00176414
0.00803524
0.0317725
0.00305197
0.121971
0.00202527
0.0149007
0.00314181
0.0524719
0.0101271
0.00886885
0.0122967
0.0311436
0.0433299
0.149526
0.0013683
0.00818926
0.00134895
0.00350133
0.0124451
0.0767191
0.00669157
0.00259299
0.0097796
0.029084
0.0997308
0.00291844
0.0032096
0.00253035
0.00116647
0.0127937
0.0316065
0.0783139
0.010972
0.00912168
0.00334627
0.0832362
0.0941133
0.000869146
0.00983332
0.161603
0.0126487
0.00321534
0.00763163
0.0550739
0.0069292
0.0034622
0.00286316
0.00561805
0.00624009
0.0442223
0.161218
0.134089
0.165982
0.0395821
0.0970687
0.0102917
0.00211396
0.0124756
0.0195223
0.0155708
0.118494
0.0139535
0.0314152
0.0103587
0.0099421
0.0496636
0.0144685
0.0404447
0.112317
0.0330365
0.105896
0.00340541
0.0784969
0.00380598
0.00355338
0.00339551
0.00190081
0.0014105
0.145264
0.153261
0.0771177
0.0027716
0.0508634
0.0966895
0.124047
0.00552704
0.0115465
0.0107614
0.00384247
0.0210375
0.0774481
0.0134586
0.0759517
0.00706158
0.14976
0.0106587
0.0540342
0.0338794
0.0238352
0.0187089
0.0251454
0.00362027
0.0141329
0.00434479
0.0103079
0.00892443
0.00995584
0.00689695
0.0496498
0.00131639
0.016069
0.0139357
0.0357021
0.0282239
0.00399485
0.0726162
0.00603794
0.000906093
0.0108638
0.00239864
0.00599637
0.00567182
0.00590494
0.005271
0.060338
0.0150962
0.0987499
0.00541491
0.00727072
0.00288051
0.0738108
0.00836639
0.0133107
0.00188078
0.00699834
0.01077
0.105705
0.0103577
0.0794906
0.00888626
0.0245025
0.00288866
0.0626833
0.0137671
0.112086
0.0101289
0.00979438
0.0127905
0.00316902
0.0810412
0.0198538
0.00549538
0.0872042
0.00512568
0.00211518
0.00715406
0.0180189
0.00956493
0.0477431
0.0566538
0.00292481
0.00406859
0.0528124
0.0317027
0.0158801
0.0438807
0.00366954
0.0445999
0.00195833
0.00595847
0.00672275
0.0106633
0.0178905
0.0796851
0.0451133
0.00508182
0.00410551
0.0130833
0.00152913
0.13414
0.0163648
0.0125532
0.00309142
0.0777119
0.00750397
0.123393
0.00193799
0.0926529
0.0819624
0.00936361
0.125842
0.0327561
0.00597774
0.0317104
0.0275415
0.040811
0.00949391
0.0123699
0.00296662
0.0713897
0.0311608
0.113965
0.00656648
0.0708713
0.0119599
0.0116388
0.00424634
0.00294855
0.00183487
0.00208977
0.00362582
0.0103369
0.00516231
0.0126726
0.144076
0.0972888
0.00167022
0.00572704
0.115291
0.0799927
0.109935
0.0200543
0.00557838
0.131322
0.00955341
0.00756705
0.00688757
0.00491713
0.0791676
0.160543
0.00512175
0.0218704
0.0628688
0.00639944
0.00428978
0.0574216
0.0709093
0.0141607
0.0905635
0.00809318
0.16057
0.0128864
0.150754
0.00332248
0.0390025
0.00130422
0.0134881
0.0370247
0.0118233
0.0780501
0.0460499
0.145302
0.0146314
0.00352016
0.0467248
0.00547008
0.154522
0.149243
0.00376656
0.0510503
0.134156
0.0964083
0.153933
0.0374175
0.0834441
0.11976
0.00481233
0.0922968
0.0529751
0.00572268
0.0712535
0.0676303
0.130703
0.034915
0.00263341
0.00235082
0.0379982
0.0329247
0.0369271
0.148498
0.0106002
0.108869
0.11817
0.00123105
0.0824297
0.0108659
0.0143828
0.00617491
0.0423685
0.00617516
0.0386933
0.00596834
0.00500833
0.0391838
0.00332053
0.00182889
0.0119331
0.00362128
0.048548
0.0467937
0.00699439
0.00676849
0.0567034
0.111872
0.0216169
0.010595
0.110184
0.0100831
0.116425
0.00963827
0.00483487
0.0100488
0.00928174
0.0465229
0.0290534
0.157539
0.150461
0.0748341
0.0442581
0.0232389
0.157713
0.00521873
0.0276192
0.0144424
0.0500527
0.00195824
0.167227
0.080114
0.0064319
0.150371
0.00605467
0.0142257
0.01037
0.0513996
0.0239263
0.0402234
0.00914863
0.0321287
0.00581087
0.0193867
0.0303616
0.0608594
0.0134199
0.00347204
0.0112833
0.00746396
0.00651284
0.0140299
0.00952265
0.0949778
0.00185246
0.0407578
0.0239734
0.0235178
0.0083821
0.0388021
0.0100945
0.0120214
0.0194826
0.136527
0.0133325
0.149904
0.0102736
0.082674
0.126304
0.0404306
0.0146879
0.00478374
0.0389449
0.0014455
0.00378204
0.100423
0.00318516
0.0074654
0.046727
0.0251505
0.0146465
0.0591574
0.0446298
0.00323037
0.15468
0.00194504
0.0141268
0.0175147
0.0239817
0.0312155
0.0404792
0.0452162
0.0052093
0.0264329
0.109995
0.040038
0.0393068
0.00123463
0.0102786
0.14748
0.0119579
0.00676859
0.00480499
0.0675299
0.0368353
0.0398494
0.0191713
0.0223335
0.0282493
0.0184285
0.00656184
0.0479188
0.0260827
0.0113958
0.0190381
0.015802
0.00493927
0.0461198
0.154926
0.0159956
0.0110645
0.0150726
0.00142418
0.00300016
0.00690205
0.00497295
0.0496554
0.0247288
0.118542
0.124156
0.00609057
0.0371082
0.0105449
0.0188208
0.0223891
0.0188286
0.00355954
0.0816616
0.115025
0.0164626
0.0746434
0.0865212
0.0481966
0.0401998
0.00995588
0.0545734
0.0323753
0.053068
0.00674909
0.142193
0.00309558
0.0508616
0.0264565
0.11287
0.140984
0.0251908
0.0376309
0.010219
0.020857
0.0636008
0.0148327
0.044575
0.149205
0.0378051
0.00934758
0.0301518
0.0756857
0.0790746
0.0809286
0.0173602
0.0714117
0.0685123
0.00989092
0.0874167
0.039429
0.0215776
0.00664366
0.0108462
0.0321065
0.0111034
0.00221546
0.00958415
0.00688063
0.0205537
0.0260947
0.0186608
0.0155128
0.0318299
0.0110142
0.0388549
0.119811
0.0144981
0.0997306
0.008304
0.00789113
0.00877696
0.0235562
0.0382777
0.0148443
0.0140507
0.018771
0.0212205
0.0266962
0.00715592
0.00453093
0.0142756
0.0411118
0.0283748
0.00188283
0.0218736
0.154364
0.00154169
0.00317809
0.0395273
0.0296518
0.0257627
0.00717534
0.00208749
0.0640977
0.00497777
0.00461895
0.00903683
0.00894157
0.0571559
0.0196175
0.0284677
0.00961347
0.133919
0.0110046
0.0243805
0.00725126
0.121332
0.0849086
0.00423633
0.0234688
0.019889
0.0297342
0.126259
0.0110337
0.00154423
0.0153865
0.0853286
0.00661186
0.0154598
0.0306602
0.0380634
0.0566106
0.0191778
0.0489158
0.00706585
0.051213
0.0199337
0.0164013
0.0139994
0.0146952
0.0455193
0.0150587
0.0194542
0.0486772
0.0129113
0.0505592
0.028406
0.074376
0.159424
0.00180267
0.0120433
0.0310736
0.00149802
0.0265171
0.0613202
0.00346632
0.0137799
0.00141122
0.0396651
0.0247381
0.0672261
0.0278691
0.023519
0.00142751
0.0291017
0.00951374
0.0466461
0.0408596
0.0273548
0.0380359
0.0081964
0.00185767
0.00353498
0.0774394
0.082812
0.00504017
0.0285964
0.0330541
0.0146496
0.0183678
0.00376241
0.00519072
0.0261358
0.00532838
0.0148391
0.0264231
0.0523933
0.0330469
0.0107913
0.00149157
0.165352
0.0197638
0.0270096
0.0953911
0.0702687
0.0386693
0.00178693
0.0129491
0.0572647
0.0221985
0.104331
0.014875
0.0905782
0.0252029
0.0385089
0.0257633
0.00413331
0.0357337
0.129171
0.00966616
0.0733211
0.0718131
0.00432927
0.0618729
0.00167847
0.00109751
0.00181048
0.014598
0.030761
0.094109
0.142922
0.0939224
0.0195188
0.0101622
0.0117724
0.00429909
0.00878401
0.019066
0.069762
0.0259054
0.026098
0.141134
0.0309296
0.0729601
0.00488668
0.0261137
0.00184815
0.0313065
0.024793
0.161359
0.0349463
0.0030003
0.00359857
0.0110253
0.0869702
0.0115966
0.0259051
0.0759363
0.0147923
0.0977901
0.0240195
0.00184777
0.0636222
0.0440171
0.0442904
0.00183166
0.00150107
0.059344
0.0263384
0.0306018
0.0313239
0.0583451
0.0389412
0.131506
0.0345195
0.0512326
0.126724
0.0273503
0.00162428
0.0088681
0.0649984
0.0607953
0.0304702
0.033653
0.111989
0.0149921
0.0123669
0.00185432
0.0197541
0.0295719
0.0386652
0.0724307
0.0100625
0.0770444
0.152961
0.0179432
0.0145892
0.0130595
0.00210064
0.160839
0.017433
0.028438
0.0264743
0.101373
0.0655196
0.0254856
0.00837292
0.0139616
0.0537846
0.0131451
0.00791842
0.144909
0.017008
0.0107914
0.00193709
0.151761
0.0200275
0.029376
0.0760381
0.00965224
0.076604
0.0677048
0.01948
0.0100497
0.0112479
0.0497821
0.0338199
0.00134017
0.00137483
0.066387
0.00303417
0.00671256
0.0835137
0.0645722
0.0538589
0.0317172
0.135364
0.074751
0.0143134
0.00186106
0.041431
0.0805694
0.0760487
0.116873
0.0598144
0.0494909
0.076704
0.00124796
0.0357817
0.0106333
0.0305803
0.0515693
0.0256154
0.047093
0.114113
0.0176314
0.117984
0.0287025
0.00536206
0.0571763
0.021994
0.146798
0.0455057
0.115624
0.055785