/*--------------------------------*- C++ -*----------------------------------*\
| =========                 |                                                 |
| \\      /  F ield         | OpenFOAM: The Open Source CFD Toolbox           |
|  \\    /   O peration     | Version:  v2012                                 |
|   \\  /    A nd           | Website:  www.openfoam.com                      |
|    \\/     M anipulation  |                                                 |
\*---------------------------------------------------------------------------*/
FoamFile
{
    version     2.0;
    format      ascii;
    class       volScalarField;
    location    "900";
    object      ddt0(k);
}
// * * * * * * * * * * * * * * * * * * * * * * * * * * * * * * * * * * * * * //

dimensions      [0 2 -3 0 0 0 0];


internalField   nonuniform List<scalar> 
9793
(
1.28342e-07
0.0140052
5.9973e-07
0.0307831
3.49643e-07
-6.81448e-06
6.13309e-07
0.0026137
5.37013e-07
0.0076931
5.93931e-07
5.97529e-07
-1.52259e-07
0.0949634
1.67323e-06
2.47995e-06
6.98544e-07
-5.87645e-07
0.0253298
9.20003e-07
4.15263e-07
-1.36081e-09
0.0143811
-0.000542918
0.0999441
3.35079e-07
2.42447e-07
-1.18391e-07
9.43344e-07
7.1738e-07
0.023884
1.9321e-05
1.03411e-06
4.65917e-07
1.05694e-06
1.31365e-06
9.62328e-07
3.60337e-07
0.0295793
5.5937e-07
4.57619e-07
-0.00228551
-0.0240486
2.77728e-07
-1.79739e-07
-4.58065e-07
0.00480734
2.36218e-07
-3.17309e-07
-3.86125e-07
1.44956e-06
8.88635e-07
8.767e-07
2.63975e-07
4.84348e-07
0.0349067
-2.82485e-07
-8.19582e-07
-2.39339e-07
-1.78806e-09
3.2597e-07
1.9338e-07
3.87864e-07
1.92719e-06
-3.07909e-07
4.52712e-07
0.00558763
9.1178e-07
1.1946e-06
-0.012622
1.29949e-07
-2.01361e-07
0.00145005
2.75177e-05
-0.124863
4.2341e-07
5.18233e-07
-0.0013737
1.89565e-07
2.49381e-08
8.40397e-07
0.0238421
5.87671e-07
6.87403e-07
1.20505e-06
9.5663e-06
2.77283e-07
2.58157e-06
0.0279769
6.38471e-07
0.0217139
-7.24519e-05
0.00025485
6.03097e-07
-0.0298844
7.28176e-08
-0.109887
5.27835e-07
1.13283e-06
3.59548e-07
0.0690216
1.12718e-06
-0.000153224
-1.57776e-07
-0.099336
-0.0448937
4.8952e-06
6.70562e-07
8.37881e-08
3.29719e-07
4.77028e-07
0.0157328
2.67893e-06
0.00485242
6.25192e-08
6.74089e-07
1.58271e-06
-8.03171e-07
0.0445195
-2.06469e-07
-0.091735
2.23237e-06
-0.0329308
1.03539e-06
9.51179e-07
-4.30368e-07
6.83196e-07
0.0258319
7.76552e-06
7.93074e-06
4.06277e-07
7.17901e-07
8.30774e-08
9.1805e-07
9.70208e-07
3.07885e-06
-2.27972e-05
1.59635e-06
1.80793e-07
1.00022e-06
0.01477
1.38984e-06
-6.50238e-07
2.34197e-06
6.01251e-05
0.000118453
-3.481e-07
-0.115805
4.78888e-07
-4.22783e-07
5.62213e-07
-0.0275982
9.66282e-07
2.72592e-07
1.29631e-07
2.33506e-05
8.17454e-07
2.35583e-08
2.80284e-05
2.28115e-07
2.28031e-06
7.87135e-07
3.86512e-07
3.22261e-06
3.73582e-08
0.000166507
0.000141273
1.45371e-07
1.41398e-07
1.24133e-07
-2.89544e-07
0.00387277
-0.00840387
-0.0105725
-1.47887e-07
-8.64671e-06
2.62345e-06
1.24001e-05
1.51295e-07
7.98894e-07
-0.0535764
0.00380322
2.63269e-06
-5.04829e-07
-6.11618e-07
4.09355e-07
0.0258758
0.00559336
0.0358908
9.50631e-05
3.58152e-07
0.000848668
5.24964e-06
2.30072e-07
2.00339e-07
1.73799e-07
1.29655e-06
7.97358e-08
-5.28781e-07
-2.42551e-07
-5.45283e-08
5.00593e-07
1.68306e-06
1.23375e-06
0.0501894
-3.44258e-07
7.32142e-07
2.23864e-07
2.4135e-07
1.78316e-05
9.10647e-07
0.00938458
5.57347e-07
0.00941423
7.31308e-07
3.53959e-06
1.34163e-06
2.76146e-06
4.79569e-07
5.52303e-09
6.62224e-07
5.0175e-07
-1.26244e-05
0.0454969
6.13805e-07
-7.91556e-08
9.58191e-07
0.00559956
-2.23425e-07
-2.43646e-07
0.0559795
3.81365e-06
3.44296e-06
2.1421e-06
5.34644e-06
-2.00329e-07
0.0277703
0.00718036
-1.47784e-07
-4.17356e-08
-0.0014354
1.30998e-08
4.71458e-07
-5.75908e-07
-2.26427e-06
4.28348e-07
8.04807e-07
6.26858e-07
8.28759e-07
5.94384e-07
1.70494e-07
5.75228e-07
0.0392565
3.3834e-07
0.00299835
3.1384e-07
-5.68007e-07
1.14701e-06
0.0403723
-2.38718e-07
0.000291677
-0.00472116
8.17706e-07
1.65564e-07
0.000317584
4.02197e-07
6.06286e-07
4.58736e-08
0.0113872
3.10677e-06
-4.09011e-08
1.68636e-05
-1.132e-06
-8.48536e-05
0.00980214
3.82412e-07
-0.000282168
-7.89257e-07
0.00454767
-1.11536e-05
0.0286686
-0.0974237
3.74675e-06
4.48612e-07
6.31764e-07
9.8404e-07
6.38185e-07
3.22131e-07
1.6007e-05
3.41442e-07
7.35088e-08
-3.21075e-08
1.03211e-07
9.04139e-07
4.42982e-07
0.0135845
1.44403e-07
1.58109e-06
1.13336e-06
-1.40924e-07
0.0243393
-0.000256476
-2.53602e-08
3.11842e-07
2.337e-06
1.71003e-06
-8.1752e-06
-0.0142677
-2.16428e-07
-0.031026
1.95135e-06
7.79103e-08
0.00943598
1.10491e-05
1.15551e-06
6.22086e-07
0.000850342
4.34782e-07
-1.41584e-07
1.63695e-06
3.23279e-07
0.00407128
6.36055e-07
4.14633e-07
-3.16229e-07
3.92664e-07
2.43321e-06
-3.37214e-05
4.1323e-07
9.39823e-07
7.00594e-08
0.0030022
0.00603771
-0.00622444
-2.1428e-07
1.90947e-07
-1.69557e-07
4.7065e-05
-2.57371e-07
-3.81612e-07
-5.26445e-07
8.52599e-08
4.70957e-07
-2.40439e-08
0.0245874
1.01486e-06
3.36939e-07
0.000718188
0.0148953
0.0109866
9.46979e-07
0.0693089
5.37535e-07
1.7823e-06
-0.000861128
0.0556009
1.06018e-06
5.2869e-07
-2.16973e-05
0.0174622
0.0206436
1.01356e-07
-3.93481e-07
4.69171e-08
-3.16856e-07
1.21818e-06
4.77843e-08
-2.47013e-07
-9.2554e-11
0.0344074
1.41423e-07
5.32034e-07
6.40905e-07
0.00551648
-3.96278e-07
8.20845e-07
0.026719
-1.11746e-06
0.0330799
2.35139e-07
-1.46091e-07
1.12624e-06
4.51232e-07
-0.000127085
1.63446e-07
0.0142433
2.64201e-06
7.00429e-07
0.00207713
0.00354652
1.80131e-06
2.80331e-07
-3.29242e-05
-9.99988e-05
-6.75304e-07
0.00809392
2.01222e-06
-7.72461e-07
-2.89419e-05
4.77707e-08
-8.71831e-07
-1.96599e-07
0.000173143
5.89012e-07
7.31716e-08
0.00683434
-1.65891e-07
2.94604e-06
1.69636e-07
7.24973e-09
-3.92592e-07
-0.048679
5.42999e-07
-4.27427e-07
1.95803e-07
5.6161e-07
-1.94012e-07
2.93729e-06
-0.000754361
-5.83613e-07
7.37546e-07
-7.54468e-06
1.08736e-07
0.0429036
6.85009e-06
-6.23265e-07
9.68078e-07
3.23506e-07
1.99435e-06
-2.19035e-07
0.0624941
1.05582e-07
0.000605054
-9.46866e-08
1.33356e-06
1.10894e-06
3.29018e-07
0.0448472
4.44235e-07
1.33043e-07
8.98628e-07
-0.000113066
-3.89149e-08
1.16052e-07
-2.64421e-08
1.00399e-07
-2.9426e-08
5.79037e-07
-6.51758e-07
1.1175e-06
4.39294e-08
8.86205e-07
-3.24952e-07
-8.87379e-07
9.30151e-06
1.17096e-07
3.14368e-06
0.0136326
6.55889e-07
0.000179735
8.78468e-07
1.72568e-07
1.02984e-06
-7.95168e-07
0.0464791
-1.00902e-06
9.17803e-07
1.1703e-06
-8.00304e-07
1.5443e-07
2.14241e-06
-0.0123879
-3.59832e-07
-1.0946e-07
2.92929e-07
0.00734667
0.024507
-1.09733e-07
1.56337e-06
0.0301336
0.000339149
-9.02294e-06
-1.29882e-07
6.83378e-07
0.0495429
-4.91572e-07
2.27093e-06
0.0149565
-3.52234e-08
-1.89147e-06
9.46656e-07
0.0590274
-3.75111e-07
0.0352434
1.14763e-05
2.36512e-06
0.00038953
-2.61743e-07
3.41823e-05
4.20418e-07
1.00872e-07
9.11791e-07
-4.2954e-07
-0.086879
-3.73433e-08
-1.37152e-07
2.19822e-07
-2.09363e-07
8.95302e-07
7.05061e-07
4.64109e-07
1.79195e-06
9.88804e-07
7.14557e-07
0.0316883
-7.06821e-08
-9.01942e-08
-0.0106472
8.34877e-07
5.79327e-08
1.26517e-07
-6.91711e-08
-0.0103747
-1.60019e-07
-3.65419e-07
0.0204389
-0.00120518
7.30533e-07
-9.12289e-07
1.49959e-07
3.6368e-07
-3.80862e-08
0.00519813
1.89085e-07
0.000123934
7.84485e-07
-1.11263e-05
3.04049e-07
0.00760739
5.12589e-07
2.8861e-06
-3.91308e-07
3.88437e-06
0.0321332
5.19586e-07
-0.0119541
8.42839e-07
1.01035e-07
3.11463e-07
0.00601266
0.0510509
-5.043e-07
6.99579e-07
-2.37833e-07
0.0291166
-1.29443e-06
4.37556e-07
0.0351355
3.03257e-07
-9.59266e-07
1.02092e-06
6.33439e-08
2.60761e-07
5.97806e-08
9.38554e-07
-5.99951e-07
0.0541665
1.23393e-07
5.50192e-08
2.47484e-06
6.93098e-07
-1.82896e-07
1.58865e-06
0.006734
2.2308e-07
4.03795e-06
4.26569e-07
6.09965e-08
-1.5333e-07
-2.1466e-07
1.17532e-07
6.3798e-06
3.45614e-06
-0.0233427
8.27685e-07
3.7263e-07
6.54332e-07
-9.69329e-07
8.87602e-07
0.00421245
-0.0029025
-1.2924e-06
0.0121031
0.00411254
2.71808e-06
3.28678e-07
-3.06372e-06
2.71041e-06
-1.68575e-07
2.96511e-05
1.97542e-07
1.92977e-05
7.10064e-07
-1.70286e-05
-6.16024e-08
0.0124865
0.0694412
2.45995e-06
-1.4107e-05
-2.19313e-07
2.838e-05
-1.88656e-07
-4.86511e-07
-1.33863e-07
1.30501e-06
3.84264e-07
0.0555971
3.5534e-06
-0.0107232
9.96429e-07
1.85063e-07
0.0593672
-2.12597e-06
1.92764e-06
5.22982e-07
3.08884e-07
-4.43968e-06
0.00218749
-7.97924e-07
-5.22401e-08
-3.07905e-06
-0.000154303
-5.19375e-09
1.21006e-07
-0.0204921
1.75617e-06
0.0751549
3.25411e-06
0.00359203
4.74366e-07
8.3797e-07
5.71952e-07
3.75769e-07
4.23272e-06
1.3919e-07
8.12704e-06
5.72596e-07
5.35999e-07
7.5209e-08
-3.38391e-07
1.2489e-06
8.03027e-07
1.07064e-06
-2.01702e-07
1.29939e-06
0.0984287
0.0864826
-1.83632e-07
3.83711e-05
-9.85197e-07
-0.00102091
2.03016e-06
9.69612e-08
-1.55057e-07
1.01165e-05
8.41258e-07
5.7169e-07
3.88641e-07
-3.05168e-07
2.18015e-07
2.84542e-07
0.0716655
5.50375e-07
1.34534e-05
0.0304417
7.40135e-07
0.0043858
0.0322854
3.40053e-07
7.39917e-07
2.53335e-06
3.30022e-07
3.2689e-07
3.45117e-07
0.0318826
-0.0222049
1.38198e-08
-2.97587e-07
1.09515e-06
1.67134e-06
4.49381e-07
6.86882e-07
8.32025e-07
2.14781e-06
1.85576e-06
0.00014839
1.6886e-06
4.72061e-07
4.8317e-07
0.00956262
4.95404e-07
-8.92768e-07
9.57763e-07
-1.07728e-06
-3.04737e-07
-8.39477e-07
3.9575e-07
1.61888e-06
9.43107e-07
1.92463e-06
-2.95229e-06
1.78871e-07
1.08911e-06
1.91366e-06
2.46325e-07
0.000171209
0.00376014
1.22828e-06
7.60882e-07
6.54603e-09
7.57376e-05
3.87555e-07
3.53057e-05
2.589e-07
3.23457e-07
0.0079165
1.51162e-05
6.24452e-07
-5.35546e-07
-6.9831e-08
1.4128e-07
-5.14894e-08
1.55051e-07
-0.0138793
-4.69898e-07
-8.97212e-11
0.020703
-8.47583e-09
7.54425e-06
-1.7643e-07
-3.02174e-07
0.013134
-1.23329e-06
1.63838e-07
1.10871e-07
8.15777e-07
0.0280613
-5.97629e-07
-2.45076e-07
-1.71057e-07
-1.41015e-08
-9.72688e-07
7.61303e-07
0.0193263
7.9932e-07
-1.88824e-08
-2.60359e-07
6.49344e-07
7.12112e-07
2.4634e-06
-6.55644e-08
2.03683e-07
9.63502e-07
1.31385e-06
0.0486281
0.00465347
1.14902e-06
-0.0236488
-1.06075e-07
3.83329e-07
0.000284727
-1.53772e-05
9.03337e-07
-5.21709e-07
-1.35702e-06
9.66258e-07
-8.90229e-07
3.08548e-07
0.0610748
1.39322e-07
5.37997e-07
9.23588e-07
-4.26861e-06
4.77784e-07
-4.60934e-07
5.75596e-07
5.81386e-07
4.29099e-07
-1.54076e-07
1.03874e-07
-2.68051e-07
-4.32006e-07
-6.94465e-08
3.74553e-08
-2.42202e-08
2.923e-07
2.04798e-07
6.77632e-07
1.19423e-06
1.97317e-06
0.0470703
3.45741e-07
4.05576e-07
-2.10192e-07
7.3401e-08
0.00524427
0.000136901
-1.69437e-07
0.0105592
0.0267807
1.89369e-07
-4.25361e-07
6.70584e-07
1.86467e-06
2.20106e-06
-8.72977e-06
-1.80736e-08
1.78225e-06
4.25402e-08
3.02217e-07
-4.54087e-07
6.72727e-07
7.55899e-08
8.38132e-06
1.81839e-07
7.68226e-07
5.72923e-08
5.71214e-08
3.33678e-07
3.27821e-06
1.09874e-07
0.0226451
-0.00070751
0.0112427
1.05247e-06
2.8987e-07
-3.41143e-05
1.3827e-05
2.25237e-06
2.79034e-07
-9.00807e-09
2.53569e-06
6.414e-07
0.0275356
-2.28477e-07
1.85986e-06
5.2775e-08
-4.56369e-07
1.52932e-06
0.000381881
-0.0104121
0.0252548
-1.55298e-07
0.00910803
1.06153e-07
0.0132316
-0.0630983
1.44301e-07
1.37081e-07
1.28036e-06
0.000105991
5.60938e-09
-0.0225195
3.53478e-07
-4.41482e-06
1.78183e-07
-0.00141847
0.0238887
8.58491e-06
9.62775e-07
8.60426e-07
-9.28541e-07
0.00521299
7.1689e-07
-4.75451e-07
-8.19015e-06
1.33623e-06
-0.0523322
-0.0215563
5.66334e-07
1.17932e-06
-6.62495e-07
2.70248e-06
-0.00456846
0.00783453
1.18162e-06
1.76455e-06
1.90476e-06
-1.75504e-06
-2.88833e-07
0.0827176
0.0812874
-5.2265e-07
1.52592e-07
1.91633e-06
7.73883e-07
1.66596e-06
0.00921538
-4.92307e-07
-0.00144447
-1.53485e-06
-4.37394e-07
1.13657e-06
-1.54976e-06
9.11276e-05
9.00606e-07
0.0304253
0.0540292
-0.000242062
5.36772e-08
-1.55548e-07
9.1969e-07
-4.27038e-08
3.35846e-07
-0.000202866
2.76947e-05
5.23228e-07
3.80754e-07
1.93269e-06
-1.48183e-05
1.65977e-06
-4.3135e-07
-6.25655e-07
4.09883e-08
-1.64388e-07
3.10776e-07
2.38612e-06
-3.26004e-07
1.31723e-06
0.00827205
5.40073e-07
1.07077e-06
-1.29476e-07
-9.96611e-11
-1.22105e-07
1.23016e-06
9.73925e-07
1.80123e-07
-9.36044e-07
9.01865e-07
0.0118615
6.85845e-06
1.93717e-07
8.41354e-07
-1.43981e-07
-1.28961e-05
4.22056e-08
-0.0523033
9.31166e-07
1.44991e-06
-2.01381e-06
-1.86851e-05
4.62953e-07
-6.97334e-08
6.16654e-07
-0.00422095
0.0298066
1.01303e-05
1.11308e-05
-4.96934e-07
1.95668e-06
9.97036e-07
0.00646798
-2.01506e-08
6.48714e-06
4.01124e-07
1.95314e-07
1.28015e-06
-1.39174e-07
-2.78671e-07
8.24039e-07
2.02477e-07
0.00912866
-2.95422e-08
4.39183e-07
-1.20553e-07
1.39019e-06
0.0454069
0.024182
2.10634e-06
0.0153103
-3.9445e-07
5.81994e-07
1.58515e-06
0.0694487
7.59842e-07
-3.95984e-08
0.000212036
6.15228e-07
5.98902e-07
8.23819e-08
-1.28696e-05
-0.00380565
0.011668
-1.08149e-08
1.94431e-07
3.80023e-06
1.7629e-06
-5.30085e-05
-5.57026e-09
1.0641e-06
2.61953e-07
4.06573e-07
2.14627e-06
9.47553e-07
-8.90581e-07
2.97925e-06
1.47004e-06
-8.53537e-07
3.36948e-08
1.08588e-06
-2.28339e-07
1.2831e-07
-4.38909e-05
1.68436e-06
1.26307e-06
8.18531e-07
8.66268e-07
5.25975e-07
6.55838e-07
-0.01095
2.85825e-07
3.43816e-07
0.0633336
-3.41781e-07
0.0402827
7.14578e-07
0.00743354
3.63975e-07
6.40555e-08
-3.13555e-07
6.43404e-07
0.00775451
-1.7878e-06
6.99279e-07
2.24893e-06
6.58535e-07
6.05952e-07
2.63673e-07
-1.12754e-07
0.0283338
8.14969e-07
5.72776e-07
-4.08399e-06
-7.59463e-07
0.1167
1.25304e-06
0.000232722
6.96264e-08
8.08598e-07
1.65342e-06
-9.78059e-07
7.34357e-06
2.63796e-07
0.093492
-2.00419e-05
-8.98269e-08
0.0188214
1.66978e-06
1.98045e-07
2.15207e-07
3.77778e-07
9.50804e-08
3.46176e-07
-0.0392798
1.61329e-06
9.71378e-07
6.6958e-06
7.27493e-07
0.0260517
3.62726e-07
-9.19387e-07
-0.0151393
4.72593e-07
-1.30849e-07
3.70511e-07
0.0456994
0.0724203
2.02879e-06
1.88261e-07
-5.23252e-07
4.02056e-05
1.78771e-08
6.67223e-07
-4.81871e-07
-8.33932e-08
5.97569e-07
0.112679
1.1379e-07
-1.39464e-07
7.50828e-07
8.59962e-08
6.54863e-06
2.42663e-06
1.81134e-06
4.08849e-07
5.87549e-07
0.0384358
0.00148768
1.2712e-06
1.13125e-06
1.2703e-06
6.1071e-07
0.0686758
0.0152081
6.12418e-06
4.49985e-07
5.83994e-07
-0.0974894
0.000152048
3.58544e-07
-0.00477489
-5.79695e-08
8.05833e-07
-0.00815832
3.70682e-07
0.00596183
0.0316055
2.0948e-06
0.0271994
0.109504
6.03832e-07
5.81429e-08
-9.63683e-06
0.056542
6.98597e-08
0.0141123
1.11747e-06
2.50199e-07
-1.70112e-07
1.10557e-06
9.52473e-07
9.7753e-07
2.71583e-06
0.0281396
-3.36976e-06
1.90037e-07
-2.8792e-07
8.81563e-07
2.63247e-05
9.61183e-07
-5.17321e-05
4.07251e-07
4.70998e-07
5.8971e-07
-1.15018e-07
-6.80537e-08
5.61951e-07
2.14833e-05
1.00188e-06
9.36434e-08
0.0072015
0.0551724
1.77944e-06
4.40382e-07
5.43991e-07
5.92171e-07
1.62488e-07
0.108362
0.000232315
-2.01237e-07
5.88027e-07
-0.00153792
0.0285065
4.5656e-07
1.1926e-07
-0.0675916
1.66479e-06
4.22724e-07
1.19818e-06
-2.25022e-07
5.64899e-07
-5.0003e-08
-0.05856
1.12266e-05
5.23902e-07
-1.94331e-07
1.63295e-06
0.0437361
-0.00365918
0.0327846
-9.43216e-06
9.25221e-08
9.11593e-07
3.24508e-07
-3.05777e-07
2.76786e-07
-2.8291e-07
7.05876e-07
6.51935e-07
0.000184125
7.23468e-07
0.0155672
-2.27803e-07
0.0149093
5.21504e-07
-5.7404e-07
1.66785e-06
-1.20252e-05
5.73924e-06
6.10981e-07
-9.61556e-08
-0.0632374
9.33201e-07
0.00278027
-3.12208e-07
0.0653296
9.65099e-07
-0.00255689
-0.000119965
2.15734e-07
1.79068e-07
-1.28388e-06
-0.00214257
0.000419544
1.86956e-06
-6.18193e-07
2.05673e-06
7.44301e-07
7.0948e-07
-0.000340236
2.95775e-07
4.54729e-07
0.000236467
1.14123e-07
1.62704e-06
2.49165e-07
0.000657983
2.75855e-07
1.22632e-06
1.1739e-05
2.33712e-05
-4.97574e-07
4.36894e-07
8.14843e-07
1.80977e-06
7.53128e-08
5.06373e-05
1.38661e-07
7.82824e-07
-4.68067e-07
-2.72354e-07
0.0496449
1.72846e-06
-0.00855203
0.000173171
0.0279382
2.52819e-07
6.74298e-07
8.44067e-07
9.16225e-07
1.2689e-06
1.00784e-06
0.00938548
8.42311e-07
2.31805e-05
4.94642e-07
-3.6612e-08
-1.00788e-07
2.01881e-06
-1.69641e-05
0.0160572
1.98448e-08
0.04984
-3.63865e-08
0.0187072
-3.55066e-06
1.79503e-06
-2.77177e-08
2.96809e-08
4.66146e-07
0.000368445
1.1234e-06
1.15776e-07
1.94796e-06
1.04471e-06
7.41702e-07
-0.000283617
0.0307201
-6.35506e-06
1.10405e-06
8.28278e-07
-0.0167459
-5.02538e-07
2.11235e-08
1.2267e-06
0.000419003
8.83835e-07
1.21544e-07
8.06098e-08
-4.59824e-07
1.22568e-06
0.000982953
2.15354e-07
-5.0204e-06
3.51273e-06
-1.5876e-05
-6.02719e-06
-7.68374e-07
2.59094e-07
0.0210683
-1.18052e-07
6.80918e-07
1.09271e-07
9.36131e-07
6.96901e-07
-0.00424328
1.66366e-07
-2.76493e-06
9.62526e-07
3.06382e-07
3.63269e-07
9.10157e-06
1.82874e-08
1.10387e-06
0.000576967
2.79612e-06
6.07307e-07
9.07479e-08
2.07645e-06
0.0226448
-1.09401e-05
2.16158e-05
1.83546e-06
-4.41898e-07
4.94623e-07
0.0300492
5.54091e-07
0.145589
1.73395e-06
0.00244823
-5.70482e-07
-8.64735e-08
3.33358e-07
3.26681e-07
3.6011e-06
-7.64831e-06
0.0337865
0.000428435
-2.0025e-05
1.07571e-06
-4.47928e-05
9.61138e-07
2.81245e-06
1.88316e-06
1.89146e-07
-6.08005e-08
3.21597e-07
1.02341e-06
2.47799e-06
1.66052e-07
5.36448e-07
6.42463e-09
0.0214952
-0.0410459
2.95702e-06
0.0358164
2.68407e-07
7.91614e-07
-2.56667e-07
-4.53341e-07
3.32367e-07
4.63598e-07
1.50584e-06
0.00029879
7.05405e-07
2.52021e-06
1.27377e-06
4.1332e-07
-0.0149392
5.92327e-07
-7.01036e-06
2.44678e-07
5.73324e-07
0.0828738
3.18322e-06
8.56405e-07
7.28893e-07
3.60771e-06
-0.045586
-0.000253332
1.96327e-06
2.46483e-06
2.22834e-06
0.000145727
3.93519e-07
0.069288
0.00451866
1.6771e-07
1.92254e-06
-2.61396e-07
1.32064e-05
-5.80953e-07
1.25581e-07
0.0656297
3.03419e-07
-2.01601e-07
5.9717e-06
2.10977e-06
0.0322232
0.0482701
-6.47464e-06
0.00742974
-4.42979e-07
3.22364e-08
1.24307e-06
-1.90481e-07
-0.0011075
2.5314e-07
0.0392296
9.00049e-07
-0.0149551
1.71053e-07
2.81037e-08
1.15581e-06
9.35629e-08
1.02334e-06
3.71053e-07
7.95672e-07
-1.84118e-05
7.02823e-07
2.04509e-06
6.85806e-08
0.0229968
8.96956e-08
-1.29092e-06
1.2376e-06
9.30649e-07
5.65838e-07
8.93057e-07
8.79348e-07
1.00375e-07
1.24312e-06
1.30502e-06
1.39778e-06
-6.12509e-08
0.000118318
0.0138996
-0.0105238
0.0374138
3.71994e-07
-2.659e-07
-9.80958e-08
1.69227e-06
6.00596e-07
3.09672e-07
8.87228e-06
1.71227e-07
1.4321e-07
-2.85269e-07
1.06508e-06
2.49403e-07
0.0192519
1.59047e-06
-3.80315e-07
-0.00663665
1.80522e-06
1.73648e-06
-0.00227426
0.0105745
5.50717e-07
2.6409e-05
4.4524e-06
4.08126e-07
6.03501e-08
1.23936e-08
4.53913e-07
6.92254e-07
-1.3569e-06
3.10401e-06
-2.82994e-07
-8.06963e-07
8.52957e-07
-0.00285222
1.89529e-06
4.82147e-07
-4.53684e-07
3.82335e-09
-0.0220131
3.14829e-07
5.17835e-08
1.14639e-06
1.08511e-06
3.43413e-07
-7.35477e-07
-0.00302647
0.00065133
0.00184424
-3.23532e-06
4.78447e-07
-4.43695e-07
0.0094089
2.61139e-06
7.30854e-07
8.16832e-07
-1.20397e-09
6.32209e-07
-1.18963e-06
-0.00692836
3.42096e-07
-8.97345e-07
7.18281e-07
-9.05709e-06
6.23235e-08
1.80766e-05
-9.16271e-07
-2.43778e-06
2.14742e-06
9.17005e-06
-6.26206e-07
-4.47876e-08
5.08625e-08
8.16452e-07
3.48251e-07
3.91369e-07
-1.81107e-07
0.00197046
-4.04791e-08
2.05893e-06
-0.116679
-7.52952e-09
0.0371416
4.13065e-07
3.97391e-07
1.32982e-06
1.57831e-07
7.1733e-07
1.45497e-06
1.25574e-06
9.67545e-07
-1.80555e-07
1.45374e-05
0.000248103
8.46455e-07
3.42862e-07
2.43604e-06
-7.00478e-08
1.27658e-06
-1.26524e-05
1.41244e-06
1.80743e-06
1.17734e-07
-5.2855e-07
9.76279e-07
6.62748e-07
-0.0151372
2.76181e-07
-4.91708e-07
-1.62483e-06
-0.027457
3.51723e-06
0.0659379
7.05623e-07
1.19691e-07
-2.39586e-06
2.87569e-05
6.13717e-08
0.0159095
7.89723e-07
4.43475e-06
1.01713e-06
7.01497e-07
0.0392024
9.83213e-06
1.76244e-06
4.37528e-07
2.6268e-07
1.57674e-05
4.84124e-07
6.12799e-07
1.38932e-07
-2.74109e-07
1.58844e-06
-1.21544e-05
0.018601
9.14464e-07
1.63778e-06
0.0087177
4.83074e-07
9.46218e-06
0.038801
0.00683273
0.0024073
1.54039e-06
4.89755e-07
0.0499865
4.57001e-07
4.28098e-07
2.95019e-06
-0.00148467
-2.58622e-08
-2.34586e-08
0.0257244
-4.84622e-06
5.32465e-06
-0.0211492
0.0331237
0.066583
-3.86685e-07
-1.71322e-07
1.30233e-07
1.1363e-06
0.044469
4.65993e-08
-1.57806e-06
1.62157e-05
6.51898e-07
4.70215e-07
1.12012e-05
1.92186e-07
1.91428e-06
1.81386e-07
4.67907e-07
0.00676895
0.000251535
-2.24875e-07
-1.29494e-07
3.27457e-06
4.55363e-05
3.83748e-06
0.00487227
-1.91784e-07
3.89138e-07
4.26945e-08
-8.48412e-07
2.48136e-07
-5.17945e-08
2.84041e-07
3.97783e-05
6.18983e-06
0.000199891
8.04964e-07
3.561e-07
-2.53148e-07
0.0129795
-4.78594e-08
1.21732e-07
1.10352e-06
-9.70717e-08
-7.32423e-08
0.00633425
-0.00034919
0.0434614
7.31527e-06
-0.00160956
1.94834e-06
9.47971e-08
-0.0068423
7.51969e-07
2.37475e-06
0.0569285
6.11049e-08
-0.0274064
0.0304603
3.62778e-07
5.75606e-07
1.93228e-06
4.64678e-07
1.37688e-05
7.59956e-07
0.0106394
7.34664e-07
6.13056e-07
6.59476e-07
4.23139e-05
6.94798e-07
8.34678e-07
0.0105028
0.00176909
5.27754e-07
-8.24865e-06
-1.61014e-05
1.02565e-06
2.39858e-06
-0.000173107
7.06448e-07
4.84886e-07
0.0743379
1.66863e-06
8.05348e-07
-5.44674e-07
1.33139e-06
1.53661e-06
5.88113e-07
3.7274e-07
0.0237925
3.99047e-06
0.00691127
0.0105834
0.0398121
5.6331e-07
-2.06924e-05
0.00281282
-4.21213e-08
1.95493e-05
-2.15703e-05
-0.00285636
7.01721e-07
6.64464e-08
-0.000670646
0.000439923
-3.40466e-07
-1.90751e-06
1.32003e-06
-1.42546e-07
6.11671e-06
6.02289e-08
0.0430223
0.0845375
0.0313075
0.016505
3.69142e-07
1.31739e-06
7.41702e-08
2.9275e-07
2.2835e-07
9.56193e-07
7.22251e-07
2.50852e-05
0.0482284
-6.28444e-08
9.79412e-07
-9.99582e-07
5.69053e-07
1.89957e-05
9.72348e-08
0.0522153
0.0417665
2.02003e-05
-0.0587278
0.014261
0.0279022
0.0317556
0.0456371
2.47914e-06
2.18746e-07
1.10444e-06
9.47633e-07
0.0123238
0.00963919
8.75288e-07
-1.69341e-06
0.0102424
0.0262234
1.2511e-06
0.012566
8.54062e-08
-6.67702e-06
0.14236
4.56252e-05
5.40394e-07
0.00349406
-7.58322e-06
5.93692e-07
1.00323e-06
-0.0168504
-0.0284308
-0.0105619
-0.0094906
4.86015e-07
0.000460235
0.0537592
6.19895e-07
3.1811e-06
2.89504e-07
6.88199e-07
7.01022e-07
0.0315352
0.00892625
1.10561e-06
-4.0721e-07
-0.0116011
-2.39563e-07
0.0442788
9.41922e-07
-4.35774e-05
0.0246429
-1.4955e-07
-0.00192983
1.36498e-07
1.88128e-06
-3.45567e-07
-1.41095e-06
-1.61142e-06
6.85054e-07
-6.16839e-06
5.30821e-08
0.0161994
2.62611e-06
-2.61361e-06
0.01522
0.0295857
7.64007e-07
0.0303483
7.71781e-06
0.046829
7.73807e-07
5.62958e-07
0.00537913
-2.15715e-05
0.023272
-8.29742e-08
-5.82599e-08
-8.85536e-07
0.00107423
0.00809963
9.60843e-07
0.00620138
-1.52923e-07
-1.72377e-07
0.0774422
-5.9319e-09
0.0348457
6.01446e-07
2.01413e-06
0.0314967
-0.00450379
0.0518644
-1.22071e-05
0.0433555
0.0525
0.000166118
1.77206e-07
0.00388955
6.54497e-07
-3.41819e-07
3.0403e-09
-2.6631e-07
0.00831473
7.24665e-08
0.0329708
0.0521467
2.94626e-06
3.74338e-06
2.32588e-06
0.038588
-2.73988e-07
-0.0120706
0.0106961
8.48214e-07
9.14347e-07
1.74455e-07
-1.53248e-06
6.57305e-07
2.92473e-06
0.0763905
-0.00393118
-1.22538e-05
-1.27787e-06
8.5589e-07
1.26462e-06
1.76071e-08
8.13738e-07
1.13583e-06
0.025275
1.64704e-06
1.92774e-06
0.0475384
2.80001e-06
-1.93477e-05
0.00504044
0.021606
2.22444e-05
0.0292605
0.0200256
0.0427824
7.78171e-07
1.14054e-06
4.34657e-08
-4.00711e-06
1.37e-06
-1.3478e-06
2.55082e-07
9.98539e-08
1.00396e-06
-2.90155e-06
0.0279653
1.94047e-06
-5.71608e-07
1.96022e-06
0.000106009
5.28871e-07
1.09763e-06
4.2575e-07
0.0583217
1.87845e-06
-5.05839e-07
3.08084e-06
4.11537e-07
2.21956e-06
1.366e-06
-5.54406e-07
5.84316e-07
-1.64476e-05
-1.52067e-07
7.7932e-07
3.00235e-07
0.0541511
3.65986e-08
-0.00664104
-4.6066e-07
0.0224681
-3.7864e-08
-2.20304e-08
-1.19658e-07
4.08167e-06
2.24848e-06
0.00869698
-0.00935648
6.45407e-08
5.98258e-08
-4.98041e-08
-0.0554567
0.000219708
7.53318e-07
5.50347e-06
0.0520812
3.74221e-07
-1.14407e-07
7.49916e-07
4.00147e-07
4.76945e-07
0.0824993
5.5282e-07
-4.72419e-07
-0.0238903
7.8476e-08
5.90859e-08
-1.60123e-05
6.58765e-07
3.3609e-07
3.98093e-07
0.00799687
2.27e-07
3.2571e-07
-2.3582e-08
3.80067e-07
8.99223e-07
1.45787e-07
0.0113054
1.51107e-05
5.44607e-07
1.35725e-06
0.0367584
-1.62473e-07
1.5431e-07
-9.57564e-07
5.78193e-05
-0.0228863
7.61611e-07
-0.0707047
0.000117753
5.89783e-07
0.0339477
0.000138783
0.0123913
-8.19309e-05
2.26646e-06
2.57985e-06
6.50958e-06
4.31626e-07
-6.59016e-07
-3.59608e-08
1.67413e-06
0.0259422
9.08723e-07
-0.0835297
-2.24935e-07
-2.32268e-06
1.34747e-06
8.00224e-07
4.56754e-07
0.00335987
-0.00425105
0.00500631
0.028464
5.54675e-07
1.86304e-06
0.0117334
1.19114e-06
-0.00115448
4.92732e-07
-3.2551e-08
0.0285908
2.77173e-06
6.99285e-07
2.09089e-06
2.20553e-06
5.47868e-07
0.059468
-3.02321e-05
8.95999e-07
-7.60391e-07
-5.73412e-07
5.24083e-07
0.0114384
7.57543e-07
4.17272e-07
3.38512e-08
5.12648e-07
-1.27433e-07
-2.23687e-07
0.0824832
7.83062e-07
3.71815e-07
4.6734e-08
3.84793e-07
9.20262e-07
-2.23465e-08
0.00885761
0.0155298
6.18691e-07
-3.14524e-06
3.63605e-07
1.41529e-07
-1.69186e-06
0.0404024
7.84891e-07
0.0610588
0.000201867
4.23789e-07
7.40859e-07
1.87686e-06
3.84606e-07
5.03332e-07
-0.0114139
1.39661e-06
4.10819e-08
7.52319e-07
0.0105079
0.000440429
7.30962e-07
2.48789e-06
8.56175e-07
1.94407e-06
3.18799e-06
1.01538e-05
-2.55956e-07
7.51427e-07
0.0373198
-1.09964e-07
-2.22179e-07
2.77214e-08
0.0320391
0.0138243
7.69828e-07
-6.49254e-06
1.87515e-06
-1.80965e-06
3.1648e-06
-5.76006e-07
0.0117671
1.69458e-06
-2.41936e-07
-0.0033593
7.35674e-07
8.26114e-07
5.49814e-07
-1.03835e-06
4.76422e-07
3.66043e-07
5.62715e-06
1.69947e-07
6.33522e-08
0.0123961
1.00606e-06
3.43027e-06
0.0350401
-7.71106e-07
-0.0274314
0.00802247
1.03515e-06
2.07937e-06
-9.74666e-06
6.39555e-08
-3.31911e-06
1.14369e-06
0.00177692
-9.89188e-07
-2.66963e-07
0.00393986
-0.00972852
4.64179e-09
-4.15535e-07
-4.58052e-08
2.96952e-06
-0.00204982
0.0079365
-4.36544e-07
4.65118e-07
0.0235277
1.66648e-06
1.90962e-06
2.35166e-06
9.24374e-07
-0.00420483
-1.40562e-05
1.06139e-06
6.84778e-06
0.000129609
5.77553e-08
-7.18773e-05
5.26588e-07
8.86382e-08
4.87776e-08
7.84966e-08
0.0603249
-7.25714e-07
2.08324e-06
0.0845775
0.025269
-2.55327e-07
1.01726e-06
-6.36145e-06
0.0225008
1.12644e-07
-0.0391598
7.34154e-07
1.10337e-06
1.27845e-06
1.01815e-06
7.86441e-07
-1.16147e-07
7.00245e-07
0.0151228
-7.27288e-07
1.80924e-08
4.84367e-07
-0.0979899
1.03801e-06
1.22837e-06
1.18285e-07
8.41317e-07
1.82244e-07
4.22238e-07
0.00828877
1.39111e-05
6.14421e-07
8.71709e-08
-6.28301e-07
5.25209e-07
6.40747e-07
0.000523061
0.00994357
1.40022e-07
-5.07714e-05
6.76941e-07
1.92981e-05
0.0593313
0.00846585
1.46676e-06
2.39009e-06
1.97232e-09
-0.0129245
-3.82787e-07
6.31074e-07
0.00039584
-8.12593e-06
-2.62653e-07
2.62713e-05
-4.08517e-07
-1.20454e-07
3.89139e-07
0.146587
2.23031e-07
0.0187754
-3.51706e-08
-0.000987829
5.54529e-07
-1.00688e-06
0.000648935
8.86371e-07
-6.0917e-08
-1.8517e-05
1.87797e-09
-1.43214e-05
-0.00470427
-5.96092e-06
2.49525e-07
1.18423e-06
1.23513e-07
1.27205e-06
5.38105e-07
-0.00305442
-1.47601e-07
5.84149e-07
8.45702e-07
8.6618e-07
1.11138e-06
0.010048
-5.83904e-05
-1.84463e-07
2.84986e-07
5.15303e-07
5.9741e-05
0.000710031
2.52845e-06
2.16106e-07
-1.21317e-06
5.99685e-07
-0.000202016
1.67036e-07
9.13751e-07
0.00202275
3.45255e-07
-2.07394e-07
-2.45022e-06
-2.63506e-07
7.53963e-07
1.78824e-06
1.88401e-06
-3.47746e-06
8.65415e-07
5.29602e-07
0.0312905
0.0799859
8.34094e-06
5.48874e-07
3.83771e-07
1.29198e-06
-6.42394e-08
2.59811e-06
7.55049e-07
1.70242e-06
-4.96453e-08
-0.0112439
8.79674e-08
-3.51059e-07
0.0121871
-1.11919e-05
0.00231142
-7.9681e-06
9.33989e-07
1.73727e-07
1.94041e-07
8.85659e-07
6.87359e-07
1.34379e-06
1.83941e-07
-1.70081e-08
-3.63436e-08
7.94855e-07
8.03103e-07
5.38317e-07
6.3404e-07
2.6011e-06
4.36677e-07
6.73574e-07
9.27156e-07
-1.58956e-07
2.27204e-07
-6.73558e-07
-5.79085e-07
8.51086e-08
-1.28119e-06
1.54568e-07
8.92521e-07
3.97311e-07
1.13971e-06
0.018309
0.0329309
0.0422884
0.11434
0.00018139
-1.48449e-05
-3.66491e-07
4.41859e-07
1.11682e-07
2.05179e-06
8.62825e-07
8.80265e-07
3.58244e-07
9.39505e-07
-2.82163e-07
1.13419e-06
-2.09287e-07
-0.000354452
3.30533e-06
1.47432e-07
-0.0809565
0.000323602
-2.36799e-07
2.52649e-06
-2.42057e-07
-6.96957e-08
0.00245583
3.93333e-07
4.62232e-07
4.73302e-06
-4.31681e-07
-2.35284e-07
4.78511e-07
0.0474921
-4.33787e-08
7.02015e-07
0.00371224
4.57942e-07
0.0138189
6.8656e-07
0.00322435
3.89368e-07
0.0504037
-3.29934e-07
-6.71099e-08
-1.58794e-05
1.01165e-06
0.0155338
0.0517589
0.0113629
-0.00745635
6.27676e-06
2.3234e-06
1.82888e-06
5.71031e-06
-5.68138e-08
5.47545e-07
-8.7001e-08
2.43431e-07
-2.34885e-07
2.18911e-07
5.74127e-07
2.04525e-06
5.90408e-05
0.0430474
2.18565e-05
0.00203057
6.60172e-07
1.32225e-07
2.14609e-06
3.98663e-07
-2.52653e-07
3.25026e-07
-5.78188e-07
2.52741e-09
7.13056e-07
-1.35101e-08
1.38692e-06
2.66233e-06
6.09594e-07
-3.67346e-07
9.59009e-08
2.90924e-08
0.0259276
0.0250045
1.08712e-06
1.32038e-06
-6.16456e-07
0.00470102
0.0183116
5.79729e-07
9.90828e-07
1.17051e-06
-5.80269e-07
1.91819e-05
-1.46968e-05
0.0174734
-1.25042e-07
-4.63985e-05
2.38895e-07
0.0422727
5.85811e-07
1.59882e-07
1.1616e-06
4.85955e-05
3.3981e-07
1.04826e-06
1.71644e-06
7.11809e-07
0.110486
-1.11514e-07
1.06312e-06
8.0347e-07
4.61943e-06
1.37053e-06
0.0451767
-0.000214799
7.42176e-08
1.13444e-06
0.00391718
2.04085e-06
2.40238e-07
-0.20264
0.057276
0.00221891
-0.000235975
1.52917e-06
-1.2907e-05
7.99057e-08
0.00772859
-0.0046388
1.44759e-05
1.88192e-06
1.10774e-06
0.00726754
1.61948e-06
2.39613e-07
3.04714e-07
-3.22091e-05
-4.91413e-07
-0.000113727
2.86235e-07
-1.1753e-07
1.70218e-07
0.0603343
8.32851e-07
7.55538e-07
-6.56018e-07
-0.0433815
0.0224934
0.00240787
0.0245384
2.92339e-06
1.44383e-07
2.08571e-07
9.16121e-06
-1.08225e-07
4.1088e-07
2.19623e-06
9.12157e-07
3.53652e-05
4.44353e-07
0.01937
0.0213656
2.78312e-06
4.58643e-07
8.24156e-07
8.92932e-07
4.30511e-07
6.78814e-07
1.07566e-06
3.59118e-07
-8.76952e-08
8.08865e-07
4.76169e-06
5.93654e-08
4.82489e-07
0.00971892
1.5409e-06
9.36914e-07
7.55491e-07
0.0467396
-2.70958e-08
-1.41672e-06
1.43357e-06
2.88957e-07
1.77611e-05
1.59283e-06
6.62368e-07
5.98456e-08
-8.95733e-08
9.91407e-07
6.94814e-07
-4.99715e-06
2.5319e-07
-3.15664e-07
0.0290955
1.53361e-06
-9.76141e-06
1.46347e-06
5.84763e-09
2.78054e-06
1.20319e-06
9.49647e-07
2.77162e-07
-0.0103694
5.26138e-07