/*--------------------------------*- C++ -*----------------------------------*\
| =========                 |                                                 |
| \\      /  F ield         | OpenFOAM: The Open Source CFD Toolbox           |
|  \\    /   O peration     | Version:  v2012                                 |
|   \\  /    A nd           | Website:  www.openfoam.com                      |
|    \\/     M anipulation  |                                                 |
\*---------------------------------------------------------------------------*/
FoamFile
{
    version     2.0;
    format      ascii;
    class       surfaceScalarField;
    location    "900";
    object      phi;
}
// * * * * * * * * * * * * * * * * * * * * * * * * * * * * * * * * * * * * * //

dimensions      [0 3 -1 0 0 0 0];
oriented        oriented;


internalField   nonuniform List<scalar> 
14470
(
-0.106375
0.253364
-0.146985
-0.0141648
0.0114568
-0.220358
-0.185326
0.405928
-0.00524667
0.0135742
-0.00832755
-0.363837
-0.214655
0.578857
0.095041
0.0532191
-0.148256
-0.179733
0.0876006
0.0921402
-0.0122167
0.00429747
0.00791915
-0.190016
0.354008
-0.164056
0.70297
-0.37446
-0.328043
0.314492
0.388877
0.652056
-0.39384
-0.258814
-0.0692714
0.0793089
-0.010042
-0.0442569
-0.331695
0.376546
-0.218951
-0.0622506
0.28148
0.095085
0.124911
-0.219952
-0.259793
0.475104
-0.215808
0.0480099
-0.0344959
-0.0135139
-0.53292
0.0899728
0.442911
-0.526904
0.350489
0.176256
0.321415
0.2756
-0.0121445
0.00163824
0.0105063
-0.0143763
0.00215958
-0.00895508
-0.060321
0.215263
-0.0817073
-0.13355
-0.10647
0.487752
-0.381289
-0.568551
-0.0346996
0.60287
-0.463829
-0.0691139
-0.0717942
0.167636
-0.0958354
-0.0325054
0.0343544
-0.00184898
0.0708349
0.0717249
-0.142561
-0.239676
-0.203039
0.443341
-0.529521
0.333093
0.196552
0.572031
-0.587429
0.0151464
0.275168
-0.200494
-0.0745972
0.178147
-0.336807
0.158632
-0.228984
0.152878
0.076152
-0.0309669
-0.0197611
0.0507271
-0.0359954
-0.177517
0.213554
-0.181465
0.109674
0.11383
-0.116562
0.00273365
-0.0124848
0.00500085
0.00748404
-0.612678
0.0443189
-0.457702
0.331602
0.125996
0.544832
-0.276976
-0.268187
-0.0117093
0.0166013
-0.00489193
0.597461
-0.355382
-0.241791
-0.491795
0.212404
0.278917
-0.456958
0.196737
0.180269
0.0950156
0.158274
0.413288
-0.110722
-0.0942206
0.204986
0.350366
0.247412
-0.0491922
-0.121798
0.170999
0.0222825
-0.0275291
0.377469
-0.574305
0.196076
-0.194795
0.132454
0.0623413
-0.287145
-0.205043
0.241633
-0.0811957
0.17742
-0.0962
-0.138561
0.0995986
0.0389623
0.291369
0.139438
-0.430667
0.0919567
-0.236191
0.144287
-0.651917
0.332504
0.317977
-0.372729
0.182624
0.0185283
-0.0185283
0.310745
-0.179994
-0.130628
-0.326727
0.205894
0.120848
-0.0557921
0.0585153
-0.00272279
-0.0344156
0.249629
-0.215178
-0.0671472
0.0394275
0.0277187
0.0045838
-0.00807291
0.00348906
0.0451932
0.0985716
-0.143725
-0.0559096
-0.0321761
0.0880845
-0.50945
-0.0218762
0.531675
0.0684042
0.0683594
-0.136758
-0.00631725
0.0927564
-0.0864385
-0.218177
0.425569
-0.207238
0.289009
0.289803
-0.578777
0.10047
-0.0320646
0.0270453
0.0209646
-0.106968
0.202084
-0.14303
0.301197
-0.1581
-0.14856
0.0971172
-0.160228
0.0631145
-0.273805
0.563177
-0.0656477
-0.147716
0.213503
0.0207043
-0.0516724
-0.0987131
-0.0398477
-0.0248778
0.0126763
0.0122016
-0.152389
0.0900045
0.0623854
-0.0525389
-0.0998487
-0.189516
-0.0251094
0.214655
-0.0222403
0.00975564
-0.257161
0.489445
-0.232433
-0.0823305
0.0264206
0.104877
-0.195128
0.0902793
-0.124169
0.268088
-0.143828
-0.633975
0.27048
0.0710366
-0.0263039
-0.0447335
-0.206101
0.0954444
-0.150756
0.0351459
0.115641
-0.253692
-0.204103
0.0470397
0.0373077
-0.0843432
0.00127389
-0.0756585
0.0743851
-0.118834
0.164064
0.210091
0.306021
-0.51619
0.195612
-0.413735
-0.312286
-0.249467
-0.272795
0.522469
0.00346441
-0.0156089
-0.00428589
0.0143195
-0.0100337
0.0309305
-0.0317725
0.000842054
-0.268486
0.234076
-0.642844
0.237246
0.406097
-0.392712
0.187136
0.205786
0.268732
-0.502267
0.232971
0.00730954
-0.0334182
0.0261086
-0.426382
0.0401331
0.386128
-0.104171
0.0914781
0.0126962
0.147126
-0.21266
0.0447213
0.0261123
-0.0708319
-0.235542
0.146278
0.0893018
-0.20289
-0.133951
0.0321603
-0.458812
-0.0613663
0.190655
-0.129258
-0.028196
-0.00430942
0.187215
-0.0629366
-0.124275
0.0655965
0.121623
-0.147237
0.275208
-0.128044
-0.101884
0.419593
-0.31762
-0.248128
0.141749
0.185128
-0.30403
0.119034
0.0841985
0.171648
-0.255787
0.166868
-0.133705
-0.0331582
-0.166765
0.110976
0.0557891
-0.132708
-0.259836
0.117781
-0.627099
-0.0689516
0.151063
-0.0820931
0.0400113
-0.0395474
-0.000463615
-0.116216
-0.0805719
0.318229
-0.237971
-0.218585
0.141263
0.077429
0.0137365
-0.00747785
-0.00625864
0.137461
-0.088751
-0.0487089
0.370707
-0.465267
-0.0424647
-0.0398661
-0.372736
0.270806
0.402664
0.60021
-0.282719
-0.317229
-0.00739604
0.0166897
-0.00929358
-0.295366
0.171265
-0.42729
0.320783
-0.131136
-0.204083
0.335256
0.0949634
0.0366821
-0.131645
0.175715
-0.050773
-0.165963
0.457216
0.121118
-0.0502849
0.236979
-0.388296
0.151408
0.0716959
-0.219294
0.139031
-0.286244
-0.155926
-0.371133
-0.0615264
0.0605885
0.000938113
0.379597
-0.184898
-0.19488
0.100638
-0.106954
-0.151859
0.0130228
0.138869
0.350071
-0.204643
-0.145554
0.311116
0.206616
-0.518324
0.671591
-0.345489
-0.32619
-0.28429
0.203581
0.021573
0.00279447
-0.0243675
0.019746
-0.0200429
0.000296927
0.0280217
-0.000375145
-0.0276422
0.255574
0.395941
-0.078085
0.173135
-0.0561577
0.137886
-0.0817261
0.0359158
0.0219888
-0.0579044
-0.242694
-0.209588
0.452337
0.316229
-0.187815
-0.128312
-0.0754861
0.12253
0.00202714
0.213554
-0.0663305
0.221394
0.323113
0.510961
-0.261335
-0.250067
0.520888
-0.0782484
0.122972
-0.0010395
0.00562325
0.0645998
-0.0448538
-0.0321123
-0.11861
0.164598
-0.383053
0.218393
-0.00891718
-0.0108023
0.0197195
-0.0355105
0.0294064
0.00610397
0.0817536
0.102106
-0.183841
0.2461
-0.425058
0.178763
0.261434
-0.125628
-0.135784
-0.00973356
0.0114119
-0.00167837
-0.106996
0.429811
-0.323517
0.32433
0.150405
0.248755
0.30891
-0.557984
-0.357723
0.229686
0.128007
-0.462505
0.375632
0.0868145
0.116543
-0.278423
0.161993
-0.136549
-0.128553
0.265152
0.0078214
-0.0433802
0.0355588
-0.16271
0.315503
-0.152918
0.138645
0.084178
-0.222774
0.188069
0.161905
0.303657
-0.182292
-0.12134
0.0500438
-0.0891642
0.0391207
0.106794
0.0391783
0.00083322
0.176839
0.258574
-0.435797
-0.0173582
-0.0384335
-0.277072
0.134115
-0.176454
-0.0623464
0.238888
-0.312456
0.268534
0.107254
0.0596188
-0.367818
-0.274661
0.0870904
-0.115197
0.0281038
0.178556
-0.0736471
-0.353604
-0.108971
-0.00598656
-0.0285468
0.0345332
-0.0155256
-0.0799822
0.09553
-0.158783
-0.0307133
0.272696
-0.487916
0.215031
0.227164
-0.132895
-0.0942215
0.165415
-0.0814574
-0.0839527
0.111526
0.00286175
-0.114392
0.0859246
0.0255993
0.0448982
-0.00145867
-0.0434397
-0.209273
0.154213
0.0550695
-0.274742
0.0984194
0.214989
-0.122968
-0.035559
4.8315e-05
-0.449011
0.260877
0.187673
-0.0107242
0.00294277
0.0279877
-0.406681
0.298782
0.281525
0.273829
-0.555455
0.107806
0.00602565
-0.164197
-0.207351
0.371527
-0.507003
0.257791
0.229485
-0.106429
-0.123046
0.215419
-0.14782
-0.0675825
-0.208216
0.230871
0.0854418
-0.0744851
0.213162
0.132317
-0.17305
0.0407581
-0.10365
-0.160777
0.26446
0.183014
-0.049635
0.177384
-0.127733
-0.0371592
0.000265477
0.0368937
-0.556159
0.202383
0.018724
-0.0511478
0.0324357
0.530185
-0.179422
0.401031
-0.63656
0.234806
-0.00517579
-0.394029
0.398913
0.029592
-0.242685
0.410607
-0.168014
0.126732
-0.0317677
-0.0575318
0.0247574
0.0327753
-0.322022
-0.266451
0.588883
-0.590628
0.222861
-0.0267563
0.128773
-0.102016
-0.485152
0.478561
-0.287242
-0.269126
0.55692
0.561374
-0.567998
0.00495785
-0.0448572
-0.0126746
-0.0190895
-0.0424367
0.120509
-0.216385
0.0958402
-0.0626471
-0.0439171
0.106564
0.14029
-0.19413
0.0538428
-0.116681
0.0083985
0.000214967
-0.00861349
-0.380996
0.176335
0.0164631
-0.0197061
0.00324294
-0.200691
0.563529
-0.363894
0.0800057
0.0854065
-0.00825104
-0.0436951
0.0519461
-0.00542515
0.0434186
-0.0379959
-0.0668615
-0.0672101
-0.142053
0.146839
0.128295
0.0936205
-0.200555
-0.254947
0.118409
-0.44888
0.284908
0.16398
-0.281523
0.0190208
0.262396
0.0970349
-0.0469911
0.164625
0.0506406
-0.196524
-0.394138
0.625958
-0.348294
-0.27779
0.400082
-0.22384
-0.633532
0.377737
0.255227
-0.205782
-0.0034633
0.00556295
-0.00209967
-0.100007
0.481488
-0.381979
0.46082
-0.260617
-0.199652
0.560935
-0.461133
-0.100042
-0.115591
0.492439
0.0367221
-0.0381239
0.00140184
0.0760108
0.0614515
0.0177061
-0.07393
0.0562216
-0.291093
0.199624
0.091535
-0.0498751
-0.168609
-0.0329138
-0.027942
-0.12471
0.152685
-0.00741775
2.17915e-05
0.165098
-0.41888
0.0777639
-0.0530068
0.145213
-0.247901
0.10274
-0.0340726
0.365706
-0.0141648
-0.146747
0.204265
-0.443274
-0.168782
0.119167
0.00461449
-0.0539965
0.174084
0.121508
-0.295532
0.0822132
-0.135422
0.0531932
0.129699
0.320847
-0.189795
-0.131008
0.0739236
-0.12519
0.0512588
0.191513
-0.0650549
-0.126452
-0.273893
-0.255515
0.244736
-0.472933
0.227986
-0.181389
-0.109626
0.0847642
-0.13404
0.0492772
-0.00942748
-0.00731145
0.0167389
0.175952
-0.396179
0.499108
-0.192968
-0.478161
0.287041
0.190906
-0.00187381
0.0234468
-0.0193234
0.0357865
-0.0129818
0.00851575
0.00446614
0.24697
-0.463676
0.216228
0.138851
0.0526675
-0.0477727
0.129967
0.0680192
-0.0858428
0.0178238
-0.0856646
0.17596
-0.0902914
0.475656
-0.235571
-0.240598
0.437163
-0.247022
-0.190716
-0.256032
-0.222368
-0.109584
0.203225
-0.377588
0.194584
0.18292
-0.020663
0.0159646
0.00469861
-0.506249
0.0397775
0.467091
-0.270273
-0.182506
0.452552
-0.0159748
-0.0915608
0.107553
-0.00918973
0.00572637
0.0246676
-0.0420257
-0.405893
-0.228196
0.0604173
0.010619
0.176421
-0.286573
0.110154
0.0501287
-0.0284689
-0.0216599
0.0127361
-0.0252967
0.0125606
-0.00286899
0.0477672
0.292295
-0.13393
-0.158244
-0.172974
0.137003
-0.0802451
-0.08652
-0.0131846
-0.011693
0.0161408
-0.162605
0.138971
0.0236367
-0.580587
0.0529785
0.526969
0.203833
-0.0833465
-0.438296
0.238547
0.199299
-0.214304
-0.292352
0.507088
-0.167764
-0.209895
-0.208513
-0.302253
0.510177
0.311867
0.285148
-0.0199495
-0.000713298
0.297067
0.211639
-0.123088
-0.0885299
-0.0977252
-0.124106
0.221871
0.186907
-0.136589
-0.0503139
0.268421
0.206796
0.15117
0.150087
0.0235143
0.00292103
-0.0264353
0.00355808
-0.0275627
0.0240046
-0.0730159
0.0528382
0.0201674
-0.187487
0.101833
0.207783
-0.478635
0.145025
0.147381
-0.437394
0.252208
0.149576
-0.0990498
-0.0505255
-0.584979
0.0464385
0.537266
0.0581253
-0.0334575
0.0451229
0.0753185
-0.120441
-0.03718
-0.142547
-0.0154245
0.00244267
0.119978
-0.0460621
0.337036
-0.559822
0.224101
0.308575
0.12007
-0.428665
-0.0295452
0.14052
0.0563933
0.0931833
0.16825
-0.331201
0.00793402
0.00480214
0.557305
-0.218766
-0.202241
-0.336926
0.53836
0.0449223
-0.0531733
0.44424
-0.18646
-0.0545034
-0.202492
0.123518
-0.11046
-0.0124532
-0.493462
0.145906
0.233533
0.0584797
0.0840448
-0.142515
-0.0403405
-0.0268077
0.23635
-0.0692893
-0.16703
-0.104303
0.186075
-0.0241906
-0.387683
0.411436
-0.191778
0.347888
-0.156431
0.0674311
-0.0413177
-0.106461
-0.0886387
0.288104
0.162023
-0.450934
-0.270484
-0.259869
0.53048
-0.13908
0.0898991
-0.0895015
0.139441
-0.0499511
0.135506
0.100873
-0.0113365
0.0038586
-0.292288
0.540391
-0.0283527
0.36167
-0.0388677
-0.0327736
0.0716415
0.403207
-0.427765
-0.00136562
-0.0357936
-0.0278153
0.0637314
0.291546
0.218996
0.254293
-0.475008
0.221291
-0.293837
0.0122251
0.236943
0.459688
-0.17304
0.0531852
-0.0794893
0.0899498
-0.115833
0.0890776
-0.0407956
0.146959
0.15485
-0.301671
-0.143279
-0.0922285
-0.115889
-0.113053
-0.00894597
-0.0244723
-0.170086
0.0889245
0.430591
-0.645066
0.123034
0.131338
-0.0553269
0.359359
-0.144646
-0.214743
-0.0290662
0.266086
-0.108111
-0.0669135
-0.519403
-0.227611
0.480415
-0.253027
0.219072
-0.416923
0.197912
-0.211006
0.479303
0.355893
0.220976
-0.576067
-0.301377
0.173482
0.1279
-0.126416
-0.128524
0.122001
0.107491
-0.525862
-0.00926181
0.532927
0.00576315
-0.0154967
0.223385
-0.128714
-0.0946773
-0.0674136
0.112538
0.00359864
0.00479985
-0.202772
0.102938
-0.11887
0.165608
-0.0779955
-0.186812
-0.238454
0.475674
0.0011334
-0.477152
-0.133098
-0.20236
0.335101
0.11526
0.0168479
-0.132103
-0.129327
-0.0647986
0.521666
-0.243847
0.538851
-0.294159
0.53477
-0.226697
-0.0483788
-0.00307678
0.0514547
0.0864425
-0.142599
0.0940309
-0.435764
-0.217642
-0.303501
0.172332
0.152418
-0.0712788
-0.0811322
0.00407257
0.0125287
-0.0457587
0.0403321
-0.227527
0.178228
0.0492869
0.298859
-0.143891
-0.154778
0.0687572
-0.0500225
0.0133045
0.0873342
0.171409
-0.181559
0.0101667
-0.179897
-0.139382
0.319183
-0.183737
0.429314
-0.24553
-0.039569
0.0473904
0.296279
0.143722
-0.440463
0.0736787
0.0642101
0.0291581
-0.143742
0.114587
-0.241053
0.528583
-0.0739798
0.0548909
0.148374
0.0973774
-0.245684
-0.0557119
0.0164674
0.0392444
0.187917
-0.38003
0.02964
0.013249
-0.042889
0.15326
-0.0273545
-0.125904
0.0862931
-0.304978
0.118827
0.00994706
0.180755
-0.43827
-0.0229847
0.0910041
-0.620231
0.237291
0.383192
0.109373
0.344946
-0.454451
-0.592067
0.24738
-0.269932
-0.187434
0.0455885
0.286663
0.202603
0.488513
-0.158902
-0.329994
-0.276554
0.185176
0.0914272
-0.241351
-0.222825
0.236035
0.0569041
0.112698
-0.169583
0.11166
-0.290175
0.178614
-0.0909407
-0.586593
0.423361
0.163527
-0.417233
-0.169215
-0.000194886
0.0237092
-0.0580911
0.00458618
0.0535034
-0.139216
-0.0883231
-0.0231207
-0.266183
0.139771
0.356551
-0.198463
-0.158109
-0.400322
0.343478
0.115926
0.0109917
-0.00247584
0.200972
0.584636
-0.649148
0.0632632
0.0221943
-0.0216451
-0.000549186
-0.0697293
-0.0468319
-0.0385061
0.170834
-0.510606
0.582367
-0.306535
0.294822
-0.131695
-0.163177
-0.286317
-0.253089
0.539235
-0.00106327
0.0335085
-0.114872
0.28894
0.164148
-0.064149
-0.099949
0.328481
-0.183134
-0.145402
0.0177339
-0.0237205
0.563546
-0.273456
0.000530908
0.0179974
-0.571326
0.0627227
0.507076
-0.0493712
0.134136
-0.439067
0.291369
0.147378
-0.232579
0.17434
0.0583374
-0.0308356
0.0311011
-0.343103
-0.276777
-0.0995252
0.0232615
0.076265
0.208378
0.188815
-0.396832
-0.394772
-0.224569
0.619104
-0.262729
0.438713
-0.104098
-0.0141423
0.118238
0.00522176
-0.048602
0.184918
0.232613
-0.226312
0.0532475
-0.4364
-0.0916988
0.153963
0.0234275
-0.0184288
0.0480687
0.160298
-0.00739166
-0.536425
-0.00471804
0.539265
-0.0589255
0.12729
-0.521221
0.531491
-0.0103623
0.337479
-0.0427224
0.443291
-0.256405
-0.187139
0.214835
-0.0928185
0.309505
-0.563423
0.252684
-0.115665
0.0356947
-0.0148414
-0.402789
-0.392962
0.242839
0.1501
0.261498
-0.177632
-0.0837787
0.0823044
0.0140004
-0.0963011
-0.164619
0.151902
0.0127194
0.183521
-0.443561
-0.0144558
0.417944
-0.0487863
0.135231
0.377692
-0.153486
-0.224056
-0.19113
0.379015
0.476721
-0.415339
0.399771
0.308751
-0.0984102
0.0496252
-0.13604
-0.138568
-0.081567
-0.0179567
-0.0702215
0.147692
-0.0774659
-0.0948751
0.125577
-0.0306933
-0.0953901
-0.0805118
0.17592
-0.0174592
0.0623815
-0.113925
0.299165
-0.0108126
0.009757
-0.0311191
0.0165757
0.0145434
0.0779522
-0.127322
-0.0860211
0.127042
-0.0410202
0.154553
-0.125392
-0.0603595
0.117206
0.220241
-0.0140537
0.00462625
0.111896
0.149717
-0.376298
0.112909
-0.0349559
-0.0203532
-0.500793
0.0343879
0.164149
-0.202639
0.0804825
0.0833349
-0.163806
-0.160782
0.131306
0.0294688
-0.00846602
-0.00072378
-0.00569227
-0.00542616
0.0111185
-0.264149
0.0865983
-0.0935966
0.174099
0.550095
-0.268808
0.0948776
-0.099426
0.00454864
0.114482
-0.184146
-0.255265
-0.357174
0.189261
-0.161325
0.321279
-0.159813
-0.201441
0.0950012
-0.0486145
0.0471557
0.0587801
-0.102697
-0.0106155
0.00953967
0.00107577
-0.121752
-0.182151
0.204202
0.0572484
-0.0238984
-0.0318136
0.0316721
0.000766154
-0.0324387
-0.164273
-0.140113
0.304717
0.107026
-0.192761
0.0857532
0.229735
0.0739554
0.0391345
0.0109943
0.146998
-0.0884964
-0.211259
-0.0399288
0.0576333
-0.0892019
0.0503346
-4.37007e-05
-0.00564851
-0.169447
0.50107
0.122101
0.023053
-0.0555631
0.0325105
0.26782
-0.151171
0.0288649
-0.107111
-0.0445227
-0.187958
0.00103414
0.185878
-0.222277
0.101886
0.120399
-0.293815
-0.0944858
-0.258891
0.353329
-0.397825
0.193901
0.0670675
-0.1575
0.0904271
0.574646
-0.332969
-0.0858701
0.152935
0.0733503
0.0934588
-0.166805
0.176657
-0.0804073
-0.0962461
-0.336277
0.598835
-0.26265
-0.644244
0.357292
0.286422
0.134231
-0.291738
0.15761
0.204709
-0.330248
0.125576
-0.353687
0.51177
0.200926
-0.365238
0.0724199
-0.142633
-0.0470947
0.16236
0.0434939
-0.0383579
-0.542463
0.0218024
-0.120852
0.617142
-0.317727
-0.300701
-0.0187844
-0.0123346
0.270357
-0.135555
-0.134679
-0.0555061
-0.0700001
0.125506
-0.137289
0.0501455
0.103116
0.103622
-0.396821
0.293003
0.18926
0.411159
-0.131906
0.0729899
0.434778
0.228481
-0.36032
-0.0720263
-0.12987
0.201926
-0.0405632
0.0662838
-0.0257225
0.250064
0.125537
-0.0919122
0.0415171
-0.0301695
-0.0113497
0.142455
-0.246042
-0.0451942
0.0263582
0.0151558
0.412292
-0.193277
0.117228
-0.246821
0.184788
-0.125718
-0.257378
0.204784
-0.467793
-0.0203353
0.0704394
-0.0501054
0.0132469
0.00461038
-0.00924206
0.00463165
0.193259
0.166082
0.41983
-0.175269
0.272888
-0.447141
0.174484
0.150356
-0.331283
0.181117
-0.178677
0.290441
-0.132846
-0.144155
0.0194786
-0.0457744
0.0262956
0.178745
0.0917447
-0.202579
0.103699
-0.0903928
-0.0980536
0.0650396
-0.159902
-0.19316
0.421606
9.48176e-05
-0.0263872
0.0262924
0.305076
-0.158307
0.56302
-0.280058
-0.284465
0.087733
0.0889265
0.00569564
0.00571631
0.45457
-0.293199
-0.488514
-0.297841
0.292283
0.392381
-0.288863
-0.0490858
0.0642815
-0.137303
0.0730231
0.365061
-0.215728
-0.149287
0.149107
0.0657423
-0.30976
0.145855
0.172679
-0.365972
-0.0228895
-0.141729
-0.0281923
-0.0170021
0.0451944
0.127367
0.0678492
-0.19521
-0.49547
0.213081
-0.364878
-0.0645768
0.429131
0.117731
0.0624083
-0.180126
-0.0679465
0.0915147
-0.151172
0.0596637
0.451713
-0.137698
-0.314312
0.381992
-0.173533
-0.0269365
-0.00483603
0.132078
-0.251973
-0.0499664
0.18242
-0.0865004
0.0390926
0.0474072
0.392686
0.289544
-0.400895
0.286198
0.114637
0.0232825
0.00570819
-0.0289906
0.511121
0.0720968
0.248721
-0.0315036
0.0183192
-0.104728
-0.0560571
-0.0364043
0.133523
-0.0820023
-0.0534365
-0.300549
-0.274406
0.012502
-0.0406941
0.245153
-0.447023
0.145893
-0.404175
0.258294
-0.232821
-0.168154
0.10271
0.0975695
-0.200247
-0.0181376
0.0124086
0.00572902
0.519344
-0.119086
0.243726
0.166785
0.344163
0.0903973
-0.201398
0.315335
-0.287024
0.192565
-0.0966408
0.0106202
-0.0717688
0.174511
-0.140802
-0.160583
0.343275
0.205094
-0.548978
-0.19355
0.143984
0.0466936
0.119681
0.162033
0.0905047
0.560724
-0.143268
0.416281
0.264459
-0.0617369
-0.202563
-0.0399328
0.0385671
0.0110955
0.0172914
-0.028393
-0.160107
0.307139
-0.00600512
0.537686
-0.26409
-0.120489
-0.101786
0.0398429
-0.137579
0.0977377
-0.0122273
-0.00730303
0.0195303
-0.160224
0.387858
-0.227542
-0.322649
-0.024132
-0.00476679
0.0288985
0.138188
0.0890104
0.296828
0.264692
0.276589
-0.0893729
-0.0262808
0.302345
-0.5824
0.280118
-0.0879955
-0.0934667
0.459104
0.0188931
-0.015335
-0.5581
0.289299
-0.724592
0.439135
0.283121
-0.534538
0.291096
-0.102743
-0.119549
0.222292
0.327873
-0.123251
-0.124638
-0.0917833
-0.108922
-0.0536787
-0.0505227
0.0407569
0.0097652
-0.342247
0.241571
-0.467274
0.239372
0.399585
0.199125
0.00872046
0.33608
0.303144
-0.319465
0.0162879
0.173188
0.177612
-0.350955
0.115853
0.196545
0.208997
-0.0841738
-0.124756
-0.0302836
-0.0427428
-0.202871
0.0932958
0.106823
-0.178823
0.257587
0.187042
0.00350711
-0.0305782
0.0270711
0.13715
-0.174966
0.0378446
-0.249213
0.453415
-0.129811
0.0982184
0.0315811
-0.0300989
0.00190293
-0.342937
-0.0221287
0.40864
0.482909
-0.249344
-0.233428
-0.0716375
-0.0940182
0.165665
-0.0140795
0.223165
-0.0165132
0.266596
0.182686
-0.294529
0.112031
-0.194932
-0.319687
0.513904
0.13859
-0.28939
-0.437429
0.172242
-0.114288
-0.057953
0.0792478
0.223831
-0.0838586
-0.0763659
0.244467
0.269619
-0.514184
0.150197
-0.0497474
-0.100446
0.263065
-0.524798
0.261165
0.143032
-0.268647
-0.390589
0.254962
0.13573
-0.251211
0.11529
-0.0813578
0.0329781
0.00049445
0.0216999
-0.00290016
-0.1315
-0.0364357
-0.0933703
0.0883367
-0.221188
0.174731
0.047485
-0.0649441
0.000265801
0.208574
-0.162849
-0.0456247
0.269649
-0.432908
0.163197
0.27901
-0.00260236
-0.00871212
0.0113145
0.281983
0.201054
-0.00456334
-0.175783
0.436207
-0.127902
0.263487
-0.13553
-0.396863
0.242533
0.154224
-0.52168
0.416058
0.105354
0.216701
0.12742
-0.104156
0.029266
-0.00598339
-0.0172205
0.0088929
-0.0614091
0.00331618
-0.0238339
0.027341
-0.435962
-0.101904
0.02324
0.0786696
-0.000342179
-0.075316
0.254926
0.324617
-0.57947
-0.198388
-0.553183
0.277566
0.27591
0.169895
-0.168857
-0.455783
0.214251
0.00286876
-0.0121107
0.0778368
0.0745905
-0.0859975
0.177453
-0.0914425
-0.122711
-0.191827
0.314503
0.159404
-0.0871167
-0.0722867
-0.0014496
0.00643982
-0.00499022
0.00800372
0.00320508
-0.0112088
0.0987876
0.10628
-0.205019
0.113942
0.105303
-0.219199
-0.452279
-0.0856755
0.0387628
-0.022073
-0.221048
0.455909
-0.234868
-0.0364588
0.0290552
0.00740332
0.127266
-0.074046
0.0315893
-0.112536
0.0809522
0.0999187
-0.0775483
-0.0223696
0.0207992
0.0377166
0.122075
-0.282808
-0.11841
-0.164594
0.28311
0.56382
-0.255623
-0.224916
0.0745911
0.15041
-0.0160739
0.00800097
0.0180959
-0.0153015
-0.53682
0.321335
0.215695
-0.0187087
-0.0132902
0.0319988
0.29399
-0.174166
0.109005
-0.0496167
-0.000907066
-0.0848828
0.0443176
-0.0333382
-0.0515456
0.242734
0.193901
0.08983
0.143628
-0.250226
0.106699
0.125527
-0.134798
0.269207
-0.00198926
0.60353
-0.331109
-0.273021
0.0881561
-0.0800968
-0.00805915
0.390919
-0.618509
0.224892
0.469689
-0.227488
-0.0939803
-0.0766952
0.170683
-0.197774
0.175584
-0.00568569
-0.330719
0.16621
0.164603
0.0413684
0.0232315
0.0816792
0.0183708
-0.100049
-0.13389
0.0343635
0.0995279
0.0342427
0.379048
-0.540053
0.160725
-0.188773
-0.141844
-0.107473
0.486319
-0.212911
-0.175256
-0.0940456
-0.0862301
0.177755
0.263326
0.0906284
0.229438
0.148388
-0.245016
0.14161
0.103476
-0.0208608
0.0135577
-0.127502
-0.144488
0.272143
0.340723
-0.102646
-0.23821
0.0237271
0.00794485
0.306677
0.150423
0.0102767
-0.532062
0.230432
0.213068
-0.251758
0.317588
-0.244115
-0.073429
0.00280861
0.00366552
-0.00647414
0.0823984
-0.572266
-0.024812
0.00610329
-0.0115553
0.0509816
0.503158
0.149673
-0.309678
0.105363
-0.207993
0.102682
0.557294
0.588486
-0.295227
-0.294423
0.255663
-0.439548
0.184078
-0.116375
0.100332
0.0160439
0.0355501
-0.160242
0.219644
0.145458
-0.100688
0.0461542
0.0837959
0.115299
-0.0204207
-0.0807094
-0.187768
0.0985351
-0.0070541
0.206869
-0.223245
-0.313197
-0.0109004
-0.0102601
0.0211604
0.0760078
-0.154377
0.0783736
-0.080452
-0.195675
-0.161635
0.254373
0.195345
-0.449655
-0.00228269
-0.00905379
0.0241557
-0.0732812
0.0491256
-0.103972
0.125775
0.00244042
-0.0309093
-0.178885
0.52129
-0.298331
0.137279
-0.397166
0.194636
-0.0331302
0.00619368
-0.228141
0.103482
-0.184843
0.172447
0.0123847
-0.244243
0.0629164
0.399604
-0.184542
-0.215195
-0.136789
0.377967
0.1993
-0.57898
0.490879
-0.285141
0.136996
0.0132038
0.464908
-0.257441
-0.0850546
0.43363
0.126375
-0.304598
-0.389505
0.251378
0.18371
-0.000318425
0.0531495
-0.0168717
-0.000348761
0.229904
-0.152378
-0.00516689
0.0274725
-0.0223056
-0.299143
0.548624
-0.250129
0.0334728
0.130679
0.135716
0.163313
-0.107264
0.136132
0.365833
-0.0808671
-0.423137
0.154694
-0.11857
-0.036075
0.0756215
-0.152923
0.0778767
0.0750644
-0.560355
0.0318271
0.139597
0.124482
-0.0166736
-0.00409308
0.0428988
-0.0388064
-0.31922
0.139246
-0.152112
0.0866506
0.0654624
-0.00656148
-0.0219855
-0.136725
-0.116652
0.253391
0.139651
-0.102968
-0.0902666
0.163624
-0.231476
-0.167291
0.398539
-0.086979
-0.157196
0.158802
0.113896
-0.534079
0.233883
-0.0504944
-0.23142
0.33162
0.101999
0.254534
0.441872
-0.245472
-0.196067
-0.22331
-0.0447146
0.267944
-0.175551
-0.021673
0.0411513
0.234862
-0.0520453
-0.158306
0.310332
-0.151873
-0.111853
0.216388
-0.460675
0.244433
0.179576
0.170351
-0.349726
0.0819934
-0.188131
0.106155
0.043176
0.0325001
-0.0756748
-0.0776565
0.05732
0.0939877
-0.181983
0.0226998
-0.285533
-0.359191
0.0238364
5.15736e-05
-0.0238877
-0.234287
0.176869
0.0574137
0.0135817
-0.0128097
-0.000772004
-0.0314798
-0.112099
0.143585
-0.532578
0.262143
0.348644
0.158599
0.127112
-0.285651
-0.00712261
0.00191696
0.00520582
0.0134151
-0.0160175
-0.0627349
0.175451
-0.0672785
0.311199
-0.454527
0.191481
0.186924
-0.37829
0.24419
0.277593
0.0254585
0.00129545
-0.0267539
-0.249352
0.135619
0.113803
-0.215784
0.388472
-0.164071
0.0137326
-0.0378649
-0.00144425
-0.131305
0.132746
0.154835
-0.312996
0.0361196
-0.0492928
-0.0372075
0.243882
-0.0556599
-0.188195
0.10149
-0.238216
-0.0192375
-0.0172216
-0.147273
0.0433022
0.302035
-0.0594939
-0.242499
0.0471615
-0.0805018
-0.0955753
0.17892
0.0234161
-0.0941606
0.070737
0.0384938
-0.0425871
0.234672
-0.173075
-0.217334
0.542012
-0.244577
0.316529
0.0562393
0.121196
-0.00197965
0.00463814
-0.00265851
0.00434575
0.133889
-0.478807
-0.108922
-0.150568
0.0573757
0.0931903
0.53875
-0.262352
-0.276243
0.00770574
0.0290163
0.0120522
-0.0057917
-0.00626054
0.269666
-0.0138323
-0.00621062
-0.130513
-0.438648
0.16373
-0.395634
-0.170963
0.344051
-0.0145846
-0.0445781
0.059161
-0.0163008
0.0979807
-0.219636
0.0801818
-0.151461
0.429794
-0.191783
-0.101472
0.135838
0.117266
-0.512261
0.213823
-0.0884908
-0.12532
0.218225
-0.322038
0.0692845
0.252707
-0.381781
0.166002
-0.175235
0.14994
0.0252938
-0.298137
0.157362
0.08258
-0.0591719
-0.177161
-0.0571257
-0.270627
-0.266707
0.537168
0.0764725
-0.1651
0.0886347
0.245784
-0.0591738
0.235561
0.280715
-0.0468472
0.0284184
0.0554512
0.374461
-0.175473
-0.198751
0.185665
0.256562
0.251665
0.122961
-0.0619174
0.216405
-0.15437
-0.00479489
-0.00444468
0.00923957
-0.00251049
-0.113864
-0.0869998
0.150117
0.189156
-0.248357
0.246793
0.0460312
0.00659807
-0.0526287
-0.0459442
0.163684
0.367572
-0.147836
0.028208
0.0098801
-0.038088
-0.55747
0.266694
0.290342
-0.0870329
0.153346
-0.0663052
-0.00800015
0.0060205
0.472649
-0.245211
-0.227634
0.00822986
-0.00967947
0.00388712
-0.0802683
0.156745
-0.0250042
-0.00509472
-0.151302
-0.0239359
0.305097
-0.416703
0.111719
-0.167895
-0.130227
-0.0431771
0.0456176
-0.00433435
-0.0442803
-0.317503
0.149615
0.0203848
-0.0255516
0.212796
0.0553647
-0.396785
-0.474861
0.484948
0.15441
-0.294397
0.100633
-0.157361
0.265232
-0.107779
0.0269738
-0.0513052
0.024331
0.0280287
-0.00257026
-0.0355574
-0.0278808
0.0634385
-0.0742747
-0.20741
-0.44286
0.0810237
-0.160898
0.0798872
0.00833545
-0.00033174
-0.450198
0.204997
0.0237972
0.00437822
-0.0281754
0.179342
-0.138349
-0.0409833
0.266324
-0.536665
-0.135394
-0.558549
-0.307307
0.167846
-0.0735153
-0.0793912
-0.0244483
0.025526
-0.00107779
0.232746
-0.213639
-0.183594
-0.286815
0.469958
0.00838628
-0.0208401
0.0124538
-0.0317345
0.0802481
-0.0485131
0.212658
-0.0712894
-0.14129
-0.2586
-0.299192
-0.196716
0.197828
-0.413618
0.216036
0.368126
-0.582631
0.213723
-0.172002
0.124919
-0.0993572
0.00343132
0.0959265
-0.550813
0.29406
0.255868
-0.460861
0.386729
0.0737471
-0.0686542
0.0918962
-0.012955
-0.0251689
0.0198018
0.159553
0.167582
0.0631137
-0.0738931
0.0107799
0.161211
0.146774
-0.307669
0.282914
0.233088
-0.516158
-0.321631
-0.239145
-0.312602
-0.160007
0.471082
0.48068
-0.0814174
0.0525396
0.0473797
0.050048
0.138584
-0.188621
0.174468
0.0146746
0.0193178
0.0152152
0.199907
-0.114027
-0.0858116
0.0773404
0.0785199
-0.055466
0.0519476
-0.0403586
-0.0115908
-0.0780699
0.176183
-0.0980835
-0.255634
0.174958
-0.282157
-0.309166
-0.138487
0.303307
-0.564839
0.260595
0.0226403
0.0893544
-0.111991
-0.230231
0.492562
-0.061704
0.044663
0.0170397
0.0890876
-0.017967
0.169872
0.205942
0.267841
-0.473399
-0.0170008
-0.0145027
0.0615739
0.0778578
0.00321323
0.00472084
-0.0785334
0.446208
0.00696865
0.0265873
-0.0335559
-0.244526
-0.171647
0.0788449
0.0636979
-0.142543
0.111087
0.073056
0.0282864
0.0245658
-0.0528516
0.0871243
-0.216961
-0.107691
-0.0298874
-0.45911
0.209201
-0.0347308
0.184673
-0.252348
-0.222122
-0.00332938
0.0068184
0.0409516
0.0903871
0.0730601
-0.128559
0.409553
-0.184003
-0.225536
0.459657
-0.21092
-0.249551
0.00907572
-0.00945038
0.00594716
-0.101321
-0.156282
-0.072059
-0.112793
0.0918376
0.228138
-0.0884475
-0.139661
-0.136077
0.13321
0.0700577
-0.0560559
-0.182951
0.374471
-0.140022
0.155645
-0.0155784
-0.398056
-0.106255
-0.493896
0.252339
0.00572962
-0.105086
-0.181097
-0.312973
0.160225
0.161175
-0.0100547
2.10155e-05
0.238756
0.28005
-0.519283
-0.0950849
0.204764
0.0309681
-0.214137
-0.0760723
-0.575523
0.057583
0.188616
-0.0716033
-0.116991
0.105523
0.208768
-0.36366
0.154618
-0.255635
0.558029
-0.034711
0.11828
0.149647
0.0043482
-0.00767761
-0.0233922
0.160582
0.00137175
-0.0322074
-0.145977
-0.130529
0.333209
0.122875
-0.456023
0.439317
-0.1435
-0.105778
0.230972
-0.108453
-0.122454
0.231985
-0.117968
0.00272259
8.60229e-05
-0.302412
0.180753
0.0345701
0.14643
-0.18099
-0.00824727
-0.109138
0.117391
0.0615189
-0.536394
0.393355
-0.19806
-0.195428
0.0603819
0.152362
-0.150715
0.0704718
0.0260131
-0.0259183
0.296043
0.129658
-0.425721
0.0305299
-0.0394759
0.295226
-0.105545
-0.00710782
0.012871
-0.165231
0.169631
0.177193
0.227293
-0.404493
0.238496
0.181525
-0.420366
0.104544
0.0978595
-0.202382
-0.101621
-0.0300227
-0.15398
0.274447
-0.12041
0.316076
-0.136787
-0.161264
0.135938
0.311742
-0.162096
-0.0344985
-0.0638565
0.0983552
-0.0212469
0.0127097
-0.0181965
0.00548681
0.536913
-0.258599
-0.277446
0.24356
-0.107872
-0.002611
0.0907672
0.266041
-0.0879356
0.0140039
0.460363
-0.245969
-0.21402
0.0517149
-0.104059
-0.0689666
0.335456
-0.264384
-0.0710478
0.130605
-0.0413972
-0.0325817
0.354473
-0.17371
-0.180576
-0.0918209
-0.0368671
0.128694
-0.229041
-0.175108
0.103815
0.0736514
-0.0546403
0.113421
-0.0864326
0.0683175
-0.0192969
-0.0490206
0.416505
0.121282
0.125758
0.104726
-0.230463
-0.043816
0.0720241
0.149986
-0.348561
-0.0785855
0.119355
0.196933
-0.134585
-0.159213
-0.143107
0.217033
0.238857