/*--------------------------------*- C++ -*----------------------------------*\
| =========                 |                                                 |
| \\      /  F ield         | OpenFOAM: The Open Source CFD Toolbox           |
|  \\    /   O peration     | Version:  v2012                                 |
|   \\  /    A nd           | Website:  www.openfoam.com                      |
|    \\/     M anipulation  |                                                 |
\*---------------------------------------------------------------------------*/
FoamFile
{
    version     2.0;
    format      ascii;
    class       volScalarField;
    location    "50";
    object      ddt0(omega);
}
// * * * * * * * * * * * * * * * * * * * * * * * * * * * * * * * * * * * * * //

dimensions      [0 0 -2 0 0 0 0];


internalField   nonuniform List<scalar> 
10042
(
8.95504e-06
2.34261e-05
6.05334e-05
2.86422e-05
-0.339866
1.77279e-05
-1.09934
1.12249
9.26229e-06
1.18789e-05
-0.66537
1.97583e-05
1.34285e-05
3.34003e-05
-2.41276e-05
-1.96359e-05
-1.60872e-05
6.17948e-06
6.43924e-06
0.000107405
-3.36538e-05
-0.000113816
2.66708e-05
4.60338e-05
2.54714e-05
0.000400442
-2.15994e-05
-4.52824e-06
-7.73539e-06
3.70812e-06
-2.39558e-06
-0.382096
2.52866e-05
1.13201e-05
0.000113661
4.91858e-05
0.000321923
0.000830777
7.21556e-06
-8.38634e-05
0.00094727
-1.6219e-05
-1.09133
1.25296e-05
-0.297219
0.00215781
1.0625e-05
0.00930639
0.000245888
0.0022629
-2.09216e-06
0.000145541
4.02639e-06
0.000214335
0.000332097
-3.81322e-07
-7.6503e-06
1.73973e-05
1.68359e-05
1.06496e-05
-4.74741e-06
-1.09764e-05
0.00011353
5.36239e-05
7.58018e-08
1.82572e-05
4.40088e-06
-0.000760095
-0.803154
-1.19432e-06
0.000205661
-0.00265395
1.38624e-05
-7.22106e-05
2.3099e-05
7.65116e-05
-0.413593
4.82244e-06
-6.15724e-05
-1.08794
0.000234648
-0.233631
1.4735e-05
-1.42499e-05
8.49291e-06
5.02414e-06
2.52931e-05
-0.00958054
2.28881e-05
1.28492e-05
2.9641e-05
-0.208553
-2.44172e-06
0.000120685
5.42669e-06
7.22163e-07
7.76265e-06
-2.01449e-06
-3.9009e-05
-2.56479e-06
-9.14809e-09
-0.0060466
-0.189054
1.98215e-05
-1.35525e-05
-0.000424437
2.69045e-05
9.988e-06
-2.80289e-05
1.21101e-05
6.24454e-06
-1.09413e-05
3.95717e-06
-1.04972
1.68621e-06
-4.92829e-06
1.59756e-06
4.81463e-06
2.80591e-07
-0.293201
2.73714e-05
0.950119
4.97437e-06
-2.565e-06
-0.00319357
9.70545e-06
1.21766
0.000184164
-0.00072705
1.9582e-06
-5.14676e-05
5.35345e-06
-0.556381
0.0226714
-3.50206e-07
-0.00103231
-0.442805
4.45398e-05
0.0105663
-0.0101226
3.47577e-06
4.23204e-06
4.25006e-06
-0.00775414
8.05192e-05
-6.20833e-06
-0.000736578
1.30755e-05
-9.00912e-06
-4.76899e-05
2.14024e-05
6.32138e-07
-0.678752
-0.443518
-4.89505e-05
2.60029e-05
4.48301e-06
-1.4867e-05
-0.000777406
0.209189
-1.07967
-0.00249438
4.29182e-06
2.10311e-05
2.59805e-05
7.53227e-06
-0.000992973
0.738326
-0.479932
-0.391687
0.000152139
3.99461e-05
-0.192549
0.0181282
-0.000214187
-0.882726
-4.84495
1.60127e-05
-0.0012013
0.000108663
3.34336e-06
-0.164221
1.67134e-05
0.000160925
-1.63702e-05
-0.127582
-0.0384992
1.36945e-05
-1.48694
9.91898e-05
-0.176302
8.7969e-06
-0.629178
-0.326281
0.00206348
-0.373096
0.000238101
2.33396e-05
2.59282e-05
2.06526e-05
-0.000193333
7.91969e-06
4.28308e-06
0.0285528
8.63355e-06
-6.40736e-06
-0.352318
-5.56237e-05
1.35998e-05
6.0036e-05
-0.192995
-9.36329e-06
-0.000774435
-0.00360517
5.27655e-06
-0.00763356
2.39409e-05
3.25199e-05
-0.00146663
1.00302e-05
1.46962e-05
2.5223e-06
-0.0102852
0.000891635
-1.99885e-05
0.000461493
2.17455
-1.16788e-05
-0.00635072
0.000246749
1.04264e-05
0.01091
4.02679e-05
0.000247838
7.70686e-05
-2.10824e-05
-1.80082e-05
1.66464e-05
0.000136061
0.000594262
-3.83746e-06
1.2998e-05
2.23738e-05
2.07005e-06
-2.12136e-05
5.71004e-06
3.01137e-05
-9.08417e-06
0.000186492
4.66373e-06
-1.286e-05
-2.55958e-06
-9.46673e-06
-0.250041
-0.00157873
-1.92237
-0.000240633
-0.00019182
-3.06357e-05
0.00243679
-0.825705
0.000124382
2.54766e-05
1.68864e-05
2.24565e-05
-1.20245e-05
0.707124
0.000217425
1.34642e-05
6.66414e-05
-0.000180798
0.000183631
-0.0106309
-0.000220228
-0.0149248
9.79866e-05
0.000588158
-3.40877e-06
0.000353663
8.54364e-05
3.27953e-05
2.01075e-05
0.000390582
-0.556176
8.49766e-06
3.7266e-05
-0.724699
0.00197589
2.78257e-05
8.97699e-06
-1.07928e-05
-0.8404
4.35188e-06
-0.00898045
2.64196e-06
2.18931e-05
-9.88463e-06
8.88396e-06
1.18761
5.61345e-06
-2.36988e-05
1.26167e-05
2.01279e-05
0.00101684
-6.5245e-05
-0.00141305
-1.20713
2.19493e-05
-0.833853
-3.52795e-05
0.000303005
-2.11562e-05
-0.68976
-0.00588359
-0.798896
-4.9691
5.36863e-05
0.000225317
-2.05706e-06
-1.25686e-05
0.000448942
2.80018e-06
-0.000106081
-1.28537e-06
2.7829e-05
1.20247e-05
-0.00163258
-1.42146e-05
0.000100753
1.4349e-05
-5.76519e-06
-2.19317
-2.0763e-05
-4.91371e-05
1.22763e-05
5.46238e-05
-0.000533096
0.00246182
-0.00017518
-0.129996
0.00101271
0.000121877
1.40404e-05
3.13832e-05
3.7554e-05
8.47144e-06
0.346943
1.58403e-05
1.55094e-05
0.0114635
5.35813e-06
-2.12731e-05
-1.74123e-05
0.0120153
6.62484e-05
-2.04689e-05
-0.000443283
-0.000119735
5.39188e-05
1.55591e-05
-0.485205
-0.000851702
8.83819e-05
-0.000510378
4.34315e-05
2.65315e-05
3.20359e-05
-2.40459e-05
-0.415005
0.000385011
1.24502e-05
-4.76836e-06
-3.36682e-09
-1.45137e-05
-0.00434177
1.82933e-05
-1.30346e-05
-0.418393
2.08762e-05
-0.550392
4.36273
-5.8594e-05
-0.754487
-2.37304
-5.74353e-05
-0.0210986
-3.98139e-05
0.00231544
-1.49175e-08
1.31686e-05
0.267707
8.0232e-07
-2.70796e-05
-0.328148
1.97367e-05
-5.87019e-05
-0.000385073
-0.108775
1.09535e-05
2.28346e-05
-0.39273
-0.00363345
5.51021e-05
-0.000721911
-2.25142
2.61773e-06
1.35911e-05
-2.95171e-07
-1.73654e-05
1.07056e-05
1.39738e-05
-0.693067
0.0915498
1.19422e-05
-0.895066
2.76246e-06
4.53193e-06
-0.0735698
8.60806e-05
-0.567262
-7.43154e-05
-1.70456e-05
3.08379e-05
3.11407e-05
-0.00710969
0.000170934
-5.85158e-05
1.64466e-06
-0.685096
6.20482e-06
-0.380485
-2.28631e-05
2.15072e-05
-5.19591e-06
0.26938
1.69032e-05
2.30655e-05
-2.89056e-06
4.93054e-05
0.271566
0.000191623
-1.27599e-05
1.5131e-05
-0.541495
-1.49149e-05
0.000192743
1.75268e-05
-1.26881e-05
-0.703239
-0.755861
-1.48395e-05
-1.40612e-06
0.000387617
-2.01941e-05
-2.77793e-05
-3.61271e-06
-0.538636
8.96802e-08
-9.16244e-06
-5.98174e-05
1.7049
-0.000487923
1.11759e-05
1.66165e-05
-1.57973
0.00122324
-5.10411e-06
1.58997e-05
0.00691089
8.39957e-05
5.65886e-06
-7.19955e-05
2.40905e-05
2.84134e-05
1.49296e-06
1.04766e-05
-0.000326507
2.7025e-05
1.74744e-05
-0.758578
3.13853e-05
0.000155403
1.47575e-05
1.41468e-05
2.79142e-05
-2.16967e-05
4.0702e-05
-1.24482
3.87435e-06
-1.16151
0.000119037
3.27096e-06
-1.79808e-06
-0.0122052
3.98634e-05
-2.33575e-06
-1.71218e-05
9.01757e-05
-5.69681e-05
-1.13925
1.53365e-06
0.000399683
-0.0912679
0.00122529
1.47501e-05
-5.39612e-06
9.72766e-05
3.73487e-06
-2.84532e-05
0.0555948
-0.491918
1.06899e-06
0.000175933
0.000702113
0.000604244
1.20684e-05
1.29293e-05
3.27272
-0.00589584
-0.185559
8.65539e-06
9.70234e-05
8.22656e-05
3.45116e-05
-0.894794
-6.22058e-05
9.13963e-05
-4.22064e-06
7.93396e-06
2.13449e-05
4.53083
0.000203595
2.49496e-06
-0.565757
-0.142847
-0.0659439
-0.000468074
-2.77612e-05
8.80037e-07
0.00279531
-0.000496227
-0.112664
-0.103963
-2.03297e-05
-2.36837e-05
1.4961e-05
9.53964e-05
1.02489e-05
1.93024e-05
-0.934568
3.33248e-05
-3.43888e-05
0.00218226
-9.8929e-06
0.687951
0.000103248
-0.00423692
-3.71168e-05
-6.86091e-06
0.000183327
0.000130419
0.00175586
-0.000504648
-0.00185724
3.4363e-05
0.00222014
5.28245e-05
2.12388e-06
2.07944e-05
4.37755e-05
-1.01152e-05
-2.09667e-05
-0.000446462
-0.00016137
1.21646e-05
1.12223e-05
-6.94515e-06
1.16615e-05
-0.024069
-1.33285e-05
1.90335e-06
0.0524587
1.88901e-06
-0.00042577
0.00460486
3.45159e-06
-0.113977
0.000739494
-2.62239e-05
0.00627123
6.79397e-05
1.5024e-05
7.57926e-06
-1.22056e-05
-8.09447e-09
9.31376e-05
1.87257e-05
-0.032457
-2.83414e-06
-1.19065e-05
1.08046e-05
8.51275e-05
0.000433225
-7.10084e-06
0.000264061
2.11561e-07
0.000801987
5.88984e-06
-6.46059e-05
-1.5805e-05
1.18926e-06
2.73987e-05
2.93385e-05
-1.37561
-1.95735e-06
0.00314394
-2.19202e-06
0.000121387
1.10063e-05
0.000596486
1.3792e-05
0.000689553
1.85906e-05
-0.0141785
-4.16438e-06
-1.03361
1.13372e-05
-2.88695e-05
-3.21649e-05
2.3634e-05
3.82641e-05
8.98363e-05
-7.30353e-06
-0.000265465
-0.947436
0.535262
0.00018152
-0.000186415
1.14203e-05
-0.000159425
0.00217377
7.01823e-06
-3.46049e-05
-0.00201042
-0.208197
0.00442493
-0.647392
0.00010699
-7.34645e-08
1.70648e-06
0.000313117
0.000101615
0.00148129
6.57963e-05
5.97512e-05
-0.0016332
1.11443e-06
4.62184e-06
0.000307749
-1.00722
-1.27464e-05
7.9957e-05
0.00277339
9.93303e-06
-1.05731
3.25672e-05
3.12238e-05
-4.37048e-06
2.58494e-05
-0.653471
0.0033214
-0.812822
-8.82496e-06
3.76091
0.554847
1.92914
0.00143765
0.00277617
-0.00519
-6.69329e-05
2.18016e-05
-1.36082e-05
-4.27738e-05
-0.804015
1.34003e-05
-0.000162746
-1.12723
3.22739e-05
2.67755e-05
4.00865e-06
-3.97514e-06
3.50638e-05
7.35776e-05
-0.00697132
-0.385999
6.48483e-05
3.14244e-05
-0.558995
-0.433126
9.09459e-06
-5.66668e-06
-1.97654e-07
-1.5829e-05
-0.100919
0.00330679
-0.0260457
-1.09754e-05
3.87197e-05
1.0799e-05
1.67262e-06
-3.99294e-06
0.000658756
-6.81653e-07
-1.24211
-5.1675e-06
3.19806e-05
-0.000258365
-1.14022e-05
0.00116022
-0.0008962
0.000154257
-1.46987
-0.60435
4.73845e-06
-2.89303e-05
-1.07392
-0.733017
-5.33008e-05
7.68774e-05
0.439226
-0.027884
-5.20685e-05
2.32927e-05
1.76473e-05
-2.81859e-05
-0.0065411
0.000172112
-0.005951
9.35283e-06
-2.0675
-0.295311
-1.07936e-05
1.21815e-05
-2.98839e-06
-5.27098e-05
1.17747e-05
-5.248e-06
-0.709051
-0.304291
-1.1499
0.000132875
0.00143225
-0.000242756
5.65963e-06
-5.38806e-06
-3.11935e-05
-0.0192612
8.95039e-06
-3.75206e-06
0.00132331
1.14348e-05
-0.00120515
-1.50152e-05
-5.79799e-05
9.9599e-07
1.27504e-05
0.0169947
-5.92281e-06
-2.00797e-06
0.000464233
-0.000778195
0.101262
-2.71743e-05
-0.0030757
-0.311965
-1.16924
-1.51059e-05
-0.581542
0.524572
3.43283e-05
1.11079e-05
-7.97094e-07
-1.54171e-05
-0.112492
2.24989e-05
7.18841e-06
1.4995e-05
-0.44961
-0.00014155
0.000127551
-1.13674e-05
-9.00208e-06
-0.000208631
3.17915e-05
3.3135e-05
0.00072999
4.85747e-06
-3.1036e-05
3.26605e-06
-0.128325
3.66999e-05
-5.32941e-06
8.77307e-07
1.2834e-05
-0.0150887
-1.584e-05
-9.08951e-06
-1.30336e-07
0.000200741
-0.0889914
-3.88134e-09
0.0811196
1.27167e-05
-0.19611
2.71612e-05
3.73986e-05
0.00072257
-0.00313413
-0.000372469
-2.20212e-06
-0.489962
-0.390819
-8.42152e-06
2.83832e-05
4.73748
-2.29238e-05
1.68023e-05
-9.6147e-07
1.12392e-05
4.22658e-06
-2.40811e-09
-6.84058e-09
-0.000854423
-2.93575e-05
4.59921e-05
-8.95861e-05
1.25309e-07
-1.01208
0.000138839
0.013597
-1.86081e-05
0.0021669
-0.000208825
-0.889278
0.000143123
-0.868183
2.26909e-06
0.000467315
-2.24584e-06
3.66175e-06
2.67505e-05
0.00730888
-0.000190257
0.00222169
-1.13833
4.57892e-06
-0.425305
0.000511461
-1.16795e-06
-5.98466e-05
0.000194444
-0.558046
4.95801e-06
-5.85181e-05
-0.000565287
2.31025e-05
-0.000178927
1.11437e-05
3.10465e-06
8.19288e-06
-0.0666162
5.08296e-05
8.07902e-06
-1.38074e-05
3.343e-05
3.54854e-05
1.84793e-06
3.23748e-05
-2.39346e-05
-7.10026e-05
7.12762e-06
1.67122e-05
-8.50684e-05
-3.29059e-07
-0.328822
-6.15952e-07
-4.31279
-0.000182936
0.109447
0.000175465
0.000450021
-0.5079
0.00036879
-0.0441057
-1.20545
-0.000193971
1.23936e-05
3.00441e-05
1.0964e-05
-0.0101537
-3.88193e-06
-0.509438
-2.48193e-06
3.18711
-1.05745
0.0025675
0.000102969
-0.25265
-1.77192
3.64881e-06
-1.05704e-05
-4.72483e-05
0.000261552
-7.56095e-07
-1.17363e-06
-0.000718455
0.217533
-4.92071e-06
-1.92363e-06
7.48695e-06
-0.159321
0.00304844
1.15823e-05
2.97654e-05
-0.00159186
1.11824e-06
5.99016e-06
-0.523876
3.51825e-06
1.17001e-05
-0.392617
-1.51599e-05
2.08729e-05
-0.20948
-0.691808
0.149798
2.2994e-05
6.72753e-07
0.366875
-9.67975e-07
-5.66362e-06
-1.63052e-05
0.000861549
-3.08989e-05
-2.02176e-05
0.000284094
-0.000264974
-0.0210591
1.7258e-05
1.68059e-05
-1.43682e-05
-9.45437e-06
3.87726e-06
-1.1359e-05
-0.00378751
-4.7259e-05
1.95393e-06
-2.58704e-05
-8.37237e-07
-1.55895e-05
2.84508e-05
-0.677617
0.000413038
2.02253e-05
2.115e-05
-0.000187216
-0.704028
-7.75772e-06
-1.58115e-05
8.83406e-07
3.17449e-05
-0.502771
0.0022359
4.97925e-05
-9.29795e-06
0.000187869
-0.00262149
5.91732e-06
1.24785e-05
-1.96394e-05
5.25307e-06
0.000364865
1.05207e-05
-0.853063
-9.7783e-05
6.88378e-06
7.32503e-05
-0.145336
-5.25516e-05
0.0350162
2.04925e-05
1.39454
4.12052e-06
0.000105854
0.000182919
0.00314845
3.96503e-05
5.15569e-05
-3.91284e-05
0.000121764
0.00666478
-0.00511198
3.7786
8.5711e-05
-1.00036e-05
-2.25134e-05
9.14873e-06
1.90342e-05
-0.897072
5.82736e-06
2.22885e-05
-6.05439e-06
-0.0504126
0.244252
-7.36323e-06
2.55895e-05
0.00156487
1.63263e-05
-3.22255e-05
-1.0136e-05
0.00215327
8.362e-05
0.000367244
0.16136
6.26272e-06
-4.03992e-05
-0.295951
3.44797e-05
-0.00907676
-3.63358e-06
5.84612e-05
-0.000177618
2.36552e-05
1.27506e-05
0.000112506
0.000114189
-0.413808
2.32549e-05
2.16622e-05
-0.0255073
-2.32192e-05
1.691
-0.926315
-0.000211628
7.63405e-06
-0.0452731
3.52527e-05
-0.55351
-5.65539e-05
2.65767e-05
-4.49388e-06
-0.576241
9.22718e-06
9.61847e-06
5.90643e-06
0.00060581
-0.208399
-2.24538e-05
-9.81424e-05
5.59454e-06
1.13375e-05
0.000157003
1.16387e-05
1.19862e-05
8.28999e-05
4.37975e-06
-0.880708
-0.546586
6.61243e-05
-5.28072e-06
-2.60238e-05
2.21832
1.54779e-05
1.07447
-3.46117e-06
2.62787e-05
5.64857e-05
2.72726e-05
0.000126327
-9.92126e-06
-3.1108e-05
1.18422e-05
0.893844
0.00549439
-1.6166e-06
0.000151278
0.00022592
-0.000488001
3.92771e-05
3.85241e-05
3.66937e-05
1.25202e-05
-1.32105e-06
0.00083438
-7.9628e-06
-3.17265e-06
-5.85581e-05
-1.84159e-06
-0.012372
3.8916e-05
-0.00618422
-2.14609e-06
-5.76537e-06
6.03836e-05
0.00389308
-0.000535554
-1.01833e-05
0.000152371
0.00133048
4.73127e-06
5.42513e-06
5.19497e-05
1.50148e-06
-0.703185
-0.00323443
-2.66912e-05
-0.751525
-1.3801e-05
0.000718884
-0.00223237
-0.000238769
0.00115404
-0.456494
0.000863028
0.0104312
1.64167e-06
7.70533e-05
4.73243e-06
5.67468e-06
0.000209311
1.66751e-05
-0.011974
-2.1914e-06
2.36893e-05
-0.00215112
1.20075e-05
0.00175822
0.000521565
-5.73067e-05
-1.59259e-06
-0.000291786
0.0323316
3.21831e-05
0.000526653
-0.455996
-0.000198003
1.00279e-05
0.000867648
-1.35272e-05
2.53537e-06
-0.342863
1.49014e-05
2.67461e-05
0.000326809
2.7432e-06
0.000464239
1.01835e-05
-7.03473e-06
-0.947449
-5.34601e-06
1.68754e-05
5.72282e-05
1.63707e-05
4.3913e-06
-3.89867e-07
-0.384905
1.29937e-05
3.2765e-05
1.66679e-05
0.00403317
-5.88146e-06
1.38381e-05
-7.01693e-06
9.49052e-05
-9.70535e-06
3.65642e-05
1.65879e-05
-4.22262e-05
4.58686e-05
-0.00412724
-0.000169852
1.77703e-05
-1.62284e-05
-0.000298956
0.00103741
-3.71849e-05
-3.17021e-05
-9.77786e-06
-1.20536
-1.77691e-06
3.15178e-05
-2.14118e-05
2.19477e-06
-0.000232528
-5.23735e-06
-0.611122
-0.568159
-0.340943
9.91758e-06
5.20756e-05
-1.42981e-05
3.1631e-05
-0.00168701
-0.000925915
-0.00947216
0.00315712
-0.627629
0.000906786
0.0398789
-0.053577
-8.31067e-05
0.000125713
2.642e-08
8.63944e-07
-0.492484
3.63451e-05
-6.07898e-05
1.87859e-05
-3.429e-05
-3.87643e-05
-1.00978
-0.633124
-1.23696e-05
-0.481099
-0.094638
0.0362246
0.000176204
-0.00103718
2.40867e-05
-0.607799
4.91717e-06
-0.937696
-0.602821
-1.02218e-05
1.35266e-05
7.11948e-06
-1.84189e-05
0.000311935
0.000220291
0.0219519
-3.22935e-07
-2.85053e-05
6.23607e-05
5.34874e-05
-1.01104e-05
-8.38572e-05
1.61245e-05
8.97072e-06
0.100764
-0.000930397
1.99984e-05
-1.17693
0.00015216
-2.08286e-05
-5.79298e-06
-0.015448
3.37414e-06
-3.65657e-06
-0.00228503
-0.0146128
9.36533e-06
3.03878e-05
0.24941
5.0517e-05
-0.657973
1.58222e-05
0.038157
-0.601682
-0.871748
-1.94046e-05
2.01948e-05
0.00254486
-5.13394e-05
-0.00015243
1.33472e-05
-0.805851
0.000285014
0.00136223
5.64532e-06
-1.81809e-05
-0.497122
0.0675081
-6.08237e-06
-1.31303e-05
-0.387763
2.23854e-06
1.2194e-05
5.24093e-05
0.000117765
-2.28674e-05
-7.23297e-05
1.82123e-05
0.000186067
-5.326e-07
0.000608404
-1.41524
-0.00149086
0.000167335
-3.8289
-0.00165094
4.28504e-06
1.88942e-06
-5.8694e-07
-6.23515e-07
-0.00652026
-7.39308e-05
9.22491e-05
5.48729e-06
-1.15474e-05
-2.48227e-05
-0.000114774
3.10413e-05
-0.000462357
0.000215251
1.83502e-07
-0.760348
-1.24013
-3.02614e-06
-1.28802
-0.000140107
1.92131e-05
-4.42568e-05
-2.61449e-05
0.589984
-0.00125864
3.05012e-05
2.47647e-07
-1.33616e-05
0.000106988
7.91157e-06
0.0270785
-3.74656e-05
8.31108e-06
2.43548e-05
-0.151552
-0.391282
3.65706e-05
1.73313e-05
-0.00820465
-0.00538314
-1.28038e-05
-1.00332
-0.88659
3.93804e-05
9.36011e-06
6.32979e-06
-4.9986e-06
-0.109726
-3.75577e-05
1.01119e-05
-0.0145286
-0.00332256
-7.07271e-07
3.30859e-06
-0.0005799
1.4903e-05
1.49736e-05
-0.00695709
0.00121607
-0.437087
-8.83226e-06
0.00455189
-0.000319549
0.00165458
-6.11856e-06
2.9197e-05
-1.76692e-06
-1.82766e-05
-0.00399181
-7.29517e-05
9.03193e-06
-1.98155e-07
-0.600616
4.80297e-05
-1.51198e-05
5.06223e-05
-0.00214365
2.60107e-05
3.40622e-05
2.93486e-05
-2.54374e-06
-0.144331
-0.978304
1.28479e-05
-0.626832
-0.911786
-0.560286
1.05698e-06
1.65893e-05
5.42049e-05
7.91218e-06
-5.95479e-05
4.41138e-06
6.08403e-05
3.35418e-05
1.92312e-05
-1.68352e-05
-3.65087
-0.000204878
0.59705
0.000605573
2.41731e-05
-1.00952e-05
-7.03134e-05
1.26981e-05
-4.1354e-05
-0.000764011
-3.83997e-05
-0.0995537
0.000722896
6.15159e-05
-0.438328
1.27902e-05
2.44518e-05
-5.71805e-06
-0.160824
0.000447485
2.32732e-06
-4.62802e-06
-2.15029e-05
-7.84488e-06
-0.000101845
0.000842303
0.000759714
-1.0416
-7.20619e-06
-2.17297e-05
-0.0507128
-7.78092e-05
-4.46085e-05
0.00188178
9.94253e-05
-0.00152558
-0.0191288
-0.00133017
-0.625614
6.73231e-06
4.11285e-05
1.73908e-05
-8.16219e-06
-3.18392e-05
3.70504e-05
0.000477887
0.00240381
0.948568
-1.25923e-05
-1.31981
-0.530941
0.000395926
-0.0867587
4.39176e-06
-0.00313066
0.257565
2.56261e-05
0.000762483
1.92021e-05
-0.265864
-1.83508e-05
0.0477817
-2.73879e-05
2.23411
0.00142825
-1.05643
1.48674e-05
0.0204155
1.01361e-05
0.000105401
0.964929
1.7619e-05
-0.624888
-0.890384
1.27711
-0.570336
0.003392
-0.54032
-0.000171042
-7.55952e-07
-0.000851532
0.000132348
-0.689294
-6.38092e-06
-2.16331e-05
4.961e-05
-0.000413871
8.65467e-06
1.11172e-05
9.9462e-06
0.973607
-0.242823
2.5755e-05
-0.649179
-0.00103877
4.30573e-05
-0.000266639
-3.56669e-05
-0.271166
-9.3625e-06
1.05107e-05
-0.341636
-1.69191e-05
2.01343e-05
2.44487e-05
-0.00742831
0.000315531
1.03514e-05
-7.01166e-05
-3.24908e-05
1.97738e-05
2.71127e-05
0.0579278
3.45237e-05
-2.12562e-05
1.58972
-0.0263278
0.000130275
-1.67972e-06
-0.0515502
-5.11867e-05
-4.08522e-06
8.01105e-07
-0.000597396
9.80144e-05
0.000512403
-2.52799e-05
-0.900199
0.000422629
0.000550052
5.99299e-05
0.001141
0.00200763
0.000567184
1.05856e-05
-1.4499
8.91922e-07
0.0274612
-2.08896e-05
-6.31443e-05
0.00112366
0.0118722
0.000115775
0.000154235
-1.5214e-06
-0.00043545
0.00105624
0.00655816
-7.00131e-05
-6.31067e-09
-1.19992e-05
-2.59891e-05
0.00658662
1.4762e-05
0.000607014
8.44073e-06
-9.59336e-06
-0.906678
1.17067e-05
-0.275962
1.12693e-05
-3.86373e-05
0.00352543
8.7217e-06
0.000432963
0.0106742
-0.00310374
-1.10921e-05
0.00588346
8.62924e-05
-3.54085e-05
2.30634e-05
-0.467556
-0.571011
1.54066e-05
-2.25503e-06
1.61008e-05
8.08797e-06
0.00109319
-0.818478
-4.8526e-06
-0.130924
-1.26541e-05
2.20586e-05
1.38082e-05
1.83123
1.8184e-05
1.24466e-05
1.30313e-05
-7.53104e-07
2.30064e-05
2.01033e-06
8.03242e-06
0.000172467
-1.39961
1.88433e-05
3.74249e-06
-0.000194352
-0.00142424
5.01862e-05
-0.943348
-0.000458071
7.65542e-06
5.76149e-07
0.000111601
0.00825084
1.38695e-05
0.00547117
-8.72211e-06
0.000297778
-5.70098e-06
0.000235071
-3.48109e-05
-0.00438636
-0.00012105
1.18575e-05
-0.00399489
1.85872
2.14636e-05
-1.00781e-05
-0.646368
-0.00282879
0.00170187
0.000384845
0.0053498
2.43933e-05
-0.899746
0.00341719
4.07009e-05
0.0353307
-0.642785
-1.76868e-05
-0.000228471
0.000155017
2.41161e-05
-0.979619
1.29459e-05
0.000308634
4.85731e-05
2.60136e-06
-1.01963e-05
-0.000673111
-1.97494e-05
-1.57996e-05
1.42587e-05
-7.22505
1.02913e-06
8.74238e-06
1.92535e-05
-1.36951e-05
-5.74954e-06
-4.01077e-05
0.00177952
-0.000263667
0.000185897
-3.51236e-05
0.572373
1.26353e-05
1.8349e-05
2.14742e-05
2.6317e-05
1.444e-05
5.26507e-06
0.00040637
0.00378348
-8.13655e-07
0.000240423
-0.000451013
1.41432e-05
-6.19972e-05
-0.315686
4.54516e-05
4.612e-06
2.40776e-05
-0.00126041
-2.21446e-05
-7.32431e-06
1.58449e-05
-7.32979e-06
-0.67376
0.139049
6.85384e-06
-2.0734e-05
3.16639e-05
-0.00102701
1.13145e-05
4.52561e-06
-6.33086e-05
-0.00183124
1.22188e-05
-2.34654e-05
2.02793e-05
-0.00565197
0.0336934
0.000122004
-0.00597964
-2.20815e-05
-1.01954
-6.30818e-05
6.83433e-06
-0.967164
-0.00226444
2.17339e-05
0.0416634
-0.00284989
-0.113548
-0.000465063
-0.169113
0.000184651
0.000370941
-0.392538
-4.96558e-05
0.0592019
0.000874713
-0.00960791
-1.47544
-6.47217e-09
1.62459e-05
2.80576e-05
-0.0312294
4.66251e-05
-0.0144273
0.000852631
1.27986
9.34575e-07
-0.00210138
-0.0126377
1.00889e-05
1.90873e-05
-0.00114979
-2.89683e-05
-1.45162e-05
0.000502686
-0.00151742
5.99051e-05
-0.00199785
0.00866343
0.660898
-0.00760606
1.93858e-05
-2.43812e-06
-0.95609
-0.00124865
1.12097e-05
-0.000351345
-0.22421
2.27555e-05
0.000221598
2.5358e-05
1.86765e-05
2.99288e-05
1.68577e-05
-0.00018358
1.09168e-05
3.63563e-05
-0.607404
-0.274269
-4.22418e-05
-3.83962e-05
0.000297646
-0.0152088
0.000214579
5.95057e-05
1.66702e-05
-0.0033682
-1.21974
5.64948e-07
-6.82701e-05
1.78478e-05
-1.07853
-3.27251e-05
1.3151e-06
3.95212
2.24135
3.65717e-05
-0.00412227
-0.00406403
0.000131383
-3.74531e-05
2.91325e-06
-0.919337
-1.57305e-05
0.00042833
9.45446e-06
0.000533453
5.6857e-07
1.58995e-05
2.28572e-05
-0.000929345
-1.37765e-05
-1.96172e-05
-3.00527e-06
8.40968e-05
-3.30661e-05
2.83418e-05
-0.00228765
-0.509856
-0.251006
0.000168356
-8.25006e-06
-7.66052e-05
0.000120741
-0.261925
-2.22853e-05
0.00357989
2.99359e-05
2.5144e-06
7.56467e-05
8.79401e-05
-0.756434
-4.57914e-06
-0.815884
3.86763e-05
-2.27838e-05
3.619e-05
-1.26089
1.30687e-05
-0.000197002
-0.424712
-2.95176e-05
1.17256e-05
-0.648801
5.90084e-06
-0.404925
-2.30364e-05
0.000529532
-4.33322
0.000121298
3.31296e-05
-9.93392e-06
0.534413
0.000321614
-3.23438e-05
-0.04287
1.15508e-05
0.000104598
-0.00218097
0.782916
0.012084
-0.81024
-0.414173
-0.00142584
1.936e-06
-0.0189765
-0.0037535
3.23505e-05
5.33552e-06
9.64054e-06
0.000582313
-0.000871763
2.43196e-05
-4.28701e-05
3.58341e-05
1.88059e-05
-0.209754
5.3704e-06
0.251419
1.32416e-05
0.00113231
0.00333282
-1.95059e-05
-2.21679e-05
-0.91094
-0.611675
-0.00136911
2.12438e-05
2.04123e-05
0.00255485
2.89254e-07
0.000737206
-0.00331613
0.000609427
1.30555e-05
-0.116262
0.476425
-3.56874e-05
2.72008e-05
7.93545e-06
-1.9969e-06
0.00015324
0.000652825
-0.96713
1.95634e-05
-1.0182e-05
0.00200839
1.25243
1.70496e-05
0.830022
4.40029e-05
-0.00273966
0.000260231
-1.16366
0.00388677
-0.00064173
-0.000544333
3.64533e-05
-4.32387e-05
-0.0142742
-1.68557e-06
3.29249e-05
-0.328081
-2.78051e-05
6.82961e-06
3.80985e-06
8.30363e-05
-0.0182211
-0.0691716
-0.00597516
0.000421915
-3.05083e-05
8.36062e-05
0.351345
0.0196544
1.15801e-05
-6.01332e-06
-3.65468e-06
0.00782304
-0.879815
-0.00010747
-0.760279
-2.94555e-06
1.26933e-06
-0.538619
4.50399e-06
-0.915057
-0.583657
5.39807e-05
-2.40575e-05
0.385407
-1.27744e-05
-0.000253826
1.88821e-05
-0.589454
0.000348432
-0.0154557
-0.493276
-0.51263
0.000443817
0.000753986
-1.38343e-05
-0.0126689
0.242176
0.000182795
0.00015045
-0.496114
-0.000471638
-0.00110056
1.27896e-06
0.241401
-0.432457
-0.0025785
1.4132e-05
0.000330684
3.0433e-05
-1.28349
0.000187294
0.000183355
-0.77556
-0.922939
4.62917e-05
-0.00753892
-1.95537e-06
-0.308189
-0.00227829
0.000572427
0.00037673
-0.249099
5.79363e-05
0.00330818
-0.591802
-0.448795
1.49325e-05
1.79213e-05
-3.36064e-06
-0.00232482
-0.604681
-0.0143704
-0.905121
0.00872614
-8.857e-05
3.57982e-05
-0.908486
0.00133692
-0.000117895
-0.0068684
-0.227059
-0.430631
-0.381555
0.243493
-1.80685
-0.265453
7.05609e-06
-6.01152e-05
0.000150827
8.16553e-05
0.429586
-0.20981
1.53239e-05
-1.22372
4.81098e-06
-6.54343e-06
1.9148e-05
0.000195183
-3.93019e-06
-1.13584
-0.000534146
0.126273
4.01161e-05
-0.0697637
-0.000479672
0.87365
-0.433797
0.000145793
0.000355466
-0.000366632
-0.000940357
9.67997e-07
2.03153e-05
3.8556e-05
-0.840349
1.88817e-06
-7.60581e-06
0.0538832
0.000162754
1.12566
-1.03596e-05
-0.402804
-1.57331e-06
-1.39033e-05
5.92078e-08
6.04995e-06
0.000575918
3.62939e-05
-0.16342
-0.000100554
0.00140185
-0.915955
1.29904e-05
-0.828179
1.82313e-05
-0.9685
2.88789
-0.566136
0.000579452
-1.42193e-06
2.1385e-06
-1.17899
9.73866e-05
0.000434941
-3.45188e-06
0.000612404
-0.677562
-2.97989e-06
1.91805e-05
2.1228e-05
1.2131e-05
-0.532233
-0.616456
-5.16284e-06
-1.12939e-05
-1.13286
-0.791773
-3.30673e-05
-0.967994
-2.39382e-05
-0.863325
-0.862699
0.00381593
-0.0172769
-0.00104232
-0.00156348
-0.556982
0.00597466
1.85512e-05
4.7388e-05
-9.41931e-07
-0.974511
-0.816098
2.34913e-05
-5.52745e-05
-0.558283
-3.45018e-05
-0.600825
3.43807e-05
6.69852e-05
-1.38491e-05
-0.369596
0.00492068
1.36419e-05
-0.608337
1.58399e-06
-1.01641
-1.01268
1.43312e-05
-2.56341e-05
-0.001239
-4.46353e-06
1.23403e-06
3.05475e-06
-0.519309
-0.000126749
6.38132e-06
2.22112e-05
-0.486412
1.64526e-05
-0.000166014
2.67648e-05
-0.441347
2.41234e-05
-0.00370501
1.60928e-05
-0.514985
-1.19022
3.17711e-07
0.00651857
0.00033027
7.62425e-06
-0.00238134
-0.569577
1.76016e-05
0.000540521
-1.42356e-05
-0.0930598
-2.11791e-05
-0.663757
-0.45586
-0.00291484
-0.592641
-0.575061
-0.000198726
0.000126767
-0.604474
-1.38068e-05
0.211637
-2.41466e-05
-0.401866
-4.83604e-06
-5.86981e-05
-0.000751158
-8.83832e-05
1.75561e-05
1.21335e-05
-1.05569e-05
-0.207045
-0.00118831
-0.614702
-0.273818
-4.99436e-05
-2.50169e-05
-0.000824849
-0.3228
-0.000110284
-2.16318e-06
-1.84018e-05
-0.349342
-0.354716
-0.347949
-0.654963
9.93552e-05
1.2198e-05
-1.0608e-05
0.00031787
-0.000618303
-0.0624358
2.35161e-05
8.55493e-06
-0.903731
-0.00114607
4.70698e-06
0.00252025
-0.191562
-0.00134513
2.27317e-05
-0.000552706
-0.0837937
-0.415999
-1.16932
-0.0566328
1.2854e-05
9.92603e-06
-1.56861e-05
2.47331e-06
2.13806e-05
1.09403e-05
-0.000269456
-0.00711056
0.000138754
0.000556987
-5.00163e-05
9.2629e-06
-4.24606e-05
0.000127637
-0.000524142
-0.00014048
1.48945e-05
-1.09878e-05
2.4023e-05
1.17253e-05
3.13618e-06
-3.3274e-05
-0.0436975
9.64335e-06
-0.00153825
-0.33819
0.596417
-0.179341
-1.79627
7.85488e-05
-8.77365e-07
1.46709e-05
-1.02049
6.34761e-05
-1.47081e-06
2.85792e-05
-1.20613
-9.67554e-05
0.000192643
0.376067
-5.15614e-06
1.86559e-06
2.18925e-05
1.49907e-05
-0.000547078
-1.31349e-05
-0.000253126
-7.4412e-06
2.3354e-06
7.24799e-06
-1.90443e-05
0.000372333
0.300396
0.000662423
-0.00462707
-0.00085088
0.00673671
-0.000260478
-0.00156466
6.72745e-05
-0.62822
-2.12915e-05
-5.35225e-05
6.43722e-06
0.000118418
-0.00490666
2.80823e-08
-0.00147397
-0.555882
-3.38177e-06
0.0545604
-0.00658645
-0.000812381
-0.00185693
-0.00124332
1.27844e-05
-5.70736e-05
1.07591e-05
-0.00479085
-0.00116446
-0.947794
9.15193e-07
-0.000585686
-4.21697e-05
-0.114656
3.10367
0.000119119
3.0714e-06
-0.000627816
-1.84249e-05
0.000172555
1.19119e-05
-0.697806
-1.78042e-06
-2.50841e-05
-5.5613e-06
-0.000541654
0.0126213
-1.4213e-05
-0.588689
1.53142e-06
0.00100155
-0.00122039
2.50151e-05
-0.720219
-1.00894
0.00284239
0.00269648
-0.000146754
2.1316e-05
3.23828e-06
-0.683562
-0.00913203
1.31947e-05
9.74605e-05
-1.36701e-05
4.07861e-05
-0.0511576
-9.03938e-07
-1.00529
-0.0113222
0.000414552
-0.000272511
1.4702e-05
5.12092e-06
2.75296e-05
-0.0112706
-0.00167805
-2.44521e-05
-0.579052
8.44692e-06
-7.11479e-06
-4.86096e-05
-1.40351
5.92013e-05
2.36281
1.9055e-07
-0.818811
2.59161e-05
-1.00962e-05
-0.000119452
6.10852e-07
6.7716e-06
-0.00484797
2.39625e-05
3.90849e-06
-4.88415e-06
-0.000395227
-1.11889e-05
-0.0416948
-2.72284e-06
1.788e-05
-1.96652e-05
0.00211296
5.03321e-05
-4.61982e-05
0.000567183
-1.16577
-0.74713
-0.330221
0.0241121
-0.0308317
-0.000135876
-0.00107412
-3.54627e-05
-4.23482e-05
-2.55768e-05
-0.745158
-0.000836585
-2.61101e-06
3.39501e-05
5.52709e-06
0.000351729
-0.00219827
1.2105e-05
-6.03794e-05
-0.000919581
0.0397862
-0.00479931
1.97317e-06
2.16531e-06
-0.377887
0.000181235
5.42503e-05
-0.654676
-1.16607
-1.81339e-05
-4.69436e-05
-9.00263e-05
8.01099e-06
-0.000155667
-1.0715e-05
2.01316
-3.68594e-06
-0.0373917
1.06964e-05
-0.320298
2.74185e-05
7.10906e-06
0.00326366
1.07792e-05
8.139e-05
-2.24221e-06
6.55759e-05
-0.0600311
-2.04903e-06
0.000827716
1.41183e-05
4.72479e-06
0.00153429
2.46027e-05
-1.14468e-05
2.81825e-05
2.17973e-05
-4.52576e-08
6.04055e-05
7.2222e-07
-0.641938
2.66395e-05
1.10449e-06
-0.00104208
-5.08029e-06
1.18877e-05
1.02224e-05
1.66288e-05
-1.28746
0.102643
8.50632e-06
0.000154156
7.04065e-05
1.92647e-06
-0.0159738
-1.0852e-05
-1.13918e-05
-0.0516877
1.44903e-05
8.86725e-05
0.00277366
-0.000328146
4.96984e-05
0.0208405
2.95236e-06
0.757631
-0.000766356
6.00069e-05
-1.01238
0.0323999
-5.12477e-05
-0.00426987
6.52932e-06
2.18093e-05
-0.000445179
-0.0193089
1.47462e-06
2.83347e-06
2.81927e-05
-0.000140349
2.9466e-05
-0.000348681
-2.21857e-05
-0.000264699
0.818931
-0.000317627
0.0122931
9.85762e-07
0.000460839
5.41434e-05
-3.37891e-05
4.18705e-05
1.22709e-05
9.04165e-06
1.30531e-05
-0.00133343
1.1882e-06
0.00864788
5.53787e-05
-0.808819
7.1052e-06
-7.26001e-07
-0.00249425
-2.35647e-05
-0.00553297
0.00697505
-0.000182789
6.75556e-05
9.24035e-06
7.59628e-05
-0.000161779
1.93617e-05
-0.0004685
0.000297894
1.51984e-05
-1.45927e-05
-7.10018e-05
-1.3354
-3.39043e-05
-0.000706792
-0.887797
2.28573
-6.70903e-06
1.95476e-05
-0.881002
-3.24237e-06
0.000128537
6.72714e-06
0.00608706
1.02414e-05
0.000211963
-6.36853e-05
-1.60633e-06
2.68526e-05
-1.05403e-05
1.20179e-05
0.000612977
-7.50757e-06
2.87261e-05
1.64734e-06
-8.20028e-05
-0.450372
1.70742e-05
0.378264
-0.00108775
-8.5143e-06
-1.43203
1.82358
3.20119e-05
0.000119765
0.0068648
-3.45565e-06
2.07057e-05
-0.605403
-1.49837e-05
-0.471078
-3.3287e-05