/*--------------------------------*- C++ -*----------------------------------*\
| =========                 |                                                 |
| \\      /  F ield         | OpenFOAM: The Open Source CFD Toolbox           |
|  \\    /   O peration     | Version:  v2012                                 |
|   \\  /    A nd           | Website:  www.openfoam.com                      |
|    \\/     M anipulation  |                                                 |
\*---------------------------------------------------------------------------*/
FoamFile
{
    version     2.0;
    format      ascii;
    class       volVectorField;
    location    "50";
    object      U_0;
}
// * * * * * * * * * * * * * * * * * * * * * * * * * * * * * * * * * * * * * //

dimensions      [0 1 -1 0 0 0 0];


internalField   nonuniform List<vector> 
10042
(
(0.996407 0.0133226 7.16309e-21)
(0.998373 0.00571373 0)
(1.03908 0.014757 3.66158e-22)
(1.00914 3.68868e-05 -4.37141e-21)
(0.392631 0.0659942 -1.35874e-19)
(0.999021 0.00506993 -2.93602e-21)
(0.438804 0.021135 -5.22499e-20)
(1.14765 0.0107609 6.78711e-20)
(1.03177 0.014272 -1.51407e-22)
(1.00173 0.00572026 -2.45742e-21)
(-0.246255 -0.0426477 -4.27795e-20)
(1.01396 3.74527e-05 2.06972e-21)
(1.01611 0.00211979 -5.46751e-21)
(1.01622 0.000820988 -1.62334e-23)
(0.957847 0.0531732 -5.29621e-21)
(0.999496 0.00680822 6.85699e-21)
(0.999466 0.00726136 -1.2855e-20)
(1.00002 0.000290455 0)
(0.996548 0.0129407 2.29224e-20)
(0.669336 0.268526 2.74716e-20)
(1.00458 0.00630667 7.04009e-21)
(1.28804 -0.0564914 -3.49605e-20)
(1.01516 0.00043498 -3.77646e-21)
(1.01483 0.00430434 -1.99428e-21)
(0.998447 0.00529816 4.78062e-23)
(1.10522 0.0253473 1.54578e-20)
(0.998787 0.00113835 9.94107e-21)
(0.993714 0.0562167 2.04605e-20)
(1.02246 0.0227196 -1.33125e-21)
(1.00198 0.0502504 6.65844e-21)
(0.996568 0.0047742 -8.94218e-21)
(-0.137473 -0.00396072 8.9193e-20)
(1.00165 0.00535086 0)
(1.02065 0.0461686 3.57065e-21)
(1.07323 0.0635112 8.21084e-21)
(1.01446 0.00444808 -2.11006e-21)
(1.10019 0.029311 -1.25081e-20)
(1.11932 -0.00291437 -6.08202e-21)
(1.01414 0.00415121 5.79462e-21)
(1.00012 0.125316 5.23436e-21)
(0.641524 0.260792 -1.16055e-19)
(0.966583 0.0531037 -1.91046e-20)
(0.415358 0.0212577 3.48376e-22)
(0.992534 0.0325397 -1.81151e-20)
(0.401118 0.0675073 4.40008e-20)
(1.17826 -0.0097753 -4.43297e-20)
(0.975714 0.0362501 0)
(1.20213 -0.0744173 -2.28247e-20)
(1.09094 0.0425027 1.20811e-20)
(1.12726 -0.066964 -3.07104e-20)
(1.00037 0.000458547 9.88623e-21)
(1.04142 -0.0117355 -6.14549e-21)
(0.957661 0.0412853 0)
(1.05182 -0.01281 0)
(1.0996 0.032463 0)
(0.999041 0.00537456 -1.75405e-21)
(1.02339 0.0227696 6.68313e-21)
(0.976387 0.03498 2.29761e-20)
(1.02146 0.0447177 2.69269e-21)
(0.960029 0.041601 -2.0444e-20)
(0.997511 0.0049065 1.50501e-20)
(0.996998 0.00730754 1.32218e-20)
(1.07398 0.0671244 -8.3269e-21)
(1.03802 0.0150873 0)
(0.965347 0.0157543 -2.83722e-20)
(1.02456 0.0440066 0)
(0.973598 0.0120363 -1.07613e-20)
(0.722689 0.184967 -6.80266e-20)
(-0.199089 0.015255 -2.47187e-20)
(1.00081 0.0275224 0)
(1.05047 -0.0138422 -5.47129e-21)
(0.624753 0.270588 5.98646e-20)
(0.991209 0.0322853 6.32935e-21)
(0.860113 0.0627616 8.246e-20)
(0.974703 0.00869189 -2.82569e-20)
(1.01516 0.00455848 7.63628e-23)
(0.301505 0.0439309 1.11702e-19)
(0.996385 0.0121105 -1.21559e-20)
(0.897486 0.0867054 0)
(0.322769 0.0457409 2.5999e-22)
(1.0878 0.0412298 -6.5603e-21)
(0.552155 0.100401 -9.69203e-22)
(1.00759 0.0368828 2.21378e-21)
(0.969697 0.046329 -4.05502e-21)
(0.973402 0.0109399 -4.44162e-21)
(1.00002 0.00113853 0)
(0.997062 0.0149358 -7.84719e-21)
(1.13744 0.293631 -1.80695e-20)
(0.985915 0.0212344 1.61321e-20)
(0.997492 0.0149986 5.84814e-21)
(1.03547 0.0343307 -1.25938e-21)
(0.573776 0.105944 -8.86198e-20)
(0.994651 0.0583767 0)
(1.0407 -0.010571 1.80358e-21)
(1.00086 0.0485485 0)
(1.0165 0.0300044 0)
(0.999534 0.0115266 0)
(1.01049 0.0287854 0)
(1.00047 0.121302 -1.73927e-21)
(1.02807 0.0205735 0)
(0.999995 5.6432e-05 1.24529e-20)
(1.15928 0.232993 0)
(1.05515 -0.00288456 -4.20225e-21)
(1.00003 0.00127382 5.05438e-22)
(0.987467 0.0513509 0)
(1.03168 0.217453 -2.40196e-22)
(0.993914 0.0124497 -8.51423e-21)
(0.999626 0.0119172 -4.36629e-21)
(1.0044 0.00596063 -6.84874e-21)
(1.02198 -1.01903e-05 0)
(1.01054 0.00122357 7.95436e-21)
(1.00485 0.0219793 5.37058e-21)
(1.03829 0.0870748 -1.75152e-21)
(-0.214022 0.0235688 1.48334e-19)
(0.966451 0.0148325 3.90391e-20)
(1.00209 0.0204782 0)
(0.991407 0.00619662 0)
(0.996228 0.0125084 -7.16168e-21)
(1.01715 0.029206 4.80516e-21)
(-0.0501291 0.0295202 1.80671e-19)
(0.986125 0.0203798 0)
(1.19289 0.00431983 6.6901e-20)
(0.995919 0.0358987 1.38896e-20)
(0.994057 0.00408004 -1.26369e-20)
(1.16074 0.224254 1.92018e-20)
(1.00666 0.0375334 0)
(1.21386 0.01915 -6.45336e-20)
(1.08963 0.0615771 -2.0157e-20)
(1.02465 0.212619 -1.45989e-21)
(0.998071 0.0157826 -6.1004e-21)
(0.89445 0.0924109 0)
(0.979381 0.0199538 0)
(-0.204734 -0.00607267 3.29457e-20)
(1.29546 0.0625733 -4.35368e-20)
(1.02715 0.0208092 1.67679e-21)
(1.0994 0.197668 2.10911e-20)
(-0.128481 0.0188717 -1.36835e-19)
(1.03551 0.0359274 1.44018e-21)
(1.20966 -0.0731186 0)
(1.14322 0.302676 0)
(0.981101 0.0519045 1.28465e-20)
(0.990943 0.006154 0)
(0.982505 0.0456812 -5.5107e-21)
(1.21158 0.205406 0)
(1.03761 -0.00493057 1.73315e-22)
(1.00457 0.0214831 -5.59882e-21)
(1.12741 0.167815 0)
(1.02659 2.56381e-05 8.68549e-23)
(1.01043 0.0298589 0)
(1.00989 0.090988 -2.03107e-20)
(1.03417 0.0128575 5.98512e-24)
(1.00002 0.000116311 -6.58799e-21)
(0.00283897 0.102203 0)
(-0.0870008 0.0261625 6.10827e-20)
(0.999499 0.000545949 1.04416e-20)
(1.01602 0.00185224 8.20567e-21)
(0.95298 0.0091327 -1.10044e-21)
(0.99673 0.00746724 -1.12911e-20)
(1.09632 0.204734 -3.4552e-20)
(-0.0852149 -0.0200229 -8.38884e-20)
(-0.204374 -0.055459 0)
(1.25579 0.07979 -3.35777e-20)
(0.995563 0.00612575 0)
(1.03371 0.0137287 -3.94061e-23)
(1.01143 0.0399676 0)
(0.98015 0.0189952 -1.35843e-20)
(0.933261 0.254519 1.73904e-20)
(0.183049 0.10663 3.07284e-20)
(-0.153997 0.00350205 0)
(-0.0574319 0.0286868 -5.47116e-20)
(1.05034 -0.00660201 0)
(1.00574 0.0128055 0)
(0.724162 0.144086 -8.55366e-20)
(0.669448 0.320695 2.22421e-20)
(0.899753 0.156454 3.28258e-20)
(0.430801 -0.00470854 -3.58494e-20)
(-0.213845 0.159329 0)
(0.994145 0.0343351 0)
(0.70762 0.203321 7.99232e-20)
(1.06216 0.116829 -1.65161e-22)
(0.950496 0.00962934 1.95837e-20)
(-0.120953 -0.00336013 0)
(0.97239 0.0144389 -9.13096e-21)
(1.08666 0.0628619 5.62791e-22)
(0.966693 0.0501822 1.83299e-20)
(-0.0287976 0.0316986 -5.38144e-20)
(1.29274 0.110289 5.96811e-20)
(1.02196 0.0388378 3.45583e-21)
(-0.207437 -0.0669442 3.27344e-22)
(1.06081 0.0461438 3.77869e-21)
(0.708618 0.715243 1.30539e-20)
(0.980503 0.0450289 0)
(0.000621886 0.10184 -6.4478e-20)
(0.892573 0.17538 -4.66125e-21)
(1.23804 0.0308878 3.06601e-20)
(1.0255 0.163029 7.49793e-20)
(1.08178 0.030829 -9.27814e-21)
(0.994821 0.0114956 1.36007e-20)
(1.0157 0.00172543 2.78637e-21)
(1.03016 0.0652612 3.31792e-21)
(0.879434 0.137067 4.56546e-20)
(1.02306 0.0393889 0)
(1.0064 0.0220339 5.05457e-21)
(0.69121 0.34385 -5.00992e-20)
(0.972172 0.0131585 -1.01875e-20)
(1.01916 0.0123956 -5.58302e-21)
(0.778349 0.753489 9.33995e-21)
(0.999227 0.00121975 0)
(1.00002 0.000328929 0)
(0.999886 0.000313553 1.47835e-22)
(1.21075 0.1991 0)
(1.0157 0.000252803 0)
(0.929364 0.242938 8.31324e-21)
(0.999642 0.437278 2.50598e-20)
(0.954778 0.0110465 -1.63212e-20)
(1.29556 0.116893 -7.45307e-20)
(0.978144 0.00798172 -3.02742e-20)
(1.00032 0.00838024 8.22393e-21)
(1.15785 0.155066 -7.032e-20)
(1.01069 0.0143612 0)
(1.04191 0.087751 -4.13058e-22)
(0.951792 0.0173047 2.27732e-20)
(1.0918 0.407986 0)
(1.12288 -0.00499126 0)
(0.940912 0.0678351 1.06903e-20)
(1.10972 0.0204816 2.03437e-20)
(1.3515 0.0517425 8.09023e-20)
(1.00332 0.0210096 0)
(1.26544 0.115292 5.88357e-21)
(1.05156 -0.0162988 3.63155e-21)
(1.03248 0.013553 1.02465e-23)
(0.797767 0.36048 3.78626e-20)
(1.00529 0.012516 6.53028e-21)
(1.05037 -0.0173416 -6.23386e-21)
(1.03993 0.0155926 -2.02639e-21)
(1.01262 0.0933842 1.48768e-20)
(1.01756 0.0142598 1.15795e-21)
(1.01661 0.00046235 1.82514e-21)
(1.06276 0.0229929 -4.52384e-21)
(1.0684 -0.0309075 2.48862e-21)
(0.995501 0.00580679 -1.72081e-20)
(0.994547 0.0358016 -1.45637e-20)
(1.01132 0.0384094 -6.44756e-21)
(1.03691 0.090355 3.50925e-21)
(1.00247 0.0198875 -3.64929e-22)
(0.996768 0.0048902 8.58872e-21)
(1.01348 0.000964841 -3.1948e-21)
(0.988028 0.0537048 -1.12814e-20)
(1.05079 -0.00989723 5.39161e-21)
(1.00002 0.000216532 6.50104e-21)
(1.01554 0.00107828 -1.52534e-21)
(1.00141 0.0266789 0)
(0.989801 0.0798364 -1.24569e-20)
(1.1022 0.420101 0)
(1.25384 0.086503 3.94691e-20)
(-0.159977 -0.0620064 -1.50361e-19)
(0.891845 0.160061 -2.28751e-20)
(0.915034 0.159081 5.15516e-20)
(0.957066 0.0561409 6.17563e-21)
(1.19101 -0.00857913 -2.53742e-20)
(0.604712 -0.0222938 -4.51524e-20)
(1.06051 0.0226822 0)
(0.994066 0.012033 7.15064e-21)
(1.01642 0.000491475 -2.10115e-21)
(1.02802 0.0644471 3.45175e-21)
(1.01717 0.0136879 0)
(1.30638 -0.065307 0)
(1.06231 -0.000710993 1.22159e-20)
(0.997579 0.0156624 -2.04545e-20)
(0.999922 0.000265397 3.01254e-22)
(0.869218 0.13736 0)
(1.05186 -0.0107297 0)
(1.01228 0.424135 -2.30774e-20)
(0.90798 0.162428 1.82695e-20)
(1.17607 0.273432 -1.24789e-20)
(1.06142 0.0483462 -9.86771e-21)
(1.06663 -0.0330118 1.22308e-20)
(1.01611 0.0132411 3.53216e-21)
(1.08059 0.00500253 8.53636e-21)
(1.03872 -0.00472784 -2.03217e-21)
(1.06542 0.120498 -3.71556e-21)
(0.990367 0.0220326 6.59548e-21)
(1.10441 0.0288444 -8.48726e-21)
(-0.17101 -0.00072022 -8.50321e-20)
(1.0186 0.0120909 7.81718e-21)
(1.03534 0.0178158 -6.98331e-22)
(0.64514 -0.0266826 0)
(1.18358 -0.00696428 5.11016e-20)
(1.02182 0.0375712 0)
(0.997271 0.00456853 4.71626e-22)
(0.990887 0.0767153 6.24634e-22)
(0.438259 -0.00929215 6.17989e-20)
(1.1698 0.0807229 2.70304e-20)
(1.21883 0.203627 0)
(1.0003 0.000365254 -6.57232e-21)
(1.01571 0.00146459 -8.45623e-21)
(1.00368 0.0215975 -6.30961e-21)
(1.03211 0.0151093 7.80393e-22)
(1.35804 0.0420925 -1.13427e-19)
(0.9947 0.0188891 -1.9408e-20)
(0.997508 0.00528299 -8.72905e-21)
(1.00544 0.0140724 9.20576e-21)
(0.978138 0.00681272 1.76116e-20)
(1.11856 -0.0187713 0)
(0.965068 0.0636487 -1.25607e-20)
(1.0766 0.255873 6.47245e-21)
(0.162883 0.0167036 0)
(0.961617 0.0390537 -2.11996e-20)
(0.659137 0.0682105 0)
(1.00235 0.0186629 -6.22652e-21)
(1.07858 0.00530282 1.28037e-20)
(0.998618 0.00142879 0)
(-0.260836 -0.000746524 9.00228e-20)
(1.17101 0.212291 -1.84805e-20)
(1.20208 0.261067 -1.36528e-22)
(-0.190206 0.177015 4.96361e-20)
(1.01595 0.004691 2.28038e-21)
(1.06278 -0.00210864 -8.09388e-21)
(1.00123 0.0284382 9.69034e-21)
(0.975378 0.0717624 1.8562e-20)
(1.10922 0.0242772 1.00358e-20)
(0.999996 0.000610281 0)
(1.05042 0.131076 1.90806e-21)
(1.01087 0.00126134 -2.9449e-21)
(1.01676 0.000257248 0)
(0.992849 0.0341561 -1.48033e-20)
(1.08037 0.264499 -1.60788e-20)
(0.999989 9.47764e-05 0)
(1.05799 0.0451116 2.16526e-21)
(0.98061 0.0169122 -8.10922e-24)
(0.967474 0.0621179 2.19602e-20)
(-0.212115 0.0932646 -3.63585e-20)
(1.00203 0.019279 -5.7027e-21)
(0.999393 0.000729212 5.65865e-21)
(1.00268 0.00194732 6.36015e-21)
(1.03726 0.0139426 1.30224e-21)
(1.06832 0.167349 -8.84117e-21)
(1.24135 0.0264503 -6.69749e-20)
(0.923742 0.164081 -5.74727e-20)
(1.0366 0.0888874 1.29684e-19)
(1.12049 -0.0152732 -2.62099e-20)
(1.08293 0.0610359 1.02484e-20)
(0.979719 0.01761 8.54132e-24)
(1.0164 0.000761649 1.17774e-21)
(1.04042 0.0328644 -3.61503e-22)
(1.00002 0.000237039 0)
(1.33024 0.109677 -4.02104e-20)
(0.990688 0.0226148 -7.06471e-21)
(1.02345 0.0451612 -3.12192e-21)
(1.18674 -0.110691 0)
(1.00572 0.0224244 -5.34452e-21)
(0.979188 0.0795663 2.09177e-20)
(0.969328 0.0490249 3.59076e-21)
(1.19347 -0.112546 2.53594e-20)
(1.04073 0.00585668 1.45328e-21)
(0.942692 0.0651298 0)
(1.0258 0.204777 -6.50469e-22)
(1.04549 0.129857 0)
(1.03371 0.0621764 8.82418e-22)
(0.993867 0.0106058 6.8443e-21)
(0.885078 0.0793841 0)
(1.13348 0.167497 2.00481e-20)
(1.05043 0.0104064 0)
(1.0704 0.161096 -6.45058e-21)
(1.00139 0.00992037 8.17892e-21)
(1.00525 0.0120662 -5.62163e-21)
(1.00161 0.00984178 0)
(0.975943 0.0796861 0)
(1.2803 0.292102 5.44579e-20)
(1.06519 -0.0169666 -7.21078e-21)
(1.00001 0.000532117 -7.76041e-21)
(0.963862 0.039382 0)
(1 5.90575e-05 -6.91174e-21)
(0.999978 0.000212005 -1.77823e-20)
(0.685016 0.28778 -2.41415e-20)
(0.994605 0.0111081 -6.71622e-21)
(1.02439 0.00826137 -1.64689e-21)
(-0.109959 0.0212746 9.79658e-20)
(1.00677 0.00829988 0)
(0.884105 -0.00641114 7.92984e-21)
(1.31248 0.102215 -8.10074e-20)
(0.859689 0.0703473 -1.07938e-19)
(0.339041 0.0181994 0)
(-0.130106 -0.0535398 0)
(1.00226 0.11091 7.91909e-21)
(0.776066 0.355748 -4.10233e-20)
(0.999192 0.000933195 -5.45684e-21)
(1.13308 -0.0671893 2.58379e-20)
(0.999999 4.30565e-05 7.12352e-21)
(0.975832 0.0316924 0)
(1.22801 -0.153518 -3.29533e-20)
(1.00023 0.00523048 0)
(0.972772 0.0736176 6.3531e-22)
(0.553004 0.900575 6.73661e-20)
(1.01479 0.000397282 4.21582e-21)
(1.00443 0.00658228 0)
(0.771547 0.110507 -5.91566e-20)
(0.744826 0.659546 0)
(1.02391 0.0422793 -2.73916e-21)
(1.0262 0.000940747 -1.42482e-23)
(-0.141327 0.00148393 -1.04221e-19)
(1.17016 0.221089 4.26579e-20)
(1.00578 0.0132876 8.28947e-22)
(0.718996 0.169345 7.44425e-20)
(-0.0150882 0.0244295 2.11621e-19)
(1.01116 0.0145402 0)
(1 0.00035304 7.67773e-21)
(1.02068 0.00953627 6.55293e-22)
(0.99938 0.0173015 0)
(1.01676 0.000339664 -1.17713e-22)
(1.01846 0.0113391 -1.28374e-22)
(0.782305 0.0683995 0)
(1.05774 0.00448008 -8.33813e-20)
(0.975108 0.0330629 3.01174e-22)
(0.307486 0.0295711 6.58906e-20)
(1.01602 0.00070477 2.46363e-21)
(0.994836 0.0181352 -5.74118e-21)
(1.23036 0.311929 -2.39154e-20)
(1.04446 0.0105907 5.35216e-22)
(0.903465 0.00140297 -7.83338e-20)
(1.1762 0.0819699 0)
(0.967749 0.0449385 1.82062e-20)
(1.02507 0.00605956 1.09294e-22)
(1.02566 0.00120184 0)
(1.02659 0.351762 2.72644e-21)
(1.0516 -0.00768502 3.32372e-21)
(0.997555 0.112186 1.11061e-21)
(0.994475 0.0485053 9.72419e-21)
(-0.238353 -0.0492623 1.45311e-23)
(0.957005 0.0103577 5.85187e-23)
(1.02236 0.215347 0)
(0.96106 0.052656 1.90397e-20)
(1.00299 0.0083506 -1.40305e-21)
(1.00248 0.0210891 -6.43176e-21)
(1.16253 0.389245 3.8738e-20)
(1.00249 0.00813865 0)
(0.910633 0.0229613 4.0972e-20)
(0.997619 0.0220916 0)
(1.03975 0.00614687 0)
(-0.118548 -0.00615333 9.1304e-20)
(1.08162 0.0362966 -4.58664e-22)
(0.99103 0.00756751 9.83995e-21)
(1.01112 0.000790406 1.12061e-22)
(-0.182643 0.00923801 4.05121e-20)
(0.998684 0.0165531 9.06445e-21)
(1.08343 0.0381506 6.05993e-21)
(1.02333 0.0655518 5.15237e-21)
(1.01651 0.0137432 -5.33839e-21)
(0.468528 0.0492567 6.25664e-22)
(0.320925 0.0191982 0)
(1.00521 0.00759436 -6.0459e-21)
(0.968394 0.0152135 0)
(1.06746 -0.0165672 7.49431e-21)
(1.01547 0.00127399 3.59047e-21)
(0.999656 0.00793798 7.53562e-21)
(0.993098 0.00317892 0)
(-0.183306 0.0094612 0)
(0.994516 0.0027481 0)
(1.01604 0.000335076 0)
(0.966155 0.11328 0)
(1.18678 -0.0164569 -5.84179e-20)
(1.15295 0.142399 -5.65094e-22)
(1.00001 0.000254686 2.20534e-22)
(1.06464 0.111724 0)
(-0.0184927 0.0173883 -4.43448e-20)
(1.1221 -0.0226148 0)
(0.989723 0.00372539 -8.01188e-21)
(0.994191 0.0101655 0)
(1.29381 0.0703848 0)
(1.04896 0.0102788 7.53095e-21)
(1.00292 0.00796174 0)
(0.896647 0.074709 -3.42111e-20)
(1.03345 0.0155212 -3.66997e-22)
(1.01803 0.0111391 0)
(0.949711 0.0188299 -5.47939e-21)
(1.01815 0.00447856 1.51465e-23)
(0.946521 0.173986 3.55433e-20)
(0.993493 0.0127255 -1.41885e-20)
(1.00229 0.008226 0)
(-0.246933 -0.037958 9.26803e-20)
(1.00951 0.00556007 -9.34369e-22)
(1.0485 -0.00701366 8.06821e-23)
(1.00039 0.00504476 0)
(0.995707 0.0468477 0)
(1.05433 0.126115 1.89718e-22)
(1.00498 0.0074212 5.70534e-21)
(1.03612 0.0140046 -1.27528e-21)
(1.26579 0.288883 -6.05013e-20)
(0.998607 0.0529675 9.61066e-22)
(0.202868 0.0770231 0)
(1.05916 0.0246227 0)
(0.999999 0.000106182 -1.18675e-20)
(1 9.39467e-05 0)
(1.16514 0.249198 0)
(0.989558 0.0187781 -2.84959e-21)
(0.990986 0.00723234 -8.31116e-21)
(1.0022 0.00221235 3.23084e-21)
(1.05187 0.00827357 0)
(0.944325 0.0959989 -2.14917e-20)
(0.442602 0.0310445 -6.44683e-20)
(0.998154 0.0164188 6.58365e-21)
(0.939698 0.170227 -2.87676e-20)
(0.612846 0.723409 0)
(1.12077 -0.0264231 1.05983e-21)
(1.00001 0.000363494 0)
(0.992872 0.00589785 -8.55488e-21)
(1.04373 0.00136612 -2.63047e-21)
(0.999996 0.00128259 8.80958e-21)
(1.00111 0.0175261 -6.67069e-21)
(-0.11893 0.143527 4.46924e-20)
(-0.1646 0.0136478 9.12255e-20)
(1.00018 0.00482639 0)
(1.09032 0.0582816 1.66775e-20)
(1.09557 -0.0157765 -9.92393e-22)
(1.09269 -0.0150263 9.41019e-22)
(0.973533 0.00799833 1.03211e-20)
(1.0124 0.00114285 -9.98421e-22)
(1.34458 -0.0185063 9.92275e-20)
(1.03661 0.344027 -1.26043e-20)
(0.65098 0.706376 -1.18764e-20)
(1.02436 0.00613661 -1.04298e-21)
(1.04508 0.00181705 2.85367e-21)
(1.04325 0.0110542 1.05452e-21)
(1.0066 0.00859781 2.90741e-21)
(-0.17331 -0.056154 5.83087e-20)
(1.07477 0.123161 -1.15168e-22)
(1.05176 0.00966672 0)
(1.02263 0.0268972 7.78533e-22)
(1.00939 0.000609302 5.50352e-21)
(0.975756 0.00640718 0)
(1.30835 -0.0132655 -4.92902e-20)
(1.08327 0.0335323 1.01091e-20)
(0.998866 0.00087499 -1.16856e-20)
(-0.212027 0.0026607 5.14194e-20)
(0.732348 0.617994 -3.34129e-21)
(0.970184 0.470584 -1.00552e-20)
(1.04062 0.217449 0)
(0.999645 0.00750185 7.45166e-21)
(1.02709 0.0219606 2.80314e-22)
(1.12511 -0.0890126 0)
(1.12491 0.155876 1.5756e-20)
(-0.129932 0.115396 9.73147e-20)
(0.240036 0.118366 0)
(0.94202 0.0578312 -2.31536e-20)
(0.906848 0.0206121 -5.62773e-20)
(1.00005 0.0011357 0)
(1.05762 0.0425112 -6.00372e-21)
(0.969428 0.0157569 0)
(1.00005 0.00127674 0)
(-0.216757 -0.0558854 0)
(1.01378 0.00102149 3.25123e-21)
(1.002 0.0181018 1.18171e-20)
(1.16976 -0.0233985 -2.06707e-20)
(0.99998 0.00113397 -4.22106e-21)
(1.29743 -0.107964 4.59689e-20)
(1.05704 0.0240144 -3.3342e-21)
(1.26393 -0.00945367 0)
(1.01534 0.119597 0)
(0.999895 0.000223365 -1.57611e-22)
(1.06262 0.00537197 0)
(1.07611 0.0615211 -1.01809e-21)
(1.09436 -0.0687663 -5.30391e-21)
(1.04566 0.212865 1.85775e-21)
(0.927368 0.302974 -1.16652e-20)
(0.99999 6.91187e-05 -1.33088e-20)
(1.12416 -0.0718852 2.05052e-20)
(1.03249 0.0556383 -1.46696e-22)
(1.01516 0.0296737 2.61638e-21)
(1.00053 0.00261502 0)
(1.04048 0.0343512 3.10853e-22)
(0.996219 0.00221032 -4.91992e-21)
(0.940258 0.0609666 -2.61136e-20)
(1.15506 0.137903 9.14881e-21)
(0.834405 0.125648 1.09276e-19)
(0.99887 0.000528238 0)
(0.997396 0.0547265 0)
(1.00228 0.00205191 -6.82388e-21)
(0.990713 0.010411 -1.88706e-20)
(0.763674 0.336554 4.49731e-20)
(1.00388 0.00542547 0)
(1.01873 0.0661928 0)
(1.27904 -0.057472 8.9582e-20)
(1.01775 0.00434688 -4.82559e-21)
(1.12257 0.162875 0)
(1.14058 -0.111826 -2.76748e-20)
(0.997037 0.00451043 0)
(-0.0367239 0.0319268 -6.70158e-20)
(1.14619 0.0257621 -1.75903e-20)
(0.999922 0.00111551 9.11738e-21)
(1.29015 0.135499 3.86406e-20)
(1.04202 0.0148345 0)
(1.00001 0.000267935 -2.29466e-22)
(0.979591 0.0122319 -1.53377e-20)
(0.994207 0.00517924 1.41004e-20)
(0.999997 5.9709e-05 -7.89039e-21)
(1.05798 0.0531365 0)
(0.974676 0.006053 0)
(0.779431 0.577814 3.43962e-21)
(0.98341 0.0525741 -1.61852e-20)
(0.993295 0.00615825 1.15188e-20)
(1.02701 0.0409958 -4.29595e-21)
(1.05885 0.127159 -1.67045e-21)
(1.11918 0.0402825 0)
(0.993733 0.0038036 1.5215e-21)
(1.07275 0.000926599 0)
(1.02628 0.0220957 -2.96257e-21)
(1.11556 -0.0051691 -2.10346e-20)
(0.981269 0.0068164 9.56187e-21)
(1.01113 0.122512 6.62554e-21)
(1.02512 0.00844585 4.1273e-22)
(0.945161 0.0109508 0)
(1.02508 0.00201763 -3.80298e-22)
(1.00206 0.0102049 -5.31963e-21)
(0.232677 0.0411913 0)
(1.02023 0.00981486 -6.9794e-22)
(0.768597 0.319038 -1.08693e-19)
(0.992921 0.00365981 1.25065e-20)
(1.05698 0.00588763 -7.83391e-21)
(1.01005 0.0052414 3.32209e-21)
(1.12088 0.0208936 0)
(1.00033 0.00469673 0)
(1.15019 0.0284339 2.03879e-20)
(1.02304 0.0365121 5.32961e-22)
(1.2828 0.134727 -8.4683e-20)
(0.999967 0.00025857 3.44394e-21)
(0.54497 -0.00179683 1.00121e-19)
(1.02649 -0.000431071 0)
(0.966862 0.0590963 1.21602e-20)
(0.999963 -1.36732e-05 8.11282e-21)
(0.977063 0.00860531 7.80783e-21)
(1.00116 0.00948548 -7.36122e-21)
(1.05607 0.0540604 0)
(0.996286 0.00274934 -6.40366e-22)
(0.636609 0.226637 0)
(0.552601 0.412384 1.74399e-19)
(1.28716 -0.116321 -1.24386e-20)
(1.07098 0.0207425 0)
(0.929595 0.158358 -1.5562e-20)
(1.00784 0.0222536 2.50628e-21)
(0.966327 0.17757 -1.39118e-21)
(1.17799 -0.0157927 2.21941e-20)
(1.00179 0.00528889 -9.54922e-21)
(0.903272 0.0757358 1.28218e-22)
(0.920934 0.316625 1.20154e-20)
(-0.118192 0.112971 -8.37161e-20)
(1.13504 -0.114009 2.61364e-20)
(1.03594 0.269348 3.94077e-20)
(1.07962 0.0632928 -9.8014e-21)
(0.997822 0.0403798 0)
(1.00001 0.000791504 -8.39331e-21)
(1.07704 0.00383681 -1.6831e-20)
(1.05997 0.0500042 2.43353e-21)
(1.0927 -0.0603139 5.33009e-21)
(1.01559 0.00443089 6.22031e-21)
(1.03794 0.0598207 1.30288e-22)
(1.24624 0.0888253 0)
(1.00002 0.000102035 -2.21151e-22)
(0.990615 0.00985672 1.06316e-20)
(1.07498 -0.000368242 8.58368e-21)
(-0.0298227 0.0782054 7.31628e-20)
(0.969388 0.0576421 -2.47238e-21)
(1.0619 0.10753 0)
(1.12064 -0.093721 -2.10119e-20)
(0.999932 0.000150369 0)
(0.307117 0.0434416 2.94243e-22)
(1.01555 0.00523173 -9.20088e-24)
(1.00635 0.0141021 -8.7694e-22)
(1.00385 0.0503558 2.10857e-21)
(1.03364 0.0163636 1.69062e-22)
(-0.244558 0.0020446 -6.51819e-20)
(1.18602 -0.0318399 3.09669e-20)
(-0.065922 0.0864748 0)
(1.00154 0.000755349 -1.4274e-20)
(1.18879 0.403336 0)
(-0.00996734 0.0352913 0)
(1.34448 0.0980039 0)
(1.09366 -0.0571657 0)
(1.19294 -0.0137996 0)
(1.26411 0.108046 0)
(0.995128 0.185612 1.51773e-21)
(0.980225 0.0157448 2.58978e-22)
(0.997129 0.0226592 0)
(0.893215 0.0801164 -3.25843e-20)
(-0.28165 -0.00619989 -3.66159e-20)
(1.0093 0.0223401 0)
(0.963393 0.117553 0)
(0.118871 0.0902789 -2.70753e-20)
(0.993273 0.0137276 -5.11833e-21)
(1.00289 0.0108792 9.15117e-21)
(1.01462 0.030447 1.60414e-20)
(0.986854 0.0580929 -1.2558e-20)
(1.00099 0.00960513 -1.71604e-20)
(1.04195 0.00422832 -3.41337e-21)
(1.15576 0.251855 7.34351e-20)
(0.90683 0.13611 0)
(1.04092 0.0044902 2.47169e-21)
(1.0004 0.00801454 0)
(-0.221104 -0.0118854 0)
(-0.0639562 0.10786 0)
(1.0072 0.0226519 -5.56758e-21)
(0.990366 0.00366029 0)
(1.00038 0.000549135 -3.59048e-21)
(0.998829 0.0171839 3.36064e-21)
(1.23571 0.32383 0)
(1.18397 -0.0382325 -2.91757e-20)
(0.979521 0.432069 0)
(0.985239 0.0508845 0)
(1.00288 0.0112862 9.05386e-23)
(1.03394 0.0111087 -3.41413e-22)
(0.948725 0.00750689 -1.92626e-20)
(0.997727 0.00452009 7.75491e-21)
(1.11868 0.00982474 2.14048e-20)
(0.965681 0.0369002 0)
(0.0854373 0.0112119 4.07814e-23)
(0.9993 0.00793171 0)
(1.00097 0.0035834 -9.18367e-21)
(1.03772 0.177438 -1.9333e-22)
(1.00913 0.0214515 -1.3047e-21)
(1.10254 -0.0395037 -2.71499e-20)
(0.862622 0.259814 4.22806e-20)
(1.06061 0.00602917 0)
(0.673077 0.544251 0)
(-0.0856019 0.0986841 1.03578e-19)
(0.996238 0.040364 1.96374e-21)
(1.00137 0.0181197 7.70989e-22)
(0.525171 0.0631259 4.6135e-20)
(-0.269192 -0.0216271 0)
(0.978405 0.161525 1.09357e-21)
(1.04101 0.014641 0)
(1.09685 0.0227556 0)
(0.731674 0.379231 -1.35465e-20)
(0.91464 0.0300671 2.7431e-20)
(0.981145 0.0150009 -1.57785e-20)
(1.00252 0.00168918 0)
(1.00403 0.00583178 0)
(1.03028 0.429395 -3.69318e-20)
(1.06956 0.0217315 -3.92128e-21)
(0.759323 0.278894 0)
(1.00001 0.000285943 0)
(-0.216066 0.0737761 2.61781e-20)
(1.28323 0.282404 -2.6606e-20)
(0.992947 0.00542902 6.81017e-21)
(0.997418 0.00835299 -9.90966e-21)
(0.650288 0.214554 0)
(0.99915 0.00144783 0)
(1.01038 0.00524901 -4.30015e-21)
(0.996961 0.0884448 1.49826e-20)
(-0.148073 -0.0345131 0)
(-0.0987923 0.117502 0)
(0.341009 0.0427695 0)
(1.04748 -0.00560805 0)
(1.1831 0.01529 -6.63244e-20)
(0.9961 0.177449 0)
(1.01375 0.00422902 6.32425e-23)
(1.00888 0.000393206 -9.28867e-21)
(0.999541 0.00035666 -1.03588e-20)
(1.0421 0.416807 3.49097e-20)
(1.00009 0.00105585 0)
(0.993265 0.00664492 -1.18501e-20)
(1.18188 0.0112875 7.54825e-20)
(0.974708 0.00991778 -1.43411e-20)
(1.15141 0.157495 1.85691e-20)
(1.00076 0.000839923 -2.04772e-21)
(0.998419 0.00206327 -8.86773e-22)
(1.01113 0.00104779 4.7294e-21)
(0.999019 0.0003629 0)
(1.28779 0.0569649 3.80928e-20)
(1.00009 0.0011879 0)
(1.00088 0.0256492 0)
(1.14384 0.0456602 -1.60502e-20)
(0.916064 0.240265 -1.2164e-20)
(0.782919 0.493396 -4.71262e-20)
(0.999951 0.00113358 -4.12395e-21)
(1.20258 0.13787 -1.77619e-20)
(-0.111164 0.113649 7.02695e-20)
(0.230101 0.0707322 9.30519e-20)
(0.965118 0.0456181 -2.0387e-20)
(-0.223813 0.00375299 0)
(-0.0980364 -0.0174904 -8.62453e-20)
(0.993611 0.0134371 1.87961e-20)
(1.01587 0.00222267 1.80522e-21)
(0.980765 0.0494446 0)
(0.946284 0.0309209 2.46787e-20)
(-0.109625 0.118262 -8.68469e-20)
(1.02559 0.0666301 0)
(1.00053 0.00241663 0)
(1.00007 0.00110083 0)
(-0.0590534 0.108834 -3.80999e-22)
(0.968646 0.170116 -1.34752e-21)
(1.0459 -0.00589945 -5.57753e-22)
(1.0004 0.00196262 -7.89037e-21)
(0.989992 0.0047767 0)
(1.07806 0.160504 0)
(1.00987 0.00560275 9.97704e-22)
(1.00729 0.000596716 5.21561e-21)
(1.11193 -0.00346131 2.06156e-20)
(0.986179 0.0556384 0)
(0.999638 0.000205281 -1.01508e-20)
(1.02881 0.0177121 0)
(0.681116 0.601029 0)
(1.03449 0.0184898 8.49423e-23)
(0.991139 0.0562502 -2.19066e-22)
(0.996032 0.00207204 0)
(0.9987 0.0487542 0)
(1.20234 0.217972 5.11939e-20)
(0.999967 0.00126895 -4.54966e-21)
(0.974273 0.0543946 3.29655e-20)
(0.997498 0.0022325 2.90317e-21)
(1.07882 0.030754 8.81443e-21)
(0.612782 0.524368 0)
(0.999999 6.90782e-05 -7.01557e-21)
(0.79661 0.474033 5.75947e-20)
(1.04392 0.0851085 0)
(-0.0991639 0.11986 0)
(1.01482 0.000436081 -1.72744e-21)
(1.03271 0.0643159 0)
(1.1085 -0.00540792 0)
(1.20011 0.142296 0)
(0.772309 0.123936 9.37123e-20)
(0.965633 0.0354042 0)
(0.946348 0.234437 0)
(0.856566 -0.0463051 6.89763e-20)
(0.96054 0.0221875 0)
(1.0111 0.00060275 0)
(1.33986 0.0906607 3.33176e-20)
(0.997583 0.00142395 -7.864e-21)
(0.999999 0.000527389 0)
(1.01422 0.0132966 5.42142e-21)
(1.00001 0.000619006 8.66245e-21)
(1.1588 0.0858071 -6.0833e-21)
(1 1.10783e-05 -3.55344e-21)
(0.999997 5.17974e-05 8.06643e-21)
(0.850236 0.255435 -2.11518e-20)
(1.01505 0.114382 0)
(1.01319 4.38351e-05 4.30829e-21)
(0.915807 0.114434 -3.36595e-20)
(0.951963 0.0147802 -1.57861e-20)
(0.266742 0.0278092 0)
(1.06267 0.018437 -4.51047e-21)
(0.769378 0.550814 -7.42374e-21)
(0.999549 0.0179359 -6.70339e-21)
(1.17137 -0.0176142 -4.47518e-20)
(0.976214 0.16899 -1.78077e-20)
(0.0410026 0.0999098 -5.81279e-20)
(1.06987 0.0347486 0)
(-0.189048 -0.0615201 0)
(1 0.000288012 2.2835e-22)
(1.06955 -0.0232479 1.43035e-20)
(1.00162 0.00285473 -3.70086e-21)
(0.998645 0.0389014 0)
(0.988647 0.018791 -6.2427e-21)
(1.25713 -0.0132591 0)
(0.850699 0.136091 0)
(1.11433 -0.0751592 2.62912e-21)
(-0.169516 -0.0451921 0)
(1.00045 0.0027222 8.06905e-21)
(0.869734 0.872083 -9.89224e-21)
(1.06729 -0.0276814 7.21142e-21)
(1.02314 0.0207579 -2.16503e-21)
(0.866749 0.0594052 0)
(1.10254 0.0547165 -5.54773e-21)
(-0.0826033 0.105313 -8.82864e-20)
(0.997134 0.00849818 -5.15286e-21)
(0.940005 0.0955649 0)
(0.914 0.227587 2.24555e-20)
(1.02111 0.0674121 -5.47893e-21)
(0.824567 0.12761 -9.70026e-20)
(1 0.000120673 6.78924e-21)
(1.015 0.00253123 1.20273e-21)
(1 0.000111815 6.80914e-21)
(0.930833 0.459348 0)
(0.999066 0.00212064 -1.1872e-20)
(1.00164 0.00583903 -5.98262e-24)
(1.01323 0.0127345 -1.67805e-22)
(1.01035 0.00100681 -8.797e-21)
(1.00184 0.0102403 -7.44576e-23)
(1.00014 0.00834064 -1.73956e-20)
(1.0278 0.0428371 4.50351e-21)
(1.00363 0.0154802 1.73857e-20)
(0.999137 0.00118297 7.82099e-22)
(0.957496 0.0080831 -9.82996e-23)
(0.999484 0.091372 6.69094e-21)
(0.922218 0.112823 0)
(0.994336 0.00317278 0)
(-0.0890945 0.117712 1.40374e-20)
(1.00239 0.0349141 0)
(1.21041 0.406652 -7.27139e-20)
(0.885816 0.143619 -6.67302e-20)
(-0.151851 0.117157 7.92579e-20)
(1.10436 0.102132 0)
(1.06798 -0.0216764 -1.81949e-21)
(-0.157839 0.00872949 4.57696e-20)
(1.1217 0.0432356 0)
(0.963814 0.451249 1.11014e-20)
(0.370692 0.0596313 3.80584e-20)
(1.08024 0.154593 0)
(1.00007 0.00123189 0)
(1.00536 0.013553 -6.72573e-21)
(1.00335 0.0611026 9.69161e-21)
(1.21003 0.215874 0)
(1.01347 0.0304692 -3.32149e-21)
(-0.0825128 0.0137598 6.18798e-20)
(1.00455 0.0281627 4.03068e-21)
(0.879498 0.647234 -3.1515e-20)
(0.504823 -0.00191977 -4.78692e-20)
(1.11383 -0.091757 2.01373e-20)
(1.05576 0.0256639 -3.07582e-21)
(-0.0601063 0.0275331 3.37179e-20)
(-0.196943 0.119107 0)
(0.942332 0.0114157 0)
(0.993939 0.00452143 0)
(0.999942 1.8899e-05 -1.02836e-20)
(1.07265 0.00346406 0)
(1.01518 0.0024231 0)
(1.01216 0.00092874 0)
(1.08658 0.206477 1.81389e-20)
(1.22165 -0.159209 -2.91925e-20)
(0.99762 0.00189045 0)
(1.01258 0.0299461 5.47727e-21)
(0.959619 0.00761708 1.19004e-22)
(1.16885 0.383181 -2.45148e-20)
(1.13191 -0.0904962 -1.61767e-21)
(0.999423 0.00184569 0)
(1.04227 0.0810251 -1.60603e-22)
(1.21595 0.0977976 -4.54886e-20)
(0.995381 0.0504872 0)
(1.00007 0.00687575 -1.65564e-21)
(-0.111163 0.0119278 -5.99226e-23)
(0.985056 0.0409715 0)
(0.995149 0.0192964 2.35279e-20)
(0.782079 0.903498 0)
(0.994206 0.0761214 3.0176e-20)
(0.979263 0.00629667 -1.72846e-20)
(-0.137029 0.00136798 0)
(0.190227 0.0503502 -7.21452e-20)
(0.0239877 0.0421896 1.99643e-19)
(0.991003 0.0116199 9.3736e-21)
(0.97453 0.0573101 0)
(1.32769 0.115156 0)
(1.01361 0.0132768 5.54494e-21)
(1.02224 0.0280453 0)
(0.999991 0.000110037 -8.14878e-21)
(1.08277 -0.036149 -8.74947e-21)
(0.997741 0.0052925 0)
(1.00082 0.000800805 5.26115e-21)
(1.05114 -0.0196828 0)
(0.783758 0.102787 -2.66843e-20)
(0.862925 0.413285 0)
(1.00973 0.0146161 0)
(0.982359 0.011585 -1.44727e-20)
(0.997564 0.000961578 -7.17639e-21)
(1.0217 0.0260045 0)
(0.982623 0.0479056 6.31419e-21)
(1.01429 0.00281265 -2.32642e-21)
(1.25549 0.105271 6.92825e-20)
(0.996019 0.117188 1.12862e-20)
(0.99246 0.0295447 0)
(0.995747 0.0074636 -1.32208e-20)
(1.01092 0.0134639 -5.81566e-21)
(1.0026 0.00565213 0)
(1.03584 0.0414795 -2.57897e-21)
(-0.125471 -0.0255244 5.75907e-20)
(1.10206 0.0224845 -1.62722e-20)