/*--------------------------------*- C++ -*----------------------------------*\
| =========                 |                                                 |
| \\      /  F ield         | OpenFOAM: The Open Source CFD Toolbox           |
|  \\    /   O peration     | Version:  v2012                                 |
|   \\  /    A nd           | Website:  www.openfoam.com                      |
|    \\/     M anipulation  |                                                 |
\*---------------------------------------------------------------------------*/
FoamFile
{
    version     2.0;
    format      ascii;
    class       volScalarField;
    location    "200";
    object      nut;
}
// * * * * * * * * * * * * * * * * * * * * * * * * * * * * * * * * * * * * * //

dimensions      [0 2 -1 0 0 0 0];


internalField   nonuniform List<scalar> 
10042
(
0.00804141
0.0138699
0.00485677
0.00670036
0.00673535
0.010114
0.00297381
0.0249215
0.00668215
0.00183084
0.00388959
0.0154676
0.000927117
0.00679484
0.00672803
0.00679611
0.0128912
0.00452602
0.0024072
0.00193733
0.00091734
0.00757738
0.00669972
0.0160631
0.00670639
0.00723099
0.00178653
0.0066759
0.0100216
0.0176023
0.00700622
0.00087911
0.00668012
0.00667962
0.0243464
0.0251729
0.0068144
0.00667816
0.0068751
0.0067914
0.0166568
0.00667953
0.00115557
0.0160843
0.00670174
0.00670824
0.00666968
0.00672564
0.00128551
0.0016749
0.00117763
0.00669756
0.0101398
0.0026828
0.00669172
0.00244679
0.000993094
0.00769504
0.00673704
0.00666856
0.00128551
0.00764338
0.000951394
0.02662
0.0066679
0.00679551
0.00211346
0.0175008
0.00666901
0.0149877
0.00149017
0.00434912
0.00670288
0.00673382
0.00678285
0.00142284
0.00673412
0.00666963
0.00673535
0.00232874
0.0152514
0.0167124
0.00714081
0.00669786
0.0017743
0.00137706
0.00237246
0.00443447
0.00671734
0.00685461
0.00126769
0.00672938
0.00103756
0.0020585
0.00540191
0.00672586
0.00835945
0.00212059
0.0100188
0.00673063
0.00142582
0.00256374
0.00676481
0.00108035
0.00201235
0.00673873
0.00123976
0.00676782
0.00173414
0.00674296
0.00673035
0.00271669
0.00302774
0.027148
0.00676837
0.00667016
0.00685553
0.00696211
0.00788824
0.00666967
0.00666737
0.0152943
0.0151099
0.00670282
0.00678328
0.00672796
0.0067327
0.00702387
0.000533574
0.00691297
0.00668029
0.00674604
0.00676566
0.0067459
0.003227
0.00184642
0.00228197
0.00132116
0.00365938
0.00752491
0.000797691
0.00674004
0.00135511
0.00667604
0.00168947
0.00667844
0.00179668
0.00666801
0.00540432
0.0277095
0.00675554
0.00686204
0.00352727
0.000796496
0.00605016
0.00172081
0.000602581
0.00246239
0.00676575
0.00727853
0.00687402
0.00678929
0.0018911
0.00672068
0.00493299
0.0242689
0.00670229
0.000937203
0.0256199
0.00667831
0.00585987
0.0184938
0.0145636
0.00667845
0.00260166
0.0151635
0.00670804
0.00667835
0.00673693
0.00666873
0.00406901
0.00185951
0.0067339
0.00666745
0.00494225
0.00129701
0.00427626
0.00667979
0.0015335
0.00683619
0.0123353
0.00100689
0.0066822
0.00219073
0.00641661
0.00672828
0.00546604
0.000478546
0.0115481
0.00669974
0.000570662
0.000923258
0.0010703
0.00673789
0.0119651
0.00675394
0.0157553
0.000821479
0.00672849
0.00675049
0.00089237
0.00671671
0.00483009
0.00256961
0.0068386
0.0122281
0.00673812
0.0103293
0.00673779
0.000654523
0.00902186
0.00630932
0.00796909
0.0117067
0.0067004
0.000833393
0.00681506
0.00253901
0.0016568
0.00676847
0.00667856
0.00674153
0.00137922
0.00705528
0.00670833
0.0254713
0.00285471
0.00894991
0.00186531
0.0157787
0.0085112
0.0263833
0.00666737
0.0068041
0.0204614
0.0067451
0.0256915
0.00213083
0.00302872
0.00680405
0.00207962
0.00668559
0.0094392
0.0150973
0.00559576
0.00332024
0.00689918
0.00547668
0.00831575
0.00670784
0.00671921
0.00668055
0.00669685
0.00667061
0.00085181
0.0172565
0.00682375
0.00697783
0.00709848
0.00674386
0.00671003
0.00174254
0.00673433
0.00156046
0.0061114
0.0080122
0.00443191
0.00670257
0.00711478
0.00547565
0.00667576
0.0149161
0.00690586
0.005174
0.00692324
0.0131044
0.00672127
0.00667688
0.00734103
0.00692904
0.00106584
0.00679533
0.00697211
0.0219731
0.00640129
0.00680577
0.0147986
0.00250901
0.00671032
0.00674893
0.00341897
0.00384555
0.00668109
0.00870151
0.00673882
0.00753495
0.00675627
0.00681543
0.0158665
0.0175786
0.00687963
0.00673308
0.00672203
0.00680084
0.00681405
0.00738068
0.00667072
0.00509029
0.0157442
0.00666972
0.00721069
0.00162047
0.00795975
0.0297252
0.00566978
0.00687395
0.00735987
0.00673244
0.00288013
0.00113273
0.00675535
0.00671924
0.00765424
0.00686819
0.0156684
0.00736441
0.00149683
0.0304377
0.00668749
0.0212712
0.000845667
0.000935871
0.00666722
0.00804353
0.00694187
0.00667867
0.00671308
0.00674617
0.00686751
0.00961391
0.00675583
0.00550282
0.00687763
0.00689983
0.0070743
0.0066305
0.00681118
0.00713256
0.00188368
0.00730102
0.00673344
0.00682512
0.00491536
0.0183226
0.0178852
0.00448451
0.00671088
0.00687527
0.00687288
0.00719239
0.00667078
0.0071091
0.00674209
0.00725938
0.00164758
0.00677049
0.00804726
0.00291207
0.019183
0.00145487
0.0067254
0.00848445
0.00173407
0.00672734
0.00067713
0.00667007
0.00677591
0.00666848
0.00677306
0.0066762
0.0062417
0.00321608
0.00675463
0.00643279
0.0160762
0.0129868
0.00670389
0.0244362
0.00681172
0.000756849
0.00669896
0.0116162
0.00683475
0.00706255
0.00800958
0.0069057
0.000835802
0.00726719
0.00737041
0.00684451
0.0102193
0.00147311
0.0250236
0.00674839
0.0325068
0.00690482
0.00157713
0.00675809
0.00667355
0.00688623
0.0068266
0.0139597
0.0066789
0.00666687
0.000757361
0.00698662
0.0018316
0.00785002
0.00670596
0.000929929
0.00697946
0.00667043
0.00149369
0.0245578
0.00707874
0.00555831
0.00880572
0.00801455
0.00722688
0.00282188
0.00667649
0.00683106
0.00207186
0.00148812
0.00178101
0.00658527
0.0332588
0.00177182
0.0252225
0.00666681
0.00788196
0.0155139
0.0154467
0.000700338
0.00669986
0.00671703
0.00689966
0.0038908
0.00666791
0.00671086
0.00698955
0.00670314
0.00697181
0.00701964
0.00676393
0.00627528
0.0076381
0.00507839
0.00683006
0.0061992
0.00173625
0.00670658
0.0058333
0.00759694
0.00866326
0.00683276
0.00171582
0.00714025
0.0133838
0.00671162
0.00146283
0.00674669
0.00613287
0.00676925
0.00211391
0.00671241
0.00783016
0.00996427
0.0071451
0.00670897
0.00673826
0.0164246
0.00668064
0.00513273
0.00512335
0.000880795
0.00683984
0.00478719
0.0262672
0.00458381
0.00672315
0.00695122
0.0197413
0.017051
0.00105147
0.0167692
0.00685501
0.00585022
0.00169857
0.00164895
0.00245439
0.0152423
0.0068235
0.00669915
0.00674706
0.0236849
0.0067022
0.00762706
0.00670287
0.00671893
0.00670368
0.00158223
0.0190924
0.00676041
0.00564845
0.0289178
0.00162373
0.00172686
0.00675661
0.00676338
0.00565368
0.0023496
0.0067269
0.00668962
0.00478561
0.00672892
0.0067165
0.00445493
0.00667924
0.0185587
0.00670631
0.00169063
0.00850534
0.0126692
0.00670231
0.00164344
0.00675541
0.00669297
0.0289909
0.00666754
0.020544
0.000980901
0.00667897
0.00778971
0.00149899
0.00941029
0.00624815
0.00686833
0.00668968
0.00666744
0.00678434
0.00794862
0.00674204
0.0168298
0.00671908
0.0067938
0.0105628
0.00193953
0.00809627
0.00728172
0.00669638
0.0105761
0.0180221
0.00800721
0.0147626
0.00670946
0.00154305
0.00671286
0.00668132
0.00674959
0.00673537
0.00672875
0.00684688
0.0142183
0.00674078
0.00349072
0.00669941
0.00802363
0.00667142
0.00176139
0.00942948
0.00667801
0.00670112
0.00533425
0.00485223
0.0066726
0.0208486
0.00671761
0.00731473
0.00667835
0.0068466
0.00669071
0.00221662
0.00667175
0.00673063
0.00678616
0.021583
0.00734077
0.00674607
0.00685725
0.00873646
0.00670409
0.00670924
0.00673015
0.00670952
0.00222914
0.00670978
0.0076867
0.00672094
0.00807499
0.0155846
0.0102678
0.00684856
0.00225628
0.00673188
0.00720928
0.00679846
0.0157859
0.00770043
0.00963133
0.00732017
0.0258118
0.00670868
0.00672228
0.0295167
0.00765391
0.00741444
0.000445028
0.00673146
0.0205752
0.00670015
0.00672573
0.00671497
0.00667939
0.00686415
0.0297021
0.00518308
0.00717714
0.00398303
0.00671468
0.00600939
0.00677374
0.00501889
0.00840232
0.00682707
0.0158221
0.00674111
0.00672721
0.00457007
0.006721
0.0067277
0.0070142
0.0067066
0.00669411
0.00584926
0.00588824
0.0165126
0.00672318
0.00671259
0.00670499
0.0205997
0.00401456
0.00677804
0.00678729
0.00670378
0.0254448
0.0016935
0.00693623
0.00654302
0.00693477
0.00979632
0.00152771
0.00686764
0.00160885
0.0268141
0.00754547
0.023255
0.00670006
0.00685263
0.00674748
0.0301998
0.00669825
0.00199555
0.00676275
0.00666787
0.00825172
0.00681025
0.00186511
0.00811676
0.00667621
0.00670157
0.00666643
0.00583446
0.00667935
0.0116933
0.00687342
0.00153467
0.00671011
0.00679114
0.0066782
0.00669879
0.00671805
0.00668501
0.00671183
0.00675209
0.00588449
0.00225592
0.00565318
0.00670793
0.00516258
0.0248381
0.00685063
0.00225906
0.00669815
0.00676236
0.0068864
0.0069277
0.0142474
0.00676206
0.00683722
0.00671233
0.010019
0.00677507
0.0316699
0.00102408
0.00671398
0.00279525
0.0287775
0.00676872
0.00670616
0.000506689
0.00710892
0.0116767
0.0069948
0.00672307
0.00650859
0.00672126
0.00672462
0.00678783
0.0018229
0.00690626
0.0280366
0.00143513
0.00666815
0.00678806
0.00679456
0.00178199
0.00710065
0.0112366
0.0067354
0.00673081
0.0067729
0.00670824
0.000554642
0.00155208
0.00695202
0.0332284
0.00732331
0.00672243
0.00683343
0.00166709
0.00676469
0.00901404
0.00674684
0.00168586
0.00188853
0.017567
0.00681563
0.00170961
0.00681843
0.00675949
0.00103792
0.0066762
0.00163742
0.00674025
0.00674408
0.00680765
0.00674093
0.00362856
0.00109814
0.00694289
0.00672652
0.00551833
0.0066785
0.00671156
0.00669923
0.00666735
0.00692393
0.00779811
0.00422284
0.00788923
0.00681878
0.00671764
0.0081079
0.0050331
0.0067021
0.00674607
0.00666659
0.024695
0.0259558
0.00203503
0.00672018
0.00118585
0.00436417
0.00316039
0.00684186
0.0268062
0.0016322
0.00927726
0.00724683
0.00668641
0.00681052
0.00323222
0.00221049
0.00674266
0.00456359
0.00666233
0.0334949
0.013979
0.00677647
0.00682702
0.0163664
0.00503627
0.0194452
0.00173935
0.0104905
0.00482935
0.0201096
0.00672043
0.00784588
0.00694726
0.00690371
0.00667802
0.006728
0.00670208
0.0152276
0.00674749
0.00666881
0.0104798
0.00671616
0.00144849
0.006854
0.0283958
0.00705247
0.0051381
0.00679261
0.00676993
0.00671319
0.00180786
0.00669477
0.00966646
0.00665879
0.0052604
0.00675362
0.0159418
0.0066929
0.000575504
0.00661582
0.00693183
0.0067163
0.00666986
0.00677171
0.00683503
0.0108399
0.00118787
0.00670786
0.0166786
0.00684966
0.00676839
0.0155163
0.00666839
0.00676909
0.0154688
0.00669631
0.012646
0.00384192
0.00260511
0.00149594
0.00145501
0.00776732
0.0067232
0.00995871
0.0101452
0.00670077
0.00167346
0.0016155
0.00907631
0.00312113
0.00732894
0.00672697
0.00684166
0.00673297
0.00711908
0.0224541
0.00222626
0.00666761
0.00102231
0.00729791
0.0256213
0.00666802
0.00666647
0.00721417
0.00673561
0.0148128
0.00275595
0.00674653
0.00185816
0.00248487
0.00679439
0.00690452
0.0023739
0.00339297
0.0114547
0.00693273
0.00684039
0.00672458
0.00754165
0.00165201
0.00499163
0.00676955
0.0164567
0.0118056
0.0173564
0.00238708
0.00361297
0.00282462
0.00087076
0.014508
0.00124079
0.00672205
0.00673161
0.0177235
0.00890875
0.00688629
0.00196736
0.00081728
0.00675162
0.00425468
0.00689126
0.00673763
0.00715599
0.00094194
0.00672265
0.00670277
0.0150531
0.00672474
0.00672142
0.00166763
0.00173515
0.0104782
0.00696001
0.00683764
0.0175623
0.00116641
0.00690786
0.00108438
0.02283
0.00670567
0.00668523
0.00175604
0.00625074
0.00670227
0.00680968
0.00672895
0.00676027
0.00680297
0.00625951
0.00680275
0.00778742
0.00672267
0.001843
0.00682383
0.00673912
0.00686461
0.0207133
0.00109447
0.00671726
0.00697693
0.00372244
0.00760279
0.00682385
0.00552542
0.0231038
0.00670872
0.00843481
0.00472319
0.00680627
0.00329477
0.00669842
0.00493626
0.00154625
0.00749429
0.00696681
0.00537356
0.00153315
0.00770825
0.00670803
0.00670002
0.000761498
0.00668033
0.00669946
0.0191354
0.00681795
0.0153311
0.0066873
0.00670353
0.00672391
0.00189702
0.00683001
0.00697163
0.00769557
0.00670117
0.00680941
0.0138085
0.00674451
0.00369011
0.00692654
0.0128476
0.0103279
0.00698028
0.0169242
0.00207968
0.00672682
0.00366044
0.00582651
0.00672741
0.00667006
0.0066995
0.00709868
0.0179623
0.00155682
0.014092
0.0141715
0.00815566
0.00324227
0.0101736
0.00236351
0.0157591
0.00667857
0.00135047
0.00672488
0.00682014
0.00662508
0.00410292
0.0169635
0.00671935
0.00328305
0.00671607
0.00400569
0.00682844
0.00264698
0.00706905
0.00788758
0.00459833
0.00671673
0.00667573
0.00177824
0.000566895
0.00831778
0.00814879
0.00441423
0.0068417
0.023209
0.0127826
0.00669466
0.00669714
0.00670967
0.00211109
0.00703367
0.0052348
0.00684173
0.00714209
0.00683958
0.00682372
0.00704472
0.0159152
0.0328856
0.00668954
0.0031726
0.00329817
0.000719015
0.00163714
0.00530543
0.00669367
0.000724958
0.00179451
0.00673454
0.00100234
0.00351083
0.00673343
0.00669868
0.00728207
0.0352155
0.0142664
0.00672892
0.00207721
0.00680365
0.00673286
0.0018027
0.00676001
0.00694448
0.00672006
0.00700892
0.00706273
0.00521018
0.00705087
0.00682637
0.00670681
0.00686814
0.00670285
0.014088
0.00667593
0.00200366
0.00949396
0.00571307
0.00668715
0.0228753
0.00678803
0.003236
0.00690457
0.0049082
0.00667624
0.00645087
0.00182975
0.00164674
0.00671746
0.0081424
0.00633305
0.0167607
0.00682355
0.00834851
0.0067407
0.0167278
0.0362587
0.00685912
0.000837669
0.032408
0.00114128
0.0072526
0.00143993
0.0362399
0.00669888
0.0073455
0.00828678
0.00100293
0.00670657
0.0145448
0.00550278
0.00669802
0.0068179
0.00814741
0.000944205
0.00188985
0.0113644
0.00149967
0.020104
0.00407278
0.00670583
0.00691951
0.00213266
0.0307536
0.00153205
0.0121747
0.00677515
0.00532367
0.00114556
0.0232097
0.00124884
0.00669946
0.00711265
0.0145422
0.00692831
0.00484516
0.00675044
0.000980838
0.00686934
0.00674758
0.003448
0.00791321
0.00670728
0.00469241
0.00669719
0.0173052
0.00694554
0.00162662
0.00580546
0.00670509
0.00683539
0.00667583
0.00116781
0.00678087
0.00809006
0.00716236
0.00683573
0.0142625
0.00589004
0.00140888
0.0357526
0.00691207
0.00329678
0.00685594
0.00671763
0.00178613
0.0184504
0.00622934
0.000859543
0.00706637
0.0308152
0.00672393
0.00696805
0.00684865
0.00689385
0.00178468
0.0132036
0.00686493
0.00713122
0.0107269
0.00334135
0.0026757
0.0187851
0.00151858
0.00770174
0.00669848
0.00667103
0.00313152
0.00683717
0.0169641
0.00808641
0.0022354
0.0243913
0.00678699
0.00699881
0.00189134
0.00841445
0.00673095
0.001746
0.00714216
0.00675335
0.000582982
0.00460704
0.00679174
0.000753173
0.00243951
0.0068911
0.00278765
0.00669764
0.00688412
0.0190313
0.00118009
0.0161885
0.00671633
0.00142428
0.00670356
0.00670802
0.0207601
0.00672049
0.00678946
0.00574537
0.00547485
0.018813
0.0011931
0.00849605
0.00666677
0.00652023
0.000521496
0.00229761
0.00288697
0.00728756
0.00670843
0.0102287
0.00271395
0.0179421
0.000994643
0.00669194
0.00234112
0.00666675
0.0119552
0.00669662
0.0121207
0.00675985
0.00669223
0.00668579
0.0128175
0.00669455
0.00676765
0.00668304
0.00670267
0.0067082
0.00423073
0.00226965
0.00682464
0.00167051
0.00672977
0.00669591
0.00669131
0.00304275
0.00659669
0.00189949
0.00673058
0.00669217
0.00671592
0.00228305
0.00194165
0.00668259
0.0185778
0.00614302
0.0121907
0.00679234
0.00670423
0.00670716
0.00300018
0.00669965
0.00614215
0.00670983
0.00669785
0.00695275
0.0069461
0.00775447
0.0224395
0.00862539
0.00679866
0.00669717
0.00675236
0.0038328
0.00692468
0.00128868
0.00704037
0.00669695
0.00672924
0.00670227
0.015884
0.00677838
0.0147512
0.0223417
0.000624352
0.00671529
0.00186316
0.0220905
0.00248881
0.00104837
0.00691895
0.000989122
0.00669887
0.0017171
0.00909159
0.0283903
0.00672776
0.00672004
0.0146215
0.0020774
0.000667803
0.0070698
0.00819394
0.00671281
0.00182632
0.00714924
0.0112854
0.000861422
0.00685516
0.00675835
0.00685584
0.00672758
0.00478688
0.0215046
0.00288725
0.0066963
0.00196225
0.006903
0.0151583
0.0161729
0.0067068
0.0223441
0.00596948
0.0066986
0.00194486
0.00112175
0.00680296
0.0196241
0.00669492
0.00495174
0.00713357
0.00249173
0.00179538
0.000729445
0.00673241
0.00176782
0.00616675
0.00670137
0.00668386
0.00674546
0.00629116
0.00627145
0.00114011
0.0172363
0.00868508
0.00117198
0.00761278
0.00678245
0.00276504
0.00671521
0.0201858
0.00104643
0.0071315
0.000832467
0.0284709
0.010434
0.00667914
0.00678491
0.00668258
0.00195764
0.00690488
0.014334
0.00210146
0.005398
0.00157611
0.00679198
0.00677453
0.00672213
0.00667754
0.00820284
0.0124885
0.0118682
0.00673953
0.00708362
0.00256655
0.00695594
0.00109649
0.00671244
0.0198345
0.0177044
0.00677698
0.00681594
0.0188604
0.00155802
0.00687021
0.0136526
0.00683885
0.0229122
0.00691644
0.0142437
0.00669555
0.00766178
0.00686776
0.00748098
0.00689684
0.0187939
0.0114332
0.00327869
0.000681659
0.00507539
0.00679118
0.0071953
0.0162376
0.00853137
0.00113239
0.00156148
0.0190791
0.00668095
0.0284091
0.000789982
0.0163632
0.00315458
0.00101337
0.00932432
0.00686352
0.00358168
0.00713945
0.00672651
0.00669111
0.00670284
0.00675925
0.00182549
0.00543436
0.00865003
0.00111392
0.00122742
0.00881115
0.0174634
0.00675259
0.00675407
0.0176749
0.00488087
0.0018448
0.0153088
0.00233193
0.0173086
0.00669898
0.00105632
0.00251586
0.00108922
0.00221425
0.0317049
0.0161397
0.000566492
0.00676967
0.00684599
0.00750765
0.00483497
0.000605638
0.0198483
0.00669639
0.0070454
0.00322143
0.0136879
0.00285546
0.00669693
0.00669592
0.00351371
0.0085569
0.00768459
0.00674213
0.000975314
0.00633884
0.00691118
0.00336904
0.00705376
0.00122508
0.00701561
0.00124116
0.00203707
0.00669933
0.00674972
0.00727706
0.0011312
0.000981255
0.00104854
0.00527113
0.0034853
0.00673701
0.0138177
0.00121995
0.00286493
0.00673273
0.00499786
0.00692348
0.022436
0.00399482
0.00128182
0.00670884
0.00145952
0.00251975
0.000590934
0.00030649
0.00691913
0.00698577
0.0182755
0.00696409
0.0221886
0.00197482
0.00672875
0.0034187
0.00240243
0.00670902
0.00714747
0.00673123
0.0177558
0.0245834
0.00504134
0.00327118
0.00669902
0.00670157
0.00671389
0.00213624
0.0066732
0.00679245
0.0066958
0.00669724
0.00275383
0.0068561
0.00696356
0.00683459
0.00185928
0.0067195
0.000741218
0.00626972
0.00671847
0.00586156
0.00669876
0.00139037
0.0111063
0.00676148
0.00594792
0.000807759
0.00785683
0.00712802
0.00123735
0.0013325
0.00688289
0.0156232
0.00672125
0.0172106
0.00672574
0.00676866
0.00674117
0.00353324
0.00387734
0.016333
0.00674978
0.002846
0.00669356
0.00286885
0.00636719
0.00671821
0.00670971
0.000688133
0.00700978
0.0172065
0.00937904
0.00594125
0.0012416
0.0067132
0.00161624
0.00441558
0.00670869
0.00581975
0.00197612
0.00284776
0.00684832
0.00307179
0.00603091
0.00380705
0.000751378
0.00136053
0.00129005
0.0186276
0.00854238
0.00349317
0.00272579
0.000661063
0.00669624
0.00280385
0.00780042
0.00376443
0.00823429
0.00348295
0.0182769
0.00673672
0.00674494
0.00063381
0.00323744
0.00264778
0.00688389
0.00173915
0.0180091
0.006885
0.00682354
0.00677667
0.0126766
0.000250514
0.00228543
0.00680283
0.0066903
0.00716113
0.00677126
0.00770344
0.00669695
0.00675516
0.00672066
0.00748205
0.00129923
0.00678366
0.00180982
0.00668174
0.00588854
0.00937546
0.00303183
0.00235139
0.00731419
0.00676809
0.0143315
0.00669866
0.00669088
0.00575705
0.00771517
0.00668909
0.0172582
0.00596403
0.00671085
0.0191316
0.0182356
0.00326953
0.00829365
0.0248765
0.00198962
0.00669388
0.00338213
0.0207472
0.00140716
0.0222949
0.00488259
0.00107321
0.00684745
0.00488459
0.0066895
0.00425292
0.00587068
0.00669748
0.00195377
0.00675914
0.00467609
0.00292008
0.00680376
0.00672224
0.00669751
0.00667664
0.00405555
0.00673865
0.000669683
0.000903891
0.00673413
0.00669498
0.00671329
0.00285271
0.0056848
0.00669492
0.00993788
0.00850198
0.00665861
0.018265
0.00672997
0.00669726
0.00668967
0.00673111
0.00674066
0.00678727
0.00675243
0.00404184
0.00674034
0.000557528
0.00338985
0.00242493
0.00117977
0.00671276
0.00883508
0.00668266
0.00674533
0.00128528
0.00669611
0.00921407
0.00670107
0.00113165
0.0195331
0.00668843
0.00800218
0.0245098
0.00672559
0.00679843
0.00676007
0.0102397
0.00672685
0.019266
0.017873
0.00723407
0.00147415
0.00109164
0.000414001
0.00684004
0.00665025
0.00673703
0.00323406
0.0048635
0.00239669
0.0244245
0.00692084
0.00107383
0.0112732
0.00130279
0.00672145
0.000544221
0.00360568
0.000714676
0.00669459
0.00690486
0.0210845
0.00158445
0.00602857
0.000750277
0.00708949
0.00561952
0.00668647
0.00692169
0.00672292
0.0017103
0.000806293
0.004809
0.00603998
0.000923547
0.00180368
0.0199987
0.00706006
0.00669646
0.00685094
0.00677801
0.00693888
0.00195045
0.00670774
0.0170137
0.00163273
0.00678991
0.00672646
0.00670699
0.00670586
0.00437973
0.00673523
0.000963758
0.00640872
0.0120852
0.0069836
0.00675795
0.00667204
0.000627805
0.00692672
0.0011748
0.0176795
0.0142415
0.00215441
0.00559176
0.00670831
0.00669545
0.00670999
0.0125991
0.00679635
0.00676816
0.0210304
0.00672083
0.00484096
0.00145405
0.00885809
0.0137847
0.00678812
0.022238
0.0203226
0.0067004
0.00672754
0.00199718
0.00823495
0.00159373
0.014117
0.00190392
0.00672824
0.00669364
0.00784733
0.00182072
0.00675939
0.0068456
0.00675252
0.00300713
0.0308231
0.0173254
0.00703613
0.0015988
0.00371535
0.00438079
0.0154899
0.00672396
0.00669505
0.0067129
0.00775446
0.00669439
0.00209932
0.0163437
0.00153503
0.00669771
0.00671252
0.00667377
0.00673168
0.00684469
0.00162957
0.00512473
0.00485768
0.00200145
0.0141419
0.0101627
0.00702424
0.00545683
0.00673143
0.00670308
0.00669609
0.00670723
0.00673928
0.015063
0.0147086
0.00691202
0.00668764
0.00678485
0.00679327
0.0136535
0.00167289
0.0171228
0.0201586
0.00243063
0.00100454
0.00670606
0.00673731
0.00670499
0.00677571
0.0162011
0.00672525
0.0021953
0.0081238
0.0117941
0.0211757
0.00612802
0.00195854
0.0174554
0.0067078
0.0016915
0.0163884
0.0236044
0.00672949
0.00697486
0.00674735
0.00673419
0.00673621
0.0125541
0.00672125
0.00673321
0.0221339
0.00235711
0.0167332
0.00670699
0.00668853
0.0016803
0.00872541
0.00691199
0.0210492
0.00694745
0.0135986
0.000885512
0.00669787
0.0102375
0.0067012
0.00250026
0.00673447
0.00670914
0.0183441
0.0120438
0.00171206
0.00141799
0.0204438
0.00737094
0.0238547
0.00670004
0.00677663
0.00911364
0.00670829
0.00674527
0.00288633
0.00672756
0.0104427
0.00672805
0.0112354
0.00226467
0.00667817
0.013165
0.00682298
0.00670161
0.00487144
0.00560317
0.00618269
0.00636839
0.00703793
0.0100353
0.00677049
0.00670681
0.00672285
0.000751105
0.013413
0.00669473
0.00674158
0.0053988
0.0120987
0.00670085
0.0070629
0.00708029
0.00681336
0.00672129
0.00674306
0.00892849
0.0010484
0.00709421
0.00409438
0.00670782
0.00175891
0.00949771
0.00676484
0.00992119
0.0166205
0.00672392
0.00172416
0.0221596
0.0195366
0.00130038
0.00667732
0.00670444
0.0111877
0.0020161
0.0219298
0.00179617
0.0187431
0.00401697
0.0154096
0.00546525
0.00266008
0.0107667
0.016467
0.0161625
0.0192135
0.00677398
0.0164722
0.00692314
0.0159232
0.00354031
0.0054276
0.00711821
0.00615803
0.0236104
0.00685261
0.00675888
0.00855618
0.00949445
0.0207764
0.00669242
0.0067431
0.00671675
0.00215117
0.0068245
0.000857087
0.0166446
0.0274416
0.00230856
0.00694297
0.00112727
0.00674574
0.00671736
0.00802196
0.00676875
0.00259066
0.00671784
0.0065163
0.000887995
0.0209601
0.00696057
0.00821206
0.0214366
0.00108399
0.0205626
0.00195774
0.0189289
0.0148993
0.00669811
0.00672875
0.000977439
0.0067213
0.00680376
0.00673222
0.00678426
0.00182646
0.00702912
0.00669691
0.00568904
0.00687247
0.00792088
0.0059419
0.014489
0.00460238
0.00702202
0.00131715
0.0181184
0.00695343
0.0158605
0.00216464
0.00676901
0.0067289
0.0069749
0.00185986
0.0120663
0.00669772
0.00684797
0.0128773
0.00670694
0.00669517
0.00682427
0.00669373
0.0224386
0.00673588
0.00109414
0.00674681
0.00135386
0.0067059
0.00209777
0.0195038
0.0111185
0.0171051
0.00669275
0.00713536
0.0067764
0.00672463
0.0183134
0.00695949
0.00659272
0.0179411
0.00669372
0.00409459
0.0025329
0.00672385
0.0222807
0.00670147
0.00124273
0.0216735
0.0149297
0.00518453
0.0067064
0.00679367
0.0177044
0.00688242
0.00420672
0.00617565
0.0196827
0.0182072
0.00722784
0.00673492
0.00669977
0.00680368
0.00791104
0.00684577
0.00722831
0.00671219
0.00676957
0.00837729
0.00669927
0.00810255
0.00631139
0.00676343
0.00711789
0.00252029
0.00669058
0.00692379
0.0170175
0.0067339
0.00673589
0.000746739
0.00840211
0.0021443
0.00699098
0.00669375
0.00506079
0.0227234
0.00178558
0.00675244
0.00669067
0.00239617
0.00675775
0.00378982
0.0129692
0.014734
0.0119424
0.00671379
0.00646121
0.00670321
0.0025048
0.00672933
0.00663751
0.0265999
0.00673135
0.0203139
0.00670863
0.00145719
0.000852419
0.00668796
0.00688991
0.00670303
0.00669651
0.00671366
0.00667121
0.00712543
0.0160034
0.00676276
0.00668761
0.000605758
0.00667721
0.00682282
0.00492425
0.00670186
0.00671963
0.0121064
0.00311997
0.00668905
0.0036982
0.00430352
0.00672523
0.0138285
0.0153041
0.00672727
0.0067067
0.00683931
0.00326547
0.00676947
0.00626065
0.00449136
0.00172311
0.00669342
0.00396058
0.0253799
0.00677682
0.00991422
0.00670636
0.00671788
0.006699
0.00670091
0.00669715
0.00671991
0.010991
0.0202009
0.00668842
0.0069966
0.0069196
0.00379701
0.00270827
0.00129486
0.0067182
0.00633351
0.00674952
0.00426541
0.0296094
0.00734551
0.00670095
0.00686771
0.00709759
0.00614937
0.0174401
0.00358482
0.00669918
0.0123644
0.0153044
0.0235653
0.00714646
0.00882392
0.00278286
0.0066987
0.00303505
0.00675168
0.00378019
0.00153927
0.00672577
0.00670954
0.00861246
0.00669215
0.00134097
0.0175895
0.00644265
0.00673232
0.00206381
0.00670571
0.00611701
0.00668386
0.00868865
0.00164102
0.0136116
0.00670731
0.00670031
0.0053159
0.012956
0.0211026
0.0184958
0.0117594
0.00705754
0.00671737
0.00688924
0.00245143
0.00670765
0.00669684
0.0071335
0.00669875
0.00158045
0.0039682
0.00670853
0.00410467
0.00669867
0.00670136
0.0066822
0.00672098
0.006707
0.0106275
0.00671596
0.0110435
0.00673525
0.00673956
0.00679306
0.00681351
0.00670162
0.00671526
0.00697997
0.00669474
0.00656121
0.010064
0.00527687
0.00682536
0.0059027
0.00310504
0.00674616
0.00667674
0.00670577
0.00667716
0.00271308
0.00828106
0.00689336
0.00371692
0.0186256
0.0050608
0.0239396
0.00682663
0.00669788
0.0067754
0.00418318
0.00223095
0.0117041
0.00275926
0.00707789
0.00511538
0.00509356
0.00676812
0.00670043
0.00669224
0.00133938
0.00127291
0.0037648
0.00429954
0.00124092
0.00669564
0.00278915
0.00670243
0.00382469
0.00676374
0.00892244
0.00522388
0.00809047
0.00105069
0.00651086
0.00707156
0.00480404
0.00206392
0.0172536
0.00669779
0.00669375
0.00672354
0.00672195
0.00487035
0.00670783
0.00678415
0.0019624
0.00668928
0.0131487
0.0182767
0.00443188
0.00677922
0.00676822
0.00559013
0.00678491
0.00670011
0.00670627
0.0107675
0.00670667
0.00671848
0.00810298
0.0070315
0.00906612
0.0258884
0.0307899
0.00126614
0.00671386
0.00678362
0.00140164
0.00669851
0.00670823
0.0242017
0.0119246
0.00676345
0.00672964
0.00669491
0.00468685
0.0058129
0.0067247
0.00448703
0.00677675
0.00668595
0.00671295
0.00394564
0.00693918
0.00670376
0.00669493
0.00676223
0.00669066
0.00187757
0.0279609
0.00696
0.00672833
0.00673953
0.00677158
0.00671858
0.0120472
0.00670808
0.016426
0.00549295
0.006698
0.00669377
0.0187772
0.00669002
0.00670923
0.00669792
0.00615392
0.0071438
0.00724007
0.00670349
0.00668401
0.00672372
0.0163331
0.00671977
0.00675875
0.00117667
0.0114045
0.00678081
0.0066788
0.00501006
0.0066702
0.00586716
0.0066965
0.00673969
0.00669514
0.00672524
0.00674457
0.0176864
0.000747843
0.0258162
0.000540079
0.00479414
0.00285482
0.00674461
0.0306353
0.00555954
0.00686479
0.0206321
0.00339523
0.00714755
0.00670455
0.0251143
0.00676828
0.00670093
0.00675546
0.00124345
0.0196068
0.0020145
0.0278071
0.0069991
0.00334173
0.00670792
0.0026274
0.000785652
0.00802339
0.00347211
0.00695846
0.00672578
0.000873822
0.0191648
0.00670119
0.0173251
0.00461508
0.00297584
0.00669333
0.00669484
0.00169319
0.00167555
0.0014754
0.0137838
0.00138804
0.00669678
0.0067443
0.00353848
0.0238829
0.0131333
0.00669334
0.00691749
0.00669096
0.00669629
0.00669726
0.012568
0.00176778
0.000235036
0.00179409
0.00843881
0.00829356
0.0067005
0.00672774
0.00703399
0.00672038
0.00214569
0.0067109
0.00678666
0.00675657
0.00669434
0.00207996
0.0130593
0.00688913
0.00670162
0.00671109
0.0167003
0.00513812
0.00265537
0.00511146
0.012452
0.00682064
0.00672174
0.00174879
0.00497991
0.0066993
0.00950996
0.00674095
0.00672676
0.00671808
0.0308435
0.00669478
0.00669138
0.00704891
0.00678448
0.00671592
0.00670581
0.00861634
0.0112967
0.0294183
0.00680232
0.00671185
0.0161317
0.00671545
0.00671477
0.00669353
0.00627908
0.00670686
0.0158802
0.00667675
0.00670065
0.00165411
0.00383333
0.00670079
0.0049679
0.0155581
0.023918
0.00669963
0.00666739
0.00669332
0.0161401
0.00706453
0.00703008
0.0225177
0.00672403
0.00668314
0.00637718
0.00676866
0.00574109
0.00670585
0.00671605
0.00670267
0.00220418
0.0107768
0.00674463
0.00669704
0.00671391
0.00793585
0.000662853
0.0254667
0.00693703
0.00608547
0.00677499
0.00671135
0.0234982
0.0112234
0.00670609
0.00673098
0.00612199
0.00189711
0.00669427
0.0067086
0.00669258
0.00672587
0.00670766
0.0227745
0.0068456
0.00712572
0.013625
0.00872177
0.00675763
0.00790416
0.00692007
0.00371153
0.0071289
0.00312122
0.00671487
0.00682839
0.00670405
0.0068933
0.0118323
0.00734608
0.00128613
0.015739
0.0067407
0.0068905
0.0061056
0.0322522
0.00443382
0.00669676
0.00668944
0.0244153
0.00670163
0.00669189
0.00690218
0.00237175
0.0066954
0.0103585
0.0166877
0.00669661
0.00693174
0.00688572
0.00671436
0.0067514
0.00669471
0.00673792
0.0206698
0.00506721
0.00692169
0.00669134
0.00671649
0.00669873
0.00670594
0.00774944
0.00325103
0.00435235
0.0058955
0.00673539
0.00669974
0.00184372
0.0066931
0.0066816
0.00694401
0.0114912
0.00669873
0.00517241
0.00699561
0.00619258
0.0068784
0.00687295
0.00956194
0.0251864
0.00673085
0.00671545
0.0064034
0.0067284
0.0259176
0.00669967
0.00698582
0.00690849
0.0067206
0.026396
0.00559222
0.0270907
0.0245754
0.00687674
0.00669166
0.00669348
0.0134315
0.0108258
0.00669563
0.00671073
0.00672058
0.00671783
0.0066874
0.024679
0.00669447
0.00668896
0.00673008
0.0068453
0.0044754
0.00140833
0.00706017
0.00669128
0.00668544
0.017789
0.00687296
0.0066693
0.0230433
0.00686338
0.00693094
0.00694192
0.00554762
0.00671521
0.00684433
0.00374526
0.00656632
0.00332595
0.00670398