/*--------------------------------*- C++ -*----------------------------------*\
| =========                 |                                                 |
| \\      /  F ield         | OpenFOAM: The Open Source CFD Toolbox           |
|  \\    /   O peration     | Version:  v2012                                 |
|   \\  /    A nd           | Website:  www.openfoam.com                      |
|    \\/     M anipulation  |                                                 |
\*---------------------------------------------------------------------------*/
FoamFile
{
    version     2.0;
    format      ascii;
    class       volScalarField::Internal;
    location    "200";
    object      V0;
}
// * * * * * * * * * * * * * * * * * * * * * * * * * * * * * * * * * * * * * //

dimensions      [0 3 0 0 0 0 0];


value           nonuniform List<scalar> 
10042
(
0.190982
0.0798997
0.0870279
0.136281
0.171378
0.145095
0.0585181
0.15839
0.188527
0.052432
0.141994
0.078755
0.0492105
0.15249
0.0844422
0.153989
0.116591
0.131647
0.0657748
0.0996845
0.048406
0.199808
0.14404
0.132382
0.165058
0.175848
0.0678276
0.19582
0.143286
0.110291
0.153303
0.0346634
0.175861
0.165665
0.156091
0.142098
0.172275
0.154309
0.145369
0.205028
0.141366
0.17644
0.0387048
0.107919
0.138962
0.122619
0.169332
0.103129
0.0509094
0.0442422
0.0403828
0.164633
0.11152
0.0607578
0.0643235
0.0338794
0.0467245
0.167095
0.083833
0.192609
0.0577308
0.0628515
0.0390497
0.149877
0.138196
0.151144
0.0877146
0.142414
0.126575
0.140204
0.0367705
0.105118
0.160797
0.0859917
0.150757
0.0349376
0.116937
0.160577
0.111236
0.0598603
0.0986956
0.126652
0.186953
0.16529
0.0729375
0.0498924
0.092752
0.0875425
0.139922
0.138818
0.0454111
0.0779165
0.0380847
0.0588743
0.132996
0.113276
0.0148279
0.0892882
0.115786
0.085613
0.0502342
0.0596691
0.0982331
0.0351074
0.0595809
0.0994924
0.0330779
0.159671
0.0547356
0.101751
0.114266
0.0543148
0.0744124
0.14857
0.137904
0.165438
0.109682
0.172661
0.158776
0.171908
0.170869
0.0648289
0.0652157
0.137385
0.10763
0.158105
0.119439
0.0620985
0.023934
0.117378
0.171095
0.128118
0.153885
0.134282
0.0466437
0.0427288
0.0899686
0.0339861
0.074997
0.123854
0.0430004
0.166604
0.0394056
0.198212
0.0615618
0.145276
0.0716426
0.164405
0.0928989
0.0847152
0.143423
0.164439
0.063646
0.0356771
0.13467
0.0604472
0.0280192
0.0325974
0.146114
0.130722
0.165901
0.185489
0.0427393
0.140885
0.0790461
0.116014
0.188922
0.0423544
0.168778
0.13544
0.138378
0.105792
0.0813601
0.160241
0.057851
0.07544
0.114013
0.172862
0.143509
0.116726
0.0788399
0.0501919
0.0801044
0.173317
0.180196
0.0423261
0.0955304
0.141104
0.0355575
0.154619
0.0695234
0.0477909
0.164682
0.0578592
0.0620124
0.0720244
0.0206106
0.145207
0.0180589
0.141905
0.0235609
0.0411298
0.0937533
0.128481
0.117515
0.13565
0.132301
0.0439839
0.113424
0.0980774
0.0371668
0.133149
0.0927336
0.0991636
0.176259
0.147056
0.15301
0.0993999
0.146898
0.0280827
0.0220829
0.137587
0.0271893
0.132844
0.111521
0.0362126
0.101193
0.0848063
0.0770449
0.071525
0.167713
0.120473
0.0426876
0.13185
0.110131
0.182532
0.0903326
0.0207447
0.0605056
0.136738
0.0967089
0.133326
0.17752
0.162622
0.0664657
0.171092
0.139158
0.0778982
0.0491735
0.144788
0.0648726
0.158328
0.105173
0.0526352
0.111418
0.0954889
0.128666
0.101883
0.0102107
0.150193
0.1312
0.151843
0.151923
0.173773
0.0407033
0.069612
0.13702
0.102483
0.154613
0.108541
0.100872
0.0421805
0.145211
0.0348538
0.106369
0.161602
0.066908
0.130089
0.147362
0.0571153
0.140199
0.143285
0.0187629
0.0744325
0.175122
0.0227965
0.108508
0.154689
0.164721
0.136324
0.0472808
0.111505
0.173762
0.13273
0.129372
0.120435
0.069403
0.10099
0.0956972
0.151921
0.0685022
0.0927839
0.127242
0.091153
0.0930449
0.0480581
0.156505
0.164342
0.0660076
0.123252
0.141993
0.13033
0.130897
0.112039
0.109677
0.164879
0.113903
0.143148
0.137659
0.160482
0.147864
0.035458
0.155384
0.12821
0.177384
0.168783
0.135669
0.128527
0.0919289
0.046031
0.135403
0.110972
0.161059
0.157241
0.135256
0.163451
0.0331716
0.126844
0.155248
0.118372
0.0415698
0.0480918
0.172181
0.144212
0.162633
0.172136
0.144285
0.156717
0.125453
0.0170903
0.0720602
0.135187
0.120683
0.144989
0.0708163
0.140093
0.101954
0.169784
0.0261265
0.166934
0.106087
0.158541
0.0765658
0.141229
0.107125
0.0730868
0.14451
0.127831
0.125537
0.0603841
0.145119
0.162395
0.140198
0.164122
0.0545575
0.130712
0.155933
0.0949977
0.0651076
0.0462877
0.113691
0.0921571
0.0780457
0.138172
0.0285288
0.165419
0.154775
0.165512
0.105313
0.148198
0.111583
0.0265856
0.0730185
0.143183
0.106159
0.0525874
0.136191
0.153909
0.129779
0.0266213
0.144695
0.0235447
0.148563
0.0707077
0.0238654
0.135187
0.0398724
0.147816
0.100187
0.112906
0.109253
0.0542293
0.13456
0.076602
0.149986
0.101106
0.07408
0.0609601
0.143842
0.0909495
0.152469
0.095204
0.163331
0.166354
0.0360659
0.101206
0.0852543
0.108469
0.126791
0.0470585
0.100168
0.139913
0.0536005
0.0990324
0.137467
0.0751364
0.0416375
0.152557
0.156903
0.0326294
0.163526
0.11446
0.0893976
0.031922
0.0380414
0.173403
0.141411
0.0403167
0.147983
0.169453
0.15388
0.0658638
0.0724761
0.0336961
0.109476
0.140232
0.140207
0.0261949
0.16498
0.137084
0.147926
0.119586
0.158954
0.158854
0.0984704
0.16937
0.159959
0.0648262
0.0911301
0.138261
0.0409892
0.134994
0.0267648
0.0402325
0.123479
0.126539
0.0405833
0.129547
0.0515571
0.100239
0.13745
0.077979
0.122633
0.140719
0.0571737
0.121764
0.152525
0.120575
0.159414
0.137067
0.139337
0.0800477
0.145971
0.147174
0.0935833
0.0402293
0.135975
0.148038
0.115309
0.0466958
0.104429
0.156937
0.141396
0.0840786
0.0524723
0.111779
0.158338
0.140201
0.0717903
0.0694713
0.0774174
0.136714
0.145658
0.132943
0.094797
0.122027
0.119976
0.0990298
0.123405
0.102466
0.129747
0.0718979
0.100122
0.0776361
0.0752123
0.1062
0.139494
0.0775481
0.106517
0.136305
0.11482
0.037692
0.109518
0.141502
0.0933534
0.0842623
0.111174
0.0716141
0.153885
0.0661351
0.122585
0.0773669
0.137649
0.0225816
0.122563
0.0436544
0.153568
0.132176
0.108947
0.173165
0.0922511
0.0501854
0.148474
0.134014
0.0269555
0.102317
0.13782
0.164773
0.138379
0.160935
0.161023
0.15842
0.0955059
0.0870226
0.118517
0.173274
0.0434614
0.0577324
0.145982
0.145102
0.13359
0.0474047
0.138193
0.137735
0.137107
0.0947653
0.0441806
0.140396
0.144922
0.14117
0.11582
0.106125
0.162985
0.020912
0.0836199
0.0649789
0.133164
0.145359
0.119811
0.0761539
0.104219
0.144563
0.129929
0.162995
0.136531
0.133025
0.0629226
0.116004
0.183279
0.152116
0.159916
0.140324
0.0223697
0.131859
0.137186
0.118796
0.0654273
0.125931
0.113656
0.152237
0.0709899
0.12786
0.0988723
0.166562
0.0969987
0.0745534
0.103093
0.139454
0.129356
0.0158915
0.0816604
0.109514
0.109702
0.0463702
0.126878
0.079588
0.123014
0.146668
0.0914729
0.124532
0.167333
0.131505
0.0897915
0.108631
0.0977462
0.0886429
0.13772
0.0278378
0.0813995
0.135143
0.136738
0.108234
0.133004
0.144548
0.162933
0.0978519
0.0654421
0.168477
0.0267698
0.121768
0.0796079
0.15052
0.0762858
0.134761
0.125644
0.137441
0.106027
0.0893235
0.0632762
0.101004
0.167936
0.133787
0.135217
0.137867
0.119523
0.0694828
0.0834365
0.105672
0.129442
0.134969
0.136745
0.0814034
0.129674
0.155144
0.15456
0.132032
0.0320803
0.146585
0.104062
0.138493
0.0181563
0.0390262
0.13551
0.0660636
0.138969
0.0487343
0.134957
0.141689
0.160213
0.10359
0.141057
0.144548
0.0454194
0.113738
0.165034
0.139232
0.126733
0.0270167
0.0157034
0.159448
0.132833
0.157858
0.15637
0.152553
0.0940748
0.123804
0.03469
0.129423
0.133565
0.125739
0.0989041
0.108415
0.139196
0.0945319
0.076216
0.141027
0.0615823
0.117141
0.128285
0.0874937
0.139956
0.126399
0.0274383
0.131276
0.129198
0.151383
0.131999
0.136511
0.0995442
0.10959
0.126962
0.0619437
0.124898
0.145173
0.0574614
0.132658
0.0464482
0.141271
0.158499
0.110536
0.0306911
0.161087
0.0937974
0.139299
0.103309
0.139869
0.0928604
0.0985386
0.108187
0.0682829
0.156302
0.131378
0.050025
0.155621
0.148967
0.112643
0.0866639
0.161676
0.121297
0.0762563
0.106098
0.0866521
0.138325
0.0326132
0.0696013
0.142714
0.133385
0.158582
0.134171
0.125861
0.0775086
0.141749
0.0526207
0.0803996
0.0895463
0.0434536
0.0902973
0.128405
0.0701621
0.143369
0.0751126
0.0626665
0.175973
0.0752404
0.132268
0.0795523
0.131305
0.163366
0.0639727
0.0515636
0.163196
0.0916784
0.164819
0.156493
0.127306
0.135016
0.166095
0.1411
0.130263
0.100199
0.152289
0.166962
0.107389
0.150917
0.0927432
0.153052
0.13433
0.159596
0.109444
0.131457
0.0524401
0.12973
0.065698
0.0399884
0.0263019
0.126576
0.0974489
0.0410236
0.113797
0.153507
0.136631
0.151752
0.128173
0.0784515
0.0810473
0.0254191
0.0931632
0.138341
0.137883
0.12365
0.0888965
0.0933769
0.101769
0.0635908
0.0612182
0.0222045
0.101109
0.130403
0.102222
0.147671
0.165095
0.0943398
0.135663
0.119117
0.132134
0.0664111
0.117796
0.160219
0.047016
0.10024
0.0503662
0.12306
0.132783
0.131087
0.0735033
0.106047
0.135083
0.11991
0.0396816
0.136617
0.0414969
0.095778
0.0866779
0.111683
0.0823827
0.138986
0.0304401
0.156352
0.147398
0.117908
0.151225
0.136284
0.130241
0.0945109
0.0802102
0.131057
0.0890219
0.142125
0.150249
0.136175
0.149695
0.120921
0.0906356
0.146347
0.0661542
0.0659175
0.0726183
0.0511448
0.0807977
0.132986
0.137745
0.0164787
0.0151168
0.131429
0.0677711
0.0282296
0.0421622
0.0410006
0.121524
0.11072
0.138682
0.107755
0.152103
0.130611
0.0457698
0.151822
0.0362647
0.120862
0.127899
0.183514
0.157813
0.119025
0.0796994
0.109452
0.119444
0.126487
0.0446507
0.121072
0.119225
0.158822
0.0292195
0.0695258
0.12914
0.149179
0.127473
0.0892426
0.128156
0.0794616
0.10163
0.12217
0.123819
0.0687805
0.0857807
0.0380608
0.0698736
0.0286382
0.0347901
0.129979
0.0336056
0.108463
0.106752
0.0900858
0.0923665
0.102161
0.0460076
0.0263547
0.12822
0.0882877
0.0810901
0.13561
0.147294
0.0325716
0.133013
0.127968
0.0183359
0.143186
0.12236
0.0700165
0.0472511
0.13727
0.168654
0.10308
0.0893946
0.059098
0.154543
0.0561608
0.130282
0.121774
0.16021
0.0462373
0.0821838
0.13524
0.126319
0.107679
0.135107
0.119295
0.0625412
0.110783
0.0942186
0.105994
0.0824038
0.151887
0.0650446
0.0835413
0.0919761
0.0484016
0.113251
0.104145
0.119746
0.150452
0.136438
0.0784213
0.127289
0.122633
0.142776
0.0957967
0.152786
0.0569727
0.134937
0.0993418
0.0406377
0.0922903
0.155116
0.0755859
0.0454467
0.151095
0.135971
0.143539
0.0324824
0.129833
0.143181
0.132411
0.129043
0.0648354
0.130995
0.146614
0.126371
0.0829127
0.126778
0.147833
0.04283
0.142581
0.105998
0.0673803
0.137658
0.0998767
0.14905
0.0636827
0.120854
0.0870969
0.119862
0.0703575
0.108359
0.0255525
0.0683056
0.131467
0.109702
0.129892
0.160629
0.0880397
0.0778815
0.146699
0.130129
0.150184
0.0823213
0.12655
0.0550182
0.13192
0.172147
0.0380449
0.0930438
0.145638
0.0855743
0.0233319
0.150185
0.120095
0.140911
0.118484
0.0464694
0.129541
0.0712652
0.130639
0.154249
0.12863
0.127407
0.142035
0.039422
0.0265011
0.140519
0.144695
0.113386
0.125122
0.134279
0.103016
0.135006
0.143899
0.131179
0.0853406
0.13075
0.0744878
0.156477
0.151246
0.124866
0.107672
0.153362
0.131929
0.142117
0.152677
0.066219
0.0566908
0.0267862
0.0619809
0.0858297
0.137951
0.0257509
0.0690204
0.115061
0.0475711
0.118186
0.0710585
0.142857
0.143486
0.141723
0.129167
0.126694
0.121237
0.150308
0.0826701
0.0373401
0.149303
0.151424
0.121182
0.150928
0.152498
0.163613
0.158987
0.151172
0.127646
0.147101
0.121105
0.147252
0.152412
0.086735
0.0513626
0.114911
0.142549
0.0877222
0.10865
0.0649263
0.100245
0.0947481
0.141878
0.0932944
0.0347011
0.0396732
0.0987568
0.165656
0.153017
0.130971
0.123797
0.153374
0.132897
0.131468
0.147451
0.10934
0.029206
0.1457
0.12459
0.0245347
0.0404944
0.148629
0.144906
0.125437
0.152729
0.0419315
0.124698
0.116279
0.0657493
0.136972
0.130312
0.145279
0.0406521
0.0852751
0.076262
0.0652488
0.132508
0.0457988
0.102997
0.137802
0.118183
0.133726
0.0735302
0.147468
0.0841869
0.110651
0.0537202
0.129615
0.062267
0.134935
0.0760179
0.0904286
0.102292
0.0957697
0.141484
0.0366794
0.144502
0.139292
0.116745
0.150685
0.117664
0.0625543
0.131934
0.130743
0.181651
0.0343596
0.134351
0.128424
0.13671
0.139191
0.0548715
0.16096
0.138289
0.129896
0.132584
0.128435
0.0849501
0.0447212
0.145661
0.0929401
0.0982837
0.146736
0.100928
0.0286957
0.148319
0.0981551
0.0331567
0.147756
0.136948
0.140588
0.164353
0.0950305
0.132873
0.0822284
0.131095
0.128491
0.161847
0.153183
0.0987151
0.0734061
0.148736
0.0401851
0.151736
0.132603
0.165632
0.124083
0.129169
0.0681506
0.14969
0.051114
0.144752
0.0870188
0.153159
0.0408141
0.150085
0.133763
0.0342749
0.156716
0.130749
0.0293514
0.062766
0.108189
0.0464716
0.0746066
0.128753
0.0577747
0.137902
0.15422
0.131634
0.0348053
0.127018
0.107678
0.0522882
0.132689
0.110873
0.150385
0.091589
0.136442
0.132923
0.0764964
0.117492
0.0273886
0.133734
0.154696
0.133814
0.0243771
0.0829011
0.0715224
0.128382
0.138391
0.0478356
0.0726527
0.132537
0.0378809
0.144086
0.124995
0.152569
0.0176815
0.137677
0.0797826
0.130005
0.14229
0.160051
0.141636
0.134066
0.11943
0.15082
0.133755
0.090096
0.088726
0.122415
0.15119
0.0487625
0.058655
0.138871
0.137922
0.140578
0.0241555
0.0431625
0.0867319
0.138577
0.157681
0.0745427
0.0468159
0.159752
0.131752
0.0569493
0.132587
0.151304
0.13422
0.124185
0.0571743
0.143402
0.0775697
0.108817
0.135004
0.132804
0.098172
0.146207
0.0601192
0.0141067
0.152277
0.134819
0.131881
0.0259
0.13596
0.0485533
0.156805
0.144517
0.111766
0.130948
0.0656229
0.112431
0.124063
0.15052
0.0270857
0.11078
0.0476816
0.149447
0.0539775
0.0603822
0.15353
0.043873
0.146408
0.0461183
0.0501656
0.143923
0.139316
0.0916933
0.0612475
0.0465554
0.0268926
0.154881
0.151129
0.112418
0.0465433
0.134023
0.0386401
0.0399881
0.14773
0.125135
0.15524
0.0901665
0.0846593
0.145026
0.122128
0.143424
0.0270381
0.138417
0.0766054
0.134676
0.0856583
0.0607316
0.0845783
0.137605
0.0670128
0.0555582
0.106219
0.131101
0.131326
0.0254137
0.148186
0.0284704
0.0389289
0.0408872
0.107529
0.0402561
0.0763251
0.131743
0.123629
0.120598
0.0493137
0.0657436
0.056538
0.132404
0.017654
0.0579629
0.141185
0.129186
0.0267031
0.151811
0.131053
0.0284826
0.0200345
0.0326534
0.149312
0.0367044
0.149359
0.104691
0.135384
0.0698864
0.161925
0.0891719
0.0463356
0.0242039
0.050433
0.113213
0.150813
0.0903565
0.106435
0.151952
0.0905572
0.0194752
0.140331
0.153274
0.0588627
0.0999492
0.0380577
0.098785
0.145031
0.130707
0.0793456
0.153208
0.13133
0.0502278
0.140047
0.110805
0.125623
0.144667
0.147879
0.018624
0.136562
0.149502
0.122123
0.156481
0.147699
0.0665228
0.146863
0.0270933
0.0290761
0.0958363
0.149618
0.147334
0.130084
0.152285
0.0373194
0.0418116
0.0188904
0.133296
0.141865
0.0351769
0.0667974
0.0951684
0.0477361
0.0901311
0.126371
0.0957718
0.154227
0.170566
0.147066
0.130259
0.0792809
0.0343326
0.0643671
0.152794
0.0396267
0.0383523
0.153516
0.130729
0.150789
0.0740878
0.130139
0.133654
0.0638679
0.131576
0.0282707
0.129747
0.134519
0.0470494
0.0731329
0.0406243
0.0824807
0.142148
0.149362
0.0275164
0.10421
0.133259
0.047239
0.135609
0.0307812
0.132362
0.136343
0.157116
0.0517919
0.0823271
0.053308
0.150345
0.137122
0.0582465
0.0639914
0.160394
0.0824349
0.0413915
0.139688
0.0717237
0.124159
0.156908
0.0583115
0.149226
0.0603204
0.0410919
0.119183
0.135002
0.161383
0.0545191
0.0371878
0.0520747
0.0658775
0.0689724
0.0799702
0.0682794
0.0613052
0.0479482
0.0813685
0.114818
0.150069
0.149458
0.0702577
0.0663715
0.098653
0.0383014
0.135872
0.0275808
0.0415971
0.150272
0.158706
0.145179
0.157725
0.151651
0.0411172
0.0862111
0.043578
0.0364883
0.115072
0.064932
0.0852999
0.0683129
0.134296
0.133423
0.0771041
0.13277
0.10994
0.111122
0.0619152
0.150503
0.102411
0.137414
0.137983
0.0638413
0.149019
0.130157
0.169326
0.0388385
0.0921323
0.0327669
0.0654495
0.0872424
0.0411423
0.11514
0.0321535
0.12572
0.10524
0.0770869
0.0331492
0.150489
0.16054
0.0350337
0.0525799
0.125159
0.0717198
0.141704
0.0189667
0.0902433
0.102624
0.1361
0.0268623
0.02571
0.120817
0.0693593
0.0662227
0.140881
0.0580525
0.0839414
0.133099
0.113688
0.0336952
0.143323
0.0829404
0.132542
0.0665439
0.0612577
0.0966541
0.0430066
0.0633416
0.125821
0.0675523
0.0354462
0.0279549
0.118814
0.0671151
0.0742275
0.0617251
0.0295761
0.0284033
0.0555547
0.0699525
0.148402
0.0570442
0.0533442
0.0306967
0.135124
0.0628123
0.134007
0.0596934
0.15338
0.0470724
0.13125
0.151231
0.0797552
0.0285454
0.0506209
0.0434797
0.176953
0.0689915
0.131736
0.124173
0.152712
0.103157
0.0182992
0.126163
0.0588503
0.101997
0.144288
0.141934
0.117966
0.149233
0.135879
0.152332
0.0912079
0.130235
0.0319446
0.103432
0.0395544
0.064381
0.0754069
0.0491869
0.0655507
0.059166
0.108583
0.0823546
0.0862807
0.137128
0.141331
0.0667393
0.133041
0.146957
0.150174
0.0750261
0.0919561
0.0706992
0.15013
0.0304133
0.149729
0.128674
0.0819243
0.14025
0.0688029
0.151406
0.0516692
0.0938498
0.0743324
0.0358957
0.135152
0.134819
0.142702
0.0249256
0.151093
0.135103
0.0697687
0.0827565
0.0427303
0.123122
0.102256
0.0922798
0.136299
0.121297
0.13907
0.0785679
0.126822
0.0368572
0.0807295
0.137023
0.105743
0.0382179
0.137114
0.138166
0.0432515
0.0905965
0.078141
0.148097
0.083093
0.1431
0.14243
0.0973049
0.152006
0.117273
0.0863443
0.0712768
0.0943444
0.0282155
0.0699564
0.117167
0.0521127
0.111055
0.04815
0.145325
0.151875
0.0605352
0.134892
0.118218
0.121564
0.0414797
0.0182281
0.143529
0.0439722
0.149208
0.102133
0.128598
0.139592
0.0497557
0.0876725
0.130378
0.131021
0.166595
0.048112
0.0603765
0.0755985
0.13646
0.133387
0.0807535
0.135809
0.0488682
0.0852596
0.124954
0.139624
0.0368799
0.125036
0.0361614
0.0918899
0.0277442
0.0683019
0.0289303
0.144307
0.136291
0.064022
0.0484931
0.151292
0.137883
0.157188
0.148867
0.143464
0.131647
0.0880278
0.0524479
0.0288273
0.138235
0.0266601
0.036527
0.0533555
0.0614415
0.152689
0.138678
0.170513
0.0754809
0.0994206
0.0476504
0.0998961
0.075319
0.0411204
0.116287
0.151525
0.122811
0.12502
0.0485281
0.139848
0.0285836
0.0928511
0.0630569
0.132331
0.171502
0.154154
0.0318601
0.133379
0.0285331
0.0654408
0.150564
0.0705468
0.0652385
0.113325
0.135849
0.133675
0.132223
0.089615
0.0816636
0.0700308
0.104573
0.0732553
0.0279285
0.0523965
0.0614764
0.155468
0.0655756
0.0720031
0.133691
0.139032
0.0853464
0.0652468
0.0383063
0.131794
0.0418245
0.11034
0.138144
0.149495
0.0703169
0.0846303
0.11949
0.0864986
0.0548778
0.141856
0.073072
0.131508
0.0437568
0.0990344
0.101254
0.0917244
0.0906235
0.136497
0.0965393
0.149924
0.138308
0.0498127
0.0800052
0.027329
0.145778
0.134108
0.152983
0.112736
0.141912
0.0758524
0.0903179
0.0647112
0.0401759
0.131759
0.0570771
0.151379
0.077811
0.100476
0.126186
0.136831
0.152165
0.0974143
0.0722711
0.0820977
0.150337
0.142771
0.0932542
0.101756
0.0588529
0.0891229
0.0861476
0.130608
0.13525
0.0423735
0.124763
0.129717
0.115513
0.101138
0.0666584
0.112721
0.0486654
0.0488746
0.0730258
0.147395
0.0481908
0.0389287
0.130635
0.124995
0.0881675
0.0634377
0.0684834
0.10262
0.132984
0.151696
0.0941139
0.0945396
0.0577655
0.127498
0.116307
0.0930167
0.0457168
0.0627289
0.111703
0.142711
0.0851463
0.0477243
0.13006
0.127955
0.114228
0.061966
0.0474617
0.138019
0.075685
0.123613
0.0461408
0.0961282
0.141215
0.0182901
0.067322
0.0275649
0.0414369
0.131439
0.133902
0.0958987
0.13423
0.0957202
0.0485978
0.115962
0.0899824
0.0722265
0.10549
0.0635836
0.0912673
0.0750377
0.141433
0.12664
0.0833145
0.124031
0.116774
0.147764
0.161801
0.157099
0.136703
0.153472
0.110637
0.0982272
0.121035
0.152679
0.0233287
0.142561
0.137473
0.100429
0.136031
0.066506
0.133905
0.154647
0.152905
0.15115
0.110747
0.12062
0.0662803
0.0384466
0.15773
0.0629741
0.117643
0.0801194
0.0778487
0.100932
0.0880261
0.068488
0.0913404
0.0838338
0.0623249
0.065031
0.0632981
0.16318
0.139295
0.072585
0.0846337
0.0606736
0.0522566
0.0683905
0.100499
0.0892498
0.124803
0.0261659
0.142809
0.0820388
0.148417
0.0672976
0.122266
0.147171
0.132488
0.0670715
0.0573175
0.075772
0.157176
0.0633759
0.149491
0.15185
0.103995
0.0925857
0.0669743
0.0694285
0.142807
0.129748
0.112248
0.0709303
0.126048
0.0285768
0.0826704
0.148553
0.0727864
0.154683
0.0365692
0.0835356
0.105401
0.13438
0.0933208
0.0629224
0.151745
0.114896
0.0411674
0.149848
0.132104
0.0866336
0.0709246
0.0350867
0.130245
0.0281168
0.0719816
0.0919897
0.134623
0.0999453
0.0402934
0.102631
0.107573
0.14189
0.0896981
0.0783168
0.1254
0.134084
0.118291
0.146974
0.15278
0.117238
0.0750428
0.0635769
0.127014
0.0378998
0.0789081
0.120341
0.073605
0.0282027
0.078273
0.0857175
0.120801
0.0898608
0.0843324
0.137889
0.1161
0.0846768
0.129788
0.137632
0.102986
0.15256
0.131575
0.0969401
0.0501863
0.0892327
0.0300109
0.1192
0.028989
0.145048
0.102168
0.0814109
0.151326
0.15315
0.09439
0.107814
0.0665286
0.0833017
0.0978004
0.145117
0.152155
0.0818564
0.0731045
0.103903
0.145082
0.130861
0.0516368
0.0666745
0.144959
0.0936785
0.11482
0.100663
0.077975
0.115087
0.139976
0.120019
0.0679992
0.0601393
0.11375
0.130749
0.131195
0.103478
0.151219
0.127461
0.142783
0.100551
0.0970684
0.134229
0.152961
0.135407
0.152947
0.0996844
0.157633
0.0654919
0.141801
0.127692
0.0928353
0.0952894
0.0979832
0.0310358
0.0230832
0.0599413
0.131916
0.143768
0.0656775
0.12973
0.0647897
0.105659
0.141748
0.0907546
0.102417
0.1175
0.0956397
0.13172
0.101635
0.112324
0.107097
0.155252
0.0619734
0.102983
0.101249
0.149236
0.0966248
0.0672915
0.115431
0.0309095
0.0346268
0.145651
0.137012
0.1334
0.133296
0.140955
0.145218
0.14813
0.0863684
0.106668
0.140959
0.0272984
0.146647
0.102154
0.0663719
0.121752
0.104064
0.0891432
0.0797608
0.151136
0.0539554
0.0702917
0.108449
0.0798174
0.0971082
0.103778
0.126041
0.116413
0.141433
0.145052
0.0902868
0.0728418
0.0586519
0.151299
0.0754913
0.147892
0.107767
0.0860724
0.122168
0.0976679
0.138478
0.143755
0.142851
0.111154
0.0597179
0.150195
0.139501
0.131668
0.114401
0.0938434
0.0893833
0.0605226
0.115207
0.0761239
0.0956862
0.0887921
0.15036
0.150931
0.136167
0.143748
0.018618
0.0663115
0.0850495
0.0520529
0.131194
0.0864571
0.0895973
0.148226
0.0918815
0.136629
0.0971102
0.133337
0.0261652
0.104686
0.0918751
0.085305
0.150957
0.112153
0.0410508
0.143587
0.0393281
0.0683145
0.0701409
0.0971209
0.0274506
0.133077
0.0933931
0.146274
0.0900065
0.0672001
0.145562
0.130326
0.131789
0.0710405
0.0914533
0.0964269
0.145265
0.0798264
0.126519
0.107995
0.0927524
0.0377379
0.124403
0.152396
0.154003
0.132327
0.0285778
0.0839084
0.142926
0.117258
0.132596
0.133799
0.14642
0.112706
0.130094
0.0450449
0.130293
0.0934066
0.138927
0.074056
0.0977315
0.103703
0.119194
0.112333
0.128958
0.140504
0.0815943
0.131741
0.0969011
0.147059
0.0957888
0.0984818
0.0989159
0.15045
0.128637
0.174429
0.0380081
0.151946
0.152535
0.0704917
0.0693995
0.0914439
0.143338
0.12624
0.133331
0.106933
0.0943827
0.119139
0.0629217
0.0234336
0.151213
0.0975267
0.0950052
0.107134
0.121227
0.140149
0.0654043
0.0578199
0.0368116
0.0212068
0.0608829
0.136142
0.0903595
0.118815
0.0966443
0.130631
0.142508
0.0639192
0.133292
0.0348505
0.0690792
0.154143
0.100502
0.0861297
0.0879407
0.133627
0.137316
0.104826
0.113821
0.118731
0.14124
0.0998941
0.0902823
0.152019
0.0792162
0.0685862
0.093913
0.125804
0.103877
0.093463
0.140357
0.137581
0.127641
0.0566864
0.132297
0.106378
0.134536
0.152147
0.125363
0.148537
0.144095
0.0629205
0.124345
0.109923
0.0565014
0.132375
0.12681
0.0981335
0.0610143
0.151304
0.139415
0.136908
0.0735979
0.018463
0.121798
0.0656746
0.143069
0.146093
0.153916
0.102582
0.127143
0.128704
0.15305
0.0682902
0.143098
0.0861464
0.143917
0.126523
0.140979
0.0921682
0.110662
0.122888
0.132142
0.114775
0.145765
0.110983
0.128009
0.13977
0.129071
0.143583
0.133462
0.134322
0.150576
0.154249
0.148837
0.126856
0.1515
0.104941
0.145078
0.096992
0.103518
0.0595917
0.132169
0.105638
0.142299
0.14962
0.15157
0.111612
0.137287
0.150507
0.139279
0.0655137
0.12677
0.0703053
0.0304315
0.152695
0.029016
0.103023
0.0410882
0.14082
0.0885456
0.150623
0.125746
0.130429
0.0859571
0.0906553
0.120824
0.0956827
0.13076
0.13859
0.152105
0.0371302
0.131303
0.0448237
0.100186
0.0191408
0.100763
0.133491
0.0661284
0.0494737
0.149241
0.107715
0.112091
0.0884667
0.0361475
0.101472
0.133407
0.0827024
0.0736989
0.0940465
0.141299
0.143509
0.0729758
0.0668339
0.0305143
0.0893948
0.102505
0.136684
0.0998225
0.119976
0.130704
0.0677375
0.131926
0.125206
0.139005
0.128574
0.136109
0.131914
0.102679
0.114364
0.103236
0.110616
0.0918697
0.129991
0.0874934
0.172861
0.140677
0.0872547
0.15507
0.084216
0.142041
0.138042
0.0726115
0.104291
0.113002
0.133246
0.128218
0.0678707
0.103111
0.0408229
0.10359
0.139445
0.133861
0.11546
0.0686098
0.107792
0.132781
0.0932805
0.124361
0.168053
0.136291
0.0854855
0.137816
0.140529
0.135603
0.100912
0.135156
0.133779
0.0518284
0.102801
0.0994443
0.0936151
0.130288
0.113234
0.136009
0.140649
0.139593
0.111708
0.131989
0.0653579
0.144696
0.134663
0.078373
0.0985197
0.134105
0.0976768
0.083484
0.100779
0.132126
0.152738
0.132786
0.102341
0.135563
0.151734
0.0688178
0.125146
0.145912
0.0922089
0.132525
0.0664594
0.12794
0.105231
0.153543
0.0863576
0.149338
0.142525
0.136152
0.0921049
0.149784
0.031418
0.151849
0.112893
0.115205
0.142751
0.125363
0.0948318
0.0885834
0.130539
0.121909
0.112099
0.0828851
0.137474
0.13215
0.136732
0.114686
0.124618
0.132706
0.127086
0.156723
0.144708
0.0915594
0.118388
0.135874
0.10758
0.11792
0.154331
0.097888
0.128564
0.0935276
0.128276
0.110782
0.14567
0.144789
0.0413453
0.145291
0.111265
0.129116
0.111941
0.135829
0.0781917
0.136714
0.144183
0.0950468
0.129119
0.140588
0.118471
0.0719188
0.141487
0.139565
0.12933
0.139598
0.113427
0.115193
0.132659
0.141752
0.137967
0.143916
0.0645825
0.0738185
0.114199
0.138097
0.150411
0.135281
0.131563
0.14641
0.0980767
0.0935257
0.112758
0.117619
0.130269
0.0684046
0.14355
0.143151
0.099315
0.107733
0.132814
0.110436
0.12133
0.11407
0.14279
0.131312
0.109676
0.149476
0.152356
0.123593
0.108463
0.115862
0.144758
0.122673
0.120945
0.12462
0.122479
0.151815
0.111281
0.151764
0.149273
0.124925
0.14171
0.135373
0.0788793
0.13158
0.135118
0.0974
0.147465
0.0900451
0.14417
0.130189
0.137739
0.149957
0.0911757
0.127553
0.101236
0.0532136
0.180018
0.141737
0.145381
0.0797011
0.121303
0.152164
0.0678087
0.116986
0.119007
0.119516
0.103522
0.142814
0.154636
0.140083
0.113305
0.107802
0.147545
0.142522
0.112578
0.149736
0.122965
0.140421
0.1222
0.137884
0.0650042
0.135716
0.124499
0.151144
0.130036
0.145474
0.131616
0.137007
0.124956
0.138892
0.0421027
0.109626
0.141942
0.134374
0.15085
0.116505
0.0969263
0.160095
0.116954
0.103299
0.141445
0.0896821
0.132248
0.142047
0.121318
0.14593
0.145293
0.137868
0.110614
0.125686
0.120171
0.163242
0.135571
0.133097
0.131596
0.132641
0.0776973
0.146333
0.148922
0.116113
0.140105
0.143681
0.134447
0.123964
0.136159
0.0918353
0.139654
0.14265
0.104053
0.121139
0.133656
0.15171
0.0191976
0.106061
0.141657
0.141136
0.132755
0.130155
0.136217
0.115503
0.134078
0.09816
0.132682
0.136887
0.13127
0.142384
0.133763
0.0825641
0.150694
0.139907
0.133048
0.138972
0.103675
0.142534
0.153115
0.049972
0.150604
0.134235
0.128295
0.137206
0.14079
0.0902943
0.1247
0.116818
0.146515
0.145326
0.0980866
0.144225
0.124101
0.142907
0.131152
0.110287
0.153527
0.134581
0.137389
0.138445
0.141055
0.134525
0.12272
0.149269
0.126249
0.0678232
0.153094
0.140411
0.112506
0.133127
0.122223
0.150591
0.13295
0.135264
0.151129
0.145532
0.111492
0.123303
0.129839
0.129856
0.127039
0.125448
0.118018
0.144899
0.133187
0.1533
0.142974
0.117295
0.142877
0.138737
0.12695
0.149387
0.13045
0.131884
0.120673
0.132864
0.125557
0.136046
0.134682
0.112183
0.15228
0.151268
0.128413
0.147618
0.116584
0.131576
0.132945
0.139154
0.153337
0.122494
0.137951
0.132764
0.130563
0.0542751
0.135215
0.140394
0.16303
0.130996
0.138081
0.100755
0.11169
0.0884628
0.140899
0.133631
0.134749
0.111828
0.130366
0.12965
0.0992732
0.134907
0.146291
0.130196
0.13323
0.130012
0.120366
0.15148
0.116614
0.126003
0.132494
0.147303
0.14444
0.0890978
0.121833
0.116001
0.125211
0.0383327
0.128179
0.150081
0.0955711
0.13977
0.131663
0.147013
0.152657
0.133457
0.116744
0.153485
0.130751
0.150306
0.146058
0.133511
0.0936699
0.111069
0.161136
0.129158
0.143572
0.132375
0.131802
0.136444
0.137272
0.129936
0.110425
0.038886
0.151408
0.143972
0.135036
0.0552831
0.139635
0.137123
0.136264
0.141774
0.137581
0.0923042
0.124162
0.132141
0.110653
0.130284
0.145169
0.130843
0.127207
0.140567
0.147692
0.130851
0.131984
0.153813
0.153065
0.143888
0.152983
0.134814
0.146324
0.1319
0.142718
0.0364126
0.131418
0.131841
0.0848014
0.130884
0.0890981
0.0669327
0.0184708
0.0864859
0.113815
0.134545
0.129729
0.139973
0.127934
0.128504
0.136476
0.110639
0.110195
0.091278
0.145866
0.142089
0.129014
0.120395
0.130934
0.10774
0.137473
0.0702527
0.0924571
0.130955
0.137931
0.137932
0.129115
0.131668
0.111139
0.131988
0.139599
0.0709897
0.128969
0.132545
0.146387
0.0868409
0.0420286
0.128822
0.12494
0.0524839
0.142992
0.109646
0.14277
0.129923
0.117507
0.131061
0.119842
0.114422
0.086942
0.136336
0.104951
0.141217
0.106606
0.139019
0.127243
0.0189146
0.107533
0.131456
0.129114
0.141919
0.0918098
0.13293
0.139193
0.14869
0.111491
0.126675
0.136982
0.106798
0.0930748
0.13148
0.146184
0.131483
0.132317
0.135596
0.156075
0.143813
0.153471
0.142933
0.124628
0.152134
0.119042
0.0879749
0.0948576
0.125229
0.139915
0.140091
0.143539
0.118551
0.113297
0.138444
0.1503
0.146881
0.10523
0.15365
0.138761
0.137904
0.0291594
0.106811
0.145896
0.142942
0.146404
0.14957
0.125453
0.0934958
0.139128
0.143539
0.0948014
0.132921
0.138842
0.126123
0.128636
0.0976194
0.11437
0.0709713
0.132198
0.132888
0.141596
0.0419749
0.124455
0.130449
0.0970921
0.150991
0.151308
0.141025
0.141728
0.102641
0.146414
0.151795
0.141045
0.126315
0.144456
0.11488
0.130136
0.129775
0.144827
0.137238
0.137743
0.0696346
0.151391
0.123604
0.134461
0.147498
0.134377
0.143992
0.146961
0.141216
0.101816
0.142746
0.0750796
0.145837
0.134363
0.153631
0.151834
0.10361
0.11569
0.153272
0.131601
0.126382
0.125755
0.139268
0.141337
0.113127
0.14486
0.113755
0.0655079
0.133873
0.135541
0.135171
0.139681
0.117478
0.129408
0.129404
0.14579
0.135728
0.108026
0.1319
0.139214
0.0959958
0.0910386
0.141744
0.0925988
0.151134
0.139066
0.152789
0.138097
0.104841
0.142688
0.0913303