/*--------------------------------*- C++ -*----------------------------------*\
| =========                 |                                                 |
| \\      /  F ield         | OpenFOAM: The Open Source CFD Toolbox           |
|  \\    /   O peration     | Version:  v2012                                 |
|   \\  /    A nd           | Website:  www.openfoam.com                      |
|    \\/     M anipulation  |                                                 |
\*---------------------------------------------------------------------------*/
FoamFile
{
    version     2.0;
    format      ascii;
    class       volVectorField;
    location    "350";
    object      cellDisplacement;
}
// * * * * * * * * * * * * * * * * * * * * * * * * * * * * * * * * * * * * * //

dimensions      [0 1 0 0 0 0 0];


internalField   nonuniform List<vector> 
10042
(
(0 0.00212137 0)
(0 0.00560624 0)
(0 0.00489446 0)
(0 0.0013609 0)
(0 0.000761392 0)
(0 0.00611556 0)
(0 0.00247984 0)
(0 0.00347512 0)
(0 0.00154871 0)
(0 0.00326559 0)
(0 0.00380278 0)
(0 0.00558847 0)
(0 0.00162245 0)
(0 0.00384951 0)
(0 0.0016773 0)
(0 0.00384209 0)
(0 0.00612431 0)
(0 0.00385981 0)
(0 0.0015928 0)
(0 0.00407795 0)
(0 0.00169068 0)
(0 0.00205896 0)
(0 0.00129636 0)
(0 0.0052312 0)
(0 0.00300226 0)
(0 8.5362e-05 0)
(0 0.00328096 0)
(0 0.000988433 0)
(0 0.0061256 0)
(0 0.00535222 0)
(0 0.000396261 0)
(0 0.00101385 0)
(0 0.0014297 0)
(0 0.00135406 0)
(0 0.00351135 0)
(0 0.00361141 0)
(0 0.000233618 0)
(0 0.00161673 0)
(0 0.000546164 0)
(0 0.000154587 0)
(0 0.00530591 0)
(0 0.00146773 0)
(0 0.00152796 0)
(0 0.0052064 0)
(0 0.00214647 0)
(0 0.00311258 0)
(0 0.000635577 0)
(0 0.00167994 0)
(0 0.00264307 0)
(0 0.00181709 0)
(0 0.00157876 0)
(0 0.00122317 0)
(0 0.00611461 0)
(0 0.00163129 0)
(0 0.00374476 0)
(0 0.00148976 0)
(0 0.00172837 0)
(0 0.00370565 0)
(0 0.00233706 0)
(0 4.62521e-05 0)
(0 0.00272314 0)
(0 0.00349584 0)
(0 0.00152616 0)
(0 0.00337533 0)
(0 0.00531744 0)
(0 0.00435297 0)
(0 0.00414509 0)
(0 0.00237908 0)
(0 0.000676023 0)
(0 0.00232781 0)
(0 0.00158797 0)
(0 0.00338847 0)
(0 0.00259825 0)
(0 0.00229406 0)
(0 0.00427803 0)
(0 0.00153957 0)
(0 0.00542228 0)
(0 0.00065938 0)
(0 0.00546252 0)
(0 0.00153806 0)
(0 0.00519274 0)
(0 0.00528065 0)
(0 0.000189489 0)
(0 0.00120115 0)
(0 0.0036589 0)
(0 0.00280362 0)
(0 0.00413325 0)
(0 0.00495051 0)
(0 0.00387862 0)
(0 0.00533583 0)
(0 0.00161142 0)
(0 0.00163686 0)
(0 0.0015742 0)
(0 0.00286009 0)
(0 0.00520171 0)
(0 0.00308048 0)
(0 0.000720841 0)
(0 0.00407055 0)
(0 0.00586354 0)
(0 0.00218956 0)
(0 0.0016414 0)
(0 0.00328731 0)
(0 0.00310095 0)
(0 0.00102411 0)
(0 0.00178222 0)
(0 0.00289644 0)
(0 0.00207492 0)
(0 0.00417403 0)
(0 0.00256504 0)
(0 0.0028943 0)
(0 0.00239687 0)
(0 0.00260977 0)
(0 0.0033335 0)
(0 0.00340571 0)
(0 0.00525349 0)
(0 0.000737013 0)
(0 0.0055724 0)
(0 0.00044618 0)
(0 0.00364632 0)
(0 0.000696538 0)
(0 6.20587e-05 0)
(0 0.00561782 0)
(0 0.00560493 0)
(0 0.00224718 0)
(0 0.00537353 0)
(0 0.00407845 0)
(0 0.00416394 0)
(0 0.00372078 0)
(0 0.0011176 0)
(0 0.00559096 0)
(0 0.00183986 0)
(0 0.00405017 0)
(0 0.00443175 0)
(0 0.00390675 0)
(0 0.00268836 0)
(0 0.00184346 0)
(0 0.00434183 0)
(0 0.0023026 0)
(0 0.00199864 0)
(0 0.00586506 0)
(0 0.00158412 0)
(0 0.000573467 0)
(0 0.00214219 0)
(0 0.000935154 0)
(0 0.00253998 0)
(0 0.00170221 0)
(0 0.00363235 0)
(0 0.000640666 0)
(0 0.00366604 0)
(0 0.00618566 0)
(0 0.00409649 0)
(0 0.000422745 0)
(0 0.0019858 0)
(0 0.00155587 0)
(0 0.00513657 0)
(0 0.00259272 0)
(0 0.00115125 0)
(0 0.00147139 0)
(0 0.00445669 0)
(0 5.77263e-05 0)
(0 0.000450244 0)
(0 0.000121957 0)
(0 0.00192874 0)
(0 0.00397378 0)
(0 0.00202381 0)
(0 0.00618425 0)
(0 0.0025744 0)
(0 0.00104662 0)
(0 0.00357911 0)
(0 0.00124213 0)
(0 0.00507439 0)
(0 0.00538242 0)
(0 0.00564206 0)
(0 0.00131391 0)
(0 0.00168978 0)
(0 0.00562105 0)
(0 0.00293602 0)
(0 0.0016754 0)
(0 0.00396332 0)
(0 0.00067165 0)
(0 0.00203002 0)
(0 0.00197922 0)
(0 0.00222979 0)
(0 0.000579102 0)
(0 0.000198561 0)
(0 0.00137163 0)
(0 0.00332467 0)
(0 4.38724e-05 0)
(0 0.0016055 0)
(0 0.000589908 0)
(0 0.00557207 0)
(0 0.0017972 0)
(0 0.00193456 0)
(0 0.00197189 0)
(0 0.00377573 0)
(0 0.00159902 0)
(0 0.000879297 0)
(0 0.00494293 0)
(0 0.000734312 0)
(0 0.00107405 0)
(0 0.00110312 0)
(0 0.00157915 0)
(0 0.00578921 0)
(0 0.000395427 0)
(0 0.00588864 0)
(0 0.00433359 0)
(0 0.00506356 0)
(0 0.00160345 0)
(0 0.00241569 0)
(0 0.00393225 0)
(0 0.00100292 0)
(0 0.000436817 0)
(0 0.00582596 0)
(0 0.00572321 0)
(0 0.000346661 0)
(0 0.00232507 0)
(0 0.000366845 0)
(0 0.00566356 0)
(0 0.000683935 0)
(0 0.00114311 0)
(0 0.000930711 0)
(0 0.00500925 0)
(0 0.000965927 0)
(0 0.00230249 0)
(0 0.00146977 0)
(0 0.0015354 0)
(0 0.00363661 0)
(0 0.00432817 0)
(0 0.00324023 0)
(0 0.00305116 0)
(0 0.00175227 0)
(0 0.00426038 0)
(0 0.00142012 0)
(0 0.0003075 0)
(0 0.00299688 0)
(0 0.00350951 0)
(0 0.00443518 0)
(0 0.000744357 0)
(0 0.00253109 0)
(0 0.00520148 0)
(0 0.00573409 0)
(0 0.00546216 0)
(0 5.30286e-05 0)
(0 0.000158448 0)
(0 0.00402266 0)
(0 0.000783069 0)
(0 0.00542178 0)
(0 0.0025783 0)
(0 0.00199399 0)
(0 0.000620362 0)
(0 0.00176042 0)
(0 0.00199894 0)
(0 0.00595251 0)
(0 0.00379938 0)
(0 0.00366393 0)
(0 0.00441206 0)
(0 0.000480713 0)
(0 0.003864 0)
(0 0.000738923 0)
(0 0.000937067 0)
(0 0.00536317 0)
(0 0.00189283 0)
(0 0.00122479 0)
(0 0.000679091 0)
(0 0.00158062 0)
(0 0.00387859 0)
(0 0.00532539 0)
(0 0.00592049 0)
(0 0.000190054 0)
(0 0.00429673 0)
(0 0.00144625 0)
(0 0.00185962 0)
(0 0.00368632 0)
(0 0.00154815 0)
(0 0.00384181 0)
(0 0.00344901 0)
(0 0.00158944 0)
(0 0.00245636 0)
(0 0.000185989 0)
(0 0.00384454 0)
(0 0.0010718 0)
(0 0.00555056 0)
(0 0.000835942 0)
(0 0.00161507 0)
(0 7.78197e-05 0)
(0 0.00099183 0)
(0 0.00559203 0)
(0 0.000962558 0)
(0 0.00193481 0)
(0 0.000344067 0)
(0 0.0019044 0)
(0 0.00544045 0)
(0 0.000130806 0)
(0 0.00558234 0)
(0 0.00535372 0)
(0 0.00371381 0)
(0 0.00457052 0)
(0 0.00439266 0)
(0 0.00141604 0)
(0 0.000376588 0)
(0 0.00202971 0)
(0 0.00576246 0)
(0 2.98916e-05 0)
(0 0.00569737 0)
(0 0.00557783 0)
(0 0.00349689 0)
(0 0.00386904 0)
(0 0.000124159 0)
(0 0.00462937 0)
(0 0.00560247 0)
(0 0.00016471 0)
(0 0.00378283 0)
(0 0.00299066 0)
(0 0.00371242 0)
(0 0.00544427 0)
(0 0.00187382 0)
(0 0.000656991 0)
(0 0.000181738 0)
(0 0.00518725 0)
(0 0.000705374 0)
(0 0.000153063 0)
(0 0.00159584 0)
(0 0.00339145 0)
(0 0.00278742 0)
(0 0.000310601 0)
(0 0.000271963 0)
(0 0.00454438 0)
(0 0.00395411 0)
(0 0.00437426 0)
(0 0.00193968 0)
(0 0.00432501 0)
(0 0.00251779 0)
(0 0.00214364 0)
(0 0.000446962 0)
(0 0.00511659 0)
(0 0.00198211 0)
(0 0.00206522 0)
(0 0.00274524 0)
(0 0.00209392 0)
(0 0.0061649 0)
(0 0.00165904 0)
(0 0.00190297 0)
(0 6.97422e-05 0)
(0 0.00468567 0)
(0 0.000366408 0)
(0 0.00172235 0)
(0 0.00342918 0)
(0 0.00070285 0)
(0 0.00519995 0)
(0 0.000710367 0)
(0 0.00168777 0)
(0 0.00524157 0)
(0 0.00519233 0)
(0 0.00191415 0)
(0 0.00356835 0)
(0 0.00461839 0)
(0 0.00358222 0)
(0 9.8814e-05 0)
(0 0.00111506 0)
(0 6.82943e-05 0)
(0 0.00282747 0)
(0 0.00023475 0)
(0 0.00208675 0)
(0 0.00526535 0)
(0 0.00616104 0)
(0 0.00199375 0)
(0 0.000879458 0)
(0 0.00510681 0)
(0 0.00511893 0)
(0 0.00359782 0)
(0 5.33377e-05 0)
(0 0.000183718 0)
(0 0.00378863 0)
(0 2.8142e-06 0)
(0 0.00281311 0)
(0 0.00407057 0)
(0 0.0035167 0)
(0 0.00582023 0)
(0 0.00421167 0)
(0 0.00275157 0)
(0 0.00273375 0)
(0 0.00579319 0)
(0 0.00333388 0)
(0 0.00386158 0)
(0 0.00136801 0)
(0 0.000727199 0)
(0 0.000623706 0)
(0 0.000648564 0)
(0 0.00447275 0)
(0 0.000938992 0)
(0 0.00389736 0)
(0 0.00133166 0)
(0 0.00173539 0)
(0 0.00447206 0)
(0 0.0061425 0)
(0 0.00371487 0)
(0 0.00152496 0)
(0 0.00347669 0)
(0 0.000150474 0)
(0 0.00106203 0)
(0 0.00110065 0)
(0 0.000977025 0)
(0 0.00102621 0)
(0 0.00366632 0)
(0 0.000831965 0)
(0 0.00197199 0)
(0 0.00169664 0)
(0 0.0021469 0)
(0 0.00571354 0)
(0 0.00387175 0)
(0 0.00605298 0)
(0 0.00232571 0)
(0 0.00550594 0)
(0 0.00175616 0)
(0 0.00319953 0)
(0 0.00487674 0)
(0 0.0026286 0)
(0 0.00361752 0)
(0 0.000772819 0)
(0 0.00481245 0)
(0 0.00045471 0)
(0 0.00613893 0)
(0 0.0017967 0)
(0 0.000554235 0)
(0 0.00154268 0)
(0 0.004965 0)
(0 0.0035219 0)
(0 0.00603478 0)
(0 0.000940829 0)
(0 0.00182967 0)
(0 0.00495238 0)
(0 0.000721403 0)
(0 0.00238181 0)
(0 0.00359092 0)
(0 0.00213961 0)
(0 0.00211142 0)
(0 0.00257769 0)
(0 0.00357552 0)
(0 0.000143251 0)
(0 0.00143068 0)
(0 0.000899408 0)
(0 0.00538975 0)
(0 0.00473328 0)
(0 0.00155783 0)
(0 0.0018047 0)
(0 0.000160224 0)
(0 0.00316098 0)
(0 0.00196165 0)
(0 0.00340979 0)
(0 0.000548019 0)
(0 0.00332567 0)
(0 0.00479837 0)
(0 0.00483007 0)
(0 0.00139297 0)
(0 0.00118412 0)
(0 0.00353943 0)
(0 0.005215 0)
(0 0.00130176 0)
(0 0.000627552 0)
(0 0.000151053 0)
(0 0.000358909 0)
(0 0.00162714 0)
(0 0.00296426 0)
(0 0.00304505 0)
(0 0.00439635 0)
(0 6.36865e-05 0)
(0 0.00204386 0)
(0 0.00150827 0)
(0 0.00540199 0)
(0 0.00511753 0)
(0 0.00204789 0)
(0 0.00157516 0)
(0 0.00114595 0)
(0 0.00251652 0)
(0 0.0057658 0)
(0 0.000507628 0)
(0 0.00119943 0)
(0 0.000191506 0)
(0 0.00368231 0)
(0 0.00164333 0)
(0 0.00487564 0)
(0 0.00180448 0)
(0 0.00583447 0)
(0 0.0004991 0)
(0 0.00169125 0)
(0 0.000107942 0)
(0 0.0032677 0)
(0 0.00597555 0)
(0 0.000179206 0)
(0 0.00101501 0)
(0 0.00381223 0)
(0 0.00532933 0)
(0 0.00187453 0)
(0 0.00478332 0)
(0 0.00510102 0)
(0 0.00177274 0)
(0 0.00185708 0)
(0 0.00485273 0)
(0 0.00559635 0)
(0 0.00250446 0)
(0 0.00235825 0)
(0 0.000362067 0)
(0 0.00550778 0)
(0 0.00536561 0)
(0 0.00243077 0)
(0 0.00602663 0)
(0 0.000524793 0)
(0 0.000117836 0)
(0 0.00331709 0)
(0 0.00301409 0)
(0 0.00257673 0)
(0 0.00504113 0)
(0 0.0018569 0)
(0 0.00115633 0)
(0 0.00281355 0)
(0 0.00562801 0)
(0 0.0021162 0)
(0 0.00574269 0)
(0 0.00153992 0)
(0 0.00215849 0)
(0 0.00169351 0)
(0 0.00270274 0)
(0 0.00602446 0)
(0 0.00298221 0)
(0 0.0021754 0)
(0 0.00607157 0)
(0 0.00498703 0)
(0 0.00396774 0)
(0 0.00293771 0)
(0 0.00420426 0)
(0 0.000145988 0)
(0 0.0024418 0)
(0 0.00274716 0)
(0 0.00118961 0)
(0 0.00508169 0)
(0 0.00313174 0)
(0 0.00251458 0)
(0 0.00427905 0)
(0 0.00176908 0)
(0 0.00394824 0)
(0 0.000950432 0)
(0 0.00321196 0)
(0 0.00284245 0)
(0 0.00093833 0)
(0 0.00211124 0)
(0 0.00126299 0)
(0 0.00056339 0)
(0 0.00238442 0)
(0 0.00604947 0)
(0 5.78986e-05 0)
(0 0.00600214 0)
(0 0.00236691 0)
(0 0.00151076 0)
(0 0.00429491 0)
(0 0.00205797 0)
(0 0.00559951 0)
(0 0.00509408 0)
(0 0.000424205 0)
(0 0.00118049 0)
(0 0.000555953 0)
(0 0.00119607 0)
(0 0.0031445 0)
(0 0.00281932 0)
(0 0.00509819 0)
(0 0.0028477 0)
(0 2.85239e-05 0)
(0 0.0031641 0)
(0 0.00184699 0)
(0 0.00320491 0)
(0 0.000133114 0)
(0 0.00119381 0)
(0 0.00318162 0)
(0 0.00522245 0)
(0 0.0027782 0)
(0 0.00498539 0)
(0 0.00126862 0)
(0 0.00132705 0)
(0 0.0014672 0)
(0 0.00157689 0)
(0 0.00398397 0)
(0 0.00384584 0)
(0 0.00268834 0)
(0 0.000512584 0)
(0 0.000952098 0)
(0 0.0018756 0)
(0 0.00376858 0)
(0 0.00224853 0)
(0 0.00260056 0)
(0 0.000696576 0)
(0 0.00395726 0)
(0 0.00570631 0)
(0 0.00149281 0)
(0 0.0023466 0)
(0 0.000278737 0)
(0 0.00496489 0)
(0 0.000748643 0)
(0 0.00412409 0)
(0 0.000849131 0)
(0 0.0020081 0)
(0 0.00163737 0)
(0 0.000439098 0)
(0 0.00228553 0)
(0 0.00105293 0)
(0 0.000665222 0)
(0 0.00398211 0)
(0 0.00413341 0)
(0 0.0041092 0)
(0 3.56862e-06 0)
(0 0.00395385 0)
(0 0.000491503 0)
(0 0.00496895 0)
(0 0.00162654 0)
(0 0.00281383 0)
(0 0.000567305 0)
(0 0.00282727 0)
(0 0.00253699 0)
(0 0.00297204 0)
(0 0.00253787 0)
(0 0.00151741 0)
(0 0.000780082 0)
(0 0.00513934 0)
(0 0.00594975 0)
(0 0.00392394 0)
(0 0.00129978 0)
(0 0.00068991 0)
(0 0.00446283 0)
(0 0.000175189 0)
(0 0.00522069 0)
(0 0.00586193 0)
(0 0.00592163 0)
(0 0.00194559 0)
(0 0.00537565 0)
(0 0.00122265 0)
(0 0.00259453 0)
(0 0.00555245 0)
(0 0.00496972 0)
(0 0.00449523 0)
(0 0.00109331 0)
(0 0.00200885 0)
(0 0.00518241 0)
(0 0.00315458 0)
(0 0.00249349 0)
(0 0.00160913 0)
(0 0.00176543 0)
(0 0.000452781 0)
(0 0.00558109 0)
(0 0.00166774 0)
(0 9.46578e-05 0)
(0 0.00128166 0)
(0 0.00278115 0)
(0 0.00438108 0)
(0 0.000127405 0)
(0 0.00154039 0)
(0 0.00475757 0)
(0 0.000598648 0)
(0 0.00513384 0)
(0 0.00415097 0)
(0 0.00369393 0)
(0 0.00370537 0)
(0 0.00222622 0)
(0 3.32866e-05 0)
(0 0.000317165 0)
(0 0.00346951 0)
(0 0.00226592 0)
(0 0.00582727 0)
(0 0.00425834 0)
(0 0.00515512 0)
(0 0.00163475 0)
(0 0.00378327 0)
(0 0.00336039 0)
(0 0.00522922 0)
(0 0.00344359 0)
(0 0.00428179 0)
(0 0.000316105 0)
(0 0.00326673 0)
(0 0.00537084 0)
(0 0.00185311 0)
(0 0.000217947 0)
(0 0.00370927 0)
(0 8.41183e-05 0)
(0 0.000780332 0)
(0 0.0012714 0)
(0 0.00526829 0)
(0 0.00374153 0)
(0 0.000177969 0)
(0 0.00356589 0)
(0 0.00532345 0)
(0 0.00315181 0)
(0 0.000473281 0)
(0 0.00423429 0)
(0 0.00330533 0)
(0 0.00303329 0)
(0 0.00126895 0)
(0 0.00444206 0)
(0 7.58534e-05 0)
(0 0.00463854 0)
(0 0.00473604 0)
(0 0.00115252 0)
(0 0.000881722 0)
(0 0.000941344 0)
(0 0.00216289 0)
(0 0.000486139 0)
(0 0.000194874 0)
(0 0.00174778 0)
(0 0.00607773 0)
(0 0.00503126 0)
(0 0.00168619 0)
(0 0.00368496 0)
(0 0.00349913 0)
(0 0.00154208 0)
(0 0.00126536 0)
(0 0.00249146 0)
(0 8.05629e-05 0)
(0 0.00160401 0)
(0 0.00188689 0)
(0 0.0045208 0)
(0 0.00166962 0)
(0 0.00592285 0)
(0 0.00101667 0)
(0 0.00489884 0)
(0 0.000290141 0)
(0 0.000144334 0)
(0 0.00153703 0)
(0 0.0022702 0)
(0 0.00414322 0)
(0 0.00106939 0)
(0 0.00036676 0)
(0 0.00496026 0)
(0 0.00441375 0)
(0 0.003891 0)
(0 0.00172927 0)
(0 0.00394339 0)
(0 0.00342072 0)
(0 0.00326777 0)
(0 0.00225287 0)
(0 0.00377862 0)
(0 0.0033164 0)
(0 0.0033697 0)
(0 6.49932e-05 0)
(0 0.00268932 0)
(0 0.00114698 0)
(0 9.27803e-05 0)
(0 0.0059255 0)
(0 0.00439778 0)
(0 0.00545954 0)
(0 0.00466605 0)
(0 0.00163443 0)
(0 0.0023515 0)
(0 0.0042582 0)
(0 0.00365841 0)
(0 0.00100012 0)
(0 0.002594 0)
(0 0.00246953 0)
(0 6.29935e-05 0)
(0 0.00114475 0)
(0 0.000189606 0)
(0 0.00478524 0)
(0 9.33226e-05 0)
(0 0.00609116 0)
(0 0.00166643 0)
(0 0.00282129 0)
(0 0.00586462 0)
(0 0.00357504 0)
(0 0.00117671 0)
(0 0.00298561 0)
(0 8.32203e-05 0)
(0 0.00309635 0)
(0 0.00165395 0)
(0 0.00393286 0)
(0 0.00477119 0)
(0 0.00335789 0)
(0 0.00396163 0)
(0 0.00364737 0)
(0 0.00190855 0)
(0 0.00345529 0)
(0 0.0012297 0)
(0 0.00540668 0)
(0 0.00468353 0)
(0 0.00295559 0)
(0 0.000594716 0)
(0 0.00191864 0)
(0 0.00229293 0)
(0 0.000967214 0)
(0 0.00329031 0)
(0 0.00404102 0)
(0 0.00168234 0)
(0 0.00358569 0)
(0 0.000690266 0)
(0 0.00189986 0)
(0 0.00252121 0)
(0 0.000465343 0)
(0 0.00182023 0)
(0 7.9647e-05 0)
(0 0.000815341 0)
(0 0.00367193 0)
(0 0.00210225 0)
(0 0.000575046 0)
(0 0.000248827 0)
(0 0.00232348 0)
(0 0.00395767 0)
(0 0.00179976 0)
(0 4.13082e-05 0)
(0 0.00254643 0)
(0 0.00357265 0)
(0 0.00588215 0)
(0 0.00314813 0)
(0 0.00421734 0)
(0 0.000504836 0)
(0 0.00604702 0)
(0 0.000244802 0)
(0 0.00190049 0)
(0 0.00089387 0)
(0 0.00271637 0)
(0 0.00242991 0)
(0 0.00130817 0)
(0 0.00488885 0)
(0 0.00603848 0)
(0 0.00208306 0)
(0 0.00595085 0)
(0 0.00160544 0)
(0 0.000102731 0)
(0 0.00114301 0)
(0 0.00583732 0)
(0 0.00422692 0)
(0 0.00182377 0)
(0 0.00118769 0)
(0 0.00553435 0)
(0 0.00305979 0)
(0 0.00490437 0)
(0 0.00421133 0)
(0 0.00536968 0)
(0 0.00597839 0)
(0 0.00534699 0)
(0 0.003961 0)
(0 0.0036085 0)
(0 0.00105387 0)
(0 0.00394036 0)
(0 0.00531485 0)
(0 0.00228936 0)
(0 0.00175182 0)
(0 0.000426709 0)
(0 0.00542142 0)
(0 7.15425e-05 0)
(0 0.00248888 0)
(0 0.00230987 0)
(0 0.00431235 0)
(0 0.00431072 0)
(0 8.2124e-05 0)
(0 0.0032311 0)
(0 0.00218592 0)
(0 0.00174341 0)
(0 0.00496673 0)
(0 0.00255491 0)
(0 7.67939e-05 0)
(0 0.00221523 0)
(0 0.0038163 0)
(0 0.00440531 0)
(0 0.00268286 0)
(0 0.00123951 0)
(0 0.00239829 0)
(0 0.00270119 0)
(0 0.00551979 0)
(0 0.00505251 0)
(0 0.00438933 0)
(0 0.00509193 0)
(0 0.00226774 0)
(0 0.00124061 0)
(0 0.000272081 0)
(0 0.000984883 0)
(0 0.00283962 0)
(0 0.00071471 0)
(0 0.00438995 0)
(0 0.000314851 0)
(0 0.00560804 0)
(0 0.00419114 0)
(0 0.00346392 0)
(0 0.00539978 0)
(0 0.000349872 0)
(0 0.000606455 0)
(0 0.00514822 0)
(0 0.000417337 0)
(0 0.000466462 0)
(0 0.00545339 0)
(0 0.00121237 0)
(0 0.00485982 0)
(0 0.00193178 0)
(0 0.00383647 0)
(0 0.00160949 0)
(0 0.00419916 0)
(0 0.0043712 0)
(0 0.00294377 0)
(0 0.000872039 0)
(0 0.000832165 0)
(0 0.00236014 0)
(0 0.00340348 0)
(0 0.00122074 0)
(0 0.00261344 0)
(0 0.00275161 0)
(0 8.48553e-05 0)
(0 0.00306473 0)
(0 0.000571935 0)
(0 0.00275682 0)
(0 0.00155086 0)
(0 0.00507609 0)
(0 0.00134827 0)
(0 0.000581757 0)
(0 0.00124855 0)
(0 0.00573247 0)
(0 0.000299808 0)
(0 0.000584904 0)
(0 0.000443675 0)
(0 0.000108871 0)
(0 0.00204833 0)
(0 0.00613898 0)
(0 0.00584608 0)
(0 0.00195554 0)
(0 0.00138253 0)
(0 0.00566751 0)
(0 0.00425707 0)
(0 0.000342171 0)
(0 0.00136389 0)
(0 0.0034786 0)
(0 0.00504535 0)
(0 0.00140173 0)
(0 0.000572679 0)
(0 0.00172696 0)
(0 0.00226465 0)
(0 0.00430866 0)
(0 0.00532938 0)
(0 0.00416703 0)
(0 0.00401712 0)
(0 0.00565449 0)
(0 0.00516189 0)
(0 0.00189569 0)
(0 0.00343131 0)
(0 0.00128909 0)
(0 0.00122569 0)
(0 0.00482274 0)
(0 0.00111668 0)
(0 0.00265381 0)
(0 0.00395924 0)
(0 0.00528691 0)
(0 0.00564067 0)
(0 0.00477055 0)
(0 0.00142237 0)
(0 0.00119134 0)
(0 0.00411657 0)
(0 0.00493612 0)
(0 0.00478839 0)
(0 0.00411957 0)
(0 0.000171935 0)
(0 0.00120827 0)
(0 0.00391488 0)
(0 0.00243628 0)
(0 0.000692085 0)
(0 0.0036024 0)
(0 0.00298092 0)
(0 0.0036064 0)
(0 0.00156877 0)
(0 0.00388981 0)
(0 0.000423612 0)
(0 0.00393791 0)
(0 0.00522627 0)
(0 0.00281006 0)
(0 0.00034868 0)
(0 0.00241606 0)
(0 0.00513401 0)
(0 0.00312969 0)
(0 0.00155358 0)
(0 0.00139592 0)
(0 0.0044706 0)
(0 0.00326196 0)
(0 0.00472008 0)
(0 0.00396005 0)
(0 5.85137e-05 0)
(0 0.00358966 0)
(0 0.00379817 0)
(0 0.00435119 0)
(0 0.00590343 0)
(0 0.00242325 0)
(0 0.00412955 0)
(0 0.00154198 0)
(0 0.00165472 0)
(0 0.00546261 0)
(0 0.0054241 0)
(0 0.00243142 0)
(0 0.00279848 0)
(0 0.00485478 0)
(0 0.00570679 0)
(0 0.00182674 0)
(0 0.000765123 0)
(0 0.00159055 0)
(0 0.00518408 0)
(0 0.00323818 0)
(0 0.00296459 0)
(0 0.00512598 0)
(0 0.00119564 0)
(0 0.00174502 0)
(0 0.001973 0)
(0 0.00526532 0)
(0 0.00214719 0)
(0 0.00589629 0)
(0 0.00167251 0)
(0 0.00327549 0)
(0 0.00152625 0)
(0 0.00183795 0)
(0 0.00333916 0)
(0 0.00267981 0)
(0 0.00155213 0)
(0 8.08449e-05 0)
(0 0.00300509 0)
(0 0.00496122 0)
(0 0.00466301 0)
(0 0.00422369 0)
(0 0.00192146 0)
(0 0.00278587 0)
(0 0.00159863 0)
(0 0.00413642 0)
(0 0.00478918 0)
(0 0.00144933 0)
(0 0.00254043 0)
(0 0.00312733 0)
(0 0.00389926 0)
(0 0.00432672 0)
(0 0.00422871 0)
(0 0.00524901 0)
(0 0.00036831 0)
(0 0.0048244 0)
(0 0.00386149 0)
(0 0.00491613 0)
(0 0.0058433 0)
(0 0.00400872 0)
(0 0.00268036 0)
(0 0.00102458 0)
(0 0.00161874 0)
(0 0.00403387 0)
(0 0.000723774 0)
(0 0.0023895 0)
(0 0.000187695 0)
(0 0.00534845 0)
(0 0.0038104 0)
(0 0.00236104 0)
(0 0.00487714 0)
(0 0.00184821 0)
(0 0.00440839 0)
(0 0.00387869 0)
(0 0.00171008 0)
(0 0.00490004 0)
(0 0.00124017 0)
(0 0.00132747 0)
(0 0.00181999 0)
(0 0.000598919 0)
(0 0.00322785 0)
(0 0.00118392 0)
(0 0.00232518 0)
(0 0.00293199 0)
(0 0.00587956 0)
(0 0.00284052 0)
(0 0.00275211 0)
(0 0.000552691 0)
(0 0.0025336 0)
(0 0.00429488 0)
(0 0.00179067 0)
(0 0.00588913 0)
(0 0.000837392 0)
(0 0.000943363 0)
(0 0.00201079 0)
(0 0.00115959 0)
(0 0.00308432 0)
(0 0.00290011 0)
(0 0.00584951 0)
(0 0.00470989 0)
(0 0.003759 0)
(0 0.00612162 0)
(0 0.00133372 0)
(0 0.00285841 0)
(0 0.0035705 0)
(0 0.00266302 0)
(0 7.96124e-05 0)
(0 0.00228185 0)
(0 0.00042966 0)
(0 0.0019342 0)
(0 0.00473039 0)
(0 0.0038994 0)
(0 0.00187112 0)
(0 0.00484894 0)
(0 0.00308687 0)
(0 0.000333991 0)
(0 0.00381055 0)
(0 0.00180257 0)
(0 0.00122343 0)
(0 0.00374099 0)
(0 0.00462829 0)
(0 0.00240094 0)
(0 0.000886586 0)
(0 0.00379899 0)
(0 0.000340931 0)
(0 0.00253789 0)
(0 0.00582586 0)
(0 0.00163662 0)
(0 0.0029817 0)
(0 9.12906e-05 0)
(0 0.0030238 0)
(0 0.0047961 0)
(0 0.00192352 0)
(0 0.00558637 0)
(0 0.000590064 0)
(0 0.00243762 0)
(0 0.00209606 0)
(0 0.00361652 0)
(0 0.00175866 0)
(0 0.00292817 0)
(0 0.00182043 0)
(0 0.00150321 0)
(0 0.00015159 0)
(0 0.000173476 0)
(0 0.00295541 0)
(0 0.000809828 0)
(0 0.00294277 0)
(0 0.00223911 0)
(0 0.00242375 0)
(0 0.000921026 0)
(0 0.00421846 0)
(0 0.00357715 0)
(0 0.00578185 0)
(0 0.00144608 0)
(0 0.00545576 0)
(0 0.000294278 0)
(0 0.00389607 0)
(0 0.00490406 0)
(0 0.00519205 0)
(0 0.000822784 0)
(0 0.0059486 0)
(0 0.00215804 0)
(0 0.00222764 0)
(0 0.0022071 0)
(0 0.00364347 0)
(0 0.00157776 0)
(0 0.00507454 0)
(0 0.00481951 0)
(0 0.00166272 0)
(0 0.00406267 0)
(0 0.00500366 0)
(0 0.00299451 0)
(0 0.00531793 0)
(0 0.00114077 0)
(0 0.00283843 0)
(0 0.00553594 0)
(0 0.00107872 0)
(0 0.00207064 0)
(0 0.00293165 0)
(0 0.00290981 0)
(0 3.95357e-05 0)
(0 0.00172446 0)
(0 0.00189077 0)
(0 0.000909037 0)
(0 0.00588387 0)
(0 0.00169332 0)
(0 0.00302497 0)
(0 0.00218281 0)
(0 0.00351395 0)
(0 0.0018108 0)
(0 0.00421136 0)
(0 0.00502687 0)
(0 0.0027579 0)
(0 0.00498098 0)
(0 0.00154581 0)
(0 0.00296906 0)
(0 0.00297886 0)
(0 0.00558072 0)
(0 0.00289423 0)
(0 0.00283884 0)
(0 0.0020835 0)
(0 0.00316703 0)
(0 0.00380301 0)
(0 0.00228261 0)
(0 0.00512938 0)
(0 0.00284122 0)
(0 0.00323025 0)
(0 0.00436474 0)
(0 0.0054478 0)
(0 0.00453354 0)
(0 0.0052362 0)
(0 0.000257406 0)
(0 0.00130659 0)
(0 0.00526852 0)
(0 0.0035103 0)
(0 0.0057553 0)
(0 0.00199173 0)
(0 0.00159249 0)
(0 0.00174269 0)
(0 0.0022697 0)
(0 0.00488001 0)
(0 0.000377457 0)
(0 0.00167303 0)
(0 0.00470608 0)
(0 0.00313069 0)
(0 0.00309417 0)
(0 0.000760816 0)
(0 0.00250149 0)
(0 0.000334027 0)
(0 0.00302174 0)
(0 0.00433396 0)
(0 0.000746939 0)
(0 0.00510446 0)
(0 0.00322371 0)
(0 0.00170987 0)
(0 0.00290092 0)
(0 0.00441559 0)
(0 0.00518332 0)
(0 0.000456498 0)
(0 0.00214728 0)
(0 0.00141136 0)
(0 0.00217321 0)
(0 0.00359177 0)
(0 0.00120978 0)
(0 0.00138887 0)
(0 0.0028527 0)
(0 0.00362464 0)
(0 0.00190639 0)
(0 0.0053699 0)
(0 0.000242041 0)
(0 0.00404379 0)
(0 0.00499737 0)
(0 0.00475636 0)
(0 0.00021249 0)
(0 0.000694006 0)
(0 0.00516545 0)
(0 0.002694 0)
(0 0.00226272 0)
(0 0.00203289 0)
(0 0.00164013 0)
(0 0.00239607 0)
(0 0.000760872 0)
(0 0.00540382 0)
(0 0.000217339 0)
(0 0.00441287 0)
(0 0.00190976 0)
(0 0.00329144 0)
(0 0.00274416 0)
(0 0.00317001 0)
(0 0.00172116 0)
(0 0.00198233 0)
(0 0.00201245 0)
(0 0.00400127 0)
(0 0.00171707 0)
(0 0.000182214 0)
(0 0.000756079 0)
(0 0.00126656 0)
(0 0.00169054 0)
(0 0.00378034 0)
(0 0.00166767 0)
(0 0.00265853 0)
(0 0.00188365 0)
(0 0.00172817 0)
(0 0.00186091 0)
(0 0.00027859 0)
(0 0.00513102 0)
(0 0.00116595 0)
(0 0.0050272 0)
(0 0.00256739 0)
(0 0.00154537 0)
(0 0.00324936 0)
(0 0.0016413 0)
(0 0.00204631 0)
(0 0.0017672 0)
(0 0.0037031 0)
(0 0.00379436 0)
(0 0.00248835 0)
(0 0.00586411 0)
(0 0.00104641 0)
(0 0.00461927 0)
(0 0.000508245 0)
(0 0.00365482 0)
(0 0.00112334 0)
(0 0.00439909 0)
(0 0.00257064 0)
(0 5.47893e-05 0)
(0 0.00336041 0)
(0 0.0032162 0)
(0 0.002773 0)
(0 0.00500975 0)
(0 0.00114801 0)
(0 0.00215526 0)
(0 0.00547477 0)
(0 0.000359071 0)
(0 0.000699714 0)
(0 0.00162026 0)
(0 0.00538805 0)
(0 0.00429557 0)
(0 0.00256461 0)
(0 0.0015912 0)
(0 0.00352298 0)
(0 0.0022584 0)
(0 0.00176953 0)
(0 0.000662975 0)
(0 0.00325768 0)
(0 0.00107867 0)
(0 0.00498572 0)
(0 0.00552512 0)
(0 0.00146291 0)
(0 0.00162932 0)
(0 0.00151092 0)
(0 0.00162834 0)
(0 0.00224626 0)
(0 0.0034354 0)
(0 0.00116101 0)
(0 0.00133006 0)
(0 0.00312679 0)
(0 0.00238123 0)
(0 0.00156755 0)
(0 0.00270418 0)
(0 0.00147599 0)
(0 0.00147095 0)
(0 0.00480934 0)
(0 0.00367478 0)
(0 0.00478607 0)
(0 0.00140618 0)
(0 0.00336823 0)
(0 0.000895212 0)
(0 0.001708 0)
(0 0.00293251 0)
(0 0.00251378 0)
(0 0.00151522 0)
(0 0.00310722 0)
(0 0.00515811 0)
(0 0.00464286 0)
(0 0.00175729 0)
(0 0.0042386 0)
(0 0.000763197 0)
(0 0.00103458 0)
(0 0.00201171 0)
(0 0.00409464 0)
(0 0.00117431 0)
(0 0.00349215 0)
(0 0.00201152 0)
(0 0.000168648 0)
(0 0.00260343 0)
(0 0.00318939 0)
(0 0.00228954 0)
(0 0.00561976 0)
(0 0.00416685 0)
(0 0.00585133 0)
(0 0.00108653 0)
(0 0.000949526 0)
(0 0.00252581 0)
(0 0.00154975 0)
(0 0.00198268 0)
(0 0.00203696 0)
(0 0.00238245 0)
(0 0.000353507 0)
(0 0.0011069 0)
(0 0.00246384 0)
(0 0.00145183 0)
(0 0.00311145 0)
(0 0.00280656 0)
(0 0.00330213 0)
(0 0.00181345 0)
(0 0.00372489 0)
(0 0.00140941 0)
(0 0.000935672 0)
(0 0.00017737 0)
(0 0.00180662 0)
(0 0.00238896 0)
(0 0.00149159 0)
(0 0.00455404 0)
(0 0.00354613 0)
(0 0.00181115 0)
(0 0.00160117 0)
(0 0.00397786 0)
(0 0.000126665 0)
(0 0.00177143 0)
(0 0.004631 0)
(0 0.00264045 0)
(0 0.00569752 0)
(0 0.00283338 0)
(0 0.00127387 0)
(0 0.000297377 0)
(0 0.00531992 0)
(0 0.005043 0)
(0 0.00295057 0)
(0 0.0043246 0)
(0 0.00455365 0)
(0 0.00309296 0)
(0 0.00377654 0)
(0 0.0023651 0)
(0 0.003779 0)
(0 0.00487376 0)
(0 0.00225818 0)
(0 0.00120716 0)
(0 0.00144284 0)
(0 0.0014614 0)
(0 0.00212378 0)
(0 0.00159466 0)
(0 0.00323599 0)
(0 0.00128957 0)
(0 0.00258408 0)
(0 0.00314233 0)
(0 0.0018683 0)
(0 0.00161929 0)
(0 0.00258662 0)
(0 0.0015954 0)
(0 0.00255448 0)
(0 0.00512561 0)
(0 0.000829532 0)
(0 0.00264037 0)
(0 0.00170834 0)
(0 0.00215417 0)
(0 0.00138461 0)
(0 4.83823e-05 0)
(0 0.00492776 0)
(0 0.00125165 0)
(0 0.000881963 0)
(0 0.00124399 0)
(0 0.00117888 0)
(0 0.00319787 0)
(0 0.00075115 0)
(0 0.00370293 0)
(0 0.00159398 0)
(0 0.00286418 0)
(0 0.000451187 0)
(0 0.00538739 0)
(0 0.00135805 0)
(0 0.00106737 0)
(0 0.0017152 0)
(0 0.00178671 0)
(0 0.00136078 0)
(0 0.00177124 0)
(0 0.00119484 0)
(0 0.00174486 0)
(0 0.00537972 0)
(0 0.000830112 0)
(0 0.00337625 0)
(0 0.000186533 0)
(0 0.00210109 0)
(0 0.00471347 0)
(0 0.0018144 0)
(0 0.00137998 0)
(0 0.00261344 0)
(0 0.00484037 0)
(0 0.00260803 0)
(0 0.00108621 0)
(0 0.00503101 0)
(0 0.00164991 0)
(0 0.000218879 0)
(0 0.00558758 0)
(0 0.000624881 0)
(0 0.00270331 0)
(0 0.000453817 0)
(0 0.000722357 0)
(0 0.00163679 0)
(0 0.00139026 0)
(0 0.00035824 0)
(0 0.00196632 0)
(0 0.0052328 0)
(0 0.00428264 0)
(0 0.00214682 0)
(0 0.00124427 0)
(0 0.00125153 0)
(0 0.00530056 0)
(0 0.00109182 0)
(0 0.00198621 0)
(0 0.00474185 0)
(0 0.00182661 0)
(0 0.00177604 0)
(0 0.00137216 0)
(0 0.000709188 0)
(0 0.00477196 0)
(0 0.00318286 0)
(0 0.00130616 0)
(0 0.00555541 0)
(0 0.00468282 0)
(0 0.00193891 0)
(0 0.00531209 0)
(0 0.0047759 0)
(0 0.00466117 0)
(0 9.13598e-05 0)
(0 5.73711e-05 0)
(0 0.002486 0)
(0 0.00301586 0)
(0 0.00401554 0)
(0 0.00218198 0)
(0 0.00152115 0)
(0 0.00176439 0)
(0 0.00189451 0)
(0 0.00169915 0)
(0 0.00156349 0)
(0 0.00494904 0)
(0 0.00130508 0)
(0 0.00183406 0)
(0 0.00502715 0)
(0 0.00534223 0)
(0 0.00387697 0)
(0 0.00469172 0)
(0 0.00143607 0)
(0 0.00493427 0)
(0 0.00314043 0)
(0 0.0018338 0)
(0 0.00281995 0)
(0 0.00193246 0)
(0 0.00448217 0)
(0 0.00312 0)
(0 0.00205085 0)
(0 0.0010185 0)
(0 0.00358451 0)
(0 0.000366838 0)
(0 0.0030269 0)
(0 0.0053031 0)
(0 0.00130114 0)
(0 0.00476871 0)
(0 0.00188747 0)
(0 8.29602e-05 0)
(0 0.00163516 0)
(0 0.00574999 0)
(0 0.00178572 0)
(0 0.000733062 0)
(0 0.00213603 0)
(0 0.00172328 0)
(0 0.00394859 0)
(0 7.97099e-05 0)
(0 0.00172692 0)
(0 0.00192864 0)
(0 0.00358246 0)
(0 0.00496114 0)
(0 0.00536293 0)
(0 8.64811e-05 0)
(0 0.00240171 0)
(0 0.000150896 0)
(0 0.00253401 0)
(0 0.00210035 0)
(0 0.00155748 0)
(0 0.00347855 0)
(0 6.43031e-05 0)
(0 0.00256141 0)
(0 0.00165844 0)
(0 0.00224339 0)
(0 0.00182211 0)
(0 0.00209752 0)
(0 0.00179155 0)
(0 0.00448129 0)
(0 0.00267137 0)
(0 0.001896 0)
(0 0.00185467 0)
(0 0.00381238 0)
(0 0.000361368 0)
(0 0.00216342 0)
(0 0.00233539 0)
(0 0.00227739 0)
(0 0.00315926 0)
(0 0.00170924 0)
(0 0.00471594 0)
(0 0.00100193 0)
(0 0.00224192 0)
(0 0.00170908 0)
(0 0.000135653 0)
(0 0.00255027 0)
(0 0.00036136 0)
(0 0.00189025 0)
(0 0.00206742 0)
(0 0.00191435 0)
(0 0.00152166 0)
(0 0.00215168 0)
(0 0.0015196 0)
(0 0.0040376 0)
(0 0.00212643 0)
(0 0.00436801 0)
(0 0.00379146 0)
(0 0.0046555 0)
(0 0.00213014 0)
(0 0.00225846 0)
(0 0.00149274 0)
(0 0.00243285 0)
(0 0.00209251 0)
(0 0.000375213 0)
(0 0.00364485 0)
(0 0.00176074 0)
(0 0.00297414 0)
(0 0.00220536 0)
(0 0.000453346 0)
(0 0.00420942 0)
(0 0.000433489 0)
(0 0.0019514 0)
(0 0.00158518 0)
(0 0.0022974 0)
(0 0.00154798 0)
(0 0.00149397 0)
(0 0.00248092 0)
(0 0.00156013 0)
(0 0.00221887 0)
(0 0.00390545 0)
(0 0.00354744 0)
(0 0.00237488 0)
(0 0.00136785 0)
(0 0.00192962 0)
(0 0.000182254 0)
(0 0.00221277 0)
(0 0.00215799 0)
(0 0.00479951 0)
(0 0.0038155 0)
(0 0.0031932 0)
(0 0.000715073 0)
(0 0.00197582 0)
(0 0.00381835 0)
(0 7.87935e-05 0)
(0 0.00131351 0)
(0 0.00125996 0)
(0 0.00403816 0)
(0 0.0016618 0)
(0 0.0024197 0)
(0 0.00226668 0)
(0 0.00161551 0)
(0 0.00454694 0)
(0 0.00380678 0)
(0 0.00155331 0)
(0 0.00135731 0)
(0 0.000143151 0)
(0 0.00522333 0)
(0 0.00467062 0)
(0 0.00166747 0)
(0 0.0027835 0)
(0 0.00139411 0)
(0 0.00142618 0)
(0 0.00181944 0)
(0 0.00130067 0)
(0 0.00190137 0)
(0 0.00212604 0)
(0 0.00140856 0)
(0 0.00542649 0)
(0 0.00230988 0)
(0 0.00207414 0)
(0 0.00181348 0)
(0 0.00131849 0)
(0 0.00177564 0)
(0 0.00275175 0)
(0 0.004475 0)
(0 0.00203332 0)
(0 0.00166839 0)
(0 0.00180757 0)
(0 0.001323 0)
(0 0.00289575 0)
(0 0.00213634 0)
(0 0.00426546 0)
(0 0.00175664 0)
(0 0.00149997 0)
(0 0.00156741 0)
(0 0.00485267 0)
(0 0.000848089 0)
(0 0.00246814 0)
(0 0.00125715 0)
(0 0.00158378 0)
(0 0.00151735 0)
(0 0.000345024 0)
(0 0.00267436 0)
(0 0.00471538 0)
(0 0.0048196 0)
(0 0.000972787 0)
(0 0.00356917 0)
(0 0.000791107 0)
(0 0.00533806 0)
(0 0.00213243 0)
(0 0.00361667 0)
(0 0.00209579 0)
(0 0.00017759 0)
(0 0.00430591 0)
(0 0.00144723 0)
(0 0.00226772 0)
(0 0.000839113 0)
(0 0.00167797 0)
(0 0.00428106 0)
(0 0.00110522 0)
(0 0.00366051 0)
(0 0.002182 0)
(0 0.00152698 0)
(0 0.00230644 0)
(0 0.0032326 0)
(0 0.00223921 0)
(0 0.00220172 0)
(0 0.00376885 0)
(0 0.00256051 0)
(0 0.00570368 0)
(0 0.00312975 0)
(0 0.0022348 0)
(0 0.00184684 0)
(0 0.00431332 0)
(0 0.00237188 0)
(0 0.00108893 0)
(0 0.00201435 0)
(0 0.00327173 0)
(0 0.0045579 0)
(0 0.00208091 0)
(0 0.00134821 0)
(0 0.00195033 0)
(0 0.00528288 0)
(0 0.00271013 0)
(0 0.00268781 0)
(0 0.00234297 0)
(0 0.00195367 0)
(0 0.00204793 0)
(0 0.00603317 0)
(0 0.00239205 0)
(0 0.00123262 0)
(0 0.000335076 0)
(0 0.00522281 0)
(0 0.00181655 0)
(0 0.00113357 0)
(0 0.00133925 0)
(0 0.00214242 0)
(0 0.00280024 0)