/*--------------------------------*- C++ -*----------------------------------*\
| =========                 |                                                 |
| \\      /  F ield         | OpenFOAM: The Open Source CFD Toolbox           |
|  \\    /   O peration     | Version:  v2012                                 |
|   \\  /    A nd           | Website:  www.openfoam.com                      |
|    \\/     M anipulation  |                                                 |
\*---------------------------------------------------------------------------*/
FoamFile
{
    version     2.0;
    format      ascii;
    class       volScalarField;
    location    "350";
    object      nut;
}
// * * * * * * * * * * * * * * * * * * * * * * * * * * * * * * * * * * * * * //

dimensions      [0 2 -1 0 0 0 0];


internalField   nonuniform List<scalar> 
10042
(
0.0308227
0.0130824
0.00158726
0.00670088
0.0067313
0.0221703
0.00206258
0.0203611
0.00668783
0.00219555
0.00857267
0.0146803
0.00279623
0.0067387
0.006733
0.00673898
0.0145653
0.00901557
0.00524155
0.00664129
0.00250168
0.0302833
0.00670009
0.0259058
0.00670775
0.00720766
0.00235217
0.00668319
0.0188586
0.0184901
0.00699447
0.00357393
0.00668677
0.00668573
0.0198868
0.0104843
0.00682545
0.00667829
0.00687047
0.0068352
0.0216106
0.00668636
0.00146465
0.0288159
0.00670066
0.00670957
0.00667666
0.00673087
0.00173316
0.00502262
0.00137525
0.00669649
0.0156236
0.00573283
0.00245196
0.0160494
0.0027049
0.00737696
0.00674303
0.00666277
0.00174366
0.00294219
0.000563769
0.0234671
0.00711482
0.00679365
0.00669304
0.0305695
0.00667717
0.0306288
0.00360111
0.00677773
0.00669299
0.00673964
0.0067827
0.00390434
0.00679099
0.00667729
0.00679202
0.00491217
0.0284408
0.0248186
0.00714321
0.00669674
0.00384221
0.00276057
0.00672407
0.00642076
0.00671581
0.00695612
0.00378251
0.00673403
0.000751305
0.00261809
0.00655232
0.00672918
0.00730051
0.00667942
0.0171589
0.00673594
0.00396476
0.00320566
0.00676089
0.00409848
0.00473729
0.00674407
0.00567742
0.00677008
0.00200492
0.00674766
0.00673701
0.00214979
0.00343815
0.0220981
0.00703339
0.006687
0.00650961
0.006957
0.00730253
0.00668655
0.0066615
0.0179389
0.0183366
0.00670215
0.00697576
0.00672594
0.0067304
0.00271808
0.000479144
0.00654585
0.00668109
0.00674746
0.00675246
0.00675137
0.00198765
0.00171057
0.00672472
0.00435505
0.00679565
0.0169736
0.000786868
0.0067479
0.00414807
0.00668295
0.00356735
0.00667847
0.00403373
0.00667671
0.00677716
0.0227227
0.00675731
0.00686876
0.00679099
0.00258046
0.00675797
0.00369093
0.000938992
0.0154522
0.00675773
0.0072415
0.0068602
0.00686902
0.00136109
0.00671909
0.00678556
0.0261329
0.00669218
0.00532122
0.0136228
0.00668512
0.00622255
0.0157811
0.0189535
0.00668529
0.00561568
0.0188573
0.00670736
0.00667853
0.00673838
0.00667698
0.0067935
0.00426536
0.00673918
0.00667529
0.00576537
0.00422711
0.00677601
0.00667313
0.0115669
0.00682191
0.0130086
0.00252664
0.00668206
0.00507694
0.00270327
0.00673286
0.0143737
0.00613177
0.0054572
0.00669846
0.00301593
0.000708438
0.00568665
0.00674791
0.0172396
0.00674348
0.025961
0.00246437
0.00673499
0.00675525
0.00367741
0.00672436
0.00208989
0.00642781
0.00684271
0.031467
0.00674666
0.0189496
0.00673733
0.00282608
0.0159531
0.00652163
0.0148502
0.0314465
0.00670105
0.000579193
0.00677627
0.0067534
0.00243404
0.00676183
0.00667861
0.00673759
0.00411179
0.00705082
0.00670791
0.017247
0.00680112
0.00656025
0.00394726
0.0251209
0.0208821
0.0149476
0.00666045
0.0069008
0.00536917
0.00674042
0.0117571
0.00477804
0.0067055
0.00679692
0.00482255
0.00668474
0.0218679
0.0024993
0.00677707
0.00681302
0.00687398
0.00678068
0.00729896
0.00670659
0.00715676
0.00668016
0.00669593
0.00667792
0.00269079
0.00220003
0.0072203
0.0154918
0.00709252
0.00673863
0.00671299
0.00338738
0.00671606
0.00683619
0.00678216
0.00780125
0.00678412
0.00670159
0.00710661
0.00279963
0.00668342
0.0155552
0.013182
0.00678016
0.00693989
0.0102029
0.00677979
0.00669454
0.0224303
0.00693567
0.00250114
0.00682368
0.00697255
0.0186137
0.00696013
0.00673958
0.00296801
0.00676677
0.00671358
0.00675896
0.00679324
0.00561372
0.00667515
0.0208136
0.00662506
0.00257772
0.00672813
0.00693829
0.00453871
0.0191516
0.00688437
0.00673794
0.0067253
0.00673852
0.00683974
0.0192807
0.00667732
0.00602361
0.0179388
0.00668353
0.00720778
0.00662985
0.0077904
0.0322117
0.00699975
0.00687809
0.00682586
0.00673388
0.0067888
0.00266416
0.00673977
0.00672526
0.0306754
0.00685811
0.0253091
0.0274273
0.00524392
0.0320855
0.0066857
0.0281431
0.000748535
0.00207549
0.00666074
0.00692658
0.00692836
0.00667902
0.00670502
0.00674133
0.0068865
0.00610759
0.0067558
0.00637949
0.00688846
0.00730783
0.00276738
0.00681153
0.00677404
0.00713988
0.0154787
0.00729015
0.00673916
0.00683352
0.00678536
0.00880332
0.0287088
0.00678987
0.00670889
0.00687126
0.00687306
0.00383703
0.00666533
0.00709931
0.00672023
0.00712776
0.002879
0.0067381
0.00751032
0.0160505
0.0107327
0.00278717
0.00673106
0.0194242
0.00253546
0.00672885
0.00174004
0.00669024
0.00676799
0.0066807
0.00677391
0.00668771
0.00678374
0.0149784
0.00675496
0.00682528
0.0285398
0.00237466
0.00670509
0.0211358
0.00682569
0.00510284
0.00669785
0.0120107
0.0073391
0.00255058
0.00634067
0.00739768
0.000882133
0.00805636
0.0211541
0.00678282
0.0142377
0.00309562
0.0158429
0.00675011
0.0259688
0.00689971
0.00313291
0.00295525
0.00667969
0.00688464
0.0068376
0.027411
0.00667911
0.00667489
0.000635431
0.00692211
0.00305642
0.0116977
0.00670467
0.002198
0.00692898
0.00667913
0.00310723
0.0104724
0.00793947
0.00677958
0.00595642
0.0076157
0.00724929
0.015653
0.00668288
0.00685676
0.00398244
0.011752
0.00302075
0.00826617
0.025215
0.00107809
0.0232836
0.00667545
0.00800335
0.00510427
0.00137896
0.00233361
0.00670012
0.00670647
0.00710449
0.0143251
0.00667783
0.0067215
0.00697289
0.00670421
0.00689085
0.00690249
0.00676412
0.00581079
0.0303212
0.00677983
0.00686815
0.00599327
0.00125808
0.00673693
0.0131822
0.00331772
0.0186596
0.006824
0.00376818
0.0071802
0.00221478
0.00671508
0.00635513
0.00674875
0.0159186
0.00677896
0.0048948
0.00672394
0.00796139
0.0169017
0.00718023
0.00670862
0.00674325
0.0277966
0.00668027
0.00688564
0.00253854
0.000863958
0.00702743
0.00686927
0.01911
0.00188974
0.00672981
0.00693631
0.0150896
0.025129
0.0016354
0.028741
0.00684152
0.00727656
0.00330148
0.00333318
0.00558408
0.0258881
0.00687502
0.00669899
0.00675171
0.0198
0.00670214
0.0200773
0.00670381
0.00672435
0.00672511
0.00316977
0.0285749
0.00675873
0.00677873
0.0282748
0.00604898
0.00598142
0.00675696
0.00676404
0.00723366
0.00194075
0.00673305
0.00671544
0.00259512
0.00673198
0.00672139
0.00347589
0.00667998
0.00353689
0.00670471
0.00222259
0.0072512
0.0122453
0.00670271
0.00412073
0.00675472
0.00668695
0.028741
0.0066604
0.0105622
0.00155953
0.00668417
0.00685069
0.00557832
0.0205837
0.00684268
0.00686399
0.00671607
0.00667458
0.00724455
0.00787151
0.00674733
0.0231787
0.0067223
0.00676765
0.00875346
0.0046024
0.00796094
0.0072778
0.00669592
0.00759814
0.00727957
0.00713446
0.0260391
0.00671265
0.00441454
0.00676465
0.00668606
0.00675385
0.00673948
0.00673575
0.00682998
0.0099921
0.00674399
0.00269672
0.00669905
0.00741848
0.00667841
0.00579112
0.0194062
0.00668262
0.00670012
0.00683009
0.00668564
0.00667872
0.00915662
0.00671484
0.0262154
0.00667835
0.00683917
0.00668554
0.0149868
0.0066777
0.00671672
0.00674563
0.00864181
0.00720311
0.00675023
0.00683954
0.00298833
0.00670529
0.00670812
0.00673776
0.00670833
0.00497966
0.00670863
0.0074533
0.00677754
0.00719016
0.0261286
0.0172157
0.00678511
0.00445124
0.00673121
0.00446825
0.00680994
0.0214249
0.00537854
0.017147
0.0226832
0.010608
0.00671194
0.00672844
0.0178739
0.00590148
0.00684458
0.000657267
0.00673586
0.00604999
0.00670073
0.00673267
0.00675363
0.0066793
0.00685098
0.0182133
0.00678062
0.00716385
0.0142648
0.006718
0.00431919
0.00680832
0.00677611
0.00694537
0.00681784
0.0216122
0.00674217
0.00673099
0.0033964
0.00672716
0.00671358
0.00700992
0.00670724
0.00669438
0.00692656
0.00298761
0.0269548
0.00672849
0.00671229
0.00670569
0.00741496
0.00677518
0.00677716
0.00680061
0.00669875
0.0120718
0.00556309
0.00736429
0.00677781
0.00694516
0.00801907
0.00412174
0.00689299
0.00383665
0.0238551
0.00233992
0.0109431
0.00670068
0.00683879
0.00674906
0.0236492
0.006699
0.00410783
0.00676003
0.00666082
0.00692569
0.00680569
0.0165039
0.0163742
0.00669751
0.00670034
0.00667297
0.00716217
0.00667917
0.0139557
0.00685308
0.00922029
0.00671074
0.00673833
0.0066825
0.00669865
0.00672367
0.0066817
0.0067152
0.00675285
0.00682011
0.00506989
0.0132276
0.00671095
0.00175095
0.0307808
0.00686111
0.0152113
0.0066983
0.00673657
0.00751419
0.00691313
0.0235377
0.00675987
0.00678211
0.00674279
0.00244119
0.00673105
0.0225718
0.00176522
0.00671398
0.00283839
0.0215719
0.00679531
0.00669462
0.000634341
0.00709951
0.0150793
0.00677128
0.00676728
0.00684412
0.00672696
0.00673088
0.006789
0.00565271
0.00749319
0.0298726
0.00224172
0.00666112
0.0072535
0.00680575
0.00368424
0.00708852
0.0130129
0.00673962
0.00673671
0.00597595
0.00670894
0.000771675
0.00292526
0.00696237
0.0284345
0.00802974
0.0067154
0.006801
0.00285368
0.0067331
0.00250727
0.00674898
0.00301414
0.00391145
0.0220003
0.00678596
0.00357209
0.00706487
0.00675838
0.00185717
0.00668313
0.00286125
0.0067203
0.0067467
0.00674189
0.006738
0.00679134
0.0016641
0.0069324
0.00673147
0.00877739
0.006685
0.00671226
0.00669831
0.00667575
0.00742878
0.00844249
0.0067767
0.0128667
0.00800613
0.00672285
0.00719409
0.0169673
0.00669749
0.00672961
0.00667368
0.0290337
0.0240987
0.00469801
0.00671889
0.001708
0.00205007
0.0145809
0.0068307
0.0287882
0.00135152
0.0171341
0.00803372
0.00668534
0.00734194
0.0058522
0.00436592
0.00674572
0.0133829
0.00667848
0.0280197
0.0227677
0.00674535
0.00683553
0.0129906
0.00682794
0.00308468
0.00493962
0.0113645
0.00678277
0.011531
0.00672675
0.011047
0.00694463
0.00676148
0.00667309
0.00673503
0.00670085
0.0115344
0.00674421
0.00666209
0.0084707
0.00672151
0.00371355
0.00685104
0.0300592
0.00700608
0.00678406
0.00676866
0.00674847
0.00671606
0.0038862
0.00669522
0.00827537
0.00675168
0.00376276
0.00675011
0.0227537
0.00669373
0.000770075
0.00810939
0.00753796
0.00671964
0.00668139
0.00674503
0.00684033
0.0191803
0.00583521
0.00670842
0.0219295
0.00687089
0.00676366
0.0259912
0.00667344
0.0067727
0.020555
0.0066953
0.00358117
0.00679251
0.00369945
0.00398363
0.00598004
0.00686104
0.00672613
0.00660702
0.00749233
0.00670053
0.00352267
0.0168008
0.00816825
0.00147583
0.00733738
0.00670894
0.00706524
0.00673955
0.00806583
0.00281046
0.00454763
0.00667518
0.00580798
0.0171788
0.0294411
0.00667559
0.00667268
0.00721875
0.00673969
0.0163244
0.00661516
0.00678828
0.00431203
0.00275077
0.00679427
0.00689678
0.0151305
0.0067716
0.00390194
0.00781267
0.00682338
0.00672984
0.00826329
0.00457919
0.00604096
0.00677252
0.0213506
0.0187287
0.0254656
0.00553105
0.00677479
0.0148259
0.00553922
0.0216781
0.00425574
0.00672775
0.00673324
0.0268067
0.0213968
0.00688289
0.00444157
0.0052015
0.00672756
0.000961344
0.0068815
0.0067248
0.00718083
0.00567305
0.00671362
0.0067013
0.007861
0.00671042
0.00670587
0.00312782
0.00436347
0.017853
0.00694995
0.0067844
0.0272856
0.0016653
0.00689842
0.00194803
0.00412244
0.00670696
0.00669285
0.00421366
0.00467051
0.00670288
0.00679592
0.00673049
0.00678028
0.00674055
0.00245167
0.00680028
0.0139701
0.00672933
0.00619708
0.00722518
0.00674248
0.00670398
0.0167048
0.00217956
0.00672037
0.00691566
0.00620957
0.0160652
0.00720906
0.00677677
0.00480252
0.00671031
0.00718844
0.00198168
0.00733847
0.00677803
0.00669767
0.0042225
0.00434001
0.0142529
0.00748996
0.00677427
0.00408069
0.0160848
0.00670151
0.00669248
0.00210038
0.00667561
0.0066954
0.00294098
0.00678042
0.0106213
0.00668839
0.00669555
0.0067744
0.00632005
0.00680793
0.00791602
0.00272809
0.0066968
0.0067752
0.0107454
0.0067325
0.00445685
0.0069139
0.00583364
0.0129941
0.00692052
0.0197599
0.00663592
0.00673358
0.0169007
0.00677128
0.00671884
0.00667827
0.00669996
0.00708618
0.0242985
0.00461881
0.0260424
0.0216363
0.0175297
0.00551468
0.0101371
0.00522516
0.00369285
0.00668833
0.00404573
0.0067299
0.0068076
0.00677054
0.0100657
0.0260395
0.00672299
0.00627382
0.00670236
0.00231188
0.00681499
0.00601634
0.00680403
0.0134743
0.0104667
0.00671476
0.00668466
0.00227713
0.000644184
0.00744594
0.00723529
0.00804601
0.006787
0.0117701
0.0256139
0.00669451
0.0066936
0.00671038
0.00468739
0.00698915
0.00678274
0.00683575
0.00776403
0.0067907
0.00677963
0.00772152
0.00426035
0.0272364
0.00669361
0.00260556
0.00678337
0.00517993
0.00360654
0.00439441
0.00669449
0.00138546
0.00378509
0.00674187
0.00139852
0.00791169
0.00673765
0.00669497
0.00729675
0.027007
0.0221679
0.00675852
0.0128628
0.00679135
0.00673948
0.00179336
0.006723
0.00763758
0.00670417
0.00774555
0.00802746
0.00570754
0.00703582
0.00676494
0.00670846
0.0067934
0.00670257
0.0253583
0.00669032
0.00643395
0.00214998
0.0065264
0.00668752
0.016272
0.00680086
0.00259543
0.00690453
0.00541615
0.00668316
0.012568
0.00247952
0.00240803
0.00672266
0.00710363
0.0110124
0.00125335
0.00682295
0.0124296
0.00672218
0.020624
0.0273605
0.006876
0.0102438
0.0253158
0.00693651
0.0126975
0.0011516
0.0263731
0.00669424
0.00727061
0.0136053
0.000882087
0.00670816
0.0172673
0.00677597
0.00669902
0.00685812
0.00730563
0.000879929
0.00634043
0.00860101
0.00289981
0.00231742
0.00678221
0.00670678
0.00682946
0.00894821
0.0318256
0.00301672
0.02805
0.00676411
0.00677883
0.0022182
0.00295522
0.00184189
0.00670024
0.00386233
0.0210041
0.00685956
0.00478664
0.00675804
0.00582672
0.00693782
0.00671776
0.00682673
0.0276911
0.00670987
0.00678484
0.00669719
0.0257722
0.00693096
0.00307283
0.00546546
0.00670597
0.00675856
0.0066823
0.00203092
0.00679447
0.00747306
0.00682458
0.00723091
0.00333687
0.00677437
0.0037459
0.0262747
0.00683653
0.00390645
0.00684667
0.00672302
0.0153396
0.0273227
0.00677649
0.00882395
0.00825313
0.0317252
0.00671069
0.00763776
0.00683874
0.00689881
0.00601203
0.00438625
0.00679596
0.00707122
0.00904769
0.00427353
0.00637303
0.0261705
0.00108594
0.011921
0.00669884
0.0066787
0.00288558
0.00684863
0.0111559
0.0202841
0.00287329
0.0245475
0.00676982
0.00750193
0.00141772
0.0256853
0.0067186
0.0036059
0.00713895
0.00674985
0.000680382
0.00678342
0.00676842
0.0015996
0.00562739
0.00746572
0.00595754
0.0066966
0.00688754
0.00434295
0.00471548
0.0253895
0.00672064
0.00390985
0.00670437
0.00671091
0.0271915
0.00672579
0.0131521
0.0082544
0.00677912
0.0186889
0.00498132
0.00678428
0.00667377
0.0103785
0.000644043
0.00520969
0.00675828
0.00721439
0.00670209
0.00535747
0.00657794
0.00303303
0.00567146
0.00668927
0.003555
0.00667122
0.00579964
0.00669559
0.0262928
0.00673792
0.00668926
0.00669135
0.0140431
0.00669477
0.00682096
0.00668931
0.00670337
0.00671099
0.00423834
0.00404719
0.0071911
0.00425264
0.00673333
0.00669518
0.00669285
0.00646707
0.0125696
0.0042838
0.00673293
0.00669346
0.00676052
0.00528092
0.00448808
0.00669084
0.0219284
0.00308789
0.00514532
0.00710273
0.00670478
0.00670881
0.00630658
0.00669499
0.00677435
0.00671252
0.00669843
0.00690749
0.00688
0.00989562
0.0123277
0.00759652
0.00725572
0.00669706
0.00672756
0.0144934
0.0067752
0.00295624
0.00702567
0.00669032
0.0067327
0.00670081
0.016024
0.00678019
0.0185713
0.0155073
0.00134245
0.00671909
0.00452282
0.0271318
0.00556972
0.0018232
0.00690792
0.00549817
0.00669067
0.00430129
0.00428277
0.0254066
0.00670694
0.00672502
0.00206266
0.00448368
0.00152837
0.00705445
0.0162199
0.00671611
0.00438506
0.00671253
0.00214415
0.000998939
0.00739077
0.00673086
0.0068402
0.00673257
0.00483197
0.0248612
0.00345168
0.00669306
0.016365
0.00690403
0.0292417
0.0221989
0.00670677
0.0137082
0.00452842
0.00669593
0.00337694
0.00210904
0.00677344
0.00664094
0.00669495
0.0131955
0.00837559
0.0160976
0.00145937
0.00164264
0.00673519
0.00404005
0.00677344
0.00670209
0.00668566
0.00681403
0.00125368
0.00676611
0.00190009
0.00302428
0.00733722
0.00193676
0.00899835
0.0068061
0.015137
0.00670394
0.00152688
0.0135183
0.0055826
0.0067825
0.0226055
0.00939267
0.00668553
0.0067682
0.00668814
0.00229473
0.00688067
0.0232966
0.00442464
0.0145384
0.00402931
0.006855
0.00704744
0.00672743
0.00668497
0.0146642
0.0236718
0.0049053
0.00671222
0.00706865
0.00577628
0.00689662
0.000834083
0.00671712
0.0239781
0.0253513
0.00676891
0.00733266
0.00254702
0.00407236
0.00775075
0.0177097
0.00683303
0.0257728
0.00690172
0.00609028
0.00669502
0.00913143
0.00688794
0.026884
0.00688126
0.012273
0.0276245
0.0147327
0.000617301
0.00805331
0.00725366
0.00766017
0.0221171
0.0162881
0.000724832
0.00422236
0.0149593
0.00499559
0.0274842
0.0053979
0.0182691
0.00610852
0.0022555
0.0229327
0.00679679
0.00684222
0.00713966
0.00671393
0.00668726
0.00670359
0.0067634
0.00216386
0.00677119
0.0148072
0.00087273
0.000805937
0.0124643
0.0231036
0.00697743
0.00675429
0.00114733
0.00571666
0.00653224
0.0251987
0.0156596
0.0254982
0.00669967
0.00263105
0.00610032
0.000964641
0.00560225
0.0276759
0.0285196
0.00115247
0.00676198
0.00684707
0.00241326
0.00597531
0.00166558
0.00121369
0.00669597
0.00691165
0.00649437
0.0169936
0.00618965
0.00669923
0.00669576
0.00678353
0.00246997
0.0101997
0.00674517
0.0010002
0.0140706
0.00690723
0.00284746
0.00703973
0.00235854
0.00700652
0.00225366
0.00137097
0.00669944
0.00671588
0.00722353
0.00241097
0.000669481
0.00198669
0.00678072
0.0067968
0.00674098
0.00247158
0.00208706
0.00626857
0.00673723
0.0076532
0.00691212
0.0247068
0.00679592
0.00262165
0.00671054
0.00165759
0.00663975
0.00138748
0.00205911
0.00765408
0.00698445
0.0234851
0.00694813
0.0278741
0.00138898
0.00673338
0.00644288
0.00191099
0.00671137
0.00262868
0.00673614
0.0128243
0.0119198
0.00534025
0.00679371
0.00669925
0.00670227
0.00671749
0.00485355
0.00667723
0.00677066
0.00669538
0.00669446
0.0061601
0.00684664
0.00679134
0.00683058
0.00277201
0.00672502
0.00415164
0.00676631
0.00672363
0.00138734
0.00669871
0.00315087
0.0159692
0.00675661
0.00677581
0.00401546
0.0237568
0.00712202
0.0017139
0.00286684
0.00680647
0.00204112
0.00670419
0.0105285
0.00673064
0.00732111
0.00672825
0.0142925
0.0140799
0.0211188
0.00675116
0.00642671
0.00669414
0.0059569
0.00428529
0.00671081
0.00671253
0.00301619
0.00700276
0.0277092
0.00589572
0.0067714
0.00192185
0.00671817
0.00445125
0.00678849
0.00671095
0.00677519
0.00232119
0.0155585
0.0067746
0.00679678
0.00677394
0.00678899
0.000512169
0.0138085
0.00173385
0.0062724
0.0282257
0.00677943
0.0060396
0.000597894
0.0066975
0.00630136
0.00682565
0.00678524
0.0118774
0.00673209
0.023494
0.00696897
0.00677003
0.000621569
0.00631622
0.00543034
0.00687902
0.00370613
0.00102636
0.00680621
0.00727603
0.00676614
0.00511093
0.00278621
0.00510637
0.006773
0.00669185
0.00720957
0.0067726
0.00929207
0.00669712
0.00702142
0.00672617
0.00681711
0.00396567
0.00676728
0.0029895
0.00676132
0.006777
0.00425931
0.00676244
0.00524377
0.00708498
0.00676463
0.0164458
0.00669958
0.00669226
0.00677546
0.00681784
0.0066855
0.0117583
0.0067746
0.00671337
0.00615229
0.028501
0.0148642
0.0217011
0.00676764
0.00436697
0.00669104
0.0067981
0.0283034
0.00319356
0.00894645
0.00678575
0.00595445
0.00707214
0.00514234
0.00669066
0.0150729
0.0080655
0.00669769
0.00436924
0.00675991
0.00678116
0.00268085
0.00674866
0.00672717
0.00669825
0.00668385
0.010435
0.00674238
0.00299281
0.00487084
0.00673834
0.00669458
0.00671601
0.00915546
0.0054481
0.00669462
0.00747979
0.0230168
0.00677069
0.0257823
0.0067346
0.00669267
0.00669082
0.00673812
0.00694444
0.0067871
0.00675557
0.00679479
0.00674628
0.000574943
0.00679964
0.00399015
0.00245958
0.00671572
0.00415981
0.00668779
0.00700885
0.00171316
0.00669614
0.0196763
0.00669985
0.00100886
0.014773
0.00668857
0.00253227
0.0258095
0.00673263
0.00680087
0.00676598
0.00546693
0.00673157
0.00327091
0.0233793
0.00719284
0.00349775
0.00163976
0.00398427
0.00683538
0.00675414
0.00674081
0.00515626
0.00201086
0.00558474
0.00520203
0.00683639
0.00068424
0.0028924
0.000782722
0.00672637
0.00118423
0.00679976
0.00227189
0.00668849
0.00690396
0.0137631
0.00391121
0.00790779
0.00552557
0.00707533
0.0109562
0.00668652
0.00700085
0.00672834
0.00424844
0.00111161
0.00763792
0.0157056
0.00568386
0.00437742
0.00716472
0.0070449
0.00669567
0.00683385
0.00676867
0.00687627
0.00460577
0.00670641
0.00179538
0.00392597
0.00674378
0.00689612
0.00670869
0.00670727
0.00130176
0.00671189
0.00461305
0.00685391
0.00311773
0.00679206
0.00675457
0.00667762
0.000648966
0.00677875
0.0127619
0.0136338
0.0110435
0.00497316
0.00677606
0.00671186
0.00669519
0.00670496
0.0209879
0.00677189
0.00676493
0.0094544
0.00672738
0.00678731
0.0170392
0.00382348
0.00178046
0.00715567
0.0109864
0.0076627
0.00669963
0.00670848
0.00643362
0.00412224
0.00119975
0.0243801
0.00154336
0.00673178
0.00669442
0.00941326
0.00401489
0.0067597
0.00678358
0.00675462
0.00621866
0.0263156
0.00581188
0.00690588
0.00419138
0.00685166
0.00511938
0.0107503
0.00672883
0.00669481
0.00671737
0.00916292
0.00669406
0.00472518
0.0167103
0.0169319
0.00669113
0.00670713
0.00668173
0.00673835
0.00684203
0.00621797
0.0126562
0.0067842
0.00137018
0.00276061
0.0070842
0.00701253
0.00677526
0.0067363
0.00670396
0.00669649
0.00684857
0.00674338
0.00230852
0.000667822
0.00741476
0.00668736
0.00676901
0.00677235
0.00219792
0.00567126
0.0250474
0.00440604
0.0065367
0.00100362
0.00670743
0.00673946
0.00670681
0.00676474
0.0124817
0.0067292
0.00466773
0.0036474
0.00295522
0.0251498
0.00215398
0.0016943
0.0249951
0.00671018
0.0063312
0.0029172
0.0144504
0.00673353
0.00679638
0.0069838
0.00673684
0.00673952
0.00240438
0.00672404
0.00673406
0.0123958
0.00475277
0.00518544
0.00670976
0.00668857
0.00631314
0.00414924
0.00691578
0.0225484
0.00694637
0.00216307
0.00220163
0.00669777
0.0033422
0.00670067
0.00474306
0.00674094
0.00669786
0.0144
0.00794049
0.0168347
0.00142547
0.000141336
0.00303452
0.00976191
0.00670048
0.00676641
0.00423476
0.00671045
0.00675061
0.00678935
0.0067306
0.00449128
0.00673298
0.00324109
0.0250694
0.00668553
0.0188227
0.00677493
0.0067024
0.00479088
0.00531705
0.0056727
0.00574663
0.00665209
0.0244286
0.00676369
0.00670935
0.00689114
0.00527383
0.00264001
0.00669435
0.00677968
0.00683021
0.00891081
0.00669943
0.00704867
0.00706528
0.00717954
0.00672506
0.00674179
0.00520028
0.00182692
0.00707992
0.00678836
0.0067111
0.00642899
0.0037569
0.00675977
0.00326579
0.00786629
0.00672889
0.00641928
0.0146291
0.0141087
0.00211242
0.00668075
0.00669932
0.00285074
0.00524189
0.0102962
0.00384076
0.01025
0.0046868
0.0188149
0.00336766
0.0166171
0.00247106
0.017512
0.0280727
0.0133515
0.00678395
0.0270362
0.00677839
0.00381615
0.00678766
0.00678056
0.00711024
0.00307689
0.0266706
0.00684424
0.00675554
0.00496076
0.00534782
0.0107618
0.00669318
0.00672219
0.00671986
0.00505852
0.00677237
0.0054344
0.0209153
0.0189772
0.00535425
0.00692518
0.000698245
0.0067501
0.00672315
0.0100668
0.00676786
0.005774
0.00688492
0.0165549
0.000976707
0.0260115
0.0067888
0.00114215
0.00948706
0.0059333
0.00267696
0.0157391
0.00706824
0.00930696
0.00669712
0.0067359
0.000758639
0.00672794
0.0067745
0.00673397
0.00676738
0.00651217
0.0068973
0.00669594
0.00644551
0.00761509
0.0290063
0.00677875
0.00169901
0.00301638
0.00690759
0.00182638
0.0211939
0.00680215
0.00462545
0.0161155
0.00676371
0.00673355
0.00683818
0.00654296
0.0167409
0.00669716
0.0068523
0.0166381
0.00670886
0.00669592
0.00677959
0.00677472
0.0292012
0.00674225
0.00224371
0.00675086
0.013824
0.00670811
0.0160016
0.0240617
0.0270663
0.0196879
0.00669845
0.00713059
0.0067648
0.00672835
0.0137919
0.00125552
0.0198756
0.0237536
0.00680425
0.00677607
0.00625285
0.0067306
0.0245897
0.00670216
0.00267724
0.0122363
0.0230637
0.0101581
0.00670872
0.00677137
0.0198352
0.00679743
0.00670513
0.011848
0.0120649
0.00458274
0.00724087
0.00671777
0.0067003
0.00677509
0.00854984
0.00684533
0.00695551
0.00671693
0.00676195
0.0118433
0.00679518
0.00548722
0.00575384
0.00675848
0.00711099
0.00306177
0.00669171
0.00680804
0.028379
0.00673688
0.00674051
0.00323421
0.0127327
0.00476062
0.00690187
0.00668863
0.00315822
0.00855745
0.00304716
0.00675076
0.00669198
0.00418492
0.00675444
0.00567099
0.0200121
0.0228788
0.0189357
0.00671654
0.00615009
0.00670466
0.00225708
0.00673372
0.0107201
0.0243411
0.00673361
0.0146341
0.0067109
0.014429
0.00408957
0.0066851
0.00705686
0.00670162
0.00669662
0.00669999
0.00667886
0.00842417
0.0189704
0.00675645
0.00668782
0.000608766
0.00668238
0.00677751
0.0067853
0.00670261
0.006726
0.0240846
0.00237454
0.0067599
0.00678059
0.00679348
0.00672802
0.0184794
0.0217371
0.00673084
0.00670747
0.00684309
0.0260652
0.00676468
0.00677275
0.00678994
0.00208232
0.00678478
0.00678128
0.0251328
0.00676211
0.0189101
0.00670862
0.00672251
0.00669772
0.00670158
0.00669389
0.00672313
0.0028473
0.0123491
0.00668833
0.00680252
0.00692258
0.00239979
0.00480276
0.00176875
0.00672185
0.00677287
0.00651565
0.00677587
0.024521
0.00883249
0.00670023
0.0067931
0.0033845
0.00677078
0.0279157
0.00181838
0.00669854
0.0221432
0.0191107
0.025872
0.0198801
0.00714458
0.00460868
0.00669845
0.0170453
0.00675027
0.00685098
0.00641805
0.00687485
0.00671224
0.0122343
0.0066928
0.000996716
0.0127302
0.0067696
0.00673463
0.0152134
0.00670728
0.0156772
0.00668302
0.0204486
0.00264458
0.0258382
0.00670902
0.00670081
0.00678001
0.0201653
0.0100269
0.0248774
0.0245961
0.00690774
0.00672071
0.0199306
0.00208357
0.00671086
0.00679104
0.00713117
0.00669753
0.0158414
0.00448786
0.00669597
0.0118165
0.00669895
0.00669982
0.00668168
0.0067248
0.00670883
0.0060546
0.00671378
0.0215699
0.00671639
0.00676802
0.00676971
0.0067761
0.00670229
0.00671815
0.00700373
0.0066928
0.00132059
0.0248569
0.00953562
0.00614798
0.0130073
0.00331754
0.00674934
0.00668274
0.00670712
0.00668097
0.00256885
0.00655183
0.00687882
0.00679688
0.00782734
0.0067756
0.0246666
0.0067726
0.00669684
0.00676246
0.00734769
0.00413175
0.00214166
0.0148561
0.00706275
0.00835799
0.00897515
0.00677227
0.00670031
0.00669334
0.00266769
0.00239492
0.00644901
0.0133594
0.00221512
0.00669542
0.00234346
0.00670325
0.00683261
0.00673594
0.00868013
0.0067804
0.00437344
0.00583862
0.00676586
0.00705689
0.00590744
0.00652711
0.0257719
0.00669695
0.00669406
0.00672765
0.006726
0.0145853
0.00669682
0.00676764
0.00659377
0.00678027
0.0181012
0.0051305
0.00137413
0.00676946
0.00676099
0.00568278
0.00770052
0.00669895
0.00670767
0.00295375
0.00670804
0.0067224
0.0057542
0.0070178
0.00291651
0.0243063
0.0250087
0.00214415
0.00671516
0.00676792
0.0029317
0.00669761
0.00670918
0.00780486
0.00219664
0.00708949
0.00673119
0.00669464
0.00678965
0.00406515
0.00672677
0.00678806
0.00676873
0.00668341
0.00671048
0.005718
0.00682372
0.00670423
0.00677805
0.00676123
0.00669182
0.00650703
0.0250551
0.00691763
0.00671308
0.00674261
0.00675798
0.00671998
0.0223783
0.00671159
0.0247469
0.00767849
0.00669741
0.00669218
0.0220884
0.00669133
0.00670386
0.00669828
0.00788906
0.00714746
0.00869136
0.00670457
0.0067464
0.00672817
0.0231325
0.0067233
0.00675652
0.00184521
0.00965567
0.0066033
0.00669353
0.0109307
0.00666237
0.00882478
0.00669639
0.00692427
0.00669373
0.00672986
0.00674634
0.00526159
0.000578554
0.0249621
0.000982832
0.00572337
0.00785161
0.00674091
0.0233088
0.00797824
0.0067955
0.00345597
0.00267578
0.0162729
0.00670612
0.00987328
0.00677012
0.00669694
0.00698601
0.000844287
0.0046891
0.0042985
0.0265506
0.00430928
0.00531547
0.00670966
0.00594809
0.00182047
0.0099971
0.0034166
0.00693568
0.00673092
0.00555503
0.0280508
0.00670185
0.0192518
0.00678479
0.0130354
0.00669126
0.00668948
0.00350824
0.00356504
0.0115777
0.0188214
0.00339015
0.00669678
0.00674431
0.00314231
0.0296763
0.00575744
0.00669306
0.00691383
0.00669234
0.00669532
0.00669618
0.00250454
0.00484181
0.00192319
0.00435473
0.0206779
0.0226602
0.00670084
0.00673325
0.00778928
0.00670292
0.00654002
0.00670909
0.00678443
0.00675071
0.00669391
0.00539745
0.028327
0.00672697
0.00670139
0.00670867
0.00459254
0.00588327
0.00599019
0.00601839
0.0114607
0.00312154
0.00672304
0.00367994
0.00438032
0.00669992
0.0216891
0.00673412
0.00672302
0.00670944
0.0216651
0.00669438
0.00669235
0.00679652
0.00676939
0.00671381
0.00670245
0.00597955
0.0190151
0.0245533
0.00677279
0.00670936
0.016703
0.00671622
0.00670062
0.0066938
0.00592501
0.00670845
0.00395637
0.00668246
0.00669928
0.00578797
0.0060454
0.00670094
0.00698125
0.00907888
0.0274921
0.0066999
0.00667192
0.00669295
0.028211
0.00680469
0.00642094
0.0125483
0.00672535
0.00668256
0.00677396
0.00673007
0.00315973
0.00670664
0.0067213
0.00670424
0.00662296
0.0132141
0.00674051
0.00669677
0.00671864
0.0096464
0.000617712
0.0289283
0.0069309
0.00628418
0.00674155
0.00671255
0.0136945
0.0187209
0.00670756
0.00673118
0.00828169
0.00613847
0.00669391
0.00670553
0.00669303
0.0067268
0.00670877
0.0283404
0.00678434
0.00712119
0.0232511
0.0231048
0.00675883
0.00710849
0.0068944
0.00222397
0.00713923
0.00517627
0.00671758
0.0108311
0.00670535
0.0066528
0.0249171
0.00734256
0.00113599
0.0261025
0.00673971
0.00689778
0.00679317
0.0305636
0.00677913
0.00669781
0.00668712
0.00643005
0.00670207
0.00669241
0.00680135
0.00578855
0.00669471
0.00618092
0.0258833
0.00669432
0.00692448
0.00689219
0.00670708
0.00672769
0.0066942
0.00671895
0.0149379
0.00678151
0.00692086
0.00669214
0.00683095
0.00669877
0.00670676
0.00401588
0.00445272
0.00685638
0.00750026
0.00673501
0.00670018
0.00407856
0.0066935
0.00669799
0.00689165
0.0262061
0.00669919
0.00388685
0.00684509
0.00600989
0.00683367
0.0149069
0.0238235
0.0242508
0.00692226
0.00671679
0.00593776
0.00672974
0.0245626
0.00669909
0.00684185
0.00681823
0.00672214
0.0279081
0.00612236
0.029298
0.0255496
0.00686412
0.00669283
0.00669314
0.00336812
0.00499705
0.00669562
0.00671503
0.00672615
0.00672335
0.00668561
0.0295657
0.00669445
0.00669118
0.00673586
0.00678409
0.00535809
0.00311698
0.00704642
0.00669221
0.00668553
0.0248531
0.00686795
0.00667727
0.0137176
0.00668847
0.00681517
0.00681723
0.00611739
0.00669862
0.00750449
0.00405965
0.00619837
0.00482065
0.00670537
0.00669371
0.0109067
0.0110414
0.00685295
0.0067297
0.00684958
0.00670787
0.00675678